#------------------------------------------------------------------------------
#$Date: 2023-05-16 17:26:30 +0300 (Tue, 16 May 2023) $
#$Revision: 283804 $
#$URL: file:///home/coder/svn-repositories/cod/cif/3/50/00/3500064.cif $
#------------------------------------------------------------------------------
#
# This file is available in the Crystallography Open Database (COD),
# http://www.crystallography.net/
#
# All data on this site have been placed in the public domain by the
# contributors.
#
data_3500064
loop_
_publ_author_name
'Armel Le Bail'
_publ_section_title
;
 Rietveld refinement of the structure of Na2C2O4
;
_journal_name_full               'Personal communication to COD'
_journal_year                    2017
_chemical_compound_source
;
Sigma-Aldrich
;
_chemical_formula_moiety         'C2 O4, 2(Na)'
_chemical_formula_sum            'C2 Na2 O4'
_chemical_formula_weight         133.9986
_space_group_IT_number           14
_symmetry_cell_setting           monoclinic
_symmetry_Int_Tables_number      14
_symmetry_space_group_name_Hall  '-P 2ybc'
_symmetry_space_group_name_H-M   'P 1 21/c 1'
_cell_angle_alpha                90.00000
_cell_angle_beta                 93.0959(9)
_cell_angle_gamma                90.00000
_cell_formula_units_Z            2
_cell_length_a                   3.48379(7)
_cell_length_b                   5.25910(8)
_cell_length_c                   10.42762(17)
_cell_measurement_temperature    295
_cell_volume                     190.772(6)
_computing_structure_refinement  FULLPROF
_diffrn_ambient_temperature      295
_diffrn_radiation_monochromator  graphite
_diffrn_radiation_probe          x-ray
_diffrn_radiation_type           CuK\a
_diffrn_radiation_wavelength     1.54184
_exptl_absorpt_coefficient_mu    3.854
_exptl_crystal_density_diffrn    2.333
_exptl_crystal_F_000             132
_pd_meas_2theta_range_inc        0.020000
_pd_meas_2theta_range_max        130.00000
_pd_meas_2theta_range_min        10.00000
_pd_meas_number_of_points        6001
_pd_proc_2theta_range_inc        0.020000
_pd_proc_2theta_range_max        130.0569
_pd_proc_2theta_range_min        10.0569
_pd_proc_ls_prof_R_factor        4.4483
_pd_proc_ls_prof_wR_expected     1.5243
_pd_proc_ls_prof_wR_factor       6.0210
_pd_proc_wavelength              1.540560
_refine_ls_number_parameters     47
_refine_ls_number_reflns         679
_refine_ls_number_restraints     0
_refine_ls_R_I_factor            3.6282
_iucr_refine_instructions_details
;
Fullprof .pcr file, modified to fit inside 80 columns
followed by the .dat file



COMM   Na2C2O4
! Current global Chi2 (Bragg contrib.) =      16.78    
! Files => DAT-file: naoxa0.dat,  PCR-file: naoxa0
!Job Npr Nph Nba Nex Nsc Nor Dum Iwg Ilo Ias Res Ste Nre Cry Uni Cor Opt Aut
   0   5   1  17   2   0   1   1   0   0   1   0   0   0   0   0   0   0   0
!
!Ipr Ppl Ioc Mat Pcr Ls1 Ls2 Ls3 NLI Prf Ins Rpa Sym Hkl Fou Sho Ana
   0   0   1   0   2   0   4   0   0  -3   0  -1   1   0   2   1   1
!
! Lambda1  Lambda2    Ratio    Bkpos    Wdt    Cthm     muR   AsyLim   Rpolarz
  2nd-muR -> Patt# 1
 1.540560 1.544390  0.50000   90.000  9.0000  0.7995  0.0000   80.00    0.0000
  0.0000
!
!NCY  Eps  R_at  R_an  R_pr  R_gl     Thmin       Step       Thmax    PSD    
Sent0
 20  0.01  0.30  0.30  0.30  0.60     10.0000   0.020000   130.0000   0.000  
 0.000
!
!2Theta/TOF/E(Kev)   Background  for Pattern#  1
        10.4000      2687.5125        311.00
        11.4000      2317.0942        321.00
        12.9800      1965.4291        331.00
        14.5600      1669.8068        341.00
        15.5600      1690.6730        351.00
        18.1400      1415.8347        361.00
        20.1400      1359.3219        371.00
        21.1200      1289.0715        381.00
        28.0800      1555.6147        391.00
        35.0400      1801.3815        401.00
        40.6000      1751.4292        411.00
        48.1400      1729.2327        421.00
        59.4800      1648.2146        431.00
        67.8200      1229.2880        441.00
        90.6800      1202.3530        451.00
       116.6800      1043.3413        461.00
       129.8000      1137.9384        471.00
! 
! Excluded regions (LowT  HighT) for Pattern#  1
        1.00       10.00
      130.00      170.00
! 
!
      47    !Number of refined parameters
!
!  Zero    Code    SyCos    Code   SySin    Code  Lambda     Code MORE ->Patt# 1
 -0.05686  121.0  0.00000    0.0  0.00000    0.0 0.000000    0.00   0
!-------------------------------------------------------------------------------
!  Data for PHASE number:   1  ==> Current R_Bragg for Pattern#  1:     3.63
!-------------------------------------------------------------------------------
   Na2C2O4
!
!Nat Dis Ang Pr1 Pr2 Pr3 Jbt Irf Isy Str Furth       ATZ    Nvk Npr More
   4   0   0 1.0 0.0 0.0   0   0   0   0   0        267.998   0   5   1
!
!Jvi Jdi Hel Sol Mom Ter  Brind   RMua    RMub    RMuc   Jtyp  Nsp_Ref Ph_Shift 
N_Domains
   2   3   0   0   0   0  1.0000  0.0000  0.0000  0.0000    0      0      0     
 0
!
! Max_dst(dist) (angles)  Bond-Valence Calc.
      3.5000    180.0000           
P 21/C                   <--Space group symbol
!Atom   Typ       X        Y        Z     Biso       Occ     In Fin N_t Spc 
/Codes
Na     Na      0.30441  0.05860  0.35424  1.99567   1.00000   0   0   0    0  
                131.00   141.00   151.00   161.00      0.00
C      C       0.11504  0.04031  0.06361  1.45767   1.00000   0   0   0    0  
                171.00   181.00   191.00   201.00      0.00
O1     O       0.15954 -0.11941  0.15156  1.32582   1.00000   0   0   0    0  
                211.00   221.00   231.00   241.00      0.00
O2     O       0.22902  0.26611  0.06872  1.46385   1.00000   0   0   0    0  
                251.00   261.00   271.00   281.00      0.00
!-------> Profile Parameters for Pattern #  1
!  Scale        Shape1      Bov      Str1      Str2      Str3   Strain-Model
 0.33963       0.16568   0.00000   0.00000   0.00000   0.00000       0
    11.00000    21.000     0.000     0.000     0.000     0.000
!       U         V          W           X          Y        GauSiz   LorSiz 
Size-Model
   0.028727  -0.005358   0.032168   0.005770   0.000000   0.000000   0.000000
    0
     51.000     41.000     31.000    291.000      0.000      0.000      0.000
!     a          b         c        alpha      beta       gamma      #Cell Info
   3.483795   5.259097  10.427618  90.000000  93.095909  90.000000   
   81.00000   91.00000  101.00000    0.00000  111.00000    0.00000
!  Pref1    Pref2      Asy1     Asy2     Asy3     Asy4  
  1.09096  0.00000  0.12554  0.05719  0.00000  0.00000
   301.00     0.00    61.00    71.00     0.00     0.00
!  2Th1/TOF1    2Th2/TOF2  Pattern to plot
      10.000     130.000       1




Fullprof .dat file


  10.000    .020 130.000
  2800.   2723.   2842.   2773.   2742.   2694.   2733.   2728.
  2680.   2654.   2728.   2655.   2777.   2677.   2696.   2782.
  2723.   2643.   2719.   2577.   2551.   2627.   2537.   2613.
  2660.   2626.   2620.   2665.   2563.   2605.   2633.   2649.
  2546.   2533.   2561.   2509.   2532.   2594.   2550.   2537.
  2519.   2486.   2423.   2618.   2473.   2558.   2426.   2442.
  2452.   2538.   2411.   2330.   2468.   2489.   2465.   2407.
  2347.   2402.   2336.   2389.   2388.   2391.   2365.   2453.
  2384.   2439.   2364.   2280.   2331.   2335.   2400.   2313.
  2276.   2278.   2381.   2303.   2332.   2346.   2296.   2300.
  2265.   2275.   2350.   2162.   2239.   2253.   2276.   2190.
  2270.   2265.   2212.   2212.   2300.   2245.   2155.   2250.
  2259.   2230.   2206.   2137.   2213.   2224.   2191.   2214.
  2190.   2192.   2187.   2137.   2227.   2092.   2122.   2092.
  2115.   2073.   2091.   2112.   2198.   2072.   2106.   2103.
  2082.   2052.   2047.   2130.   2078.   2101.   2015.   2000.
  2070.   2061.   2098.   2074.   1964.   2078.   2015.   2046.
  1958.   1984.   2001.   2078.   1938.   1971.   1969.   2038.
  1992.   2057.   1911.   2024.   1996.   1911.   1942.   1942.
  1951.   2010.   1990.   1968.   1900.   1963.   1880.   1899.
  1973.   1930.   1902.   1884.   1893.   1947.   1763.   1986.
  1853.   1938.   1918.   1885.   1830.   1885.   1830.   1865.
  1950.   1813.   1906.   1921.   1818.   1808.   1873.   1794.
  1829.   1821.   1814.   1841.   1869.   1800.   1814.   1758.
  1796.   1863.   1872.   1729.   1743.   1772.   1786.   1724.
  1834.   1842.   1791.   1837.   1742.   1764.   1727.   1800.
  1788.   1675.   1799.   1753.   1778.   1719.   1693.   1739.
  1708.   1700.   1705.   1750.   1694.   1724.   1665.   1768.
  1656.   1695.   1716.   1730.   1661.   1736.   1614.   1730.
  1671.   1694.   1700.   1618.   1731.   1761.   1659.   1673.
  1689.   1639.   1634.   1632.   1769.   1698.   1623.   1634.
  1637.   1655.   1653.   1638.   1624.   1597.   1696.   1700.
  1604.   1647.   1638.   1641.   1676.   1663.   1667.   1622.
  1609.   1594.   1644.   1597.   1661.   1616.   1680.   1664.
  1656.   1629.   1664.   1680.   1668.   1642.   1632.   1680.
  1575.   1602.   1567.   1661.   1676.   1599.   1612.   1626.
  1679.   1542.   1565.   1609.   1562.   1657.   1566.   1627.
  1637.   1661.   1643.   1555.   1522.   1696.   1602.   1625.
  1626.   1706.   1732.   1655.   1736.   1699.   1746.   1759.
  1730.   1752.   1754.   1910.   1829.   1841.   1920.   1865.
  1903.   1805.   1905.   2037.   2050.   2125.   2194.   2399.
  2500.   2713.   2860.   3131.   3455.   3762.   4201.   4705.
  5361.   6414.   7682.   9100.  10661.  12793.  14894.  18549.
 22668.  27348.  33462.  37876.  41521.  41304.  37815.  32227.
 25692.  18564.  12647.   8043.   4952.   3292.   2364.   2065.
  1893.   1863.   1846.   1769.   1714.   1709.   1719.   1606.
  1642.   1696.   1615.   1591.   1587.   1539.   1571.   1494.
  1489.   1552.   1514.   1547.   1527.   1466.   1505.   1526.
  1483.   1447.   1496.   1446.   1500.   1469.   1483.   1429.
  1523.   1504.   1451.   1487.   1536.   1467.   1482.   1447.
  1509.   1463.   1433.   1465.   1529.   1553.   1491.   1569.
  1451.   1476.   1502.   1463.   1517.   1520.   1490.   1546.
  1420.   1563.   1445.   1583.   1548.   1539.   1567.   1629.
  1691.   1681.   1763.   1821.   1916.   2132.   2288.   2421.
  2753.   2920.   3210.   3719.   4348.   5186.   6203.   7391.
  9240.  10863.  12009.  12078.  11349.   9895.   7930.   6027.
  4397.   3056.   2302.   1770.   1680.   1504.   1499.   1458.
  1439.   1487.   1419.   1491.   1379.   1378.   1460.   1468.
  1398.   1479.   1390.   1401.   1289.   1417.   1328.   1382.
  1323.   1412.   1364.   1362.   1423.   1481.   1350.   1382.
  1432.   1383.   1423.   1432.   1496.   1370.   1331.   1371.
  1413.   1390.   1389.   1321.   1347.   1384.   1335.   1402.
  1272.   1409.   1345.   1316.   1385.   1379.   1342.   1308.
  1351.   1480.   1304.   1376.   1345.   1411.   1445.   1344.
  1387.   1415.   1396.   1369.   1349.   1409.   1313.   1327.
  1412.   1387.   1368.   1334.   1346.   1296.   1305.   1343.
  1326.   1375.   1320.   1318.   1453.   1388.   1394.   1312.
  1361.   1334.   1349.   1334.   1351.   1382.   1393.   1387.
  1339.   1385.   1373.   1312.   1341.   1297.   1317.   1388.
  1371.   1357.   1312.   1344.   1367.   1290.   1407.   1355.
  1365.   1339.   1348.   1351.   1400.   1330.   1328.   1313.
  1317.   1381.   1428.   1318.   1356.   1332.   1318.   1340.
  1290.   1326.   1346.   1345.   1293.   1305.   1315.   1292.
  1297.   1394.   1367.   1336.   1390.   1394.   1524.   1424.
  1376.   1285.   1279.   1301.   1331.   1354.   1314.   1297.
  1357.   1391.   1355.   1341.   1298.   1390.   1391.   1280.
  1342.   1307.   1311.   1240.   1310.   1368.   1347.   1391.
  1396.   1304.   1346.   1393.   1312.   1327.   1356.   1368.
  1369.   1354.   1341.   1295.   1364.   1380.   1394.   1336.
  1346.   1322.   1302.   1401.   1375.   1366.   1340.   1384.
  1346.   1339.   1369.   1342.   1326.   1355.   1404.   1322.
  1368.   1380.   1438.   1445.   1392.   1338.   1357.   1416.
  1390.   1459.   1365.   1337.   1443.   1362.   1343.   1477.
  1393.   1341.   1369.   1407.   1381.   1338.   1351.   1347.
  1383.   1341.   1400.   1434.   1438.   1431.   1422.   1436.
  1405.   1510.   1538.   1629.   1657.   1593.   1750.   1866.
  1983.   2273.   2524.   2884.   3384.   3902.   4587.   5589.
  6855.   8075.   9090.  10015.   9999.   9581.   8837.   7273.
  5843.   4573.   3357.   2624.   2084.   1799.   1619.   1513.
  1521.   1460.   1472.   1407.   1494.   1434.   1488.   1451.
  1489.   1442.   1482.   1459.   1463.   1512.   1513.   1426.
  1494.   1439.   1449.   1438.   1493.   1457.   1439.   1475.
  1482.   1514.   1406.   1407.   1442.   1468.   1480.   1499.
  1567.   1566.   1460.   1551.   1468.   1506.   1571.   1515.
  1484.   1556.   1590.   1583.   1647.   1677.   1700.   1744.
  1833.   1989.   2020.   2252.   2519.   2872.   3391.   4011.
  4833.   6084.   7508.   9214.  11075.  13333.  15751.  18250.
 20179.  20948.  20866.  19756.  17558.  14743.  11591.   9012.
  6765.   4872.   3788.   2781.   2322.   2119.   1927.   1768.
  1663.   1648.   1653.   1598.   1538.   1514.   1564.   1509.
  1567.   1547.   1499.   1501.   1466.   1496.   1536.   1491.
  1460.   1433.   1402.   1465.   1412.   1468.   1407.   1483.
  1437.   1495.   1475.   1455.   1473.   1510.   1466.   1452.
  1443.   1395.   1484.   1466.   1552.   1606.   1602.   1590.
  1636.   1618.   1610.   1548.   1486.   1464.   1427.   1477.
  1526.   1513.   1473.   1391.   1518.   1457.   1442.   1528.
  1470.   1409.   1524.   1473.   1536.   1488.   1497.   1508.
  1468.   1466.   1479.   1521.   1443.   1455.   1539.   1472.
  1519.   1494.   1437.   1548.   1455.   1476.   1479.   1519.
  1505.   1568.   1496.   1500.   1477.   1521.   1551.   1466.
  1506.   1483.   1437.   1527.   1501.   1476.   1486.   1456.
  1556.   1492.   1556.   1550.   1486.   1526.   1409.   1534.
  1466.   1573.   1531.   1532.   1583.   1575.   1625.   1499.
  1572.   1494.   1556.   1467.   1534.   1552.   1541.   1551.
  1571.   1609.   1518.   1610.   1559.   1541.   1529.   1509.
  1558.   1564.   1575.   1644.   1662.   1563.   1644.   1601.
  1563.   1573.   1594.   1616.   1636.   1600.   1649.   1637.
  1618.   1650.   1647.   1643.   1593.   1649.   1674.   1626.
  1682.   1674.   1642.   1713.   1652.   1712.   1754.   1707.
  1779.   1638.   1745.   1665.   1734.   1714.   1735.   1784.
  1761.   1811.   1717.   1845.   1765.   1870.   1860.   1896.
  1855.   1982.   1913.   2018.   1963.   2093.   2109.   2155.
  2123.   2126.   2221.   2289.   2209.   2266.   2312.   2357.
  2479.   2399.   2618.   2687.   2961.   3198.   3625.   4022.
  4758.   5630.   6760.   8141.  10033.  12322.  14805.  18024.
 20896.  23574.  24943.  25585.  24441.  22472.  19794.  17249.
 13595.  11105.   8623.   7071.   5885.   5008.   4610.   4416.
  4185.   4207.   3981.   4060.   3967.   4288.   4650.   5076.
  5597.   6628.   7943.   9559.  11464.  14289.  18118.  22653.
 28655.  35581.  43917.  53359.  63141.  70936.  77015.  79442.
 77862.  72325.  64696.  55179.  44202.  33691.  24791.  18223.
 13038.   9557.   7669.   6494.   5893.   5539.   5451.   5611.
  5605.   6006.   6136.   6621.   7294.   8103.   9268.  10884.
 12950.  16013.  20487.  25678.  33624.  44294.  57500.  74702.
 96529. 122586. 152330. 186365. 224289. 255541. 273135. 275783.
267511. 247767. 216233. 179486. 141254. 105191.  74907.  52137.
 35563.  24031.  16029.  11871.   9347.   7812.   6885.   6208.
  5543.   5172.   4897.   4586.   4616.   4472.   4425.   4563.
  4651.   4876.   5496.   6067.   6834.   7858.   9408.  11274.
 13225.  15871.  18676.  20997.  22540.  23303.  22881.  21181.
 18952.  16283.  13336.  10399.   8284.   6409.   5076.   4139.
  3497.   3121.   2831.   2697.   2682.   2559.   2563.   2474.
  2445.   2400.   2416.   2365.   2336.   2446.   2416.   2516.
  2481.   2472.   2473.   2592.   2543.   2515.   2531.   2392.
  2513.   2334.   2400.   2321.   2360.   2373.   2339.   2370.
  2450.   2431.   2379.   2436.   2470.   2414.   2369.   2374.
  2374.   2340.   2425.   2386.   2363.   2423.   2364.   2439.
  2350.   2553.   2502.   2449.   2526.   2468.   2604.   2553.
  2649.   2765.   2733.   2820.   2990.   3014.   3267.   3553.
  4066.   4453.   5117.   5836.   7090.   8367.  10406.  12315.
 14144.  15226.  15628.  15386.  14991.  14549.  13708.  13464.
 13801.  15257.  17950.  22557.  28461.  36331.  46112.  57784.
 70481.  83478.  97531. 106126. 107458. 102925.  95096.  86044.
 73936.  59676.  47257.  37497.  31898.  28136.  25937.  25052.
 24517.  23669.  22362.  20220.  18132.  15520.  12633.   9931.
  7979.   6322.   5078.   4339.   3557.   3297.   2969.   2828.
  2707.   2682.   2497.   2510.   2496.   2510.   2527.   2414.
  2520.   2318.   2308.   2338.   2334.   2281.   2268.   2341.
  2226.   2225.   2192.   2161.   2145.   2130.   2137.   2150.
  2153.   2129.   2127.   2131.   2160.   2120.   2141.   2150.
  2148.   2235.   2276.   2265.   2283.   2341.   2451.   2600.
  2680.   2893.   3162.   3510.   4000.   4652.   5442.   6652.
  7930.   9732.  12044.  14219.  16690.  18597.  19545.  19508.
 18375.  17158.  15260.  13136.  10492.   8219.   6515.   5060.
  4051.   3292.   2968.   2567.   2319.   2299.   2148.   2141.
  2091.   2155.   2097.   2113.   2037.   2104.   2028.   2023.
  2074.   2004.   2055.   2136.   2088.   2088.   2061.   2075.
  2075.   2114.   2180.   2085.   2147.   2184.   2209.   2181.
  2232.   2236.   2342.   2285.   2268.   2164.   2133.   2110.
  2101.   2145.   2095.   2127.   2044.   2084.   2187.   2116.
  2095.   2112.   2119.   2104.   2135.   2225.   2123.   2120.
  2137.   2130.   2104.   2197.   2130.   2187.   2177.   2177.
  2237.   2257.   2220.   2257.   2281.   2301.   2264.   2235.
  2249.   2290.   2339.   2333.   2437.   2315.   2333.   2370.
  2467.   2461.   2441.   2537.   2664.   2624.   2692.   2837.
  3001.   3048.   3330.   3671.   4156.   4686.   5201.   6169.
  7317.   8783.  10641.  13043.  15595.  17753.  20037.  21614.
 23705.  26279.  30115.  34999.  40926.  48456.  59112.  72138.
 83483.  91740.  93092.  90349.  85749.  78178.  68997.  57399.
 44740.  33748.  25106.  18392.  12866.   8717.   6262.   4835.
  3841.   3456.   3162.   3003.   2853.   2823.   2738.   2548.
  2559.   2500.   2396.   2348.   2398.   2293.   2308.   2308.
  2252.   2214.   2238.   2293.   2288.   2198.   2352.   2327.
  2251.   2268.   2427.   2572.   2663.   2770.   2995.   3100.
  3485.   3746.   3853.   3926.   3912.   3984.   3763.   3560.
  3449.   3219.   2999.   2649.   2548.   2401.   2308.   2260.
  2213.   2142.   2137.   2021.   2076.   2053.   2055.   2049.
  1954.   2057.   2050.   2034.   2034.   2006.   1931.   1985.
  2089.   2042.   1995.   2021.   1980.   1933.   2012.   2011.
  2039.   2056.   2071.   2040.   2012.   2072.   2101.   2061.
  2080.   2017.   2061.   2117.   2001.   2142.   2081.   2074.
  2108.   2150.   2051.   2130.   2191.   2114.   2131.   2124.
  2148.   2218.   2229.   2119.   2207.   2291.   2260.   2278.
  2307.   2357.   2423.   2444.   2515.   2676.   2830.   2862.
  3042.   3314.   3645.   4030.   4824.   5595.   6495.   7964.
  9705.  11769.  14930.  18618.  23833.  29611.  35139.  40542.
 44813.  46718.  46668.  44310.  40426.  36525.  31702.  25891.
 20766.  16240.  12653.   9516.   7229.   5457.   4409.   3526.
  3216.   2962.   2864.   2858.   2748.   2809.   2777.   2857.
  3006.   3179.   3373.   3704.   4156.   4783.   5421.   6099.
  7165.   8518.   9964.  12003.  13917.  15893.  17191.  18142.
 18101.  17690.  16555.  14947.  13504.  11589.   9948.   8174.
  6748.   5522.   4689.   3807.   3327.   2883.   2736.   2480.
  2465.   2354.   2398.   2274.   2307.   2266.   2241.   2193.
  2247.   2118.   2170.   2144.   2134.   2107.   2083.   2210.
  2090.   2077.   2088.   2120.   2210.   2188.   2185.   2224.
  2296.   2280.   2413.   2391.   2535.   2596.   2571.   2664.
  2741.   2558.   2535.   2508.   2410.   2469.   2347.   2301.
  2213.   2229.   2215.   2160.   2267.   2214.   2241.   2278.
  2321.   2485.   2547.   2636.   2816.   2998.   3214.   3600.
  3964.   4227.   4604.   4538.   4720.   4406.   4446.   4295.
  4074.   3810.   3608.   3438.   3242.   3249.   3312.   3307.
  3466.   3836.   4019.   4601.   5137.   5844.   6997.   8212.
 10137.  12389.  15320.  18525.  22878.  27831.  33492.  37668.
 41130.  41846.  41493.  39335.  37114.  33694.  30942.  27333.
 24529.  22471.  21086.  20258.  19858.  18878.  18504.  17239.
 16049.  14864.  13400.  11571.  10046.   8377.   7143.   5766.
  4705.   3971.   3269.   2900.   2702.   2536.   2447.   2381.
  2364.   2271.   2277.   2336.   2126.   2261.   2127.   2260.
  2241.   2221.   2200.   2143.   2195.   2136.   2120.   2233.
  2188.   2124.   2128.   2050.   2066.   2077.   2077.   2104.
  2206.   2152.   2255.   2226.   2337.   2311.   2337.   2418.
  2654.   2791.   2970.   3194.   3475.   3763.   4208.   4377.
  4734.   4697.   4772.   4731.   4804.   4718.   4887.   4993.
  5305.   5695.   6294.   6851.   7756.   9387.  11083.  13100.
 14807.  16592.  17424.  17663.  17130.  15864.  14532.  13147.
 11699.  10098.   8349.   6950.   5922.   4720.   3930.   3245.
  2960.   2627.   2430.   2427.   2326.   2344.   2213.   2223.
  2210.   2190.   2196.   2165.   2168.   2141.   2240.   2242.
  2201.   2334.   2333.   2408.   2421.   2461.   2519.   2731.
  2956.   2975.   3230.   3569.   3883.   4287.   5059.   5768.
  6870.   8165.   9885.  12273.  14846.  18175.  21857.  25985.
 29297.  31024.  31323.  30499.  28231.  26158.  23868.  21295.
 18462.  15633.  12538.  10137.   7923.   6110.   4802.   3859.
  3273.   2974.   2632.   2557.   2435.   2338.   2293.   2209.
  2192.   2185.   2114.   2151.   2156.   2173.   2121.   2133.
  2213.   2264.   2273.   2335.   2351.   2279.   2406.   2444.
  2452.   2372.   2401.   2309.   2285.   2246.   2113.   2252.
  2091.   1999.   2024.   1965.   1999.   1943.   1976.   1901.
  1950.   1923.   1875.   1852.   1955.   1962.   1958.   1853.
  1921.   1893.   1853.   1927.   1862.   1986.   1960.   1928.
  1854.   1910.   2006.   1993.   1887.   1901.   1933.   1974.
  1991.   1994.   2061.   1994.   2107.   2094.   2261.   2268.
  2344.   2380.   2540.   2646.   2938.   3096.   3405.   3857.
  4425.   5163.   6001.   6936.   7817.   8859.   9645.   9787.
  9343.   8871.   8271.   7533.   7085.   6284.   5444.   4986.
  4323.   3759.   3257.   2853.   2617.   2352.   2413.   2332.
  2332.   2407.   2448.   2504.   2577.   2649.   2723.   3036.
  3236.   3368.   3897.   4333.   4914.   5561.   6551.   7690.
  9339.  11210.  13643.  16409.  20380.  24282.  27074.  28588.
 28458.  26534.  24859.  22019.  20887.  18631.  16610.  14309.
 11722.   9484.   7457.   5984.   4763.   3800.   3313.   2952.
  2746.   2519.   2430.   2326.   2331.   2380.   2251.   2258.
  2156.   2232.   2171.   2228.   2175.   2186.   2132.   2124.
  2036.   2079.   2064.   2039.   2074.   2072.   2101.   2015.
  1959.   2098.   1998.   2080.   2084.   2112.   2024.   2187.
  2078.   2129.   2134.   2110.   2092.   2178.   2165.   2201.
  2234.   2291.   2391.   2460.   2518.   2611.   2708.   2893.
  3224.   3457.   3667.   4353.   4728.   5547.   6363.   7451.
  8965.  10814.  12604.  14828.  16769.  17598.  17943.  17338.
 16587.  15243.  14069.  13085.  11806.  10226.   8794.   7331.
  6453.   5195.   4210.   3615.   3024.   2737.   2665.   2432.
  2465.   2364.   2459.   2389.   2307.   2232.   2341.   2400.
  2537.   2394.   2513.   2533.   2730.   2830.   2937.   3107.
  3416.   3665.   3968.   4270.   4913.   5416.   6219.   7218.
  8061.   9586.  10901.  12424.  14041.  15612.  16686.  16967.
 17090.  16930.  16501.  16234.  15909.  15456.  15077.  15088.
 14991.  15347.  16321.  17378.  19314.  20582.  21791.  22127.
 21601.  20553.  18936.  17455.  16075.  14736.  12890.  11723.
  9907.   8474.   7008.   5764.   4795.   4054.   3542.   3126.
  2948.   2783.   2733.   2614.   2518.   2488.   2403.   2429.
  2245.   2326.   2330.   2222.   2251.   2260.   2137.   2217.
  2254.   2257.   2214.   2130.   2194.   2198.   2259.   2267.
  2196.   2199.   2127.   2162.   2235.   2168.   2127.   2096.
  2188.   2079.   2174.   2218.   2136.   2217.   2148.   2127.
  2191.   2159.   2196.   2178.   2286.   2292.   2288.   2369.
  2430.   2266.   2383.   2364.   2541.   2546.   2568.   2732.
  2872.   2915.   3214.   3416.   3702.   3948.   4309.   4867.
  5443.   5892.   6831.   7714.   8714.   9745.  10523.  11578.
 12008.  11864.  11825.  11214.  10546.   9842.   9241.   8760.
  8106.   7408.   7126.   6630.   6154.   5968.   5888.   6048.
  6378.   6889.   7796.   9154.  11044.  13473.  16483.  20347.
 24806.  30679.  35986.  40070.  41981.  41424.  39429.  37453.
 36092.  35277.  34650.  34042.  32857.  30232.  26582.  22780.
 19587.  17117.  15193.  14111.  13468.  13079.  12517.  12398.
 12223.  12715.  13685.  14449.  15019.  14743.  14239.  13326.
 12316.  11618.  10918.  10399.   9660.   8748.   7961.   6999.
  6022.   5166.   4460.   3946.   3559.   3414.   3184.   2947.
  2813.   2707.   2592.   2442.   2524.   2617.   2469.   2549.
  2671.   2780.   2760.   2959.   3144.   3263.   3604.   3939.
  4336.   4738.   5401.   6158.   6816.   7935.   8936.  10014.
 10826.  11222.  11597.  11858.  11586.  11168.  10709.  10187.
  9537.   9191.   8750.   8230.   7450.   7007.   6186.   5555.
  4957.   4398.   4037.   3724.   3449.   3280.   3134.   2974.
  2890.   2578.   2675.   2541.   2573.   2627.   2726.   2712.
  2729.   2603.   2538.   2582.   2433.   2431.   2389.   2371.
  2371.   2284.   2265.   2265.   2331.   2250.   2326.   2392.
  2464.   2539.   2642.   2785.   2667.   2781.   2626.   2567.
  2619.   2468.   2491.   2471.   2394.   2533.   2381.   2428.
  2405.   2529.   2516.   2711.   2860.   2966.   3158.   3308.
  3339.   3426.   3152.   3124.   3062.   2883.   2718.   2701.
  2581.   2476.   2407.   2299.   2149.   2057.   1989.   1983.
  1897.   1855.   1817.   1770.   1834.   1823.   1870.   1813.
  1951.   1837.   1873.   1957.   2119.   2030.   2054.   2223.
  2343.   2474.   2598.   2788.   3052.   3374.   3716.   4274.
  4877.   5898.   6781.   8017.   9319.  10561.  11187.  11462.
 10906.  10352.   9388.   8651.   7851.   7418.   7051.   6561.
  6016.   5283.   4774.   4002.   3573.   3092.   2999.   2758.
  2952.   3118.   3315.   3512.   3957.   4075.   4212.   4220.
  4212.   4055.   3927.   3799.   3588.   3638.   3363.   3245.
  3101.   2876.   2521.   2505.   2294.   2245.   2125.   2044.
  1887.   1812.   1799.   1727.   1792.   1733.   1722.   1703.
  1640.   1700.   1652.   1722.   1652.   1643.   1740.   1679.
  1683.   1728.   1594.   1620.   1681.   1654.   1705.   1671.
  1752.   1719.   1665.   1718.   1653.   1708.   1706.   1807.
  1735.   1834.   1812.   2014.   1971.   2083.   2019.   2289.
  2372.   2465.   2639.   2901.   3232.   3477.   3880.   4421.
  4968.   5905.   6946.   7930.   9078.   9528.   9882.   9970.
  9323.   8817.   8148.   7478.   7176.   6691.   6240.   5888.
  5524.   4744.   4307.   3684.   3267.   2929.   2858.   2682.
  2723.   2812.   2992.   3084.   3426.   3439.   3747.   3695.
  3509.   3390.   3315.   3352.   3194.   3172.   3409.   3431.
  3450.   3556.   3751.   3838.   3964.   3984.   3932.   3811.
  3668.   3556.   3416.   3187.   3118.   3001.   2852.   2739.
  2559.   2438.   2303.   2012.   1914.   1905.   1865.   1756.
  1791.   1784.   1725.   1732.   1708.   1717.   1820.   1841.
  1801.   1864.   1954.   1976.   1928.   2046.   2099.   2220.
  2260.   2372.   2473.   2596.   2808.   2916.   3166.   3333.
  3390.   3588.   3559.   3458.   3355.   3349.   3051.   2964.
  2911.   2754.   2712.   2560.   2450.   2246.   2211.   2121.
  1961.   1819.   1851.   1749.   1635.   1696.   1685.   1749.
  1666.   1721.   1694.   1668.   1646.   1703.   1646.   1690.
  1752.   1737.   1740.   1761.   1818.   1836.   1934.   1990.
  2032.   2187.   2114.   2379.   2429.   2699.   2910.   3133.
  3306.   3921.   4125.   4332.   4531.   4790.   4874.   5031.
  4903.   5012.   4759.   4622.   4500.   4461.   4397.   4474.
  4396.   4594.   4893.   5210.   5692.   6111.   6596.   7042.
  7057.   6873.   6630.   6160.   5868.   5518.   5599.   5639.
  5847.   6226.   6460.   6870.   7070.   7255.   7329.   6868.
  6472.   5893.   5378.   4952.   4653.   4694.   4686.   4406.
  4300.   4057.   3797.   3569.   3337.   3201.   3199.   3444.
  3433.   3588.   3692.   3753.   3681.   3478.   3360.   3218.
  3109.   3067.   2995.   3065.   3126.   3046.   3052.   3129.
  3274.   3424.   3595.   3931.   4244.   4955.   5488.   6213.
  6890.   7447.   7923.   8052.   8108.   8425.   8478.   8701.
  9170.   9690.   9692.   9744.   9215.   8697.   7861.   7156.
  6599.   6046.   5703.   5284.   4992.   4556.   4198.   3954.
  3385.   3103.   2748.   2601.   2468.   2616.   2387.   2493.
  2483.   2514.   2668.   2953.   3106.   3328.   3704.   4261.
  4733.   5286.   6017.   6781.   7571.   8465.   9024.   9411.
  9151.   9049.   8733.   8618.   8432.   8079.   8040.   7759.
  7238.   6731.   5978.   5435.   4893.   4458.   3924.   3549.
  3376.   2965.   2828.   2466.   2240.   2021.   1960.   1857.
  1735.   1708.   1636.   1630.   1576.   1493.   1562.   1473.
  1530.   1440.   1471.   1443.   1446.   1383.   1482.   1427.
  1420.   1341.   1415.   1444.   1425.   1370.   1404.   1433.
  1376.   1406.   1348.   1294.   1348.   1349.   1359.   1380.
  1401.   1336.   1361.   1306.   1329.   1391.   1279.   1341.
  1263.   1348.   1301.   1333.   1278.   1367.   1330.   1315.
  1286.   1401.   1342.   1307.   1319.   1369.   1321.   1398.
  1327.   1379.   1327.   1319.   1300.   1307.   1315.   1301.
  1298.   1349.   1330.   1318.   1378.   1319.   1299.   1398.
  1293.   1329.   1304.   1270.   1263.   1316.   1281.   1348.
  1345.   1346.   1326.   1308.   1207.   1338.   1286.   1260.
  1325.   1294.   1340.   1290.   1303.   1345.   1320.   1334.
  1294.   1300.   1283.   1300.   1370.   1359.   1305.   1420.
  1341.   1270.   1364.   1448.   1475.   1522.   1472.   1557.
  1510.   1631.   1579.   1606.   1673.   1620.   1611.   1697.
  1589.   1618.   1664.   1653.   1718.   1727.   1719.   1759.
  1841.   1910.   1989.   2173.   2195.   2392.   2460.   2386.
  2367.   2300.   2197.   2066.   2055.   1959.   1997.   2107.
  1971.   1973.   1919.   1878.   1892.   1865.   1909.   1896.
  1924.   2142.   2133.   2249.   2354.   2478.   2356.   2315.
  2154.   2064.   2029.   1973.   1938.   1958.   1961.   1865.
  1816.   1666.   1678.   1621.   1528.   1425.   1357.   1407.
  1404.   1391.   1304.   1282.   1310.   1267.   1301.   1327.
  1313.   1339.   1270.   1313.   1278.   1294.   1346.   1194.
  1217.   1300.   1280.   1217.   1249.   1287.   1330.   1272.
  1305.   1273.   1307.   1311.   1305.   1282.   1331.   1336.
  1347.   1331.   1429.   1403.   1426.   1531.   1484.   1543.
  1630.   1718.   1800.   1782.   1751.   1819.   1881.   1876.
  1848.   1699.   1697.   1686.   1663.   1628.   1659.   1601.
  1563.   1578.   1569.   1483.   1491.   1471.   1428.   1410.
  1469.   1420.   1500.   1522.   1431.   1603.   1656.   1719.
  1797.   1919.   2116.   2300.   2416.   2623.   2742.   2778.
  2832.   2834.   2688.   2505.   2399.   2301.   2229.   2166.
  2189.   2204.   2043.   2013.   1874.   1939.   1766.   1685.
  1646.   1602.   1503.   1536.   1491.   1567.   1599.   1610.
  1653.   1740.   1828.   1959.   2050.   2320.   2569.   3043.
  3369.   3744.   4047.   4550.   4777.   4640.   4415.   4225.
  3694.   3390.   3180.   3031.   3098.   3037.   3148.   2998.
  2839.   2626.   2421.   2174.   1927.   1791.   1602.   1522.
  1486.   1427.   1326.   1348.   1351.   1376.   1383.   1346.
  1382.   1409.   1407.   1429.   1441.   1493.   1439.   1542.
  1612.   1537.   1674.   1693.   1733.   1642.   1689.   1690.
  1618.   1644.   1617.   1527.   1580.   1580.   1530.   1476.
  1495.   1459.   1468.   1464.   1415.   1410.   1352.   1332.
  1293.   1272.   1304.   1274.   1286.   1317.   1276.   1319.
  1370.   1198.   1260.   1306.   1286.   1279.   1305.   1315.
  1261.   1288.   1331.   1322.   1314.   1331.   1348.   1391.
  1382.   1440.   1391.   1436.   1498.   1565.   1550.   1678.
  1796.   1872.   2029.   2313.   2537.   2751.   3036.   3063.
  3037.   2896.   2727.   2558.   2362.   2146.   2033.   2092.
  2171.   2202.   2118.   2150.   2021.   1962.   1860.   1753.
  1584.   1525.   1539.   1554.   1506.   1468.   1559.   1635.
  1650.   1642.   1770.   1889.   2053.   2124.   2361.   2422.
  2762.   3060.   3413.   3879.   4345.   4604.   4790.   4860.
  4892.   4706.   4467.   4038.   3800.   3536.   3471.   3404.
  3369.   3261.   3174.   2877.   2884.   2640.   2267.   2133.
  1906.   1799.   1653.   1630.   1550.   1418.   1464.   1416.
  1466.   1385.   1333.   1399.   1310.   1256.   1261.   1283.
  1366.   1315.   1282.   1294.   1276.   1268.   1379.   1303.
  1299.   1312.   1256.   1257.   1310.   1365.   1324.   1388.
  1323.   1376.   1348.   1364.   1409.   1341.   1432.   1403.
  1436.   1476.   1502.   1600.   1466.   1629.   1615.   1739.
  1756.   1912.   2011.   2054.   2127.   2202.   2284.   2368.
  2473.   2524.   2420.   2604.   2729.   2750.   2752.   2666.
  2568.   2559.   2451.   2424.   2460.   2263.   2292.   2427.
  2359.   2427.   2479.   2548.   2586.   2583.   2645.   2857.
  3034.   3116.   3339.   3636.   3895.   4286.   4564.   4856.
  5182.   5597.   5746.   6021.   6113.   5762.   5713.   5517.
  5427.   5327.   4943.   5235.   5312.   5482.   5924.   5939.
  6033.   5671.   5363.   4816.   4332.   3820.   3445.   3022.
  2951.   2884.   2868.   2806.   2846.   2755.   2554.   2319.
  2142.   1906.   1834.   1722.   1655.   1606.   1546.   1542.
  1569.   1643.   1627.   1726.   1763.   1889.   1861.   1961.
  2074.   2054.   2105.   2170.   2188.   2233.   2160.   2104.
  2242.   2228.   2190.   2196.   2231.   2229.   2289.   2157.
  2085.   2205.   2193.   2128.   2049.   2073.   2100.   2027.
  1898.   1966.   1927.   2006.   1986.   2003.   2159.   2251.
  2329.   2496.   2558.   2680.   2761.   2743.   2652.   2564.
  2491.   2377.   2263.   2273.   2166.   2191.   2158.   2225.
  2195.   2171.   2217.   2117.   2008.   1957.   1866.   1752.
  1665.   1606.   1516.   1525.   1561.   1540.   1538.   1550.
  1537.   1442.   1551.   1408.   1437.   1403.   1367.   1441.
  1426.   1403.   1362.   1367.   1381.   1496.   1447.   1435.
  1446.   1477.   1515.   1441.   1545.   1576.   1657.   1613.
  1673.   1767.   1801.   1925.   2106.   2176.   2355.   2524.
  2853.   3118.   3460.   3859.   4294.   4519.   4944.   4991.
  4736.   4619.   4298.   4400.   4217.   4249.   4377.   4929.
  5362.   5923.   6405.   6888.   7240.   7324.   7394.   7176.
  7149.   6671.   6014.   5566.   5008.   4737.   4535.   4285.
  4346.   4236.   4135.   4216.   3812.   3606.   3312.   2995.
  2714.   2310.   2103.   1990.   1861.   1675.   1597.   1555.
  1463.   1585.   1471.   1442.   1478.   1450.   1383.   1408.
  1418.   1362.   1346.   1468.   1380.   1412.   1400.   1418.
  1391.   1393.   1442.   1434.   1456.   1499.   1500.   1521.
  1596.   1601.   1728.   1686.   1856.   1745.   1841.   2010.
  2033.   2106.   2064.   2101.   2049.   1967.   1896.   1812.
  1924.   1828.   1756.   1773.   1860.   1868.   1823.   1757.
  1830.   1773.   1824.   1725.   1724.   1599.   1601.   1736.
  1717.   1680.   1692.   1747.   1827.   1999.   1910.   2006.
  2142.   2313.   2471.   2694.   2933.   3227.   3625.   3860.
  4435.   4733.   4996.   5443.   5997.   6081.   6255.   6147.
  5863.   5455.   4911.   4464.   4220.   3999.   3856.   3776.
  3841.   3775.   3755.   3617.   3444.   3165.   2844.   2538.
  2307.   2029.   1844.   1653.   1703.   1580.   1544.   1517.
  1485.   1413.   1401.   1456.   1464.   1434.   1443.   1439.
  1530.   1460.   1378.   1422.   1460.   1435.   1425.   1478.
  1544.   1494.   1569.   1474.   1542.   1594.   1698.   1777.
  1759.   1896.   1984.   2137.   2140.   2394.   2651.   2854.
  3242.   3584.   3944.   4240.   4529.   4549.   4294.   4078.
  3877.   3487.   3222.   3150.   3094.   3227.   3362.   3693.
  3714.   3902.   4008.   3955.   3882.   3594.   3325.   3069.
  2808.   2618.   2360.   2292.   2170.   2069.   2123.   2113.
  2059.   2077.   2041.   2019.   1879.   1840.   1725.   1621.
  1553.   1476.   1491.   1502.   1421.   1429.   1499.   1446.
  1462.   1528.   1500.   1583.   1534.   1545.   1605.   1655.
  1670.   1689.   1806.   1937.   2036.   2057.   2141.   2256.
  2455.   2527.   2606.   2684.   2704.   2779.   2670.   2672.
  2533.   2550.   2549.   2540.   2629.   2726.   3045.   3273.
  3367.   3670.   3989.   4331.   4479.   4883.   5257.   5202.
  5265.   5285.   4879.   4805.   4574.   4612.   4518.   4463.
  4493.   4481.   4663.   4621.   4566.   4458.   4262.   3843.
  3541.   3288.   3210.   2988.   2843.   2794.   2675.   2528.
  2480.   2406.   2208.   2037.   1975.   1911.   1836.   1712.
  1679.   1673.   1646.   1552.   1570.   1602.   1580.   1583.
  1444.   1618.   1529.   1585.   1648.   1735.   1727.   1835.
  1949.   2020.   2123.   2230.   2412.   2536.   2626.   2768.
  2751.   2909.   2932.   3122.   3117.   3172.   3420.   3584.
  3802.   3850.   3982.   3973.   3852.   3752.   3576.   3387.
  3187.   2996.   2946.   2887.   2844.   2849.   2777.   2697.
  2518.   2527.   2389.   2235.   2045.   2015.   1966.   1732.
  1719.   1648.   1624.   1605.   1505.   1490.   1412.   1434.
  1387.   1457.   1422.   1447.   1430.   1410.   1508.   1551.
  1463.   1536.   1573.   1559.   1533.   1542.   1474.   1532.
  1420.   1427.   1407.   1390.   1404.   1430.   1359.   1474.
  1490.   1407.   1357.   1411.   1429.   1434.   1295.   1364.
  1345.   1294.   1281.   1330.   1359.   1408.   1438.   1478.
  1516.   1393.   1499.   1479.   1653.   1668.   1736.   1858.
  1958.   2045.   2059.   2051.   2110.   1896.   2030.   1778.
  1813.   1673.   1668.   1722.   1736.   1713.   1804.   1985.
  1939.   2033.   1979.   2105.   2025.   2145.   2126.   2181.
  2255.   2289.   2270.   2259.   2179.   2147.   1969.   1906.
  1977.   1819.   1847.   1836.   1867.   1865.   1927.   1902.
  1958.   2050.   1960.   2000.   1997.   1966.   1911.   2094.
  2084.   2123.   2177.   2316.   2345.   2430.   2551.   2556.
  2631.   2624.   2567.   2608.   2437.   2451.   2452.   2389.
  2406.   2339.   2416.   2336.   2388.   2353.   2310.   2332.
  2274.   2247.   2275.   2151.   2264.   2216.   2151.   2061.
  2110.   2093.   1941.   1897.   1864.   1699.   1646.   1678.
  1684.   1580.   1663.   1636.   1646.   1580.   1555.   1558.
  1508.   1527.   1520.   1451.   1437.   1447.   1374.   1342.
  1380.   1342.   1368.   1363.   1340.   1371.   1393.   1471.
  1487.   1464.   1524.   1592.   1574.   1647.   1727.   1765.
  1832.   1861.   1984.   1963.   1920.   2065.   2088.   2048.
  2108.   1974.   1881.   1837.   1777.   1833.   1744.   1807.
  1740.   1777.   1810.   1830.   1726.   1748.   1704.   1649.
  1597.   1536.   1511.   1448.   1487.   1415.   1399.   1383.
  1357.   1413.   1343.   1321.   1388.   1339.   1302.   1381.
  1361.   1346.   1288.   1347.   1341.   1329.   1390.   1322.
  1368.   1378.   1395.   1347.   1420.   1485.   1482.   1465.
  1441.   1555.   1542.   1624.   1611.   1599.   1740.   1765.
  1683.   1767.   1771.   1814.   1855.   1827.   1956.   2018.
  2103.   2136.   2125.   2073.   2032.   1981.   1860.   1915.
  1815.   1738.   1721.   1728.   1715.   1682.   1769.   1789.
  1835.   1778.   1835.   1747.   1652.   1638.   1617.   1594.
  1534.   1561.   1619.   1612.   1674.   1697.   1678.   1720.
  1709.   1735.   1797.   1854.   1906.   1944.   2076.   2112.
  2155.   2374.   2458.   2661.   2793.   2825.   2838.   3134.
  3294.   3275.   3556.   3752.   3962.   4146.   4486.   4718.
  4715.   4606.   4317.   4002.   3526.   3305.   3106.   2962.
  2803.   2713.   2627.   2674.   2810.   2768.   3006.   2860.
  2754.   2608.   2498.   2260.   2081.   1965.   1848.   1753.
  1756.   1749.   1685.   1650.   1590.   1617.   1665.   1717.
  1806.   1887.   1928.   1972.   2095.   2081.   2194.   2363.
  2554.   2648.   2906.   3058.   3169.   3487.   3653.   3827.
  3921.   3863.   4103.   4166.   4214.   4230.   4271.   4488.
  4551.   4812.   5043.   5096.   5374.   5463.   5400.   5508.
  5649.   5534.   5471.   5358.   5229.   5119.   4983.   5070.
  4876.   4762.   4755.   4755.   4830.   4864.   4802.   4728.
  4559.   4387.   4273.   4034.   3834.   3481.   3390.   3263.
  3049.   2959.   3027.   2975.   3010.   3106.   3127.   3227.
  3310.   3499.   3532.   3705.   3656.   3849.   3697.   3536.
  3448.   3180.   2846.   2687.   2514.   2262.   2120.   2258.
  2161.   2338.   2305.   2402.   2331.   2352.   2391.   2374.
  2242.   2075.   1981.   1820.   1702.   1628.   1588.   1565.
  1433.   1540.   1433.   1481.   1459.   1430.   1501.   1511.
  1560.   1532.   1543.   1522.   1498.   1635.   1556.   1526.
  1608.   1662.   1532.   1525.   1520.   1489.   1485.   1481.
  1539.   1590.   1555.   1567.   1538.   1513.   1570.   1688.
  1663.   1750.   1799.   1831.   1822.   1827.   1976.   2040.
  2034.   2157.   2374.   2417.   2400.   2461.   2479.   2518.
  2478.   2501.   2482.   2402.   2514.   2415.   2552.   2467.
  2535.   2577.   2645.   2709.   2666.   2644.   2548.   2389.
  2406.   2298.   2121.   2143.   2015.   1979.   2100.   2040.
  2004.   2022.   2118.   2068.   1937.   2001.   1940.   2005.
  1827.   1734.   1687.   1656.   1555.   1591.   1655.   1547.
  1606.   1609.   1669.   1665.   1743.   1774.   1822.   1784.
  1821.   1803.   1812.   1749.   1721.   1570.   1572.   1591.
  1525.   1542.   1534.   1526.   1582.   1639.   1604.   1700.
  1755.   1699.   1769.   1772.   1780.   1777.   1803.   1878.
  1930.   1886.   1997.   1971.   1914.   1935.   1970.   1994.
  2031.   1970.   2010.   2072.   1963.   1910.   1880.   1887.
  1910.   1956.   1848.   1842.   1829.   1824.   1863.   1797.
  1923.   1915.   1940.   2057.   2109.   2103.   2311.   2246.
  2333.   2138.   2193.   2182.   2116.   2015.   1903.   1935.
  1848.   1785.   1732.   1694.   1693.   1765.   1695.   1757.
  1713.   1806.   1808.   1883.   1835.   1797.   1790.   1768.
  1756.   1748.   1776.   1786.   1841.   2011.   2071.   2148.
  2384.   2549.   2823.   3060.   3292.   3607.   3880.   4159.
  4338.   4422.   4442.   4297.   4026.   3615.   3483.   3121.
  2773.   2699.   2532.   2448.   2532.   2693.   2736.   2965.
  2995.   3206.   3090.   3118.   3204.   2884.   2873.   2677.
  2445.   2323.   2147.   2006.   1835.   1778.   1701.   1653.
  1555.   1551.   1535.   1580.   1572.   1590.   1664.   1688.
  1657.   1570.   1679.   1655.   1664.   1563.   1562.   1521.
  1473.   1383.   1312.   1388.   1289.   1271.   1352.   1307.
  1345.   1330.   1378.   1361.   1298.   1329.   1429.   1381.
  1367.   1298.   1369.   1418.   1398.   1377.   1440.   1497.
  1552.   1576.   1626.   1759.   1825.   2043.   1991.   2077.
  2203.   2333.   2567.   2643.   2642.   2703.   2792.   2756.
  2562.   2509.   2331.   2205.   2135.   2013.   1871.   1931.
  1940.   1906.   1953.   1979.   2023.   2126.   2115.   2101.
  2243.   2090.   2162.   2197.   2142.   2081.   1957.   1934.
  1795.   1803.   1729.   1756.   1671.   1739.   1716.   1963.
  1863.   1959.   2110.   2203.   2287.   2386.   2501.   2511.
  2557.   2521.   2600.   2494.   2450.   2333.   2253.   2210.
  2097.   2044.   2038.   1935.   1936.   2099.   2163.   2147.
  2202.   2271.   2328.   2378.   2417.   2403.   2331.   2292.
  2245.   2184.   2106.   1959.   1860.   1822.   1773.   1799.
  1792.   1803.   1830.   1887.   1924.   1870.   1979.   1970.
  1925.   1946.   1849.   1821.   1649.   1600.   1589.   1515.
  1520.   1510.   1445.   1408.   1417.   1429.   1404.   1416.
  1473.   1412.   1394.   1341.   1342.   1273.   1280.   1344.
  1315.   1223.   1212.   1262.   1269.   1199.   1232.   1243.
  1261.   1172.   1200.   1273.   1228.   1239.   1288.   1241.
  1217.   1307.   1288.   1216.   1294.   1329.   1289.   1446.
  1462.   1462.   1620.   1613.   1764.   1798.   1956.   1977.
  2116.   2294.   2358.   2365.   2380.   2247.   2089.   1995.
  1972.   1888.   1796.   1793.   1733.   1700.   1764.   1746.
  1841.   1917.   1961.   1956.   1955.   1989.   2022.   1890.
  1952.   1738.   1811.   1662.   1667.   1648.   1631.   1628.
  1674.   1647.   1683.   1685.   1720.   1599.   1608.   1579.
  1538.   1550.   1465.   1551.   1561.   1543.   1568.   1546.
  1652.   1735.   1780.   1791.   1916.   1861.   1970.   2130.
  2110.   2122.   2111.   2058.   2008.   2067.   2006.   1991.
  2003.   2048.   2082.   2011.   2199.   2166.   2400.   2418.
  2413.   2453.   2588.   2622.   2602.   2494.   2417.   2425.
  2338.   2244.   2246.   2259.   2185.   2119.   2097.   2120.
  2207.   2105.   2177.   2114.   2167.   2185.   2160.   2121.
  2169.   2233.   2136.   2203.   2150.   2058.   1960.   1929.
  1916.   1882.   1774.   1713.   1733.   1638.   1627.   1620.
  1605.   1617.   1530.   1677.   1606.   1561.   1636.   1632.
  1550.   1570.   1602.   1581.   1697.   1619.   1741.   1724.
  1743.   1770.   1821.   1788.   1819.   1847.   1892.   1774.
  1914.   2049.   2041.   2042.   2067.   2118.   2222.   2341.
  2488.   2477.   2611.   2659.   2688.   2565.   2565.   2373.
  2262.   2098.   2062.   1980.   1853.   1860.   1849.   1711.
  1729.   1741.   1814.   1828.   1741.   1853.   1866.   1797.
  1691.   1773.   1711.   1629.   1525.   1556.   1465.   1362.
  1348.   1278.   1271.   1312.   1287.   1215.   1274.   1222.
  1239.   1229.   1255.   1246.   1222.   1224.   1199.   1208.
  1247.   1259.   1272.   1288.   1282.   1249.   1307.   1304.
  1379.   1379.   1432.   1515.   1569.   1490.   1593.   1668.
  1698.   1645.   1854.   1817.   1909.   1823.   1909.   1869.
  1960.   1999.   2023.   2053.   2200.   2330.   2351.   2389.
  2264.   2266.   2193.   2042.   1993.   1998.   1872.   1819.
  1799.   1808.   1654.   1671.   1698.   1704.   1740.   1760.
  1790.   1827.   1876.   1851.   1879.   1941.   2081.   2013.
  2050.   2066.   2022.   2245.   2206.   2238.   2229.   2212.
  2107.   2104.   1943.   1867.   1721.   1712.   1725.   1529.
  1535.   1506.   1566.   1565.   1583.   1611.   1711.   1700.
  1813.   1814.   1791.   1795.   1820.   1815.   1739.   1683.
  1716.   1712.   1706.   1710.   1708.   1737.   1636.   1765.
  1809.   1965.   2068.   2234.   2386.   2479.   2728.   2708.
  2804.   2884.   2710.   2642.   2534.   2282.   2194.   2040.
  1865.   1796.   1707.   1708.   1702.   1609.   1594.   1695.
  1768.   1815.   1853.   2003.   2012.   1982.   1923.   1904.
  1802.   1741.   1746.   1618.   1568.   1429.   1405.   1372.
  1347.   1428.   1421.   1465.   1433.   1502.   1530.   1607.
  1664.   1681.   1778.   1783.   1906.   1868.   1863.   1804.
  1777.   1776.   1632.   1531.   1557.   1572.   1528.   1566.
  1602.   1624.   1634.   1658.   1673.   1656.   1675.   1799.
  1756.   1773.   1771.   1653.   1758.   1520.   1578.   1490.
  1464.   1408.   1401.   1392.   1325.   1315.   1274.   1357.
  1352.   1275.   1296.   1327.   1331.   1414.   1363.   1322.
  1259.   1253.   1299.   1286.   1267.   1266.   1325.   1374.
  1365.   1422.   1372.   1357.   1404.   1473.   1516.   1626.
  1636.   1678.   1745.   1822.   1781.   1881.   1936.   1964.
  1888.   1985.   1851.   1884.   1807.   1859.   1827.   1792.
  1872.   1874.   1879.   1940.   1959.   1970.   2001.   2003.
  2166.   2075.   2115.   2130.   2027.   1998.   1884.   1851.
  1868.   1734.   1732.   1611.   1610.   1548.   1482.   1602.
  1512.   1504.   1541.   1457.   1518.   1478.   1423.   1452.
  1422.   1410.   1397.   1318.   1337.   1291.   1311.   1280.
  1268.   1244.   1239.   1223.   1210.   1173.   1157.   1208.
  1216.   1164.   1192.   1187.   1148.   1160.   1155.   1157.
  1164.   1193.   1143.   1211.   1141.   1103.   1092.   1169.
  1152.   1104.   1155.   1152.   1093.   1102.   1160.   1127.
  1193.   1119.   1137.   1167.   1144.   1106.   1154.   1139.
  1138.   1086.   1099.   1173.   1086.   1135.   1215.   1220.
  1170.   1161.   1174.   1188.   1216.   1230.   1219.   1212.
  1250.   1260.   1266.   1332.   1291.   1357.   1356.   1300.
  1347.   1255.   1356.   1352.   1293.   1441.   1395.   1480.
  1489.   1618.   1625.   1641.   1695.   1854.   1922.   1838.
  1960.   1986.   2020.   2092.   2016.   2065.   2210.   2153.
  2212.   2260.   2325.   2393.   2512.   2464.   2415.   2367.
  2427.   2296.   2267.   2234.   2157.   2116.   2242.   2298.
  2248.   2128.   2094.   2004.   2091.   1974.   1976.   1888.
  1875.   1911.   1905.   1827.   1796.   1748.   1660.   1623.
  1679.   1529.   1575.   1434.   1541.   1467.   1386.   1489.
  1427.   1419.   1413.   1376.   1289.   1284.   1241.   1248.
  1216.   1217.   1192.   1203.   1138.   1136.   1141.   1132.
  1137.   1099.   1159.   1082.   1106.   1057.   1059.   1157.
  1107.   1099.   1112.   1109.   1124.   1102.   1093.   1067.
  1038.   1092.   1084.   1071.   1104.   1050.   1140.   1138.
  1117.   1110.   1147.   1192.   1137.   1159.   1188.   1111.
  1165.   1174.   1224.   1160.   1279.   1291.   1360.   1342.
  1386.   1408.   1518.   1499.   1518.   1543.   1618.   1508.
  1564.   1509.   1445.   1395.   1375.   1259.   1325.   1286.
  1412.   1422.   1363.   1392.   1378.   1409.   1387.   1410.
  1505.   1512.   1491.   1644.   1622.   1651.   1637.   1714.
  1685.   1703.   1762.   1813.   1924.   1831.   1862.   1813.
  1760.   1631.   1623.   1489.   1450.   1343.   1458.   1371.
  1358.   1297.   1297.   1334.   1359.   1302.   1300.   1303.
  1396.   1329.   1421.   1429.   1445.   1471.   1398.   1407.
  1363.   1320.   1300.   1231.   1266.   1184.   1226.   1217.
  1156.   1134.   1183.   1137.   1121.   1241.   1103.   1188.
  1182.   1172.   1145.   1200.   1153.   1192.   1215.   1238.
  1161.   1221.   1234.   1233.   1265.   1190.   1226.   1198.
  1241.   1222.   1208.   1239.   1310.   1216.   1258.   1199.
  1275.   1316.   1290.   1337.   1247.   1280.   1322.   1331.
  1276.   1351.   1299.   1314.   1327.   1305.   1304.   1261.
  1243.   1261.   1226.   1282.   1243.   1254.   1292.   1265.
  1321.   1193.   1315.   1270.   1354.   1327.   1285.   1308.
  1373.   1366.   1408.   1432.   1369.   1364.   1380.   1418.
  1396.   1417.   1368.   1343.   1324.   1364.   1336.   1336.
  1342.   1303.   1298.   1356.   1344.   1363.   1323.   1364.
  1429.   1457.   1461.   1416.   1443.   1400.   1343.   1289.
  1296.   1346.   1316.   1198.   1253.   1210.   1161.   1204.
  1336.   1212.   1261.   1254.   1290.   1256.   1297.   1282.
  1303.   1332.   1276.   1375.   1385.   1349.   1310.   1320.
  1309.   1357.   1408.   1248.   1299.   1216.   1276.   1223.
  1237.   1282.   1247.   1170.   1132.   1179.   1277.   1229.
  1253.   1245.   1231.   1227.   1225.   1293.   1314.   1334.
  1362.   1328.   1355.   1356.   1384.   1345.   1383.   1413.
  1345.   1401.   1353.   1323.   1336.   1278.   1245.   1185.
  1248.   1196.   1126.   1172.   1184.   1234.   1211.   1188.
  1220.   1175.   1300.   1252.   1259.   1238.   1235.   1263.
  1298.   1279.   1218.   1218.   1214.   1299.   1323.   1263.
  1372.   1281.   1371.   1356.   1337.   1360.   1376.   1402.
  1497.   1469.   1470.   1506.   1494.   1492.   1541.   1528.
  1513.   1523.   1546.   1489.   1404.   1415.   1367.   1400.
  1364.   1328.   1363.   1337.   1379.   1434.   1457.   1462.
  1517.   1598.   1657.   1607.   1724.   1849.   1784.   1797.
  1690.   1810.   1780.   1637.   1489.   1520.   1522.   1474.
  1372.   1366.   1386.   1303.   1340.   1338.   1304.   1274.
  1259.   1289.   1317.   1365.   1365.   1437.   1464.   1469.
  1546.   1532.   1546.   1617.   1602.   1664.   1750.   1829.
  1860.   1869.   1931.   2052.   2120.   2090.   2078.   2106.
  2065.   2076.   1997.   2005.   2028.   1982.   1892.   1909.
  1793.   1732.   1604.   1646.   1556.   1556.   1555.   1505.
  1502.   1560.   1545.   1530.   1635.   1636.   1517.   1629.
  1636.   1613.   1658.   1662.   1679.   1619.   1602.   1576.
  1526.   1512.   1501.   1429.   1470.   1322.   1389.   1356.
  1283.   1298.   1313.   1352.   1246.   1308.   1195.   1223.
  1264.   1272.   1236.   1248.   1331.   1332.   1269.   1278.
  1364.   1273.   1347.   1312.   1338.   1293.   1269.   1275.
  1311.   1324.   1310.   1297.   1270.   1325.   1234.   1292.
  1245.   1264.   1197.   1301.   1273.   1291.   1249.   1325.
  1323.   1267.   1245.   1345.   1321.   1335.   1317.   1325.
  1365.   1381.   1352.   1269.   1310.   1315.   1373.   1395.
  1367.   1373.   1386.   1449.   1512.   1481.   1464.   1487.
  1446.   1482.   1458.   1533.   1407.   1451.   1562.   1517.
  1514.   1577.   1521.   1518.   1624.   1619.   1636.   1671.
  1577.   1666.   1640.   1707.   1659.   1678.   1680.   1675.
  1633.   1640.   1605.   1561.   1579.   1517.   1533.   1586.
  1596.   1547.   1606.   1609.   1661.   1649.   1694.   1737.
  1834.   1790.   1922.   1884.   2047.   2070.   2140.   2255.
  2270.   2288.   2440.   2387.   2382.   2302.   2268.   2152.
  2155.   2054.   2017.   1963.   1770.   1822.   1731.   1624.
  1686.   1590.   1599.   1616.   1587.   1527.   1570.   1539.
  1587.   1553.   1647.   1685.   1785.   1710.   1767.   1665.
  1792.   1873.   1755.   1817.   1868.   1699.   1765.   1790.
  1753.   1747.   1839.   1752.   1756.   1801.   1694.   1724.
  1629.   1621.   1593.   1527.   1541.   1520.   1521.   1507.
  1496.   1436.   1390.   1308.   1367.   1324.   1304.   1378.
  1290.   1376.   1327.   1329.   1455.   1405.   1429.   1395.
  1409.   1477.   1393.   1402.   1457.   1401.   1384.   1437.
  1350.   1381.   1413.   1344.   1354.   1326.   1306.   1327.
  1252.   1274.   1294.   1310.   1330.   1263.   1379.   1316.
  1286.   1358.   1290.   1276.   1270.   1328.   1378.   1327.
  1382.   1408.   1423.   1324.   1356.   1359.   1403.   1402.
  1464.   1414.   1569.   1533.   1581.   1618.   1709.   1786.
  1695.   1916.   1800.   1800.   1867.   1909.   1865.   1824.
  1738.   1756.   1792.   1749.   1706.   1715.   1767.   1786.
  1802.   1772.   1810.   1906.   1718.   1810.   1923.   1877.
  1885.   1979.   1892.   1920.   1920.   1880.   1954.   1975.
  2047.   1942.   1958.   1911.   1962.   2009.   1972.   1855.
  1855.      0.      0.      0.      0.      0.      0.      0.



;
_cod_data_source_file            Na2C2O4.cif
_cod_data_source_block           Na2C2O4
_cod_depositor_comments
;

2023-05-16
Z value and formula fixed to values more according to usual
chemical conventions.                 miguel
;
_cod_original_formula_sum            'C Na O2'
_cod_original_formula_weight         66.9993
_cod_original_formula_moiety         'C2 O4, 2(Na)'
_cod_original_formula_units_Z            4
_cod_original_sg_symbol_H-M      'P 21/c'
_cod_database_code               3500064
_pd_proc_ls_prof_cr_factor       6.5952
_pd_proc_ls_prof_cwr_factor      8.0479
_pd_proc_ls_prof_cwr_expected    2.0374
_pd_proc_ls_prof_chi2            15.6025
_pd_proc_ls_prof_echi2           16.6683
loop_
_publ_manuscript_incl_extra_item
_publ_manuscript_incl_extra_info
_publ_manuscript_incl_extra_defn
'_pd_proc_ls_prof_cR_factor' 'Prof. R-factor CORRECTED for background' no
'_pd_proc_ls_prof_cwR_factor' 'wProf.R-factor CORRECTED for background' no
'_pd_proc_ls_prof_cwR_expected' 'wProf.Expected CORRECTED for background' no
'_pd_proc_ls_prof_chi2' 'Chi-square for all considered points' no
'_pd_proc_ls_prof_echi2' 'Chi-2 for points with Bragg contribution' no
loop_
_symmetry_equiv_pos_site_id
_symmetry_equiv_pos_as_xyz
1 x,y,z
2 -x,1/2+y,1/2-z
3 -x,-y,-z
4 x,1/2-y,1/2+z
loop_
_atom_site_label
_atom_site_fract_x
_atom_site_fract_y
_atom_site_fract_z
_atom_site_U_iso_or_equiv
_atom_site_occupancy
_atom_site_adp_type
_atom_site_type_symbol
Na 0.30441(19) 0.05860(13) 0.35424(7) 0.0253(3) 1.00000 Uiso Na
C 0.1150(5) 0.0403(3) 0.06361(14) 0.0185(6) 1.00000 Uiso C
O1 0.1595(3) -0.11941(18) 0.15156(10) 0.0168(4) 1.00000 Uiso O
O2 0.2290(3) 0.26611(19) 0.06872(9) 0.0185(5) 1.00000 Uiso O
loop_
_atom_type_symbol
_atom_type_scat_Cromer_Mann_a1
_atom_type_scat_Cromer_Mann_b1
_atom_type_scat_Cromer_Mann_a2
_atom_type_scat_Cromer_Mann_b2
_atom_type_scat_Cromer_Mann_a3
_atom_type_scat_Cromer_Mann_b3
_atom_type_scat_Cromer_Mann_a4
_atom_type_scat_Cromer_Mann_b4
_atom_type_scat_Cromer_Mann_c
_atom_type_scat_dispersion_real
_atom_type_scat_dispersion_imag
_atom_type_scat_source
Na 4.76260 3.28500 3.17360 8.84220 1.26740 0.31360 1.11280 129.42400 0.67600
0.12900 0.12400
International_Tables_for_Crystallography_Vol.C(1991)_Tables_6.1.1.4_and_6.1.1.5
c 2.31000 20.84390 1.02000 10.20750 1.58860 0.56870 0.86500 51.65120 0.21560
0.01700 0.00900
International_Tables_for_Crystallography_Vol.C(1991)_Tables_6.1.1.4_and_6.1.1.5
o 3.04850 13.27710 2.28680 5.70110 1.54630 0.32390 0.86700 32.90890 0.25080
0.04700 0.03200
International_Tables_for_Crystallography_Vol.C(1991)_Tables_6.1.1.4_and_6.1.1.5
loop_
_geom_angle_atom_site_label_1
_geom_angle_atom_site_label_2
_geom_angle_atom_site_label_3
_geom_angle
_geom_angle_site_symmetry_1
_geom_angle_site_symmetry_3
Na Na Na 180.00(4) 1_455 1_655
Na Na Na 111.16(3) 1_455 3_656
Na Na C 80.69(5) 1_455 1_555
Na Na C 62.18(5) 1_455 2_545
Na Na C 60.59(5) 1_455 2_555
Na Na C 124.68(6) 1_455 2_645
Na Na C 126.47(6) 1_455 2_655
Na Na C 75.62(5) 1_455 4_555
Na Na O1 80.40(5) 1_455 1_555
Na Na O1 46.41(4) 1_455 2_555
Na Na O1 137.83(6) 1_455 2_655
Na Na O2 88.16(4) 1_455 1_555
Na Na O2 132.36(6) 1_455 2_645
Na Na O2 80.98(5) 1_455 4_555
Na Na Na 68.84(3) 1_655 3_656
Na Na C 99.31(6) 1_655 1_555
Na Na C 117.82(6) 1_655 2_545
Na Na C 119.41(7) 1_655 2_555
Na Na C 55.32(4) 1_655 2_645
Na Na C 53.53(4) 1_655 2_655
Na Na C 104.38(6) 1_655 4_555
Na Na O1 99.60(5) 1_655 1_555
Na Na O1 133.59(6) 1_655 2_555
Na Na O2 91.84(4) 1_655 1_555
Na Na O2 137.63(6) 1_655 2_545
Na Na O2 47.64(4) 1_655 2_645
Na Na O2 99.02(5) 1_655 4_555
Na Na C 162.56(7) 3_656 1_555
Na Na C 76.69(5) 3_656 2_545
Na Na C 94.34(6) 3_656 2_555
Na Na C 54.83(4) 3_656 2_645
Na Na C 72.05(5) 3_656 2_655
Na Na C 65.06(5) 3_656 4_555
Na Na O1 144.07(6) 3_656 1_555
Na Na O1 114.00(5) 3_656 2_555
Na Na O1 83.04(5) 3_656 2_655
Na Na O2 158.92(5) 3_656 1_555
Na Na O2 82.58(5) 3_656 2_545
Na Na O2 47.39(4) 3_656 2_645
C Na C 99.16(7) 1_555 2_545
C Na C 102.79(8) 1_555 2_555
C Na C 108.08(7) 1_555 2_645
C Na C 111.95(8) 1_555 2_655
C Na C 131.88(8) 1_555 4_555
C Na O1 83.44(7) 1_555 2_555
C Na O1 96.74(7) 1_555 2_655
C Na O2 99.74(7) 1_555 2_545
C Na O2 115.18(8) 1_555 2_645
C Na O2 152.49(8) 1_555 4_555
C Na C 113.17(8) 2_545 2_555
C Na C 62.49(6) 2_545 2_645
C Na C 148.45(9) 2_545 2_655
C Na C 105.56(8) 2_545 4_555
C Na O1 79.83(7) 2_545 1_555
C Na O1 107.21(8) 2_545 2_555
C Na O1 156.68(9) 2_545 2_655
C Na O2 121.61(7) 2_545 1_555
C Na O2 70.80(7) 2_545 2_645
C Na O2 90.18(7) 2_545 4_555
C Na C 149.14(9) 2_555 2_645
C Na C 65.88(7) 2_555 2_655
C Na O1 119.95(8) 2_555 1_555
C Na O1 79.45(7) 2_555 2_655
C Na O2 87.79(6) 2_555 1_555
C Na O2 92.50(7) 2_555 2_545
C Na O2 140.93(9) 2_555 2_645
C Na O2 50.03(5) 2_555 4_555
C Na C 101.32(7) 2_645 2_655
C Na C 119.90(8) 2_645 4_555
C Na O1 90.18(7) 2_645 1_555
C Na O1 165.15(9) 2_645 2_555
C Na O1 96.35(7) 2_645 2_655
C Na O2 121.30(7) 2_645 1_555
C Na O2 82.80(7) 2_645 2_545
C Na O2 99.21(7) 2_645 4_555
C Na C 57.00(6) 2_655 4_555
C Na O1 129.47(8) 2_655 1_555
C Na O1 82.24(7) 2_655 2_555
C Na O2 89.89(6) 2_655 1_555
C Na O2 144.51(8) 2_655 2_545
C Na O2 90.61(7) 2_655 2_645
C Na O2 64.61(6) 2_655 4_555
C Na O1 148.79(9) 4_555 1_555
C Na O1 50.15(5) 4_555 2_555
C Na O1 75.45(7) 4_555 2_655
C Na O2 114.40(7) 4_555 1_555
C Na O2 90.12(7) 4_555 2_545
C Na O2 111.77(8) 4_555 2_645
O1 Na O1 98.69(7) 1_555 2_555
O1 Na O1 111.74(7) 1_555 2_655
O1 Na O2 85.34(6) 1_555 2_545
O1 Na O2 99.12(7) 1_555 2_645
O1 Na O2 161.32(8) 1_555 4_555
O1 Na O1 91.42(6) 2_555 2_655
O1 Na O2 72.80(5) 2_555 1_555
O1 Na O2 86.06(6) 2_555 2_545
O1 Na O2 161.38(8) 2_555 2_645
O1 Na O2 69.07(6) 2_555 4_555
O1 Na O2 76.72(5) 2_655 1_555
O1 Na O2 162.93(8) 2_655 2_545
O1 Na O2 87.03(6) 2_655 2_645
O1 Na O2 83.41(6) 2_655 4_555
O2 Na O2 118.32(6) 1_555 2_545
O2 Na O2 124.60(6) 1_555 2_645
O2 Na O2 136.20(6) 1_555 4_555
O2 Na O2 89.99(6) 2_545 2_645
O2 Na O2 79.91(6) 2_545 4_555
O2 Na O2 92.33(6) 2_645 4_555
Na C Na 80.24(5) 1_555 2_545
Na C Na 77.75(5) 1_555 2_555
Na C Na 70.98(5) 1_555 2_645
Na C Na 68.93(5) 1_555 2_655
Na C Na 128.71(6) 1_555 4_554
Na C C 99.31(7) 1_555 1_455
Na C C 80.69(7) 1_555 1_655
Na C C 156.28(12) 1_555 3_555
Na C C 106.46(7) 1_555 3_655
Na C O1 163.91(7) 1_555 3_555
Na C O1 120.41(6) 1_555 3_655
Na C O2 97.11(6) 1_555 1_455
Na C O2 82.96(11) 1_555 1_555
Na C O2 131.54(7) 1_555 3_555
Na C O2 108.91(6) 1_555 3_655
Na C Na 113.17(5) 2_545 2_555
Na C Na 65.88(5) 2_545 2_645
Na C Na 149.14(5) 2_545 2_655
Na C Na 150.68(6) 2_545 4_554
Na C C 60.59(6) 2_545 1_455
Na C C 119.41(8) 2_545 1_655
Na C C 77.53(11) 2_545 3_555
Na C C 116.40(8) 2_545 3_655
Na C O1 103.28(7) 2_545 3_555
Na C O1 130.48(6) 2_545 3_655
Na C O2 80.40(6) 2_545 1_455
Na C O2 157.72(12) 2_545 1_555
Na C O2 51.37(6) 2_545 3_555
Na C O2 93.85(6) 2_545 3_655
Na C Na 148.45(5) 2_555 2_645
Na C Na 62.49(5) 2_555 2_655
Na C Na 74.44(5) 2_555 4_554
Na C C 62.18(6) 2_555 1_455
Na C C 117.82(7) 2_555 1_655
Na C C 103.55(11) 2_555 3_555
Na C C 130.25(8) 2_555 3_655
Na C O1 114.42(11) 2_555 1_555
Na C O1 86.52(6) 2_555 3_555
Na C O1 115.03(6) 2_555 3_655
Na C O2 48.36(10) 2_555 1_555
Na C O2 120.01(7) 2_555 3_555
Na C O2 152.97(6) 2_555 3_655
Na C Na 101.32(5) 2_645 2_655
Na C Na 123.00(5) 2_645 4_554
Na C C 126.47(7) 2_645 1_455
Na C C 53.53(6) 2_645 1_655
Na C C 106.71(11) 2_645 3_555
Na C C 58.34(6) 2_645 3_655
Na C O1 124.93(7) 2_645 3_555
Na C O1 78.76(5) 2_645 3_655
Na C O2 145.48(6) 2_645 1_455
Na C O2 121.63(11) 2_645 1_555
Na C O2 85.09(6) 2_645 3_555
Na C Na 60.10(5) 2_655 4_554
Na C C 124.68(7) 2_655 1_455
Na C C 55.32(6) 2_655 1_655
Na C C 133.14(12) 2_655 3_555
Na C C 72.88(6) 2_655 3_655
Na C O1 107.43(11) 2_655 1_555
Na C O1 106.77(6) 2_655 3_555
Na C O1 68.48(5) 2_655 3_655
Na C O2 104.21(6) 2_655 1_455
Na C O2 159.19(7) 2_655 3_555
Na C O2 94.72(6) 2_655 3_655
Na C C 104.38(7) 4_554 1_455
Na C C 75.62(6) 4_554 1_655
Na C C 73.14(10) 4_554 3_555
Na C C 64.66(6) 4_554 3_655
Na C O1 160.71(12) 4_554 1_555
Na C O1 47.73(6) 4_554 3_555
Na C O2 90.08(6) 4_554 1_455
Na C O2 46.58(10) 4_554 1_555
Na C O2 99.73(7) 4_554 3_555
Na C O2 81.67(6) 4_554 3_655
C C C 180.00(10) 1_455 1_655
C C C 62.32(12) 1_455 3_555
C C C 153.21(10) 1_455 3_655
C C O1 94.85(14) 1_455 1_555
C C O1 69.87(8) 1_455 3_555
C C O1 139.29(8) 1_455 3_655
C C O2 108.35(14) 1_455 1_555
C C O2 62.07(7) 1_455 3_555
C C O2 138.06(8) 1_455 3_655
C C C 117.68(14) 1_655 3_555
C C O1 85.15(13) 1_655 1_555
C C O1 110.13(9) 1_655 3_555
C C O2 158.95(9) 1_655 1_455
C C O2 71.65(13) 1_655 1_555
C C O2 117.93(9) 1_655 3_555
C C C 90.89(14) 3_555 3_655
C C O1 118.48(17) 3_555 1_555
C C O1 80.99(11) 3_555 3_655
C C O2 71.14(11) 3_555 1_455
C C O2 115.98(17) 3_555 1_555
C C O2 80.92(11) 3_555 3_655
C C O1 98.47(14) 3_655 1_555
C C O1 86.24(8) 3_655 3_555
C C O2 152.78(9) 3_655 1_455
C C O2 82.39(13) 3_655 1_555
C C O2 94.55(9) 3_655 3_555
O1 C O1 145.33(13) 1_555 3_555
O1 C O1 119.14(12) 1_555 3_655
O1 C O2 107.98(12) 1_555 1_455
O1 C O2 125.51(16) 1_555 1_555
O1 C O2 90.51(12) 1_555 3_555
O1 C O2 85.06(11) 1_555 3_655
O1 C O1 69.42(6) 3_555 3_655
O1 C O2 68.42(6) 3_555 1_455
O1 C O2 89.14(12) 3_555 1_555
O1 C O2 54.82(7) 3_555 3_555
O1 C O2 86.68(7) 3_555 3_655
O1 C O2 132.46(7) 3_655 1_455
O1 C O2 71.08(11) 3_655 1_555
O1 C O2 93.83(7) 3_655 3_555
O2 C O2 87.30(12) 1_455 1_555
O2 C O2 79.22(7) 1_455 3_555
O2 C O2 152.06(7) 1_455 3_655
O2 C O2 143.96(13) 1_555 3_555
O2 C O2 105.42(12) 1_555 3_655
O2 C O2 75.99(7) 3_555 3_655
Na O1 Na 115.32(6) 1_555 2_545
Na O1 Na 99.56(5) 1_555 2_645
Na O1 C 114.00(13) 1_555 1_555
Na O1 C 145.17(9) 1_555 3_555
Na O1 C 113.82(7) 1_555 3_655
Na O1 O1 99.60(5) 1_555 1_455
Na O1 O1 80.40(5) 1_555 1_655
Na O1 O2 127.02(6) 1_555 1_545
Na O1 O2 87.90(6) 1_555 1_555
Na O1 O2 50.27(5) 1_555 2_545
Na O1 O2 161.96(7) 1_555 3_555
Na O1 O2 127.20(6) 1_555 3_655
Na O1 Na 91.42(5) 2_545 2_645
Na O1 C 114.22(14) 2_545 1_555
Na O1 C 82.13(7) 2_545 3_555
Na O1 C 126.32(8) 2_545 3_655
Na O1 O1 46.41(4) 2_545 1_455
Na O1 O1 133.59(6) 2_545 1_655
Na O1 O2 49.90(4) 2_545 1_545
Na O1 O2 137.73(7) 2_545 1_555
Na O1 O2 65.14(5) 2_545 2_545
Na O1 O2 57.33(5) 2_545 3_555
Na O1 O2 106.45(6) 2_545 3_655
Na O1 C 119.80(14) 2_645 1_555
Na O1 C 110.36(8) 2_645 3_555
Na O1 C 60.18(5) 2_645 3_655
Na O1 O1 137.83(6) 2_645 1_455
Na O1 O2 120.43(7) 2_645 1_555
Na O1 O2 103.62(5) 2_645 2_545
Na O1 O2 97.17(6) 2_645 3_555
Na O1 O2 47.29(4) 2_645 3_655
C O1 C 60.86(13) 1_555 3_655
C O1 O1 85.15(13) 1_555 1_455
C O1 O1 94.85(13) 1_555 1_655
C O1 O2 117.83(14) 1_555 1_545
C O1 O2 136.42(14) 1_555 2_545
C O1 O2 62.13(12) 1_555 3_555
C O1 O2 72.87(12) 1_555 3_655
C O1 C 69.42(8) 3_555 3_655
C O1 O1 69.87(7) 3_555 1_455
C O1 O1 110.13(8) 3_555 1_655
C O1 O2 87.56(7) 3_555 1_545
C O1 O2 61.96(7) 3_555 1_555
C O1 O2 132.93(8) 3_555 2_545
C O1 O2 68.55(7) 3_555 3_655
C O1 O1 139.29(7) 3_655 1_455
C O1 O2 83.38(6) 3_655 1_545
C O1 O2 62.87(7) 3_655 1_555
C O1 O2 157.62(7) 3_655 2_545
C O1 O2 80.52(7) 3_655 3_555
O1 O1 O1 180.00(6) 1_455 1_655
O1 O1 O2 94.93(5) 1_455 1_545
O1 O1 O2 97.47(6) 1_455 1_555
O1 O1 O2 63.07(4) 1_455 2_545
O1 O1 O2 63.07(5) 1_455 3_555
O1 O1 O2 132.97(6) 1_455 3_655
O1 O1 O2 85.07(5) 1_655 1_545
O1 O1 O2 82.53(6) 1_655 1_555
O1 O1 O2 116.93(6) 1_655 2_545
O1 O1 O2 116.93(6) 1_655 3_555
O1 O1 O2 47.03(4) 1_655 3_655
O2 O1 O2 140.12(7) 1_545 1_555
O2 O1 O2 95.14(5) 1_545 2_545
O2 O1 O2 63.14(5) 1_545 3_555
O2 O1 O2 62.52(4) 1_545 3_655
O2 O1 O2 124.22(7) 1_555 2_545
O2 O1 O2 89.44(7) 1_555 3_555
O2 O1 O2 81.67(6) 1_555 3_655
O2 O1 O2 118.77(6) 2_545 3_555
O2 O1 O2 150.71(6) 2_545 3_655
O2 O1 O2 69.90(5) 3_555 3_655
Na O2 Na 86.40(4) 1_555 2_555
Na O2 Na 83.30(5) 1_555 2_655
Na O2 Na 168.90(6) 1_555 4_554
Na O2 C 73.94(11) 1_555 1_555
Na O2 C 82.04(6) 1_555 1_655
Na O2 C 108.82(7) 1_555 3_555
Na O2 C 102.04(6) 1_555 3_655
Na O2 O1 47.60(5) 1_555 1_555
Na O2 O1 95.35(4) 1_555 1_565
Na O2 O1 135.20(6) 1_555 3_555
Na O2 O1 123.26(5) 1_555 3_655
Na O2 O2 91.84(4) 1_555 1_455
Na O2 O2 88.16(4) 1_555 1_655
Na O2 O2 97.03(4) 1_555 3_555
Na O2 O2 133.95(5) 1_555 3_565
Na O2 O2 127.94(5) 1_555 3_665
Na O2 Na 89.99(5) 2_555 2_655
Na O2 Na 100.09(5) 2_555 4_554
Na O2 C 110.32(14) 2_555 1_555
Na O2 C 155.35(8) 2_555 1_655
Na O2 C 103.55(8) 2_555 3_555
Na O2 C 171.28(9) 2_555 3_655
Na O2 O1 109.16(6) 2_555 1_555
Na O2 O1 95.66(6) 2_555 3_555
Na O2 O1 149.22(6) 2_555 3_655
Na O2 O2 137.63(6) 2_555 1_655
Na O2 O2 106.59(5) 2_555 3_555
Na O2 O2 48.30(4) 2_555 3_565
Na O2 O2 97.11(5) 2_555 3_665
Na O2 Na 87.67(5) 2_655 4_554
Na O2 C 147.98(15) 2_655 1_555
Na O2 C 67.15(6) 2_655 1_655
Na O2 C 162.12(10) 2_655 3_555
Na O2 C 88.85(7) 2_655 3_655
Na O2 O1 123.55(7) 2_655 1_555
Na O2 O1 48.67(4) 2_655 1_565
Na O2 O1 83.61(5) 2_655 2_555
Na O2 O1 141.27(7) 2_655 3_555
Na O2 O1 86.01(5) 2_655 3_655
Na O2 O2 132.36(6) 2_655 1_455
Na O2 O2 47.64(4) 2_655 1_655
Na O2 O2 163.41(6) 2_655 3_555
Na O2 O2 88.23(5) 2_655 3_565
Na O2 C 111.59(13) 4_554 1_555
Na O2 C 88.52(7) 4_554 1_655
Na O2 C 78.60(7) 4_554 3_555
Na O2 C 71.23(6) 4_554 3_655
Na O2 O1 135.94(7) 4_554 1_555
Na O2 O1 83.41(5) 4_554 1_565
Na O2 O1 143.13(6) 4_554 2_555
Na O2 O1 53.61(5) 4_554 3_555
Na O2 O1 49.30(4) 4_554 3_655
Na O2 O2 99.02(5) 4_554 1_455
Na O2 O2 80.98(5) 4_554 1_655
Na O2 O2 89.78(5) 4_554 3_555
Na O2 O2 51.78(4) 4_554 3_565
C O2 C 87.30(15) 1_555 1_655
C O2 C 74.58(14) 1_555 3_655
C O2 O1 153.71(14) 1_555 1_565
C O2 O1 93.76(13) 1_555 2_555
C O2 O1 63.38(12) 1_555 3_555
C O2 O1 87.93(13) 1_555 3_655
C O2 O2 71.65(13) 1_555 1_455
C O2 O2 108.35(14) 1_555 1_655
C O2 O2 123.79(14) 1_555 3_565
C O2 O2 146.69(15) 1_555 3_665
C O2 C 100.78(10) 1_655 3_555
C O2 O1 78.48(8) 1_655 1_555
C O2 O1 115.45(7) 1_655 1_565
C O2 O1 120.10(7) 1_655 2_555
C O2 O1 107.89(8) 1_655 3_555
C O2 O2 158.95(8) 1_655 1_455
C O2 O2 96.41(6) 1_655 3_555
C O2 O2 134.89(8) 1_655 3_565
C O2 O2 73.63(6) 1_655 3_665
C O2 C 75.99(9) 3_555 3_655
C O2 O1 63.21(7) 3_555 1_555
C O2 O1 138.91(9) 3_555 1_565
C O2 O1 114.23(8) 3_555 2_555
C O2 O1 76.37(7) 3_555 3_655
C O2 O2 62.07(7) 3_555 1_455
C O2 O2 117.93(9) 3_555 1_655
C O2 O2 92.12(8) 3_555 3_565
C O2 O2 120.41(8) 3_555 3_665
C O2 O1 78.57(8) 3_655 1_555
C O2 O1 131.65(7) 3_655 1_565
C O2 O1 143.88(8) 3_655 2_555
C O2 O1 79.95(7) 3_655 3_555
C O2 O2 138.06(8) 3_655 1_455
C O2 O2 74.82(6) 3_655 3_555
C O2 O2 123.01(8) 3_655 3_565
C O2 O2 76.05(6) 3_655 3_665
O1 O2 O1 140.12(7) 1_555 1_565
O1 O2 O1 76.52(6) 1_555 2_555
O1 O2 O1 90.56(7) 1_555 3_555
O1 O2 O1 98.33(7) 1_555 3_655
O1 O2 O2 82.53(6) 1_555 1_455
O1 O2 O2 97.47(6) 1_555 1_655
O1 O2 O2 51.03(5) 1_555 3_555
O1 O2 O2 143.79(7) 1_555 3_565
O1 O2 O2 152.05(7) 1_555 3_665
O1 O2 O1 64.09(4) 1_565 2_555
O1 O2 O1 116.86(6) 1_565 3_555
O1 O2 O1 117.48(5) 1_565 3_655
O1 O2 O2 85.07(5) 1_565 1_455
O1 O2 O2 94.93(5) 1_565 1_655
O1 O2 O2 147.11(6) 1_565 3_555
O1 O2 O2 48.65(4) 1_565 3_565
O1 O2 O2 58.03(4) 1_565 3_665
O1 O2 O1 125.73(6) 2_555 3_555
O1 O2 O1 163.01(6) 2_555 3_655
O1 O2 O2 63.07(4) 2_555 1_455
O1 O2 O2 116.93(6) 2_555 1_655
O1 O2 O2 107.80(5) 2_555 3_555
O1 O2 O2 92.09(5) 2_555 3_565
O1 O2 O2 119.36(5) 2_555 3_665
O1 O2 O1 69.90(5) 3_555 3_655
O1 O2 O2 63.07(5) 3_555 1_455
O1 O2 O2 116.93(6) 3_555 1_655
O1 O2 O2 68.20(5) 3_555 3_565
O1 O2 O2 96.31(6) 3_555 3_665
O1 O2 O2 132.97(6) 3_655 1_455
O1 O2 O2 47.03(4) 3_655 1_655
O1 O2 O2 79.93(5) 3_655 3_555
O1 O2 O2 101.01(5) 3_655 3_565
O1 O2 O2 59.44(4) 3_655 3_665
O2 O2 O2 180.00(6) 1_455 1_655
O2 O2 O2 64.22(4) 1_455 3_555
O2 O2 O2 61.92(4) 1_455 3_565
O2 O2 O2 124.63(6) 1_455 3_665
O2 O2 O2 115.78(5) 1_655 3_555
O2 O2 O2 118.08(5) 1_655 3_565
O2 O2 O2 55.37(4) 1_655 3_665
O2 O2 O2 103.00(5) 3_555 3_565
O2 O2 O2 130.37(5) 3_555 3_665
O2 O2 O2 62.71(4) 3_565 3_665
loop_
_geom_bond_atom_site_label_1
_geom_bond_atom_site_label_2
_geom_bond_distance
_geom_bond_site_symmetry_2
Na Na 3.4838(9) 1_455
Na Na 3.4838(9) 1_655
Na Na 3.3212(10) 3_656
Na C 3.0681(16) 1_555
Na C 3.2301(18) 2_545
Na C 3.0695(18) 2_555
Na C 3.4739(18) 2_645
Na C 3.3250(18) 2_655
Na C 3.1316(17) 4_555
Na O1 2.3415(12) 1_555
Na O1 2.3394(12) 2_555
Na O1 2.5242(12) 2_655
Na O2 3.1686(12) 1_555
Na O2 2.5741(12) 2_545
Na O2 2.3479(12) 2_645
Na O2 2.4463(12) 4_555
C Na 3.0681(16) 1_555
C Na 3.0695(18) 2_545
C Na 3.2301(18) 2_555
C Na 3.3250(18) 2_645
C Na 3.4739(18) 2_655
C Na 3.1316(17) 4_554
C C 3.484(2) 1_455
C C 3.484(2) 1_655
C C 1.571(2) 3_555
C C 3.085(2) 3_655
C O1 1.2471(18) 1_555
C O1 2.4269(18) 3_555
C O1 3.4940(20) 3_655
C O2 3.310(2) 1_455
C O2 1.2524(19) 1_555
C O2 2.3997(18) 3_555
C O2 3.1724(20) 3_655
O1 Na 2.3415(12) 1_555
O1 Na 2.3394(12) 2_545
O1 Na 2.5242(12) 2_645
O1 C 1.2471(18) 1_555
O1 C 2.4269(18) 3_555
O1 C 3.4940(20) 3_655
O1 O1 3.4838(15) 1_455
O1 O1 3.4838(15) 1_655
O1 O2 3.3572(14) 1_545
O1 O2 2.2222(14) 1_555
O1 O2 3.3359(14) 2_545
O1 O2 2.7143(14) 3_555
O1 O2 3.3073(15) 3_655
O2 Na 3.1686(12) 1_555
O2 Na 2.5741(12) 2_555
O2 Na 2.3479(12) 2_655
O2 Na 2.4463(12) 4_554
O2 C 1.2524(19) 1_555
O2 C 3.310(2) 1_655
O2 C 2.3997(18) 3_555
O2 C 3.1724(20) 3_655
O2 O1 2.2222(14) 1_555
O2 O1 3.3572(14) 1_565
O2 O1 3.3359(14) 2_555
O2 O1 2.7143(14) 3_555
O2 O1 3.3073(15) 3_655
O2 O2 3.4838(15) 1_455
O2 O2 3.4838(15) 1_655
O2 O2 3.4910(14) 3_555
O2 O2 3.2257(14) 3_565
O2 O2 3.4589(14) 3_665
