#------------------------------------------------------------------------------
#$Date: 2016-03-21 01:21:50 +0200 (Mon, 21 Mar 2016) $
#$Revision: 178377 $
#$URL: svn://www.crystallography.net/cod/cif/4/00/07/4000799.cif $
#------------------------------------------------------------------------------
#
# This file is available in the Crystallography Open Database (COD),
# http://www.crystallography.net/
#
# All data on this site have been placed in the public domain by the
# contributors.
#
data_4000799
loop_
_publ_author_name
'Meng, Chang-Yu'
'Chen, Hong'
'Wang, Peng'
'Chen, Ling'
_publ_section_title
;
 Syntheses, Structures, and Magnetic and Thermoelectric Properties of
 Double-Tunnel Tellurides: AxRE2Cu6--xTe6(A = K--Cs; RE = La--Nd)
;
_journal_issue                   22
_journal_name_full               'Chemistry of Materials'
_journal_page_first              4910
_journal_paper_doi               10.1021/cm201574a
_journal_volume                  23
_journal_year                    2011
_chemical_formula_moiety         'Cu1.78 Pr0.67 Rb0.22 Te2'
_chemical_formula_sum            'Cu1.78 Pr0.67 Rb0.22 Te2'
_chemical_formula_weight         480.97
_chemical_name_systematic
; 
 ? 
;
_space_group_IT_number           176
_symmetry_cell_setting           hexagonal
_symmetry_space_group_name_Hall  '-P 6c'
_symmetry_space_group_name_H-M   'P 63/m'
_atom_sites_solution_primary     direct
_atom_sites_solution_secondary   difmap
_audit_creation_method           SHELXL-97
_cell_angle_alpha                90.00
_cell_angle_beta                 90.00
_cell_angle_gamma                120.00
_cell_formula_units_Z            3
_cell_length_a                   9.9955(6)
_cell_length_b                   9.9955(6)
_cell_length_c                   4.1643(5)
_cell_measurement_reflns_used    426
_cell_measurement_temperature    293(2)
_cell_measurement_theta_max      27.4719
_cell_measurement_theta_min      2.3527
_cell_volume                     360.31(5)
_computing_cell_refinement       'CrystalClear (Rigaku Inc., 2007)'
_computing_data_collection       'CrystalClear (Rigaku Inc., 2007)'
_computing_data_reduction        'CrystalClear (Rigaku Inc., 2007)'
_computing_molecular_graphics    'Bruker SHELXTL'
_computing_publication_material  'Bruker SHELXTL'
_computing_structure_refinement  'SHELXL-97 (Sheldrick, 1997)'
_computing_structure_solution    'SHELXS-97 (Sheldrick, 1990)'
_diffrn_ambient_temperature      293(2)
_diffrn_detector_area_resol_mean 13.6612
_diffrn_measured_fraction_theta_full 1.000
_diffrn_measured_fraction_theta_max 1.000
_diffrn_measurement_device_type  SCXMini
_diffrn_measurement_method       CCD_Profile_fitting
_diffrn_radiation_monochromator  graphite
_diffrn_radiation_source         'fine-focus sealed tube'
_diffrn_radiation_type           MoK\a
_diffrn_radiation_wavelength     0.71073
_diffrn_reflns_av_R_equivalents  0.0277
_diffrn_reflns_av_sigmaI/netI    0.0132
_diffrn_reflns_limit_h_max       12
_diffrn_reflns_limit_h_min       -12
_diffrn_reflns_limit_k_max       12
_diffrn_reflns_limit_k_min       -12
_diffrn_reflns_limit_l_max       5
_diffrn_reflns_limit_l_min       -5
_diffrn_reflns_number            2785
_diffrn_reflns_theta_full        27.36
_diffrn_reflns_theta_max         27.36
_diffrn_reflns_theta_min         2.35
_exptl_absorpt_coefficient_mu    28.402
_exptl_absorpt_correction_T_max  1.0000
_exptl_absorpt_correction_T_min  0.6150
_exptl_absorpt_correction_type   multi-scan
_exptl_crystal_colour            black
_exptl_crystal_density_diffrn    6.650
_exptl_crystal_density_method    'not measured'
_exptl_crystal_description       rod
_exptl_crystal_F_000             609
_exptl_crystal_size_max          0.16
_exptl_crystal_size_mid          0.14
_exptl_crystal_size_min          0.12
_refine_diff_density_max         1.219
_refine_diff_density_min         -1.571
_refine_diff_density_rms         0.212
_refine_ls_extinction_coef       0.0088(6)
_refine_ls_extinction_expression Fc^*^=kFc[1+0.001xFc^2^\l^3^/sin(2\q)]^-1/4^
_refine_ls_extinction_method     SHELXL
_refine_ls_goodness_of_fit_ref   1.259
_refine_ls_matrix_type           full
_refine_ls_number_parameters     23
_refine_ls_number_reflns         309
_refine_ls_number_restraints     14
_refine_ls_restrained_S_all      1.377
_refine_ls_R_factor_all          0.0209
_refine_ls_R_factor_gt           0.0208
_refine_ls_shift/su_max          0.000
_refine_ls_shift/su_mean         0.000
_refine_ls_structure_factor_coef Fsqd
_refine_ls_weighting_details
'calc w=1/[\s^2^(Fo^2^)+(0.0163P)^2^+2.5581P] where P=(Fo^2^+2Fc^2^)/3'
_refine_ls_weighting_scheme      calc
_refine_ls_wR_factor_gt          0.0456
_refine_ls_wR_factor_ref         0.0457
_reflns_number_gt                308
_reflns_number_total             309
_reflns_threshold_expression     >2sigma(I)
_cod_data_source_file            cm201574a_si_001.cif
_cod_data_source_block           Rb0.65Pr2Cu5.35Te6
_cod_depositor_comments
;
The following automatic conversions were performed:

'_symmetry_cell_setting' value 'Hexagonal' changed to 'hexagonal'
according to /home/saulius/struct/CIF-dictionaries/cif_core.dic
dictionary named 'cif_core.dic' version 2.4.1 from
2010-06-29.

'_exptl_absorpt_correction_type' value 'Multi-scan'
changed to 'multi-scan' according to
/home/saulius/struct/CIF-dictionaries/cif_core.dic dictionary named
'cif_core.dic' version 2.4.1 from 2010-06-29.

Automatic conversion script
Id: cif_fix_values 1715 2011-07-08 13:25:40Z adriana 
;
_cod_original_sg_symbol_H-M      P6(3)/m
_cod_database_code               4000799
loop_
_symmetry_equiv_pos_as_xyz
'x, y, z'
'-y, x-y, z'
'-x+y, -x, z'
'-x, -y, z+1/2'
'y, -x+y, z+1/2'
'x-y, x, z+1/2'
'-x, -y, -z'
'y, -x+y, -z'
'x-y, x, -z'
'x, y, -z-1/2'
'-y, x-y, -z-1/2'
'-x+y, -x, -z-1/2'
loop_
_atom_site_label
_atom_site_type_symbol
_atom_site_fract_x
_atom_site_fract_y
_atom_site_fract_z
_atom_site_U_iso_or_equiv
_atom_site_adp_type
_atom_site_occupancy
_atom_site_symmetry_multiplicity
_atom_site_calc_flag
_atom_site_refinement_flags
Rb1 Rb 0.0000 0.0000 0.2500 0.047(5) Uani 0.169(11) 6 d SPU
Rb2 Rb 0.0000 0.0000 0.0000 0.057(6) Uani 0.158(12) 6 d SPU
Pr Pr 0.6667 0.3333 0.2500 0.0129(2) Uani 1 6 d S
Cu Cu 0.03379(14) 0.43428(14) 0.2500 0.0188(3) Uani 0.891(3) 2 d SPU
Te Te 0.27178(6) 0.39120(6) 0.2500 0.0146(2) Uani 1 2 d SU
loop_
_atom_site_aniso_label
_atom_site_aniso_U_11
_atom_site_aniso_U_22
_atom_site_aniso_U_33
_atom_site_aniso_U_23
_atom_site_aniso_U_13
_atom_site_aniso_U_12
Rb1 0.026(4) 0.026(4) 0.088(11) 0.000 0.000 0.013(2)
Rb2 0.041(5) 0.041(5) 0.090(12) 0.000 0.000 0.020(3)
Pr 0.0154(3) 0.0154(3) 0.0080(4) 0.000 0.000 0.00769(15)
Cu 0.0178(6) 0.0207(6) 0.0161(6) 0.000 0.000 0.0083(5)
Te 0.0161(3) 0.0174(3) 0.0118(3) 0.000 0.000 0.0096(2)
loop_
_atom_type_symbol
_atom_type_description
_atom_type_scat_dispersion_real
_atom_type_scat_dispersion_imag
_atom_type_scat_source
Cu Cu 0.3201 1.2651 'International Tables Vol C Tables 4.2.6.8 and 6.1.1.4'
Rb Rb -0.9393 2.9676 'International Tables Vol C Tables 4.2.6.8 and 6.1.1.4'
Te Te -0.5308 1.6751 'International Tables Vol C Tables 4.2.6.8 and 6.1.1.4'
Pr Pr -0.2180 2.8214 'International Tables Vol C Tables 4.2.6.8 and 6.1.1.4'
loop_
_geom_angle_atom_site_label_1
_geom_angle_atom_site_label_2
_geom_angle_atom_site_label_3
_geom_angle
_geom_angle_site_symmetry_1
_geom_angle_site_symmetry_3
Rb2 Rb1 Rb2 180.0 4 .
Rb2 Rb1 Rb1 0.0 4 7_556
Rb2 Rb1 Rb1 180.0 . 7_556
Rb2 Rb1 Rb1 180.0 4 7
Rb2 Rb1 Rb1 0.0 . 7
Rb1 Rb1 Rb1 180.0 7_556 7
Rb2 Rb1 Rb2 180.0 4 4_554
Rb2 Rb1 Rb2 0.0 . 4_554
Rb1 Rb1 Rb2 180.0 7_556 4_554
Rb1 Rb1 Rb2 0.0 7 4_554
Rb2 Rb1 Rb2 0.0 4 1_556
Rb2 Rb1 Rb2 180.0 . 1_556
Rb1 Rb1 Rb2 0.0 7_556 1_556
Rb1 Rb1 Rb2 180.0 7 1_556
Rb2 Rb1 Rb2 180.0 4_554 1_556
Rb2 Rb1 Te 90.0 4 .
Rb2 Rb1 Te 90.0 . .
Rb1 Rb1 Te 90.0 7_556 .
Rb1 Rb1 Te 90.0 7 .
Rb2 Rb1 Te 90.0 4_554 .
Rb2 Rb1 Te 90.0 1_556 .
Rb2 Rb1 Te 90.0 4 2
Rb2 Rb1 Te 90.0 . 2
Rb1 Rb1 Te 90.0 7_556 2
Rb1 Rb1 Te 90.0 7 2
Rb2 Rb1 Te 90.0 4_554 2
Rb2 Rb1 Te 90.0 1_556 2
Te Rb1 Te 120.0 . 2
Rb2 Rb1 Te 90.0 4 3
Rb2 Rb1 Te 90.0 . 3
Rb1 Rb1 Te 90.0 7_556 3
Rb1 Rb1 Te 90.0 7 3
Rb2 Rb1 Te 90.0 4_554 3
Rb2 Rb1 Te 90.0 1_556 3
Te Rb1 Te 120.0 . 3
Te Rb1 Te 120.0 2 3
Rb2 Rb1 Te 120.959(5) 4 7
Rb2 Rb1 Te 59.041(5) . 7
Rb1 Rb1 Te 120.959(5) 7_556 7
Rb1 Rb1 Te 59.041(5) 7 7
Rb2 Rb1 Te 59.041(5) 4_554 7
Rb2 Rb1 Te 120.959(5) 1_556 7
Te Rb1 Te 149.041(5) . 7
Te Rb1 Te 64.611(1) 2 7
Te Rb1 Te 64.611(1) 3 7
Rb2 Rb1 Te 59.041(5) 4 8_556
Rb2 Rb1 Te 120.959(5) . 8_556
Rb1 Rb1 Te 59.041(5) 7_556 8_556
Rb1 Rb1 Te 120.959(5) 7 8_556
Rb2 Rb1 Te 120.959(5) 4_554 8_556
Rb2 Rb1 Te 59.041(5) 1_556 8_556
Te Rb1 Te 64.611(1) . 8_556
Te Rb1 Te 149.041(5) 2 8_556
Te Rb1 Te 64.611(1) 3 8_556
Te Rb1 Te 129.221(3) 7 8_556
Rb2 Rb1 Te 59.041(5) 4 9_556
Rb2 Rb1 Te 120.959(5) . 9_556
Rb1 Rb1 Te 59.041(5) 7_556 9_556
Rb1 Rb1 Te 120.959(5) 7 9_556
Rb2 Rb1 Te 120.959(5) 4_554 9_556
Rb2 Rb1 Te 59.041(5) 1_556 9_556
Te Rb1 Te 64.611(1) . 9_556
Te Rb1 Te 64.611(1) 2 9_556
Te Rb1 Te 149.041(5) 3 9_556
Te Rb1 Te 129.221(3) 7 9_556
Te Rb1 Te 95.915(7) 8_556 9_556
Rb1 Rb2 Rb1 180.0 7 .
Rb1 Rb2 Rb2 180.0 7 4
Rb1 Rb2 Rb2 0.0 . 4
Rb1 Rb2 Rb2 0.0 7 4_554
Rb1 Rb2 Rb2 180.0 . 4_554
Rb2 Rb2 Rb2 180.0 4 4_554
Rb1 Rb2 Rb1 0.0 7 1_554
Rb1 Rb2 Rb1 180.0 . 1_554
Rb2 Rb2 Rb1 180.0 4 1_554
Rb2 Rb2 Rb1 0.0 4_554 1_554
Rb1 Rb2 Rb1 180.0 7 7_556
Rb1 Rb2 Rb1 0.0 . 7_556
Rb2 Rb2 Rb1 0.0 4 7_556
Rb2 Rb2 Rb1 180.0 4_554 7_556
Rb1 Rb2 Rb1 180.0 1_554 7_556
Rb1 Rb2 Te 106.696(3) 7 .
Rb1 Rb2 Te 73.304(3) . .
Rb2 Rb2 Te 73.304(3) 4 .
Rb2 Rb2 Te 106.696(3) 4_554 .
Rb1 Rb2 Te 106.696(3) 1_554 .
Rb1 Rb2 Te 73.304(3) 7_556 .
Rb1 Rb2 Te 73.304(3) 7 7
Rb1 Rb2 Te 106.696(3) . 7
Rb2 Rb2 Te 106.696(3) 4 7
Rb2 Rb2 Te 73.304(3) 4_554 7
Rb1 Rb2 Te 73.304(3) 1_554 7
Rb1 Rb2 Te 106.696(3) 7_556 7
Te Rb2 Te 180.000(14) . 7
Rb1 Rb2 Te 73.304(3) 7 8
Rb1 Rb2 Te 106.696(3) . 8
Rb2 Rb2 Te 106.696(3) 4 8
Rb2 Rb2 Te 73.304(3) 4_554 8
Rb1 Rb2 Te 73.304(3) 1_554 8
Rb1 Rb2 Te 106.696(3) 7_556 8
Te Rb2 Te 67.902(3) . 8
Te Rb2 Te 112.098(3) 7 8
Rb1 Rb2 Te 106.696(3) 7 2
Rb1 Rb2 Te 73.304(3) . 2
Rb2 Rb2 Te 73.304(3) 4 2
Rb2 Rb2 Te 106.696(3) 4_554 2
Rb1 Rb2 Te 106.696(3) 1_554 2
Rb1 Rb2 Te 73.304(3) 7_556 2
Te Rb2 Te 112.098(3) . 2
Te Rb2 Te 67.902(3) 7 2
Te Rb2 Te 180.000(19) 8 2
Rb1 Rb2 Te 73.304(3) 7 9
Rb1 Rb2 Te 106.696(3) . 9
Rb2 Rb2 Te 106.696(3) 4 9
Rb2 Rb2 Te 73.304(3) 4_554 9
Rb1 Rb2 Te 73.304(3) 1_554 9
Rb1 Rb2 Te 106.696(3) 7_556 9
Te Rb2 Te 67.902(3) . 9
Te Rb2 Te 112.098(3) 7 9
Te Rb2 Te 112.098(3) 8 9
Te Rb2 Te 67.902(3) 2 9
Rb1 Rb2 Te 106.696(3) 7 3
Rb1 Rb2 Te 73.304(3) . 3
Rb2 Rb2 Te 73.304(3) 4 3
Rb2 Rb2 Te 106.696(3) 4_554 3
Rb1 Rb2 Te 106.696(3) 1_554 3
Rb1 Rb2 Te 73.304(3) 7_556 3
Te Rb2 Te 112.098(3) . 3
Te Rb2 Te 67.902(3) 7 3
Te Rb2 Te 67.902(3) 8 3
Te Rb2 Te 112.098(3) 2 3
Te Rb2 Te 180.000(14) 9 3
Te Pr Te 79.507(14) 9_656 9_655
Te Pr Te 134.787(5) 9_656 8
Te Pr Te 83.488(11) 9_655 8
Te Pr Te 83.488(10) 9_656 8_556
Te Pr Te 134.787(5) 9_655 8_556
Te Pr Te 79.507(14) 8 8_556
Te Pr Te 83.488(11) 9_656 7_666
Te Pr Te 134.787(5) 9_655 7_666
Te Pr Te 134.787(5) 8 7_666
Te Pr Te 83.488(11) 8_556 7_666
Te Pr Te 134.787(5) 9_656 7_665
Te Pr Te 83.488(11) 9_655 7_665
Te Pr Te 83.488(11) 8 7_665
Te Pr Te 134.787(5) 8_556 7_665
Te Pr Te 79.507(14) 7_666 7_665
Te Pr Cu 47.113(14) 9_656 1_655
Te Pr Cu 47.113(14) 9_655 1_655
Te Pr Cu 130.542(14) 8 1_655
Te Pr Cu 130.542(14) 8_556 1_655
Te Pr Cu 91.751(19) 7_666 1_655
Te Pr Cu 91.751(19) 7_665 1_655
Te Pr Cu 91.751(19) 9_656 3
Te Pr Cu 91.751(19) 9_655 3
Te Pr Cu 47.113(14) 8 3
Te Pr Cu 47.113(14) 8_556 3
Te Pr Cu 130.542(14) 7_666 3
Te Pr Cu 130.542(14) 7_665 3
Cu Pr Cu 120.0 1_655 3
Te Pr Cu 130.542(14) 9_656 2_665
Te Pr Cu 130.542(14) 9_655 2_665
Te Pr Cu 91.751(19) 8 2_665
Te Pr Cu 91.751(19) 8_556 2_665
Te Pr Cu 47.113(14) 7_666 2_665
Te Pr Cu 47.113(14) 7_665 2_665
Cu Pr Cu 120.0 1_655 2_665
Cu Pr Cu 120.0 3 2_665
Te Pr Cu 94.802(19) 9_656 9_655
Te Pr Cu 46.09(2) 9_655 9_655
Te Pr Cu 46.03(2) 8 9_655
Te Pr Cu 94.755(19) 8_556 9_655
Te Pr Cu 177.667(13) 7_666 9_655
Te Pr Cu 102.826(16) 7_665 9_655
Cu Pr Cu 88.23(4) 1_655 9_655
Cu Pr Cu 47.79(3) 3 9_655
Cu Pr Cu 134.65(3) 2_665 9_655
Te Pr Cu 46.09(2) 9_656 9_656
Te Pr Cu 94.802(19) 9_655 9_656
Te Pr Cu 94.755(19) 8 9_656
Te Pr Cu 46.03(2) 8_556 9_656
Te Pr Cu 102.826(16) 7_666 9_656
Te Pr Cu 177.667(13) 7_665 9_656
Cu Pr Cu 88.23(4) 1_655 9_656
Cu Pr Cu 47.79(3) 3 9_656
Cu Pr Cu 134.65(3) 2_665 9_656
Cu Pr Cu 74.84(3) 9_655 9_656
Te Pr Cu 46.03(2) 9_656 7_666
Te Pr Cu 94.755(19) 9_655 7_666
Te Pr Cu 177.667(13) 8 7_666
Te Pr Cu 102.826(16) 8_556 7_666
Te Pr Cu 46.09(2) 7_666 7_666
Te Pr Cu 94.802(19) 7_665 7_666
Cu Pr Cu 47.79(3) 1_655 7_666
Cu Pr Cu 134.65(3) 3 7_666
Cu Pr Cu 88.23(4) 2_665 7_666
Cu Pr Cu 133.206(8) 9_655 7_666
Cu Pr Cu 86.911(18) 9_656 7_666
Te Cu Te 105.62(5) 9 9_556
Te Cu Te 117.30(3) 9 3_565
Te Cu Te 117.30(3) 9_556 3_565
Te Cu Te 101.29(4) 9 .
Te Cu Te 101.29(4) 9_556 .
Te Cu Te 111.73(5) 3_565 .
Te Cu Cu 134.41(7) 9 7_566
Te Cu Cu 58.72(3) 9_556 7_566
Te Cu Cu 58.59(5) 3_565 7_566
Te Cu Cu 122.97(5) . 7_566
Te Cu Cu 58.72(3) 9 7_565
Te Cu Cu 134.41(7) 9_556 7_565
Te Cu Cu 58.59(5) 3_565 7_565
Te Cu Cu 122.97(5) . 7_565
Cu Cu Cu 99.84(8) 7_566 7_565
Te Cu Pr 65.89(3) 9 1_455
Te Cu Pr 65.89(3) 9_556 1_455
Te Cu Pr 91.88(4) 3_565 1_455
Te Cu Pr 156.39(5) . 1_455
Cu Cu Pr 68.86(5) 7_566 1_455
Cu Cu Pr 68.86(5) 7_565 1_455
Te Cu Pr 161.30(4) 9 7_666
Te Cu Pr 88.800(15) 9_556 7_666
Te Cu Pr 63.55(2) 3_565 7_666
Te Cu Pr 63.52(2) . 7_666
Cu Cu Pr 63.35(4) 7_566 7_666
Cu Cu Pr 118.77(6) 7_565 7_666
Pr Cu Pr 132.21(3) 1_455 7_666
Te Cu Pr 88.800(15) 9 7_665
Te Cu Pr 161.30(4) 9_556 7_665
Te Cu Pr 63.55(2) 3_565 7_665
Te Cu Pr 63.52(2) . 7_665
Cu Cu Pr 118.77(6) 7_566 7_665
Cu Cu Pr 63.35(4) 7_565 7_665
Pr Cu Pr 132.21(3) 1_455 7_665
Pr Cu Pr 74.84(3) 7_666 7_665
Te Cu Rb1 68.71(3) 9 .
Te Cu Rb1 68.71(3) 9_556 .
Te Cu Rb1 167.56(4) 3_565 .
Te Cu Rb1 55.83(3) . .
Cu Cu Rb1 126.19(4) 7_566 .
Cu Cu Rb1 126.19(4) 7_565 .
Pr Cu Rb1 100.56(3) 1_455 .
Pr Cu Rb1 107.06(3) 7_666 .
Pr Cu Rb1 107.06(3) 7_665 .
Cu Te Cu 105.62(5) 8_556 8
Cu Te Cu 62.70(3) 8_556 2_665
Cu Te Cu 62.70(3) 8 2_665
Cu Te Cu 126.38(2) 8_556 .
Cu Te Cu 126.38(2) 8 .
Cu Te Cu 128.27(5) 2_665 .
Cu Te Pr 67.00(3) 8_556 7_666
Cu Te Pr 128.91(3) 8 7_666
Cu Te Pr 70.42(2) 2_665 7_666
Cu Te Pr 70.38(2) . 7_666
Cu Te Pr 128.91(3) 8_556 7_665
Cu Te Pr 67.00(3) 8 7_665
Cu Te Pr 70.42(2) 2_665 7_665
Cu Te Pr 70.38(2) . 7_665
Pr Te Pr 79.507(14) 7_666 7_665
Cu Te Rb1 99.35(3) 8_556 .
Cu Te Rb1 99.35(3) 8 .
Cu Te Rb1 146.22(3) 2_665 .
Cu Te Rb1 85.51(3) . .
Pr Te Rb1 131.545(11) 7_666 .
Pr Te Rb1 131.545(11) 7_665 .
Cu Te Rb2 112.61(3) 8_556 .
Cu Te Rb2 85.80(3) 8 .
Cu Te Rb2 142.77(3) 2_665 .
Cu Te Rb2 85.70(3) . .
Pr Te Rb2 144.982(14) 7_666 .
Pr Te Rb2 116.842(9) 7_665 .
Rb1 Te Rb2 16.696(3) . .
Cu Te Rb2 85.80(3) 8_556 4
Cu Te Rb2 112.61(3) 8 4
Cu Te Rb2 142.77(3) 2_665 4
Cu Te Rb2 85.70(3) . 4
Pr Te Rb2 116.842(9) 7_666 4
Pr Te Rb2 144.982(14) 7_665 4
Rb1 Te Rb2 16.696(3) . 4
Rb2 Te Rb2 33.392(6) . 4
Cu Te Rb1 123.31(3) 8_556 7
Cu Te Rb1 74.31(3) 8 7
Cu Te Rb1 135.46(2) 2_665 7
Cu Te Rb1 86.15(3) . 7
Pr Te Rb1 153.856(16) 7_666 7
Pr Te Rb1 103.872(8) 7_665 7
Rb1 Te Rb1 30.959(5) . 7
Rb2 Te Rb1 14.263(2) . 7
Rb2 Te Rb1 47.655(8) 4 7
Cu Te Rb1 74.31(3) 8_556 7_556
Cu Te Rb1 123.31(3) 8 7_556
Cu Te Rb1 135.46(2) 2_665 7_556
Cu Te Rb1 86.15(3) . 7_556
Pr Te Rb1 103.872(8) 7_666 7_556
Pr Te Rb1 153.856(16) 7_665 7_556
Rb1 Te Rb1 30.959(5) . 7_556
Rb2 Te Rb1 47.655(8) . 7_556
Rb2 Te Rb1 14.263(2) 4 7_556
Rb1 Te Rb1 61.918(10) 7 7_556
loop_
_geom_bond_atom_site_label_1
_geom_bond_atom_site_label_2
_geom_bond_distance
_geom_bond_site_symmetry_2
Pr Te 3.2560(5) 9_656
Pr Te 3.2560(5) 9_655
Pr Te 3.2560(5) 8
Pr Te 3.2560(5) 8_556
Pr Te 3.2560(5) 7_666
Pr Te 3.2560(5) 7_665
Pr Cu 3.2835(12) 1_655
Pr Cu 3.2835(12) 3
Pr Cu 3.2835(12) 2_665
Pr Cu 3.4265(10) 9_655
Pr Cu 3.4265(10) 9_656
Pr Cu 3.4265(10) 7_666
Cu Te 2.6137(8) 9
Cu Te 2.6137(8) 9_556
Cu Te 2.6173(13) 3_565
Cu Te 2.6208(13) .
Cu Cu 2.7213(16) 7_566
Cu Cu 2.7213(16) 7_565
Cu Pr 3.2835(12) 1_455
Cu Pr 3.4265(10) 7_666
Cu Pr 3.4265(10) 7_665
Te Cu 2.6137(8) 8_556
Te Cu 2.6137(8) 8
Te Cu 2.6173(14) 2_665
Te Pr 3.2560(5) 7_666
Te Pr 3.2560(5) 7_665
