#------------------------------------------------------------------------------
#$Date: 2016-02-16 22:30:59 +0200 (Tue, 16 Feb 2016) $
#$Revision: 176467 $
#$URL: svn://www.crystallography.net/cod/cif/4/00/06/4000636.cif $
#------------------------------------------------------------------------------
#
# This file is available in the Crystallography Open Database (COD),
# http://www.crystallography.net/
#
# All data on this site have been placed in the public domain by the
# contributors.
#
data_4000636
_journal_name_full               'Chemistry of Materials'
_journal_year                    2005
_chemical_formula_sum            'Ho Ni0.6 Sb2'
_chemical_formula_weight         443.36
_space_group_IT_number           129
_symmetry_cell_setting           tetragonal
_symmetry_space_group_name_Hall  '-P 4a 2a'
_symmetry_space_group_name_H-M   'P 4/n m m :2'
_cell_angle_alpha                90.00
_cell_angle_beta                 90.00
_cell_angle_gamma                90.00
_cell_formula_units_Z            2
_cell_length_a                   4.2790(6)
_cell_length_b                   4.2790(6)
_cell_length_c                   9.2350(10)
_cell_measurement_temperature    298(2)
_cell_volume                     169.09(4)
_diffrn_ambient_temperature      298(2)
_exptl_crystal_density_diffrn    8.708
_cod_duplicate_entry             4000632
_cod_original_sg_symbol_H-M      'P 4/n m m'
_cod_original_formula_sum        'Ho Ni0.60 Sb2'
_cod_database_code               4000636
loop_
_symmetry_equiv_pos_as_xyz
'x, y, z'
'-x+1/2, -y+1/2, z'
'x+1/2, -y, -z'
'-x, y+1/2, -z'
'-y, -x, -z'
'y+1/2, x+1/2, -z'
'y, -x+1/2, z'
'-y+1/2, x, z'
'-x, -y, -z'
'x-1/2, y-1/2, -z'
'-x-1/2, y, z'
'x, -y-1/2, z'
'y, x, z'
'-y-1/2, -x-1/2, z'
'-y, x-1/2, -z'
'y-1/2, -x, -z'
loop_
_atom_site_label
_atom_site_type_symbol
_atom_site_fract_x
_atom_site_fract_y
_atom_site_fract_z
_atom_site_U_iso_or_equiv
_atom_site_adp_type
_atom_site_occupancy
_atom_site_symmetry_multiplicity
_atom_site_calc_flag
_atom_site_refinement_flags
_atom_site_disorder_assembly
_atom_site_disorder_group
Ho1 Ho 0.2500 0.2500 0.76286(8) 0.0105(3) Uani 1 8 d S . .
Sb2 Sb 0.7500 0.2500 0.5000 0.0105(4) Uani 1 8 d S . .
Sb1 Sb 0.2500 0.2500 0.13225(13) 0.0173(4) Uani 1 8 d S . .
Ni1 Ni 0.7500 0.2500 0.0000 0.0139(13) Uani 0.597(10) 8 d SP . .
loop_
_atom_site_aniso_label
_atom_site_aniso_U_11
_atom_site_aniso_U_22
_atom_site_aniso_U_33
_atom_site_aniso_U_23
_atom_site_aniso_U_13
_atom_site_aniso_U_12
Ho1 0.0116(4) 0.0116(4) 0.0084(4) 0.000 0.000 0.000
Sb2 0.0114(5) 0.0114(5) 0.0086(6) 0.000 0.000 0.000
Sb1 0.0180(5) 0.0180(5) 0.0160(6) 0.000 0.000 0.000
Ni1 0.0141(17) 0.0141(17) 0.013(2) 0.000 0.000 0.000
loop_
_geom_bond_atom_site_label_1
_geom_bond_atom_site_label_2
_geom_bond_distance
_geom_bond_site_symmetry_2
_geom_bond_publ_flag
Ho1 Ni1 3.0616(6) 9_666 ?
Ho1 Ni1 3.0616(6) 1_556 ?
Ho1 Ni1 3.0616(6) 9_656 ?
Ho1 Ni1 3.0616(6) 1_456 ?
Ho1 Sb1 3.1770(6) 9_666 ?
Ho1 Sb1 3.1770(6) 9_556 ?
Ho1 Sb1 3.1770(6) 9_566 ?
Ho1 Sb1 3.1770(6) 9_656 ?
Ho1 Sb2 3.2358(6) 9_656 ?
Ho1 Sb2 3.2358(6) 1_455 ?
Ho1 Sb2 3.2358(6) . ?
Ho1 Sb2 3.2358(6) 9_666 ?
Sb2 Sb2 3.0257(4) 9_766 ?
Sb2 Sb2 3.0257(4) 9_656 ?
Sb2 Sb2 3.0257(4) 9_666 ?
Sb2 Sb2 3.0257(4) 9_756 ?
Sb2 Ho1 3.2358(6) 9_656 ?
Sb2 Ho1 3.2358(6) 1_655 ?
Sb2 Ho1 3.2358(6) 9_666 ?
Sb1 Ni1 2.4636(7) 9_655 ?
Sb1 Ni1 2.4636(7) 1_455 ?
Sb1 Ni1 2.4636(7) 9_665 ?
Sb1 Ni1 2.4636(7) . ?
Sb1 Ho1 3.1770(6) 9_666 ?
Sb1 Ho1 3.1770(6) 9_556 ?
Sb1 Ho1 3.1770(6) 9_566 ?
Sb1 Ho1 3.1770(6) 9_656 ?
Sb1 Ho1 3.4114(15) 1_554 ?
Ni1 Sb1 2.4635(7) 9_655 ?
Ni1 Sb1 2.4635(7) 1_655 ?
Ni1 Sb1 2.4635(7) 9_665 ?
Ni1 Ho1 3.0616(6) 1_554 ?
Ni1 Ho1 3.0616(6) 9_666 ?
Ni1 Ho1 3.0616(6) 1_654 ?
Ni1 Ho1 3.0616(6) 9_656 ?
