#------------------------------------------------------------------------------
#$Date: 2016-02-16 22:30:59 +0200 (Tue, 16 Feb 2016) $
#$Revision: 176467 $
#$URL: svn://www.crystallography.net/cod/cif/4/00/01/4000174.cif $
#------------------------------------------------------------------------------
#
# This file is available in the Crystallography Open Database (COD),
# http://www.crystallography.net/
#
# All data on this site have been placed in the public domain by the
# contributors.
#
data_4000174
_journal_name_full               'Chemistry of Materials'
_journal_paper_doi               10.1021/cm020066o
_journal_year                    2002
_chemical_formula_sum            'Ga4.4 Ge0.6 Ni2 Y0.59'
_chemical_formula_weight         520.20
_space_group_IT_number           194
_symmetry_cell_setting           hexagonal
_symmetry_space_group_name_Hall  '-P 6c 2c'
_symmetry_space_group_name_H-M   'P 63/m m c'
_atom_sites_solution_hydrogens   geom
_atom_sites_solution_primary     direct
_atom_sites_solution_secondary   difmap
_cell_angle_alpha                90.00
_cell_angle_beta                 90.00
_cell_angle_gamma                120.00
_cell_formula_units_Z            2
_cell_length_a                   4.1344(11)
_cell_length_b                   4.1344(11)
_cell_length_c                   15.887(6)
_cell_measurement_temperature    293(2)
_cell_volume                     235.18(12)
_diffrn_ambient_temperature      293(2)
_diffrn_radiation_monochromator  graphite
_diffrn_radiation_source         'fine-focus sealed tube'
_diffrn_radiation_type           MoK\a
_diffrn_radiation_wavelength     0.71073
_diffrn_reflns_av_R_equivalents  0.0678
_diffrn_reflns_av_sigmaI/netI    0.0198
_diffrn_reflns_limit_h_max       4
_diffrn_reflns_limit_h_min       -4
_diffrn_reflns_limit_k_max       4
_diffrn_reflns_limit_k_min       -4
_diffrn_reflns_limit_l_max       17
_diffrn_reflns_limit_l_min       -17
_diffrn_reflns_number            1263
_diffrn_reflns_theta_max         23.14
_diffrn_reflns_theta_min         2.56
_exptl_absorpt_coefficient_mu    43.409
_exptl_crystal_density_diffrn    7.346
_exptl_crystal_density_method    'not measured'
_exptl_crystal_F_000             469
_refine_ls_extinction_coef       0.092(12)
_refine_ls_extinction_expression Fc^*^=kFc[1+0.001xFc^2^\l^3^/sin(2\q)]^-1/4^
_refine_ls_extinction_method     SHELXL
_refine_ls_goodness_of_fit_ref   1.221
_refine_ls_hydrogen_treatment    mixed
_refine_ls_matrix_type           full
_refine_ls_number_parameters     19
_refine_ls_number_reflns         89
_refine_ls_number_restraints     1
_refine_ls_restrained_S_all      1.213
_refine_ls_R_factor_all          0.0320
_refine_ls_R_factor_gt           0.0320
_refine_ls_shift/su_max          0.014
_refine_ls_shift/su_mean         0.004
_refine_ls_structure_factor_coef Fsqd
_refine_ls_weighting_details
'calc w=1/[\s^2^(Fo^2^)+(0.0456P)^2^+6.8051P] where P=(Fo^2^+2Fc^2^)/3'
_refine_ls_weighting_scheme      calc
_refine_ls_wR_factor_gt          0.0826
_refine_ls_wR_factor_ref         0.0826
_reflns_number_gt                89
_reflns_number_total             89
_reflns_threshold_expression     >2sigma(I)
_cod_original_sg_symbol_H-M      P?
_cod_original_formula_sum        'Ga4.40 Ge0.60 Ni2 Y0.59'
_cod_database_code               4000174
loop_
_symmetry_equiv_pos_as_xyz
'x, y, z'
'-y, x-y, z'
'-x+y, -x, z'
'-x, -y, z+1/2'
'y, -x+y, z+1/2'
'x-y, x, z+1/2'
'y, x, -z'
'x-y, -y, -z'
'-x, -x+y, -z'
'-y, -x, -z+1/2'
'-x+y, y, -z+1/2'
'x, x-y, -z+1/2'
'-x, -y, -z'
'y, -x+y, -z'
'x-y, x, -z'
'x, y, -z-1/2'
'-y, x-y, -z-1/2'
'-x+y, -x, -z-1/2'
'-y, -x, z'
'-x+y, y, z'
'x, x-y, z'
'y, x, z-1/2'
'x-y, -y, z-1/2'
'-x, -x+y, z-1/2'
loop_
_atom_site_label
_atom_site_type_symbol
_atom_site_fract_x
_atom_site_fract_y
_atom_site_fract_z
_atom_site_U_iso_or_equiv
_atom_site_adp_type
_atom_site_occupancy
_atom_site_symmetry_multiplicity
_atom_site_calc_flag
_atom_site_refinement_flags
_atom_site_disorder_assembly
_atom_site_disorder_group
Y1 Y 0.3333 0.6667 0.2500 0.0028(14) Uani 0.59 12 d SP . .
M1 Ga 0.5364(12) 0.073(2) 0.2500 0.022(2) Uani 0.33 4 d SP . .
M2 Ga 0.0000 0.0000 0.13443(15) 0.0089(14) Uani 0.7(2) 6 d SP . .
M20 Ge 0.0000 0.0000 0.13443(15) 0.0089(14) Uani 0.3(2) 6 d SP . .
Ga1 Ga 0.3333 0.6667 0.04584(16) 0.0069(12) Uani 1 6 d S . .
Ni1 Ni 0.3333 0.6667 0.60909(19) 0.0081(12) Uani 1 6 d S . .
loop_
_atom_site_aniso_label
_atom_site_aniso_U_11
_atom_site_aniso_U_22
_atom_site_aniso_U_33
_atom_site_aniso_U_23
_atom_site_aniso_U_13
_atom_site_aniso_U_12
Y1 0.0013(18) 0.0013(18) 0.006(2) 0.000 0.000 0.0007(9)
M1 0.023(3) 0.051(6) 0.001(3) 0.000 0.000 0.026(3)
M2 0.0095(15) 0.0095(15) 0.0077(19) 0.000 0.000 0.0047(8)
M20 0.0095(15) 0.0095(15) 0.0077(19) 0.000 0.000 0.0047(8)
Ga1 0.0085(13) 0.0085(13) 0.0036(15) 0.000 0.000 0.0043(7)
Ni1 0.0096(14) 0.0096(14) 0.0049(18) 0.000 0.000 0.0048(7)
