#------------------------------------------------------------------------------
#$Date: 2016-03-20 19:46:54 +0200 (Sun, 20 Mar 2016) $
#$Revision: 178370 $
#$URL: svn://www.crystallography.net/cod/cif/4/00/00/4000012.cif $
#------------------------------------------------------------------------------
#
# This file is available in the Crystallography Open Database (COD),
# http://www.crystallography.net/
#
# All data on this site have been placed in the public domain by the
# contributors.
#
data_4000012
loop_
_publ_author_name
'Tougait, Olivier'
'Ibers, James A.'
_publ_section_title
;
 Synthesis and Characterization of Three New Rare-Earth Titanium
 Oxyselenides: Ln~3.67~Ti~2~O~3~Se~6~ (Ln = Ce, Nd, Sm)
;
_journal_coden_ASTM              CMATEX
_journal_issue                   9
_journal_name_full               'Chemistry of Materials'
_journal_page_first              2653
_journal_page_last               2658
_journal_paper_doi               10.1021/cm000203m
_journal_volume                  12
_journal_year                    2000
_chemical_formula_sum            'Nd3.67 O3 Se6 Ti2'
_chemical_formula_weight         1149.45
_space_group_IT_number           12
_symmetry_cell_setting           monoclinic
_symmetry_space_group_name_Hall  '-C 2y'
_symmetry_space_group_name_H-M   'C 1 2/m 1'
_atom_sites_solution_hydrogens   geom
_atom_sites_solution_primary     direct
_atom_sites_solution_secondary   difmap
_audit_creation_method           SHELXL-97
_cell_angle_alpha                90.00
_cell_angle_beta                 90.15(3)
_cell_angle_gamma                90.00
_cell_formula_units_Z            4
_cell_length_a                   28.121(6)
_cell_length_b                   3.8232(8)
_cell_length_c                   11.179(2)
_cell_measurement_reflns_used    2977
_cell_measurement_temperature    153(2)
_cell_measurement_theta_max      28.766
_cell_measurement_theta_min      2.325
_cell_volume                     1201.8(4)
_computing_cell_refinement       'SMART version 5.054 (Bruker, 1999)'
_computing_data_collection       'SMART version 5.054 (Bruker, 1999)'
_computing_data_reduction        'SAINT-Plus version 6.01 (Bruker, 1999)'
_computing_molecular_graphics    'SHELXTL-97 (Sheldrick, 1997)'
_computing_publication_material  'SHELXTL-97 (Sheldrick, 1997)'
_computing_structure_refinement  'SHELXL-97 (Sheldrick, 1997)'
_computing_structure_solution    'SHELXS-97 (Sheldrick, 1990)'
_diffrn_ambient_temperature      153(2)
_diffrn_detector_area_resol_mean ?
_diffrn_measured_fraction_theta_full 0.902
_diffrn_measured_fraction_theta_max 0.902
_diffrn_measurement_device_type  'Bruker Smart 1000 CCD'
_diffrn_measurement_method       \w
_diffrn_radiation_monochromator  graphite
_diffrn_radiation_source         'standard-focus sealed tube'
_diffrn_radiation_type           MoK\a
_diffrn_radiation_wavelength     0.71073
_diffrn_reflns_av_R_equivalents  0.0215
_diffrn_reflns_av_sigmaI/netI    0.0216
_diffrn_reflns_limit_h_max       37
_diffrn_reflns_limit_h_min       -34
_diffrn_reflns_limit_k_max       5
_diffrn_reflns_limit_k_min       -5
_diffrn_reflns_limit_l_max       15
_diffrn_reflns_limit_l_min       -11
_diffrn_reflns_number            3872
_diffrn_reflns_theta_full        28.77
_diffrn_reflns_theta_max         28.77
_diffrn_reflns_theta_min         1.45
_diffrn_standards_decay_%        <2
_diffrn_standards_interval_count ?
_diffrn_standards_interval_time  ?
_diffrn_standards_number         ?
_exptl_absorpt_coefficient_mu    35.049
_exptl_absorpt_correction_T_max  0.7775
_exptl_absorpt_correction_T_min  0.2480
_exptl_absorpt_correction_type   numerical
_exptl_absorpt_process_details   'face indexed (Sheldrick, 1997)'
_exptl_crystal_colour            black
_exptl_crystal_density_diffrn    6.353
_exptl_crystal_density_meas      ?
_exptl_crystal_density_method    'not measured'
_exptl_crystal_description       needle
_exptl_crystal_F_000             1973
_exptl_crystal_size_max          0.450
_exptl_crystal_size_mid          0.016
_exptl_crystal_size_min          0.014
_refine_diff_density_max         3.624
_refine_diff_density_min         -2.069
_refine_diff_density_rms         0.404
_refine_ls_extinction_coef       0.00000(3)
_refine_ls_extinction_expression Fc^*^=kFc[1+0.001xFc^2^\l^3^/sin(2\q)]^-1/4^
_refine_ls_extinction_method     SHELXL
_refine_ls_goodness_of_fit_ref   1.206
_refine_ls_hydrogen_treatment    mixed
_refine_ls_matrix_type           full
_refine_ls_number_parameters     95
_refine_ls_number_reflns         1617
_refine_ls_number_restraints     0
_refine_ls_restrained_S_all      1.206
_refine_ls_R_factor_all          0.0322
_refine_ls_R_factor_gt           0.0281
_refine_ls_shift/su_max          0.001
_refine_ls_shift/su_mean         0.000
_refine_ls_structure_factor_coef Fsqd
_refine_ls_weighting_details     'w = 1/[\s^2^(Fo^2^)+(0.04Fo^2^)^2^]'
_refine_ls_weighting_scheme      calc
_refine_ls_wR_factor_gt          0.0689
_refine_ls_wR_factor_ref         0.0705
_reflns_number_gt                1435
_reflns_number_total             1617
_reflns_threshold_expression     >2sigma(I)
_cod_data_source_file            cm000203m.cif
_cod_data_source_block           Nd3.67Ti2O3Se6
_cod_original_sg_symbol_H-M      'C 2/m'
_cod_database_code               4000012
loop_
_symmetry_equiv_pos_as_xyz
'x, y, z'
'-x, y, -z'
'x+1/2, y+1/2, z'
'-x+1/2, y+1/2, -z'
'-x, -y, -z'
'x, -y, z'
'-x+1/2, -y+1/2, -z'
'x+1/2, -y+1/2, z'
loop_
_atom_site_label
_atom_site_type_symbol
_atom_site_fract_x
_atom_site_fract_y
_atom_site_fract_z
_atom_site_U_iso_or_equiv
_atom_site_adp_type
_atom_site_occupancy
_atom_site_symmetry_multiplicity
_atom_site_calc_flag
_atom_site_refinement_flags
_atom_site_disorder_assembly
_atom_site_disorder_group
Nd1 Nd 0.054847(15) 0.0000 0.73162(4) 0.00677(13) Uani 1 2 d S . .
Nd2 Nd 0.197731(16) 0.0000 0.57579(4) 0.00846(13) Uani 1 2 d S . .
Nd3 Nd 0.564584(15) 0.0000 0.23151(4) 0.00695(13) Uani 1 2 d S . .
Nd4 Nd 0.32675(3) 0.0000 0.04544(7) 0.0223(3) Uani 0.713(2) 2 d SP . .
Se1 Se 0.06401(3) 0.0000 0.45988(7) 0.00721(18) Uani 1 2 d S . .
Se2 Se 0.14000(3) 0.0000 0.12588(8) 0.01027(19) Uani 1 2 d S . .
Se3 Se 0.33820(3) 0.0000 0.62019(8) 0.00798(18) Uani 1 2 d S . .
Se4 Se 0.36294(3) 0.0000 0.29022(8) 0.00840(19) Uani 1 2 d S . .
Se5 Se 0.43807(3) 0.0000 0.04881(7) 0.00775(19) Uani 1 2 d S . .
Se6 Se 0.75561(3) 0.0000 0.15382(8) 0.0113(2) Uani 1 2 d S . .
Ti1 Ti 0.21082(5) 0.0000 0.27123(14) 0.0125(3) Uani 1 2 d S . .
Ti2 Ti 0.0000 0.5000 0.5000 0.0094(4) Uani 1 4 d S . .
Ti3 Ti 0.0000 0.0000 0.0000 0.0150(5) Uani 1 4 d S . .
O1 O 0.02163(19) 0.0000 0.1648(5) 0.0076(12) Uani 1 2 d S . .
O2 O 0.2526(2) 0.0000 0.4023(5) 0.0087(12) Uani 1 2 d S . .
O3 O 0.4858(2) 0.0000 0.3329(5) 0.0063(11) Uani 1 2 d S . .
loop_
_atom_site_aniso_label
_atom_site_aniso_U_11
_atom_site_aniso_U_22
_atom_site_aniso_U_33
_atom_site_aniso_U_23
_atom_site_aniso_U_13
_atom_site_aniso_U_12
Nd1 0.0089(2) 0.0049(2) 0.0066(2) 0.000 0.00038(16) 0.000
Nd2 0.0118(2) 0.0051(2) 0.0084(2) 0.000 0.00160(18) 0.000
Nd3 0.0083(2) 0.0052(2) 0.0073(2) 0.000 0.00003(17) 0.000
Nd4 0.0124(4) 0.0458(6) 0.0085(4) 0.000 0.0005(3) 0.000
Se1 0.0098(4) 0.0058(4) 0.0060(4) 0.000 0.0001(3) 0.000
Se2 0.0084(4) 0.0106(4) 0.0119(4) 0.000 -0.0019(3) 0.000
Se3 0.0090(4) 0.0060(4) 0.0089(4) 0.000 -0.0013(3) 0.000
Se4 0.0090(4) 0.0055(4) 0.0107(4) 0.000 0.0010(3) 0.000
Se5 0.0104(4) 0.0072(4) 0.0056(4) 0.000 -0.0002(3) 0.000
Se6 0.0161(4) 0.0077(4) 0.0102(4) 0.000 0.0019(3) 0.000
Ti1 0.0098(7) 0.0207(9) 0.0068(7) 0.000 -0.0019(6) 0.000
Ti2 0.0094(10) 0.0129(11) 0.0060(10) 0.000 0.0003(8) 0.000
Ti3 0.0104(10) 0.0298(14) 0.0049(10) 0.000 -0.0013(9) 0.000
O1 0.006(3) 0.006(3) 0.011(3) 0.000 -0.002(2) 0.000
O2 0.009(3) 0.011(3) 0.006(3) 0.000 -0.003(2) 0.000
O3 0.009(3) 0.003(3) 0.006(3) 0.000 0.000(2) 0.000
loop_
_atom_type_symbol
_atom_type_description
_atom_type_scat_dispersion_real
_atom_type_scat_dispersion_imag
_atom_type_scat_source
O O 0.0106 0.0060 'International Tables Vol C Tables 4.2.6.8 and 6.1.1.4'
Ti Ti 0.2776 0.4457 'International Tables Vol C Tables 4.2.6.8 and 6.1.1.4'
Se Se -0.0929 2.2259 'International Tables Vol C Tables 4.2.6.8 and 6.1.1.4'
Nd Nd -0.1943 3.0179 'International Tables Vol C Tables 4.2.6.8 and 6.1.1.4'
loop_
_geom_angle_atom_site_label_1
_geom_angle_atom_site_label_2
_geom_angle_atom_site_label_3
_geom_angle
_geom_angle_site_symmetry_1
_geom_angle_site_symmetry_3
_geom_angle_publ_flag
O3 Nd1 O3 109.5(2) 7_546 7_556 ?
O3 Nd1 O1 73.51(15) 7_546 5_556 ?
O3 Nd1 O1 73.51(15) 7_556 5_556 ?
O3 Nd1 Se4 150.29(14) 7_546 7_556 ?
O3 Nd1 Se4 80.28(12) 7_556 7_556 ?
O1 Nd1 Se4 135.64(6) 5_556 7_556 ?
O3 Nd1 Se4 80.28(12) 7_546 7_546 ?
O3 Nd1 Se4 150.29(14) 7_556 7_546 ?
O1 Nd1 Se4 135.64(6) 5_556 7_546 ?
Se4 Nd1 Se4 78.85(3) 7_556 7_546 ?
O3 Nd1 Se1 74.67(14) 7_546 . ?
O3 Nd1 Se1 74.67(14) 7_556 . ?
O1 Nd1 Se1 123.27(14) 5_556 . ?
Se4 Nd1 Se1 81.51(3) 7_556 . ?
Se4 Nd1 Se1 81.51(3) 7_546 . ?
O3 Nd1 Se5 140.68(14) 7_546 7_556 ?
O3 Nd1 Se5 76.81(13) 7_556 7_556 ?
O1 Nd1 Se5 71.43(11) 5_556 7_556 ?
Se4 Nd1 Se5 68.09(3) 7_556 7_556 ?
Se4 Nd1 Se5 113.94(3) 7_546 7_556 ?
Se1 Nd1 Se5 141.175(15) . 7_556 ?
O3 Nd1 Se5 76.81(13) 7_546 7_546 ?
O3 Nd1 Se5 140.68(14) 7_556 7_546 ?
O1 Nd1 Se5 71.43(11) 5_556 7_546 ?
Se4 Nd1 Se5 113.94(3) 7_556 7_546 ?
Se4 Nd1 Se5 68.09(3) 7_546 7_546 ?
Se1 Nd1 Se5 141.175(15) . 7_546 ?
Se5 Nd1 Se5 75.65(3) 7_556 7_546 ?
O3 Nd1 Ti3 92.85(14) 7_546 1_556 ?
O3 Nd1 Ti3 92.85(14) 7_556 1_556 ?
O1 Nd1 Ti3 34.40(14) 5_556 1_556 ?
Se4 Nd1 Ti3 115.13(3) 7_556 1_556 ?
Se4 Nd1 Ti3 115.13(3) 7_546 1_556 ?
Se1 Nd1 Ti3 157.67(2) . 1_556 ?
Se5 Nd1 Ti3 47.842(17) 7_556 1_556 ?
Se5 Nd1 Ti3 47.842(17) 7_546 1_556 ?
O3 Nd1 Ti2 29.35(13) 7_546 1_545 ?
O3 Nd1 Ti2 90.23(12) 7_556 1_545 ?
O1 Nd1 Ti2 87.97(12) 5_556 1_545 ?
Se4 Nd1 Ti2 127.76(3) 7_556 1_545 ?
Se4 Nd1 Ti2 86.07(3) 7_546 1_545 ?
Se1 Nd1 Ti2 46.700(17) . 1_545 ?
Se5 Nd1 Ti2 157.99(2) 7_556 1_545 ?
Se5 Nd1 Ti2 105.64(2) 7_546 1_545 ?
Ti3 Nd1 Ti2 116.575(16) 1_556 1_545 ?
O3 Nd1 Ti2 90.23(12) 7_546 . ?
O3 Nd1 Ti2 29.35(13) 7_556 . ?
O1 Nd1 Ti2 87.97(12) 5_556 . ?
Se4 Nd1 Ti2 86.07(3) 7_556 . ?
Se4 Nd1 Ti2 127.76(3) 7_546 . ?
Se1 Nd1 Ti2 46.700(17) . . ?
Se5 Nd1 Ti2 105.64(2) 7_556 . ?
Se5 Nd1 Ti2 157.99(2) 7_546 . ?
Ti3 Nd1 Ti2 116.575(16) 1_556 . ?
Ti2 Nd1 Ti2 64.83(2) 1_545 . ?
O3 Nd1 Nd1 35.24(11) 7_546 1_545 ?
O3 Nd1 Nd1 144.76(11) 7_556 1_545 ?
O1 Nd1 Nd1 90.0 5_556 1_545 ?
Se4 Nd1 Nd1 129.423(13) 7_556 1_545 ?
Se4 Nd1 Nd1 50.577(13) 7_546 1_545 ?
Se1 Nd1 Nd1 90.0 . 1_545 ?
Se5 Nd1 Nd1 127.827(13) 7_556 1_545 ?
Se5 Nd1 Nd1 52.173(13) 7_546 1_545 ?
Ti3 Nd1 Nd1 90.0 1_556 1_545 ?
Ti2 Nd1 Nd1 57.584(10) 1_545 1_545 ?
Ti2 Nd1 Nd1 122.416(10) . 1_545 ?
O2 Nd2 O2 106.9(2) 7_556 7_546 ?
O2 Nd2 O2 73.41(17) 7_556 . ?
O2 Nd2 O2 73.41(16) 7_546 . ?
O2 Nd2 Se4 143.40(14) 7_556 7_546 ?
O2 Nd2 Se4 76.63(12) 7_546 7_546 ?
O2 Nd2 Se4 138.88(3) . 7_546 ?
O2 Nd2 Se4 76.63(12) 7_556 7_556 ?
O2 Nd2 Se4 143.40(14) 7_546 7_556 ?
O2 Nd2 Se4 138.88(3) . 7_556 ?
Se4 Nd2 Se4 80.12(3) 7_546 7_556 ?
O2 Nd2 Se3 139.83(14) 7_556 7_546 ?
O2 Nd2 Se3 76.45(13) 7_546 7_546 ?
O2 Nd2 Se3 69.34(10) . 7_546 ?
Se4 Nd2 Se3 76.77(3) 7_546 7_546 ?
Se4 Nd2 Se3 124.82(3) 7_556 7_546 ?
O2 Nd2 Se3 76.45(13) 7_556 7_556 ?
O2 Nd2 Se3 139.83(14) 7_546 7_556 ?
O2 Nd2 Se3 69.34(10) . 7_556 ?
Se4 Nd2 Se3 124.82(3) 7_546 7_556 ?
Se4 Nd2 Se3 76.77(3) 7_556 7_556 ?
Se3 Nd2 Se3 76.84(3) 7_546 7_556 ?
O2 Nd2 Se6 70.91(14) 7_556 5_656 ?
O2 Nd2 Se6 70.91(14) 7_546 5_656 ?
O2 Nd2 Se6 118.06(13) . 5_656 ?
Se4 Nd2 Se6 76.42(3) 7_546 5_656 ?
Se4 Nd2 Se6 76.42(3) 7_556 5_656 ?
Se3 Nd2 Se6 141.563(14) 7_546 5_656 ?
Se3 Nd2 Se6 141.563(15) 7_556 5_656 ?
O2 Nd2 Ti1 92.17(14) 7_556 . ?
O2 Nd2 Ti1 92.17(14) 7_546 . ?
O2 Nd2 Ti1 32.28(13) . . ?
Se4 Nd2 Ti1 124.37(3) 7_546 . ?
Se4 Nd2 Ti1 124.37(3) 7_556 . ?
Se3 Nd2 Ti1 47.79(2) 7_546 . ?
Se3 Nd2 Ti1 47.79(2) 7_556 . ?
Se6 Nd2 Ti1 150.34(3) 5_656 . ?
O2 Nd2 Ti1 27.54(13) 7_556 7_556 ?
O2 Nd2 Ti1 87.69(11) 7_546 7_556 ?
O2 Nd2 Ti1 85.81(12) . 7_556 ?
Se4 Nd2 Ti1 120.58(3) 7_546 7_556 ?
Se4 Nd2 Ti1 80.25(3) 7_556 7_556 ?
Se3 Nd2 Ti1 153.38(3) 7_546 7_556 ?
Se3 Nd2 Ti1 103.85(3) 7_556 7_556 ?
Se6 Nd2 Ti1 44.52(3) 5_656 7_556 ?
Ti1 Nd2 Ti1 112.99(3) . 7_556 ?
O2 Nd2 Ti1 87.69(11) 7_556 7_546 ?
O2 Nd2 Ti1 27.54(13) 7_546 7_546 ?
O2 Nd2 Ti1 85.81(12) . 7_546 ?
Se4 Nd2 Ti1 80.25(3) 7_546 7_546 ?
Se4 Nd2 Ti1 120.58(3) 7_556 7_546 ?
Se3 Nd2 Ti1 103.85(3) 7_546 7_546 ?
Se3 Nd2 Ti1 153.38(3) 7_556 7_546 ?
Se6 Nd2 Ti1 44.52(3) 5_656 7_546 ?
Ti1 Nd2 Ti1 112.99(3) . 7_546 ?
Ti1 Nd2 Ti1 63.58(3) 7_556 7_546 ?
O2 Nd2 Nd2 36.55(11) 7_556 1_565 ?
O2 Nd2 Nd2 143.45(11) 7_546 1_565 ?
O2 Nd2 Nd2 90.0 . 1_565 ?
Se4 Nd2 Nd2 130.060(15) 7_546 1_565 ?
Se4 Nd2 Nd2 49.940(15) 7_556 1_565 ?
Se3 Nd2 Nd2 128.419(14) 7_546 1_565 ?
Se3 Nd2 Nd2 51.581(14) 7_556 1_565 ?
Se6 Nd2 Nd2 90.0 5_656 1_565 ?
Ti1 Nd2 Nd2 90.0 . 1_565 ?
Ti1 Nd2 Nd2 58.212(16) 7_556 1_565 ?
Ti1 Nd2 Nd2 121.788(16) 7_546 1_565 ?
O1 Nd3 O1 106.9(2) 3_545 3 ?
O1 Nd3 O3 72.03(15) 3_545 . ?
O1 Nd3 O3 72.03(15) 3 . ?
O1 Nd3 Se2 136.46(14) 3_545 3 ?
O1 Nd3 Se2 74.44(12) 3 3 ?
O3 Nd3 Se2 141.765(16) . 3 ?
O1 Nd3 Se2 74.44(12) 3_545 3_545 ?
O1 Nd3 Se2 136.46(14) 3 3_545 ?
O3 Nd3 Se2 141.765(16) . 3_545 ?
Se2 Nd3 Se2 76.38(3) 3 3_545 ?
O1 Nd3 Se5 71.08(14) 3_545 5_655 ?
O1 Nd3 Se5 71.08(14) 3 5_655 ?
O3 Nd3 Se5 115.85(14) . 5_655 ?
Se2 Nd3 Se5 68.45(3) 3 5_655 ?
Se2 Nd3 Se5 68.45(3) 3_545 5_655 ?
O1 Nd3 Se1 136.78(14) 3_545 3 ?
O1 Nd3 Se1 76.46(13) 3 3 ?
O3 Nd3 Se1 68.25(10) . 3 ?
Se2 Nd3 Se1 86.56(3) 3 3 ?
Se2 Nd3 Se1 132.94(3) 3_545 3 ?
Se5 Nd3 Se1 143.139(13) 5_655 3 ?
O1 Nd3 Se1 76.46(13) 3_545 3_545 ?
O1 Nd3 Se1 136.78(14) 3 3_545 ?
O3 Nd3 Se1 68.25(10) . 3_545 ?
Se2 Nd3 Se1 132.94(3) 3 3_545 ?
Se2 Nd3 Se1 86.56(3) 3_545 3_545 ?
Se5 Nd3 Se1 143.139(13) 5_655 3_545 ?
Se1 Nd3 Se1 73.65(3) 3 3_545 ?
O1 Nd3 Se3 126.57(11) 3_545 5_656 ?
O1 Nd3 Se3 126.57(11) 3 5_656 ?
O3 Nd3 Se3 121.66(14) . 5_656 ?
Se2 Nd3 Se3 67.12(2) 3 5_656 ?
Se2 Nd3 Se3 67.12(2) 3_545 5_656 ?
Se5 Nd3 Se3 122.49(3) 5_655 5_656 ?
Se1 Nd3 Se3 65.83(3) 3 5_656 ?
Se1 Nd3 Se3 65.83(3) 3_545 5_656 ?
O1 Nd3 Ti2 90.27(14) 3_545 3_545 ?
O1 Nd3 Ti2 90.27(14) 3 3_545 ?
O3 Nd3 Ti2 31.64(13) . 3_545 ?
Se2 Nd3 Ti2 133.09(2) 3 3_545 ?
Se2 Nd3 Ti2 133.09(2) 3_545 3_545 ?
Se5 Nd3 Ti2 147.50(2) 5_655 3_545 ?
Se1 Nd3 Ti2 46.549(16) 3 3_545 ?
Se1 Nd3 Ti2 46.549(16) 3_545 3_545 ?
Se3 Nd3 Ti2 90.02(3) 5_656 3_545 ?
O1 Nd3 Ti3 27.86(13) 3_545 3_545 ?
O1 Nd3 Ti3 87.01(12) 3 3_545 ?
O3 Nd3 Ti3 83.25(11) . 3_545 ?
Se2 Nd3 Ti3 112.90(3) 3 3_545 ?
Se2 Nd3 Ti3 75.45(2) 3_545 3_545 ?
Se5 Nd3 Ti3 44.657(17) 5_655 3_545 ?
Se1 Nd3 Ti3 150.23(2) 3 3_545 ?
Se1 Nd3 Ti3 104.32(2) 3_545 3_545 ?
Se3 Nd3 Ti3 141.527(17) 5_656 3_545 ?
Ti2 Nd3 Ti3 110.154(16) 3_545 3_545 ?
O1 Nd3 Ti3 87.01(12) 3_545 3 ?
O1 Nd3 Ti3 27.86(13) 3 3 ?
O3 Nd3 Ti3 83.25(11) . 3 ?
Se2 Nd3 Ti3 75.45(2) 3 3 ?
Se2 Nd3 Ti3 112.90(3) 3_545 3 ?
Se5 Nd3 Ti3 44.657(17) 5_655 3 ?
Se1 Nd3 Ti3 104.32(2) 3 3 ?
Se1 Nd3 Ti3 150.23(2) 3_545 3 ?
Se3 Nd3 Ti3 141.527(17) 5_656 3 ?
Ti2 Nd3 Ti3 110.154(16) 3_545 3 ?
Ti3 Nd3 Ti3 62.378(19) 3_545 3 ?
Se2 Nd4 Se2 83.73(4) 7_545 7 ?
Se2 Nd4 Se4 120.89(3) 7_545 . ?
Se2 Nd4 Se4 120.89(3) 7 . ?
Se2 Nd4 Se6 93.64(3) 7_545 3_445 ?
Se2 Nd4 Se6 155.16(4) 7 3_445 ?
Se4 Nd4 Se6 81.59(3) . 3_445 ?
Se2 Nd4 Se6 155.16(4) 7_545 3_455 ?
Se2 Nd4 Se6 93.64(3) 7 3_455 ?
Se4 Nd4 Se6 81.59(3) . 3_455 ?
Se6 Nd4 Se6 78.45(3) 3_445 3_455 ?
Se2 Nd4 Se5 71.33(3) 7_545 . ?
Se2 Nd4 Se5 71.33(3) 7 . ?
Se4 Nd4 Se5 69.04(4) . . ?
Se6 Nd4 Se5 131.15(3) 3_445 . ?
Se6 Nd4 Se5 131.15(3) 3_455 . ?
Se2 Nd4 Se6 76.83(3) 7_545 5_655 ?
Se2 Nd4 Se6 76.83(3) 7 5_655 ?
Se4 Nd4 Se6 154.22(4) . 5_655 ?
Se6 Nd4 Se6 78.52(3) 3_445 5_655 ?
Se6 Nd4 Se6 78.52(3) 3_455 5_655 ?
Se5 Nd4 Se6 136.74(4) . 5_655 ?
Se2 Nd4 Nd4 131.863(18) 7_545 1_565 ?
Se2 Nd4 Nd4 48.137(18) 7 1_565 ?
Se4 Nd4 Nd4 90.0 . 1_565 ?
Se6 Nd4 Nd4 129.226(16) 3_445 1_565 ?
Se6 Nd4 Nd4 50.774(16) 3_455 1_565 ?
Se5 Nd4 Nd4 90.0 . 1_565 ?
Se6 Nd4 Nd4 90.0 5_655 1_565 ?
Se2 Nd4 Nd4 48.137(18) 7_545 1_545 ?
Se2 Nd4 Nd4 131.863(18) 7 1_545 ?
Se4 Nd4 Nd4 90.0 . 1_545 ?
Se6 Nd4 Nd4 50.774(16) 3_445 1_545 ?
Se6 Nd4 Nd4 129.226(16) 3_455 1_545 ?
Se5 Nd4 Nd4 90.0 . 1_545 ?
Se6 Nd4 Nd4 90.0 5_655 1_545 ?
Nd4 Nd4 Nd4 180.00(4) 1_565 1_545 ?
Ti2 Se1 Ti2 91.69(3) 1_545 . ?
Ti2 Se1 Nd1 76.91(3) 1_545 . ?
Ti2 Se1 Nd1 76.91(3) . . ?
Ti2 Se1 Nd3 73.12(2) 1_545 3_445 ?
Ti2 Se1 Nd3 124.72(3) . 3_445 ?
Nd1 Se1 Nd3 142.940(13) . 3_445 ?
Ti2 Se1 Nd3 124.72(3) 1_545 3_455 ?
Ti2 Se1 Nd3 73.12(2) . 3_455 ?
Nd1 Se1 Nd3 142.940(13) . 3_455 ?
Nd3 Se1 Nd3 73.65(3) 3_445 3_455 ?
Ti1 Se2 Nd4 99.74(4) . 7_545 ?
Ti1 Se2 Nd4 99.74(4) . 7 ?
Nd4 Se2 Nd4 83.73(4) 7_545 7 ?
Ti1 Se2 Nd3 106.86(4) . 3_445 ?
Nd4 Se2 Nd3 93.91(3) 7_545 3_445 ?
Nd4 Se2 Nd3 153.30(4) 7 3_445 ?
Ti1 Se2 Nd3 106.86(4) . 3_455 ?
Nd4 Se2 Nd3 153.30(4) 7_545 3_455 ?
Nd4 Se2 Nd3 93.91(3) 7 3_455 ?
Nd3 Se2 Nd3 76.38(3) 3_445 3_455 ?
Ti1 Se3 Ti1 92.21(6) 7_546 7_556 ?
Ti1 Se3 Nd2 73.02(4) 7_546 7_546 ?
Ti1 Se3 Nd2 127.12(5) 7_556 7_546 ?
Ti1 Se3 Nd2 127.12(5) 7_546 7_556 ?
Ti1 Se3 Nd2 73.02(4) 7_556 7_556 ?
Nd2 Se3 Nd2 76.84(3) 7_546 7_556 ?
Ti1 Se3 Nd3 101.99(4) 7_546 5_656 ?
Ti1 Se3 Nd3 101.99(4) 7_556 5_656 ?
Nd2 Se3 Nd3 130.45(2) 7_546 5_656 ?
Nd2 Se3 Nd3 130.45(2) 7_556 5_656 ?
Nd4 Se4 Nd2 105.88(3) . 7_546 ?
Nd4 Se4 Nd2 105.88(3) . 7_556 ?
Nd2 Se4 Nd2 80.12(3) 7_546 7_556 ?
Nd4 Se4 Nd1 100.96(3) . 7_556 ?
Nd2 Se4 Nd1 153.11(4) 7_546 7_556 ?
Nd2 Se4 Nd1 94.27(2) 7_556 7_556 ?
Nd4 Se4 Nd1 100.96(3) . 7_546 ?
Nd2 Se4 Nd1 94.27(2) 7_546 7_546 ?
Nd2 Se4 Nd1 153.11(4) 7_556 7_546 ?
Nd1 Se4 Nd1 78.85(3) 7_556 7_546 ?
Ti3 Se5 Ti3 92.61(3) 3 3_545 ?
Ti3 Se5 Nd1 71.23(2) 3 7_556 ?
Ti3 Se5 Nd1 124.41(3) 3_545 7_556 ?
Ti3 Se5 Nd1 124.41(3) 3 7_546 ?
Ti3 Se5 Nd1 71.23(2) 3_545 7_546 ?
Nd1 Se5 Nd1 75.65(3) 7_556 7_546 ?
Ti3 Se5 Nd4 131.051(18) 3 . ?
Ti3 Se5 Nd4 131.051(18) 3_545 . ?
Nd1 Se5 Nd4 94.09(3) 7_556 . ?
Nd1 Se5 Nd4 94.09(3) 7_546 . ?
Ti3 Se5 Nd3 78.91(3) 3 5_655 ?
Ti3 Se5 Nd3 78.91(3) 3_545 5_655 ?
Nd1 Se5 Nd3 142.052(14) 7_556 5_655 ?
Nd1 Se5 Nd3 142.052(14) 7_546 5_655 ?
Nd4 Se5 Nd3 88.10(4) . 5_655 ?
Ti1 Se6 Ti1 92.77(6) 3 3_545 ?
Ti1 Se6 Nd4 93.35(3) 3 3 ?
Ti1 Se6 Nd4 166.94(5) 3_545 3 ?
Ti1 Se6 Nd4 166.94(5) 3 3_545 ?
Ti1 Se6 Nd4 93.35(3) 3_545 3_545 ?
Nd4 Se6 Nd4 78.45(3) 3 3_545 ?
Ti1 Se6 Nd4 90.04(4) 3 5_655 ?
Ti1 Se6 Nd4 90.04(4) 3_545 5_655 ?
Nd4 Se6 Nd4 101.48(3) 3 5_655 ?
Nd4 Se6 Nd4 101.48(3) 3_545 5_655 ?
Ti1 Se6 Nd2 74.52(4) 3 5_656 ?
Ti1 Se6 Nd2 74.52(4) 3_545 5_656 ?
Nd4 Se6 Nd2 96.05(3) 3 5_656 ?
Nd4 Se6 Nd2 96.05(3) 3_545 5_656 ?
Nd4 Se6 Nd2 157.30(4) 5_655 5_656 ?
O2 Ti1 Se2 167.9(2) . . ?
O2 Ti1 Se6 95.14(13) . 3_455 ?
Se2 Ti1 Se6 93.19(5) . 3_455 ?
O2 Ti1 Se6 95.14(13) . 3_445 ?
Se2 Ti1 Se6 93.19(5) . 3_445 ?
Se6 Ti1 Se6 92.77(6) 3_455 3_445 ?
O2 Ti1 Se3 88.16(13) . 7_546 ?
Se2 Ti1 Se3 83.47(5) . 7_546 ?
Se6 Ti1 Se3 176.66(7) 3_455 7_546 ?
Se6 Ti1 Se3 87.41(3) 3_445 7_546 ?
O2 Ti1 Se3 88.16(13) . 7_556 ?
Se2 Ti1 Se3 83.47(5) . 7_556 ?
Se6 Ti1 Se3 87.41(3) 3_455 7_556 ?
Se6 Ti1 Se3 176.66(7) 3_445 7_556 ?
Se3 Ti1 Se3 92.21(6) 7_546 7_556 ?
O2 Ti1 Nd2 44.96(18) . . ?
Se2 Ti1 Nd2 122.95(6) . . ?
Se6 Ti1 Nd2 123.14(4) 3_455 . ?
Se6 Ti1 Nd2 123.14(4) 3_445 . ?
Se3 Ti1 Nd2 59.19(4) 7_546 . ?
Se3 Ti1 Nd2 59.19(4) 7_556 . ?
O2 Ti1 Nd2 35.92(8) . 7_556 ?
Se2 Ti1 Nd2 147.774(19) . 7_556 ?
Se6 Ti1 Nd2 60.96(3) 3_455 7_556 ?
Se6 Ti1 Nd2 106.10(5) 3_445 7_556 ?
Se3 Ti1 Nd2 122.17(6) 7_546 7_556 ?
Se3 Ti1 Nd2 76.89(3) 7_556 7_556 ?
Nd2 Ti1 Nd2 67.01(3) . 7_556 ?
O2 Ti1 Nd2 35.92(8) . 7_546 ?
Se2 Ti1 Nd2 147.774(19) . 7_546 ?
Se6 Ti1 Nd2 106.10(5) 3_455 7_546 ?
Se6 Ti1 Nd2 60.96(3) 3_445 7_546 ?
Se3 Ti1 Nd2 76.89(3) 7_546 7_546 ?
Se3 Ti1 Nd2 122.17(6) 7_556 7_546 ?
Nd2 Ti1 Nd2 67.01(3) . 7_546 ?
Nd2 Ti1 Nd2 63.58(3) 7_556 7_546 ?
O3 Ti2 O3 180.0 7_556 3_455 ?
O3 Ti2 Se1 88.55(12) 7_556 5_556 ?
O3 Ti2 Se1 91.45(12) 3_455 5_556 ?
O3 Ti2 Se1 91.45(12) 7_556 1_565 ?
O3 Ti2 Se1 88.55(12) 3_455 1_565 ?
Se1 Ti2 Se1 180.00(4) 5_556 1_565 ?
O3 Ti2 Se1 88.55(12) 7_556 5_566 ?
O3 Ti2 Se1 91.45(12) 3_455 5_566 ?
Se1 Ti2 Se1 91.69(3) 5_556 5_566 ?
Se1 Ti2 Se1 88.31(3) 1_565 5_566 ?
O3 Ti2 Se1 91.45(12) 7_556 . ?
O3 Ti2 Se1 88.55(12) 3_455 . ?
Se1 Ti2 Se1 88.31(3) 5_556 . ?
Se1 Ti2 Se1 91.69(3) 1_565 . ?
Se1 Ti2 Se1 180.00(4) 5_566 . ?
O3 Ti2 Nd3 136.82(17) 7_556 3_455 ?
O3 Ti2 Nd3 43.18(17) 3_455 3_455 ?
Se1 Ti2 Nd3 119.66(2) 5_556 3_455 ?
Se1 Ti2 Nd3 60.34(2) 1_565 3_455 ?
Se1 Ti2 Nd3 119.66(2) 5_566 3_455 ?
Se1 Ti2 Nd3 60.34(2) . 3_455 ?
O3 Ti2 Nd3 43.18(17) 7_556 7_556 ?
O3 Ti2 Nd3 136.82(17) 3_455 7_556 ?
Se1 Ti2 Nd3 60.34(2) 5_556 7_556 ?
Se1 Ti2 Nd3 119.66(2) 1_565 7_556 ?
Se1 Ti2 Nd3 60.34(2) 5_566 7_556 ?
Se1 Ti2 Nd3 119.66(2) . 7_556 ?
Nd3 Ti2 Nd3 180.000(12) 3_455 7_556 ?
O3 Ti2 Nd1 143.06(8) 7_556 5_556 ?
O3 Ti2 Nd1 36.94(8) 3_455 5_556 ?
Se1 Ti2 Nd1 56.39(2) 5_556 5_556 ?
Se1 Ti2 Nd1 123.61(2) 1_565 5_556 ?
Se1 Ti2 Nd1 102.46(3) 5_566 5_556 ?
Se1 Ti2 Nd1 77.54(3) . 5_556 ?
Nd3 Ti2 Nd1 66.620(15) 3_455 5_556 ?
Nd3 Ti2 Nd1 113.380(15) 7_556 5_556 ?
O3 Ti2 Nd1 36.94(8) 7_556 1_565 ?
O3 Ti2 Nd1 143.06(8) 3_455 1_565 ?
Se1 Ti2 Nd1 123.61(2) 5_556 1_565 ?
Se1 Ti2 Nd1 56.39(2) 1_565 1_565 ?
Se1 Ti2 Nd1 77.54(3) 5_566 1_565 ?
Se1 Ti2 Nd1 102.46(3) . 1_565 ?
Nd3 Ti2 Nd1 113.380(15) 3_455 1_565 ?
Nd3 Ti2 Nd1 66.620(15) 7_556 1_565 ?
Nd1 Ti2 Nd1 180.0 5_556 1_565 ?
O3 Ti2 Nd1 36.94(8) 7_556 . ?
O3 Ti2 Nd1 143.06(8) 3_455 . ?
Se1 Ti2 Nd1 77.54(3) 5_556 . ?
Se1 Ti2 Nd1 102.46(3) 1_565 . ?
Se1 Ti2 Nd1 123.61(2) 5_566 . ?
Se1 Ti2 Nd1 56.39(2) . . ?
Nd3 Ti2 Nd1 113.380(15) 3_455 . ?
Nd3 Ti2 Nd1 66.620(15) 7_556 . ?
Nd1 Ti2 Nd1 115.17(2) 5_556 . ?
Nd1 Ti2 Nd1 64.83(2) 1_565 . ?
O3 Ti2 Nd1 143.06(8) 7_556 5_566 ?
O3 Ti2 Nd1 36.94(8) 3_455 5_566 ?
Se1 Ti2 Nd1 102.46(3) 5_556 5_566 ?
Se1 Ti2 Nd1 77.54(3) 1_565 5_566 ?
Se1 Ti2 Nd1 56.39(2) 5_566 5_566 ?
Se1 Ti2 Nd1 123.61(2) . 5_566 ?
Nd3 Ti2 Nd1 66.620(15) 3_455 5_566 ?
Nd3 Ti2 Nd1 113.380(15) 7_556 5_566 ?
Nd1 Ti2 Nd1 64.83(2) 5_556 5_566 ?
Nd1 Ti2 Nd1 115.17(2) 1_565 5_566 ?
Nd1 Ti2 Nd1 180.0 . 5_566 ?
O1 Ti3 O1 180.0(3) . 5 ?
O1 Ti3 Se5 89.48(11) . 7 ?
O1 Ti3 Se5 90.52(11) 5 7 ?
O1 Ti3 Se5 90.52(11) . 3_445 ?
O1 Ti3 Se5 89.48(11) 5 3_445 ?
Se5 Ti3 Se5 180.00(4) 7 3_445 ?
O1 Ti3 Se5 89.48(11) . 7_545 ?
O1 Ti3 Se5 90.52(11) 5 7_545 ?
Se5 Ti3 Se5 92.61(3) 7 7_545 ?
Se5 Ti3 Se5 87.39(3) 3_445 7_545 ?
O1 Ti3 Se5 90.52(11) . 3_455 ?
O1 Ti3 Se5 89.48(11) 5 3_455 ?
Se5 Ti3 Se5 87.39(3) 7 3_455 ?
Se5 Ti3 Se5 92.61(3) 3_445 3_455 ?
Se5 Ti3 Se5 180.00(4) 7_545 3_455 ?
O1 Ti3 Nd1 134.53(16) . 1_554 ?
O1 Ti3 Nd1 45.47(16) 5 1_554 ?
Se5 Ti3 Nd1 60.92(2) 7 1_554 ?
Se5 Ti3 Nd1 119.08(2) 3_445 1_554 ?
Se5 Ti3 Nd1 60.92(2) 7_545 1_554 ?
Se5 Ti3 Nd1 119.08(2) 3_455 1_554 ?
O1 Ti3 Nd1 45.47(16) . 5_556 ?
O1 Ti3 Nd1 134.53(16) 5 5_556 ?
Se5 Ti3 Nd1 119.08(2) 7 5_556 ?
Se5 Ti3 Nd1 60.92(2) 3_445 5_556 ?
Se5 Ti3 Nd1 119.08(2) 7_545 5_556 ?
Se5 Ti3 Nd1 60.92(2) 3_455 5_556 ?
Nd1 Ti3 Nd1 180.000(13) 1_554 5_556 ?
O1 Ti3 Nd3 35.03(7) . 3_455 ?
O1 Ti3 Nd3 144.97(7) 5 3_455 ?
Se5 Ti3 Nd3 56.43(2) 7 3_455 ?
Se5 Ti3 Nd3 123.57(2) 3_445 3_455 ?
Se5 Ti3 Nd3 101.30(2) 7_545 3_455 ?
Se5 Ti3 Nd3 78.70(2) 3_455 3_455 ?
Nd1 Ti3 Nd3 113.442(16) 1_554 3_455 ?
Nd1 Ti3 Nd3 66.558(16) 5_556 3_455 ?
O1 Ti3 Nd3 144.97(7) . 7_545 ?
O1 Ti3 Nd3 35.03(7) 5 7_545 ?
Se5 Ti3 Nd3 123.57(2) 7 7_545 ?
Se5 Ti3 Nd3 56.43(2) 3_445 7_545 ?
Se5 Ti3 Nd3 78.70(2) 7_545 7_545 ?
Se5 Ti3 Nd3 101.30(2) 3_455 7_545 ?
Nd1 Ti3 Nd3 66.558(16) 1_554 7_545 ?
Nd1 Ti3 Nd3 113.442(16) 5_556 7_545 ?
Nd3 Ti3 Nd3 180.000(15) 3_455 7_545 ?
O1 Ti3 Nd3 144.97(7) . 7 ?
O1 Ti3 Nd3 35.03(7) 5 7 ?
Se5 Ti3 Nd3 78.70(2) 7 7 ?
Se5 Ti3 Nd3 101.30(2) 3_445 7 ?
Se5 Ti3 Nd3 123.57(2) 7_545 7 ?
Se5 Ti3 Nd3 56.43(2) 3_455 7 ?
Nd1 Ti3 Nd3 66.558(16) 1_554 7 ?
Nd1 Ti3 Nd3 113.442(16) 5_556 7 ?
Nd3 Ti3 Nd3 117.622(19) 3_455 7 ?
Nd3 Ti3 Nd3 62.378(19) 7_545 7 ?
O1 Ti3 Nd3 35.03(7) . 3_445 ?
O1 Ti3 Nd3 144.97(7) 5 3_445 ?
Se5 Ti3 Nd3 101.30(2) 7 3_445 ?
Se5 Ti3 Nd3 78.70(2) 3_445 3_445 ?
Se5 Ti3 Nd3 56.43(2) 7_545 3_445 ?
Se5 Ti3 Nd3 123.57(2) 3_455 3_445 ?
Nd1 Ti3 Nd3 113.442(16) 1_554 3_445 ?
Nd1 Ti3 Nd3 66.558(16) 5_556 3_445 ?
Nd3 Ti3 Nd3 62.378(19) 3_455 3_445 ?
Nd3 Ti3 Nd3 117.622(19) 7_545 3_445 ?
Nd3 Ti3 Nd3 180.000(15) 7 3_445 ?
Ti3 O1 Nd3 117.11(17) . 3_455 ?
Ti3 O1 Nd3 117.11(17) . 3_445 ?
Nd3 O1 Nd3 106.9(2) 3_455 3_445 ?
Ti3 O1 Nd1 100.1(2) . 5_556 ?
Nd3 O1 Nd1 107.32(17) 3_455 5_556 ?
Nd3 O1 Nd1 107.32(17) 3_445 5_556 ?
Ti1 O2 Nd2 116.53(17) . 7_556 ?
Ti1 O2 Nd2 116.53(17) . 7_546 ?
Nd2 O2 Nd2 106.9(2) 7_556 7_546 ?
Ti1 O2 Nd2 102.8(2) . . ?
Nd2 O2 Nd2 106.59(16) 7_556 . ?
Nd2 O2 Nd2 106.59(16) 7_546 . ?
Ti2 O3 Nd1 113.70(17) 3_545 7_546 ?
Ti2 O3 Nd1 113.70(17) 3_545 7_556 ?
Nd1 O3 Nd1 109.5(2) 7_546 7_556 ?
Ti2 O3 Nd3 105.2(2) 3_545 . ?
Nd1 O3 Nd3 107.12(16) 7_546 . ?
Nd1 O3 Nd3 107.12(16) 7_556 . ?
loop_
_geom_bond_atom_site_label_1
_geom_bond_atom_site_label_2
_geom_bond_distance
_geom_bond_site_symmetry_2
_geom_bond_publ_flag
Nd1 O3 2.341(3) 7_546 ?
Nd1 O3 2.341(3) 7_556 ?
Nd1 O1 2.445(6) 5_556 ?
Nd1 Se4 3.0102(8) 7_556 ?
Nd1 Se4 3.0102(8) 7_546 ?
Nd1 Se1 3.0493(11) . ?
Nd1 Se5 3.1170(9) 7_556 ?
Nd1 Se5 3.1170(9) 7_546 ?
Nd1 Ti3 3.3769(10) 1_556 ?
Nd1 Ti2 3.5660(8) 1_545 ?
Nd1 Ti2 3.5660(8) . ?
Nd1 Nd1 3.8232(8) 1_545 ?
Nd2 O2 2.380(3) 7_556 ?
Nd2 O2 2.380(3) 7_546 ?
Nd2 O2 2.482(6) . ?
Nd2 Se4 2.9702(9) 7_546 ?
Nd2 Se4 2.9702(9) 7_556 ?
Nd2 Se3 3.0763(9) 7_546 ?
Nd2 Se3 3.0763(9) 7_556 ?
Nd2 Se6 3.2919(13) 5_656 ?
Nd2 Ti1 3.4254(18) . ?
Nd2 Ti1 3.6288(16) 7_556 ?
Nd2 Ti1 3.6288(16) 7_546 ?
Nd2 Nd2 3.8232(8) 1_565 ?
Nd3 O1 2.380(3) 3_545 ?
Nd3 O1 2.380(3) 3 ?
Nd3 O3 2.490(6) . ?
Nd3 Se2 3.0919(10) 3 ?
Nd3 Se2 3.0919(9) 3_545 ?
Nd3 Se5 3.1343(11) 5_655 ?
Nd3 Se1 3.1893(9) 3 ?
Nd3 Se1 3.1893(9) 3_545 ?
Nd3 Se3 3.1934(13) 5_656 ?
Nd3 Ti2 3.5121(11) 3_545 ?
Nd3 Ti3 3.6913(9) 3_545 ?
Nd3 Ti3 3.6913(9) 3 ?
Nd4 Se2 2.8644(10) 7_545 ?
Nd4 Se2 2.8644(10) 7 ?
Nd4 Se4 2.9169(13) . ?
Nd4 Se6 3.0229(10) 3_445 ?
Nd4 Se6 3.0229(10) 3_455 ?
Nd4 Se5 3.1305(13) . ?
Nd4 Se6 3.2091(15) 5_655 ?
Nd4 Nd4 3.8232(8) 1_565 ?
Nd4 Nd4 3.8232(8) 1_545 ?
Se1 Ti2 2.6645(7) 1_545 ?
Se1 Ti2 2.6645(7) . ?
Se1 Nd3 3.1893(9) 3_445 ?
Se1 Nd3 3.1893(9) 3_455 ?
Se2 Ti1 2.5671(19) . ?
Se2 Nd4 2.8644(10) 7_545 ?
Se2 Nd4 2.8644(10) 7 ?
Se2 Nd3 3.0918(9) 3_445 ?
Se2 Nd3 3.0918(9) 3_455 ?
Se3 Ti1 2.6527(13) 7_546 ?
Se3 Ti1 2.6527(13) 7_556 ?
Se3 Nd2 3.0763(9) 7_546 ?
Se3 Nd2 3.0763(9) 7_556 ?
Se3 Nd3 3.1934(13) 5_656 ?
Se4 Nd2 2.9702(9) 7_546 ?
Se4 Nd2 2.9702(9) 7_556 ?
Se4 Nd1 3.0102(8) 7_556 ?
Se4 Nd1 3.0102(8) 7_546 ?
Se5 Ti3 2.6438(7) 3 ?
Se5 Ti3 2.6438(7) 3_545 ?
Se5 Nd1 3.1170(9) 7_556 ?
Se5 Nd1 3.1170(9) 7_546 ?
Se5 Nd3 3.1343(11) 5_655 ?
Se6 Ti1 2.6403(13) 3 ?
Se6 Ti1 2.6403(13) 3_545 ?
Se6 Nd4 3.0229(10) 3 ?
Se6 Nd4 3.0229(10) 3_545 ?
Se6 Nd4 3.2091(15) 5_655 ?
Se6 Nd2 3.2919(13) 5_656 ?
Ti1 O2 1.876(6) . ?
Ti1 Se6 2.6403(13) 3_455 ?
Ti1 Se6 2.6403(13) 3_445 ?
Ti1 Se3 2.6527(13) 7_546 ?
Ti1 Se3 2.6527(13) 7_556 ?
Ti1 Nd2 3.6288(16) 7_556 ?
Ti1 Nd2 3.6288(16) 7_546 ?
Ti2 O3 1.909(6) 7_556 ?
Ti2 O3 1.909(6) 3_455 ?
Ti2 Se1 2.6645(7) 5_556 ?
Ti2 Se1 2.6645(7) 1_565 ?
Ti2 Se1 2.6645(7) 5_566 ?
Ti2 Nd3 3.5121(11) 3_455 ?
Ti2 Nd3 3.5121(11) 7_556 ?
Ti2 Nd1 3.5660(8) 5_556 ?
Ti2 Nd1 3.5660(8) 1_565 ?
Ti2 Nd1 3.5660(8) 5_566 ?
Ti3 O1 1.938(6) . ?
Ti3 O1 1.938(6) 5 ?
Ti3 Se5 2.6438(7) 7 ?
Ti3 Se5 2.6438(7) 3_445 ?
Ti3 Se5 2.6438(7) 7_545 ?
Ti3 Se5 2.6438(7) 3_455 ?
Ti3 Nd1 3.3769(10) 1_554 ?
Ti3 Nd1 3.3769(10) 5_556 ?
Ti3 Nd3 3.6913(9) 3_455 ?
Ti3 Nd3 3.6913(9) 7_545 ?
Ti3 Nd3 3.6913(9) 7 ?
Ti3 Nd3 3.6913(9) 3_445 ?
O1 Nd3 2.380(3) 3_455 ?
O1 Nd3 2.380(3) 3_445 ?
O1 Nd1 2.445(6) 5_556 ?
O2 Nd2 2.380(3) 7_556 ?
O2 Nd2 2.380(3) 7_546 ?
O3 Ti2 1.909(6) 3_545 ?
O3 Nd1 2.341(3) 7_546 ?
O3 Nd1 2.341(3) 7_556 ?
