#------------------------------------------------------------------------------
#$Date: 2016-02-16 22:30:59 +0200 (Tue, 16 Feb 2016) $
#$Revision: 176467 $
#$URL: svn://www.crystallography.net/cod/cif/4/00/01/4000176.cif $
#------------------------------------------------------------------------------
#
# This file is available in the Crystallography Open Database (COD),
# http://www.crystallography.net/
#
# All data on this site have been placed in the public domain by the
# contributors.
#
data_4000176
_journal_name_full               'Chemistry of Materials'
_journal_paper_doi               10.1021/cm020066o
_journal_year                    2002
_chemical_formula_sum            'Ga4.4 Ge0.6 Ho0.66 Ni2'
_chemical_formula_weight         577.42
_space_group_IT_number           194
_symmetry_cell_setting           hexagonal
_symmetry_space_group_name_Hall  '-P 6c 2c'
_symmetry_space_group_name_H-M   'P 63/m m c'
_atom_sites_solution_hydrogens   geom
_atom_sites_solution_primary     direct
_atom_sites_solution_secondary   difmap
_cell_angle_alpha                90.00
_cell_angle_beta                 90.00
_cell_angle_gamma                120.00
_cell_formula_units_Z            2
_cell_length_a                   4.1491(4)
_cell_length_b                   4.1491(4)
_cell_length_c                   15.877(2)
_cell_measurement_temperature    571(2)
_cell_volume                     236.71(5)
_diffrn_ambient_temperature      571(2)
_diffrn_radiation_monochromator  graphite
_diffrn_radiation_source         'fine-focus sealed tube'
_diffrn_radiation_type           MoK\a
_diffrn_radiation_wavelength     0.71073
_diffrn_reflns_av_R_equivalents  0.0524
_diffrn_reflns_av_sigmaI/netI    0.0205
_diffrn_reflns_limit_h_max       6
_diffrn_reflns_limit_h_min       -4
_diffrn_reflns_limit_k_max       3
_diffrn_reflns_limit_k_min       -6
_diffrn_reflns_limit_l_max       23
_diffrn_reflns_limit_l_min       -22
_diffrn_reflns_number            1641
_diffrn_reflns_theta_max         32.55
_diffrn_reflns_theta_min         6.87
_exptl_absorpt_coefficient_mu    46.957
_exptl_crystal_density_diffrn    8.101
_exptl_crystal_density_method    'not measured'
_exptl_crystal_F_000             512
_refine_ls_extinction_coef       0.057(6)
_refine_ls_extinction_expression Fc^*^=kFc[1+0.001xFc^2^\l^3^/sin(2\q)]^-1/4^
_refine_ls_extinction_method     SHELXL
_refine_ls_goodness_of_fit_ref   1.317
_refine_ls_hydrogen_treatment    mixed
_refine_ls_matrix_type           full
_refine_ls_number_parameters     19
_refine_ls_number_reflns         199
_refine_ls_number_restraints     1
_refine_ls_restrained_S_all      1.313
_refine_ls_R_factor_all          0.0338
_refine_ls_R_factor_gt           0.0332
_refine_ls_shift/su_max          0.027
_refine_ls_shift/su_mean         0.006
_refine_ls_structure_factor_coef Fsqd
_refine_ls_weighting_details
'calc w=1/[\s^2^(Fo^2^)+(0.0480P)^2^+1.3371P] where P=(Fo^2^+2Fc^2^)/3'
_refine_ls_weighting_scheme      calc
_refine_ls_wR_factor_gt          0.0846
_refine_ls_wR_factor_ref         0.0849
_reflns_number_gt                193
_reflns_number_total             199
_reflns_threshold_expression     >2sigma(I)
_cod_original_sg_symbol_H-M      P?
_cod_original_formula_sum        'Ga4.40 Ge0.60 Ho0.66 Ni2'
_cod_database_code               4000176
loop_
_symmetry_equiv_pos_as_xyz
'x, y, z'
'-y, x-y, z'
'-x+y, -x, z'
'-x, -y, z+1/2'
'y, -x+y, z+1/2'
'x-y, x, z+1/2'
'y, x, -z'
'x-y, -y, -z'
'-x, -x+y, -z'
'-y, -x, -z+1/2'
'-x+y, y, -z+1/2'
'x, x-y, -z+1/2'
'-x, -y, -z'
'y, -x+y, -z'
'x-y, x, -z'
'x, y, -z-1/2'
'-y, x-y, -z-1/2'
'-x+y, -x, -z-1/2'
'-y, -x, z'
'-x+y, y, z'
'x, x-y, z'
'y, x, z-1/2'
'x-y, -y, z-1/2'
'-x, -x+y, z-1/2'
loop_
_atom_site_label
_atom_site_type_symbol
_atom_site_fract_x
_atom_site_fract_y
_atom_site_fract_z
_atom_site_U_iso_or_equiv
_atom_site_adp_type
_atom_site_occupancy
_atom_site_symmetry_multiplicity
_atom_site_calc_flag
_atom_site_refinement_flags
_atom_site_disorder_assembly
_atom_site_disorder_group
Ho1 Ho 0.3333 0.6667 0.2500 0.0071(4) Uani 0.67 12 d SP . .
M1 Ga 0.5393(4) 0.0786(8) 0.2500 0.0104(6) Uani 0.33 4 d SP . .
M2 Ga 0.0000 0.0000 0.13424(8) 0.0087(4) Uani 0.73(15) 6 d SP . .
M20 Ge 0.0000 0.0000 0.13424(8) 0.0087(4) Uani 0.27(14) 6 d SP . .
Ga1 Ga 0.3333 0.6667 0.04586(8) 0.0075(4) Uani 1 6 d S . .
Ni1 Ni 0.3333 0.6667 0.60908(9) 0.0070(4) Uani 1 6 d S . .
loop_
_atom_site_aniso_label
_atom_site_aniso_U_11
_atom_site_aniso_U_22
_atom_site_aniso_U_33
_atom_site_aniso_U_23
_atom_site_aniso_U_13
_atom_site_aniso_U_12
Ho1 0.0078(4) 0.0078(4) 0.0057(5) 0.000 0.000 0.0039(2)
M1 0.0141(9) 0.0130(13) 0.0037(9) 0.000 0.000 0.0065(6)
M2 0.0082(5) 0.0082(5) 0.0097(6) 0.000 0.000 0.0041(2)
M20 0.0082(5) 0.0082(5) 0.0097(6) 0.000 0.000 0.0041(2)
Ga1 0.0090(5) 0.0090(5) 0.0047(6) 0.000 0.000 0.0045(2)
Ni1 0.0075(5) 0.0075(5) 0.0060(6) 0.000 0.000 0.0038(2)
