#------------------------------------------------------------------------------
#$Date: 2016-03-21 01:21:50 +0200 (Mon, 21 Mar 2016) $
#$Revision: 178377 $
#$URL: svn://www.crystallography.net/cod/cif/4/00/07/4000798.cif $
#------------------------------------------------------------------------------
#
# This file is available in the Crystallography Open Database (COD),
# http://www.crystallography.net/
#
# All data on this site have been placed in the public domain by the
# contributors.
#
data_4000798
loop_
_publ_author_name
'Meng, Chang-Yu'
'Chen, Hong'
'Wang, Peng'
'Chen, Ling'
_publ_section_title
;
 Syntheses, Structures, and Magnetic and Thermoelectric Properties of
 Double-Tunnel Tellurides: AxRE2Cu6--xTe6(A = K--Cs; RE = La--Nd)
;
_journal_issue                   22
_journal_name_full               'Chemistry of Materials'
_journal_page_first              4910
_journal_paper_doi               10.1021/cm201574a
_journal_volume                  23
_journal_year                    2011
_chemical_formula_sum            'Ce0.67 Cu1.76 Rb0.24 Te2'
_chemical_formula_weight         480.88
_chemical_name_systematic
; 
 ? 
;
_space_group_IT_number           176
_symmetry_cell_setting           hexagonal
_symmetry_space_group_name_Hall  '-P 6c'
_symmetry_space_group_name_H-M   'P 63/m'
_atom_sites_solution_primary     direct
_atom_sites_solution_secondary   difmap
_audit_creation_method           SHELXL-97
_cell_angle_alpha                90.00
_cell_angle_beta                 90.00
_cell_angle_gamma                120.00
_cell_formula_units_Z            3
_cell_length_a                   10.0014(8)
_cell_length_b                   10.0014(8)
_cell_length_c                   4.1976(6)
_cell_measurement_reflns_used    493
_cell_measurement_temperature    293(2)
_cell_measurement_theta_max      27.4256
_cell_measurement_theta_min      2.3513
_cell_volume                     363.62(7)
_computing_cell_refinement       'CrystalClear (Rigaku Inc., 2007)'
_computing_data_collection       'CrystalClear (Rigaku Inc., 2007)'
_computing_data_reduction        'CrystalClear (Rigaku Inc., 2007)'
_computing_molecular_graphics    'Bruker SHELXTL'
_computing_publication_material  'Bruker SHELXTL'
_computing_structure_refinement  'SHELXL-97 (Sheldrick, 1997)'
_computing_structure_solution    'SHELXS-97 (Sheldrick, 1990)'
_diffrn_ambient_temperature      293(2)
_diffrn_detector_area_resol_mean 13.6612
_diffrn_measured_fraction_theta_full 0.997
_diffrn_measured_fraction_theta_max 0.997
_diffrn_measurement_device_type  SCXMini
_diffrn_measurement_method       CCD_Profile_fitting
_diffrn_radiation_monochromator  graphite
_diffrn_radiation_source         'fine-focus sealed tube'
_diffrn_radiation_type           MoK\a
_diffrn_radiation_wavelength     0.71073
_diffrn_reflns_av_R_equivalents  0.0265
_diffrn_reflns_av_sigmaI/netI    0.0136
_diffrn_reflns_limit_h_max       13
_diffrn_reflns_limit_h_min       -9
_diffrn_reflns_limit_k_max       11
_diffrn_reflns_limit_k_min       -13
_diffrn_reflns_limit_l_max       5
_diffrn_reflns_limit_l_min       -5
_diffrn_reflns_number            2866
_diffrn_reflns_theta_full        27.59
_diffrn_reflns_theta_max         27.59
_diffrn_reflns_theta_min         2.35
_exptl_absorpt_coefficient_mu    27.818
_exptl_absorpt_correction_T_max  1.0000
_exptl_absorpt_correction_T_min  0.5772
_exptl_absorpt_correction_type   multi-scan
_exptl_crystal_colour            gray
_exptl_crystal_density_diffrn    6.588
_exptl_crystal_density_method    'not measured'
_exptl_crystal_description       rod
_exptl_crystal_F_000             608
_exptl_crystal_size_max          0.15
_exptl_crystal_size_mid          0.12
_exptl_crystal_size_min          0.09
_refine_diff_density_max         1.720
_refine_diff_density_min         -1.540
_refine_diff_density_rms         0.201
_refine_ls_extinction_coef       0.0057(5)
_refine_ls_extinction_expression Fc^*^=kFc[1+0.001xFc^2^\l^3^/sin(2\q)]^-1/4^
_refine_ls_extinction_method     SHELXL
_refine_ls_goodness_of_fit_ref   1.311
_refine_ls_matrix_type           full
_refine_ls_number_parameters     23
_refine_ls_number_reflns         318
_refine_ls_number_restraints     13
_refine_ls_restrained_S_all      1.419
_refine_ls_R_factor_all          0.0198
_refine_ls_R_factor_gt           0.0190
_refine_ls_shift/su_max          0.000
_refine_ls_shift/su_mean         0.000
_refine_ls_structure_factor_coef Fsqd
_refine_ls_weighting_details
'calc w=1/[\s^2^(Fo^2^)+(0.0115P)^2^+2.3308P] where P=(Fo^2^+2Fc^2^)/3'
_refine_ls_weighting_scheme      calc
_refine_ls_wR_factor_gt          0.0414
_refine_ls_wR_factor_ref         0.0417
_reflns_number_gt                312
_reflns_number_total             318
_reflns_threshold_expression     >2sigma(I)
_cod_data_source_file            cm201574a_si_001.cif
_cod_data_source_block           Rb0.71Ce2Cu5.29Te6
_cod_depositor_comments
;
The following automatic conversions were performed:

'_symmetry_cell_setting' value 'Hexagonal' changed to 'hexagonal'
according to /home/saulius/struct/CIF-dictionaries/cif_core.dic
dictionary named 'cif_core.dic' version 2.4.1 from
2010-06-29.

'_exptl_absorpt_correction_type' value 'Multi-scan'
changed to 'multi-scan' according to
/home/saulius/struct/CIF-dictionaries/cif_core.dic dictionary named
'cif_core.dic' version 2.4.1 from 2010-06-29.

Automatic conversion script
Id: cif_fix_values 1715 2011-07-08 13:25:40Z adriana 
;
_cod_original_sg_symbol_H-M      P6(3)/m
_cod_database_code               4000798
loop_
_symmetry_equiv_pos_as_xyz
'x, y, z'
'-y, x-y, z'
'-x+y, -x, z'
'-x, -y, z+1/2'
'y, -x+y, z+1/2'
'x-y, x, z+1/2'
'-x, -y, -z'
'y, -x+y, -z'
'x-y, x, -z'
'x, y, -z-1/2'
'-y, x-y, -z-1/2'
'-x+y, -x, -z-1/2'
loop_
_atom_site_label
_atom_site_type_symbol
_atom_site_fract_x
_atom_site_fract_y
_atom_site_fract_z
_atom_site_U_iso_or_equiv
_atom_site_adp_type
_atom_site_occupancy
_atom_site_symmetry_multiplicity
_atom_site_calc_flag
_atom_site_refinement_flags
Rb1 Rb 0.0000 0.0000 0.2500 0.053(5) Uani 0.191(11) 6 d SPU
Rb2 Rb 0.0000 0.0000 0.0000 0.053(5) Uani 0.162(12) 6 d SPU
Ce Ce 0.6667 0.3333 0.2500 0.0133(2) Uani 1 6 d S
Cu Cu 0.03419(12) 0.43370(13) 0.2500 0.0187(3) Uani 0.882(2) 2 d SP
Te Te 0.27287(5) 0.39107(6) 0.2500 0.01421(19) Uani 1 2 d S
loop_
_atom_site_aniso_label
_atom_site_aniso_U_11
_atom_site_aniso_U_22
_atom_site_aniso_U_33
_atom_site_aniso_U_23
_atom_site_aniso_U_13
_atom_site_aniso_U_12
Rb1 0.028(4) 0.028(4) 0.103(11) 0.000 0.000 0.0139(18)
Rb2 0.031(4) 0.031(4) 0.098(12) 0.000 0.000 0.015(2)
Ce 0.0160(3) 0.0160(3) 0.0078(3) 0.000 0.000 0.00800(13)
Cu 0.0176(6) 0.0198(6) 0.0157(5) 0.000 0.000 0.0071(4)
Te 0.0159(3) 0.0175(3) 0.0112(3) 0.000 0.000 0.0098(2)
loop_
_atom_type_symbol
_atom_type_description
_atom_type_scat_dispersion_real
_atom_type_scat_dispersion_imag
_atom_type_scat_source
Cu Cu 0.3201 1.2651 'International Tables Vol C Tables 4.2.6.8 and 6.1.1.4'
Rb Rb -0.9393 2.9676 'International Tables Vol C Tables 4.2.6.8 and 6.1.1.4'
Te Te -0.5308 1.6751 'International Tables Vol C Tables 4.2.6.8 and 6.1.1.4'
Ce Ce -0.2486 2.6331 'International Tables Vol C Tables 4.2.6.8 and 6.1.1.4'
loop_
_geom_angle_atom_site_label_1
_geom_angle_atom_site_label_2
_geom_angle_atom_site_label_3
_geom_angle
_geom_angle_site_symmetry_1
_geom_angle_site_symmetry_3
Rb2 Rb1 Rb2 180.0 4 .
Rb2 Rb1 Rb1 0.0 4 7_556
Rb2 Rb1 Rb1 180.0 . 7_556
Rb2 Rb1 Rb1 180.0 4 7
Rb2 Rb1 Rb1 0.0 . 7
Rb1 Rb1 Rb1 180.0 7_556 7
Rb2 Rb1 Rb2 180.0 4 4_554
Rb2 Rb1 Rb2 0.0 . 4_554
Rb1 Rb1 Rb2 180.0 7_556 4_554
Rb1 Rb1 Rb2 0.0 7 4_554
Rb2 Rb1 Rb2 0.0 4 1_556
Rb2 Rb1 Rb2 180.0 . 1_556
Rb1 Rb1 Rb2 0.0 7_556 1_556
Rb1 Rb1 Rb2 180.0 7 1_556
Rb2 Rb1 Rb2 180.0 4_554 1_556
Rb2 Rb1 Te 90.0 4 2
Rb2 Rb1 Te 90.0 . 2
Rb1 Rb1 Te 90.0 7_556 2
Rb1 Rb1 Te 90.0 7 2
Rb2 Rb1 Te 90.0 4_554 2
Rb2 Rb1 Te 90.0 1_556 2
Rb2 Rb1 Te 90.0 4 .
Rb2 Rb1 Te 90.0 . .
Rb1 Rb1 Te 90.0 7_556 .
Rb1 Rb1 Te 90.0 7 .
Rb2 Rb1 Te 90.0 4_554 .
Rb2 Rb1 Te 90.0 1_556 .
Te Rb1 Te 120.0 2 .
Rb2 Rb1 Te 90.0 4 3
Rb2 Rb1 Te 90.0 . 3
Rb1 Rb1 Te 90.0 7_556 3
Rb1 Rb1 Te 90.0 7 3
Rb2 Rb1 Te 90.0 4_554 3
Rb2 Rb1 Te 90.0 1_556 3
Te Rb1 Te 120.0 2 3
Te Rb1 Te 120.0 . 3
Rb2 Rb1 Te 121.135(6) 4 7
Rb2 Rb1 Te 58.865(5) . 7
Rb1 Rb1 Te 121.135(5) 7_556 7
Rb1 Rb1 Te 58.865(5) 7 7
Rb2 Rb1 Te 58.865(5) 4_554 7
Rb2 Rb1 Te 121.135(5) 1_556 7
Te Rb1 Te 64.661(2) 2 7
Te Rb1 Te 148.865(6) . 7
Te Rb1 Te 64.661(2) 3 7
Rb2 Rb1 Te 58.865(5) 4 8_556
Rb2 Rb1 Te 121.135(5) . 8_556
Rb1 Rb1 Te 58.865(5) 7_556 8_556
Rb1 Rb1 Te 121.135(5) 7 8_556
Rb2 Rb1 Te 121.135(5) 4_554 8_556
Rb2 Rb1 Te 58.865(5) 1_556 8_556
Te Rb1 Te 148.865(5) 2 8_556
Te Rb1 Te 64.661(2) . 8_556
Te Rb1 Te 64.661(2) 3 8_556
Te Rb1 Te 129.322(3) 7 8_556
Rb2 Rb1 Te 58.865(5) 4 7_556
Rb2 Rb1 Te 121.135(5) . 7_556
Rb1 Rb1 Te 58.865(5) 7_556 7_556
Rb1 Rb1 Te 121.135(5) 7 7_556
Rb2 Rb1 Te 121.135(5) 4_554 7_556
Rb2 Rb1 Te 58.865(5) 1_556 7_556
Te Rb1 Te 64.661(2) 2 7_556
Te Rb1 Te 148.865(5) . 7_556
Te Rb1 Te 64.661(2) 3 7_556
Te Rb1 Te 62.270(11) 7 7_556
Te Rb1 Te 95.680(7) 8_556 7_556
Rb1 Rb2 Rb1 180.0 7 .
Rb1 Rb2 Rb2 180.0 7 4
Rb1 Rb2 Rb2 0.0 . 4
Rb1 Rb2 Rb2 0.0 7 4_554
Rb1 Rb2 Rb2 180.0 . 4_554
Rb2 Rb2 Rb2 180.0 4 4_554
Rb1 Rb2 Rb1 0.0 7 1_554
Rb1 Rb2 Rb1 180.0 . 1_554
Rb2 Rb2 Rb1 180.0 4 1_554
Rb2 Rb2 Rb1 0.0 4_554 1_554
Rb1 Rb2 Rb1 180.0 7 7_556
Rb1 Rb2 Rb1 0.0 . 7_556
Rb2 Rb2 Rb1 0.0 4 7_556
Rb2 Rb2 Rb1 180.0 4_554 7_556
Rb1 Rb2 Rb1 180.0 1_554 7_556
Rb1 Rb2 Te 73.194(3) 7 7
Rb1 Rb2 Te 106.806(3) . 7
Rb2 Rb2 Te 106.806(3) 4 7
Rb2 Rb2 Te 73.194(3) 4_554 7
Rb1 Rb2 Te 73.194(3) 1_554 7
Rb1 Rb2 Te 106.806(3) 7_556 7
Rb1 Rb2 Te 106.806(3) 7 .
Rb1 Rb2 Te 73.194(3) . .
Rb2 Rb2 Te 73.194(3) 4 .
Rb2 Rb2 Te 106.806(3) 4_554 .
Rb1 Rb2 Te 106.806(3) 1_554 .
Rb1 Rb2 Te 73.194(3) 7_556 .
Te Rb2 Te 180.0 7 .
Rb1 Rb2 Te 106.806(3) 7 2
Rb1 Rb2 Te 73.194(3) . 2
Rb2 Rb2 Te 73.194(3) 4 2
Rb2 Rb2 Te 106.806(3) 4_554 2
Rb1 Rb2 Te 106.806(3) 1_554 2
Rb1 Rb2 Te 73.194(3) 7_556 2
Te Rb2 Te 68.000(3) 7 2
Te Rb2 Te 112.000(3) . 2
Rb1 Rb2 Te 73.194(3) 7 8
Rb1 Rb2 Te 106.806(3) . 8
Rb2 Rb2 Te 106.806(3) 4 8
Rb2 Rb2 Te 73.194(3) 4_554 8
Rb1 Rb2 Te 73.194(3) 1_554 8
Rb1 Rb2 Te 106.806(3) 7_556 8
Te Rb2 Te 112.000(3) 7 8
Te Rb2 Te 68.000(3) . 8
Te Rb2 Te 180.0 2 8
Rb1 Rb2 Te 106.806(3) 7 3
Rb1 Rb2 Te 73.194(3) . 3
Rb2 Rb2 Te 73.194(3) 4 3
Rb2 Rb2 Te 106.806(3) 4_554 3
Rb1 Rb2 Te 106.806(3) 1_554 3
Rb1 Rb2 Te 73.194(3) 7_556 3
Te Rb2 Te 68.000(3) 7 3
Te Rb2 Te 112.000(3) . 3
Te Rb2 Te 111.999(3) 2 3
Te Rb2 Te 68.000(3) 8 3
Rb1 Rb2 Te 73.194(3) 7 9
Rb1 Rb2 Te 106.806(3) . 9
Rb2 Rb2 Te 106.806(3) 4 9
Rb2 Rb2 Te 73.194(3) 4_554 9
Rb1 Rb2 Te 73.194(3) 1_554 9
Rb1 Rb2 Te 106.806(3) 7_556 9
Te Rb2 Te 111.999(3) 7 9
Te Rb2 Te 68.000(3) . 9
Te Rb2 Te 68.000(3) 2 9
Te Rb2 Te 112.000(3) 8 9
Te Rb2 Te 180.000(12) 3 9
Te Ce Te 79.819(14) 9_656 9_655
Te Ce Te 134.895(5) 9_656 8
Te Ce Te 83.256(11) 9_655 8
Te Ce Te 83.256(11) 9_656 8_556
Te Ce Te 134.895(5) 9_655 8_556
Te Ce Te 79.819(14) 8 8_556
Te Ce Te 83.256(11) 9_656 7_666
Te Ce Te 134.895(5) 9_655 7_666
Te Ce Te 134.895(5) 8 7_666
Te Ce Te 83.256(11) 8_556 7_666
Te Ce Te 134.895(5) 9_656 7_665
Te Ce Te 83.256(11) 9_655 7_665
Te Ce Te 83.256(11) 8 7_665
Te Ce Te 134.895(5) 8_556 7_665
Te Ce Te 79.819(14) 7_666 7_665
Te Ce Cu 47.061(13) 9_656 1_655
Te Ce Cu 47.061(13) 9_655 1_655
Te Ce Cu 130.237(13) 8 1_655
Te Ce Cu 130.237(13) 8_556 1_655
Te Ce Cu 92.021(18) 7_666 1_655
Te Ce Cu 92.021(18) 7_665 1_655
Te Ce Cu 92.021(18) 9_656 3
Te Ce Cu 92.021(18) 9_655 3
Te Ce Cu 47.061(13) 8 3
Te Ce Cu 47.061(13) 8_556 3
Te Ce Cu 130.237(13) 7_666 3
Te Ce Cu 130.237(13) 7_665 3
Cu Ce Cu 120.0 1_655 3
Te Ce Cu 130.237(13) 9_656 2_665
Te Ce Cu 130.237(13) 9_655 2_665
Te Ce Cu 92.021(18) 8 2_665
Te Ce Cu 92.021(18) 8_556 2_665
Te Ce Cu 47.061(13) 7_666 2_665
Te Ce Cu 47.061(13) 7_665 2_665
Cu Ce Cu 120.0 1_655 2_665
Cu Ce Cu 120.0 3 2_665
Te Ce Cu 95.108(18) 9_656 9_655
Te Ce Cu 46.01(2) 9_655 9_655
Te Ce Cu 45.85(2) 8 9_655
Te Ce Cu 94.993(18) 8_556 9_655
Te Ce Cu 177.723(12) 7_666 9_655
Te Ce Cu 102.456(15) 7_665 9_655
Cu Ce Cu 88.00(3) 1_655 9_655
Cu Ce Cu 48.11(2) 3 9_655
Cu Ce Cu 134.64(3) 2_665 9_655
Te Ce Cu 46.01(2) 9_656 9_656
Te Ce Cu 95.108(18) 9_655 9_656
Te Ce Cu 94.993(18) 8 9_656
Te Ce Cu 45.85(2) 8_556 9_656
Te Ce Cu 102.456(15) 7_666 9_656
Te Ce Cu 177.723(12) 7_665 9_656
Cu Ce Cu 88.00(3) 1_655 9_656
Cu Ce Cu 48.11(2) 3 9_656
Cu Ce Cu 134.64(3) 2_665 9_656
Cu Ce Cu 75.27(2) 9_655 9_656
Te Ce Cu 45.85(2) 9_656 7_666
Te Ce Cu 94.993(18) 9_655 7_666
Te Ce Cu 177.723(12) 8 7_666
Te Ce Cu 102.456(15) 8_556 7_666
Te Ce Cu 46.01(2) 7_666 7_666
Te Ce Cu 95.108(18) 7_665 7_666
Cu Ce Cu 48.11(2) 1_655 7_666
Cu Ce Cu 134.64(3) 3 7_666
Cu Ce Cu 88.00(3) 2_665 7_666
Cu Ce Cu 133.348(8) 9_655 7_666
Cu Ce Cu 86.601(17) 9_656 7_666
Te Cu Te 116.77(3) 3_565 9
Te Cu Te 116.77(3) 3_565 9_556
Te Cu Te 106.47(4) 9 9_556
Te Cu Te 111.94(4) 3_565 .
Te Cu Te 101.38(3) 9 .
Te Cu Te 101.38(3) 9_556 .
Te Cu Cu 58.42(4) 3_565 7_566
Te Cu Cu 134.43(7) 9 7_566
Te Cu Cu 58.35(3) 9_556 7_566
Te Cu Cu 122.99(4) . 7_566
Te Cu Cu 58.42(4) 3_565 7_565
Te Cu Cu 58.35(3) 9 7_565
Te Cu Cu 134.43(7) 9_556 7_565
Te Cu Cu 122.99(4) . 7_565
Cu Cu Cu 99.71(8) 7_566 7_565
Te Cu Ce 91.46(3) 3_565 1_455
Te Cu Ce 66.08(2) 9 1_455
Te Cu Ce 66.08(2) 9_556 1_455
Te Cu Ce 156.60(4) . 1_455
Cu Cu Ce 68.74(4) 7_566 1_455
Cu Cu Ce 68.74(4) 7_565 1_455
Te Cu Ce 63.73(2) 3_565 7_666
Te Cu Ce 161.33(4) 9 7_666
Te Cu Ce 88.224(15) 9_556 7_666
Te Cu Ce 63.66(2) . 7_666
Cu Cu Ce 63.15(3) 7_566 7_666
Cu Cu Ce 118.81(6) 7_565 7_666
Ce Cu Ce 131.89(2) 1_455 7_666
Te Cu Ce 63.73(2) 3_565 7_665
Te Cu Ce 88.224(15) 9 7_665
Te Cu Ce 161.33(4) 9_556 7_665
Te Cu Ce 63.66(2) . 7_665
Cu Cu Ce 118.81(6) 7_566 7_665
Cu Cu Ce 63.15(3) 7_565 7_665
Ce Cu Ce 131.89(2) 1_455 7_665
Ce Cu Ce 75.27(2) 7_666 7_665
Te Cu Rb1 167.93(4) 3_565 .
Te Cu Rb1 69.02(3) 9 .
Te Cu Rb1 69.02(3) 9_556 .
Te Cu Rb1 55.98(2) . .
Cu Cu Rb1 126.21(4) 7_566 .
Cu Cu Rb1 126.21(4) 7_565 .
Ce Cu Rb1 100.62(3) 1_455 .
Ce Cu Rb1 107.19(2) 7_666 .
Ce Cu Rb1 107.19(2) 7_665 .
Cu Te Cu 63.23(3) 2_665 8_556
Cu Te Cu 63.23(3) 2_665 8
Cu Te Cu 106.47(4) 8_556 8
Cu Te Cu 128.06(4) 2_665 .
Cu Te Cu 126.015(19) 8_556 .
Cu Te Cu 126.015(19) 8 .
Cu Te Ce 70.42(2) 2_665 7_666
Cu Te Ce 66.86(2) 8_556 7_666
Cu Te Ce 129.42(3) 8 7_666
Cu Te Ce 70.33(2) . 7_666
Cu Te Ce 70.42(2) 2_665 7_665
Cu Te Ce 129.42(3) 8_556 7_665
Cu Te Ce 66.86(2) 8 7_665
Cu Te Ce 70.33(2) . 7_665
Ce Te Ce 79.819(14) 7_666 7_665
Cu Te Rb1 146.72(3) 2_665 .
Cu Te Rb1 99.22(3) 8_556 .
Cu Te Rb1 99.22(3) 8 .
Cu Te Rb1 85.22(3) . .
Ce Te Rb1 131.206(10) 7_666 .
Ce Te Rb1 131.206(10) 7_665 .
Cu Te Rb2 143.16(3) 2_665 .
Cu Te Rb2 112.65(3) 8_556 .
Cu Te Rb2 85.52(3) 8 .
Cu Te Rb2 85.42(3) . .
Ce Te Rb2 144.699(12) 7_666 .
Ce Te Rb2 116.431(9) 7_665 .
Rb1 Te Rb2 16.806(3) . .
Cu Te Rb2 143.16(3) 2_665 4
Cu Te Rb2 85.52(3) 8_556 4
Cu Te Rb2 112.65(3) 8 4
Cu Te Rb2 85.42(3) . 4
Ce Te Rb2 116.431(9) 7_666 4
Ce Te Rb2 144.699(12) 7_665 4
Rb1 Te Rb2 16.806(3) . 4
Rb2 Te Rb2 33.613(7) . 4
Cu Te Rb1 135.69(2) 2_665 7
Cu Te Rb1 123.47(3) 8_556 7
Cu Te Rb1 73.92(3) 8 7
Cu Te Rb1 85.91(2) . 7
Ce Te Rb1 153.586(14) 7_666 7
Ce Te Rb1 103.423(9) 7_665 7
Rb1 Te Rb1 31.135(5) . 7
Rb2 Te Rb1 14.329(2) . 7
Rb2 Te Rb1 47.942(9) 4 7
Cu Te Rb1 135.69(2) 2_665 7_556
Cu Te Rb1 73.92(3) 8_556 7_556
Cu Te Rb1 123.47(3) 8 7_556
Cu Te Rb1 85.91(2) . 7_556
Ce Te Rb1 103.423(9) 7_666 7_556
Ce Te Rb1 153.586(14) 7_665 7_556
Rb1 Te Rb1 31.135(5) . 7_556
Rb2 Te Rb1 47.942(9) . 7_556
Rb2 Te Rb1 14.329(2) 4 7_556
Rb1 Te Rb1 62.270(11) 7 7_556
loop_
_geom_bond_atom_site_label_1
_geom_bond_atom_site_label_2
_geom_bond_distance
_geom_bond_site_symmetry_2
Ce Te 3.2713(4) 9_656
Ce Te 3.2713(4) 9_655
Ce Te 3.2713(4) 8
Ce Te 3.2713(4) 8_556
Ce Te 3.2713(4) 7_666
Ce Te 3.2713(4) 7_665
Ce Cu 3.2907(11) 1_655
Ce Cu 3.2907(11) 3
Ce Cu 3.2907(11) 2_665
Ce Cu 3.4372(9) 9_655
Ce Cu 3.4372(9) 9_656
Ce Cu 3.4372(9) 7_666
Cu Te 2.6178(12) 3_565
Cu Te 2.6199(8) 9
Cu Te 2.6199(8) 9_556
Cu Te 2.6264(12) .
Cu Cu 2.7456(15) 7_566
Cu Cu 2.7456(15) 7_565
Cu Ce 3.2907(11) 1_455
Cu Ce 3.4372(9) 7_666
Cu Ce 3.4372(9) 7_665
Te Cu 2.6178(13) 2_665
Te Cu 2.6199(8) 8_556
Te Cu 2.6199(8) 8
Te Ce 3.2713(4) 7_666
Te Ce 3.2713(4) 7_665
