#------------------------------------------------------------------------------
#$Date: 2016-02-16 22:30:59 +0200 (Tue, 16 Feb 2016) $
#$Revision: 176467 $
#$URL: svn://www.crystallography.net/cod/cif/4/00/06/4000634.cif $
#------------------------------------------------------------------------------
#
# This file is available in the Crystallography Open Database (COD),
# http://www.crystallography.net/
#
# All data on this site have been placed in the public domain by the
# contributors.
#
data_4000634
_journal_name_full               'Chemistry of Materials'
_journal_paper_doi               10.1021/cm051196a
_journal_year                    2005
_chemical_formula_sum            'Ni0.6 Sb2 Tb'
_chemical_formula_weight         437.35
_space_group_IT_number           129
_symmetry_cell_setting           tetragonal
_symmetry_space_group_name_Hall  '-P 4a 2a'
_symmetry_space_group_name_H-M   'P 4/n m m :2'
_cell_angle_alpha                90.00
_cell_angle_beta                 90.00
_cell_angle_gamma                90.00
_cell_formula_units_Z            2
_cell_length_a                   4.2910(7)
_cell_length_b                   4.2910(7)
_cell_length_c                   9.3220(14)
_cell_measurement_temperature    298(2)
_cell_volume                     171.64(5)
_diffrn_ambient_temperature      298(2)
_exptl_crystal_density_diffrn    8.462
_cod_original_sg_symbol_H-M      'P 4/n m m'
_cod_original_formula_sum        'Ni0.60 Sb2 Tb'
_cod_database_code               4000634
loop_
_symmetry_equiv_pos_as_xyz
'x, y, z'
'-x+1/2, -y+1/2, z'
'x+1/2, -y, -z'
'-x, y+1/2, -z'
'-y, -x, -z'
'y+1/2, x+1/2, -z'
'y, -x+1/2, z'
'-y+1/2, x, z'
'-x, -y, -z'
'x-1/2, y-1/2, -z'
'-x-1/2, y, z'
'x, -y-1/2, z'
'y, x, z'
'-y-1/2, -x-1/2, z'
'-y, x-1/2, -z'
'y-1/2, -x, -z'
loop_
_atom_site_label
_atom_site_type_symbol
_atom_site_fract_x
_atom_site_fract_y
_atom_site_fract_z
_atom_site_U_iso_or_equiv
_atom_site_adp_type
_atom_site_occupancy
_atom_site_symmetry_multiplicity
_atom_site_calc_flag
_atom_site_refinement_flags
_atom_site_disorder_assembly
_atom_site_disorder_group
Tb1 Tb 0.2500 0.2500 0.76224(11) 0.0101(4) Uani 1 8 d S . .
Sb2 Sb 0.7500 0.2500 0.5000 0.0102(5) Uani 1 8 d S . .
Sb1 Sb 0.2500 0.2500 0.13057(16) 0.0168(5) Uani 1 8 d S . .
Ni1 Ni 0.7500 0.2500 0.0000 0.0120(16) Uani 0.596(12) 8 d SP . .
loop_
_atom_site_aniso_label
_atom_site_aniso_U_11
_atom_site_aniso_U_22
_atom_site_aniso_U_33
_atom_site_aniso_U_23
_atom_site_aniso_U_13
_atom_site_aniso_U_12
Tb1 0.0108(5) 0.0108(5) 0.0087(6) 0.000 0.000 0.000
Sb2 0.0102(6) 0.0102(6) 0.0102(8) 0.000 0.000 0.000
Sb1 0.0175(6) 0.0175(6) 0.0153(9) 0.000 0.000 0.000
Ni1 0.012(2) 0.012(2) 0.011(3) 0.000 0.000 0.000
loop_
_geom_bond_atom_site_label_1
_geom_bond_atom_site_label_2
_geom_bond_distance
_geom_bond_site_symmetry_2
_geom_bond_publ_flag
Tb1 Ni1 3.0847(8) 9_666 ?
Tb1 Ni1 3.0847(8) 1_556 ?
Tb1 Ni1 3.0847(8) 9_656 ?
Tb1 Ni1 3.0847(8) 1_456 ?
Tb1 Sb1 3.1945(8) 9_666 ?
Tb1 Sb1 3.1945(8) 9_556 ?
Tb1 Sb1 3.1945(8) 9_566 ?
Tb1 Sb1 3.1945(8) 9_656 ?
Tb1 Sb2 3.2526(8) 9_656 ?
Tb1 Sb2 3.2526(8) 1_455 ?
Tb1 Sb2 3.2526(8) . ?
Tb1 Sb2 3.2526(8) 9_666 ?
Sb2 Sb2 3.0342(5) 9_766 ?
Sb2 Sb2 3.0342(5) 9_656 ?
Sb2 Sb2 3.0342(5) 9_666 ?
Sb2 Sb2 3.0342(5) 9_756 ?
Sb2 Tb1 3.2526(8) 9_656 ?
Sb2 Tb1 3.2526(8) 1_655 ?
Sb2 Tb1 3.2526(8) 9_666 ?
Sb1 Ni1 2.4667(8) 9_655 ?
Sb1 Ni1 2.4667(8) 1_455 ?
Sb1 Ni1 2.4667(8) 9_665 ?
Sb1 Ni1 2.4667(8) . ?
Sb1 Tb1 3.1945(8) 9_666 ?
Sb1 Tb1 3.1945(8) 9_556 ?
Sb1 Tb1 3.1945(8) 9_566 ?
Sb1 Tb1 3.1945(8) 9_656 ?
Sb1 Tb1 3.4336(18) 1_554 ?
Ni1 Sb1 2.4667(8) 9_655 ?
Ni1 Sb1 2.4667(8) 1_655 ?
Ni1 Sb1 2.4667(8) 9_665 ?
Ni1 Tb1 3.0848(8) 1_554 ?
Ni1 Tb1 3.0848(8) 9_666 ?
Ni1 Tb1 3.0848(8) 1_654 ?
Ni1 Tb1 3.0848(8) 9_656 ?
