#------------------------------------------------------------------------------
#$Date: 2016-02-16 22:30:59 +0200 (Tue, 16 Feb 2016) $
#$Revision: 176467 $
#$URL: svn://www.crystallography.net/cod/cif/4/00/16/4001636.cif $
#------------------------------------------------------------------------------
#
# This file is available in the Crystallography Open Database (COD),
# http://www.crystallography.net/
#
# All data on this site have been placed in the public domain by the
# contributors.
#
data_4001636
loop_
_publ_author_name
'Byeon, Song-Ho'
'Lufaso, Michael W.'
'Parise, John B.'
'Woodward, Patrick M.'
'Hansen, Thomas'
_publ_section_title
;
 High-Pressure Synthesis and Characterization of Perovskites with
 Simultaneous Ordering of Both the A- and B-Site Cations, CaCu3Ga2M2O12(M
 = Sb, Ta)
;
_journal_issue                   20
_journal_name_full               'Chemistry of Materials'
_journal_page_first              3798
_journal_paper_doi               10.1021/cm034318c
_journal_volume                  15
_journal_year                    2003
_chemical_formula_sum            'Ca Cu3 Ga2 O12 Sb2'
_chemical_formula_weight         805.63
_chemical_name_systematic        ' ?'
_space_group_IT_number           201
_symmetry_cell_setting           cubic
_symmetry_space_group_name_Hall  '-P 2ab 2bc 3'
_symmetry_space_group_name_H-M   'P n -3 :2'
_cell_angle_alpha                90.0
_cell_angle_beta                 90.0
_cell_angle_gamma                90.0
_cell_formula_units_Z            2
_cell_length_a                   7.4480(5)
_cell_length_b                   7.448
_cell_length_c                   7.448
_cell_volume                     413.16(3)
_pd_block_id
2003-04-29T10:33|LUFASOSBEXP_COMBINED_phase1|Michael_Lufaso||
_pd_phase_name                   'Ca Cu3 Ga2 Sb2 O12'
_cod_data_source_file            cm034318csi20030503_032128.cif
_cod_data_source_block           LUFASOSBEXP_COMBINED_phase_1
_cod_depositor_comments
;
The following automatic conversions were performed:

'_geom_bond_publ_flag' value 'N' changed to 'n' according to
/home/saulius/struct/CIF-dictionaries/cif_core.dic dictionary named
'cif_core.dic' version 2.4.1 from 2010-06-29 (90
times).

'_geom_angle_publ_flag' value 'N' changed to 'n' according
to /home/saulius/struct/CIF-dictionaries/cif_core.dic dictionary
named 'cif_core.dic' version 2.4.1 from 2010-06-29 (433 times).

Automatic conversion script
Id: cif_fix_values 1715 2011-07-08 13:25:40Z adriana 
;
_cod_original_cell_volume        413.16452
_cod_original_sg_symbol_H-M      'P n -3'
_cod_original_formula_sum        'Ca Cu3 Ga2.00 O12 Sb2.00'
_cod_database_code               4001636
loop_
_symmetry_equiv_pos_site_id
_symmetry_equiv_pos_as_xyz
1 +x,+y,+z
2 +z,+x,+y
3 +y,+z,+x
4 +x+1/2,+y+1/2,-z
5 -z,+x+1/2,+y+1/2
6 +y+1/2,-z,+x+1/2
7 -z+1/2,+x,-y+1/2
8 -y+1/2,-z+1/2,+x
9 +y,-z+1/2,-x+1/2
10 -x+1/2,+y,-z+1/2
11 -z+1/2,-x+1/2,+y
12 +x,-y+1/2,-z+1/2
-1 -x,-y,-z
-2 -z,-x,-y
-3 -y,-z,-x
-4 -x+1/2,-y+1/2,+z
-5 +z,-x+1/2,-y+1/2
-6 -y+1/2,+z,-x+1/2
-7 +z+1/2,-x,+y+1/2
-8 +y+1/2,+z+1/2,-x
-9 -y,+z+1/2,+x+1/2
-10 +x+1/2,-y,+z+1/2
-11 +z+1/2,+x+1/2,-y
-12 -x,+y+1/2,+z+1/2
loop_
_atom_site_type_symbol
_atom_site_label
_atom_site_fract_x
_atom_site_fract_y
_atom_site_fract_z
_atom_site_occupancy
_atom_site_thermal_displace_type
_atom_site_U_iso_or_equiv
_atom_site_symmetry_multiplicity
CA CA1 0.25 0.25 0.25 1.0 Uiso 0.0061(6) 2
CU CU2 0.25 0.75 0.75 1.0 Uiso 0.00573(16) 6
GA GA3 0.0 0.0 0.0 0.976(14) Uiso 0.00123(27) 4
SB SB1 0.5 0.5 0.5 0.976(14) Uiso 0.0044(4) 4
O O5 0.25280(20) 0.42776(9) 0.55438(9) 1.0 Uiso 0.00485(8) 24
SB Sb(3) 0.0 0.0 0.0 0.024(14) Uiso 0.00123(27) 4
GA Ga(1) 0.5 0.5 0.5 0.024(14) Uiso 0.0044(4) 4
loop_
_atom_type_symbol
_atom_type_number_in_cell
CA 2.0
CU 6.0
GA 4.0
SB 4.0
O 24.0
loop_
_geom_angle_atom_site_label_1
_geom_angle_atom_site_label_2
_geom_angle_atom_site_label_3
_geom_angle
_geom_angle_site_symmetry_1
_geom_angle_site_symmetry_3
_geom_angle_publ_flag
GA3 CA1 GA3 109.471(5) 1_555 4_555 n
GA3 CA1 GA3 109.4712(24) 1_555 5_555 n
GA3 CA1 GA3 109.4712(24) 1_555 6_555 n
GA3 CA1 SB1 179.9802 1_555 1_555 n
GA3 CA1 SB1 70.529(5) 1_555 4_446 n
GA3 CA1 SB1 70.5288(24) 1_555 5_644 n
GA3 CA1 SB1 70.5288(24) 1_555 6_464 n
GA3 CA1 O5 142.587(32) 1_555 1_555 n
GA3 CA1 O5 142.587(32) 1_555 2_555 n
GA3 CA1 O5 142.587(32) 1_555 3_555 n
GA3 CA1 O5 38.269(32) 1_555 7_555 n
GA3 CA1 O5 38.269(32) 1_555 8_555 n
GA3 CA1 O5 77.762(23) 1_555 9_555 n
GA3 CA1 O5 77.762(23) 1_555 10_555 n
GA3 CA1 O5 77.762(23) 1_555 11_555 n
GA3 CA1 O5 38.269(32) 1_555 12_555 n
GA3 CA1 O5 101.701(23) 1_555 -4_665 n
GA3 CA1 O5 101.701(23) 1_555 -5_566 n
GA3 CA1 O5 101.701(22) 1_555 -6_656 n
GA3 CA1 Sb(3) 0.0 1_555 1_555 n
GA3 CA1 Sb(3) 109.471(5) 1_555 4_555 n
GA3 CA1 Sb(3) 109.4712(24) 1_555 5_555 n
GA3 CA1 Sb(3) 109.4712(24) 1_555 6_555 n
GA3 CA1 Ga(1) 179.9802 1_555 1_555 n
GA3 CA1 GA3 109.4712(24) 4_555 5_555 n
GA3 CA1 GA3 109.4712(24) 4_555 6_555 n
GA3 CA1 SB1 70.529(5) 4_555 1_555 n
GA3 CA1 SB1 179.972 4_555 4_446 n
GA3 CA1 SB1 70.5288(24) 4_555 5_644 n
GA3 CA1 SB1 70.5288(24) 4_555 6_464 n
GA3 CA1 O5 101.701(23) 4_555 1_555 n
GA3 CA1 O5 77.762(23) 4_555 2_555 n
GA3 CA1 O5 38.269(32) 4_555 3_555 n
GA3 CA1 O5 101.701(23) 4_555 7_555 n
GA3 CA1 O5 142.587(32) 4_555 8_555 n
GA3 CA1 O5 101.701(22) 4_555 9_555 n
GA3 CA1 O5 38.269(32) 4_555 10_555 n
GA3 CA1 O5 142.587(32) 4_555 11_555 n
GA3 CA1 O5 77.762(23) 4_555 12_555 n
GA3 CA1 O5 142.587(32) 4_555 -4_665 n
GA3 CA1 O5 38.269(32) 4_555 -5_566 n
GA3 CA1 O5 77.762(23) 4_555 -6_656 n
GA3 CA1 Sb(3) 109.471(5) 4_555 1_555 n
GA3 CA1 Sb(3) 0.0 4_555 4_555 n
GA3 CA1 Sb(3) 109.4712(24) 4_555 5_555 n
GA3 CA1 Sb(3) 109.4712(24) 4_555 6_555 n
GA3 CA1 Ga(1) 70.529(5) 4_555 1_555 n
GA3 CA1 GA3 109.471(5) 5_555 6_555 n
GA3 CA1 SB1 70.5288(24) 5_555 1_555 n
GA3 CA1 SB1 70.5288(24) 5_555 4_446 n
GA3 CA1 SB1 179.972 5_555 5_644 n
GA3 CA1 SB1 70.529(5) 5_555 6_464 n
GA3 CA1 O5 38.269(32) 5_555 1_555 n
GA3 CA1 O5 101.701(23) 5_555 2_555 n
GA3 CA1 O5 77.762(23) 5_555 3_555 n
GA3 CA1 O5 77.762(23) 5_555 7_555 n
GA3 CA1 O5 101.701(22) 5_555 8_555 n
GA3 CA1 O5 142.587(32) 5_555 9_555 n
GA3 CA1 O5 101.701(23) 5_555 10_555 n
GA3 CA1 O5 38.269(32) 5_555 11_555 n
GA3 CA1 O5 142.587(32) 5_555 12_555 n
GA3 CA1 O5 77.762(23) 5_555 -4_665 n
GA3 CA1 O5 142.587(32) 5_555 -5_566 n
GA3 CA1 O5 38.269(32) 5_555 -6_656 n
GA3 CA1 Sb(3) 109.4712(24) 5_555 1_555 n
GA3 CA1 Sb(3) 109.4712(24) 5_555 4_555 n
GA3 CA1 Sb(3) 0.0 5_555 5_555 n
GA3 CA1 Sb(3) 109.471(5) 5_555 6_555 n
GA3 CA1 Ga(1) 70.5288(24) 5_555 1_555 n
GA3 CA1 SB1 70.5288(24) 6_555 1_555 n
GA3 CA1 SB1 70.5288(24) 6_555 4_446 n
GA3 CA1 SB1 70.529(5) 6_555 5_644 n
GA3 CA1 SB1 179.972 6_555 6_464 n
GA3 CA1 O5 77.762(23) 6_555 1_555 n
GA3 CA1 O5 38.269(32) 6_555 2_555 n
GA3 CA1 O5 101.701(22) 6_555 3_555 n
GA3 CA1 O5 142.587(32) 6_555 7_555 n
GA3 CA1 O5 77.762(23) 6_555 8_555 n
GA3 CA1 O5 38.269(32) 6_555 9_555 n
GA3 CA1 O5 142.587(32) 6_555 10_555 n
GA3 CA1 O5 101.701(23) 6_555 11_555 n
GA3 CA1 O5 101.701(23) 6_555 12_555 n
GA3 CA1 O5 38.269(32) 6_555 -4_665 n
GA3 CA1 O5 77.762(23) 6_555 -5_566 n
GA3 CA1 O5 142.587(32) 6_555 -6_656 n
GA3 CA1 Sb(3) 109.4712(24) 6_555 1_555 n
GA3 CA1 Sb(3) 109.4712(24) 6_555 4_555 n
GA3 CA1 Sb(3) 109.471(5) 6_555 5_555 n
GA3 CA1 Sb(3) 0.0 6_555 6_555 n
GA3 CA1 Ga(1) 70.5288(24) 6_555 1_555 n
SB1 CA1 SB1 109.471(5) 1_555 4_446 n
SB1 CA1 SB1 109.4712(24) 1_555 5_644 n
SB1 CA1 SB1 109.4712(24) 1_555 6_464 n
SB1 CA1 O5 37.413(32) 1_555 1_555 n
SB1 CA1 O5 37.413(32) 1_555 2_555 n
SB1 CA1 O5 37.413(32) 1_555 3_555 n
SB1 CA1 O5 141.731(32) 1_555 7_555 n
SB1 CA1 O5 141.731(32) 1_555 8_555 n
SB1 CA1 O5 102.238(23) 1_555 9_555 n
SB1 CA1 O5 102.238(23) 1_555 10_555 n
SB1 CA1 O5 102.238(23) 1_555 11_555 n
SB1 CA1 O5 141.731(32) 1_555 12_555 n
SB1 CA1 O5 78.299(23) 1_555 -4_665 n
SB1 CA1 O5 78.299(23) 1_555 -5_566 n
SB1 CA1 O5 78.299(22) 1_555 -6_656 n
SB1 CA1 Sb(3) 179.9802 1_555 1_555 n
SB1 CA1 Sb(3) 70.529(5) 1_555 4_555 n
SB1 CA1 Sb(3) 70.5288(24) 1_555 5_555 n
SB1 CA1 Sb(3) 70.5288(24) 1_555 6_555 n
SB1 CA1 Ga(1) 0.0 1_555 1_555 n
SB1 CA1 SB1 109.4712(24) 4_446 5_644 n
SB1 CA1 SB1 109.4712(24) 4_446 6_464 n
SB1 CA1 O5 78.299(23) 4_446 1_555 n
SB1 CA1 O5 102.238(23) 4_446 2_555 n
SB1 CA1 O5 141.731(32) 4_446 3_555 n
SB1 CA1 O5 78.299(23) 4_446 7_555 n
SB1 CA1 O5 37.413(32) 4_446 8_555 n
SB1 CA1 O5 78.299(22) 4_446 9_555 n
SB1 CA1 O5 141.731(32) 4_446 10_555 n
SB1 CA1 O5 37.413(32) 4_446 11_555 n
SB1 CA1 O5 102.238(23) 4_446 12_555 n
SB1 CA1 O5 37.413(32) 4_446 -4_665 n
SB1 CA1 O5 141.731(32) 4_446 -5_566 n
SB1 CA1 O5 102.238(23) 4_446 -6_656 n
SB1 CA1 Sb(3) 70.529(5) 4_446 1_555 n
SB1 CA1 Sb(3) 179.972 4_446 4_555 n
SB1 CA1 Sb(3) 70.5288(24) 4_446 5_555 n
SB1 CA1 Sb(3) 70.5288(24) 4_446 6_555 n
SB1 CA1 Ga(1) 109.471(5) 4_446 1_555 n
SB1 CA1 SB1 109.471(5) 5_644 6_464 n
SB1 CA1 O5 141.731(32) 5_644 1_555 n
SB1 CA1 O5 78.299(23) 5_644 2_555 n
SB1 CA1 O5 102.238(23) 5_644 3_555 n
SB1 CA1 O5 102.238(23) 5_644 7_555 n
SB1 CA1 O5 78.299(22) 5_644 8_555 n
SB1 CA1 O5 37.413(32) 5_644 9_555 n
SB1 CA1 O5 78.299(23) 5_644 10_555 n
SB1 CA1 O5 141.731(32) 5_644 11_555 n
SB1 CA1 O5 37.413(32) 5_644 12_555 n
SB1 CA1 O5 102.238(23) 5_644 -4_665 n
SB1 CA1 O5 37.413(32) 5_644 -5_566 n
SB1 CA1 O5 141.731(32) 5_644 -6_656 n
SB1 CA1 Sb(3) 70.5288(24) 5_644 1_555 n
SB1 CA1 Sb(3) 70.5288(24) 5_644 4_555 n
SB1 CA1 Sb(3) 179.972 5_644 5_555 n
SB1 CA1 Sb(3) 70.529(5) 5_644 6_555 n
SB1 CA1 Ga(1) 109.4712(24) 5_644 1_555 n
SB1 CA1 O5 102.238(23) 6_464 1_555 n
SB1 CA1 O5 141.731(32) 6_464 2_555 n
SB1 CA1 O5 78.299(22) 6_464 3_555 n
SB1 CA1 O5 37.413(32) 6_464 7_555 n
SB1 CA1 O5 102.238(23) 6_464 8_555 n
SB1 CA1 O5 141.731(32) 6_464 9_555 n
SB1 CA1 O5 37.413(32) 6_464 10_555 n
SB1 CA1 O5 78.299(23) 6_464 11_555 n
SB1 CA1 O5 78.299(23) 6_464 12_555 n
SB1 CA1 O5 141.731(32) 6_464 -4_665 n
SB1 CA1 O5 102.238(23) 6_464 -5_566 n
SB1 CA1 O5 37.413(32) 6_464 -6_656 n
SB1 CA1 Sb(3) 70.5288(24) 6_464 1_555 n
SB1 CA1 Sb(3) 70.5288(24) 6_464 4_555 n
SB1 CA1 Sb(3) 70.529(5) 6_464 5_555 n
SB1 CA1 Sb(3) 179.972 6_464 6_555 n
SB1 CA1 Ga(1) 109.4712(24) 6_464 1_555 n
O5 CA1 O5 63.49(5) 1_555 2_555 n
O5 CA1 O5 63.49(5) 1_555 3_555 n
O5 CA1 O5 115.996(15) 1_555 7_555 n
O5 CA1 O5 115.633(16) 1_555 8_555 n
O5 CA1 O5 115.996(15) 1_555 9_555 n
O5 CA1 O5 119.431(27) 1_555 10_555 n
O5 CA1 O5 64.88(5) 1_555 11_555 n
O5 CA1 O5 179.09(7) 1_555 12_555 n
O5 CA1 O5 60.577(27) 1_555 -4_665 n
O5 CA1 O5 115.633(16) 1_555 -5_566 n
O5 CA1 O5 64.88(5) 1_555 -6_656 n
O5 CA1 Sb(3) 142.587(32) 1_555 1_555 n
O5 CA1 Sb(3) 101.701(23) 1_555 4_555 n
O5 CA1 Sb(3) 38.269(32) 1_555 5_555 n
O5 CA1 Sb(3) 77.762(23) 1_555 6_555 n
O5 CA1 Ga(1) 37.413(32) 1_555 1_555 n
O5 CA1 O5 63.49(5) 2_555 3_555 n
O5 CA1 O5 179.09(7) 2_555 7_555 n
O5 CA1 O5 115.996(15) 2_555 8_555 n
O5 CA1 O5 64.88(5) 2_555 9_555 n
O5 CA1 O5 115.996(15) 2_555 10_555 n
O5 CA1 O5 119.431(27) 2_555 11_555 n
O5 CA1 O5 115.633(16) 2_555 12_555 n
O5 CA1 O5 64.88(5) 2_555 -4_665 n
O5 CA1 O5 60.577(27) 2_555 -5_566 n
O5 CA1 O5 115.633(15) 2_555 -6_656 n
O5 CA1 Sb(3) 142.587(32) 2_555 1_555 n
O5 CA1 Sb(3) 77.762(23) 2_555 4_555 n
O5 CA1 Sb(3) 101.701(23) 2_555 5_555 n
O5 CA1 Sb(3) 38.269(32) 2_555 6_555 n
O5 CA1 Ga(1) 37.413(32) 2_555 1_555 n
O5 CA1 O5 115.633(15) 3_555 7_555 n
O5 CA1 O5 179.09(7) 3_555 8_555 n
O5 CA1 O5 119.431(27) 3_555 9_555 n
O5 CA1 O5 64.88(5) 3_555 10_555 n
O5 CA1 O5 115.996(15) 3_555 11_555 n
O5 CA1 O5 115.996(15) 3_555 12_555 n
O5 CA1 O5 115.633(16) 3_555 -4_665 n
O5 CA1 O5 64.88(5) 3_555 -5_566 n
O5 CA1 O5 60.577(26) 3_555 -6_656 n
O5 CA1 Sb(3) 142.587(32) 3_555 1_555 n
O5 CA1 Sb(3) 38.269(32) 3_555 4_555 n
O5 CA1 Sb(3) 77.762(23) 3_555 5_555 n
O5 CA1 Sb(3) 101.701(22) 3_555 6_555 n
O5 CA1 Ga(1) 37.413(32) 3_555 1_555 n
O5 CA1 O5 64.88(5) 7_555 8_555 n
O5 CA1 O5 115.996(15) 7_555 9_555 n
O5 CA1 O5 63.49(5) 7_555 10_555 n
O5 CA1 O5 60.577(27) 7_555 11_555 n
O5 CA1 O5 64.88(5) 7_555 12_555 n
O5 CA1 O5 115.633(16) 7_555 -4_665 n
O5 CA1 O5 119.431(27) 7_555 -5_566 n
O5 CA1 O5 63.49(5) 7_555 -6_656 n
O5 CA1 Sb(3) 38.269(32) 7_555 1_555 n
O5 CA1 Sb(3) 101.701(23) 7_555 4_555 n
O5 CA1 Sb(3) 77.762(23) 7_555 5_555 n
O5 CA1 Sb(3) 142.587(32) 7_555 6_555 n
O5 CA1 Ga(1) 141.731(32) 7_555 1_555 n
O5 CA1 O5 60.577(26) 8_555 9_555 n
O5 CA1 O5 115.996(15) 8_555 10_555 n
O5 CA1 O5 63.49(5) 8_555 11_555 n
O5 CA1 O5 64.88(5) 8_555 12_555 n
O5 CA1 O5 63.49(5) 8_555 -4_665 n
O5 CA1 O5 115.633(15) 8_555 -5_566 n
O5 CA1 O5 119.431(27) 8_555 -6_656 n
O5 CA1 Sb(3) 38.269(32) 8_555 1_555 n
O5 CA1 Sb(3) 142.587(32) 8_555 4_555 n
O5 CA1 Sb(3) 101.701(22) 8_555 5_555 n
O5 CA1 Sb(3) 77.762(23) 8_555 6_555 n
O5 CA1 Ga(1) 141.731(32) 8_555 1_555 n
O5 CA1 O5 115.633(16) 9_555 10_555 n
O5 CA1 O5 115.633(15) 9_555 11_555 n
O5 CA1 O5 63.49(5) 9_555 12_555 n
O5 CA1 O5 64.88(5) 9_555 -4_665 n
O5 CA1 O5 63.49(5) 9_555 -5_566 n
O5 CA1 O5 179.09(7) 9_555 -6_656 n
O5 CA1 Sb(3) 77.762(23) 9_555 1_555 n
O5 CA1 Sb(3) 101.701(22) 9_555 4_555 n
O5 CA1 Sb(3) 142.587(32) 9_555 5_555 n
O5 CA1 Sb(3) 38.269(32) 9_555 6_555 n
O5 CA1 Ga(1) 102.238(23) 9_555 1_555 n
O5 CA1 O5 115.633(16) 10_555 11_555 n
O5 CA1 O5 60.577(27) 10_555 12_555 n
O5 CA1 O5 179.09(7) 10_555 -4_665 n
O5 CA1 O5 64.88(5) 10_555 -5_566 n
O5 CA1 O5 63.49(5) 10_555 -6_656 n
O5 CA1 Sb(3) 77.762(23) 10_555 1_555 n
O5 CA1 Sb(3) 38.269(32) 10_555 4_555 n
O5 CA1 Sb(3) 101.701(23) 10_555 5_555 n
O5 CA1 Sb(3) 142.587(32) 10_555 6_555 n
O5 CA1 Ga(1) 102.238(23) 10_555 1_555 n
O5 CA1 O5 115.996(15) 11_555 12_555 n
O5 CA1 O5 63.49(5) 11_555 -4_665 n
O5 CA1 O5 179.09(7) 11_555 -5_566 n
O5 CA1 O5 64.88(5) 11_555 -6_656 n
O5 CA1 Sb(3) 77.762(23) 11_555 1_555 n
O5 CA1 Sb(3) 142.587(32) 11_555 4_555 n
O5 CA1 Sb(3) 38.269(32) 11_555 5_555 n
O5 CA1 Sb(3) 101.701(23) 11_555 6_555 n
O5 CA1 Ga(1) 102.238(23) 11_555 1_555 n
O5 CA1 O5 119.431(27) 12_555 -4_665 n
O5 CA1 O5 63.49(5) 12_555 -5_566 n
O5 CA1 O5 115.633(16) 12_555 -6_656 n
O5 CA1 Sb(3) 38.269(32) 12_555 1_555 n
O5 CA1 Sb(3) 77.762(23) 12_555 4_555 n
O5 CA1 Sb(3) 142.587(32) 12_555 5_555 n
O5 CA1 Sb(3) 101.701(23) 12_555 6_555 n
O5 CA1 Ga(1) 141.731(32) 12_555 1_555 n
O5 CA1 O5 115.996(15) -4_665 -5_566 n
O5 CA1 O5 115.996(15) -4_665 -6_656 n
O5 CA1 Sb(3) 101.701(23) -4_665 1_555 n
O5 CA1 Sb(3) 142.587(32) -4_665 4_555 n
O5 CA1 Sb(3) 77.762(23) -4_665 5_555 n
O5 CA1 Sb(3) 38.269(32) -4_665 6_555 n
O5 CA1 Ga(1) 78.299(23) -4_665 1_555 n
O5 CA1 O5 115.996(15) -5_566 -6_656 n
O5 CA1 Sb(3) 101.701(23) -5_566 1_555 n
O5 CA1 Sb(3) 38.269(32) -5_566 4_555 n
O5 CA1 Sb(3) 142.587(32) -5_566 5_555 n
O5 CA1 Sb(3) 77.762(23) -5_566 6_555 n
O5 CA1 Ga(1) 78.299(23) -5_566 1_555 n
O5 CA1 Sb(3) 101.701(22) -6_656 1_555 n
O5 CA1 Sb(3) 77.762(23) -6_656 4_555 n
O5 CA1 Sb(3) 38.269(32) -6_656 5_555 n
O5 CA1 Sb(3) 142.587(32) -6_656 6_555 n
O5 CA1 Ga(1) 78.299(22) -6_656 1_555 n
Sb(3) CA1 Sb(3) 109.471(5) 1_555 4_555 n
Sb(3) CA1 Sb(3) 109.4712(24) 1_555 5_555 n
Sb(3) CA1 Sb(3) 109.4712(24) 1_555 6_555 n
Sb(3) CA1 Ga(1) 179.9802 1_555 1_555 n
Sb(3) CA1 Sb(3) 109.4712(24) 4_555 5_555 n
Sb(3) CA1 Sb(3) 109.4712(24) 4_555 6_555 n
Sb(3) CA1 Ga(1) 70.529(5) 4_555 1_555 n
Sb(3) CA1 Sb(3) 109.471(5) 5_555 6_555 n
Sb(3) CA1 Ga(1) 70.5288(24) 5_555 1_555 n
Sb(3) CA1 Ga(1) 70.5288(24) 6_555 1_555 n
O5 CU2 O5 84.53(4) 5_655 -2_666 n
O5 CU2 O5 95.48(4) 5_655 -7_566 n
O5 CU2 O5 178.79(9) 5_655 -11_566 n
O5 CU2 O5 178.79(9) -2_666 -7_566 n
O5 CU2 O5 95.48(4) -2_666 -11_566 n
O5 CU2 O5 84.53(4) -7_566 -11_566 n
CA1 GA3 CA1 179.9802 1_555 4_445 n
CA1 GA3 O5 54.407(20) 1_555 7_555 n
CA1 GA3 O5 54.407(21) 1_555 8_555 n
CA1 GA3 O5 54.407(21) 1_555 12_555 n
CA1 GA3 O5 125.593(20) 1_555 -7_555 n
CA1 GA3 O5 125.593(21) 1_555 -8_555 n
CA1 GA3 O5 125.593(21) 1_555 -12_555 n
CA1 GA3 O5 125.593(20) 4_445 7_555 n
CA1 GA3 O5 125.593(21) 4_445 8_555 n
CA1 GA3 O5 125.593(21) 4_445 12_555 n
CA1 GA3 O5 54.407(20) 4_445 -7_555 n
CA1 GA3 O5 54.407(21) 4_445 -8_555 n
CA1 GA3 O5 54.407(21) 4_445 -12_555 n
O5 GA3 O5 89.535(29) 7_555 8_555 n
O5 GA3 O5 89.535(29) 7_555 12_555 n
O5 GA3 O5 179.9802 7_555 -7_555 n
O5 GA3 O5 90.465(29) 7_555 -8_555 n
O5 GA3 O5 90.465(29) 7_555 -12_555 n
O5 GA3 O5 89.535(29) 8_555 12_555 n
O5 GA3 O5 90.465(29) 8_555 -7_555 n
O5 GA3 O5 179.9802 8_555 -8_555 n
O5 GA3 O5 90.465(29) 8_555 -12_555 n
O5 GA3 O5 90.465(29) 12_555 -7_555 n
O5 GA3 O5 90.465(29) 12_555 -8_555 n
O5 GA3 O5 179.9802 12_555 -12_555 n
O5 GA3 O5 89.535(29) -7_555 -8_555 n
O5 GA3 O5 89.535(29) -7_555 -12_555 n
O5 GA3 O5 89.535(29) -8_555 -12_555 n
CA1 SB1 CA1 179.9802 1_555 4_556 n
CA1 SB1 O5 54.452(21) 1_555 1_555 n
CA1 SB1 O5 54.452(21) 1_555 2_555 n
CA1 SB1 O5 54.452(21) 1_555 3_555 n
CA1 SB1 O5 125.548(21) 1_555 -1_666 n
CA1 SB1 O5 125.548(21) 1_555 -2_666 n
CA1 SB1 O5 125.548(21) 1_555 -3_666 n
CA1 SB1 O5 125.548(21) 4_556 1_555 n
CA1 SB1 O5 125.548(21) 4_556 2_555 n
CA1 SB1 O5 125.548(21) 4_556 3_555 n
CA1 SB1 O5 54.452(21) 4_556 -1_666 n
CA1 SB1 O5 54.452(21) 4_556 -2_666 n
CA1 SB1 O5 54.452(21) 4_556 -3_666 n
O5 SB1 O5 89.598(30) 1_555 2_555 n
O5 SB1 O5 89.598(30) 1_555 3_555 n
O5 SB1 O5 179.9557 1_555 -1_666 n
O5 SB1 O5 90.402(30) 1_555 -2_666 n
O5 SB1 O5 90.402(30) 1_555 -3_666 n
O5 SB1 O5 89.598(30) 2_555 3_555 n
O5 SB1 O5 90.402(30) 2_555 -1_666 n
O5 SB1 O5 179.9557 2_555 -2_666 n
O5 SB1 O5 90.402(30) 2_555 -3_666 n
O5 SB1 O5 90.402(30) 3_555 -1_666 n
O5 SB1 O5 90.402(30) 3_555 -2_666 n
O5 SB1 O5 179.9557 3_555 -3_666 n
O5 SB1 O5 89.598(30) -1_666 -2_666 n
O5 SB1 O5 89.598(30) -1_666 -3_666 n
O5 SB1 O5 89.598(30) -2_666 -3_666 n
CA1 O5 CU2 107.446(29) 1_555 6_465 n
CA1 O5 GA3 87.32(4) 1_555 5_555 n
CA1 O5 SB1 88.14(4) 1_555 1_555 n
CA1 O5 Sb(3) 87.32(4) 1_555 5_555 n
CA1 O5 Ga(1) 88.14(4) 1_555 1_555 n
CU2 O5 GA3 108.71(6) 6_465 5_555 n
CU2 O5 SB1 110.33(6) 6_465 1_555 n
CU2 O5 Sb(3) 108.71(6) 6_465 5_555 n
CU2 O5 Ga(1) 110.33(6) 6_465 1_555 n
GA3 O5 SB1 140.229(33) 5_555 1_555 n
GA3 O5 Sb(3) 0.0 5_555 5_555 n
GA3 O5 Ga(1) 140.229(33) 5_555 1_555 n
SB1 O5 Sb(3) 140.229(33) 1_555 5_555 n
SB1 O5 Ga(1) 0.0 1_555 1_555 n
Sb(3) O5 Ga(1) 140.229(33) 5_555 1_555 n
CA1 Sb(3) CA1 179.9802 1_555 4_445 n
CA1 Sb(3) O5 54.407(20) 1_555 7_555 n
CA1 Sb(3) O5 54.407(21) 1_555 8_555 n
CA1 Sb(3) O5 54.407(21) 1_555 12_555 n
CA1 Sb(3) O5 125.593(20) 1_555 -7_555 n
CA1 Sb(3) O5 125.593(21) 1_555 -8_555 n
CA1 Sb(3) O5 125.593(21) 1_555 -12_555 n
CA1 Sb(3) O5 125.593(20) 4_445 7_555 n
CA1 Sb(3) O5 125.593(21) 4_445 8_555 n
CA1 Sb(3) O5 125.593(21) 4_445 12_555 n
CA1 Sb(3) O5 54.407(20) 4_445 -7_555 n
CA1 Sb(3) O5 54.407(21) 4_445 -8_555 n
CA1 Sb(3) O5 54.407(21) 4_445 -12_555 n
O5 Sb(3) O5 89.535(29) 7_555 8_555 n
O5 Sb(3) O5 89.535(29) 7_555 12_555 n
O5 Sb(3) O5 179.9802 7_555 -7_555 n
O5 Sb(3) O5 90.465(29) 7_555 -8_555 n
O5 Sb(3) O5 90.465(29) 7_555 -12_555 n
O5 Sb(3) O5 89.535(29) 8_555 12_555 n
O5 Sb(3) O5 90.465(29) 8_555 -7_555 n
O5 Sb(3) O5 179.9802 8_555 -8_555 n
O5 Sb(3) O5 90.465(29) 8_555 -12_555 n
O5 Sb(3) O5 90.465(29) 12_555 -7_555 n
O5 Sb(3) O5 90.465(29) 12_555 -8_555 n
O5 Sb(3) O5 179.9802 12_555 -12_555 n
O5 Sb(3) O5 89.535(29) -7_555 -8_555 n
O5 Sb(3) O5 89.535(29) -7_555 -12_555 n
O5 Sb(3) O5 89.535(29) -8_555 -12_555 n
CA1 Ga(1) CA1 179.9802 1_555 4_556 n
CA1 Ga(1) O5 54.452(21) 1_555 1_555 n
CA1 Ga(1) O5 54.452(21) 1_555 2_555 n
CA1 Ga(1) O5 54.452(21) 1_555 3_555 n
CA1 Ga(1) O5 125.548(21) 1_555 -1_666 n
CA1 Ga(1) O5 125.548(21) 1_555 -2_666 n
CA1 Ga(1) O5 125.548(21) 1_555 -3_666 n
CA1 Ga(1) O5 125.548(21) 4_556 1_555 n
CA1 Ga(1) O5 125.548(21) 4_556 2_555 n
CA1 Ga(1) O5 125.548(21) 4_556 3_555 n
CA1 Ga(1) O5 54.452(21) 4_556 -1_666 n
CA1 Ga(1) O5 54.452(21) 4_556 -2_666 n
CA1 Ga(1) O5 54.452(21) 4_556 -3_666 n
O5 Ga(1) O5 89.598(30) 1_555 2_555 n
O5 Ga(1) O5 89.598(30) 1_555 3_555 n
O5 Ga(1) O5 179.9557 1_555 -1_666 n
O5 Ga(1) O5 90.402(30) 1_555 -2_666 n
O5 Ga(1) O5 90.402(30) 1_555 -3_666 n
O5 Ga(1) O5 89.598(30) 2_555 3_555 n
O5 Ga(1) O5 90.402(30) 2_555 -1_666 n
O5 Ga(1) O5 179.9557 2_555 -2_666 n
O5 Ga(1) O5 90.402(30) 2_555 -3_666 n
O5 Ga(1) O5 90.402(30) 3_555 -1_666 n
O5 Ga(1) O5 90.402(30) 3_555 -2_666 n
O5 Ga(1) O5 179.9557 3_555 -3_666 n
O5 Ga(1) O5 89.598(30) -1_666 -2_666 n
O5 Ga(1) O5 89.598(30) -1_666 -3_666 n
O5 Ga(1) O5 89.598(30) -2_666 -3_666 n
loop_
_geom_bond_atom_site_label_1
_geom_bond_atom_site_label_2
_geom_bond_distance
_geom_bond_site_symmetry_2
_geom_bond_publ_flag
CA1 GA3 3.22509(15) 1_555 n
CA1 GA3 3.22509(15) 4_555 n
CA1 GA3 3.22509(15) 5_555 n
CA1 GA3 3.22509(15) 6_555 n
CA1 SB1 3.22509(15) 1_555 n
CA1 SB1 3.22509(15) 4_446 n
CA1 SB1 3.22509(15) 5_644 n
CA1 SB1 3.22509(15) 6_464 n
CA1 O5 2.6254(7) 1_555 n
CA1 O5 2.6254(7) 2_555 n
CA1 O5 2.6254(7) 3_555 n
CA1 O5 2.6254(7) 7_555 n
CA1 O5 2.6254(7) 8_555 n
CA1 O5 2.6254(7) 9_555 n
CA1 O5 2.6254(7) 10_555 n
CA1 O5 2.6254(7) 11_555 n
CA1 O5 2.6254(7) 12_555 n
CA1 O5 2.6254(7) -4_665 n
CA1 O5 2.6254(7) -5_566 n
CA1 O5 2.6254(7) -6_656 n
CA1 Sb(3) 3.22509(15) 1_555 n
CA1 Sb(3) 3.22509(15) 4_555 n
CA1 Sb(3) 3.22509(15) 5_555 n
CA1 Sb(3) 3.22509(15) 6_555 n
CA1 Ga(1) 3.22509(15) 1_555 n
CA1 Ga(1) 3.22509(15) 4_446 n
CA1 Ga(1) 3.22509(15) 5_644 n
CA1 Ga(1) 3.22509(15) 6_464 n
CU2 SB1 3.22509(15) 1_555 n
CU2 SB1 3.22509(15) 4_456 n
CU2 SB1 3.22509(15) 5_655 n
CU2 SB1 3.22509(15) 6_465 n
CU2 O5 1.9688(6) 5_655 n
CU2 O5 1.9688(6) -2_666 n
CU2 O5 1.9688(6) -7_566 n
CU2 O5 1.9688(6) -11_566 n
CU2 Sb(3) 3.22509(15) 1_566 n
CU2 Sb(3) 3.22509(15) 4_556 n
CU2 Sb(3) 3.22509(15) 5_555 n
CU2 Sb(3) 3.22509(15) 6_565 n
GA3 CA1 3.22509(15) 1_555 n
GA3 CA1 3.22509(15) 4_445 n
GA3 O5 1.9997(15) 7_555 n
GA3 O5 1.9997(15) 8_555 n
GA3 O5 1.9997(15) 12_555 n
GA3 O5 1.9997(15) -7_555 n
GA3 O5 1.9997(15) -8_555 n
GA3 O5 1.9997(15) -12_555 n
SB1 CA1 3.22509(15) 1_555 n
SB1 CA1 3.22509(15) 4_556 n
SB1 CU2 3.22509(15) 1_555 n
SB1 CU2 3.22509(15) 2_555 n
SB1 CU2 3.22509(15) 3_555 n
SB1 CU2 3.22509(15) 4_546 n
SB1 CU2 3.22509(15) 5_654 n
SB1 CU2 3.22509(15) 6_465 n
SB1 O5 1.9605(14) 1_555 n
SB1 O5 1.9605(14) 2_555 n
SB1 O5 1.9605(14) 3_555 n
SB1 O5 1.9605(14) -1_666 n
SB1 O5 1.9605(14) -2_666 n
SB1 O5 1.9605(14) -3_666 n
O5 CA1 2.6254(7) 1_555 n
O5 CU2 1.9688(6) 6_465 n
O5 GA3 1.9997(15) 5_555 n
O5 SB1 1.9605(14) 1_555 n
O5 Sb(3) 1.9997(15) 5_555 n
O5 Ga(1) 1.9605(14) 1_555 n
Sb(3) CA1 3.22509(15) 1_555 n
Sb(3) CA1 3.22509(15) 4_445 n
Sb(3) CU2 3.22509(15) 1_544 n
Sb(3) CU2 3.22509(15) 2_454 n
Sb(3) CU2 3.22509(15) 3_445 n
Sb(3) CU2 3.22509(15) 4_446 n
Sb(3) CU2 3.22509(15) 5_644 n
Sb(3) CU2 3.22509(15) 6_464 n
Sb(3) O5 1.9997(15) 7_555 n
Sb(3) O5 1.9997(15) 8_555 n
Sb(3) O5 1.9997(15) 12_555 n
Sb(3) O5 1.9997(15) -7_555 n
Sb(3) O5 1.9997(15) -8_555 n
Sb(3) O5 1.9997(15) -12_555 n
Ga(1) CA1 3.22509(15) 1_555 n
Ga(1) CA1 3.22509(15) 4_556 n
Ga(1) O5 1.9605(14) 1_555 n
Ga(1) O5 1.9605(14) 2_555 n
Ga(1) O5 1.9605(14) 3_555 n
Ga(1) O5 1.9605(14) -1_666 n
Ga(1) O5 1.9605(14) -2_666 n
Ga(1) O5 1.9605(14) -3_666 n
loop_
_pd_block_diffractogram_id
2003-04-29T10:33|LUFASOSBEXP_COMBINED_H_02|Michael_Lufaso|ILL_D20
2003-04-29T10:33|LUFASOSBEXP_COMBINED_H_03|Michael_Lufaso|Bruker_D8
