#------------------------------------------------------------------------------
#$Date: 2016-03-21 01:21:50 +0200 (Mon, 21 Mar 2016) $
#$Revision: 178377 $
#$URL: svn://www.crystallography.net/cod/cif/4/00/12/4001265.cif $
#------------------------------------------------------------------------------
#
# This file is available in the Crystallography Open Database (COD),
# http://www.crystallography.net/
#
# All data on this site have been placed in the public domain by the
# contributors.
#
data_4001265
loop_
_publ_author_name
'Cho, Jung Young'
'Millican, Jasmine N.'
'Capan, Cigdem'
'Sokolov, Dmitry A.'
'Moldovan, Monica'
'Karki, Amar B.'
'Young, David P.'
'Aronson, Meigan C.'
'Chan, Julia Y.'
_publ_section_title
;
 Crystal Growth, Structure, and Physical Properties ofLn2MGa12(Ln= La,
 Ce;M= Ni, Cu)
;
_journal_issue                   19
_journal_name_full               'Chemistry of Materials'
_journal_page_first              6116
_journal_paper_doi               10.1021/cm801693t
_journal_volume                  20
_journal_year                    2008
_chemical_formula_sum            'Ce2 Cu Ga12'
_chemical_formula_weight         1180.42
_chemical_name_systematic
; 
 ? 
;
_space_group_IT_number           125
_symmetry_cell_setting           tetragonal
_symmetry_space_group_name_Hall  '-P 4a 2b'
_symmetry_space_group_name_H-M   'P 4/n b m :2'
_atom_sites_solution_primary     direct
_atom_sites_solution_secondary   difmap
_audit_creation_method           SHELXL-97
_cell_angle_alpha                90.00
_cell_angle_beta                 90.00
_cell_angle_gamma                90.00
_cell_formula_units_Z            2
_cell_length_a                   6.090(2)
_cell_length_b                   6.090(2)
_cell_length_c                   15.348(7)
_cell_measurement_temperature    90(2)
_cell_volume                     569.2(4)
_computing_cell_refinement
'Denzo and Scalepack (Otwinowski & Minor, 1997)'
_computing_data_collection       'COLLECT (Nonius, 2000)'
_computing_data_reduction
'Denzo and Scalepack (Otwinowski & Minor, 1997)'
_computing_publication_material  'SHELXL-97 (Sheldrick, 1997)'
_computing_structure_refinement  'SHELXL-97 (Sheldrick, 1997)'
_computing_structure_solution    'SHELXS-97 (Sheldrick, 1990)'
_diffrn_ambient_temperature      90(2)
_diffrn_measured_fraction_theta_full 0.986
_diffrn_measured_fraction_theta_max 0.986
_diffrn_measurement_device_type  'KappaCCD (with Oxford Cryostram)'
_diffrn_measurement_method       ' \w scans \k offsets'
_diffrn_radiation_monochromator  graphite
_diffrn_radiation_source         'fine-focus sealed tube'
_diffrn_radiation_type           MoK\a
_diffrn_radiation_wavelength     0.71073
_diffrn_reflns_av_R_equivalents  0.0413
_diffrn_reflns_av_sigmaI/netI    0.0521
_diffrn_reflns_limit_h_max       8
_diffrn_reflns_limit_h_min       -8
_diffrn_reflns_limit_k_max       6
_diffrn_reflns_limit_k_min       -5
_diffrn_reflns_limit_l_max       21
_diffrn_reflns_limit_l_min       -16
_diffrn_reflns_number            1259
_diffrn_reflns_theta_full        30.07
_diffrn_reflns_theta_max         30.07
_diffrn_reflns_theta_min         3.98
_diffrn_standards_decay_%        none
_exptl_absorpt_coefficient_mu    37.447
_exptl_absorpt_correction_T_max  0.3996
_exptl_absorpt_correction_T_min  0.2561
_exptl_absorpt_correction_type   multi-scan
_exptl_absorpt_process_details   'HKL Scalepack (Otwinowski & Minor 1997)'
_exptl_crystal_colour            silver
_exptl_crystal_density_diffrn    6.887
_exptl_crystal_density_method    'not measured'
_exptl_crystal_description       'thin plates'
_exptl_crystal_F_000             1034
_exptl_crystal_size_max          0.05
_exptl_crystal_size_mid          0.05
_exptl_crystal_size_min          0.03
_refine_diff_density_max         5.635
_refine_diff_density_min         -3.352
_refine_diff_density_rms         0.611
_refine_ls_extinction_coef       0.0014(3)
_refine_ls_extinction_expression Fc^*^=kFc[1+0.001xFc^2^\l^3^/sin(2\q)]^-1/4^
_refine_ls_extinction_method     SHELXL
_refine_ls_goodness_of_fit_ref   1.093
_refine_ls_hydrogen_treatment    none
_refine_ls_matrix_type           full
_refine_ls_number_parameters     26
_refine_ls_number_reflns         476
_refine_ls_number_restraints     0
_refine_ls_restrained_S_all      1.093
_refine_ls_R_factor_all          0.0567
_refine_ls_R_factor_gt           0.0433
_refine_ls_shift/su_max          0.000
_refine_ls_shift/su_mean         0.000
_refine_ls_structure_factor_coef Fsqd
_refine_ls_weighting_details
'calc w=1/[\s^2^(Fo^2^)+(0.0518P)^2^+6.8961P] where P=(Fo^2^+2Fc^2^)/3'
_refine_ls_weighting_scheme      calc
_refine_ls_wR_factor_gt          0.1045
_refine_ls_wR_factor_ref         0.1114
_reflns_number_gt                375
_reflns_number_total             476
_reflns_threshold_expression     >2sigma(I)
_cod_data_source_file            cm801693t_si_004.cif
_cod_data_source_block           shelxl
_cod_original_sg_symbol_H-M      'P 4/n b m'
_cod_database_code               4001265
loop_
_symmetry_equiv_pos_as_xyz
'x, y, z'
'-x+1/2, -y+1/2, z'
'x, -y+1/2, -z'
'-x+1/2, y, -z'
'-y+1/2, -x+1/2, -z'
'y, x, -z'
'y, -x+1/2, z'
'-y+1/2, x, z'
'-x, -y, -z'
'x-1/2, y-1/2, -z'
'-x, y-1/2, z'
'x-1/2, -y, z'
'y-1/2, x-1/2, z'
'-y, -x, z'
'-y, x-1/2, -z'
'y-1/2, -x, -z'
loop_
_atom_site_label
_atom_site_type_symbol
_atom_site_fract_x
_atom_site_fract_y
_atom_site_fract_z
_atom_site_U_iso_or_equiv
_atom_site_adp_type
_atom_site_occupancy
_atom_site_symmetry_multiplicity
_atom_site_calc_flag
_atom_site_refinement_flags
Ce1 Ce 0.7500 0.2500 0.24622(5) 0.0019(3) Uani 1 4 d S
Cu1 Cu 0.7500 0.2500 0.0000 0.0035(6) Uani 1 8 d S
Ga1 Ga 0.7500 0.7500 0.17778(11) 0.0032(4) Uani 1 4 d S
Ga2 Ga 0.7500 0.7500 0.33677(12) 0.0042(4) Uani 1 4 d S
Ga3 Ga 0.50017(13) 0.00017(13) -0.08519(8) 0.0043(3) Uani 1 2 d S
Ga4 Ga 0.56536(18) 0.06536(18) 0.42652(9) 0.0145(4) Uani 1 2 d S
loop_
_atom_site_aniso_label
_atom_site_aniso_U_11
_atom_site_aniso_U_22
_atom_site_aniso_U_33
_atom_site_aniso_U_23
_atom_site_aniso_U_13
_atom_site_aniso_U_12
Ce1 0.0026(4) 0.0026(4) 0.0005(5) 0.000 0.000 -0.0001(3)
Cu1 0.0048(8) 0.0048(8) 0.0011(13) 0.000 0.000 0.000
Ga1 0.0040(5) 0.0040(5) 0.0015(9) 0.000 0.000 0.000
Ga2 0.0050(6) 0.0050(6) 0.0027(8) 0.000 0.000 0.000
Ga3 0.0056(4) 0.0056(4) 0.0017(6) 0.0001(3) 0.0001(3) -0.0017(4)
Ga4 0.0188(5) 0.0188(5) 0.0057(7) 0.0044(4) 0.0044(4) 0.0104(6)
loop_
_atom_type_symbol
_atom_type_description
_atom_type_scat_dispersion_real
_atom_type_scat_dispersion_imag
_atom_type_scat_source
Ce Ce -0.2486 2.6331 'International Tables Vol C Tables 4.2.6.8 and 6.1.1.4'
Cu Cu 0.3201 1.2651 'International Tables Vol C Tables 4.2.6.8 and 6.1.1.4'
Ga Ga 0.2307 1.6083 'International Tables Vol C Tables 4.2.6.8 and 6.1.1.4'
loop_
_geom_angle_atom_site_label_1
_geom_angle_atom_site_label_2
_geom_angle_atom_site_label_3
_geom_angle
_geom_angle_site_symmetry_1
_geom_angle_site_symmetry_3
Ga4 Ce1 Ga4 59.77(7) . 2_655
Ga4 Ce1 Ga1 87.12(4) . 11_655
Ga4 Ce1 Ga1 128.01(4) 2_655 11_655
Ga4 Ce1 Ga1 87.12(4) . 1_545
Ga4 Ce1 Ga1 128.01(4) 2_655 1_545
Ga1 Ce1 Ga1 83.90(2) 11_655 1_545
Ga4 Ce1 Ga1 128.01(4) . 11_755
Ga4 Ce1 Ga1 87.12(4) 2_655 11_755
Ga1 Ce1 Ga1 141.94(7) 11_655 11_755
Ga1 Ce1 Ga1 83.90(2) 1_545 11_755
Ga4 Ce1 Ga1 128.01(4) . .
Ga4 Ce1 Ga1 87.12(4) 2_655 .
Ga1 Ce1 Ga1 83.90(2) 11_655 .
Ga1 Ce1 Ga1 141.94(7) 1_545 .
Ga1 Ce1 Ga1 83.90(2) 11_755 .
Ga4 Ce1 Ga3 130.84(3) . 4_655
Ga4 Ce1 Ga3 130.84(3) 2_655 4_655
Ga1 Ce1 Ga3 101.13(4) 11_655 4_655
Ga1 Ce1 Ga3 46.77(3) 1_545 4_655
Ga1 Ce1 Ga3 46.77(3) 11_755 4_655
Ga1 Ce1 Ga3 101.13(4) . 4_655
Ga4 Ce1 Ga3 130.84(3) . 3
Ga4 Ce1 Ga3 130.84(3) 2_655 3
Ga1 Ce1 Ga3 46.77(3) 11_655 3
Ga1 Ce1 Ga3 101.13(4) 1_545 3
Ga1 Ce1 Ga3 101.13(4) 11_755 3
Ga1 Ce1 Ga3 46.77(3) . 3
Ga3 Ce1 Ga3 82.09(6) 4_655 3
Ga4 Ce1 Ga3 109.03(5) . 9_655
Ga4 Ce1 Ga3 168.80(4) 2_655 9_655
Ga1 Ce1 Ga3 46.76(3) 11_655 9_655
Ga1 Ce1 Ga3 46.76(3) 1_545 9_655
Ga1 Ce1 Ga3 101.16(4) 11_755 9_655
Ga1 Ce1 Ga3 101.16(4) . 9_655
Ga3 Ce1 Ga3 55.35(3) 4_655 9_655
Ga3 Ce1 Ga3 55.35(3) 3 9_655
Ga4 Ce1 Ga3 168.80(4) . 10_665
Ga4 Ce1 Ga3 109.04(5) 2_655 10_665
Ga1 Ce1 Ga3 101.16(4) 11_655 10_665
Ga1 Ce1 Ga3 101.16(4) 1_545 10_665
Ga1 Ce1 Ga3 46.76(3) 11_755 10_665
Ga1 Ce1 Ga3 46.76(3) . 10_665
Ga3 Ce1 Ga3 55.35(3) 4_655 10_665
Ga3 Ce1 Ga3 55.35(3) 3 10_665
Ga3 Ce1 Ga3 82.16(6) 9_655 10_665
Ga4 Ce1 Ga2 87.74(5) . 11_755
Ga4 Ce1 Ga2 47.12(3) 2_655 11_755
Ga1 Ce1 Ga2 174.50(5) 11_655 11_755
Ga1 Ce1 Ga2 97.781(17) 1_545 11_755
Ga1 Ce1 Ga2 43.56(5) 11_755 11_755
Ga1 Ce1 Ga2 97.781(17) . 11_755
Ga3 Ce1 Ga2 83.73(4) 4_655 11_755
Ga3 Ce1 Ga2 137.35(3) 3 11_755
Ga3 Ce1 Ga2 137.36(3) 9_655 11_755
Ga3 Ce1 Ga2 83.70(4) 10_665 11_755
Ga4 Ce1 Ga2 47.12(3) . 1_545
Ga4 Ce1 Ga2 87.74(5) 2_655 1_545
Ga1 Ce1 Ga2 97.781(16) 11_655 1_545
Ga1 Ce1 Ga2 43.56(5) 1_545 1_545
Ga1 Ce1 Ga2 97.781(17) 11_755 1_545
Ga1 Ce1 Ga2 174.50(5) . 1_545
Ga3 Ce1 Ga2 83.73(4) 4_655 1_545
Ga3 Ce1 Ga2 137.35(3) 3 1_545
Ga3 Ce1 Ga2 83.70(4) 9_655 1_545
Ga3 Ce1 Ga2 137.36(3) 10_665 1_545
Ga2 Ce1 Ga2 80.07(3) 11_755 1_545
Ga3 Cu1 Ga3 117.43(6) 4_655 3
Ga3 Cu1 Ga3 105.65(3) 4_655 .
Ga3 Cu1 Ga3 105.65(3) 3 .
Ga3 Cu1 Ga3 105.65(3) 4_655 2_655
Ga3 Cu1 Ga3 105.65(3) 3 2_655
Ga3 Cu1 Ga3 117.43(6) . 2_655
Ga3 Cu1 Ga3 74.37(2) 4_655 10_665
Ga3 Cu1 Ga3 74.37(2) 3 10_665
Ga3 Cu1 Ga3 179.97(4) . 10_665
Ga3 Cu1 Ga3 62.54(5) 2_655 10_665
Ga3 Cu1 Ga3 74.37(2) 4_655 9_655
Ga3 Cu1 Ga3 74.37(2) 3 9_655
Ga3 Cu1 Ga3 62.54(5) . 9_655
Ga3 Cu1 Ga3 179.97(4) 2_655 9_655
Ga3 Cu1 Ga3 117.50(6) 10_665 9_655
Ga3 Cu1 Ga3 62.54(5) 4_655 12_655
Ga3 Cu1 Ga3 179.97(4) 3 12_655
Ga3 Cu1 Ga3 74.37(2) . 12_655
Ga3 Cu1 Ga3 74.37(2) 2_655 12_655
Ga3 Cu1 Ga3 105.61(3) 10_665 12_655
Ga3 Cu1 Ga3 105.61(3) 9_655 12_655
Ga3 Cu1 Ga3 179.97(4) 4_655 11_665
Ga3 Cu1 Ga3 62.54(5) 3 11_665
Ga3 Cu1 Ga3 74.37(2) . 11_665
Ga3 Cu1 Ga3 74.37(2) 2_655 11_665
Ga3 Cu1 Ga3 105.61(3) 10_665 11_665
Ga3 Cu1 Ga3 105.61(3) 9_655 11_665
Ga3 Cu1 Ga3 117.50(6) 12_655 11_665
Ga2 Ga1 Ga3 123.42(4) . 3
Ga2 Ga1 Ga3 123.42(4) . 4_665
Ga3 Ga1 Ga3 113.15(8) 3 4_665
Ga2 Ga1 Ga3 123.42(4) . 10_665
Ga3 Ga1 Ga3 72.34(4) 3 10_665
Ga3 Ga1 Ga3 72.34(4) 4_665 10_665
Ga2 Ga1 Ga3 123.42(4) . 9_665
Ga3 Ga1 Ga3 72.34(4) 3 9_665
Ga3 Ga1 Ga3 72.34(4) 4_665 9_665
Ga3 Ga1 Ga3 113.15(8) 10_665 9_665
Ga2 Ga1 Ce1 70.97(4) . 1_565
Ga3 Ga1 Ce1 137.55(3) 3 1_565
Ga3 Ga1 Ce1 67.75(3) 4_665 1_565
Ga3 Ga1 Ce1 137.49(3) 10_665 1_565
Ga3 Ga1 Ce1 67.80(3) 9_665 1_565
Ga2 Ga1 Ce1 70.97(4) . 11_765
Ga3 Ga1 Ce1 137.49(3) 3 11_765
Ga3 Ga1 Ce1 67.80(3) 4_665 11_765
Ga3 Ga1 Ce1 67.75(3) 10_665 11_765
Ga3 Ga1 Ce1 137.55(3) 9_665 11_765
Ce1 Ga1 Ce1 83.90(2) 1_565 11_765
Ga2 Ga1 Ce1 70.97(4) . 11_665
Ga3 Ga1 Ce1 67.80(3) 3 11_665
Ga3 Ga1 Ce1 137.49(3) 4_665 11_665
Ga3 Ga1 Ce1 137.55(3) 10_665 11_665
Ga3 Ga1 Ce1 67.75(3) 9_665 11_665
Ce1 Ga1 Ce1 83.90(2) 1_565 11_665
Ce1 Ga1 Ce1 141.94(7) 11_765 11_665
Ga2 Ga1 Ce1 70.97(4) . .
Ga3 Ga1 Ce1 67.75(3) 3 .
Ga3 Ga1 Ce1 137.55(3) 4_665 .
Ga3 Ga1 Ce1 67.80(3) 10_665 .
Ga3 Ga1 Ce1 137.49(3) 9_665 .
Ce1 Ga1 Ce1 141.94(7) 1_565 .
Ce1 Ga1 Ce1 83.90(2) 11_765 .
Ce1 Ga1 Ce1 83.90(2) 11_665 .
Ga1 Ga2 Ga4 121.76(4) . 12_665
Ga1 Ga2 Ga4 121.76(4) . 1_565
Ga4 Ga2 Ga4 73.92(4) 12_665 1_565
Ga1 Ga2 Ga4 121.76(4) . 11_665
Ga4 Ga2 Ga4 116.49(9) 12_665 11_665
Ga4 Ga2 Ga4 73.92(4) 1_565 11_665
Ga1 Ga2 Ga4 121.76(4) . 2_655
Ga4 Ga2 Ga4 73.92(4) 12_665 2_655
Ga4 Ga2 Ga4 116.49(9) 1_565 2_655
Ga4 Ga2 Ga4 73.92(4) 11_665 2_655
Ga1 Ga2 Ce1 65.47(3) . .
Ga4 Ga2 Ce1 127.54(3) 12_665 .
Ga4 Ga2 Ce1 152.38(4) 1_565 .
Ga4 Ga2 Ce1 80.08(4) 11_665 .
Ga4 Ga2 Ce1 63.32(4) 2_655 .
Ga1 Ga2 Ce1 65.47(3) . 11_665
Ga4 Ga2 Ce1 152.38(4) 12_665 11_665
Ga4 Ga2 Ce1 80.08(4) 1_565 11_665
Ga4 Ga2 Ce1 63.32(4) 11_665 11_665
Ga4 Ga2 Ce1 127.54(4) 2_655 11_665
Ce1 Ga2 Ce1 80.07(3) . 11_665
Ga1 Ga2 Ce1 65.47(3) . 1_565
Ga4 Ga2 Ce1 80.08(4) 12_665 1_565
Ga4 Ga2 Ce1 63.32(4) 1_565 1_565
Ga4 Ga2 Ce1 127.54(3) 11_665 1_565
Ga4 Ga2 Ce1 152.38(4) 2_655 1_565
Ce1 Ga2 Ce1 130.94(7) . 1_565
Ce1 Ga2 Ce1 80.07(3) 11_665 1_565
Ga1 Ga2 Ce1 65.47(3) . 11_765
Ga4 Ga2 Ce1 63.32(4) 12_665 11_765
Ga4 Ga2 Ce1 127.54(4) 1_565 11_765
Ga4 Ga2 Ce1 152.38(4) 11_665 11_765
Ga4 Ga2 Ce1 80.08(4) 2_655 11_765
Ce1 Ga2 Ce1 80.07(3) . 11_765
Ce1 Ga2 Ce1 130.94(7) 11_665 11_765
Ce1 Ga2 Ce1 80.07(3) 1_565 11_765
Cu1 Ga3 Cu1 117.46(5) . 9_655
Cu1 Ga3 Ga1 106.65(4) . 3
Cu1 Ga3 Ga1 106.58(4) 9_655 3
Cu1 Ga3 Ga1 106.65(4) . 9_665
Cu1 Ga3 Ga1 106.58(4) 9_655 9_665
Ga1 Ga3 Ga1 113.15(8) 3 9_665
Cu1 Ga3 Ga3 58.78(5) . 9_655
Cu1 Ga3 Ga3 58.68(5) 9_655 9_655
Ga1 Ga3 Ga3 123.42(4) 3 9_655
Ga1 Ga3 Ga3 123.42(4) 9_665 9_655
Cu1 Ga3 Ce1 80.24(4) . 3
Cu1 Ga3 Ce1 162.30(5) 9_655 3
Ga1 Ga3 Ce1 65.48(4) 3 3
Ga1 Ga3 Ce1 65.48(4) 9_665 3
Ga3 Ga3 Ce1 139.02(7) 9_655 3
Cu1 Ga3 Ce1 162.37(5) . 9_655
Cu1 Ga3 Ce1 80.17(4) 9_655 9_655
Ga1 Ga3 Ce1 65.44(4) 3 9_655
Ga1 Ga3 Ce1 65.44(4) 9_665 9_655
Ga3 Ga3 Ce1 138.85(7) 9_655 9_655
Ce1 Ga3 Ce1 82.13(5) 3 9_655
Ga4 Ga4 Ga2 112.02(6) 9_656 11_655
Ga4 Ga4 Ga2 112.02(6) 9_656 1_545
Ga2 Ga4 Ga2 110.70(8) 11_655 1_545
Ga4 Ga4 Ce1 176.64(10) 9_656 .
Ga2 Ga4 Ce1 69.56(4) 11_655 .
Ga2 Ga4 Ce1 69.56(4) 1_545 .
loop_
_geom_bond_atom_site_label_1
_geom_bond_atom_site_label_2
_geom_bond_distance
_geom_bond_site_symmetry_2
Ce1 Ga4 3.1917(19) .
Ce1 Ga4 3.1917(19) 2_655
Ce1 Ga1 3.2211(12) 11_655
Ce1 Ga1 3.2211(12) 1_545
Ce1 Ga1 3.2211(12) 11_755
Ce1 Ga1 3.2211(12) .
Ce1 Ga3 3.2768(17) 4_655
Ce1 Ga3 3.2768(17) 3
Ce1 Ga3 3.2787(17) 9_655
Ce1 Ga3 3.2787(17) 10_665
Ce1 Ga2 3.3471(13) 11_755
Ce1 Ga2 3.3471(13) 1_545
Cu1 Ga3 2.5178(14) 4_655
Cu1 Ga3 2.5178(13) 3
Cu1 Ga3 2.5178(13) .
Cu1 Ga3 2.5178(14) 2_655
Cu1 Ga3 2.5203(13) 10_665
Cu1 Ga3 2.5203(13) 9_655
Cu1 Ga3 2.5203(13) 12_655
Cu1 Ga3 2.5203(13) 11_665
Ga1 Ga2 2.440(3) .
Ga1 Ga3 2.5798(13) 3
Ga1 Ga3 2.5798(13) 4_665
Ga1 Ga3 2.5798(13) 10_665
Ga1 Ga3 2.5798(13) 9_665
Ga1 Ce1 3.2211(12) 1_565
Ga1 Ce1 3.2211(12) 11_765
Ga1 Ce1 3.2211(12) 11_665
Ga2 Ga4 2.6174(14) 12_665
Ga2 Ga4 2.6174(14) 1_565
Ga2 Ga4 2.6174(14) 11_665
Ga2 Ga4 2.6174(14) 2_655
Ga2 Ce1 3.3472(13) 11_665
Ga2 Ce1 3.3472(13) 1_565
Ga2 Ce1 3.3472(13) 11_765
Ga3 Cu1 2.5203(13) 9_655
Ga3 Ga1 2.5798(13) 3
Ga3 Ga1 2.5798(13) 9_665
Ga3 Ga3 2.615(3) 9_655
Ga3 Ce1 3.2768(17) 3
Ga3 Ce1 3.2787(17) 9_655
Ga4 Ga4 2.521(3) 9_656
Ga4 Ga2 2.6174(14) 11_655
Ga4 Ga2 2.6174(14) 1_545
