#------------------------------------------------------------------------------
#$Date: 2016-03-21 01:21:50 +0200 (Mon, 21 Mar 2016) $
#$Revision: 178377 $
#$URL: svn://www.crystallography.net/cod/cif/4/00/19/4001998.cif $
#------------------------------------------------------------------------------
#
# This file is available in the Crystallography Open Database (COD),
# http://www.crystallography.net/
#
# All data on this site have been placed in the public domain by the
# contributors.
#
data_4001998
loop_
_publ_author_name
'Bie, Haiying'
'Zelinska, Oksana Ya.'
'Tkachuk, Andriy V.'
'Mar, Arthur'
_publ_section_title
;
 Structures and Physical Properties of Rare-Earth Chromium Germanides
 RECrGe3(RE = La&#x2212;Nd, Sm)
;
_journal_issue                   18
_journal_name_full               'Chemistry of Materials'
_journal_page_first              4613
_journal_paper_doi               10.1021/cm071276+
_journal_volume                  19
_journal_year                    2007
_chemical_formula_structural     'Nd Cr Ge3'
_chemical_formula_sum            'Cr Ge3 Nd'
_chemical_formula_weight         414.01
_chemical_name_common            'neodymium chromium trigermanide'
_chemical_name_systematic        'neodymium chromium germanide (1/1/3)'
_space_group_IT_number           194
_symmetry_cell_setting           hexagonal
_symmetry_space_group_name_Hall  '-P 6c 2c'
_symmetry_space_group_name_H-M   'P 63/m m c'
_atom_sites_solution_primary     direct
_atom_sites_solution_secondary   difmap
_audit_creation_method           SHELXL-97
_cell_angle_alpha                90.00
_cell_angle_beta                 90.00
_cell_angle_gamma                120.00
_cell_formula_units_Z            2
_cell_length_a                   6.1264(4)
_cell_length_b                   6.1264(4)
_cell_length_c                   5.6914(4)
_cell_measurement_reflns_used    2406
_cell_measurement_temperature    295(2)
_cell_measurement_theta_max      26.34
_cell_measurement_theta_min      3.58
_cell_volume                     185.00(2)
_computing_cell_refinement       'Bruker SAINT 7.06 (Bruker, 2004)'
_computing_data_collection       'Bruker SMART 5.054 (Bruker, 1999)'
_computing_data_reduction        'Bruker SAINT 7.06'
_computing_molecular_graphics    'ATOMS 5.1 (Dowty, 1999)'
_computing_publication_material  'Bruker SHELXTL 6.12'
_computing_structure_refinement  'Bruker SHELXTL 6.12'
_computing_structure_solution    'Bruker SHELXTL 6.12'
_diffrn_ambient_temperature      295(2)
_diffrn_measured_fraction_theta_full 1.000
_diffrn_measured_fraction_theta_max 1.000
_diffrn_measurement_device_type  'Bruker Platform/SMART 1000 CCD'
_diffrn_measurement_method       '\w scans'
_diffrn_radiation_monochromator  graphite
_diffrn_radiation_source         'fine-focus sealed tube'
_diffrn_radiation_type           MoK\a
_diffrn_radiation_wavelength     0.71073
_diffrn_reflns_av_R_equivalents  0.0471
_diffrn_reflns_av_sigmaI/netI    0.0187
_diffrn_reflns_limit_h_max       7
_diffrn_reflns_limit_h_min       -7
_diffrn_reflns_limit_k_max       7
_diffrn_reflns_limit_k_min       -7
_diffrn_reflns_limit_l_max       7
_diffrn_reflns_limit_l_min       -7
_diffrn_reflns_number            1395
_diffrn_reflns_theta_full        26.34
_diffrn_reflns_theta_max         26.34
_diffrn_reflns_theta_min         3.84
_diffrn_standards_number         0
_exptl_absorpt_coefficient_mu    40.455
_exptl_absorpt_correction_T_max  0.0698
_exptl_absorpt_correction_T_min  0.0037
_exptl_absorpt_correction_type   numerical
_exptl_absorpt_process_details   'Bruker SHELXTL 6.12 (Sheldrick, 2001)'
_exptl_crystal_colour            black
_exptl_crystal_density_diffrn    7.432
_exptl_crystal_density_method    'not measured'
_exptl_crystal_description       prism
_exptl_crystal_F_000             360
_exptl_crystal_size_max          0.42
_exptl_crystal_size_mid          0.14
_exptl_crystal_size_min          0.11
_refine_diff_density_max         0.865
_refine_diff_density_min         -1.657
_refine_diff_density_rms         0.356
_refine_ls_extinction_coef       0.161(15)
_refine_ls_extinction_expression Fc^*^=kFc[1+0.001xFc^2^\l^3^/sin(2\q)]^-1/4^
_refine_ls_extinction_method     SHELXL
_refine_ls_goodness_of_fit_ref   1.064
_refine_ls_matrix_type           full
_refine_ls_number_parameters     10
_refine_ls_number_reflns         93
_refine_ls_number_restraints     0
_refine_ls_restrained_S_all      1.064
_refine_ls_R_factor_all          0.0235
_refine_ls_R_factor_gt           0.0235
_refine_ls_shift/su_max          0.010
_refine_ls_shift/su_mean         0.003
_refine_ls_structure_factor_coef Fsqd
_refine_ls_weighting_details
'calc w=1/[\s^2^(Fo^2^)+(0.0470P)^2^+2.1210P] where P=(Fo^2^+2Fc^2^)/3'
_refine_ls_weighting_scheme      calc
_refine_ls_wR_factor_gt          0.0636
_refine_ls_wR_factor_ref         0.0636
_reflns_number_gt                93
_reflns_number_total             93
_reflns_threshold_expression     I>2\s(I)
_cod_data_source_file            cm071276%2Bsi20070510_045056.cif
_cod_data_source_block           NdCrGe3
_cod_database_code               4001998
loop_
_symmetry_equiv_pos_as_xyz
'x, y, z'
'-y, x-y, z'
'-x+y, -x, z'
'-x, -y, z+1/2'
'y, -x+y, z+1/2'
'x-y, x, z+1/2'
'y, x, -z'
'x-y, -y, -z'
'-x, -x+y, -z'
'-y, -x, -z+1/2'
'-x+y, y, -z+1/2'
'x, x-y, -z+1/2'
'-x, -y, -z'
'y, -x+y, -z'
'x-y, x, -z'
'x, y, -z-1/2'
'-y, x-y, -z-1/2'
'-x+y, -x, -z-1/2'
'-y, -x, z'
'-x+y, y, z'
'x, x-y, z'
'y, x, z-1/2'
'x-y, -y, z-1/2'
'-x, -x+y, z-1/2'
loop_
_atom_site_label
_atom_site_type_symbol
_atom_site_fract_x
_atom_site_fract_y
_atom_site_fract_z
_atom_site_U_iso_or_equiv
_atom_site_adp_type
_atom_site_occupancy
_atom_site_symmetry_multiplicity
_atom_site_calc_flag
_atom_site_refinement_flags
Nd1 Nd 0.3333 0.6667 0.7500 0.0101(6) Uani 1 12 d S
Ge1 Ge 0.19322(15) 0.3864(3) 0.2500 0.0101(6) Uani 1 4 d S
Cr1 Cr 0.0000 0.0000 0.0000 0.0096(8) Uani 1 12 d S
loop_
_atom_site_aniso_label
_atom_site_aniso_U_11
_atom_site_aniso_U_22
_atom_site_aniso_U_33
_atom_site_aniso_U_23
_atom_site_aniso_U_13
_atom_site_aniso_U_12
Nd1 0.0091(7) 0.0091(7) 0.0121(8) 0.000 0.000 0.0045(3)
Ge1 0.0081(7) 0.0079(9) 0.0141(9) 0.000 0.000 0.0040(4)
Cr1 0.0087(10) 0.0087(10) 0.0115(15) 0.000 0.000 0.0043(5)
loop_
_atom_type_symbol
_atom_type_description
_atom_type_scat_dispersion_real
_atom_type_scat_dispersion_imag
_atom_type_scat_source
Cr Cr 0.3209 0.6236 'International Tables Vol C Tables 4.2.6.8 and 6.1.1.4'
Ge Ge 0.1547 1.8001 'International Tables Vol C Tables 4.2.6.8 and 6.1.1.4'
Nd Nd -0.1943 3.0179 'International Tables Vol C Tables 4.2.6.8 and 6.1.1.4'
loop_
_geom_angle_atom_site_label_1
_geom_angle_atom_site_label_2
_geom_angle_atom_site_label_3
_geom_angle
_geom_angle_site_symmetry_1
_geom_angle_site_symmetry_3
Ge1 Nd1 Ge1 49.49(6) 14_566 15_666
Ge1 Nd1 Ge1 70.51(6) 14_566 13_566
Ge1 Nd1 Ge1 120.0 15_666 13_566
Ge1 Nd1 Ge1 120.0 14_566 15_556
Ge1 Nd1 Ge1 169.49(6) 15_666 15_556
Ge1 Nd1 Ge1 49.49(6) 13_566 15_556
Ge1 Nd1 Ge1 120.000(1) 14_566 13_666
Ge1 Nd1 Ge1 70.51(6) 15_666 13_666
Ge1 Nd1 Ge1 169.49(6) 13_566 13_666
Ge1 Nd1 Ge1 120.0 15_556 13_666
Ge1 Nd1 Ge1 169.49(6) 14_566 14_556
Ge1 Nd1 Ge1 120.0 15_666 14_556
Ge1 Nd1 Ge1 120.000(1) 13_566 14_556
Ge1 Nd1 Ge1 70.51(6) 15_556 14_556
Ge1 Nd1 Ge1 49.49(6) 13_666 14_556
Ge1 Nd1 Ge1 67.78(3) 14_566 3_566
Ge1 Nd1 Ge1 87.569(11) 15_666 3_566
Ge1 Nd1 Ge1 67.78(3) 13_566 3_566
Ge1 Nd1 Ge1 87.569(11) 15_556 3_566
Ge1 Nd1 Ge1 114.869(16) 13_666 3_566
Ge1 Nd1 Ge1 114.869(16) 14_556 3_566
Ge1 Nd1 Ge1 67.78(3) 14_566 3_565
Ge1 Nd1 Ge1 87.569(11) 15_666 3_565
Ge1 Nd1 Ge1 67.78(3) 13_566 3_565
Ge1 Nd1 Ge1 87.569(11) 15_556 3_565
Ge1 Nd1 Ge1 114.869(16) 13_666 3_565
Ge1 Nd1 Ge1 114.869(16) 14_556 3_565
Ge1 Nd1 Ge1 124.83(5) 3_566 3_565
Ge1 Nd1 Ge1 114.869(16) 14_566 .
Ge1 Nd1 Ge1 114.869(16) 15_666 .
Ge1 Nd1 Ge1 87.569(11) 13_566 .
Ge1 Nd1 Ge1 67.78(3) 15_556 .
Ge1 Nd1 Ge1 87.569(11) 13_666 .
Ge1 Nd1 Ge1 67.78(3) 14_556 .
Ge1 Nd1 Ge1 153.23(2) 3_566 .
Ge1 Nd1 Ge1 47.28(4) 3_565 .
Ge1 Nd1 Ge1 87.569(11) 14_566 2_666
Ge1 Nd1 Ge1 67.78(3) 15_666 2_666
Ge1 Nd1 Ge1 114.869(16) 13_566 2_666
Ge1 Nd1 Ge1 114.869(16) 15_556 2_666
Ge1 Nd1 Ge1 67.78(3) 13_666 2_666
Ge1 Nd1 Ge1 87.569(11) 14_556 2_666
Ge1 Nd1 Ge1 47.28(4) 3_566 2_666
Ge1 Nd1 Ge1 153.23(2) 3_565 2_666
Ge1 Nd1 Ge1 153.23(2) . 2_666
Ge1 Nd1 Ge1 114.869(16) 14_566 1_556
Ge1 Nd1 Ge1 114.869(16) 15_666 1_556
Ge1 Nd1 Ge1 87.569(11) 13_566 1_556
Ge1 Nd1 Ge1 67.78(3) 15_556 1_556
Ge1 Nd1 Ge1 87.569(11) 13_666 1_556
Ge1 Nd1 Ge1 67.78(3) 14_556 1_556
Ge1 Nd1 Ge1 47.28(4) 3_566 1_556
Ge1 Nd1 Ge1 153.23(2) 3_565 1_556
Ge1 Nd1 Ge1 124.83(5) . 1_556
Ge1 Nd1 Ge1 47.28(4) 2_666 1_556
Ge1 Nd1 Ge1 87.569(11) 14_566 2_665
Ge1 Nd1 Ge1 67.78(3) 15_666 2_665
Ge1 Nd1 Ge1 114.869(16) 13_566 2_665
Ge1 Nd1 Ge1 114.869(16) 15_556 2_665
Ge1 Nd1 Ge1 67.78(3) 13_666 2_665
Ge1 Nd1 Ge1 87.569(11) 14_556 2_665
Ge1 Nd1 Ge1 153.23(2) 3_566 2_665
Ge1 Nd1 Ge1 47.28(4) 3_565 2_665
Ge1 Nd1 Ge1 47.28(4) . 2_665
Ge1 Nd1 Ge1 124.83(5) 2_666 2_665
Ge1 Nd1 Ge1 153.23(2) 1_556 2_665
Cr1 Ge1 Cr1 69.52(4) . 4
Cr1 Ge1 Ge1 135.356(14) . 2_665
Cr1 Ge1 Ge1 135.356(14) 4 2_665
Cr1 Ge1 Ge1 135.356(14) . 3_565
Cr1 Ge1 Ge1 135.356(14) 4 3_565
Ge1 Ge1 Ge1 60.0 2_665 3_565
Cr1 Ge1 Nd1 85.68(2) . 13_566
Cr1 Ge1 Nd1 85.68(2) 4 13_566
Ge1 Ge1 Nd1 125.26(3) 2_665 13_566
Ge1 Ge1 Nd1 65.26(3) 3_565 13_566
Cr1 Ge1 Nd1 85.68(2) . 13_666
Cr1 Ge1 Nd1 85.68(2) 4 13_666
Ge1 Ge1 Nd1 65.26(3) 2_665 13_666
Ge1 Ge1 Nd1 125.26(3) 3_565 13_666
Nd1 Ge1 Nd1 169.49(6) 13_566 13_666
Cr1 Ge1 Nd1 152.34(4) . .
Cr1 Ge1 Nd1 82.826(6) 4 .
Ge1 Ge1 Nd1 66.36(2) 2_665 .
Ge1 Ge1 Nd1 66.36(2) 3_565 .
Nd1 Ge1 Nd1 92.431(11) 13_566 .
Nd1 Ge1 Nd1 92.431(11) 13_666 .
Cr1 Ge1 Nd1 82.826(6) . 1_554
Cr1 Ge1 Nd1 152.34(4) 4 1_554
Ge1 Ge1 Nd1 66.36(2) 2_665 1_554
Ge1 Ge1 Nd1 66.36(2) 3_565 1_554
Nd1 Ge1 Nd1 92.431(11) 13_566 1_554
Nd1 Ge1 Nd1 92.431(11) 13_666 1_554
Nd1 Ge1 Nd1 124.83(5) . 1_554
Ge1 Cr1 Ge1 180.0 13 .
Ge1 Cr1 Ge1 90.71(3) 13 14
Ge1 Cr1 Ge1 89.29(3) . 14
Ge1 Cr1 Ge1 89.29(3) 13 2
Ge1 Cr1 Ge1 90.71(3) . 2
Ge1 Cr1 Ge1 180.0 14 2
Ge1 Cr1 Ge1 90.71(3) 13 15
Ge1 Cr1 Ge1 89.29(3) . 15
Ge1 Cr1 Ge1 90.71(3) 14 15
Ge1 Cr1 Ge1 89.29(3) 2 15
Ge1 Cr1 Ge1 89.29(3) 13 3
Ge1 Cr1 Ge1 90.71(3) . 3
Ge1 Cr1 Ge1 89.29(3) 14 3
Ge1 Cr1 Ge1 90.71(3) 2 3
Ge1 Cr1 Ge1 180.00(3) 15 3
Ge1 Cr1 Cr1 124.76(2) 13 4
Ge1 Cr1 Cr1 55.24(2) . 4
Ge1 Cr1 Cr1 124.76(2) 14 4
Ge1 Cr1 Cr1 55.24(2) 2 4
Ge1 Cr1 Cr1 124.76(2) 15 4
Ge1 Cr1 Cr1 55.24(2) 3 4
Ge1 Cr1 Cr1 55.24(2) 13 4_554
Ge1 Cr1 Cr1 124.76(2) . 4_554
Ge1 Cr1 Cr1 55.24(2) 14 4_554
Ge1 Cr1 Cr1 124.76(2) 2 4_554
Ge1 Cr1 Cr1 55.24(2) 15 4_554
Ge1 Cr1 Cr1 124.76(2) 3 4_554
Cr1 Cr1 Cr1 180.0 4 4_554
loop_
_geom_bond_atom_site_label_1
_geom_bond_atom_site_label_2
_geom_bond_distance
_geom_bond_site_symmetry_2
Nd1 Ge1 3.0761(2) 14_566
Nd1 Ge1 3.0761(2) 15_666
Nd1 Ge1 3.0761(2) 13_566
Nd1 Ge1 3.0761(2) 15_556
Nd1 Ge1 3.0761(2) 13_666
Nd1 Ge1 3.0761(2) 14_556
Nd1 Ge1 3.2107(7) 3_566
Nd1 Ge1 3.2107(7) 3_565
Nd1 Ge1 3.2107(7) .
Nd1 Ge1 3.2107(8) 2_666
Nd1 Ge1 3.2107(7) 1_556
Nd1 Ge1 3.2107(7) 2_665
Ge1 Cr1 2.4957(13) .
Ge1 Cr1 2.4957(13) 4
Ge1 Ge1 2.575(3) 2_665
Ge1 Ge1 2.575(3) 3_565
Ge1 Nd1 3.0761(2) 13_566
Ge1 Nd1 3.0761(2) 13_666
Ge1 Nd1 3.2107(7) 1_554
Cr1 Ge1 2.4957(13) 13
Cr1 Ge1 2.4957(13) 14
Cr1 Ge1 2.4957(13) 2
Cr1 Ge1 2.4957(13) 15
Cr1 Ge1 2.4957(13) 3
Cr1 Cr1 2.8457(2) 4
Cr1 Cr1 2.8457(2) 4_554
