#------------------------------------------------------------------------------
#$Date: 2016-03-21 01:21:50 +0200 (Mon, 21 Mar 2016) $
#$Revision: 178377 $
#$URL: svn://www.crystallography.net/cod/cif/4/00/19/4001988.cif $
#------------------------------------------------------------------------------
#
# This file is available in the Crystallography Open Database (COD),
# http://www.crystallography.net/
#
# All data on this site have been placed in the public domain by the
# contributors.
#
data_4001988
loop_
_publ_author_name
'Hu, Shichao'
'Johnsson, Mats'
'Lemmens, Peter'
'Schmid, Daniel'
'Menzel, Dirk'
'Tapp, Joshua'
'M\"oller, Angela'
_publ_section_title
;
 Acentric Pseudo-Kagome Structures: The Solid Solution (Co1--xNix)3Sb4O6F6
;
_journal_issue                   12
_journal_name_full               'Chemistry of Materials'
_journal_page_first              3631
_journal_paper_doi               10.1021/cm500339z
_journal_volume                  26
_journal_year                    2014
_chemical_formula_sum            'Co3 F6 O6 Sb4'
_chemical_formula_weight         873.79
_chemical_name_systematic
; 
 ? 
;
_space_group_IT_number           217
_symmetry_cell_setting           cubic
_symmetry_space_group_name_Hall  'I -4 2 3'
_symmetry_space_group_name_H-M   'I -4 3 m'
_atom_sites_solution_hydrogens   none
_atom_sites_solution_primary     direct
_atom_sites_solution_secondary   difmap
_audit_creation_method           SHELXL-97
_cell_angle_alpha                90.00
_cell_angle_beta                 90.00
_cell_angle_gamma                90.00
_cell_formula_units_Z            2
_cell_length_a                   8.176(1)
_cell_length_b                   8.176(1)
_cell_length_c                   8.176(1)
_cell_measurement_reflns_used    3377
_cell_measurement_temperature    293(2)
_cell_measurement_theta_max      28.4819
_cell_measurement_theta_min      3.5569
_cell_volume                     546.54(12)
_computing_structure_refinement  'SHELXL-97 (Sheldrick, 1997)'
_computing_structure_solution    'SHELXS-97 (Sheldrick, 1990)'
_diffrn_ambient_temperature      293(2)
_diffrn_measured_fraction_theta_full 1.000
_diffrn_measured_fraction_theta_max 0.979
_diffrn_measurement_device_type  'Oxford diffraction'
_diffrn_measurement_method       CCD_Profile_fitting
_diffrn_radiation_monochromator  graphite
_diffrn_radiation_source         'fine-focus sealed tube'
_diffrn_radiation_type           MoK\a
_diffrn_radiation_wavelength     0.71073
_diffrn_reflns_av_R_equivalents  0.0506
_diffrn_reflns_av_sigmaI/netI    0.0149
_diffrn_reflns_limit_h_max       10
_diffrn_reflns_limit_h_min       -10
_diffrn_reflns_limit_k_max       10
_diffrn_reflns_limit_k_min       -10
_diffrn_reflns_limit_l_max       10
_diffrn_reflns_limit_l_min       -11
_diffrn_reflns_number            3105
_diffrn_reflns_theta_full        25.00
_diffrn_reflns_theta_max         28.69
_diffrn_reflns_theta_min         3.52
_exptl_absorpt_coefficient_mu    14.278
_exptl_absorpt_correction_T_max  0.086
_exptl_absorpt_correction_T_min  0.019
_exptl_absorpt_correction_type   analytical
_exptl_absorpt_process_details
'Clark, R. C. & Reid, J. S. (1995). Acta Cryst. A51, 887-897'
_exptl_crystal_colour            Pink
_exptl_crystal_density_diffrn    5.310
_exptl_crystal_density_method    'not measured'
_exptl_crystal_description       Co3Sb4O6F6
_exptl_crystal_F_000             774
_exptl_crystal_size_max          0.4002
_exptl_crystal_size_mid          0.3112
_exptl_crystal_size_min          0.2985
_refine_diff_density_max         0.751
_refine_diff_density_min         -0.778
_refine_diff_density_rms         0.172
_refine_ls_abs_structure_details 'Flack H D (1983), Acta Cryst. A39, 876-881'
_refine_ls_abs_structure_Flack   -0.06(9)
_refine_ls_extinction_coef       0.090(4)
_refine_ls_extinction_expression Fc^*^=kFc[1+0.001xFc^2^\l^3^/sin(2\q)]^-1/4^
_refine_ls_extinction_method     SHELXL
_refine_ls_goodness_of_fit_ref   1.065
_refine_ls_hydrogen_treatment    none
_refine_ls_matrix_type           full
_refine_ls_number_parameters     13
_refine_ls_number_reflns         152
_refine_ls_number_restraints     0
_refine_ls_restrained_S_all      1.065
_refine_ls_R_factor_all          0.0148
_refine_ls_R_factor_gt           0.0148
_refine_ls_shift/su_max          0.022
_refine_ls_shift/su_mean         0.003
_refine_ls_structure_factor_coef Fsqd
_refine_ls_weighting_details
'calc w=1/[\s^2^(Fo^2^)+(0.0271P)^2^+2.1065P] where P=(Fo^2^+2Fc^2^)/3'
_refine_ls_weighting_scheme      calc
_refine_ls_wR_factor_gt          0.0380
_refine_ls_wR_factor_ref         0.0380
_reflns_number_gt                152
_reflns_number_total             152
_reflns_threshold_expression     >2sigma(I)
_cod_data_source_file            cm500339z_si_002.cif
_cod_data_source_block           Co3Sb4O6F6_RT
_cod_depositor_comments
;
The following automatic conversions were performed:

'_symmetry_cell_setting' value 'Cubic' changed to 'cubic' according
to
/usr/data/users/saulius/crontab/automatic-downloads/rss-feeds/ACS/lib/dictionaries/cif_core.dic
dictionary named 'cif_core.dic' version 2.4.2 from 2011-04-26.

Automatic conversion script
Id: cif_fix_values 2281 2013-09-26 08:29:07Z andrius 

 Adding full bibliography for 4001987--4001988.cif.
;
_cod_original_cell_volume        546.5(2)
_cod_database_code               4001988
loop_
_symmetry_equiv_pos_as_xyz
'x, y, z'
'-x, -y, z'
'-x, y, -z'
'x, -y, -z'
'z, x, y'
'z, -x, -y'
'-z, -x, y'
'-z, x, -y'
'y, z, x'
'-y, z, -x'
'y, -z, -x'
'-y, -z, x'
'y, x, z'
'-y, -x, z'
'y, -x, -z'
'-y, x, -z'
'x, z, y'
'-x, z, -y'
'-x, -z, y'
'x, -z, -y'
'z, y, x'
'z, -y, -x'
'-z, y, -x'
'-z, -y, x'
'x+1/2, y+1/2, z+1/2'
'-x+1/2, -y+1/2, z+1/2'
'-x+1/2, y+1/2, -z+1/2'
'x+1/2, -y+1/2, -z+1/2'
'z+1/2, x+1/2, y+1/2'
'z+1/2, -x+1/2, -y+1/2'
'-z+1/2, -x+1/2, y+1/2'
'-z+1/2, x+1/2, -y+1/2'
'y+1/2, z+1/2, x+1/2'
'-y+1/2, z+1/2, -x+1/2'
'y+1/2, -z+1/2, -x+1/2'
'-y+1/2, -z+1/2, x+1/2'
'y+1/2, x+1/2, z+1/2'
'-y+1/2, -x+1/2, z+1/2'
'y+1/2, -x+1/2, -z+1/2'
'-y+1/2, x+1/2, -z+1/2'
'x+1/2, z+1/2, y+1/2'
'-x+1/2, z+1/2, -y+1/2'
'-x+1/2, -z+1/2, y+1/2'
'x+1/2, -z+1/2, -y+1/2'
'z+1/2, y+1/2, x+1/2'
'z+1/2, -y+1/2, -x+1/2'
'-z+1/2, y+1/2, -x+1/2'
'-z+1/2, -y+1/2, x+1/2'
loop_
_atom_site_label
_atom_site_type_symbol
_atom_site_fract_x
_atom_site_fract_y
_atom_site_fract_z
_atom_site_U_iso_or_equiv
_atom_site_adp_type
_atom_site_occupancy
_atom_site_symmetry_multiplicity
_atom_site_calc_flag
_atom_site_refinement_flags
Sb1 Sb 0.84037(3) 0.15963(3) 0.15963(3) 0.0085(3) Uani 1 6 d S
Co1 Co 0.5000 0.0000 0.0000 0.0054(3) Uani 1 8 d S
F1 F 0.5000 0.0000 0.2500 0.0266(11) Uani 1 4 d S
O1 O 0.7523(7) 0.0000 0.0000 0.0110(10) Uani 1 4 d S
loop_
_atom_site_aniso_label
_atom_site_aniso_U_11
_atom_site_aniso_U_22
_atom_site_aniso_U_33
_atom_site_aniso_U_23
_atom_site_aniso_U_13
_atom_site_aniso_U_12
Sb1 0.0085(3) 0.0085(3) 0.0085(3) -0.00153(11) 0.00153(11) 0.00153(11)
Co1 0.0050(6) 0.0056(4) 0.0056(4) 0.000 0.000 0.000
F1 0.0373(19) 0.0373(19) 0.005(2) 0.000 0.000 0.000
O1 0.006(2) 0.0133(15) 0.0133(15) -0.006(2) 0.000 0.000
loop_
_atom_type_symbol
_atom_type_description
_atom_type_scat_dispersion_real
_atom_type_scat_dispersion_imag
_atom_type_scat_source
O O 0.0106 0.0060 'International Tables Vol C Tables 4.2.6.8 and 6.1.1.4'
F F 0.0171 0.0103 'International Tables Vol C Tables 4.2.6.8 and 6.1.1.4'
Co Co 0.3494 0.9721 'International Tables Vol C Tables 4.2.6.8 and 6.1.1.4'
Sb Sb -0.5866 1.5461 'International Tables Vol C Tables 4.2.6.8 and 6.1.1.4'
loop_
_geom_angle_atom_site_label_1
_geom_angle_atom_site_label_2
_geom_angle_atom_site_label_3
_geom_angle
_geom_angle_site_symmetry_1
_geom_angle_site_symmetry_3
O1 Sb1 O1 92.6(2) . 10_656
O1 Sb1 O1 92.6(2) . 6_665
O1 Sb1 O1 92.6(2) 10_656 6_665
F1 Co1 F1 90.0 35 .
F1 Co1 F1 180.0 35 33_544
F1 Co1 F1 90.0 . 33_544
F1 Co1 F1 90.0 35 3_655
F1 Co1 F1 180.0 . 3_655
F1 Co1 F1 90.0 33_544 3_655
F1 Co1 O1 90.0 35 2_655
F1 Co1 O1 90.0 . 2_655
F1 Co1 O1 90.0 33_544 2_655
F1 Co1 O1 90.0 3_655 2_655
F1 Co1 O1 90.0 35 .
F1 Co1 O1 90.0 . .
F1 Co1 O1 90.0 33_544 .
F1 Co1 O1 90.0 3_655 .
O1 Co1 O1 180.0 2_655 .
Co1 F1 Co1 180.0 29_545 .
Sb1 O1 Sb1 137.4(3) . 4
Sb1 O1 Co1 111.32(15) . .
Sb1 O1 Co1 111.32(15) 4 .
loop_
_geom_bond_atom_site_label_1
_geom_bond_atom_site_label_2
_geom_bond_distance
_geom_bond_site_symmetry_2
Sb1 O1 1.981(2) .
Sb1 O1 1.981(2) 10_656
Sb1 O1 1.981(2) 6_665
Co1 F1 2.0439(3) 35
Co1 F1 2.0439(3) .
Co1 F1 2.0439(3) 33_544
Co1 F1 2.0439(3) 3_655
Co1 O1 2.063(5) 2_655
Co1 O1 2.063(5) .
F1 Co1 2.0439(3) 29_545
O1 Sb1 1.981(2) 4
