#------------------------------------------------------------------------------
#$Date: 2016-03-21 01:21:50 +0200 (Mon, 21 Mar 2016) $
#$Revision: 178377 $
#$URL: svn://www.crystallography.net/cod/cif/4/00/17/4001761.cif $
#------------------------------------------------------------------------------
#
# This file is available in the Crystallography Open Database (COD),
# http://www.crystallography.net/
#
# All data on this site have been placed in the public domain by the
# contributors.
#
data_4001761
loop_
_publ_author_name
'An, Tao'
'Baikie, Tom'
'Wei, Fengxia'
'Pramana, Stevin S.'
'Schreyer, Martin K.'
'Piltz, Ross O.'
'Shin, J. Felix'
'Wei, Jun'
'Slater, Peter R.'
'White, Tim J.'
_publ_section_title
;
 Crystallographic Correlations with Anisotropic Oxide Ion Conduction in
 Aluminum-Doped Neodymium Silicate Apatite Electrolytes
;
_journal_issue                   7
_journal_name_full               'Chemistry of Materials'
_journal_page_first              1109
_journal_paper_doi               10.1021/cm4000685
_journal_volume                  25
_journal_year                    2013
_chemical_formula_iupac          'Nd9.50 Al0.5 Si5.5 O26'
_chemical_formula_sum            'Al0.5 Nd9.772 O26 Si5.5'
_chemical_formula_weight         1993.5
_chemical_melting_point          ?
_chemical_name_systematic        ' ?'
_space_group_IT_number           176
_symmetry_cell_setting           hexagonal
_symmetry_Int_Tables_number      176
_symmetry_space_group_name_Hall  '-P 6c'
_symmetry_space_group_name_H-M   'P 63/m'
_cell_angle_alpha                90
_cell_angle_beta                 90
_cell_angle_gamma                120
_cell_formula_units_Z            1
_cell_length_a                   9.5567
_cell_length_b                   9.5567
_cell_length_c                   7.0563
_cell_measurement_reflns_used    4555
_cell_measurement_temperature    100
_cell_measurement_theta_max      32.61
_cell_measurement_theta_min      2.46
_cell_volume                     558.115
_diffrn_ambient_temperature      100
_diffrn_measured_fraction_theta_full 1
_diffrn_measured_fraction_theta_max 1
_diffrn_measurement_device       'four-cycle diffractometer'
_diffrn_measurement_device_type  'Bruker CCD'
_diffrn_measurement_method       \w/2\q
_diffrn_radiation_monochromator  graphite
_diffrn_radiation_source         'X-ray tube'
_diffrn_radiation_type           'Mo K\a'
_diffrn_radiation_wavelength     0.71069
_diffrn_reflns_av_R_equivalents  0.0574
_diffrn_reflns_av_sigmaI/netI    0.0264
_diffrn_reflns_limit_h_max       14
_diffrn_reflns_limit_h_min       -14
_diffrn_reflns_limit_k_max       14
_diffrn_reflns_limit_k_min       -13
_diffrn_reflns_limit_l_max       10
_diffrn_reflns_limit_l_min       -10
_diffrn_reflns_number            8248
_diffrn_reflns_theta_full        32.55
_diffrn_reflns_theta_max         32.55
_diffrn_reflns_theta_min         2.46
_exptl_absorpt_coefficient_mu    22.714
_exptl_absorpt_correction_T_max  1
_exptl_absorpt_correction_T_min  0.4131
_exptl_absorpt_correction_type   multi-scan
_exptl_absorpt_process_details
"'R.H. Blessing, Acta Crystallogr., Sect A 1995, 51, 33-38. '"
_exptl_crystal_colour            'violet under sunlight'
_exptl_crystal_density_diffrn    5.9291
_exptl_crystal_density_meas      ?
_exptl_crystal_density_method    'not measured'
_exptl_crystal_description       irregular
_exptl_crystal_F_000             878
_exptl_crystal_size_max          0.15
_exptl_crystal_size_mid          0.1
_exptl_crystal_size_min          0.08
_refine_diff_density_max         4.43
_refine_diff_density_min         -2.71
_refine_ls_extinction_coef       1430(150)
_refine_ls_extinction_method
'B-C type 1 Gaussian isotropic (Becker & Coppens, 1974)'
_refine_ls_goodness_of_fit_gt    3.27
_refine_ls_goodness_of_fit_ref   3.22
_refine_ls_number_constraints    6
_refine_ls_number_parameters     41
_refine_ls_number_reflns         726
_refine_ls_number_restraints     0
_refine_ls_R_factor_all          0.0483
_refine_ls_R_factor_gt           0.0470
_refine_ls_shift/su_max          0.0066
_refine_ls_shift/su_mean         0.0016
_refine_ls_structure_factor_coef Fsqd
_refine_ls_weighting_details     w=1/(\s^2^(I)+0.0004I^2^)
_refine_ls_weighting_scheme      sigma
_refine_ls_wR_factor_gt          0.1217
_refine_ls_wR_factor_ref         0.1222
_reflns_number_gt                702
_reflns_number_total             726
_reflns_threshold_expression     I>3\s(I)
_cod_data_source_file            cm4000685_si_003.cif
_cod_data_source_block           I
_cod_depositor_comments
;
The following automatic conversions were performed:

'_chemical_melting_point' value 'not measured' was changed to '?' -
the value is undefined or not given.

Automatic conversion script
Id: cif_fix_values 1891 2012-01-12 08:04:46Z andrius 

The following automatic conversions were performed:

'_exptl_crystal_density_meas' value 'not measured' was changed to '?'
- the value is perceived as not measured.

Automatic conversion script
Id: cif_fix_values 3008 2015-01-20 13:52:24Z robertas 
;
_cod_original_cell_volume        558.1148
_cod_database_code               4001761
loop_
_symmetry_equiv_pos_site_id
_symmetry_equiv_pos_as_xyz
1 x,y,z
2 -y,x-y,z
3 -x+y,-x,z
4 -x,-y,z+1/2
5 y,-x+y,z+1/2
6 x-y,x,z+1/2
7 -x,-y,-z
8 y,-x+y,-z
9 x-y,x,-z
10 x,y,-z+1/2
11 -y,x-y,-z+1/2
12 -x+y,-x,-z+1/2
loop_
_atom_site_label
_atom_site_type_symbol
_atom_site_fract_x
_atom_site_fract_y
_atom_site_fract_z
_atom_site_adp_type
_atom_site_U_iso_or_equiv
_atom_site_symmetry_multiplicity
_atom_site_occupancy
_atom_site_calc_flag
Nd2 Nd 0.00937(6) 0.24130(6) 0.25 Uani 0.0080(3) 6 1 d
Nd1 Nd 0.333333 0.666667 0.00002(9) Uani 0.0118(3) 4 0.943(5) d
Al Al 0.4016(3) 0.3725(3) 0.25 Uani 0.0074(9) 6 0.0833 d
O1 O 0.3198(11) 0.4871(10) 0.25 Uani 0.018(3) 6 1 d
O2 O 0.6008(9) 0.4746(9) 0.25 Uani 0.015(3) 6 1 d
O3 O 0.3464(8) 0.2531(7) 0.0634(7) Uani 0.020(2) 12 1 d
O4 O 0 0 0.25 Uani 0.020(4) 2 1 d
Si Si 0.4016(3) 0.3725(3) 0.25 Uani 0.0074(9) 6 0.9167 d
loop_
_atom_site_aniso_label
_atom_site_aniso_type_symbol
_atom_site_aniso_U_11
_atom_site_aniso_U_22
_atom_site_aniso_U_33
_atom_site_aniso_U_12
_atom_site_aniso_U_13
_atom_site_aniso_U_23
Nd2 Nd 0.0087(3) 0.0086(3) 0.0051(3) 0.0033(2) 0 0
Nd1 Nd 0.0149(4) 0.0149(4) 0.0058(4) 0.00742(19) 0 0
Al Al 0.0096(12) 0.0089(12) 0.0041(10) 0.0051(10) 0 0
O1 O 0.032(5) 0.014(4) 0.014(3) 0.015(3) 0 0
O2 O 0.013(3) 0.009(3) 0.021(4) 0.003(3) 0 0
O3 O 0.039(4) 0.016(3) 0.006(2) 0.015(3) -0.008(2) -0.0029(19)
O4 O 0.014(4) 0.014(4) 0.034(9) 0.007(2) 0 0
Si Si 0.0096(12) 0.0089(12) 0.0041(10) 0.0051(10) 0 0
loop_
_atom_type_symbol
_atom_type_scat_dispersion_real
_atom_type_scat_dispersion_imag
_atom_type_scat_source
Al 0.0645 0.0514 'International Tables Vol C tables 4.2.6.8 and 6.1.1.1'
Nd -0.1943 3.0179 'International Tables Vol C tables 4.2.6.8 and 6.1.1.1'
O 0.0106 0.0060 'International Tables Vol C tables 4.2.6.8 and 6.1.1.1'
Si 0.0817 0.0704 'International Tables Vol C tables 4.2.6.8 and 6.1.1.1'
loop_
_geom_angle_atom_site_label_1
_geom_angle_atom_site_label_2
_geom_angle_atom_site_label_3
_geom_angle_site_symmetry_1
_geom_angle_site_symmetry_3
_geom_angle
O1 Nd2 O2 . 3_565 98.9(3)
O1 Nd2 O3 . 2_555 145.98(17)
O1 Nd2 O3 . 6_555 69.19(18)
O1 Nd2 O3 . 9_555 69.19(18)
O1 Nd2 O3 . 11_555 145.98(17)
O1 Nd2 O4 . . 110.6(2)
O2 Nd2 O3 3_565 2_555 70.2(3)
O2 Nd2 O3 3_565 6_555 84.9(3)
O2 Nd2 O3 3_565 9_555 84.9(3)
O2 Nd2 O3 3_565 11_555 70.2(3)
O2 Nd2 O4 3_565 . 150.56(18)
O3 Nd2 O3 2_555 6_555 137.8(3)
O3 Nd2 O3 2_555 9_555 77.6(2)
O3 Nd2 O3 2_555 11_555 62.31(16)
O3 Nd2 O4 2_555 . 84.7(2)
O3 Nd2 O3 6_555 9_555 134.8(2)
O3 Nd2 O3 6_555 11_555 77.6(2)
O3 Nd2 O4 6_555 . 105.2(2)
O3 Nd2 O3 9_555 11_555 137.8(3)
O3 Nd2 O4 9_555 . 105.2(2)
O3 Nd2 O4 11_555 . 84.7(2)
O1 Nd1 O1 . 2_665 72.7(3)
O1 Nd1 O1 . 3_565 72.7(4)
O1 Nd1 O2 . 4_664 94.0(3)
O1 Nd1 O2 . 5_564 153.8(3)
O1 Nd1 O2 . 6_554 125.8(2)
O1 Nd1 O3 . 7_665 88.5(3)
O1 Nd1 O3 . 8_565 139.4(2)
O1 Nd1 O3 . 9_555 67.4(2)
O1 Nd1 O1 2_665 3_565 72.7(3)
O1 Nd1 O2 2_665 4_664 125.8(3)
O1 Nd1 O2 2_665 5_564 94.0(2)
O1 Nd1 O2 2_665 6_554 153.8(4)
O1 Nd1 O3 2_665 7_665 67.4(3)
O1 Nd1 O3 2_665 8_565 88.5(4)
O1 Nd1 O3 2_665 9_555 139.4(3)
O1 Nd1 O2 3_565 4_664 153.8(2)
O1 Nd1 O2 3_565 5_564 125.8(4)
O1 Nd1 O2 3_565 6_554 94.0(3)
O1 Nd1 O3 3_565 7_665 139.4(2)
O1 Nd1 O3 3_565 8_565 67.4(3)
O1 Nd1 O3 3_565 9_555 88.5(3)
O2 Nd1 O2 4_664 5_564 75.2(3)
O2 Nd1 O2 4_664 6_554 75.2(3)
O2 Nd1 O3 4_664 7_665 59.7(2)
O2 Nd1 O3 4_664 8_565 125.5(2)
O2 Nd1 O3 4_664 9_555 65.4(2)
O2 Nd1 O2 5_564 6_554 75.2(2)
O2 Nd1 O3 5_564 7_665 65.4(3)
O2 Nd1 O3 5_564 8_565 59.7(3)
O2 Nd1 O3 5_564 9_555 125.45(17)
O2 Nd1 O3 6_554 7_665 125.5(2)
O2 Nd1 O3 6_554 8_565 65.4(3)
O2 Nd1 O3 6_554 9_555 59.7(3)
O3 Nd1 O3 7_665 8_565 117.49(18)
O3 Nd1 O3 7_665 9_555 117.5(3)
O3 Nd1 O3 8_565 9_555 117.5(3)
O1 Al O2 . . 113.7(4)
O1 Al O3 . . 111.7(4)
O1 Al O3 . 10_555 111.7(4)
O1 Al Si . . 0
O2 Al O3 . . 106.5(3)
O2 Al O3 . 10_555 106.5(3)
O2 Al Si . . 0
O3 Al O3 . 10_555 106.1(3)
O3 Al Si . . 0
O3 Al Si 10_555 . 0
Nd2 O1 Nd1 . . 105.2(3)
Nd2 O1 Nd1 . 10_555 105.2(3)
Nd2 O1 Al . . 95.9(3)
Nd2 O1 O1 . 2_665 142.5(5)
Nd2 O1 O1 . 3_565 82.5(3)
Nd2 O1 O2 . . 129.2(4)
Nd2 O1 O3 . . 78.4(2)
Nd2 O1 O3 . 6_555 50.28(17)
Nd2 O1 O3 . 9_555 50.28(17)
Nd2 O1 O3 . 10_555 78.4(2)
Nd2 O1 Si . . 95.9(3)
Nd1 O1 Nd1 . 10_555 93.6(4)
Nd1 O1 Al . . 127.0(3)
Nd1 O1 O1 . 2_665 53.66(19)
Nd1 O1 O1 . 3_565 53.7(2)
Nd1 O1 O2 . . 108.9(3)
Nd1 O1 O3 . . 103.71(15)
Nd1 O1 O3 . 6_555 130.2(5)
Nd1 O1 O3 . 9_555 62.44(18)
Nd1 O1 O3 . 10_555 160.8(4)
Nd1 O1 Si . . 127.0(3)
Nd1 O1 Al 10_555 . 127.0(3)
Nd1 O1 O1 10_555 2_665 53.66(19)
Nd1 O1 O1 10_555 3_565 53.7(2)
Nd1 O1 O2 10_555 . 108.9(3)
Nd1 O1 O3 10_555 . 160.8(4)
Nd1 O1 O3 10_555 6_555 62.44(18)
Nd1 O1 O3 10_555 9_555 130.2(5)
Nd1 O1 O3 10_555 10_555 103.71(15)
Nd1 O1 Si 10_555 . 127.0(3)
Al O1 O1 . 2_665 121.6(5)
Al O1 O1 . 3_565 178.4(4)
Al O1 O2 . . 33.3(3)
Al O1 O3 . . 34.3(2)
Al O1 O3 . 6_555 100.7(3)
Al O1 O3 . 9_555 100.7(3)
Al O1 O3 . 10_555 34.3(2)
Al O1 Si . . 0.0(5)
O1 O1 O1 2_665 3_565 60.0(4)
O1 O1 O2 2_665 . 88.3(4)
O1 O1 O3 2_665 . 132.7(3)
O1 O1 O3 2_665 6_555 115.7(3)
O1 O1 O3 2_665 9_555 115.7(3)
O1 O1 O3 2_665 10_555 132.7(3)
O1 O1 Si 2_665 . 121.6(5)
O1 O1 O2 3_565 . 148.3(4)
O1 O1 O3 3_565 . 144.8(3)
O1 O1 O3 3_565 6_555 78.3(3)
O1 O1 O3 3_565 9_555 78.3(3)
O1 O1 O3 3_565 10_555 144.8(3)
O1 O1 Si 3_565 . 178.4(4)
O2 O1 O3 . . 57.8(3)
O2 O1 O3 . 6_555 119.8(3)
O2 O1 O3 . 9_555 119.8(3)
O2 O1 O3 . 10_555 57.8(3)
O2 O1 Si . . 33.3(3)
O3 O1 O3 . 6_555 110.0(3)
O3 O1 O3 . 9_555 66.7(3)
O3 O1 O3 . 10_555 58.0(3)
O3 O1 Si . . 34.3(2)
O3 O1 O3 6_555 9_555 98.9(3)
O3 O1 O3 6_555 10_555 66.7(3)
O3 O1 Si 6_555 . 100.7(3)
O3 O1 O3 9_555 10_555 110.0(3)
O3 O1 Si 9_555 . 100.7(3)
O3 O1 Si 10_555 . 34.3(2)
Nd2 O2 Nd1 2_665 4_665 116.5(2)
Nd2 O2 Nd1 2_665 7_665 116.5(2)
Nd2 O2 Al 2_665 . 123.3(5)
Nd2 O2 O1 2_665 . 90.4(4)
Nd2 O2 O3 2_665 . 135.7(4)
Nd2 O2 O3 2_665 3_665 56.7(2)
Nd2 O2 O3 2_665 10_555 135.7(4)
Nd2 O2 O3 2_665 12_665 56.7(2)
Nd2 O2 Si 2_665 . 123.3(5)
Nd1 O2 Nd1 4_665 7_665 90.4(3)
Nd1 O2 Al 4_665 . 102.1(2)
Nd1 O2 O1 4_665 . 122.8(2)
Nd1 O2 O3 4_665 . 107.5(3)
Nd1 O2 O3 4_665 3_665 101.0(4)
Nd1 O2 O3 4_665 10_555 66.0(2)
Nd1 O2 O3 4_665 12_665 62.5(2)
Nd1 O2 Si 4_665 . 102.1(2)
Nd1 O2 Al 7_665 . 102.1(2)
Nd1 O2 O1 7_665 . 122.8(2)
Nd1 O2 O3 7_665 . 66.0(2)
Nd1 O2 O3 7_665 3_665 62.5(2)
Nd1 O2 O3 7_665 10_555 107.5(3)
Nd1 O2 O3 7_665 12_665 101.0(4)
Nd1 O2 Si 7_665 . 102.1(2)
Al O2 O1 . . 33.0(3)
Al O2 O3 . . 36.7(2)
Al O2 O3 . 3_665 152.25(18)
Al O2 O3 . 10_555 36.7(2)
Al O2 O3 . 12_665 152.25(18)
Al O2 Si . . 0.0(5)
O1 O2 O3 . . 60.5(3)
O1 O2 O3 . 3_665 134.6(4)
O1 O2 O3 . 10_555 60.5(3)
O1 O2 O3 . 12_665 134.6(4)
O1 O2 Si . . 33.0(3)
O3 O2 O3 . 3_665 120.32(19)
O3 O2 O3 . 10_555 59.8(2)
O3 O2 O3 . 12_665 164.4(5)
O3 O2 Si . . 36.7(2)
O3 O2 O3 3_665 10_555 164.4(5)
O3 O2 O3 3_665 12_665 54.7(2)
O3 O2 Si 3_665 . 152.25(18)
O3 O2 O3 10_555 12_665 120.32(19)
O3 O2 Si 10_555 . 36.7(2)
O3 O2 Si 12_665 . 152.25(18)
Nd2 O3 Nd2 3_555 5_554 116.0(2)
Nd2 O3 Nd1 3_555 7_665 103.0(3)
Nd2 O3 Al 3_555 . 95.8(2)
Nd2 O3 O1 3_555 . 112.9(2)
Nd2 O3 O1 3_555 5_554 98.5(3)
Nd2 O3 O2 3_555 . 107.6(3)
Nd2 O3 O2 3_555 2_655 53.0(2)
Nd2 O3 O3 3_555 10_555 58.84(17)
Nd2 O3 Si 3_555 . 95.8(2)
Nd2 O3 Nd1 5_554 7_665 103.4(2)
Nd2 O3 Al 5_554 . 140.5(5)
Nd2 O3 O1 5_554 . 108.0(3)
Nd2 O3 O1 5_554 5_554 60.5(2)
Nd2 O3 O2 5_554 . 135.0(2)
Nd2 O3 O2 5_554 2_655 134.6(3)
Nd2 O3 O3 5_554 10_555 157.4(4)
Nd2 O3 Si 5_554 . 140.5(5)
Nd1 O3 Al 7_665 . 90.6(3)
Nd1 O3 O1 7_665 . 113.1(3)
Nd1 O3 O1 7_665 5_554 50.12(19)
Nd1 O3 O2 7_665 . 54.3(2)
Nd1 O3 O2 7_665 2_655 52.10(19)
Nd1 O3 O3 7_665 10_555 99.2(3)
Nd1 O3 Si 7_665 . 90.6(3)
Al O3 O1 . . 34.0(3)
Al O3 O1 . 5_554 140.3(4)
Al O3 O2 . . 36.7(2)
Al O3 O2 . 2_655 82.8(3)
Al O3 O3 . 10_555 36.93(19)
Al O3 Si . . 0.0(5)
O1 O3 O1 . 5_554 147.9(3)
O1 O3 O2 . . 61.7(3)
O1 O3 O2 . 2_655 116.6(3)
O1 O3 O3 . 10_555 61.0(2)
O1 O3 Si . . 34.0(3)
O1 O3 O2 5_554 . 103.6(3)
O1 O3 O2 5_554 2_655 76.8(3)
O1 O3 O3 5_554 10_555 139.4(4)
O1 O3 Si 5_554 . 140.3(4)
O2 O3 O2 . 2_655 66.7(3)
O2 O3 O3 . 10_555 60.10(17)
O2 O3 Si . . 36.7(2)
O2 O3 O3 2_655 10_555 62.6(3)
O2 O3 Si 2_655 . 82.8(3)
O3 O3 Si 10_555 . 36.93(19)
Nd2 O4 Nd2 . 2_555 120.00(3)
Nd2 O4 Nd2 . 3_555 120.000(18)
Nd2 O4 Nd2 2_555 3_555 120.00(3)
Al Si O1 . . 0
Al Si O2 . . 0
Al Si O3 . . 0
Al Si O3 . 10_555 0
O1 Si O2 . . 113.7(4)
O1 Si O3 . . 111.7(4)
O1 Si O3 . 10_555 111.7(4)
O2 Si O3 . . 106.5(3)
O2 Si O3 . 10_555 106.5(3)
O3 Si O3 . 10_555 106.1(3)
loop_
_geom_bond_atom_site_label_1
_geom_bond_atom_site_label_2
_geom_bond_site_symmetry_2
_geom_bond_distance
Nd2 O1 . 2.711(7)
Nd2 O2 3_565 2.432(13)
Nd2 O3 2_555 2.545(5)
Nd2 O3 6_555 2.395(5)
Nd2 O3 9_555 2.395(5)
Nd2 O3 11_555 2.545(5)
Nd2 O4 . 2.2626(6)
Nd1 O1 . 2.419(7)
Nd1 O1 2_665 2.419(5)
Nd1 O1 3_565 2.419(10)
Nd1 O2 4_664 2.486(7)
Nd1 O2 5_564 2.486(6)
Nd1 O2 6_554 2.486(8)
Nd1 O3 7_665 2.794(8)
Nd1 O3 8_565 2.794(11)
Nd1 O3 9_555 2.794(6)
Al O1 . 1.633(12)
Al O2 . 1.648(8)
Al O3 . 1.647(6)
Al O3 10_555 1.647(6)
Al Si . 0
O1 O1 2_665 2.867(14)
O1 O1 3_565 2.867(19)
O1 O2 . 2.747(15)
O1 O3 . 2.715(12)
O1 O3 6_555 2.911(8)
O1 O3 9_555 2.911(8)
O1 O3 10_555 2.715(12)
O1 Si . 1.633(12)
O2 O3 . 2.642(8)
O2 O3 3_665 2.865(10)
O2 O3 10_555 2.642(8)
O2 O3 12_665 2.865(10)
O2 Si . 1.648(8)
O3 O3 10_555 2.634(7)
O3 Si . 1.647(6)
