#------------------------------------------------------------------------------
#$Date: 2016-03-21 01:21:50 +0200 (Mon, 21 Mar 2016) $
#$Revision: 178377 $
#$URL: svn://www.crystallography.net/cod/cif/4/00/18/4001868.cif $
#------------------------------------------------------------------------------
#
# This file is available in the Crystallography Open Database (COD),
# http://www.crystallography.net/
#
# All data on this site have been placed in the public domain by the
# contributors.
#
data_4001868
loop_
_publ_author_name
'Fulfer, Bradford W.'
'McAlpin, Jacob D.'
'Engelkemier, Joshua'
'McCandless, Gregory T.'
'Prestigiacomo, Joseph'
'Stadler, Shane'
'Fredrickson, Daniel C.'
'Chan, Julia Y.'
_publ_section_title
;
 Filling in the Holes: Structural and Magnetic Properties of the Chemical
 Pressure Stabilized LnMnxGa3(Ln = Ho--Tm;x&lt; 0.15)
;
_journal_issue                   2
_journal_name_full               'Chemistry of Materials'
_journal_page_first              1170
_journal_paper_doi               10.1021/cm4035424
_journal_volume                  26
_journal_year                    2014
_chemical_formula_sum            'Er Ga3 Mn0.03'
_chemical_formula_weight         378.07
_chemical_name_systematic
;
 ?
;
_space_group_IT_number           221
_symmetry_space_group_name_Hall  '-P 4 2 3'
_symmetry_space_group_name_H-M   'P m -3 m'
_atom_sites_solution_primary     direct
_atom_sites_solution_secondary   difmap
_audit_creation_method           SHELXL-97
_cell_angle_alpha                90.00
_cell_angle_beta                 90.00
_cell_angle_gamma                90.00
_cell_formula_units_Z            1
_cell_length_a                   4.2303(3)
_cell_length_b                   4.2303(3)
_cell_length_c                   4.2303(3)
_cell_measurement_temperature    300(2)
_cell_volume                     75.703(9)
_computing_structure_refinement  'SHELXL-97 (Sheldrick, 2008)'
_diffrn_ambient_temperature      300(2)
_diffrn_measured_fraction_theta_full 1.000
_diffrn_measured_fraction_theta_max 1.000
_diffrn_radiation_monochromator  graphite
_diffrn_radiation_source         'fine-focus sealed tube'
_diffrn_radiation_type           MoK\a
_diffrn_radiation_wavelength     0.71073
_diffrn_reflns_av_R_equivalents  0.1261
_diffrn_reflns_av_sigmaI/netI    0.0433
_diffrn_reflns_limit_h_max       6
_diffrn_reflns_limit_h_min       -6
_diffrn_reflns_limit_k_max       6
_diffrn_reflns_limit_k_min       -5
_diffrn_reflns_limit_l_max       6
_diffrn_reflns_limit_l_min       -6
_diffrn_reflns_number            724
_diffrn_reflns_theta_full        30.73
_diffrn_reflns_theta_max         30.73
_diffrn_reflns_theta_min         4.82
_exptl_absorpt_coefficient_mu    53.618
_exptl_absorpt_correction_T_max  0.2229
_exptl_absorpt_correction_T_min  0.1412
_exptl_absorpt_correction_type   multi-scan
_exptl_crystal_density_diffrn    8.293
_exptl_crystal_density_method    'not measured'
_exptl_crystal_F_000             162
_exptl_crystal_size_max          0.06
_exptl_crystal_size_mid          0.04
_exptl_crystal_size_min          0.04
_refine_diff_density_max         1.244
_refine_diff_density_min         -0.951
_refine_diff_density_rms         0.307
_refine_ls_extinction_expression Fc^*^=kFc[1+0.001xFc^2^\l^3^/sin(2\q)]^-1/4^
_refine_ls_extinction_method     SHELXL
_refine_ls_goodness_of_fit_ref   1.187
_refine_ls_matrix_type           full
_refine_ls_number_parameters     6
_refine_ls_number_reflns         42
_refine_ls_number_restraints     0
_refine_ls_restrained_S_all      1.187
_refine_ls_R_factor_all          0.0202
_refine_ls_R_factor_gt           0.0202
_refine_ls_shift/su_max          0.000
_refine_ls_shift/su_mean         0.000
_refine_ls_structure_factor_coef Fsqd
_refine_ls_weighting_details
'calc w=1/[\s^2^(Fo^2^)+(0.0000P)^2^+0.6318P] where P=(Fo^2^+2Fc^2^)/3'
_refine_ls_weighting_scheme      calc
_refine_ls_wR_factor_gt          0.0484
_refine_ls_wR_factor_ref         0.0484
_reflns_number_gt                42
_reflns_number_total             42
_reflns_threshold_expression     >2\s(I)
_cod_data_source_file            cm4035424_si_001.cif
_cod_data_source_block           mo_bwf126a_0m
_cod_database_code               4001868
loop_
_symmetry_equiv_pos_as_xyz
'x, y, z'
'-x, -y, z'
'-x, y, -z'
'x, -y, -z'
'z, x, y'
'z, -x, -y'
'-z, -x, y'
'-z, x, -y'
'y, z, x'
'-y, z, -x'
'y, -z, -x'
'-y, -z, x'
'y, x, -z'
'-y, -x, -z'
'y, -x, z'
'-y, x, z'
'x, z, -y'
'-x, z, y'
'-x, -z, -y'
'x, -z, y'
'z, y, -x'
'z, -y, x'
'-z, y, x'
'-z, -y, -x'
'-x, -y, -z'
'x, y, -z'
'x, -y, z'
'-x, y, z'
'-z, -x, -y'
'-z, x, y'
'z, x, -y'
'z, -x, y'
'-y, -z, -x'
'y, -z, x'
'-y, z, x'
'y, z, -x'
'-y, -x, z'
'y, x, z'
'-y, x, -z'
'y, -x, -z'
'-x, -z, y'
'x, -z, -y'
'x, z, y'
'-x, z, -y'
'-z, -y, x'
'-z, y, -x'
'z, -y, -x'
'z, y, x'
loop_
_atom_site_label
_atom_site_type_symbol
_atom_site_fract_x
_atom_site_fract_y
_atom_site_fract_z
_atom_site_U_iso_or_equiv
_atom_site_adp_type
_atom_site_occupancy
_atom_site_symmetry_multiplicity
_atom_site_calc_flag
_atom_site_refinement_flags
Er Er 0.0000 0.0000 0.0000 0.0076(5) Uani 1 48 d S
Ga Ga 0.5000 0.0000 0.5000 0.0150(5) Uani 1 16 d S
Mn Mn 0.5000 0.5000 0.5000 0.0076(5) Uani 0.041(12) 48 d SP
loop_
_atom_site_aniso_label
_atom_site_aniso_U_11
_atom_site_aniso_U_22
_atom_site_aniso_U_33
_atom_site_aniso_U_23
_atom_site_aniso_U_13
_atom_site_aniso_U_12
Er 0.0076(5) 0.0076(5) 0.0076(5) 0.000 0.000 0.000
Ga 0.0094(5) 0.0262(9) 0.0094(5) 0.000 0.000 0.000
Mn 0.0076(5) 0.0076(5) 0.0076(5) 0.000 0.000 0.000
loop_
_atom_type_symbol
_atom_type_description
_atom_type_scat_dispersion_real
_atom_type_scat_dispersion_imag
_atom_type_scat_source
Mn Mn 0.3368 0.7283 'International Tables Vol C Tables 4.2.6.8 and 6.1.1.4'
Ga Ga 0.2307 1.6083 'International Tables Vol C Tables 4.2.6.8 and 6.1.1.4'
Er Er -0.2586 4.9576 'International Tables Vol C Tables 4.2.6.8 and 6.1.1.4'
loop_
_geom_angle_atom_site_label_1
_geom_angle_atom_site_label_2
_geom_angle_atom_site_label_3
_geom_angle
_geom_angle_site_symmetry_1
_geom_angle_site_symmetry_3
Ga Er Ga 60.0 9 .
Ga Er Ga 120.0 9 1_454
Ga Er Ga 180.0 . 1_454
Ga Er Ga 180.0 9 9_544
Ga Er Ga 120.0 . 9_544
Ga Er Ga 60.0 1_454 9_544
Ga Er Ga 60.0 9 5
Ga Er Ga 60.0 . 5
Ga Er Ga 120.0 1_454 5
Ga Er Ga 120.0 9_544 5
Ga Er Ga 120.0 9 5_445
Ga Er Ga 120.0 . 5_445
Ga Er Ga 60.0 1_454 5_445
Ga Er Ga 60.0 9_544 5_445
Ga Er Ga 180.0 5 5_445
Ga Er Ga 120.0 9 1_554
Ga Er Ga 90.0 . 1_554
Ga Er Ga 90.0 1_454 1_554
Ga Er Ga 60.0 9_544 1_554
Ga Er Ga 60.0 5 1_554
Ga Er Ga 120.0 5_445 1_554
Ga Er Ga 60.0 9 5_455
Ga Er Ga 120.0 . 5_455
Ga Er Ga 60.0 1_454 5_455
Ga Er Ga 120.0 9_544 5_455
Ga Er Ga 90.0 5 5_455
Ga Er Ga 90.0 5_445 5_455
Ga Er Ga 120.0 1_554 5_455
Ga Er Ga 120.0 9 5_545
Ga Er Ga 60.0 . 5_545
Ga Er Ga 120.0 1_454 5_545
Ga Er Ga 60.0 9_544 5_545
Ga Er Ga 90.0 5 5_545
Ga Er Ga 90.0 5_445 5_545
Ga Er Ga 60.0 1_554 5_545
Ga Er Ga 180.0 5_455 5_545
Ga Er Ga 60.0 9 1_455
Ga Er Ga 90.0 . 1_455
Ga Er Ga 90.0 1_454 1_455
Ga Er Ga 120.0 9_544 1_455
Ga Er Ga 120.0 5 1_455
Ga Er Ga 60.0 5_445 1_455
Ga Er Ga 180.0 1_554 1_455
Ga Er Ga 60.0 5_455 1_455
Ga Er Ga 120.0 5_545 1_455
Ga Er Ga 90.0 9 9_554
Ga Er Ga 120.0 . 9_554
Ga Er Ga 60.0 1_454 9_554
Ga Er Ga 90.0 9_544 9_554
Ga Er Ga 60.0 5 9_554
Ga Er Ga 120.0 5_445 9_554
Ga Er Ga 60.0 1_554 9_554
Ga Er Ga 60.0 5_455 9_554
Ga Er Ga 120.0 5_545 9_554
Ga Er Ga 120.0 1_455 9_554
Ga Er Ga 90.0 9 9_545
Ga Er Ga 60.0 . 9_545
Ga Er Ga 120.0 1_454 9_545
Ga Er Ga 90.0 9_544 9_545
Ga Er Ga 120.0 5 9_545
Ga Er Ga 60.0 5_445 9_545
Ga Er Ga 120.0 1_554 9_545
Ga Er Ga 120.0 5_455 9_545
Ga Er Ga 60.0 5_545 9_545
Ga Er Ga 60.0 1_455 9_545
Ga Er Ga 180.0 9_554 9_545
Mn Ga Mn 180.0 1_545 .
Mn Ga Er 90.0 1_545 .
Mn Ga Er 90.0 . .
Mn Ga Ga 135.0 1_545 9_655
Mn Ga Ga 45.0 . 9_655
Er Ga Ga 120.0 . 9_655
Mn Ga Ga 45.0 1_545 9_545
Mn Ga Ga 135.0 . 9_545
Er Ga Ga 60.0 . 9_545
Ga Ga Ga 180.0 9_655 9_545
Mn Ga Er 90.0 1_545 1_656
Mn Ga Er 90.0 . 1_656
Er Ga Er 180.0 . 1_656
Ga Ga Er 60.0 9_655 1_656
Ga Ga Er 120.0 9_545 1_656
Mn Ga Ga 45.0 1_545 5_545
Mn Ga Ga 135.0 . 5_545
Er Ga Ga 60.0 . 5_545
Ga Ga Ga 120.0 9_655 5_545
Ga Ga Ga 60.0 9_545 5_545
Er Ga Ga 120.0 1_656 5_545
Mn Ga Ga 135.0 1_545 5_556
Mn Ga Ga 45.0 . 5_556
Er Ga Ga 120.0 . 5_556
Ga Ga Ga 60.0 9_655 5_556
Ga Ga Ga 120.0 9_545 5_556
Er Ga Ga 60.0 1_656 5_556
Ga Ga Ga 180.0 5_545 5_556
Mn Ga Er 90.0 1_545 1_655
Mn Ga Er 90.0 . 1_655
Er Ga Er 90.0 . 1_655
Ga Ga Er 60.0 9_655 1_655
Ga Ga Er 120.0 9_545 1_655
Er Ga Er 90.0 1_656 1_655
Ga Ga Er 60.0 5_545 1_655
Ga Ga Er 120.0 5_556 1_655
Mn Ga Ga 45.0 1_545 5_546
Mn Ga Ga 135.0 . 5_546
Er Ga Ga 120.0 . 5_546
Ga Ga Ga 120.0 9_655 5_546
Ga Ga Ga 60.0 9_545 5_546
Er Ga Ga 60.0 1_656 5_546
Ga Ga Ga 90.0 5_545 5_546
Ga Ga Ga 90.0 5_556 5_546
Er Ga Ga 120.0 1_655 5_546
Mn Ga Ga 135.0 1_545 5
Mn Ga Ga 45.0 . 5
Er Ga Ga 60.0 . 5
Ga Ga Ga 60.0 9_655 5
Ga Ga Ga 120.0 9_545 5
Er Ga Ga 120.0 1_656 5
Ga Ga Ga 90.0 5_545 5
Ga Ga Ga 90.0 5_556 5
Er Ga Ga 60.0 1_655 5
Ga Ga Ga 180.0 5_546 5
Mn Ga Ga 45.0 1_545 9_645
Mn Ga Ga 135.0 . 9_645
Er Ga Ga 120.0 . 9_645
Ga Ga Ga 90.0 9_655 9_645
Ga Ga Ga 90.0 9_545 9_645
Er Ga Ga 60.0 1_656 9_645
Ga Ga Ga 60.0 5_545 9_645
Ga Ga Ga 120.0 5_556 9_645
Er Ga Ga 60.0 1_655 9_645
Ga Ga Ga 60.0 5_546 9_645
Ga Ga Ga 120.0 5 9_645
Ga Mn Ga 90.0 9_655 .
Ga Mn Ga 90.0 9_655 1_565
Ga Mn Ga 180.0 . 1_565
Ga Mn Ga 90.0 9_655 5
Ga Mn Ga 90.0 . 5
Ga Mn Ga 90.0 1_565 5
Ga Mn Ga 90.0 9_655 5_556
Ga Mn Ga 90.0 . 5_556
Ga Mn Ga 90.0 1_565 5_556
Ga Mn Ga 180.0 5 5_556
Ga Mn Ga 180.0 9_655 9
Ga Mn Ga 90.0 . 9
Ga Mn Ga 90.0 1_565 9
Ga Mn Ga 90.0 5 9
Ga Mn Ga 90.0 5_556 9
loop_
_geom_bond_atom_site_label_1
_geom_bond_atom_site_label_2
_geom_bond_distance
_geom_bond_site_symmetry_2
Er Ga 2.9913(2) 9
Er Ga 2.9913(2) .
Er Ga 2.9913(2) 1_454
Er Ga 2.9913(2) 9_544
Er Ga 2.9913(2) 5
Er Ga 2.9913(2) 5_445
Er Ga 2.9913(2) 1_554
Er Ga 2.9913(2) 5_455
Er Ga 2.9913(2) 5_545
Er Ga 2.9913(2) 1_455
Er Ga 2.9913(2) 9_554
Er Ga 2.9913(2) 9_545
Ga Mn 2.11515(15) 1_545
Ga Mn 2.11515(15) .
Ga Ga 2.9913(2) 9_655
Ga Ga 2.9913(2) 9_545
Ga Er 2.9913(2) 1_656
Ga Ga 2.9913(2) 5_545
Ga Ga 2.9913(2) 5_556
Ga Er 2.9913(2) 1_655
Ga Ga 2.9913(2) 5_546
Ga Ga 2.9913(2) 5
Ga Ga 2.9913(2) 9_645
Mn Ga 2.11515(15) 9_655
Mn Ga 2.11515(15) 1_565
Mn Ga 2.11515(15) 5
Mn Ga 2.11515(15) 5_556
Mn Ga 2.11515(15) 9
