#------------------------------------------------------------------------------
#$Date: 2016-02-13 21:28:24 +0200 (Sat, 13 Feb 2016) $
#$Revision: 176429 $
#$URL: svn://www.crystallography.net/cod/cif/4/00/23/4002396.cif $
#------------------------------------------------------------------------------
#
# This file is available in the Crystallography Open Database (COD),
# http://www.crystallography.net/
#
# All data on this site have been placed in the public domain by the
# contributors.
#
data_4002396
loop_
_publ_author_name
'Knee, C.S.'
'Lindberg, F.'
'Khan, N.'
'Svensson, G.'
'Svedlindh, P.'
'Eriksson, S.G.'
'Boerjesson, L.'
'Rundloef, H.'
_publ_section_title
;
 Influence of oxygen defects on the structure and magnetic properties of
 Sr(1-x)Bi(x) Co O(3-y) (0.1 <= x <= 0.2) supercell perovskites
;
_journal_name_full               'Chemistry of Materials (1,1989-)'
_journal_page_first              1354
_journal_page_last               1364
_journal_volume                  18
_journal_year                    2006
_chemical_formula_sum            'Bi0.1 Co O2.635 Sr0.9'
_chemical_name_systematic        'Sr0.90 Bi0.10 Co O2.635'
_space_group_IT_number           139
_symmetry_space_group_name_Hall  '-I 4 2'
_symmetry_space_group_name_H-M   'I 4/m m m'
_cell_angle_alpha                90
_cell_angle_beta                 90
_cell_angle_gamma                90
_cell_formula_units_Z            16
_cell_length_a                   7.7322
_cell_length_b                   7.7322
_cell_length_c                   15.528
_cell_volume                     928.371
_citation_journal_id_ASTM        CMATEX
_cod_data_source_file            Knee_CMATEX_2006_813.cif
_cod_data_source_block           Bi0.1Co1O2.635Sr0.9
_cod_original_cell_volume        928.3713
_cod_original_formula_sum        'Bi0.1 Co1 O2.635 Sr0.9'
_cod_database_code               4002396
loop_
_symmetry_equiv_pos_as_xyz
x,y,z
-y,x,z
-x,-y,z
y,-x,z
x,-y,-z
y,x,-z
-x,y,-z
-y,-x,-z
-x,-y,-z
y,-x,-z
x,y,-z
-y,x,-z
-x,y,z
-y,-x,z
x,-y,z
y,x,z
x+1/2,y+1/2,z+1/2
-y+1/2,x+1/2,z+1/2
-x+1/2,-y+1/2,z+1/2
y+1/2,-x+1/2,z+1/2
x+1/2,-y+1/2,-z+1/2
y+1/2,x+1/2,-z+1/2
-x+1/2,y+1/2,-z+1/2
-y+1/2,-x+1/2,-z+1/2
-x+1/2,-y+1/2,-z+1/2
y+1/2,-x+1/2,-z+1/2
x+1/2,y+1/2,-z+1/2
-y+1/2,x+1/2,-z+1/2
-x+1/2,y+1/2,z+1/2
-y+1/2,-x+1/2,z+1/2
x+1/2,-y+1/2,z+1/2
y+1/2,x+1/2,z+1/2
loop_
_atom_site_label
_atom_site_type_symbol
_atom_site_fract_x
_atom_site_fract_y
_atom_site_fract_z
_atom_site_occupancy
_atom_site_U_iso_or_equiv
Bi2 Bi+3 0 0.5 0.8713 0.1 0.0
O2 O-2 0.2702 0.2702 0.1155 1 0.0
Sr3 Sr+2 0 0 0.3606 0.9 0.0
Bi3 Bi+3 0 0 0.3606 0.1 0.0
O3 O-2 0 0.765 0 0.79 0.0
Sr1 Sr+2 0 0 0.8681 0.9 0.0
Bi1 Bi+3 0 0 0.8681 0.1 0.0
Co2 Co+3 0.25 0.25 0.25 1 0.0
Sr2 Sr+2 0 0.5 0.8713 0.9 0.0
Co1 Co+3 0.757 0.757 0 1 0.0
O4 O-2 0.286 0.5 0 0.48 0.0
O1 O-2 0 0.2484 0.2439 1 0.0
