#------------------------------------------------------------------------------
#$Date: 2016-03-04 11:08:28 +0200 (Fri, 04 Mar 2016) $
#$Revision: 177394 $
#$URL: svn://www.crystallography.net/cod/cif/4/00/26/4002660.cif $
#------------------------------------------------------------------------------
#
# This file is available in the Crystallography Open Database (COD),
# http://www.crystallography.net/
#
# All data on this site have been placed in the public domain by the
# contributors.
#
data_4002660
loop_
_publ_author_name
'Wiedemann, Dennis'
'Nakhal, Suliman'
'Rahn, Johanna'
'Witt, Elena'
'Islam, Mazharul M.'
'Zander, Stefan'
'Heitjans, Paul'
'Schmidt, Harald'
'Bredow, Thomas'
'Wilkening, Martin'
'Lerch, Martin'
_publ_section_title
;
 Unravelling Ultraslow Lithium-Ion Diffusion in \g-LiAlO2: Experiments
 with Tracers, Neutrons, and Charge Carriers
;
_journal_issue                   3
_journal_name_full               'Chemistry of Materials'
_journal_page_first              915
_journal_paper_doi               10.1021/acs.chemmater.5b04608
_journal_volume                  28
_journal_year                    2016
_chemical_absolute_configuration unk
_chemical_formula_sum            'Al Li O2'
_chemical_formula_weight         65.9
_chemical_name_common            '\g-lithium aluminate'
_chemical_name_structure_type    \g-LiAlO~2~
_chemical_name_systematic        '\g-lithium aluminium dioxide'
_space_group_IT_number           92
_symmetry_cell_setting           tetragonal
_symmetry_Int_Tables_number      92
_symmetry_space_group_name_Hall  'P 4abw 2nw'
_symmetry_space_group_name_H-M   'P 41 21 2'
_atom_sites_solution_hydrogens   notdet
_atom_sites_solution_primary     other
_atom_sites_solution_secondary   notdet
_cell_angle_alpha                90
_cell_angle_beta                 90
_cell_angle_gamma                90
_cell_formula_units_Z            4
_cell_length_a                   5.2252(2)
_cell_length_b                   5.2252(2)
_cell_length_c                   6.4038(3)
_cell_measurement_temperature    1475
_cell_volume                     174.841(13)
_computing_cell_refinement       'JANA2006 (Pet\<r\'i\<cek, 2014)'
_computing_data_collection       'CARESS 6.6 (Busse et al., 2013)'
_computing_data_reduction        'BEAN 9.2 (Fromme et al., 2000)'
_computing_molecular_graphics    'Diamond 3.2 (Brandenburg, 2013)'
_computing_publication_material  'JANA2006 (Pet\<r\'i\<cek, 2014)'
_computing_structure_refinement  'JANA2006 (Pet\<r\'i\<cek, 2014)'
_computing_structure_solution    'ICSD (Bergerhoff, 1987)'
_diffrn_ambient_environment      vacuum
_diffrn_ambient_temperature      1475
_diffrn_detector                 '^3^He counter'
_diffrn_detector_details
; array of eight DENEX area detectors (active area: 300 \\times 300 mm^2^) with
oscillating radial collimator for background reduction
;
_diffrn_measurement_device       'one-circle powder diffractometer'
_diffrn_measurement_device_details
; D. M. T\"obbens, N. St\"u\&ser, K. Knorr, H. M. Mayer, G. Lampert,
Mater. Sci. Forum 2001, 378-381, 288-293
;
_diffrn_measurement_device_type  FIREPOD
_diffrn_measurement_method       'profile data from area detector'
_diffrn_radiation_monochromator  'Sapphire filter, Ge (511)'
_diffrn_radiation_probe          neutron
_diffrn_radiation_type           neutron
_diffrn_radiation_wavelength     1.7982(1)
_diffrn_source                   'nuclear reactor'
_diffrn_source_type              'BER II beamline T5'
_exptl_absorpt_coefficient_mu    0.162
_exptl_absorpt_correction_type   cylinder
_exptl_absorpt_process_details
; correction for a cylindrical sample with \mR = 0.477 as
implemented in JANA2006
;
_exptl_crystal_density_diffrn    2.5043
_exptl_crystal_density_method    'not measured'
_exptl_crystal_F_000             52.62
_pd_char_atten_coef_mu_calc      0.098
_pd_char_colour                  colourless
_pd_instr_2theta_monochr_pre     111.7
_pd_instr_beam_size_ax           90
_pd_instr_dist_mono/spec         2500
_pd_instr_dist_spec/detc         980
_pd_instr_dist_src/mono          11000
_pd_instr_geometry               Debye-Scherrer
_pd_instr_location
; Fine Resolution Powder Diffractometer (FIREPOD, E9), Helmholtz-Zentrum,
Berlin (Germany)
;
_pd_instr_monochr_pre_spec       'Sapphire filter, Ge (511)'
_pd_instr_soller_eq_mono/spec    0.66667
_pd_instr_soller_eq_spec/detc    0.16667
_pd_instr_soller_eq_src/mono     0.30000
_pd_meas_2theta_range_inc        0.075
_pd_meas_2theta_range_max        141.755
_pd_meas_2theta_range_min        0.005
_pd_meas_number_of_points        1891
_pd_meas_scan_method             step
_pd_proc_2theta_range_inc        0.075
_pd_proc_2theta_range_max        136.43
_pd_proc_2theta_range_min        15.005
_pd_proc_info_data_reduction
; integration of measured 2D intensities along Debye--Scherrer rings to give
1D data
;
_pd_proc_ls_background_function
; manual background (visual estimation, unrefined) interpolated by ten
Legendre polynomials
;
_pd_proc_ls_pref_orient_corr     none
_pd_proc_ls_profile_function
; pseudo-Voigt profile with Thompson-Cox-Hastings approach:
G~U~ = 731(7), G~V~ = -1234.1, G~W~ = 737(7), L~X~ = 6.1(5), L~Y~ = 0,
B\'erar-Baldinozzi asymmetry correction:
A~0~ = 0.347(6), A~1~ = -0.7355
;
_pd_proc_ls_prof_R_factor        0.0215
_pd_proc_ls_prof_wR_expected     0.0227
_pd_proc_ls_prof_wR_factor       0.0272
_pd_spec_mounting                'compacted powder in tantalum can'
_pd_spec_mount_mode              transmission
_pd_spec_orientation             vertical
_pd_spec_shape                   cylinder
_pd_spec_size_axial              55
_pd_spec_size_equat              9.7
_refine_diff_density_max         0.03
_refine_diff_density_min         -0.03
_refine_ls_extinction_method     none
_refine_ls_goodness_of_fit_all   1.20
_refine_ls_matrix_type           fullcycle
_refine_ls_number_constraints    0
_refine_ls_number_parameters     44
_refine_ls_number_restraints     0
_refine_ls_R_factor_all          0.0167
_refine_ls_R_factor_gt           0.0115
_refine_ls_R_I_factor            0.0160
_refine_ls_shift/su_max          0.0005
_refine_ls_shift/su_mean         0.0001
_refine_ls_structure_factor_coef Inet
_refine_ls_weighting_details     w=1/[\s^2^(F~o~)+(0.01F~o~)^2^]
_refine_ls_weighting_scheme      sigma
_refine_ls_wR_factor_all         0.0132
_refine_ls_wR_factor_gt          0.0120
_reflns_threshold_expression     I>3\s(I)
_cod_data_source_file            cm5b04608_si_004.cif
_cod_data_source_block           lialo2-pow-1202C
_cod_depositor_comments
'Adding full bibliography for 4002658--4002660.cif.'
_cod_original_cell_volume        174.843(16)
_cod_original_formula_sum        'Al1 Li1 O2'
_cod_database_code               4002660
loop_
_space_group_symop_id
_space_group_symop_operation_xyz
1 x,y,z
2 -x,-y,z+1/2
3 -y+1/2,x+1/2,z+1/4
4 y+1/2,-x+1/2,z+3/4
5 -x+1/2,y+1/2,-z+1/4
6 x+1/2,-y+1/2,-z+3/4
7 y,x,-z
8 -y,-x,-z+1/2
loop_
_atom_site_label
_atom_site_type_symbol
_atom_site_fract_x
_atom_site_fract_y
_atom_site_fract_z
_atom_site_adp_type
_atom_site_U_iso_or_equiv
_atom_site_site_symmetry_multiplicity
_atom_site_occupancy
_atom_site_calc_flag
Li1 Li 0.7959(16) 0.7959(16) 0 Uani 0.146(6) 4 1 d
Al1 Al 0.1839(9) 0.1839(9) 0 Uani 0.0295(17) 4 1 d
O1 O 0.3421(4) 0.2847(6) 0.7767(5) Uani 0.0435(11) 8 1 d
loop_
_atom_site_aniso_label
_atom_site_aniso_type_symbol
_atom_site_aniso_U_11
_atom_site_aniso_U_22
_atom_site_aniso_U_33
_atom_site_aniso_U_12
_atom_site_aniso_U_13
_atom_site_aniso_U_23
Li1 Li 0.123(6) 0.123(6) 0.190(15) -0.063(11) 0.023(7) -0.023(7)
Al1 Al 0.0357(18) 0.0357(18) 0.017(4) -0.008(3) -0.001(2) 0.001(2)
O1 O 0.0370(18) 0.058(2) 0.035(2) -0.0150(15) -0.0070(12) 0.0001(19)
loop_
_atom_type_symbol
_atom_type_scat_length_neutron
_atom_type_scat_source
Al 3.449 International_Tables_Vol_C
Li -1.900 International_Tables_Vol_C
O 5.803 International_Tables_Vol_C
loop_
_geom_angle_atom_site_label_1
_geom_angle_atom_site_label_2
_geom_angle_atom_site_label_3
_geom_angle_site_symmetry_1
_geom_angle_site_symmetry_3
_geom_angle
O1 Li1 O1 2_664 3_654 108.6(2)
O1 Li1 O1 2_664 6_565 108.9(3)
O1 Li1 O1 2_664 8_665 131.3(5)
O1 Li1 O1 3_654 6_565 77.9(3)
O1 Li1 O1 3_654 8_665 108.9(3)
O1 Li1 O1 6_565 8_665 108.6(2)
O1 Al1 O1 1_554 3_544 109.6(2)
O1 Al1 O1 1_554 6_455 111.52(19)
O1 Al1 O1 1_554 7_556 113.0(3)
O1 Al1 O1 3_544 6_455 100.9(3)
O1 Al1 O1 3_544 7_556 111.52(19)
O1 Al1 O1 6_455 7_556 109.6(2)
loop_
_geom_bond_atom_site_label_1
_geom_bond_atom_site_label_2
_geom_bond_site_symmetry_2
_geom_bond_distance
Li1 O1 2_664 1.959(5)
Li1 O1 3_654 2.211(9)
Li1 O1 6_565 2.211(9)
Li1 O1 8_665 1.959(5)
Al1 O1 1_554 1.734(4)
Al1 O1 3_544 1.801(5)
Al1 O1 6_455 1.801(5)
Al1 O1 7_556 1.734(4)
loop_
_pd_proc_point_id
_pd_proc_2theta_corrected
_pd_proc_intensity_net
_pd_calc_intensity_net
_pd_proc_ls_weight
1 15.1525 805.59 817.42 28.38
2 15.2275 813.08 818.61 28.51
3 15.3025 826.62 819.80 28.75
4 15.3775 851.12 821.00 29.17
5 15.4525 852.94 822.20 29.21
6 15.5275 892.97 823.41 29.88
7 15.6025 836.58 824.62 28.92
8 15.6775 845.38 825.83 29.08
9 15.7525 807.27 827.05 28.41
10 15.8275 816.46 828.27 28.57
11 15.9025 871.97 829.50 29.53
12 15.9775 826.25 830.73 28.74
13 16.0525 837.35 831.97 28.94
14 16.1275 797.62 833.20 28.24
15 16.2025 847.33 834.45 29.11
16 16.2775 845.78 835.69 29.08
17 16.3525 846.30 836.95 29.09
18 16.4275 808.84 838.20 28.44
19 16.5025 833.58 839.46 28.87
20 16.5775 811.33 840.72 28.48
21 16.6525 835.63 841.99 28.91
22 16.7275 823.04 843.27 28.69
23 16.8025 773.13 844.54 27.81
24 16.8775 778.59 845.82 27.90
25 16.9525 841.31 847.11 29.01
26 17.0275 841.53 848.40 29.01
27 17.1025 832.25 849.69 28.85
28 17.1775 817.28 850.99 28.59
29 17.2525 840.00 852.32 28.98
30 17.3275 820.80 853.62 28.65
31 17.4025 857.71 854.93 29.29
32 17.4775 803.73 856.25 28.35
33 17.5525 844.62 857.57 29.06
34 17.6275 841.09 858.90 29.00
35 17.7025 865.40 860.22 29.42
36 17.7775 866.28 861.56 29.43
37 17.8525 835.41 862.90 28.90
38 17.9275 838.80 864.24 28.96
39 18.0025 865.71 865.58 29.42
40 18.0775 902.75 866.93 30.05
41 18.1525 862.74 868.29 29.37
42 18.2275 844.94 869.65 29.07
43 18.3025 847.20 871.02 29.11
44 18.3775 896.43 872.39 29.94
45 18.4525 876.11 873.76 29.60
46 18.5275 916.07 875.14 30.27
47 18.6025 886.17 876.52 29.77
48 18.6775 951.26 877.91 30.84
49 18.7525 891.47 879.30 29.86
50 18.8275 914.82 880.70 30.25
51 18.9025 944.45 882.10 30.73
52 18.9775 904.55 883.51 30.08
53 19.0525 925.41 884.92 30.42
54 19.1275 869.47 886.34 29.49
55 19.2025 850.58 887.76 29.16
56 19.2775 905.25 889.18 30.09
57 19.3525 866.64 890.61 29.44
58 19.4275 848.46 892.05 29.13
59 19.5025 868.22 893.49 29.47
60 19.5775 859.34 894.94 29.31
61 19.6525 922.64 896.39 30.38
62 19.7275 919.10 897.84 30.32
63 19.8025 918.08 899.39 30.30
64 19.8775 849.69 900.95 29.15
65 19.9525 946.36 902.52 30.76
66 20.0275 933.67 904.09 30.56
67 20.1025 933.62 905.67 30.56
68 20.1775 942.98 907.26 30.71
69 20.2525 906.44 908.85 30.11
70 20.3275 939.64 910.45 30.65
71 20.4025 966.88 912.06 31.09
72 20.4775 954.10 913.67 30.89
73 20.5525 940.02 915.28 30.66
74 20.6275 906.35 916.91 30.11
75 20.7025 945.61 918.54 30.75
76 20.7775 877.99 920.17 29.63
77 20.8525 916.99 921.82 30.28
78 20.9275 921.85 923.47 30.36
79 21.0025 905.82 925.13 30.10
80 21.0775 969.89 926.80 31.14
81 21.1525 953.29 928.47 30.88
82 21.2275 948.20 930.16 30.79
83 21.3025 928.83 931.85 30.48
84 21.3775 930.73 933.55 30.51
85 21.4525 960.97 935.26 31.00
86 21.5275 979.37 936.98 31.29
87 21.6025 1024.16 938.72 32.00
88 21.6775 969.94 940.46 31.14
89 21.7525 1016.96 942.22 31.89
90 21.8275 1006.38 943.98 31.72
91 21.9025 931.99 945.76 30.53
92 21.9775 969.49 947.55 31.14
93 22.0525 985.37 949.36 31.39
94 22.1275 1010.05 951.33 31.78
95 22.2025 988.09 953.17 31.43
96 22.2775 959.45 955.03 30.98
97 22.3525 960.51 956.91 30.99
98 22.4275 973.25 958.81 31.20
99 22.5025 994.66 960.73 31.54
100 22.5775 977.15 962.68 31.26
101 22.6525 993.83 964.65 31.53
102 22.7275 999.94 966.65 31.62
103 22.8025 984.63 968.68 31.38
104 22.8775 939.62 970.75 30.65
105 22.9525 978.16 972.85 31.28
106 23.0275 966.06 974.99 31.08
107 23.1025 947.62 977.18 30.78
108 23.1775 937.26 979.43 30.61
109 23.2525 925.21 981.73 30.42
110 23.3275 939.69 984.09 30.65
111 23.4025 937.44 986.52 30.62
112 23.4775 957.61 988.28 30.95
113 23.5525 999.34 989.70 31.61
114 23.6275 986.09 991.22 31.40
115 23.7025 961.29 992.87 31.00
116 23.7775 923.32 994.65 30.39
117 23.8525 940.77 996.59 30.67
118 23.9275 982.59 998.73 31.35
119 24.0025 975.63 1001.08 31.24
120 24.0775 997.31 1003.70 31.58
121 24.1525 999.93 1006.62 31.62
122 24.2275 986.80 1009.92 31.41
123 24.3025 998.62 1013.67 31.60
124 24.3775 995.32 1017.98 31.55
125 24.4525 977.64 1022.97 31.27
126 24.5275 982.99 1028.85 31.35
127 24.6025 990.13 1035.97 31.47
128 24.6775 1008.70 1045.10 31.76
129 24.7525 1064.79 1058.14 32.63
130 24.8275 1125.15 1079.83 33.54
131 24.9025 1171.03 1121.21 34.22
132 24.9775 1305.69 1205.41 36.13
133 25.0525 1623.33 1374.69 40.29
134 25.1275 1934.59 1694.38 43.98
135 25.2025 2482.39 2245.92 49.82
136 25.2775 3195.76 3100.77 56.53
137 25.3525 4306.90 4275.28 65.63
138 25.4275 5572.95 5682.54 74.65
139 25.5025 7007.65 7108.82 83.71
140 25.5775 8007.25 8240.48 89.48
141 25.6525 8561.46 8755.54 92.53
142 25.7275 8509.88 8480.98 92.25
143 25.8025 7666.06 7510.36 87.56
144 25.8775 6270.09 6136.90 79.18
145 25.9525 4798.49 4691.61 69.27
146 26.0275 3326.64 3427.56 57.68
147 26.1025 2329.16 2472.16 48.26
148 26.1775 1722.09 1835.90 41.50
149 26.2525 1367.36 1457.40 36.98
150 26.3275 1228.79 1253.24 35.05
151 26.4025 1146.80 1151.07 33.86
152 26.4775 1046.48 1101.70 32.35
153 26.5525 1063.80 1077.09 32.62
154 26.6275 1002.84 1063.44 31.67
155 26.7025 1022.92 1054.66 31.98
156 26.7775 999.45 1048.29 31.61
157 26.8525 1041.70 1043.36 32.28
158 26.9275 1006.20 1039.43 31.72
159 27.0025 1066.13 1036.27 32.65
160 27.0775 1017.54 1033.30 31.90
161 27.1525 993.32 1030.49 31.52
162 27.2275 1005.24 1028.20 31.71
163 27.3025 1031.52 1026.48 32.12
164 27.3775 1021.89 1025.60 31.97
165 27.4525 1010.43 1026.22 31.79
166 27.5275 1011.20 1029.77 31.80
167 27.6025 1043.76 1038.75 32.31
168 27.6775 1047.84 1056.73 32.37
169 27.7525 1078.12 1087.62 32.83
170 27.8275 1124.28 1133.84 33.53
171 27.9025 1155.48 1193.75 33.99
172 27.9775 1217.21 1259.70 34.89
173 28.0525 1280.85 1318.27 35.79
174 28.1275 1377.23 1353.42 37.11
175 28.2025 1337.06 1353.25 36.57
176 28.2775 1355.28 1317.57 36.81
177 28.3525 1305.72 1258.05 36.13
178 28.4275 1211.63 1190.96 34.81
179 28.5025 1097.83 1129.18 33.13
180 28.5775 1068.22 1080.73 32.68
181 28.6525 1051.80 1047.40 32.43
182 28.7275 994.19 1026.96 31.53
183 28.8025 1032.56 1015.56 32.13
184 28.8775 1036.27 1009.60 32.19
185 28.9525 965.33 1006.50 31.07
186 29.0275 974.04 1004.76 31.21
187 29.1025 949.16 1003.64 30.81
188 29.1775 972.03 1002.79 31.18
189 29.2525 983.01 1002.09 31.35
190 29.3275 1028.47 1001.47 32.07
191 29.4025 974.50 1000.92 31.22
192 29.4775 995.76 1000.42 31.56
193 29.5525 979.04 999.96 31.29
194 29.6275 1011.27 999.54 31.80
195 29.7025 996.84 999.16 31.57
196 29.7775 988.31 998.81 31.44
197 29.8525 1017.98 998.49 31.91
198 29.9275 1008.58 998.20 31.76
199 30.0025 966.75 997.93 31.09
200 30.0775 957.46 997.68 30.94
201 30.1525 962.37 997.47 31.02
202 30.2275 1017.18 997.27 31.89
203 30.3025 1075.27 997.11 32.79
204 30.3775 1036.56 997.31 32.20
205 30.4525 992.78 997.21 31.51
206 30.5275 968.88 997.13 31.13
207 30.6025 926.22 997.09 30.43
208 30.6775 1025.03 997.09 32.02
209 30.7525 1007.72 997.12 31.74
210 30.8275 992.86 997.20 31.51
211 30.9025 989.75 997.34 31.46
212 30.9775 986.52 997.53 31.41
213 31.0525 992.79 997.79 31.51
214 31.1275 1010.99 998.14 31.80
215 31.2025 1032.55 998.72 32.13
216 31.2775 1020.77 1001.49 31.95
217 31.3525 1001.24 1004.40 31.64
218 31.4275 1035.31 1007.48 32.18
219 31.5025 1008.85 1010.80 31.76
220 31.5775 983.74 1014.42 31.36
221 31.6525 1040.84 1018.48 32.26
222 31.7275 1025.84 1023.30 32.03
223 31.8025 1013.96 1029.72 31.84
224 31.8775 1017.93 1039.86 31.91
225 31.9525 1062.68 1058.70 32.60
226 32.0275 1124.25 1096.36 33.53
227 32.1025 1232.85 1170.33 35.11
228 32.1775 1292.42 1304.87 35.95
229 32.2525 1486.16 1524.05 38.55
230 32.3275 1768.13 1837.03 42.05
231 32.4025 2119.48 2220.47 46.04
232 32.4775 2470.19 2609.42 49.70
233 32.5525 2739.78 2907.40 52.34
234 32.6275 2982.52 3019.35 54.61
235 32.7025 2983.25 2904.58 54.62
236 32.7775 2821.28 2608.30 53.12
237 32.8525 2434.90 2227.05 49.34
238 32.9275 1951.67 1854.14 44.18
239 33.0025 1571.36 1549.93 39.64
240 33.0775 1392.35 1335.94 37.31
241 33.1525 1196.09 1204.01 34.58
242 33.2275 1104.88 1131.91 33.24
243 33.3025 1074.37 1096.58 32.78
244 33.3775 1050.76 1080.81 32.42
245 33.4525 1082.53 1074.26 32.90
246 33.5275 1094.50 1071.72 33.08
247 33.6025 1096.06 1070.86 33.11
248 33.6775 1096.30 1070.80 33.11
249 33.7525 1096.60 1071.18 33.11
250 33.8275 1080.63 1071.86 32.87
251 33.9025 1070.77 1072.76 32.72
252 33.9775 1120.64 1073.84 33.48
253 34.0525 1084.76 1075.53 32.94
254 34.1275 1067.87 1076.89 32.68
255 34.2025 1100.56 1078.34 33.17
256 34.2775 1134.22 1079.88 33.68
257 34.3525 1097.07 1081.49 33.12
258 34.4275 1123.60 1083.15 33.52
259 34.5025 1138.85 1084.88 33.75
260 34.5775 1098.32 1086.64 33.14
261 34.6525 1077.45 1088.45 32.82
262 34.7275 1130.72 1091.35 33.63
263 34.8025 1138.62 1094.37 33.74
264 34.8775 1153.30 1097.41 33.96
265 34.9525 1130.85 1100.49 33.63
266 35.0275 1166.46 1103.59 34.15
267 35.1025 1121.27 1106.72 33.49
268 35.1775 1111.97 1109.87 33.35
269 35.2525 1095.22 1113.04 33.09
270 35.3275 1108.49 1116.23 33.29
271 35.4025 1156.50 1119.44 34.01
272 35.4775 1128.13 1122.68 33.59
273 35.5525 1114.95 1125.94 33.39
274 35.6275 1129.79 1129.22 33.61
275 35.7025 1137.53 1132.52 33.73
276 35.7775 1155.02 1136.12 33.99
277 35.8525 1101.83 1139.48 33.19
278 35.9275 1137.67 1142.87 33.73
279 36.0025 1134.96 1146.29 33.69
280 36.0775 1106.51 1149.74 33.26
281 36.1525 1152.47 1153.23 33.95
282 36.2275 1179.55 1156.76 34.34
283 36.3025 1149.16 1160.34 33.90
284 36.3775 1165.00 1163.97 34.13
285 36.4525 1165.75 1167.64 34.14
286 36.5275 1142.43 1171.04 33.80
287 36.6025 1136.69 1174.50 33.71
288 36.6775 1146.86 1178.06 33.87
289 36.7525 1153.68 1181.71 33.97
290 36.8275 1174.04 1184.97 34.26
291 36.9025 1153.01 1188.88 33.96
292 36.9775 1182.47 1192.96 34.39
293 37.0525 1191.12 1197.24 34.51
294 37.1275 1182.03 1201.76 34.38
295 37.2025 1187.02 1206.57 34.45
296 37.2775 1191.67 1211.75 34.52
297 37.3525 1185.23 1217.41 34.43
298 37.4275 1215.74 1223.68 34.87
299 37.5025 1224.43 1230.84 34.99
300 37.5775 1269.56 1239.47 35.63
301 37.6525 1260.72 1251.10 35.51
302 37.7275 1290.46 1269.78 35.92
303 37.8025 1388.85 1305.52 37.27
304 37.8775 1429.89 1379.80 37.81
305 37.9525 1542.29 1531.09 39.27
306 38.0275 1737.41 1813.56 41.68
307 38.1025 2153.98 2278.98 46.41
308 38.1775 2826.94 2938.72 53.17
309 38.2525 3757.00 3721.54 61.29
310 38.3275 4528.41 4460.56 67.29
311 38.4025 5047.92 4934.00 71.05
312 38.4775 5118.64 4965.00 71.54
313 38.5525 4649.63 4545.52 68.19
314 38.6275 3881.99 3845.86 62.31
315 38.7025 3017.47 3084.97 54.93
316 38.7775 2388.06 2425.60 48.87
317 38.8525 1878.38 1942.90 43.34
318 38.9275 1657.30 1637.53 40.71
319 39.0025 1557.30 1468.63 39.46
320 39.0775 1445.91 1386.50 38.03
321 39.1525 1415.91 1351.35 37.63
322 39.2275 1378.29 1338.81 37.13
323 39.3025 1368.00 1337.12 36.99
324 39.3775 1408.17 1341.44 37.53
325 39.4525 1402.80 1350.63 37.45
326 39.5275 1393.74 1368.11 37.33
327 39.6025 1455.84 1404.29 38.16
328 39.6775 1560.58 1482.91 39.50
329 39.7525 1741.70 1648.55 41.73
330 39.8275 2050.66 1966.93 45.28
331 39.9025 2547.96 2505.19 50.48
332 39.9775 3353.48 3285.00 57.91
333 40.0525 4394.70 4227.00 66.29
334 40.1275 5311.98 5129.41 72.88
335 40.2025 5872.75 5716.37 76.63
336 40.2775 5764.39 5762.92 75.92
337 40.3525 5239.48 5255.04 72.38
338 40.4275 4298.08 4405.65 65.56
339 40.5025 3268.65 3487.38 57.17
340 40.5775 2505.49 2698.52 50.05
341 40.6525 1983.01 2126.99 44.53
342 40.7275 1632.85 1769.25 40.41
343 40.8025 1498.59 1573.22 38.71
344 40.8775 1449.97 1477.85 38.08
345 40.9525 1415.59 1435.77 37.62
346 41.0275 1404.91 1418.27 37.48
347 41.1025 1332.81 1411.06 36.51
348 41.1775 1354.49 1408.08 36.80
349 47.4775 1406.16 1436.52 37.50
350 47.5525 1396.67 1438.25 37.37
351 47.6275 1413.98 1438.47 37.60
352 47.7025 1456.46 1438.43 38.16
353 47.7775 1431.78 1443.97 37.84
354 47.8525 1468.29 1462.41 38.32
355 47.9275 1500.71 1506.42 38.74
356 48.0025 1511.40 1591.57 38.88
357 48.0775 1622.58 1726.69 40.28
358 48.1525 1821.06 1899.46 42.67
359 48.2275 2026.21 2068.52 45.01
360 48.3025 2200.18 2173.12 46.91
361 48.3775 2179.10 2165.29 46.68
362 48.4525 2094.65 2048.12 45.77
363 48.5275 1928.29 1873.98 43.91
364 48.6025 1805.06 1700.56 42.49
365 48.6775 1561.90 1561.90 39.52
366 48.7525 1459.60 1467.67 38.20
367 48.8275 1319.24 1411.49 36.32
368 48.9025 1360.71 1380.91 36.89
369 48.9775 1406.15 1364.52 37.50
370 49.0525 1351.16 1354.81 36.76
371 49.1275 1342.93 1347.85 36.65
372 49.2025 1366.98 1344.23 36.97
373 49.2775 1364.45 1342.64 36.94
374 49.3525 1338.54 1341.29 36.59
375 49.4275 1384.09 1340.10 37.20
376 49.5025 1389.88 1339.05 37.28
377 49.5775 1352.77 1338.09 36.78
378 49.6525 1371.55 1337.44 37.03
379 49.7275 1350.65 1336.69 36.75
380 49.8025 1324.44 1335.94 36.39
381 49.8775 1334.09 1335.23 36.53
382 49.9525 1369.53 1334.55 37.01
383 50.0275 1357.40 1333.91 36.84
384 50.1025 1346.80 1333.30 36.70
385 50.1775 1385.43 1332.36 37.22
386 50.2525 1341.61 1331.79 36.63
387 50.3275 1327.35 1331.24 36.43
388 50.4025 1307.38 1330.70 36.16
389 50.4775 1290.95 1330.18 35.93
390 50.5525 1330.86 1329.67 36.48
391 50.6275 1322.30 1329.17 36.36
392 50.7025 1350.01 1328.68 36.74
393 50.7775 1342.37 1328.20 36.64
394 50.8525 1342.60 1327.72 36.64
395 50.9275 1341.08 1327.26 36.62
396 51.0025 1341.65 1326.80 36.63
397 51.0775 1344.29 1326.87 36.66
398 51.1525 1367.41 1326.94 36.98
399 51.2275 1302.58 1327.02 36.09
400 51.3025 1335.92 1327.10 36.55
401 51.3775 1292.95 1327.20 35.96
402 51.4525 1364.01 1327.30 36.93
403 51.5275 1340.27 1327.41 36.61
404 51.6025 1348.19 1327.54 36.72
405 51.6775 1307.30 1327.68 36.16
406 51.7525 1337.86 1327.83 36.58
407 51.8275 1297.60 1328.01 36.02
408 51.9025 1297.26 1328.21 36.02
409 51.9775 1309.55 1328.47 36.19
410 52.0525 1312.12 1328.84 36.22
411 52.1275 1333.14 1329.50 36.51
412 52.2025 1357.76 1330.88 36.85
413 52.2775 1337.03 1333.92 36.57
414 52.3525 1316.99 1340.13 36.29
415 52.4275 1378.57 1351.03 37.13
416 52.5025 1426.39 1366.86 37.77
417 52.5775 1404.15 1384.85 37.47
418 52.6525 1387.31 1399.36 37.25
419 52.7275 1326.76 1404.17 36.42
420 52.8025 1375.53 1396.96 37.09
421 52.8775 1440.36 1381.72 37.95
422 52.9525 1354.96 1364.89 36.81
423 53.0275 1334.88 1350.86 36.54
424 53.1025 1360.76 1341.23 36.89
425 53.1775 1367.73 1335.65 36.98
426 53.2525 1376.39 1332.88 37.10
427 53.3275 1320.58 1331.27 36.34
428 53.4025 1387.71 1330.89 37.25
429 53.4775 1356.03 1330.86 36.82
430 53.5525 1352.21 1331.05 36.77
431 53.6275 1339.47 1331.54 36.60
432 53.7025 1365.66 1332.58 36.95
433 53.7775 1325.93 1334.55 36.41
434 53.8525 1316.65 1337.72 36.29
435 53.9275 1296.99 1341.89 36.01
436 54.0025 1402.01 1346.03 37.44
437 54.0775 1372.32 1348.65 37.04
438 54.1525 1305.05 1348.56 36.13
439 54.2275 1312.66 1345.95 36.23
440 54.3025 1333.17 1342.26 36.51
441 54.3775 1327.10 1338.83 36.43
442 54.4525 1335.17 1336.35 36.54
443 54.5275 1335.48 1334.92 36.54
444 54.6025 1341.33 1334.49 36.62
445 54.6775 1312.48 1334.58 36.23
446 54.7525 1333.91 1334.94 36.52
447 54.8275 1324.98 1335.17 36.40
448 54.9025 1322.10 1335.74 36.36
449 54.9775 1352.57 1336.37 36.78
450 55.0525 1366.49 1337.05 36.97
451 55.1275 1306.49 1337.78 36.15
452 55.2025 1285.59 1338.57 35.86
453 55.2775 1346.51 1339.44 36.69
454 55.3525 1367.27 1340.38 36.98
455 55.4275 1373.38 1341.42 37.06
456 55.5025 1341.35 1342.57 36.62
457 55.5775 1340.52 1343.86 36.61
458 55.6525 1339.51 1345.32 36.60
459 55.7275 1410.68 1346.99 37.56
460 55.8025 1368.32 1348.92 36.99
461 55.8775 1397.04 1351.20 37.38
462 55.9525 1356.56 1353.95 36.83
463 56.0275 1391.24 1357.35 37.30
464 56.1025 1402.11 1361.75 37.44
465 56.1775 1318.74 1368.06 36.31
466 56.2525 1319.32 1378.86 36.32
467 56.3275 1374.60 1401.62 37.08
468 56.4025 1410.55 1454.80 37.56
469 56.4775 1549.79 1574.60 39.37
470 56.5525 1777.05 1810.58 42.15
471 56.6275 2213.58 2196.02 47.05
472 56.7025 2673.61 2694.07 51.71
473 56.7775 3248.26 3166.79 56.99
474 56.8525 3539.40 3417.68 59.49
475 56.9275 3356.40 3316.40 57.93
476 57.0025 2895.30 2927.32 53.81
477 57.0775 2424.26 2444.23 49.24
478 57.1525 2043.54 2022.24 45.21
479 57.2275 1675.25 1725.36 40.93
480 57.3025 1525.26 1550.27 39.05
481 57.3775 1450.68 1463.12 38.09
482 57.4525 1468.28 1427.69 38.32
483 57.5275 1413.06 1419.36 37.59
484 57.6025 1424.04 1428.87 37.74
485 57.6775 1473.54 1463.90 38.39
486 57.7525 1494.89 1555.36 38.66
487 57.8275 1688.22 1763.00 41.09
488 57.9025 2079.18 2160.60 45.60
489 57.9775 2751.37 2778.94 52.45
490 58.0525 3677.11 3523.95 60.64
491 58.1275 4162.55 4153.66 64.52
492 58.2025 4468.34 4378.96 66.85
493 58.2775 4097.48 4077.97 64.01
494 58.3525 3474.30 3429.98 58.94
495 58.4275 2688.83 2727.10 51.85
496 58.5025 2078.89 2158.41 45.59
497 58.5775 1753.93 1780.34 41.88
498 58.6525 1584.89 1566.81 39.81
499 58.7275 1437.30 1462.23 37.91
500 58.8025 1419.36 1416.16 37.67
501 58.8775 1352.57 1396.23 36.78
502 58.9525 1389.99 1386.43 37.28
503 59.0275 1418.74 1380.42 37.67
504 59.1025 1410.85 1376.07 37.56
505 59.1775 1371.81 1372.68 37.04
506 59.2525 1374.65 1370.00 37.08
507 59.3275 1373.17 1367.86 37.06
508 59.4025 1359.87 1366.16 36.88
509 59.4775 1372.22 1364.81 37.04
510 59.5525 1339.15 1363.75 36.59
511 59.6275 1341.54 1363.12 36.63
512 59.7025 1352.75 1363.21 36.78
513 59.7775 1296.89 1363.49 36.01
514 59.8525 1346.86 1363.95 36.70
515 59.9275 1383.56 1364.58 37.20
516 60.0025 1317.12 1365.40 36.29
517 60.0775 1377.37 1366.44 37.11
518 60.1525 1395.75 1367.82 37.36
519 60.2275 1334.26 1369.86 36.53
520 60.3025 1376.16 1373.72 37.10
521 60.3775 1402.95 1382.05 37.46
522 60.4525 1416.09 1400.28 37.63
523 60.5275 1438.97 1437.23 37.93
524 60.6025 1539.08 1499.60 39.23
525 60.6775 1601.32 1582.42 40.02
526 60.7525 1677.66 1662.21 40.96
527 60.8275 1690.06 1704.24 41.11
528 60.9025 1612.39 1685.56 40.15
529 60.9775 1590.13 1619.00 39.88
530 61.0525 1513.89 1539.48 38.91
531 61.1275 1475.58 1472.70 38.41
532 61.2025 1400.48 1427.59 37.42
533 61.2775 1400.02 1402.13 37.42
534 61.3525 1410.04 1390.03 37.55
535 61.4275 1379.92 1385.25 37.15
536 61.5025 1393.06 1383.76 37.32
537 61.5775 1368.29 1383.55 36.99
538 61.6525 1369.71 1383.83 37.01
539 61.7275 1388.59 1384.30 37.26
540 61.8025 1378.25 1384.90 37.12
541 61.8775 1372.60 1385.58 37.05
542 61.9525 1420.77 1386.34 37.69
543 62.0275 1457.34 1388.27 38.18
544 62.1025 1407.95 1390.31 37.52
545 62.1775 1393.18 1392.39 37.33
546 62.2525 1358.11 1394.50 36.85
547 62.3275 1437.97 1396.65 37.92
548 62.4025 1380.32 1398.83 37.15
549 62.4775 1441.75 1401.04 37.97
550 62.5525 1390.82 1403.28 37.29
551 62.6275 1305.85 1405.55 36.14
552 62.7025 1360.78 1407.84 36.89
553 62.7775 1448.43 1410.17 38.06
554 62.8525 1376.95 1412.66 37.11
555 62.9275 1378.25 1415.23 37.12
556 67.2775 1590.33 1575.30 39.88
557 67.3525 1518.23 1580.25 38.96
558 67.4275 1563.22 1586.01 39.54
559 67.5025 1567.86 1592.85 39.60
560 67.5775 1548.65 1599.31 39.35
561 67.6525 1553.89 1607.05 39.42
562 67.7275 1614.72 1620.39 40.18
563 67.8025 1589.64 1648.14 39.87
564 67.8775 1636.73 1715.71 40.46
565 67.9525 1776.74 1881.38 42.15
566 68.0275 2078.54 2240.60 45.59
567 68.1025 2646.24 2876.84 51.44
568 68.1775 3540.59 3744.18 59.50
569 68.2525 4468.80 4575.64 66.85
570 68.3275 4965.30 4969.46 70.46
571 68.4025 4783.87 4688.49 69.17
572 68.4775 4205.70 3923.95 64.85
573 68.5525 3356.25 3082.14 57.93
574 68.6275 2610.08 2420.96 51.09
575 68.7025 2099.55 1999.38 45.82
576 68.7775 1839.46 1771.74 42.89
577 68.8525 1721.85 1665.18 41.50
578 68.9275 1582.78 1619.92 39.78
579 69.0025 1616.23 1600.49 40.20
580 69.0775 1612.64 1591.57 40.16
581 69.1525 1601.15 1589.38 40.01
582 69.2275 1564.60 1595.72 39.56
583 69.3025 1617.97 1613.58 40.22
584 69.3775 1611.29 1641.90 40.14
585 69.4525 1634.45 1670.93 40.43
586 69.5275 1713.55 1684.82 41.40
587 69.6025 1754.26 1672.95 41.88
588 69.6775 1694.04 1642.01 41.16
589 69.7525 1623.57 1608.20 40.29
590 69.8275 1628.74 1581.59 40.36
591 69.9025 1596.20 1564.37 39.95
592 69.9775 1585.44 1554.71 39.82
593 70.0525 1544.93 1549.80 39.31
594 70.1275 1518.22 1547.35 38.96
595 70.2025 1515.06 1546.01 38.92
596 70.2775 1514.93 1545.19 38.92
597 70.3525 1538.14 1544.69 39.22
598 70.4275 1607.10 1544.46 40.09
599 70.5025 1569.85 1544.52 39.62
600 70.5775 1570.05 1544.88 39.62
601 70.6525 1509.78 1546.40 38.86
602 70.7275 1515.99 1549.02 38.94
603 70.8025 1555.83 1552.13 39.44
604 70.8775 1525.16 1555.86 39.05
605 70.9525 1513.71 1560.37 38.91
606 71.0275 1586.30 1565.91 39.83
607 71.1025 1592.34 1572.88 39.90
608 71.1775 1586.70 1581.91 39.83
609 71.2525 1655.18 1594.29 40.68
610 71.3275 1593.91 1612.66 39.92
611 71.4025 1665.00 1645.77 40.80
612 71.4775 1757.71 1720.13 41.92
613 71.5525 1899.29 1905.11 43.58
614 71.6275 2255.11 2335.56 47.49
615 71.7025 3121.61 3171.42 55.87
616 71.7775 4355.84 4428.86 66.00
617 71.8525 5784.36 5780.55 76.06
618 71.9275 6384.20 6595.43 79.90
619 72.0025 6268.91 6363.95 79.18
620 72.0775 5371.89 5262.10 73.29
621 72.1525 4130.10 3960.00 64.27
622 72.2275 2962.66 2918.27 54.43
623 72.3025 2319.08 2250.57 48.16
624 72.3775 1983.93 1889.75 44.54
625 72.4525 1809.33 1721.69 42.54
626 72.5275 1716.60 1651.31 41.43
627 72.6025 1647.07 1621.36 40.58
628 72.6775 1629.22 1605.86 40.36
629 72.7525 1595.14 1595.62 39.94
630 72.8275 1540.67 1587.92 39.25
631 72.9025 1521.26 1581.76 39.00
632 72.9775 1558.89 1577.01 39.48
633 73.0525 1626.90 1573.25 40.33
634 73.1275 1645.28 1570.28 40.56
635 73.2025 1584.15 1567.93 39.80
636 73.2775 1585.82 1566.08 39.82
637 73.3525 1577.57 1564.62 39.72
638 73.4275 1611.42 1563.49 40.14
639 73.5025 1571.03 1562.62 39.64
640 73.5775 1589.27 1561.49 39.87
641 73.6525 1596.50 1560.47 39.96
642 73.7275 1601.12 1559.60 40.01
643 73.8025 1586.16 1558.87 39.83
644 73.8775 1598.97 1558.26 39.99
645 73.9525 1615.24 1557.76 40.19
646 74.0275 1572.24 1557.35 39.65
647 74.1025 1569.31 1556.91 39.61
648 74.1775 1570.94 1556.68 39.63
649 74.2525 1569.79 1556.52 39.62
650 74.3275 1604.63 1556.46 40.06
651 74.4025 1569.11 1556.73 39.61
652 74.4775 1547.10 1557.22 39.33
653 74.5525 1536.66 1557.83 39.20
654 74.6275 1527.53 1558.77 39.08
655 74.7025 1565.01 1559.72 39.56
656 74.7775 1573.84 1560.96 39.67
657 74.8525 1510.76 1562.73 38.87
658 74.9275 1577.08 1565.72 39.71
659 75.0025 1541.75 1572.09 39.27
660 75.0775 1554.94 1587.39 39.43
661 75.1525 1565.39 1622.28 39.56
662 75.2275 1630.06 1688.84 40.37
663 75.3025 1716.01 1786.90 41.42
664 75.3775 1868.61 1888.88 43.23
665 75.4525 1938.17 1945.12 44.02
666 75.5275 1891.83 1919.89 43.50
667 75.6025 1801.68 1832.47 42.45
668 75.6775 1708.02 1735.00 41.33
669 75.7525 1633.29 1660.16 40.41
670 75.8275 1594.54 1613.96 39.93
671 75.9025 1553.25 1590.20 39.41
672 75.9775 1530.23 1580.31 39.12
673 76.0525 1577.94 1577.75 39.72
674 76.1275 1580.35 1581.14 39.75
675 76.2025 1605.33 1591.06 40.07
676 76.2775 1603.90 1613.03 40.05
677 76.3525 1735.24 1660.74 41.66
678 76.4275 1747.76 1748.87 41.81
679 76.5025 1897.51 1876.03 43.56
680 76.5775 1974.92 2003.76 44.44
681 76.6525 2030.81 2067.76 45.06
682 76.7275 1991.71 2027.08 44.63
683 76.8025 1911.10 1914.62 43.72
684 76.8775 1779.91 1797.36 42.19
685 76.9525 1699.36 1711.27 41.22
686 77.0275 1696.89 1660.41 41.19
687 77.1025 1728.28 1635.73 41.57
688 77.1775 1683.11 1626.48 41.03
689 77.2525 1632.10 1624.63 40.40
690 77.3275 1658.72 1625.72 40.73
691 77.4025 1611.15 1627.85 40.14
692 77.4775 1672.59 1630.42 40.90
693 77.5525 1621.02 1633.24 40.26
694 77.6275 1668.44 1636.25 40.85
695 77.7025 1710.55 1639.45 41.36
696 77.7775 1670.63 1642.82 40.87
697 77.8525 1660.42 1646.36 40.75
698 77.9275 1650.26 1650.91 40.62
699 78.0025 1711.57 1655.26 41.37
700 78.0775 1762.62 1659.86 41.98
701 78.1525 1760.30 1664.77 41.96
702 78.2275 1695.49 1670.13 41.18
703 78.3025 1689.23 1676.20 41.10
704 78.3775 1747.72 1683.65 41.81
705 78.4525 1683.07 1694.50 41.03
706 78.5275 1629.86 1714.92 40.37
707 78.6025 1766.53 1760.17 42.03
708 78.6775 1787.94 1857.14 42.28
709 78.7525 2055.75 2030.53 45.34
710 78.8275 2252.94 2265.84 47.47
711 78.9025 2536.87 2480.79 50.37
712 78.9775 2542.74 2558.10 50.43
713 79.0525 2502.79 2446.93 50.03
714 79.1275 2290.11 2231.43 47.86
715 79.2025 2073.05 2028.37 45.53
716 79.2775 1882.19 1887.36 43.38
717 79.3525 1739.87 1807.18 41.71
718 79.4275 1844.78 1769.63 42.95
719 79.5025 1737.52 1756.61 41.68
720 79.5775 1700.37 1755.79 41.24
721 84.7525 1837.68 1936.18 42.87
722 84.8275 1895.68 1942.95 43.54
723 84.9025 1888.37 1947.16 43.46
724 84.9775 1925.09 1950.49 43.88
725 85.0525 1975.28 1956.17 44.44
726 85.1275 2017.11 1965.70 44.91
727 85.2025 2003.93 1982.81 44.77
728 85.2775 2028.13 2018.60 45.03
729 85.3525 2171.72 2105.44 46.60
730 85.4275 2299.53 2320.37 47.95
731 85.5025 2727.28 2794.95 52.22
732 85.5775 3646.52 3645.35 60.39
733 85.6525 4740.22 4794.54 68.85
734 85.7275 5720.86 5840.36 75.64
735 85.8025 6029.00 6212.94 77.65
736 85.8775 5583.09 5655.03 74.72
737 85.9525 4589.29 4564.24 67.74
738 86.0275 3639.48 3522.88 60.33
739 86.1025 2866.47 2788.55 53.54
740 86.1775 2427.55 2355.74 49.27
741 86.2525 2218.59 2136.54 47.10
742 86.3275 2116.53 2046.60 46.01
743 86.4025 2114.90 2033.27 45.99
744 86.4775 2126.30 2090.34 46.11
745 86.5525 2265.03 2272.97 47.59
746 86.6275 2749.32 2697.50 52.43
747 86.7025 3585.37 3472.50 59.88
748 86.7775 4714.68 4531.48 68.66
749 86.8525 5627.40 5505.60 75.02
750 86.9275 5744.17 5862.89 75.79
751 87.0025 5165.85 5349.04 71.87
752 87.0775 4240.26 4329.02 65.12
753 87.1525 3279.17 3351.23 57.26
754 87.2275 2608.27 2657.51 51.07
755 87.3025 2293.60 2242.07 47.89
756 87.3775 2076.65 2022.39 45.57
757 87.4525 1911.46 1917.57 43.72
758 87.5275 1890.98 1869.58 43.49
759 87.6025 1792.54 1844.99 42.34
760 87.6775 1824.03 1828.88 42.71
761 87.7525 1785.56 1816.10 42.26
762 87.8275 1838.39 1805.13 42.88
763 87.9025 1825.29 1795.48 42.72
764 87.9775 1729.20 1786.84 41.58
765 88.0525 1725.69 1779.10 41.54
766 88.1275 1765.17 1772.07 42.01
767 88.2025 1729.83 1767.15 41.59
768 88.2775 1705.52 1763.79 41.30
769 88.3525 1736.74 1760.83 41.67
770 88.4275 1707.12 1758.18 41.32
771 88.5025 1713.49 1755.82 41.39
772 88.5775 1711.77 1753.75 41.37
773 88.6525 1727.77 1752.02 41.57
774 88.7275 1782.53 1750.90 42.22
775 88.8025 1720.40 1751.09 41.48
776 88.8775 1740.34 1753.99 41.72
777 88.9525 1700.18 1761.41 41.23
778 89.0275 1746.30 1773.78 41.79
779 89.1025 1814.60 1787.84 42.60
780 89.1775 1864.80 1796.68 43.18
781 89.2525 1745.91 1794.07 41.78
782 89.3275 1772.84 1781.05 42.11
783 89.4025 1748.12 1765.34 41.81
784 89.4775 1693.20 1752.77 41.15
785 89.5525 1697.82 1744.68 41.20
786 89.6275 1740.21 1740.34 41.72
787 89.7025 1746.27 1738.84 41.79
788 89.7775 1694.82 1739.97 41.17
789 89.8525 1749.36 1745.34 41.83
790 89.9275 1794.20 1760.49 42.36
791 90.0025 1808.61 1797.09 42.53
792 90.0775 1884.26 1870.53 43.41
793 90.1525 2030.09 1986.19 45.06
794 90.2275 2251.76 2119.18 47.45
795 90.3025 2274.77 2212.72 47.69
796 90.3775 2180.74 2210.33 46.70
797 90.4525 2068.70 2112.53 45.48
798 90.5275 1970.93 1982.38 44.40
799 90.6025 1826.39 1873.95 42.74
800 90.6775 1814.06 1802.01 42.59
801 90.7525 1799.03 1760.36 42.41
802 90.8275 1750.20 1738.73 41.84
803 90.9025 1691.64 1728.55 41.13
804 90.9775 1650.04 1723.99 40.62
805 91.0525 1640.55 1721.82 40.50
806 91.1275 1682.86 1720.64 41.02
807 91.2025 1696.06 1720.02 41.18
808 91.2775 1677.79 1721.23 40.96
809 91.3525 1696.56 1723.78 41.19
810 91.4275 1736.37 1726.82 41.67
811 91.5025 1729.01 1730.54 41.58
812 91.5775 1678.26 1735.07 40.97
813 91.6525 1695.40 1740.67 41.18
814 91.7275 1700.50 1747.78 41.24
815 91.8025 1788.26 1757.20 42.29
816 91.8775 1832.86 1770.66 42.81
817 91.9525 1795.92 1792.73 42.38
818 92.0275 1828.86 1836.48 42.77
819 92.1025 1897.56 1935.58 43.56
820 92.1775 2157.72 2159.35 46.45
821 92.2525 2635.42 2605.58 51.34
822 92.3275 3409.87 3331.90 58.39
823 92.4025 4336.42 4234.08 65.85
824 92.4775 5072.50 4993.35 71.22
825 92.5525 5268.53 5220.02 72.58
826 92.6275 4646.01 4776.10 68.16
827 92.7025 3890.96 3948.74 62.38
828 92.7775 3044.12 3138.99 55.17
829 92.8525 2442.02 2545.59 49.42
830 92.9275 2201.97 2177.46 46.93
831 93.0025 2005.22 1974.75 44.78
832 93.0775 1971.66 1875.63 44.40
833 93.1525 1888.22 1834.80 43.45
834 93.2275 1878.69 1826.55 43.34
835 93.3025 1886.95 1845.69 43.44
836 93.3775 1904.27 1906.36 43.64
837 93.4525 2098.20 2033.96 45.81
838 93.5275 2270.09 2240.97 47.65
839 93.6025 2518.64 2491.54 50.19
840 93.6775 2646.65 2690.44 51.45
841 93.7525 2722.18 2729.46 52.17
842 93.8275 2480.04 2580.05 49.80
843 93.9025 2272.07 2337.92 47.67
844 93.9775 2074.16 2116.12 45.54
845 94.0525 1999.24 1959.93 44.71
846 94.1275 1911.98 1864.97 43.73
847 94.2025 1792.23 1812.91 42.33
848 94.2775 1811.80 1787.13 42.57
849 94.3525 1779.54 1775.53 42.18
850 94.4275 1776.81 1770.51 42.15
851 94.5025 1777.31 1768.15 42.16
852 94.5775 1791.40 1766.88 42.32
853 94.6525 1757.74 1766.19 41.93
854 94.7275 1796.14 1765.93 42.38
855 94.8025 1766.81 1766.05 42.03
856 94.8775 1723.22 1766.54 41.51
857 94.9525 1720.20 1766.91 41.48
858 95.0275 1714.91 1768.33 41.41
859 95.1025 1784.07 1770.37 42.24
860 95.1775 1722.84 1773.01 41.51
861 95.2525 1775.72 1776.52 42.14
862 95.3275 1761.79 1781.59 41.97
863 95.4025 1781.66 1790.01 42.21
864 95.4775 1762.26 1806.70 41.98
865 95.5525 1821.76 1843.30 42.68
866 95.6275 1866.50 1921.31 43.20
867 95.7025 2111.38 2067.30 45.95
868 95.7775 2339.85 2290.82 48.37
869 95.8525 2553.82 2553.15 50.54
870 95.9275 2769.68 2760.16 52.63
871 96.0025 2765.70 2807.29 52.59
872 96.0775 2605.98 2665.02 51.05
873 96.1525 2354.95 2420.23 48.53
874 96.2275 2162.72 2187.12 46.51
875 96.3025 2043.50 2018.15 45.21
876 96.3775 1845.51 1913.02 42.96
877 96.4525 1861.83 1854.12 43.15
878 96.5275 1820.16 1824.76 42.66
879 96.6025 1826.50 1813.15 42.74
880 96.6775 1796.57 1812.74 42.39
881 96.7525 1813.72 1822.10 42.59
882 96.8275 1868.28 1843.03 43.22
883 96.9025 1858.46 1876.05 43.11
884 96.9775 1850.22 1914.85 43.01
885 97.0525 2007.27 1945.36 44.80
886 97.1275 1984.51 1952.20 44.55
887 97.2025 1981.63 1930.95 44.52
888 97.2775 1899.56 1894.57 43.58
889 97.3525 1911.27 1860.05 43.72
890 97.4275 1862.13 1835.15 43.15
891 97.5025 1755.02 1819.81 41.89
892 97.5775 1815.92 1811.39 42.61
893 97.6525 1820.64 1807.39 42.67
894 97.7275 1773.48 1805.96 42.11
895 97.8025 1852.01 1805.84 43.03
896 97.8775 1831.76 1806.31 42.80
897 97.9525 1795.48 1807.03 42.37
898 98.0275 1788.22 1807.88 42.29
899 98.1025 1807.09 1808.80 42.51
900 98.1775 1824.87 1809.59 42.72
901 101.4029 1797.60 1828.64 42.40
902 101.4779 1826.84 1829.12 42.74
903 101.5529 1814.10 1829.81 42.59
904 101.6279 1806.84 1830.70 42.51
905 101.7029 1837.09 1831.53 42.86
906 101.7779 1835.16 1831.14 42.84
907 101.8529 1863.55 1831.10 43.17
908 101.9279 1857.09 1831.57 43.09
909 102.0029 1852.17 1832.77 43.04
910 102.0779 1870.57 1835.22 43.25
911 102.1529 1850.23 1840.14 43.01
912 102.2279 1819.79 1850.36 42.66
913 102.3029 1905.30 1872.74 43.65
914 102.3779 1932.71 1921.53 43.96
915 102.4529 1985.64 2019.03 44.56
916 102.5279 2124.51 2189.62 46.09
917 102.6029 2478.42 2440.43 49.78
918 102.6779 2825.71 2736.48 53.16
919 102.7529 3112.01 2993.92 55.79
920 102.8279 3156.87 3110.14 56.19
921 102.9029 3018.05 3026.46 54.94
922 102.9779 2714.87 2783.22 52.10
923 103.0529 2369.94 2491.83 48.68
924 103.1279 2165.73 2242.51 46.54
925 103.2029 2018.52 2065.36 44.93
926 103.2779 1903.28 1951.78 43.63
927 103.3529 1858.19 1883.12 43.11
928 103.4279 1899.48 1843.55 43.58
929 103.5029 1862.68 1821.79 43.16
930 103.5779 1801.81 1810.01 42.45
931 103.6529 1794.77 1803.17 42.36
932 103.7279 1794.64 1798.51 42.36
933 103.8029 1788.68 1794.78 42.29
934 103.8779 1828.24 1791.50 42.76
935 103.9529 1811.63 1788.51 42.56
936 104.0279 1787.84 1785.77 42.28
937 104.1029 1725.12 1783.23 41.53
938 104.1779 1756.05 1780.87 41.91
939 104.2529 1845.66 1778.68 42.96
940 104.3279 1755.30 1776.62 41.90
941 104.4029 1797.41 1774.69 42.40
942 104.4779 1825.28 1772.87 42.72
943 104.5529 1779.60 1773.33 42.19
944 104.6279 1759.05 1774.09 41.94
945 104.7029 1829.32 1774.94 42.77
946 104.7779 1750.78 1775.75 41.84
947 104.8529 1793.52 1776.78 42.35
948 104.9279 1835.73 1777.91 42.85
949 105.0029 1854.23 1779.14 43.06
950 105.0779 1826.04 1780.51 42.73
951 105.1529 1844.54 1782.02 42.95
952 105.2279 1783.07 1783.74 42.23
953 105.3029 1815.87 1785.72 42.61
954 105.3779 1797.27 1788.08 42.39
955 105.4529 1831.72 1791.02 42.80
956 105.5279 1787.20 1794.99 42.28
957 105.6029 1799.66 1801.03 42.42
958 105.6779 1819.35 1811.58 42.65
959 105.7529 1829.14 1831.87 42.77
960 105.8279 1783.99 1871.36 42.24
961 105.9029 1899.86 1943.63 43.59
962 105.9779 2103.25 2061.40 45.86
963 106.0529 2341.23 2225.46 48.39
964 106.1279 2459.80 2412.79 49.60
965 106.2029 2590.82 2574.65 50.90
966 106.2779 2649.31 2653.25 51.47
967 106.3529 2655.93 2613.40 51.54
968 106.4279 2440.83 2472.13 49.40
969 106.5029 2178.86 2291.09 46.68
970 106.5779 2023.03 2128.02 44.98
971 106.6529 1907.83 2007.60 43.68
972 106.7279 1896.53 1928.66 43.55
973 106.8029 1855.29 1880.91 43.07
974 106.8779 1855.38 1855.18 43.07
975 106.9529 1901.96 1846.44 43.61
976 107.0279 1878.10 1853.51 43.34
977 107.1029 1883.87 1878.82 43.40
978 107.1779 1916.48 1926.44 43.78
979 107.2529 2105.10 1997.66 45.88
980 107.3279 2132.85 2085.10 46.18
981 107.4029 2247.29 2169.61 47.41
982 107.4779 2220.38 2224.73 47.12
983 107.5529 2117.80 2228.44 46.02
984 107.6279 2211.54 2177.93 47.03
985 107.7029 2100.98 2094.90 45.84
986 107.7779 1975.46 2009.57 44.45
987 107.8529 1933.93 1940.81 43.98
988 107.9279 1897.45 1892.88 43.56
989 108.0029 1864.65 1862.10 43.18
990 108.0779 1847.08 1843.25 42.98
991 108.1529 1848.02 1832.23 42.99
992 108.2279 1798.92 1826.26 42.41
993 108.3029 1851.42 1823.40 43.03
994 108.3779 1875.87 1822.29 43.31
995 108.4529 1885.40 1822.07 43.42
996 108.5279 1804.05 1822.26 42.47
997 108.6029 1827.14 1822.68 42.75
998 108.6779 1863.33 1823.23 43.17
999 108.7529 1813.20 1823.92 42.58
1000 108.8279 1896.17 1824.91 43.55
1001 108.9029 1868.82 1826.81 43.23
1002 108.9779 1890.16 1828.89 43.48
1003 109.0529 1802.68 1831.23 42.46
1004 109.1279 1878.25 1833.99 43.34
1005 109.2029 1889.63 1837.52 43.47
1006 109.2779 1924.42 1842.63 43.87
1007 109.3529 1855.47 1850.86 43.08
1008 109.4279 1854.54 1864.82 43.06
1009 109.5029 1895.34 1888.01 43.54
1010 109.5779 1949.90 1923.62 44.16
1011 109.6529 2006.75 1972.04 44.80
1012 109.7279 2017.42 2028.15 44.92
1013 109.8029 2063.82 2080.53 45.43
1014 109.8779 2083.39 2114.44 45.64
1015 109.9529 2048.10 2118.19 45.26
1016 110.0279 2116.50 2090.45 46.01
1017 110.1029 2047.76 2042.97 45.25
1018 110.1779 1943.12 1992.82 44.08
1019 110.2529 1963.40 1951.87 44.31
1020 110.3279 2030.60 1924.09 45.06
1021 110.4029 1921.82 1908.79 43.84
1022 110.4779 1964.78 1904.67 44.33
1023 110.5529 1902.46 1912.47 43.62
1024 110.6279 2020.18 1935.52 44.95
1025 110.7029 2005.70 1978.73 44.78
1026 110.7779 1965.82 2045.79 44.34
1027 110.8529 2084.21 2134.57 45.65
1028 110.9279 2265.21 2233.17 47.59
1029 111.0029 2383.84 2319.94 48.82
1030 111.0779 2439.16 2369.71 49.39
1031 111.1529 2441.96 2364.80 49.42
1032 111.2279 2338.29 2306.30 48.36
1033 111.3029 2110.88 2216.34 45.94
1034 111.3779 2096.78 2123.74 45.79
1035 111.4529 1989.70 2047.45 44.61
1036 111.5279 1926.03 1992.87 43.89
1037 111.6029 1872.92 1957.04 43.28
1038 111.6779 1981.48 1934.66 44.51
1039 111.7529 1904.34 1921.23 43.64
1040 111.8279 1971.18 1913.73 44.40
1041 111.9029 1875.21 1910.18 43.30
1042 111.9779 1946.62 1909.07 44.12
1043 112.0529 1927.25 1909.38 43.90
1044 112.1279 1971.28 1910.45 44.40
1045 112.2029 1983.09 1911.91 44.53
1046 112.2779 1916.47 1914.38 43.78
1047 112.3529 1897.60 1917.70 43.56
1048 112.4279 1871.11 1921.19 43.26
1049 112.5029 1908.06 1924.90 43.68
1050 112.5779 1952.15 1928.91 44.18
1051 112.6529 1944.80 1933.32 44.10
1052 112.7279 1969.74 1938.62 44.38
1053 112.8029 1941.68 1945.65 44.06
1054 112.8779 1976.09 1955.98 44.45
1055 112.9529 1965.39 1971.82 44.33
1056 113.0279 2032.44 1997.04 45.08
1057 113.1029 2055.83 2035.80 45.34
1058 113.1779 2092.61 2090.92 45.75
1059 113.2529 2209.43 2161.04 47.00
1060 113.3279 2243.81 2238.29 47.37
1061 113.4029 2325.37 2308.30 48.22
1062 113.4779 2434.37 2353.88 49.34
1063 113.5529 2390.72 2361.64 48.90
1064 113.6279 2388.97 2329.25 48.88
1065 113.7029 2244.17 2268.67 47.37
1066 113.7779 2149.82 2199.89 46.37
1067 113.8529 2098.88 2139.50 45.81
1068 113.9279 2068.66 2095.31 45.48
1069 114.0029 2114.51 2068.10 45.98
1070 114.0779 2059.17 2056.14 45.38
1071 114.1529 1980.61 2058.63 44.50
1072 114.2279 2049.46 2077.48 45.27
1073 114.3029 2033.71 2119.41 45.10
1074 114.3779 2055.93 2187.21 45.34
1075 114.4529 2119.22 2281.68 46.03
1076 114.5279 2346.40 2397.09 48.44
1077 114.6029 2537.13 2517.95 50.37
1078 114.6779 2688.47 2620.53 51.85
1079 114.7529 2735.29 2679.56 52.30
1080 114.8279 2723.10 2678.04 52.18
1081 114.9029 2645.20 2616.76 51.43
1082 114.9779 2483.37 2516.64 49.83
1083 115.0529 2389.27 2407.65 48.88
1084 115.1279 2242.47 2312.85 47.35
1085 115.2029 2179.12 2242.07 46.68
1086 115.2779 2146.04 2194.63 46.33
1087 115.3529 2139.45 2165.17 46.25
1088 115.4279 2127.75 2148.07 46.13
1089 115.5029 2144.30 2139.17 46.31
1090 115.5779 2156.08 2135.82 46.43
1091 115.6529 2142.14 2135.10 46.28
1092 115.7279 2169.16 2130.95 46.57
1093 120.0029 2068.18 2112.80 45.48
1094 120.0779 2139.24 2114.57 46.25
1095 120.1529 2154.79 2117.32 46.42
1096 120.2279 2137.21 2122.74 46.23
1097 120.3029 2129.12 2131.17 46.14
1098 120.3779 2112.36 2144.67 45.96
1099 120.4529 2167.80 2166.36 46.56
1100 120.5279 2148.99 2200.41 46.36
1101 120.6029 2139.77 2251.54 46.26
1102 120.6779 2162.64 2323.74 46.50
1103 120.7529 2326.48 2418.39 48.23
1104 120.8279 2423.34 2531.94 49.23
1105 120.9029 2642.16 2654.50 51.40
1106 120.9779 2772.50 2770.07 52.65
1107 121.0529 2951.44 2859.30 54.33
1108 121.1279 3046.79 2904.25 55.20
1109 121.2029 2974.02 2894.25 54.53
1110 121.2779 2941.85 2830.62 54.24
1111 121.3529 2789.19 2727.48 52.81
1112 121.4279 2577.58 2607.08 50.77
1113 121.5029 2431.69 2491.06 49.31
1114 121.5779 2379.67 2394.29 48.78
1115 121.6529 2274.05 2323.15 47.69
1116 121.7279 2263.49 2277.96 47.58
1117 121.8029 2219.50 2256.34 47.11
1118 121.8779 2185.44 2255.91 46.75
1119 121.9529 2173.32 2275.30 46.62
1120 122.0279 2268.28 2313.70 47.63
1121 122.1029 2296.32 2369.31 47.92
1122 122.1779 2382.21 2437.81 48.81
1123 122.2529 2489.03 2511.32 49.89
1124 122.3279 2629.75 2578.98 51.28
1125 122.4029 2743.74 2628.68 52.38
1126 122.4779 2711.49 2649.99 52.07
1127 122.5529 2685.66 2637.31 51.82
1128 122.6279 2571.53 2592.27 50.71
1129 122.7029 2434.69 2523.94 49.34
1130 122.7779 2356.42 2445.72 48.54
1131 122.8529 2327.09 2370.34 48.24
1132 122.9279 2241.07 2306.40 47.34
1133 123.0029 2206.57 2257.06 46.97
1134 123.0779 2192.51 2221.60 46.82
1135 123.1529 2189.53 2197.24 46.79
1136 123.2279 2170.40 2180.79 46.59
1137 123.3029 2189.05 2169.64 46.79
1138 123.3779 2161.42 2162.04 46.49
1139 123.4529 2182.69 2156.88 46.72
1140 123.5279 2216.01 2153.52 47.07
1141 123.6029 2184.73 2151.49 46.74
1142 123.6779 2165.07 2150.44 46.53
1143 123.7529 2207.56 2150.06 46.98
1144 123.8279 2162.85 2150.11 46.51
1145 123.9029 2159.00 2150.45 46.47
1146 123.9779 2146.42 2150.97 46.33
1147 124.0529 2204.73 2151.64 46.95
1148 124.1279 2187.24 2152.46 46.77
1149 124.2029 2126.42 2153.50 46.11
1150 124.2779 2211.55 2155.19 47.03
1151 124.3529 2119.32 2157.47 46.04
1152 124.4279 2236.33 2160.48 47.29
1153 124.5029 2163.24 2164.54 46.51
1154 124.5779 2217.55 2169.98 47.09
1155 124.6529 2190.30 2177.11 46.80
1156 124.7279 2167.70 2186.09 46.56
1157 124.8029 2173.76 2196.80 46.62
1158 124.8779 2169.27 2208.70 46.58
1159 124.9529 2240.07 2220.82 47.33
1160 125.0279 2182.60 2231.86 46.72
1161 125.1029 2145.03 2240.35 46.31
1162 125.1779 2176.17 2245.04 46.65
1163 125.2529 2237.40 2245.18 47.30
1164 125.3279 2266.74 2240.85 47.61
1165 125.4029 2227.40 2233.01 47.20
1166 125.4779 2252.56 2223.25 47.46
1167 125.5529 2236.30 2213.25 47.29
1168 125.6279 2213.26 2204.38 47.05
1169 125.7029 2157.72 2197.37 46.45
1170 125.7779 2204.59 2192.37 46.95
1171 125.8529 2261.38 2189.17 47.55
1172 125.9279 2207.81 2187.37 46.99
1173 126.0029 2188.74 2186.51 46.78
1174 126.0779 2173.07 2186.35 46.62
1175 126.1529 2161.55 2186.62 46.49
1176 126.2279 2156.97 2187.13 46.44
1177 126.3029 2188.11 2187.69 46.78
1178 126.3779 2184.34 2188.43 46.74
1179 126.4529 2190.01 2189.30 46.80
1180 126.5279 2207.79 2190.27 46.99
1181 126.6029 2236.67 2191.31 47.29
1182 126.6779 2196.25 2192.39 46.86
1183 126.7529 2232.71 2193.50 47.25
1184 126.8279 2227.71 2194.64 47.20
1185 126.9029 2279.34 2195.79 47.74
1186 126.9779 2225.43 2196.96 47.17
1187 127.0529 2224.40 2198.13 47.16
1188 127.1279 2159.42 2199.33 46.47
1189 127.2029 2136.95 2200.53 46.23
1190 127.2779 2211.87 2201.75 47.03
1191 127.3529 2164.77 2202.99 46.53
1192 127.4279 2161.46 2204.26 46.49
1193 127.5029 2252.27 2205.55 47.46
1194 127.5779 2197.50 2206.87 46.88
1195 127.6529 2170.86 2208.17 46.59
1196 127.7279 2214.28 2209.75 47.06
1197 127.8029 2227.68 2211.84 47.20
1198 127.8779 2165.75 2214.01 46.54
1199 127.9529 2138.26 2216.28 46.24
1200 128.0279 2272.68 2218.71 47.67
1201 128.1029 2262.14 2221.36 47.56
1202 128.1779 2282.42 2224.36 47.77
1203 128.2529 2262.11 2227.91 47.56
1204 128.3279 2323.65 2232.31 48.20
1205 128.4029 2320.35 2238.07 48.17
1206 128.4779 2300.43 2245.91 47.96
1207 128.5529 2294.21 2256.81 47.90
1208 128.6279 2296.54 2272.06 47.92
1209 128.7029 2323.43 2293.20 48.20
1210 128.7779 2343.52 2321.78 48.41
1211 128.8529 2386.16 2359.10 48.85
1212 128.9279 2322.49 2405.76 48.19
1213 129.0029 2374.95 2461.16 48.73
1214 129.0779 2386.87 2523.07 48.86
1215 129.1529 2482.28 2587.46 49.82
1216 129.2279 2709.37 2648.69 52.05
1217 129.3029 2787.53 2700.20 52.80
1218 129.3779 2920.60 2735.52 54.04
1219 129.4529 2907.37 2749.55 53.92
1220 129.5279 2885.92 2739.75 53.72
1221 129.6029 2846.91 2707.05 53.36
1222 129.6779 2696.04 2656.04 51.92
1223 129.7529 2664.23 2594.01 51.62
1224 129.8279 2534.17 2529.16 50.34
1225 129.9029 2410.58 2468.54 49.10
1226 129.9779 2406.67 2416.91 49.06
1227 130.0529 2341.21 2376.33 48.39
1228 130.1279 2229.91 2346.72 47.22
1229 130.2029 2279.52 2326.56 47.74
1230 130.2779 2333.40 2313.75 48.31
1231 130.3529 2416.40 2306.18 49.16
1232 130.4279 2291.39 2302.06 47.87
1233 130.5029 2342.91 2300.09 48.40
1234 130.5779 2362.31 2299.38 48.60
1235 130.6529 2347.35 2299.33 48.45
1236 130.7279 2393.62 2299.50 48.92
1237 130.8029 2303.45 2299.60 47.99
1238 130.8779 2335.70 2299.43 48.33
1239 130.9529 2373.78 2298.87 48.72
1240 131.0279 2402.01 2297.98 49.01
1241 131.1029 2236.96 2296.86 47.30
1242 131.1779 2261.11 2295.72 47.55
1243 131.2529 2252.19 2294.73 47.46
1244 131.3279 2296.19 2294.04 47.92
1245 131.4029 2343.09 2293.72 48.41
1246 131.4779 2275.60 2293.79 47.70
1247 131.5529 2274.99 2294.21 47.70
1248 131.6279 2310.41 2294.92 48.07
1249 131.7029 2279.28 2295.84 47.74
1250 131.7779 2354.33 2296.92 48.52
1251 131.8529 2230.84 2298.11 47.23
1252 131.9279 2196.49 2299.38 46.87
1253 132.0029 2234.92 2300.73 47.28
1254 132.0779 2293.03 2302.15 47.89
1255 132.1529 2281.24 2303.66 47.76
1256 132.2279 2295.65 2305.27 47.91
1257 132.3029 2295.54 2307.05 47.91
1258 132.3779 2287.31 2309.14 47.83
1259 132.4529 2286.99 2311.48 47.82
1260 132.5279 2335.20 2314.17 48.32
1261 132.6029 2323.92 2317.38 48.21
1262 132.6779 2291.47 2321.37 47.87
1263 132.7529 2280.84 2326.52 47.76
1264 132.8279 2310.44 2333.35 48.07
1265 132.9029 2335.62 2342.55 48.33
1266 132.9779 2377.21 2354.99 48.76
1267 133.0529 2444.05 2371.69 49.44
1268 133.1279 2374.66 2393.74 48.73
1269 133.2029 2353.76 2422.19 48.52
1270 133.2779 2355.11 2457.80 48.53
1271 133.3529 2398.30 2500.81 48.97
1272 133.4279 2414.34 2550.69 49.14
1273 133.5029 2530.53 2605.89 50.30
1274 133.5779 2623.74 2663.77 51.22
1275 133.6529 2685.08 2720.67 51.82
1276 133.7279 2804.55 2772.11 52.96
1277 133.8029 2860.64 2813.46 53.49
1278 133.8779 2888.47 2840.45 53.74
1279 133.9529 2967.45 2849.88 54.47
1280 134.0279 2967.59 2840.28 54.48
1281 134.1029 2888.74 2812.40 53.75
1282 134.1779 2816.62 2769.24 53.07
1283 134.2529 2806.28 2715.80 52.97
1284 134.3279 2679.87 2658.10 51.77
1285 134.4029 2572.20 2602.08 50.72
1286 134.4779 2538.26 2552.70 50.38
1287 134.5529 2431.10 2513.34 49.31
1288 134.6279 2428.23 2485.69 49.28
1289 134.7029 2488.72 2469.98 49.89
1290 134.7779 2430.77 2465.30 49.30
1291 134.8529 2382.69 2470.02 48.81
1292 134.9279 2416.35 2482.55 49.16
1293 135.0029 2403.11 2501.66 49.02
1294 135.0779 2476.26 2523.40 49.76
1295 135.1529 2508.59 2545.43 50.09
1296 135.2279 2562.40 2565.48 50.62
1297 135.3029 2576.40 2581.50 50.76
1298 135.3779 2583.58 2591.77 50.83
1299 135.4529 2584.53 2595.08 50.84
1300 135.5279 2607.79 2590.91 51.07
1301 135.6029 2625.28 2579.52 51.24
1302 135.6779 2615.82 2562.03 51.15
1303 135.7529 2573.88 2540.22 50.73
1304 135.8279 2565.96 2516.26 50.66
1305 135.9029 2494.36 2492.31 49.94
1306 135.9779 2462.19 2470.22 49.62
1307 136.0529 2372.23 2451.23 48.71
1308 136.1279 2472.50 2436.00 49.72
1309 136.2029 2429.39 2424.60 49.29
1310 136.2779 2479.28 2416.72 49.79
1311 136.3529 2493.28 2411.75 49.93
1312 136.4279 2425.66 2409.07 49.25
1313 136.5029 2490.34 2407.98 49.90
1314 136.5779 2350.83 2408.00 48.49
loop_
_pd_proc_info_excluded_regions
'from 0.005 to 15.0: dipped inset'
'from 41.1 to 47.3: container reflection'
'from 62.8 to 67.1: container reflection'
'from 79.5 to 84.6: container reflection'
'from 98.1 to 101.2: container reflection'
'from 115.6 to 119.8: container reflection'
'from 136.5 to 141.9: container reflection'
loop_
_refln_index_h
_refln_index_k
_refln_index_l
_refln_F_squared_calc
_refln_F_squared_meas
_refln_F_squared_sigma
_refln_include_status
_refln_d_spacing
1 0 1 380.07 377.96 7.93 o 4.048516
1 1 0 40.18 39.05 2.48 o 3.694781
1 1 1 145.12 144.17 3.67 o 3.200311
1 0 2 354.62 356.77 8.09 o 2.730109
2 0 0 904.48 904.75 20.12 o 2.612605
2 1 1 51.81 50.93 2.15 o 2.195200
2 -1 1 51.81 50.93 2.15 o 2.195200
2 0 2 10.90 7.62 3.56 < 2.024258
1 0 3 2.58 1.40 2.29 < 1.976080
2 1 2 163.43 165.68 4.42 o 1.887564
2 -1 2 163.43 165.68 4.42 o 1.887564
1 1 3 390.57 392.77 9.51 o 1.848320
2 2 0 198.84 199.96 4.84 o 1.847391
2 2 1 56.68 52.73 4.63 o 1.775007
0 0 4 1030.89 1025.23 24.72 o 1.600961
2 2 2 28.82 28.77 0.69 o 1.600155
3 -1 1 184.42 184.11 4.43 o 1.599954
3 1 1 184.42 184.11 4.43 o 1.599954
2 -1 3 12.35 12.67 2.36 o 1.576037
2 1 3 12.35 12.67 2.36 o 1.576037
1 0 4 0.38 0.38 0.01 o 1.530724
3 0 2 1016.67 1009.09 22.73 o 1.530019
1 1 4 32.83 28.77 2.52 o 1.468987
3 -1 2 24.14 21.16 1.85 o 1.468364
3 1 2 24.14 21.16 1.85 o 1.468364
3 2 0 101.43 96.64 6.83 o 1.449212
3 2 1 93.69 96.26 4.35 o 1.413470
3 -2 1 93.69 96.26 4.35 o 1.413470
2 -1 4 131.68 129.46 3.02 o 1.320729
2 1 4 131.68 129.46 3.02 o 1.320729
3 -2 2 388.19 382.13 8.90 o 1.320277
3 2 2 388.19 382.13 8.90 o 1.320277
3 -1 3 484.66 482.06 11.34 o 1.306631
3 1 3 484.66 482.06 11.34 o 1.306631
4 0 0 17.80 17.70 0.42 o 1.306302
4 0 1 14.56 10.14 5.74 < 1.279944
4 1 0 129.07 132.68 8.75 o 1.267300
1 0 5 720.53 719.45 17.26 o 1.243946
4 -1 1 110.49 110.36 2.65 o 1.243190
4 1 1 110.49 110.36 2.65 o 1.243190
3 3 0 528.21 510.74 20.70 o 1.231594
1 1 5 0.45 0.44 0.02 o 1.210126
2 2 4 65.40 63.45 2.51 o 1.209865
4 0 2 61.55 59.76 2.36 o 1.209517
3 3 1 165.21 160.40 6.35 o 1.209430
3 -2 3 22.36 23.38 4.25 o 1.198999
3 2 3 22.36 23.38 4.25 o 1.198999
2 0 5 16.70 16.60 0.56 o 1.150015
3 1 4 121.53 120.58 4.04 o 1.149791
3 -1 4 121.53 120.58 4.04 o 1.149791
3 3 2 28.62 28.39 0.95 o 1.149492
4 2 1 63.83 63.31 2.12 o 1.149418
4 -2 1 63.83 63.31 2.12 o 1.149418
2 -1 5 144.91 141.01 6.00 o 1.123135
2 1 5 144.91 141.00 6.00 o 1.123135
4 0 3 145.69 144.00 10.27 o 1.114222
4 2 2 48.53 44.74 4.81 o 1.097600
4 -2 2 48.53 44.74 4.81 o 1.097600
4 1 3 90.96 89.86 5.65 o 1.089722
4 -1 3 90.96 89.86 5.65 o 1.089722
3 -2 4 75.94 79.29 5.70 o 1.074401
3 2 4 75.94 79.29 5.70 o 1.074401
3 3 3 251.41 239.76 12.45 o 1.066770
3 0 5 176.06 176.75 7.27 o 1.031830
5 0 1 32.67 32.67 1.34 o 1.031399
4 3 1 71.79 71.78 2.95 o 1.031399
4 -3 1 71.79 71.78 2.95 o 1.031399
1 1 6 26.99 25.16 1.42 o 1.025383
4 2 3 73.31 68.35 3.87 o 1.024907
4 -2 3 73.31 68.35 3.87 o 1.024907
5 1 0 60.37 56.43 3.21 o 1.024748
3 -1 5 4.12 2.63 1.21 < 1.012282
3 1 5 4.12 2.63 1.21 < 1.012282
4 0 4 9.94 6.34 2.91 < 1.012129
5 1 1 9.59 6.12 2.81 < 1.011874
5 -1 1 9.59 6.12 2.81 < 1.011874
4 1 4 36.18 38.27 2.08 o 0.993660
4 -1 4 36.18 38.27 2.08 o 0.993660
5 0 2 178.35 188.64 10.25 o 0.993467
4 3 2 0.92 0.97 0.05 o 0.993467
4 -3 2 0.92 0.97 0.05 o 0.993467
2 0 6 9.02 6.91 2.42 < 0.988040
3 3 4 230.72 231.47 11.75 o 0.976166
5 1 2 22.08 21.99 1.12 o 0.975983
5 -1 2 22.08 21.99 1.12 o 0.975983
2 -1 6 60.04 52.66 5.02 o 0.970836
2 1 6 60.04 52.66 5.02 o 0.970836
5 2 0 2.83 2.53 0.25 o 0.970297
loop_
_jana_atom_site_adp_c_label
_jana_atom_site_adp_c_type_symbol
_jana_atom_site_adp_c_111
_jana_atom_site_adp_c_112
_jana_atom_site_adp_c_113
_jana_atom_site_adp_c_122
_jana_atom_site_adp_c_123
_jana_atom_site_adp_c_133
_jana_atom_site_adp_c_222
_jana_atom_site_adp_c_223
_jana_atom_site_adp_c_233
_jana_atom_site_adp_c_333
Li1 Li 0 0 0.36(9) 0 0 0 0 -0.36(9) 0 0
loop_
_jana_atom_site_adp_d_label
_jana_atom_site_adp_d_type_symbol
_jana_atom_site_adp_d_1111
_jana_atom_site_adp_d_1112
_jana_atom_site_adp_d_1113
_jana_atom_site_adp_d_1122
_jana_atom_site_adp_d_1123
_jana_atom_site_adp_d_1133
_jana_atom_site_adp_d_1222
_jana_atom_site_adp_d_1223
_jana_atom_site_adp_d_1233
_jana_atom_site_adp_d_1333
_jana_atom_site_adp_d_2222
_jana_atom_site_adp_d_2223
_jana_atom_site_adp_d_2233
_jana_atom_site_adp_d_2333
_jana_atom_site_adp_d_3333
Li1 Li 0 -0.14(6) -0.83(16) 0 1.2(3) 0 -0.14(6) -1.2(3) 0.48(10) 1.30(16) 0
0.83(16) 0 -1.30(16) 2.0(4)
