#------------------------------------------------------------------------------
#$Date: 2020-07-30 10:49:49 +0300 (Thu, 30 Jul 2020) $
#$Revision: 254669 $
#$URL: file:///home/coder/svn-repositories/cod/cif/4/00/27/4002782.cif $
#------------------------------------------------------------------------------
#
# This file is available in the Crystallography Open Database (COD),
# http://www.crystallography.net/
#
# All data on this site have been placed in the public domain by the
# contributors.
#
data_4002782
loop_
_publ_author_name
'Wang, Zhenbin'
'Chu, Iek-Heng'
'Zhou, Fei'
'Ong, Shyue Ping'
_publ_section_title
;
 Electronic Structure Descriptor for the Discovery of Narrow-Band
 Red-Emitting Phosphors
;
_journal_issue                   11
_journal_name_full               'Chemistry of Materials'
_journal_page_first              4024
_journal_paper_doi               10.1021/acs.chemmater.6b01496
_journal_volume                  28
_journal_year                    2016
_chemical_formula_structural     LiCaAlN2
_chemical_formula_sum            'Al4 Ca4 Li4 N8'
_space_group_IT_number           14
_symmetry_Int_Tables_number      14
_symmetry_space_group_name_Hall  '-P 2ybc'
_symmetry_space_group_name_H-M   'P 1 21/c 1'
_cell_angle_alpha                90.00000000
_cell_angle_beta                 101.02501392
_cell_angle_gamma                90.00000000
_cell_formula_units_Z            4
_cell_length_a                   5.18619594
_cell_length_b                   8.75836769
_cell_length_c                   5.38379165
_cell_volume                     240.032
_cod_data_source_file            31.cif
_cod_data_source_block           LiCaAlN2
_cod_original_cell_volume        240.032482964
_cod_original_sg_symbol_H-M      P2_1/c
_cod_original_formula_sum        'Li4 Ca4 Al4 N8'
_cod_database_code               4002782
loop_
_symmetry_equiv_pos_site_id
_symmetry_equiv_pos_as_xyz
1 'x, y, z'
2 '-x, -y, -z'
3 '-x, y+1/2, -z+1/2'
4 'x, -y+1/2, z+1/2'
loop_
_atom_site_aniso_type_symbol
_atom_site_aniso_U_11
_atom_site_aniso_U_22
_atom_site_aniso_U_33
_atom_site_aniso_U_12
_atom_site_aniso_U_13
_atom_site_aniso_U_23
Li 0 0 0 0 0 0
Ca 0 0 0 0 0 0
Al 0 0 0 0 0 0
N 0 0 0 0 0 0
loop_
_atom_site_type_symbol
_atom_site_label
_atom_site_symmetry_multiplicity
_atom_site_fract_x
_atom_site_fract_y
_atom_site_fract_z
_atom_site_occupancy
Li Li1 4 0.250493 0.720829 0.498884 1
Ca Ca2 4 0.249232 0.137640 0.999626 1
Al Al3 4 0.250047 0.503764 0.999979 1
N N4 4 0.030497 0.613452 0.191927 1
N N5 4 0.469213 0.613052 0.807100 1
_cod_struct_determination_method theoretical
