#------------------------------------------------------------------------------
#$Date: 2015-07-08 18:11:45 +0300 (Wed, 08 Jul 2015) $
#$Revision: 141221 $
#$URL: svn://www.crystallography.net/cod/cif/4/00/23/4002301.cif $
#------------------------------------------------------------------------------
#
# This file is available in the Crystallography Open Database (COD),
# http://www.crystallography.net/
#
# All data on this site have been placed in the public domain by the
# contributors.
#
data_4002301
loop_
_publ_author_name
'Loureiro, S.M.'
'Huang, Q.'
'Felser, C.'
'Cava, R.J.'
_publ_section_title
;
 Refinement of the crystal structures of strontium cobalt oxychlorides by
 neutron powder diffraction
;
_journal_name_full               'Chemistry of Materials (1,1989-)'
_journal_page_first              3181
_journal_page_last               3185
_journal_volume                  12
_journal_year                    2000
_chemical_formula_sum            'Cl2 Co2 O5 Sr3'
_chemical_name_systematic        'Sr3 (Co2 O5 Cl2)'
_space_group_IT_number           139
_symmetry_space_group_name_Hall  '-I 4 2'
_symmetry_space_group_name_H-M   'I 4/m m m'
_cell_angle_alpha                90
_cell_angle_beta                 90
_cell_angle_gamma                90
_cell_formula_units_Z            2
_cell_length_a                   3.9142
_cell_length_b                   3.9142
_cell_length_c                   24.0098
_cell_volume                     367.853
_citation_journal_id_ASTM        CMATEX
_cod_data_source_file            Loureiro_CMATEX_2000_1154.cif
_cod_data_source_block           Cl2Co2O5Sr3
_cod_original_cell_volume        367.8532
_cod_database_code               4002301
loop_
_symmetry_equiv_pos_as_xyz
x,y,z
-y,x,z
-x,-y,z
y,-x,z
x,-y,-z
y,x,-z
-x,y,-z
-y,-x,-z
-x,-y,-z
y,-x,-z
x,y,-z
-y,x,-z
-x,y,z
-y,-x,z
x,-y,z
y,x,z
x+1/2,y+1/2,z+1/2
-y+1/2,x+1/2,z+1/2
-x+1/2,-y+1/2,z+1/2
y+1/2,-x+1/2,z+1/2
x+1/2,-y+1/2,-z+1/2
y+1/2,x+1/2,-z+1/2
-x+1/2,y+1/2,-z+1/2
-y+1/2,-x+1/2,-z+1/2
-x+1/2,-y+1/2,-z+1/2
y+1/2,-x+1/2,-z+1/2
x+1/2,y+1/2,-z+1/2
-y+1/2,x+1/2,-z+1/2
-x+1/2,y+1/2,z+1/2
-y+1/2,-x+1/2,z+1/2
x+1/2,-y+1/2,z+1/2
y+1/2,x+1/2,z+1/2
loop_
_atom_site_label
_atom_site_type_symbol
_atom_site_fract_x
_atom_site_fract_y
_atom_site_fract_z
_atom_site_occupancy
_atom_site_U_iso_or_equiv
Cl1 Cl-1 0 0 0.29469 1 0.0
O2 O-2 0 0 0.5 1 0.0
Sr1 Sr+2 0 0 0 1 0.0
Sr2 Sr+2 0 0 0.15723 1 0.0
Co1 Co+3 0 0 0.4219 1 0.0
O1 O-2 0.5 0 0.0899 1 0.0
