#------------------------------------------------------------------------------
#$Date: 2016-03-21 01:21:50 +0200 (Mon, 21 Mar 2016) $
#$Revision: 178377 $
#$URL: svn://www.crystallography.net/cod/cif/4/00/21/4002194.cif $
#------------------------------------------------------------------------------
#
# This file is available in the Crystallography Open Database (COD),
# http://www.crystallography.net/
#
# All data on this site have been placed in the public domain by the
# contributors.
#
data_4002194
loop_
_publ_author_name
'Rai, Binod K.'
'Oswald, Iain W. H.'
'Wang, Jiakui K.'
'McCandless, Gregory T.'
'Chan, Julia Y.'
'Morosan, E.'
_publ_section_title
;
 Superconductivity in Single Crystals of Lu3T4Ge13--x(T= Co, Rh, Os) and
 Y3T4Ge13--x(T= Ir, Rh, Os)
;
_journal_issue                   7
_journal_name_full               'Chemistry of Materials'
_journal_page_first              2488
_journal_paper_doi               10.1021/cm504658h
_journal_volume                  27
_journal_year                    2015
_chemical_formula_sum            'Ge12.65 Os4 Y3'
_chemical_formula_weight         1946.16
_space_group_crystal_system      cubic
_space_group_IT_number           223
_space_group_name_Hall           '-P 4n 2 3'
_space_group_name_H-M_alt        'P m -3 n'
_symmetry_space_group_name_Hall  '-P 4n 2 3'
_symmetry_space_group_name_H-M   'P m -3 n'
_audit_creation_method           SHELXL-2014
_audit_update_record
;
2014-10-31 # Formatted by publCIF
;
_cell_angle_alpha                90
_cell_angle_beta                 90
_cell_angle_gamma                90
_cell_formula_units_Z            2
_cell_length_a                   8.9933(9)
_cell_length_b                   8.9933(9)
_cell_length_c                   8.9933(9)
_cell_measurement_reflns_used    832
_cell_measurement_temperature    298(2)
_cell_measurement_theta_max      30.40
_cell_measurement_theta_min      4.53
_cell_volume                     727.37(13)
_computing_cell_refinement       'Bruker SAINT'
_computing_data_collection       'Bruker APEX2'
_computing_data_reduction        'Bruker SAINT'
_computing_molecular_graphics    CrystalMaker
_computing_publication_material  'publCIF (Westrip, 2014)'
_computing_structure_refinement  'SHELXL-2014 (Sheldrick, 2014)'
_computing_structure_solution    'SHELXS Direct Methods (Sheldrick, 2013)'
_diffrn_ambient_temperature      298(2)
_diffrn_measured_fraction_theta_full 1.000
_diffrn_measured_fraction_theta_max 1.000
_diffrn_measurement_device_type  'Bruker Kappa D8 Quest CMOS'
_diffrn_measurement_method       '\f scan'
_diffrn_radiation_monochromator  'HELIOS optics'
_diffrn_radiation_type           MoK\a
_diffrn_radiation_wavelength     0.71073
_diffrn_reflns_av_R_equivalents  0.0374
_diffrn_reflns_av_unetI/netI     0.0276
_diffrn_reflns_Laue_measured_fraction_full 1.000
_diffrn_reflns_Laue_measured_fraction_max 1.000
_diffrn_reflns_limit_h_max       11
_diffrn_reflns_limit_h_min       -10
_diffrn_reflns_limit_k_max       10
_diffrn_reflns_limit_k_min       -7
_diffrn_reflns_limit_l_max       12
_diffrn_reflns_limit_l_min       -9
_diffrn_reflns_number            2212
_diffrn_reflns_point_group_measured_fraction_full 1.000
_diffrn_reflns_point_group_measured_fraction_max 1.000
_diffrn_reflns_theta_full        25.242
_diffrn_reflns_theta_max         30.400
_diffrn_reflns_theta_min         3.203
_diffrn_source                   'I\mS microfocus tube'
_exptl_absorpt_coefficient_mu    72.231
_exptl_absorpt_correction_T_max  0.7461
_exptl_absorpt_correction_T_min  0.2320
_exptl_absorpt_correction_type   multi-scan
_exptl_absorpt_process_details   SADABS(2014)
_exptl_crystal_colour            Silver
_exptl_crystal_density_diffrn    8.886
_exptl_crystal_description       Fragment
_exptl_crystal_F_000             1652
_exptl_crystal_size_max          0.12
_exptl_crystal_size_mid          0.08
_exptl_crystal_size_min          0.04
_refine_diff_density_max         2.113
_refine_diff_density_min         -3.651
_refine_diff_density_rms         0.410
_refine_ls_extinction_method     none
_refine_ls_goodness_of_fit_ref   1.163
_refine_ls_hydrogen_treatment    undef
_refine_ls_matrix_type           full
_refine_ls_number_constraints    0
_refine_ls_number_parameters     13
_refine_ls_number_reflns         223
_refine_ls_number_restraints     0
_refine_ls_restrained_S_all      1.163
_refine_ls_R_factor_all          0.0345
_refine_ls_R_factor_gt           0.0261
_refine_ls_shift/su_max          0.000
_refine_ls_shift/su_mean         0.000
_refine_ls_structure_factor_coef Fsqd
_refine_ls_weighting_details
'w=1/[\s^2^(Fo^2^)+(0.0157P)^2^+30.8777P] where P=(Fo^2^+2Fc^2^)/3'
_refine_ls_weighting_scheme      calc
_refine_ls_wR_factor_gt          0.0563
_refine_ls_wR_factor_ref         0.0651
_reflns_Friedel_coverage         0.000
_reflns_number_gt                194
_reflns_number_total             223
_reflns_threshold_expression     'I > 2\s(I)'
_cod_data_source_file            Y3Os4Ge13_CIF.cif
_cod_data_source_block           shelx
_cod_depositor_comments
'Adding full bibliography for 4002190--4002195.cif.'
_cod_original_cell_volume        727.4(2)
_cod_database_code               4002194
#BEGIN Tags that were not found in dictionaries:
_publcif_datablock.id            {27eacfde-3563-4821-9eb9-14d1e2c03d5c}
_shelx_space_group_comment
;
The symmetry employed for this shelxl refinement is uniquely defined
by the following loop, which should always be used as a source of
symmetry information in preference to the above space-group names.
They are only intended as comments.
;
_shelxl_version_number           2014-3
_shelx_res_file
;
TITL scd0270_final2 in Pm-3n
CELL 0.71073   8.99330   8.99330   8.99330  90.0000  90.0000  90.0000
ZERR    2.00   0.00088   0.00088   0.00088   0.0000   0.0000   0.0000
REM CRYSTAL DIMENSIONS 0.120 X 0.040 X 0.080
REM VOLUME = 727.74(0.21)
REM ABS INFO:  MIN/MAX TRANSMISSION: 0.2320/0.7461
LATT  1
SYMM -X, -Y, Z
SYMM -X, Y, -Z
SYMM X, -Y, -Z
SYMM Z, X, Y
SYMM Z, -X, -Y
SYMM -Z, -X, Y
SYMM -Z, X, -Y
SYMM Y, Z, X
SYMM -Y, Z, -X
SYMM Y, -Z, -X
SYMM -Y, -Z, X
SYMM 0.5+Y, 0.5+X, 0.5-Z
SYMM 0.5-Y, 0.5-X, 0.5-Z
SYMM 0.5+Y, 0.5-X, 0.5+Z
SYMM 0.5-Y, 0.5+X, 0.5+Z
SYMM 0.5+X, 0.5+Z, 0.5-Y
SYMM 0.5-X, 0.5+Z, 0.5+Y
SYMM 0.5-X, 0.5-Z, 0.5-Y
SYMM 0.5+X, 0.5-Z, 0.5+Y
SYMM 0.5+Z, 0.5+Y, 0.5-X
SYMM 0.5+Z, 0.5-Y, 0.5+X
SYMM 0.5-Z, 0.5+Y, 0.5+X
SYMM 0.5-Z, 0.5-Y, 0.5-X
SFAC GE Y OS
UNIT 25.31 6 8
TEMP 25
acta
L.S. 40
BOND
FMAP 2
PLAN 20
REM EXTI    0.000162
WGHT    0.015700   30.877699
FVAR       0.04349   0.65685
Y1    2    0.250000    0.500000    0.000000    10.12500    0.00987    0.00700 =
         0.00700    0.00000    0.00000    0.00000
OS1   3    0.250000    0.250000    0.250000    10.16666    0.00509    0.00509 =
         0.00509    0.00052    0.00052    0.00052
GE1   1    0.000000    0.000000    0.000000    20.04167    0.04001    0.04001 =
         0.04001    0.00000    0.00000    0.00000
GE2   1    0.000000    0.309311    0.150174    10.50000    0.00530    0.05760 =
         0.01496    0.01970    0.00000    0.00000
HKLF 4

REM  scd0270_final2 in Pm-3n
REM R1 =  0.0261 for     194 Fo > 4sig(Fo)  and  0.0345 for all     223 data
REM     13 parameters refined using      0 restraints

END

WGHT      0.0157     30.8708

REM Highest difference peak  2.113,  deepest hole -3.651,  1-sigma level  0.410
Q1    1   0.0000  0.0383  0.0968  10.50000  0.05    2.11
Q2    1   0.0000  0.1356  0.1229  10.50000  0.05    2.00
Q3    1   0.0692  0.0692  0.0692  10.33333  0.05    1.95
Q4    1   0.0000  0.1161  0.0000  10.25000  0.05    1.89
Q5    1   0.0000  0.3895  0.2003  10.50000  0.05    1.46
Q6    1   0.1544  0.5000  0.0672  10.50000  0.05    1.04
Q7    1   0.0000  0.0619  0.1843  10.50000  0.05    1.02
Q8    1   0.1384  0.1593  0.2505  11.00000  0.05    1.02
Q9    1   0.1271  0.2497  0.1763  11.00000  0.05    0.92
Q10   1   0.0000  0.2211  0.2541  10.50000  0.05    0.84
Q11   1   0.0000  0.5000  0.0990  10.25000  0.05    0.84
Q12   1   0.1721  0.5000  0.1050  10.50000  0.05    0.76
Q13   1   0.0000  0.2497  0.0394  10.50000  0.05    0.72
Q14   1   0.2293  0.1051  0.1792  11.00000  0.05    0.68
Q15   1   0.2160  0.5000  0.1214  10.50000  0.05    0.67
Q16   1   0.1595  0.2765  0.0718  11.00000  0.05    0.65
Q17   1   0.1884  0.4121  0.1820  11.00000  0.05    0.62
Q18   1   0.1434  0.2982  0.0704  11.00000  0.05    0.60
Q19   1   0.1004  0.2860  0.2118  11.00000  0.05    0.58
Q20   1   0.0929  0.1571  0.1167  11.00000  0.05    0.58
;
_shelx_res_checksum              43504
_shelx_hkl_file
;
   0   0   1   -0.51    0.04
  -1   0   1   -0.01    0.06
   0  -1   1   -0.07    0.06
   0   1  -1    0.01    0.06
   1   0  -1   -0.09    0.05
   1   0   1   -0.05    0.05
  -1  -1   1   -0.72    0.04
  -1   1  -1   -0.74    0.05
   1  -1   1   -0.65    0.06
   1   1  -1   -0.72    0.04
  -2   0   0  397.27   17.27
   0   0  -2  413.96   17.33
   0   0   2  381.69   17.33
   2   0   0  386.74   17.29
   0   1  -2   -0.47    0.08
   2   0  -1   -0.60    0.08
  -2   1   0   -0.53    0.08
  -1   0  -2   -0.44    0.09
  -1   0   2   -0.62    0.10
   0   2  -1   -0.56    0.08
   1   0  -2   -0.53    0.08
   1   0   2   -0.62    0.08
  -2   1  -1   -0.65    0.09
  -1  -1   2   -0.70    0.08
  -1   1  -2   -0.63    0.10
  -1   1   2   -0.68    0.22
  -1   2  -1   -0.73    0.09
   1  -1   2   -0.78    0.08
   1   1  -2   -0.76    0.08
   1   1   2   -0.75    0.10
   1   2  -1   -0.70    0.07
   2  -1   1   -0.79    0.08
   2   1  -1   -0.72    0.05
  -2   0  -2  210.69    9.10
   0  -2   2  207.26    9.12
   0   2  -2  203.36    9.12
   2   0  -2  208.61    9.12
  -2  -1   2   -0.07    0.08
  -2   1  -2    0.08    0.10
  -2   1   2   -0.46    0.25
  -2   2  -1   -0.19    0.09
  -1   2  -2   -0.20    0.10
   1  -2   2   -0.12    0.09
   1   2  -2   -0.08    0.09
   2  -1   2   -0.16    0.09
   2   1  -2   -0.16    0.07
   2   1   2   -0.25    0.08
   2   2  -1   -0.09    0.06
  -2  -2   2  492.21   22.15
  -2   2  -2  510.29   22.15
   2  -2   2  506.72   22.15
   2   2  -2  519.64   22.14
  -3   0   0    0.03    0.07
  -3   0   0    0.05    0.06
   0   0  -3    0.68    0.15
   0   0   3    0.19    0.12
   3   0   0    0.08    0.07
  -3   0  -1    7.67    0.40
  -3   0   1    7.58    0.42
   0  -1   3    7.44    0.48
   0   1  -3    8.45    0.48
   3   0   1    7.53    0.42
   0   3  -1    7.81    0.48
   1   0  -3    8.15    0.50
   1   0   3    7.74    0.49
  -1   0   3    8.08    0.50
  -1   0  -3    7.46    0.48
  -3   1   0    8.05    0.45
   3  -1   1   -0.97    0.08
   1   1   3   -0.84    0.12
   3   1  -1   -0.90    0.06
   3   1   1   -0.83    0.05
   1   1  -3   -0.84    0.09
  -3   1  -1   -0.78    0.09
  -1  -1   3   -0.94    0.09
  -1   1  -3   -0.84    0.11
  -1   1   3   -0.90    0.16
  -1   3  -1   -1.04    0.11
   1  -1   3   -0.93    0.10
   0   2  -3  331.01   14.08
   3   0  -2  317.33   14.07
   3   0   2  308.01   14.10
  -3   0  -2  321.83   14.03
   0  -2   3  320.11   14.08
   2   0   3  333.56   14.08
  -2   0   3  321.25   14.09
   0   3  -2  319.72   14.08
   2   0  -3  316.08   14.09
  -3   2   0  325.48   14.10
  -2   0  -3  320.60   14.07
   1   2  -3   53.48    2.44
   3  -1   2   53.63    2.44
   3   1  -2   54.96    2.41
  -2  -1   3   52.94    2.44
  -1   3  -2   53.25    2.47
   1  -2   3   51.03    2.46
  -3   2  -1   53.76    2.46
  -3   1   2   52.98    2.64
  -2   1  -3   55.05    2.46
   2   1   3   54.28    2.46
  -3   1  -2   52.11    2.43
  -1  -2   3   53.35    2.44
  -2   3  -1   51.73    2.49
  -2   1   3   55.38    2.60
  -3  -1   2   51.93    2.38
   1  -3   2   52.16    2.46
   1   3  -2   53.97    2.44
   2  -1   3   54.75    2.46
   2   1  -3   53.76    2.44
   3   1   2   52.52    2.40
   3   2  -1   53.93    2.36
  -3   2  -2   -0.03    0.14
  -2  -2   3   -0.02    0.12
  -2   2  -3    0.07    0.14
  -2   3  -2    0.47    0.17
   2  -3   2    0.14    0.16
   2  -2   3    0.18    0.16
   2   2  -3    0.02    0.11
   2   2   3    0.13    0.21
   2   3  -2    0.19    0.12
   3  -2   2    0.16    0.14
   3   2  -2    0.18    0.10
  -3   0  -3   76.99    3.46
  -3   0   3   76.37    3.49
   0  -3   3   75.32    3.49
   0   3  -3   78.02    3.49
   3   0  -3   75.74    3.50
   3   0   3   75.82    3.46
  -3  -1   3   -0.59    0.11
  -3   1  -3   -0.58    0.13
  -3   1   3   -0.36    0.26
  -3   3  -1   -0.58    0.15
  -1  -3   3   -0.50    0.13
  -1   3  -3   -0.54    0.15
   1  -3   3   -0.52    0.12
   1   3  -3   -0.36    0.13
   3  -1   3   -0.53    0.12
   3   1  -3   -0.59    0.11
   3   1   3   -0.57    0.11
  -3   2  -3   -0.12    0.14
  -3   3  -2    0.01    0.15
  -2  -3   3   -0.02    0.12
   2  -3   3   -0.14    0.15
   2   3  -3   -0.22    0.11
   3  -3   2   -0.13    0.16
   3  -2   3   -0.13    0.16
   3   2  -3   -0.31    0.11
   3   2   3    0.10    0.15
   3   3  -2   -0.17    0.09
  -3   3  -3    0.41    0.20
   3  -3   3    0.41    0.18
   3   3  -3    0.20    0.14
   0   0  -4 1000.00   41.42
   0   0   4  895.65   41.43
  -4   0   1   65.98    2.94
  -4   0   1   65.97    2.94
   0  -1   4   65.99    3.05
   0   1  -4   65.80    3.04
   0   1   4   69.24    3.11
   4   0   1   57.17    2.98
  -1   0  -4   72.24    3.07
   1   0  -4   68.74    3.07
   4   1   0   67.15    2.92
  -4   1   0   64.85    2.99
   4  -1   1   -0.07    0.12
   4   1   1    0.12    0.08
  -1   1  -4   -0.10    0.15
  -1   1   4   -0.35    0.21
  -1   4  -1   -0.01    0.17
  -1  -1  -4    0.03    0.19
   4   1  -1    0.20    0.10
   1  -1   4   -0.16    0.13
   1   1  -4    0.11    0.16
   1   1   4    0.17    0.20
  -4   1  -1    0.03    0.12
  -1  -1   4    0.13    0.15
   4   0   2  483.23   20.84
   2   0   4  477.73   20.90
   0   2  -4  498.49   20.91
   0   2   4  469.49   21.08
  -4   0  -2  468.57   20.81
   0  -2   4  481.37   20.90
  -2   0  -4  469.58   20.89
  -2   0   4  441.56   20.91
   0   4  -2  488.33   20.90
   2   0  -4  475.61   20.92
  -4   2   0  498.99   20.91
  -4   1   2    0.60    0.33
   2   1   4    0.77    0.20
   1  -2   4    0.85    0.21
  -4   2  -1    0.89    0.19
  -2  -1   4    0.54    0.19
  -2   1  -4    0.85    0.20
   1   2  -4    0.73    0.18
  -1   2   4    0.39    0.37
   4  -1   2    0.96    0.18
   4   1  -2    0.64    0.15
  -1   4  -2    0.65    0.19
  -2   1   4    0.58    0.27
  -4   1  -2    0.74    0.16
   1   2   4    1.24    0.31
   2  -1   4    0.75    0.20
   2   1  -4    0.66    0.18
  -2   4  -1    0.64    0.25
   4   2  -1    0.84    0.11
   1   4  -2    0.61    0.17
   4   1   2    0.79    0.13
  -1   2  -4    0.79    0.21
  -1  -2   4    1.49    0.23
   4   2  -2  615.66   25.89
  -2   2  -4  559.71   26.07
  -4   2  -2  611.74   25.97
   2   4  -2  592.24   25.93
  -2   2   4  559.06   26.31
  -2   4  -2  598.46   26.01
   2  -2   4  594.46   25.99
   2   2  -4  624.09   25.97
   2   2   4  587.62   26.02
   4  -2   2  618.43   25.98
  -2  -2   4  589.63   25.96
   4   2   2  580.56   25.89
  -4   0  -3   33.65    1.60
  -3   0  -4   34.70    1.65
   0   3  -4   34.80    1.66
  -3   0   4   34.23    1.69
   0   4  -3   32.61    1.65
  -4   3   0   33.87    1.74
   3   0   4   34.46    1.65
   4   0   3   34.98    1.62
  -4   0   3   33.30    1.64
   0  -3   4   33.10    1.66
  -3  -1   4    0.61    0.18
   3   1   4    0.44    0.17
   4   1  -3    0.23    0.15
   4  -1   3    0.49    0.17
  -4   3  -1    0.78    0.23
  -4   1   3    0.55    0.36
  -3   1  -4    0.32    0.18
   1   3  -4    0.37    0.17
  -1   4  -3    0.25    0.18
   1  -3   4    0.18    0.18
   1  -4   3    0.52    0.20
   3  -1   4    0.41    0.19
   3   1  -4    0.53    0.18
  -4   1  -3    0.37    0.15
   4   1   3    0.46    0.15
  -3   4  -1    0.81    0.27
  -3   1   4    0.21    0.31
  -4  -1   3    0.36    0.17
   4   3  -1    0.47    0.08
  -1  -3   4    0.38    0.17
  -1   3  -4    0.62    0.20
   1   4  -3    0.22    0.16
   3   2   4   10.58    0.66
   4   2  -3   10.75    0.59
   2   3  -4    8.87    0.68
  -3  -2   4    9.78    0.60
   3   4  -2   11.18    0.58
   4  -2   3   10.31    0.65
  -4   2   3    8.94    1.10
  -4   3  -2    9.20    0.74
  -3   2  -4   10.66    0.67
  -2   4  -3   10.22    0.69
   2  -3   4   10.32    0.67
  -4  -2   3   10.29    0.51
  -4   2  -3    9.94    0.65
   4   2   3   10.00    0.59
  -3   4  -2    9.14    0.69
  -2  -3   4   10.09    0.63
  -3   2   4   10.12    1.14
  -2   3  -4    9.58    0.66
   2  -4   3    9.74    0.66
   2   4  -3   10.31    0.61
   3  -2   4   10.39    0.66
   3   2  -4   10.11    0.62
   2   3   4   10.13    0.90
   4   3  -2   10.74    0.55
  -4   3  -3  114.48    5.34
  -3  -3   4  117.71    5.27
  -3   3  -4  116.12    5.35
  -3   4  -3  119.89    5.37
   3  -4   3  116.05    5.35
   3  -3   4  118.58    5.35
   3   3  -4  109.80    5.37
   3   3   4  119.60    5.41
   3   4  -3  120.89    5.28
   4  -3   3  120.45    5.35
   4   3  -3  124.57    5.27
   4   3   3  120.07    5.32
  -4   0  -4  352.72   15.48
  -4   0   4  358.55   15.54
  -4   4   0  346.34   15.65
   0  -4   4  354.83   15.53
   4   0   4  352.36   15.49
  -4  -1   4   -0.02    0.16
  -4   1  -4   -0.25    0.19
  -4   1   4    0.03    0.34
  -4   4  -1   -0.25    0.25
  -1  -4   4   -0.06    0.20
  -1   4  -4   -0.02    0.21
   1  -4   4   -0.23    0.20
   4  -1   4   -0.29    0.17
   4   1  -4   -0.12    0.18
   4   1   4   -0.28    0.16
  -4  -2   4  147.17    6.47
  -4   2  -4  151.25    6.56
  -4   2   4  125.50    6.92
  -4   4  -2  149.74    6.61
  -2  -4   4  145.62    6.52
  -2   4  -4  149.12    6.59
   2  -4   4  148.87    6.59
   2   4  -4  148.61    6.53
   4  -2   4  143.35    6.55
   4   2   4  146.19    6.52
   4   4  -2  148.02    6.45
  -4  -3   4    0.21    0.22
  -4   3  -4   -0.28    0.24
  -4   3   4    0.46    0.57
  -4   4  -3    0.10    0.26
   3  -4   4    0.24    0.26
   3   4  -4    0.15    0.18
   4  -3   4    0.40    0.23
   4   3  -4   -0.06    0.18
   4   3   4    0.38    0.23
   4   4  -3    0.18    0.17
  -4   4  -4  425.19   18.43
   4  -4   4  389.21   18.39
   4   4  -4  431.23   18.33
   4   4   4  428.01   18.48
   0   0  -5    0.26    0.19
   0   0   5    0.16    0.17
   0  -1  -5   20.70    1.25
   0  -1   5   23.54    1.23
   0   1  -5   24.01    1.22
   0   1   5   25.00    1.30
   5   0   1   23.25    1.12
   1   0   5   23.98    1.24
   5   1   0   22.34    1.07
  -1   0  -5   22.81    1.22
  -1   0   5   22.97    1.24
   1   0  -5   24.07    1.24
  -5   1   0   22.77    1.12
  -1   1  -5   -0.14    0.16
  -5   1  -1   -0.06    0.12
  -5   1   1    0.02    0.16
  -5   1   1   -0.35    0.33
  -1  -1   5   -0.06    0.16
   5  -1   1   -0.12    0.13
  -1   1   5   -0.13    0.22
   1  -1   5   -0.05    0.17
   1   1   5    0.16    0.20
   1   1  -5   -0.06    0.17
   5   1   1   -0.06    0.10
   0   5  -2    5.12    0.50
   0   2  -5    5.20    0.46
   0   2   5    3.76    0.53
   5   0   2    4.72    0.37
  -5   0   2    4.63    0.33
   2   0  -5    4.74    0.48
   2   0   5    5.31    0.48
   0  -2   5    3.94    0.45
  -5   2   0    4.38    0.44
  -2   0   5    4.55    0.51
  -5   0   2    4.54    0.36
  -2   1  -5    0.48    0.21
  -5   1   2    0.57    0.35
  -1   5  -2    0.38    0.20
  -1   2   5    0.58    0.37
  -2  -1   5    0.37    0.20
   2   1   5    0.36    0.24
   5  -1   2    0.34    0.17
   5   1  -2    0.43    0.18
   1   2  -5    0.04    0.16
  -5   2  -1    0.59    0.20
   1  -2   5    0.89    0.26
  -2  -1  -5    0.21    0.26
  -1   2  -5    0.21    0.18
  -5   2   1    0.15    0.29
  -2   1   5    0.39    0.30
  -2   5  -1    0.30    0.26
   5   1   2    0.19    0.14
  -5   1  -2    0.34    0.17
   5   2  -1    0.36    0.10
  -1  -2   5    0.08    0.20
   1   2   5    0.55    0.32
   2   1  -5    0.20    0.33
   2  -1   5    0.26    0.21
  -2   5  -2   -0.05    0.22
  -2   2   5    0.15    0.44
  -2   2  -5   -0.16    0.18
   5   2   2    0.16    0.12
   2   2   5   -0.29    0.23
   2   5  -2   -0.19    0.17
   5  -2   2    0.03    0.18
   5   2  -2   -0.27    0.11
  -5   2  -2   -0.20    0.17
  -2  -2   5    0.25    0.21
   2  -2   5    0.24    0.23
  -3   0  -5    3.26    0.41
   0  -3   5    2.47    0.35
   0   3  -5    2.16    0.34
   3   0   5    3.02    0.39
   5   0   3    3.09    0.34
  -5   0  -3    2.74    0.35
  -5   0   3    2.60    0.32
   0   3   5    2.11    0.63
  -3   0   5    2.61    0.39
   1  -3   5   13.05    0.83
   5   1  -3   13.86    0.78
  -3   1  -5   13.58    0.83
   3   1   5   13.13    0.82
  -3  -1   5   12.75    0.81
  -1   3   5   12.87    1.34
  -5   1   3   12.73    1.00
   5  -1   3   13.27    0.78
  -1  -3   5   12.23    0.81
   5   1   3   13.33    0.72
   1   3   5   12.72    1.13
   3  -1   5   13.29    0.82
  -5  -1   3   12.40    0.65
  -3   5  -1   13.24    0.97
  -5   1  -3   12.84    0.75
  -1   3  -5   13.91    0.84
  -3   1   5   16.08    1.07
   1   5  -3   12.70    0.79
  -3   2  -5   51.30    2.39
  -5   2   3   46.56    2.75
   2   3  -5   49.84    2.37
  -3  -2   5   49.38    2.35
   3   2   5   49.42    2.39
   3   5  -2   50.45    2.30
  -2   5  -3   50.84    2.43
   5   2  -3   48.15    2.29
   5  -2   3   50.63    2.36
  -2   3   5   43.27    2.86
   2  -3   5   49.07    2.39
  -5   3  -2   49.03    2.38
  -5   2  -3   49.13    2.35
  -3   2   5   49.70    2.85
  -2   3  -5   50.07    2.40
  -2  -3   5   48.70    2.35
   2   5  -3   49.22    2.34
   3  -2   5   50.40    2.40
   2   3   5   50.82    2.55
   5   2   3   50.67    2.28
   5   3  -2   50.74    2.24
   3   2  -5   50.20    2.36
  -3  -3   5    0.20    0.21
  -3   3  -5    0.23    0.25
   5   3  -3    0.20    0.17
   5   3   3    0.13    0.18
  -3   3   5   -0.37    0.59
  -3   5  -3    0.06    0.37
   3   3   5   -0.02    0.25
  -5   3  -3   -0.08    0.26
   5  -3   3   -0.04    0.18
   3   5  -3    0.02    0.19
   3   3  -5    0.15    0.21
   3  -3   5    0.41    0.24
   5   0   4   56.10    2.65
   0  -4   5   57.19    2.71
  -4   0  -5   56.70    2.69
  -5   0   4   58.87    2.70
  -5   0  -4   55.51    2.65
  -4   0   5   54.93    2.75
   4   0  -5   56.96    2.75
   4   0   5   56.44    2.68
  -5   4   0   58.50    2.88
  -4   1  -5    0.28    0.23
  -5   1   4    0.01    0.39
  -4  -1   5    0.09    0.22
   4   1   5    0.29    0.22
   5   1  -4    0.22    0.22
   5  -1   4    0.16    0.21
   1  -4   5    0.24    0.24
  -5   4  -1    0.27    0.34
   4   1  -5    0.31    0.23
   4  -1   5    0.14    0.21
  -1  -4   5    0.33    0.23
  -1   4  -5    0.28    0.24
  -5   1  -4   -0.02    0.22
   1   4   5   -0.81    0.61
  -5  -1   4   -0.11    0.17
   5   4  -1    0.24    0.11
   5   1   4    0.31    0.18
   1   5  -4    0.61    0.24
  -4   1   5    1.07    0.47
  -5   2   4   11.69    1.35
   4   2   5   13.55    0.87
   5   2  -4   14.88    0.84
  -4  -2   5   13.81    0.84
  -4   2  -5   15.37    0.92
   4   5  -2   14.62    0.78
   5  -2   4   14.26    0.89
  -5   4  -2   13.36    0.95
   2  -4   5   14.77    0.91
   2   4  -5   14.36    0.88
   2   4   5   14.36    1.36
   4  -2   5   13.94    0.89
  -2  -4   5   15.62    0.90
  -4   2   5   12.28    1.42
   2   5  -4   15.34    0.88
  -2   4  -5   14.97    1.02
   4   2  -5   15.05    0.88
   5   2   4   14.08    0.81
  -5  -2   4   14.58    0.73
  -5   2  -4   14.72    0.90
   5   4  -2   14.93    0.74
   5   3  -4    0.75    0.24
  -4   3  -5    0.99    0.35
   5  -3   4    0.52    0.27
  -5   4  -3    0.19    0.31
   3  -4   5    0.87    0.28
  -5   3   4   -0.30    0.52
   4   3   5    0.39    0.28
  -3   4   5    0.23    0.53
  -4  -3   5    0.72    0.25
   3   4  -5    0.81    0.27
   3   4   5    0.69    0.49
  -5   3  -4    0.64    0.30
   5   3   4    0.77    0.22
  -4   3   5    0.37    0.72
   3   5  -4    0.42    0.22
   4  -3   5    0.44    0.27
   4   3  -5    0.80    0.25
  -3  -4   5    0.82    0.26
   5   4  -3    0.39    0.20
  -5   4  -4    0.13    0.36
  -4   4  -5   -0.44    0.30
  -4   4   5   -0.36    0.48
  -4   5  -4    0.85    0.37
   4  -4   5    0.20    0.25
   4   4  -5    0.80    0.30
   4   4   5    0.15    0.38
   4   5  -4    0.22    0.21
   5  -4   4    0.24    0.26
   5   4  -4   -0.04    0.22
   5   4   4    0.29    0.30
  -5   0  -5   25.23    1.31
  -5   0   5   24.40    1.37
  -5   5   0   21.66    1.58
   0  -5   5   23.17    1.30
   5   0   5   22.84    1.25
  -5  -1   5    0.08    0.24
  -5   1  -5   -0.25    0.25
  -5   1   5   -0.34    0.44
  -5   5  -1    0.53    0.42
  -1  -5   5    0.22    0.24
   1  -5   5    0.36    0.26
   1   5  -5   -0.13    0.22
   5  -1   5    0.08    0.22
   5   1  -5    0.04    0.28
   5   1   5    0.12    0.22
  -5  -2   5   14.78    0.86
  -5   2  -5   15.06    0.96
  -5   2   5   11.85    1.49
  -5   5  -2   16.27    1.14
   2  -5   5   15.71    0.99
   2   5  -5   15.95    0.95
   5  -2   5   14.80    0.94
   5   2  -5   14.86    0.92
   5   2   5   15.94    0.91
   5   5  -2   15.26    0.80
  -5  -3   5    0.11    0.22
  -5   3  -5   -0.30    0.34
  -5   3   5   -0.65    0.62
  -5   5  -3   -0.13    0.40
   3  -5   5   -0.02    0.23
   3   5  -5   -0.28    0.23
   5  -3   5    0.16    0.25
   5   3  -5    0.21    0.25
   5   3   5   -0.08    0.26
   5   5  -3    0.15    0.23
  -5   4  -5    3.89    0.56
  -5   4   5    5.84    0.86
  -5   5  -4    3.79    0.57
   4  -5   5    3.78    0.52
   4   5  -5    3.39    0.45
   4   5   5    4.22    0.74
   5  -4   5    3.55    0.51
   5   4  -5    3.36    0.44
   5   4   5    4.40    0.52
   5   5  -4    3.67    0.42
  -5   5  -5   -0.28    0.43
   5  -5   5   -0.27    0.26
   5   5  -5    0.67    0.35
   5   5   5   -0.56    0.46
   0   0  -6    0.96    0.32
   0   0   6    0.56    0.29
   0  -1   6   10.26    0.75
   0   1  -6   10.94    0.75
   0   1   6   12.39    0.87
   6   0   1   11.11    0.64
   1   0  -6   11.60    0.80
   1   0   6   10.24    0.77
  -6   1   0   10.38    0.60
  -1   0  -6   11.71    0.77
  -1   0   6   10.91    0.80
  -1  -1  -6   -0.03    0.29
  -1  -1   6    0.11    0.24
  -6   1  -1    0.17    0.15
  -6   1   1    0.14    0.17
  -6   1   1   -0.10    0.33
  -1   1   6   -0.28    0.30
   1   1   6   -0.19    0.25
  -1   1  -6   -0.21    0.23
   1  -1   6   -0.38    0.19
   1   1  -6    0.15    0.23
   6   2   0  218.69    9.74
  -6   2   0  217.48    9.87
   2   0  -6  225.84   10.03
   2   0   6  221.34    9.95
  -2   0   6  220.58   10.00
   0   6  -2  232.65    9.97
  -2   0  -6  219.14    9.94
   0  -2   6  223.97    9.95
   0   2  -6  225.39    9.94
   6   0   2  225.76    9.84
   0   2   6  225.78   10.12
   6   2   1    5.17    0.32
  -6   1   2    5.62    0.67
   1  -2   6    5.79    0.57
   6  -1   2    6.03    0.49
  -6   2  -1    7.06    0.52
   2   1   6    4.84    0.57
  -1   2   6    5.52    0.75
  -6   1   2    5.85    0.60
  -2  -1   6    5.55    0.55
  -2   1  -6    5.70    0.55
  -1  -2   6    4.35    0.54
  -1   2  -6    5.72    0.54
  -6   1  -2    5.53    0.43
  -2   6  -1    6.14    0.71
   1   2   6    6.16    0.73
   6   2  -1    5.77    0.38
   6   1   2    5.84    0.41
  -2   1   6    6.96    0.80
  -6   2   1    5.89    0.63
   2  -1   6    6.96    0.58
   1   6  -2    6.27    0.58
   2  -2   6  642.72   27.10
  -6   2   2  616.83   27.27
  -6   2  -2  624.56   27.00
   6  -2   2  626.84   27.03
   6   2  -2  614.85   26.93
  -2  -2   6  593.27   27.05
  -2   2   6  637.47   27.46
   2   6  -2  601.16   27.02
   2   2   6  607.50   27.12
   3   0   6   49.02    2.39
  -3   0   6   49.29    2.48
   6   0   3   48.94    2.30
   0  -3   6   47.33    2.39
  -6   3   0   51.23    2.45
  -3   0  -6   48.88    2.40
  -6   0   3   48.30    2.25
   0   3   6   50.80    2.79
  -6   3  -1   29.14    1.55
  -6   1   3   29.35    1.64
  -3   1  -6   28.62    1.53
  -1   3   6   25.55    1.99
   1  -3   6   28.66    1.54
   6  -1   3   28.71    1.47
  -3  -1   6   28.81    1.55
   3   1   6   29.87    1.55
   6   1   3   28.74    1.41
  -6   1  -3   28.44    1.43
  -3   1   6   31.52    1.82
   1   3   6   31.33    1.85
  -6   3   1   29.90    1.74
  -1   3  -6   29.36    1.55
   3  -1   6   28.99    1.54
   6   3  -1   28.32    1.31
  -1  -3   6   28.46    1.52
  -3   6  -1   29.58    1.72
   1   6  -3   30.55    1.53
  -6   2   3   48.29    2.88
   6   3   2   52.29    2.40
   6  -2   3   56.60    2.57
  -6   3  -2   54.59    2.59
  -3  -2   6   52.42    2.58
  -3   2  -6   54.84    2.61
   2  -3   6   53.84    2.61
   3   2   6   51.03    2.61
  -2   3   6   46.27    3.11
   6   2  -3   52.83    2.48
   3   6  -2   53.73    2.52
   6   2   3   53.38    2.45
  -3   2   6   54.32    3.09
   3  -2   6   55.83    2.62
  -6   2  -3   53.55    2.54
   2   3   6   56.63    2.78
   2   6  -3   55.31    2.56
  -3   6  -2   54.51    2.81
  -2  -3   6   53.85    2.57
   6   3  -2   52.73    2.42
   3   2  -6   54.86    2.59
   3  -3   6    0.98    0.32
  -3   3   6    0.00    0.70
  -3  -3   6    0.86    0.31
  -3   3  -6    1.20    0.34
  -6   3  -3    1.02    0.35
   3   3  -6    1.61    0.35
   3   3   6    1.60    0.41
   3   6  -3    0.99    0.27
   6   3  -3    1.25    0.23
  -6   3   3    1.81    0.59
   6   3   3    0.93    0.21
   6  -3   3    0.96    0.30
   6   0   4  197.23    8.61
  -6   0   4  199.96    8.62
  -4   0   6  197.97    8.79
   0  -4   6  196.82    8.69
   0   4   6  162.50    9.11
   4   0   6  200.26    8.68
  -6   4   0  202.11    8.84
  -4   0  -6  192.10    8.68
   4   1   6   37.11    1.84
  -4  -1   6   36.61    1.86
  -6   4  -1   37.72    1.97
  -4   1  -6   37.96    1.87
  -6   1   4   37.47    2.04
   6  -1   4   36.93    1.80
  -1   4   6   27.63    2.35
   1  -4   6   36.17    1.86
   6   4  -1   35.51    1.61
   4  -1   6   36.79    1.85
   4   1  -6   34.96    1.85
  -1  -4   6   36.57    1.84
   6   1   4   36.24    1.74
  -1   4  -6   35.51    1.87
  -6   4   1   30.27    2.13
   1   6  -4   37.07    1.84
  -6   1  -4   35.15    1.77
   1   4   6   32.11    2.30
  -4   1   6   38.95    2.18
  -6   2   4  175.09    9.07
   6  -2   4  203.68    8.75
  -2   6  -4  193.18    8.84
  -2   4   6  194.63    9.30
   6   2  -4  192.31    8.69
  -4  -2   6  190.81    8.73
   4   2   6  194.89    8.76
   2  -4   6  194.99    8.79
  -4   2  -6  201.09    8.79
  -6   4  -2  203.59    8.82
  -6   2  -4  199.82    8.73
   4   2  -6  198.00    8.76
   2   4   6  206.23    9.12
  -4   2   6  187.29    9.27
  -2  -4   6  192.76    8.74
   4  -2   6  198.87    8.78
   6   2   4  198.15    8.66
   2   6  -4  197.49    8.74
   6   4  -2  196.62    8.59
  -6   4  -3    1.95    0.44
   3  -4   6    1.13    0.32
  -4   3  -6    1.61    0.39
   3   4  -6    1.95    0.37
  -3   4   6    1.04    0.61
  -4  -3   6    1.94    0.36
   4   3   6    1.17    0.38
   6   3  -4    1.58    0.30
   4   6  -3    1.52    0.32
   6  -3   4    1.58    0.35
   6   4   3    1.50    0.27
  -6   3   4    1.22    0.64
   6   4  -3    1.31    0.24
  -3  -4   6    1.42    0.34
   6   3   4    1.35    0.28
   3   6  -4    1.08    0.35
   4  -3   6    1.73    0.39
   4   3  -6    1.21    0.35
  -4   3   6    1.30    0.83
   3   4   6    1.52    0.48
  -6   3  -4    0.97    0.39
  -6   4  -4  245.53   11.02
  -6   4   4  253.02   11.18
  -4   4   6  259.35   11.44
   6   4   4  245.95   10.88
  -4  -4   6  239.15   10.91
  -4   4  -6  247.23   11.04
   4   4  -6  242.69   10.96
   4   4   6  250.84   11.08
   4   6  -4  240.57   10.90
   6  -4   4  248.81   11.00
   6   4  -4  245.54   10.87
   4  -4   6  240.63   11.01
  -5   0   6   16.27    1.18
  -5   6   0   15.20    1.44
   5   0   6   15.63    0.94
   0   5   6   12.80    1.57
   6   0   5   14.54    0.91
  -6   5   0   15.48    1.45
  -5   0  -6   13.45    1.03
  -6   0   5   14.80    1.02
   0  -5   6   14.22    0.99
  -1   5   6    0.96    0.67
  -6   5  -1    1.43    0.55
  -5  -1   6    1.17    0.37
   5   1   6    0.57    0.29
   1  -5   6    1.02    0.38
  -6   1   5    1.02    0.55
   6  -1   5    0.76    0.26
  -5   1  -6    0.73    0.41
  -5   6  -1    0.75    0.60
  -1  -5   6    0.60    0.31
   6   5  -1    0.67    0.17
  -5   1   6    1.21    0.62
  -6   1  -5    0.76    0.39
   1   5   6    0.38    0.71
  -6  -1   5    0.90    0.29
   5  -1   6    0.70    0.31
  -6   5   1   -0.41    0.73
   6   1   5    0.44    0.25
   5   1  -6    0.96    0.34
  -5  -2   6    1.36    0.37
   6  -2   5    1.87    0.40
   6   2  -5    0.98    0.33
  -6   5  -2    0.13    0.49
   5   6  -2    1.27    0.30
   2  -5   6    0.80    0.35
  -5   2  -6    1.80    0.45
   5   2   6    1.59    0.35
  -6   2   5    0.15    0.73
  -2   5   6    2.56    0.71
  -5   2   6    0.18    0.80
  -2  -5   6    1.69    0.37
  -6   2  -5    2.07    0.44
   2   5   6    2.35    0.80
   2   6  -5    1.46    0.37
   6   2   5    1.54    0.32
   5  -2   6    1.77    0.39
   5   2  -6    1.39    0.39
   6   5  -2    1.73    0.23
  -6   3   5   12.72    1.42
  -5   3  -6   11.32    0.98
   5   3   6   11.01    0.86
  -3   5   6   12.59    1.28
   6   3  -5   11.90    0.86
  -5  -3   6   13.19    0.81
   6  -3   5   11.71    0.88
  -6   5  -3   12.06    1.10
   3   5  -6   11.58    0.93
   3  -5   6   10.97    0.90
   5   6  -3   12.49    0.77
   3   6  -5   11.43    0.86
   6   3   5   12.16    0.91
   5   3  -6   12.21    0.90
  -6   3  -5   12.08    0.97
   3   5   6   12.44    1.43
  -5   6  -3   11.21    1.17
  -5   3   6   11.74    1.40
   5  -3   6   12.11    0.88
   6   4  -5   49.53    2.39
   6   5   4   49.39    2.41
   6  -4   5   47.41    2.47
   4   5  -6   47.64    2.44
  -5   4  -6   47.51    2.55
   5   6  -4   48.10    2.35
   5   4   6   46.60    2.46
  -6   4   5   51.49    2.74
  -6   5  -4   46.63    2.58
   4  -5   6   48.84    2.50
  -4   5   6   51.38    2.77
  -4   5  -6   57.98    3.07
   6   4   5   47.18    2.36
   4   5   6   49.76    2.73
  -5   4   6   54.22    2.89
   4   6  -5   47.15    2.40
   5  -4   6   49.11    2.49
   5   4  -6   49.76    2.45
  -6   4  -5   48.37    2.55
   6   5  -4   49.04    2.34
  -5   6  -4   45.19    2.59
  -6   5  -5   -0.48    0.59
  -6   5   5   -0.55    0.46
  -5   5   6    0.13    0.64
   5  -5   6   -0.10    0.35
   5   5  -6   -0.74    0.41
   5   5   6   -0.02    0.51
   5   6  -5    0.16    0.38
   5   6   5    0.05    0.68
   6   5  -5   -0.30    0.38
   6   5   5    0.16    0.38
  -6   0   6  495.29   20.50
  -6   6   0  412.83   20.69
   6   0   6  480.07   20.38
  -6  -1   6   -0.17    0.39
  -6   1  -6   -0.19    0.43
  -6   1   6   -0.55    0.62
  -6   6  -1    1.64    0.77
  -6   6   1   -0.92    0.78
   1  -6   6    0.21    0.32
   6  -1   6    0.32    0.32
   6   1   6    0.05    0.26
   6   6  -1    0.41    0.22
  -6  -2   6  376.09   16.41
  -6   2  -6  394.73   16.54
  -6   2   6  323.00   16.92
  -6   6  -2  376.21   16.73
   2  -6   6  373.03   16.56
   2   6  -6  374.22   16.52
   6  -2   6  379.79   16.52
   6   2  -6  383.08   16.52
   6   2   6  377.56   16.47
   6   6  -2  375.94   16.34
  -6   3  -6   -0.47    0.48
  -6   3   6    0.38    0.81
  -6   6  -3   -1.21    0.61
   3  -6   6   -0.39    0.31
   3   6  -6    0.14    0.41
   3   6   6   -1.21    0.80
   6  -3   6   -0.28    0.32
   6   3  -6   -0.33    0.38
   6   6  -3    0.26    0.30
  -6   4  -6  174.96    7.95
  -6   4   6  192.31    8.24
  -4   6   6  172.88    8.09
   4   6  -6  172.94    7.85
   4   6   6  175.54    8.29
   6  -4   6  152.63    8.01
   6   4  -6  178.56    7.84
   6   4   6  172.38    7.82
   6   6  -4  170.98    7.73
  -6   5   6   -0.15    0.54
  -5   6   6   -0.71    0.51
   5   6  -6    0.18    0.52
   5   6   6   -0.64    0.62
   6  -5   6   -0.13    0.39
   6   5  -6    0.27    0.49
   6   5   6   -0.08    0.44
   6   6  -5    0.07    0.44
   6   6   5    0.12    0.54
  -6   6   6  108.42    5.43
   6   6  -6  114.71    5.36
   6   6   6  115.62    5.37
   0   0   7    1.70    0.38
   0  -1   7    7.22    0.69
   0   1   7    7.10    0.78
  -1   0  -7    9.47    0.79
  -1   0   7    9.18    0.81
   1   0  -7    9.98    0.93
   1   0   7    8.84    0.74
   7   1   1    0.23    0.16
  -7   1   1    0.01    0.24
  -1  -1   7    0.35    0.26
   1   1  -7   -0.12    0.28
   1   1   7    0.46    0.32
  -7   1   1    0.36    0.15
   1  -1   7    0.46    0.27
  -1   1   7    0.49    0.41
   0  -2   7    0.35    0.31
   0   2   7    0.67    0.45
  -7   2   0    0.72    0.29
  -2   0  -7    1.53    0.43
  -2   0   7    0.86    0.37
   0   7  -2    0.78    0.39
   2   0   7    0.62    0.33
   7   0   2    0.76    0.21
   0   2  -7    0.99    0.49
  -7   2  -1    1.36    0.31
  -2   1  -7    1.06    0.36
   7  -1   2    0.80    0.25
   2   1   7    0.69    0.35
  -1   2   7    1.59    0.60
  -7   1   2    1.30    0.29
  -7   1   2    0.79    0.34
  -2  -1   7    0.66    0.32
   7   2   1    1.11    0.18
   1  -2   7    1.24    0.34
   1   2   7    0.69    0.37
  -7   1  -2    1.19    0.22
   1   7  -2    1.19    0.36
   7   1   2    0.97    0.22
  -1  -2   7    0.46    0.33
  -2   1   7    1.00    0.50
  -7   2   1    0.14    0.48
   2  -1   7    1.27    0.34
  -7   2   1    1.14    0.37
  -2  -2   7   -0.24    0.29
  -2   2  -7   -0.08    0.30
  -2   2   7    0.18    0.54
   2  -2   7    0.35    0.30
   2   2   7    0.19    0.33
   2   7  -2    0.36    0.32
   7   2   2    0.09    0.15
  -7   2   2    0.93    0.59
  -7   2  -2    0.34    0.27
  -7   2   2    0.07    0.45
   0  -3   7    9.84    0.82
   0   3  -7    9.65    0.81
   0   3   7   11.31    1.28
  -3   0   7   10.59    0.97
   7   0   3   10.51    0.70
  -3   0  -7   11.02    0.91
   3   0   7   10.57    0.80
  -7   3   0   12.20    0.94
   1  -3   7   12.29    0.93
   3   1   7   13.06    0.97
  -3   1  -7   14.92    1.01
  -7   3  -1   12.65    0.96
  -1   3   7   12.68    1.51
  -3  -1   7   12.98    0.97
  -7   1   3   15.40    0.99
   7  -1   3   13.06    0.84
  -7   1   3   11.06    1.02
   7   3  -1   13.54    0.68
  -1  -3   7   13.95    0.94
  -3   1   7   13.46    1.26
   7   1   3   13.53    0.77
   1   3   7   14.92    1.24
  -7   1  -3   13.75    0.82
   1   7  -3   13.89    0.95
   3  -1   7   13.23    0.93
  -7   3   1   11.99    1.16
  -3  -2   7    5.32    0.66
   7   3   2    5.17    0.36
   3   2   7    5.79    0.70
  -7   2   3    4.89    0.84
   3   7  -2    5.30    0.60
   7  -2   3    6.16    0.58
  -7   3  -2    5.35    0.60
  -3   2  -7    4.73    0.58
  -2   3   7    6.23    1.22
   2  -3   7    6.06    0.63
  -7   3   2    4.39    0.93
   2   7  -3    5.78    0.65
   3  -2   7    4.59    0.57
   7   2   3    5.67    0.43
   7   3  -2    5.94    0.44
   2   3   7    6.79    0.82
  -2  -3   7    5.48    0.64
  -7   2  -3    6.28    0.61
  -3   2   7    5.89    1.01
   3  -3   7   -0.44    0.28
  -3  -3   7   -0.13    0.29
  -7   3  -3    0.32    0.37
   7   3   3    0.12    0.19
   3   3   7    0.44    0.39
   3   7  -3    0.08    0.35
  -7   3   3    0.42    0.51
  -3   3   7   -1.39    0.82
   7   3  -3   -0.04    0.24
  -3   3  -7    0.35    0.37
   0   4   7    8.64    1.26
  -7   0   4   10.94    0.67
  -4   0   7   10.39    1.04
   4   0   7    9.11    0.78
   0  -4   7    9.47    0.82
  -7   4   0   10.37    1.21
  -4   0  -7    8.82    0.92
   7   0   4    9.49    0.69
  -7   4  -1   -0.07    0.54
  -1   4   7    1.32    0.81
   7  -1   4    0.99    0.31
  -7   1   4    1.16    0.52
  -4   1  -7    0.54    0.44
   4   1   7    0.83    0.36
  -4  -1   7    0.92    0.40
   1  -4   7    0.88    0.34
   7   4  -1    0.72    0.15
  -4   1   7    0.74    0.66
  -7   4   1    1.33    0.77
   7   1   4    0.73    0.26
  -1  -4   7    0.90    0.35
   1   4   7    1.13    0.77
  -7   1  -4    0.50    0.36
   4  -1   7    0.20    0.34
   1   7  -4    0.57    0.38
   7   2  -4    2.54    0.42
   7   4   2    1.97    0.23
  -7   2   4    1.12    0.71
  -4   2  -7    2.66    0.52
  -2   4   7    1.60    0.80
   4   7  -2    2.15    0.37
  -4  -2   7    2.45    0.44
   2  -4   7    1.99    0.43
   4   2   7    1.57    0.39
   7  -2   4    2.47    0.42
  -7   4  -2    3.28    0.57
   4   2  -7    1.71    0.42
  -4   2   7    2.21    1.04
   2   7  -4    2.04    0.44
  -7   4   2    1.89    0.85
   7   4  -2    2.51    0.27
   7   2   4    2.72    0.33
   4  -2   7    2.15    0.44
   2   4   7    2.60    0.72
  -2  -4   7    2.18    0.42
  -7   3   4    4.01    0.81
   3   4  -7    3.94    0.55
  -3   4   7    4.24    0.93
   7   4   3    3.80    0.40
   7   3  -4    3.81    0.45
  -7   4  -3    4.00    0.67
  -4  -3   7    3.73    0.53
  -4   3  -7    4.13    0.60
   4   7  -3    4.19    0.49
   7  -3   4    4.50    0.56
   4   3   7    4.21    0.60
   3  -4   7    4.38    0.58
  -3  -4   7    4.16    0.54
  -7   3  -4    4.23    0.61
   7   3   4    3.85    0.45
   3   4   7    3.86    0.71
   4  -3   7    3.62    0.51
  -4   3   7    2.52    1.00
   3   7  -4    3.36    0.53
   7   4  -3    3.48    0.40
   4   3  -7    2.64    0.48
  -4   4   7    0.38    0.85
   4   4  -7    0.00    0.44
   4   4   7   -0.03    0.44
   4   7  -4    0.19    0.35
   4  -4   7    0.77    0.40
  -4  -4   7    0.26    0.38
   7   4   4    0.22    0.26
  -7   4   4   -0.30    0.49
   7   4  -4    0.24    0.33
  -7   4  -4   -0.14    0.53
   0   5   7    3.37    1.05
  -5   0   7    5.17    0.77
  -7   5   0    3.04    0.91
  -5   0  -7    4.65    0.69
  -7   0   5    5.16    0.59
   0  -5   7    4.28    0.58
   5   0   7    4.56    0.55
   7   0   5    3.80    0.47
   1  -5   7    0.59    0.37
  -1   5   7    1.16    0.89
  -7   5  -1    2.04    0.78
   5   7  -1    1.00    0.31
  -7   1   5    0.78    0.62
  -5  -1   7    0.87    0.45
  -5   1  -7    1.15    0.51
   5   1   7    1.19    0.35
   7  -1   5    1.23    0.35
   5  -1   7    0.36    0.33
   5   1  -7    1.46    0.49
  -5   1   7    0.09    0.70
   7   5  -1    0.95    0.17
   1   7  -5    1.37    0.43
   1   5   7    0.29    0.84
  -7   5   1    1.15    1.06
  -7   1  -5    1.00    0.47
   7   1   5    0.47    0.32
  -1  -5   7    1.50    0.40
   2  -5   7    1.70    0.42
   7  -2   5    1.59    0.38
   7   2  -5    1.95    0.48
  -5   2  -7    1.68    0.55
   5   2   7    2.02    0.45
  -7   2   5    1.84    0.89
  -5  -2   7    1.56    0.44
  -2   5   7    2.24    0.79
   5   7  -2    2.37    0.39
  -7   5  -2    2.11    0.72
  -2  -5   7    1.50    0.44
   7   5  -2    2.11    0.26
  -5   2   7    1.04    1.05
   5  -2   7    2.31    0.45
   2   5   7    2.02    0.89
   5   2  -7    1.30    0.48
   7   2   5    1.66    0.34
  -7   5   2    1.51    0.91
   2   7  -5    2.27    0.49
  -7   2  -5    2.22    0.51
   5   3   7   25.93    1.50
  -5   3  -7   25.51    1.63
   7   3  -5   24.83    1.43
   5   7  -3   24.99    1.37
   7   5   3   24.72    1.28
  -7   5  -3   26.78    1.78
  -5  -3   7   24.99    1.46
  -7   3   5   27.82    2.02
   7  -3   5   24.42    1.48
   7   5  -3   24.22    1.31
   3   5   7   26.48    1.97
   5   3  -7   24.87    1.54
   3   7  -5   25.49    1.49
   5  -3   7   24.13    1.49
  -3  -5   7   24.62    1.47
  -5   3   7   22.30    2.22
   7   3   5   26.55    1.36
  -7   3  -5   25.10    1.58
   7   4  -5    6.07    0.64
  -5  -4   7    5.91    0.64
   5   7  -4    5.14    0.58
  -7   4   5    4.81    0.84
   5   4   7    5.44    0.70
   4  -5   7    5.67    0.70
  -7   5  -4    5.42    0.87
  -4   5   7    6.03    0.97
   7   5   4    4.90    0.60
   5   4  -7    4.88    0.75
  -7   4  -5    5.21    0.86
   4   5   7    5.30    0.94
   5  -4   7    5.24    0.64
   7   5  -4    6.70    0.66
   4   7  -5    4.62    0.61
   7   4   5    5.53    0.63
  -5   5   7    0.95    0.68
  -7   5  -5    1.24    0.84
   5  -5   7   -0.32    0.41
   5   5   7   -0.12    0.56
   7   5  -5   -0.70    0.43
   7   5   5   -0.27    0.36
   5   7  -5   -0.15    0.44
   7   0   6    6.17    0.69
  -7   0   6    7.80    0.85
   0  -6   7    6.59    0.76
   0   6   7    9.21    1.25
   6   0   7    6.43    0.69
  -7   6   0    6.19    1.26
  -6   0   7    5.87    0.87
  -1   6   7    5.27    1.15
  -7   6  -1    4.58    1.11
   6   1   7    5.30    0.62
  -6   1  -7    6.53    0.84
  -6  -1   7    5.34    0.77
   7  -1   6    4.89    0.60
  -7   1   6    6.85    1.06
   1  -6   7    5.88    0.69
   6   7  -1    6.14    0.59
  -1  -6   7    4.67    0.65
  -7  -1   6    5.77    0.61
   7   1   6    5.52    0.65
  -6   1   7    5.94    1.14
   6  -1   7    5.44    0.64
  -7   6   1    5.41    1.34
   7   6  -1    6.17    0.45
   1   6   7    3.50    1.13
  -7   1  -6    6.22    1.01
   7   2  -6    1.07    0.56
   7  -2   6    1.95    0.44
   2  -6   7    1.29    0.44
  -2   6   7    1.45    0.71
  -6   2  -7    2.23    0.66
  -7   2   6    0.00    0.99
   6   7  -2    2.04    0.37
  -7   6  -2    0.76    1.01
   6   2   7    1.11    0.40
  -6  -2   7    1.12    0.51
   6  -2   7    1.16    0.44
   7   6  -2    1.46    0.27
   7   2   6    1.53    0.39
   2   6   7    3.20    1.14
  -7   2  -6    2.51    0.65
  -7   6   2    1.21    1.08
  -6   2   7   -0.50    1.04
  -3   6   7   18.41    1.56
   6   7  -3   19.90    1.11
   7   3  -6   16.40    1.29
  -7   3   6   17.85    1.91
   3  -6   7   18.86    1.27
  -6   3  -7   18.32    1.50
  -6  -3   7   18.06    1.20
   7   3   6   18.58    1.16
  -6   3   7   16.77    1.95
   6  -3   7   17.15    1.24
   7   6  -3   18.26    1.04
   3   6   7   18.20    2.04
  -7   3  -6   18.82    1.47
   7   6   4    5.94    0.64
  -7   4   6    7.15    1.01
   4   7   6    3.22    1.20
   6   7  -4    5.60    0.60
   7   4  -6    5.08    0.70
   4  -6   7    5.51    0.72
   6   4   7    6.13    0.71
  -4   6   7    4.64    0.86
   7  -4   6    5.77    0.76
   7   4   6    5.27    0.64
  -6   4   7    5.13    1.06
   6  -4   7    5.45    0.69
   7   6  -4    6.08    0.62
   4   6   7    6.31    1.32
  -7   4  -6    5.68    0.94
  -7   5   6   -0.29    0.60
   6   7  -5    0.14    0.55
   5   7   6    0.22    0.91
   7   5  -6    0.19    0.58
   6   5   7    0.47    0.55
   5  -6   7    0.30    0.43
   7   6   5   -0.07    0.48
  -5   6   7    0.62    0.66
   5   6   7    0.34    0.76
  -6   5   7    0.71    0.69
   6   7   5    0.39    0.75
   6  -5   7    0.31    0.46
   7   5   6    0.51    0.45
   7   6  -5    0.08    0.51
  -7   6   5   -0.89    0.57
  -7   6   6   -0.98    0.64
  -6   6   7   -0.20    0.65
  -6   7   6    0.39    0.64
   6   6   7    0.22    0.67
   6   7   6   -0.01    0.85
   7   6   6    0.29    0.52
  -7   0   7   36.05    2.28
   0   7   7   39.43    2.55
   7   0   7   36.44    1.99
  -7  -1   7   -0.06    0.56
  -7   1  -7    0.08    0.76
  -7   1   7   -0.92    0.89
  -1   7   7    0.86    0.68
   1   7   7   -1.13    0.92
   7  -1   7   -0.23    0.44
   7   1   7   -0.04    0.41
   7   7  -1    1.03    0.32
  -7  -2   7    0.31    0.45
  -7   2  -7   -0.13    0.77
  -7   2   7   -0.58    1.05
  -2   7   7    1.05    0.72
   2   7   7    0.52    1.05
   7  -2   7   -0.13    0.44
   7   2   7    0.15    0.36
   7   7  -2    0.25    0.33
  -7   3  -7    0.29    0.85
  -7   3   7    0.33    0.92
  -3   7   7   -0.82    0.59
   7  -3   7   -0.22    0.45
   7   3   7   -0.28    0.41
   7   7  -3    0.53    0.37
  -7   4   7    0.41    0.79
  -4   7   7    1.00    0.64
   4   7   7    0.39    1.40
   7  -4   7   -0.80    0.45
   7   4   7   -0.29    0.45
   7   7  -4   -0.01    0.51
   7   7   4   -0.07    0.60
  -7   5   7    0.10    0.75
  -5   7   7    1.09    0.66
   5   7   7    1.14    1.50
   7  -5   7   -0.18    0.47
   7   5   7    0.43    0.55
   7   7   5    0.79    0.65
  -7   6   7   17.06    1.56
  -7   7   6   15.78    1.49
  -6   7   7   14.73    1.53
   7   6   7   14.54    1.39
   7   7   6   14.97    1.50
  -7   7   7    1.14    0.86
   7   7   7    1.62    1.00
   0   0   8  611.16   26.91
   0  -1   8    1.79    0.42
   0   1   8    2.84    0.60
   1   0   8    2.60    0.47
  -1   0   8    1.39    0.43
   1  -1   8   12.33    0.94
  -1   1   8   13.15    1.15
  -1  -1   8   12.37    0.98
   1   1   8   12.88    1.02
  -2   0  -8  278.65   12.49
  -8   2   0  277.36   12.42
   0   8  -2  267.77   12.51
   2   0   8  275.23   12.49
   0   2   8  289.97   12.72
   8   0   2  273.14   12.41
   0  -2   8  286.62   12.51
  -8   2   0  277.23   12.29
  -2   0   8  292.35   12.63
   8   2   1    9.07    0.55
   1  -2   8    8.10    0.83
  -1   2   8    7.77    1.03
  -2   1  -8    8.23    0.89
  -2  -1   8    9.04    0.88
   2   1   8   10.05    0.91
  -8   2  -1    9.18    0.70
  -8   2   1    9.64    1.03
  -2   1   8    9.89    1.11
  -1  -2   8    8.37    0.84
   1   8  -2    9.24    0.95
  -8   2   1    8.78    0.74
   1   2   8   10.56    0.99
   8   1   2    9.97    0.62
   2  -1   8    9.20    0.82
   2   8  -2  186.58    8.67
  -2  -2   8  196.51    8.74
  -2   2  -8  190.89    8.72
   2   2   8  189.58    8.80
  -8   2   2  176.34    8.75
  -8   2  -2  197.07    8.54
  -8   2   2  184.11    8.62
   8   2   2  194.40    8.48
  -2   2   8  209.87    9.24
   2  -2   8  204.82    8.76
   0  -3   8   55.39    2.77
  -8   3   0   50.44    3.17
   0   3   8   57.10    3.20
   3   0   8   55.80    2.77
  -3   0   8   55.62    2.95
  -3   0  -8   55.94    2.83
   8   3   1    4.05    0.31
   3   1   8    3.63    0.56
  -3   1  -8    4.52    0.68
  -3  -1   8    4.61    0.66
   8  -1   3    4.00    0.48
  -8   1   3    3.75    0.41
   1  -3   8    4.27    0.59
  -1   3   8    4.62    1.09
  -8   3  -1    2.67    0.87
  -1  -3   8    3.87    0.57
   1   8  -3    3.82    0.61
   3  -1   8    4.57    0.55
   1   3   8    4.02    0.75
   8   1   3    4.06    0.48
  -3   1   8    4.61    0.89
  -8   3   1    5.22    0.74
   2  -3   8   31.32    1.68
  -3   2  -8   29.24    1.73
   3   8  -2   29.04    1.61
  -2   3   8   26.52    2.37
  -8   2   3   26.30    1.89
  -3  -2   8   28.88    1.69
  -8   3  -2   28.00    1.62
   3   2   8   28.07    1.69
   8   3   2   29.45    1.37
  -8   2   3   24.67    1.86
   8   2   3   28.78    1.43
  -3   2   8   28.14    2.32
   2   8  -3   29.72    1.66
  -8   3   2   25.95    2.04
  -8   2  -3   29.72    1.55
   3  -2   8   29.67    1.68
  -2  -3   8   29.49    1.67
  -8   3   2   32.02    1.81
   2   3   8   31.18    1.89
  -3   3   8    2.49    1.07
   3   3   8    2.69    0.61
  -8   3  -3    3.01    0.63
  -8   3   3    3.75    1.05
   8   3   3    3.90    0.40
   3   8  -3    3.70    0.59
  -3  -3   8    4.40    0.60
  -8   3   3    4.16    0.80
   4   0   8  315.53   13.89
   0   4   8  285.74   14.43
   0  -4   8  308.45   13.88
  -4   0   8  324.40   14.10
  -4   0  -8  310.53   13.90
  -8   4   0  322.96   14.02
   1  -4   8    0.64    0.38
  -8   4  -1    0.04    0.63
   4   1   8    0.17    0.37
  -8   1   4    1.12    0.59
  -4  -1   8    0.21    0.46
  -4   1  -8    0.42    0.57
  -1   4   8   -1.18    1.03
   4   8  -1    0.51    0.37
   8  -1   4    0.12    0.32
  -8   1   4    0.06    0.49
   4  -1   8   -0.47    0.37
  -4   1   8   -0.15    0.80
   8   1   4    0.60    0.28
  -1  -4   8    0.44    0.39
   1   4   8    0.47    0.71
  -8   4   1    1.00    0.93
   8   4  -1    0.48    0.21
  -8   2   4   85.29    4.46
   2  -4   8   90.66    4.64
   8   4   2   88.30    3.96
  -8   2   4   79.31    4.46
  -4  -2   8   95.16    4.31
   4   8  -2   92.32    4.16
  -8   4  -2   96.04    4.37
   8  -2   4   96.08    4.22
  -2   4   8   77.55    5.08
  -4   2  -8   92.08    4.33
   4   2   8   89.03    4.28
   8   4  -2   91.04    4.01
   2   8  -4   86.12    4.23
   4  -2   8   89.77    4.50
  -4   2   8   80.51    4.91
  -8   2  -4   93.24    4.18
  -8   4   2   85.85    4.77
   2   4   8   93.11    4.65
  -2  -4   8   90.25    4.26
   8   2   4   88.09    4.07
   8   4   3    0.86    0.27
  -8   4  -3    0.76    0.65
  -8   3   4    1.68    0.77
  -3   4   8   -0.53    1.05
   3  -4   8    0.55    0.40
   8   3  -4    1.44    0.44
   4   8  -3    1.72    0.49
  -4  -3   8    0.29    0.47
   4   3   8    0.86    0.50
  -8   4   3    1.43    0.54
  -8   4   3    1.11    1.10
  -4   3   8    0.85    1.19
  -8   3  -4    0.97    0.56
   3   4   8    1.74    0.70
  -3  -4   8    0.31    0.44
   8   3   4    0.69    0.28
   8   4  -3    0.94    0.34
   3   8  -4    1.25    0.51
   4  -3   8    1.02    0.43
   4   8  -4  375.01   16.97
   8   4  -4  374.04   16.88
  -8   4   4  391.09   17.14
  -4  -4   8  373.76   17.01
  -8   4  -4  392.49   17.10
  -4   4   8  392.16   17.67
   4  -4   8  384.24   17.09
   4   4   8  386.87   17.18
   8   4   4  389.56   16.84
  -8   5   0    0.23    1.11
   0   5   8    0.68    0.90
  -8   0   5    0.73    0.38
   5   0   8    0.38    0.36
  -5   0   8    1.19    0.71
   0  -5   8    0.16    0.40
   8   0   5    0.39    0.44
  -1   5   8    9.71    1.46
  -8   1   5   10.78    1.09
   8  -1   5   12.15    0.89
  -8   5  -1   14.57    1.76
   5   8  -1   10.94    0.88
  -5  -1   8   10.61    1.20
  -5   1  -8   11.52    1.29
   5   1   8   11.36    0.95
   1  -5   8   11.28    0.99
  -8   5   1    9.10    1.60
  -5   1   8   11.03    1.40
   8   1   5   10.90    0.83
  -1  -5   8   10.58    0.97
   1   5   8    9.62    2.18
   8   5   2    7.13    0.46
   2  -5   8    6.38    0.77
   8  -2   5    7.58    0.81
   5   8  -2    6.97    0.82
  -2   5   8    6.74    1.30
  -5  -2   8    6.36    0.84
  -8   5  -2    9.13    1.16
  -5   2  -8    6.32    0.91
  -8   2   5    3.71    1.04
   5   2   8    6.77    0.80
   2   5   8    4.58    1.97
  -5   2   8    6.97    1.42
   8   5  -2    6.93    0.75
   5  -2   8    7.00    0.80
   8   2   5    6.02    0.60
  -8   5   2    8.17    1.54
  -2  -5   8    5.84    0.73
  -8   5  -3    2.85    0.96
   3  -5   8    2.10    0.54
  -3   5   8    3.36    1.04
  -5  -3   8    1.95    0.62
   8   5   3    2.23    0.32
   5   8  -3    1.47    0.53
   8   3  -5    3.27    0.60
   5   3   8    1.85    0.51
  -8   3   5    1.83    0.85
   5  -3   8    1.95    0.50
  -3  -5   8    1.07    0.53
   8   3   5    1.48    0.38
   3   5   8    3.52    1.13
  -8   5   3    3.17    1.21
   8   5  -3    2.35    0.41
  -5   3   8    0.87    1.09
  -8   3  -5    2.39    0.73
   5   4   8    5.55    0.80
   8   5   4    4.07    0.45
   8   4  -5    4.24    0.64
   4  -5   8    4.95    0.72
  -4   5   8    4.78    1.10
  -5  -4   8    3.60    0.73
   5   8  -4    5.21    0.70
  -8   4   5    3.96    0.84
  -8   5  -4    5.12    1.08
  -5   4   8    6.57    1.27
  -8   4  -5    4.90    0.93
  -8   5   4    3.24    0.68
   8   5  -4    4.13    0.56
   4   5   8    3.94    1.25
  -4  -5   8    4.90    0.73
   8   4   5    4.48    0.54
   5  -4   8    2.76    0.56
   8   5   5    3.82    0.54
   5   5   8    1.01    1.28
   8   5  -5    3.83    0.67
  -5   5   8    3.85    0.99
   5  -5   8    2.12    0.60
  -8   5   5    2.51    0.76
  -8   0   6   92.81    4.48
   0   6   8   98.72    5.28
   0  -6   8  100.43    4.62
  -8   6   0   84.63    5.33
  -6   0   8   98.42    4.91
   6   0   8   93.24    4.70
   8   0   6  101.11    4.51
  -6   1  -8   12.60    1.54
   1  -6   8   11.83    1.07
  -8   1   6    8.31    1.16
  -8   6  -1    7.01    1.56
   6   8  -1   11.13    0.92
   8  -1   6    9.77    0.92
  -1   6   8   13.40    1.57
  -6  -1   8   11.73    1.23
   6   1   8   11.58    1.08
  -6   1   8    9.73    1.47
   1   6   8    9.68    1.61
   8   6  -1   10.05    0.61
   8   1   6   10.48    0.90
   6  -1   8   10.72    0.98
  -1  -6   8   12.35    1.07
   6   2   8   83.30    3.88
  -8   2   6   71.55    4.31
  -6  -2   8   81.48    3.96
  -2   6   8   92.83    4.43
   2  -6   8   82.12    3.95
  -6   2  -8   76.50    4.03
   8  -2   6   77.46    3.96
   6   8  -2   87.56    3.76
  -2  -6   8   82.05    3.91
   2   6   8   71.28    4.61
   8   2   6   81.06    3.77
  -8   2  -6   79.76    3.96
   8   6  -2   78.70    3.61
   6  -2   8   78.34    3.88
  -6   2   8   70.01    4.66
   8  -3   6    1.98    0.53
  -8   3   6    2.46    1.04
   8   3  -6    1.89    0.69
   8   6   3    1.85    0.37
   6   8  -3    2.65    0.56
  -3   6   8    2.38    0.85
  -6  -3   8    1.18    0.67
   6   3   8    1.89    0.57
   3  -6   8    1.58    0.54
  -6   3   8   -1.02    1.07
   8   3   6    2.04    0.46
   3   6   8    2.69    1.21
   6  -3   8    1.06    0.49
   8   6  -3    1.29    0.42
  -8   3  -6    2.83    0.89
   6   8  -4  117.47    5.73
   6   4   8  117.58    6.46
   8   6   4  123.14    5.64
   8  -4   6  126.26    5.88
   8   4  -6  134.79    6.09
  -4   6   8  124.87    6.15
   4  -6   8  125.04    5.92
   8   4   6  122.57    5.72
  -6   4   8  130.32    6.35
   6  -4   8  121.69    5.89
  -8   4  -6  124.80    6.05
   8   6  -4  133.01    6.08
  -8   6   4  126.35    5.96
  -8   5   6    5.15    0.91
  -5   6   8    5.63    0.94
   8   6   5    5.17    0.65
   6   5   8    4.99    0.81
   5  -6   8    5.08    0.75
   5   8   6    3.33    1.33
   8   5   6    5.11    0.69
   6  -5   8    4.93    0.80
  -6   5   8    4.03    1.03
   6   8   5    5.72    1.32
  -8   6   5    5.43    0.86
   5   6   8    5.16    1.08
   6  -6   8  106.13    4.98
  -6   6   8   98.26    5.11
   8   6   6  103.83    4.78
  -8   6   6   97.58    4.99
   6   6   8  105.49    5.07
   6   8   6   99.86    5.28
  -7   0   8    2.21    1.07
  -8   0   7    0.14    0.82
   8   0   7    2.24    0.63
   7   0   8    2.40    0.54
   0   7   8    3.91    1.02
   8  -1   7    3.73    0.63
   1   8   7    3.04    1.08
  -1   7   8    4.58    1.03
   7   1   8    2.62    0.77
  -7  -1   8    2.93    0.93
  -8   1   7    2.42    1.06
  -7   1   8    1.68    1.24
   1   7   8    1.37    1.21
   8   1   7    2.80    0.57
   7  -1   8    2.68    0.58
  -8  -1   7    1.58    0.50
  -7  -2   8    9.64    1.05
  -2   7   8   12.55    1.42
  -7   2  -8   12.11    1.42
   2   8   7   11.27    1.66
   7   2   8   11.27    1.07
  -8   2   7   10.10    1.53
   8  -2   7   11.28    1.06
   2   7   8    8.68    1.80
   8   2   7    8.87    0.96
   7  -2   8   10.59    1.06
   8  -3   7    0.85    0.58
   7   3   8    1.09    0.55
  -3   7   8    1.85    0.81
   8   7   3    1.44    0.49
   3   8   7    2.72    1.35
  -8   3   7    1.09    1.16
   8   3   7    0.77    0.50
   3   7   8    2.29    1.32
  -7   3   8    0.96    1.13
   7  -3   8    1.30    0.57
  -3   8   7    0.59    0.78
  -8   4   7    6.31    1.16
   7   4   8    6.59    0.87
  -4   7   8    8.49    1.13
   8   7   4    7.30    0.73
   4   8   7    3.92    1.58
   8  -4   7    7.14    0.88
   4   7   8    5.08    1.49
  -7   4   8    8.30    1.27
  -4   8   7    6.71    1.01
   7  -4   8    7.00    0.92
   8   4   7    7.37    0.80
  -5   7   8   10.11    1.23
   7   5   8   10.60    1.27
   8   7   5   10.12    1.22
   5   8   7   10.25    1.71
  -8   5   7    9.93    1.23
  -7   5   8    9.03    1.27
  -5   8   7    9.52    1.17
  -8   7   5    8.69    1.14
   7   8   5    7.77    1.19
   7  -5   8   10.08    1.19
   5   7   8    8.82    1.59
   8   5   7   11.87    1.21
   6   8   7    8.91    1.51
   7   6   8    9.02    1.10
  -8   6   7    6.96    1.12
  -7   8   6    7.73    1.17
  -6   7   8    8.74    1.21
   6   7   8    8.69    1.32
  -8   7   6    8.17    1.13
  -7   6   8    7.38    1.18
  -6   8   7    7.54    1.21
   7   8   6    7.99    1.19
   8   6   7    8.82    1.02
  -8   7   7   -0.05    0.90
  -7   7   8    1.47    0.96
  -7   8   7   -0.76    0.94
   7   7   8   -1.09    0.99
   0   8   8  209.29    9.43
   8   0   8  184.46    8.88
  -8   1   8    0.82    1.25
  -1   8   8   -0.50    0.82
   1   8   8   -0.77    1.27
   8  -1   8    0.39    0.57
   8   1   8   -0.28    0.54
  -8   2   8  105.90    6.72
  -2   8   8  115.18    5.75
   2   8   8  119.33    6.29
   8  -2   8  114.94    5.46
   8   2   8  116.86    5.42
  -8   3   8   -0.03    1.22
   3   8   8    2.04    1.59
   8  -3   8    0.20    0.61
   8   3   8    1.02    0.61
  -8   4   8  245.13   11.31
  -4   8   8  236.58   11.42
   8  -4   8  245.24   11.08
   8   4   8  245.07   10.96
  -8   5   8    0.58    0.95
  -8   8   5    0.47    1.03
  -5   8   8   -0.10    0.82
   5   8   8   -1.18    1.47
   8  -5   8   -1.30    0.63
   8   5   8   -0.44    0.75
  -8   6   8  114.74    5.67
  -8   8   6  118.70    5.75
  -6   8   8  109.92    5.77
   6   8   8  112.94    5.98
   8   6   8  113.95    5.52
   0   0   9    0.13    0.45
   0  -1   9    0.91    0.41
  -1   0   9    0.43    0.53
   1  -1   9    0.38    0.75
   1   9  -1    0.01    0.60
  -1  -1   9    0.02    0.42
  -2   0   9   33.83    2.13
   0   2   9   35.33    2.26
   2   0   9   30.53    2.05
  -2   0  -9   35.66    2.19
   1  -2   9    4.94    0.66
   2   9  -1    4.49    0.70
  -2  -1   9    4.41    0.66
   2   1   9    3.72    0.78
  -1   2   9    6.11    1.08
  -1  -2   9    4.62    0.67
   2  -1   9    5.24    0.66
   1   2   9    4.83    0.79
  -2   1   9    4.42    1.32
   9   1   2    4.81    0.52
   9   2   2    0.73    0.27
  -2  -2   9   -0.27    0.44
   2   2   9   -0.11    0.47
   2   9  -2   -0.32    0.56
  -9   2   2    1.07    0.37
  -9   2   2   -0.08    0.47
   2  -2   9    0.02    0.39
  -2   2   9   -0.08    0.87
  -3   0   9   14.45    1.48
  -3   0  -9   16.09    1.45
  -9   3   0   11.38    1.12
  -9   3   0   14.14    1.15
   9   0   3   13.62    0.91
   3   0   9   13.27    1.08
   0   3   9   12.39    1.51
   0  -3   9   13.98    1.13
   3   1   9    2.32    0.53
  -9   3  -1    2.76    0.58
  -1   3   9    2.41    0.92
   3   9  -1    1.96    0.61
   1  -3   9    3.29    0.60
  -3  -1   9    3.61    0.71
   9   1   3    3.13    0.42
   1   3   9    1.96    0.85
   3  -1   9    3.68    0.60
  -3   1   9    3.34    1.07
  -9   3   1    3.61    0.73
  -9   3   1    2.48    0.64
  -9   3  -2    1.91    0.60
   9   3   2    2.79    0.32
  -2   3   9    1.85    1.16
   2  -3   9    3.75    0.60
   3   2   9    3.08    0.65
  -9   2   3    2.41    0.59
  -9   2   3    2.94    0.69
  -3  -2   9    2.94    0.65
   3   9  -2    2.87    0.64
  -3   2   9    3.83    1.23
   2   3   9    3.95    0.82
   3  -2   9    2.98    0.60
  -9   3   2    3.73    1.31
  -9   3   2    3.24    0.73
  -2  -3   9    3.72    0.66
   9   2   3    2.52    0.37
  -9   3   3    1.34    1.00
  -3  -3   9    1.84    0.57
  -9   3  -3    0.09    0.73
   9   3   3    1.11    0.28
  -9   3   3    1.50    0.78
  -3   3   9   -2.50    1.17
   3  -3   9    0.31    0.41
   3   3   9    0.48    0.58
   3   9  -3    0.22    0.62
   0   4   9   -0.96    0.96
   9   0   4   -0.20    0.33
   4   0   9   -0.18    0.41
   0  -4   9    0.20    0.44
  -4   0   9   -0.73    0.76
  -9   4   0    0.86    0.87
   4   9  -1    0.50    0.53
   4   1   9    1.50    0.48
   1  -4   9    0.27    0.44
  -4  -1   9    0.90    0.65
  -1   4   9    0.38    1.10
   9  -1   4    0.76    0.43
  -9   4  -1    2.08    0.84
  -1  -4   9    0.92    0.48
  -9   4   1   -0.87    1.02
   9   1   4    0.49    0.36
   1   4   9    0.12    0.91
   4  -1   9    0.59    0.48
  -4   1   9    0.49    1.00
   4   2   9    4.19    0.68
  -9   2   4    2.12    0.79
  -4  -2   9    3.09    0.75
  -9   2   4    1.51    0.78
   4   9  -2    3.55    0.66
  -9   4  -2    3.28    0.89
   2  -4   9    3.96    0.68
   9   4   2    4.17    0.39
   9  -2   4    4.23    0.59
  -2   4   9    3.06    1.26
  -2  -4   9    3.73    0.73
   2   4   9    3.86    0.92
   4  -2   9    3.68    0.64
  -9   4   2    3.99    0.68
  -4   2   9    2.63    1.32
  -9   2  -4    2.80    0.62
  -9   4   2    5.39    1.35
   9   2   4    3.46    0.45
   4   9  -3   11.04    1.18
   4   3   9   10.83    1.16
  -9   3   4    8.72    1.15
   3  -4   9   10.03    1.06
  -3   4   9   10.02    1.71
   9   4   3    9.35    0.67
  -9   3   4   15.01    1.61
  -4  -3   9   10.92    1.09
  -9   4  -3   11.18    1.20
  -4   3   9    8.09    1.70
  -3  -4   9   11.36    1.17
   3   4   9    8.47    1.16
   9   3   4    9.59    0.76
   4  -3   9    8.88    1.02
  -9   4   3   10.90    1.62
  -9   4   3   11.73    1.19
  -9   3  -4   10.90    1.10
  -9   4  -4    0.43    1.02
  -4   4   9    1.74    1.18
   9   4   4    0.30    0.34
  -4  -4   9    1.12    0.64
   4   4   9    0.17    0.69
   4  -4   9   -0.19    0.46
  -9   4   4   -1.21    1.32
  -9   4   4    1.16    0.70
  -5   0   9    6.34    1.30
   9   0   5    4.85    0.58
   0   5   9    2.50    1.26
  -9   5   0    4.79    1.51
   0  -5   9    3.75    0.66
   5   0   9    4.94    0.69
  -5  -1   9   -0.12    0.76
   5   9  -1    0.58    0.53
   5   1   9    0.59    0.50
   1  -5   9    0.09    0.47
  -5   1  -9    1.94    0.95
  -9   5  -1    1.54    1.20
   9  -1   5    0.36    0.45
  -9   1   5    0.40    0.48
  -1   5   9    0.53    1.04
   1   5   9    0.24    1.11
   5  -1   9    0.50    0.53
   9   1   5    0.17    0.41
  -9   5   1    0.97    1.57
  -5   1   9   -0.04    1.18
  -1  -5   9    1.11    0.54
   5   9  -2   10.98    1.17
  -9   2   5    9.90    1.26
   5   2   9   10.67    1.11
  -9   5  -2   11.43    1.55
   2  -5   9   10.08    1.08
  -2   5   9   12.87    1.76
  -5  -2   9   12.20    1.26
  -5   2   9    6.81    1.61
  -9   5   2    9.83    1.84
   2   5   9    8.81    1.51
  -2  -5   9   11.24    1.23
   9   5  -2   11.67    0.82
   9   2   5   11.69    0.88
   5  -2   9   12.17    1.10
  -5  -3   9   -0.02    0.74
  -3   5   9    0.83    1.04
  -9   3   5   -0.55    0.89
  -9   5  -3   -1.70    1.11
   5   3   9    1.34    0.62
   3  -5   9    0.13    0.55
   9   5   3    0.42    0.28
  -3  -5   9    0.14    0.67
   3   5   9    1.72    1.00
  -9   5   3    0.02    1.65
  -9   5   3    0.62    0.57
   9   3   5   -0.33    0.39
   5  -3   9    0.28    0.51
  -5   3   9   -0.21    1.40
   9   5   4    2.02    0.45
  -4   5   9    1.94    1.00
   4  -5   9    2.05    0.64
  -9   4   5    0.35    0.74
   5   4   9    1.93    0.73
  -5  -4   9    2.30    0.88
  -4  -5   9    2.49    0.80
  -9   5   4    2.90    1.13
   5  -4   9    2.30    0.63
  -5   4   9    3.30    1.23
   4   5   9    1.53    0.96
   9   4   5    2.02    0.47
   9   5   5   -0.46    0.47
  -5   5   9   -0.72    0.96
   5   5   9    1.00    0.79
  -9   5   5    0.92    0.74
   0   6   9    5.77    1.42
   0  -6   9    9.34    0.99
  -6   0   9    8.42    1.40
   6   0   9    9.05    0.94
   9   0   6    8.95    0.93
   6   1   9    1.87    0.58
  -1   6   9    2.95    1.20
  -9   1   6    1.98    0.79
   1  -6   9    2.37    0.65
  -6  -1   9    0.58    1.04
  -6   1  -9    2.95    1.15
   9  -1   6    1.77    0.54
  -6   1   9    0.45    1.27
  -1  -6   9    1.67    0.67
   9   1   6    1.16    0.51
   6  -1   9    1.26    0.58
   1   6   9    1.53    1.32
   6   2   9    5.67    0.81
   2  -6   9    7.02    0.86
  -6  -2   9    7.75    1.21
  -9   2   6    5.48    1.25
  -2   6   9    7.87    1.42
  -2  -6   9    7.06    0.93
  -6   2   9    6.23    1.64
   9   2   6    6.11    0.73
   2   6   9    5.91    1.62
   6  -2   9    5.19    0.80
  -9   3   6    1.17    0.97
  -6  -3   9    2.03    0.92
   6   3   9   -0.50    0.58
   9  -3   6    0.08    0.58
   3  -6   9    0.80    0.61
  -3   6   9   -0.36    0.89
   9   3   6   -1.19    0.49
  -6   3   9    0.27    1.37
   3   6   9    1.59    1.28
   6  -3   9    0.04    0.50
  -9   4   6    4.61    1.16
   4  -6   9    2.60    0.74
  -4   6   9    2.06    0.98
   6   4   9    2.47    0.78
   6  -4   9    0.96    0.60
  -9   6   4    2.22    0.74
  -6   4   9    1.88    1.19
   9   4   6    1.56    0.56
   4   6   9    0.87    1.25
   6   5   9    0.74    0.77
  -9   5   6    0.64    0.82
  -5   6   9   -0.66    0.87
   5   9   6    0.56    1.46
  -9   6   5    0.35    0.76
   9   5   6    0.12    0.59
   6  -5   9   -0.63    0.64
   5   6   9    0.54    1.04
  -6   5   9   -0.17    0.97
   6   9   6   -0.01    1.41
   6   6   9    1.35    1.01
  -9   6   6    0.89    0.87
  -6   6   9    1.32    0.95
  -7   0   9    1.32    1.28
   9   0   7    0.45    0.54
   7   0   9    0.44    0.59
   0   7   9    3.71    1.23
  -9   1   7    2.13    1.35
  -7  -1   9    0.93    1.25
  -1   7   9    1.28    1.03
   9  -1   7    1.92    0.58
  -7   1   9    3.28    1.52
   7  -1   9    2.35    0.63
   1   7   9    1.83    1.34
   9   1   7    2.56    0.61
   9  -2   7    0.76    0.83
  -9   2   7    0.93    1.18
  -7  -2   9    1.43    1.12
  -2   7   9    2.24    0.94
   7   2   9    1.10    0.63
   2  -7   9    0.79    0.66
   2   7   9    2.37    1.57
   9   2   7   -0.23    0.93
   7  -2   9    0.45    0.60
  -7   2   9    2.41    1.55
   7   3   9    5.80    0.90
  -3   7   9    5.93    1.49
   9  -3   7    6.99    0.90
   3   9   7    4.03    1.53
  -9   3   7    4.72    1.23
   7  -3   9    5.85    0.85
   9   3   7    4.61    0.90
   3   7   9    4.09    1.80
  -7   3   9    4.87    1.57
   4   9   7   -0.98    1.43
   9  -4   7    0.54    0.66
  -4   7   9    2.18    0.95
   7   4   9    0.65    0.76
  -9   4   7    0.83    1.06
  -7   4   9   -0.66    1.18
   9   4   7    1.56    0.69
  -9   7   4    0.72    0.89
   7  -4   9    2.04    0.79
   4   7   9    1.73    1.62
   5   9   7    0.68    1.59
  -5   7   9    1.64    0.96
   7   5   9    2.88    0.92
  -9   5   7    0.94    0.93
  -9   7   5    1.67    0.96
  -7   5   9    0.31    1.06
  -5   9   7    1.56    1.02
   7  -5   9    2.11    1.12
   5   7   9    3.74    1.40
   8   0   9   13.55    1.38
   9   0   8   10.90    1.11
   0   8   9   11.30    1.68
   0   9   8   11.30    1.50
   8   1   9    0.68    0.71
  -1   8   9    1.46    1.07
   9  -1   8   -1.36    0.64
   1   9   8    1.57    1.18
   1   8   9    3.13    1.45
   8  -1   9    1.17    0.73
  -1   9   8    1.01    1.04
   9   1   8    1.36    0.68
   8   2   9    3.72    0.90
  -2   8   9    4.52    1.16
   9  -2   8    5.90    0.91
  -9   2   8    4.92    2.00
  -2   9   8    7.01    1.19
   8  -2   9    5.92    0.94
  -8   2   9    4.34    1.63
   9   2   8    5.93    0.91
   2   8   9    8.56    1.85
  -9   3   8    1.56    1.32
   9  -3   8   -0.08    0.75
   3   9   8    0.30    1.61
  -3   8   9   -0.89    1.13
   8   3   9    1.20    0.81
   3   8   9   -1.17    1.88
   9   3   8   -1.30    0.79
   8  -3   9   -0.41    0.70
  -8   3   9   -0.33    1.46
  -9   4   8    1.01    1.22
  -4   8   9    1.56    1.52
   9  -4   8    0.90    0.78
   4   9   8   -1.30    1.69
   8   4   9    0.87    0.85
   4   8   9   -5.05    1.86
   9   4   8    1.80    0.88
   8  -4   9    0.12    0.76
  -8   4   9    0.64    1.30
   0   9   9    6.10    1.45
   9   0   9    7.37    1.13
  -1   9   9   -1.79    1.71
   1   9   9   -0.17    1.51
   9  -1   9   -0.37    0.82
   9   1   9    1.68    0.85
   0   0  10   76.20    3.91
   0  -1  10    5.38    0.73
   0   1  10    4.36    0.83
   1   0  10    4.90    0.80
  -1   0  10    5.18    0.81
   1  -1  10    7.78    0.94
  -1   1  10    7.39    1.11
  -1  -1  10    5.15    0.78
   1   1  10    7.37    0.97
  -2   0  10   96.50    4.88
   0  -2  10   89.84    4.63
   2   0  10   95.33    4.64
   0   2  10   98.84    4.98
  -1   2  10    6.24    1.25
   2   1  10    3.95    0.74
  -2  -1  10    5.92    0.94
   1  -2  10    6.64    0.84
  -2   1  10    5.50    1.29
   2  -1  10    5.36    0.75
  -1  -2  10    4.91    0.78
   1   2  10    4.89    0.94
  -2   2  10  152.24    7.76
  -2  -2  10  153.24    7.17
   2  -2  10  154.19    7.12
   2   2  10  149.28    7.23
 -10   3   0   19.05    1.51
   0   3  10   27.74    2.31
   3   0  10   24.82    1.57
  -3   0  10   24.51    2.03
   0  -3  10   24.34    1.59
 -10   3   0   17.04    1.43
   1  -3  10    4.79    0.75
  -1   3  10    6.35    1.41
   3   1  10    5.27    0.76
  -3  -1  10    4.96    0.97
  -1  -3  10    6.57    0.88
  -3   1  10    7.03    1.45
 -10   3   1    4.46    0.71
   1   3  10    4.54    1.08
  10   1   3    4.97    0.55
   3  -1  10    4.37    0.75
   3   2  10    0.56    0.59
  -3  -2  10   -0.24    0.70
  -2   3  10    1.54    1.33
  10   3   2    0.55    0.32
   2  -3  10    0.16    0.49
 -10   3   2    0.92    0.68
  -2  -3  10    0.92    0.65
  -3   2  10   -0.87    1.26
   3  -2  10    1.43    0.61
   2   3  10   -0.09    0.73
  10   2   3    0.36    0.35
   3   3  10   31.39    2.07
   3  -3  10   28.83    1.81
  -3   3  10   24.97    2.79
  -3  -3  10   30.27    1.98
 -10   3   3   23.00    1.86
  10   3   3   27.26    1.43
 -10   4   0  195.44    8.51
  10   0   4  189.42    8.49
   4   0  10  191.35    8.69
   0  -4  10  185.58    8.70
   0   4  10  176.36    9.38
  -4   0  10  192.24    9.13
   4   1  10    7.47    0.89
   1  -4  10    6.40    0.84
  -1   4  10    2.72    1.32
  -4  -1  10    6.80    1.21
   1   4  10    7.01    1.46
  -4   1  10    8.21    1.59
   4  -1  10    6.06    0.79
  -1  -4  10    6.18    0.84
 -10   4   1    7.01    0.82
  10   1   4    6.56    0.80
   2  -4  10  171.62    7.65
  10   4   2  170.56    7.23
  -2   4  10  136.34    8.34
  -4  -2  10  170.69    7.81
   4   2  10  159.34    7.64
 -10   4   2  176.80    7.50
   2   4  10  176.78    8.10
  -4   2  10  139.73    8.39
   4  -2  10  162.65    7.62
  10   2   4  161.89    7.33
  -2  -4  10  162.92    7.64
  -3   4  10    2.53    1.45
   4   3  10    4.34    0.85
  10   4   3    4.25    0.49
   3  -4  10    3.28    0.69
 -10   3   4    3.70    0.95
  -4  -3  10    3.19    1.00
  10   3   4    4.64    0.54
   3   4  10    3.79    1.11
   4  -3  10    4.92    0.82
  -4   3  10    5.15    1.74
  -3  -4  10    3.57    0.89
 -10   4   3    5.01    0.91
  -4   4  10  135.06    7.28
 -10   4   4  137.59    6.42
   4   4  10  136.11    6.66
  -4  -4  10  135.87    6.56
  -5   0  10    6.87    1.48
  10   0   5    8.54    0.98
   0  -5  10    8.04    1.00
   0   5  10   10.61    1.89
   5   0  10    6.31    0.98
  -5  -1  10    4.40    1.34
   1  -5  10    5.67    0.86
  10  -1   5    5.19    0.72
  -1   5  10    4.63    1.43
   5   1  10    5.08    0.79
  -1  -5  10    4.56    0.83
  10   1   5    5.66    0.65
   1   5  10    4.22    1.45
  -5   1  10   -0.16    1.51
   5  -1  10    5.58    0.88
  -2   5  10    1.25    1.33
  -5  -2  10   -1.52    1.09
   5   2  10    0.36    0.59
   2  -5  10    0.51    0.61
  -5   2  10    1.71    1.67
  -2  -5  10    0.20    0.70
   5  -2  10    1.43    0.60
   2   5  10   -0.67    1.23
  10   2   5    0.54    0.47
 -10   5   2    0.03    0.61
   5   3  10    4.46    0.88
  -3   5  10    3.93    1.33
 -10   3   5    3.83    1.17
   3  -5  10    3.90    0.77
  10   3   5    4.17    0.59
   5  -3  10    4.37    0.80
 -10   5   3    4.33    0.82
  -3  -5  10    4.27    1.00
  -5   3  10    2.65    1.71
   3   5  10    2.55    1.33
  -4   5  10    6.13    1.36
 -10   4   5    4.77    1.03
   4  -5  10    5.64    1.18
  -5  -4  10    4.88    1.21
  -4  -5  10    5.26    1.21
   5  -4  10    6.10    0.90
  -5   4  10    3.24    1.62
   4   5  10    5.90    1.25
  -5   5  10   11.49    1.73
   5   5  10    8.75    1.35
 -10   5   5   11.21    1.19
   0  -6  10  128.61    5.81
  -6   0  10  111.33    6.41
   6   0  10  124.93    5.75
  10   0   6  125.65    5.60
   0   6  10  100.31    6.54
  10  -1   6    5.56    0.84
  -6  -1  10    3.08    1.48
   6   1  10    5.00    0.86
  -1   6  10    7.87    1.59
   1  -6  10    4.34    0.89
  -6   1  10    5.14    1.68
   1   6  10    3.47    1.66
  -1  -6  10    3.93    0.91
   6  -1  10    5.74    0.88
   2  -6  10  202.98    9.11
  10  -2   6  202.35    8.95
   6   2  10  204.73    9.06
  10   2   6  203.75    8.85
   2   6  10  172.06    9.81
  -6   2  10  174.80    9.84
  -2  -6  10  199.17    9.08
   6  -2  10  197.25    9.04
   6   3  10    4.28    0.89
  -6  -3  10    2.54    1.30
   3  -6  10    2.77    0.81
  -3   6  10    4.48    1.28
  -3  -6  10    3.77    1.11
  -6   3  10    3.38    1.73
  10   3   6    3.26    0.70
   3   6  10    2.95    1.73
 -10   6   3    3.62    0.83
   6  -3  10    3.33    0.76
  -4   6  10   75.72    4.23
   4  -6  10   69.52    3.81
   6   4  10   69.64    3.85
   6  -4  10   73.22    3.77
   4   6  10   68.78    4.55
  -6   4  10   79.29    4.46
 -10   6   4   67.46    3.67
 -10   5   6    9.54    1.21
   6   5  10   10.94    1.45
  -5   6  10    7.17    1.42
 -10   6   5    8.92    1.18
  -6   5  10    8.27    1.48
   5   6  10   10.61    1.64
   7   0  10   -1.17    0.72
  -7   0  10   -2.68    1.62
   0  -7  10    0.91    0.87
   0   7  10    0.45    1.43
  10   0   7    0.89    0.71
   1  -7  10    3.40    0.88
  -1   7  10    0.12    1.26
  10  -1   7    2.57    0.75
   7   1  10    3.32    0.87
   7  -1  10    3.19    0.86
  -7   1  10    2.85    1.88
   1   7  10    1.30    1.67
  10   1   7    2.89    0.74
   7   2  10    8.44    1.05
   2  -7  10   10.53    1.22
  10  -2   7   11.15    1.36
  10   2   7    9.23    1.06
   7  -2  10   10.03    1.11
   2   7  10    7.73    2.05
  -7   2  10    8.58    1.99
  -3   7  10    0.37    1.25
   3  10   7    0.36    1.50
  10  -3   7    0.92    0.79
   7   3  10    0.33    0.83
   3  -7  10   -0.10    0.78
   7  -3  10    0.67    0.78
  10   3   7    0.25    0.76
 -10   7   3   -2.37    0.91
  -7   3  10    3.44    1.62
   3   7  10    0.04    2.24
   0   8  10   85.80    5.11
  10   0   8   76.75    4.02
   0  10   8   77.68    4.55
   8   0  10   78.43    4.08
   0   0  11    0.45    0.71
   0  -1  11    2.77    0.78
   0   1  11    1.14    0.88
   1   0  11    2.03    0.78
  -1   0  11    2.16    0.95
  -1  -1  11    1.00    0.76
   1  -1  11    0.30    0.60
  -1   1  11   -1.80    0.91
   1   1  11    0.05    0.75
   0   2  11   15.75    1.88
   2   0  11   17.05    1.50
   0  -2  11   16.75    1.59
  -2   0  11   16.48    1.97
   1  -2  11    3.20    0.80
   2   1  11    3.80    0.82
  -2  -1  11    2.91    0.94
  -1   2  11    4.66    1.32
   1   2  11    4.16    1.12
  -2   1  11    3.90    1.36
  -1  -2  11    2.37    0.84
  -2   2  11    3.07    1.50
   2  -2  11    0.42    0.62
   2   2  11    1.53    0.83
  -2  -2  11    0.32    0.87
   3   0  11    3.30    0.75
  -3   0  11    3.65    1.26
   0  -3  11    6.14    0.90
  -3  -1  11    1.64    1.11
   1  -3  11    3.86    0.73
   3   1  11    1.52    0.73
  -3   1  11    3.16    1.49
   3  -1  11    1.92    0.66
  -1  -3  11    3.40    0.80
   1   3  11    2.52    1.02
   3   2  11    7.09    1.09
   2  -3  11    7.51    1.00
  -3  -2  11    8.92    1.34
  -2   3  11    5.67    1.94
   2   3  11   10.92    1.55
  -2  -3  11    8.42    1.18
  -3   2  11    8.82    2.12
  -3   3  11   -2.43    1.73
   3   3  11   -0.50    0.92
  -3  -3  11   -0.62    0.98
   0   4  11    3.80    1.71
   4   0  11    3.13    0.84
  -4   0  11    4.92    1.55
   0  -4  11    3.88    0.87
   1  -4  11    0.02    0.70
  -4  -1  11   -0.91    1.24
   4   1  11    1.02    0.72
  -4   1  11    0.80    1.61
  -1  -4  11    1.67    0.83
   1   4  11    0.74    1.43
  11   1   4    0.52    0.52
   4  -1  11    0.25    0.67
   4   2  11    5.28    0.99
   2  -4  11    5.96    0.98
  -2   4  11    6.03    1.94
  -4  -2  11    5.39    1.43
   2   4  11    4.25    1.33
  -2  -4  11    4.97    1.08
   4  -2  11    6.85    0.94
  -4   2  11    4.64    2.04
  11   2   4    5.24    0.68
  -4  -3  11    3.85    1.35
   3  -4  11    3.31    0.88
   4   3  11    5.81    1.08
  -3   4  11    5.48    1.95
   3   4  11    4.31    1.22
  -4   3  11    1.36    1.99
  -3  -4  11    3.18    1.11
  -4  -4  11    0.95    1.26
   4   4  11    2.07    1.18
  -4   4  11   -0.66    1.81
   4  -4  11   -0.87    0.72
   0   5  11    2.96    1.81
   5   0  11    5.49    0.94
  11   0   5    6.01    0.81
   0  -5  11    7.11    1.08
  -5   0  11    6.89    1.96
  -5  -1  11    3.28    1.62
   1  -5  11    0.60    0.77
   5   1  11    1.18    0.74
   5  -1  11    1.06    0.69
   1   5  11   -0.13    1.88
  11   1   5    0.19    0.67
  -5   1  11    4.10    2.01
  -1  -5  11    1.17    0.89
   2  -5  11   10.86    1.27
  -5  -2  11   14.71    1.96
   5   2  11   11.78    1.32
   5  -2  11    9.54    1.15
  -5   2  11    7.05    2.18
   2   5  11   13.65    2.23
  -2  -5  11   10.78    1.37
   5   3  11    0.03    0.90
  -5  -3  11    1.21    1.59
   3  -5  11    0.99    0.84
  -3   5  11    1.82    1.59
  -3  -5  11    0.76    1.23
  -5   3  11    1.91    1.95
   5  -3  11    1.17    0.80
   3   5  11    0.83    1.52
  -4   5  11   -1.08    1.63
   5   4  11   -0.23    1.15
   4   5  11   -1.88    1.33
  -4  -5  11   -1.25    1.48
  -5   4  11   -1.53    1.69
  -6   0  11    5.93    2.14
   0  -6  11    8.81    1.27
  11   0   6   10.04    1.07
   6   0  11    9.59    1.17
  -6  -1  11   -1.38    1.96
  11  -1   6    0.26    0.70
   6   1  11   -0.86    0.87
   1  -6  11   -2.02    0.86
  -1  -6  11    0.11    1.05
   1   6  11    1.65    1.93
   6  -1  11    2.81    0.85
  11   1   6    0.57    0.74
  -6   1  11   -0.82    2.05
  -6  -2  11   -4.20    1.90
   6   2  11    1.80    1.01
   2  -6  11   -1.09    0.95
  -2  -6  11    0.59    1.18
  -6   2  11   -3.80    1.89
   6  -2  11    0.21    0.82
   2   6  11    1.03    2.13
   0   0  12  341.77   15.69
   0  -1  12   -0.17    0.93
   0   1  12    2.53    1.15
  -1   0  12    3.13    1.24
  -1   1  12    2.88    1.30
  -1  -1  12    4.10    1.34
   1  -1  12    2.16    0.98
   0  -2  12  121.68    6.29
  -2   0  12  133.43    6.83
  -2  -1  12   -2.21    1.27
   1  -2  12    0.49    0.88
  -1   2  12    0.96    1.54
  -1  -2  12   -0.08    1.02
  -2   1  12    1.58    1.52
  -2  -2  12  106.76    5.48
  -2   2  12   97.39    6.19
   2   2  12  103.96    5.35
   2  -2  12   95.41    5.11
   0  -3  12    9.05    1.26
  -3   0  12    8.31    1.99
   3   0  12    9.29    1.21
  -1   3  12    4.28    2.05
   3   1  12    0.06    0.85
  -3  -1  12   -1.43    1.49
   1  -3  12    1.12    0.91
   1   3  12   -0.79    1.42
  -3   1  12    2.83    1.90
  -1  -3  12   -0.33    1.02
   2  -3  12   11.26    1.34
  -3  -2  12   15.44    2.07
  -2   3  12   16.01    2.81
   3   2  12   16.11    1.91
  -3   2  12    9.76    2.36
   3  -2  12   16.01    1.64
  -2  -3  12   14.39    1.77
  -3   3  12    6.59    2.40
   3   3  12    3.73    1.31
  -3  -3  12    4.55    1.65
  -4   0  12  132.48    7.56
   0  -4  12  136.79    6.68
  -4  -1  12    1.28    1.82
   4   1  12   -0.50    0.88
   1  -4  12   -0.79    0.94
  -4   1  12   -1.00    2.02
  -1  -4  12    0.47    1.10
   4   2  12   70.31    4.00
  -4  -2  12   79.02    4.74
  -4   2  12   47.12    5.29
  -2  -4  12   64.34    4.00
   0   0   0    0.00    0.00
;
_shelx_hkl_checksum              20380
#END Tags that were not found in dictionaries
loop_
_space_group_symop_operation_xyz
'x, y, z'
'-x, -y, z'
'-x, y, -z'
'x, -y, -z'
'z, x, y'
'z, -x, -y'
'-z, -x, y'
'-z, x, -y'
'y, z, x'
'-y, z, -x'
'y, -z, -x'
'-y, -z, x'
'y+1/2, x+1/2, -z+1/2'
'-y+1/2, -x+1/2, -z+1/2'
'y+1/2, -x+1/2, z+1/2'
'-y+1/2, x+1/2, z+1/2'
'x+1/2, z+1/2, -y+1/2'
'-x+1/2, z+1/2, y+1/2'
'-x+1/2, -z+1/2, -y+1/2'
'x+1/2, -z+1/2, y+1/2'
'z+1/2, y+1/2, -x+1/2'
'z+1/2, -y+1/2, x+1/2'
'-z+1/2, y+1/2, x+1/2'
'-z+1/2, -y+1/2, -x+1/2'
'-x, -y, -z'
'x, y, -z'
'x, -y, z'
'-x, y, z'
'-z, -x, -y'
'-z, x, y'
'z, x, -y'
'z, -x, y'
'-y, -z, -x'
'y, -z, x'
'-y, z, x'
'y, z, -x'
'-y-1/2, -x-1/2, z-1/2'
'y-1/2, x-1/2, z-1/2'
'-y-1/2, x-1/2, -z-1/2'
'y-1/2, -x-1/2, -z-1/2'
'-x-1/2, -z-1/2, y-1/2'
'x-1/2, -z-1/2, -y-1/2'
'x-1/2, z-1/2, y-1/2'
'-x-1/2, z-1/2, -y-1/2'
'-z-1/2, -y-1/2, x-1/2'
'-z-1/2, y-1/2, -x-1/2'
'z-1/2, -y-1/2, -x-1/2'
'z-1/2, y-1/2, x-1/2'
loop_
_atom_site_label
_atom_site_type_symbol
_atom_site_fract_x
_atom_site_fract_y
_atom_site_fract_z
_atom_site_U_iso_or_equiv
_atom_site_adp_type
_atom_site_occupancy
_atom_site_site_symmetry_order
_atom_site_calc_flag
_atom_site_refinement_flags_posn
_atom_site_refinement_flags_adp
_atom_site_refinement_flags_occupancy
Y1 Y 0.2500 0.5000 0.0000 0.0080(4) Uani 1 8 d S T P
Os1 Os 0.2500 0.2500 0.2500 0.0051(2) Uani 1 6 d S T P
Ge1 Ge 0.0000 0.0000 0.0000 0.040(3) Uani 0.66(3) 24 d S T P
Ge2 Ge 0.0000 0.3093(2) 0.15017(16) 0.0260(4) Uani 1 2 d S T P
loop_
_atom_site_aniso_label
_atom_site_aniso_U_11
_atom_site_aniso_U_22
_atom_site_aniso_U_33
_atom_site_aniso_U_23
_atom_site_aniso_U_13
_atom_site_aniso_U_12
Y1 0.0099(10) 0.0070(6) 0.0070(6) 0.000 0.000 0.000
Os1 0.0051(2) 0.0051(2) 0.0051(2) 0.00052(14) 0.00052(14) 0.00052(14)
Ge1 0.040(3) 0.040(3) 0.040(3) 0.000 0.000 0.000
Ge2 0.0053(6) 0.0576(11) 0.0150(7) 0.0197(7) 0.000 0.000
loop_
_atom_type_symbol
_atom_type_description
_atom_type_scat_dispersion_real
_atom_type_scat_dispersion_imag
_atom_type_scat_source
Ge Ge 0.1547 1.8001 'International Tables Vol C Tables 4.2.6.8 and 6.1.1.4'
Y Y -2.7962 3.5667 'International Tables Vol C Tables 4.2.6.8 and 6.1.1.4'
Os Os -1.2165 7.6030 'International Tables Vol C Tables 4.2.6.8 and 6.1.1.4'
loop_
_geom_angle_atom_site_label_1
_geom_angle_atom_site_label_2
_geom_angle_atom_site_label_3
_geom_angle
_geom_angle_site_symmetry_1
_geom_angle_site_symmetry_3
Ge2 Y1 Ge2 120.98(2) . 17
Ge2 Y1 Ge2 51.06(5) . 26
Ge2 Y1 Ge2 170.57(7) 17 26
Ge2 Y1 Ge2 92.47(4) . 42_666
Ge2 Y1 Ge2 51.06(5) 17 42_666
Ge2 Y1 Ge2 120.98(2) 26 42_666
Ge2 Y1 Ge2 170.57(7) . 18_554
Ge2 Y1 Ge2 66.36(6) 17 18_554
Ge2 Y1 Ge2 120.98(2) 26 18_554
Ge2 Y1 Ge2 88.31(4) 42_666 18_554
Ge2 Y1 Ge2 88.31(4) . 25_565
Ge2 Y1 Ge2 120.98(2) 17 25_565
Ge2 Y1 Ge2 66.36(6) 26 25_565
Ge2 Y1 Ge2 170.57(7) 42_666 25_565
Ge2 Y1 Ge2 92.47(4) 18_554 25_565
Ge2 Y1 Ge2 120.98(2) . 41_665
Ge2 Y1 Ge2 88.31(4) 17 41_665
Ge2 Y1 Ge2 92.47(4) 26 41_665
Ge2 Y1 Ge2 66.36(6) 42_666 41_665
Ge2 Y1 Ge2 51.06(5) 18_554 41_665
Ge2 Y1 Ge2 120.98(2) 25_565 41_665
Ge2 Y1 Ge2 66.36(6) . 2_565
Ge2 Y1 Ge2 92.47(4) 17 2_565
Ge2 Y1 Ge2 88.31(4) 26 2_565
Ge2 Y1 Ge2 120.98(2) 42_666 2_565
Ge2 Y1 Ge2 120.98(2) 18_554 2_565
Ge2 Y1 Ge2 51.06(5) 25_565 2_565
Ge2 Y1 Ge2 170.57(7) 41_665 2_565
Ge2 Y1 Os1 94.72(3) . 27_565
Ge2 Y1 Os1 46.233(19) 17 27_565
Ge2 Y1 Os1 133.767(19) 26 27_565
Ge2 Y1 Os1 85.28(3) 42_666 27_565
Ge2 Y1 Os1 94.72(3) 18_554 27_565
Ge2 Y1 Os1 85.28(3) 25_565 27_565
Ge2 Y1 Os1 133.767(19) 41_665 27_565
Ge2 Y1 Os1 46.233(19) 2_565 27_565
Ge2 Y1 Os1 85.28(3) . 26
Ge2 Y1 Os1 133.767(19) 17 26
Ge2 Y1 Os1 46.233(19) 26 26
Ge2 Y1 Os1 94.72(3) 42_666 26
Ge2 Y1 Os1 85.28(3) 18_554 26
Ge2 Y1 Os1 94.72(3) 25_565 26
Ge2 Y1 Os1 46.233(19) 41_665 26
Ge2 Y1 Os1 133.767(19) 2_565 26
Os1 Y1 Os1 180.0 27_565 26
Ge2 Y1 Os1 133.766(19) . 4_565
Ge2 Y1 Os1 94.72(3) 17 4_565
Ge2 Y1 Os1 94.72(3) 26 4_565
Ge2 Y1 Os1 133.767(19) 42_666 4_565
Ge2 Y1 Os1 46.233(19) 18_554 4_565
Ge2 Y1 Os1 46.233(19) 25_565 4_565
Ge2 Y1 Os1 85.28(3) 41_665 4_565
Ge2 Y1 Os1 85.28(3) 2_565 4_565
Os1 Y1 Os1 90.0 27_565 4_565
Os1 Y1 Os1 90.0 26 4_565
Ge2 Y1 Os1 46.234(19) . .
Ge2 Y1 Os1 85.28(3) 17 .
Ge2 Y1 Os1 85.28(3) 26 .
Ge2 Y1 Os1 46.233(19) 42_666 .
Ge2 Y1 Os1 133.767(19) 18_554 .
Ge2 Y1 Os1 133.767(19) 25_565 .
Ge2 Y1 Os1 94.72(3) 41_665 .
Ge2 Y1 Os1 94.72(3) 2_565 .
Os1 Y1 Os1 90.0 27_565 .
Os1 Y1 Os1 90.0 26 .
Os1 Y1 Os1 180.0 4_565 .
Ge2 Os1 Ge2 74.98(9) 5 45_666
Ge2 Os1 Ge2 134.68(6) 5 42_666
Ge2 Os1 Ge2 86.83(7) 45_666 42_666
Ge2 Os1 Ge2 131.81(6) 5 14
Ge2 Os1 Ge2 86.83(7) 45_666 14
Ge2 Os1 Ge2 86.83(7) 42_666 14
Ge2 Os1 Ge2 86.83(7) 5 9
Ge2 Os1 Ge2 131.81(6) 45_666 9
Ge2 Os1 Ge2 74.98(9) 42_666 9
Ge2 Os1 Ge2 134.68(6) 14 9
Ge2 Os1 Ge2 86.83(7) 5 .
Ge2 Os1 Ge2 134.68(6) 45_666 .
Ge2 Os1 Ge2 131.81(6) 42_666 .
Ge2 Os1 Ge2 74.98(9) 14 .
Ge2 Os1 Ge2 86.83(7) 9 .
Ge2 Os1 Y1 142.51(5) 5 .
Ge2 Os1 Y1 142.51(5) 45_666 .
Ge2 Os1 Y1 65.91(3) 42_666 .
Ge2 Os1 Y1 67.34(3) 14 .
Ge2 Os1 Y1 67.34(3) 9 .
Ge2 Os1 Y1 65.91(3) . .
Ge2 Os1 Y1 67.34(3) 5 9
Ge2 Os1 Y1 65.91(3) 45_666 9
Ge2 Os1 Y1 67.34(3) 42_666 9
Ge2 Os1 Y1 142.51(5) 14 9
Ge2 Os1 Y1 65.91(3) 9 9
Ge2 Os1 Y1 142.51(5) . 9
Y1 Os1 Y1 120.0 . 9
Ge2 Os1 Y1 65.91(3) 5 5
Ge2 Os1 Y1 67.34(3) 45_666 5
Ge2 Os1 Y1 142.51(5) 42_666 5
Ge2 Os1 Y1 65.91(3) 14 5
Ge2 Os1 Y1 142.51(5) 9 5
Ge2 Os1 Y1 67.34(3) . 5
Y1 Os1 Y1 120.0 . 5
Y1 Os1 Y1 120.0 9 5
Os1 Ge2 Os1 130.17(6) . 28
Os1 Ge2 Ge2 111.23(3) . 26
Os1 Ge2 Ge2 111.23(3) 28 26
Os1 Ge2 Y1 67.860(14) . .
Os1 Ge2 Y1 157.60(7) 28 .
Ge2 Ge2 Y1 64.47(3) 26 .
Os1 Ge2 Y1 157.60(7) . 25_565
Os1 Ge2 Y1 67.860(14) 28 25_565
Ge2 Ge2 Y1 64.47(3) 26 25_565
Y1 Ge2 Y1 91.69(4) . 25_565
Os1 Ge2 Y1 66.86(3) . 5
Os1 Ge2 Y1 66.86(3) 28 5
Ge2 Ge2 Y1 170.38(4) 26 5
Y1 Ge2 Y1 121.09(4) . 5
Y1 Ge2 Y1 121.09(4) 25_565 5
loop_
_geom_bond_atom_site_label_1
_geom_bond_atom_site_label_2
_geom_bond_distance
_geom_bond_site_symmetry_2
Y1 Ge2 3.1337(11) .
Y1 Ge2 3.1337(11) 17
Y1 Ge2 3.1337(11) 26
Y1 Ge2 3.1337(11) 42_666
Y1 Ge2 3.1337(11) 18_554
Y1 Ge2 3.1337(11) 25_565
Y1 Ge2 3.1337(11) 41_665
Y1 Ge2 3.1337(11) 2_565
Y1 Os1 3.1796(3) 27_565
Y1 Os1 3.1796(3) 26
Y1 Os1 3.1796(3) 4_565
Y1 Os1 3.1796(3) .
Os1 Ge2 2.4790(6) 5
Os1 Ge2 2.4790(6) 45_666
Os1 Ge2 2.4790(6) 42_666
Os1 Ge2 2.4790(6) 14
Os1 Ge2 2.4790(6) 9
Os1 Ge2 2.4790(6) .
Os1 Y1 3.1796(3) 9
Os1 Y1 3.1796(3) 5
Ge2 Os1 2.4790(6) 28
Ge2 Ge2 2.701(3) 26
Ge2 Y1 3.1337(11) 25_565
Ge2 Y1 3.1910(14) 5
#BEGIN Loops that were not found in dictionaries:
loop_
_publcif_info_datablock.id
_publcif_info_datablock.publ_exptl
_publcif_info_datablock.publ_geom
_publcif_info_datablock.structure
{27eacfde-3563-4821-9eb9-14d1e2c03d5c} y y y
#END Loops that were not found in dictionaries
