#------------------------------------------------------------------------------
#$Date: 2016-03-21 01:21:50 +0200 (Mon, 21 Mar 2016) $
#$Revision: 178377 $
#$URL: svn://www.crystallography.net/cod/cif/4/00/21/4002191.cif $
#------------------------------------------------------------------------------
#
# This file is available in the Crystallography Open Database (COD),
# http://www.crystallography.net/
#
# All data on this site have been placed in the public domain by the
# contributors.
#
data_4002191
loop_
_publ_author_name
'Rai, Binod K.'
'Oswald, Iain W. H.'
'Wang, Jiakui K.'
'McCandless, Gregory T.'
'Chan, Julia Y.'
'Morosan, E.'
_publ_section_title
;
 Superconductivity in Single Crystals of Lu3T4Ge13--x(T= Co, Rh, Os) and
 Y3T4Ge13--x(T= Ir, Rh, Os)
;
_journal_issue                   7
_journal_name_full               'Chemistry of Materials'
_journal_page_first              2488
_journal_paper_doi               10.1021/cm504658h
_journal_volume                  27
_journal_year                    2015
_chemical_formula_sum            'Ge12.53 Lu3 Os4'
_chemical_formula_weight         2195.26
_space_group_crystal_system      cubic
_space_group_IT_number           223
_space_group_name_Hall           '-P 4n 2 3'
_space_group_name_H-M_alt        'P m -3 n'
_symmetry_space_group_name_Hall  '-P 4n 2 3'
_symmetry_space_group_name_H-M   'P m -3 n'
_audit_creation_method           SHELXL-2014
_audit_update_record
;
2014-10-31 # Formatted by publCIF

;
_cell_angle_alpha                90
_cell_angle_beta                 90
_cell_angle_gamma                90
_cell_formula_units_Z            2
_cell_length_a                   8.9390(10)
_cell_length_b                   8.9390(10)
_cell_length_c                   8.9390(10)
_cell_measurement_reflns_used    1560
_cell_measurement_temperature    298(2)
_cell_measurement_theta_max      30.40
_cell_measurement_theta_min      3.22
_cell_volume                     714.28(14)
_computing_cell_refinement       'Bruker SAINT'
_computing_data_collection       'Bruker APEX2'
_computing_data_reduction        'Bruker SAINT'
_computing_molecular_graphics    CrystalMaker
_computing_publication_material  'publCIF (Westrip, 2010)'
_computing_structure_refinement  'SHELXL-2014 (Sheldrick, 2014)'
_computing_structure_solution    'SHELXS Direct Methods (Sheldrick, 2013)'
_diffrn_ambient_temperature      298(2)
_diffrn_measured_fraction_theta_full 1.000
_diffrn_measured_fraction_theta_max 1.000
_diffrn_measurement_device_type  'Bruker Kappa D8 Quest CMOS'
_diffrn_measurement_method       '\f scan'
_diffrn_radiation_monochromator  'HELIOS optics'
_diffrn_radiation_type           MoK\a
_diffrn_radiation_wavelength     0.71073
_diffrn_reflns_av_R_equivalents  0.0469
_diffrn_reflns_av_unetI/netI     0.0267
_diffrn_reflns_Laue_measured_fraction_full 1.000
_diffrn_reflns_Laue_measured_fraction_max 1.000
_diffrn_reflns_limit_h_max       12
_diffrn_reflns_limit_h_min       -10
_diffrn_reflns_limit_k_max       10
_diffrn_reflns_limit_k_min       -12
_diffrn_reflns_limit_l_max       11
_diffrn_reflns_limit_l_min       -8
_diffrn_reflns_number            2427
_diffrn_reflns_point_group_measured_fraction_full 1.000
_diffrn_reflns_point_group_measured_fraction_max 1.000
_diffrn_reflns_theta_full        25.242
_diffrn_reflns_theta_max         30.397
_diffrn_reflns_theta_min         3.223
_diffrn_source                   'I\mS microfocus tube'
_exptl_absorpt_coefficient_mu    81.781
_exptl_absorpt_correction_T_max  0.7461
_exptl_absorpt_correction_T_min  0.3616
_exptl_absorpt_correction_type   multi-scan
_exptl_absorpt_process_details   SADABS(2014)
_exptl_crystal_colour            Silver
_exptl_crystal_density_diffrn    10.207
_exptl_crystal_description       Fragment
_exptl_crystal_F_000             1836
_exptl_crystal_size_max          0.24
_exptl_crystal_size_mid          0.20
_exptl_crystal_size_min          0.10
_refine_diff_density_max         7.749
_refine_diff_density_min         -5.090
_refine_diff_density_rms         0.710
_refine_ls_extinction_coef       0.0054(4)
_refine_ls_extinction_expression Fc^*^=kFc[1+0.001xFc^2^\l^3^/sin(2\q)]^-1/4^
_refine_ls_extinction_method     SHELXL
_refine_ls_goodness_of_fit_ref   1.257
_refine_ls_hydrogen_treatment    undef
_refine_ls_matrix_type           full
_refine_ls_number_constraints    0
_refine_ls_number_parameters     17
_refine_ls_number_reflns         220
_refine_ls_number_restraints     0
_refine_ls_restrained_S_all      1.257
_refine_ls_R_factor_all          0.0347
_refine_ls_R_factor_gt           0.0333
_refine_ls_shift/su_max          0.000
_refine_ls_shift/su_mean         0.000
_refine_ls_structure_factor_coef Fsqd
_refine_ls_weighting_details
'w=1/[\s^2^(Fo^2^)+(0.0127P)^2^+76.7919P] where P=(Fo^2^+2Fc^2^)/3'
_refine_ls_weighting_scheme      calc
_refine_ls_wR_factor_gt          0.0784
_refine_ls_wR_factor_ref         0.0789
_reflns_Friedel_coverage         0.000
_reflns_number_gt                209
_reflns_number_total             220
_reflns_threshold_expression     'I > 2\s(I)'
_cod_data_source_file            Lu3Os4Ge13_CIF.cif
_cod_data_source_block           shelx
_cod_depositor_comments
'Adding full bibliography for 4002190--4002195.cif.'
_cod_original_cell_volume        714.3(2)
_cod_database_code               4002191
#BEGIN Tags that were not found in dictionaries:
_publcif_datablock.id            {8b01e77d-dca6-4488-a19e-27c3c9fd1c63}
_shelx_space_group_comment
;
The symmetry employed for this shelxl refinement is uniquely defined
by the following loop, which should always be used as a source of
symmetry information in preference to the above space-group names.
They are only intended as comments.
;
_shelxl_version_number           2014-3
_shelx_res_file
;
TITL scd0271_final2 in Pm-3n
CELL 0.71073   8.93900   8.93900   8.93900  90.0000  90.0000  90.0000
ZERR    2.00   0.00098   0.00098   0.00098   0.0000   0.0000   0.0000
LATT  1
REM CRYSTAL DIMENSIONS 0.24 X 0.2 X 0.1
REM VOLUME =   714.28(24)
REM ABS INFO:  MIN/MAX TRANSMISSION: 0.3616 0.7461

SYMM -X, -Y, Z
SYMM -X, Y, -Z
SYMM X, -Y, -Z
SYMM Z, X, Y
SYMM Z, -X, -Y
SYMM -Z, -X, Y
SYMM -Z, X, -Y
SYMM Y, Z, X
SYMM -Y, Z, -X
SYMM Y, -Z, -X
SYMM -Y, -Z, X
SYMM 0.5+Y, 0.5+X, 0.5-Z
SYMM 0.5-Y, 0.5-X, 0.5-Z
SYMM 0.5+Y, 0.5-X, 0.5+Z
SYMM 0.5-Y, 0.5+X, 0.5+Z
SYMM 0.5+X, 0.5+Z, 0.5-Y
SYMM 0.5-X, 0.5+Z, 0.5+Y
SYMM 0.5-X, 0.5-Z, 0.5-Y
SYMM 0.5+X, 0.5-Z, 0.5+Y
SYMM 0.5+Z, 0.5+Y, 0.5-X
SYMM 0.5+Z, 0.5-Y, 0.5+X
SYMM 0.5-Z, 0.5+Y, 0.5+X
SYMM 0.5-Z, 0.5-Y, 0.5-X
SFAC GE LU OS
UNIT 25.06 6 8
TEMP 25

L.S. 40
BOND
FMAP 2
PLAN 20
ACTA
EADP GE2A GE2B
WGHT    0.012700   76.791893
EXTI    0.005369
FVAR       0.05338   0.88525   0.54245
LU1   2    0.250000    0.500000    0.000000    10.12500    0.01050    0.00661 =
         0.00661    0.00000    0.00000    0.00000
OS1   3    0.250000    0.250000    0.250000    10.16666    0.00485    0.00485 =
         0.00485    0.00046    0.00046    0.00046
GE1   1    0.000000    0.000000    0.000000    30.04167    0.03178    0.03178 =
         0.03178    0.00000    0.00000    0.00000
GE2A  1    0.000000    0.307470    0.146548    20.50000    0.00439    0.05492 =
         0.00971    0.01366    0.00000    0.00000
GE2B  1    0.000000    0.345550    0.179114   -20.50000    0.00439    0.05492 =
         0.00971    0.01366    0.00000    0.00000
HKLF 4

REM  scd0271_final2 in Pm-3n
REM R1 =  0.0333 for     209 Fo > 4sig(Fo)  and  0.0347 for all     220 data
REM     17 parameters refined using      0 restraints

END

WGHT      0.0127     76.8033

REM Highest difference peak  7.749,  deepest hole -5.090,  1-sigma level  0.710
Q1    1   0.0000  0.1315  0.0000  10.25000  0.05    7.75
Q2    1   0.1518  0.0000  0.1039  10.50000  0.05    2.47
Q3    1   0.0741  0.0741  0.0741  10.33333  0.05    1.98
Q4    1   0.0000  0.2958  0.0552  10.50000  0.05    1.71
Q5    1   0.0000  0.1379  0.1051  10.50000  0.05    1.51
Q6    1   0.3099  0.2368  0.2478  11.00000  0.05    1.49
Q7    1   0.2026  0.2974  0.2500  10.50000  0.05    1.31
Q8    1   0.0625  0.2795  0.0000  10.50000  0.05    1.31
Q9    1   0.2175  0.4428  0.0000  10.50000  0.05    1.30
Q10   1   0.0000  0.5000  0.2500  10.12500  0.05    1.27
Q11   1   0.1149  0.3220  0.1637  11.00000  0.05    1.20
Q12   1   0.2560  0.5000  0.0871  10.50000  0.05    1.20
Q13   1   0.0892  0.3450  0.1765  11.00000  0.05    1.06
Q14   1   0.2914  0.3906  0.1656  11.00000  0.05    1.03
Q15   1   0.3050  0.5000  0.0000  10.25000  0.05    0.99
Q16   1   0.0000  0.2260  0.1556  10.50000  0.05    0.90
Q17   1   0.0000  0.3867  0.2479  10.50000  0.05    0.85
Q18   1  -0.0972  0.4346  0.0716  11.00000  0.05    0.82
Q19   1   0.1995  0.1210  0.1669  11.00000  0.05    0.78
Q20   1   0.2848  0.1818  0.1421  11.00000  0.05    0.78
;
_shelx_res_checksum              62869
_shelx_hkl_file
;
   0  -1   0   -0.22    0.04
   1   0   0   -0.22    0.04
  -1   1   0   12.45    0.58
   0  -1  -1   12.38    0.59
   0   1   1   11.70    0.59
   1  -1   0   12.23    0.58
   1   0  -1   11.85    0.61
   1   1   0   12.49    0.54
   1   1   0   12.45    0.53
  -1  -1   1   -1.28    0.08
   1  -1  -1   -1.18    0.09
   1  -1   1   -1.07    0.08
  -2   0   0  281.06   10.66
   0  -2   0  244.75   10.68
   0   2   0  243.18   10.68
   2   0   0  248.69   10.67
  -2   0   1   44.23    1.95
  -1  -2   0   44.93    1.87
   0   1   2   39.48    1.96
   1   2   0   46.31    1.89
   2   0  -1   44.57    1.98
  -2   1   0   44.52    1.93
  -1   0   2   40.16    1.98
   0  -2  -1   42.90    1.92
   0  -2   1   40.03    1.94
   0   2   1   44.04    1.96
   2  -1   0   44.99    1.94
   2   1   0   47.30    1.88
  -2  -1   1    9.86    0.54
  -2   1   1   10.12    0.58
  -1  -2   1    9.64    0.54
  -1   2  -1   10.07    0.57
   1  -2   1   10.33    0.58
   1  -1  -2    9.77    0.63
   1   2   1    9.80    0.51
   2  -1  -1   12.34    0.65
   2  -1   1    9.44    0.56
   2   1  -1   10.26    0.60
  -2   0   2  173.28    7.14
  -2   2   0  168.85    7.09
   0  -2  -2  177.45    7.09
   0   2   2  163.53    7.11
   2  -2   0  163.91    7.09
   2   0  -2  159.06    7.16
   2   2   0  158.98    7.02
   2   2   0  169.62    7.00
  -2  -2   1   -0.09    0.10
  -2  -1   2   -0.11    0.14
  -2   1   2   -0.05    0.18
  -2   2  -1   -0.16    0.10
  -2   2   1    0.24    0.14
   1  -2  -2    0.02    0.17
   2  -2  -1   -0.18    0.13
   2  -2   1    0.18    0.14
   2  -1  -2   -0.07    0.18
   2   1  -2    0.02    0.18
  -2  -2   2  885.09   34.92
   2  -2   2  787.85   34.94
  -3   0   0    0.12    0.07
   0   3   0    0.18    0.10
   3   0   0    0.20    0.10
  -3   0   1    0.00    0.10
  -1  -3   0   -0.15    0.08
  -1   3   0    0.05    0.12
   0   1   3   -0.08    0.18
   1  -3   0    0.63    0.17
   1   3   0   -0.04    0.10
   3   0  -1    0.26    0.20
   3   0   1   -0.14    0.09
   3   1   0   -0.04    0.09
   3  -1   0    0.01    0.14
   0   3   1   -0.25    0.13
   0  -3  -1    0.00    0.15
   0  -3   1   -0.15    0.10
  -3   1   0    0.15    0.12
  -1   0   3    0.29    0.23
   1  -3   1   -0.98    0.12
   1   3   1   -1.13    0.13
  -1   3   1   -1.27    0.13
   1  -3  -1   -1.17    0.14
   3  -1   1   -1.30    0.10
   3  -1  -1   -0.81    0.21
  -3  -1   1   -1.03    0.09
  -3   1   1   -1.21    0.11
  -1  -3   1   -1.18    0.11
  -1   1   3   -1.12    0.20
  -1   3  -1   -1.13    0.12
   2   3   0  471.76   19.75
   3   0  -2  484.35   19.95
  -3   0   2  475.10   19.85
  -2   3   0  429.85   19.83
   0   3   2  479.71   19.87
   2   0  -3  516.60   19.97
   3  -2   0  441.53   19.84
   3   2   0  401.41   19.75
  -2   0   3  532.64   19.94
   0  -3   2  496.83   19.88
  -3   2   0  486.31   19.83
  -2  -1   3  118.74    5.20
   2  -1  -3  117.74    5.23
   2  -3   1  117.88    5.15
  -3   1   2  120.68    5.18
   1  -3  -2  114.77    5.15
   3  -1   2  126.20    5.17
   3   1  -2  116.68    5.22
  -1   2   3  122.11    5.21
  -3  -2   1  111.32    5.03
  -2   3   1  114.66    5.17
   1   3   2  119.65    5.11
  -3   2  -1  117.65    5.11
   3  -2  -1  125.23    5.20
  -1  -3   2  123.39    5.16
  -2   3  -1  122.97    5.14
   2   3   1  114.88    5.03
  -3   2   1  128.15    5.16
   1  -2  -3  124.53    5.19
  -2   1   3  116.56    5.21
  -2  -3   1  123.99    5.04
  -1   3   2  116.38    5.20
   3  -1  -2  119.50    5.24
   1  -3   2  123.13    5.19
  -3  -1   2  114.27    5.12
   2  -3  -1  113.24    5.16
  -2  -3   1  117.49    5.08
   3  -2   1  121.04    5.14
  -3  -2   2    0.22    0.20
  -3   2   2    0.30    0.21
  -2  -3   2    0.49    0.22
  -2  -2   3    0.78    0.27
  -2   2   3    0.19    0.24
  -2   3   2   -0.09    0.19
   2  -3  -2    0.52    0.28
   2  -3   2    0.38    0.24
   2  -2  -3    0.06    0.25
   2   3   2    0.28    0.14
   3  -2  -2    0.55    0.26
   3  -2   2    0.71    0.23
   3   2  -2    0.27    0.25
  -3   0   3  166.25    7.24
  -3   3   0  170.46    7.19
   0   3   3  166.80    7.23
   3  -3   0  173.02    7.21
   3   0  -3  166.23    7.33
   3   3   0  164.20    7.10
  -3  -3   1   -0.80    0.08
  -3  -3   1   -0.78    0.07
  -3  -1   3   -0.88    0.19
  -3   1   3   -0.85    0.20
  -3   3  -1   -0.72    0.15
  -3   3   1   -0.57    0.18
   1  -3  -3   -0.84    0.19
   1   3   3   -0.70    0.20
   3  -3  -1   -0.82    0.18
   3  -3   1   -0.80    0.15
   3  -1  -3   -0.63    0.27
   3   1  -3   -0.93    0.27
  -3  -3   2    4.32    0.42
  -3  -2   3    4.83    0.49
  -3   2   3    4.58    0.63
  -3   3   2    3.22    0.49
   2  -3  -3    3.95    0.52
   2  -3   3    6.47    0.63
   3  -3  -2    5.46    0.57
   3  -3   2    4.59    0.49
   3  -2  -3    5.07    0.59
   3  -2   3    4.35    0.58
  -3  -3   3   -0.14    0.27
  -3   3   3   -0.18    0.29
   3  -3  -3   -0.35    0.27
   3  -3   3    0.49    0.32
   0  -4   0  961.50   37.24
   0   4   0  874.73   36.98
   4   0   0  823.19   36.96
  -4   0   1   90.52    3.81
  -1   4   0   83.80    4.11
   1  -4   0   84.75    3.85
   1   4   0   93.02    3.83
   4   0  -1   91.43    3.93
   4   0   1   81.43    3.86
   0   4  -1   86.11    3.88
   0   4   1   87.82    3.88
   4  -1   0   94.18    3.88
   4   1   0   93.81    3.82
   0  -4  -1   85.75    3.82
   0  -4   1   89.50    3.84
  -1   0   4   79.98    3.98
  -4   1   0   92.07    3.81
  -1   4  -1   16.22    0.89
   1  -4  -1   16.31    0.89
  -1  -4  -1   16.00    0.76
  -4   1   1   15.73    0.84
   4   1   1   14.84    0.76
  -1  -4   1   15.38    0.81
   1   4   1   16.61    0.86
   1  -4   1   15.75    0.87
   1   4  -1   16.19    0.87
   4  -1  -1   18.23    0.98
   4  -1   1   16.51    0.86
   4   1  -1   15.18    0.95
  -4  -1   1   15.99    0.77
   4   0   2  405.61   16.52
   4   0  -2  363.11   16.66
   2  -4   0  356.26   16.54
   4   2   0  372.45   16.47
  -2   4   0  390.42   16.57
   0   2   4  454.71   16.66
   2   4   0  393.86   16.47
   4  -2   0  375.03   16.56
   0   4   2  383.43   16.60
  -4   0   2  388.43   16.53
  -4   2   0  422.49   16.53
  -2   0   4  412.33   16.67
   0  -4  -2  396.28   16.50
   0  -4   2  390.14   16.55
  -1  -4   2   52.15    2.42
  -2  -1   4   49.63    2.54
  -4  -2   1   53.00    2.28
   2  -4   1   55.82    2.47
   2  -1  -4   52.54    2.57
   4  -2  -1   55.56    2.52
   4  -1   2   51.54    2.44
   4   1  -2   51.57    2.56
   1  -4  -2   52.12    2.44
  -4   2  -1   53.29    2.40
   1   4   2   56.78    2.47
  -2   4   1   50.46    2.50
  -4   1   2   55.06    2.46
   4  -2   1   54.86    2.45
   4   2  -1   55.54    2.49
   4  -1  -2   56.63    2.59
   2   4   1   56.08    2.36
  -4   2   1   55.88    2.44
  -4  -1   2   49.49    2.39
   2  -4  -1   53.67    2.47
   1  -4   2   54.12    2.47
   2  -4  -2  398.38   19.43
  -4  -2   2  444.37   19.34
  -2  -4   2  472.44   19.37
  -2   2   4  503.22   19.56
   2  -2  -4  479.16   19.54
   2   4   2  497.08   19.36
   4  -2  -2  401.81   19.50
   4  -2   2  459.57   19.44
   4   2  -2  501.22   19.55
   4   0  -3   54.01    2.62
  -3   0   4   56.36    2.80
   3  -4   0   50.96    2.43
   3   4   0   51.78    2.31
   4  -3   0   52.22    2.45
  -4   0   3   49.26    2.43
  -3   4   0   54.19    2.45
   0   3   4   52.14    2.49
   0   4   3   50.61    2.47
   3   0  -4   51.31    2.60
   0  -4   3   54.11    2.51
   4   3   0   51.10    2.34
   0  -4  -3   55.05    2.38
   3  -1  -4    8.52    0.79
   1  -4  -3    7.40    0.60
   3  -4   1    7.30    0.60
   1   4   3    7.91    0.63
  -1  -4   3    7.98    0.68
   4  -3  -1    7.74    0.65
  -4   1   3    7.75    0.66
   4   1  -3    7.88    0.80
  -3  -1   4    7.12    0.69
   3   4   1    7.33    0.42
   1   3   4    7.11    0.63
   3  -4  -1    8.41    0.65
  -3  -4   1    7.16    0.39
  -3  -4   1    8.21    0.38
   1  -3  -4    7.63    0.65
   4   3  -1    7.24    0.65
   1  -4   3    8.68    0.71
   4  -1  -3    7.95    0.78
  -4  -1   3    8.16    0.63
   4  -3   1    7.65    0.60
   2   4   3   87.79    3.80
   4  -2   3   84.24    3.95
   4   2  -3   80.63    4.01
   3  -4   2   87.20    3.92
   3  -2  -4   90.22    4.03
   4  -3  -2   90.22    3.98
  -3  -2   4   83.73    3.96
   2  -4  -3   88.46    3.93
  -4  -3   2   81.78    3.74
  -3   4   2   96.35    3.98
   4  -2  -3   88.11    4.04
  -3  -4   2   90.30    3.80
   3  -4  -2   85.87    3.93
  -3   2   4   81.97    4.02
  -4  -2   3   86.87    3.85
   2  -4   3   85.42    3.97
  -3  -4   2   88.58    3.76
   3   4   2   88.56    3.69
   2  -3  -4   84.30    3.94
   4  -3   2   86.84    3.91
  -4  -3   3  236.57    9.69
  -3  -4   3  236.09    9.73
  -3  -3   4  237.76    9.81
  -3   3   4  218.72    9.84
  -3   4   3  228.27    9.88
   3  -4  -3  206.69    9.79
   3  -4   3  231.70    9.84
   3  -3  -4  225.91    9.85
   3  -3   4  231.13    9.93
   3   4   3  235.21    9.56
   4  -3  -3  223.71    9.86
   4  -3   3  219.43    9.81
  -4   0   4  677.09   25.89
   0   4   4  592.93   26.29
   4  -4   0  523.47   25.78
   4   0  -4  666.26   26.05
  -4  -1   4   -0.23    0.28
   1  -4  -4    0.11    0.29
   1  -4   4   -0.29    0.35
   1   4   4    0.15    0.33
   4  -4  -1   -0.29    0.23
   4  -4   1   -0.10    0.23
   4  -1  -4   -0.37    0.38
   4   1  -4    0.11    0.42
   4   4   1    0.12    0.16
   4   4   1    0.22    0.11
  -4  -4   2  137.41    5.99
  -4  -4   2  147.79    5.99
  -4  -2   4  141.71    6.20
   2  -4  -4  141.09    6.22
   2  -4   4  137.48    6.34
   2   4   4  149.13    6.12
   4  -4  -2  137.85    6.25
   4  -4   2  138.99    6.22
   4  -2  -4  135.00    6.34
   4  -2   4  141.84    6.34
  -4  -4   3    0.26    0.27
  -4  -3   4    0.45    0.34
  -3  -4   4    0.36    0.37
   3  -4  -4    0.25    0.34
   3  -4   4   -0.07    0.42
   3   4   4    1.11    0.29
   4  -4  -3    0.14    0.31
   4  -4   3    0.04    0.34
   4  -3  -4    0.35    0.40
   4  -3   4    0.80    0.46
  -4  -4   4  738.23   28.20
   4  -4  -4  605.36   28.29
   4  -4   4  669.95   28.36
  -5   0   0    0.05    0.11
   0  -5   0    0.38    0.19
   0   5   0    0.13    0.21
   5   0   0   -0.05    0.19
  -5   0   1   69.58    3.08
  -1  -5   0   69.77    3.08
   1  -5   0   71.08    3.16
   1   5   0   70.91    3.14
   5   0  -1   75.63    3.27
   5   0   1   71.54    3.13
   5   1   0   72.43    3.15
  -1   0   5   68.60    3.38
   0  -5  -1   67.69    3.12
   0  -5   1   71.15    3.13
   0   5   1   67.50    3.19
   5  -1   0   72.58    3.20
  -5   1   0   71.78    3.10
  -5  -1   1    0.10    0.13
  -5   1   1   -0.35    0.17
  -1  -5   1   -0.31    0.15
   1   5   1   -0.38    0.21
   1  -5   1   -0.48    0.17
   5   1  -1   -0.34    0.29
   1  -5  -1   -0.20    0.21
   5  -1  -1   -0.35    0.27
   5  -1   1   -0.12    0.19
   1   5  -1   -0.64    0.22
   2  -5   0   71.20    3.41
   2   5   0   76.79    3.36
   0   2   5   75.27    3.53
   0   5   2   75.57    3.48
   5  -2   0   77.36    3.45
   0  -5   2   75.62    3.40
   0  -5  -2   75.81    3.35
  -5   0   2   78.45    3.36
  -2  -5   0   73.07    3.22
  -5   2   0   77.31    3.36
   5   0   2   75.74    3.36
   5   0  -2   79.32    3.59
  -5   2  -1   13.69    0.80
   5   2   1   13.29    0.70
   5  -1   2   14.46    0.87
   5   1  -2   13.45    1.05
  -1  -5   2   13.82    0.81
   5  -2  -1   14.43    0.95
  -5   1   2   14.17    0.84
   2  -5   1   14.87    0.88
   1   5   2   14.39    0.90
   1  -5  -2   13.59    0.85
  -2  -5   1   15.14    0.73
   2   5   1   13.24    0.78
   1  -5   2   14.45    0.89
   2  -5  -1   14.38    0.89
  -2   1   5   12.17    1.00
  -5  -1   2   13.88    0.76
   5  -2   1   14.45    0.88
   5   2  -1   13.52    0.97
  -1   5   2   16.41    1.28
   5  -1  -2   14.36    1.03
  -2   5  -1   13.89    0.90
   5  -2   2    1.24    0.32
   5  -2  -2    0.30    0.35
   5  -3   0   29.74    1.52
   3   5   0   28.55    1.38
   5   0   3   28.91    1.50
   0   5   3   25.36    1.71
   3  -5   0   29.23    1.50
   0  -5  -3   28.65    1.39
   0  -5   3   28.67    1.52
  -5   3   0   28.63    1.43
   0   3   5   26.73    1.57
   5   0  -3   27.37    1.70
  -5   0   3   26.57    1.46
   1   5   3   19.50    1.22
   5  -1   3   19.53    1.19
   5   3   1   19.50    0.93
  -5   3  -1   19.28    1.09
  -1  -5   3   19.24    1.14
  -5   1   3   18.17    1.13
   5   1  -3   19.71    1.41
   5  -3  -1   20.64    1.24
   3  -1  -5   20.07    1.36
   3  -5   1   19.48    1.16
   1  -5  -3   20.00    1.13
  -3   5   1   21.07    1.22
   3   5   1   19.02    0.99
   5  -1  -3   20.58    1.39
   5   3  -1   20.43    1.21
  -5  -1   3   17.31    1.10
  -5   3   1   20.40    1.13
   1  -5   3   21.07    1.23
   3  -5  -1   19.90    1.18
   5  -3   1   19.69    1.16
   1   3   5   18.81    1.24
  -2  -5   3  100.88    4.51
   5   2  -3  104.53    4.78
  -5  -3   2  100.71    4.34
   2   5   3  102.90    4.52
  -5   2   3  105.98    4.59
   5  -2   3  100.59    4.61
   3  -2  -5   99.27    4.72
   2  -5  -3  100.37    4.58
   3  -5   2  102.87    4.60
   5  -3  -2  102.95    4.67
   5  -3   2  107.12    4.61
   5   3  -2  103.47    4.68
  -3  -5   2  103.93    4.39
   5  -2  -3  106.91    4.76
   3  -5  -2  100.54    4.60
  -3  -5   2  102.18    4.45
  -5  -2   3  100.63    4.47
   3   5   2  103.02    4.42
   2  -3  -5  101.61    4.64
   2  -5   3   97.24    4.61
  -3  -3   5    0.24    0.43
   3  -5   3    0.62    0.38
   3  -5  -3    0.22    0.31
  -3  -5   3    0.24    0.32
  -3  -5   3    0.58    0.24
   3  -3  -5    0.00    0.39
   3   5   3    0.40    0.31
   5  -3  -3    0.45    0.35
  -5  -3   3    0.41    0.24
   5  -3   3    0.09    0.33
   0  -5   4   75.84    3.50
   4   0  -5   71.06    3.62
   5  -4   0   72.25    3.40
   4  -5   0   70.59    3.37
  -5   4   0   75.96    3.35
   0   4   5   73.96    3.45
  -5   0   4   72.02    3.38
   5   0  -4   75.25    3.66
   0   5   4   71.47    3.43
   5  -1   4   11.22    1.01
   5   1  -4   12.57    1.22
   1   5   4   11.07    1.37
   4  -5   1   11.58    0.88
   4  -1  -5   10.79    1.12
  -5   4  -1   12.73    0.84
   5   4   1   11.54    0.67
  -1  -5   4   13.05    1.00
  -4  -1   5   11.53    1.00
   5  -4  -1   11.77    0.93
   1  -5  -4   12.42    0.86
   4   5   1   11.38    0.64
   5  -1  -4   12.21    1.14
   4  -5  -1   12.02    0.90
   1  -5   4   13.56    1.04
  -5  -1   4   11.61    0.90
   5  -4   1   11.70    0.88
   1   4   5   11.81    0.95
  -2  -5   4   99.41    4.40
   5  -2   4   96.88    4.47
  -5   2   4   93.26    4.42
   5  -4  -2   95.42    4.42
  -4  -2   5   94.35    4.40
   2   5   4   97.54    4.29
   4  -2  -5   94.50    4.53
   2  -5  -4   95.63    4.35
   4  -5   2   94.40    4.38
   4  -5  -2  102.73    4.42
   2  -4  -5   96.96    4.39
  -5  -2   4   96.32    4.31
   2   4   5   97.14    4.30
  -4  -5   2   93.44    4.09
   4   5   2   97.46    4.10
   5  -2  -4   93.71    4.55
   5  -4   2   91.81    4.37
   2  -5   4   99.52    4.50
   5  -3   4    9.59    0.98
  -3  -5   4    7.20    0.82
   4  -5   3    7.77    0.83
   3  -5  -4    7.60    0.84
  -3  -5   4    8.95    0.83
   3  -4   5    6.87    0.93
  -4  -3   5    7.73    0.89
   5  -4  -3    7.30    0.87
   3   5   4    7.42    0.70
   4  -3  -5    8.11    0.94
  -5  -4   3    7.58    0.59
  -5  -3   4    7.06    0.76
  -3  -4   5    8.15    1.02
   3   4   5    7.26    0.76
   4  -5  -3    7.88    0.86
   5  -3  -4    7.96    0.97
   4   5   3    7.84    0.58
   3  -5   4    7.62    0.95
  -4  -5   3    8.64    0.68
  -4  -5   3    7.55    0.58
   4  -3   5    8.59    1.05
   3  -4  -5    8.02    0.87
   5  -4   3    8.16    0.84
  -5  -4   4    0.35    0.56
  -4  -5   4   -0.33    0.39
  -4  -5   4    0.52    0.38
  -4  -4   5   -0.24    0.46
   4  -5  -4    0.19    0.45
   4  -5   4   -0.10    0.38
   4  -4  -5    0.60    0.47
   4  -4   5    0.81    0.62
   4   5   4    0.92    0.31
   5  -4  -4    0.24    0.46
   5  -4   4    0.13    0.53
  -5   0   5   61.70    3.08
   0  -5   5   64.86    3.28
   0   5   5   62.64    3.12
   5  -5   0   65.73    3.08
   5   0  -5   65.16    3.38
  -5  -1   5    0.14    0.40
  -5   1   5    0.00    0.41
  -5   5  -1    0.27    0.36
  -1   5   5    1.96    0.94
   1  -5   5    0.18    0.46
   1   5   5    0.52    0.46
   5  -5  -1    1.16    0.38
   5  -5   1    0.63    0.37
   5  -1  -5    0.56    0.53
  -5  -2   5   50.85    2.53
   2  -5  -5   51.18    2.51
   2  -5   5   50.23    2.75
   2   5   5   48.77    2.47
   5  -5  -2   50.35    2.56
   5  -5   2   53.76    2.57
   5  -2  -5   49.71    2.76
   5  -2   5   47.83    2.70
  -5  -5   3    0.25    0.24
  -5  -5   3    0.35    0.21
  -5  -3   5    0.10    0.44
  -3  -5   5    0.01    0.58
   3  -5  -5    0.14    0.41
   3  -5   5    0.61    0.55
   3   5   5    0.34    0.40
   5  -5  -3   -0.13    0.41
   5  -5   3    0.24    0.40
   5  -3  -5    1.74    0.59
   5  -3   5    0.04    0.56
  -5  -5   4    1.32    0.41
  -5  -5   4    0.53    0.37
  -5  -4   5    0.33    0.48
  -4  -5   5    1.03    0.57
   4  -5  -5    0.42    0.54
   4  -5   5    0.28    0.59
   4   5   5    0.68    0.37
   5  -5  -4    0.90    0.54
   5  -5   4    0.55    0.50
   5  -4  -5    0.79    0.61
   5  -4   5    0.46    0.57
  -5  -5   5    0.40    0.52
   5  -5  -5    1.21    0.60
   5  -5   5    0.05    0.59
   5   5   5    0.11    0.37
  -6   0   0    7.03    0.48
   0  -6   0    6.48    0.58
   0   6   0    5.95    0.67
   6   0   0    8.14    0.70
  -6   0   1   84.44    3.66
  -1  -6   0   84.69    3.69
   1  -6   0   82.56    3.77
   1   6   0   83.30    3.79
   6   0  -1   84.27    3.89
   6   0   1   87.14    3.77
   0  -6   1   85.07    3.75
   0   6   1   86.78    3.85
   6  -1   0   85.09    3.84
   6   1   0   85.40    3.80
  -6   1   0   83.99    3.68
   0  -6  -1   82.06    3.72
   6  -1   1   12.71    0.84
   6   1  -1   12.60    0.99
   6   1   1   12.13    0.77
   1   6  -1   11.17    0.85
  -6  -1   1   11.92    0.62
  -6   1   1   11.82    0.72
  -1  -6  -1   12.67    0.68
   1  -6  -1   12.64    0.82
   1  -6   1   12.32    0.81
  -1  -6   1   11.76    0.72
   6  -1  -1   12.09    0.96
   1   6   1   10.38    0.99
   6   0   2  216.91    8.86
   2  -6   0  202.24    8.90
   0   6   2  194.67    8.95
   6   0  -2  207.92    9.09
   2   6   0  206.16    8.95
  -6   2   0  187.62    8.96
   6   2   0  216.37    8.89
  -2  -6   0  198.20    8.68
   0  -6  -2  202.72    8.81
   0  -6   2  217.14    8.89
  -6   0   2  220.61    8.81
   6  -2   0  214.85    8.97
   6  -2  -1    9.17    0.85
   2  -6   1    8.37    0.70
   1   6   2    7.80    1.12
  -1  -6   2    7.73    0.60
   1  -6  -2    7.58    0.66
   6   1  -2    8.83    0.97
   6   2   1    8.43    0.59
   6  -1   2    8.81    0.70
  -6   1   2    8.42    0.62
  -6  -1   2    8.18    0.53
  -1  -6  -2    8.85    0.49
  -2  -6   1    8.30    0.53
   1   2   6    8.55    0.99
   2  -6  -1    8.18    0.73
  -6   2   1    7.59    0.61
   2   6   1    7.45    0.65
   6   2  -1    8.78    0.86
   6  -1  -2    8.60    0.93
   1  -6   2    8.32    0.68
   6   1   2    8.71    0.61
   6  -2   1    7.94    0.72
   6   2  -2  976.20   36.30
   2  -6   2  835.01   36.09
   2   6   2  902.71   36.03
  -6  -2   2  896.95   35.87
  -6   2   2 1000.00   36.07
  -2  -6   2  844.73   35.94
   2  -6  -2  739.55   36.04
   6   2   2  839.52   35.90
   6  -2   2  837.91   36.09
   6  -2  -2  749.31   36.16
   3  -6   0  159.77    7.43
   0   3   6  145.06    7.87
   6  -3   0  167.54    7.48
   6   3   0  181.13    7.40
  -6   3   0  177.74    7.37
   0  -6  -3  174.97    7.31
   0  -6   3  173.08    7.44
   0   6   3  176.94    7.52
   6   0   3  175.21    7.41
  -6   0   3  173.87    7.36
   6   0  -3  166.83    7.68
   3   6   0  177.67    7.36
   1   6   3   79.97    3.60
  -6   1   3   76.39    3.49
  -6   3  -1   75.19    3.45
   6  -1   3   77.15    3.54
  -1  -6   3   75.14    3.49
   6   1  -3   74.48    3.79
   1  -6  -3   76.06    3.48
   6  -3  -1   77.41    3.63
   3  -6   1   78.38    3.56
   6   3   1   79.68    3.36
   6  -1  -3   76.95    3.78
   6   3  -1   79.48    3.61
   1  -6   3   76.07    3.57
  -6  -1   3   75.77    3.47
   3  -6  -1   74.83    3.55
   6  -3   1   77.54    3.57
  -6   3   1   78.84    3.49
   3   6   1   75.05    3.40
   1   3   6   77.23    3.63
   6   1   3   75.33    3.45
   3  -6   2   67.58    3.26
   2  -6  -3   66.34    3.22
   6   3   2   66.88    2.96
  -3  -2   6   68.73    3.44
   6   2  -3   68.78    3.50
   6  -3  -2   75.01    3.40
  -2  -6   3   67.30    3.14
   6  -2   3   68.69    3.29
   2   6   3   68.96    3.22
  -6   2   3   72.60    3.23
   6  -3   2   70.36    3.28
  -6  -2   3   68.03    3.08
   2   3   6   69.26    3.29
  -3  -6   2   69.43    3.02
   2  -6   3   67.84    3.29
  -6   3   2   73.42    3.22
  -3  -6   2   68.16    3.09
   3  -6  -2   70.65    3.27
   6   3  -2   67.89    3.38
   6  -2  -3   72.70    3.47
   3   6   2   67.29    3.09
  -6  -3   3    0.73    0.24
  -6   3   3    1.34    0.43
   6  -3  -3    0.37    0.53
   3  -6   3    1.20    0.44
  -3  -6   3    1.14    0.43
  -3  -6   3    0.74    0.27
  -3  -3   6   -0.42    0.61
   6  -3   3    0.29    0.41
   3   6   3    1.25    0.39
   6   3  -3    1.06    0.62
   3  -6  -3    0.34    0.38
   6   0   4  197.15    8.41
  -6   0   4  191.07    8.33
   6  -4   0  187.77    8.41
   6   4   0  201.09    8.28
  -6   4   0  194.97    8.30
   0  -6   4  189.52    8.42
   0   6   4  198.66    8.47
   4  -6   0  184.38    8.37
   0   4   6  195.50    8.45
   6   0  -4  184.51    8.64
  -6   4  -1  133.89    5.87
  -6   1   4  131.03    5.91
   6   1  -4  133.76    6.26
   6  -1   4  136.62    6.03
   1  -6  -4  134.81    5.87
  -1  -6   4  136.22    5.97
   1   6   4  136.71    5.99
   6   4   1  129.53    5.74
  -4  -1   6  131.19    6.06
   4  -6   1  133.67    5.97
   6  -4  -1  132.63    6.02
  -6   4   1  147.99    5.94
   1   4   6  137.69    5.98
   1  -6   4  133.62    6.03
   6   4  -1  132.66    5.94
   6  -1  -4  130.80    6.21
   4   6   1  132.99    5.75
  -6  -1   4  128.30    5.87
   6  -4   1  132.10    5.99
   4  -6  -1  132.25    5.97
   6  -4  -2  187.96    8.36
   2  -6  -4  185.99    8.23
  -6   2   4  192.26    8.27
  -4  -2   6  190.52    8.39
   4  -6   2  176.42    8.27
  -2  -6   4  188.69    8.23
   4  -2  -6  189.70    8.48
   6   2  -4  188.18    8.57
   6  -2   4  191.79    8.37
   2   6   4  187.44    8.28
   4  -6  -2  181.74    8.29
  -6   4   2  204.35    8.27
   6  -4   2  188.87    8.31
   2   4   6  198.47    8.26
   2  -6   4  188.93    8.37
   6  -2  -4  188.83    8.53
  -6  -2   4  191.91    8.17
   4   6   2  189.72    8.03
   3  -6  -4   12.22    1.06
   3  -4   6   11.96    1.37
  -3  -6   4   11.75    0.92
  -6  -4   3   11.95    0.67
   4  -6   3   11.85    1.08
  -3  -6   4   12.59    1.16
  -6  -4   3   11.84    0.70
   6  -3   4   12.16    1.17
   3   6   4   11.83    1.02
   4  -3  -6   12.71    1.26
   6  -4  -3   12.95    1.17
  -4  -3   6   10.55    1.22
  -4  -6   3   12.44    0.73
   3  -4  -6   11.64    1.11
   3   4   6   11.90    1.06
  -3  -4   6   12.02    1.39
   4  -6  -3   11.43    1.05
  -4  -6   3   12.00    0.85
   3  -6   4   10.29    1.08
  -6  -3   4   11.44    0.90
   6  -4   3   11.96    1.09
   6  -3  -4   14.59    1.26
   4   6   3   11.89    0.83
  -4  -4   6  252.54   10.70
   4  -6  -4  233.00   10.64
   6  -4   4  242.52   10.74
   4  -4   6  228.01   10.83
  -4  -6   4  251.08   10.43
   4   6   4  260.52   10.42
  -4  -6   4  244.76   10.48
   6  -4  -4  240.35   10.77
  -6  -4   4  247.99   10.39
   4  -6   4  248.87   10.75
   4  -4  -6  235.97   10.71
   0   5   6   80.95    3.97
   5  -6   0   82.69    3.92
  -6   0   5   81.00    3.91
   0   6   5   81.87    4.00
   6   0  -5   83.56    4.29
  -6   5   0   91.78    4.32
   0  -6   5   82.80    4.05
   6  -5   0   83.39    3.94
  -5  -1   6    3.49    0.73
  -6   5  -1    3.67    0.61
   6  -5  -1    2.74    0.55
  -6   1   5    2.11    0.53
   5  -6   1    3.36    0.60
   1   6   5    2.97    0.65
   5  -1  -6    3.06    0.73
   6   1  -5    3.07    0.87
   1  -5   6    2.83    0.85
  -1  -6   5    2.48    0.62
   6  -1   5    3.39    0.72
  -6  -1   5    4.84    0.68
   6  -5   1    3.25    0.61
   1   5   6    2.89    0.65
   5  -6  -1    3.37    0.65
   1  -6   5    3.74    0.75
   6  -1  -5    3.45    0.80
  -1   6   5    2.11    0.66
   2   6   5    0.31    0.56
   2  -5   6    0.51    0.66
   6  -5  -2    1.83    0.62
   2  -6  -5    1.61    0.49
   5  -6   2    1.32    0.44
   6  -2   5    2.04    0.71
  -2  -6   5    1.73    0.57
   5  -2  -6    1.46    0.72
  -5  -2   6    1.10    0.63
   2   5   6    1.41    0.56
   6  -2  -5    1.02    0.62
   5  -6  -2    1.08    0.51
   2  -6   5    2.63    0.71
   5   6   2    1.86    0.28
  -6  -2   5    1.81    0.54
   6  -5   2    1.46    0.53
   6  -3   5   36.02    2.22
  -5  -3   6   36.47    2.11
   5  -6   3   36.90    2.10
  -3  -6   5   37.17    2.18
  -3  -6   5   34.22    2.00
   3  -6  -5   35.52    1.99
   3   6   5   33.09    1.94
   3  -5   6   32.49    2.28
   5  -3  -6   34.74    2.21
   6  -5  -3   37.77    2.10
   3  -5  -6   34.76    2.05
   5   6   3   35.16    1.63
   6  -3  -5   36.29    2.26
   3   5   6   32.37    1.89
  -5  -6   3   33.47    1.59
   3  -6   5   37.43    2.22
  -5  -6   3   36.42    1.58
  -6  -3   5   33.36    1.90
   5  -6  -3   36.85    2.06
   6  -5   3   37.39    2.10
  -3  -5   6   33.76    2.32
   5  -3   6   28.21    2.15
   4   6   5  145.37    6.16
   6  -4   5  139.84    6.54
  -6  -5   4  140.91    6.05
  -6  -5   4  143.80    6.06
   4  -5   6  132.39    6.60
  -4  -6   5  144.09    6.33
  -4  -6   5  141.78    6.28
   5  -6   4  138.19    6.49
  -5  -4   6  140.89    6.37
   6  -5  -4  140.71    6.48
   5  -4  -6  139.28    6.52
   4  -6  -5  138.49    6.40
  -5  -6   4  146.20    6.12
   4  -5  -6  136.72    6.42
   5   6   4  140.68    6.05
   4   5   6  137.61    6.14
   5  -6  -4  151.61    6.48
  -5  -6   4  144.49    6.07
   4  -6   5  138.68    6.56
   6  -4  -5  139.35    6.54
  -4  -5   6  135.03    6.43
   5  -4   6  124.73    6.54
  -6  -4   5  143.04    6.21
   6  -5   4  141.00    6.51
  -6  -5   5    3.90    0.71
  -5  -6   5    6.29    0.85
  -5  -6   5    4.78    0.73
  -5  -5   6    5.72    0.90
   5  -6  -5    5.30    0.90
   5  -6   5    7.95    1.11
   5  -5  -6    4.65    1.33
   5  -5   6    3.15    1.22
   5   5   6    6.67    0.72
   5   6   5    5.32    0.68
   6  -5  -5    5.98    0.96
  -6   0   6  457.96   19.89
   0  -6   6  453.12   20.08
   0   6   6  514.31   19.98
   6  -6   0  440.17   19.90
   6   0  -6  473.76   20.29
  -6  -1   6    2.34    0.68
  -6   1   6   -0.51    0.57
  -1  -6   6    0.72    0.64
   1  -6   6   -0.76    0.68
   1   6   6    1.33    0.68
   6  -6  -1   -0.22    0.47
   6  -6   1    0.10    0.43
   6  -1  -6    0.71    0.84
  -6  -2   6  646.60   26.15
  -2  -6   6  616.89   26.31
   2  -6   6  631.13   26.44
   6  -6  -2  563.02   26.18
   6  -6   2  604.26   26.21
   6  -2  -6  635.37   26.49
   6  -2   6  632.83   26.34
  -6  -3   6    0.12    0.65
  -3  -6   6    0.91    0.93
  -3  -6   6    0.38    0.71
   3  -6  -6   -0.28    0.52
   3  -6   6   -0.37    1.36
   3   6   6    1.09    0.64
   6  -6  -3   -0.03    0.60
   6  -6   3    0.17    0.62
   6  -3  -6    0.42    1.28
   6  -3   6   -1.06    0.67
  -6  -6   4  166.77    7.22
  -6  -6   4  175.66    7.22
  -6  -4   6  176.69    7.58
  -4  -6   6  166.50    7.68
  -4  -6   6  175.23    7.71
   4  -6  -6  164.80    7.66
   4  -6   6  161.13    7.90
   4   6   6  176.80    7.46
   6  -6  -4  172.35    7.75
   6  -6   4  176.30    7.83
   6  -4  -6  167.33    7.86
   6  -4   6  160.57    7.87
  -6  -6   5   -0.54    0.54
  -6  -6   5    1.08    0.51
  -6  -5   6    1.10    0.77
  -5  -6   6    1.01    0.85
  -5  -6   6    0.43    0.70
   5  -6  -6    1.01    0.71
   5  -6   6    0.14    0.82
   5   6   6    0.05    0.63
   6  -6  -5    1.11    0.73
   6  -6   5    0.35    0.76
   6  -5  -6    0.53    0.74
   6  -5   6    1.08    0.94
   6   6   5    0.47    0.50
  -6  -6   6  316.52   13.10
  -6  -6   6  302.23   13.10
   6  -6  -6  287.20   13.36
   6  -6   6  292.90   13.57
   6   6   6  319.29   12.92
   0   7   0    5.53    0.65
  -7   0   1    0.84    0.23
  -1  -7   0    1.35    0.29
   1  -7   0    1.94    0.37
   1   7   0    1.49    0.45
   7   0  -1    1.11    0.50
   7   0   1    0.89    0.35
   7  -1   0    1.25    0.44
   7   1   0    1.86    0.48
  -7   1   0    1.60    0.30
   0  -7  -1    1.28    0.32
   0  -7   1    1.52    0.34
   0   7  -1    1.14    0.43
   0   7   1    1.20    0.46
   1  -7  -1    0.69    0.33
   1  -7   1    0.45    0.29
   1   7  -1   -0.34    0.36
  -7   1   1    0.31    0.28
  -1  -7  -1    0.49    0.22
  -1   7   1   -0.31    0.45
   1   7   1    0.37    0.38
   7  -1  -1    0.07    0.40
  -7  -1   1    0.26    0.14
   7   1   1    0.16    0.35
  -1  -7   1    0.35    0.25
   7   1  -1    0.38    0.46
   7  -1   1   -0.07    0.32
   7   0  -2   32.38    1.95
  -7   2   0   32.11    1.59
   0  -7  -2   32.20    1.59
   0  -7   2   32.98    1.65
   0   7   2   29.94    1.78
   2   7   0   31.03    1.70
   7   0   2   32.67    1.67
  -7   0   2   33.96    1.56
  -2  -7   0   29.66    1.44
   2  -7   0   33.15    1.71
   7  -2   0   32.06    1.80
   7   2   0   34.60    1.76
   7   2   1    3.11    0.48
  -7   1   2    3.13    0.42
   7  -2  -1    3.08    0.68
   2  -7   1    2.30    0.45
   7  -1   2    3.05    0.53
   1  -7  -2    3.52    0.48
  -1  -7   2    4.02    0.46
   1   7   2    2.60    0.50
   7   1  -2    2.92    0.75
   1   2   7    3.83    0.79
   7   2  -1    4.44    0.71
   7   1   2    3.99    0.47
  -2  -7   1    3.24    0.40
   7  -2   1    2.47    0.50
  -7   2   1    3.69    0.47
   1  -7   2    3.99    0.53
  -7  -1   2    3.58    0.37
   2  -7  -1    3.61    0.55
   7  -1  -2    3.26    0.72
   2   7   1    3.38    0.50
   7  -2  -2    1.46    0.57
   2   7   2   -0.17    0.36
  -7  -2   2    0.16    0.15
   2  -7  -2    1.07    0.41
   2  -7   2   -0.09    0.32
  -2  -7   2    0.46    0.28
   7   2  -2    0.79    0.59
  -7   2   2    0.46    0.31
   7   2   2    0.47    0.27
   7  -2   2    0.13    0.36
  -7   0   3    2.96    0.42
  -7   3   0    2.12    0.42
   7  -3   0    2.67    0.58
   3  -7   0    2.73    0.48
   7   0   3    3.13    0.51
   7   3   0    2.55    0.66
   0  -7  -3    2.72    0.40
   0  -7   3    2.13    0.46
   3   7   0    2.92    0.49
   7   0  -3    3.65    0.83
   0   7   3    3.10    0.65
   7   3   1   16.97    1.04
  -1  -7   3   17.32    1.06
   1  -7  -3   16.83    1.08
  -7   3  -1   16.52    1.04
   7   1  -3   15.88    1.50
   7  -1   3   15.70    1.15
   7  -3  -1   16.90    1.31
   3  -7   1   18.16    1.16
  -7   1   3   17.23    1.06
   1   7   3   17.02    1.27
   3  -7  -1   16.73    1.18
  -7   3   1   16.77    1.09
   1  -7   3   16.47    1.15
   7   1   3   15.18    1.05
   3   7   1   15.24    1.04
   7  -1  -3   17.29    1.47
   1   3   7   17.33    1.42
   7  -3   1   15.18    1.17
   7   3  -1   16.03    1.31
  -2  -7   3   30.75    1.58
   2   7   3   30.57    1.74
   7  -2   3   29.65    1.76
  -7   2   3   30.79    1.64
   7   2  -3   30.15    2.07
   7  -3  -2   29.33    1.88
   3  -7   2   31.68    1.76
   2  -7  -3   30.57    1.70
   2  -7   3   30.76    1.76
   3  -7  -2   31.58    1.74
   7   2   3   29.31    1.52
   2   3   7   31.40    1.91
  -7   3   2   32.00    1.65
   7   3  -2   30.28    1.94
   7  -2  -3   31.45    1.96
  -7  -2   3   31.19    1.48
   7  -3   2   30.24    1.76
  -3  -7   2   30.65    1.45
  -3  -7   2   29.06    1.53
   7   3   3    0.03    0.24
   7   3  -3    0.01    0.74
   3  -7   3    0.49    0.46
  -3  -7   3    0.61    0.49
  -7   3   3    0.49    0.43
   3   7   3    0.51    0.51
   7  -3  -3    0.24    0.53
   7  -3   3    0.07    0.42
  -7  -3   3    0.32    0.19
   3  -7  -3    0.26    0.43
  -3  -7   3    0.09    0.27
   7  -4   0   16.30    1.22
   0   7   4   15.12    1.30
   0   4   7   15.68    1.39
   7   0   4   14.48    1.20
  -7   0   4   14.92    1.04
  -7   4   0   13.10    1.03
   7   4   0   14.56    1.19
   0  -7   4   14.04    1.13
   4  -7   0   16.23    1.15
   7   0  -4   14.61    1.56
   7  -1   4   11.55    1.10
   7   4   1   11.10    0.92
   7   1  -4   11.43    1.39
  -1  -7   4   11.59    0.98
   1   7   4   11.45    1.21
   7  -4  -1   11.83    1.15
   4  -7   1   11.53    1.01
  -7   4  -1   11.00    0.96
   1  -7  -4   11.15    0.90
  -7   1   4   10.70    0.96
   7  -1  -4   11.28    1.40
  -1   7   4   12.06    1.28
  -7  -1   4   12.04    0.89
   7   4  -1   12.72    1.21
   1   4   7    9.34    1.21
  -7   4   1   11.85    1.01
   7   1   4   11.73    1.02
   7  -4   1   11.54    1.02
   4  -7  -1   10.85    1.05
   1  -7   4   11.78    1.08
   7  -2   4    9.42    1.11
  -4  -2   7   11.85    1.48
   2   7   4    9.83    1.13
   7   4   2    8.19    0.65
  -7   2   4   10.98    1.01
   7   2  -4    8.83    1.32
   2  -7  -4    9.87    0.94
   7  -4  -2    9.81    1.11
  -2  -7   4   10.82    0.91
   4  -7   2    8.75    0.96
   2   4   7   11.43    1.18
   7  -4   2   10.39    1.03
   7   2   4    9.37    0.92
  -7  -2   4    9.97    0.82
  -7   4   2   10.81    0.95
   2  -7   4    8.79    1.06
   4   7   2    9.86    0.79
   4  -7  -2   10.09    1.01
   7   4  -2    9.93    1.25
   4  -7   3   20.43    1.46
   7  -4  -3   20.59    1.57
  -3  -7   4   20.14    1.23
  -3  -7   4   20.95    1.50
   3  -7  -4   18.45    1.39
   7  -3   4   19.84    1.53
   3   7   4   19.95    1.40
   4   7   3   18.58    1.14
  -4  -7   3   19.54    1.14
  -4  -7   3   18.82    1.02
   7  -4   3   20.97    1.48
   7  -3  -4   21.38    1.69
   4  -7  -3   19.33    1.41
   3   4   7   17.79    1.51
  -7   4   3   19.24    1.61
   3  -7   4   19.69    1.50
  -7  -4   4    0.42    0.31
   4  -4   7    0.25    0.77
  -4  -7   4    0.65    0.38
   7  -4   4    0.58    0.60
   4   7   4    0.71    0.57
   4  -7   4   -0.06    0.90
  -4  -7   4    0.45    0.56
   4  -7  -4    0.68    0.60
   0   7   5   16.61    1.61
  -7   0   5   21.47    1.42
   5  -7   0   21.85    1.47
   7  -5   0   22.80    1.53
   0  -7   5   22.50    1.57
   0   5   7   22.16    1.99
   7   0  -5   19.86    1.87
  -7   5   0   21.32    1.41
   7  -5  -1    1.17    0.63
   7   1  -5    1.57    0.92
  -5  -1   7    1.73    0.78
   7  -1   5    1.54    0.66
  -7   5  -1    1.82    0.55
  -7   1   5    1.74    0.57
   7   5   1    1.26    0.50
  -1  -7   5    2.08    0.64
   5  -7   1    0.95    0.56
   1   7   5    0.98    0.68
   7  -5   1    0.70    0.47
   7   1   5    0.87    0.65
   7  -1  -5    0.99    0.81
  -7  -1   5    0.50    0.53
   1  -7   5    0.81    0.57
   5  -7  -1    0.95    0.52
   1   5   7    1.91    0.72
   7  -5  -2    0.82    0.59
   2  -5   7    1.56    0.88
   7  -2   5    1.18    0.70
  -2  -7   5    1.40    0.61
   5  -7   2    0.52    0.55
   2  -7  -5    0.52    0.51
   2   7   5    0.72    0.67
   2  -7   5    0.70    0.56
   5  -7  -2    0.82    0.54
  -7  -2   5    0.19    0.51
   2   5   7    1.73    0.70
   7  -2  -5    1.84    0.85
   7  -5   2    0.83    0.56
   5   7   2   -0.18    0.37
   7  -3   5   31.22    2.14
   7  -5  -3   31.24    2.27
  -3  -7   5   32.21    1.85
  -3  -7   5   31.82    2.14
   5  -7   3   31.42    2.12
   5  -3  -7   27.83    3.07
   3   7   5   30.54    1.95
   3  -5   7   29.58    3.31
  -5  -3   7   25.68    2.74
   3  -7  -5   31.85    1.86
   3   5   7   30.06    1.91
   5   7   3   30.49    1.54
  -7  -3   5   30.59    1.75
   7  -5   3   31.78    1.99
   3  -7   5   26.26    2.56
   5  -7  -3   34.53    1.99
   7  -3  -5   31.44    2.50
   5  -4  -7   24.95    1.97
  -5  -4   7   24.35    2.04
  -7  -5   4   26.20    1.20
   4   7   5   22.01    1.75
  -4  -7   5   24.39    1.81
  -4  -7   5   26.08    1.56
   7  -5  -4   26.94    1.91
  -7  -5   4   25.30    1.21
   5  -7   4   28.80    1.92
   7  -4   5   26.99    2.04
   4  -7  -5   23.41    1.76
   4  -5   7   23.99    2.13
   4   5   7   24.21    1.67
  -7  -4   5   24.56    1.50
  -5  -7   4   24.91    1.42
  -4  -5   7   22.79    2.19
   5  -7  -4   21.11    2.02
   4  -7   5   24.42    1.97
   5  -4   7   20.76    2.61
  -5  -7   4   25.41    1.31
   7  -5   4   25.38    1.92
   4  -5  -7   26.86    1.86
   5   7   4   24.55    1.42
   7  -4  -5   28.18    2.04
   5  -5   7   -0.03    0.85
   5   5   7   -1.08    0.67
   5   7   5   -0.21    0.69
   7  -5  -5   -0.73    0.77
  -5  -7   5    0.00    0.47
  -5  -5   7    0.07    0.97
   5  -7  -5    0.38    0.63
   5  -7   5    0.37    0.80
  -7  -5   5   -0.25    0.48
  -5  -7   5    0.56    0.66
   7  -5   5    0.32    0.79
  -7  -5   5   -0.29    0.53
   5  -5  -7   -0.26    0.75
   0   7   6   45.65    2.72
   0   6   7   41.88    2.72
   7  -6   0   52.19    2.66
  -7   0   6   44.65    2.57
   7   0  -6   43.05    4.17
   0  -7   6   47.54    2.74
   6  -7   0   53.17    2.64
   7   0   6   42.25    2.65
   7  -1   6   20.85    1.84
  -1  -7   6   23.81    1.83
   1   7   6   21.98    1.89
   7  -6  -1   25.33    1.75
   1  -6   7   24.09    1.97
   6  -7   1   23.53    1.66
  -7  -1   6   23.59    1.72
   6  -7  -1   28.00    1.75
   1   6   7   20.20    1.97
   7  -6   1   24.06    1.69
  -1  -6   7   26.58    2.25
   1  -7   6   15.43    2.26
   7  -1  -6   24.60    2.21
   2   7   6    2.21    0.87
  -2  -7   6    2.11    0.76
   7  -2   6    1.88    0.83
   7  -6  -2    3.96    0.76
   6  -2  -7    3.73    1.01
   2  -6   7    1.71    0.85
   6  -7   2    0.72    0.58
  -6  -2   7    3.22    1.04
  -7  -2   6    2.76    0.79
   2   6   7    4.70    0.88
   6  -7  -2    2.53    0.74
   2  -7   6    2.25    0.86
   7  -2  -6    1.32    0.83
   7  -6   2    1.51    0.71
   6  -2   7    2.99    0.87
  -3  -7   6   48.01    3.00
   7  -3   6   43.51    2.89
  -6  -3   7   45.90    2.77
   6  -7   3   51.74    2.78
   3  -6   7   42.59    2.98
   7  -6  -3   50.10    2.75
   3  -7  -6   49.21    2.61
   6  -3  -7   51.12    3.06
  -3  -7   6   53.50    2.74
   3   7   6   43.30    2.63
   3  -7   6   45.20    2.89
  -7  -3   6   45.36    2.58
   6  -3   7   52.81    2.97
   3   6   7   43.68    2.65
   7  -6   3   49.04    2.75
   6   7   3   44.05    2.16
   6  -7  -3   49.80    2.72
   7  -3  -6   48.59    2.96
   7  -4   6   40.93    2.82
  -6  -4   7   38.68    2.63
  -4  -7   6   41.29    2.75
   6  -4  -7   42.00    2.81
  -4  -7   6   44.56    2.46
   7  -6  -4   45.72    2.66
   4   7   6   41.46    2.52
   6  -7   4   44.55    2.69
   4  -6   7   39.95    2.90
   4  -7   6   41.95    2.80
   7  -6   4   51.47    2.81
   7  -4  -6   43.39    2.81
   6   7   4   40.87    2.00
  -7  -4   6   41.04    2.41
   4  -6  -7   42.63    2.58
   6  -4   7   40.92    2.79
   4   6   7   43.76    2.47
   6  -7  -4   44.46    2.59
  -7  -6   5    2.91    0.49
  -6  -5   7    3.22    1.07
   6  -7   5    3.65    1.01
  -5  -7   6    2.70    0.81
   7  -5   6    2.16    1.10
   5   7   6    2.69    1.02
   6   5   7    1.63    0.83
   7  -6  -5    3.16    0.98
   5  -7  -6    2.58    0.86
   5  -6   7    2.51    1.07
  -5  -7   6    2.87    1.03
   6  -5  -7    3.72    1.03
   5   6   7    4.00    0.88
   7  -5  -6    2.21    0.97
   5  -6  -7    1.59    0.91
   5  -7   6    2.74    1.08
  -7  -5   6    1.45    0.81
   6  -7  -5    2.23    0.92
   6  -5   7    2.55    1.21
  -6  -7   5    2.92    0.53
  -5  -6   7    3.26    1.19
   7  -6   5    3.65    1.08
  -7  -6   6    0.44    0.67
  -6  -7   6    0.24    0.65
  -6  -6   7    0.88    1.02
   6  -7  -6   -0.70    0.87
   6  -7   6    0.76    1.05
   6  -6  -7    0.74    1.09
   6  -6   7    0.77    1.17
   7  -6  -6    0.24    0.97
   7  -6   6    0.44    1.17
   0  -7   7   24.65    2.13
   7  -7   0   26.40    1.90
  -1  -7   7    0.29    0.83
   1  -7   7    0.22    0.90
   1   7   7   -0.11    0.95
   7  -7  -1    1.03    0.65
   7  -7   1    0.68    0.68
   7  -1  -7    0.06    1.00
   7  -1   7    0.51    0.80
  -2  -7   7    5.38    1.13
   2  -7   7    6.00    1.16
   2   7   7    6.07    1.14
   7  -7  -2    5.74    0.96
   7  -7   2    5.17    0.86
   7  -2  -7    5.32    1.33
   7  -2   7    5.64    1.10
  -7  -3   7    0.30    0.97
  -3  -7   7   -0.82    0.81
   3  -7   7   -0.70    0.95
   3   7   7   -1.38    0.96
   7  -7  -3    0.97    0.77
   7  -7   3    0.12    0.76
   7  -3  -7   -1.85    0.91
   7  -3   7   -1.03    0.91
  -7  -4   7    4.83    1.07
   4  -7  -7    5.24    0.99
   4  -7   7    2.16    1.10
   4   7   7    3.11    1.21
   7  -7  -4    5.06    1.05
   7  -7   4    3.52    1.04
   7  -4  -7    2.72    1.17
   7  -4   7    2.95    1.16
  -5  -7   7   -1.00    0.91
   5  -7  -7   -1.20    0.83
   5  -7   7    0.28    1.18
   7  -7  -5   -0.62    0.88
   7  -7   5    2.68    1.09
   7  -5  -7    0.62    1.01
   7  -5   7   -0.47    1.27
  -7  -6   7   36.83    2.44
  -6  -7   7   39.63    2.50
   6  -7  -7   41.27    2.80
   6  -7   7   38.03    3.12
   7  -7  -6   41.00    2.77
   7  -7   6   33.37    3.11
   7  -6  -7   34.38    2.85
   7  -6   7   32.07    3.04
   7  -7  -7   -1.02    1.25
   7  -7   7    0.03    1.42
   0  -8   0  855.90   38.01
   0   8   0  912.27   38.19
   8   0   0  961.99   38.24
  -8   0   1    2.89    0.33
  -1  -8   0    2.60    0.40
   1  -8   0    2.77    0.51
   1   8   0    1.75    0.60
   8   0  -1    3.50    0.72
   8   0   1    2.42    0.56
   0  -8  -1    2.57    0.44
   0  -8   1    2.76    0.46
   0   8   1    3.26    0.65
   8  -1   0    1.86    0.56
   8   1   0    2.63    0.60
   8  -1  -1   36.29    2.15
   8  -1   1   39.11    2.07
   8   1  -1   37.68    2.18
   8   1   1   38.66    2.01
   1   8  -1   34.18    2.09
   1   8   1   35.55    2.02
  -8   1   1   34.25    1.88
  -1  -8  -1   38.87    1.75
   1  -8  -1   39.80    1.95
   1  -8   1   37.36    1.94
  -1  -8   1   39.02    1.85
   8   0  -2  279.11   12.34
   8   0   2  285.58   12.10
   2   8   0  281.46   12.14
  -8   2   0  288.20   11.97
   0  -8  -2  271.45   11.95
   0  -8   2  279.57   12.05
   0   8   2  267.86   12.19
   8   2   0  317.97   12.45
  -8   0   2  287.32   12.00
   2  -8   0  261.45   12.09
   8  -2   0  287.82   12.26
   8   1  -2   68.00    3.45
   1   8   2   65.00    3.23
   8   2   1   70.24    3.15
   2  -8   1   64.81    3.16
  -1  -8   2   66.42    3.05
   8  -2  -1   70.18    3.39
   8  -1   2   65.08    3.21
  -8   1   2   65.27    3.00
   1  -8  -2   66.22    3.10
  -1   8   2   68.69    4.01
   2   8   1   59.91    3.14
   8  -1  -2   60.82    3.39
   8   1   2   67.23    3.12
   1  -8   2   65.43    3.15
   8   2  -1   70.45    3.37
   2  -8  -1   65.92    3.17
  -8  -1   2   67.24    2.90
  -8   2   1   64.16    3.02
   8  -2   1   65.90    3.26
  -2  -8   1   66.82    2.94
   2   8   2  187.15    8.29
   8  -2  -2  190.99    8.56
   8  -2   2  188.36    8.39
   8   2  -2  186.75    8.55
   8   2   2  201.46    8.21
  -8   2   2  202.05    8.21
   2  -8  -2  178.69    8.28
   2  -8   2  184.04    8.32
  -2  -8   2  192.31    8.14
   0   8   3   71.40    3.80
  -8   0   3   77.84    3.50
   3  -8   0   79.18    3.73
   3   8   0   74.90    3.70
   8   0  -3   78.21    4.05
   0  -8  -3   76.17    3.48
   8  -3   0   81.93    3.87
   8   3   0   82.87    3.76
   0  -8   3   78.96    3.65
  -8   3   0   80.26    3.58
   8   1  -3    0.55    0.78
  -1  -8   3    0.50    0.37
   1   8   3    0.61    0.59
   8  -3  -1    0.80    0.58
   1  -8  -3    0.22    0.37
   3  -8   1    0.58    0.41
  -8   1   3   -0.20    0.35
   8  -1   3    2.10    0.55
   8   3   1    0.29    0.48
   8   3  -1    0.75    0.66
   8  -3   1    0.10    0.47
   8   1   3    0.69    0.41
   1  -8   3    0.82    0.44
   3  -8  -1    1.78    0.51
   8  -1  -3    1.58    0.73
  -8   3   1   -0.35    0.41
   3   8   1    0.73    0.52
   2  -8  -3  113.12    5.25
   8   2  -3  112.44    5.62
   3  -8   2  116.51    5.34
   8  -3  -2  119.90    5.52
   2   8   3  112.81    5.27
   8   3   2  120.54    5.10
   8  -2   3  116.97    5.36
  -8   2   3  120.12    5.20
  -2  -8   3  120.53    5.14
  -8   3   2  115.07    5.19
   8   2   3  115.01    5.11
   3   8   2  113.64    5.19
   8  -2  -3  113.24    5.56
   8   3  -2  114.33    5.61
  -8  -2   3  118.09    4.98
   2   3   8  120.33    5.50
   8  -3   2  118.49    5.40
  -3  -8   2  112.26    4.98
   2  -8   3  116.61    5.33
   3  -8  -2  118.83    5.33
  -3  -8   2  114.03    5.04
   8   3  -3   18.82    1.97
  -8   3   3   22.51    1.41
  -3  -8   3   20.75    1.17
   3  -8  -3   21.82    1.49
   3  -8   3   22.03    1.51
   8   3   3   20.48    1.15
   8  -3   3   21.43    1.57
   8  -3  -3   20.20    1.73
   3   8   3   18.32    1.36
  -8   0   4  636.27   25.84
   8  -4   0  574.46   26.09
   8   0  -4  555.99   26.30
   8   4   0  668.04   26.01
  -8   4   0  658.50   25.90
   0   8   4  659.03   26.16
   0  -8   4  608.39   25.99
   4  -8   0  558.58   25.99
   8   0   4  615.36   25.99
   4  -8   1    0.85    0.52
   1   8   4    1.11    0.75
  -8   1   4    0.30    0.50
   8   4   1    0.11    0.52
   8  -4  -1    0.97    0.64
   1  -8  -4   -0.06    0.42
   8   1  -4   -0.13    0.83
  -1  -8   4   -0.58    0.41
   8  -1   4    0.69    0.60
   8  -1  -4    0.19    0.86
   1   4   8   -0.84    0.78
   8   1   4    0.71    0.51
  -8  -1   4   -0.17    0.40
  -8   4   1   -0.48    0.50
   8  -4   1   -0.01    0.53
   4   8   1    0.44    0.54
   4  -8  -1    0.06    0.45
   8   4  -1    1.22    0.76
   1  -8   4   -0.62    0.48
   8   2  -4   89.58    4.96
   8   4   2   98.14    4.26
  -2  -8   4   95.25    4.39
   2   8   4   95.10    4.57
   8  -2   4   96.41    4.64
   2  -8  -4   93.50    4.43
  -8   2   4  100.42    4.44
  -8   4   2   97.77    4.50
   8  -4   2   95.14    4.64
   8  -2  -4  104.37    5.09
   8   4  -2   92.51    4.74
   4  -8  -2   97.48    4.56
   2  -8   4   94.81    4.59
   8   2   4   95.33    4.33
   2   4   8   97.08    4.66
  -8  -2   4  100.68    4.26
   4   8   2   91.01    4.31
   3   8   4    2.70    0.72
  -3  -8   4    3.47    0.84
  -3  -8   4    2.18    0.49
   8  -4  -3    2.56    0.86
   8  -3   4    2.24    0.73
   3  -8  -4    2.34    0.68
   8   4   3    2.54    0.43
   4  -8   3    1.73    0.64
  -8  -3   4    2.26    0.39
   3   4   8    2.99    0.87
   4  -8  -3    1.92    0.65
  -4  -8   3    2.25    0.35
   4   8   3    3.53    0.59
   8  -3  -4    2.87    0.91
   8  -4   3    2.06    0.70
   3  -8   4    2.41    0.74
  -4  -8   3    2.92    0.47
   8   3   4    2.43    0.47
   4   4   8  726.82   27.27
   8  -4  -4  575.74   27.46
  -8  -4   4  659.08   26.85
  -4  -8   4  617.16   26.96
   4  -8  -4  590.95   27.27
   4  -8   4  631.64   27.43
  -4  -8   4  710.13   27.20
  -8  -4   4  671.55   26.82
   4   8   4  685.05   27.10
   8  -4   4  569.19   27.77
   5  -8   0    1.92    0.64
   0  -8   5    2.77    0.71
  -8   5   0    2.22    0.65
   0   8   5    3.54    0.98
   8  -5   0    3.44    0.82
   8   5   0    2.98    0.75
  -8   0   5    2.60    0.70
   8   0   5    3.54    0.82
  -8   1   5   32.25    1.95
  -1  -8   5   33.63    1.99
   5  -8   1   32.59    2.02
   8  -5  -1   31.70    2.12
   8  -1   5   32.06    2.16
   1   8   5   32.11    2.23
   8   5   1   30.03    1.83
   8   1  -5   28.96    2.72
   5  -8  -1   34.11    2.02
  -8  -1   5   35.12    1.86
   1   5   8   28.99    2.26
   8  -5   1   31.99    2.08
   8  -1  -5   30.88    2.44
   8   1   5   32.31    2.04
   8  -2   5   45.28    2.81
   8   2  -5   42.31    3.13
   8  -5  -2   49.33    2.77
   2   8   5   46.90    2.75
   5  -8   2   48.79    2.67
  -2  -8   5   46.99    2.51
   2  -8  -5   44.52    2.45
   5   8   2   45.58    2.32
  -8  -2   5   48.99    2.38
   8  -2  -5   45.13    2.99
   2   5   8   44.25    2.73
   8  -5   2   47.67    2.70
   8   2   5   46.87    2.50
   2  -8   5   46.72    2.72
   5  -8  -2   50.19    2.65
   3  -8  -5    0.72    0.62
   8  -3   5    0.47    0.79
   3  -5   8    2.51    0.99
   5  -8   3    0.57    0.66
  -3  -8   5    1.14    0.59
   3   8   5    1.61    0.91
  -3  -8   5    0.89    0.96
   8  -5  -3    0.34    0.75
   3   5   8   -0.70    0.82
   8   3   5   -1.01    0.58
   8  -3  -5    2.58    0.96
   5   8   3    0.80    0.52
  -8  -3   5    0.49    0.50
   8  -5   3    0.12    0.72
   3  -8   5    0.78    0.79
   5  -8  -3    0.81    0.63
  -4  -8   5    8.56    0.99
   5  -8   4    9.26    1.27
  -4  -8   5   10.83    1.25
   8  -4   5    8.17    1.25
   4  -8  -5    9.00    1.11
   4   8   5   10.61    1.16
   4  -5   8   14.99    1.84
   8  -5  -4    6.33    1.11
   8   4   5    7.83    0.96
   4  -8   5    7.40    1.21
  -5  -8   4    7.72    0.81
  -8  -4   5    8.87    0.93
   8  -4  -5    8.12    1.23
   8  -5   4    7.21    1.14
   4   5   8    8.28    1.18
   5   8   4    7.06    0.81
  -5  -8   4    8.73    0.67
   5  -8  -4    9.23    1.11
  -8  -5   5   14.66    0.96
   5  -5   8   16.84    2.05
   5  -8   5   15.42    1.87
   8  -5  -5   12.69    1.52
   8  -5   5   14.91    1.93
   5   5   8   12.89    1.36
   5  -8  -5   16.07    1.63
  -5  -8   5   12.52    1.09
   6  -8   0   89.11    4.38
   8   0   6   85.12    4.40
   8   0  -6   90.07    4.96
   0  -8   6   87.06    4.43
   8  -6   0   89.77    4.45
  -1  -8   6   54.49    3.09
   1   8   6   57.50    3.35
   8  -6  -1   58.29    3.13
   8  -1   6   53.22    3.23
   6  -8   1   56.20    3.05
   8  -6   1   55.88    3.11
   8   1   6   52.88    3.04
   8  -1  -6   58.12    3.59
  -8  -1   6   51.70    2.89
   1  -8   6   56.91    3.19
   6  -8   2   89.53    4.39
   8  -6  -2   90.05    4.42
  -2  -8   6   87.05    4.30
   2   8   6   79.97    4.45
   8  -2  -6   87.46    4.76
   2   6   8   88.05    4.37
  -8  -2   6   82.95    4.13
   2  -8   6   85.12    4.50
   8  -6   2   86.89    4.40
   8   2   6   83.40    4.20
   6  -8  -2   92.98    4.36
   3  -8  -6    7.12    1.02
  -3  -8   6    7.13    1.02
   8  -3   6    8.09    1.37
   3   8   6    6.89    1.38
   6  -8   3    6.76    1.10
  -3  -8   6    4.93    1.41
   8  -6  -3    7.94    1.21
   3  -6   8    8.08    1.43
   3   6   8    7.18    1.21
   6  -8  -3    6.86    1.05
   8  -6   3    8.44    1.23
   8  -3  -6    4.83    1.20
   6  -3   8    8.31    1.23
  -8  -3   6    6.91    0.98
   3  -8   6    7.26    1.20
   6   8   3    6.33    0.77
  -4  -8   6  127.00    5.74
  -4  -8   6  123.57    6.17
   8  -6  -4  125.41    6.08
   4  -8  -6  122.39    5.87
   8  -4   6  119.38    6.24
   6  -8   4  125.89    6.12
   6  -8  -4  131.56    6.02
   8  -6   4  117.97    6.11
   4  -8   6  126.94    6.24
   4   6   8  123.64    5.89
   8  -4  -6  126.00    6.24
  -5  -8   6   33.85    2.00
   8  -6  -5   28.80    2.45
   5  -8  -6   28.81    2.27
   8  -5   6   28.99    2.74
   6  -8   5   33.93    2.62
   5  -6   8   36.54    2.88
   6  -5   8   40.10    2.85
   6  -8  -5   31.57    2.33
  -8  -5   6   31.40    1.98
   8  -5  -6   32.72    2.61
   8  -6   5   34.24    2.72
   5  -8   6   29.60    2.73
   6  -8  -6  116.87    5.74
   6  -6   8  129.15    6.16
   8  -6  -6  112.22    5.89
   6  -6  -8  113.76    5.83
   6  -8   6  113.00    6.58
   8  -6   6  109.25    6.11
   0  -8   7    3.72    1.15
   8  -7   0    2.41    0.82
   0  -7   8    1.77    1.09
   8   0   7    1.34    1.00
   7  -8   0    3.33    0.81
  -1  -8   7   11.14    1.51
   8  -1   7   10.78    1.47
   7  -8   1   12.61    1.44
   8  -7  -1   12.05    1.53
   1  -7   8   16.91    2.07
   8  -1  -7   12.56    1.92
   8   1   7   15.32    1.68
   8  -7   1   14.12    1.56
  -1  -7   8   17.94    2.05
   1  -8   7   10.68    1.47
   7  -8  -1   12.06    1.52
   8  -2   7   46.34    3.34
   2  -7   8   69.71    3.69
  -2  -8   7   51.60    3.29
   8  -7  -2   60.46    3.27
   7  -8   2   54.01    3.22
   8  -2  -7   58.98    3.79
  -2  -7   8   61.25    3.47
   2  -8   7   48.50    3.34
   8  -7   2   52.80    3.22
   7  -8  -2   58.03    3.23
  -3  -8   7    0.81    1.01
   3  -7   8    1.27    1.25
   7  -8   3   -0.08    0.88
   8  -3   7    0.22    1.13
   8  -7  -3    0.54    0.94
   7  -3   8   -0.41    0.99
   8  -7   3   -0.57    0.91
   3  -8   7    0.02    1.04
  -3  -7   8    1.26    1.07
   8  -3  -7    0.21    1.16
   7  -8  -3   -0.64    0.86
   7  -8   4    4.21    1.70
   8  -7  -4    6.08    1.24
  -4  -8   7    8.26    1.30
   4  -8  -7    8.48    1.24
   8  -4   7    6.15    1.56
   7  -4  -8    7.43    1.44
   4  -7   8    7.10    1.55
   7  -4   8   11.68    1.65
   8  -7   4    7.93    1.49
  -4  -7   8    7.56    1.44
   4  -8   7    8.19    1.58
   7  -8  -4    9.67    1.32
   8  -4  -7    9.51    1.58
   8  -5   7   24.47    2.76
   8  -7  -5   27.19    2.45
   7  -5  -8   27.61    2.69
   5  -8  -7   21.64    2.30
   5  -7   8   26.16    2.75
   7  -8   5   26.04    2.64
   5  -8   7   24.68    2.74
   7  -5   8   28.63    2.69
   8  -7   5   26.57    2.74
   7  -8  -5   25.83    2.37
  -5  -7   8   22.47    2.50
   8  -5  -7   27.02    2.60
   7  -6  -8   37.89    3.20
   8  -7  -6   50.91    3.29
   6  -7   8   41.81    3.45
  -7  -6   8   36.70    3.03
   7  -8   6   40.87    3.44
   6  -8  -7   44.52    3.09
   8  -6   7   37.69    3.43
   7  -8  -6   45.00    3.06
   8  -6  -7   40.03    3.17
   6  -8   7   36.33    3.46
  -6  -7   8   34.88    2.94
   7  -6   8   41.09    3.38
   6  -7  -8   44.65    3.14
   8  -7   6   40.32    3.45
   7  -8  -7    0.42    1.53
   7  -7  -8    3.72    1.58
   8  -7  -7    1.23    1.61
   0  -8   8  407.61   17.74
   8  -8   0  398.24   17.61
  -1  -8   8   -0.26    1.11
   1  -8   8    1.01    1.24
   8  -8  -1    0.37    0.85
   8  -8   1    2.16    1.08
   8  -1   8   -1.17    0.99
  -2  -8   8  127.59    6.81
   2  -8   8  146.71    7.05
   8  -8  -2  145.35    6.80
  -3  -8   8    2.08    1.32
   3  -8   8    0.53    1.19
   8  -8  -3    0.67    1.01
   8  -8   3    1.17    1.20
   8  -3  -8    0.01    1.34
   8  -3   8    1.04    1.24
  -4  -8   8  411.03   19.37
   4  -8   8  457.34   19.79
   8  -8  -4  416.76   19.45
   8  -8   4  433.55   19.68
   8  -4  -8  450.61   19.78
   8  -4   8  515.44   19.75
  -5  -8   8    0.31    1.38
   5  -8   8    2.02    1.67
   8  -8  -5   -0.25    1.28
   8  -8   5    0.45    1.64
   8  -5  -8    0.89    1.56
   8  -5   8   -0.18    1.52
   0  -9   0    0.37    0.42
   9   0   0    0.92    0.60
  -1  -9   0    6.52    0.71
   1  -9   0    7.57    0.91
   9   0  -1    6.57    1.01
   9  -1   0    6.79    1.07
   9   1   0    7.35    0.97
   0  -9  -1    5.79    0.75
   0  -9   1    6.98    0.82
  -1  -9   1    0.33    0.37
   1  -9  -1    0.05    0.44
   9   1  -1    0.03    0.64
   9   1   1    1.89    0.63
   1  -9   1    0.55    0.43
   1   9   1   -0.08    0.68
   9  -1  -1    1.25    0.73
   9  -1   1   -0.04    0.55
  -1  -9  -1   -0.01    0.30
  -9   0   2  119.23    4.99
   9   0   2  118.50    5.32
   9  -2   0  118.84    5.49
   0   9   2   98.63    5.69
   2  -9   0  114.58    5.26
   9   2   0  123.20    5.39
   0  -9  -2  113.22    5.05
   9   0  -2  113.07    5.56
   0  -9   2  115.89    5.18
   9  -1   2   21.78    1.62
   9   1  -2   22.04    1.94
  -9   1   2   23.34    1.29
   9   2   1   23.96    1.59
   1  -9  -2   22.88    1.43
  -1  -9   2   22.77    1.36
   2  -9   1   21.79    1.49
   9  -2  -1   22.89    1.81
   1  -9   2   23.73    1.48
   2   9   1   22.62    1.70
  -9  -1   2   22.87    1.09
  -9   2   1   23.33    1.32
   9  -2   1   22.42    1.74
   2  -9  -1   23.75    1.52
   9   2  -1   22.15    1.83
   9  -1  -2   23.11    1.90
   9   1   2   22.15    1.51
  -2  -9   1   22.57    1.21
   9   2   2    0.30    0.52
   2   9   2    0.99    0.67
   9  -2  -2    1.19    0.79
   9  -2   2    1.00    0.64
  -9   2   2    0.85    0.48
  -2  -9   2    0.60    0.38
   2  -9  -2    0.65    0.50
   2  -9   2    0.95    0.51
   9   2  -2    0.35    1.33
   9  -3   0   38.28    2.37
  -9   3   0   39.21    2.04
   0  -9  -3   37.82    1.89
   0  -9   3   36.91    2.08
   0   9   3   38.40    2.75
   9   0  -3   42.24    2.69
   9   3   0   39.24    2.33
  -9   0   3   38.54    1.90
   3  -9   0   39.52    2.20
   9   0   3   36.14    2.15
   9  -1   3    3.38    0.71
  -9   1   3    3.35    0.57
   9   3   1    3.76    0.77
  -1  -9   3    3.53    0.62
   1   9   3    4.82    0.94
   3  -9   1    3.67    0.72
   9   1  -3    4.31    1.04
   1  -9  -3    2.73    0.60
   9  -3   1    2.91    0.84
   1  -9   3    3.69    0.67
   3  -9  -1    3.40    0.69
   9  -1  -3    4.98    1.08
  -9  -1   3    2.57    0.42
   3   9   1    3.34    0.79
   9   1   3    2.89    0.66
  -9   3   1    3.01    0.58
   9   3  -1    3.84    0.93
   2   9   3   16.86    1.49
   2  -9  -3   16.99    1.32
  -2  -9   3   15.98    1.12
  -9   2   3   17.93    1.24
   3  -9   2   15.52    1.33
   9   3   2   16.86    1.28
   9   2  -3   14.62    1.67
   9  -2   3   15.19    1.46
   9  -3  -2   16.55    1.72
   9  -2  -3   17.22    1.78
   3  -9  -2   15.98    1.36
  -9  -2   3   16.20    0.83
   9  -3   2   16.40    1.51
  -3  -9   2   15.37    0.98
  -3  -9   2   17.11    0.91
   9   2   3   15.02    1.21
  -9   3   2   18.72    1.33
   9   3  -2   14.54    1.85
   3   9   2   12.32    1.33
   9  -3   3   -0.04    0.68
   9   3  -3    0.06    1.07
   3   9   3    0.72    0.71
   9  -3  -3   -0.02    0.85
   3   3   9    1.95    1.31
   9   3   3    0.81    0.54
  -3  -9   3   -0.22    0.75
   3  -9   3    1.22    0.69
   3  -9  -3    0.79    0.63
  -9   3   3    0.50    0.60
  -3  -9   3    0.46    0.39
   9   4   0    0.27    0.88
   4  -9   0   -0.04    0.52
  -9   0   4    0.52    0.52
   9   0   4    0.00    0.62
   9  -4   0    0.79    0.71
   0  -9   4    1.08    0.58
  -9   4   0    0.24    0.59
   9   0  -4   -1.01    0.94
   4  -9   1    2.32    0.72
  -9   1   4    0.80    0.59
   9  -4  -1    2.16    0.83
   1  -9  -4    2.23    0.60
   9   4   1    1.28    0.78
   9   1  -4    4.78    1.89
   1   9   4    1.92    0.91
   9  -1   4    2.88    0.79
  -1  -9   4    2.28    0.60
   4  -9  -1    2.80    0.70
   4   9   1    1.72    0.82
  -9  -1   4    0.94    0.46
   9  -1  -4    2.44    1.04
   9  -4   1    0.67    0.71
   9   4  -1    1.58    0.94
   1  -9   4    2.23    0.95
  -9   4   1    2.16    0.64
   9   1   4    1.37    0.62
   9   2  -4   32.53    2.77
   2  -9  -4   33.94    1.95
   4  -9   2   33.95    2.12
  -2  -9   4   33.18    1.85
  -9   2   4   31.77    1.96
   2   9   4   30.62    2.17
   9   4   2   34.20    1.91
   9  -4  -2   36.06    2.39
   9   4  -2   29.71    2.51
   9  -2  -4   35.14    2.57
   2  -9   4   33.77    2.14
   9  -4   2   35.16    2.28
   4  -9  -2   36.30    2.14
   9   2   4   32.32    1.85
   4   9   2   30.11    2.02
   4  -9   3   34.77    2.23
  -3  -9   4   33.69    1.81
   3   9   4   28.30    2.11
   9  -3   4   30.11    2.61
   3  -9  -4   36.01    2.09
   9   4   3   33.84    1.81
  -3  -9   4   32.20    2.29
   9  -4  -3   35.76    2.48
   9   3  -4   34.84    3.14
   9  -3  -4   34.16    2.54
   9  -4   3   32.08    2.31
   3  -9   4   33.03    2.21
   9   3   4   34.46    1.79
  -9  -3   4   35.57    1.55
   4   9   3   30.22    1.98
   4  -9  -3   36.51    2.19
   4  -9   4   -0.08    0.76
   4   4   9   -1.09    1.23
   9   4   4    2.01    0.52
   9  -4   4    1.29    0.98
   4  -9  -4   -0.40    0.74
  -4  -9   4   -0.31    0.43
   4   9   4    0.78    0.84
   9  -4  -4    0.00    0.96
   9   0   5   20.31    1.78
   9   5   0   15.26    1.84
   0  -9   5   17.81    1.65
   5  -9   0   22.14    1.67
   9  -5   0   21.73    1.85
   9   0  -5   21.66    2.33
  -9   0   5   20.28    1.57
   9   1  -5    0.55    1.25
   9   5   1    0.22    0.80
   9  -1   5    0.92    0.85
   9  -5  -1    1.99    0.87
  -1  -9   5    0.10    0.69
   5  -9   1    0.56    0.65
   9  -1  -5    1.87    1.09
   9  -5   1    1.24    0.76
   1  -9   5    1.34    0.78
   5  -9  -1    0.57    0.63
   9   1   5    1.09    0.80
  -9  -1   5    1.62    0.67
   9  -5  -2   30.30    2.28
   9   2  -5   32.86    2.91
  -2  -9   5   29.65    1.92
   9  -2   5   31.15    2.36
   2  -9  -5   30.65    1.89
   9   5   2   27.95    1.91
   2   9   5   28.46    2.45
   5  -9   2   30.40    2.12
   2  -9   5   32.00    2.25
   9   2   5   30.97    1.91
  -9  -2   5   32.60    1.78
   9  -5   2   27.49    2.21
   5  -9  -2   32.57    2.16
   5   9   2   28.11    1.91
   9  -2  -5   30.94    2.61
   5  -9   3   -0.58    0.78
  -3  -9   5   -1.04    1.73
  -3  -9   5    0.06    0.59
   3  -9  -5    0.88    0.71
   3  -5   9    1.16    1.10
   9  -5  -3   -1.59    0.78
   3   9   5   -0.37    1.10
   9  -3   5    0.62    0.96
   9  -5   3    0.94    1.01
   5  -9  -3    0.74    0.75
   9   3   5    1.22    0.65
   9  -3  -5   -0.25    1.09
   3  -9   5    1.11    0.87
  -4  -9   5    1.20    0.59
   4  -9  -5    0.68    0.85
   9  -5  -4    0.46    1.10
   9  -4   5    1.17    1.09
   5  -9   4    1.65    0.97
   4  -5   9    0.54    1.03
   5  -9  -4    1.07    0.79
   5  -4   9    1.91    1.01
   9  -4  -5    1.66    1.15
   9  -5   4    0.17    1.02
   4  -9   5    1.44    0.97
   5  -9   5    0.55    1.08
   5  -9  -5    0.09    0.90
   9  -5  -5   -1.40    1.11
   9  -5   5    0.46    1.22
   5  -5   9    0.51    1.17
   6  -9   0   52.90    2.99
   9  -6   0   51.78    3.08
   9   0  -6   46.67    3.65
   9   0   6   49.73    3.08
   0  -9   6   48.37    2.97
   9   1  -6   15.70    2.06
   9  -6  -1   13.27    1.68
  -1  -9   6   13.83    1.63
   9  -1   6   12.97    1.69
   6  -9   1   12.78    1.61
   6  -9  -1   13.78    1.58
   1  -9   6   15.58    1.78
   9  -1  -6   12.08    1.76
   9  -6   1   14.56    1.80
   9   1   6   14.11    1.72
   9  -6  -2    9.92    1.41
   9  -2   6    9.40    1.55
   6  -9   2    8.35    1.23
   2  -6   9   13.04    1.63
  -2  -9   6    8.44    1.16
   9  -2  -6   11.17    1.76
   9  -6   2    7.18    1.32
   9   2   6    7.48    1.16
   6  -9  -2   11.70    1.43
   2  -9   6    7.56    1.30
   3  -6   9   10.16    1.61
   9  -3   6    4.94    1.43
   9  -6  -3    4.41    1.13
   3  -9  -6    5.07    1.03
   6  -9   3    4.63    1.15
  -3  -9   6    6.66    1.55
   9  -6   3    5.38    1.26
   9  -3  -6    7.54    1.58
   9   3   6    4.86    0.98
   6  -9  -3    4.65    1.13
   3  -9   6    6.14    1.43
   9  -6  -4   21.35    2.23
   6  -9   4   21.02    2.29
   9  -4   6   19.95    2.27
   4  -9  -6   22.21    2.07
  -4  -9   6   22.53    1.77
   4  -9   6   20.08    2.42
   6  -9  -4   21.12    2.03
   9  -6   4   26.05    2.53
   9  -6  -5    7.22    1.49
   9  -5   6    4.82    1.62
   5  -6   9   12.80    1.90
   5  -9  -6    7.05    1.34
   6  -9   5    8.60    1.65
   6  -5   9   12.16    1.78
   9  -6   5    7.78    1.69
   9  -5  -6    8.97    1.72
   6  -9  -5    7.57    1.37
   5  -9   6    8.28    1.72
   6  -9  -6    0.44    1.26
   6  -9   6    0.32    1.57
   6  -6   9    2.09    1.63
   9  -6  -6    2.97    1.47
   9  -6   6    1.27    1.61
   0  -7   9    1.03    1.18
   7  -9   0    1.23    0.97
   9  -7   0    0.44    1.08
   0  -9   7    1.18    1.03
   9   0   7    1.28    1.25
   7  -9   1    3.29    1.14
  -1  -9   7    1.27    1.07
   1  -7   9    3.94    1.36
   9  -1   7    2.06    1.23
  -1  -7   9    2.83    1.28
   7  -9  -1    2.62    0.96
   9   1   7    2.44    1.18
   1  -9   7    3.69    1.22
   9  -7   1    3.41    1.16
   9  -1  -7    1.74    1.64
   7  -9   2    8.87    1.43
  -2  -9   7    8.60    1.36
   9  -7  -2    8.67    1.45
   9  -2   7    6.69    1.60
  -2  -7   9   13.25    1.68
   7  -9  -2    6.77    1.28
   9   2   7    6.68    1.26
   9  -2  -7    8.39    1.89
   2  -9   7    8.51    1.46
   7  -2   9   15.55    1.90
   9  -7   2    9.65    1.55
   9  -3   7    7.38    1.74
   3  -7   9   11.74    1.82
   7  -9   3    8.17    1.55
  -3  -9   7    5.63    1.27
   9  -7  -3    6.20    1.35
   9  -3  -7    7.76    1.84
  -3  -7   9   13.22    1.80
   7  -9  -3    7.46    1.38
   9  -7   3    4.07    1.44
   3  -9   7    6.36    1.66
   7  -9   4    5.05    1.48
   4  -7   9   10.74    1.79
   9  -7  -4    5.08    1.53
  -4  -9   7    6.36    1.28
   9  -4   7    5.01    1.70
   7  -9  -4    4.38    1.30
  -4  -7   9    7.49    1.61
   9  -4  -7    6.40    1.91
   7  -4   9    8.98    1.56
   9  -7   4    5.01    1.57
   4  -9   7    5.80    1.67
   9  -5   7   -1.28    1.58
   5  -9  -7    1.79    1.39
   9  -7  -5    1.26    1.39
   5  -7   9    5.46    1.63
   9  -7   5    0.65    1.69
   7  -9  -5    4.13    1.33
  -5  -7   9    3.73    1.58
   7  -5   9    5.35    1.60
   9  -5  -7    0.99    1.46
   5  -9   7    0.53    1.47
   8  -9   0   13.08    1.66
   9   0   8   16.47    1.84
   0  -9   8    8.99    1.75
   9  -8   0   15.97    1.86
   0  -8   9   21.44    2.63
   8  -9   1    4.61    1.32
   9  -1   8    4.29    1.49
  -1  -9   8    5.03    1.55
   9  -8  -1    2.15    1.30
   1  -8   9    5.48    1.60
   9   1   8    4.35    1.35
   9  -8   1    4.31    1.36
  -1  -8   9    8.67    1.66
   8  -1   9    7.07    1.44
   1  -9   8    2.09    1.35
   8  -9  -1    4.61    1.28
  -2  -9   8   31.19    2.96
   9  -8  -2   38.33    2.94
   8  -9   2   33.78    2.93
   9  -2   8   34.34    3.04
   2  -9   8   34.56    3.12
   8  -9  -2   34.84    2.86
   9  -8   2   36.00    2.96
   9  -3   8    6.15    1.75
  -3  -9   8    3.91    1.52
   9  -8  -3    4.31    1.51
   3  -8   9    8.26    1.74
   8  -3   9    5.88    1.55
  -3  -8   9    7.97    1.78
   8  -9  -3    3.27    1.35
   9  -8   3    4.12    1.57
   3  -9   8    3.03    1.64
   9  -4   8   -0.44    1.64
  -4  -9   8    0.30    1.42
   8  -9  -4   -0.06    1.28
  -4  -8   9    3.94    1.66
   8  -4   9    1.25    1.48
   0  -9   9   19.89    2.42
   9   0   9   27.25    2.58
   0 -10   0   72.35    3.47
  10   0   0   75.63    3.88
  -1 -10   0    1.05    0.45
   1 -10   0    0.75    0.57
  10   0   1    1.85    0.86
  10   1   0    2.49    0.93
  10  -1   0    1.46    0.85
   0 -10   1    0.96    0.59
   0 -10  -1    0.88    0.50
   1 -10  -1   23.83    1.59
  -1 -10   1   24.66    1.48
  10   1  -1   24.92    2.11
   1 -10   1   26.37    1.65
  10  -1  -1   23.62    2.12
  10  -1   1   22.67    2.01
  10   1   1   27.26    1.94
   0 -10  -2  100.91    4.63
   0 -10   2  102.77    4.80
 -10   0   2  108.09    4.54
  10   0  -2  107.83    5.34
  10   2   0  108.08    5.08
   2 -10   0  106.37    4.90
  10  -2   0   95.33    5.73
  10   0   2  106.74    5.04
  10  -1   2    7.12    1.14
  10  -2  -1    7.53    1.31
  10   1  -2    8.01    1.35
 -10   1   2    6.41    0.81
  -1 -10   2    7.41    0.96
  10   2   1    7.23    1.06
   2 -10   1    7.18    0.92
   1 -10  -2    6.05    0.82
   2 -10  -1    9.31    1.02
 -10   2   1    7.17    0.77
  10  -1  -2    5.59    1.18
  10   2  -1    6.44    1.22
   1 -10   2    6.90    0.90
  -2 -10   1    6.35    0.84
  -2 -10   1    5.51    0.64
  10  -2   1    6.81    1.44
  10   1   2    7.74    1.05
   2 -10  -2  352.48   16.01
  10  -2  -2  366.35   16.43
 -10   2   2  424.74   15.91
  -2 -10   2  363.05   15.81
   2 -10   2  353.77   16.07
  10   2  -2  388.37   16.45
  10   3   0   91.76    4.55
 -10   0   3   92.89    4.19
   0 -10   3   89.69    4.26
   3 -10   0   88.68    4.37
  10   0  -3   86.46    4.85
  10   0   3   91.18    4.43
  10  -3   0   88.86    4.69
  10  -3  -1   18.80    2.02
   3 -10   1   20.25    1.64
   1 -10  -3   19.74    1.39
  10   3   1   15.57    1.71
 -10   1   3   20.74    1.39
  10  -1   3   16.37    1.75
  -1 -10   3   18.36    1.41
  10   1  -3   20.47    2.28
   1 -10   3   19.23    1.55
 -10   3   1   21.93    1.47
   3  10   1   19.76    2.03
  10   1   3   23.03    1.68
  10  -1  -3   17.25    2.14
  10  -3   1   17.64    2.00
  10   3  -1   20.94    2.12
   3 -10  -1   20.28    1.64
  10  -3  -2    1.65    1.07
  10   3   2    1.27    0.72
   2 -10  -3    0.24    0.66
 -10   2   3    1.36    0.72
  -2 -10   3    0.86    0.56
   3 -10   2    2.05    0.78
   3  10   2    2.22    1.10
  10  -3   2    0.59    0.92
  10  -2  -3   -0.24    1.03
  10   3  -2   -0.03    1.13
   2 -10   3    1.62    0.76
 -10   3   2   -0.33    0.66
  10   2   3    0.22    0.73
  10   3  -3   27.91    2.98
  10  -3   3   25.83    2.21
  10  -3  -3   24.83    2.34
  -3 -10   3   27.27    1.46
   3 -10   3   25.31    1.96
   3  10   3   23.47    2.13
  10   3   3   26.04    1.80
  10   0  -4  210.50    9.75
  10   0   4  208.66    9.18
  10  -4   0  207.37    9.49
   4 -10   0  206.57    9.24
   0 -10   4  198.82    9.09
  10   4   0  204.99    9.31
  10  -4  -1   45.22    2.96
   4 -10   1   44.96    2.68
  10  -1   4   42.62    2.73
   1 -10  -4   45.08    2.34
  -1 -10   4   42.68    2.45
 -10   1   4   46.77    2.76
  10   4   1   45.39    2.77
  10   1  -4   46.27    3.32
  10   1   4   45.89    2.54
  10  -1  -4   42.59    3.15
   4 -10  -1   43.39    2.64
  10  -4   1   44.82    2.94
  10   4  -1   44.13    3.07
   1 -10   4   44.67    2.60
  10   2  -4  176.17    8.73
  -2 -10   4  178.45    7.69
  10  -2   4  169.64    8.06
  10  -4  -2  174.95    8.25
   4 -10   2  170.38    7.96
  10   4   2  181.64    7.75
   2 -10  -4  177.84    7.73
   4 -10  -2  178.20    7.91
  10   2   4  177.12    7.70
  10   4  -2  160.73    8.28
  10  -2  -4  174.01    8.39
   2 -10   4  168.22    7.92
  10  -4   2  175.13    8.17
  10   3  -4   34.43    3.20
  -3 -10   4   33.69    1.88
  10  -4  -3   32.81    2.69
   4 -10   3   32.22    2.36
  10  -3   4   28.76    2.58
   3 -10   4   32.68    2.38
  10  -3  -4   31.03    2.74
   4 -10  -3   36.73    2.32
  10  -4   3   35.20    2.59
  10   3   4   31.11    1.94
   4 -10  -4  152.02    6.97
  10  -4  -4  149.82    7.40
   4 -10   4  147.39    7.15
  10  -4   4  149.99    7.35
  10   0   5    2.50    1.05
  10  -5   0    0.11    1.06
   0 -10   5    0.63    0.81
   5 -10   0    0.87    0.89
  10   5   0   -2.90    1.16
  10   0  -5    0.17    1.42
  10  -1   5   18.24    2.30
  -1 -10   5   17.86    1.66
  10   5   1   16.05    2.07
   5 -10   1   17.97    1.86
  10   1  -5   18.76    2.38
  10  -5  -1   18.07    2.02
  10  -5   1   18.22    2.16
   5 -10  -1   19.14    1.85
  10   1   5   19.68    1.81
   1 -10   5   19.67    1.82
  10  -1  -5   18.33    2.13
  -2 -10   5    0.79    0.76
  10  -2   5    1.83    1.16
  10  -5  -2   -0.18    1.03
  10   2  -5    2.17    1.65
   5 -10   2   -0.63    0.80
   2 -10  -5    0.70    0.80
   5 -10  -2    0.42    0.88
   2 -10   5    0.96    0.93
  10  -2  -5    0.42    1.34
  10   2   5    0.76    0.79
  10  -5   2   -0.58    1.01
  10  -3   5   13.28    1.87
   5 -10   3   12.90    1.59
  -3 -10   5   13.68    1.42
  10  -5  -3   12.08    1.73
   3 -10  -5   12.34    2.17
  10  -5   3   13.74    1.80
  10  -3  -5   14.54    2.08
   5 -10  -3   12.75    1.49
   3 -10   5   12.95    1.55
  10  -4   5   34.41    3.41
  10  -5  -4   37.33    2.97
   5 -10   4   33.31    2.82
   4 -10  -5   33.19    2.47
   4 -10   5   36.37    2.83
  10  -5   4   34.72    3.11
   5 -10  -4   33.97    2.61
  10  -4  -5   34.81    2.97
  10  -5  -5   25.15    2.79
   5 -10  -5   26.30    2.47
   5 -10   5   26.68    2.78
  10  -5   5   25.10    3.01
  10   0   6  148.05    6.85
   0 -10   6  140.25    6.78
  10  -6   0  138.99    7.00
   6 -10   0  144.04    6.84
  10   0  -6  139.22    7.50
  -1 -10   6    6.45    1.26
  10  -1   6    3.81    1.46
   6 -10   1    7.55    1.33
  10   1  -6    8.40    2.00
  10  -6  -1    8.15    1.48
   6 -10  -1    9.02    1.40
  10  -1  -6   11.08    1.95
  10  -6   1   10.37    1.67
   1 -10   6    8.25    1.42
  10   1   6    7.44    1.30
  -2 -10   6  391.53   16.96
  10  -2   6  409.99   17.41
   6 -10   2  388.02   17.22
  10  -6  -2  380.40   17.30
   2 -10   6  389.99   17.27
  10  -6   2  407.91   17.40
  10  -2  -6  390.94   17.65
   6 -10  -2  384.64   17.11
  -3 -10   6    4.46    1.08
  10  -3   6    1.54    1.45
  10  -6  -3    4.73    1.40
   6 -10   3    4.42    1.33
   3  -6  10    7.19    1.55
   6 -10  -3    3.61    1.24
  10  -3  -6    2.31    1.56
   3 -10   6    6.22    1.51
   6  -3  10    7.76    1.38
  10  -6   3    3.24    1.29
   4 -10  -6   71.41    4.07
  10  -6  -4   73.77    4.47
   6 -10   4   79.26    4.57
  10  -4   6   77.78    4.85
   4 -10   6   71.59    4.53
  10  -6   4   78.13    4.73
  10  -4  -6   71.82    4.65
   6 -10  -4   76.51    4.24
   5 -10  -6   13.41    1.83
   6 -10  -5   13.79    1.76
  10  -6   5   12.22    2.24
  10  -7   0    9.46    1.64
  10   0   7    8.63    1.76
   7 -10   0    6.86    1.31
   0 -10   7    7.49    1.60
  10  -7  -1   10.37    1.75
  -1 -10   7   14.11    1.79
  10  -1   7   12.49    1.96
   1  -7  10   23.40    2.66
   7 -10   1   13.57    1.72
   7 -10  -1   13.11    1.70
  10  -7   1   14.56    1.94
  10  -1  -7   15.33    2.41
  10   1   7   14.52    2.04
   1 -10   7   13.52    1.93
  -2 -10   7   10.94    1.73
   7 -10   2   13.17    1.79
  10  -7  -2   13.90    2.02
   2  -7  10   22.30    2.75
  10  -2   7    8.99    1.93
  10  -7   2   13.15    1.87
   2 -10   7   10.90    1.86
  10  -2  -7    8.16    2.13
   7 -10  -2   12.09    1.74
  10  -3   7    1.81    1.81
  10  -7  -3    6.27    2.34
  -3 -10   7    3.52    1.40
   7 -10   3    3.83    1.60
  10  -3  -7    1.80    2.16
  -3  -7  10    6.61    1.89
   3 -10   7    4.54    1.72
   7  -3  10    6.75    1.53
   7 -10  -3    4.69    1.39
  10  -7   3    3.89    1.56
   0 -11   0    0.17    0.63
   1 -11   0   13.14    1.46
  11   0  -1   12.21    1.67
  11   0   1   15.60    1.69
  11  -1   0   15.57    1.76
  11   1   0   13.32    1.61
   0 -11  -1   12.15    1.20
   0 -11   1   14.04    1.37
   1 -11   1    0.31    0.70
  11  -1  -1   -1.42    1.09
  11  -1   1   -1.13    1.10
  11   1   1   -0.13    1.08
   1 -11  -1    0.70    0.68
  -1 -11   1    0.44    0.63
  11   0  -2   83.60    4.58
  11   0   2   79.51    4.25
  11   2   0   77.92    4.29
   0 -11   2   77.68    3.86
  11  -2   0   82.55    5.78
   2 -11   0   78.12    3.96
  11   1  -2   18.23    2.06
  11   2   1   17.82    2.06
  11  -2  -1   18.75    2.40
  11  -1   2   18.74    2.18
  -1 -11   2   17.13    1.51
   1 -11  -2   17.78    1.49
   2 -11   1   16.79    1.68
  11  -1  -2   16.50    2.06
  11  -2   1   20.81    2.26
  11   2  -1   20.52    2.36
   1 -11   2   16.17    1.63
  11   1   2   19.60    2.00
   2 -11  -1   17.02    1.60
  11  -2  -2   -0.50    1.26
   2 -11  -2    0.55    0.78
  11   2  -2   -1.42    1.23
   2 -11   2    1.71    0.80
  11  -2   2    2.89    1.19
  11   2   2    1.81    1.00
  11   0   3   27.64    2.28
   3 -11   0   25.64    1.99
  11  -3   0   26.10    2.54
  11   0  -3   23.17    2.85
  11   3   0   23.26    2.48
   0 -11   3   22.65    2.13
  11   1  -3    4.38    1.58
  11  -3  -1    4.52    1.41
   3 -11   1    6.09    1.06
  11  -1   3    4.08    1.20
  -1 -11   3    4.72    0.89
  11   3   1    3.67    1.23
   1 -11  -3    3.61    0.85
  11  -1  -3    7.16    1.55
  11  -3   1    5.64    1.39
   3 -11  -1    4.54    1.09
  11   3  -1    2.95    1.41
   1 -11   3    3.25    0.96
  11   1   3    4.88    1.15
  11   2  -3   21.68    2.34
  -2 -11   3   21.10    1.80
   2 -11  -3   20.36    1.79
  11  -3  -2   20.22    2.24
   3 -11   2   25.42    2.00
  11  -2   3   18.92    2.30
  11   3   2   21.06    2.10
  11   2   3   24.92    2.03
   2 -11   3   19.18    1.91
   3 -11  -2   21.27    1.94
  11  -3   2   22.77    2.52
  11  -2  -3   20.26    2.61
  11   3  -2   19.50    2.36
   3 -11  -3   -1.87    0.92
  11  -3   3   -0.85    1.15
   3 -11   3   -0.09    0.93
  11   3  -3   -1.07    1.67
  11  -3  -3   -1.52    1.38
   0 -11   4    4.59    1.03
  11   0  -4    5.84    1.78
   4 -11   0    4.96    1.10
  11   4   0    3.43    1.45
  11   0   4    5.28    1.34
  11  -4   0    5.21    1.48
  11   1  -4    5.45    1.68
  11  -4  -1    7.56    1.52
  11  -1   4    5.01    1.36
   4 -11   1    6.17    1.15
  -1 -11   4    4.69    1.26
  11   1   4    6.92    1.20
   1 -11   4    6.59    1.13
  11   4  -1    3.42    1.65
  11  -4   1    6.60    1.47
  11  -1  -4    5.41    1.66
   4 -11  -1    7.73    1.34
  11  -2   4   33.00    3.00
  11   2  -4   38.17    3.71
   2 -11  -4   38.04    2.45
  -2 -11   4   41.39    2.37
   4 -11   2   41.91    2.75
  11  -4  -2   41.12    3.16
   2 -11   4   41.56    2.76
   4 -11  -2   40.76    2.67
  11  -4   2   38.74    3.21
  11   4  -2   33.99    4.26
  11  -2  -4   38.55    3.35
  11   3  -4   22.07    2.72
  11  -3   4   21.81    2.74
   3 -11  -4   17.66    2.00
  11  -4  -3   21.17    2.75
   4 -11   3   21.31    2.26
   4 -11  -3   23.87    2.18
  11  -4   3   22.37    2.58
   3 -11   4   19.73    2.28
  11  -3  -4   21.13    2.54
   4 -11  -4    1.01    1.18
  11  -4  -4    0.08    1.57
  11  -4   4   -1.18    1.56
   4 -11   4    0.26    1.29
   5 -11   0   21.63    2.23
  11   0   5   18.56    2.36
   0 -11   5   22.48    2.14
  11  -5   0   20.99    2.61
  11   0  -5   28.20    3.21
   5 -11   1    3.65    1.18
  11  -5  -1    4.24    1.51
  -1 -11   5    1.92    0.98
  11  -1   5    3.11    1.35
   1 -11   5    2.34    1.17
  11  -5   1    3.20    1.52
  11  -1  -5    0.81    1.75
   5 -11  -1    3.15    1.26
  11   1   5    1.86    1.21
  11   2  -5   37.02    3.76
  11  -2   5   27.35    3.00
  -2 -11   5   25.42    2.21
   5 -11   2   34.22    2.71
  11  -5  -2   30.01    3.00
  11  -2  -5   33.82    3.38
  11  -5   2   30.32    3.09
   5 -11  -2   28.65    2.45
   2 -11   5   29.57    2.68
  11  -5  -3    2.75    1.64
   5 -11   3    0.48    1.35
  11  -3   5    0.60    1.78
  11  -5   3    0.66    1.62
   3 -11   5    2.32    1.41
   5 -11  -3    1.16    1.19
  11  -3  -5   -0.20    1.61
   5 -11   4    1.52    1.48
  11  -4   5    3.51    1.94
   4 -11  -5    2.04    1.42
   5 -11  -4    1.44    1.31
   5  -4  11    4.67    1.46
   4 -11   5    0.31    1.49
   6 -11   0   46.99    3.28
  11   0  -6   44.42    4.34
  11   0   6   45.33    3.25
   0 -11   6   45.91    3.19
  11  -6   0   48.48    3.56
  -1 -11   6    4.18    1.36
  11   1  -6    5.68    2.22
   6 -11   1    5.82    1.49
  11  -1   6    6.17    1.71
  11  -6  -1    7.50    1.71
   1 -11   6    5.68    1.47
  11  -1  -6    5.54    2.08
  11  -6   1    6.84    1.74
   6 -11  -1    6.24    1.51
  11  -2   6    3.44    1.75
   6 -11   2    2.60    1.42
  -2 -11   6    1.38    1.21
   6 -11  -2   -0.27    1.30
  11  -2  -6    0.84    2.11
   2 -11   6    2.40    1.45
  11  -6   2    2.64    1.71
  12   0   0  647.73   27.84
   1 -12   0    1.32    0.99
  12   0  -1    0.63    1.48
  12   0   1    2.01    1.43
  12   1   0    2.27    1.50
  12  -1   0    2.75    1.60
  12  -1   1   11.32    1.90
   1 -12   1   14.09    1.78
  12  -1  -1   11.43    1.88
  12   1  -1   11.50    1.98
  12   1   1   13.94    1.91
  12   2   0  145.58    7.32
   0 -12   2  140.21    6.86
   2 -12   0  144.31    6.92
  12   0  -2  156.42    7.64
  12  -2   0  159.21    7.57
  12   0   2  152.17    7.32
  12   1  -2   17.56    2.22
  12  -1   2   21.27    2.22
   2 -12   1   15.10    1.97
  12  -2  -1   15.34    2.19
  12   2   1   15.59    2.24
   1 -12   2   16.30    2.04
   2 -12  -1   14.96    1.96
  12   2  -1   15.06    2.14
  12   1   2   14.13    1.85
  12  -2   1   18.31    2.15
  12  -1  -2   16.56    2.31
   2 -12   2  110.17    5.59
  12   2  -2  113.32    6.31
  12  -2   2  119.02    6.11
  12  -2  -2  115.82    6.35
  12   0  -3   17.22    2.41
  12   0   3   17.94    2.08
   3 -12   0   21.25    2.21
   0 -12   3   18.98    1.99
  12  -3   0   22.01    2.50
   3 -12   1    1.13    1.15
  12  -3  -1    1.88    2.78
  12  -1   3    0.99    1.57
  12   1  -3   -0.30    1.73
  12  -1  -3   -0.77    1.73
  12   3  -1    0.18    1.70
   3 -12  -1   -0.54    1.03
   1 -12   3    0.47    1.08
  12  -3   1   -0.44    1.57
  12   2  -3   44.63    4.14
  12  -2   3   47.83    3.80
   3 -12   2   50.83    3.29
  12  -3  -2   50.41    4.07
   2 -12   3   51.68    3.25
  12  -2  -3   55.27    4.16
  12  -3   2   54.21    3.94
   3 -12  -2   53.97    3.23
  12   3  -2   48.84    4.20
   3 -12   3   23.62    2.48
  12   3  -3   17.98    2.91
  12  -3   3   23.94    2.66
  12  -3  -3   19.17    2.57
  12   0  -4  305.69   13.85
   4 -12   0  293.41   13.14
  12  -4   0  301.54   13.68
   0 -12   4  278.63   12.98
  12   0   4  303.76   13.24
  12   1  -4   -0.47    1.93
  12  -1   4   -0.37    1.54
   4 -12   1    0.86    1.22
  12  -4  -1   -0.49    1.63
   1 -12   4    2.28    1.33
   4 -12  -1   -0.28    1.21
  12  -4   1   -0.52    1.72
   0   0   0    0.00    0.00
;
_shelx_hkl_checksum              80470
#END Tags that were not found in dictionaries
loop_
_space_group_symop_operation_xyz
'x, y, z'
'-x, -y, z'
'-x, y, -z'
'x, -y, -z'
'z, x, y'
'z, -x, -y'
'-z, -x, y'
'-z, x, -y'
'y, z, x'
'-y, z, -x'
'y, -z, -x'
'-y, -z, x'
'y+1/2, x+1/2, -z+1/2'
'-y+1/2, -x+1/2, -z+1/2'
'y+1/2, -x+1/2, z+1/2'
'-y+1/2, x+1/2, z+1/2'
'x+1/2, z+1/2, -y+1/2'
'-x+1/2, z+1/2, y+1/2'
'-x+1/2, -z+1/2, -y+1/2'
'x+1/2, -z+1/2, y+1/2'
'z+1/2, y+1/2, -x+1/2'
'z+1/2, -y+1/2, x+1/2'
'-z+1/2, y+1/2, x+1/2'
'-z+1/2, -y+1/2, -x+1/2'
'-x, -y, -z'
'x, y, -z'
'x, -y, z'
'-x, y, z'
'-z, -x, -y'
'-z, x, y'
'z, x, -y'
'z, -x, y'
'-y, -z, -x'
'y, -z, x'
'-y, z, x'
'y, z, -x'
'-y-1/2, -x-1/2, z-1/2'
'y-1/2, x-1/2, z-1/2'
'-y-1/2, x-1/2, -z-1/2'
'y-1/2, -x-1/2, -z-1/2'
'-x-1/2, -z-1/2, y-1/2'
'x-1/2, -z-1/2, -y-1/2'
'x-1/2, z-1/2, y-1/2'
'-x-1/2, z-1/2, -y-1/2'
'-z-1/2, -y-1/2, x-1/2'
'-z-1/2, y-1/2, -x-1/2'
'z-1/2, -y-1/2, -x-1/2'
'z-1/2, y-1/2, x-1/2'
loop_
_atom_site_label
_atom_site_type_symbol
_atom_site_fract_x
_atom_site_fract_y
_atom_site_fract_z
_atom_site_U_iso_or_equiv
_atom_site_adp_type
_atom_site_occupancy
_atom_site_site_symmetry_order
_atom_site_calc_flag
_atom_site_refinement_flags_posn
_atom_site_refinement_flags_adp
_atom_site_refinement_flags_occupancy
Lu1 Lu 0.2500 0.5000 0.0000 0.0079(4) Uani 1 8 d S T P
Os1 Os 0.2500 0.2500 0.2500 0.0048(3) Uani 1 6 d S T P
Ge1 Ge 0.0000 0.0000 0.0000 0.032(6) Uani 0.54(4) 24 d S T P
Ge2A Ge 0.0000 0.3075(16) 0.1465(14) 0.0230(18) Uani 0.89(6) 2 d S T P
Ge2B Ge 0.0000 0.346(9) 0.179(7) 0.0230(18) Uani 0.11(6) 2 d S T P
loop_
_atom_site_aniso_label
_atom_site_aniso_U_11
_atom_site_aniso_U_22
_atom_site_aniso_U_33
_atom_site_aniso_U_23
_atom_site_aniso_U_13
_atom_site_aniso_U_12
Lu1 0.0105(7) 0.0066(5) 0.0066(5) 0.000 0.000 0.000
Os1 0.0048(3) 0.0048(3) 0.0048(3) 0.00046(19) 0.00046(19) 0.00046(19)
Ge1 0.032(6) 0.032(6) 0.032(6) 0.000 0.000 0.000
Ge2A 0.0044(8) 0.055(4) 0.010(2) 0.014(3) 0.000 0.000
Ge2B 0.0044(8) 0.055(4) 0.010(2) 0.014(3) 0.000 0.000
loop_
_atom_type_symbol
_atom_type_description
_atom_type_scat_dispersion_real
_atom_type_scat_dispersion_imag
_atom_type_scat_source
Ge Ge 0.1547 1.8001 'International Tables Vol C Tables 4.2.6.8 and 6.1.1.4'
Lu Lu -0.4720 5.8584 'International Tables Vol C Tables 4.2.6.8 and 6.1.1.4'
Os Os -1.2165 7.6030 'International Tables Vol C Tables 4.2.6.8 and 6.1.1.4'
loop_
_geom_angle_atom_site_label_1
_geom_angle_atom_site_label_2
_geom_angle_atom_site_label_3
_geom_angle
_geom_angle_site_symmetry_1
_geom_angle_site_symmetry_3
Ge2B Lu1 Ge2B 94.7(10) 37_665 34_565
Ge2B Lu1 Ge2B 147(3) 37_665 14
Ge2B Lu1 Ge2B 94.7(10) 34_565 14
Ge2B Lu1 Ge2B 94.7(10) 37_665 9
Ge2B Lu1 Ge2B 147(3) 34_565 9
Ge2B Lu1 Ge2B 94.7(10) 14 9
Ge2B Lu1 Ge2B 106.9(7) 37_665 .
Ge2B Lu1 Ge2B 129.6(4) 34_565 .
Ge2B Lu1 Ge2B 45(3) 14 .
Ge2B Lu1 Ge2B 77(3) 9 .
Ge2B Lu1 Ge2B 129.6(4) 37_665 17
Ge2B Lu1 Ge2B 45(3) 34_565 17
Ge2B Lu1 Ge2B 77(3) 14 17
Ge2B Lu1 Ge2B 106.9(7) 9 17
Ge2B Lu1 Ge2B 121.9(6) . 17
Ge2B Lu1 Ge2B 45(3) 37_665 26
Ge2B Lu1 Ge2B 129.6(4) 34_565 26
Ge2B Lu1 Ge2B 106.9(7) 14 26
Ge2B Lu1 Ge2B 77(3) 9 26
Ge2B Lu1 Ge2B 63(3) . 26
Ge2B Lu1 Ge2B 174(4) 17 26
Ge2B Lu1 Ge2B 77(3) 37_665 18_554
Ge2B Lu1 Ge2B 45(3) 34_565 18_554
Ge2B Lu1 Ge2B 129.6(4) 14 18_554
Ge2B Lu1 Ge2B 106.9(7) 9 18_554
Ge2B Lu1 Ge2B 174(4) . 18_554
Ge2B Lu1 Ge2B 53(3) 17 18_554
Ge2B Lu1 Ge2B 121.9(6) 26 18_554
Ge2B Lu1 Ge2B 45(3) 37_665 25_565
Ge2B Lu1 Ge2B 77(3) 34_565 25_565
Ge2B Lu1 Ge2B 106.9(7) 14 25_565
Ge2B Lu1 Ge2B 129.6(4) 9 25_565
Ge2B Lu1 Ge2B 86.8(10) . 25_565
Ge2B Lu1 Ge2B 121.9(6) 17 25_565
Ge2B Lu1 Ge2B 53(3) 26 25_565
Ge2B Lu1 Ge2B 93.5(11) 18_554 25_565
Ge2B Lu1 Ge2B 129.6(4) 37_665 42_666
Ge2B Lu1 Ge2B 106.9(7) 34_565 42_666
Ge2B Lu1 Ge2B 77(3) 14 42_666
Ge2B Lu1 Ge2B 45(3) 9 42_666
Ge2B Lu1 Ge2B 93.5(11) . 42_666
Ge2B Lu1 Ge2B 63(3) 17 42_666
Ge2B Lu1 Ge2B 121.9(6) 26 42_666
Ge2B Lu1 Ge2B 86.8(10) 18_554 42_666
Ge2B Lu1 Ge2B 174(4) 25_565 42_666
Ge2B Lu1 Ge2B 106.9(7) 37_665 2_565
Ge2B Lu1 Ge2B 77(3) 34_565 2_565
Ge2B Lu1 Ge2B 45(3) 14 2_565
Ge2B Lu1 Ge2B 129.6(4) 9 2_565
Ge2B Lu1 Ge2B 53(3) . 2_565
Ge2B Lu1 Ge2B 93.5(11) 17 2_565
Ge2B Lu1 Ge2B 86.8(10) 26 2_565
Ge2B Lu1 Ge2B 121.9(6) 18_554 2_565
Ge2B Lu1 Ge2B 63(3) 25_565 2_565
Ge2B Lu1 Ge2B 121.9(6) 42_666 2_565
Ge2B Lu1 Ge2B 77(3) 37_665 41_665
Ge2B Lu1 Ge2B 106.9(7) 34_565 41_665
Ge2B Lu1 Ge2B 129.6(4) 14 41_665
Ge2B Lu1 Ge2B 45(3) 9 41_665
Ge2B Lu1 Ge2B 121.9(6) . 41_665
Ge2B Lu1 Ge2B 86.8(10) 17 41_665
Ge2B Lu1 Ge2B 93.5(11) 26 41_665
Ge2B Lu1 Ge2B 63(3) 18_554 41_665
Ge2B Lu1 Ge2B 121.9(6) 25_565 41_665
Ge2B Lu1 Ge2B 53(3) 42_666 41_665
Ge2B Lu1 Ge2B 174(4) 2_565 41_665
Ge2A Os1 Ge2A 136.0(5) . 45_666
Ge2A Os1 Ge2A 131.42(18) . 42_666
Ge2A Os1 Ge2A 85.8(6) 45_666 42_666
Ge2A Os1 Ge2A 85.8(6) . 9
Ge2A Os1 Ge2A 131.41(18) 45_666 9
Ge2A Os1 Ge2A 76.4(8) 42_666 9
Ge2A Os1 Ge2A 76.4(8) . 14
Ge2A Os1 Ge2A 85.8(6) 45_666 14
Ge2A Os1 Ge2A 85.8(6) 42_666 14
Ge2A Os1 Ge2A 136.0(5) 9 14
Ge2A Os1 Ge2A 85.8(6) . 5
Ge2A Os1 Ge2A 76.4(8) 45_666 5
Ge2A Os1 Ge2A 136.0(5) 42_666 5
Ge2A Os1 Ge2A 85.8(6) 9 5
Ge2A Os1 Ge2A 131.41(18) 14 5
Ge2A Os1 Ge2B 129.9(16) . 45_666
Ge2A Os1 Ge2B 10.4(18) 45_666 45_666
Ge2A Os1 Ge2B 95(2) 42_666 45_666
Ge2A Os1 Ge2B 129.3(9) 9 45_666
Ge2A Os1 Ge2B 91.6(17) 14 45_666
Ge2A Os1 Ge2B 66(3) 5 45_666
Ge2A Os1 Ge2B 129.3(9) . 42_666
Ge2A Os1 Ge2B 91.6(17) 45_666 42_666
Ge2A Os1 Ge2B 10.4(18) 42_666 42_666
Ge2A Os1 Ge2B 66(3) 9 42_666
Ge2A Os1 Ge2B 95(2) 14 42_666
Ge2A Os1 Ge2B 129.9(16) 5 42_666
Ge2B Os1 Ge2B 100(3) 45_666 42_666
Ge2A Os1 Ge2B 91.6(17) . 9
Ge2A Os1 Ge2B 129.3(9) 45_666 9
Ge2A Os1 Ge2B 66(3) 42_666 9
Ge2A Os1 Ge2B 10.4(18) 9 9
Ge2A Os1 Ge2B 129.9(16) 14 9
Ge2A Os1 Ge2B 95(2) 5 9
Ge2B Os1 Ge2B 129.7(15) 45_666 9
Ge2B Os1 Ge2B 56(4) 42_666 9
Ge2A Os1 Ge2B 95(2) . 5
Ge2A Os1 Ge2B 66(3) 45_666 5
Ge2A Os1 Ge2B 129.9(16) 42_666 5
Ge2A Os1 Ge2B 91.6(17) 9 5
Ge2A Os1 Ge2B 129.3(9) 14 5
Ge2A Os1 Ge2B 10.4(18) 5 5
Ge2B Os1 Ge2B 56(4) 45_666 5
Ge2B Os1 Ge2B 126(2) 42_666 5
Ge2B Os1 Ge2B 100(3) 9 5
Ge2A Os1 Ge2B 66(3) . 14
Ge2A Os1 Ge2B 95(2) 45_666 14
Ge2A Os1 Ge2B 91.6(17) 42_666 14
Ge2A Os1 Ge2B 129.9(16) 9 14
Ge2A Os1 Ge2B 10.4(18) 14 14
Ge2A Os1 Ge2B 129.3(9) 5 14
Ge2B Os1 Ge2B 100(3) 45_666 14
Ge2B Os1 Ge2B 100(3) 42_666 14
Ge2B Os1 Ge2B 126(2) 9 14
Ge2B Os1 Ge2B 129.7(15) 5 14
Ge2A Os1 Ge2B 10.4(18) . .
Ge2A Os1 Ge2B 129.9(16) 45_666 .
Ge2A Os1 Ge2B 129.3(9) 42_666 .
Ge2A Os1 Ge2B 95(2) 9 .
Ge2A Os1 Ge2B 66(3) 14 .
Ge2A Os1 Ge2B 91.6(17) 5 .
Ge2B Os1 Ge2B 126(2) 45_666 .
Ge2B Os1 Ge2B 129.7(15) 42_666 .
Ge2B Os1 Ge2B 100(3) 9 .
Ge2B Os1 Ge2B 100(3) 5 .
Ge2B Os1 Ge2B 56(4) 14 .
Os1 Ge2A Os1 129.3(2) . 28
Os1 Ge2A Ge2A 112.0(3) . 26
Os1 Ge2A Ge2A 112.0(3) 28 26
Os1 Ge2A Ge2B 57.0(15) . 14
Os1 Ge2A Ge2B 112.2(8) 28 14
Ge2A Ge2A Ge2B 125.2(8) 26 14
Os1 Ge2A Ge2B 112.2(8) . 13_455
Os1 Ge2A Ge2B 57.0(15) 28 13_455
Ge2A Ge2A Ge2B 125.2(8) 26 13_455
Ge2B Ge2A Ge2B 61(2) 14 13_455
Os1 Ge2A Ge2B 113.30(15) . 26
Os1 Ge2A Ge2B 113.30(15) 28 26
Ge2A Ge2A Ge2B 6.7(12) 26 26
Ge2B Ge2A Ge2B 119.9(15) 14 26
Ge2B Ge2A Ge2B 119.9(15) 13_455 26
Os1 Ge2A Lu1 67.85(7) . .
Os1 Ge2A Lu1 157.2(4) 28 .
Ge2A Ge2A Lu1 65.1(3) 26 .
Ge2B Ge2A Lu1 61.5(7) 14 .
Ge2B Ge2A Lu1 104.9(10) 13_455 .
Ge2B Ge2A Lu1 61.1(9) 26 .
Os1 Ge2A Lu1 157.2(4) . 25_565
Os1 Ge2A Lu1 67.85(7) 28 25_565
Ge2A Ge2A Lu1 65.1(3) 26 25_565
Ge2B Ge2A Lu1 104.9(10) 14 25_565
Ge2B Ge2A Lu1 61.5(7) 13_455 25_565
Ge2B Ge2A Lu1 61.1(9) 26 25_565
Lu1 Ge2A Lu1 91.87(14) . 25_565
Os1 Ge2A Lu1 66.26(19) . 5
Os1 Ge2A Lu1 66.26(19) 28 5
Ge2A Ge2A Lu1 170.8(3) 26 5
Ge2B Ge2A Lu1 62.1(10) 14 5
Ge2B Ge2A Lu1 62.1(10) 13_455 5
Ge2B Ge2A Lu1 177.4(10) 26 5
Lu1 Ge2A Lu1 120.3(4) . 5
Lu1 Ge2A Lu1 120.3(4) 25_565 5
Ge2B Ge2B Ge2B 72.8(18) 14 13_455
Ge2B Ge2B Os1 127(3) 14 28
Ge2B Ge2B Os1 62(2) 13_455 28
Ge2B Ge2B Os1 62(2) 14 .
Ge2B Ge2B Os1 127(3) 13_455 .
Os1 Ge2B Os1 129.1(18) 28 .
Ge2B Ge2B Ge2A 5.7(13) 14 14
Ge2B Ge2B Ge2A 76.2(19) 13_455 14
Os1 Ge2B Ge2A 127(3) 28 14
Os1 Ge2B Ge2A 56.9(11) . 14
Ge2B Ge2B Ge2A 76.2(19) 14 13_455
Ge2B Ge2B Ge2A 5.7(13) 13_455 13_455
Os1 Ge2B Ge2A 56.9(11) 28 13_455
Os1 Ge2B Ge2A 127(3) . 13_455
Ge2A Ge2B Ge2A 79(2) 14 13_455
Ge2B Ge2B Ge2B 53.6(9) 14 2_565
Ge2B Ge2B Ge2B 53.6(9) 13_455 2_565
Os1 Ge2B Ge2B 110.2(18) 28 2_565
Os1 Ge2B Ge2B 110.2(18) . 2_565
Ge2A Ge2B Ge2B 59.3(10) 14 2_565
Ge2A Ge2B Ge2B 59.3(10) 13_455 2_565
Ge2B Ge2B Ge2A 127.6(19) 14 26
Ge2B Ge2B Ge2A 127.6(19) 13_455 26
Os1 Ge2B Ge2A 102(2) 28 26
Os1 Ge2B Ge2A 102(2) . 26
Ge2A Ge2B Ge2A 129.2(9) 14 26
Ge2A Ge2B Ge2A 129.2(9) 13_455 26
Ge2B Ge2B Ge2A 96.7(12) 2_565 26
Ge2B Ge2B Lu1 69(3) 14 5
Ge2B Ge2B Lu1 69(3) 13_455 5
Os1 Ge2B Lu1 69.9(9) 28 5
Os1 Ge2B Lu1 69.9(9) . 5
Ge2A Ge2B Lu1 66.0(16) 14 5
Ge2A Ge2B Lu1 66.0(16) 13_455 5
Ge2B Ge2B Lu1 106.6(17) 2_565 5
Ge2A Ge2B Lu1 157(3) 26 5
Ge2B Ge2B Lu1 116.6(15) 14 25_565
Ge2B Ge2B Lu1 65.6(14) 13_455 25_565
Os1 Ge2B Lu1 68.4(3) 28 25_565
Os1 Ge2B Lu1 160.7(15) . 25_565
Ge2A Ge2B Lu1 122(3) 14 25_565
Ge2A Ge2B Lu1 66.9(9) 13_455 25_565
Ge2B Ge2B Lu1 63.3(16) 2_565 25_565
Ge2A Ge2B Lu1 62.3(10) 26 25_565
Lu1 Ge2B Lu1 128.8(15) 5 25_565
Ge2B Ge2B Lu1 65.6(14) 14 .
Ge2B Ge2B Lu1 116.6(15) 13_455 .
Os1 Ge2B Lu1 160.7(15) 28 .
Os1 Ge2B Lu1 68.4(3) . .
Ge2A Ge2B Lu1 66.9(9) 14 .
Ge2A Ge2B Lu1 122(3) 13_455 .
Ge2B Ge2B Lu1 63.3(16) 2_565 .
Ge2A Ge2B Lu1 62.3(10) 26 .
Lu1 Ge2B Lu1 128.8(15) 5 .
Lu1 Ge2B Lu1 93.2(9) 25_565 .
loop_
_geom_bond_atom_site_label_1
_geom_bond_atom_site_label_2
_geom_bond_distance
_geom_bond_site_symmetry_2
Lu1 Ge2B 2.99(5) 37_665
Lu1 Ge2B 2.99(5) 34_565
Lu1 Ge2B 2.99(5) 14
Lu1 Ge2B 2.99(5) 9
Lu1 Ge2B 3.08(2) .
Lu1 Ge2B 3.08(2) 17
Lu1 Ge2B 3.08(2) 26
Lu1 Ge2B 3.08(2) 18_554
Lu1 Ge2B 3.08(2) 25_565
Lu1 Ge2B 3.08(2) 42_666
Lu1 Ge2B 3.08(2) 2_565
Lu1 Ge2B 3.08(2) 41_665
Os1 Ge2A 2.472(2) .
Os1 Ge2A 2.472(2) 45_666
Os1 Ge2A 2.472(2) 42_666
Os1 Ge2A 2.472(2) 9
Os1 Ge2A 2.472(2) 14
Os1 Ge2A 2.472(2) 5
Os1 Ge2B 2.475(18) 45_666
Os1 Ge2B 2.475(18) 42_666
Os1 Ge2B 2.475(18) 9
Os1 Ge2B 2.475(18) 5
Os1 Ge2B 2.475(18) 14
Os1 Ge2B 2.475(18) .
Ge2A Os1 2.472(2) 28
Ge2A Ge2A 2.62(2) 26
Ge2A Ge2B 2.70(9) 14
Ge2A Ge2B 2.70(9) 13_455
Ge2A Ge2B 2.93(8) 26
Ge2A Lu1 3.110(4) 25_565
Ge2A Lu1 3.201(10) 5
Ge2B Ge2B 2.33(15) 14
Ge2B Ge2B 2.33(15) 13_455
Ge2B Os1 2.475(18) 28
Ge2B Ge2A 2.70(9) 14
Ge2B Ge2A 2.70(9) 13_455
Ge2B Ge2B 2.76(16) 2_565
Ge2B Ge2A 2.93(8) 26
Ge2B Lu1 2.99(5) 5
Ge2B Lu1 3.08(2) 25_565
#BEGIN Loops that were not found in dictionaries:
loop_
_publcif_info_datablock.id
_publcif_info_datablock.publ_exptl
_publcif_info_datablock.publ_geom
_publcif_info_datablock.structure
{8b01e77d-dca6-4488-a19e-27c3c9fd1c63} y y y
#END Loops that were not found in dictionaries
