#------------------------------------------------------------------------------
#$Date: 2016-03-21 01:21:50 +0200 (Mon, 21 Mar 2016) $
#$Revision: 178377 $
#$URL: svn://www.crystallography.net/cod/cif/4/00/21/4002195.cif $
#------------------------------------------------------------------------------
#
# This file is available in the Crystallography Open Database (COD),
# http://www.crystallography.net/
#
# All data on this site have been placed in the public domain by the
# contributors.
#
data_4002195
loop_
_publ_author_name
'Rai, Binod K.'
'Oswald, Iain W. H.'
'Wang, Jiakui K.'
'McCandless, Gregory T.'
'Chan, Julia Y.'
'Morosan, E.'
_publ_section_title
;
 Superconductivity in Single Crystals of Lu3T4Ge13--x(T= Co, Rh, Os) and
 Y3T4Ge13--x(T= Ir, Rh, Os)
;
_publ_section_keywords
;
crystal structure
;
_journal_issue                   7
_journal_name_full               'Chemistry of Materials'
_journal_page_first              2488
_journal_paper_doi               10.1021/cm504658h
_journal_volume                  27
_journal_year                    2015
_chemical_formula_sum            'Co4 Ge13 Lu3'
_chemical_formula_weight         1704.30
_space_group_crystal_system      cubic
_space_group_IT_number           223
_space_group_name_Hall           '-P 4n 2 3'
_space_group_name_H-M_alt        'P m -3 n'
_symmetry_space_group_name_Hall  '-P 4n 2 3'
_symmetry_space_group_name_H-M   'P m -3 n'
_audit_creation_method           SHELXL-2014
_audit_update_record
;
2014-10-31 # Formatted by publCIF

;
_cell_angle_alpha                90
_cell_angle_beta                 90
_cell_angle_gamma                90
_cell_formula_units_Z            2
_cell_length_a                   8.6997(6)
_cell_length_b                   8.6997(6)
_cell_length_c                   8.6997(6)
_cell_measurement_reflns_used    1514
_cell_measurement_temperature    298(2)
_cell_measurement_theta_max      30.46
_cell_measurement_theta_min      3.31
_cell_volume                     658.43(8)
_computing_cell_refinement       'Bruker SAINT'
_computing_data_collection       'Bruker APEX2'
_computing_data_reduction        'Bruker SAINT'
_computing_molecular_graphics    CrystalMaker
_computing_publication_material  'PublCIF (Westrip, 2010)'
_computing_structure_refinement  'SHELXL-2014 (Sheldrick, 2014)'
_computing_structure_solution    'SHELXS Direct Methods (Sheldrick, 2013)'
_diffrn_ambient_temperature      298(2)
_diffrn_measured_fraction_theta_full 1.000
_diffrn_measured_fraction_theta_max 1.000
_diffrn_measurement_device_type  'Bruker Kappa D8 Quest CMOS'
_diffrn_measurement_method       '\f scan'
_diffrn_radiation_monochromator  'HELIOS optics'
_diffrn_radiation_type           MoK\a
_diffrn_radiation_wavelength     0.71073
_diffrn_reflns_av_R_equivalents  0.0346
_diffrn_reflns_av_unetI/netI     0.0176
_diffrn_reflns_Laue_measured_fraction_full 1.000
_diffrn_reflns_Laue_measured_fraction_max 1.000
_diffrn_reflns_limit_h_max       9
_diffrn_reflns_limit_h_min       -10
_diffrn_reflns_limit_k_max       10
_diffrn_reflns_limit_k_min       -12
_diffrn_reflns_limit_l_max       7
_diffrn_reflns_limit_l_min       -12
_diffrn_reflns_number            2291
_diffrn_reflns_point_group_measured_fraction_full 1.000
_diffrn_reflns_point_group_measured_fraction_max 1.000
_diffrn_reflns_theta_full        25.242
_diffrn_reflns_theta_max         30.458
_diffrn_reflns_theta_min         3.312
_diffrn_source                   'I\mS microfocus tube'
_exptl_absorpt_coefficient_mu    56.249
_exptl_absorpt_correction_T_max  0.7461
_exptl_absorpt_correction_T_min  0.2731
_exptl_absorpt_correction_type   multi-scan
_exptl_absorpt_process_details   SADABS(2014)
_exptl_crystal_colour            Silver
_exptl_crystal_density_diffrn    8.596
_exptl_crystal_description       Fragment
_exptl_crystal_F_000             1474
_exptl_crystal_size_max          0.50
_exptl_crystal_size_mid          0.22
_exptl_crystal_size_min          0.02
_refine_diff_density_max         4.351
_refine_diff_density_min         -5.445
_refine_diff_density_rms         0.468
_refine_ls_extinction_coef       0.0016(3)
_refine_ls_extinction_expression Fc^*^=kFc[1+0.001xFc^2^\l^3^/sin(2\q)]^-1/4^
_refine_ls_extinction_method     SHELXL
_refine_ls_goodness_of_fit_ref   1.257
_refine_ls_hydrogen_treatment    undef
_refine_ls_matrix_type           full
_refine_ls_number_constraints    0
_refine_ls_number_parameters     16
_refine_ls_number_reflns         205
_refine_ls_number_restraints     0
_refine_ls_restrained_S_all      1.257
_refine_ls_R_factor_all          0.0326
_refine_ls_R_factor_gt           0.0305
_refine_ls_shift/su_max          0.000
_refine_ls_shift/su_mean         0.000
_refine_ls_structure_factor_coef Fsqd
_refine_ls_weighting_details
'w=1/[\s^2^(Fo^2^)+(0.0260P)^2^+19.6147P] where P=(Fo^2^+2Fc^2^)/3'
_refine_ls_weighting_scheme      calc
_refine_ls_wR_factor_gt          0.0713
_refine_ls_wR_factor_ref         0.0718
_reflns_Friedel_coverage         0.000
_reflns_number_gt                193
_reflns_number_total             205
_reflns_threshold_expression     'I > 2\s(I)'
_cod_data_source_file            Lu3Co4Ge13_CIF.cif
_cod_data_source_block           shelx
_cod_depositor_comments
'Adding full bibliography for 4002190--4002195.cif.'
_cod_original_cell_volume        658.43(15)
_cod_database_code               4002195
#BEGIN Tags that were not found in dictionaries:
_publcif_datablock.id            {821cb711-b20a-43c1-a945-8f5035b3a925}
_shelx_space_group_comment
;
The symmetry employed for this shelxl refinement is uniquely defined
by the following loop, which should always be used as a source of
symmetry information in preference to the above space-group names.
They are only intended as comments.
;
_shelxl_version_number           2014-3
_shelx_res_file
;
TITL scd0268_final in Pm-3n
CELL 0.71073   8.69970   8.69970   8.69970  90.0000  90.0000  90.0000
ZERR    2.00   0.00064   0.00064   0.00064   0.0000   0.0000   0.0000
LATT  1
REM CELL DIMENSIONS 0.22x0.50x0.022
REM VOLUME = 658.44(15)
SYMM -X, -Y, Z
SYMM -X, Y, -Z
SYMM X, -Y, -Z
SYMM Z, X, Y
SYMM Z, -X, -Y
SYMM -Z, -X, Y
SYMM -Z, X, -Y
SYMM Y, Z, X
SYMM -Y, Z, -X
SYMM Y, -Z, -X
SYMM -Y, -Z, X
SYMM 0.5+Y, 0.5+X, 0.5-Z
SYMM 0.5-Y, 0.5-X, 0.5-Z
SYMM 0.5+Y, 0.5-X, 0.5+Z
SYMM 0.5-Y, 0.5+X, 0.5+Z
SYMM 0.5+X, 0.5+Z, 0.5-Y
SYMM 0.5-X, 0.5+Z, 0.5+Y
SYMM 0.5-X, 0.5-Z, 0.5-Y
SYMM 0.5+X, 0.5-Z, 0.5+Y
SYMM 0.5+Z, 0.5+Y, 0.5-X
SYMM 0.5+Z, 0.5-Y, 0.5+X
SYMM 0.5-Z, 0.5+Y, 0.5+X
SYMM 0.5-Z, 0.5-Y, 0.5-X
SFAC CO GE LU
UNIT 8 26 6
TEMP 25
acta
L.S. 40
BOND
FMAP 2
PLAN 10
EADP GE2A GE2B
WGHT    0.026000   19.614700
EXTI    0.001563
FVAR       0.06108   0.35492
LU1   3    0.250000    0.500000    0.000000    10.12500    0.01113    0.00683 =
         0.00683    0.00000    0.00000    0.00000
CO1   1    0.250000    0.250000    0.250000    10.16667    0.00496    0.00496 =
         0.00496    0.00011    0.00011    0.00011
GE1   2    0.000000    0.000000    0.000000    10.04167    0.02252    0.02252 =
         0.02252    0.00000    0.00000    0.00000
GE2A  2    0.000000    0.270383    0.143055    20.50000    0.00507    0.02103 =
         0.01267    0.00986    0.00000    0.00000
GE2B  2    0.000000    0.325072    0.159047   -20.50000    0.00507    0.02103 =
         0.01267    0.00986    0.00000    0.00000
HKLF 4

REM  scd0268_final in Pm-3n
REM R1 =  0.0305 for     193 Fo > 4sig(Fo)  and  0.0326 for all     205 data
REM     16 parameters refined using      0 restraints

END

WGHT      0.0260     19.6146

REM Highest difference peak  4.351,  deepest hole -5.445,  1-sigma level  0.468
Q1    1   0.0000  0.0000  0.1008  10.25000  0.05    4.35
Q2    1   0.0000  0.2600  0.0000  10.25000  0.05    2.38
Q3    1   0.0000  0.5000  0.2500  10.12500  0.05    1.41
Q4    1   0.1124  0.3517  0.0000  10.50000  0.05    0.92
Q5    1   0.1568  0.3725  0.1197  11.00000  0.05    0.92
Q6    1   0.1374  0.3316  0.0756  11.00000  0.05    0.84
Q7    1   0.0000  0.4244  0.0000  10.25000  0.05    0.78
Q8    1   0.3835  0.5000  0.1003  10.50000  0.05    0.78
Q9    1   0.1305  0.1305  0.1305  10.33333  0.05    0.77
Q10   1   0.1207  0.1754  0.1312  11.00000  0.05    0.75
;
_shelx_res_checksum              99006
_shelx_hkl_file
;
   0  -1   0    0.01    0.03
   0   1   0    0.22    0.05
  -1   0   1   13.02    0.50
  -1   1   0   13.38    0.56
   0  -1  -1   13.21    0.51
   0   1   1   12.28    0.51
   1  -1   0   12.33    0.54
   1   0  -1   12.66    0.49
  -1   1   1   -0.54    0.06
   1  -1  -1   -0.52    0.06
   1   1  -1   -0.53    0.04
   0  -2   0    0.58    0.19
   0   0  -2    0.49    0.17
   0   2   0    0.86    0.18
  -2   0   1   63.12    2.21
  -1  -2   0   60.26    2.21
  -1   2   0   63.70    2.31
   0   1   2   62.14    2.24
   1   2   0   63.42    2.18
   2   0  -1   63.19    2.19
  -2   1   0   63.25    2.35
  -1   0   2   63.39    2.24
   0  -2  -1   56.84    2.24
   0   2  -1   63.09    2.38
   0   2   1   63.65    2.24
  -2  -1   1   23.22    0.83
  -2   1   1   21.76    0.91
  -1  -2  -1   21.66    0.86
  -1  -1  -2   23.42    0.89
  -1   1   2   23.02    0.92
  -1   2  -1   23.27    1.17
  -1   2   1   21.67    0.92
   1  -2  -1   22.85    0.93
   1  -1  -2   22.42    0.91
   1   2  -1   21.76    0.90
   1   2   1   21.77    0.84
   2  -1  -1   22.61    0.89
  -2  -2   0   15.55    0.60
  -2   0   2   16.27    0.69
  -2   2   0   15.67    0.83
   0  -2  -2   16.25    0.72
   0   2   2   15.23    0.69
   2  -2   0   15.74    0.77
  -2  -2  -1    0.31    0.07
  -2  -1   2    0.26    0.09
  -2   1   2   -0.03    0.08
  -2   2   1    0.05    0.10
  -1  -2  -2    0.00    0.09
  -1   2   2    0.04    0.08
   1  -2  -2    0.02    0.10
   1   2   2    0.04    0.07
   2  -2  -1    0.15    0.12
   2  -1  -2    0.03    0.09
   2   2  -1    0.16    0.04
  -2  -2  -2  394.19   13.31
  -2   2   2  380.76   13.39
   2  -2  -2  376.06   13.38
   2   2  -2  397.90   13.43
   0  -3   0   -0.48    0.13
   0   0  -3   -0.57    0.10
   0   3   0   -0.53    0.10
  -3   0   1    0.44    0.10
  -1   3   0    0.64    0.17
   0   1   3    0.45    0.11
   1  -3   0    0.30    0.14
   1   3   0    0.38    0.09
   1   0  -3    0.28    0.11
   0  -3  -1    0.28    0.12
   0   3  -1    0.26    0.14
   0   3   1    0.38    0.12
  -1   0   3    0.46    0.13
  -3   1   0    0.23    0.19
  -1   1   3   -0.97    0.09
   1  -3  -1   -0.75    0.13
  -1   3   1   -0.57    0.14
   1   1  -3   -0.83    0.10
   1   3  -1   -0.83    0.10
   1   3   1   -0.68    0.09
   1  -1  -3   -0.74    0.11
  -3  -1   1   -0.86    0.06
  -3   1   1   -0.76    0.13
  -1  -3  -1   -0.90    0.09
  -1  -3   1   -0.62    0.20
  -1  -1  -3   -0.97    0.09
  -1   3  -1   -0.88    0.20
   3   0  -2  830.31   28.45
   0   2   3  783.11   28.09
   2  -3   0  877.93   28.29
  -3   0   2  887.72   28.24
  -2  -3   0  705.75   27.84
  -2   3   0  816.60   27.95
   0  -2  -3  785.06   28.03
   0   3   2  821.23   28.13
   2   0  -3  905.81   28.30
   0  -3  -2  760.08   27.78
   0   3  -2  727.06   28.05
  -3   2   0  833.72   28.01
  -2   0   3  819.25   27.93
  -1   2   3  217.85    7.23
   1  -3  -2  204.01    7.24
   3  -2  -1  201.13    7.21
   2   3  -1  201.37    7.08
   2  -1  -3  208.48    7.20
   3   1  -2  197.80    7.07
  -2   3   1  194.16    7.26
  -1  -2  -3  200.25    7.19
  -2  -3  -1  192.83    7.12
   1   3   2  210.24    7.14
  -3  -2   1  208.99    7.07
  -3   1   2  202.00    7.20
   2  -3  -1  208.75    7.25
  -3   2   1  212.59    7.30
  -2   1   3  214.29    7.23
  -1  -3  -2  210.16    7.19
  -1   3   2  206.73    7.23
   1  -2  -3  217.81    7.24
   1   3  -2  203.96    7.32
  -2   3  -1  203.90    7.56
   3  -1  -2  204.71    7.16
   2   1  -3  206.34    7.16
  -3  -1   2  209.85    7.14
  -3   2   2    0.13    0.13
  -2  -3  -2   -0.02    0.10
  -2  -2  -3    0.11    0.11
  -2   2   3    0.05    0.14
  -2   3   2    0.20    0.15
   2  -3  -2    0.14    0.13
   2  -2  -3    0.03    0.13
   2   2  -3    0.14    0.10
   2   3  -2    0.15    0.12
   3  -2  -2    0.06    0.13
   3   2  -2   -0.03    0.05
   3   2  -2    0.23    0.06
  -3  -3   0  208.24    7.35
  -3   0   3  210.69    7.47
  -3   3   0  223.82    7.77
   0  -3  -3  211.64    7.50
   0   3   3  201.99    7.46
   3  -3   0  213.55    7.59
   3   0  -3  222.17    7.43
  -3  -3  -1   -0.55    0.08
  -3  -3   1   -0.49    0.22
  -3  -1   3   -0.35    0.12
  -3   1   3   -0.16    0.17
  -3   3  -1   -1.13    0.35
  -3   3   1   -0.62    0.20
  -1  -3  -3   -0.43    0.13
  -1   3   3   -0.62    0.15
   1  -3  -3   -0.44    0.13
   1   3   3   -0.51    0.11
   3  -3  -1   -0.61    0.16
   3  -1  -3   -0.53    0.12
   3   1  -3   -0.49    0.10
  -3   2   3   24.16    1.38
  -2  -3  -3   23.42    1.00
  -2   3   3   24.95    1.08
   2   3  -3   24.26    0.96
   3  -3  -2   23.62    1.06
   3  -2  -3   22.23    1.01
   3   2  -3   22.15    0.92
   3   3  -2   22.14    0.84
   3   3  -2   22.42    0.84
  -3  -3  -3   -0.02    0.13
  -3   3   3    0.18    0.16
   3  -3  -3   -0.10    0.17
   3   3  -3   -0.19    0.15
   3   3  -3    0.13    0.11
   0  -4   0 1000.00   33.46
   0   0  -4  940.07   33.56
   0   4   0  967.89   33.44
  -4   0   1  115.33    3.93
  -1  -4   0  113.53    4.00
  -1   4   0  108.39    4.03
   0  -1  -4  106.62    3.97
   1  -4   0  105.55    4.04
   1   4   0  109.19    3.90
   0   4  -1  107.12    4.02
   0   4   1  107.05    3.95
   1   0  -4  118.18    3.98
   0  -4   1  112.10    4.16
   0  -4  -1  105.20    3.98
  -1   4   1    7.18    0.48
  -1  -1  -4    6.65    0.46
  -1   1   4    6.65    0.45
  -1  -4  -1    6.86    0.45
  -1  -4   1    7.20    0.63
  -4  -1   1    8.45    0.37
  -4   1   1    8.97    0.56
   1  -4  -1    7.19    0.50
   1  -1  -4    6.28    0.46
  -1   4  -1    7.18    0.61
   1   1  -4    5.99    0.43
   1   4  -1    7.35    0.44
   1   4   1    7.27    0.40
   2   4   0   39.29    1.46
   4   0  -2   41.56    1.48
   0   4   2   37.75    1.58
   2   0  -4   40.10    1.59
  -2   0   4   37.82    1.60
   0   4  -2   41.11    1.81
   0   2   4   38.32    1.59
   2  -4   0   41.21    1.73
   0  -2  -4   39.56    1.63
  -4   2   0   36.29    1.84
  -4   0   2   42.84    1.57
  -2  -4   0   40.30    1.60
  -4  -2   1   59.23    2.04
   2  -1  -4   58.48    2.22
  -4   1   2   61.13    2.24
  -4   2  -1   54.07    2.53
   4  -2  -1   60.43    2.23
  -1   4  -2   59.59    2.94
  -2   4   1   56.40    2.31
  -1  -2  -4   57.28    2.23
  -1   2   4   52.15    2.30
   1   4   2   57.19    2.15
   1  -4  -2   55.26    2.25
   2   4  -1   60.05    2.10
  -2  -4  -1   58.22    2.18
  -2  -4   1   57.50    2.38
   2  -4  -1   58.08    2.29
   1   4  -2   57.24    2.26
   1  -2  -4   58.69    2.24
  -4  -1   2   58.61    2.13
   2   1  -4   58.43    2.19
   2   4   1   58.91    2.06
  -4   2   1   62.83    2.38
  -1  -4  -2   54.63    2.20
  -2   4  -1   59.03    2.56
  -1   4   2   54.83    2.23
   4  -1  -2   61.83    2.16
   2   4  -2  173.79    5.98
  -4  -2   2  170.47    5.92
  -4   2   2  172.51    6.11
  -2  -4  -2  168.84    5.99
  -2  -2  -4  172.21    6.03
  -2   2   4  165.19    6.07
  -2   4  -2  143.22    6.51
   2  -4  -2  166.67    6.09
   2  -2  -4  172.21    6.06
   2   2  -4  172.60    5.99
  -2   4   2  171.47    6.11
   4  -2  -2  171.74    6.02
   2   4   2  177.97    5.90
   3   0  -4   47.59    1.82
   3  -4   0   45.05    1.97
   4   0  -3   47.24    1.75
   0   4   3   46.71    1.84
  -4   0   3   49.67    1.85
  -3  -4   0   46.58    1.82
  -3   4   0   48.16    2.15
   0  -3  -4   47.00    1.89
  -3   0   4   45.14    1.86
   0  -4  -3   47.64    1.89
  -4   3   0   44.50    2.20
  -3   4   1    2.30    0.42
   1   4   3    2.34    0.28
   3  -1  -4    2.49    0.33
   1  -4  -3    2.87    0.37
  -4   1   3    2.64    0.34
  -3  -4  -1    2.49    0.26
  -1   3   4    2.77    0.34
  -4   3  -1    1.82    0.51
   4  -3  -1    2.30    0.34
  -1  -3  -4    2.83    0.35
  -4  -1   3    2.77    0.31
   3   1  -4    1.96    0.27
  -3  -4   1    2.25    0.41
  -3   1   4    2.69    0.35
  -1  -4  -3    2.63    0.34
   1   4  -3    2.84    0.48
  -4   3   1    2.30    0.40
   4  -1  -3    3.16    0.31
  -4  -3  -1    2.47    0.16
   1  -3  -4    1.99    0.30
   3  -4  -1    2.35    0.36
  -1   4   3    2.67    0.34
  -3   4  -1    1.42    0.46
   4   2  -3  143.22    5.10
   4   2  -3  141.53    5.06
   3   4  -2  143.93    5.06
  -2   3   4  148.92    5.33
  -3  -4  -2  142.32    5.18
   3   4  -2  144.68    5.07
   2  -4  -3  153.54    5.35
   2   3  -4  149.00    5.21
   4  -3  -2  147.18    5.29
  -3   4   2  144.24    5.38
  -2  -3  -4  145.57    5.27
   3  -2  -4  143.22    5.27
  -4   2   3  145.46    5.33
   2  -3  -4  150.57    5.32
  -4  -3  -2  148.66    5.11
  -4   3   2  152.92    5.42
  -3  -2  -4  151.88    5.25
  -3   2   4  147.35    5.33
  -2  -4  -3  147.38    5.25
  -2   4   3  143.01    5.32
  -4  -2   3  149.49    5.21
   2   4  -3  146.57    5.31
   4  -2  -3  147.61    5.25
   3   2  -4  147.09    5.19
   3  -4  -2  144.91    5.33
  -4  -3  -3  275.46    9.65
  -3  -4  -3  277.45    9.71
  -3  -3  -4  284.88    9.73
  -3   3   4  273.88    9.83
  -3   4   3  276.57    9.85
   3  -4  -3  280.89    9.82
   3  -3  -4  283.72    9.80
   3   3  -4  286.57    9.66
   3   4  -3  275.70    9.64
   3   4  -3  275.98    9.59
   4  -3  -3  267.14    9.76
  -4  -4   0  368.35   12.98
  -4   0   4  369.18   13.10
   0  -4  -4  390.27   13.16
   0   4   4  380.89   13.09
   4   0  -4  372.10   13.01
  -4  -4  -1    0.22    0.13
  -4  -4   1    0.05    0.29
  -4  -1   4    0.11    0.17
  -4   1   4   -0.01    0.20
  -1  -4  -4    0.18    0.21
  -1   4   4    0.24    0.20
   1  -4  -4    0.37    0.21
   1   4   4    0.14    0.17
   4  -4  -1    0.85    0.29
   4  -1  -4    0.11    0.16
   4   1  -4   -0.04    0.12
  -4  -4  -2   12.88    0.63
  -4   2   4   12.03    0.80
  -4   4   2   12.26    1.06
  -2  -4  -4   12.09    0.74
  -2   4   4   11.31    0.78
   2  -4  -4   11.56    0.77
   4  -4  -2   12.92    0.80
   4  -2  -4   13.22    0.74
   4   2  -4   12.27    0.60
  -4  -4  -3    0.26    0.18
  -4  -3  -4   -0.06    0.20
  -3  -4  -4   -0.16    0.21
  -3   4   4   -0.08    0.27
   3  -4  -4    0.38    0.22
   3   4  -4    0.13    0.27
   3   4  -4    0.28    0.16
   4  -4  -3    0.50    0.26
   4  -3  -4   -0.21    0.19
   4   3  -4   -0.10    0.20
   4   3  -4    0.07    0.13
  -4  -4  -4  371.71   13.16
  -4   4   4  376.24   13.37
   4  -4  -4  385.63   13.27
   4   4  -4  371.78   13.03
   4   4  -4  384.34   12.99
  -5   0   0    0.23    0.23
   0  -5   0    0.19    0.22
   0   0  -5    0.16    0.14
   0   5   0    0.56    0.18
  -5   0   1   60.99    2.22
  -1  -5   0   57.43    2.28
  -1   5   0   61.10    2.30
   0  -1  -5   56.98    2.23
   1  -5   0   59.35    2.34
   1   5   0   56.91    2.14
   0   5   1   56.26    2.19
   1   0  -5   56.55    2.22
  -5   1   0   47.84    2.34
   0  -5  -1   55.94    2.26
   0  -5   1   53.35    2.40
   0   5  -1   57.36    2.25
   1   5   1    0.64    0.18
  -1   5   1    0.12    0.20
  -5  -1   1    0.08    0.14
  -5   1   1   -0.09    0.24
  -1  -5  -1    0.02    0.17
  -1  -5   1    0.44    0.32
  -1  -1  -5    0.01    0.16
   1   5  -1   -0.15    0.16
  -1   5  -1   -0.28    0.26
   1   1  -5    0.19    0.16
   1  -5  -1    0.04    0.23
  -5   0   2   90.10    3.16
  -2   5   0   91.07    3.38
   2   5   0   85.04    3.03
  -5   2   0   72.51    3.43
  -2  -5   0   88.89    3.25
   0  -5  -2   81.96    3.22
   0   5  -2   85.36    3.34
   2   0  -5   86.68    3.19
   0  -2  -5   86.09    3.22
   2  -5   0   82.19    3.32
  -1   5  -2   32.63    1.63
   1  -5  -2   31.67    1.38
  -1   2   5   33.21    1.34
  -5   1   2   28.36    1.33
  -5  -2   1   26.97    1.09
  -5   2  -1   29.51    1.60
  -2   5   1   28.31    1.39
  -1  -2  -5   32.25    1.35
   1   5   2   30.94    1.23
   2  -1  -5   28.86    1.30
  -2  -5  -1   28.15    1.29
   2   5  -1   29.38    1.18
   1   2  -5   31.23    1.31
  -2   5  -1   31.35    1.61
  -2  -1  -5   30.47    1.32
  -2   1   5   30.77    1.33
   1  -2  -5   31.98    1.35
  -5   2   1   24.66    1.58
  -1   5   2   29.78    1.32
  -2  -5   1   29.01    1.51
   2   5   1   28.01    1.14
  -1  -5  -2   30.34    1.32
   2   1  -5   28.84    1.28
  -5  -1   2   26.95    1.19
   5  -1  -2   27.80    1.19
   1   5  -2   31.99    1.34
   2  -5  -1   28.72    1.37
   2  -5  -2    0.39    0.21
  -2  -5  -2    0.38    0.20
  -5  -2   2    0.08    0.14
  -5   2   2   -0.02    0.28
   5  -2  -2    0.22    0.20
  -2  -2  -5    0.07    0.18
   2  -2  -5    0.25    0.22
   2   2  -5    0.03    0.15
   2   5  -2    0.21    0.17
  -2   2   5    0.04    0.19
  -2   5  -2   -0.18    0.47
  -2   5   2    0.06    0.24
   0  -3  -5   13.45    0.82
   3  -5   0   14.55    0.95
   0   5   3   13.43    0.77
   3   0  -5   13.93    0.75
   5   0  -3   15.54    0.65
   0   3   5   13.38    0.76
   0  -5  -3   15.09    0.84
   0   5  -3   13.26    1.06
  -5   0   3   15.64    0.80
  -5   3   0   13.29    1.16
  -3  -5   0   14.22    0.83
  -3   5   0   15.57    1.11
  -3  -5  -1   13.49    0.74
  -1   5  -3   11.52    1.26
   3  -1  -5   12.53    0.74
   1  -5  -3   12.93    0.80
   1   5   3   13.28    0.70
  -5   1   3   14.13    0.82
  -3   5   1   13.36    0.94
  -5  -3   1   13.55    0.56
  -5   3  -1   11.24    1.13
  -1   3   5   13.41    0.79
  -1  -3  -5   12.48    0.79
  -5  -1   3   13.77    0.71
  -1   5   3   12.15    0.77
  -3  -5   1   11.03    0.97
  -1  -5  -3   12.35    0.76
  -5   3   1   15.33    1.14
   1  -3  -5   13.16    0.79
   3  -5  -1   13.06    0.86
   5  -1  -3   13.61    0.68
   3   1  -5   12.84    0.72
   1   5  -3   12.71    0.88
  -3   5  -1   12.29    1.17
   3   5  -2  183.84    6.35
  -2   5  -3  156.21    7.17
  -3  -5  -2  180.82    6.51
   5  -3  -2  190.73    6.58
  -3   5   2  184.82    6.71
  -2  -3  -5  179.10    6.59
  -2   3   5  182.72    6.62
   2  -5  -3  181.80    6.64
   2   3  -5  180.16    6.52
   2   5   3  187.11    6.42
  -5   2   3  187.08    6.67
   3  -2  -5  186.51    6.59
   3  -5  -2  186.67    6.67
  -5   3   2  194.31    6.81
   2   5  -3  182.77    6.55
  -5  -2   3  182.70    6.47
  -2   5   3  182.27    6.64
   5  -2  -3  182.88    6.51
   3   2  -5  189.62    6.51
   2  -3  -5  183.85    6.61
  -2  -5  -3  181.38    6.57
  -3   2   5  187.75    6.70
  -3  -2  -5  184.43    6.57
   3  -5  -3    0.26    0.25
   3  -3  -5    0.42    0.25
   3   3  -5    0.31    0.20
   3   5  -3    0.18    0.18
  -3  -3  -5    0.24    0.23
  -3  -5  -3    0.31    0.22
  -3   5  -3    0.60    0.75
  -3   5   3   -0.11    0.27
  -5   3   3    0.67    0.33
  -3   3   5    0.46    0.29
   5  -3  -3    0.31    0.24
   3   5  -3    0.25    0.15
   0   4   5  100.23    3.66
   0  -5  -4  100.12    3.73
   0   5  -4   97.41    4.15
   0  -4  -5   97.61    3.72
   5   0  -4  100.62    3.52
  -5   0   4  104.34    3.69
  -4  -5   0   95.01    3.65
   4   0  -5   94.05    3.59
  -4   0   5   95.03    3.67
   0   5   4   98.50    3.65
  -5  -4   0   97.65    3.48
  -5   4   0   91.45    4.17
  -4  -5  -1   10.90    0.62
   5   1  -4    9.57    0.49
  -5   1   4    8.89    0.71
   1   5   4    8.12    0.58
   4  -1  -5   10.74    0.64
  -1  -4  -5    8.27    0.66
  -4  -1   5   10.75    0.68
   1  -5  -4    9.43    0.71
  -1   4   5    9.39    0.67
  -4   5   1   10.14    1.02
  -4   1   5   10.25    0.70
  -1  -5  -4    9.38    0.70
   1  -4  -5    9.69    0.72
   4  -5  -1   10.99    0.82
  -5   4   1   10.19    1.12
  -5  -1   4    9.39    0.65
  -4  -5   1    8.99    0.90
   1   5  -4    9.54    0.94
  -5  -4  -1    9.97    0.47
   5  -1  -4    9.20    0.58
   4   1  -5   10.63    0.60
  -1   5   4    8.68    0.67
   5  -4  -2  108.13    4.00
  -4   5   2  104.50    4.17
   5   2  -4   98.26    3.67
  -2   4   5  107.50    4.23
  -5   4  -2  112.04    4.51
   2  -5  -4  101.61    4.01
  -5   2   4  104.54    4.03
  -4  -5  -2  106.99    3.85
   4  -2  -5  103.99    3.93
  -2  -4  -5  108.25    3.98
   2   4  -5  104.80    3.88
   2  -4  -5  104.36    4.00
   4   2  -5  105.66    3.82
   4  -5  -2  105.03    4.03
   5  -2  -4  104.17    3.88
  -2  -5  -4  105.82    3.96
  -5   4   2  109.44    4.25
  -5  -2   4  105.27    3.89
   2   5  -4  104.76    4.04
  -5  -3  -4    2.81    0.38
  -5   3   4    3.81    0.55
  -4  -5  -3    3.31    0.45
  -4   5   3    3.26    0.58
  -3  -4  -5    2.81    0.42
  -3   5  -4    2.36    0.89
   3   4  -5    2.92    0.35
   4  -3  -5    4.70    0.49
   5  -4  -3    3.64    0.47
   3  -5  -4    4.09    0.53
  -5   4  -3    3.19    0.68
  -4  -3  -5    3.69    0.50
  -3  -5  -4    2.96    0.42
   3  -4  -5    1.98    0.36
  -3   5   4    3.16    0.50
  -5  -4  -3    2.98    0.39
   3   5  -4    2.80    0.40
   3   5  -4    3.35    0.36
   4  -5  -3    3.81    0.52
   4   3  -5    3.14    0.37
   5  -3  -4    2.86    0.41
  -5  -4  -4    0.23    0.28
  -4  -5  -4   -0.43    0.23
  -4  -4  -5   -0.01    0.26
  -4   5   4    0.47    0.38
   4  -5  -4    0.38    0.31
   4  -4  -5    0.16    0.25
   4   4  -5   -0.16    0.28
   4   4  -5    0.21    0.19
   4   5  -4    0.24    0.18
   4   5  -4    0.08    0.15
   5  -4  -4   -0.27    0.24
  -5  -5   0   72.17    2.75
  -5   0   5   70.17    2.78
   0  -5  -5   65.71    2.80
   0   5   5   66.10    2.71
   5   0  -5   74.52    2.65
  -5  -1   5   -0.33    0.25
  -5   1   5    0.12    0.29
  -1  -5  -5    0.03    0.25
  -1   5   5    0.35    0.35
   1  -5  -5    0.14    0.26
   1   5   5    0.09    0.22
   5  -5  -1   -0.06    0.34
   5  -1  -5    0.28    0.20
   5   1  -5    0.04    0.17
  -5   2   5   57.38    2.45
  -2  -5  -5   57.36    2.40
   2  -5  -5   59.84    2.45
   2   5  -5   57.74    2.57
   5  -5  -2   57.57    2.44
   5  -2  -5   56.88    2.30
   5   2  -5   56.66    2.14
  -5  -5  -3   -0.15    0.27
  -5  -3  -5    0.33    0.29
  -3  -5  -5   -0.14    0.26
   3  -5  -5    0.20    0.26
   3   5  -5   -0.42    0.33
   3   5  -5    0.25    0.20
   5  -5  -3    0.15    0.31
   5  -3  -5    0.07    0.24
   5   3  -5    0.02    0.23
   5   3  -5    0.03    0.15
  -5  -5  -4    2.50    0.43
  -5  -4  -5    3.60    0.48
  -4  -5  -5    3.02    0.48
   4  -5  -5    2.36    0.44
   4   5  -5    2.93    0.39
   4   5  -5    3.73    0.40
   5  -5  -4    2.77    0.48
   5  -4  -5    2.70    0.45
   5   4  -5    3.18    0.33
   5   4  -5    2.87    0.31
  -5  -5  -5    0.34    0.35
   5  -5  -5    0.39    0.36
  -6   0   0  434.07   14.47
   0  -6   0  413.28   14.59
   0   0  -6  400.70   14.46
   0   6   0  408.44   14.44
  -6   0   1  128.44    4.62
  -1  -6   0  128.97    4.74
  -1   6   0  123.17    4.66
   0  -1  -6  120.49    4.62
   0   1  -6  126.14    4.63
   1  -6   0  126.84    4.76
   1   6   0  124.52    4.51
   1   0  -6  127.24    4.62
  -6   1   0  111.69    4.70
  -1   0  -6  129.26    4.64
   0  -6  -1  128.25    4.69
   0  -6   1  124.03    4.87
   0   6  -1  127.26    4.64
   0   6   1  124.25    4.57
  -1   6   1   16.86    0.94
  -6   1  -1   19.99    1.06
  -1   6  -1   17.53    1.07
  -1  -6  -1   17.07    0.99
  -1  -1  -6   16.80    0.94
   1  -6  -1   16.25    1.00
  -6  -1   1   15.31    0.81
  -1  -6   1   17.09    1.17
   1   1  -6   16.57    0.91
   1   6  -1   15.84    0.91
   1   6   1   17.26    0.84
   1  -1  -6   17.86    0.94
  -6   1   1   16.89    1.09
  -6   2   0    0.79    0.48
   0  -2  -6    1.25    0.31
   2   0  -6    0.57    0.25
  -2  -6   0    0.81    0.33
  -2   6   0    0.64    0.37
   2   6   0    0.73    0.19
  -6   0   2    1.20    0.30
   0   6  -2    1.77    0.43
   2  -6   0    0.68    0.36
   0  -6  -2    1.14    0.34
   1  -6  -2    8.52    0.69
  -2   6   1    6.91    0.69
  -1  -2  -6    8.07    0.64
   2  -1  -6    7.08    0.60
   1   2  -6    9.05    0.64
   2   6  -1    7.23    0.49
  -6   1   2    8.05    0.73
  -1   6  -2    9.77    0.92
  -6  -2   1    9.21    0.44
  -6   2  -1    9.28    0.90
  -2  -6  -1    8.21    0.67
  -6  -1   2    9.58    0.56
  -6   2   1    8.44    0.98
  -1  -6  -2    8.83    0.68
  -2  -6   1    7.42    0.91
   1  -2  -6    7.68    0.63
  -1   6   2    7.89    0.64
   2  -6  -1    7.48    0.72
   1   6  -2    7.63    0.63
   2   1  -6    7.29    0.57
  -2   6  -1    8.71    0.93
  -2  -1  -6    7.28    0.63
   2   6   1    7.34    0.46
  -2   6   2  644.41   23.21
   2  -6  -2  653.10   23.24
   2  -2  -6  669.02   23.18
  -2   2   6  643.71   23.17
  -6  -2   2  711.24   22.99
  -6   2   2  700.68   23.36
  -2  -6  -2  646.68   23.15
  -2  -2  -6  661.26   23.18
   2   2  -6  666.36   23.12
   2   6  -2  676.74   23.04
   2   6   2  669.90   22.96
  -2   6  -2  698.91   25.03
  -3  -6   0  251.10    9.30
  -3   6   0  268.89    9.58
   0  -3  -6  263.93    9.27
  -6   0   3  258.31    9.20
   0  -6  -3  256.70    9.26
   0   6  -3  269.79    9.48
   0   6   3  258.96    9.18
   3   0  -6  254.21    9.17
   3  -6   0  256.65    9.41
   1   3  -6  117.93    4.35
  -6   1   3  118.40    4.42
  -3  -6  -1  119.18    4.38
  -3   6   1  120.34    4.60
  -1  -3  -6  117.65    4.41
  -1   3   6  124.99    4.40
  -1   6  -3  124.57    4.87
  -6  -3   1  112.08    4.08
  -6   3  -1  113.82    4.72
   1   6   3  117.37    4.25
   1  -6  -3  116.65    4.42
   3   6  -1  113.14    4.06
   3  -1  -6  117.02    4.34
  -1  -6  -3  115.88    4.38
   1  -3  -6  121.72    4.42
   3  -6  -1  114.04    4.48
  -6  -1   3  109.56    4.36
   3   1  -6  119.87    4.31
  -3   6  -1  122.96    4.92
   6  -1  -3  118.35    4.19
   1   6  -3  115.49    4.42
  -6   3   1  111.72    4.74
  -1   6   3  119.67    4.39
  -3  -6   1  105.48    4.62
  -3   1   6  116.40    4.51
   3   6  -2  103.42    3.60
  -3   6   2  103.96    4.04
  -2  -3  -6   98.63    3.87
  -3  -6  -2  102.71    3.83
   3  -2  -6  103.91    3.85
   2   3  -6   99.25    3.79
  -6  -3   2  106.55    3.65
  -2   3   6  101.82    3.89
   2  -6  -3   97.62    3.92
   2   6   3  100.03    3.66
  -6   2   3  106.21    4.01
  -6   3   2  105.56    4.16
   6  -2  -3  103.99    3.74
  -6  -2   3  101.83    3.72
  -2   6   3   97.11    3.90
  -2  -6  -3   97.22    3.84
  -3   6  -2   92.48    4.50
  -3  -2  -6  103.70    3.88
  -3   2   6  104.12    4.01
   3  -6  -2  100.89    3.95
   3   2  -6  101.36    3.77
   2  -3  -6   99.84    3.87
  -3  -3  -6    7.38    0.67
  -3   3   6    7.78    0.73
  -3  -6  -3    7.50    0.65
   3   6  -3    7.93    0.52
   3  -3  -6    7.95    0.67
   3   3  -6    7.37    0.58
  -6   3   3    6.72    0.92
   3  -6  -3    6.79    0.69
   3   6  -3    7.37    0.46
   6  -3  -3    7.39    0.61
  -3   6  -3    5.14    1.08
  -6  -4   0    2.61    0.31
  -6   0   4    2.11    0.40
   6   0  -4    2.69    0.32
   0  -6  -4    4.19    0.56
   0   6  -4    4.19    0.77
   0   6   4    3.42    0.45
   4   0  -6    2.37    0.36
  -6   4   0    1.73    0.83
  -4  -6   0    2.06    0.48
  -4   6   0    4.53    0.97
   0  -4  -6    3.44    0.52
   0   4   6    3.62    0.51
  -4   0   6    2.50    0.43
   1  -6  -4  158.51    5.96
  -6   1   4  169.40    5.99
   4  -1  -6  161.62    5.85
  -1  -4  -6  161.25    5.95
   1   6   4  160.09    5.78
  -1   6  -4  160.89    6.52
  -4  -6  -1  162.97    5.88
  -4   6   1  173.24    6.32
  -1   4   6  159.01    5.90
  -6   4  -1  158.56    6.40
   4  -6  -1  161.63    6.06
  -4  -6   1  141.93    6.11
  -6  -4  -1  161.69    5.58
   1  -4  -6  158.99    5.94
  -6  -1   4  166.21    5.86
   1   6  -4  172.94    6.13
   6  -1  -4  163.54    5.72
  -1   6   4  168.17    5.93
   4   1  -6  162.23    5.80
  -1  -6  -4  164.08    5.94
  -6   4   1  155.37    6.41
  -4   6  -1  141.74    6.53
  -6   4  -2    3.22    0.68
   4  -2  -6    4.36    0.50
  -2  -4  -6    3.76    0.52
  -6   2   4    4.23    0.63
   6  -4  -2    2.72    0.46
  -4   6   2    4.16    0.72
   2  -6  -4    4.22    0.59
  -4  -6  -2    3.92    0.55
   2   4  -6    3.89    0.48
   2  -4  -6    4.20    0.56
  -4  -2  -6    3.59    0.49
  -2  -6  -4    3.62    0.49
  -6   4   2    3.42    0.69
   4  -6  -2    2.96    0.50
  -6  -2   4    2.90    0.42
  -6  -4  -2    3.72    0.34
   2   6  -4    4.10    0.54
  -4   6  -2    1.42    0.83
   4   2  -6    2.72    0.37
  -2   6   4    2.96    0.50
   6  -2  -4    3.21    0.40
  -6   4  -3   17.47    1.45
  -6   3   4   16.94    1.27
   4  -3  -6   17.19    1.01
  -3  -4  -6   16.61    1.04
   3  -6  -4   15.33    1.04
   6  -4  -3   18.93    1.04
  -4  -6  -3   17.09    1.00
   3   4  -6   15.95    0.90
  -4   6   3   19.39    1.65
  -4  -3  -6   19.26    1.07
   3   6  -4   16.58    0.91
  -3  -6  -4   16.04    1.02
   3  -4  -6   15.14    1.01
  -6   4   3   17.18    1.38
  -6  -4  -3   17.14    0.85
  -4   6  -3   14.51    1.90
   3   6  -4   16.12    0.82
   6  -3  -4   16.91    0.96
   4  -6  -3   18.09    1.12
   4   3  -6   18.01    0.90
  -4  -6  -4    7.43    0.71
  -6  -4  -4    8.30    0.64
   4   4  -6    7.00    0.58
   4   6  -4    6.14    0.44
   4   6  -4    7.05    0.42
   4  -6  -4    6.49    0.74
   4  -4  -6    6.25    0.67
  -4  -4  -6    5.91    0.74
   6  -4  -4    7.31    0.71
  -5  -6   0  128.84    4.89
   0   6   5  131.49    4.79
  -6   0   5  129.78    4.87
   0  -5  -6  134.37    4.92
   0   5   6  134.90    4.81
   6   0  -5  131.20    4.62
   5   0  -6  133.91    4.72
  -5   0   6  133.11    4.88
   0  -6  -5  131.12    4.91
   0   6  -5  133.01    5.38
  -6  -5   0  119.07    4.88
  -6   5   0  106.16    5.41
   1   6   5    7.28    0.61
   6   1  -5    6.54    0.44
   5  -1  -6    5.76    0.58
  -1   6  -5    7.21    1.19
  -6   1   5    6.54    0.80
  -1   5   6    7.97    0.73
  -6   5  -1    7.27    1.17
  -5  -6  -1    5.34    0.66
  -1  -5  -6    7.21    0.71
   1  -6  -5    6.71    0.70
  -6   5   1    6.31    1.19
  -6  -5  -1    5.04    0.70
  -5   1   6    4.63    0.60
   1   6  -5    8.05    1.00
   6  -1  -5    7.07    0.56
   1  -5  -6    7.06    0.71
   5   1  -6    6.32    0.54
  -1   6   5    7.69    0.74
   5  -6  -1    7.71    0.87
  -6  -1   5    7.59    0.75
  -1  -6  -5    7.33    0.74
   6  -5  -2    4.32    0.61
  -6   2   5    5.26    0.70
   2   5  -6    4.44    0.53
  -5  -6  -2    5.01    0.61
  -2  -5  -6    3.86    0.54
  -6   5  -2    3.93    0.89
   2  -6  -5    5.21    0.65
   5  -2  -6    4.92    0.54
  -2   6   5    4.58    0.63
  -5   2   6    5.09    0.73
   2   6  -5    6.30    0.84
  -2  -6  -5    5.10    0.63
   5   2  -6    4.82    0.49
   5  -6  -2    5.79    0.76
   6  -2  -5    4.86    0.55
  -6  -5  -2    4.43    0.47
   2  -5  -6    4.99    0.64
  -6   3   5   65.54    3.10
   5  -3  -6   71.66    2.88
  -6   5  -3   68.47    3.35
  -5  -6  -3   73.72    2.85
  -3  -5  -6   73.00    2.97
   3  -6  -5   72.54    3.00
   3   5  -6   72.69    3.05
   3   5  -6   73.12    2.77
  -6  -3  -5   71.85    2.89
   6  -5  -3   70.19    2.94
   5   3  -6   70.67    2.68
  -3  -6  -5   73.12    2.95
   3  -5  -6   73.29    2.98
   3   6  -5   71.04    2.86
   3   6  -5   73.12    2.73
   5  -6  -3   72.25    3.02
   6  -3  -5   68.44    2.83
  -6  -5  -3   70.94    2.75
  -5  -3  -6   73.16    2.95
  -5  -6  -4  192.22    7.06
  -4  -5  -6  190.92    7.15
   5  -4  -6  190.24    7.10
   4   5  -6  190.64    7.04
   4   5  -6  191.97    6.89
   6  -5  -4  193.33    7.12
   4  -6  -5  189.14    7.19
  -6  -4  -5  199.16    7.08
   6  -4  -5  193.43    7.08
  -5  -4  -6  199.48    7.16
  -4  -6  -5  192.10    7.13
  -6  -5  -4  197.47    7.02
   4   6  -5  198.04    6.88
   4   6  -5  195.25    6.83
   4  -5  -6  192.94    7.17
   5   4  -6  197.88    6.94
   5   4  -6  198.10    6.82
   5  -6  -4  195.55    7.19
  -6  -5  -5    8.17    0.90
  -5  -6  -5    7.76    0.92
  -5  -5  -6    9.16    0.97
   5  -6  -5    6.94    0.88
   5   5  -6    7.61    0.63
   5   5  -6    8.82    0.55
   6  -5  -5    8.35    0.86
  -6  -6   0  185.43    6.76
  -6   0   6  185.10    6.85
   0  -6  -6  192.80    6.89
   0   6  -6  159.04    7.20
   0   6   6  192.45    6.75
   6   0  -6  194.62    6.61
  -6  -6  -1    0.00    0.34
  -6  -1   6    0.04    0.41
  -6   1   6    0.63    0.48
  -1  -6  -6   -0.29    0.35
  -1   6   6    0.20    0.39
   1  -6  -6   -0.21    0.34
   1   6  -6    0.76    0.71
   6  -1  -6    0.26    0.27
   6   1  -6    0.24    0.23
  -6  -6  -2  398.54   13.74
  -2  -6  -6  397.93   13.95
   2  -6  -6  357.71   14.11
   2   6  -6  384.70   14.06
   6  -6  -2  408.71   14.02
   6  -2  -6  400.13   13.76
   6   2  -6  402.16   13.56
  -6  -6  -3    0.09    0.40
  -6  -3  -6    0.49    0.44
  -3  -6  -6    0.55    0.42
   3  -6  -6   -0.14    0.36
   3   6  -6    0.39    0.49
   3   6  -6    1.06    0.31
   6  -6  -3    0.54    0.42
   6  -3  -6    0.52    0.33
   6   3  -6   -0.22    0.22
   6   3  -6    0.11    0.19
  -6  -6  -4   14.22    1.06
  -6  -4  -6   12.41    1.10
  -4  -6  -6   14.38    1.15
   4  -6  -6   14.25    1.08
   4   6  -6   14.13    0.99
   4   6  -6   13.28    0.82
   6  -6  -4   14.51    1.12
   6  -4  -6   15.26    1.04
  -6  -6  -5    0.49    0.51
  -6  -5  -6    0.50    0.54
  -5  -6  -6    0.73    0.51
   5  -6  -6    0.00    0.45
   5   6  -6    0.22    0.25
   5   6  -6    0.04    0.20
   6  -6  -5   -0.14    0.44
   6  -5  -6   -0.15    0.40
  -6  -6  -6   60.69    2.81
   6  -6  -6   59.87    2.73
  -7   0   0    0.53    0.34
   0  -7   0    0.49    0.34
   0   0  -7    0.13    0.29
   0   7   0   -0.18    0.26
  -7   0   1    1.86    0.44
  -1  -7   0    0.98    0.41
  -1   7   0    1.20    0.36
   0  -1  -7    0.72    0.28
   0   1  -7    2.31    0.39
   1  -7   0    1.63    0.46
   1   7   0    1.70    0.33
   0   7  -1    1.05    0.34
   0   7   1    1.12    0.33
   1   0  -7    1.51    0.34
  -7   1   0    1.21    0.57
  -1   0  -7    1.45    0.32
   0  -7  -1    1.16    0.40
   0  -7   1    2.90    0.65
  -7  -1   0    1.43    0.31
   1   7   1    0.21    0.23
  -1   7   1    0.22    0.29
  -7  -1   1   -0.37    0.26
  -7   1  -1   -0.09    0.38
  -7   1   1    1.55    0.51
  -1  -7  -1    0.10    0.32
  -1  -7   1    0.39    0.46
   1   1  -7    0.09    0.22
   1   7  -1   -0.04    0.25
  -1   1  -7    0.23    0.28
  -1   7  -1    0.23    0.41
   1  -7  -1    0.18    0.31
   1  -1  -7    0.47    0.29
  -1  -1  -7    0.30    0.25
  -7   0   2   38.36    1.93
   0   7   2   39.15    1.73
   0   7  -2   42.02    1.90
   0   2  -7   39.84    1.80
   2  -7   0   39.42    1.99
   2   7   0   39.73    1.59
   0  -7  -2   40.43    1.87
  -2  -7   0   40.51    1.99
   0  -2  -7   41.47    1.84
  -7   2   0   41.72    2.05
   2   0  -7   38.77    1.77
  -2   7   0   39.82    1.95
  -2   0  -7   38.91    1.82
  -2  -7  -1    7.43    0.78
   1   7   2    5.97    0.55
  -1   7  -2    5.62    0.75
   1  -7  -2    6.36    0.71
  -7   1   2    6.22    0.74
  -7  -2   1    6.15    0.47
  -7   2  -1    7.36    0.83
  -2   7   1    5.68    0.76
  -1  -2  -7    6.02    0.65
   2   7  -1    7.75    0.52
   2  -1  -7    6.46    0.63
   1   2  -7    6.73    0.62
  -7  -1   2    6.22    0.59
   1   7  -2    5.53    0.65
  -2  -7   1    7.31    0.97
  -2   7  -1    7.42    0.95
  -1   7   2    5.77    0.70
  -7   2   1    5.96    0.89
  -2  -1  -7    6.69    0.67
   2   1  -7    7.03    0.62
   2  -7  -1    6.82    0.76
  -1  -7  -2    5.82    0.69
   2   7   1    6.11    0.47
   1  -2  -7    5.82    0.63
   2  -2  -7    0.09    0.28
  -7   2  -2    0.06    0.40
  -7   2   2    0.45    0.55
  -2  -2  -7   -0.12    0.29
  -7  -2   2    0.03    0.23
  -2   7  -2    0.48    0.68
  -2   7   2   -0.27    0.35
   2  -7  -2   -0.32    0.29
  -2  -7  -2   -0.48    0.29
   2   2  -7    0.04    0.25
   2   7   2    0.00    0.18
   3  -7   0    1.88    0.54
  -7   0   3    2.14    0.45
  -3  -7   0    2.28    0.59
   0  -3  -7    1.48    0.38
  -7   3   0    1.44    0.72
   3   7   0    2.46    0.22
   0   7  -3    2.07    0.51
   0   7   3    1.30    0.36
   3   0  -7    1.91    0.38
  -1  -3  -7   12.80    0.94
  -7   3  -1   11.55    1.18
  -1   7  -3   15.13    1.35
   1   7   3   13.75    0.79
   1   3  -7   13.52    0.88
  -7   1   3   14.72    1.07
   3   7  -1   12.57    0.59
   3  -1  -7   12.68    0.87
  -3  -7  -1   12.78    0.98
   1  -7  -3   14.03    0.97
  -7  -3   1   13.40    0.62
  -3  -7   1   11.80    1.32
  -7   3   1   11.60    1.38
   1   7  -3   14.34    1.00
  -1  -7  -3   12.99    0.94
   1  -3  -7   14.50    0.95
  -7  -1   3   14.36    0.90
   3  -7  -1   13.44    1.04
   3   1  -7   13.87    0.86
  -1   7   3   13.68    0.95
  -3  -1  -7   13.64    0.95
   3   7   1   12.75    0.54
   3  -2  -7   47.59    2.08
   2   7   3   49.77    1.88
  -2  -3  -7   49.53    2.16
  -7  -3   2   46.17    1.86
  -7   3  -2   51.34    2.33
   3   7  -2   45.75    1.81
   2  -7  -3   47.44    2.19
  -7   2   3   44.78    2.31
  -3  -7  -2   47.20    2.13
  -2   7  -3   49.39    2.81
   2   3  -7   49.20    2.06
   2  -3  -7   49.28    2.13
   3  -7  -2   49.01    2.23
  -7   3   2   44.62    2.46
   3   2  -7   48.33    2.02
  -7  -2   3   48.18    1.98
  -3  -2  -7   49.95    2.15
  -2   7   3   49.03    2.18
   2   7  -3   48.47    2.02
  -2  -7  -3   48.08    2.13
   3   3  -7   -0.24    0.24
   3  -3  -7    0.32    0.32
   3  -7  -3    0.40    0.35
   3   7  -3    0.16    0.23
  -7   3   3   -0.94    0.63
  -3  -7  -3    0.49    0.34
  -7  -3   3    0.45    0.32
  -3  -3  -7    0.46    0.34
  -7   3  -3    0.04    0.48
   0  -7  -4   16.16    1.07
   0   7   4   16.86    1.00
   4   0  -7   15.78    0.95
  -7   4   0   13.79    1.66
  -4  -7   0   16.28    1.26
   0  -4  -7   16.07    1.06
  -7   0   4   16.49    1.12
   0   7  -4   17.10    1.39
  -7   1   4    6.82    0.91
   1   7   4    6.31    0.61
  -1   4   7    6.97    0.75
   1  -7  -4    7.10    0.75
   4  -1  -7    6.89    0.64
  -7   4  -1    5.60    0.93
  -4  -7  -1    5.34    0.70
   1   4  -7    5.43    0.65
  -1  -4  -7    6.57    0.73
  -1   7  -4    5.07    0.96
  -4  -7   1    4.83    0.92
   4   1  -7    6.07    0.61
  -1  -7  -4    7.48    0.72
   7  -1  -4    6.55    0.52
   1   7  -4    5.71    0.74
   1  -4  -7    6.93    0.71
  -7  -1   4    6.40    0.73
   4  -7  -1    6.93    0.89
  -7   4   1    5.03    1.11
  -1   7   4    6.80    0.78
   2  -7  -4   12.32    0.94
  -2  -4  -7   12.01    0.94
   4  -2  -7   11.45    0.84
  -7   4  -2   10.47    1.25
  -7   2   4   11.00    1.12
   2   7   4   10.38    0.67
   2   4  -7   11.56    0.80
  -4  -7  -2   10.92    0.95
  -4  -2  -7   12.61    0.93
  -2  -7  -4   10.50    0.88
   7  -2  -4   11.03    0.75
   4   2  -7   11.13    0.76
  -7  -4  -2   10.29    0.57
   2  -4  -7   11.64    0.92
  -2   7   4    9.98    0.99
   4  -7  -2   11.56    0.98
  -7  -2   4    9.74    0.85
   2   7  -4   10.93    0.91
  -7   4   2    9.85    1.25
  -3  -4  -7   13.45    1.03
   3  -7  -4   14.52    1.06
  -7   4  -3   12.24    1.34
   7  -4  -3   16.21    1.02
   4  -3  -7   13.92    0.98
  -7   3   4   15.48    1.43
   3   4  -7   14.50    0.88
   7  -3  -4   16.42    0.94
  -7   4   3   13.51    1.56
  -3  -7  -4   14.51    1.05
   3  -4  -7   13.40    0.98
   3   7  -4   13.91    0.77
  -4  -3  -7   13.10    1.04
   4   3  -7   13.33    0.86
   3   7  -4   12.51    1.19
   4  -7  -3   13.64    1.08
  -7  -4  -3   16.20    0.82
  -7  -4  -4    0.25    0.35
   7  -4  -4    0.04    0.35
   4   4  -7    0.34    0.28
   4   7  -4    0.22    0.19
   4  -4  -7    0.31    0.33
   4   7  -4    0.34    0.18
   4  -7  -4    0.21    0.42
  -4  -4  -7    0.21    0.43
  -7   0   5   14.88    1.20
   0  -7  -5   16.52    1.11
  -7  -5   0   15.16    0.86
   0   7  -5   18.66    1.64
   0   7   5   15.76    1.03
   7   0  -5   17.06    0.76
   0  -5  -7   14.94    1.07
   5   0  -7   16.29    0.96
  -5  -7   0   15.33    1.33
  -1   5   7    1.29    0.53
   1   7   5    0.63    0.36
  -5  -7  -1    0.61    0.53
   1  -7  -5    1.72    0.48
  -1  -5  -7    0.15    0.38
  -7   1   5    1.01    0.57
   5  -1  -7    0.54    0.33
  -7   5  -1    0.69    1.28
   7  -1  -5    0.99    0.30
   1  -5  -7    0.15    0.38
  -7  -5  -1    0.68    0.28
  -7  -1   5    1.11    0.47
  -1  -7  -5    0.62    0.40
  -1   7   5    0.48    0.44
   1   7  -5    0.13    0.61
   5   1  -7    0.80    0.33
   2  -7  -5    2.35    0.73
  -7   2   5    3.56    0.77
   5  -2  -7    2.39    0.47
   2   5  -7    2.83    0.47
  -2  -5  -7    3.02    0.55
  -5  -7  -2    2.92    0.59
   2   7  -5    3.49    0.65
  -2  -7  -5    3.49    0.58
   7  -2  -5    2.60    0.41
   5   2  -7    2.85    0.42
  -7  -2   5    3.47    0.58
   5  -7  -2    2.79    0.61
   2  -5  -7    3.26    0.69
  -5  -2  -7    2.44    0.59
  -7  -5  -2    2.72    0.37
   3   5  -7   23.15    1.23
  -5  -7  -3   26.43    1.44
  -3  -5  -7   23.14    1.43
   3  -7  -5   24.35    1.45
   7  -5  -3   24.53    1.43
   5  -3  -7   25.50    1.34
   3   7  -5   22.44    1.15
   3   7  -5   22.53    1.30
   3  -5  -7   24.40    1.43
  -7  -5  -3   23.87    1.19
  -5  -3  -7   25.51    1.48
   5   3  -7   26.80    1.20
  -3  -7  -5   24.78    1.43
   7  -3  -5   24.51    1.26
   7  -5  -4   19.45    1.27
   4   5  -7   20.07    1.42
   4   5  -7   17.94    1.03
   5  -4  -7   17.24    1.20
  -5  -7  -4   18.41    1.25
   4  -7  -5   17.04    1.27
  -4  -5  -7   19.29    1.35
  -7  -4  -5   19.70    1.26
   4  -5  -7   20.63    1.27
   4   7  -5   19.08    0.91
   5  -7  -4   19.56    1.34
   7  -4  -5   18.60    1.19
  -7  -5  -4   19.87    1.18
  -5  -4  -7   17.29    1.89
   4   7  -5   19.27    0.99
   5   4  -7   18.91    0.99
  -4  -7  -5   18.37    1.31
   5  -5  -7    0.00    0.42
  -5  -7  -5    0.10    0.56
   5   5  -7    0.19    0.54
   5   5  -7   -0.47    0.29
   7  -5  -5   -0.08    0.42
  -7  -5  -5    0.26    0.52
  -5  -5  -7   -0.38    0.55
   5  -7  -5   -0.07    0.44
  -6  -7   0   62.82    2.85
   0   6   7   62.14    2.69
   7   0  -6   64.71    2.44
  -7   0   6   64.06    2.97
   6   0  -7   64.09    2.55
   0  -7  -6   65.00    2.83
   0  -6  -7   60.71    2.80
  -7  -6   0   69.74    2.64
   0   7   6   62.54    2.67
  -1  -6  -7   22.84    1.42
   6  -1  -7   22.00    1.20
   1  -7  -6   21.75    1.36
  -6  -7  -1   21.36    1.41
   7   1  -6   22.91    0.94
   7  -1  -6   21.93    1.12
   1  -6  -7   22.18    1.39
  -7  -6  -1   21.86    1.20
   1   7  -6   20.65    1.73
  -7  -1   6   21.75    1.50
   6   1  -7   23.74    1.13
  -6  -7  -2    1.12    0.54
   2  -7  -6    0.56    0.41
   6  -2  -7    0.94    0.39
   2   6  -7    0.94    0.78
   2   6  -7    0.87    0.41
  -2  -7  -6    1.43    0.50
  -7  -6  -2    1.20    0.43
   2  -6  -7    1.42    0.49
   7  -2  -6    1.10    0.40
   2   7  -6    0.17    0.69
   6   2  -7    1.67    0.34
   3   6  -7   59.20    2.44
  -3  -6  -7   51.95    2.96
   3   6  -7   59.87    2.81
  -7  -3  -6   59.84    2.72
  -6  -7  -3   56.71    2.58
   7  -6  -3   60.88    2.70
   6  -3  -7   56.82    2.50
   3  -7  -6   61.94    2.72
   3  -6  -7   62.36    2.70
   6   3  -7   59.15    2.26
  -6  -3  -7   59.29    2.76
   3   7  -6   58.42    2.61
  -7  -6  -3   56.84    2.45
   7  -3  -6   59.82    2.49
   3   7  -6   61.21    2.40
  -3  -7  -6   60.97    2.72
   6  -7  -3   59.74    2.75
   4  -7  -6   47.05    2.33
   6  -4  -7   45.67    2.18
   4   6  -7   48.73    2.26
   4   6  -7   49.57    2.00
  -4  -6  -7   46.18    2.51
   7  -6  -4   43.49    2.56
  -6  -7  -4   47.03    2.26
  -7  -4  -6   47.64    2.34
   4  -6  -7   45.10    2.28
  -6  -4  -7   48.80    2.41
  -4  -7  -6   47.77    2.38
   6  -7  -4   48.22    2.36
   4   7  -6   48.48    2.05
   6   4  -7   48.99    1.92
   6   4  -7   48.11    1.80
  -7  -6  -4   44.50    2.15
   4   7  -6   49.39    1.93
   7  -4  -6   46.45    2.17
   7  -6  -5    4.69    0.78
   5  -7  -6    3.49    0.68
  -5  -6  -7    4.49    0.98
   5   6  -7    4.15    0.58
  -7  -5  -6    5.20    0.88
  -6  -7  -5    4.52    0.87
   6  -5  -7    4.69    0.71
   5  -6  -7    4.37    0.72
  -6  -5  -7    4.29    0.85
  -5  -7  -6    4.77    0.86
   7  -5  -6    4.91    0.72
  -7  -6  -5    5.12    0.78
   6  -7  -5    5.73    0.86
  -7  -6  -6   -1.10    0.71
  -6  -7  -6    0.36    0.72
   6  -7  -6    0.04    0.58
   6  -6  -7   -0.62    0.55
   7  -6  -6    0.85    0.64
  -7  -7   0   19.32    1.38
   0  -7  -7   17.62    1.34
   7   0  -7   18.78    1.02
  -7  -7  -1   -0.57    0.52
  -1  -7  -7   -0.40    0.50
   1  -7  -7   -0.06    0.46
   7  -1  -7    0.19    0.38
   7   1  -7    0.23    0.29
  -7  -7  -2    5.89    0.78
  -2  -7  -7    6.11    0.84
   2  -7  -7    7.95    1.00
   2   7  -7    6.13    1.03
   2   7  -7    7.59    0.83
   7  -2  -7    6.62    0.80
   7   2  -7    6.09    0.48
  -7  -7  -3    0.60    0.56
  -7  -3  -7    0.31    0.74
  -3  -7  -7   -0.12    0.60
   3  -7  -7    0.17    0.53
   3   7  -7   -0.68    0.75
   3   7  -7    0.27    0.42
   7  -7  -3   -0.27    0.55
   7  -3  -7    0.02    0.45
  -7  -7  -4    3.25    0.71
  -7  -4  -7    3.06    0.87
  -4  -7  -7    2.11    0.72
   4  -7  -7    0.78    0.59
   4   7  -7    1.52    0.43
   7  -7  -4    2.67    0.72
   7  -4  -7    1.56    0.57
  -7  -7  -5    0.15    0.77
  -7  -5  -7   -0.06    0.84
  -5  -7  -7   -0.85    0.78
   5  -7  -7    0.74    0.62
   7  -7  -5    1.52    0.70
   7  -5  -7    0.61    0.64
  -7  -7  -6   33.14    2.24
  -7  -6  -7   28.78    2.33
  -6  -7  -7   33.88    2.36
   6  -7  -7   34.75    2.09
   7  -7  -6   36.02    2.13
   7  -6  -7   36.03    2.07
  -7  -7  -7    0.68    1.16
   7  -7  -7    1.02    0.82
  -8   0   0  853.51   28.46
   0  -8   0  848.48   28.82
   0   0  -8  798.71   28.55
   0   8   0  797.03   28.46
  -8   0  -1    4.96    0.64
  -8   0   1    5.13    0.66
  -1  -8   0    5.82    0.85
  -1   8   0    6.02    0.82
   0  -1  -8    6.33    0.68
   0   1  -8    4.53    0.65
   1  -8   0    5.76    0.82
   1   8   0    5.82    0.63
  -8   1   0    7.11    0.89
  -1   0  -8    6.15    0.70
   0  -8  -1    6.96    0.91
   0   8  -1    5.72    0.78
   0   8   1    5.38    0.70
   1   0  -8    6.86    0.68
  -8  -1   0    7.34    0.63
   1  -8  -1   22.07    1.42
   1  -1  -8   24.29    1.33
  -1   8   1   21.77    1.32
  -1   1  -8   21.87    1.30
  -1   8  -1   23.83    1.47
  -8  -1   1   25.34    1.25
  -8   1  -1   28.65    1.35
  -8   1   1   23.32    1.53
   1   8  -1   23.79    1.23
   1   8   1   23.53    1.18
  -1  -1  -8   22.45    1.30
   1   1  -8   22.31    1.28
  -1  -8  -1   23.92    1.44
  -2   0  -8   21.45    1.31
  -8   2   0   25.86    1.60
  -8  -2   0   25.46    1.05
  -8   0   2   24.77    1.42
   0  -2  -8   23.66    1.34
   0   2  -8   23.24    1.32
  -2  -8   0   22.45    1.57
  -2   8   0   20.93    1.53
   2  -8   0   21.87    1.53
   0   8   2   26.72    1.31
   2   0  -8   21.36    1.27
   0   8  -2   24.26    1.43
   0  -8  -2   24.29    1.42
   2  -1  -8   71.56    2.98
   1   8   2   73.58    2.85
   1  -8  -2   75.90    3.13
   2   8  -1   74.42    2.79
  -2   8   1   70.23    3.10
  -2   1  -8   69.99    3.04
  -8   2  -1   77.81    3.10
  -1   8  -2   74.31    3.25
  -8  -2   1   74.47    2.76
   1   2  -8   76.22    3.01
  -8   1   2   75.27    3.18
  -2  -8  -1   72.88    3.16
  -1  -2  -8   73.84    3.05
  -2  -1  -8   71.68    3.04
  -2   8  -1   72.23    3.32
  -1   2  -8   75.34    3.06
   2   1  -8   73.46    2.97
  -8   1  -2   75.80    2.96
  -1  -8  -2   75.82    3.12
  -8   2   1   65.01    3.24
   2   8   1   62.22    3.04
  -8  -1   2   69.33    3.02
   1   8  -2   75.34    2.94
   2  -8  -1   70.89    3.16
  -1   8   2   75.12    3.02
   1  -2  -8   75.20    3.04
  -2  -8  -2   13.64    1.08
  -8   2  -2   11.32    1.05
  -8  -2   2   11.83    0.83
  -2   8  -2   14.91    1.58
   2   2  -8   11.91    0.87
   2   8  -2   12.49    0.83
  -2  -2  -8   12.24    0.98
  -8   2   2   10.35    1.38
  -2   8   2   13.52    1.11
   2  -8  -2   12.76    1.07
   2  -2  -8   14.01    0.95
  -8   0   3   87.99    3.44
   3   0  -8   86.35    3.33
  -8   3   0   84.76    3.71
  -3   0  -8   83.44    3.45
   0  -8  -3   84.06    3.45
   0   8  -3   82.87    3.52
   0   8   3   79.45    3.29
   3   8   0   83.61    2.96
  -3  -8   0   80.93    3.67
   0  -3  -8   81.19    3.40
   0   3  -8   82.07    3.38
   3   8  -1    0.35    0.19
   1  -8  -3    0.11    0.37
  -8  -3   1    0.18    0.23
   1   8   3    0.40    0.33
   3  -1  -8   -0.17    0.35
  -3  -8  -1    0.23    0.51
  -1   8  -3    0.75    0.72
   1   3  -8    0.38    0.32
  -8   1   3    0.25    0.64
  -8   3  -1   -0.01    0.56
  -1  -3  -8    0.35    0.40
  -8  -1   3    0.34    0.45
   1   8  -3    0.48    0.46
  -1  -8  -3    0.80    0.43
   1  -3  -8    0.61    0.38
  -8   3   1   -0.18    0.83
  -1   8   3    0.10    0.45
   3   8   1    0.20    0.14
   3  -8  -1    0.13    0.44
  -3  -1  -8    0.13    0.39
   3   1  -8    0.32    0.34
   2  -8  -3  117.00    5.89
   3  -2  -8  137.43    5.19
  -8   3  -2  140.93    5.33
   2   8   3  139.71    4.94
  -2  -3  -8  137.90    5.27
  -8   2   3  138.95    5.51
  -3  -8  -2  140.07    5.33
  -8  -3   2  136.28    4.94
   3   8  -2  140.23    4.87
   2   3  -8  145.79    5.18
  -8   3   2  130.60    5.64
  -2  -8  -3  140.61    5.30
  -3  -2  -8  139.42    5.29
   2  -3  -8  133.20    5.71
   2   8  -3  140.35    5.08
   3   2  -8  140.28    5.14
  -8  -2   3  131.53    5.06
   3  -3  -8   37.12    1.85
   3   8  -3   37.46    1.54
  -3  -3  -8   36.48    1.89
   3  -8  -3   37.61    1.95
  -3  -8  -3   37.62    1.90
  -8  -3   3   36.49    1.67
  -8   3  -3   35.01    1.95
   3   3  -8   36.36    1.71
  -8   3   3   34.34    2.34
   0  -4  -8  305.01   11.73
  -4  -8   0  307.82   11.83
  -8   4   0  314.77   11.95
   0  -8  -4  324.11   11.64
   0   8   4  334.83   11.46
  -8   0   4  330.43   11.62
   4   0  -8  329.93   11.46
   0   8  -4  335.98   11.81
   1   8   4    0.97    0.37
   4  -1  -8    0.74    0.31
  -8   4  -1    2.10    0.77
  -4  -8  -1    0.92    0.58
   1   4  -8    0.52    0.38
  -8   1   4    0.54    0.67
   1  -8  -4   -0.19    0.42
  -8  -1   4    1.18    0.53
  -1  -8  -4    0.63    0.45
   4  -8  -1    0.66    0.52
   4   1  -8    0.68    0.34
   1   8  -4    0.05    0.58
  -4  -1  -8    0.69    0.46
   1  -4  -8    0.67    0.38
  -8   4   1    0.00    0.98
  -1   8   4    0.45    0.51
  -2  -4  -8    8.97    1.21
  -8   2   4   12.02    1.45
  -4  -8  -2    9.36    1.06
   2  -8  -4   11.04    0.97
   2   4  -8   10.99    0.88
   4  -2  -8    7.51    0.80
   2   8   4    8.80    0.70
  -8   4  -2   11.27    1.40
   2   8  -4    9.83    0.99
   4   2  -8    8.58    0.78
  -8  -4  -2    9.17    0.56
  -8  -2   4   10.10    0.97
   4  -8  -2   10.43    1.10
   2  -4  -8    9.58    0.91
  -2  -8  -4    9.90    0.99
  -4  -2  -8   10.22    1.01
  -3  -4  -8    0.23    0.57
   3  -8  -4   -0.07    0.43
  -4  -8  -3    2.06    0.62
   4  -3  -8   -0.16    0.32
   3   4  -8    0.27    0.37
  -4  -3  -8   -0.26    0.43
  -8  -4  -3    0.41    0.33
   3  -4  -8   -0.04    0.36
  -3  -8  -4    0.76    0.50
   3   8  -4   -0.14    0.37
   3   8  -4    0.29    0.28
   4  -8  -3   -0.29    0.47
   4   3  -8   -0.15    0.32
   4   4  -8  370.12   13.07
   4  -4  -8  374.70   13.27
  -4  -8  -4  370.78   13.33
  -8  -4  -4  365.61   13.05
   4  -8  -4  378.41   13.40
   0   8   5    1.08    0.49
   5   0  -8    0.94    0.36
  -5  -8   0    1.89    0.77
   0  -5  -8    1.14    0.48
  -8   0   5    0.26    0.66
   0  -8  -5    0.84    0.47
  -1  -5  -8   25.32    1.57
   1   8   5   25.81    1.38
  -5  -8  -1   25.44    1.73
   5  -1  -8   27.52    1.40
  -8   1   5   29.40    2.32
   1  -8  -5   27.21    1.59
   1   5  -8   26.48    1.49
   1  -5  -8   26.56    1.56
  -5  -1  -8   26.89    1.66
  -8  -5  -1   26.41    1.13
   5   1  -8   27.20    1.36
  -1  -8  -5   25.90    1.59
  -8  -1   5   27.20    1.66
   1   8  -5   26.71    1.81
  -2  -5  -8   64.33    2.92
   2  -8  -5   64.06    2.93
   5  -2  -8   62.67    2.78
  -5  -8  -2   68.79    2.99
   2   5  -8   67.12    2.78
  -5  -2  -8   66.98    3.02
   2  -5  -8   66.46    2.91
  -8  -2   5   64.55    2.89
   5  -8  -2   71.08    3.11
   8  -2  -5   66.93    2.59
   5   2  -8   66.21    2.67
   2   8  -5   64.01    2.86
   3  -8  -5   -0.08    0.46
  -3  -5  -8    0.47    0.50
  -5  -8  -3   -0.18    0.56
   5  -3  -8    0.78    0.44
   3   5  -8    0.45    0.36
   3   8  -5    0.27    0.31
   5  -8  -3    0.38    0.53
   3  -5  -8    0.69    0.46
   5   3  -8    0.65    0.37
  -3  -8  -5    0.99    0.58
  -8  -5  -3    0.64    0.40
   8  -3  -5    1.14    0.45
  -5  -3  -8   -0.12    0.58
   3   8  -5    0.72    0.50
  -8  -4  -5    5.36    0.79
   4  -8  -5    6.34    0.91
  -5  -8  -4    8.66    1.11
   5  -4  -8    6.36    0.88
  -4  -5  -8    5.24    0.88
   4   5  -8    5.78    0.74
   4  -5  -8    6.97    0.90
  -8  -5  -4    6.34    0.74
   8  -4  -5    5.74    0.71
   4   8  -5    5.82    0.55
  -4  -8  -5    5.81    0.87
   5   4  -8    5.47    0.72
   5  -8  -4    6.92    0.97
   5  -5  -8   16.55    1.30
   8  -5  -5   17.97    1.35
  -5  -8  -5   19.10    1.59
  -5  -5  -8   18.54    1.64
   5   5  -8   17.20    1.07
   5  -8  -5   19.40    1.50
  -8  -5  -5   16.64    1.38
   0  -6  -8    1.19    0.58
   6   0  -8    2.42    0.49
  -6  -8   0    1.77    0.90
   0  -8  -6    2.29    0.64
   1   8   6   81.85    3.32
   1   6  -8   83.62    3.45
   6  -1  -8   84.60    3.33
   1  -8  -6   83.40    3.60
  -1  -6  -8   83.26    3.57
  -6  -8  -1   79.61    3.61
   6   1  -8   86.10    3.27
  -8  -6  -1   83.59    3.17
  -1  -8  -6   84.57    3.58
   8  -1  -6   84.99    3.12
   1  -6  -8   82.88    3.56
   2   6  -8    5.16    0.67
   6  -2  -8    4.48    0.73
  -6  -8  -2    6.25    0.91
  -2  -6  -8    4.54    0.80
   2  -8  -6    4.97    0.76
   2  -6  -8    5.50    0.81
  -2  -8  -6    5.09    0.83
  -8  -6  -2    7.51    0.80
   2   8  -6    5.56    0.95
   8  -2  -6    5.46    0.60
   6   2  -8    5.35    0.69
  -8  -3  -6    8.68    1.08
  -6  -8  -3   10.50    1.28
   6  -3  -8    9.25    0.98
  -3  -6  -8    9.13    1.24
   3  -8  -6    7.87    1.04
   3   6  -8    8.42    0.89
   3   6  -8    7.87    1.19
  -3  -8  -6   10.21    1.25
   6  -8  -3    8.87    1.27
   3  -6  -8   10.18    1.04
  -8  -6  -3    7.33    0.95
   3   8  -6    8.77    0.81
   6   3  -8    9.02    0.77
   8  -3  -6    7.77    0.91
   4   6  -8    1.03    0.47
   4  -8  -6    0.68    0.55
   6  -4  -8    0.92    0.52
  -6  -8  -4    1.26    0.72
  -8  -4  -6    1.50    0.74
  -8  -6  -4    1.33    0.63
  -6  -4  -8    1.25    0.86
  -4  -8  -6    1.22    0.74
   4   8  -6    1.10    0.38
   4  -6  -8    1.23    0.55
   6   4  -8    1.28    0.39
   8  -4  -6    0.78    0.54
   6  -8  -4    1.27    0.67
   8  -6  -5   65.55    3.16
  -5  -6  -8   71.53    3.38
  -6  -8  -5   66.62    3.28
   6  -5  -8   74.31    3.15
   5   6  -8   71.57    2.75
  -8  -5  -6   66.37    3.21
   5  -8  -6   69.76    3.26
  -8  -6  -5   69.65    3.13
  -6  -5  -8   71.21    3.46
   8  -5  -6   70.34    3.07
   5  -6  -8   71.90    3.18
   6  -8  -5   70.03    3.28
  -5  -8  -6   73.35    3.40
   8  -6  -6    0.65    0.71
  -8  -6  -6   -0.89    0.90
  -6  -8  -6    0.83    0.95
   6  -6  -8    0.16    0.68
   6  -8  -6   -0.11    0.75
  -6  -6  -8   -1.04    0.97
   7   0  -8    3.51    0.53
   8   0  -7    3.17    0.46
   0  -7  -8    2.72    0.70
   0  -8  -7    3.05    0.72
   1  -8  -7    8.22    1.15
  -1  -7  -8    7.93    0.99
  -7  -8  -1    7.48    1.02
   7  -1  -8    7.24    0.88
  -1  -8  -7    7.55    0.98
  -8  -7  -1    8.64    1.05
   1  -7  -8    9.36    1.14
   7   1  -8    7.95    0.77
   8  -1  -7    8.92    0.81
   7  -2  -8   55.51    2.35
   2   7  -8   52.61    2.39
  -7  -8  -2   49.79    2.56
   2  -8  -7   49.80    2.58
  -2  -7  -8   50.16    2.63
   2   8  -7   51.73    2.35
   8  -2  -7   54.23    2.25
   7   2  -8   52.43    2.06
  -8  -7  -2   53.07    2.32
  -2  -8  -7   52.77    2.65
  -7  -2  -8   45.94    2.82
   2  -7  -8   53.35    2.58
  -8  -3  -7    1.75    0.93
   7  -3  -8    0.01    0.54
  -3  -7  -8    1.60    0.73
   3  -8  -7   -0.36    0.65
  -7  -8  -3    1.64    0.84
  -3  -8  -7    0.24    0.71
  -8  -7  -3    0.87    0.67
  -7  -3  -8    0.85    0.89
   3   8  -7    0.16    0.44
   3  -7  -8    1.39    0.61
   8  -3  -7    0.47    0.53
  -4  -7  -8    2.98    0.87
  -7  -8  -4    4.91    0.96
  -8  -4  -7    1.15    1.01
   4  -8  -7    2.70    0.75
   4   7  -8    2.76    0.56
   7  -4  -8    2.80    0.70
  -7  -4  -8    3.68    1.10
   7  -8  -4    1.85    0.83
   8  -4  -7    3.77    0.75
  -4  -8  -7    2.79    0.90
   4   8  -7    2.69    0.70
   4  -7  -8    3.38    0.79
   8  -7  -5   17.61    1.71
   7  -5  -8   13.62    1.49
  -8  -5  -7   16.25    2.06
  -7  -8  -5   17.31    1.93
   5  -8  -7   17.01    1.66
  -5  -7  -8   19.31    1.98
   7  -8  -5   20.86    1.81
   8  -5  -7   20.14    1.62
  -7  -5  -8   19.62    2.18
   5  -7  -8   18.60    1.60
  -5  -8  -7   20.79    2.06
  -7  -8  -6   48.12    2.91
   8  -7  -6   53.02    2.75
   7  -6  -8   48.20    2.61
   6  -8  -7   46.62    2.66
  -6  -7  -8   49.00    3.04
  -7  -6  -8   41.65    3.07
  -6  -8  -7   47.69    3.02
   8  -6  -7   49.25    2.62
   7  -8  -6   48.81    2.77
   6  -7  -8   45.54    2.59
   0  -8  -8  209.02    8.03
  -1  -8  -8    0.69    0.72
   1  -8  -8    0.51    0.65
   8  -1  -8    0.81    0.56
  -8  -2  -8   -0.79    1.06
  -2  -8  -8   -0.30    0.73
   2  -8  -8    0.15    0.63
   2   8  -8    0.29    0.59
   8  -2  -8   -0.16    0.58
  -8  -3  -8   -0.03    1.15
   3  -8  -8   -0.79    0.68
   3   8  -8    0.06    0.59
   8  -3  -8    0.37    0.69
  -8  -4  -8  240.29    9.87
  -4  -8  -8  255.72    9.86
   4  -8  -8  263.18    9.73
   8  -4  -8  270.04    9.44
  -8  -5  -8   -1.28    1.34
  -5  -8  -8   -1.12    1.19
   5  -8  -8   -0.40    0.87
   8  -8  -5    0.54    1.03
   8  -5  -8    0.11    0.83
  -9   0   0    0.01    0.47
   0  -9   0    0.83    0.65
   0   0  -9    1.19    0.39
   0   9   0    0.61    0.49
  -9   0  -1    5.31    0.75
  -9   0   1    5.24    0.77
  -1  -9   0    4.88    0.93
  -1   9   0    4.65    0.79
   0  -1  -9    4.21    0.63
   0   1  -9    5.24    0.74
   1  -9   0    4.93    0.90
   1   9   0    5.41    0.76
  -9   1   0    7.29    1.00
  -1   0  -9    4.46    0.67
   0  -9  -1    6.22    0.95
   0   9  -1    3.88    0.70
   0   9   1    6.52    0.86
   1   0  -9    5.34    0.76
  -9  -1   0    6.63    0.74
  -1   9   1   -0.08    0.50
   1  -9  -1    0.48    0.50
  -1   9  -1   -0.34    0.65
  -1  -9  -1   -0.70    0.49
  -1   1  -9    0.50    0.42
  -9  -1  -1    0.18    0.33
  -9  -1   1   -1.00    0.59
  -9   1  -1    0.00    0.48
  -1  -1  -9    0.20    0.39
   1   9  -1    0.64    0.43
   1   9   1    0.70    0.42
   1  -1  -9    0.45    0.44
   1   1  -9   -0.22    0.35
  -9   1   1   -0.76    0.59
  -9   2   0  197.27    7.18
   2   9   0  194.38    6.78
  -9  -2   0  189.89    6.72
  -9   0   2  191.34    7.08
   0   2  -9  194.49    7.10
  -9   0  -2  193.30    6.87
  -2  -9   0  192.29    7.50
   0  -2  -9  198.05    7.15
   2   0  -9  186.68    7.04
   0   9   2  188.43    6.97
   0   9  -2  185.70    7.07
   0  -9  -2  175.20    7.49
  -2   0  -9  183.73    7.12
   1   9   2   43.20    1.84
  -9   2  -1   39.22    2.02
   1  -9  -2   42.10    2.17
   2   9  -1   41.00    1.72
  -2   1  -9   39.96    2.02
  -9   1   2   41.45    2.24
  -9  -2   1   38.14    1.72
   2  -1  -9   39.77    1.93
   1   2  -9   42.16    1.95
  -1  -2  -9   39.92    1.99
  -2  -9  -1   38.63    2.24
  -9  -2  -1   38.67    1.59
  -9   1  -2   38.40    1.88
  -1   2  -9   41.36    2.00
   1  -2  -9   41.76    1.98
  -1  -9  -2   38.82    2.13
  -9   2   1   31.95    2.17
  -2  -1  -9   38.37    1.99
   2   1  -9   38.03    1.89
   1   9  -2   42.05    1.92
  -1   9   2   37.37    1.99
   2   9   1   37.76    1.67
   2  -9  -1   38.18    2.17
  -9  -1   2   41.58    1.95
  -9   2   2    0.62    0.90
  -9  -2   2   -0.02    0.46
  -2  -2  -9    0.08    0.44
  -2   2  -9   -0.30    0.44
   2  -2  -9    0.01    0.36
   2   2  -9    0.12    0.36
   2   9  -2    0.54    0.38
   2   9   2   -0.13    0.32
  -9   2  -2    0.47    0.52
  -2  -9  -2    0.36    0.55
   2  -9  -2   -0.14    0.47
   0  -3  -9   53.08    2.43
  -9   0   3   55.58    2.57
  -3  -9   0   52.23    2.89
   0   9  -3   50.32    2.58
   0   3  -9   54.13    2.42
   3   9   0   52.29    1.91
  -9   3   0   52.23    2.73
  -3   0  -9   52.69    2.50
   0  -9  -3   49.09    2.48
   3   0  -9   49.85    2.31
   0   9   3   49.14    2.34
   1   9   3    4.44    0.60
   3   9  -1    3.91    0.44
  -3   1  -9    3.24    0.68
   3  -1  -9    3.59    0.59
  -9   1   3    5.67    0.96
  -9  -3   1    4.66    0.58
  -9   3  -1    6.02    0.87
   1   3  -9    3.64    0.60
  -1  -3  -9    4.25    0.64
  -3  -9  -1    3.71    0.82
   1  -9  -3    4.14    0.76
  -1  -9  -3    2.64    0.69
  -1   3  -9    3.82    0.68
  -9  -1   3    3.53    0.76
   3  -9  -1    4.25    0.80
   1  -3  -9    4.70    0.67
   3   9   1    3.11    0.34
  -3  -1  -9    2.90    0.68
   3   1  -9    3.54    0.55
  -9   3   1    3.21    1.04
   1   9  -3    3.25    0.69
   2  -9  -3   22.42    1.52
   3   9  -2   18.53    0.96
  -3  -9  -2   19.97    1.59
  -2  -3  -9   21.10    1.42
  -9  -3   2   20.37    1.16
  -9   3  -2   19.62    1.52
   3  -2  -9   19.58    1.28
   2   9   3   20.95    1.07
  -9   2   3   20.18    1.94
   2   3  -9   23.06    1.29
  -9   2  -3   20.58    1.48
  -2  -9  -3   21.48    1.65
   3   2  -9   18.71    1.31
   3  -9  -2   19.16    1.48
  -9  -2   3   20.92    1.33
  -3  -2  -9   19.19    1.41
   2   9  -3   22.08    1.30
   2  -3  -9   21.92    1.35
  -3  -9  -3    0.13    0.62
   3   9  -3    0.26    0.45
   3  -9  -3    0.41    0.54
   3  -3  -9    0.33    0.46
   3   3  -9    0.25    0.40
  -3  -3  -9    0.01    0.51
  -9  -3   3   -0.55    0.53
  -9   0   4    0.38    0.82
  -4  -9   0    0.11    0.89
  -4   0  -9   -0.26    0.49
   0   4  -9   -0.09    0.44
   0  -9  -4    0.04    0.52
   0   9   4    0.85    0.55
   4   0  -9    0.42    0.40
   0  -4  -9   -0.41    0.46
   1   4  -9    0.60    0.43
   1  -9  -4   -0.94    0.45
   4  -1  -9    0.38    0.42
  -9   1   4   -0.17    1.00
  -4  -9  -1    0.72    0.76
  -1  -4  -9    0.13    0.49
   1   9   4    0.71    0.49
  -9  -1   4    0.24    0.69
  -1  -9  -4    0.14    0.49
   1   9  -4    1.27    0.73
   1  -4  -9    0.09    0.44
  -4  -1  -9    0.66    0.56
   2   9   4   50.04    2.00
  -2  -4  -9   51.27    2.42
   4  -2  -9   42.61    2.20
   2  -9  -4   51.55    2.46
  -4  -9  -2   46.08    2.57
   2   4  -9   49.06    2.23
   2   9  -4   47.69    2.24
   4  -9  -2   48.59    2.55
   4   2  -9   43.28    2.29
  -4  -2  -9   44.55    2.42
   2  -4  -9   50.00    2.33
  -9  -2   4   46.50    2.32
  -2  -9  -4   51.35    2.46
  -4  -9  -3   38.21    2.21
   3   4  -9   37.26    1.85
   3  -9  -4   39.92    2.17
   4  -3  -9   38.22    1.95
  -3  -4  -9   36.99    2.12
   4  -9  -3   40.23    2.20
   3  -4  -9   40.13    2.03
  -9  -4  -3   35.01    1.65
   4   3  -9   36.52    1.96
  -4  -3  -9   37.18    2.13
   3   9  -4   40.46    1.64
  -4  -4  -9    0.51    0.65
  -9  -4  -4    0.24    0.53
   4  -9  -4    0.67    0.68
  -4  -9  -4    1.02    0.94
   4   4  -9   -0.02    0.57
   4  -4  -9    0.72    0.52
   5   0  -9   12.72    1.04
   0  -9  -5   11.82    1.28
   0   5  -9   11.22    1.13
  -5  -9   0   13.04    1.84
   0  -5  -9   14.48    1.18
  -5  -9  -1    0.18    0.82
   1  -9  -5    1.27    0.61
   5  -1  -9    0.37    0.42
   1   5  -9    0.64    0.51
  -1  -5  -9   -0.13    0.51
   1   9   5   -0.13    0.54
  -9  -1   5    0.42    0.97
   5   1  -9    0.56    0.43
  -5  -1  -9    0.72    0.66
   1  -5  -9    0.57    0.54
  -1  -9  -5   -0.18    0.56
   2  -9  -5   54.72    2.67
   2   5  -9   54.09    2.46
  -2  -5  -9   50.83    2.62
  -5  -9  -2   55.68    2.88
   5  -2  -9   54.75    2.45
   2  -5  -9   54.07    2.61
  -2  -9  -5   54.69    2.71
  -9  -2   5   50.70    2.71
   5   2  -9   53.09    2.33
  -5  -2  -9   54.47    2.79
   2   9  -5   53.18    2.91
   5  -9  -2   58.14    2.89
   3  -9  -5   -0.07    0.59
   3   5  -9    0.32    0.45
   5  -3  -9    0.25    0.49
  -3  -5  -9   -0.37    0.61
  -5  -9  -3   -0.60    0.76
  -3  -9  -5    0.08    0.78
   5  -9  -3    1.37    0.74
   3   9  -5    0.44    0.39
   5   3  -9    0.30    0.44
  -5  -3  -9    0.56    0.74
   3  -5  -9   -0.04    0.52
   4  -9  -5   -0.20    0.64
  -4  -5  -9   -0.14    0.72
   5  -4  -9    0.65    0.52
  -9  -4  -5   -0.04    0.72
  -5  -4  -9    0.85    0.79
   4  -5  -9    0.55    0.57
   5  -9  -4    0.15    0.73
  -4  -9  -5    0.91    0.86
   5   4  -9   -0.23    0.47
  -5  -5  -9    0.94    0.94
   5  -9  -5    1.28    0.85
   5  -5  -9    0.38    0.59
   5   5  -9    0.32    0.54
  -5  -9  -5    2.46    1.00
   0  -6  -9   72.42    3.32
   0  -9  -6   72.71    3.33
  -1  -6  -9   17.77    1.47
   1   6  -9   19.34    1.41
  -6  -9  -1   18.20    1.87
   6  -1  -9   17.99    1.29
   1  -9  -6   16.43    1.50
   6   1  -9   17.86    1.20
  -6  -1  -9   16.53    1.71
   1  -6  -9   20.74    1.53
  -1  -9  -6   18.74    1.57
  -2  -6  -9   17.60    1.59
   2  -9  -6   19.34    1.55
  -6  -9  -2   17.29    1.81
   6  -2  -9   17.95    1.30
   2   6  -9   18.16    1.38
   2  -6  -9   17.12    1.42
  -2  -9  -6   20.66    1.66
   6   2  -9   18.38    1.18
  -6  -2  -9   16.82    1.79
   3   6  -9    5.35    0.76
  -3  -6  -9    4.18    0.94
  -6  -9  -3    5.11    1.07
   3  -9  -6    4.43    0.85
  -9  -3  -6    4.01    1.02
   6  -3  -9    6.02    0.83
  -6  -3  -9    6.13    1.21
   3  -6  -9    4.86    0.80
  -3  -9  -6    6.73    1.09
   6  -9  -3    5.34    1.04
   3   9  -6    6.08    0.68
   6   3  -9    6.30    0.84
  -4  -6  -9   17.20    1.90
  -6  -9  -4   21.21    2.53
   6  -4  -9   17.23    1.44
  -9  -4  -6   17.60    1.79
   4   6  -9   18.59    1.32
   4  -9  -6   19.29    1.69
   4  -6  -9   19.33    1.54
  -6  -4  -9   19.40    2.11
   6  -9  -4   23.22    1.82
  -4  -9  -6   19.62    1.85
   5  -9  -6   14.58    1.78
   6  -5  -9   13.19    1.49
  -6  -9  -5   19.34    2.05
  -5  -6  -9   17.00    2.01
   9  -5  -6   15.83    1.59
   5  -6  -9   16.73    1.55
  -5  -9  -6   16.37    1.98
  -6  -5  -9   17.38    2.20
   6  -9  -5   18.01    1.81
   6  -9  -6   -2.07    0.96
  -6  -9  -6   -0.53    1.17
   9  -6  -6   -0.91    0.95
  -6  -6  -9   -1.49    1.19
   6  -6  -9   -1.07    0.85
   7   0  -9    0.32    0.53
   0  -9  -7    0.43    0.73
   0  -7  -9    1.98    0.76
   1  -9  -7    0.95    0.71
  -7  -9  -1    3.59    1.10
   1   7  -9    0.95    0.65
  -1  -7  -9    1.64    0.84
   7  -1  -9    1.57    0.63
  -1  -9  -7    1.45    0.80
  -7  -1  -9    0.41    1.02
   1  -7  -9    2.23    0.69
   7   1  -9    1.04    0.53
   2  -9  -7   10.94    1.42
   2   7  -9   12.21    1.28
  -7  -9  -2   12.42    1.70
   7  -2  -9    9.87    1.19
  -2  -7  -9   12.01    1.41
  -2  -9  -7   11.01    1.55
  -7  -2  -9   10.07    1.54
   2   9  -7   11.60    1.20
   2  -7  -9   12.98    1.36
  -7  -9  -3    5.81    1.36
  -3  -7  -9    6.20    1.11
  -9  -3  -7    6.75    1.32
   3  -9  -7    6.13    0.97
   3   7  -9    6.86    0.86
   7  -3  -9    5.58    0.87
   3   9  -7    7.96    1.02
  -3  -9  -7    9.23    1.28
   3  -7  -9    5.47    0.90
  -7  -3  -9    4.72    1.38
  -4  -7  -9    2.42    1.15
   7  -4  -9    3.87    0.86
   4  -9  -7    2.29    0.85
  -4  -9  -7    3.22    1.14
   4  -7  -9    3.26    0.88
  -7  -4  -9    2.08    1.30
   7  -9  -4    2.38    1.03
   0  -8  -9   18.60    1.85
   0  -9  -8   20.89    1.87
   1  -9  -8    0.44    0.87
   1   8  -9    0.99    0.77
  -1  -8  -9    1.71    0.84
  -1  -9  -8    1.84    0.92
  -8  -1  -9    0.46    1.22
   1  -8  -9    2.35    0.79
  -2  -8  -9   42.75    2.70
   2   8  -9   40.87    2.30
   2  -9  -8   40.20    2.55
   2  -8  -9   44.41    2.75
  -2  -9  -8   44.48    2.73
   2   9  -8   45.38    2.31
  -3  -8  -9   11.10    1.55
   3   8  -9   12.77    1.38
  -9  -3  -8    8.37    1.69
   8  -3  -9    8.46    1.17
  -3  -9  -8    8.98    1.45
  -8  -3  -9    7.66    1.75
 -10   0   0    6.90    0.82
   0 -10   0    4.53    1.00
   0   0 -10    4.88    0.69
   0  10   0    4.33    0.80
 -10   0  -1    3.14    0.61
 -10   0   1    2.63    0.82
  -1 -10   0    1.81    0.88
   0  -1 -10    3.26    0.66
   0   1 -10    2.78    0.58
   1  10   0    2.05    0.64
   0 -10  -1    3.21    0.85
   0  10  -1    3.47    0.87
   0  10   1    1.82    0.68
   1   0 -10    2.81    0.62
 -10   1   0    3.54    0.82
  -1   0 -10    2.61    0.59
 -10  -1   0    2.03    0.63
   1   1 -10   22.80    1.52
   1  10   1   24.92    1.45
  -1   1 -10   24.38    1.57
 -10  -1  -1   25.05    1.31
 -10  -1   1   26.73    1.54
 -10   1  -1   27.12    1.55
  -1  -1 -10   23.80    1.56
 -10   1   1   22.02    1.77
  -1 -10  -1   21.99    1.87
   1 -10  -1   20.82    1.78
   1  -1 -10   25.79    1.56
   1  10  -1   22.37    1.47
   2  10   0    1.48    0.62
   0  -2 -10    1.65    0.54
   0   2 -10    1.74    0.58
 -10   0   2    1.71    0.82
 -10   2   0    3.30    0.89
 -10   0  -2    1.70    0.56
  -2   0 -10    1.35    0.61
   0 -10  -2    0.69    0.68
   0  10   2    1.93    0.73
   2   0 -10    2.41    0.60
  -2 -10   0    1.31    0.95
  -1  -2 -10    4.09    0.72
 -10   2  -1    4.56    0.86
  -2   1 -10    3.07    0.65
   1   2 -10    3.99    0.67
   1 -10  -2    3.51    0.76
 -10   1   2    3.32    1.04
   1  10   2    4.43    0.70
   2  -1 -10    4.93    0.75
 -10  -1  -2    4.89    0.71
  -2 -10  -1    4.26    0.96
 -10   1  -2    3.54    0.77
  -1   2 -10    6.05    0.83
 -10  -1   2    5.23    0.81
 -10   2   1    3.38    1.06
   1  10  -2    5.01    0.81
  -2  -1 -10    4.59    0.82
  -1 -10  -2    4.80    0.91
   2 -10  -1    3.98    0.87
   1  -2 -10    3.56    0.66
   2   1 -10    3.96    0.66
   2 -10  -2   88.17    3.95
 -10   2  -2   78.97    3.59
  -2 -10  -2   87.04    4.00
  -2  -2 -10   87.64    3.79
   2  -2 -10   89.54    3.71
   2   2 -10   89.05    3.65
  -2   2 -10   93.10    3.83
   0   3 -10  136.88    5.32
 -10   0   3  126.89    5.38
  -3 -10   0  123.56    6.01
  -3   0 -10  137.68    5.42
   0 -10  -3  133.32    5.46
   3   0 -10  137.51    5.22
   0  -3 -10  140.02    5.37
   1   3 -10   32.35    1.80
   1 -10  -3   32.40    2.03
   1  10   3   34.70    2.42
  -3 -10  -1   28.98    2.29
  -1  -3 -10   30.42    1.90
 -10   1   3   32.05    2.85
   3  -1 -10   31.86    1.78
  -3   1 -10   33.55    2.00
  -1 -10  -3   32.86    2.08
  -3  -1 -10   31.67    1.97
 -10   1  -3   29.73    1.86
  -1   3 -10   33.85    1.89
   3 -10  -1   33.02    2.19
   1  10  -3   29.67    1.90
 -10  -1   3   34.61    2.62
   1  -3 -10   35.92    1.89
   3   1 -10   33.16    1.77
  -3 -10  -2   -0.39    0.82
  -3   2 -10   -0.29    0.59
   2   3 -10    0.27    0.49
   2 -10  -3   -0.96    0.64
  -2  -3 -10    0.77    0.65
   3  -2 -10    0.35    0.49
  -3  -2 -10   -0.90    0.60
  -2   3 -10   -0.74    0.59
   3   2 -10    0.51    0.49
   2  -3 -10    1.14    0.55
  -2 -10  -3    0.40    0.74
   3 -10  -2    0.06    0.66
   3   3 -10    7.40    0.88
   3 -10  -3    6.55    0.95
  -3  -3 -10    8.69    1.23
  -3 -10  -3    7.83    1.14
   3  -3 -10    6.75    0.87
   4   0 -10   15.14    1.22
  -4 -10   0   12.09    1.83
  -4   0 -10   15.20    1.53
   0 -10  -4   13.24    1.45
   0  -4 -10   13.92    1.33
   0   4 -10   14.11    1.29
  -4   1 -10   32.85    2.12
   1 -10  -4   32.77    2.05
  -4 -10  -1   31.65    2.52
  -1  -4 -10   31.60    1.97
   4  -1 -10   32.24    1.78
   1   4 -10   34.75    1.91
   1  -4 -10   31.38    1.91
   4   1 -10   33.09    1.79
  -1 -10  -4   29.50    2.04
  -1   4 -10   32.43    1.96
  -4  -1 -10   34.34    2.13
  -2  -4 -10   23.30    1.69
   2   4 -10   22.94    1.51
   4  -2 -10   20.14    1.50
   2 -10  -4   22.00    1.77
  -4 -10  -2   19.74    2.04
   4   2 -10   22.85    1.45
   2  -4 -10   24.68    1.61
  -4  -2 -10   22.99    1.81
  -2 -10  -4   21.46    1.83
   4 -10  -2   23.05    1.88
  -4 -10  -3   40.93    2.66
   4  -3 -10   43.13    2.18
   3 -10  -4   42.71    2.50
  -3  -4 -10   41.82    2.42
   3   4 -10   39.73    2.09
   3  -4 -10   39.54    2.22
   4   3 -10   38.44    2.04
   3  10  -4   45.20    2.23
   4 -10  -3   45.91    2.56
  -3 -10  -4   41.62    2.51
  -4  -3 -10   38.07    2.45
   4 -10  -4    2.62    0.94
  -4  -4 -10    2.75    0.99
   4  -4 -10    2.39    0.73
   4   4 -10    1.38    0.61
  -4 -10  -4    1.15    1.03
   5   0 -10    0.22    0.54
   0   5 -10    1.66    0.71
   0  -5 -10    1.63    0.68
  -5   0 -10    0.96    0.82
   0 -10  -5    1.52    0.74
   1 -10  -5   19.55    1.70
   5  -1 -10   20.42    1.43
  -5 -10  -1   22.25    2.36
   1   5 -10   19.64    1.55
  -1  -5 -10   17.29    1.64
  -5   1 -10   21.19    1.93
  -1   5 -10   18.06    1.59
   1  -5 -10   22.48    1.66
  -5  -1 -10   20.65    1.89
   5   1 -10   22.37    1.40
  -1 -10  -5   19.09    1.73
  -2  -5 -10    0.30    0.72
   2 -10  -5    1.49    0.78
   2   5 -10   -0.09    0.58
   5  -2 -10   -0.60    0.54
  -5 -10  -2   -0.23    1.07
  -2 -10  -5   -0.17    0.78
   2  -5 -10    0.32    0.63
  -5  -2 -10   -0.40    0.86
   5   2 -10    0.27    0.53
  -5 -10  -3   28.06    2.46
   3   5 -10   31.12    1.78
   5  -3 -10   31.05    1.85
   3 -10  -5   31.76    2.14
  -3  -5 -10   30.25    2.14
   5 -10  -3   26.89    2.25
  -5  -3 -10   29.37    2.39
  -3 -10  -5   32.04    2.27
   3  -5 -10   28.19    1.91
   5   3 -10   29.08    1.68
   4 -10  -5   36.06    2.35
  -5 -10  -4   34.36    2.57
   5  -4 -10   35.15    2.00
  -4  -5 -10   32.60    2.41
   4   5 -10   30.18    1.84
  -5  -4 -10   33.45    2.55
  -4 -10  -5   31.36    2.46
   5 -10  -4   39.12    2.47
   5   4 -10   31.69    1.81
   4  -5 -10   30.77    2.02
   5 -10  -5   27.94    2.33
   5  -5 -10   29.57    1.96
  -5  -5 -10   28.28    2.55
  -5 -10  -5   28.21    2.55
   0 -10  -6    3.92    0.92
   6   0 -10    5.47    0.79
   0  -6 -10    5.68    0.97
   0   6 -10    4.97    0.92
  -6   0 -10    3.66    1.20
   1 -10  -6    5.13    0.94
  -6 -10  -1    3.64    2.31
   6  -1 -10    4.71    0.81
  -1  -6 -10    6.61    1.04
   1   6 -10    5.96    0.91
   1  -6 -10    7.66    1.10
  -1 -10  -6    4.89    1.07
   6   1 -10    5.45    0.81
   2 -10  -6  166.71    6.73
   2   6 -10  173.75    6.47
  -2  -6 -10  166.18    6.72
   6  -2 -10  174.75    6.43
  -6 -10  -2  161.06    6.88
  -6  -2 -10  161.70    6.99
   6   2 -10  173.06    6.26
   2  -6 -10  166.03    6.64
  -2 -10  -6  169.48    6.82
   3   6 -10    9.68    1.35
   3 -10  -6   12.42    1.65
   6  -3 -10   10.52    1.34
  -6 -10  -3   10.97    1.60
  -3  -6 -10   10.34    1.44
   3  -6 -10   10.87    1.47
  -6  -3 -10   10.06    1.60
  -3 -10  -6    9.80    1.44
   4   6 -10    0.26    0.73
  -6 -10  -4    0.61    1.30
  -4  -6 -10   -0.95    1.09
   6  -4 -10   -0.25    0.72
   4 -10  -6    0.33    1.06
   6 -10  -4   -0.58    1.03
   4  -6 -10    0.65    0.76
  -6  -4 -10    2.92    1.29
  -4 -10  -6    0.80    1.26
   0   7 -10    9.57    1.18
  -7   0 -10    4.90    1.46
   0  -7 -10   12.97    1.66
   7   0 -10   14.02    1.58
   0 -10  -7    8.77    1.23
   1   7 -10   13.83    1.53
   1 -10  -7    8.64    1.21
   7  -1 -10    9.38    1.05
  -1  -7 -10   10.03    1.37
   1  -7 -10   11.93    1.55
  -7  -1 -10    8.15    1.65
  -1 -10  -7   10.17    1.38
   2   7 -10    7.70    1.11
  -2  -7 -10    7.05    1.32
   7  -2 -10    7.87    1.00
  -2 -10  -7    7.58    1.46
   2  10  -7   10.88    1.46
  -7  -2 -10    7.74    1.65
   0   0 -11    1.07    0.62
   0  -1 -11   10.18    1.24
   0   1 -11    8.92    1.18
  -1   0 -11    8.79    1.22
   0 -11  -1    7.49    1.36
   1   0 -11    9.51    1.20
   1  -1 -11    0.06    0.56
  -1  -1 -11    0.03    0.59
  -1 -11  -1    0.06    1.06
   1 -11  -1    0.58    1.04
  -1   1 -11    0.20    0.58
   1   1 -11    1.02    0.62
   0   2 -11   72.99    3.36
   2   0 -11   76.81    3.32
   0 -11  -2   72.22    3.67
   0  -2 -11   72.78    3.38
  -2   0 -11   73.73    3.43
   2  -1 -11   19.28    1.53
  -2 -11  -1   18.71    2.34
  -2   1 -11   22.11    1.72
   1   2 -11   18.56    1.55
  -1  -2 -11   22.20    1.66
   1 -11  -2   20.21    1.97
   1  -2 -11   19.86    1.57
  -1 -11  -2   22.21    2.05
  -1   2 -11   20.94    1.63
  -2  -1 -11   19.95    1.69
   2   1 -11   20.13    1.55
   2 -11  -1   20.33    2.07
  -2 -11  -2   -0.60    0.96
  -2   2 -11   -0.08    0.68
   2 -11  -2   -0.78    0.86
   2  -2 -11    0.60    0.66
  -2  -2 -11    0.25    0.63
   2   2 -11    0.11    0.61
  -3   0 -11   11.04    1.53
   0   3 -11   12.27    1.42
   3   0 -11   12.29    1.31
   0  -3 -11   13.10    1.40
   0 -11  -3   13.34    1.61
  -3   1 -11    2.06    0.83
  -3 -11  -1   -0.12    1.25
   1 -11  -3    0.18    0.86
  -1  -3 -11    0.79    0.68
   1   3 -11    0.90    0.68
   3  -1 -11    0.84    0.65
  -1 -11  -3    1.91    0.93
  -3  -1 -11    1.02    0.78
  -1   3 -11    1.51    0.78
   1  -3 -11    0.61    0.66
   3   1 -11   -0.05    0.60
   3  -2 -11   39.01    2.17
  -2  -3 -11   39.66    2.40
   2   3 -11   39.95    2.17
   2 -11  -3   38.92    2.50
  -3   2 -11   38.92    2.48
  -3 -11  -2   37.64    2.87
   2  -3 -11   39.93    2.22
  -2 -11  -3   41.36    3.00
   3   2 -11   38.10    2.14
  -3  -2 -11   39.36    2.47
   3 -11  -2   43.18    2.67
  -2   3 -11   39.01    2.36
  -3 -11  -3   -0.04    1.12
   3  -3 -11    0.32    0.73
  -3   3 -11    0.26    0.81
   3 -11  -3    1.66    0.98
   3   3 -11   -0.01    0.63
  -3  -3 -11   -0.29    0.86
   4   0 -11    7.26    0.91
   0   4 -11    9.04    1.17
  -4   0 -11    6.45    1.16
   0 -11  -4    8.02    1.26
   0  -4 -11    5.76    0.99
   1   4 -11    5.20    0.88
  -4 -11  -1    5.37    1.70
   4  -1 -11    5.40    0.85
  -4   1 -11    4.61    1.10
  -1  -4 -11    5.44    1.00
   1 -11  -4    6.10    1.13
  -4  -1 -11    5.48    1.24
   1  -4 -11    6.75    0.95
  -1 -11  -4    3.57    1.06
   4   1 -11    5.09    0.90
  -1   4 -11    5.38    0.92
  -4   2 -11   41.03    2.68
   2 -11  -4   37.24    2.63
  -2  -4 -11   40.18    2.47
   2   4 -11   39.83    2.29
   4  -2 -11   40.74    2.25
  -4 -11  -2   40.35    3.09
  -4  -2 -11   43.33    2.68
   2  -4 -11   40.48    2.37
   4   2 -11   44.20    2.25
  -2   4 -11   40.24    2.49
   4  -3 -11   17.37    1.55
   3   4 -11   16.31    1.48
  -4 -11  -3   14.04    1.80
  -3  -4 -11   17.81    1.87
   3 -11  -4   16.45    1.90
  -4   3 -11   12.51    1.57
  -3   4 -11   13.91    1.88
   3  -4 -11   14.21    1.63
  -3 -11  -4   20.15    2.37
   4   3 -11   15.92    1.45
  -4  -3 -11   18.65    1.96
   4 -11  -3   15.75    2.04
  -4 -11  -4    0.83    1.33
  -4  -4 -11   -0.49    1.11
   4  -4 -11    0.91    0.83
   4   4 -11   -1.13    0.74
   0  -5 -11   17.72    1.71
   0   5 -11   14.35    1.64
   5   0 -11   17.87    1.51
   0 -11  -5   15.43    1.91
  -5   0 -11   16.99    2.10
   1   5 -11    1.51    0.87
   1 -11  -5    1.23    0.96
   5  -1 -11    1.73    0.72
  -5   1 -11    0.81    1.10
  -1  -5 -11    1.87    0.91
  -5 -11  -1    0.13    1.61
   5   1 -11    1.45    0.73
  -1 -11  -5   -0.88    0.96
  -1   5 -11    3.33    0.97
   1  -5 -11    1.03    0.82
  -5  -1 -11    3.65    1.23
   2   5 -11   27.22    1.93
   5  -2 -11   28.57    1.90
  -5 -11  -2   30.36    2.92
  -2  -5 -11   27.24    2.24
   2 -11  -5   27.68    2.31
  -5   2 -11   23.05    2.49
  -5  -2 -11   27.54    2.49
  -2 -11  -5   25.80    2.43
  -2   5 -11   25.88    2.17
   2  -5 -11   25.86    2.06
   5   2 -11   31.45    1.82
   0   0 -12  474.85   17.12
   0  -1 -12    1.65    0.80
   0   1 -12    0.39    0.78
   1   0 -12    0.80    0.85
  -1   0 -12    1.53    0.85
  -1  -1 -12    7.67    1.22
   1   1 -12    7.23    1.11
   1  -1 -12    7.73    1.13
  -1 -12  -1    9.11    1.78
  -1   1 -12    6.28    1.01
  -2   0 -12    4.16    1.05
   0  -2 -12    3.12    0.95
   0   2 -12    2.80    0.96
   2   0 -12    2.29    0.88
   0 -12  -2    1.69    1.28
  -2 -12  -1   11.36    2.00
   2  -1 -12   13.66    1.55
   1   2 -12   12.21    1.55
  -1  -2 -12   13.53    1.64
  -2   1 -12   12.14    1.46
   1 -12  -2   10.78    1.73
   1  -2 -12   13.73    1.61
   2   1 -12   11.32    1.50
  -1   2 -12    8.91    1.22
  -2  -1 -12    9.49    1.33
  -1 -12  -2   12.91    1.79
  -2  -2 -12    1.99    1.18
   2   2 -12    0.99    0.86
   2 -12  -2    1.10    1.34
  -2 -12  -2    1.79    1.55
   2  -2 -12   -0.14    0.83
  -3   0 -12   11.32    2.12
   0 -12  -3    6.92    1.39
   0   3 -12   11.22    1.55
   3   0 -12    8.69    1.15
   3  -1 -12    1.46    0.89
   1   3 -12    1.24    0.91
  -3 -12  -1   -0.83    1.78
   1 -12  -3    0.64    1.13
  -1 -12  -3   -0.90    1.22
  -3  -1 -12   -0.61    1.59
  -1   3 -12    0.10    1.40
   3   1 -12   -0.16    0.81
   0   0   0    0.00    0.00
;
_shelx_hkl_checksum              95167
#END Tags that were not found in dictionaries
loop_
_space_group_symop_operation_xyz
'x, y, z'
'-x, -y, z'
'-x, y, -z'
'x, -y, -z'
'z, x, y'
'z, -x, -y'
'-z, -x, y'
'-z, x, -y'
'y, z, x'
'-y, z, -x'
'y, -z, -x'
'-y, -z, x'
'y+1/2, x+1/2, -z+1/2'
'-y+1/2, -x+1/2, -z+1/2'
'y+1/2, -x+1/2, z+1/2'
'-y+1/2, x+1/2, z+1/2'
'x+1/2, z+1/2, -y+1/2'
'-x+1/2, z+1/2, y+1/2'
'-x+1/2, -z+1/2, -y+1/2'
'x+1/2, -z+1/2, y+1/2'
'z+1/2, y+1/2, -x+1/2'
'z+1/2, -y+1/2, x+1/2'
'-z+1/2, y+1/2, x+1/2'
'-z+1/2, -y+1/2, -x+1/2'
'-x, -y, -z'
'x, y, -z'
'x, -y, z'
'-x, y, z'
'-z, -x, -y'
'-z, x, y'
'z, x, -y'
'z, -x, y'
'-y, -z, -x'
'y, -z, x'
'-y, z, x'
'y, z, -x'
'-y-1/2, -x-1/2, z-1/2'
'y-1/2, x-1/2, z-1/2'
'-y-1/2, x-1/2, -z-1/2'
'y-1/2, -x-1/2, -z-1/2'
'-x-1/2, -z-1/2, y-1/2'
'x-1/2, -z-1/2, -y-1/2'
'x-1/2, z-1/2, y-1/2'
'-x-1/2, z-1/2, -y-1/2'
'-z-1/2, -y-1/2, x-1/2'
'-z-1/2, y-1/2, -x-1/2'
'z-1/2, -y-1/2, -x-1/2'
'z-1/2, y-1/2, x-1/2'
loop_
_atom_site_label
_atom_site_type_symbol
_atom_site_fract_x
_atom_site_fract_y
_atom_site_fract_z
_atom_site_U_iso_or_equiv
_atom_site_adp_type
_atom_site_occupancy
_atom_site_site_symmetry_order
_atom_site_calc_flag
_atom_site_refinement_flags_posn
_atom_site_refinement_flags_adp
_atom_site_refinement_flags_occupancy
Lu1 Lu 0.2500 0.5000 0.0000 0.0083(3) Uani 1 8 d S T P
Co1 Co 0.2500 0.2500 0.2500 0.0050(4) Uani 1 6 d S T P
Ge1 Ge 0.0000 0.0000 0.0000 0.0225(9) Uani 1 24 d S T P
Ge2A Ge 0.0000 0.2704(7) 0.1431(7) 0.0129(6) Uani 0.355(7) 2 d S T P
Ge2B Ge 0.0000 0.3251(5) 0.1590(4) 0.0129(6) Uani 0.645(7) 2 d S T P
loop_
_atom_site_aniso_label
_atom_site_aniso_U_11
_atom_site_aniso_U_22
_atom_site_aniso_U_33
_atom_site_aniso_U_23
_atom_site_aniso_U_13
_atom_site_aniso_U_12
Lu1 0.0111(4) 0.0068(3) 0.0068(3) 0.000 0.000 0.000
Co1 0.0050(4) 0.0050(4) 0.0050(4) 0.0001(4) 0.0001(4) 0.0001(4)
Ge1 0.0225(9) 0.0225(9) 0.0225(9) 0.000 0.000 0.000
Ge2A 0.0051(5) 0.0210(16) 0.0127(9) 0.0099(12) 0.000 0.000
Ge2B 0.0051(5) 0.0210(16) 0.0127(9) 0.0099(12) 0.000 0.000
loop_
_atom_type_symbol
_atom_type_description
_atom_type_scat_dispersion_real
_atom_type_scat_dispersion_imag
_atom_type_scat_source
Co Co 0.3494 0.9721 'International Tables Vol C Tables 4.2.6.8 and 6.1.1.4'
Ge Ge 0.1547 1.8001 'International Tables Vol C Tables 4.2.6.8 and 6.1.1.4'
Lu Lu -0.4720 5.8584 'International Tables Vol C Tables 4.2.6.8 and 6.1.1.4'
loop_
_geom_angle_atom_site_label_1
_geom_angle_atom_site_label_2
_geom_angle_atom_site_label_3
_geom_angle
_geom_angle_site_symmetry_1
_geom_angle_site_symmetry_3
Ge2B Lu1 Ge2B 121.86(5) . 17
Ge2B Lu1 Ge2B 55.06(12) . 26
Ge2B Lu1 Ge2B 176.26(15) 17 26
Ge2B Lu1 Ge2B 93.32(9) . 42_666
Ge2B Lu1 Ge2B 55.06(12) 17 42_666
Ge2B Lu1 Ge2B 121.86(5) 26 42_666
Ge2B Lu1 Ge2B 176.26(15) . 18_554
Ge2B Lu1 Ge2B 61.11(15) 17 18_554
Ge2B Lu1 Ge2B 121.86(5) 26 18_554
Ge2B Lu1 Ge2B 86.80(9) 42_666 18_554
Ge2B Lu1 Ge2B 86.80(9) . 25_565
Ge2B Lu1 Ge2B 121.86(5) 17 25_565
Ge2B Lu1 Ge2B 61.11(15) 26 25_565
Ge2B Lu1 Ge2B 176.26(15) 42_666 25_565
Ge2B Lu1 Ge2B 93.32(9) 18_554 25_565
Ge2B Lu1 Ge2B 121.86(5) . 41_665
Ge2B Lu1 Ge2B 86.80(9) 17 41_665
Ge2B Lu1 Ge2B 93.32(9) 26 41_665
Ge2B Lu1 Ge2B 61.11(15) 42_666 41_665
Ge2B Lu1 Ge2B 55.06(12) 18_554 41_665
Ge2B Lu1 Ge2B 121.86(5) 25_565 41_665
Ge2B Lu1 Ge2B 61.11(15) . 2_565
Ge2B Lu1 Ge2B 93.32(9) 17 2_565
Ge2B Lu1 Ge2B 86.80(9) 26 2_565
Ge2B Lu1 Ge2B 121.86(5) 42_666 2_565
Ge2B Lu1 Ge2B 121.86(5) 18_554 2_565
Ge2B Lu1 Ge2B 55.06(12) 25_565 2_565
Ge2B Lu1 Ge2B 176.26(15) 41_665 2_565
Ge2B Lu1 Ge2B 107.17(6) . 37_665
Ge2B Lu1 Ge2B 130.747(17) 17 37_665
Ge2B Lu1 Ge2B 52.58(12) 26 37_665
Ge2B Lu1 Ge2B 130.747(17) 42_666 37_665
Ge2B Lu1 Ge2B 70.11(14) 18_554 37_665
Ge2B Lu1 Ge2B 52.58(12) 25_565 37_665
Ge2B Lu1 Ge2B 70.11(14) 41_665 37_665
Ge2B Lu1 Ge2B 107.17(6) 2_565 37_665
Ge2B Lu1 Ge2B 130.748(17) . 34_565
Ge2B Lu1 Ge2B 52.58(12) 17 34_565
Ge2B Lu1 Ge2B 130.747(17) 26 34_565
Ge2B Lu1 Ge2B 107.17(6) 42_666 34_565
Ge2B Lu1 Ge2B 52.58(12) 18_554 34_565
Ge2B Lu1 Ge2B 70.11(14) 25_565 34_565
Ge2B Lu1 Ge2B 107.17(6) 41_665 34_565
Ge2B Lu1 Ge2B 70.11(14) 2_565 34_565
Ge2B Lu1 Ge2B 92.65(3) 37_665 34_565
Ge2B Lu1 Ge2B 52.58(12) . 14
Ge2B Lu1 Ge2B 70.11(14) 17 14
Ge2B Lu1 Ge2B 107.17(6) 26 14
Ge2B Lu1 Ge2B 70.11(14) 42_666 14
Ge2B Lu1 Ge2B 130.747(17) 18_554 14
Ge2B Lu1 Ge2B 107.17(6) 25_565 14
Ge2B Lu1 Ge2B 130.747(17) 41_665 14
Ge2B Lu1 Ge2B 52.58(12) 2_565 14
Ge2B Lu1 Ge2B 155.16(16) 37_665 14
Ge2B Lu1 Ge2B 92.65(3) 34_565 14
Ge2B Lu1 Ge2B 70.11(14) . 9
Ge2B Lu1 Ge2B 107.17(6) 17 9
Ge2B Lu1 Ge2B 70.11(14) 26 9
Ge2B Lu1 Ge2B 52.58(12) 42_666 9
Ge2B Lu1 Ge2B 107.17(6) 18_554 9
Ge2B Lu1 Ge2B 130.747(17) 25_565 9
Ge2B Lu1 Ge2B 52.58(12) 41_665 9
Ge2B Lu1 Ge2B 130.747(17) 2_565 9
Ge2B Lu1 Ge2B 92.65(3) 37_665 9
Ge2B Lu1 Ge2B 155.16(16) 34_565 9
Ge2B Lu1 Ge2B 92.65(3) 14 9
Ge2A Co1 Ge2A 136.4(3) . 45_666
Ge2A Co1 Ge2A 141.4(3) . 42_666
Ge2A Co1 Ge2A 74.8(2) 45_666 42_666
Ge2A Co1 Ge2A 91.0(3) . 14
Ge2A Co1 Ge2A 74.8(2) 45_666 14
Ge2A Co1 Ge2A 74.8(2) 42_666 14
Ge2A Co1 Ge2A 74.8(2) . 9
Ge2A Co1 Ge2A 141.4(3) 45_666 9
Ge2A Co1 Ge2A 91.0(3) 42_666 9
Ge2A Co1 Ge2A 136.5(3) 14 9
Ge2A Co1 Ge2A 74.8(2) . 5
Ge2A Co1 Ge2A 91.0(3) 45_666 5
Ge2A Co1 Ge2A 136.5(3) 42_666 5
Ge2A Co1 Ge2A 141.4(3) 14 5
Ge2A Co1 Ge2A 74.8(2) 9 5
Ge2A Co1 Ge2B 132.59(10) . 45_666
Ge2A Co1 Ge2B 11.89(10) 45_666 45_666
Ge2A Co1 Ge2B 82.7(2) 42_666 45_666
Ge2A Co1 Ge2B 85.3(2) 14 45_666
Ge2A Co1 Ge2B 134.27(15) 9 45_666
Ge2A Co1 Ge2B 79.2(2) 5 45_666
Ge2A Co1 Ge2B 134.27(15) . 42_666
Ge2A Co1 Ge2B 85.3(2) 45_666 42_666
Ge2A Co1 Ge2B 11.89(10) 42_666 42_666
Ge2A Co1 Ge2B 82.7(2) 14 42_666
Ge2A Co1 Ge2B 79.2(2) 9 42_666
Ge2A Co1 Ge2B 132.59(10) 5 42_666
Ge2B Co1 Ge2B 92.14(14) 45_666 42_666
Ge2A Co1 Ge2B 79.2(2) . 14
Ge2A Co1 Ge2B 82.7(2) 45_666 14
Ge2A Co1 Ge2B 85.3(2) 42_666 14
Ge2A Co1 Ge2B 11.89(10) 14 14
Ge2A Co1 Ge2B 132.59(10) 9 14
Ge2A Co1 Ge2B 134.27(14) 5 14
Ge2B Co1 Ge2B 92.14(14) 45_666 14
Ge2B Co1 Ge2B 92.14(14) 42_666 14
Ge2A Co1 Ge2B 85.3(2) . 9
Ge2A Co1 Ge2B 134.27(15) 45_666 9
Ge2A Co1 Ge2B 79.2(2) 42_666 9
Ge2A Co1 Ge2B 132.59(10) 14 9
Ge2A Co1 Ge2B 11.89(10) 9 9
Ge2A Co1 Ge2B 82.7(2) 5 9
Ge2B Co1 Ge2B 129.74(13) 45_666 9
Ge2B Co1 Ge2B 67.5(2) 42_666 9
Ge2B Co1 Ge2B 131.98(13) 14 9
Ge2A Co1 Ge2B 82.7(2) . 5
Ge2A Co1 Ge2B 79.2(2) 45_666 5
Ge2A Co1 Ge2B 132.59(10) 42_666 5
Ge2A Co1 Ge2B 134.27(15) 14 5
Ge2A Co1 Ge2B 85.3(2) 9 5
Ge2A Co1 Ge2B 11.89(10) 5 5
Ge2B Co1 Ge2B 67.5(2) 45_666 5
Ge2B Co1 Ge2B 131.98(13) 42_666 5
Ge2B Co1 Ge2B 129.74(14) 14 5
Ge2B Co1 Ge2B 92.14(14) 9 5
Ge2A Co1 Ge2B 11.89(10) . .
Ge2A Co1 Ge2B 132.59(10) 45_666 .
Ge2A Co1 Ge2B 134.27(15) 42_666 .
Ge2A Co1 Ge2B 79.2(2) 14 .
Ge2A Co1 Ge2B 82.7(2) 9 .
Ge2A Co1 Ge2B 85.3(2) 5 .
Ge2B Co1 Ge2B 131.98(13) 45_666 .
Ge2B Co1 Ge2B 129.74(13) 42_666 .
Ge2B Co1 Ge2B 67.5(2) 14 .
Ge2B Co1 Ge2B 92.14(14) 9 .
Ge2B Co1 Ge2B 92.14(14) 5 .
Ge2A Ge1 Ge2A 114.42(8) . 33
Ge2A Ge1 Ge2A 180.0 . 25
Ge2A Ge1 Ge2A 65.58(8) 33 25
Ge2A Ge1 Ge2A 65.58(8) . 9
Ge2A Ge1 Ge2A 180.0 33 9
Ge2A Ge1 Ge2A 114.42(8) 25 9
Ge2A Ge1 Ge2A 114.42(8) . 29
Ge2A Ge1 Ge2A 65.58(8) 33 29
Ge2A Ge1 Ge2A 65.58(8) 25 29
Ge2A Ge1 Ge2A 114.42(8) 9 29
Ge2A Ge1 Ge2A 65.58(8) . 5
Ge2A Ge1 Ge2A 114.42(8) 33 5
Ge2A Ge1 Ge2A 114.42(8) 25 5
Ge2A Ge1 Ge2A 65.58(8) 9 5
Ge2A Ge1 Ge2A 180.0 29 5
Ge2A Ge1 Ge2A 114.42(8) . 34
Ge2A Ge1 Ge2A 124.2(3) 33 34
Ge2A Ge1 Ge2A 65.58(8) 25 34
Ge2A Ge1 Ge2A 55.8(3) 9 34
Ge2A Ge1 Ge2A 114.42(8) 29 34
Ge2A Ge1 Ge2A 65.58(8) 5 34
Ge2A Ge1 Ge2A 114.42(8) . 6
Ge2A Ge1 Ge2A 114.42(8) 33 6
Ge2A Ge1 Ge2A 65.58(8) 25 6
Ge2A Ge1 Ge2A 65.58(8) 9 6
Ge2A Ge1 Ge2A 55.8(3) 29 6
Ge2A Ge1 Ge2A 124.2(3) 5 6
Ge2A Ge1 Ge2A 65.58(8) 34 6
Ge2A Ge1 Ge2A 65.58(8) . 30
Ge2A Ge1 Ge2A 65.58(8) 33 30
Ge2A Ge1 Ge2A 114.42(8) 25 30
Ge2A Ge1 Ge2A 114.42(8) 9 30
Ge2A Ge1 Ge2A 124.2(3) 29 30
Ge2A Ge1 Ge2A 55.8(3) 5 30
Ge2A Ge1 Ge2A 114.42(8) 34 30
Ge2A Ge1 Ge2A 180.0(3) 6 30
Ge2A Ge1 Ge2A 55.8(3) . 26
Ge2A Ge1 Ge2A 114.42(8) 33 26
Ge2A Ge1 Ge2A 124.2(3) 25 26
Ge2A Ge1 Ge2A 65.58(8) 9 26
Ge2A Ge1 Ge2A 65.58(8) 29 26
Ge2A Ge1 Ge2A 114.42(8) 5 26
Ge2A Ge1 Ge2A 114.42(8) 34 26
Ge2A Ge1 Ge2A 65.58(8) 6 26
Ge2A Ge1 Ge2A 114.42(8) 30 26
Ge2A Ge1 Ge2A 124.2(3) . 2
Ge2A Ge1 Ge2A 65.58(8) 33 2
Ge2A Ge1 Ge2A 55.8(3) 25 2
Ge2A Ge1 Ge2A 114.42(8) 9 2
Ge2A Ge1 Ge2A 114.42(8) 29 2
Ge2A Ge1 Ge2A 65.58(8) 5 2
Ge2A Ge1 Ge2A 65.58(8) 34 2
Ge2A Ge1 Ge2A 114.42(8) 6 2
Ge2A Ge1 Ge2A 65.58(8) 30 2
Ge2A Ge1 Ge2A 180.00(13) 26 2
Ge2A Ge1 Ge2A 65.58(8) . 10
Ge2A Ge1 Ge2A 55.8(3) 33 10
Ge2A Ge1 Ge2A 114.42(8) 25 10
Ge2A Ge1 Ge2A 124.2(3) 9 10
Ge2A Ge1 Ge2A 65.58(8) 29 10
Ge2A Ge1 Ge2A 114.42(8) 5 10
Ge2A Ge1 Ge2A 180.00(13) 34 10
Ge2A Ge1 Ge2A 114.42(8) 6 10
Ge2A Ge1 Ge2A 65.58(8) 30 10
Ge2A Ge1 Ge2A 65.58(8) 26 10
Ge2A Ge1 Ge2A 114.42(8) 2 10
Co1 Ge2A Co1 132.9(3) . 28
Co1 Ge2A Ge2A 113.09(14) . 26
Co1 Ge2A Ge2A 113.09(14) 28 26
Co1 Ge2A Ge1 96.74(16) . .
Co1 Ge2A Ge1 96.74(16) 28 .
Ge2A Ge2A Ge1 62.12(13) 26 .
Co1 Ge2A Ge2B 113.53(13) . 26
Co1 Ge2A Ge2B 113.53(13) 28 26
Ge2A Ge2A Ge2B 10.26(9) 26 26
Ge1 Ge2A Ge2B 72.38(13) . 26
Co1 Ge2A Ge2A 100.6(3) . 30
Co1 Ge2A Ge2A 52.59(12) 28 30
Ge2A Ge2A Ge2A 112.60(15) 26 30
Ge1 Ge2A Ge2A 57.21(4) . 30
Ge2B Ge2A Ge2A 121.57(15) 26 30
Co1 Ge2A Ge2A 52.59(12) . 5
Co1 Ge2A Ge2A 100.6(3) 28 5
Ge2A Ge2A Ge2A 112.60(15) 26 5
Ge1 Ge2A Ge2A 57.21(4) . 5
Ge2B Ge2A Ge2A 121.57(15) 26 5
Ge2A Ge2A Ge2A 51.2(3) 30 5
Co1 Ge2A Ge2A 152.7(2) . 10
Co1 Ge2A Ge2A 52.59(12) 28 10
Ge2A Ge2A Ge2A 64.42(15) 26 10
Ge1 Ge2A Ge2A 57.21(4) . 10
Ge2B Ge2A Ge2A 69.12(15) 26 10
Ge2A Ge2A Ge2A 60.0 30 10
Ge2A Ge2A Ge2A 101.8(2) 5 10
Co1 Ge2A Ge2A 52.59(12) . 9
Co1 Ge2A Ge2A 152.7(2) 28 9
Ge2A Ge2A Ge2A 64.42(15) 26 9
Ge1 Ge2A Ge2A 57.21(4) . 9
Ge2B Ge2A Ge2A 69.12(15) 26 9
Ge2A Ge2A Ge2A 101.8(2) 30 9
Ge2A Ge2A Ge2A 60.0 5 9
Ge2A Ge2A Ge2A 109.380(18) 10 9
Co1 Ge2A Lu1 66.68(14) . 5
Co1 Ge2A Lu1 66.68(14) 28 5
Ge2A Ge2A Lu1 176.73(12) 26 5
Ge1 Ge2A Lu1 114.6(2) . 5
Ge2B Ge2A Lu1 173.0(2) 26 5
Ge2A Ge2A Lu1 64.5(2) 30 5
Ge2A Ge2A Lu1 64.5(2) 5 5
Ge2A Ge2A Lu1 114.15(18) 10 5
Ge2A Ge2A Lu1 114.15(18) 9 5
Co1 Ge2A Lu1 64.95(7) . .
Co1 Ge2A Lu1 145.2(2) 28 .
Ge2A Ge2A Lu1 67.15(11) 26 .
Ge1 Ge2A Lu1 111.68(16) . .
Ge2B Ge2A Lu1 60.45(11) 26 .
Ge2A Ge2A Lu1 161.98(16) 30 .
Ge2A Ge2A Lu1 111.40(11) 5 .
Ge2A Ge2A Lu1 128.7(3) 10 .
Ge2A Ge2A Lu1 61.19(17) 9 .
Lu1 Ge2A Lu1 115.04(15) 5 .
Co1 Ge2A Lu1 145.2(2) . 25_565
Co1 Ge2A Lu1 64.95(7) 28 25_565
Ge2A Ge2A Lu1 67.15(11) 26 25_565
Ge1 Ge2A Lu1 111.68(16) . 25_565
Ge2B Ge2A Lu1 60.45(11) 26 25_565
Ge2A Ge2A Lu1 111.40(11) 30 25_565
Ge2A Ge2A Lu1 161.98(16) 5 25_565
Ge2A Ge2A Lu1 61.19(17) 10 25_565
Ge2A Ge2A Lu1 128.7(3) 9 25_565
Lu1 Ge2A Lu1 115.04(15) 5 25_565
Lu1 Ge2A Lu1 85.48(14) . 25_565
Co1 Ge2B Co1 129.49(13) . 28
Co1 Ge2B Ge2A 105.99(7) . 26
Co1 Ge2B Ge2A 105.99(7) 28 26
Co1 Ge2B Ge2B 56.26(10) . 14
Co1 Ge2B Ge2B 118.36(15) 28 14
Ge2A Ge2B Ge2B 133.19(13) 26 14
Co1 Ge2B Ge2B 118.36(15) . 13_455
Co1 Ge2B Ge2B 56.26(10) 28 13_455
Ge2A Ge2B Ge2B 133.19(13) 26 13_455
Ge2B Ge2B Ge2B 69.46(11) 14 13_455
Co1 Ge2B Ge2B 109.21(7) . 26
Co1 Ge2B Ge2B 109.21(7) 28 26
Ge2A Ge2B Ge2B 10.26(9) 26 26
Ge2B Ge2B Ge2B 126.33(11) 14 26
Ge2B Ge2B Ge2B 126.33(11) 13_455 26
Co1 Ge2B Lu1 68.47(3) . .
Co1 Ge2B Lu1 161.31(12) 28 .
Ge2A Ge2B Lu1 68.64(10) 26 .
Ge2B Ge2B Lu1 64.55(10) 14 .
Ge2B Ge2B Lu1 113.46(9) 13_455 .
Ge2B Ge2B Lu1 62.47(6) 26 .
Co1 Ge2B Lu1 161.31(12) . 25_565
Co1 Ge2B Lu1 68.47(3) 28 25_565
Ge2A Ge2B Lu1 68.64(10) 26 25_565
Ge2B Ge2B Lu1 113.46(9) 14 25_565
Ge2B Ge2B Lu1 64.55(10) 13_455 25_565
Ge2B Ge2B Lu1 62.47(6) 26 25_565
Lu1 Ge2B Lu1 93.20(9) . 25_565
Co1 Ge2B Lu1 67.68(6) . 5
Co1 Ge2B Lu1 67.68(6) 28 5
Ge2A Ge2B Lu1 157.32(10) 26 5
Ge2B Ge2B Lu1 62.87(11) 14 5
Ge2B Ge2B Lu1 62.87(11) 13_455 5
Ge2B Ge2B Lu1 167.58(8) 26 5
Lu1 Ge2B Lu1 124.11(8) . 5
Lu1 Ge2B Lu1 124.11(8) 25_565 5
loop_
_geom_bond_atom_site_label_1
_geom_bond_atom_site_label_2
_geom_bond_distance
_geom_bond_site_symmetry_2
Lu1 Ge2B 2.993(2) .
Lu1 Ge2B 2.993(2) 17
Lu1 Ge2B 2.993(2) 26
Lu1 Ge2B 2.993(2) 42_666
Lu1 Ge2B 2.993(2) 18_554
Lu1 Ge2B 2.993(2) 25_565
Lu1 Ge2B 2.993(2) 41_665
Lu1 Ge2B 2.993(2) 2_565
Lu1 Ge2B 3.037(3) 37_665
Lu1 Ge2B 3.037(3) 34_565
Lu1 Ge2B 3.037(3) 14
Lu1 Ge2B 3.037(3) 9
Co1 Ge2A 2.372(2) .
Co1 Ge2A 2.372(2) 45_666
Co1 Ge2A 2.372(2) 42_666
Co1 Ge2A 2.372(2) 14
Co1 Ge2A 2.372(2) 9
Co1 Ge2A 2.372(2) 5
Co1 Ge2B 2.4048(13) 45_666
Co1 Ge2B 2.4048(13) 42_666
Co1 Ge2B 2.4048(13) 14
Co1 Ge2B 2.4048(13) 9
Co1 Ge2B 2.4048(13) 5
Co1 Ge2B 2.4048(13) .
Ge1 Ge2A 2.661(6) .
Ge1 Ge2A 2.661(6) 33
Ge1 Ge2A 2.661(6) 25
Ge1 Ge2A 2.661(6) 9
Ge1 Ge2A 2.661(6) 29
Ge1 Ge2A 2.661(6) 5
Ge1 Ge2A 2.661(6) 34
Ge1 Ge2A 2.661(6) 6
Ge1 Ge2A 2.661(6) 30
Ge1 Ge2A 2.661(6) 26
Ge1 Ge2A 2.661(6) 2
Ge1 Ge2A 2.661(6) 10
Ge2A Co1 2.372(2) 28
Ge2A Ge2A 2.489(12) 26
Ge2A Ge2B 2.671(5) 26
Ge2A Ge2A 2.883(8) 30
Ge2A Ge2A 2.883(8) 5
Ge2A Ge2A 2.883(8) 10
Ge2A Ge2A 2.883(8) 9
Ge2A Lu1 3.110(6) 5
Ge2A Lu1 3.205(4) 25_565
Ge2B Co1 2.4048(13) 28
Ge2B Ge2A 2.671(5) 26
Ge2B Ge2B 2.671(7) 14
Ge2B Ge2B 2.671(7) 13_455
Ge2B Ge2B 2.767(6) 26
Ge2B Lu1 2.993(2) 25_565
Ge2B Lu1 3.037(3) 5
#BEGIN Loops that were not found in dictionaries:
loop_
_publcif_info_datablock.id
_publcif_info_datablock.publ_exptl
_publcif_info_datablock.publ_geom
_publcif_info_datablock.structure
{821cb711-b20a-43c1-a945-8f5035b3a925} y y y
#END Loops that were not found in dictionaries
