#------------------------------------------------------------------------------
#$Date: 2016-03-21 01:21:50 +0200 (Mon, 21 Mar 2016) $
#$Revision: 178377 $
#$URL: svn://www.crystallography.net/cod/cif/4/00/21/4002145.cif $
#------------------------------------------------------------------------------
#
# This file is available in the Crystallography Open Database (COD),
# http://www.crystallography.net/
#
# All data on this site have been placed in the public domain by the
# contributors.
#
data_4002145
loop_
_publ_author_name
'Doverbratt, Isa'
'Ponou, Sim\'eon'
'Zhang, Yuemei'
'Lidin, Sven'
'Miller, Gordon J.'
_publ_section_title
;
 Linear Metal Chains in Ca2M2X (M = Pd, Pt; X = Al, Ge): Origin of the
 Pairwise Distortion and Its Role in the Structure Stability
;
_journal_issue                   1
_journal_name_full               'Chemistry of Materials'
_journal_page_first              304
_journal_paper_doi               10.1021/cm503985h
_journal_volume                  27
_journal_year                    2015
_chemical_formula_sum            'Ca2 Ge Pt2'
_chemical_formula_weight         542.93
_space_group_crystal_system      monoclinic
_space_group_IT_number           15
_space_group_name_Hall           '-C 2yc'
_space_group_name_H-M_alt        'C 1 2/c 1'
_symmetry_space_group_name_Hall  '-C 2yc'
_symmetry_space_group_name_H-M   'C 1 2/c 1'
_audit_creation_method           SHELXL-2014/7
_cell_angle_alpha                90
_cell_angle_beta                 102.130(4)
_cell_angle_gamma                90
_cell_formula_units_Z            4
_cell_length_a                   9.6427(3)
_cell_length_b                   5.6488(6)
_cell_length_c                   7.9236(4)
_cell_measurement_temperature    293(2)
_cell_volume                     421.96(5)
_computing_structure_refinement  'SHELXL-2014/7 (Sheldrick, 2014)'
_diffrn_ambient_temperature      293(2)
_diffrn_measured_fraction_theta_full 1.000
_diffrn_measured_fraction_theta_max 0.930
_diffrn_radiation_type           MoK\a
_diffrn_radiation_wavelength     0.71069
_diffrn_reflns_av_R_equivalents  0.0470
_diffrn_reflns_av_unetI/netI     0.0641
_diffrn_reflns_Laue_measured_fraction_full 1.000
_diffrn_reflns_Laue_measured_fraction_max 0.930
_diffrn_reflns_limit_h_max       10
_diffrn_reflns_limit_h_min       -14
_diffrn_reflns_limit_k_max       8
_diffrn_reflns_limit_k_min       -8
_diffrn_reflns_limit_l_max       11
_diffrn_reflns_limit_l_min       -8
_diffrn_reflns_number            2077
_diffrn_reflns_point_group_measured_fraction_full 1.000
_diffrn_reflns_point_group_measured_fraction_max 0.930
_diffrn_reflns_theta_full        25.240
_diffrn_reflns_theta_max         32.884
_diffrn_reflns_theta_min         4.206
_exptl_absorpt_coefficient_mu    75.420
_exptl_crystal_density_diffrn    8.546
_exptl_crystal_F_000             912
_refine_diff_density_max         2.338
_refine_diff_density_min         -1.883
_refine_diff_density_rms         0.604
_refine_ls_extinction_coef       0.00086(8)
_refine_ls_extinction_expression Fc^*^=kFc[1+0.001xFc^2^\l^3^/sin(2\q)]^-1/4^
_refine_ls_extinction_method     'SHELXL-2014/7 (Sheldrick 2014'
_refine_ls_goodness_of_fit_ref   0.891
_refine_ls_hydrogen_treatment    undef
_refine_ls_matrix_type           full
_refine_ls_number_parameters     25
_refine_ls_number_reflns         736
_refine_ls_number_restraints     0
_refine_ls_restrained_S_all      0.891
_refine_ls_R_factor_all          0.0464
_refine_ls_R_factor_gt           0.0293
_refine_ls_shift/su_max          0.000
_refine_ls_shift/su_mean         0.000
_refine_ls_structure_factor_coef Fsqd
_refine_ls_weighting_details
'w=1/[\s^2^(Fo^2^)+(0.0231P)^2^] where P=(Fo^2^+2Fc^2^)/3'
_refine_ls_weighting_scheme      calc
_refine_ls_wR_factor_gt          0.0556
_refine_ls_wR_factor_ref         0.0584
_reflns_Friedel_coverage         0.000
_reflns_number_gt                564
_reflns_number_total             736
_reflns_threshold_expression     'I > 2\s(I)'
_cod_data_source_file            cm503985h_si_002.cif
_cod_data_source_block           Ca2Pt2Ge_C2/c_II
_cod_depositor_comments
'Adding full bibliography for 4002144--4002147.cif.'
_cod_database_code               4002145
#BEGIN Tags that were not found in dictionaries:
_shelx_shelxl_version_number     2014/7
_shelx_space_group_comment
;
The symmetry employed for this shelxl refinement is uniquely defined
by the following loop, which should always be used as a source of
symmetry information in preference to the above space-group names.
They are only intended as comments.
;
_shelx_res_file
;

    shelx.res created by SHELXL-2014/7


TITL Kristall1
CELL 0.71069  9.6427  5.6488  7.9236  90  102.13  90
ZERR   4.00   0.0003  0.0006  0.0004  0.0000  0.0042   0.0000
LATT 7
SYMM -x,y,-z+1/2
SFAC  Ca Ge Pt
UNIT 8 4 8

L.S. 9
BOND
acta
FMAP 2
PLAN 20
WGHT    0.023100
EXTI    0.000861
FVAR       0.25293
PT1   3    0.126839    0.132224    0.000804    11.00000    0.00686    0.00707 =
         0.00849    0.00048    0.00122   -0.00033
GE1   2    0.000000    0.121501    0.250000    10.50000    0.01030    0.01001 =
         0.00865    0.00000    0.00335    0.00000
CA3   1    0.347908    0.129834    0.346278    11.00000    0.01111    0.00764 =
         0.00972    0.00050    0.00046   -0.00060
HKLF 4

REM  Kristall1
REM R1 =  0.0293 for     564 Fo > 4sig(Fo)  and  0.0464 for all     736 data
REM     25 parameters refined using      0 restraints

END

WGHT      0.0230      0.0000

REM Highest difference peak  2.338,  deepest hole -1.883,  1-sigma level  0.604
Q1    1   0.0611  0.0976  0.0564  11.00000  0.05    2.34
Q2    1   0.2791  0.2199  0.3022  11.00000  0.05    2.25
Q3    1   0.1553  0.1295  0.1358  11.00000  0.05    2.23
Q4    1   0.0795 -0.0494 -0.0079  11.00000  0.05    2.12
Q5    1  -0.0633  0.0030  0.1360  11.00000  0.05    2.03
Q6    1   0.3623  0.3522  0.4421  11.00000  0.05    1.96
Q7    1   0.0709  0.2602 -0.0243  11.00000  0.05    1.95
Q8    1   0.0170  0.1205  0.3979  11.00000  0.05    1.89
Q9    1   0.1457  0.3013 -0.0329  11.00000  0.05    1.83
Q10   1   0.1510  0.0944  0.2363  11.00000  0.05    1.82
Q11   1   0.1972  0.2932  0.3127  11.00000  0.05    1.80
Q12   1   0.1955  0.2583  0.0419  11.00000  0.05    1.77
Q13   1   0.1715  0.1842 -0.0684  11.00000  0.05    1.76
Q14   1   0.3136  0.3658  0.3538  11.00000  0.05    1.74
Q15   1   0.4687  0.1543  0.2612  11.00000  0.05    1.72
Q16   1   0.2608  0.1641  0.0221  11.00000  0.05    1.71
Q17   1   0.4603 -0.0512  0.3282  11.00000  0.05    1.70
Q18   1   0.1946  0.2727  0.1407  11.00000  0.05    1.70
Q19   1   0.0788  0.3847 -0.1347  11.00000  0.05    1.60
Q20   1   0.4218  0.2863  0.4409  11.00000  0.05    1.59
;
_shelx_res_checksum              17113
_shelx_hkl_file
;
   0   0   1   48.29   20.61   1
   0   0   1   26.11   15.51   1
   0   0   2 9811.86  156.63   1
   0   0   2 9914.76  194.31   1
   0   0   3    2.42   33.67   1
   0   0   3   -4.87   45.20   1
   0   0   413767.90  269.79   1
   0   0   413427.70  332.30   1
   0   0   5    4.61   45.40   1
   0   0   5   77.64   66.72   1
   0   0   6 8112.08  332.53   1
   0   0   6 8176.53  260.77   1
   0   0   7   22.29   58.97   1
   0   0   7   60.60   88.73   1
   0   0   8 7405.64  381.30   1
   0   0   9   46.57  109.85   1
   0   0  10 1360.31  211.55   1
   0   0  11   27.08  144.98   1
   0  -2   0  151.97   29.09   1
   0   2   0  214.62   43.48   1
   0   2  -1 2712.17   97.03   1
   0  -2   1 2444.29   85.00   1
   0   2   1 2456.58  111.70   1
   0  -2   2  146.92   35.83   1
   0   2   2  165.13   50.60   1
   0  -2   2  111.45   33.35   1
   0  -2   3  239.76   52.31   1
   0  -2   3  235.95   45.70   1
   0   2   3  275.05   85.50   1
   0   2   3  231.45   57.49   1
   0   2   4   88.59   54.14   1
   0   2   4  116.98   97.41   1
   0  -2   4  135.75   61.50   1
   0  -2   4   61.09   40.10   1
   0   2   5   45.06   57.66   1
   0  -2   5   30.33   49.33   1
   0   2   5    0.82   91.48   1
   0  -2   5  -10.23   71.53   1
   0   2   6  108.92   73.33   1
   0  -2   6  126.04   59.30   1
   0   2   6  127.54   87.71   1
   0  -2   7   23.90   68.23   1
   0   2   7  -15.06   82.74   1
   0   2   7   42.64   76.48   1
   0   2   8   29.81   76.95   1
   0  -2   8   -3.52   93.69   1
   0   2   8   48.72   88.42   1
   0   2   9  599.19  130.66   1
   0  -2   9  545.80  135.44   1
   0   2   9  495.40  118.23   1
   0  -2  10   77.90  134.56   1
   0   2  10   61.59  109.90   1
   0   2  10  -12.43  111.54   1
   0  -2  11  273.75  159.46   1
   0   2  11   60.17  128.05   1
   0   4   017331.40  427.15   1
   0  -4   018089.60  316.93   1
   0  -4   1    5.07   39.11   1
   0   4   1   39.41   59.19   1
   0  -4  -1   -5.89   39.55   1
   0   4  -1  -43.00   70.55   1
   0  -4  -2 5018.70  181.28   1
   0   4   2 4629.80  225.57   1
   0  -4   2 4790.65  175.50   1
   0   4  -2 5077.87  190.48   1
   0  -4   3   52.89   47.56   1
   0   4   3   40.74   70.53   1
   0  -4   3   39.86   46.72   1
   0  -4   4 7957.17  253.75   1
   0   4   4 7967.76  320.66   1
   0  -4   4 7579.88  270.38   1
   0  -4   5   62.81   61.47   1
   0   4   5    7.13   79.77   1
   0  -4   5    8.89   53.31   1
   0  -4   6 4779.99  285.65   1
   0  -4   6 4911.96  234.88   1
   0   4   6 5116.14  292.43   1
   0  -4   7  -23.55   74.78   1
   0  -4   7  -76.28  103.62   1
   0   4   7  139.58   97.76   1
   0  -4   8 5570.56  305.12   1
   0   4   8 6099.77  355.11   1
   0  -4   9   20.02  108.99   1
   0   4   9    5.48  113.29   1
   0   4   9  -17.50   90.61   1
   0   4  10  806.14  146.47   1
   0  -4  10  892.79  179.07   1
   0   4  10 1162.89  185.57   1
   0  -6   0  454.51   83.65   1
   0  -6   1  681.90   95.54   1
   0  -6  -1  489.85   84.71   1
   0   6   1  485.01  129.90   1
   0  -6   2  492.10   90.35   1
   0   6   2  422.67  122.99   1
   0  -6  -2  428.69   82.28   1
   0  -6   2  412.19   84.99   1
   0  -6  -3  107.14   63.74   1
   0  -6   3   54.85   64.32   1
   0   6   3   21.45  101.11   1
   0  -6   3   58.81   64.44   1
   0   6   4  202.29  104.71   1
   0  -6  -4  276.88   96.17   1
   0  -6   4  269.93   74.83   1
   0  -6   4  160.52   78.00   1
   0  -6  -5   -1.05   90.47   1
   0  -6   5   19.60   77.44   1
   0  -6   5   48.45   91.84   1
   0   6   5   34.56  113.13   1
   0  -6   6  415.01  104.15   1
   0  -6  -6  307.78  117.33   1
   0  -6   6  433.49  125.09   1
   0   6   6  316.85  134.44   1
   0  -6  -7  -12.99  126.61   1
   0  -6   7  -21.43   96.71   1
   0   6   7   46.57  128.67   1
   0  -6   8  199.12  124.77   1
   0   8   4 2006.72  257.72   1
  -1  -1  11  961.87  194.30   1
  -1   1  11  990.11  183.16   1
  -1  -1  10  680.27  155.05   1
  -1   1  10  831.17  173.51   1
  -1   1   9 1575.30  193.24   1
  -1  -1   9 1369.34  190.85   1
  -1   1   9 1196.75  137.38   1
  -1  -1   8 1260.68  169.72   1
  -1   1   8 1677.30  156.36   1
  -1   1   8 1642.01  184.65   1
  -1  -1   7 2541.89  205.42   1
  -1   1   7 2647.17  183.42   1
  -1   1   7 2386.97  206.43   1
  -1  -1   6 1182.19  133.15   1
  -1  -1   6  971.64   87.56   1
  -1   1   6 1058.08  143.50   1
  -1   1   6  832.38  106.71   1
  -1  -1   5  830.59   72.65   1
  -1   1   5  973.07  131.09   1
  -1   1   5  831.17  103.40   1
  -1  -1   5 1033.11  110.33   1
  -1  -1   5  889.59  117.65   1
  -1  -1   4 7817.36  263.92   1
  -1   1   4 8136.12  316.11   1
  -1  -1   4 7461.40  221.97   1
  -1   1   4 7008.82  237.37   1
  -1  -1   4 7271.81  164.11   1
  -1  -1   3 9812.34  234.36   1
  -1   1   3 9753.50  258.88   1
  -1  -1   3 9719.11  134.96   1
  -1   1   3 9880.95  167.44   1
  -1  -1   3 9784.76  208.57   1
  -1   1   3 9420.39  344.86   1
  -1   1   2 1244.62   58.42   1
  -1  -1   2 1172.21   62.44   1
  -1  -1   2 1182.50   36.03   1
  -1   1   2 1237.72   95.26   1
  -1  -1   2 1066.58   63.79   1
  -1   1   2 1132.51  103.82   1
  -1  -1   1 3277.95   70.73   1
  -1   1   1 3217.37  133.12   1
  -1  -1   1 3009.44   82.50   1
  -1   1   1 3324.50   81.52   1
  -1  -1   0 5458.04  131.13   1
  -1  -1   0 5495.30  100.19   1
  -1   1   0 5501.80  115.16   1
   1  -1   0 5521.71   59.90   1
   1   1   1 5793.74  148.57   1
  -1   1  -1 5549.62   72.96   1
  -1  -1  -1 5595.07  124.68   1
   1  -1   1 5455.93  128.45   1
   1   1   2 4154.61  199.59   1
   1  -1   2 4127.18  161.79   1
   1  -1   2 4163.67  115.43   1
  -1  -1  -2 4298.38  105.18   1
   1  -1   3 3761.25  129.48   1
   1   1   3 3703.91  136.16   1
   1   1   3 3583.08  186.90   1
  -1  -1  -4 3938.41   85.08   1
   1  -1   4 4188.05  114.78   1
   1   1   4 4126.68  159.04   1
   1   1   4 3858.39  201.88   1
   1  -1   4 4103.55  155.76   1
   1  -1   5 5464.68  160.87   1
   1  -1   5 5578.71  210.54   1
  -1  -1  -5 5237.87  107.98   1
   1   1   5 4898.71  246.86   1
   1   1   5 5302.40  203.03   1
   1   1   6  348.09   79.04   1
   1  -1   6  360.14   81.08   1
   1   1   6  410.09  105.32   1
   1  -1   6  340.48   62.20   1
   1   1   7  721.70  104.06   1
   1   1   7  532.54  130.11   1
   1  -1   7  617.84  110.93   1
   1   1   8 2765.99  244.11   1
   1   1   8 2618.64  193.44   1
   1  -1   8 2496.54  222.16   1
   1  -1   9 1921.44  215.80   1
   1   1   9 2214.62  237.61   1
   1   1  10  666.78  167.28   1
   1  -1  10  263.93  135.53   1
   1  -1  11  757.20  194.63   1
   1   1  11  851.67  183.12   1
  -1   3  11  697.64  152.21   1
  -1   3  10 1100.88  161.96   1
  -1   3  10  986.58  151.06   1
  -1  -3  10 1283.63  208.64   1
  -1   3   9  686.69  135.63   1
  -1   3   9  608.28  125.39   1
  -1  -3   9  598.98  134.32   1
  -1   3   8 1678.45  172.54   1
  -1  -3   8 1481.99  168.04   1
  -1   3   8 1754.59  186.49   1
  -1   3   7 1486.64  162.62   1
  -1  -3   7 1096.05  154.42   1
  -1   3   7 1500.84  166.09   1
  -1  -3   7 1465.91  149.46   1
  -1  -3   6 1402.69  150.48   1
  -1   3   6 1295.12  171.73   1
  -1  -3   6 1367.71  126.51   1
  -1   3   6 1427.90  152.12   1
  -1  -3   5  349.52   70.89   1
  -1   3   5  306.65   89.15   1
  -1   3   5  501.82  139.96   1
  -1  -3   5  395.36   86.60   1
  -1   3   4 6289.44  262.39   1
  -1   3   4 6023.64  116.81   1
  -1  -3   4 6216.61  200.67   1
  -1  -3   4 6230.70  222.93   1
  -1   3   3 4930.38  125.05   1
  -1   3   3 4903.43  225.02   1
  -1  -3   3 4860.15  174.31   1
   1   3  -3 4607.95  109.69   1
  -1  -3   3 5124.04  166.09   1
  -1  -3   2 1478.69   90.98   1
   1   3  -2 1573.14   81.23   1
  -1   3   2 1546.40  130.25   1
  -1  -3   2 1331.96   82.93   1
   1   3  -1 1115.96   76.91   1
   1  -3  -1 1224.82   69.82   1
  -1   3   1 1222.76  119.81   1
  -1  -3   1 1059.97   74.68   1
  -1  -3   0 4486.62  143.39   1
  -1   3   0 4349.26  196.65   1
   1  -3   0 4447.03  122.15   1
   1   3   0 4509.75  157.93   1
  -1  -3  -1 2801.38  120.62   1
   1   3   1 2453.21  127.99   1
   1  -3   1 2794.30  102.54   1
  -1   3  -1 2747.31  129.80   1
  -1   3  -2 3998.38   93.30   1
   1   3   2 4053.15  174.55   1
   1  -3   2 3831.51  141.32   1
   1  -3   3 1644.88  117.96   1
   1   3   3 1440.29  120.42   1
   1  -3   3 1497.94  103.62   1
   1  -3   4 4136.27  218.17   1
   1  -3   4 3934.98  172.77   1
   1   3   4 4327.70  240.12   1
   1   3   4 3851.79  200.37   1
   1   3   5 3209.89  199.65   1
   1   3   5 2934.89  219.88   1
   1  -3   5 3256.19  223.67   1
   1  -3   5 3246.64  170.97   1
   1   3   6  622.20  105.83   1
   1  -3   6  644.82   96.28   1
   1   3   6  612.61  119.38   1
   1  -3   7  105.95   69.62   1
   1   3   7  254.00   96.66   1
   1   3   7  159.81   87.15   1
   1   3   8 2139.57  176.94   1
   1  -3   8 2168.77  196.10   1
   1   3   8 2441.54  217.44   1
   1   3   9 1655.91  196.91   1
   1   3   9 1183.04  150.94   1
   1  -3   9 1770.81  205.55   1
   1  -3  10  663.82  172.14   1
   1   3  10  645.53  143.45   1
   1   3  10  435.12  122.96   1
  -1   5   9  926.35  176.58   1
  -1  -5   9 1181.31  180.84   1
  -1  -5   8  566.39  146.94   1
  -1  -5   8  505.49  112.61   1
  -1   5   8  535.72  133.03   1
  -1  -5   7 1394.99  185.03   1
  -1  -5   7 1252.18  143.30   1
  -1   5   7 1568.21  201.98   1
  -1  -5   6  232.32   74.09   1
  -1   5   6  251.90  110.48   1
  -1  -5   6  362.26  104.37   1
  -1  -5   5  810.79  100.27   1
  -1   5   5  808.02  137.96   1
  -1  -5   5  809.19  119.58   1
  -1  -5   4 2313.81  164.40   1
  -1   5   4 2417.92  208.71   1
  -1  -5   4 2241.66  147.09   1
   1  -5  -4 2252.52  166.57   1
   1  -5  -3 4438.04  197.48   1
  -1  -5   3 4633.90  212.52   1
  -1   5   3 4002.17  257.81   1
  -1  -5   3 4670.10  194.59   1
  -1  -5   2  217.35   60.98   1
  -1  -5   2  151.37   59.08   1
  -1   5   2  255.81  103.50   1
   1  -5  -2  271.62   58.83   1
   1   5  -1 1741.71  169.00   1
   1  -5  -1 1752.16  115.84   1
  -1  -5   1 1996.72  135.82   1
  -1   5   1 1927.80  201.03   1
   1   5   0 1474.95  148.59   1
  -1   5   0 1455.01  175.30   1
   1  -5   0 1622.33  110.07   1
  -1  -5   0 1484.85  116.73   1
  -1  -5  -1 2508.07  147.83   1
   1   5   1 2752.49  192.29   1
  -1   5  -1 2414.45  177.35   1
   1  -5   1 2509.66  136.46   1
  -1  -5  -2  796.94   93.28   1
   1  -5   2  743.87   86.51   1
   1   5   2  720.39  116.42   1
   1  -5   3 2335.49  152.38   1
   1   5   3 2165.87  187.74   1
   1  -5   3 2462.39  161.75   1
  -1  -5  -3 2406.47  164.61   1
   1   5   4 1585.52  169.85   1
  -1  -5  -4 1633.11  158.34   1
   1  -5   4 1360.34  129.41   1
   1  -5   4 1624.46  156.63   1
   1   5   5 3175.71  245.74   1
   1  -5   5 3418.23  203.67   1
   1  -5   5 3345.42  247.12   1
   1   5   6  142.13   93.98   1
   1  -5   6  168.08   71.27   1
   1  -5   6   67.92  109.16   1
   1  -5   7  512.60  109.01   1
   1  -5   7  583.23  164.24   1
   1   5   7  527.22  147.54   1
   1   5   8 1115.90  187.54   1
   1  -5   8 1050.00  151.83   1
  -1   7   6  958.66  192.52   1
  -1   7   5   19.45  127.29   1
  -1   7   4 2514.97  260.77   1
  -1   7   3 1175.79  196.96   1
  -1   7   2  934.08  188.25   1
  -1  -7   0 1732.92  159.69   1
  -1  -7  -1  536.23  109.94   1
   1  -7   2 1475.84  160.21   1
   1   7   2 1718.48  227.50   1
   1   7   3  268.69  126.68   1
   1  -7   3  199.94   84.29   1
   1  -7   4 1517.89  163.18   1
   1   7   4 1446.18  217.06   1
   1   7   5  697.90  163.55   1
   1  -7   5  889.67  140.76   1
   1  -7   6  450.94  124.69   1
   1   7   6  291.12  156.49   1
  -2   0  11  -28.05  135.84   1
  -2   0  10   90.18  122.69   1
  -2   0   9   21.77  108.07   1
  -2   0   8  762.85   99.82   1
  -2   0   8  768.99  145.43   1
  -2   0   7   24.35   61.43   1
  -2   0   7    3.37   95.94   1
  -2   0   6  945.43  102.34   1
  -2   0   6  874.63  131.72   1
  -2   0   5   36.32   78.23   1
  -2   0   5   -2.12   55.82   1
  -2   0   4  220.47   72.94   1
  -2   0   4  197.79   58.07   1
  -2   0   4  232.15   80.15   1
  -2   0   3   37.78   74.56   1
  -2   0   3   35.27   43.79   1
  -2   0   3   32.44   47.13   1
  -2   0   3   92.18   58.57   1
  -2   0   2  -20.28   83.08   1
  -2   0   2   83.12   75.65   1
  -2   0   2   36.48   33.98   1
  -2   0   2   26.66   32.94   1
  -2   0   1   35.60   20.58   1
  -2   0   1   19.40   26.98   1
  -2   0   1   85.45   72.26   1
  -2   0   1   14.68   18.21   1
  -2   0   0  275.39   24.07   1
  -2   0   0  228.81   55.18   1
   2   0   1    5.23   21.38   1
  -2   0  -1   28.15   41.88   1
   2   0   2 2809.89   95.62   1
  -2   0  -2 2817.40  106.72   1
   2   0   3    3.54   36.39   1
  -2   0  -3   23.69   33.70   1
   2   0   4 1449.79  108.03   1
  -2   0  -4 1454.46   94.42   1
   2   0   5   33.10   38.48   1
  -2   0  -5    3.96   48.04   1
   2   0   5    3.66   61.43   1
  -2   0  -6  379.77   75.64   1
   2   0   6  402.47  103.28   1
   2   0   6  352.11   66.57   1
   2   0   7   18.85   93.04   1
   2   0   7   -0.15   59.84   1
   2   0   8   62.49  100.04   1
   2   0   9   88.67  117.01   1
   2   0  10  210.04  132.03   1
   2   0  11   -8.12  169.02   1
  -2  -2  11 2800.40  293.74   1
  -2   2  11 2881.91  252.14   1
  -2  -2  10  -25.46  130.60   1
  -2   2  10   43.21   95.25   1
  -2   2  10   44.11   96.72   1
  -2   2   9 2594.17  209.99   1
  -2   2   9 2263.88  207.14   1
  -2  -2   9 1997.79  220.01   1
  -2   2   8   26.99   80.05   1
  -2  -2   8   40.38   94.73   1
  -2   2   8   28.02   82.48   1
  -2   2   711890.00  400.88   1
  -2  -2   711674.70  421.17   1
  -2  -2   711311.30  400.90   1
  -2   2   711783.50  415.45   1
  -2   2   6    6.55   74.04   1
  -2   2   6  -10.40   87.55   1
  -2  -2   6   40.36   69.74   1
  -2  -2   6   -1.57   69.35   1
  -2   2   5 5642.24  256.41   1
  -2  -2   5 5527.99  217.00   1
  -2  -2   5 5237.15  224.53   1
  -2   2   5 5205.45  125.11   1
  -2   2   5 5373.89  290.52   1
  -2   2   4   -0.41   37.14   1
  -2  -2   4   13.24   42.55   1
  -2   2   4   35.01   88.13   1
  -2  -2   4   -6.03   43.58   1
  -2   2   4  -14.33   64.54   1
  -2  -2   311673.60  224.34   1
  -2   2   312331.10  209.82   1
  -2   2   311951.80  342.81   1
  -2  -2   312383.20  257.41   1
  -2  -2   2   29.36   31.72   1
  -2  -2   2   11.78   26.08   1
  -2   2   2   52.87   62.59   1
  -2   2   2   17.61   30.80   1
  -2  -2   113446.50  219.42   1
  -2   2   113706.50  238.56   1
   2  -2  -113642.10  145.36   1
  -2  -2   113477.70  162.21   1
  -2   2   113019.80  306.62   1
   2  -2   0    2.26   13.31   1
  -2   2   0   29.39   33.50   1
  -2  -2   0   25.17   29.19   1
  -2   2  -120225.60  224.95   1
   2  -2   119902.00  262.14   1
   2   2   2   15.92   41.23   1
   2  -2   2    0.18   50.83   1
   2   2   3 4815.37  248.73   1
   2   2   3 4502.76  177.70   1
   2  -2   3 4538.55  159.24   1
   2  -2   3 4512.70  216.46   1
   2   2   4    8.18   47.76   1
   2  -2   4   10.31   44.03   1
   2   2   4   14.37   80.09   1
   2   2   513182.70  394.30   1
   2   2   513091.20  346.89   1
   2  -2   512419.90  315.25   1
   2  -2   6   38.34   55.83   1
   2   2   6  -16.41   78.03   1
   2   2   6   17.28   66.44   1
   2  -2   7 4659.28  244.09   1
   2   2   7 5193.89  279.92   1
   2   2   7 4764.99  249.53   1
   2   2   8  -38.00   88.90   1
   2  -2   8    2.00   80.89   1
   2   2   8  -53.53   81.04   1
   2   2   9 3982.47  278.17   1
   2   2   9 4028.49  269.72   1
   2  -2   9 3638.57  281.67   1
   2   2  10   32.81  122.83   1
   2  -2  10  121.65  138.17   1
  -2  -4  10  178.80  151.63   1
  -2   4  10  131.94  121.17   1
  -2   4   9   53.53  107.91   1
  -2  -4   9  207.76  109.54   1
  -2  -4   9   24.39  125.30   1
  -2   4   8  436.75  116.40   1
  -2  -4   8  568.01  129.41   1
  -2  -4   8  396.21  134.45   1
  -2  -4   7  174.77   88.50   1
  -2  -4   7  241.71   88.38   1
  -2   4   7  227.18   90.24   1
  -2   4   6  430.62  110.51   1
  -2  -4   6  550.52  106.07   1
  -2  -4   6  516.40   94.25   1
  -2  -4   5  283.58   74.57   1
  -2  -4   5  265.54   65.44   1
  -2   4   5  268.86   89.83   1
  -2  -4   4  136.78   58.64   1
  -2  -4   4  173.40   51.92   1
  -2   4   4  160.97   84.20   1
  -2  -4   3  183.10   57.82   1
  -2  -4   3  234.38   53.78   1
  -2   4   3  187.65   89.56   1
  -2   4   3  214.01   48.67   1
   2   4  -2    3.29   48.70   1
  -2   4   2   38.29   81.73   1
  -2  -4   2  124.75   51.35   1
   2  -4  -2   17.29   34.92   1
  -2  -4   2   12.72   37.57   1
   2  -4  -1  449.12   49.92   1
  -2   4   1  543.59  111.51   1
   2   4  -1  439.46   68.37   1
  -2  -4   1  421.15   65.24   1
   2  -4   0   75.57   33.84   1
  -2  -4   0  103.95   46.10   1
  -2   4   0   56.35   63.29   1
   2   4   0  101.60   53.69   1
   2  -4   1  261.05   48.37   1
  -2  -4  -1  302.00   60.57   1
  -2   4  -1  360.18   66.83   1
   2   4   1  301.96   72.43   1
   2   4   2 1461.77  131.75   1
   2  -4   2 1353.28  103.71   1
  -2  -4  -2 1182.64  108.01   1
  -2   4  -2 1113.71   66.69   1
   2  -4   3  297.08   79.56   1
   2  -4   3  265.29   64.35   1
  -2  -4  -3  242.14   70.73   1
   2   4   3  151.42   72.75   1
   2  -4   4  716.09  119.15   1
   2  -4   4  641.06   90.39   1
   2   4   4  624.23  107.88   1
   2  -4   5   97.84   63.51   1
   2  -4   5  280.33  109.89   1
   2   4   5  132.08   74.91   1
   2   4   6  226.47   95.64   1
   2  -4   6  173.04   72.82   1
   2   4   7  163.54   90.09   1
   2  -4   7  200.55   90.98   1
   2   4   7  283.65  107.79   1
   2   4   8   30.19  109.11   1
   2  -4   8   53.26   92.11   1
   2  -4   9  141.83  106.95   1
   2   4   9   13.24  122.98   1
  -2  -6   8   10.91  151.88   1
  -2  -6   8   49.46  131.39   1
  -2   6   8   35.79  132.12   1
  -2   6   7 5165.11  349.24   1
  -2  -6   7 5357.05  346.90   1
  -2  -6   7 4583.78  271.84   1
  -2   6   6  -13.25  107.66   1
  -2  -6   6  -46.16   96.94   1
  -2  -6   6  -58.22   82.81   1
  -2   6   5 2323.06  233.84   1
  -2  -6   5 2266.44  169.56   1
  -2  -6   5 2493.76  207.43   1
  -2  -6   4  -21.86   75.47   1
  -2   6   4  147.85   94.16   1
  -2  -6   4   29.51   68.33   1
  -2  -6   3 4595.12  244.75   1
  -2  -6   3 4794.95  213.19   1
  -2   6   3 4784.57  315.64   1
  -2   6   2  122.57  112.99   1
  -2  -6   2  -13.35   67.86   1
  -2  -6   2   31.50   56.33   1
  -2   6   1 5381.15  344.74   1
  -2  -6   1 4910.60  242.18   1
  -2  -6   0   58.01   61.79   1
   2   6   0    0.54   92.62   1
   2   6   1 7124.14  339.50   1
  -2  -6  -1 7435.07  291.19   1
  -2  -6  -2   39.79   66.53   1
   2   6   2    2.27   92.32   1
  -2  -6  -3 2021.05  175.59   1
   2  -6   3 2043.07  168.71   1
   2   6   3 2177.98  210.61   1
   2  -6   4   50.63   70.41   1
   2   6   4   95.18  102.43   1
  -2  -6  -4    8.48   86.74   1
   2   6   5 5737.73  355.60   1
  -2  -6  -5 4923.81  301.09   1
   2  -6   5 5721.24  286.99   1
   2   6   6  110.91  119.06   1
   2  -6   6    1.73   87.44   1
  -2  -6  -6  -20.09  106.62   1
   2  -6   7 2943.80  235.58   1
  -2  -6  -7 2080.73  239.15   1
   2   6   7 2285.45  263.93   1
  -2   8   4  128.32  195.98   1
   2  -8   2  283.50  121.41   1
   2  -8   3  358.07  131.77   1
  -3   1  11 1763.19  212.53   1
  -3  -1  11 2102.47  255.03   1
  -3   1  10 1944.73  211.10   1
  -3  -1  10 1727.82  234.45   1
  -3  -1   9  436.67  137.77   1
  -3   1   9  654.03  111.60   1
  -3   1   9  549.18  129.58   1
  -3   1   8  697.37  133.97   1
  -3  -1   8  588.39  136.36   1
  -3   1   8  779.02  115.46   1
  -3   1   7 2497.11  203.43   1
  -3  -1   7 1747.07  185.46   1
  -3  -1   7 2240.38  189.71   1
  -3   1   7 2162.81  168.80   1
  -3  -1   7 2111.17  132.94   1
  -3   1   6 2236.24  192.74   1
  -3  -1   6 1841.52  158.76   1
  -3  -1   6 1966.19  178.86   1
  -3   1   6 2147.26  163.92   1
  -3  -1   6 1852.16  116.49   1
  -3   1   5 2776.21  207.28   1
  -3   1   5 2869.69  136.05   1
  -3   1   5 2773.06  175.97   1
  -3  -1   5 2704.23  161.38   1
  -3  -1   5 2505.18  176.43   1
  -3  -1   5 2696.24  121.53   1
  -3  -1   4 2197.03   95.13   1
  -3   1   4 2168.51  129.98   1
  -3   1   4 2363.31  155.93   1
  -3  -1   4 2254.54  124.61   1
  -3  -1   4 2212.34  150.35   1
  -3   1   4 2137.04  179.37   1
  -3   1   3 5772.03  216.72   1
  -3  -1   3 5599.01  206.17   1
  -3  -1   3 5501.40  244.38   1
  -3   1   3 6264.95  225.10   1
  -3  -1   3 5772.58  165.66   1
  -3  -1   3 5792.63  135.65   1
  -3   1   3 6056.94  244.14   1
  -3  -1   2 7928.59  168.95   1
  -3  -1   2 7247.30  278.87   1
  -3   1   2 8502.10  227.39   1
  -3   1   2 8067.04  213.68   1
  -3  -1   2 7289.07  209.94   1
  -3  -1   1 1003.82   64.75   1
  -3  -1   1  792.07   52.54   1
  -3   1   1  920.78   82.41   1
  -3   1   1  937.14   67.54   1
  -3  -1   1  830.45  135.02   1
  -3   1   1  892.03   38.23   1
  -3  -1   0  810.85  145.39   1
  -3   1   0  706.64   22.53   1
  -3   1   0  867.32   75.43   1
  -3   1   0  741.53   52.50   1
  -3  -1   0  865.99   56.31   1
  -3   1  -1 9019.89  226.59   1
   3   1   1 8626.30  148.58   1
   3   1   2 6012.64  164.57   1
   3  -1   2 5840.05  152.87   1
  -3   1  -2 5907.80  191.50   1
  -3  -1  -2 5805.49  239.65   1
  -3   1  -3 2140.17  130.91   1
   3   1   3 2335.99  128.99   1
   3  -1   3 2434.00  112.49   1
  -3  -1  -3 2599.61  145.60   1
   3   1   4 2398.78  155.87   1
  -3  -1  -4 2468.60  132.51   1
   3  -1   4 2464.72  127.54   1
  -3   1  -4 2557.26  155.21   1
   3  -1   5 1932.54  128.98   1
   3   1   5 1864.83  159.55   1
   3   1   5 1832.35  124.10   1
  -3   1  -5 2019.94  154.18   1
   3   1   6 2090.78  184.17   1
   3  -1   6 2116.97  117.61   1
  -3   1  -6 1974.67  164.31   1
   3  -1   6 1898.89  144.46   1
   3   1   6 1944.51  139.99   1
   3  -1   7 1114.15  136.26   1
   3   1   7  895.15  109.37   1
   3   1   7  731.04  137.87   1
   3   1   8  513.50  127.94   1
   3   1   8  641.29  111.34   1
   3  -1   8  684.10  134.68   1
   3   1   9 1621.46  223.23   1
   3  -1   9 1824.01  222.68   1
   3   1  10 1371.11  209.38   1
   3  -1  10 1547.99  223.44   1
  -3  -3  11 1032.35  214.46   1
  -3   3  11  839.15  162.77   1
  -3  -3  10 1754.38  227.32   1
  -3   3  10 1858.17  195.51   1
  -3   3  10 1783.16  204.13   1
  -3   3   9  283.52  109.35   1
  -3  -3   9  251.14  119.57   1
  -3  -3   9  126.66  114.73   1
  -3   3   9  159.72   93.20   1
  -3   3   8 1118.09  153.79   1
  -3   3   8 1185.48  161.57   1
  -3  -3   8  867.85  147.47   1
  -3  -3   8  985.11  155.88   1
  -3  -3   7 1273.95  146.00   1
  -3  -3   7 1264.15  153.15   1
  -3   3   7 1351.07  160.38   1
  -3   3   7 1368.38  177.27   1
  -3   3   6 1782.41  173.03   1
  -3  -3   6 1815.56  158.57   1
  -3  -3   6 1998.97  157.62   1
  -3   3   5 1394.27  151.40   1
  -3  -3   5 1244.64  113.29   1
  -3  -3   5 1162.82  116.12   1
  -3  -3   4 2390.61  144.19   1
  -3  -3   4 2303.30  126.35   1
  -3   3   4 2342.04  116.19   1
  -3   3   4 2291.24  182.80   1
  -3   3   3 3266.29  208.49   1
  -3  -3   3 3084.05  148.75   1
  -3  -3   3 3247.92  126.67   1
  -3   3   3 3101.22  136.37   1
   3  -3  -2 6720.82  137.38   1
  -3   3   2 6961.51  282.51   1
  -3  -3   2 6879.31  204.77   1
  -3  -3   2 6712.40  153.73   1
  -3   3   2 6604.56  197.29   1
  -3   3   1  287.90   75.68   1
   3  -3  -1  246.95   26.76   1
  -3  -3   1  278.87   49.53   1
  -3  -3   1  240.16   32.06   1
  -3   3   1  247.45   57.23   1
  -3  -3   0 1223.94   90.46   1
   3  -3   0 1059.78   54.24   1
  -3   3   0 1172.20   92.76   1
  -3  -3  -1 4772.41  177.32   1
   3  -3   1 4558.43  156.79   1
  -3   3  -1 4778.33  144.13   1
  -3  -3  -2 5621.88  204.79   1
  -3   3  -2 5955.19  137.85   1
   3  -3   2 5376.08  220.27   1
   3  -3   3 1149.41  100.15   1
   3   3   3 1193.14  112.42   1
   3   3   4 2753.15  173.47   1
   3  -3   4 2873.75  160.36   1
   3   3   4 2934.56  187.87   1
   3   3   5 1178.15  127.51   1
   3  -3   5 1119.57  112.56   1
   3   3   5 1136.49  137.29   1
   3   3   6 2262.05  181.02   1
   3   3   6 1824.28  157.80   1
   3  -3   6 1979.87  157.10   1
   3   3   7  412.38  106.36   1
   3  -3   7  602.99  106.81   1
   3   3   7  394.06   96.05   1
   3   3   8  852.00  140.70   1
   3  -3   8  871.25  138.55   1
   3   3   8  592.10  115.51   1
   3  -3   9  839.86  154.58   1
   3   3   9  919.20  157.50   1
   3   3  10 1616.89  204.20   1
  -3  -5   9  567.58  166.44   1
  -3   5   9  613.73  149.91   1
  -3  -5   9  929.71  174.03   1
  -3  -5   8  302.38  123.01   1
  -3   5   8  127.43   96.03   1
  -3  -5   8  309.61  109.63   1
  -3  -5   7 1586.80  160.28   1
  -3  -5   7 1596.29  187.78   1
  -3   5   7 1434.21  185.12   1
  -3  -5   6  994.74  139.46   1
  -3  -5   6  653.69  102.54   1
  -3   5   6  996.15  153.43   1
  -3  -5   5 2059.82  147.19   1
  -3   5   5 1865.12  190.16   1
  -3  -5   5 1873.66  168.51   1
  -3  -5   4  549.23   91.62   1
  -3  -5   4  640.13   82.33   1
  -3   5   4  603.84  127.52   1
  -3   5   3 3078.01  244.30   1
  -3   5   3 3033.11  158.79   1
  -3  -5   3 2995.14  146.17   1
  -3  -5   3 2970.89  183.20   1
  -3   5   2 2442.93  216.32   1
  -3  -5   2 2378.72  121.97   1
  -3  -5   2 2323.22  160.28   1
  -3   5   2 2282.36  146.38   1
  -3  -5   1  559.93   68.11   1
  -3  -5   1  657.67   90.59   1
  -3  -5   0  163.54   60.38   1
  -3   5   0  258.74   77.50   1
   3   5   0  224.57   72.51   1
  -3  -5  -1 4285.30  209.19   1
   3   5   1 3973.89  220.22   1
   3   5   2 1723.23  158.19   1
  -3  -5  -2 1914.32  149.71   1
   3  -5   3 1648.92  139.26   1
   3   5   3 1909.17  177.04   1
  -3  -5  -3 1810.43  160.08   1
  -3  -5  -4  656.36  114.12   1
   3  -5   4  707.40  102.30   1
   3   5   4  829.58  129.99   1
   3   5   5 1463.90  178.84   1
   3  -5   5 1198.57  132.87   1
  -3  -5  -5 1166.68  150.65   1
   3  -5   6  849.89  132.61   1
   3   5   6  850.88  153.05   1
   3  -5   7  801.48  133.40   1
   3   5   7  751.21  160.52   1
   3  -5   8   94.16  102.98   1
   3   5   8   85.72  125.30   1
  -3  -7   6  976.37  168.90   1
  -3   7   6  812.81  173.86   1
  -3  -7   5  226.43  114.57   1
  -3   7   5  202.36  128.33   1
  -3  -7   4 1334.53  170.10   1
  -3   7   4 1525.89  212.60   1
  -3  -7   3  717.40  127.01   1
  -3   7   3  551.34  158.70   1
  -3  -7   2 2681.41  212.31   1
  -3  -7   1  -32.06   79.81   1
  -3   7   1   18.90   81.38   1
  -3  -7   0  741.21  120.28   1
  -3  -7  -1  952.71  134.83   1
  -3  -7  -2 2069.69  197.04   1
   3   7   2 1979.33  224.85   1
   3  -7   3  248.54   95.24   1
  -3  -7  -3  184.31  100.93   1
   3   7   3  243.23  122.81   1
   3  -7   4 1720.94  179.48   1
   3   7   4 1694.53  219.11   1
  -3  -7  -4 1856.26  205.30   1
  -3  -7  -5  307.32  133.01   1
   3  -7   5  399.14  109.69   1
   3   7   5  303.04  141.67   1
  -4   0  11   12.56  123.51   1
  -4   0  10 3961.14  296.79   1
  -4   0   9  -38.77  104.23   1
  -4   0   8 4837.58  233.31   1
  -4   0   8 5782.73  318.59   1
  -4   0   7   13.77   83.89   1
  -4   0   7   40.06   61.73   1
  -4   0   612356.80  344.81   1
  -4   0   612760.30  419.57   1
  -4   0   612400.90  382.16   1
  -4   0   5   43.72   84.19   1
  -4   0   5   48.60   61.53   1
  -4   0   5   47.44   62.32   1
  -4   0   5   10.93   52.22   1
  -4   0   4 4161.88  219.56   1
  -4   0   4 4664.74  243.94   1
  -4   0   4 4031.14  166.40   1
  -4   0   4 4232.08  171.30   1
  -4   0   3    7.38   33.31   1
  -4   0   3   50.71   84.13   1
  -4   0   3   22.51   37.10   1
  -4   0   3   10.23   68.08   1
  -4   0   219782.30  506.43   1
  -4   0   220920.90  300.72   1
  -4   0   220615.70  243.38   1
  -4   0   1   10.42   19.74   1
  -4   0   1  -30.26   77.14   1
  -4   0   013605.40  177.73   1
  -4   0   013675.20  345.63   1
   4   0   1    0.36   21.21   1
  -4   0  -1   32.70   55.06   1
  -4   0  -212322.30  316.40   1
   4   0   212475.70  208.57   1
   4   0   3   13.95   33.98   1
  -4   0  -3   -1.82   56.22   1
   4   0   4 5683.61  197.23   1
  -4   0  -4 6177.67  251.70   1
   4   0   5   -9.63   59.04   1
  -4   0  -5  -53.25   75.53   1
   4   0   611865.60  305.51   1
   4   0   612125.50  382.96   1
   4   0   7   47.88   92.36   1
   4   0   7   16.95   55.96   1
   4   0   8 2392.35  229.67   1
   4   0   9   37.99  124.46   1
   4   0  10 2512.47  276.61   1
  -4  -2  11   39.97  157.41   1
  -4   2  11   12.43   97.93   1
  -4   2  10   26.08   92.82   1
  -4   2  10   47.38   84.33   1
  -4  -2  10   23.91  140.29   1
  -4  -2   9  -40.02  114.90   1
  -4   2   9   19.27   90.67   1
  -4   2   9   19.11   83.93   1
  -4  -2   8   32.46  106.67   1
  -4   2   8   43.43   78.13   1
  -4  -2   8  133.90   96.46   1
  -4   2   8  -18.03   83.71   1
  -4  -2   7  204.39   81.26   1
  -4   2   7   89.19   82.51   1
  -4  -2   7   68.58   91.19   1
  -4   2   7  102.36   81.23   1
  -4  -2   6   22.14   66.59   1
  -4   2   6  111.76   94.13   1
  -4   2   6   30.85   73.30   1
  -4  -2   6  111.70   83.99   1
  -4   2   5 1325.94  143.90   1
  -4   2   5  936.95  103.55   1
  -4  -2   5 1222.18  111.17   1
  -4  -2   5 1172.88  127.24   1
  -4   2   5 1400.45  170.16   1
  -4  -2   4   94.29   47.83   1
  -4   2   4   70.48   75.07   1
  -4  -2   4  104.10   63.21   1
  -4   2   4   27.43   46.44   1
  -4  -2   3 1204.34  142.64   1
  -4   2   3 1296.86  105.88   1
  -4   2   3 1278.05  127.58   1
  -4  -2   3 1230.66   90.49   1
  -4  -2   3 1273.64  102.33   1
  -4  -2   2   58.54   34.09   1
  -4   2   2   87.11   52.08   1
  -4  -2   2  117.08   48.33   1
  -4   2   2  125.61   53.63   1
  -4  -2   2  146.93   83.75   1
  -4  -2   1  391.63   50.19   1
  -4   2   1  399.72   59.58   1
  -4  -2   1  344.81  105.06   1
  -4   2   1  477.94   74.49   1
  -4  -2   0  186.22   43.24   1
  -4   2   0  157.14   39.79   1
  -4  -2   0  226.64  100.21   1
  -4   2   0  128.59   55.88   1
  -4  -2  -1   53.34   83.06   1
  -4   2  -1   84.93   31.54   1
  -4  -2  -1   43.93   38.39   1
  -4   2  -1  111.59   53.22   1
  -4  -2  -2   90.16   72.72   1
  -4   2  -2   55.43   54.00   1
   4   2   2   77.38   55.73   1
   4   2   3  204.83   77.27   1
   4  -2   3  254.16   57.23   1
  -4  -2  -3  304.11   76.33   1
  -4   2  -3  189.75   77.07   1
   4   2   4   39.31   69.05   1
   4  -2   4   95.18   51.87   1
  -4   2  -4  178.20   81.61   1
   4   2   5  368.90   85.71   1
   4   2   5  527.93   89.25   1
   4  -2   5  393.26   71.95   1
  -4   2  -5  609.36  118.14   1
   4   2   6   47.00   75.31   1
   4   2   6  -16.82   65.33   1
  -4   2  -6   79.48   89.55   1
   4  -2   6   62.38   58.48   1
   4   2   7  687.30  120.64   1
   4   2   7  901.58  125.31   1
   4  -2   7  906.48  118.85   1
  -4   2  -7  748.05  149.08   1
   4   2   8   30.12   99.04   1
   4  -2   8  107.11   89.73   1
   4   2   8  -41.60   87.65   1
   4   2   9   25.75  104.21   1
   4  -2   9   47.11  108.42   1
  -4   4  10 2980.91  262.45   1
  -4  -4  10 2259.52  252.76   1
  -4  -4  10 2576.19  274.78   1
  -4  -4   9   20.32  115.60   1
  -4   4   9   -8.18   99.64   1
  -4  -4   9  112.82  132.02   1
  -4   4   8 3269.27  252.67   1
  -4  -4   8 3594.40  276.95   1
  -4  -4   8 3310.91  263.43   1
  -4  -4   7   57.62   88.53   1
  -4   4   7   20.74   85.01   1
  -4  -4   7    7.76   83.52   1
  -4   4   6 7861.97  359.11   1
  -4  -4   6 7814.79  307.18   1
  -4  -4   6 7578.74  322.00   1
  -4  -4   5   47.15   58.30   1
  -4  -4   5    8.45   63.72   1
  -4   4   5   -6.41   84.92   1
  -4  -4   4 2655.11  141.08   1
  -4   4   4 2841.62  218.78   1
  -4  -4   4 2765.06  169.43   1
  -4   4   4 2881.37  154.23   1
  -4  -4   3    3.49   49.41   1
  -4  -4   3   -5.26   41.42   1
  -4   4   3   -4.72   91.11   1
  -4   4   3   54.23   50.05   1
  -4   4   211075.40  393.60   1
  -4  -4   211699.50  216.45   1
  -4  -4   211959.00  315.23   1
  -4   4   211291.80  308.76   1
  -4  -4   1   13.70   50.06   1
  -4   4   1   10.08   68.86   1
  -4   4   1   12.03   58.61   1
  -4  -4   1    3.96   25.48   1
  -4  -4   0 7771.37  256.56   1
  -4   4   0 7402.50  274.90   1
  -4   4   0 7956.66  256.90   1
  -4  -4  -1   67.95   55.78   1
  -4   4  -1   18.23   35.60   1
  -4  -4  -2 7136.18  262.02   1
  -4  -4  -3  101.81   63.23   1
   4  -4   3   29.45   51.76   1
   4   4   3   52.80   66.48   1
   4   4   4 3772.88  227.47   1
   4  -4   4 3841.43  200.93   1
   4  -4   5   -9.26   61.81   1
   4   4   5  -14.31   74.67   1
   4   4   6 7703.41  354.72   1
   4  -4   6 8030.76  327.12   1
   4  -4   7    9.75   78.01   1
   4   4   7  -46.41  100.31   1
   4   4   8 1748.40  206.66   1
   4  -4   8 1469.98  180.47   1
  -4   4  -8 1785.30  260.49   1
   4   4   9  -52.60  141.34   1
  -4  -6   8  242.26  139.93   1
  -4  -6   7   -5.61  120.93   1
  -4   6   7  -66.31  105.43   1
  -4  -6   6  181.55  109.59   1
  -4   6   6  144.78  108.67   1
  -4  -6   5  439.64  114.34   1
  -4   6   5  438.58  120.37   1
  -4  -6   4  226.60   88.99   1
  -4   6   4  263.46  128.52   1
  -4   6   3  351.55  131.74   1
  -4  -6   3  313.62   90.51   1
  -4  -6   2  413.92   90.25   1
  -4   6   2  451.86   90.46   1
  -4   6   2  167.78  123.95   1
  -4  -6   1  133.82   73.70   1
  -4   6   1   44.44   97.22   1
  -4   6   1   67.82   75.43   1
  -4  -6   0  585.01  103.60   1
   4   6   0  561.53  112.09   1
  -4   6   0  454.65  100.42   1
  -4  -6  -1   60.19   65.62   1
   4   6   1   50.51   83.05   1
  -4  -6  -2  214.31   82.58   1
   4   6   2  289.99  102.33   1
  -4  -6  -3   93.81   83.14   1
   4  -6   3   31.84   80.28   1
   4   6   3  180.13   93.74   1
   4  -6   4  254.78   91.17   1
  -4  -6  -4  418.27  117.25   1
   4   6   4  224.72  115.02   1
  -4  -6  -5  100.04   96.90   1
   4  -6   5  305.27   95.23   1
   4   6   5  140.89  124.98   1
   4  -6   6  306.21  101.81   1
  -4  -6  -6  261.57  123.91   1
   4   6   6  267.01  126.38   1
  -4  -8   3    5.94  143.75   1
  -4  -8   2 3644.02  279.35   1
  -4  -8   1  -52.89  125.71   1
  -4   8   0 2205.02  224.05   1
  -4  -8   0 2153.07  221.23   1
  -4  -8  -1  -45.81  133.04   1
  -4   8  -1   64.01  138.61   1
  -4  -8  -2 1537.30  216.56   1
  -5  -1  11  605.98  159.57   1
  -5   1  11  388.71  114.39   1
  -5  -1  10 1402.65  195.03   1
  -5   1  10 1078.99  155.17   1
  -5   1   9 2465.90  195.25   1
  -5  -1   9 2462.56  232.08   1
  -5   1   9 2416.55  211.62   1
  -5  -1   8  291.81  116.59   1
  -5   1   8  216.53   80.60   1
  -5  -1   8  208.62   96.33   1
  -5   1   8  346.97   99.20   1
  -5  -1   7  448.29   99.51   1
  -5  -1   7  634.81  124.57   1
  -5   1   7  428.10   98.45   1
  -5   1   7  521.35   77.21   1
  -5   1   7  469.79  105.26   1
  -5  -1   7  495.49   79.81   1
  -5  -1   6 3470.39  230.55   1
  -5   1   6 2953.17  165.56   1
  -5  -1   6 3494.43  201.13   1
  -5   1   6 3267.00  208.12   1
  -5  -1   6 3281.30  161.43   1
  -5   1   6 3119.09  215.58   1
  -5  -1   5 4086.70  233.92   1
  -5  -1   5 4282.93  257.92   1
  -5   1   5 3680.83  198.01   1
  -5   1   5 3645.31  207.28   1
  -5  -1   5 3724.65  158.17   1
  -5  -1   5 3691.24  177.12   1
  -5   1   5 3470.60  226.54   1
  -5  -1   4 1746.35  156.26   1
  -5  -1   4 1770.89  178.26   1
  -5   1   4 1961.75  171.47   1
  -5   1   4 1662.40  120.02   1
  -5  -1   4 1573.52   98.70   1
  -5  -1   4 1643.58  109.21   1
  -5   1   4 1605.24  155.96   1
  -5   1   4 1807.96  138.59   1
  -5  -1   3 3596.96  185.26   1
  -5  -1   3 3706.07  243.49   1
  -5   1   3 3716.71  213.10   1
  -5   1   3 3352.78  133.92   1
  -5   1   3 3371.99  162.41   1
  -5  -1   3 3499.03  138.21   1
  -5   1   2 2788.27  176.01   1
  -5   1   2 2661.67   87.18   1
  -5   1   2 2448.26  127.14   1
  -5  -1   2 2529.01  218.22   1
  -5  -1   2 2592.71  109.77   1
  -5  -1   1 4242.73  131.54   1
  -5  -1   1 4295.14  295.57   1
  -5   1   1 4567.96  211.36   1
  -5   1   1 4613.21  158.76   1
  -5   1   1 4186.09   79.40   1
  -5   1   0 1243.27   47.20   1
  -5  -1   0 1165.92   75.23   1
  -5   1   0 1450.94  125.11   1
   5   1   0 1175.05   37.71   1
  -5  -1   0 1282.54  188.77   1
  -5  -1  -1 1566.57   95.43   1
   5   1   1 1382.96   56.64   1
  -5  -1  -1 1263.72  177.92   1
  -5   1  -1 1633.46  136.84   1
   5   1   2 5191.58  142.34   1
  -5  -1  -2 5092.35  287.85   1
  -5   1  -2 5241.27  236.99   1
   5  -1   2 5284.67  162.24   1
   5   1   3 6615.76  199.36   1
  -5  -1  -3 6447.12  304.78   1
  -5   1  -3 6371.87  268.67   1
   5  -1   3 6132.54  190.93   1
  -5  -1  -4  480.99  103.23   1
   5   1   4  387.23   81.41   1
  -5   1  -4  423.27   96.58   1
   5  -1   4  392.48   65.05   1
   5   1   5 1191.34  127.97   1
   5  -1   5 1212.47  110.25   1
  -5   1  -5 1460.48  159.30   1
   5   1   6 1114.99  141.49   1
   5  -1   6 1592.78  140.85   1
  -5   1  -6 1544.80  175.13   1
   5   1   7 1404.55  171.87   1
   5   1   7 1450.19  138.13   1
   5  -1   7 1630.70  161.81   1
   5   1   8  670.68  116.08   1
   5  -1   8  746.77  142.14   1
   5   1   8  578.32  132.72   1
   5  -1   9 1213.28  187.10   1
   5  -1  10  502.52  175.42   1
  -5   3  11  297.41  138.65   1
  -5  -3  11  257.40  197.52   1
  -5  -3  10 1665.38  224.92   1
  -5  -3  10 1475.67  225.51   1
  -5   3  10 1256.96  171.04   1
  -5   3   9 1975.32  202.63   1
  -5  -3   9 1394.06  204.79   1
  -5  -3   9 1649.07  211.32   1
  -5  -3   8  494.06  129.40   1
  -5  -3   8  241.48  112.57   1
  -5   3   8  383.88  115.79   1
  -5  -3   7  247.87   92.77   1
  -5   3   7  250.39   92.51   1
  -5  -3   7  172.70   96.99   1
  -5   3   6 3408.38  238.75   1
  -5  -3   6 3245.59  218.24   1
  -5  -3   6 3981.72  225.88   1
  -5  -3   5 2580.86  176.09   1
  -5   3   5 2328.98  194.84   1
  -5   3   5 2205.61  154.10   1
  -5  -3   5 2514.59  167.49   1
  -5  -3   4 1936.20  137.43   1
  -5   3   4 1660.29  128.35   1
  -5   3   4 1907.76  179.91   1
  -5  -3   4 2051.10  139.64   1
  -5   3   3 1583.85  155.62   1
  -5  -3   3 1717.80  115.39   1
  -5   3   3 1669.29  130.05   1
  -5  -3   3 1431.11  111.64   1
  -5  -3   2 2285.86  110.12   1
  -5   3   2 2701.30  175.52   1
  -5  -3   2 2505.73  137.93   1
  -5   3   2 2482.36  158.68   1
  -5  -3   1 2694.95  216.05   1
  -5   3   1 2488.88  162.28   1
  -5  -3   1 2393.76  133.34   1
  -5   3   1 2371.09  144.41   1
  -5  -3   0 1751.96  119.91   1
  -5   3   0 1742.64  114.98   1
  -5  -3   0 1837.38  170.36   1
  -5   3   0 1834.18  146.02   1
  -5  -3  -1  606.34   83.87   1
  -5  -3  -1  707.19  110.30   1
  -5   3  -1  570.43  105.06   1
  -5   3  -1  622.19   67.35   1
  -5  -3  -2 4893.66  210.11   1
  -5  -3  -2 4535.65  207.63   1
  -5   3  -2 4855.60  251.08   1
  -5   3  -3 3665.72  232.71   1
   5  -3   3 3764.09  179.36   1
   5  -3   4  582.03   87.19   1
  -5   3  -4  584.30  118.55   1
   5  -3   5  580.77   93.42   1
  -5   3  -5  618.72  133.47   1
   5   3   5  614.77  104.77   1
   5   3   6 1410.55  151.51   1
   5  -3   6 1613.95  151.10   1
  -5   3  -6 1561.70  200.19   1
   5  -3   7  988.38  136.68   1
   5   3   7  962.62  143.26   1
  -5   3  -7  938.37  174.79   1
   5  -3   8 1212.00  160.04   1
   5   3   8  861.05  147.65   1
   5  -3   9  621.75  154.24   1
   5   3   9  611.68  149.62   1
  -5  -5   9 1739.50  238.71   1
  -5   5   9 1343.60  184.02   1
  -5  -5   8   30.05  121.49   1
  -5   5   8   55.03  114.98   1
  -5  -5   7  477.41  121.71   1
  -5   5   7  471.87  125.01   1
  -5   5   6 1079.24  158.29   1
  -5  -5   6 1211.00  155.49   1
  -5   5   5 2511.17  227.84   1
  -5  -5   5 2336.35  188.69   1
  -5  -5   4  412.22   89.36   1
  -5   5   4  516.73  123.59   1
  -5   5   3 2223.55  163.75   1
  -5   5   3 2475.24  226.35   1
  -5  -5   3 2505.19  179.69   1
  -5   5   2  910.32  143.84   1
  -5   5   2  874.44  114.07   1
  -5  -5   2  891.94  111.16   1
  -5  -5   1 2622.47  180.18   1
  -5   5   1 2124.79  171.09   1
  -5   5   1 2642.39  197.73   1
  -5  -5   0  200.93   71.71   1
  -5   5   0  290.77   80.09   1
  -5   5   0  169.43   77.16   1
  -5  -5  -1 1302.10  136.45   1
  -5   5  -1  999.96  138.67   1
  -5  -5  -2 1703.16  154.80   1
   5   5   2 2162.81  182.41   1
  -5   5  -2 1837.55  181.36   1
  -5  -5  -3 4117.80  241.72   1
   5   5   3 3801.61  246.95   1
  -5   5  -3 3565.98  255.33   1
   5  -5   3 3856.90  218.51   1
  -5  -5  -4  126.82   88.86   1
   5  -5   4   85.86   77.94   1
   5   5   4   43.30   88.81   1
  -5   5  -4   55.47  107.02   1
  -5  -5  -5 1069.14  156.21   1
   5  -5   5  839.02  122.94   1
   5   5   5  977.03  150.01   1
  -5   5  -5  944.63  181.61   1
   5  -5   6  526.55  119.91   1
  -5  -5  -6  526.87  130.57   1
   5   5   6  525.95  134.05   1
  -5   5  -6  880.49  201.89   1
   5  -5   7 1290.98  165.95   1
   5   5   7 1058.00  173.43   1
  -5   5  -7  893.85  206.78   1
  -5  -7   5  711.48  155.02   1
  -5   7   5  717.16  151.12   1
  -5   7   4 1407.18  223.34   1
  -5  -7   4 1306.88  178.78   1
  -5  -7   3  354.05  111.61   1
  -5   7   3  486.35  177.04   1
  -5  -7   2 1050.39  156.29   1
  -5  -7   1  602.99  126.49   1
  -5   7   1  443.79  111.70   1
  -5  -7   0  716.68  129.07   1
  -5   7   0 1008.13  154.29   1
  -5  -7  -1   73.97   96.26   1
   5   7   1   38.19  129.54   1
  -5   7  -1  269.57  113.02   1
  -5  -7  -2 2093.25  216.58   1
   5   7   2 1952.13  221.47   1
  -5   7  -2 2314.99  226.31   1
  -5  -7  -3  860.38  158.21   1
   5  -7   3 1013.88  156.11   1
   5   7   3  711.87  156.54   1
  -5   7  -3  771.75  157.82   1
  -5  -7  -4  575.75  153.16   1
   5   7   4  428.70  144.64   1
  -6   0  11    4.64  110.37   1
  -6   0  10  271.80  105.24   1
  -6   0   9   20.50   92.79   1
  -6   0   8  123.08   71.39   1
  -6   0   8  173.87   91.72   1
  -6   0   7  -10.68   73.58   1
  -6   0   7  -27.08   73.35   1
  -6   0   7   13.36   62.17   1
  -6   0   7  -17.50   81.48   1
  -6   0   6    1.39   59.51   1
  -6   0   6  -12.14   63.99   1
  -6   0   6  -12.34   68.82   1
  -6   0   6   13.00   82.55   1
  -6   0   5    6.62   50.33   1
  -6   0   5   57.36   58.45   1
  -6   0   5  -29.25   81.45   1
  -6   0   5  -11.36   83.51   1
  -6   0   4  320.98   58.45   1
  -6   0   4  304.48   68.94   1
  -6   0   4  328.10  108.03   1
  -6   0   4  279.89   83.63   1
  -6   0   3   -2.37   32.47   1
  -6   0   3    2.02   44.41   1
  -6   0   3   -7.89  110.05   1
  -6   0   2  816.20  152.91   1
  -6   0   2  949.12   64.89   1
  -6   0   1    4.03   23.25   1
  -6   0   1   98.23   87.29   1
  -6   0   0 1895.08   84.67   1
  -6   0   0 1909.82  177.35   1
  -6   0  -1   27.75   33.07   1
   6   0   1    6.86   26.75   1
  -6   0  -1   16.80   83.07   1
   6   0   2   70.02   32.88   1
  -6   0  -2  104.37   82.11   1
   6   0   3    9.13   37.05   1
  -6   0  -3   36.51   95.87   1
   6   0   4  110.16   48.84   1
  -6   0  -4   36.34   94.92   1
   6   0   5   23.79   59.23   1
  -6   0  -5  101.86  108.65   1
   6   0   6   73.38   71.19   1
   6   0   7   13.40   99.62   1
   6   0   8  459.54  133.20   1
  -6  -2  11 1431.42  210.91   1
  -6   2  11  210.00  120.24   1
  -6  -2  10  -39.62  131.01   1
  -6   2  10   81.94   97.00   1
  -6   2  10  -47.19   89.63   1
  -6   2   9 5479.67  302.11   1
  -6  -2   9 5910.76  353.35   1
  -6  -2   9 5539.77  340.89   1
  -6   2   9 5468.97  305.98   1
  -6  -2   8  -10.50   89.32   1
  -6  -2   8  -39.82   99.96   1
  -6   2   8   15.26   83.54   1
  -6   2   8   32.89   89.15   1
  -6   2   7 5209.51  288.73   1
  -6  -2   7 5080.02  291.87   1
  -6  -2   7 5317.19  283.11   1
  -6  -2   6   28.60   59.80   1
  -6  -2   6    0.83   91.43   1
  -6   2   6   39.48   78.41   1
  -6   2   6   10.04   74.66   1
  -6  -2   5 8119.15  318.01   1
  -6  -2   5 8542.30  400.30   1
  -6   2   5 7866.17  317.31   1
  -6  -2   5 7814.79  273.91   1
  -6   2   5 7474.81  324.00   1
  -6  -2   4   -9.29   79.26   1
  -6  -2   4    9.11   51.45   1
  -6   2   4   13.88   68.46   1
  -6  -2   4   35.37  108.21   1
  -6   2   4  100.72   73.12   1
  -6  -2   3 4960.88  183.48   1
  -6  -2   3 5242.19  326.30   1
  -6   2   3 4820.05  234.06   1
  -6   2   3 4933.68  228.37   1
  -6  -2   3 4828.90  185.03   1
  -6  -2   2   11.63   40.21   1
  -6   2   2    0.07   52.25   1
  -6  -2   2   38.62  118.61   1
  -6   2   2   16.18   67.43   1
  -6  -2   116747.80  315.04   1
  -6  -2   117118.40  614.09   1
  -6   2   118171.90  447.68   1
  -6   2   117105.60  348.89   1
  -6   2   0   13.74   36.92   1
  -6  -2   0   43.69   43.97   1
  -6  -2   0   -5.40  136.57   1
  -6   2   0   40.31   72.19   1
  -6  -2  -1 5261.24  198.14   1
  -6  -2  -1 5244.34  356.68   1
  -6   2  -1 5042.32  256.15   1
  -6  -2  -2   42.83   54.05   1
  -6  -2  -2   91.20  124.11   1
  -6   2  -2   59.66   82.51   1
  -6  -2  -3 7778.88  354.20   1
  -6   2  -3 7493.53  330.88   1
   6  -2   3 8324.21  256.38   1
   6  -2   4    6.90   53.32   1
  -6   2  -4   40.13   89.58   1
  -6   2  -5 5699.19  327.78   1
   6  -2   5 5276.88  235.23   1
   6  -2   6    1.32   63.00   1
  -6   2  -6  -71.30  109.30   1
   6   2   7 5535.88  286.69   1
   6  -2   7 5157.40  277.90   1
   6  -2   8  -36.61   97.02   1
   6   2   8   -8.79   98.28   1
   6  -2   9 1247.22  196.17   1
  -6  -4   9   54.03  122.07   1
  -6   4   9   57.32  106.23   1
  -6  -4   8  220.79  112.58   1
  -6   4   8  159.26   99.60   1
  -6  -4   7  194.82   89.43   1
  -6   4   7  209.61   96.37   1
  -6  -4   6   23.47   74.79   1
  -6   4   6   38.03   92.64   1
  -6  -4   5   98.46   60.91   1
  -6   4   5  100.63   96.41   1
  -6  -4   4  241.32   69.03   1
  -6   4   4  194.56   94.82   1
  -6   4   4  129.50   57.97   1
  -6  -4   3  320.29   68.99   1
  -6   4   3  264.92   94.39   1
  -6   4   3  251.38   79.77   1
  -6  -4   2  524.78   86.65   1
  -6   4   2  452.12   96.42   1
  -6   4   2  453.71   93.84   1
  -6  -4   1  169.74   63.97   1
  -6   4   1  265.96   76.54   1
  -6   4   1  236.14   84.30   1
  -6  -4   0 1240.52  122.95   1
  -6   4   0 1051.23  133.84   1
  -6   4   0 1113.08  106.63   1
  -6   4  -1  256.68   59.36   1
  -6  -4  -1  346.42   78.16   1
  -6   4  -1  337.95   95.65   1
  -6  -4  -2    6.76   63.63   1
  -6   4  -2   73.41   85.32   1
  -6  -4  -3  159.49   76.35   1
  -6   4  -3  102.11   99.38   1
   6  -4   3  154.19   69.29   1
  -6  -4  -4   85.90   74.56   1
  -6   4  -4   25.44   98.73   1
   6  -4   4   68.29   63.15   1
  -6  -4  -5  230.49   97.08   1
   6  -4   5  128.04   75.16   1
  -6   4  -5  221.35  126.43   1
   6   4   5  185.60   90.51   1
   6   4   6   43.68   91.00   1
  -6   4  -6  -24.34  141.23   1
   6  -4   6   97.06   75.65   1
   6  -4   7   75.31   87.69   1
   6   4   7  112.77  101.69   1
  -6   4  -7  195.09  165.94   1
  -6   6   7 2712.60  255.50   1
  -6  -6   7 2424.19  246.47   1
  -6  -6   6   64.35  107.33   1
  -6   6   6   24.71  110.94   1
  -6   6   5 3136.29  283.18   1
  -6  -6   5 3703.29  264.17   1
  -6  -6   4   -2.75   87.69   1
  -6   6   4  -28.87  119.28   1
  -6   6   3 2073.47  231.76   1
  -6  -6   3 2198.73  197.40   1
  -6  -6   2  -48.80   80.32   1
  -6   6   2   21.25  102.91   1
  -6   6   2    0.13   82.17   1
  -6   6   1 7271.29  341.89   1
  -6  -6   1 7372.46  336.41   1
  -6  -6   0   27.08   83.89   1
  -6   6   0   31.83   87.56   1
   6   6   0   -2.70   91.86   1
  -6  -6  -1 2259.53  200.83   1
   6   6   1 2264.39  208.47   1
  -6   6  -1 2343.18  211.18   1
  -6  -6  -2   29.78   91.01   1
  -6   6  -2   13.70  103.90   1
   6   6   2   53.92   96.77   1
  -6  -6  -3 3448.29  251.08   1
   6   6   3 3389.91  266.63   1
  -6   6  -3 3101.08  266.06   1
   6  -6   3 3428.81  238.19   1
   6  -6   4   18.93   92.40   1
  -6  -6  -4   54.73  100.46   1
   6   6   4   -8.39  112.66   1
  -6   6  -4   89.02  118.16   1
  -6  -6  -5 2780.96  257.92   1
   6   6   5 2646.08  256.24   1
  -6   6  -5 2806.64  293.60   1
   6  -6   5 2526.30  222.52   1
  -7  -1  11  638.26  136.70   1
  -7   1  11  558.95  126.72   1
  -7   1  10  747.86  127.56   1
  -7   1  10  728.79  134.02   1
  -7  -1  10  552.50  141.49   1
  -7   1   9  849.47  135.49   1
  -7  -1   9 1034.54  165.39   1
  -7   1   9 1047.96  142.43   1
  -7  -1   9 1041.61  156.08   1
  -7  -1   8 1590.25  174.82   1
  -7   1   8 1428.71  165.41   1
  -7  -1   8 1458.01  167.21   1
  -7   1   8 1472.36  165.02   1
  -7  -1   7  660.26  113.17   1
  -7  -1   7  741.66  105.02   1
  -7   1   7  593.84  113.05   1
  -7  -1   7  787.98  121.05   1
  -7   1   7  795.29  111.68   1
  -7   1   7  675.22  125.57   1
  -7  -1   7  761.91  126.40   1
  -7  -1   6  559.88   93.33   1
  -7   1   6  527.17  104.50   1
  -7  -1   6  587.83  122.35   1
  -7   1   6  429.90   95.20   1
  -7  -1   6  532.01   86.25   1
  -7  -1   6  648.51  113.01   1
  -7  -1   5 4474.22  282.58   1
  -7   1   5 3807.42  246.48   1
  -7  -1   5 3995.23  222.77   1
  -7   1   5 4087.37  191.63   1
  -7  -1   5 4017.63  190.49   1
  -7   1   5 3742.65  219.02   1
  -7  -1   4 4651.70  301.94   1
  -7   1   4 5013.79  306.53   1
  -7   1   4 4566.98  177.32   1
  -7  -1   4 4403.49  197.10   1
  -7   1   4 4363.07  216.49   1
  -7  -1   4 4332.21  180.25   1
  -7   1   3  533.35   83.99   1
  -7  -1   3  630.89  148.60   1
  -7   1   3  651.27  136.24   1
  -7   1   3  671.23   62.49   1
  -7  -1   3  613.00   70.74   1
  -7   1   2 1442.72  161.37   1
  -7  -1   2 1118.46  187.32   1
  -7   1   2 1195.36  105.83   1
  -7   1   2 1134.45   61.91   1
  -7  -1   2 1301.77   91.30   1
  -7  -1   1 2648.73  123.85   1
  -7  -1   1 2537.78  272.48   1
  -7   1   1 2792.27  213.30   1
  -7   1   1 2646.56   82.47   1
  -7   1   0 2525.79   84.14   1
  -7  -1   0 2404.85  121.12   1
  -7  -1   0 2960.14  302.43   1
  -7   1   0 2607.49  204.57   1
  -7  -1  -1 2074.43  121.37   1
  -7   1  -1 1988.91   86.74   1
  -7  -1  -1 1863.05  243.33   1
  -7   1  -1 1997.78  182.81   1
  -7  -1  -2 2003.60  131.04   1
  -7  -1  -2 1817.08  229.22   1
  -7   1  -2 1669.48  176.50   1
   7  -1   2 1849.16  111.91   1
  -7  -1  -3 2507.00  256.11   1
  -7   1  -3 2390.88  217.12   1
   7  -1   3 2362.64  133.70   1
  -7  -1  -4 2781.57  259.71   1
  -7   1  -4 3006.04  249.13   1
   7  -1   4 2915.12  156.61   1
   7  -1   5  366.87   76.05   1
  -7   1  -5  428.83  137.09   1
   7  -1   6  365.33   85.52   1
   7   1   7 1777.39  171.60   1
   7  -1   7 1506.52  166.40   1
   7  -1   8 1535.38  190.29   1
  -7  -3  10 1006.96  196.23   1
  -7   3  10  889.11  151.70   1
  -7  -3   9  497.28  139.18   1
  -7   3   9  636.84  136.58   1
  -7  -3   8 1726.76  188.51   1
  -7   3   8 1411.72  179.59   1
  -7  -3   7  294.55   97.84   1
  -7   3   7  434.35  118.99   1
  -7  -3   6  754.28  111.29   1
  -7   3   6  921.97  144.75   1
  -7   3   5 2250.53  189.60   1
  -7  -3   5 2145.01  158.47   1
  -7   3   5 1897.10  189.79   1
  -7  -3   4 4170.55  320.29   1
  -7   3   4 4201.40  240.97   1
  -7  -3   4 4180.54  203.97   1
  -7   3   4 4558.87  266.27   1
  -7  -3   3  265.38   64.71   1
  -7   3   3  354.71   88.26   1
  -7  -3   3  163.60  135.51   1
  -7   3   3  285.73   91.19   1
  -7  -3   2 1986.36  248.37   1
  -7   3   2 1810.01  165.81   1
  -7   3   2 1723.22  144.19   1
  -7  -3   2 1761.25  127.62   1
  -7  -3   1 1717.40  128.46   1
  -7  -3   1 1975.71  239.66   1
  -7   3   1 1578.16  162.74   1
  -7   3   1 1430.08  124.69   1
  -7  -3   0 2560.91  158.89   1
  -7  -3   0 2806.97  258.71   1
  -7   3   0 2874.80  216.65   1
  -7   3   0 2727.60  155.01   1
  -7  -3  -1  998.25  109.36   1
  -7  -3  -1 1118.15  160.04   1
  -7   3  -1  889.07  142.07   1
  -7  -3  -2 2361.28  162.30   1
  -7  -3  -2 2347.83  189.90   1
  -7   3  -2 2144.24  202.70   1
  -7  -3  -3 1279.90  132.94   1
  -7   3  -3 1485.36  184.16   1
   7  -3   3 1335.41  126.63   1
  -7  -3  -4 3181.92  213.07   1
  -7   3  -4 3452.61  279.68   1
   7  -3   4 3210.53  195.88   1
   7  -3   5  131.94   69.79   1
  -7   3  -5  122.95  118.26   1
   7  -3   6  688.66  118.68   1
  -7   3  -6  488.80  161.25   1
   7   3   6  691.88  124.89   1
   7  -3   7 1198.75  158.27   1
  -7   3  -7  928.20  196.27   1
   7   3   7  982.77  152.18   1
   7  -3   8 1661.74  199.15   1
   7   3   8 1082.74  171.82   1
  -7  -5   8  792.26  147.01   1
  -7   5   8  775.51  151.64   1
  -7  -5   7  726.02  132.92   1
  -7   5   7  753.68  158.98   1
  -7  -5   6  192.33   88.50   1
  -7   5   6  242.41  117.98   1
  -7   5   5 2949.82  261.48   1
  -7  -5   5 2624.61  207.30   1
  -7   5   4 1577.04  166.24   1
  -7  -5   4 1615.73  160.98   1
  -7   5   4 1755.73  202.63   1
  -7  -5   3  555.26  104.55   1
  -7   5   3  665.64  137.52   1
  -7   5   3  646.68  121.13   1
  -7  -5   2  414.87   98.39   1
  -7   5   2  425.27  111.31   1
  -7   5   2  467.55  111.76   1
  -7  -5   1 1626.21  160.53   1
  -7   5   1 1832.61  184.83   1
  -7   5   1 1553.62  155.50   1
  -7  -5   0 1213.11  140.78   1
  -7   5   0  799.64  138.06   1
  -7  -5  -1 1731.41  163.45   1
  -7   5  -1 1501.22  182.28   1
  -7  -5  -2  592.59  111.35   1
  -7   5  -2  497.22  135.10   1
  -7  -5  -3 1291.51  157.30   1
   7   5   3 1481.61  173.58   1
  -7   5  -3 1459.41  197.74   1
   7  -5   3 1550.16  159.21   1
  -7  -5  -4 1013.09  149.21   1
   7  -5   4 1096.24  143.92   1
  -7   5  -4 1057.93  191.06   1
   7   5   4  936.38  152.61   1
  -7  -5  -5  408.65  113.34   1
   7  -5   5  474.45  116.41   1
  -7   5  -5  475.17  164.77   1
   7   5   5  415.95  125.34   1
  -7   5  -6  209.70  189.96   1
  -7   7   4 2236.71  266.77   1
  -7  -7   3   57.92  108.69   1
  -7  -7   2 1269.77  174.89   1
  -7  -7   1  386.93  127.01   1
  -7   7   1  473.71  141.71   1
  -7  -7   0 1028.63  163.75   1
  -7   7   0 1089.56  172.11   1
  -7  -7  -1  182.91  110.02   1
   7   7   1   96.47  151.97   1
  -7   7  -1   95.02  127.10   1
   7   7   2 1572.58  212.42   1
  -8   0  11  -80.69  123.88   1
  -8   0  10 1836.55  185.87   1
  -8   0   9   17.71   93.68   1
  -8   0   9  -53.80   90.54   1
  -8   0   8 7481.43  318.83   1
  -8   0   8 7809.72  345.08   1
  -8   0   8 6749.21  324.18   1
  -8   0   7    6.52   77.09   1
  -8   0   7    4.11   75.27   1
  -8   0   7   19.88   68.27   1
  -8   0   7   16.31   80.97   1
  -8   0   6 3577.23  239.05   1
  -8   0   6 3375.42  196.90   1
  -8   0   6 3411.43  214.51   1
  -8   0   5   12.91   54.42   1
  -8   0   5   79.13   72.65   1
  -8   0   5   11.16   96.96   1
  -8   0   4 7300.64  387.74   1
  -8   0   4 7646.25  224.81   1
  -8   0   3    8.87   39.28   1
  -8   0   3  -26.90  126.97   1
  -8   0   2 7564.04  423.16   1
  -8   0   2 7219.38  188.47   1
  -8   0   1   -2.60   34.57   1
  -8   0   1   52.58  109.77   1
  -8   0   010896.20  227.48   1
  -8   0   010168.90  461.92   1
   8   0   1   19.31   30.53   1
  -8   0  -1   13.38   37.47   1
  -8   0  -1   33.30  122.48   1
  -8   0  -2 2963.15  147.19   1
  -8   0  -2 2432.67  252.18   1
  -8   0  -3   20.13  136.62   1
  -8   0  -4 8934.99  490.81   1
  -8  -2  10  -24.73  133.71   1
  -8   2  10    5.19  110.12   1
  -8  -2   9  188.35  110.40   1
  -8   2   9  342.41  108.08   1
  -8  -2   8   34.32   95.07   1
  -8   2   8  103.35   95.27   1
  -8  -2   7  720.60  129.98   1
  -8   2   7  794.31  134.35   1
  -8  -2   6   63.56   64.44   1
  -8   2   6   -3.64   86.49   1
  -8  -2   6    1.51  110.13   1
  -8   2   6   47.51   86.90   1
  -8  -2   5    9.99   55.91   1
  -8   2   5   10.58   80.10   1
  -8  -2   5  -13.92  104.90   1
  -8   2   5   94.77  101.76   1
  -8  -2   4   57.72   53.87   1
  -8   2   4    4.32   68.34   1
  -8  -2   4   77.17  122.53   1
  -8   2   4   71.41   95.38   1
  -8  -2   3   47.82   46.66   1
  -8   2   3   74.39   59.47   1
  -8  -2   3   75.04  114.49   1
  -8   2   3   33.96   89.42   1
  -8  -2   2  103.91   47.23   1
  -8   2   2   98.08   57.39   1
  -8  -2   2  130.05  126.00   1
  -8   2   2  188.28   90.54   1
  -8  -2   1   33.64   46.66   1
  -8  -2   1   63.74  154.17   1
  -8   2   1    9.27   90.53   1
  -8  -2   0   48.99   49.57   1
  -8  -2   0   69.09  151.41   1
  -8   2   0  109.81   82.06   1
  -8  -2  -1 1211.63  113.10   1
  -8   2  -1 1255.34  163.78   1
  -8  -2  -1 1111.77  212.92   1
   8  -2   2   52.78   53.02   1
  -8  -2  -2   49.16   60.46   1
  -8  -2  -2   17.90  140.14   1
  -8   2  -2  113.90   94.91   1
  -8  -2  -3  281.22   80.71   1
  -8  -2  -3  242.37  130.72   1
  -8   2  -3  507.14  137.33   1
   8  -2   3  306.44   73.23   1
   8  -2   4   46.41   60.04   1
  -8   2  -4   75.45  114.74   1
   8  -2   5  462.68   89.13   1
  -8   2  -5  103.46  127.81   1
   8  -2   6   63.20   80.13   1
  -8   2  -6   17.82  163.33   1
   8  -2   7   63.73  106.25   1
   8   2   7  109.03  102.59   1
   8   2   8  -87.87  141.29   1
   8  -2   8  104.77  149.00   1
  -8  -4   9  -23.34  130.04   1
  -8   4   9  -11.52  115.42   1
  -8  -4   8 5750.88  347.04   1
  -8   4   8 5175.56  330.62   1
  -8  -4   7    1.02   90.70   1
  -8   4   7  -85.52  104.20   1
  -8  -4   6 2288.37  195.60   1
  -8   4   6 2624.32  236.44   1
  -8  -4   5   22.87   63.88   1
  -8   4   5    8.66   96.20   1
  -8   4   5    6.43   96.74   1
  -8   4   4 4623.33  277.80   1
  -8   4   4 4878.35  302.94   1
  -8  -4   4 5443.73  261.50   1
  -8  -4   3   -6.99   60.38   1
  -8   4   3   26.41   79.24   1
  -8   4   3   50.86   77.77   1
  -8   4   2 5328.25  298.80   1
  -8   4   2 5163.07  274.23   1
  -8  -4   2 5102.23  247.36   1
  -8  -4   1   12.27   68.52   1
  -8   4   1   40.56   65.75   1
  -8  -4   1  100.63  126.99   1
  -8   4   1   28.24   92.62   1
  -8  -4   0 8272.84  320.49   1
  -8   4   0 8482.34  398.66   1
  -8   4   0 7824.92  286.68   1
  -8  -4  -1   25.62   69.07   1
  -8  -4  -1   21.73   83.38   1
  -8   4  -1   13.36  104.37   1
  -8  -4  -2 1978.23  171.66   1
  -8   4  -2 1985.45  222.59   1
   8  -4   3   -4.24   73.36   1
  -8  -4  -3    4.23   72.62   1
  -8   4  -3   17.99  123.69   1
  -8  -4  -4 5300.12  293.70   1
  -8   4  -4 5942.83  402.99   1
   8  -4   4 5428.65  278.76   1
   8  -4   5    9.38   88.25   1
  -8  -4  -5   88.95   93.53   1
  -8   4  -5   32.00  154.06   1
   8   4   5    5.13   97.22   1
  -8  -4  -6 2537.55  238.75   1
   8   4   6 2953.53  254.15   1
  -8   4  -6 2493.24  314.83   1
   8  -4   6 2632.68  220.95   1
  -8   6   6  256.78  137.86   1
  -8  -6   5  -39.09   98.42   1
  -8   6   5   19.13  134.11   1
  -8  -6   4  253.90  100.08   1
  -8   6   4  218.89  132.02   1
  -8  -6   3   25.86   89.55   1
  -8   6   3   79.33  126.79   1
  -8   6   3  -27.63  117.78   1
  -8  -6   2  380.13  114.78   1
  -8   6   2  423.33  117.83   1
  -8   6   2  536.43  134.61   1
  -8  -6   1   45.02   93.81   1
  -8   6   1   21.12  109.23   1
  -8  -6   0  332.27  106.35   1
  -8   6   0  263.35  112.79   1
  -8  -6  -1  428.13  112.98   1
  -8   6  -1  194.83  114.15   1
   8   6   1  631.30  142.78   1
  -8  -6  -2  107.94   97.10   1
  -8   6  -2   62.26  125.95   1
   8   6   2  275.67  119.89   1
  -8  -6  -3  155.16  103.56   1
  -8   6  -3  166.64  139.10   1
   8   6   3  130.37  122.82   1
   8  -6   3  144.99  103.50   1
  -9   1  10  274.23  120.48   1
  -9  -1   9  579.90  134.29   1
  -9   1   9  429.85  115.44   1
  -9  -1   8 1030.53  145.19   1
  -9   1   8  982.34  156.03   1
  -9  -1   8  957.18  141.88   1
  -9  -1   7 1325.86  160.96   1
  -9   1   7 1190.12  151.85   1
  -9  -1   7 1429.82  154.64   1
  -9   1   7 1438.46  173.13   1
  -9  -1   6  750.75  107.61   1
  -9   1   6  775.26  128.67   1
  -9  -1   6 1005.91  164.35   1
  -9   1   6  861.28  144.89   1
  -9  -1   5 1889.58  215.74   1
  -9   1   5 1511.20  155.73   1
  -9  -1   5 1708.04  134.88   1
  -9  -1   4 1929.73  219.90   1
  -9   1   4 1819.32  233.99   1
  -9   1   4 2399.68  178.27   1
  -9  -1   4 2102.75  137.10   1
  -9  -1   3 3369.37  297.91   1
  -9   1   3 3761.00  296.68   1
  -9  -1   3 3882.94  173.93   1
  -9  -1   2  242.91   54.80   1
  -9  -1   2  484.84  156.02   1
  -9   1   2  223.64  105.57   1
  -9  -1   1  581.45   73.67   1
  -9  -1   1  937.42  203.82   1
  -9   1   1  633.83  148.31   1
  -9  -1   0 2616.10  140.72   1
  -9  -1   0 2473.78  324.06   1
  -9   1   0 2567.28  239.33   1
  -9  -1  -1 2918.05  154.97   1
  -9  -1  -1 2987.85  349.03   1
  -9   1  -1 2970.24  263.77   1
   9  -1   1 3099.36  150.82   1
  -9  -1  -2  657.07   88.01   1
   9  -1   2  810.19   84.63   1
  -9  -1  -2  388.52  194.02   1
  -9   1  -2  720.66  161.60   1
  -9  -1  -3 1741.40  143.30   1
  -9   1  -3 2087.81  245.23   1
  -9  -1  -3 2128.57  309.33   1
  -9   1  -4  825.94  191.12   1
  -9   1  -5 1581.42  263.12   1
  -9  -3   9  465.72  140.31   1
  -9   3   9  374.79  112.75   1
  -9  -3   8 1224.73  175.21   1
  -9   3   8 1114.96  169.53   1
  -9  -3   7  961.23  148.16   1
  -9   3   7  970.37  157.63   1
  -9   3   6 1131.10  166.43   1
  -9   3   6 1603.20  192.52   1
  -9  -3   6 1275.97  147.06   1
  -9  -3   5  762.70  110.36   1
  -9   3   5  688.37  137.63   1
  -9  -3   5  947.28  178.16   1
  -9   3   5  847.16  151.62   1
  -9  -3   4 1737.47  242.04   1
  -9   3   4 2032.42  212.39   1
  -9   3   4 1889.67  188.30   1
  -9  -3   4 2024.66  157.85   1
  -9  -3   3 2539.07  282.60   1
  -9   3   3 2406.38  219.42   1
  -9   3   3 2462.70  197.52   1
  -9  -3   3 2522.18  170.76   1
  -9  -3   2  540.56   92.63   1
  -9   3   2  483.19   94.10   1
  -9  -3   2  505.83  183.83   1
  -9   3   2  542.05  122.23   1
  -9  -3   1  403.30   84.32   1
  -9  -3   1  282.36  149.05   1
  -9   3   1  390.01  124.90   1
  -9  -3   0 2771.46  183.24   1
  -9  -3   0 2792.65  291.01   1
  -9   3   0 2731.53  243.97   1
  -9  -3  -1 2229.74  171.15   1
  -9  -3  -1 2103.52  239.26   1
  -9   3  -1 1814.69  211.61   1
  -9  -3  -2  968.42  124.11   1
  -9  -3  -2 1060.36  172.54   1
   9  -3   2 1125.13  121.18   1
  -9   3  -2  906.04  175.95   1
  -9  -3  -3  901.93  126.85   1
   9  -3   3  886.69  119.18   1
  -9   3  -3  783.65  176.57   1
  -9  -3  -4  787.79  123.69   1
   9  -3   4  827.35  120.09   1
  -9   3  -4  679.95  181.89   1
  -9  -3  -5  992.75  153.53   1
  -9   3  -5 1137.55  221.79   1
   9  -3   5  832.87  122.84   1
  -9  -3  -6  503.25  136.43   1
   9  -3   6  257.50  112.09   1
  -9   3  -6  618.40  220.88   1
  -9  -5   7 1203.52  165.58   1
  -9   5   7 1355.45  196.35   1
  -9  -5   6  239.57  103.08   1
  -9   5   6  470.49  133.26   1
  -9   5   5 1025.39  179.84   1
  -9  -5   5 1481.44  172.05   1
  -9  -5   4  754.98  125.33   1
  -9   5   4  868.43  163.38   1
  -9   5   4  792.31  146.13   1
  -9   5   3 2470.05  235.85   1
  -9   5   3 2402.64  230.80   1
  -9  -5   3 2387.91  204.47   1
  -9  -5   2   15.64   85.44   1
  -9   5   2   54.96   93.24   1
  -9   5   2   51.01  113.90   1
  -9  -5   1  939.45  146.55   1
  -9   5   1  757.32  129.20   1
  -9   5   1  762.24  149.91   1
  -9  -5   0 1025.05  154.95   1
  -9   5   0 1187.31  188.65   1
  -9  -5  -1 2298.70  202.19   1
  -9   5  -1 2259.80  247.81   1
  -9  -5  -2  219.64   98.78   1
   9  -5   2  256.83   96.95   1
  -9   5  -2  384.31  147.49   1
  -9  -5  -3 1218.11  165.28   1
   9  -5   3 1498.39  173.52   1
  -9   5  -3 1517.42  239.35   1
  -9  -5  -4  119.63  106.46   1
   9  -5   4  195.20  108.85   1
  -9   5  -4  426.01  174.45   1
   9   5   4  300.46  125.82   1
 -10   0   9  -26.56  120.97   1
 -10   0   8  117.48   95.86   1
 -10   0   8   12.55  104.50   1
 -10   0   7    9.45   93.32   1
 -10   0   6  472.53  130.15   1
 -10   0   5   48.89  121.95   1
 -10   0   4  269.27  127.07   1
 -10   0   3   94.48  148.76   1
 -10   0   2  357.09  156.67   1
 -10   0   1   -7.08  145.57   1
 -10   0   0  233.58  164.04   1
 -10   0  -1  239.28  165.84   1
 -10   0  -2  159.79  173.54   1
 -10   0  -3   80.90  198.92   1
 -10   0  -4  324.89  231.72   1
 -10  -2   9 2658.49  259.26   1
 -10   2   9 2786.03  248.58   1
 -10  -2   8  -51.36  110.39   1
 -10   2   8   37.12  113.66   1
 -10  -2   7 6120.77  366.36   1
 -10   2   7 4954.10  312.84   1
 -10  -2   7 6157.30  318.05   1
 -10   2   7 5131.60  328.06   1
 -10  -2   6   11.41   75.39   1
 -10   2   6  -13.09   99.92   1
 -10  -2   6   48.52  114.94   1
 -10   2   6   16.40  115.10   1
 -10  -2   5 2524.42  266.74   1
 -10   2   5 1868.44  237.59   1
 -10   2   5 1872.33  189.32   1
 -10  -2   5 2159.16  170.23   1
 -10  -2   4   14.79   59.80   1
 -10   2   4   30.94   78.55   1
 -10  -2   4  108.94  131.21   1
 -10   2   4    4.25  121.65   1
 -10  -2   3 7630.96  456.73   1
 -10   2   3 7386.68  418.54   1
 -10   2   3 7794.67  327.22   1
 -10  -2   3 7629.95  276.70   1
 -10  -2   2  -36.66   55.05   1
 -10  -2   2   32.14  147.63   1
 -10   2   2   11.42  112.98   1
 -10  -2   1 5052.94  221.50   1
 -10  -2   1 4515.34  395.72   1
 -10   2   1 4654.06  326.48   1
 -10  -2   0  -30.39   55.40   1
 -10  -2   0    5.22  150.67   1
 -10   2   0   80.92  126.47   1
 -10  -2  -1 4823.95  226.65   1
 -10  -2  -1 4951.39  420.79   1
 -10   2  -1 4400.95  334.19   1
 -10  -2  -2    6.22   65.79   1
  10  -2   2  -18.00   57.64   1
 -10  -2  -2  108.34  165.47   1
 -10   2  -2   23.07  114.78   1
 -10  -2  -3 2604.92  192.10   1
 -10   2  -3 2490.92  281.84   1
 -10  -2  -4   -1.48   84.02   1
 -10   2  -4   39.07  167.79   1
 -10  -2  -5 5703.24  313.04   1
 -10   2  -5 4474.04  413.77   1
 -10  -2  -6    0.00  131.60   1
 -10  -4   7   91.18  103.61   1
 -10   4   7  124.98  121.50   1
 -10  -4   6  450.18  113.34   1
 -10   4   6  373.02  135.24   1
 -10  -4   5   73.25   81.05   1
 -10   4   5   16.28  114.08   1
 -10   4   5   37.44  144.97   1
 -10  -4   4  102.63   75.65   1
 -10   4   4  266.18  114.09   1
 -10   4   4  116.61  116.97   1
 -10  -4   3   53.08   75.18   1
 -10   4   3   85.73   90.88   1
 -10  -4   3  208.15  165.12   1
 -10   4   3  206.72  118.74   1
 -10  -4   2  282.56   92.58   1
 -10   4   2  348.79  104.91   1
 -10  -4   2  230.40  165.65   1
 -10   4   2  217.78  127.05   1
 -10  -4   1  210.11   91.36   1
 -10  -4   1   64.59  149.65   1
 -10   4   1  311.45  124.98   1
 -10  -4   0   90.90   81.42   1
 -10  -4   0  166.41  135.00   1
 -10   4   0   42.26  132.63   1
 -10  -4  -1   74.03   85.86   1
 -10   4  -1  -23.17  145.13   1
 -10  -4  -2  256.31   94.55   1
  10  -4   2  154.67   83.42   1
 -10   4  -2  168.72  140.49   1
  10  -4   3   58.26   92.71   1
 -10  -4  -3  144.53   92.73   1
 -10   4  -3   60.38  163.04   1
 -10  -4  -4   22.90  102.73   1
  10  -4   4   50.38  109.21   1
 -10   4  -4   41.96  187.66   1
 -10   6   3 3392.54  297.45   1
 -10   6   3 3284.29  289.09   1
 -10   6   2   46.12  160.73   1
 -10   6   1 2294.88  253.36   1
 -11   1   9  117.79  136.54   1
 -11   1   8  279.23  125.01   1
 -11  -1   8  226.33  114.21   1
 -11  -1   7 1286.88  184.00   1
 -11   1   7 1249.21  173.59   1
 -11   1   7 1562.41  194.94   1
 -11  -1   6 1694.11  219.25   1
 -11   1   6 1516.86  199.29   1
 -11  -1   5  654.74  150.70   1
 -11   1   5  738.40  165.93   1
 -11  -1   4 1302.01  213.42   1
 -11   1   4 1038.52  211.03   1
 -11  -1   3  967.75  200.81   1
 -11   1   3 1031.80  207.11   1
 -11  -1   2 2090.30  280.86   1
 -11   1   2 1735.43  244.93   1
 -11  -1   1  629.17  219.08   1
 -11   1   1  481.23  165.55   1
 -11  -1   0  554.13  221.58   1
 -11   1   0  779.15  195.08   1
 -11  -1  -1 2176.28  353.78   1
 -11   1  -1 1967.69  269.91   1
 -11  -1  -2 2120.40  397.08   1
 -11   1  -2 2211.95  297.79   1
 -11  -1  -3  198.01  278.52   1
 -11   1  -3  199.34  196.76   1
 -11   1  -4  560.20  257.45   1
 -11  -3   8  396.39  135.42   1
 -11  -3   7 1057.34  164.21   1
 -11   3   7 1122.84  184.35   1
 -11  -3   6 2257.42  266.56   1
 -11   3   6 1465.60  228.85   1
 -11   3   6 1669.56  214.37   1
 -11  -3   6 2120.08  193.63   1
 -11  -3   5  341.99   87.77   1
 -11   3   5  366.51  120.42   1
 -11  -3   5  514.06  172.55   1
 -11   3   5  402.70  165.11   1
 -11  -3   4 1484.06  232.63   1
 -11   3   4 1511.14  218.88   1
 -11   3   4 1407.38  178.60   1
 -11  -3   4 1617.52  158.92   1
 -11  -3   3  750.17  112.89   1
 -11  -3   3  457.78  173.23   1
 -11   3   3  621.50  148.87   1
 -11   3   2 1707.82  229.78   1
 -11  -3   2 1755.95  267.19   1
 -11  -3   2 1745.75  159.86   1
 -11  -3   1  304.68   88.12   1
 -11  -3   1  326.29  157.25   1
 -11   3   1  351.36  149.09   1
 -11  -3   0  869.32  127.72   1
 -11  -3   0  747.83  201.64   1
 -11   3   0  906.61  198.71   1
 -11  -3  -1 1218.12  144.91   1
 -11  -3  -1 1058.72  203.33   1
 -11   3  -1 1193.99  217.60   1
 -11  -3  -2 2579.26  202.83   1
 -11   3  -2 2488.14  289.39   1
 -11  -3  -3   79.78   95.82   1
 -11   3  -3  221.05  167.69   1
 -11  -3  -4  521.69  127.80   1
 -11   3  -4 1035.69  232.61   1
 -11  -5   4  535.25  123.50   1
 -11   5   4  259.14  141.11   1
 -11   5   4  422.25  179.08   1
 -11  -5   3  627.88  134.95   1
 -11   5   3  687.41  153.85   1
 -11   5   3  734.38  180.44   1
 -11  -5   2  808.10  148.66   1
 -11   5   2  798.33  184.14   1
 -11  -5   1  551.59  133.12   1
 -11   5   1  383.46  157.06   1
 -11  -5   0  514.63  116.84   1
 -11   5   0  170.79  163.96   1
 -12   0   8 2466.25  239.79   1
 -12   0   7  -51.08  121.48   1
 -12   0   6 3495.40  297.51   1
 -12   0   5  -64.12  136.34   1
 -12   0   4 2342.72  277.99   1
 -12   0   3  124.11  154.48   1
 -12   0   2 6998.49  503.98   1
 -12   0   1  -32.87  196.05   1
 -12   0   0 2387.24  369.69   1
 -12   0  -1   76.38  240.52   1
 -12   0  -2 3739.22  497.08   1
 -12   0  -3  -39.25  372.58   1
 -12   2   7  114.29  127.40   1
 -12  -2   7   -3.71  133.64   1
 -12   2   7   25.44  164.98   1
 -12  -2   6  109.01  137.62   1
 -12   2   6   41.74  160.67   1
 -12  -2   5  101.57  136.86   1
 -12   2   5  152.45  166.18   1
 -12  -2   4   50.22  138.37   1
 -12   2   4  199.94  156.96   1
 -12  -2   3   64.53  146.31   1
 -12   2   3  139.55  142.70   1
 -12  -2   2   -3.38  175.62   1
 -12   2   2   81.79  154.45   1
 -12  -2   1  787.41  228.01   1
 -12   2   1  701.62  191.38   1
 -12  -2   0   68.69  203.23   1
 -12   2   0  134.40  179.11   1
 -12  -2  -1   76.08  229.72   1
 -12   2  -1  118.55  173.03   1
 -12   2  -2   93.44  178.76   1
 -12   2  -3  163.61  221.23   1
 -12   2  -4   89.49  295.41   1
 -12  -4   5    0.00  111.67   1
 -12   4   5  -73.21  218.56   1
 -12   4   4 2120.88  262.03   1
 -12   4   4 1712.20  210.11   1
 -12  -4   4 2076.58  198.71   1
 -12  -4   3    6.43   97.91   1
 -12  -4   3  -63.39  193.40   1
 -12   4   3   -0.99  164.65   1
 -12  -4   2 5024.25  435.08   1
 -12   4   2 4515.53  378.32   1
 -12  -4   2 5511.89  307.90   1
 -12  -4   1  -31.11  101.79   1
 -12  -4   1  -29.50  193.22   1
 -12   4   1  -73.16  158.68   1
 -12  -4   0 1736.15  192.38   1
 -12  -4   0 1674.41  234.17   1
 -12   4   0 1658.00  263.36   1
 -12  -4  -1  -33.61  114.12   1
 -13   1   7  335.08  163.40   1
 -13  -1   6  932.68  184.29   1
 -13   1   6 1053.31  213.30   1
 -13  -1   5 1817.81  240.10   1
 -13   1   5 1859.43  270.01   1
 -13  -1   4  271.45  160.64   1
 -13   1   4  120.20  163.56   1
 -13  -1   3  525.56  181.33   1
 -13   1   3  904.95  241.92   1
 -13  -1   2  651.19  218.90   1
 -13   1   2  778.14  217.13   1
 -13  -1   1 1064.13  265.63   1
 -13   1   1 1186.86  257.32   1
 -13  -1   0  431.64  247.35   1
 -13   1   0  123.37  221.83   1
 -13  -1  -1 1063.43  326.18   1
 -13   1  -1 1050.63  266.37   1
 -13  -1  -2  822.58  392.56   1
 -13   1  -2  769.11  303.77   1
 -13   1  -3 1801.81  394.35   1
 -13   3   6 1604.13  267.72   1
 -13   3   5 1448.73  252.55   1
 -13  -3   4  411.36  188.48   1
 -13   3   4  308.11  213.51   1
 -13  -3   3  422.39  188.66   1
 -13   3   3  509.41  200.71   1
 -13  -3   2  874.18  219.11   1
 -13   3   2 1082.50  247.67   1
 -13  -3   1 1113.77  255.18   1
 -13   3   1  878.16  224.38   1
 -13  -3   0  745.56  237.12   1
 -14   0   4   51.58  171.81   1
 -14   0   3  123.27  181.07   1
 -14   0   2   23.64  217.10   1
 -14   0   1 -119.99  249.81   1
   0   0   0    0.00    0.00   0
;
_shelx_hkl_checksum              85417
#END Tags that were not found in dictionaries
loop_
_space_group_symop_operation_xyz
'x, y, z'
'-x, y, -z+1/2'
'x+1/2, y+1/2, z'
'-x+1/2, y+1/2, -z+1/2'
'-x, -y, -z'
'x, -y, z-1/2'
'-x+1/2, -y+1/2, -z'
'x+1/2, -y+1/2, z-1/2'
loop_
_atom_site_label
_atom_site_type_symbol
_atom_site_fract_x
_atom_site_fract_y
_atom_site_fract_z
_atom_site_U_iso_or_equiv
_atom_site_adp_type
_atom_site_occupancy
_atom_site_site_symmetry_order
_atom_site_calc_flag
_atom_site_refinement_flags_posn
_atom_site_refinement_flags_adp
_atom_site_refinement_flags_occupancy
Pt1 Pt 0.12684(4) 0.13222(6) 0.00080(5) 0.00753(13) Uani 1 1 d . . .
Ge1 Ge 0.0000 0.1215(3) 0.2500 0.0095(3) Uani 1 2 d S T P
Ca3 Ca 0.3479(2) 0.1298(4) 0.3463(3) 0.0097(4) Uani 1 1 d . . .
loop_
_atom_site_aniso_label
_atom_site_aniso_U_11
_atom_site_aniso_U_22
_atom_site_aniso_U_33
_atom_site_aniso_U_23
_atom_site_aniso_U_13
_atom_site_aniso_U_12
Pt1 0.0069(2) 0.00707(18) 0.00849(19) 0.00048(16) 0.00122(12) -0.00033(16)
Ge1 0.0103(8) 0.0100(7) 0.0087(7) 0.000 0.0034(6) 0.000
Ca3 0.0111(10) 0.0076(9) 0.0097(9) 0.0005(8) 0.0005(7) -0.0006(8)
loop_
_atom_type_symbol
_atom_type_description
_atom_type_scat_dispersion_real
_atom_type_scat_dispersion_imag
_atom_type_scat_source
Ca Ca 0.2262 0.3064 'International Tables Vol C Tables 4.2.6.8 and 6.1.1.4'
Ge Ge 0.1547 1.8001 'International Tables Vol C Tables 4.2.6.8 and 6.1.1.4'
Pt Pt -1.7033 8.3905 'International Tables Vol C Tables 4.2.6.8 and 6.1.1.4'
loop_
_geom_angle_atom_site_label_1
_geom_angle_atom_site_label_2
_geom_angle_atom_site_label_3
_geom_angle
_geom_angle_site_symmetry_1
_geom_angle_site_symmetry_3
Ge1 Pt1 Ge1 111.33(2) . 5
Ge1 Pt1 Pt1 125.42(3) . 7
Ge1 Pt1 Pt1 123.21(2) 5 7
Ge1 Pt1 Pt1 55.87(3) . 5
Ge1 Pt1 Pt1 55.455(16) 5 5
Pt1 Pt1 Pt1 177.73(3) 7 5
Ge1 Pt1 Ca3 78.01(4) . 8_455
Ge1 Pt1 Ca3 72.17(5) 5 8_455
Pt1 Pt1 Ca3 118.87(4) 7 8_455
Pt1 Pt1 Ca3 62.88(4) 5 8_455
Ge1 Pt1 Ca3 73.96(5) . 4
Ge1 Pt1 Ca3 144.51(5) 5 4
Pt1 Pt1 Ca3 63.57(4) 7 4
Pt1 Pt1 Ca3 118.64(4) 5 4
Ca3 Pt1 Ca3 75.01(6) 8_455 4
Ge1 Pt1 Ca3 142.46(5) . 6
Ge1 Pt1 Ca3 71.06(4) 5 6
Pt1 Pt1 Ca3 63.41(4) 7 6
Pt1 Pt1 Ca3 114.38(4) 5 6
Ca3 Pt1 Ca3 133.54(7) 8_455 6
Ca3 Pt1 Ca3 126.98(4) 4 6
Ge1 Pt1 Ca3 71.45(5) . 4_545
Ge1 Pt1 Ca3 76.89(5) 5 4_545
Pt1 Pt1 Ca3 117.10(4) 7 4_545
Pt1 Pt1 Ca3 61.13(4) 5 4_545
Ca3 Pt1 Ca3 124.01(4) 8_455 4_545
Ca3 Pt1 Ca3 134.49(7) 4 4_545
Ca3 Pt1 Ca3 72.94(6) 6 4_545
Ge1 Pt1 Ca3 70.50(4) . .
Ge1 Pt1 Ca3 144.74(5) 5 .
Pt1 Pt1 Ca3 64.36(4) 7 .
Pt1 Pt1 Ca3 115.49(4) 5 .
Ca3 Pt1 Ca3 138.42(6) 8_455 .
Ca3 Pt1 Ca3 70.74(5) 4 .
Ca3 Pt1 Ca3 86.76(6) 6 .
Ca3 Pt1 Ca3 70.42(5) 4_545 .
Ge1 Pt1 Ca3 146.99(5) . 7
Ge1 Pt1 Ca3 70.59(5) 5 7
Pt1 Pt1 Ca3 63.60(4) 7 7
Pt1 Pt1 Ca3 116.49(4) 5 7
Ca3 Pt1 Ca3 71.27(7) 8_455 7
Ca3 Pt1 Ca3 86.48(3) 4 7
Ca3 Pt1 Ca3 70.41(4) 6 7
Ca3 Pt1 Ca3 137.00(6) 4_545 7
Ca3 Pt1 Ca3 127.97(4) . 7
Pt1 Ge1 Pt1 177.26(8) . 2
Pt1 Ge1 Pt1 68.67(2) . 5
Pt1 Ge1 Pt1 113.00(3) 2 5
Pt1 Ge1 Pt1 113.00(3) . 6_556
Pt1 Ge1 Pt1 68.67(2) 2 6_556
Pt1 Ge1 Pt1 111.45(6) 5 6_556
Pt1 Ge1 Ca3 117.14(4) . 2
Pt1 Ge1 Ca3 62.82(4) 2 2
Pt1 Ge1 Ca3 61.73(4) 5 2
Pt1 Ge1 Ca3 119.33(5) 6_556 2
Pt1 Ge1 Ca3 62.82(4) . .
Pt1 Ge1 Ca3 117.14(4) 2 .
Pt1 Ge1 Ca3 119.33(5) 5 .
Pt1 Ge1 Ca3 61.73(4) 6_556 .
Ca3 Ge1 Ca3 178.36(9) 2 .
Pt1 Ge1 Ca3 120.71(6) . 3_445
Pt1 Ge1 Ca3 61.94(4) 2 3_445
Pt1 Ge1 Ca3 62.81(5) 5 3_445
Pt1 Ge1 Ca3 60.67(5) 6_556 3_445
Ca3 Ge1 Ca3 65.41(4) 2 3_445
Ca3 Ge1 Ca3 116.12(7) . 3_445
Pt1 Ge1 Ca3 61.94(4) . 4_545
Pt1 Ge1 Ca3 120.71(6) 2 4_545
Pt1 Ge1 Ca3 60.67(5) 5 4_545
Pt1 Ge1 Ca3 62.81(5) 6_556 4_545
Ca3 Ge1 Ca3 116.12(7) 2 4_545
Ca3 Ge1 Ca3 65.41(4) . 4_545
Ca3 Ge1 Ca3 65.59(8) 3_445 4_545
Pt1 Ge1 Ca3 60.05(4) . 4
Pt1 Ge1 Ca3 117.30(6) 2 4
Pt1 Ge1 Ca3 117.50(4) 5 4
Pt1 Ge1 Ca3 119.60(4) 6_556 4
Ca3 Ge1 Ca3 113.95(7) 2 4
Ca3 Ge1 Ca3 64.52(5) . 4
Ca3 Ge1 Ca3 179.14(5) 3_445 4
Ca3 Ge1 Ca3 115.27(6) 4_545 4
Pt1 Ge1 Ca3 117.30(6) . 3_455
Pt1 Ge1 Ca3 60.05(4) 2 3_455
Pt1 Ge1 Ca3 119.60(4) 5 3_455
Pt1 Ge1 Ca3 117.50(4) 6_556 3_455
Ca3 Ge1 Ca3 64.52(5) 2 3_455
Ca3 Ge1 Ca3 113.95(7) . 3_455
Ca3 Ge1 Ca3 115.27(6) 3_445 3_455
Ca3 Ge1 Ca3 179.14(5) 4_545 3_455
Ca3 Ge1 Ca3 63.87(7) 4 3_455
Pt1 Ge1 Ca3 121.46(4) . 7_556
Pt1 Ge1 Ca3 57.25(4) 2 7_556
Pt1 Ge1 Ca3 167.05(6) 5 7_556
Pt1 Ge1 Ca3 58.33(4) 6_556 7_556
Ca3 Ge1 Ca3 114.59(6) 2 7_556
Ca3 Ge1 Ca3 64.69(6) . 7_556
Ca3 Ge1 Ca3 104.24(5) 3_445 7_556
Ca3 Ge1 Ca3 115.15(6) 4_545 7_556
Ca3 Ge1 Ca3 75.44(4) 4 7_556
Ca3 Ge1 Ca3 64.78(6) 3_455 7_556
Pt1 Ge1 Ca3 57.25(4) . 8_455
Pt1 Ge1 Ca3 121.46(4) 2 8_455
Pt1 Ge1 Ca3 58.33(4) 5 8_455
Pt1 Ge1 Ca3 167.05(6) 6_556 8_455
Ca3 Ge1 Ca3 64.69(6) 2 8_455
Ca3 Ge1 Ca3 114.59(6) . 8_455
Ca3 Ge1 Ca3 115.15(6) 3_445 8_455
Ca3 Ge1 Ca3 104.24(5) 4_545 8_455
Ca3 Ge1 Ca3 64.78(6) 4 8_455
Ca3 Ge1 Ca3 75.44(4) 3_455 8_455
Ca3 Ge1 Ca3 132.95(9) 7_556 8_455
Pt1 Ca3 Pt1 104.99(6) 8_556 4_545
Pt1 Ca3 Pt1 133.54(7) 8_556 6_556
Pt1 Ca3 Pt1 53.02(4) 4_545 6_556
Pt1 Ca3 Pt1 55.99(4) 8_556 4
Pt1 Ca3 Pt1 134.49(7) 4_545 4
Pt1 Ca3 Pt1 107.06(6) 6_556 4
Pt1 Ca3 Pt1 138.09(7) 8_556 .
Pt1 Ca3 Pt1 109.75(7) 4_545 .
Pt1 Ca3 Pt1 87.00(5) 6_556 .
Pt1 Ca3 Pt1 109.10(7) 4 .
Pt1 Ca3 Pt1 86.44(5) 8_556 7
Pt1 Ca3 Pt1 137.18(7) 4_545 7
Pt1 Ca3 Pt1 138.87(7) 6_556 7
Pt1 Ca3 Pt1 86.29(5) 4 7
Pt1 Ca3 Pt1 52.03(4) . 7
Pt1 Ca3 Ge1 151.53(8) 8_556 .
Pt1 Ca3 Ge1 94.10(6) 4_545 .
Pt1 Ca3 Ge1 47.21(4) 6_556 .
Pt1 Ca3 Ge1 95.58(6) 4 .
Pt1 Ca3 Ge1 46.69(3) . .
Pt1 Ca3 Ge1 93.82(6) 7 .
Pt1 Ca3 Ge1 47.16(3) 8_556 3
Pt1 Ca3 Ge1 149.78(7) 4_545 3
Pt1 Ca3 Ge1 151.75(8) 6_556 3
Pt1 Ca3 Ge1 46.61(3) 4 3
Pt1 Ca3 Ge1 92.79(5) . 3
Pt1 Ca3 Ge1 46.60(3) 7 3
Ge1 Ca3 Ge1 116.12(7) . 3
Pt1 Ca3 Ge1 94.45(6) 8_556 3_545
Pt1 Ca3 Ge1 46.00(3) 4_545 3_545
Pt1 Ca3 Ge1 92.93(6) 6_556 3_545
Pt1 Ca3 Ge1 150.44(7) 4 3_545
Pt1 Ca3 Ge1 93.15(5) . 3_545
Pt1 Ca3 Ge1 92.82(5) 7 3_545
Ge1 Ca3 Ge1 113.95(7) . 3_545
Ge1 Ca3 Ge1 115.27(6) 3 3_545
Pt1 Ca3 Ge1 44.74(3) 8_556 7_556
Pt1 Ca3 Ge1 91.35(6) 4_545 7_556
Pt1 Ca3 Ge1 91.24(5) 6_556 7_556
Pt1 Ca3 Ge1 44.78(4) 4 7_556
Pt1 Ca3 Ge1 151.63(8) . 7_556
Pt1 Ca3 Ge1 122.35(7) 7 7_556
Ge1 Ca3 Ge1 115.31(6) . 7_556
Ge1 Ca3 Ge1 75.76(5) 3 7_556
Ge1 Ca3 Ge1 115.22(6) 3_545 7_556
Pt1 Ca3 Ca3 150.76(8) 8_556 4_545
Pt1 Ca3 Ca3 55.23(3) 4_545 4_545
Pt1 Ca3 Ca3 55.60(5) 6_556 4_545
Pt1 Ca3 Ca3 153.18(10) 4 4_545
Pt1 Ca3 Ca3 54.52(7) . 4_545
Pt1 Ca3 Ca3 95.55(8) 7 4_545
Ge1 Ca3 Ca3 57.61(7) . 4_545
Ge1 Ca3 Ca3 142.15(9) 3 4_545
Ge1 Ca3 Ca3 56.34(4) 3_545 4_545
Ge1 Ca3 Ca3 142.08(8) 7_556 4_545
Pt1 Ca3 Ca3 99.64(5) 8_556 4
Pt1 Ca3 Ca3 153.22(10) 4_545 4
Pt1 Ca3 Ca3 101.79(9) 6_556 4
Pt1 Ca3 Ca3 55.07(3) 4 4
Pt1 Ca3 Ca3 54.03(7) . 4
Pt1 Ca3 Ca3 53.99(5) 7 4
Ge1 Ca3 Ca3 59.14(7) . 4
Ge1 Ca3 Ca3 56.98(3) 3 4
Ge1 Ca3 Ca3 142.48(9) 3_545 4
Ge1 Ca3 Ca3 98.93(6) 7_556 4
Ca3 Ca3 Ca3 105.09(11) 4_545 4
loop_
_geom_bond_atom_site_label_1
_geom_bond_atom_site_label_2
_geom_bond_distance
_geom_bond_site_symmetry_2
Pt1 Ge1 2.5324(4) .
Pt1 Ge1 2.5452(10) 5
Pt1 Pt1 2.7249(8) 7
Pt1 Pt1 2.8639(8) 5
Pt1 Ca3 3.026(2) 8_455
Pt1 Ca3 3.050(2) 4
Pt1 Ca3 3.055(2) 6
Pt1 Ca3 3.075(2) 4_545
Pt1 Ca3 3.096(2) .
Pt1 Ca3 3.116(2) 7
Ge1 Pt1 2.5325(4) 2
Ge1 Pt1 2.5452(10) 5
Ge1 Pt1 2.5452(10) 6_556
Ge1 Ca3 3.281(2) 2
Ge1 Ca3 3.281(2) .
Ge1 Ca3 3.304(2) 3_445
Ge1 Ca3 3.304(2) 4_545
Ge1 Ca3 3.384(3) 4
Ge1 Ca3 3.384(3) 3_455
Ge1 Ca3 3.519(2) 7_556
Ge1 Ca3 3.519(2) 8_455
Ca3 Pt1 3.026(2) 8_556
Ca3 Pt1 3.050(2) 4_545
Ca3 Pt1 3.055(2) 6_556
Ca3 Pt1 3.075(2) 4
Ca3 Pt1 3.116(2) 7
Ca3 Ge1 3.304(2) 3
Ca3 Ge1 3.384(3) 3_545
Ca3 Ge1 3.519(2) 7_556
Ca3 Ca3 3.558(3) 4_545
Ca3 Ca3 3.558(3) 4
