#------------------------------------------------------------------------------
#$Date: 2016-03-21 01:21:50 +0200 (Mon, 21 Mar 2016) $
#$Revision: 178377 $
#$URL: svn://www.crystallography.net/cod/cif/4/00/21/4002175.cif $
#------------------------------------------------------------------------------
#
# This file is available in the Crystallography Open Database (COD),
# http://www.crystallography.net/
#
# All data on this site have been placed in the public domain by the
# contributors.
#
data_4002175
loop_
_publ_author_name
'Xie, Weiwei'
'Luo, Huixia'
'Baroudi, Kristen'
'Krizan, Jason W.'
'Phelan, Brendan F.'
'Cava, Robert J.'
_publ_section_title
;
 Fragment-Based Design of NbRuB as a New Metal-Rich Boride Superconductor
;
_journal_issue                   4
_journal_name_full               'Chemistry of Materials'
_journal_page_first              1149
_journal_paper_doi               10.1021/cm504449s
_journal_volume                  27
_journal_year                    2015
_chemical_formula_sum            'B3 Nb3 Ru3'
_chemical_formula_weight         614.37
_chemical_name_systematic
; 
 ? 
;
_space_group_crystal_system      orthorhombic
_space_group_IT_number           51
_space_group_name_Hall           '-P 2a 2a'
_space_group_name_H-M_alt        'P m m a'
_symmetry_space_group_name_Hall  '-P 2a 2a'
_symmetry_space_group_name_H-M   'P m m a'
_audit_creation_method           SHELXL-2013
_cell_angle_alpha                90
_cell_angle_beta                 90
_cell_angle_gamma                90
_cell_formula_units_Z            2
_cell_length_a                   10.8672(11)
_cell_length_b                   3.1543(3)
_cell_length_c                   6.3500(6)
_cell_measurement_reflns_used    927
_cell_measurement_temperature    296(2)
_cell_measurement_theta_max      28.33
_cell_measurement_theta_min      3.75
_cell_volume                     217.67(4)
_computing_cell_refinement       'Bruker SAINT'
_computing_data_collection       'Bruker APEX2'
_computing_data_reduction        'Bruker SAINT'
_computing_molecular_graphics    'Bruker SHELXTL'
_computing_publication_material  'Bruker SHELXTL'
_computing_structure_refinement  'SHELXL-2013 (Sheldrick, 2013)'
_computing_structure_solution    'SHELXS-97 (Sheldrick 2008)'
_diffrn_ambient_temperature      296(2)
_diffrn_measured_fraction_theta_full 0.992
_diffrn_measured_fraction_theta_max 0.991
_diffrn_measurement_device_type  'Bruker APEX-II CCD'
_diffrn_measurement_method       '\f and \w scans'
_diffrn_radiation_type           MoK\a
_diffrn_radiation_wavelength     0.71073
_diffrn_reflns_av_R_equivalents  0.0125
_diffrn_reflns_av_unetI/netI     0.0116
_diffrn_reflns_Laue_measured_fraction_full 0.992
_diffrn_reflns_Laue_measured_fraction_max 0.991
_diffrn_reflns_limit_h_max       13
_diffrn_reflns_limit_h_min       -14
_diffrn_reflns_limit_k_max       4
_diffrn_reflns_limit_k_min       -4
_diffrn_reflns_limit_l_max       8
_diffrn_reflns_limit_l_min       -8
_diffrn_reflns_number            1329
_diffrn_reflns_point_group_measured_fraction_full 0.992
_diffrn_reflns_point_group_measured_fraction_max 0.991
_diffrn_reflns_theta_full        25.242
_diffrn_reflns_theta_max         28.332
_diffrn_reflns_theta_min         3.716
_exptl_absorpt_coefficient_mu    17.577
_exptl_absorpt_correction_T_max  0.7457
_exptl_absorpt_correction_T_min  0.6600
_exptl_absorpt_correction_type   multi-scan
_exptl_crystal_colour            Metallic
_exptl_crystal_density_diffrn    9.374
_exptl_crystal_density_meas      ?
_exptl_crystal_density_method    'not measured'
_exptl_crystal_description       Irregular
_exptl_crystal_F_000             540
_exptl_crystal_size_max          0.035
_exptl_crystal_size_mid          0.020
_exptl_crystal_size_min          0.010
_refine_diff_density_max         0.760
_refine_diff_density_min         -1.043
_refine_diff_density_rms         0.167
_refine_ls_extinction_coef       0.0034(2)
_refine_ls_extinction_expression Fc^*^=kFc[1+0.001xFc^2^\l^3^/sin(2\q)]^-1/4^
_refine_ls_extinction_method     SHELXL
_refine_ls_goodness_of_fit_ref   1.141
_refine_ls_hydrogen_treatment    undef
_refine_ls_matrix_type           full
_refine_ls_number_parameters     33
_refine_ls_number_reflns         336
_refine_ls_number_restraints     0
_refine_ls_restrained_S_all      1.141
_refine_ls_R_factor_all          0.0135
_refine_ls_R_factor_gt           0.0115
_refine_ls_shift/su_max          0.001
_refine_ls_shift/su_mean         0.000
_refine_ls_structure_factor_coef Fsqd
_refine_ls_weighting_details
'w=1/[\s^2^(Fo^2^)+(0.0037P)^2^+0.7834P] where P=(Fo^2^+2Fc^2^)/3'
_refine_ls_weighting_scheme      calc
_refine_ls_wR_factor_gt          0.0199
_refine_ls_wR_factor_ref         0.0203
_reflns_Friedel_coverage         0.000
_reflns_number_gt                323
_reflns_number_total             336
_reflns_threshold_expression     'I > 2\s(I)'
_cod_data_source_file            cm504449s_si_002.cif
_cod_data_source_block           wei080bx
_cod_depositor_comments
;
The following automatic conversions were performed:

'_exptl_crystal_density_meas' value 'None' was changed to '?' - the
value is perceived as not measured.

Automatic conversion script
Id: cif_fix_values 3008 2015-01-20 13:52:24Z robertas 

 Adding full bibliography for 4002175.cif.
;
_cod_database_code               4002175
#BEGIN Tags that were not found in dictionaries:
_shelx_space_group_comment
; 
The symmetry employed for this shelxl refinement is uniquely defined 
by the following loop, which should always be used as a source of 
symmetry information in preference to the above space-group names. 
They are only intended as comments. 
;
_shelxl_version_number           2013-4
_shelx_res_file
; 
TITL wei080bx in Pmma 
CELL 0.71073  10.86720   3.15430   6.35000  90.0000  90.0000  90.0000 
ZERR    2.00   0.00110   0.00030   0.00060   0.0000   0.0000   0.0000 
LATT  1 
SYMM 0.5-X, -Y, Z 
SYMM -X, Y, -Z 
SYMM 0.5+X, -Y, -Z 
SFAC B NB RU 
UNIT 6 6 6 
TEMP 23.000 
  
L.S. 10 
ACTA 
TWIN 
  
WGHT    0.003700    0.783400 
EXTI    0.003424 
BASF   0.64031 
FVAR       0.10606 
MOLE   1 
RU1   3    0.375549    0.500000    0.572359    10.50000    0.00200    0.00325 = 
         0.00246    0.00000    0.00006    0.00000 
RU2   3    0.250000    0.500000    0.201043    10.25000    0.00190    0.00778 = 
         0.00257    0.00000    0.00000    0.00000 
NB1   2    0.543802    0.000000    0.777202    10.50000    0.00282    0.00210 = 
         0.00480    0.00000   -0.00087    0.00000 
NB2   2    0.250000    0.000000    0.855184    10.25000    0.00188    0.00212 = 
         0.00334    0.00000    0.00000    0.00000 
B1    1    0.416329    0.500000    0.949949    10.50000    0.00717    0.00686 = 
         0.00116    0.00000    0.00075    0.00000 
B2    1    0.250000    0.000000    0.450051    10.25000    0.00853    0.00945 = 
         0.00556    0.00000    0.00000    0.00000 
HKLF 4 
  
REM  wei080bx in Pmma 
REM R1 =  0.0115 for     323 Fo > 4sig(Fo)  and  0.0135 for all     336 data 
REM     33 parameters refined using      0 restraints 
  
END 
  
WGHT      0.0037      0.7834 
  
REM Highest difference peak  0.760,  deepest hole -1.043,  1-sigma level  0.167 
Q1    1   0.5192  0.0000  0.8789  10.50000  0.05    0.76 
Q2    1   0.3464  0.5000  1.0621  10.50000  0.05    0.60 
Q3    1   0.5463 -0.5000  0.6891  10.50000  0.05    0.51 
Q4    1   0.3036  0.0000  0.9318  10.50000  0.05    0.51 
Q5    1   0.6688  0.0000  0.7454  10.50000  0.05    0.47 
Q6    1   0.3879  0.7298  0.7598  11.00000  0.05    0.47 
Q7    1   0.3298  0.5000  0.4861  10.50000  0.05    0.42 
Q8    1   0.4996 -0.1079  0.7404  11.00000  0.05    0.42 
Q9    1   0.6288  0.0000  0.9680  10.50000  0.05    0.42 
Q10   1   0.2500  0.5000  0.6138  10.25000  0.05    0.41 
Q11   1   0.2500  0.3983  0.0507  10.50000  0.05    0.41 
Q12   1   0.3728  0.5000  0.2406  10.50000  0.05    0.41 
Q13   1   0.2500  0.0000  0.1969  10.25000  0.05    0.41 
Q14   1   0.2500  0.0000  1.1043  10.25000  0.05    0.40 
Q15   1   0.4236  0.0000  0.8497  10.50000  0.05    0.38 
Q16   1   0.3586  0.1477  0.4456  11.00000  0.05    0.37 
Q17   1   0.5885  0.0000  0.8384  10.50000  0.05    0.36 
Q18   1   0.2500  0.5000  0.7336  10.25000  0.05    0.35 
Q19   1   0.2932  0.0000  0.6535  10.50000  0.05    0.35 
Q20   1   0.4272  0.5000  0.4389  10.50000  0.05    0.34 
;
_shelx_res_checksum              40078
_shelx_hkl_file
; 
   0  -1   0    8.77    0.33 
   0  -2   0 1000.00    8.69 
   0  -3   0    1.30    0.31 
   0  -4   0  412.18    5.01 
   0   1   1  236.44    2.16 
   0   1  -1  235.23    2.90 
   0  -1  -1  238.14    2.92 
   0  -1   1  237.17    2.32 
   0  -1  -1  237.05    2.24 
   0  -2  -1   10.65    0.45 
   0  -2   1   10.32    0.47 
   0   2   1   10.55    0.35 
   0  -3   1   93.41    1.73 
   0  -3  -1   92.13    1.63 
   0  -4  -1    4.68    0.56 
   0  -4   1    3.82    0.56 
   0   0   2   91.13    1.04 
   0   0  -2   89.40    1.08 
   0   1   2  250.32    2.44 
   0  -1  -2  258.07    3.37 
   0   1  -2  248.33    3.33 
   0  -1  -2  246.23    2.40 
   0   1  -2  250.37    2.56 
   0   2   2   50.10    0.89 
   0  -2   2   49.89    1.04 
   0  -2  -2   50.63    0.95 
   0  -3   2  111.13    1.95 
   0  -3  -2  108.08    1.77 
   0   0  -3  342.79    3.31 
   0   0   3  348.23    3.21 
   0  -1   3   14.36    0.39 
   0  -1  -3   14.71    0.45 
   0   1  -3   13.81    0.52 
   0   1  -3   15.38    0.65 
   0   1   3   15.67    0.51 
   0   2   3  200.71    2.35 
   0   2  -3  200.86    2.59 
   0  -2  -3  202.85    2.34 
   0   3  -3    8.45    0.70 
   0  -3  -3    7.92    0.54 
   0   0  -4    7.70    0.43 
   0   0   4    7.72    0.41 
   0  -1   4   15.55    0.47 
   0   1  -4   15.36    0.62 
   0   1   4   14.65    0.57 
   0  -1  -4   14.57    0.50 
   0   2   4    5.20    0.45 
   0   2  -4    5.28    0.53 
   0  -2  -4    4.55    0.38 
   0   3  -4    8.09    0.71 
   0   0  -5  295.06    3.28 
   0   0   5  297.82    3.20 
   0  -1   5   29.25    0.74 
   0   1  -5   28.36    0.91 
   0  -1  -5   27.90    0.74 
   0   1   5   29.48    0.88 
   0   2  -5  211.89    3.00 
   0   2   5  209.96    2.79 
   0   3   5   13.37    0.75 
   0   3  -5   14.44    0.93 
   0   0  -6   72.90    1.43 
   0   0   6   71.81    1.41 
   0   1   6   30.97    0.99 
   0   1  -6   29.89    1.04 
   0   2  -6   56.56    1.54 
   0   2   6   57.29    1.41 
   0   0   7    2.52    0.42 
   0   1  -7   45.96    1.38 
   0   1   7   46.87    1.34 
   0   2   7    2.33    0.48 
   0   2  -7    2.66    0.56 
   0   0   8   45.80    1.35 
   0   1   8  150.23    2.64 
  -1   0   0    0.00    0.08 
  -1  -1   0    0.03    0.13 
   1  -1   0    0.08    0.13 
  -1   2   0    0.56    0.13 
  -1  -2   0    0.43    0.17 
   1  -2   0    0.00    0.16 
  -1  -3   0    0.04    0.23 
   1  -3   0    0.31    0.26 
   1  -4   0   -0.13    0.30 
  -1  -4   0    0.19    0.35 
   1   0  -1    0.00    0.09 
  -1   0   1    0.72    0.19 
  -1  -1  -1   13.37    0.32 
   1   1  -1   13.49    0.42 
   1  -1   1   13.54    0.40 
  -1   1   1   13.46    0.37 
  -1   1   1   13.27    0.41 
   1  -1  -1   13.33    0.39 
   1  -1  -1   13.55    0.43 
  -1  -1   1   13.33    0.41 
   1   1   1   12.65    0.33 
  -1  -1   1   12.92    0.41 
  -1  -2  -1    0.37    0.16 
  -1   2   1    0.35    0.14 
   1  -2   1    0.23    0.18 
   1  -2  -1    0.53    0.19 
   1   2   1    0.34    0.13 
  -1  -2   1   -0.03    0.16 
   1  -3   1    3.99    0.46 
  -1  -3  -1    4.17    0.43 
  -1  -3   1    3.61    0.45 
   1  -3  -1    4.84    0.47 
   1  -4   1   -0.12    0.32 
  -1  -4  -1    0.94    0.38 
  -1  -4   1    0.85    0.39 
   1  -4  -1   -0.04    0.30 
  -1   0   2   44.97    0.67 
   1   0  -2   44.65    0.74 
  -1   0   2   43.63    1.00 
   1   0   2   45.83    0.69 
   1  -1   2  251.09    2.54 
   1  -1   2  249.27    2.25 
  -1  -1  -2  250.03    2.33 
   1   1  -2  245.81    2.60 
  -1   1   2  251.64    2.47 
   1   1  -2  252.02    3.39 
   1  -1  -2  252.30    2.50 
   1   1   2  251.20    2.43 
  -1   2   2   21.72    0.59 
   1  -2   2   20.86    0.67 
  -1  -2  -2   20.89    0.57 
   1   2   2   22.06    0.57 
   1  -2  -2   22.34    0.65 
   1  -3   2   97.62    1.83 
  -1  -3  -2   98.86    1.65 
   1  -3  -2   99.88    1.73 
   1  -4   2    8.81    0.82 
   1   4  -2    8.54    0.78 
   1  -4  -2    8.26    0.72 
  -1   0  -3  316.40    3.00 
  -1   0   3  313.70    2.98 
   1   0  -3  311.30    3.14 
   1   0   3  316.75    2.99 
   1   1  -3   62.42    1.12 
   1  -1   3   62.83    0.89 
  -1  -1  -3   62.58    0.88 
  -1   1   3   62.85    1.04 
  -1   1  -3   61.47    1.05 
  -1  -1   3   61.48    0.82 
   1  -1  -3   61.43    1.00 
   1   1   3   62.54    1.03 
   1   2  -3  188.19    2.51 
  -1   2   3  187.32    2.27 
  -1  -2  -3  190.50    2.16 
   1  -2  -3  188.86    2.29 
   1   2   3  184.27    2.22 
   1   3  -3   23.75    1.02 
   1  -3  -3   26.12    0.87 
  -1   0  -4    6.22    0.38 
   1   0   4    5.64    0.38 
   1   0  -4    5.57    0.41 
  -1   0   4    5.69    0.37 
   1   1  -4    3.23    0.38 
  -1   1   4    3.01    0.33 
   1  -1   4    2.78    0.27 
  -1  -1  -4    3.49    0.28 
   1  -1  -4    3.55    0.33 
   1   1   4    4.12    0.36 
  -1   1  -4    3.75    0.37 
  -1  -1   4    3.68    0.29 
  -1   2   4    4.09    0.41 
   1   2  -4    4.35    0.49 
   1  -2  -4    5.39    0.42 
   1   2   4    4.59    0.41 
  -1   2  -4    4.93    0.49 
   1   3  -4    2.24    0.48 
  -1   3   4    1.95    0.37 
  -1   3  -4    1.94    0.46 
   1   0  -5    1.17    0.29 
   1   0   5    1.09    0.27 
  -1   0  -5    0.53    0.23 
  -1   0   5    0.48    0.22 
   1  -1   5  127.63    1.74 
  -1   1   5  130.43    1.93 
   1   1  -5  128.61    2.03 
   1  -1  -5  126.01    1.84 
  -1  -1   5  127.35    1.68 
  -1   1  -5  130.11    1.96 
   1   1   5  129.37    1.93 
   1   2  -5    0.80    0.37 
  -1   2   5    0.73    0.30 
   1   2   5    0.46    0.29 
  -1   2  -5    0.55    0.33 
  -1   3   5   73.90    1.63 
   1   3  -5   72.43    1.87 
  -1   3  -5   76.53    1.87 
   1   3   5   75.97    1.62 
   1   0   6  117.26    1.87 
   1   0  -6  118.57    1.96 
  -1   0   6  118.56    1.85 
  -1   1   6    4.89    0.52 
   1   1  -6    3.16    0.48 
   1  -1   6    4.17    0.43 
  -1   1  -6    4.00    0.49 
   1   1   6    4.39    0.48 
   1   2  -6   88.24    1.96 
  -1   2   6   89.19    1.80 
  -1   2  -6   91.04    1.91 
   1   2   6   86.00    1.78 
   1   0   7    2.36    0.43 
  -1   0   7    2.08    0.41 
  -1   1   7    8.02    0.67 
   1   1  -7   10.12    0.81 
   1   1   7    8.87    0.73 
  -1   2   7    1.08    0.41 
   1   2  -7    1.87    0.53 
   1   2   7    1.24    0.43 
  -1   2  -7    1.51    0.50 
  -1   0   8   84.08    1.81 
   1   0   8   84.32    1.83 
  -1   1   8    0.78    0.39 
   1   1   8    0.38    0.37 
  -2   0   0    7.89    0.36 
   2  -1   0  109.46    1.30 
  -2  -1   0  107.43    1.60 
  -2  -1   0  110.06    1.23 
  -2   1   0  111.18    1.20 
  -2   1   0  111.83    1.62 
  -2   2   0    3.38    0.25 
  -2  -2   0    3.14    0.30 
   2  -2   0    2.68    0.29 
  -2  -3   0   38.97    1.04 
   2  -3   0   36.76    1.06 
   2  -4   0    0.62    0.38 
  -2  -4   0    1.05    0.39 
   2   0   1   11.01    0.32 
   2   0  -1   11.00    0.37 
  -2   0   1   10.67    0.48 
   2  -1   1    0.62    0.15 
   2  -1   1   -0.27    0.14 
   2   1  -1   -0.17    0.18 
  -2   1   1   -0.01    0.17 
  -2   1   1   -0.19    0.14 
   2   1  -1   -0.09    0.16 
  -2  -1   1   -0.07    0.19 
   2  -1  -1    0.12    0.20 
   2   1   1    0.29    0.14 
   2  -1  -1    0.49    0.18 
  -2  -2  -1    7.18    0.36 
   2  -2   1    6.76    0.41 
  -2   2   1    7.04    0.35 
  -2  -2   1    6.85    0.41 
   2  -2  -1    6.88    0.40 
   2   2   1    6.86    0.30 
  -2  -3  -1    0.30    0.23 
   2  -3   1   -0.29    0.21 
  -2  -3   1    0.18    0.24 
   2  -3  -1    0.12    0.24 
   2  -4   1    1.85    0.47 
   2  -4  -1    2.36    0.48 
   2   0  -2    7.75    0.40 
  -2   0   2    7.84    0.48 
   2   0   2    8.29    0.34 
  -2   0   2    8.03    0.33 
   2   1  -2  197.10    2.86 
   2   1  -2  195.04    2.21 
  -2   1   2  197.13    2.08 
   2  -1   2  193.86    2.08 
  -2   1   2  195.41    2.83 
   2  -1   2  195.22    1.93 
   2   1   2  195.42    2.02 
   2  -1  -2  196.42    2.15 
  -2  -1   2  195.34    2.84 
   2   2  -2    5.07    0.43 
   2  -2   2    5.00    0.40 
  -2   2   2    5.30    0.36 
  -2  -2  -2    5.57    0.31 
   2   2   2    5.29    0.33 
   2  -2  -2    5.32    0.40 
   2   3  -2   79.16    1.65 
   2  -3   2   76.14    1.61 
   2  -3  -2   76.93    1.54 
   2   4  -2    3.22    0.59 
   2  -4   2    2.49    0.52 
   2  -4  -2    3.35    0.54 
   2   0  -3   36.91    0.81 
   2   0   3   36.51    0.72 
  -2   0   3   35.29    1.06 
  -2   0  -3   36.20    0.63 
  -2   0   3   36.45    0.71 
  -2   1   3   18.00    0.58 
   2  -1   3   18.60    0.50 
  -2   1   3   18.40    0.75 
   2   1  -3   18.99    0.64 
  -2  -1  -3   18.32    0.40 
  -2   1  -3   18.60    0.56 
   2  -1  -3   19.11    0.58 
   2   1   3   17.56    0.55 
  -2  -1   3   18.54    0.76 
  -2  -1   3   18.65    0.43 
   2  -2   3   20.22    0.71 
  -2   2   3   19.49    0.66 
   2   2  -3   19.94    0.77 
   2  -2  -3   19.74    0.67 
   2   2   3   20.33    0.64 
   2  -3   3    8.00    0.63 
   2   3  -3    8.70    0.69 
   2  -3  -3    7.09    0.57 
  -2   0   4   80.37    1.25 
   2   0   4   81.63    1.27 
  -2   0  -4   80.74    1.16 
   2   0  -4   82.16    1.40 
  -2   1   4  139.96    1.90 
   2  -1   4  142.91    1.74 
   2   1  -4  139.05    2.04 
  -2  -1   4  137.12    1.61 
   2  -1  -4  141.54    1.91 
   2   1   4  141.36    1.89 
  -2   1  -4  140.08    1.88 
   2   2  -4   56.08    1.36 
  -2   2   4   57.26    1.23 
   2  -2  -4   59.08    1.22 
  -2   2  -4   58.09    1.31 
   2   2   4   58.89    1.20 
   2   3  -4   73.74    1.78 
  -2   3   4   71.71    1.50 
   2  -3  -4   71.81    1.55 
  -2   3  -4   72.44    1.71 
   2   0  -5    2.54    0.38 
  -2   0   5    2.58    0.32 
   2   0   5    1.68    0.29 
   2  -1   5  115.17    1.65 
   2   1  -5  114.61    1.96 
  -2   1   5  114.03    1.82 
  -2   1  -5  111.92    1.78 
   2   1   5  115.72    1.81 
   2  -1  -5  114.76    1.80 
  -2   2   5    2.18    0.39 
   2   2  -5    2.14    0.47 
  -2   2  -5    0.93    0.36 
   2  -2  -5    2.49    0.38 
   2   2   5    1.25    0.32 
  -2   3   5   61.78    1.50 
   2   3  -5   62.45    1.75 
  -2   3  -5   60.78    1.67 
   2   0   6   52.95    1.22 
  -2   0   6   52.80    1.20 
   2   0  -6   52.27    1.30 
   2  -1   6   19.67    0.75 
  -2   1   6   19.86    0.84 
   2   1  -6   17.97    0.91 
   2  -1  -6   20.10    0.82 
  -2   1  -6   20.84    0.84 
   2   1   6   20.35    0.84 
  -2   2   6   40.46    1.23 
   2   2  -6   41.62    1.40 
   2   2   6   40.24    1.20 
  -2   2  -6   39.38    1.27 
   2   0   7   31.93    1.07 
   2   0  -7   33.11    1.15 
  -2   0   7   33.18    1.05 
  -2   1   7  136.91    2.34 
   2   1  -7  139.05    2.50 
   2   1   7  136.73    2.36 
  -2   2   7   27.30    1.11 
   2   2  -7   24.18    1.22 
  -2   2  -7   28.00    1.28 
   2   2   7   27.84    1.11 
   2   0   8    5.08    0.61 
  -2   0   8    5.38    0.61 
  -2   1   8    8.61    0.77 
   2   1  -8    8.66    0.83 
   2   1   8    7.00    0.71 
  -3   0   0   -0.29    0.20 
   3   0   0    0.02    0.15 
  -3   1   0    0.35    0.16 
   3  -1   0   -0.12    0.14 
   3   1   0    0.07    0.14 
  -3  -1   0    0.45    0.23 
  -3   1   0    0.17    0.20 
  -3  -2   0    0.23    0.17 
  -3   2   0    0.17    0.14 
   3  -2   0   -0.07    0.17 
   3  -3   0    0.48    0.26 
  -3  -3   0   -0.04    0.23 
   3  -4   0   -0.13    0.32 
  -3   0   1    6.65    0.30 
  -3   0   1    6.20    0.44 
   3   0   1    6.21    0.30 
   3   0  -1    6.36    0.33 
  -3   1   1  550.27    4.75 
   3   1  -1  546.25    6.71 
   3   1  -1  549.42    4.92 
   3  -1   1  552.62    4.83 
  -3   1   1  534.92    6.64 
   3  -1  -1  551.79    4.92 
   3  -1  -1  552.59    6.73 
  -3  -1   1  522.13    6.63 
   3   1   1  558.36    4.62 
   3   2  -1    5.35    0.42 
  -3   2   1    5.90    0.36 
   3  -2   1    5.73    0.40 
  -3  -2  -1    5.75    0.35 
  -3   2  -1    5.89    0.31 
   3   2   1    5.31    0.29 
   3   3  -1  225.98    2.99 
  -3  -3  -1  223.41    2.80 
   3  -3   1  228.47    3.05 
   3  -3  -1  225.62    3.00 
   3   4  -1    3.92    0.60 
   3  -4   1    2.61    0.51 
   3  -4  -1    4.33    0.58 
  -3   0   2  154.12    2.49 
   3   0   2  158.30    1.71 
   3   0  -2  156.82    1.84 
  -3   0   2  155.54    1.67 
   3   1  -2   31.92    0.93 
   3  -1   2   31.44    0.64 
   3  -1   2   31.84    0.64 
  -3   1   2   31.32    0.69 
   3   1  -2   31.27    0.76 
  -3   1   2   31.94    0.92 
   3  -1  -2   31.99    0.93 
  -3  -1   2   30.86    0.92 
   3  -1  -2   31.28    0.72 
  -3  -1   2   31.49    0.51 
   3   1   2   32.18    0.66 
  -3   2   2   90.73    1.39 
  -3  -2  -2   90.86    1.35 
   3  -2   2   92.76    1.49 
   3   2  -2   89.49    1.54 
   3  -2  -2   90.99    1.49 
   3   2   2   91.27    1.28 
   3   3  -2   12.66    0.77 
   3  -3   2   12.15    0.70 
   3  -3  -2   12.92    0.70 
   3  -4   2   41.16    1.43 
   3  -4  -2   40.76    1.35 
  -3   0   3  115.99    2.21 
   3   0   3  117.98    1.50 
  -3   0   3  119.43    1.48 
   3   0  -3  115.43    1.65 
   3  -1   3    0.30    0.17 
   3   1  -3    0.49    0.24 
   3  -1   3    0.31    0.16 
  -3   1   3    0.13    0.22 
  -3   1   3    0.11    0.18 
   3   1   3    0.18    0.16 
   3  -1  -3    0.69    0.21 
  -3  -1   3    0.11    0.24 
  -3  -1   3    0.16    0.13 
   3   2  -3   74.88    1.49 
   3  -2   3   72.95    1.37 
  -3   2   3   72.36    1.31 
   3  -2  -3   72.80    1.35 
   3   2   3   71.13    1.23 
   3  -3   3    0.42    0.31 
   3   3  -3    0.19    0.37 
   3  -3  -3    0.54    0.30 
   3   0  -4   30.55    0.87 
  -3   0   4   31.47    1.15 
   3   0   4   31.54    0.79 
  -3   0   4   31.71    0.76 
  -3   1   4  300.29    4.56 
  -3   1   4  296.72    3.25 
   3  -1   4  304.10    3.10 
   3   1  -4  295.15    3.46 
  -3  -1   4  297.15    2.92 
  -3   1  -4  296.60    3.18 
   3  -1  -4  294.63    3.33 
   3   1   4  297.95    3.22 
  -3  -1   4  298.21    4.57 
  -3   2   4   18.54    0.75 
   3   2  -4   19.54    0.89 
  -3   2  -4   19.16    0.76 
   3   2   4   19.57    0.72 
   3  -2  -4   19.46    0.75 
   3   3  -4  155.88    2.74 
  -3   3   4  159.60    2.41 
   3  -3  -4  157.48    2.50 
   3   0  -5   44.08    1.16 
   3   0   5   44.06    1.04 
  -3   0   5   45.52    1.02 
   3  -1   5   30.44    0.84 
  -3   1   5   28.93    0.91 
   3   1  -5   30.54    1.05 
   3   1   5   30.54    0.91 
   3  -1  -5   30.55    0.94 
  -3   1  -5   31.38    0.88 
   3   2  -5   30.74    1.14 
  -3   2   5   31.20    1.02 
   3   2   5   30.42    0.98 
  -3   2  -5   33.78    1.06 
   3  -2  -5   32.54    1.00 
   3   3  -5   17.30    1.07 
  -3   3   5   16.68    0.86 
  -3   3  -5   16.88    0.98 
   3  -3  -5   19.10    0.93 
   3   0   6   -0.06    0.26 
   3   0  -6    0.35    0.33 
  -3   0   6    0.22    0.28 
   3   1  -6   18.31    0.95 
  -3   1   6   18.45    0.84 
   3  -1   6   18.15    0.74 
   3  -1  -6   17.61    0.82 
   3   1   6   18.90    0.81 
  -3   2   6    0.88    0.36 
   3   2  -6    0.03    0.40 
   3  -2  -6    0.82    0.34 
  -3   2  -6   -0.18    0.32 
   3   2   6    0.30    0.29 
   3   0  -7   18.15    0.95 
  -3   0   7   18.20    0.84 
   3   0   7   17.16    0.85 
  -3   1   7   -0.07    0.33 
   3   1  -7    0.77    0.46 
   3   1   7    0.61    0.36 
   3  -1  -7    1.04    0.37 
  -3   2   7   12.55    0.86 
   3   2  -7   13.82    1.02 
   3   2   7   14.37    0.88 
   3   0   8    4.47    0.58 
  -3   0   8    3.43    0.51 
   3   0  -8    4.93    0.67 
  -3   1   8    0.77    0.43 
   3   1  -8    0.36    0.47 
   3   1   8    1.46    0.47 
   4   0   0   24.97    0.50 
  -4   0   0   24.69    0.80 
  -4   1   0  346.59    4.62 
   4   1   0  342.63    3.19 
   4  -1   0  343.55    3.31 
   4   1   0  337.71    3.05 
  -4  -1   0  340.29    4.59 
  -4   1   0  345.61    3.27 
  -4   2   0   13.88    0.49 
   4   2   0   13.59    0.54 
   4  -2   0   14.40    0.58 
   4   3   0  155.63    2.27 
   4  -3   0  155.44    2.42 
   4  -4   0    4.16    0.58 
  -4   0   1  326.40    4.46 
   4   0   1  328.98    3.06 
   4   0  -1  327.71    3.16 
  -4   0   1  330.04    3.04 
  -4   1   1   82.07    1.59 
   4  -1   1   78.37    1.11 
   4   1  -1   79.47    1.60 
  -4   1   1   82.02    1.17 
   4   1  -1   78.16    1.17 
   4  -1  -1   80.06    1.19 
   4  -1  -1   80.77    1.61 
  -4  -1   1   76.62    1.56 
  -4  -1   1   79.88    0.98 
   4   1   1   79.34    1.06 
   4   2  -1  190.75    2.37 
   4  -2   1  188.08    2.38 
  -4   2   1  193.16    2.24 
  -4   2  -1  192.25    2.13 
   4  -2  -1  190.05    2.41 
   4  -3   1   32.37    1.04 
   4   3  -1   32.98    1.05 
   4  -3  -1   32.35    1.04 
   4   4  -1   81.11    1.92 
   4  -4   1   81.50    2.00 
   4  -4  -1   80.16    1.94 
   4   0   2  377.91    3.54 
   4   0  -2  375.73    3.74 
  -4   0   2  386.45    3.53 
  -4   0   2  377.15    5.18 
  -4   1   2   50.20    1.26 
   4   1  -2   48.17    0.99 
   4  -1   2   49.51    0.88 
  -4   1   2   48.09    0.93 
   4  -1   2   48.47    0.83 
   4  -1  -2   48.27    0.96 
  -4  -1   2   50.25    0.74 
  -4  -1   2   49.17    1.26 
   4   1   2   48.74    0.86 
   4   2  -2  225.17    2.82 
  -4   2   2  227.30    2.63 
   4  -2   2  220.52    2.69 
   4  -2  -2  228.59    2.77 
   4   2   2  226.15    2.46 
   4  -3   2   20.38    0.88 
   4   3  -2   20.53    0.91 
   4  -3  -2   20.05    0.87 
   4   0  -3  100.87    1.56 
  -4   0   3  100.29    2.10 
   4   0   3  102.12    1.43 
  -4   0   3  101.95    1.41 
  -4   1   3   22.35    0.92 
   4  -1   3   23.10    0.60 
   4   1  -3   23.11    0.76 
   4  -1   3   22.62    0.63 
  -4   1   3   22.95    0.69 
  -4  -1   3   23.32    0.95 
   4   1   3   22.62    0.65 
  -4  -1   3   22.36    0.52 
   4  -1  -3   22.15    0.72 
   4   2  -3   63.28    1.40 
   4  -2   3   61.25    1.25 
  -4   2   3   62.65    1.24 
   4  -2  -3   61.90    1.30 
   4   2   3   62.29    1.17 
   4  -3   3   14.45    0.80 
  -4   3   3   13.43    0.69 
   4   3  -3   12.49    0.82 
   4  -3  -3   13.35    0.78 
   4   0   4   12.28    0.53 
  -4   0   4   12.12    0.77 
  -4   0   4   10.50    0.51 
   4   0  -4   12.50    0.62 
  -4   1   4   23.16    1.03 
   4   1  -4   24.88    0.87 
   4  -1   4   23.91    0.71 
  -4   1   4   22.95    0.77 
   4   1   4   23.40    0.75 
   4  -1  -4   24.33    0.80 
  -4  -1   4   23.75    1.07 
  -4   1  -4   24.29    0.68 
  -4  -1   4   23.59    0.63 
   4   2  -4    8.41    0.68 
  -4   2   4    8.38    0.58 
   4  -2  -4    7.69    0.57 
   4   2   4    7.79    0.52 
   4   3  -4   12.11    0.87 
  -4   3   4   13.08    0.73 
   4  -3  -4   12.15    0.77 
  -4   0   5    0.86    0.28 
   4   0   5   -0.13    0.22 
   4   0  -5    0.87    0.33 
  -4   1   5   11.82    0.65 
   4   1  -5   12.50    0.80 
   4  -1   5   11.19    0.59 
   4  -1  -5   12.99    0.71 
   4   1   5   11.74    0.64 
  -4   2   5   -0.03    0.29 
   4   2  -5    0.65    0.40 
   4  -2  -5    0.11    0.28 
   4   2   5    0.40    0.29 
  -4   2  -5    0.45    0.30 
  -4   3   5    9.62    0.73 
   4   3  -5    8.64    0.84 
  -4   3  -5   10.02    0.85 
   4  -3  -5    9.09    0.77 
   4   0  -6   97.39    1.95 
  -4   0   6   97.98    1.74 
   4   0   6   98.35    1.78 
   4  -1   6   64.45    1.38 
   4   1  -6   63.70    1.62 
  -4   1   6   68.05    1.52 
   4   1   6   64.92    1.49 
   4  -1  -6   63.87    1.53 
   4   2  -6   75.60    1.92 
  -4   2   6   74.94    1.71 
   4   2   6   75.57    1.68 
   4  -2  -6   73.14    1.67 
  -4   0   7   99.37    1.88 
   4   0   7   96.73    1.92 
   4   0  -7  101.41    2.11 
   4   1  -7  124.40    2.47 
   4  -1   7  128.29    2.17 
  -4   1   7  125.78    2.28 
   4  -1  -7  122.65    2.31 
   4   1   7  127.04    2.32 
   4   2  -7   80.59    2.12 
  -4   2   7   77.55    1.87 
   4   2   7   79.71    1.88 
   4   0   8   31.00    1.19 
   4   0  -8   30.97    1.30 
  -4   0   8   32.46    1.17 
   5   1   0    0.05    0.14 
  -5   1   0   -0.26    0.22 
  -5   1   0   -0.18    0.17 
   5  -1   0   -0.08    0.16 
  -5  -1   0    0.00    0.25 
   5   1   0    0.00    0.17 
   5   2   0    0.10    0.19 
   5  -2   0    0.27    0.21 
  -5   2   0    0.09    0.17 
   5  -3   0    0.03    0.28 
   5   0  -1  277.06    2.82 
  -5   0   1  273.34    4.03 
   5   0   1  273.16    2.75 
  -5   0   1  273.95    2.75 
  -5   1   1    8.78    0.43 
   5  -1   1    8.51    0.38 
   5   1  -1    8.84    0.43 
  -5   1   1    8.63    0.59 
   5  -1  -1    8.32    0.43 
  -5  -1   1    8.52    0.60 
  -5  -1   1    8.69    0.36 
   5   1   1    9.04    0.39 
   5  -2   1  164.10    2.19 
  -5   2   1  165.68    2.11 
   5   2  -1  167.39    2.20 
  -5   2  -1  162.28    2.02 
   5  -2  -1  163.26    2.24 
   5  -3   1    2.32    0.42 
   5   3  -1    2.52    0.44 
   5  -3  -1    3.06    0.43 
  -5   0   2   29.52    0.70 
   5   0   2   30.48    0.70 
  -5   0   2   29.46    1.05 
   5   0  -2   29.26    0.76 
   5  -1   2    1.91    0.22 
  -5   1   2    2.57    0.31 
   5   1  -2    2.40    0.32 
  -5   1   2    2.24    0.40 
   5  -1   2    2.28    0.28 
   5  -1  -2    2.90    0.33 
  -5  -1   2    2.49    0.24 
   5   1   2    1.93    0.25 
  -5  -1   2    1.97    0.40 
  -5   2   2   18.42    0.68 
   5   2  -2   18.39    0.75 
   5  -2   2   20.69    0.71 
   5  -2  -2   18.72    0.73 
   5   2   2   19.29    0.61 
   5   3  -2    1.48    0.41 
   5  -3   2    1.40    0.38 
   5  -3  -2    0.93    0.33 
   5   0  -3   39.71    0.98 
  -5   0   3   41.28    1.31 
   5   0   3   39.99    0.88 
  -5   0   3   40.46    0.87 
   5  -1   3  184.99    2.09 
  -5   1   3  181.11    2.29 
  -5   1   3  182.91    3.20 
   5   1  -3  178.54    2.43 
   5  -1   3  179.16    2.21 
  -5  -1   3  181.48    2.00 
   5  -1  -3  181.92    2.39 
   5   1   3  180.35    2.22 
  -5  -1   3  184.05    3.22 
  -5   2   3   25.64    0.84 
   5   2  -3   26.41    0.95 
   5  -2   3   26.93    0.83 
   5   2   3   25.18    0.76 
   5  -2  -3   25.52    0.89 
   5   3  -3   96.99    2.05 
   5  -3   3   99.83    1.98 
  -5   3   3  100.27    1.83 
   5  -3  -3   96.67    1.95 
  -5   0   4  246.15    4.18 
   5   0  -4  243.06    3.09 
  -5   0   4  248.94    2.81 
   5   0   4  242.17    2.83 
  -5   1   4   64.48    1.83 
   5   1  -4   63.30    1.43 
  -5   1   4   60.28    1.28 
   5  -1   4   62.55    1.21 
  -5  -1   4   61.36    1.78 
   5   1   4   63.36    1.26 
  -5   2   4  169.64    2.46 
   5  -2   4  168.60    2.40 
   5   2  -4  164.21    2.64 
   5   2   4  171.01    2.36 
   5  -2  -4  169.51    2.52 
   5  -3   4   32.22    1.18 
  -5   3   4   34.20    1.14 
   5   3  -4   33.07    1.29 
   5  -3  -4   33.45    1.19 
   5   0   5  202.29    2.65 
   5   0  -5  203.65    2.90 
  -5   0   5  203.43    2.59 
   5   1  -5   22.25    0.98 
  -5   1   5   21.74    0.85 
   5  -1   5   22.95    0.81 
   5  -1  -5   22.51    0.91 
   5   1   5   21.38    0.84 
  -5   2   5  151.84    2.43 
   5   2  -5  149.42    2.63 
   5  -2  -5  149.42    2.45 
  -5   2  -5  153.19    2.38 
   5   2   5  156.78    2.37 
  -5   3   5   13.78    0.85 
   5   3  -5   14.55    1.05 
  -5   3  -5   13.62    0.90 
   5  -3  -5   14.15    0.88 
   5   0   6   97.05    1.82 
   5   0  -6   96.61    2.00 
  -5   0   6   99.43    1.78 
  -5   1   6   48.47    1.31 
   5  -1   6   46.20    1.22 
   5   1  -6   47.20    1.44 
   5  -1  -6   46.66    1.35 
   5   1   6   45.94    1.28 
  -5   2   6   71.90    1.72 
   5   2  -6   69.48    1.88 
   5  -2  -6   76.39    1.75 
   5   2   6   71.77    1.66 
  -5   0   7    0.63    0.37 
   5   0  -7    0.71    0.44 
   5   0   7    0.82    0.37 
   5  -1   7   17.50    0.87 
  -5   1   7   16.77    0.94 
   5   1  -7   16.52    1.03 
   5  -1  -7   16.65    0.95 
   5   1   7   16.52    0.93 
  -6   0   0  188.24    3.19 
   6   0   0  193.86    2.06 
  -6   1   0    0.10    0.18 
   6   1   0    0.65    0.18 
   6   1   0    0.56    0.18 
   6  -1   0    0.00    0.16 
  -6   1   0    0.45    0.27 
  -6  -1   0    0.16    0.28 
   6   2   0  118.11    1.70 
   6  -2   0  119.42    1.86 
  -6   2   0  118.71    1.74 
   6  -3   0   -0.15    0.25 
  -6   0   1   29.28    0.73 
   6   0   1   28.25    0.71 
  -6   0   1   28.86    1.06 
   6   0   1   29.91    0.53 
   6   0  -1   29.11    0.71 
   6  -1   1    0.91    0.19 
  -6   1   1    1.67    0.39 
   6   1  -1    0.94    0.24 
  -6   1   1    1.17    0.25 
  -6  -1   1    0.73    0.19 
   6  -1  -1    0.54    0.21 
   6   1   1    0.44    0.18 
  -6  -1   1    1.43    0.39 
   6  -2   1   18.45    0.69 
  -6   2   1   18.97    0.69 
   6   2  -1   18.13    0.71 
   6  -2  -1   17.84    0.71 
  -6   2  -1   16.67    0.63 
   6  -3   1    0.29    0.29 
   6   3  -1    0.73    0.35 
   6  -3  -1    0.15    0.30 
   6   0   2   33.14    0.81 
  -6   0   2   33.25    0.80 
   6   0  -2   32.94    0.85 
  -6   1   2    4.06    0.55 
   6  -1   2    4.77    0.41 
  -6   1   2    3.86    0.38 
   6  -1   2    4.53    0.33 
   6   1  -2    4.23    0.42 
  -6  -1   2    3.91    0.32 
  -6  -1   2    3.86    0.55 
   6  -1  -2    4.64    0.42 
   6   1   2    4.10    0.35 
   6   2  -2   20.45    0.82 
  -6   2   2   19.56    0.74 
   6  -2   2   20.61    0.73 
   6  -2  -2   20.50    0.79 
   6   2   2   21.13    0.67 
   6  -3   2    1.92    0.41 
   6   3  -2    1.59    0.43 
  -6   3   2    1.13    0.36 
   6  -3  -2    1.87    0.43 
   6   0   3   77.33    1.33 
  -6   0   3   75.93    1.95 
  -6   0   3   78.34    1.32 
   6   0  -3   76.05    1.44 
  -6   1   3    1.35    0.42 
   6  -1   3    1.30    0.23 
   6  -1   3    1.25    0.27 
   6   1  -3    1.69    0.37 
  -6   1   3    1.46    0.32 
  -6  -1   3    1.11    0.41 
  -6  -1   3    1.23    0.25 
   6   1   3    1.44    0.26 
   6  -1  -3    2.06    0.34 
   6  -2   3   51.19    1.18 
  -6   2   3   50.90    1.24 
   6   2  -3   52.22    1.34 
   6  -2  -3   53.32    1.32 
   6   2   3   52.78    1.13 
   6   3  -3    1.14    0.44 
  -6   3   3    1.31    0.39 
   6  -3   3    0.43    0.34 
   6  -3  -3    1.20    0.42 
   6   0   4    2.28    0.34 
   6   0  -4    2.57    0.41 
  -6   0   4    1.95    0.34 
  -6   1   4   20.91    0.82 
   6  -1   4   22.02    0.78 
   6   1  -4   22.86    0.92 
   6   1   4   21.58    0.78 
   6   2  -4    2.09    0.48 
   6  -2   4    0.99    0.32 
  -6   2   4    1.75    0.39 
   6  -2  -4    1.70    0.39 
   6   2   4    1.95    0.37 
  -6   3   4   11.61    0.77 
   6   3  -4   12.18    0.91 
   6  -3   4   12.66    0.80 
   6  -3  -4   12.26    0.82 
   6   0  -5   19.23    0.90 
   6   0   5   19.30    0.80 
  -6   0   5   18.72    0.77 
   6   1  -5   20.66    1.00 
   6  -1   5   19.99    0.81 
  -6   1   5   23.26    0.90 
   6  -1  -5   21.34    0.93 
   6   1   5   20.27    0.84 
  -6   2   5   14.22    0.82 
   6   2  -5   15.44    0.94 
   6  -2  -5   13.18    0.80 
   6   2   5   12.84    0.74 
   6   0  -6    8.43    0.77 
   6   0   6    7.55    0.65 
  -6   0   6    8.28    0.67 
   6  -1   6    1.50    0.38 
   6   1  -6    0.99    0.44 
  -6   1   6    3.01    0.50 
   6  -1  -6    2.10    0.47 
   6   1   6    3.45    0.50 
  -6   2   6    5.57    0.63 
   6   2  -6    6.06    0.76 
   6  -2  -6    5.79    0.67 
   6   2   6    7.00    0.68 
  -6   0   7    0.42    0.35 
   6   0   7    0.31    0.35 
   6   0  -7    0.94    0.49 
   6   1  -7   38.09    1.44 
   6  -1   7   35.51    1.21 
  -6   1   7   33.73    1.25 
   6  -1  -7   37.45    1.36 
   6   1   7   34.82    1.26 
   7   0   0    0.04    0.17 
  -7   0   0   -0.26    0.26 
  -7  -1   0    0.16    0.30 
  -7   1   0    0.49    0.31 
   7   1   0    0.25    0.18 
   7  -1   0    0.92    0.22 
  -7   1   0    0.02    0.20 
  -7   2   0   -0.05    0.21 
   7  -2   0    0.01    0.22 
   7  -3   0   -0.03    0.29 
   7   0   1  128.32    1.46 
   7   0   1  126.97    1.76 
  -7   0   1  132.14    2.63 
  -7   0   1  130.49    1.79 
   7   0  -1  130.87    1.76 
   7   1  -1  197.15    2.35 
   7  -1   1  194.50    2.25 
  -7   1   1  191.74    2.43 
  -7  -1  -1  193.71    3.38 
  -7   1   1  193.34    3.43 
  -7   1  -1  192.24    3.38 
   7   1   1  191.97    2.28 
  -7  -1   1  191.87    2.21 
  -7  -1   1  194.76    3.42 
   7  -1  -1  193.51    2.42 
   7  -2   1   89.02    1.57 
   7   2  -1   90.32    1.58 
  -7   2   1   91.54    1.61 
   7  -2  -1   90.66    1.66 
  -7   2  -1   89.98    1.58 
   7  -3   1   99.85    1.96 
   7  -3  -1   96.51    1.98 
   7   0   2    1.14    0.25 
  -7   0   2    0.93    0.27 
  -7   0   2    1.16    0.40 
   7   0  -2    1.54    0.30 
  -7   1   2  251.31    4.20 
   7  -1   2  253.72    2.94 
   7   1  -2  256.55    3.02 
  -7   1   2  250.18    2.98 
   7  -1   2  255.93    2.71 
   7   1   2  255.09    2.86 
  -7  -1   2  256.37    2.72 
  -7  -1   2  247.58    4.17 
   7  -1  -2  254.44    3.06 
   7   2  -2    0.54    0.31 
  -7   2   2    0.62    0.31 
   7  -2   2    0.85    0.27 
   7  -2  -2    1.74    0.35 
   7   2   2    0.54    0.24 
   7  -3   2  137.69    2.40 
  -7   3   2  136.19    2.26 
   7   3  -2  138.96    2.44 
   7  -3  -2  135.50    2.45 
   7   0  -3   22.68    0.84 
  -7   0   3   22.07    1.25 
  -7   0   3   21.22    0.74 
  -7   1   3  235.90    2.94 
   7  -1   3  239.66    2.91 
   7   1  -3  233.13    3.03 
   7  -1  -3  236.90    3.04 
  -7  -1   3  233.47    2.64 
   7   1   3  234.46    2.83 
   7  -2   3   14.77    0.69 
  -7   2   3   15.42    0.78 
   7   2  -3   16.18    0.84 
   7  -2  -3   15.10    0.79 
   7   2   3   14.96    0.68 
   7   3  -3  136.99    2.54 
   7  -3   3  135.60    2.42 
  -7   3   3  131.19    2.30 
   7  -3  -3  132.53    2.46 
  -7   0   4   71.66    1.41 
   7   0   4   72.76    1.44 
   7   0  -4   71.51    1.58 
   7   1  -4   21.33    0.93 
  -7   1   4   19.76    0.86 
   7  -1   4   21.51    0.81 
   7   1   4   21.59    0.82 
   7  -1  -4   20.07    0.88 
   7   2  -4   56.68    1.53 
  -7   2   4   55.57    1.42 
   7   2   4   53.55    1.30 
   7  -2  -4   54.55    1.45 
   7  -3   4   10.98    0.81 
   7   3  -4   12.12    0.97 
  -7   3   4   11.76    0.82 
   7  -3  -4   13.24    0.90 
   7   0   5   29.44    0.98 
   7   0  -5   29.51    1.12 
  -7   0   5   30.82    0.98 
   7   1  -5   18.92    0.96 
   7  -1   5   17.63    0.83 
  -7   1   5   18.94    0.87 
   7  -1  -5   18.80    0.92 
   7   1   5   17.60    0.81 
   7   2  -5   23.08    1.16 
  -7   2   5   23.29    1.03 
   7   2   5   23.07    0.95 
   7  -2  -5   23.23    1.07 
  -7   0   6    9.02    0.68 
   7   0  -6    6.93    0.74 
   7   0   6    7.05    0.64 
   7  -1   6   74.24    1.67 
  -7   1   6   74.05    1.72 
   7   1  -6   73.33    1.90 
   7  -1  -6   74.38    1.83 
   7   1   6   73.65    1.70 
  -7   2   6    5.29    0.64 
   7   2  -6    6.49    0.80 
   7  -2  -6    5.82    0.70 
   7   2   6    6.57    0.67 
  -7   0   7   16.94    0.92 
   7   0   7   16.37    0.95 
   7   0  -7   16.61    1.07 
  -7   1   7    0.37    0.39 
   7   1  -7    1.40    0.54 
   7  -1   7    0.10    0.36 
   7   1   7    0.50    0.37 
   7  -1  -7    0.09    0.42 
   8   0   0  227.35    2.50 
  -8   0   0  223.00    3.93 
  -8  -1   0  223.82    3.92 
  -8   1   0  231.36    3.98 
   8  -1   0  228.19    2.69 
  -8   1   0  224.74    2.82 
   8  -2   0  155.72    2.33 
  -8   2   0  153.90    2.29 
   8  -3   0  120.63    2.27 
   8   0  -1   41.72    0.95 
  -8   0   1   41.04    1.46 
  -8   0   1   41.44    0.99 
  -8   0  -1   42.14    1.43 
   8   0   1   42.01    0.98 
   8   1  -1   86.70    1.44 
  -8   1   1   85.20    2.18 
  -8  -1  -1   86.04    2.14 
  -8   1   1   85.11    1.55 
   8  -1   1   85.46    1.37 
   8   1   1   87.56    1.44 
  -8  -1   1   88.26    2.19 
  -8   1  -1   88.18    2.16 
   8  -1  -1   86.08    1.50 
  -8  -1   1   87.41    1.40 
   8  -2   1   28.04    0.89 
  -8   2   1   29.49    0.97 
  -8   2  -1   28.74    0.94 
   8  -2  -1   29.96    0.99 
   8  -3   1   48.75    1.41 
   8  -3  -1   50.43    1.47 
   8   0  -2   37.34    0.98 
  -8   0   2   34.40    0.93 
   8   0   2   34.60    0.95 
  -8   1   2    4.27    0.45 
   8  -1   2    5.03    0.47 
   8   1  -2    5.14    0.49 
  -8  -1   2    5.57    0.45 
   8   1   2    4.25    0.42 
   8  -1  -2    6.91    0.55 
   8   2  -2   26.72    0.98 
  -8   2   2   26.20    0.97 
   8  -2   2   27.48    0.89 
  -8   2  -2   26.91    0.90 
   8  -2  -2   26.10    0.99 
   8  -3   2    2.37    0.46 
  -8   3   2    1.98    0.45 
   8  -3  -2    2.29    0.48 
   8   0   3   59.18    1.28 
  -8   0   3   57.03    1.25 
   8   0  -3   58.43    1.34 
   8  -1   3   16.16    0.74 
   8   1  -3   16.26    0.78 
  -8   1   3   15.24    0.77 
   8  -1  -3   17.11    0.79 
   8   1   3   16.67    0.73 
   8  -2   3   41.36    1.10 
   8   2  -3   42.46    1.29 
  -8   2   3   44.70    1.27 
   8   2   3   41.24    1.10 
   8  -2  -3   40.67    1.28 
  -8   3   3    8.18    0.71 
   8   3  -3    9.24    0.83 
   8  -3   3    8.43    0.73 
   8  -3  -3    8.34    0.79 
  -8   0   4   60.86    1.36 
   8   0  -4   60.97    1.49 
   8   0   4   61.76    1.38 
  -8   1   4   37.92    1.16 
   8   1  -4   35.87    1.21 
   8  -1   4   38.32    1.13 
   8  -1  -4   37.25    1.20 
   8   1   4   36.52    1.08 
  -8   2   4   48.53    1.38 
   8   2  -4   48.37    1.49 
   8   2   4   48.63    1.27 
   8  -2  -4   48.49    1.43 
   8   0   5   34.15    1.11 
   8   0  -5   31.63    1.19 
  -8   0   5   32.44    1.08 
   8  -1   5  159.38    2.52 
  -8   1   5  160.66    2.60 
   8   1  -5  161.23    2.76 
   8  -1  -5  161.56    2.75 
   8   1   5  163.45    2.55 
  -8   2   5   24.52    1.09 
   8   2  -5   24.40    1.20 
   8   2   5   26.47    1.06 
   8  -2  -5   27.04    1.16 
   8   0   6    2.40    0.47 
   8   0  -6    3.50    0.60 
  -8   0   6    3.01    0.50 
  -8   1   6   97.15    2.07 
   8   1  -6   97.28    2.23 
   8  -1   6  100.03    2.05 
   8  -1  -6  102.43    2.25 
   8   1   6   99.10    2.07 
   8   0   7  111.08    2.29 
  -8   0   7  110.44    2.18 
   8   0  -7  110.13    2.48 
   9   0   0    0.00    0.19 
   9  -1   0    0.24    0.21 
  -9   1   0    0.07    0.26 
  -9   2   0    0.86    0.32 
   9  -2   0    0.25    0.27 
   9  -3   0    0.60    0.36 
  -9   0   1   15.51    0.69 
   9   0  -1   16.17    0.65 
   9   1  -1   -0.14    0.22 
   9  -1   1    0.02    0.20 
  -9   1   1    0.28    0.29 
  -9  -1   1    0.05    0.23 
   9  -1  -1    0.89    0.29 
   9   1   1    0.20    0.24 
   9  -2   1   10.66    0.64 
  -9   2   1   10.44    0.70 
  -9   2  -1    9.83    0.66 
   9  -2  -1    9.23    0.67 
   9  -3   1    0.42    0.36 
  -9   3   1    0.07    0.35 
   9  -3  -1    0.44    0.37 
  -9   0   2   33.72    0.98 
   9   0  -2   33.80    1.00 
   9   0   2   33.36    0.98 
   9   1  -2  107.01    1.81 
  -9   1   2  103.80    1.87 
  -9  -1   2  103.45    1.66 
   9   1   2  105.39    1.77 
   9  -1  -2  102.49    1.86 
   9  -2   2   23.41    0.87 
   9   2  -2   23.46    0.96 
  -9   2   2   24.42    0.99 
  -9   2  -2   24.03    0.92 
   9  -2  -2   22.92    0.97 
   9  -3   2   61.10    1.61 
  -9   3   2   60.78    1.60 
   9  -3  -2   61.02    1.71 
   9   0   3  184.13    2.61 
   9   0  -3  185.93    2.68 
  -9   0   3  184.73    2.57 
   9  -1   3    7.21    0.62 
   9   1  -3    6.20    0.58 
  -9   1   3    7.19    0.63 
   9   1   3    7.11    0.61 
   9  -1  -3    7.12    0.64 
  -9   2   3  141.07    2.45 
   9   2  -3  142.01    2.47 
   9  -2  -3  144.83    2.54 
   9   2   3  147.63    2.30 
  -9   0   4    0.59    0.35 
   9   0  -4    0.86    0.39 
   9   0   4    0.59    0.33 
   9   1  -4   12.76    0.85 
   9  -1   4   13.49    0.78 
  -9   1   4   12.49    0.81 
   9  -1  -4   13.71    0.83 
   9   1   4   11.92    0.73 
  -9   2   4    0.97    0.42 
   9   2  -4    1.95    0.50 
   9  -2  -4    0.69    0.42 
   9   2   4    1.22    0.38 
  -9   0   5    9.27    0.71 
   9   0  -5    8.56    0.78 
   9   0   5    9.05    0.72 
  -9   1   5   90.90    1.94 
   9  -1   5   90.35    1.91 
   9   1  -5   92.39    2.06 
   9   1   5   87.29    1.88 
   9  -1  -5   87.90    2.02 
  -9   2   5    7.82    0.75 
   9   2  -5    6.29    0.78 
   9  -2  -5    7.07    0.78 
   9   2   5    7.03    0.69 
   9   0   6  130.52    2.44 
   9   0  -6  126.76    2.59 
  -9   0   6  132.65    2.37 
  -9   1   6    1.26    0.48 
   9  -1   6    1.24    0.42 
   9   1  -6    0.43    0.44 
   9  -1  -6   -0.20    0.39 
   9   1   6    1.64    0.45 
  10  -1   0   61.62    1.29 
 -10   1   0   61.34    1.44 
 -10   2   0  192.56    2.88 
  10  -2   0  191.79    2.81 
  10  -3   0   40.68    1.36 
 -10   0   1   23.77    0.88 
  10   0  -1   22.09    0.79 
 -10   1   1    4.50    0.52 
  10   1   1    4.44    0.46 
  10  -1  -1    5.41    0.51 
 -10  -1   1    4.25    0.45 
 -10   2   1   17.56    0.90 
  10  -2   1   18.23    0.81 
 -10   2  -1   17.61    0.87 
  10  -2  -1   17.67    0.88 
  10  -3   1    2.23    0.49 
 -10   3   1    3.06    0.54 
  10  -3  -1    3.02    0.55 
 -10   0   2  131.50    2.11 
  10   0   2  132.01    2.14 
  10   0  -2  133.05    2.12 
 -10   1   2   11.66    0.75 
  10   1  -2   11.78    0.70 
  10   1   2   11.72    0.69 
 -10  -1   2   11.38    0.65 
  10  -1  -2   11.44    0.70 
 -10   2   2  102.06    2.06 
 -10   2  -2  102.19    2.00 
  10  -2  -2  103.51    2.08 
  10   0  -3  107.80    2.02 
  10   0   3  110.04    1.99 
 -10   0   3  106.09    1.93 
 -10   1   3   11.32    0.80 
  10  -1   3   11.84    0.75 
  10   1  -3   12.37    0.80 
  10  -1  -3   12.65    0.80 
  10   1   3   11.57    0.72 
  10   2  -3   83.58    1.90 
 -10   2   3   86.03    1.92 
  10  -2  -3   82.45    1.92 
  10   2   3   84.67    1.80 
  10   0  -4    9.23    0.78 
 -10   0   4   10.80    0.75 
  10   0   4   11.33    0.76 
 -10   1   4    0.13    0.38 
  10   1  -4    0.41    0.39 
  10  -1   4    1.42    0.40 
  10  -1  -4    0.36    0.38 
  10   1   4    1.36    0.41 
 -10   2   4    9.50    0.83 
  10   2  -4    8.85    0.85 
  10   2   4    8.76    0.74 
  10  -2  -4   10.16    0.89 
  10   0   5   57.31    1.55 
  10   0  -5   56.50    1.66 
 -10   0   5   56.63    1.51 
  10   1  -5    0.32    0.41 
  10  -1   5    0.29    0.35 
 -10   1   5    0.72    0.42 
  10   1   5    0.01    0.34 
  10  -1  -5    0.59    0.43 
  10   0   6   -0.08    0.39 
  10   0  -6    0.00    0.47 
 -10   0   6   -0.03    0.37 
 -11   0   0    0.35    0.29 
 -11   1   0   -0.03    0.31 
  11  -1   0    0.78    0.29 
 -11   2   0    0.45    0.37 
  11  -2   0    0.22    0.32 
 -11   0   1   11.15    0.67 
  11   0  -1    8.45    0.63 
 -11   1   1  102.52    2.00 
 -11   1  -1  101.28    1.95 
 -11  -1   1  104.87    1.83 
  11  -1  -1   99.82    1.87 
  11  -2   1    6.57    0.59 
 -11   2   1    7.08    0.70 
 -11   2  -1    6.37    0.65 
  11  -2  -1    5.60    0.61 
  11   0   2   44.26    1.26 
 -11   0   2   45.75    1.26 
  11   0  -2   44.54    1.22 
 -11   1   2    2.84    0.52 
  11  -1  -2    2.34    0.42 
  11   1   2    2.54    0.44 
 -11   2   2   36.65    1.32 
 -11   2  -2   37.36    1.28 
  11  -2  -2   37.47    1.29 
  11   0  -3    6.31    0.63 
  11   0   3    6.67    0.64 
 -11   0   3    6.50    0.63 
  11   1  -3   14.42    0.84 
 -11   1   3   13.66    0.88 
  11  -1  -3   13.47    0.88 
  11   1   3   14.17    0.84 
 -11   2   3    5.15    0.68 
  11  -2  -3    6.59    0.71 
  11   0   4   51.18    1.49 
  11   0  -4   53.37    1.55 
 -11   0   4   55.90    1.49 
  11  -1   4  119.30    2.32 
 -11   1   4  120.05    2.36 
  11   1  -4  122.92    2.38 
  11   1   4  123.11    2.30 
  11  -1  -4  119.67    2.41 
  11   0   5   49.33    1.53 
  11   0  -5   50.06    1.61 
 -11   0   5   53.41    1.54 
  11   1  -5    1.00    0.46 
  11  -1   5    0.39    0.40 
 -11   1   5    0.22    0.43 
  11   1   5    1.27    0.45 
  11  -1  -5    1.18    0.50 
 -12   0   0   45.21    1.30 
 -12   1   0    0.02    0.34 
 -12  -1   0    0.77    0.33 
  12  -2   0   37.71    1.26 
 -12   2   0   37.02    1.34 
 -12   0   1   92.60    1.86 
 -12   1   1   60.17    1.60 
 -12  -1   1   62.63    1.46 
 -12   1  -1   62.67    1.60 
  12  -1  -1   61.15    1.50 
 -12   2   1   77.13    1.91 
  12  -2  -1   75.07    1.81 
 -12   2  -1   73.67    1.83 
 -12   0   2    4.21    0.54 
  12   0  -2    3.72    0.51 
 -12   1   2  158.56    2.72 
  12   1   2  163.78    2.61 
  12  -1  -2  160.56    2.63 
 -12   2   2    3.69    0.61 
  12  -2  -2    2.39    0.50 
 -12   2  -2    3.54    0.59 
  12   0  -3    2.63    0.50 
 -12   0   3    1.82    0.49 
  12   0   3    1.94    0.48 
  12   1  -3    1.08    0.43 
 -12   1   3    0.40    0.41 
  12  -1  -3    1.60    0.46 
  12   1   3    1.11    0.42 
  12   0  -4   18.87    1.03 
  12   0   4   19.55    1.04 
 -12   0   4   18.10    0.99 
 -12   1   4  106.97    2.30 
  12   1  -4  109.93    2.31 
  12  -1  -4  107.11    2.35 
  12   1   4  107.39    2.26 
 -13   0   0    0.82    0.37 
 -13   1   0    0.20    0.35 
 -13  -1   0    0.59    0.36 
 -13   0   1   -0.16    0.34 
 -13   1   1  118.20    2.35 
 -13   1  -1  114.50    2.33 
 -13   0   2   33.89    1.23 
 -13   1   2    4.24    0.63 
  13  -1  -2    5.61    0.63 
  13   0  -3   14.14    0.91 
 -13   0   3   13.19    0.92 
 -13   1   3    1.22    0.51 
  13  -1  -3    2.00    0.50 
  13   1   3    2.09    0.49 
 -14   0   0  143.03    2.60 
 -14   1   0   19.23    1.07 
 -14  -1   0   18.48    0.96 
 -14   0  -1   10.96    0.83 
 -14   0   1    9.87    0.83 
 -14   0   2   63.79    1.72 
   0   0   0    0.00    0.00 
;
_shelx_hkl_checksum              37279
#END Tags that were not found in dictionaries
loop_
_space_group_symop_operation_xyz
'x, y, z'
'-x+1/2, -y, z'
'-x, y, -z'
'x+1/2, -y, -z'
'-x, -y, -z'
'x-1/2, y, -z'
'x, -y, z'
'-x-1/2, y, z'
loop_
_atom_site_label
_atom_site_type_symbol
_atom_site_fract_x
_atom_site_fract_y
_atom_site_fract_z
_atom_site_U_iso_or_equiv
_atom_site_adp_type
_atom_site_occupancy
_atom_site_site_symmetry_order
_atom_site_calc_flag
_atom_site_refinement_flags_posn
_atom_site_refinement_flags_adp
_atom_site_refinement_flags_occupancy
Ru1 Ru 0.37555(3) 0.5000 0.57236(5) 0.00257(9) Uani 1 2 d S T P
Ru2 Ru 0.2500 0.5000 0.20104(7) 0.00408(12) Uani 1 4 d S T P
Nb1 Nb 0.54380(3) 0.0000 0.77720(5) 0.00324(10) Uani 1 2 d S T P
Nb2 Nb 0.2500 0.0000 0.85518(8) 0.00245(12) Uani 1 4 d S T P
B1 B 0.4163(4) 0.5000 0.9499(7) 0.0051(9) Uani 1 2 d S T P
B2 B 0.2500 0.0000 0.4501(10) 0.0078(13) Uani 1 4 d S T P
loop_
_atom_site_aniso_label
_atom_site_aniso_U_11
_atom_site_aniso_U_22
_atom_site_aniso_U_33
_atom_site_aniso_U_23
_atom_site_aniso_U_13
_atom_site_aniso_U_12
Ru1 0.00200(16) 0.00325(16) 0.00246(14) 0.000 0.00006(11) 0.000
Ru2 0.0019(2) 0.0078(3) 0.0026(2) 0.000 0.000 0.000
Nb1 0.00282(17) 0.00210(18) 0.00480(18) 0.000 -0.00087(13) 0.000
Nb2 0.0019(2) 0.0021(2) 0.0033(2) 0.000 0.000 0.000
B1 0.007(2) 0.007(2) 0.001(2) 0.000 0.0008(16) 0.000
B2 0.009(3) 0.009(3) 0.006(3) 0.000 0.000 0.000
loop_
_atom_type_symbol
_atom_type_description
_atom_type_scat_dispersion_real
_atom_type_scat_dispersion_imag
_atom_type_scat_source
B B 0.0013 0.0007 'International Tables Vol C Tables 4.2.6.8 and 6.1.1.4'
Nb Nb -2.0727 0.6215 'International Tables Vol C Tables 4.2.6.8 and 6.1.1.4'
Ru Ru -1.2594 0.8363 'International Tables Vol C Tables 4.2.6.8 and 6.1.1.4'
loop_
_geom_angle_atom_site_label_1
_geom_angle_atom_site_label_2
_geom_angle_atom_site_label_3
_geom_angle
_geom_angle_site_symmetry_1
_geom_angle_site_symmetry_3
B2 Ru1 B2 90.26(12) . 1_565
B2 Ru1 B1 117.04(17) . .
B2 Ru1 B1 117.04(17) 1_565 .
B2 Ru1 Ru2 52.47(14) . .
B2 Ru1 Ru2 52.47(14) 1_565 .
B1 Ru1 Ru2 160.42(11) . .
B2 Ru1 Ru1 52.19(5) . 2_565
B2 Ru1 Ru1 52.19(5) 1_565 2_565
B1 Ru1 Ru1 100.47(11) . 2_565
Ru2 Ru1 Ru1 59.944(9) . 2_565
B2 Ru1 Nb1 169.05(12) . 1_565
B2 Ru1 Nb1 99.60(7) 1_565 1_565
B1 Ru1 Nb1 54.02(8) . 1_565
Ru2 Ru1 Nb1 138.105(10) . 1_565
Ru1 Ru1 Nb1 131.809(10) 2_565 1_565
B2 Ru1 Nb1 99.60(7) . .
B2 Ru1 Nb1 169.05(12) 1_565 .
B1 Ru1 Nb1 54.02(7) . .
Ru2 Ru1 Nb1 138.105(10) . .
Ru1 Ru1 Nb1 131.809(9) 2_565 .
Nb1 Ru1 Nb1 70.204(13) 1_565 .
B2 Ru1 Nb2 61.16(16) . .
B2 Ru1 Nb2 109.27(10) 1_565 .
B1 Ru1 Nb2 56.52(8) . .
Ru2 Ru1 Nb2 108.453(14) . .
Ru1 Ru1 Nb2 60.281(8) 2_565 .
Nb1 Ru1 Nb2 110.520(16) 1_565 .
Nb1 Ru1 Nb2 72.030(11) . .
B2 Ru1 Nb2 109.27(10) . 1_565
B2 Ru1 Nb2 61.16(16) 1_565 1_565
B1 Ru1 Nb2 56.52(8) . 1_565
Ru2 Ru1 Nb2 108.453(14) . 1_565
Ru1 Ru1 Nb2 60.281(8) 2_565 1_565
Nb1 Ru1 Nb2 72.030(11) 1_565 1_565
Nb1 Ru1 Nb2 110.520(16) . 1_565
Nb2 Ru1 Nb2 69.928(14) . 1_565
B2 Ru1 Ru1 117.92(9) . 5_666
B2 Ru1 Ru1 117.92(9) 1_565 5_666
B1 Ru1 Ru1 98.29(11) . 5_666
Ru2 Ru1 Ru1 101.291(16) . 5_666
Ru1 Ru1 Ru1 161.235(12) 2_565 5_666
Nb1 Ru1 Ru1 61.402(13) 1_565 5_666
Nb1 Ru1 Ru1 61.402(13) . 5_666
Nb2 Ru1 Ru1 132.790(12) . 5_666
Nb2 Ru1 Ru1 132.790(12) 1_565 5_666
B2 Ru1 Nb1 61.72(12) . 5_656
B2 Ru1 Nb1 107.93(16) 1_565 5_656
B1 Ru1 Nb1 135.02(7) . 5_656
Ru2 Ru1 Nb1 58.790(11) . 5_656
Ru1 Ru1 Nb1 107.842(10) 2_565 5_656
Nb1 Ru1 Nb1 118.737(14) 1_565 5_656
Nb1 Ru1 Nb1 81.182(14) . 5_656
Nb2 Ru1 Nb1 110.017(10) . 5_656
Nb2 Ru1 Nb1 166.962(16) 1_565 5_656
Ru1 Ru1 Nb1 57.335(11) 5_666 5_656
B2 Ru1 Nb1 107.93(16) . 5_666
B2 Ru1 Nb1 61.72(12) 1_565 5_666
B1 Ru1 Nb1 135.02(7) . 5_666
Ru2 Ru1 Nb1 58.790(11) . 5_666
Ru1 Ru1 Nb1 107.842(10) 2_565 5_666
Nb1 Ru1 Nb1 81.182(14) 1_565 5_666
Nb1 Ru1 Nb1 118.737(14) . 5_666
Nb2 Ru1 Nb1 166.962(16) . 5_666
Nb2 Ru1 Nb1 110.018(10) 1_565 5_666
Ru1 Ru1 Nb1 57.335(11) 5_666 5_666
Nb1 Ru1 Nb1 66.919(12) 5_656 5_666
B2 Ru2 B2 89.9(2) 1_565 .
B2 Ru2 B1 117.93(9) 1_565 2_564
B2 Ru2 B1 117.93(9) . 2_564
B2 Ru2 B1 117.93(9) 1_565 1_554
B2 Ru2 B1 117.93(9) . 1_554
B1 Ru2 B1 97.2(2) 2_564 1_554
B2 Ru2 Nb2 170.76(12) 1_565 1_554
B2 Ru2 Nb2 99.39(12) . 1_554
B1 Ru2 Nb2 57.50(8) 2_564 1_554
B1 Ru2 Nb2 57.50(8) 1_554 1_554
B2 Ru2 Nb2 99.39(12) 1_565 1_564
B2 Ru2 Nb2 170.76(12) . 1_564
B1 Ru2 Nb2 57.50(8) 2_564 1_564
B1 Ru2 Nb2 57.50(8) 1_554 1_564
Nb2 Ru2 Nb2 71.367(18) 1_554 1_564
B2 Ru2 Ru1 52.21(9) 1_565 2_565
B2 Ru2 Ru1 52.21(9) . 2_565
B1 Ru2 Ru1 101.36(11) 2_564 2_565
B1 Ru2 Ru1 161.47(11) 1_554 2_565
Nb2 Ru2 Ru1 134.671(7) 1_554 2_565
Nb2 Ru2 Ru1 134.671(7) 1_564 2_565
B2 Ru2 Ru1 52.21(9) 1_565 .
B2 Ru2 Ru1 52.21(9) . .
B1 Ru2 Ru1 161.47(11) 2_564 .
B1 Ru2 Ru1 101.36(11) 1_554 .
Nb2 Ru2 Ru1 134.671(7) 1_554 .
Nb2 Ru2 Ru1 134.671(7) 1_564 .
Ru1 Ru2 Ru1 60.112(17) 2_565 .
B2 Ru2 Nb1 63.79(5) 1_565 5_666
B2 Ru2 Nb1 111.73(6) . 5_666
B1 Ru2 Nb1 130.23(7) 2_564 5_666
B1 Ru2 Nb1 54.61(7) 1_554 5_666
Nb2 Ru2 Nb1 112.099(13) 1_554 5_666
Nb2 Ru2 Nb1 72.879(9) 1_564 5_666
Ru1 Ru2 Nb1 111.436(15) 2_565 5_666
Ru1 Ru2 Nb1 63.087(10) . 5_666
B2 Ru2 Nb1 111.73(6) 1_565 6_556
B2 Ru2 Nb1 63.79(5) . 6_556
B1 Ru2 Nb1 54.61(7) 2_564 6_556
B1 Ru2 Nb1 130.23(7) 1_554 6_556
Nb2 Ru2 Nb1 72.879(9) 1_554 6_556
Nb2 Ru2 Nb1 112.099(13) 1_564 6_556
Ru1 Ru2 Nb1 63.087(10) 2_565 6_556
Ru1 Ru2 Nb1 111.436(15) . 6_556
Nb1 Ru2 Nb1 174.23(2) 5_666 6_556
B2 Ru2 Nb1 63.79(5) 1_565 6_566
B2 Ru2 Nb1 111.73(6) . 6_566
B1 Ru2 Nb1 54.61(7) 2_564 6_566
B1 Ru2 Nb1 130.23(7) 1_554 6_566
Nb2 Ru2 Nb1 112.099(13) 1_554 6_566
Nb2 Ru2 Nb1 72.879(9) 1_564 6_566
Ru1 Ru2 Nb1 63.087(10) 2_565 6_566
Ru1 Ru2 Nb1 111.436(15) . 6_566
Nb1 Ru2 Nb1 109.516(12) 5_666 6_566
Nb1 Ru2 Nb1 70.176(12) 6_556 6_566
B2 Ru2 Nb1 111.73(6) 1_565 5_656
B2 Ru2 Nb1 63.79(5) . 5_656
B1 Ru2 Nb1 130.23(7) 2_564 5_656
B1 Ru2 Nb1 54.61(7) 1_554 5_656
Nb2 Ru2 Nb1 72.879(9) 1_554 5_656
Nb2 Ru2 Nb1 112.099(13) 1_564 5_656
Ru1 Ru2 Nb1 111.436(15) 2_565 5_656
Ru1 Ru2 Nb1 63.087(10) . 5_656
Nb1 Ru2 Nb1 70.176(11) 5_666 5_656
Nb1 Ru2 Nb1 109.516(12) 6_556 5_656
Nb1 Ru2 Nb1 174.23(2) 6_566 5_656
B1 Nb1 B1 83.50(14) . 1_545
B1 Nb1 B1 47.8(2) . 5_667
B1 Nb1 B1 102.14(7) 1_545 5_667
B1 Nb1 B1 102.14(7) . 5_657
B1 Nb1 B1 47.8(2) 1_545 5_657
B1 Nb1 B1 82.90(14) 5_667 5_657
B1 Nb1 B2 137.94(7) . 5_656
B1 Nb1 B2 137.94(7) 1_545 5_656
B1 Nb1 B2 103.94(14) 5_667 5_656
B1 Nb1 B2 103.94(14) 5_657 5_656
B1 Nb1 Ru1 56.42(10) . .
B1 Nb1 Ru1 102.28(10) 1_545 .
B1 Nb1 Ru1 94.90(8) 5_667 .
B1 Nb1 Ru1 147.86(11) 5_657 .
B2 Nb1 Ru1 107.68(10) 5_656 .
B1 Nb1 Ru1 102.28(10) . 1_545
B1 Nb1 Ru1 56.42(10) 1_545 1_545
B1 Nb1 Ru1 147.86(11) 5_667 1_545
B1 Nb1 Ru1 94.90(8) 5_657 1_545
B2 Nb1 Ru1 107.68(10) 5_656 1_545
Ru1 Nb1 Ru1 70.203(13) . 1_545
B1 Nb1 Ru2 94.10(9) . 5_666
B1 Nb1 Ru2 146.84(11) 1_545 5_666
B1 Nb1 Ru2 55.55(11) 5_667 5_666
B1 Nb1 Ru2 101.27(10) 5_657 5_666
B2 Nb1 Ru2 48.75(8) 5_656 5_666
Ru1 Nb1 Ru2 103.757(10) . 5_666
Ru1 Nb1 Ru2 154.013(18) 1_545 5_666
B1 Nb1 Ru2 146.84(11) . 5_656
B1 Nb1 Ru2 94.10(9) 1_545 5_656
B1 Nb1 Ru2 101.27(10) 5_667 5_656
B1 Nb1 Ru2 55.55(10) 5_657 5_656
B2 Nb1 Ru2 48.75(8) 5_656 5_656
Ru1 Nb1 Ru2 154.013(18) . 5_656
Ru1 Nb1 Ru2 103.757(10) 1_545 5_656
Ru2 Nb1 Ru2 70.176(12) 5_666 5_656
B1 Nb1 Ru1 154.92(11) . 5_656
B1 Nb1 Ru1 99.87(8) 1_545 5_656
B1 Nb1 Ru1 150.87(11) 5_667 5_656
B1 Nb1 Ru1 98.26(8) 5_657 5_656
B2 Nb1 Ru1 47.33(8) 5_656 5_656
Ru1 Nb1 Ru1 98.817(14) . 5_656
Ru1 Nb1 Ru1 61.262(14) 1_545 5_656
Ru2 Nb1 Ru1 96.072(15) 5_666 5_656
Ru2 Nb1 Ru1 58.123(12) 5_656 5_656
B1 Nb1 Ru1 99.87(8) . 5_666
B1 Nb1 Ru1 154.92(11) 1_545 5_666
B1 Nb1 Ru1 98.26(8) 5_667 5_666
B1 Nb1 Ru1 150.87(11) 5_657 5_666
B2 Nb1 Ru1 47.33(8) 5_656 5_666
Ru1 Nb1 Ru1 61.262(14) . 5_666
Ru1 Nb1 Ru1 98.817(14) 1_545 5_666
Ru2 Nb1 Ru1 58.123(12) 5_666 5_666
Ru2 Nb1 Ru1 96.072(15) 5_656 5_666
Ru1 Nb1 Ru1 66.919(12) 5_656 5_666
B1 Nb1 Nb1 51.28(9) . 5_657
B1 Nb1 Nb1 51.28(9) 1_545 5_657
B1 Nb1 Nb1 50.86(9) 5_667 5_657
B1 Nb1 Nb1 50.86(9) 5_657 5_657
B2 Nb1 Nb1 141.38(12) 5_656 5_657
Ru1 Nb1 Nb1 103.705(17) . 5_657
Ru1 Nb1 Nb1 103.705(17) 1_545 5_657
Ru2 Nb1 Nb1 102.281(17) 5_666 5_657
Ru2 Nb1 Nb1 102.281(17) 5_656 5_657
Ru1 Nb1 Nb1 146.426(6) 5_656 5_657
Ru1 Nb1 Nb1 146.426(6) 5_666 5_657
B1 Nb2 B1 151.8(2) . 2
B1 Nb2 B1 79.24(13) . 1_545
B1 Nb2 B1 93.92(15) 2 1_545
B1 Nb2 B1 93.92(15) . 2_565
B1 Nb2 B1 79.24(13) 2 2_565
B1 Nb2 B1 151.8(2) 1_545 2_565
B1 Nb2 B2 104.08(10) . .
B1 Nb2 B2 104.08(10) 2 .
B1 Nb2 B2 104.08(10) 1_545 .
B1 Nb2 B2 104.08(10) 2_565 .
B1 Nb2 Ru2 55.28(10) . 1_556
B1 Nb2 Ru2 100.04(9) 2 1_556
B1 Nb2 Ru2 100.04(9) 1_545 1_556
B1 Nb2 Ru2 55.28(10) 2_565 1_556
B2 Nb2 Ru2 144.317(9) . 1_556
B1 Nb2 Ru2 100.04(9) . 1_546
B1 Nb2 Ru2 55.28(10) 2 1_546
B1 Nb2 Ru2 55.28(10) 1_545 1_546
B1 Nb2 Ru2 100.04(9) 2_565 1_546
B2 Nb2 Ru2 144.317(9) . 1_546
Ru2 Nb2 Ru2 71.366(18) 1_556 1_546
B1 Nb2 Ru1 55.32(10) . .
B1 Nb2 Ru1 152.44(10) 2 .
B1 Nb2 Ru1 99.32(9) 1_545 .
B1 Nb2 Ru1 98.95(7) 2_565 .
B2 Nb2 Ru1 49.265(10) . .
Ru2 Nb2 Ru1 101.290(9) 1_556 .
Ru2 Nb2 Ru1 149.804(9) 1_546 .
B1 Nb2 Ru1 152.44(10) . 2
B1 Nb2 Ru1 55.32(10) 2 2
B1 Nb2 Ru1 98.95(7) 1_545 2
B1 Nb2 Ru1 99.32(9) 2_565 2
B2 Nb2 Ru1 49.265(10) . 2
Ru2 Nb2 Ru1 149.805(9) 1_556 2
Ru2 Nb2 Ru1 101.290(10) 1_546 2
Ru1 Nb2 Ru1 98.53(2) . 2
B1 Nb2 Ru1 99.32(9) . 1_545
B1 Nb2 Ru1 98.95(7) 2 1_545
B1 Nb2 Ru1 55.32(10) 1_545 1_545
B1 Nb2 Ru1 152.44(10) 2_565 1_545
B2 Nb2 Ru1 49.265(10) . 1_545
Ru2 Nb2 Ru1 149.804(10) 1_556 1_545
Ru2 Nb2 Ru1 101.290(10) 1_546 1_545
Ru1 Nb2 Ru1 69.928(14) . 1_545
Ru1 Nb2 Ru1 59.438(16) 2 1_545
B1 Nb2 Ru1 98.95(7) . 2_565
B1 Nb2 Ru1 99.32(9) 2 2_565
B1 Nb2 Ru1 152.44(10) 1_545 2_565
B1 Nb2 Ru1 55.32(10) 2_565 2_565
B2 Nb2 Ru1 49.265(10) . 2_565
Ru2 Nb2 Ru1 101.290(10) 1_556 2_565
Ru2 Nb2 Ru1 149.805(9) 1_546 2_565
Ru1 Nb2 Ru1 59.438(16) . 2_565
Ru1 Nb2 Ru1 69.928(14) 2 2_565
Ru1 Nb2 Ru1 98.53(2) 1_545 2_565
B1 Nb2 Nb2 50.38(7) . 1_565
B1 Nb2 Nb2 129.62(7) 2 1_565
B1 Nb2 Nb2 129.62(7) 1_545 1_565
B1 Nb2 Nb2 50.38(7) 2_565 1_565
B2 Nb2 Nb2 90.000(1) . 1_565
Ru2 Nb2 Nb2 54.316(9) 1_556 1_565
Ru2 Nb2 Nb2 125.683(9) 1_546 1_565
Ru1 Nb2 Nb2 55.036(7) . 1_565
Ru1 Nb2 Nb2 124.964(7) 2 1_565
Ru1 Nb2 Nb2 124.964(7) 1_545 1_565
Ru1 Nb2 Nb2 55.036(7) 2_565 1_565
B1 B1 Nb1 66.47(18) 5_667 1_565
B1 B1 Nb1 66.47(18) 5_667 .
Nb1 B1 Nb1 83.50(14) 1_565 .
B1 B1 Nb1 65.69(17) 5_667 5_667
Nb1 B1 Nb1 77.86(7) 1_565 5_667
Nb1 B1 Nb1 132.2(2) . 5_667
B1 B1 Nb1 65.69(17) 5_667 5_657
Nb1 B1 Nb1 132.2(2) 1_565 5_657
Nb1 B1 Nb1 77.86(7) . 5_657
Nb1 B1 Nb1 82.89(14) 5_667 5_657
B1 B1 Ru2 119.3(3) 5_667 1_556
Nb1 B1 Ru2 138.16(7) 1_565 1_556
Nb1 B1 Ru2 138.16(7) . 1_556
Nb1 B1 Ru2 69.84(11) 5_667 1_556
Nb1 B1 Ru2 69.84(11) 5_657 1_556
B1 B1 Ru1 119.7(3) 5_667 .
Nb1 B1 Ru1 69.57(11) 1_565 .
Nb1 B1 Ru1 69.57(11) . .
Nb1 B1 Ru1 138.43(7) 5_667 .
Nb1 B1 Ru1 138.43(7) 5_657 .
Ru2 B1 Ru1 120.94(19) 1_556 .
B1 B1 Nb2 140.37(7) 5_667 1_565
Nb1 B1 Nb2 83.69(7) 1_565 1_565
Nb1 B1 Nb2 137.68(19) . 1_565
Nb1 B1 Nb2 83.55(7) 5_667 1_565
Nb1 B1 Nb2 137.05(19) 5_657 1_565
Ru2 B1 Nb2 67.22(11) 1_556 1_565
Ru1 B1 Nb2 68.16(11) . 1_565
B1 B1 Nb2 140.37(7) 5_667 .
Nb1 B1 Nb2 137.68(19) 1_565 .
Nb1 B1 Nb2 83.69(7) . .
Nb1 B1 Nb2 137.05(19) 5_667 .
Nb1 B1 Nb2 83.55(7) 5_657 .
Ru2 B1 Nb2 67.22(11) 1_556 .
Ru1 B1 Nb2 68.16(11) . .
Nb2 B1 Nb2 79.24(13) 1_565 .
Ru1 B2 Ru1 139.1(3) . 2
Ru1 B2 Ru1 75.63(9) . 2_565
Ru1 B2 Ru1 90.26(12) 2 2_565
Ru1 B2 Ru1 90.26(12) . 1_545
Ru1 B2 Ru1 75.63(9) 2 1_545
Ru1 B2 Ru1 139.1(3) 2_565 1_545
Ru1 B2 Ru2 75.32(5) . .
Ru1 B2 Ru2 138.38(16) 2 .
Ru1 B2 Ru2 75.32(5) 2_565 .
Ru1 B2 Ru2 138.38(16) 1_545 .
Ru1 B2 Ru2 138.38(16) . 1_545
Ru1 B2 Ru2 75.32(5) 2 1_545
Ru1 B2 Ru2 138.38(16) 2_565 1_545
Ru1 B2 Ru2 75.32(5) 1_545 1_545
Ru2 B2 Ru2 89.9(2) . 1_545
Ru1 B2 Nb2 69.57(16) . .
Ru1 B2 Nb2 69.57(16) 2 .
Ru1 B2 Nb2 69.57(16) 2_565 .
Ru1 B2 Nb2 69.57(16) 1_545 .
Ru2 B2 Nb2 135.07(12) . .
Ru2 B2 Nb2 135.07(12) 1_545 .
Ru1 B2 Nb1 134.78(8) . 6_556
Ru1 B2 Nb1 70.94(4) 2 6_556
Ru1 B2 Nb1 70.94(4) 2_565 6_556
Ru1 B2 Nb1 134.78(8) 1_545 6_556
Ru2 B2 Nb1 67.46(13) . 6_556
Ru2 B2 Nb1 67.46(13) 1_545 6_556
Nb2 B2 Nb1 122.78(12) . 6_556
Ru1 B2 Nb1 70.94(4) . 5_656
Ru1 B2 Nb1 134.78(8) 2 5_656
Ru1 B2 Nb1 134.78(8) 2_565 5_656
Ru1 B2 Nb1 70.94(4) 1_545 5_656
Ru2 B2 Nb1 67.46(13) . 5_656
Ru2 B2 Nb1 67.46(13) 1_545 5_656
Nb2 B2 Nb1 122.78(12) . 5_656
Nb1 B2 Nb1 114.4(2) 6_556 5_656
loop_
_geom_bond_atom_site_label_1
_geom_bond_atom_site_label_2
_geom_bond_distance
_geom_bond_site_symmetry_2
Ru1 B2 2.225(2) .
Ru1 B2 2.225(2) 1_565
Ru1 B1 2.438(4) .
Ru1 Ru2 2.7242(5) .
Ru1 Ru1 2.7287(7) 2_565
Ru1 Nb1 2.7427(4) 1_565
Ru1 Nb1 2.7427(4) .
Ru1 Nb2 2.7521(4) .
Ru1 Nb2 2.7522(4) 1_565
Ru1 Ru1 2.8567(7) 5_666
Ru1 Nb1 2.8605(4) 5_656
Ru1 Nb1 2.8605(4) 5_666
Ru2 B2 2.233(5) 1_565
Ru2 B2 2.233(5) .
Ru2 B1 2.410(4) 2_564
Ru2 B1 2.410(4) 1_554
Ru2 Nb2 2.7038(6) 1_554
Ru2 Nb2 2.7038(6) 1_564
Ru2 Ru1 2.7241(5) 2_565
Ru2 Nb1 2.7437(4) 5_666
Ru2 Nb1 2.7437(4) 6_556
Ru2 Nb1 2.7437(4) 6_566
Ru2 Nb1 2.7437(4) 5_656
Nb1 B1 2.368(3) .
Nb1 B1 2.368(3) 1_545
Nb1 B1 2.383(3) 5_667
Nb1 B1 2.383(3) 5_657
Nb1 B2 2.665(4) 5_656
Nb1 Ru1 2.7427(4) 1_545
Nb1 Ru2 2.7437(4) 5_666
Nb1 Ru2 2.7437(4) 5_656
Nb1 Ru1 2.8605(4) 5_656
Nb1 Ru1 2.8605(4) 5_666
Nb1 Nb1 2.9854(7) 5_657
Nb2 B1 2.473(4) .
Nb2 B1 2.473(4) 2
Nb2 B1 2.473(3) 1_545
Nb2 B1 2.473(3) 2_565
Nb2 B2 2.573(7) .
Nb2 Ru2 2.7038(6) 1_556
Nb2 Ru2 2.7038(6) 1_546
Nb2 Ru1 2.7522(4) 2
Nb2 Ru1 2.7522(4) 1_545
Nb2 Ru1 2.7522(4) 2_565
Nb2 Nb2 3.1543(3) 1_565
B1 B1 1.926(9) 5_667
B1 Nb1 2.368(3) 1_565
B1 Nb1 2.383(3) 5_667
B1 Nb1 2.383(3) 5_657
B1 Ru2 2.410(4) 1_556
B1 Nb2 2.473(3) 1_565
B2 Ru1 2.225(2) 2
B2 Ru1 2.225(2) 2_565
B2 Ru1 2.225(2) 1_545
B2 Ru2 2.233(5) 1_545
B2 Nb1 2.665(4) 6_556
B2 Nb1 2.665(4) 5_656
