#------------------------------------------------------------------------------
#$Date: 2019-10-29 23:16:05 +0200 (Tue, 29 Oct 2019) $
#$Revision: 220402 $
#$URL: file:///home/coder/svn-repositories/cod/cif/4/00/29/4002978.cif $
#------------------------------------------------------------------------------
#
# This file is available in the Crystallography Open Database (COD),
# http://www.crystallography.net/
#
# All data on this site have been placed in the public domain by the
# contributors.
#
data_4002978
loop_
_publ_author_name
'Carnicom, Elizabeth M.'
'Xie, Weiwei'
'Yang, Zoe'
'G\'ornicka, Karolina'
'Kong, Tai'
'Klimczuk, Tomasz'
'Cava, Robert J.'
_publ_section_title
;
 Importance of Specific Heat Characterization when Reporting New
 Superconductors: An Example of Superconductivity in LiGa2Rh
;
_journal_issue                   6
_journal_name_full               'Chemistry of Materials'
_journal_page_first              2164
_journal_paper_doi               10.1021/acs.chemmater.9b00258
_journal_volume                  31
_journal_year                    2019
_chemical_formula_sum            'Ga2 Li Rh'
_chemical_formula_weight         249.29
_space_group_crystal_system      cubic
_space_group_IT_number           225
_space_group_name_Hall           '-F 4 2 3'
_space_group_name_H-M_alt        'F m -3 m'
_symmetry_space_group_name_Hall  '-F 4 2 3'
_symmetry_space_group_name_H-M   'F m -3 m'
_audit_creation_method           SHELXL-2013
_cell_angle_alpha                90
_cell_angle_beta                 90
_cell_angle_gamma                90
_cell_formula_units_Z            4
_cell_length_a                   5.9997(8)
_cell_length_b                   5.9997(8)
_cell_length_c                   5.9997(8)
_cell_measurement_temperature    296(2)
_cell_volume                     215.97(5)
_computing_structure_refinement  'SHELXL-2013 (Sheldrick, 2013)'
_diffrn_ambient_temperature      296(2)
_diffrn_measured_fraction_theta_full 1.000
_diffrn_measured_fraction_theta_max 1.000
_diffrn_radiation_type           MoK\a
_diffrn_radiation_wavelength     0.71073
_diffrn_reflns_av_R_equivalents  0.0151
_diffrn_reflns_av_unetI/netI     0.0087
_diffrn_reflns_Laue_measured_fraction_full 1.000
_diffrn_reflns_Laue_measured_fraction_max 1.000
_diffrn_reflns_limit_h_max       8
_diffrn_reflns_limit_h_min       -9
_diffrn_reflns_limit_k_max       7
_diffrn_reflns_limit_k_min       -9
_diffrn_reflns_limit_l_max       9
_diffrn_reflns_limit_l_min       -5
_diffrn_reflns_number            261
_diffrn_reflns_point_group_measured_fraction_full 1.000
_diffrn_reflns_point_group_measured_fraction_max 1.000
_diffrn_reflns_theta_full        25.242
_diffrn_reflns_theta_max         32.878
_diffrn_reflns_theta_min         5.888
_exptl_absorpt_coefficient_mu    31.842
_exptl_crystal_density_diffrn    7.667
_exptl_crystal_F_000             440
_refine_diff_density_max         1.262
_refine_diff_density_min         -1.012
_refine_diff_density_rms         0.205
_refine_ls_extinction_coef       0.0098(18)
_refine_ls_extinction_expression Fc^*^=kFc[1+0.001xFc^2^\l^3^/sin(2\q)]^-1/4^
_refine_ls_extinction_method     SHELXL
_refine_ls_goodness_of_fit_ref   1.416
_refine_ls_hydrogen_treatment    undef
_refine_ls_matrix_type           full
_refine_ls_number_parameters     5
_refine_ls_number_reflns         38
_refine_ls_number_restraints     0
_refine_ls_restrained_S_all      1.416
_refine_ls_R_factor_all          0.0185
_refine_ls_R_factor_gt           0.0185
_refine_ls_shift/su_max          0.000
_refine_ls_shift/su_mean         0.000
_refine_ls_structure_factor_coef Fsqd
_refine_ls_weighting_details
'w=1/[\s^2^(Fo^2^)+(0.0205P)^2^+4.1010P] where P=(Fo^2^+2Fc^2^)/3'
_refine_ls_weighting_scheme      calc
_refine_ls_wR_factor_gt          0.0510
_refine_ls_wR_factor_ref         0.0510
_reflns_Friedel_coverage         0.000
_reflns_number_gt                38
_reflns_number_total             38
_reflns_threshold_expression     'I > 2\s(I)'
_cod_data_source_file            cm9b00258_si_001.cif
_cod_data_source_block           MM_LizC_1246_LiGa2Rh_0m
_cod_original_cell_volume        215.97(9)
_cod_database_code               4002978
_shelx_space_group_comment
;
The symmetry employed for this shelxl refinement is uniquely defined
by the following loop, which should always be used as a source of
symmetry information in preference to the above space-group names.
They are only intended as comments.
;
_shelxl_version_number           2013-4
_shelx_res_file
;
TITL MM_LizC_1246_LiGa2Rh_0m in Fm-3m
CELL 0.71073   5.99970   5.99970   5.99970  90.0000  90.0000  90.0000
ZERR    4.00   0.00080   0.00080   0.00080   0.0000   0.0000   0.0000
LATT  4
SYMM -X, -Y, Z
SYMM -X, Y, -Z
SYMM X, -Y, -Z
SYMM Z, X, Y
SYMM Z, -X, -Y
SYMM -Z, -X, Y
SYMM -Z, X, -Y
SYMM Y, Z, X
SYMM -Y, Z, -X
SYMM Y, -Z, -X
SYMM -Y, -Z, X
SYMM Y, X, -Z
SYMM -Y, -X, -Z
SYMM Y, -X, Z
SYMM -Y, X, Z
SYMM X, Z, -Y
SYMM -X, Z, Y
SYMM -X, -Z, -Y
SYMM X, -Z, Y
SYMM Z, Y, -X
SYMM Z, -Y, X
SYMM -Z, Y, X
SYMM -Z, -Y, -X
SFAC LI GA RH
UNIT 4 8 4
TEMP 23.000

L.S. 10
ACTA

WGHT    0.020500    4.101000
EXTI    0.009815
FVAR       0.11995
RH1   3    0.000000    0.000000    0.00000    10.02083    0.01695    0.01695 =
         0.01695    0.00000    0.00000    0.00000
GA2   2    0.250000    0.250000    0.250000    10.04167    0.01571    0.01571 =
         0.01571    0.00000    0.00000    0.00000
LI3   1    0.500000    0.500000    0.500000    10.02083    0.00392    0.00392 =
         0.00392    0.00000    0.00000    0.00000
HKLF 4

REM  MM_LizC_1246_LiGa2Rh_0m in Fm-3m
REM R1 =  0.0185 for      38 Fo > 4sig(Fo)  and  0.0185 for all      38 data
REM      5 parameters refined using      0 restraints

END

WGHT      0.0205      4.1126

REM Highest difference peak  1.262,  deepest hole -1.012,  1-sigma level  0.205
Q1    1   0.1910  0.1910  0.1910  10.16667  0.05    1.26
Q2    1   0.4096  0.1801  0.1801  10.50000  0.05    0.41
Q3    1   0.4015  0.5985  0.5985  10.16667  0.05    0.34
Q4    1   0.5000  0.6256  0.6256  10.25000  0.05    0.31
Q5    1   0.0000  0.0744  0.0744  10.25000  0.05    0.30
Q6    1  -0.1840  0.0000  0.1840  10.25000  0.05    0.23
Q7    1  -0.1001 -0.1001  0.1531  10.50000  0.05    0.20
Q8    1   0.3351  0.3351  0.0664  10.50000  0.05    0.19
Q9    1   0.3902  0.2652  0.1098  10.50000  0.05    0.19
;
_shelx_res_checksum              77651
_shelx_hkl_file
;
   1  -1   1  253.52    1.75
  -1  -1   1  251.12    1.41
   0   0   2   42.47    0.65
   2   0   0   42.81    0.47
   0  -2   2 1000.00    6.20
   2   0   2  973.27    5.83
   2  -2   2   29.06    0.65
  -2  -2   2   29.37    0.34
   2   2   2   29.31    0.68
   3  -1   1  150.10    1.45
   1  -3   1  150.78    1.50
   1  -1   3  152.36    1.58
   1   1   3  148.13    1.72
  -1  -1   3  151.35    1.41
   3   1   1  151.39    1.34
   3  -1   3  100.07    1.41
   3  -3   1   98.29    1.37
   1  -3   3  100.11    1.34
  -1  -3   3   98.32    1.11
  -3  -1   3   99.05    0.93
   3   1   3   99.92    1.43
   3   3   1   98.20    1.23
   3  -3   3   76.79    1.35
   3   3   3   77.98    1.39
   0   0   4  679.85    4.82
   4   0   0  687.25    4.08
   4   2   0   19.87    0.34
   2   0   4   19.81    0.69
  -2   0   4   20.05    0.60
   4   0   2   20.48    0.59
   0  -2   4   21.82    0.62
   4  -2   2  536.44    4.07
   2  -4   2  537.29    4.11
   2  -2   4  541.64    4.23
   2   2   4  535.74    4.41
  -2  -2   4  530.09    3.51
   4   2   2  530.68    3.85
   0  -4   4  397.51    3.27
   4   0   4  395.32    3.66
   2  -4   4    9.13    0.55
   4  -4   2   10.32    0.58
   4  -2   4   10.12    0.59
   4   2   4   10.18    0.60
   4   4   2    8.50    0.52
   4  -4   4  236.29    2.94
   4   4   4  239.26    2.95
   5  -1   1   68.31    1.09
  -1   1   5   69.62    1.36
   1  -1   5   68.23    1.31
   1   1   5   69.00    1.40
  -1  -1   5   70.12    1.21
   5   1   1   68.82    0.95
   1  -5   3   56.01    1.14
   3  -1   5   56.16    1.33
   3   1   5   56.37    1.32
  -3  -1   5   55.05    0.98
   1  -3   5   53.24    1.16
   5  -1   3   55.34    1.15
   1   3   5   55.43    1.38
   5   1   3   54.20    1.13
  -1  -3   5   55.31    1.02
   3  -5   3   34.64    1.04
   3  -3   5   35.42    1.08
   5  -3   3   35.33    1.05
   3   3   5   35.95    1.15
   5   3   3   38.13    0.99
   5  -1   5   27.28    1.02
   1  -5   5   29.32    0.94
  -1  -5   5   28.16    0.90
   5   1   5   28.83    1.05
   5  -5   3   28.89    1.05
   3  -5   5   27.69    1.04
   3  -5   5   27.40    1.33
   5  -3   5   29.57    1.13
  -5  -5   3   29.02    1.45
   3   5   5   28.65    1.13
   5   3   5   26.61    1.07
   5  -5   5   10.86    0.88
  -5   5   5   11.77    0.72
  -5  -5   5   12.28    0.72
   5   5   5   12.83    0.91
   0   0   6    9.23    0.66
   2   0   6  284.60    3.29
  -2   0   6  282.86    3.01
   4   0   6    4.53    0.58
   0  -2   6  293.83    3.11
   6   0   2  298.20    2.80
   0   2   6  298.73    3.46
   2  -2   6    6.56    0.61
   6  -2   2    7.17    0.53
   2   2   6    5.79    0.63
  -2  -2   6    6.51    0.49
   4  -2   6  171.15    2.67
   4   2   6  167.37    2.65
   0  -4   6    4.20    0.45
   6   0   4    3.77    0.48
   2  -4   6  172.65    2.55
   6  -2   4  174.53    2.54
   2   4   6  174.93    2.83
   6   2   4  176.31    2.44
   4  -6   4    1.83    0.48
  -6   4   4    2.06    0.42
  -4  -6  -4    2.70    0.54
   4  -4   6    2.16    0.47
   6  -4   4    1.80    0.43
  -4  -4   6    2.60    0.52
  -6  -4   4    2.62    0.46
  -4  -6   4    1.66    0.39
   4   4   6    2.22    0.47
   4   6   4    1.90    0.43
  -4  -6   4    1.23    0.35
  -6  -6   0  108.18    1.70
  -6  -6   0  107.37    1.95
  -6   0   6  106.79    1.73
   0  -6   6  107.57    1.86
   6   0   6  111.04    2.23
  -6  -6  -2    1.22    0.47
   2  -6   6    1.59    0.41
   6  -2   6    1.40    0.45
   2  -6   6    1.57    0.42
  -6   2   6    1.32    0.37
  -6  -2   6    1.97    0.44
  -2  -6   6    1.44    0.42
  -6  -6   2    0.99    0.36
  -2  -6   6    1.09    0.39
   2   6   6    1.57    0.48
  -6  -6   2    2.56    0.44
   6   2   6    1.55    0.48
   1  -1   7   29.67    1.11
  -1   1   7   30.36    1.11
  -1  -1   7   31.77    1.03
   1   1   7   31.25    1.15
  -7   3   1   23.27    1.19
   1  -7   3   20.44    1.39
   3  -1   7   22.82    1.07
  -3   1   7   24.74    0.98
  -1  -7   3   21.70    1.59
   3   1   7   24.11    1.08
   5  -1   7   18.31    1.06
   1  -7   5   18.51    1.02
  -7   5   1   16.97    1.02
  -7  -5  -1   16.96    1.02
  -7  -5  -1   16.87    0.75
  -7  -5   1   16.96    0.93
  -7  -5   1   18.14    0.82
  -1  -7   5   18.26    0.89
  -1  -7   5   17.77    0.90
   5   1   7   18.23    1.06
  -1   3   7   22.58    1.03
   7  -1   3   23.68    0.88
  -3  -7  -1   25.19    1.57
   1  -3   7   24.33    0.99
  -7  -1   3   24.30    1.37
  -1  -3   7   23.00    0.88
   1   3   7   21.66    1.06
  -3  -7   1   21.97    1.27
   3  -3   7   21.19    1.02
   3  -7   3   21.70    0.97
   7  -3   3   22.37    0.96
  -3  -7  -3   24.01    0.96
  -7   3   3   22.02    0.96
  -7  -3   3   22.11    0.95
  -3  -7   3   21.54    0.87
  -3  -7   3   21.81    0.86
   3   3   7   22.15    1.11
   3  -7   5   11.27    0.85
   5  -3   7    9.34    0.89
  -7   5   3   10.77    0.82
  -3  -7  -5   10.70    0.78
  -7  -5  -3    9.55    0.93
   5   3   7   10.04    0.90
  -3  -7   5   11.09    0.73
   3   7   5   11.29    0.91
  -7  -5   3   11.18    0.75
  -3  -7   5   10.33    0.73
   1  -5   7   17.42    0.91
  -5  -7  -1   17.01    0.76
   5  -7   1   15.71    1.23
   1  -5   7   17.27    0.89
  -7   1   5   16.57    0.85
  -5  -7  -1   14.99    0.91
   7  -1   5   16.74    0.94
   7   1   5   14.61    0.87
  -7  -1   5   18.67    0.83
  -5  -7   1   17.03    0.77
  -5  -7   1   15.95    0.90
  -1  -5   7   16.59    0.77
   1   5   7   16.22    1.14
   7  -3   5    9.03    0.83
  -5  -7  -3   10.00    0.82
   3  -5   7   10.90    0.91
  -7   3   5    9.54    0.66
  -7  -3   5    8.06    0.71
   3   5   7   10.51    0.93
  -5  -7   3    9.46    0.70
  -5  -7   3    9.56    0.72
  -8   0   0  132.29    1.93
   0  -8   0  130.48    2.04
   0   0   8  131.58    2.37
   0  -8  -2    2.07    0.55
   0  -8   2    2.13    0.46
   2   0   8    2.14    0.48
  -8   2   0    2.08    0.40
  -2   0   8    1.60    0.41
  -8  -2   0    2.44    0.38
   0  -8   4   89.53    1.95
  -8  -4   0   88.58    1.70
  -8  -4   0   90.17    1.80
  -8   4   0   90.11    1.84
  -8   0   2    1.88    0.47
   0  -2   8    1.61    0.42
   0   2   8    1.39    0.42
   2  -8   0    2.08    0.46
  -2  -8   0    2.02    0.42
  -2  -8   0    1.09    0.41
   2  -2   8  105.66    2.27
   2  -8   2  107.84    1.98
  -8   2   2  107.27    1.98
  -2  -8  -2  109.78    1.91
  -2   2   8  110.27    2.21
  -2  -8   2  109.42    1.96
  -2  -8   2  106.76    1.94
  -8   2  -2  108.45    1.71
  -8  -2   2  106.61    1.87
   2   2   8  105.57    2.34
  -8   4   2    1.54    0.50
  -2  -8  -4    1.48    0.41
   4  -2   8    1.39    0.50
   2  -8   4    2.01    0.51
  -2  -8   4    1.75    0.46
   4   2   8    2.19    0.52
  -2  -8   4    1.30    0.42
  -8   4  -2    0.79    0.38
  -8  -4   2    1.68    0.47
  -4  -8   0   83.60    1.80
   0   4   8   85.75    2.10
  -4  -8   0   85.33    1.66
  -8   0   4   84.02    1.77
   4  -8   2    2.00    0.50
   8  -2   4    1.37    0.42
   2  -4   8    1.48    0.46
  -4  -8  -2    0.80    0.34
  -2   4   8    0.61    0.40
  -8   2   4    1.37    0.42
  -4  -8  -2    0.85    0.39
   2   4   8    2.67    0.62
  -4  -8   2    0.94    0.40
  -4  -8   2    0.59    0.40
  -8  -2   4    0.83    0.41
  -9  -1  -1   13.77    0.75
   1  -9   1   12.58    0.90
   1  -1   9   13.38    1.04
  -9   1   1   13.46    0.85
  -1  -9  -1   12.48    0.89
  -1   1   9   11.48    0.96
  -1  -1   9   13.55    1.19
  -1  -9   1   14.08    0.92
   1  -9  -1   13.44    0.87
  -9  -1   1   12.71    0.80
  -9   1  -1   11.88    0.74
   1   1   9   13.42    1.05
   0   0   0    0.00    0.00
;
_shelx_hkl_checksum              58894
loop_
_space_group_symop_operation_xyz
'x, y, z'
'-x, -y, z'
'-x, y, -z'
'x, -y, -z'
'z, x, y'
'z, -x, -y'
'-z, -x, y'
'-z, x, -y'
'y, z, x'
'-y, z, -x'
'y, -z, -x'
'-y, -z, x'
'y, x, -z'
'-y, -x, -z'
'y, -x, z'
'-y, x, z'
'x, z, -y'
'-x, z, y'
'-x, -z, -y'
'x, -z, y'
'z, y, -x'
'z, -y, x'
'-z, y, x'
'-z, -y, -x'
'x, y+1/2, z+1/2'
'-x, -y+1/2, z+1/2'
'-x, y+1/2, -z+1/2'
'x, -y+1/2, -z+1/2'
'z, x+1/2, y+1/2'
'z, -x+1/2, -y+1/2'
'-z, -x+1/2, y+1/2'
'-z, x+1/2, -y+1/2'
'y, z+1/2, x+1/2'
'-y, z+1/2, -x+1/2'
'y, -z+1/2, -x+1/2'
'-y, -z+1/2, x+1/2'
'y, x+1/2, -z+1/2'
'-y, -x+1/2, -z+1/2'
'y, -x+1/2, z+1/2'
'-y, x+1/2, z+1/2'
'x, z+1/2, -y+1/2'
'-x, z+1/2, y+1/2'
'-x, -z+1/2, -y+1/2'
'x, -z+1/2, y+1/2'
'z, y+1/2, -x+1/2'
'z, -y+1/2, x+1/2'
'-z, y+1/2, x+1/2'
'-z, -y+1/2, -x+1/2'
'x+1/2, y, z+1/2'
'-x+1/2, -y, z+1/2'
'-x+1/2, y, -z+1/2'
'x+1/2, -y, -z+1/2'
'z+1/2, x, y+1/2'
'z+1/2, -x, -y+1/2'
'-z+1/2, -x, y+1/2'
'-z+1/2, x, -y+1/2'
'y+1/2, z, x+1/2'
'-y+1/2, z, -x+1/2'
'y+1/2, -z, -x+1/2'
'-y+1/2, -z, x+1/2'
'y+1/2, x, -z+1/2'
'-y+1/2, -x, -z+1/2'
'y+1/2, -x, z+1/2'
'-y+1/2, x, z+1/2'
'x+1/2, z, -y+1/2'
'-x+1/2, z, y+1/2'
'-x+1/2, -z, -y+1/2'
'x+1/2, -z, y+1/2'
'z+1/2, y, -x+1/2'
'z+1/2, -y, x+1/2'
'-z+1/2, y, x+1/2'
'-z+1/2, -y, -x+1/2'
'x+1/2, y+1/2, z'
'-x+1/2, -y+1/2, z'
'-x+1/2, y+1/2, -z'
'x+1/2, -y+1/2, -z'
'z+1/2, x+1/2, y'
'z+1/2, -x+1/2, -y'
'-z+1/2, -x+1/2, y'
'-z+1/2, x+1/2, -y'
'y+1/2, z+1/2, x'
'-y+1/2, z+1/2, -x'
'y+1/2, -z+1/2, -x'
'-y+1/2, -z+1/2, x'
'y+1/2, x+1/2, -z'
'-y+1/2, -x+1/2, -z'
'y+1/2, -x+1/2, z'
'-y+1/2, x+1/2, z'
'x+1/2, z+1/2, -y'
'-x+1/2, z+1/2, y'
'-x+1/2, -z+1/2, -y'
'x+1/2, -z+1/2, y'
'z+1/2, y+1/2, -x'
'z+1/2, -y+1/2, x'
'-z+1/2, y+1/2, x'
'-z+1/2, -y+1/2, -x'
'-x, -y, -z'
'x, y, -z'
'x, -y, z'
'-x, y, z'
'-z, -x, -y'
'-z, x, y'
'z, x, -y'
'z, -x, y'
'-y, -z, -x'
'y, -z, x'
'-y, z, x'
'y, z, -x'
'-y, -x, z'
'y, x, z'
'-y, x, -z'
'y, -x, -z'
'-x, -z, y'
'x, -z, -y'
'x, z, y'
'-x, z, -y'
'-z, -y, x'
'-z, y, -x'
'z, -y, -x'
'z, y, x'
'-x, -y+1/2, -z+1/2'
'x, y+1/2, -z+1/2'
'x, -y+1/2, z+1/2'
'-x, y+1/2, z+1/2'
'-z, -x+1/2, -y+1/2'
'-z, x+1/2, y+1/2'
'z, x+1/2, -y+1/2'
'z, -x+1/2, y+1/2'
'-y, -z+1/2, -x+1/2'
'y, -z+1/2, x+1/2'
'-y, z+1/2, x+1/2'
'y, z+1/2, -x+1/2'
'-y, -x+1/2, z+1/2'
'y, x+1/2, z+1/2'
'-y, x+1/2, -z+1/2'
'y, -x+1/2, -z+1/2'
'-x, -z+1/2, y+1/2'
'x, -z+1/2, -y+1/2'
'x, z+1/2, y+1/2'
'-x, z+1/2, -y+1/2'
'-z, -y+1/2, x+1/2'
'-z, y+1/2, -x+1/2'
'z, -y+1/2, -x+1/2'
'z, y+1/2, x+1/2'
'-x+1/2, -y, -z+1/2'
'x+1/2, y, -z+1/2'
'x+1/2, -y, z+1/2'
'-x+1/2, y, z+1/2'
'-z+1/2, -x, -y+1/2'
'-z+1/2, x, y+1/2'
'z+1/2, x, -y+1/2'
'z+1/2, -x, y+1/2'
'-y+1/2, -z, -x+1/2'
'y+1/2, -z, x+1/2'
'-y+1/2, z, x+1/2'
'y+1/2, z, -x+1/2'
'-y+1/2, -x, z+1/2'
'y+1/2, x, z+1/2'
'-y+1/2, x, -z+1/2'
'y+1/2, -x, -z+1/2'
'-x+1/2, -z, y+1/2'
'x+1/2, -z, -y+1/2'
'x+1/2, z, y+1/2'
'-x+1/2, z, -y+1/2'
'-z+1/2, -y, x+1/2'
'-z+1/2, y, -x+1/2'
'z+1/2, -y, -x+1/2'
'z+1/2, y, x+1/2'
'-x+1/2, -y+1/2, -z'
'x+1/2, y+1/2, -z'
'x+1/2, -y+1/2, z'
'-x+1/2, y+1/2, z'
'-z+1/2, -x+1/2, -y'
'-z+1/2, x+1/2, y'
'z+1/2, x+1/2, -y'
'z+1/2, -x+1/2, y'
'-y+1/2, -z+1/2, -x'
'y+1/2, -z+1/2, x'
'-y+1/2, z+1/2, x'
'y+1/2, z+1/2, -x'
'-y+1/2, -x+1/2, z'
'y+1/2, x+1/2, z'
'-y+1/2, x+1/2, -z'
'y+1/2, -x+1/2, -z'
'-x+1/2, -z+1/2, y'
'x+1/2, -z+1/2, -y'
'x+1/2, z+1/2, y'
'-x+1/2, z+1/2, -y'
'-z+1/2, -y+1/2, x'
'-z+1/2, y+1/2, -x'
'z+1/2, -y+1/2, -x'
'z+1/2, y+1/2, x'
loop_
_atom_site_label
_atom_site_type_symbol
_atom_site_fract_x
_atom_site_fract_y
_atom_site_fract_z
_atom_site_U_iso_or_equiv
_atom_site_adp_type
_atom_site_occupancy
_atom_site_site_symmetry_order
_atom_site_calc_flag
_atom_site_refinement_flags_posn
_atom_site_refinement_flags_adp
_atom_site_refinement_flags_occupancy
Rh1 Rh 0.5000 0.5000 0.5000 0.0169(5) Uani 1 48 d S T P
Ga2 Ga 0.2500 0.2500 0.2500 0.0157(5) Uani 1 24 d S T P
Li3 Li 0.0000 0.0000 0.0000 0.004(4) Uani 1 48 d S T P
loop_
_atom_site_aniso_label
_atom_site_aniso_U_11
_atom_site_aniso_U_22
_atom_site_aniso_U_33
_atom_site_aniso_U_23
_atom_site_aniso_U_13
_atom_site_aniso_U_12
Rh1 0.0169(5) 0.0169(5) 0.0169(5) 0.000 0.000 0.000
Ga2 0.0157(5) 0.0157(5) 0.0157(5) 0.000 0.000 0.000
Li3 0.004(4) 0.004(4) 0.004(4) 0.000 0.000 0.000
loop_
_atom_type_symbol
_atom_type_description
_atom_type_scat_dispersion_real
_atom_type_scat_dispersion_imag
_atom_type_scat_source
Li Li -0.0003 0.0001 'International Tables Vol C Tables 4.2.6.8 and 6.1.1.4'
Ga Ga 0.2307 1.6083 'International Tables Vol C Tables 4.2.6.8 and 6.1.1.4'
Rh Rh -1.1178 0.9187 'International Tables Vol C Tables 4.2.6.8 and 6.1.1.4'
loop_
_geom_angle_atom_site_label_1
_geom_angle_atom_site_label_2
_geom_angle_atom_site_label_3
_geom_angle
_geom_angle_site_symmetry_1
_geom_angle_site_symmetry_3
Ga2 Rh1 Ga2 180.0 97_666 .
Ga2 Rh1 Ga2 109.5 97_666 169_556
Ga2 Rh1 Ga2 70.5 . 169_556
Ga2 Rh1 Ga2 70.5 97_666 49
Ga2 Rh1 Ga2 109.5 . 49
Ga2 Rh1 Ga2 70.5 169_556 49
Ga2 Rh1 Ga2 70.5 97_666 73
Ga2 Rh1 Ga2 109.5 . 73
Ga2 Rh1 Ga2 180.0 169_556 73
Ga2 Rh1 Ga2 109.5 49 73
Ga2 Rh1 Ga2 70.529(1) 97_666 25
Ga2 Rh1 Ga2 109.5 . 25
Ga2 Rh1 Ga2 70.5 169_556 25
Ga2 Rh1 Ga2 109.5 49 25
Ga2 Rh1 Ga2 109.5 73 25
Ga2 Rh1 Ga2 109.5 97_666 121_655
Ga2 Rh1 Ga2 70.5 . 121_655
Ga2 Rh1 Ga2 109.5 169_556 121_655
Ga2 Rh1 Ga2 70.5 49 121_655
Ga2 Rh1 Ga2 70.5 73 121_655
Ga2 Rh1 Ga2 180.0 25 121_655
Ga2 Rh1 Ga2 109.5 97_666 145_565
Ga2 Rh1 Ga2 70.529(1) . 145_565
Ga2 Rh1 Ga2 109.5 169_556 145_565
Ga2 Rh1 Ga2 180.0 49 145_565
Ga2 Rh1 Ga2 70.529(1) 73 145_565
Ga2 Rh1 Ga2 70.5 25 145_565
Ga2 Rh1 Ga2 109.5 121_655 145_565
Ga2 Rh1 Li3 54.7 97_666 73_556
Ga2 Rh1 Li3 125.3 . 73_556
Ga2 Rh1 Li3 54.7 169_556 73_556
Ga2 Rh1 Li3 54.7 49 73_556
Ga2 Rh1 Li3 125.3 73 73_556
Ga2 Rh1 Li3 54.7 25 73_556
Ga2 Rh1 Li3 125.3 121_655 73_556
Ga2 Rh1 Li3 125.3 145_565 73_556
Ga2 Rh1 Li3 125.3 97_666 25
Ga2 Rh1 Li3 54.7 . 25
Ga2 Rh1 Li3 54.7 169_556 25
Ga2 Rh1 Li3 125.3 49 25
Ga2 Rh1 Li3 125.3 73 25
Ga2 Rh1 Li3 54.7 25 25
Ga2 Rh1 Li3 125.3 121_655 25
Ga2 Rh1 Li3 54.7 145_565 25
Li3 Rh1 Li3 90.0 73_556 25
Ga2 Rh1 Li3 54.7 97_666 25_655
Ga2 Rh1 Li3 125.3 . 25_655
Ga2 Rh1 Li3 125.3 169_556 25_655
Ga2 Rh1 Li3 54.7 49 25_655
Ga2 Rh1 Li3 54.7 73 25_655
Ga2 Rh1 Li3 125.3 25 25_655
Ga2 Rh1 Li3 54.7 121_655 25_655
Ga2 Rh1 Li3 125.3 145_565 25_655
Li3 Rh1 Li3 90.0 73_556 25_655
Li3 Rh1 Li3 180.0 25 25_655
Ga2 Rh1 Li3 125.3 97_666 49
Ga2 Rh1 Li3 54.7 . 49
Ga2 Rh1 Li3 54.7 169_556 49
Ga2 Rh1 Li3 54.7 49 49
Ga2 Rh1 Li3 125.3 73 49
Ga2 Rh1 Li3 125.3 25 49
Ga2 Rh1 Li3 54.7 121_655 49
Ga2 Rh1 Li3 125.3 145_565 49
Li3 Rh1 Li3 90.0 73_556 49
Li3 Rh1 Li3 90.0 25 49
Li3 Rh1 Li3 90.0 25_655 49
Li3 Ga2 Rh1 180.0 . .
Li3 Ga2 Li3 109.5 . 73
Rh1 Ga2 Li3 70.5 . 73
Li3 Ga2 Rh1 70.529(1) . 25_544
Rh1 Ga2 Rh1 109.5 . 25_544
Li3 Ga2 Rh1 70.5 73 25_544
Li3 Ga2 Rh1 70.5 . 49_454
Rh1 Ga2 Rh1 109.5 . 49_454
Li3 Ga2 Rh1 70.5 73 49_454
Rh1 Ga2 Rh1 109.5 25_544 49_454
Li3 Ga2 Rh1 70.5 . 73_445
Rh1 Ga2 Rh1 109.5 . 73_445
Li3 Ga2 Rh1 180.0 73 73_445
Rh1 Ga2 Rh1 109.5 25_544 73_445
Rh1 Ga2 Rh1 109.5 49_454 73_445
Li3 Ga2 Li3 109.5 . 49
Rh1 Ga2 Li3 70.5 . 49
Li3 Ga2 Li3 109.5 73 49
Rh1 Ga2 Li3 70.5 25_544 49
Rh1 Ga2 Li3 180.0 49_454 49
Rh1 Ga2 Li3 70.5 73_445 49
Li3 Ga2 Li3 109.5 . 25
Rh1 Ga2 Li3 70.529(1) . 25
Li3 Ga2 Li3 109.5 73 25
Rh1 Ga2 Li3 180.0 25_544 25
Rh1 Ga2 Li3 70.5 49_454 25
Rh1 Ga2 Li3 70.5 73_445 25
Li3 Ga2 Li3 109.5 49 25
Li3 Ga2 Ga2 54.7 . 121
Rh1 Ga2 Ga2 125.3 . 121
Li3 Ga2 Ga2 125.3 73 121
Rh1 Ga2 Ga2 125.3 25_544 121
Rh1 Ga2 Ga2 54.7 49_454 121
Rh1 Ga2 Ga2 54.7 73_445 121
Li3 Ga2 Ga2 125.3 49 121
Li3 Ga2 Ga2 54.7 25 121
Li3 Ga2 Ga2 125.3 . 145_565
Rh1 Ga2 Ga2 54.7 . 145_565
Li3 Ga2 Ga2 54.7 73 145_565
Rh1 Ga2 Ga2 125.3 25_544 145_565
Rh1 Ga2 Ga2 54.7 49_454 145_565
Rh1 Ga2 Ga2 125.3 73_445 145_565
Li3 Ga2 Ga2 125.3 49 145_565
Li3 Ga2 Ga2 54.7 25 145_565
Ga2 Ga2 Ga2 90.0 121 145_565
Li3 Ga2 Ga2 54.7 . 169
Rh1 Ga2 Ga2 125.3 . 169
Li3 Ga2 Ga2 54.7 73 169
Rh1 Ga2 Ga2 54.7 25_544 169
Rh1 Ga2 Ga2 54.7 49_454 169
Rh1 Ga2 Ga2 125.3 73_445 169
Li3 Ga2 Ga2 125.3 49 169
Li3 Ga2 Ga2 125.3 25 169
Ga2 Ga2 Ga2 90.0 121 169
Ga2 Ga2 Ga2 90.0 145_565 169
Li3 Ga2 Ga2 125.3 . 169_556
Rh1 Ga2 Ga2 54.7 . 169_556
Li3 Ga2 Ga2 125.3 73 169_556
Rh1 Ga2 Ga2 125.3 25_544 169_556
Rh1 Ga2 Ga2 125.3 49_454 169_556
Rh1 Ga2 Ga2 54.7 73_445 169_556
Li3 Ga2 Ga2 54.7 49 169_556
Li3 Ga2 Ga2 54.7 25 169_556
Ga2 Ga2 Ga2 90.0 121 169_556
Ga2 Ga2 Ga2 90.0 145_565 169_556
Ga2 Ga2 Ga2 180.0 169 169_556
Ga2 Li3 Ga2 180.0 97 .
Ga2 Li3 Ga2 109.5 97 169
Ga2 Li3 Ga2 70.5 . 169
Ga2 Li3 Ga2 109.5 97 145
Ga2 Li3 Ga2 70.5 . 145
Ga2 Li3 Ga2 109.5 169 145
Ga2 Li3 Ga2 109.5 97 121
Ga2 Li3 Ga2 70.529(1) . 121
Ga2 Li3 Ga2 109.5 169 121
Ga2 Li3 Ga2 109.5 145 121
Ga2 Li3 Ga2 70.5 97 73_445
Ga2 Li3 Ga2 109.5 . 73_445
Ga2 Li3 Ga2 180.0 169 73_445
Ga2 Li3 Ga2 70.5 145 73_445
Ga2 Li3 Ga2 70.5 121 73_445
Ga2 Li3 Ga2 70.5 97 49_454
Ga2 Li3 Ga2 109.5 . 49_454
Ga2 Li3 Ga2 70.5 169 49_454
Ga2 Li3 Ga2 180.0 145 49_454
Ga2 Li3 Ga2 70.5 121 49_454
Ga2 Li3 Ga2 109.5 73_445 49_454
Ga2 Li3 Ga2 70.529(1) 97 25_544
Ga2 Li3 Ga2 109.5 . 25_544
Ga2 Li3 Ga2 70.5 169 25_544
Ga2 Li3 Ga2 70.5 145 25_544
Ga2 Li3 Ga2 180.0 121 25_544
Ga2 Li3 Ga2 109.5 73_445 25_544
Ga2 Li3 Ga2 109.5 49_454 25_544
Ga2 Li3 Rh1 125.3 97 25_544
Ga2 Li3 Rh1 54.7 . 25_544
Ga2 Li3 Rh1 54.7 169 25_544
Ga2 Li3 Rh1 54.7 145 25_544
Ga2 Li3 Rh1 125.3 121 25_544
Ga2 Li3 Rh1 125.3 73_445 25_544
Ga2 Li3 Rh1 125.3 49_454 25_544
Ga2 Li3 Rh1 54.7 25_544 25_544
Ga2 Li3 Rh1 125.3 97 73_445
Ga2 Li3 Rh1 54.7 . 73_445
Ga2 Li3 Rh1 125.3 169 73_445
Ga2 Li3 Rh1 54.7 145 73_445
Ga2 Li3 Rh1 54.7 121 73_445
Ga2 Li3 Rh1 54.7 73_445 73_445
Ga2 Li3 Rh1 125.3 49_454 73_445
Ga2 Li3 Rh1 125.3 25_544 73_445
Rh1 Li3 Rh1 90.0 25_544 73_445
Ga2 Li3 Rh1 54.7 97 73_444
Ga2 Li3 Rh1 125.3 . 73_444
Ga2 Li3 Rh1 54.7 169 73_444
Ga2 Li3 Rh1 125.3 145 73_444
Ga2 Li3 Rh1 125.3 121 73_444
Ga2 Li3 Rh1 125.3 73_445 73_444
Ga2 Li3 Rh1 54.7 49_454 73_444
Ga2 Li3 Rh1 54.7 25_544 73_444
Rh1 Li3 Rh1 90.0 25_544 73_444
Rh1 Li3 Rh1 180.0 73_445 73_444
Ga2 Li3 Rh1 54.7 97 25_444
Ga2 Li3 Rh1 125.3 . 25_444
Ga2 Li3 Rh1 125.3 169 25_444
Ga2 Li3 Rh1 125.3 145 25_444
Ga2 Li3 Rh1 54.7 121 25_444
Ga2 Li3 Rh1 54.7 73_445 25_444
Ga2 Li3 Rh1 54.7 49_454 25_444
Ga2 Li3 Rh1 125.3 25_544 25_444
Rh1 Li3 Rh1 180.0 25_544 25_444
Rh1 Li3 Rh1 90.0 73_445 25_444
Rh1 Li3 Rh1 90.0 73_444 25_444
loop_
_geom_bond_atom_site_label_1
_geom_bond_atom_site_label_2
_geom_bond_distance
_geom_bond_site_symmetry_2
Rh1 Ga2 2.5979(4) 97_666
Rh1 Ga2 2.5979(3) .
Rh1 Ga2 2.5979(3) 169_556
Rh1 Ga2 2.5979(3) 49
Rh1 Ga2 2.5979(3) 73
Rh1 Ga2 2.5979(4) 25
Rh1 Ga2 2.5979(3) 121_655
Rh1 Ga2 2.5979(4) 145_565
Rh1 Li3 2.9999(4) 73_556
Rh1 Li3 2.9999(4) 25
Rh1 Li3 2.9998(4) 25_655
Rh1 Li3 2.9999(4) 49
Ga2 Li3 2.5979(3) .
Ga2 Li3 2.5979(3) 73
Ga2 Rh1 2.5979(3) 25_544
Ga2 Rh1 2.5979(3) 49_454
Ga2 Rh1 2.5979(3) 73_445
Ga2 Li3 2.5979(3) 49
Ga2 Li3 2.5979(3) 25
Ga2 Ga2 2.9999(4) 121
Ga2 Ga2 2.9999(4) 145_565
Ga2 Ga2 2.9999(4) 169
Ga2 Ga2 2.9998(4) 169_556
Li3 Ga2 2.5979(3) 97
Li3 Ga2 2.5979(3) 169
Li3 Ga2 2.5979(3) 145
Li3 Ga2 2.5979(3) 121
Li3 Ga2 2.5979(3) 73_445
Li3 Ga2 2.5979(3) 49_454
Li3 Ga2 2.5979(3) 25_544
Li3 Rh1 2.9999(4) 25_544
Li3 Rh1 2.9999(4) 73_445
Li3 Rh1 2.9999(4) 73_444
Li3 Rh1 2.9999(4) 25_444
