#------------------------------------------------------------------------------
#$Date: 2017-07-12 01:08:00 +0300 (Wed, 12 Jul 2017) $
#$Revision: 198648 $
#$URL: file:///home/coder/svn-repositories/cod/cif/4/00/28/4002828.cif $
#------------------------------------------------------------------------------
#
# This file is available in the Crystallography Open Database (COD),
# http://www.crystallography.net/
#
# All data on this site have been placed in the public domain by the
# contributors.
#
data_4002828
loop_
_publ_author_name
'Rettie, Alexander J. E.'
'Sturza, Mihai'
'Malliakas, Christos D.'
'Botana, Antia S.'
'Chung, Duck Young'
'Kanatzidis, Mercouri G.'
_publ_section_title
;
 Copper Vacancies and Heavy Holes in the Two-Dimensional Semiconductor
 KCu3--xSe2
;
_journal_name_full               'Chemistry of Materials'
_journal_paper_doi               10.1021/acs.chemmater.7b02117
_journal_year                    2017
_chemical_formula_moiety         K1Cu3Se2
_chemical_formula_sum            'Cu3 K Se2'
_chemical_formula_weight         387.64
_chemical_melting_point          755
_chemical_name_common            Potassium_Copper_Selenide
_chemical_name_systematic
;
 ?
;
_space_group_crystal_system      monoclinic
_space_group_IT_number           12
_space_group_name_Hall           '-C 2y'
_space_group_name_H-M_alt        'C 1 2/m 1'
_symmetry_space_group_name_Hall  '-C 2y'
_symmetry_space_group_name_H-M   'C 1 2/m 1'
_atom_sites_solution_hydrogens   none
_atom_sites_solution_primary     direct
_atom_sites_solution_secondary   difmap
_audit_creation_method           SHELXL-2014/7
_cell_angle_alpha                90
_cell_angle_beta                 112.94(3)
_cell_angle_gamma                90
_cell_formula_units_Z            4
_cell_length_a                   15.417(3)
_cell_length_b                   4.0742(8)
_cell_length_c                   8.3190(17)
_cell_measurement_reflns_used    1359
_cell_measurement_temperature    293(2)
_cell_measurement_theta_max      28.981
_cell_measurement_theta_min      4.613
_cell_volume                     481.2(2)
_computing_cell_refinement       'STOE X-AREA'
_computing_data_collection       'STOE X-AREA'
_computing_data_reduction        'STOE X-RED'
_computing_structure_refinement  'SHELXL-2014/7 (Sheldrick, 2014)'
_computing_structure_solution    'SHELXL-2014/7 (Sheldrick, 2014)'
_diffrn_ambient_temperature      293(2)
_diffrn_detector_area_resol_mean 6.67
_diffrn_measured_fraction_theta_full 0.960
_diffrn_measured_fraction_theta_max 0.962
_diffrn_measurement_device_type  'STOE IPDS 2'
_diffrn_measurement_method       'image plate (34 cm diameter)'
_diffrn_radiation_type           MoK\a
_diffrn_radiation_wavelength     0.71073
_diffrn_reflns_av_R_equivalents  0.0591
_diffrn_reflns_av_unetI/netI     0.0321
_diffrn_reflns_Laue_measured_fraction_full 0.960
_diffrn_reflns_Laue_measured_fraction_max 0.962
_diffrn_reflns_limit_h_max       11
_diffrn_reflns_limit_h_min       -20
_diffrn_reflns_limit_k_max       5
_diffrn_reflns_limit_k_min       -4
_diffrn_reflns_limit_l_max       11
_diffrn_reflns_limit_l_min       -11
_diffrn_reflns_number            1370
_diffrn_reflns_point_group_measured_fraction_full 0.960
_diffrn_reflns_point_group_measured_fraction_max 0.962
_diffrn_reflns_theta_full        25.242
_diffrn_reflns_theta_max         28.981
_diffrn_reflns_theta_min         4.613
_diffrn_source                   'fine-focus sealed tube'
_exptl_absorpt_coefficient_mu    28.936
_exptl_absorpt_correction_T_max  0.4383
_exptl_absorpt_correction_T_min  0.0677
_exptl_absorpt_correction_type   psi-scan
_exptl_absorpt_process_details   '(North et al., 1968)'
_exptl_crystal_colour            black
_exptl_crystal_density_diffrn    5.351
_exptl_crystal_density_meas      ?
_exptl_crystal_density_method    'not measured'
_exptl_crystal_description       'plate-like morphology'
_exptl_crystal_F_000             696
_exptl_crystal_size_max          0.1890
_exptl_crystal_size_mid          0.1151
_exptl_crystal_size_min          0.0177
_refine_diff_density_max         1.417
_refine_diff_density_min         -1.222
_refine_diff_density_rms         0.293
_refine_ls_extinction_method     none
_refine_ls_goodness_of_fit_ref   0.951
_refine_ls_hydrogen_treatment    none
_refine_ls_matrix_type           full
_refine_ls_number_parameters     37
_refine_ls_number_reflns         705
_refine_ls_number_restraints     0
_refine_ls_restrained_S_all      0.951
_refine_ls_R_factor_all          0.0538
_refine_ls_R_factor_gt           0.0382
_refine_ls_shift/su_max          0.000
_refine_ls_shift/su_mean         0.000
_refine_ls_structure_factor_coef Fsqd
_refine_ls_weighting_details
'w=1/[\s^2^(Fo^2^)+(0.0662P)^2^] where P=(Fo^2^+2Fc^2^)/3'
_refine_ls_weighting_scheme      calc
_refine_ls_wR_factor_gt          0.0934
_refine_ls_wR_factor_ref         0.0970
_reflns_Friedel_coverage         0.000
_reflns_number_gt                534
_reflns_number_total             705
_reflns_threshold_expression     'I > 2\s(I)'
_cod_data_source_file            cm7b02117_si_002.cif
_cod_data_source_block           KCu3Se2
_cod_depositor_comments
;
The following automatic conversions were performed:

'_exptl_crystal_density_meas' value 'not measured' was changed to '?'
- the value is perceived as not measured.

Automatic conversion script
Id: cif_fix_values 4973 2017-02-22 13:04:09Z antanas 
;
_cod_original_cell_volume        481.19(19)
_cod_database_code               4002828
_shelx_shelxl_version_number     2014/7
_shelx_space_group_comment
;
The symmetry employed for this shelxl refinement is uniquely defined
by the following loop, which should always be used as a source of
symmetry information in preference to the above space-group names.
They are only intended as comments.
;
_shelx_res_file
;

    SM1123-1_KCu3Se2_xtal3.res created by SHELXL-2014/7

TITL SM1123-1_KCu3Se2_xtal3 in C2/m
CELL 0.71073  15.41700   4.07420   8.31900  90.0000 112.9440  90.0000
ZERR    4.00   0.00308   0.00081   0.00166   0.0000   0.0300   0.0000
LATT 7
SYMM -X, Y, -Z
SFAC K  Cu Se
UNIT 4  12  8
L.S. 30
ACTA
BOND
FMAP 2
PLAN 20
WGHT    0.066200
FVAR       0.08922
MOLE 1
SE2   3    0.198935    0.000000    0.689412    10.50000    0.01255    0.01695 =
         0.02201    0.00000    0.00607    0.00000
SE1   3    0.520871    0.000000    0.237190    10.50000    0.01487    0.01567 =
         0.02134    0.00000    0.00653    0.00000
CU1   2    0.062636    0.000000    0.406583    10.50000    0.04020    0.02023 =
         0.02581    0.00000    0.00966    0.00000
CU3   2    0.309209    0.000000    0.551203    10.50000    0.02362    0.05293 =
         0.04387    0.00000    0.01965    0.00000
CU2   2    0.410356    0.000000    0.372664    10.50000    0.03431    0.02726 =
         0.04195    0.00000    0.02521    0.00000
K4    1    0.134867    0.000000    0.044959    10.50000    0.02129    0.02375 =
         0.02793    0.00000    0.00654    0.00000
HKLF 4

REM  SM1123-1_KCu3Se2_xtal3 in C2/m
REM R1 =  0.0382 for     534 Fo > 4sig(Fo)  and  0.0538 for all     705 data
REM     37 parameters refined using      0 restraints

END

WGHT      0.0662      0.0000

REM Highest difference peak  1.417,  deepest hole -1.222,  1-sigma level  0.293
Q1    1   0.1957  0.0000  0.5985  10.50000  0.05    1.42
Q2    1   0.5248  0.0000  0.3328  10.50000  0.05    1.10
Q3    1   0.1683  0.1427  0.6785  11.00000  0.05    1.08
Q4    1   0.0592  0.0000  0.3042  10.50000  0.05    1.01
Q5    1  -0.0115  0.0000  0.3580  10.50000  0.05    0.92
Q6    1   0.3279  0.0000  0.2069  10.50000  0.05    0.92
Q7    1   0.0000  0.0000  0.0000  10.25000  0.05    0.91
Q8    1   0.1288  0.0884  0.5446  11.00000  0.05    0.89
Q9    1   0.5571 -0.1188  0.2630  11.00000  0.05    0.88
Q10   1   0.4377  0.0000  0.0086  10.50000  0.05    0.86
Q11   1   0.4062  0.0000  0.2598  10.50000  0.05    0.86
Q12   1   0.2664  0.0000  0.4678  10.50000  0.05    0.83
Q13   1   0.0381  0.2181 -0.0007  11.00000  0.05    0.82
Q14   1   0.5811 -0.1448  0.3602  11.00000  0.05    0.80
Q15   1   0.3677  0.2514  0.2286  11.00000  0.05    0.79
Q16   1   0.2084  0.2773  0.7858  11.00000  0.05    0.78
Q17   1   0.5215  0.0000  0.1145  10.50000  0.05    0.78
Q18   1   0.1956  0.0000  0.8016  10.50000  0.05    0.77
Q19   1   0.4881  0.1490  0.2365  11.00000  0.05    0.75
Q20   1   0.1333  0.0000  0.1475  10.50000  0.05    0.75
;
_shelx_res_checksum              43973
_shelx_hkl_file
;
   6   0   0   12.05    0.69
   8   0   0  170.60    0.90
  10   0   0  138.56    0.85
  12   0   0   16.10    0.71
  14   0   0    1.85    0.78
  16   0   0    8.34    0.89
  18   0   0   75.38    1.17
   1   1   0   35.34    0.91
   3   1   0  101.84    0.82
   5   1   0    9.27    0.63
   7   1   0   31.16    0.78
   9   1   0   29.06    0.82
  11   1   0   94.22    0.89
  13   1   0    1.84    0.80
  15   1   0   84.69    0.97
  17   1   0    2.53    1.07
   2   2   0   18.41    0.76
   4   2   0    4.35    0.81
   6   2   0    6.05    0.58
   8   2   0   93.88    0.70
  10   2   0   87.39    0.73
  12   2   0   12.36    0.61
  14   2   0    1.83    0.65
  16   2   0    5.53    0.80
   1   3   0    9.49    0.81
   3   3   0   54.34    0.92
   5   3   0    1.15    0.89
   7   3   0   24.76    0.64
   9   3   0   12.01    0.63
  11   3   0   30.97    0.66
  13   3   0    1.06    0.70
  15   3   0   54.60    0.81
   0   4   0  370.91    1.27
   2   4   0    7.58    0.95
   4   4   0    3.54    0.99
   6   4   0    2.33    0.76
   8   4   0   18.38    0.73
  10   4   0   25.40    0.77
  12   4   0    5.79    0.81
   1   5   0    1.77    1.24
   3   5   0   23.23    1.28
   5   5   0   -0.21    1.25
   7   5   0   10.76    0.91
 -18   0   1   64.02    0.96
 -16   0   1    7.88    0.76
 -14   0   1   40.42    0.73
 -12   0   1    2.95    0.66
   2   0   1   12.57    1.21
   4   0   1  156.69    1.15
   6   0   1    5.66    0.88
   8   0   1    3.88    0.82
  10   0   1  185.30    1.03
  12   0   1    1.41    0.84
  14   0   1   16.11    0.91
  16   0   1    4.52    1.06
  18   0   1   12.35    1.30
 -19   1   1    3.76    1.33
 -17   1   1   52.25    0.98
 -15   1   1    6.97    0.78
 -13   1   1   18.13    0.75
 -11   1   1  106.28    0.67
  -9   1   1    3.15    1.54
  -7   1   1  136.71    2.37
  -5   1   1    4.55    6.00
  -3   1   1    4.20    2.58
  -1   1   1   15.84    1.16
   1   1   1   81.66    0.94
   3   1   1  560.32    1.29
   5   1   1    2.64    0.89
   7   1   1  306.12    1.21
   9   1   1   25.97    0.91
  11   1   1  248.19    1.15
  13   1   1    3.40    0.93
  15   1   1    1.94    1.07
  17   1   1   16.03    1.28
 -18   2   1   44.46    0.81
 -16   2   1    4.83    0.69
 -14   2   1   31.74    0.65
 -12   2   1    1.60    0.58
 -10   2   1    0.01    0.60
  -8   2   1  671.31    1.04
  -6   2   1   53.62    1.59
  -4   2   1   59.39    1.34
  -2   2   1    2.13    0.86
   0   2   1  221.81    0.97
   2   2   1    4.97    0.75
   4   2   1   97.58    0.71
   6   2   1    4.74    0.62
   8   2   1    1.01    0.63
  10   2   1  121.50    0.78
  12   2   1    1.68    0.71
  14   2   1   15.51    0.71
  16   2   1    3.43    0.86
 -15   3   1    6.58    0.74
 -13   3   1    7.75    0.66
 -11   3   1   70.77    0.69
  -9   3   1    1.46    0.60
  -7   3   1   47.83    0.65
  -5   3   1    6.20    0.85
  -3   3   1    4.01    0.85
  -1   3   1   11.04    0.81
   1   3   1   19.42    0.85
   3   3   1  150.82    0.99
   5   3   1    2.62    0.66
   7   3   1  146.55    0.76
   9   3   1   12.69    0.66
  11   3   1  114.69    0.83
  13   3   1    3.83    0.82
  15   3   1    0.77    0.84
 -14   4   1   15.41    0.83
 -12   4   1    1.09    0.83
 -10   4   1    1.40    0.73
  -8   4   1  205.17    0.85
  -6   4   1   15.38    1.05
  -4   4   1   26.59    1.00
  -2   4   1    1.34    0.96
   0   4   1   37.66    0.95
   2   4   1    1.09    0.92
   4   4   1   40.89    1.00
   6   4   1    2.79    0.77
   8   4   1    0.17    0.83
  10   4   1   39.38    0.83
  12   4   1    0.56    0.86
  -7   5   1    9.11    0.90
  -5   5   1    5.83    1.31
  -3   5   1    1.59    1.31
  -1   5   1    5.01    1.27
   1   5   1    2.16    1.27
   3   5   1   22.16    1.37
   5   5   1    2.11    1.01
   7   5   1   44.20    0.98
 -20   0   2    1.14    0.97
 -18   0   2    0.58    0.80
 -16   0   2  100.06    0.80
  -4   0   2  274.35    1.42
  -2   0   2    3.57    1.58
   0   0   2   14.10    3.12
   2   0   2  140.61    1.80
   4   0   2   80.15    1.11
   6   0   2    1.17    0.87
   8   0   2    4.00    0.92
  10   0   2   69.94    0.96
  12   0   2    9.10    0.98
  14   0   2   -0.04    1.00
  16   0   2   -0.47    1.28
 -19   1   2   36.04    1.20
 -17   1   2   11.56    0.95
 -15   1   2   76.02    0.91
 -13   1   2    4.22    1.58
 -11   1   2    5.99    1.60
  -9   1   2    0.79    1.80
  -7   1   2  464.25    3.11
  -5   1   2  461.52    2.86
  -3   1   2    4.55    2.54
  -1   1   2  240.51    1.66
   1   1   2   28.99    1.17
   3   1   2 1000.00    4.02
   5   1   2   16.95    0.91
   7   1   2   23.33    0.89
   9   1   2    4.47    1.00
  11   1   2  120.97    1.13
  13   1   2   49.62    1.17
  15   1   2    0.94    1.29
  17   1   2    5.90    1.51
 -18   2   2    0.50    0.74
 -16   2   2   67.07    0.70
 -14   2   2   15.26    0.62
 -12   2   2   25.94    2.53
 -10   2   2    5.75    2.03
  -8   2   2   57.68    1.61
  -6   2   2   64.33    1.61
  -4   2   2  164.65    1.54
  -2   2   2    0.30    0.96
   0   2   2   10.95    0.73
   2   2   2   77.28    0.85
   4   2   2   42.18    0.83
   6   2   2    5.22    0.70
   8   2   2    5.55    0.67
  10   2   2   54.36    0.71
  12   2   2    6.07    0.77
  14   2   2    0.99    0.77
  16   2   2    1.00    0.97
 -17   3   2    5.81    0.80
 -15   3   2   32.16    0.72
 -13   3   2    0.83    0.64
 -11   3   2    3.74    0.61
  -9   3   2    0.34    0.59
  -7   3   2  155.35    1.50
  -5   3   2  131.99    1.27
  -3   3   2    0.82    0.90
  -1   3   2   91.29    0.86
   1   3   2   16.68    0.86
   3   3   2  381.89    1.25
   5   3   2   10.58    0.69
   7   3   2   14.45    0.73
   9   3   2    2.17    0.70
  11   3   2   53.52    0.80
  13   3   2   24.11    0.84
 -14   4   2    3.85    0.83
 -12   4   2   18.46    0.83
 -10   4   2    5.96    0.73
  -8   4   2   11.31    0.96
  -6   4   2   20.08    1.03
  -4   4   2   72.18    1.06
  -2   4   2    0.99    0.95
   0   4   2   12.07    0.96
   2   4   2   20.82    0.94
   4   4   2    7.22    1.23
   6   4   2    6.33    0.78
   8   4   2    3.07    0.81
  10   4   2   25.43    0.88
  -7   5   2   32.84    1.38
  -5   5   2   19.06    1.35
  -3   5   2   -0.21    1.25
  -1   5   2   23.14    1.33
   1   5   2    5.49    1.32
   3   5   2   81.82    1.53
   5   5   2    5.07    1.10
 -20   0   3    1.89    0.88
  -6   0   3    2.12    0.88
  -4   0   3  352.76    1.64
  -2   0   3   44.71    2.35
   0   0   3  162.28    2.43
   2   0   3  103.03    1.86
   4   0   3   17.56    1.29
   6   0   3   46.39    1.09
   8   0   3    0.68    0.99
  10   0   3   80.15    1.18
  12   0   3    4.73    1.21
  14   0   3  106.22    1.48
  16   0   3    1.00    1.80
 -19   1   3    0.79    1.03
 -17   1   3    2.83    1.96
 -15   1   3  197.30    2.04
 -13   1   3   39.60    1.73
 -11   1   3    2.95    1.59
  -9   1   3   21.92    2.01
  -7   1   3    0.15    2.69
  -5   1   3  811.41    3.17
  -3   1   3   61.64    2.36
  -1   1   3  131.09    1.46
   1   1   3    5.45    1.28
   3   1   3  460.98    1.68
   5   1   3   10.23    1.09
   7   1   3   18.35    1.02
   9   1   3   10.13    1.11
  11   1   3    7.24    1.12
  13   1   3   24.56    1.26
  15   1   3    2.03    1.43
 -18   2   3   10.45    0.78
 -16   2   3    1.27    0.88
 -14   2   3   61.26    3.40
 -12   2   3   42.52    2.94
 -10   2   3    7.12    2.34
  -8   2   3   37.89    1.59
  -6   2   3    1.68    1.73
  -4   2   3  160.17    1.64
  -2   2   3   12.23    1.10
   0   2   3   82.87    0.96
   2   2   3   61.13    0.98
   4   2   3   10.12    0.90
   6   2   3   21.43    0.89
   8   2   3   -0.16    0.72
  10   2   3   63.37    0.81
  12   2   3    4.84    0.89
  14   2   3   88.15    1.07
 -17   3   3    3.08    0.78
 -15   3   3  113.58    0.82
 -13   3   3   15.97    0.64
 -11   3   3    4.26    1.33
  -9   3   3    7.59    1.25
  -7   3   3    1.00    1.27
  -5   3   3  271.24    1.49
  -3   3   3   19.51    0.97
  -1   3   3   63.20    0.92
   1   3   3    4.10    0.80
   3   3   3  162.01    1.03
   5   3   3    3.21    0.79
   7   3   3   15.20    0.76
   9   3   3    2.83    0.77
  11   3   3    6.82    0.91
  13   3   3   12.75    0.95
 -14   4   3   31.87    0.83
 -12   4   3   37.22    0.79
 -10   4   3    0.07    0.73
  -8   4   3   22.47    0.98
  -6   4   3    1.02    1.04
  -4   4   3   34.60    1.04
  -2   4   3    0.76    0.92
   0   4   3   25.78    1.01
   2   4   3   20.44    1.07
   4   4   3    1.82    1.22
   6   4   3    2.56    0.85
   8   4   3    1.06    0.89
  10   4   3   24.17    0.98
  -7   5   3    2.46    1.38
  -5   5   3   54.84    1.43
  -3   5   3    3.49    1.44
  -1   5   3   20.89    1.44
   1   5   3    1.25    1.41
   3   5   3   29.25    1.80
 -20   0   4    4.74    1.33
 -18   0   4    6.13    1.06
 -16   0   4   20.02    0.96
 -14   0   4   20.19    0.91
 -12   0   4  225.34    1.09
 -10   0   4   40.37    0.96
  -8   0   4  162.35    1.12
  -6   0   4   12.72    1.04
  -4   0   4  304.86    1.72
  -2   0   4  113.08    1.88
   0   0   4    0.88    1.51
   2   0   4   77.39    1.67
   4   0   4    4.59    1.45
   6   0   4  555.59    1.80
   8   0   4    3.81    1.15
  10   0   4    2.81    1.36
  12   0   4    7.86    1.54
  14   0   4   16.22    1.84
 -19   1   4    6.12    2.51
 -17   1   4    1.22    2.15
 -15   1   4    1.26    1.85
 -13   1   4   59.17    1.73
 -11   1   4   21.77    1.84
  -9   1   4  111.20    2.14
  -7   1   4   14.47    1.54
  -5   1   4  373.27    1.58
  -3   1   4   78.30    1.34
  -1   1   4   45.96    1.56
   1   1   4   19.95    1.45
   3   1   4   80.78    1.42
   5   1   4   11.27    1.18
   7   1   4    0.20    1.06
   9   1   4   18.66    1.08
  11   1   4   -0.42    1.24
  13   1   4    2.94    1.46
 -18   2   4    2.84    4.27
 -16   2   4   16.22    4.47
 -14   2   4   10.01    3.84
 -12   2   4  103.93    3.33
 -10   2   4   16.36    2.61
  -8   2   4   93.18    1.89
  -6   2   4    6.95    2.03
  -4   2   4  151.07    1.73
  -2   2   4   59.00    1.11
   0   2   4    1.36    1.01
   2   2   4   47.14    1.02
   4   2   4    3.99    1.04
   6   2   4  354.48    1.30
   8   2   4    3.59    0.79
  10   2   4    1.75    0.91
  12   2   4    6.54    1.03
 -17   3   4   -0.07    0.78
 -15   3   4    0.45    1.91
 -13   3   4   23.42    1.44
 -11   3   4    4.12    1.22
  -9   3   4   50.99    1.41
  -7   3   4   10.39    1.40
  -5   3   4  111.56    1.27
  -3   3   4   24.62    1.08
  -1   3   4   37.16    0.96
   1   3   4    4.20    0.94
   3   3   4   42.74    1.01
   5   3   4    5.15    0.76
   7   3   4    0.49    0.86
   9   3   4   15.19    0.90
  11   3   4    0.34    0.97
 -14   4   4    2.28    0.84
 -12   4   4   37.78    0.82
 -10   4   4    4.40    1.35
  -8   4   4   31.94    1.37
  -6   4   4    1.77    1.21
  -4   4   4   37.81    1.07
  -2   4   4    9.32    0.93
   0   4   4    1.15    0.91
   2   4   4   14.57    1.28
   4   4   4    3.17    1.02
   6   4   4  119.15    1.08
   8   4   4    0.66    1.04
  -7   5   4    5.43    1.41
  -5   5   4   24.01    1.44
  -3   5   4    6.21    1.45
  -1   5   4   16.02    1.40
   1   5   4    2.01    1.68
 -20   0   5   36.71    1.45
 -18   0   5   13.01    1.20
 -16   0   5   32.87    1.04
 -14   0   5    0.21    0.95
 -12   0   5  270.20    1.22
 -10   0   5   14.69    1.03
  -8   0   5    5.45    1.02
  -6   0   5    0.26    1.28
  -4   0   5   10.64    1.59
  -2   0   5  740.77    2.06
   0   0   5   33.00    1.33
   2   0   5    1.64    1.53
   4   0   5    1.76    1.42
   6   0   5   83.52    1.49
   8   0   5    0.33    1.31
  10   0   5   36.11    1.45
  12   0   5    1.41    1.99
 -19   1   5    0.91    2.49
 -17   1   5   12.45    2.03
 -15   1   5   12.17    1.87
 -13   1   5   36.09    1.87
 -11   1   5  176.54    2.06
  -9   1   5   20.68    0.96
  -7   1   5   13.98    1.03
  -5   1   5  172.40    1.39
  -3   1   5    6.18    1.30
  -1   1   5   20.93    1.57
   1   1   5    0.49    1.43
   3   1   5   37.79    1.41
   5   1   5    5.68    1.26
   7   1   5   19.14    1.23
   9   1   5   11.14    1.27
  11   1   5    0.41    1.49
  13   1   5   54.68    1.69
 -18   2   5   11.59    5.08
 -16   2   5   32.09    5.44
 -14   2   5    1.80    4.37
 -12   2   5  206.37    3.86
 -10   2   5    7.69    2.80
  -8   2   5    6.03    1.92
  -6   2   5    0.42    1.09
  -4   2   5    3.66    1.09
  -2   2   5  444.81    1.64
   0   2   5   15.30    1.27
   2   2   5    0.45    1.15
   4   2   5    1.59    1.06
   6   2   5   51.50    1.20
   8   2   5    1.25    1.13
  10   2   5   28.83    1.16
  12   2   5    2.82    1.28
 -17   3   5    7.05    1.96
 -15   3   5    7.34    1.71
 -13   3   5   15.11    1.54
 -11   3   5   54.55    1.46
  -9   3   5   14.98    1.54
  -7   3   5    2.93    1.46
  -5   3   5   71.43    1.34
  -3   3   5    0.80    1.00
  -1   3   5    4.23    1.06
   1   3   5    0.93    1.08
   3   3   5   16.04    1.16
   5   3   5    2.05    1.09
   7   3   5    8.45    0.98
   9   3   5    3.43    1.06
 -12   4   5   50.58    1.41
 -10   4   5    1.26    1.48
  -8   4   5    4.97    1.44
  -6   4   5   -0.02    1.27
  -4   4   5   -0.11    1.27
  -2   4   5  126.78    1.19
   0   4   5    3.23    1.12
   2   4   5    1.05    1.15
   4   4   5    1.98    1.11
   6   4   5   14.73    1.16
 -20   0   6   43.10    1.54
 -18   0   6    0.76    1.22
 -16   0   6    9.30    1.14
 -14   0   6    8.17    1.04
 -12   0   6   20.29    1.02
 -10   0   6  145.02    1.26
  -8   0   6   31.42    1.23
  -6   0   6    5.90    1.41
  -4   0   6   24.83    1.46
  -2   0   6   94.63    1.35
   0   0   6   49.61    1.21
   2   0   6  122.95    1.33
   4   0   6    3.05    1.33
   6   0   6    9.31    1.44
   8   0   6   11.73    1.50
  10   0   6    1.13    1.52
 -19   1   6   82.42    1.39
 -17   1   6    0.60    1.21
 -15   1   6    2.45    1.05
 -13   1   6   72.28    1.08
 -11   1   6   36.49    1.03
  -9   1   6   48.55    1.11
  -7   1   6   13.13    1.18
  -5   1   6   91.82    1.28
  -3   1   6    1.29    1.32
  -1   1   6  186.43    1.64
   1   1   6   60.63    1.35
   3   1   6    1.29    1.27
   5   1   6   97.42    1.43
   7   1   6    1.71    1.36
   9   1   6   63.33    1.55
  11   1   6    1.93    1.62
 -18   2   6    0.27    4.72
 -16   2   6   14.07    3.35
 -14   2   6    9.57    2.82
 -12   2   6   11.02    2.36
 -10   2   6  100.90    1.17
  -8   2   6   14.95    1.12
  -6   2   6    4.48    1.12
  -4   2   6   20.73    1.20
  -2   2   6   55.46    1.38
   0   2   6   23.25    1.38
   2   2   6   76.11    1.29
   4   2   6    0.78    1.19
   6   2   6    7.21    1.34
   8   2   6    7.79    1.38
  10   2   6   -0.65    1.41
 -15   3   6    1.44    2.04
 -13   3   6   30.14    1.89
 -11   3   6   10.00    1.62
  -9   3   6   13.05    1.73
  -7   3   6    3.88    1.00
  -5   3   6   36.96    1.08
  -3   3   6    1.57    1.20
  -1   3   6   68.37    1.34
   1   3   6   16.30    1.27
   3   3   6   -0.11    1.19
   5   3   6   38.80    1.39
   7   3   6    1.24    1.20
 -12   4   6    0.82    1.36
 -10   4   6   23.80    1.64
  -8   4   6    1.27    1.50
  -6   4   6    3.73    1.12
  -4   4   6    8.93    1.17
  -2   4   6   15.09    1.33
   0   4   6    7.76    1.38
   2   4   6   36.40    1.40
   4   4   6    1.18    1.22
 -20   0   7    4.88    1.56
 -18   0   7    0.08    1.36
 -16   0   7    5.12    1.18
 -14   0   7    1.61    1.18
 -12   0   7   36.27    1.16
 -10   0   7    7.37    1.24
  -8   0   7  134.31    1.69
  -6   0   7   75.46    1.47
  -4   0   7    1.67    1.19
  -2   0   7   38.58    1.16
   0   0   7    0.13    1.02
   2   0   7   10.74    1.06
   4   0   7    2.91    1.22
   6   0   7   45.39    1.37
   8   0   7   11.07    1.50
  10   0   7    0.47    1.76
 -19   1   7   24.12    1.42
 -17   1   7   14.62    1.26
 -15   1   7    9.95    1.15
 -13   1   7   26.13    1.11
 -11   1   7    8.57    1.12
  -9   1   7  260.45    1.45
  -7   1   7   26.97    1.23
  -5   1   7    4.32    1.20
  -3   1   7   22.49    1.16
  -1   1   7   -0.07    1.14
   1   1   7  116.48    1.29
   3   1   7    1.60    1.24
   5   1   7    3.06    1.26
   7   1   7    1.09    1.45
   9   1   7   41.65    1.64
 -18   2   7    0.59    1.26
 -16   2   7    4.86    1.20
 -14   2   7    2.59    1.03
 -12   2   7   27.47    1.03
 -10   2   7    7.92    1.12
  -8   2   7   75.80    1.22
  -6   2   7   65.19    1.25
  -4   2   7    1.80    1.21
  -2   2   7   26.16    1.39
   0   2   7    0.52    1.33
   2   2   7    4.84    1.31
   4   2   7    1.75    1.35
   6   2   7   26.77    1.62
   8   2   7    6.94    1.71
 -15   3   7    6.70    2.58
 -13   3   7   12.30    1.12
 -11   3   7    7.93    1.21
  -9   3   7  121.22    1.31
  -7   3   7   10.69    1.20
  -5   3   7    1.08    1.26
  -3   3   7    8.10    1.33
  -1   3   7   -0.61    1.45
   1   3   7   41.55    1.48
   3   3   7    1.21    1.36
   5   3   7    2.84    1.55
 -10   4   7    2.44    1.34
  -8   4   7   21.75    1.23
  -6   4   7   29.85    1.32
  -4   4   7    0.53    1.38
  -2   4   7    9.55    1.56
   0   4   7   -0.84    1.63
 -18   0   8    1.31    1.43
 -16   0   8   69.80    1.43
 -14   0   8   10.52    1.29
 -12   0   8    0.21    1.37
 -10   0   8   22.49    1.43
  -8   0   8   13.41    1.27
  -6   0   8   35.75    1.23
  -4   0   8   19.59    1.02
  -2   0   8  123.26    1.11
   0   0   8    2.32    0.92
   2   0   8   31.88    1.09
   4   0   8    0.23    1.14
   6   0   8    0.57    1.30
 -17   1   8   82.82    1.45
 -15   1   8    0.86    1.24
 -13   1   8    0.84    1.14
 -11   1   8    2.63    1.14
  -9   1   8    3.94    1.19
  -7   1   8   23.30    1.15
  -5   1   8    0.37    1.06
  -3   1   8   11.83    1.02
  -1   1   8   11.01    1.04
   1   1   8   65.96    1.17
   3   1   8    9.35    1.15
   5   1   8   18.40    1.33
   7   1   8    1.88    1.49
 -16   2   8   50.82    1.29
 -14   2   8   10.27    1.13
 -12   2   8   -0.05    1.09
 -10   2   8   15.42    1.22
  -8   2   8   13.42    1.16
  -6   2   8   21.26    1.22
  -4   2   8   15.80    1.25
  -2   2   8   79.87    1.34
   0   2   8    1.60    1.32
   2   2   8   19.34    1.32
   4   2   8    1.94    1.40
   6   2   8    0.92    1.70
 -13   3   8    1.19    1.24
 -11   3   8    1.72    1.34
  -9   3   8    1.92    1.37
  -7   3   8   11.36    1.33
  -5   3   8    0.55    1.42
  -3   3   8    8.05    1.56
  -1   3   8    6.78    1.57
   1   3   8   30.36    1.58
 -18   0   9    2.09    1.79
 -16   0   9   34.88    1.61
 -14   0   9   24.95    1.56
 -12   0   9    9.59    1.46
 -10   0   9   57.94    1.33
  -8   0   9    2.17    1.16
  -6   0   9   76.57    1.13
  -4   0   9    2.99    0.99
  -2   0   9    0.59    0.91
   0   0   9    2.74    0.93
   2   0   9    3.15    1.05
   4   0   9   47.15    1.21
 -17   1   9    1.62    1.45
 -15   1   9    3.59    1.34
 -13   1   9    0.37    1.23
 -11   1   9    7.76    1.20
  -9   1   9   17.14    1.21
  -7   1   9   21.18    1.10
  -5   1   9   35.26    1.07
  -3   1   9   13.12    0.98
  -1   1   9    0.97    1.02
   1   1   9   32.07    1.12
   3   1   9    0.62    1.14
 -16   2   9   19.81    1.14
 -14   2   9   15.98    1.26
 -12   2   9   11.28    1.21
 -10   2   9   51.50    1.31
  -8   2   9    2.44    1.20
  -6   2   9   55.20    1.26
  -4   2   9    1.76    1.20
  -2   2   9    0.80    1.18
   0   2   9    0.78    1.22
   2   2   9    0.85    1.28
 -11   3   9    6.01    1.48
  -9   3   9   11.87    1.47
  -7   3   9   13.07    1.45
  -5   3   9   20.04    1.52
  -3   3   9   10.01    1.49
 -16   0  10    5.24    1.83
 -14   0  10   39.65    1.55
 -12   0  10    0.69    1.34
 -10   0  10    1.06    1.23
  -8   0  10    6.47    1.09
  -6   0  10    9.02    1.02
  -4   0  10   21.03    1.01
  -2   0  10    0.50    0.98
   0   0  10    1.11    1.00
 -15   1  10   -0.11    1.48
 -13   1  10   40.64    1.39
 -11   1  10   -0.01    1.33
  -9   1  10    1.19    1.20
  -7   1  10   29.74    1.09
  -5   1  10   11.23    1.06
  -3   1  10    0.63    1.00
  -1   1  10    3.70    1.02
   1   1  10   25.61    1.14
 -12   2  10   -0.69    1.28
 -10   2  10    1.86    1.32
  -8   2  10    6.65    1.24
  -6   2  10    7.65    1.19
  -4   2  10   15.11    1.20
  -2   2  10    0.36    1.19
 -12   0  11    1.90    1.34
 -10   0  11   -0.72    1.28
  -8   0  11    0.30    1.08
  -6   0  11   15.43    1.05
  -4   0  11    0.70    1.08
 -11   1  11    1.73    1.15
  -9   1  11    6.40    1.19
  -7   1  11   23.75    1.11
  -5   1  11    4.13    1.03
   0   0   0    0.00    0.00
;
_shelx_hkl_checksum              84001
loop_
_space_group_symop_operation_xyz
'x, y, z'
'-x, y, -z'
'x+1/2, y+1/2, z'
'-x+1/2, y+1/2, -z'
'-x, -y, -z'
'x, -y, z'
'-x+1/2, -y+1/2, -z'
'x+1/2, -y+1/2, z'
loop_
_atom_site_label
_atom_site_type_symbol
_atom_site_fract_x
_atom_site_fract_y
_atom_site_fract_z
_atom_site_U_iso_or_equiv
_atom_site_adp_type
_atom_site_occupancy
_atom_site_site_symmetry_order
_atom_site_calc_flag
_atom_site_refinement_flags_posn
_atom_site_refinement_flags_adp
_atom_site_refinement_flags_occupancy
Se2 Se 0.19894(6) 0.0000 0.68941(13) 0.0174(2) Uani 1 2 d S T P
Se1 Se 0.52087(6) 0.0000 0.23719(12) 0.0175(2) Uani 1 2 d S T P
Cu1 Cu 0.06264(11) 0.0000 0.40658(18) 0.0297(3) Uani 1 2 d S T P
Cu3 Cu 0.30921(10) 0.0000 0.5512(2) 0.0381(4) Uani 1 2 d S T P
Cu2 Cu 0.41036(10) 0.0000 0.3727(2) 0.0313(4) Uani 1 2 d S T P
K4 K 0.13487(15) 0.0000 0.0450(3) 0.0253(4) Uani 1 2 d S T P
loop_
_atom_site_aniso_label
_atom_site_aniso_U_11
_atom_site_aniso_U_22
_atom_site_aniso_U_33
_atom_site_aniso_U_23
_atom_site_aniso_U_13
_atom_site_aniso_U_12
Se2 0.0125(4) 0.0170(4) 0.0220(5) 0.000 0.0061(3) 0.000
Se1 0.0149(4) 0.0157(4) 0.0213(5) 0.000 0.0065(4) 0.000
Cu1 0.0402(7) 0.0202(6) 0.0258(7) 0.000 0.0097(6) 0.000
Cu3 0.0236(7) 0.0529(10) 0.0439(9) 0.000 0.0196(6) 0.000
Cu2 0.0343(7) 0.0273(7) 0.0420(9) 0.000 0.0252(7) 0.000
K4 0.0213(9) 0.0237(9) 0.0279(11) 0.000 0.0065(8) 0.000
loop_
_atom_type_symbol
_atom_type_description
_atom_type_scat_dispersion_real
_atom_type_scat_dispersion_imag
_atom_type_scat_source
K K 0.2009 0.2494 'International Tables Vol C Tables 4.2.6.8 and 6.1.1.4'
Cu Cu 0.3201 1.2651 'International Tables Vol C Tables 4.2.6.8 and 6.1.1.4'
Se Se -0.0929 2.2259 'International Tables Vol C Tables 4.2.6.8 and 6.1.1.4'
loop_
_geom_angle_atom_site_label_1
_geom_angle_atom_site_label_2
_geom_angle_atom_site_label_3
_geom_angle
_geom_angle_site_symmetry_1
_geom_angle_site_symmetry_3
Cu3 Se2 Cu1 92.42(7) . .
Cu3 Se2 Cu2 115.91(5) . 7_546
Cu1 Se2 Cu2 63.89(4) . 7_546
Cu3 Se2 Cu2 115.91(5) . 7_556
Cu1 Se2 Cu2 63.89(4) . 7_556
Cu2 Se2 Cu2 105.18(6) 7_546 7_556
Cu3 Se2 Cu3 60.23(4) . 7_546
Cu1 Se2 Cu3 62.51(4) . 7_546
Cu2 Se2 Cu3 55.95(4) 7_546 7_546
Cu2 Se2 Cu3 125.88(6) 7_556 7_546
Cu3 Se2 Cu3 60.23(4) . 7_556
Cu1 Se2 Cu3 62.51(4) . 7_556
Cu2 Se2 Cu3 125.88(6) 7_546 7_556
Cu2 Se2 Cu3 55.95(4) 7_556 7_556
Cu3 Se2 Cu3 92.32(6) 7_546 7_556
Cu3 Se2 K4 79.21(6) . 7_556
Cu1 Se2 K4 141.07(3) . 7_556
Cu2 Se2 K4 152.99(6) 7_546 7_556
Cu2 Se2 K4 85.60(5) 7_556 7_556
Cu3 Se2 K4 135.94(6) 7_546 7_556
Cu3 Se2 K4 80.79(5) 7_556 7_556
Cu3 Se2 K4 79.21(6) . 7_546
Cu1 Se2 K4 141.07(3) . 7_546
Cu2 Se2 K4 85.60(4) 7_546 7_546
Cu2 Se2 K4 152.99(6) 7_556 7_546
Cu3 Se2 K4 80.79(5) 7_546 7_546
Cu3 Se2 K4 135.94(6) 7_556 7_546
K4 Se2 K4 75.06(5) 7_556 7_546
Cu3 Se2 K4 154.40(6) . 1_556
Cu1 Se2 K4 113.18(6) . 1_556
Cu2 Se2 K4 77.78(5) 7_546 1_556
Cu2 Se2 K4 77.78(5) 7_556 1_556
Cu3 Se2 K4 131.03(3) 7_546 1_556
Cu3 Se2 K4 131.03(3) 7_556 1_556
K4 Se2 K4 80.55(6) 7_556 1_556
K4 Se2 K4 80.55(6) 7_546 1_556
Cu2 Se1 Cu1 78.53(5) . 3
Cu2 Se1 Cu1 78.53(5) . 3_545
Cu1 Se1 Cu1 114.86(7) 3 3_545
Cu2 Se1 Cu3 114.18(7) . 5_656
Cu1 Se1 Cu3 67.98(4) 3 5_656
Cu1 Se1 Cu3 67.98(4) 3_545 5_656
Cu2 Se1 K4 83.16(6) . 7_545
Cu1 Se1 K4 152.11(5) 3 7_545
Cu1 Se1 K4 81.37(5) 3_545 7_545
Cu3 Se1 K4 139.55(3) 5_656 7_545
Cu2 Se1 K4 83.16(6) . 7
Cu1 Se1 K4 81.37(5) 3 7
Cu1 Se1 K4 152.11(5) 3_545 7
Cu3 Se1 K4 139.55(3) 5_656 7
K4 Se1 K4 75.67(6) 7_545 7
Cu2 Se1 K4 143.54(3) . 3
Cu1 Se1 K4 72.88(5) 3 3
Cu1 Se1 K4 134.21(6) 3_545 3
Cu3 Se1 K4 75.31(5) 5_656 3
K4 Se1 K4 113.06(4) 7_545 3
K4 Se1 K4 70.73(6) 7 3
Cu2 Se1 K4 143.54(3) . 3_545
Cu1 Se1 K4 134.21(6) 3 3_545
Cu1 Se1 K4 72.88(5) 3_545 3_545
Cu3 Se1 K4 75.31(5) 5_656 3_545
K4 Se1 K4 70.73(6) 7_545 3_545
K4 Se1 K4 113.06(4) 7 3_545
K4 Se1 K4 72.08(5) 3 3_545
Se1 Cu1 Se1 114.87(7) 3_445 3_455
Se1 Cu1 Se2 119.33(4) 3_445 .
Se1 Cu1 Se2 119.33(4) 3_455 .
Se1 Cu1 Cu2 168.72(7) 3_445 7_556
Se1 Cu1 Cu2 72.06(4) 3_455 7_556
Se2 Cu1 Cu2 59.80(4) . 7_556
Se1 Cu1 Cu2 72.06(4) 3_445 7_546
Se1 Cu1 Cu2 168.72(7) 3_455 7_546
Se2 Cu1 Cu2 59.80(4) . 7_546
Cu2 Cu1 Cu2 99.73(7) 7_556 7_546
Se1 Cu1 Cu3 135.25(8) 3_445 7_556
Se1 Cu1 Cu3 57.83(4) 3_455 7_556
Se2 Cu1 Cu3 65.05(5) . 7_556
Cu2 Cu1 Cu3 55.73(5) 7_556 7_556
Cu2 Cu1 Cu3 124.34(7) 7_546 7_556
Se1 Cu1 Cu3 57.83(4) 3_445 7_546
Se1 Cu1 Cu3 135.25(8) 3_455 7_546
Se2 Cu1 Cu3 65.05(5) . 7_546
Cu2 Cu1 Cu3 124.34(7) 7_556 7_546
Cu2 Cu1 Cu3 55.73(5) 7_546 7_546
Cu3 Cu1 Cu3 94.99(7) 7_556 7_546
Se1 Cu1 Cu1 103.28(6) 3_445 5_556
Se1 Cu1 Cu1 103.28(6) 3_455 5_556
Se2 Cu1 Cu1 89.23(7) . 5_556
Cu2 Cu1 Cu1 65.81(5) 7_556 5_556
Cu2 Cu1 Cu1 65.81(5) 7_546 5_556
Cu3 Cu1 Cu1 121.47(5) 7_556 5_556
Cu3 Cu1 Cu1 121.47(5) 7_546 5_556
Se1 Cu1 Cu2 50.21(4) 3_445 3_445
Se1 Cu1 Cu2 119.37(7) 3_455 3_445
Se2 Cu1 Cu2 115.37(5) . 3_445
Cu2 Cu1 Cu2 118.96(6) 7_556 3_445
Cu2 Cu1 Cu2 57.23(6) 7_546 3_445
Cu3 Cu1 Cu2 174.13(6) 7_556 3_445
Cu3 Cu1 Cu2 90.33(3) 7_546 3_445
Cu1 Cu1 Cu2 53.15(4) 5_556 3_445
Se1 Cu1 Cu2 119.37(7) 3_445 3_455
Se1 Cu1 Cu2 50.21(4) 3_455 3_455
Se2 Cu1 Cu2 115.37(5) . 3_455
Cu2 Cu1 Cu2 57.23(6) 7_556 3_455
Cu2 Cu1 Cu2 118.96(6) 7_546 3_455
Cu3 Cu1 Cu2 90.33(3) 7_556 3_455
Cu3 Cu1 Cu2 174.13(6) 7_546 3_455
Cu1 Cu1 Cu2 53.15(4) 5_556 3_455
Cu2 Cu1 Cu2 84.24(6) 3_445 3_455
Se1 Cu1 K4 67.10(4) 3_445 .
Se1 Cu1 K4 67.10(4) 3_455 .
Se2 Cu1 K4 111.81(7) . .
Cu2 Cu1 K4 124.13(4) 7_556 .
Cu2 Cu1 K4 124.13(4) 7_546 .
Cu3 Cu1 K4 70.53(5) 7_556 .
Cu3 Cu1 K4 70.53(5) 7_546 .
Cu1 Cu1 K4 158.96(9) 5_556 .
Cu2 Cu1 K4 113.76(5) 3_445 .
Cu2 Cu1 K4 113.76(5) 3_455 .
Se1 Cu1 K4 59.70(4) 3_445 5
Se1 Cu1 K4 59.70(4) 3_455 5
Se2 Cu1 K4 175.90(8) . 5
Cu2 Cu1 K4 122.04(5) 7_556 5
Cu2 Cu1 K4 122.04(5) 7_546 5
Cu3 Cu1 K4 112.52(6) 7_556 5
Cu3 Cu1 K4 112.52(6) 7_546 5
Cu1 Cu1 K4 94.87(8) 5_556 5
Cu2 Cu1 K4 67.42(5) 3_445 5
Cu2 Cu1 K4 67.42(5) 3_455 5
K4 Cu1 K4 64.09(6) . 5
Se2 Cu3 Se1 113.78(8) . 5_656
Se2 Cu3 Cu2 173.63(9) . .
Se1 Cu3 Cu2 72.58(6) 5_656 .
Se2 Cu3 Cu3 67.95(6) . 7_546
Se1 Cu3 Cu3 128.56(5) 5_656 7_546
Cu2 Cu3 Cu3 108.41(8) . 7_546
Se2 Cu3 Cu3 67.95(6) . 7_556
Se1 Cu3 Cu3 128.56(6) 5_656 7_556
Cu2 Cu3 Cu3 108.41(8) . 7_556
Cu3 Cu3 Cu3 100.74(10) 7_546 7_556
Se2 Cu3 Cu1 123.04(5) . 7_556
Se1 Cu3 Cu1 54.19(4) 5_656 7_556
Cu2 Cu3 Cu1 60.16(4) . 7_556
Cu3 Cu3 Cu1 168.03(11) 7_546 7_556
Cu3 Cu3 Cu1 80.95(4) 7_556 7_556
Se2 Cu3 Cu1 123.04(5) . 7_546
Se1 Cu3 Cu1 54.19(4) 5_656 7_546
Cu2 Cu3 Cu1 60.16(4) . 7_546
Cu3 Cu3 Cu1 80.95(4) 7_546 7_546
Cu3 Cu3 Cu1 168.03(11) 7_556 7_546
Cu1 Cu3 Cu1 94.99(7) 7_556 7_546
Se2 Cu3 Se2 119.77(4) . 7_546
Se1 Cu3 Se2 103.99(5) 5_656 7_546
Cu2 Cu3 Se2 56.84(4) . 7_546
Cu3 Cu3 Se2 51.82(5) 7_546 7_546
Cu3 Cu3 Se2 119.53(9) 7_556 7_546
Cu1 Cu3 Se2 116.99(6) 7_556 7_546
Cu1 Cu3 Se2 52.44(4) 7_546 7_546
Se2 Cu3 Se2 119.77(4) . 7_556
Se1 Cu3 Se2 103.99(5) 5_656 7_556
Cu2 Cu3 Se2 56.84(4) . 7_556
Cu3 Cu3 Se2 119.53(9) 7_546 7_556
Cu3 Cu3 Se2 51.82(5) 7_556 7_556
Cu1 Cu3 Se2 52.44(4) 7_556 7_556
Cu1 Cu3 Se2 116.99(6) 7_546 7_556
Se2 Cu3 Se2 92.32(6) 7_546 7_556
Se2 Cu3 K4 61.70(5) . 7_556
Se1 Cu3 K4 63.84(5) 5_656 7_556
Cu2 Cu3 K4 123.22(6) . 7_556
Cu3 Cu3 K4 126.78(9) 7_546 7_556
Cu3 Cu3 K4 75.98(7) 7_556 7_556
Cu1 Cu3 K4 65.18(5) 7_556 7_556
Cu1 Cu3 K4 112.66(7) 7_546 7_556
Se2 Cu3 K4 164.32(5) 7_546 7_556
Se2 Cu3 K4 100.09(3) 7_556 7_556
Se2 Cu3 K4 61.70(5) . 7_546
Se1 Cu3 K4 63.84(5) 5_656 7_546
Cu2 Cu3 K4 123.22(6) . 7_546
Cu3 Cu3 K4 75.98(7) 7_546 7_546
Cu3 Cu3 K4 126.78(9) 7_556 7_546
Cu1 Cu3 K4 112.66(7) 7_556 7_546
Cu1 Cu3 K4 65.18(5) 7_546 7_546
Se2 Cu3 K4 100.09(3) 7_546 7_546
Se2 Cu3 K4 164.32(5) 7_556 7_546
K4 Cu3 K4 66.18(5) 7_556 7_546
Se2 Cu3 K4 101.14(6) . .
Se1 Cu3 K4 145.07(7) 5_656 .
Cu2 Cu3 K4 72.49(6) . .
Cu3 Cu3 K4 64.32(7) 7_546 .
Cu3 Cu3 K4 64.32(7) 7_556 .
Cu1 Cu3 K4 106.64(6) 7_556 .
Cu1 Cu3 K4 106.64(6) 7_546 .
Se2 Cu3 K4 55.27(4) 7_546 .
Se2 Cu3 K4 55.27(4) 7_556 .
K4 Cu3 K4 140.29(3) 7_556 .
K4 Cu3 K4 140.29(3) 7_546 .
Se1 Cu2 Cu3 173.24(9) . .
Se1 Cu2 Se2 116.10(5) . 7_546
Cu3 Cu2 Se2 67.20(4) . 7_546
Se1 Cu2 Se2 116.10(5) . 7_556
Cu3 Cu2 Se2 67.20(4) . 7_556
Se2 Cu2 Se2 105.18(6) 7_546 7_556
Se1 Cu2 Cu1 112.20(5) . 7_556
Cu3 Cu2 Cu1 64.11(5) . 7_556
Se2 Cu2 Cu1 131.29(7) 7_546 7_556
Se2 Cu2 Cu1 56.31(4) 7_556 7_556
Se1 Cu2 Cu1 112.20(5) . 7_546
Cu3 Cu2 Cu1 64.11(5) . 7_546
Se2 Cu2 Cu1 56.31(4) 7_546 7_546
Se2 Cu2 Cu1 131.29(7) 7_556 7_546
Cu1 Cu2 Cu1 99.73(7) 7_556 7_546
Se1 Cu2 Cu2 71.03(6) . 5_656
Cu3 Cu2 Cu2 102.21(9) . 5_656
Se2 Cu2 Cu2 122.63(4) 7_546 5_656
Se2 Cu2 Cu2 122.63(4) 7_556 5_656
Cu1 Cu2 Cu2 68.22(5) 7_556 5_656
Cu1 Cu2 Cu2 68.22(5) 7_546 5_656
Se1 Cu2 Cu1 51.26(4) . 3
Cu3 Cu2 Cu1 125.07(5) . 3
Se2 Cu2 Cu1 167.12(6) 7_546 3
Se2 Cu2 Cu1 84.80(3) 7_556 3
Cu1 Cu2 Cu1 61.04(6) 7_556 3
Cu1 Cu2 Cu1 122.77(6) 7_546 3
Cu2 Cu2 Cu1 54.55(4) 5_656 3
Se1 Cu2 Cu1 51.26(4) . 3_545
Cu3 Cu2 Cu1 125.07(5) . 3_545
Se2 Cu2 Cu1 84.80(3) 7_546 3_545
Se2 Cu2 Cu1 167.12(6) 7_556 3_545
Cu1 Cu2 Cu1 122.77(6) 7_556 3_545
Cu1 Cu2 Cu1 61.04(6) 7_546 3_545
Cu2 Cu2 Cu1 54.55(4) 5_656 3_545
Cu1 Cu2 Cu1 84.24(6) 3 3_545
Se1 Cu2 K4 58.94(5) . 7_545
Cu3 Cu2 K4 126.28(6) . 7_545
Se2 Cu2 K4 61.60(5) 7_546 7_545
Se2 Cu2 K4 111.41(6) 7_556 7_545
Cu1 Cu2 K4 162.05(5) 7_556 7_545
Cu1 Cu2 K4 98.17(4) 7_546 7_545
Cu2 Cu2 K4 117.99(7) 5_656 7_545
Cu1 Cu2 K4 107.47(6) 3 7_545
Cu1 Cu2 K4 65.82(5) 3_545 7_545
Se1 Cu2 K4 58.94(5) . 7
Cu3 Cu2 K4 126.28(6) . 7
Se2 Cu2 K4 111.41(6) 7_546 7
Se2 Cu2 K4 61.60(5) 7_556 7
Cu1 Cu2 K4 98.17(4) 7_556 7
Cu1 Cu2 K4 162.05(5) 7_546 7
Cu2 Cu2 K4 117.99(7) 5_656 7
Cu1 Cu2 K4 65.82(5) 3 7
Cu1 Cu2 K4 107.47(6) 3_545 7
K4 Cu2 K4 63.90(5) 7_545 7
Se1 K4 Se1 75.67(6) 7_545 7
Se1 K4 Se2 175.73(9) 7_545 7_556
Se1 K4 Se2 104.48(3) 7 7_556
Se1 K4 Se2 104.48(3) 7_545 7_546
Se1 K4 Se2 175.73(9) 7 7_546
Se2 K4 Se2 75.06(6) 7_556 7_546
Se1 K4 Se1 109.27(6) 7_545 3_455
Se1 K4 Se1 66.94(4) 7 3_455
Se2 K4 Se1 74.48(4) 7_556 3_455
Se2 K4 Se1 116.70(7) 7_546 3_455
Se1 K4 Se1 66.94(4) 7_545 3_445
Se1 K4 Se1 109.27(6) 7 3_445
Se2 K4 Se1 116.70(7) 7_556 3_445
Se2 K4 Se1 74.48(4) 7_546 3_445
Se1 K4 Se1 72.08(5) 3_455 3_445
Se1 K4 Se2 76.40(5) 7_545 1_554
Se1 K4 Se2 76.40(5) 7 1_554
Se2 K4 Se2 99.45(6) 7_556 1_554
Se2 K4 Se2 99.45(6) 7_546 1_554
Se1 K4 Se2 139.41(4) 3_455 1_554
Se1 K4 Se2 139.41(4) 3_445 1_554
Se1 K4 Cu1 102.54(6) 7_545 .
Se1 K4 Cu1 102.54(6) 7 .
Se2 K4 Cu1 81.63(6) 7_556 .
Se2 K4 Cu1 81.63(6) 7_546 .
Se1 K4 Cu1 40.02(3) 3_455 .
Se1 K4 Cu1 40.02(3) 3_445 .
Se2 K4 Cu1 178.63(7) 1_554 .
Se1 K4 Cu3 145.17(8) 7_545 7_556
Se1 K4 Cu3 98.69(4) 7 7_556
Se2 K4 Cu3 39.09(3) 7_556 7_556
Se2 K4 Cu3 83.63(6) 7_546 7_556
Se1 K4 Cu3 40.85(4) 3_455 7_556
Se1 K4 Cu3 83.46(6) 3_445 7_556
Se2 K4 Cu3 136.55(5) 1_554 7_556
Cu1 K4 Cu3 44.29(4) . 7_556
Se1 K4 Cu3 98.69(4) 7_545 7_546
Se1 K4 Cu3 145.17(8) 7 7_546
Se2 K4 Cu3 83.63(6) 7_556 7_546
Se2 K4 Cu3 39.09(3) 7_546 7_546
Se1 K4 Cu3 83.46(6) 3_455 7_546
Se1 K4 Cu3 40.85(4) 3_445 7_546
Se2 K4 Cu3 136.55(5) 1_554 7_546
Cu1 K4 Cu3 44.29(4) . 7_546
Cu3 K4 Cu3 66.18(5) 7_556 7_546
Se1 K4 Cu1 38.93(3) 7_545 5
Se1 K4 Cu1 38.93(3) 7 5
Se2 K4 Cu1 139.89(4) 7_556 5
Se2 K4 Cu1 139.89(4) 7_546 5
Se1 K4 Cu1 95.80(5) 3_455 5
Se1 K4 Cu1 95.80(5) 3_445 5
Se2 K4 Cu1 62.72(5) 1_554 5
Cu1 K4 Cu1 115.91(6) . 5
Cu3 K4 Cu1 134.78(5) 7_556 5
Cu3 K4 Cu1 134.78(5) 7_546 5
Se1 K4 Cu2 37.90(4) 7_545 7_545
Se1 K4 Cu2 81.96(6) 7 7_545
Se2 K4 Cu2 137.84(8) 7_556 7_545
Se2 K4 Cu2 95.54(4) 7_546 7_545
Se1 K4 Cu2 141.47(7) 3_455 7_545
Se1 K4 Cu2 99.18(4) 3_445 7_545
Se2 K4 Cu2 40.63(3) 1_554 7_545
Cu1 K4 Cu2 138.56(5) . 7_545
Cu3 K4 Cu2 176.93(7) 7_556 7_545
Cu3 K4 Cu2 114.88(3) 7_546 7_545
Cu1 K4 Cu2 46.76(4) 5 7_545
loop_
_geom_bond_atom_site_label_1
_geom_bond_atom_site_label_2
_geom_bond_distance
_geom_bond_site_symmetry_2
Se2 Cu3 2.3950(18) .
Se2 Cu1 2.4692(19) .
Se2 Cu2 2.5646(11) 7_546
Se2 Cu2 2.5646(11) 7_556
Se2 Cu3 2.8242(14) 7_546
Se2 Cu3 2.8242(14) 7_556
Se2 K4 3.344(2) 7_556
Se2 K4 3.344(2) 7_546
Se2 K4 3.464(3) 1_556
Se1 Cu2 2.3812(18) .
Se1 Cu1 2.4172(10) 3
Se1 Cu1 2.4172(10) 3_545
Se1 Cu3 2.523(2) 5_656
Se1 K4 3.321(2) 7_545
Se1 K4 3.321(2) 7
Se1 K4 3.462(2) 3
Se1 K4 3.462(2) 3_545
Cu1 Se1 2.4172(10) 3_445
Cu1 Se1 2.4172(10) 3_455
Cu1 Cu2 2.6645(14) 7_556
Cu1 Cu2 2.6645(14) 7_546
Cu1 Cu3 2.7633(15) 7_556
Cu1 Cu3 2.7633(15) 7_546
Cu1 Cu1 2.913(3) 5_556
Cu1 Cu2 3.0372(18) 3_445
Cu1 Cu2 3.0372(18) 3_455
Cu1 K4 3.592(3) .
Cu1 K4 3.803(3) 5
Cu3 Se1 2.523(2) 5_656
Cu3 Cu2 2.538(2) .
Cu3 Cu3 2.6450(19) 7_546
Cu3 Cu3 2.6450(18) 7_556
Cu3 Cu1 2.7633(15) 7_556
Cu3 Cu1 2.7633(15) 7_546
Cu3 Se2 2.8242(14) 7_546
Cu3 Se2 2.8242(14) 7_556
Cu3 K4 3.731(3) 7_556
Cu3 K4 3.731(3) 7_546
Cu3 K4 4.017(3) .
Cu2 Se2 2.5646(11) 7_546
Cu2 Se2 2.5646(11) 7_556
Cu2 Cu1 2.6645(14) 7_556
Cu2 Cu1 2.6645(14) 7_546
Cu2 Cu2 2.750(3) 5_656
Cu2 Cu1 3.0372(18) 3
Cu2 Cu1 3.0372(18) 3_545
Cu2 K4 3.849(3) 7_545
Cu2 K4 3.849(3) 7
K4 Se1 3.321(2) 7_545
K4 Se1 3.321(2) 7
K4 Se2 3.344(2) 7_556
K4 Se2 3.344(2) 7_546
K4 Se1 3.462(2) 3_455
K4 Se1 3.462(2) 3_445
K4 Se2 3.464(3) 1_554
K4 Cu3 3.731(3) 7_556
K4 Cu3 3.731(3) 7_546
K4 Cu1 3.803(3) 5
K4 Cu2 3.849(3) 7_545
