#------------------------------------------------------------------------------
#$Date: 2016-03-21 01:21:50 +0200 (Mon, 21 Mar 2016) $
#$Revision: 178377 $
#$URL: svn://www.crystallography.net/cod/cif/4/00/21/4002146.cif $
#------------------------------------------------------------------------------
#
# This file is available in the Crystallography Open Database (COD),
# http://www.crystallography.net/
#
# All data on this site have been placed in the public domain by the
# contributors.
#
data_4002146
loop_
_publ_author_name
'Doverbratt, Isa'
'Ponou, Sim\'eon'
'Zhang, Yuemei'
'Lidin, Sven'
'Miller, Gordon J.'
_publ_section_title
;
 Linear Metal Chains in Ca2M2X (M = Pd, Pt; X = Al, Ge): Origin of the
 Pairwise Distortion and Its Role in the Structure Stability
;
_journal_issue                   1
_journal_name_full               'Chemistry of Materials'
_journal_page_first              304
_journal_paper_doi               10.1021/cm503985h
_journal_volume                  27
_journal_year                    2015
_chemical_formula_sum            'Al Ca2 Pd2'
_chemical_formula_weight         319.94
_space_group_crystal_system      monoclinic
_space_group_IT_number           15
_space_group_name_Hall           '-C 2yc'
_space_group_name_H-M_alt        'C 1 2/c 1'
_symmetry_space_group_name_Hall  '-C 2yc'
_symmetry_space_group_name_H-M   'C 1 2/c 1'
_audit_creation_method           SHELXL-2014/7
_cell_angle_alpha                90
_cell_angle_beta                 102.54(3)
_cell_angle_gamma                90
_cell_formula_units_Z            4
_cell_length_a                   10.017(2)
_cell_length_b                   5.7669(12)
_cell_length_c                   7.7421(15)
_cell_measurement_temperature    293(2)
_cell_volume                     436.57(16)
_computing_structure_refinement  'SHELXL-2014/7 (Sheldrick, 2014)'
_diffrn_ambient_temperature      293(2)
_diffrn_measured_fraction_theta_full 0.944
_diffrn_measured_fraction_theta_max 0.939
_diffrn_radiation_type           MoK\a
_diffrn_radiation_wavelength     0.71073
_diffrn_reflns_av_R_equivalents  0.0157
_diffrn_reflns_av_unetI/netI     0.0216
_diffrn_reflns_Laue_measured_fraction_full 0.944
_diffrn_reflns_Laue_measured_fraction_max 0.939
_diffrn_reflns_limit_h_max       14
_diffrn_reflns_limit_h_min       -16
_diffrn_reflns_limit_k_max       9
_diffrn_reflns_limit_k_min       -9
_diffrn_reflns_limit_l_max       12
_diffrn_reflns_limit_l_min       -12
_diffrn_reflns_number            2250
_diffrn_reflns_point_group_measured_fraction_full 0.944
_diffrn_reflns_point_group_measured_fraction_max 0.939
_diffrn_reflns_theta_full        25.242
_diffrn_reflns_theta_max         35.694
_diffrn_reflns_theta_min         9.342
_exptl_absorpt_coefficient_mu    10.563
_exptl_crystal_colour            silver
_exptl_crystal_density_diffrn    4.868
_exptl_crystal_description       block
_exptl_crystal_F_000             580
_refine_diff_density_max         1.140
_refine_diff_density_min         -0.992
_refine_diff_density_rms         0.178
_refine_ls_extinction_coef       0.0113(6)
_refine_ls_extinction_expression Fc^*^=kFc[1+0.001xFc^2^\l^3^/sin(2\q)]^-1/4^
_refine_ls_extinction_method     'SHELXL-2014/7 (Sheldrick 2014'
_refine_ls_goodness_of_fit_ref   1.021
_refine_ls_hydrogen_treatment    undef
_refine_ls_matrix_type           full
_refine_ls_number_parameters     25
_refine_ls_number_reflns         960
_refine_ls_number_restraints     0
_refine_ls_restrained_S_all      1.021
_refine_ls_R_factor_all          0.0209
_refine_ls_R_factor_gt           0.0178
_refine_ls_shift/su_max          0.000
_refine_ls_shift/su_mean         0.000
_refine_ls_structure_factor_coef Fsqd
_refine_ls_weighting_details
'w=1/[\s^2^(Fo^2^)+(0.0236P)^2^] where P=(Fo^2^+2Fc^2^)/3'
_refine_ls_weighting_scheme      calc
_refine_ls_wR_factor_gt          0.0408
_refine_ls_wR_factor_ref         0.0424
_reflns_Friedel_coverage         0.000
_reflns_number_gt                870
_reflns_number_total             960
_reflns_threshold_expression     'I > 2\s(I)'
_cod_data_source_file            cm503985h_si_002.cif
_cod_data_source_block           Ca2Pd2Al_C2/c_III
_cod_depositor_comments
'Adding full bibliography for 4002144--4002147.cif.'
_cod_original_cell_volume        436.58(16)
_cod_database_code               4002146
#BEGIN Tags that were not found in dictionaries:
_shelx_shelxl_version_number     2014/7
_shelx_space_group_comment
;
The symmetry employed for this shelxl refinement is uniquely defined
by the following loop, which should always be used as a source of
symmetry information in preference to the above space-group names.
They are only intended as comments.
;
_shelx_res_file
;

    shelx.res created by SHELXL-2014/7

TITL 221_3_mc in C2/c
CELL 0.71073  10.0171   5.7669   7.7421  90.000 102.537  90.000
ZERR    4.00   0.0020   0.0012   0.0015   0.000   0.030   0.000
LATT  7
SYMM -X, Y, 0.5-Z
SFAC AL CA PD
UNIT 4 8 8

L.S. 12
BOND
acta
FMAP 2
PLAN 20

WGHT    0.023600
EXTI    0.011321
FVAR       0.11398
PD1   3    0.126851    0.131360    0.003483    11.00000    0.00828    0.00946 =
         0.00986   -0.00015    0.00181   -0.00101
AL1   1    0.000000    0.118990    0.250000    10.50000    0.01039    0.00987 =
         0.00946    0.00000    0.00260    0.00000
CA3   2    0.349902    0.130104    0.350671    11.00000    0.00982    0.00970 =
         0.01191    0.00026    0.00147   -0.00061
HKLF 4

REM  221_3_mc in C2/c
REM R1 =  0.0178 for     870 Fo > 4sig(Fo)  and  0.0209 for all     960 data
REM     25 parameters refined using      0 restraints

END

WGHT      0.0229      0.0000

REM Highest difference peak  1.140,  deepest hole -0.992,  1-sigma level  0.178
Q1    1   0.1665  0.1404  0.0989  11.00000  0.05    1.14
Q2    1   0.0771  0.1303 -0.0799  11.00000  0.05    1.09
Q3    1   0.1157  0.0484  0.0592  11.00000  0.05    0.87
Q4    1   0.1418  0.0586 -0.0557  11.00000  0.05    0.78
Q5    1   0.3109  0.1202  0.2784  11.00000  0.05    0.73
Q6    1   0.1414  0.2059 -0.0445  11.00000  0.05    0.68
Q7    1   0.4020  0.1409  0.4530  11.00000  0.05    0.58
Q8    1   0.1167  0.2093  0.0535  11.00000  0.05    0.55
Q9    1   0.3441  0.0831  0.4232  11.00000  0.05    0.52
Q10   1   0.3664  0.2194  0.3142  11.00000  0.05    0.52
Q11   1   0.0384  0.1343  0.1182  11.00000  0.05    0.49
Q12   1   0.3087 -0.0047  0.3677  11.00000  0.05    0.46
Q13   1   0.0200  0.4316  0.2983  11.00000  0.05    0.45
Q14   1   0.0493  0.1595  0.3356  11.00000  0.05    0.45
Q15   1   0.0489  0.3733  0.4012  11.00000  0.05    0.45
Q16   1  -0.0073 -0.0840  0.1367  11.00000  0.05    0.44
Q17   1   0.1589  0.1184 -0.1815  11.00000  0.05    0.44
Q18   1   0.3097  0.1082  0.1606  11.00000  0.05    0.44
Q19   1   0.0273  0.2653  0.4399  11.00000  0.05    0.42
Q20   1   0.2314 -0.1090  0.2769  11.00000  0.05    0.42
;
_shelx_res_checksum              6578
_shelx_hkl_file
;
  -6   0   0  172.80    3.18
  -8   0   0  574.70    9.33
 -10   0   0   40.72    1.47
 -12   0   0  114.05    3.01
 -14   0   0   41.96    1.85
 -16   0   0   59.93    2.49
  -5  -1   0   99.61    2.00
  -5   1   0   96.38    1.99
  -7  -1   0   72.09    1.70
  -7   1   0   70.65    1.76
   7   1   0   71.69    1.70
  -9  -1   0  147.32    3.11
  -9   1   0  146.56    3.18
 -11  -1   0   24.51    1.13
 -11   1   0   24.47    1.20
 -13  -1   0   47.53    1.84
 -13   1   0   49.97    1.96
 -15   1   0   45.30    2.06
  -4  -2   0    8.33    0.44
  -4   2   0    8.84    0.45
  -6  -2   0   -0.21    0.09
  -6  -2   0   -0.07    0.08
  -6   2   0   -0.09    0.10
   6   2   0   -0.13    0.10
   8   2   0    2.81    0.42
  -8   2   0    2.47    0.40
 -10   2   0    1.31    0.35
 -12   2   0    1.42    0.42
 -14   2   0    0.54    0.32
   1  -3   0  158.72    2.88
  -1  -3   0  158.32    2.97
   1   3   0  162.06    2.99
  -3  -3   0   27.67    0.92
  -3   3   0   28.69    0.82
   3   3   0   28.97    0.97
  -5  -3   0   99.62    2.24
   5   3   0  100.31    2.30
  -5   3   0  105.14    2.18
  -7  -3   0   59.40    1.65
  -7   3   0   59.71    1.67
   7   3   0   60.78    1.74
   9   3   0  146.66    3.32
  -9   3   0  144.46    3.26
 -11   3   0   28.11    1.34
 -13   3   0   66.26    2.38
   0  -4   0  997.50   15.50
   0   4   0 1000.00   15.51
  -2  -4   0    0.06    0.17
   2  -4   0    0.06    0.14
   2   4   0    0.07    0.15
  -4  -4   0  520.73    8.68
  -4   4   0  523.22    8.30
   4   4   0  516.77    8.74
  -6  -4   0   80.98    2.13
  -6   4   0   82.48    2.01
   6   4   0   82.39    2.20
  -8  -4   0  349.57    6.45
   8   4   0  355.85    6.60
  -8   4   0  350.25    6.33
 -10   4   0   26.88    1.27
  10   4   0   26.43    1.33
 -12   4   0   78.61    2.55
 -14   4   0   30.13    1.63
  -1  -5   0   50.37    1.55
   1  -5   0   48.97    1.49
   1   5   0   48.39    1.55
  -1   5   0   50.54    1.51
   3  -5   0    3.95    0.47
  -3  -5   0    3.00    0.44
  -3   5   0    3.47    0.45
   3   5   0    2.71    0.42
  -5  -5   0   17.89    0.94
   5   5   0   16.85    0.96
  -7  -5   0   24.17    1.18
  -7   5   0   25.32    1.06
   7   5   0   24.30    1.23
   9   5   0   54.64    2.02
  -9   5   0   53.69    1.82
 -11   5   0    8.15    0.77
 -13   5   0   16.65    1.17
   0  -6   0   21.73    1.04
   0   6   0   20.61    1.05
   2  -6   0    0.84    0.28
  -2  -6   0    0.83    0.30
  -2   6   0    0.89    0.29
   2   6   0    0.33    0.24
  -4  -6   0   21.47    1.12
   4   6   0   22.45    1.19
  -6  -6   0    0.10    0.22
   6   6   0    0.14    0.25
  -8  -6   0    8.69    0.80
   8   6   0    7.29    0.91
  10   6   0    1.22    0.47
 -12   6   0    7.00    0.92
  -1  -7   0   44.88    1.75
   1  -7   0   47.98    1.72
  -1   7   0   44.18    1.72
   1   7   0   43.03    1.76
  -3  -7   0   13.36    0.95
   3   7   0   13.87    1.01
  -5  -7   0   42.48    1.83
   5   7   0   44.89    1.93
  -7  -7   0   22.12    1.36
   7   7   0   24.85    1.48
   9   7   0   71.13    2.71
   0  -8   0  255.91    5.55
   0   8   0  262.43    5.69
  -2  -8   0    0.29    0.27
   2   8   0    0.41    0.35
  -4  -8   0  160.18    4.17
   4   8   0  151.66    4.20
  -6  -8   0   22.63    1.46
   6   8   0   25.34    1.58
  -8  -8   0  114.82    3.63
   8   8   0  117.58    3.79
  -1  -9   0    7.00    0.93
   1   9   0    4.91    0.82
  -3  -9   0   -0.23    0.31
   3   9   0    0.13    0.34
 -16   0   1    0.05    0.28
 -14   0   1    0.01    0.20
 -12   0   1   -0.03    0.19
 -10   0   1    0.06    0.14
  -8   0   1   -0.31    0.09
  -6   0   1   -0.28    0.14
  -6   0  -1    0.50    0.19
   6   0   1   -0.16    0.10
  -8   0  -1    0.05    0.14
 -10   0  -1   -0.08    0.14
 -12   0  -1    0.14    0.23
 -14   0  -1    0.15    0.24
 -15   1   1   48.20    2.10
 -13  -1   1   27.12    1.35
 -13   1   1   26.18    1.37
 -11  -1   1   33.78    1.33
 -11   1   1   34.56    1.39
  -9  -1   1   16.09    0.78
  -9   1   1   17.48    0.86
  -7  -1   1   95.39    2.06
  -7   1   1   96.44    2.16
   7   1  -1   99.14    2.01
  -5  -1   1  162.50    2.83
  -5   1   1  159.48    2.92
  -5  -1  -1   63.02    1.42
  -5   1  -1   65.17    1.55
   5   1   1   63.35    1.53
  -7  -1  -1  185.98    3.50
   7   1   1  189.10    3.62
  -7   1  -1  183.49    3.63
  -9  -1  -1  134.48    2.95
  -9   1  -1  134.36    3.09
 -11  -1  -1  122.45    3.06
 -11   1  -1  125.45    3.17
 -13   1  -1   70.88    2.49
 -15   1  -1   26.66    1.59
 -14   2   1  181.70    4.48
 -12   2   1   51.37    1.87
 -10  -2   1  346.83    6.39
 -10   2   1  343.44    6.36
  -8  -2   1    2.07    0.31
   8   2  -1    2.51    0.36
  -6  -2   1  981.71   14.80
   6   2  -1  982.93   14.87
  -6   2   1  928.88   14.77
  -4  -2   1    1.70    0.28
  -4   2   1    0.99    0.20
   4   2  -1    1.04    0.24
  -4  -2  -1   79.81    1.76
  -4   2  -1   79.01    1.75
   4   2   1   78.18    1.79
  -6  -2  -1  275.36    4.52
   6   2   1  269.24    4.88
  -6   2  -1  263.21    4.81
  -8   2  -1  103.49    2.51
   8   2   1  103.15    2.52
 -10   2  -1  155.90    3.60
 -12   2  -1    4.77    0.69
 -14   2  -1   34.15    1.77
 -15   3   1   27.44    1.58
 -13   3   1   16.89    1.12
 -11   3   1   18.07    1.04
  -9  -3   1    8.61    0.60
  -9   3   1    8.06    0.62
   9   3  -1    8.37    0.63
  -7  -3   1   52.23    1.50
   7   3  -1   52.83    1.56
  -7   3   1   50.58    1.48
  -5  -3   1   92.31    2.07
  -5   3   1   89.51    1.95
   5   3  -1   92.05    2.12
  -3  -3   1    5.33    0.39
  -3   3   1    5.89    0.33
   3   3  -1    5.48    0.40
  -1  -3   1   83.67    1.83
   1  -3  -1   83.95    1.73
  -1   3   1   83.88    1.75
  -1  -3  -1   74.45    1.66
   1  -3   1   71.29    1.60
   1   3   1   75.14    1.69
  -3  -3  -1  254.81    4.47
   3  -3   1  252.09    4.27
   3   3   1  257.56    4.53
  -3   3  -1  240.55    4.28
   5  -3   1   25.66    0.89
  -5  -3  -1   26.45    0.98
  -5   3  -1   28.71    0.98
   5   3   1   24.98    1.01
  -7   3  -1   88.50    2.22
   7   3   1   89.01    2.30
  -9   3  -1   84.10    2.36
   9   3   1   88.07    2.43
 -11   3  -1   79.19    2.45
 -13   3  -1   42.31    1.90
 -14   4   1    2.92    0.63
 -12   4   1    0.10    0.22
 -10   4   1    9.13    0.73
  -8  -4   1    0.32    0.21
   8   4  -1    0.17    0.19
  -8   4   1    0.23    0.16
  -6  -4   1   11.99    0.71
  -6   4   1   12.11    0.65
   6   4  -1   12.99    0.77
  -4  -4   1    0.87    0.28
  -4   4   1    0.66    0.19
   4   4  -1    0.69    0.26
   2  -4  -1   24.30    0.85
  -2  -4   1   24.21    0.96
   2   4  -1   24.56    0.98
  -2   4   1   24.67    0.87
   0  -4   1    0.41    0.17
   0  -4  -1    0.31    0.17
   0   4   1    0.71    0.23
  -2  -4  -1   12.65    0.66
   2  -4   1   12.36    0.61
  -2   4  -1   12.64    0.55
   2   4   1   10.91    0.65
   4  -4   1    2.13    0.31
  -4  -4  -1    2.54    0.41
   4   4   1    1.65    0.34
  -4   4  -1    1.57    0.28
  -6  -4  -1    8.98    0.65
  -6   4  -1    8.73    0.59
   6   4   1    8.63    0.67
   8   4   1    0.11    0.20
  -8   4  -1    0.16    0.17
 -10   4  -1    1.79    0.41
  10   4   1    2.32    0.52
 -12   4  -1    0.16    0.25
 -13   5   1   17.91    1.20
 -11   5   1   33.64    1.50
  -9  -5   1   15.82    0.99
  -9   5   1   14.13    0.88
   9   5  -1   15.59    1.03
  -7  -5   1   49.30    1.73
  -7   5   1   50.77    1.57
   7   5  -1   49.73    1.80
  -5  -5   1   70.19    2.06
   5   5  -1   73.19    2.16
   3  -5  -1   18.05    0.79
  -3  -5   1   18.34    0.92
   3   5  -1   17.61    0.92
  -1  -5   1   99.25    2.44
   1  -5  -1  100.59    2.32
  -1   5   1   96.32    2.34
   1   5  -1   98.48    2.44
  -1  -5  -1   58.74    1.70
   1  -5   1   58.31    1.66
   1   5   1   56.58    1.72
   3  -5   1  208.35    4.01
  -3  -5  -1  209.74    4.24
   3   5   1  205.76    4.30
  -5  -5  -1   42.11    1.54
  -5   5  -1   40.93    1.33
   5   5   1   41.68    1.58
  -7  -5  -1  123.17    3.10
  -7   5  -1  122.56    2.87
   7   5   1  116.85    3.14
   9   5   1   83.28    2.66
  -9   5  -1   82.98    2.41
  11   5   1   86.11    2.88
 -11   5  -1   89.04    2.71
 -13   5  -1   57.28    2.29
 -10  -6   1  160.03    4.08
  10   6  -1  164.98    4.25
  -8  -6   1    1.09    0.42
   8   6  -1    1.62    0.48
  -6  -6   1  377.18    7.21
   6   6  -1  383.53    7.35
  -4  -6   1    0.03    0.18
   4   6  -1    0.41    0.24
   2  -6  -1  325.59    6.00
  -2  -6   1  327.62    6.23
   2   6  -1  331.11    6.32
  -2   6   1  328.57    6.07
   0  -6   1   53.17    1.75
   0  -6  -1   51.35    1.69
   0   6  -1   51.26    1.74
   0   6   1   51.50    1.73
   2  -6   1  355.31    6.43
  -2  -6  -1  339.58    6.52
  -2   6  -1  356.24    6.47
   2   6   1  343.69    6.62
  -4  -6  -1   24.03    1.22
   4   6   1   23.52    1.24
  -6  -6  -1   99.95    2.86
   6   6   1  103.10    3.01
   8   6   1   40.10    1.83
  10   6   1   68.21    2.61
 -10   6  -1   69.04    2.32
 -12   6  -1    3.66    0.65
  -9  -7   1    1.37    0.49
   9   7  -1    1.35    0.54
  -7  -7   1    9.89    0.92
   7   7  -1   10.41    0.97
  -5  -7   1   19.04    1.19
   5   7  -1   18.31    1.21
  -3  -7   1    0.99    0.37
   3   7  -1    0.25    0.29
   1  -7  -1   10.50    0.79
  -1  -7   1   11.73    0.88
  -1   7   1   11.00    0.83
   1   7  -1   10.95    0.88
   1  -7   1   13.30    0.90
  -1  -7  -1   13.10    0.93
   1   7   1   12.38    0.93
  -1   7  -1   12.76    0.90
  -3  -7  -1   47.58    1.88
   3   7   1   48.92    1.95
  -5  -7  -1    6.17    0.86
   5   7   1    3.87    0.71
  -7  -7  -1   18.05    1.23
   7   7   1   19.72    1.33
   9   7   1   24.15    1.58
  -8  -8   1   -0.05    0.30
   8   8  -1    0.11    0.38
  -6  -8   1   15.07    1.19
   6   8  -1   17.82    1.32
  -4  -8   1    0.31    0.28
   4   8  -1    0.60    0.38
  -2  -8   1   25.32    1.42
   2   8  -1   23.62    1.43
   0  -8   1   -0.10    0.25
   0  -8  -1    0.36    0.30
   0   8   1    0.20    0.29
   0   8  -1    0.53    0.33
  -2  -8  -1   13.13    1.05
   2   8   1   12.44    1.05
  -4  -8  -1    2.93    0.66
   4   8   1    0.86    0.44
  -6  -8  -1   10.39    1.22
   6   8   1   10.69    1.24
  -3  -9   1    7.56    1.00
   3   9  -1    7.02    1.02
  -1  -9   1   30.88    1.67
   1   9  -1   33.20    1.78
  -1  -9  -1   14.31    1.17
   1   9   1   15.38    1.25
  -3  -9  -1   64.45    2.54
   3   9   1   62.03    2.62
 -16   0   2  142.50    4.07
 -14   0   2    2.53    0.55
 -12   0   2  432.88    7.89
 -10   0   2    2.14    0.37
  -8   0   2  553.43    8.99
  -6   0   2  116.42    2.34
  -4   0  -2  426.36    6.83
   4   0   2  409.68    6.84
  -6   0  -2    5.62    0.46
   6   0   2    6.79    0.48
  -8   0  -2   86.01    2.22
 -10   0  -2    7.54    0.67
 -12   0  -2  104.01    2.97
 -14   0  -2    4.03    0.72
 -15  -1   2    6.67    0.87
 -15   1   2    9.02    0.91
 -13  -1   2   26.42    1.35
 -13   1   2   21.89    1.25
 -11  -1   2   49.95    1.68
 -11   1   2   51.45    1.72
  -9  -1   2    4.97    0.45
  -9   1   2    5.33    0.48
  -7  -1   2   86.09    1.95
  -7   1   2   87.38    1.99
  -5  -1   2   72.44    1.55
  -5   1   2   72.54    1.58
  -3   1  -2  290.50    4.89
   3   1   2  282.79    4.89
   5  -1   2  342.01    5.67
  -5  -1  -2  333.26    5.61
  -5   1  -2  338.47    5.79
   5   1   2  334.53    5.83
   7  -1   2  144.91    2.99
  -7  -1  -2  142.25    2.94
   7   1   2  146.55    3.11
  -7   1  -2  136.85    3.04
  -9  -1  -2   57.44    1.77
  -9   1  -2   60.11    1.90
 -11  -1  -2  148.46    3.55
 -11   1  -2  153.16    3.74
 -13   1  -2   29.56    1.58
 -15   1  -2   58.92    2.49
 -14   2   2    0.47    0.30
 -12   2   2    1.72    0.42
 -10  -2   2    0.22    0.17
 -10   2   2    0.05    0.17
  -8  -2   2    4.62    0.39
  -8   2   2    4.85    0.44
  -6  -2   2    0.45    0.16
  -6  -2   2    0.09    0.13
   6   2  -2    0.10    0.13
  -6   2   2    0.01    0.13
  -4  -2   2    4.52    0.33
  -4   2   2    4.14    0.31
  -2  -2   2    1.50    0.23
   2  -2   2    0.02    0.11
   2   2   2    0.17    0.15
  -2   2  -2    0.22    0.16
   4  -2   2    1.21    0.23
   4   2   2    1.33    0.29
  -4   2  -2    1.57    0.31
   6  -2   2    0.07    0.13
   6   2   2   -0.24    0.12
  -6   2  -2   -0.08    0.16
  -8   2  -2    1.17    0.32
   8   2   2    2.95    0.50
 -10   2  -2    0.50    0.28
 -12   2  -2    0.73    0.35
 -14   2  -2    0.06    0.30
 -15   3   2    7.96    1.01
 -13   3   2   24.37    1.32
 -11   3   2   49.14    1.75
  -9   3   2    9.64    0.66
  -7  -3   2   92.64    2.16
  -7   3   2   90.80    2.14
   7   3  -2   92.65    2.22
  -5  -3   2   65.79    1.68
   5   3  -2   65.23    1.69
  -5   3   2   67.72    1.57
  -3  -3   2  380.81    6.49
  -3   3   2  398.66    6.17
   1  -3  -2   66.85    1.48
  -1  -3   2   64.36    1.57
  -1   3   2   66.81    1.52
   1  -3   2  319.35    5.30
  -1  -3  -2  313.10    5.31
  -1   3  -2  307.60    5.23
   3  -3   2  231.35    4.07
  -3   3  -2  227.97    4.18
   3   3   2  231.46    4.29
   5  -3   2  286.29    4.89
  -5   3  -2  280.25    5.10
   5   3   2  282.70    5.27
   7   3   2  147.48    3.35
  -7   3  -2  144.48    3.22
   9   3   2   71.73    2.28
  -9   3  -2   73.02    2.22
 -11   3  -2  153.63    3.86
 -13   3  -2   30.28    1.63
 -14   4   2    2.98    0.62
 -12   4   2  283.81    5.81
 -10   4   2    1.24    0.34
  -8  -4   2  340.52    6.17
  -8   4   2  332.05    6.02
   8   4  -2  339.20    6.26
  -6  -4   2   54.26    1.65
  -6   4   2   55.12    1.49
   6   4  -2   52.31    1.66
  -4  -4   2  572.98    9.60
   4   4  -2  568.89    9.62
  -4   4   2  598.31    9.12
  -2  -4   2   36.74    1.22
   2  -4  -2   34.42    1.05
  -2   4   2   34.50    1.08
   0  -4   2  252.85    4.58
   0  -4  -2  255.27    4.53
   0   4  -2  243.42    4.31
   0   4   2  252.20    4.57
   2  -4   2  112.89    2.44
  -2  -4  -2  111.91    2.52
  -2   4  -2  110.71    2.37
   4  -4   2  236.94    4.34
  -4  -4  -2  237.26    4.58
  -4   4  -2  240.08    4.42
   4   4   2  235.15    4.65
   6   4   2    3.65    0.55
  -6   4  -2    3.39    0.47
  -8   4  -2   56.19    1.84
   8   4   2   51.57    1.90
 -10   4  -2    2.99    0.53
  10   4   2    5.89    0.83
 -12   4  -2   73.55    2.55
 -13   5   2    8.79    1.01
 -11   5   2   21.50    1.17
  -9  -5   2    0.85    0.31
   9   5  -2    0.75    0.32
  -9   5   2    0.42    0.24
  -7  -5   2   25.12    1.20
   7   5  -2   24.60    1.22
  -5  -5   2   22.34    1.08
   5   5  -2   20.59    1.07
  -3  -5   2  129.76    3.04
   3   5  -2  129.62    3.06
   1  -5  -2    9.52    0.61
  -1  -5   2   11.48    0.71
  -1   5   2    9.05    0.62
  -1  -5  -2   73.23    2.00
   1  -5   2   74.03    1.98
   3  -5   2   82.73    2.13
  -3  -5  -2   87.93    2.32
   3   5   2   85.31    2.37
   5   5   2   98.39    2.74
  -5   5  -2  104.88    2.47
   7   5   2   44.19    1.80
  -7   5  -2   45.71    1.61
  -9   5  -2   19.56    1.13
   9   5   2   19.70    1.25
 -11   5  -2   67.28    2.35
  11   5   2   64.69    2.54
 -10  -6   2    0.68    0.37
  10   6  -2    0.46    0.36
  -8  -6   2   17.35    1.10
   8   6  -2   16.51    1.13
  -6  -6   2    0.31    0.26
   6   6  -2    0.30    0.28
  -4  -6   2   13.95    0.92
   4   6  -2   12.30    0.90
   2  -6  -2    3.34    0.48
  -2  -6   2    3.83    0.58
   2   6  -2    3.68    0.58
  -2   6   2    3.09    0.47
   0  -6   2   15.40    0.91
   0  -6  -2   15.49    0.89
   0   6   2   14.86    0.90
   2  -6   2    0.48    0.24
  -2  -6  -2    0.47    0.26
   2   6   2    0.61    0.26
  -4  -6  -2    4.56    0.66
   4   6   2    4.81    0.70
   6   6   2    0.28    0.28
   8   6   2    5.82    0.89
  -8   6  -2    5.10    0.78
  10   6   2    1.17    0.50
 -11  -7   2   22.43    1.44
  -9  -7   2    7.39    0.99
   9   7  -2    6.37    0.96
  -7  -7   2   42.73    1.86
   7   7  -2   41.41    1.91
  -5  -7   2   21.03    1.25
   5   7  -2   18.65    1.24
  -3  -7   2  120.05    3.29
   3   7  -2  123.13    3.37
  -1  -7   2   29.19    1.40
   1  -7  -2   27.04    1.28
   1   7  -2   28.17    1.40
  -1   7   2   28.29    1.34
   1  -7   2  122.31    3.19
  -1  -7  -2  123.50    3.22
  -1   7  -2  122.43    3.23
   1   7   2  118.00    3.24
  -3  -7  -2   87.76    2.69
   3   7   2   83.65    2.74
   5   7   2  109.51    3.31
   7   7   2   78.97    2.86
   9   7   2   40.42    2.08
  -8  -8   2  117.49    3.67
   8   8  -2  122.03    3.82
  -6  -8   2   12.73    1.08
   6   8  -2   13.15    1.15
  -4  -8   2  155.89    4.18
   4   8  -2  159.47    4.32
  -2  -8   2   10.47    0.94
   2   8  -2   10.14    0.97
   0  -8  -2   68.63    2.37
   0  -8   2   70.94    2.43
   0   8  -2   71.42    2.50
   0   8   2   68.41    2.45
  -2  -8  -2   26.24    1.46
   2  -8   2   25.70    1.49
  -2   8  -2   27.46    1.59
   2   8   2   27.60    1.57
   4   8   2   59.30    2.43
   6   8   2    1.86    0.57
  -3  -9   2   21.70    1.45
   3   9  -2   20.57    1.48
  -1  -9   2    1.38    0.48
   1   9  -2    0.30    0.38
  -1  -9  -2   11.22    1.04
  -1   9  -2    9.86    1.23
   1   9   2   12.16    1.11
   3   9   2   14.21    1.26
 -16   0   3    0.11    0.30
 -14   0   3    0.04    0.20
 -12   0   3    0.08    0.22
 -10   0   3    0.06    0.13
  -8   0   3    0.09    0.14
  -6   0   3    0.49    0.18
  -4   0   3   -0.22    0.08
  -2   0  -3   -0.56    0.15
   2   0   3   -0.87    0.11
  -4   0  -3   -0.37    0.13
   4   0   3   -0.46    0.10
   6   0   3    0.15    0.17
  -6   0  -3    0.94    0.26
   8   0   3    1.43    0.35
 -10   0  -3    0.39    0.23
 -12   0  -3   -0.04    0.21
 -14   0  -3    0.39    0.37
 -15  -1   3    2.52    0.58
 -15   1   3    3.45    0.68
 -13  -1   3   37.20    1.58
 -13   1   3   39.55    1.69
 -11  -1   3   24.00    1.12
 -11   1   3   25.58    1.18
  -9  -1   3  198.82    3.90
  -9   1   3  196.66    3.95
  -7  -1   3   32.91    1.06
  -7   1   3   32.52    1.09
  -5  -1   3  290.58    4.97
  -5   1   3  305.10    5.01
  -3  -1   3  292.84    4.90
  -3   1   3  303.24    4.85
   1  -1   3  305.59    5.12
   1   1   3  305.61    5.19
  -1   1  -3  304.33    5.12
   3  -1   3  197.44    3.60
  -3  -1  -3  194.29    3.55
   3   1   3  191.59    3.69
   5  -1   3  392.72    6.67
  -5  -1  -3  392.71    6.62
  -5   1  -3  393.89    6.82
   5   1   3  393.00    6.84
   7  -1   3   99.03    2.36
  -7  -1  -3   97.02    2.38
   7   1   3  107.47    2.59
  -7   1  -3   98.94    2.52
  -9  -1  -3  147.77    3.39
  -9   1  -3  154.89    3.59
   9   1   3  148.64    3.53
 -11   1  -3    5.58    0.77
 -13   1  -3   89.82    2.96
 -14   2   3  183.02    4.48
 -12  -2   3   18.97    1.05
 -12   2   3   19.34    1.11
 -10  -2   3  376.56    6.62
 -10   2   3  364.78    6.71
  -8  -2   3   16.59    0.78
  -8   2   3   18.05    0.84
  -6  -2   3  275.12    4.80
  -6  -2   3  282.76    4.81
  -6   2   3  278.46    4.87
  -4  -2   3  137.94    2.66
  -4  -2   3  138.48    2.67
  -4   2   3  142.12    2.61
  -2  -2   3  422.12    6.93
  -2  -2   3  426.48    6.90
   2   2  -3  437.07    6.96
   0  -2   3    2.61    0.28
   0   2  -3    2.90    0.32
   0   2   3    3.18    0.33
   2  -2   3  135.13    2.70
   2   2   3  139.76    2.84
  -4  -2  -3    7.74    0.51
   4  -2   3    7.92    0.50
   4   2   3   10.34    0.65
  -4   2  -3    7.69    0.57
   6  -2   3  229.91    4.33
   6   2   3  240.69    4.73
  -6   2  -3  240.07    4.65
   8   2   3   19.77    1.08
  -8   2  -3   18.34    1.03
 -10   2  -3  112.25    3.10
 -12   2  -3    1.08    0.43
 -14   2  -3  137.95    4.03
 -15   3   3    0.57    0.39
 -13   3   3   22.58    1.28
 -11   3   3   16.54    0.98
  -9   3   3  131.44    3.02
  -7  -3   3   13.13    0.70
   7   3  -3   13.73    0.73
  -7   3   3   12.93    0.69
  -5  -3   3  142.58    2.88
  -5  -3   3  145.19    2.99
  -5   3   3  156.31    2.92
   5   3  -3  150.43    3.00
  -3  -3   3  169.52    3.24
  -3   3   3  167.45    2.92
   3   3  -3  157.78    3.11
  -1  -3   3  311.32    5.30
   1   3  -3  297.52    5.17
  -1   3   3  305.77    5.23
   1  -3   3  135.82    2.75
   1   3   3  135.78    2.83
  -1   3  -3  134.00    2.76
   3  -3   3   82.11    1.94
  -3   3  -3   83.62    2.07
   3   3   3   80.70    2.10
   5  -3   3  230.12    4.26
  -5   3  -3  232.56    4.50
   5   3   3  226.25    4.60
   7   3   3   59.49    1.98
  -7   3  -3   56.69    1.86
   9   3   3   85.58    2.65
  -9   3  -3   85.96    2.54
 -11   3  -3    2.42    0.56
 -13   3  -3   61.18    2.44
 -14   4   3    5.04    0.77
 -12   4   3    0.16    0.23
 -10   4   3    6.10    0.60
  -8  -4   3    2.17    0.39
  -8   4   3    1.66    0.34
   8   4  -3    1.93    0.41
  -6  -4   3   10.23    0.68
   6   4  -3   10.42    0.70
  -6   4   3   10.19    0.60
  -4  -4   3    0.62    0.23
  -2  -4   3    4.79    0.45
  -2   4   3    4.04    0.39
   0  -4   3    0.78    0.25
   0   4   3    1.02    0.28
   0   4  -3    0.81    0.23
   2  -4   3    6.22    0.49
  -2   4  -3    6.66    0.52
   2   4   3    6.87    0.57
   4  -4   3    0.55    0.20
   4   4   3    0.54    0.27
  -4   4  -3    0.37    0.22
   6   4   3    2.82    0.51
  -6   4  -3    2.91    0.46
  -8   4  -3    0.54    0.27
   8   4   3    0.11    0.25
 -10   4  -3    4.52    0.70
  10   4   3    3.43    0.68
 -12   4  -3    0.88    0.39
 -13   5   3   31.23    1.59
 -11   5   3   15.06    1.00
  -9  -5   3  121.65    3.12
  -9   5   3  122.92    2.99
   9   5  -3  121.38    3.20
  -7  -5   3   25.09    1.21
   7   5  -3   26.92    1.28
  -5  -5   3  168.66    3.77
   5   5  -3  167.10    3.78
  -3  -5   3  135.93    3.14
  -1  -5   3  248.04    4.88
   1  -5  -3  249.80    4.70
  -1   5   3  252.02    4.78
   1  -5   3  159.82    3.47
   1   5   3  165.15    3.59
   3  -5   3  111.11    2.66
   3   5   3  108.32    2.84
  -3   5  -3  107.33    2.56
   5   5   3  206.60    4.70
  -5   5  -3  223.56    4.42
   7   5   3   57.88    2.16
  -7   5  -3   59.62    1.96
   9   5   3  111.44    3.38
  -9   5  -3  109.15    3.06
  11   5   3    6.27    0.97
 -11   5  -3    8.06    1.00
 -10  -6   3  175.52    4.28
  10   6  -3  170.40    4.35
  -8  -6   3    8.00    0.95
   8   6  -3    9.34    0.87
  -6  -6   3  107.67    3.01
   6   6  -3  110.08    3.08
  -4  -6   3   39.61    1.64
   4   6  -3   40.52    1.66
  -2  -6   3  140.95    3.43
   0  -6  -3    1.61    0.37
   0  -6   3    0.74    0.30
   0   6   3    2.24    0.46
   2  -6   3   51.44    1.76
   2   6   3   49.56    1.84
   4  -6   3    2.45    0.44
   4   6   3    2.62    0.52
   6   6   3   86.96    2.84
  -8   6  -3    7.25    0.73
   8   6   3    7.22    0.97
 -10   6  -3   54.61    2.14
  10   6   3   51.94    2.39
  -9  -7   3   38.49    1.86
   9   7  -3   40.28    1.97
  -7  -7   3    2.42    0.57
   7   7  -3    1.67    0.53
  -5  -7   3   30.14    1.56
   5   7  -3   32.21    1.64
  -3  -7   3   30.82    1.53
   3   7  -3   33.96    1.62
  -1  -7   3   62.06    2.20
   1  -7  -3   63.24    2.08
  -1   7   3   62.95    2.29
   1   7  -3   61.62    2.22
   1  -7   3   23.72    1.27
   1   7   3   25.22    1.35
   3  -7   3   16.12    1.02
   3   7   3   15.09    1.12
   5   7   3   62.30    2.45
   7   7   3   14.11    1.21
   9   7   3   24.45    1.71
  -8  -8   3    2.36    0.61
   8   8  -3    1.40    0.55
  -6  -8   3   11.43    1.06
   6   8  -3   12.50    1.15
  -4  -8   3    0.96    0.42
   4   8  -3    0.42    0.35
  -2  -8   3    6.15    0.88
   2   8  -3    5.51    0.87
   0  -8   3    1.55    0.48
   0   8   3    0.51    0.33
   0   8  -3    1.80    0.54
   2  -8   3    7.93    0.96
  -2   8  -3    7.34    0.97
   2   8   3    6.67    0.93
   4   8   3    0.42    0.41
   6   8   3    4.17    0.82
  -3  -9   3   40.07    2.06
   3   9  -3   43.46    2.24
  -1  -9   3   79.98    2.84
   1   9  -3   79.64    2.94
   1  -9   3   57.29    2.33
  -1   9  -3   58.72    2.42
   1   9   3   58.61    2.49
 -16   0   4  139.07    3.94
 -14   0   4    2.95    0.58
 -12   0   4  114.67    2.97
 -10   0   4   42.37    1.48
  -8   0   4  256.10    4.73
  -6   0   4   -0.09    0.13
  -4   0   4  155.70    2.95
   2   0  -4    5.11    0.40
  -2   0   4    4.88    0.37
   0   0  -4  412.34    6.92
   0   0   4  433.68    7.09
   0   0   4  428.95    6.96
  -2   0  -4   71.68    1.80
   2   0   4   74.13    1.86
   4   0   4  249.82    4.71
  -4   0  -4  250.32    4.73
  -6   0  -4    2.93    0.48
   6   0   4    2.59    0.43
   8   0   4  372.00    6.94
  -8   0  -4  375.67    6.97
 -10   0  -4    8.20    0.78
 -12   0  -4  187.10    4.61
 -15  -1   4   57.69    2.27
 -15   1   4   60.59    2.30
 -13  -1   4    8.14    0.77
 -13   1   4    9.01    0.80
 -11  -1   4   91.64    2.48
 -11   1   4   90.95    2.50
  -9  -1   4   97.80    2.40
  -9   1   4   95.18    2.38
  -7  -1   4  266.83    4.83
  -7   1   4  271.91    4.84
  -5  -1   4  174.61    3.09
  -5  -1   4  171.99    3.28
  -5   1   4  169.89    3.23
  -3  -1   4  180.50    3.33
  -3  -1   4  175.20    3.22
   3   1  -4  176.54    3.40
  -3   1   4  180.44    3.23
  -1  -1   4  466.56    7.60
   1  -1  -4  468.24    7.50
  -1  -1   4  456.45    7.59
  -1   1   4  474.68    7.43
   1   1  -4  470.32    7.61
  -1   1   4  465.53    7.64
  -1  -1  -4  181.86    3.32
   1  -1   4  179.77    3.46
   1   1   4  178.09    3.51
  -1   1  -4  178.86    3.44
   3  -1   4  243.81    4.47
  -3  -1  -4  244.55    4.38
   3   1   4  235.37    4.55
  -3   1  -4  236.11    4.50
   5  -1   4   10.95    0.67
  -5  -1  -4   10.39    0.68
  -5   1  -4   11.53    0.76
  -7  -1  -4  182.99    3.86
   7  -1   4  181.50    3.84
   7   1   4  186.47    4.06
  -7   1  -4  186.64    4.05
  -9  -1  -4   10.60    0.80
   9   1   4   11.07    0.87
  -9   1  -4   13.52    0.94
 -11   1  -4   44.40    1.91
 -13   1  -4    0.13    0.31
 -14   2   4   -0.03    0.22
 -12  -2   4    1.36    0.35
 -12   2   4    1.88    0.45
 -10  -2   4    0.30    0.20
 -10   2   4    0.29    0.21
  -8  -2   4    0.98    0.25
  -8   2   4    1.23    0.29
  -6  -2   4    0.14    0.16
  -6  -2   4    0.31    0.17
  -6   2   4    0.24    0.18
  -4  -2   4    2.60    0.31
  -4  -2   4    2.46    0.36
   4   2  -4    2.94    0.43
  -4   2   4    2.39    0.28
  -2  -2   4    0.38    0.20
  -2  -2   4   -0.18    0.12
  -2   2   4    1.44    0.24
   2   2  -4   -0.14    0.13
   0  -2   4    1.35    0.28
   0   2  -4    1.15    0.28
   0   2   4    1.40    0.32
  -2  -2  -4   -0.02    0.12
   2   2   4    2.09    0.38
  -2   2  -4    0.47    0.23
   4  -2   4    3.29    0.43
  -4   2  -4    2.67    0.44
   4   2   4    2.88    0.45
   6  -2   4    0.07    0.16
   6   2   4    0.23    0.24
  -6   2  -4    0.38    0.24
  -8   2  -4    1.15    0.36
   8   2   4    1.83    0.43
  10   2   4    0.20    0.28
 -10   2  -4    0.29    0.29
 -12   2  -4    1.55    0.50
 -15   3   4   58.50    2.31
 -13   3   4   13.40    1.00
 -11   3   4  116.25    3.06
  -9   3   4  100.73    2.57
  -7  -3   4  264.93    4.88
  -7  -3   4  260.88    4.84
  -7   3   4  262.27    4.83
  -5  -3   4  179.04    3.54
  -5  -3   4  176.63    3.50
   5   3  -4  175.21    3.58
  -5   3   4  179.96    3.37
  -3  -3   4  177.33    3.45
  -3  -3   4  171.79    3.41
  -3   3   4  172.34    3.30
  -3   3   4  174.67    3.12
   3   3  -4  166.18    3.38
  -1  -3   4  399.68    6.81
   1   3  -4  400.93    6.77
  -1   3   4  394.36    6.77
   1  -3   4  147.00    3.11
   1   3   4  154.67    3.24
  -1   3  -4  152.91    3.19
   3  -3   4  243.85    4.58
  -3   3  -4  244.81    4.75
   3   3   4  242.04    4.81
   5  -3   4   16.75    0.83
  -5   3  -4   17.15    0.97
   5   3   4   17.34    0.99
   7   3   4  178.73    4.16
  -7   3  -4  171.49    3.95
  -9   3  -4   11.29    0.91
   9   3   4   11.16    0.96
 -11   3  -4   48.38    2.06
 -14   4   4    2.69    0.57
 -12   4   4   81.20    2.55
 -10   4   4   28.63    1.31
  -8  -4   4  160.23    3.56
   8   4  -4  162.02    3.62
  -8   4   4  165.62    3.50
  -6  -4   4    0.00    0.13
  -6   4   4    0.32    0.16
  -4  -4   4   84.00    2.21
  -2  -4   4    2.80    0.45
  -2   4   4    3.59    0.45
   2   4  -4    2.82    0.41
   0  -4   4  221.52    4.37
   0   4  -4  222.25    4.31
   0   4   4  230.38    4.43
   2  -4   4   31.30    1.19
  -2   4  -4   30.77    1.23
   2   4   4   32.04    1.30
   4  -4   4  146.52    3.22
  -4   4  -4  146.57    3.37
   4   4   4  144.05    3.48
  -6   4  -4    2.23    0.46
   6   4   4    2.49    0.52
  -8   4  -4  233.02    5.07
   8   4   4  235.50    5.35
  10   4   4    6.17    0.92
 -10   4  -4    5.01    0.78
 -12   4  -4  131.11    3.84
 -13   5   4    2.09    0.50
 -11   5   4   39.54    1.64
  -9  -5   4   34.14    1.49
   9   5  -4   35.55    1.56
  -7  -5   4  106.52    2.83
   7   5  -4  102.68    2.82
  -5  -5   4   44.05    1.64
  -3  -5   4   44.37    1.61
  -1  -5   4  143.36    3.31
  -1   5   4  141.85    3.24
   1  -5   4   52.18    1.74
   1   5   4   54.05    1.82
  -1   5  -4   52.57    1.71
   3  -5   4   69.48    2.05
   3   5   4   69.10    2.23
  -3   5  -4   70.44    2.08
   5  -5   4    1.55    0.35
   5   5   4    2.36    0.50
  -5   5  -4    1.72    0.41
   7   5   4   72.80    2.62
  -7   5  -4   79.72    2.44
   9   5   4    3.76    0.74
  -9   5  -4    3.29    0.63
 -11   5  -4   19.69    1.33
  11   5   4   18.37    1.41
 -10  -6   4    1.25    0.44
  10   6  -4    0.79    0.39
  -8  -6   4    3.76    0.63
   8   6  -4    3.26    0.63
  -6  -6   4    1.51    0.43
   6   6  -4    1.62    0.47
  -4  -6   4   10.02    0.84
  -2  -6   4    0.20    0.21
   0  -6   4    4.17    0.60
   0   6   4    6.11    0.74
   2  -6   4   -0.15    0.18
   2   6   4   -0.22    0.20
   4  -6   4   10.86    0.83
   4   6   4   10.37    0.92
  -6   6  -4    1.53    0.44
   6   6   4    1.39    0.49
  -8   6  -4    7.00    0.87
   8   6   4    7.83    1.13
  10   6   4    0.03    0.33
 -10   6  -4    0.11    0.30
  -9  -7   4   46.85    2.06
   9   7  -4   46.63    2.13
  -7  -7   4  107.89    3.29
   7   7  -4  111.99    3.41
  -5  -7   4   82.81    2.75
   5   7  -4   82.04    2.77
  -3  -7   4   77.68    2.62
   3   7  -4   78.92    2.67
  -1  -7   4  150.03    3.83
   1  -7   4   52.90    2.01
   1   7   4   55.47    2.14
   3  -7   4  115.80    3.20
   3   7   4  117.23    3.47
   5   7   4    9.04    1.12
   7   7   4   79.55    3.01
  -6  -8   4    0.08    0.28
   6   8  -4    0.47    0.42
  -4  -8   4   23.72    1.48
   4   8  -4   26.24    1.60
  -2  -8   4    0.53    0.35
   2   8  -4   -0.08    0.28
   0  -8   4   66.50    2.47
   0   8  -4   64.54    2.49
   2  -8   4    9.00    0.90
   2   8   4    9.91    1.20
   4   8   4   50.40    2.31
 -16   0   5    0.18    0.32
 -14   0   5    0.61    0.35
 -12   0   5    0.96    0.33
 -10   0   5   -0.02    0.13
  -8   0   5   -0.05    0.12
  -6   0   5   -0.15    0.12
  -4   0   5    2.17    0.34
   2   0  -5   -0.11    0.10
  -2   0   5   -0.05    0.13
  -2   0   5   -0.14    0.10
   0   0   5    0.60    0.22
   0   0  -5    0.13    0.14
   0   0   5    0.18    0.15
   2   0   5    0.13    0.17
  -2   0  -5    0.47    0.22
   4   0   5    2.54    0.46
  -4   0  -5    0.54    0.25
  -6   0  -5    0.17    0.21
   6   0   5    0.11    0.18
   8   0   5    0.44    0.28
  -8   0  -5   -0.02    0.18
 -10   0  -5   -0.05    0.24
 -12   0  -5   -0.12    0.28
 -15  -1   5   32.65    1.67
 -15   1   5   30.76    1.65
 -13  -1   5  106.84    3.00
 -13   1   5  103.83    2.99
 -11  -1   5   67.48    2.09
 -11   1   5   65.40    2.08
  -9  -1   5   96.32    2.44
  -9   1   5   96.48    2.47
  -7  -1   5  264.86    4.94
  -7   1   5  269.15    4.92
  -5  -1   5  154.53    3.16
  -5   1   5  156.75    3.09
   3  -1  -5  257.64    4.68
  -3  -1   5  267.14    4.68
  -3  -1   5  258.86    4.56
  -3   1   5  267.09    4.56
  -3   1   5  218.78    4.50
   3   1  -5  272.45    4.80
  -1  -1   5   28.05    1.02
   1  -1  -5   26.22    0.97
  -1  -1   5   26.35    1.02
   1   1  -5   27.03    1.03
  -1   1   5   26.11    1.01
  -1   1   5   27.23    0.95
  -1  -1  -5  328.28    5.68
   1  -1   5  328.46    5.85
  -1   1  -5  330.34    5.84
   1   1   5  319.04    5.89
  -3  -1  -5   32.93    1.20
   3  -1   5   31.78    1.22
   3   1   5   32.00    1.27
  -3   1  -5   32.19    1.27
   5  -1   5   85.45    2.31
  -5  -1  -5   87.93    2.33
  -5   1  -5   85.00    2.42
   5   1   5   88.05    2.45
   7  -1   5    1.67    0.38
  -7  -1  -5    1.72    0.41
   7   1   5    2.37    0.49
  -7   1  -5    1.61    0.40
   9   1   5   55.90    2.09
  -9   1  -5   54.70    2.07
 -11   1  -5   12.35    1.05
 -13   1  -5   11.26    1.10
 -14  -2   5   76.08    2.66
 -14   2   5   76.89    2.58
 -12  -2   5    0.22    0.23
 -12   2   5    0.18    0.21
 -10  -2   5   59.61    1.89
 -10   2   5   59.58    1.89
  -8  -2   5    0.63    0.22
  -8   2   5    1.05    0.28
  -6  -2   5  236.31    4.59
  -6  -2   5  255.19    4.50
  -6   2   5  243.81    4.51
   6   2  -5  247.28    4.80
  -4  -2   5   61.16    1.61
  -4  -2   5   59.57    1.67
  -4   2   5   59.94    1.55
   4   2  -5   58.38    1.72
  -2  -2   5  252.90    4.66
  -2  -2   5  248.79    4.70
   2  -2  -5  253.86    4.55
  -2   2   5  251.91    4.66
   2   2  -5  249.19    4.70
  -2   2   5  252.30    4.43
   0  -2   5    8.64    0.58
   0   2   5    8.90    0.62
   0   2  -5    8.70    0.62
   0   2   5    8.96    0.52
  -2  -2  -5  537.54    8.70
   2  -2   5  535.66    8.98
   2   2   5  533.05    9.15
  -2   2  -5  529.99    9.05
   4  -2   5   26.67    1.11
   4   2   5   26.11    1.22
  -4   2  -5   24.50    1.18
   6  -2   5  327.14    6.13
  -6   2  -5  326.60    6.40
   6   2   5  329.48    6.47
  -8   2  -5    7.82    0.76
   8   2   5    8.63    0.83
 -10   2  -5  304.16    6.43
  10   2   5  299.36    6.49
 -12   2  -5    7.43    0.98
 -13   3   5   74.55    2.46
 -11   3   5   34.11    1.46
  -9  -3   5   54.26    1.77
  -9   3   5   53.47    1.74
  -7  -3   5  162.12    3.54
  -7  -3   5  167.94    3.47
  -7   3   5  167.18    3.48
   7   3  -5  168.66    3.71
  -5  -3   5   94.67    2.38
  -5  -3   5   95.92    2.34
  -5   3   5   98.43    2.20
   5   3  -5   96.00    2.45
  -3  -3   5  132.57    2.95
  -3  -3   5  127.98    2.88
  -3   3   5  130.18    2.62
   3   3  -5  129.31    2.92
  -1  -3   5    9.47    0.65
  -1   3   5   10.41    0.67
   1   3  -5    9.34    0.66
   1  -3   5  187.66    3.87
  -1   3  -5  190.52    3.94
   1   3   5  185.91    3.96
   3  -3   5   18.24    0.91
   3   3   5   16.52    0.97
  -3   3  -5   17.57    1.00
   5  -3   5   43.76    1.52
   5   3   5   44.16    1.74
  -5   3  -5   41.68    1.67
   7  -3   5    0.20    0.22
   7   3   5    0.17    0.26
  -7   3  -5   -0.17    0.21
  -9   3  -5   34.41    1.67
   9   3   5   37.49    1.82
 -11   3  -5    6.24    0.91
  11   3   5    7.28    1.04
 -14   4   5    1.87    0.50
 -12   4   5    0.46    0.30
 -10   4   5    3.36    0.54
  -8  -4   5    0.39    0.25
   8   4  -5    0.08    0.19
  -8   4   5    0.19    0.19
  -6  -4   5    3.12    0.50
  -4  -4   5    0.03    0.17
  -4  -4   5    0.11    0.16
   4   4  -5    0.01    0.16
  -2  -4   5    8.04    0.64
  -2   4   5    8.17    0.62
   2   4  -5    7.78    0.62
   0  -4   5    0.86    0.26
   0   4   5    1.29    0.35
   0   4  -5    0.47    0.23
   2   4   5    6.66    0.65
  -2   4  -5    6.54    0.64
   4  -4   5    0.30    0.21
   4   4   5    0.72    0.33
  -4   4  -5    1.76    0.43
   6  -4   5    9.04    0.71
   6   4   5    8.77    0.84
  -6   4  -5    8.15    0.75
   8   4   5    2.88    0.64
  -8   4  -5    0.45    0.33
  10   4   5    3.90    0.76
 -10   4  -5    4.40    0.73
 -13   5   5   77.73    2.60
  -9  -5   5   77.92    2.42
   9   5  -5   76.94    2.45
  -7  -5   5  174.06    4.06
   7   5  -5  175.28    4.09
  -5  -5   5   89.24    2.56
  -3  -5   5  170.54    3.90
  -1  -5   5   22.23    1.15
  -1   5   5   23.10    1.13
   1  -5   5  176.16    3.98
   1   5   5  181.37    4.08
  -1   5  -5  175.54    3.94
   3  -5   5   16.89    0.98
   3   5   5   17.16    1.12
  -3   5  -5   17.14    1.05
   5  -5   5   63.87    2.08
   5   5   5   63.56    2.37
  -5   5  -5   64.61    2.17
  -7   5  -5    2.95    0.57
   7   5   5    2.80    0.66
   9   5   5   35.11    1.90
  -9   5  -5   34.42    1.71
  -8  -6   5    0.86    0.41
   8   6  -5    0.77    0.38
  -6  -6   5  100.99    3.01
   6   6  -5  100.53    3.03
  -4  -6   5   22.52    1.26
  -2  -6   5   98.74    2.87
   0  -6   5    4.39    0.66
   0   6   5    5.12    0.73
   2  -6   5  227.27    4.90
   2   6   5  216.75    5.03
   4  -6   5    9.38    0.81
   4   6   5    7.19    0.93
  -6   6  -5  161.10    3.98
   6   6   5  154.11    4.34
   8   6   5    3.67    0.82
  -8   6  -5    3.14    0.61
  -9  -7   5   14.69    1.17
   9   7  -5   15.22    1.26
  -7  -7   5   42.77    1.97
   7   7  -5   42.48    2.01
  -5  -7   5   22.28    1.40
   5   7  -5   23.27    1.44
  -3  -7   5   27.78    1.52
  -1  -7   5    3.04    0.63
   1  -7   5   46.31    1.94
   1   7   5   47.86    2.03
   3  -7   5    3.54    0.63
   3   7   5    3.45    0.71
   5   7   5   11.10    1.12
  -6  -8   5    4.02    0.81
   6   8  -5    4.00    0.80
  -4  -8   5    0.42    0.37
   4   8  -5    0.23    0.38
  -2  -8   5   10.37    1.22
   2   8  -5   10.45    1.27
   0  -8   5    1.16    0.48
   2  -8   5    8.32    1.00
   2   8   5    7.73    1.03
   4   8   5    0.49    0.45
 -14   0   6    0.41    0.33
 -12   0   6  105.81    2.95
 -10   0   6   29.17    1.30
  -8   0   6  155.25    3.42
  -6   0   6   10.46    0.67
  -4   0   6  561.66    9.27
   4   0  -6  561.56    9.45
  -2   0   6   48.89    1.50
   2   0  -6   46.65    1.52
  -2   0   6   49.10    1.52
   0   0   6  508.88    8.58
   0   0   6  494.66    8.64
   0   0  -6  509.24    8.55
  -2   0  -6   10.98    0.73
   2   0   6   10.53    0.74
   4   0   6  577.59   10.12
  -4   0  -6  590.78   10.05
   6   0   6    8.47    0.76
  -6   0  -6    8.72    0.78
   8   0   6  253.32    5.53
  -8   0  -6  247.64    5.38
 -10   0  -6   56.91    2.19
 -15  -1   6   31.43    1.67
 -15   1   6   34.38    1.75
 -13  -1   6   77.61    2.53
 -13   1   6   77.50    2.54
 -11  -1   6   58.68    2.01
 -11   1   6   59.63    2.02
  -9  -1   6   94.08    2.54
  -9   1   6   94.44    2.49
  -7  -1   6   16.01    0.87
  -7   1   6   16.39    0.85
  -5  -1   6  213.95    4.19
  -5  -1   6  208.09    3.94
   5   1  -6  209.47    4.32
  -5   1   6  210.03    4.07
  -3  -1   6   35.76    1.23
   3  -1  -6   35.86    1.29
  -3  -1   6   35.65    1.29
   3   1  -6   37.32    1.36
  -3   1   6   35.38    1.22
  -3   1   6   35.84    1.22
   1  -1  -6   77.37    2.03
  -1  -1   6   83.69    2.14
  -1   1   6   78.70    2.14
   1   1  -6   80.66    2.15
  -1   1   6   79.56    2.02
   1  -1   6    1.50    0.34
  -1  -1  -6    2.10    0.36
   1   1   6    3.82    0.52
  -1   1  -6    1.83    0.39
  -3  -1  -6   85.83    2.28
   3  -1   6   84.50    2.35
   3   1   6   85.44    2.40
  -3   1  -6   83.11    2.37
   5  -1   6   26.89    1.26
  -5  -1  -6   26.94    1.25
  -5   1  -6   28.87    1.37
   5   1   6   28.10    1.34
  -7  -1  -6   13.93    0.94
   7  -1   6   11.85    0.90
   7   1   6   12.91    0.98
  -7   1  -6   11.33    0.93
   9   1   6   11.05    1.01
  -9   1  -6   12.14    1.01
 -11   1  -6   21.17    1.40
 -14  -2   6   -0.03    0.25
 -14   2   6    0.10    0.23
 -12  -2   6    0.56    0.34
 -12   2   6    0.14    0.22
 -10  -2   6    0.11    0.18
 -10   2   6    0.35    0.22
  -8  -2   6    1.27    0.34
  -8   2   6    1.62    0.33
  -6  -2   6    2.35    0.38
  -6  -2   6    0.16    0.17
  -6   2   6    0.10    0.15
   6   2  -6    0.58    0.26
   4  -2  -6    2.40    0.40
  -4  -2   6    2.12    0.39
   4   2  -6    2.01    0.40
  -4   2   6    1.96    0.32
  -2  -2   6    0.02    0.16
  -2  -2   6    0.22    0.17
   2  -2  -6    0.26    0.17
  -2   2   6    0.26    0.16
  -2   2   6    0.00    0.12
   2   2  -6    0.04    0.14
   0  -2  -6    4.70    0.44
   0  -2   6    3.85    0.52
   0   2  -6    3.84    0.52
   0   2   6    4.41    0.43
   0   2   6    4.50    0.58
   2  -2   6    0.19    0.17
   2   2   6    0.10    0.18
  -2   2  -6   -0.04    0.19
   4  -2   6    1.98    0.42
  -4   2  -6    3.09    0.56
   4   2   6    2.45    0.49
   6  -2   6    0.32    0.23
  -6   2  -6    0.06    0.23
   6   2   6    0.29    0.28
   8  -2   6    2.08    0.46
   8   2   6    2.56    0.58
  -8   2  -6    1.98    0.52
  10   2   6    0.50    0.40
 -10   2  -6    0.34    0.30
 -13   3   6   93.90    2.93
 -11   3   6   61.56    2.13
  -9  -3   6  114.78    3.00
   9   3  -6  114.85    3.14
  -9   3   6  115.73    2.91
  -7  -3   6   22.31    1.11
  -7  -3   6   20.96    0.99
  -7   3   6   20.50    0.98
   7   3  -6   21.67    1.15
  -5  -3   6  208.69    4.22
  -5  -3   6  204.61    4.31
  -5   3   6  207.93    4.05
   5   3  -6  209.73    4.41
  -3  -3   6   31.58    1.34
  -3  -3   6   33.51    1.30
   3  -3  -6   29.60    1.17
   3   3  -6   33.37    1.34
  -3   3   6   32.76    1.13
  -1  -3   6   91.94    2.45
  -1   3   6   92.18    2.45
   1   3  -6   95.58    2.51
   1  -3   6    5.40    0.65
  -1   3  -6    8.15    0.70
   1   3   6    6.01    0.75
   3  -3   6   76.17    2.21
   3   3   6   74.40    2.38
  -3   3  -6   79.21    2.40
   5  -3   6   25.45    1.22
  -5   3  -6   23.99    1.31
   5   3   6   27.05    1.41
   7  -3   6   17.78    1.06
   7   3   6   18.61    1.25
  -7   3  -6   17.26    1.15
   9   3   6   17.10    1.28
  -9   3  -6   16.10    1.21
 -11   3  -6   19.65    1.40
  11   3   6   20.42    1.48
 -14   4   6    0.34    0.37
 -12   4   6   75.26    2.51
 -10   4   6   21.79    1.18
  -8  -4   6  108.20    2.84
  -8   4   6  105.14    2.70
  -6  -4   6    7.22    0.68
  -6  -4   6    7.87    0.67
   6   4  -6    7.50    0.69
  -4  -4   6  355.89    6.72
  -4  -4   6  348.27    6.67
   4   4  -6  357.34    6.66
  -2  -4   6   27.11    1.25
   2   4  -6   26.37    1.23
  -2   4   6   26.51    1.21
   0  -4   6  306.26    5.99
   0   4   6  311.64    6.04
   0   4  -6  304.91    5.99
   2  -4   6    4.92    0.64
  -2   4  -6    5.92    0.72
   2   4   6    4.55    0.66
   4  -4   6  392.85    7.23
  -4   4  -6  377.42    7.37
   4   4   6  376.50    7.53
   6  -4   6    5.07    0.67
  -6   4  -6    6.66    0.85
   6   4   6    5.92    0.83
   8   4   6  167.91    4.52
  -8   4  -6  166.93    4.30
  10   4   6   37.07    2.01
 -10   4  -6   35.70    1.85
  -7  -5   6    5.48    0.75
  -5  -5   6   79.35    2.48
  -3  -5   6   13.49    0.95
  -1  -5   6   25.66    1.30
  -1   5   6   24.56    1.26
   1   5  -6   24.39    1.25
   1  -5   6    0.40    0.26
  -1   5  -6    0.29    0.27
   1   5   6    0.68    0.35
   3  -5   6   33.15    1.49
   3   5   6   31.43    1.60
  -3   5  -6   31.08    1.51
   5  -5   6    9.17    0.81
   5   5   6    9.07    0.91
  -5   5  -6    9.02    1.01
  -7   5  -6    4.03    0.68
   7   5   6    5.87    0.97
   9   5   6    2.97    0.76
  -9   5  -6    2.62    0.63
  -8  -6   6    6.86    0.88
   8   6  -6    5.87    0.84
  -6  -6   6    0.80    0.38
  -4  -6   6    6.56    0.87
  -2  -6   6   -0.08    0.24
   0  -6   6   14.71    1.06
   0   6   6   16.76    1.13
   2  -6   6    0.40    0.27
   2   6   6    0.08    0.26
   4  -6   6   11.12    0.93
  -4   6  -6   11.91    0.98
   4   6   6   10.33    1.23
   6   6   6    0.50    0.41
  -6   6  -6    0.81    0.40
  -8   6  -6    8.76    1.06
  -9  -7   6   68.57    2.62
  -7  -7   6   13.01    1.13
   7   7  -6   11.63    1.09
  -5  -7   6  102.33    3.31
  -3  -7   6   13.13    1.09
  -1  -7   6   51.41    2.17
   1  -7   6    3.17    0.65
   1   7   6    3.98    0.75
   3  -7   6   33.82    1.71
   3   7   6   32.05    1.81
   5   7   6   12.13    1.20
  -4  -8   6  116.09    3.76
   4   8  -6  116.83    3.78
  -2  -8   6    8.46    1.16
   0  -8   6  112.65    3.52
   2  -8   6    1.31    0.49
   2   8   6    1.68    0.60
 -14   0   7    0.49    0.33
 -12   0   7    0.21    0.23
 -10   0   7    0.11    0.21
  -8   0   7    0.07    0.17
  -6   0   7    0.24    0.19
   6   0  -7    0.82    0.30
   4   0  -7    0.44    0.22
  -4   0   7    0.45    0.21
  -2   0   7    0.12    0.15
   2   0  -7    0.41    0.22
  -2   0   7    0.34    0.20
   0   0   7    0.08    0.18
   0   0   7    0.32    0.22
   0   0  -7    0.12    0.18
   2   0   7    0.34    0.22
  -2   0  -7   -0.11    0.13
   4   0   7    0.27    0.24
  -4   0  -7    0.53    0.28
   6   0   7    2.45    0.55
  -6   0  -7    0.13    0.24
   8   0   7    0.36    0.31
  -8   0  -7    1.15    0.44
 -10   0  -7    0.03    0.28
 -15  -1   7   39.37    1.97
 -15   1   7   41.11    2.21
 -13  -1   7    9.55    0.93
 -13   1   7   12.19    0.99
 -11  -1   7   94.43    2.80
 -11   1   7   94.78    2.76
  -9  -1   7   22.64    1.18
  -9   1   7   22.45    1.16
  -7  -1   7   56.33    1.87
   7   1  -7   57.16    2.01
  -7   1   7   60.65    1.87
  -5  -1   7    5.61    0.50
   5  -1  -7    5.68    0.57
  -5  -1   7    4.94    0.60
  -5   1   7    4.23    0.52
   5   1  -7    4.91    0.65
  -3  -1   7   85.19    2.35
  -3  -1   7   87.05    2.29
   3  -1  -7   82.42    2.30
   3   1  -7   85.75    2.39
  -3   1   7   85.13    2.23
  -3   1   7   87.62    2.29
  -1  -1   7   45.44    1.62
   1  -1  -7   50.86    1.62
  -1  -1   7   46.38    1.69
   1   1  -7   42.52    1.61
  -1   1   7   46.04    1.56
  -1   1   7   45.86    1.66
   1  -1   7   22.18    1.12
  -1  -1  -7   21.19    1.04
  -1   1  -7   19.68    1.08
   1   1   7   20.05    1.10
   3  -1   7   27.71    1.31
  -3  -1  -7   25.09    1.21
  -3   1  -7   28.57    1.36
   3   1   7   26.83    1.33
  -5  -1  -7   40.94    1.66
   5  -1   7   39.50    1.66
   5   1   7   44.19    1.83
  -5   1  -7   41.23    1.78
   7  -1   7   60.39    2.20
   7   1   7   62.84    2.36
  -7   1  -7   64.03    2.34
   9  -1   7   19.75    1.36
  -9   1  -7   20.21    1.35
   9   1   7   23.14    1.48
 -11   1  -7   29.32    1.69
 -14  -2   7   60.36    2.37
 -14   2   7   60.00    2.32
 -12  -2   7    8.77    1.00
 -12   2   7    6.51    0.83
 -10  -2   7  234.01    5.06
  10   2  -7  238.57    5.34
 -10   2   7  233.83    4.98
  -8  -2   7   27.77    1.31
  -8   2   7   26.59    1.23
   8   2  -7   27.39    1.39
  -6  -2   7  304.59    6.00
  -6  -2   7  318.45    5.79
   6   2  -7  314.24    6.18
  -6   2   7  319.29    5.87
   4  -2  -7    3.79    0.54
  -4  -2   7    3.61    0.52
  -4  -2   7    4.34    0.60
  -4   2   7    3.93    0.51
   4   2  -7    3.93    0.59
  -2  -2   7  569.29    9.92
   2  -2  -7  575.01    9.60
  -2  -2   7  571.67    9.81
   2   2  -7  564.24    9.84
  -2   2   7  551.86    9.76
  -2   2   7  580.60    9.51
   0  -2  -7    4.05    0.52
   0  -2   7    5.63    0.69
   0   2   7    4.82    0.66
   0   2  -7    7.33    0.68
   0   2   7    4.13    0.53
   2  -2   7  319.08    6.21
   2   2   7  313.83    6.32
  -2   2  -7  326.20    6.35
   4  -2   7   77.08    2.40
   4   2   7   78.45    2.55
  -4   2  -7   79.76    2.58
   6  -2   7  244.41    5.28
  -6   2  -7  243.98    5.52
   6   2   7  245.53    5.51
   8  -2   7   34.46    1.64
  -8   2  -7   35.42    1.78
   8   2   7   35.08    1.81
 -10   2  -7   62.35    2.51
  10   2   7   64.02    2.64
 -13   3   7    6.28    0.85
 -11  -3   7   58.56    2.19
 -11   3   7   58.70    2.11
  11   3  -7   60.51    2.35
  -9  -3   7   15.72    1.05
   9   3  -7   17.01    1.15
  -9   3   7   17.32    1.02
  -7  -3   7   32.62    1.45
   7   3  -7   30.26    1.47
  -7   3   7   30.36    1.30
   5  -3  -7    1.79    0.41
  -5  -3   7    1.99    0.44
  -5  -3   7    2.50    0.46
   5   3  -7    1.48    0.40
  -5   3   7    1.85    0.36
  -3  -3   7   53.11    1.84
  -3  -3   7   53.40    1.94
   3   3  -7   53.95    1.91
  -1  -3   7   27.99    1.31
  -1   3   7   27.40    1.29
   1   3  -7   26.77    1.31
   1  -3   7    8.82    0.74
   1   3   7    9.62    0.81
  -1   3  -7    8.28    0.77
   3  -3   7   14.43    0.95
  -3   3  -7   14.52    1.04
   3   3   7   12.42    0.98
   5  -3   7   26.03    1.33
   5   3   7   25.51    1.46
  -5   3  -7   24.99    1.44
   7  -3   7   37.25    1.66
   7   3   7   38.14    1.90
  -7   3  -7   35.64    1.77
   9   3   7   12.10    1.14
  -9   3  -7   10.45    1.05
 -12   4   7    0.08    0.26
 -10   4   7    3.15    0.54
  -6  -4   7    8.32    0.78
  -6  -4   7    7.77    0.71
   6   4  -7    7.43    0.75
  -4  -4   7    0.18    0.22
  -4  -4   7    0.39    0.29
   4   4  -7    0.06    0.23
  -2  -4   7    7.67    0.71
   2   4  -7    8.49    0.78
   0  -4   7    0.26    0.25
   0   4   7    1.56    0.43
   0   4  -7    0.40    0.27
   2  -4   7   10.10    0.84
  -2   4  -7    9.45    0.88
   2   4   7    8.04    0.95
   4  -4   7    0.12    0.23
  -4   4  -7    0.61    0.37
   4   4   7    0.64    0.36
   6  -4   7    3.56    0.62
  -6   4  -7    3.70    0.70
   6   4   7    3.80    0.78
   8   4   7    2.05    0.57
  -8   4  -7    0.42    0.34
  -7  -5   7   50.14    1.97
  -5  -5   7    6.24    0.84
  -3  -5   7   56.79    2.16
  -1  -5   7   26.42    1.43
   1   5  -7   30.46    1.51
  -1   5   7   28.07    1.57
   1  -5   7   18.32    1.16
   1   5   7   19.19    1.24
  -1   5  -7   17.35    1.18
   3  -5   7   24.07    1.35
  -3   5  -7   22.20    1.37
   3   5   7   24.08    1.46
   5  -5   7   26.40    1.43
   5   5   7   25.79    1.61
  -5   5  -7   26.88    1.53
  -7   5  -7   54.22    2.24
   7   5   7   42.16    2.18
  -8  -6   7   14.20    1.16
   8   6  -7   15.55    1.20
  -6  -6   7  158.36    4.18
  -4  -6   7    1.33    0.47
  -2  -6   7  267.15    5.97
   0  -6   7    2.58    0.58
   0   6   7    3.33    0.65
   2  -6   7  160.06    4.11
   2   6   7  147.77    4.16
   4  -6   7   33.85    1.71
   4   6   7   34.35    1.88
  -4   6  -7   36.47    1.79
  -6   6  -7  122.36    3.60
   6   6   7  119.72    3.94
  -7  -7   7    6.78    1.08
   7   7  -7    5.83    0.95
  -5  -7   7    0.53    0.36
  -3  -7   7   15.01    1.23
  -1  -7   7    8.12    1.04
   1  -7   7    1.63    0.51
   1   7   7    1.52    0.53
   3  -7   7    2.51    0.63
   3   7   7    2.50    0.69
 -14   0   8   14.08    1.18
 -12   0   8  166.01    4.22
 -10   0   8    0.36    0.26
  -8   0   8  384.21    7.22
   8   0  -8  378.31    7.50
  -6   0   8    2.01    0.42
   6   0  -8    0.93    0.31
  -4   0   8  305.88    5.88
   4   0  -8  301.86    6.00
  -4   0   8  300.26    5.73
   2   0  -8   76.69    2.32
  -2   0   8   81.41    2.37
  -2   0   8   79.44    2.36
   0   0   8  360.22    6.95
   0   0  -8  359.27    6.85
  -2   0  -8   43.06    1.74
   2   0   8   41.00    1.73
   4   0   8  104.70    3.06
  -4   0  -8  104.44    3.04
  -6   0  -8   63.75    2.37
   6   0   8   64.90    2.40
   8   0   8   73.52    2.68
  -8   0  -8   69.20    2.54
 -13  -1   8   19.82    1.34
 -13   1   8   19.73    1.33
 -11  -1   8    2.84    0.57
 -11   1   8    2.87    0.57
  11   1  -8    2.36    0.57
  -9  -1   8   37.51    1.65
   9   1  -8   39.30    1.81
  -9   1   8   35.93    1.57
   7  -1  -8   26.80    1.40
  -7  -1   8   29.20    1.37
  -7   1   8   29.64    1.34
   7   1  -8   29.78    1.47
   5  -1  -8   10.90    0.83
  -5  -1   8   10.32    0.74
  -5  -1   8   11.76    0.84
  -5   1   8    9.57    0.73
   5   1  -8   10.48    0.84
  -3  -1   8   24.22    1.23
   3  -1  -8   23.41    1.19
  -3  -1   8   23.71    1.16
  -3   1   8   23.74    1.16
  -3   1   8   21.81    1.11
   3   1  -8   21.72    1.18
  -1  -1   8   42.43    1.68
  -1  -1   8   40.24    1.71
   1  -1  -8   43.63    1.64
   1   1  -8   44.05    1.71
  -1   1   8   42.87    1.63
  -1   1   8   43.20    1.69
   1  -1   8   87.38    2.64
  -1  -1  -8   89.90    2.54
  -1   1  -8   86.85    2.64
   1   1   8   89.80    2.71
  -3  -1  -8   20.70    1.17
   3  -1   8   20.99    1.21
   3   1   8   21.33    1.26
  -3   1  -8   21.15    1.26
   5  -1   8   41.15    1.79
  -5   1  -8   41.49    1.88
   5   1   8   43.40    1.92
   7  -1   8   58.56    2.25
   7   1   8   58.81    2.41
  -7   1  -8   56.07    2.28
   9  -1   8   43.18    2.03
   9   1   8   42.67    2.10
  -9   1  -8   45.15    2.07
 -14  -2   8    0.08    0.29
  14   2  -8    0.29    0.34
 -12  -2   8    0.51    0.33
  12   2  -8    1.13    0.44
 -12   2   8    1.03    0.43
 -10  -2   8    0.06    0.24
  10   2  -8    0.00    0.28
 -10   2   8    0.07    0.19
  -8  -2   8    1.68    0.42
   8   2  -8    1.03    0.38
  -8   2   8    1.12    0.33
  -6  -2   8    0.09    0.20
   6  -2  -8    0.19    0.24
  -6   2   8    0.12    0.20
   6   2  -8    0.19    0.22
  -4  -2   8    2.98    0.52
   4  -2  -8    3.35    0.56
  -4  -2   8    2.57    0.49
   4   2  -8    2.79    0.52
  -4   2   8    3.51    0.54
  -2  -2   8    0.72    0.34
   2  -2  -8    0.21    0.20
  -2  -2   8    0.32    0.22
  -2   2   8    0.19    0.20
  -2   2   8    0.17    0.23
   2   2  -8   -0.04    0.22
   0  -2   8    1.52    0.40
   0  -2  -8    1.62    0.39
   0   2  -8    2.27    0.51
   0   2   8    1.47    0.41
   2  -2   8    0.18    0.23
   2   2   8    0.63    0.32
  -2   2  -8    0.39    0.30
   4  -2   8    1.34    0.41
   4   2   8    1.15    0.41
  -4   2  -8    1.72    0.50
   6  -2   8    0.29    0.27
  -6   2  -8   -0.10    0.27
   6   2   8    0.61    0.38
   8  -2   8    0.01    0.28
  -8   2  -8    0.08    0.30
   8   2   8    0.42    0.36
 -13   3   8   26.78    1.55
 -11  -3   8    4.27    0.74
 -11   3   8    4.91    0.76
  11   3  -8    3.75    0.74
  -9  -3   8   39.98    1.79
  -9   3   8   42.88    1.73
   9   3  -8   39.89    1.88
   7  -3  -8   29.26    1.47
  -7  -3   8   28.83    1.47
   7   3  -8   28.26    1.51
  -7   3   8   29.63    1.34
  -5  -3   8   15.44    1.07
  -5  -3   8   17.10    1.03
   5  -3  -8   17.33    1.06
  -5   3   8   16.28    0.95
   5   3  -8   17.34    1.13
  -3  -3   8   31.10    1.56
  -3  -3   8   32.10    1.49
   3   3  -8   31.85    1.53
  -1  -3   8   41.07    1.74
  -1   3   8   42.38    1.72
   1   3  -8   41.24    1.76
   1  -3   8   89.17    2.73
  -1   3  -8   85.75    2.77
   1   3   8   85.93    2.72
   3  -3   8   29.22    1.46
   3   3   8   29.90    1.58
  -3   3  -8   26.28    1.52
   5  -3   8   51.53    2.04
  -5   3  -8   51.71    2.22
   5   3   8   53.73    2.25
   7  -3   8   59.76    2.27
  -7   3  -8   59.57    2.45
   7   3   8   57.84    2.45
 -12   4   8  127.38    3.64
 -10   4   8    0.26    0.27
  -8  -4   8  278.42    6.03
   8   4  -8  277.80    6.07
  -6  -4   8    1.65    0.50
  -6  -4   8    1.68    0.44
   6   4  -8    0.89    0.41
  -4  -4   8  229.35    5.31
  -4  -4   8  228.35    5.12
   4   4  -8  225.18    5.12
  -2  -4   8   54.64    2.11
   2   4  -8   54.42    2.11
   0  -4   8  234.63    5.37
   0   4  -8  245.56    5.47
   0   4   8  240.51    5.35
   2  -4   8   29.79    1.52
  -2   4  -8   28.25    1.56
   2   4   8   29.13    1.58
   4  -4   8   74.56    2.58
  -4   4  -8   77.29    2.77
   4   4   8   74.42    2.75
   6  -4   8   46.26    2.01
   6   4   8   44.06    2.17
  -6   4  -8   47.05    2.15
  -7  -5   8   14.55    1.10
  -5  -5   8    2.87    0.62
  -3  -5   8    8.03    1.01
   3   5  -8    9.29    1.07
  -1  -5   8   18.19    1.24
   1   5  -8   17.57    1.25
   1  -5   8   35.53    1.74
  -1   5  -8   35.91    1.81
   1   5   8   35.63    1.79
   3  -5   8    8.88    1.05
   3   5   8    8.45    1.13
  -3   5  -8    8.32    1.07
   5  -5   8   16.58    1.21
   5   5   8   14.93    1.30
  -5   5  -8   15.40    1.25
  -8  -6   8    8.38    1.12
  -6  -6   8    0.51    0.38
  -4  -6   8   12.61    1.12
  -2  -6   8    0.02    0.27
   0  -6   8    7.55    1.05
   2  -6   8    1.65    0.50
  -2   6  -8    2.56    0.65
   2   6   8    3.22    0.74
   4  -6   8    5.89    0.89
  -4   6  -8    4.32    0.80
   4   6   8    5.16    0.96
  -5  -7   8   10.14    1.23
  -3  -7   8   18.73    1.44
  -1  -7   8   18.28    1.40
   1  -7   8   41.96    2.37
  12   0  -9    0.22    0.33
 -12   0   9   -0.16    0.23
 -10   0   9    0.79    0.35
  10   0  -9    0.96    0.42
   8   0  -9    0.11    0.24
  -8   0   9    0.13    0.25
  -6   0   9    0.65    0.30
   6   0  -9   -0.07    0.19
  -4   0   9    0.00    0.15
   4   0  -9   -0.03    0.18
  -2   0   9   -0.06    0.20
   2   0  -9   -0.02    0.20
  -2   0   9    0.07    0.22
   0   0   9   -0.08    0.19
   0   0  -9   -0.01    0.20
  -2   0  -9    0.95    0.40
   2   0   9   -0.10    0.23
  -4   0  -9   -0.12    0.28
   4   0   9   -0.14    0.22
   6   0   9   -0.03    0.32
  -6   0  -9    0.13    0.32
   8   0   9   -0.15    0.31
 -13  -1   9   17.22    1.31
  13   1  -9   16.61    1.39
 -13   1   9   14.91    1.22
 -11  -1   9    7.73    0.97
  11  -1  -9    8.45    1.12
 -11   1   9    9.24    0.90
  11   1  -9    6.74    0.98
  -9  -1   9   21.49    1.31
   9  -1  -9   21.70    1.41
   9   1  -9   21.90    1.41
  -9   1   9   22.65    1.32
   7  -1  -9   28.19    1.50
  -7  -1   9   27.69    1.43
   7   1  -9   28.00    1.51
  -7   1   9   27.69    1.40
   5  -1  -9   78.31    2.54
  -5  -1   9   81.78    2.57
   5   1  -9   79.50    2.60
  -5   1   9   78.71    2.43
  -3  -1   9   22.74    1.32
  -3  -1   9   23.82    1.27
   3  -1  -9   25.62    1.31
  -3   1   9   24.42    1.26
  -3   1   9   24.13    1.25
   3   1  -9   25.05    1.35
   1  -1  -9   65.18    2.19
  -1  -1   9   64.74    2.25
   1   1  -9   63.78    2.28
  -1   1   9   61.77    2.21
  -1   1   9   61.33    2.19
   1  -1   9   84.79    2.70
  -1  -1  -9   84.26    2.62
   1   1   9   89.23    2.79
  -1   1  -9   83.89    2.74
  -3  -1  -9   75.10    2.52
   3  -1   9   78.48    2.67
   3   1   9   79.51    2.73
  -3   1  -9   82.46    2.75
   5  -1   9   63.26    2.44
  -5   1  -9   65.22    2.53
   5   1   9   69.18    2.60
   7  -1   9   21.84    1.44
  -7   1  -9   19.65    1.40
   7   1   9   22.92    1.50
 -12  -2   9    0.69    0.39
 -12   2   9    0.26    0.29
  12   2  -9    0.67    0.41
 -10  -2   9  169.10    4.33
  10  -2  -9  167.65    4.53
 -10   2   9  171.89    4.25
  10   2  -9  163.69    4.48
  -8  -2   9   35.08    1.69
   8  -2  -9   37.80    1.81
  -8   2   9   34.77    1.61
   8   2  -9   35.31    1.78
  -6  -2   9  240.11    5.31
   6  -2  -9  235.81    5.24
   6   2  -9  231.78    5.33
  -6   2   9  235.51    5.03
   4  -2  -9   28.24    1.41
  -4  -2   9   26.45    1.35
  -4  -2   9   27.96    1.49
   4   2  -9   26.90    1.44
  -4   2   9   24.09    1.26
   2  -2  -9  105.18    2.93
  -2  -2   9  105.62    3.07
  -2   2   9  105.51    2.92
   2   2  -9  107.43    3.16
  -2   2   9  107.95    3.05
   0  -2   9   66.87    2.37
   0   2  -9   66.89    2.42
   0   2   9   66.52    2.38
   2  -2   9   97.18    3.02
   2   2   9  100.26    3.13
  -2   2  -9  100.62    3.16
   4  -2   9    9.29    0.91
  -4   2  -9    9.10    1.11
   4   2   9    9.58    1.15
   6  -2   9   27.44    1.56
  -6   2  -9   27.57    1.69
   6   2   9   26.29    1.64
   8  -2   9    6.73    0.93
  -8   2  -9    6.14    0.97
   8   2   9    6.36    1.03
 -11  -3   9    3.23    0.66
  11   3  -9    1.87    0.59
 -11   3   9    3.07    0.65
   9  -3  -9   11.37    1.06
  -9  -3   9   13.86    1.11
  -9   3   9   11.90    0.96
   9   3  -9   13.32    1.13
  -7  -3   9   23.62    1.40
   7  -3  -9   17.68    1.23
  -7   3   9   16.35    1.09
   7   3  -9   21.53    1.37
  -5  -3   9   55.85    2.09
  -5  -3   9   54.09    2.21
   5   3  -9   55.16    2.19
  -3  -3   9   12.07    0.99
   3   3  -9   11.49    1.01
  -1  -3   9   37.50    1.77
  -1   3   9   37.98    1.75
   1   3  -9   38.98    1.82
   1  -3   9   56.96    2.23
   1   3   9   53.00    2.18
  -1   3  -9   56.05    2.29
   3  -3   9   47.02    2.03
  -3   3  -9   51.79    2.28
   3   3   9   52.14    2.22
   5  -3   9   38.56    1.85
   5   3   9   38.16    1.98
  -5   3  -9   41.33    2.07
   7  -3   9   11.24    1.03
   7   3   9   13.23    1.24
  -7   3  -9   11.49    1.34
  -8  -4   9    0.22    0.32
   8   4  -9    0.20    0.33
  -6  -4   9    3.82    0.70
  -6  -4   9    4.78    0.79
   6   4  -9    3.68    0.71
  -4  -4   9    1.86    0.50
   4   4  -9    1.72    0.55
  -2  -4   9    3.11    0.65
   2   4  -9    2.79    0.62
   0  -4   9    0.85    0.41
   0   4  -9    0.50    0.36
   0   4   9    0.54    0.34
   2  -4   9    2.01    0.57
  -2   4  -9    2.04    0.62
   2   4   9    1.18    0.46
   4  -4   9    0.15    0.30
   4   4   9    0.40    0.38
  -4   4  -9    0.41    0.39
   6  -4   9    2.19    0.61
   6   4   9    0.93    0.47
  -6   4  -9    1.63    0.55
  -7  -5   9   23.26    1.46
  -5  -5   9   61.83    2.47
  -3  -5   9   22.74    1.48
   3   5  -9   24.44    1.54
  -1  -5   9   54.91    2.34
   1   5  -9   55.87    2.37
   1  -5   9   59.11    2.43
  -1   5  -9   59.03    2.51
   1   5   9   58.99    2.44
   3  -5   9   58.09    2.41
   3   5   9   59.48    2.55
  -3   5  -9   61.40    2.58
   5  -5   9   54.83    2.63
  -6  -6   9  123.33    3.87
  -4  -6   9   15.74    1.32
  -2  -6   9   61.08    2.61
   0  -6   9   33.02    1.87
   2  -6   9   48.36    2.47
  -2   6  -9   52.59    2.39
   2   6   9   50.93    2.36
  12   0 -10  127.35    4.13
 -12   0  10  127.07    3.85
  10   0 -10   12.63    1.18
 -10   0  10   13.94    1.14
  -8   0  10   79.24    2.71
   8   0 -10   81.97    2.90
   6   0 -10   41.57    1.93
  -6   0  10   42.45    1.87
  -4   0  10   98.33    3.03
   4   0 -10  101.87    3.07
  -2   0  10    8.76    0.86
  -2   0  10    7.78    1.01
   2   0 -10    6.53    0.89
   0   0 -10   39.85    1.83
   0   0  10   37.25    1.79
  -2   0 -10    8.52    1.05
   2   0  10    9.64    0.94
  -4   0 -10   68.08    2.62
   4   0  10   68.96    2.62
  -6   0 -10    0.96    0.46
   6   0  10    0.95    0.43
 -11  -1  10   40.35    1.98
  11  -1 -10   39.29    2.11
 -11   1  10   41.65    1.99
  11   1 -10   39.28    2.09
   9  -1 -10   11.20    1.08
  -9  -1  10    9.92    0.97
  -9   1  10   11.81    1.03
   9   1 -10   12.11    1.12
  -7  -1  10   36.49    1.79
   7  -1 -10   41.22    1.94
   7   1 -10   38.71    1.91
  -7   1  10   41.11    1.81
  -5  -1  10   56.41    2.23
   5  -1 -10   58.78    2.25
   5   1 -10   56.98    2.26
  -5   1  10   54.98    2.12
   3  -1 -10   74.48    2.54
  -3  -1  10   73.44    2.64
  -3  -1  10   74.96    2.52
  -3   1  10   73.29    2.52
   3   1 -10   71.32    2.56
   1  -1 -10   60.58    2.23
  -1  -1  10   58.68    2.26
   1   1 -10   55.25    2.23
  -1   1  10   57.22    2.22
  -1  -1 -10   25.47    1.44
   1  -1  10   25.96    1.49
   1   1  10   25.97    1.51
  -1   1 -10   24.00    1.49
   3  -1  10   97.34    3.16
  -3   1 -10  100.83    3.28
   3   1  10   98.53    3.24
   5  -1  10   17.86    1.30
  -5   1 -10   18.90    1.40
   5   1  10   17.32    1.35
  12   2 -10    0.15    0.41
 -10  -2  10    0.86    0.44
  10  -2 -10    0.37    0.38
 -10   2  10    0.35    0.32
  10   2 -10    0.60    0.38
   8  -2 -10    0.67    0.40
  -8  -2  10    1.28    0.46
  -8   2  10    0.82    0.36
   8   2 -10    1.28    0.47
  -6  -2  10   -0.26    0.20
   6  -2 -10    0.32    0.30
  -6   2  10    0.45    0.31
   6   2 -10    0.17    0.28
   4  -2 -10    0.31    0.31
  -4  -2  10    0.58    0.35
  -4  -2  10    0.30    0.33
  -4   2  10   -0.03    0.25
   4   2 -10    0.40    0.32
  -2  -2  10   -0.10    0.21
  -2   2  10   -0.01    0.27
   2   2 -10    0.11    0.29
   0  -2  10    0.72    0.40
   0   2 -10    0.90    0.43
   0   2  10    0.61    0.37
   2  -2  10    0.05    0.23
  -2   2 -10   -0.03    0.32
   2   2  10    0.17    0.29
   4  -2  10    1.69    0.52
  -4   2 -10    0.57    0.41
   4   2  10    0.38    0.35
   6  -2  10    0.02    0.27
  -6   2 -10   -0.01    0.35
   6   2  10    0.19    0.37
 -11  -3  10   40.27    2.06
  11  -3 -10   40.75    2.18
  11   3 -10   41.97    2.19
 -11   3  10   45.31    2.09
   9  -3 -10   15.37    1.29
  -9  -3  10   13.03    1.17
  -9   3  10   15.48    1.18
   9   3 -10   16.11    1.31
  -7  -3  10   49.65    2.24
   7   3 -10   51.11    2.25
  -5  -3  10   61.86    2.36
   5   3 -10   64.32    2.53
  -3  -3  10   78.40    2.79
   3   3 -10   77.84    2.80
  -1  -3  10   72.71    2.70
   1   3 -10   72.15    2.74
  -1   3  10   72.28    2.64
   1  -3  10   35.13    1.83
  -1   3 -10   32.41    1.82
   1   3  10   33.60    1.80
   3  -3  10  100.04    3.30
  -3   3 -10  105.34    3.54
   3   3  10  103.19    3.44
   5  -3  10   19.83    1.39
   5   3  10   18.76    1.47
  -5   3 -10   20.56    1.54
  -8  -4  10   62.39    2.63
   8   4 -10   61.57    2.58
  -6  -4  10   30.25    1.70
  -6  -4  10   32.78    1.89
   6   4 -10   34.25    1.85
  -4  -4  10   72.79    2.74
   4   4 -10   76.41    2.84
  -2  -4  10    5.23    0.89
   2   4 -10    6.18    0.98
   0  -4  10   28.74    1.71
   0   4  10   28.32    1.65
   0   4 -10   29.14    1.77
   2  -4  10    6.16    0.94
  -2   4 -10    5.53    0.96
   2   4  10    6.81    0.99
   4  -4  10   48.82    2.29
  -5  -5  10   28.82    1.74
  -3  -5  10   34.84    1.94
   3   5 -10   37.52    2.02
  -1  -5  10   23.66    1.60
   1   5 -10   24.84    1.66
   1  -5  10    9.13    1.20
   1   5  10   11.30    1.13
  -1   5 -10    9.97    1.30
  10   0 -11    0.07    0.31
 -10   0  11    0.10    0.30
  -8   0  11    0.40    0.32
   8   0 -11    0.03    0.32
   6   0 -11    0.03    0.26
  -6   0  11    0.24    0.34
  -4   0  11    0.14    0.27
   4   0 -11   -0.06    0.25
  -2   0  11   -0.04    0.29
   2   0 -11    0.09    0.28
   0   0  11    0.15    0.26
   0   0 -11    0.08    0.30
   2   0  11    0.13    0.29
  -2   0 -11    0.16    0.37
  -4   0 -11    0.68    0.42
   4   0  11    0.08    0.32
  -9  -1  11   58.11    2.44
   9  -1 -11   54.13    2.48
  -9   1  11   54.07    2.31
   9   1 -11   54.93    2.51
   7  -1 -11   48.27    2.21
  -7  -1  11   42.94    2.06
   7   1 -11   45.87    2.16
  -7   1  11   46.55    2.09
   5  -1 -11   29.41    1.65
  -5  -1  11   30.11    1.72
  -5   1  11   29.35    1.62
   5   1 -11   27.85    1.66
   3  -1 -11  100.57    3.18
  -3  -1  11  102.37    3.20
   3   1 -11   93.42    3.20
  -3   1  11   99.96    3.22
  -1  -1  11   27.02    1.59
   1  -1 -11   28.72    1.60
  -1   1  11   27.35    1.57
   1   1 -11   27.82    1.64
   1  -1  11   73.61    2.74
  -1  -1 -11   66.32    2.80
  -1   1 -11   70.97    2.77
   1   1  11   74.38    2.75
   3  -1  11    4.16    0.77
  -3   1 -11    2.89    0.72
   3   1  11    2.10    0.65
  10  -2 -11   55.68    2.55
 -10   2  11   57.63    2.41
  10   2 -11   53.50    2.87
  -8  -2  11    3.10    0.71
   8  -2 -11    2.61    0.63
  -8   2  11    2.93    0.64
   8   2 -11    2.28    0.60
   6  -2 -11   32.28    1.74
  -6  -2  11   28.60    1.74
   6   2 -11   25.52    1.63
  -6   2  11   28.71    1.60
  -4  -2  11    5.13    0.89
  -4  -2  11    5.69    0.90
   4  -2 -11    5.67    0.88
  -4   2  11    4.03    0.71
   4   2 -11    5.05    0.84
  -2  -2  11   72.46    2.74
   2   2 -11   69.80    2.73
   0  -2  11    2.31    0.62
   0   2 -11    1.85    0.66
   0   2  11    2.17    0.59
   2  -2  11   50.79    2.29
   2   2  11   52.10    2.34
  -2   2 -11   52.56    2.42
  -9  -3  11   37.43    2.24
   9   3 -11   35.89    2.03
  -7  -3  11   29.09    1.79
   7   3 -11   28.40    1.76
  -5  -3  11   19.58    1.38
   5   3 -11   19.12    1.45
  -3  -3  11   67.32    2.70
   3   3 -11   67.79    2.73
  -1  -3  11   17.20    1.35
   1   3 -11   16.75    1.39
   1  -3  11   44.01    2.19
  -1   3 -11   45.38    2.27
   1   3  11   44.04    2.16
   6   4 -11    0.81    0.49
  -4  -4  11    0.56    0.41
   4   4 -11   -0.21    0.35
  -2  -4  11    0.81    0.48
   2   4 -11    0.44    0.45
   0  -4  11   -0.23    0.31
   0   4 -11    0.13    0.45
  -8   0  12   56.90    2.83
   8   0 -12   57.12    2.90
   6   0 -12    2.40    0.63
  -6   0  12    2.22    0.62
  -4   0  12   54.50    2.48
   4   0 -12   52.19    2.36
  -2   0  12    1.01    0.50
   2   0 -12    0.33    0.38
   0   0 -12  117.24    3.79
   0   0  12  121.81    3.77
   7  -1 -12   19.23    1.46
  -7  -1  12   19.05    1.47
  -7   1  12   19.82    1.45
   7   1 -12   16.31    1.37
  -5  -1  12   48.96    2.35
   5  -1 -12   47.44    2.24
   5   1 -12   48.75    2.31
  -5   1  12   46.83    2.23
  -3  -1  12    2.47    0.67
   3  -1 -12    2.00    0.60
   3   1 -12    2.66    0.72
  -1  -1  12   58.31    2.51
   1  -1 -12   59.80    2.51
  -1   1  12   60.50    2.49
   1   1 -12   58.41    2.59
   1   1  12    3.86    0.79
  -1   1 -12    2.54    0.69
  -6  -2  12    0.51    0.39
   6  -2 -12   -0.16    0.30
  -6   2  12    0.03    0.32
   6   2 -12    0.00    0.31
   4   2 -12    0.48    0.42
  -2  -2  12    0.24    0.39
   2   2 -12   -0.49    0.30
   0   2  12    0.91    0.45
  -3  -3  12    3.96    0.91
   0   0   0    0.00    0.00
;
_shelx_hkl_checksum              84585
#END Tags that were not found in dictionaries
loop_
_space_group_symop_operation_xyz
'x, y, z'
'-x, y, -z+1/2'
'x+1/2, y+1/2, z'
'-x+1/2, y+1/2, -z+1/2'
'-x, -y, -z'
'x, -y, z-1/2'
'-x+1/2, -y+1/2, -z'
'x+1/2, -y+1/2, z-1/2'
loop_
_atom_site_label
_atom_site_type_symbol
_atom_site_fract_x
_atom_site_fract_y
_atom_site_fract_z
_atom_site_U_iso_or_equiv
_atom_site_adp_type
_atom_site_occupancy
_atom_site_site_symmetry_order
_atom_site_calc_flag
_atom_site_refinement_flags_posn
_atom_site_refinement_flags_adp
_atom_site_refinement_flags_occupancy
Pd1 Pd 0.12685(2) 0.13136(2) 0.00348(2) 0.00922(6) Uani 1 1 d . . .
Al1 Al 0.0000 0.11899(15) 0.2500 0.00984(15) Uani 1 2 d S T P
Ca3 Ca 0.34990(4) 0.13010(6) 0.35067(5) 0.01061(8) Uani 1 1 d . . .
loop_
_atom_site_aniso_label
_atom_site_aniso_U_11
_atom_site_aniso_U_22
_atom_site_aniso_U_33
_atom_site_aniso_U_23
_atom_site_aniso_U_13
_atom_site_aniso_U_12
Pd1 0.00828(9) 0.00946(9) 0.00986(8) -0.00015(5) 0.00181(5) -0.00101(5)
Al1 0.0104(4) 0.0099(4) 0.0095(3) 0.000 0.0026(3) 0.000
Ca3 0.00982(17) 0.00970(16) 0.01191(15) 0.00026(12) 0.00147(12) -0.00061(12)
loop_
_atom_type_symbol
_atom_type_description
_atom_type_scat_dispersion_real
_atom_type_scat_dispersion_imag
_atom_type_scat_source
Al Al 0.0645 0.0514 'International Tables Vol C Tables 4.2.6.8 and 6.1.1.4'
Ca Ca 0.2262 0.3064 'International Tables Vol C Tables 4.2.6.8 and 6.1.1.4'
Pd Pd -0.9988 1.0072 'International Tables Vol C Tables 4.2.6.8 and 6.1.1.4'
loop_
_geom_angle_atom_site_label_1
_geom_angle_atom_site_label_2
_geom_angle_atom_site_label_3
_geom_angle
_geom_angle_site_symmetry_1
_geom_angle_site_symmetry_3
Al1 Pd1 Al1 108.641(15) . 5
Al1 Pd1 Pd1 127.91(2) . 7
Al1 Pd1 Pd1 123.44(2) 5 7
Al1 Pd1 Pd1 54.80(2) . 5
Al1 Pd1 Pd1 53.845(19) 5 5
Pd1 Pd1 Pd1 177.096(10) 7 5
Al1 Pd1 Ca3 76.03(2) . 4
Al1 Pd1 Ca3 142.971(19) 5 4
Pd1 Pd1 Ca3 63.828(15) 7 4
Pd1 Pd1 Ca3 118.862(16) 5 4
Al1 Pd1 Ca3 75.15(2) . 8_455
Al1 Pd1 Ca3 72.59(3) 5 8_455
Pd1 Pd1 Ca3 119.386(18) 7 8_455
Pd1 Pd1 Ca3 61.549(17) 5 8_455
Ca3 Pd1 Ca3 73.44(2) 4 8_455
Al1 Pd1 Ca3 72.94(2) . 4_545
Al1 Pd1 Ca3 74.73(2) 5 4_545
Pd1 Pd1 Ca3 117.487(17) 7 4_545
Pd1 Pd1 Ca3 61.507(16) 5 4_545
Ca3 Pd1 Ca3 138.157(18) 4 4_545
Ca3 Pd1 Ca3 123.056(12) 8_455 4_545
Al1 Pd1 Ca3 74.306(18) . .
Al1 Pd1 Ca3 144.40(2) 5 .
Pd1 Pd1 Ca3 63.30(2) 7 .
Pd1 Pd1 Ca3 118.08(2) 5 .
Ca3 Pd1 Ca3 72.627(11) 4 .
Ca3 Pd1 Ca3 138.645(19) 8_455 .
Ca3 Pd1 Ca3 72.444(11) 4_545 .
Al1 Pd1 Ca3 145.705(19) . 7
Al1 Pd1 Ca3 72.08(2) 5 7
Pd1 Pd1 Ca3 62.54(3) 7 7
Pd1 Pd1 Ca3 116.02(3) 5 7
Ca3 Pd1 Ca3 84.052(13) 4 7
Ca3 Pd1 Ca3 72.52(3) 8_455 7
Ca3 Pd1 Ca3 135.921(12) 4_545 7
Ca3 Pd1 Ca3 125.843(16) . 7
Al1 Pd1 Ca3 142.45(2) . 6
Al1 Pd1 Ca3 73.33(2) 5 6
Pd1 Pd1 Ca3 61.943(17) 7 6
Pd1 Pd1 Ca3 115.357(18) 5 6
Ca3 Pd1 Ca3 125.771(11) 4 6
Ca3 Pd1 Ca3 136.368(17) 8_455 6
Ca3 Pd1 Ca3 71.623(18) 4_545 6
Ca3 Pd1 Ca3 83.537(19) . 6
Ca3 Pd1 Ca3 71.64(2) 7 6
Pd1 Al1 Pd1 176.75(4) . 2
Pd1 Al1 Pd1 71.360(15) . 5
Pd1 Al1 Pd1 110.60(2) 2 5
Pd1 Al1 Pd1 110.60(2) . 6_556
Pd1 Al1 Pd1 71.361(15) 2 6_556
Pd1 Al1 Pd1 110.82(4) 5 6_556
Pd1 Al1 Ca3 121.65(3) . 3_445
Pd1 Al1 Ca3 61.505(17) 2 3_445
Pd1 Al1 Ca3 61.94(2) 5 3_445
Pd1 Al1 Ca3 61.26(2) 6_556 3_445
Pd1 Al1 Ca3 61.504(17) . 4_545
Pd1 Al1 Ca3 121.65(3) 2 4_545
Pd1 Al1 Ca3 61.26(2) 5 4_545
Pd1 Al1 Ca3 61.94(2) 6_556 4_545
Ca3 Al1 Ca3 66.19(3) 3_445 4_545
Pd1 Al1 Ca3 119.23(2) . 2
Pd1 Al1 Ca3 60.70(2) 2 2
Pd1 Al1 Ca3 61.27(2) 5 2
Pd1 Al1 Ca3 120.12(3) 6_556 2
Ca3 Al1 Ca3 65.256(14) 3_445 2
Ca3 Al1 Ca3 116.74(2) 4_545 2
Pd1 Al1 Ca3 60.71(2) . .
Pd1 Al1 Ca3 119.23(2) 2 .
Pd1 Al1 Ca3 120.12(3) 5 .
Pd1 Al1 Ca3 61.27(2) 6_556 .
Ca3 Al1 Ca3 116.74(2) 3_445 .
Ca3 Al1 Ca3 65.256(14) 4_545 .
Ca3 Al1 Ca3 177.85(3) 2 .
Pd1 Al1 Ca3 118.36(2) . 7_556
Pd1 Al1 Ca3 60.079(16) 2 7_556
Pd1 Al1 Ca3 167.82(2) 5 7_556
Pd1 Al1 Ca3 59.92(2) 6_556 7_556
Ca3 Al1 Ca3 105.880(16) 3_445 7_556
Ca3 Al1 Ca3 115.42(2) 4_545 7_556
Ca3 Al1 Ca3 114.96(3) 2 7_556
Ca3 Al1 Ca3 64.04(3) . 7_556
Pd1 Al1 Ca3 60.079(16) . 8_455
Pd1 Al1 Ca3 118.36(2) 2 8_455
Pd1 Al1 Ca3 59.92(2) 5 8_455
Pd1 Al1 Ca3 167.82(2) 6_556 8_455
Ca3 Al1 Ca3 115.42(2) 3_445 8_455
Ca3 Al1 Ca3 105.880(16) 4_545 8_455
Ca3 Al1 Ca3 64.04(3) 2 8_455
Ca3 Al1 Ca3 114.96(3) . 8_455
Ca3 Al1 Ca3 130.39(3) 7_556 8_455
Pd1 Al1 Ca3 59.378(16) . 4
Pd1 Al1 Ca3 117.46(3) 2 4
Pd1 Al1 Ca3 118.471(17) 5 4
Pd1 Al1 Ca3 119.13(2) 6_556 4
Ca3 Al1 Ca3 178.845(17) 3_445 4
Ca3 Al1 Ca3 114.96(2) 4_545 4
Ca3 Al1 Ca3 113.88(2) 2 4
Ca3 Al1 Ca3 64.110(14) . 4
Ca3 Al1 Ca3 73.704(19) 7_556 4
Ca3 Al1 Ca3 64.44(2) 8_455 4
Pd1 Al1 Ca3 117.46(3) . 3_455
Pd1 Al1 Ca3 59.377(16) 2 3_455
Pd1 Al1 Ca3 119.13(2) 5 3_455
Pd1 Al1 Ca3 118.471(17) 6_556 3_455
Ca3 Al1 Ca3 114.96(2) 3_445 3_455
Ca3 Al1 Ca3 178.845(17) 4_545 3_455
Ca3 Al1 Ca3 64.110(14) 2 3_455
Ca3 Al1 Ca3 113.88(2) . 3_455
Ca3 Al1 Ca3 64.44(2) 7_556 3_455
Ca3 Al1 Ca3 73.704(19) 8_455 3_455
Ca3 Al1 Ca3 63.88(3) 4 3_455
Pd1 Ca3 Pd1 106.56(2) 4_545 8_556
Pd1 Ca3 Pd1 138.157(18) 4_545 4
Pd1 Ca3 Pd1 56.945(12) 8_556 4
Pd1 Ca3 Pd1 107.635(14) 4_545 .
Pd1 Ca3 Pd1 138.46(2) 8_556 .
Pd1 Ca3 Pd1 107.294(14) 4 .
Pd1 Ca3 Pd1 136.011(14) 4_545 7
Pd1 Ca3 Pd1 84.73(3) 8_556 7
Pd1 Ca3 Pd1 83.960(15) 4 7
Pd1 Ca3 Pd1 54.156(16) . 7
Pd1 Ca3 Pd1 54.228(11) 4_545 6_556
Pd1 Ca3 Pd1 136.369(17) 8_556 6_556
Pd1 Ca3 Pd1 108.376(18) 4 6_556
Pd1 Ca3 Pd1 83.666(19) . 6_556
Pd1 Ca3 Pd1 137.67(2) 7 6_556
Pd1 Ca3 Al1 149.900(18) 4_545 3
Pd1 Ca3 Al1 46.144(12) 8_556 3
Pd1 Ca3 Al1 45.553(16) 4 3
Pd1 Ca3 Al1 94.093(14) . 3
Pd1 Ca3 Al1 45.976(14) 7 3
Pd1 Ca3 Al1 151.868(16) 6_556 3
Pd1 Ca3 Al1 93.34(2) 4_545 .
Pd1 Ca3 Al1 152.24(2) 8_556 .
Pd1 Ca3 Al1 95.33(2) 4 .
Pd1 Ca3 Al1 44.99(2) . .
Pd1 Ca3 Al1 94.37(3) 7 .
Pd1 Ca3 Al1 45.393(16) 6_556 .
Al1 Ca3 Al1 116.74(2) 3 .
Pd1 Ca3 Al1 94.56(2) 4_545 7_556
Pd1 Ca3 Al1 44.77(2) 8_556 7_556
Pd1 Ca3 Al1 45.346(14) 4 7_556
Pd1 Ca3 Al1 150.25(2) . 7_556
Pd1 Ca3 Al1 120.10(2) 7 7_556
Pd1 Ca3 Al1 94.09(2) 6_556 7_556
Al1 Ca3 Al1 74.120(16) 3 7_556
Al1 Ca3 Al1 115.96(3) . 7_556
Pd1 Ca3 Al1 44.595(15) 4_545 3_545
Pd1 Ca3 Al1 93.855(18) 8_556 3_545
Pd1 Ca3 Al1 150.791(18) 4 3_545
Pd1 Ca3 Al1 94.189(14) . 3_545
Pd1 Ca3 Al1 93.35(2) 7 3_545
Pd1 Ca3 Al1 93.17(2) 6_556 3_545
Al1 Ca3 Al1 114.96(2) 3 3_545
Al1 Ca3 Al1 113.88(2) . 3_545
Al1 Ca3 Al1 115.56(2) 7_556 3_545
Pd1 Ca3 Ca3 97.469(19) 4_545 7_556
Pd1 Ca3 Ca3 99.16(2) 8_556 7_556
Pd1 Ca3 Ca3 54.683(11) 4 7_556
Pd1 Ca3 Ca3 99.07(2) . 7_556
Pd1 Ca3 Ca3 123.11(2) 7 7_556
Pd1 Ca3 Ca3 53.694(18) 6_556 7_556
Al1 Ca3 Ca3 99.42(2) 3 7_556
Al1 Ca3 Ca3 58.34(2) . 7_556
Al1 Ca3 Ca3 57.621(18) 7_556 7_556
Al1 Ca3 Ca3 142.063(18) 3_545 7_556
Pd1 Ca3 Ca3 53.936(18) 4_545 4_545
Pd1 Ca3 Ca3 151.115(18) 8_556 4_545
Pd1 Ca3 Ca3 151.94(2) 4 4_545
Pd1 Ca3 Ca3 53.699(17) . 4_545
Pd1 Ca3 Ca3 96.39(2) 7 4_545
Pd1 Ca3 Ca3 54.035(15) 6_556 4_545
Al1 Ca3 Ca3 142.361(19) 3 4_545
Al1 Ca3 Ca3 56.62(2) . 4_545
Al1 Ca3 Ca3 143.52(2) 7_556 4_545
Al1 Ca3 Ca3 57.262(16) 3_545 4_545
Ca3 Ca3 Ca3 104.15(2) 7_556 4_545
loop_
_geom_bond_atom_site_label_1
_geom_bond_atom_site_label_2
_geom_bond_distance
_geom_bond_site_symmetry_2
Pd1 Al1 2.5130(6) .
Pd1 Al1 2.5432(8) 5
Pd1 Pd1 2.8319(5) 7
Pd1 Pd1 2.9492(5) 5
Pd1 Ca3 3.0802(7) 4
Pd1 Ca3 3.0925(8) 8_455
Pd1 Ca3 3.0937(7) 4_545
Pd1 Ca3 3.1000(12) .
Pd1 Ca3 3.1212(6) 7
Pd1 Ca3 3.1326(7) 6
Al1 Pd1 2.5130(6) 2
Al1 Pd1 2.5432(8) 5
Al1 Pd1 2.5432(8) 6_556
Al1 Ca3 3.3654(10) 3_445
Al1 Ca3 3.3654(10) 4_545
Al1 Ca3 3.4220(9) 2
Al1 Ca3 3.4221(9) .
Al1 Ca3 3.4489(10) 7_556
Al1 Ca3 3.4489(10) 8_455
Al1 Ca3 3.4735(10) 4
Al1 Ca3 3.4735(10) 3_455
Ca3 Pd1 3.0802(7) 4_545
Ca3 Pd1 3.0925(8) 8_556
Ca3 Pd1 3.0938(7) 4
Ca3 Pd1 3.1211(6) 7
Ca3 Pd1 3.1325(7) 6_556
Ca3 Al1 3.3654(10) 3
Ca3 Al1 3.4488(10) 7_556
Ca3 Al1 3.4735(10) 3_545
Ca3 Ca3 3.6433(11) 7_556
Ca3 Ca3 3.6600(8) 4_545
