#------------------------------------------------------------------------------
#$Date: 2016-03-21 01:21:50 +0200 (Mon, 21 Mar 2016) $
#$Revision: 178377 $
#$URL: svn://www.crystallography.net/cod/cif/4/00/21/4002192.cif $
#------------------------------------------------------------------------------
#
# This file is available in the Crystallography Open Database (COD),
# http://www.crystallography.net/
#
# All data on this site have been placed in the public domain by the
# contributors.
#
data_4002192
loop_
_publ_author_name
'Rai, Binod K.'
'Oswald, Iain W. H.'
'Wang, Jiakui K.'
'McCandless, Gregory T.'
'Chan, Julia Y.'
'Morosan, E.'
_publ_section_title
;
 Superconductivity in Single Crystals of Lu3T4Ge13--x(T= Co, Rh, Os) and
 Y3T4Ge13--x(T= Ir, Rh, Os)
;
_journal_issue                   7
_journal_name_full               'Chemistry of Materials'
_journal_page_first              2488
_journal_paper_doi               10.1021/cm504658h
_journal_volume                  27
_journal_year                    2015
_chemical_formula_sum            'Ge13 Lu3 Rh4'
_chemical_formula_weight         1880.22
_space_group_crystal_system      cubic
_space_group_IT_number           223
_space_group_name_Hall           '-P 4n 2 3'
_space_group_name_H-M_alt        'P m -3 n'
_symmetry_space_group_name_Hall  '-P 4n 2 3'
_symmetry_space_group_name_H-M   'P m -3 n'
_audit_creation_method           SHELXL-2014
_audit_update_record
;
2014-10-31 # Formatted by publCIF
;
_cell_angle_alpha                90
_cell_angle_beta                 90
_cell_angle_gamma                90
_cell_formula_units_Z            2
_cell_length_a                   8.8659(7)
_cell_length_b                   8.8659(5)
_cell_length_c                   8.8659(5)
_cell_measurement_reflns_used    913
_cell_measurement_temperature    298(2)
_cell_measurement_theta_max      30.46
_cell_measurement_theta_min      3.25
_cell_volume                     696.90(8)
_computing_cell_refinement       'Bruker SAINT'
_computing_data_collection       'Bruker APEX2'
_computing_data_reduction        'Bruker SAINT'
_computing_molecular_graphics    CrystalMaker
_computing_publication_material  'publCIF (Westrip, 2010)'
_computing_structure_refinement  'SHELXL-2014 (Sheldrick, 2014)'
_computing_structure_solution    'SHELXS Direct Methods (Sheldrick, 2013)'
_diffrn_ambient_temperature      298(2)
_diffrn_measured_fraction_theta_full 1.000
_diffrn_measured_fraction_theta_max 0.995
_diffrn_measurement_device_type  'Bruker Kappa D8 Quest CMOS'
_diffrn_measurement_method       '\f scan'
_diffrn_radiation_monochromator  'HELIOS optics'
_diffrn_radiation_type           MoK\a
_diffrn_radiation_wavelength     0.71073
_diffrn_reflns_av_R_equivalents  0.0510
_diffrn_reflns_av_unetI/netI     0.0317
_diffrn_reflns_Laue_measured_fraction_full 1.000
_diffrn_reflns_Laue_measured_fraction_max 0.995
_diffrn_reflns_limit_h_max       10
_diffrn_reflns_limit_h_min       -9
_diffrn_reflns_limit_k_max       10
_diffrn_reflns_limit_k_min       -7
_diffrn_reflns_limit_l_max       12
_diffrn_reflns_limit_l_min       -9
_diffrn_reflns_number            2019
_diffrn_reflns_point_group_measured_fraction_full 1.000
_diffrn_reflns_point_group_measured_fraction_max 0.995
_diffrn_reflns_theta_full        25.242
_diffrn_reflns_theta_max         30.465
_diffrn_reflns_theta_min         3.250
_diffrn_source                   'I\mS microfocus'
_exptl_absorpt_coefficient_mu    53.121
_exptl_absorpt_correction_T_max  0.7461
_exptl_absorpt_correction_T_min  0.2725
_exptl_absorpt_correction_type   multi-scan
_exptl_absorpt_process_details   SADABS(2014)
_exptl_crystal_colour            Silver
_exptl_crystal_density_diffrn    8.960
_exptl_crystal_description       Fragment
_exptl_crystal_F_000             1618
_exptl_crystal_size_max          0.12
_exptl_crystal_size_mid          0.10
_exptl_crystal_size_min          0.04
_refine_diff_density_max         2.611
_refine_diff_density_min         -1.821
_refine_diff_density_rms         0.352
_refine_ls_extinction_coef       0.00068(13)
_refine_ls_extinction_expression Fc^*^=kFc[1+0.001xFc^2^\l^3^/sin(2\q)]^-1/4^
_refine_ls_extinction_method     SHELXL
_refine_ls_goodness_of_fit_ref   1.130
_refine_ls_hydrogen_treatment    undef
_refine_ls_matrix_type           full
_refine_ls_number_constraints    0
_refine_ls_number_parameters     16
_refine_ls_number_reflns         211
_refine_ls_number_restraints     0
_refine_ls_restrained_S_all      1.130
_refine_ls_R_factor_all          0.0378
_refine_ls_R_factor_gt           0.0289
_refine_ls_shift/su_max          0.000
_refine_ls_shift/su_mean         0.000
_refine_ls_structure_factor_coef Fsqd
_refine_ls_weighting_details
'w=1/[\s^2^(Fo^2^)+(0.0119P)^2^+21.2274P] where P=(Fo^2^+2Fc^2^)/3'
_refine_ls_weighting_scheme      calc
_refine_ls_wR_factor_gt          0.0571
_refine_ls_wR_factor_ref         0.0590
_reflns_Friedel_coverage         0.000
_reflns_number_gt                188
_reflns_number_total             211
_reflns_threshold_expression     'I > 2\s(I)'
_cod_data_source_file            Lu3Rh4Ge13_CIF.cif
_cod_data_source_block           shelx
_cod_depositor_comments
'Adding full bibliography for 4002190--4002195.cif.'
_cod_original_cell_volume        696.90(17)
_cod_database_code               4002192
#BEGIN Tags that were not found in dictionaries:
_publcif_datablock.id            {ff9adc97-e1f9-4016-8756-d3a9d9d0c165}
_shelx_space_group_comment
;
The symmetry employed for this shelxl refinement is uniquely defined
by the following loop, which should always be used as a source of
symmetry information in preference to the above space-group names.
They are only intended as comments.
;
_shelxl_version_number           2014-3
_shelx_res_file
;
TITL scd0269_final in Pm-3n
CELL 0.71073   8.86590   8.86590   8.86590  90.0000  90.0000  90.0000
ZERR    2.00   0.00072   0.00050   0.00050   0.0000   0.0000   0.0000
LATT  1
rem xtal dimensions:  0.04x0.10x0.12
REM VOLUME = 696.89(17)
SYMM -X, -Y, Z
SYMM -X, Y, -Z
SYMM X, -Y, -Z
SYMM Z, X, Y
SYMM Z, -X, -Y
SYMM -Z, -X, Y
SYMM -Z, X, -Y
SYMM Y, Z, X
SYMM -Y, Z, -X
SYMM Y, -Z, -X
SYMM -Y, -Z, X
SYMM 0.5+Y, 0.5+X, 0.5-Z
SYMM 0.5-Y, 0.5-X, 0.5-Z
SYMM 0.5+Y, 0.5-X, 0.5+Z
SYMM 0.5-Y, 0.5+X, 0.5+Z
SYMM 0.5+X, 0.5+Z, 0.5-Y
SYMM 0.5-X, 0.5+Z, 0.5+Y
SYMM 0.5-X, 0.5-Z, 0.5-Y
SYMM 0.5+X, 0.5-Z, 0.5+Y
SYMM 0.5+Z, 0.5+Y, 0.5-X
SYMM 0.5+Z, 0.5-Y, 0.5+X
SYMM 0.5-Z, 0.5+Y, 0.5+X
SYMM 0.5-Z, 0.5-Y, 0.5-X
SFAC GE RH LU
UNIT 26 8 6
TEMP 25
acta
L.S. 40
BOND
FMAP 2
PLAN 20
EADP GE2A GE2B
WGHT    0.011900   21.227428
EXTI    0.000677
FVAR       0.04844   0.36636
LU1   3    0.250000    0.500000    0.000000    10.12500    0.00966    0.00647 =
         0.00647    0.00000    0.00000    0.00000
RH1   2    0.250000    0.250000    0.250000    10.16667    0.00368    0.00368 =
         0.00368   -0.00004   -0.00004   -0.00004
GE1   1    0.000000    0.000000    0.000000    10.04167    0.02150    0.02150 =
         0.02150    0.00000    0.00000    0.00000
GE2A  1    0.000000    0.266913    0.132341    20.50000    0.00607    0.02486 =
         0.01374    0.00987    0.00000    0.00000
GE2B  1    0.000000    0.333787    0.155271   -20.50000    0.00607    0.02486 =
         0.01374    0.00987    0.00000    0.00000

HKLF 4

REM  scd0269_final in Pm-3n
REM R1 =  0.0289 for     188 Fo > 4sig(Fo)  and  0.0378 for all     211 data
REM     16 parameters refined using      0 restraints

END

WGHT      0.0119     21.2146

REM Highest difference peak  2.611,  deepest hole -1.821,  1-sigma level  0.352
Q1    1   0.0000  0.1196  0.0000  10.25000  0.05    2.61
Q2    1   0.0000  0.3042  0.0000  10.25000  0.05    1.52
Q3    1   0.0000  0.5000  0.2500  10.12500  0.05    1.35
Q4    1   0.0000  0.2501  0.0000  10.25000  0.05    1.31
Q5    1   0.2238  0.5000  0.1301  10.50000  0.05    1.20
Q6    1   0.0000  0.4541  0.0000  10.25000  0.05    1.16
Q7    1   0.0000  0.2498  0.2682  10.50000  0.05    1.11
Q8    1   0.2574  0.2475  0.1161  11.00000  0.05    1.11
Q9    1   0.0000  0.1491  0.1100  10.50000  0.05    1.09
Q10   1   0.0446  0.5000  0.0000  10.25000  0.05    1.01
Q11   1   0.0000  0.5000  0.1636  10.25000  0.05    0.97
Q12   1   0.0000  0.5000  0.0000  10.12500  0.05    0.88
Q13   1   0.0000  0.1833  0.1298  10.50000  0.05    0.87
Q14   1   0.1108  0.3280  0.0000  10.50000  0.05    0.84
Q15   1  -0.0690  0.2520  0.2458  11.00000  0.05    0.82
Q16   1   0.1516  0.3366  0.1612  11.00000  0.05    0.82
Q17   1   0.0000  0.2319  0.1810  10.50000  0.05    0.80
Q18   1   0.0000  0.5000  0.1248  10.25000  0.05    0.80
Q19   1   0.0000  0.3553  0.0000  10.25000  0.05    0.79
Q20   1   0.2454  0.3424  0.0000  10.50000  0.05    0.73
;
_shelx_res_checksum              5307
_shelx_hkl_file
;
   0   0   1    0.08    0.06
  -1   0   1    7.98    0.49
   0  -1   1    7.14    0.53
   0   1  -1    7.80    0.53
   1   0  -1    7.50    0.48
   1   0   1    8.37    0.44
  -1  -1   1   -0.70    0.13
  -1   1  -1   -0.77    0.12
   1  -1   1   -0.85    0.11
   1   1  -1   -0.85    0.10
   0   0  -2   28.33    1.59
  -2   0   1   45.44    2.18
   0   1  -2   41.49    2.29
   2   0  -1   44.33    2.20
  -2   1   0   39.92    2.18
  -1   0  -2   43.26    2.17
   0   2  -1   43.11    2.34
   1   0  -2   42.23    2.26
   1   0   2   41.10    2.21
  -2  -1   1   13.41    0.81
  -2   1  -1   13.51    0.76
  -2   1   1   13.02    0.78
  -1  -1   2   13.44    1.01
  -1   1  -2   15.08    0.88
  -1   2  -1   13.07    0.95
   1  -1   2   11.70    0.96
   1   1  -2   13.95    0.93
   1   2  -1   12.53    0.92
   2  -1   1   13.00    0.79
   2   1  -1   13.13    0.80
   0  -2   2    8.59    0.82
   0   2  -2    8.35    0.79
   2   0  -2    9.01    0.70
   2   0   2    9.33    0.62
  -2  -1   2    0.20    0.23
  -2   1  -2    0.00    0.12
  -2   1   2    0.01    0.17
  -2   2  -1    0.38    0.24
  -1  -2   2   -0.01    0.25
  -1   2  -2    0.10    0.26
   1  -2   2    0.30    0.31
   1   2  -2    0.33    0.28
   2  -2   1    0.64    0.25
   2  -1  -2    0.43    0.23
   2  -1   2    0.36    0.22
   2   1  -2    0.27    0.23
   2   2  -1    0.22    0.21
  -2  -2   2  495.92   25.46
  -2   2  -2  531.64   25.43
  -2   2   2  536.23   25.36
   2  -2   2  501.95   25.44
   2   2  -2  536.81   25.46
   0   0  -3    0.00    0.22
   0   0   3   -0.13    0.23
  -3   0   1    0.76    0.14
   0  -1   3    0.99    0.33
   0   1  -3    0.62    0.27
   0   1   3    0.78    0.26
   3   0  -1    0.69    0.19
   1   0   3    0.68    0.28
   1   0  -3    0.92    0.29
   0   3  -1    0.66    0.39
  -1   0   3    0.54    0.27
  -1   0  -3    0.57    0.20
   1   1   3   -0.83    0.21
   3   1  -1   -0.03    0.18
   3  -1   1   -0.40    0.16
   3  -1  -1   -0.66    0.18
  -3   1   1   -0.87    0.13
  -1  -1   3   -0.62    0.29
  -1   1  -3   -0.70    0.20
  -1   1   3   -0.48    0.21
  -1   3  -1   -0.94    0.31
   1  -1  -3   -0.66    0.22
   1  -1   3   -0.45    0.26
   1   1  -3   -0.90    0.28
   1   3  -1   -0.79    0.31
   3   0   2  585.00   26.70
   0  -2   3  524.54   26.96
   0   2  -3  531.00   26.94
   3   0  -2  582.90   26.82
   2   0  -3  584.18   26.89
   2   0   3  565.95   26.83
   0   3  -2  541.99   26.99
  -2   0   3  580.12   26.88
   0  -3   2  478.52   26.95
  -3   2   0  527.35   26.78
   1   2  -3  127.74    6.71
  -2  -1   3  133.37    6.68
   3  -1   2  130.18    6.53
   3   1  -2  137.42    6.59
   2   3  -1  133.95    6.68
  -1   2   3  126.53    6.58
   1  -2   3  129.74    6.73
  -1  -3   2  126.05    6.74
  -3   1   2  125.81    6.53
  -2   1  -3  127.92    6.52
  -3   2  -1  139.64    6.55
   2   1   3  135.65    6.58
  -1   3  -2  131.03    6.75
   2  -1  -3  131.23    6.63
  -2   1   3  127.15    6.61
  -2   3  -1  132.89    6.72
   3  -1  -2  134.76    6.59
   1  -3   2  126.67    6.74
   1   3  -2  134.58    6.75
  -1   2  -3  131.44    6.69
   2  -1   3  123.23    6.61
   2   1  -3  137.81    6.68
  -3   2   1  135.41    6.50
   3  -2   1  130.66    6.58
   3   2  -1  137.72    6.55
  -3  -2   2    0.17    0.25
  -3   2  -2    0.04    0.21
  -3   2   2   -0.12    0.15
  -2  -2   3   -0.31    0.28
  -2   2  -3    0.22    0.29
  -2   2   3    0.30    0.20
  -2   3  -2    0.45    0.33
   2  -3   2    0.27    0.32
   2  -2   3    0.25    0.33
   2   2  -3    0.01    0.29
   2   3  -2    0.29    0.30
   3  -2   2    0.05    0.25
   3   2  -2   -0.04    0.21
  -3   0   3  122.11    6.10
   0  -3   3  113.57    6.28
   0   3  -3  121.48    6.29
   3   0  -3  123.49    6.13
  -3  -1   3   -0.18    0.25
  -3   1  -3   -0.23    0.13
  -3   1   3   -0.10    0.23
  -3   3  -1   -0.41    0.31
  -1  -3   3   -0.28    0.36
  -1   3  -3   -0.30    0.40
   1  -3   3   -0.24    0.40
   1   3  -3    0.12    0.38
   3  -1  -3   -0.13    0.28
   3  -1   3    0.02    0.27
   3   1  -3   -0.23    0.31
   3   3  -1   -0.28    0.28
  -3  -2   3   16.80    1.22
  -3   2  -3   16.48    1.07
  -3   2   3   16.38    1.10
  -3   3  -2   20.83    1.25
  -3   3   2   17.58    1.05
  -2  -3   3   18.49    1.34
  -2   3  -3   19.73    1.33
  -2   3   3   15.84    1.08
   2  -3   3   17.09    1.32
   3  -3   2   17.11    1.23
   3  -2   3   15.73    1.18
   3   2  -3   17.80    1.23
   3   3  -2   17.38    1.19
  -3  -3   3    0.11    0.38
  -3   3  -3    0.29    0.37
  -3   3   3    0.13    0.24
   3  -3   3    0.20    0.38
   0   0  -4  947.20   47.20
   0   0   4  961.71   47.28
   4   0   0 1000.00   47.00
   0  -1   4   73.13    4.13
   0   1  -4   77.87    4.09
   0   1   4   75.93    4.07
   4   0  -1   87.27    3.88
   1   0  -4   76.10    4.07
   1   0   4   72.62    4.07
   0   4  -1   76.01    4.25
  -1   0  -4   77.25    3.95
  -1   0   4   76.31    4.10
   1   1   4    7.32    0.73
  -1   4  -1    3.07    0.64
   1  -1  -4    6.83    0.69
   1  -1   4    4.37    0.64
  -1  -1   4    5.94    0.73
  -1   1  -4    7.41    0.69
   4   1  -1    5.40    0.45
   1   1  -4    6.28    0.79
   4  -1   1    5.70    0.44
   1   4  -1    4.29    0.70
   4  -1  -1    5.53    0.53
  -4   1   1    5.19    0.39
  -1   1   4    5.61    0.68
  -2   0   4   87.59    4.65
  -4   2   0   82.59    4.37
  -4   0   2   89.91    4.45
   0  -2   4   90.74    4.78
  -4   2   0   85.77    4.42
   4   0  -2   92.00    4.51
   4   0   2   89.88    4.36
   2   0  -4   91.22    4.67
   2   0   4   85.90    4.62
   0   2  -4   90.97    4.72
   0   2   4   92.45    4.62
   0   4  -2   78.56    4.81
  -2   1  -4   47.87    2.52
  -1   4  -2   46.92    2.85
  -4   2  -1   45.10    2.34
  -1   2   4   47.39    2.62
   1  -2   4   45.23    2.75
   2   1   4   50.20    2.67
   2   4  -1   46.61    2.72
  -4   1   2   48.17    2.47
   4  -1   2   48.00    2.45
   4   1  -2   49.55    2.53
  -4   2  -1   44.99    2.37
  -2  -1   4   50.22    2.73
   4  -1  -2   50.01    2.56
  -4  -1   2   47.46    2.44
   1   4  -2   45.68    2.96
  -2   4  -1   42.13    2.72
  -1   2  -4   47.81    2.69
   4   2  -1   46.76    2.46
   1   2   4   50.30    2.64
  -2   1   4   48.74    2.64
   2   1  -4   49.51    2.84
  -4   2   1   46.47    2.43
   2  -1   4   43.73    2.66
   2   2  -4  226.79   11.17
   2  -2   4  208.45   11.13
  -4   2  -2  214.78   10.79
   2   2   4  226.61   11.05
   4  -2   2  223.17   10.96
   4   2  -2  231.87   10.98
  -2   2  -4  222.14   11.03
  -2   2   4  218.84   11.04
  -2   4  -2  223.67   11.21
  -2  -2   4  213.76   11.16
  -4   2   2  224.99   10.92
   4   0  -3   35.51    1.99
   0  -3   4   32.60    2.24
   0   3  -4   33.38    2.24
   3   0   4   33.87    1.97
   4   0   3   34.05    1.84
  -3   0   4   36.75    2.06
   0  -4   3   29.01    2.18
  -4   3   0   33.91    1.91
  -4   0   3   35.26    1.93
   0   4  -3   35.73    2.32
  -4   1   3    0.83    0.29
  -3  -1   4    1.12    0.42
  -3   1  -4    1.07    0.22
  -4   3  -1    1.14    0.33
   3   4  -1    0.68    0.37
   1  -3   4    0.83    0.52
   1   3  -4    1.65    0.51
   4   1  -3    0.84    0.33
  -1   3   4    1.54    0.36
   3   1   4    0.88    0.35
  -1  -4   3    0.74    0.47
  -1   4  -3    0.45    0.52
   4  -1   3    0.73    0.25
  -1  -3   4    0.84    0.55
   3  -1   4    0.81    0.36
   4   3  -1    1.06    0.30
  -4  -1   3    0.86    0.30
  -4   3   1    1.32    0.25
  -3   4  -1    1.34    0.44
   4  -1  -3    0.70    0.33
  -3   1   4    0.80    0.34
   1   4  -3    0.69    0.56
  -1   3  -4    1.33    0.54
   1  -4   3    0.60    0.48
   3   4  -2   74.57    4.08
   4  -2   3   71.46    3.94
   4   2  -3   75.05    4.00
  -2   3   4   75.52    3.99
   2  -3   4   75.36    4.18
   2   3  -4   80.64    4.20
  -4   3  -2   80.08    3.91
  -3   2  -4   74.25    3.90
  -3  -2   4   79.84    4.12
  -4   2   3   73.28    3.93
  -4   2  -3   70.48    3.76
  -3   4  -2   84.27    4.13
  -2  -3   4   78.75    4.23
  -4   3   2   80.40    3.90
  -4  -2   3   74.61    3.96
  -2   3  -4   78.63    4.13
  -3   2   4   72.42    3.99
   2  -4   3   74.34    4.20
   3  -2   4   71.95    4.04
   4  -3   2   75.36    4.01
   4   3  -2   74.64    3.95
  -4   3  -3  137.77    7.04
  -4   3   3  145.03    7.09
  -3  -3   4  136.43    7.30
  -3   3  -4  130.99    7.13
  -3   3   4  136.09    7.15
  -3   4  -3  152.08    7.36
   3  -4   3  148.01    7.35
   3  -3   4  131.39    7.26
   3   4  -3  158.33    7.36
   4  -3   3  137.53    7.18
   4   3  -3  139.85    7.18
  -4   0   4  380.30   18.99
  -4   4   0  374.87   18.97
   0  -4   4  362.43   19.27
   0   4  -4  379.06   19.27
   4   0  -4  419.91   19.06
   4   0   4  396.83   18.93
  -4  -1   4    0.71    0.39
  -4   1   4    0.76    0.35
  -4   4  -1    0.29    0.38
  -1  -4   4    0.51    0.50
   1  -4   4   -0.13    0.57
   1   4  -4    0.73    0.69
   4  -1   4    1.12    0.36
   4   1  -4    0.15    0.39
   4   1   4    0.73    0.39
   4   4  -1    0.22    0.38
  -4  -2   4    0.03    0.42
  -4   2   4    0.21    0.32
  -4   4  -2    0.69    0.44
  -4   4   2    1.18    0.32
  -2  -4   4    0.82    0.64
  -2   4  -4    1.31    0.61
  -2   4   4    0.46    0.34
   2  -4   4    1.36    0.65
   2   4  -4    0.00    0.59
   4  -2   4    0.27    0.34
   4   2  -4    1.07    0.51
   4   4  -2   -0.18    0.43
  -4  -3   4   -0.03    0.41
  -4   3  -4    0.28    0.31
  -4   3   4    0.26    0.34
  -4   4  -3    0.67    0.45
  -4   4   3   -0.12    0.27
  -3  -4   4    0.72    0.51
  -3   4  -4   -0.08    0.52
  -3   4   4    0.19    0.30
   3  -4   4    0.25    0.49
   4  -4   3    0.09    0.39
   4  -3   4    0.26    0.44
   4   3  -4    0.00    0.44
   4   4  -3   -0.08    0.44
  -4   4  -4  429.76   20.81
  -4   4   4  436.17   20.79
   4  -4   4  403.96   20.91
   4   4  -4  420.16   20.90
   0   0  -5    0.00    0.36
   0   0   5    0.17    0.42
   5   0   0    0.29    0.13
   0  -1   5   33.78    2.16
   0   1  -5   35.65    2.08
   0   1   5   31.97    2.08
   5   0  -1   33.60    1.75
   1   0   5   34.46    2.14
  -1   0  -5   32.93    1.90
  -1   0   5   32.27    2.08
   0   5  -1   28.91    2.22
   1   0  -5   31.45    2.05
   1  -1   5    0.41    0.51
  -1  -1   5   -0.65    0.37
  -1   1   5   -0.09    0.29
  -1   5  -1   -0.46    0.59
   1  -1  -5    0.03    0.37
   5   1  -1   -0.15    0.19
   1   1  -5    0.53    0.45
   5  -1  -1   -0.19    0.22
   5  -1   1   -0.30    0.19
   1   1   5    0.21    0.43
   0  -2   5   97.32    5.40
   0   2   5   98.06    5.25
   5   0  -2  103.45    5.05
   2   0   5   96.74    5.28
   0   5  -2   98.23    5.50
   2   0  -5  104.01    5.30
  -2   0   5   99.03    5.29
  -2   1  -5   23.57    1.58
   5  -1   2   25.75    1.44
   5   1  -2   27.67    1.53
   2  -1  -5   25.81    1.75
  -2  -1   5   23.38    1.79
   1  -2   5   25.02    1.88
   1   2  -5   24.32    1.86
  -1   2   5   26.06    1.72
   2   1   5   26.24    1.79
  -1  -2   5   25.52    1.87
  -5   2   1   26.99    1.43
   5   2  -1   28.42    1.48
   5  -1  -2   28.69    1.59
   1   2   5   26.85    1.79
  -5   2   1   27.78    1.41
   2   1  -5   27.14    1.86
   2  -1   5   23.27    1.78
  -2   1   5   23.50    1.71
   1   5  -2   30.15    2.03
  -2   5  -1   30.71    1.96
  -2   2  -5    0.17    0.48
  -2  -2   5    0.35    0.46
  -5   2   2    0.40    0.23
   5   2  -2    0.56    0.32
  -2   5  -2    0.31    0.60
   2  -2   5    0.41    0.42
   2   2  -5    0.78    0.55
   2   2   5    0.21    0.46
   5  -2   2    0.55    0.30
  -2   2   5    0.16    0.34
  -5   3   0   14.55    0.94
  -5   3   0   15.16    1.02
   5   0  -3   17.75    1.31
   0   5  -3   20.02    1.72
   3   0  -5   17.76    1.41
  -3   0   5   17.95    1.36
   5   0   3   16.78    0.99
  -5   0   3   18.03    1.09
   0   3  -5   18.28    1.56
   0   3   5   17.80    1.31
   0  -3   5   13.88    1.49
   3   0   5   15.78    1.29
  -1   3   5    4.31    0.62
  -3   1  -5    5.35    0.58
   1   3  -5    6.28    1.01
   3  -1  -5    4.64    0.74
  -3  -1   5    4.28    0.73
  -5   3  -1    4.89    0.52
  -5   1   3    5.83    0.64
   5   1  -3    5.55    0.75
   1  -3   5    4.34    0.83
   3   5  -1    5.71    0.84
   3   1   5    5.72    0.76
   5  -1   3    5.85    0.56
  -5  -1   3    6.91    0.62
   3  -1   5    5.72    0.77
   3   1  -5    5.76    0.79
  -5   3   1    5.58    0.50
  -1   3  -5    5.59    0.88
  -5   3   1    6.08    0.61
   5  -1  -3    5.89    0.77
  -1  -3   5    6.15    0.96
   1   3   5    5.40    0.75
  -3   5  -1    6.24    0.88
   5   3  -1    5.16    0.62
   1   5  -3    6.81    1.06
  -3   1   5    6.83    0.87
  -3  -2   5  106.58    5.37
   5  -2   3   98.32    5.08
  -5   3  -2   89.65    4.91
   3   5  -2   95.65    5.29
   5   2  -3  101.24    5.14
  -5   2   3   99.75    5.07
   2   3  -5  106.38    5.50
   2  -3   5   98.00    5.40
   3   2   5  108.40    5.32
  -2   3   5   99.09    5.23
  -3   2  -5   96.21    5.08
  -2   5  -3  103.58    5.51
   5   3  -2   96.01    5.09
   2   3   5  102.85    5.30
  -5   3   2   96.21    5.02
  -3   5  -2  100.87    5.35
  -2   3  -5  102.04    5.30
  -2  -3   5   97.20    5.44
   3  -2   5   96.45    5.28
   5  -3   3    0.60    0.39
  -5   3   3    0.05    0.30
  -3   3   5    0.03    0.31
  -3   5  -3    0.65    0.61
   3  -3   5    0.39    0.55
  -3  -3   5    0.18    0.58
  -3   3  -5    0.18    0.40
   5   3  -3    1.04    0.44
   3   5  -3    1.28    0.57
  -5   3  -3    0.79    0.21
   5   0   4   40.85    2.37
   4   0   5   47.83    2.56
  -4   5   0   38.58    2.54
   0  -4   5   46.57    2.99
   0  -5   4   37.03    2.86
  -5   0   4   42.33    2.45
   5   0  -4   42.63    2.52
  -5   4   0   48.48    2.45
   0   4   5   47.30    2.59
  -4   0   5   46.58    2.60
   4   5  -1    6.62    0.83
  -5   1   4    6.98    0.79
   5   1  -4    8.01    0.90
   4   1   5    5.38    0.76
   1  -4   5    4.92    0.96
  -1   4   5    6.11    0.78
  -5   4  -1    7.34    0.76
   5  -1   4    7.98    0.73
  -1  -5   4    5.88    1.05
  -4  -1   5    7.34    0.86
  -4   5  -1    5.65    0.77
   5   1   4    8.06    0.73
  -5  -1   4    7.63    0.82
   1  -5   4    5.45    0.99
   1   5  -4    7.72    1.09
  -1  -4   5    5.14    0.98
  -4   1   5    6.11    0.79
   5  -1  -4    7.44    0.81
   5   4  -1    6.24    0.78
  -5   4   1    6.02    0.56
   4   1  -5    7.19    1.07
   4  -1   5    6.80    0.87
  -1   4  -5    6.51    1.11
   4   2   5   84.47    4.67
  -2   5  -4   88.59    5.00
  -5   4  -2   89.47    4.50
  -4  -2   5   93.34    4.74
  -4   2  -5   83.17    4.40
   2  -4   5   89.37    4.96
   5   2  -4   90.06    4.63
   5  -2   4   81.23    4.54
  -5   2   4   88.65    4.57
  -2   4   5   86.34    4.64
   4   5  -2   87.99    4.69
  -2   4  -5   89.20    4.88
  -4   5  -2   91.05    4.70
  -4   2   5   82.48    4.62
  -2  -4   5   91.02    4.99
  -5  -2   4   87.66    4.57
   2  -5   4   87.38    4.96
  -5   4   2   87.73    4.47
   5   4  -2   84.74    4.56
   4   2  -5   92.50    4.86
   4  -2   5   82.08    4.64
   5   3  -4    6.58    0.85
   4   5  -3    6.67    0.88
   5  -3   4    5.63    0.75
  -5   4  -3    6.96    0.76
  -4   5   3    6.31    0.69
  -3   4   5    5.94    0.74
   3  -4   5    7.88    1.04
  -4  -3   5    6.60    0.94
  -5   3   4    6.53    0.77
  -4   3  -5    6.67    0.77
  -3   5  -4    6.13    0.99
  -4   5  -3    6.53    0.86
  -5   4   3    7.51    0.71
  -5   3  -4    5.74    0.53
  -3  -4   5    6.82    1.00
  -4   3   5    4.55    0.69
  -3   4  -5    6.61    0.91
  -3   5   4    6.34    0.76
   3  -5   4    5.76    0.95
   4  -3   5    5.67    0.85
   4   3  -5    7.20    0.99
   5   4  -3    8.75    0.99
  -5   4  -4   -0.04    0.35
  -5   4   4    0.82    0.37
  -4  -4   5    1.38    0.70
  -4   4  -5   -1.09    0.47
  -4   4   5   -0.27    0.35
  -4   5  -4   -0.32    0.57
  -4   5   4    0.09    0.36
   4  -5   4    0.13    0.58
   4  -4   5    0.71    0.59
   4   4  -5    0.37    0.68
   4   5  -4    0.68    0.74
   5  -4   4    0.16    0.56
   5   4  -4    0.78    0.64
  -5   0   5   42.97    2.34
  -5   5   0   33.54    2.21
   0  -5   5   30.24    2.69
   5   0  -5   40.81    2.38
   5   0   5   40.28    2.22
  -5  -1   5    0.37    0.42
  -5   1   5    0.21    0.40
  -1  -5   5    0.50    0.79
  -1   5  -5    1.71    0.96
   1  -5   5    0.09    0.72
   5  -1  -5    0.54    0.58
   5  -1   5   -0.64    0.33
   5   1  -5    1.16    0.54
   5   1   5   -0.32    0.37
   5   5  -1   -0.11    0.44
  -5  -2   5   60.05    3.21
  -5   2   5   58.48    3.15
  -5   5   2   53.80    2.97
  -2  -5   5   56.64    3.57
  -2   5  -5   59.59    3.65
  -2   5   5   54.49    3.15
   2  -5   5   57.04    3.59
   5  -2   5   53.05    3.10
   5   2  -5   56.08    3.26
   5   2   5   55.01    3.11
   5   5  -2   53.07    3.17
  -5  -3   5    0.01    0.49
  -5   3  -5   -0.01    0.26
  -5   3   5   -0.35    0.35
  -5   5  -3    1.16    0.69
  -5   5   3    0.31    0.34
  -3   5  -5    1.14    0.81
  -3   5   5    0.32    0.40
   3  -5   5    0.06    0.69
   5  -3   5    0.23    0.54
   5   3  -5    0.12    0.59
   5   5  -3    0.41    0.57
  -5   4  -5    2.24    0.49
  -5   4   5    2.34    0.55
  -5   5  -4    2.19    0.62
  -5   5   4    1.90    0.48
  -4   5  -5    2.79    0.73
  -4   5   5    1.95    0.56
   4  -5   5    2.11    0.78
   5  -4   5    2.25    0.73
   5   4  -5    1.36    0.80
   5   5  -4    2.73    0.78
  -5   5  -5   -0.14    0.61
  -5   5   5   -0.35    0.39
   5  -5   5    1.36    0.78
   0   0   6  118.63    6.47
   6   0   0  123.44    5.96
   0  -1   6   67.43    3.98
   0   1   6   65.32    3.90
   6   0  -1   71.11    3.47
  -1   0  -6   68.01    3.66
  -1   0   6   69.82    3.92
   0   6  -1   67.15    4.10
   1   0   6   66.79    3.94
   6   1   0   69.00    3.37
  -1  -1   6   11.20    1.30
  -1   1   6   10.71    1.19
   1  -1   6   12.75    1.39
   1   1   6   11.30    1.30
   6   1  -1   11.02    0.76
  -1   1  -6   11.41    1.12
   6   2   0   31.57    1.57
   2   0  -6   30.64    2.47
   6   0  -2   27.74    1.69
   2   0   6   29.69    2.15
   0   2   6   28.62    2.04
   0  -2   6   30.62    2.23
   0   6  -2   27.60    2.67
  -2   0   6   29.77    2.07
   6   1  -2    7.29    0.73
   2   1   6    7.27    1.06
  -2   1  -6    8.36    0.88
   1  -2   6    9.08    1.15
  -2  -1   6    6.52    0.95
  -1   2   6    9.30    1.07
   6  -1  -2    7.84    0.81
   6   2  -1    8.97    0.68
   2  -1   6    8.88    1.10
   2   1  -6    8.71    1.06
   1   2   6   10.45    1.20
  -1  -2   6    8.45    1.08
  -1   2  -6    9.48    1.15
  -2   6  -1    8.20    1.09
  -2   1   6    8.41    1.02
   2  -2   6  499.48   27.19
   2   2  -6  583.15   27.24
  -2  -2   6  545.05   27.26
  -2   2  -6  553.96   27.01
  -2   6  -2  529.19   27.27
   6  -2   2  541.03   26.85
   6   2  -2  556.89   26.85
  -2   2   6  576.28   27.15
   2   2   6  571.92   27.25
   0   6  -3  145.89    9.14
   6   0   3  146.68    7.38
  -6   0   3  152.97    7.37
   0  -3   6  137.57    7.98
   0   3   6  147.35    7.83
   6   0  -3  166.06    7.57
  -3   0   6  148.53    7.82
   3   0   6  152.63    7.82
   6   1  -3   71.12    3.82
  -6   1   3   74.21    3.72
   3   1   6   69.90    4.13
   3   6  -1   85.63    4.30
  -1   3   6   70.02    4.05
  -3  -1   6   73.64    4.14
  -3   1  -6   66.73    3.77
   1   3  -6   74.11    4.36
   6  -1   3   68.91    3.72
   1  -3   6   67.65    4.27
  -6   3   1   73.51    3.69
  -1  -3   6   69.72    4.27
  -1   3  -6   71.87    4.19
  -3   6  -1   75.90    4.17
  -6   3   1   75.48    3.67
   6  -1  -3   79.73    3.88
   3  -1   6   72.36    4.12
   6   3  -1   74.55    3.77
  -3   1   6   72.78    4.08
   1   3   6   73.93    4.18
   6   1   3   74.00    3.65
  -3  -2   6   44.99    2.79
  -3   2  -6   42.61    2.45
   3   2   6   43.71    2.78
  -6   2   3   42.15    2.34
   2  -3   6   40.95    2.85
   6   2  -3   44.09    2.45
   3   6  -2   41.66    2.80
   6  -2   3   44.02    2.40
  -2   6  -3   43.85    3.04
  -2   3   6   43.11    2.61
   3  -2   6   44.08    2.75
  -3   2   6   43.04    2.62
  -2  -3   6   44.80    2.88
  -6   3   2   42.12    2.30
  -2   3  -6   44.60    2.69
  -3   6  -2   41.21    2.79
   2   3   6   46.66    2.86
  -3   6  -3    4.60    0.98
  -3   3  -6    5.83    0.79
  -3   3   6    3.97    0.70
  -6   3   3    6.00    0.66
   6  -3   3    5.87    0.70
  -3  -3   6    2.85    0.82
   3   3   6    4.92    0.92
   3   6  -3    5.71    1.01
   3  -3   6    5.45    0.96
   6   3  -3    4.47    0.66
  -6   4   0   17.39    1.14
  -4   0   6   21.41    1.62
   4   0   6   19.81    1.59
   0   4   6   17.69    1.59
   0  -4   6   17.76    1.95
  -6   0   4   23.86    1.33
  -4   6   0   19.02    1.62
   6   0   4   24.00    1.26
   6   0  -4   24.50    1.50
  -6   4   0   16.74    1.22
   1  -4   6   92.55    5.62
   4   1   6  102.36    5.36
  -6   1   4  101.32    5.11
   6  -1   4   98.50    5.06
   6   1  -4  100.86    5.19
  -6   4  -1   96.65    4.92
   4   6  -1   96.15    5.39
  -6   4  -1   98.42    4.98
  -4  -1   6  102.07    5.40
  -1   4   6  100.13    5.36
  -4   6  -1  101.55    5.34
  -6   4   1   99.82    5.06
  -6   4   1   98.01    4.99
  -6  -1   4  107.34    5.07
   1   4   6  101.95    5.46
  -1  -4   6  100.34    5.69
   6  -1  -4  102.85    5.20
  -1   4  -6  104.45    5.62
  -4   1   6   94.54    5.32
   4  -1   6   96.59    5.31
   6   4  -1   91.48    5.38
   4   2   6   30.44    2.19
  -6   2   4   32.57    1.90
  -2   6  -4   32.92    2.71
   6  -2   4   31.69    1.89
   6   2  -4   34.29    2.02
   2  -4   6   29.75    2.40
  -4   2  -6   27.98    1.77
  -6   4  -2   30.91    1.68
   4   6  -2   33.33    2.23
  -2   4   6   31.36    2.09
  -4  -2   6   31.89    2.19
  -2  -4   6   32.58    2.49
  -2   4  -6   32.36    2.38
   6   4  -2   33.09    1.94
   4  -2   6   29.70    2.14
  -6   4   2   32.67    1.80
  -4   6  -2   33.74    2.20
   2   4   6   32.01    2.36
  -4   2   6   29.82    2.08
   6  -3   4    9.70    1.01
   6   3  -4    9.74    1.14
  -3   4   6    7.56    0.98
   3  -4   6    7.57    1.09
   4   3   6    8.98    1.15
  -3   6  -4    8.12    1.30
  -6   3   4    9.48    0.89
   4   6  -3    6.71    1.05
  -4  -3   6    8.27    1.06
  -4   3  -6    7.11    0.90
  -6   4  -3    7.54    0.57
  -6   4   3    6.53    0.77
   3   4   6    7.83    1.23
  -4   3   6    8.31    1.03
  -3   4  -6    7.02    0.97
   4  -3   6    7.86    0.99
  -4   6  -3    8.55    1.07
   6   4  -3    6.22    0.84
  -3  -4   6    6.79    1.13
  -6   4  -4   37.83    2.08
  -4   4  -6   44.65    2.52
   4   4   6   44.29    2.87
   4   6  -4   34.39    2.76
  -4   4   6   45.51    2.55
  -4   6   4   37.22    2.38
  -6   4   4   40.63    2.37
   6  -4   4   44.42    2.57
   6   4  -4   34.28    2.53
   4  -4   6   44.62    2.77
  -4   6  -4   39.10    2.71
  -4  -4   6   44.89    2.80
  -6   5   0   80.47    4.34
  -6   0   5   86.15    4.54
   5   0   6   85.97    4.60
  -6   5   0   86.57    4.47
  -5   6   0   87.31    4.63
   6   0  -5   90.20    4.66
  -5   0   6   87.52    4.69
   0   5   6   89.03    4.78
   0  -5   6   81.15    5.15
   5   6  -1   11.85    1.33
   6   1  -5   10.63    1.10
   1  -5   6    9.38    1.43
  -5  -1   6   12.28    1.26
  -6   1   5   10.20    1.07
  -6   5  -1   12.61    1.02
   5   1   6    9.92    1.16
  -1   5   6   12.75    1.19
   6  -1   5    9.28    0.99
  -1   6  -5   10.37    1.67
  -5   1   6   10.65    1.19
  -5   6  -1   10.92    1.19
  -6   5   1   11.88    1.07
  -6   5   1   11.19    0.83
   6   1   5    9.53    0.96
   5  -1   6   10.15    1.13
  -1  -5   6   15.04    1.86
  -6  -1   5   10.99    1.07
   6  -1  -5   11.64    1.25
  -1   5  -6    8.31    1.44
   1  -6   5    9.73    1.39
   6   5  -1   13.72    1.18
  -2   5   6    1.26    0.56
   2  -5   6   -0.42    0.74
   5   6  -2    0.38    0.66
   6  -2   5    0.55    0.50
  -5  -2   6    1.08    0.61
  -6   2   5    0.87    0.47
  -2   6  -5    1.60    1.18
   5   2   6    0.32    0.58
  -6   5  -2    1.66    0.44
   6   2  -5    0.21    0.58
  -2   5  -6    0.52    0.97
   6   5  -2    1.33    0.56
  -6   5   2    1.28    0.37
  -6  -2   5    1.01    0.49
  -5   2   6    1.13    0.55
  -2  -5   6   -0.12    0.84
   6   2   5    1.02    0.47
   5   2  -6    1.08    1.08
  -5   6  -2    2.07    0.66
   2  -6   5    1.38    0.87
   5  -2   6   -0.47    0.54
   3  -5   6   47.52    3.06
  -3   6  -5   40.34    3.07
   5   3   6   41.16    2.69
  -6   3   5   44.96    2.50
  -5  -3   6   41.02    2.66
  -5   3  -6   37.16    2.23
   6  -3   5   39.86    2.51
  -6   5  -3   43.72    2.34
  -3   5   6   40.81    2.59
   5   6  -3   45.42    2.74
   6   3  -5   39.21    2.65
  -5   6   3   42.11    2.40
   5  -3   6   38.14    2.58
  -3   5  -6   38.20    2.85
  -6   5   3   43.15    2.37
   5   3  -6   39.55    2.78
  -3  -5   6   46.47    3.07
  -5   3   6   38.64    2.54
  -5   6  -3   45.66    2.64
  -3   6   5   42.07    2.52
   6   5  -3   43.88    2.62
  -6   5  -4   93.30    5.05
  -5   6   4  101.23    5.23
  -5  -4   6  104.88    5.48
   6  -4   5  100.45    5.38
  -4   5   6   99.12    5.34
   4  -5   6   98.45    5.60
   5   6  -4   96.00    5.51
  -6   4   5  102.57    5.25
   6   4  -5   96.81    5.43
  -4   6  -5   94.69    5.51
   5   4   6  102.98    5.98
  -5   6  -4   96.61    5.33
  -4   5  -6   92.85    5.37
  -4  -5   6  107.83    5.64
  -5   4   6  104.31    5.34
  -6   4  -5   97.57    4.93
  -4   6   5  103.33    5.30
   5  -4   6  102.57    5.48
  -6   5   4   99.37    5.20
   6   5  -4   98.70    5.44
  -6   5  -5   20.78    1.35
  -6   5   5   18.02    1.48
  -5   5  -6   18.00    1.58
  -5   5   6   18.17    1.53
  -5   6  -5   18.91    1.75
  -5   6   5   19.23    1.54
   5  -5   6   17.27    1.86
   6  -5   5   17.95    1.77
  -6   0   6  192.78    9.84
  -6   6   0  196.91    9.76
   0  -6   6  190.45   10.49
   6   0  -6  202.34    9.96
   6   0   6  187.48    9.76
  -6  -1   6    0.50    0.56
  -6   1   6    0.04    0.52
  -6   6  -1    1.11    0.53
  -6   6   1    0.30    0.57
  -6   6   1    0.14    0.31
  -1  -6   6    0.41    0.95
  -1   6  -6   -0.48    1.43
  -1   6   6    0.21    0.50
   1  -6   6    0.47    1.03
   6  -1  -6    0.96    0.77
   6   1  -6    0.42    0.74
   6   1   6    0.80    0.49
   6   6  -1   -0.28    0.64
  -6  -2   6  338.10   16.34
  -6   2   6  335.69   16.35
  -6   6  -2  323.53   16.21
  -6   6   2  322.66   16.15
  -2   6  -6  312.06   16.77
  -2   6   6  328.17   16.40
   2  -6   6  348.32   16.94
   6  -2   6  304.33   16.28
   6   2   6  342.94   16.27
   6   6  -2  327.19   16.35
  -6  -3   6    0.07    0.62
  -6   3   6    0.89    0.54
  -6   6  -3    0.17    0.60
  -6   6   3   -0.09    0.39
  -3   6  -6    0.51    1.17
  -3   6   6    0.43    0.76
   3  -6   6    1.57    1.06
   6  -3   6   -0.16    0.62
   6   3   6   -0.31    0.59
   6   6  -3    1.15    0.84
  -6   4  -6   30.50    1.68
  -6   4   6   34.39    2.13
  -6   6  -4   30.99    2.03
  -6   6   4   31.76    1.99
  -4   6  -6   30.06    2.52
  -4   6   6   30.94    2.19
   6  -4   6   30.76    2.30
   6   4   6   31.25    2.32
  -6   5  -6    0.49    0.50
  -6   5   6   -0.32    0.57
  -6   6  -5   -0.69    0.66
  -6   6   5    1.15    0.56
  -5   6  -6   -2.31    0.81
  -5   6   6    0.01    0.53
   5  -6   6    0.18    1.04
   6  -5   6   -0.05    0.86
  -6   6  -6   77.30    4.53
  -6   6   6   81.26    4.44
   0   0  -7    0.28    0.60
   0   0   7   -0.32    0.62
   7   0   0    0.53    0.25
   0  -1   7    1.00    0.63
   0   1  -7    0.13    0.64
   0   1   7    1.09    0.69
   7   0  -1    0.72    0.28
   1   0   7    0.62    0.74
   7   1   0   -0.04    0.20
  -1   0  -7   -0.15    0.51
  -1   0   7    0.30    0.56
  -1   1   7   -0.42    0.53
   1  -1   7   -0.77    0.62
  -1  -1   7   -0.16    0.65
  -1   1  -7    0.01    0.58
   1   1   7    0.02    0.61
   7   1  -1    0.61    0.27
   0   2   7   19.90    1.82
   7   0  -2   22.50    1.29
   2   0   7   20.71    1.91
   0  -2   7   19.05    1.94
   0   2  -7   19.86    1.87
   7   0   2   18.23    1.06
   7   2   0   19.63    1.12
  -2   0   7   20.44    1.77
   7   1  -2    5.38    0.65
  -1   2   7    3.68    0.82
  -2  -1   7    3.65    0.87
  -2   1  -7    3.77    0.64
   7  -1   2    4.55    0.56
   1  -2   7    3.27    0.95
   2   1   7    5.20    1.00
   2  -1   7    5.13    1.02
  -2   7  -1    5.48    1.20
   7  -1  -2    5.66    0.70
   7   2  -1    4.73    0.59
   1   2   7    4.04    0.95
  -1  -2   7    3.45    0.89
  -1   2  -7    4.49    0.86
  -2   1   7    4.40    0.84
  -2   7  -2   -1.02    0.89
   2  -2   7   -0.70    0.66
   2   2   7    0.01    0.77
  -2   2   7    0.15    0.54
  -2  -2   7   -1.40    0.62
   7   2  -2    0.02    0.36
  -2   2  -7   -0.09    0.57
   0  -3   7    0.51    0.89
   0   3   7    2.62    0.80
  -3   7   0    4.41    0.92
   7   0   3    2.68    0.34
   3   0  -7    2.60    1.02
   0   3  -7    1.39    0.91
   7   3   0    1.57    0.37
   7   0  -3    3.32    0.53
   3   0   7    1.96    0.78
  -3   0   7    2.85    0.80
   3   1   7    5.05    0.90
  -1   3   7    3.56    0.81
   3   7  -1    3.35    1.08
   1  -3   7    3.85    0.99
   7  -1   3    3.93    0.48
   7   1  -3    4.82    0.63
   3  -1  -7    4.64    1.00
  -3   1  -7    4.42    0.57
  -3  -1   7    4.43    0.93
   7  -1  -3    4.25    0.63
  -3   7  -1    4.29    0.95
  -3   1   7    4.22    0.86
   7   3  -1    5.13    0.56
   3  -1   7    4.40    0.92
   7   1   3    4.76    0.44
   1   3   7    3.82    0.95
  -1  -3   7    3.82    1.01
  -1   3  -7    5.11    1.00
   7  -2   3   48.27    2.58
  -2   3   7   42.88    2.89
   2  -3   7   41.06    3.10
  -3   2  -7   43.59    2.67
   3   2   7   44.30    3.09
  -2   7  -3   47.68    3.37
   7   2  -3   46.53    2.63
  -3  -2   7   52.44    3.12
  -7   2   3   49.42    2.52
  -3   7  -2   50.95    3.20
   7   3  -2   47.47    2.61
   2   3   7   48.21    3.20
  -7   3   2   47.11    2.39
  -2  -3   7   46.79    3.19
  -2   3  -7   44.80    2.96
  -3   2   7   45.80    2.93
   3  -2   7   45.65    3.05
   3  -3   7   -0.24    0.70
  -3   3  -7   -0.50    0.58
  -3   3   7   -0.32    0.56
   3   3   7    0.76    0.87
   7   3  -3    0.52    0.52
  -7   3   3   -0.25    0.31
  -3   7  -3   -1.00    0.95
  -3  -3   7   -0.43    0.71
   7   4   0   24.92    1.53
   4   0   7   23.33    1.90
   7   0   4   22.92    1.40
   7   0  -4   22.99    1.67
   0   4   7   22.41    2.00
  -4   0   7   22.90    1.88
  -4   7   0   26.02    2.01
   0  -4   7   22.95    2.29
  -1   4   7    5.03    0.82
   7   1  -4    8.09    1.01
   7  -1   4    5.79    0.73
   4   1   7    5.91    1.01
   1  -4   7    7.14    1.41
   4   7  -1    6.52    1.09
  -4  -1   7    4.87    0.91
  -7   1   4    4.92    0.64
  -7   4   1    6.06    0.58
   7   1   4    4.81    0.61
  -7   4   1    5.98    0.53
  -1   4  -7    4.63    1.15
   7   4  -1    5.53    0.67
   7  -1  -4    5.76    0.76
  -4   1   7    7.06    1.01
  -4   7  -1    5.59    0.99
  -1  -4   7    8.21    1.43
   1   4   7    4.78    1.00
   4  -1   7    6.20    0.97
  -7   2   4   15.93    1.07
  -2   7  -4   13.03    1.78
   4   7  -2   13.63    1.77
  -4  -2   7   11.72    1.53
  -2   4   7   12.95    1.41
  -4   2  -7   11.33    1.06
   7  -2   4   14.44    1.14
   7   2  -4   13.04    1.24
   2  -4   7   14.09    1.75
   4   2   7   14.93    1.63
   4  -2   7   14.28    1.54
   7   2   4   14.95    0.96
  -2   4  -7    9.65    1.37
  -2  -4   7   13.94    1.74
  -4   7  -2   15.00    1.66
  -4   2   7   12.02    1.41
   7   4  -2   13.72    1.20
   2   4   7   11.36    1.54
  -7   4   2   13.67    1.03
  -7   4   2   13.58    0.96
  -3   7  -4    3.54    1.25
  -7   3   4    3.65    0.59
   4   3   7    4.86    1.01
  -3   4   7    3.84    0.79
   3  -4   7    3.22    1.00
  -4  -3   7    4.63    0.96
   7  -3   4    3.15    0.67
  -4   3  -7    4.20    0.72
   7   3  -4    3.66    0.73
   4  -3   7    3.56    0.97
  -4   3   7    5.13    0.85
  -7   4   3    4.51    0.55
   7   4  -3    3.59    0.74
  -3  -4   7    3.88    1.03
  -4   7  -3    3.22    1.00
   3   4   7    4.57    1.28
  -3   4  -7    4.09    0.96
  -4   4   7    0.46    0.65
   4   4   7    0.42    1.05
  -4  -4   7    0.40    0.81
   7   4  -4   -0.05    0.71
  -4   4  -7    0.77    0.65
  -7   4   4   -0.18    0.42
  -4   7  -4    1.01    1.01
   4  -4   7    0.52    0.90
   5   0   7   13.42    1.43
  -7   5   0   12.30    1.00
  -5   7   0   10.84    1.27
   0  -5   7   10.21    1.58
  -7   0   5   15.66    1.12
   7   0  -5   15.80    1.41
   7   0   5   14.75    1.11
   0   5   7   13.37    1.60
   7   5   0    9.29    1.27
  -7   5   0   11.95    0.85
  -5   0   7   14.62    1.48
  -7   5  -1    0.82    0.35
   5   1   7    1.27    0.69
   1  -5   7    1.11    0.96
  -5  -1   7    1.82    0.71
   7  -1   5    0.46    0.48
   7   1  -5    1.18    0.67
  -7   5  -1    1.12    0.25
   5   7  -1    0.86    0.89
  -1   5   7    1.87    0.71
  -5   7   1    0.56    0.76
  -7   1   5    1.02    0.47
   7   1   5    0.82    0.41
  -7   5   1    1.12    0.33
   7   5  -1    0.48    0.57
  -5   7  -1   -0.28    0.72
  -7  -1   5    0.86    0.43
  -1   5  -7    0.08    1.35
  -1  -5   7    0.40    0.95
  -5   1   7    1.68    0.65
   5  -1   7    0.56    0.64
   1   5   7    0.97    0.87
   7  -1  -5    0.88    0.68
  -7   5   1    1.12    0.45
   7  -2   5    5.70    0.73
   5   7  -2    3.82    1.02
  -2   7  -5    6.97    2.52
   2  -5   7    4.42    1.15
  -7   2   5    5.06    0.72
  -2   5   7    5.20    0.91
   5   2   7    5.30    0.99
  -5  -2   7    5.76    0.98
   7   2  -5    4.55    0.85
  -7   5   2    7.50    0.79
  -7   5   2    4.31    0.59
  -5   2   7    5.04    0.91
   7   5  -2    6.27    0.83
   5  -2   7    5.05    0.97
  -2  -5   7    8.04    1.43
  -2   5  -7    5.05    1.33
  -5   7  -2    5.39    0.96
   2   5   7    6.00    1.23
   7   2   5    5.13    0.63
  -5   7   3    6.79    0.78
  -7   3   5    8.70    1.01
  -3   7  -5    7.90    1.54
   7   3  -5    8.32    1.08
   3  -5   7    6.65    1.31
  -5  -3   7    7.59    1.10
  -5   3  -7    6.13    0.81
  -3   5   7    5.51    1.00
   7  -3   5    7.77    0.96
   5  -3   7    7.44    1.12
  -3   7   5    7.32    1.09
  -7   5   3    6.65    0.87
   7   3   5    7.34    0.95
   7   5  -3    5.94    1.01
   3   5   7    8.39    1.54
  -3  -5   7    6.06    1.29
  -3   5  -7    6.95    1.20
  -5   7  -3    7.68    1.14
  -5   3   7    7.34    1.00
  -5  -4   7   14.26    1.54
  -5   7   4   12.71    1.20
   7  -4   5   15.23    1.51
  -4   5   7   11.78    1.39
  -4   7  -5   10.91    1.60
  -5   4  -7   12.55    1.31
  -7   4   5   14.95    1.27
   7   4  -5   13.08    1.68
   5   4   7   12.32    1.60
  -4  -5   7   15.92    1.95
  -4   5  -7   11.33    1.37
  -7   5   4   12.59    1.20
  -5   7  -4   13.98    1.75
   5  -4   7   12.59    1.48
  -4   7   5   12.81    1.28
   7   5  -4   14.53    1.77
   4   5   7   10.35    1.81
  -5   4   7   15.03    1.44
  -7   5   5    0.51    0.57
  -5   7  -5    0.45    1.04
  -5   7   5   -0.52    0.51
   5  -5   7    1.04    0.88
   5   5   7    0.36    1.22
  -5   5  -7    0.57    0.73
  -5   5   7   -0.68    0.64
  -7   0   6   45.15    2.54
   0   6   7   44.63    2.89
   7   0   6   42.03    2.53
   6   0   7   41.63    2.68
   7   6   0   43.07    2.75
  -6   7   0   41.88    2.71
   0  -6   7   40.32    3.44
  -7   6   0   40.48    2.30
  -6   0   7   43.18    2.72
  -7   6   0   42.41    2.48
  -1   6   7   10.78    1.34
  -7   6  -1    8.16    1.08
  -7   6  -1    9.60    0.82
   7  -1   6   10.48    1.17
  -6  -1   7   10.07    1.18
   1  -6   7    7.80    1.64
   6   7  -1    8.24    1.27
  -6   7   1   11.43    1.26
  -7   1   6   10.13    1.20
   6   1   7    9.94    1.10
  -7  -1   6   13.06    1.21
  -6   7  -1   10.94    1.35
  -6   1   7   10.88    1.18
  -7   6   1    9.67    0.88
  -1  -6   7    8.86    1.56
   7   6  -1    9.54    1.11
   6  -1   7    8.56    1.11
  -7   6   1    9.80    1.17
   7   1   6    9.39    1.12
  -7   2   6    6.35    0.88
   6   2   7    5.66    0.97
  -2   6   7    5.13    0.98
  -6  -2   7    6.45    0.99
  -6   7   2    5.68    0.67
  -7   6  -2    4.59    0.69
   2  -6   7    5.55    1.41
   7  -2   6    5.62    0.87
   6   7  -2    3.56    1.11
   2   6   7    4.97    1.37
  -6   7  -2    6.76    0.92
  -7  -2   6    6.23    0.81
  -6   2   7    7.13    1.02
  -2   7   6    6.33    0.97
  -7   6   2    6.64    0.92
  -2  -6   7    4.57    1.36
   7   2   6    6.00    0.78
   6  -2   7    5.44    1.15
  -7   6   2    5.71    0.65
   7   6  -2    6.03    1.00
   6   3   7   42.47    2.75
  -6  -3   7   42.03    2.76
  -7   6  -3   40.73    2.33
  -3   6   7   44.35    2.81
   3  -6   7   45.49    3.35
  -6   7   3   41.65    2.50
   7  -3   6   38.92    2.67
  -7   3   6   42.21    2.60
   7   3   6   41.08    2.55
  -3   7   6   40.66    2.67
   6  -3   7   38.93    2.82
   3   6   7   40.17    3.32
  -3  -6   7   46.27    3.34
  -3   6  -7   41.95    3.40
  -7   6   3   43.95    2.45
  -6   7  -3   44.05    2.73
  -6   3   7   39.65    2.68
   7   6  -3   44.63    2.92
  -7   4   6   48.43    2.74
  -6   7   4   44.83    2.70
  -4   7  -6   41.16    3.42
  -4   6   7   45.09    2.86
   4  -6   7   44.64    3.38
   6   4   7   42.12    3.00
   7  -4   6   45.44    2.94
  -7   6  -4   43.16    2.41
  -6  -4   7   45.99    2.98
   7   4   6   46.75    2.74
  -7   6   4   46.84    2.63
  -4   7   6   46.86    2.83
   6  -4   7   44.73    3.03
   4   6   7   37.36    3.50
  -6   4   7   38.42    3.55
  -4   6  -7   40.24    3.14
  -6   7  -4   44.06    2.86
  -5   6   7    4.45    0.90
   7  -5   6    4.63    2.03
   5  -6   7    4.48    1.28
  -7   5   6    4.88    0.86
  -6   7   5    4.85    0.82
   6   5   7    5.69    1.27
  -5   7  -6    2.14    1.19
   5   6   7    2.64    1.44
  -7   6   5    3.70    0.80
  -6   5   7    4.26    0.90
  -6   7  -5    4.99    1.11
  -5   7   6    4.64    0.90
   6  -5   7    2.94    1.16
  -5   6  -7    4.71    1.09
  -7   6   6    0.19    0.69
  -6   6   7   -0.72    0.75
  -6   7   6    1.55    0.80
   6  -6   7   -2.10    1.17
   6   6   7    0.34    1.34
  -7   0   7    2.80    0.77
  -7   7   0    1.81    0.76
  -7   7   0    2.90    0.53
   0   7   7    4.33    1.02
   7   0   7    2.65    0.73
   7   7   0    1.40    1.11
  -7  -1   7    1.12    0.74
  -7   1   7   -1.56    0.64
  -7   7  -1    0.99    0.72
  -7   7   1   -0.14    0.81
  -7   7   1    0.87    0.47
  -1   7   7    0.65    0.73
   7  -1   7    1.12    0.71
   7   1   7    0.69    0.64
   7   7  -1   -0.62    0.95
  -7  -2   7    4.41    0.84
  -7   2   7    1.33    0.76
  -7   7  -2    4.42    0.80
  -7   7   2    4.63    1.10
  -7   7   2    4.08    0.65
   2  -7   7    4.64    1.56
   7  -2   7    3.21    0.92
   7   2   7    2.86    0.78
  -7  -3   7   -0.70    0.70
  -7   3   7    0.04    0.73
  -7   7  -3    0.06    0.94
  -7   7   3   -0.02    0.54
  -3   7   7    0.75    0.76
   7  -3   7    0.97    0.84
   7   3   7    0.90    0.74
  -7   4   7    3.81    1.54
  -7   7   4    4.86    0.82
  -4   7   7    3.85    0.90
   7   4   7    3.89    0.96
  -7   5   7   -0.48    0.77
  -7   7   5   -1.02    0.63
  -5   7   7    0.66    0.80
   7  -5   7   -0.83    1.08
   7   5   7   -0.92    1.04
  -7   6   7   12.55    1.39
  -7   7   6   11.98    1.39
  -6   7   7    9.94    1.37
   7   6   7    8.56    2.19
  -7   7   7    0.59    1.03
   0   0  -8  775.20   41.20
   0   0   8  806.75   41.59
   8   0   0  941.48   40.86
   0  -1   8    2.67    0.94
   0   1  -8    2.08    0.98
   0   1   8    2.05    0.95
   8   0  -1    3.10    0.43
   1   0   8    1.95    0.97
   8   1   0    2.08    0.32
  -1   0   8    2.62    0.90
   1   1   8   12.78    1.65
  -1   1   8   16.26    1.76
   1  -1   8   15.70    1.96
  -1  -1   8   10.43    1.46
  -1   1  -8   16.97    1.60
   8   1  -1   13.74    0.96
   0  -2   8   43.04    3.19
   0   2   8   45.79    3.09
  -2   0   8   45.88    3.05
   2   0   8   39.85    3.12
   8   2   0   45.54    2.22
   0   2  -8   44.25    3.07
   8   0   2   38.35    2.17
   8   0  -2   39.37    2.34
   8   1  -2   44.88    2.51
   2   1   8   42.39    3.26
  -1   2   8   49.74    3.14
  -2  -1   8   46.19    3.18
   1  -2   8   45.95    3.34
  -2   1  -8   46.79    2.77
  -2   1   8   44.70    3.07
  -1   2  -8   45.52    3.04
   8   2  -1   45.40    2.46
   1   2   8   48.81    3.33
  -1  -2   8   50.67    3.35
   2  -1   8   42.67    3.25
   8   2  -2   20.58    1.35
   2  -2   8   21.17    2.23
   2   2   8   13.95    1.81
  -2   2  -8   21.04    1.80
  -2   8  -2   20.63    2.47
  -2  -2   8   18.70    2.01
  -2   2   8   19.66    1.87
   8   0   3   37.69    2.02
   0   3   8   36.21    2.83
  -3   8   0   33.98    2.96
   0  -3   8   38.29    3.06
   0   3  -8   40.92    3.15
   8   3   0   36.70    2.09
   8   0  -3   40.88    2.26
  -3   0   8   40.64    2.78
   3   0   8   39.79    2.90
  -1   3   8   -0.67    0.67
   3   1   8   -0.23    0.94
   1  -3   8   -0.62    0.86
   8   1  -3    0.02    0.47
   3   8  -1    1.41    1.34
   8  -1   3    0.59    0.37
  -3  -1   8   -0.32    0.74
  -3   1   8    0.25    0.66
   1   3   8   -0.72    0.75
  -3   8  -1    0.63    1.07
  -1  -3   8   -0.01    0.92
  -1   3  -8    0.09    0.97
   8   3  -1    0.17    0.42
   3  -1   8    0.80    0.87
   2  -3   8   93.97    5.96
  -3   2  -8   98.57    5.41
   3   2   8  100.40    5.97
  -2   3   8  103.26    5.77
   8   2  -3  105.53    5.33
  -3  -2   8  106.94    5.92
  -3   8  -2  109.77    5.99
  -2   3  -8  101.20    5.69
   8   3  -2  103.60    5.32
  -2  -3   8  112.25    6.05
  -3   2   8  101.97    5.74
   2   3   8   98.58    6.01
   3  -2   8  105.03    5.90
  -3   3  -8   22.64    2.02
  -3  -3   8   27.01    2.35
   3   3   8   25.20    2.47
   8   3  -3   24.30    1.76
   3  -3   8   25.04    2.35
   4   0   8  354.70   18.26
   8   0  -4  359.75   17.89
  -4   0   8  365.02   18.27
  -4   8   0  377.22   18.24
   8   4   0  386.56   17.81
   0   4   8  334.91   18.41
   8   0   4  358.28   17.72
  -4  -1   8    1.52    0.85
  -1   4   8    0.76    1.05
   8  -1   4    2.01    0.50
   8   1  -4    2.19    0.64
   4   1   8    2.10    0.93
  -4   1   8    2.05    0.85
  -4   8  -1    3.44    1.07
   1   4   8    1.81    1.05
   8   1   4    2.10    0.39
   4  -1   8    0.86    0.86
   8   4  -1    2.93    0.63
   2  -4   8   -0.01    1.53
  -4  -2   8    2.55    0.95
   8  -2   4    2.68    0.61
   8   2  -4    3.54    0.71
   4   2   8    2.43    1.05
  -2   4   8    1.22    0.74
   2   4   8    1.78    1.15
  -2  -4   8    4.59    1.64
   4  -2   8    1.72    0.90
   8   2   4    3.20    0.44
  -4   2   8    2.50    0.80
  -2   4  -8    3.56    1.20
  -4   8  -2    3.22    1.16
   8   4  -2    2.76    0.76
   8   3  -4    2.00    0.75
  -3   4   8   -0.85    0.70
  -4   3  -8    0.36    0.64
  -8   3   4    1.10    0.41
   3  -4   8    0.12    1.11
   8  -3   4    0.25    0.62
   4   3   8    0.16    1.02
  -4  -3   8   -0.05    0.92
  -4   8  -3    0.43    1.12
  -3  -4   8    1.04    1.14
   8   4  -3   -0.11    0.69
  -8   4   3    0.50    0.39
   3   4   8    0.40    1.18
   4  -3   8    0.63    0.88
  -8   4   3    0.00    0.42
  -3   4  -8    0.70    0.94
  -4   3   8    0.22    0.68
  -4  -4   8  303.05   17.15
   4   4   8  331.31   17.13
   8   4  -4  330.28   16.60
   4  -4   8  327.70   16.98
  -4   4  -8  324.06   16.55
  -4   4   8  342.01   16.82
  -8   4   4  372.12   16.43
   8   0  -5    0.85    0.72
   5   0   8    1.82    0.91
   0   5   8    1.03    0.95
  -5   0   8    1.44    0.82
   8   5   0    0.05    0.66
  -5   8   0    0.31    0.96
   0  -5   8   -0.34    1.16
   8   0   5    0.71    0.49
   5   1   8   15.91    1.81
  -1   5   8   16.09    1.82
  -8   1   5   17.42    1.09
   8   1  -5   14.25    1.59
  -5  -1   8   15.48    1.77
   8  -1   5   14.83    1.30
  -5   8   1   14.90    1.70
   1  -5   8   12.01    1.83
   1   5   8   12.18    1.78
  -1  -5   8   15.41    2.13
   8   5  -1   16.26    1.53
   8  -1  -5   16.54    1.52
  -5   8  -1   13.81    1.57
   5  -1   8   14.04    1.73
  -5   1   8   15.43    1.78
   8   1   5   16.99    1.17
  -2   5   8   50.12    3.32
   8  -2   5   53.38    2.98
  -5  -2   8   52.16    3.35
  -8   2   5   54.81    2.83
   2  -5   8   47.09    3.84
   8   2  -5   50.29    3.14
   5   2   8   53.95    4.56
  -2  -5   8   45.38    3.79
   2   5   8   51.49    3.93
  -8   5   2   53.08    2.77
  -5   2   8   50.87    4.12
   8   2   5   52.67    2.77
  -5   8  -2   53.64    3.35
  -8   5   2   52.14    2.72
   5  -2   8   46.40    3.32
   8   5  -2   50.54    3.09
   5   3   8    1.55    1.01
  -8   3   5    1.30    0.53
  -3   5   8    1.27    0.85
  -5  -3   8    1.40    0.96
   8  -3   5    1.54    0.71
   3  -5   8    0.38    1.15
  -8   5   3    1.36    0.50
   8   3   5    2.46    0.51
  -3   5  -8    1.85    1.34
   8   5  -3    1.54    0.94
  -5   3   8    1.61    0.80
   5  -3   8   -0.69    0.87
   3   5   8    0.09    1.50
  -5   8  -3    3.33    1.12
  -3  -5   8    2.53    1.18
   4  -5   8    7.46    1.41
  -8   4   5   10.30    0.98
  -5   4  -8    6.91    0.90
   5   4   8    8.20    1.49
  -5   8   4    7.44    0.95
  -4   5   8    6.56    1.13
  -4   5  -8    6.97    1.25
  -4  -5   8    5.91    1.36
  -5   8  -4    6.21    1.38
  -8   5   4    5.68    0.78
   5  -4   8    8.35    1.44
  -5   4   8    9.00    1.17
  -4   8   5   10.48    1.14
   4   5   8    9.88    2.59
  -5   8   5   12.67    1.40
   5   5   8    8.60    2.28
  -5  -5   8   11.14    1.60
   5  -5   8    6.96    1.54
  -8   5   5   10.33    1.22
  -5   5   8    7.72    1.18
  -8   0   6    2.28    0.60
  -8   6   0    1.55    0.37
   8   6   0    2.64    0.96
  -6   8   0    0.39    0.96
   6   0   8    1.00    0.86
  -6   0   8    2.41    0.86
   8   0   6    1.31    0.64
   0   6   8    0.07    1.05
  -8   6   0    2.34    0.48
   1  -6   8   55.33    4.26
  -1   6   8   52.59    3.64
   6   1   8   54.54    3.39
  -6   8   1   56.16    3.66
   8  -1   6   53.31    3.17
  -8   1   6   55.70    3.04
  -6  -1   8   53.42    3.42
   1   6   8   56.51    3.95
   8   1   6   51.48    3.05
  -1  -6   8   58.93    4.33
  -6   1   8   53.34    3.43
   6  -1   8   52.11    3.40
  -8   6   1   54.76    2.89
   8   6  -1   56.01    3.40
  -6   8  -1   52.78    3.39
  -8   6   1   57.41    2.97
   8  -2   6    4.02    0.88
   6   2   8    4.63    1.00
  -8   2   6    4.14    0.76
   2  -6   8    8.66    1.72
  -6  -2   8    6.24    1.12
  -6   8  -2    3.94    1.07
   6  -2   8    3.42    1.04
   2   6   8    3.88    1.47
  -2  -6   8    2.99    1.56
  -8   6   2    4.35    0.62
  -6   2   8    5.16    1.29
   8   2   6    3.77    0.68
   8   6  -2    5.71    1.15
  -8   6   2    4.38    0.81
  -6  -3   8   15.52    1.68
   3  -6   8   19.30    2.30
  -3   6   8   20.00    1.88
   8  -3   6   14.50    1.68
   6   3   8   14.80    1.95
  -8   3   6   15.39    1.44
  -6   8   3   14.76    1.41
  -3  -6   8   15.19    1.97
  -8   6   3   15.55    1.31
  -6   3   8   19.59    1.85
  -3   8   6   14.73    1.64
   8   3   6   16.55    1.40
   3   6   8   11.84    2.20
  -6   8  -3   17.15    2.04
  -8   4   6   16.06    1.60
  -6   8   4   17.84    1.56
  -4   6   8   13.77    1.81
   6   4   8   18.37    2.14
  -6  -4   8   16.11    2.06
   8  -4   6   16.37    1.95
   4  -6   8   15.17    2.00
  -8   6   4   15.53    1.43
  -6   4   8   14.32    1.77
   4   6   8   14.76    2.35
  -4   8   6   17.35    1.69
   8   4   6   16.36    1.55
  -8   5   6   37.37    2.56
  -6   8   5   38.91    2.71
  -5   6   8   38.12    2.90
   5  -6   8   42.55    3.40
   6   5   8   35.65    3.51
   6  -5   8   40.70    3.19
  -6   5   8   40.93    2.86
   5   6   8   36.64    3.86
  -5   8   6   38.43    2.74
  -8   6   5   41.59    2.56
   8   5   6   39.24    2.62
   6  -6   8   27.09    2.96
  -6   6   8   25.08    2.28
  -8   6   6   22.02    2.02
   6   6   8   19.90    2.47
  -6   8   6   19.23    2.09
   0   8   7    2.83    1.11
   7   0   8    2.46    0.98
   8   7   0    1.91    1.28
  -8   7   0    4.73    0.61
   0   7   8    4.24    1.20
   8   0   7    2.78    0.85
  -8   0   7    3.73    0.79
  -7   0   8    3.85    0.99
  -7   8   0    5.31    1.18
  -8   7  -1    5.76    0.64
   7   1   8    6.56    1.12
  -7   8   1    4.87    0.77
  -7  -1   8    6.81    1.12
   8  -1   7    5.63    1.05
  -8   1   7    6.39    0.97
  -7   8   1    5.54    1.30
  -1   7   8    4.87    1.25
  -7   1   8    6.02    1.08
  -8  -1   7    7.32    0.91
   7  -1   8    7.33    1.23
   1   7   8    6.43    1.50
   8   7  -1    2.39    1.44
  -8   7   1    4.97    0.68
  -1  -7   8    7.72    1.81
   8   1   7    5.33    0.91
  -1   8   7    3.46    1.05
  -7   8   2   34.65    2.28
  -8   2   7   40.15    2.47
   8  -2   7   37.78    2.65
  -7  -2   8   38.14    2.67
  -8   7  -2   35.38    1.99
   7   2   8   34.98    2.59
   8   2   7   36.23    2.39
   2   7   8   32.91    3.39
   7  -2   8   34.34    2.79
  -8   7   2   33.87    2.19
   3  -7   8   -1.24    1.51
  -7  -3   8   -0.21    0.93
   7   3   8   -1.60    0.89
  -7   8   3    0.63    0.65
  -8   3   7    0.10    0.80
   8  -3   7   -1.42    0.93
   8   3   7   -0.35    0.80
  -8   7   3    0.37    0.66
   7  -3   8   -0.51    1.11
  -7   3   8    2.12    1.00
   3   7   8    1.30    1.67
  -7   8   4    1.21    0.70
   8  -4   7   -0.21    1.19
  -8   4   7    1.13    0.86
   4  -7   8   -2.44    1.46
   7   4   8   -0.39    0.95
  -4   8   7   -0.86    1.37
   7  -4   8   -0.20    1.21
  -7   4   8    0.60    0.95
   8   4   7   -0.24    0.85
  -8   7   4   -0.68    0.74
  -7   8   5   13.01    1.66
   8  -5   7   11.15    1.69
   7   5   8   13.89    1.67
  -8   5   7   10.94    1.34
  -5   7   8   10.83    1.50
   7  -5   8   12.72    1.81
   8   5   7   11.63    1.43
  -5   8   7   11.47    1.45
   5   7   8   12.14    2.37
  -7   5   8   10.04    1.35
  -8   7   5   10.89    1.28
  -8   6   7   43.42    2.97
  -7   8   6   39.08    2.99
  -6   7   8   41.12    3.19
   7   6   8   43.24    3.68
   6   7   8   32.35    4.15
  -7   6   8   39.35    3.10
  -6   8   7   42.27    3.07
   7  -6   8   42.98    3.74
  -8   7   6   43.80    2.94
  -8   0   8  304.44   15.06
  -8   8   0  310.21   14.87
   8   0   8  285.90   15.11
  -8  -1   8   -0.67    0.85
  -8   1   8   -0.58    0.90
  -8   8  -1    0.52    0.67
  -8   8   1    0.34    0.72
  -1   8   8    0.60    1.06
   1   8   8    0.24    1.35
   8  -1   8   -0.94    1.10
   8   1   8    0.90    0.99
  -8   2   8   20.51    2.04
  -8   8   2   18.71    1.68
   2   8   8   17.78    2.37
   8   2   8   22.03    2.08
  -8   3   8    0.02    1.01
  -3   8   8    1.36    1.11
   3   8   8   -0.39    1.97
   8  -3   8    1.04    1.29
   8   3   8    1.61    1.04
  -8   4   8  254.33   12.87
  -8   8   4  263.23   12.75
   8  -4   8  249.60   13.08
   8   4   8  242.81   12.82
  -8   5   8    1.25    1.16
  -5   8   8   -0.27    1.19
   5   8   8   -2.19    2.35
   8  -5   8    2.75    1.68
   8   5   8    2.58    1.39
   0  -1   9    2.52    1.38
   0   1   9    1.95    1.59
   9   0  -1    0.79    0.49
   1   0   9    2.16    1.31
   9   1   0    0.68    0.33
  -1   0   9   -0.58    0.98
  -1   1  -9   -0.17    0.91
  -1  -1   9   -0.06    0.98
   1   1   9    1.31    1.88
   9   1  -1   -0.54    0.39
  -1   1   9   -1.46    0.98
   9   2   0   99.72    4.99
  -2   0   9  107.12    5.92
   2   0   9   88.93    6.08
   0  -2   9   99.23    6.11
   0   2   9  102.14    6.01
   9   0  -2  100.89    5.12
  -1   2   9   15.62    1.95
  -2  -1   9   17.88    2.20
   2   1   9   19.69    2.55
  -2   1  -9   17.79    1.76
   9   1  -2   20.41    1.39
   1  -2   9   21.03    2.48
  -2   1   9   18.44    2.08
   1   2   9   19.59    2.59
  -1  -2   9   20.31    2.42
   9   2  -1   20.71    1.32
  -2   2   9    0.16    0.87
   2  -2   9    0.51    1.13
  -2  -2   9   -1.09    0.95
  -2   2  -9   -0.87    0.90
   9   2  -2    0.05    0.52
   9   3   0   21.47    1.45
   0  -3   9   21.64    2.71
  -3   0   9   22.34    2.24
   3   0   9   22.18    2.47
   0   3   9   21.60    2.37
   9   0  -3   22.48    1.64
   9   1  -3    1.17    0.60
  -3  -1   9    2.43    1.04
   1  -3   9    1.14    1.26
   3   1   9    1.20    1.20
   9   3   1    0.51    0.42
  -1   3   9    0.68    0.90
  -3   1   9    1.10    0.92
   1   3   9    0.50    1.19
   9   3  -1    0.65    0.54
  -1  -3   9    0.09    1.21
  -2   3   9   11.77    1.50
   9   2  -3    9.38    1.01
   3   2   9    7.80    2.64
  -3  -2   9    9.52    1.52
  -3   2  -9    8.86    1.15
   2  -3   9    8.81    1.67
   3  -2   9    9.19    1.58
  -2   3  -9    8.80    1.52
   9   3  -2   12.77    1.21
   2   3   9   10.32    1.82
  -2  -3   9    9.98    1.64
  -3   2   9    8.85    1.34
  -3  -3   9    0.03    1.09
  -3   3  -9    0.62    0.93
   3   3   9   -1.47    1.22
   9   3  -3    0.71    0.70
  -3   3   9    0.32    0.90
   3  -3   9    0.29    1.19
  -4   0   9    0.88    0.93
   4   0   9    1.59    1.13
   0   4   9   -0.11    1.01
   0  -4   9    1.70    1.91
   9   0  -4   -0.17    0.70
   9   4   0    2.23    0.62
   9   0   4    0.08    0.45
   1  -4   9   -0.38    1.27
   9   4   1    0.39    0.58
  -4  -1   9   -0.25    0.95
   9   1  -4    0.07    0.67
  -1   4   9   -1.15    0.95
   9  -1   4    0.22    0.53
   4   1   9    1.87    1.06
   9   4  -1    0.08    0.67
  -4   1   9    0.52    0.92
   9   1   4    0.51    0.41
   1   4   9   -1.11    1.22
   9  -2   4   19.67    1.59
  -4  -2   9   18.35    2.27
   2  -4   9   18.10    2.20
   4   2   9   21.49    3.27
   9   2  -4   19.25    1.79
   9   4  -2   20.74    1.74
   4  -2   9   20.15    2.30
  -4   2   9   18.76    2.05
  -2  -4   9   22.98    2.70
   2   4   9   19.63    2.46
  -3   4   9   20.72    2.05
  -4   3  -9   19.51    1.81
   3  -4   9   16.60    1.99
   4   3   9   15.05    2.02
  -4  -3   9   22.03    2.41
   9   3  -4   16.28    1.80
   9   3   4   18.81    1.14
  -3  -4   9   16.15    2.01
   4  -3   9   14.60    1.91
  -3   4  -9   13.08    1.85
  -4   3   9   17.55    1.97
   9   4  -3   17.26    1.80
   3   4   9   17.06    2.26
   4  -4   9   -1.36    1.29
  -4  -4   9    0.29    1.23
  -4   4  -9    1.79    1.03
   4   4   9   -0.66    1.41
  -4   4   9    1.66    0.99
   0   5   9    8.92    1.65
   9   0   5   10.31    1.14
  -5   0   9   10.65    1.49
   9   5   0    8.36    1.09
  -5  -1   9    0.76    1.01
   9  -1   5    0.24    0.68
   9   5   1    1.03    0.87
   1  -5   9    0.44    1.59
  -1   5   9   -1.70    0.97
   5   1   9   -0.36    1.04
   9   1   5    0.38    0.55
  -1  -5   9   -0.14    1.53
   1   5   9    0.86    1.35
   9   5  -1   -0.22    0.86
  -5   1   9   -0.58    0.88
   5  -1   9    0.00    1.15
   9  -2   5   27.82    1.96
   2  -5   9   23.79    3.11
  -5  -2   9   25.21    2.46
  -5   2   9   29.14    2.46
  -2  -5   9   26.97    3.14
   9   5  -2   29.42    2.27
   2   5   9   21.25    2.70
   5  -2   9   20.98    2.47
   9   2   5   25.53    1.63
   5   3   9   -0.41    1.17
   3  -5   9    3.16    1.49
   9  -3   5    0.90    0.84
  -5  -3   9   -1.28    1.10
  -3  -5   9   -0.41    1.31
   9   5  -3   -1.26    1.07
   3   5   9   -0.10    1.68
  -5   3   9   -0.27    0.89
   9   3   5    0.67    0.50
   5  -3   9   -2.37    1.15
   4  -5   9    2.35    1.42
  -4   5   9    1.41    1.01
  -9   4   5    0.04    0.70
  -5  -4   9    1.94    1.26
  -5   9   4    0.82    0.77
   5   4   9    1.28    1.44
   4   5   9   -2.29    1.78
  -4   9   5    1.50    0.81
  -4  -5   9    0.03    1.34
   9   4   5    0.93    0.62
  -5   4   9    1.51    0.93
   5  -4   9    0.11    1.31
  -5   5   9    2.51    1.07
   5   5   9    1.57    1.75
  -5  -5   9    2.04    1.37
   5  -5   9   -0.60    1.41
  -5   9   5    0.59    0.84
   6   0   9   28.13    3.28
   9   0   6   29.67    2.18
   0   6   9   34.79    3.13
  -6   0   9   35.29    2.70
  -6  -1   9   12.53    1.64
  -1   6   9   16.55    1.98
   1  -6   9   13.87    2.30
   9  -1   6   12.12    1.61
  -6   1   9   11.78    1.53
   9   1   6   16.88    1.50
   1   6   9   14.87    2.08
   6  -1   9   12.25    1.61
  -6  -2   9    7.58    1.36
   9  -2   6    7.06    1.12
   6   2   9    4.70    1.60
   2   6   9    8.37    2.02
  -6   2   9    6.25    1.27
  -2  -6   9    7.41    2.03
   9   2   6    8.02    0.92
   6  -2   9    7.02    1.44
   6   3   9    4.88    1.33
   9  -3   6    5.30    1.15
  -6  -3   9    5.20    1.33
  -6   9   3    5.32    0.93
   3  -6   9    4.37    1.69
  -6   3   9    4.83    1.28
   9   3   6    3.67    0.80
  -3  -6   9    3.73    1.81
   6  -3   9    4.47    1.40
   3   6   9    3.05    2.08
  -3   9   6    1.95    1.39
   6   4   9    2.81    1.54
  -6  -4   9    7.11    1.51
  -6   9   4    6.85    1.05
   4  -6   9    4.33    1.70
   4   6   9    5.12    2.55
  -4   9   6    8.33    1.30
  -6   4   9    6.30    1.28
   6  -4   9    3.04    1.43
  -4  -6   9    4.06    1.69
   5  -6   9   10.16    1.94
  -5   6   9   11.16    1.63
   6   5   9    9.88    1.94
  -6   9   5   10.12    1.32
  -5   9   6    9.86    1.34
   6  -5   9   13.55    2.00
   5   6   9   10.77    2.38
  -6   5   9   12.05    1.54
  -6   6   9    0.55    1.25
   6   6   9   -2.08    1.83
  -6   9   6    1.94    1.06
   7   0   9    0.26    1.02
   9   0   7    0.15    0.98
  -7   0   9    0.75    1.09
  -7   9   1   -0.40    0.75
   7   1   9    1.18    1.21
   1  -7   9   -0.71    2.08
  -7  -1   9   -0.71    1.11
  -1   7   9    0.69    1.13
   9  -1   7   -0.74    1.03
   7  -1   9   -0.71    1.17
  -7   1   9   -0.43    1.08
   9   1   7    1.03    0.96
   1   7   9   -2.19    1.62
  -1   9   7    0.42    0.99
   7   2   9   12.08    1.50
  -7   9   2   14.68    1.55
   9  -2   7   11.24    1.50
  -7  -2   9   10.76    1.54
   2   7   9    6.54    2.22
   9   2   7    9.68    1.25
  -7   2   9   11.18    1.50
  -2  -7   9   10.64    2.25
   7  -2   9    6.16    1.57
  -3   7   9    2.20    1.16
   3  -7   9    5.11    2.01
   7   3   9    3.31    1.28
  -7   9   3    2.27    0.92
  -7  -3   9    3.27    1.30
   3   7   9    3.77    2.37
  -3   9   7    2.02    1.03
   7  -3   9    2.07    1.50
  -7   3   9    1.73    1.18
  -7   9   4    0.31    0.98
   4  -7   9    2.57    1.87
   7   4   9    0.64    1.37
  -4   7   9   -0.14    1.92
   9  -4   7    2.98    1.38
  -4   9   7    0.36    1.27
   7  -4   9    0.53    1.45
  -7   4   9    1.64    1.21
   4   7   9   -2.75    2.61
   7   5   9   -0.60    1.37
   5  -7   9   -1.68    1.87
  -7   9   5    0.41    1.10
  -5   7   9   -2.04    1.25
   7  -5   9    0.10    1.75
  -7   5   9   -0.62    1.22
  -5   9   7    2.38    1.16
   5   7   9    2.29    2.58
   9   0   8    3.60    1.39
  -8   0   9    8.33    1.41
   0   9   8    7.90    1.39
   8   0   9    6.56    1.51
  -8   9   0   12.17    1.34
   0   8   9    6.76    1.74
  -8  -1   9    2.17    1.55
  -8   9   1    0.79    1.41
   8   1   9    2.29    1.31
   1   9   8    1.50    1.55
   9  -1   8   -0.50    1.35
   1   8   9   -0.83    1.63
   8  -1   9    2.11    1.42
  -8   1   9    0.91    1.13
  -8   9   2   34.99    2.57
   8   2   9   33.01    2.91
   2   9   8   27.43    3.48
   9  -2   8   41.01    3.19
   8  -2   9   32.11    3.19
   2   8   9   21.48    3.19
  -8   2   9   32.32    2.82
  -8   9   3    6.85    1.26
   3   9   8    8.94    2.25
   9  -3   8    5.16    1.69
   8   3   9    4.84    1.46
   3   8   9    7.77    2.66
   8  -3   9    4.65    1.76
  -8   3   9    6.01    1.39
   0   0  10    5.79    1.62
   0  -1  10    2.70    1.50
   0   1  10    3.97    1.50
  10   1   0    3.25    0.49
   1   0  10    2.26    1.61
   1  -1  10    8.66    1.87
   1   1  10   13.53    2.21
  10   1  -1   12.00    1.12
  10   2   0    5.24    0.75
   0   2  10    4.53    1.43
   2   0  10    4.13    1.67
  -2   0  10    2.26    2.02
   0  -2  10    5.56    1.70
   2   1  10    0.42    1.57
  -2  -1  10    1.39    1.38
  10   1  -2   -0.19    0.64
   1  -2  10   -0.42    1.42
  -1   2  10   -0.16    1.37
  10   2  -1    2.20    0.62
   2  -1  10   -0.56    1.34
   1   2  10   -0.08    1.46
  -2  -2  10  143.67    7.97
   2  -2  10  130.82    7.99
  10   2  -2  139.65    6.93
   2   2  10  126.53    8.08
  10   0  -3  122.88    5.92
   0  -3  10  108.59    8.19
   3   0  10  106.06    6.89
  -3   0  10  111.54    6.68
  10   1  -3   27.46    1.94
   3   1  10   21.78    2.61
  -3  -1  10   22.86    2.73
  -1   3  10   26.66    2.87
  -3   1  10   22.19    2.58
   3  -1  10   19.46    2.44
   1   3  10   24.48    2.93
   2  -3  10    1.76    1.71
  10   2  -3   -0.07    0.80
   3   2  10   -1.51    1.44
  -3  -2  10   -0.44    1.31
   2   3  10   -0.04    1.61
  -3   2  10    1.67    1.17
   3  -2  10   -2.08    1.35
  -2  -3  10   -2.58    1.31
  -3  -3  10    1.32    1.34
   3   3  10    0.07    1.68
   3  -3  10    0.07    1.56
  10   0   4   43.63    2.41
   0   4  10   38.25    4.99
   4   0  10   44.17    3.65
  -4   0  10   37.33    3.33
  -1   4  10   17.85    2.24
  10   1  -4   25.19    2.59
   4   1  10   23.90    2.94
  -4  -1  10   19.65    2.58
   1   4  10   19.65    2.67
  -1  -4  10   28.42    3.45
  -4   1  10   21.53    2.51
   4  -1  10   23.39    2.81
  -4  -2  10   62.03    4.29
   2  -4  10   65.10    4.80
   4   2  10   57.26    4.48
   4  -2  10   58.81    4.38
  -2  -4  10   67.06    4.77
   2   4  10   60.72    5.10
  -4   2  10   55.80    4.10
  -4  -3  10   31.44    3.32
   3  -4  10   27.93    3.50
   4   3  10   28.03    3.53
   3   4  10   28.37    3.25
   4  -3  10   32.82    3.29
  -4   3  10   30.92    2.83
  -3  -4  10   36.24    3.54
   4  -4  10    6.31    1.92
  -4  -4  10    8.72    1.74
  -4   4  10    4.20    1.46
  -5   0  10    9.73    1.58
   5   0  10    7.16    1.65
   0   5  10    5.20    1.91
  -5  -1  10    9.38    1.65
   1  -5  10   11.09    2.64
  -1   5  10    9.53    2.49
   5   1  10   11.20    1.80
  10  -1   5   12.84    1.52
  -5   1  10   10.28    1.69
  -1  -5  10   10.49    3.32
   1   5  10   10.63    2.33
   5   2  10   -0.72    1.41
  -5  -2  10    0.07    1.32
   2   5  10    1.72    2.12
  -5   2  10    2.47    1.22
   5  -2  10   -0.15    1.41
  -3   5  10   18.43    2.14
   3  -5  10   18.62    2.53
   5   3  10   12.91    2.15
  -5  -3  10   17.63    2.13
  -3  -5  10   13.33    2.26
   3   5  10   13.07    2.80
   5  -3  10   11.99    1.98
  -5   3  10   14.13    1.89
   4  -5  10   23.78    2.86
  -5  10   4   26.96    2.28
  -5  -4  10   24.38    3.19
   5   4  10   23.38    2.82
   4   5  10   21.03    3.04
  -4  -5  10   33.91    3.54
  -4  10   5   26.90    2.29
  -5   4  10   24.76    2.70
   5  -4  10   27.69    3.41
  -5  10   5   17.84    2.14
   5  -5  10   16.81    2.41
  -5   5  10   17.32    2.08
   5   5  10   15.43    2.66
  -5  -5  10   15.75    2.31
   6   0  10   10.67    1.71
  -6   0  10   11.09    1.66
   6   1  10    5.54    1.58
  -6  -1  10    3.51    1.37
   1   6  10    6.36    2.16
  -6   1  10    5.93    1.46
   6  -1  10    5.53    1.57
  -1  -6  10    7.12    2.19
  -6  -2  10  207.21   10.80
   6   2  10  191.56   10.68
   2   6  10  195.56   11.82
  -6   2  10  213.30   10.76
   6  -2  10  199.03   10.80
  -6  -3  10    8.42    1.77
   3  -6  10   10.29    2.26
   6   3  10    9.31    1.81
  -6  10   3    9.48    1.32
   3   6  10   10.15    2.84
  -3  -6  10    6.00    2.22
  -3  10   6   11.73    1.70
  -6   3  10   10.27    1.65
   6  -3  10    9.05    1.85
  -6  -4  10    8.30    1.92
  -6  10   4   11.17    1.41
  -4   6  10    9.67    1.66
   4  -6  10    9.57    2.19
   6   4  10    5.76    1.83
  -6   4  10   11.84    1.79
  -4  10   6    9.04    1.38
   4   6  10    4.40    2.81
   6  -4  10    8.54    2.02
  -4  -6  10    9.98    2.20
   0  -7  10    8.72    2.78
   7   0  10    2.45    1.62
   0   7  10    5.92    1.88
  -7   0  10    1.61    1.36
  -7  -1  10    5.87    1.58
   7   1  10    8.21    1.58
  -7   1  10    5.31    1.53
   7  -1  10    5.08    1.67
   1   7  10    3.53    2.41
  -7  -2  10    2.30    1.62
   7   2  10    2.20    1.57
  -7  10   2    1.47    1.07
   2   7  10   -0.25    2.54
   7  -2  10    1.59    1.69
  -2  -7  10   -2.46    2.27
  -7   2  10    1.45    1.43
  -2  10   7   -1.01    1.54
  -7  10   3   11.45    1.48
   7   3  10    8.12    1.80
  -7  -3  10   13.13    1.99
  -7   3  10   10.87    1.81
   7  -3  10   10.64    2.21
   3   7  10   11.42    3.41
   0  -1  11    0.37    1.97
   1   0  11    6.44    2.19
   1  -1  11   -0.49    1.95
   1   1  11    0.92    1.94
  -2   0  11   68.26    4.87
   2   0  11   59.90    5.28
   2   1  11   13.60    2.70
  -2   1  11   13.80    2.22
  -1  -2  11   13.18    2.88
   2  -1  11   13.52    2.54
   1   2  11   12.50    2.41
  -2  -2  11    0.84    1.76
   2  -2  11   -3.87    1.85
  -2   2  11   -1.45    1.68
   2   2  11    0.80    1.92
   3   0  11   11.56    2.42
   0  -3  11   10.41    3.63
   3   1  11    2.11    1.95
  -1   3  11    2.58    1.71
   3  -1  11    1.14    1.89
   1   3  11   -1.06    2.09
   3   2  11   16.21    2.74
   2  -3  11   18.45    2.92
   2   3  11   12.89    3.00
   3  -2  11   20.22    2.85
  -2  -3  11   23.24    4.14
  -3  -3  11    0.85    1.73
   3   3  11   -3.75    2.23
   3  -3  11   -0.26    2.02
  -3   3  11    0.39    1.51
   4   0  11   -2.85    1.69
  -4   0  11    3.12    1.65
  -4  -1  11    4.50    1.77
   4   1  11    3.22    2.02
  -4   1  11    0.68    1.53
   1   4  11    0.05    2.10
  -1  -4  11    2.42    3.54
   4  -1  11    1.17    1.87
   2  -4  11   26.64    3.46
   4   2  11   24.87    3.18
  -4  -2  11   27.88    3.51
  -4   2  11   35.09    3.23
   2   4  11   28.32    3.67
   4  -2  11   28.40    3.15
   4   3  11    9.35    3.19
  -4  -3  11   13.32    2.40
   3  -4  11   16.15    2.79
   4  -3  11   11.93    2.45
  -3  -4  11   16.75    2.73
  -4   3  11   14.43    2.12
   3   4  11   11.27    2.81
   4  -4  11   -2.77    2.04
  -4   4  11   -1.08    1.46
  -4  -4  11   -0.45    1.78
   4   4  11    0.09    2.24
   0   5  11   12.08    2.61
   5   0  11   10.18    2.03
  -5   0  11    8.92    1.95
  -5  -1  11   -1.10    1.64
   5   1  11   -3.19    1.77
   1   5  11   -2.33    2.44
   5  -1  11    2.46    1.86
  -5   1  11    0.30    1.55
  -5  -2  11   27.01    3.29
   2  -5  11   21.41    3.34
   5   2  11   22.65    2.77
   2   5  11   14.79    3.34
  -5   2  11   23.82    2.48
   5  -2  11   31.43    3.47
  -5  -3  11    0.31    1.86
   5   3  11    3.54    2.04
   3  -5  11    0.92    2.52
  -3  -5  11   -1.00    2.03
   3   5  11    0.64    2.88
  -5   3  11    1.11    1.60
   6   0  11   37.67    3.92
  -6   0  11   47.18    3.97
   6   1  11    9.47    2.08
  -6  -1  11    7.85    1.79
  -6   1  11   10.30    1.97
   6  -1  11    4.56    2.03
   1   6  11   10.01    3.08
   1   0  12    4.56    2.64
   1   1  12    9.75    2.74
   1  -1  12    5.21    2.77
   2   0  12   10.24    2.95
   1  -2  12    3.25    2.85
   2   1  12   12.51    3.21
   2  -1  12    6.12    2.89
  -2   1  12    4.00    2.15
   1   2  12    5.21    2.93
   2  -2  12   16.42    3.34
  -2   2  12   25.49    3.23
   2   2  12   18.31    3.47
   0   3  12    2.48    3.01
   3   0  12   -2.33    2.36
  -3  -1  12   -0.83    2.02
   3   1  12    3.06    2.48
   1   3  12   -0.28    2.87
  -1  -3  12   -0.78    4.24
   3  -1  12    6.07    2.59
   3   2  12   38.34    4.27
  -3  -2  12   42.87    4.68
   3  -2  12   43.38    5.07
   2   3  12   31.09    4.22
  -4   0  12  119.67    7.31
   4   0  12  103.88    7.47
   0   0   0    0.00    0.00
;
_shelx_hkl_checksum              81042
#END Tags that were not found in dictionaries
loop_
_space_group_symop_operation_xyz
'x, y, z'
'-x, -y, z'
'-x, y, -z'
'x, -y, -z'
'z, x, y'
'z, -x, -y'
'-z, -x, y'
'-z, x, -y'
'y, z, x'
'-y, z, -x'
'y, -z, -x'
'-y, -z, x'
'y+1/2, x+1/2, -z+1/2'
'-y+1/2, -x+1/2, -z+1/2'
'y+1/2, -x+1/2, z+1/2'
'-y+1/2, x+1/2, z+1/2'
'x+1/2, z+1/2, -y+1/2'
'-x+1/2, z+1/2, y+1/2'
'-x+1/2, -z+1/2, -y+1/2'
'x+1/2, -z+1/2, y+1/2'
'z+1/2, y+1/2, -x+1/2'
'z+1/2, -y+1/2, x+1/2'
'-z+1/2, y+1/2, x+1/2'
'-z+1/2, -y+1/2, -x+1/2'
'-x, -y, -z'
'x, y, -z'
'x, -y, z'
'-x, y, z'
'-z, -x, -y'
'-z, x, y'
'z, x, -y'
'z, -x, y'
'-y, -z, -x'
'y, -z, x'
'-y, z, x'
'y, z, -x'
'-y-1/2, -x-1/2, z-1/2'
'y-1/2, x-1/2, z-1/2'
'-y-1/2, x-1/2, -z-1/2'
'y-1/2, -x-1/2, -z-1/2'
'-x-1/2, -z-1/2, y-1/2'
'x-1/2, -z-1/2, -y-1/2'
'x-1/2, z-1/2, y-1/2'
'-x-1/2, z-1/2, -y-1/2'
'-z-1/2, -y-1/2, x-1/2'
'-z-1/2, y-1/2, -x-1/2'
'z-1/2, -y-1/2, -x-1/2'
'z-1/2, y-1/2, x-1/2'
loop_
_atom_site_label
_atom_site_type_symbol
_atom_site_fract_x
_atom_site_fract_y
_atom_site_fract_z
_atom_site_U_iso_or_equiv
_atom_site_adp_type
_atom_site_occupancy
_atom_site_site_symmetry_order
_atom_site_calc_flag
_atom_site_refinement_flags_posn
_atom_site_refinement_flags_adp
_atom_site_refinement_flags_occupancy
Lu1 Lu 0.2500 0.5000 0.0000 0.0075(3) Uani 1 8 d S T P
Rh1 Rh 0.2500 0.2500 0.2500 0.0037(3) Uani 1 6 d S T P
Ge1 Ge 0.0000 0.0000 0.0000 0.0215(9) Uani 1 24 d S T P
Ge2A Ge 0.0000 0.2669(6) 0.1323(5) 0.0149(6) Uani 0.366(5) 2 d S T P
Ge2B Ge 0.0000 0.3338(4) 0.1553(3) 0.0149(6) Uani 0.634(5) 2 d S T P
loop_
_atom_site_aniso_label
_atom_site_aniso_U_11
_atom_site_aniso_U_22
_atom_site_aniso_U_33
_atom_site_aniso_U_23
_atom_site_aniso_U_13
_atom_site_aniso_U_12
Lu1 0.0097(4) 0.0065(3) 0.0065(3) 0.000 0.000 0.000
Rh1 0.0037(3) 0.0037(3) 0.0037(3) 0.0000(2) 0.0000(2) 0.0000(2)
Ge1 0.0215(9) 0.0215(9) 0.0215(9) 0.000 0.000 0.000
Ge2A 0.0061(6) 0.0249(16) 0.0137(10) 0.0099(10) 0.000 0.000
Ge2B 0.0061(6) 0.0249(16) 0.0137(10) 0.0099(10) 0.000 0.000
loop_
_atom_type_symbol
_atom_type_description
_atom_type_scat_dispersion_real
_atom_type_scat_dispersion_imag
_atom_type_scat_source
Ge Ge 0.1547 1.8001 'International Tables Vol C Tables 4.2.6.8 and 6.1.1.4'
Rh Rh -1.1178 0.9187 'International Tables Vol C Tables 4.2.6.8 and 6.1.1.4'
Lu Lu -0.4720 5.8584 'International Tables Vol C Tables 4.2.6.8 and 6.1.1.4'
loop_
_geom_angle_atom_site_label_1
_geom_angle_atom_site_label_2
_geom_angle_atom_site_label_3
_geom_angle
_geom_angle_site_symmetry_1
_geom_angle_site_symmetry_3
Ge2B Lu1 Ge2B 123.17(4) . 17
Ge2B Lu1 Ge2B 54.70(10) . 26
Ge2B Lu1 Ge2B 177.38(12) 17 26
Ge2B Lu1 Ge2B 95.47(7) . 42_666
Ge2B Lu1 Ge2B 54.70(10) 17 42_666
Ge2B Lu1 Ge2B 123.17(4) 26 42_666
Ge2B Lu1 Ge2B 177.38(12) . 18_554
Ge2B Lu1 Ge2B 58.91(12) 17 18_554
Ge2B Lu1 Ge2B 123.17(4) 26 18_554
Ge2B Lu1 Ge2B 84.59(7) 42_666 18_554
Ge2B Lu1 Ge2B 84.59(7) . 25_565
Ge2B Lu1 Ge2B 123.17(4) 17 25_565
Ge2B Lu1 Ge2B 58.91(12) 26 25_565
Ge2B Lu1 Ge2B 177.38(12) 42_666 25_565
Ge2B Lu1 Ge2B 95.47(7) 18_554 25_565
Ge2B Lu1 Ge2B 123.17(4) . 41_665
Ge2B Lu1 Ge2B 84.59(7) 17 41_665
Ge2B Lu1 Ge2B 95.47(7) 26 41_665
Ge2B Lu1 Ge2B 58.91(12) 42_666 41_665
Ge2B Lu1 Ge2B 54.70(10) 18_554 41_665
Ge2B Lu1 Ge2B 123.17(4) 25_565 41_665
Ge2B Lu1 Ge2B 58.91(12) . 2_565
Ge2B Lu1 Ge2B 95.47(7) 17 2_565
Ge2B Lu1 Ge2B 84.59(7) 26 2_565
Ge2B Lu1 Ge2B 123.17(4) 42_666 2_565
Ge2B Lu1 Ge2B 123.17(4) 18_554 2_565
Ge2B Lu1 Ge2B 54.70(10) 25_565 2_565
Ge2B Lu1 Ge2B 177.38(12) 41_665 2_565
Ge2B Lu1 Rh1 88.69(6) . 26
Ge2B Lu1 Rh1 132.27(3) 17 26
Ge2B Lu1 Rh1 47.73(3) 26 26
Ge2B Lu1 Rh1 91.31(6) 42_666 26
Ge2B Lu1 Rh1 88.69(6) 18_554 26
Ge2B Lu1 Rh1 91.31(6) 25_565 26
Ge2B Lu1 Rh1 47.73(3) 41_665 26
Ge2B Lu1 Rh1 132.27(3) 2_565 26
Ge2B Lu1 Rh1 91.31(6) . 27_565
Ge2B Lu1 Rh1 47.73(3) 17 27_565
Ge2B Lu1 Rh1 132.27(3) 26 27_565
Ge2B Lu1 Rh1 88.69(6) 42_666 27_565
Ge2B Lu1 Rh1 91.31(6) 18_554 27_565
Ge2B Lu1 Rh1 88.69(6) 25_565 27_565
Ge2B Lu1 Rh1 132.27(3) 41_665 27_565
Ge2B Lu1 Rh1 47.73(3) 2_565 27_565
Rh1 Lu1 Rh1 180.0 26 27_565
Ge2B Lu1 Rh1 47.73(3) . .
Ge2B Lu1 Rh1 88.69(6) 17 .
Ge2B Lu1 Rh1 88.69(6) 26 .
Ge2B Lu1 Rh1 47.73(3) 42_666 .
Ge2B Lu1 Rh1 132.27(3) 18_554 .
Ge2B Lu1 Rh1 132.27(3) 25_565 .
Ge2B Lu1 Rh1 91.31(6) 41_665 .
Ge2B Lu1 Rh1 91.31(6) 2_565 .
Rh1 Lu1 Rh1 90.0 26 .
Rh1 Lu1 Rh1 90.0 27_565 .
Ge2B Lu1 Rh1 132.27(3) . 4_565
Ge2B Lu1 Rh1 91.31(6) 17 4_565
Ge2B Lu1 Rh1 91.31(6) 26 4_565
Ge2B Lu1 Rh1 132.27(3) 42_666 4_565
Ge2B Lu1 Rh1 47.73(3) 18_554 4_565
Ge2B Lu1 Rh1 47.73(3) 25_565 4_565
Ge2B Lu1 Rh1 88.69(6) 41_665 4_565
Ge2B Lu1 Rh1 88.69(6) 2_565 4_565
Rh1 Lu1 Rh1 90.0 26 4_565
Rh1 Lu1 Rh1 90.0 27_565 4_565
Rh1 Lu1 Rh1 180.0 . 4_565
Ge2A Rh1 Ge2A 140.48(18) . 45_666
Ge2A Rh1 Ge2A 139.8(2) . 42_666
Ge2A Rh1 Ge2A 72.4(2) 45_666 42_666
Ge2A Rh1 Ge2A 94.0(3) . 14
Ge2A Rh1 Ge2A 72.4(2) 45_666 14
Ge2A Rh1 Ge2A 72.4(2) 42_666 14
Ge2A Rh1 Ge2A 72.4(2) . 9
Ge2A Rh1 Ge2A 139.8(2) 45_666 9
Ge2A Rh1 Ge2A 94.0(3) 42_666 9
Ge2A Rh1 Ge2A 140.48(18) 14 9
Ge2A Rh1 Ge2A 72.4(2) . 5
Ge2A Rh1 Ge2A 94.0(3) 45_666 5
Ge2A Rh1 Ge2A 140.48(18) 42_666 5
Ge2A Rh1 Ge2A 139.8(2) 14 5
Ge2A Rh1 Ge2A 72.4(2) 9 5
Ge2A Rh1 Ge2B 134.66(8) . 45_666
Ge2A Rh1 Ge2B 14.57(9) 45_666 45_666
Ge2A Rh1 Ge2B 82.89(18) 42_666 45_666
Ge2A Rh1 Ge2B 84.92(15) 14 45_666
Ge2A Rh1 Ge2B 131.16(11) 9 45_666
Ge2A Rh1 Ge2B 79.58(19) 5 45_666
Ge2A Rh1 Ge2B 131.16(11) . 42_666
Ge2A Rh1 Ge2B 84.92(15) 45_666 42_666
Ge2A Rh1 Ge2B 14.57(9) 42_666 42_666
Ge2A Rh1 Ge2B 82.89(18) 14 42_666
Ge2A Rh1 Ge2B 79.58(19) 9 42_666
Ge2A Rh1 Ge2B 134.66(8) 5 42_666
Ge2B Rh1 Ge2B 93.80(11) 45_666 42_666
Ge2A Rh1 Ge2B 79.58(19) . 14
Ge2A Rh1 Ge2B 82.89(18) 45_666 14
Ge2A Rh1 Ge2B 84.92(15) 42_666 14
Ge2A Rh1 Ge2B 14.57(9) 14 14
Ge2A Rh1 Ge2B 134.66(8) 9 14
Ge2A Rh1 Ge2B 131.16(11) 5 14
Ge2B Rh1 Ge2B 93.80(11) 45_666 14
Ge2B Rh1 Ge2B 93.80(11) 42_666 14
Ge2A Rh1 Ge2B 84.92(15) . 9
Ge2A Rh1 Ge2B 131.16(11) 45_666 9
Ge2A Rh1 Ge2B 79.58(19) 42_666 9
Ge2A Rh1 Ge2B 134.66(8) 14 9
Ge2A Rh1 Ge2B 14.57(9) 9 9
Ge2A Rh1 Ge2B 82.89(18) 5 9
Ge2B Rh1 Ge2B 126.44(10) 45_666 9
Ge2B Rh1 Ge2B 65.20(15) 42_666 9
Ge2B Rh1 Ge2B 133.86(10) 14 9
Ge2A Rh1 Ge2B 82.89(18) . 5
Ge2A Rh1 Ge2B 79.58(19) 45_666 5
Ge2A Rh1 Ge2B 134.66(8) 42_666 5
Ge2A Rh1 Ge2B 131.16(11) 14 5
Ge2A Rh1 Ge2B 84.92(15) 9 5
Ge2A Rh1 Ge2B 14.57(9) 5 5
Ge2B Rh1 Ge2B 65.20(15) 45_666 5
Ge2B Rh1 Ge2B 133.86(10) 42_666 5
Ge2B Rh1 Ge2B 126.44(10) 14 5
Ge2B Rh1 Ge2B 93.80(11) 9 5
Ge2A Rh1 Ge2B 14.57(9) . .
Ge2A Rh1 Ge2B 134.66(8) 45_666 .
Ge2A Rh1 Ge2B 131.15(11) 42_666 .
Ge2A Rh1 Ge2B 79.58(19) 14 .
Ge2A Rh1 Ge2B 82.89(18) 9 .
Ge2A Rh1 Ge2B 84.92(15) 5 .
Ge2B Rh1 Ge2B 133.86(10) 45_666 .
Ge2B Rh1 Ge2B 126.44(10) 42_666 .
Ge2B Rh1 Ge2B 65.20(15) 14 .
Ge2B Rh1 Ge2B 93.80(11) 9 .
Ge2B Rh1 Ge2B 93.80(11) 5 .
Ge2A Ge1 Ge2A 113.45(6) . 33
Ge2A Ge1 Ge2A 66.55(6) . 9
Ge2A Ge1 Ge2A 180.00(17) 33 9
Ge2A Ge1 Ge2A 113.45(6) . 29
Ge2A Ge1 Ge2A 66.55(6) 33 29
Ge2A Ge1 Ge2A 113.45(6) 9 29
Ge2A Ge1 Ge2A 66.55(6) . 5
Ge2A Ge1 Ge2A 113.45(6) 33 5
Ge2A Ge1 Ge2A 66.55(6) 9 5
Ge2A Ge1 Ge2A 180.0 29 5
Ge2A Ge1 Ge2A 180.0 . 25
Ge2A Ge1 Ge2A 66.55(6) 33 25
Ge2A Ge1 Ge2A 113.45(6) 9 25
Ge2A Ge1 Ge2A 66.55(6) 29 25
Ge2A Ge1 Ge2A 113.45(6) 5 25
Ge2A Ge1 Ge2A 113.45(6) . 34
Ge2A Ge1 Ge2A 127.25(19) 33 34
Ge2A Ge1 Ge2A 52.75(19) 9 34
Ge2A Ge1 Ge2A 113.45(6) 29 34
Ge2A Ge1 Ge2A 66.55(6) 5 34
Ge2A Ge1 Ge2A 66.55(6) 25 34
Ge2A Ge1 Ge2A 113.45(6) . 6
Ge2A Ge1 Ge2A 113.45(6) 33 6
Ge2A Ge1 Ge2A 66.55(6) 9 6
Ge2A Ge1 Ge2A 52.75(19) 29 6
Ge2A Ge1 Ge2A 127.25(19) 5 6
Ge2A Ge1 Ge2A 66.55(6) 25 6
Ge2A Ge1 Ge2A 66.55(6) 34 6
Ge2A Ge1 Ge2A 66.55(6) . 30
Ge2A Ge1 Ge2A 66.55(6) 33 30
Ge2A Ge1 Ge2A 113.45(6) 9 30
Ge2A Ge1 Ge2A 127.25(19) 29 30
Ge2A Ge1 Ge2A 52.75(19) 5 30
Ge2A Ge1 Ge2A 113.45(6) 25 30
Ge2A Ge1 Ge2A 113.45(6) 34 30
Ge2A Ge1 Ge2A 180.00(19) 6 30
Ge2A Ge1 Ge2A 66.55(6) . 10
Ge2A Ge1 Ge2A 52.75(19) 33 10
Ge2A Ge1 Ge2A 127.25(19) 9 10
Ge2A Ge1 Ge2A 66.55(6) 29 10
Ge2A Ge1 Ge2A 113.45(6) 5 10
Ge2A Ge1 Ge2A 113.45(6) 25 10
Ge2A Ge1 Ge2A 180.0(2) 34 10
Ge2A Ge1 Ge2A 113.45(6) 6 10
Ge2A Ge1 Ge2A 66.55(6) 30 10
Ge2A Ge1 Ge2A 127.25(19) . 2
Ge2A Ge1 Ge2A 66.55(6) 33 2
Ge2A Ge1 Ge2A 113.45(6) 9 2
Ge2A Ge1 Ge2A 113.45(6) 29 2
Ge2A Ge1 Ge2A 66.55(6) 5 2
Ge2A Ge1 Ge2A 52.75(19) 25 2
Ge2A Ge1 Ge2A 66.55(6) 34 2
Ge2A Ge1 Ge2A 113.45(6) 6 2
Ge2A Ge1 Ge2A 66.55(6) 30 2
Ge2A Ge1 Ge2A 113.45(6) 10 2
Ge2A Ge1 Ge2A 52.75(19) . 26
Ge2A Ge1 Ge2A 113.45(6) 33 26
Ge2A Ge1 Ge2A 66.55(6) 9 26
Ge2A Ge1 Ge2A 66.55(6) 29 26
Ge2A Ge1 Ge2A 113.45(6) 5 26
Ge2A Ge1 Ge2A 127.25(19) 25 26
Ge2A Ge1 Ge2A 113.45(6) 34 26
Ge2A Ge1 Ge2A 66.55(6) 6 26
Ge2A Ge1 Ge2A 113.45(6) 30 26
Ge2A Ge1 Ge2A 66.55(6) 10 26
Ge2A Ge1 Ge2A 180.0 2 26
Ge2B Ge2A Ge2A 108.9(5) . 26
Ge2B Ge2A Rh1 85.4(3) . .
Ge2A Ge2A Rh1 115.15(9) 26 .
Ge2B Ge2A Rh1 85.4(3) . 28
Ge2A Ge2A Rh1 115.15(9) 26 28
Rh1 Ge2A Rh1 129.14(18) . 28
Ge2B Ge2A Ge2B 95.8(6) . 26
Ge2A Ge2A Ge2B 13.09(9) 26 26
Rh1 Ge2A Ge2B 115.33(9) . 26
Rh1 Ge2A Ge2B 115.33(9) 28 26
Ge2B Ge2A Ge1 172.6(6) . .
Ge2A Ge2A Ge1 63.63(9) 26 .
Rh1 Ge2A Ge1 97.70(14) . .
Rh1 Ge2A Ge1 97.70(14) 28 .
Ge2B Ge2A Ge1 76.72(11) 26 .
Ge2B Ge2A Ge2A 129.7(5) . 30
Ge2A Ge2A Ge2A 114.31(11) 26 30
Rh1 Ge2A Ge2A 98.1(2) . 30
Rh1 Ge2A Ge2A 53.81(10) 28 30
Ge2B Ge2A Ge2A 125.86(11) 26 30
Ge1 Ge2A Ge2A 56.73(3) . 30
Ge2B Ge2A Ge2A 129.7(5) . 5
Ge2A Ge2A Ge2A 114.31(11) 26 5
Rh1 Ge2A Ge2A 53.81(10) . 5
Rh1 Ge2A Ge2A 98.1(2) 28 5
Ge2B Ge2A Ge2A 125.86(11) 26 5
Ge1 Ge2A Ge2A 56.73(3) . 5
Ge2A Ge2A Ge2A 47.8(2) 30 5
Ge2B Ge2A Ge2A 121.4(2) . 10
Ge2A Ge2A Ge2A 66.12(11) 26 10
Rh1 Ge2A Ge2A 152.2(2) . 10
Rh1 Ge2A Ge2A 53.81(10) 28 10
Ge2B Ge2A Ge2A 72.48(11) 26 10
Ge1 Ge2A Ge2A 56.73(3) . 10
Ge2A Ge2A Ge2A 60.000(1) 30 10
Ge2A Ge2A Ge2A 99.27(16) 5 10
Ge2B Ge2A Ge2A 121.4(2) . 9
Ge2A Ge2A Ge2A 66.12(11) 26 9
Rh1 Ge2A Ge2A 53.81(10) . 9
Rh1 Ge2A Ge2A 152.2(2) 28 9
Ge2B Ge2A Ge2A 72.48(11) 26 9
Ge1 Ge2A Ge2A 56.73(3) . 9
Ge2A Ge2A Ge2A 99.27(16) 30 9
Ge2A Ge2A Ge2A 60.000(1) 5 9
Ge2A Ge2A Ge2A 109.469(2) 10 9
Ge2B Ge2A Lu1 61.0(3) . .
Ge2A Ge2A Lu1 68.83(8) 26 .
Rh1 Ge2A Lu1 64.93(6) . .
Rh1 Ge2A Lu1 143.9(2) 28 .
Ge2B Ge2A Lu1 60.28(8) 26 .
Ge1 Ge2A Lu1 114.16(12) . .
Ge2A Ge2A Lu1 160.73(15) 30 .
Ge2A Ge2A Lu1 113.06(8) 5 .
Ge2A Ge2A Lu1 132.26(19) 10 .
Ge2A Ge2A Lu1 63.81(12) 9 .
Ge2B Ge2A Lu1 61.0(3) . 25_565
Ge2A Ge2A Lu1 68.83(8) 26 25_565
Rh1 Ge2A Lu1 143.9(2) . 25_565
Rh1 Ge2A Lu1 64.93(6) 28 25_565
Ge2B Ge2A Lu1 60.28(8) 26 25_565
Ge1 Ge2A Lu1 114.16(12) . 25_565
Ge2A Ge2A Lu1 113.06(8) 30 25_565
Ge2A Ge2A Lu1 160.73(15) 5 25_565
Ge2A Ge2A Lu1 63.81(12) 10 25_565
Ge2A Ge2A Lu1 132.26(19) 9 25_565
Lu1 Ge2A Lu1 86.01(12) . 25_565
Ge2A Ge2B Rh1 80.0(2) . .
Ge2A Ge2B Rh1 80.0(2) . 28
Rh1 Ge2B Rh1 126.33(10) . 28
Ge2A Ge2B Ge2A 58.0(5) . 26
Rh1 Ge2B Ge2A 105.17(6) . 26
Rh1 Ge2B Ge2A 105.17(6) 28 26
Ge2A Ge2B Ge2B 136.4(3) . 14
Rh1 Ge2B Ge2B 57.40(8) . 14
Rh1 Ge2B Ge2B 116.34(12) 28 14
Ge2A Ge2B Ge2B 137.38(11) 26 14
Ge2A Ge2B Ge2B 136.4(3) . 13_455
Rh1 Ge2B Ge2B 116.34(12) . 13_455
Rh1 Ge2B Ge2B 57.40(8) 28 13_455
Ge2A Ge2B Ge2B 137.38(11) 26 13_455
Ge2B Ge2B Ge2B 66.81(9) 14 13_455
Ge2A Ge2B Ge2B 71.1(5) . 26
Rh1 Ge2B Ge2B 109.76(6) . 26
Rh1 Ge2B Ge2B 109.76(6) 28 26
Ge2A Ge2B Ge2B 13.09(9) 26 26
Ge2B Ge2B Ge2B 128.87(9) 14 26
Ge2B Ge2B Ge2B 128.87(9) 13_455 26
Ge2A Ge2B Lu1 108.4(4) . .
Rh1 Ge2B Lu1 69.045(16) . .
Rh1 Ge2B Lu1 164.24(9) 28 .
Ge2A Ge2B Lu1 70.36(10) 26 .
Ge2B Ge2B Lu1 67.07(8) 14 .
Ge2B Ge2B Lu1 115.14(7) 13_455 .
Ge2B Ge2B Lu1 62.65(5) 26 .
Ge2A Ge2B Lu1 108.4(4) . 25_565
Rh1 Ge2B Lu1 164.24(9) . 25_565
Rh1 Ge2B Lu1 69.045(16) 28 25_565
Ge2A Ge2B Lu1 70.36(10) 26 25_565
Ge2B Ge2B Lu1 115.14(7) 14 25_565
Ge2B Ge2B Lu1 67.07(8) 13_455 25_565
Ge2B Ge2B Lu1 62.65(5) 26 25_565
Lu1 Ge2B Lu1 95.41(7) . 25_565
Ge2A Ge2B Lu1 95.3(5) . 5
Rh1 Ge2B Lu1 66.47(5) . 5
Rh1 Ge2B Lu1 66.47(5) 28 5
Ge2A Ge2B Lu1 153.25(10) 26 5
Ge2B Ge2B Lu1 61.33(9) 14 5
Ge2B Ge2B Lu1 61.33(8) 13_455 5
Ge2B Ge2B Lu1 166.34(6) 26 5
Lu1 Ge2B Lu1 124.23(6) . 5
Lu1 Ge2B Lu1 124.23(6) 25_565 5
loop_
_geom_bond_atom_site_label_1
_geom_bond_atom_site_label_2
_geom_bond_distance
_geom_bond_site_symmetry_2
Lu1 Ge2B 2.9966(16) .
Lu1 Ge2B 2.9966(16) 17
Lu1 Ge2B 2.9966(16) 26
Lu1 Ge2B 2.9966(16) 42_666
Lu1 Ge2B 2.9966(16) 18_554
Lu1 Ge2B 2.9966(16) 25_565
Lu1 Ge2B 2.9966(16) 41_665
Lu1 Ge2B 2.9966(16) 2_565
Lu1 Rh1 3.13457(18) 26
Lu1 Rh1 3.13457(18) 27_565
Lu1 Rh1 3.13457(18) .
Lu1 Rh1 3.13457(18) 4_565
Rh1 Ge2A 2.4543(19) .
Rh1 Ge2A 2.4543(19) 45_666
Rh1 Ge2A 2.4543(19) 42_666
Rh1 Ge2A 2.4543(19) 14
Rh1 Ge2A 2.4543(19) 9
Rh1 Ge2A 2.4543(19) 5
Rh1 Ge2B 2.4839(11) 45_666
Rh1 Ge2B 2.4839(11) 42_666
Rh1 Ge2B 2.4839(11) 14
Rh1 Ge2B 2.4839(11) 9
Rh1 Ge2B 2.4839(11) 5
Rh1 Ge2B 2.4839(11) .
Ge1 Ge2A 2.641(6) .
Ge1 Ge2A 2.641(6) 33
Ge1 Ge2A 2.641(6) 9
Ge1 Ge2A 2.641(6) 29
Ge1 Ge2A 2.641(6) 5
Ge1 Ge2A 2.641(6) 25
Ge1 Ge2A 2.641(6) 34
Ge1 Ge2A 2.641(6) 6
Ge1 Ge2A 2.641(6) 30
Ge1 Ge2A 2.641(6) 10
Ge1 Ge2A 2.641(6) 2
Ge1 Ge2A 2.641(6) 26
Ge2A Ge2B 0.627(4) .
Ge2A Ge2A 2.347(9) 26
Ge2A Rh1 2.4543(19) 28
Ge2A Ge2B 2.618(4) 26
Ge2A Ge2A 2.898(7) 30
Ge2A Ge2A 2.898(7) 5
Ge2A Ge2A 2.898(7) 10
Ge2A Ge2A 2.898(7) 9
Ge2A Lu1 3.250(4) 25_565
Ge2B Rh1 2.4839(11) 28
Ge2B Ge2A 2.618(4) 26
Ge2B Ge2B 2.677(5) 14
Ge2B Ge2B 2.677(5) 13_455
Ge2B Ge2B 2.753(5) 26
Ge2B Lu1 2.9966(16) 25_565
Ge2B Lu1 3.145(2) 5
#BEGIN Loops that were not found in dictionaries:
loop_
_publcif_info_datablock.id
_publcif_info_datablock.publ_exptl
_publcif_info_datablock.publ_geom
_publcif_info_datablock.structure
{ff9adc97-e1f9-4016-8756-d3a9d9d0c165} y y y
#END Loops that were not found in dictionaries
