#------------------------------------------------------------------------------
#$Date: 2016-02-13 21:28:24 +0200 (Sat, 13 Feb 2016) $
#$Revision: 176429 $
#$URL: svn://www.crystallography.net/cod/cif/4/00/24/4002405.cif $
#------------------------------------------------------------------------------
#
# This file is available in the Crystallography Open Database (COD),
# http://www.crystallography.net/
#
# All data on this site have been placed in the public domain by the
# contributors.
#
data_4002405
loop_
_publ_author_name
'Leon-Escamilla, E.A.'
'Corbett, J.D.'
_publ_section_title
;
 Hydrogen in polar intermetallics. Binary pnictides of divalent metals
 with Mn5 Si3-type structures and their isotypic ternary hydride solutions
;
_journal_name_full               'Chemistry of Materials (1,1989-)'
_journal_page_first              4782
_journal_page_last               4792
_journal_volume                  18
_journal_year                    2006
_chemical_formula_sum            'H Sb3 Sm5'
_chemical_name_systematic        'Sm5 Sb3 H'
_space_group_IT_number           193
_symmetry_space_group_name_Hall  '-P 6c 2'
_symmetry_space_group_name_H-M   'P 63/m c m'
_cell_angle_alpha                90
_cell_angle_beta                 90
_cell_angle_gamma                120
_cell_formula_units_Z            2
_cell_length_a                   9.1043
_cell_length_b                   9.1043
_cell_length_c                   6.3451
_cell_volume                     455.473
_citation_journal_id_ASTM        CMATEX
_cod_data_source_file            Leon-Escamilla_CMATEX_2006_1308.cif
_cod_data_source_block           H1Sb3Sm5
_cod_original_cell_volume        455.4725
_cod_original_formula_sum        'H1 Sb3 Sm5'
_cod_database_code               4002405
loop_
_symmetry_equiv_pos_as_xyz
x,y,z
x-y,x,z+1/2
-y,x-y,z
-x,-y,z+1/2
-x+y,-x,z
y,-x+y,z+1/2
-y,-x,-z
x-y,-y,-z+1/2
x,x-y,-z
y,x,-z+1/2
-x+y,y,-z
-x,-x+y,-z+1/2
-x,-y,-z
-x+y,-x,-z-1/2
y,-x+y,-z
x,y,-z-1/2
x-y,x,-z
-y,x-y,-z-1/2
y,x,z
-x+y,y,z-1/2
-x,-x+y,z
-y,-x,z-1/2
x-y,-y,z
x,x-y,z-1/2
loop_
_atom_site_label
_atom_site_type_symbol
_atom_site_fract_x
_atom_site_fract_y
_atom_site_fract_z
_atom_site_occupancy
_atom_site_U_iso_or_equiv
Sm2 Sm 0.24958 0 0.25 1 0.0
H1 H 0 0 0 1 0.0
Sm1 Sm 0.3333 0.6667 0 1 0.0
Sb1 Sb 0.61285 0 0.25 1 0.0
