#------------------------------------------------------------------------------
#$Date: 2016-02-13 14:50:18 +0200 (Sat, 13 Feb 2016) $
#$Revision: 176428 $
#$URL: svn://www.crystallography.net/cod/cif/4/00/23/4002347.cif $
#------------------------------------------------------------------------------
#
# This file is available in the Crystallography Open Database (COD),
# http://www.crystallography.net/
#
# All data on this site have been placed in the public domain by the
# contributors.
#
data_4002347
loop_
_publ_author_name
'Kennedy, B.J.'
'Hunter, B.A.'
_publ_section_title
;
 Cation disorder in Pb-doped Sr Bi2 Nb2 O9
;
_journal_name_full               'Chemistry of Materials (1,1989-)'
_journal_page_first              4612
_journal_page_last               4617
_journal_volume                  13
_journal_year                    2001
_chemical_formula_sum            'Bi2.01 Nb2 O9 Pb0.38 Sr0.63'
_chemical_name_systematic        'Pb0.38 Sr0.63 Bi2.01 Nb2 O9'
_space_group_IT_number           36
_symmetry_space_group_name_Hall  'A -2 2a'
_symmetry_space_group_name_H-M   'A 21 a m'
_cell_angle_alpha                90
_cell_angle_beta                 90
_cell_angle_gamma                90
_cell_formula_units_Z            4
_cell_length_a                   5.514
_cell_length_b                   5.5109
_cell_length_c                   25.28779
_cell_volume                     768.423
_citation_journal_id_ASTM        CMATEX
_cod_data_source_file            Kennedy_CMATEX_2001_1463.cif
_cod_data_source_block           Bi2.01Nb2O9Pb0.38Sr0.63
_cod_original_cell_volume        768.4227
_cod_original_sg_symbol_Hall     'C 2c -2 (z,y,-x)'
_cod_database_code               4002347
loop_
_symmetry_equiv_pos_as_xyz
x,y,z
x+1/2,-y,-z
x,y,-z
x+1/2,-y,z
x,y+1/2,z+1/2
x+1/2,-y+1/2,-z+1/2
x,y+1/2,-z+1/2
x+1/2,-y+1/2,z+1/2
loop_
_atom_site_label
_atom_site_type_symbol
_atom_site_fract_x
_atom_site_fract_y
_atom_site_fract_z
_atom_site_occupancy
_atom_site_U_iso_or_equiv
O2 O-2 0.456 0.791 0.3411 1 0.0
O4 O-2 0.676 0.963 0.083 1 0.0
O5 O-2 0.738 0.972 0.5699 1 0.0
Bi2 Bi+3 0.4992 0.7379 0.2011 0.84 0.0
O3 O-2 0.722 -0.004 0.25 1 0.0
Pb1 Pb+2 0 0.2367 0 0.12 0.0
Sr1 Sr+2 0 0.2367 0 0.55 0.0
Bi1 Bi+3 0 0.2367 0 0.33 0.0
Nb1 Nb+5 0.4732 0.7522 0.4132 1 0.0
O1 O-2 0.458 0.199 0 1 0.0
Sr2 Sr+2 0.4992 0.7379 0.2011 0.04 0.0
Pb2 Pb+2 0.4992 0.7379 0.2011 0.13 0.0
