#------------------------------------------------------------------------------
#$Date: 2017-11-07 02:28:15 +0200 (Tue, 07 Nov 2017) $
#$Revision: 202663 $
#$URL: file:///home/coder/svn-repositories/cod/cif/4/00/28/4002853.cif $
#------------------------------------------------------------------------------
#
# This file is available in the Crystallography Open Database (COD),
# http://www.crystallography.net/
#
# All data on this site have been placed in the public domain by the
# contributors.
#
data_4002853
loop_
_publ_author_name
'Zhao, Jing'
'Islam, Saiful M.'
'Hao, Shiqiang'
'Tan, Gangjian'
'Su, Xianli'
'Chen, Haijie'
'Lin, Wenwen'
'Li, Rukang'
'Wolverton, Chris'
'Kanatzidis, Mercouri G.'
_publ_section_title
;
 Semiconducting Pavonites CdMBi4Se8 (M = Sn and Pb) and Their
 Thermoelectric Properties
;
_journal_issue                   19
_journal_name_full               'Chemistry of Materials'
_journal_page_first              8494
_journal_paper_doi               10.1021/acs.chemmater.7b03328
_journal_volume                  29
_journal_year                    2017
_chemical_formula_moiety         '0.5(Bi8.08 Cd1.97 Pb1.92 Se16)'
_chemical_formula_sum            'Bi4.04 Cd0.99 Pb0.96 Se8'
_chemical_formula_weight         1785.58
_space_group_crystal_system      monoclinic
_space_group_IT_number           12
_space_group_name_Hall           '-C 2y'
_space_group_name_H-M_alt        'C 1 2/m 1'
_symmetry_space_group_name_Hall  '-C 2y'
_symmetry_space_group_name_H-M   'C 1 2/m 1'
_audit_creation_date             2017-03-14
_audit_creation_method
;
Olex2 1.2
(compiled 2017.01.04 svn.r3372 for OlexSys, GUI svn.r5289)
;
_cell_angle_alpha                90
_cell_angle_beta                 115.56(3)
_cell_angle_gamma                90
_cell_formula_units_Z            2
_cell_length_a                   13.713(3)
_cell_length_b                   4.1665(8)
_cell_length_c                   15.228(3)
_cell_measurement_reflns_used    2882
_cell_measurement_temperature    293(2)
_cell_measurement_theta_max      29.57
_cell_measurement_theta_min      2.97
_cell_volume                     784.9(3)
_computing_molecular_graphics    'Olex2 (Dolomanov et al., 2009)'
_computing_publication_material  'Olex2 (Dolomanov et al., 2009)'
_computing_structure_refinement  'XL (Sheldrick, 2008)'
_computing_structure_solution    'XS (Sheldrick, 2008)'
_diffrn_ambient_temperature      293(2)
_diffrn_measured_fraction_theta_full 0.998
_diffrn_measured_fraction_theta_max 0.998
_diffrn_measurement_device_type  'STOE IPDS 2T'
_diffrn_measurement_method       'rotation method'
_diffrn_radiation_type           MoK\a
_diffrn_radiation_wavelength     0.71073
_diffrn_reflns_av_R_equivalents  0.0499
_diffrn_reflns_av_unetI/netI     0.0375
_diffrn_reflns_Laue_measured_fraction_full 0.998
_diffrn_reflns_Laue_measured_fraction_max 0.998
_diffrn_reflns_limit_h_max       16
_diffrn_reflns_limit_h_min       -18
_diffrn_reflns_limit_k_max       5
_diffrn_reflns_limit_k_min       -5
_diffrn_reflns_limit_l_max       20
_diffrn_reflns_limit_l_min       -20
_diffrn_reflns_number            3751
_diffrn_reflns_point_group_measured_fraction_full 0.998
_diffrn_reflns_point_group_measured_fraction_max 0.998
_diffrn_reflns_theta_full        25.242
_diffrn_reflns_theta_max         29.132
_diffrn_reflns_theta_min         2.966
_exptl_absorpt_coefficient_mu    75.210
_exptl_absorpt_correction_T_max  0.3255
_exptl_absorpt_correction_T_min  0.0439
_exptl_absorpt_correction_type   integration
_exptl_crystal_colour            black
_exptl_crystal_density_diffrn    7.555
_exptl_crystal_description       cube
_exptl_crystal_F_000             1467
_exptl_crystal_size_max          0.049
_exptl_crystal_size_mid          0.034
_exptl_crystal_size_min          0.02
_refine_diff_density_max         5.393
_refine_diff_density_min         -2.582
_refine_diff_density_rms         0.497
_refine_ls_extinction_coef       0.00095(10)
_refine_ls_extinction_expression Fc^*^=kFc[1+0.001xFc^2^\l^3^/sin(2\q)]^-1/4^
_refine_ls_extinction_method     'SHELXL-2014/7 (Sheldrick 2014'
_refine_ls_goodness_of_fit_ref   1.066
_refine_ls_hydrogen_treatment    undef
_refine_ls_matrix_type           full
_refine_ls_number_parameters     46
_refine_ls_number_reflns         1195
_refine_ls_number_restraints     0
_refine_ls_restrained_S_all      1.066
_refine_ls_R_factor_all          0.0484
_refine_ls_R_factor_gt           0.0399
_refine_ls_shift/su_max          0.000
_refine_ls_shift/su_mean         0.000
_refine_ls_structure_factor_coef Fsqd
_refine_ls_weighting_details
'w=1/[\s^2^(Fo^2^)+(0.0433P)^2^+32.0254P] where P=(Fo^2^+2Fc^2^)/3'
_refine_ls_weighting_scheme      calc
_refine_ls_wR_factor_gt          0.0904
_refine_ls_wR_factor_ref         0.0936
_reflns_Friedel_coverage         0.000
_reflns_number_gt                1026
_reflns_number_total             1195
_reflns_threshold_expression     'I > 2\s(I)'
_iucr_refine_instructions_details
;

    pbcdbi4se8.res created by SHELXL-2014/7

TITL PbCdBi4Se8 in C2/m #12
REM reset to C2/m #12
CELL 0.71073 13.7131 4.1665 15.228 90 115.563 90
ZERR 2 0.0027 0.0008 0.003 0 0.03 0
LATT 7
SYMM -X,+Y,-Z
SFAC Bi Cd Pb Se
UNIT 8.08 1.97 1.92 16
EADP Cd3 Bi3
EADP Pb1 Cd1
EADP Bi2 Cd2
EXYZ Pb1 Cd1
EXYZ Cd3 Bi3
EXYZ Bi2 Cd2
 
L.S. 20
PLAN  20
BOND
fmap 2
acta
REM <olex2.extras>
REM <HklSrc "%.\\PbCdBi4Se8.hkl">
REM </olex2.extras>
 
WGHT    0.043300   32.025402
EXTI    0.000949
FVAR       0.04771
PB1   3    0.000000    0.500000    0.500000    10.24000    0.02317    0.01999 =
         0.03603    0.00000    0.01226    0.00000
CD1   2    0.000000    0.500000    0.500000    10.02000    0.02317    0.01999 =
         0.03603    0.00000    0.01226    0.00000
BI2   1   -0.349348   -0.500000    0.365242    10.48000    0.02166    0.01875 =
         0.02982    0.00000    0.00911    0.00000
CD2   2   -0.349348   -0.500000    0.365242    10.02000    0.02166    0.01875 =
         0.02982    0.00000    0.00911    0.00000
BI1   1   -0.213729   -1.000000    0.141027    10.50000    0.03443    0.02732 =
         0.04664    0.00000    0.01439    0.00000
CD3   2   -0.500000   -0.500000    0.000000    10.20650    0.02091    0.02228 =
         0.03159    0.00000    0.00837    0.00000
BI3   1   -0.500000   -0.500000    0.000000    10.03000    0.02091    0.02228 =
         0.03159    0.00000    0.00837    0.00000
SE1   4   -0.165423    0.000000    0.432737    10.50000    0.01743    0.01571 =
         0.02906    0.00000    0.00683    0.00000
SE2   4   -0.004932    0.500000    0.306305    10.50000    0.01991    0.02200 =
         0.02547    0.00000    0.00470    0.00000
SE3   4   -0.333328   -0.500000    0.179933    10.50000    0.03484    0.02209 =
         0.03251    0.00000    0.02066    0.00000
SE4   4   -0.378552   -1.000000   -0.043866    10.50000    0.02038    0.01768 =
         0.02358    0.00000    0.00955    0.00000
HKLF 4
 
REM  PbCdBi4Se8 in C2/m #12
REM R1 =  0.0399 for    1026 Fo > 4sig(Fo)  and  0.0484 for all    1195 data
REM     46 parameters refined using      0 restraints
 
END  
     
WGHT      0.0433     32.0377 

REM Highest difference peak  5.393,  deepest hole -2.582,  1-sigma level  0.497
Q1    1  -0.1784 -1.0000  0.1913  10.50000  0.05    5.39
Q2    1  -0.3463 -0.5000  0.3189  10.50000  0.05    2.88
Q3    1  -0.0465  0.5000  0.4174  10.50000  0.05    2.44
Q4    1  -0.3040 -0.5000  0.4414  10.50000  0.05    2.43
Q5    1  -0.2650 -1.0000  0.0526  10.50000  0.05    2.16
Q6    1  -0.3721 -0.5000  0.1322  10.50000  0.05    2.02
Q7    1  -0.2207  0.0000  0.3625  10.50000  0.05    1.96
Q8    1  -0.0567  0.5000  0.2366  10.50000  0.05    1.45
Q9    1   0.0031  0.5000  0.3553  10.50000  0.05    1.41
Q10   1  -0.1035 -0.1098  0.4929  11.00000  0.05    1.31
Q11   1   0.0264  0.5000  0.4490  10.50000  0.05    1.22
Q12   1  -0.0212  0.6115  0.3702  11.00000  0.05    1.20
Q13   1  -0.1164  0.0000  0.5283  10.50000  0.05    1.16
Q14   1  -0.1607 -1.0000  0.2515  10.50000  0.05    1.14
Q15   1  -0.4891 -1.0000 -0.1270  10.50000  0.05    1.14
Q16   1  -0.1630  0.0000  0.4741  10.50000  0.05    1.12
Q17   1  -0.0322 -1.0000  0.2085  10.50000  0.05    1.07
Q18   1  -0.1260  0.5000  0.2609  10.50000  0.05    1.06
Q19   1  -0.3801 -1.1304 -0.1306  11.00000  0.05    1.03
Q20   1  -0.3434 -1.0000  0.0068  10.50000  0.05    1.03

  REM The information below was added by Olex2.
  REM
  REM R1 = 0.0399 for 1026 Fo > 4sig(Fo) and 0.0484 for all 3751 data
  REM n/a parameters refined using n/a restraints
  REM Highest difference peak 5.39, deepest hole -2.58
  REM Mean Shift 0, Max Shift 0.000.

  REM +++ Tabular Listing of Refinement Information +++
  REM R1_all = 0.0484
  REM R1_gt = 0.0399
  REM wR_ref = 0.0936
  REM GOOF = 1.066
  REM Shift_max = 0.000
  REM Shift_mean = 0
  REM Reflections_all = 3751
  REM Reflections_gt = 1026
  REM Parameters = n/a
  REM Hole = -2.58
  REM Peak = 5.39
  REM Flack = n/a

  
;
_cod_data_source_file            cm7b03328_si_002.cif
_cod_data_source_block           CdPbBi4Se8
_cod_depositor_comments
'Adding full bibliography for 4002852--4002853.cif.'
_cod_database_code               4002853
_shelx_shelxl_version_number     2014/7
_shelx_space_group_comment
;
The symmetry employed for this shelxl refinement is uniquely defined
by the following loop, which should always be used as a source of
symmetry information in preference to the above space-group names.
They are only intended as comments.
;
_olex2_refinement_description
;
1. Shared sites
{Pb1, Cd1}
{Cd3, Bi3}
{Bi2, Cd2}
2. Uiso/Uaniso restraints and constraints
Uanis(Cd3) = Uanis(Bi3)
Uanis(Pb1) = Uanis(Cd1)
Uanis(Bi2) = Uanis(Cd2)
3. Others
 Fixed Sof: Pb1(0.24) Cd1(0.02) Bi2(0.48) Cd2(0.02) Cd3(0.2065) Bi3(0.03)
;
_olex2_submission_special_instructions 'No special instructions were received'
loop_
_space_group_symop_operation_xyz
'x, y, z'
'-x, y, -z'
'x+1/2, y+1/2, z'
'-x+1/2, y+1/2, -z'
'-x, -y, -z'
'x, -y, z'
'-x+1/2, -y+1/2, -z'
'x+1/2, -y+1/2, z'
loop_
_atom_site_label
_atom_site_type_symbol
_atom_site_fract_x
_atom_site_fract_y
_atom_site_fract_z
_atom_site_U_iso_or_equiv
_atom_site_adp_type
_atom_site_occupancy
_atom_site_site_symmetry_order
_atom_site_calc_flag
_atom_site_refinement_flags_posn
_atom_site_refinement_flags_adp
_atom_site_refinement_flags_occupancy
Pb1 Pb 0.0000 0.5000 0.5000 0.0266(2) Uani 0.96 4 d S T P
Cd1 Cd 0.0000 0.5000 0.5000 0.0266(2) Uani 0.08 4 d S T P
Bi2 Bi -0.34935(5) -0.5000 0.36524(5) 0.0241(2) Uani 0.96 2 d S T P
Cd2 Cd -0.34935(5) -0.5000 0.36524(5) 0.0241(2) Uani 0.04 2 d S T P
Bi1 Bi -0.21373(6) -1.0000 0.14103(6) 0.0372(2) Uani 1 2 d S T P
Cd3 Cd -0.5000 -0.5000 0.0000 0.0260(3) Uani 0.826 4 d S T P
Bi3 Bi -0.5000 -0.5000 0.0000 0.0260(3) Uani 0.12 4 d S T P
Se1 Se -0.16542(12) 0.0000 0.43274(12) 0.0219(3) Uani 1 2 d S T P
Se2 Se -0.00493(12) 0.5000 0.30631(12) 0.0243(3) Uani 1 2 d S T P
Se3 Se -0.33333(14) -0.5000 0.17993(13) 0.0276(4) Uani 1 2 d S T P
Se4 Se -0.37855(12) -1.0000 -0.04387(12) 0.0205(3) Uani 1 2 d S T P
loop_
_atom_site_aniso_label
_atom_site_aniso_U_11
_atom_site_aniso_U_22
_atom_site_aniso_U_33
_atom_site_aniso_U_23
_atom_site_aniso_U_13
_atom_site_aniso_U_12
Pb1 0.0232(4) 0.0200(4) 0.0360(5) 0.000 0.0123(3) 0.000
Cd1 0.0232(4) 0.0200(4) 0.0360(5) 0.000 0.0123(3) 0.000
Bi2 0.0217(3) 0.0188(3) 0.0298(3) 0.000 0.0091(2) 0.000
Cd2 0.0217(3) 0.0188(3) 0.0298(3) 0.000 0.0091(2) 0.000
Bi1 0.0344(4) 0.0273(4) 0.0466(5) 0.000 0.0144(3) 0.000
Cd3 0.0209(7) 0.0223(7) 0.0316(8) 0.000 0.0084(6) 0.000
Bi3 0.0209(7) 0.0223(7) 0.0316(8) 0.000 0.0084(6) 0.000
Se1 0.0174(6) 0.0157(7) 0.0291(8) 0.000 0.0068(6) 0.000
Se2 0.0199(7) 0.0220(7) 0.0255(8) 0.000 0.0047(6) 0.000
Se3 0.0348(8) 0.0221(8) 0.0325(9) 0.000 0.0207(7) 0.000
Se4 0.0204(7) 0.0177(7) 0.0236(7) 0.000 0.0096(6) 0.000
loop_
_atom_type_symbol
_atom_type_description
_atom_type_scat_dispersion_real
_atom_type_scat_dispersion_imag
_atom_type_scat_source
Bi Bi -4.1077 10.2566 'International Tables Vol C Tables 4.2.6.8 and 6.1.1.4'
Cd Cd -0.8075 1.2024 'International Tables Vol C Tables 4.2.6.8 and 6.1.1.4'
Pb Pb -3.3944 10.1111 'International Tables Vol C Tables 4.2.6.8 and 6.1.1.4'
Se Se -0.0929 2.2259 'International Tables Vol C Tables 4.2.6.8 and 6.1.1.4'
loop_
_geom_angle_atom_site_label_1
_geom_angle_atom_site_label_2
_geom_angle_atom_site_label_3
_geom_angle
_geom_angle_site_symmetry_1
_geom_angle_site_symmetry_3
Se1 Pb1 Se1 180.0 . 5_566
Se1 Pb1 Se1 88.99(5) 5_566 1_565
Se1 Pb1 Se1 91.01(5) . 1_565
Se1 Pb1 Se1 88.99(5) . 5_556
Se1 Pb1 Se1 91.01(5) 5_566 5_556
Se1 Pb1 Se1 180.0 5_556 1_565
Se1 Pb1 Se2 88.27(4) 5_556 5_566
Se1 Pb1 Se2 91.73(4) . 5_566
Se1 Pb1 Se2 88.27(4) 1_565 .
Se1 Pb1 Se2 91.73(4) 5_566 .
Se1 Pb1 Se2 88.27(4) 5_566 5_566
Se1 Pb1 Se2 91.73(4) 5_556 .
Se1 Pb1 Se2 91.73(4) 1_565 5_566
Se1 Pb1 Se2 88.27(4) . .
Se2 Pb1 Se2 180.00(6) . 5_566
Se1 Bi2 Se1 84.93(4) 1_545 .
Se1 Bi2 Se1 88.54(5) 7_446 1_545
Se1 Bi2 Se1 88.54(5) 7_446 .
Se2 Bi2 Se1 90.27(4) 3_445 .
Se2 Bi2 Se1 175.17(3) 3_435 .
Se2 Bi2 Se1 91.91(5) 3_435 7_446
Se2 Bi2 Se1 91.91(5) 3_445 7_446
Se2 Bi2 Se1 175.17(3) 3_445 1_545
Se2 Bi2 Se1 90.27(4) 3_435 1_545
Se2 Bi2 Se2 94.53(5) 3_435 3_445
Se2 Bi2 Se3 93.10(5) 3_435 .
Se2 Bi2 Se3 93.10(5) 3_445 .
Se3 Bi2 Se1 172.61(5) . 7_446
Se3 Bi2 Se1 86.01(5) . 1_545
Se3 Bi2 Se1 86.01(5) . .
Se3 Bi1 Se3 93.21(5) 1_545 .
Se3 Bi1 Se4 165.43(6) . 7_425
Se3 Bi1 Se4 165.43(6) 1_545 7_435
Se3 Bi1 Se4 89.89(4) 1_545 7_425
Se3 Bi1 Se4 89.89(4) . 7_435
Se4 Bi1 Se3 85.45(5) . 1_545
Se4 Bi1 Se3 85.45(5) . .
Se4 Bi1 Se4 80.60(4) . 7_425
Se4 Bi1 Se4 80.60(4) . 7_435
Se4 Bi1 Se4 83.72(4) 7_425 7_435
Se3 Cd3 Se3 180.0 . 5_445
Se3 Cd3 Se4 85.16(4) . 1_565
Se3 Cd3 Se4 85.16(4) 5_445 5_435
Se3 Cd3 Se4 94.84(4) 5_445 1_565
Se3 Cd3 Se4 94.84(4) . 5_435
Se3 Cd3 Se4 94.84(4) . 5_445
Se3 Cd3 Se4 85.16(4) 5_445 5_445
Se3 Cd3 Se4 85.17(4) . .
Se3 Cd3 Se4 94.83(4) 5_445 .
Se4 Cd3 Se4 180.00(6) 5_435 1_565
Se4 Cd3 Se4 91.08(4) 5_435 5_445
Se4 Cd3 Se4 180.0 . 5_445
Se4 Cd3 Se4 88.92(4) 1_565 5_445
Se4 Cd3 Se4 91.08(4) . 1_565
Se4 Cd3 Se4 88.92(4) . 5_435
Pb1 Se1 Pb1 91.01(5) . 1_545
Pb1 Se1 Cd1 91.0 . 1_545
Pb1 Se1 Bi2 91.99(2) . 1_565
Pb1 Se1 Bi2 86.66(4) . 7_446
Pb1 Se1 Bi2 86.66(4) 1_545 7_446
Pb1 Se1 Bi2 176.36(5) 1_545 1_565
Pb1 Se1 Bi2 176.36(5) . .
Pb1 Se1 Bi2 91.99(2) 1_545 .
Pb1 Se1 Cd2 86.66(4) 1_545 7_446
Pb1 Se1 Cd2 91.99(2) . 1_565
Pb1 Se1 Cd2 176.36(5) 1_545 1_565
Pb1 Se1 Cd2 86.66(4) . 7_446
Cd1 Se1 Pb1 0.0 1_545 1_545
Cd1 Se1 Bi2 91.99(2) 1_545 .
Cd1 Se1 Bi2 86.66(4) 1_545 7_446
Cd1 Se1 Bi2 176.36(5) 1_545 1_565
Cd1 Se1 Cd2 86.66(4) 1_545 7_446
Cd1 Se1 Cd2 176.36(5) 1_545 1_565
Bi2 Se1 Bi2 91.46(5) 7_446 .
Bi2 Se1 Bi2 84.93(4) . 1_565
Bi2 Se1 Bi2 91.46(5) 7_446 1_565
Bi2 Se1 Cd2 91.46(5) 7_446 1_565
Bi2 Se1 Cd2 0.00(3) 1_565 1_565
Bi2 Se1 Cd2 84.9 . 1_565
Cd2 Se1 Bi2 91.5 7_446 1_565
Cd2 Se1 Bi2 91.5 7_446 .
Cd2 Se1 Bi2 0.0 7_446 7_446
Cd2 Se1 Cd2 91.46(5) 7_446 1_565
Bi2 Se2 Pb1 89.65(5) 3_565 .
Bi2 Se2 Pb1 89.65(5) 3 .
Bi2 Se2 Bi2 94.53(5) 3_565 3
Bi2 Se2 Cd2 94.53(5) 3_565 3
Cd2 Se2 Pb1 89.65(5) 3 .
Cd2 Se2 Pb1 89.65(5) 3_565 .
Cd2 Se2 Bi2 0.0 3_565 3_565
Cd2 Se2 Bi2 94.5 3_565 3
Cd2 Se2 Bi2 0.0 3 3
Cd2 Se2 Cd2 94.53(5) 3_565 3
Bi1 Se3 Bi2 119.17(5) 1_565 .
Bi1 Se3 Bi2 119.17(5) . .
Bi1 Se3 Bi1 93.21(5) . 1_565
Cd3 Se3 Bi2 126.50(6) . .
Cd3 Se3 Bi1 95.70(5) . 1_565
Cd3 Se3 Bi1 95.70(5) . .
Bi1 Se4 Bi1 99.40(4) . 7_435
Bi1 Se4 Bi1 99.40(4) . 7_425
Bi1 Se4 Bi1 83.72(4) 7_425 7_435
Bi1 Se4 Cd3 93.66(4) . 1_545
Bi1 Se4 Cd3 93.66(4) . .
Bi1 Se4 Bi3 93.66(4) . 1_545
Cd3 Se4 Bi1 166.58(6) 1_545 7_435
Cd3 Se4 Bi1 91.16(2) 1_545 7_425
Cd3 Se4 Bi1 91.16(2) . 7_435
Cd3 Se4 Bi1 166.58(6) . 7_425
Cd3 Se4 Cd3 91.08(4) 1_545 .
Bi3 Se4 Bi1 91.16(2) 1_545 7_425
Bi3 Se4 Bi1 166.58(6) 1_545 7_435
Bi3 Se4 Cd3 0.0 1_545 1_545
Bi3 Se4 Cd3 91.1 1_545 .
loop_
_geom_bond_atom_site_label_1
_geom_bond_atom_site_label_2
_geom_bond_distance
_geom_bond_site_symmetry_2
Pb1 Se1 2.9206(12) .
Pb1 Se1 2.9206(11) 1_565
Pb1 Se1 2.9206(12) 5_566
Pb1 Se1 2.9206(11) 5_556
Pb1 Se2 2.9210(18) .
Pb1 Se2 2.9211(18) 5_566
Bi2 Se1 3.0855(13) .
Bi2 Se1 3.0855(13) 1_545
Bi2 Se1 2.9946(19) 7_446
Bi2 Se2 2.8363(12) 3_445
Bi2 Se2 2.8363(12) 3_435
Bi2 Se3 2.9234(19) .
Bi1 Se3 2.8669(13) 1_545
Bi1 Se3 2.8669(13) .
Bi1 Se4 2.747(2) .
Bi1 Se4 3.1219(13) 7_435
Bi1 Se4 3.1219(13) 7_425
Cd3 Se3 2.707(2) .
Cd3 Se3 2.707(2) 5_445
Cd3 Se4 2.9189(11) .
Cd3 Se4 2.9189(11) 5_445
Cd3 Se4 2.9189(11) 5_435
Cd3 Se4 2.9189(11) 1_565
Se1 Pb1 2.9206(11) 1_545
Se1 Cd1 2.9206(11) 1_545
Se1 Bi2 3.0855(13) 1_565
Se1 Bi2 2.9945(19) 7_446
Se1 Cd2 2.9945(19) 7_446
Se1 Cd2 3.0855(13) 1_565
Se2 Bi2 2.8364(12) 3
Se2 Bi2 2.8364(12) 3_565
Se2 Cd2 2.8364(12) 3
Se2 Cd2 2.8364(12) 3_565
Se3 Bi1 2.8669(13) 1_565
Se4 Bi1 3.1219(13) 7_435
Se4 Bi1 3.1219(13) 7_425
Se4 Cd3 2.9189(11) 1_545
Se4 Bi3 2.9189(11) 1_545
loop_
_refln_index_h
_refln_index_k
_refln_index_l
_refln_F_squared_meas
_refln_F_squared_sigma
2 0 -2 13.83 1.76
-2 0 2 13.78 1.96
-4 0 4 27.06 1.65
4 0 -4 26.98 1.43
-6 0 6 355.67 2.65
6 0 -6 345.28 2.25
8 0 -8 51.78 1.15
-8 0 8 52.33 1.74
10 0 -10 79.24 1.21
-10 0 10 75.84 1.92
-12 0 12 11.76 1.58
12 0 -12 12.67 1.01
-14 0 14 58.44 1.93
14 0 -14 53.31 1.19
16 0 -16 2.31 1.06
-16 0 16 1.03 1.94
-1 1 1 32.38 1.64
1 1 -1 34.3 1.36
-1 -1 1 35.8 1.42
-3 1 3 355.04 5.03
-3 -1 3 390.27 2.22
-3 -1 3 402.8 2.39
-5 -1 5 841.86 2.97
5 1 -5 822.69 2.88
-5 1 5 857.92 8.78
-7 1 7 62.41 3.25
7 -1 -7 77.92 1.59
-7 -1 7 80.29 1.22
7 1 -7 81.73 1.16
-9 -1 9 272.19 1.76
-9 1 9 262.83 3.86
9 1 -9 268.56 1.62
9 -1 -9 256.14 2
11 1 -11 21.41 0.96
-11 -1 11 21.98 1.16
-11 1 11 24.93 2.58
11 -1 -11 21.62 1.07
-13 1 13 2.79 2.22
-13 -1 13 -0.95 1.18
13 -1 -13 0.52 1.04
-15 -1 15 31.31 1.56
15 -1 -15 30.23 1.21
-15 -1 15 31.8 1.16
-15 1 15 29.85 2.1
-2 -2 2 11.51 0.99
2 2 -2 12.54 0.94
-2 2 2 10.98 1.23
-4 2 4 18.63 1.54
-4 -2 4 19.32 0.89
-4 -2 4 18.43 0.91
-6 -2 6 248.03 1.57
-6 -2 6 261.76 1.57
-6 2 6 227.82 3.12
-8 -2 8 36.86 0.97
-8 -2 8 38.79 0.79
-8 2 8 40.1 4.31
-10 2 10 67.54 5.1
-10 -2 10 53.4 1.06
-10 -2 10 61.33 1.11
10 -2 -10 -0.28 1.07
-12 -2 12 6.21 1.05
-12 -2 12 7.76 0.95
-12 2 12 5.81 3.7
12 -2 -12 9.41 1.31
-14 -2 14 39.78 1.34
-14 -2 14 39.83 1.15
-14 2 14 32.7 2.51
14 -2 -14 36.65 1.53
1 3 -1 13.35 0.81
-1 -3 1 13.18 0.96
-1 3 1 13.83 0.98
1 -3 -1 12.33 0.94
-3 -3 3 155.99 1.4
-3 -3 3 158.77 1.3
-3 3 3 149.99 1.63
-5 -3 5 413.13 1.8
-5 3 5 379.3 2.25
-5 -3 5 415.79 1.9
-7 3 7 36.61 1.36
-7 -3 7 38.07 1
-7 -3 7 40.11 0.94
-9 3 9 123.75 2.27
-9 -3 9 143.4 1.27
-9 -3 9 140.41 1.31
-11 -3 11 10.31 0.99
11 -3 -11 11.02 1.31
-11 -3 11 10.66 1
-11 3 11 10.43 1.81
13 -3 -13 -0.6 1.45
-13 3 13 0.33 2.51
-13 -3 13 3.09 1.09
-13 -3 13 1.96 1.05
0 4 0 675.92 2.33
0 -4 0 660.5 2.63
2 -4 -2 4.21 1.19
-2 4 2 4.77 0.86
-2 -4 2 2.96 0.95
-4 -4 4 9.17 0.83
-4 4 4 7.7 0.88
-4 -4 4 8.96 0.95
-6 -4 6 80.73 1.09
-6 -4 6 77.36 1.23
-6 4 6 77.11 1.44
-8 -4 8 14.77 0.9
8 -4 -8 13.02 2.73
-8 4 8 12.94 1.06
-8 -4 8 13.67 1.03
-10 -4 10 23.57 1.04
-10 4 10 23.55 1.54
-10 -4 10 21.25 1.12
10 -4 -10 26.71 2.21
1 -5 -1 3.32 1.24
-1 -5 1 3.28 0.88
-1 -5 1 4.25 1.13
-1 5 1 2.66 0.9
-3 5 3 32.78 1.23
-3 -5 3 33.98 0.98
-3 -5 3 31.81 1.2
3 -5 -3 1.35 1.45
-5 5 5 100.65 1.56
-5 -5 5 96.15 1.46
-5 -5 5 101.83 1.26
-7 -5 7 9.23 1
-7 5 7 8.32 1.26
7 -5 -7 6.53 3.32
-7 -5 7 8.77 1.16
-16 0 15 1.29 1.81
14 0 -13 4.2 0.96
-14 0 13 6.64 1.6
12 0 -11 32.43 1.02
-12 0 11 35.01 1.56
10 0 -9 43.01 1.05
-10 0 9 42.67 1.46
-8 0 7 57.33 1.49
8 0 -7 59.19 1.15
-6 0 5 522.34 3.03
6 0 -5 512.99 2.62
4 0 -3 49.16 1.45
-4 0 3 49.13 1.66
-2 0 1 3.54 1.46
-2 0 3 56.03 2.57
2 0 -3 56.07 2.38
-4 0 5 162.2 2.43
4 0 -5 167.67 2.17
6 0 -7 1.57 1.11
-6 0 7 0.9 1.4
-8 0 9 107.14 1.83
8 0 -9 106.86 1.41
10 0 -11 236.13 1.69
-10 0 11 235.84 2.2
-12 0 13 4.42 1.58
12 0 -13 3.73 1.03
14 0 -15 13.52 1.06
-14 0 15 18.23 1.85
16 0 -17 0.26 1.14
-16 0 17 0.14 2
-15 -1 14 21.18 1.04
-15 1 14 13.24 2.68
15 -1 -14 20.94 1.12
-15 -1 14 19.49 1.39
-13 1 12 88.06 2.93
-13 -1 12 83.33 1.19
13 -1 -12 84.65 1.33
-13 -1 12 84.39 1.48
-11 -1 10 46.54 1.23
-11 1 10 49.29 2.82
11 -1 -10 45.68 1.15
-9 1 8 81.68 3.21
-9 -1 8 92.09 1.3
9 -1 -8 85.16 1.52
-7 1 6 3.87 3.34
-7 -1 6 6.54 0.91
-5 1 4 155.42 8.36
-5 -1 4 194.94 1.67
-5 -1 4 186.39 1.59
-3 -1 2 230.76 1.8
-3 1 2 204.5 4.16
1 1 0 23.1 1.35
-1 1 0 22.3 1.71
-1 -1 0 22.54 1.34
-1 -1 2 275.15 2.38
-1 1 2 247.32 2.9
1 -1 -2 249.25 3.09
-1 -1 2 276.95 2.33
-3 1 4 326.39 5.25
3 -1 -4 307.7 5.64
3 1 -4 359.36 2.27
-3 -1 4 355.2 2.28
5 -1 -6 126.54 2.54
5 1 -6 140.74 1.45
-5 -1 6 144.93 1.48
-5 1 6 147.4 4.29
-7 1 8 5.6 2.43
-7 -1 8 5.7 0.99
7 1 -8 4.35 0.92
7 -1 -8 3.72 1.3
9 1 -10 26.1 0.98
-9 1 10 24.09 2.43
-9 -1 10 28.65 1.12
9 -1 -10 26.36 1.27
-11 -1 12 2.58 1.16
-11 1 12 3.62 2.12
11 1 -12 3.21 0.94
11 -1 -12 2.56 1.07
-13 -1 14 5.1 1.27
13 -1 -14 -1.53 1.09
13 1 -14 1.06 0.97
-13 1 14 2.08 2.51
15 -1 -16 35.51 1.33
-15 -1 16 45.78 1.63
-15 1 16 41.15 2.11
-16 -2 15 -0.37 1.08
-16 -2 15 0.39 1.32
-14 2 13 4.57 2.74
-14 -2 13 3.67 1.12
-14 -2 13 2.28 0.92
-12 2 11 20.84 4.22
-12 -2 11 24.16 0.97
-12 -2 11 24.98 1.08
-10 2 9 36.62 5.65
-10 -2 9 30.69 0.95
-10 -2 9 33.12 1.03
-8 -2 7 42.17 0.96
-8 -2 7 45.09 0.78
-8 2 7 42.12 3.38
-6 2 5 339.26 3.33
-6 -2 5 366.69 1.81
6 -2 -5 332.79 4.09
-6 -2 5 385.88 1.81
-4 -2 3 39.64 1.01
-4 2 3 37.92 1.25
-2 2 1 3.03 0.9
2 2 -1 2.33 0.92
-2 -2 1 2.39 0.94
0 -2 -1 5.18 1.05
0 2 1 4.79 1.01
0 -2 1 5.08 0.99
0 2 -1 5.11 0.9
-2 -2 3 36.37 1.02
2 -2 -3 32.71 1.71
-2 -2 3 36.69 1.29
-2 2 3 34.64 1.26
-4 -2 5 115.94 1.22
-4 2 5 107.41 1.98
-4 -2 5 116.8 1.28
4 -2 -5 121.27 2.94
-6 -2 7 2.35 0.84
-6 -2 7 0.44 0.87
-6 2 7 2.13 2.33
6 -2 -7 1.63 2.91
-8 -2 9 73.16 1.16
-8 -2 9 72.3 1.14
8 -2 -9 71.34 1.96
-8 2 9 78.76 4.5
-10 2 11 186.93 5.84
-10 -2 11 165.81 1.41
-10 -2 11 175.31 1.3
10 -2 -11 171.72 1.98
-12 -2 13 1.52 1.1
12 -2 -13 4.85 1.21
-12 -2 13 2.01 0.73
-12 2 13 6.84 3.46
-14 2 15 14.81 2.12
-14 -2 15 10.43 1.06
-14 -2 15 12.01 1.22
14 -2 -15 8.66 1.52
13 -3 -12 41.94 1.62
-13 -3 12 41.2 1.13
-13 -3 12 51.98 1.19
-13 3 12 40.84 2.45
-11 -3 10 21.68 1.02
-11 -3 10 22.11 1.04
11 -3 -10 25.51 1.3
-11 3 10 22.14 1.9
-9 -3 8 41.42 0.99
-9 3 8 31.8 1.62
-9 -3 8 36.01 1
9 -3 -8 36.42 1.61
-7 3 6 4.25 1.22
-7 -3 6 3.84 0.82
-7 -3 6 3.27 0.86
7 -3 -6 2.36 2.97
5 -3 -4 92.64 2.82
-5 3 4 84.54 1.48
-5 -3 4 90.26 0.92
-5 -3 4 90.96 1.15
3 3 -2 78.5 1.09
-3 -3 2 77.72 1.16
-3 3 2 74.23 1.35
1 3 0 7.39 0.83
1 -3 0 7.28 0.98
-1 -3 0 8.02 0.95
-1 3 0 7.03 0.84
-1 -3 2 120.72 1.32
-1 3 2 122.6 1.34
1 -3 -2 114.52 1.5
-3 3 4 142.09 1.51
-3 -3 4 145.47 1.25
-3 -3 4 153.63 1.41
3 -3 -4 143.58 1.95
-5 -3 6 83.52 1.18
-5 -3 6 83 1.08
5 -3 -6 85.5 2.82
-5 3 6 78.1 1.6
-7 3 8 3.44 1.3
-7 -3 8 2.84 0.81
-7 -3 8 3.48 0.88
-9 -3 10 14.75 0.99
-9 -3 10 16.07 0.96
-9 3 10 12.81 1.77
-11 -3 12 2.4 0.96
-11 3 12 3.54 2.18
-11 -3 12 0.42 0.69
-13 -3 14 1.86 1.1
-13 3 14 1.19 2.53
-13 -3 14 0.38 1.1
-12 -4 11 7.19 1.11
-12 -4 11 6.81 1.1
12 -4 -11 5.98 1.61
-12 4 11 5.41 1.52
-10 4 9 12.09 1.33
-10 -4 9 11.13 1.03
10 -4 -9 13.44 1.93
-10 -4 9 13.29 0.96
8 -4 -7 22.45 2.93
-8 -4 7 19.22 1.04
-8 -4 7 18.04 0.93
-8 4 7 18.83 1.23
-6 -4 5 118.95 1.19
-6 -4 5 121.58 1.3
6 -4 -5 128.81 3.73
-6 4 5 116.07 1.52
-4 4 3 18.09 1.08
-4 -4 3 18.52 0.98
-4 -4 3 18.98 0.9
2 -4 -1 1.81 1.03
2 4 -1 -0.43 0.85
-2 4 1 0.77 0.82
-2 -4 1 -0.03 0.95
0 4 1 9.93 1.04
0 -4 -1 5.32 1.01
0 -4 1 4.2 1.17
-2 -4 3 6.94 0.96
-2 -4 3 6.87 0.83
-2 4 3 6.89 1.09
2 -4 -3 6.93 1.18
-4 4 5 35.78 1.28
4 -4 -5 39.14 1.78
-4 -4 5 37.41 0.96
-4 -4 5 37.85 1.08
-6 -4 7 1.04 0.96
-6 -4 7 1.07 0.85
-6 4 7 1.1 1.24
-8 -4 9 25.49 0.98
-8 4 9 21.54 1.45
-8 -4 9 23.13 1.08
-10 -4 11 64.12 1.2
10 -4 -11 71.29 2.19
-10 -4 11 57.14 1.28
-10 4 11 67.27 1.61
-7 -5 6 3.94 1.13
-7 5 6 0.01 1.15
-7 -5 6 0.44 0.95
7 -5 -6 3.06 3.51
-5 -5 4 26.43 1.14
5 -5 -4 28.45 2.62
-5 -5 4 24.87 1.01
-5 5 4 24.19 1.05
-3 -5 2 13.41 1.13
-3 -5 2 12.77 0.93
-3 5 2 13.01 0.93
1 -5 0 2.38 0.86
-1 -5 0 1.73 1.12
1 -5 0 1.44 1.2
-1 -5 2 35.11 1
1 -5 -2 34.89 1.41
-1 -5 2 30.64 1.24
-1 5 2 33.01 1.19
3 -5 -4 38.94 2.09
-3 -5 4 32.61 1.22
-3 -5 4 33.51 1.25
-3 5 4 35.22 1.08
-5 5 6 27.19 1.35
-5 -5 6 23.7 1.01
-5 -5 6 23.86 1.22
7 -5 -8 0.99 2.94
-7 -5 8 2.5 1.18
-7 5 8 0.72 1.05
-7 -5 8 1.9 0.95
-16 0 14 3.5 1.75
-16 0 14 1.9 0.96
-14 0 12 2.17 1.52
12 0 -10 248.93 1.62
-12 0 10 242.74 2.25
10 0 -8 18.42 1.09
-10 0 8 18.2 1.33
-8 0 6 211.38 2.01
8 0 -6 210.01 1.62
-6 0 4 43.72 1.36
6 0 -4 42.35 1.15
-4 0 2 149.29 2.15
-2 0 0 24.63 1.69
2 0 0 24.74 1.74
0 0 -2 45.26 7.58
0 0 2 52.32 7.61
2 0 -4 516.99 4.52
-2 0 4 535.03 4.74
4 0 -6 24.19 1.68
-4 0 6 20.47 1.91
-6 0 8 4.69 1.43
6 0 -8 3.94 1.16
8 0 -10 3.71 1.12
-8 0 10 2.96 1.46
-10 0 12 78.54 1.77
10 0 -12 82.93 1.34
12 0 -14 1.54 1.07
-12 0 14 1.48 1.69
-14 0 16 2.44 1.9
14 0 -16 0.65 1.11
-17 -1 15 28.59 1.11
-17 -1 15 28.66 1.58
-17 1 15 20.01 2.55
-15 -1 13 12.11 1.29
15 -1 -13 11.12 1.22
-15 1 13 9.68 2.33
-15 -1 13 13.12 0.96
-13 1 11 79.95 3.04
-13 -1 11 75.81 1.14
13 -1 -11 77.6 1.43
-13 -1 11 78.06 1.41
-11 -1 9 15.3 1.04
11 -1 -9 14.11 1.03
-11 1 9 17.12 3.24
-11 -1 9 13.4 0.82
-9 1 7 170.12 4.22
-9 -1 7 170.71 1.38
-9 -1 7 180.41 1.54
-7 1 5 79.95 4.42
-7 -1 5 92.31 1.24
-7 -1 5 88.41 1.14
-5 -1 3 97.11 1.33
5 -1 -3 88.53 2.17
-5 -1 3 105.23 1.42
-5 1 3 89.5 8.9
-3 -1 1 946.22 3.39
3 -1 -1 873.93 15.27
3 1 -1 974.28 3.56
1 -1 1 7.19 1.57
1 1 1 7.26 1.36
-1 -1 -1 6.98 1.33
-1 1 3 0.71 2
1 -1 -3 1.95 2.09
-1 -1 3 1.7 1.19
1 1 -3 0.87 1.19
-3 -1 5 9.82 1.16
-3 1 5 10.11 4.88
3 -1 -5 8.14 3.42
3 1 -5 8.89 1.17
-5 -1 7 154.06 1.54
-5 1 7 146.5 3.49
5 -1 -7 137.84 2.74
5 1 -7 146.6 1.5
-7 1 9 41.53 2.77
7 -1 -9 41.52 1.59
7 1 -9 39.86 1.1
-7 -1 9 44.51 1.18
-9 -1 11 3.19 1.09
9 -1 -11 3.42 1.18
9 1 -11 3.17 0.97
-9 1 11 1.55 1.97
11 -1 -13 2.67 1.15
11 1 -13 2.34 0.7
-11 -1 13 2.7 1.22
-11 1 13 2.1 1.96
13 1 -15 4.34 1.04
13 -1 -15 2.46 1.42
-13 -1 15 3.4 1.36
-13 1 15 1.06 2.34
15 -1 -17 14.93 1.27
-15 -1 17 20.33 1.59
-15 1 17 16.71 1.85
-16 -2 14 1.68 1.05
-16 2 14 2.32 2.67
16 -2 -14 2.48 1.06
-16 -2 14 3.31 1.27
-14 2 12 1.94 3.23
-14 -2 12 0.74 1.05
14 -2 -12 0.57 0.96
-14 -2 12 -1.84 0.9
12 -2 -10 171.43 1.87
-12 -2 10 170.74 1.35
-12 -2 10 182.33 1.5
-12 2 10 169.45 5.47
-10 -2 8 14.69 0.95
10 -2 -8 12.89 1.2
-10 -2 8 14.3 0.84
-10 2 8 13.11 3.28
-8 -2 6 166.27 1.34
-8 2 6 145.63 3.19
8 -2 -6 143.32 2.14
-8 -2 6 147.49 1.12
6 -2 -4 23.01 2.4
-6 -2 4 27.44 0.92
-6 -2 4 26.87 0.91
-6 2 4 23.8 1.62
4 2 -2 94.24 1.17
-4 2 2 90.61 1.65
-4 -2 2 93.08 1.17
4 -2 -2 92.28 2.85
-2 -2 0 16.68 1.01
2 2 0 16.18 1.01
-2 2 0 15.39 1.06
0 2 2 31.03 1.18
0 -2 2 33.92 1.31
0 -2 -2 29.74 1.21
0 -2 2 33.9 1.19
-2 -2 4 423.01 2.18
-2 -2 4 417.33 2.07
-2 2 4 387.37 2.56
2 -2 -4 387.84 2.85
-4 2 6 20.56 1.71
4 -2 -6 18.77 2.46
-4 -2 6 15.79 0.91
-4 -2 6 16.53 0.96
-6 2 8 2.01 3.36
6 -2 -8 2.27 2.15
-6 -2 8 3.22 0.87
-6 -2 8 3.62 0.91
-8 2 10 5.81 4.16
-8 -2 10 4.23 0.92
8 -2 -10 2.48 2.09
-10 2 12 70.47 3.62
10 -2 -12 61.02 1.66
-10 -2 12 60.68 0.97
-10 -2 12 58.02 1.15
-12 -2 14 1.16 1.14
12 -2 -14 0.06 1.26
-12 -2 14 2.69 1.03
-12 2 14 1.56 2.35
14 -2 -16 -0.02 1.28
-14 2 16 -0.72 2.37
-14 -2 16 0.19 1.14
-14 -2 16 3.12 1.28
-13 3 11 35.08 2.38
-13 -3 11 41.01 1.19
-13 -3 11 41.49 1.14
13 -3 -11 37.7 1.52
-11 -3 9 6.94 0.94
11 -3 -9 7.95 1.35
-11 3 9 7.34 1.54
-11 -3 9 6.24 0.66
9 -3 -7 78.39 2.05
-9 -3 7 86.78 1.15
-9 -3 7 79.1 0.94
-9 3 7 74.32 1.84
7 -3 -5 40.26 3.08
-7 -3 5 40.83 0.94
-7 -3 5 39.6 0.97
-7 3 5 36.21 1.32
-5 3 3 37.43 1.22
5 -3 -3 40.55 2.38
-5 -3 3 40.56 0.95
-3 -3 1 432.43 1.97
-3 3 1 413.7 2.31
3 3 -1 424.01 1.76
1 -3 1 1.58 0.85
-1 3 -1 1.11 0.79
-1 -3 -1 1.71 0.91
1 3 1 1.26 0.9
-1 -3 3 1.51 1.02
1 -3 -3 2.04 1.06
-1 -3 3 1.01 0.78
-1 3 3 1.84 0.89
3 -3 -5 5.47 1.46
-3 -3 5 4 0.8
-3 3 5 4.95 1.09
-3 -3 5 3.81 0.91
-5 -3 7 71.42 1.14
5 -3 -7 72.1 2.61
-5 3 7 65.25 1.55
-5 -3 7 68.31 1.03
-7 3 9 23.09 1.72
-7 -3 9 25.47 0.93
7 -3 -9 22.63 2.13
-7 -3 9 24.91 1
-9 -3 11 2.03 0.96
-9 3 11 1.66 2.13
-9 -3 11 3.32 0.9
9 -3 -11 1.23 2.17
-11 -3 13 2.14 1.05
-11 3 13 6.79 3.39
-11 -3 13 -0.32 1.06
11 -3 -13 2 1.87
-13 -3 15 0.28 1.18
-13 -3 15 1.81 1.16
13 -3 -15 -1.52 1.71
-13 3 15 2.7 3.73
-12 4 10 60.53 1.95
-12 -4 10 58.21 1.26
-12 -4 10 55.45 1.23
12 -4 -10 57.95 2.04
-10 -4 8 4.19 0.97
-10 4 8 5.82 1.39
-10 -4 8 5.96 1
10 -4 -8 5.67 1.99
-8 -4 6 66.39 1.16
8 -4 -6 71.75 3.13
-8 4 6 62.96 1.42
-8 -4 6 61 0.88
-6 4 4 7.36 1.05
6 -4 -4 14.98 2.95
-6 -4 4 7.13 0.86
-6 -4 4 8.46 0.96
-4 -4 2 30.13 1
-4 4 2 26.5 1.07
4 -4 -2 28.21 1.76
2 4 0 4.9 1.02
-2 -4 0 4.12 0.96
0 4 2 11.89 1.1
0 -4 -2 10.82 1.07
0 -4 2 12.94 1.01
0 -4 2 11.18 0.88
-2 -4 4 137.72 1.25
-2 -4 4 134.4 1.41
2 -4 -4 133.75 1.78
-2 4 4 135.1 1.55
4 -4 -6 5.84 1.72
-4 4 6 4.34 1.03
-4 -4 6 6.24 0.83
-4 -4 6 5.93 0.99
-6 -4 8 3.14 0.85
-6 4 8 2.76 1.35
-6 -4 8 2.78 0.97
6 -4 -8 2.45 2.7
8 -4 -10 0.9 2.13
-8 -4 10 3.32 1.05
-8 4 10 3.17 1.25
-8 -4 10 2.82 0.94
-10 -4 12 21.99 1.13
-10 4 12 22.2 1.9
-10 -4 12 20.63 1.23
-7 5 5 9 1.16
7 -5 -5 8.49 3.87
-7 -5 5 12.11 0.97
-7 -5 5 7.04 1.14
-5 -5 3 8.38 0.98
5 -5 -3 8.52 2.5
-5 -5 3 7.61 1.14
3 -5 -1 116.51 1.5
-3 -5 1 113.55 1.47
1 -5 1 1.35 1.42
1 5 1 0.16 0.87
1 -5 1 0.35 0.86
-1 -5 -1 -0.06 1.12
-1 -5 3 3.41 1.36
-1 -5 3 0.81 0.88
1 -5 -3 3.05 1.32
-1 5 3 2.25 0.92
-3 5 5 1.17 1.21
-3 -5 5 0.61 0.85
-3 -5 5 1.07 1.07
3 -5 -5 1.55 1.67
-5 5 7 14.19 1.36
5 -5 -7 19.39 2.46
-5 -5 7 13.2 1
-5 -5 7 18.32 1.22
-7 -5 9 7.73 1.28
-7 5 9 8.72 1.2
-7 -5 9 6.64 0.99
-16 0 13 16.23 1.02
-16 0 13 15.76 1.66
-14 0 11 0.3 0.86
-14 0 11 1.18 1.39
-12 0 9 6.88 1.35
-10 0 7 22.96 1.28
-8 0 5 616.69 3.01
-6 0 3 0.92 1.02
-6 0 3 0.83 0.86
-4 0 1 10.52 1.4
-2 0 -1 130 2.89
2 0 1 145.5 3.04
0 0 -3 6.36 6.19
0 0 3 6.87 5.33
-2 0 5 535.68 4.67
2 0 -5 483.05 4.48
-4 0 7 120.91 2.35
4 0 -7 121.3 2.11
6 0 -9 126.6 1.72
-6 0 9 130.8 1.99
-8 0 11 15.77 1.55
8 0 -11 13.87 0.87
-10 0 13 15.19 1.67
10 0 -13 16.39 1.14
12 0 -15 30.04 1.27
-12 0 15 35.77 1.87
-14 0 17 2.74 2.08
14 0 -17 3.87 1.2
-17 -1 14 10.82 1.01
-17 1 14 7.88 2.11
-17 -1 14 9.26 1.41
-17 1 14 7.99 1.04
-15 -1 12 9.63 1.29
-15 -1 12 9.89 0.94
-15 1 12 9.47 2.48
15 -1 -12 12.68 0.91
-13 1 10 79.95 2.85
-13 -1 10 73.46 1.09
-13 -1 10 73.04 1.34
-11 -1 8 41.34 0.92
-11 1 8 39.76 3.22
-11 -1 8 40.27 1.09
-9 -1 6 10.38 0.99
-9 -1 6 9.03 0.86
-9 1 6 8.65 2.74
-7 1 4 26.87 4.1
-7 -1 4 34.82 1.06
7 -1 -4 31.25 1.28
-7 -1 4 32.42 0.94
5 1 -2 2.47 1
5 -1 -2 1.82 1.36
-5 1 2 2.47 5.87
-5 -1 2 1.93 0.93
-3 -1 0 970.17 3.42
3 1 0 1000 3.61
-1 -1 -2 110.4 1.92
1 -1 2 106.97 2.28
1 1 2 106.56 1.92
-1 1 -2 121.01 2.35
1 -1 -4 15.84 2.26
1 1 -4 15.82 1.35
-1 -1 4 15.93 1.33
-1 1 4 15.43 2.26
-3 1 6 131.73 4.27
-3 -1 6 148.06 1.69
3 -1 -6 140.2 3.41
3 1 -6 144.71 1.72
5 1 -8 1.52 1.01
-5 -1 8 3.6 1.02
5 -1 -8 1.05 2.06
-5 1 8 2.26 2.31
-7 -1 10 76.77 1.31
-7 1 10 72.5 2.37
7 -1 -10 73.07 1.86
7 1 -10 73.49 1.27
9 1 -12 1.38 1.01
9 -1 -12 3.49 1.34
-9 -1 12 0.1 1.13
-9 1 12 1.2 1.88
11 1 -14 56.14 1.27
11 -1 -14 53.77 1.65
-11 -1 14 59.09 1.45
-11 1 14 55.87 2
13 1 -16 14.36 1.2
13 -1 -16 11.84 1.26
-13 1 16 10.21 1.79
-13 -1 16 18.45 1.48
15 -1 -18 0.1 1.25
-16 2 13 12.02 2.91
16 -2 -13 12.37 1.26
-16 -2 13 13.81 1.23
-16 -2 13 14.34 1.04
-14 -2 11 -0.92 1.01
-14 2 11 0.96 3.65
14 -2 -11 1.32 1.06
-14 -2 11 0.49 0.88
-12 2 9 6.79 3.74
12 -2 -9 5.82 1.09
-12 -2 9 6.59 0.85
-12 -2 9 4.81 0.94
-10 -2 7 13.35 0.87
-10 -2 7 14.93 0.93
-10 2 7 13.34 3.02
10 -2 -7 12.52 1.15
-8 -2 5 423.72 1.83
8 -2 -5 409.01 3.15
-8 -2 5 463.3 1.93
-8 2 5 385.69 3.8
6 -2 -3 0.43 2.08
-6 -2 3 0.74 0.85
-6 2 3 0.82 1.26
-4 -2 1 5.09 0.84
4 2 -1 5.65 0.85
-4 2 1 5.13 1.18
4 -2 -1 4.94 2.17
-2 -2 -1 95.51 1.31
2 2 1 97.05 1.31
2 -2 1 96.96 1.43
2 -2 1 97.73 1.7
0 2 3 1.31 1.07
0 -2 3 1.46 0.91
0 -2 -3 0.76 1.11
0 -2 3 1.29 0.83
-2 -2 5 405.41 2.17
-2 -2 5 400.45 2.03
-2 2 5 372.95 2.63
2 -2 -5 379.91 2.88
-4 2 7 81.53 2.24
4 -2 -7 73.92 2.48
-4 -2 7 88.04 1.2
6 2 -9 92.91 1.25
-6 -2 9 97.63 1.02
6 -2 -9 93.04 2.8
-6 2 9 94.75 3.64
8 2 -11 9.49 0.74
-8 -2 11 12.02 0.98
8 -2 -11 10.4 1.78
-8 2 11 5.39 4.19
10 -2 -13 12.93 1.47
-10 2 13 14.63 2.61
-10 -2 13 12.52 1.08
-12 -2 15 24.21 1.26
-12 2 15 19.8 2.12
-12 -2 15 22.48 1.19
12 -2 -15 23.37 1.45
-14 2 17 2.37 1.77
-14 -2 17 3.29 1.23
14 -2 -17 2.25 1.36
-14 -2 17 2.91 1.37
-15 -3 12 5.54 1.13
-15 -3 12 5.55 1.05
-15 3 12 3.38 1.93
15 -3 -12 4.31 1.29
13 -3 -10 39 1.49
-13 -3 10 37.07 0.85
-13 3 10 39.03 2.12
-13 -3 10 44.07 1.14
-11 -3 8 20.89 0.92
-11 -3 8 24.36 0.97
11 -3 -8 20.95 1.49
-11 3 8 19.22 1.64
-9 -3 6 7.32 0.86
9 -3 -6 5.13 1.63
-9 3 6 5.92 1.29
-9 -3 6 4.92 0.85
-7 3 4 20.89 1.22
-7 -3 4 21.82 0.9
-7 -3 4 22.05 0.9
7 -3 -4 21.28 2.93
5 -3 -2 2.41 2.01
-5 -3 2 0.73 0.83
-5 3 2 1.94 0.97
5 3 -2 1.97 0.81
3 3 0 471.5 1.98
3 -3 0 441.46 2.73
-3 3 0 443.76 2.29
-3 -3 0 459.94 2.01
1 3 2 39.6 1.05
1 -3 2 40.81 1.12
-1 -3 -2 37.91 1.11
-1 -3 4 9.66 0.82
-1 3 4 9.22 1.27
-1 -3 4 8.32 0.95
1 -3 -4 9.16 1.16
3 -3 -6 68.3 2.09
-3 3 6 65.55 1.6
-3 -3 6 65.61 1.03
-3 -3 6 68.33 1.18
-5 -3 8 0.96 0.93
5 -3 -8 -0.2 2.11
-5 3 8 -0.42 1.48
-5 -3 8 0.65 0.82
-7 -3 10 46.26 1.04
-7 3 10 43.42 2.21
7 -3 -10 44.16 2
-7 -3 10 45.83 1.13
-9 -3 12 0.48 1.04
9 -3 -12 -0.47 1.81
-9 -3 12 0.72 0.97
-9 3 12 3.44 3.52
-11 3 14 40.59 3.68
11 -3 -14 35.14 1.79
-11 -3 14 30.53 1.18
-11 -3 14 30.61 1.21
-12 -4 9 4 1
-12 4 9 3.69 1.56
-12 -4 9 2.06 1.02
12 -4 -9 2.51 1.68
-10 -4 7 4.14 0.97
10 -4 -7 4.12 1.78
-10 4 7 4.25 1.35
-10 -4 7 2.32 0.68
-8 -4 5 167.25 1.37
-8 -4 5 160.85 1.38
8 -4 -5 162.05 3.77
-8 4 5 155.33 1.86
-6 -4 3 0.63 0.59
-6 -4 3 1.7 0.91
-6 4 3 0.19 0.98
6 -4 -3 2.48 2.78
4 4 -1 1.69 0.84
4 -4 -1 1.43 1.25
-4 -4 1 1.05 0.89
-2 -4 -1 35.05 1.12
2 4 1 34.51 1
2 -4 1 33.86 0.92
0 4 3 0.33 0.92
0 -4 3 1.02 0.98
0 -4 -3 -0.13 1.08
0 -4 3 0.19 0.82
-2 4 5 159.41 1.51
-2 -4 5 157.65 1.53
-2 -4 5 149.3 1.34
2 -4 -5 159.55 1.88
-4 -4 7 27.26 1.12
-4 4 7 29.05 1.24
4 -4 -7 33.5 2.25
-4 -4 7 27.98 0.94
-6 4 9 36.39 1.39
6 -4 -9 33.74 2.22
-6 -4 9 32.94 1.21
-6 -4 9 35.65 1.01
-8 4 11 5.5 1.77
8 -4 -11 4.92 1.86
-8 -4 11 5.08 0.93
-8 -4 11 5.19 1.15
-10 -4 13 4.34 1.07
-10 4 13 4.09 1.71
-10 -4 13 0.65 1.22
10 -4 -13 2.17 2.21
-7 -5 4 8.63 0.96
7 -5 -4 9.49 1.16
-7 -5 4 6.5 1.09
7 -5 -4 11.41 5.01
5 -5 -2 1.46 2.45
5 -5 -2 0.28 1.06
-5 -5 2 2.13 1.07
-5 -5 2 0.18 0.93
3 5 0 115.43 1.31
3 -5 0 122.43 2.22
-3 -5 0 127.11 1.54
3 -5 0 120.1 1.59
-1 -5 -2 7.43 1.19
1 5 2 7.88 0.94
1 -5 2 -0.37 1.3
1 -5 2 6.55 1.06
1 -5 -4 3.1 1.44
-1 -5 4 3.02 0.89
-1 -5 4 1.92 1.13
-1 5 4 5.02 1.2
3 -5 -6 17.12 1.83
-3 -5 6 16.86 1.16
-3 -5 6 14.65 0.94
-3 5 6 15.89 1.11
-5 -5 8 0.44 1.15
5 -5 -8 3.44 2.54
-5 5 8 0.14 1.12
-5 -5 8 1.17 0.96
-18 0 14 -0.18 0.99
-16 0 12 39.32 1.06
-16 0 12 39.01 1.74
-14 0 10 20.23 1.44
-14 0 10 18.26 0.94
-12 0 8 4.36 1.25
-12 0 8 4.53 0.79
-10 0 6 40.82 1.11
-10 0 6 41.62 1.28
-8 0 4 86.81 1.57
-8 0 4 79.74 1.16
-6 0 2 11.55 1.04
-6 0 2 11.18 0.9
4 0 0 5.05 1.44
-4 0 0 5.72 1.4
-2 0 -2 441.15 4.69
2 0 2 411.84 4.13
0 0 -4 140.83 5.78
0 0 4 150.68 4.89
-2 0 6 274.02 3.76
2 0 -6 249.56 3.7
4 0 -8 163.83 2.29
-4 0 8 177.84 2.51
6 0 -10 56.38 1.6
-6 0 10 55.61 1.83
-8 0 12 2.16 1.55
8 0 -12 0.65 1.21
-10 0 14 13.74 1.73
10 0 -14 12.72 1.21
-12 0 16 161.34 2.4
12 0 -16 142.83 1.72
14 0 -18 6.98 1.28
-14 0 18 3.72 2.1
-17 -1 13 1.68 1.32
-17 1 13 1.16 2.66
-17 -1 13 1.13 0.96
-17 1 13 1.07 1.14
-15 -1 11 15.47 1.22
-15 -1 11 14.42 0.93
-15 1 11 16.12 2.97
-15 1 11 16.04 1.14
-13 1 9 7.16 3.07
-13 -1 9 5.65 1.01
-13 -1 9 7.51 0.84
-11 1 7 67.31 3.33
-11 -1 7 65.63 1.15
11 -1 -7 67.57 1.27
-11 -1 7 69.72 1.17
-9 -1 5 52.89 0.99
-9 -1 5 54.53 1.08
-9 1 5 49.69 3.51
9 -1 -5 52.29 1.28
-7 -1 3 124.04 1.27
-7 1 3 107.94 5.03
-7 -1 3 133.95 1.38
-5 -1 1 30.29 1.05
5 1 -1 29.41 1.13
3 1 1 74.72 1.48
-3 -1 -1 76.41 1.48
3 -1 1 81.29 3.25
3 -1 1 82.36 9.98
1 -1 3 27.89 1.75
-1 1 -3 30.19 1.61
1 1 3 27.9 1.64
-1 -1 -3 29.93 1.6
-1 -1 5 279.26 2.4
-1 1 5 284.27 3.55
1 -1 -5 293.65 3.51
1 1 -5 285.13 2.47
-3 1 7 34.29 3.58
3 -1 -7 26.07 1.85
-3 -1 7 28.59 1.26
3 1 -7 26.54 0.99
-5 -1 9 91.17 1.4
5 1 -9 85.81 1.42
-5 1 9 93.27 2.47
5 -1 -9 82.89 2.03
-7 1 11 552 3.48
7 -1 -11 510.78 3.22
7 1 -11 525.77 2.4
-7 -1 11 545.55 2.48
-9 1 13 6.69 1.75
9 -1 -13 5.36 1.47
9 1 -13 6.1 1.07
-9 -1 13 6.47 1.19
-11 -1 15 4.59 1.36
-11 1 15 2.1 1.69
11 -1 -15 4.32 1.26
11 1 -15 4.93 1.16
13 -1 -17 12.97 1.36
-13 1 17 12.8 1.7
-13 -1 17 13.39 1.56
13 1 -17 11.6 1.23
-16 2 12 26.48 3.5
-16 -2 12 27.1 1.22
-16 -2 12 24.56 1.06
-14 -2 10 14.49 0.88
-14 2 10 12.33 3.36
14 -2 -10 14.1 1.27
-14 -2 10 14.17 1.04
-12 -2 8 3.86 0.79
-12 2 8 5.39 2.99
12 -2 -8 3.13 1.01
-12 -2 8 4.19 0.89
-10 -2 6 26.87 0.91
10 -2 -6 24.96 1.27
-10 -2 6 26.86 0.94
-10 2 6 22.39 2.23
8 -2 -4 54.32 1.71
-8 -2 4 51.55 0.79
-8 2 4 51.47 2.14
-8 -2 4 59.89 1.01
6 -2 -2 8.18 2.19
-6 2 2 8.51 1.42
-6 -2 2 8.83 0.83
6 2 -2 9.17 0.86
4 -2 0 2.36 1.13
-4 -2 0 1.98 0.84
4 2 0 2.28 0.85
4 -2 0 2.31 1.97
2 -2 2 306.77 2.4
2 -2 2 325.96 2.57
2 2 2 307.26 1.88
-2 -2 -2 299.3 1.87
0 -2 4 88.19 1.36
0 2 4 80.54 1.44
0 -2 -4 79.14 1.46
0 -2 4 82.27 1.27
2 -2 -6 193.56 2.38
-2 2 6 183.64 2.16
-2 -2 6 192.68 1.56
4 2 -8 127.3 1.42
4 -2 -8 98.99 2.43
-4 -2 8 124.11 1.31
-4 2 8 121.41 2.61
-6 -2 10 41.06 0.81
6 2 -10 37.9 1.1
-6 2 10 37.48 3.31
6 -2 -10 41.96 1.91
8 2 -12 0.75 1
-8 -2 12 3.15 0.96
-8 2 12 3.92 2.92
8 -2 -12 1.6 1.74
-10 2 14 10.51 2.01
-10 -2 14 10.54 1.11
10 -2 -14 9.08 1.62
10 2 -14 7.08 1.12
-12 2 16 99.86 2.66
12 -2 -16 92.87 1.93
-12 -2 16 107.45 1.61
-15 3 11 7.69 1.92
-15 -3 11 5.53 1.1
-15 -3 11 6.86 0.99
-13 -3 9 4.94 0.97
-13 -3 9 3.23 0.93
-13 3 9 2.74 1.58
13 -3 -9 3.53 1.31
-11 3 7 35.15 1.71
11 -3 -7 35.51 1.66
-11 -3 7 35.45 0.79
-11 -3 7 40.06 0.98
-9 3 5 23.53 1.48
9 -3 -5 28.4 1.79
-9 -3 5 26.08 0.91
-9 -3 5 26.21 0.72
-7 -3 3 55.29 0.99
-7 3 3 52.63 1.55
7 -3 -3 54.84 2.88
5 -3 -1 9.75 1.85
5 3 -1 11.72 0.86
-5 -3 1 12.14 0.88
-3 -3 -1 35.53 1.01
3 -3 1 38.82 1.34
3 3 1 38.77 1.01
3 -3 1 37.44 1.09
-1 -3 -3 13.21 1
1 3 3 12.15 0.97
1 -3 3 13.64 1.03
-1 -3 5 126.88 1.43
-1 -3 5 120.73 1.4
-1 3 5 123.15 1.43
1 -3 -5 121.94 1.58
-3 -3 7 16.01 0.88
-3 -3 7 17.46 1.01
3 -3 -7 17.61 1.69
-3 3 7 16.76 1.34
-5 -3 9 49.4 1.14
5 -3 -9 43.48 2.15
-5 -3 9 47.91 1.01
-5 3 9 44.51 1.83
-7 -3 11 276.76 1.87
7 -3 -11 283.43 2.66
-7 3 11 275.9 3.56
-7 -3 11 271.06 1.71
-9 3 13 6.24 4.46
-9 -3 13 4.42 1.01
-9 -3 13 2.25 1.09
9 -3 -13 3.78 1.74
-11 -3 15 2.06 1.14
-11 -3 15 2.87 1.2
11 -3 -15 2.76 1.7
-11 3 15 7.83 4.84
-12 -4 8 1.6 0.98
-12 -4 8 3.07 0.97
12 -4 -8 1.44 1.96
-12 4 8 2.17 2.03
-10 -4 6 9.26 0.95
-10 -4 6 8.85 0.97
-10 4 6 7.83 1.41
10 -4 -6 8.51 1.9
-8 -4 4 22.9 0.97
-8 -4 4 20.07 0.74
8 -4 -4 22.3 2.8
6 -4 -2 7.3 2.69
-6 -4 2 5.11 0.93
6 -4 -2 5.43 1.11
-4 -4 0 -0.77 0.94
4 4 0 0.34 0.88
4 -4 0 -0.11 0.92
4 -4 0 0.98 1.47
2 -4 2 101.51 1.34
2 4 2 103.42 1.21
-2 -4 -2 100.75 1.3
0 -4 -4 26.15 1.21
0 -4 4 27.5 1.3
0 4 4 27.93 1.07
0 -4 4 27.46 0.91
2 -4 -6 72.74 1.65
-2 -4 6 69.55 1.09
-2 -4 6 67.22 1.46
-2 4 6 71.96 1.31
4 -4 -8 42.99 2.03
-4 -4 8 40.29 1.19
-4 4 8 42.79 1.38
-4 -4 8 39.27 0.99
6 -4 -10 14.04 2.06
-6 -4 10 16.01 1.15
-6 4 10 17.16 1.77
-6 -4 10 14.64 0.95
-8 -4 12 0.81 0.99
-8 -4 12 2.14 1.17
-8 4 12 0.93 2.1
8 -4 -12 0.88 1.75
-9 -5 5 7.53 1.13
9 -5 -5 1.03 2.46
9 -5 -5 4.57 1.66
-7 -5 3 14.08 1.14
7 -5 -3 16.27 1.39
-7 -5 3 17.39 1.02
7 -5 -3 19.04 5.31
5 -5 -1 4.5 2.26
5 -5 -1 1.6 1.03
-5 -5 1 3.83 1.06
3 5 1 15.04 1.02
3 -5 1 13.21 0.96
3 -5 1 12.83 1.72
-3 -5 -1 12.08 1.15
1 -5 3 4.07 1.08
1 5 3 3.86 1.03
-1 -5 -3 3.21 1.23
-1 -5 5 27.63 1.02
-1 -5 5 21.79 1.26
-1 5 5 30.14 1.16
1 -5 -5 31.17 1.53
-3 -5 7 5.7 0.94
-3 -5 7 3.83 1.19
-3 5 7 5.47 1.38
3 -5 -7 8.08 1.86
5 -5 -9 13.59 2.45
-5 5 9 15.95 1.28
-5 -5 9 12.35 1.02
-5 -5 9 11.06 1.27
-18 0 13 2.52 2.13
-18 0 13 0.84 1.16
-16 0 11 39.6 1.04
-16 0 11 35.74 1.71
-14 0 9 12.37 1.32
-14 0 9 11.9 1.01
-12 0 7 11.08 1.13
-12 0 7 10.54 0.82
-10 0 5 29.65 1.12
-10 0 5 27.61 0.86
-8 0 3 288.8 2.24
-8 0 3 254.59 1.79
6 0 -1 646.2 3.33
-6 0 1 614.38 3.07
-4 0 -1 21.28 1.72
4 0 1 20.15 1.57
-2 0 -3 276.52 4.12
2 0 3 270.18 3.51
0 0 -5 9.28 3.72
0 0 5 10.01 3.25
-2 0 7 111.98 2.47
2 0 -7 94.83 3.14
4 0 -9 12.37 1.78
-4 0 9 13.4 1.88
-6 0 11 72.55 1.95
6 0 -11 71.44 1.72
-8 0 13 44.62 1.83
8 0 -13 44.45 1.46
10 0 -15 41.08 1.46
-10 0 15 47.54 1.95
12 0 -17 1.25 1.31
-12 0 17 -0.16 1.92
14 0 -19 0.99 1.34
-14 0 19 -0.63 1.91
-17 -1 12 3.05 1.57
-17 1 12 1.91 0.91
-17 -1 12 0.73 0.93
-17 1 12 1.11 2.38
-15 1 10 57.94 1.28
-15 -1 10 54.7 1.04
-15 -1 10 55.98 1.31
-15 1 10 52.68 3.06
-13 1 8 30.8 1.1
-13 -1 8 29.29 0.91
-13 1 8 28.36 2.79
-13 -1 8 31.58 1.1
-11 1 6 70.89 1.32
-11 -1 6 73.18 1.2
-11 -1 6 72.9 1.04
-11 1 6 70.13 3.35
-9 -1 4 0.31 0.89
-9 1 4 0.79 1.03
-9 1 4 -0.55 3.2
-9 -1 4 0.44 0.79
-7 1 2 1.25 1.27
-7 -1 2 1.81 0.82
7 1 -2 1.74 0.88
-7 1 2 1.78 4.86
5 1 0 129.9 1.49
-5 -1 0 128.79 1.44
3 -1 2 3.15 5.12
3 1 2 0.86 1.13
-3 -1 -2 0.48 1.15
-3 1 -2 0.1 1.91
1 -1 4 453.99 3.81
-1 1 -4 468.45 3.8
1 1 4 488.47 3.18
-1 -1 -4 468.51 2.88
1 1 -6 404.92 2.91
1 -1 -6 451.09 4.03
-1 1 6 436.64 4.06
-1 -1 6 427.3 2.84
-3 1 8 6.26 2.52
3 -1 -8 4.25 2
3 1 -8 5.27 1.25
-3 -1 8 7.52 1.17
5 1 -10 6.98 1.23
-5 1 10 6.77 1.83
5 -1 -10 5.91 2.12
-5 -1 10 8.03 1.2
7 -1 -12 3.38 1.68
-7 1 12 4.12 1.67
7 1 -12 2.23 1.16
-7 -1 12 3.45 1.2
9 -1 -14 14.2 1.56
-9 1 14 12.69 1.68
9 1 -14 16.03 1.2
-9 -1 14 16.66 1.33
11 1 -16 6.03 1.26
-11 1 16 8.98 1.6
-11 -1 16 7.76 1.43
11 -1 -16 7.31 1.37
13 -1 -18 1.66 1.39
-13 1 18 1.8 1.53
-13 -1 18 2.41 1.6
13 1 -18 0.84 1.27
-16 2 11 27.94 3.17
-16 -2 11 26.94 1.03
-16 2 11 22.86 1.3
-16 -2 11 30.23 1.21
-14 2 9 8.46 3.29
-14 -2 9 8.37 0.87
-14 2 9 8.29 1.08
-14 -2 9 9.55 1.01
-12 -2 7 7.07 0.91
-12 -2 7 9.66 0.63
-12 2 7 5.96 2.68
-10 -2 5 22.35 0.87
-10 2 5 20.18 2.06
-10 -2 5 23.15 0.93
-8 -2 3 179.63 1.3
6 2 -1 437.95 1.93
-6 -2 1 430.86 1.89
-4 -2 -1 13.6 0.92
4 -2 1 12.39 1.58
4 -2 1 11.86 1.7
4 2 1 12.68 0.93
2 2 3 146.55 1.49
2 -2 3 164.03 1.95
2 -2 3 148.87 1.92
-2 -2 -3 148.87 1.32
0 -2 -5 5.06 1.22
0 -2 5 5.63 1.14
0 2 5 9.1 1.21
2 -2 -7 79.47 2.07
-2 -2 7 82.3 1.25
-2 2 7 74.4 1.96
2 2 -7 85.18 1.52
4 2 -9 7.59 1.07
-4 -2 9 6.33 0.98
4 -2 -9 7.35 1.93
-4 2 9 6.89 2.49
6 2 -11 54.04 1.26
-6 -2 11 54.88 1.2
6 -2 -11 50.4 1.84
-6 2 11 37.39 3.18
-8 -2 13 33.24 1.13
8 2 -13 33.01 1.23
8 -2 -13 29.69 1.8
-8 2 13 30.68 2.28
-10 2 15 31.39 2.05
10 -2 -15 32.11 1.71
10 2 -15 27.7 1.3
-10 -2 15 31.81 1.27
-12 2 17 3.13 2.08
12 -2 -17 -0.48 1.52
-12 -2 17 2.56 1.34
-15 3 10 26.4 2.22
-15 -3 10 25.36 1.1
-15 -3 10 28.18 1.13
-15 3 10 25.57 2.04
-13 -3 8 15.48 0.69
-13 3 8 13.76 1.91
-13 -3 8 12.9 0.74
-11 3 6 43.39 2.76
-11 -3 6 44.44 1.01
-11 -3 6 40.17 0.78
-9 -3 4 0.8 0.86
-9 -3 4 0.06 0.62
-7 -3 2 1.97 0.82
7 3 -2 1.76 0.84
7 -3 -2 1.45 1.46
7 -3 -2 1.99 2.55
5 -3 0 48.43 1.52
-5 -3 0 49.18 1.04
5 3 0 50 1.01
5 -3 0 48.44 2.44
3 -3 2 0.28 0.94
3 3 2 1.9 0.91
3 -3 2 0.43 1.08
-3 -3 -2 0.3 0.9
1 -3 4 241.76 1.74
1 3 4 252.45 1.7
-1 -3 -4 242.48 1.74
-1 -3 6 217.74 1.7
-1 3 6 214.09 1.76
-1 -3 6 200.55 1.63
1 -3 -6 212.91 1.92
-3 -3 8 2.44 0.96
3 -3 -8 1.17 1.64
-3 -3 8 2.19 0.86
-3 3 8 3.03 1.58
-5 -3 10 3.71 1.04
-5 3 10 4.27 1.94
5 -3 -10 5.2 1.87
-5 -3 10 3.23 0.89
-7 -3 12 -0.06 1.1
-7 -3 12 0.65 0.94
7 -3 -12 -2.4 1.57
-7 3 12 2.84 2.89
-9 3 14 9.74 4.04
-9 -3 14 6.82 1.05
-9 -3 14 5.67 1.17
9 -3 -14 8.05 1.59
-11 -3 16 4.61 1.23
-11 -3 16 3.53 1.31
11 -3 -16 3.89 1.72
-11 3 16 2.66 4.6
-12 -4 7 3.6 0.97
-12 -4 7 5.12 1.01
-10 -4 5 10.95 0.94
-10 -4 5 9.88 0.95
8 -4 -3 57.56 2.1
-8 -4 3 61.82 1.12
-8 -4 3 56.85 0.87
8 -4 -3 55.9 3.15
6 4 -1 166.61 1.35
6 -4 -1 177.97 4.22
-6 -4 1 159.11 1.23
6 -4 -1 162.08 2.01
4 4 1 6.17 0.91
4 -4 1 3.64 0.98
-4 -4 -1 4.68 0.91
4 -4 1 4.02 1.41
2 4 3 40.66 1.06
2 -4 3 38.5 1.19
-2 -4 -3 41.23 1.15
2 -4 3 36.35 1.01
0 -4 5 2.5 1.03
0 4 5 3.93 1.01
0 -4 5 3.64 1.2
0 -4 -5 1.37 1.13
2 -4 -7 35 1.51
-2 -4 7 32.39 1.18
-2 4 7 33.31 1.25
-2 -4 7 29.77 1.15
4 -4 -9 3.36 2
-4 4 9 -0.64 1.65
-4 -4 9 3.44 0.89
-4 -4 9 -0.17 1.1
-6 -4 11 15.87 1.01
6 -4 -11 16.12 2.36
-6 4 11 16.76 2.08
-6 -4 11 16.57 1.26
-8 4 13 13.03 2.08
-8 -4 13 13.74 1.32
8 -4 -13 13.34 1.74
-8 -4 13 13.37 1.06
-9 -5 4 -1.24 0.98
-9 -5 4 1.9 1.05
-7 -5 2 0.02 0.98
-7 -5 2 0.85 1.06
7 -5 -2 0.84 4.77
7 -5 -2 0.38 1.45
5 -5 0 9 2.38
5 -5 0 8.66 1.19
-5 -5 0 8.86 1.12
5 5 0 11.44 0.99
3 -5 2 -0.12 1.08
3 5 2 0.08 0.98
3 -5 2 -0.95 1.57
-3 -5 -2 0.3 1.12
1 5 4 72.19 1.32
-1 -5 -4 77.13 1.53
1 -5 4 69.99 1.23
1 -5 -6 52.08 1.69
-1 5 6 54.02 1.31
-1 -5 6 40.55 1.39
-1 -5 6 43.46 1.14
3 -5 -8 -0.76 1.92
-3 5 8 0.59 1.21
-3 -5 8 0.92 1.45
-3 -5 8 0.12 1.17
-18 0 12 0.16 0.93
-18 0 12 0.48 1.72
-16 0 10 39.78 1.94
-16 0 10 43.31 1.01
-14 0 8 114.74 1.76
-14 0 8 126.81 1.42
-12 0 6 8.4 1.28
-12 0 6 9.15 0.78
-10 0 4 81.44 1.38
-10 0 4 80.73 1.27
-8 0 2 182.74 1.79
-8 0 2 173.32 1.67
6 0 0 694.24 3.34
-6 0 0 641.59 3.16
4 0 2 66.89 1.63
-4 0 -2 72.55 2.16
-2 0 -4 475.44 5.08
2 0 4 448.38 4.19
0 0 6 450.59 4.37
0 0 -6 381.91 4.59
-2 0 8 95.46 1.98
2 0 -8 93.6 2.95
-4 0 10 555.7 3.68
4 0 -10 479.96 3.53
6 0 -12 30.48 1.65
-6 0 12 28.71 1.82
-8 0 14 10.78 1.82
8 0 -14 10.44 1.47
-10 0 16 2.07 1.8
10 0 -16 0.61 1.38
12 0 -18 7.34 1.43
-12 0 18 8.28 1.83
-17 -1 11 5.84 0.91
-17 1 11 5.47 0.93
-17 -1 11 3.68 1.49
-17 1 11 4.49 3
-15 1 9 11.09 1.06
-15 -1 9 12.74 1.11
-15 -1 9 10.87 0.88
-15 1 9 9.77 2.73
-13 1 7 0.88 0.94
-13 -1 7 -0.25 0.79
-13 1 7 1.05 2.56
-13 -1 7 1.65 0.94
-11 1 5 546.03 5.68
-11 -1 5 627.15 2.37
-11 -1 5 570.38 2.1
-11 1 5 572.6 2.9
-9 1 3 3.74 1.05
-9 -1 3 3.89 1.05
-9 -1 3 4.27 0.77
-9 1 3 3.91 2.65
-7 1 1 6.75 2.19
-7 -1 1 7.07 0.8
-7 1 1 7.24 4.59
7 1 -1 5.78 0.89
-5 -1 -1 858.29 3.03
5 1 1 816.49 2.99
3 -1 3 6.08 3.55
3 1 3 5.15 1.21
-3 -1 -3 4.24 1.23
-3 1 -3 4.14 2.12
-1 -1 -5 280.41 2.39
-1 1 -5 257.33 3.16
1 1 5 280.26 2.68
1 -1 5 278.4 3.22
1 -1 -7 59.13 1.84
-1 -1 7 57.19 1.71
1 1 -7 52.95 1.88
-1 1 7 52.01 1.96
-3 1 9 285.99 3.05
3 -1 -9 235.79 2.61
3 1 -9 232.32 2.23
-3 -1 9 250.61 2.1
-5 1 11 3.22 1.64
-5 -1 11 1.35 1.23
5 -1 -11 -0.26 1.28
5 1 -11 0.59 1.3
7 -1 -13 4.92 1.75
-7 1 13 2.88 1.55
7 1 -13 3.6 1.28
-7 -1 13 3.72 1.22
-9 -1 15 164.89 1.88
9 -1 -15 149.88 2.17
9 1 -15 151.14 1.8
-9 1 15 163.99 2.06
11 1 -17 -1.21 1.3
-11 -1 17 3.52 1.49
11 -1 -17 0.58 1.53
-11 1 17 1.67 1.51
-13 1 19 5.97 1.58
-13 -1 19 4.89 1.74
13 1 -19 7.45 1.39
13 -1 -19 10.56 1.58
-16 2 10 29.99 2.96
-16 -2 10 29.05 1.04
-16 2 10 29.98 1.36
-16 -2 10 31.28 1.2
-14 -2 8 87.67 1.26
-14 2 8 86.05 1.74
-14 -2 8 85.5 1.11
-14 2 8 79.4 3.26
-12 2 6 6.85 1.27
-12 -2 6 7.22 0.78
-12 -2 6 7.92 0.91
-12 2 6 6.74 2.39
-10 -2 4 58.65 0.98
-10 -2 4 61.67 1.05
-8 -2 2 111.98 1.14
8 2 -2 117.43 1.19
6 2 0 499.82 2.05
-6 -2 0 488.32 2
4 2 2 46.8 1.08
4 -2 2 47.27 1.82
-4 -2 -2 49.06 1.07
4 -2 2 42.97 2.39
2 -2 4 336.3 2.59
2 -2 4 292.4 2.6
2 2 4 305.84 1.95
-2 -2 -4 310.13 1.95
0 -2 -6 257.79 2.17
0 2 -6 278.02 2.12
0 2 6 252.5 2.14
0 -2 6 251.21 2.07
-2 -2 8 69.94 1.24
2 -2 -8 74.97 2.14
2 2 -8 78.93 1.38
-2 2 8 71.04 2.16
-4 -2 10 392.73 2.07
4 2 -10 386.77 2.25
4 -2 -10 354.8 2.84
-4 2 10 360.08 3.77
-6 -2 12 19.72 1.11
6 2 -12 18.46 1.23
6 -2 -12 20.37 1.56
-6 2 12 19.17 2.67
8 2 -14 10.76 1.23
-8 -2 14 7.63 1.16
8 -2 -14 6.21 1.54
-8 2 14 9.95 1.9
10 -2 -16 2.16 1.63
10 2 -16 0.62 1.24
-10 -2 16 2.59 1.21
-10 2 16 1.06 1.6
12 -2 -18 9.14 1.63
-12 -2 18 8.88 1.43
12 2 -18 5.77 1.42
-12 2 18 6.69 1.64
-15 -3 9 7.54 0.96
-15 -3 9 4.65 1.06
-13 -3 7 -0.81 0.86
-13 -3 7 0.45 0.91
-11 -3 5 309.27 1.61
-11 -3 5 339.65 1.66
-9 -3 3 2.7 0.81
7 3 -1 4.44 0.84
-7 -3 1 3.55 0.83
-5 -3 -1 396.28 1.84
5 -3 1 394.36 4.28
5 -3 1 380.65 3.38
5 3 1 404.46 1.83
3 3 3 0.9 0.92
3 -3 3 1.86 1.25
-3 -3 -3 2.86 0.96
3 -3 3 1.6 1.04
1 3 5 146.04 1.5
1 -3 5 143.36 1.59
-1 -3 -5 147.87 1.53
1 -3 -7 27.77 1.44
-1 -3 7 28.15 1.33
-1 -3 7 26.57 0.98
-1 3 7 24.48 1.34
-3 -3 9 134.9 1.57
-3 3 9 118.9 1.98
-3 -3 9 126.47 1.33
3 -3 -9 129.65 2.24
-5 -3 11 -0.29 0.91
5 -3 -11 1.2 1.73
-5 -3 11 0.82 1.07
-5 3 11 0.56 2.2
7 -3 -13 4.23 1.84
-7 -3 13 2.02 1.03
-7 -3 13 2.77 1.19
-7 3 13 -1.14 3.49
-9 -3 15 90.05 1.36
-9 -3 15 76.29 1.63
-9 3 15 76.37 4.76
9 -3 -15 81.3 1.9
-12 -4 6 1.92 0.96
-12 -4 6 3.89 1
-10 -4 4 22.63 1
-10 -4 4 23.95 1.01
-8 -4 2 33.65 0.79
6 4 0 181.2 1.39
6 -4 0 198.75 4.88
-6 -4 0 187.36 1.48
6 -4 0 171.19 2.51
4 4 2 14.79 0.99
-4 -4 -2 17 1.03
4 -4 2 14.69 1.47
4 -4 2 14.22 1.25
2 -4 4 94.55 1.62
-2 -4 -4 107.1 1.39
2 4 4 107.37 1.32
2 -4 4 98.06 1.44
0 4 6 90.14 1.38
0 -4 6 83.98 1.58
0 -4 6 80.93 1.21
0 -4 -6 89.98 1.53
2 -4 -8 25.54 1.62
-2 -4 8 24.61 1.18
-2 4 8 28.32 1.36
-2 -4 8 22.9 0.97
-4 -4 10 152.21 1.79
4 -4 -10 157.31 2.69
-4 -4 10 149.82 1.42
-4 4 10 146.74 2.09
-6 -4 12 8.03 1.25
-6 -4 12 6.33 1
6 -4 -12 7.21 1.77
-6 4 12 5.03 1.94
-8 -4 14 4.78 1.39
-8 4 14 4.61 3.08
-8 -4 14 4.89 1.08
8 -4 -14 4.04 1.98
7 -5 -1 0.99 1.98
-7 -5 1 0.14 1.13
7 -5 -1 1.82 4.61
5 5 1 109.47 1.38
-5 -5 -1 99.56 1.46
5 -5 1 90.67 1.98
5 -5 1 96.91 3.28
3 -5 3 1.84 1.11
3 5 3 1.4 1.06
3 -5 3 -0.22 1.59
-3 -5 -3 0.3 1.2
1 5 5 49.46 1.26
1 -5 5 39.62 1.15
-1 -5 -5 43.65 1.45
-1 5 7 6.02 1.22
1 -5 -7 5.16 1.59
-1 -5 7 4.25 1.45
-1 -5 7 6.1 0.98
3 -5 -9 37.21 2.19
-3 5 9 29.76 1.49
-3 -5 9 28.34 1.4
-3 -5 9 31.13 1.13
-18 0 11 16.14 1.18
-18 0 11 17.31 1.7
-16 0 9 0.56 1.69
-16 0 9 0.21 0.82
-14 0 7 0.46 0.94
-14 0 7 1.77 1.41
-12 0 5 21.09 0.83
-12 0 5 22.76 1.11
-10 0 3 72.29 1.11
-10 0 3 76.57 1.49
-8 0 1 134.28 1.61
6 0 1 1.59 1.09
-6 0 -1 1.73 0.94
-4 0 -3 215.1 2.7
4 0 3 225.3 2.31
-2 0 -5 35.4 2.82
2 0 5 38.2 2.45
0 0 7 12.57 2.21
0 0 -7 10.14 2.4
-2 0 9 7.25 1.85
2 0 -9 5.49 2.47
4 0 -11 194.52 2.68
-4 0 11 207.92 2.14
-6 0 13 15.85 1.89
6 0 -13 14.82 1.77
8 0 -15 12.76 1.63
-8 0 15 13.58 1.81
-10 0 17 7.17 1.72
10 0 -17 4.49 1.53
-12 0 19 1.81 1.78
12 0 -19 -2.29 1.51
-17 -1 10 43.53 1.64
-17 1 10 39.49 3.16
-17 1 10 43.3 1.34
-17 -1 10 41.37 1.1
-15 1 8 1.4 0.96
-15 -1 8 2.48 0.82
-15 1 8 2.02 2.69
-15 -1 8 3.23 1.05
-13 -1 6 32.65 1.05
-13 1 6 29.24 1.13
-13 -1 6 30.09 0.89
-13 1 6 25.36 3.15
-11 -1 4 74.75 1.29
-11 1 4 67.47 1.49
-11 -1 4 65.38 1
-11 1 4 63.94 3.43
-9 -1 2 24.66 1.06
-9 1 2 26.49 3.13
-9 1 2 24.72 1.49
7 1 0 14.45 0.94
-7 1 0 14 5.73
-7 -1 0 13.04 0.88
-7 1 0 13.61 3.03
5 -1 2 10.9 1.72
-5 -1 -2 10.39 1.06
5 1 2 11.1 1.02
-5 1 -2 9.66 4.71
3 -1 4 214.01 3.98
-3 1 -4 163.63 3.81
3 1 4 190.82 1.94
-3 -1 -4 198.24 1.98
-1 -1 -6 394.37 2.75
1 -1 6 412.4 3.83
-1 1 -6 345.02 3.73
1 1 6 364.24 2.93
1 -1 -8 2.16 1.33
1 1 -8 2.57 1.64
-1 -1 8 1.13 1.47
-1 1 8 1.22 2.2
-3 1 10 14.63 1.87
3 -1 -10 13.89 1.68
3 1 -10 14.73 1.6
-3 -1 10 14.92 1.42
-5 1 12 25.04 1.65
-5 -1 12 24.34 1.4
5 -1 -12 24.34 1.74
5 1 -12 21.38 1.52
7 1 -14 4.27 1.36
7 -1 -14 3.63 1.68
-7 1 14 4.49 1.42
-7 -1 14 4.24 1.32
-9 1 16 66.4 1.7
9 -1 -16 65.88 1.51
9 1 -16 61.93 1.63
-9 -1 16 75.96 1.72
-11 1 18 0.43 1.45
-11 -1 18 3.45 1.64
11 -1 -18 1.22 1.57
11 1 -18 2.88 1.51
-16 -2 9 0.88 0.9
-16 -2 9 0 1.04
-16 2 9 0.29 1.38
-16 2 9 0.47 2.74
-14 2 7 0.56 1.44
-14 -2 7 0.06 0.82
-14 -2 7 0.67 0.9
-14 2 7 -0.09 2.45
-12 -2 5 17.08 0.9
-12 -2 5 17.2 0.82
-10 -2 3 53.44 1.01
-10 -2 3 52.38 0.94
8 2 -1 93.36 1.13
-8 -2 1 92.38 1.09
6 2 1 2.6 0.89
-6 -2 -1 1.73 0.85
4 -2 3 162.33 2.36
4 2 3 159.03 1.5
4 -2 3 152.11 3.73
-4 -2 -3 156.81 1.47
2 2 5 24.31 0.94
-2 2 -5 28.42 1.23
-2 -2 -5 25.98 1.22
2 -2 5 24.41 1.55
0 -2 7 3.96 1.12
0 -2 -7 4.56 1.43
0 2 -7 5.33 1.37
0 2 7 5.86 1.46
-2 -2 9 4.41 1.09
2 2 -9 3.73 1.2
2 -2 -9 6.11 1.9
-2 2 9 2.52 2.01
4 2 -11 161.48 1.73
4 -2 -11 149.68 2.12
-4 2 11 138.99 3.09
-4 -2 11 168.19 1.6
6 2 -13 8.96 1.28
6 -2 -13 10.28 1.5
-6 -2 13 9.48 1.11
-6 2 13 12.14 2.06
8 -2 -15 7 1.47
8 2 -15 7.37 1.35
-8 -2 15 9.4 1.25
-8 2 15 9.27 1.67
10 2 -17 6.16 1.41
10 -2 -17 3.37 1.5
-10 -2 17 4.34 1.31
-10 2 17 6.56 1.57
-15 -3 8 1.25 0.94
-15 -3 8 0.98 1.01
-13 -3 6 13.45 0.93
-13 -3 6 17.37 0.98
-11 -3 4 30.76 1
-11 -3 4 31.82 0.95
9 3 -2 19.14 0.91
-9 -3 2 17.57 0.87
7 3 0 6.68 0.61
-7 -3 0 5.93 0.84
5 -3 2 3.52 1.82
5 3 2 4.94 0.9
-5 -3 -2 3.71 0.9
5 -3 2 4.04 1.73
3 -3 4 81.44 1.62
3 -3 4 86.59 1.56
3 3 4 84.77 1.25
-3 -3 -4 82.6 1.25
1 -3 6 193.48 1.73
1 3 6 208.23 1.75
-1 -3 -6 207.28 1.76
1 -3 -8 1.19 1.42
-1 -3 8 1.2 0.93
-1 -3 8 0.85 1.06
-1 3 8 2.14 1.31
-3 -3 10 5.62 0.94
-3 -3 10 6.91 1.19
3 -3 -10 6.78 1.91
-3 3 10 5.34 1.74
-5 -3 12 14.14 1.01
5 -3 -12 14.84 1.61
-5 -3 12 14.46 1.27
-5 3 12 12.14 2.56
-7 -3 14 3.5 1.11
-7 -3 14 3.06 0.96
7 -3 -14 2.92 1.46
-7 3 14 1.95 3.61
-9 -3 16 32.3 1.56
-9 3 16 40.03 4.07
-9 -3 16 37.77 1.32
9 -3 -16 36.93 1.62
-12 -4 5 6.16 0.99
-12 -4 5 5.77 1
-10 -4 3 21.33 0.74
-10 -4 3 21.18 0.76
8 4 -1 32.92 1.02
-8 -4 1 32.99 1.03
6 -4 1 4.4 4
6 -4 1 3.12 1.77
6 4 1 3.93 0.93
-6 -4 -1 2.99 0.98
4 4 3 61.3 1.17
4 -4 3 55.66 1.45
4 -4 3 58.4 1.7
-4 -4 -3 62.73 1.23
2 4 5 9.38 1.07
2 -4 5 8.86 1.05
2 -4 5 8.6 1.14
-2 -4 -5 10.92 1.12
0 -4 -7 1.48 1.33
0 -4 7 1.95 1.02
0 4 7 0.24 1.15
0 -4 7 0.05 0.91
2 -4 -9 2.32 1.61
-2 -4 9 3.68 0.94
-2 -4 9 2.24 1.11
-2 4 9 1.67 1.4
-4 -4 11 69.13 1.52
-4 -4 11 67.85 1.23
4 -4 -11 68.91 2.17
-4 4 11 68.9 2
-6 -4 13 5 1.09
-6 -4 13 3.93 1.34
6 -4 -13 3.14 1.66
-6 4 13 5.23 2.88
7 5 0 1.04 1.04
-7 -5 0 0.08 1.1
5 5 2 1.13 1.03
5 -5 2 0.95 1.47
-5 -5 -2 1.09 1.12
5 -5 2 0.54 2.49
3 5 4 21.97 1.19
3 -5 4 17.1 1.28
3 -5 4 15.85 1.63
-3 -5 -4 21.09 1.29
1 5 6 58.44 1.38
1 -5 6 54.45 1.49
1 -5 6 45.54 1.5
-1 -5 -6 59.75 1.6
1 -5 -8 0.76 1.69
-1 -5 8 1.01 1.03
-1 5 8 2.82 1.28
-1 -5 8 1.21 1.24
3 -5 -10 2.63 2.63
-18 0 10 22.1 1
-18 0 10 19.35 2.03
-16 0 8 13.23 1.6
-16 0 8 16.6 1.05
-14 0 6 268.34 1.72
-14 0 6 260.69 2.39
-12 0 4 3.87 0.81
-12 0 4 2.95 0.95
-10 0 2 25.24 0.89
-10 0 2 28.96 1.23
8 0 0 121.2 1.54
-8 0 0 114.67 1.47
6 0 2 25 1.24
-6 0 -2 25.74 1.53
-4 0 -4 225.87 2.99
4 0 4 231.87 2.38
-2 0 -6 50.54 2.44
2 0 6 49.64 2.44
0 0 8 71.99 2.1
0 0 -8 57.24 2.25
-2 0 10 2.22 1.74
2 0 -10 4.44 2.19
4 0 -12 4.05 1.96
-4 0 12 2.86 1.58
-6 0 14 5.32 1.62
6 0 -14 5.05 1.8
-8 0 16 4.93 1.65
8 0 -16 2.04 1.7
-10 0 18 9.05 1.61
10 0 -18 7.35 1.64
12 0 -20 5.62 1.7
-12 0 20 11.06 1.76
-17 -1 9 18.41 0.98
-17 -1 9 21.33 1.52
-17 1 9 22.07 2.98
-17 1 9 20.98 1.17
-15 -1 7 -0.29 0.83
-15 1 7 0.25 0.99
-15 1 7 0.33 2.63
-15 -1 7 0.34 1.02
-13 -1 5 15.67 0.99
-13 1 5 13.43 1.04
-13 -1 5 13.45 0.97
-13 1 5 10.64 2.57
-11 1 3 2.62 2.63
-11 1 3 2.03 1.11
-11 -1 3 2.17 0.84
-11 -1 3 1.57 0.79
9 1 -1 503.89 2.2
-9 -1 1 495.67 2.09
-9 1 1 477.04 6.12
-9 1 1 458.09 4.84
7 1 1 80.31 1.21
-7 -1 -1 74.39 1.16
-7 1 -1 67.27 6.59
5 1 3 4.64 1
5 -1 3 3.84 1.46
-5 -1 -3 4.07 1.04
-5 1 -3 2.49 5.5
-3 1 -5 87.96 3.7
3 -1 5 133.18 3.27
3 1 5 104.93 1.65
-3 -1 -5 114.48 1.74
-1 1 -7 2.65 2.1
1 -1 7 3.14 2.5
1 1 7 1.23 1.8
-1 -1 -7 2.15 1.75
1 -1 -9 48.56 1.98
1 1 -9 45.58 2.05
-1 -1 9 55.98 1.89
-1 1 9 60.81 2.5
-3 1 11 1.23 1.58
-3 -1 11 5.98 1.47
3 1 -11 2.87 1.68
3 -1 -11 3.16 1.46
-5 1 13 35.23 1.56
-5 -1 13 34.15 1.53
5 1 -13 25.86 1.73
5 -1 -13 33.01 1.63
7 1 -15 7.93 1.57
7 -1 -15 8.62 1.57
-7 1 15 9.11 1.43
-7 -1 15 8.8 1.48
-9 1 17 4.93 1.37
9 -1 -17 6.39 1.62
9 1 -17 7.03 1.58
-9 -1 17 5.29 1.57
-11 1 19 2.11 1.38
-11 -1 19 2.58 1.81
11 -1 -19 2.87 1.62
11 1 -19 0.58 1.16
-16 -2 8 11.21 0.96
-16 2 8 11.33 2.15
-16 2 8 11.44 3.17
-16 -2 8 12.79 1.1
-14 -2 6 205.61 1.4
-14 -2 6 213.85 1.59
-12 -2 4 1.22 0.8
-12 -2 4 1.66 0.84
10 2 -2 18.77 0.92
-10 -2 2 18.82 0.88
8 2 0 88.07 1.12
-8 -2 0 85.02 1.05
6 2 2 15.14 0.97
-6 -2 -2 14 0.94
4 -2 4 157.78 3.95
4 -2 4 174.21 2.34
4 2 4 166.94 1.52
-4 -2 -4 168.45 1.52
-2 2 -6 43.59 1.45
2 2 6 41.35 1.32
2 -2 6 37.97 1.58
-2 -2 -6 40.19 1.32
0 -2 -8 41.6 1.64
0 2 8 41.25 1.64
0 -2 8 42.49 1.62
0 2 -8 44.11 1.44
2 -2 -10 2.85 1.75
-2 2 10 2.66 2.08
2 2 -10 2.02 1.36
-2 -2 10 1.33 1.15
4 -2 -12 4.91 1.45
-4 -2 12 4.66 1.14
-4 2 12 4.42 2.49
4 2 -12 4.78 1.35
6 2 -14 4.79 1.4
6 -2 -14 6.11 1.36
-6 -2 14 6.67 1.19
-6 2 14 3.65 1.73
8 -2 -16 2.65 1.43
8 2 -16 4.99 1.45
-8 -2 16 1.79 1.32
-8 2 16 4.39 1.57
10 -2 -18 5.51 1.52
-10 -2 18 5.96 1.47
-10 2 18 7.32 1.51
10 2 -18 3.91 1.61
-15 -3 7 0.42 0.98
-15 -3 7 -2.36 0.92
-13 -3 5 8.44 0.94
-13 -3 5 6.18 0.91
-11 -3 3 0.75 0.85
-11 -3 3 1.1 0.64
9 3 -1 251.03 1.5
-9 -3 1 256.65 1.47
7 3 1 37.64 0.99
-7 -3 -1 38.51 0.97
5 3 3 1.61 0.93
5 -3 3 2.65 1.6
5 -3 3 2.2 2.27
-5 -3 -3 3.52 0.93
3 -3 5 43.03 1.58
3 -3 5 48.03 1.47
3 3 5 47.06 1.18
-3 -3 -5 49.4 1.19
1 -3 7 0.84 1
1 3 7 0.07 1.19
-1 -3 -7 -0.01 1.22
-1 -3 9 30.59 1.13
1 -3 -9 36.76 1.61
-1 -3 9 33.75 1.49
-1 3 9 31.9 1.58
-3 -3 11 2.54 1.04
3 -3 -11 1.22 1.72
-3 3 11 0.15 1.94
-3 -3 11 3.69 1.26
5 -3 -13 15.25 1.55
-5 3 13 19.22 2.95
-5 -3 13 16.79 1.15
7 -3 -15 3.67 1.43
-7 3 15 7.93 3.5
-7 -3 15 4.77 1.19
9 -3 -17 4.14 1.43
-9 -3 17 3.28 1.53
-9 3 17 7.76 2.7
-9 -3 17 2.04 1.27
-12 -4 4 1.37 0.96
-12 -4 4 1.08 1.01
-10 -4 2 5.27 0.96
8 4 0 34.65 1.04
-8 -4 0 35.48 1.08
6 -4 2 3.75 4.79
6 4 2 4.21 0.96
-6 -4 -2 4.04 1.02
6 -4 2 4.09 3.36
4 4 4 70.77 1.2
4 -4 4 63.32 1.73
4 -4 4 60.53 1.65
-4 -4 -4 68.24 1.25
2 -4 6 12.7 1.24
2 -4 6 13.01 1.25
2 4 6 14.36 1.16
-2 -4 -6 16.27 1.19
0 -4 -8 15.36 1.4
0 -4 8 15.81 1.25
0 4 8 17.8 1.32
0 -4 8 14.73 1.32
-2 -4 10 -0.84 0.97
2 -4 -10 1.4 1.73
-2 -4 10 0.25 1.19
-2 4 10 0.19 1.56
-4 -4 12 2.41 1.04
-4 -4 12 3.39 1.35
4 -4 -12 3.88 1.85
-4 4 12 3.45 2
-6 -4 14 2.42 1.12
-6 -4 14 2.25 1.48
6 -4 -14 1.48 1.56
-6 4 14 4.88 2.88
7 5 1 10.03 1.1
-7 -5 -1 9.26 1.19
5 -5 3 1.51 1.92
5 5 3 1.58 1.11
-5 -5 -3 0.5 1.18
5 -5 3 1.89 2.39
3 -5 5 7.63 1.37
3 5 5 10.32 1.16
3 -5 5 8.52 1.85
-3 -5 -5 10.74 1.31
-1 -5 -7 1.22 1.44
1 -5 7 1.45 1.28
1 5 7 0.41 1.27
1 -5 7 0.55 1.19
1 -5 -9 15.15 1.79
-1 -5 9 10.18 1.14
-1 5 9 13.67 1.51
-1 -5 9 7.91 1.64
-18 0 9 5.26 1.58
-18 0 9 6.05 0.94
-16 0 7 6.86 1.03
-16 0 7 5.23 1.55
-14 0 5 52.26 1.02
-14 0 5 49.99 1.57
-12 0 3 0.71 1.15
-12 0 3 -0.18 0.9
-10 0 1 -0.21 0.89
-10 0 1 1.36 0.95
8 0 1 180.86 1.74
-8 0 -1 175.37 1.8
6 0 3 70.79 1.55
-6 0 -3 66.85 1.74
-4 0 -5 244.6 3.19
4 0 5 229.77 2.36
-2 0 -7 3.01 1.94
2 0 7 2.78 2.42
0 0 9 44.53 1.86
0 0 -9 39.53 1.99
-2 0 11 4.14 1.57
2 0 -11 3.01 1.85
4 0 -13 15.45 2.05
-4 0 13 15.39 1.56
-6 0 15 173.68 2.09
6 0 -15 172.57 2.47
-8 0 17 15.04 1.55
8 0 -17 10.51 1.27
-10 0 19 1.42 1.58
10 0 -19 0.86 1.68
-17 -1 8 4.24 0.86
-17 1 8 3.01 1.04
-17 1 8 2.94 3.23
-17 -1 8 2.79 1.39
-15 -1 6 13 1.05
-15 -1 6 13.45 0.87
-15 1 6 13.11 1.24
-15 1 6 10.22 2.74
-13 -1 4 75.9 1.1
-13 1 4 75.57 1.72
-13 1 4 65.87 3.31
-13 -1 4 81.23 1.24
-11 1 2 0.97 2.5
-11 -1 2 1.35 0.79
-11 -1 2 2.04 0.88
-11 1 2 1.46 1.39
-9 1 0 137.73 3.33
9 1 0 139.24 1.35
-9 -1 0 137.98 1.29
-9 1 0 132.45 4.34
7 -1 2 1.5 1.32
7 1 2 1.86 0.91
-7 1 -2 2.06 4.62
-7 -1 -2 1.66 0.86
5 1 4 31.2 1.19
5 -1 4 27.58 1.76
-5 1 -4 25.26 6.01
-5 -1 -4 32.4 1.25
-3 -1 -6 90.53 1.76
-3 1 -6 62.89 4.39
3 -1 6 94.69 2.82
3 1 6 84.3 1.66
-1 1 -8 100.85 3
-1 -1 -8 135.96 2.41
1 -1 8 132.06 2.4
1 1 8 133.98 2.36
1 1 -10 242.03 3.06
-1 -1 10 322.24 2.94
1 -1 -10 263.68 2.46
-1 1 10 316.06 2.91
-3 1 12 1.64 1.49
-3 -1 12 1.94 1.55
3 1 -12 2.07 1.88
3 -1 -12 0.97 1.44
-5 1 14 -1.04 0.92
-5 -1 14 2.81 1.5
5 1 -14 2.75 1.74
5 -1 -14 2.4 1.36
7 1 -16 1.54 1.77
-7 1 16 1.55 1.33
7 -1 -16 -0.4 1.48
-7 -1 16 0.26 1.59
-9 1 18 7 1.35
9 -1 -18 6.01 1.51
9 1 -18 5.87 1.75
-9 -1 18 6.1 1.73
-11 1 20 6.64 1.37
-11 -1 20 7.68 1.94
11 -1 -20 6.26 1.62
11 1 -20 4.97 1.87
-16 -2 7 4.91 1.01
-16 -2 7 5.03 1.11
-14 -2 5 41.15 1.12
-14 -2 5 38.47 0.96
-12 -2 3 -0.82 0.82
-12 -2 3 0.53 0.79
10 2 -1 0.41 0.86
-10 -2 1 -1.39 0.8
8 2 1 134.85 1.29
-8 -2 -1 126.87 1.23
6 2 3 46.83 1.09
-6 -2 -3 46.28 1.06
4 -2 5 194.63 3.86
-4 2 -5 187.36 2.43
4 2 5 176.7 1.63
-4 -2 -5 185.29 1.6
-2 -2 -7 2.46 1.22
2 -2 7 3 1.9
2 2 7 1.99 0.88
-2 2 -7 2.29 1.55
0 -2 -9 37.65 1.71
0 2 -9 28.9 1.56
0 -2 9 32.07 1.46
0 2 9 27.04 1.27
2 -2 -11 1.53 1.6
2 2 -11 1.94 1.39
-2 -2 11 0.43 1.18
-2 2 11 -0.21 1.51
4 -2 -13 9.33 1.42
-4 -2 13 11.31 1.28
4 2 -13 8.21 1.5
-4 2 13 11.92 1.43
6 2 -15 103.61 1.96
-6 -2 15 136.55 1.71
6 -2 -15 127.1 1.73
-6 2 15 139.96 1.98
8 -2 -17 7.61 1.36
8 2 -17 10.91 1.26
-8 -2 17 9.53 1.42
-8 2 17 14.69 1.47
10 -2 -19 -1.36 1.38
-10 -2 19 -1.85 1.62
10 2 -19 0.94 1.27
-10 2 19 1.52 1.47
-15 -3 6 6.32 0.91
-15 -3 6 5.44 1
-13 -3 4 40.45 0.8
-13 -3 4 45.33 1.11
-11 -3 2 2.38 0.82
9 3 0 83.3 1.13
-9 -3 0 79.44 1.08
7 3 2 1.25 0.91
-7 -3 -2 0.44 0.88
5 3 4 13.01 0.74
5 -3 4 14.85 3.63
5 -3 4 13.25 1.65
-5 -3 -4 14.34 1.02
3 -3 6 45.98 1.45
3 3 6 47.43 1.23
3 -3 6 45.38 1.77
-3 -3 -6 50.17 1.23
-1 -3 -8 63.28 1.48
1 3 8 59.33 1.14
1 -3 8 57.58 1.4
-1 -3 10 163.87 1.92
1 -3 -10 168.9 1.85
-1 3 10 151.35 2.18
-1 -3 10 151.23 1.67
3 -3 -12 1.73 1.64
-3 3 12 1.8 2.15
-3 -3 12 2.04 1.09
5 -3 -14 0.11 1.44
-5 3 14 -3.27 2.87
-5 -3 14 1.94 1.14
-7 3 16 2.74 2.85
-7 -3 16 -0.1 1.25
7 -3 -16 1.06 1.38
-12 -4 3 1.29 0.98
-12 -4 3 1.81 1
-10 -4 1 0.28 0.97
10 4 -1 0.26 0.98
8 4 1 49.24 1.09
-8 -4 -1 48.02 1.1
6 4 3 12.79 0.77
-6 -4 -3 13.68 1.07
4 -4 5 73.81 1.83
4 4 5 77.54 1.31
-4 -4 -5 81.89 1.08
4 -4 5 73.87 2.12
2 -4 7 0.65 1.3
2 -4 7 0.71 1.23
2 4 7 -1.03 1.21
-2 -4 -7 0.52 1.26
0 -4 9 13.35 1.15
0 -4 -9 16.05 1.52
0 -4 9 6.82 1.34
0 4 9 15.98 1.38
-2 -4 11 0.33 1.1
-2 -4 11 0.01 1.29
2 -4 -11 -0.32 1.95
-2 4 11 -0.46 1.7
-4 -4 13 5.5 1.5
4 -4 -13 4.54 2.08
-4 4 13 5.36 2.34
-4 -4 13 3.02 1.39
7 5 2 0.42 1.12
-7 -5 -2 2.58 1.17
5 5 4 2.33 1.17
5 -5 4 2.29 2.6
-5 -5 -4 4.19 1.23
5 -5 4 0.47 2.65
3 -5 6 13.04 1.75
3 5 6 15.13 1.29
3 -5 6 10.8 1.9
-3 -5 -6 17.66 1.37
1 -5 8 12.99 1.28
-1 -5 -8 13.1 1.61
1 5 8 16.16 1.46
1 -5 8 8.52 1.6
-18 0 8 2.38 1.81
-18 0 8 2.08 1.07
-16 0 6 20.81 1.58
-16 0 6 21.67 0.94
-14 0 4 1.21 0.95
-14 0 4 1.57 1.28
-12 0 2 93.51 1.25
-12 0 2 102.81 1.47
10 0 0 10.73 0.94
-10 0 0 10.54 1.09
8 0 2 6.71 0.92
-8 0 -2 7.51 1.34
-6 0 -4 13.29 1.64
6 0 4 12.75 1.36
-4 0 -6 466.77 4.32
4 0 6 430.14 2.97
-2 0 -8 50.25 1.87
2 0 8 66.49 2.16
0 0 10 24.32 1.62
0 0 -10 16.47 1.77
-2 0 12 158.43 1.98
2 0 -12 136.55 2.19
4 0 -14 4.76 1.74
-4 0 14 8.01 1.45
-6 0 16 43.58 1.62
6 0 -16 46.56 1.91
-8 0 18 1.16 1.43
8 0 -18 -0.65 1.73
-10 0 20 31.93 1.65
10 0 -20 23.11 1.97
-17 -1 7 27.3 1
-17 1 7 26.24 1.36
-17 1 7 26.97 3.56
-17 -1 7 25 1.48
-15 -1 5 1.32 1
-15 -1 5 1.49 1.02
-15 1 5 0.59 1.22
-15 1 5 2.08 3.05
-13 1 3 16.75 3.06
-13 -1 3 22.65 1.01
-13 -1 3 18.8 0.89
-13 1 3 19.98 1.55
11 1 -1 0.49 0.9
-11 1 1 1.2 2.14
-11 -1 1 0.12 1.01
-11 1 1 0.91 2.02
9 1 1 25.89 1.01
-9 1 -1 25.99 4.29
-9 -1 -1 24.83 1.13
-9 1 -1 25.25 1.79
7 1 3 273.61 1.76
7 -1 3 298.43 2.97
-7 1 -3 306.27 6.94
-7 -1 -3 293.24 1.98
5 1 5 3.16 1.12
5 -1 5 2.46 1.34
-5 1 -5 2.59 5.53
-5 -1 -5 4.46 1.18
-3 1 -7 1.91 3.51
3 -1 7 3.3 1.74
-3 -1 -7 4.82 1.56
3 1 7 4.4 1.44
-1 1 -9 17.3 2.84
1 -1 9 33.64 1.76
-1 -1 -9 30.28 1.96
1 1 9 30.04 1.93
-1 -1 11 281.58 2.65
1 1 -11 215.79 3.37
1 -1 -11 258.48 2.23
-1 1 11 317.8 2.55
-3 1 13 13.36 1.39
-3 -1 13 11.82 1.74
3 1 -13 10.76 2.22
3 -1 -13 12.2 1.36
-5 1 15 39.77 1.43
-5 -1 15 41.52 1.79
5 1 -15 30.69 2.12
5 -1 -15 35.77 1.46
7 1 -17 43.28 2.12
-7 1 17 60.04 1.5
7 -1 -17 60.24 1.59
-7 -1 17 64.51 1.99
-9 1 19 7.62 1.35
-9 -1 19 5.23 1.8
9 1 -19 4.05 1.93
9 -1 -19 7.61 1.41
-16 -2 6 17.03 1.06
-16 -2 6 14.43 0.94
-14 -2 4 0.98 0.82
-14 -2 4 1.46 1.14
-12 -2 2 73.32 1.04
-10 -2 0 5.26 0.83
10 2 0 5.7 0.88
8 2 2 4.82 0.92
-8 -2 -2 6.74 0.87
6 -2 4 9.42 1.86
6 2 4 8.49 1
6 -2 4 8.49 2.31
-6 -2 -4 9.4 1
-4 2 -6 321.09 3.11
4 2 6 318.35 1.96
4 -2 6 349.52 4.1
-4 -2 -6 329.18 2
-2 -2 -8 41.78 1.53
2 -2 8 44.11 2.29
-2 2 -8 44.31 1.68
2 2 8 41.57 1.53
0 -2 -10 17.81 1.74
0 2 -10 16.63 1.63
0 -2 10 14.75 1.51
0 2 10 13.27 1.79
2 -2 -12 88.5 1.8
2 2 -12 92.36 2.06
-2 -2 12 102.33 1.72
-2 2 12 86.9 2.39
4 -2 -14 4.98 1.34
-4 -2 14 5.37 1.34
4 2 -14 5.18 1.69
-4 2 14 5.19 1.66
-6 -2 16 36.62 1.54
6 -2 -16 36.96 1.44
-6 2 16 36.49 1.55
6 2 -16 26.07 1.89
8 -2 -18 0.87 1.31
8 2 -18 2.02 1.85
-8 -2 18 -0.47 1.54
-8 2 18 1.55 1.36
-15 -3 5 1.67 0.96
-15 -3 5 2.21 0.91
-13 -3 3 10.96 0.94
-13 -3 3 10.24 1.01
11 3 -1 1.38 0.89
-11 -3 1 1.21 0.86
9 3 1 13.14 0.95
-9 -3 -1 12.87 0.93
7 3 3 148.48 1.35
-7 -3 -3 149.44 1.33
5 -3 5 2.99 2.99
5 3 5 2.1 1.03
5 -3 5 1.97 1.51
-5 -3 -5 2.33 0.99
3 -3 7 2.53 1.15
3 3 7 3.28 1.14
3 -3 7 3.37 1.67
-3 -3 -7 4.14 1.13
-1 -3 -9 14.89 1.43
1 3 9 12.14 1.42
1 -3 9 12.26 1.58
1 -3 -11 159.18 2.27
-1 3 11 145.76 2.25
-1 -3 11 149.95 1.77
3 -3 -13 7.88 1.63
3 3 -13 6.42 1.58
-3 3 13 5.79 2.33
-3 -3 13 4.44 1.21
5 3 -15 15.36 1.77
5 -3 -15 14.06 1.42
-5 3 15 8.94 2.84
-5 -3 15 15.72 1.32
-7 -3 17 26.13 1.51
-7 3 17 24.36 2.34
7 -3 -17 31.83 1.46
-12 -4 2 26.1 1.12
-12 -4 2 29.17 1.08
10 4 0 1.24 0.98
-10 -4 0 -0.51 0.96
-8 -4 -2 7.1 1.03
8 4 2 4.03 0.73
6 4 4 3.61 1.1
-6 -4 -4 3.94 1.1
4 4 6 125.39 1.51
4 -4 6 106.2 2.07
4 -4 6 107.71 2.49
-4 -4 -6 133.67 1.54
-2 -4 -8 21.32 1.33
2 -4 8 16.75 1.18
2 4 8 19.6 1.37
2 -4 8 17.23 1.56
0 -4 -10 7.36 1.61
0 -4 10 1.73 1.13
0 4 10 7.64 1.54
0 -4 10 7.08 1.44
-2 -4 12 32.32 1.56
2 -4 -12 41.73 2.08
-2 4 12 36.04 2.07
-2 -4 12 34.73 1.6
-4 -4 14 3.04 1.62
4 -4 -14 2.7 1.66
-4 4 14 0.22 2.71
-4 -4 14 1.47 1.24
5 5 5 2.4 1.22
5 -5 5 0.39 3.41
-5 -5 -5 1.2 1.27
5 -5 5 0.75 2.74
3 5 7 0.88 1.35
3 -5 7 0.53 1.89
3 -5 7 1.77 1.71
-3 -5 -7 3.1 1.41
-18 0 7 3.8 1.43
-18 0 7 3.93 1.1
-16 0 5 3.88 1.19
-16 0 5 4.85 1.03
-14 0 3 6.05 1.05
-14 0 3 5.99 0.82
-12 0 1 195.6 1.78
-12 0 1 208.44 1.96
10 0 1 165.54 1.79
-10 0 -1 151.68 1.86
8 0 3 13.5 1.04
-8 0 -3 12.96 1.62
-6 0 -5 131.71 2.38
6 0 5 135.43 1.89
-4 0 -7 111.38 2.6
4 0 7 115.29 1.97
-2 0 -9 5.86 1.57
2 0 9 7.78 1.71
0 0 11 3.07 1.38
0 0 -11 3.77 1.48
-2 0 13 1.88 1.3
2 0 -13 2.85 1.51
-4 0 15 72.27 1.62
4 0 -15 70.83 1.83
-6 0 17 15.61 1.05
6 0 -17 17.51 1.68
-8 0 19 1.37 0.95
8 0 -19 -0.68 1.65
-17 -1 6 50.75 1.26
-17 1 6 51.88 3.84
-17 1 6 53.9 1.81
-17 -1 6 49.58 1.58
-15 -1 4 0.33 0.84
-15 -1 4 -0.11 0.98
-15 1 4 0.77 1.54
-15 1 4 -0.07 3.42
-13 -1 2 75.17 1.21
-13 -1 2 69.67 1.1
-13 1 2 58.45 3.49
-13 1 2 64.96 2.28
11 1 0 50.45 1.1
-11 1 0 45.37 3.43
-11 -1 0 45.47 1.02
-11 1 0 41.7 2.43
9 -1 2 0.25 1.21
9 1 2 1.68 0.92
-9 1 -2 0.94 3.07
-9 -1 -2 -0.36 0.93
7 1 4 13.35 1.07
7 -1 4 12.18 1.24
-7 1 -4 15.24 4.09
-7 -1 -4 12.9 1.11
-5 -1 -6 105.3 1.69
5 1 6 99.35 1.54
5 -1 6 97.48 2.2
-5 1 -6 141.72 5.93
-3 1 -8 60.26 4.69
3 -1 8 66.07 2.19
-3 -1 -8 62.06 1.89
3 1 8 57.42 1.7
1 -1 10 31.95 1.68
-1 1 -10 24.59 3.15
-1 -1 -10 24.13 1.67
1 1 10 24.18 1.8
-1 -1 12 45.98 1.69
1 1 -12 39.52 2.59
1 -1 -12 44.53 1.17
-1 1 12 53.2 1.63
-3 1 14 68.02 1.45
-3 -1 14 59.22 1.78
3 1 -14 47.38 2.4
3 -1 -14 55.76 1.41
5 -1 -16 3.88 1.28
-5 1 16 4.45 1.24
-5 -1 16 8.53 1.19
5 1 -16 4.09 2.16
7 1 -18 7.87 1.99
-7 1 18 7.46 1.3
7 -1 -18 6.71 1.35
-7 -1 18 9.14 1.64
-9 1 20 2.66 1.3
-9 -1 20 4.78 1.69
9 1 -20 1.43 2.04
9 -1 -20 1.22 1
-16 -2 5 4.99 1.09
-16 -2 5 2.23 1.06
-14 -2 3 4.13 0.92
-14 -2 3 5.32 0.84
12 2 -1 155.85 1.35
-12 -2 1 149.66 1.24
10 2 1 109.58 1.25
-10 -2 -1 107.75 1.17
8 2 3 10.25 0.98
-8 -2 -3 10.39 0.94
-6 2 -5 90.02 2.43
6 2 5 96.84 1.36
6 -2 5 89.02 2.67
-6 -2 -5 100.23 1.39
4 -2 7 95.26 2.51
4 2 7 87.13 1.5
-4 2 -7 87.74 2.23
-4 -2 -7 97.15 1.54
-2 -2 -9 7.42 1.48
-2 2 -9 8.24 1.74
2 -2 9 5.88 1.74
2 2 9 4.87 1.48
0 -2 -11 0.75 1.71
0 2 -11 4.09 1.89
0 -2 11 4.65 1.59
0 2 11 4.84 1.81
2 2 -13 6.59 1.96
2 -2 -13 1.74 1.4
-2 -2 13 2.45 1.53
-2 2 13 -0.26 1.92
-4 -2 15 60.4 1.63
4 2 -15 39.78 2.17
4 -2 -15 50.9 1.46
-4 2 15 53.57 1.65
-6 -2 17 12.92 1.61
6 -2 -17 13.81 1.32
-6 2 17 12.95 1.45
6 2 -17 9.42 2.09
8 -2 -19 2.56 1.32
8 2 -19 -4.15 2.18
-8 -2 19 -1.83 1.68
-8 2 19 1.98 1.34
-15 -3 4 0.21 1.03
-15 -3 4 1.16 0.93
-13 -3 2 34.71 1.01
-13 -3 2 37.59 1.1
11 3 0 28.3 0.99
-11 -3 0 23.39 0.96
9 3 2 -0.39 0.95
-9 -3 -2 1.26 0.9
7 3 4 8.75 1.05
-7 -3 -4 15.25 1.03
5 -3 6 55.87 2.83
5 -3 6 48.59 1.78
5 3 6 49.7 1.24
-5 -3 -6 50.47 1.25
-3 -3 -8 32.99 1.37
3 -3 8 29.34 1.49
3 3 8 30.91 1.36
3 -3 8 34.94 2.24
-1 -3 -10 14.62 1.53
1 3 10 11.94 1.56
1 -3 10 12.95 1.75
1 -3 -12 21.75 1.85
-1 3 12 20.91 2
-1 -3 12 18.64 1.71
1 3 -12 22.38 1.64
3 -3 -14 30.91 1.57
-3 3 14 25.6 2.38
-3 -3 14 34.88 1.45
3 3 -14 33.65 1.99
5 -3 -16 1.09 1.35
-5 -3 16 2.39 1.35
5 3 -16 3.98 1.97
-5 3 16 1.66 2.28
-12 -4 1 51.95 1.22
10 4 1 35.41 1.15
-10 -4 -1 34.9 1.13
8 4 3 5.24 1.05
-8 -4 -3 3.77 1.04
6 4 5 39.66 1.23
-6 -4 -5 34.22 0.94
4 4 7 28.42 1.3
4 -4 7 22.81 1.79
4 -4 7 28.67 2.58
-4 -4 -7 29.87 0.97
-2 -4 -9 6.92 1.47
2 -4 9 4.16 1.41
2 4 9 6.55 1.32
2 -4 9 4.93 1.4
0 -4 -11 0.95 1.7
0 -4 11 -0.27 1.46
0 4 11 0.89 1.68
0 -4 11 -0.79 1.6
-2 -4 13 2.08 1.83
2 -4 -13 1.55 1.82
-2 4 13 3.65 2.22
-2 -4 13 0.38 1.31
-18 0 6 4.55 1.75
-18 0 6 2.64 1.14
-16 0 4 109.89 1.53
-16 0 4 101.56 1.93
-14 0 2 3.46 1.33
-14 0 2 3.25 1.07
-12 0 0 45.54 1.33
-12 0 0 40.65 1.31
10 0 2 125.63 1.5
-10 0 -2 118.13 1.67
-8 0 -4 55.35 1.65
8 0 4 56.66 1.42
-6 0 -6 13.67 2.03
6 0 6 13.06 1.25
-4 0 -8 1.26 1.68
4 0 8 1.79 1.52
-2 0 -10 512.34 2.94
2 0 10 660.53 3.24
0 0 12 12.11 1.44
0 0 -12 12.58 1.45
2 0 -14 9.68 1.42
-2 0 14 7.96 1.27
-4 0 16 44.53 1.43
4 0 -16 43.19 1.58
-6 0 18 2.03 1.33
6 0 -18 -0.11 1.47
-8 0 20 17.2 1.42
8 0 -20 16.26 1.62
-17 -1 5 21.92 1.45
-17 -1 5 23.58 1.19
-17 1 5 26.2 4.46
-17 1 5 22.05 1.93
-15 -1 3 3.94 0.99
-15 -1 3 3.16 0.88
-15 1 3 2.89 3.64
-15 1 3 3.07 1.9
-13 1 1 34.03 2.96
-13 -1 1 37.46 1.07
-13 1 1 29.41 3.13
-13 -1 1 35.32 0.99
11 1 1 163.88 1.46
-11 1 -1 142.52 4.62
-11 1 -1 146.94 3.08
-11 -1 -1 152.45 1.38
9 -1 3 68.59 1.74
9 1 3 71.8 1.26
-9 1 -3 57.62 3.07
-9 -1 -3 69.21 1.24
7 1 5 480.65 2.3
7 -1 5 470.53 3.23
-7 1 -5 480.89 5.7
-7 -1 -5 465.62 2.41
-5 -1 -7 94.53 1.79
5 1 7 89.37 1.55
5 -1 7 94.14 2.33
-5 1 -7 112.94 4.76
3 -1 9 6.85 1.51
-3 1 -9 7.39 3.53
-3 -1 -9 10.01 1.74
3 1 9 5.32 1.5
1 -1 11 62.86 1.67
-1 1 -11 58.5 3.27
-1 -1 -11 49.74 1.68
1 1 11 63.41 1.87
-1 -1 13 15.04 1.48
1 1 -13 14.49 2.68
1 -1 -13 9.23 1.3
-1 1 13 13.54 1.39
-3 -1 15 91.65 1.81
3 1 -15 81.22 2.7
3 -1 -15 76.15 1.49
-3 1 15 87.33 1.56
-5 1 17 5.31 1.21
5 -1 -17 4.8 1.24
-5 -1 17 4.83 1.12
5 1 -17 6.27 2.17
7 1 -19 11.46 2.18
-7 1 19 16.41 1.27
7 -1 -19 18.1 1.34
-7 -1 19 22.47 1.62
-16 -2 4 85.94 1.36
-16 -2 4 78.24 1.2
-14 -2 2 2.36 0.95
-14 -2 2 1.8 0.85
12 2 0 33.33 1.03
-12 -2 0 32.33 0.95
10 2 2 92.55 1.24
-10 -2 -2 89.15 1.16
8 2 4 36.05 1.08
-8 -2 -4 38.73 1.05
-6 2 -6 10.46 1.76
6 2 6 11.88 1.12
6 -2 6 10.76 1.91
-6 -2 -6 11.29 1.13
-4 -2 -8 0.13 1.3
4 -2 8 1.02 1.46
-4 2 -8 0.16 1.93
4 2 8 -0.05 1.27
-2 -2 -10 436.63 2.73
-2 2 -10 427.42 3.86
2 -2 10 444.49 3.42
2 2 10 407.4 2.65
0 2 -12 5.88 2.31
0 -2 -12 6.99 1.62
0 -2 12 10.56 2.14
0 2 12 7.58 1.81
2 2 -14 3.9 2.29
-2 -2 14 7.48 1.61
2 -2 -14 6.56 1.37
-2 2 14 4.48 1.66
-4 -2 16 34.2 1.71
4 2 -16 18.12 2.45
4 -2 -16 28.2 1.33
-4 2 16 30.27 1.51
-6 -2 18 -2 1.7
6 2 -18 5.05 2.46
-6 2 18 2.19 1.27
6 -2 -18 1.81 1.19
-15 -3 3 2.75 0.96
-15 -3 3 4.37 1.05
-13 -3 1 14.25 0.98
11 3 1 80.34 1.22
-11 -3 -1 82.49 1.16
9 3 3 38.56 1.09
-9 -3 -3 31.5 0.79
7 3 5 259.62 1.72
-7 -3 -5 255.56 1.68
5 -3 7 49.15 2.5
5 -3 7 38.85 1.7
5 3 7 42.2 1.32
-5 -3 -7 48.72 1.33
-3 -3 -9 5.28 1.37
3 -3 9 2.67 1.2
3 -3 9 4.12 2.21
3 3 9 4.3 1.35
-1 -3 -11 35.82 1.68
1 -3 11 29.41 1.77
1 3 11 30.16 1.76
1 3 -13 6.57 1.81
1 -3 -13 7.18 1.65
-1 -3 13 9.89 1.52
-1 3 13 4.02 2.04
3 3 -15 40.99 2.26
3 -3 -15 40.93 1.58
-3 -3 15 45.71 1.66
-3 3 15 39.77 2.49
-5 -3 17 2.44 1.57
5 3 -17 5.41 2.34
5 -3 -17 1.97 1.32
-5 3 17 4.36 1.89
12 4 0 14.81 1.12
-12 -4 0 14.65 1.12
10 4 2 31.54 1.21
-10 -4 -2 32.46 1.16
8 4 4 9.91 1.14
-8 -4 -4 13.52 1.09
6 4 6 3.16 1.22
-6 -4 -6 9.35 1.2
-4 -4 -8 1.63 1.33
4 4 8 0.11 1.32
4 -4 8 2.72 2.76
4 -4 8 0.51 1.4
-2 -4 -10 179.17 2.04
2 -4 10 130.72 2.04
2 4 10 158.73 2
2 -4 10 162.54 2.5
0 -4 12 -0.71 1.65
0 -4 -12 4.76 1.85
0 4 12 7.38 1.88
0 -4 12 3.78 1.5
-2 -4 14 1.86 1.7
2 -4 -14 2.77 1.7
-2 4 14 3.2 2.49
-2 -4 14 3.38 1.5
-18 0 5 0.65 1.74
-18 0 5 0.73 1.19
-16 0 3 18.69 1.2
-16 0 3 15.65 1.52
-14 0 1 1.93 1.25
-14 0 1 1.12 0.92
-12 0 -1 34.1 1.42
-10 0 -3 20.72 1.6
10 0 3 21.75 1.07
-8 0 -5 97.68 2.28
8 0 5 100.9 1.63
-6 0 -7 49.3 2.2
6 0 7 48.85 1.41
-4 0 -9 1.91 1.48
4 0 9 2.27 1.39
-2 0 -11 17.3 1.4
2 0 11 21.57 1.41
0 0 13 3.23 1.2
0 0 -13 4.22 1.29
2 0 -15 6.2 1.36
-2 0 15 7.53 0.9
-4 0 17 9.83 1.3
4 0 -17 9.86 1.4
-6 0 19 7.44 1.26
6 0 -19 6 1.42
-17 1 4 5.77 2.77
-17 -1 4 3.47 1.12
-17 1 4 6.14 4.61
-17 -1 4 4.26 1.13
-15 1 2 91.27 3.91
-15 -1 2 90.47 1.42
-15 -1 2 88.24 1.4
-15 1 2 81.23 5
-13 1 0 41.06 3.89
-13 1 0 36.34 3.16
-13 -1 0 35.74 1.05
11 1 2 16.08 1.19
-11 1 -2 11.78 2.78
-11 -1 -2 15.3 1.02
-11 1 -2 14.42 1.74
9 -1 4 24.05 1.48
9 1 4 23.98 1.06
-9 1 -4 20.23 2.64
-9 -1 -4 24.67 1.36
-7 -1 -6 26.05 1.29
7 1 6 26.5 1.12
7 -1 6 24.74 1.52
-7 1 -6 27.3 3.06
-5 -1 -8 1.97 1.51
5 1 8 2.6 1.22
5 -1 8 1.42 1.8
-5 1 -8 1.64 2.5
3 -1 10 0.48 1.38
-3 1 -10 0.85 2.81
-3 -1 -10 3.97 1.69
3 1 10 2.59 1.54
1 -1 12 42.25 1.49
-1 1 -12 43.82 2.83
-1 -1 -12 33.23 1.5
1 1 12 41.07 1.63
-1 -1 14 26.81 1.5
1 1 -14 27.6 2.59
1 -1 -14 23.69 1.31
-1 1 14 27.75 1.35
-3 -1 16 59.23 1.61
3 1 -16 58.78 2.48
3 -1 -16 48.06 1.37
-3 1 16 58.97 1.37
5 -1 -18 0.53 1.22
-5 -1 18 2.92 1.45
5 1 -18 0.94 2.05
-5 1 18 0.29 1.17
-7 1 20 4.73 1.21
7 1 -20 5.03 1.95
-7 -1 20 5.21 1.52
7 -1 -20 4.52 1.27
-16 -2 3 12.74 1.11
-16 -2 3 11.18 0.98
-14 -2 1 0.65 0.89
-14 -2 1 0.99 0.99
12 2 1 24.88 1.02
-12 -2 -1 27.68 0.97
10 2 3 17.49 1.04
-10 -2 -3 16.1 0.99
8 2 5 67.52 1.23
-8 -2 -5 65.47 1.22
6 2 7 38.58 1.31
-6 2 -7 32.73 1.94
6 -2 7 37 2.15
-6 -2 -7 38.54 1.34
4 -2 9 1.4 1.62
-4 -2 -9 1.22 1.45
-4 2 -9 0.86 2.16
4 2 9 1.11 1.34
-2 2 -11 17.23 2.5
2 -2 11 23.54 1.67
-2 -2 -11 15.03 1.71
2 2 11 16.47 1.66
0 2 -13 1.47 2.83
0 -2 13 5.25 1.6
0 -2 -13 3.07 1.5
0 2 13 0.5 1.79
2 2 -15 6.17 2.91
-2 -2 15 4.12 1.63
2 -2 -15 3.4 1.3
-2 2 15 4.31 1.08
-4 -2 17 5.23 1.71
4 2 -17 4.85 2.82
4 -2 -17 6.49 1.23
-4 2 17 8.49 1.36
-6 -2 19 3.38 1.8
6 2 -19 0.73 2.63
-6 2 19 3.54 1.27
6 -2 -19 4.03 1.23
-15 -3 2 41.73 1.26
-15 -3 2 40.96 1.16
13 3 0 19.84 1.07
-13 -3 0 20.61 1
11 3 2 3.39 0.99
-11 -3 -2 7.99 0.95
9 3 4 13.49 1.06
-9 -3 -4 13.31 1
7 3 6 15.93 1.2
-7 -3 -6 16.83 1.15
-5 -3 -8 -0.19 1.24
5 -3 8 0.22 2.09
5 -3 8 1.08 1.5
5 3 8 1.76 1.23
-3 -3 -10 3.27 1.41
3 -3 10 1.44 2.04
3 3 10 -0.29 1.41
-1 -3 -12 25.83 1.77
1 -3 12 24.13 2.37
1 3 12 19.38 1.87
-1 3 -12 22.55 1.75
1 -3 -14 17.34 1.67
-1 -3 14 13.97 1.74
-1 3 14 8 2.13
1 3 -14 11.71 2.15
-3 -3 16 32.47 1.79
3 -3 -16 24.66 1.08
3 3 -16 24.04 2.66
-3 3 16 25.81 2.14
10 4 3 8 1.14
-10 -4 -3 9.32 1.1
8 4 5 26.87 1.26
-8 -4 -5 23.95 1.24
6 4 7 14.59 1.31
-6 -4 -7 18.71 1.3
-4 -4 -9 1.05 1.39
4 -4 9 1.06 2.62
4 -4 9 0.68 1.62
4 4 9 2.68 1.4
-2 -4 -11 11.32 1.61
2 -4 11 5.69 1.63
2 -4 11 8.57 1.88
2 4 11 6.45 1.68
0 -4 13 1.92 1.41
0 -4 -13 5.23 1.98
0 4 13 1.2 2.13
0 -4 13 1.89 2.09
-18 0 4 1.81 1.72
-18 0 4 0.72 1.31
-16 0 2 0.72 1.42
-16 0 2 1.12 1.23
-14 0 0 111.04 1.79
-14 0 0 96.37 1.56
12 0 2 24.09 1.27
-12 0 -2 23.86 1.52
-10 0 -4 104.65 1.85
10 0 4 109.09 1.44
-8 0 -6 3.78 2.15
8 0 6 2.82 1.11
-6 0 -8 3.37 1.71
6 0 8 4.42 1.3
-4 0 -10 3.53 1.38
4 0 10 3.5 1.55
-2 0 -12 1.38 1.3
2 0 12 0.95 1.24
0 0 14 72.29 1.41
0 0 -14 62.66 1.52
-2 0 16 -0.95 1.19
2 0 -16 0.03 1.29
-4 0 18 1.48 1.23
4 0 -18 -0.72 1.36
-6 0 20 1.22 1.23
6 0 -20 1.88 1.36
-17 -1 3 0.84 1.11
-17 -1 3 0.08 1.19
-15 -1 1 35.04 1.39
-15 -1 1 33.58 1.07
13 1 1 -0.09 0.97
-13 1 -1 0.09 3.09
-13 -1 -1 0.6 0.94
-13 1 -1 0.19 2.46
11 1 3 7.27 0.99
-11 1 -3 7 2.28
-11 -1 -3 7.83 1.01
9 -1 5 37.35 1.59
9 1 5 37.83 1.16
-9 1 -5 32.82 2.27
-9 -1 -5 35.39 1.28
-7 -1 -7 23.57 1.45
7 1 7 22.67 1.2
7 -1 7 20.91 1.54
-7 1 -7 18.83 2.44
-5 1 -9 135.4 3.22
-5 -1 -9 146.37 2.23
5 1 9 133.56 1.79
5 -1 9 135.49 2.1
-3 1 -11 0.51 2.19
-3 -1 -11 0.72 1.5
3 1 11 2.28 1.47
3 -1 11 0.73 1.22
1 -1 13 2.47 1.25
-1 1 -13 1.67 2.16
-1 -1 -13 2.21 0.94
1 1 13 -0.56 1.39
-1 -1 15 3.54 1.27
1 1 -15 3.66 1.92
1 -1 -15 3.57 1.23
-1 1 15 2.25 1.22
-3 -1 17 12.66 1.38
3 1 -17 9.39 1.97
3 -1 -17 6.57 1.2
-3 1 17 8.92 1.17
5 -1 -19 11.78 1.23
-5 -1 19 9.62 1.44
5 1 -19 9 1.91
-5 1 19 10.29 1.21
-16 -2 2 1.43 0.95
-16 -2 2 2.18 1.05
-14 -2 0 75.32 1.18
12 2 2 17.6 1.26
-12 -2 -2 14.34 0.99
10 2 4 85.73 1.26
-10 -2 -4 70.68 1.21
-8 2 -6 1.05 2.26
8 2 6 2.41 1.06
8 -2 6 1.44 1.9
-8 -2 -6 0.61 1.09
-6 -2 -8 2 1.29
-6 2 -8 1.7 1.95
6 2 8 2.75 1.18
6 -2 8 3.22 1.99
4 -2 10 1.28 1.3
-4 2 -10 3.25 2.56
-4 -2 -10 1.22 1.54
4 2 10 2.54 1.4
-2 2 -12 0.47 3.51
2 -2 12 -1.2 1.38
-2 -2 -12 3.48 1.62
2 2 12 1.31 1.63
0 2 -14 48.67 3.77
0 -2 14 53.56 1.74
0 -2 -14 50.06 1.59
0 2 14 53.6 1.75
-2 -2 16 0.02 1.52
2 2 -16 0.01 3.25
2 -2 -16 0.66 0.91
-2 2 16 -0.03 1.38
-4 -2 18 -1.85 1.55
4 2 -18 -4.18 2.93
-4 2 18 0.84 1.29
4 -2 -18 1.9 1.22
13 3 1 1.14 1.05
-13 -3 -1 -0.71 0.96
11 3 3 4.68 1.08
-11 -3 -3 5.71 1.01
9 3 5 20.88 1.15
-9 -3 -5 17.75 0.84
7 3 7 8.75 1.22
-7 -3 -7 11.45 1.19
5 -3 9 77.19 2.23
-5 -3 -9 80.9 1.6
5 -3 9 57.89 1.9
5 3 9 76.35 1.58
-3 -3 -11 0.79 1.5
3 -3 11 1.65 1.87
3 3 11 4.15 1.53
-1 3 -13 -2.45 2.22
-1 -3 -13 7 1.29
1 -3 13 2.44 2.08
1 3 13 -1.58 1.9
-1 -3 15 4.79 1.75
1 -3 -15 3.52 1.5
-1 3 15 0.4 2.05
1 3 -15 1 2.9
-3 -3 17 2.41 1.86
3 3 -17 3.09 3.01
3 -3 -17 3.65 1.35
-3 3 17 0.74 1.8
10 4 4 25.54 1.31
-10 -4 -4 33.5 1.27
8 4 6 0.09 1.22
-8 -4 -6 -0.16 1.18
-6 -4 -8 1.22 1.35
6 4 8 0.09 1.37
-4 -4 -10 2.25 1.54
4 -4 10 1.78 2.36
4 -4 10 0.99 1.59
4 4 10 3.29 1.53
-2 -4 -12 -1.05 1.8
2 -4 12 3.05 1.75
2 -4 12 -2.21 2.36
2 4 12 1.43 1.83
-16 0 1 1.57 1.41
-16 0 1 1.67 1.42
-14 0 -1 16.65 1.35
-14 0 -1 15.14 1.51
-12 0 -3 14.81 1.64
12 0 3 15.42 1.25
-10 0 -5 130.19 2.46
10 0 5 145.57 1.81
-8 0 -7 5.88 1.81
8 0 7 6.12 1.38
-6 0 -9 17.51 1.5
6 0 9 17.74 1.34
-4 0 -11 23.13 1.42
4 0 11 25.24 1.46
-2 0 -13 2.6 1.54
2 0 13 0.82 1.5
0 0 15 56.58 1.31
0 0 -15 48.64 1.41
-2 0 17 18.62 1.21
2 0 -17 14.08 1.31
-4 0 19 8.66 0.88
4 0 -19 7.55 1.26
-17 -1 2 1.39 1.02
-17 -1 2 1.45 1.12
-15 -1 0 28.32 1.38
-15 -1 0 26.89 1.33
13 1 2 19.03 1.08
-13 1 -2 16.62 2.45
-13 1 -2 17.52 3.2
-13 -1 -2 18.62 1.08
11 -1 4 5.21 1.38
11 1 4 4.9 1.32
-11 1 -4 5.59 2.22
-11 -1 -4 5.66 1.34
-9 -1 -6 16 1.59
9 1 6 14.71 1.12
9 -1 6 13.3 1.34
-9 1 -6 12.94 2.05
-7 -1 -8 14.3 1.55
7 1 8 13.35 1.29
7 -1 8 13 1.57
-7 1 -8 12.03 2.17
-5 1 -10 189.81 2.76
-5 -1 -10 195.45 2.47
5 1 10 186.82 2.05
5 -1 10 207.98 2.45
-3 1 -12 14.75 1.98
-3 -1 -12 13.55 1.47
3 1 12 16.6 1.57
3 -1 12 12.9 1.55
1 -1 14 3.75 1.21
-1 1 -14 3.41 1.94
-1 -1 -14 3.11 1.25
1 1 14 4.02 1.29
-1 -1 16 32.36 1.32
1 1 -16 31.29 1.86
1 -1 -16 27.03 1.27
-1 1 16 32.65 1.3
-3 -1 18 6.02 1.34
3 1 -18 4.53 1.75
-3 1 18 6.73 1.19
3 -1 -18 9.46 1.22
5 -1 -20 6.35 1.24
-5 -1 20 5.99 1.36
5 1 -20 6.13 1.71
-5 1 20 4.38 1.2
-16 -2 1 1.08 1.08
-16 -2 1 2.89 1.2
14 2 1 14.1 1.09
-14 -2 -1 11.55 1.04
12 2 3 9.54 1.01
-12 -2 -3 10.69 1.01
10 2 5 100.92 1.4
-10 -2 -5 93.16 1.35
-8 -2 -7 6.41 1.17
-8 2 -7 3.72 2.13
8 2 7 7.29 1.19
8 -2 7 4.76 1.79
-6 -2 -9 17.29 1.44
-6 2 -9 12.98 2.62
6 2 9 12.68 1.32
6 -2 9 14.04 1.76
4 -2 11 18.3 1.61
-4 2 -11 13.69 2.49
-4 -2 -11 16.91 1.69
4 2 11 14.09 1.11
-2 2 -13 0.8 4.24
2 -2 13 2.27 1.3
-2 -2 -13 0.8 1.57
2 2 13 -0.05 1.62
0 2 -15 35.08 3.8
0 -2 15 40.06 1.92
0 -2 -15 35.39 1.47
0 2 15 38.68 1.58
-2 -2 17 14.01 1.51
2 2 -17 13.23 3.54
2 -2 -17 13.06 1.26
-2 2 17 14.04 1.35
-4 -2 19 5.5 1.56
4 2 -19 9.04 3.18
-4 2 19 5.66 1.29
4 -2 -19 1.54 1.27
13 3 2 8.81 1.12
-13 -3 -2 9.78 1.07
11 3 4 3.08 1.09
-11 -3 -4 3.09 1.06
9 3 6 9.53 1.19
-9 -3 -6 10.5 1.12
-7 -3 -8 7.83 1.3
7 -3 8 6.33 2.59
7 3 8 6.46 1.26
7 -3 8 6.97 2.86
-5 -3 -10 117.77 1.81
5 -3 10 76.47 2.23
5 3 10 99.5 1.75
5 -3 10 101.74 2.37
-3 3 -12 3.75 1.97
3 -3 12 7.04 1.46
-3 -3 -12 8.62 1.7
3 3 12 5.66 1.69
1 -3 14 3.17 1.65
-1 -3 -14 -0.04 1.67
1 3 14 -0.04 1.88
-1 3 -14 0.97 2.08
1 3 -16 16.25 2.81
-1 -3 16 12.97 1.78
1 -3 -16 14.71 1.51
-1 3 16 10.85 1.9
-6 -4 -9 8.41 1.49
6 4 9 4.4 1.5
-16 0 0 3.36 1.48
-16 0 0 1.37 1.56
-14 0 -2 0.37 1.63
-14 0 -2 0.31 1.08
-12 0 -4 50.36 2.01
12 0 4 48.07 1.26
-10 0 -6 28.01 1.83
10 0 6 27.21 1.18
-8 0 -8 6.14 1.55
8 0 8 7.08 1.2
-6 0 -10 7.14 1.41
6 0 10 7.13 1.34
-4 0 -12 70.96 1.57
4 0 12 83.75 1.6
-2 0 -14 17.11 1.33
2 0 14 21.01 1.22
0 0 -16 54.43 1.15
0 0 16 59.02 1.34
2 0 -18 26.29 1.33
-2 0 18 23.99 1.24
-4 0 20 -0.99 1.18
4 0 -20 3.46 1.32
-17 -1 1 9.62 1.46
-17 -1 1 10.04 1.15
-15 -1 -1 12.21 1.09
-15 -1 -1 10.43 1.35
-13 1 -3 41.9 2.49
13 1 3 47.58 1.46
-13 1 -3 39.54 3.25
-13 -1 -3 45.65 1.54
-11 -1 -5 15.89 1.54
11 -1 5 14.42 1.51
11 1 5 15.3 1.13
-11 1 -5 12.31 2.28
-9 -1 -7 57.42 1.58
9 1 7 56.04 1.34
9 -1 7 57.74 1.82
-9 1 -7 47.84 2.15
-7 -1 -9 15.03 1.66
7 1 9 13.19 1.29
7 -1 9 13.57 1.6
-7 1 -9 11.96 1.92
-5 1 -11 6.99 2.04
-5 -1 -11 8.98 1.59
5 1 11 5.77 1.44
5 -1 11 9.26 1.27
-3 1 -13 29.3 2.25
-3 -1 -13 28.5 1.43
3 1 13 32.08 1.5
3 -1 13 32.49 1.33
1 -1 15 30.13 1.28
-1 1 -15 26.39 1.79
-1 -1 -15 26.27 1.3
1 1 15 26.33 1.3
-1 -1 17 1.38 1.23
1 1 -17 2.89 1.69
1 -1 -17 3.52 1.13
-1 1 17 3.73 0.85
3 -1 -19 3.07 0.85
-3 -1 19 3.94 1.26
3 1 -19 2.1 1.6
-3 1 19 2.4 1.17
14 2 2 1.06 1.09
-14 -2 -2 -0.73 1.28
12 2 4 36.04 1.19
-12 -2 -4 34.57 1.2
10 2 6 21.59 1.21
-10 -2 -6 23.66 1.23
-8 -2 -8 7.82 1.3
8 2 8 6.2 1.18
8 -2 8 5.44 1.85
-8 2 -8 4.88 2.19
-6 -2 -10 8.75 1.52
-6 2 -10 4.87 2.48
6 2 10 5.55 0.98
6 -2 10 6.04 1.71
-4 2 -12 47.25 3.12
-4 -2 -12 62.45 1.87
4 2 12 57.46 1.74
4 -2 12 63.75 1.81
2 -2 14 16.57 1.35
-2 2 -14 15.7 4.05
-2 -2 -14 14.74 1.54
2 2 14 14.76 1.64
0 -2 16 38.36 1.51
0 2 -16 49.14 3.89
0 -2 -16 38.45 1.42
0 2 16 42.34 1.5
-2 -2 18 18.24 1.51
2 2 -18 25.24 4.69
2 -2 -18 19.18 1.31
-2 2 18 20.54 1.38
13 3 3 27.07 1.24
-13 -3 -3 21.38 1.17
11 3 5 7.91 1.22
-11 -3 -5 7.99 1.15
9 3 7 29.78 1.36
-9 -3 -7 31.88 1.38
-7 -3 -9 7.38 1.39
7 -3 9 5.54 2.15
7 3 9 5.39 1.31
7 -3 9 6.2 2.41
-5 -3 -11 6.11 1.62
5 3 11 5.87 1.47
5 -3 11 4.46 1.89
3 -3 13 11.56 1.83
-3 -3 -13 17.08 1.92
3 3 13 13.99 1.32
-3 3 -13 10.57 2.27
1 -3 15 13.83 1.6
-1 3 -15 8.26 2.44
-1 -3 -15 11.57 1.63
1 3 15 13.82 1.97
-16 0 -1 1.89 1.75
-16 0 -1 2.44 1.47
-14 0 -3 -0.75 1.83
12 0 5 2.24 1.09
-12 0 -5 3.09 2.01
-10 0 -7 59.42 2.13
10 0 7 68.71 1.62
-8 0 -9 116.32 1.91
8 0 9 125.71 1.75
-6 0 -11 12.85 1.37
6 0 11 15.78 1.76
-4 0 -13 32.25 1.37
4 0 13 31.7 1.35
2 0 15 4.78 1.14
-2 0 -15 3.77 1.23
0 0 -17 1.5 1.16
0 0 17 1.29 1.06
2 0 -19 2.06 1.2
-2 0 19 -0.82 1.17
-15 -1 -2 32.34 1.55
-13 -1 -4 19.9 1.58
13 1 4 18.3 1.19
-13 1 -4 18.01 2.92
-13 1 -4 18.26 2
-11 -1 -6 4.44 1.35
11 -1 6 5.7 1.34
11 1 6 6.29 1.11
-11 1 -6 3.83 2.18
-9 -1 -8 19.08 1.58
9 1 8 18.14 1.25
9 -1 8 19.28 1.51
-9 1 -8 16.8 1.87
-7 1 -10 4.75 1.83
-7 -1 -10 7.49 1.75
7 1 10 4.26 1.3
7 -1 10 4.54 1.67
-5 1 -12 2.14 1.51
-5 -1 -12 2.82 1.49
5 1 12 2.49 1.43
5 -1 12 1.9 1.23
-3 1 -14 23.58 1.68
-3 -1 -14 22.56 1.41
3 1 14 27.7 1.38
3 -1 14 25.69 1.28
1 -1 16 37.7 1.29
-1 1 -16 34.29 1.7
-1 -1 -16 37.03 1.31
1 1 16 33.82 1.3
-1 -1 18 0.52 1.19
1 1 -18 3.07 1.53
-1 1 18 4.2 1.12
1 -1 -18 1.37 1.16
14 2 3 2.27 1.1
-14 -2 -3 0.59 1.1
12 2 5 1.52 1.12
-12 -2 -5 4.44 1.14
-10 -2 -7 47.35 1.39
10 2 7 47.33 1.32
-8 -2 -9 104.79 1.78
8 2 9 97.76 1.65
-8 2 -9 80.13 3.02
8 -2 9 100.8 2.39
-6 2 -11 9.38 2.73
-6 -2 -11 8.28 1.71
6 2 11 12 1.48
6 -2 11 8.91 1.62
-4 2 -13 22.21 2.66
-4 -2 -13 22.75 1.71
4 2 13 17.52 1.57
4 -2 13 23.46 1.37
2 -2 15 5.02 1.23
-2 2 -15 4.32 3.11
-2 -2 -15 1.76 1.4
2 2 15 1.68 0.98
0 -2 17 -0.16 1.57
0 2 -17 0.56 3.18
0 -2 -17 2.22 1.28
0 2 17 0.17 1.32
11 3 6 1.45 1.21
-11 -3 -6 3.91 1.21
-9 -3 -8 7.88 1.37
9 3 8 7.45 1.35
-7 -3 -10 1.81 1.05
7 -3 10 2.1 2
7 3 10 3.63 1.47
7 -3 10 1.96 2.46
-5 -3 -12 -0.19 1.76
5 3 12 -1.93 1.65
5 -3 12 0.16 1.56
3 -3 14 14.99 1.8
-3 3 -14 11.67 2.57
-3 -3 -14 18.19 1.82
3 3 14 10.49 1.85
-16 0 -2 38.1 2.25
-16 0 -2 32.93 1.78
14 0 4 15.19 1.46
-14 0 -4 17.24 2.16
12 0 6 52.96 1.62
-12 0 -6 50.34 2.22
10 0 8 10 1.24
-10 0 -8 10.85 1.83
8 0 10 48.14 1.48
-8 0 -10 42.71 1.52
6 0 12 0.6 1.4
-6 0 -12 2 1.24
4 0 14 18.62 1.25
-4 0 -14 15.35 1.29
2 0 16 16.4 1.17
-2 0 -16 12.32 1.25
0 0 -18 6.04 1.26
0 0 18 7.59 1.15
-15 -1 -3 3.96 1.61
15 1 3 4.15 1.19
-13 1 -5 100.35 3.42
-13 -1 -5 106.51 1.77
13 1 5 116.07 1.62
-13 1 -5 103.08 2.74
-11 1 -7 -0.77 2.07
-11 -1 -7 2.56 1.76
11 -1 7 0.43 1.58
11 1 7 0.46 1.42
-9 1 -9 1.16 1.73
-9 -1 -9 -1.56 1.63
9 1 9 1.04 1.2
9 -1 9 1.7 1.49
-7 1 -11 94.91 2.13
-7 -1 -11 101.56 1.91
7 1 11 110.45 1.76
7 -1 11 106.82 2.15
-5 1 -13 10.01 1.48
-5 -1 -13 11.83 1.44
5 1 13 15.6 1.47
5 -1 13 13.87 1.51
-3 1 -15 37.4 1.97
-3 -1 -15 40.48 1.37
3 1 15 42.92 1.34
3 -1 15 39.75 1.33
-1 1 -17 5.81 1.48
1 1 17 5.08 1.17
-1 -1 -17 5.3 1.18
1 -1 17 4.74 1.19
-12 -2 -6 35.11 1.69
12 2 6 33.52 1.3
-10 -2 -8 7.05 1.42
10 2 8 6.13 1.57
-8 -2 -10 37.65 1.69
8 2 10 34.49 1.53
-8 2 -10 31.21 2.79
8 -2 10 32.34 1.86
-6 2 -12 2.62 2.82
-6 -2 -12 -3.13 1.82
6 2 12 4.98 1.51
6 -2 12 -0.19 1.56
-4 2 -14 13.05 3.34
-4 -2 -14 13.24 1.6
4 2 14 11.45 1.58
4 -2 14 10.37 1.27
2 -2 16 9.47 1.53
-2 2 -16 5.21 3.18
-2 -2 -16 10.86 1.39
2 2 16 9.66 1.39
-7 -3 -11 57.2 1.8
7 3 11 40.83 1.74
7 -3 11 44.56 2.83
14 0 5 -0.08 1.43
-14 0 -5 3.34 2.05
12 0 7 1.19 1.46
-12 0 -7 2.25 1.86
10 0 9 5.19 1.49
-10 0 -9 3.77 1.74
8 0 11 10.53 1.42
-8 0 -11 7.91 1.6
6 0 13 19.01 1.39
-6 0 -13 16.61 1.31
4 0 15 3.11 1.19
-4 0 -15 3.63 1.22
-2 0 -17 4.64 1.24
2 0 17 2.51 1.16
-13 1 -6 6.73 2.51
-13 -1 -6 5.86 1.54
13 1 6 5.59 1.22
-11 1 -8 23.15 1.94
-11 -1 -8 28.6 1.76
11 -1 8 26.7 1.88
11 1 8 28.51 1.36
-9 1 -10 0.63 1.37
-9 -1 -10 -0.87 1.58
9 1 10 0.73 1.29
9 -1 10 0.68 1.58
-7 1 -12 0.21 1.61
-7 -1 -12 1.7 1.49
7 1 12 0.3 1.38
7 -1 12 1.17 1.61
-5 1 -14 1.39 1.68
-5 -1 -14 2.45 1.29
5 1 14 1.77 1.31
5 -1 14 3.41 1.2
-3 1 -16 22.53 1.51
3 1 16 18.14 1.37
-3 -1 -16 18.17 1.34
3 -1 16 19.84 1.23
1 1 18 -1.84 1.18
-1 -1 -18 3.34 1.18
-12 -2 -7 2.7 1.37
12 2 7 2.78 1.26
-10 -2 -9 5.65 1.53
10 -2 9 4 2.53
10 2 9 3.32 1.33
-10 2 -9 3.68 2.99
-8 -2 -11 9.55 1.73
8 2 11 5.97 1.4
-8 2 -11 4.31 2.9
8 -2 11 6.12 2
-6 2 -13 15.52 2.87
-6 -2 -13 15.4 1.7
6 2 13 9.51 1.12
6 -2 13 12.59 1.63
-4 2 -15 3.92 2.19
-4 -2 -15 1.84 1.46
4 2 15 2 1.48
4 -2 15 2.77 1.19
12 0 8 4.91 1.26
-12 0 -8 4.74 1.71
10 0 10 20.8 1.42
-10 0 -10 18.62 1.39
8 0 12 0.2 1.36
-8 0 -12 3.64 1.48
6 0 14 25.11 1.39
-6 0 -14 23.8 1.3
4 0 16 3.47 1.15
-4 0 -16 3.66 1.19
-11 1 -9 40.1 1.95
-11 -1 -9 37.13 1.95
11 -1 9 39.98 1.81
11 1 9 38.15 1.49
-9 1 -11 2.61 1.64
-9 -1 -11 -0.99 1.5
9 1 11 1.77 1.67
9 -1 11 2.27 1.64
-7 1 -13 -0.21 1.62
-7 -1 -13 -0.38 1.39
7 1 13 -0.17 1.39
7 -1 13 1.76 1.6
-5 1 -15 8.98 1.63
5 1 15 6.16 1.33
-5 -1 -15 6.37 1.33
5 -1 15 6.63 1.23
10 0 11 20.84 1.77
-10 0 -11 16.7 1.59
8 0 13 9.55 1.49
-8 0 -13 7.62 1.26
