#------------------------------------------------------------------------------
#$Date: 2019-10-29 23:18:57 +0200 (Tue, 29 Oct 2019) $
#$Revision: 220411 $
#$URL: file:///home/coder/svn-repositories/cod/cif/4/00/29/4002987.cif $
#------------------------------------------------------------------------------
#
# This file is available in the Crystallography Open Database (COD),
# http://www.crystallography.net/
#
# All data on this site have been placed in the public domain by the
# contributors.
#
data_4002987
loop_
_publ_author_name
'Zhou, Laidong'
'Assoud, Abdeljalil'
'Shyamsunder, Abhinandan'
'Huq, Ashfia'
'Zhang, Qiang'
'Hartmann, Pascal'
'Kulisch, Joern'
'Nazar, Linda F.'
_publ_section_title
;
 An Entropically Stabilized Fast-Ion Conductor: Li3.25[Si0.25P0.75]S4
;
_journal_issue                   19
_journal_name_full               'Chemistry of Materials'
_journal_page_first              7801
_journal_paper_doi               10.1021/acs.chemmater.9b00657
_journal_volume                  31
_journal_year                    2019
_chemical_formula_moiety         'Li3.21 P0.85 S4 Si0.15'
_chemical_formula_sum            'Li3.21 P0.85 S4 Si0.15'
_chemical_formula_weight         181.08
_space_group_crystal_system      orthorhombic
_space_group_IT_number           62
_space_group_name_Hall           '-P 2ac 2n'
_space_group_name_H-M_alt        'P n m a'
_symmetry_space_group_name_Hall  '-P 2ac 2n'
_symmetry_space_group_name_H-M   'P n m a'
_audit_creation_method           SHELXL-2018/3
_cell_angle_alpha                90
_cell_angle_beta                 90
_cell_angle_gamma                90
_cell_formula_units_Z            4
_cell_length_a                   13.0467(18)
_cell_length_b                   8.0707(12)
_cell_length_c                   6.1395(9)
_cell_measurement_reflns_used    746
_cell_measurement_temperature    280(2)
_cell_measurement_theta_max      30.140
_cell_measurement_theta_min      3.123
_cell_volume                     646.46(16)
_computing_cell_refinement       'SMART, 'Bruker APEX II'
_computing_data_collection       'Bruker kappa APEX II'
_computing_data_reduction        'SAINT, 'Bruker APEX II'
_computing_molecular_graphics    Diamond
_computing_structure_refinement  'SHELXL-2016/6 (Sheldrick, 2016)'
_computing_structure_solution    'SHELXT 2014/5 (Sheldrick, 2014)'
_diffrn_ambient_temperature      280(2)
_diffrn_measured_fraction_theta_full 1.000
_diffrn_measured_fraction_theta_max 1.000
_diffrn_measurement_device_type  'BRUKER kappa APEX II'
_diffrn_measurement_method       'Omega and phi scan'
_diffrn_radiation_type           MoK\a
_diffrn_radiation_wavelength     0.71073
_diffrn_reflns_av_R_equivalents  0.0473
_diffrn_reflns_av_unetI/netI     0.0276
_diffrn_reflns_Laue_measured_fraction_full 1.000
_diffrn_reflns_Laue_measured_fraction_max 1.000
_diffrn_reflns_limit_h_max       14
_diffrn_reflns_limit_h_min       -18
_diffrn_reflns_limit_k_max       10
_diffrn_reflns_limit_k_min       -11
_diffrn_reflns_limit_l_max       5
_diffrn_reflns_limit_l_min       -8
_diffrn_reflns_number            4421
_diffrn_reflns_point_group_measured_fraction_full 1.000
_diffrn_reflns_point_group_measured_fraction_max 1.000
_diffrn_reflns_theta_full        25.242
_diffrn_reflns_theta_max         30.140
_diffrn_reflns_theta_min         3.123
_diffrn_source                   'fine-focus sealed tube'
_exptl_absorpt_coefficient_mu    1.566
_exptl_absorpt_correction_T_max  0.745985
_exptl_absorpt_correction_T_min  0.536630
_exptl_absorpt_correction_type   multi-scan
_exptl_absorpt_process_details   SADABS
_exptl_crystal_colour            colourless
_exptl_crystal_density_diffrn    1.860
_exptl_crystal_description       plate
_exptl_crystal_F_000             354
_exptl_crystal_size_max          0.107
_exptl_crystal_size_mid          0.084
_exptl_crystal_size_min          0.020
_refine_diff_density_max         0.581
_refine_diff_density_min         -0.390
_refine_diff_density_rms         0.100
_refine_ls_extinction_method     none
_refine_ls_goodness_of_fit_ref   1.213
_refine_ls_hydrogen_treatment    undef
_refine_ls_matrix_type           full
_refine_ls_number_parameters     56
_refine_ls_number_reflns         1025
_refine_ls_number_restraints     0
_refine_ls_restrained_S_all      1.213
_refine_ls_R_factor_all          0.0506
_refine_ls_R_factor_gt           0.0355
_refine_ls_shift/su_max          0.000
_refine_ls_shift/su_mean         0.000
_refine_ls_structure_factor_coef Fsqd
_refine_ls_weighting_details
'w=1/[\s^2^(Fo^2^)+(0.0356P)^2^+0.0506P] where P=(Fo^2^+2Fc^2^)/3'
_refine_ls_weighting_scheme      calc
_refine_ls_wR_factor_gt          0.0726
_refine_ls_wR_factor_ref         0.0754
_reflns_Friedel_coverage         0.000
_reflns_number_gt                833
_reflns_number_total             1025
_reflns_threshold_expression     'I > 2\s(I)'
_cod_data_source_file            Li3.15Si0.15P0.85S4.cif
_cod_data_source_block           Li3.15Si0.15P0.85S4
_cod_database_code               4002987
_shelx_shelxl_version_number     2018/3
_shelx_space_group_comment
;
The symmetry employed for this shelxl refinement is uniquely defined
by the following loop, which should always be used as a source of
symmetry information in preference to the above space-group names.
They are only intended as comments.
;
_shelx_estimated_absorpt_t_min   0.850
_shelx_estimated_absorpt_t_max   0.969
_shelx_res_file
;
TITL LN15 in Pnma
    LN15.res
    created by SHELXL-2018/3 at 10:32:24 on 07-Jun-2019
CELL  0.71073  13.0467   8.0707   6.1395   90.000   90.000   90.000
ZERR    4.000   0.0018   0.0012   0.0009    0.000    0.000    0.000
LATT  1
SYMM 1/2-X, -Y, 1/2+Z
SYMM -X, 1/2+Y, -Z
SYMM 1/2+X, 1/2-Y, 1/2-Z
SFAC LI P S SI
UNIT 12.8515 3.4 16 0.6
TEMP 6.860
SIZE 0.02 0.084 0.107
L.S. 10
BOND
EXYZ P1 SI1
EADP P1 SI1
ACTA
TWIN
LIST 4
FMAP 2
PLAN 10

WGHT    0.035590    0.050600
BASF   0.51665
FVAR       0.54646
P1    2    0.087773    0.250000    0.157366    10.42500    0.01824    0.02022 =
         0.01329    0.00000    0.00094    0.00000
SI1   4    0.087773    0.250000    0.157366    10.07500    0.01824    0.02022 =
         0.01329    0.00000    0.00094    0.00000
S1    3    0.152506    0.037567    0.277520    11.00000    0.02460    0.02790 =
         0.02752    0.00598    0.00062    0.00453
S2    3   -0.062238    0.250000    0.269511    10.50000    0.01922    0.02549 =
         0.02218    0.00000    0.00208    0.00000
S3    3    0.102625    0.250000   -0.173814    10.50000    0.03687    0.02790 =
         0.01476    0.00000    0.00303    0.00000
LI1   1    0.331019    0.032185    0.389861     0.97569    0.03690    0.04065 =
         0.05766    0.01791   -0.00716   -0.00058
LI2   1    0.005630    0.047662    0.557991     0.49234    0.03991    0.06202 =
         0.04211    0.02784    0.00706    0.00112
LI3   1   -0.081322    0.250000   -0.219814     0.13841    0.09513    0.09715 =
         0.22243    0.00000   -0.03047    0.00000
HKLF 4




REM  LN15 in Pnma
REM wR2 = 0.075409, GooF = S = 1.21296, Restrained GooF = 1.21296 for all data
REM R1 = 0.035526 for 833 Fo > 4sig(Fo) and 0.050615 for all 1025 data
REM 56 parameters refined using 0 restraints

END

WGHT      0.0517      0.1089

REM Highest difference peak  0.581,  deepest hole -0.390,  1-sigma level  0.100
Q1    1   0.1358  0.1451  0.2470  11.00000  0.05    0.58
Q2    1   0.1176  0.1550  0.1842  11.00000  0.05    0.57
Q3    1   0.0109  0.2500  0.2249  10.50000  0.05    0.55
Q4    1   0.1779  0.2500 -0.1519  10.50000  0.05    0.46
Q5    1   0.1012  0.1453 -0.1727  11.00000  0.05    0.43
Q6    1   0.1510  0.2500  0.2522  10.50000  0.05    0.43
Q7    1  -0.0617  0.1517  0.2774  11.00000  0.05    0.40
Q8    1  -0.1174  0.2249  0.2681  11.00000  0.05    0.39
Q9    1   0.0331  0.2500 -0.2046  10.50000  0.05    0.37
Q10   1   0.2153  0.0044  0.2681  11.00000  0.05    0.34
;
_shelx_res_checksum              79958
_shelx_hkl_file
;
   0   0   1    4.00    1.00
   0   0   2 9999.00  174.18
   0   0   3    0.20    1.20
   0   0   4  325.17    7.20
   0   0   5    0.20    2.00
   0   0   6   17.30    2.90
   0   0   7    1.60    3.10
   0   0   8    5.30    5.20
   0  -1   0    0.60    0.70
   0  -1   1 1847.42   27.10
   0  -1   2    0.40    1.00
   0  -1   3  432.16    4.90
   0  -1   4    0.30    1.10
   0  -1   5  113.69    3.20
   0  -1   6    0.90    2.10
   0  -1   7  102.69    4.40
   0  -1   8    1.10    3.00
   0  -2   0  507.95   12.20
   0  -2   1    3.00    1.10
   0  -2   2  102.19    1.90
   0  -2   3    1.10    1.00
   0  -2   4  391.16    4.90
   0  -2   5    1.50    1.80
   0  -2   6  556.84    9.30
   0  -2   7    0.40    2.40
   0  -2   8   21.60    3.40
   0  -3   0    0.80    1.60
   0  -3   1  112.09    1.90
   0  -3   2    1.70    1.00
   0  -3   3   63.59    2.20
   0  -3   4    1.20    1.30
   0  -3   5    2.60    1.80
   0  -3   6    2.00    2.20
   0  -3   7   38.00    3.10
   0  -3   8    3.50    5.00
   0  -4   0 7445.35  116.49
   0  -4   1    1.70    2.00
   0  -4   2 2615.94   25.00
   0  -4   3    1.10    1.40
   0  -4   4   63.89    2.80
   0  -4   5    0.20    1.90
   0  -4   6   41.20    3.60
   0  -4   7    0.00    3.30
   0  -4   8    1.00    3.60
   0  -5   0    1.60    1.80
   0  -5   1 1824.22   23.00
   0  -5   2    0.20    1.20
   0  -5   3  690.53    8.60
   0  -5   4    2.50    1.60
   0  -5   5  190.48    4.60
   0  -5   6    4.70    3.00
   0  -5   7  102.99    5.90
   0  -6   0 1315.87   25.20
   0  -6   1    0.00    3.00
   0  -6   2  392.56    5.10
   0  -6   3    1.00    1.70
   0  -6   4   28.40    2.30
   0  -6   5    1.20    2.20
   0  -6   6  132.59    5.80
   0  -6   7    2.30    3.70
   0  -7   0    0.70    6.90
   0  -7   1  144.59    3.50
   0  -7   2    3.70    1.90
   0  -7   3   81.59    3.00
   0  -7   4    2.10    2.20
   0  -7   5   19.50    2.80
   0  -7   6    0.40    3.50
   0  -8   0  557.84   15.60
   0  -8   1    6.20    4.10
   0  -8   2  184.98    5.80
   0  -8   3    2.40    1.90
   0  -8   4    9.70    2.20
   0  -8   5    0.40    3.40
   0  -8   6   54.59    5.40
   0  -9   0    0.00    6.00
   0  -9   1  462.25    9.50
   0  -9   2    6.00    4.50
   0  -9   3  172.38    6.20
   0  -9   4    0.00    4.20
   0  -9   5   61.29    5.40
   0 -10   0  870.51   23.50
   0 -10   1    5.70    4.90
   0 -10   2  336.47   12.10
   0 -10   3   12.10    9.80
   0 -10   4    0.90   11.30
   0 -11   0    9.10   10.50
   0 -11   1    0.30    7.20
   0 -11   2    0.00    9.10
   1   0   0    0.00    0.80
   1   0   1  240.58    5.10
   1   0   2  407.36    4.60
   1   0   3  340.87    4.00
   1   0   4  230.38    3.80
   1   0   5   63.49    2.60
   1   0   6  168.68    4.60
   1   0   7  507.15   13.60
   1   0   8   49.80    7.20
   1  -1   0    1.10    0.40
   1  -1   1  215.18    2.70
   1  -1   2   32.90    1.00
   1  -1   3  434.06    3.70
   1  -1   4  164.88    2.10
   1  -1   5   55.69    1.60
   1  -1   6  207.38    3.80
   1  -1   7   29.20    3.80
   1  -1   8   82.59    6.20
   1  -2   0    0.50    0.60
   1  -2   1  531.75    4.10
   1  -2   2  263.17    2.30
   1  -2   3  985.40    6.90
   1  -2   4  133.99    2.00
   1  -2   5  171.58    2.90
   1  -2   6   78.09    3.00
   1  -2   7   35.90    4.00
   1  -2   8   59.29    5.10
   1  -3   0    0.50    0.60
   1  -3   1  402.46    2.60
   1  -3   2    0.70    0.60
   1  -3   3  983.70    7.20
   1  -3   4    1.80    1.00
   1  -3   5  294.47    3.70
   1  -3   6   30.00    2.50
   1  -3   7   12.30    4.50
   1  -3   8   11.60    5.80
   1  -4   0    0.90    0.60
   1  -4   1  130.29    1.40
   1  -4   2   36.70    1.10
   1  -4   3  282.27    2.90
   1  -4   4   40.70    1.60
   1  -4   5    6.60    1.70
   1  -4   6   33.00    3.70
   1  -4   7  238.28    7.00
   1  -4   8    7.60    5.30
   1  -5   0    1.30    0.70
   1  -5   1    6.90    0.60
   1  -5   2   13.50    0.90
   1  -5   3   30.90    1.30
   1  -5   4  232.68    3.10
   1  -5   5    3.00    2.00
   1  -5   6  233.08    5.50
   1  -5   7   93.69    6.20
   1  -6   0    0.90    0.90
   1  -6   1   77.59    1.30
   1  -6   2    3.90    0.90
   1  -6   3  208.98    2.70
   1  -6   4    1.00    1.20
   1  -6   5    9.10    2.30
   1  -6   6    3.50    4.10
   1  -6   7   67.19    6.40
   1  -7   0    1.70    1.50
   1  -7   1  125.49    2.00
   1  -7   2    3.60    1.00
   1  -7   3  400.26    3.90
   1  -7   4    2.60    1.50
   1  -7   5  143.19    4.40
   1  -7   6    6.50    4.10
   1  -8   0    1.60    1.90
   1  -8   1   70.29    2.10
   1  -8   2   10.90    1.40
   1  -8   3  162.88    2.60
   1  -8   4   10.00    1.80
   1  -8   5   12.30    2.90
   1  -8   6    4.50    3.60
   1  -9   0    2.30    2.10
   1  -9   1   10.60    1.60
   1  -9   2    5.70    1.70
   1  -9   3   21.40    2.20
   1  -9   4   34.00    2.90
   1  -9   5    5.50    3.60
   1 -10   0    8.10    2.50
   1 -10   1   11.90    1.90
   1 -10   2    3.40    2.60
   1 -10   3   20.30    3.50
   1 -10   4    9.10    4.10
   1 -11   0    0.40    3.70
   1 -11   1   16.00    3.30
   1 -11   2    1.00    3.20
   2   0   0  613.04   16.60
   2   0   1  672.73   12.60
   2   0   2   70.19    2.10
   2   0   3  300.57    3.70
   2   0   4    6.70    1.10
   2   0   5   32.60    2.00
   2   0   6   37.60    2.40
   2   0   7   17.20    3.40
   2   0   8    0.00    4.70
   2  -1   0 1932.71   26.20
   2  -1   1  304.47    4.00
   2  -1   2  219.28    2.20
   2  -1   3   85.19    1.40
   2  -1   4  391.66    3.60
   2  -1   5    7.70    1.20
   2  -1   6  591.14    6.80
   2  -1   7   15.20    2.00
   2  -1   8   69.09    4.20
   2  -2   0 3108.19   27.80
   2  -2   1 3672.03   29.00
   2  -2   2 1389.16   11.00
   2  -2   3 2137.89   14.60
   2  -2   4   63.99    1.50
   2  -2   5  491.95    5.40
   2  -2   6    1.60    1.50
   2  -2   7    8.90    2.10
   2  -2   8    3.90    2.20
   2  -3   0    1.90    1.00
   2  -3   1  862.41    6.70
   2  -3   2  350.56    3.80
   2  -3   3  148.49    2.50
   2  -3   4 1249.07    9.50
   2  -3   5   56.19    1.90
   2  -3   6  709.73    7.80
   2  -3   7   16.00    2.20
   2  -3   8   52.89    3.10
   2  -4   0  342.87    3.60
   2  -4   1    9.20    0.80
   2  -4   2  107.59    2.10
   2  -4   3    4.30    1.00
   2  -4   4    1.90    1.30
   2  -4   5    1.40    1.50
   2  -4   6   19.10    2.10
   2  -4   7    9.70    2.60
   2  -4   8    3.20    2.70
   2  -5   0 1636.34   20.50
   2  -5   1    2.70    0.90
   2  -5   2  650.43    5.20
   2  -5   3    6.30    1.20
   2  -5   4   10.00    1.50
   2  -5   5    2.40    1.60
   2  -5   6  192.78    4.10
   2  -5   7    6.30    2.60
   2  -6   0  451.15    5.40
   2  -6   1  170.18    2.10
   2  -6   2  191.68    2.50
   2  -6   3  209.28    2.90
   2  -6   4    6.00    1.50
   2  -6   5   93.89    3.00
   2  -6   6    3.40    2.30
   2  -6   7    5.20    2.70
   2  -7   0   29.10    3.00
   2  -7   1  313.57    4.80
   2  -7   2  254.87    3.30
   2  -7   3   84.19    2.60
   2  -7   4  665.73    6.80
   2  -7   5   27.60    2.30
   2  -7   6  341.17    6.60
   2  -8   0  258.97    5.40
   2  -8   1  140.49    3.40
   2  -8   2  117.79    2.60
   2  -8   3  107.29    2.90
   2  -8   4    5.60    1.80
   2  -8   5   29.60    3.20
   2  -8   6    1.40    2.70
   2  -9   0  400.66    9.10
   2  -9   1    8.90    2.70
   2  -9   2  151.88    4.10
   2  -9   3    4.10    3.40
   2  -9   4    3.10    2.60
   2  -9   5    2.50    2.60
   2 -10   0   40.20    5.00
   2 -10   1    9.60    4.40
   2 -10   2    9.70    5.80
   2 -10   3    0.00    5.90
   2 -10   4    0.80    4.30
   2 -11   0    5.70    9.30
   2 -11   1   31.70    5.10
   2 -11   2    0.00    6.00
   3   0   0    5.40    4.00
   3   0   1   64.89    2.40
   3   0   2   14.20    1.10
   3   0   3   27.10    1.30
   3   0   4    3.30    1.20
   3   0   5  189.38    4.70
   3   0   6   27.10    3.60
   3   0   7  128.79    8.60
   3   0   8    0.00   12.30
   3  -1   0    3.20    1.00
   3  -1   1  777.12    6.10
   3  -1   2   40.10    0.90
   3  -1   3 1669.73   10.80
   3  -1   4   37.30    1.20
   3  -1   5  304.07    3.90
   3  -1   6    8.40    2.20
   3  -1   7   23.20    2.90
   3  -1   8    0.00    8.40
   3  -2   0    1.30    0.70
   3  -2   1   32.20    1.00
   3  -2   2   96.49    1.60
   3  -2   3  533.15    4.30
   3  -2   4   69.19    1.70
   3  -2   5  512.35    6.40
   3  -2   6    7.80    2.30
   3  -2   7  116.19    3.80
   3  -2   8    9.50    6.70
   3  -3   0    0.50    0.60
   3  -3   1  501.35    3.40
   3  -3   2   23.50    1.00
   3  -3   3 1476.95   12.00
   3  -3   4   92.09    2.00
   3  -3   5  368.66    4.90
   3  -3   6  143.69    4.00
   3  -3   7    2.80    2.40
   3  -3   8   72.99    8.70
   3  -4   0    3.30    0.70
   3  -4   1   25.60    0.70
   3  -4   2   23.00    1.00
   3  -4   3    6.60    1.10
   3  -4   4    2.60    1.50
   3  -4   5   10.40    2.30
   3  -4   6    7.30    2.70
   3  -4   7   33.80    4.60
   3  -4   8    4.90    5.10
   3  -5   0    1.00    0.80
   3  -5   1  219.18    1.80
   3  -5   2   66.89    1.40
   3  -5   3  641.74    5.60
   3  -5   4  164.28    3.40
   3  -5   5  102.99    3.40
   3  -5   6  100.79    3.80
   3  -5   7   26.90    4.40
   3  -6   0    0.60    1.00
   3  -6   1    6.10    0.80
   3  -6   2   31.20    1.10
   3  -6   3   32.30    1.70
   3  -6   4    9.60    2.10
   3  -6   5   13.80    2.50
   3  -6   6    1.50    3.00
   3  -6   7    1.00    4.50
   3  -7   0    1.20    1.40
   3  -7   1  153.18    2.00
   3  -7   2   11.10    1.20
   3  -7   3  549.15    5.40
   3  -7   4   73.19    2.80
   3  -7   5  150.48    4.20
   3  -7   6  115.09    6.10
   3  -8   0    1.10    1.80
   3  -8   1   11.60    1.30
   3  -8   2   18.80    1.50
   3  -8   3   70.99    2.30
   3  -8   4    9.50    2.10
   3  -8   5   51.89    4.00
   3  -8   6    3.90    2.70
   3  -9   0    2.40    2.10
   3  -9   1   66.09    2.50
   3  -9   2    6.30    2.10
   3  -9   3  174.98    4.50
   3  -9   4   25.00    3.00
   3  -9   5   29.80    3.40
   3 -10   0    2.10    4.20
   3 -10   1    2.20    2.80
   3 -10   2    5.70    3.00
   3 -10   3    1.30    3.10
   3 -11   0    0.40    5.00
   3 -11   1   29.00    4.40
   4   0   0 6240.48   88.59
   4   0   1 2360.26   22.70
   4   0   2 2357.66   27.40
   4   0   3 1947.31   19.00
   4   0   4   23.00    1.60
   4   0   5  658.53    8.00
   4   0   6   76.09    4.00
   4   0   7   48.90    5.90
   4   0   8   16.10    5.50
   4  -1   0    2.90    1.10
   4  -1   1    5.20    0.70
   4  -1   2  212.18    2.10
   4  -1   3    0.80    0.70
   4  -1   4  763.12    6.00
   4  -1   5   11.40    1.40
   4  -1   6  464.85    6.20
   4  -1   7   24.60    2.90
   4  -1   8   53.09    4.80
   4  -2   0    0.80    0.90
   4  -2   1    9.40    0.90
   4  -2   2  164.08    2.20
   4  -2   3    0.50    0.80
   4  -2   4  524.75    4.90
   4  -2   5   41.40    1.90
   4  -2   6  408.56    5.80
   4  -2   7    6.20    2.60
   4  -2   8   35.30    3.70
   4  -3   0  339.07    3.50
   4  -3   1  597.94    5.90
   4  -3   2   60.39    1.70
   4  -3   3  169.08    2.80
   4  -3   4  152.88    2.90
   4  -3   5   34.80    1.90
   4  -3   6  275.37    4.40
   4  -3   7    4.60    2.40
   4  -3   8   33.50    3.70
   4  -4   0 1438.36   14.10
   4  -4   1  472.15    3.80
   4  -4   2  562.84    5.40
   4  -4   3  672.33    7.00
   4  -4   4    2.90    1.40
   4  -4   5  332.47    4.80
   4  -4   6   62.59    2.80
   4  -4   7   29.20    3.00
   4  -5   0   84.29    1.90
   4  -5   1  283.57    3.20
   4  -5   2  415.46    4.90
   4  -5   3   83.69    2.70
   4  -5   4  754.82    7.00
   4  -5   5   57.99    2.60
   4  -5   6  321.97    5.60
   4  -5   7   26.50    3.00
   4  -6   0  171.08    3.20
   4  -6   1   70.49    1.80
   4  -6   2   20.50    1.60
   4  -6   3  100.49    2.70
   4  -6   4   78.39    2.90
   4  -6   5   60.39    2.60
   4  -6   6  124.69    4.50
   4  -6   7    4.20    2.80
   4  -7   0  186.38    3.70
   4  -7   1  336.97    3.80
   4  -7   2   67.89    2.40
   4  -7   3  146.49    3.20
   4  -7   4   26.20    2.30
   4  -7   5   39.60    2.80
   4  -7   6   84.69    4.30
   4  -8   0  106.09    7.30
   4  -8   1    5.80    2.10
   4  -8   2    8.70    1.90
   4  -8   3   43.80    2.60
   4  -8   4   37.90    2.70
   4  -8   5   44.40    3.50
   4  -9   0    4.20    7.10
   4  -9   1   75.09    4.10
   4  -9   2   86.09    3.60
   4  -9   3   33.20    3.20
   4  -9   4  204.98    5.60
   4 -10   0  242.08   14.60
   4 -10   1   93.79    7.00
   4 -10   2   83.39    6.70
   4 -10   3  109.99    7.40
   4 -11   0   19.40    9.30
   4 -11   1   34.00    7.10
   5   0   0    2.30    3.40
   5   0   1  425.46    4.70
   5   0   2  895.51   10.10
   5   0   3  862.71    9.10
   5   0   4  728.73    8.80
   5   0   5  128.69    4.30
   5   0   6  303.97    8.10
   5   0   7   99.39    8.40
   5   0   8  109.59    9.80
   5  -1   0    1.10    1.00
   5  -1   1   70.89    1.10
   5  -1   2    3.40    0.60
   5  -1   3  218.78    2.40
   5  -1   4   19.70    1.30
   5  -1   5  117.59    3.20
   5  -1   6   67.09    3.40
   5  -1   7   38.50    4.00
   5  -1   8   11.20    4.40
   5  -2   0    1.10    0.90
   5  -2   1  302.67    3.10
   5  -2   2    6.80    0.70
   5  -2   3  806.02    6.10
   5  -2   4    5.60    1.60
   5  -2   5   43.10    2.80
   5  -2   6   57.19    3.10
   5  -2   7  109.69    5.30
   5  -2   8   48.60    4.90
   5  -3   0    1.60    0.80
   5  -3   1    1.50    0.70
   5  -3   2    1.90    0.80
   5  -3   3    0.90    1.10
   5  -3   4   68.89    2.60
   5  -3   5    6.80    2.30
   5  -3   6   73.09    3.40
   5  -3   7   10.50    3.60
   5  -3   8   14.60    4.20
   5  -4   0    0.90    0.80
   5  -4   1  172.08    1.80
   5  -4   2  256.67    3.10
   5  -4   3  478.25    5.70
   5  -4   4  244.48    4.20
   5  -4   5   65.49    3.70
   5  -4   6   83.09    4.00
   5  -4   7   58.99    6.30
   5  -5   0    0.70    0.90
   5  -5   1   96.59    1.50
   5  -5   2    3.00    1.10
   5  -5   3  353.96    5.20
   5  -5   4    3.20    2.10
   5  -5   5  239.58    4.80
   5  -5   6   25.10    3.90
   5  -5   7  115.99    5.70
   5  -6   0    2.70    1.10
   5  -6   1  121.49    1.90
   5  -6   2   47.80    1.50
   5  -6   3  367.86    4.50
   5  -6   4   43.60    2.70
   5  -6   5   23.70    2.70
   5  -6   6    4.80    4.00
   5  -7   0    2.10    1.80
   5  -7   1    3.80    1.20
   5  -7   2    2.90    1.50
   5  -7   3    9.60    2.40
   5  -7   4   15.90    3.00
   5  -7   5   15.50    3.70
   5  -7   6   27.20    5.10
   5  -8   0    1.40    2.00
   5  -8   1   53.49    2.20
   5  -8   2    8.50    2.10
   5  -8   3  151.68    3.50
   5  -8   4    4.10    2.80
   5  -8   5   10.80    4.40
   5  -9   0    3.20    3.90
   5  -9   1   18.30    2.70
   5  -9   2    3.10    2.30
   5  -9   3   79.49    4.00
   5  -9   4    5.50    3.40
   5 -10   0    2.40    5.00
   5 -10   1   35.10    4.30
   5 -10   2   46.10    4.60
   5 -10   3   93.19    5.10
   6   0   0   26.10    4.20
   6   0   1  691.33    7.20
   6   0   2    2.30    1.20
   6   0   3  458.45    6.00
   6   0   4  343.77    6.20
   6   0   5  322.27    6.00
   6   0   6  384.96    8.50
   6   0   7   91.79    7.60
   6   0   8   11.60    5.60
   6  -1   0 1240.78   12.80
   6  -1   1   63.59    1.20
   6  -1   2  543.85    4.30
   6  -1   3    1.20    0.90
   6  -1   4   34.80    1.50
   6  -1   5    2.80    1.80
   6  -1   6    9.10    2.10
   6  -1   7   14.80    2.90
   6  -1   8    1.40    3.70
   6  -2   0 6253.97   58.79
   6  -2   1  121.79    1.90
   6  -2   2 2095.69   15.20
   6  -2   3    4.80    0.90
   6  -2   4   71.79    2.50
   6  -2   5   12.80    2.20
   6  -2   6   18.00    2.30
   6  -2   7   23.30    2.90
   6  -2   8    1.20    3.10
   6  -3   0  223.18    3.00
   6  -3   1 1064.89    9.00
   6  -3   2   71.39    1.80
   6  -3   3  284.47    4.10
   6  -3   4    5.10    1.80
   6  -3   5   40.40    2.60
   6  -3   6   27.20    2.60
   6  -3   7   32.80    3.50
   6  -4   0  309.77    4.00
   6  -4   1  178.38    2.20
   6  -4   2   70.49    2.30
   6  -4   3  184.78    3.40
   6  -4   4  105.29    3.00
   6  -4   5  150.58    4.20
   6  -4   6  172.18    4.80
   6  -4   7   54.59    5.00
   6  -5   0  897.51   10.40
   6  -5   1   88.79    1.90
   6  -5   2  542.15    5.90
   6  -5   3   91.89    2.80
   6  -5   4   76.99    2.90
   6  -5   5   32.90    2.90
   6  -5   6    0.80    3.00
   6  -5   7    1.40    3.80
   6  -6   0  909.11    9.60
   6  -6   1    1.40    1.20
   6  -6   2  351.46    4.40
   6  -6   3    9.50    1.80
   6  -6   4    1.70    1.90
   6  -6   5   23.30    2.40
   6  -6   6   37.00    4.10
   6  -7   0   25.20    2.60
   6  -7   1  635.74    6.30
   6  -7   2    5.80    1.80
   6  -7   3  179.68    3.70
   6  -7   4   11.80    2.20
   6  -7   5   39.80    3.70
   6  -7   6   19.60    4.00
   6  -8   0  623.44    8.80
   6  -8   1    3.10    1.80
   6  -8   2  223.18    4.20
   6  -8   3   12.60    2.10
   6  -8   4    1.60    2.90
   6  -8   5   24.60    3.90
   6  -9   0  269.87    8.20
   6  -9   1   11.90    2.60
   6  -9   2  155.18    5.60
   6  -9   3   13.80    4.00
   6  -9   4   34.30    3.80
   6 -10   0   45.40   10.60
   6 -10   1   27.50    7.00
   6 -10   2   10.00    7.60
   6 -10   3   35.50    5.70
   7   0   0    1.80    4.00
   7   0   1  162.18    2.80
   7   0   2   15.00    1.30
   7   0   3  371.76    6.20
   7   0   4    4.00    2.80
   7   0   5  140.69    5.30
   7   0   6    8.80    4.30
   7   0   7    0.10    4.70
   7   0   8   10.50    6.00
   7  -1   0    0.60    1.10
   7  -1   1  189.58    2.10
   7  -1   2   45.70    1.20
   7  -1   3  477.35    5.20
   7  -1   4   13.70    2.20
   7  -1   5   58.09    2.80
   7  -1   6   36.30    3.30
   7  -1   7   40.50    4.70
   7  -2   0    1.30    1.10
   7  -2   1    2.40    0.70
   7  -2   2   99.09    1.60
   7  -2   3    1.60    1.30
   7  -2   4  134.49    3.60
   7  -2   5  175.58    4.50
   7  -2   6  100.69    4.50
   7  -2   7  317.47    8.30
   7  -3   0    0.80    1.00
   7  -3   1   45.50    1.40
   7  -3   2    1.00    0.90
   7  -3   3  182.88    3.70
   7  -3   4   99.89    3.70
   7  -3   5    4.00    2.40
   7  -3   6  221.18    5.70
   7  -3   7  109.79    5.90
   7  -4   0    1.00    1.10
   7  -4   1   52.89    1.50
   7  -4   2    0.70    1.40
   7  -4   3  133.29    3.70
   7  -4   4   16.00    2.90
   7  -4   5   18.70    3.50
   7  -4   6   15.50    4.30
   7  -4   7   12.20    5.50
   7  -5   0    1.50    1.40
   7  -5   1  146.79    2.20
   7  -5   2   80.19    2.40
   7  -5   3  374.56    6.00
   7  -5   4  107.29    4.20
   7  -5   5   62.99    4.00
   7  -5   6    1.30    4.70
   7  -5   7    0.10    5.40
   7  -6   0    0.10    1.40
   7  -6   1   21.20    1.40
   7  -6   2    6.50    1.80
   7  -6   3   36.30    2.40
   7  -6   4   20.10    3.00
   7  -6   5    1.50    3.50
   7  -6   6    4.30    4.30
   7  -7   0    1.90    1.70
   7  -7   1   17.90    2.00
   7  -7   2    0.60    1.70
   7  -7   3   62.69    2.70
   7  -7   4   61.79    3.30
   7  -7   5    0.00    4.30
   7  -7   6  116.59    6.80
   7  -8   0    2.30    2.40
   7  -8   1    6.80    2.00
   7  -8   2   13.20    2.30
   7  -8   3    1.30    2.20
   7  -8   4   24.20    3.60
   7  -8   5    7.30    4.80
   7  -9   0    1.30    3.70
   7  -9   1   33.90    3.70
   7  -9   2   20.70    3.70
   7  -9   3   86.69    4.60
   7  -9   4   22.90    3.80
   7 -10   0    7.40    5.40
   7 -10   1    7.60    3.60
   7 -10   2    1.90    3.60
   8   0   0   96.69    3.90
   8   0   1  684.03    7.50
   8   0   2   84.09    2.50
   8   0   3  810.72   10.80
   8   0   4   25.00    2.30
   8   0   5  251.87    8.00
   8   0   6   15.30    7.50
   8   0   7    3.50    4.70
   8  -1   0  455.75    7.10
   8  -1   1  572.34    4.70
   8  -1   2   39.80    1.30
   8  -1   3  109.69    2.30
   8  -1   4  237.18    4.10
   8  -1   5    3.00    2.30
   8  -1   6  280.87    6.10
   8  -1   7    0.50    3.40
   8  -2   0  356.76    5.40
   8  -2   1  570.44    4.70
   8  -2   2  262.67    3.20
   8  -2   3  276.37    4.00
   8  -2   4  188.28    4.80
   8  -2   5   43.60    3.10
   8  -2   6   61.49    3.70
   8  -2   7   17.70    3.70
   8  -3   0 1680.13   17.10
   8  -3   1  517.95    4.90
   8  -3   2  684.53    6.50
   8  -3   3  202.58    3.50
   8  -3   4    2.10    2.10
   8  -3   5   10.80    2.80
   8  -3   6  102.69    5.00
   8  -3   7    1.00    3.00
   8  -4   0   89.29    2.50
   8  -4   1  119.09    2.20
   8  -4   2   64.69    2.20
   8  -4   3  229.68    3.90
   8  -4   4   24.20    2.10
   8  -4   5   95.69    4.70
   8  -4   6   21.60    4.50
   8  -4   7    4.10    3.80
   8  -5   0    3.60    1.40
   8  -5   1  250.87    3.10
   8  -5   2   70.39    2.10
   8  -5   3   25.60    2.10
   8  -5   4  404.76    5.90
   8  -5   5    1.00    2.80
   8  -5   6  230.28    8.40
   8  -6   0  122.19    3.20
   8  -6   1   14.50    1.30
   8  -6   2  109.09    2.80
   8  -6   3    1.80    1.80
   8  -6   4   66.39    3.00
   8  -6   5    1.40    3.10
   8  -6   6   29.30    5.20
   8  -7   0  923.21   10.40
   8  -7   1  242.38    3.80
   8  -7   2  456.35    5.50
   8  -7   3  101.89    3.40
   8  -7   4   13.60    2.80
   8  -7   5    1.90    3.40
   8  -8   0   49.00    3.60
   8  -8   1   27.80    2.20
   8  -8   2   32.90    2.10
   8  -8   3    1.90    2.90
   8  -8   4   14.00    3.60
   8  -9   0    9.90    4.10
   8  -9   1   52.99    4.30
   8  -9   2   12.80    4.20
   8  -9   3    5.70    3.30
   8 -10   0   35.80   11.90
   8 -10   1   32.90    6.90
   9   0   0    2.80    2.20
   9   0   1   61.49    2.10
   9   0   2  207.68    4.40
   9   0   3  642.24    9.10
   9   0   4  233.48    6.80
   9   0   5  474.85    9.70
   9   0   6   38.00    5.80
   9   0   7   76.09    8.00
   9  -1   0    3.10    2.00
   9  -1   1  126.99    2.10
   9  -1   2    0.30    1.10
   9  -1   3  411.06    5.30
   9  -1   4    2.50    1.80
   9  -1   5   85.29    3.60
   9  -1   6   31.50    3.70
   9  -1   7   12.20    4.20
   9  -2   0    1.40    1.30
   9  -2   1   90.99    1.80
   9  -2   2   15.90    1.80
   9  -2   3  114.59    3.60
   9  -2   4   13.60    2.30
   9  -2   5    7.00    2.70
   9  -2   6   96.19    4.60
   9  -2   7   12.50    4.00
   9  -3   0    2.20    1.20
   9  -3   1   56.29    1.80
   9  -3   2   31.90    1.80
   9  -3   3  140.59    3.90
   9  -3   4   48.60    3.40
   9  -3   5    3.40    3.40
   9  -3   6    9.40    4.50
   9  -3   7   58.89    7.10
   9  -4   0    1.50    1.30
   9  -4   1   43.20    1.80
   9  -4   2   92.19    3.10
   9  -4   3  268.57    5.00
   9  -4   4   75.69    3.60
   9  -4   5  169.58    5.80
   9  -4   6    3.00    5.00
   9  -5   0    0.40    1.40
   9  -5   1  114.79    2.50
   9  -5   2    2.60    1.60
   9  -5   3  372.46    5.40
   9  -5   4   29.70    3.30
   9  -5   5  146.79    7.00
   9  -5   6   75.89    7.10
   9  -6   0    0.50    1.60
   9  -6   1   42.60    1.90
   9  -6   2   37.40    2.30
   9  -6   3  133.99    3.50
   9  -6   4    5.20    2.50
   9  -6   5   62.39    6.40
   9  -6   6   13.70    5.70
   9  -7   0    3.90    2.00
   9  -7   1   17.70    2.20
   9  -7   2   12.20    2.00
   9  -7   3   39.50    2.80
   9  -7   4   36.00    4.60
   9  -7   5    2.00    5.10
   9  -8   0    1.80    3.40
   9  -8   1   18.80    2.60
   9  -8   2   10.50    2.50
   9  -8   3   31.80    4.30
   9  -8   4    0.70    4.10
   9  -9   0    1.20    4.10
   9  -9   1   36.20    4.00
   9  -9   2    0.90    3.20
   9  -9   3  106.49    5.70
  10   0   0  219.78    6.80
  10   0   1    2.10    1.60
  10   0   2  504.45    6.80
  10   0   3   28.30    2.50
  10   0   4  792.42   14.30
  10   0   5  115.39    5.70
  10   0   6  479.75   14.40
  10   0   7   19.40   11.90
  10  -1   0    8.20    1.80
  10  -1   1  285.47    4.10
  10  -1   2   24.30    1.40
  10  -1   3  191.88    3.70
  10  -1   4   88.19    3.00
  10  -1   5   65.39    3.80
  10  -1   6   55.99    4.80
  10  -1   7    6.80    7.30
  10  -2   0 1021.30   11.70
  10  -2   1    3.60    1.50
  10  -2   2  408.96    5.20
  10  -2   3  156.48    3.70
  10  -2   4    4.10    2.40
  10  -2   5  193.08    5.50
  10  -2   6   89.99    5.00
  10  -2   7   26.00    5.30
  10  -3   0   13.80    1.50
  10  -3   1   22.50    1.40
  10  -3   2   81.39    2.60
  10  -3   3    1.20    1.80
  10  -3   4  140.19    4.70
  10  -3   5    1.60    2.80
  10  -3   6   46.30    5.20
  10  -4   0   16.90    1.70
  10  -4   1    0.90    1.10
  10  -4   2  113.09    2.70
  10  -4   3   41.70    2.80
  10  -4   4  367.06    6.50
  10  -4   5   96.59    4.70
  10  -4   6  256.47    8.90
  10  -5   0    3.40    1.60
  10  -5   1  649.93    6.10
  10  -5   2    2.60    1.30
  10  -5   3  361.96    5.90
  10  -5   4   33.80    3.00
  10  -5   5  130.29    7.00
  10  -5   6   31.80    5.30
  10  -6   0  102.39    3.30
  10  -6   1    2.80    1.30
  10  -6   2   10.40    1.70
  10  -6   3   31.10    2.30
  10  -6   4   52.19    4.40
  10  -6   5   63.69    6.70
  10  -7   0    4.50    1.90
  10  -7   1   64.29    2.30
  10  -7   2   32.60    2.20
  10  -7   3   16.10    2.30
  10  -7   4   65.59    5.70
  10  -8   0   69.79    3.90
  10  -8   1    4.90    2.00
  10  -8   2    7.30    3.10
  10  -8   3   37.80    3.90
  10  -8   4   40.40    5.00
  10  -9   0    1.00    4.30
  10  -9   1  158.18    6.80
  10  -9   2    7.00    3.50
  11   0   0    0.50    2.30
  11   0   1  149.29    5.30
  11   0   2    6.70    2.40
  11   0   3  545.55   10.30
  11   0   4    5.50    3.50
  11   0   5  142.69    6.60
  11   0   6   16.80    5.60
  11  -1   0    2.10    1.80
  11  -1   1    3.40    1.90
  11  -1   2   60.99    3.70
  11  -1   3   12.40    2.00
  11  -1   4   19.00    2.40
  11  -1   5    3.10    2.90
  11  -1   6    3.40    3.20
  11  -2   0    0.60    1.50
  11  -2   1   70.49    3.70
  11  -2   2  311.27    5.80
  11  -2   3  162.08    4.70
  11  -2   4  310.87    6.50
  11  -2   5   17.80    3.10
  11  -2   6  110.79    5.60
  11  -3   0    1.70    1.50
  11  -3   1    7.60    2.60
  11  -3   2   19.20    3.80
  11  -3   3   25.60    3.90
  11  -3   4    0.00    3.30
  11  -3   5   47.30    4.90
  11  -3   6   22.00    5.40
  11  -4   0    1.50    1.70
  11  -4   1   94.49    2.60
  11  -4   2   34.80    2.70
  11  -4   3  336.07    7.80
  11  -4   4   35.00    6.20
  11  -4   5   79.69    6.20
  11  -4   6    0.00    5.40
  11  -5   0    2.70    2.10
  11  -5   1   15.10    1.70
  11  -5   2   74.39    3.40
  11  -5   3   59.49    3.50
  11  -5   4   24.80    8.40
  11  -5   5   34.90    6.10
  11  -6   0    1.80    2.70
  11  -6   1   47.40    2.10
  11  -6   2   50.19    2.90
  11  -6   3  121.09    5.70
  11  -6   4   48.80    9.00
  11  -6   5   16.20   10.10
  11  -7   0    5.80    3.30
  11  -7   1    6.30    2.40
  11  -7   2    3.60    2.90
  11  -7   3   30.40    4.80
  11  -7   4    8.20    8.60
  11  -8   0    0.00    4.30
  11  -8   1   25.20    3.60
  11  -8   2   54.09    4.60
  11  -8   3   87.59    5.40
  11  -9   0    1.10    4.50
  11  -9   1    1.60    3.50
  12   0   0  659.93   13.80
  12   0   1  127.69    4.10
  12   0   2  154.28    4.70
  12   0   3   25.20    2.90
  12   0   4    7.60    3.40
  12   0   5    5.60    4.10
  12   0   6    7.40   10.20
  12  -1   0  391.66    7.10
  12  -1   1  104.69    2.90
  12  -1   2  167.88    4.10
  12  -1   3    0.40    1.80
  12  -1   4    1.40    2.50
  12  -1   5   33.70    4.50
  12  -1   6   14.40    4.60
  12  -2   0    1.20    2.10
  12  -2   1  486.45    6.90
  12  -2   2    7.70    1.90
  12  -2   3  348.37    6.60
  12  -2   4   83.29    4.90
  12  -2   5  200.98    7.60
  12  -2   6   69.19    5.90
  12  -3   0 1030.00   14.90
  12  -3   1    4.50    1.80
  12  -3   2  568.24    7.90
  12  -3   3   38.50    3.40
  12  -3   4   70.69    4.60
  12  -3   5   61.39    4.90
  12  -3   6    1.20    4.50
  12  -4   0  232.58    5.10
  12  -4   1   15.80    1.80
  12  -4   2   55.69    3.00
  12  -4   3    3.00    2.70
  12  -4   4   10.30    3.30
  12  -4   5   10.30    5.00
  12  -5   0   31.80    2.60
  12  -5   1  185.18    3.80
  12  -5   2    2.60    1.90
  12  -5   3   10.00    2.40
  12  -5   4   13.70    5.00
  12  -5   5    7.70    5.00
  12  -6   0   66.39    3.50
  12  -6   1   58.79    2.40
  12  -6   2   13.60    2.60
  12  -6   3   53.69    5.70
  12  -6   4    9.80    4.90
  12  -7   0  617.24   10.60
  12  -7   1    4.30    2.20
  12  -7   2  353.26    7.60
  12  -7   3   24.40    4.60
  12  -8   0    6.00    4.50
  12  -8   1   23.50    3.10
  12  -8   2    0.80    2.50
  13   0   0   12.30    7.80
  13   0   1    2.70    2.70
  13   0   2    6.90    6.40
  13   0   3   37.40    7.00
  13   0   4   15.60    4.10
  13   0   5  112.69    8.00
  13   0   6   30.90    6.10
  13  -1   0   15.00    7.90
  13  -1   1   29.80    2.90
  13  -1   2   44.20    3.70
  13  -1   3   79.39    5.20
  13  -1   4    4.70    7.00
  13  -1   5    0.70    3.10
  13  -1   6   14.00    3.60
  13  -2   0    5.40    5.40
  13  -2   1   24.40    3.10
  13  -2   2    0.00    3.00
  13  -2   3   55.59    5.40
  13  -2   4   33.50    7.60
  13  -2   5   36.00    5.80
  13  -3   0    8.60    5.00
  13  -3   1   46.40    3.10
  13  -3   2  109.29    4.70
  13  -3   3   78.19    6.30
  13  -3   4  118.49    7.10
  13  -3   5    0.20    9.40
  13  -4   0   10.20    5.50
  13  -4   1    1.30    2.30
  13  -4   2    0.70    2.80
  13  -4   3    5.80    5.60
  13  -4   4   19.70    8.90
  13  -4   5   26.90    9.70
  13  -5   0   17.50    6.30
  13  -5   1   22.30    2.90
  13  -5   2    5.50    3.30
  13  -5   3   56.09    5.40
  13  -5   4    6.70    9.20
  13  -6   0    1.70    3.60
  13  -6   1    0.00    3.10
  13  -6   2    1.00    3.30
  13  -6   3   15.00    8.10
  13  -6   4    5.80    9.30
  13  -7   0    3.80    3.70
  13  -7   1   19.20    4.20
  13  -7   2   74.79    5.80
  13  -7   3   39.90    4.60
  13  -8   0    0.00    4.40
  14   0   0  157.88    6.90
  14   0   1  550.04    8.40
  14   0   2  160.08    8.20
  14   0   3  203.38    9.40
  14   0   4  169.58    9.20
  14   0   5   92.59   55.69
  14  -1   0  466.85    9.20
  14  -1   1  202.08    3.90
  14  -1   2  182.28    4.80
  14  -1   3   59.09    3.90
  14  -1   4    6.00    4.10
  14  -1   5    4.90    4.80
  14  -2   0   56.29    3.80
  14  -2   1    7.10    2.10
  14  -2   2   26.30    2.30
  14  -2   3   31.20    3.50
  14  -2   4    2.50    4.10
  14  -2   5   29.80    5.80
  14  -3   0   81.59    4.50
  14  -3   1   39.00    2.60
  14  -3   2   10.60    2.40
  14  -3   3    3.40    3.00
  14  -3   4   19.60    5.00
  14  -3   5   11.80    5.10
  14  -4   0   65.39    4.40
  14  -4   1  220.28    4.80
  14  -4   2   68.89    3.40
  14  -4   3   65.19    6.10
  14  -4   4   74.59    7.00
  14  -5   0  556.14   14.80
  14  -5   1  256.97    7.00
  14  -5   2  274.57    6.20
  14  -5   3  104.19    6.00
  14  -5   4   25.00    5.50
  14  -6   0    3.00    4.20
  14  -6   1   71.19    3.80
  14  -6   2    3.60    3.00
  14  -6   3    2.70    3.40
  14  -7   0   14.70    4.80
  14  -7   1    2.00    3.00
  15   0   0    0.00   72.19
  15   0   1   40.70    4.40
  15   0   2    4.60    7.90
  15   0   3   77.89    9.40
  15   0   4    1.90    9.80
  15   0   5    0.00   19.10
  15  -1   0    5.80    5.50
  15  -1   1    4.20    2.80
  15  -1   2    0.00    3.20
  15  -1   3   15.30    6.10
  15  -1   4   12.70    8.50
  15  -2   0    3.70    5.50
  15  -2   1   14.30    3.60
  15  -2   2   84.49    4.10
  15  -2   3  114.29    9.80
  15  -2   4   91.69    9.60
  15  -3   0    8.40    5.80
  15  -3   1   12.40    4.20
  15  -3   2   14.80    6.50
  15  -3   3   52.79    8.70
  15  -3   4    0.00    8.80
  15  -4   0   12.80    9.20
  15  -4   1   20.70    6.50
  15  -4   2   14.30    6.50
  15  -4   3   80.39   10.20
  15  -4   4    6.90   11.70
  15  -5   0   27.80    9.00
  15  -5   1   11.20    6.40
  15  -5   2    2.00    4.10
  15  -5   3    0.00    9.20
  15  -6   0    1.60    8.60
  15  -6   1   24.60    6.80
  15  -6   2   32.10    4.00
  16   0   0  190.28    9.50
  16   0   1  153.08    6.30
  16   0   2   69.79    4.90
  16   0   3   11.80    4.90
  16   0   4    8.40    5.10
  16  -1   0    1.50    2.80
  16  -1   1    5.90    2.30
  16  -1   2    0.60    2.90
  16  -1   3   36.00    4.10
  16  -1   4    5.80    4.80
  16  -2   0   91.99    5.30
  16  -2   1    4.90    2.20
  16  -2   2  155.58    5.20
  16  -2   3   11.90    4.80
  16  -2   4  181.08    9.10
  16  -3   0    2.30    4.30
  16  -3   1  149.69    5.10
  16  -3   2   11.80    4.60
  16  -3   3  147.59    8.50
  16  -4   0   55.09    6.10
  16  -4   1   92.39    5.20
  16  -4   2    3.70    3.50
  16  -4   3    4.00    3.60
  16  -5   0   22.30    5.20
  16  -5   1   27.40    3.90
  16  -5   2   10.40    3.80
  17   0   0    0.00    7.70
  17   0   1    4.70    9.60
  17   0   2   61.79   11.80
  17   0   3   13.80   10.50
  17  -1   0    0.00    7.50
  17  -1   1    2.70    6.60
  17  -1   2   51.29    8.00
  17  -1   3    8.00    3.60
  17  -2   0    1.60    7.30
  17  -2   1   33.40    5.80
  17  -2   2    8.40    9.90
  17  -3   0    5.70    9.00
  17  -3   1    2.50    7.20
  17  -3   2   91.29    9.00
  17  -4   0    8.00    9.30
  17  -4   1   17.00    4.80
  18   0   0    4.40    5.40
  18   0   1  206.98   10.70
  18  -1   0  147.49    7.40
  18  -1   1    0.70    2.80
  18  -2   0    0.00    4.70
  18  -2   1   22.80    3.50
   0   0   0    0.00    0.00

_computing_structure_solution     'SHELXT 2014/5 (Sheldrick, 2014)'
;
_shelx_hkl_checksum              94921
loop_
_space_group_symop_operation_xyz
'x, y, z'
'-x+1/2, -y, z+1/2'
'-x, y+1/2, -z'
'x+1/2, -y+1/2, -z+1/2'
'-x, -y, -z'
'x-1/2, y, -z-1/2'
'x, -y-1/2, z'
'-x-1/2, y-1/2, z-1/2'
loop_
_atom_site_label
_atom_site_type_symbol
_atom_site_fract_x
_atom_site_fract_y
_atom_site_fract_z
_atom_site_U_iso_or_equiv
_atom_site_adp_type
_atom_site_occupancy
_atom_site_site_symmetry_order
_atom_site_calc_flag
_atom_site_refinement_flags_posn
_atom_site_refinement_flags_adp
_atom_site_refinement_flags_occupancy
P1 P 0.08777(6) 0.250000 0.15737(11) 0.01725(18) Uani 0.85 2 d S T P
Si1 Si 0.08777(6) 0.250000 0.15737(11) 0.01725(18) Uani 0.15 2 d S T P
S1 S 0.15251(4) 0.03757(7) 0.27752(9) 0.02667(16) Uani 1 1 d . . .
S2 S -0.06224(6) 0.250000 0.26951(12) 0.02230(18) Uani 1 2 d S T P
S3 S 0.10262(6) 0.250000 -0.17381(12) 0.0265(2) Uani 1 2 d S T P
Li1 Li 0.3310(4) 0.0322(5) 0.3899(9) 0.0451(19) Uani 0.976(19) 1 d . . .
Li2 Li 0.0056(8) 0.0477(11) 0.5580(14) 0.048(4) Uani 0.492(16) 1 d . . .
Li3 Li -0.081(4) 0.250000 -0.220(11) 0.14(3) Uani 0.28(5) 2 d S T .
loop_
_atom_site_aniso_label
_atom_site_aniso_U_11
_atom_site_aniso_U_22
_atom_site_aniso_U_33
_atom_site_aniso_U_23
_atom_site_aniso_U_13
_atom_site_aniso_U_12
P1 0.0182(4) 0.0202(3) 0.0133(3) 0.000 0.0009(3) 0.000
Si1 0.0182(4) 0.0202(3) 0.0133(3) 0.000 0.0009(3) 0.000
S1 0.0246(3) 0.0279(3) 0.0275(3) 0.0060(2) 0.0006(2) 0.0045(2)
S2 0.0192(3) 0.0255(3) 0.0222(4) 0.000 0.0021(3) 0.000
S3 0.0369(5) 0.0279(4) 0.0148(3) 0.000 0.0030(3) 0.000
Li1 0.037(3) 0.041(3) 0.058(3) 0.018(2) -0.007(2) -0.0006(18)
Li2 0.040(5) 0.062(7) 0.042(7) 0.028(5) 0.007(5) 0.001(5)
Li3 0.10(4) 0.10(4) 0.22(8) 0.000 -0.03(3) 0.000
loop_
_atom_type_symbol
_atom_type_description
_atom_type_scat_dispersion_real
_atom_type_scat_dispersion_imag
_atom_type_scat_source
Li Li -0.0003 0.0001 'International Tables Vol C Tables 4.2.6.8 and 6.1.1.4'
P P 0.1023 0.0942 'International Tables Vol C Tables 4.2.6.8 and 6.1.1.4'
S S 0.1246 0.1234 'International Tables Vol C Tables 4.2.6.8 and 6.1.1.4'
Si Si 0.0817 0.0704 'International Tables Vol C Tables 4.2.6.8 and 6.1.1.4'
loop_
_geom_angle_atom_site_label_1
_geom_angle_atom_site_label_2
_geom_angle_atom_site_label_3
_geom_angle
_geom_angle_site_symmetry_1
_geom_angle_site_symmetry_3
S3 P1 S1 108.62(3) . 7_565
S3 P1 S1 108.62(3) . .
S1 P1 S1 113.63(5) 7_565 .
S3 P1 S2 114.83(5) . .
S1 P1 S2 105.63(3) 7_565 .
S1 P1 S2 105.63(3) . .
S3 P1 Li1 54.67(10) . 2_554
S1 P1 Li1 133.36(9) 7_565 2_554
S1 P1 Li1 54.30(10) . 2_554
S2 P1 Li1 120.97(9) . 2_554
S3 P1 Li1 54.67(10) . 8_665
S1 P1 Li1 54.30(10) 7_565 8_665
S1 P1 Li1 133.36(9) . 8_665
S2 P1 Li1 120.97(9) . 8_665
Li1 P1 Li1 98.73(19) 2_554 8_665
P1 S1 Li2 92.1(2) . 5_556
P1 S1 Li1 120.82(10) . .
Li2 S1 Li1 134.4(2) 5_556 .
P1 S1 Li1 83.05(11) . 2_554
Li2 S1 Li1 114.7(2) 5_556 2_554
Li1 S1 Li1 100.79(13) . 2_554
P1 S1 Li3 124.5(11) . 5
Li2 S1 Li3 58.6(14) 5_556 5
Li1 S1 Li3 112.1(11) . 5
Li1 S1 Li3 71.7(16) 2_554 5
P1 S1 Li2 84.7(2) . .
Li2 S1 Li2 24.2(4) 5_556 .
Li1 S1 Li2 121.6(2) . .
Li1 S1 Li2 136.1(2) 2_554 .
Li3 S1 Li2 81.3(15) 5 .
P1 S2 Li1 113.84(11) . 6_556
P1 S2 Li1 113.84(11) . 4_455
Li1 S2 Li1 91.8(2) 6_556 4_455
P1 S2 Li2 84.5(2) . .
Li1 S2 Li2 90.9(2) 6_556 .
Li1 S2 Li2 158.3(2) 4_455 .
P1 S2 Li2 84.5(2) . 7_565
Li1 S2 Li2 158.3(2) 6_556 7_565
Li1 S2 Li2 90.9(2) 4_455 7_565
Li2 S2 Li2 79.0(4) . 7_565
P1 S2 Li2 82.7(2) . 3_556
Li1 S2 Li2 160.4(2) 6_556 3_556
Li1 S2 Li2 71.1(2) 4_455 3_556
Li2 S2 Li2 101.48(8) . 3_556
Li2 S2 Li2 22.8(4) 7_565 3_556
P1 S2 Li2 82.7(2) . 5_556
Li1 S2 Li2 71.1(2) 6_556 5_556
Li1 S2 Li2 160.4(2) 4_455 5_556
Li2 S2 Li2 22.8(4) . 5_556
Li2 S2 Li2 101.48(8) 7_565 5_556
Li2 S2 Li2 123.5(4) 3_556 5_556
P1 S2 Li3 75.4(11) . .
Li1 S2 Li3 63.5(6) 6_556 .
Li1 S2 Li3 63.5(6) 4_455 .
Li2 S2 Li3 135.7(5) . .
Li2 S2 Li3 135.7(5) 7_565 .
Li2 S2 Li3 114.2(3) 3_556 .
Li2 S2 Li3 114.2(3) 5_556 .
P1 S3 Li3 91.3(16) . .
P1 S3 Li1 82.85(12) . 8_665
Li3 S3 Li1 111.5(2) . 8_665
P1 S3 Li1 82.85(12) . 2_554
Li3 S3 Li1 111.5(2) . 2_554
Li1 S3 Li1 134.7(2) 8_665 2_554
P1 S3 Li2 125.10(19) . 1_554
Li3 S3 Li2 56.7(11) . 1_554
Li1 S3 Li2 146.9(2) 8_665 1_554
Li1 S3 Li2 72.3(2) 2_554 1_554
P1 S3 Li2 125.10(19) . 7_564
Li3 S3 Li2 56.7(11) . 7_564
Li1 S3 Li2 72.3(2) 8_665 7_564
Li1 S3 Li2 146.9(2) 2_554 7_564
Li2 S3 Li2 76.4(4) 1_554 7_564
S1 Li1 S2 114.79(17) . 6_656
S1 Li1 S1 111.30(19) . 2
S2 Li1 S1 120.2(2) 6_656 2
S1 Li1 S3 107.93(18) . 2
S2 Li1 S3 113.6(2) 6_656 2
S1 Li1 S3 84.91(13) 2 2
S1 Li1 Li3 124.2(10) . 6_656
S2 Li1 Li3 67.8(10) 6_656 6_656
S1 Li1 Li3 55.3(9) 2 6_656
S3 Li1 Li3 121.9(8) 2 6_656
S1 Li1 P1 120.49(16) . 2
S2 Li1 P1 124.27(17) 6_656 2
S1 Li1 P1 42.66(7) 2 2
S3 Li1 P1 42.48(7) 2 2
Li3 Li1 P1 86.5(8) 6_656 2
S1 Li1 Li2 119.3(3) . 2_554
S2 Li1 Li2 58.8(2) 6_656 2_554
S1 Li1 Li2 122.9(2) 2 2_554
S3 Li1 Li2 56.5(2) 2 2_554
Li3 Li1 Li2 108.7(11) 6_656 2_554
P1 Li1 Li2 87.6(2) 2 2_554
S1 Li1 Li1 88.98(10) . 7_565
S2 Li1 Li1 44.07(12) 6_656 7_565
S1 Li1 Li1 103.26(11) 2 7_565
S3 Li1 Li1 157.36(11) 2 7_565
Li3 Li1 Li1 52.9(8) 6_656 7_565
P1 Li1 Li1 139.37(10) 2 7_565
Li2 Li1 Li1 102.33(19) 2_554 7_565
Li2 Li2 S1 87.4(11) 5_556 5_556
Li2 Li2 Li3 143.8(18) 5_556 1_556
S1 Li2 Li3 63.3(11) 5_556 1_556
Li2 Li2 S2 87.2(10) 5_556 .
S1 Li2 S2 100.2(4) 5_556 .
Li3 Li2 S2 78.3(13) 1_556 .
Li2 Li2 S1 68.3(10) 5_556 .
S1 Li2 S1 155.8(4) 5_556 .
Li3 Li2 S1 138.5(11) 1_556 .
S2 Li2 S1 79.4(2) . .
Li2 Li2 S3 159.2(14) 5_556 1_556
S1 Li2 S3 109.1(3) 5_556 1_556
Li3 Li2 S3 56.9(12) 1_556 1_556
S2 Li2 S3 101.7(3) . 1_556
S1 Li2 S3 94.6(3) . 1_556
Li2 Li2 S2 70.0(9) 5_556 5_556
S1 Li2 S2 79.4(3) 5_556 5_556
Li3 Li2 S2 120.3(13) 1_556 5_556
S2 Li2 S2 157.2(4) . 5_556
S1 Li2 S2 91.7(3) . 5_556
S3 Li2 S2 99.9(3) 1_556 5_556
Li2 Li2 Li1 113.4(12) 5_556 2
S1 Li2 Li1 105.2(3) 5_556 2
Li3 Li2 Li1 95.4(14) 1_556 2
S2 Li2 Li1 147.7(4) . 2
S1 Li2 Li1 85.4(3) . 2
S3 Li2 Li1 51.17(19) 1_556 2
S2 Li2 Li1 50.10(18) 5_556 2
Li2 Li2 Li2 136.6(9) 5_556 7_565
S1 Li2 Li2 106.7(2) 5_556 7_565
Li3 Li2 Li2 47.4(11) 1_556 7_565
S2 Li2 Li2 50.5(2) . 7_565
S1 Li2 Li2 91.8(2) . 7_565
S3 Li2 Li2 51.8(2) 1_556 7_565
S2 Li2 Li2 151.7(2) 5_556 7_565
Li1 Li2 Li2 102.33(19) 2 7_565
Li2 Li2 Li3 25.3(13) 5_556 5
S1 Li2 Li3 108.1(9) 5_556 5
Li3 Li2 Li3 169.2(6) 1_556 5
S2 Li2 Li3 97.5(10) . 5
S1 Li2 Li3 48.6(9) . 5
S3 Li2 Li3 133.9(10) 1_556 5
S2 Li2 Li3 61.7(9) 5_556 5
Li1 Li2 Li3 93.3(10) 2 5
Li2 Li2 Li3 136.3(9) 7_565 5
Li2 Li3 Li2 85(2) 1_554 7_564
Li2 Li3 S3 66.4(14) 1_554 .
Li2 Li3 S3 66.4(14) 7_564 .
Li2 Li3 S1 58.1(6) 1_554 5
Li2 Li3 S1 136(3) 7_564 5
S3 Li3 S1 112.4(12) . 5
Li2 Li3 S1 136(3) 1_554 3
Li2 Li3 S1 58.1(6) 7_564 3
S3 Li3 S1 112.4(12) . 3
S1 Li3 S1 134(2) 5 3
Li2 Li3 Li1 170(2) 1_554 4_455
Li2 Li3 Li1 99.7(4) 7_564 4_455
S3 Li3 Li1 108.0(18) . 4_455
S1 Li3 Li1 120(2) 5 4_455
S1 Li3 Li1 53.1(8) 3 4_455
Li2 Li3 Li1 99.7(4) 1_554 6_556
Li2 Li3 Li1 170(2) 7_564 6_556
S3 Li3 Li1 108.0(18) . 6_556
S1 Li3 Li1 53.1(8) 5 6_556
S1 Li3 Li1 120(2) 3 6_556
Li1 Li3 Li1 74.2(16) 4_455 6_556
Li2 Li3 S2 121.7(16) 1_554 .
Li2 Li3 S2 121.7(16) 7_564 .
S3 Li3 S2 78.6(16) . .
S1 Li3 S2 99.8(16) 5 .
S1 Li3 S2 99.8(16) 3 .
Li1 Li3 S2 48.7(10) 4_455 .
Li1 Li3 S2 48.7(10) 6_556 .
Li2 Li3 Li2 10.8(6) 1_554 5
Li2 Li3 Li2 90(2) 7_564 5
S3 Li3 Li2 77.2(13) . 5
S1 Li3 Li2 50.0(7) 5 5
S1 Li3 Li2 133(2) 3 5
Li1 Li3 Li2 170.3(17) 4_455 5
Li1 Li3 Li2 96.59(18) 6_556 5
S2 Li3 Li2 126.7(11) . 5
Li2 Li3 Li2 90(2) 1_554 3
Li2 Li3 Li2 10.8(6) 7_564 3
S3 Li3 Li2 77.2(13) . 3
S1 Li3 Li2 133(2) 5 3
S1 Li3 Li2 50.0(7) 3 3
Li1 Li3 Li2 96.59(18) 4_455 3
Li1 Li3 Li2 170.3(17) 6_556 3
S2 Li3 Li2 126.7(11) . 3
Li2 Li3 Li2 92.5(17) 5 3
loop_
_geom_bond_atom_site_label_1
_geom_bond_atom_site_label_2
_geom_bond_distance
_geom_bond_site_symmetry_2
P1 S3 2.0425(10) .
P1 S1 2.0486(7) 7_565
P1 S1 2.0486(7) .
P1 S2 2.0747(11) .
P1 Li1 3.001(4) 2_554
P1 Li1 3.001(4) 8_665
S1 Li2 2.398(10) 5_556
S1 Li1 2.429(5) .
S1 Li1 2.455(5) 2_554
S1 Li3 2.52(2) 5
S1 Li2 2.578(10) .
S2 Li1 2.447(4) 6_556
S2 Li1 2.447(4) 4_455
S2 Li2 2.567(9) .
S2 Li2 2.567(9) 7_565
S2 Li2 2.727(9) 3_556
S2 Li2 2.727(9) 5_556
S2 Li3 3.01(7) .
S3 Li3 2.42(5) .
S3 Li1 2.468(5) 8_665
S3 Li1 2.468(5) 2_554
S3 Li2 2.642(9) 1_554
S3 Li2 2.642(9) 7_564
Li1 Li3 2.92(5) 6_656
Li1 Li2 3.018(11) 2_554
Li1 Li1 3.516(9) 7_565
Li2 Li2 1.059(19) 5_556
Li2 Li3 2.41(5) 1_556
Li2 Li2 3.266(18) 7_565
Li2 Li3 3.33(5) 5
