#------------------------------------------------------------------------------
#$Date: 2016-02-13 21:28:24 +0200 (Sat, 13 Feb 2016) $
#$Revision: 176429 $
#$URL: svn://www.crystallography.net/cod/cif/4/00/22/4002275.cif $
#------------------------------------------------------------------------------
#
# This file is available in the Crystallography Open Database (COD),
# http://www.crystallography.net/
#
# All data on this site have been placed in the public domain by the
# contributors.
#
data_4002275
loop_
_publ_author_name
'Vaqueiro, P.'
'Bold, M.'
'Powell, A.V.'
'Ritter, C.'
_publ_section_title
;
 Structural, magnetic, and electronic properties of vanadium-substituted
 nickel chromium sulfide
;
_journal_name_full               'Chemistry of Materials (1,1989-)'
_journal_page_first              1034
_journal_page_last               1041
_journal_volume                  12
_journal_year                    2000
_chemical_formula_sum            'Cr1.7 Ni S4 V0.3'
_chemical_name_systematic        'Ni Cr1.7 V0.3 S4'
_space_group_IT_number           12
_symmetry_space_group_name_Hall  '-I 2y'
_symmetry_space_group_name_H-M   'I 1 2/m 1'
_cell_angle_alpha                90
_cell_angle_beta                 91.654
_cell_angle_gamma                90
_cell_formula_units_Z            2
_cell_length_a                   5.8422
_cell_length_b                   3.3836
_cell_length_c                   11.026
_cell_volume                     217.867
_citation_journal_id_ASTM        CMATEX
_cod_data_source_file            Vaqueiro_CMATEX_2000_1005.cif
_cod_data_source_block           Cr1.7Ni1S4V0.3
_cod_original_cell_volume        217.8675
_cod_original_sg_symbol_Hall     '-C 2y (x,y,-x+z)'
_cod_original_formula_sum        'Cr1.7 Ni1 S4 V0.3'
_cod_database_code               4002275
loop_
_symmetry_equiv_pos_as_xyz
x,y,z
-x,y,-z
-x,-y,-z
x,-y,z
x+1/2,y+1/2,z+1/2
-x+1/2,y+1/2,-z+1/2
-x+1/2,-y+1/2,-z+1/2
x+1/2,-y+1/2,z+1/2
loop_
_atom_site_label
_atom_site_type_symbol
_atom_site_fract_x
_atom_site_fract_y
_atom_site_fract_z
_atom_site_occupancy
_atom_site_U_iso_or_equiv
Ni2 Ni+2 -0.023 0 0.2597 0.059 0.0
Cr2 Cr+3 -0.023 0 0.2597 0.791 0.0
V1 V+3 -0.023 0 0.2597 0.15 0.0
S2 S-2 0.336 0 0.8827 1 0.0
Cr1 Cr+3 0 0 0 0.119 0.0
S1 S-2 0.342 0 0.3645 1 0.0
Ni1 Ni+2 0 0 0 0.881 0.0
