#------------------------------------------------------------------------------
#$Date: 2019-10-29 23:30:26 +0200 (Tue, 29 Oct 2019) $
#$Revision: 220442 $
#$URL: file:///home/coder/svn-repositories/cod/cif/4/00/30/4003019.cif $
#------------------------------------------------------------------------------
#
# This file is available in the Crystallography Open Database (COD),
# http://www.crystallography.net/
#
# All data on this site have been placed in the public domain by the
# contributors.
#
data_4003019
loop_
_publ_author_name
'Wu, Ziyan'
'Zhang, Qiqi'
'Li, Binghan'
'Shi, Zhifang'
'Xu, Kaimin'
'Chen, Yi'
'Ning, Zhijun'
'Mi, Qixi'
_publ_section_title
;
 Stabilizing the CsSnCl3 Perovskite Lattice by B-Site Substitution for
 Enhanced Light Emission
;
_journal_issue                   14
_journal_name_full               'Chemistry of Materials'
_journal_page_first              4999
_journal_paper_doi               10.1021/acs.chemmater.9b00433
_journal_volume                  31
_journal_year                    2019
_chemical_formula_moiety         '2(Cl1.5 Cs0.5 Mn0.05 Sn0.45)'
_chemical_formula_sum            'Cl3 Cs Mn0.1 Sn0.9'
_chemical_formula_weight         351.58
_space_group_crystal_system      cubic
_space_group_IT_number           221
_space_group_name_Hall           '-P 4 2 3'
_space_group_name_H-M_alt        'P m -3 m'
_symmetry_space_group_name_Hall  '-P 4 2 3'
_symmetry_space_group_name_H-M   'P m -3 m'
_atom_sites_solution_primary     direct
_audit_creation_date             2019-01-13
_audit_creation_method
;
Olex2 1.2
(compiled 2018.05.29 svn.r3508 for OlexSys, GUI svn.r5506)
;
_cell_angle_alpha                90
_cell_angle_beta                 90
_cell_angle_gamma                90
_cell_formula_units_Z            1
_cell_length_a                   5.564(3)
_cell_length_b                   5.564(3)
_cell_length_c                   5.564(3)
_cell_measurement_reflns_used    433
_cell_measurement_temperature    180(2)
_cell_measurement_theta_max      25.645
_cell_measurement_theta_min      3.657
_cell_volume                     172.25(16)
_computing_cell_refinement       'SAINT v8.37A (Bruker, 2015)'
_computing_data_reduction        'SAINT v8.37A (Bruker, 2015)'
_computing_molecular_graphics    'Olex2 (Dolomanov et al., 2009)'
_computing_publication_material  'Olex2 (Dolomanov et al., 2009)'
_computing_structure_refinement  'ShelXL (Sheldrick, 2015)'
_computing_structure_solution    'XS (Sheldrick, 2008)'
_diffrn_ambient_temperature      180.0
_diffrn_measured_fraction_theta_full 0.980
_diffrn_measured_fraction_theta_max 0.982
_diffrn_measurement_device_type  'Bruker APEX-II CCD'
_diffrn_measurement_method       '\f and \w scans'
_diffrn_radiation_type           MoK\a
_diffrn_radiation_wavelength     0.71073
_diffrn_reflns_av_R_equivalents  0.0550
_diffrn_reflns_av_unetI/netI     0.0233
_diffrn_reflns_Laue_measured_fraction_full 0.980
_diffrn_reflns_Laue_measured_fraction_max 0.982
_diffrn_reflns_limit_h_max       7
_diffrn_reflns_limit_h_min       -6
_diffrn_reflns_limit_k_max       5
_diffrn_reflns_limit_k_min       -7
_diffrn_reflns_limit_l_max       6
_diffrn_reflns_limit_l_min       -7
_diffrn_reflns_number            886
_diffrn_reflns_point_group_measured_fraction_full 0.980
_diffrn_reflns_point_group_measured_fraction_max 0.982
_diffrn_reflns_theta_full        25.242
_diffrn_reflns_theta_max         26.554
_diffrn_reflns_theta_min         3.662
_diffrn_standards_number         0
_exptl_absorpt_coefficient_mu    9.759
_exptl_absorpt_correction_T_max  0.7454
_exptl_absorpt_correction_T_min  0.3777
_exptl_absorpt_correction_type   multi-scan
_exptl_absorpt_process_details
'SADABS-2016/2 (Bruker,2016/2) was used for absorption correction. wR2(int) was 0.1836 before and 0.0777 after correction. The Ratio of minimum to maximum transmission is 0.5067. The \l/2 correction factor is Not present.'
_exptl_crystal_colour            colourless
_exptl_crystal_colour_primary    colourless
_exptl_crystal_density_diffrn    3.388
_exptl_crystal_description       irregular
_exptl_crystal_F_000             154
_exptl_crystal_size_max          0.1
_exptl_crystal_size_mid          0.1
_exptl_crystal_size_min          0.1
_refine_diff_density_max         1.395
_refine_diff_density_min         -0.694
_refine_diff_density_rms         0.215
_refine_ls_extinction_coef       0.12(4)
_refine_ls_extinction_expression Fc^*^=kFc[1+0.001xFc^2^\l^3^/sin(2\q)]^-1/4^
_refine_ls_extinction_method     'SHELXL-2016/6 (Sheldrick 2016)'
_refine_ls_goodness_of_fit_ref   1.256
_refine_ls_hydrogen_treatment    undef
_refine_ls_matrix_type           full
_refine_ls_number_parameters     6
_refine_ls_number_reflns         56
_refine_ls_number_restraints     0
_refine_ls_restrained_S_all      1.256
_refine_ls_R_factor_all          0.0516
_refine_ls_R_factor_gt           0.0516
_refine_ls_shift/su_max          0.000
_refine_ls_shift/su_mean         0.000
_refine_ls_structure_factor_coef Fsqd
_refine_ls_weighting_details
'w=1/[\s^2^(Fo^2^)+(0.0710P)^2^+0.7925P] where P=(Fo^2^+2Fc^2^)/3'
_refine_ls_weighting_scheme      calc
_refine_ls_wR_factor_gt          0.1392
_refine_ls_wR_factor_ref         0.1392
_reflns_Friedel_coverage         0.000
_reflns_number_gt                56
_reflns_number_total             56
_reflns_threshold_expression     'I > 2\s(I)'
_cod_data_source_file            cm9b00433_si_002.cif
_cod_data_source_block           mo_wzy1012_180_fullscan_0m
_cod_original_cell_volume        172.3(2)
_cod_original_formula_sum        'Cl3 Cs Mn0.10 Sn0.90'
_cod_database_code               4003019
_shelx_shelxl_version_number     2016/6
_shelx_space_group_comment
;
The symmetry employed for this shelxl refinement is uniquely defined
by the following loop, which should always be used as a source of
symmetry information in preference to the above space-group names.
They are only intended as comments.
;
_olex2_refinement_description
;
1. Uiso/Uaniso restraints and constraints
Uiso(Sn2) = Uiso(Mn1)
2. Others
 Fixed Sof: Sn2(0.01875) Mn1(0.00208)
;
_shelx_res_file
;
TITL mo_WZY1012_180_fullscan_0m in Pm-3m #221
    mo_wzy1012_180_fullscan_0m.res
    created by SHELXL-2016/6 at 20:58:51 on 13-Jan-2019
REM reset to Pm-3m #221
CELL 0.71073 5.56447 5.56447 5.56447 90 90 90
ZERR 1 0.00256 0.00256 0.00256 0 0 0
LATT 1
SYMM -Y,+X,+Z
SYMM -X,-Y,+Z
SYMM +Y,-X,+Z
SYMM +X,-Z,+Y
SYMM +X,-Y,-Z
SYMM +X,+Z,-Y
SYMM +Z,+Y,-X
SYMM -X,+Y,-Z
SYMM -Z,+Y,+X
SYMM +Z,+X,+Y
SYMM +Y,+Z,+X
SYMM -Y,-Z,+X
SYMM +Z,-X,-Y
SYMM -Y,+Z,-X
SYMM -Z,-X,+Y
SYMM -Z,+X,-Y
SYMM +Y,-Z,-X
SYMM +Y,+X,-Z
SYMM -Y,-X,-Z
SYMM -X,+Z,+Y
SYMM -X,-Z,-Y
SYMM +Z,-Y,+X
SYMM -Z,-Y,-X
SFAC Cl Sn Cs Mn
UNIT 3 0.9 1 0.1
EADP Sn2 Mn1

L.S. 4 0 0
PLAN  20
TEMP -93.15
fmap 2 53
acta
REM <olex2.extras>
REM <HklSrc "%.\\mo_WZY1012_180_fullscan_0m.hkl">
REM </olex2.extras>

WGHT    0.071000    0.792500
EXTI    0.120183
FVAR       0.38574
CS1   3    0.500000    0.500000    0.500000    10.02083    0.08565
PART 1
SN2   2    0.000000    0.000000    0.000000    10.01875    0.04611
PART 0
PART 2
MN1   4    0.000000    0.000000    0.000000    10.00208    0.04611
PART 0
CL1   1    0.500000    0.000000    0.000000    10.06250    0.14990    0.21820 =
         0.21820    0.00000    0.00000    0.00000
HKLF 4




REM  mo_WZY1012_180_fullscan_0m in Pm-3m #221
REM R1 =  0.0516 for      56 Fo > 4sig(Fo)  and  0.0516 for all      56 data
REM      6 parameters refined using      0 restraints

END

WGHT      0.0710      0.7923

REM Highest difference peak  1.395,  deepest hole -0.694,  1-sigma level  0.215
Q1    1   0.0000  0.5000  0.5000  10.06250  0.05    1.40
Q2    1   0.5000  0.0000 -0.0952  10.25000  0.05    0.79
Q3    1   0.5000  0.1387  0.0000  10.25000  0.05    0.66
Q4    1   0.0000  0.1874  0.0000  10.12500  0.05    0.65
Q5    1   0.5000  0.2459  0.5000  10.12500  0.05    0.40
Q6    1   0.3455  0.3455  0.5000  10.25000  0.05    0.28
Q7    1   0.5000 -0.2940 -0.1211  10.50000  0.05    0.24
Q8    1   0.6115  0.6115  0.3186  10.50000  0.05    0.22
Q9    1   0.0000  0.0000  0.0926  10.12500  0.05    0.17
Q10   1   0.5593  0.4407  0.2791  10.50000  0.05    0.17
;
_shelx_res_checksum              48591
_shelx_hkl_file
;
   0   0  -1   11.66    0.73
   0   0   1   10.33    0.72
   1   0   0   10.14    0.63
  -1   0   0    9.44    0.63
   0   1   1  542.87   26.78
   1   0   1  428.36   26.73
   0  -1  -1  501.53   26.77
   0  -1   1  514.72   26.70
  -1   0   1  506.88   26.72
  -1  -1   0  500.07   26.72
   1   1   0  505.65   26.72
  -1   0  -1  471.36   26.74
   1   0  -1  520.31   26.72
   0   1  -1  495.98   26.69
  -1   0  -1  490.46   26.72
  -1  -1  -1   98.25    5.49
  -1   1   1   84.81    5.45
   1   1  -1  103.07    5.43
  -1  -1  -1  109.81    5.51
  -1  -1   1  103.97    5.44
   1  -1  -1   98.60    5.46
   0   0  -2 1000.00   51.08
   0   0   2  953.95   51.07
   0  -2   0  902.74   51.02
  -1   0  -2    8.78    0.90
   0   2  -1    7.42    0.62
   0  -2   1    7.36    0.65
   1   0  -2    9.10    0.80
  -2  -1   0    7.52    0.73
   2   1   0    7.91    0.72
   1   0   2    6.80    0.90
   0  -2  -1    8.20    0.79
  -1   0   2    7.09    0.80
   2   0   1    6.59    0.63
  -2   0  -1    6.53    0.90
  -2   0   1    7.05    0.67
  -2   0  -1    7.45    0.62
   0   1  -2    7.59    0.67
   0   1   2    5.98    0.98
   0  -1  -2    7.60    1.05
   2   0  -1    7.84    0.66
   2   0   1    7.28    0.94
   1   2   0    7.93    0.73
   0  -1   2    7.25    0.72
  -1  -2   0    7.47    0.73
   1  -1   2  386.88   20.10
   2   1  -1  376.37   20.11
  -1  -1  -2  361.57   20.22
  -2  -1  -1  374.77   20.13
  -1   1   2  345.79   20.16
   1   1  -2  374.61   20.11
  -2  -1  -1  393.96   20.16
   1   2  -1  372.23   20.10
  -1  -2  -1  364.27   20.16
   1  -1  -2  383.74   20.16
   1   1   2  346.64   20.20
   2   1   1  346.99   20.11
  -1  -1   2  369.28   20.11
   1  -2  -1  395.11   20.12
  -1   1  -2  379.59   20.07
   2  -1  -1  397.99   20.08
  -1  -2   1  385.36   20.11
  -2  -1   1  368.90   20.11
   0  -2   2  525.03   27.69
   0   2  -2  501.92   27.66
  -2   0   2  515.93   27.71
   0  -2  -2  503.11   27.81
  -2   0  -2  497.35   27.75
  -2  -2   0  523.15   27.72
   2   0   2  462.30   27.75
  -2   0  -2  513.05   27.71
   2   2   0  516.67   27.72
   0   2   2  566.30   27.84
   2   0  -2  542.99   27.72
   2   1  -2    7.47    0.82
  -2  -1  -2    5.91    0.74
  -2  -2  -1    6.06    1.00
  -1   2   2    7.35    1.13
   2   2  -1    6.51    0.78
   2  -1   2    6.65    0.88
  -2   1   2    7.17    1.02
  -2  -1  -2    6.61    1.17
  -1  -2  -2    6.40    0.77
   1  -2   2    6.17    0.67
   1   2  -2    6.25    0.76
  -2  -2   1    6.15    0.84
  -2  -1   2    6.50    0.84
   1  -2  -2    6.43    0.83
   2  -1  -2    7.45    0.89
  -1  -2   2    5.85    0.84
   2   1   2    5.48    0.82
   2  -2  -1    5.68    0.63
   2   2  -2  302.16   16.31
  -2  -2  -2  278.04   16.39
   2  -2   2  301.95   16.22
   2  -2  -2  314.18   16.35
  -2  -2   2  310.48   16.33
   0  -3   0    2.99    0.46
   3   0   0    2.64    0.38
  -3   0   0    2.86    0.36
   0   0  -3    2.75    0.54
   0   0   3    2.27    0.55
   0  -3   1  216.02   12.10
   1   0  -3  238.86   12.22
   1   0   3  208.74   12.22
  -1   0   3  223.60   12.21
   3  -1   0  215.39   12.06
  -3  -1   0  224.17   12.15
   3   1   0  236.86   12.16
  -1   0  -3  229.59   12.25
  -2   0   3    1.92    0.56
  -3  -2   0    2.08    0.56
   0  -3  -2    1.27    0.66
   2   0   3    2.14    0.70
   0  -3   2    2.38    0.48
  -2   0  -3    2.48    0.69
   0   3  -2    2.67    0.42
  -3   0   1  210.04   11.79
  -3   0  -1  216.95   11.86
   0   1   3  198.37   11.94
   3   0   1  216.00   11.80
   0  -1   3  229.20   11.87
   0   1  -3  237.35   11.87
   3   0  -1  221.92   11.81
  -3   0  -1  213.24   11.77
   0  -1  -3  217.81   11.98
  -1  -3   0  220.37   11.85
  -1  -1  -3    3.10    0.79
  -1   1   3    2.57    0.66
   3  -1   1    4.32    0.58
  -3  -1  -1    2.24    0.50
  -3  -1  -1    2.90    0.56
   1  -1   3    2.78    0.56
   3   1  -1    4.92    0.79
   1   3  -1    4.63    0.75
  -1  -3  -1    2.64    0.63
   1   1  -3    5.08    0.86
   1   1   3    3.97    0.80
  -1  -1   3    2.52    0.56
  -1   1  -3    4.90    0.84
  -1  -3   1    4.97    0.83
  -3  -1   1    4.62    0.82
   3   1   1    2.89    0.49
   1  -1  -3    3.16    0.64
  -3  -2  -1  169.83    9.31
  -2  -1  -3  175.58    9.47
  -3  -2  -1  177.72    9.31
   2  -1   3  160.97    9.27
  -2   1   3  159.07    9.33
  -1  -3  -2  161.02    9.33
   1   3  -2  160.33    9.20
   1  -3   2  166.80    9.15
  -3  -2   1  172.78    9.28
  -1  -3   2  171.34    9.25
  -2  -1   3  164.91    9.28
   2   1   3  168.47    9.44
  -2   1  -3  183.43    9.21
   1  -3  -2  161.50    9.36
   2  -1  -3  178.52    9.32
  -3   0   2    2.40    0.52
   0   2   3    1.37    0.86
   0  -2   3    2.36    0.54
  -2  -3   0    1.52    0.52
   3   0  -2    2.96    0.51
  -3   0  -2    2.59    0.66
   3   0   2    1.97    0.81
   0   2  -3    2.44    0.45
  -3   0  -2    1.31    0.45
   3  -1   2  148.88    9.07
  -3  -1  -2  160.53    9.16
  -3  -1  -2  168.67    9.11
   3   1  -2  162.07    9.05
   1  -2   3  163.01    9.02
   1   2  -3  169.13    9.05
   2   3  -1  166.78    9.05
  -3   1   2  165.34    9.07
  -2  -3  -1  171.77    9.16
  -1   2   3  159.72    9.24
   2  -3  -1  160.46    9.03
  -3  -1   2  161.51    9.05
  -2  -3   1  169.44    9.07
   3  -1  -2  173.87    9.04
   1   2   3  170.80    9.29
  -1   2  -3  160.13    8.95
   1  -2  -3  172.67    9.25
  -1  -2   3  168.02    9.08
  -2  -2  -3    3.21    0.83
  -2   2   3    2.41    0.91
  -2  -2  -3    1.19    0.91
  -3  -2  -2    1.23    0.80
   2  -2   3    2.21    0.58
  -3  -2   2    2.08    0.65
  -2  -3   2    3.35    0.71
  -2  -2   3    0.81    0.66
   2  -3  -2    2.61    0.87
   3  -2  -2    2.87    0.63
  -3   0  -3  104.05    5.95
   0   3  -3  100.60    5.80
  -3   0   3  102.28    5.95
   3   0   3  108.51    6.14
  -3   0  -3  101.22    6.02
  -3  -3   0  109.64    6.00
   0  -3   3  101.91    5.88
   3   3   0  113.11    5.95
   2  -3   3   72.57    4.21
   3   3  -2   79.31    4.40
   3  -2   3   72.78    4.35
  -3  -2  -3   69.08    4.61
  -3   2   3   65.65    4.59
  -2  -3  -3   69.35    4.63
  -3  -3  -2   78.00    4.55
   2   3  -3   71.70    4.37
  -3  -2  -3   78.49    4.70
   3   2  -3   80.07    4.41
  -2  -3   3   66.42    5.05
   3  -3  -2   84.54    4.41
   3   3  -3    5.36    1.03
  -3  -3  -3    2.94    1.16
  -3  -3  -3    6.47    1.72
   3  -3   3    4.66    0.82
  -4   0   0  206.66   10.95
   4   0   0  205.99   10.94
  -4   0   0  188.14   10.89
   0   0   4  204.11   11.11
   0  -4   0  201.43   10.97
   4  -1   0    5.32    0.58
   4   1   0    3.43    0.77
  -4  -1   0    4.77    0.70
   1   0   4    5.58    0.97
   0  -4   1    6.04    0.65
   1   0  -4    7.50    1.30
  -1   0   4    5.80    0.87
   0  -4  -1    6.33    0.96
   2   0  -4  133.78    7.26
   0  -4   2  127.90    7.08
  -2   0   4  124.83    7.25
  -4  -2   0  131.63    7.21
   2   0   4  112.41    7.32
   4   2   0  137.52    7.20
  -3   0  -4    1.19    0.98
   4   3   0    2.99    1.41
  -4  -3   0    2.14    1.00
  -3   0   4    2.91    1.00
   0  -4  -3    2.12    1.17
   3   0  -4    4.40    1.66
   0  -4   3    1.62    0.73
   1  -4   0    6.76    0.74
   0   1  -4    5.19    0.89
   0   1   4    4.68    0.95
  -4   0  -1    4.60    0.81
  -1  -4   0    5.76    0.77
   4   0   1    6.35    0.72
  -4   0   1    5.50    0.98
   0  -1   4    6.48    0.85
   4  -1   1  127.50    7.06
  -1  -1  -4  126.28    7.46
   1  -4   1  124.52    7.05
  -1  -4  -1  132.30    7.32
  -1   1   4  119.87    7.36
  -4  -1  -1  130.20    7.19
  -4  -1  -1  130.18    7.23
   1   1  -4  124.80    7.28
   1  -1   4  133.82    7.28
   1  -1  -4  135.64    7.37
  -1  -1   4  133.65    7.28
  -4  -1   1  126.48    7.17
   4  -1  -1  123.24    7.09
  -1  -4   1  132.54    7.17
   1   1   4  123.36    7.39
  -1   1  -4  145.05    7.29
   1  -4   2    5.45    0.63
   4   2  -1    4.32    0.76
   2   1  -4    5.44    0.89
  -4  -2  -1    4.44    0.94
  -1  -4  -2    5.53    1.14
  -2   1   4    5.10    1.04
   2  -1   4    4.11    0.94
   2  -1  -4    4.97    0.94
   2   1   4    6.32    1.41
  -2  -1   4    3.33    0.95
  -2   1  -4    4.38    0.85
  -1  -4   2    4.70    0.76
  -4  -2   1    5.32    0.82
   4  -2  -1    4.11    0.59
   4   2   1    3.45    0.81
  -4  -3  -1   51.88    3.85
  -3  -1  -4   68.02    4.11
   4   3  -1   51.90    3.70
   3  -1   4   53.55    3.81
   3   1  -4   54.73    3.94
  -1  -4  -3   51.57    4.93
  -3  -1  -4   57.66    3.87
   1  -4   3   56.74    3.35
  -3   1   4   56.04    3.82
   4   3   1   54.00    3.73
   3   1   4   59.89    4.13
  -4  -3   1   53.78    3.75
   3  -1  -4   66.56    4.10
  -1  -4   3   45.61    3.80
  -3  -1   4   52.84    3.68
  -3   1  -4   59.32    3.47
   0  -2   4  124.41    7.22
  -2  -4   0  131.79    7.27
  -4   0  -2  124.79    7.20
   0   2  -4  126.97    7.19
  -4   0   2  123.29    7.15
   0  -2  -4  135.78    7.57
   0   2   4  134.78    7.50
  -4  -1  -2    3.90    0.88
   1  -2   4    5.28    0.83
  -1   2   4    6.05    1.26
  -2  -4  -1    5.20    1.21
  -1  -2  -4    4.54    1.21
   2   4  -1    3.77    0.77
  -2  -4   1    4.43    0.90
   1   2   4    4.24    1.26
  -1   2  -4    4.62    0.74
  -4  -1   2    3.95    0.78
   1  -2  -4    5.60    1.17
  -1  -2   4    4.39    0.91
   4   2  -2   91.40    5.41
   2  -2   4   74.64    4.77
  -2  -4  -2   88.67    5.25
  -4  -2  -2   78.02    4.98
   2   2  -4   75.78    4.85
  -4  -2  -2   72.25    4.89
   2   4  -2   81.04    4.71
  -2  -4  -2   84.26    5.19
  -2  -2  -4   82.97    5.51
  -2   2   4   81.61    5.17
   2  -2  -4   82.78    5.04
   4  -2  -2   83.18    4.64
  -2  -4   2   78.19    4.90
   2  -4  -2   76.54    4.97
  -4  -2   2   87.90    5.32
   4   3  -2    1.82    0.94
  -4  -3  -2    2.04    1.10
  -3  -2  -4    1.71    1.36
   2   4  -3    2.31    0.95
  -3  -2  -4    2.68    1.37
   2  -4   3    2.14    0.68
  -3   2   4    1.61    1.41
   3  -2   4    0.89    1.05
  -2  -4  -3    1.84    1.24
   3   2  -4    0.91    0.93
  -2  -4   3    2.06    0.98
   3  -2  -4    2.86    1.95
   0  -3   4    2.50    1.40
   4   0   3    3.36    1.32
   4   0  -3    2.17    0.83
   3   4   0    3.15    1.33
  -4   0  -3    2.32    0.90
  -4   0   3    2.71    0.88
   0   3   4    1.68    1.41
  -4   0  -3    2.47    0.81
   0  -3  -4    3.42    2.11
   4   1  -3   60.20    4.48
  -1   3   4   60.38    4.46
   1  -3   4   52.57    3.62
  -4  -1  -3   57.83    3.94
   4  -1   3   52.45    4.02
   3   4  -1   64.31    4.37
  -1  -3  -4   54.92    4.36
  -4   1   3   56.93    3.89
   4  -1  -3   62.68    3.68
  -1  -3   4   53.41    3.79
   1  -3  -4   73.23    5.07
  -4  -1   3   67.22    3.96
  -3  -4  -2    3.36    1.19
   2  -3   4    2.71    0.88
   3   4  -2    2.89    1.02
   4  -2   3    1.62    1.14
  -4  -2  -3    0.67    1.64
  -2   3   4    3.85    1.55
   2   3  -4    1.91    1.42
  -4  -2  -3    4.84    1.90
  -2  -3  -4    2.26    1.27
   4   2  -3    3.09    0.92
   3  -4  -2    0.91    1.20
  -2  -3   4    0.30    1.19
  -4  -2   3    5.34    1.64
   2  -3  -4    0.74    2.45
  -3  -4  -3   21.53    3.72
  -3  -3  -4   26.43    2.98
   4   3  -3   26.34    2.55
   3   3  -4   27.02    2.61
   3  -3   4   27.20    2.44
  -4  -3  -3   25.23    2.95
   3   4  -3   29.41    2.53
  -3  -3  -4   34.23    3.36
  -3  -4  -3   19.37    2.88
   3  -3  -4   22.10    3.86
  -3  -4   3   21.54    2.98
  -4  -3   3   33.80    2.81
   0  -4   4   31.29    2.59
   4   4   0   32.22    2.85
  -4   0  -4   31.34    2.81
  -4   0   4   28.82    3.35
  -4  -4   0   27.62    3.12
   0  -4  -4   28.56    3.58
   4   0  -4   35.57    2.79
   4   0   4   36.09    3.47
   0   4  -4   37.23    2.41
  -4  -4  -1    2.00    1.23
   1  -4   4    1.40    1.17
   4   1  -4    2.38    1.08
  -4  -1  -4    3.55    1.49
   4  -1   4    3.89    1.58
  -4  -1  -4    5.22    1.67
  -1  -4  -4    2.68    1.48
  -4  -4  -1    4.05    1.41
  -4   1   4    0.63    1.40
   4   4  -1    4.01    1.13
   4  -1  -4    2.06    1.12
  -1  -4   4    1.83    1.07
  -4  -4   1    2.35    1.41
   1  -4  -4    3.79    1.73
  -2  -4  -4   15.82    2.63
   4   2  -4   21.52    2.49
   2  -4   4   23.67    2.79
   4   4  -2   20.93    2.41
  -2  -4  -4   18.34    2.96
  -4  -4  -2   17.98    2.80
  -4  -2  -4   22.63    2.98
   2   4  -4   22.73    2.44
  -4  -4   2   24.12    2.70
  -2  -4   4   21.28    2.72
   2  -4  -4   21.04    3.62
   4  -2  -4   21.03    2.49
  -4  -2   4   22.11    2.76
  -3  -4  -4    1.05    1.67
   3  -4   4    1.29    1.36
   4  -3   4    2.76    1.85
   4   3  -4    2.18    1.37
  -4  -4  -3   -2.26    1.56
   3   4  -4    3.02    1.43
  -4  -3  -4    2.67    2.15
  -3  -4  -4    2.56    2.10
   4   4  -3    2.94    1.40
  -4  -4  -3    1.00    2.18
  -4  -3  -4    0.77    1.56
  -4  -3   4    2.23    1.59
   4  -3  -4    1.90    1.55
  -3  -4   4    1.25    1.54
   3  -4  -4    1.09    2.00
   4  -4  -3    4.38    1.64
  -4  -4   3    1.48    1.56
  -4  -4  -4    2.12    2.02
  -4  -4  -4    8.63    2.71
   4  -4   4    9.53    2.91
   4   4  -4    6.19    1.90
   4  -4  -4   12.48    2.29
   0  -5   0    3.59    0.85
   0   0  -5    2.93    1.41
   0  -5   1   59.81    3.54
  -1   0  -5   54.22    4.13
   0  -5  -1   54.80    3.83
   5  -1   0   67.77    3.47
   1   0   5   50.77    4.02
   5   1   0   67.75    3.69
  -5  -1   0   62.03    3.67
  -1   0   5   50.56    4.49
   0  -5   2    2.98    0.78
   0  -5  -2    2.95    1.45
  -5  -2   0    3.58    1.69
   5   2   0    2.43    1.01
   2   0   5    1.89    1.29
   2   0  -5    2.14    1.17
  -2   0  -5    3.84    1.42
   0  -5  -2    4.30    1.23
   5  -2   0    1.64    0.61
   3   0   5   20.95    3.08
   0  -5   3   26.26    2.19
  -3   0  -5   26.94    3.20
   5   3   0   24.00    2.53
   0  -5  -3   25.82    3.05
  -3   0  -5   20.53    2.79
   3   0  -5   24.28    2.70
   5   4   0    1.33    1.49
  -4   0  -5    0.96    1.54
   4   0  -5    1.94    1.40
  -5  -4   0    2.33    1.76
   0  -5   4    2.08    1.22
  -4   0   5    2.67    1.59
   0  -5  -4   -1.48    1.96
   4   0   5    1.49    1.90
  -5   0   1   56.91    3.63
   1  -5   0   56.58    3.62
   0  -1  -5   65.61    4.58
   5   0  -1   59.86    3.59
   0   1  -5   66.75    4.06
   0  -1   5   58.06    3.94
  -1   1   5    3.22    1.29
  -1  -5  -1    3.68    1.24
   5   1  -1    3.22    1.05
  -5  -1  -1    4.47    0.93
   1  -5   1    3.27    0.66
   1   1  -5    3.43    1.44
  -1  -1  -5    2.80    1.54
   1  -1   5    3.45    1.14
  -5  -1   1    2.76    0.86
   1  -1  -5    4.23    1.32
   5   1   1    3.32    0.92
  -1  -5   1    1.29    1.55
  -5  -2  -1   41.92    3.96
  -1  -5  -2   36.17    3.40
  -2   1   5   35.43    3.47
  -1  -5  -2   47.19    3.71
   5   2  -1   41.32    2.89
   5  -2   1   38.72    2.47
   1  -5   2   41.54    2.57
  -2  -1  -5   39.16    3.71
   2   1  -5   36.25    3.13
   2  -1   5   40.64    3.25
  -5  -2  -1   39.58    3.15
   5   2   1   38.52    3.07
   2  -1  -5   37.43    3.32
   5  -2  -1   43.84    2.51
   2   1   5   32.77    4.14
  -5  -2   1   35.67    3.11
  -1  -5   2   43.64    2.78
   5   3  -1    3.45    1.19
  -3   1   5    3.94    1.74
  -3  -1  -5    3.41    1.61
  -3  -1  -5    3.70    1.75
   1  -5   3    3.22    1.00
  -1  -5  -3    2.87    1.47
   3   1  -5    1.84    1.31
  -5  -3  -1    3.33    1.37
   3  -1   5    4.00    1.44
  -1  -5  -3    0.90    1.68
   3  -1  -5    2.62    1.29
  -3   1  -5   -0.35    1.33
   3   1   5    2.33    1.62
  -3  -1   5    5.08    1.35
  -3   1  -5    3.12    1.15
   5   3   1    0.86    1.32
  -5  -3   1    1.79    1.32
   1  -5  -3    1.03    2.12
  -4  -1  -5   10.91    2.02
  -5  -4  -1   11.80    1.88
   1  -5   4    8.55    1.37
   5   4  -1   10.37    1.67
  -5  -4  -1   11.89    2.25
  -1  -5  -4    8.22    2.06
  -1  -5  -4   12.01    2.36
   4  -1   5    9.48    2.09
   4   1  -5    9.63    1.78
   4  -1  -5   11.95    1.73
   1  -5  -4   10.20    2.29
  -5  -4   1    5.86    1.94
   4   1   5    6.77    2.16
  -1  -5   4    8.56    1.56
  -4  -1   5    7.70    1.80
   0  -2   5    1.66    1.00
   5   0  -2    2.53    0.92
  -2  -5   0    2.39    1.01
  -5   0   2    1.59    0.91
   0   2  -5    2.87    1.13
   0  -2  -5    1.53    1.41
   1   2  -5   47.96    3.56
  -2  -5  -1   38.37    3.30
   1  -2   5   40.47    2.99
  -1  -2  -5   37.60    3.66
   5   1  -2   38.30    2.86
  -1   2   5   36.48    3.68
  -5  -1  -2   35.85    2.97
   2  -5  -1   37.82    2.84
  -2  -5   1   42.11    2.94
   1  -2  -5   37.38    3.62
  -5  -1   2   44.12    2.92
  -1  -2   5   34.10    3.13
  -2  -5  -2    1.54    1.36
   2   2  -5    2.93    1.19
  -2   2   5    2.57    1.63
   5   2  -2    1.06    1.04
  -2  -5  -2    0.50    1.53
   2   5  -2    2.31    1.11
  -2  -2  -5    1.80    1.65
   2  -2   5    3.39    1.19
  -5  -2  -2    3.39    1.77
  -5  -2   2    4.18    1.84
  -2  -5   2    0.98    1.07
   2  -2  -5    1.59    1.49
  -2  -5  -3   12.83    2.14
   3  -2   5   11.35    1.76
  -5  -3  -2   18.92    3.32
   2  -5   3   13.25    2.02
   5   3  -2   17.91    2.40
   2   5  -3   16.39    2.71
  -3  -2  -5   18.98    3.07
  -3   2   5   10.37    2.60
  -2  -5  -3   16.22    2.86
  -3  -2  -5   14.68    2.08
  -5  -3  -2   12.76    1.92
   3   2  -5   20.25    2.56
   2  -5  -3   21.36    3.76
   3  -2  -5   13.42    1.90
  -2  -5   3   15.45    2.43
  -5  -3   2   15.82    2.74
  -3  -2   5   16.04    2.87
   4   2  -5    1.19    1.55
  -2  -5  -4    3.80    2.36
  -4  -2  -5    2.70    2.01
  -4  -2  -5    1.09    2.16
   5   4  -2    1.17    1.62
  -5  -4  -2   -1.98    2.35
   2   5  -4    0.68    1.68
  -4   2   5    5.95    4.49
   4  -2   5   -0.59    1.86
  -2  -5  -4    0.87    1.94
   2  -5   4    1.73    1.29
  -5  -4  -2   -0.86    1.83
  -5  -4   2   -0.19    1.93
  -2  -5   4   -0.48    1.58
  -4  -2   5    1.47    1.97
   4  -2  -5   -1.80    1.60
   2  -5  -4    1.30    2.39
   0  -3   5   24.04    2.55
   5   0  -3   21.44    2.38
   0  -3  -5   22.46    3.60
  -5   0   3   22.92    2.53
  -3  -5   0   24.84    2.84
  -3  -5  -1    2.20    1.56
  -1   3   5    5.36    2.06
   5   1  -3    0.56    1.02
   3   5  -1    0.86    1.24
  -5  -1  -3    3.10    1.40
  -1  -3  -5    2.31    1.72
   1  -3   5    1.77    1.11
   1   3  -5    4.50    1.44
  -3  -5   1    3.42    1.23
  -5  -1   3    3.11    1.25
   1  -3  -5    4.18    1.84
  -1  -3   5    2.01    1.26
   5  -1  -3    0.20    1.03
   1   3   5    5.64    1.90
  -5  -2  -3   24.32    4.01
   2   3  -5   18.21    2.51
  -2   3   5   20.83    3.35
   5  -2   3   14.35    2.11
   5   2  -3   15.15    2.39
  -5  -2  -3   15.71    2.71
  -2  -3  -5   19.95    3.19
  -3  -5  -2   14.07    2.20
  -3  -5  -2   11.13    1.82
   3   5  -2   17.22    2.40
   2  -3   5   15.13    2.34
  -5  -2   3   17.56    2.62
  -3  -5   2   17.44    2.58
   2  -3  -5   12.34    2.29
  -2  -3   5   22.69    2.93
   5  -2  -3   17.94    2.99
  -3  -5  -3    2.56    1.82
  -3  -3  -5    6.40    2.19
  -3  -3  -5    6.03    1.89
   3  -3   5    1.55    1.53
   5  -3   3    2.19    2.09
  -5  -3  -3    0.28    2.19
  -3  -5  -3    2.00    2.14
   3   5  -3    2.30    1.49
   3   3  -5    3.13    1.52
  -3   3   5    4.84    2.55
   5   3  -3    4.00    1.49
  -5  -3  -3   -0.32    1.62
  -3  -5   3    0.35    1.65
   5  -3  -3    0.14    1.84
   3  -3  -5    0.54    2.12
  -5  -3   3    5.76    1.69
  -3  -3   5    1.46    1.73
   0  -4  -5    1.41    1.97
  -5   0   4    2.37    1.67
  -4  -5   0    3.07    1.81
   0   4  -5   -2.21    1.31
   0  -4   5    1.02    1.30
   5   0  -4    0.04    1.31
   4   5  -1   15.22    2.60
  -4  -5  -1    7.62    1.84
  -1  -4  -5    5.25    2.01
   5   1  -4    8.28    1.57
  -5  -1  -4    7.63    2.74
   1   4  -5   11.71    1.87
   5  -1   4    9.45    2.19
  -5  -1  -4   10.82    1.98
  -4  -5  -1    9.61    2.32
  -5   1   4    8.15    2.03
   1  -4   5    9.39    1.50
   1  -4  -5   10.70    2.49
   5  -1  -4    6.68    1.46
  -5  -1   4    9.69    1.75
  -1  -4   5    9.57    1.74
  -4  -5   1    8.12    1.90
  -4  -5  -2   -0.56    1.79
  -2  -4  -5    1.88    1.88
   2   4  -5    1.25    1.74
   5  -2   4    3.12    2.03
  -4  -5  -2    4.21    2.34
  -2  -4  -5   -0.78    2.35
  -5  -2  -4    3.86    2.31
   4   5  -2   -1.41    1.61
   5   2  -4    1.24    1.63
   2  -4   5    2.24    1.43
  -5  -2  -4    2.41    1.79
  -5  -2   4    0.93    1.79
   2  -4  -5   -0.16    2.40
  -2  -4   5    1.16    1.89
   5  -2  -4    1.72    1.43
  -4  -5   2   -0.71    1.76
   0   0  -6   18.25    3.39
   0  -6   0   24.86    2.47
   0   0   6   28.52    3.21
   6   0   0   25.30    2.90
   0  -6  -1   -0.53    1.36
  -1   0  -6    3.97    1.90
  -6  -1   0    1.50    1.12
  -6  -1   0    2.11    1.18
   0  -6   1    1.73    0.96
  -1   0   6    2.70    1.45
   1   0   6    5.51    1.76
   6   1   0    1.92    1.11
   1   0  -6    0.93    1.65
  -6  -2   0   16.90    2.91
  -6  -2   0    8.78    2.13
   2   0  -6   17.78    3.08
  -2   0   6   10.05    1.85
  -2   0  -6   13.73    2.38
   2   0   6    9.64    2.11
   0  -6  -2   10.07    1.92
   0  -6  -2   15.13    2.01
  -6  -3   0   -0.39    2.01
  -6  -3   0    0.53    2.06
   0  -6  -3    2.07    2.09
   6   3   0    4.02    1.70
   0  -6  -3    3.53    2.08
   3   0   6   -2.67    2.01
   0  -6   3    1.02    1.21
  -3   0   6   -2.76    1.83
   3   0  -6    2.53    1.92
  -3   0  -6    4.82    2.39
   6   0   1    3.17    1.31
   1  -6   0    3.50    1.24
   0   1   6    4.39    1.61
   0   1  -6    2.76    1.69
  -1  -6   0    1.26    1.20
   0  -1   6    3.48    1.57
   6   0  -1    1.11    0.97
   0  -1  -6    1.93    1.85
   1  -6   1   20.93    2.31
  -6  -1  -1   17.98    2.41
   6   1  -1   17.54    2.19
  -1  -6  -1   16.99    2.85
  -1   1   6   18.55    3.27
   1  -1   6   19.79    3.01
  -1  -1  -6   16.88    2.39
   1   1  -6   18.87    3.09
   6   1   1   17.64    2.33
  -6  -1   1   19.79    2.47
   6  -1  -1   16.02    2.44
   1  -1  -6   16.15    2.20
  -1  -1   6   20.31    2.90
  -1   1  -6   19.78    3.42
  -1  -6   1   19.07    2.25
   1  -6  -1   22.48    2.37
   1   1   6   13.74    2.12
  -1  -6  -2    1.58    1.75
   2  -1   6    4.45    1.83
  -1  -6  -2   -0.80    1.81
   2   1  -6    1.24    1.69
   1  -6   2    2.21    1.22
  -2   1   6    3.28    1.74
  -2  -1  -6    2.49    2.08
  -6  -2  -1    1.12    1.62
  -6  -2  -1    0.26    1.76
   2   1   6    2.03    1.84
   2  -1  -6    1.01    1.87
  -2  -1   6    2.07    1.70
  -2   1  -6    4.51    2.72
   6   2   1    4.21    1.50
  -1  -6   2    1.86    1.14
   1  -6  -2    3.98    2.08
   1  -6  -2    3.69    1.64
  -6  -3  -1    6.02    2.10
   3   1  -6    8.17    2.03
   6   3  -1    8.23    1.84
  -6  -3  -1    9.43    2.30
  -3   1   6    6.89    2.18
   1  -6   3    5.43    1.32
   3  -1   6    6.38    2.24
  -1  -6  -3    2.59    2.45
  -1  -6  -3    6.62    2.13
  -3  -1  -6    5.57    2.11
  -3  -1  -6    9.19    2.47
  -3  -1   6    5.93    2.02
  -1  -6   3    7.00    1.51
   3   1   6    4.70    2.37
   6   3   1   10.20    1.94
   1  -6  -3   11.10    2.32
  -6  -3   1    9.35    2.19
   3  -1  -6    4.93    2.21
  -3   1  -6    8.31    1.89
   0  -2  -6   12.75    2.32
   0  -2   6   10.44    1.85
   6   0  -2   10.76    1.51
  -6   0   2   16.01    2.53
   0   2  -6   17.89    3.11
  -2  -6   0   19.04    2.77
  -1   2   6    1.50    2.02
   1  -2   6    3.61    1.55
  -2  -6  -1    1.56    1.80
   6   1  -2    2.30    1.16
   2  -6   1    2.12    0.89
   1   2  -6   -1.02    1.80
  -6  -1  -2    4.68    1.46
  -1  -2  -6    1.18    1.89
   1  -2  -6   -1.20    1.98
   1   2   6    0.59    1.89
  -1   2  -6    2.41    2.88
  -2  -6   1    3.63    1.35
  -6  -1   2   -1.12    1.84
   6  -1  -2    0.06    1.17
  -1  -2   6    1.33    1.54
  -2  -6  -2    7.68    2.24
  -6  -2  -2    8.12    1.83
   2   2  -6    6.32    1.88
   6   2  -2    7.39    1.59
  -2   2   6    7.19    2.32
   2  -2   6    7.69    1.82
  -2  -2  -6    8.49    2.19
  -2  -6  -2    8.15    1.96
   2  -6   2   13.00    1.82
   2   2   6    9.17    2.42
  -2  -2   6    8.27    2.06
  -2  -6   2    8.59    1.64
   2  -6  -2   11.02    2.93
  -2   2  -6   15.62    2.73
  -6  -2   2    8.02    1.78
   6  -2  -2   10.85    2.22
   2  -2  -6    6.36    2.23
  -6  -3  -2   -0.61    2.23
   2  -6   3    1.95    1.43
  -6  -3  -2    0.91    2.59
  -3  -2  -6   -0.85    2.31
  -3  -2  -6   -1.32    2.30
   3  -2   6    1.96    2.06
  -3   2   6    1.85    2.66
  -2  -6  -3    2.70    2.33
   6   3  -2   -0.46    1.72
   3   2  -6    2.36    2.11
   2  -6  -3    2.85    2.60
   6  -3  -2    3.08    2.53
  -2  -6   3   -0.81    1.78
  -6  -3   2   -1.67    2.09
   3  -2  -6    0.67    2.22
  -6   0   3    2.21    1.83
   0  -3  -6    0.74    2.41
   0   3  -6    0.93    1.95
   0   3   6    2.82    2.56
  -3  -6   0   -0.13    1.84
   0  -3   6    1.19    1.58
  -1   3   6    7.46    2.86
   1  -3   6    7.30    1.68
  -3  -6  -1    1.04    2.24
   1   3  -6    9.37    2.12
  -1  -3  -6    7.24    2.45
   6   1  -3    6.69    1.54
  -6  -1  -3    6.58    1.79
  -6  -1  -3    8.06    1.60
   6  -1  -3    6.85    1.57
  -1  -3   6    3.81    2.09
   1  -3  -6    6.62    2.58
  -3  -6   1    5.62    2.00
   1   3   6    5.08    2.49
  -6  -2  -3    3.22    1.99
  -3  -6  -2    0.11    2.28
   6   2  -3    0.74    1.65
  -2  -3  -6    0.32    2.35
  -2   3   6    3.66    2.97
   2   3  -6    2.48    2.15
   2  -3   6    1.87    1.87
   2  -3  -6    0.29    2.72
  -6  -2   3    1.58    1.97
   6  -2  -3    2.55    1.52
   3  -6  -2    5.96    2.64
   0   0  -7    2.53    2.58
   0  -7   0    2.27    1.55
   7   0   0    2.22    1.52
   0   0   0    0.00    0.00
;
_shelx_hkl_checksum              97223
_olex2_submission_special_instructions 'No special instructions were received'
loop_
_space_group_symop_operation_xyz
'x, y, z'
'-y, x, z'
'-x, -y, z'
'y, -x, z'
'x, -z, y'
'x, -y, -z'
'x, z, -y'
'z, y, -x'
'-x, y, -z'
'-z, y, x'
'z, x, y'
'y, z, x'
'-y, -z, x'
'z, -x, -y'
'-y, z, -x'
'-z, -x, y'
'-z, x, -y'
'y, -z, -x'
'y, x, -z'
'-y, -x, -z'
'-x, z, y'
'-x, -z, -y'
'z, -y, x'
'-z, -y, -x'
'-x, -y, -z'
'y, -x, -z'
'x, y, -z'
'-y, x, -z'
'-x, z, -y'
'-x, y, z'
'-x, -z, y'
'-z, -y, x'
'x, -y, z'
'z, -y, -x'
'-z, -x, -y'
'-y, -z, -x'
'y, z, -x'
'-z, x, y'
'y, -z, x'
'z, x, -y'
'z, -x, y'
'-y, z, x'
'-y, -x, z'
'y, x, z'
'x, -z, -y'
'x, z, y'
'-z, y, -x'
'z, y, x'
loop_
_atom_site_label
_atom_site_type_symbol
_atom_site_fract_x
_atom_site_fract_y
_atom_site_fract_z
_atom_site_U_iso_or_equiv
_atom_site_adp_type
_atom_site_occupancy
_atom_site_site_symmetry_order
_atom_site_calc_flag
_atom_site_refinement_flags_posn
_atom_site_refinement_flags_adp
_atom_site_refinement_flags_occupancy
_atom_site_disorder_assembly
_atom_site_disorder_group
Cs1 Cs 0.500000 0.500000 0.500000 0.086(2) Uiso 1 48 d S T P A .
Sn2 Sn 0.000000 0.000000 0.000000 0.0461(19) Uiso 0.9 48 d S T P A 1
Mn1 Mn 0.000000 0.000000 0.000000 0.0461(19) Uiso 0.0998 48 d S T P A 2
Cl1 Cl 0.500000 0.000000 0.000000 0.195(10) Uani 1 16 d S T P . .
loop_
_atom_site_aniso_label
_atom_site_aniso_U_11
_atom_site_aniso_U_22
_atom_site_aniso_U_33
_atom_site_aniso_U_23
_atom_site_aniso_U_13
_atom_site_aniso_U_12
Cl1 0.150(13) 0.218(13) 0.218(13) 0.000 0.000 0.000
loop_
_atom_type_symbol
_atom_type_description
_atom_type_scat_dispersion_real
_atom_type_scat_dispersion_imag
_atom_type_scat_source
Cl Cl 0.1484 0.1585 'International Tables Vol C Tables 4.2.6.8 and 6.1.1.4'
Sn Sn -0.6537 1.4246 'International Tables Vol C Tables 4.2.6.8 and 6.1.1.4'
Cs Cs -0.3680 2.1192 'International Tables Vol C Tables 4.2.6.8 and 6.1.1.4'
Mn Mn 0.3368 0.7283 'International Tables Vol C Tables 4.2.6.8 and 6.1.1.4'
loop_
_geom_angle_atom_site_label_1
_geom_angle_atom_site_label_2
_geom_angle_atom_site_label_3
_geom_angle
_geom_angle_site_symmetry_1
_geom_angle_site_symmetry_3
Cl1 Cs1 Cl1 120.0 8_666 .
Cl1 Cs1 Cl1 120.0 8_556 2_655
Cl1 Cs1 Cl1 120.0 2 8_656
Cl1 Cs1 Cl1 120.0 8_666 2
Cl1 Cs1 Cl1 90.0 8_666 8_656
Cl1 Cs1 Cl1 60.0 8_566 2_556
Cl1 Cs1 Cl1 120.0 8_566 2_655
Cl1 Cs1 Cl1 60.0 2_656 1_566
Cl1 Cs1 Cl1 60.0 2 8_566
Cl1 Cs1 Cl1 60.0 8_656 1_556
Cl1 Cs1 Cl1 90.0 8_556 8_656
Cl1 Cs1 Cl1 60.0 1_566 2_556
Cl1 Cs1 Cl1 90.0 2_656 2_655
Cl1 Cs1 Cl1 120.0 2 1_566
Cl1 Cs1 Cl1 60.0 . 2
Cl1 Cs1 Cl1 180.0 8_566 8_656
Cl1 Cs1 Cl1 90.0 . 1_556
Cl1 Cs1 Cl1 60.0 2_656 1_556
Cl1 Cs1 Cl1 120.0 2 1_556
Cl1 Cs1 Cl1 120.0 8_566 1_556
Cl1 Cs1 Cl1 120.0 8_666 2_556
Cl1 Cs1 Cl1 60.0 8_556 2_556
Cl1 Cs1 Cl1 60.0 . 8_556
Cl1 Cs1 Cl1 60.0 2_656 8_656
Cl1 Cs1 Cl1 120.0 1_565 2_556
Cl1 Cs1 Cl1 60.0 . 2_655
Cl1 Cs1 Cl1 120.0 1_556 2_655
Cl1 Cs1 Cl1 90.0 . 1_565
Cl1 Cs1 Cl1 60.0 1_565 2_655
Cl1 Cs1 Cl1 90.0 8_666 8_566
Cl1 Cs1 Cl1 180.0 8_666 8_556
Cl1 Cs1 Cl1 60.0 8_666 2_655
Cl1 Cs1 Cl1 60.0 8_556 2
Cl1 Cs1 Cl1 120.0 8_666 1_556
Cl1 Cs1 Cl1 120.0 2_656 8_566
Cl1 Cs1 Cl1 60.0 8_556 1_556
Cl1 Cs1 Cl1 180.0 2_656 2
Cl1 Cs1 Cl1 120.0 . 2_656
Cl1 Cs1 Cl1 90.0 1_566 1_556
Cl1 Cs1 Cl1 60.0 1_566 8_566
Cl1 Cs1 Cl1 60.0 8_666 1_566
Cl1 Cs1 Cl1 180.0 1_565 1_556
Cl1 Cs1 Cl1 60.0 . 8_656
Cl1 Cs1 Cl1 120.0 . 2_556
Cl1 Cs1 Cl1 180.0 . 1_566
Cl1 Cs1 Cl1 120.0 8_556 2_656
Cl1 Cs1 Cl1 90.0 2_656 2_556
Cl1 Cs1 Cl1 90.0 2 2_556
Cl1 Cs1 Cl1 120.0 8_556 1_566
Cl1 Cs1 Cl1 120.0 8_656 2_556
Cl1 Cs1 Cl1 120.0 1_566 8_656
Cl1 Cs1 Cl1 60.0 1_556 2_556
Cl1 Cs1 Cl1 120.0 1_566 2_655
Cl1 Cs1 Cl1 60.0 8_656 2_655
Cl1 Cs1 Cl1 60.0 2 1_565
Cl1 Cs1 Cl1 90.0 2 2_655
Cl1 Cs1 Cl1 90.0 1_566 1_565
Cl1 Cs1 Cl1 120.0 8_556 1_565
Cl1 Cs1 Cl1 120.0 . 8_566
Cl1 Cs1 Cl1 120.0 2_656 1_565
Cl1 Cs1 Cl1 60.0 8_566 1_565
Cl1 Cs1 Cl1 60.0 8_666 2_656
Cl1 Cs1 Cl1 120.0 8_656 1_565
Cl1 Cs1 Cl1 180.0 2_556 2_655
Cl1 Cs1 Cl1 90.0 8_556 8_566
Cl1 Cs1 Cl1 60.0 8_666 1_565
Cl1 Sn2 Cl1 90.0 8_556 .
Cl1 Sn2 Cl1 90.0 1_455 2_545
Cl1 Sn2 Cl1 90.0 8_556 1_455
Cl1 Sn2 Cl1 90.0 . 8
Cl1 Sn2 Cl1 90.0 2_545 8
Cl1 Sn2 Cl1 90.0 8_556 2_545
Cl1 Sn2 Cl1 90.0 . 2_545
Cl1 Sn2 Cl1 180.0 8_556 8
Cl1 Sn2 Cl1 180.0 . 1_455
Cl1 Sn2 Cl1 90.0 1_455 8
Cl1 Sn2 Cl1 90.0 8_556 2
Cl1 Sn2 Cl1 90.0 . 2
Cl1 Sn2 Cl1 90.0 1_455 2
Cl1 Sn2 Cl1 180.0 2_545 2
Cl1 Sn2 Cl1 90.0 2 8
Cl1 Mn1 Cl1 90.0 8_556 .
Cl1 Mn1 Cl1 90.0 2_545 8
Cl1 Mn1 Cl1 90.0 2 8
Cl1 Mn1 Cl1 180.0 . 1_455
Cl1 Mn1 Cl1 90.0 1_455 2
Cl1 Mn1 Cl1 90.0 1_455 8
Cl1 Mn1 Cl1 90.0 8_556 2_545
Cl1 Mn1 Cl1 90.0 1_455 2_545
Cl1 Mn1 Cl1 90.0 8_556 1_455
Cl1 Mn1 Cl1 90.0 8_556 2
Cl1 Mn1 Cl1 180.0 2_545 2
Cl1 Mn1 Cl1 180.0 8_556 8
Cl1 Mn1 Cl1 90.0 . 2_545
Cl1 Mn1 Cl1 90.0 . 2
Cl1 Mn1 Cl1 90.0 . 8
Cs1 Cl1 Cs1 180.0 . 1_544
Cs1 Cl1 Cs1 90.0 1_544 1_545
Cs1 Cl1 Cs1 90.0 . 1_545
Cs1 Cl1 Cs1 90.0 1_544 1_554
Cs1 Cl1 Cs1 90.0 . 1_554
Cs1 Cl1 Cs1 180.0 1_554 1_545
Sn2 Cl1 Cs1 90.0 1_655 1_545
Sn2 Cl1 Cs1 90.0 . 1_554
Sn2 Cl1 Cs1 90.0 . 1_545
Sn2 Cl1 Cs1 90.0 1_655 1_554
Sn2 Cl1 Cs1 90.0 1_655 .
Sn2 Cl1 Cs1 90.0 1_655 1_544
Sn2 Cl1 Cs1 90.0 . 1_544
Sn2 Cl1 Cs1 90.0 . .
Sn2 Cl1 Sn2 180.0 1_655 .
Mn1 Cl1 Cs1 90.0 . .
loop_
_geom_bond_atom_site_label_1
_geom_bond_atom_site_label_2
_geom_bond_distance
_geom_bond_site_symmetry_2
Cs1 Cl1 3.9347(18) 8_666
Cs1 Cl1 3.9347(18) 8_556
Cs1 Cl1 3.9347(18) 1_556
Cs1 Cl1 3.9347(18) 1_566
Cs1 Cl1 3.9347(18) 2_656
Cs1 Cl1 3.9347(18) 1_565
Cs1 Cl1 3.9347(18) 2
Cs1 Cl1 3.9347(18) 2_556
Cs1 Cl1 3.9347(18) 8_566
Cs1 Cl1 3.9347(18) 8_656
Cs1 Cl1 3.9347(18) .
Cs1 Cl1 3.9347(18) 2_655
Sn2 Cl1 2.7822(13) 8_556
Sn2 Cl1 2.7822(13) 1_455
Sn2 Cl1 2.7822(13) .
Sn2 Cl1 2.7822(13) 2
Sn2 Cl1 2.7822(13) 2_545
Sn2 Cl1 2.7822(13) 8
Mn1 Cl1 2.7822(13) 8_556
Mn1 Cl1 2.7822(13) 2
Mn1 Cl1 2.7822(13) 2_545
Mn1 Cl1 2.7822(13) .
Mn1 Cl1 2.7822(13) 8
Mn1 Cl1 2.7822(13) 1_455
