#------------------------------------------------------------------------------
#$Date: 2021-02-04 00:33:00 +0200 (Thu, 04 Feb 2021) $
#$Revision: 261429 $
#$URL: file:///home/coder/svn-repositories/cod/cif/4/00/38/4003862.cif $
#------------------------------------------------------------------------------
#
# This file is available in the Crystallography Open Database (COD),
# http://www.crystallography.net/
#
# All data on this site have been placed in the public domain by the
# contributors.
#
data_4003862
loop_
_publ_author_name
'Calder\'on-Cueva, Mario'
'Peng, Wanyue'
'Clarke, Samantha M.'
'Ding, Jingxuan'
'Brugman, Benjamin L.'
'Levental, Gill'
'Balodhi, Ashiwini'
'Rylko, Megan'
'Delaire, Olivier'
'Walsh, James P. S.'
'Dorfman, Susannah M.'
'Zevalkink, Alexandra'
_publ_section_title
;
 Anisotropic Structural Collapse of Mg3Sb2 and Mg3Bi2 at High Pressure
;
_journal_issue                   2
_journal_name_full               'Chemistry of Materials'
_journal_page_first              567
_journal_page_last               573
_journal_paper_doi               10.1021/acs.chemmater.0c03678
_journal_volume                  33
_journal_year                    2021
_chemical_formula_moiety         'Mg3 Sb2'
_chemical_formula_sum            'Mg3 Sb2'
_chemical_formula_weight         316.43
_space_group_crystal_system      trigonal
_space_group_IT_number           164
_space_group_name_Hall           '-P 3 2"'
_space_group_name_H-M_alt        'P -3 m 1'
_atom_sites_solution_primary     direct
_audit_creation_date             2020-12-02
_audit_creation_method
;
Olex2 1.3
(compiled 2020.11.12 svn.r5f609507 for OlexSys, GUI svn.r6214)
;
_audit_update_record
;
2020-12-02 # Formatted by publCIF

;
_cell_angle_alpha                90
_cell_angle_beta                 90
_cell_angle_gamma                120
_cell_formula_units_Z            1
_cell_length_a                   4.4808(3)
_cell_length_b                   4.4808(3)
_cell_length_c                   7.066(3)
_cell_measurement_reflns_used    239
_cell_measurement_temperature    298.15
_cell_measurement_theta_max      16.32
_cell_measurement_theta_min      3.202
_cell_volume                     122.86(5)
_computing_cell_refinement       'SAINT V8.40A (Bruker, 2019)'
_computing_data_reduction        'SAINT V8.40A (Bruker, 2019)'
_computing_molecular_graphics    'Olex2 1.3 (Dolomanov et al., 2009)'
_computing_publication_material  'Olex2 1.3 (Dolomanov et al., 2009)'
_computing_structure_refinement  'XL  (Sheldrick, 2008)'
_computing_structure_solution    'XS  (Sheldrick, 2008)'
_diffrn_ambient_pressure         3210000
_diffrn_ambient_temperature      298.15
_diffrn_measured_fraction_theta_full 0.454
_diffrn_measured_fraction_theta_max 0.455
_diffrn_measurement_device_type  'Pilatus 1M'
_diffrn_measurement_method       '\f and \w scans'
_diffrn_radiation_type           synchrotron
_diffrn_radiation_wavelength     0.4335
_diffrn_reflns_av_R_equivalents  0.0262
_diffrn_reflns_av_unetI/netI     0.0212
_diffrn_reflns_Laue_measured_fraction_full 0.454
_diffrn_reflns_Laue_measured_fraction_max 0.455
_diffrn_reflns_limit_h_max       5
_diffrn_reflns_limit_h_min       -4
_diffrn_reflns_limit_k_max       4
_diffrn_reflns_limit_k_min       -5
_diffrn_reflns_limit_l_max       2
_diffrn_reflns_limit_l_min       -4
_diffrn_reflns_number            303
_diffrn_reflns_point_group_measured_fraction_full 0.454
_diffrn_reflns_point_group_measured_fraction_max 0.455
_diffrn_reflns_theta_full        15.076
_diffrn_reflns_theta_max         16.318
_diffrn_reflns_theta_min         3.202
_diffrn_source                   synchrotron
_diffrn_source_current           0.0
_diffrn_source_power             0.0
_diffrn_source_voltage           0.0
_diffrn_standards_number         0
_exptl_absorpt_coefficient_mu    2.972
_exptl_absorpt_correction_T_max  0.7440
_exptl_absorpt_correction_T_min  0.6020
_exptl_absorpt_correction_type   multi-scan
_exptl_absorpt_process_details
;
SADABS-2016/2 (Bruker,2016/2) was used for absorption correction.
wR2(int) was 0.0687 before and 0.0404 after correction.
The Ratio of minimum to maximum transmission is 0.8091.
The \l/2 correction factor is Not present.
;
_exptl_crystal_colour            'metallic dark grey'
_exptl_crystal_colour_lustre     metallic
_exptl_crystal_colour_modifier   dark
_exptl_crystal_colour_primary    grey
_exptl_crystal_density_diffrn    4.277
_exptl_crystal_description       hexagonal
_exptl_crystal_F_000             138
_exptl_crystal_preparation       'Directional flux growth'
_exptl_crystal_recrystallization_method 'Chemical vapor transport'
_exptl_crystal_size_max          0.04
_exptl_crystal_size_mid          0.04
_exptl_crystal_size_min          0.01
_refine_diff_density_max         11.496
_refine_diff_density_min         -8.114
_refine_diff_density_rms         1.808
_refine_ls_extinction_method     none
_refine_ls_goodness_of_fit_ref   1.634
_refine_ls_hydrogen_treatment    undef
_refine_ls_matrix_type           full
_refine_ls_number_parameters     6
_refine_ls_number_reflns         60
_refine_ls_number_restraints     0
_refine_ls_restrained_S_all      1.634
_refine_ls_R_factor_all          0.1687
_refine_ls_R_factor_gt           0.0924
_refine_ls_shift/su_max          0.000
_refine_ls_shift/su_mean         0.000
_refine_ls_structure_factor_coef Fsqd
_refine_ls_weighting_details
'w=1/[\s^2^(Fo^2^)+57.0710P] where P=(Fo^2^+2Fc^2^)/3'
_refine_ls_weighting_scheme      calc
_refine_ls_wR_factor_gt          0.1759
_refine_ls_wR_factor_ref         0.3306
_reflns_Friedel_coverage         0.000
_reflns_number_gt                53
_reflns_number_total             60
_reflns_threshold_expression     'I > 2\s(I)'
_cod_data_source_file            cm0c03678_si_001.cif
_cod_data_source_block           Mg3Sb2_AP_3.21GPa
_cod_original_cell_volume        122.87(5)
_cod_database_code               4003862
_shelx_shelxl_version_number     2018/3
_shelx_space_group_comment
;
The symmetry employed for this shelxl refinement is uniquely defined
by the following loop, which should always be used as a source of
symmetry information in preference to the above space-group names.
They are only intended as comments.
;
_shelx_estimated_absorpt_t_max   0.971
_shelx_estimated_absorpt_t_min   0.890
_olex2_refinement_description
;
;
_shelx_res_file
;
TITL 3p21_0m in P-3m1 #164
    3p21_0m.res
    created by SHELXL-2018/3 at 11:54:16 on 02-Dec-2020
REM reset to P-3m1 #164
CELL 0.4335 4.4808 4.4808 7.0663 90 90 120
ZERR 1 0.00028 0.00028 0.003 0 0 0
LATT 1
SYMM -Y,+X-Y,+Z
SYMM +Y-X,-X,+Z
SYMM -Y+X,-Y,-Z
SYMM -X,-X+Y,-Z
SYMM +Y,+X,-Z
SFAC Mg Sb
DISP Mg 0.0174 0.0133 41.1863
DISP Sb -2.274 0.6185 1763.9865
UNIT 3 2

L.S. 100
PLAN  1
SIZE 0.04 0.04 0.01
TEMP 25
CONF
MORE -1
fmap 2 53
acta
REM <olex2.extras>
REM <HklSrc "%.\\3p21_0m.hkl">
REM </olex2.extras>

WGHT    0.000000   57.070999
FVAR       0.31021
MG1   1    1.000000    1.000000    0.000000    10.08333    0.00711
MG2   1    0.333333    0.666667    0.664036    10.16667    0.01499
SB1   2    0.333333    0.666667    0.225251    10.16667    0.01258
HKLF 4




REM  3p21_0m in P-3m1 #164
REM wR2 = 0.330597, GooF = S = 1.63404, Restrained GooF = 1.63404 for all data
REM R1 = 0.092426 for 53 Fo > 4sig(Fo) and 0.168745 for all 60 data
REM 6 parameters refined using 0 restraints

END

WGHT      0.2000      0.0000

REM Highest difference peak 11.496,  deepest hole -8.114,  1-sigma level  1.808
Q1    1   0.3333  0.6667  0.0753  10.16667  0.05   11.50
;
_shelx_res_checksum              57554
_shelx_hkl_file
;
   1   0   0  207.02    7.55
   1  -1   0  195.62    7.53
  -1   0   0  191.43    8.02
  -1   1   0  197.06    7.88
   0  -1   0  169.26    7.63
   0   1   0  196.63    7.65
   0   1   0  191.61    7.50
   1  -1   0  192.42    7.87
   1   0   0  198.56    8.04
   1   1   0 1000.00   37.01
   1   1   0  969.25   37.65
   1  -2   0  947.24   36.95
   1  -2   0  944.62   37.15
  -2   1   0  915.36   37.83
  -1  -1   0  940.05   37.65
   2  -1   0  948.28   37.03
   2  -1   0  950.94   37.88
  -1   2   0  961.71   37.14
   2  -2   0  120.27    5.33
   2   0   0  112.18    5.52
   2   0   0  112.93    4.68
   0   2   0  120.48    4.87
  -2   0   0  114.40    5.55
   0  -2   0  124.23    4.90
   2  -2   0  117.15    4.65
   0   2   0  120.16    4.59
  -2   2   0  114.79    5.28
   2  -3   0   88.49    3.98
  -3   1   0   87.76    4.62
   2  -3   0   80.75    3.42
   2   1   0   77.36    4.36
   2   1   0   80.95    3.49
  -3   2   0   79.94    4.42
  -2  -1   0   84.83    4.47
  -1  -2   0   88.74    4.23
  -2   3   0   93.81    3.98
   3  -2   0   90.14    3.51
   3  -1   0   89.67    3.53
   3  -1   0   89.99    4.67
   3  -2   0   91.04    4.59
   3   0   0  477.38   20.39
   3   0   0  471.37   19.01
   0   3   0  461.11   18.87
   3  -3   0  506.86   20.10
   3  -3   0  488.75   18.96
  -3   0   0  493.24   20.45
  -3   3   0  493.56   20.05
   0   3   0  493.70   19.30
  -4   2   0  368.93   15.41
   2   2   0  346.49   15.00
   2   2   0  341.96   13.73
  -2  -2   0  343.28   15.06
  -4   3   0   52.78    3.34
   3   1   0   49.03    2.13
   1   3   0   43.30    2.75
   3  -4   0   50.15    2.04
   3   1   0   48.06    3.27
   1   3   0   49.69    2.04
   3  -4   0   49.49    2.83
   4  -1   0   47.61    2.14
  -3   4   0   49.87    2.83
   4  -3   0   52.28    3.37
   4  -3   0   49.69    2.12
  -1  -3   0   51.87    2.92
  -3  -1   0   49.39    3.37
   4   0   0   39.68    1.76
   4  -4   0   37.23    1.69
  -4   4   0   38.72    2.77
   4  -4   0   39.31    2.79
   2   3   0   33.35    1.43
   3   2   0   33.83    1.46
   5  -2   0   31.69    1.49
  -2  -3   0   27.08    2.35
   5  -3   0   31.24    1.48
   4   1   0  178.81    7.00
   5  -1   0  175.97    7.01
   5  -4   0  164.07    6.96
   5   0   0   22.15    1.15
   5  -5   0   21.38    1.08
   1  -1  -1  250.57   10.27
   1   0   1  248.74   10.33
  -1   0  -1  247.85   10.34
   1   0   1  257.77    9.80
   1  -1  -1  250.29    9.79
   1   0  -1  444.76   18.23
   1   0  -1  462.65   17.66
   2  -2  -1  312.15   11.70
   2  -2  -1  306.43   12.45
   2   0   1  298.13   11.72
   2   0   1  295.23   12.67
  -2   0  -1  299.42   12.70
   0   2  -1  290.71   12.09
  -2   2   1  298.79   12.46
   0   2  -1  293.83   11.65
  -2   1   1    6.55    0.78
   1   1  -1    7.14    0.35
   1   1   1    7.59    0.35
   1   1  -1    6.79    0.71
  -2   1  -1    6.77    0.78
   1   1   1    6.92    0.71
  -1  -1  -1    6.83    0.72
   2  -1   1    7.60    0.82
   2  -1   1    7.10    0.37
  -1  -1   1    6.22    0.71
   2  -1  -1    6.79    0.37
   2  -1  -1    7.55    0.82
   0  -2  -1  172.30    7.02
  -2   2  -1  153.07    7.32
  -2   0   1  178.62    7.74
   2   0  -1  165.64    6.70
   2   0  -1  171.52    7.64
   2  -2   1  177.89    7.46
   2  -2   1  169.57    6.68
   3   0   1    3.77    0.75
   3   0   1    3.95    0.29
  -3   3   1    3.39    0.63
   0   3  -1    3.60    0.45
   3  -3  -1    3.83    0.68
   3  -3  -1    3.86    0.27
   0   3  -1    3.57    0.20
  -3   0  -1    3.76    0.76
  -3   2   1  131.89    6.22
  -3   1  -1  124.96    6.25
   2  -3  -1  126.76    5.61
   2  -3  -1  113.13    4.99
   2   1   1  130.36    6.13
   2   1   1  127.06    5.07
   3  -1   1  122.55    5.09
   3  -2  -1  130.49    5.09
  -2  -1  -1  131.40    6.19
  -1  -2   1  128.27    5.93
   3  -1   1  126.84    6.28
   3  -2  -1  131.03    6.24
   2   1  -1  222.32    8.60
   1  -3  -1  222.94    8.63
  -3   1   1  216.39    9.87
   1  -3  -1  220.26    8.46
  -3   2  -1  220.21    9.76
   2   1  -1  217.53    9.69
   3  -1  -1  213.39    9.86
  -2  -1   1  213.55    9.76
   3  -1  -1  216.26    8.62
   3  -2   1  212.91    8.60
  -2   3  -1  218.28    9.15
  -1  -2  -1  222.16    9.42
   3  -2   1  215.03    9.77
   3   0  -1    3.80    0.29
   3   0  -1    3.75    0.76
  -3   0   1    3.96    0.79
   0  -3  -1    3.80    0.46
   3  -3   1    4.05    0.27
   3  -3   1    4.35    0.72
  -3   3  -1    3.84    0.66
   4  -4  -1   61.57    2.64
   4  -4  -1   62.17    3.83
  -4   4   1   65.52    3.92
   4   0   1   62.72    2.70
  -4   3   1  114.51    6.39
   1   3  -1  122.54    5.94
   3  -4  -1  132.91    5.98
   3   1   1  128.96    5.11
   3   1   1  125.08    6.52
   3  -4  -1  135.53    5.02
   1   3  -1  115.59    5.01
   4  -1   1  127.75    5.13
  -3  -1  -1  130.21    6.66
   4  -3  -1  127.82    6.55
  -4   2  -1    3.02    0.73
   2   2  -1    2.48    0.22
   2  -4  -1    2.70    0.34
  -4   2   1    2.53    0.69
   2  -4  -1    2.52    0.14
   2   2   1    3.09    0.67
   2   2  -1    2.63    0.61
   2   2   1    2.88    0.24
  -2   4  -1    2.85    0.38
  -2  -2   1    2.89    0.65
  -2  -2  -1    1.38    0.48
  -4   3  -1   77.00    4.54
   3   1  -1   78.47    4.58
   3   1  -1   79.89    3.29
  -3  -1   1   79.12    4.71
  -3   4  -1   80.60    4.12
  -1  -3  -1   83.71    4.15
   4  -3   1   76.25    4.57
   4  -1  -1   78.27    3.31
  -4   4  -1   97.79    5.28
   4  -4   1   96.65    5.27
   4   0  -1   95.39    4.01
   4  -4   1   96.93    3.96
   5  -5  -1   52.26    2.32
   5   0   1   54.81    2.41
   4   1   1    2.01    0.26
   5  -4  -1    1.44    0.22
   5  -1   1    1.67    0.23
   3   2   1   55.26    2.37
   2   3  -1   55.72    2.33
  -2  -3   1   53.59    3.61
   5  -2   1   57.84    2.43
   5  -3  -1   51.32    2.39
   3   2  -1   78.95    3.31
  -2  -3  -1   74.19    4.48
   5  -2  -1   81.09    3.36
   5  -3   1   82.61    3.36
   4   1  -1    1.62    0.24
   5  -4   1    1.41    0.23
   5  -1  -1    1.76    0.25
   5  -5   1   37.57    1.67
   5   0  -1   35.11    1.72
   2  -1  -2  241.39   10.45
   2  -1  -2  237.86    9.42
  -2   0   2    6.44    0.92
   2   0  -2    8.13    0.44
   2   0  -2    8.95    1.03
   3  -3  -2  191.54    7.48
  -3   0  -2  192.75    8.97
   3  -3  -2  191.50    8.62
   3   0   2  179.74    8.84
  -3   1  -2    5.93    0.91
   2  -3  -2    5.22    0.30
   2  -3  -2    5.37    0.67
  -3   2   2    6.19    0.94
   3  -2  -2    6.06    0.37
   3  -1   2    5.77    0.90
   3  -2  -2    5.58    0.87
   3  -1   2    5.81    0.37
  -2  -1  -2    6.10    0.88
  -3   1   2  354.01   14.50
   2   1  -2  345.37   14.24
   2   1  -2  326.46   12.91
  -3   2  -2  344.02   14.26
   3  -1  -2  309.13   12.91
  -2  -1   2  311.47   14.23
   3  -1  -2  307.48   14.21
  -1  -2  -2  331.89   13.84
  -3   3  -2  183.28    8.65
   3   0  -2  200.03    9.02
  -3   0   2  183.45    9.03
   4   0   2    3.03    0.30
   4  -4  -2    3.29    0.28
   4  -4  -2    2.67    0.71
   1   3  -2  179.56    7.00
   1   3  -2  173.22    8.05
   3  -4  -2  177.14    8.04
   3   1   2  185.15    7.09
   3  -4  -2  182.06    7.00
   3   1   2  177.43    8.60
   4  -3  -2  178.91    7.08
   4  -3  -2  171.06    8.55
   4  -1   2  184.18    7.12
  -3  -1  -2  160.45    8.53
   2   2  -2  145.36    5.43
   2  -4  -2  135.24    5.31
   2   2  -2  145.34    6.79
   2  -4  -2  130.67    5.88
   4  -2   2  118.52    5.44
   3   1  -2    3.24    0.30
   3   1  -2    3.34    0.79
  -4   3  -2    4.69    0.91
  -3   4  -2    4.02    0.72
  -3  -1   2    3.31    0.84
  -1  -3  -2    3.50    0.65
   4  -1  -2    3.90    0.33
  -4   4  -2  140.82    7.03
   4   0  -2  131.21    5.55
   4   1   2   84.07    3.45
   5  -4  -2   79.88    3.42
   5  -1   2   79.05    3.45
   2   3  -2    2.61    0.24
   5  -2   2    2.41    0.29
   5  -3  -2    2.40    0.28
   3   2  -2  108.00    4.51
  -2  -3  -2  109.83    5.89
   5  -3   2  109.31    4.54
   5  -2  -2  111.31    4.56
   4   1  -2   70.85    3.16
   5  -1  -2   77.78    3.21
   3  -3  -3    0.03    0.22
   3  -3  -3    0.04    0.07
   3  -2  -3   -0.01    0.21
   3  -2  -3    0.03    0.07
   3  -1  -3   -0.04    0.06
   3  -1  -3   -0.04    0.23
   3   0  -3    0.07    0.06
   3   0  -3   -0.04    0.19
   4  -4  -3  139.31    7.09
   4  -4  -3  143.01    5.69
   2   2  -3    0.06    0.09
   2   2  -3    0.00    0.32
   4  -2  -3   -0.01    0.06
   3   1  -3  205.26    8.09
   4  -1  -3  198.31    8.09
   4   0  -3   45.43    2.05
   5  -4  -3    4.81    0.40
   2   3  -3  113.32    4.84
   5  -3  -3  124.76    4.92
   3   2  -3   33.57    1.68
  -2  -3  -3   37.32    2.82
   5  -2  -3   39.72    1.75
   4   1  -3    4.32    0.41
   5  -1  -3    5.03    0.44
   5  -3  -4    0.04    0.12
   5  -2  -4   -0.14    0.12
   0   0   0    0.00    0.00
;
_shelx_hkl_checksum              6799
_olex2_submission_special_instructions 'No special instructions were received'
loop_
_space_group_symop_operation_xyz
'x, y, z'
'-y, x-y, z'
'-x+y, -x, z'
'x-y, -y, -z'
'-x, -x+y, -z'
'y, x, -z'
'-x, -y, -z'
'y, -x+y, -z'
'x-y, x, -z'
'-x+y, y, z'
'x, x-y, z'
'-y, -x, z'
loop_
_atom_site_label
_atom_site_type_symbol
_atom_site_fract_x
_atom_site_fract_y
_atom_site_fract_z
_atom_site_U_iso_or_equiv
_atom_site_adp_type
_atom_site_occupancy
_atom_site_site_symmetry_order
_atom_site_calc_flag
_atom_site_refinement_flags_posn
_atom_site_refinement_flags_adp
_atom_site_refinement_flags_occupancy
_atom_site_disorder_assembly
_atom_site_disorder_group
Mg1 Mg 1.000000 1.000000 0.000000 0.007(10) Uiso 1 12 d S . P . .
Mg2 Mg 0.333333 0.666667 0.664(11) 0.015(9) Uiso 1 6 d S . P . .
Sb1 Sb 0.333333 0.666667 0.225(2) 0.013(3) Uiso 1 6 d S . P . .
loop_
_atom_type_symbol
_atom_type_description
_atom_type_scat_dispersion_real
_atom_type_scat_dispersion_imag
_atom_type_scat_source
Mg Mg 0.0174 0.0133 'International Tables Vol C Tables 4.2.6.8 and 6.1.1.4'
Sb Sb -2.2740 0.6185 'International Tables Vol C Tables 4.2.6.8 and 6.1.1.4'
loop_
_geom_angle_atom_site_label_1
_geom_angle_atom_site_label_2
_geom_angle_atom_site_label_3
_geom_angle
_geom_angle_site_symmetry_1
_geom_angle_site_symmetry_3
_geom_angle_publ_flag
Mg2 Mg1 Mg2 180.0 7_676 1_654 ?
Mg2 Mg1 Mg2 100.7(14) 1_654 7_666 ?
Mg2 Mg1 Mg2 79.3(14) 1_654 1_664 ?
Mg2 Mg1 Mg2 79.3(14) 7_676 7_776 ?
Mg2 Mg1 Mg2 100.7(14) 1_554 7_666 ?
Mg2 Mg1 Mg2 100.7(14) 1_654 7_776 ?
Mg2 Mg1 Mg2 79.3(14) 7_676 7_666 ?
Mg2 Mg1 Mg2 79.3(14) 1_554 1_664 ?
Mg2 Mg1 Mg2 79.3(14) 7_776 7_666 ?
Mg2 Mg1 Mg2 100.7(14) 7_676 1_554 ?
Mg2 Mg1 Mg2 100.7(14) 7_676 1_664 ?
Mg2 Mg1 Mg2 79.3(14) 1_654 1_554 ?
Mg2 Mg1 Mg2 100.7(14) 7_776 1_664 ?
Mg2 Mg1 Mg2 180.0 7_776 1_554 ?
Mg2 Mg1 Mg2 180.0 7_666 1_664 ?
Sb1 Mg1 Mg2 105.9(10) . 7_776 ?
Sb1 Mg1 Mg2 131.92(18) 7_675 7_776 ?
Sb1 Mg1 Mg2 48.08(18) 7_675 1_664 ?
Sb1 Mg1 Mg2 131.92(18) 7_665 7_776 ?
Sb1 Mg1 Mg2 74.1(10) 1_655 1_654 ?
Sb1 Mg1 Mg2 48.08(18) 1_665 7_776 ?
Sb1 Mg1 Mg2 74.1(10) 1_665 1_664 ?
Sb1 Mg1 Mg2 74.1(10) 7_775 7_776 ?
Sb1 Mg1 Mg2 105.9(10) 1_665 7_666 ?
Sb1 Mg1 Mg2 105.9(10) 1_655 7_676 ?
Sb1 Mg1 Mg2 48.08(18) 7_665 1_654 ?
Sb1 Mg1 Mg2 48.08(18) . 7_676 ?
Sb1 Mg1 Mg2 131.92(18) . 1_664 ?
Sb1 Mg1 Mg2 48.08(18) 7_675 1_554 ?
Sb1 Mg1 Mg2 48.08(18) 7_775 1_654 ?
Sb1 Mg1 Mg2 131.92(18) 1_655 1_554 ?
Sb1 Mg1 Mg2 74.1(10) 7_665 7_666 ?
Sb1 Mg1 Mg2 74.1(10) . 1_554 ?
Sb1 Mg1 Mg2 131.92(18) 7_775 7_666 ?
Sb1 Mg1 Mg2 131.92(18) 7_665 7_676 ?
Sb1 Mg1 Mg2 131.92(18) . 1_654 ?
Sb1 Mg1 Mg2 131.92(18) 1_665 1_554 ?
Sb1 Mg1 Mg2 131.92(18) 1_665 1_654 ?
Sb1 Mg1 Mg2 105.9(10) 7_775 1_554 ?
Sb1 Mg1 Mg2 131.92(18) 1_655 1_664 ?
Sb1 Mg1 Mg2 48.08(18) 1_665 7_676 ?
Sb1 Mg1 Mg2 105.9(10) 7_665 1_664 ?
Sb1 Mg1 Mg2 131.92(18) 7_775 7_676 ?
Sb1 Mg1 Mg2 48.08(18) 7_775 1_664 ?
Sb1 Mg1 Mg2 105.9(10) 7_675 1_654 ?
Sb1 Mg1 Mg2 74.1(10) 7_675 7_676 ?
Sb1 Mg1 Mg2 48.08(18) 1_655 7_666 ?
Sb1 Mg1 Mg2 48.08(18) 1_655 7_776 ?
Sb1 Mg1 Mg2 48.08(18) . 7_666 ?
Sb1 Mg1 Mg2 48.08(18) 7_665 1_554 ?
Sb1 Mg1 Mg2 131.92(18) 7_675 7_666 ?
Sb1 Mg1 Sb1 84.9(3) . 7_665 ?
Sb1 Mg1 Sb1 84.9(3) 1_665 7_775 ?
Sb1 Mg1 Sb1 95.1(3) 7_675 7_665 ?
Sb1 Mg1 Sb1 84.9(3) 7_675 1_665 ?
Sb1 Mg1 Sb1 84.9(3) 7_675 . ?
Sb1 Mg1 Sb1 95.1(3) 1_655 1_665 ?
Sb1 Mg1 Sb1 180.0 . 7_775 ?
Sb1 Mg1 Sb1 95.1(3) . 1_665 ?
Sb1 Mg1 Sb1 180.0(5) 7_675 1_655 ?
Sb1 Mg1 Sb1 180.0(5) 7_665 1_665 ?
Sb1 Mg1 Sb1 95.1(3) 1_655 . ?
Sb1 Mg1 Sb1 95.1(3) 7_675 7_775 ?
Sb1 Mg1 Sb1 84.9(3) 1_655 7_665 ?
Sb1 Mg1 Sb1 84.9(3) 1_655 7_775 ?
Sb1 Mg1 Sb1 95.1(3) 7_665 7_775 ?
Mg1 Mg2 Mg1 79.3(14) 1_456 1_556 ?
Mg1 Mg2 Mg1 79.3(14) 1_456 1_446 ?
Mg1 Mg2 Mg1 79.3(14) 1_556 1_446 ?
Mg2 Mg2 Mg1 100.2(8) 7_566 1_456 ?
Mg2 Mg2 Mg1 100.2(8) 7_666 1_556 ?
Mg2 Mg2 Mg1 179(3) 7_676 1_446 ?
Mg2 Mg2 Mg1 100.2(7) 7_676 1_456 ?
Mg2 Mg2 Mg1 100.2(8) 7_566 1_446 ?
Mg2 Mg2 Mg1 179(3) 7_666 1_456 ?
Mg2 Mg2 Mg1 100.2(8) 7_666 1_446 ?
Mg2 Mg2 Mg1 100.2(8) 7_676 1_556 ?
Mg2 Mg2 Mg1 179(3) 7_566 1_556 ?
Mg2 Mg2 Mg2 80(3) 7_676 7_666 ?
Mg2 Mg2 Mg2 80(3) 7_566 7_666 ?
Mg2 Mg2 Mg2 80(3) 7_566 7_676 ?
Sb1 Mg2 Mg1 121(3) 7_566 1_556 ?
Sb1 Mg2 Mg1 56.7(9) 7_666 1_556 ?
Sb1 Mg2 Mg1 132.5(9) . 1_446 ?
Sb1 Mg2 Mg1 56.7(9) 7_666 1_446 ?
Sb1 Mg2 Mg1 56.7(9) 7_676 1_456 ?
Sb1 Mg2 Mg1 56.7(9) 7_566 1_456 ?
Sb1 Mg2 Mg1 132.5(9) . 1_456 ?
Sb1 Mg2 Mg1 56.7(9) 7_676 1_556 ?
Sb1 Mg2 Mg1 121(3) 7_676 1_446 ?
Sb1 Mg2 Mg1 56.7(9) 7_566 1_446 ?
Sb1 Mg2 Mg1 121(3) 7_666 1_456 ?
Sb1 Mg2 Mg1 132.5(9) . 1_556 ?
Sb1 Mg2 Mg2 48.1(19) . 7_566 ?
Sb1 Mg2 Mg2 123.3(13) 7_676 7_566 ?
Sb1 Mg2 Mg2 123.3(13) 7_566 7_666 ?
Sb1 Mg2 Mg2 58.7(5) 7_676 7_676 ?
Sb1 Mg2 Mg2 123.3(13) 7_666 7_566 ?
Sb1 Mg2 Mg2 123.3(13) 7_566 7_676 ?
Sb1 Mg2 Mg2 48.1(19) . 7_666 ?
Sb1 Mg2 Mg2 123.3(13) 7_666 7_676 ?
Sb1 Mg2 Mg2 58.7(5) 7_566 7_566 ?
Sb1 Mg2 Mg2 48.1(19) . 7_676 ?
Sb1 Mg2 Mg2 123.3(13) 7_676 7_666 ?
Sb1 Mg2 Mg2 58.7(5) 7_666 7_666 ?
Sb1 Mg2 Sb1 112.0(14) 7_566 7_666 ?
Sb1 Mg2 Sb1 112.0(14) 7_676 7_666 ?
Sb1 Mg2 Sb1 106.8(16) 7_666 . ?
Sb1 Mg2 Sb1 106.8(16) 7_676 . ?
Sb1 Mg2 Sb1 106.8(16) 7_566 . ?
Sb1 Mg2 Sb1 112.0(14) 7_676 7_566 ?
Mg1 Sb1 Mg1 95.1(3) 1_455 . ?
Mg1 Sb1 Mg1 95.1(3) 1_455 1_445 ?
Mg1 Sb1 Mg1 95.1(3) 1_445 . ?
Mg1 Sb1 Mg2 121.6(3) . . ?
Mg1 Sb1 Mg2 121.6(3) 1_445 . ?
Mg1 Sb1 Mg2 121.6(3) 1_455 . ?
Mg2 Sb1 Mg1 75.2(10) 7_666 1_445 ?
Mg2 Sb1 Mg1 75.2(10) 7_666 . ?
Mg2 Sb1 Mg1 75.2(10) 7_566 1_445 ?
Mg2 Sb1 Mg1 75.2(10) 7_676 1_455 ?
Mg2 Sb1 Mg1 75.2(10) 7_566 1_455 ?
Mg2 Sb1 Mg1 75.2(10) 7_676 . ?
Mg2 Sb1 Mg1 165.2(17) 7_566 . ?
Mg2 Sb1 Mg1 165.2(17) 7_666 1_455 ?
Mg2 Sb1 Mg1 165.2(17) 7_676 1_445 ?
Mg2 Sb1 Mg2 73.2(16) 7_676 . ?
Mg2 Sb1 Mg2 112.0(14) 7_566 7_666 ?
Mg2 Sb1 Mg2 112.0(14) 7_676 7_566 ?
Mg2 Sb1 Mg2 73.2(16) 7_566 . ?
Mg2 Sb1 Mg2 73.2(16) 7_666 . ?
Mg2 Sb1 Mg2 112.0(15) 7_676 7_666 ?
loop_
_geom_bond_atom_site_label_1
_geom_bond_atom_site_label_2
_geom_bond_distance
_geom_bond_site_symmetry_2
_geom_bond_publ_flag
Mg1 Mg2 3.51(5) 1_654 ?
Mg1 Mg2 3.51(5) 1_664 ?
Mg1 Mg2 3.51(5) 7_666 ?
Mg1 Mg2 3.51(5) 7_776 ?
Mg1 Mg2 3.51(5) 1_554 ?
Mg1 Mg2 3.51(5) 7_676 ?
Mg1 Sb1 3.037(8) 7_675 ?
Mg1 Sb1 3.037(8) 1_665 ?
Mg1 Sb1 3.037(8) 7_665 ?
Mg1 Sb1 3.037(8) 1_655 ?
Mg1 Sb1 3.037(8) 7_775 ?
Mg1 Sb1 3.037(8) . ?
Mg2 Mg2 3.47(10) 7_566 ?
Mg2 Mg2 3.47(10) 7_666 ?
Mg2 Mg2 3.47(10) 7_676 ?
Mg2 Sb1 3.10(8) . ?
Mg2 Sb1 2.70(2) 7_666 ?
Mg2 Sb1 2.70(2) 7_676 ?
Mg2 Sb1 2.70(2) 7_566 ?
