#------------------------------------------------------------------------------
#$Date: 2019-11-11 03:16:01 +0200 (Mon, 11 Nov 2019) $
#$Revision: 226239 $
#$URL: file:///home/coder/svn-repositories/cod/cif/4/00/31/4003135.cif $
#------------------------------------------------------------------------------
#
# This file is available in the Crystallography Open Database (COD),
# http://www.crystallography.net/
#
# All data on this site have been placed in the public domain by the
# contributors.
#
data_4003135
loop_
_publ_author_name
'Hodges, James M.'
'Xia, Yi'
'Malliakas, Christos D.'
'Alexander, Grant C. B.'
'Chan, Maria K. Y.'
'Kanatzidis, Mercouri G.'
_publ_section_title
;
 Two-Dimensional CsAg5Te3--xSx Semiconductors: Multi-anion Chalcogenides
 with Dynamic Disorder and Ultralow Thermal Conductivity
;
_journal_issue                   20
_journal_name_full               'Chemistry of Materials'
_journal_page_first              7245
_journal_paper_doi               10.1021/acs.chemmater.8b03306
_journal_volume                  30
_journal_year                    2018
_chemical_formula_moiety         'Cs, 2(Ag2.5 S0.47 Te1.03)'
_chemical_formula_sum            'Ag5 Cs S0.94 Te2.06'
_chemical_formula_weight         965.25
_chemical_name_systematic        'Cesium pentasilver disulfide telluride'
_space_group_crystal_system      tetragonal
_space_group_IT_number           123
_space_group_name_Hall           '-P 4 2'
_space_group_name_H-M_alt        'P 4/m m m'
_audit_creation_date             2018-05-15
_audit_creation_method
;
Olex2 1.2
(compiled 2017.08.10 svn.r3458 for OlexSys, GUI svn.r5381)
;
_cell_angle_alpha                90
_cell_angle_beta                 90
_cell_angle_gamma                90
_cell_formula_units_Z            1
_cell_length_a                   4.4637(6)
_cell_length_b                   4.4637(6)
_cell_length_c                   11.335(2)
_cell_measurement_reflns_used    1891
_cell_measurement_temperature    293(2)
_cell_measurement_theta_max      29.53
_cell_measurement_theta_min      1.80
_cell_volume                     225.85(6)
_computing_molecular_graphics    'Olex2 (Dolomanov et al., 2009)'
_computing_publication_material  'Olex2 (Dolomanov et al., 2009)'
_computing_structure_refinement  'XL (Sheldrick, 2008)'
_computing_structure_solution    'XT (Sheldrick, 2015)'
_diffrn_ambient_temperature      293(2)
_diffrn_detector                 'Bruker APEX2 area detector'
_diffrn_detector_area_resol_mean 7.9
_diffrn_detector_type            'CCD area detector'
_diffrn_measured_fraction_theta_full 1.000
_diffrn_measured_fraction_theta_max 1.000
_diffrn_measurement_device       'three-circle diffractometer'
_diffrn_measurement_device_type  'STOE IPDS 2'
_diffrn_measurement_method       '\w scans'
_diffrn_radiation_monochromator  'mirror optics'
_diffrn_radiation_probe          x-ray
_diffrn_radiation_type           MoK\a
_diffrn_radiation_wavelength     0.71073
_diffrn_reflns_av_R_equivalents  0.0489
_diffrn_reflns_av_unetI/netI     0.0163
_diffrn_reflns_Laue_measured_fraction_full 1.000
_diffrn_reflns_Laue_measured_fraction_max 1.000
_diffrn_reflns_limit_h_max       6
_diffrn_reflns_limit_h_min       -4
_diffrn_reflns_limit_k_max       6
_diffrn_reflns_limit_k_min       -6
_diffrn_reflns_limit_l_max       15
_diffrn_reflns_limit_l_min       -15
_diffrn_reflns_number            1830
_diffrn_reflns_point_group_measured_fraction_full 1.000
_diffrn_reflns_point_group_measured_fraction_max 1.000
_diffrn_reflns_theta_full        26.000
_diffrn_reflns_theta_max         29.133
_diffrn_reflns_theta_min         1.797
_diffrn_source                   'microfocus sealed X-ray tube'
_diffrn_source_type              'Incoatec I\ms'
_diffrn_standards_number         0
_exptl_absorpt_coefficient_mu    21.266
_exptl_absorpt_correction_T_max  0.1754
_exptl_absorpt_correction_T_min  0.0470
_exptl_absorpt_correction_type   numerical
_exptl_absorpt_process_details   'Face indexed with XRED32 and XSHAPE'
_exptl_crystal_colour            black
_exptl_crystal_colour_lustre     metallic
_exptl_crystal_density_diffrn    7.097
_exptl_crystal_description       plate
_exptl_crystal_F_000             412
_exptl_crystal_size_max          0.11742
_exptl_crystal_size_mid          0.08402
_exptl_crystal_size_min          0.03984
_refine_diff_density_max         1.245
_refine_diff_density_min         -1.050
_refine_diff_density_rms         0.374
_refine_ls_extinction_coef       0.026(3)
_refine_ls_extinction_expression Fc^*^=kFc[1+0.001xFc^2^\l^3^/sin(2\q)]^-1/4^
_refine_ls_extinction_method     'SHELXL-2014/7 (Sheldrick 2014'
_refine_ls_goodness_of_fit_ref   1.324
_refine_ls_hydrogen_treatment    undef
_refine_ls_matrix_type           full
_refine_ls_number_parameters     16
_refine_ls_number_reflns         231
_refine_ls_number_restraints     0
_refine_ls_restrained_S_all      1.324
_refine_ls_R_factor_all          0.0319
_refine_ls_R_factor_gt           0.0288
_refine_ls_shift/su_max          0.000
_refine_ls_shift/su_mean         0.000
_refine_ls_structure_factor_coef Fsqd
_refine_ls_weighting_details
'w=1/[\s^2^(Fo^2^)+(0.0431P)^2^+0.0413P] where P=(Fo^2^+2Fc^2^)/3'
_refine_ls_weighting_scheme      calc
_refine_ls_wR_factor_gt          0.0723
_refine_ls_wR_factor_ref         0.0740
_reflns_Friedel_coverage         0.000
_reflns_number_gt                212
_reflns_number_total             231
_reflns_threshold_expression     'I > 2\s(I)'
_cod_data_source_file            cm8b03306_si_004.cif
_cod_data_source_block           qwer
_cod_original_cell_volume        225.86(8)
_cod_database_code               4003135
_shelx_shelxl_version_number     2014/7
_shelx_space_group_comment
;
The symmetry employed for this shelxl refinement is uniquely defined
by the following loop, which should always be used as a source of
symmetry information in preference to the above space-group names.
They are only intended as comments.
;
_shelx_estimated_absorpt_t_max   0.485
_shelx_estimated_absorpt_t_min   0.189
_olex2_refinement_description
;
1. Shared sites
{Te02, S01}
2. Uiso/Uaniso restraints and constraints
Uanis(Te02) = Uanis(S01)
3. Others
 Sof(S01)=0.125*(1-FVAR(2))
 Sof(Te02)=0.125*FVAR(2)
 Fixed Sof: Cs01(0.0625)
;
_shelx_res_file
;
    qwer.res created by SHELXL-2014/7

TITL qwer_a.res in P4/mmm
REM Old TITL qwer in P-421m #113
REM SHELXT solution in P4/mmm
REM R1 0.247, Rweak 0.013, Alpha 0.035, Orientation as input
REM Formula found by SHELXT: Se4 Ag3 Cs2
CELL 0.71073 4.4637 4.4637 11.3355 90 90 90
ZERR 1 0.0006 0.0006 0.0023 0 0 0
LATT 1
SYMM -X,-Y,+Z
SYMM -Y,+X,+Z
SYMM +Y,-X,+Z
SYMM -X,+Y,-Z
SYMM +X,-Y,-Z
SYMM +Y,+X,-Z
SYMM -Y,-X,-Z
SFAC Ag Cs S Te
UNIT 5 1 0.94 2.06
EADP Te02 S01
EXYZ Te02 S01

L.S. 50 0 0
PLAN  10
SIZE 0.11742 0.08402 0.03984
TEMP 293(2)
CONN 0 Cs01
LIST 4
MORE -1
CONF
fmap 2 53
acta 52
REM <olex2.extras>
REM <HklSrc "%.\\qwer.hkl">
REM </olex2.extras>

WGHT    0.043100    0.041300
EXTI    0.026182
FVAR       0.51513   0.52967
CS01  2    0.500000    0.500000    0.000000    10.06250    0.05449    0.05449 =
         0.04095    0.00000    0.00000    0.00000
TE01  4    0.500000    0.500000    0.500000    10.06250    0.04163    0.04163 =
         0.02962    0.00000    0.00000    0.00000
TE02  4    0.000000    0.000000    0.185300    20.12500    0.02880    0.02880 =
         0.04097    0.00000    0.00000    0.00000
AG01  1    0.000000    0.000000    0.500000    10.06250    0.04406    0.04406 =
         0.05862    0.00000    0.00000    0.00000
AG02  1    0.000000    0.500000    0.314590    10.25000    0.07875    0.04336 =
         0.05928    0.00000    0.00000    0.00000
S01   3    0.000000    0.000000    0.185300   -20.12500    0.02880    0.02880 =
         0.04097    0.00000    0.00000    0.00000
HKLF 4

REM  qwer_a.res in P4/mmm
REM R1 =  0.0288 for     212 Fo > 4sig(Fo)  and  0.0319 for all     231 data
REM     16 parameters refined using      0 restraints

END

WGHT      0.0431      0.0413

REM Highest difference peak  1.245,  deepest hole -1.050,  1-sigma level  0.374
Q1    1   0.0000  0.0000  0.1573  10.12500  0.05    1.25
Q2    1   0.5000  0.5000  0.4665  10.12500  0.05    1.18
Q3    1   0.0000  0.5000  0.3528  10.25000  0.05    1.16
Q4    1   0.0000  0.5763  0.0000  10.25000  0.05    1.05
Q5    1   0.5000  0.0731  0.0000  10.25000  0.05    1.04
Q6    1   0.5000  0.5000 -0.1683  10.12500  0.05    1.03
Q7    1   0.5000  0.5000  0.0745  10.12500  0.05    0.82
Q8    1   0.7359  0.7359  0.0000  10.25000  0.05    0.78
Q9    1   0.0000 -0.1071  0.0000  10.25000  0.05    0.72
Q10   1   0.0000  0.0000  0.2401  10.12500  0.05    0.62
;
_shelx_res_checksum              35045
_shelx_hkl_file
;
   0   1   0   19.40    4.60
   0  -1   0   18.90    4.00
  -1   1   0  290.27    4.70
  -1  -1   0  293.27    5.30
   1  -1   0  285.47    5.10
   1   1   0  307.77    6.10
  -1   2   0   48.10    2.30
   1  -2   0   53.19    2.90
   2   1   0   53.49    3.20
   0  -2   0 9999.00   30.70
  -2   1   0   49.60    2.10
   1   2   0   60.89    5.80
   2  -1   0   52.79    2.30
  -1  -2   0   52.79    3.70
  -2  -2   0 7431.16   16.60
   2  -2   0 7859.41   18.20
   2   2   0 7518.35   20.20
   3   2   0    7.10    2.80
   2  -3   0    5.90    4.00
  -2   3   0    3.80    2.60
  -1   3   0  219.18    3.20
   3   1   0  237.48    3.80
   1  -3   0  207.68    5.00
   0  -3   0    4.40    3.50
   3   0   0    1.50    1.70
   0   3   0    2.60    3.10
   1   3   0  201.98    5.50
  -1  -3   0  230.98    4.00
   3  -1   0  233.58    3.10
  -3   2   0    5.30    2.50
  -2  -3   0    7.40    3.10
   3  -2   0    6.40    3.00
   2   3   0    5.80    5.30
  -3   3   0  169.38    3.30
   3   3   0  169.38    4.50
   3  -3   0  169.48    4.20
  -3   4   0   24.40    2.30
   3  -4   0   24.60    5.40
   4   3   0   28.70    4.80
  -2   4   0 1667.03    7.00
   4   2   0 1805.02    8.60
   2  -4   0 1574.04    9.30
  -1   4   0   75.09    3.30
   4   1   0   85.39    2.50
   1  -4   0   65.19    5.90
   0  -4   0 2957.30   14.50
   4   0   0 2751.62    8.30
   0   4   0 2750.42    9.90
   4  -1   0   84.19    3.10
  -1  -4   0   86.19    4.40
   1   4   0   75.79    4.60
   2   4   0 1568.44   11.20
   4  -2   0 1713.33    7.60
  -2  -4   0 1685.43    7.90
   4  -3   0   19.40    3.90
   3   4   0   24.30    5.40
  -3  -4   0   24.20    3.30
   4   4   0  421.96    8.70
   4  -4   0  391.26    6.10
  -4   4   0  393.56    4.10
   3  -5   0   51.09    6.60
  -3   5   0   49.70    2.90
   5   3   0   51.59    4.20
  -2   5   0    3.40    3.40
   5   2   0    2.40    4.70
   2  -5   0    4.60    6.30
  -1   5   0   89.19    3.70
   1  -5   0  100.49    7.50
   5   1   0   91.29    4.00
   5   1   0   81.59    3.10
   0   5   0    0.10    2.50
   0  -5   0    1.00    4.90
   5   0   0    0.10    2.30
   5   0   0    0.30    2.80
   1   5   0   85.59    4.30
  -1  -5   0   82.99    3.60
   5  -1   0   87.89    2.80
   2   5   0    3.40    5.50
  -2  -5   0    2.90    3.70
   5  -2   0    3.40    2.80
   5  -3   0   52.19    3.50
   3   5   0   46.90    8.00
  -3  -5   0   51.59    4.60
   1  -6   0   39.40    7.40
  -1   6   0   27.70    4.40
   6   1   0   33.00    3.50
   6   1   0   28.40    3.30
   6   0   0  294.57    4.20
   0  -6   0  315.57    7.70
   6   0   0  307.07    4.90
   0   6   0  301.97    5.40
   1   6   0   27.60    5.20
   6  -1   0   28.30    4.40
  -1  -6   0   31.00    4.30
   0   0   1  881.71   23.40
   0   0  -1  903.01   23.60
   0  -1  -1   -0.40    3.30
   0   1   1   66.79    5.10
   1   0   1   66.99    2.80
   0  -1   1   66.59    4.30
   0   1  -1   63.69    4.10
   1  -1   1  444.06    5.60
   1   1  -1  443.56    6.10
  -1  -1  -1  432.86    5.60
  -1   1  -1  429.66    5.10
   1   1   1  450.85    7.40
  -1  -1   1  447.16    6.40
   1  -1  -1  466.55    6.60
  -1   1   1  415.86    5.20
   1  -2  -1   37.70    3.10
   2   1   1   42.00    2.50
   1  -2   1   42.40    3.40
  -1   2   1   35.60    2.70
  -1   2  -1   38.50    2.90
   2   1  -1   37.70    2.30
   0  -2   1  670.23    7.80
   0   2  -1  717.73    6.90
   0   2   1  764.62    7.70
   0  -2  -1  771.12    9.70
   2   0   1  736.73    5.60
   2  -1   1   41.20    2.70
   1   2  -1   39.40    5.00
  -1  -2  -1   65.39    3.70
  -2   1  -1   39.50    2.00
   1   2   1   38.80    4.60
   2  -1  -1   44.40    3.20
  -1  -2   1   35.80    3.80
   2  -2  -1  404.06    4.80
   2  -2   1  397.56    4.70
  -2  -2  -1  363.26    3.90
  -2  -2   1  381.66    4.20
  -2   2  -1  382.16    4.20
   2   2   1  399.16    5.50
   2   2  -1  395.86    4.90
  -2   2   1  363.86    3.70
   3   2   1    3.10    3.70
  -2   3   1    0.90    1.70
   3   2  -1    1.20    3.20
   2  -3  -1    0.60    3.60
   2  -3   1   -0.20    2.70
  -2   3  -1   12.70    2.90
  -1   3   1   81.49    3.00
   3   1  -1   80.29    2.40
  -1   3  -1   88.09    3.20
   3   1   1   90.99    3.30
   1  -3  -1   75.49    3.80
   1  -3   1   78.49    3.40
   0  -3  -1    1.30    4.70
   0  -3   1    2.20    3.40
   0   3  -1    1.20    3.30
   0   3   1   -0.60    2.90
   3   0   1    0.90    2.10
   3  -1   1   84.29    2.80
   1   3   1   70.49    3.60
   3  -1  -1   87.69    3.00
  -1  -3   1   85.79    4.20
   1   3  -1   74.49    4.00
  -1  -3  -1   78.09    2.90
   3  -2   1    2.50    1.90
   3  -2  -1    2.30    2.50
   2   3   1   15.40    5.80
  -2  -3  -1    2.50    2.00
  -2  -3   1    0.20    3.30
   2   3  -1    3.00    3.80
  -3   2  -1    2.40    2.30
  -3   3  -1   23.40    2.50
  -3   3   1   21.40    2.30
  -3  -3   1   15.80    2.90
   3  -3  -1   19.80    3.80
   3   3  -1   25.40    4.60
   3  -3   1   19.70    3.50
   3   3   1   20.00    5.60
  -3   4  -1   -2.10    3.20
   4   3   1   -4.00    4.80
  -3   4   1    7.50    2.20
   3  -4  -1    5.20    5.10
   4   3  -1    4.70    3.20
   3  -4   1    2.70    4.80
  -2   4  -1   58.59    3.40
   2  -4  -1   57.79    5.00
   4   2   1   64.99    4.30
   4   2  -1   66.69    3.70
   2  -4   1   59.89    4.60
  -2   4   1   60.79    2.30
   4   1   1    5.10    1.80
  -1   4   1    1.10    2.80
   1  -4   1   10.00    5.00
   1  -4  -1    5.50    4.20
   4   1  -1    6.90    2.60
   4   1   1    6.70    2.90
  -1   4  -1    6.00    2.70
   0   4   1  115.59    3.00
   0  -4   1  112.59    6.40
   4   0  -1  116.89    2.80
   4   0   1  109.69    2.30
   4   0  -1  106.49    2.50
   0  -4  -1  111.39    4.20
   0   4  -1  106.59    3.20
   1   4   1    3.80    2.80
   4  -1   1    6.40    2.60
   1   4  -1    5.10    3.10
  -1  -4   1    6.80    4.30
   4  -1  -1    5.80    2.00
  -1  -4  -1    6.20    3.40
   4  -2   1   61.39    2.50
  -2  -4   1   60.79    4.10
   4  -2  -1   63.69    3.50
  -2  -4  -1   60.79    3.30
   2   4   1   54.99    5.70
   2   4  -1   56.59    4.40
  -3  -4   1   -1.00    2.80
   3   4  -1   -4.20    6.60
   3   4   1    7.20    7.60
   4  -3  -1   -0.20    3.30
   4  -3   1    2.40    2.80
   4  -4  -1    9.40    5.50
   4   4  -1   18.00    6.70
  -4   4  -1   12.00    3.10
   4   4   1   18.00    6.20
   4  -4   1   16.30    4.90
  -3   5  -1    2.40    2.70
   3  -5   1   10.40    5.80
   3  -5  -1    5.70    6.90
   5   3   1    3.70    5.20
   5   3  -1    5.70    4.70
  -3   5   1    5.20    3.10
   2  -5   1    2.30    4.60
  -2   5  -1    5.70    3.20
   5   2  -1    5.50    3.90
   2  -5  -1    4.10    5.20
  -2   5   1    2.60    2.30
   5   2   1    2.30    3.50
   1  -5  -1    5.90    7.10
  -1   5  -1    8.40    3.60
  -1   5   1    5.80    3.10
   5   1  -1    6.70    3.10
   5   1  -1    7.90    3.10
   1  -5   1    8.50    5.20
   5   1   1    9.90    2.90
   5   1   1    8.40    4.20
   5   0  -1    7.10    3.00
   5   0  -1   12.60    3.20
   0  -5  -1    4.70    3.80
   5   0   1    7.00    2.40
   0  -5   1    6.60    5.90
   0   5   1    3.10    3.30
   0   5  -1    6.60    3.70
   5   0   1    4.90    2.70
  -1  -5  -1    7.90    3.80
   1   5   1    5.40    4.30
   5  -1  -1    7.40    2.60
   1   5  -1    6.30    4.80
  -1  -5   1    6.80    5.00
   5  -1   1    7.90    2.90
  -2  -5  -1    5.10    3.40
   5  -2   1    4.30    2.50
   5  -2  -1    4.10    3.60
   2   5  -1   10.30    6.00
   2   5   1    3.90    3.80
  -2  -5   1    2.00    4.00
   5  -3   1   10.20    4.50
   5  -3  -1    2.80    4.30
   3   5  -1   10.60    6.40
   3   5   1   13.30    7.00
  -3  -5   1    2.80    3.10
  -3  -5  -1    2.30    2.80
   6   1  -1    3.80    3.80
   1  -6   1    2.10    6.60
   1  -6  -1    6.90    5.30
  -1   6  -1    0.00    4.00
   6   1  -1    6.60    3.70
   6   1   1    4.40    4.50
   6   1   1    2.10    4.00
  -1   6   1   -0.30    3.60
   6   0   1   13.40    4.40
   0   6   1    7.50    3.90
   6   0  -1   11.60    3.60
   6   0   1   12.00    2.90
   0  -6  -1    3.90    5.40
   0   6  -1    8.50    4.20
   0  -6   1    7.30    6.40
   6   0  -1   11.60    3.20
   1   6   1    2.10    3.50
  -1  -6   1    1.70    6.20
   6  -1  -1    3.50    3.90
   1   6  -1    3.70    5.40
  -1  -6  -1   -0.30    3.60
   6  -1  -1   -1.60    3.30
   0   0  -2   89.79    7.30
   0   0   2   89.19    7.30
   0  -1   2 1619.94   12.80
   0   1  -2 1691.13   13.30
   1   0  -2 1774.72   11.00
   1   0   2 1754.22   10.90
   0  -1  -2 1726.23   23.00
   0   1   2 1706.03   18.50
  -1   0  -2 1785.52   11.70
  -1   1  -2 5968.50   17.50
   1   1   2 5916.11   24.50
   1  -1  -2 2765.42   15.50
  -1  -1   2 6044.79   20.30
   1   1  -2 6069.29   20.10
   1  -1   2 5866.51   17.10
   1  -2   2 1075.59    7.10
  -1   2   2 1051.69    7.20
  -2  -1   2 1086.79    6.90
   2   1   2 1123.79    7.60
   2   1  -2 1091.49    6.90
  -1   2  -2 1088.09    6.80
   1  -2  -2 1088.09    9.60
   0  -2   2   26.70    3.20
   0  -2  -2   30.60    4.70
   0   2   2   26.70    3.40
   2   0  -2   28.00    2.40
   0   2  -2   24.50    2.90
   2   0   2   32.80    2.50
   2  -1  -2 1201.18    8.00
   1   2   2 1114.69   11.40
   1   2  -2 1140.29    9.30
  -1  -2   2 1127.59    8.80
   2  -1   2 1082.79    6.50
  -2   1  -2 1109.19    6.40
  -1  -2  -2  824.32    6.90
   2  -2   2    7.10    2.70
  -2  -2   2   10.50    2.90
   2   2   2    7.20    3.10
  -2   2   2    5.90    2.10
   2   2  -2    7.30    2.50
   2  -2  -2    8.60    3.50
  -2   2  -2    6.10    2.50
  -2   3   2  308.97    3.70
   3   2  -2  318.47    3.80
   3   2   2  317.47    4.80
  -2   3  -2  325.77    3.80
   2  -3  -2  301.67    5.80
   2  -3   2  300.07    4.40
   3   1   2 1787.02    8.80
   1  -3  -2 1566.34   11.70
  -1   3   2 1538.25    7.40
   3   1  -2 1620.74    7.20
  -1   3  -2 1590.44    7.50
   1  -3   2 1478.75    8.30
   3   0   2  386.36    3.50
   0  -3   2  387.26    5.60
   3   0  -2  400.76    3.50
   0  -3  -2  422.36    6.00
   0   3   2  407.56    5.10
   0   3  -2  391.16    4.70
   1   3   2 1470.25   10.20
   3  -1   2 1599.74    6.80
   1   3  -2 1416.46    8.90
  -1  -3   2 1607.64    9.50
  -1  -3  -2 1573.94    8.80
   3  -1  -2 1645.94    7.80
  -3   2  -2  331.87    3.80
  -2  -3   2  313.57    4.60
   2   3  -2  337.17    6.10
   3  -2   2  308.37    3.80
   3  -2  -2  332.17    4.90
   2   3   2  324.97    7.90
  -2  -3  -2  315.57    4.10
  -3  -3   2  444.16    4.30
  -3   3   2  427.56    4.00
   3  -3  -2  436.06    5.40
   3   3   2  484.35    8.10
  -3   3  -2  479.45    4.40
   3  -3   2  466.95    5.00
   3   3  -2  456.75    5.20
   4   3   2  124.59    5.70
   4   3  -2  123.89    4.90
  -3   4   2  119.29    3.20
   3  -4   2  121.69    4.70
   3  -4  -2  110.49    6.20
  -3   4  -2  120.59    3.70
   2  -4  -2   -1.20    5.10
  -2   4   2    3.00    2.50
  -2   4  -2    0.20    2.90
   4   2  -2    0.50    2.30
   2  -4   2    2.00    4.10
   4   2   2    1.70    3.00
  -1   4   2  338.07    4.10
   4   1   2  331.47    3.60
  -1   4  -2  335.67    4.20
   1  -4   2  305.07    4.90
   4   1  -2  355.46    4.10
   4   1   2  385.36    5.00
   1  -4  -2  339.47    6.90
   0  -4   2   -0.60    3.80
   0  -4  -2    1.10    4.20
   4   0  -2   17.40    2.40
   0   4  -2    4.40    3.30
   0   4   2    2.50    2.90
   4   0  -2    4.90    2.50
   4   0   2    9.70    2.30
   1   4   2  339.67    5.50
   1   4  -2  324.77    5.00
  -1  -4   2  335.17    6.10
  -1  -4  -2  340.37    4.40
   4  -1   2  355.66    3.70
   4  -1  -2  341.57    3.80
  -2  -4   2    3.00    2.90
   2   4   2    2.50    3.50
   4  -2  -2    0.60    2.90
   2   4  -2    2.20    4.70
   4  -2   2    0.60    2.80
  -2  -4  -2    1.50    3.00
   4  -3  -2  108.49    4.00
   4  -3   2  115.29    3.10
   3   4  -2  126.19    5.80
  -4   3  -2  118.59    2.80
   3   4   2  110.69    7.30
  -3  -4   2  113.49    3.30
   4   4  -2    6.90    5.40
  -4   4  -2    2.00    2.80
   4  -4   2   -1.20    4.30
   4   4   2   -0.10    9.70
   4  -4  -2    0.20    4.50
   5   3  -2   47.20    3.80
   3  -5  -2   24.70    7.10
   5   3   2   37.10    5.90
  -3   5  -2   43.70    3.20
   3  -5   2   44.20    4.90
  -3   5   2   37.00    2.70
   2  -5   2   39.80    5.70
  -2   5   2   39.70    3.10
   2  -5  -2   42.50    6.20
   5   2   2   32.80    2.50
  -2   5  -2   42.50    4.00
   5   2  -2   38.80    3.80
   5   2   2   41.50    4.80
  -1   5   2  153.08    3.80
   1  -5   2  134.99    5.50
   5   1   2  170.28    3.90
  -1   5  -2  154.88    4.00
   1  -5  -2  161.28    6.50
   5   1  -2  156.48    3.00
   5   1   2  149.88    3.40
   0   5   2   47.20    3.50
   5   0   2   48.00    2.40
   5   0  -2   49.30    3.60
   5   0  -2   54.19    3.00
   0   5  -2   48.00    3.10
   0  -5  -2   48.50    4.30
   0  -5   2   48.00    6.40
   1   5  -2  160.38    5.30
   5  -1   2  159.48    3.40
   1   5   2  153.78    4.50
  -1  -5  -2  149.39    3.80
   5  -1  -2  165.58    4.30
  -1  -5   2  165.18    5.70
   2   5   2   33.80    3.80
   2   5  -2   37.20    6.60
  -2  -5   2   46.20    4.50
  -2  -5  -2   44.40    3.50
   5  -2   2   42.10    2.60
   5  -2  -2   41.40    4.00
  -3  -5   2   46.50    4.90
   3   5   2   41.80    5.30
   5  -3   2   35.60    3.80
   5  -3  -2   42.40    4.50
   3   5  -2   49.60    6.20
   0  -6   2    8.40    7.50
   6   0  -2    4.10    4.00
   6   0   2    2.50    3.40
   0  -6  -2    5.90    5.60
   0   6   2    2.70    4.30
   0   6  -2   -0.60    4.30
   6   0  -2    3.20    3.80
   6   0   2   -0.10    3.40
   0   0   3  639.94   12.10
   0   0  -3  667.63   12.50
  -1   0  -3 1951.20   12.60
   1   0  -3 1754.72   10.80
   1   0   3 1771.92   10.60
   0   1  -3 1750.92   12.40
   0  -1   3 1717.73   11.70
  -1   0   3 1870.31   12.70
   1   1   3 7377.16   28.60
  -1  -1   3 7621.14   22.90
   1   1  -3 7581.44   21.40
  -1   1  -3 7404.56   19.30
  -1   2   3  753.82    6.40
  -2  -1   3  785.22    6.00
   2   1   3  839.52    7.40
   2   1  -3  778.52    5.80
  -1   2  -3  791.72    6.20
   1  -2   3  782.32    6.20
   1  -2  -3  753.32    9.10
   0   2  -3  180.18    4.80
   0  -2   3  174.78    4.20
   0   2   3  174.98    4.60
   2   0  -3  172.68    3.20
   0  -2  -3  185.58    6.00
   2   0   3  176.38    3.20
   2  -1  -3  869.11    7.30
   1   2  -3  796.02    7.10
  -1  -2  -3  773.72    6.80
  -1  -2   3  729.43    6.90
   1   2   3  795.52   10.40
  -2   1  -3  797.92    5.60
   2  -1   3  774.82    5.40
  -2   2  -3   39.70    2.80
   2  -2  -3   51.39    4.10
  -2  -2   3   39.90    2.50
   2   2   3   40.60    4.90
   2  -2   3   36.80    2.70
   2   2  -3   32.80    2.60
   3   2   3  404.16    6.00
   3   2  -3  394.46    4.00
  -2   3   3  382.06    4.00
   2  -3  -3  356.16    5.50
  -2   3  -3  410.06    4.40
   2  -3   3  412.46    4.60
   3   1   3 2626.94   10.40
   1  -3   3 2309.27    9.80
  -1   3   3 2381.46    9.60
  -1   3  -3 2380.86    8.70
   3   1   3 2285.27    7.90
   1  -3  -3   65.99    5.40
   3   1  -3 2520.55    8.60
   0   3  -3  716.73    5.80
   0   3   3  738.03    6.40
   0  -3   3  753.12    7.10
   3   0   3  739.73    4.90
   3   0  -3  770.92    5.00
   0  -3  -3  759.12    7.90
  -1  -3   3 2291.67   10.40
   1   3   3 2350.56   12.60
   1   3  -3 2270.47    9.90
   3  -1   3 2445.96    8.10
  -1  -3  -3 2440.66   10.80
   3  -1  -3 2568.84   10.20
  -2  -3   3  393.66    4.50
  -3   2  -3  419.86    4.20
   3  -2  -3  415.26    4.90
   2   3  -3  426.86    5.90
   3  -2   3  400.96    3.90
   2   3   3  417.36    7.50
   3   3  -3  906.41    6.30
   3   3   3  907.01    9.20
  -3   3  -3  953.70    5.60
   3  -3  -3  852.51    7.90
   3  -3   3  918.91    6.00
  -3  -3   3  906.41    6.20
  -3   4   3   73.49    3.10
   4   3   3   72.89    6.10
  -3   4  -3   82.59    3.00
   4   3  -3   76.99    4.30
   3  -4   3   78.19    3.60
   3  -4  -3   61.89    6.50
   2  -4  -3    8.80    5.50
   4   2   3    8.40    4.90
  -2   4  -3    8.10    3.20
   4   2  -3    3.30    3.20
  -2   4   3    8.00    2.20
   2  -4   3    6.30    3.00
   4   1   3  127.29    3.40
   4   1   3  106.09    2.90
   1  -4  -3   57.09    4.60
   4   1  -3  122.39    3.00
   1  -4   3  108.69    4.40
  -1   4   3  113.59    3.20
  -1   4  -3  119.29    3.70
   0  -4  -3   -0.30    3.50
   4   0  -3    7.60    1.80
   0   4  -3   -0.20    2.60
   4   0  -3   -0.70    3.00
   0   4   3   -1.10    2.70
   4   0   3    0.50    1.70
   0  -4   3    2.90    3.40
   1   4   3  110.99    4.20
   1   4  -3  118.69    4.80
   4  -1  -3  116.69    3.10
  -1  -4   3  102.99    4.70
   4  -1   3  105.79    2.80
  -1  -4  -3   -0.10    2.90
   4  -2   3    5.60    2.00
  -2  -4   3    5.00    3.80
   4  -2  -3    3.30    3.90
  -2  -4  -3    3.80    2.50
   2   4   3    2.30    3.30
   2   4  -3   12.50    4.30
   4  -3  -3   68.39    3.70
   3   4   3   82.19    7.50
   3   4  -3   99.39    4.60
   4  -3   3   72.09    2.70
  -3  -4   3   75.99    4.60
  -4   3  -3   84.59    3.50
  -4   4  -3   11.10    3.40
   4   4  -3   14.80    4.20
   4   4   3   16.90    8.90
   4  -4  -3   14.50    6.50
   4  -4   3   11.80    4.00
  -3   5   3  144.39    4.00
   5   3   3  113.29    6.90
  -3   5  -3  169.08    4.40
   3  -5  -3  156.58    7.90
   3  -5   3  146.69    4.90
   5   3  -3  132.99    4.90
   5   2   3  115.49    6.00
   5   2   3  100.49    3.20
   5   2  -3  105.19    4.00
  -2   5   3  101.99    3.30
   2  -5   3   85.79    4.60
   2  -5  -3  101.89    6.20
  -2   5  -3  108.99    4.30
   5   1  -3  387.46    4.10
   5   1   3  454.05    6.30
   1  -5   3  367.26    6.90
   1  -5  -3  420.46    6.90
  -1   5  -3  408.16    5.30
  -1   5   3  386.06    4.60
   5   1   3  397.76    4.40
   5   0  -3  180.68    3.50
   0  -5  -3   -0.90    3.40
   0   5   3  175.38    4.00
   5   0  -3  177.08    3.00
   0   5  -3  172.38    4.80
   5   0   3  180.98    3.10
   0  -5   3  176.98    6.40
   5  -1  -3  412.86    4.40
   5  -1  -3  438.46    5.30
  -1  -5   3  375.26    6.60
   5  -1   3  394.76    4.30
  -1  -5  -3  408.16    5.30
   1   5   3  412.56    5.60
   1   5  -3  398.96    6.70
   2   5  -3   88.09    4.70
  -2  -5   3  100.29    5.50
   5  -2  -3  104.09    5.10
   2   5   3   96.49    5.40
   5  -2   3  107.19    3.40
  -2  -5  -3  119.09    3.70
  -3  -5   3  138.29    4.50
   3   5  -3  115.39    5.20
   5  -3   3  153.88    3.60
   5  -3  -3  133.29    5.40
   3   5   3  134.99    6.50
   0  -6   3    7.50    4.90
   0   0  -4 2562.54   19.40
   0   0   4 2526.75   19.50
   0   1  -4  489.05    6.90
  -1   0  -4  557.14    7.20
   0  -1   4  498.45    7.00
   1   0  -4  518.85    6.30
   1   0   4  488.35    5.40
  -1   0   4  533.45    7.40
   1  -1  -4 2558.74   17.10
  -1   1  -4 2354.16   11.10
   1   1   4 2128.29   12.20
   1   1   4 2364.36   17.10
  -1  -1   4 2208.28   11.50
   1   1  -4 2410.26   11.80
   1  -1   4 2290.77   10.20
  -1   2  -4  261.47    3.70
   1  -2   4  263.27    4.10
  -2  -1   4  285.77    4.20
   2   1  -4  272.37    4.10
   2   1   4  245.18    3.40
   1  -2  -4  263.47    6.70
  -1   2   4  250.17    4.10
   0   2  -4 1375.26    8.70
   2   0   4 1323.37    6.90
   0  -2   4 1364.06    8.90
   2   0  -4 1389.46    7.20
   0  -2  -4 1355.36   13.20
   0   2   4 1286.47   11.20
  -1  -2   4  239.88    4.50
   2  -1  -4  278.97    5.10
  -2   1  -4  280.87    3.70
   1   2  -4  275.27    4.90
   2  -1   4  276.77    3.60
   1   2   4  282.77    7.90
   2   2   4  824.62    9.60
  -2  -2   4  801.22    5.90
   2   2  -4  796.62    5.80
   2  -2  -4  774.12    7.50
  -2   2  -4  800.62    5.30
   2  -2   4  774.92    5.00
   3   2   4   88.79    4.10
  -2   3   4   89.39    2.70
   3   2  -4   91.69    2.50
  -3  -2   4   97.69    3.50
  -2   3  -4   94.19    3.30
   2  -3  -4    0.10    3.30
   2  -3   4   94.69    2.60
   1  -3  -4  736.43    8.50
   3   1   4  696.23    4.70
   1  -3   4  692.33    5.30
  -1   3   4  728.43    5.80
   3   1  -4  741.43    5.00
  -1   3  -4  719.43    5.60
   0  -3  -4  162.08    4.90
   3   0   4  149.69    2.50
   0  -3   4  157.58    3.80
   0   3   4  156.88    3.70
   3   0  -4  164.58    3.20
   0   3  -4  159.58    4.30
  -1  -3   4  639.84    5.40
   1   3   4  704.93    7.60
   1   3  -4  707.83    6.20
  -3   1  -4  790.72    5.60
  -1  -3  -4  733.63    6.40
   3  -1  -4  737.63    6.30
   3  -1   4  715.63    4.90
  -2  -3   4   91.49    2.90
  -3   2  -4   93.09    2.50
   2   3  -4   96.79    4.20
   3  -2   4   97.39    2.30
   2   3   4   97.19    5.50
   3  -2  -4   95.79    4.60
   3   3   4  260.17    6.80
  -3  -3   4  261.67    3.80
   3  -3  -4  237.58    5.90
   3   3  -4  291.37    4.70
  -3   3  -4  289.67    4.00
   3  -3   4  273.87    3.40
   4   3   4   22.10    5.40
  -3   4  -4   28.10    2.60
   3  -4   4   20.20    3.60
   4   3  -4   18.80    3.90
   3  -4  -4   18.50    6.60
   2  -4  -4   -2.00    4.70
   4   2   4  153.78    2.90
   4   2   4  164.98    5.70
   4   2  -4  161.48    2.90
  -2   4  -4  180.88    3.90
   2  -4   4  165.98    4.10
  -2   4   4  161.38    3.40
   4   1   4   60.09    4.30
  -1   4   4   54.49    2.80
   1  -4  -4   58.69    5.10
  -1   4  -4   53.89    2.70
   1  -4   4   49.90    4.00
   4   1   4   53.29    2.40
   4   1  -4   51.79    2.30
   4   0   4  267.37    3.40
   0   4   4  267.47    4.30
   4   0  -4  268.67    3.00
   0  -4   4  278.07    5.40
   0  -4  -4  269.47    4.90
   0   4  -4  264.67    3.90
   1   4   4   53.09    3.60
   4  -1  -4   58.19    2.60
   1   4  -4   52.69    4.30
   4  -1  -4   57.89    3.90
  -1  -4   4   60.59    3.90
   4  -1   4   52.29    2.20
  -1  -4  -4   56.99    3.00
   2   4  -4  190.78    3.90
   2   4   4  157.58    5.40
   4  -2  -4  166.68    5.00
   4  -2   4  162.38    2.70
  -2  -4   4  159.58    3.70
  -3  -4   4   22.60    4.10
   4  -3  -4   14.90    5.00
   3   4  -4   25.80    4.90
   3   4   4   23.30    5.80
  -4   3  -4   25.00    2.60
   4  -3   4   19.20    2.50
  -4   4  -4   44.80    3.00
   4   4  -4   39.80    5.40
   4   4   4   39.00    7.50
   4  -4  -4   35.30    7.50
   4  -4   4   34.40    3.20
   3  -5  -4   37.00    6.70
   3  -5   4   39.90    4.40
  -3   5  -4   50.69    4.10
   5   3   4   33.30    3.50
   5   3   4   34.80    7.00
   5   3  -4   36.10    4.50
   5   2  -4   13.10    2.80
   2  -5   4   10.10    4.10
   5   2   4    8.80    5.40
   2  -5  -4   -1.40    5.80
   5   2   4   13.30    2.30
  -2   5   4   12.70    2.80
  -2   5  -4   16.10    4.20
   5   1   4  108.69    5.10
   5   1   4  103.39    2.70
   1  -5   4  103.89    4.70
  -1   5  -4   91.09    3.30
   5   1  -4  108.09    3.50
   1  -5  -4  111.89    5.60
  -1   5   4   99.59    3.60
   5   0  -4   23.50    4.20
   5   0   4   20.10    3.00
   0  -5  -4   22.20    4.00
   5   0  -4   21.30    2.90
   0   5  -4   18.60    4.00
   0   5   4   21.60    3.60
   0  -5   4   18.60    5.60
  -1  -5   4   88.29    3.90
   5  -1  -4  106.99    4.90
   5  -1   4  103.19    3.50
   5  -1  -4  102.09    2.70
  -1  -5  -4  105.29    4.20
   1   5   4  102.29    4.10
   1   5  -4  102.69    4.90
  -2  -5   4   14.40    4.50
   2   5   4   12.50    4.20
   2   5  -4    9.90    4.80
  -2  -5  -4   11.60    3.40
   5  -2  -4   15.10    4.80
   5  -2   4   14.10    2.90
  -3  -5   4   34.20    4.10
   3   5  -4   32.70    4.40
   5  -3  -4   35.80    5.30
   3   5   4   32.80    6.10
   5  -3   4   34.00    3.00
   0   0   5 2035.80   15.90
   0   0  -5 1980.90   15.10
   0   1  -5   42.70    2.90
   1   0  -5   46.00    3.40
  -1   0   5   50.49    4.60
  -1   0  -5   49.70    4.00
   0  -1   5   43.40    3.10
   1   0   5   41.40    2.80
   1  -1  -5 2294.37   16.90
   1   1   5 2119.19   12.90
  -1   1  -5 2127.99   10.40
  -1  -1   5 1951.80   10.40
   1  -1  -5 2162.58   12.80
   1   1  -5 2215.38   11.00
   1  -1   5 2163.48    9.60
   1  -2   5   18.20    2.70
   2   1  -5   13.10    2.80
   2   1   5   15.20    2.10
  -1   2  -5   15.40    3.00
   1  -2  -5   21.80    5.20
  -2  -1   5   17.80    3.60
   0   2  -5  905.61    6.80
   0   2   5  819.22   13.40
   0  -2  -5  864.11   14.20
   2   0   5  875.81    5.60
   0  -2   5  874.41    6.60
  -2   0  -5  992.00    7.60
   2   0  -5  897.61    6.00
  -2   1  -5   18.00    2.30
   2  -1  -5   15.00    2.10
  -1  -2   5   17.90    3.00
   2  -1  -5   25.00    2.60
   1   2   5   17.00    5.10
   2  -1   5   16.40    1.80
   1   2  -5   14.80    3.30
  -2  -2   5  387.06    4.30
   2  -2  -5  407.46    6.90
  -2   2  -5  432.66    4.20
   2   2   5  415.46    7.60
   2   2  -5  448.06    5.00
   2  -2   5  417.16    4.20
   3   2  -5   50.19    2.30
   2  -3   5   47.30    2.80
   3   2   5   39.90    4.90
   3   2   5   46.80    2.40
  -2   3  -5   46.20    2.30
  -3  -2   5   47.40    3.40
   2  -3  -5   46.70    4.80
   3   1   5  565.94    4.30
   1  -3   5  581.14    4.70
   1  -3  -5  578.94    8.10
   3   1  -5  613.24    4.90
  -1   3  -5  588.64    5.20
  -1   3   5  575.74    5.80
   3   0   5   86.79    2.50
   3   0  -5   85.79    2.30
   0   3   5   89.09    3.60
   0  -3  -5   87.69    3.90
   0  -3   5   93.09    3.20
   0   3  -5   89.99    2.90
   1   3   5  589.54    7.50
  -3   1  -5  652.03    5.50
  -1  -3   5  547.85    5.30
   3  -1  -5  594.94    6.10
   3  -1  -5  573.24    4.00
   1   3  -5  575.44    5.20
   3  -1   5  572.34    4.10
  -2  -3   5   41.50    3.30
  -3   2  -5   46.00    3.00
   3  -2  -5   42.90    4.40
   2   3  -5   43.30    3.70
   2   3   5   49.40    4.60
   3  -2   5   45.10    2.00
   3   3   5  192.78    6.10
  -3   3  -5  208.08    4.00
  -3  -3   5  194.68    3.40
   3   3  -5  201.08    4.40
   3  -3  -5  171.58    6.60
   3  -3   5  190.08    3.60
   3  -4   5   12.70    3.90
   4   3   5    9.50    2.50
  -3   4  -5   10.10    2.70
   4   3   5    7.30    5.00
   4   3  -5   11.10    2.80
   3  -4  -5   11.90    5.30
   4   2  -5   48.90    2.40
  -2   4   5   53.09    2.60
   2  -4  -5   99.29    5.20
   2  -4   5   53.29    2.90
   4   2   5   45.30    2.40
  -2   4  -5   49.70    2.50
   4   2   5   47.90    4.20
  -1   4   5    3.40    2.30
   4   1   5   49.10    4.20
  -1   4  -5    5.00    2.40
   4   1   5    1.90    2.30
   1  -4   5    3.70    2.80
   1  -4  -5    6.40    4.20
   4   1  -5    6.30    2.70
   4   0   5  107.59    2.90
   4   0  -5  115.79    3.00
   0  -4  -5  111.99    4.10
   0   4   5  115.39    3.50
   0  -4   5  112.79    3.70
   0   4  -5  111.99    4.10
   1   4  -5    2.90    3.70
   4  -1  -5    6.40    3.90
  -1  -4   5    2.80    3.70
   4  -1   5    2.70    1.90
  -1  -4  -5    2.70    2.60
   4  -1  -5    3.50    2.30
   1   4   5    3.70    3.20
  -4   2  -5   54.19    3.40
   2   4   5   50.19    4.80
   2   4  -5   57.99    3.90
   4  -2  -5   40.80    4.70
   4  -2   5   49.10    2.20
  -2  -4   5   45.60    3.80
  -3  -4   5    8.40    3.60
  -4   3  -5   13.60    2.70
   3   4   5    7.20    5.60
   4  -3  -5   10.90    5.00
   3   4  -5   11.90    3.20
   4  -3   5   13.10    3.40
   4  -4   5    8.10    3.60
  -4   4  -5    9.50    3.70
   4   4  -5    1.90    4.40
   4   4   5    7.80    7.80
   4  -4  -5    1.70    4.80
   5   2   5   28.70    6.00
  -2   5   5   30.40    2.90
   5   2  -5   36.20    3.70
   5   2   5   26.30    2.40
   2  -5   5   29.60    3.80
   2  -5  -5   31.40    6.00
  -2   5  -5   31.20    3.10
   5   1   5   77.49    2.50
   1  -5   5   71.19    5.40
  -1   5  -5   72.89    3.80
   5   1  -5   79.29    3.70
   5   1   5   87.49    5.80
  -1   5   5   71.69    3.30
   1  -5  -5   82.99    5.30
   5   0  -5   52.89    3.00
   5   0   5   54.69    2.30
   0   5   5   49.90    3.70
   0  -5  -5   56.39    4.20
   0   5  -5   48.20    4.50
   5   0  -5   52.19    4.30
   0  -5   5   48.90    3.80
   5  -1  -5   78.99    3.30
  -1  -5  -5   78.69    3.90
   5  -1  -5   73.49    5.10
  -1  -5   5   70.09    3.70
   5  -1   5   75.39    3.30
   1   5   5   75.19    4.20
   1   5  -5   74.69    4.40
   2   5   5   29.50    5.00
  -2  -5   5   24.60    4.70
   5  -2  -5   34.40    2.90
   2   5  -5   33.20    4.30
   5  -2  -5   27.30    4.10
   5  -2   5   27.30    3.20
   0   0   6 7800.42   27.20
   0   1  -6   25.70    3.20
   0  -1   6   26.00    3.40
  -1   0  -6   31.10    3.70
   1   0  -6   24.70    3.20
   1   0   6   24.90    2.60
  -1   0   6   25.70    3.80
   1  -1   6  422.26    4.70
   1  -1  -6  423.96    8.90
   1  -1  -6  416.76    6.60
   1   1  -6  436.36    5.50
  -1   1  -6  436.06    5.10
  -1  -1   6  373.16    4.50
   1   1   6  409.46    6.50
   2   1  -6    1.60    2.70
   2   1   6    3.20    2.00
   1  -2   6    4.30    2.60
  -2  -1   6    6.40    3.50
  -1   2  -6    1.90    2.30
   1  -2  -6    4.20    4.10
   0   2  -6 4459.35   13.00
  -2   0  -6 4656.73   15.30
   2   0  -6 4585.04   12.70
   2   0   6 4520.45   12.20
   0  -2   6 4452.55   13.50
   2  -1  -6    2.80    2.50
  -1  -2   6    4.30    2.90
   1   2   6    2.20    2.70
   1   2  -6    1.70    2.90
   1   2   6    1.60    4.70
  -2   1  -6    4.60    3.00
   2  -1  -6    1.90    2.20
   2  -1   6    2.00    1.70
   2   2   6 2424.86   10.00
  -2  -2   6 2377.56    9.30
  -2   2  -6 2759.22   10.20
   2  -2  -6 2332.27   15.10
   2   2  -6 2816.62    9.90
   2   2   6 2462.85   15.20
   2  -2   6 2662.63    8.80
   2  -3   6    2.00    2.00
   3   2   6    2.90    2.10
   3   2   6    3.20    4.70
  -2   3  -6    2.70    3.00
  -3  -2   6    4.70    3.00
   2  -3  -6    3.90    4.10
   3   2  -6    1.90    3.10
   3   1   6  217.28    3.10
   3   1  -6  212.88    3.10
   1  -3   6  218.38    3.30
   1  -3  -6  225.98    6.50
  -1   3  -6  225.38    3.90
   0   3   6   15.70    3.30
   0  -3   6   10.80    3.50
   3   0   6   12.20    1.70
   0  -3  -6   13.20    3.70
   3   0  -6   14.50    2.40
   0   3  -6   12.60    3.10
   1   3   6  228.58    5.70
  -1  -3   6  211.58    3.80
  -3   1  -6  244.28    4.40
   3  -1  -6  204.48    4.80
   1   3  -6  216.98    3.20
   3  -1   6  221.68    3.40
   3  -1  -6  227.48    3.30
  -3   2  -6    2.20    2.90
   2   3  -6    4.40    2.50
   3  -2  -6    2.10    4.10
   2   3   6    3.20    4.40
   3  -2   6    1.60    2.60
  -2  -3   6    4.30    3.00
   3   3   6  128.29    5.50
   3   3   6  113.19    3.00
  -3   3  -6  130.19    3.50
  -3  -3   6  107.59    3.40
   3   3  -6  118.09    3.10
   3  -3  -6  118.09    5.40
   3  -3   6  122.49    2.70
   3  -4   6    5.10    3.80
   4   3   6    2.80    2.70
   4   3   6    0.50    6.40
  -3   4  -6    4.10    3.80
   4   3  -6    8.50    3.40
   3  -4  -6    3.70    4.30
   4   2  -6  606.64    4.60
   2  -4  -6  636.74    8.00
   2  -4   6  611.94    5.50
   4   2   6  578.14    4.50
   4   2   6  553.74    8.80
  -2   4  -6  625.94    5.30
  -1   4   6    6.20    2.50
   4   1   6    7.10    2.30
   4   1  -6    7.40    2.60
   1  -4   6   13.60    3.80
  -1   4  -6    4.20    2.50
   1  -4  -6    7.10    3.90
   4   1   6    7.20    4.60
   4   0  -6 1034.00    5.70
   0  -4  -6 1009.80    8.60
   4   0   6  970.00    5.00
   0  -4   6 1034.50    6.40
   0   4   6  988.90    8.50
   0   4  -6 1008.00    6.40
   1   4  -6    5.80    3.10
  -1  -4   6    5.80    3.10
   4  -1  -6    5.60    4.20
   4  -1   6    9.90    2.60
   1   4   6    9.10    3.50
   4  -1  -6    7.60    1.80
   2   4   6  608.44    7.80
   4  -2  -6  648.94    4.80
   2   4  -6  576.34    4.90
   4  -2  -6  505.95    6.20
   4  -2   6  591.44    4.30
  -4   2  -6  665.13    5.70
  -2  -4   6  551.14    5.30
  -4   3  -6    0.40    3.70
   3   4  -6    4.60    3.00
   3   4   6    3.10    5.40
   4  -3  -6    5.60    4.60
   4  -3   6    2.30    2.30
  -3  -4   6    3.30    3.40
   5   2  -6    0.00    3.30
   5   2   6    4.60    5.20
   5   2   6    3.90    3.00
   2  -5   6    6.40    4.30
  -2   5  -6    4.50    3.60
   2  -5  -6    2.20    5.50
   1  -5  -6   55.79    4.80
  -1   5   6   52.09    3.60
   5   1   6   58.29    2.60
   5   1  -6   61.29    3.60
  -1   5  -6   51.99    3.80
   5   1   6   57.29    4.90
   1  -5   6   57.29    4.90
   0  -5  -6    1.10    3.80
   0   5   6    2.40    3.40
   5   0   6    0.40    2.60
   5   0  -6    0.40    3.90
   0   5  -6    1.60    2.90
   5   0  -6    3.80    2.80
   0  -5   6    0.90    4.50
   5  -1  -6   50.29    3.80
  -1  -5   6   54.49    3.90
   5  -1   6   55.89    2.50
   5  -1  -6   59.99    3.20
   1   5   6   52.79    4.10
   1   5  -6   51.39    3.80
  -2  -5   6    3.80    3.70
   2   5  -6    2.00    3.00
   5  -2  -6    2.50    5.70
   5  -2  -6    1.90    2.80
   5  -2   6    2.30    3.10
   2   5   6    1.40    4.20
   0   0   7   10.20    3.40
   0   0  -7   10.00    3.00
   1   0   7  190.08    4.00
  -1   0  -7  185.88    4.90
   1   0  -7  200.98    4.70
   0  -1   7  200.38    4.30
  -1   0   7  190.88    4.80
   0   1  -7  187.38    3.90
   1  -1  -7  491.45    9.10
   1  -1   7  562.24    5.10
   1   1  -7  547.55    5.00
  -1   1  -7  590.74    6.10
  -1  -1   7  535.15    5.30
   1  -1  -7  566.94    8.10
   1   1   7  547.35    7.90
   1  -2  -7   94.69    6.60
   1  -2   7   86.09    2.80
  -2  -1   7   86.59    3.40
   2   1   7   89.09    2.70
   1  -2  -7   92.59    5.40
  -1   2  -7   87.19    3.50
   2   1  -7   88.19    2.60
  -2   0  -7   14.30    2.60
   2   0  -7   18.90    2.50
   0  -2   7   15.70    2.60
   2   0   7   17.00    1.70
   0   2  -7   18.70    3.10
   2  -1  -7   80.29    4.40
   1   2  -7   90.19    3.40
  -1  -2   7   86.49    2.90
  -2   1  -7   98.09    3.70
   2  -1  -7   90.29    2.90
   2  -1   7   90.99    2.30
   2  -2   7   16.40    2.70
   2  -2  -7   17.40    2.40
   2   2   7   17.50    2.40
  -2  -2   7   15.20    3.10
  -2   2  -7   17.70    3.50
   2  -2  -7   17.30    5.10
   2   2  -7   20.30    3.10
   2   2   7   18.60    4.20
   2  -3   7   45.10    3.30
   3   2   7   35.20    4.90
   3   2   7   39.00    2.60
  -2   3  -7   36.80    3.50
   3   2  -7   41.40    2.50
  -3  -2   7   41.10    3.40
   2  -3  -7   46.30    4.50
   3   1  -7  201.18    3.30
   1  -3   7  192.18    3.80
   3   1   7  194.38    3.10
  -1   3  -7  201.28    3.70
   1  -3  -7  206.38    6.90
   3   0   7   78.69    2.10
   3   0  -7   73.39    2.20
   0  -3   7   86.79    2.90
   0   3  -7   78.89    2.90
   1   3  -7  206.48    3.60
  -1  -3   7  199.28    3.80
   3  -1  -7  199.58    2.80
  -3   1  -7  203.98    3.60
   1   3   7  183.68    6.30
   1   3   7  199.08    7.10
   3  -1   7  187.18    2.70
   3  -1  -7  186.58    5.10
   2   3   7   39.00    2.90
  -3   2  -7   39.40    3.70
   2   3  -7   46.20    3.40
   3  -2  -7   32.80    4.50
   2   3   7   44.40    4.70
   3  -2  -7   40.40    2.50
   3  -2   7   43.20    2.20
  -2  -3   7   40.30    3.10
   3  -3   7   83.39    3.40
   3   3   7   91.59    5.70
   3   3   7   78.69    3.10
  -3   3  -7   90.19    4.20
  -3  -3   7   78.89    3.60
   3   3  -7   84.99    3.60
   3  -3  -7   87.29    4.70
   3  -4  -7   10.00    4.30
   3  -4   7    9.30    3.50
   4   3   7    6.90    2.80
  -3   4  -7    8.90    4.10
   4   3   7    8.40    5.70
   4   3  -7   10.30    3.30
   2  -4   7   14.40    3.20
   2  -4  -7   12.50    4.10
   4   2   7   16.20    5.80
  -2   4  -7    9.30    3.20
   4   2   7   10.00    2.30
   4   2  -7   14.00    2.50
   1  -4  -7   13.50    4.10
   4   1  -7   10.30    2.20
   4   1   7   11.50    1.90
   1  -4   7   12.20    2.80
  -1   4  -7   18.60    3.30
   4   1   7   11.60    4.10
   0   4   7   12.90    3.70
   4   0   7   13.00    2.30
   4   0  -7   16.70    2.10
   0   4  -7    9.70    3.10
   0  -4   7   16.80    3.30
   1   4  -7   16.20    3.20
   4  -1  -7   10.10    4.30
  -1  -4   7   14.60    3.50
   4  -1  -7   13.20    2.40
   1   4   7   14.00    4.00
   4  -1   7   16.60    2.80
   2   4   7   12.50    3.80
  -4   2  -7   19.80    2.90
   2   4  -7   14.40    2.50
   4  -2  -7   10.90    4.90
   4  -2  -7   14.70    2.50
   4  -2   7   10.50    3.00
  -2  -4   7   11.60    3.40
   4  -3  -7    8.90    2.50
   3   4   7    7.80    2.90
  -4   3  -7    7.70    3.10
   3   4  -7    8.80    2.90
   3   4   7    8.10    5.30
   4  -3  -7    9.60    4.40
   4  -3   7    8.00    3.10
  -3  -4   7    6.80    3.40
   5   2  -7    7.50    3.00
   5   2   7    2.50    6.40
   5   2   7    8.40    2.80
   2  -5   7    9.80    4.30
  -2   5  -7   11.70    3.90
   2  -5  -7    9.60    5.90
   5   1   7   37.80    6.60
   5   1  -7   34.40    2.70
   5   1   7   35.90    3.00
   1  -5  -7   34.50    4.70
  -1   5  -7   38.90    3.20
   1  -5   7   35.30    3.70
   0  -5   7   19.10    4.00
   0  -5  -7   13.40    4.00
   5   0  -7   14.20    4.00
   0   5   7   13.40    3.90
   5   0   7   18.10    2.70
   5   0  -7   15.20    2.30
   0   5  -7   20.20    3.50
   5  -1  -7   38.20    5.60
   5  -1  -7   41.00    3.00
  -1  -5   7   30.00    3.80
   1   5   7   31.30    4.60
   5  -1   7   38.80    3.30
   1   5  -7   30.70    3.60
  -2  -5   7   10.40    4.20
   2   5  -7    7.20    3.80
   5  -2  -7    3.30    5.70
   5  -2   7    6.50    3.20
   5  -2  -7   11.10    3.30
   2   5   7    6.10    4.30
   0   0   8  211.78    4.80
   0   0  -8  208.08    4.80
   1   0   8  750.92    6.70
  -1   0  -8  798.02    8.40
   1   0  -8  761.12    6.90
   0  -1   8  804.92    6.10
   0   1  -8  811.92    6.00
  -1   0   8  743.63    7.00
   1  -1   8 1703.43    8.10
   1   1   8 1718.73   14.60
   1   1  -8 1698.53    8.20
   1  -1  -8 1715.73   13.70
  -1   1  -8 1813.82    8.90
  -1  -1   8 1699.83    8.20
  -2  -1   8  554.74    5.10
   1  -2   8  538.85    4.90
  -1   2  -8  556.94    4.90
   2   1  -8  568.14    4.80
   2   1   8  552.44    5.20
  -2   0  -8  102.99    4.30
   0  -2   8  109.69    3.90
   2   0   8  107.49    2.70
   0   2  -8  107.69    3.30
   2   0  -8  105.19    3.00
  -2   1  -8  554.94    5.40
   2  -1  -8  491.45    7.40
   2  -1  -8  561.14    5.50
  -1  -2   8  537.75    5.10
   1   2  -8  562.04    5.10
   2  -1   8  575.04    4.70
   2  -2  -8   55.89    3.20
   2  -2   8   64.39    3.00
  -2  -2   8   48.50    2.30
  -2   2  -8   59.29    3.40
   2   2  -8   54.19    3.10
   2   2   8   57.39    5.20
   2   2   8   54.99    3.30
   2  -2  -8   58.99    5.20
   2  -3  -8  205.88    6.10
   3   2   8  187.38    5.40
   2  -3   8  178.08    3.50
   3   2   8  177.48    3.40
   2  -3  -8  186.58    4.30
  -2   3  -8  179.78    3.30
   3   2  -8  192.08    3.90
  -3  -2   8  174.18    3.80
   1  -3   8  485.15    4.40
   3   1   8  482.75    4.30
  -1   3  -8  496.35    4.80
   3   1  -8  483.45    4.30
   3   0  -8  230.88    3.50
   3   0   8  230.28    2.90
   0  -3   8  257.37    4.10
   0   3  -8  241.38    3.70
   1   3  -8  516.85    4.80
   3  -1  -8  438.76    6.10
  -3   1  -8  505.25    5.30
  -1  -3   8  497.55    4.90
   3  -1  -8  464.55    4.00
   3  -1   8  503.85    4.30
   2   3  -8  186.88    3.20
  -3   2  -8  190.18    4.60
   2   3   8  166.38    6.20
   2   3   8  182.38    4.80
   3  -2  -8  161.28    5.30
   3  -2  -8  188.98    3.50
   3  -2   8  188.88    3.00
  -2  -3   8  170.48    3.00
   3  -3   8  156.18    4.00
   3   3   8  132.79    3.40
  -3   3  -8  158.18    4.60
  -3  -3   8  132.59    3.90
   3   3  -8  143.09    4.30
   3  -3  -8  146.19    5.40
   3  -3  -8  143.99    3.60
   3   3   8  158.58    6.10
   3  -4  -8   71.69    5.40
   4   3   8   75.09    5.80
   3  -4   8   71.19    3.20
   4   3   8   68.29    3.50
  -3   4  -8   73.79    4.30
   4   3  -8   76.09    4.40
   4   2   8   12.50    4.80
   2  -4   8   10.90    2.60
   4   2   8   10.50    2.70
   2  -4  -8   13.30    5.10
  -2   4  -8   11.30    2.60
   4   2  -8   14.10    3.40
   4   1  -8  197.78    3.10
   4   1   8  196.58    3.20
   1  -4   8  206.58    3.60
  -1   4  -8  193.78    3.70
   4   0  -8   19.40    2.40
   4   0   8   23.50    2.30
   0   4  -8   20.40    3.10
   0  -4   8   22.40    3.70
   1   4  -8  214.38    3.30
   4  -1  -8  190.68    5.40
  -1  -4   8  199.78    4.00
   4  -1   8  209.68    3.20
   4  -1  -8  213.58    3.60
   2   4  -8   15.00    2.50
  -4   2  -8   14.30    3.20
   2   4   8   10.30    3.40
   4  -2  -8   14.10    4.10
   4  -2  -8   13.70    2.80
   4  -2   8   14.70    2.80
  -2  -4   8   11.60    2.40
   2   4   8   11.70    4.60
   4  -3  -8   72.79    3.50
  -4   3  -8   73.09    3.70
   3   4   8   58.49    3.70
   3   4  -8   68.99    3.10
   3   4   8   60.69    5.70
   4  -3  -8   72.39    4.60
  -3  -4   8   53.69    3.80
   4  -3   8   74.89    3.90
   5   1   8   42.70    6.30
   5   1  -8   48.10    3.70
   5   1   8   44.00    3.00
  -1   5  -8   44.80    3.80
   1  -5   8   42.50    4.40
   0  -5   8   30.00    4.30
   5   0  -8   25.70    3.40
   5   0  -8   30.00    3.10
   5   0   8   33.90    2.50
   0   5  -8   36.70    3.40
   5  -1  -8   38.50    4.70
  -1  -5   8   43.00    4.30
   5  -1   8   40.10    2.50
   5  -1  -8   49.10    3.00
   1   5  -8   48.20    4.00
   0   0   9    0.70    2.80
   0   0  -9    1.60    2.90
   1   0  -9  126.19    3.50
  -1   0   9  124.39    3.50
   1   0   9  120.09    3.80
  -1   0  -9  131.99    4.50
   0   1  -9  122.89    3.20
   0  -1   9  128.29    3.50
   1  -1  -9  502.55    8.00
   1   1  -9  500.05    4.70
   1  -1   9  473.25    4.40
  -1   1  -9  500.75    4.90
   1   1   9  540.65    9.90
  -1  -1   9  503.95    4.90
   1  -2   9   68.49    3.20
  -2  -1   9   67.89    2.90
   2   1  -9   68.49    3.10
  -1   2  -9   67.59    2.80
   2   1   9   66.99    3.10
  -2   0  -9    8.10    3.40
   2   0  -9    2.40    1.90
   0   2  -9    2.30    1.90
   0  -2   9    4.70    2.20
   2   0   9    4.30    2.30
   2  -1  -9   68.09    3.20
   2  -1   9   71.59    2.90
   1   2  -9   65.59    3.10
   2  -1  -9   62.89    4.30
  -2   1  -9   69.09    3.70
  -1  -2   9   63.59    2.40
   2  -2   9    7.00    2.80
   2  -2  -9    6.90    3.10
   2   2   9    6.20    4.60
   2   2  -9    6.50    3.00
  -2   2  -9    5.20    3.20
  -2  -2   9    6.00    2.30
   2  -2  -9    6.70    4.10
   2   2   9    5.80    3.30
   2  -3  -9   33.30    4.70
   2  -3   9   31.30    3.10
  -2   3  -9   34.40    3.00
   3   2   9   32.10    2.90
   3   2  -9   37.30    2.50
   2  -3  -9   43.10    4.10
  -3  -2   9   26.70    2.30
   3   2   9   38.20    4.70
   1  -3   9  213.38    4.20
   3   1   9  204.18    3.50
  -1   3  -9  200.48    3.70
   3   1  -9  214.88    3.70
   3   0  -9   56.29    2.80
   3   0   9   55.69    2.10
   0   3  -9   57.89    2.90
   0  -3   9   71.99    3.50
   1   3  -9  215.58    3.10
  -3   1  -9  212.38    3.90
   3  -1  -9  202.98    5.00
  -1  -3   9  203.38    3.10
   3  -1  -9  205.58    3.70
   3  -1   9  212.58    3.30
   3  -2   9   34.30    3.10
  -2  -3   9   31.00    2.30
   2   3  -9   30.90    3.00
  -3   2  -9   37.30    4.10
   3  -2  -9   30.70    4.50
   3  -2  -9   34.70    3.10
   3  -3   9   85.89    3.80
  -3   3  -9   89.09    3.30
  -3  -3   9   77.69    2.80
   3   3  -9   90.39    3.60
   3  -3  -9   87.49    3.60
   3   3   9   79.09    3.60
   3  -3  -9   90.19    5.30
   3   3   9   97.69    6.10
   2  -4  -9    5.40    6.90
   4   2   9    8.60    5.10
   2  -4  -9    6.20    5.90
   2  -4   9    5.40    3.50
  -2   4  -9    7.20    3.30
   4   2   9    8.70    2.70
   4   2  -9    8.10    3.20
   4   1   9   13.80    2.30
   1  -4   9   15.20    3.10
  -1   4  -9   10.60    3.10
   4   1   9   12.40    5.40
   4   1  -9   13.80    2.80
   4   0  -9    7.90    2.60
   4   0   9    6.70    2.00
   0   4  -9    7.20    2.40
   0  -4   9    8.60    3.60
   4  -1  -9    9.40    2.90
  -1  -4   9   17.50    3.70
   4  -1  -9   16.90    2.90
   4  -1   9   12.00    2.20
   1   4  -9   14.90    3.10
  -2  -4   9    6.00    3.10
   4  -2  -9    9.20    2.60
   2   4  -9    7.90    2.60
  -4   2  -9   12.50    3.20
   4  -2  -9    7.00    4.30
   4  -2   9    7.00    3.20
   0   0  10 1753.12   10.40
   0   0 -10 1738.83    9.80
   0  -1  10   41.60    2.90
   1   0 -10   41.00    3.10
  -1   0 -10   43.60    3.60
   1   0  10   39.70    3.30
   0   1 -10   37.70    2.50
  -1   0  10   38.00    3.20
   1   1 -10  219.98    3.70
   1   1  10  225.48    7.70
   1  -1 -10  208.78    7.00
   1  -1  10  217.78    4.00
  -1   1 -10  219.38    3.30
  -1  -1  10  215.48    3.70
   1  -1 -10  220.48    6.00
   2   1  10   13.60    3.20
   2   1 -10   13.20    2.60
   1  -2  10   12.70    2.20
  -1   2 -10   11.50    1.90
  -2  -1  10   14.30    2.40
   2   0  10 1050.79    6.80
  -2   0 -10 1022.80    7.90
   2   0 -10 1035.70    6.90
   0   2 -10 1052.49    5.70
   0  -2  10 1105.39    6.50
   1   2 -10   12.80    2.00
   2  -1  10   12.10    2.60
   2  -1 -10   12.70    3.70
  -2   1 -10   12.80    3.20
  -1  -2  10   10.20    2.50
   2  -1 -10   14.30    3.10
   2   2  10  625.54   12.30
   2  -2  10  620.74    4.90
   2   2 -10  621.44    4.60
  -2   2 -10  663.63    5.30
  -2  -2  10  600.84    4.50
   2  -2 -10  664.23    9.90
   2  -2 -10  657.13    9.10
   2   2  10  662.83   13.90
   2  -3  10   24.80    3.20
  -3  -2  10   10.20    3.10
  -2   3 -10    6.00    2.90
   3   2 -10   11.20    3.00
   3   2  10    5.50    2.60
   3   2  10    8.00    4.20
   1  -3  10  112.59    3.00
  -1   3 -10  104.39    2.70
   3   1 -10  120.19    2.80
   3   1  10  113.89    3.40
   0   3 -10   17.80    3.00
   3   0  10   18.00    2.60
   3   0 -10   21.00    2.90
   0  -3  10   15.80    2.50
   1   3 -10  119.09    3.50
   3  -1 -10  115.19    3.30
  -3   1 -10  116.89    4.40
   3  -1 -10  108.49    4.30
  -1  -3  10  105.09    3.60
   3  -1  10  117.29    3.40
   3  -2  10    6.80    3.10
   2   3 -10    5.90    3.00
  -2  -3  10    6.70    2.30
  -3   2 -10    5.10    3.40
   3  -2 -10    6.00    2.90
   3  -2 -10    7.40    3.80
   3  -3  10   53.39    3.50
   3   3 -10   55.39    3.50
  -3   3 -10   61.09    4.20
  -3  -3  10   47.60    3.30
   3   3  10   45.60    6.50
   3  -3 -10   55.29    4.00
   3   3  10   47.30    4.10
   3  -3 -10   54.09    4.80
   4   2  10  170.18    6.20
   2  -4  10  142.49    4.40
  -2   4 -10  148.99    3.90
   4   2  10  142.89    3.90
   4   2 -10  142.79    4.10
   4   1  10    4.20    4.30
  -1   4 -10    2.30    3.50
   1  -4  10    3.30    3.10
   4   1  10    2.10    2.70
   4   1 -10    1.30    3.30
   0  -4  10  246.58    3.90
   4   0 -10  248.08    3.80
   4   0  10  248.68    3.60
   0   4 -10  254.57    3.80
   4  -1 -10    0.20    3.80
   4  -1 -10    1.20    3.00
  -1  -4  10   -1.70    3.30
   4  -1  10    3.00    3.10
   1   4 -10    1.50    3.10
   2   4 -10  168.48    4.40
  -2  -4  10  134.09    3.80
  -4   2 -10  155.18    5.10
   4  -2 -10  159.28    5.30
   4  -2 -10  153.08    3.80
   4  -2  10  149.39    3.20
   0   0 -11  163.58    4.00
   0   0  11  161.18    4.50
   1   0 -11   28.60    2.90
   0  -1  11   28.40    2.70
  -1   0 -11   31.20    3.30
  -1   0  11   30.00    3.10
   1   0  11   32.40    3.30
   0   1 -11   30.00    2.50
   1   1 -11  293.87    3.80
  -1  -1  11  294.17    4.00
   1  -1 -11  307.57    9.10
  -1   1 -11  296.47    4.10
   1  -1  11  282.77    4.40
   1  -1 -11  296.67    7.70
  -2  -1  11   17.70    2.70
   2   1  11   17.30    3.70
   2   1 -11   16.60    2.90
  -1   2 -11   17.70    1.90
   1  -2  11   13.00    2.80
   0  -2  11   85.09    3.10
  -2   0 -11   75.29    3.50
   2   0  11   79.49    3.30
   2   0 -11   82.39    3.50
   0   2 -11   80.29    2.50
   1   2 -11   16.90    2.70
   2  -1 -11   18.90    4.10
   2  -1  11   16.90    2.90
  -2   1 -11   18.30    3.00
   2  -1 -11   17.10    3.80
  -1  -2  11   19.50    2.00
   2   2 -11   37.50    2.30
   2  -2  11   37.40    3.00
  -2   2 -11   46.00    2.90
  -2  -2  11   41.90    2.90
   3   2 -11   25.40    3.60
   2  -3  11   16.40    3.50
  -2   3 -11   18.10    2.30
   3   2  11   23.50    4.80
  -3  -2  11   15.20    3.30
   3   2  11   19.30    3.80
   3   1 -11   94.99    3.30
  -1   3 -11   96.59    2.90
   1  -3  11   91.19    3.00
   3   1  11   97.49    3.70
   0  -3  11   32.80    3.10
   3   0 -11   34.00    3.00
   0   3 -11   29.90    2.90
   3   0  11   35.00    3.00
   3  -1  11  102.89    3.50
  -3   1 -11  106.59    4.10
   3  -1 -11  104.49    4.30
  -1  -3  11   96.99    3.50
   3  -1 -11   97.49    3.70
   1   3 -11  103.39    3.10
   3  -2  11   18.10    3.40
   2   3 -11   22.10    2.90
  -3   2 -11   18.80    3.30
  -2  -3  11   18.30    3.10
   3  -2 -11   20.30    4.00
   3  -2 -11   20.80    3.80
   3  -3 -11    0.60    5.00
   3  -3  11   29.00    2.90
   3   3 -11   29.20    3.60
  -3   3 -11   33.40    3.80
  -3  -3  11   30.30    3.10
   3  -3 -11   27.70    5.10
  -1   4 -11    4.20    2.40
   4   1  11    6.00    5.20
   4   1 -11    4.90    2.50
   4   1  11    4.80    2.80
   1  -4  11    2.00    4.10
   0  -4  11   10.60    2.80
   0   4 -11   13.30    3.30
   4   0  11   13.00    2.80
   4   0 -11   10.50    3.00
   4  -1 -11    6.40    2.90
   4  -1 -11    7.30    3.20
  -1  -4  11    6.60    3.60
   1   4 -11    7.00    2.50
   4  -1  11    4.50    3.00
   0   0  12  345.97    5.30
   0   0 -12  358.66    4.90
  -1   0 -12   65.89    3.40
   0  -1  12   61.79    3.00
  -1   0  12   63.49    3.10
   0   1 -12   63.39    2.60
   1   0 -12   62.29    3.20
   1   0  12   65.19    3.60
  -1  -1  12  191.08    3.70
  -1   1 -12  196.68    3.40
   1  -1  12  195.88    4.00
   1   1 -12  190.88    3.40
   2   1 -12   38.10    2.90
   2   1  12   33.60    4.70
  -1   2 -12   40.90    2.70
   1  -2  12   39.70    3.60
  -2  -1  12   34.90    2.80
   0  -2  12  225.98    4.10
   2   0 -12  226.48    4.30
   2   0  12  213.48    4.20
   0   2 -12  229.28    3.40
   2  -1 -12   35.10    3.70
   2  -1 -12   38.30    3.90
  -2   1 -12   37.70    3.10
   2  -1  12   35.80    2.80
  -1  -2  12   35.00    2.80
   1   2 -12   38.20    2.20
   2   2 -12  144.89    3.30
  -2   2 -12  144.49    3.60
   2  -2  12  140.19    3.60
  -2  -2  12  130.09    3.20
   3   2  12   11.80    5.40
   3   2  12   10.20    6.20
   3   2 -12   12.60    3.30
  -2   3 -12   12.40    3.30
   2  -3  12   12.10    3.40
   3   1  12   77.09    4.00
   3   1  12   82.69    4.90
   3   1 -12   70.79    3.20
  -1   3 -12   74.59    3.00
   1  -3  12   83.19    3.10
   3   0  12   21.00    3.30
   0  -3  12   20.20    3.10
   3   0 -12   22.30    3.40
   0   3 -12   22.20    2.30
   3  -1  12   70.69    3.60
  -3   1 -12   82.49    3.60
   3  -1 -12   73.59    4.20
   3  -1 -12   75.69    4.10
  -1  -3  12   77.79    3.50
   1   3 -12   71.89    2.50
   2   3 -12   13.80    3.00
   3  -2  12   12.40    3.10
  -3   2 -12   11.70    3.50
  -2  -3  12   10.30    2.50
   3  -2 -12   13.30    4.20
   3  -2 -12   11.00    4.10
   0   0 -13    0.60    2.80
   0   0  13    4.20    2.90
   1   0  13   37.30    3.70
  -1   0 -13   39.70    3.30
   0  -1  13   34.80    2.90
   0   1 -13   39.90    2.90
   1   0 -13   40.10    3.10
  -1   1 -13  239.68    3.70
  -1  -1  13  221.58    4.00
   1   1 -13  246.08    3.80
   1  -1  13  228.88    4.20
  -2  -1  13   17.70    3.00
   2   1 -13   23.50    2.80
   2   1  13   21.20    5.40
  -1   2 -13   18.90    2.80
   1  -2  13   18.70    3.10
   2   1  13   18.70    5.60
   2   0 -13    2.00    3.10
   0  -2  13    1.40    2.60
   2   0  13    0.20    3.90
   0   2 -13    3.50    2.60
  -2   1 -13   24.50    2.90
   2  -1 -13   20.50    4.40
   2  -1  13   18.60    3.10
   1   2 -13   20.10    2.80
  -1  -2  13   19.10    2.70
   2  -1 -13   19.10    4.00
  -2  -2  13    2.10    2.70
   2   2 -13    2.70    2.80
  -2   2 -13    3.90    3.10
   2  -2  13    3.20    3.70
   3   1  13  102.39    5.20
   3   1  13   81.79    4.60
   3   1 -13   85.09    3.40
  -1   3 -13   90.49    2.70
   1  -3  13   86.29    3.80
   0  -3  13   20.40    3.60
   3   0  13   20.00    3.30
   3   0 -13   17.60    3.70
   0   3 -13   20.70    3.10
  -3   1 -13   99.99    3.80
   3  -1  13   85.19    3.60
   3  -1 -13   94.49    4.40
   3  -1 -13   77.39    4.50
  -1  -3  13   88.19    3.40
   1   3 -13   88.59    3.20
   0   0  14    4.90    3.30
   0   0 -14    3.70    3.20
  -1   0 -14  113.09    4.10
   1   0  14   97.99    4.60
   0   1 -14  107.29    3.10
   1   0 -14  110.19    3.90
   0  -1  14  103.99    3.40
   1  -1  14  113.69    3.70
  -1   1 -14  121.49    3.20
   1   1 -14  123.99    3.50
  -1  -1  14  110.29    3.60
   2   1 -14   72.19    3.70
  -1   2 -14   76.79    3.20
   1  -2  14   61.49    3.50
   0  -2  14    1.70    2.70
   0   2 -14    2.10    2.40
   2   0  14   -0.10    3.90
   2   0 -14   -0.40    3.10
  -1  -2  14   63.59    3.40
  -2   1 -14   77.09    3.80
   2  -1 -14    0.40    5.10
   2  -1  14   65.89    4.20
   2  -1 -14   64.49    6.00
   1   2 -14   71.49    3.20
   0   0 -15   10.20    3.60
   0   0  15    7.30    3.70
   0   1 -15    0.90    2.80
   1   0 -15    1.00    3.20
   1   0  15    0.90    3.60
   0  -1  15    1.20    2.70
   1  -1  15    1.00    3.60
  -1   1 -15    1.00    2.70
  -1  -1  15    2.30    3.10
   1   1 -15    1.90    3.00
   0   0   0    0.00    0.00

_computing_structure_solution     'SHELXT 2014/5 (Sheldrick, 2014)'
;
_shelx_hkl_checksum              51923
_olex2_submission_special_instructions 'No special instructions were received'
loop_
_space_group_symop_operation_xyz
'x, y, z'
'-x, -y, z'
'-y, x, z'
'y, -x, z'
'-x, y, -z'
'x, -y, -z'
'y, x, -z'
'-y, -x, -z'
'-x, -y, -z'
'x, y, -z'
'y, -x, -z'
'-y, x, -z'
'x, -y, z'
'-x, y, z'
'-y, -x, z'
'y, x, z'
loop_
_atom_site_label
_atom_site_type_symbol
_atom_site_fract_x
_atom_site_fract_y
_atom_site_fract_z
_atom_site_U_iso_or_equiv
_atom_site_adp_type
_atom_site_occupancy
_atom_site_site_symmetry_order
_atom_site_calc_flag
_atom_site_refinement_flags_posn
_atom_site_refinement_flags_adp
_atom_site_refinement_flags_occupancy
Cs01 Cs 0.5000 0.5000 0.0000 0.0500(4) Uani 1 16 d . . .
Te01 Te 0.5000 0.5000 0.5000 0.0376(4) Uani 1 16 d S T P
Te02 Te 0.0000 0.0000 0.18530(9) 0.0329(4) Uani 0.530(5) 8 d S T P
Ag01 Ag 0.0000 0.0000 0.5000 0.0489(4) Uani 1 16 d S T P
Ag02 Ag 0.0000 0.5000 0.31459(9) 0.0605(4) Uani 1 4 d S T P
S01 S 0.0000 0.0000 0.18530(9) 0.0329(4) Uani 0.470(5) 8 d S T P
loop_
_atom_site_aniso_label
_atom_site_aniso_U_11
_atom_site_aniso_U_22
_atom_site_aniso_U_33
_atom_site_aniso_U_23
_atom_site_aniso_U_13
_atom_site_aniso_U_12
Cs01 0.0545(5) 0.0545(5) 0.0410(6) 0.000 0.000 0.000
Te01 0.0416(4) 0.0416(4) 0.0296(5) 0.000 0.000 0.000
Te02 0.0288(4) 0.0288(4) 0.0410(6) 0.000 0.000 0.000
Ag01 0.0441(5) 0.0441(5) 0.0586(8) 0.000 0.000 0.000
Ag02 0.0788(7) 0.0434(5) 0.0593(6) 0.000 0.000 0.000
S01 0.0288(4) 0.0288(4) 0.0410(6) 0.000 0.000 0.000
loop_
_atom_type_symbol
_atom_type_description
_atom_type_scat_dispersion_real
_atom_type_scat_dispersion_imag
_atom_type_scat_source
Ag Ag -0.8971 1.1015 'International Tables Vol C Tables 4.2.6.8 and 6.1.1.4'
Cs Cs -0.3680 2.1192 'International Tables Vol C Tables 4.2.6.8 and 6.1.1.4'
S S 0.1246 0.1234 'International Tables Vol C Tables 4.2.6.8 and 6.1.1.4'
Te Te -0.5308 1.6751 'International Tables Vol C Tables 4.2.6.8 and 6.1.1.4'
loop_
_geom_angle_atom_site_label_1
_geom_angle_atom_site_label_2
_geom_angle_atom_site_label_3
_geom_angle
_geom_angle_site_symmetry_1
_geom_angle_site_symmetry_3
Ag01 Te01 Ag01 180.0 . 1_665
Ag01 Te01 Ag01 90.0 1_665 1_655
Ag01 Te01 Ag01 90.0 . 1_655
Ag01 Te01 Ag01 90.0 . 1_565
Ag01 Te01 Ag01 180.0 1_655 1_565
Ag01 Te01 Ag01 90.0 1_665 1_565
Ag02 Te01 Ag01 120.983(9) 1_655 .
Ag02 Te01 Ag01 59.017(9) 1_655 1_655
Ag02 Te01 Ag01 59.017(9) 3_665 1_565
Ag02 Te01 Ag01 59.017(9) 11_566 1_665
Ag02 Te01 Ag01 59.017(9) 11_566 1_565
Ag02 Te01 Ag01 120.983(8) 3_655 1_665
Ag02 Te01 Ag01 59.017(9) 9_566 .
Ag02 Te01 Ag01 59.017(8) 9_666 1_665
Ag02 Te01 Ag01 59.017(9) 11_556 .
Ag02 Te01 Ag01 120.983(9) 11_556 1_665
Ag02 Te01 Ag01 120.983(9) 9_666 1_565
Ag02 Te01 Ag01 59.017(9) 3_665 1_665
Ag02 Te01 Ag01 120.983(9) 1_655 1_565
Ag02 Te01 Ag01 120.983(9) 9_566 1_665
Ag02 Te01 Ag01 120.983(9) 9_566 1_655
Ag02 Te01 Ag01 59.017(9) 1_655 1_665
Ag02 Te01 Ag01 120.983(8) . 1_655
Ag02 Te01 Ag01 120.983(8) . 1_665
Ag02 Te01 Ag01 120.983(9) 3_665 .
Ag02 Te01 Ag01 120.983(8) 11_566 .
Ag02 Te01 Ag01 120.983(9) 3_655 1_565
Ag02 Te01 Ag01 120.983(9) 11_566 1_655
Ag02 Te01 Ag01 120.983(9) 11_556 1_565
Ag02 Te01 Ag01 59.017(8) 3_655 .
Ag02 Te01 Ag01 59.017(9) 9_566 1_565
Ag02 Te01 Ag01 120.983(8) 9_666 .
Ag02 Te01 Ag01 59.017(9) . 1_565
Ag02 Te01 Ag01 59.017(9) 11_556 1_655
Ag02 Te01 Ag01 120.983(9) 3_665 1_655
Ag02 Te01 Ag01 59.017(9) 3_655 1_655
Ag02 Te01 Ag01 59.017(9) 9_666 1_655
Ag02 Te01 Ag01 59.017(8) . .
Ag02 Te01 Ag02 180.0 11_556 3_665
Ag02 Te01 Ag02 118.034(17) 9_666 3_665
Ag02 Te01 Ag02 61.966(17) 9_666 11_556
Ag02 Te01 Ag02 61.966(17) 11_566 9_566
Ag02 Te01 Ag02 61.966(17) 11_566 9_666
Ag02 Te01 Ag02 118.034(17) 3_655 9_566
Ag02 Te01 Ag02 180.0 9_666 .
Ag02 Te01 Ag02 93.44(3) 9_666 9_566
Ag02 Te01 Ag02 93.44(3) 1_655 .
Ag02 Te01 Ag02 61.966(17) 11_556 9_566
Ag02 Te01 Ag02 93.44(3) 11_566 11_556
Ag02 Te01 Ag02 118.034(17) 3_665 9_566
Ag02 Te01 Ag02 93.44(3) 3_655 3_665
Ag02 Te01 Ag02 118.034(17) 11_566 1_655
Ag02 Te01 Ag02 118.034(17) 11_556 .
Ag02 Te01 Ag02 61.966(17) 3_655 1_655
Ag02 Te01 Ag02 86.56(3) 9_566 .
Ag02 Te01 Ag02 86.56(3) 9_666 1_655
Ag02 Te01 Ag02 180.0 11_566 3_655
Ag02 Te01 Ag02 118.034(17) 11_556 1_655
Ag02 Te01 Ag02 118.034(17) 3_655 9_666
Ag02 Te01 Ag02 61.966(17) 3_665 1_655
Ag02 Te01 Ag02 86.56(3) 3_655 11_556
Ag02 Te01 Ag02 180.0 9_566 1_655
Ag02 Te01 Ag02 86.56(3) 11_566 3_665
Ag02 Te01 Ag02 118.034(17) 11_566 .
Ag02 Te01 Ag02 61.966(17) 3_655 .
Ag02 Te01 Ag02 61.966(17) 3_665 .
Ag02 Te02 Ag02 72.47(3) . 3_655
Ag02 Te02 Ag02 72.47(3) 1_545 3
Ag02 Te02 Ag02 113.42(6) 3_655 3
Ag02 Te02 Ag02 113.42(6) . 1_545
Ag02 Te02 Ag02 72.47(3) . 3
Ag02 Te02 Ag02 72.47(3) 3_655 1_545
Te01 Ag01 Te01 180.0 1_545 1_455
Te01 Ag01 Te01 90.0 1_445 1_545
Te01 Ag01 Te01 90.0 . 1_545
Te01 Ag01 Te01 180.0 . 1_445
Te01 Ag01 Te01 90.0 1_445 1_455
Te01 Ag01 Te01 90.0 . 1_455
Ag02 Ag01 Te01 120.983(9) 9_556 .
Ag02 Ag01 Te01 59.017(9) 3_655 1_545
Ag02 Ag01 Te01 120.983(9) 1_545 1_455
Ag02 Ag01 Te01 59.017(9) . .
Ag02 Ag01 Te01 120.983(9) 11_456 .
Ag02 Ag01 Te01 120.983(8) 11_556 1_445
Ag02 Ag01 Te01 59.017(9) 11_556 .
Ag02 Ag01 Te01 59.017(8) 3 1_445
Ag02 Ag01 Te01 120.983(8) . 1_545
Ag02 Ag01 Te01 120.983(8) 9_566 1_445
Ag02 Ag01 Te01 59.017(9) 3 1_455
Ag02 Ag01 Te01 59.017(8) 1_545 1_445
Ag02 Ag01 Te01 120.983(9) 3_655 1_455
Ag02 Ag01 Te01 59.017(9) 11_456 1_445
Ag02 Ag01 Te01 120.983(9) 11_456 1_545
Ag02 Ag01 Te01 120.983(9) 3_655 1_445
Ag02 Ag01 Te01 59.017(9) 9_556 1_545
Ag02 Ag01 Te01 59.017(9) 9_556 1_445
Ag02 Ag01 Te01 120.983(8) 1_545 .
Ag02 Ag01 Te01 120.983(8) . 1_445
Ag02 Ag01 Te01 120.983(9) 11_556 1_455
Ag02 Ag01 Te01 120.983(8) 3 .
Ag02 Ag01 Te01 59.017(9) 9_566 1_455
Ag02 Ag01 Te01 59.017(9) . 1_455
Ag02 Ag01 Te01 59.017(9) 11_456 1_455
Ag02 Ag01 Te01 59.017(9) 9_566 .
Ag02 Ag01 Te01 120.983(9) 9_556 1_455
Ag02 Ag01 Te01 120.983(9) 9_566 1_545
Ag02 Ag01 Te01 59.017(9) 1_545 1_545
Ag02 Ag01 Te01 59.017(9) 11_556 1_545
Ag02 Ag01 Te01 120.983(9) 3 1_545
Ag02 Ag01 Te01 59.017(9) 3_655 .
Ag02 Ag01 Ag02 93.44(3) 3 3_655
Ag02 Ag01 Ag02 180.0 11_556 3
Ag02 Ag01 Ag02 61.966(17) 9_566 11_456
Ag02 Ag01 Ag02 118.034(17) 9_566 3_655
Ag02 Ag01 Ag02 61.966(17) 3 1_545
Ag02 Ag01 Ag02 61.966(17) 1_545 3_655
Ag02 Ag01 Ag02 61.966(17) 3_655 .
Ag02 Ag01 Ag02 180.0 11_456 3_655
Ag02 Ag01 Ag02 118.034(17) 3 9_566
Ag02 Ag01 Ag02 61.966(17) 11_556 9_556
Ag02 Ag01 Ag02 93.44(3) 11_556 11_456
Ag02 Ag01 Ag02 118.034(17) 3 9_556
Ag02 Ag01 Ag02 86.56(3) 11_556 3_655
Ag02 Ag01 Ag02 93.44(3) 9_566 9_556
Ag02 Ag01 Ag02 180.0 9_556 .
Ag02 Ag01 Ag02 86.56(3) 1_545 9_556
Ag02 Ag01 Ag02 61.966(17) 11_556 9_566
Ag02 Ag01 Ag02 61.966(17) 11_456 9_556
Ag02 Ag01 Ag02 118.034(17) 11_556 1_545
Ag02 Ag01 Ag02 118.034(17) 3_655 9_556
Ag02 Ag01 Ag02 180.0 9_566 1_545
Ag02 Ag01 Ag02 118.034(17) 11_556 .
Ag02 Ag01 Ag02 86.56(3) 3 11_456
Ag02 Ag01 Ag02 61.966(17) 3 .
Ag02 Ag01 Ag02 118.034(17) 1_545 11_456
Ag02 Ag01 Ag02 86.56(3) 9_566 .
Ag02 Ag01 Ag02 118.034(17) 11_456 .
Ag02 Ag01 Ag02 93.44(3) 1_545 .
Te01 Ag02 Te01 93.44(3) . 1_455
Te01 Ag02 Ag01 61.966(17) . .
Te01 Ag02 Ag01 61.966(17) . 1_565
Te01 Ag02 Ag01 61.966(17) 1_455 .
Te01 Ag02 Ag02 120.983(9) 1_455 3_665
Te01 Ag02 Ag02 59.017(8) 1_455 3
Te01 Ag02 Ag02 59.017(9) . 3_665
Te01 Ag02 Ag02 120.983(8) 1_455 3_655
Te01 Ag02 Ag02 59.017(8) . 3_655
Te01 Ag02 Ag02 120.983(9) . 3_565
Te01 Ag02 Ag02 120.983(8) . 3
Te01 Ag02 Ag02 59.017(9) 1_455 3_565
Te02 Ag02 Te01 112.105(16) 1_565 1_455
Te02 Ag02 Te01 112.104(15) 1_565 .
Te02 Ag02 Te01 112.105(16) . .
Te02 Ag02 Te01 112.105(16) . 1_455
Te02 Ag02 Te02 113.42(6) 1_565 .
Te02 Ag02 Ag01 170.01(4) 1_565 .
Te02 Ag02 Ag01 76.57(2) 1_565 1_565
Te02 Ag02 Ag01 76.57(2) . .
Te02 Ag02 Ag01 170.01(4) . 1_565
Te02 Ag02 Ag02 53.767(14) 1_565 3_665
Te02 Ag02 Ag02 53.767(14) 1_565 3_565
Te02 Ag02 Ag02 126.233(14) . 3_665
Te02 Ag02 Ag02 126.233(14) . 3_565
Te02 Ag02 Ag02 53.768(14) . 3
Te02 Ag02 Ag02 126.233(14) 1_565 3_655
Te02 Ag02 Ag02 126.233(14) 1_565 3
Te02 Ag02 Ag02 53.768(14) . 3_655
Ag01 Ag02 Te01 61.966(17) 1_565 1_455
Ag01 Ag02 Ag01 93.44(3) 1_565 .
Ag01 Ag02 Ag02 59.017(8) . 3_655
Ag01 Ag02 Ag02 59.017(8) 1_565 3_565
Ag01 Ag02 Ag02 120.983(8) 1_565 3
Ag01 Ag02 Ag02 120.983(9) . 3_565
Ag01 Ag02 Ag02 59.017(9) 1_565 3_665
Ag01 Ag02 Ag02 120.983(9) 1_565 3_655
Ag01 Ag02 Ag02 120.983(9) . 3_665
Ag01 Ag02 Ag02 59.017(8) . 3
Ag02 Ag02 Ag02 90.0 3 3_655
Ag02 Ag02 Ag02 180.0 3 3_665
Ag02 Ag02 Ag02 90.0 3_665 3_565
Ag02 Ag02 Ag02 90.0 3_665 3_655
Ag02 Ag02 Ag02 90.0 3 3_565
Ag02 Ag02 Ag02 180.0 3_655 3_565
S01 Ag02 Te01 112.104(15) 1_565 .
S01 Ag02 Te01 112.105(16) 1_565 1_455
S01 Ag02 Te02 0.0 1_565 1_565
S01 Ag02 Te02 113.4 1_565 .
S01 Ag02 Ag01 76.57(2) 1_565 1_565
S01 Ag02 Ag01 170.01(4) 1_565 .
S01 Ag02 Ag02 53.767(14) 1_565 3_565
S01 Ag02 Ag02 53.767(14) 1_565 3_665
S01 Ag02 Ag02 126.233(14) 1_565 3
S01 Ag02 Ag02 126.233(14) 1_565 3_655
loop_
_geom_bond_atom_site_label_1
_geom_bond_atom_site_label_2
_geom_bond_distance
_geom_bond_site_symmetry_2
Te01 Ag01 3.1563(4) .
Te01 Ag01 3.1563(4) 1_565
Te01 Ag01 3.1563(4) 1_655
Te01 Ag01 3.1563(4) 1_665
Te01 Ag02 3.0657(8) 3_665
Te01 Ag02 3.0657(8) 11_566
Te01 Ag02 3.0657(8) 9_666
Te01 Ag02 3.0657(8) 9_566
Te01 Ag02 3.0657(8) 11_556
Te01 Ag02 3.0657(8) 1_655
Te01 Ag02 3.0657(8) .
Te01 Ag02 3.0657(8) 3_655
Te02 Ag02 2.6700(9) 3_655
Te02 Ag02 2.6700(9) .
Te02 Ag02 2.6700(9) 1_545
Te02 Ag02 2.6700(9) 3
Ag01 Te01 3.1563(4) 1_455
Ag01 Te01 3.1563(4) 1_445
Ag01 Te01 3.1563(4) 1_545
Ag01 Ag02 3.0657(8) 11_456
Ag01 Ag02 3.0657(8) 3
Ag01 Ag02 3.0657(8) .
Ag01 Ag02 3.0657(8) 9_566
Ag01 Ag02 3.0657(8) 9_556
Ag01 Ag02 3.0657(8) 11_556
Ag01 Ag02 3.0657(8) 3_655
Ag01 Ag02 3.0657(8) 1_545
Ag02 Te01 3.0657(8) 1_455
Ag02 Te02 2.6700(9) 1_565
Ag02 Ag01 3.0657(8) 1_565
Ag02 Ag02 3.1563(4) 3_655
Ag02 Ag02 3.1563(4) 3_665
Ag02 Ag02 3.1563(4) 3_565
Ag02 Ag02 3.1563(4) 3
Ag02 S01 2.6700(9) 1_565
