#------------------------------------------------------------------------------
#$Date: 2020-02-22 01:17:48 +0200 (Sat, 22 Feb 2020) $
#$Revision: 248377 $
#$URL: file:///home/coder/svn-repositories/cod/cif/4/00/34/4003493.cif $
#------------------------------------------------------------------------------
#
# This file is available in the Crystallography Open Database (COD),
# http://www.crystallography.net/
#
# All data on this site have been placed in the public domain by the
# contributors.
#
data_4003493
loop_
_publ_author_name
'Zhang, Jiliang'
'Lee, Jey-Jau'
'Yang, Tonghan'
'He, Wei'
'Kang, Yong-Mook'
'Bobev, Svilen'
_publ_section_title
;
 Tunable Magnetic Exchange between Rare-Earth Metal 5d and Iron 3d States:
 A Case Study of the Multiple Magnetic Transitions in Gd6FeBi2 and the
 Solid Solutions Dy6--xGdxFeBi2 (1 &#x2264; x &#x2264; 5) with Curie
 Temperatures in the Range 120--350 K
;
_journal_name_full               'Chemistry of Materials'
_journal_paper_doi               10.1021/acs.chemmater.0c00060
_journal_year                    2020
_chemical_formula_sum            'Bi2 Fe Gd6'
_chemical_formula_weight         1417.31
_space_group_IT_number           189
_space_group_name_Hall           'P -6 -2'
_space_group_name_H-M_alt        'P -6 2 m'
_symmetry_cell_setting           hexagonal
_symmetry_space_group_name_H-M   'P -6 2 m'
_atom_sites_solution_primary     direct
_atom_sites_solution_secondary   difmap
_audit_creation_method           SHELXL-97
_cell_angle_alpha                90.00
_cell_angle_beta                 90.00
_cell_angle_gamma                120.00
_cell_formula_units_Z            1
_cell_length_a                   8.3663(15)
_cell_length_b                   8.3663(15)
_cell_length_c                   4.2399(16)
_cell_measurement_reflns_used    244
_cell_measurement_temperature    290(2)
_cell_measurement_theta_max      21.48
_cell_measurement_theta_min      4.81
_cell_volume                     257.01(12)
_computing_cell_refinement       'Bruker SMART'
_computing_data_collection       'Bruker SMART'
_computing_data_reduction        'Bruker SAINT'
_computing_molecular_graphics    'Bruker SHELXTL'
_computing_publication_material  'Bruker SHELXTL'
_computing_structure_refinement  'SHELXL-97 (Sheldrick, 1997)'
_computing_structure_solution    'SHELXS-97 (Sheldrick, 1990)'
_diffrn_ambient_temperature      290(2)
_diffrn_measured_fraction_theta_full 1.000
_diffrn_measured_fraction_theta_max 1.000
_diffrn_measurement_device_type  'CCD area detector'
_diffrn_measurement_method       'phi and omega scans'
_diffrn_radiation_monochromator  graphite
_diffrn_radiation_source         'fine-focus sealed tube'
_diffrn_radiation_type           MoK\a
_diffrn_radiation_wavelength     0.71073
_diffrn_reflns_av_R_equivalents  0.0743
_diffrn_reflns_av_sigmaI/netI    0.0538
_diffrn_reflns_limit_h_max       8
_diffrn_reflns_limit_h_min       -11
_diffrn_reflns_limit_k_max       11
_diffrn_reflns_limit_k_min       -10
_diffrn_reflns_limit_l_max       5
_diffrn_reflns_limit_l_min       -5
_diffrn_reflns_number            1909
_diffrn_reflns_theta_full        29.53
_diffrn_reflns_theta_max         29.53
_diffrn_reflns_theta_min         2.81
_exptl_absorpt_coefficient_mu    73.495
_exptl_absorpt_correction_T_max  0.3680
_exptl_absorpt_correction_T_min  0.2091
_exptl_absorpt_correction_type   multi-scan
_exptl_absorpt_process_details   SADABS
_exptl_crystal_colour            silver
_exptl_crystal_density_diffrn    9.157
_exptl_crystal_density_method    'not measured'
_exptl_crystal_description       irregular
_exptl_crystal_F_000             576
_exptl_crystal_size_max          0.03
_exptl_crystal_size_mid          0.02
_exptl_crystal_size_min          0.02
_refine_diff_density_max         1.463
_refine_diff_density_min         -1.492
_refine_diff_density_rms         0.356
_refine_ls_abs_structure_details 'Flack H D (1983), Acta Cryst. A39, 876-881'
_refine_ls_abs_structure_Flack   0.04(2)
_refine_ls_extinction_method     none
_refine_ls_goodness_of_fit_ref   1.055
_refine_ls_matrix_type           full
_refine_ls_number_parameters     14
_refine_ls_number_reflns         299
_refine_ls_number_restraints     0
_refine_ls_restrained_S_all      1.055
_refine_ls_R_factor_all          0.0374
_refine_ls_R_factor_gt           0.0308
_refine_ls_shift/su_max          0.000
_refine_ls_shift/su_mean         0.000
_refine_ls_structure_factor_coef Fsqd
_refine_ls_weighting_details
'calc w=1/[\s^2^(Fo^2^)+(0.0107P)^2^+0.0000P] where P=(Fo^2^+2Fc^2^)/3'
_refine_ls_weighting_scheme      calc
_refine_ls_wR_factor_gt          0.0473
_refine_ls_wR_factor_ref         0.0489
_reflns_number_gt                273
_reflns_number_total             299
_reflns_threshold_expression     >2sigma(I)
_cod_data_source_file            cm0c00060_si_001.cif
_cod_data_source_block           290K
_cod_depositor_comments
;
The following automatic conversions were performed:

data item '_symmetry_cell_setting' value 'Hexagonal' was changed to
'hexagonal' in accordance with the
/home/data/users/saulius/crontab/automatic-downloads/rss-feeds/ACS/lib/dictionaries/cif_core.dic
dictionary named 'cif_core.dic' version 2.4.2 last updated on
2011-04-26.

Automatic conversion script
Id: cif_fix_values 7556 2019-12-06 15:28:31Z antanas 
;
_cod_original_sg_symbol_H-M      P-62m
_cod_database_code               4003493
loop_
_symmetry_equiv_pos_as_xyz
'x, y, z'
'-y, x-y, z'
'-x+y, -x, z'
'x, y, -z'
'-y, x-y, -z'
'-x+y, -x, -z'
'y, x, -z'
'x-y, -y, -z'
'-x, -x+y, -z'
'y, x, z'
'x-y, -y, z'
'-x, -x+y, z'
loop_
_atom_site_label
_atom_site_type_symbol
_atom_site_fract_x
_atom_site_fract_y
_atom_site_fract_z
_atom_site_U_iso_or_equiv
_atom_site_adp_type
_atom_site_occupancy
_atom_site_symmetry_multiplicity
_atom_site_calc_flag
_atom_site_refinement_flags
_atom_site_disorder_assembly
_atom_site_disorder_group
Bi1 Bi 0.6667 0.3333 0.5000 0.0147(3) Uani 1 6 d S . .
Gd1 Gd 0.76253(16) 0.0000 0.5000 0.0170(3) Uani 1 4 d S . .
Gd2 Gd 0.40123(19) 0.0000 0.0000 0.0167(3) Uani 1 4 d S . .
Fe1 Fe 0.0000 0.0000 0.0000 0.0236(16) Uani 1 12 d S . .
loop_
_atom_site_aniso_label
_atom_site_aniso_U_11
_atom_site_aniso_U_22
_atom_site_aniso_U_33
_atom_site_aniso_U_23
_atom_site_aniso_U_13
_atom_site_aniso_U_12
Bi1 0.0144(4) 0.0144(4) 0.0154(6) 0.000 0.000 0.0072(2)
Gd1 0.0137(5) 0.0124(7) 0.0246(7) 0.000 0.000 0.0062(4)
Gd2 0.0173(6) 0.0164(7) 0.0161(6) 0.000 0.000 0.0082(4)
Fe1 0.030(3) 0.030(3) 0.011(3) 0.000 0.000 0.0149(13)
loop_
_atom_type_symbol
_atom_type_description
_atom_type_scat_dispersion_real
_atom_type_scat_dispersion_imag
_atom_type_scat_source
Fe Fe 0.3463 0.8444 'International Tables Vol C Tables 4.2.6.8 and 6.1.1.4'
Gd Gd -0.1653 3.9035 'International Tables Vol C Tables 4.2.6.8 and 6.1.1.4'
Bi Bi -4.1077 10.2566 'International Tables Vol C Tables 4.2.6.8 and 6.1.1.4'
loop_
_geom_angle_atom_site_label_1
_geom_angle_atom_site_label_2
_geom_angle_atom_site_label_3
_geom_angle
_geom_angle_site_symmetry_1
_geom_angle_site_symmetry_3
_geom_angle_publ_flag
Gd1 Bi1 Gd1 120.0 . 2_655 ?
Gd1 Bi1 Gd1 120.0 . 3_665 ?
Gd1 Bi1 Gd1 120.0 2_655 3_665 ?
Gd1 Bi1 Gd2 66.53(3) . 2_656 ?
Gd1 Bi1 Gd2 68.23(3) 2_655 2_656 ?
Gd1 Bi1 Gd2 140.276(13) 3_665 2_656 ?
Gd1 Bi1 Gd2 66.53(3) . 2_655 ?
Gd1 Bi1 Gd2 68.23(3) 2_655 2_655 ?
Gd1 Bi1 Gd2 140.276(12) 3_665 2_655 ?
Gd2 Bi1 Gd2 79.42(3) 2_656 2_655 ?
Gd1 Bi1 Gd2 68.23(3) . 1_556 ?
Gd1 Bi1 Gd2 140.276(12) 2_655 1_556 ?
Gd1 Bi1 Gd2 66.53(3) 3_665 1_556 ?
Gd2 Bi1 Gd2 83.553(19) 2_656 1_556 ?
Gd2 Bi1 Gd2 134.757(9) 2_655 1_556 ?
Gd1 Bi1 Gd2 68.23(3) . . ?
Gd1 Bi1 Gd2 140.276(13) 2_655 . ?
Gd1 Bi1 Gd2 66.53(3) 3_665 . ?
Gd2 Bi1 Gd2 134.757(9) 2_656 . ?
Gd2 Bi1 Gd2 83.55(2) 2_655 . ?
Gd2 Bi1 Gd2 79.42(3) 1_556 . ?
Gd1 Bi1 Gd2 140.276(13) . 3_666 ?
Gd1 Bi1 Gd2 66.53(3) 2_655 3_666 ?
Gd1 Bi1 Gd2 68.23(3) 3_665 3_666 ?
Gd2 Bi1 Gd2 83.553(19) 2_656 3_666 ?
Gd2 Bi1 Gd2 134.757(9) 2_655 3_666 ?
Gd2 Bi1 Gd2 83.55(2) 1_556 3_666 ?
Gd2 Bi1 Gd2 134.756(9) . 3_666 ?
Gd1 Bi1 Gd2 140.276(13) . 3_665 ?
Gd1 Bi1 Gd2 66.53(3) 2_655 3_665 ?
Gd1 Bi1 Gd2 68.23(3) 3_665 3_665 ?
Gd2 Bi1 Gd2 134.757(9) 2_656 3_665 ?
Gd2 Bi1 Gd2 83.553(19) 2_655 3_665 ?
Gd2 Bi1 Gd2 134.757(9) 1_556 3_665 ?
Gd2 Bi1 Gd2 83.55(2) . 3_665 ?
Gd2 Bi1 Gd2 79.42(3) 3_666 3_665 ?
Fe1 Gd1 Fe1 93.72(4) 1_656 1_655 ?
Fe1 Gd1 Bi1 117.392(7) 1_656 7_546 ?
Fe1 Gd1 Bi1 117.392(7) 1_655 7_546 ?
Fe1 Gd1 Bi1 117.392(7) 1_656 . ?
Fe1 Gd1 Bi1 117.392(7) 1_655 . ?
Bi1 Gd1 Bi1 95.43(3) 7_546 . ?
Fe1 Gd1 Gd1 53.687(18) 1_656 3_765 ?
Fe1 Gd1 Gd1 53.687(17) 1_655 3_765 ?
Bi1 Gd1 Gd1 162.284(17) 7_546 3_765 ?
Bi1 Gd1 Gd1 102.285(17) . 3_765 ?
Fe1 Gd1 Gd1 53.687(18) 1_656 2_645 ?
Fe1 Gd1 Gd1 53.687(18) 1_655 2_645 ?
Bi1 Gd1 Gd1 102.284(17) 7_546 2_645 ?
Bi1 Gd1 Gd1 162.285(17) . 2_645 ?
Gd1 Gd1 Gd1 60.0 3_765 2_645 ?
Fe1 Gd1 Gd2 60.87(2) 1_656 2_656 ?
Fe1 Gd1 Gd2 111.71(3) 1_655 2_656 ?
Bi1 Gd1 Gd2 130.77(3) 7_546 2_656 ?
Bi1 Gd1 Gd2 57.44(2) . 2_656 ?
Gd1 Gd1 Gd2 61.55(2) 3_765 2_656 ?
Gd1 Gd1 Gd2 109.18(3) 2_645 2_656 ?
Fe1 Gd1 Gd2 111.71(3) 1_656 3_655 ?
Fe1 Gd1 Gd2 60.87(2) 1_655 3_655 ?
Bi1 Gd1 Gd2 57.44(2) 7_546 3_655 ?
Bi1 Gd1 Gd2 130.77(3) . 3_655 ?
Gd1 Gd1 Gd2 109.18(3) 3_765 3_655 ?
Gd1 Gd1 Gd2 61.55(2) 2_645 3_655 ?
Gd2 Gd1 Gd2 170.20(5) 2_656 3_655 ?
Fe1 Gd1 Gd2 111.71(3) 1_656 2_655 ?
Fe1 Gd1 Gd2 60.87(2) 1_655 2_655 ?
Bi1 Gd1 Gd2 130.77(3) 7_546 2_655 ?
Bi1 Gd1 Gd2 57.44(2) . 2_655 ?
Gd1 Gd1 Gd2 61.55(2) 3_765 2_655 ?
Gd1 Gd1 Gd2 109.18(3) 2_645 2_655 ?
Gd2 Gd1 Gd2 71.90(3) 2_656 2_655 ?
Gd2 Gd1 Gd2 107.23(4) 3_655 2_655 ?
Fe1 Gd1 Gd2 60.87(2) 1_656 3_656 ?
Fe1 Gd1 Gd2 111.71(3) 1_655 3_656 ?
Bi1 Gd1 Gd2 57.44(2) 7_546 3_656 ?
Bi1 Gd1 Gd2 130.77(3) . 3_656 ?
Gd1 Gd1 Gd2 109.18(3) 3_765 3_656 ?
Gd1 Gd1 Gd2 61.55(2) 2_645 3_656 ?
Gd2 Gd1 Gd2 107.23(4) 2_656 3_656 ?
Gd2 Gd1 Gd2 71.90(3) 3_655 3_656 ?
Gd2 Gd1 Gd2 170.20(5) 2_655 3_656 ?
Fe1 Gd1 Gd2 98.10(3) 1_656 1_556 ?
Fe1 Gd1 Gd2 168.18(3) 1_655 1_556 ?
Bi1 Gd1 Gd2 56.58(2) 7_546 1_556 ?
Bi1 Gd1 Gd2 56.57(2) . 1_556 ?
Gd1 Gd1 Gd2 135.157(16) 3_765 1_556 ?
Gd1 Gd1 Gd2 135.157(16) 2_645 1_556 ?
Gd2 Gd1 Gd2 74.50(2) 2_656 1_556 ?
Gd2 Gd1 Gd2 114.02(3) 3_655 1_556 ?
Gd2 Gd1 Gd2 114.02(3) 2_655 1_556 ?
Gd2 Gd1 Gd2 74.50(2) 3_656 1_556 ?
Fe1 Gd1 Gd2 168.18(3) 1_656 . ?
Fe1 Gd1 Gd2 98.10(3) 1_655 . ?
Bi1 Gd1 Gd2 56.58(2) 7_546 . ?
Bi1 Gd1 Gd2 56.57(2) . . ?
Gd1 Gd1 Gd2 135.157(16) 3_765 . ?
Gd1 Gd1 Gd2 135.157(16) 2_645 . ?
Gd2 Gd1 Gd2 114.02(3) 2_656 . ?
Gd2 Gd1 Gd2 74.50(2) 3_655 . ?
Gd2 Gd1 Gd2 74.50(2) 2_655 . ?
Gd2 Gd1 Gd2 114.02(3) 3_656 . ?
Gd2 Gd1 Gd2 70.09(4) 1_556 . ?
Bi1 Gd2 Bi1 79.42(3) . 1_554 ?
Bi1 Gd2 Bi1 151.16(5) . 7_545 ?
Bi1 Gd2 Bi1 93.42(3) 1_554 7_545 ?
Bi1 Gd2 Bi1 93.42(3) . 7_546 ?
Bi1 Gd2 Bi1 151.16(5) 1_554 7_546 ?
Bi1 Gd2 Bi1 79.42(3) 7_545 7_546 ?
Bi1 Gd2 Fe1 104.42(3) . . ?
Bi1 Gd2 Fe1 104.42(3) 1_554 . ?
Bi1 Gd2 Fe1 104.42(3) 7_545 . ?
Bi1 Gd2 Fe1 104.42(3) 7_546 . ?
Bi1 Gd2 Gd1 152.23(5) . 2_544 ?
Bi1 Gd2 Gd1 97.74(3) 1_554 2_544 ?
Bi1 Gd2 Gd1 56.02(2) 7_545 2_544 ?
Bi1 Gd2 Gd1 101.03(3) 7_546 2_544 ?
Fe1 Gd2 Gd1 49.12(3) . 2_544 ?
Bi1 Gd2 Gd1 56.02(2) . 3_665 ?
Bi1 Gd2 Gd1 101.03(3) 1_554 3_665 ?
Bi1 Gd2 Gd1 152.24(5) 7_545 3_665 ?
Bi1 Gd2 Gd1 97.74(3) 7_546 3_665 ?
Fe1 Gd2 Gd1 49.12(3) . 3_665 ?
Gd1 Gd2 Gd1 98.24(5) 2_544 3_665 ?
Bi1 Gd2 Gd1 97.74(3) . 2_545 ?
Bi1 Gd2 Gd1 152.23(5) 1_554 2_545 ?
Bi1 Gd2 Gd1 101.03(3) 7_545 2_545 ?
Bi1 Gd2 Gd1 56.02(2) 7_546 2_545 ?
Fe1 Gd2 Gd1 49.12(3) . 2_545 ?
Gd1 Gd2 Gd1 71.90(3) 2_544 2_545 ?
Gd1 Gd2 Gd1 56.91(4) 3_665 2_545 ?
Bi1 Gd2 Gd1 101.03(3) . 3_664 ?
Bi1 Gd2 Gd1 56.02(2) 1_554 3_664 ?
Bi1 Gd2 Gd1 97.74(3) 7_545 3_664 ?
Bi1 Gd2 Gd1 152.24(5) 7_546 3_664 ?
Fe1 Gd2 Gd1 49.12(3) . 3_664 ?
Gd1 Gd2 Gd1 56.91(4) 2_544 3_664 ?
Gd1 Gd2 Gd1 71.90(3) 3_665 3_664 ?
Gd1 Gd2 Gd1 98.24(5) 2_545 3_664 ?
Bi1 Gd2 Gd1 55.198(19) . . ?
Bi1 Gd2 Gd1 99.38(4) 1_554 . ?
Bi1 Gd2 Gd1 99.38(4) 7_545 . ?
Bi1 Gd2 Gd1 55.20(2) 7_546 . ?
Fe1 Gd2 Gd1 144.96(2) . . ?
Gd1 Gd2 Gd1 150.80(2) 2_544 . ?
Gd1 Gd2 Gd1 101.46(3) 3_665 . ?
Gd1 Gd2 Gd1 101.46(3) 2_545 . ?
Gd1 Gd2 Gd1 150.80(2) 3_664 . ?
Bi1 Gd2 Gd1 99.38(4) . 1_554 ?
Bi1 Gd2 Gd1 55.198(19) 1_554 1_554 ?
Bi1 Gd2 Gd1 55.20(2) 7_545 1_554 ?
Bi1 Gd2 Gd1 99.38(4) 7_546 1_554 ?
Fe1 Gd2 Gd1 144.96(2) . 1_554 ?
Gd1 Gd2 Gd1 101.46(3) 2_544 1_554 ?
Gd1 Gd2 Gd1 150.80(2) 3_665 1_554 ?
Gd1 Gd2 Gd1 150.80(2) 2_545 1_554 ?
Gd1 Gd2 Gd1 101.46(3) 3_664 1_554 ?
Gd1 Gd2 Gd1 70.09(4) . 1_554 ?
Gd1 Fe1 Gd1 140.014(17) 3_665 2_544 ?
Gd1 Fe1 Gd1 140.014(17) 3_665 1_454 ?
Gd1 Fe1 Gd1 72.63(3) 2_544 1_454 ?
Gd1 Fe1 Gd1 93.72(4) 3_665 3_664 ?
Gd1 Fe1 Gd1 72.63(4) 2_544 3_664 ?
Gd1 Fe1 Gd1 72.63(4) 1_454 3_664 ?
Gd1 Fe1 Gd1 72.63(4) 3_665 1_455 ?
Gd1 Fe1 Gd1 140.014(18) 2_544 1_455 ?
Gd1 Fe1 Gd1 93.72(5) 1_454 1_455 ?
Gd1 Fe1 Gd1 140.014(18) 3_664 1_455 ?
Gd1 Fe1 Gd1 72.63(4) 3_665 2_545 ?
Gd1 Fe1 Gd1 93.72(5) 2_544 2_545 ?
Gd1 Fe1 Gd1 140.014(18) 1_454 2_545 ?
Gd1 Fe1 Gd1 140.014(18) 3_664 2_545 ?
Gd1 Fe1 Gd1 72.63(4) 1_455 2_545 ?
Gd1 Fe1 Gd2 70.007(9) 3_665 . ?
Gd1 Fe1 Gd2 70.007(9) 2_544 . ?
Gd1 Fe1 Gd2 133.14(2) 1_454 . ?
Gd1 Fe1 Gd2 70.007(9) 3_664 . ?
Gd1 Fe1 Gd2 133.14(2) 1_455 . ?
Gd1 Fe1 Gd2 70.007(9) 2_545 . ?
Gd1 Fe1 Gd2 133.14(2) 3_665 3 ?
Gd1 Fe1 Gd2 70.007(9) 2_544 3 ?
Gd1 Fe1 Gd2 70.007(9) 1_454 3 ?
Gd1 Fe1 Gd2 133.14(2) 3_664 3 ?
Gd1 Fe1 Gd2 70.007(9) 1_455 3 ?
Gd1 Fe1 Gd2 70.007(9) 2_545 3 ?
Gd2 Fe1 Gd2 120.0 . 3 ?
Gd1 Fe1 Gd2 70.007(9) 3_665 2 ?
Gd1 Fe1 Gd2 133.14(2) 2_544 2 ?
Gd1 Fe1 Gd2 70.007(9) 1_454 2 ?
Gd1 Fe1 Gd2 70.007(9) 3_664 2 ?
Gd1 Fe1 Gd2 70.007(9) 1_455 2 ?
Gd1 Fe1 Gd2 133.14(2) 2_545 2 ?
Gd2 Fe1 Gd2 120.0 . 2 ?
Gd2 Fe1 Gd2 120.0 3 2 ?
loop_
_geom_bond_atom_site_label_1
_geom_bond_atom_site_label_2
_geom_bond_distance
_geom_bond_site_symmetry_2
_geom_bond_publ_flag
Bi1 Gd1 3.2645(11) . ?
Bi1 Gd1 3.2646(11) 2_655 ?
Bi1 Gd1 3.2646(11) 3_665 ?
Bi1 Gd2 3.3181(7) 2_656 ?
Bi1 Gd2 3.3181(7) 2_655 ?
Bi1 Gd2 3.3181(7) 1_556 ?
Bi1 Gd2 3.3181(7) . ?
Bi1 Gd2 3.3181(7) 3_666 ?
Bi1 Gd2 3.3181(7) 3_665 ?
Gd1 Fe1 2.9054(11) 1_656 ?
Gd1 Fe1 2.9054(11) 1_655 ?
Gd1 Bi1 3.2645(11) 7_546 ?
Gd1 Gd1 3.441(2) 3_765 ?
Gd1 Gd1 3.441(2) 2_645 ?
Gd1 Gd2 3.6111(13) 2_656 ?
Gd1 Gd2 3.6111(13) 3_655 ?
Gd1 Gd2 3.6111(13) 2_655 ?
Gd1 Gd2 3.6111(13) 3_656 ?
Gd1 Gd2 3.6921(19) 1_556 ?
Gd1 Gd2 3.6921(19) . ?
Gd2 Bi1 3.3181(7) 1_554 ?
Gd2 Bi1 3.3182(7) 7_545 ?
Gd2 Bi1 3.3182(7) 7_546 ?
Gd2 Fe1 3.3568(17) . ?
Gd2 Gd1 3.6111(13) 2_544 ?
Gd2 Gd1 3.6111(13) 3_665 ?
Gd2 Gd1 3.6111(13) 2_545 ?
Gd2 Gd1 3.6111(13) 3_664 ?
Gd2 Gd1 3.6921(19) 1_554 ?
Fe1 Gd1 2.9054(11) 3_665 ?
Fe1 Gd1 2.9054(11) 2_544 ?
Fe1 Gd1 2.9054(11) 1_454 ?
Fe1 Gd1 2.9054(11) 3_664 ?
Fe1 Gd1 2.9054(11) 1_455 ?
Fe1 Gd1 2.9054(11) 2_545 ?
Fe1 Gd2 3.3568(17) 3 ?
Fe1 Gd2 3.3568(17) 2 ?
