#------------------------------------------------------------------------------
#$Date: 2020-05-23 01:22:11 +0300 (Sat, 23 May 2020) $
#$Revision: 252283 $
#$URL: file:///home/coder/svn-repositories/cod/cif/4/00/35/4003561.cif $
#------------------------------------------------------------------------------
#
# This file is available in the Crystallography Open Database (COD),
# http://www.crystallography.net/
#
# All data on this site have been placed in the public domain by the
# contributors.
#
data_4003561
loop_
_publ_author_name
'Flynn, Steven'
'Sanghvi, Sheel'
'Nisbet, Matthew L.'
'Griffith, Kent J.'
'Zhang, Weiguo'
'Halasyamani, P. Shiv'
'Haile, Sossina M.'
'Poeppelmeier, Kenneth R.'
_publ_section_title
;
 LiIn2SbO6: A New Rutile-Related Structure Type with Unique Ion Channels
;
_journal_name_full               'Chemistry of Materials'
_journal_paper_doi               10.1021/acs.chemmater.0c01491
_journal_year                    2020
_chemical_formula_moiety         '0.5(In4 O12 Sb2), Li'
_chemical_formula_sum            'In2 Li O6 Sb'
_chemical_formula_weight         454.33
_space_group_crystal_system      orthorhombic
_space_group_IT_number           58
_space_group_name_Hall           '-P 2 2n'
_space_group_name_H-M_alt        'P n n m'
_atom_sites_solution_primary     direct
_audit_creation_date             2020-01-14
_audit_creation_method
;
Olex2 1.2
(compiled 2018.05.29 svn.r3508 for OlexSys, GUI svn.r5506)
;
_cell_angle_alpha                90
_cell_angle_beta                 90
_cell_angle_gamma                90
_cell_formula_units_Z            2
_cell_length_a                   5.1170(3)
_cell_length_b                   5.3335(3)
_cell_length_c                   8.8794(6)
_cell_measurement_reflns_used    791
_cell_measurement_temperature    500
_cell_measurement_theta_max      36.409
_cell_measurement_theta_min      4.458
_cell_volume                     242.33(3)
_computing_cell_refinement       'SAINT V8.34A (Bruker, 2017)'
_computing_data_collection       'APEX2 V2017.3 (Bruker, 2017)'
_computing_data_reduction        'Bruker SAINT'
_computing_molecular_graphics    'Olex2 (Dolomanov et al., 2009)'
_computing_publication_material  'Olex2 (Dolomanov et al., 2009)'
_computing_structure_refinement  'XL (Sheldrick, 2008)'
_computing_structure_solution    'XS (Sheldrick, 2008)'
_diffrn_ambient_temperature      500.01
_diffrn_detector_area_resol_mean 8
_diffrn_measured_fraction_theta_full 1.000
_diffrn_measured_fraction_theta_max 1.000
_diffrn_measurement_device_type  'Bruker Kappa APEX CCD area detector'
_diffrn_measurement_method       '\w and \f scans'
_diffrn_radiation_monochromator  'MX optics'
_diffrn_radiation_type           MoK\a
_diffrn_radiation_wavelength     0.71073
_diffrn_reflns_av_R_equivalents  0.0809
_diffrn_reflns_av_unetI/netI     0.0643
_diffrn_reflns_Laue_measured_fraction_full 1.000
_diffrn_reflns_Laue_measured_fraction_max 1.000
_diffrn_reflns_limit_h_max       7
_diffrn_reflns_limit_h_min       -7
_diffrn_reflns_limit_k_max       7
_diffrn_reflns_limit_k_min       -7
_diffrn_reflns_limit_l_max       8
_diffrn_reflns_limit_l_min       -12
_diffrn_reflns_number            2860
_diffrn_reflns_point_group_measured_fraction_full 1.000
_diffrn_reflns_point_group_measured_fraction_max 1.000
_diffrn_reflns_theta_full        25.242
_diffrn_reflns_theta_max         30.500
_diffrn_reflns_theta_min         4.458
_diffrn_source                   microsource
_diffrn_standards_number         0
_exptl_absorpt_coefficient_mu    14.919
_exptl_absorpt_correction_T_max  0.7471
_exptl_absorpt_correction_T_min  0.5328
_exptl_absorpt_correction_type   multi-scan
_exptl_absorpt_process_details
'SADABS-2016/2 (Bruker,2016/2) was used for absorption correction. wR2(int) was 0.1171 before and 0.0793 after correction. The Ratio of minimum to maximum transmission is 0.7132. The \l/2 correction factor is Not present.'
_exptl_crystal_colour            colourless
_exptl_crystal_colour_primary    colourless
_exptl_crystal_density_diffrn    6.226
_exptl_crystal_description       block
_exptl_crystal_F_000             400
_exptl_crystal_size_max          0.092
_exptl_crystal_size_mid          0.047
_exptl_crystal_size_min          0.037
_refine_diff_density_max         1.418
_refine_diff_density_min         -1.259
_refine_diff_density_rms         0.370
_refine_ls_extinction_coef       0.030(2)
_refine_ls_extinction_expression Fc^*^=kFc[1+0.001xFc^2^\l^3^/sin(2\q)]^-1/4^
_refine_ls_extinction_method     'SHELXL-2018/3 (Sheldrick 2018)'
_refine_ls_goodness_of_fit_ref   0.968
_refine_ls_hydrogen_treatment    undef
_refine_ls_matrix_type           full
_refine_ls_number_parameters     32
_refine_ls_number_reflns         401
_refine_ls_number_restraints     0
_refine_ls_restrained_S_all      0.968
_refine_ls_R_factor_all          0.0317
_refine_ls_R_factor_gt           0.0260
_refine_ls_shift/su_max          0.000
_refine_ls_shift/su_mean         0.000
_refine_ls_structure_factor_coef Fsqd
_refine_ls_weighting_details     'w=1/[\s^2^(Fo^2^)] where P=(Fo^2^+2Fc^2^)/3'
_refine_ls_weighting_scheme      calc
_refine_ls_wR_factor_gt          0.0659
_refine_ls_wR_factor_ref         0.0735
_reflns_Friedel_coverage         0.000
_reflns_number_gt                305
_reflns_number_total             401
_reflns_threshold_expression     'I > 2\s(I)'
_iucr_refine_instructions_details
;
TITL work3 in Pnnm #58
    work3.res
    created by SHELXL-2018/3 at 12:07:32 on 14-Jan-2020
REM reset to Pnnm #58
CELL 0.71073 5.117 5.3335 8.8794 90 90 90
ZERR 2 0.0003 0.0003 0.0006 0 0 0
LATT 1
SYMM -X,-Y,+Z
SYMM 0.5+X,0.5-Y,0.5-Z
SYMM 0.5-X,0.5+Y,0.5-Z
SFAC In Li O Sb
UNIT 4 2 12 2
EQIV $1 1-X,-Y,+Z
EQIV $2 1-X,1-Y,+Z
EQIV $3 +X,1+Y,+Z
EQIV $4 1-X,1-Y,1-Z
EQIV $5 +X,1+Y,1-Z
EQIV $6 +X,+Y,1-Z
EQIV $7 1-X,-Y,1-Z

L.S. 4 0 0
PLAN  20
SIZE 0.037 0.047 0.092
TEMP 226.86
CONN 0 Li1
FREE Sb1 In1_$3
FREE Sb1 In1_$2
FREE Sb1 In1_$5
FREE Sb1 In1_$4
FREE Sb1 In1_$7
FREE Sb1 In1_$6
FREE Sb1 In1_$1
FREE Sb1 In1
fmap 2 53
acta
REM <olex2.extras>
REM <HklSrc "%.\\work3.hkl">
REM </olex2.extras>

WGHT    0.000000
EXTI    0.030303
FVAR       0.15212
SB1   4    0.500000    0.500000    0.500000    10.25000    0.00798    0.00739 =
         0.00694    0.00000    0.00000    0.00037
IN1   1    0.500000    0.000000    0.299648    10.50000    0.00948    0.00938 =
         0.00935    0.00000    0.00000   -0.00072
O1    3    0.280104    0.336157    0.343224    11.00000    0.01515    0.01580 =
         0.01565   -0.00369   -0.00603    0.00269
O2    3    0.697913    0.184344    0.500000    10.50000    0.00987    0.01203 =
         0.01602    0.00000    0.00000    0.00142
LI1   2    0.048999    0.085574    0.500000    10.25000    0.00842    0.03676 =
         0.04098    0.00000    0.00000    0.01451
HKLF 4




REM  work3 in Pnnm #58
REM wR2 = 0.073505, GooF = S = 0.96815, Restrained GooF = 0.96815 for all data
REM R1 = 0.025999 for 305 Fo > 4sig(Fo) and 0.031652 for all 401 data
REM 32 parameters refined using 0 restraints

END  
     
WGHT      0.0000      0.0000 

REM Highest difference peak  1.418,  deepest hole -1.259,  1-sigma level  0.370
Q1    1   0.0000  0.0000  0.5316  10.50000  0.05    1.42
Q2    1   0.4134 -0.0002  0.4018  11.00000  0.05    1.19
Q3    1   0.5000  0.0000  0.2153  10.50000  0.05    1.10
Q4    1   0.5000  0.5000  0.4298  10.50000  0.05    1.09
Q5    1   0.7564  0.2583  0.5000  10.50000  0.05    1.06
Q6    1   0.3956  0.4972  0.3788  11.00000  0.05    1.02
Q7    1   0.2677  0.2491  0.5000  10.50000  0.05    0.93
Q8    1   0.2056  0.3208  0.3999  11.00000  0.05    0.91
Q9    1   0.5000  0.5000  0.2158  10.50000  0.05    0.87
Q10   1   0.4940  0.3891  0.5000  10.50000  0.05    0.86
Q11   1   0.6357 -0.0225  0.5000  10.50000  0.05    0.84
Q12   1   0.7442  0.3146  0.6445  11.00000  0.05    0.81
Q13   1   0.6058  0.1845  0.5976  11.00000  0.05    0.81
Q14   1   0.2604  0.2788  0.3441  11.00000  0.05    0.76
Q15   1   0.7984  0.3206  0.6028  11.00000  0.05    0.75
Q16   1  -0.0229  0.1832  0.5000  10.50000  0.05    0.75
Q17   1   0.0209  0.2605  0.5000  10.50000  0.05    0.74
Q18   1   0.0000  0.5000  0.5000  10.25000  0.05    0.72
Q19   1   0.3966  0.1846  0.3977  11.00000  0.05    0.61
Q20   1   0.2360  0.1097  0.4170  11.00000  0.05    0.57

  REM The information below was added by Olex2.
  REM
  REM R1 = 0.025999 for 305 Fo > 4sig(Fo) and 0.031652 for all 3167 data
  REM n/a parameters refined using n/a restraints
  REM Highest difference peak 1.42, deepest hole -1.26
  REM Mean Shift 0, Max Shift 0.000.

  REM +++ Tabular Listing of Refinement Information +++
  REM R1_all = 0.031652
  REM R1_gt = 0.025999
  REM wR_ref = 0.073505
  REM GOOF = 0.96815
  REM Shift_max = 0.000
  REM Shift_mean = 0
  REM Reflections_all = 3167
  REM Reflections_gt = 305
  REM Parameters = n/a
  REM Hole = -1.26
  REM Peak = 1.42
  REM Flack = n/a

  
;
_cod_data_source_file            cm0c01491_si_003.cif
_cod_data_source_block           work3
_cod_database_code               4003561
_shelx_shelxl_version_number     2018/3
_shelx_space_group_comment
;
The symmetry employed for this shelxl refinement is uniquely defined
by the following loop, which should always be used as a source of
symmetry information in preference to the above space-group names.
They are only intended as comments.
;
_shelx_estimated_absorpt_t_max   0.608
_shelx_estimated_absorpt_t_min   0.341
_olex2_refinement_description
;
1. Others
 Fixed Sof: Li1(0.25)
;
_olex2_submission_special_instructions 'No special instructions were received'
loop_
_space_group_symop_operation_xyz
'x, y, z'
'-x, -y, z'
'x+1/2, -y+1/2, -z+1/2'
'-x+1/2, y+1/2, -z+1/2'
'-x, -y, -z'
'x, y, -z'
'-x-1/2, y-1/2, z-1/2'
'x-1/2, -y-1/2, z-1/2'
loop_
_atom_site_label
_atom_site_type_symbol
_atom_site_fract_x
_atom_site_fract_y
_atom_site_fract_z
_atom_site_U_iso_or_equiv
_atom_site_adp_type
_atom_site_occupancy
_atom_site_site_symmetry_order
_atom_site_calc_flag
_atom_site_refinement_flags_posn
_atom_site_refinement_flags_adp
_atom_site_refinement_flags_occupancy
_atom_site_disorder_assembly
_atom_site_disorder_group
Sb1 Sb 0.500000 0.500000 0.500000 0.0074(2) Uani 1 4 d S T P . .
In1 In 0.500000 0.000000 0.29965(4) 0.0094(2) Uani 1 2 d S T P . .
O1 O 0.2801(5) 0.3362(6) 0.3432(3) 0.0155(6) Uani 1 1 d . . . . .
O2 O 0.6979(6) 0.1843(7) 0.500000 0.0126(7) Uani 1 2 d S T P . .
Li1 Li 0.049(4) 0.086(5) 0.500000 0.029(6) Uani 0.5 2 d . . . . .
loop_
_atom_site_aniso_label
_atom_site_aniso_U_11
_atom_site_aniso_U_22
_atom_site_aniso_U_33
_atom_site_aniso_U_23
_atom_site_aniso_U_13
_atom_site_aniso_U_12
Sb1 0.0080(3) 0.0074(3) 0.0069(3) 0.000 0.000 0.00037(14)
In1 0.0095(3) 0.0094(3) 0.0093(3) 0.000 0.000 -0.00072(12)
O1 0.0151(12) 0.0158(14) 0.0156(14) -0.0037(10) -0.0060(10) 0.0027(10)
O2 0.0099(15) 0.0120(18) 0.0160(18) 0.000 0.000 0.0014(14)
Li1 0.008(9) 0.037(14) 0.041(14) 0.000 0.000 0.015(8)
loop_
_atom_type_symbol
_atom_type_description
_atom_type_scat_dispersion_real
_atom_type_scat_dispersion_imag
_atom_type_scat_source
In In -0.7276 1.3100 'International Tables Vol C Tables 4.2.6.8 and 6.1.1.4'
Li Li -0.0003 0.0001 'International Tables Vol C Tables 4.2.6.8 and 6.1.1.4'
O O 0.0106 0.0060 'International Tables Vol C Tables 4.2.6.8 and 6.1.1.4'
Sb Sb -0.5866 1.5461 'International Tables Vol C Tables 4.2.6.8 and 6.1.1.4'
loop_
_geom_angle_atom_site_label_1
_geom_angle_atom_site_label_2
_geom_angle_atom_site_label_3
_geom_angle
_geom_angle_site_symmetry_1
_geom_angle_site_symmetry_3
_geom_angle_publ_flag
O1 Sb1 O1 180.0 . 5_666 ?
O1 Sb1 O1 91.33(16) 5_666 6_556 ?
O1 Sb1 O1 180.0 2_665 6_556 ?
O1 Sb1 O1 88.67(16) . 6_556 ?
O1 Sb1 O1 91.33(16) . 2_665 ?
O1 Sb1 O1 88.67(16) 5_666 2_665 ?
O2 Sb1 O1 85.14(10) . 6_556 ?
O2 Sb1 O1 94.86(10) . 2_665 ?
O2 Sb1 O1 94.86(11) 5_666 6_556 ?
O2 Sb1 O1 85.14(11) 5_666 5_666 ?
O2 Sb1 O1 85.14(11) 5_666 2_665 ?
O2 Sb1 O1 94.86(10) . 5_666 ?
O2 Sb1 O1 85.14(10) . . ?
O2 Sb1 O1 94.86(10) 5_666 . ?
O2 Sb1 O2 180.0 5_666 . ?
In1 In1 Sb1 0.000(15) 2_655 1_545 ?
In1 In1 O1 0(10) 2_655 . ?
In1 In1 O1 0(10) 2_655 2_655 ?
In1 In1 O1 0(10) 2_655 4_545 ?
In1 In1 O1 0(10) 2_655 3 ?
In1 In1 O2 0(10) 2_655 . ?
In1 In1 O2 0(10) 2_655 5_656 ?
O1 In1 Sb1 132.85(8) 3 1_545 ?
O1 In1 Sb1 37.54(6) 2_655 1_545 ?
O1 In1 Sb1 89.38(8) 4_545 1_545 ?
O1 In1 Sb1 126.39(7) . 1_545 ?
O1 In1 O1 105.84(14) 4_545 3 ?
O1 In1 O1 159.28(13) 2_655 . ?
O1 In1 O1 95.64(6) 4_545 . ?
O1 In1 O1 96.81(6) 4_545 2_655 ?
O1 In1 O1 95.64(6) 3 2_655 ?
O1 In1 O1 96.81(6) 3 . ?
O1 In1 O2 89.24(11) 2_655 . ?
O1 In1 O2 162.92(10) 3 5_656 ?
O1 In1 O2 74.43(11) 2_655 5_656 ?
O1 In1 O2 162.92(10) 4_545 . ?
O1 In1 O2 89.35(10) 3 . ?
O1 In1 O2 89.24(11) . 5_656 ?
O1 In1 O2 89.35(10) 4_545 5_656 ?
O1 In1 O2 74.43(11) . . ?
O2 In1 Sb1 37.35(9) 5_656 1_545 ?
O2 In1 Sb1 85.72(8) . 1_545 ?
O2 In1 O2 76.86(14) 5_656 . ?
Sb1 O1 In1 101.29(11) . . ?
Sb1 O1 In1 128.61(15) . 3_455 ?
Sb1 O1 In1 101.29(11) . 2_655 ?
In1 O1 In1 126.43(12) 3_455 2_655 ?
In1 O1 In1 0.000(19) . 2_655 ?
In1 O1 In1 126.43(12) 3_455 . ?
Sb1 O2 In1 98.11(11) . . ?
Sb1 O2 In1 98.11(11) . 6_556 ?
Sb1 O2 In1 98.11(11) . 5_656 ?
Sb1 O2 In1 98.11(11) . 2_655 ?
In1 O2 In1 103.14(14) 2_655 5_656 ?
In1 O2 In1 0.0 2_655 . ?
In1 O2 In1 103.14(14) . 6_556 ?
In1 O2 In1 0.000(12) 5_656 6_556 ?
In1 O2 In1 103.14(14) 2_655 6_556 ?
In1 O2 In1 103.14(14) . 5_656 ?
loop_
_geom_bond_atom_site_label_1
_geom_bond_atom_site_label_2
_geom_bond_distance
_geom_bond_site_symmetry_2
_geom_bond_publ_flag
Sb1 O1 1.992(2) 6_556 ?
Sb1 O1 1.992(2) 5_666 ?
Sb1 O1 1.992(2) . ?
Sb1 O1 1.992(2) 2_665 ?
Sb1 O2 1.965(4) 5_666 ?
Sb1 O2 1.965(4) . ?
In1 In1 0.0000(7) 2_655 ?
In1 O1 2.104(3) 4_545 ?
In1 O1 2.104(3) 3 ?
In1 O1 2.152(3) 2_655 ?
In1 O1 2.152(3) . ?
In1 O2 2.271(2) 5_656 ?
In1 O2 2.271(2) . ?
loop_
_refln_index_h
_refln_index_k
_refln_index_l
_refln_F_squared_meas
_refln_F_squared_sigma
1 0 0 -0.06 0.04
-1 0 0 0.12 0.19
-2 0 0 472.08 59.52
2 0 0 418.77 59.2
3 0 0 0.11 0.12
-3 0 0 0.02 0.32
4 0 0 555.29 76.35
-4 0 0 589.51 76.94
-5 0 0 2.27 1.08
6 0 0 214.22 26.93
-6 0 0 175.9 27.59
7 0 0 -0.06 0.33
-7 0 0 0.23 0.77
0 -1 0 -0.03 0.04
0 1 0 -0.04 0.03
1 -1 0 111.08 15.01
-1 1 0 102.78 15.29
1 1 0 118.85 15.05
2 1 0 0.05 0.09
-2 1 0 0.72 0.51
-2 -1 0 -0.06 0.14
2 -1 0 0.02 0.07
3 -1 0 72.98 9.52
-3 -1 0 60.05 9.78
-3 1 0 62.52 10.03
3 1 0 79.92 9.59
-4 -1 0 -0.07 0.44
4 -1 0 0.23 0.18
-4 1 0 0.16 0.61
4 1 0 -0.01 0.17
5 -1 0 22.76 3.33
-5 1 0 21.29 4.44
-5 -1 0 17.81 4.01
5 1 0 27.93 3.44
6 1 0 0.38 0.26
-6 -1 0 0.39 0.7
-6 1 0 0.25 0.63
6 -1 0 0.3 0.24
7 1 0 17.25 2.57
7 -1 0 16.19 2.45
-7 -1 0 14.49 3.47
-7 1 0 9.75 3.09
0 2 0 584.5 77.62
0 -2 0 575.67 77.63
-1 -2 0 56.65 7.99
1 -2 0 57.72 8
-1 2 0 58.93 8.49
1 2 0 63.35 7.98
1 -2 0 58.47 7.97
2 -2 0 861.43 120.82
-2 2 0 1000 121.46
2 2 0 874.26 120.78
-3 -2 0 13.01 2.35
-3 2 0 14.51 2.99
3 2 0 13.41 2.04
3 -2 0 12.56 1.94
-4 -2 0 344.15 49.38
-4 2 0 321.99 49.8
4 -2 0 411.31 49.02
4 2 0 361.14 49.08
-5 2 0 -0.05 0.59
5 2 0 0.49 0.32
5 -2 0 0.86 0.33
-5 -2 0 0.51 0.59
-6 2 0 228.45 29.3
6 -2 0 202.65 27.99
6 2 0 216.25 28.13
-6 -2 0 190.79 28.61
-7 2 0 -0.13 0.81
-7 -2 0 0 0.67
7 2 0 -0.08 0.32
0 -3 0 -0.02 0.09
0 3 0 0.15 0.11
1 -3 0 87.86 10.54
-1 3 0 93.52 11.42
1 3 0 71.79 10.54
1 -3 0 73.77 10.57
-1 -3 0 74.44 10.56
2 3 0 0.2 0.17
2 -3 0 0.31 0.17
2 -3 0 0.02 0.08
2 3 0 0.33 0.16
-2 3 0 0.35 0.7
3 3 0 42.99 5.7
-3 3 0 38.08 6.98
3 -3 0 40.85 5.74
3 3 0 40.75 5.78
-4 3 0 -0.03 0.69
4 3 0 0.43 0.27
4 -3 0 1.05 0.38
4 3 0 -0.02 0.15
5 -3 0 26.29 4.42
5 3 0 33.46 4.26
-5 3 0 33.76 6.36
5 3 0 25.73 4.39
6 -3 0 0.44 0.5
6 3 0 0.18 0.39
-6 3 0 1.92 1.51
6 3 0 0.17 0.33
0 -4 0 476.63 63.87
-1 4 0 24.49 4.23
1 -4 0 16.34 2.46
-1 -4 0 23.41 2.56
1 4 0 13.41 2.51
2 -4 0 484.86 68.17
2 4 0 537.38 68.23
2 -4 0 540.55 68.26
2 4 0 481.71 68.3
-2 4 0 490.43 69.31
3 -4 0 6.21 0.86
-3 4 0 6.13 2.23
3 4 0 5.64 0.92
3 -4 0 6.04 0.98
3 4 0 1.68 0.8
-4 4 0 272.31 37.31
4 -4 0 269.67 36.09
4 4 0 255.41 36.12
4 4 0 274.38 36.04
5 4 0 1.04 0.5
-5 4 0 -0.49 1.06
5 4 0 0.92 0.46
5 -4 0 0.27 0.32
6 4 0 163.58 23.19
6 4 0 180.09 23.1
-6 4 0 176.11 24.77
6 -4 0 163.18 23.13
0 5 0 0.36 0.69
0 -5 0 -0.09 0.17
1 -5 0 41.62 5.54
-1 5 0 37.41 7.37
-1 -5 0 42.41 5.58
1 5 0 36.87 5.54
2 -5 0 0.21 0.21
2 5 0 -0.14 0.16
2 5 0 -0.08 0.16
-2 5 0 -0.59 0.66
3 5 0 20.32 2.91
3 -5 0 18.89 2.94
3 5 0 17.67 3
-3 5 0 16.91 4.38
4 -5 0 0.3 0.32
4 5 0 0.65 0.38
4 5 0 0.03 0.25
-4 5 0 1.67 1.46
5 5 0 16.45 2.63
-5 5 0 9.9 4.1
5 5 0 18.93 2.85
0 -6 0 357.14 46.69
0 6 0 327.7 47.91
-1 -6 0 0.14 0.26
-1 6 0 -0.49 1.09
1 -6 0 0.34 0.28
-2 6 0 215.9 27.01
2 6 0 191.25 25.14
2 6 0 168.66 25.2
-3 6 0 0.05 1.1
3 6 0 0.12 0.33
3 6 0 0.16 0.29
4 6 0 216.99 27.01
-4 6 0 184.08 28.39
4 6 0 190.21 26.84
0 7 0 -0.31 1.45
0 -7 0 0.25 0.3
1 7 0 6.02 2.65
-1 7 0 14.46 4.11
-2 7 0 1.91 1.66
2 7 0 0.03 0.33
2 7 0 0 0.31
0 0 -1 -0.02 0.02
0 0 -1 -0.02 0.02
-1 0 1 344.61 44.03
1 0 1 311.09 43.87
1 0 -1 331.25 43.91
2 0 -1 -0.13 0.06
2 0 1 -0.03 0.06
-2 0 1 -0.36 0.21
-2 0 -1 -0.36 0.19
3 0 -1 116.56 16.68
-3 0 1 128.48 17.11
3 0 1 131.24 16.66
-3 0 -1 117.09 17.07
4 0 -1 0.15 0.19
-4 0 1 0.57 0.56
4 0 1 0.13 0.14
-4 0 -1 0.31 0.49
5 0 -1 169.15 19.41
-5 0 1 124.15 19.9
-5 0 -1 124.95 19.89
5 0 1 142.73 19.31
-6 0 1 -0.09 0.51
6 0 -1 0.54 0.29
-6 0 -1 0.07 0.63
6 0 1 0.05 0.2
7 0 -1 31.14 5.16
-7 0 -1 35.39 6.56
-7 0 1 47.68 7.19
0 -1 -1 34.19 4.12
0 1 1 27.97 4.09
-1 -1 -1 0.18 0.13
-1 -1 -1 0.06 0.08
1 1 -1 0 0.07
1 1 -1 0.12 0.09
-1 1 1 -0.09 0.2
-1 1 -1 0.01 0.28
1 -1 -1 0.22 0.09
1 -1 -1 0.09 0.09
-2 -1 -1 14.93 2.17
2 -1 1 12.62 1.74
-2 1 1 13.08 2.44
2 1 -1 11.45 1.86
2 1 1 13.88 1.8
-2 -1 1 12.52 2.11
2 -1 -1 10.1 1.79
-2 1 -1 14.56 2.46
3 -1 1 0.44 0.15
-3 1 1 -0.29 0.24
-3 -1 -1 0.26 0.35
3 1 -1 0.57 0.72
3 1 -1 0.34 0.19
3 -1 -1 0.14 0.13
3 1 1 0.33 0.21
-3 1 -1 0.17 0.52
-3 -1 1 0.02 0.27
-4 -1 -1 16.81 2.93
4 1 -1 13 2.23
4 1 -1 24.52 4
-4 1 1 14.23 3.07
4 -1 1 14.29 2.13
-4 -1 1 14.68 2.86
-4 1 -1 13.9 3.16
4 -1 -1 14.8 2.2
4 1 1 11.45 2.15
5 1 -1 1.04 0.43
-5 -1 -1 0.82 0.78
-5 1 1 2 1.06
5 -1 1 1.41 0.42
5 1 1 1.15 0.4
5 -1 -1 1.5 0.45
-5 -1 1 0.45 0.54
-5 1 -1 1.73 1.05
-6 1 1 5.01 1.75
-6 -1 -1 3.8 1.58
6 1 -1 2.98 0.93
6 -1 1 4.78 0.92
6 1 1 7.51 1.15
6 -1 -1 5.04 0.98
-6 -1 1 3.75 1.64
-6 1 -1 4.38 1.77
7 1 -1 0.48 0.38
-7 1 1 -0.62 0.61
-7 -1 -1 -0.22 0.61
7 1 1 0.18 0.39
-7 -1 1 -0.1 0.59
-7 1 -1 1.07 1.08
7 -1 -1 0.29 2.75
7 -1 -1 -0.01 0.29
0 -2 -1 0.53 0.15
0 2 1 -0.02 0.06
0 2 -1 0.02 0.07
0 -2 1 0.03 0.04
1 -2 1 246.87 33.46
1 2 -1 248.55 33.49
1 -2 1 267.43 33.41
1 2 -1 240.37 33.45
-1 2 1 238.03 33.86
-1 -2 -1 257.21 33.47
1 2 1 236.86 33.41
1 -2 -1 256.88 33.48
2 2 -1 4.63 0.85
2 -2 1 5.87 0.87
2 2 -1 3.87 0.85
-2 2 1 5.6 1.48
-2 -2 -1 5.02 0.88
2 2 1 4.88 0.9
-2 2 -1 5.55 1.67
2 -2 -1 5.1 0.91
2 -2 -1 6.29 0.88
-3 2 1 208.83 30.94
3 -2 1 204.28 30.23
3 2 -1 260.42 30.39
3 2 -1 239.8 30.32
-3 -2 -1 247.69 30.55
-3 2 -1 203.09 30.93
3 -2 -1 238.12 30.38
3 2 1 209.52 30.31
3 -2 -1 215 30.28
-4 -2 -1 1.93 0.81
4 2 -1 4.52 0.82
4 -2 1 3.24 0.57
4 2 -1 1.99 0.59
-4 2 1 2.55 1.34
4 -2 -1 2.7 0.59
4 2 1 1.48 0.52
-4 -2 1 3.6 1.1
-4 2 -1 2.18 1.14
-5 -2 -1 72.09 11.15
5 2 -1 80.2 10.82
5 -2 1 78.93 10.64
-5 2 1 84.47 11.74
-5 -2 1 79.6 11.24
5 -2 -1 81.45 10.7
-5 2 -1 71.98 12.33
5 2 1 73.94 10.75
-6 2 1 2.09 1.42
6 2 -1 2.19 0.7
6 -2 1 2.05 0.6
-6 -2 -1 4.01 1.31
6 2 -1 1.63 0.6
6 2 1 1.4 0.55
-6 2 -1 2.23 1.44
6 -2 -1 1.1 0.48
-6 -2 1 1.77 1.11
7 2 -1 56.09 8.19
-7 2 1 63.44 10.39
7 2 -1 63.81 8.28
-7 -2 -1 66.19 9.66
7 -2 -1 55.66 8.11
-7 -2 1 60.88 9.66
-7 2 -1 46.03 9.53
7 -2 -1 72.92 12.78
7 2 1 56.14 8.17
0 3 1 13.32 2.77
0 -3 1 15.99 2.13
0 3 -1 15.21 2.15
0 -3 -1 14.52 2.16
-1 -3 -1 3.29 1.2
-1 -3 -1 1.22 0.35
1 -3 1 1.55 0.28
1 3 -1 1 0.32
-1 3 1 0.22 0.51
1 -3 -1 1.08 0.28
1 3 1 1.17 0.29
-1 3 -1 1.03 0.76
1 -3 -1 0.95 0.31
-2 3 1 22.97 3.95
2 3 -1 20.29 2.69
2 -3 1 18.4 2.66
2 -3 1 18.51 2.61
2 3 -1 17.94 2.83
-2 -3 -1 17.27 2.77
2 -3 -1 18.2 2.71
-2 3 -1 17.49 3.86
2 -3 -1 18.17 2.65
2 3 1 22.48 2.77
2 3 1 19.3 2.64
3 -3 1 0 0.13
-3 3 1 -0.05 0.56
3 3 -1 0.03 0.15
3 3 -1 -0.09 0.15
3 3 1 -0.12 0.1
3 3 1 -0.18 0.12
3 -3 -1 0 0.16
-3 3 -1 0.62 0.93
-4 3 1 4.65 1.94
4 3 -1 4.99 1.07
4 -3 1 4.92 1.07
4 3 -1 6.13 1.2
4 3 1 8.9 1.28
-4 3 -1 4.29 1.74
4 3 1 6.75 1.11
4 -3 -1 6.32 1.2
5 -3 1 -0.12 0.25
5 3 -1 0 0.25
5 3 -1 0.24 0.32
-5 3 1 -0.74 0.59
5 3 1 -0.18 0.22
5 -3 -1 0.06 0.35
-5 3 -1 0.1 0.85
5 -3 -1 -0.09 0.16
5 3 1 0.12 0.25
6 3 -1 12.12 1.75
6 -3 1 4.94 1.38
6 3 -1 10.06 1.72
-6 3 1 9.44 2.9
6 3 1 5.44 1.41
6 -3 -1 9.77 1.46
-6 3 -1 5.45 2.37
6 3 1 6.15 1.38
6 -3 -1 7.85 1.62
0 4 1 -0.16 0.37
0 -4 -1 0.17 0.18
0 -4 1 0.02 0.12
-1 -4 -1 142.76 21.14
-1 4 1 174.67 22.11
1 -4 1 146.83 21.07
-1 -4 -1 192.86 22.06
1 4 -1 156.9 21.13
1 4 1 158.5 21.1
-1 4 -1 141.75 21.99
1 -4 -1 161.64 21.12
2 -4 1 1.89 0.36
2 -4 1 1.23 0.39
-2 -4 -1 1.19 0.39
2 4 -1 1.67 0.48
2 4 -1 1.67 0.43
-2 4 1 5.13 1.82
2 -4 -1 1.36 0.37
2 4 1 1.41 0.37
-2 4 -1 1.72 1.25
2 -4 -1 0.73 0.36
3 -4 1 145.63 18.08
3 4 -1 130.26 18.17
-3 4 1 126.21 19.04
3 4 -1 126.08 18.07
-3 4 -1 127.1 19.24
3 4 1 138.12 18.18
3 -4 -1 128.4 18.12
3 -4 -1 141.62 18.04
3 4 1 130.1 18.03
-4 4 1 6.23 2.25
4 -4 1 3.5 0.71
4 4 -1 1.42 0.6
4 4 -1 3.5 0.77
-4 4 -1 2.14 1.48
4 4 1 3.42 0.65
4 -4 -1 1.57 0.61
4 4 1 2.41 0.69
5 4 -1 63.37 8.62
5 4 -1 59.46 8.5
-5 4 1 63.2 10.83
5 -4 1 62.4 8.56
5 -4 -1 63.13 8.59
5 4 1 59.25 8.56
5 4 1 60.22 8.45
-5 4 -1 58.52 10.71
6 4 -1 0.06 0.41
6 4 -1 1.58 0.63
-6 4 1 0.13 1.21
6 4 1 0.19 0.39
6 -4 -1 0.88 0.57
-6 4 -1 4.17 2.2
6 4 1 0.58 0.38
0 -5 -1 8.55 1.4
0 5 1 5.22 2.02
0 -5 1 8.7 1.34
1 -5 1 0.21 0.18
-1 -5 -1 0.1 0.19
1 5 -1 0.27 0.27
-1 5 1 1 1.02
1 -5 -1 0.27 0.22
-1 5 -1 1 1.01
1 5 1 -0.17 0.16
2 -5 1 11.54 1.87
-2 -5 -1 8.84 1.66
-2 5 1 5.11 2.43
2 5 -1 7.82 1.67
2 5 -1 11.46 1.72
2 -5 -1 11.71 1.62
2 -5 -1 11.97 1.77
-2 5 -1 11.03 3.25
2 5 1 8.42 1.58
3 5 -1 0.9 0.39
3 -5 1 0.33 0.28
3 5 -1 -0.15 0.21
-3 5 1 0.32 0.87
3 5 1 0.22 0.23
-3 5 -1 0.19 0.97
3 -5 -1 0.27 0.23
3 5 1 0.54 0.39
3 -5 -1 0.9 0.38
-4 5 1 8.51 3.07
4 5 -1 7.86 1.46
4 5 -1 6.06 1.47
4 5 1 5.6 1.46
-4 5 -1 12.32 3.53
4 5 1 9.25 1.45
4 -5 -1 10.92 1.68
5 5 -1 0.08 0.37
-5 5 1 -1.34 1.06
5 5 -1 0.19 0.45
5 5 1 0.5 0.37
5 5 1 -0.08 0.3
-5 5 -1 -0.41 1.02
5 -5 -1 0.44 0.41
0 6 1 0.42 0.99
0 -6 -1 0.02 1.51
0 6 -1 0.59 1.2
0 -6 1 -0.07 0.2
0 -6 -1 -0.11 0.23
1 6 -1 88.4 13.55
1 -6 1 102.54 13.78
-1 -6 -1 96.93 13.56
-1 6 1 101.9 14.9
1 6 1 107.17 14.67
-1 6 -1 100.94 15.95
1 -6 -1 107.35 13.56
2 6 -1 -0.14 0.23
2 6 -1 -0.23 0.24
-2 6 1 -1.06 0.79
2 6 1 -0.05 0.23
-2 6 -1 -0.32 1.09
2 6 1 -0.14 0.21
2 -6 -1 0.04 0.22
-3 6 1 60.98 10.01
3 6 -1 48.58 7.35
3 6 -1 52.11 7.48
3 6 1 60.33 7.54
-3 6 -1 53.29 9.85
3 6 1 51.52 7.32
-4 6 1 0.27 1.24
4 6 -1 0.35 0.4
4 6 -1 -0.23 0.27
4 6 1 0.64 0.47
4 6 1 0.07 0.34
-4 6 -1 -0.45 1.23
4 -6 -1 0.27 0.4
0 7 -1 10.34 3.46
0 -7 -1 7.9 1.58
0 7 1 13.09 3.64
1 7 -1 -0.52 1.23
-1 7 1 -1.03 1.12
-1 -7 -1 -0.06 0.32
1 7 -1 -0.21 0.27
1 -7 -1 -0.02 0.29
1 -7 -1 0.77 1.76
-1 7 -1 -0.47 1.32
2 7 -1 2.35 0.78
-2 7 1 4.68 2.31
2 7 -1 3.48 0.95
2 -7 -1 5.41 3.03
2 7 1 4.52 1.03
-2 7 -1 -0.37 1.53
0 0 -2 29.81 5.22
0 0 -2 30.49 4.14
0 0 -2 31.16 4.14
-1 0 -2 -0.04 0.04
1 0 -2 0.04 0.09
1 0 -2 -0.31 0.48
1 0 -2 -0.04 0.07
-1 0 2 -0.07 0.1
-1 0 -2 0.08 0.24
1 0 2 0.01 0.04
-1 0 -2 -0.26 0.4
2 0 -2 47.75 6
2 0 -2 40.4 5.1
2 0 2 37.67 5.02
-2 0 2 35.45 5.31
-2 0 -2 28.79 5.26
3 0 2 0.02 0.09
-3 0 2 -0.1 0.18
-3 0 -2 -0.15 0.31
3 0 -2 -0.43 0.51
3 0 -2 0.17 0.16
-4 0 -2 28.71 4.13
4 0 -2 23.71 4.74
-4 0 2 17.87 3.66
4 0 -2 17.98 3.01
4 0 2 20.21 2.85
-5 0 2 -0.48 0.42
5 0 -2 0.47 1.11
5 0 2 0.13 0.16
5 0 -2 -0.14 0.15
-5 0 -2 -0.2 0.49
6 0 -2 4.83 1.1
-6 0 -2 4.66 1.64
-6 0 2 6.62 2.07
6 0 2 5.13 1
7 0 -2 -0.33 0.31
-7 0 2 -0.19 0.61
-7 0 -2 0.08 0.63
0 -1 -2 0.03 0.07
0 1 -2 0.27 0.36
0 1 -2 0 0.05
0 -1 -2 0 0.06
0 1 -2 0.02 0.06
0 -1 -2 0.08 0.65
-1 -1 -2 582.25 79.71
1 1 -2 661.39 79.2
-1 -1 -2 572.44 79.19
-1 1 2 580.02 79.39
-1 1 -2 572.09 79.57
-1 1 -2 613.42 79.57
1 -1 -2 566.65 79.19
1 -1 -2 584.65 79.22
2 -1 2 7 0.96
-2 -1 -2 6.08 1.06
2 1 -2 9.36 2.14
-2 -1 -2 7.79 1.33
-2 1 2 4.89 1.37
2 1 -2 5.75 1.12
-2 -1 -2 10.75 1.77
2 1 -2 6.22 1.09
-2 1 -2 8.72 1.82
2 -1 -2 6.68 1.08
2 1 2 6.88 1.07
-2 -1 2 7.8 1.42
3 1 -2 637.97 75.22
3 -1 2 577.43 74.17
-3 1 2 491.08 74.7
3 1 -2 495.56 74.29
-3 -1 -2 553.84 74.51
3 1 2 578.34 74.23
3 -1 -2 492.82 74.24
-3 -1 2 564.86 74.6
-3 1 -2 627.16 74.87
4 1 -2 6.92 2.32
-4 -1 -2 4.06 1.18
4 -1 2 2.96 0.54
4 1 -2 2.82 0.67
-4 1 2 4.35 1.44
-4 1 -2 1.53 1.02
-4 -1 2 1.52 0.84
4 1 2 2.53 0.6
4 -1 -2 2.37 0.62
-5 -1 -2 216.93 31.2
5 1 -2 235.07 30.78
5 -1 2 242.57 30.62
-5 1 2 197.66 31.36
5 -1 -2 213.88 30.71
5 -1 -2 257.75 32.52
5 1 2 220.8 30.68
-5 -1 2 238.05 31.38
-5 1 -2 236.85 31.58
-6 1 2 2.02 1.23
6 1 -2 0.16 0.39
-6 -1 -2 1.58 1
6 -1 -2 2.1 1.85
-6 -1 2 2.05 1.03
6 -1 -2 1.82 0.56
6 1 2 2.44 0.6
-6 1 -2 2.39 1.27
7 1 -2 141.4 17.81
-7 -1 -2 119.24 18.43
-7 1 2 128.91 18.75
7 -1 -2 128.18 17.71
-7 -1 2 133.94 18.66
-7 1 -2 123.28 18.67
0 2 2 52.62 6.77
0 2 -2 43.16 6.53
0 -2 -2 51.71 6.55
0 -2 -2 52.74 7.36
0 -2 -2 46.92 6.58
1 2 -2 -0.05 0.09
-1 -2 -2 0.06 0.1
-1 -2 -2 -0.51 0.48
1 2 -2 -0.01 0.07
1 2 -2 -0.15 0.25
-1 2 2 0.39 0.34
1 -2 -2 -0.28 0.63
1 -2 -2 0.01 0.08
-1 2 -2 -0.33 0.33
1 2 2 -0.06 0.04
2 -2 2 23.1 2.93
2 2 -2 22.27 3.09
2 2 -2 16.48 3.01
-2 2 2 19.27 3.7
2 -2 2 23.34 3
-2 -2 -2 23.1 3.06
2 2 2 20.49 3.04
-2 2 -2 22.59 4.13
2 -2 -2 19.61 3.02
2 -2 -2 23.88 3.11
-3 2 2 0.19 0.49
-3 -2 -2 0.16 0.29
3 2 -2 -0.05 0.14
3 2 -2 -0.16 0.12
3 -2 -2 -0.12 0.11
3 2 2 0.16 0.16
-3 2 -2 0.73 0.67
3 -2 -2 0.14 0.18
-4 -2 -2 14.54 2.69
-4 2 2 8.89 2.75
4 2 -2 14.8 2.27
4 2 -2 12.79 2.26
4 -2 2 14.14 2.06
-4 -2 2 13.47 2.74
4 2 2 17.61 2.26
4 -2 -2 16.86 2.24
-4 2 -2 8.14 2.72
5 2 -2 0.65 0.39
-5 -2 -2 0.07 0.47
-5 2 2 0.42 0.6
5 2 -2 -0.14 0.22
5 -2 2 0.12 0.19
-5 -2 2 -0.02 0.46
5 -2 -2 0.4 0.3
5 2 2 -0.1 0.2
-5 2 -2 -0.42 0.63
6 2 -2 4.69 1.3
-6 2 2 6.05 2.29
-6 -2 -2 9.88 2.27
6 2 -2 6.55 1.4
6 -2 -2 8.32 1.42
6 -2 -2 5.62 2.79
-6 -2 2 7.08 2.03
6 2 2 7.32 1.41
-6 2 -2 8.45 2.73
0 3 -2 0.22 0.12
0 3 2 -0.2 0.33
0 -3 -2 0.01 0.76
0 -3 -2 -0.08 0.07
-1 -3 -2 457.41 67.03
1 3 -2 508.22 66.35
1 3 -2 451.08 66.35
-1 -3 -2 465.56 66.34
-1 3 2 428.04 66.75
1 -3 2 512.49 66.24
1 3 2 504.55 66.27
-1 3 -2 608.69 67.27
1 -3 -2 531.88 66.32
1 -3 -2 500.85 66.38
2 3 -2 -0.05 0.14
2 -3 2 0.08 0.1
-2 -3 -2 0.09 0.13
-2 3 2 -0.03 0.47
2 -3 2 0.03 0.06
2 3 -2 0.07 0.16
-2 3 -2 -0.24 0.42
2 -3 -2 -0.07 0.11
2 3 2 -0.08 0.08
3 -3 2 297.63 39.49
3 3 -2 273.44 39.6
3 3 -2 293.25 39.56
-3 3 2 277.38 40.31
3 -3 2 298.43 39.4
3 3 2 290.17 39.46
3 3 2 316.55 39.61
-3 3 -2 267.6 40.5
3 -3 -2 314.06 39.64
4 -3 2 0.83 0.31
-4 3 2 0.78 0.71
4 3 -2 0.62 0.3
4 3 -2 0.29 0.32
4 3 2 0.44 0.25
4 -3 -2 0.11 0.24
4 3 2 0.37 0.27
-4 3 -2 0.06 0.79
4 -3 -2 0.22 0.23
5 3 -2 237.66 33.24
-5 3 2 194.79 33.97
5 3 -2 268.22 33.18
5 -3 2 242.17 33.12
5 -3 -2 246.23 33.1
-5 3 -2 279.43 34.62
5 -3 -2 284.29 33.34
5 3 2 216.91 33.13
6 3 -2 0.82 0.49
6 3 -2 -0.02 0.35
-6 3 2 -0.5 0.78
6 -3 -2 0.3 0.37
6 -3 -2 -0.38 0.27
-6 3 -2 0.22 0.84
6 -3 -2 -0.32 1.53
6 3 2 0.12 0.37
0 4 -2 13.31 2.14
0 -4 -2 12.47 2.11
0 -4 -2 17.72 3.92
0 4 2 20.1 3.31
1 4 -2 0.23 0.2
1 4 -2 -0.04 0.14
1 -4 2 0.52 0.17
-1 -4 -2 0.02 0.98
-1 -4 -2 0.74 0.27
-1 4 2 -0.23 0.52
1 -4 -2 0.34 0.19
1 4 2 0.69 0.22
1 -4 -2 0.33 0.24
-1 4 -2 -0.5 0.59
2 4 -2 17.42 2.81
-2 -4 -2 21.72 2.83
2 4 -2 19.23 2.78
-2 4 2 20.79 3.93
2 -4 2 18.45 2.5
-2 4 -2 21.81 4.55
2 -4 -2 19.56 2.81
2 -4 -2 15.48 2.62
2 4 2 16.89 2.56
-3 4 2 -0.03 0.61
3 4 -2 0.19 0.23
3 -4 2 0.16 0.18
3 4 -2 -0.21 0.16
-3 4 -2 0.47 0.85
3 -4 -2 -0.02 0.14
3 4 2 -0.06 0.22
3 4 2 0.06 0.17
3 -4 -2 0.01 0.17
4 4 -2 6.78 1.26
-4 4 2 7.7 2.82
4 4 -2 6.5 1.33
4 4 2 5.21 1.08
4 4 2 7.01 1.27
4 -4 -2 7.99 1.38
-4 4 -2 3.64 1.93
-5 4 2 0.49 1.15
5 4 -2 0.45 0.4
5 4 -2 -0.05 0.33
5 4 2 -0.22 0.22
-5 4 -2 0.89 1.12
5 -4 -2 0.41 0.37
6 4 -2 2.37 0.98
6 4 -2 6.27 1.33
-6 4 2 14.38 3.79
6 -4 -2 8.89 4.13
6 -4 -2 5.1 1.25
-6 4 -2 1.46 1.91
6 4 2 5.41 1.19
0 5 2 -0.31 0.69
0 -5 -2 -0.34 1.04
0 -5 -2 0.13 0.23
-1 -5 -2 267.17 34.08
1 -5 2 253.48 33.94
1 5 -2 276.62 34.13
-1 5 2 256.08 35.01
1 5 -2 244.21 34.05
1 -5 -2 240.61 34.02
1 5 2 240.31 34
1 5 2 298.94 34.87
-1 5 -2 201.88 35.02
-2 -5 -2 0.09 0.23
2 5 -2 0.19 0.21
2 5 -2 0.01 0.21
-2 5 2 -0.3 0.79
2 -5 -2 0.62 0.33
2 5 2 0.46 0.24
-2 5 -2 -0.58 0.65
2 -5 -2 -0.16 0.16
3 5 -2 230.33 30.28
3 5 -2 214.87 30.2
-3 5 2 286.68 31.66
3 5 2 236.07 30.29
3 -5 -2 210.41 30.23
3 5 2 225.35 30.12
-3 5 -2 181.65 31.44
3 -5 -2 222.92 30.13
-4 5 2 0.83 1.28
4 5 -2 1.97 0.63
4 5 -2 0.54 0.35
-4 5 -2 2.59 1.78
4 5 2 0.67 0.36
4 5 2 1.38 0.52
4 -5 -2 1.34 0.54
4 -5 -2 1.3 0.44
5 5 -2 115.63 15.78
5 5 -2 107.54 15.87
-5 5 2 133.31 19.04
5 -5 -2 110.77 15.86
-5 5 -2 140.59 17.8
0 6 2 6.56 2.34
0 -6 -2 7.65 1.3
0 -6 -2 11.94 3.78
0 6 -2 3.62 2.04
1 6 -2 0.08 0.26
1 6 -2 0.44 0.31
-1 6 2 0.43 1.15
-1 -6 -2 0.16 0.25
1 -6 -2 2.73 2.18
1 -6 -2 0.61 0.34
-1 6 -2 -0.42 0.85
-2 -6 -2 8.16 1.4
2 6 -2 7.35 1.45
2 6 -2 5.97 1.32
-2 6 2 7.4 2.56
2 -6 -2 6.67 3.13
2 6 2 9.25 1.39
-2 6 -2 2.33 1.96
2 -6 -2 6.4 1.26
3 6 -2 0.19 0.34
-3 6 2 0.28 1.03
3 6 -2 0.39 0.45
3 6 2 0.08 0.29
-3 6 -2 0.92 1.38
3 6 2 0.06 0.29
3 -6 -2 0.16 0.35
3 -6 -2 -0.73 1.82
-4 6 2 4.55 2.55
4 6 -2 6.08 1.32
4 6 -2 5.35 1.21
4 6 2 4.38 1.11
-4 6 -2 6.18 2.73
4 6 2 4.47 1.17
4 -6 -2 2.62 2.83
4 -6 -2 10.35 1.64
0 7 -2 -0.26 0.29
0 7 -2 -0.02 1.06
0 -7 -2 -0.21 0.27
1 7 -2 142.24 20.34
-1 -7 -2 152.31 20.28
1 -7 -2 159.76 20.26
1 -7 -2 143.13 24.28
-1 7 -2 122.46 22.88
2 7 -2 0.05 0.33
2 7 -2 0.04 0.3
-2 7 2 0.75 1.44
2 -7 -2 0.57 1.96
2 7 2 0 0.37
-2 7 -2 -1.08 1.17
0 0 -3 0.65 0.71
-1 0 -3 45.56 7.03
-1 0 -3 56.56 7.63
1 0 -3 48.94 6.84
-1 0 -3 51.65 6.81
1 0 -3 51.68 7.81
-1 0 3 52.87 6.98
1 0 -3 49.99 6.85
-2 0 -3 0.62 0.41
-2 0 -3 0.24 0.45
-2 0 -3 0.09 0.08
-2 0 3 0.22 0.29
2 0 -3 0.1 0.65
2 0 3 -0.08 0.04
2 0 -3 0.11 0.12
2 0 -3 0.07 0.12
3 0 -3 22 2.96
3 0 -3 24.05 4.98
-3 0 -3 25.1 3.81
3 0 3 19.88 2.82
-3 0 3 16.22 3.41
4 0 -3 0.69 1.29
-4 0 3 -0.2 0.32
4 0 -3 0.13 0.17
4 0 3 0.08 0.13
-4 0 -3 0.54 0.64
5 0 -3 13.03 1.98
5 0 3 9.62 1.7
-5 0 -3 15.97 3.04
5 0 -3 22.07 5.12
-5 0 3 9.29 2.51
-6 0 3 -0.2 0.49
6 0 -3 -0.08 0.32
-6 0 -3 0.12 0.71
-7 0 3 -0.16 0.83
-7 0 -3 0.72 0.86
7 0 -3 2.53 0.74
0 -1 -3 404.87 54.2
0 1 -3 353.99 54.78
0 -1 -3 400.28 55.15
0 1 -3 398.63 54.16
0 1 -3 445.84 54.16
-1 1 3 64.72 8.54
-1 -1 -3 46.11 9.43
1 1 -3 57.01 8.37
1 1 -3 54.85 9.09
-1 -1 -3 56.6 8.36
1 1 -3 65.83 8.41
1 -1 -3 63.04 8.37
-1 1 -3 59.37 8.92
1 -1 -3 59.06 8.41
-1 1 -3 70.78 8.3
1 -1 -3 54.63 8.37
-1 1 -3 64.6 8.29
2 1 -3 718 85.31
-2 -1 -3 638.43 85.85
-2 -1 -3 636.36 85.4
-2 -1 -3 584.8 85.26
-2 1 3 608.82 85.6
2 1 -3 565.1 86.11
2 1 -3 650.54 85.34
2 -1 -3 628.26 85.35
2 1 3 626.01 85.25
2 -1 -3 746.46 86.66
-2 1 -3 646.28 85.84
2 -1 -3 623.14 85.29
-3 1 3 17.32 3.06
3 1 -3 13.92 2.24
-3 -1 -3 14.77 2.58
3 -1 3 14.34 2
3 1 -3 18.91 4.06
3 1 -3 13.12 2.24
-3 1 -3 14 2.96
-3 -1 3 17.73 2.81
3 1 3 13.8 2.12
3 -1 -3 15.76 4.02
3 -1 -3 14.1 2.22
4 -1 3 303.94 39.57
4 1 -3 300.59 39.77
4 1 -3 299.1 39.74
-4 1 3 322.15 40.41
4 1 -3 259.54 40.91
-4 -1 -3 295.23 40.06
4 1 3 288.01 39.65
-4 1 -3 291.12 40.41
-4 -1 3 270.36 40.15
4 -1 -3 330.05 41.41
4 -1 -3 292.31 39.72
5 1 -3 0.6 0.4
5 1 -3 0.38 0.3
-5 -1 -3 0.19 0.59
-5 1 3 0.86 0.74
-5 1 -3 0.32 0.73
5 -1 -3 0.24 1.16
5 1 3 0.14 0.2
5 -1 -3 1.06 0.43
-5 -1 3 0.39 0.57
6 1 -3 167.12 23.32
-6 -1 -3 205.95 24.08
-6 1 3 150.91 24.05
6 1 -3 166.23 23.32
-6 -1 3 183.65 24.16
6 -1 -3 170.68 23.27
-6 1 -3 148.22 24.04
6 -1 -3 200.53 25.75
-7 1 3 -0.23 0.8
-7 -1 -3 0.13 0.74
7 1 -3 0.46 0.5
7 1 -3 -0.26 0.29
7 -1 -3 -0.02 0.37
-7 -1 3 -0.05 0.66
-7 1 -3 -0.22 0.85
0 2 -3 0.07 0.41
0 -2 -3 0.32 0.85
0 2 -3 0.18 0.12
0 -2 -3 0.12 0.07
0 2 -3 0.02 0.08
0 2 3 -0.07 0.18
0 -2 -3 -0.1 0.09
1 2 -3 33.2 4.49
1 2 -3 35.93 4.51
-1 2 3 28.17 4.71
-1 -2 -3 35.38 4.51
1 2 -3 35.88 5.56
-1 -2 -3 47.31 6.7
1 -2 -3 33.96 6.3
1 -2 -3 29.53 4.52
1 2 3 31.84 4.37
2 2 -3 -0.02 0.12
-2 -2 -3 -0.13 0.1
2 2 -3 0.1 0.17
-2 -2 -3 -0.04 0.65
2 2 -3 -0.28 0.46
-2 2 3 0.09 0.4
-2 2 -3 -0.49 0.44
2 -2 -3 0.12 0.79
2 -2 -3 0.07 0.12
2 -2 -3 -0.09 0.11
-3 -2 -3 18.34 2.75
-3 -2 -3 21.68 3.25
3 2 -3 12.68 2.46
-3 2 3 18.68 3.39
3 2 -3 14.46 3.41
3 2 -3 15.25 2.46
-3 -2 -3 16.08 2.43
3 -2 -3 23.05 4.68
-3 2 -3 19.2 3.72
3 -2 -3 15.51 2.43
3 -2 -3 13.45 2.49
3 2 3 16.87 2.44
4 2 -3 1.22 0.43
-4 -2 -3 0.94 0.59
4 2 -3 1.65 0.52
-4 2 3 0.92 0.77
-4 2 -3 -0.12 0.65
4 -2 -3 -0.07 0.93
4 -2 -3 0.91 0.39
4 2 3 0.46 0.28
4 -2 -3 1.13 0.37
5 2 -3 8.04 1.63
-5 2 3 6.85 2.28
-5 -2 -3 12.42 2.4
5 2 -3 9.22 1.7
5 -2 -3 9.85 3.54
5 -2 -3 8.48 1.78
-5 2 -3 9.17 2.79
5 2 3 10.45 1.63
5 -2 -3 7.56 1.54
6 2 -3 0.79 0.46
-6 2 3 0.24 0.83
6 2 -3 0.04 0.38
-6 -2 -3 0.66 0.75
6 -2 -3 0.23 0.36
-6 2 -3 0.48 0.95
6 -2 -3 -0.28 0.3
6 -2 -3 -0.33 1.39
6 2 3 0.13 0.3
0 -3 -3 530.13 81.4
0 3 -3 637.14 80.33
0 -3 -3 551.8 80.33
0 3 3 608.98 80.58
0 3 -3 646.7 80.33
-1 -3 -3 0.51 0.22
-1 -3 -3 -0.14 0.92
1 3 -3 0.2 0.18
-1 3 3 0.12 0.32
1 3 -3 0.37 0.22
1 -3 -3 0.59 0.28
1 3 3 0.75 0.43
1 -3 -3 0.38 0.18
1 3 3 0.13 0.11
1 -3 -3 0.03 0.87
-2 3 3 234.38 35.95
2 3 -3 265.17 35.68
-2 -3 -3 214 35.98
-2 -3 -3 259.78 35.47
2 -3 3 290.32 35.36
2 3 -3 259.43 35.49
2 3 -3 279.98 35.47
2 -3 -3 267.73 35.53
2 -3 -3 334.28 37.41
2 3 3 260.84 35.34
-2 3 -3 240.48 36.34
-3 3 3 0.14 0.5
3 3 -3 0.64 0.3
-3 -3 -3 0.02 0.17
3 3 -3 0.06 0.18
3 3 3 -0.05 0.12
-3 3 -3 1.15 0.97
3 3 3 0.15 0.19
3 -3 -3 0.17 0.22
3 -3 -3 -0.45 0.77
4 3 -3 288 40.97
4 3 -3 305.4 40.9
-4 3 3 259.16 41.62
4 -3 -3 380.11 43.29
-4 3 -3 267.37 41.84
4 -3 -3 330.09 41.03
4 3 3 304.63 40.88
4 -3 -3 311.74 40.88
-5 3 3 -0.39 0.85
5 3 -3 0.05 0.29
5 3 -3 -0.02 0.25
5 -3 -3 -0.19 0.17
5 -3 -3 0.19 0.37
-5 3 -3 2.21 1.42
5 3 3 0.16 0.24
5 -3 -3 0.22 1.38
6 3 -3 126.18 17.27
6 3 -3 121.02 17.31
-6 3 3 140.4 18.57
6 -3 -3 136.48 17.46
6 -3 -3 119.13 17.17
-6 3 -3 116.74 18.51
6 -3 -3 98.37 20.35
6 3 3 134.36 17.25
0 4 -3 0.01 0.15
0 -4 -3 0.26 1.2
0 -4 -3 0.01 0.15
0 4 3 0.06 0.52
0 4 -3 0.05 0.18
-1 -4 -3 6.67 2.78
1 4 -3 11.48 1.78
1 4 -3 11.9 1.81
-1 4 3 10.1 2.42
-1 -4 -3 9.1 1.73
1 -4 -3 11.32 1.87
1 4 3 9.48 2.18
-1 4 -3 15.72 3.37
1 -4 -3 13.62 3.99
1 4 3 12.16 1.7
1 -4 -3 11.89 1.77
2 4 -3 -0.08 0.16
-2 -4 -3 0.01 0.14
-2 4 3 0.2 0.57
2 4 -3 0.03 0.17
2 -4 -3 -0.09 0.99
-2 4 -3 0.08 0.76
2 -4 -3 0.18 0.19
2 -4 -3 -0.06 0.12
2 4 3 0.14 0.16
3 4 -3 11.25 2.08
3 4 -3 14.31 2.11
-3 -4 -3 15.8 2.18
-3 4 3 8.59 2.76
3 -4 -3 16.45 2.27
-3 4 -3 6.58 2.74
3 -4 -3 13.89 4.12
3 -4 -3 12.46 2
3 4 3 13.14 1.82
3 4 3 10.68 2.04
4 4 -3 0.06 0.25
4 4 -3 0.48 0.35
-4 4 3 0.5 0.86
4 -4 -3 2.03 1.62
-4 4 -3 -0.1 0.94
4 -4 -3 0.07 0.29
4 4 3 0.79 0.35
5 4 -3 2.75 0.9
5 4 -3 2.98 0.83
-5 4 3 5.26 2
5 -4 -3 3.52 2.65
5 4 3 3.63 0.86
-5 4 -3 5.38 2.38
5 -4 -3 2.17 0.81
0 -5 -3 225.12 29.69
0 5 3 175 28.33
0 -5 -3 220.26 27.85
0 5 -3 207.84 27.83
1 5 -3 4.69 1.02
-1 5 3 4.37 1.61
1 5 -3 4.05 0.97
-1 -5 -3 7.57 2.87
-1 -5 -3 6.66 1.09
-1 5 -3 6.86 2.36
1 -5 -3 5.87 2.7
1 -5 -3 4.91 0.96
-2 -5 -3 248.53 36.68
-2 5 3 250.08 37.38
2 5 -3 277.89 36.7
2 5 -3 288.74 36.75
2 5 3 286.16 36.59
2 -5 -3 258.12 36.63
2 -5 -3 278.3 36.77
2 -5 -3 325.68 39.21
-2 5 -3 253.16 38.05
-3 5 3 3.45 1.73
3 5 -3 2.16 0.72
3 5 -3 1.76 0.62
-3 -5 -3 2.71 0.72
3 -5 -3 1.99 0.57
-3 5 -3 4.05 2.1
3 5 3 3.48 0.66
3 -5 -3 3.81 2.46
3 5 3 1.8 0.62
3 -5 -3 2.73 0.77
4 5 -3 142.58 19.15
4 5 -3 141.83 19.25
-4 5 3 161.05 20.58
4 5 3 140.72 19.19
4 -5 -3 187.72 22.48
4 -5 -3 131.39 19.06
-4 5 -3 133.33 20.62
4 -5 -3 132.24 19.22
-5 5 3 -0.09 1.18
5 5 -3 0.58 0.45
5 5 -3 0.07 0.37
5 5 3 0.27 0.44
5 -5 -3 -0.04 0.35
-5 5 -3 0.04 1.25
5 -5 -3 -0.55 1.57
0 -6 -3 -0.38 1.45
0 -6 -3 0.13 0.26
0 6 -3 0.17 0.34
1 6 -3 5.62 1.26
-1 -6 -3 7.52 1.3
1 6 -3 8.05 1.38
1 -6 -3 4.73 3.07
-1 6 -3 4.64 2.27
1 -6 -3 6.11 1.22
-2 6 3 0.48 0.98
2 6 -3 0.58 0.37
-2 -6 -3 0.36 0.33
2 6 -3 0.78 0.45
2 -6 -3 0.37 1.36
-2 6 -3 -0.21 1.04
2 -6 -3 -0.08 0.23
2 6 3 0.08 0.29
3 6 -3 3.76 0.96
3 6 -3 3.39 0.93
-3 6 3 1.81 1.69
3 -6 -3 3.53 0.87
3 -6 -3 10.65 4.32
3 -6 -3 5.19 1.14
-3 6 -3 3.9 2.31
3 6 3 4.44 1.03
3 6 3 4.12 0.87
-4 6 3 2.01 1.63
4 6 -3 -0.03 0.34
4 6 -3 0.17 0.37
4 6 3 0.34 0.41
4 -6 -3 0.07 2.01
4 -6 -3 0.07 0.34
-4 6 -3 0.37 1.39
0 -7 -3 129.02 17.24
0 7 -3 124.1 17.28
0 7 -3 123.58 20.28
-1 -7 -3 1.97 0.61
1 7 -3 0.67 0.56
1 -7 -3 4.74 2.95
1 -7 -3 2.54 0.66
-1 7 -3 0.48 1.39
-2 -7 -3 122.93 18.36
2 7 -3 134.14 18.43
2 7 -3 137.89 18.42
2 -7 -3 149.09 18.36
-2 7 -3 95.25 20.63
2 -7 -3 175.64 24.69
0 0 -4 204.75 34.63
0 0 -4 271.95 33.63
0 0 -4 270.55 33.65
0 0 -4 233.01 33.59
1 0 -4 0 0.08
-1 0 -4 -0.18 0.27
1 0 -4 -0.07 0.08
-1 0 -4 -0.31 0.52
1 0 -4 0.08 0.11
-1 0 -4 -0.1 0.04
1 0 -4 0.69 0.96
-2 0 4 250.16 38.39
2 0 -4 265.12 38.18
2 0 4 309.69 38.06
-2 0 -4 288.08 38.11
-2 0 -4 268.87 38.89
2 0 -4 267.59 38.17
2 0 -4 300.99 39.69
-2 0 -4 326.74 38.53
3 0 -4 0.18 0.89
-3 0 4 0.35 0.43
3 0 -4 -0.11 0.14
3 0 -4 0.13 0.16
3 0 4 0.07 0.08
-3 0 -4 0.65 0.6
4 0 -4 130.1 15.83
-4 0 -4 105.09 16.22
4 0 4 107.42 15.6
4 0 -4 180.51 18.58
-4 0 4 110.49 16.28
5 0 -4 -0.65 1.73
5 0 -4 -0.13 0.19
-5 0 -4 0.6 0.82
-5 0 4 0 0.59
6 0 -4 93.01 12.03
-6 0 -4 80.48 12.6
-6 0 4 83.79 12.74
0 1 -4 0.02 0.06
0 -1 -4 -0.03 0.07
0 1 -4 0 0.08
0 1 -4 -0.12 0.54
0 -1 -4 0.47 0.85
-1 -1 -4 11.56 3.38
1 1 -4 15.78 3.82
-1 1 4 13.12 2.38
-1 -1 -4 15.69 2.14
1 1 -4 12.74 2.13
1 1 -4 16.79 2.18
-1 1 -4 16.57 2.07
1 -1 -4 16.84 2.16
1 -1 -4 15.23 2.12
1 -1 -4 14.38 2.18
1 -1 -4 10.42 3.5
-1 1 -4 11.67 3.13
2 1 -4 3.42 1.87
-2 -1 -4 6.08 0.82
-2 -1 -4 2.42 1.35
-2 -1 -4 4.07 0.91
2 1 -4 4.66 0.84
2 1 -4 4.84 0.84
-2 1 4 3.64 1.03
-2 1 -4 2.96 1.22
2 -1 -4 4.11 0.84
2 -1 -4 8.81 2.89
2 -1 -4 3.54 0.76
-2 1 -4 5.58 1.76
3 1 -4 22.03 3.62
3 1 -4 26.41 3.52
-3 -1 -4 22.98 3.43
-3 -1 -4 29.91 4.12
-3 1 4 20.33 4.11
-3 -1 -4 36.43 5.06
3 1 -4 20.17 5.28
3 -1 -4 25.01 3.51
3 1 4 24.25 3.41
-3 -1 4 19.12 3.92
-3 1 -4 41.28 5.16
3 -1 -4 28.29 6.08
4 1 -4 2.71 2.1
-4 -1 -4 5.71 1.42
-4 1 4 2.89 1.27
4 1 -4 2.91 0.78
4 1 -4 4.59 0.89
4 1 4 3.23 0.67
-4 1 -4 2.71 1.3
4 -1 -4 4.38 0.86
4 -1 -4 3.89 2.32
-4 -1 4 2.92 1.16
-5 -1 -4 3.53 1.27
5 1 -4 2.61 0.78
-5 1 4 2.57 1.32
5 1 -4 3.28 0.85
-5 -1 4 3.2 1.3
5 -1 -4 3.36 0.8
5 -1 -4 2.44 1.94
-5 1 -4 3.68 1.49
6 1 -4 1.19 0.54
-6 -1 -4 0.41 0.87
6 1 -4 1.41 0.65
-6 1 4 2.88 1.49
-6 -1 4 4.41 1.55
6 -1 -4 1.17 1.86
-6 1 -4 2 1.32
6 -1 -4 1.84 0.6
0 -2 -4 226.1 30.94
0 2 4 233.55 29.51
0 -2 -4 209.35 29.5
0 2 -4 225.25 30.25
0 2 -4 203.35 29.48
0 2 -4 226.11 29.48
0 -2 -4 219.28 29.56
-1 -2 -4 3.17 1.58
-1 2 4 2.18 0.65
1 2 -4 1.1 0.98
-1 -2 -4 1.18 0.34
1 2 -4 1.42 0.38
1 2 -4 1.67 0.4
1 -2 -4 2.45 1.61
-1 2 -4 1.7 0.29
-1 2 -4 0.01 0.52
1 2 4 1.4 0.22
1 -2 -4 1.77 0.44
1 -2 -4 1.5 0.33
-2 -2 -4 176.28 27.28
-2 -2 -4 178.23 26.45
2 2 -4 194.71 26.52
2 2 -4 161.5 27.19
-2 2 4 202.3 26.86
2 2 -4 222.65 26.5
2 -2 -4 227.1 28.34
2 -2 -4 197.26 26.53
-2 2 -4 230.87 27.42
-3 -2 -4 0.09 0.3
3 2 -4 0.66 1.07
-3 2 4 0.45 0.6
3 2 -4 0.46 0.29
3 2 -4 0.23 0.27
-3 -2 -4 0.67 0.26
-3 -2 -4 1.13 0.89
3 -2 -4 1 1.41
-3 2 -4 2.67 1.26
3 -2 -4 0.49 0.27
3 2 4 0.46 0.22
3 -2 -4 0.29 0.28
-4 2 4 149.4 19.1
-4 -2 -4 161.4 18.6
4 2 -4 141.15 18.42
4 2 -4 123.34 18.31
4 -2 -4 130.25 18.42
-4 2 -4 135.34 19.2
4 2 4 135.41 18.25
4 -2 -4 129.11 20.1
4 -2 -4 118.58 18.29
5 2 -4 -0.04 0.34
5 2 -4 1.13 0.48
-5 2 4 1.02 0.93
-5 -2 -4 1.18 0.81
5 2 4 1.05 0.41
5 -2 -4 1.02 0.42
5 -2 -4 1.43 1.74
-5 2 -4 0.1 0.8
5 -2 -4 0 0.27
-6 2 4 57.52 9.83
6 2 -4 61.6 8.11
6 2 -4 59.19 8.14
6 -2 -4 54.58 8.24
-6 2 -4 68.97 10.51
6 -2 -4 40.73 10.65
6 -2 -4 55.89 8.05
0 -3 -4 0.19 0.16
0 -3 -4 -0.16 0.93
0 3 -4 -0.05 0.12
0 3 -4 -0.14 0.1
0 3 4 0.1 0.27
1 3 -4 21.19 2.87
1 3 -4 19.97 2.85
-1 -3 -4 17.75 2.92
1 3 -4 19.32 3.77
-1 3 4 20.76 3.45
-1 -3 -4 19.4 4.67
1 3 4 21.27 2.74
1 -3 -4 21.31 5.26
-1 3 -4 18.31 2.77
1 -3 -4 16.26 2.97
1 -3 -4 22.92 2.87
-2 -3 -4 0.06 0.99
2 3 -4 -0.19 0.12
-2 3 4 0.7 0.65
2 3 -4 -0.11 0.13
2 3 -4 0.02 0.5
-2 -3 -4 -0.14 0.14
-2 3 -4 0.7 0.83
2 -3 -4 -0.09 0.15
2 3 4 0.21 0.09
2 -3 -4 -0.59 0.87
-3 3 4 3.81 1.38
-3 -3 -4 2.95 0.63
3 3 -4 1.86 0.59
3 3 -4 2 0.55
3 -3 -4 2.2 1.62
3 -3 -4 2.86 0.7
-3 3 -4 1.91 1.27
3 3 4 1.32 0.45
-4 3 4 -0.45 0.54
4 3 -4 0.18 0.3
4 3 -4 0.37 0.31
-4 3 -4 0.74 1.09
4 -3 -4 -0.26 1.21
4 -3 -4 0.02 0.23
4 -3 -4 0.2 0.23
4 3 4 0.28 0.28
-5 3 4 17.79 4
5 3 -4 15.54 2.73
5 3 -4 16.49 2.78
5 -3 -4 15.25 2.81
5 -3 -4 15.63 4.99
-5 3 -4 23.58 4.81
5 3 4 17.65 2.64
5 -3 -4 14.14 2.6
6 3 -4 -0.37 0.38
-6 3 4 0.14 0.88
6 3 -4 0.25 0.42
6 -3 -4 1.39 1.9
6 -3 -4 -0.02 0.4
-6 3 -4 -0.14 1.16
6 -3 -4 0.32 0.39
0 4 -4 163.75 21.96
0 -4 -4 144.96 21.93
0 -4 -4 192.58 24.03
0 4 -4 170.71 21.94
-1 -4 -4 -0.43 1.13
1 4 -4 -0.09 0.14
1 4 -4 -0.03 0.17
-1 4 4 0.02 0.53
-1 -4 -4 -0.08 0.12
1 -4 -4 0.14 0.2
1 -4 -4 0.38 0.21
1 -4 -4 -0.5 0.83
-1 4 -4 -0.06 0.13
2 4 -4 120.67 14.57
-2 -4 -4 123.64 14.57
-2 4 4 111.12 15.14
2 4 -4 100.78 14.53
-2 4 -4 94.66 15.6
2 -4 -4 107.39 14.6
2 -4 -4 97.68 14.48
2 -4 -4 137.16 17.09
2 4 4 97.6 14.36
3 4 -4 -0.05 0.21
-3 -4 -4 0.43 0.33
3 4 -4 0.18 0.25
-3 4 4 0.65 0.81
3 -4 -4 0.21 0.3
3 -4 -4 -0.22 1.16
3 4 4 -0.14 0.22
3 -4 -4 0.88 0.35
-3 4 -4 -0.2 0.91
4 4 -4 80.35 12.01
4 4 -4 83.27 12.1
-4 4 4 93.4 13.01
-4 4 -4 98.51 14.83
4 -4 -4 88.97 12.15
4 4 4 94.88 12.05
4 -4 -4 79.04 15.3
-5 4 4 -0.19 0.83
5 4 -4 0.73 0.55
5 4 -4 0.59 0.49
-5 4 -4 -0.42 0.91
5 -4 -4 -0.04 0.37
5 -4 -4 1.36 1.74
5 4 4 0.37 0.37
0 5 -4 -0.15 0.17
0 -5 -4 -0.17 0.13
0 -5 -4 -0.71 1.37
1 5 -4 7.61 1.25
-1 -5 -4 5.55 1.13
-1 -5 -4 5.15 2.8
1 5 -4 5.57 1.19
1 -5 -4 6.4 1.15
-1 5 -4 4.98 2.23
-1 5 -4 5.75 1.08
1 -5 -4 6.93 3.19
-2 5 4 0.79 0.9
-2 -5 -4 0.99 0.41
2 5 -4 1.54 0.46
2 5 -4 0.09 0.26
-2 5 -4 -0.19 0.99
2 -5 -4 0.27 0.34
2 -5 -4 -0.36 1.09
2 5 4 0.58 0.26
2 -5 -4 0.12 0.21
3 5 -4 12.55 1.92
3 5 -4 9.87 1.77
-3 5 4 10.5 2.84
-3 -5 -4 11.96 1.8
3 -5 -4 9.35 1.63
3 -5 -4 9.35 3.92
-3 5 -4 5.14 2.69
3 5 4 8.67 1.7
3 -5 -4 8.51 1.77
-4 5 4 1.72 1.46
4 5 -4 0.71 0.46
4 5 -4 0.4 0.41
4 -5 -4 -0.03 1.32
4 5 4 0.54 0.42
-4 5 -4 1.46 1.55
4 -5 -4 0.61 0.35
4 -5 -4 0.56 0.4
-5 5 4 1.12 1.33
5 5 -4 0.82 0.55
5 5 -4 1.31 0.66
5 -5 -4 5.39 3.3
5 5 4 0.42 0.41
5 -5 -4 2.11 0.82
-5 5 -4 1.51 1.71
5 -5 -4 2.2 0.64
0 6 -4 67.23 9.24
0 -6 -4 62.37 12.68
0 -6 -4 67.05 9.24
1 6 -4 0.28 0.33
-1 -6 -4 -0.26 0.23
1 6 -4 0.78 0.4
-1 6 -4 -0.04 0.27
1 -6 -4 0.09 1.36
-1 6 -4 1.42 1.5
1 -6 -4 0.24 0.26
2 6 -4 75.45 10.27
2 6 -4 72.39 10.27
-2 -6 -4 73.33 10.25
-2 6 -4 97.3 13.93
2 -6 -4 73.22 10.2
2 -6 -4 66.59 13.72
3 6 -4 0.35 0.39
-3 -6 -4 0.28 0.35
-3 6 4 0.27 1.02
3 6 -4 0.05 0.32
3 -6 -4 0.16 0.31
3 6 4 0.26 0.39
3 -6 -4 0.14 0.28
3 -6 -4 -1.19 1.47
-3 6 -4 -0.94 1.21
0 -7 -4 0.02 0.32
0 7 -4 0.56 0.47
0 7 -4 0.06 1.15
1 7 -4 5.3 1.14
-1 -7 -4 3.74 0.97
-1 7 -4 3.49 2.55
-1 7 -4 5.19 1.17
1 -7 -4 1.38 2.33
1 -7 -4 3.92 0.94
0 0 -5 0.65 0.19
0 0 -5 -0.08 0.06
0 0 -5 -0.25 0.67
0 0 -5 0 0.05
-1 0 -5 665.92 80.14
-1 0 -5 526.76 81.33
1 0 -5 561.14 80.19
1 0 -5 596.3 81.83
1 0 -5 618.39 80.16
1 0 -5 603.48 80.18
-1 0 -5 585.77 80.45
2 0 5 0 0.04
-2 0 -5 0.67 0.95
-2 0 5 0.16 0.23
2 0 -5 0.27 0.85
-2 0 -5 0 0.09
2 0 -5 0.32 0.19
-2 0 -5 0.04 0.45
2 0 -5 0.11 0.14
3 0 -5 379.84 52.67
3 0 -5 370.96 50.69
-3 0 5 331.56 50.99
-3 0 -5 391 51.07
3 0 -5 382.56 50.67
-3 0 -5 421.87 51.68
4 0 -5 -0.04 0.21
-4 0 5 0.05 0.48
4 0 -5 -0.18 0.17
4 0 -5 0.14 1.61
-4 0 -5 -0.04 0.52
-5 0 -5 412.67 47.31
-5 0 5 331.47 47.2
5 0 -5 285.96 48.58
5 0 -5 337.52 46.56
-6 0 -5 0.18 0.81
-6 0 5 0.08 0.84
6 0 -5 0.32 0.37
6 0 -5 -0.1 0.33
0 1 -5 85.52 11.46
0 -1 -5 89.11 11.54
0 1 -5 82.64 12.75
0 1 -5 76.7 11.45
0 -1 -5 76 13.92
0 1 -5 91.3 11.46
-1 1 5 0.81 0.39
-1 -1 -5 0.81 0.25
1 1 -5 0.81 0.27
1 1 -5 0.67 0.25
1 1 -5 -0.61 0.78
-1 -1 -5 1.24 1.37
-1 1 -5 0.77 0.21
1 -1 -5 1.3 0.32
1 -1 -5 1.23 0.29
-1 1 -5 0.13 0.64
1 -1 -5 2.06 0.43
1 -1 -5 1.15 1.48
-1 1 -5 1.57 0.19
2 1 -5 52.08 7.93
2 1 -5 67.83 7.99
2 1 -5 48.22 10.13
-2 -1 -5 57.83 7.9
-2 -1 -5 62.72 8.04
-2 -1 -5 69.23 9.25
-2 1 5 58.5 8.21
2 -1 -5 45.59 10.41
-2 1 -5 53.17 8.95
-2 1 -5 61.77 7.81
2 -1 -5 56.92 7.92
-2 1 -5 76.12 9.15
2 -1 -5 50.97 7.92
2 -1 -5 49.29 7.96
-3 -1 -5 0.15 0.49
3 1 -5 0.14 0.2
3 1 -5 0.36 0.25
-3 -1 -5 -0.11 0.56
-3 1 5 0.2 0.39
3 1 -5 0.1 1.25
-3 -1 -5 0.32 0.19
-3 1 -5 0.69 0.73
3 -1 -5 0.54 0.32
3 1 5 0.56 0.19
3 -1 -5 0.38 0.25
3 -1 -5 1.33 1.62
3 -1 -5 0.28 0.25
4 1 -5 27.44 4.68
-4 1 5 23.93 5.2
-4 -1 -5 34.67 5.29
4 1 -5 35.67 7.7
4 1 -5 34.99 4.57
4 -1 -5 32.5 4.55
-4 -1 5 30.5 5.32
-4 1 -5 45.49 6.22
4 -1 -5 26.31 6.96
-5 1 5 0.5 0.58
5 1 -5 0.17 0.26
5 1 -5 -0.15 0.21
-5 -1 -5 0.1 0.67
-5 -1 5 0.04 0.52
-5 1 -5 0.16 0.66
5 -1 -5 0.18 1.68
5 -1 -5 0.15 0.25
6 1 -5 18.1 2.92
6 1 -5 22.65 3.06
-6 1 5 16.4 3.8
6 -1 -5 13.24 2.73
-6 1 -5 19.58 4.29
6 -1 -5 21.74 6.41
-6 -1 5 13.44 3.67
0 2 -5 0.05 0.11
0 -2 -5 -0.07 0.09
0 2 -5 -0.24 0.69
0 2 -5 0.18 0.14
0 -2 -5 0.39 1.01
0 -2 -5 -0.07 0.11
-1 -2 -5 511.8 67.22
-1 -2 -5 413.31 68.51
1 2 -5 492.9 67.23
1 2 -5 507.69 67.23
1 2 -5 511.56 68.37
-1 2 5 509.56 67.35
1 -2 -5 498.45 67.14
1 -2 -5 490.58 67.28
-1 2 -5 603.26 68.36
1 -2 -5 444.61 68.9
-1 2 -5 509.97 67.12
-2 -2 -5 0.57 0.29
-2 2 5 1.68 0.68
2 2 -5 3.06 0.57
2 2 -5 1.55 0.46
2 2 -5 -0.23 0.82
-2 -2 -5 1.37 1.35
2 -2 -5 1.46 0.41
-2 2 -5 3.83 1.57
2 -2 -5 1.06 0.41
2 -2 -5 1.62 1.76
2 -2 -5 1.4 0.38
-2 2 -5 0.66 0.79
3 2 -5 410.63 59.57
-3 2 5 519.85 58.89
-3 -2 -5 497.25 59.21
-3 -2 -5 415.52 58.23
3 2 -5 408.77 58.33
3 2 -5 442.75 58.3
-3 2 -5 421.71 59.21
3 -2 -5 416.16 58.36
3 -2 -5 424.11 58.28
3 2 5 447.15 58.22
3 -2 -5 361.82 60.04
-4 2 5 1.21 0.89
4 2 -5 2.28 0.63
4 2 -5 1.28 0.49
4 -2 -5 0.22 1.23
-4 2 -5 0.42 0.88
4 -2 -5 1.65 0.58
4 2 5 1.33 0.4
4 -2 -5 1.15 0.46
5 2 -5 211.08 29.7
5 2 -5 234.01 29.79
-5 2 5 218.37 30.5
5 -2 -5 194.21 31.88
5 -2 -5 204.59 29.82
-5 2 -5 244.35 30.92
5 -2 -5 228.38 29.72
6 2 -5 0.39 0.4
-6 2 5 3.05 1.64
6 2 -5 0.1 0.46
-6 2 -5 -0.38 0.78
6 -2 -5 0.21 0.47
6 -2 -5 0.66 0.47
6 -2 -5 -0.87 1.27
0 3 -5 50.58 6.88
0 -3 -5 39.21 7.85
0 3 -5 36 4.87
0 -3 -5 33.77 4.88
0 3 -5 32.74 4.82
1 3 -5 0.57 0.28
-1 3 5 0.32 0.43
-1 -3 -5 0.84 1.5
1 3 -5 0.13 0.64
-1 -3 -5 0.61 0.28
1 3 -5 0.31 0.24
1 -3 -5 0.53 0.3
1 -3 -5 0.9 0.21
1 -3 -5 0.29 0.23
1 -3 -5 0.82 1.42
-1 3 -5 0.42 0.17
-2 -3 -5 61.77 9.36
-2 -3 -5 51.23 6.86
2 3 -5 50.86 6.88
-2 3 5 60.36 7.35
2 3 -5 44.79 6.84
2 3 -5 55.95 7.71
2 -3 -5 45.75 6.91
2 -3 -5 33.31 8.89
-2 3 -5 43.24 8.31
3 3 -5 0.15 0.24
-3 3 5 -0.4 0.45
-3 -3 -5 -0.26 1
-3 -3 -5 0.14 0.19
3 3 -5 0.26 0.25
-3 3 -5 -0.36 0.63
3 -3 -5 -0.74 1
3 3 5 0.26 0.22
3 -3 -5 -0.14 0.14
4 3 -5 30.09 3.61
4 3 -5 19.58 3.46
-4 3 5 21.27 4.28
4 -3 -5 21.04 3.36
-4 3 -5 18.43 4.64
4 -3 -5 18.6 5.6
4 -3 -5 23.42 3.58
4 3 5 20.58 3.28
-5 3 5 0.61 0.77
5 3 -5 -0.25 0.29
5 3 -5 -0.29 0.34
5 -3 -5 0.18 1.68
-5 3 -5 1.8 1.42
5 -3 -5 0.23 0.37
5 -3 -5 -0.19 0.24
-6 3 5 18.32 3.95
6 3 -5 12.97 2.08
6 3 -5 8.36 1.86
6 -3 -5 8.33 1.98
6 -3 -5 11.97 4.58
6 -3 -5 9.67 1.85
-6 3 -5 6.17 2.82
0 -4 -5 0.03 1.26
0 4 -5 -0.03 0.14
0 -4 -5 -0.05 0.13
1 4 -5 356.19 45.87
-1 -4 -5 333.25 47.62
1 4 -5 374.62 45.86
-1 -4 -5 324.68 45.86
1 -4 -5 375.13 48.4
1 -4 -5 333.04 45.96
-1 4 -5 321.76 45.76
1 -4 -5 331.38 45.84
2 4 -5 0.31 0.28
-2 -4 -5 3.63 1.97
2 4 -5 0.72 0.37
-2 4 5 2.78 1.07
-2 -4 -5 0.55 0.3
-2 4 -5 -0.51 0.65
2 -4 -5 0.69 0.3
2 -4 -5 0.5 0.34
2 -4 -5 0.16 1.24
-3 -4 -5 302.19 39.03
3 4 -5 290.99 39.04
-3 4 5 291.76 39.67
3 4 -5 326.11 39.11
3 4 5 297.86 39.01
3 -4 -5 249.86 38.98
3 -4 -5 292.86 39.14
-3 4 -5 252.86 40.26
3 -4 -5 293.11 41.58
-4 4 5 0.17 0.77
4 4 -5 2.04 0.63
4 4 -5 0.82 0.53
4 -4 -5 0.73 1.82
4 4 5 2.11 0.61
-4 4 -5 2.16 1.39
4 -4 -5 1.2 0.59
5 4 -5 164.2 22.05
5 4 -5 180.87 22.2
-5 4 5 158.86 22.96
5 4 5 160.67 21.96
-5 4 -5 140.09 23.24
5 -4 -5 111.33 25.03
5 -4 -5 174.85 22.22
0 5 -5 29.76 4.14
0 -5 -5 41.02 8.24
0 -5 -5 26.53 4.28
-1 -5 -5 -0.97 1.51
-1 -5 -5 0.02 0.17
1 5 -5 -0.15 0.25
1 5 -5 -0.04 0.17
1 -5 -5 0.5 1.77
-1 5 -5 0.09 1.01
1 -5 -5 -0.06 0.17
-1 5 -5 -0.05 0.16
2 5 -5 12.86 2.23
-2 -5 -5 14.71 2.28
2 5 -5 13.32 2.28
2 -5 -5 15.76 2.5
2 -5 -5 17.52 5.64
-2 5 -5 11.12 3.54
2 -5 -5 12.54 2.18
3 5 -5 -0.2 0.31
3 5 -5 0.02 0.28
-3 5 5 0.92 0.95
-3 -5 -5 -0.17 0.25
3 -5 -5 0.02 1.03
3 5 5 -0.11 0.26
3 -5 -5 0.06 0.29
3 -5 -5 -0.03 0.21
-3 5 -5 0.03 1.05
-4 5 5 14.88 3.82
4 5 -5 21.99 3.1
4 5 -5 18.15 2.92
4 -5 -5 17.57 2.8
4 -5 -5 16.22 2.97
4 -5 -5 9.28 4.66
4 5 5 18.46 2.91
-4 5 -5 16.74 4.59
0 6 -5 0.29 0.3
0 -6 -5 0.05 0.2
0 -6 -5 0.83 1.97
-1 -6 -5 176.88 27.22
1 6 -5 209.45 27.24
1 6 -5 243.31 27.37
1 -6 -5 192.92 27.23
-1 6 -5 171.9 28.74
1 -6 -5 205.14 30.17
2 6 -5 -0.12 0.25
-2 -6 -5 -0.31 0.19
2 6 -5 0.17 0.37
2 -6 -5 0.18 0.29
-2 6 -5 -0.45 1
2 -6 -5 0.9 2.1
3 6 -5 155.49 20.3
3 6 -5 135.68 20.28
-3 -6 -5 154.68 20.29
-3 6 -5 128.19 23.14
3 6 5 154.92 20.32
3 -6 -5 132.25 24.74
3 -6 -5 156.99 20.44
3 -6 -5 144.12 20.21
0 -7 -5 9.94 1.93
0 7 -5 13.07 2.07
0 7 -5 10.12 3.69
0 0 -6 384.78 48.64
0 0 -6 350.84 48.67
0 0 -6 338.5 50.42
1 0 -6 -0.04 0.11
1 0 -6 0.06 0.11
1 0 -6 0.05 0.11
-1 0 -6 0.83 1.33
1 0 -6 0.01 1.08
-1 0 -6 -0.03 0.07
-2 0 -6 85.56 12.01
-2 0 -6 84.59 11.52
2 0 -6 86.15 11.59
-2 0 -6 89.24 12.92
2 0 -6 100.32 15.62
2 0 -6 81.26 11.61
2 0 -6 86.12 11.65
-3 0 -6 -0.92 0.69
-3 0 -6 0.02 0.11
3 0 -6 -0.35 1.06
3 0 -6 0.11 0.2
3 0 -6 0.11 0.2
-3 0 6 -0.06 0.27
-3 0 -6 -0.01 0.45
4 0 -6 136.75 19.22
4 0 -6 143.87 19.3
-4 0 6 169.43 19.9
4 0 -6 168.88 22.34
-4 0 -6 116.08 19.64
5 0 -6 0.23 0.39
5 0 -6 0.63 2.28
-5 0 -6 -0.03 0.76
-5 0 6 0.11 0.63
5 0 -6 0.09 0.29
6 0 -6 56.8 7.24
-6 0 6 61.6 8.81
6 0 -6 42.83 7.05
0 -1 -6 -0.05 0.12
0 1 -6 -0.23 0.82
0 -1 -6 0.27 1.33
0 1 -6 -0.06 0.09
0 1 -6 -0.06 0.07
0 1 -6 0 0.1
1 1 -6 18.8 2.69
1 1 -6 23.39 5.53
-1 -1 -6 16.09 4.74
-1 -1 -6 20.28 2.8
-1 -1 -6 19.73 2.68
1 1 -6 17.54 2.67
1 1 -6 20.27 2.69
1 -1 -6 17.33 2.61
-1 1 -6 17.5 2.61
1 -1 -6 29.4 2.78
-1 1 -6 17.06 4.4
1 -1 -6 17.8 2.73
1 -1 -6 10.16 4.16
2 1 -6 0.26 0.18
-2 -1 -6 0.08 0.37
2 1 -6 0.15 0.2
-2 1 6 0.19 0.32
-2 -1 -6 0 1.04
2 1 -6 -0.72 1.06
-2 -1 -6 0.1 0.13
2 -1 -6 0.1 0.18
2 -1 -6 -0.35 1.22
2 -1 -6 -0.1 0.09
-2 1 -6 0.12 0.68
2 -1 -6 -0.04 0.12
-2 1 -6 0.07 0.68
-2 1 -6 -0.02 0.09
3 1 -6 13.29 1.92
-3 1 6 11.31 2.34
-3 -1 -6 12.92 3.17
-3 -1 -6 11.53 1.74
3 1 -6 10.42 1.82
3 1 -6 11.22 4.13
3 -1 -6 11.39 4.25
3 -1 -6 8.27 1.75
-3 1 -6 13.24 2.92
3 -1 -6 9.28 1.85
3 -1 -6 12.51 1.84
-3 1 -6 15.98 3.67
4 1 -6 -0.97 1.51
4 1 -6 0.08 0.22
4 1 -6 0 0.24
-4 1 6 0.44 0.59
4 -1 -6 -0.03 0.21
4 -1 -6 -0.45 1.57
4 -1 -6 -0.07 0.22
4 -1 -6 -0.12 0.19
-4 1 -6 -0.18 0.77
-5 1 6 6.53 2.08
5 1 -6 9.31 1.56
5 -1 -6 6.93 1.49
-5 1 -6 9.28 2.59
5 -1 -6 8.85 1.73
5 -1 -6 6.61 1.42
5 -1 -6 4.85 3.26
6 1 -6 0.07 0.4
6 1 -6 0.04 0.34
-6 1 6 0.1 0.89
6 -1 -6 -1.47 1.86
6 -1 -6 0.77 0.45
6 -1 -6 -0.18 0.38
6 -1 -6 -0.04 0.31
-6 1 -6 1.44 1.06
0 2 -6 108.86 14.49
0 2 -6 113.3 15.86
0 -2 -6 100.82 14.58
0 -2 -6 103.37 14.54
0 2 -6 111.52 14.48
0 -2 -6 117.57 18.35
1 2 -6 13.88 1.82
-1 2 6 11.68 1.92
-1 -2 -6 12.15 1.77
-1 -2 -6 12.05 3.93
1 2 -6 17.15 4.07
1 2 -6 11.07 1.76
-1 2 -6 11.31 1.54
1 -2 -6 10.21 1.55
1 -2 -6 17.67 4.93
1 -2 -6 9.15 1.78
-1 2 -6 10.03 3.06
-2 -2 -6 176.28 22.98
2 2 -6 153.14 24.39
2 2 -6 192.93 23.01
2 2 -6 180.02 23.04
-2 -2 -6 159.21 24.41
-2 2 6 141.21 23.19
2 -2 -6 163.21 23.06
2 -2 -6 138.05 24.93
-2 2 -6 148.47 23.75
-2 2 -6 222.05 24.53
2 -2 -6 177.97 23.01
2 -2 -6 172.95 22.93
-3 -2 -6 3.78 1.92
-3 -2 -6 5.73 1.04
-3 2 6 5.78 1.55
3 2 -6 6.6 3
3 2 -6 6.42 1.18
3 2 -6 5.37 1.09
-3 2 -6 4.15 1.84
3 -2 -6 6.78 3.28
3 -2 -6 5.02 1.05
3 -2 -6 6.06 1.21
3 2 6 5.24 0.97
3 -2 -6 6.06 1.11
-4 -2 -6 73.07 10.65
4 2 -6 81.11 9.86
4 2 -6 72.75 9.86
-4 2 6 76.76 10.47
4 -2 -6 70.36 9.81
4 -2 -6 76.04 9.78
4 -2 -6 33.18 11.54
4 -2 -6 71 9.92
-4 2 -6 51.88 10.91
5 2 -6 0.38 0.36
5 2 -6 -0.11 0.32
-5 2 6 0.9 0.97
-5 2 -6 -0.01 0.95
5 -2 -6 0.42 0.35
5 -2 -6 0.2 0.34
5 -2 -6 -0.46 1.86
5 -2 -6 -0.26 0.23
-6 2 6 57.09 9.1
6 2 -6 52.33 7.28
6 2 -6 41.91 7.35
6 -2 -6 47.96 7.14
6 -2 -6 52.01 7.23
-6 2 -6 57.14 9.68
6 -2 -6 40.6 10.56
6 -2 -6 58.91 7.51
0 -3 -6 0.3 1.29
0 -3 -6 0.12 0.16
0 3 -6 -0.04 0.17
0 3 -6 -0.01 0.13
0 3 -6 -0.42 0.54
1 3 -6 13.79 3.27
-1 -3 -6 10.4 1.82
1 3 -6 8.92 1.77
1 3 -6 11.26 1.84
-1 -3 -6 10.79 3.93
-1 3 -6 17.15 3.66
-1 3 -6 13.83 1.66
1 -3 -6 13.25 4.54
1 -3 -6 9.21 1.8
1 -3 -6 10.61 1.93
-2 -3 -6 -0.14 0.15
-2 -3 -6 0.58 1.11
2 3 -6 -0.51 0.74
2 3 -6 -0.1 0.2
-2 3 6 0.56 0.51
2 3 -6 -0.02 0.16
2 -3 -6 -0.29 1.34
2 -3 -6 0.17 0.19
2 -3 -6 -0.04 0.19
-2 3 -6 -0.56 0.67
3 3 -6 11.4 1.87
-3 3 6 12.23 2.56
3 3 -6 8.94 1.83
-3 -3 -6 9.14 3.13
-3 -3 -6 9.8 1.77
3 -3 -6 10.54 1.76
3 -3 -6 8.96 4.3
-3 3 -6 14.7 3.65
3 3 6 12.41 1.8
3 -3 -6 10.37 1.93
-4 3 6 1.15 0.87
4 3 -6 0.41 0.33
-4 -3 -6 -0.18 0.2
4 3 -6 -0.13 0.26
4 -3 -6 0.48 1.86
4 -3 -6 0.28 0.28
4 3 6 -0.05 0.26
4 -3 -6 0.13 0.28
-4 3 -6 0.47 1.01
5 3 -6 3.29 0.97
-5 3 6 3.02 1.44
5 3 -6 5.18 1.13
-5 3 -6 2.12 1.57
5 -3 -6 3.16 1.01
5 -3 -6 1.76 1.91
5 -3 -6 4.26 1.01
0 4 -6 91.83 12.22
0 -4 -6 87.4 12.29
0 -4 -6 91.16 16.44
1 4 -6 6.46 2.08
1 4 -6 4.48 0.95
-1 -4 -6 2.57 2.4
-1 -4 -6 5.9 1.05
1 4 -6 6.11 1.08
1 -4 -6 6.12 1.05
1 -4 -6 0.4 1.65
1 -4 -6 5.17 1.13
-2 -4 -6 122.53 16.3
2 4 -6 107.61 14.36
-2 -4 -6 112.44 14.36
2 4 -6 111.97 14.36
2 -4 -6 104.81 14.34
-2 4 -6 66.05 15.61
2 -4 -6 82.45 17.8
2 -4 -6 102.11 14.44
3 4 -6 1.88 0.63
-3 -4 -6 1.89 0.63
3 4 -6 1.88 0.63
-3 4 6 0.97 0.87
3 -4 -6 3.01 0.82
3 -4 -6 -0.34 1.6
-3 4 -6 0.13 1.12
3 -4 -6 2.85 0.71
-4 4 6 71.68 9.8
4 4 -6 59.16 8.22
-4 -4 -6 62.51 8.13
4 4 -6 52.89 8.1
-4 4 -6 52.12 10.29
4 -4 -6 50.22 11.91
4 -4 -6 58.77 8.27
4 4 6 56.54 8.08
5 4 -6 0.32 0.49
-5 4 6 -0.28 0.81
5 4 -6 -0.04 0.39
5 -4 -6 -0.24 1.55
5 -4 -6 0.02 0.42
-5 4 -6 1.57 1.5
0 -5 -6 -0.08 0.16
0 -5 -6 -0.98 1.56
0 5 -6 -0.05 0.24
-1 -5 -6 7.5 1.28
1 5 -6 6.47 1.28
-1 -5 -6 5.42 3.02
1 5 -6 6.13 1.16
1 -5 -6 6.32 1.22
1 -5 -6 1.11 2.04
-1 5 -6 7.54 2.86
2 5 -6 -0.04 0.25
-2 -5 -6 0.39 0.33
2 5 -6 0.35 0.38
2 -5 -6 -0.24 0.29
2 -5 -6 -0.45 1.45
-2 5 -6 0.48 1.04
2 -5 -6 0.32 0.3
3 5 -6 4.97 1.18
-3 -5 -6 4.62 1.1
3 5 -6 6.23 1.27
3 -5 -6 11.85 1.75
-3 5 -6 5.84 2.49
3 -5 -6 8.17 4.14
3 -5 -6 4.08 1.09
4 5 -6 1.41 0.63
4 5 -6 0.15 0.39
-4 -5 -6 0.35 0.41
-4 5 -6 2.14 1.85
4 -5 -6 3.02 2.67
4 -5 -6 0.51 0.4
4 5 6 0.46 0.48
4 -5 -6 0.43 0.51
0 -6 -6 93.55 12.57
0 -6 -6 79.26 16.64
1 6 -6 0.31 0.33
-1 -6 -6 0.01 0.3
1 -6 -6 0.46 0.34
1 -6 -6 -1.51 1.63
-1 6 -6 0.01 1.09
-2 -6 -6 30.53 5.12
2 6 -6 31.47 5.15
2 6 -6 38.56 5.32
-2 6 -6 47.94 8.7
2 -6 -6 35.52 5.17
2 -6 -6 50.85 11.25
0 0 -7 1.36 1.49
1 0 -7 11.18 1.76
1 0 -7 13.93 1.77
1 0 -7 10.85 1.67
-1 0 -7 5 2.73
-1 0 -7 10.77 1.66
1 0 -7 12.49 4.09
2 0 -7 0.12 0.15
-2 0 -7 0.37 0.64
-2 0 -7 0.09 0.87
2 0 -7 -0.06 0.13
2 0 -7 0.11 1.63
-2 0 -7 0.03 0.12
2 0 -7 -0.03 0.16
3 0 -7 24.8 4.13
3 0 -7 31.38 4.24
3 0 -7 28.98 4.24
-3 0 -7 33.47 4.07
-3 0 -7 23.65 4.78
3 0 -7 21.78 6.77
-3 0 -7 40.16 6.54
4 0 -7 -0.1 0.21
4 0 -7 0.1 0.23
4 0 -7 0.41 1.77
-4 0 -7 -0.24 1.17
4 0 -7 -0.11 0.23
5 0 -7 1.66 0.58
5 0 -7 1.4 0.55
-5 0 7 1.54 1.08
5 0 -7 -0.48 2.16
6 0 -7 -0.07 0.32
6 0 -7 -0.28 0.39
0 1 -7 429.52 53.36
0 1 -7 325.21 54.98
0 -1 -7 357.72 53.45
0 -1 -7 403.69 53.45
0 1 -7 429.47 53.36
1 1 -7 1.33 0.34
1 1 -7 0.7 0.28
-1 -1 -7 2.81 2.02
1 1 -7 -0.53 1.06
1 1 -7 0.97 0.28
-1 -1 -7 0.04 0.16
1 -1 -7 0.36 0.25
1 -1 -7 0.48 0.18
-1 1 -7 0.47 1.04
1 -1 -7 0.78 0.27
1 -1 -7 0.36 1.26
-1 1 -7 0.56 0.18
2 1 -7 224.02 41.72
2 1 -7 304.26 40.02
2 1 -7 301.55 40
-2 -1 -7 281.78 39.94
2 1 -7 314.75 39.98
-2 -1 -7 291.75 41.69
2 -1 -7 307.54 40.06
-2 1 -7 344.93 41.65
2 -1 -7 288.66 39.94
2 -1 -7 290.75 40.01
2 -1 -7 257.21 42.31
-2 1 -7 316.68 39.86
-2 1 -7 292.42 40.72
3 1 -7 -0.01 0.19
3 1 -7 0.24 0.27
-3 1 7 0.91 0.62
-3 -1 -7 0.73 0.27
-3 -1 -7 0.38 1.11
3 1 -7 0.52 1.8
3 -1 -7 0.82 2.07
-3 1 -7 0.73 1.04
3 -1 -7 0.79 0.37
-3 1 -7 0.13 0.84
3 -1 -7 1.03 0.44
3 -1 -7 0.37 0.27
4 1 -7 226.6 30.63
4 1 -7 199.76 33.07
4 1 -7 229.3 30.67
-4 -1 -7 238.18 31.83
4 -1 -7 242.6 30.76
-4 1 -7 242.29 31.46
4 -1 -7 212.91 30.64
4 -1 -7 228.46 30.59
4 -1 -7 190.86 33.22
-5 1 7 1.34 0.94
5 1 -7 0.3 0.41
5 1 -7 0.31 0.42
-5 1 -7 0 1
5 -1 -7 -0.54 0.23
5 -1 -7 0.33 0.34
5 -1 -7 0.83 0.45
5 -1 -7 0.16 2.08
6 1 -7 114.67 15.46
-6 1 7 133.51 16.55
6 1 -7 111.89 15.53
6 -1 -7 121.24 15.71
6 -1 -7 108.54 15.38
6 -1 -7 100.38 20.53
6 -1 -7 98.13 15.43
0 2 -7 0 0.12
0 2 -7 -0.19 0.91
0 -2 -7 -1.44 0.77
0 -2 -7 -0.11 0.11
0 -2 -7 0.06 0.18
1 2 -7 15.19 2.42
1 2 -7 18.91 2.32
1 2 -7 15.9 4.51
-1 -2 -7 12.63 2.37
-1 -2 -7 28.56 6.3
1 2 -7 16.02 2.4
-1 2 -7 15.98 4.09
1 -2 -7 23.13 6.17
1 -2 -7 13.38 2.48
-2 2 7 1.27 0.66
2 2 -7 1.31 0.43
2 2 -7 1.29 0.44
-2 -2 -7 1.23 1.41
2 2 -7 0.95 1.39
-2 -2 -7 0.91 0.35
2 -2 -7 -0.42 1.44
2 -2 -7 0.78 0.4
2 -2 -7 2 0.43
2 -2 -7 1.78 0.47
-2 2 -7 0.42 0.99
-2 2 -7 2.06 1.24
3 2 -7 3.46 2.54
-3 2 7 3.97 1.34
-3 -2 -7 4.09 0.88
3 2 -7 5.56 1.06
3 2 -7 5.24 1.06
-3 -2 -7 2.61 1.64
3 -2 -7 7.2 1.06
-3 2 -7 5.55 2.07
3 -2 -7 4.68 1.08
3 -2 -7 4.71 1
3 -2 -7 1.35 2.12
4 2 -7 0.95 0.44
4 2 -7 2.25 0.67
-4 -2 -7 4.21 1.88
-4 -2 -7 3.09 0.64
-4 2 7 0.43 0.84
4 -2 -7 1.17 0.51
4 -2 -7 0.26 2.04
-4 2 -7 1.7 1.32
4 -2 -7 0.4 0.38
4 -2 -7 0.96 0.55
5 2 -7 11.53 2.07
5 2 -7 11.02 2.03
-5 2 7 14.38 3.29
-5 2 -7 12.82 3.47
5 -2 -7 9.15 1.87
5 -2 -7 13.24 2.27
5 -2 -7 9.62 1.95
5 -2 -7 8.32 4.24
0 -3 -7 231.75 38.57
0 3 -7 283.03 36.25
0 3 -7 266.58 37.55
-1 -3 -7 -0.11 0.14
1 3 -7 -0.04 0.2
1 3 -7 0.77 1.04
1 3 -7 0 0.17
-1 -3 -7 0.32 1.66
1 -3 -7 0.59 0.37
1 -3 -7 -0.74 1.27
1 -3 -7 -0.26 0.12
-1 3 -7 -0.59 0.74
2 3 -7 260.77 36.42
-2 -3 -7 337.45 38.82
2 3 -7 300.76 37.94
-2 -3 -7 258.91 36.39
2 3 -7 266.95 36.42
2 -3 -7 196.88 38.55
2 -3 -7 265.15 36.52
-2 3 -7 315.72 37.83
3 3 -7 0.18 0.35
-3 3 7 -0.07 0.53
3 3 -7 -0.15 0.21
-3 -3 -7 -0.19 0.21
-3 -3 -7 -0.26 1.15
3 -3 -7 0.12 0.29
3 3 7 -0.07 0.2
-3 3 -7 -0.51 0.95
3 -3 -7 0.16 1.98
3 -3 -7 0.1 0.27
-4 -3 -7 128.63 19.66
-4 3 7 150.78 20.4
4 3 -7 155.84 19.78
4 3 -7 144.19 19.81
-4 3 -7 181.57 21.43
4 -3 -7 151.76 19.78
4 -3 -7 131.8 19.84
4 -3 -7 146.15 19.69
4 -3 -7 136.25 24.77
5 3 -7 0.18 0.37
-5 3 7 -0.12 0.81
5 3 -7 0.07 0.36
-5 3 -7 0.05 0.9
5 -3 -7 -0.38 1.93
5 -3 -7 0.27 0.43
5 -3 -7 -0.52 0.26
5 -3 -7 -0.05 0.29
0 4 -7 0.2 0.22
0 -4 -7 -0.12 0.2
0 -4 -7 0.41 2.1
-1 -4 -7 9.82 4.04
1 4 -7 11.54 1.61
-1 -4 -7 8.78 1.51
1 4 -7 9.76 1.49
1 4 -7 11.56 3.01
1 -4 -7 7.92 1.46
1 -4 -7 4.45 1.4
1 -4 -7 6.75 3.89
2 4 -7 -0.04 0.24
-2 -4 -7 0.91 1.91
-2 -4 -7 1.1 0.44
2 4 -7 0.09 0.28
2 -4 -7 0.64 0.34
-2 4 -7 -0.07 1.01
2 -4 -7 -0.66 1.52
2 -4 -7 1.39 0.58
3 4 -7 4.74 1.08
-3 -4 -7 6.33 1.12
3 4 -7 5.17 1.15
3 -4 -7 5.13 3.32
-3 4 -7 2.96 1.88
3 -4 -7 4.45 1.06
3 -4 -7 3.45 1.05
-4 4 7 1.63 1.18
-4 -4 -7 2.55 0.72
4 4 -7 2.66 0.85
4 4 -7 3.48 0.88
4 -4 -7 0.24 2.28
-4 4 -7 3.73 2.12
4 -4 -7 1.87 0.83
0 -5 -7 136.9 26.04
0 -5 -7 170.7 22.3
-1 -5 -7 -0.01 1.85
1 5 -7 0.1 0.3
-1 -5 -7 0.6 0.39
1 5 -7 0.03 0.27
-1 5 -7 0.39 1.29
1 -5 -7 -0.19 1.69
1 -5 -7 0.5 0.36
-2 -5 -7 152.11 21.47
2 5 -7 159.41 21.47
2 5 -7 174.56 21.53
2 -5 -7 182.28 21.73
2 -5 -7 159.3 21.48
2 -5 -7 96.1 25.01
-2 5 -7 108.09 23.3
3 5 -7 0.79 0.48
-3 -5 -7 0.47 0.33
3 5 -7 1.11 0.5
3 -5 -7 0.07 0.31
-3 5 -7 -0.99 1.14
3 -5 -7 0.33 2.22
3 -5 -7 0.82 0.51
0 -6 -7 0.3 0.34
0 -6 -7 -0.16 2.27
-1 -6 -7 3.24 0.87
-1 6 -7 1.09 1.62
1 -6 -7 3.51 0.89
1 -6 -7 4.02 3.13
2 6 -7 0.16 0.4
-2 -6 -7 -0.54 0.2
2 6 -7 -0.11 0.33
2 -6 -7 -0.37 0.28
2 -6 -7 -0.31 1.97
-2 6 -7 -1.63 0.91
0 0 -8 3 0.68
0 0 -8 5.57 3.13
0 0 -8 3.51 0.63
-1 0 -8 0.07 0.15
1 0 -8 0.48 1.51
1 0 -8 0.11 0.14
-1 0 -8 -0.39 1.09
1 0 -8 0.06 0.16
1 0 -8 0.13 0.15
-1 0 -8 0.21 0.58
2 0 -8 13.63 2.23
-2 0 -8 18.56 4.86
2 0 -8 11.69 4.51
2 0 -8 12.97 2.26
2 0 -8 17.92 2.13
-2 0 -8 11.91 2.09
3 0 -8 0.22 0.23
-3 0 -8 -0.28 0.83
3 0 -8 -0.14 0.23
3 0 -8 -0.04 0.17
3 0 -8 -0.54 1.47
4 0 -8 4.4 0.97
4 0 -8 7.13 3.84
4 0 -8 3.88 0.96
4 0 -8 4.88 1.13
-4 0 -8 2.2 1.62
5 0 -8 0.35 0.43
5 0 -8 -1.29 2.26
5 0 -8 0.14 0.37
5 0 -8 0.39 0.35
0 1 -8 0.08 1.5
0 -1 -8 -0.04 0.15
0 -1 -8 -0.87 1.06
0 1 -8 0.2 0.15
0 -1 -8 -0.01 0.14
1 1 -8 297.97 39.24
1 1 -8 278.69 39.19
-1 -1 -8 296.41 39.24
-1 -1 -8 292.51 41.73
1 1 -8 279.91 39.22
1 1 -8 400.15 42.66
-1 1 -8 277.32 39.16
1 -1 -8 306.58 39.25
1 -1 -8 268.75 41.92
-1 1 -8 277.71 41.12
1 -1 -8 298.92 39.32
2 1 -8 0.13 1.95
2 1 -8 0.81 0.32
2 1 -8 0.23 0.26
-2 -1 -8 -1.34 1.03
-2 -1 -8 0.27 0.21
2 1 -8 0.64 0.31
2 -1 -8 0.29 0.25
2 -1 -8 0.23 0.24
-2 1 -8 2.11 1.63
2 -1 -8 0.68 0.29
-2 1 -8 1.1 1.08
2 -1 -8 -0.11 1.49
-3 -1 -8 269.41 32.55
3 1 -8 222.22 30.75
3 1 -8 215.66 30.72
3 1 -8 208.3 30.67
3 1 -8 217.68 33.52
-3 -1 -8 247.39 30.63
-3 1 -8 248.81 32.39
3 -1 -8 229.04 30.79
3 -1 -8 215.27 33.84
-3 1 -8 224.8 31.54
3 -1 -8 229.44 30.74
3 -1 -8 221.73 30.66
-4 -1 -8 1.65 1.56
4 1 -8 1.28 0.49
4 1 -8 2.1 0.6
4 1 -8 -0.39 2.46
4 -1 -8 0.79 0.46
4 -1 -8 0.34 0.33
-4 1 -8 -0.25 1.04
4 -1 -8 -0.82 1.74
4 -1 -8 0.11 0.29
5 1 -8 139.17 17.24
5 1 -8 115.58 17.09
-5 1 8 134.03 17.88
5 -1 -8 150.7 24.09
5 -1 -8 120.69 17.05
5 -1 -8 138.38 17.21
5 -1 -8 109.08 17.19
0 2 -8 15.09 2.01
0 -2 -8 10.7 2.12
0 -2 -8 20.4 5.93
0 2 -8 19.09 4.73
1 2 -8 0.15 0.22
1 2 -8 0.66 0.28
-1 -2 -8 0.13 0.22
-1 -2 -8 0.47 2.11
1 2 -8 0.35 1.38
1 -2 -8 2.09 2.27
-1 2 -8 0.5 1.06
1 -2 -8 0.4 0.32
2 2 -8 4.68 1
2 2 -8 5.16 1.02
2 2 -8 5.71 1.03
-2 -2 -8 4.58 0.96
-2 -2 -8 4.92 2.72
2 2 -8 2.75 2.35
2 -2 -8 5.45 1.02
2 -2 -8 2.86 2.48
-2 2 -8 8.38 2.87
2 -2 -8 4.9 1.1
-2 2 -8 4.96 1.96
-3 2 8 0.31 0.53
3 2 -8 0 0.21
-3 -2 -8 0.09 0.22
-3 -2 -8 0.28 1.18
3 2 -8 -1.33 1.47
3 2 -8 0.21 0.25
3 -2 -8 -1.2 1.52
-3 2 -8 -0.3 0.82
3 -2 -8 0.28 0.31
3 -2 -8 0.22 0.27
3 -2 -8 -0.11 0.25
4 2 -8 7.87 1.47
4 2 -8 7.3 1.41
-4 2 8 8.61 2.17
-4 -2 -8 7.43 1.31
-4 -2 -8 6.31 2.64
-4 2 -8 4.21 2.16
4 -2 -8 5.53 1.44
4 -2 -8 6.59 1.38
4 -2 -8 5.88 3.56
4 -2 -8 7.04 1.32
5 2 -8 0.16 0.37
5 2 -8 0.34 0.37
-5 2 8 1.11 0.83
5 -2 -8 0.07 0.48
-5 2 -8 1.27 1.24
5 -2 -8 -0.15 0.26
5 -2 -8 -0.12 2.36
5 -2 -8 0.08 0.33
0 3 -8 -0.12 0.81
0 -3 -8 0.38 2
0 -3 -8 -0.03 0.17
-1 -3 -8 171.31 32.36
1 3 -8 236.6 30.31
1 3 -8 235.37 30.27
-1 -3 -8 230.49 30.33
1 3 -8 250.51 32.07
1 -3 -8 209.94 30.43
1 -3 -8 214.46 30.34
1 -3 -8 178.58 32.89
-1 3 -8 267.02 32.12
-2 -3 -8 -0.24 1.54
-2 -3 -8 -0.18 0.18
2 3 -8 -0.04 0.25
2 3 -8 -0.31 1.25
2 3 -8 0 0.28
2 -3 -8 -0.69 1.31
-2 3 -8 -0.59 0.83
2 -3 -8 -0.09 0.25
3 3 -8 145.6 20.52
-3 -3 -8 149.81 22.1
-3 -3 -8 164.54 20.5
3 3 -8 156.5 20.55
-3 3 -8 150.42 21.91
3 -3 -8 147.34 20.64
3 -3 -8 103.15 24.6
4 3 -8 0.12 0.33
-4 -3 -8 0.18 0.35
-4 3 8 0.75 0.78
4 3 -8 0.35 0.41
4 -3 -8 0.63 0.44
4 -3 -8 0.91 2.13
-4 3 -8 1.12 1.3
0 -4 -8 4.71 2.87
0 -4 -8 4.73 1.11
0 4 -8 9.18 2.9
1 4 -8 0.48 0.36
1 4 -8 0.64 1.25
1 4 -8 0.96 0.42
-1 -4 -8 0.54 0.34
-1 -4 -8 3.8 3
1 -4 -8 -1.02 1.46
1 -4 -8 0.07 0.26
1 -4 -8 1.76 0.62
-2 -4 -8 4.7 2.92
2 4 -8 8.79 1.31
2 4 -8 4.06 1.02
-2 -4 -8 7.8 1.25
2 -4 -8 3.1 1.03
-2 4 -8 2.72 1.9
2 -4 -8 6.21 3.98
2 -4 -8 5.21 1.1
3 4 -8 0.45 0.4
3 4 -8 0.03 0.33
-3 -4 -8 -0.08 0.33
3 -4 -8 1.52 1.64
3 -4 -8 0.24 0.33
3 -4 -8 1.23 0.59
-3 4 -8 0.36 1.1
4 4 -8 4.83 1.03
4 4 -8 4.88 1.05
-4 -4 -8 1.54 0.66
-4 4 -8 3.57 2.01
4 -4 -8 1.88 2.79
4 -4 -8 4.21 1.07
0 -5 -8 0.38 0.29
0 -5 -8 0.6 2.48
-1 -5 -8 137.11 22.93
-1 -5 -8 136.36 18.22
1 -5 -8 138.94 24.35
1 -5 -8 122.82 18.19
-1 5 -8 153.13 20.23
2 5 -8 -0.09 0.33
2 5 -8 -0.25 0.33
-2 -5 -8 0.1 0.29
2 -5 -8 -0.18 0.31
2 -5 -8 0.09 2.35
-2 5 -8 1.46 1.82
2 -5 -8 0.34 0.36
-3 -5 -8 137.21 17.77
3 5 -8 128.24 17.77
3 5 -8 133.95 17.79
3 -5 -8 125.08 17.95
3 -5 -8 142.32 17.8
-3 5 -8 120.57 20.49
3 -5 -8 72.49 21.23
0 0 -9 0.06 0.2
0 0 -9 0.31 1.43
-1 0 -9 74.75 16.95
-1 0 -9 101.29 14.08
1 0 -9 110.32 14.12
1 0 -9 106.11 14.17
1 0 -9 106.94 19.04
2 0 -9 -0.15 0.19
2 0 -9 -0.08 0.22
2 0 -9 0.03 0.23
2 0 -9 0.75 2.02
-2 0 -9 0.77 1.5
-2 0 -9 0.15 0.2
3 0 -9 87.43 11.88
-3 0 -9 104.89 15.54
3 0 -9 97.34 11.98
3 0 -9 107.68 18.19
3 0 -9 73.92 11.94
4 0 -9 0.21 0.37
-4 0 -9 0.18 1.14
4 0 -9 -0.23 0.22
4 0 -9 0.22 0.37
4 0 -9 0.87 2.98
5 0 -9 53.87 13.22
5 0 -9 53.56 6.95
5 0 -9 45.65 6.73
5 0 -9 42.04 6.94
0 -1 -9 1.23 2.01
0 -1 -9 3.09 0.62
0 -1 -9 1.13 0.44
0 1 -9 0.91 1.7
1 1 -9 3.7 0.76
-1 -1 -9 3.81 2.5
-1 -1 -9 5.31 0.9
1 1 -9 4.5 2.85
1 1 -9 4.8 0.87
1 -1 -9 -0.31 1.34
1 -1 -9 6.36 1.07
-1 1 -9 5.14 0.94
-1 1 -9 0.62 1.65
-2 -1 -9 10.51 1.86
-2 -1 -9 12.49 4.4
2 1 -9 13.48 2
2 1 -9 12.94 2.02
2 1 -9 12.29 1.98
2 1 -9 11.9 5.08
2 -1 -9 10.39 1.92
-2 1 -9 15.59 4.5
2 -1 -9 9.87 4.69
2 -1 -9 13.63 2.13
-2 1 -9 9.96 2.94
3 1 -9 1.5 0.59
3 1 -9 0.88 2.4
3 1 -9 2.18 0.6
3 1 -9 2.08 0.63
-3 -1 -9 2.53 1.85
-3 -1 -9 1.28 0.44
-3 1 -9 5.31 2.57
3 -1 -9 1.88 0.65
3 -1 -9 3.4 0.78
3 -1 -9 2.47 2.36
-4 -1 -9 2.99 2.02
4 1 -9 1.57 0.68
4 1 -9 1.32 2.75
4 1 -9 3.94 0.9
4 1 -9 4.8 1.1
4 -1 -9 1.71 0.77
4 -1 -9 3.19 0.83
4 -1 -9 5.55 1.14
4 -1 -9 3.27 3.64
5 1 -9 -0.07 0.32
5 1 -9 -0.1 0.44
5 1 -9 -0.28 0.36
5 -1 -9 -0.37 0.34
5 -1 -9 1.9 2.31
5 -1 -9 0.55 0.43
5 -1 -9 0 0.39
0 -2 -9 0.06 0.22
0 2 -9 -0.89 1.01
0 -2 -9 0.29 2.12
1 2 -9 90.76 12.98
1 2 -9 95 16.71
1 2 -9 103.61 13.01
-1 -2 -9 84.89 17.11
-1 -2 -9 88.32 13.04
1 -2 -9 65.07 16.8
1 -2 -9 100.98 13.13
-1 2 -9 106.96 16.81
1 -2 -9 100.79 13.17
2 2 -9 -0.17 0.23
2 2 -9 0.86 2.04
-2 -2 -9 0.99 2.05
2 2 -9 0.04 0.23
-2 -2 -9 0.18 0.28
2 -2 -9 -0.12 2.26
2 -2 -9 0 0.21
-2 2 -9 -0.4 0.98
-2 2 -9 0.07 1.09
3 2 -9 83.74 11.19
3 2 -9 81.81 11.2
3 2 -9 80.87 15.54
-3 -2 -9 66.45 13.49
-3 -2 -9 83.33 11.11
3 2 -9 89.08 11.21
3 -2 -9 82.39 11.2
3 -2 -9 48.53 14.4
3 -2 -9 75.39 11.26
-3 2 -9 76.98 13.2
-3 2 -9 99.32 15.06
-4 -2 -9 0.42 0.37
4 2 -9 -0.05 0.25
-4 -2 -9 0.48 1.12
4 2 -9 0.5 0.4
4 -2 -9 0.59 0.5
4 -2 -9 -0.66 2.31
4 -2 -9 -0.16 0.3
-4 2 -9 0.45 1.22
0 -3 -9 25.92 7.43
0 3 -9 27.4 6.02
0 -3 -9 19.01 3.23
1 3 -9 -0.13 0.22
1 3 -9 0.42 1.05
-1 -3 -9 -1.55 1.18
-1 -3 -9 0.33 0.23
1 -3 -9 0.16 0.24
-1 3 -9 0.5 1.4
1 -3 -9 -0.29 0.24
1 -3 -9 0.7 1.71
-2 -3 -9 0.97 1.87
2 3 -9 0.29 1.64
2 3 -9 1.63 0.52
-2 -3 -9 -0.06 0.25
2 3 -9 0.25 0.33
2 -3 -9 0.31 0.39
-2 3 -9 0.46 1.42
2 -3 -9 1.77 2.78
-2 3 -9 -0.18 1.08
2 -3 -9 0.29 0.36
-3 -3 -9 0.32 0.33
-3 -3 -9 0.87 1.48
3 3 -9 0.13 0.33
3 3 -9 -0.13 0.31
3 -3 -9 0.59 0.44
-3 3 -9 -0.4 1.21
3 -3 -9 -0.16 2.19
-4 -3 -9 9.75 1.53
4 3 -9 7.27 1.52
4 3 -9 8.54 1.6
4 -3 -9 6.01 1.56
-4 3 -9 10.56 3.38
4 -3 -9 2.64 3.06
0 -4 -9 -0.13 0.27
0 4 -9 0.74 1.35
0 -4 -9 0.3 1.92
-1 -4 -9 29.89 11.37
-1 -4 -9 68.72 9.41
1 4 -9 93.74 11.48
1 4 -9 69.19 9.36
-1 4 -9 56.69 11.32
1 -4 -9 64.98 14.71
1 -4 -9 72.71 9.43
-2 -4 -9 2.1 2.27
-2 -4 -9 0.14 0.32
2 4 -9 -0.38 0.27
2 4 -9 -0.19 0.24
2 -4 -9 -0.84 1.67
2 -4 -9 -0.09 0.28
-2 4 -9 -0.72 0.98
2 -4 -9 -0.28 0.29
3 4 -9 53.1 7.03
3 4 -9 46.57 6.95
-3 -4 -9 49.74 6.96
-3 4 -9 35.02 8.78
3 -4 -9 52.67 7.17
3 -4 -9 48.38 7.03
3 -4 -9 56.47 13.34
0 -5 -9 0.73 2.46
0 -5 -9 1.8 0.63
-1 -5 -9 -0.29 2.28
-1 -5 -9 2.38 0.73
-1 5 -9 0.55 1.54
1 -5 -9 1.89 3
1 -5 -9 2.28 0.72
0 0 -10 289.29 38.19
0 0 -10 265.46 41.17
1 0 -10 -0.55 1.23
-1 0 -10 -0.21 0.19
1 0 -10 0.04 0.23
1 0 -10 0.14 0.24
-1 0 -10 0.23 1.38
2 0 -10 262.17 36.31
-2 0 -10 302.05 39.05
2 0 -10 265.62 36.37
2 0 -10 274.68 40.11
3 0 -10 0.06 0.29
-3 0 -10 0.43 1.22
3 0 -10 0.72 2.79
3 0 -10 0.03 0.29
-4 0 -10 150.58 23.25
4 0 -10 148.94 28.35
4 0 -10 148.13 21.55
4 0 -10 165.26 21.69
4 0 -10 167.66 21.66
0 -1 -10 0.76 1.68
0 -1 -10 0.14 0.25
0 1 -10 -1.1 1.42
1 1 -10 24.36 3.74
1 1 -10 31.76 8.3
-1 -1 -10 28.7 7.95
-1 -1 -10 24.56 3.68
1 -1 -10 24 3.79
-1 1 -10 24.35 6.62
1 -1 -10 16.74 6.82
-1 1 -10 31.67 5.29
2 1 -10 1.1 0.41
2 1 -10 0.07 0.28
-2 -1 -10 -0.24 1.39
-2 -1 -10 0.56 0.32
2 1 -10 -1.55 1.81
2 -1 -10 0.55 0.39
2 -1 -10 0.06 0.28
2 -1 -10 0.47 2.17
-2 1 -10 1.05 1.33
-3 -1 -10 11.4 3.9
3 1 -10 15.02 5.81
3 1 -10 10.4 1.96
3 1 -10 12.27 2.04
3 1 -10 12.45 2.11
-3 1 -10 13.19 4.19
3 -1 -10 11.18 5.51
3 -1 -10 14.03 2.22
3 -1 -10 10.51 1.99
4 1 -10 0.55 2.89
4 1 -10 0.38 0.37
4 1 -10 0.75 0.48
-4 -1 -10 2.96 1.9
4 1 -10 0.01 0.44
4 -1 -10 2.34 0.76
4 -1 -10 3.21 3.52
4 -1 -10 2.31 0.69
0 2 -10 242.13 35.77
0 -2 -10 223.02 36.65
0 -2 -10 257.49 33.46
1 2 -10 1.11 2.06
-1 -2 -10 0.04 1.62
-1 -2 -10 0.11 0.29
1 -2 -10 0.99 0.49
-1 2 -10 0.21 1.26
1 -2 -10 -0.94 1.86
1 -2 -10 0.93 0.4
-2 -2 -10 237.26 28.23
2 2 -10 203.91 28.18
2 2 -10 187.97 30.87
-2 -2 -10 182.6 30.59
2 2 -10 221.51 28.17
-2 2 -10 228.48 29.6
2 -2 -10 128.94 31.91
-2 2 -10 221.56 30.37
2 -2 -10 193.94 28.29
-3 -2 -10 1.24 1.78
3 2 -10 0.08 0.39
-3 -2 -10 0.03 0.3
3 2 -10 -0.21 1.96
3 2 -10 -0.13 0.29
-3 2 -10 -1.17 1.2
3 -2 -10 1.32 0.57
-3 2 -10 1.54 1.94
3 -2 -10 0.2 0.27
3 -2 -10 0.63 2.43
4 2 -10 159.87 22.56
4 2 -10 160.72 22.6
4 2 -10 158.28 22.62
-4 -2 -10 180.52 24.3
4 -2 -10 160.28 22.69
4 -2 -10 180.48 22.65
4 -2 -10 221.46 32.25
0 3 -10 -0.76 0.94
0 -3 -10 -0.04 0.25
0 -3 -10 0.89 2.3
-1 -3 -10 21.54 6.82
-1 -3 -10 13.35 2.1
1 3 -10 14.45 4.39
1 -3 -10 11.49 2.07
-1 3 -10 16.27 4.56
1 -3 -10 6.55 3.96
1 -3 -10 10.25 2.13
2 3 -10 0.48 1.8
-2 -3 -10 -1.37 1.48
2 3 -10 -0.04 0.31
-2 -3 -10 -0.33 0.25
2 -3 -10 -0.1 0.3
-2 3 -10 -0.43 1.01
2 -3 -10 -0.14 0.34
2 -3 -10 -0.16 1.77
-2 3 -10 -0.04 1.3
-3 -3 -10 26.69 3.65
3 3 -10 20.59 3.55
3 3 -10 24.75 3.66
-3 -3 -10 16.6 5.57
3 -3 -10 14.94 6.53
3 -3 -10 27.93 3.98
-3 3 -10 20.05 5.51
0 -4 -10 202.77 33.92
0 4 -10 193.67 28.91
0 -4 -10 203.36 27.19
-1 -4 -10 -0.3 1.96
-1 -4 -10 0.33 0.39
1 4 -10 -0.24 1.54
1 -4 -10 3.68 3.68
1 -4 -10 0.13 0.32
-1 4 -10 -0.16 1.13
-2 -4 -10 163.94 26.05
2 4 -10 162.38 20.66
-2 -4 -10 166.03 20.69
-2 4 -10 113.41 22.59
2 -4 -10 136.83 20.78
2 -4 -10 156.66 20.7
2 -4 -10 127.3 26.38
0 0 -11 0.94 2.01
0 0 -11 0.23 0.29
1 0 -11 101.95 17.35
-1 0 -11 61.28 14.29
-2 0 -11 -0.86 1.32
2 0 -11 -0.04 0.3
2 0 -11 0.13 0.29
2 0 -11 -0.51 1.83
3 0 -11 48 6.87
3 0 -11 27.25 10.26
3 0 -11 56.9 6.86
-3 0 -11 34.35 9.11
0 -1 -11 6.92 1.26
0 -1 -11 5.54 3.64
0 1 -11 3.41 3.03
1 1 -11 -0.19 1.88
-1 -1 -11 0.1 0.32
-1 -1 -11 1.35 2.5
-1 1 -11 1.14 1.93
1 -1 -11 1.98 0.6
1 -1 -11 0.78 0.47
1 -1 -11 -0.06 2.17
-2 -1 -11 4.76 3.22
2 1 -11 7.29 4.44
2 1 -11 9.63 1.61
2 -1 -11 7.99 1.54
-2 1 -11 23.14 5.53
2 -1 -11 8.58 1.71
2 -1 -11 10.73 5.06
3 1 -11 0.96 0.46
3 1 -11 -0.63 2.44
-3 -1 -11 -0.05 1.46
3 -1 -11 0.22 0.41
3 -1 -11 1.34 0.59
3 -1 -11 -1.44 2.41
-3 1 -11 3.51 2.7
0 -2 -11 1.01 2.12
0 2 -11 -0.5 1.75
0 -2 -11 -0.22 0.24
-1 -2 -11 51.03 7.53
1 2 -11 73.26 13.04
-1 -2 -11 62.34 13.1
-1 2 -11 58.02 11.19
1 -2 -11 59.11 13.77
1 -2 -11 55.6 7.68
-1 2 -11 66.41 10.08
1 -2 -11 49.46 7.57
-2 -2 -11 0.38 0.37
2 2 -11 -0.79 2.1
-2 -2 -11 0.17 1.67
2 -2 -11 -0.11 0.36
-2 2 -11 1.02 1.37
2 -2 -11 -1.3 1.47
3 2 -11 45.43 6.84
3 2 -11 60.6 12.74
-3 -2 -11 54.36 10.48
3 -2 -11 50.84 7.01
3 -2 -11 30.49 10.5
-3 2 -11 61.87 10.84
0 -3 -11 10.71 4.88
0 -3 -11 10.54 1.91
0 3 -11 10.21 4.03
-1 -3 -11 0.06 0.35
-1 -3 -11 -1.46 2.01
1 3 -11 1.25 1.67
-1 3 -11 0.18 1.66
1 -3 -11 0.55 0.4
1 -3 -11 -2.51 1.7
-1 3 -11 0.64 1.27
-2 -3 -11 5.42 1.03
2 3 -11 4.03 2.91
-2 -3 -11 -0.85 1.96
-2 3 -11 3.34 2.59
-2 3 -11 4.58 2.38
2 -3 -11 3.38 0.88
2 -3 -11 3.19 3.7
2 -3 -11 2.27 0.9
0 0 -12 -1.96 1.35
-1 0 -12 0.34 1.95
1 0 -12 -1.08 1.9
-2 0 -12 12.48 4.43
2 0 -12 5.66 4.62
0 -1 -12 0.35 0.39
0 1 -12 1.15 2.31
0 -1 -12 -0.12 1.83
-1 -1 -12 121.58 23.68
1 1 -12 144.68 25.33
1 -1 -12 150.11 18.97
1 -1 -12 107.19 24.13
-1 1 -12 125.84 23.1
-2 -1 -12 0.2 1.84
2 1 -12 -0.86 2.33
2 -1 -12 0.11 0.42
2 -1 -12 -0.57 2.23
-2 1 -12 1.45 2.08
0 -2 -12 10.32 5.34
0 -2 -12 9.08 1.69
0 2 -12 7.57 4.07
1 2 -12 4.34 3.3
-1 -2 -12 1.55 0.56
-1 -2 -12 3.56 3.43
1 -2 -12 1.39 0.58
-1 2 -12 -1 1.3
1 -2 -12 0.13 3.03
