#------------------------------------------------------------------------------
#$Date: 2019-11-22 23:05:12 +0200 (Fri, 22 Nov 2019) $
#$Revision: 231522 $
#$URL: file:///home/coder/svn-repositories/cod/cif/4/00/33/4003329.cif $
#------------------------------------------------------------------------------
#
# This file is available in the Crystallography Open Database (COD),
# http://www.crystallography.net/
#
# All data on this site have been placed in the public domain by the
# contributors.
#
data_4003329
loop_
_publ_author_name
'Yang, Guangsai'
'Gong, Pifu'
'Lin, Zheshuai'
'Ye, Ning'
_publ_section_title
;
 AZn2BO3X2(A = K, Rb, NH4; X = Cl, Br): New Members of KBBF Family
 Exhibiting Large SHG Response and the Enhancement of Layer Interaction by
 Modified Structures
;
_journal_issue                   24
_journal_name_full               'Chemistry of Materials'
_journal_page_first              9122
_journal_paper_doi               10.1021/acs.chemmater.6b04272
_journal_volume                  28
_journal_year                    2016
_chemical_formula_sum            'B Cl2 O3 Rb Zn2'
_chemical_formula_weight         345.92
_space_group_crystal_system      trigonal
_space_group_IT_number           155
_space_group_name_Hall           'R 3 2"'
_space_group_name_H-M_alt        'R 3 2 :H'
_audit_creation_method           SHELXL-2014/7
_cell_angle_alpha                90
_cell_angle_beta                 90
_cell_angle_gamma                120
_cell_formula_units_Z            3
_cell_length_a                   4.9611(5)
_cell_length_b                   4.9611(5)
_cell_length_c                   27.221(6)
_cell_measurement_reflns_used    481
_cell_measurement_temperature    293(2)
_cell_measurement_theta_max      27.4507
_cell_measurement_theta_min      4.4927
_cell_volume                     580.22(15)
_computing_structure_refinement  'SHELXL-2014/7 (Sheldrick, 2014)'
_diffrn_ambient_temperature      293(2)
_diffrn_detector_area_resol_mean 28.5714
_diffrn_measured_fraction_theta_full 0.981
_diffrn_measured_fraction_theta_max 0.981
_diffrn_measurement_device
;
Saturn724+ (2x2 bin mode)
;
_diffrn_measurement_method       CCD_Profile_fitting
_diffrn_radiation_type           MoK\a
_diffrn_radiation_wavelength     0.71073
_diffrn_reflns_av_R_equivalents  0.0390
_diffrn_reflns_av_unetI/netI     0.0510
_diffrn_reflns_Laue_measured_fraction_full 0.981
_diffrn_reflns_Laue_measured_fraction_max 0.981
_diffrn_reflns_limit_h_max       2
_diffrn_reflns_limit_h_min       -5
_diffrn_reflns_limit_k_max       5
_diffrn_reflns_limit_k_min       -3
_diffrn_reflns_limit_l_max       14
_diffrn_reflns_limit_l_min       -31
_diffrn_reflns_number            411
_diffrn_reflns_point_group_measured_fraction_full 0.956
_diffrn_reflns_point_group_measured_fraction_max 0.957
_diffrn_reflns_theta_full        24.927
_diffrn_reflns_theta_max         24.927
_diffrn_reflns_theta_min         4.493
_diffrn_source                   'Sealed Tube'
_exptl_absorpt_coefficient_mu    13.071
_exptl_absorpt_correction_T_max  1.0000
_exptl_absorpt_correction_T_min  0.7521
_exptl_absorpt_correction_type   multi-scan
_exptl_crystal_colour            White
_exptl_crystal_density_diffrn    2.970
_exptl_crystal_description       Prism
_exptl_crystal_F_000             480
_exptl_crystal_size_max          0.3000
_exptl_crystal_size_mid          0.2500
_exptl_crystal_size_min          0.0500
_refine_diff_density_max         1.331
_refine_diff_density_min         -0.783
_refine_diff_density_rms         0.247
_refine_ls_abs_structure_details
;
 Classical Flack method preferred over Parsons because s.u. lower.
;
_refine_ls_abs_structure_Flack   0.15(13)
_refine_ls_extinction_method     none
_refine_ls_goodness_of_fit_ref   1.035
_refine_ls_hydrogen_treatment    undef
_refine_ls_matrix_type           full
_refine_ls_number_parameters     17
_refine_ls_number_reflns         218
_refine_ls_number_restraints     0
_refine_ls_restrained_S_all      1.035
_refine_ls_R_factor_all          0.0506
_refine_ls_R_factor_gt           0.0472
_refine_ls_shift/su_max          0.000
_refine_ls_shift/su_mean         0.000
_refine_ls_structure_factor_coef Fsqd
_refine_ls_weighting_details
'w=1/[\s^2^(Fo^2^)+(0.0951P)^2^] where P=(Fo^2^+2Fc^2^)/3'
_refine_ls_weighting_scheme      calc
_refine_ls_wR_factor_gt          0.1240
_refine_ls_wR_factor_ref         0.1258
_reflns_Friedel_coverage         0.419
_reflns_Friedel_fraction_full    0.903
_reflns_Friedel_fraction_max     0.903
_reflns_number_gt                184
_reflns_number_total             218
_reflns_threshold_expression     'I > 2\s(I)'
_cod_data_source_file            cm6b04272_si_006.cif
_cod_data_source_block           1
_cod_depositor_comments
;
The following automatic conversions were performed:

data item '_exptl_absorpt_correction_type' value 'Multi-scan' was
changed to 'multi-scan' in accordance with the
/home/saulius/struct/COD-crude-data/automatic-downloads/DataCite-retrospective/ACS/depositions/lib/dictionaries/cif_core.dic
dictionary named 'cif_core.dic' version 2.4.2 last updated on
2011-04-26.

Automatic conversion script
Id: cif_fix_values 6909 2019-04-08 15:41:33Z antanas 
;
_cod_original_cell_volume        580.21(17)
_cod_database_code               4003329
_shelx_shelxl_version_number     2014/7
_shelx_space_group_comment
;
The symmetry employed for this shelxl refinement is uniquely defined
by the following loop, which should always be used as a source of
symmetry information in preference to the above space-group names.
They are only intended as comments.
;
_shelx_res_file
;

    1.res created by SHELXL-2014/7


TITL 1 in R32
CELL 0.71073   4.9611   4.9611  27.2209  90.000  90.000 120.000
ZERR    3.00   0.0005   0.0005   0.0061   0.000   0.000   0.000
LATT -3
SYMM -Y, X-Y, Z
SYMM -X+Y, -X, Z
SYMM Y, X, -Z
SYMM X-Y, -Y, -Z
SYMM -X, -X+Y, -Z
SFAC B O CL ZN RB
UNIT 3 9 6 6 3

L.S. 150
BOND
FMAP 2
PLAN 20
twin  -1 0 0 0 -1 0 0 0 1
omit -3 50
ACTA
omit 0 0 9
omit -1 4 22
omit -3 2 25
omit -1 2 12
omit -1 3 20
WGHT    0.095100
BASF   0.02465
FVAR       0.46039
ZN1   4    0.333333    0.666667    0.973574    10.33333    0.01156    0.01156 =
         0.01916    0.00000    0.00000    0.00578
CL1   3    0.333333    0.666667    0.890615    10.33333    0.04613    0.04613 =
         0.02002    0.00000    0.00000    0.02306
RB1   5    0.666667    0.333333    0.833333    10.16667    0.03861    0.03861 =
         0.05173    0.00000    0.00000    0.01930
O1    2    0.727396    1.000000    1.000000    10.50000    0.00741    0.01110 =
         0.02548   -0.00593   -0.00297    0.00555
B1    1    1.000000    1.000000    1.000000    10.16667    0.02712    0.02712 =
         0.02338    0.00000    0.00000    0.01356
HKLF 4

REM  1 in R32
REM R1 =  0.0472 for     184 Fo > 4sig(Fo)  and  0.0506 for all     218 data
REM     17 parameters refined using      0 restraints

END

WGHT      0.0987      0.0000

REM Highest difference peak  1.331,  deepest hole -0.783,  1-sigma level  0.247
Q1    1   0.3333  0.6667  0.9357  10.33333  0.05    1.33
Q2    1   1.0000  1.0000  1.0525  10.33333  0.05    0.91
Q3    1   0.5344  1.0621  0.9347  11.00000  0.05    0.78
Q4    1   0.6562  0.8311  1.0235  11.00000  0.05    0.78
Q5    1   0.5241  0.7521  0.9002  11.00000  0.05    0.71
Q6    1   0.1535  0.8449  0.9320  11.00000  0.05    0.70
Q7    1   0.7773  0.5731  0.8135  11.00000  0.05    0.64
Q8    1   0.1574  0.9192  0.8497  11.00000  0.05    0.62
Q9    1   0.3333  0.6667  1.0051  10.33333  0.05    0.58
Q10   1   0.6667  0.3333  0.7927  10.33333  0.05    0.54
Q11   1   0.1942  0.3854  0.8840  11.00000  0.05    0.53
Q12   1   0.8620  0.1462  0.8317  11.00000  0.05    0.50
Q13   1   0.5914  0.4061  0.7675  11.00000  0.05    0.45
Q14   1   0.4563  0.7178  0.8606  11.00000  0.05    0.42
Q15   1   0.8420  1.0000  1.0000  10.50000  0.05    0.38
Q16   1   0.6667  0.3333  0.7488  10.33333  0.05    0.38
Q17   1   0.3333  0.6667  0.8678  10.33333  0.05    0.36
Q18   1   0.5329  1.0266  1.0229  11.00000  0.05    0.29
Q19   1   0.4878  0.5122  0.7883  11.00000  0.05    0.18
Q20   1   0.6782  0.8399  1.0778  11.00000  0.05    0.16
;
_shelx_res_checksum              37270
_shelx_hkl_file
;
   0   0  -6 9158.12  433.07
   0   0  -9  481.14   22.53
   0   0 -12  331.16   15.55
   0   0 -15 4219.08  197.28
   0   0 -18   87.31   25.81
   0   0 -21 2247.45  105.12
   0   0 -24  234.65   36.78
   0   0 -27   29.97   25.87
   0   0 -30  333.34   15.96
   0   0 -33   19.54   25.83
   1   0 -32  506.06   23.78
   0  -1 -32  527.46   24.92
  -1   1 -32  461.63   21.67
   1   0 -29    7.92   25.82
   0  -1 -29    9.94   25.82
  -1   1 -29    9.09   25.83
   1   0 -26 2434.79  114.02
   0  -1 -26 2421.89  113.31
  -1   1 -26 2395.30  112.04
   1   0 -23  953.83   44.69
   0  -1 -23 1005.87   47.08
  -1   1 -23 1081.57   50.66
   1   0 -20  850.67   39.91
   0  -1 -20  845.91   39.58
  -1   1 -20  812.01  107.99
   1   0 -17   11.31   25.82
   0  -1 -17   10.94   25.82
  -1   1 -17    7.36   26.40
   1   0 -14 1180.48   55.25
   0  -1 -14 1209.46   67.15
   0  -1 -11 7768.85  364.78
  -1   1 -11 7550.42  353.45
   1   0  -8  115.07   25.81
   0  -1  -8  120.54   26.05
  -1   1  -8   94.31   25.89
   0  -1  -5 3970.93  185.66
  -1   1  -5 4244.46  198.45
   0   1   5 4124.28  192.81
  -1   1  -2 1411.10   65.98
   0  -1  -2 1461.55   68.33
  -1   0  -1 2449.11  114.50
  -1   1   1 2432.13  113.70
  -1   0  -4 8873.85  414.86
   1  -1  -7  330.21   51.67
   0   1  -7  361.46   16.94
  -1   0  -7  331.04   15.56
   0   1 -10 7768.98  363.21
  -1   0 -10 7896.46  369.22
   1  -1 -13 3111.77  145.49
   0   1 -13 3137.48  146.72
  -1   0 -13 3064.62  143.46
   1  -1 -16 2525.14  118.15
   0   1 -16 2492.19  116.55
  -1   0 -16 2446.64  114.96
   1  -1 -19   42.03   25.81
   0   1 -19   42.04   25.81
  -1   0 -19   81.20   26.94
   1  -1 -22 1124.08   52.68
   0   1 -22 1276.31   59.77
  -1   0 -22 1056.65   87.96
   1  -1 -25  874.66   40.94
   0   1 -25  758.16   35.56
  -1   0 -25 1171.40  110.49
   1  -1 -28  188.67   29.54
   0   1 -28  207.75   32.54
  -1   0 -28  166.18   26.16
   1  -1 -31  252.32   39.51
   0   1 -31  257.12   40.27
  -1   0 -31  229.61   35.95
   1  -1 -34  322.16   50.44
   0   1 -34  329.92   51.65
  -1   0 -34  328.86   51.49
   2  -1 -33    5.21   25.81
  -1   2 -33    6.76   25.83
  -1  -1 -33    6.25   25.82
   2  -1 -30   96.26   25.83
  -1   2 -30  107.76   25.83
  -1  -1 -30   92.82   25.82
   2  -1 -27    8.39   25.82
  -1   2 -27   16.42   25.83
  -1  -1 -27    6.61   25.93
   2  -1 -24  442.76   20.78
  -1   2 -24  435.20   20.45
  -1  -1 -24  499.79   38.01
   2  -1 -21 2867.88  134.13
  -1   2 -21 2649.62  123.93
  -1  -1 -21 3418.19  164.35
   2  -1 -18  130.93   25.82
  -1   2 -18  122.88   25.83
  -1  -1 -18  127.26   27.70
  -1   2 -15 4988.21  233.25
  -1  -1 -15 5030.28  235.33
  -1   2 -12   51.71   26.09
  -1   2  -9  164.95   30.34
  -1  -1  -9  157.29   25.83
  -1   2  -6 2304.99  115.19
  -1  -1  -6 2276.67  106.45
  -1   2  -3  285.86   45.32
  -1  -1  -3  284.32   44.49
  -2   1  -3  365.54   17.14
  -1   2   6 1831.61   86.11
  -2   1  -6 1985.19   92.84
   1   1  -9  259.18   40.56
   1  -2  -9  262.53   41.08
  -2   1  -9  301.53   47.21
   1   1 -12  178.34   27.91
   1  -2 -12  263.25   41.20
  -2   1 -12  132.87   25.83
   1   1 -15 4758.64  222.60
   1  -2 -15 5294.91  247.58
  -2   1 -15 5254.91  245.89
   1   1 -18  127.11   25.82
   1  -2 -18  135.32   25.82
  -2   1 -18  134.87   25.99
   1   1 -21 2420.36  113.22
   1  -2 -21 2521.71  117.93
  -2   1 -21 2579.73  122.78
   1   1 -24  432.51   20.36
   1  -2 -24  359.71   16.87
  -2   1 -24  457.59   24.67
   1   1 -27   30.63   25.82
   1  -2 -27   31.72   25.81
  -2   1 -27  110.77   31.98
   1   1 -30   66.23   25.82
   1  -2 -30   96.61   25.83
  -2   1 -30   55.85   47.19
   1   1 -33    3.46   25.81
   1  -2 -33   -0.07   25.81
  -2   1 -33    4.83   25.82
   2   0 -31  219.47   34.37
   0  -2 -31  279.31   43.72
  -2   2 -31  252.11   39.49
   0  -2 -28  283.46   44.43
  -2   2 -28  229.05   35.88
   2   0 -25  955.27   44.74
   0  -2 -25  949.83   44.47
  -2   2 -25  976.35  115.55
   2   0 -22  466.64   21.86
  -2   2 -22  458.62   37.25
   0  -2 -19   10.14   25.82
  -2   2 -19   11.63   26.19
   0  -2 -16 1353.23   70.75
   0  -2 -13 1584.32   77.05
  -2   2 -13 1796.73   84.47
   0  -2 -10 4393.85  205.66
  -2   2 -10 5026.86  235.26
   0  -2  -7  253.44   39.69
  -2   2  -7  274.71   43.02
  -2   2  -4 3110.65  145.46
   0  -2  -4 3226.43  150.84
   0  -2  -1 2794.04  130.62
  -2   2  -1 2833.05  132.46
  -2   0   1 2730.50  127.67
   0  -2  -1 2797.35  130.78
  -2   2   2 1651.56   77.22
  -2   0  -2 1627.99   76.13
  -2   0  -5 6122.43  286.25
   0   2  -8  809.74   37.88
  -2   0  -8  818.25   38.32
   0   2 -11 7781.69  363.82
  -2   0 -11 7429.82  347.42
   0   2 -14  275.71   43.15
  -2   0 -14  256.67   40.21
   0   2 -17   19.55   25.84
  -2   0 -17   20.90   25.86
   2  -2 -20  521.16   24.41
  -2   0 -20  521.49   24.86
   2  -2 -23  573.96   26.89
   0   2 -23  544.10   25.53
  -2   0 -23  595.05   28.92
   2  -2 -26 1216.75   56.99
   0   2 -26 1222.69   57.22
  -2   0 -26 1524.99   73.81
   2  -2 -29    5.67   25.81
   0   2 -29    3.74   25.82
  -2   0 -29  112.13   31.98
   2  -2 -32  234.79   36.76
   0   2 -32  312.48   49.00
  -2   0 -32  153.34   41.03
  -2  -1 -31  124.44   34.50
  -1   3 -28  185.30   29.02
  -2  -1 -28  136.36   31.89
  -1   3 -25  892.46   41.82
  -2  -1 -25  781.61   38.38
  -1   3 -22  533.33   25.02
  -2  -1 -22  525.74   25.55
  -1   3 -19   25.87   25.82
  -2  -1 -19   41.02   25.94
  -1   3 -16 1032.57   48.31
  -2  -1 -16 1018.27   47.72
  -1   3 -13  947.73   44.34
  -2  -1 -13  961.46   45.06
  -1   3 -10 3722.78  174.06
  -2  -1 -10 3660.78  171.23
  -1   3  -7  161.90   25.83
  -2  -1  -7  145.11   25.83
  -1   3  -4 2309.83  107.99
  -2  -1  -4 2406.76  112.54
  -3   2   4 2340.71  109.46
   1  -3   1 1676.82   78.40
  -3   2   1 1676.30   78.39
  -2  -1  -1 1664.37   77.83
  -3   2  -2 1207.95   56.51
  -3   2  -5 3981.22  186.17
  -3   2  -8  507.64   23.87
  -3   2 -11 3422.17  160.09
   1  -3 -14  298.06   46.64
  -3   2 -14  254.85   39.95
   1  -3 -17   33.38   25.81
  -3   2 -17   61.32   26.01
   1  -3 -20  362.36   16.97
  -3   2 -20  367.94   17.94
   1  -3 -23  497.28   23.29
  -3   2 -23  491.99   24.10
  -3   2 -26 1138.27   58.10
  -3   2 -29   36.08   28.38
  -2   3 -29   17.48   25.87
  -1  -2 -29   15.26   25.83
  -2   3 -26 1393.71   65.23
  -1  -2 -26 1461.52  168.96
  -2   3 -23  558.89   26.26
  -1  -2 -23  585.62   50.99
  -2   3 -20  733.93   34.40
  -2   3 -17   74.11   29.17
  -1  -2 -17   24.14   25.88
  -2   3 -14  153.43   28.60
  -1  -2 -14  221.66   34.82
  -2   3 -11 4447.38  210.44
  -1  -2 -11 4857.86  227.21
  -2   3  -8  496.75   25.32
  -1  -2  -8  474.47   22.23
  -2   3  -5 3626.51  169.74
  -1  -2  -5 3618.25  169.17
  -2   3  -2 1319.16   61.81
  -1  -2  -2 1271.86   59.48
  -3   1   2 1295.82   60.61
  -2   3   1 1788.13   83.62
  -3   1  -1 1758.68   82.25
  -2   3   4 1925.86   90.04
  -3   1  -4 1979.34   92.58
  -3   1  -7  143.97   25.83
  -2   3   7  122.27   25.81
  -3   1 -10 4626.67  216.41
  -3   1 -13  878.08   41.11
   1   2 -16 1386.82   64.87
  -3   1 -16 1327.50   62.28
   1   2 -19   34.19   25.81
  -3   1 -19   33.90   26.02
   1   2 -22  312.22   48.87
  -3   1 -22  313.02   49.13
   2  -3 -25  405.17   19.03
   1   2 -25  402.79   18.89
  -3   1 -25  391.80   19.26
   1   2 -28   98.71   25.82
  -3   1 -28  107.60   27.94
  -3   1 -31  167.68   36.28
  -3   3 -27   37.03   40.05
  -3   3 -24  143.48   31.88
  -3   3 -21  988.29   48.01
   0  -3 -18    8.64   25.81
  -3   3 -18   18.39   26.91
   0  -3 -12   18.38   25.92
  -3   3 -12   22.17   25.91
   0  -3  -9   54.24   25.83
  -3   3  -9   91.75   25.89
   0  -3  -6 1674.23   78.29
  -3   3  -6 1699.75   79.53
  -3   3  -3  627.48   29.47
   0  -3  -3  629.49   29.44
  -3   0   3  645.35   30.22
  -3   3   0 8030.89  375.46
  -3   0   0 8393.75  392.43
   0  -3   0 9999.99  467.50
  -3   3   3  525.93   24.62
  -3   0  -3  513.49   24.05
  -3   0  -6 2251.94  105.32
  -3   3   6 2224.14  104.00
   0   3  -9   75.35   25.81
  -3   0  -9   70.96   25.82
  -3   3   9   67.95   25.81
   0   3 -12   11.76   25.81
  -3   0 -12   12.19   25.82
   0   3 -15 1750.86   81.89
  -3   0 -15 1743.57   81.71
   0   3 -18   11.48   25.83
  -3   0 -18   10.30   25.83
   0   3 -21 1224.56   57.33
  -3   0 -21 1169.15   54.98
   0   3 -24  110.24   25.85
  -3   0 -24  104.87   25.91
   0   3 -27    6.28   25.82
  -3   0 -27    4.94   25.86
  -1   4 -26  814.62   38.15
  -3  -1 -26  886.37   42.26
  -1   4 -23  385.65   18.10
  -3  -1 -23  400.02   19.06
  -1   4 -20  306.77   48.03
  -3  -1 -20  338.50   16.04
  -1   4 -17   12.62   25.81
  -3  -1 -17   13.62   25.85
  -1   4 -14  209.57   32.82
  -3  -1 -14  173.83   27.34
  -1   4 -11 2230.60  104.30
  -3  -1 -11 2218.16  103.83
  -4   3  11 2213.88  103.55
  -1   4  -8  231.57   36.25
  -3  -1  -8  217.23   34.04
  -4   3   8  197.83   30.97
  -3  -1  -5 1658.94   77.64
  -4   3   5 1645.43   76.96
  -4   3   2  338.49   15.93
  -3  -1  -2  350.48   16.44
  -4   3  -1  664.94   31.16
  -3  -1   1  673.66   31.55
  -4   3  -4 1458.53   68.25
  -3  -1   4 1460.33   68.32
  -4   3  -7   11.37   25.83
  -4   3 -10 2268.01  106.18
  -4   3 -13  956.53   44.93
  -4   3 -16 1021.68   48.43
  -4   3 -19   51.85   26.23
  -4   3 -22  266.38   41.94
  -4   3 -25  279.41   55.54
  -2   4 -27   20.87   25.86
  -2  -2 -27    8.24   26.88
  -2   4 -24  209.91   32.94
  -2  -2 -24  216.83   34.49
  -2   4 -21 1579.11   73.94
  -2  -2 -21 1502.47   71.07
  -2   4 -18  109.18   25.84
  -2  -2 -18  110.29   25.86
  -2   4 -15 1704.84   79.74
  -2  -2 -15 1636.15   76.61
  -2   4 -12   23.72   25.81
  -2  -2 -12   40.59   25.84
  -2   4  -9   17.93   25.81
  -2  -2  -9   33.70   25.84
  -4   2   9    8.92   25.81
  -2   4  -6  865.73   40.49
  -2  -2  -6  843.45   39.47
  -4   2   6  885.54   41.44
  -2  -2  -3  139.13   25.82
  -4   2   3  145.81   25.82
  -4   2   0 5684.59  265.80
  -2  -2   0 5608.92  262.25
  -4   2  -3  145.57   25.88
  -4   2  -6  919.83   43.08
  -4   2  -9   12.27   25.82
  -4   2 -12   63.05   26.08
  -4   2 -15 1966.49   92.21
  -4   2 -18  141.95   25.92
  -4   2 -21 1613.85   76.01
  -4   2 -24  214.19   33.92
  -4   2 -27   24.19   26.41
  -3   4 -25  324.10   50.73
  -3   4 -22  523.61   24.67
  -3   4 -19  137.17   46.06
  -3   4 -16  886.67   46.89
  -3   4 -13 1312.30   64.16
  -1  -3 -13 1329.55   62.29
  -1  -3 -10 2441.53  114.19
  -3   4  -7    7.14   25.82
  -1  -3  -7    8.95   25.82
  -4   1   7    7.72   25.81
  -3   4  -4 1426.79   66.87
  -1  -3  -4 1441.54   67.43
  -4   1   4 1458.08   68.22
  -3   4  -1  531.58   24.93
  -4   1   1  526.10   24.65
  -1  -3  -1  542.51   25.39
  -3   4   2  286.98   44.91
  -4   1  -2  348.18   16.58
  -1  -3   2  325.47   50.93
  -3   4   5 1656.84   77.48
  -4   1  -5 1553.73   72.71
  -4   1  -8  155.52   25.89
  -4   1 -11 1740.47   81.46
  -4   1 -14  193.36   30.33
  -4   1 -17    6.58   25.82
  -4   1 -20  419.64   19.89
  -4   1 -23  426.88   21.08
  -4   1 -26 1119.30   53.12
  -4   4 -23  671.11   71.67
  -4   4 -20  414.55   21.61
  -4   4 -17   21.70   25.88
  -4   4 -14  158.84   25.92
  -4   4 -11 1136.69   53.38
  -4   4  -8   69.97   25.84
  -4   0   8   69.15   25.82
  -4   4  -5 1011.49   47.37
  -4   0   5  976.79   45.72
  -4   4  -2  163.84   25.87
  -4   4   1  237.79   37.26
  -4   0  -1  234.69   36.74
  -4   4   4 1216.25   56.90
  -4   0  -4 1225.44   57.38
  -4   0  -7   67.12   25.83
  -4   4   7   53.52   25.82
  -4   0 -10 2409.70  112.79
  -4   4  10 2298.36  107.48
  -4   0 -13 1347.35   63.22
  -4   0 -16  901.62   42.35
  -4   0 -19   96.55   25.97
   0   4 -22  245.84   38.48
  -4   0 -22  246.08   38.73
  -4  -1 -18   70.30   25.90
  -4  -1 -15  901.90   42.33
  -4  -1 -12   12.08   25.83
  -5   4  12   12.27   25.81
  -4  -1  -9    0.95   25.81
  -5   4   9    6.03   25.81
  -4  -1  -6  526.58   24.83
  -5   4   6  570.01   26.71
  -5   4   3  234.70   36.76
  -4  -1  -3  214.50   33.60
  -5   4   0 2379.18  111.29
  -4  -1   0 2410.02  112.76
  -5   4  -3  200.25   31.43
  -4  -1   3  208.54   32.66
  -4  -1   6  497.90   23.33
  -5   4  -9   10.99   25.82
  -4  -1   9    1.42   25.81
  -5   4 -12   11.39   25.85
  -5   4 -15  833.36   39.25
  -5   4 -18  108.89   26.25
  -3  -2 -19   28.57   26.08
  -3  -2 -16  417.31   19.66
  -5   3  13  423.55   19.86
  -3  -2 -10 1255.50   58.81
  -5   3  10 1228.04   57.46
  -3  -2  -7   19.71   25.85
  -5   3   7   18.34   25.81
  -3  -2  -4  383.17   18.02
  -5   3   4  467.66   21.99
  -5   3   1  569.37   26.72
  -3  -2  -1  565.41   26.49
  -5   3  -2  533.26   25.13
  -3  -2   2  470.36   22.05
  -3  -2   5 1722.14   80.57
  -5   3  -8  376.72   18.20
  -5   3 -11 1565.86   73.43
  -5   3 -14   36.61   25.99
  -5   3 -17   10.40   25.82
  -5   3 -20  186.65   29.32
  -3   5 -20  159.09   25.82
  -3   5 -17   11.49   25.81
  -5   2  14   26.14   25.82
  -5   2  11 1245.59   58.30
  -2  -3  -8  340.18   15.97
  -5   2   8  367.78   17.29
  -2  -3  -5 1408.74   65.94
  -5   2   5 1389.48   65.02
  -2  -3  -2  510.16   23.99
  -5   2   2  450.98   21.17
  -5   2  -1  546.08   25.65
  -2  -3   1  575.67   26.95
  -5   2  -4  463.84   21.85
  -5   2  -7   16.43   25.90
  -5   2 -10 1336.04   62.66
  -5   2 -13  632.84   29.82
  -5   2 -16  420.44   20.05
  -5   2 -19   28.73   26.06
  -4   5 -18   37.79   27.50
  -4   5 -15  655.05   39.68
  -4   5 -12   16.49   26.02
  -5   1  12   20.05   25.82
  -5   1   9    8.56   25.81
  -5   1   6  516.22   24.21
  -5   1   3  190.56   29.84
  -5   1   0 2720.33  127.29
  -5   1  -3  148.45   25.86
  -5   1  -6  677.23   31.90
  -5   1  -9   14.25   25.87
  -5   1 -12   13.37   25.88
  -5   1 -15  880.89   41.87
  -5   1 -18   75.71   25.85
  -5   5 -13  394.55   18.93
  -5   0  13  401.27   18.86
  -5   5 -10  654.46   30.92
  -5   0  10  658.58   30.85
  -5   0   7   12.72   25.81
  -5   0   4  278.24   43.57
  -5   0   1  276.09   43.23
  -5   0  -2  265.54   41.60
  -5   0  -5  807.74   37.85
  -5   0  -8  225.52   35.34
  -5   0 -11  848.15   39.88
  -5   0 -14    9.34   25.82
  -5  -1  -1  210.74   33.01
  -5  -1   2  251.45   39.38
  -4  -2 -11  564.34   26.53
  -6   4  11  528.02   24.76
  -4  -2  -8  196.47   30.78
  -6   4   8  191.83   30.05
  -4  -2  -5  661.20   31.04
  -6   4   2  247.28   38.73
  -4  -2  -2  224.79   35.21
  -6   4  -1  241.12   37.78
  -4  -2   1  208.41   32.64
  -6   4  -4  172.53   27.05
  -4  -2   4  219.10   34.31
  -6   4  -7   12.33   25.89
  -4  -2   7   17.19   25.82
  -6   4 -10  623.10   29.28
  -4  -2  10  655.88   30.73
  -6   3  12    7.25   25.81
  -6   3   9    2.96   25.81
  -6   3   6  414.92   19.52
  -3  -3  -3  202.94   31.79
  -6   3   3  204.68   32.11
  -6   3   0 1488.21   69.65
  -3  -3   0 1417.91   66.35
  -6   3  -3  210.38   32.98
  -3  -3   3  193.49   30.29
  -6   3  -6  422.72   19.94
  -3  -3   6  427.16   20.04
  -6   3  -9    3.64   25.83
  -3  -3   9    6.75   25.81
  -6   3 -12   13.24   25.87
  -6   2  10  702.96   32.96
  -6   2   7   17.22   25.82
  -6   2   4  183.63   28.82
  -6   2   1  232.18   36.37
  -6   2  -2  205.32   32.19
  -6   2  -5  742.07   34.86
  -6   2 -11  724.54   34.13
  -6   1   2  271.93   42.60
  -6   1  -1  270.69   42.42
   0   0   0    0.00    0.00
;
_shelx_hkl_checksum              13419
loop_
_space_group_symop_operation_xyz
'x, y, z'
'-y, x-y, z'
'-x+y, -x, z'
'y, x, -z'
'x-y, -y, -z'
'-x, -x+y, -z'
'x+2/3, y+1/3, z+1/3'
'-y+2/3, x-y+1/3, z+1/3'
'-x+y+2/3, -x+1/3, z+1/3'
'y+2/3, x+1/3, -z+1/3'
'x-y+2/3, -y+1/3, -z+1/3'
'-x+2/3, -x+y+1/3, -z+1/3'
'x+1/3, y+2/3, z+2/3'
'-y+1/3, x-y+2/3, z+2/3'
'-x+y+1/3, -x+2/3, z+2/3'
'y+1/3, x+2/3, -z+2/3'
'x-y+1/3, -y+2/3, -z+2/3'
'-x+1/3, -x+y+2/3, -z+2/3'
loop_
_atom_site_label
_atom_site_type_symbol
_atom_site_fract_x
_atom_site_fract_y
_atom_site_fract_z
_atom_site_U_iso_or_equiv
_atom_site_adp_type
_atom_site_occupancy
_atom_site_site_symmetry_order
_atom_site_calc_flag
_atom_site_refinement_flags_posn
_atom_site_refinement_flags_adp
_atom_site_refinement_flags_occupancy
Zn1 Zn 0.3333 0.6667 0.97357(7) 0.0141(8) Uani 1 3 d S T P
Cl1 Cl 0.3333 0.6667 0.89061(16) 0.0374(14) Uani 1 3 d S T P
Rb1 Rb 0.6667 0.3333 0.8333 0.0430(10) Uani 1 6 d S T P
O1 O 0.727(2) 1.0000 1.0000 0.014(2) Uani 1 2 d S T P
B1 B 1.0000 1.0000 1.0000 0.026(6) Uani 1 6 d S T P
loop_
_atom_site_aniso_label
_atom_site_aniso_U_11
_atom_site_aniso_U_22
_atom_site_aniso_U_33
_atom_site_aniso_U_23
_atom_site_aniso_U_13
_atom_site_aniso_U_12
Zn1 0.0116(9) 0.0116(9) 0.0192(11) 0.000 0.000 0.0058(4)
Cl1 0.046(2) 0.046(2) 0.020(2) 0.000 0.000 0.0231(11)
Rb1 0.0386(12) 0.0386(12) 0.052(2) 0.000 0.000 0.0193(6)
O1 0.007(4) 0.011(6) 0.025(5) -0.006(5) -0.003(3) 0.006(3)
B1 0.027(10) 0.027(10) 0.023(15) 0.000 0.000 0.014(5)
loop_
_atom_type_symbol
_atom_type_description
_atom_type_scat_dispersion_real
_atom_type_scat_dispersion_imag
_atom_type_scat_source
B B 0.0013 0.0007 'International Tables Vol C Tables 4.2.6.8 and 6.1.1.4'
O O 0.0106 0.0060 'International Tables Vol C Tables 4.2.6.8 and 6.1.1.4'
Cl Cl 0.1484 0.1585 'International Tables Vol C Tables 4.2.6.8 and 6.1.1.4'
Zn Zn 0.2839 1.4301 'International Tables Vol C Tables 4.2.6.8 and 6.1.1.4'
Rb Rb -0.9393 2.9676 'International Tables Vol C Tables 4.2.6.8 and 6.1.1.4'
loop_
_geom_angle_atom_site_label_1
_geom_angle_atom_site_label_2
_geom_angle_atom_site_label_3
_geom_angle
_geom_angle_site_symmetry_1
_geom_angle_site_symmetry_3
O1 Zn1 O1 107.33(10) 2_665 3_565
O1 Zn1 O1 107.33(9) 2_665 .
O1 Zn1 O1 107.33(10) 3_565 .
O1 Zn1 Cl1 111.53(9) 2_665 .
O1 Zn1 Cl1 111.53(9) 3_565 .
O1 Zn1 Cl1 111.53(9) . .
Zn1 Cl1 Rb1 118.56(7) . 1_455
Zn1 Cl1 Rb1 118.56(7) . 1_565
Rb1 Cl1 Rb1 99.04(9) 1_455 1_565
Zn1 Cl1 Rb1 118.56(7) . .
Rb1 Cl1 Rb1 99.04(9) 1_455 .
Rb1 Cl1 Rb1 99.04(9) 1_565 .
Cl1 Rb1 Cl1 99.04(9) . 1_655
Cl1 Rb1 Cl1 99.04(9) . 1_545
Cl1 Rb1 Cl1 99.04(9) 1_655 1_545
Cl1 Rb1 Cl1 180.0 . 16_546
Cl1 Rb1 Cl1 80.96(9) 1_655 16_546
Cl1 Rb1 Cl1 80.96(9) 1_545 16_546
Cl1 Rb1 Cl1 80.96(9) . 16_446
Cl1 Rb1 Cl1 180.0 1_655 16_446
Cl1 Rb1 Cl1 80.96(9) 1_545 16_446
Cl1 Rb1 Cl1 99.04(9) 16_546 16_446
Cl1 Rb1 Cl1 80.96(9) . 16_556
Cl1 Rb1 Cl1 80.96(9) 1_655 16_556
Cl1 Rb1 Cl1 180.0 1_545 16_556
Cl1 Rb1 Cl1 99.04(9) 16_546 16_556
Cl1 Rb1 Cl1 99.04(9) 16_446 16_556
Cl1 Rb1 Rb1 139.52(4) . 1_655
Cl1 Rb1 Rb1 40.48(4) 1_655 1_655
Cl1 Rb1 Rb1 90.0 1_545 1_655
Cl1 Rb1 Rb1 40.48(4) 16_546 1_655
Cl1 Rb1 Rb1 139.52(4) 16_446 1_655
Cl1 Rb1 Rb1 90.0 16_556 1_655
Cl1 Rb1 Rb1 139.52(4) . 1_545
Cl1 Rb1 Rb1 90.0 1_655 1_545
Cl1 Rb1 Rb1 40.48(4) 1_545 1_545
Cl1 Rb1 Rb1 40.48(4) 16_546 1_545
Cl1 Rb1 Rb1 90.000(1) 16_446 1_545
Cl1 Rb1 Rb1 139.52(4) 16_556 1_545
Rb1 Rb1 Rb1 60.0 1_655 1_545
Cl1 Rb1 Rb1 90.0 . 1_665
Cl1 Rb1 Rb1 40.48(4) 1_655 1_665
Cl1 Rb1 Rb1 139.52(4) 1_545 1_665
Cl1 Rb1 Rb1 90.0 16_546 1_665
Cl1 Rb1 Rb1 139.52(4) 16_446 1_665
Cl1 Rb1 Rb1 40.48(4) 16_556 1_665
Rb1 Rb1 Rb1 60.0 1_655 1_665
Rb1 Rb1 Rb1 120.0 1_545 1_665
Cl1 Rb1 Rb1 90.0 . 1_445
Cl1 Rb1 Rb1 139.52(4) 1_655 1_445
Cl1 Rb1 Rb1 40.48(4) 1_545 1_445
Cl1 Rb1 Rb1 90.0 16_546 1_445
Cl1 Rb1 Rb1 40.48(4) 16_446 1_445
Cl1 Rb1 Rb1 139.52(4) 16_556 1_445
Rb1 Rb1 Rb1 120.0 1_655 1_445
Rb1 Rb1 Rb1 60.0 1_545 1_445
Rb1 Rb1 Rb1 180.0 1_665 1_445
Cl1 Rb1 Rb1 40.48(4) . 1_455
Cl1 Rb1 Rb1 139.52(4) 1_655 1_455
Cl1 Rb1 Rb1 90.0 1_545 1_455
Cl1 Rb1 Rb1 139.52(4) 16_546 1_455
Cl1 Rb1 Rb1 40.48(4) 16_446 1_455
Cl1 Rb1 Rb1 90.0 16_556 1_455
Rb1 Rb1 Rb1 180.0 1_655 1_455
Rb1 Rb1 Rb1 120.0 1_545 1_455
Rb1 Rb1 Rb1 120.0 1_665 1_455
Rb1 Rb1 Rb1 60.0 1_445 1_455
Cl1 Rb1 Rb1 40.48(4) . 1_565
Cl1 Rb1 Rb1 90.0 1_655 1_565
Cl1 Rb1 Rb1 139.52(4) 1_545 1_565
Cl1 Rb1 Rb1 139.52(4) 16_546 1_565
Cl1 Rb1 Rb1 90.0 16_446 1_565
Cl1 Rb1 Rb1 40.48(4) 16_556 1_565
Rb1 Rb1 Rb1 120.0 1_655 1_565
Rb1 Rb1 Rb1 180.0 1_545 1_565
Rb1 Rb1 Rb1 60.0 1_665 1_565
Rb1 Rb1 Rb1 120.0 1_445 1_565
Rb1 Rb1 Rb1 60.000(1) 1_455 1_565
B1 O1 Zn1 125.1(3) . .
B1 O1 Zn1 125.1(3) . 4_567
Zn1 O1 Zn1 109.7(5) . 4_567
O1 B1 O1 120.000(17) . 3_675
O1 B1 O1 120.00(5) . 2_765
O1 B1 O1 120.000(18) 3_675 2_765
loop_
_geom_bond_atom_site_label_1
_geom_bond_atom_site_label_2
_geom_bond_distance
_geom_bond_site_symmetry_2
Zn1 O1 1.960(7) 2_665
Zn1 O1 1.960(6) 3_565
Zn1 O1 1.960(7) .
Zn1 Cl1 2.258(5) .
Cl1 Rb1 3.261(2) 1_455
Cl1 Rb1 3.261(2) 1_565
Cl1 Rb1 3.261(2) .
Rb1 Cl1 3.261(2) 1_655
Rb1 Cl1 3.261(2) 1_545
Rb1 Cl1 3.261(2) 16_546
Rb1 Cl1 3.261(2) 16_446
Rb1 Cl1 3.261(2) 16_556
Rb1 Rb1 4.9611(5) 1_655
Rb1 Rb1 4.9611(5) 1_545
Rb1 Rb1 4.9611(5) 1_665
Rb1 Rb1 4.9611(5) 1_445
Rb1 Rb1 4.9611(5) 1_455
Rb1 Rb1 4.9611(5) 1_565
O1 B1 1.352(11) .
O1 Zn1 1.960(6) 4_567
B1 O1 1.352(12) 3_675
B1 O1 1.352(11) 2_765
