#------------------------------------------------------------------------------
#$Date: 2021-02-04 00:33:00 +0200 (Thu, 04 Feb 2021) $
#$Revision: 261429 $
#$URL: file:///home/coder/svn-repositories/cod/cif/4/00/38/4003864.cif $
#------------------------------------------------------------------------------
#
# This file is available in the Crystallography Open Database (COD),
# http://www.crystallography.net/
#
# All data on this site have been placed in the public domain by the
# contributors.
#
data_4003864
loop_
_publ_author_name
'Calder\'on-Cueva, Mario'
'Peng, Wanyue'
'Clarke, Samantha M.'
'Ding, Jingxuan'
'Brugman, Benjamin L.'
'Levental, Gill'
'Balodhi, Ashiwini'
'Rylko, Megan'
'Delaire, Olivier'
'Walsh, James P. S.'
'Dorfman, Susannah M.'
'Zevalkink, Alexandra'
_publ_section_title
;
 Anisotropic Structural Collapse of Mg3Sb2 and Mg3Bi2 at High Pressure
;
_publ_section_keywords
;
crystal structure
;
_journal_issue                   2
_journal_name_full               'Chemistry of Materials'
_journal_page_first              567
_journal_page_last               573
_journal_paper_doi               10.1021/acs.chemmater.0c03678
_journal_volume                  33
_journal_year                    2021
_chemical_formula_moiety         'Mg3 Sb2'
_chemical_formula_sum            'Mg3 Sb2'
_chemical_formula_weight         316.43
_space_group_crystal_system      monoclinic
_space_group_IT_number           12
_space_group_name_Hall           '-C 2y'
_space_group_name_H-M_alt        'C 1 2/m 1'
_atom_sites_solution_primary     direct
_audit_creation_date             2020-11-23
_audit_creation_method
;
Olex2 1.3
(compiled 2020.07.31 svn.rc2a77460 for OlexSys, GUI svn.r6145)
;
_audit_update_record
;
2020-11-23 # Formatted by publCIF

;
_cell_angle_alpha                90
_cell_angle_beta                 117.56(2)
_cell_angle_gamma                90
_cell_formula_units_Z            4
_cell_length_a                   15.118(7)
_cell_length_b                   4.2228(7)
_cell_length_c                   7.7014(12)
_cell_measurement_reflns_used    322
_cell_measurement_temperature    298.15
_cell_measurement_theta_max      19.96
_cell_measurement_theta_min      3.08
_cell_volume                     435.9(2)
_computing_molecular_graphics    'Olex2 1.3 (Dolomanov et al., 2009)'
_computing_publication_material  'Olex2 1.3 (Dolomanov et al., 2009)'
_computing_structure_refinement  'XL  (Sheldrick, 2008)'
_computing_structure_solution    'XS  (Sheldrick, 2008)'
_diffrn_ambient_pressure         7740000
_diffrn_ambient_temperature      298.15
_diffrn_measured_fraction_theta_full 0.434
_diffrn_measured_fraction_theta_max 0.355
_diffrn_measurement_device_type  'Pilatus 1M'
_diffrn_measurement_method       '\f and \w scans'
_diffrn_radiation_type           synchrotron
_diffrn_radiation_wavelength     0.4335
_diffrn_reflns_av_R_equivalents  0.0364
_diffrn_reflns_av_unetI/netI     0.0665
_diffrn_reflns_Laue_measured_fraction_full 0.434
_diffrn_reflns_Laue_measured_fraction_max 0.355
_diffrn_reflns_limit_h_max       12
_diffrn_reflns_limit_h_min       -13
_diffrn_reflns_limit_k_max       6
_diffrn_reflns_limit_k_min       -5
_diffrn_reflns_limit_l_max       12
_diffrn_reflns_limit_l_min       -9
_diffrn_reflns_number            912
_diffrn_reflns_point_group_measured_fraction_full 0.434
_diffrn_reflns_point_group_measured_fraction_max 0.355
_diffrn_reflns_theta_full        15.076
_diffrn_reflns_theta_max         19.975
_diffrn_reflns_theta_min         1.819
_diffrn_source                   synchrotron
_diffrn_standards_number         0
_exptl_absorpt_coefficient_mu    3.351
_exptl_absorpt_correction_T_max  0.7445
_exptl_absorpt_correction_T_min  0.4708
_exptl_absorpt_correction_type   multi-scan
_exptl_absorpt_process_details
;
SADABS-2016/2 (Bruker,2016/2) was used for absorption correction.
wR2(int) was 0.0816 before and 0.0496 after correction.
The Ratio of minimum to maximum transmission is 0.6324.
The \l/2 correction factor is Not present.
;
_exptl_crystal_colour            'metallic dark grey'
_exptl_crystal_colour_lustre     metallic
_exptl_crystal_colour_modifier   dark
_exptl_crystal_colour_primary    grey
_exptl_crystal_density_diffrn    4.822
_exptl_crystal_description       hexagonal
_exptl_crystal_F_000             552
_exptl_crystal_preparation       'Directional flux growth'
_exptl_crystal_recrystallization_method 'Chemical vapor transport'
_exptl_crystal_size_max          0.04
_exptl_crystal_size_mid          0.04
_exptl_crystal_size_min          0.007
_refine_diff_density_max         12.387
_refine_diff_density_min         -7.078
_refine_diff_density_rms         1.889
_refine_ls_extinction_method     none
_refine_ls_goodness_of_fit_ref   1.933
_refine_ls_hydrogen_treatment    undef
_refine_ls_matrix_type           full
_refine_ls_number_parameters     15
_refine_ls_number_reflns         353
_refine_ls_number_restraints     0
_refine_ls_restrained_S_all      1.933
_refine_ls_R_factor_all          0.1960
_refine_ls_R_factor_gt           0.1272
_refine_ls_shift/su_max          0.000
_refine_ls_shift/su_mean         0.000
_refine_ls_structure_factor_coef Fsqd
_refine_ls_weighting_details
'w=1/[\s^2^(Fo^2^)+(0.2000P)^2^] where P=(Fo^2^+2Fc^2^)/3'
_refine_ls_weighting_scheme      calc
_refine_ls_wR_factor_gt          0.3127
_refine_ls_wR_factor_ref         0.4647
_reflns_Friedel_coverage         0.000
_reflns_number_gt                246
_reflns_number_total             353
_reflns_threshold_expression     'I > 2\s(I)'
_cod_data_source_file            cm0c03678_si_001.cif
_cod_data_source_block           Mg3Sb2_HP_7.74GPa
_cod_database_code               4003864
_shelx_shelxl_version_number     2018/3
_shelx_space_group_comment
;
The symmetry employed for this shelxl refinement is uniquely defined
by the following loop, which should always be used as a source of
symmetry information in preference to the above space-group names.
They are only intended as comments.
;
_shelx_estimated_absorpt_t_max   0.977
_shelx_estimated_absorpt_t_min   0.878
_olex2_refinement_description
;
;
_shelx_res_file
;
TITL HP46_0m in C2/m #12
    hp46_0m.res
    created by SHELXL-2018/3 at 18:31:11 on 23-Nov-2020
REM reset to C2/m #12
CELL 0.4335 15.1183 4.2228 7.7014 90 117.5625 90
ZERR 4 0.0068 0.0007 0.0012 0 0.0201 0
LATT 7
SYMM -X,+Y,-Z
SFAC Mg Sb
DISP Mg 0.0174 0.0133 41.1863
DISP Sb -2.274 0.6185 1763.9865
UNIT 12 8

L.S. 100
PLAN  1
SIZE 0.007 0.04 0.04
TEMP 0
CONF
MORE -1
fmap 2 53
acta
REM <olex2.extras>
REM <HklSrc "%.\\S018n019_0m.hkl">
REM </olex2.extras>

WGHT    0.200000
FVAR       0.17978
SB1   2    0.368106    1.000000    0.753982    10.50000    0.00947
SB2   2    0.605172    0.500000    0.776376    10.50000    0.00887
MG1   1    0.159088    1.000000    0.482974    10.50000    0.01213
MG4   1    0.758374    0.000000    0.841948    10.50000    0.00982
MG3   1    0.500000    0.500000    1.000000    10.25000    0.00742
MG2   1    0.500000    1.000000    0.500000    10.25000    0.03644
HKLF 4




REM  HP46_0m in C2/m #12
REM wR2 = 0.464741, GooF = S = 1.93314, Restrained GooF = 1.93314 for all data
REM R1 = 0.127221 for 246 Fo > 4sig(Fo) and 0.196004 for all 353 data
REM 15 parameters refined using 0 restraints

END

WGHT      0.2000      0.0000

REM Highest difference peak 12.387,  deepest hole -7.078,  1-sigma level  1.889
Q1    1   0.4266  1.0000  0.8116  10.50000  0.05   12.39
;
_shelx_res_checksum              44731
_shelx_hkl_file
;
   1  -1   0 58.0632 4.01545   1
  -1  -1   0 58.4630 4.53643   3
  -1  -1   0 58.0340 4.09070   1
   1  -1   0 59.9638 4.48965   3
  -1   1   0 55.7893 4.03988   2
  -1   1   0 60.2654 4.41181   3
   1   1   0 58.1548 4.61319   3
  -1   1   0 55.6738 3.94356   1
   1   1   0 59.0430 4.04209   2
   0  -2   0 5251.62 257.809   3
   0  -2   0 5490.70 257.143   1
   0   2   0 5235.73 257.360   2
   0   2   0 5458.19 257.148   1
  -2  -2   0 7.09585 2.71696   1
   2  -2   0 2.13320 2.37651   1
   2  -2   0 9.16213 3.56037   3
  -2  -2   0 6.22405 3.56185   3
  -2   2   0 -1.9167 2.27452   3
   2   2   0 5.00284 2.42954   1
  -2   2   0 3.25839 3.01828   2
   2   2   0 2.78466 2.61596   2
  -2   2   0 4.64019 2.59579   1
  -1  -3   0 17.6502 4.58451   1
   1  -3   0 15.3730 5.87843   3
   1  -3   0 19.3031 4.48555   1
  -1  -3   0 16.0590 5.26454   3
   1   3   0 20.0229 6.64795   3
  -1   3   0 21.5691 5.36033   2
  -1   3   0 23.6904 4.59094   1
   1   3   0 24.2539 5.38763   2
  -1   3   0 19.2639 5.92099   3
   1   3   0 17.2050 3.97255   1
  -3  -3   0 18.7329 6.74911   3
   3  -3   0 17.2285 5.06227   1
  -3   3   0 17.1584 6.03018   3
   3   3   0 21.4470 4.54469   1
   3   3   0 21.2695 5.92672   2
   5   3   0 6.30136 6.45157   2
  -5   3   0 2.26191 5.78936   3
   5   3   0 5.02743 4.29946   1
   0  -4   0 2050.85 101.125   1
   0  -4   0 1866.35 102.577   3
   0   4   0 2099.17 103.813   3
   0   4   0 2129.77 102.629   2
   0   4   0 1907.91 101.009   1
  -2  -4   0 -0.5856 6.76680   3
   2  -4   0 1.68620 8.12563   3
   2  -4   0 3.68978 5.94214   1
  -2  -4   0 -2.5856 6.26841   1
   2   4   0 -0.3491 5.11491   1
   2   4   0 2.72005 7.48753   2
  -2   4   0 6.38988 5.79167   1
   2   4   0 23.8067 8.96755   3
  -2   4   0 -0.3559 7.78434   2
  -2   4   0 16.2168 7.92940   3
  -4  -4   0 677.858 41.5041   3
   4  -4   0 697.573 39.1303   1
   4   4   0 674.209 39.1960   1
  -4   4   0 697.705 41.2803   3
   4   4   0 704.672 40.5188   2
   6   4   0 0.32070 6.05308   1
   6   4   0 -19.927 8.65102   2
   1  -5   0 3.15029 7.52090   1
  -1  -5   0 0.74206 7.80746   1
  -1   5   0 24.2282 11.3989   2
   1   5   0 -2.1863 12.1590   3
   1   5   0 17.6808 10.7856   2
  -1   5   0 1.99037 10.8922   3
   3  -5   0 16.9144 8.66077   1
  -3   5   0 23.3809 11.9843   3
   3   5   0 8.28709 12.1489   2
   5   5   0 16.0437 12.1737   2
   7   5   0 -4.2442 13.1867   2
   0   0  -1 10.9802 1.27198   3
   0   0   1 8.67937 1.11861   1
   0   0   1 9.62897 1.23005   2
   3  -1  -1 2066.22 93.1463   1
  -3  -1   1 1754.32 94.0722   3
   1  -1  -1 1193.83 53.1976   1
   1  -1  -1 1094.43 52.0398   3
  -1   1   1 966.149 51.8801   3
  -1   1   1 1110.00 53.2820   2
   1   1  -1 994.158 51.7039   1
  -1   1   1 1145.18 53.1207   1
   1   1  -1 999.294 51.7525   2
   1   1  -1 1144.27 53.8266   3
  -1  -1  -1 2462.44 116.547   1
   1   1   1 2444.50 116.448   1
   1   1   1 2409.41 116.600   2
  -1   1  -1 2281.06 116.899   3
   2  -2  -1 11.6833 3.02625   3
  -2  -2   1 3.69614 2.17813   1
   2  -2  -1 0.77164 1.83342   1
  -2  -2   1 3.81548 3.46686   3
  -2   2   1 4.15551 3.04543   2
   2   2  -1 5.17503 3.69281   3
  -2   2   1 5.06197 2.62330   1
   2   2  -1 7.12831 2.21723   2
   2   2  -1 5.02121 1.95136   1
  -2   2   1 6.56169 2.82467   3
   0  -2  -1 3.02121 2.00383   1
   0  -2   1 5.25262 3.49676   3
   0  -2   1 4.17358 1.93855   1
   0  -2  -1 10.5290 2.62088   3
   0   2  -1 5.99775 2.47956   2
   0   2  -1 4.69027 3.42244   3
   0   2   1 5.63922 2.96988   2
   0   2   1 7.51433 2.59318   1
   0   2   1 4.67418 3.30440   3
   0   2  -1 4.16372 2.18428   1
   2  -2   1 2.91426 3.74964   3
  -2  -2  -1 3.26290 2.76840   1
  -2   2  -1 4.11578 3.63836   3
   2   2   1 1.78380 3.44245   2
   2   2   1 2.63620 2.75102   1
   5  -3  -1 512.990 26.6028   1
  -5  -3   1 486.376 28.7942   3
   5   3  -1 410.647 25.5703   1
  -5   3   1 379.174 26.2990   3
   5   3  -1 434.503 26.4185   2
   3  -3  -1 824.543 44.0298   1
  -3  -3   1 810.825 45.7769   3
  -3   3   1 837.241 44.2408   3
   3   3  -1 829.912 46.4601   3
  -3   3   1 831.245 44.3977   1
  -3   3   1 837.971 45.2143   2
   3   3  -1 840.636 42.9901   1
   3   3  -1 812.906 43.1879   2
  -1  -3   1 447.750 23.4361   1
  -1  -3   1 435.922 25.5708   3
   1  -3  -1 409.388 24.3791   3
   1  -3  -1 408.402 24.0598   1
   1   3  -1 401.396 23.4587   2
  -1   3   1 431.408 25.1709   2
   1   3  -1 415.655 23.1275   1
   1   3  -1 414.981 25.8225   3
  -1   3   1 419.106 24.5424   3
  -1   3   1 380.626 23.8928   1
  -1  -3  -1 891.636 45.8757   1
   1  -3   1 886.224 47.4743   3
  -1  -3  -1 870.202 45.6838   3
   1  -3   1 899.504 44.3812   1
   1   3   1 834.782 45.3675   1
  -1   3  -1 822.540 45.0103   2
  -1   3  -1 820.784 46.7251   3
   1   3   1 836.886 45.9308   2
  -3  -3  -1 1955.59 97.4290   3
   3  -3   1 1902.98 95.1963   1
   3   3   1 1866.47 96.7186   1
   3   3   1 1997.99 97.6368   2
  -3   3  -1 1862.44 97.9482   3
   6  -4  -1 133.520 11.9812   1
  -6  -4   1 123.864 14.9634   3
  -6   4   1 134.946 14.5575   3
   6   4  -1 126.831 12.2842   1
   6   4  -1 137.464 14.3871   2
   4  -4  -1 112.233 11.3570   1
  -4  -4   1 98.5943 12.9985   3
   4   4  -1 92.1302 9.77738   1
  -4   4   1 97.1267 11.0582   1
  -4   4   1 109.235 12.4592   3
  -4   4   1 102.818 13.1689   2
   4   4  -1 110.035 11.7127   2
   4   4  -1 101.309 14.4542   3
  -2  -4   1 3.22481 6.09833   1
  -2  -4   1 5.55539 8.25795   3
   2  -4  -1 8.04306 6.13834   1
  -2   4   1 -1.1895 5.41423   1
  -2   4   1 19.2985 8.14388   3
   2   4  -1 3.70911 6.99391   2
   2   4  -1 6.70337 4.37702   1
   2   4  -1 6.99860 8.97231   3
  -2   4   1 24.5561 8.62281   2
   0  -4   1 1.84533 8.00061   3
   0  -4   1 2.30780 5.38911   1
   0  -4  -1 4.30295 6.12290   1
   0   4   1 16.3040 9.05581   3
   0   4  -1 6.62760 5.13071   1
   0   4  -1 0.81679 7.24819   2
   0   4   1 3.27253 4.79433   1
   0   4  -1 2.30300 8.24379   3
   0   4   1 25.1725 7.84549   2
   2  -4   1 -0.0749 8.69768   3
  -2  -4  -1 0.38583 6.96241   1
   2  -4   1 0.77417 5.79121   1
   2   4   1 2.49665 5.77411   1
   2   4   1 9.59494 7.79825   2
  -2   4  -1 -1.2045 7.81627   3
   4  -4   1 111.068 11.0730   1
   4   4   1 88.5646 10.9093   1
  -4   4  -1 98.8783 13.6652   3
  -7   5   1 180.090 19.4636   3
  -5   5   1 210.845 20.4475   3
  -3   5   1 339.254 26.3206   2
  -3   5   1 328.558 25.5667   3
  -1   5   1 191.110 19.8506   3
  -1   5   1 199.495 20.0321   2
   1   5   1 356.247 27.7093   2
   5   5   1 239.435 24.1080   2
   2   0  -2 58.4745 3.93192   1
  -2   0   2 57.4110 3.97047   1
  -2   0   2 59.0255 4.10157   2
   2   0  -2 58.3835 4.39124   3
  -2   0   2 56.8385 4.30053   3
   0   0   2 2890.06 132.836   1
   0   0  -2 2694.53 133.146   3
   0   0   2 2673.67 132.766   2
  -3  -1   2 1181.63 59.9080   3
   3  -1  -2 1230.33 58.9822   1
   3   1  -2 1171.68 59.9470   3
  -3   1   2 1249.28 59.1232   1
  -3   1   2 1085.53 59.0329   2
  -1  -1   2 3.03737 2.16192   3
   1  -1  -2 4.16417 1.72805   1
  -1   1   2 3.16918 1.82436   1
  -1   1   2 0.75767 1.57865   2
   1   1  -2 3.94159 2.21410   3
   1  -1   2 17.6646 3.45184   3
  -1  -1  -2 21.9150 3.38855   1
   1   1   2 17.7506 3.47729   2
   1   1   2 19.5270 3.23540   1
  -1   1  -2 19.6922 3.77291   3
  -2  -2   2 38.9843 5.57920   3
   2  -2  -2 39.8496 4.87594   1
   2   2  -2 38.3241 3.03299   1
  -2   2   2 37.5439 3.73914   3
   2   2  -2 37.3357 5.76646   3
   0  -2   2 2180.78 102.231   3
   0  -2   2 1868.12 98.0944   1
   0  -2  -2 2196.53 100.885   1
   0  -2  -2 1915.57 98.8677   3
   0   2  -2 2028.37 101.722   3
  -5  -3   2 228.095 18.3444   3
   5  -3  -2 219.855 16.1686   1
  -5   3   2 238.040 17.8787   2
   5   3  -2 236.110 14.7889   1
   5   3  -2 255.000 15.4342   2
  -5   3   2 225.345 16.6263   1
  -5   3   2 235.435 15.9651   3
  -3  -3   2 551.325 33.5549   3
   3  -3  -2 569.368 31.9877   1
  -3   3   2 600.018 30.8675   3
   3   3  -2 579.979 29.9566   2
  -3   3   2 550.543 32.0556   1
   3   3  -2 555.878 29.4676   1
  -3   3   2 549.814 32.9306   2
   1  -3  -2 0.82658 4.73692   1
   1  -3  -2 0.67744 4.13821   3
  -1  -3   2 1.59615 3.11456   1
  -1  -3   2 3.21731 6.31742   3
   1   3  -2 0.23507 3.14846   1
  -1   3   2 2.19892 4.35327   1
  -1   3   2 0.19511 5.97461   2
  -1   3   2 10.4628 5.35366   3
   1   3  -2 1.08300 3.73802   2
  -1  -3  -2 12.0700 5.25272   3
   1  -3   2 16.1551 4.32972   1
  -1  -3  -2 12.9966 5.66471   1
   1  -3   2 9.53383 7.01594   3
   1   3   2 7.97007 4.53525   1
   1   3   2 9.76873 6.27119   2
   3   3   2 13.3845 7.68810   2
   3   3   2 5.40429 5.01067   1
  -6   4   2 251.303 21.6958   2
   6   4  -2 250.385 18.5691   2
   6   4  -2 238.152 22.9817   3
   6   4  -2 312.893 23.1074   1
  -6   4   2 253.346 19.6419   3
   4  -4  -2 748.392 43.2551   1
  -4   4   2 759.145 42.7015   3
   4   4  -2 754.062 46.5208   3
  -4   4   2 769.589 45.2590   2
   4   4  -2 798.069 41.9332   2
  -2  -4   2 12.4085 9.03282   3
   2  -4  -2 15.9850 6.96033   1
  -2  -4   2 16.7546 6.00219   1
   2   4  -2 16.9790 7.29002   2
  -2   4   2 19.8273 9.26997   2
  -2   4   2 22.0971 5.80855   1
   2   4  -2 18.2506 9.40108   3
  -2   4   2 11.5063 8.39244   3
   2   4  -2 24.6298 7.51400   1
   0  -4   2 733.464 37.5422   1
   0  -4   2 676.408 46.6440   3
   0  -4  -2 672.169 39.8752   1
   0   4  -2 737.614 42.9071   3
   0   4   2 768.602 42.4992   2
   0   4   2 617.939 39.1574   1
   2  -4   2 28.0342 6.68310   1
   2   4   2 23.0664 10.1298   2
  -2   4  -2 21.6205 9.32926   3
   4   4   2 872.238 51.6670   2
  -5   5   2 79.5114 16.5815   2
  -3   5   2 231.523 22.6518   2
  -1   5   2 6.88663 12.6100   2
   1   5   2 5.33565 13.6330   2
   3   5   2 13.6039 14.7352   2
   5   5   2 2.96116 14.5027   2
  -4   6   2 302.452 29.6027   2
  -2   6   2 11.0054 15.8205   2
   0   6   2 362.906 31.9522   2
   2   6   2 -1.9605 16.9801   2
   4   6   2 373.197 34.5009   2
   6   6   2 1.69287 19.4413   2
  -4   0   3 775.479 41.2640   3
   4   0  -3 829.420 40.6378   1
   4   0  -3 808.564 41.7724   3
  -2   0   3 16.7264 3.00084   3
   2   0  -3 17.9659 2.97565   3
   2   0  -3 18.1110 2.51413   1
  -2   0   3 10.0359 2.04389   2
   0   0   3 565.240 29.8430   2
   5  -1  -3 140.107 10.0979   1
  -5  -1   3 137.449 11.2210   3
  -5   1   3 145.892 10.2714   1
  -5   1   3 137.253 10.5129   2
   5   1  -3 159.734 11.7103   3
   3  -1  -3 2960.21 140.973   1
  -3  -1   3 2916.96 142.027   3
   3   1  -3 2974.78 138.618   1
  -3   1   3 2721.73 138.781   3
  -3   1   3 2847.36 141.372   2
   3   1  -3 2902.64 142.134   3
  -3   1   3 2980.30 141.082   1
  -1  -1   3 920.254 45.1742   1
  -1  -1   3 884.941 47.9860   3
  -1  -1   3 935.562 45.2770   2
   1  -1  -3 925.328 47.1216   1
  -1   1   3 902.570 47.4382   2
  -1   1   3 961.542 47.4236   1
   1   1  -3 920.279 48.1702   3
   1   1   3 1509.42 74.7759   1
  -1   1  -3 1431.07 75.6749   3
   1   1   3 1506.12 75.2215   2
   6  -2  -3 188.036 13.9731   1
  -6   2   3 215.908 14.8063   1
  -6   2   3 213.376 15.6185   2
   6   2  -3 214.908 16.6603   3
   4  -2  -3 507.901 28.4619   1
   4   2  -3 523.827 30.3034   3
  -4   2   3 501.326 29.2874   2
  -4   2   3 508.393 28.6746   1
   2  -2  -3 9.56205 3.80843   1
  -2   2   3 9.74634 3.54780   1
  -2   2   3 10.5394 4.61298   2
   2   2  -3 10.5190 4.86673   3
   0  -2  -3 534.379 29.7749   1
   0   2   3 502.448 30.0329   2
   0   2  -3 544.490 31.1668   3
   0   2   3 529.792 29.8041   1
   2   2   3 18.8265 5.47594   2
  -2   2  -3 21.8583 6.18384   3
   2   2   3 17.1165 5.10907   1
  -7  -3   3 598.547 36.3359   3
  -7   3   3 585.016 35.5186   2
   7   3  -3 550.543 36.3438   3
  -7   3   3 572.560 33.9177   1
  -5  -3   3 98.9270 11.6442   3
  -5   3   3 101.530 10.1550   1
   5   3  -3 73.7033 6.46874   1
   5   3  -3 75.8630 6.75135   2
   5   3  -3 103.274 12.2741   3
  -5   3   3 100.434 11.3975   2
  -5   3   3 94.0622 7.80620   3
  -3  -3   3 1700.54 88.6944   3
  -3   3   3 1645.55 86.9374   1
   3   3  -3 1739.40 89.2581   3
  -3   3   3 1757.22 88.3186   2
   1  -3  -3 432.995 28.7404   1
  -1  -3   3 439.451 25.6984   1
  -1  -3   3 559.229 32.1761   3
  -1   3   3 567.959 31.5048   2
   1   3  -3 547.220 32.0517   3
  -1   3   3 543.244 30.0957   1
  -1  -3  -3 831.589 48.9936   1
   1  -3   3 869.206 51.1038   3
   1  -3   3 854.701 45.9686   1
  -1   3  -3 980.446 51.5833   3
   1   3   3 947.105 49.7920   1
   1   3   3 981.197 50.8777   2
  -3   3  -3 1.80433 6.90474   3
   3   3   3 2.37104 5.60323   1
   3   3   3 -1.1546 8.26499   2
  -8   4   3 4.17927 8.42431   3
  -6   4   3 94.8613 14.2905   2
  -6   4   3 106.363 11.4950   3
  -4   4   3 227.993 19.9983   2
  -4   4   3 223.860 16.1251   3
  -2  -4   3 0.19913 4.42385   1
  -2   4   3 4.85989 9.96937   2
   0  -4   3 197.851 14.0607   1
   0   4   3 238.925 19.9872   2
   2   4   3 25.5149 12.1799   2
   4   4   3 0.05074 11.9415   2
  -7   5   3 223.256 24.1852   2
  -5   5   3 79.2686 15.4210   2
  -3   5   3 584.301 39.2064   2
  -1   5   3 206.383 20.7614   2
   1   5   3 342.694 28.0680   2
   3   5   3 167.322 20.1575   2
   5   5   3 10.7528 14.0205   2
  -6   6   3 50.6392 19.5706   2
  -4   6   3 92.8554 20.4389   2
  -2   6   3 6.75151 19.3391   2
   0   6   3 87.8879 21.2632   2
   2   6   3 14.1840 20.3079   2
   4   6   3 5.05820 19.0731   2
  -6   0   4 0.47373 3.65467   3
   6   0  -4 15.8178 3.58246   1
  -4   0   4 1140.40 58.7198   2
   4   0  -4 1138.99 59.3893   3
   4   0  -4 1206.35 58.3575   1
  -4   0   4 1187.68 58.4953   1
  -2   0   4 420.358 21.7468   1
  -2   0   4 322.573 21.7223   3
   2   0  -4 396.314 22.4780   3
  -2   0   4 391.653 21.7706   2
   2   0  -4 415.516 21.6400   1
   0   0   4 2338.24 116.528   2
   0   0   4 2382.94 116.207   1
   0   0  -4 2377.05 117.526   3
   7  -1  -4 918.376 48.6380   1
  -7  -1   4 985.200 51.0400   3
   7   1  -4 924.944 51.1507   3
  -7   1   4 879.974 49.4809   2
  -7   1   4 948.206 49.0680   1
   5  -1  -4 140.594 10.2788   1
  -5  -1   4 133.328 11.2224   3
  -5   1   4 124.291 10.4232   2
  -5   1   4 138.085 9.12496   3
   5   1  -4 132.487 11.4023   3
  -5   1   4 135.967 10.2057   1
  -3  -1   4 719.612 35.1081   1
  -3  -1   4 676.331 38.1251   3
   3  -1  -4 750.003 35.7958   3
  -3  -1   4 716.741 35.2740   2
   3  -1  -4 711.563 37.2506   1
  -3   1   4 683.543 37.2232   1
  -3   1   4 718.394 35.7330   3
   3   1  -4 681.797 38.5444   3
   3   1  -4 667.091 35.1235   1
  -3   1   4 698.795 37.9097   2
   1  -1  -4 61.1987 5.97372   3
  -1  -1   4 60.5668 7.72191   3
   1  -1  -4 63.3690 6.60268   1
  -1  -1   4 55.1997 4.87938   1
  -1  -1   4 56.8405 5.28406   2
  -1   1   4 48.9291 6.56765   2
   1   1  -4 57.3992 7.24583   3
  -1   1   4 56.6877 6.33308   1
   1   1   4 -0.7378 4.37444   2
   1   1   4 1.28757 3.57053   1
  -1   1  -4 -1.0937 4.46759   3
  -8  -2   4 233.950 18.3104   3
   8  -2  -4 207.460 15.4700   1
   8   2  -4 224.496 18.4425   3
  -8   2   4 222.999 17.3551   2
   6  -2  -4 12.4614 4.98941   1
  -6  -2   4 24.4031 6.69321   3
  -6   2   4 13.3978 5.96721   2
   6   2  -4 20.4352 6.42683   3
  -6   2   4 12.6653 5.17832   1
  -4  -2   4 842.383 45.5415   3
   4  -2  -4 838.085 43.9447   1
  -4   2   4 797.887 44.7727   2
  -4   2   4 824.958 44.1590   1
   4   2  -4 800.720 45.5557   3
  -2  -2   4 263.979 18.4331   3
   2  -2  -4 253.939 16.8022   1
  -2   2   4 251.924 17.7664   2
   2   2  -4 260.646 18.3483   3
  -2   2   4 240.438 16.8065   1
   0  -2  -4 1774.94 89.6550   1
   0   2  -4 1818.94 91.1770   3
   0   2   4 1723.87 90.0880   2
   0   2   4 1734.89 89.4856   1
   2   2   4 -5.3377 5.62985   2
  -2   2  -4 8.84894 5.92901   3
   2   2   4 -1.0928 4.57821   1
  -7   3   4 9999.99 478.235   3
   5  -3  -4 58.9132 8.59173   1
  -5  -3   4 57.6093 10.1095   3
   5   3  -4 68.5159 11.1608   3
   1   3  -4 33.3834 9.08950   3
   1   3   4 7.99917 6.73383   2
   3   3   4 -12.482 7.59518   2
  -8   4   4 147.393 18.9975   2
  -8   4   4 183.703 17.7268   3
  -6   4   4 2.07443 5.68265   3
  -6   4   4 1.06905 10.3661   2
  -4   4   4 500.731 33.9085   2
  -2   4   4 143.650 17.3257   2
   0   4   4 1099.81 62.6358   2
   2   4   4 3.85794 12.8276   2
  -7   5   4 272.557 26.8855   2
  -5   5   4 14.4427 14.6103   2
  -3   5   4 187.029 22.6438   2
  -1   5   4 13.1975 15.4401   2
   1   5   4 5.80917 15.3484   2
   3   5   4 15.3894 16.6894   2
  -6   6   4 -4.4853 18.0422   2
  -4   6   4 193.864 26.7763   2
  -2   6   4 36.7880 21.5962   2
   0   6   4 373.232 36.0049   2
   2   6   4 -6.0139 20.1200   2
   8   0  -5 1414.59 70.8943   1
  -8   0   5 1379.96 72.5650   3
  -6   0   5 724.102 40.2408   3
  -6   0   5 743.158 39.3400   1
  -6   0   5 735.794 39.8519   2
   6   0  -5 763.680 39.0909   1
  -4   0   5 660.191 35.5957   2
   4   0  -5 676.137 35.0312   1
  -4   0   5 646.312 34.9631   1
  -4   0   5 660.815 36.0861   3
  -2   0   5 165.101 11.5838   1
   2   0  -5 161.591 11.6509   1
  -2   0   5 159.646 11.9473   2
  -2   0   5 145.373 12.2931   3
   0   0  -5 7.51409 4.81747   3
   0   0   5 33.6499 5.30162   1
   9  -1  -5 24.0471 5.95317   1
  -9  -1   5 27.9827 8.50697   3
   7  -1  -5 731.147 39.1755   1
  -7  -1   5 699.008 40.7326   3
  -7   1   5 722.323 39.2360   1
   7   1  -5 729.547 37.2638   1
  -7   1   5 718.625 38.2921   3
   7   1  -5 698.976 41.3222   3
  -5  -1   5 7.95544 5.35062   3
  -5  -1   5 12.0893 3.28186   1
   5  -1  -5 7.03181 4.53589   1
   5  -1  -5 3.05239 4.69303   3
   5   1  -5 6.38347 5.04629   3
   5   1  -5 3.70495 2.95855   1
  -5   1   5 16.8548 4.50989   2
  -5   1   5 13.8473 4.25341   1
  -5   1   5 4.05239 4.21199   3
  -3  -1   5 310.798 16.6676   1
  -3  -1   5 264.681 16.5463   2
   3  -1  -5 306.623 17.6060   3
  -3  -1   5 302.351 20.1610   3
   3  -1  -5 319.822 18.9582   1
  -3   1   5 290.359 19.1581   2
  -3   1   5 293.664 18.7838   1
   3   1  -5 286.852 20.1092   3
   1  -1  -5 201.081 14.5487   1
   1  -1  -5 206.083 14.0031   3
  -1  -1   5 183.981 15.3309   3
  -1  -1   5 190.739 12.4861   2
  -1  -1   5 200.431 12.3386   1
  -1   1   5 190.259 14.5069   2
   1   1  -5 185.238 15.3215   3
  -1   1   5 195.670 14.2820   1
  -1   1  -5 -0.3035 5.20106   3
   1   1   5 -0.0429 4.14296   1
  -8  -2   5 940.561 52.6586   3
   8  -2  -5 899.625 49.6872   1
  -8   2   5 902.529 50.2377   1
   8   2  -5 934.385 53.1075   3
  -8   2   5 947.332 51.6497   2
  -6  -2   5 521.308 32.0953   3
   6  -2  -5 500.491 29.8014   1
   6   2  -5 503.333 32.0211   3
  -6   2   5 518.626 30.2761   1
   4  -2  -5 455.757 26.4612   1
  -4  -2   5 460.467 28.4358   3
  -4   2   5 465.312 27.0445   1
  -4   2   5 397.829 27.3896   2
   4   2  -5 436.726 28.6174   3
  -2  -2   5 106.724 12.5868   3
  -2  -2   5 115.189 6.98512   1
  -2  -2   5 120.015 7.23535   2
   2  -2  -5 102.275 9.99848   1
  -2   2   5 87.9360 11.0949   2
  -2   2   5 108.998 10.7184   1
   2   2  -5 104.623 11.9901   3
   0  -2  -5 157.515 14.3621   1
   0  -2   5 209.907 17.5363   3
   0   2   5 218.301 16.0210   1
   0   2  -5 199.165 17.1586   3
   0   2   5 223.880 17.2208   2
   2   2   5 -1.9919 6.49915   2
  -9   3   5 13.3082 10.5208   2
  -7   3   5 365.394 26.1370   2
  -5   3   5 7.90595 9.17539   2
  -3   3   5 208.394 18.6830   2
  -1   3   5 127.771 14.8375   2
   1   3   5 730.155 44.4846   2
  -8   4   5 428.848 31.9050   2
  -6   4   5 254.105 23.2806   2
  -4   4   5 253.884 23.2695   2
  -2   4   5 66.9912 15.2416   2
   0   4   5 122.879 17.9370   2
   2   4   5 -0.8346 13.6536   2
  -9   5   5 -1.5692 16.2721   2
  -7   5   5 215.802 25.3103   2
  -5   5   5 1.12006 15.9968   2
  -3   5   5 152.480 22.1768   2
  -1   5   5 74.5041 19.5342   2
   1   5   5 467.865 37.7426   2
   3   5   5 -0.3077 17.5654   2
  -6   6   5 146.384 24.0115   2
  -4   6   5 162.912 25.2435   2
  -2   6   5 80.3164 21.7651   2
 -10   0   6 52.6117 9.98636   3
  -8   0   6 9.64088 7.22350   3
  -8   0   6 6.70884 5.31327   1
  -8   0   6 12.0174 7.03032   2
   8   0  -6 11.0297 7.90651   3
  -6   0   6 250.122 17.6568   3
  -6   0   6 253.461 16.6072   1
  -6   0   6 247.836 17.2524   2
   6   0  -6 251.465 18.2248   3
  -4   0   6 719.356 40.5213   3
  -4   0   6 735.481 39.8550   2
  -4   0   6 723.601 38.9607   1
   4   0  -6 705.789 40.5333   3
  -2   0   6 328.501 20.8190   1
  -2   0   6 330.181 21.4840   2
   2   0  -6 329.145 22.3487   3
   0   0   6 0.01109 6.35474   2
   0   0   6 -0.1771 4.44495   1
   0   0  -6 0.33572 5.98004   3
   9  -1  -6 20.6699 6.92132   1
  -9  -1   6 38.2326 8.75212   3
  -9   1   6 27.9647 8.91189   2
  -9   1   6 29.8365 7.31379   3
   9   1  -6 15.0515 5.47111   1
   9   1  -6 16.0247 8.75678   3
  -9   1   6 12.7071 6.77663   1
   7  -1  -6 1368.22 71.8757   1
  -7  -1   6 1418.53 73.9300   3
  -7   1   6 1387.34 73.1926   2
  -7   1   6 1442.25 71.0471   3
  -7   1   6 1410.58 72.4171   1
   7   1  -6 1348.21 74.3396   3
  -5  -1   6 99.3772 9.09758   2
  -5  -1   6 112.148 8.69066   1
  -5  -1   6 102.716 11.5314   3
   5  -1  -6 110.628 10.0083   3
   5  -1  -6 95.5447 10.0308   1
   5   1  -6 94.5261 8.23458   1
   5   1  -6 95.9441 11.5842   3
  -5   1   6 102.812 11.2159   2
  -5   1   6 97.1156 10.0136   1
  -5   1   6 101.905 9.80289   3
  -3  -1   6 964.403 47.6546   2
  -3  -1   6 934.311 51.0932   3
  -3  -1   6 929.832 47.1233   1
   3  -1  -6 917.188 49.0260   1
   3  -1  -6 933.076 48.4419   3
   3   1  -6 853.591 50.9083   3
  -3   1   6 876.800 50.0835   2
  -3   1   6 873.133 49.2027   1
  -1  -1   6 56.5834 6.77410   1
   1  -1  -6 59.1860 8.54000   3
  -1  -1   6 67.1146 8.02996   2
   1   1  -6 53.8741 9.31748   3
  -1   1   6 53.6120 7.95917   1
  -1   1   6 47.1569 8.97067   2
   1   1   6 -0.0314 5.06886   1
  -1   1  -6 1.37678 5.96073   3
   1   1   6 4.75097 7.15899   2
 -10   2   6 39.4889 10.0426   2
  -8   2   6 10.9731 4.88231   3
  -8   2   6 10.4438 8.40488   2
  -6  -2   6 217.010 22.2528   3
  -6   2   6 166.852 14.8250   1
  -6   2   6 165.516 16.0653   2
  -4  -2   6 526.325 25.9939   2
  -4   2   6 470.331 31.3586   1
  -4   2   6 490.720 31.9661   2
  -2  -2   6 200.457 12.6591   1
  -2  -2   6 217.896 13.2015   2
  -2   2   6 225.953 18.3797   2
   0   2   6 210.485 18.5221   2
  -9   3   6 2.35798 10.8970   2
  -7   3   6 784.171 46.9531   2
  -5   3   6 45.9362 12.2045   2
  -3   3   6 547.414 35.7629   2
  -1   3   6 33.3542 11.7303   2
   1   3   6 43.9944 13.4553   2
  -8   4   6 -24.349 10.4418   2
  -6   4   6 32.9733 12.6615   2
  -4   4   6 230.055 20.8874   2
  -2   4   6 132.580 16.7783   2
   0   4   6 176.480 19.8752   2
   2   4   6 33.2218 14.9759   2
  -9   5   6 0.46475 17.2019   2
  -7   5   6 397.964 34.0543   2
  -5   5   6 15.3315 19.0100   2
  -3   5   6 282.737 30.0980   2
  -1   5   6 19.9678 19.1133   2
   1   5   6 131.660 23.9753   2
 -10   0   7 691.654 40.5153   3
  10   0  -7 661.884 38.0390   1
   8   0  -7 334.399 24.3833   3
   8   0  -7 338.287 21.5842   1
  -8   0   7 329.209 22.4857   2
  -8   0   7 325.357 22.9951   3
   6   0  -7 270.058 18.3432   1
   6   0  -7 248.891 19.8076   3
  -6   0   7 274.212 18.7993   2
  -6   0   7 293.108 20.5684   3
  -4   0   7 587.924 38.5937   2
   4   0  -7 736.673 41.2534   3
  -4   0   7 731.054 40.8449   3
   4   0  -7 714.306 38.8412   1
   2   0  -7 108.133 12.4177   3
  -2   0   7 81.4022 9.99964   2
  -2   0   7 77.4775 8.81454   1
   0   0   7 -14.478 5.45309   2
   0   0  -7 2.07751 6.84919   3
   0   0   7 11.5400 5.39846   1
 -11  -1   7 13.9807 9.98859   3
 -11   1   7 22.1533 9.34484   3
  11   1  -7 14.4599 6.28521   1
   9  -1  -7 51.9025 8.83007   1
  -9  -1   7 45.2425 10.8280   3
  -9   1   7 37.0008 8.16999   1
   9   1  -7 60.7219 10.8268   3
  -9   1   7 38.6933 10.3452   2
  -9   1   7 42.2761 9.32670   3
   9   1  -7 36.1954 6.54925   1
  -7  -1   7 120.379 11.7413   2
  -7  -1   7 121.655 10.5792   1
  -7  -1   7 116.091 13.7506   3
   7  -1  -7 105.691 11.7394   1
  -7   1   7 116.881 11.8350   3
  -7   1   7 112.403 11.7843   1
   7   1  -7 101.468 9.39854   1
   7   1  -7 125.762 13.5492   3
  -7   1   7 118.212 13.6419   2
  -5  -1   7 2.28758 6.23512   2
  -5  -1   7 5.36537 9.23581   3
   5  -1  -7 3.54260 7.35576   1
  -5  -1   7 4.15360 4.92511   1
  -5   1   7 6.92686 6.50039   1
  -5   1   7 6.91756 6.86806   3
  -5   1   7 12.8952 8.34300   2
   5   1  -7 20.0848 8.16903   3
   5   1  -7 5.60092 5.32158   1
  -3  -1   7 463.247 30.7840   3
  -3  -1   7 450.735 26.6634   1
   3  -1  -7 448.838 28.6909   1
  -3  -1   7 497.201 27.7483   2
   3   1  -7 462.319 31.0982   3
  -3   1   7 425.035 28.5647   1
  -3   1   7 481.127 30.7503   2
  -1  -1   7 99.4675 10.8788   2
  -1  -1   7 88.4983 9.29357   1
  -1   1   7 108.619 13.5940   2
 -10   2   7 491.029 32.4485   2
 -10   2   7 473.987 27.7923   3
  -8   2   7 265.735 20.7569   2
  -8   2   7 220.105 14.7825   3
  -6   2   7 236.045 20.3935   2
  -4   2   7 594.024 37.8393   2
  -2   2   7 111.175 14.4963   2
   0   2   7 121.062 15.7253   2
 -11   3   7 3.57682 13.4525   2
  -9   3   7 14.5084 11.4932   2
  -7   3   7 79.5090 15.8233   2
  -5   3   7 10.9082 12.7862   2
  -3   3   7 279.138 25.1013   2
  -1   3   7 62.0779 15.3270   2
   1   3   7 -2.8856 13.2980   2
 -10   4   7 269.915 26.8403   2
  -8   4   7 152.095 21.2597   2
  -6   4   7 127.895 21.0325   2
  -4   4   7 298.289 28.7070   2
  -2   4   7 70.5479 19.4792   2
   0   4   7 166.024 23.3324   2
 -11   5   7 4.29058 18.5431   2
  -9   5   7 8.84908 18.1017   2
  -7   5   7 29.6039 19.3270   2
  -5   5   7 -4.7764 19.9266   2
  -3   5   7 157.497 25.7262   2
  -1   5   7 49.7313 22.4607   2
 -12   0   8 49.0579 11.4525   3
  12   0  -8 71.5802 10.6645   1
  10   0  -8 5.80954 7.61965   1
 -10   0   8 -20.851 8.17457   3
   8   0  -8 2.61976 9.72772   3
   8   0  -8 2.73340 7.39750   1
  -8   0   8 2.94542 9.06449   2
  -8   0   8 -3.3881 6.62593   1
  -8   0   8 -13.583 8.07313   3
   6   0  -8 -3.6144 6.46474   1
   6   0  -8 0.03040 8.77553   3
  -6   0   8 6.72271 6.66981   1
  -6   0   8 4.79662 9.01471   2
  -6   0   8 -2.9313 8.69383   3
  -4   0   8 65.2600 11.9961   2
  -4   0   8 63.3865 9.56900   1
   4   0  -8 61.8868 11.7672   3
  -2   0   8 120.752 14.3703   2
  -2   0   8 107.697 11.8743   1
 -11   1   8 733.008 45.8281   2
 -11   1   8 737.377 43.0112   3
  -9   1   8 14.5471 11.5356   2
  -9   1   8 12.3679 9.38234   3
  -7  -1   8 929.198 49.6301   2
  -7  -1   8 860.462 48.2853   1
  -7   1   8 897.014 49.9794   3
  -7   1   8 932.253 52.8610   2
  -5  -1   8 11.2676 6.10492   1
  -5  -1   8 21.1817 8.25075   2
  -5   1   8 19.4947 11.0693   2
  -3  -1   8 390.826 25.0380   2
  -3  -1   8 353.815 23.5303   1
  -3   1   8 401.690 28.9290   2
  -1  -1   8 3.80164 6.00645   1
  -1  -1   8 3.11641 8.37987   2
  -1   1   8 51.9695 12.6700   2
 -12   2   8 48.0230 15.4146   2
 -10   2   8 -1.2250 13.5878   2
  -8   2   8 -3.7693 12.6895   2
  -6   2   8 -2.1893 12.2626   2
  -4   2   8 47.2991 14.6986   2
  -2   2   8 84.8018 15.9288   2
   0   2   8 3.71167 12.7081   2
 -11   3   8 518.118 38.0448   2
  -9   3   8 29.3748 14.8279   2
  -7   3   8 652.522 44.1603   2
  -5   3   8 54.8487 15.8836   2
  -3   3   8 321.089 28.2684   2
  -1   3   8 67.0939 15.9688   2
 -12   4   8 9.38315 18.5486   2
 -10   4   8 -2.1286 18.1707   2
  -8   4   8 -3.7057 17.2950   2
  -6   4   8 -7.0319 17.9591   2
  -4   4   8 44.2119 20.2406   2
  -2   4   8 55.4593 21.5064   2
   0   4   8 -4.2939 19.0864   2
  -7   5   8 321.916 32.3056   2
 -12   0   9 167.788 18.9000   3
  10   0  -9 655.647 38.6077   1
 -10   0   9 627.528 38.7841   1
 -10   0   9 653.158 40.5905   3
 -10   0   9 642.678 40.9272   2
  -8   0   9 250.489 21.7665   2
  -8   0   9 241.281 19.3400   1
  -8   0   9 243.526 21.9783   3
   8   0  -9 263.396 20.2867   1
  -6   0   9 346.812 25.4109   2
  -6   0   9 306.169 24.7676   3
   6   0  -9 284.882 22.8089   1
  -6   0   9 299.273 22.3069   1
  -4   0   9 403.919 29.6415   2
  -2   0   9 269.859 22.7751   2
 -13   1   9 13.9753 12.0842   3
 -11   1   9 33.6342 12.0189   3
 -11   1   9 -30.788 11.3568   2
  -9   1   9 31.9283 11.7121   3
  -7   1   9 6.04340 9.72981   3
 -12   2   9 150.975 21.4230   2
 -10   2   9 538.442 38.8031   2
  -8   2   9 225.109 24.6897   2
  -6   2   9 318.681 29.1245   2
  -4   2   9 314.107 28.7096   2
  -2   2   9 255.463 25.6099   2
   0   2   9 9.19445 14.6711   2
 -13   3   9 30.8485 18.6011   2
 -11   3   9 22.4024 18.4916   2
  -9   3   9 6.10305 17.1049   2
  -7   3   9 13.2104 18.1909   2
  -5   3   9 1.81867 17.9679   2
  -3   3   9 15.6323 18.3417   2
  -1   3   9 5.46314 17.5019   2
 -12   4   9 94.2685 24.0468   2
 -10   4   9 328.042 33.6126   2
  -8   4   9 130.714 25.2502   2
  -6   4   9 179.712 28.4192   2
  -4   4   9 192.948 28.6459   2
  -2   4   9 153.353 27.7377   2
 -10   0  10 43.4714 14.6811   2
  -8   0  10 0.34814 12.4304   2
  -6   0  10 42.4411 14.3174   2
  -4   0  10 9.39985 14.1498   2
  -2   0  10 -0.9956 12.4436   2
 -11   1  10 239.760 25.7555   2
  -9   1  10 5.29208 15.9110   2
  -7   1  10 599.361 41.9703   2
  -5   1  10 3.99915 16.4816   2
  -3   1  10 355.657 30.0854   2
  -1   1  10 3.02755 13.2262   2
 -12   2  10 16.7509 19.6154   2
 -10   2  10 30.4133 18.4497   2
  -8   2  10 -1.7509 18.0003   2
  -6   2  10 34.6123 19.8955   2
  -4   2  10 8.67168 19.1913   2
  -2   2  10 4.80683 16.7811   2
 -13   3  10 63.2520 22.9653   2
 -11   3  10 202.337 29.6586   2
  -9   3  10 17.3390 21.9425   2
  -7   3  10 437.373 38.4976   2
  -5   3  10 -5.8444 20.3468   2
  -3   3  10 255.873 30.1483   2
 -13   1  11 22.4276 19.1671   2
 -11   1  11 61.4272 19.1344   2
  -9   1  11 -2.4700 18.0668   2
  -7   1  11 27.1331 19.6449   2
  -5   1  11 -10.499 18.1836   2
  -3   1  11 23.2476 18.5409   2
 -12   2  11 30.7307 18.9459   2
 -10   2  11 358.292 32.3638   2
  -8   2  11 137.655 23.6649   2
  -6   2  11 257.204 29.0204   2
  -4   2  11 149.594 24.0424   2
 -11   1  12 220.374 28.3050   2
   0   0   0    0.00    0.00   0

 _exptl_absorpt_process_details
)
 SADABS 2016/2: Krause, L., Herbst-Irmer, R., Sheldrick G.M. & Stalke D.,
 J. Appl. Cryst. 48 (2015) 3-10
)
 _exptl_absorpt_correction_type   multi-scan
 _exptl_absorpt_correction_T_max  0.7444
 _exptl_absorpt_correction_T_min  0.4456
 _exptl_special_details
)
 The following wavelength and cell were deduced by SADABS from the
 direction cosines etc. They are given here for emergency use only:
 CELL 0.43318   15.117    4.218    7.693   89.938  117.392   90.021
)
;
_shelx_hkl_checksum              23793
_olex2_submission_special_instructions 'No special instructions were received'
_publcif_funding_html
;
;
loop_
_space_group_symop_operation_xyz
'x, y, z'
'-x, y, -z'
'x+1/2, y+1/2, z'
'-x+1/2, y+1/2, -z'
'-x, -y, -z'
'x, -y, z'
'-x+1/2, -y+1/2, -z'
'x+1/2, -y+1/2, z'
loop_
_atom_site_label
_atom_site_type_symbol
_atom_site_fract_x
_atom_site_fract_y
_atom_site_fract_z
_atom_site_U_iso_or_equiv
_atom_site_adp_type
_atom_site_occupancy
_atom_site_site_symmetry_order
_atom_site_calc_flag
_atom_site_refinement_flags_posn
_atom_site_refinement_flags_adp
_atom_site_refinement_flags_occupancy
_atom_site_disorder_assembly
_atom_site_disorder_group
Sb1 Sb 0.3681(7) 1.000000 0.7540(6) 0.0095(13) Uiso 1 2 d S . P . .
Sb2 Sb 0.6052(6) 0.500000 0.7764(6) 0.0089(13) Uiso 1 2 d S . P . .
Mg1 Mg 0.159(3) 1.000000 0.483(3) 0.012(4) Uiso 1 2 d S . P . .
Mg4 Mg 0.758(3) 0.000000 0.842(3) 0.010(4) Uiso 1 2 d S . P . .
Mg3 Mg 0.500000 0.500000 1.000000 0.007(5) Uiso 1 4 d S . P . .
Mg2 Mg 0.500000 1.000000 0.500000 0.036(9) Uiso 1 4 d S . P . .
loop_
_atom_type_symbol
_atom_type_description
_atom_type_scat_dispersion_real
_atom_type_scat_dispersion_imag
_atom_type_scat_source
Mg Mg 0.0174 0.0133 'International Tables Vol C Tables 4.2.6.8 and 6.1.1.4'
Sb Sb -2.2740 0.6185 'International Tables Vol C Tables 4.2.6.8 and 6.1.1.4'
loop_
_geom_angle_atom_site_label_1
_geom_angle_atom_site_label_2
_geom_angle_atom_site_label_3
_geom_angle
_geom_angle_site_symmetry_1
_geom_angle_site_symmetry_3
_geom_angle_publ_flag
Mg1 Sb1 Mg1 103.2(6) 7_566 7_576 ?
Mg1 Sb1 Mg1 74.7(11) 7_566 . ?
Mg1 Sb1 Mg1 74.7(11) 7_576 . ?
Mg1 Sb1 Mg4 70.7(7) 7_566 3_455 ?
Mg1 Sb1 Mg4 142.2(13) 7_576 3_455 ?
Mg1 Sb1 Mg4 142.2(13) 7_566 3_465 ?
Mg1 Sb1 Mg4 67.7(7) . 3_455 ?
Mg1 Sb1 Mg4 70.7(7) 7_576 3_465 ?
Mg1 Sb1 Mg4 67.7(7) . 3_465 ?
Mg1 Sb1 Mg3 131.55(19) . . ?
Mg1 Sb1 Mg3 73.6(6) 7_566 . ?
Mg1 Sb1 Mg3 131.55(19) . 1_565 ?
Mg1 Sb1 Mg3 148.2(10) 7_576 . ?
Mg1 Sb1 Mg3 73.6(6) 7_576 1_565 ?
Mg1 Sb1 Mg3 148.2(10) 7_566 1_565 ?
Mg1 Sb1 Mg2 109.0(5) . . ?
Mg1 Sb1 Mg2 63.5(7) 7_566 . ?
Mg1 Sb1 Mg2 63.5(7) 7_576 . ?
Mg4 Sb1 Mg4 91.4(11) 3_455 3_465 ?
Mg4 Sb1 Mg2 132.7(4) 3_455 . ?
Mg4 Sb1 Mg2 132.7(4) 3_465 . ?
Mg3 Sb1 Mg4 131.0(4) . 3_465 ?
Mg3 Sb1 Mg4 67.8(7) 1_565 3_465 ?
Mg3 Sb1 Mg4 67.8(7) . 3_455 ?
Mg3 Sb1 Mg4 131.0(4) 1_565 3_455 ?
Mg3 Sb1 Mg3 92.6(2) 1_565 . ?
Mg3 Sb1 Mg2 88.10(19) . . ?
Mg3 Sb1 Mg2 88.10(19) 1_565 . ?
Mg1 Sb2 Mg4 68.7(6) 3_545 1_565 ?
Mg1 Sb2 Mg4 122.0(13) 3_545 7_657 ?
Mg1 Sb2 Mg4 68.7(6) 3_545 . ?
Mg1 Sb2 Mg3 165.5(9) 3_545 . ?
Mg1 Sb2 Mg2 70.4(5) 3_545 . ?
Mg1 Sb2 Mg2 70.4(5) 3_545 1_545 ?
Mg4 Sb2 Mg4 89.5(11) 1_565 . ?
Mg4 Sb2 Mg4 71.0(5) 7_657 1_565 ?
Mg4 Sb2 Mg4 71.0(5) 7_657 . ?
Mg4 Sb2 Mg3 72.5(8) 7_657 . ?
Mg4 Sb2 Mg2 133.12(8) 7_657 1_545 ?
Mg4 Sb2 Mg2 133.12(8) 7_657 . ?
Mg3 Sb2 Mg4 120.3(4) . 1_565 ?
Mg3 Sb2 Mg4 120.3(4) . . ?
Mg3 Sb2 Mg2 100.1(2) . 1_545 ?
Mg3 Sb2 Mg2 100.1(2) . . ?
Mg2 Sb2 Mg4 74.3(5) . 1_565 ?
Mg2 Sb2 Mg4 139.1(4) . . ?
Mg2 Sb2 Mg4 74.3(5) 1_545 . ?
Mg2 Sb2 Mg4 139.1(4) 1_545 1_565 ?
Mg2 Sb2 Mg2 93.63(17) 1_545 . ?
Sb1 Mg1 Sb1 105.3(11) 7_576 . ?
Sb1 Mg1 Sb1 105.3(11) 7_566 . ?
Sb1 Mg1 Sb1 103.2(6) 7_566 7_576 ?
Sb1 Mg1 Sb2 123.3(8) 7_576 3_455 ?
Sb1 Mg1 Sb2 123.3(8) 7_566 3_455 ?
Sb1 Mg1 Mg1 113.9(14) 7_566 7_576 ?
Sb1 Mg1 Mg1 50.3(10) . 7_566 ?
Sb1 Mg1 Mg1 113.9(14) 7_576 7_566 ?
Sb1 Mg1 Mg1 55.0(4) 7_576 7_576 ?
Sb1 Mg1 Mg1 55.0(4) 7_566 7_566 ?
Sb1 Mg1 Mg1 50.3(10) . 7_576 ?
Sb1 Mg1 Mg4 58.3(5) 7_576 5_666 ?
Sb1 Mg1 Mg4 57.3(9) . 3_455 ?
Sb1 Mg1 Mg4 162.3(17) 7_576 3_455 ?
Sb1 Mg1 Mg4 86.1(3) 7_576 3_465 ?
Sb1 Mg1 Mg4 57.3(9) . 3_465 ?
Sb1 Mg1 Mg4 162.3(17) 7_566 3_465 ?
Sb1 Mg1 Mg4 58.3(5) 7_566 5_666 ?
Sb1 Mg1 Mg4 82.8(11) . 5_666 ?
Sb1 Mg1 Mg4 86.1(3) 7_566 3_455 ?
Sb1 Mg1 Mg3 56.3(4) 7_576 3_454 ?
Sb1 Mg1 Mg3 56.3(4) 7_566 3_454 ?
Sb1 Mg1 Mg3 141.9(11) . 3_454 ?
Sb1 Mg1 Mg2 68.5(5) 7_576 3_455 ?
Sb1 Mg1 Mg2 123.9(5) . 3_445 ?
Sb1 Mg1 Mg2 68.5(5) 7_566 3_445 ?
Sb1 Mg1 Mg2 130.8(14) 7_566 3_455 ?
Sb1 Mg1 Mg2 123.9(5) . 3_455 ?
Sb1 Mg1 Mg2 130.8(14) 7_576 3_445 ?
Sb2 Mg1 Sb1 92.7(7) 3_455 . ?
Sb2 Mg1 Mg1 118.6(8) 3_455 7_576 ?
Sb2 Mg1 Mg1 118.6(8) 3_455 7_566 ?
Sb2 Mg1 Mg4 175.6(15) 3_455 5_666 ?
Sb2 Mg1 Mg4 59.5(6) 3_455 3_465 ?
Sb2 Mg1 Mg4 59.5(6) 3_455 3_455 ?
Sb2 Mg1 Mg3 125.4(15) 3_455 3_454 ?
Sb2 Mg1 Mg2 57.1(6) 3_455 3_445 ?
Sb2 Mg1 Mg2 57.1(6) 3_455 3_455 ?
Mg1 Mg1 Mg1 77.4(18) 7_576 7_566 ?
Mg1 Mg1 Mg3 103.0(7) 7_566 3_454 ?
Mg1 Mg1 Mg3 103.0(7) 7_576 3_454 ?
Mg4 Mg1 Mg1 59.2(8) 3_455 7_566 ?
Mg4 Mg1 Mg1 58.3(8) 5_666 7_566 ?
Mg4 Mg1 Mg1 58.3(8) 5_666 7_576 ?
Mg4 Mg1 Mg1 107.6(18) 3_455 7_576 ?
Mg4 Mg1 Mg1 59.2(8) 3_465 7_576 ?
Mg4 Mg1 Mg1 107.6(18) 3_465 7_566 ?
Mg4 Mg1 Mg4 117.5(11) 3_455 5_666 ?
Mg4 Mg1 Mg4 117.5(11) 3_465 5_666 ?
Mg4 Mg1 Mg4 81.3(8) 3_465 3_455 ?
Mg4 Mg1 Mg3 59.0(7) 5_666 3_454 ?
Mg4 Mg1 Mg3 138.9(6) 3_455 3_454 ?
Mg4 Mg1 Mg3 138.9(6) 3_465 3_454 ?
Mg4 Mg1 Mg2 116.6(9) 3_455 3_455 ?
Mg4 Mg1 Mg2 66.5(8) 3_455 3_445 ?
Mg4 Mg1 Mg2 116.6(9) 3_465 3_445 ?
Mg4 Mg1 Mg2 66.5(8) 3_465 3_455 ?
Mg2 Mg1 Mg1 173.7(12) 3_445 7_576 ?
Mg2 Mg1 Mg1 100.5(4) 3_455 7_576 ?
Mg2 Mg1 Mg1 100.5(4) 3_445 7_566 ?
Mg2 Mg1 Mg1 173.7(12) 3_455 7_566 ?
Mg2 Mg1 Mg4 125.6(6) 3_455 5_666 ?
Mg2 Mg1 Mg4 125.6(6) 3_445 5_666 ?
Mg2 Mg1 Mg3 83.2(8) 3_445 3_454 ?
Mg2 Mg1 Mg3 83.2(8) 3_455 3_454 ?
Mg2 Mg1 Mg2 81.1(9) 3_445 3_455 ?
Sb1 Mg4 Sb1 91.4(11) 3_545 3_535 ?
Sb1 Mg4 Mg1 111.0(8) 3_545 3_535 ?
Sb1 Mg4 Mg1 55.0(7) 3_545 3_545 ?
Sb1 Mg4 Mg1 55.0(7) 3_535 3_535 ?
Sb1 Mg4 Mg1 51.0(5) 3_545 5_666 ?
Sb1 Mg4 Mg1 111.0(8) 3_535 3_545 ?
Sb1 Mg4 Mg1 51.0(5) 3_535 5_666 ?
Sb1 Mg4 Mg4 87.4(7) 3_545 7_657 ?
Sb1 Mg4 Mg4 87.4(7) 3_535 7_647 ?
Sb1 Mg4 Mg4 149.9(18) 3_545 7_647 ?
Sb1 Mg4 Mg4 149.9(18) 3_535 7_657 ?
Sb1 Mg4 Mg3 55.7(7) 3_545 3_545 ?
Sb1 Mg4 Mg3 55.7(7) 3_535 3_545 ?
Sb1 Mg4 Mg2 111.8(6) 3_535 1_545 ?
Sb1 Mg4 Mg2 111.8(6) 3_545 1_545 ?
Sb2 Mg4 Sb1 159.6(9) . 3_535 ?
Sb2 Mg4 Sb1 86.0(2) . 3_545 ?
Sb2 Mg4 Sb1 159.6(9) 1_545 3_545 ?
Sb2 Mg4 Sb1 91.3(10) 7_657 3_535 ?
Sb2 Mg4 Sb1 86.0(2) 1_545 3_535 ?
Sb2 Mg4 Sb1 91.3(10) 7_657 3_545 ?
Sb2 Mg4 Sb2 109.0(5) 7_657 1_545 ?
Sb2 Mg4 Sb2 89.5(11) . 1_545 ?
Sb2 Mg4 Sb2 109.0(5) 7_657 . ?
Sb2 Mg4 Mg1 107.3(14) 1_545 3_545 ?
Sb2 Mg4 Mg1 138.4(7) 7_657 3_545 ?
Sb2 Mg4 Mg1 107.3(14) . 3_535 ?
Sb2 Mg4 Mg1 51.8(7) 1_545 3_535 ?
Sb2 Mg4 Mg1 51.8(7) . 3_545 ?
Sb2 Mg4 Mg1 114.2(6) . 5_666 ?
Sb2 Mg4 Mg1 138.4(7) 7_657 3_535 ?
Sb2 Mg4 Mg1 114.2(6) 1_545 5_666 ?
Sb2 Mg4 Mg1 117.6(14) 7_657 5_666 ?
Sb2 Mg4 Mg4 58.7(8) 7_657 7_647 ?
Sb2 Mg4 Mg4 50.3(8) 1_545 7_647 ?
Sb2 Mg4 Mg4 104.8(15) 1_545 7_657 ?
Sb2 Mg4 Mg4 50.3(8) . 7_657 ?
Sb2 Mg4 Mg4 58.7(8) 7_657 7_657 ?
Sb2 Mg4 Mg4 104.8(15) . 7_647 ?
Sb2 Mg4 Mg3 55.7(8) 7_657 3_545 ?
Sb2 Mg4 Mg3 134.8(6) 1_545 3_545 ?
Sb2 Mg4 Mg3 134.8(6) . 3_545 ?
Sb2 Mg4 Mg2 146.1(11) 7_657 1_545 ?
Sb2 Mg4 Mg2 51.5(6) 1_545 1_545 ?
Sb2 Mg4 Mg2 51.5(6) . 1_545 ?
Mg1 Mg4 Mg1 81.3(8) 3_535 3_545 ?
Mg1 Mg4 Mg1 62.5(11) 3_535 5_666 ?
Mg1 Mg4 Mg1 62.5(11) 3_545 5_666 ?
Mg1 Mg4 Mg4 92.8(7) 3_545 7_657 ?
Mg1 Mg4 Mg4 151(2) 3_545 7_647 ?
Mg1 Mg4 Mg4 92.8(7) 3_535 7_647 ?
Mg1 Mg4 Mg4 151(2) 3_535 7_657 ?
Mg1 Mg4 Mg3 61.9(9) 5_666 3_545 ?
Mg1 Mg4 Mg3 108.3(12) 3_535 3_545 ?
Mg1 Mg4 Mg3 108.3(12) 3_545 3_545 ?
Mg1 Mg4 Mg2 96.3(8) 5_666 1_545 ?
Mg1 Mg4 Mg2 56.8(10) 3_535 1_545 ?
Mg1 Mg4 Mg2 56.8(10) 3_545 1_545 ?
Mg4 Mg4 Mg1 138.3(10) 7_657 5_666 ?
Mg4 Mg4 Mg1 138.3(10) 7_647 5_666 ?
Mg4 Mg4 Mg4 79.0(9) 7_657 7_647 ?
Mg4 Mg4 Mg3 100.3(14) 7_647 3_545 ?
Mg4 Mg4 Mg3 100.3(14) 7_657 3_545 ?
Mg4 Mg4 Mg2 96.5(16) 7_647 1_545 ?
Mg4 Mg4 Mg2 96.5(16) 7_657 1_545 ?
Mg3 Mg4 Mg2 158.3(6) 3_545 1_545 ?
Sb1 Mg3 Sb1 180.0 1_545 5_677 ?
Sb1 Mg3 Sb1 87.4(2) . 5_677 ?
Sb1 Mg3 Sb1 180.0 . 5_667 ?
Sb1 Mg3 Sb1 92.6(2) . 1_545 ?
Sb1 Mg3 Sb1 92.6(2) 5_677 5_667 ?
Sb1 Mg3 Sb1 87.4(2) 1_545 5_667 ?
Sb1 Mg3 Mg1 129.9(2) 1_545 3_546 ?
Sb1 Mg3 Mg1 129.9(2) 5_677 7_566 ?
Sb1 Mg3 Mg1 50.1(2) . 7_566 ?
Sb1 Mg3 Mg1 50.1(2) 1_545 7_566 ?
Sb1 Mg3 Mg1 50.1(2) 5_667 3_546 ?
Sb1 Mg3 Mg1 129.9(2) . 3_546 ?
Sb1 Mg3 Mg1 50.1(2) 5_677 3_546 ?
Sb1 Mg3 Mg1 129.9(2) 5_667 7_566 ?
Sb1 Mg3 Mg4 123.4(2) . 7_657 ?
Sb1 Mg3 Mg4 56.6(2) 1_545 3_455 ?
Sb1 Mg3 Mg4 56.6(2) 5_667 7_657 ?
Sb1 Mg3 Mg4 56.6(2) . 3_455 ?
Sb1 Mg3 Mg4 56.6(2) 5_677 7_657 ?
Sb1 Mg3 Mg4 123.4(2) 5_667 3_455 ?
Sb1 Mg3 Mg4 123.4(2) 1_545 7_657 ?
Sb1 Mg3 Mg4 123.4(2) 5_677 3_455 ?
Sb2 Mg3 Sb1 89.29(16) 5_667 1_545 ?
Sb2 Mg3 Sb1 89.29(16) 5_667 . ?
Sb2 Mg3 Sb1 90.71(16) . . ?
Sb2 Mg3 Sb1 90.71(16) 5_667 5_667 ?
Sb2 Mg3 Sb1 90.71(16) 5_667 5_677 ?
Sb2 Mg3 Sb1 90.71(16) . 1_545 ?
Sb2 Mg3 Sb1 89.29(16) . 5_677 ?
Sb2 Mg3 Sb1 89.29(16) . 5_667 ?
Sb2 Mg3 Sb2 180.0 . 5_667 ?
Sb2 Mg3 Mg1 69.1(7) 5_667 3_546 ?
Sb2 Mg3 Mg1 69.1(7) . 7_566 ?
Sb2 Mg3 Mg1 110.9(7) 5_667 7_566 ?
Sb2 Mg3 Mg1 110.9(7) . 3_546 ?
Sb2 Mg3 Mg4 128.1(3) . 3_455 ?
Sb2 Mg3 Mg4 128.1(3) 5_667 7_657 ?
Sb2 Mg3 Mg4 51.9(3) . 7_657 ?
Sb2 Mg3 Mg4 51.9(3) 5_667 3_455 ?
Mg1 Mg3 Mg1 180.0 3_546 7_566 ?
Mg4 Mg3 Mg1 59.0(7) 7_657 3_546 ?
Mg4 Mg3 Mg1 59.0(7) 3_455 7_566 ?
Mg4 Mg3 Mg1 121.0(7) 7_657 7_566 ?
Mg4 Mg3 Mg1 121.0(7) 3_455 3_546 ?
Mg4 Mg3 Mg4 180.0(5) 7_657 3_455 ?
Sb1 Mg2 Sb1 180.0 . 5_676 ?
Sb1 Mg2 Mg4 71.9(4) 5_676 1_565 ?
Sb1 Mg2 Mg4 71.9(4) . 5_666 ?
Sb1 Mg2 Mg4 108.1(4) . 1_565 ?
Sb1 Mg2 Mg4 108.1(4) 5_676 5_666 ?
Sb2 Mg2 Sb1 81.07(16) 5_666 5_676 ?
Sb2 Mg2 Sb1 98.93(16) 5_676 . ?
Sb2 Mg2 Sb1 98.93(16) 1_565 5_676 ?
Sb2 Mg2 Sb1 98.93(16) . 5_676 ?
Sb2 Mg2 Sb1 81.07(16) . . ?
Sb2 Mg2 Sb1 81.07(16) 1_565 . ?
Sb2 Mg2 Sb1 81.07(16) 5_676 5_676 ?
Sb2 Mg2 Sb1 98.93(16) 5_666 . ?
Sb2 Mg2 Sb2 93.63(17) 5_666 5_676 ?
Sb2 Mg2 Sb2 86.37(17) 1_565 5_676 ?
Sb2 Mg2 Sb2 86.37(17) 5_666 . ?
Sb2 Mg2 Sb2 93.63(17) 1_565 . ?
Sb2 Mg2 Sb2 180.0 5_666 1_565 ?
Sb2 Mg2 Sb2 180.0 5_676 . ?
Sb2 Mg2 Mg1 127.5(3) 5_676 3_545 ?
Sb2 Mg2 Mg1 109.8(6) 5_666 7_576 ?
Sb2 Mg2 Mg1 52.5(3) 1_565 3 ?
Sb2 Mg2 Mg1 109.8(6) . 3 ?
Sb2 Mg2 Mg1 127.5(3) 5_666 3 ?
Sb2 Mg2 Mg1 127.5(3) . 7_576 ?
Sb2 Mg2 Mg1 52.5(3) 5_676 7_576 ?
Sb2 Mg2 Mg1 52.5(3) . 3_545 ?
Sb2 Mg2 Mg1 70.2(6) . 7_566 ?
Sb2 Mg2 Mg1 70.2(6) 1_565 7_576 ?
Sb2 Mg2 Mg1 70.2(6) 5_666 3_545 ?
Sb2 Mg2 Mg1 127.5(3) 1_565 7_566 ?
Sb2 Mg2 Mg1 70.2(6) 5_676 3 ?
Sb2 Mg2 Mg1 109.8(6) 1_565 3_545 ?
Sb2 Mg2 Mg1 109.8(6) 5_676 7_566 ?
Sb2 Mg2 Mg1 52.5(3) 5_666 7_566 ?
Sb2 Mg2 Mg4 54.2(2) 5_666 5_666 ?
Sb2 Mg2 Mg4 125.8(2) 5_676 1_565 ?
Sb2 Mg2 Mg4 125.8(2) 5_666 1_565 ?
Sb2 Mg2 Mg4 54.2(2) 1_565 1_565 ?
Sb2 Mg2 Mg4 125.8(2) . 5_666 ?
Sb2 Mg2 Mg4 54.2(2) . 1_565 ?
Sb2 Mg2 Mg4 125.8(2) 1_565 5_666 ?
Sb2 Mg2 Mg4 54.2(2) 5_676 5_666 ?
Mg1 Mg2 Sb1 47.9(3) 3 5_676 ?
Mg1 Mg2 Sb1 132.1(3) 7_566 5_676 ?
Mg1 Mg2 Sb1 47.9(3) 3_545 5_676 ?
Mg1 Mg2 Sb1 132.1(3) 3_545 . ?
Mg1 Mg2 Sb1 132.1(3) 7_576 5_676 ?
Mg1 Mg2 Sb1 47.9(3) 7_566 . ?
Mg1 Mg2 Sb1 132.1(3) 3 . ?
Mg1 Mg2 Sb1 47.9(3) 7_576 . ?
Mg1 Mg2 Mg1 81.1(10) 7_566 7_576 ?
Mg1 Mg2 Mg1 180.0 7_576 3_545 ?
Mg1 Mg2 Mg1 98.9(9) 3 7_576 ?
Mg1 Mg2 Mg1 81.1(9) 3 3_545 ?
Mg1 Mg2 Mg1 98.9(9) 7_566 3_545 ?
Mg1 Mg2 Mg1 180.0 7_566 3 ?
Mg1 Mg2 Mg4 123.3(5) 3 5_666 ?
Mg1 Mg2 Mg4 56.7(5) 3 1_565 ?
Mg1 Mg2 Mg4 123.3(5) 3_545 5_666 ?
Mg1 Mg2 Mg4 123.3(5) 7_576 1_565 ?
Mg1 Mg2 Mg4 56.7(5) 7_566 5_666 ?
Mg1 Mg2 Mg4 123.3(5) 7_566 1_565 ?
Mg1 Mg2 Mg4 56.7(5) 7_576 5_666 ?
Mg1 Mg2 Mg4 56.7(5) 3_545 1_565 ?
Mg4 Mg2 Mg4 180.0 5_666 1_565 ?
loop_
_geom_bond_atom_site_label_1
_geom_bond_atom_site_label_2
_geom_bond_distance
_geom_bond_site_symmetry_2
_geom_bond_publ_flag
Sb1 Mg1 2.695(11) 7_566 ?
Sb1 Mg1 2.87(4) . ?
Sb1 Mg1 2.695(11) 7_576 ?
Sb1 Mg4 2.95(3) 3_465 ?
Sb1 Mg4 2.95(3) 3_455 ?
Sb1 Mg3 2.920(5) 1_565 ?
Sb1 Mg3 2.920(5) . ?
Sb1 Mg2 3.378(6) . ?
Sb2 Mg1 2.73(2) 3_545 ?
Sb2 Mg4 3.00(3) . ?
Sb2 Mg4 3.00(3) 1_565 ?
Sb2 Mg4 2.70(3) 7_657 ?
Sb2 Mg3 2.833(6) . ?
Sb2 Mg2 2.896(4) . ?
Sb2 Mg2 2.896(4) 1_545 ?
Mg1 Mg1 3.38(7) 7_576 ?
Mg1 Mg1 3.38(7) 7_566 ?
Mg1 Mg4 3.27(4) 5_666 ?
Mg1 Mg4 3.24(3) 3_455 ?
Mg1 Mg4 3.24(3) 3_465 ?
Mg1 Mg3 3.37(3) 3_454 ?
Mg1 Mg2 3.25(3) 3_445 ?
Mg1 Mg2 3.25(3) 3_455 ?
Mg4 Mg4 3.32(3) 7_657 ?
Mg4 Mg4 3.32(3) 7_647 ?
Mg4 Mg3 3.27(4) 3_545 ?
Mg4 Mg2 3.56(4) 1_545 ?
loop_
_publcif_info_cif.paper_type
?
