#------------------------------------------------------------------------------
#$Date: 2019-10-29 23:30:56 +0200 (Tue, 29 Oct 2019) $
#$Revision: 220443 $
#$URL: file:///home/coder/svn-repositories/cod/cif/4/00/30/4003023.cif $
#------------------------------------------------------------------------------
#
# This file is available in the Crystallography Open Database (COD),
# http://www.crystallography.net/
#
# All data on this site have been placed in the public domain by the
# contributors.
#
data_4003023
loop_
_publ_author_name
'Wu, Ziyan'
'Zhang, Qiqi'
'Li, Binghan'
'Shi, Zhifang'
'Xu, Kaimin'
'Chen, Yi'
'Ning, Zhijun'
'Mi, Qixi'
_publ_section_title
;
 Stabilizing the CsSnCl3 Perovskite Lattice by B-Site Substitution for
 Enhanced Light Emission
;
_journal_issue                   14
_journal_name_full               'Chemistry of Materials'
_journal_page_first              4999
_journal_paper_doi               10.1021/acs.chemmater.9b00433
_journal_volume                  31
_journal_year                    2019
_chemical_formula_moiety         '2(Cl1.5 Cs0.5 In0.03 Sn0.45)'
_chemical_formula_sum            'Cl3 Cs In0.07 Sn0.9'
_chemical_formula_weight         353.77
_space_group_crystal_system      cubic
_space_group_IT_number           221
_space_group_name_Hall           '-P 4 2 3'
_space_group_name_H-M_alt        'P m -3 m'
_symmetry_space_group_name_Hall  '-P 4 2 3'
_symmetry_space_group_name_H-M   'P m -3 m'
_atom_sites_solution_primary     direct
_audit_creation_date             2019-01-13
_audit_creation_method
;
Olex2 1.2
(compiled 2018.05.29 svn.r3508 for OlexSys, GUI svn.r5506)
;
_cell_angle_alpha                90
_cell_angle_beta                 90
_cell_angle_gamma                90
_cell_formula_units_Z            1
_cell_length_a                   5.5382(11)
_cell_length_b                   5.5382(11)
_cell_length_c                   5.5382(11)
_cell_measurement_reflns_used    436
_cell_measurement_temperature    230(2)
_cell_measurement_theta_max      26.98
_cell_measurement_theta_min      3.68
_cell_volume                     169.87(6)
_computing_cell_refinement       'SAINT v8.37A (Bruker, 2015)'
_computing_data_reduction        'SAINT v8.37A (Bruker, 2015)'
_computing_molecular_graphics    'Olex2 (Dolomanov et al., 2009)'
_computing_publication_material  'Olex2 (Dolomanov et al., 2009)'
_computing_structure_refinement  'ShelXL (Sheldrick, 2015)'
_computing_structure_solution    'ShelXS (Sheldrick, 2008)'
_diffrn_ambient_temperature      229.97
_diffrn_measured_fraction_theta_full 1.000
_diffrn_measured_fraction_theta_max 1.000
_diffrn_measurement_device_type  'Bruker APEX-II CCD'
_diffrn_measurement_method       '\f and \w scans'
_diffrn_radiation_type           MoK\a
_diffrn_radiation_wavelength     0.71073
_diffrn_reflns_av_R_equivalents  0.0468
_diffrn_reflns_av_unetI/netI     0.0266
_diffrn_reflns_Laue_measured_fraction_full 1.000
_diffrn_reflns_Laue_measured_fraction_max 1.000
_diffrn_reflns_limit_h_max       6
_diffrn_reflns_limit_h_min       -7
_diffrn_reflns_limit_k_max       6
_diffrn_reflns_limit_k_min       -7
_diffrn_reflns_limit_l_max       7
_diffrn_reflns_limit_l_min       -4
_diffrn_reflns_number            811
_diffrn_reflns_point_group_measured_fraction_full 1.000
_diffrn_reflns_point_group_measured_fraction_max 1.000
_diffrn_reflns_theta_full        25.242
_diffrn_reflns_theta_max         26.983
_diffrn_reflns_theta_min         3.679
_diffrn_standards_number         0
_exptl_absorpt_coefficient_mu    9.943
_exptl_absorpt_correction_T_max  0.7455
_exptl_absorpt_correction_T_min  0.4341
_exptl_absorpt_correction_type   multi-scan
_exptl_absorpt_process_details
;
SADABS-2016/2 (Bruker,2016/2) was used for absorption correction.
wR2(int) was 0.1755 before and 0.0717 after correction.
The Ratio of minimum to maximum transmission is 0.5823.
The \l/2 correction factor is Not present.
;
_exptl_crystal_colour            yellow
_exptl_crystal_colour_primary    yellow
_exptl_crystal_density_diffrn    3.458
_exptl_crystal_description       irregular
_exptl_crystal_F_000             154
_exptl_crystal_size_max          0.1
_exptl_crystal_size_mid          0.1
_exptl_crystal_size_min          0.1
_refine_diff_density_max         0.476
_refine_diff_density_min         -0.536
_refine_diff_density_rms         0.164
_refine_ls_extinction_coef       0.062(13)
_refine_ls_extinction_expression Fc^*^=kFc[1+0.001xFc^2^\l^3^/sin(2\q)]^-1/4^
_refine_ls_extinction_method     'SHELXL-2016/6 (Sheldrick 2016)'
_refine_ls_goodness_of_fit_ref   1.318
_refine_ls_hydrogen_treatment    undef
_refine_ls_matrix_type           full
_refine_ls_number_parameters     6
_refine_ls_number_reflns         60
_refine_ls_number_restraints     0
_refine_ls_restrained_S_all      1.318
_refine_ls_R_factor_all          0.0297
_refine_ls_R_factor_gt           0.0297
_refine_ls_shift/su_max          0.000
_refine_ls_shift/su_mean         0.000
_refine_ls_structure_factor_coef Fsqd
_refine_ls_weighting_details
'w=1/[\s^2^(Fo^2^)+(0.0143P)^2^+0.2835P] where P=(Fo^2^+2Fc^2^)/3'
_refine_ls_weighting_scheme      calc
_refine_ls_wR_factor_gt          0.0590
_refine_ls_wR_factor_ref         0.0590
_reflns_Friedel_coverage         0.000
_reflns_number_gt                60
_reflns_number_total             60
_reflns_threshold_expression     'I > 2\s(I)'
_cod_data_source_file            cm9b00433_si_003.cif
_cod_data_source_block           mo_2_mqx_98_230k_0m
_cod_original_cell_volume        169.87(10)
_cod_original_formula_sum        'Cl3 Cs In0.07 Sn0.90'
_cod_database_code               4003023
_shelx_shelxl_version_number     2016/6
_shelx_space_group_comment
;
The symmetry employed for this shelxl refinement is uniquely defined
by the following loop, which should always be used as a source of
symmetry information in preference to the above space-group names.
They are only intended as comments.
;
_shelx_estimated_absorpt_t_max   0.436
_shelx_estimated_absorpt_t_min   0.436
_olex2_refinement_description
;
1. Uiso/Uaniso restraints and constraints
Uiso(Sn2) = Uiso(In)
2. Others
 Fixed Sof: Sn2(0.01875) In(0.0014)
;
_shelx_res_file
;
TITL mo_2_MQX_98_230K_0m in Pm-3m #221
    mo_2_mqx_98_230k_0m.res
    created by SHELXL-2016/6 at 21:48:35 on 13-Jan-2019
REM reset to Pm-3m #221
CELL 0.71073 5.5382 5.5382 5.5382 90 90 90
ZERR 1 0.0011 0.0011 0.0011 0 0 0
LATT 1
SYMM -Y,+X,+Z
SYMM -X,-Y,+Z
SYMM +Y,-X,+Z
SYMM +X,-Z,+Y
SYMM +X,-Y,-Z
SYMM +X,+Z,-Y
SYMM +Z,+Y,-X
SYMM -X,+Y,-Z
SYMM -Z,+Y,+X
SYMM +Z,+X,+Y
SYMM +Y,+Z,+X
SYMM -Y,-Z,+X
SYMM +Z,-X,-Y
SYMM -Y,+Z,-X
SYMM -Z,-X,+Y
SYMM -Z,+X,-Y
SYMM +Y,-Z,-X
SYMM +Y,+X,-Z
SYMM -Y,-X,-Z
SYMM -X,+Z,+Y
SYMM -X,-Z,-Y
SYMM +Z,-Y,+X
SYMM -Z,-Y,-X
SFAC Cl Sn In Cs
UNIT 3 0.9 0.067 1
EADP Sn2 In

L.S. 4 0 0
PLAN  20
SIZE 0.1 0.1 0.1
TEMP -43.18
fmap 2 53
acta
REM <olex2.extras>
REM <HklSrc "%.\\mo_2_MQX_98_230K_0m.hkl">
REM </olex2.extras>

WGHT    0.014300    0.283500
EXTI    0.061676
FVAR       0.39847
CS1   4    0.500000    0.500000    0.500000    10.02083    0.08331
PART 1
SN2   2    0.000000    0.000000    0.000000    10.01875    0.03662
PART 0
CL1   1    0.500000    0.000000    0.000000    10.06250    0.11614    0.15262 =
         0.15262    0.00000    0.00000    0.00000
PART 2
IN    3    0.000000    0.000000    0.000000    10.00140    0.03662
HKLF 4




REM  mo_2_MQX_98_230K_0m in Pm-3m #221
REM R1 =  0.0297 for      60 Fo > 4sig(Fo)  and  0.0297 for all      60 data
REM      6 parameters refined using      0 restraints

END

WGHT      0.0143      0.2835

REM Highest difference peak  0.476,  deepest hole -0.536,  1-sigma level  0.164
Q1    1   0.5000  0.5000  0.6001  10.12500  0.05    0.48
Q2    1   0.1449  0.0000  0.0000  10.12500  0.05    0.43
Q3    1   0.7383 -0.1985  0.1985  10.50000  0.05    0.43
Q4    1   0.2906  0.2906  0.7094  10.16667  0.05    0.42
Q5    1   0.2971  0.0000  0.2971  10.25000  0.05    0.25
Q6    1   0.0000  0.2109  0.1558  10.50000  0.05    0.19
Q7    1   0.4040  0.0000  0.1876  10.50000  0.05    0.17
Q8    1   0.2724  0.0000 -0.1460  10.50000  0.05    0.16
Q9    1   0.3451  0.5000  0.7267  10.50000  0.05    0.15
Q10   1   0.5000  0.5000  0.7831  10.12500  0.05    0.14
Q11   1   0.5000  0.0000 -0.1897  10.25000  0.05    0.13
Q12   1   0.5000 -0.1307 -0.2750  10.50000  0.05    0.09
Q13   1   0.5000  0.0000  0.3132  10.25000  0.05    0.01
;
_shelx_res_checksum              55893
_shelx_hkl_file
;
  -1   0   0   10.77    0.84
   0  -1   0   12.97    0.77
   0   1   0   12.99    0.77
   1   0   0    9.84    0.85
  -1  -1   0  687.09   39.08
  -1   1   0  690.93   39.11
   0  -1  -1  644.31   39.06
   1  -1   0  692.03   39.11
  -1  -1  -1  158.07    8.98
   1  -1   1  160.29    9.02
  -1   1   1  160.45    9.14
   1  -1  -1  143.56    9.10
  -1   1  -1  154.69    9.00
   1   1   1  154.97    9.00
  -2   0   0  988.38   57.36
   2   0   0 1000.00   57.38
   0   2  -1    9.73    0.77
   0   2   1   10.87    0.81
   2  -1   0   10.41    0.88
   0  -2  -1    9.95    0.78
   0  -2   1    9.87    0.79
  -2   1   0   10.91    0.91
   1   2   0   10.03    0.77
   2   0   1   10.29    0.83
   1  -2   0   10.26    0.80
  -1   2   0   10.90    0.82
   0   1   2    8.75    0.76
  -2   0  -1   10.70    0.72
  -2   0   1    9.41    0.96
  -1  -2   0    9.27    0.75
  -2  -1  -1  405.01   27.56
  -2  -1  -1  464.63   27.49
   1  -2   1  482.98   27.57
  -2   1   1  460.53   27.71
  -1  -2  -1  487.43   27.53
   1  -1   2  477.67   27.49
  -1   1   2  452.74   27.65
   2  -1   1  493.02   27.58
  -1   2   1  521.90   27.66
   1  -2  -1  495.45   27.62
  -1   2  -1  478.37   27.56
  -1  -2   1  512.91   27.61
   1   2   1  479.42   27.55
   2  -1  -1  445.92   27.69
  -2   1  -1  496.68   27.54
  -2  -2   0  734.44   41.21
  -2   0   2  704.13   41.33
  -2   2   0  749.41   41.28
   0  -2  -2  641.37   41.15
   0  -2   2  705.50   41.18
   0   2   2  741.91   41.21
   2  -2   0  721.43   41.26
   2   0   2  712.84   41.11
  -2  -2  -1   11.98    0.87
  -2   1   2   11.86    1.22
   2  -2   1   11.94    0.97
  -2   2   1   12.07    1.12
  -1  -2  -2   12.34    0.80
  -1   2   2   14.52    1.12
   2  -1   2   12.11    0.86
   1  -2   2   11.99    0.91
   1   2   2   11.87    0.87
   2  -2  -1   10.82    1.04
  -2   2  -1   11.66    0.94
   2  -1  -2   12.01    1.13
   1  -2  -2   10.59    1.01
  -2  -2  -2  356.28   23.53
  -2  -2  -2  424.51   23.50
   2  -2   2  424.39   23.66
  -2   2   2  438.47   23.91
   2  -2  -2  376.86   23.78
  -2   2  -2  411.63   23.58
   2   2   2  425.86   23.62
  -3   0   0    6.99    1.00
   0  -3   0    7.87    0.74
   0   3   0    7.27    0.74
   3   0   0    7.12    0.95
   0   3   1  303.02   17.42
   3  -1   0  281.59   17.53
   0  -3  -1  298.67   17.40
   0  -3   1  311.93   17.43
   0   3  -1  299.81   17.41
  -3   1   0  307.47   17.54
  -3  -1   0  290.16   17.57
  -3  -2   0    8.31    0.80
   0  -3  -2    8.13    0.80
   0  -3   2    8.23    0.83
   0   3   2    8.75    0.87
   2   0   3    7.28    0.52
   3  -2   0    6.44    0.90
  -2   0   3    7.47    1.05
  -3   2   0    9.13    1.03
   1  -3   0  298.07   17.06
  -1  -3   0  309.54   17.04
  -1   3   0  304.73   17.08
   0   1   3  268.28   16.96
  -3   0  -1  306.10   17.03
  -3   0   1  290.33   17.24
   1   3   0  303.16   17.05
   3   0   1  259.22   17.11
   1  -3   1    6.12    0.67
  -1   1   3    6.42    0.84
  -3  -1  -1    5.75    0.84
  -3   1   1    6.49    0.96
   3  -1   1    5.55    0.80
  -1  -3  -1    7.26    0.68
  -1   3   1    7.19    0.83
  -3  -1   1    5.76    0.88
  -3   1  -1    6.16    0.71
  -1  -3   1    7.00    0.73
   1   3   1    6.32    0.71
   3  -1  -1    5.82    0.91
   1   1   3    5.52    0.46
  -1   3  -1    5.98    0.70
   1  -3  -1    6.86    0.77
  -1  -3  -2  218.25   12.05
  -1   3   2  232.88   12.27
   2  -1   3  207.99   11.98
  -3   2   1  208.51   12.35
  -2   1   3  191.02   12.26
   3  -2   1  208.23   12.18
  -3  -2  -1  208.19   12.05
  -3  -2  -1  202.62   12.24
   1  -3   2  200.88   12.11
   2   1   3  203.79   11.92
   1  -3  -2  200.07   12.15
  -3   2  -1  211.59   12.13
   3  -2  -1  188.76   12.25
  -1  -3   2  210.76   12.16
   1   3   2  200.86   12.08
   2  -3   0    9.63    0.90
  -3   0   2    7.48    1.05
   0   2   3    7.91    0.85
  -2  -3   0    8.47    0.83
  -2   3   0    7.62    0.93
   3   0   2    7.62    0.89
  -2  -3  -1  207.39   12.37
  -3   1   2  211.45   12.68
   2  -3   1  204.36   12.44
   3  -1   2  212.13   12.41
   1  -2   3  211.31   12.34
  -1   2   3  215.58   12.55
  -2   3   1  225.46   12.59
  -2   3  -1  213.63   12.44
  -2  -3   1  205.81   12.46
   1   2   3  212.47   12.31
  -3  -1   2  215.38   12.63
  -3   1  -2  202.64   12.24
   2  -3  -1  214.16   12.51
  -3  -2  -2    7.71    0.68
  -3  -2  -2    7.72    0.61
  -3   2   2    7.48    1.16
  -2  -3  -2    8.08    0.72
   2  -2   3    9.18    0.79
  -2   2   3   10.62    1.36
   3  -2   2    8.96    0.89
  -2   3   2   10.21    1.29
  -3   2  -2    8.52    0.76
  -2  -3   2    9.48    0.96
   2   2   3    7.43    0.70
   2   3   2    8.41    0.86
   3  -2  -2    6.89    1.13
  -2   3  -2    9.41    0.86
  -3   0   3  122.62    8.30
  -3   3   0  147.42    8.27
   0  -3  -3  122.24    7.99
   0  -3   3  141.75    8.10
   0   3   3  150.99    8.16
   3  -3   0  133.21    8.22
   3   0   3  132.09    8.02
  -3  -3  -1    0.22    0.35
   1  -3   3    0.32    0.40
  -3   1   3   -0.08    0.70
   3  -1   3    0.05    0.31
  -3   3   1   -0.04    0.65
  -1   3   3    0.73    0.62
   3  -3   1    0.13    0.44
  -3  -3   1    0.51    0.47
   1   3   3    0.72    0.39
   3  -3  -1    0.41    0.57
   1  -3  -3    0.14    0.47
  -3   3  -1    0.30    0.46
  -3  -3  -2   80.89    5.66
  -3  -3  -2   90.81    5.49
  -3   2   3  104.56    6.12
   3  -2   3   96.92    5.63
  -3   3   2   91.92    6.79
  -2   3   3  102.23    6.04
   3  -3   2   94.10    5.71
   2  -3   3   84.40    5.62
   2   3   3   91.35    5.58
   3  -3  -2   84.25    5.82
   2  -3  -3   97.83    5.74
  -3   3  -2   94.97    5.61
  -3   3   3    4.39    1.19
   3  -3   3    2.31    0.62
   3  -3  -3    2.70    0.93
  -4   0   0  281.57   16.58
   0  -4   0  279.98   16.37
   0   4   0  277.09   16.39
   0  -4   1    9.32    1.01
   0   4  -1   10.56    1.09
   0   4   1   11.03    1.09
  -4   1   0   10.44    1.29
  -4  -1   0   10.41    1.47
   4  -2   0  157.02   10.42
   0   4   2  178.24   10.34
   0  -4   2  172.46   10.31
   0  -4  -2  170.17   10.25
  -2   0   4  179.33   10.42
  -4   2   0  179.20   10.47
  -4  -2   0  174.40   10.54
   3   0   4    7.70    0.83
   0   4   3    9.08    1.23
   0  -4   3   12.36    1.23
  -3   0   4    8.46    1.43
   4  -3   0    7.76    1.19
  -4   3   0    8.09    1.26
  -4  -3   0    9.61    1.36
  -4  -3   0    9.09    1.14
   0  -4  -3    8.62    1.05
  -4   0  -1   11.85    1.15
   4   0   1    9.85    1.40
   1   4   0   12.32    1.10
   1  -4   0   11.04    1.06
  -4   0   1   11.24    1.57
  -1   4   0   11.31    1.14
   0   1   4    9.38    0.96
  -1   4   1  152.50    9.07
  -1  -4  -1  158.47    8.96
  -4  -1  -1  149.78    9.08
   1  -4   1  145.07    9.00
  -1   1   4  150.41    9.03
  -4   1   1  157.72    9.31
  -4   1  -1  160.13    9.01
  -1   4  -1  157.62    9.03
   1   1   4  135.44    8.75
   1   4   1  149.05    8.99
  -1  -4   1  154.66    9.02
  -4  -1   1  145.29    9.24
   4  -1  -1  147.53    9.25
   1  -4  -1  147.97    9.01
  -4  -2  -1   12.43    1.54
  -2   1   4   12.07    1.43
  -1   4   2   12.65    1.32
   4  -2   1   10.40    1.23
  -4  -2  -1   11.20    1.00
   2  -1   4   10.81    0.82
  -1  -4  -2    9.59    1.02
  -4   2   1   11.60    1.64
   1  -4   2   10.49    1.09
  -4  -2   1   12.25    1.59
  -1  -4   2   10.88    1.19
   1   4   2   11.06    1.15
  -1   4  -2   10.95    1.13
   1  -4  -2    8.18    1.10
  -4   2  -1   10.84    1.21
   4  -2  -1   11.32    1.41
   2   1   4   10.92    0.70
  -4  -3  -1   66.68    4.66
  -1  -4  -3   67.54    4.22
   3  -1   4   68.56    4.20
   1  -4   3   69.47    4.40
  -4   3   1   70.23    4.81
  -1   4   3   60.48    5.37
   1   4   3   70.96    4.39
   1  -4  -3   78.95    4.40
  -4   3  -1   73.19    4.51
  -4  -3   1   65.87    4.80
   4  -3  -1   64.49    4.65
   0   2   4  182.21   10.16
   4   0   2  145.63   10.24
  -2  -4   0  169.93   10.15
   2  -4   0  169.29   10.22
  -2   4   0  181.31   10.28
  -4   0   2  172.37   10.48
  -4   0  -2  174.04    9.92
   1  -2   4   11.21    0.93
  -2   4   1   11.78    1.34
  -1   2   4   10.57    1.36
  -4   1   2   11.12    1.50
  -4  -1  -2   11.29    0.78
   4  -1   2   11.54    1.24
  -4  -1  -2   10.99    0.80
   2  -4   1    9.73    1.14
  -4   1  -2   10.35    0.88
  -2  -4   1   11.54    1.22
  -4  -1   2    9.62    1.37
  -2   4  -1   11.59    1.26
   2   4   1   10.41    1.17
   2  -4  -1   10.05    1.25
   1   2   4   11.30    0.92
  -4  -2  -2  107.83    6.57
   4  -2   2  105.57    6.80
   2  -2   4  109.95    6.61
  -2   2   4  122.18    7.06
   2  -4   2  113.48    6.81
  -2   4   2  117.26    7.06
  -2  -4  -2  109.81    6.64
  -4  -2  -2  112.76    6.51
   4  -2  -2  102.37    7.07
  -2   4  -2  113.86    6.74
   2  -4  -2  104.27    6.87
   2   2   4  111.21    6.53
   2   4   2  116.00    6.77
  -4   2  -2  107.94    6.61
   3  -2   4    8.03    0.93
  -4  -3  -2    8.33    0.81
  -2   4   3    7.31    1.33
  -3   2   4    8.28    1.43
  -2  -4  -3    7.35    0.72
  -4  -3  -2    7.87    1.06
   2  -4   3    9.20    1.18
  -4   3  -2    7.94    1.07
   2   4   3    6.87    0.95
   4  -3  -2    5.50    1.21
   2  -4  -3    6.30    1.08
  -2  -4   3    6.32    1.09
   4   0   3    9.27    1.28
   0   3   4    9.33    1.19
   3  -4   0    9.44    1.30
  -4   0   3    7.61    1.34
  -3  -4   0    8.34    1.12
  -3   4   0    9.61    1.35
   3  -4   1   66.27    4.58
   4  -1   3   68.38    4.47
  -3  -4  -1   79.73    4.42
  -4   1   3   73.05    4.93
  -1   3   4   75.92    4.72
   1   3   4   70.08    4.36
  -3  -4   1   72.01    4.59
  -3   4  -1   73.33    4.58
  -1  -3   4   70.28    4.50
  -4  -1   3   67.10    4.83
   3  -4  -1   59.20    4.59
  -4   2   3    9.26    1.55
  -3  -4  -2    8.15    0.93
   3  -4   2    7.88    1.12
  -2   3   4    7.30    1.47
   2   3   4    6.73    0.90
   3  -4  -2    7.46    1.20
  -3  -4   2    6.98    1.13
  -3   4  -2    8.54    1.16
  -4   3   3   37.62    3.26
   3  -4   3   35.52    2.58
  -3   3   4   37.94    3.19
  -3   4   3   36.70    3.17
   3  -3   4   35.07    2.47
  -3  -4   3   32.73    2.74
   3  -4  -3   25.46    2.75
   4  -3  -3   32.37    2.98
  -4  -4   0   52.20    3.38
  -4   0   4   48.45    3.76
   0  -4   4   53.19    3.35
   0   4   4   48.34    3.56
   4  -4   0   47.32    3.54
   4   0   4   41.08    3.26
  -4  -4  -1    8.74    1.43
  -4  -4  -1    9.30    1.20
   4  -1   4    8.11    0.98
   1  -4   4    7.00    1.17
  -4   1   4   10.88    1.71
  -1   4   4    6.87    1.28
  -4   4   1    8.00    1.53
   4  -4   1    5.02    1.12
  -4   4  -1    7.02    1.20
  -1  -4   4    7.38    1.10
   1   4   4    6.11    0.96
   4  -4  -1    7.89    1.31
  -4  -1   4    4.98    1.39
  -4  -4   1    8.88    1.19
  -4  -4  -2   32.20    2.88
  -4  -4  -2   29.80    2.38
   4  -4   2   33.68    2.84
   4  -2   4   40.63    2.56
  -4   2   4   37.91    3.39
  -2   4   4   32.10    3.25
  -4   4   2   33.48    3.42
   2  -4   4   35.92    2.66
  -4   4  -2   36.28    2.65
  -2  -4   4   35.37    2.81
   2   4   4   37.71    2.58
   4  -4  -2   30.85    3.03
  -4  -4   2   43.65    3.01
  -4  -2   4   35.68    3.21
   4  -3   4    4.35    1.06
  -4   3   4    6.66    1.72
  -4   4   3    3.23    1.76
   4  -4   3    5.32    1.16
  -3   4   4    5.59    1.72
   3  -4   4    4.07    1.03
   4  -4  -3    5.18    1.54
  -3  -4   4    4.12    1.22
  -4  -4   3    5.27    1.29
   4  -4   4   10.11    1.58
  -4   4   4    9.31    2.29
  -4  -4   4   11.04    1.83
  -5   0   0   12.15    1.63
   0  -5   0    9.53    1.62
   0  -5  -1   69.41    4.45
   0  -5   1   68.04    4.51
   0   5  -1   68.49    4.52
   0   5   1   70.86    4.54
   5  -1   0   63.69    4.86
  -5   1   0   70.48    4.78
  -5  -1   0   77.90    4.93
   0  -5  -2    8.17    1.02
   0  -5   2    7.06    1.04
  -2   0   5    6.27    1.15
   5  -2   0    4.59    1.23
  -5  -2   0    7.83    1.43
   0   5   2    9.22    1.18
  -5   2   0    8.21    1.43
   0   5   3   30.20    2.57
  -5  -3   0   32.82    2.49
   5  -3   0   30.47    2.67
  -5  -3   0   29.27    2.98
   3   0   5   28.78    1.98
  -3   0   5   31.35    2.85
   0  -5   3   32.22    2.49
  -5   4   0    3.73    1.46
  -5  -4   0    4.39    1.56
   0  -5  -4    4.13    0.87
  -5  -4   0    6.13    1.19
   4   0   5    4.70    0.92
   5  -4   0    4.19    1.32
   0  -5   4    2.53    1.00
  -4   0   5    3.77    1.59
   0   5   4    6.51    1.32
  -5   0  -1   75.20    4.65
   5   0   1   72.51    4.92
   1  -5   0   67.28    4.54
  -5   0   1   77.60    5.06
   0   1   5   63.97    4.39
  -5   1   1    3.00    1.17
   5  -1   1    4.22    1.15
  -1   1   5    3.99    0.82
  -5  -1  -1    2.74    0.99
   1  -5   1    2.46    0.72
  -1  -5  -1    2.99    0.73
   1   1   5    2.68    0.47
  -1  -5   1    2.31    0.73
   1   5   1    4.04    0.83
   5  -1  -1    4.97    1.23
  -5  -1   1    2.30    1.19
   1  -5  -1    3.53    0.81
  -1   5  -1    1.81    0.77
  -5   1  -1    3.44    0.84
  -5  -2  -1   46.53    3.62
   1  -5   2   48.67    3.37
  -1   5   2   54.40    3.59
   2  -1   5   49.21    2.94
  -2   1   5   51.14    3.54
   5  -2   1   39.25    3.46
  -1  -5  -2   45.69    3.18
   1  -5  -2   46.71    3.59
  -5   2  -1   48.83    3.39
   5  -2  -1   48.09    3.71
   2   1   5   48.60    2.82
  -1  -5   2   49.43    3.37
   1   5   2   47.63    3.34
   5  -3   1    2.62    1.02
  -5   3   1    2.91    1.42
   1  -5   3    3.15    0.87
  -5  -3  -1    3.87    1.40
  -1   5   3    6.92    1.23
  -5  -3  -1    4.10    0.77
   3  -1   5    3.10    0.54
  -1  -5  -3    4.56    0.77
  -3   1   5    5.45    1.35
  -3  -1   5    3.58    1.23
  -1  -5   3    4.72    1.01
  -5  -3   1    7.17    1.15
   1  -5  -3    5.72    1.05
   1   5   3    4.61    0.98
  -5   3  -1    2.35    0.99
  -5  -3   1    5.23    1.40
   5  -3  -1    0.84    1.05
  -5   4   1   15.12    2.29
  -4   1   5   21.70    2.94
  -1   5   4   20.23    2.55
   4  -1   5   18.61    1.69
   1  -5   4   17.54    1.97
   5  -4   1   15.23    2.23
  -5  -4  -1   19.38    2.23
   1   5   4   17.16    2.01
  -4  -1   5   17.21    2.33
  -5  -4   1   20.80    2.93
  -5  -4   1   16.16    2.19
  -5   4  -1   15.48    1.94
  -1  -5   4   17.77    2.13
   0   2   5    9.42    1.28
  -5   0  -2    7.51    0.84
  -2  -5   0    8.88    1.23
   5   0   2    7.91    1.38
   2  -5   0    7.87    1.13
  -5  -1  -2   50.21    3.01
  -2  -5  -1   47.10    3.25
  -5  -1  -2   47.32    2.94
   1  -2   5   45.64    3.05
   2  -5   1   49.02    3.37
  -1   2   5   54.81    3.52
   5  -1   2   44.85    3.55
  -5   1  -2   48.14    3.06
   2  -5  -1   44.09    3.37
   1   2   5   51.27    3.07
  -2   5  -1   46.79    3.88
  -2  -5   1   47.73    3.36
  -2  -5  -2   10.39    1.06
  -2   5   2    7.45    1.44
  -2   2   5    6.41    1.79
  -5  -2  -2    6.27    0.82
  -5  -2  -2    7.86    0.81
   5  -2   2    9.14    1.29
   2  -2   5    7.07    0.89
  -5   2   2    7.12    1.62
   2  -5   2    7.41    1.12
  -2   5  -2    7.30    1.08
   2   5   2    8.50    1.19
  -5   2  -2    7.31    0.90
   2   2   5    7.10    0.74
  -5  -2   2    5.09    1.44
   5  -2  -2    7.38    1.46
  -2  -5   2    7.82    1.16
   2  -5  -2    5.00    1.16
  -5   3   2   25.48    3.16
  -5  -3  -2   23.36    1.70
   2  -5   3   22.07    2.16
  -3   2   5   29.46    2.75
   3  -2   5   24.89    1.81
  -5  -3  -2   24.13    2.10
  -2   5   3   23.93    2.64
  -2  -5  -3   23.64    1.78
   5  -3   2   20.85    2.38
  -2  -5   3   24.91    2.23
   5  -3  -2   17.96    2.47
   2   5   3   20.65    2.15
  -5   3  -2   24.91    2.04
   2  -5  -3   21.51    2.36
  -5  -3   2   22.56    2.91
  -5   4   2    5.93    1.99
  -5  -4  -2    2.10    1.37
   2  -5   4    4.21    1.12
   5  -4   2    7.01    1.47
   4  -2   5    5.30    0.96
  -4   2   5    3.49    1.79
  -2   5   4    5.15    1.76
  -2  -5   4    4.46    1.29
   2   5   4    4.35    1.12
  -4  -2   5    5.09    1.84
  -5  -4   2    7.34    1.42
   5  -4  -2    2.05    1.51
  -5   4  -2    4.63    1.30
  -3  -5   0   31.12    2.63
   5   0   3   29.12    2.91
   0   3   5   37.50    2.64
  -3   5   0   38.82    2.87
   0  -3   5   33.67    2.44
   3  -5   0   30.63    2.64
   1  -3   5    3.92    0.75
  -5   1   3    2.34    1.45
  -1   3   5    4.94    1.38
  -3  -5  -1    3.72    1.34
   3  -5   1    3.61    1.00
   5  -1   3    5.64    1.13
  -3   5   1    4.85    1.31
  -5  -1   3    3.19    1.40
  -3  -5   1    2.69    0.98
   1   3   5    3.72    0.72
   3  -5  -1    4.25    1.06
  -1  -3   5    5.98    0.96
  -5   2   3   27.10    3.13
   2  -3   5   24.29    1.89
   5  -2   3   23.85    2.29
   3  -5   2   22.67    2.18
  -3   5   2   25.30    2.79
  -2   3   5   29.02    2.74
   3  -5  -2   21.76    2.44
  -3  -5   2   22.88    2.30
   2   3   5   22.46    1.77
  -5  -2   3   19.28    2.73
  -3   5  -2   22.38    2.20
  -5   3   3    1.06    1.74
   5  -3   3    3.65    1.21
   3  -5   3    3.86    1.12
   3  -3   5    3.12    0.85
  -3  -5  -3    3.56    0.59
  -3   3   5    3.63    1.63
  -3   5   3    4.30    1.71
   3  -5  -3    0.86    1.30
  -3  -5   3    1.45    1.15
  -5  -3   3    3.50    1.66
   3  -5   4    8.17    1.57
   4  -3   5    9.93    1.40
   5  -4   3    7.78    1.67
  -4   3   5    9.90    2.42
  -3   5   4    6.76    2.61
  -5  -4   3   11.33    1.92
   5  -4  -3    7.33    2.00
   3  -5  -4   10.89    1.85
  -3  -5   4    7.40    1.70
  -4   5   0    6.48    1.57
   4  -5   0    7.31    1.40
  -5   0   4    5.15    1.75
   0   4   5    6.14    1.23
  -4  -5   0    3.32    1.09
   0  -4   5    4.87    1.04
   5  -1   4   15.28    2.12
   1  -4   5   21.01    1.92
  -4  -5  -1   17.42    1.87
  -4   5   1   18.99    2.67
  -5   1   4   19.25    2.54
   4  -5   1   18.78    2.29
  -1   4   5   23.64    2.53
  -1  -4   5   16.01    1.91
  -5  -1   4   16.49    2.33
  -4  -5   1   15.41    2.00
  -4   5  -1   12.98    1.86
   4  -5  -1   15.98    2.22
  -4  -5  -2    3.63    1.50
  -2   4   5    4.31    1.80
   2  -4   5    4.85    1.06
  -4   5   2    3.10    1.81
   4  -5   2    4.36    1.32
   5  -2   4    3.83    1.17
  -5   2   4    5.99    1.97
  -5  -2   4    5.31    1.86
  -2  -4   5    2.74    1.12
  -4  -5   2    3.66    1.32
   4  -5  -2    4.48    1.49
   5  -3   4    6.28    1.57
  -3   4   5    9.90    2.27
   3  -4   5    8.26    1.40
   4  -5   3    7.97    1.67
   4  -5  -3    4.37    1.88
  -4  -5   3    9.23    1.81
  -3  -4   5    9.45    1.80
  -5  -5   0    7.48    2.04
  -5  -5   0    9.57    1.61
  -5   0   5   11.83    4.13
  -5   5   0    5.42    2.04
   0  -5   5    8.14    1.58
   0   5   5   11.48    1.81
   5  -5   0   10.70    1.96
  -6   0   0   43.43    4.03
   0  -6   0   33.98    2.79
   0   6   0   35.56    2.87
   0   6   1    5.74    1.26
   6  -1   0    7.91    1.68
  -1   0   6    5.71    1.10
   0  -6  -1    7.04    1.17
   0  -6   1    5.40    1.09
   0   6  -1    6.50    1.23
  -6  -1   0   10.01    2.21
   0   6   2   28.52    2.57
   6  -2   0   18.43    2.85
  -6   2   0   27.73    3.07
  -2   0   6   27.70    2.69
   0  -6  -2   27.92    2.37
   0  -6   2   23.18    2.38
   0   6   3    5.46    1.47
   6  -3   0    2.20    1.50
  -6  -3   0    4.71    1.85
  -6  -3   0    6.14    1.37
  -6   3   0    2.81    1.69
  -3   0   6    7.74    1.76
   0  -6  -3    5.02    1.39
   0  -6   3    4.50    1.23
   3   0   6    7.10    0.83
  -6   0  -1    5.85    1.38
   0   1   6    6.76    1.05
   1  -6   0    8.16    1.26
   1   6   0    6.34    1.21
  -6   0   1    6.91    1.76
  -1  -6   0    6.39    1.20
  -1   6   0    6.98    1.37
   1  -6   1   23.35    2.22
  -1   1   6   24.78    2.36
  -1  -6  -1   25.31    2.24
  -6  -1  -1   26.63    2.70
  -6   1   1   28.22    3.04
   6  -1   1   25.55    2.97
  -1   6   1   24.14    2.47
   1  -6  -1   22.50    2.30
  -6   1  -1   30.56    2.50
   1   1   6   22.75    1.82
   1   6   1   24.17    2.34
  -1  -6   1   23.15    2.28
  -1   6  -1   20.87    2.42
  -6  -1   1   31.11    3.02
  -1  -6  -2    7.37    1.19
   2  -1   6    6.22    0.79
  -6  -2  -1    5.04    0.96
   1  -6   2    4.53    1.14
  -6   2   1    6.84    1.96
  -1   6   2    6.77    1.55
  -2   1   6    3.94    1.30
  -6  -2  -1    3.94    1.65
   6  -2   1    7.56    1.58
   6  -2  -1    9.06    1.69
   1  -6  -2    6.18    1.21
  -6   2  -1    7.11    1.37
   1   6   2    5.85    1.32
  -6  -2   1    4.93    1.75
   2   1   6    5.52    0.51
  -1  -6   2    4.49    1.16
  -6   3   1    9.30    2.25
  -3   1   6   15.00    2.19
   3  -1   6   13.83    1.20
   1  -6   3   13.22    1.89
  -6  -3  -1   12.32    1.92
   6  -3   1   10.60    1.97
  -1   6   3   13.82    2.13
  -1  -6  -3   10.07    1.43
  -6  -3   1   15.21    2.29
  -6  -3   1   12.09    1.69
   6  -3  -1   11.24    2.04
   1   6   3   13.56    1.87
  -3  -1   6   12.37    2.17
  -1  -6   3   13.52    1.78
   1  -6  -3   14.48    1.84
  -2  -6   0   26.84    2.43
  -2   6   0   27.99    2.76
  -6   0   2   29.75    3.24
  -6   0  -2   25.58    1.88
   2  -6   0   28.70    2.53
   0   2   6   27.14    2.37
  -6   0  -2   26.19    2.01
   6  -1   2    4.03    1.56
  -2  -6  -1    7.86    1.25
  -2   6   1    8.56    1.59
   2  -6   1    4.57    1.11
  -6  -1  -2    5.22    0.69
  -1   2   6    6.15    1.39
  -6  -1  -2    4.69    0.76
  -6   1   2    3.68    1.86
  -6   1  -2    4.97    0.85
   2  -6  -1    4.79    1.24
  -2  -6   1    5.40    1.20
  -6  -1   2    7.57    1.81
   1   2   6    5.27    0.80
  -2   6  -1    6.37    1.34
  -6  -2  -2   18.34    1.64
  -6  -2  -2   17.32    1.45
  -2   6   2   18.65    2.35
  -2   2   6   19.87    2.32
   2  -6   2   17.09    2.21
   6  -2   2   17.15    2.30
  -2  -6  -2   15.22    1.93
  -6   2   2   16.59    2.59
  -2   6  -2   21.72    2.30
  -6  -2   2   22.67    3.17
   2   6   2   14.50    1.91
   2   2   6   17.96    1.32
  -2  -6   2   17.57    2.13
   2  -6  -2   16.03    2.23
  -6   2  -2   18.55    1.84
  -6   3   2    2.12    2.26
  -3   2   6    2.81    1.79
   6  -3   2    1.83    1.59
  -6  -3  -2    4.24    1.05
  -2   6   3    3.92    2.16
  -6  -3  -2    4.26    0.74
   2  -6   3    2.08    1.33
   2  -6  -3    1.92    1.48
   6  -3  -2    3.75    1.79
  -2  -6   3    3.41    1.43
   2   6   3    4.08    1.38
  -6  -3   2    1.76    2.03
  -6   3  -2    4.28    1.22
  -6   0   3    1.96    1.91
  -3  -6   0    1.93    1.22
  -3   6   0    4.83    1.65
   3  -6   0    3.33    1.30
   0   3   6    5.34    1.27
   0  -3   6    4.82    1.02
  -6   1   3   14.45    2.40
  -3  -6  -1   14.63    1.73
   6  -1   3   13.16    2.08
   3  -6   1   10.58    1.74
  -3   6   1   13.92    2.20
  -1   3   6   12.91    1.92
  -1  -3   6   14.20    1.98
   1   3   6   11.47    1.55
   3  -6  -1   10.27    1.71
  -3   6  -1   12.71    1.92
  -6  -1   3   12.97    2.40
  -3  -6   1   15.14    2.06
  -2   3   6    4.51    1.86
  -3  -6  -2    4.78    1.17
   3  -6   2    3.11    1.38
   6  -2   3    5.05    1.72
  -6   2   3    4.13    3.91
  -6  -2   3    1.03    2.90
   2   3   6    3.34    0.78
   3  -6  -2    5.31    1.64
  -3  -6   2    4.24    1.51
  -3   6  -2    2.90    1.41
  -7   0   0    6.10    2.26
   0  -7   0    5.91    1.41
   0   0   7    6.51    1.26
   0  -7  -1   12.84    1.75
   0  -7   1   12.38    1.85
  -7   1   0   12.36    2.51
  -1   0   7   10.59    1.79
  -7  -1   0   11.06    2.49
   1  -7   0   10.53    1.76
  -1  -7   0   13.42    1.84
   0   1   7   11.80    1.58
  -7   0  -1   14.29    2.26
  -7   0   1   12.38    2.65
   0   0   0    0.00    0.00
;
_shelx_hkl_checksum              50164
_olex2_submission_special_instructions 'No special instructions were received'
loop_
_space_group_symop_operation_xyz
'x, y, z'
'-y, x, z'
'-x, -y, z'
'y, -x, z'
'x, -z, y'
'x, -y, -z'
'x, z, -y'
'z, y, -x'
'-x, y, -z'
'-z, y, x'
'z, x, y'
'y, z, x'
'-y, -z, x'
'z, -x, -y'
'-y, z, -x'
'-z, -x, y'
'-z, x, -y'
'y, -z, -x'
'y, x, -z'
'-y, -x, -z'
'-x, z, y'
'-x, -z, -y'
'z, -y, x'
'-z, -y, -x'
'-x, -y, -z'
'y, -x, -z'
'x, y, -z'
'-y, x, -z'
'-x, z, -y'
'-x, y, z'
'-x, -z, y'
'-z, -y, x'
'x, -y, z'
'z, -y, -x'
'-z, -x, -y'
'-y, -z, -x'
'y, z, -x'
'-z, x, y'
'y, -z, x'
'z, x, -y'
'z, -x, y'
'-y, z, x'
'-y, -x, z'
'y, x, z'
'x, -z, -y'
'x, z, y'
'-z, y, -x'
'z, y, x'
loop_
_atom_site_label
_atom_site_type_symbol
_atom_site_fract_x
_atom_site_fract_y
_atom_site_fract_z
_atom_site_U_iso_or_equiv
_atom_site_adp_type
_atom_site_occupancy
_atom_site_site_symmetry_order
_atom_site_calc_flag
_atom_site_refinement_flags_posn
_atom_site_refinement_flags_adp
_atom_site_refinement_flags_occupancy
_atom_site_disorder_assembly
_atom_site_disorder_group
Cs1 Cs 0.500000 0.500000 0.500000 0.0833(8) Uiso 1 48 d S T P A .
Sn2 Sn 0.000000 0.000000 0.000000 0.0366(7) Uiso 0.9 48 d S T P A 1
Cl1 Cl 0.500000 0.000000 0.000000 0.140(3) Uani 1 16 d S T P . .
In In 0.000000 0.000000 0.000000 0.0366(7) Uiso 0.0672 48 d S T P A 2
loop_
_atom_site_aniso_label
_atom_site_aniso_U_11
_atom_site_aniso_U_22
_atom_site_aniso_U_33
_atom_site_aniso_U_23
_atom_site_aniso_U_13
_atom_site_aniso_U_12
Cl1 0.116(5) 0.153(4) 0.153(4) 0.000 0.000 0.000
loop_
_atom_type_symbol
_atom_type_description
_atom_type_scat_dispersion_real
_atom_type_scat_dispersion_imag
_atom_type_scat_source
Cl Cl 0.1484 0.1585 'International Tables Vol C Tables 4.2.6.8 and 6.1.1.4'
Sn Sn -0.6537 1.4246 'International Tables Vol C Tables 4.2.6.8 and 6.1.1.4'
In In -0.7276 1.3100 'International Tables Vol C Tables 4.2.6.8 and 6.1.1.4'
Cs Cs -0.3680 2.1192 'International Tables Vol C Tables 4.2.6.8 and 6.1.1.4'
loop_
_geom_angle_atom_site_label_1
_geom_angle_atom_site_label_2
_geom_angle_atom_site_label_3
_geom_angle
_geom_angle_site_symmetry_1
_geom_angle_site_symmetry_3
Cl1 Cs1 Cl1 120.0 8_666 .
Cl1 Cs1 Cl1 60.0 8_666 2_655
Cl1 Cs1 Cl1 90.0 2 2_556
Cl1 Cs1 Cl1 180.0 2_556 2_655
Cl1 Cs1 Cl1 90.0 1_566 1_556
Cl1 Cs1 Cl1 90.0 2_656 2_556
Cl1 Cs1 Cl1 60.0 8_666 1_565
Cl1 Cs1 Cl1 180.0 8_666 8_556
Cl1 Cs1 Cl1 90.0 . 1_556
Cl1 Cs1 Cl1 120.0 2 1_556
Cl1 Cs1 Cl1 120.0 8_666 2_556
Cl1 Cs1 Cl1 60.0 . 8_556
Cl1 Cs1 Cl1 120.0 1_565 2_556
Cl1 Cs1 Cl1 120.0 8_556 2_655
Cl1 Cs1 Cl1 120.0 8_556 1_565
Cl1 Cs1 Cl1 60.0 8_666 2_656
Cl1 Cs1 Cl1 120.0 8_656 1_565
Cl1 Cs1 Cl1 120.0 8_666 1_556
Cl1 Cs1 Cl1 60.0 2_656 1_556
Cl1 Cs1 Cl1 120.0 . 2_656
Cl1 Cs1 Cl1 60.0 8_656 1_556
Cl1 Cs1 Cl1 180.0 1_565 1_556
Cl1 Cs1 Cl1 60.0 8_556 2_556
Cl1 Cs1 Cl1 120.0 8_556 2_656
Cl1 Cs1 Cl1 60.0 8_566 2_556
Cl1 Cs1 Cl1 120.0 8_656 2_556
Cl1 Cs1 Cl1 60.0 . 2_655
Cl1 Cs1 Cl1 120.0 8_666 2
Cl1 Cs1 Cl1 90.0 . 1_565
Cl1 Cs1 Cl1 120.0 8_566 2_655
Cl1 Cs1 Cl1 120.0 2_656 1_565
Cl1 Cs1 Cl1 60.0 . 2
Cl1 Cs1 Cl1 120.0 . 8_566
Cl1 Cs1 Cl1 60.0 8_566 1_565
Cl1 Cs1 Cl1 90.0 8_556 8_566
Cl1 Cs1 Cl1 60.0 8_556 2
Cl1 Cs1 Cl1 120.0 2_656 8_566
Cl1 Cs1 Cl1 60.0 8_556 1_556
Cl1 Cs1 Cl1 60.0 2 8_566
Cl1 Cs1 Cl1 180.0 2_656 2
Cl1 Cs1 Cl1 60.0 1_566 8_566
Cl1 Cs1 Cl1 120.0 8_566 1_556
Cl1 Cs1 Cl1 90.0 8_666 8_656
Cl1 Cs1 Cl1 60.0 8_666 1_566
Cl1 Cs1 Cl1 60.0 . 8_656
Cl1 Cs1 Cl1 120.0 . 2_556
Cl1 Cs1 Cl1 90.0 8_556 8_656
Cl1 Cs1 Cl1 180.0 . 1_566
Cl1 Cs1 Cl1 60.0 2_656 8_656
Cl1 Cs1 Cl1 60.0 1_566 2_556
Cl1 Cs1 Cl1 120.0 2 8_656
Cl1 Cs1 Cl1 120.0 8_556 1_566
Cl1 Cs1 Cl1 120.0 1_566 8_656
Cl1 Cs1 Cl1 60.0 1_556 2_556
Cl1 Cs1 Cl1 90.0 2_656 2_655
Cl1 Cs1 Cl1 60.0 2_656 1_566
Cl1 Cs1 Cl1 120.0 1_566 2_655
Cl1 Cs1 Cl1 90.0 2 2_655
Cl1 Cs1 Cl1 60.0 8_656 2_655
Cl1 Cs1 Cl1 120.0 2 1_566
Cl1 Cs1 Cl1 120.0 1_556 2_655
Cl1 Cs1 Cl1 60.0 1_565 2_655
Cl1 Cs1 Cl1 60.0 2 1_565
Cl1 Cs1 Cl1 90.0 8_666 8_566
Cl1 Cs1 Cl1 90.0 1_566 1_565
Cl1 Cs1 Cl1 180.0 8_566 8_656
Cl1 Sn2 Cl1 90.0 8_556 .
Cl1 Sn2 Cl1 180.0 2_545 2
Cl1 Sn2 Cl1 90.0 2 8
Cl1 Sn2 Cl1 90.0 1_455 2
Cl1 Sn2 Cl1 90.0 . 8
Cl1 Sn2 Cl1 90.0 1_455 8
Cl1 Sn2 Cl1 90.0 8_556 2_545
Cl1 Sn2 Cl1 90.0 8_556 1_455
Cl1 Sn2 Cl1 90.0 . 2_545
Cl1 Sn2 Cl1 180.0 8_556 8
Cl1 Sn2 Cl1 90.0 1_455 2_545
Cl1 Sn2 Cl1 180.0 . 1_455
Cl1 Sn2 Cl1 90.0 2_545 8
Cl1 Sn2 Cl1 90.0 . 2
Cl1 Sn2 Cl1 90.0 8_556 2
Cs1 Cl1 Cs1 180.0 . 1_544
Cs1 Cl1 Cs1 90.0 1_544 1_554
Cs1 Cl1 Cs1 180.0 1_554 1_545
Cs1 Cl1 Cs1 90.0 1_544 1_545
Cs1 Cl1 Cs1 90.0 . 1_545
Cs1 Cl1 Cs1 90.0 . 1_554
Sn2 Cl1 Cs1 90.0 1_655 1_554
Sn2 Cl1 Cs1 90.0 1_655 1_545
Sn2 Cl1 Cs1 90.0 1_655 .
Sn2 Cl1 Cs1 90.0 . 1_554
Sn2 Cl1 Cs1 90.0 . 1_545
Sn2 Cl1 Cs1 90.0 1_655 1_544
Sn2 Cl1 Cs1 90.0 . .
Sn2 Cl1 Cs1 90.0 . 1_544
Sn2 Cl1 Sn2 180.0 1_655 .
In Cl1 Cs1 90.0 . .
Cl1 In Cl1 90.0 8_556 2
Cl1 In Cl1 90.0 . 8
Cl1 In Cl1 180.0 2_545 2
Cl1 In Cl1 90.0 2 8
Cl1 In Cl1 90.0 2_545 8
Cl1 In Cl1 180.0 8_556 8
Cl1 In Cl1 180.0 . 1_455
Cl1 In Cl1 90.0 1_455 2
Cl1 In Cl1 90.0 8_556 2_545
Cl1 In Cl1 90.0 8_556 .
Cl1 In Cl1 90.0 . 2_545
Cl1 In Cl1 90.0 1_455 8
Cl1 In Cl1 90.0 1_455 2_545
Cl1 In Cl1 90.0 8_556 1_455
Cl1 In Cl1 90.0 . 2
loop_
_geom_bond_atom_site_label_1
_geom_bond_atom_site_label_2
_geom_bond_distance
_geom_bond_site_symmetry_2
Cs1 Cl1 3.9161(8) 8_666
Cs1 Cl1 3.9161(8) 2_556
Cs1 Cl1 3.9161(8) 8_656
Cs1 Cl1 3.9161(8) 1_565
Cs1 Cl1 3.9161(8) 1_556
Cs1 Cl1 3.9161(8) 8_566
Cs1 Cl1 3.9161(8) 2_656
Cs1 Cl1 3.9161(8) .
Cs1 Cl1 3.9161(8) 1_566
Cs1 Cl1 3.9161(8) 2_655
Cs1 Cl1 3.9161(8) 8_556
Cs1 Cl1 3.9161(8) 2
Sn2 Cl1 2.7691(5) 8_556
Sn2 Cl1 2.7691(5) 2_545
Sn2 Cl1 2.7691(5) 1_455
Sn2 Cl1 2.7691(5) 8
Sn2 Cl1 2.7691(5) 2
Sn2 Cl1 2.7691(5) .
Cl1 In 2.7691(5) .
