#------------------------------------------------------------------------------
#$Date: 2019-10-29 23:28:14 +0200 (Tue, 29 Oct 2019) $
#$Revision: 220434 $
#$URL: file:///home/coder/svn-repositories/cod/cif/4/00/30/4003011.cif $
#------------------------------------------------------------------------------
#
# This file is available in the Crystallography Open Database (COD),
# http://www.crystallography.net/
#
# All data on this site have been placed in the public domain by the
# contributors.
#
data_4003011
loop_
_publ_author_name
'Huang, Chong'
'Wang, Xin'
'Wang, Dong'
'Zhao, Wei'
'Bu, Kejun'
'Xu, Jijian'
'Huang, Xieyi'
'Bi, Qingyuan'
'Huang, Jian'
'Huang, Fuqiang'
_publ_section_title
;
 Atomic Pillar Effect in PdxNbS2 To Boost Basal Plane Activity for Stable
 Hydrogen Evolution
;
_journal_issue                   13
_journal_name_full               'Chemistry of Materials'
_journal_page_first              4726
_journal_paper_doi               10.1021/acs.chemmater.9b00821
_journal_volume                  31
_journal_year                    2019
_chemical_formula_moiety         'Nb2 Pd0.45 S4'
_chemical_formula_sum            'Nb2 Pd0.45 S4'
_chemical_formula_weight         361.94
_space_group_crystal_system      hexagonal
_space_group_IT_number           194
_space_group_name_Hall           '-P 6c 2c'
_space_group_name_H-M_alt        'P 63/m m c'
_symmetry_space_group_name_Hall  '-P 6c 2c'
_symmetry_space_group_name_H-M   'P 63/m m c'
_audit_creation_method           SHELXL-2014/7
_cell_angle_alpha                90
_cell_angle_beta                 90
_cell_angle_gamma                120
_cell_formula_units_Z            1
_cell_length_a                   3.3379(5)
_cell_length_b                   3.3379(5)
_cell_length_c                   12.2147(18)
_cell_measurement_reflns_used    97
_cell_measurement_temperature    273(2)
_cell_measurement_theta_max      27.3732
_cell_measurement_theta_min      3.3264
_cell_volume                     117.86(3)
_computing_structure_refinement  'SHELXL-2014/7 (Sheldrick, 2014)'
_diffrn_ambient_temperature      273(2)
_diffrn_detector_area_resol_mean 10.4167
_diffrn_measured_fraction_theta_full 1.000
_diffrn_measured_fraction_theta_max 1.000
_diffrn_measurement_device_type  'Bruker D8 QUEST'
_diffrn_measurement_method       'phi and omega scans'
_diffrn_radiation_type           MoK\a
_diffrn_radiation_wavelength     0.71073
_diffrn_reflns_av_R_equivalents  0.0302
_diffrn_reflns_av_unetI/netI     0.0368
_diffrn_reflns_Laue_measured_fraction_full 1.000
_diffrn_reflns_Laue_measured_fraction_max 1.000
_diffrn_reflns_limit_h_max       2
_diffrn_reflns_limit_h_min       -4
_diffrn_reflns_limit_k_max       4
_diffrn_reflns_limit_k_min       0
_diffrn_reflns_limit_l_max       17
_diffrn_reflns_limit_l_min       0
_diffrn_reflns_number            218
_diffrn_reflns_point_group_measured_fraction_full 1.000
_diffrn_reflns_point_group_measured_fraction_max 1.000
_diffrn_reflns_theta_full        25.242
_diffrn_reflns_theta_max         30.520
_diffrn_reflns_theta_min         3.336
_exptl_absorpt_coefficient_mu    8.103
_exptl_absorpt_correction_T_max  0.600
_exptl_absorpt_correction_T_min  0.497
_exptl_absorpt_correction_type   'Numerical Mu Calculated'
_exptl_crystal_colour            black
_exptl_crystal_density_diffrn    5.099
_exptl_crystal_description       clavate
_exptl_crystal_F_000             167
_exptl_crystal_size_max          0.115
_exptl_crystal_size_mid          0.073
_exptl_crystal_size_min          0.063
_refine_diff_density_max         0.575
_refine_diff_density_min         -1.276
_refine_diff_density_rms         0.234
_refine_ls_extinction_method     none
_refine_ls_goodness_of_fit_ref   1.085
_refine_ls_hydrogen_treatment    undef
_refine_ls_matrix_type           full
_refine_ls_number_parameters     9
_refine_ls_number_reflns         95
_refine_ls_number_restraints     0
_refine_ls_restrained_S_all      1.085
_refine_ls_R_factor_all          0.0294
_refine_ls_R_factor_gt           0.0223
_refine_ls_shift/su_max          0.000
_refine_ls_shift/su_mean         0.000
_refine_ls_structure_factor_coef Fsqd
_refine_ls_weighting_details
'w=1/[\s^2^(Fo^2^)+(0.0263P)^2^] where P=(Fo^2^+2Fc^2^)/3'
_refine_ls_weighting_scheme      calc
_refine_ls_wR_factor_gt          0.0478
_refine_ls_wR_factor_ref         0.0484
_reflns_Friedel_coverage         0.000
_reflns_number_gt                88
_reflns_number_total             95
_reflns_threshold_expression     'I > 2\s(I)'
_cod_data_source_file            cm9b00821_si_002.cif
_cod_data_source_block           hklall_a
_cod_original_cell_volume        117.86(4)
_cod_database_code               4003011
_shelx_shelxl_version_number     2014/7
_shelx_space_group_comment
;
The symmetry employed for this shelxl refinement is uniquely defined
by the following loop, which should always be used as a source of
symmetry information in preference to the above space-group names.
They are only intended as comments.
;
_shelx_res_file
;

    hklall_a.res created by SHELXL-2014/7


TITL hklall_a.res in P6(3)/mmc
REM Old TITL hklall in P6(3)/mmc

REM SHELXT solution in P6(3)/mmc
REM R1 0.047,  Rweak 0.001,  Alpha 0.060,  Orientation as input
REM Formula found by SHELXT:  Nb S3

CELL  0.71073   3.3379   3.3379  12.2147   90.000   90.000  120.000
ZERR    1.000   0.0005   0.0005   0.0018    0.000    0.000    0.000
LATT  1
SYMM -Y, X-Y, Z
SYMM -X+Y, -X, Z
SYMM -X, -Y, 1/2+Z
SYMM Y, -X+Y, 1/2+Z
SYMM X-Y, X, 1/2+Z
SYMM Y, X, -Z
SYMM X-Y, -Y, -Z
SYMM -X, -X+Y, -Z
SYMM -Y, -X, 1/2-Z
SYMM -X+Y, Y, 1/2-Z
SYMM X, X-Y, 1/2-Z
SFAC NB PD S
UNIT 2 0.45 4
TEMP 0
L.S. 10
BOND
LIST 4
acta
FMAP 2
PLAN 20
WGHT    0.026300
FVAR       1.04726   0.22503
NB    1    0.000000    1.000000    0.250000    10.08333    0.00610    0.00610 =
         0.00510    0.00000    0.00000    0.00305
S     3    0.333333    0.666667    0.377829    10.16667    0.00674    0.00674 =
         0.00613    0.00000    0.00000    0.00337
PD    2    0.000000    1.000000    0.500000    20.08333    0.00640    0.00640 =
         0.00172    0.00000    0.00000    0.00320
HKLF 4

REM  hklall_a.res in P6(3)/mmc
REM R1 =  0.0223 for      88 Fo > 4sig(Fo)  and  0.0294 for all      95 data
REM      9 parameters refined using      0 restraints

END

WGHT      0.0263      0.0000

REM Highest difference peak  0.575,  deepest hole -1.276,  1-sigma level  0.234
Q1    1  -0.0035  1.4982  0.2500  10.25000  0.05    0.57
Q2    1  -0.0079  0.4960  0.3753  10.50000  0.05    0.51
Q3    1  -0.3651  0.8174  0.2500  10.25000  0.05    0.47
Q4    1  -0.1966  1.1966  0.2500  10.25000  0.05    0.44
Q5    1  -0.2303  0.5395  0.2898  10.50000  0.05    0.41
Q6    1   0.2239  0.4479  0.4177  10.50000  0.05    0.39
Q7    1  -0.5000  0.5000  0.5000  10.25000  0.05    0.35
Q8    1   0.2825  0.9736  0.4054  11.00000  0.05    0.34
Q9    1   0.1147  0.2293  0.3560  10.50000  0.05    0.30
Q10   1  -0.1708  1.1708  0.4885  10.50000  0.05    0.30
Q11   1   0.2393  0.4785  0.3104  10.50000  0.05    0.28
Q12   1   0.4748  0.5252  0.3249  10.50000  0.05    0.27
Q13   1   0.3021  1.1511  0.4021  10.50000  0.05    0.26
Q14   1  -0.1155  0.7691  0.3478  10.50000  0.05    0.24
Q15   1   0.3718  1.3694  0.5375  11.00000  0.05    0.23
Q16   1  -0.2408  0.5183  0.4426  10.50000  0.05    0.20
Q17   1   0.5781  1.1562  0.4524  10.50000  0.05    0.08
;
_shelx_res_checksum              40474
_shelx_hkl_file
;
   0   1   0 3100.89   48.70
  -1   2   0 8861.11  127.99
   0   2   0 1827.62   33.30
  -2   3   0 1173.38   41.50
  -1   3   0 1205.38   40.00
   0   3   0 4560.54  104.89
  -3   4   0  624.04   44.30
  -2   4   0 3490.15  105.49
  -1   4   0  670.13   40.20
   0   4   0  630.54   58.29
  -1   1   1  867.81   16.20
   0   1   1  876.01   15.90
   1   1   1    4.70    3.40
  -3   2   1  310.57   18.40
  -2   2   1  383.86   12.50
  -1   2   1    9.70    4.90
   0   2   1  405.26   12.10
   1   2   1  307.87   22.10
   2   2   1   31.60   24.90
  -4   3   1  151.28   28.40
  -3   3   1   10.00   12.70
  -2   3   1  273.17   17.10
  -1   3   1  239.28   17.60
   0   3   1    5.80   16.40
   1   3   1  197.18   36.60
  -4   4   1  122.69   83.29
  -3   4   1  145.49   31.30
  -2   4   1    9.70   22.40
  -1   4   1  163.68   27.30
   0   4   1  138.79   49.99
   0   0   2 3190.78  239.48
  -1   1   2 2085.79   36.00
   0   1   2 2117.59   35.60
   1   1   2 1248.18   24.20
  -3   2   2  804.22   27.00
  -2   2   2 1180.48   25.30
  -1   2   2 1254.27   24.90
   0   2   2 1193.68   23.80
   1   2   2  786.82   33.90
   2   2   2  433.86   43.00
  -4   3   2  464.75   35.90
  -3   3   2  591.24   26.30
  -2   3   2  806.92   31.00
  -1   3   2  856.81   28.30
   0   3   2  584.34   34.90
   1   3   2  426.16   43.90
  -4   4   2  336.97   87.09
  -3   4   2  396.26   52.99
  -2   4   2  457.65   46.90
  -1   4   2  480.05   38.20
   0   4   2  429.86   59.29
   0   0   3    5.60    3.50
  -1   1   3  866.31   17.10
   0   1   3  890.41   17.20
   1   1   3    7.10    4.80
  -3   2   3  350.66   20.50
  -2   2   3  450.95   13.50
  -1   2   3    7.00    5.90
   0   2   3  471.35   14.60
   1   2   3  304.07   26.80
   2   2   3    0.00   29.60
  -4   3   3  198.58   37.80
  -3   3   3    0.90    9.90
  -2   3   3  301.67   27.10
  -1   3   3  285.77   13.90
   0   3   3    2.50   16.50
   1   3   3  191.88   39.40
  -4   4   3  221.38   85.69
  -3   4   3  184.18   50.49
  -2   4   3   23.50   39.20
  -1   4   3  175.38   45.80
   0   4   3  175.88   55.89
   0   0   4 1380.26   77.09
  -1   1   4 8701.63  154.28
   0   1   4 8925.71  135.29
   1   1   4  731.83   16.80
  -3   2   4 3749.62   74.79
  -2   2   4 5156.58   94.09
  -1   2   4  741.83   20.10
   0   2   4 5183.48   93.69
   1   2   4 3673.13  102.89
   2   2   4  234.88   37.60
  -4   3   4 2238.48   93.49
  -3   3   4  366.36   22.80
  -2   3   4 3627.84   94.89
  -1   3   4 3624.24  104.69
   0   3   4  311.37   23.40
   1   3   4 1898.41   86.89
  -4   4   4 1652.23  113.79
  -3   4   4 2184.58   99.39
  -2   4   4  301.87   46.70
  -1   4   4 2074.19  102.39
   0   4   4 1544.35   93.29
   0   0   5    0.00    5.40
  -1   1   5  501.65   13.30
   0   1   5  500.25   11.90
   1   1   5    5.50    4.90
  -3   2   5  232.18   15.40
  -2   2   5  289.77   13.10
  -1   2   5    2.30    7.90
   0   2   5  286.37   14.60
   1   2   5  244.18   28.20
   2   2   5   32.10   35.50
  -4   3   5  113.19   40.90
  -3   3   5    5.30   30.20
  -2   3   5  225.08   27.60
  -1   3   5  174.88   26.40
   0   3   5   10.60   29.20
   1   3   5  135.79   44.20
  -3   4   5  116.19   51.09
  -2   4   5    7.80   43.30
  -1   4   5  120.69   50.49
   0   0   6 2322.07  127.89
  -1   1   6 1301.67   32.80
   0   1   6 1298.47   27.20
   1   1   6 1272.47   26.00
  -3   2   6  578.74   22.60
  -2   2   6  771.42   23.40
  -1   2   6 1243.08   32.30
   0   2   6  775.52   26.40
   1   2   6  581.94   39.40
   2   2   6  503.65   48.70
  -4   3   6  292.97   45.20
  -3   3   6  675.43   45.70
  -2   3   6  601.14   37.90
  -1   3   6  624.84   41.90
   0   3   6  739.23   56.49
   1   3   6  362.26   50.09
  -3   4   6  321.37   56.89
  -2   4   6  545.35   59.49
  -1   4   6  267.47   55.39
   0   0   7    4.80    9.10
  -1   1   7  563.34   19.40
   0   1   7  590.44   15.90
   1   1   7    6.50    7.60
  -3   2   7  307.57   19.00
  -2   2   7  358.26   15.20
  -1   2   7    7.50    8.80
   0   2   7  385.26   18.10
   1   2   7  276.47   26.40
   2   2   7   49.50   45.30
  -4   3   7  168.08   47.20
  -3   3   7    3.30   36.30
  -2   3   7  276.07   31.00
  -1   3   7  293.27   31.70
   0   3   7   20.10   35.30
   1   3   7  154.78   54.59
  -3   4   7  144.09   58.99
  -2   4   7   24.10   50.79
  -1   4   7  213.88   60.59
   0   0   8 9999.00  532.05
  -1   1   8 1831.92   42.90
   0   1   8 1883.51   41.10
   1   1   8 6261.57  121.69
  -3   2   8  847.62   44.00
  -2   2   8 1223.98   31.80
  -1   2   8 6198.88  116.59
   0   2   8 1163.48   35.80
   1   2   8  817.92   40.80
   2   2   8 2966.60  132.89
  -4   3   8  604.84   71.89
  -3   3   8 3449.65  114.19
  -2   3   8  889.41   51.49
  -1   3   8  938.41   59.19
   0   3   8 3318.07  126.79
   1   3   8  512.95   71.49
  -3   4   8  546.25   78.29
  -2   4   8 2781.92  135.69
  -1   4   8  537.75   69.69
   0   0   9    0.40   17.60
  -1   1   9  240.18   11.80
   0   1   9  239.48   15.90
   1   1   9   11.70   10.70
  -3   2   9  143.49   29.40
  -2   2   9  174.88   10.70
  -1   2   9    6.00   16.60
   0   2   9  195.28   12.90
   1   2   9  110.79   38.90
   2   2   9    0.00   58.29
  -3   3   9   20.20   31.40
  -2   3   9  160.48   23.80
  -1   3   9  110.79   37.90
   0   3   9   12.50   41.50
  -2   4   9   16.50   62.89
   0   0  10  623.74   36.30
  -1   1  10 1006.60   34.60
   0   1  10 1012.90   38.50
   1   1  10  475.95   24.00
  -3   2  10  599.24   45.60
  -2   2  10  728.73   26.20
  -1   2  10  457.95   30.70
   0   2  10  769.92   33.90
   1   2  10  463.15   55.39
  -3   3  10  231.98   41.50
  -2   3  10  400.56   53.79
  -1   3  10  632.84   54.39
   0   3  10  316.37   61.59
   0   0  11   20.40   20.30
  -1   1  11  373.86   21.80
   0   1  11  405.76   24.20
   1   1  11   10.20   20.00
  -3   2  11  213.38   39.40
  -2   2  11  288.17   18.50
  -1   2  11   18.00   24.10
   0   2  11  295.77   33.30
   1   2  11  261.17   43.70
  -3   3  11   31.10   40.60
  -2   3  11  237.08   57.79
  -1   3  11  227.48   45.20
   0   3  11   49.10   60.79
   0   0  12  436.56   32.90
  -1   1  12 3183.18   79.79
   0   1  12 3359.86   84.89
   1   1  12  317.07   24.00
  -3   2  12 2089.59   91.49
  -2   2  12 2494.65   97.69
  -1   2  12  369.06   34.40
   0   2  12 2393.66   94.09
   1   2  12 1812.92   91.19
  -3   3  12  189.18  161.78
  -2   3  12 1961.50  137.79
  -1   3  12 1802.22  116.29
   0   3  12  279.97  322.87
   0   0  13    4.20   25.30
  -1   1  13  112.99   18.40
   0   1  13  120.59   16.70
   1   1  13    6.90   19.60
  -3   2  13  127.59   47.80
  -2   2  13   77.79   34.00
  -1   2  13    2.60   26.80
   0   2  13  103.79   35.80
   1   2  13   98.89   49.40
  -2   3  13   93.79   78.09
  -1   3  13   57.79   68.59
   0   0  14  787.42   53.49
  -1   1  14  332.27   26.20
   0   1  14  388.36   35.50
   1   1  14  599.14   38.60
  -2   2  14  270.87   42.10
  -1   2  14  611.44   49.00
   0   2  14  342.37   59.29
   0   0  15   36.20   58.39
  -1   1  15  224.38   27.10
   0   1  15  202.08   34.10
   1   1  15   17.40   28.00
  -2   2  15  195.98   44.30
  -1   2  15   46.70   37.90
   0   2  15  173.28   41.70
   0   0  16 3119.99  256.77
  -1   1  16  564.44   44.60
   0   1  16  668.03   52.99
   0   0  17    0.00   82.99
   0   0   0    0.00    0.00

_computing_structure_solution     'SHELXT 2014/5 (Sheldrick, 2014)'
;
_shelx_hkl_checksum              45741
loop_
_space_group_symop_operation_xyz
'x, y, z'
'-y, x-y, z'
'-x+y, -x, z'
'-x, -y, z+1/2'
'y, -x+y, z+1/2'
'x-y, x, z+1/2'
'y, x, -z'
'x-y, -y, -z'
'-x, -x+y, -z'
'-y, -x, -z+1/2'
'-x+y, y, -z+1/2'
'x, x-y, -z+1/2'
'-x, -y, -z'
'y, -x+y, -z'
'x-y, x, -z'
'x, y, -z-1/2'
'-y, x-y, -z-1/2'
'-x+y, -x, -z-1/2'
'-y, -x, z'
'-x+y, y, z'
'x, x-y, z'
'y, x, z-1/2'
'x-y, -y, z-1/2'
'-x, -x+y, z-1/2'
loop_
_atom_site_label
_atom_site_type_symbol
_atom_site_fract_x
_atom_site_fract_y
_atom_site_fract_z
_atom_site_U_iso_or_equiv
_atom_site_adp_type
_atom_site_occupancy
_atom_site_site_symmetry_order
_atom_site_calc_flag
_atom_site_refinement_flags_posn
_atom_site_refinement_flags_adp
_atom_site_refinement_flags_occupancy
Nb Nb 0.0000 1.0000 0.2500 0.0058(3) Uani 1 12 d S T P
S S 0.3333 0.6667 0.37783(11) 0.0065(4) Uani 1 6 d S T P
Pd Pd 0.0000 1.0000 0.5000 0.0048(11) Uani 0.225(4) 12 d S T P
loop_
_atom_site_aniso_label
_atom_site_aniso_U_11
_atom_site_aniso_U_22
_atom_site_aniso_U_33
_atom_site_aniso_U_23
_atom_site_aniso_U_13
_atom_site_aniso_U_12
Nb 0.0061(3) 0.0061(3) 0.0051(4) 0.000 0.000 0.00305(16)
S 0.0067(5) 0.0067(5) 0.0061(7) 0.000 0.000 0.0034(3)
Pd 0.0064(12) 0.0064(12) 0.0017(15) 0.000 0.000 0.0032(6)
loop_
_atom_type_symbol
_atom_type_description
_atom_type_scat_dispersion_real
_atom_type_scat_dispersion_imag
_atom_type_scat_source
Nb Nb -2.0727 0.6215 'International Tables Vol C Tables 4.2.6.8 and 6.1.1.4'
Pd Pd -0.9988 1.0072 'International Tables Vol C Tables 4.2.6.8 and 6.1.1.4'
S S 0.1246 0.1234 'International Tables Vol C Tables 4.2.6.8 and 6.1.1.4'
loop_
_geom_angle_atom_site_label_1
_geom_angle_atom_site_label_2
_geom_angle_atom_site_label_3
_geom_angle
_geom_angle_site_symmetry_1
_geom_angle_site_symmetry_3
S Nb S 84.58(4) . 1_565
S Nb S 134.279(17) . 16_456
S Nb S 134.280(17) 1_565 16_456
S Nb S 134.279(17) . 16_566
S Nb S 78.03(5) 1_565 16_566
S Nb S 84.58(4) 16_456 16_566
S Nb S 84.58(4) . 1_455
S Nb S 84.58(4) 1_565 1_455
S Nb S 78.03(5) 16_456 1_455
S Nb S 134.280(16) 16_566 1_455
S Nb S 78.03(5) . 16_556
S Nb S 134.279(17) 1_565 16_556
S Nb S 84.58(4) 16_456 16_556
S Nb S 84.58(4) 16_566 16_556
S Nb S 134.279(17) 1_455 16_556
S Nb Pd 129.01(2) . 4_574
S Nb Pd 129.02(2) 1_565 4_574
S Nb Pd 50.98(2) 16_456 4_574
S Nb Pd 50.98(2) 16_566 4_574
S Nb Pd 129.02(2) 1_455 4_574
S Nb Pd 50.99(2) 16_556 4_574
S Nb Pd 50.99(2) . .
S Nb Pd 50.98(2) 1_565 .
S Nb Pd 129.02(2) 16_456 .
S Nb Pd 129.02(2) 16_566 .
S Nb Pd 50.98(2) 1_455 .
S Nb Pd 129.01(2) 16_556 .
Pd Nb Pd 180.0 4_574 .
S Nb Nb 90.0 . 1_445
S Nb Nb 132.290(18) 1_565 1_445
S Nb Nb 47.710(18) 16_456 1_445
S Nb Nb 132.290(18) 16_566 1_445
S Nb Nb 47.710(18) 1_455 1_445
S Nb Nb 90.0 16_556 1_445
Pd Nb Nb 90.0 4_574 1_445
Pd Nb Nb 90.0 . 1_445
S Nb Nb 90.0 . 1_665
S Nb Nb 47.710(18) 1_565 1_665
S Nb Nb 132.290(18) 16_456 1_665
S Nb Nb 47.710(18) 16_566 1_665
S Nb Nb 132.290(18) 1_455 1_665
S Nb Nb 90.0 16_556 1_665
Pd Nb Nb 90.0 4_574 1_665
Pd Nb Nb 90.0 . 1_665
Nb Nb Nb 180.0 1_445 1_665
S Nb Nb 132.290(18) . 1_565
S Nb Nb 47.710(18) 1_565 1_565
S Nb Nb 90.0 16_456 1_565
S Nb Nb 47.710(18) 16_566 1_565
S Nb Nb 90.0 1_455 1_565
S Nb Nb 132.290(18) 16_556 1_565
Pd Nb Nb 90.0 4_574 1_565
Pd Nb Nb 90.0 . 1_565
Nb Nb Nb 120.0 1_445 1_565
Nb Nb Nb 60.0 1_665 1_565
S Nb Nb 132.290(18) . 1_455
S Nb Nb 90.0 1_565 1_455
S Nb Nb 47.710(18) 16_456 1_455
S Nb Nb 90.0 16_566 1_455
S Nb Nb 47.710(18) 1_455 1_455
S Nb Nb 132.290(18) 16_556 1_455
Pd Nb Nb 90.0 4_574 1_455
Pd Nb Nb 90.0 . 1_455
Nb Nb Nb 60.0 1_445 1_455
Nb Nb Nb 120.0 1_665 1_455
Nb Nb Nb 60.0 1_565 1_455
Pd S Pd 86.43(4) 1_655 .
Pd S Pd 86.43(4) 1_655 1_545
Pd S Pd 86.43(4) . 1_545
Pd S Nb 133.836(4) 1_655 1_545
Pd S Nb 133.836(4) . 1_545
Pd S Nb 76.767(12) 1_545 1_545
Pd S Nb 133.836(4) 1_655 .
Pd S Nb 76.767(11) . .
Pd S Nb 133.836(4) 1_545 .
Nb S Nb 84.58(4) 1_545 .
Pd S Nb 76.767(12) 1_655 1_655
Pd S Nb 133.836(4) . 1_655
Pd S Nb 133.836(4) 1_545 1_655
Nb S Nb 84.58(4) 1_545 1_655
Nb S Nb 84.58(4) . 1_655
S Pd S 180.0 13_676 1_455
S Pd S 86.43(4) 13_676 13_566
S Pd S 93.57(4) 1_455 13_566
S Pd S 93.57(4) 13_676 1_565
S Pd S 86.43(4) 1_455 1_565
S Pd S 180.0 13_566 1_565
S Pd S 93.57(4) 13_676 .
S Pd S 86.43(4) 1_455 .
S Pd S 93.57(4) 13_566 .
S Pd S 86.43(4) 1_565 .
S Pd S 86.43(4) 13_676 13_576
S Pd S 93.57(4) 1_455 13_576
S Pd S 86.43(4) 13_566 13_576
S Pd S 93.57(4) 1_565 13_576
S Pd S 180.0 . 13_576
S Pd Nb 127.75(3) 13_676 .
S Pd Nb 52.25(2) 1_455 .
S Pd Nb 127.75(3) 13_566 .
S Pd Nb 52.25(2) 1_565 .
S Pd Nb 52.25(2) . .
S Pd Nb 127.75(2) 13_576 .
S Pd Nb 52.25(3) 13_676 13_576
S Pd Nb 127.75(2) 1_455 13_576
S Pd Nb 52.25(3) 13_566 13_576
S Pd Nb 127.75(2) 1_565 13_576
S Pd Nb 127.75(2) . 13_576
S Pd Nb 52.25(2) 13_576 13_576
Nb Pd Nb 180.0 . 13_576
loop_
_geom_bond_atom_site_label_1
_geom_bond_atom_site_label_2
_geom_bond_distance
_geom_bond_site_symmetry_2
Nb S 2.4803(9) .
Nb S 2.4803(9) 1_565
Nb S 2.4803(9) 16_456
Nb S 2.4803(9) 16_566
Nb S 2.4803(9) 1_455
Nb S 2.4803(9) 16_556
Nb Pd 3.0537(5) 4_574
Nb Pd 3.0537(5) .
Nb Nb 3.3379(5) 1_445
Nb Nb 3.3379(5) 1_665
Nb Nb 3.3379(5) 1_565
Nb Nb 3.3379(5) 1_455
S Pd 2.4374(8) 1_655
S Pd 2.4374(8) .
S Pd 2.4374(8) 1_545
S Nb 2.4803(9) 1_545
S Nb 2.4803(9) 1_655
Pd S 2.4374(8) 13_676
Pd S 2.4374(8) 1_455
Pd S 2.4374(8) 13_566
Pd S 2.4374(8) 1_565
Pd S 2.4374(8) 13_576
Pd Nb 3.0537(5) 13_576
