#------------------------------------------------------------------------------
#$Date: 2020-02-22 01:17:48 +0200 (Sat, 22 Feb 2020) $
#$Revision: 248377 $
#$URL: file:///home/coder/svn-repositories/cod/cif/4/00/34/4003490.cif $
#------------------------------------------------------------------------------
#
# This file is available in the Crystallography Open Database (COD),
# http://www.crystallography.net/
#
# All data on this site have been placed in the public domain by the
# contributors.
#
data_4003490
loop_
_publ_author_name
'Zhang, Jiliang'
'Lee, Jey-Jau'
'Yang, Tonghan'
'He, Wei'
'Kang, Yong-Mook'
'Bobev, Svilen'
_publ_section_title
;
 Tunable Magnetic Exchange between Rare-Earth Metal 5d and Iron 3d States:
 A Case Study of the Multiple Magnetic Transitions in Gd6FeBi2 and the
 Solid Solutions Dy6--xGdxFeBi2 (1 &#x2264; x &#x2264; 5) with Curie
 Temperatures in the Range 120--350 K
;
_journal_name_full               'Chemistry of Materials'
_journal_paper_doi               10.1021/acs.chemmater.0c00060
_journal_year                    2020
_chemical_formula_sum            'Bi2 Fe Gd6'
_chemical_formula_weight         1417.31
_space_group_IT_number           189
_space_group_name_Hall           'P -6 -2'
_space_group_name_H-M_alt        'P -6 2 m'
_symmetry_cell_setting           hexagonal
_symmetry_space_group_name_H-M   'P -6 2 m'
_atom_sites_solution_primary     direct
_atom_sites_solution_secondary   difmap
_audit_creation_method           SHELXL-97
_cell_angle_alpha                90.00
_cell_angle_beta                 90.00
_cell_angle_gamma                120.00
_cell_formula_units_Z            1
_cell_length_a                   8.3512(7)
_cell_length_b                   8.3512(7)
_cell_length_c                   4.2343(8)
_cell_measurement_reflns_used    366
_cell_measurement_temperature    230(2)
_cell_measurement_theta_max      25.05
_cell_measurement_theta_min      4.81
_cell_volume                     255.75(6)
_computing_cell_refinement       'Bruker SMART'
_computing_data_collection       'Bruker SMART'
_computing_data_reduction        'Bruker SAINT'
_computing_molecular_graphics    'Bruker SHELXTL'
_computing_publication_material  'Bruker SHELXTL'
_computing_structure_refinement  'SHELXL-97 (Sheldrick, 1997)'
_computing_structure_solution    'SHELXS-97 (Sheldrick, 1990)'
_diffrn_ambient_temperature      230(2)
_diffrn_measured_fraction_theta_full 1.000
_diffrn_measured_fraction_theta_max 1.000
_diffrn_measurement_device_type  'CCD area detector'
_diffrn_measurement_method       'phi and omega scans'
_diffrn_radiation_monochromator  graphite
_diffrn_radiation_source         'fine-focus sealed tube'
_diffrn_radiation_type           MoK\a
_diffrn_radiation_wavelength     0.71073
_diffrn_reflns_av_R_equivalents  0.0827
_diffrn_reflns_av_sigmaI/netI    0.0485
_diffrn_reflns_limit_h_max       11
_diffrn_reflns_limit_h_min       -11
_diffrn_reflns_limit_k_max       10
_diffrn_reflns_limit_k_min       -11
_diffrn_reflns_limit_l_max       5
_diffrn_reflns_limit_l_min       -5
_diffrn_reflns_number            2841
_diffrn_reflns_theta_full        29.43
_diffrn_reflns_theta_max         29.43
_diffrn_reflns_theta_min         2.82
_exptl_absorpt_coefficient_mu    73.858
_exptl_absorpt_correction_T_max  0.3666
_exptl_absorpt_correction_T_min  0.2079
_exptl_absorpt_correction_type   multi-scan
_exptl_absorpt_process_details   SADABS
_exptl_crystal_colour            silver
_exptl_crystal_density_diffrn    9.202
_exptl_crystal_density_method    'not measured'
_exptl_crystal_description       irregular
_exptl_crystal_F_000             576
_exptl_crystal_size_max          0.03
_exptl_crystal_size_mid          0.02
_exptl_crystal_size_min          0.02
_refine_diff_density_max         1.480
_refine_diff_density_min         -1.196
_refine_diff_density_rms         0.316
_refine_ls_abs_structure_details 'Flack H D (1983), Acta Cryst. A39, 876-881'
_refine_ls_abs_structure_Flack   0.022(18)
_refine_ls_extinction_method     none
_refine_ls_goodness_of_fit_ref   0.990
_refine_ls_matrix_type           full
_refine_ls_number_parameters     14
_refine_ls_number_reflns         297
_refine_ls_number_restraints     0
_refine_ls_restrained_S_all      0.990
_refine_ls_R_factor_all          0.0282
_refine_ls_R_factor_gt           0.0249
_refine_ls_shift/su_max          0.000
_refine_ls_shift/su_mean         0.000
_refine_ls_structure_factor_coef Fsqd
_refine_ls_weighting_details
'calc w=1/[\s^2^(Fo^2^)+(0.0079P)^2^+0.0000P] where P=(Fo^2^+2Fc^2^)/3'
_refine_ls_weighting_scheme      calc
_refine_ls_wR_factor_gt          0.0371
_refine_ls_wR_factor_ref         0.0378
_reflns_number_gt                277
_reflns_number_total             297
_reflns_threshold_expression     >2sigma(I)
_cod_data_source_file            cm0c00060_si_001.cif
_cod_data_source_block           230K
_cod_depositor_comments
;
The following automatic conversions were performed:

data item '_symmetry_cell_setting' value 'Hexagonal' was changed to
'hexagonal' in accordance with the
/home/data/users/saulius/crontab/automatic-downloads/rss-feeds/ACS/lib/dictionaries/cif_core.dic
dictionary named 'cif_core.dic' version 2.4.2 last updated on
2011-04-26.

Automatic conversion script
Id: cif_fix_values 7556 2019-12-06 15:28:31Z antanas 
;
_cod_original_sg_symbol_H-M      P-62m
_cod_database_code               4003490
loop_
_symmetry_equiv_pos_as_xyz
'x, y, z'
'-y, x-y, z'
'-x+y, -x, z'
'x, y, -z'
'-y, x-y, -z'
'-x+y, -x, -z'
'y, x, -z'
'x-y, -y, -z'
'-x, -x+y, -z'
'y, x, z'
'x-y, -y, z'
'-x, -x+y, z'
loop_
_atom_site_label
_atom_site_type_symbol
_atom_site_fract_x
_atom_site_fract_y
_atom_site_fract_z
_atom_site_U_iso_or_equiv
_atom_site_adp_type
_atom_site_occupancy
_atom_site_symmetry_multiplicity
_atom_site_calc_flag
_atom_site_refinement_flags
_atom_site_disorder_assembly
_atom_site_disorder_group
Bi1 Bi 0.3333 0.6667 0.5000 0.0120(2) Uani 1 6 d S . .
Gd1 Gd 0.23738(12) 1.0000 0.5000 0.0138(2) Uani 1 4 d S . .
Gd2 Gd 0.59884(15) 1.0000 1.0000 0.0138(2) Uani 1 4 d S . .
Fe1 Fe 1.0000 1.0000 1.0000 0.0209(12) Uani 1 12 d S . .
loop_
_atom_site_aniso_label
_atom_site_aniso_U_11
_atom_site_aniso_U_22
_atom_site_aniso_U_33
_atom_site_aniso_U_23
_atom_site_aniso_U_13
_atom_site_aniso_U_12
Bi1 0.0123(3) 0.0123(3) 0.0116(4) 0.000 0.000 0.00613(16)
Gd1 0.0126(4) 0.0118(6) 0.0167(5) 0.000 0.000 0.0059(3)
Gd2 0.0155(4) 0.0135(5) 0.0117(4) 0.000 0.000 0.0067(3)
Fe1 0.027(2) 0.027(2) 0.009(2) 0.000 0.000 0.0134(10)
loop_
_atom_type_symbol
_atom_type_description
_atom_type_scat_dispersion_real
_atom_type_scat_dispersion_imag
_atom_type_scat_source
Fe Fe 0.3463 0.8444 'International Tables Vol C Tables 4.2.6.8 and 6.1.1.4'
Gd Gd -0.1653 3.9035 'International Tables Vol C Tables 4.2.6.8 and 6.1.1.4'
Bi Bi -4.1077 10.2566 'International Tables Vol C Tables 4.2.6.8 and 6.1.1.4'
loop_
_geom_angle_atom_site_label_1
_geom_angle_atom_site_label_2
_geom_angle_atom_site_label_3
_geom_angle
_geom_angle_site_symmetry_1
_geom_angle_site_symmetry_3
_geom_angle_publ_flag
Gd1 Bi1 Gd1 120.0 . 3_565 ?
Gd1 Bi1 Gd1 120.0 . 2_665 ?
Gd1 Bi1 Gd1 120.0 3_565 2_665 ?
Gd1 Bi1 Gd2 68.25(2) . . ?
Gd1 Bi1 Gd2 66.52(2) 3_565 . ?
Gd1 Bi1 Gd2 140.264(7) 2_665 . ?
Gd1 Bi1 Gd2 140.264(7) . 3_564 ?
Gd1 Bi1 Gd2 68.25(2) 3_565 3_564 ?
Gd1 Bi1 Gd2 66.52(2) 2_665 3_564 ?
Gd2 Bi1 Gd2 134.765(5) . 3_564 ?
Gd1 Bi1 Gd2 140.264(7) . 3_565 ?
Gd1 Bi1 Gd2 68.25(2) 3_565 3_565 ?
Gd1 Bi1 Gd2 66.52(2) 2_665 3_565 ?
Gd2 Bi1 Gd2 83.536(11) . 3_565 ?
Gd2 Bi1 Gd2 79.443(15) 3_564 3_565 ?
Gd1 Bi1 Gd2 68.25(2) . 1_554 ?
Gd1 Bi1 Gd2 66.52(2) 3_565 1_554 ?
Gd1 Bi1 Gd2 140.264(7) 2_665 1_554 ?
Gd2 Bi1 Gd2 79.443(14) . 1_554 ?
Gd2 Bi1 Gd2 83.536(11) 3_564 1_554 ?
Gd2 Bi1 Gd2 134.765(5) 3_565 1_554 ?
Gd1 Bi1 Gd2 66.52(2) . 2_664 ?
Gd1 Bi1 Gd2 140.264(7) 3_565 2_664 ?
Gd1 Bi1 Gd2 68.25(2) 2_665 2_664 ?
Gd2 Bi1 Gd2 134.765(5) . 2_664 ?
Gd2 Bi1 Gd2 83.536(11) 3_564 2_664 ?
Gd2 Bi1 Gd2 134.764(5) 3_565 2_664 ?
Gd2 Bi1 Gd2 83.536(11) 1_554 2_664 ?
Gd1 Bi1 Gd2 66.52(2) . 2_665 ?
Gd1 Bi1 Gd2 140.264(7) 3_565 2_665 ?
Gd1 Bi1 Gd2 68.25(2) 2_665 2_665 ?
Gd2 Bi1 Gd2 83.536(11) . 2_665 ?
Gd2 Bi1 Gd2 134.764(5) 3_564 2_665 ?
Gd2 Bi1 Gd2 83.536(11) 3_565 2_665 ?
Gd2 Bi1 Gd2 134.764(5) 1_554 2_665 ?
Gd2 Bi1 Gd2 79.442(15) 2_664 2_665 ?
Fe1 Gd1 Fe1 93.76(3) 1_454 1_455 ?
Fe1 Gd1 Bi1 117.385(4) 1_454 . ?
Fe1 Gd1 Bi1 117.385(3) 1_455 . ?
Fe1 Gd1 Bi1 117.384(4) 1_454 7_566 ?
Fe1 Gd1 Bi1 117.384(3) 1_455 7_566 ?
Bi1 Gd1 Bi1 95.41(3) . 7_566 ?
Fe1 Gd1 Gd1 53.706(13) 1_454 3_465 ?
Fe1 Gd1 Gd1 53.706(12) 1_455 3_465 ?
Bi1 Gd1 Gd1 102.294(13) . 3_465 ?
Bi1 Gd1 Gd1 162.295(14) 7_566 3_465 ?
Fe1 Gd1 Gd1 53.706(13) 1_454 2_675 ?
Fe1 Gd1 Gd1 53.706(12) 1_455 2_675 ?
Bi1 Gd1 Gd1 162.294(13) . 2_675 ?
Bi1 Gd1 Gd1 102.295(14) 7_566 2_675 ?
Gd1 Gd1 Gd1 60.0 3_465 2_675 ?
Fe1 Gd1 Gd2 111.74(2) 1_454 3_575 ?
Fe1 Gd1 Gd2 60.857(17) 1_455 3_575 ?
Bi1 Gd1 Gd2 130.75(2) . 3_575 ?
Bi1 Gd1 Gd2 57.454(15) 7_566 3_575 ?
Gd1 Gd1 Gd2 109.18(2) 3_465 3_575 ?
Gd1 Gd1 Gd2 61.559(17) 2_675 3_575 ?
Fe1 Gd1 Gd2 60.857(17) 1_454 3_574 ?
Fe1 Gd1 Gd2 111.74(2) 1_455 3_574 ?
Bi1 Gd1 Gd2 130.75(2) . 3_574 ?
Bi1 Gd1 Gd2 57.454(16) 7_566 3_574 ?
Gd1 Gd1 Gd2 109.18(2) 3_465 3_574 ?
Gd1 Gd1 Gd2 61.559(17) 2_675 3_574 ?
Gd2 Gd1 Gd2 71.93(2) 3_575 3_574 ?
Fe1 Gd1 Gd2 60.858(17) 1_454 2_664 ?
Fe1 Gd1 Gd2 111.74(2) 1_455 2_664 ?
Bi1 Gd1 Gd2 57.454(15) . 2_664 ?
Bi1 Gd1 Gd2 130.75(2) 7_566 2_664 ?
Gd1 Gd1 Gd2 61.558(17) 3_465 2_664 ?
Gd1 Gd1 Gd2 109.18(2) 2_675 2_664 ?
Gd2 Gd1 Gd2 170.22(4) 3_575 2_664 ?
Gd2 Gd1 Gd2 107.19(3) 3_574 2_664 ?
Fe1 Gd1 Gd2 111.74(2) 1_454 2_665 ?
Fe1 Gd1 Gd2 60.858(17) 1_455 2_665 ?
Bi1 Gd1 Gd2 57.454(15) . 2_665 ?
Bi1 Gd1 Gd2 130.75(2) 7_566 2_665 ?
Gd1 Gd1 Gd2 61.558(17) 3_465 2_665 ?
Gd1 Gd1 Gd2 109.18(2) 2_675 2_665 ?
Gd2 Gd1 Gd2 107.19(3) 3_575 2_665 ?
Gd2 Gd1 Gd2 170.22(4) 3_574 2_665 ?
Gd2 Gd1 Gd2 71.93(2) 2_664 2_665 ?
Fe1 Gd1 Gd2 98.074(17) 1_454 1_554 ?
Fe1 Gd1 Gd2 168.16(3) 1_455 1_554 ?
Bi1 Gd1 Gd2 56.569(15) . 1_554 ?
Bi1 Gd1 Gd2 56.568(15) 7_566 1_554 ?
Gd1 Gd1 Gd2 135.156(11) 3_465 1_554 ?
Gd1 Gd1 Gd2 135.155(11) 2_675 1_554 ?
Gd2 Gd1 Gd2 114.02(2) 3_575 1_554 ?
Gd2 Gd1 Gd2 74.487(16) 3_574 1_554 ?
Gd2 Gd1 Gd2 74.488(16) 2_664 1_554 ?
Gd2 Gd1 Gd2 114.02(2) 2_665 1_554 ?
Fe1 Gd1 Gd2 168.16(3) 1_454 . ?
Fe1 Gd1 Gd2 98.074(17) 1_455 . ?
Bi1 Gd1 Gd2 56.568(16) . . ?
Bi1 Gd1 Gd2 56.568(16) 7_566 . ?
Gd1 Gd1 Gd2 135.155(11) 3_465 . ?
Gd1 Gd1 Gd2 135.156(11) 2_675 . ?
Gd2 Gd1 Gd2 74.487(15) 3_575 . ?
Gd2 Gd1 Gd2 114.02(2) 3_574 . ?
Gd2 Gd1 Gd2 114.02(2) 2_664 . ?
Gd2 Gd1 Gd2 74.488(16) 2_665 . ?
Gd2 Gd1 Gd2 70.09(3) 1_554 . ?
Bi1 Gd2 Bi1 79.443(15) 7_567 7_566 ?
Bi1 Gd2 Bi1 151.15(4) 7_567 . ?
Bi1 Gd2 Bi1 93.386(16) 7_566 . ?
Bi1 Gd2 Bi1 93.386(16) 7_567 1_556 ?
Bi1 Gd2 Bi1 151.14(4) 7_566 1_556 ?
Bi1 Gd2 Bi1 79.443(15) . 1_556 ?
Bi1 Gd2 Fe1 104.43(2) 7_567 . ?
Bi1 Gd2 Fe1 104.43(2) 7_566 . ?
Bi1 Gd2 Fe1 104.43(2) . . ?
Bi1 Gd2 Fe1 104.43(2) 1_556 . ?
Bi1 Gd2 Gd1 56.023(16) 7_567 2_776 ?
Bi1 Gd2 Gd1 101.058(19) 7_566 2_776 ?
Bi1 Gd2 Gd1 152.24(4) . 2_776 ?
Bi1 Gd2 Gd1 97.717(17) 1_556 2_776 ?
Fe1 Gd2 Gd1 49.126(19) . 2_776 ?
Bi1 Gd2 Gd1 101.058(19) 7_567 2_775 ?
Bi1 Gd2 Gd1 56.023(16) 7_566 2_775 ?
Bi1 Gd2 Gd1 97.717(16) . 2_775 ?
Bi1 Gd2 Gd1 152.24(4) 1_556 2_775 ?
Fe1 Gd2 Gd1 49.126(19) . 2_775 ?
Gd1 Gd2 Gd1 71.93(2) 2_776 2_775 ?
Bi1 Gd2 Gd1 152.24(4) 7_567 3_565 ?
Bi1 Gd2 Gd1 97.717(17) 7_566 3_565 ?
Bi1 Gd2 Gd1 56.024(16) . 3_565 ?
Bi1 Gd2 Gd1 101.058(19) 1_556 3_565 ?
Fe1 Gd2 Gd1 49.126(19) . 3_565 ?
Gd1 Gd2 Gd1 98.25(4) 2_776 3_565 ?
Gd1 Gd2 Gd1 56.88(3) 2_775 3_565 ?
Bi1 Gd2 Gd1 97.717(16) 7_567 3_566 ?
Bi1 Gd2 Gd1 152.24(4) 7_566 3_566 ?
Bi1 Gd2 Gd1 101.058(19) . 3_566 ?
Bi1 Gd2 Gd1 56.024(16) 1_556 3_566 ?
Fe1 Gd2 Gd1 49.126(19) . 3_566 ?
Gd1 Gd2 Gd1 56.88(3) 2_776 3_566 ?
Gd1 Gd2 Gd1 98.25(4) 2_775 3_566 ?
Gd1 Gd2 Gd1 71.93(2) 3_565 3_566 ?
Bi1 Gd2 Gd1 99.38(3) 7_567 . ?
Bi1 Gd2 Gd1 55.185(14) 7_566 . ?
Bi1 Gd2 Gd1 55.184(14) . . ?
Bi1 Gd2 Gd1 99.38(3) 1_556 . ?
Fe1 Gd2 Gd1 144.956(16) . . ?
Gd1 Gd2 Gd1 150.810(19) 2_776 . ?
Gd1 Gd2 Gd1 101.450(18) 2_775 . ?
Gd1 Gd2 Gd1 101.451(18) 3_565 . ?
Gd1 Gd2 Gd1 150.810(19) 3_566 . ?
Bi1 Gd2 Gd1 55.184(14) 7_567 1_556 ?
Bi1 Gd2 Gd1 99.38(3) 7_566 1_556 ?
Bi1 Gd2 Gd1 99.38(3) . 1_556 ?
Bi1 Gd2 Gd1 55.185(14) 1_556 1_556 ?
Fe1 Gd2 Gd1 144.956(16) . 1_556 ?
Gd1 Gd2 Gd1 101.450(19) 2_776 1_556 ?
Gd1 Gd2 Gd1 150.809(19) 2_775 1_556 ?
Gd1 Gd2 Gd1 150.810(19) 3_565 1_556 ?
Gd1 Gd2 Gd1 101.451(18) 3_566 1_556 ?
Gd1 Gd2 Gd1 70.09(3) . 1_556 ?
Gd1 Fe1 Gd1 93.77(3) 1_656 1_655 ?
Gd1 Fe1 Gd1 140.034(12) 1_656 3_565 ?
Gd1 Fe1 Gd1 72.59(3) 1_655 3_565 ?
Gd1 Fe1 Gd1 72.59(3) 1_656 3_566 ?
Gd1 Fe1 Gd1 140.034(13) 1_655 3_566 ?
Gd1 Fe1 Gd1 93.77(3) 3_565 3_566 ?
Gd1 Fe1 Gd1 72.59(3) 1_656 2_776 ?
Gd1 Fe1 Gd1 140.033(13) 1_655 2_776 ?
Gd1 Fe1 Gd1 140.033(13) 3_565 2_776 ?
Gd1 Fe1 Gd1 72.59(3) 3_566 2_776 ?
Gd1 Fe1 Gd1 140.033(13) 1_656 2_775 ?
Gd1 Fe1 Gd1 72.59(3) 1_655 2_775 ?
Gd1 Fe1 Gd1 72.59(3) 3_565 2_775 ?
Gd1 Fe1 Gd1 140.033(13) 3_566 2_775 ?
Gd1 Fe1 Gd1 93.77(3) 2_776 2_775 ?
Gd1 Fe1 Gd2 70.017(6) 1_656 2_765 ?
Gd1 Fe1 Gd2 70.017(6) 1_655 2_765 ?
Gd1 Fe1 Gd2 70.016(6) 3_565 2_765 ?
Gd1 Fe1 Gd2 70.016(6) 3_566 2_765 ?
Gd1 Fe1 Gd2 133.117(16) 2_776 2_765 ?
Gd1 Fe1 Gd2 133.117(16) 2_775 2_765 ?
Gd1 Fe1 Gd2 70.016(6) 1_656 3_675 ?
Gd1 Fe1 Gd2 70.016(6) 1_655 3_675 ?
Gd1 Fe1 Gd2 133.117(16) 3_565 3_675 ?
Gd1 Fe1 Gd2 133.117(16) 3_566 3_675 ?
Gd1 Fe1 Gd2 70.017(6) 2_776 3_675 ?
Gd1 Fe1 Gd2 70.017(6) 2_775 3_675 ?
Gd2 Fe1 Gd2 120.0 2_765 3_675 ?
Gd1 Fe1 Gd2 133.117(16) 1_656 . ?
Gd1 Fe1 Gd2 133.117(16) 1_655 . ?
Gd1 Fe1 Gd2 70.017(7) 3_565 . ?
Gd1 Fe1 Gd2 70.017(6) 3_566 . ?
Gd1 Fe1 Gd2 70.016(6) 2_776 . ?
Gd1 Fe1 Gd2 70.016(6) 2_775 . ?
Gd2 Fe1 Gd2 120.0 2_765 . ?
Gd2 Fe1 Gd2 120.0 3_675 . ?
loop_
_geom_bond_atom_site_label_1
_geom_bond_atom_site_label_2
_geom_bond_distance
_geom_bond_site_symmetry_2
_geom_bond_publ_flag
Bi1 Gd1 3.2591(7) . ?
Bi1 Gd1 3.2592(7) 3_565 ?
Bi1 Gd1 3.2592(8) 2_665 ?
Bi1 Gd2 3.3129(4) . ?
Bi1 Gd2 3.3129(4) 3_564 ?
Bi1 Gd2 3.3129(4) 3_565 ?
Bi1 Gd2 3.3129(4) 1_554 ?
Bi1 Gd2 3.3130(4) 2_664 ?
Bi1 Gd2 3.3130(4) 2_665 ?
Gd1 Fe1 2.9004(8) 1_454 ?
Gd1 Fe1 2.9004(8) 1_455 ?
Gd1 Bi1 3.2591(7) 7_566 ?
Gd1 Gd1 3.4336(18) 3_465 ?
Gd1 Gd1 3.4336(18) 2_675 ?
Gd1 Gd2 3.6048(9) 3_575 ?
Gd1 Gd2 3.6048(9) 3_574 ?
Gd1 Gd2 3.6048(9) 2_664 ?
Gd1 Gd2 3.6048(9) 2_665 ?
Gd1 Gd2 3.6871(14) 1_554 ?
Gd1 Gd2 3.6871(14) . ?
Gd2 Bi1 3.3129(4) 7_567 ?
Gd2 Bi1 3.3129(4) 7_566 ?
Gd2 Bi1 3.3129(4) 1_556 ?
Gd2 Fe1 3.3502(13) . ?
Gd2 Gd1 3.6048(9) 2_776 ?
Gd2 Gd1 3.6048(9) 2_775 ?
Gd2 Gd1 3.6048(9) 3_565 ?
Gd2 Gd1 3.6048(9) 3_566 ?
Gd2 Gd1 3.6871(14) 1_556 ?
Fe1 Gd1 2.9004(8) 1_656 ?
Fe1 Gd1 2.9004(8) 1_655 ?
Fe1 Gd1 2.9004(8) 3_565 ?
Fe1 Gd1 2.9004(8) 3_566 ?
Fe1 Gd1 2.9004(8) 2_776 ?
Fe1 Gd1 2.9004(8) 2_775 ?
Fe1 Gd2 3.3502(13) 2_765 ?
Fe1 Gd2 3.3502(13) 3_675 ?
