#------------------------------------------------------------------------------
#$Date: 2019-10-29 23:30:26 +0200 (Tue, 29 Oct 2019) $
#$Revision: 220442 $
#$URL: file:///home/coder/svn-repositories/cod/cif/4/00/30/4003020.cif $
#------------------------------------------------------------------------------
#
# This file is available in the Crystallography Open Database (COD),
# http://www.crystallography.net/
#
# All data on this site have been placed in the public domain by the
# contributors.
#
data_4003020
loop_
_publ_author_name
'Wu, Ziyan'
'Zhang, Qiqi'
'Li, Binghan'
'Shi, Zhifang'
'Xu, Kaimin'
'Chen, Yi'
'Ning, Zhijun'
'Mi, Qixi'
_publ_section_title
;
 Stabilizing the CsSnCl3 Perovskite Lattice by B-Site Substitution for
 Enhanced Light Emission
;
_journal_issue                   14
_journal_name_full               'Chemistry of Materials'
_journal_page_first              4999
_journal_paper_doi               10.1021/acs.chemmater.9b00433
_journal_volume                  31
_journal_year                    2019
_chemical_formula_moiety         '2(Cl1.5 Cs0.5 Mn0.05 Sn0.45)'
_chemical_formula_sum            'Cl3 Cs Mn0.1 Sn0.9'
_chemical_formula_weight         351.58
_space_group_crystal_system      cubic
_space_group_IT_number           221
_space_group_name_Hall           '-P 4 2 3'
_space_group_name_H-M_alt        'P m -3 m'
_symmetry_space_group_name_Hall  '-P 4 2 3'
_symmetry_space_group_name_H-M   'P m -3 m'
_atom_sites_solution_primary     direct
_audit_creation_date             2019-01-13
_audit_creation_method
;
Olex2 1.2
(compiled 2018.05.29 svn.r3508 for OlexSys, GUI svn.r5506)
;
_cell_angle_alpha                90
_cell_angle_beta                 90
_cell_angle_gamma                90
_cell_formula_units_Z            1
_cell_length_a                   5.5377(7)
_cell_length_b                   5.5377(7)
_cell_length_c                   5.5377(7)
_cell_measurement_reflns_used    784
_cell_measurement_temperature    230(2)
_cell_measurement_theta_max      28.701
_cell_measurement_theta_min      3.679
_cell_volume                     169.82(4)
_computing_cell_refinement       'SAINT v8.37A (Bruker, 2015)'
_computing_data_reduction        'SAINT v8.37A (Bruker, 2015)'
_computing_molecular_graphics    'Olex2 (Dolomanov et al., 2009)'
_computing_publication_material  'Olex2 (Dolomanov et al., 2009)'
_computing_structure_refinement  'ShelXL (Sheldrick, 2015)'
_computing_structure_solution    'XS (Sheldrick, 2008)'
_diffrn_ambient_temperature      230.0
_diffrn_measured_fraction_theta_full 0.980
_diffrn_measured_fraction_theta_max 0.987
_diffrn_measurement_device_type  'Bruker APEX-II CCD'
_diffrn_measurement_method       '\f and \w scans'
_diffrn_radiation_type           MoK\a
_diffrn_radiation_wavelength     0.71073
_diffrn_reflns_av_R_equivalents  0.0402
_diffrn_reflns_av_unetI/netI     0.0207
_diffrn_reflns_Laue_measured_fraction_full 0.980
_diffrn_reflns_Laue_measured_fraction_max 0.987
_diffrn_reflns_limit_h_max       7
_diffrn_reflns_limit_h_min       -7
_diffrn_reflns_limit_k_max       6
_diffrn_reflns_limit_k_min       -7
_diffrn_reflns_limit_l_max       7
_diffrn_reflns_limit_l_min       -7
_diffrn_reflns_number            1254
_diffrn_reflns_point_group_measured_fraction_full 0.980
_diffrn_reflns_point_group_measured_fraction_max 0.987
_diffrn_reflns_theta_full        25.242
_diffrn_reflns_theta_max         30.351
_diffrn_reflns_theta_min         3.679
_diffrn_standards_number         0
_exptl_absorpt_coefficient_mu    9.902
_exptl_absorpt_correction_T_max  0.7460
_exptl_absorpt_correction_T_min  0.4133
_exptl_absorpt_correction_type   multi-scan
_exptl_absorpt_process_details
'SADABS-2016/2 (Bruker,2016/2) was used for absorption correction. wR2(int) was 0.1560 before and 0.0651 after correction. The Ratio of minimum to maximum transmission is 0.5540. The \l/2 correction factor is Not present.'
_exptl_crystal_colour            yellow
_exptl_crystal_colour_primary    yellow
_exptl_crystal_density_diffrn    3.438
_exptl_crystal_description       plate
_exptl_crystal_F_000             154
_exptl_crystal_size_max          0.2
_exptl_crystal_size_mid          0.2
_exptl_crystal_size_min          0.1
_refine_diff_density_max         0.423
_refine_diff_density_min         -0.307
_refine_diff_density_rms         0.078
_refine_ls_extinction_coef       0.087(17)
_refine_ls_extinction_expression Fc^*^=kFc[1+0.001xFc^2^\l^3^/sin(2\q)]^-1/4^
_refine_ls_extinction_method     'SHELXL-2016/6 (Sheldrick 2016)'
_refine_ls_goodness_of_fit_ref   1.188
_refine_ls_hydrogen_treatment    undef
_refine_ls_matrix_type           full
_refine_ls_number_parameters     6
_refine_ls_number_reflns         77
_refine_ls_number_restraints     0
_refine_ls_restrained_S_all      1.188
_refine_ls_R_factor_all          0.0193
_refine_ls_R_factor_gt           0.0193
_refine_ls_shift/su_max          0.000
_refine_ls_shift/su_mean         0.000
_refine_ls_structure_factor_coef Fsqd
_refine_ls_weighting_details
'w=1/[\s^2^(Fo^2^)+(0.0215P)^2^+0.1053P] where P=(Fo^2^+2Fc^2^)/3'
_refine_ls_weighting_scheme      calc
_refine_ls_wR_factor_gt          0.0489
_refine_ls_wR_factor_ref         0.0489
_reflns_Friedel_coverage         0.000
_reflns_number_gt                77
_reflns_number_total             77
_reflns_threshold_expression     'I > 2\s(I)'
_cod_data_source_file            cm9b00433_si_002.cif
_cod_data_source_block           mo_wzy1012_230k_0m
_cod_original_cell_volume        169.82(6)
_cod_original_formula_sum        'Cl3 Cs Mn0.10 Sn0.90'
_cod_database_code               4003020
_shelx_shelxl_version_number     2016/6
_shelx_space_group_comment
;
The symmetry employed for this shelxl refinement is uniquely defined
by the following loop, which should always be used as a source of
symmetry information in preference to the above space-group names.
They are only intended as comments.
;
_shelx_estimated_absorpt_t_max   0.438
_shelx_estimated_absorpt_t_min   0.242
_olex2_refinement_description
;
1. Uiso/Uaniso restraints and constraints
Uiso(Sn2) = Uiso(Mn)
2. Others
 Fixed Sof: Sn2(0.01875) Mn(0.00208)
;
_shelx_res_file
;
TITL mo_WZY1012_230K_0m in Pm-3m #221
    mo_wzy1012_230k_0m.res
    created by SHELXL-2016/6 at 21:29:38 on 13-Jan-2019
REM reset to Pm-3m #221
CELL 0.71073 5.5377 5.5377 5.5377 90 90 90
ZERR 1 0.0007 0.0007 0.0007 0 0 0
LATT 1
SYMM -Y,+X,+Z
SYMM -X,-Y,+Z
SYMM +Y,-X,+Z
SYMM +X,-Z,+Y
SYMM +X,-Y,-Z
SYMM +X,+Z,-Y
SYMM +Z,+Y,-X
SYMM -X,+Y,-Z
SYMM -Z,+Y,+X
SYMM +Z,+X,+Y
SYMM +Y,+Z,+X
SYMM -Y,-Z,+X
SYMM +Z,-X,-Y
SYMM -Y,+Z,-X
SYMM -Z,-X,+Y
SYMM -Z,+X,-Y
SYMM +Y,-Z,-X
SYMM +Y,+X,-Z
SYMM -Y,-X,-Z
SYMM -X,+Z,+Y
SYMM -X,-Z,-Y
SYMM +Z,-Y,+X
SYMM -Z,-Y,-X
SFAC Cl Sn Mn Cs
UNIT 3 0.9 0.1 1
EADP Sn2 Mn

L.S. 4 0 0
PLAN  20
SIZE 0.2 0.2 0.1
TEMP -43.15
fmap 2 53
acta
REM <olex2.extras>
REM <HklSrc "%.\\mo_WZY1012_230K_0m.hkl">
REM </olex2.extras>

WGHT    0.021500    0.105300
EXTI    0.086928
FVAR       1.45955
CS1   4    0.000000    0.000000    0.000000    10.02083    0.07645
PART 1
SN2   2   -0.500000   -0.500000   -0.500000    10.01875    0.03013
PART 0
CL3   1   -0.500000   -0.500000    0.000000    10.06250    0.15646    0.15646 =
         0.09743    0.00000    0.00000    0.00000
PART 2
MN    3   -0.500000   -0.500000   -0.500000    10.00208    0.03013
HKLF 4




REM  mo_WZY1012_230K_0m in Pm-3m #221
REM R1 =  0.0193 for      77 Fo > 4sig(Fo)  and  0.0193 for all      77 data
REM      6 parameters refined using      0 restraints

END

WGHT      0.0215      0.1053

REM Highest difference peak  0.423,  deepest hole -0.307,  1-sigma level  0.078
Q1    1  -0.3308 -0.5000 -0.5000  10.12500  0.05    0.42
Q2    1  -0.5000 -0.3003  0.0000  10.25000  0.05    0.30
Q3    1   0.0000  0.0000 -0.5000  10.06250  0.05    0.29
Q4    1  -0.5000 -0.3026 -0.0671  10.50000  0.05    0.27
Q5    1  -0.3348 -0.5000  0.0000  10.25000  0.05    0.26
Q6    1  -0.5000 -0.5000 -0.3936  10.12500  0.05    0.25
Q7    1  -0.7735 -0.4260  0.0000  10.50000  0.05    0.14
Q8    1   0.0000 -0.1789  0.0000  10.12500  0.05    0.13
Q9    1  -0.5000 -0.7603  0.0000  10.25000  0.05    0.12
Q10   1  -0.8205 -0.5000  0.1795  10.25000  0.05    0.12
Q11   1  -0.6397 -0.6397 -0.3603  10.16667  0.05    0.12
Q12   1  -0.2084 -0.2084  0.2084  10.16667  0.05    0.11
Q13   1  -0.1856  0.2792 -0.1856  10.50000  0.05    0.11
Q14   1  -0.7236 -0.6188 -0.1711  11.00000  0.05    0.10
Q15   1  -0.6540 -0.3460  0.1965  10.50000  0.05    0.09
Q16   1  -0.5000 -0.6852  0.2207  10.50000  0.05    0.09
Q17   1  -0.5000 -0.7181 -0.6272  10.50000  0.05    0.05
Q18   1  -0.5651 -0.6425 -0.1870  11.00000  0.05    0.03
Q19   1  -0.1962 -0.1962  0.0832  10.50000  0.05    0.01
;
_shelx_res_checksum              10359
_shelx_hkl_file
;
  -1   0   0  167.18    7.80
   0  -1   0  166.18    8.10
   0   0  -1  160.58    7.50
   0   0   1  168.28    7.60
   0   1   0  165.68    8.10
   1   0   0  172.98    7.80
   0  -1  -1 8057.79  315.67
   0   1   1 7180.68  315.47
  -1  -1  -1 2082.89   86.59
   1  -1   1 2036.00   85.59
  -1   1   1 2079.69   85.19
   1  -1  -1 2057.19   84.89
  -1   1  -1 2016.60   85.49
   1   1   1 1972.50   86.29
   0   2  -1  155.38    8.70
   1   0   2  155.28    8.80
   2  -1   0  143.99    8.10
   0  -2   1  152.58    8.70
   0  -2  -1  179.88    9.70
  -1   0   2  152.88    6.80
  -1   0   2  148.49    7.00
  -2   1   0  157.28    8.50
  -1   0  -2  162.48    8.80
  -2  -1   0  131.29    9.30
   2   0   1  147.29    8.60
   0   1   2  142.29    8.80
   1  -2   0  159.28    8.60
   0  -1   2  149.09    7.80
   0   1  -2  142.69    7.50
   0  -1  -2  147.69    8.70
   0  -1  -2  145.69    8.40
  -2   0  -1  142.19    8.80
  -2   0   1  156.78    7.10
  -1   2   0  145.39    8.60
  -2  -1  -1 6592.14  262.77
   1  -1   2 6232.28  261.47
  -2   1   1 6093.99  260.77
  -1  -2  -1 5877.91  263.47
  -1   1   2 5742.73  261.37
  -1  -1  -2 6657.93  262.37
   2  -1   1 6097.79  261.57
   1  -2   1 6457.25  261.87
  -1   2   1 6395.76  261.77
  -1   1   2 6268.87  260.97
  -1  -1   2 6323.57  260.17
  -1  -2   1 6352.06  261.77
   1  -2  -1 6510.85  261.47
  -1   1  -2 6348.56  261.47
  -2   1  -1 6442.16  261.77
   1   1   2 6571.64  262.47
  -1   2  -1 6385.56  261.67
   2   1   1 6119.79  262.27
  -2  -2   0 8677.03  393.96
  -2   0  -2 9680.83  393.36
  -2   2   0 9437.66  392.76
   0  -2  -2 9179.58  394.26
   0  -2  -2 9240.58  393.46
   0  -2   2 9762.82  392.66
   0   2  -2 9604.34  392.26
   2  -2   0 9778.02  392.76
   2   0   2 9999.00  393.46
  -2  -2  -1  168.58   12.80
  -2  -1  -2  162.38   11.00
   2  -2   1  144.99    9.80
  -2   1   2  166.68    8.30
   1  -2   2  167.48    9.80
  -2   2   1  171.08    9.70
  -1  -2  -2  162.78   12.50
  -1   2   2  166.78   10.00
   2  -1   2  154.48    9.90
  -1  -2   2  172.98    9.20
   1  -2  -2  145.09   11.00
   1  -2  -2  168.08    9.20
  -2   2  -1  154.88    9.90
   1   2   2  142.49   11.30
   2  -2  -1  173.28    9.20
  -2   1  -2  167.98   10.30
  -1   2  -2  168.28    9.80
   2   1   2  167.98   10.60
  -2  -2  -2 5974.80  242.08
   2  -2   2 5763.02  239.88
  -2   2   2 5963.50  239.08
   2  -2  -2 5426.46  239.18
   2  -2  -2 5788.32  237.98
  -2   2  -2 5996.70  239.88
   2   2   2 5301.97  240.88
  -3   0   0   79.09    6.40
   0  -3   0   69.29    6.90
   0   0  -3   71.49    4.90
   0   0   3   70.39    5.80
   0   3   0   59.89    6.70
   3   0   0   64.99    5.60
  -1   0  -3 4025.20  171.68
  -1   0   3 4039.90  170.48
   0  -3  -1 3990.60  172.88
   0  -3   1 4179.08  172.48
   0   3  -1 4061.29  172.18
   1   0   3 4100.39  172.18
   3  -1   0 4155.98  171.38
  -3   1   0 4189.28  171.78
  -3  -1   0 4245.28  172.68
   0   3  -2   99.99    7.80
   0  -3  -2   95.49   11.50
   0  -3  -2  110.69    9.70
   0  -3   2   86.19    7.70
  -2   0   3   90.29    4.70
  -2   0   3   94.29    4.70
  -3   2   0   89.99    7.90
  -3  -2   0   80.09   10.10
   2   0   3   75.39    8.20
  -2   0  -3   96.49    8.80
   3  -2   0   93.49    7.40
  -1   3   0 4060.19  169.18
  -3   0  -1 4219.98  169.18
  -1  -3   0 4017.10  170.08
   0   1   3 4160.78  168.98
  -3   0   1 4069.69  167.58
   0   1  -3 3908.81  167.18
   0  -1   3 3979.30  167.88
   3   0   1 4075.79  168.98
   0  -1  -3 4101.89  167.98
   0  -1  -3 3682.03  168.38
   1  -3   0 4052.29  169.08
  -3  -1  -1   89.79    8.90
   3  -1   1   95.39    7.70
  -3   1   1   92.19    6.70
  -1  -1  -3   88.49    8.10
  -1   3   1   82.99    8.10
  -1   1   3   95.09    7.20
   1  -3   1   94.59    8.20
   1  -1   3   83.49    7.00
  -1  -3  -1  126.99   11.60
  -1  -3  -1   91.19    9.90
   1  -3  -1   86.29    7.40
  -1  -1   3   92.59    5.70
  -1   1  -3   91.09    7.10
  -3  -1   1   89.19    7.50
   1   1   3   99.19    8.70
   1  -1  -3   87.49    4.40
  -1   3  -1   87.39    7.90
   3  -1  -1   95.89    5.40
  -3   1  -1  100.09    8.10
   3   1   1   96.19    8.30
  -1  -3   1   93.19    8.50
  -3  -2  -1 2958.10  127.69
  -2  -1  -3 2957.30  126.09
  -2   1   3 2920.41  123.59
  -1  -3  -2 3004.20  128.69
  -3   2   1 2956.70  124.69
   2  -1   3 3111.89  125.69
   1  -3   2 3016.50  125.59
  -1   3   2 2911.41  125.69
   3  -2   1 2967.50  125.29
  -1  -3  -2 3072.39  127.49
  -2   1   3 2569.34  124.29
  -1   3  -2 3032.60  125.29
   2   1   3 3053.19  126.49
   1  -3  -2 3072.69  125.29
  -1  -3   2 3163.88  125.39
  -2  -1   3 2907.51  122.39
  -3   2  -1 3014.20  125.59
  -2   1  -3 3042.30  125.49
   1  -3  -2 2874.01  127.79
  -3  -2   1 2578.84  125.09
   3  -2  -1 2963.80  123.89
  -3   0  -2   90.59    8.40
   2  -3   0   91.19    7.70
   3   0   2   94.89    8.70
   0   2   3   77.29    9.00
   0   2  -3   94.19    6.60
   0  -2  -3   95.09    9.00
   0  -2  -3   77.29    8.30
   0  -2   3   85.99    7.00
  -2   3   0  107.59    8.30
  -3   0   2   91.09    5.10
  -1  -2  -3 3071.49  128.49
  -3  -1  -2 3034.30  128.29
  -3   1   2 2927.01  125.09
   1  -2   3 3043.90  126.89
  -2  -3  -1 3006.10  130.09
  -2   3   1 2922.41  126.99
   2  -3   1 3097.49  127.39
   3  -1   2 3096.29  127.29
   2  -3  -1 3041.30  126.69
  -3   1  -2 3112.59  127.59
   1  -2  -3 2986.50  125.49
   1   2   3 2712.13  127.99
  -2  -3   1 2841.92  127.59
  -2   3  -1 2920.01  127.09
   1  -2  -3 3175.98  126.29
   3   1   2 2995.60  127.99
  -1  -2   3 3021.60  125.69
  -1   2  -3 2984.30  126.39
  -3  -2  -2  110.39   12.70
   3  -2   2  129.99    9.10
  -3   2   2  120.09    8.50
  -2  -3  -2   91.89   13.40
  -2   3   2  112.59    9.40
  -2  -2  -3  103.49   12.50
   2  -3   2  117.39   10.00
  -2   2   3  121.19    9.00
  -2   3  -2  115.79   10.00
  -2  -3   2  119.59    9.70
   2  -3  -2   94.39   12.70
   2  -3  -2  114.39    8.40
  -2   2  -3  115.69   10.00
  -2  -2   3  114.39    7.30
   2   2   3  110.39   10.90
   3  -2  -2  111.59    6.80
   3  -2  -2  114.09    6.00
  -3   2  -2  110.39   10.40
   3   2   2   94.79   11.20
  -3  -3   0 2014.10   87.39
  -3   0  -3 1986.70   85.69
  -3   0   3 1920.51   81.19
  -3   3   0 1943.71   84.99
   0  -3  -3 1841.92   87.29
   0  -3  -3 1979.40   85.79
   0  -3   3 1989.80   84.69
   0   3  -3 1978.00   83.79
   3  -3   0 1933.21   84.59
   3   0   3 2048.20   85.99
  -3  -3  -1   -4.20    7.60
  -3  -1  -3    6.30    6.10
   3  -3   1    5.20    4.70
  -3   1   3    5.20    2.60
   3  -1   3   -1.40    4.50
  -3   3   1    9.10    4.80
  -1  -3  -3    7.80    7.90
  -1  -3  -3   17.70    6.30
  -3   3  -1   -0.50    4.90
  -1   3  -3    3.80    4.20
   1  -3  -3    9.40    7.00
   1  -3  -3    5.90    3.80
   3  -3  -1    6.10    3.90
  -3   1  -3    2.20    5.20
  -1  -3   3    6.80    3.70
   3   1   3    2.90    5.30
   3  -2   3 1387.76   64.79
  -3   2   3 1481.45   62.99
  -3   3   2 1471.95   64.19
  -2  -3  -3 1405.36   68.19
   3  -3   2 1467.45   65.09
   2  -3   3 1433.56   64.89
  -2   3   3 1399.36   64.29
   2  -3  -3 1512.55   64.59
   2  -3  -3 1474.25   62.39
  -2   3  -3 1420.36   64.39
   3  -3  -2 1502.65   62.49
  -2  -3   3 1525.75   63.49
  -3   2  -3 1494.85   65.19
   3   2   3 1326.97   66.09
  -3   3   3   68.89    9.60
   3  -3   3   42.30    8.20
  -3  -3   3   42.60    6.70
   3  -3  -3   47.60    5.90
   3  -3  -3   50.19    4.80
  -3   3  -3   47.60    8.90
  -4   0   0 4257.57  173.28
   0  -4   0 4194.08  174.68
   0   0  -4 4040.30  171.28
   0   0   4 4296.37  173.08
   0   4   0 3999.30  174.08
   4   0   0 3958.50  172.48
  -4   1   0  166.38   11.40
  -1   0  -4  165.18   10.90
  -1   0   4  175.18    9.90
   0  -4  -1  169.98   12.80
   0   4  -1  166.98   12.40
   4  -1   0  164.28   10.40
  -4  -1   0  161.38   12.40
   0  -4  -2 2728.33  118.59
   0  -4   2 2734.33  117.39
   0   4  -2 2591.74  116.49
   0  -4  -2 2859.81  120.99
   4  -2   0 2656.63  115.89
  -2   0   4 2734.83  114.19
  -2   0  -4 2802.72  116.99
   2   0   4 2830.52  117.79
  -4  -2   0 2702.53  118.59
  -4   2   0 2698.73  116.79
   0  -4  -3  134.09   17.80
   0  -4  -3  138.79   13.90
  -4  -3   0  114.79   16.10
  -4   3   0   95.69   14.40
  -3   0  -4  109.29   13.70
  -3   0   4  125.69    7.40
   0  -4   3  117.29   11.90
   0   4  -3  127.79   11.00
   3   0   4  124.59   12.40
   0   1   4  165.98   11.70
  -4   0  -1  166.58   12.40
  -4   0   1  160.78   10.30
   0   1  -4  159.58    8.80
   0  -1   4  168.78   10.40
   1  -4   0  166.28   12.00
   4   0   1  184.88   11.80
   0  -1  -4  164.78   10.80
   0  -1  -4  178.98   10.10
  -1   4   0  153.38   12.20
  -4  -1  -1 2554.34  101.69
  -1  -4  -1 2277.47  102.19
  -1  -1  -4 2415.16   99.79
  -1   4   1 2314.47  100.79
  -1   1   4 2346.17   99.49
   4  -1   1 2345.77   99.79
  -4   1   1 2408.76   98.99
  -1  -4  -1 2205.28  102.89
   1  -4   1 2372.26  100.69
   1  -1   4 2265.97   99.59
  -1  -4   1 2095.29  100.99
  -1   4  -1 2374.06  100.49
  -4  -1   1 2436.26   99.59
   1  -4  -1 2401.56  100.69
   1   1   4 2056.89  100.39
   4  -1  -1 2250.87   96.79
  -4   1  -1 2442.06  100.49
   4   1   1 2243.98  100.29
  -1   1  -4 2410.56   98.99
  -1  -1   4 2348.76   98.09
  -2  -1  -4  154.68   13.30
  -4  -2  -1  187.38   16.70
  -2   1   4  141.89   11.10
  -1  -4  -2  186.88   15.60
  -4   2   1  171.78   11.90
  -1   4   2  149.79   13.20
  -1  -4  -2  184.88   18.90
   1  -4   2  164.08   12.60
   2  -1   4  160.68   12.30
  -1  -4   2  136.89   12.80
  -2   1  -4  197.78   13.10
  -2  -1   4  162.48    8.80
  -1   4  -2  194.98   13.50
   1  -4  -2  157.78   17.20
   2   1   4  181.88   13.70
   4  -2  -1  162.68    9.90
  -4  -2   1  169.08   13.80
  -4   2  -1  175.58   13.40
   1  -4  -2  181.78   12.70
  -3  -1  -4 1245.88   55.29
  -3   1   4 1086.69   50.69
  -1  -4  -3 1235.58   59.59
   3  -1   4 1106.89   53.99
   4  -3   1 1145.09   53.49
  -4  -3  -1 1136.49   59.29
  -4   3   1 1160.58   53.69
   4  -3  -1 1226.58   51.89
  -4  -3   1 1133.09   54.79
  -3   1  -4 1212.98   54.39
   3   1   4 1143.79   55.09
  -1  -4   3 1199.28   53.49
  -4   3  -1 1174.28   54.09
   1  -4  -3 1168.28   53.49
   1  -4  -3 1185.38   57.89
  -1   4  -3 1227.88   53.59
  -3  -1   4 1129.39   48.80
  -2   4   0 2677.33  114.59
   4   0   2 2604.44  114.39
   2  -4   0 2669.93  114.29
  -2  -4   0 2754.72  116.49
   0   2  -4 2640.44  111.49
  -4   0   2 2652.63  111.49
   0  -2   4 2701.63  113.09
   0  -2  -4 2544.55  113.59
  -4   0  -2 2719.63  114.89
  -1  -2  -4  164.68   13.80
   1  -2   4  200.98   11.70
  -2   4   1  175.28   13.70
  -4   1   2  166.28   10.20
  -4  -1  -2  182.68   15.40
   4  -1   2  167.48   12.40
   2  -4   1  159.08   12.70
  -1   2   4  149.59   13.20
  -2  -4  -1  180.58   17.60
  -2  -4  -1  157.18   15.70
  -2   4  -1  171.08   13.20
   1  -2  -4  164.28    9.30
  -4   1  -2  178.58   13.80
   4   1   2  156.18   13.50
  -1   2  -4  170.48   11.40
   1  -2  -4  163.18    9.70
  -1  -2   4  156.68   10.20
   2  -4  -1  140.39   12.20
   1   2   4  157.98   13.90
  -4  -1   2  167.08   10.60
   4  -2   2 1761.62   77.19
   2  -2   4 1754.62   77.09
  -2  -2  -4 1751.52   78.59
  -4   2   2 1777.22   75.49
  -4  -2  -2 1831.72   80.19
   2  -4  -2 1852.41   76.29
  -2   2  -4 1820.42   76.69
  -4  -2   2 1599.14   75.49
  -2  -2   4 1767.72   73.99
   2  -4  -2 1738.13   80.29
   4   2   2 1534.15   77.79
  -4  -3  -2  130.49   18.40
  -3   2   4  102.69   10.50
  -4   3   2   97.09   11.30
  -2   4   3  121.59   13.30
  -2  -4  -3  134.49   15.40
   3  -2   4  100.99   12.00
   2  -4   3  108.19   12.50
   4  -3   2  111.29   12.00
  -3  -2   4  118.99    7.60
   4  -3  -2  113.49    8.10
   3   2   4  105.09   13.60
  -3   2  -4  131.79   13.80
  -2   4  -3  111.59   12.60
   2  -4  -3  113.99   14.70
   4  -3  -2   86.79   11.70
  -3   4   0  136.09   12.70
   0  -3  -4  120.09   14.40
   0  -3   4  145.99   10.60
   0   3  -4  131.49    9.40
   3  -4   0  126.89   11.70
  -4   0   3  122.89    7.20
  -3  -4   0  122.69   17.00
   1  -3   4 1174.28   52.99
  -1  -3  -4 1186.68   56.39
  -3   4   1 1158.28   53.49
   3  -4   1 1063.99   55.99
   4  -1   3 1141.99   53.69
  -1  -3  -4 1128.79   55.09
  -3  -4  -1 1193.18   57.39
  -4   1   3 1173.88   49.99
  -4  -1   3 1092.39   49.20
  -3  -4   1 1191.18   54.59
   3  -4  -1 1146.79   52.39
   4   1   3 1104.59   56.79
  -1  -3   4 1166.68   51.49
  -1   3  -4 1182.68   51.99
   1  -3  -4 1230.98   52.89
   1  -3  -4 1155.88   51.19
   4  -2   3  109.09   12.70
  -3   4   2  122.59   13.00
  -2  -3  -4  111.19   16.10
   3  -4   2  127.29   13.40
  -4   2   3  127.19   10.20
   2  -3   4  116.09   12.60
   2   3   4   99.49   13.30
   3  -4  -2  129.69   16.20
   2  -3  -4  116.69    8.30
   2  -3  -4  123.39    7.60
   4   2   3  106.69   13.50
  -2   3  -4  124.39   12.80
  -2  -3   4  109.59    9.60
  -4  -3  -3  487.55   47.50
   3  -4   3  615.04   32.40
   3  -3   4  606.84   32.30
  -4   3   3  606.14   32.20
  -3   4   3  594.94   32.10
  -3  -3  -4  602.14   37.00
   4  -3   3  628.24   32.70
  -3   3   4  575.24   31.80
  -3   4  -3  665.53   32.90
  -3  -3   4  635.34   28.60
   3  -4  -3  533.85   32.70
   3  -4  -3  628.74   28.50
  -4  -3   3  539.35   29.20
  -4   3  -3  632.94   33.40
   3   3   4  501.55   33.60
  -4  -4   0  918.61   45.90
  -4   0  -4  901.51   43.30
  -4   0   4  835.22   36.40
  -4   4   0  890.91   42.70
   0  -4  -4  824.82   43.90
   0  -4   4  769.22   45.10
   0   4  -4  804.62   39.20
   4   0   4  909.31   43.40
  -4  -4  -1  147.19   20.30
   4  -4   1  141.29   14.40
  -4  -1  -4  148.09   16.60
  -1  -4  -4  129.49   18.30
  -4   1   4  129.59    9.40
   4  -1   4  135.19   13.80
  -4   4   1  134.39   14.50
   1  -4   4  100.99   13.50
  -4   1  -4  137.49   16.00
  -4   4  -1  141.39   15.00
   1  -4  -4  131.59   19.10
   1  -4  -4  114.79   12.80
  -1  -4   4  135.49   12.80
   4  -4  -1  145.29   12.40
  -4  -4   1  137.89   17.20
  -1   4  -4  119.89   13.60
   4   1   4  101.39   15.00
  -4  -4  -2  737.93   41.10
   2  -4   4  607.24   33.50
  -4  -2  -4  629.34   38.30
   4  -2   4  584.84   33.20
   4  -4   2  601.04   32.90
  -4   2   4  586.44   29.70
  -2  -4  -4  576.94   34.90
  -4   4   2  632.14   32.80
  -2  -4  -4  641.74   40.30
  -4   4  -2  600.64   33.40
  -2  -4   4  629.84   31.20
   2  -4  -4  612.74   29.10
  -4  -4   2  579.24   32.50
   4  -4  -2  543.35   35.10
   4  -4  -2  637.54   29.40
  -4   2  -4  621.04   33.70
  -4  -2   4  576.64   27.40
   4   2   4  585.84   35.10
  -4  -4  -3   56.89   19.00
   3  -4   4  117.29   14.30
  -4  -3  -4   72.69   18.60
   4  -3   4   99.99   12.90
   4  -4   3   94.69   13.70
  -4   3   4   86.89   11.10
  -3  -4  -4   96.49   20.00
  -4   4   3   93.09   12.40
  -3   4   4   76.59   12.30
  -4   4  -3  102.29   14.40
  -3   4  -4   71.09   12.70
  -4  -4   3   80.49   11.50
   4  -4  -3   80.99    9.20
   4  -4  -3   79.59    7.40
  -4   3  -4  121.69   15.50
  -4  -3   4   92.99   10.90
   4   3   4   56.09   14.10
  -4  -4  -4  214.68   29.70
   4  -4   4  234.08   24.30
  -4   4   4  246.28   22.70
  -4   4  -4  234.08   25.80
  -4  -4   4  248.68   19.60
  -5   0   0  100.59   11.30
   0  -5   0   99.99   13.30
   0   0  -5   98.99    6.60
   0   0  -5  109.69    7.50
   5   0   0   88.79    9.30
  -5   1   0 1133.79   50.89
  -1   0  -5 1117.79   49.50
  -1   0   5 1127.09   49.50
   0  -5  -1 1115.59   53.49
   0  -5   1 1067.29   52.39
   0   5  -1 1015.50   51.69
   1   0   5 1094.19   51.29
   5  -1   0 1106.69   49.30
  -5  -1   0 1180.98   51.99
  -5  -2   0  112.69   15.90
  -5   2   0   83.69   11.80
  -2   0  -5  117.49   12.30
  -2   0   5   90.29    8.50
   0  -5  -2   99.49   13.20
   0  -5   2  118.89   14.40
   0   5  -2   94.89   11.30
   2   0   5  102.39   17.60
   3   0   5  530.75   31.70
  -5  -3   0  563.04   34.70
  -5   3   0  609.74   31.80
   5  -3   0  613.24   29.60
   0  -5   3  602.04   32.20
   0  -5  -3  561.54   33.40
  -3   0   5  550.64   26.90
   0  -5  -4  109.09   19.90
   0  -5  -4  106.29   15.10
  -5  -4   0   67.69   15.40
   5  -4   0   70.09   11.00
   4   0   5   77.49   12.70
   0  -5   4  106.09   15.20
  -5   4   0   78.99   12.90
  -4   0  -5   75.79   14.70
   0   1  -5 1014.20   45.40
  -1   5   0 1012.70   50.29
  -1  -5   0 1061.59   52.19
   0  -1  -5 1060.99   46.80
   0   1   5 1049.00   49.40
   0  -1  -5 1091.89   46.20
  -5   0   1 1113.89   48.00
   1  -5   0 1071.49   50.29
   1  -5   1   52.49    9.10
  -5   1   1   29.80    6.40
  -5  -1  -1   28.50   11.60
   1  -1   5   43.00    7.30
  -1  -1  -5   36.50    7.10
  -1  -5  -1   38.20   10.20
  -1  -1   5   39.10    5.90
  -1   5  -1   44.40    8.70
   1   1   5   35.10    8.10
  -5  -1   1   41.70    7.60
  -1   1  -5   34.60    6.20
   1  -5  -1   46.30    8.90
  -1  -5   1   46.60   11.30
  -5   1  -1   37.10    8.30
  -2   1   5  762.02   38.20
  -5  -2  -1  857.31   43.60
   1  -5   2  791.72   40.70
   2  -1   5  805.02   40.20
   5  -2   1  808.42   39.10
  -5   2   1  848.62   39.40
  -2  -1  -5  783.92   42.20
  -1  -5  -2  799.72   43.00
  -2   1  -5  835.42   39.20
  -5  -2   1  801.72   40.50
   2   1   5  849.81   41.80
   5  -2  -1  837.72   36.00
   1  -5  -2  799.22   41.00
  -2  -1   5  792.02   36.10
  -1  -5   2  835.92   41.60
   1  -5  -2  797.02   45.50
  -5   2  -1  820.72   40.20
  -1   5  -2  774.62   39.90
  -1  -5  -3   76.59   13.80
  -5  -3  -1   57.09   14.50
   3  -1   5   47.50   10.10
   5  -3   1   73.89    9.80
  -1  -5  -3   78.99   17.00
  -5   3   1   63.59    9.90
   1  -5   3   59.39   10.20
  -1   5  -3   72.89   10.70
  -1  -5   3   61.49   10.60
  -3  -1   5   57.59    5.90
   1  -5  -3   68.39   17.50
  -5   3  -1   50.59   10.70
   3   1   5   66.49   11.70
   5  -3  -1   65.49    8.70
  -5  -3   1   64.99   14.40
   1  -5  -3   75.99   11.60
  -1  -5  -4  346.57   34.30
  -5   4   1  368.06   25.10
  -1  -5  -4  327.07   28.20
  -4  -1  -5  382.76   28.70
   5  -4   1  350.46   24.10
  -5  -4  -1  381.46   33.20
   1  -5   4  342.17   24.30
   4  -1   5  363.96   25.60
  -1   5  -4  304.17   23.10
   5  -4  -1  316.67   20.80
  -4   1  -5  364.86   26.20
   1  -5  -4  326.07   24.40
  -5   4  -1  332.17   26.60
  -5  -4   1  355.26   28.00
   4   1   5  290.37   24.80
  -1  -5   4  347.27   24.00
  -5   0  -2  107.99   13.00
   0  -2   5   89.49    9.90
   5   0   2  105.89   12.40
   0   2   5   90.09   12.10
   0  -2  -5  102.89   10.60
   0  -2  -5   94.59   10.50
   2  -5   0  129.79   13.30
  -2  -5   0   96.19   13.50
  -5   0   2   95.79    8.80
   2  -5   1  787.52   40.10
  -1   2   5  707.63   39.70
  -2  -5  -1  854.51   43.60
  -1  -2  -5  779.52   40.40
  -2   5   1  782.52   40.80
  -5   1   2  803.92   37.00
  -1  -2  -5  821.12   39.70
  -5  -1  -2  825.02   41.70
  -2  -5  -1  784.82   44.50
  -5  -1   2  854.71   37.20
  -1  -2   5  820.32   37.00
   5   1   2  769.82   39.90
  -1   2  -5  803.12   37.10
  -5   1  -2  843.02   40.80
  -2  -5   1  779.22   42.10
   1   2   5  777.42   41.00
   2  -5  -1  811.22   39.50
  -5  -2  -2   91.29   15.10
   2  -5   2   79.29   11.20
   2  -2   5   98.89   13.00
  -2  -5  -2  107.69   15.30
  -5   2   2   93.19   11.30
  -2  -2  -5  104.09   13.40
   5  -2   2   99.09   11.70
  -2   5   2   96.79   13.10
  -2   5  -2   70.49   11.30
  -2  -2   5   86.79    8.30
   2  -5  -2   93.79   13.40
  -5   2  -2   98.79   12.80
  -2  -5   2   98.89   13.70
   2  -5  -2   80.49   15.90
  -5  -2   2   89.29   12.90
   2   2   5   95.39   13.90
  -2   2  -5  108.19   12.60
  -5   3   2  452.85   25.70
   5  -3   2  421.06   26.50
  -2  -5  -3  450.45   35.90
   2  -5   3  463.55   27.60
   3  -2   5  446.96   27.70
  -3  -2  -5  414.76   30.60
  -2  -5  -3  472.25   31.30
  -2   5   3  371.96   27.00
  -5  -3  -2  519.45   35.60
  -2   5  -3  497.95   27.50
  -5   3  -2  431.36   28.70
  -3  -2   5  416.06   20.70
  -3   2  -5  388.66   26.40
   2  -5  -3  428.06   27.80
  -5  -3   2  446.16   27.30
   3   2   5  394.26   28.40
  -2  -5   3  480.85   28.10
   2  -5  -3  506.25   35.00
  -4  -2  -5   81.69   18.40
  -2  -5  -4   90.09   22.10
   5  -4   2   76.49   12.80
  -5  -4  -2   75.59   21.40
  -5   4   2   70.19   13.00
  -2  -5  -4   75.39   16.00
   4  -2   5   85.39   14.10
   2  -5   4   61.69   12.60
   2  -5  -4   69.29   13.70
   2  -5  -4   90.59   21.90
   5  -4  -2   46.60   11.90
   5  -4  -2   68.69    9.70
  -5   4  -2   84.89   15.40
  -2   5  -4   70.19   14.00
  -2  -5   4   69.29   12.50
   4   2   5   52.79   14.20
  -4  -2   5   90.59    6.90
  -4   2  -5   54.09   13.90
  -5  -4   2   74.69   14.20
  -5   0  -3  606.84   34.00
  -3  -5   0  548.65   33.30
   0  -3  -5  642.94   31.90
   0  -3   5  577.24   34.10
  -5   0   3  565.24   26.50
   5   0   3  596.34   32.20
  -3   5   0  532.75   31.50
   3  -5   0  534.15   31.00
   0  -3  -5  609.04   30.00
  -3  -5   0  567.44   36.30
   1  -3   5   57.39    9.10
  -1  -3  -5   65.59   13.40
   3  -5   1   45.10    9.50
  -3   5   1   57.89   10.90
  -5   1   3   59.99    7.00
   5  -1   3   55.99    9.90
  -3  -5  -1   81.49   13.80
  -1  -3  -5   51.79   14.00
  -5  -1  -3   57.29   13.70
  -3  -5  -1   47.90   14.60
  -5  -1   3   63.69    7.50
   1   3   5   35.80   11.10
   3  -5  -1   49.80    9.10
  -1   3  -5   55.79    8.10
   1  -3  -5   64.49    9.40
  -3  -5   1   58.79   12.60
  -1  -3   5   65.49    8.20
   5   1   3   48.40   10.80
   1  -3  -5   59.09    7.60
  -3   5  -1   63.79   11.00
  -5   1  -3   58.19   11.60
  -5  -2  -3  457.65   31.70
  -3  -5  -2  422.76   28.30
  -5   2   3  415.36   22.80
   2  -3   5  422.46   25.60
  -3   5   2  400.66   26.90
   3  -5   2  394.56   25.60
   5  -2   3  429.56   26.40
  -3  -5  -2  458.15   34.80
  -2  -3  -5  423.06   28.60
  -2  -3  -5  461.05   30.80
  -3  -5   2  398.26   27.80
  -3   5  -2  380.96   26.80
  -5  -2   3  390.66   22.60
   3  -5  -2  410.66   31.90
   3  -5  -2  402.16   24.10
  -5   2  -3  418.76   27.60
  -2   3  -5  428.86   25.00
   2   3   5  384.36   28.90
   5   2   3  355.06   27.50
  -5   3   3   82.29   11.10
   5  -3   3   58.39   12.10
   3  -5   3   66.79   12.30
   3  -3   5   65.59   11.70
  -3  -3  -5   94.69   19.40
  -5  -3  -3   49.10   19.90
  -3  -5  -3   39.60   13.80
  -3  -5  -3   80.99   20.00
  -3   5   3   75.49   13.80
  -5   3  -3   68.99   14.40
  -5  -3   3   59.39   10.80
  -3  -5   3   47.80   12.40
   3  -5  -3   68.79   17.10
  -3   5  -3   60.19   13.40
  -3   3  -5   63.69   12.40
   3   3   5   53.29   14.60
  -3  -3   5   64.59    9.30
   3  -5  -3   60.39    9.30
   4  -3   5  204.58   24.20
   3  -5   4  159.48   22.90
  -3  -5  -4  184.28   26.60
  -5   4   3  242.88   22.50
  -4  -3  -5  183.58   29.90
   5  -4   3  257.57   22.30
   4   3   5  192.58   26.80
  -3  -5   4  232.48   22.70
  -4  -3   5  182.08   13.70
  -5  -4   3  205.58   22.50
   3  -5  -4  160.18   22.30
   3  -5  -4  135.09   13.60
  -5  -4   3  196.38   21.40
  -3   5  -4  183.08   24.30
  -4   3  -5  170.88   23.80
  -4   5   0   84.49   14.10
   5   0   4   77.69   12.60
   0  -4  -5   73.39   15.50
  -4  -5   0   96.19   16.50
  -4  -5   0   86.29   13.80
  -5   0   4   85.49    7.30
  -5   0  -4   80.69   15.60
   0  -4   5   79.79   11.10
   4  -5   0   73.99   11.30
   0  -4  -5   71.09   13.00
   5  -1   4  339.47   25.20
  -5   1   4  312.97   18.20
  -4  -5  -1  300.07   26.20
  -4   5   1  325.07   24.90
  -1  -4  -5  363.46   31.20
  -1  -4  -5  360.26   28.00
   1  -4   5  354.16   24.00
  -5  -1  -4  337.77   27.70
  -4  -5  -1  378.06   32.50
   4  -5   1  352.96   24.50
  -1  -4   5  310.77   21.60
  -4  -5   1  362.86   27.10
  -5  -1   4  320.27   15.80
  -5   1  -4  366.66   27.60
   1  -4  -5  383.66   20.50
   1  -4  -5  369.36   25.50
  -1   4  -5  342.97   22.00
  -4  -5   1  351.06   29.00
   5   1   4  334.27   25.40
  -4   5  -1  345.17   24.80
   4  -5   2   66.89   13.00
   5  -2   4   90.89   14.20
  -4   5   2   75.39   13.50
  -2  -4  -5   58.99   20.60
  -4  -5  -2   80.19   21.20
  -5  -2  -4   37.40   18.40
   2  -4   5   71.69   12.70
  -4  -5  -2  103.89   16.40
  -2  -4  -5   78.39   16.30
  -5   2   4   84.69   10.10
   2  -4  -5   74.09    8.00
  -5  -2   4   82.09   10.80
  -4  -5   2   76.49   14.20
  -2  -4   5   78.99   16.30
   2  -4  -5   68.99    8.20
  -4   5  -2   62.29   14.10
   5   2   4   52.79   14.30
  -5   2  -4   84.99   15.90
  -4   5   3  226.08   24.50
  -5   3   4  192.38   19.40
  -3  -4  -5  125.19   19.80
  -4  -5  -3  187.18   26.60
   5  -3   4  192.88   22.30
   3  -4   5  195.38   23.30
  -3  -4  -5  156.68   28.20
   4  -5   3  217.58   24.50
  -3   4  -5  201.88   23.40
   4  -5  -3  171.88   24.90
  -4  -5   3  169.38   23.40
  -3  -4   5  225.28   17.20
  -5  -3   4  188.78   18.00
  -5  -3   4  155.48   16.00
  -5   4   4   51.39   15.30
  -4  -5   4   51.79   15.60
  -5  -5   0  224.18   31.10
   0  -5  -5  170.28   26.30
   0  -5  -5  182.18   24.60
   0  -5   5  181.78   21.40
   5  -5   0  168.68   20.70
   5   0   5  147.99   21.70
  -5  -5  -1   63.49   29.40
   5  -1   5   57.59   15.80
  -1  -5  -5   74.09   18.20
  -5   1   5   52.79    8.90
  -1  -5  -5   59.39   25.40
   5  -5   1   29.50   13.10
   1  -5   5   45.40   13.60
  -5  -5   1   61.59   14.40
   1  -5  -5   53.19   12.90
  -1  -5   5   58.39   12.40
   5  -5  -1   44.50   11.50
   1  -5  -5   17.00   24.40
  -5  -5   1   86.39   19.40
   5   1   5   51.79   16.20
   5  -5   2  178.68   24.10
  -2  -5  -5  131.79   22.70
  -2  -5  -5  156.68   32.40
   2  -5   5  137.29   21.60
  -5  -5   2  122.29   18.60
  -2   5  -5  120.69   17.30
  -2  -5   5  133.69   16.10
   5  -5  -2  181.68   17.10
  -5  -5   2  204.68   28.40
  -5  -5   3   45.20   19.60
  -5  -5   3   25.20   16.30
  -3  -5   5   53.19   14.10
  -3   5  -5   34.70   19.80
  -6   0   0  670.43   35.20
   0  -6   0  663.83   38.30
   0  -6   1  139.39   17.70
   1   0   6  103.29   15.10
   6  -1   0   76.89   10.90
   0  -6  -1   87.89   15.00
  -1   0   6   91.19   12.40
  -6  -1   0  101.19   13.40
  -6   1   0  121.19   14.70
  -1   0  -6   92.89   11.40
   0  -6  -2  436.86   30.80
   0  -6  -2  528.05   37.60
   0  -6   2  487.65   30.80
   2   0   6  482.15   29.60
   6  -2   0  434.86   24.80
  -2   0  -6  433.96   29.20
  -6   2   0  458.55   28.40
  -6  -2   0  504.95   32.00
  -6   3   0   74.99   13.40
   6  -3   0   58.29   10.00
   3   0   6   73.79   14.60
   0  -6   3   76.89   14.20
  -3   0  -6   79.99   14.40
  -6  -3   0   74.89   16.90
   0  -6  -3   96.59   16.80
  -3   0   6   76.89    9.90
   0  -6  -3   67.29   20.80
   0  -6   4  197.68   24.10
   4   0   6  170.88   28.70
   0  -6  -4  220.28   29.90
  -6  -4   0  143.29   23.00
   0  -6  -4  229.78   28.90
   6  -4   0  178.58   19.70
  -4   0  -6  129.59   20.50
   0  -6  -5   84.79   33.60
   0  -6  -5   64.49   22.00
   6  -5   0   39.70   16.10
   1  -6   0  116.89   16.90
  -6   0  -1  136.69   17.50
   0  -1  -6   98.49    7.10
  -1  -6   0   91.39   15.00
   0  -1  -6   98.69    7.30
   0   1   6   88.99   12.40
  -1   6   0  112.89   14.40
  -6  -1  -1  509.95   30.90
  -1   1   6  490.45   28.10
  -1  -6  -1  457.85   32.30
   1  -6   1  481.15   30.30
   6  -1   1  454.65   26.70
   1  -1   6  468.75   28.20
  -1  -1  -6  531.55   26.40
  -1  -6  -1  429.86   35.20
  -6   1   1  463.15   26.80
  -1  -1   6  509.75   25.90
  -1   6  -1  456.95   29.90
   1  -6  -1  463.25   29.40
  -6   1  -1  506.55   30.00
  -1  -6   1  521.05   32.30
   1   1   6  482.75   29.80
  -1   1  -6  476.55   24.60
   2  -1   6   87.99   12.70
  -6   2   1  109.49   15.00
  -2  -1  -6   93.89   13.30
  -1  -6  -2   72.49   19.60
  -6  -2  -1   92.29   17.10
   1  -6   2  107.79   14.40
   6  -2   1   97.59   13.80
  -1  -6  -2  108.69   16.90
   1  -6  -2   62.89   18.10
  -1  -6   2   86.79   14.70
   2   1   6  128.29   15.60
  -6   2  -1   86.49   13.80
  -1   6  -2  104.49   14.50
   1  -6  -2   71.89   13.60
  -6  -2   1   94.09   14.50
   6  -3   1  271.97   21.70
  -6   3   1  291.37   23.30
  -6  -3  -1  287.57   32.30
  -1  -6  -3  241.38   35.20
  -1  -6  -3  257.07   27.80
   3  -1   6  276.67   23.30
  -3  -1  -6  312.27   26.70
   1  -6   3  278.07   23.30
  -6   3  -1  257.07   25.00
   3   1   6  277.07   26.10
  -6  -3   1  271.07   27.40
  -3   1  -6  251.07   23.80
   1  -6  -3  360.06   35.00
   1  -6  -3  214.88   24.40
  -3  -1   6  283.87   16.10
  -1  -6   3  238.58   24.50
  -1   6  -3  271.27   24.40
   6  -3  -1  266.97   16.30
  -1  -6  -4   63.09   26.80
  -4  -1  -6   42.80   19.50
   6  -4   1   42.80   14.00
   1  -6   4   51.49   16.10
  -1  -6  -4   79.79   20.70
  -6   4   1   53.59   18.60
   1  -6  -4   40.70   15.40
   6  -4  -1   44.30   10.30
  -6  -4   1   69.69   18.80
  -1  -6   4   54.59   15.50
   1  -6  -4   64.79   26.30
  -4   1  -6   38.10   17.60
  -1   6  -4   33.10   14.30
   6  -5   1   67.29   19.00
  -6  -5   1   88.09   21.00
  -1  -6   5   90.29   23.00
   1  -6  -5   91.29   23.70
   0  -2   6  480.15   26.80
  -2  -6   0  480.65   33.20
  -2   6   0  454.45   30.20
  -6   0  -2  500.25   32.00
   0  -2  -6  480.95   23.60
   0  -2  -6  458.35   23.50
   0   2   6  422.06   29.80
   2  -6   0  450.15   29.20
   6   0   2  452.65   28.40
  -6   0   2  463.25   24.90
   1  -2   6   95.19   13.10
  -1  -2  -6   90.59   12.40
  -1   2   6   94.69   13.80
   6  -1   2   82.49   12.00
  -2  -6  -1   78.49   19.30
   2  -6   1   91.89   13.90
  -6   1   2  114.39   16.20
  -2  -6  -1   92.59   16.50
  -6  -1  -2  129.09   18.10
  -2   6   1   95.59   15.00
  -1  -2  -6  115.09   14.00
  -2  -6   1   95.49   16.10
  -1   2  -6  103.09   11.50
  -6   1  -2  119.09   15.50
  -1  -2   6   90.39   12.00
   6   1   2   59.09   12.20
   2  -6  -1  103.19   14.60
  -6  -1   2  103.49   13.40
   1   2   6   94.29   14.50
  -2   6  -1   79.69   13.90
  -2  -6  -2  356.56   30.30
   2  -6   2  308.17   25.80
  -6   2   2  365.36   22.90
  -2  -6  -2  388.96   33.70
   6  -2   2  328.37   24.20
   2  -2   6  355.96   25.40
  -2   6   2  276.07   26.80
  -6  -2  -2  345.27   33.00
  -2   2  -6  314.57   26.30
  -6   2  -2  370.26   26.70
   2  -6  -2  331.97   25.00
  -6  -2   2  344.47   24.30
  -2   6  -2  343.67   26.50
   2   2   6  285.17   26.50
  -2  -6   2  346.47   28.90
   2  -6  -2  368.96   34.90
  -2  -6  -3   68.19   18.50
  -2  -6  -3   62.19   34.00
   6  -3   2   69.19   13.40
   3  -2   6   80.29   14.50
   2  -6   3   80.69   14.90
  -6  -3  -2   45.70   21.80
  -3  -2  -6   67.19   19.50
  -6   3   2   69.69   13.50
  -2  -6   3   43.50   14.90
   2  -6  -3   79.19   14.90
  -3   2  -6   88.89   14.80
  -3  -2   6   72.29    9.90
  -2   6  -3   92.19   16.10
  -6  -3   2   94.99   15.80
   3   2   6   88.49   17.40
   2  -6  -3   97.19   22.40
  -6   4   2  143.49   20.70
   6  -4   2  122.59   18.50
  -2  -6   4  180.38   20.80
  -6  -4   2  171.58   21.30
  -4   2  -6  107.59   21.10
  -2   6  -4  137.19   19.70
   2  -6  -4   57.39   26.10
   2  -6  -4  182.78   22.60
  -6   0  -3   86.09   16.80
   6   0   3   86.69   13.80
   3  -6   0   77.89   13.10
  -3  -6   0  111.69   20.60
  -6   0   3   86.39   11.10
   0  -3   6   65.99   10.80
  -3   6   0   72.29   14.90
   0  -3  -6   86.79   12.10
  -3  -6   0   86.69   17.50
  -3   6   1  238.88   25.60
   1  -3   6  262.07   21.70
  -1  -3  -6  295.27   29.60
  -3  -6  -1  259.47   33.10
  -3  -6  -1  273.67   26.70
  -1  -3  -6  232.58   24.20
  -6   1   3  282.87   18.10
  -6  -1  -3  286.17   31.00
   6  -1   3  220.28   22.20
   3  -6   1  283.57   24.30
   3  -6  -1  241.38   22.30
   1   3   6  217.28   25.50
  -6   1  -3  240.18   26.40
  -3  -6   1  274.87   27.50
  -1  -3   6  286.77   19.30
  -1   3  -6  271.07   17.90
  -3   6  -1  248.48   24.40
   6   1   3  242.58   24.30
  -6  -1   3  271.27   17.00
  -2  -3  -6   77.89   19.10
  -2  -3  -6   84.99   17.00
   3  -6   2   57.89   16.10
  -3  -6  -2   60.79   17.70
  -3   6   2   42.70   18.40
   2  -3   6   58.69   12.70
   6  -2   3   62.29   13.80
  -6   2   3   58.49   10.60
   3  -6  -2   93.09   14.30
   3  -6  -2   83.29   22.60
   2   3   6   82.29   17.70
  -3  -6   2   37.20   15.60
  -2   3  -6   86.79   15.10
  -3   6  -2   43.00   15.20
  -2  -3   6   82.99   10.40
  -6  -2   3   83.19   11.70
   6   2   3   58.69   15.70
  -6   3   3  157.28   21.30
  -3  -3  -6  129.09   25.20
   6  -3   3  182.98   24.50
  -3  -6   3  161.28   21.60
   3  -6  -3  163.48   21.10
   3  -6  -3  181.38   28.00
  -3   3  -6  176.58   25.20
  -3  -6   4   50.09   19.50
  -4  -6   0  210.18   27.80
   0  -4  -6  153.58   29.30
   0  -4   6  181.28   20.30
   4  -6   0  230.28   23.40
   0  -4  -6  192.88   26.40
   6   0   4  159.78   23.00
  -6   1   4   73.99   13.00
  -4  -6  -1   91.59   20.50
   6  -1   4   61.19   15.80
   4  -6   1   64.29   15.90
  -1  -4  -6   49.80   16.00
  -1  -4  -6   55.79   21.70
   1  -4   6   56.49   13.60
  -4  -6   1   44.60   23.00
   6   1   4   77.89   17.90
  -4  -6   1   49.90   16.70
   4  -6  -1   60.99   14.40
  -1  -4   6   55.19   12.50
  -2  -4  -6  124.29   29.60
  -2  -4  -6  130.89   21.70
  -6   2   4  157.08   21.20
   6   2   4   94.99   21.00
   4  -6  -2  159.28   21.50
  -2  -4   6  146.89   18.80
  -4  -6   2  128.69   25.80
   4  -6  -2  135.89   26.50
  -4  -6   2  132.49   21.40
  -3   4  -6   55.49   19.90
  -4  -6   3   54.69   20.70
   5  -6   0   36.30   17.90
   0  -5   6   47.70   19.00
  -1  -5  -6   87.59   22.40
  -1  -5  -6  111.79   44.70
   5  -6  -1   73.79   17.50
  -1  -5   6   98.09   18.30
  -7   0   0   66.89   15.10
   0  -7   0   98.69   19.30
   0   0   7   99.19   14.20
  -1   0  -7  189.88   16.40
  -1   0   7  224.28   21.60
   0  -7  -1  210.28   29.50
   0  -7   1  265.87   29.80
   1   0   7  206.68   24.30
  -1   0  -7  243.38   17.60
  -7  -1   0  253.57   27.10
  -7   1   0  240.18   24.40
   2   0   7   76.49   17.20
  -7   2   0   60.39   15.70
  -2   0  -7   31.60   13.00
   0  -7   2   62.59   20.40
  -7  -2   0   75.99   19.80
   0  -7  -2   55.69   20.80
  -7  -3   0  130.09   31.50
  -3   0  -7   87.89   19.60
  -7   0  -1  211.78   26.40
   0   1   7  254.57   25.00
   1  -7   0  269.67   27.30
  -1  -7   0  227.58   31.40
  -7   0   1  229.48   22.90
   0  -1   7  241.78   23.00
   1  -1   7   50.39   13.80
  -1   1   7   61.99   14.30
  -7   1   1   68.09   13.60
   7  -1   1   66.29   12.90
  -7  -1  -1   42.80   18.00
   1  -7   1   52.19   17.30
  -1  -1  -7   69.59   11.80
  -1  -7  -1   67.69   20.70
  -7  -1   1   59.49   14.50
  -1  -1   7   72.79   12.70
   1  -7  -1   60.09   18.00
  -1  -7   1   45.80   18.90
   1   1   7   47.50   15.40
  -7   1  -1   61.39   16.50
  -2   1   7  159.08   18.70
  -7   2   1  136.19   17.60
  -7  -2  -1  139.59   29.90
   2  -1   7  134.89   19.10
   7  -2   1  163.68   20.80
  -2  -1   7  192.48   19.60
  -7  -2   1  154.98   20.70
   1  -7  -2  126.99   21.00
   2   1   7  136.59   21.20
  -1  -7   2  166.58   24.80
  -3  -1  -7   57.39   21.30
   7  -3   1   47.70   13.70
  -3   1  -7   31.30   18.20
  -7  -3   1   42.90   21.80
   1  -7  -3   21.60   25.00
  -7   0   2   71.89   12.00
  -2  -7   0   62.19   27.10
   0   2   7   72.69   17.10
   7   0   2   20.40   14.00
   0  -2   7   44.80   12.80
   2  -7   0   83.09   18.40
  -1  -2  -7  174.08   20.50
  -1   2   7  121.89   19.50
   1  -2   7  166.58   23.00
  -7   1   2  211.88   20.60
   7  -1   2  174.58   22.80
   2  -7  -1  176.28   22.30
  -7  -1   2  145.49   20.80
  -1  -2   7  170.88   20.10
  -2  -7   1  137.69   25.90
   1   2   7  165.28   23.00
  -2  -2  -7   63.29   19.20
  -7   2   2   42.50   14.30
  -2  -2  -7   69.09   18.10
   7  -2   2   17.10   14.10
   2  -2   7   70.19   27.20
   2  -7  -2   39.00   18.70
  -7  -2   2   65.69   17.40
  -3  -2  -7   92.19   26.90
   7  -3   2   60.19   19.00
   2  -7  -3  101.29   22.50
   0  -3   7  122.19   16.80
   7   0   3  114.99   20.50
   7  -1   3   15.50   15.80
   1  -3   7   17.70   16.50
   7   1   3   45.00   18.70
   3  -7  -1   34.40   29.10
  -1  -3   7   40.60   12.80
   7  -2   3   82.19   23.60
  -2  -3  -7   59.49   21.00
   3  -7  -2   61.59   19.60
   0   0   0    0.00    0.00

_computing_structure_solution     'SHELXT 2014/5 (Sheldrick, 2014)'
;
_shelx_hkl_checksum              32851
_olex2_submission_special_instructions 'No special instructions were received'
loop_
_space_group_symop_operation_xyz
'x, y, z'
'-y, x, z'
'-x, -y, z'
'y, -x, z'
'x, -z, y'
'x, -y, -z'
'x, z, -y'
'z, y, -x'
'-x, y, -z'
'-z, y, x'
'z, x, y'
'y, z, x'
'-y, -z, x'
'z, -x, -y'
'-y, z, -x'
'-z, -x, y'
'-z, x, -y'
'y, -z, -x'
'y, x, -z'
'-y, -x, -z'
'-x, z, y'
'-x, -z, -y'
'z, -y, x'
'-z, -y, -x'
'-x, -y, -z'
'y, -x, -z'
'x, y, -z'
'-y, x, -z'
'-x, z, -y'
'-x, y, z'
'-x, -z, y'
'-z, -y, x'
'x, -y, z'
'z, -y, -x'
'-z, -x, -y'
'-y, -z, -x'
'y, z, -x'
'-z, x, y'
'y, -z, x'
'z, x, -y'
'z, -x, y'
'-y, z, x'
'-y, -x, z'
'y, x, z'
'x, -z, -y'
'x, z, y'
'-z, y, -x'
'z, y, x'
loop_
_atom_site_label
_atom_site_type_symbol
_atom_site_fract_x
_atom_site_fract_y
_atom_site_fract_z
_atom_site_U_iso_or_equiv
_atom_site_adp_type
_atom_site_occupancy
_atom_site_site_symmetry_order
_atom_site_calc_flag
_atom_site_refinement_flags_posn
_atom_site_refinement_flags_adp
_atom_site_refinement_flags_occupancy
_atom_site_disorder_group
Cs1 Cs 0.000000 0.000000 0.000000 0.0764(5) Uiso 1 48 d S T P .
Sn2 Sn -0.500000 -0.500000 -0.500000 0.0301(4) Uiso 0.9 48 d S T P 1
Cl3 Cl -0.500000 -0.500000 0.000000 0.1368(19) Uani 1 16 d S T P .
Mn Mn -0.500000 -0.500000 -0.500000 0.0301(4) Uiso 0.0998 48 d S T P 2
loop_
_atom_site_aniso_label
_atom_site_aniso_U_11
_atom_site_aniso_U_22
_atom_site_aniso_U_33
_atom_site_aniso_U_23
_atom_site_aniso_U_13
_atom_site_aniso_U_12
Cl3 0.156(3) 0.156(3) 0.097(3) 0.000 0.000 0.000
loop_
_atom_type_symbol
_atom_type_description
_atom_type_scat_dispersion_real
_atom_type_scat_dispersion_imag
_atom_type_scat_source
Cl Cl 0.1484 0.1585 'International Tables Vol C Tables 4.2.6.8 and 6.1.1.4'
Sn Sn -0.6537 1.4246 'International Tables Vol C Tables 4.2.6.8 and 6.1.1.4'
Mn Mn 0.3368 0.7283 'International Tables Vol C Tables 4.2.6.8 and 6.1.1.4'
Cs Cs -0.3680 2.1192 'International Tables Vol C Tables 4.2.6.8 and 6.1.1.4'
loop_
_geom_angle_atom_site_label_1
_geom_angle_atom_site_label_2
_geom_angle_atom_site_label_3
_geom_angle
_geom_angle_site_symmetry_1
_geom_angle_site_symmetry_3
Cl3 Cs1 Cl3 120.0 8_565 .
Cl3 Cs1 Cl3 180.0 8 8_564
Cl3 Cs1 Cl3 120.0 5_656 8_564
Cl3 Cs1 Cl3 120.0 8_565 5_655
Cl3 Cs1 Cl3 120.0 1_665 8
Cl3 Cs1 Cl3 90.0 5 5_556
Cl3 Cs1 Cl3 90.0 5 5_655
Cl3 Cs1 Cl3 180.0 5_556 5_655
Cl3 Cs1 Cl3 60.0 5_656 8
Cl3 Cs1 Cl3 90.0 1_665 1_565
Cl3 Cs1 Cl3 120.0 . 8_564
Cl3 Cs1 Cl3 90.0 5_656 5_556
Cl3 Cs1 Cl3 60.0 1_665 8_564
Cl3 Cs1 Cl3 120.0 8_565 1_655
Cl3 Cs1 Cl3 60.0 1_655 5_655
Cl3 Cs1 Cl3 180.0 8_565 8_554
Cl3 Cs1 Cl3 90.0 8_554 8
Cl3 Cs1 Cl3 90.0 . 1_565
Cl3 Cs1 Cl3 120.0 5 8
Cl3 Cs1 Cl3 60.0 5 1_565
Cl3 Cs1 Cl3 90.0 8_565 8_564
Cl3 Cs1 Cl3 60.0 8_565 5_556
Cl3 Cs1 Cl3 90.0 8_554 8_564
Cl3 Cs1 Cl3 60.0 . 8_554
Cl3 Cs1 Cl3 60.0 5 8_564
Cl3 Cs1 Cl3 120.0 1_655 5_556
Cl3 Cs1 Cl3 90.0 5_656 5_655
Cl3 Cs1 Cl3 60.0 8_554 5_655
Cl3 Cs1 Cl3 120.0 5 1_665
Cl3 Cs1 Cl3 60.0 8_554 1_655
Cl3 Cs1 Cl3 90.0 8_565 8
Cl3 Cs1 Cl3 60.0 8_565 5_656
Cl3 Cs1 Cl3 60.0 8 1_655
Cl3 Cs1 Cl3 120.0 8_564 1_655
Cl3 Cs1 Cl3 60.0 8_554 5
Cl3 Cs1 Cl3 60.0 8_565 1_565
Cl3 Cs1 Cl3 120.0 8_554 1_565
Cl3 Cs1 Cl3 120.0 5_656 1_565
Cl3 Cs1 Cl3 180.0 5_656 5
Cl3 Cs1 Cl3 120.0 . 5_656
Cl3 Cs1 Cl3 120.0 8 1_565
Cl3 Cs1 Cl3 60.0 8_564 1_565
Cl3 Cs1 Cl3 60.0 8_565 1_665
Cl3 Cs1 Cl3 180.0 1_655 1_565
Cl3 Cs1 Cl3 60.0 . 5_556
Cl3 Cs1 Cl3 120.0 8_554 5_556
Cl3 Cs1 Cl3 180.0 . 1_665
Cl3 Cs1 Cl3 120.0 8_554 5_656
Cl3 Cs1 Cl3 120.0 1_665 5_556
Cl3 Cs1 Cl3 60.0 8 5_556
Cl3 Cs1 Cl3 120.0 8_554 1_665
Cl3 Cs1 Cl3 120.0 8_564 5_556
Cl3 Cs1 Cl3 60.0 1_565 5_556
Cl3 Cs1 Cl3 120.0 . 5_655
Cl3 Cs1 Cl3 60.0 1_665 5_655
Cl3 Cs1 Cl3 120.0 8_565 5
Cl3 Cs1 Cl3 60.0 8_564 5_655
Cl3 Cs1 Cl3 90.0 . 1_655
Cl3 Cs1 Cl3 120.0 1_565 5_655
Cl3 Cs1 Cl3 120.0 8 5_655
Cl3 Cs1 Cl3 120.0 5 1_655
Cl3 Cs1 Cl3 60.0 5_656 1_655
Cl3 Cs1 Cl3 90.0 1_665 1_655
Cl3 Cs1 Cl3 60.0 . 5
Cl3 Cs1 Cl3 60.0 . 8
Cl3 Cs1 Cl3 60.0 5_656 1_665
Cl3 Sn2 Cl3 90.0 8_554 .
Cl3 Sn2 Cl3 90.0 . 5_545
Cl3 Sn2 Cl3 90.0 5_545 8_454
Cl3 Sn2 Cl3 180.0 5_545 5
Cl3 Sn2 Cl3 90.0 1_554 5_545
Cl3 Sn2 Cl3 90.0 5 8_454
Cl3 Sn2 Cl3 90.0 8_554 1_554
Cl3 Sn2 Cl3 90.0 1_554 5
Cl3 Sn2 Cl3 180.0 8_554 8_454
Cl3 Sn2 Cl3 90.0 . 8_454
Cl3 Sn2 Cl3 180.0 . 1_554
Cl3 Sn2 Cl3 90.0 1_554 8_454
Cl3 Sn2 Cl3 90.0 8_554 5
Cl3 Sn2 Cl3 90.0 8_554 5_545
Cl3 Sn2 Cl3 90.0 . 5
Cs1 Cl3 Cs1 180.0 . 1_445
Cs1 Cl3 Cs1 90.0 . 1_455
Cs1 Cl3 Cs1 90.0 1_445 1_455
Cs1 Cl3 Cs1 90.0 1_445 1_545
Cs1 Cl3 Cs1 180.0 1_545 1_455
Cs1 Cl3 Cs1 90.0 . 1_545
Sn2 Cl3 Cs1 90.0 . 1_445
Sn2 Cl3 Cs1 90.0 1_556 1_445
Sn2 Cl3 Cs1 90.0 . 1_455
Sn2 Cl3 Cs1 90.0 1_556 .
Sn2 Cl3 Cs1 90.0 . .
Sn2 Cl3 Cs1 90.0 . 1_545
Sn2 Cl3 Cs1 90.0 1_556 1_545
Sn2 Cl3 Cs1 90.0 1_556 1_455
Sn2 Cl3 Sn2 180.0 1_556 .
Mn Cl3 Cs1 90.0 . .
Cl3 Mn Cl3 90.0 . 5
Cl3 Mn Cl3 90.0 . 5_545
Cl3 Mn Cl3 90.0 8_554 5_545
Cl3 Mn Cl3 90.0 8_554 5
Cl3 Mn Cl3 90.0 1_554 5_545
Cl3 Mn Cl3 90.0 . 8_454
Cl3 Mn Cl3 90.0 1_554 5
Cl3 Mn Cl3 180.0 5_545 5
Cl3 Mn Cl3 90.0 8_554 .
Cl3 Mn Cl3 90.0 5 8_454
Cl3 Mn Cl3 90.0 1_554 8_454
Cl3 Mn Cl3 90.0 5_545 8_454
Cl3 Mn Cl3 90.0 8_554 1_554
Cl3 Mn Cl3 180.0 8_554 8_454
Cl3 Mn Cl3 180.0 . 1_554
loop_
_geom_bond_atom_site_label_1
_geom_bond_atom_site_label_2
_geom_bond_distance
_geom_bond_site_symmetry_2
Cs1 Cl3 3.9157(5) 8_565
Cs1 Cl3 3.9157(5) 1_665
Cs1 Cl3 3.9157(5) 5_656
Cs1 Cl3 3.9157(5) 5_556
Cs1 Cl3 3.9157(5) 5
Cs1 Cl3 3.9157(5) 8_564
Cs1 Cl3 3.9157(5) .
Cs1 Cl3 3.9157(5) 1_655
Cs1 Cl3 3.9157(5) 8_554
Cs1 Cl3 3.9157(5) 1_565
Cs1 Cl3 3.9157(5) 8
Cs1 Cl3 3.9157(5) 5_655
Sn2 Cl3 2.7689(4) 8_554
Sn2 Cl3 2.7689(4) .
Sn2 Cl3 2.7689(4) 5
Sn2 Cl3 2.7689(4) 5_545
Sn2 Cl3 2.7689(4) 1_554
Sn2 Cl3 2.7688(4) 8_454
Cl3 Mn 2.7689(4) .
