#------------------------------------------------------------------------------
#$Date: 2020-03-24 01:26:03 +0200 (Tue, 24 Mar 2020) $
#$Revision: 249629 $
#$URL: file:///home/coder/svn-repositories/cod/cif/4/00/35/4003515.cif $
#------------------------------------------------------------------------------
#
# This file is available in the Crystallography Open Database (COD),
# http://www.crystallography.net/
#
# All data on this site have been placed in the public domain by the
# contributors.
#
data_4003515
loop_
_publ_author_name
'Murgatroyd, Philip A. E.'
'Smiles, Matthew J.'
'Savory, Christopher N.'
'Shalvey, Thomas P.'
'Swallow, Jack E. N.'
'Fleck, Nicole'
'Robertson, Craig M.'
'J\"ackel, Frank'
'Alaria, Jonathan'
'Major, Jonathan D.'
'Scanlon, David O.'
'Veal, Tim D.'
_publ_section_title
;
 GeSe: Optical Spectroscopy and Theoretical Study of a van der Waals Solar
 Absorber
;
_journal_name_full               'Chemistry of Materials'
_journal_paper_doi               10.1021/acs.chemmater.0c00453
_journal_year                    2020
_chemical_formula_moiety         '0.25(Ge4 Se4)'
_chemical_formula_sum            'Ge Se'
_chemical_formula_weight         151.55
_space_group_crystal_system      orthorhombic
_space_group_IT_number           62
_space_group_name_Hall           '-P 2ac 2n'
_space_group_name_H-M_alt        'P n m a'
_atom_sites_solution_primary     dual
_audit_creation_date             2019-12-13
_audit_creation_method
;
Olex2 1.2
(compiled 2018.05.29 svn.r3508 for OlexSys, GUI svn.r5506)
;
_cell_angle_alpha                90
_cell_angle_beta                 90
_cell_angle_gamma                90
_cell_formula_units_Z            4
_cell_length_a                   10.833(2)
_cell_length_b                   3.8355(7)
_cell_length_c                   4.3954(9)
_cell_measurement_reflns_used    689
_cell_measurement_temperature    250.72
_cell_measurement_theta_max      26.49
_cell_measurement_theta_min      3.76
_cell_volume                     182.63(6)
_computing_cell_refinement       'SAINT V8.38A (?, 2016)'
_computing_data_reduction        'SAINT V8.38A (?, 2016)'
_computing_molecular_graphics    'Olex2 (Dolomanov et al., 2009)'
_computing_publication_material  'Olex2 (Dolomanov et al., 2009)'
_computing_structure_refinement  'ShelXL (Sheldrick, 2015)'
_computing_structure_solution    'ShelXT (Sheldrick, 2015)'
_diffrn_ambient_temperature      250.72
_diffrn_measured_fraction_theta_full 0.995
_diffrn_measured_fraction_theta_max 0.995
_diffrn_measurement_device_type  'Bruker APEX-II CCD'
_diffrn_measurement_method       '\f and \w scans'
_diffrn_radiation_type           MoK\a
_diffrn_radiation_wavelength     0.71073
_diffrn_reflns_av_R_equivalents  0.0596
_diffrn_reflns_av_unetI/netI     0.0529
_diffrn_reflns_Laue_measured_fraction_full 0.995
_diffrn_reflns_Laue_measured_fraction_max 0.995
_diffrn_reflns_limit_h_max       13
_diffrn_reflns_limit_h_min       -13
_diffrn_reflns_limit_k_max       4
_diffrn_reflns_limit_k_min       -4
_diffrn_reflns_limit_l_max       5
_diffrn_reflns_limit_l_min       -5
_diffrn_reflns_number            967
_diffrn_reflns_point_group_measured_fraction_full 0.995
_diffrn_reflns_point_group_measured_fraction_max 0.995
_diffrn_reflns_theta_full        25.242
_diffrn_reflns_theta_max         26.486
_diffrn_reflns_theta_min         3.762
_diffrn_standards_number         0
_exptl_absorpt_coefficient_mu    36.117
_exptl_absorpt_correction_T_max  0.7454
_exptl_absorpt_correction_T_min  0.2076
_exptl_absorpt_correction_type   multi-scan
_exptl_absorpt_process_details
'SADABS-2016/2 (Bruker,2016/2) was used for absorption correction. wR2(int) was 0.1658 before and 0.0784 after correction. The Ratio of minimum to maximum transmission is 0.2785. The \l/2 correction factor is Not present.'
_exptl_crystal_colour            black
_exptl_crystal_colour_primary    black
_exptl_crystal_density_diffrn    5.512
_exptl_crystal_description       plate
_exptl_crystal_F_000             264
_exptl_crystal_size_max          0.08
_exptl_crystal_size_mid          0.08
_exptl_crystal_size_min          0.025
_refine_diff_density_max         2.130
_refine_diff_density_min         -2.133
_refine_diff_density_rms         0.632
_refine_ls_extinction_method     none
_refine_ls_goodness_of_fit_ref   1.224
_refine_ls_hydrogen_treatment    undef
_refine_ls_matrix_type           full
_refine_ls_number_parameters     13
_refine_ls_number_reflns         218
_refine_ls_number_restraints     0
_refine_ls_restrained_S_all      1.224
_refine_ls_R_factor_all          0.0652
_refine_ls_R_factor_gt           0.0578
_refine_ls_shift/su_max          0.000
_refine_ls_shift/su_mean         0.000
_refine_ls_structure_factor_coef Fsqd
_refine_ls_weighting_details
'w=1/[\s^2^(Fo^2^)+(0.1394P)^2^] where P=(Fo^2^+2Fc^2^)/3'
_refine_ls_weighting_scheme      calc
_refine_ls_wR_factor_gt          0.1930
_refine_ls_wR_factor_ref         0.2015
_reflns_Friedel_coverage         0.000
_reflns_number_gt                191
_reflns_number_total             218
_reflns_threshold_expression     'I > 2\s(I)'
_cod_data_source_file            cm0c00453_si_001.cif
_cod_data_source_block           gesesxrd
_cod_database_code               4003515
_shelxl_version_number           2013-3
_shelx_space_group_comment
;
The symmetry employed for this shelxl refinement is uniquely defined
by the following loop, which should always be used as a source of
symmetry information in preference to the above space-group names.
They are only intended as comments.
;
_shelx_estimated_absorpt_t_max   0.465
_shelx_estimated_absorpt_t_min   0.160
_olex2_refinement_description
;
;
_shelx_res_file
;
TITL first_a.res in Pnma
REM Old TITL Se1 in Pnma
REM SHELXT solution in Pnma
REM R1 0.078, Rweak 0.001, Alpha 0.005, Orientation as input
REM Formula found by SHELXT: Se
CELL 0.71073 10.8329 3.8355 4.3954 90 90 90
ZERR 4 0.0022 0.0007 0.0009 0 0 0
LATT 1
SYMM 0.5-X,-Y,0.5+Z
SYMM -X,0.5+Y,-Z
SYMM 0.5+X,0.5-Y,0.5-Z
SFAC Ge Se
UNIT 4 4

L.S. 25
PLAN  5
SIZE 0.08 0.08 0.025
TEMP -22.43
list 4
fmap 2
acta
REM <olex2.extras>
REM <HklSrc "%.\\GeSeSXRD.hkl">
REM </olex2.extras>

WGHT    0.139400
FVAR       0.50307
SE1   2    0.146532    0.750000    0.497622    10.50000    0.01691    0.00800 =
         0.01206    0.00000    0.00041    0.00000
GE1   1    0.378988    0.750000    0.611337    10.50000    0.02334    0.00940 =
         0.01413    0.00000    0.00306    0.00000
HKLF 4

REM  first_a.res in Pnma
REM R1 =  0.0578 for     191 Fo > 4sig(Fo)  and  0.0652 for all     218 data
REM     13 parameters refined using      0 restraints

END

WGHT      0.1394      0.0000

REM Highest difference peak  2.130,  deepest hole -2.133,  1-sigma level  0.632
Q1    1  -0.0236  0.7500  0.4302  10.50000  0.05    2.13
Q2    1   0.2423  0.7500  0.9948  10.50000  0.05    1.94
Q3    1   0.2603  1.0495  0.6580  11.00000  0.05    1.84
Q4    1   0.4646  0.7500  0.7993  10.50000  0.05    1.75
Q5    1   0.1438  0.9666  0.3136  11.00000  0.05    1.72
;
_shelx_res_checksum              58879
_shelx_hkl_file
;
   0   1   0   -1.10    0.90
   0  -1   0    0.30    0.80
   0  -2   0 8990.90  702.23
   0   2   0 8686.23  702.43
   0  -3   0   -3.90    2.90
   0   3   0    0.90    3.60
   0  -4   0 2888.51  231.08
   0   0   1    0.50    1.50
   0   0  -1   -0.20    1.10
   0   1   1 1141.99   92.69
   0  -1  -1 1166.88   92.69
   0   2  -1    0.20    1.60
   0   2   1    2.70    2.50
   0  -2  -1   -0.80    2.50
   0   3  -1  431.56   36.20
   0   3   1  431.86   37.10
   0  -3  -1  430.46   37.00
   0   4  -1   -1.90    5.80
   0  -4  -1    1.40    5.90
   0   0  -2 3172.58  258.87
   0   0  -2 3325.77  258.47
   0   1   2    0.70    2.80
   0   2  -2 2581.14  195.88
   0  -2  -2 2381.86  193.98
   0   2   2 2290.97  194.28
   0  -3  -2   -0.90    5.20
   0   3   2   -2.70    7.30
   0  -4  -2  821.52   69.89
   0   4   2  827.92   71.69
   0   0   3   -3.30    8.90
   0   0  -3   -0.20    2.60
   0  -1  -3  890.31   71.59
   0   1   3  879.41   72.09
   0   1  -3  856.51   71.79
   0  -2  -3   -2.60    4.40
   0   2   3    3.90    6.30
   0   2  -3    8.10   13.50
   0   3  -3  329.77   48.30
   0  -3  -3  451.05   39.20
   0   3   3  464.55   40.40
   0   4  -3  -18.90   29.00
   0  -4  -3    3.90   10.30
   0   4   3    2.50   15.10
   0   0  -4   12.70    4.30
   0   0  -4   25.30    5.80
   0   0   4   17.90   17.10
   0  -1  -4    1.90    4.80
   0   1   4   -3.60    8.50
   0  -2  -4   25.60    7.80
   0   2   4   30.90   10.90
   0   3   4   -6.10   13.50
   0  -3  -4   10.60    9.60
   0   0   5    2.70   28.70
   0   0  -5   -3.30    6.60
   0   1   5   64.99   19.60
   0  -1  -5   72.79   11.50
   0   2   5   11.10   16.40
   0  -2  -5   13.90   10.70
   1  -1   0    0.00    1.00
   1   1   0    2.60    1.00
  -1  -1   0   -0.80    0.80
  -1  -2   0    4.00    2.00
   1  -2   0    0.90    2.00
  -1   2   0   -0.50    2.00
   1   2   0   -0.50    1.90
   1   3   0   -2.70    3.40
   1  -3   0    3.10    3.00
  -1  -3   0    3.30    3.10
   1   4   0    0.50    6.50
   1  -4   0   -0.80    4.80
  -1  -4   0   -4.30    5.00
  -1   0  -1   26.30    2.70
   1   0   1   22.80    3.40
   1   0   1   29.10    5.00
  -1   0  -1   25.30    4.20
  -1  -1  -1 4964.70  394.96
   1  -1  -1 5004.50  394.96
  -1   1  -1 5294.17  395.86
   1   1   1 4836.72  395.06
   1   1   1 4724.13  394.86
  -1  -2  -1   13.90    3.40
   1   2  -1   13.70    2.50
  -1   2  -1   16.30    2.80
   1   2   1   12.10    4.40
   1  -2  -1   14.90    3.60
   1   2   1    8.50    3.30
   1   3  -1 2088.89  170.08
  -1  -3  -1 2091.59  170.58
   1   3   1 2141.09  171.08
   1  -3  -1 2171.68  170.98
   1   4  -1   14.30    6.70
  -1  -4  -1   11.00    6.50
   1   4   1   16.70    7.30
   1   4   1   29.50   10.50
   1  -4  -1   -1.50    5.80
  -1   0  -2 1002.90   79.59
   1   0   2 1011.20   81.09
  -1   0  -2  933.31   78.59
  -1  -1  -2 1004.50   86.79
  -1  -1  -2 1082.69   86.69
  -1   1   2 1052.69   86.79
   1  -1   2 1216.38   88.29
   1   1   2 1035.40   86.39
   1  -1  -2 1055.79   86.59
   1   1   2 1068.29   87.09
   1   2  -2  750.92   58.59
  -1  -2  -2  705.43   57.09
  -1   2  -2  675.53   59.69
   1   2   2  659.43   57.49
   1   2   2  650.03   56.89
  -1  -3  -2  488.05   44.80
   1  -3  -2  490.65   44.80
   1   3   2  508.25   45.80
  -1   3  -2  612.84   48.50
   1   4  -2  217.98   22.10
  -1  -4  -2  195.88   23.90
  -1   4  -2  241.08   34.30
   1   4   2  195.58   26.10
   1   0  -3 1233.38  103.79
  -1   0  -3 1394.66  103.99
   1   0   3 1160.28  107.79
  -1   0  -3 1374.86  104.79
  -1   1   3  326.37   28.80
   1  -1   3  349.77   32.60
  -1  -1  -3  327.27   28.50
  -1   1  -3  327.47   30.40
   1   1   3  331.67   29.70
   1  -1  -3  318.07   28.50
  -1  -2  -3 1010.90   87.19
  -1   2   3 1070.79   86.69
   1  -2  -3 1034.70   86.49
   1   2   3 1074.19   86.99
  -1  -3  -3  199.08   21.30
  -1   3   3  184.68   23.40
  -1   3  -3  122.59   27.30
   1   3   3  192.18   23.00
   1  -3  -3  193.98   21.10
   1   4  -3  277.77   54.79
  -1   4   3  355.86   39.50
  -1  -4  -3  360.86   35.90
   1  -4  -3  367.86   36.40
   1   4   3  378.46   38.80
  -1   4  -3  268.57   46.20
  -1   0  -4   30.70    6.80
  -1   0  -4   23.20    5.30
   1   0  -4   28.60    5.30
   1   0   4   16.30   17.00
  -1   1   4   53.99   11.10
  -1  -1  -4   51.99    8.20
   1  -1   4   66.49   15.90
   1  -1  -4   48.20    7.90
   1   1   4   53.99   12.30
  -1   1  -4   45.70   10.20
  -1  -2  -4   18.80    7.20
  -1   2   4   20.70    9.80
   1   2   4   28.10   10.70
  -1   2  -4   17.20   13.60
   1  -2  -4   11.40    6.70
  -1   3   4   35.80   14.30
  -1  -3  -4   28.40   10.40
   1  -3  -4   19.10   10.10
  -1   3  -4   10.10   29.90
   1   3   4   38.20   15.20
  -1   0  -5  757.82   67.59
   1   0  -5  859.81   67.39
  -1  -1  -5   22.60    8.70
   1  -1   5   27.40   19.80
   1  -1  -5   17.20    8.10
  -1   1  -5   29.80   10.10
   1   1   5   19.00   19.50
  -2   0   0  114.99   11.00
   2   0   0  137.19   11.50
   2   0   0  109.19   11.10
  -2   0   0   89.79   10.90
  -2  -1   0    5.00    1.50
   2   1   0    2.50    1.40
   2   1   0    2.50    1.60
   2  -2   0  112.09    9.90
  -2  -2   0   98.59    9.80
   2   2   0   92.49    9.90
   2   3   0    3.80    3.80
  -2  -3   0   -0.40    3.40
   2  -3   0    2.50    3.40
   2  -4   0   32.00    6.60
   2   4   0   24.80    8.30
  -2  -4   0   46.00    7.30
  -2   0  -1 1282.57   99.69
   2   0   1 1209.78   97.89
  -2   0  -1 1198.38   97.99
   2   0   1 1218.88   99.89
  -2  -1  -1    5.70    2.70
   2   1   1    7.10    2.60
   2   1   1    8.40    2.10
  -2   1  -1   11.80    4.50
   2   2  -1  710.33   59.59
  -2  -2  -1  754.42   60.39
   2   2   1  757.72   60.99
   2  -2  -1  751.92   60.59
   2   2   1  719.43   60.39
   2   3  -1    0.50    3.70
  -2  -3  -1   -2.10    4.10
   2   3   1    0.70    4.50
   2   3   1    1.00    5.90
   2  -3  -1   -2.00    4.30
   2   4  -1  245.28   24.20
  -2  -4  -1  253.97   23.70
   2   4   1  230.48   26.50
   2   4   1  215.08   24.90
   2  -4  -1  235.48   23.90
   2   0   2  161.48   13.90
   2   0   2  163.38   18.60
  -2   0  -2  155.38   14.20
  -2   0  -2  188.88   16.40
   2  -1   2 1411.16  112.29
  -2  -1  -2 1315.67  109.49
  -2   1   2 1340.67  109.59
  -2  -1  -2 1366.96  110.19
   2   1   2 1367.76  109.49
   2   1   2 1365.66  110.19
  -2  -2  -2  140.19   13.60
   2   2   2  121.29   13.50
  -2   2  -2  138.39   18.90
   2   2   2  117.89   14.30
   2  -2  -2  130.19   13.50
  -2  -3  -2  712.23   59.79
   2   3  -2  687.73   58.09
   2   3   2  698.33   60.59
   2  -3  -2  757.72   59.99
  -2   3  -2  700.43   62.59
  -2  -4  -2   71.59   11.50
   2   4  -2   45.00    9.50
   2   4   2   44.50   13.30
  -2   4  -2   78.09   21.00
   2  -4  -2   52.29   10.70
  -2   0  -3 1030.10   80.49
   2   0   3  834.42   84.99
  -2   0  -3 1103.19   82.09
  -2  -1  -3    4.80    3.70
  -2   1   3    9.30    4.60
   2  -1   3    4.00   11.70
  -2  -1  -3   -1.50    5.00
   2  -1  -3   -4.40    3.10
  -2   1  -3  -11.70    8.40
   2   1   3    4.60    6.10
  -2  -2  -3  693.03   65.69
  -2   2   3  771.52   63.59
   2   2   3  790.22   64.39
  -2  -3  -3   13.50    7.40
  -2   3   3   -0.70    9.80
  -2   3  -3    3.60   21.70
   2  -3  -3    9.00    6.60
   2   3   3   -5.20    9.60
  -2   0  -4   76.19   12.80
  -2   0  -4   95.19   10.70
   2   0   4   56.79   21.30
  -2  -1  -4 2718.53  222.78
  -2   1   4 2673.33  222.88
   2  -1   4 2577.54  227.08
   2   1   4 2904.31  225.18
  -2   1  -4 2887.31  223.58
   2  -1  -4 2836.82  222.18
  -2   2   4   75.39   13.50
  -2  -2  -4   63.09   11.00
   2  -2  -4   95.09   14.10
   2   2   4   97.49   18.40
  -2   2  -4   69.19   20.30
  -2  -3  -4 1625.74  134.09
  -2   3   4 1632.14  135.49
   2   3   4 1691.33  136.29
   2  -3  -4 1568.04  133.99
  -2   0  -5   40.40    8.40
   2   0  -5   28.10    9.10
   2   0   5    9.10   31.70
  -2   0  -5   25.60   10.80
  -2  -1  -5   10.90    8.10
   2  -1   5  -43.10   24.10
  -2   1   5   -7.00   18.00
   2  -1  -5   -4.40    7.30
  -2   1  -5    2.30   11.30
   2   1   5   12.10   20.00
  -3   0   0    5.80    3.60
  -3   0   0   -0.10    3.50
   3   0   0   10.10    3.90
   3   1   0    0.10    1.60
   3   1   0    2.50    1.90
  -3  -1   0    2.80    1.90
  -3  -1   0    4.30    2.00
   3  -1   0    6.50    2.50
   3   2   0   -3.30    3.00
   3  -2   0    5.20    2.50
  -3  -2   0    2.60    2.90
   3   2   0    4.20    2.50
   3   3   0   -1.30    5.50
   3   3   0    1.00    4.40
  -3  -3   0   -1.90    3.70
  -3  -4   0   -3.40    6.30
   3   4   0   -3.90    7.10
   3   4   0   -0.80    9.70
   3  -4   0    2.50    5.40
   3  -4   0   -0.40    8.40
   3   0   1  589.04   42.30
   3   0   1  467.35   44.60
  -3   0  -1  571.14   42.30
  -3   0  -1  428.66   44.10
  -3  -1  -1 2102.89  169.38
   3  -1   1 1995.90  169.28
   3   1  -1 2098.59  170.88
  -3  -1  -1 2305.47  170.28
   3   1   1 2044.30  169.38
  -3   1  -1 2188.08  171.68
   3   1   1 2103.29  169.78
   3   2  -1  398.06   31.70
  -3  -2  -1  373.66   32.00
   3  -2  -1  379.46   32.10
  -3   2  -1  374.66   33.30
   3   2   1  373.36   32.10
   3   2   1  364.76   32.40
  -3  -3  -1  957.20   78.19
   3   3  -1  974.10   77.79
   3   3   1  966.00   78.99
   3   3   1  925.11   78.39
   3  -3  -1  937.21   78.29
   3   4  -1  177.28   21.80
   3   4  -1  161.58   19.90
  -3  -4  -1  171.28   18.80
   3   4   1  148.59   21.30
   3   4   1  147.19   21.80
   3  -4  -1  165.48   19.40
   3   0   2 1015.70   79.99
  -3   0  -2  970.30   80.19
  -3   0  -2 1112.09   83.09
   3   0   2  885.61   83.79
  -3  -1  -2  735.63   61.39
  -3  -1  -2  807.92   62.69
   3  -1   2  678.23   65.39
  -3   1  -2  770.32   60.89
   3   1   2  811.82   62.69
   3   1   2  772.52   61.49
  -3   1  -2  661.93   66.59
  -3  -2  -2  715.93   58.19
   3   2   2  724.43   58.99
   3  -2  -2  685.13   58.09
  -3   2  -2  652.23   63.09
   3   2   2  712.03   58.19
  -3  -3  -2  391.16   34.50
   3   3   2  366.06   35.30
  -3   3  -2  401.66   38.70
   3  -3  -2  372.16   34.10
   3   4  -2  278.47   26.30
  -3  -4  -2  249.88   27.10
   3   4   2  212.48   28.60
   3  -4  -2  264.57   27.30
   3   0   3 1616.44  157.78
  -3   0  -3 2124.59  160.18
  -3   0  -3 1995.10  153.18
  -3  -1  -3    4.20    3.60
   3  -1   3   -6.30   14.20
  -3  -1  -3    5.90    6.10
  -3   1   3    0.00    4.30
   3   1   3   -5.20    6.60
   3   1   3    4.60    3.40
  -3   1  -3    3.50    3.00
  -3   2   3 1583.64  130.19
  -3  -2  -3 1544.55  129.69
   3   2   3 1638.44  129.79
   3   2   3 1638.04  131.09
   3  -2  -3 1588.14  129.89
  -3  -3  -3   10.80    7.70
  -3   3   3   -6.20   10.70
   3   3   3   10.90   10.70
  -3   3  -3   -7.20   22.20
   3   3   3   -0.40    7.50
   3  -3  -3   -1.90    7.10
  -3   0  -4   35.60    9.80
   3   0   4   24.00   20.30
  -3   0  -4   30.20    5.80
   3  -1   4   44.30   22.00
  -3   1   4   51.89   10.70
  -3  -1  -4   66.59   10.90
  -3  -1  -4   64.19   11.40
  -3   1  -4   53.69    7.60
  -3   1  -4   65.99   14.30
   3   1   4   58.19   14.40
  -3  -2  -4   21.70    7.90
  -3   2  -4   22.50   21.30
   3   2   4   23.30   12.40
   3  -2  -4   14.70    7.60
  -3  -3  -4   46.60   12.40
  -3   3   4   47.40   16.20
   3  -3  -4   24.20   10.80
   3   3   4   31.40   17.40
  -3   3  -4   82.59   38.30
  -3   0  -5 1133.09   89.89
   3   0   5  912.71  104.79
  -3   0  -5 1043.20   91.19
   3   0  -5 1200.98   90.39
  -3  -1  -5   35.00    9.60
   3  -1   5    9.50   31.10
   3  -1  -5   25.50    9.20
  -3   1  -5   13.90   14.80
  -3   1  -5   20.80    9.00
   3   1   5    0.10   21.50
   4   0   0 9063.89  699.63
  -4   0   0 8420.36  699.23
   4   0   0 9999.00  700.53
  -4   0   0 7637.04  699.23
  -4  -1   0  789.62   74.79
   4   1   0  901.51   74.19
   4   1   0  927.71   75.19
  -4   1   0 1026.40   75.19
   4  -1   0  892.91   75.29
  -4  -1   0  971.30   74.59
   4   2   0 5178.48  427.26
   4  -2   0 5609.54  428.06
  -4  -2   0 5285.97  427.46
   4   2   0 5388.86  427.56
   4   3   0  418.96   36.30
   4   3   0  405.56   36.10
   4  -3   0  428.56   37.10
   4  -3   0  430.16   35.60
  -4  -3   0  396.66   35.60
   4  -4   0 2036.80  167.68
   4   4   0 2083.39  168.98
   4  -4   0 2064.79  169.28
   4   4   0 2137.89  169.28
   4   0  -1   10.20    2.50
  -4   0  -1    8.70    2.60
   4   0   1    2.30    5.90
  -4   0  -1    8.10    6.30
   4   0   1    8.60    2.70
  -4  -1  -1  928.11   66.39
  -4  -1  -1  784.12   64.89
   4   1   1  821.42   65.49
  -4   1  -1  785.82   67.29
   4   1   1  765.22   64.89
  -4   1  -1  694.53   67.09
   4  -2   1    3.60    2.50
   4   2  -1    3.50    3.00
   4  -2   1    3.10    5.20
  -4  -2  -1    2.80    3.50
   4   2  -1    4.10    4.00
   4   2   1    4.20    4.10
  -4   2  -1    8.50    6.90
   4   2   1    9.40    4.80
  -4  -3  -1  358.16   30.50
   4   3  -1  337.77   30.10
   4   3  -1  323.67   30.20
   4  -3  -1  346.47   30.60
   4   3   1  339.07   30.80
  -4  -4  -1   -0.60    7.50
   4   4  -1   -1.60   10.20
   4   4  -1    6.30    8.60
   4   4   1   -4.00   10.40
   4  -4  -1   -1.30    7.30
  -4   0  -2 1717.63  150.28
  -4   0  -2 1843.22  147.29
   4   0   2 1945.11  147.19
  -4  -1  -2  515.45   41.90
  -4  -1  -2  451.65   39.90
   4   1  -2  495.75   39.50
  -4   1  -2  519.65   47.60
  -4   1  -2  445.76   40.00
   4   1   2  459.85   39.90
   4   1   2  478.85   41.50
  -4  -2  -2 1411.66  108.99
   4   2   2 1410.06  109.79
   4  -2  -2 1335.17  108.79
   4   2   2 1366.16  108.99
  -4   2  -2 1156.48  111.99
   4   3  -2  246.48   22.50
  -4  -3  -2  234.78   24.00
  -4   3  -2  210.68   29.20
   4   3   2  251.87   25.40
   4  -3  -2  227.38   23.70
   4   4  -2  598.34   49.80
  -4  -4  -2  574.44   50.09
   4   4   2  530.75   51.49
   4  -4  -2  526.85   50.09
   4   0   3   17.40   13.90
  -4   0  -3    3.50    3.30
  -4   0  -3   -3.90    8.40
  -4  -1  -3  671.83   58.39
  -4  -1  -3  752.22   60.69
  -4   1   3  630.24   57.99
  -4   1  -3  693.13   57.79
   4   1   3  766.62   61.39
   4   1   3  734.13   58.49
  -4   2   3   -6.50    7.00
  -4  -2  -3    3.90    5.50
  -4   2  -3   18.60   10.20
  -4   2  -3   -1.50   19.80
   4   2   3    5.50    5.70
   4   2   3    4.60    8.90
   4  -2  -3   -0.60    5.20
  -4  -3  -3  350.36   32.90
  -4   3  -3  255.27   47.20
   4  -3  -3  331.37   32.20
   4   3   3  375.56   35.30
   4   3   3  309.77   33.00
  -4   0  -4   -6.70    5.10
  -4   0  -4   -5.80   10.60
   4   0   4  -11.40   20.10
  -4  -1  -4  139.09   16.60
  -4  -1  -4  133.39   20.20
  -4   1  -4  153.58   15.80
   4   1   4  133.29   24.10
  -4   1  -4  102.59   21.70
  -4   2   4   17.00   20.00
  -4  -2  -4    2.30    8.00
   4   2   4   -4.80   13.50
  -4   2  -4  -31.60   25.30
   4  -2  -4   15.50    7.90
  -4   0  -5    4.10   14.90
  -4   0  -5   10.90    8.50
   4   0   5   43.60   32.60
  -4  -1  -5   51.39   11.30
   4  -1   5   43.90   36.10
   4  -1  -5   41.00   10.60
   4   1   5   12.40   25.30
  -4   1  -5   24.00   19.40
  -5   0   0    1.00    5.50
   5   0   0   -0.70    5.70
   5   0   0    0.00    6.80
  -5   0   0   -3.10    4.80
  -5   1   0   -0.10    4.30
  -5  -1   0    2.00    4.10
  -5  -1   0    7.30    4.30
   5   1   0    0.40    3.40
   5  -1   0   -3.20    4.20
   5   1   0    2.10    4.90
  -5  -2   0   -4.40    4.30
   5   2   0    0.10    3.60
   5   2   0   -0.80    4.30
   5  -2   0   -6.20    4.70
   5  -3   0    3.10    5.00
   5   3   0   10.20    6.10
  -5  -3   0   12.20    6.50
   5  -3   0   -2.00    7.00
   5   3   0   -3.40    5.90
  -5  -4   0   -9.70   10.00
   5  -4   0   -1.60   11.30
   5  -4   0   -8.00    7.00
   5   4   0    1.60   10.20
   5   4   0    1.60    9.80
  -5   0  -1  416.96   36.50
  -5   0  -1  397.26   39.10
   5   0   1  448.06   36.90
   5   0  -1  450.65   36.50
  -5  -1  -1 4632.24  342.47
  -5  -1  -1 3946.51  340.67
   5   1   1 4154.68  341.37
   5   1   1 4093.69  340.97
  -5   1  -1 4541.55  343.47
   5   2  -1  322.87   27.90
  -5  -2  -1  299.77   26.50
   5  -2   1  269.77   27.90
   5   2   1  293.97   26.70
  -5   2  -1  277.47   28.40
   5   2   1  314.07   26.80
   5  -3   1 1815.12  159.28
   5  -3   1 1911.31  157.68
   5   3  -1 1877.81  158.28
   5   3  -1 2045.50  159.18
  -5  -3  -1 2031.50  159.28
   5   3   1 2021.40  159.78
   5   3   1 1992.70  159.68
  -5   3  -1 2065.19  161.38
   5   4  -1  101.79   15.10
  -5  -4  -1   96.19   17.60
   5   4  -1  116.69   20.60
   5   4   1  104.39   19.80
   5  -4  -1   81.79   13.20
  -5   0  -2  483.45   40.60
   5   0   2  488.25   40.40
   5   1  -2  824.52   72.49
  -5  -1  -2  817.22   72.39
  -5  -1  -2  977.80   75.39
   5   1   2  880.11   74.19
   5   1   2  858.51   72.69
  -5   1  -2 1004.70   80.39
  -5  -2  -2  379.66   32.50
  -5  -2  -2  387.56   34.70
  -5   2  -2  320.37   37.50
   5   2   2  362.36   33.60
   5   2   2  363.86   32.60
  -5  -3  -2  430.06   36.80
   5   3   2  378.76   37.60
   5  -3  -2  412.96   36.60
  -5   3  -2  367.06   41.40
  -5  -4  -2  126.09   21.80
   5   4  -2   98.59   16.60
   5   4   2  162.48   24.70
   5  -4  -2  129.39   21.00
   5   0   3  272.57   23.50
  -5   0  -3  246.98   30.40
  -5   0  -3  289.37   24.50
  -5  -1  -3  572.64   50.29
   5  -1   3  475.55   60.89
  -5  -1  -3  630.84   53.59
  -5   1  -3  653.03   59.79
  -5   1  -3  591.34   50.19
   5   1   3  607.54   50.09
   5   1   3  645.04   55.69
  -5  -2  -3  192.28   22.10
  -5   2  -3  248.58   41.20
   5  -2  -3  227.08   22.30
   5   2   3  226.78   25.40
  -5   2  -3  199.98   28.70
  -5  -3  -3  358.66   35.60
   5   3   3  358.96   37.50
   5  -3  -3  353.46   34.80
  -5   0  -4   18.50   10.30
   5   0   4  -11.70   23.30
  -5   0  -4    1.00   13.10
  -5  -1  -4   29.20   13.40
  -5  -1  -4   42.90    8.00
   5  -1   4   17.70   27.60
  -5   1  -4   25.70    7.50
   5   1   4   16.30   16.40
  -5   1  -4   -7.10   20.60
  -5  -2  -4    7.70    8.50
  -5   2  -4  -38.40   28.50
  -5   2  -4   15.60   14.40
   5  -2  -4    5.50    8.80
   5   2   4   -3.80    9.40
   5   2   4    0.00   15.80
  -5   0  -5  222.68   26.80
   5   0   5  275.17   44.70
  -5  -1  -5   97.49   14.80
  -5   1  -5   95.29   15.10
   6   0   0  846.62   73.89
  -6   0   0  829.52   73.09
  -6   0   0  817.02   73.59
   6   0   0 1002.70   75.09
   6   1   0   51.59   10.10
  -6  -1   0   60.89    9.50
   6  -1   0   51.39    9.10
   6   2   0  525.05   40.70
   6   2   0  457.15   38.60
  -6  -2   0  371.46   39.70
  -6   2   0  533.25   40.40
   6  -2   0  393.66   40.10
   6   3   0   29.60    8.10
   6   3   0   19.70    8.30
   6  -3   0   41.50    7.00
  -6  -3   0   15.80    8.80
   6  -3   0   40.40    9.70
  -6  -4   0  104.49   16.40
   6   0   1  500.15   47.20
  -6   0  -1  487.15   46.60
   6   0  -1  608.24   47.00
   6   0   1  606.14   50.19
  -6  -1  -1   15.90    4.80
  -6   1   1   28.50    6.00
   6   1  -1   42.60    9.70
   6  -1   1   16.10   12.90
  -6  -1  -1   18.00    8.00
   6  -1   1    1.40    6.40
  -6   1  -1   31.40    9.30
  -6   1  -1   12.70   10.00
   6   1   1   16.00    5.60
   6  -1  -1   19.70    4.90
   6   1   1   15.00    6.60
  -6  -2  -1  528.25   41.60
   6  -2   1  466.45   41.10
   6   2  -1  368.86   41.40
  -6  -2  -1  480.45   39.60
   6   2   1  458.85   39.90
  -6   2  -1  431.86   41.70
   6   2   1  455.75   39.80
   6  -3   1   14.50    5.00
  -6  -3  -1   23.70    7.90
   6   3  -1    7.70    7.50
   6  -3   1   -0.60    8.60
   6   3   1    0.10    8.20
   6  -3  -1    3.10    6.50
   6   3   1    4.20    7.80
  -6  -4  -1  126.29   17.40
   6   4  -1  132.19   18.80
   6   4  -1  156.68   21.50
   6  -4  -1  133.69   21.50
   6  -4  -1  127.29   19.20
   6   4   1  159.58   23.50
   6   0   2  532.45   58.49
  -6   0  -2  726.23   53.69
   6  -1   2  380.06   33.00
  -6  -1  -2  373.86   33.80
   6  -1   2  437.36   44.70
   6   1  -2  331.17   34.60
  -6  -1  -2  384.16   37.70
  -6   1  -2  469.15   43.10
   6   1   2  387.36   36.40
   6   1   2  413.26   34.40
   6   2  -2  523.05   54.39
  -6  -2  -2  673.43   55.59
  -6  -2  -2  615.34   52.39
   6   2   2  618.24   52.59
  -6   2  -2  673.53   57.69
   6   2   2  589.54   53.59
  -6  -3  -2  240.68   25.40
   6   3  -2  252.37   27.10
   6   3   2  235.88   26.60
   6  -3  -2  203.48   24.50
   6   0   3  657.33   54.99
  -6   0  -3  680.73   55.89
   6  -1   3    3.20   21.40
  -6  -1  -3    1.70   11.80
  -6  -1  -3   12.60    5.60
   6   1  -3   21.00    5.70
   6   1   3   -6.30   11.70
   6   1   3   11.60    5.50
  -6   1  -3   20.20   19.30
  -6   1  -3   13.10    7.00
  -6  -2  -3  499.25   46.80
   6   2  -3  516.05   48.80
   6   2   3  524.95   49.70
  -6   2  -3  626.74   61.79
  -6   2  -3  552.54   51.89
  -6  -3  -3    2.50   10.30
   6   3  -3   18.00   12.80
   6  -3  -3   13.00   10.10
   6   3   3   24.00   15.80
   6   0   4  458.05   55.59
  -6   0  -4  490.75   40.30
  -6   0  -4  387.86   48.10
   6  -1   4 1650.23  129.29
  -6  -1  -4 1409.16  113.39
  -6  -1  -4 1357.56  117.69
   6   1   4 1135.59  118.69
   6   1   4 1417.26  112.59
  -6   2   4  326.37   48.30
  -6  -2  -4  391.96   36.80
   6  -2  -4  384.06   37.90
   6   2   4  356.86   36.70
   6   2   4  404.16   43.80
   7   0   0    0.20    8.80
   7   0   0   -3.70    7.70
  -7   0   0    5.70    7.60
  -7   0   0   25.70    8.40
  -7  -1   0    5.30    6.80
   7   1   0   -8.70    8.80
   7  -1   0   -8.70    6.30
  -7   1   0    7.80    7.20
  -7  -1   0    5.10    7.50
  -7  -2   0   11.30    7.30
   7  -2   0   -1.50    7.60
   7   2   0    5.60    8.00
  -7   2   0   -7.50    7.00
   7   2   0   -0.80    5.90
   7   3   0    7.90    9.10
  -7   3   0   21.40   11.30
   7   3   0    3.90    7.60
   7  -3   0   -9.10   10.10
  -7  -3   0    1.60    9.90
   7  -3   0   -2.20    7.00
  -7  -4   0    7.00   14.50
   7  -4   0    6.90   10.40
   7   4   0    9.00   12.90
   7   0  -1  305.47   34.00
  -7   0  -1  310.07   28.20
   7   0   1  247.08   30.60
   7  -1   1  241.08   24.70
  -7  -1  -1  183.38   24.90
  -7  -1  -1  232.98   22.40
  -7   1   1  235.88   22.10
   7  -1  -1  206.58   21.70
  -7   1  -1  186.88   26.20
   7   1   1  264.27   24.20
   7   1   1  232.08   23.70
  -7  -2  -1  412.36   37.20
   7  -2   1  463.75   45.30
  -7  -2  -1  381.96   34.40
   7   2   1  364.66   34.30
   7  -2  -1  371.26   34.20
   7   2   1  320.47   34.60
   7   3  -1  142.99   22.80
   7  -3   1  111.99   15.60
   7  -3   1  107.29   19.70
   7   3  -1  128.09   15.70
  -7  -3  -1  131.19   18.40
   7   3   1  131.09   18.20
   7   3   1  136.19   21.60
   7  -3  -1  109.19   17.50
   7   4  -1  165.38   25.10
  -7  -4  -1  176.18   27.90
   7   4   1  201.28   27.70
   7  -4  -1  187.38   25.60
  -7   0  -2  662.33   56.09
   7   0  -2  681.33   55.69
  -7   0  -2  690.53   61.69
   7   0   2  608.14   61.29
  -7  -1  -2  263.37   34.40
  -7  -1  -2  340.27   30.30
  -7   1   2  358.76   29.80
   7  -1   2  322.57   29.80
   7   1   2  372.06   31.10
   7   1   2  317.57   33.70
  -7   2  -2  231.18   32.70
  -7  -3  -2  171.68   22.60
   7   3  -2  164.18   27.60
   7  -3  -2  145.99   22.20
   7   3   2  167.48   24.30
  -7   0  -3  783.72   72.99
   7   1  -3  255.27   25.70
  -7  -1  -3  265.97   25.40
   7   1   3  211.78   32.60
   7   1   3  284.47   25.70
  -7   1  -3  232.28   28.00
   7   2  -3 1200.68   96.19
  -7  -2  -3 1074.99   94.19
  -7   2  -3 1256.07  111.09
   7   2   3 1070.19   94.59
   7   2   3 1061.49   96.59
  -7   2  -3 1203.28  104.39
  -7  -3  -3  146.79   25.70
   7   3  -3  110.09   20.50
   7   3   3  156.88   29.70
   7  -3  -3  163.38   24.50
   7   0   4    4.50   26.20
  -7   0  -4   22.00   23.00
  -7   0  -4   15.40    8.70
   7   1  -4   35.80   10.90
   7  -1   4   51.69   35.60
  -7  -1  -4   22.90    9.80
   7   1   4   43.70    9.60
  -7   1  -4   63.29   12.80
   7   1   4   32.80   23.30
  -7  -2  -4   25.10   11.60
   7   2  -4   15.60   15.20
   7   2   4   16.00   13.30
   7   2   4   26.10   22.30
  -7   2  -4   27.70   20.30
   8   0   0 3924.61  290.37
   8   0   0 3545.25  289.37
  -8   0   0 3415.96  288.47
  -8   0   0 3458.45  289.17
  -8   1   0  834.42   68.99
  -8  -1   0  749.73   68.39
   8   1   0  808.32   67.79
  -8  -2   0 1379.16  123.99
   8   2   0 1524.95  126.29
  -8   2   0 1611.14  124.59
   8   3   0  819.72   64.79
   8   3   0  725.53   61.19
  -8   3   0  606.34   63.29
  -8   0  -1   19.50   11.80
   8   0   1   27.40   10.60
  -8   0  -1    9.10    8.00
  -8   0   1   23.30    8.50
   8   0   1   27.00   13.80
  -8   1   1  313.77   29.30
  -8  -1  -1  318.07   30.00
   8   1   1  245.98   31.10
   8  -1  -1  312.77   29.30
   8   1   1  304.37   32.50
  -8   1  -1  326.87   33.80
   8  -2   1  -10.10    8.80
   8   2  -1    5.10   13.30
  -8  -2  -1   18.80    9.20
  -8  -2  -1   18.40   13.30
  -8   2   1    6.50    9.20
   8   2   1   12.30   10.10
   8  -2  -1  -13.90    7.30
  -8  -3  -1  190.78   26.50
   8   3  -1  181.58   31.30
   8  -3   1  237.48   26.30
   8  -3   1  249.58   23.70
   8   3  -1  198.68   23.40
  -8   3   1  200.08   28.10
   8  -3  -1  182.28   28.10
   8   3   1  211.08   25.70
   8   3   1  220.68   31.20
   8   0  -2  390.76   33.70
   8   0   2  376.46   34.90
  -8   0  -2  327.27   34.50
  -8  -1  -2  743.43   59.59
   8   1  -2  584.64   60.19
  -8   1   2  770.22   59.19
   8   1   2  596.84   62.59
   8   1   2  780.52   60.69
   8  -1  -2  701.13   59.09
  -8   1  -2  669.43   61.69
  -8  -2  -2  303.57   33.80
   8   2  -2  422.36   40.10
   8   2   2  324.57   36.00
  -8   2  -2  431.36   42.10
   8   2   2  344.27   36.00
  -8  -3  -2  464.45   44.80
   8  -3  -2  493.45   45.20
   8   3   2  441.36   46.40
   8   0   3    2.40    6.70
   8   0  -3   15.00    7.80
  -8   0  -3    9.90    7.80
   8   0   3   20.40   21.20
   8   1  -3  337.47   34.40
  -8  -1  -3  417.16   33.80
   8   1   3  322.57   41.70
  -8   1  -3  297.87   36.30
  -8  -2  -3  -15.50    9.50
   8   2  -3    8.40   13.80
   8   2   3   25.10   17.30
   8   2   3   -3.90   11.40
  -8   2  -3    1.50   15.10
   8   0   4   78.29   32.00
  -8   0  -4   34.80   11.50
   8   1  -4  243.88   29.10
  -8  -1  -4  233.98   27.20
  -8   1  -4  200.18   32.20
   8   1   4  139.89   35.30
   9   0   0   21.60   12.80
  -9   0   0   -3.00    9.00
   9   0   0  -17.20    9.40
  -9   0   0    9.70   10.40
  -9   1   0   -3.60   10.90
  -9  -1   0   -7.00   11.50
  -9  -1   0    2.70   10.10
   9   1   0   21.50   13.90
   9   1   0   -7.90   10.30
   9  -1   0    0.70    9.10
   9   2   0   -5.10   15.90
  -9  -2   0    8.20   12.90
  -9   2   0   -4.00   14.50
  -9  -2   0   -3.80   10.30
   9  -2   0  -12.10   10.40
   9   2   0   -1.50   10.30
   9   3   0  -13.40   12.20
   9  -3   0   -7.40   13.90
  -9  -3   0   -4.90   14.00
   9   0   1 1370.26  112.99
  -9   0  -1 1416.76  112.09
  -9   0   1 1387.96  109.19
   9   0   1 1114.19  111.49
  -9  -1  -1 1079.19   86.09
  -9  -1  -1  954.00   87.39
  -9   1   1  997.70   85.29
   9   1   1 1014.20   86.79
  -9  -2  -1  590.24   54.99
  -9   2   1  547.65   54.49
   9   2  -1  738.93   61.89
   9   2   1  674.63   55.19
  -9   2  -1  488.75   58.39
   9  -2  -1  652.83   59.19
   9   3  -1  875.81   70.69
  -9  -3  -1  695.03   72.69
   9  -3   1  826.52   74.19
   9   3   1  886.91   72.29
   9   0   2   97.29   16.00
   9   0  -2  124.49   18.30
  -9   0  -2   96.79   15.40
  -9  -1  -2  419.36   37.20
   9   1  -2  394.06   38.60
  -9   1   2  330.77   36.20
   9  -1  -2  410.16   36.30
   9   1   2  312.77   40.90
  -9   1  -2  411.36   39.70
   9   2  -2  129.89   19.50
  -9   2   2  119.39   21.80
  -9  -2  -2   88.79   24.70
   9  -2  -2   82.89   14.80
   9   2   2   79.69   17.10
  -9   2  -2  140.99   22.10
   9   2   2  104.49   19.90
  -9   2  -2   63.19   23.00
  -9  -3  -2  231.18   33.60
   9   3   2  277.17   35.10
   9   0   3   -1.00    9.20
  -9   0  -3   -0.80   10.00
  -9   0  -3   -5.00   22.40
   9   0   3   26.60   24.50
   9   0  -3    2.30    9.60
   9  -1   3  413.16   55.79
  -9  -1  -3  303.77   31.70
   9   1   3  312.77   36.40
   9  -1  -3  289.67   31.90
   9   1   3  242.18   41.70
   9   2  -3   18.40   16.30
  -9   2   3  -14.10   16.10
  -9  -2  -3    6.00   12.10
   9   2   3  -28.60   20.10
  -9   2  -3  -24.50   16.90
   9   0   4   13.60   11.60
   9   0   4    9.20   34.10
  -9   0  -4   14.90   13.30
 -10   0   0  722.33   66.59
  10   0   0  777.52   68.19
 -10   0   0  797.72   68.29
 -10   1   0  292.47   33.70
  10   1   0  314.57   33.20
 -10  -1   0  294.37   34.70
 -10   2   0  262.57   34.20
  10   2   0  317.37   33.20
 -10  -2   0  213.38   35.70
  10  -2   0  320.37   33.80
  10   3   0  191.38   30.90
  10  -3   0  228.58   34.70
 -10  -3   0  218.68   33.10
 -10   0  -1  278.17   34.50
 -10   0   1  356.36   33.50
  10   0   1  350.16   39.60
  10   0  -1  277.17   34.10
 -10   0  -1  375.36   37.00
 -10  -1  -1   -0.60   10.70
 -10   1   1   18.00   13.60
 -10  -1  -1   -1.10   15.40
  10   1  -1   11.20   12.70
  10  -1   1   -0.20   11.90
  10   1   1   -5.00   15.20
 -10   1  -1   35.80   12.80
 -10  -2  -1  160.68   25.10
  10   2   1  101.29   21.60
 -10   2  -1   94.19   21.60
  10  -2  -1  114.09   17.60
 -10  -3  -1  -20.10   15.90
  10   3   1   14.60   17.50
 -10   0  -2  407.36   38.50
  10   0  -2  322.37   36.50
  10   1  -2   -4.60   12.70
 -10  -1  -2  -13.70   19.00
  10  -1   2   15.20   24.00
 -10  -1  -2    1.40   11.00
 -10   1   2   -6.40   13.40
  10  -1   2  -18.20   12.30
  10  -1  -2   10.00   10.50
  10   1   2   23.30   18.80
 -10   1  -2   -3.70   12.60
  10   1   2  -20.30   14.60
 -10  -2  -2  439.96   46.00
  10   2   2  450.15   49.00
  10   0  -3  227.58   30.70
 -10   0  -3  221.98   31.20
  10  -1   3  -17.50   32.30
 -10  -1  -3   22.10   12.70
  10   1  -3   22.30   14.40
  10  -1   3   33.40   18.80
  10   1   3   36.40   16.60
  10   1   3    6.50   24.80
 -10   1  -3    8.10   15.70
  11   0   0   18.40   18.70
 -11   0   0   -5.60   13.30
  11  -1   0    8.30   11.70
 -11  -1   0  -13.40   11.80
 -11  -1   0   11.60   17.00
  11   1   0   39.80   18.10
  11   1   0    9.60   15.30
  11  -2   0   -9.30   13.90
  11   2   0   -6.10   17.10
 -11  -2   0   -3.60   14.10
 -11   2   0   25.00   20.10
 -11  -2   0  -29.60   22.80
 -11   0  -1  134.39   24.50
  11   0   1  126.19   21.50
  11   0  -1   88.39   17.30
 -11   0   1  173.78   23.40
  11   0   1  150.78   24.80
 -11  -1  -1    6.10   12.90
  11   1  -1   20.50   15.10
  11  -1   1  -28.60   13.60
 -11   1   1  -11.30   15.20
  11   1   1   -1.20   17.40
  11  -1  -1  -13.80   13.70
  11   1   1    9.00   20.40
 -11   1  -1   12.90   16.80
 -11   1  -1   12.20   13.00
  11  -2   1   87.99   16.30
 -11   2   1   91.59   21.80
 -11  -2  -1   34.40   17.60
 -11  -2  -1   46.50   27.80
  11   2   1   70.89   21.40
  11   0  -2  199.18   27.30
  11   0   2  140.69   24.70
  11   1  -2   98.19   18.80
 -11   1   2   82.59   18.40
 -11   1  -2   90.19   18.50
  11   1   2  100.39   25.40
 -11   2   2  209.98   37.30
 -11  -2  -2  159.48   25.70
  11   2   2  203.48   31.90
  11   0   3  246.78   36.70
 -11   0  -3  236.88   36.20
 -11  -1  -3  315.47   41.10
  11   1   3  246.78   44.10
 -11   1  -3  403.06   44.20
 -12   0   0   43.70   19.40
 -12   1   0  994.00   88.09
  12   1   0  986.40   88.09
 -12  -1   0 1027.40   87.79
  12   2   0  209.98   40.50
 -12  -2   0  339.27   38.10
 -12   0  -1   34.60   15.00
 -12   0   1   53.79   15.50
  12   0   1   21.50   21.00
 -12   0  -1   35.10   19.30
  12  -1   1  110.39   21.40
 -12  -1  -1  126.79   26.00
 -12  -1  -1  198.08   31.40
  12   1   1  131.79   25.30
 -12  -2  -1   -0.40   19.10
  12   2   1    6.50   22.80
  12   0   2  -30.30   26.80
 -12   0  -2   12.10   15.60
  12  -1   2  419.76   49.30
  12   1   2  353.86   53.29
 -12   1  -2  486.55   48.70
 -13   0   0   22.70   18.40
 -13  -1   0   -0.40   22.60
  13   1   0  -12.40   21.50
 -13   0   1  637.84   68.69
 -13   0  -1  911.61   71.89
 -13  -1  -1  390.56   44.20
 -13   1   1  258.87   42.10
  13   1   1  343.87   47.40
   0   0   0    0.00    0.00

_computing_structure_solution     'SHELXT 2014/5 (Sheldrick, 2014)'
;
_shelx_hkl_checksum              27207
_olex2_submission_special_instructions 'No special instructions were received'
loop_
_space_group_symop_operation_xyz
'x, y, z'
'-x+1/2, -y, z+1/2'
'-x, y+1/2, -z'
'x+1/2, -y+1/2, -z+1/2'
'-x, -y, -z'
'x-1/2, y, -z-1/2'
'x, -y-1/2, z'
'-x-1/2, y-1/2, z-1/2'
loop_
_atom_site_label
_atom_site_type_symbol
_atom_site_fract_x
_atom_site_fract_y
_atom_site_fract_z
_atom_site_U_iso_or_equiv
_atom_site_adp_type
_atom_site_occupancy
_atom_site_site_symmetry_order
_atom_site_calc_flag
_atom_site_refinement_flags_posn
_atom_site_refinement_flags_adp
_atom_site_refinement_flags_occupancy
_atom_site_disorder_assembly
_atom_site_disorder_group
Se1 Se 0.1465(2) 0.7500 0.4976(3) 0.0123(9) Uani 1 2 d S T P . .
Ge1 Ge 0.37899(17) 0.7500 0.6113(4) 0.0156(9) Uani 1 2 d S T P . .
loop_
_atom_site_aniso_label
_atom_site_aniso_U_11
_atom_site_aniso_U_22
_atom_site_aniso_U_33
_atom_site_aniso_U_23
_atom_site_aniso_U_13
_atom_site_aniso_U_12
Se1 0.0169(14) 0.0080(12) 0.0121(13) 0.000 0.0004(6) 0.000
Ge1 0.0233(14) 0.0094(13) 0.0141(14) 0.000 0.0031(7) 0.000
loop_
_atom_type_symbol
_atom_type_description
_atom_type_scat_dispersion_real
_atom_type_scat_dispersion_imag
_atom_type_scat_source
Ge Ge 0.1547 1.8001 'International Tables Vol C Tables 4.2.6.8 and 6.1.1.4'
Se Se -0.0929 2.2259 'International Tables Vol C Tables 4.2.6.8 and 6.1.1.4'
loop_
_geom_angle_atom_site_label_1
_geom_angle_atom_site_label_2
_geom_angle_atom_site_label_3
_geom_angle
_geom_angle_site_symmetry_1
_geom_angle_site_symmetry_3
_geom_angle_publ_flag
Ge1 Se1 Ge1 103.51(7) . 2_564 ?
Ge1 Se1 Ge1 103.51(7) . 2_574 ?
Ge1 Se1 Ge1 96.22(7) 2_564 2_574 ?
Se1 Ge1 Se1 91.32(7) . 2_575 ?
Se1 Ge1 Se1 96.22(7) 2_575 2_565 ?
Se1 Ge1 Se1 91.32(7) . 2_565 ?
loop_
_geom_bond_atom_site_label_1
_geom_bond_atom_site_label_2
_geom_bond_distance
_geom_bond_site_symmetry_2
_geom_bond_publ_flag
Se1 Ge1 2.567(3) . ?
Se1 Ge1 2.5762(15) 2_564 ?
Se1 Ge1 2.5762(15) 2_574 ?
Ge1 Se1 2.5762(15) 2_575 ?
Ge1 Se1 2.5762(15) 2_565 ?
