#------------------------------------------------------------------------------
#$Date: 2020-05-23 01:22:27 +0300 (Sat, 23 May 2020) $
#$Revision: 252284 $
#$URL: file:///home/coder/svn-repositories/cod/cif/4/00/35/4003562.cif $
#------------------------------------------------------------------------------
#
# This file is available in the Crystallography Open Database (COD),
# http://www.crystallography.net/
#
# All data on this site have been placed in the public domain by the
# contributors.
#
data_4003562
loop_
_publ_author_name
'Flynn, Steven'
'Sanghvi, Sheel'
'Nisbet, Matthew L.'
'Griffith, Kent J.'
'Zhang, Weiguo'
'Halasyamani, P. Shiv'
'Haile, Sossina M.'
'Poeppelmeier, Kenneth R.'
_publ_section_title
;
 LiIn2SbO6: A New Rutile-Related Structure Type with Unique Ion Channels
;
_journal_name_full               'Chemistry of Materials'
_journal_paper_doi               10.1021/acs.chemmater.0c01491
_journal_year                    2020
_chemical_formula_moiety         '0.5(In4 O12 Sb2), Li'
_chemical_formula_sum            'In2 Li O6 Sb'
_chemical_formula_weight         454.33
_space_group_crystal_system      orthorhombic
_space_group_IT_number           58
_space_group_name_Hall           '-P 2 2n'
_space_group_name_H-M_alt        'P n n m'
_atom_sites_solution_primary     direct
_audit_creation_date             2020-01-14
_audit_creation_method
;
Olex2 1.2
(compiled 2018.05.29 svn.r3508 for OlexSys, GUI svn.r5506)
;
_cell_angle_alpha                90
_cell_angle_beta                 90
_cell_angle_gamma                90
_cell_formula_units_Z            2
_cell_length_a                   5.0902(4)
_cell_length_b                   5.3328(4)
_cell_length_c                   8.8813(6)
_cell_measurement_reflns_used    1587
_cell_measurement_temperature    100(2)
_cell_measurement_theta_max      36.334
_cell_measurement_theta_min      4.590
_cell_volume                     241.08(3)
_computing_cell_refinement       'SAINT V8.38A (?, 2016)'
_computing_data_collection       'APEX2 V2017.3 (Bruker, 2017)'
_computing_data_reduction        'SAINT V8.38A (?, 2016)'
_computing_molecular_graphics    'Olex2 (Dolomanov et al., 2009)'
_computing_publication_material  'Olex2 (Dolomanov et al., 2009)'
_computing_structure_refinement  'XL (Sheldrick, 2008)'
_computing_structure_solution    'XS (Sheldrick, 2008)'
_diffrn_ambient_temperature      99.96
_diffrn_detector_area_resol_mean 8
_diffrn_measured_fraction_theta_full 0.992
_diffrn_measured_fraction_theta_max 0.995
_diffrn_measurement_device_type  'Bruker Kappa APEX CCD area detector'
_diffrn_measurement_method       '\w and \f scans'
_diffrn_radiation_monochromator  Triumph
_diffrn_radiation_type           MoK\a
_diffrn_radiation_wavelength     0.71073
_diffrn_reflns_av_R_equivalents  0.0513
_diffrn_reflns_av_unetI/netI     0.0258
_diffrn_reflns_Laue_measured_fraction_full 0.992
_diffrn_reflns_Laue_measured_fraction_max 0.995
_diffrn_reflns_limit_h_max       7
_diffrn_reflns_limit_h_min       -8
_diffrn_reflns_limit_k_max       8
_diffrn_reflns_limit_k_min       -8
_diffrn_reflns_limit_l_max       14
_diffrn_reflns_limit_l_min       -14
_diffrn_reflns_number            3367
_diffrn_reflns_point_group_measured_fraction_full 0.992
_diffrn_reflns_point_group_measured_fraction_max 0.995
_diffrn_reflns_theta_full        25.242
_diffrn_reflns_theta_max         36.335
_diffrn_reflns_theta_min         4.590
_diffrn_source                   'sealed tube'
_diffrn_standards_number         0
_exptl_absorpt_coefficient_mu    14.997
_exptl_absorpt_correction_T_max  1.0000
_exptl_absorpt_correction_T_min  0.7712
_exptl_absorpt_correction_type   multi-scan
_exptl_absorpt_process_details
'SADABS-2016/2 (Bruker,2016/2) was used for absorption correction. wR2(int) was 0.0599 before and 0.0308 after correction. The Ratio of minimum to maximum transmission is 0.7712. The \l/2 correction factor is Not present.'
_exptl_crystal_colour            colourless
_exptl_crystal_colour_primary    colourless
_exptl_crystal_density_diffrn    6.259
_exptl_crystal_description       block
_exptl_crystal_F_000             400
_exptl_crystal_size_max          0.09
_exptl_crystal_size_mid          0.055
_exptl_crystal_size_min          0.055
_refine_diff_density_max         1.876
_refine_diff_density_min         -2.587
_refine_diff_density_rms         0.395
_refine_ls_extinction_coef       0.0523(18)
_refine_ls_extinction_expression Fc^*^=kFc[1+0.001xFc^2^\l^3^/sin(2\q)]^-1/4^
_refine_ls_extinction_method     'SHELXL-2018/3 (Sheldrick 2018)'
_refine_ls_goodness_of_fit_ref   1.134
_refine_ls_hydrogen_treatment    undef
_refine_ls_matrix_type           full
_refine_ls_number_parameters     32
_refine_ls_number_reflns         615
_refine_ls_number_restraints     0
_refine_ls_restrained_S_all      1.134
_refine_ls_R_factor_all          0.0241
_refine_ls_R_factor_gt           0.0206
_refine_ls_shift/su_max          0.000
_refine_ls_shift/su_mean         0.000
_refine_ls_structure_factor_coef Fsqd
_refine_ls_weighting_details
'w=1/[\s^2^(Fo^2^)+(0.0282P)^2^] where P=(Fo^2^+2Fc^2^)/3'
_refine_ls_weighting_scheme      calc
_refine_ls_wR_factor_gt          0.0547
_refine_ls_wR_factor_ref         0.0567
_reflns_Friedel_coverage         0.000
_reflns_number_gt                509
_reflns_number_total             615
_reflns_threshold_expression     'I > 2\s(I)'
_iucr_refine_instructions_details
;
TITL work2 in Pnnm #58
    work2.res
    created by SHELXL-2018/3 at 12:07:28 on 14-Jan-2020
REM reset to Pnnm #58
CELL 0.71073 5.0902 5.3328 8.8813 90 90 90
ZERR 2 0.0004 0.0004 0.0006 0 0 0
LATT 1
SYMM -X,-Y,+Z
SYMM 0.5+X,0.5-Y,0.5-Z
SYMM 0.5-X,0.5+Y,0.5-Z
SFAC In Li O Sb
UNIT 4 2 12 2
EQIV $1 +X,+Y,1-Z
EQIV $2 1-X,2-Y,+Z
EQIV $3 1-X,2-Y,1-Z
EQIV $4 1-X,1-Y,+Z
EQIV $5 +X,-1+Y,+Z
EQIV $6 1-X,1-Y,1-Z
EQIV $7 +X,-1+Y,1-Z

L.S. 4 0 0
PLAN  20
SIZE 0.055 0.055 0.09
TEMP -173.19
FREE Sb1 In1_$5
FREE Sb1 In1_$4
FREE Sb1 In1_$7
FREE Sb1 In1_$6
FREE Sb1 In1_$3
FREE Sb1 In1_$1
FREE Sb1 In1_$2
FREE Sb1 In1
FREE In1 Li1_$3
FREE In1 Li1_$2
FREE In1 Li1_$1
FREE In1 Li1
CONN 0 Li1
fmap 2 53
acta
REM <olex2.extras>
REM <HklSrc "%.\\work2.hkl">
REM </olex2.extras>

WGHT    0.028200
EXTI    0.052265
FVAR       0.56144
SB1   4    0.500000    0.500000    0.500000    10.25000    0.00282    0.00155 =
         0.00171    0.00000    0.00000   -0.00011
IN1   1    0.500000    0.000000    0.300983    10.50000    0.00233    0.00235 =
         0.00228    0.00000    0.00000   -0.00040
O1    3    0.278517    0.336753    0.343477    11.00000    0.01074    0.00782 =
         0.00681   -0.00379   -0.00646    0.00657
O2    3    0.698405    0.183738    0.500000    10.50000    0.00436    0.00298 =
         0.00447    0.00000    0.00000    0.00036
LI1   2    0.050609    0.107192    0.500000    10.25000    0.00749    0.01847 =
         0.00487    0.00000    0.00000    0.00986
HKLF 4




REM  work2 in Pnnm #58
REM wR2 = 0.056656, GooF = S = 1.13392, Restrained GooF = 1.13392 for all data
REM R1 = 0.020557 for 509 Fo > 4sig(Fo) and 0.024050 for all 615 data
REM 32 parameters refined using 0 restraints

END  
     
WGHT      0.0282      0.0000 

REM Highest difference peak  1.876,  deepest hole -2.587,  1-sigma level  0.395
Q1    1   0.5045  0.4314  0.5222  11.00000  0.05    1.88
Q2    1   0.0000  0.5000  0.3985  10.50000  0.05    1.67
Q3    1   0.5000  0.5000  0.3004  10.50000  0.05    1.36
Q4    1   0.5104 -0.0822  0.2731  11.00000  0.05    1.24
Q5    1   0.0000  0.0000  0.5416  10.50000  0.05    1.06
Q6    1   0.5144  0.2837  0.5000  10.50000  0.05    1.01
Q7    1   0.0011  0.0790  0.3971  11.00000  0.05    0.99
Q8    1   0.0000  0.5000  0.5000  10.25000  0.05    0.79
Q9    1   0.4992 -0.2219  0.3046  11.00000  0.05    0.77
Q10   1   0.3210  0.3991  0.4562  11.00000  0.05    0.71
Q11   1   0.8896  0.2559  0.4473  11.00000  0.05    0.67
Q12   1   0.3221  0.6010  0.5306  11.00000  0.05    0.66
Q13   1   0.5814  0.0695  0.5000  10.50000  0.05    0.64
Q14   1   0.2387  0.3987  0.3403  11.00000  0.05    0.63
Q15   1   0.2798  0.1197  0.4586  11.00000  0.05    0.62
Q16   1   0.1816  0.3907  0.2415  11.00000  0.05    0.61
Q17   1   0.5000  0.0000  0.4394  10.50000  0.05    0.57
Q18   1   0.4211  0.0790  0.5000  10.50000  0.05    0.56
Q19   1   0.0225  0.2861  0.3019  11.00000  0.05    0.55
Q20   1   0.0832  0.2559  0.4346  11.00000  0.05    0.54

  REM The information below was added by Olex2.
  REM
  REM R1 = 0.020557 for 509 Fo > 4sig(Fo) and 0.024050 for all 3700 data
  REM n/a parameters refined using n/a restraints
  REM Highest difference peak 1.88, deepest hole -2.59
  REM Mean Shift 0, Max Shift 0.000.

  REM +++ Tabular Listing of Refinement Information +++
  REM R1_all = 0.024050
  REM R1_gt = 0.020557
  REM wR_ref = 0.056656
  REM GOOF = 1.13392
  REM Shift_max = 0.000
  REM Shift_mean = 0
  REM Reflections_all = 3700
  REM Reflections_gt = 509
  REM Parameters = n/a
  REM Hole = -2.59
  REM Peak = 1.88
  REM Flack = n/a

  
;
_cod_data_source_file            cm0c01491_si_001.cif
_cod_data_source_block           work2
_cod_database_code               4003562
_shelx_shelxl_version_number     2018/3
_shelx_space_group_comment
;
The symmetry employed for this shelxl refinement is uniquely defined
by the following loop, which should always be used as a source of
symmetry information in preference to the above space-group names.
They are only intended as comments.
;
_shelx_estimated_absorpt_t_max   0.493
_shelx_estimated_absorpt_t_min   0.345
_olex2_refinement_description
;
1. Others
 Fixed Sof: Li1(0.25)
;
_olex2_submission_special_instructions 'No special instructions were received'
loop_
_space_group_symop_operation_xyz
'x, y, z'
'-x, -y, z'
'x+1/2, -y+1/2, -z+1/2'
'-x+1/2, y+1/2, -z+1/2'
'-x, -y, -z'
'x, y, -z'
'-x-1/2, y-1/2, z-1/2'
'x-1/2, -y-1/2, z-1/2'
loop_
_atom_site_label
_atom_site_type_symbol
_atom_site_fract_x
_atom_site_fract_y
_atom_site_fract_z
_atom_site_U_iso_or_equiv
_atom_site_adp_type
_atom_site_occupancy
_atom_site_site_symmetry_order
_atom_site_calc_flag
_atom_site_refinement_flags_posn
_atom_site_refinement_flags_adp
_atom_site_refinement_flags_occupancy
_atom_site_disorder_assembly
_atom_site_disorder_group
Sb1 Sb 0.500000 0.500000 0.500000 0.00203(9) Uani 1 4 d S T P . .
In1 In 0.500000 0.000000 0.30098(2) 0.00232(9) Uani 1 2 d S T P . .
O1 O 0.2785(3) 0.3368(3) 0.34348(15) 0.0085(3) Uani 1 1 d . . . . .
O2 O 0.6984(4) 0.1837(4) 0.500000 0.0039(3) Uani 1 2 d S T P . .
Li1 Li 0.051(2) 0.107(3) 0.500000 0.010(2) Uani 0.5 2 d . . . . .
loop_
_atom_site_aniso_label
_atom_site_aniso_U_11
_atom_site_aniso_U_22
_atom_site_aniso_U_33
_atom_site_aniso_U_23
_atom_site_aniso_U_13
_atom_site_aniso_U_12
Sb1 0.00282(14) 0.00155(15) 0.00171(14) 0.000 0.000 -0.00011(7)
In1 0.00233(12) 0.00235(13) 0.00228(12) 0.000 0.000 -0.00040(6)
O1 0.0107(6) 0.0078(6) 0.0068(6) -0.0038(5) -0.0065(5) 0.0066(6)
O2 0.0044(7) 0.0030(7) 0.0045(7) 0.000 0.000 0.0004(7)
Li1 0.007(4) 0.018(6) 0.005(4) 0.000 0.000 0.010(4)
loop_
_atom_type_symbol
_atom_type_description
_atom_type_scat_dispersion_real
_atom_type_scat_dispersion_imag
_atom_type_scat_source
In In -0.7276 1.3100 'International Tables Vol C Tables 4.2.6.8 and 6.1.1.4'
Li Li -0.0003 0.0001 'International Tables Vol C Tables 4.2.6.8 and 6.1.1.4'
O O 0.0106 0.0060 'International Tables Vol C Tables 4.2.6.8 and 6.1.1.4'
Sb Sb -0.5866 1.5461 'International Tables Vol C Tables 4.2.6.8 and 6.1.1.4'
loop_
_geom_angle_atom_site_label_1
_geom_angle_atom_site_label_2
_geom_angle_atom_site_label_3
_geom_angle
_geom_angle_site_symmetry_1
_geom_angle_site_symmetry_3
_geom_angle_publ_flag
O1 Sb1 O1 88.60(10) 5_666 2_665 ?
O1 Sb1 O1 91.40(10) 5_666 6_556 ?
O1 Sb1 O1 180.0 2_665 6_556 ?
O1 Sb1 O1 88.60(10) 6_556 . ?
O1 Sb1 O1 180.0 5_666 . ?
O1 Sb1 O1 91.40(10) 2_665 . ?
O2 Sb1 O1 85.17(6) . 6_556 ?
O2 Sb1 O1 94.83(6) 5_666 6_556 ?
O2 Sb1 O1 85.17(6) 5_666 5_666 ?
O2 Sb1 O1 94.83(6) . 5_666 ?
O2 Sb1 O1 94.83(6) . 2_665 ?
O2 Sb1 O1 85.17(6) 5_666 2_665 ?
O2 Sb1 O1 85.17(6) . . ?
O2 Sb1 O1 94.83(6) 5_666 . ?
O2 Sb1 O2 180.0 . 5_666 ?
O1 In1 Sb1 89.54(4) 4_545 1_545 ?
O1 In1 Sb1 133.06(5) 3 1_545 ?
O1 In1 Sb1 37.64(4) 2_655 1_545 ?
O1 In1 Sb1 126.74(4) . 1_545 ?
O1 In1 O1 159.82(7) 2_655 . ?
O1 In1 O1 95.70(4) 3 2_655 ?
O1 In1 O1 104.72(8) 4_545 3 ?
O1 In1 O1 95.70(4) 4_545 . ?
O1 In1 O1 96.59(3) 4_545 2_655 ?
O1 In1 O1 96.59(3) 3 . ?
O1 In1 O2 89.79(6) 3 . ?
O1 In1 O2 89.46(7) . 5_656 ?
O1 In1 O2 74.65(6) . . ?
O1 In1 O2 163.56(6) 4_545 . ?
O1 In1 O2 89.79(6) 4_545 5_656 ?
O1 In1 O2 89.46(7) 2_655 . ?
O1 In1 O2 163.56(6) 3 5_656 ?
O1 In1 O2 74.65(6) 2_655 5_656 ?
O2 In1 Sb1 85.94(5) . 1_545 ?
O2 In1 Sb1 37.46(5) 5_656 1_545 ?
O2 In1 O2 77.05(8) 5_656 . ?
Sb1 O1 In1 128.87(9) . 3_455 ?
Sb1 O1 In1 100.99(7) . . ?
In1 O1 In1 126.28(6) 3_455 . ?
Sb1 O2 In1 98.19(7) . 6_556 ?
Sb1 O2 In1 98.19(7) . . ?
In1 O2 In1 102.95(8) . 6_556 ?
loop_
_geom_bond_atom_site_label_1
_geom_bond_atom_site_label_2
_geom_bond_distance
_geom_bond_site_symmetry_2
_geom_bond_publ_flag
Sb1 O1 1.9903(15) 5_666 ?
Sb1 O1 1.9903(15) 2_665 ?
Sb1 O1 1.9903(15) . ?
Sb1 O1 1.9903(15) 6_556 ?
Sb1 O2 1.966(2) . ?
Sb1 O2 1.966(2) 5_666 ?
In1 O1 2.1537(17) . ?
In1 O1 2.1537(17) 2_655 ?
In1 O1 2.1009(15) 3 ?
In1 O1 2.1009(15) 4_545 ?
In1 O2 2.2592(13) 5_656 ?
In1 O2 2.2592(13) . ?
loop_
_refln_index_h
_refln_index_k
_refln_index_l
_refln_F_squared_meas
_refln_F_squared_sigma
0 0 2 408.37 7.75
0 0 3 1.29 1.65
0 0 -4 3280.17 30.74
0 0 -5 2.09 1.91
0 0 5 0.46 1.67
0 0 5 -0.05 1.65
0 0 -6 5361.04 49.59
0 0 6 4676.86 46.39
0 0 -7 -1.26 2.11
0 0 7 4.33 3.22
0 0 -8 113.18 9.42
0 0 8 136.35 10.27
0 0 -9 2.06 2.99
0 0 9 0.13 2.96
0 0 -10 4565.25 63.72
0 0 10 4086.31 60.55
0 0 -11 1.18 4.04
0 0 11 -0.23 3.78
0 0 -12 6.15 5.1
0 0 12 1.11 4.45
0 0 -13 2.21 4.69
0 0 13 1.54 4.79
0 0 -14 1084.81 39.75
0 0 14 931.39 37.1
0 1 0 3.17 1.13
0 -1 2 3.22 1.54
0 -1 3 5235.56 38
0 -1 -4 -0.08 1.24
0 -1 4 1.08 1.62
0 1 -4 -0.59 1.42
0 1 4 -0.23 1.36
0 -1 -5 1342.19 22.06
0 -1 5 1274.45 22.17
0 1 5 1209.96 21.83
0 -1 -6 -1.7 1.62
0 -1 6 -0.7 2.03
0 1 -6 0 2.03
0 1 6 -0.75 1.57
0 -1 -7 5314.68 53.6
0 -1 7 5450.38 55.56
0 1 -7 5381.05 55.61
0 1 7 4882.15 52.91
0 -1 -8 0.08 2.68
0 -1 8 0.64 2.55
0 -1 8 1.83 3.01
0 1 -8 -0.15 2.78
0 1 8 -0.39 2.6
0 -1 -9 77.75 8.75
0 -1 9 67.81 9.63
0 1 -9 70 8.65
0 -1 -10 0.31 3.09
0 -1 10 0.46 3.3
0 1 -10 -1.21 3.53
0 1 10 0.23 3.5
0 -1 -11 22.14 6.44
0 -1 11 26.72 7.67
0 1 -11 26.8 7.34
0 1 11 24.3 6.98
0 -1 -12 -0.62 3.96
0 -1 12 -0.62 3.78
0 1 -12 -4.4 3.22
0 1 12 0.93 4.35
0 -1 -13 2868.45 60.32
0 -1 13 2551.42 57.9
0 1 -13 2754.37 60.32
0 1 13 2434.79 56.85
0 -1 -14 1.65 4.92
0 -1 14 2.81 5.07
0 1 -14 -1.75 3.96
0 1 14 -0.05 4.61
0 2 0 5549.96 50.9
0 2 -1 0.75 1.42
0 2 1 0.08 1.31
0 2 2 688.17 12.85
0 -2 3 1.57 1.62
0 2 -3 0.7 1.6
0 2 3 2.45 1.98
0 -2 -4 2985.9 28.99
0 -2 4 2910.52 30.74
0 2 -4 3151.16 32.72
0 2 4 2949.73 32.75
0 -2 -5 0.36 1.6
0 -2 5 0.39 1.93
0 2 -5 6.23 2.7
0 2 5 -0.59 1.75
0 -2 -6 1950.45 29.5
0 -2 6 1854.47 30.2
0 2 -6 1983.32 31.92
0 2 6 1822.52 30.97
0 -2 -7 -1.67 1.96
0 -2 7 0.67 2.6
0 2 -7 -0.23 2.19
0 2 -7 -1.31 1.91
0 2 7 3.81 3.01
0 -2 -8 391.74 16.14
0 -2 8 393.62 16.84
0 2 -8 380.88 16.94
0 2 -8 397.77 15.5
0 2 8 346.2 16.09
0 -2 -9 0.64 3.01
0 -2 9 1.7 3.17
0 2 -9 -0.05 2.7
0 2 -9 1.93 2.96
0 2 9 0.26 2.96
0 -2 -10 4693.57 63.51
0 -2 10 4282.52 63.2
0 2 -10 4568.6 65.91
0 2 10 3998.16 61.76
0 -2 -11 -1.57 3.09
0 -2 11 0.62 4.02
0 2 -11 -1.78 3.48
0 2 11 0.23 3.91
0 -2 -12 168.92 14.7
0 -2 12 165.49 15.14
0 2 -12 160.78 14.78
0 2 12 159.85 14.96
0 -2 -13 5.92 5.28
0 -2 13 0.49 4.63
0 2 -13 1.13 4.15
0 2 13 0.18 4.43
0 -2 -14 601.54 29.27
0 -2 14 548.25 29.12
0 2 -14 534.22 28.83
0 2 14 533.75 28.73
0 3 0 0.85 1.54
0 3 -1 216.57 8.75
0 3 1 233.38 8.86
0 3 2 1.03 1.62
0 -3 3 7292.1 56.72
0 3 -3 8693.45 65.19
0 3 3 8094.25 68.05
0 -3 -4 0.1 1.54
0 -3 4 0.93 1.83
0 3 -4 0.1 1.67
0 3 -4 1.88 1.6
0 3 4 -0.28 1.62
0 3 4 1.93 2.21
0 -3 -5 606.61 15.04
0 -3 5 598.45 16.37
0 3 -5 629.86 17.22
0 3 -5 584.86 14.67
0 3 5 599.66 17.76
0 -3 -6 -0.1 1.98
0 -3 6 0.28 2.24
0 3 -6 0.08 2.24
0 3 -6 0.64 2.06
0 3 6 -0.1 2.47
0 -3 -7 4041.64 46.52
0 -3 7 3924.17 49.04
0 3 -7 4018.45 51.05
0 3 -7 4101.01 46.73
0 3 7 3766.86 50.8
0 -3 -8 1.47 2.78
0 -3 8 -1.44 2.55
0 3 -8 1.75 3.22
0 3 -8 8.65 3.63
0 3 8 1.29 3.06
0 -3 -9 599.74 21.34
0 -3 9 561.71 21.86
0 3 -9 573.27 22.73
0 3 -9 548.74 20.26
0 3 9 516.94 21.94
0 -3 -10 0.13 3.27
0 -3 10 -1.36 2.78
0 3 -10 -0.9 3.22
0 3 -10 0.57 3.4
0 3 10 0.13 3.3
0 -3 -11 127.7 12.15
0 -3 11 129.65 13.21
0 3 -11 122.08 12.95
0 3 11 107.26 12.36
0 -3 -12 -1.13 3.58
0 -3 12 -4.3 3.3
0 3 -12 3.45 4.81
0 3 12 4.04 4.84
0 -3 -13 2276.1 52.52
0 -3 13 2124.41 53.91
0 3 -13 2240.31 55.84
0 3 13 1977.97 52.8
0 4 0 4779.69 45.62
0 4 -1 -0.88 1.8
0 4 1 -1.6 1.6
0 4 -2 225.89 5.15
0 4 2 230.94 10.58
0 -4 3 -0.26 1.6
0 4 -3 2.47 1.47
0 4 3 -0.36 1.78
0 -4 -4 2270.08 25.98
0 -4 4 2198.14 30.04
0 4 -4 2221.65 25.9
0 4 4 2199.74 33.73
0 -4 -5 1.85 2.03
0 -4 5 0.13 2.09
0 4 -5 0.31 2.03
0 4 -5 1.11 1.85
0 4 5 0.95 2.24
0 -4 -6 1481.47 25.8
0 -4 6 1521.68 29.3
0 4 -6 1572.35 30.64
0 4 -6 1511.92 27.24
0 4 6 1450.52 30.46
0 4 6 1475.86 31.95
0 -4 -7 2.03 2.55
0 -4 7 0.39 2.57
0 4 -7 1.7 2.75
0 4 -7 2.81 2.73
0 4 7 4.43 3.24
0 4 7 1.44 3.14
0 -4 -8 200.87 11.79
0 -4 8 198.27 12.77
0 4 -8 214.72 13.65
0 4 -8 219.76 12.8
0 4 8 198.45 13.1
0 4 8 197.72 13.77
0 -4 -9 1.57 3.17
0 -4 9 1.96 3.42
0 4 -9 0.21 3.09
0 4 -9 -0.23 2.75
0 4 9 1.03 3.53
0 -4 -10 3895.12 56.95
0 -4 10 4025.71 62.25
0 4 -10 3892.16 63.49
0 4 -10 4193.18 61.27
0 4 10 3395.77 61.04
0 -4 -11 -1.34 3.17
0 4 -11 0.03 3.89
0 4 -11 0.23 3.66
0 4 11 0.46 4.04
0 -4 -12 146.88 23.12
0 -4 12 137.25 14.7
0 4 -12 132.72 14.21
0 4 12 132.33 14.39
0 -4 13 3.89 5.82
0 4 -13 -3.19 3.86
0 4 13 0.26 4.4
0 5 0 0.77 2.39
0 5 1 107.36 8.47
0 5 -2 0.75 0.9
0 5 2 -0.08 2.09
0 -5 3 3254.84 36.2
0 5 -3 3118.52 27.32
0 5 3 3388.04 44.95
0 -5 4 0.21 2.09
0 5 -4 0.57 1.6
0 5 4 1.11 2.34
0 -5 5 649.32 18.72
0 5 -5 611.74 16.63
0 5 5 617.07 20.67
0 -5 6 0.41 2.68
0 5 -6 -1.06 1.96
0 5 6 -0.7 2.47
0 -5 7 3265.16 47.4
0 5 -7 3194.36 45.44
0 5 7 2837.5 47.81
0 -5 8 1.03 3.22
0 5 -8 3.86 3.86
0 5 -8 0.13 2.81
0 5 8 -1.52 2.96
0 -5 9 65.63 9.81
0 5 -9 79.63 11.17
0 5 -9 59.37 9.29
0 5 9 79.42 11.35
0 -5 10 -0.98 3.5
0 5 -10 -0.41 3.58
0 5 -10 2.24 3.86
0 5 10 0.18 3.53
0 5 -11 15.42 6.51
0 5 -11 13.26 5.87
0 5 11 11.07 5.72
0 -5 12 1.39 5.41
0 5 -12 -0.31 4.53
0 5 -12 0.08 4.04
0 5 12 -0.72 4.22
0 6 0 4512.78 56.85
0 6 1 0.31 2.57
0 6 -2 149.56 5.38
0 6 2 140.9 10.71
0 6 -3 0.39 1.57
0 6 3 1.54 2.86
0 6 -4 1168.38 21.68
0 6 4 1118.92 29.38
0 6 -5 0.95 2.34
0 6 5 0.36 3.06
0 6 -6 1961.34 34.65
0 6 6 1839.43 39.7
0 6 -7 1.39 3.04
0 6 7 0.82 3.24
0 6 -8 81.64 9.4
0 6 8 78.19 11.17
0 6 -9 0.46 3.27
0 6 9 4.94 6.46
0 6 -10 2681.8 53.22
0 7 1 138.92 11.92
0 7 -2 0.88 1.54
0 7 2 0.51 3.24
0 7 -3 2476.06 29.81
0 7 3 2261.73 44.51
0 7 -4 1.08 2.34
0 7 4 1.7 3.42
0 7 -5 268.32 12.9
0 7 -6 2.5 2.93
0 7 -7 2642.28 45.9
0 7 -8 1.8 3.45
0 7 -9 67.35 10.71
0 8 -1 -0.54 1.36
0 8 -2 156.64 7.49
0 8 -3 1.13 2.09
0 8 -4 837.91 21.37
0 8 -5 0.18 2.68
0 8 -6 725.79 23.66
-1 0 0 3.24 1
1 0 2 1.26 1.36
1 0 3 696.08 13.16
-1 0 -4 0.82 1.57
-1 0 4 1.06 1.8
1 0 -4 0.21 1.47
1 0 4 -1.47 1.29
-1 0 -5 8577.72 78.39
-1 0 5 8239.1 68.66
1 0 -5 8320.43 56.51
1 0 5 7938.18 71.37
-1 0 -6 0.21 2.01
-1 0 6 1.24 2.03
-1 0 6 -0.49 1.83
1 0 -6 10.53 3.45
1 0 6 1.44 2.14
-1 0 -7 170.33 10.4
-1 0 7 161.01 10.09
-1 0 7 187.22 9.29
1 0 -7 171.95 10.27
1 0 7 163.72 10.45
1 0 7 157.82 10.09
-1 0 -8 1.44 2.99
-1 0 8 5.43 3.55
-1 0 8 0.62 2.32
1 0 -8 1.29 2.83
1 0 8 1.42 2.91
1 0 8 2.55 2.93
-1 0 -9 1482.09 34.52
-1 0 9 1479.41 34.04
-1 0 9 1592.58 29.35
1 0 -9 1526.32 34.5
1 0 9 1495.16 34.65
1 0 9 1316.54 32.46
-1 0 -10 0 3.66
-1 0 10 0.36 3.17
-1 0 10 0.8 2.73
1 0 -10 0.85 3.35
1 0 10 0.51 3.37
-1 0 -11 1579.07 40.86
-1 0 11 1561.1 40.27
1 0 -11 1664.26 41.45
1 0 11 1453.2 39.13
-1 0 -12 -2.45 3.86
-1 0 12 0.75 3.94
1 0 -12 -0.13 3.6
1 0 12 -0.49 4.25
-1 0 -13 104.14 14.98
-1 0 13 127.03 14.29
1 0 -13 135.5 14.57
1 0 13 124.76 14.24
-1 0 -14 -1.29 4.76
-1 0 14 2.99 5.02
1 0 -14 0.51 4.92
1 0 14 3.84 5.43
-1 1 0 1607.93 16.53
-1 1 -1 1.29 1.36
-1 1 1 1.52 1.47
1 1 2 6788.39 47.14
-1 -1 -3 874.62 17.43
1 -1 3 776.71 14.91
1 1 -3 970.01 16.53
1 1 3 843.08 13.85
-1 -1 -4 291.39 10.01
-1 1 -4 300.32 10.04
-1 1 4 332.24 10.89
1 -1 -4 329.62 9.76
1 -1 4 276.17 10.09
1 1 -4 316.64 10.63
1 1 4 284.95 9.53
1 1 4 275.27 9.37
-1 -1 -5 16.55 3.58
-1 -1 5 26.03 4.43
-1 1 -5 22.73 4.3
-1 1 5 23.35 4.09
1 -1 -5 20.08 3.58
1 -1 5 25.2 4.69
1 1 -5 17.04 3.63
1 1 5 20.34 4.04
1 1 5 23.66 4.3
-1 -1 -6 183.31 9.83
-1 -1 6 201.12 9.99
-1 1 -6 187.99 10.09
-1 1 6 220.79 10.99
1 -1 -6 208.95 9.99
1 -1 6 178.26 10.07
1 1 -6 214.77 10.76
1 1 6 182.97 9.78
1 1 6 223.57 10.74
-1 -1 -7 7.52 3.22
-1 -1 7 13.83 4.25
-1 1 -7 8.91 3.58
-1 1 7 7.47 3.63
-1 1 7 11.15 4.66
1 -1 -7 11.46 3.84
1 -1 7 8.88 3.94
1 1 -7 12.98 3.96
1 1 7 8.34 3.78
-1 -1 -8 4748.56 56.92
-1 -1 8 4490.13 54.17
-1 1 -8 4651.27 56.74
-1 1 8 4682.34 57.18
1 -1 -8 4788.03 55.17
1 -1 8 4722.15 57.64
1 1 -8 4847.58 58.34
1 1 8 4143.18 52.93
-1 -1 -9 98.45 9.86
-1 -1 9 89.08 9.27
-1 1 -9 99.69 9.94
-1 1 9 87.79 9.47
1 -1 -9 96.91 9.47
1 -1 9 100.3 9.78
1 1 -9 91.4 9.42
1 1 9 80.58 9.01
-1 -1 -10 471.06 21.09
-1 -1 10 502.37 21.57
-1 -1 10 510.51 19.64
-1 1 -10 480.15 21.63
-1 1 10 496.71 21.96
1 -1 -10 528.14 21.75
1 -1 10 487.23 21.75
1 -1 10 442.18 20.73
1 1 -10 523.1 22.45
1 1 10 417.05 19.88
-1 -1 -11 14.73 6.23
-1 -1 11 22.09 7
-1 -1 11 20.26 6.28
-1 1 -11 19.52 6.75
-1 1 11 10.48 5.46
1 -1 -11 16.71 6.15
1 -1 11 18.28 6.62
1 1 -11 19.13 6.98
1 1 11 21.29 7
-1 -1 -12 2720.93 56.56
-1 -1 12 2569.73 54.48
-1 -1 12 2721.16 48.92
-1 1 -12 2610.22 56.02
-1 1 12 2538.57 55.2
1 -1 -12 2687.95 54.91
1 -1 12 2443.06 54.3
1 1 -12 2715.11 57.03
1 1 12 2377.95 53.09
-1 -1 -13 9.53 6.1
-1 -1 13 6 5.61
-1 1 -13 -2.27 4.27
-1 1 13 4.2 4.99
1 -1 -13 6.05 5.74
1 -1 13 2.75 5.17
1 1 -13 2.09 5.38
1 1 13 3.58 4.84
-1 -1 -14 118.02 14.65
-1 -1 14 141.42 15.6
-1 1 -14 123.55 14.96
-1 1 14 127.41 14.98
1 -1 -14 127.16 14.73
1 -1 14 123.89 14.86
1 1 -14 127.65 15.32
1 1 14 107.98 15.63
1 2 0 736.14 10.01
-1 2 1 3347.75 30.84
1 2 1 3279.17 24.48
-1 2 2 0.44 1.72
1 2 2 0.62 1.06
-1 -2 -3 501.98 12.31
-1 -2 3 594.59 11.25
-1 2 3 591.19 14.6
1 2 -3 597.4 14.11
-1 -2 -4 21.11 3.71
-1 -2 4 22.3 3.42
-1 2 -4 23.07 3.76
-1 2 4 25.98 4.4
1 -2 4 19.52 3.96
1 2 -4 30.04 4.74
1 2 4 25.54 3.96
-1 -2 -5 7018.94 54.58
-1 -2 5 7398.53 59.39
-1 2 -5 7138.74 54.37
-1 2 5 6902.86 57.75
1 -2 -5 7337.9 49.41
1 -2 5 6591.54 55.3
1 2 -5 7103.26 57.57
1 2 5 5911.53 49.25
-1 -2 -6 194.38 10.4
-1 2 -6 186.78 10.17
-1 2 6 207.97 11.3
1 -2 -6 204.88 9.68
1 -2 6 184.08 10.63
1 2 -6 208.28 11.22
1 2 6 179.03 9.86
-1 -2 -7 246.07 12.54
-1 -2 7 245.51 12.25
-1 2 -7 273.91 13.28
-1 2 -7 251.4 11.69
-1 2 7 245.25 13.03
1 -2 -7 259.44 11.89
1 -2 7 244.35 12.87
1 2 -7 263.68 13.41
1 2 7 222.39 11.82
-1 -2 -8 5.12 3.6
-1 -2 8 5.97 3.73
-1 2 -8 5.79 3.37
-1 2 -8 8.08 3.76
-1 2 8 6.62 3.86
1 -2 -8 6.28 3.4
1 -2 8 4.69 3.32
1 2 -8 7.59 4.12
1 2 -8 7.59 3.45
1 2 8 9.17 3.94
-1 -2 -9 1418.52 33.83
-1 -2 9 1348.8 32.62
-1 2 -9 1385.98 34.06
-1 2 -9 1434.1 31.62
-1 2 9 1337.06 34.24
1 -2 -9 1399.7 31.9
1 -2 9 1347.85 33.86
1 2 -9 1449 35.5
1 2 -9 1443.7 31.82
1 2 9 1178.5 31.18
-1 -2 -10 16.07 5.59
-1 -2 10 13.44 5.46
-1 2 -10 10.61 5.12
-1 2 10 23.38 6.93
1 -2 -10 11.07 4.81
1 -2 10 16.12 6.1
1 2 -10 7.23 4.58
1 2 10 6.67 4.4
-1 -2 -11 1405.57 38.41
-1 -2 11 1339.46 37.25
-1 -2 11 1446.3 37.23
-1 2 -11 1396.64 39.16
-1 2 11 1309.9 38.46
1 -2 -11 1442.28 37.33
1 -2 11 1365.79 38.75
1 -2 11 1270.12 37.85
1 2 -11 1427.4 39.96
1 2 11 1139 35.12
-1 -2 -12 32.23 8.37
-1 -2 12 34.22 8.75
-1 -2 12 39.29 8.8
-1 2 -12 44.15 9.94
-1 2 12 33.39 8.88
1 -2 -12 32.16 8.19
1 -2 12 38.33 9.37
1 2 -12 29.79 8.73
1 2 12 34.22 8.83
-1 -2 -13 165.98 15.86
-1 -2 13 169.69 15.94
-1 -2 13 217.47 16.63
-1 2 -13 177.44 16.71
-1 2 13 163.3 16.22
1 -2 -13 166.93 15.32
1 -2 13 160.27 16.07
1 2 -13 188.25 17.25
1 2 13 140.18 14.96
-1 -2 -14 13.44 6.93
-1 -2 14 11.89 6.72
-1 2 -14 7.08 6.15
-1 2 14 9.42 6.57
1 -2 -14 7.98 6.08
1 -2 14 8.86 6.72
1 2 -14 8.78 6.31
1 2 14 9.73 6.1
-1 3 0 1109.55 20.96
1 3 0 1018.49 15.68
-1 3 -1 13.98 3.42
-1 3 1 11.2 3.17
1 3 1 10.4 2.27
-1 -3 -2 5988.79 41.76
-1 -3 2 6506.66 36.58
-1 3 -2 5427.88 48.35
-1 3 2 6343.74 51.41
1 3 2 6154.23 47.09
-1 -3 -3 3.66 1.96
-1 -3 3 8.6 2.16
-1 3 -3 3.32 1.78
-1 3 3 3.91 2.55
1 3 3 1.88 1.62
1 3 3 3.89 2.03
-1 -3 -4 344.06 11.77
-1 -3 4 380.72 10.86
-1 3 -4 385.25 11.77
-1 3 -4 353 10.56
-1 3 4 383.01 14.16
1 -3 4 338.35 12.64
1 3 -4 380.52 10.94
1 3 4 355.18 11.15
1 3 4 380.13 12.36
-1 -3 -5 13.08 3.68
-1 -3 5 11.17 3.06
-1 3 -5 7.44 2.91
-1 3 -5 9.22 2.86
-1 3 5 11.61 3.94
1 -3 -5 12.23 2.93
1 -3 5 8.52 3.32
1 3 -5 11.74 3.86
1 3 -5 10.76 3.04
1 3 5 12.46 3.55
-1 -3 -6 106.25 8.08
-1 -3 6 123.68 8.03
-1 3 -6 100.46 7.88
-1 3 -6 112.74 7.8
-1 3 6 113.33 9.29
1 -3 -6 111.89 7.18
1 -3 6 96.91 8.39
1 3 -6 134.52 9.63
1 3 -6 106.35 7.59
1 3 6 108.62 8.34
-1 -3 -7 2.78 2.81
-1 3 -7 6.38 3.35
-1 3 -7 2.83 2.75
-1 3 7 2.21 3.24
1 -3 -7 4.04 2.63
1 -3 7 4.45 3.42
1 3 -7 3.94 3.14
1 3 -7 2.63 2.52
1 3 7 4.43 3.35
-1 -3 -8 4132.42 54.01
-1 3 -8 4142.46 55.33
-1 3 -8 4285.99 52.42
-1 3 8 4066.98 58.39
1 -3 -8 4344.33 50.64
1 -3 8 4199.23 57.31
1 3 -8 4223.77 58.21
1 3 -8 4334.01 52.73
1 3 8 3526.73 51.36
-1 -3 -9 2.21 3.24
-1 -3 9 2.5 3.48
-1 3 -9 2.78 3.45
-1 3 -9 1.54 3.09
-1 3 9 -0.21 3.04
1 -3 -9 2.88 3.14
1 -3 9 -2.06 2.63
1 3 -9 1.44 3.53
1 3 -9 0.57 2.7
1 3 9 -0.49 3.17
-1 -3 -10 319.91 17.74
-1 -3 10 320.07 17.92
-1 3 -10 310.7 18.05
-1 3 -10 368.31 18.12
-1 3 10 304.13 18.69
1 -3 -10 338.45 17.07
1 -3 10 336.23 18.92
1 3 -10 336.47 19.13
1 3 -10 330.03 17.2
1 3 10 305.19 17.87
-1 -3 -11 0.88 4.07
-1 -3 11 4.76 4.66
-1 3 -11 2.27 4.35
-1 3 11 5.36 4.97
1 -3 -11 3.86 4.07
1 -3 11 1.83 4.07
1 3 -11 2.96 4.48
1 3 11 1.7 3.86
-1 -3 -12 2358.64 52.31
-1 -3 12 2278.96 51.95
-1 -3 12 2430.75 53.81
-1 3 -12 2425.22 54.99
-1 3 12 2149.72 53.27
1 -3 -12 2423.98 50.28
1 -3 12 2400.71 54.73
1 -3 12 2203.76 53.65
1 3 -12 2385.49 55.66
1 3 12 1981.68 49.69
-1 -3 -13 1 4.92
-1 -3 13 3.3 4.84
-1 -3 13 5.36 5.84
-1 3 -13 1.7 4.53
-1 3 13 1.03 5.05
1 -3 -13 2.88 4.4
1 -3 13 -2.24 4.61
1 3 -13 -0.62 4.69
1 3 13 0.13 4.3
-1 4 0 261.24 12.1
1 4 0 270.94 10.07
-1 4 -1 2203.42 34.37
-1 4 1 2392.29 35.43
1 4 1 2280.66 28.01
-1 -4 -2 6.82 2.47
-1 -4 2 6.98 1.85
-1 4 -2 5.66 3.06
-1 4 2 6.38 3.19
1 4 -2 4.94 1.49
1 4 2 4.89 2.27
-1 -4 -3 211.4 9.17
-1 -4 3 222.13 7.52
-1 4 -3 205.37 7.36
-1 4 3 224.22 11.79
1 4 -3 224.55 7.65
1 4 3 206.5 9.19
-1 -4 -4 3.99 2.37
-1 -4 4 1.47 1.65
-1 4 -4 1.39 1.88
-1 4 -4 0.82 1.7
-1 4 4 -0.46 2.32
1 -4 4 1.54 2.5
1 4 -4 1.96 1.72
1 4 4 -1.16 1.62
-1 -4 -5 5319.18 50.36
-1 -4 5 5971.23 48.56
-1 4 -5 5644.11 50.72
-1 4 -5 5250.62 46.83
-1 4 5 5343.51 59.55
1 -4 5 5209.66 55.02
1 4 -5 5876.77 49.59
1 4 5 5140.17 49.38
1 4 5 5375.43 53.89
-1 -4 -6 112.15 8.52
-1 -4 6 130.14 8.42
-1 4 -6 128.29 9.09
-1 4 -6 121.42 8.47
-1 4 6 118.12 10.07
1 -4 6 114 9.5
1 4 -6 131.35 8.73
1 4 6 116.09 8.57
1 4 6 104.37 8.73
-1 -4 -7 154.52 10.56
-1 4 -7 151.59 10.63
-1 4 -7 147.8 10.04
-1 4 7 138.95 11.3
1 -4 7 145.72 11.1
1 4 -7 159.62 11.66
1 4 -7 154.58 10.3
1 4 7 133.08 9.68
1 4 7 147.96 11.04
-1 -4 -8 17.53 5.2
-1 4 -8 17.22 5.38
-1 4 -8 14.7 4.63
-1 4 8 13.75 5.1
-1 4 8 23.02 6.85
1 -4 8 12.07 4.94
1 4 -8 19.95 5.87
1 4 -8 20.39 5.3
1 4 8 16.09 5.48
-1 -4 -9 1265.34 32.39
-1 4 -9 1182.43 32.52
-1 4 -9 1238.46 31.8
-1 4 9 1094.15 33.06
-1 4 9 1196.41 35.63
1 -4 9 1199.58 33.86
1 4 -9 1276.64 35.48
1 4 -9 1262.09 32.08
1 4 9 1083.03 31.9
-1 -4 -10 0.51 3.68
-1 -4 10 0.36 3.78
-1 4 -10 1.85 4.04
-1 4 -10 2.55 3.84
-1 4 10 3.96 5.05
1 -4 10 -0.05 3.68
1 4 -10 1.85 4.22
1 4 -10 1.85 3.76
1 4 10 1.11 3.68
-1 -4 -11 1217.91 35.63
-1 -4 11 1246.9 37.23
-1 4 -11 1210.55 37.36
-1 4 -11 1320.64 36.94
-1 4 11 1143.35 38.57
1 -4 11 1227.52 38
1 4 -11 1188.95 38.31
1 4 -11 1263.35 36.12
1 4 11 1028.66 34.94
-1 -4 -12 33.03 8.39
-1 -4 12 40.01 9.29
-1 -4 12 36.58 9.91
-1 4 -12 32.26 8.62
-1 4 12 21.86 8.14
1 -4 12 33.73 8.83
1 4 -12 31.74 8.93
1 4 12 31.8 8.73
-1 -4 -13 151.95 15.22
-1 -4 13 126.92 14.62
-1 -4 13 130.09 15.37
-1 4 -13 132.02 14.8
-1 4 13 114.31 15.96
-1 4 13 119.48 14.88
1 -4 13 124.25 15.16
1 4 -13 144.46 15.88
1 4 13 107.13 15.32
-1 5 0 664.23 21.32
-1 -5 -1 11.1 3.63
-1 5 -1 2.29 3.3
-1 5 1 2.21 2.86
1 5 1 4.38 2.86
-1 5 -2 3688.75 26
-1 5 2 3845.08 51
1 5 -2 4037.27 27.29
1 5 2 3636.31 41.24
-1 5 -3 91.01 5.46
-1 5 3 94.54 9.01
1 5 -3 101.87 5.72
1 5 3 95.85 7.41
-1 5 -4 139.39 7.62
-1 5 4 125.17 10.32
1 -5 4 123.5 9.24
1 5 -4 118.4 7.11
1 5 4 172.26 9.99
-1 5 -5 1.72 2.29
-1 5 5 0.54 2.73
1 -5 5 2.45 3.06
1 5 -5 1.49 2.14
1 5 5 -0.82 2.16
-1 5 -6 67.3 7
-1 5 6 55.89 9.06
1 -5 6 59.68 8.6
1 5 -6 70.39 7.11
1 5 6 60.19 7.05
-1 5 -7 10.09 4.12
-1 5 7 9.91 4.79
1 -5 7 12.13 4.92
1 5 -7 15.55 4.56
1 5 7 7.49 3.78
-1 5 -8 2871.2 47.78
-1 5 -8 2942.16 47.71
-1 5 8 2665.42 51.59
1 -5 8 2949.57 51.34
1 5 -8 3187.08 49.64
-1 5 -9 43.74 8.47
-1 5 -9 44.9 8.19
-1 5 9 34.6 8.08
1 -5 9 34.37 7.83
1 5 -9 40.55 7.9
-1 -5 10 363.14 20.18
-1 5 -10 354.39 19.75
-1 5 -10 370.97 19.85
-1 5 10 308.97 19.72
1 -5 10 358.74 20.52
1 5 -10 410.69 20.8
1 5 10 341.31 20.08
-1 -5 11 2.88 5.2
-1 5 -11 0.18 3.81
-1 5 -11 4.81 4.81
-1 5 11 3.35 4.22
1 -5 11 3.94 4.53
1 5 -11 4.87 4.71
1 5 11 1.21 4.58
-1 -5 12 1918.83 48.94
-1 -5 12 1937.08 54.14
-1 5 -12 1790.62 47.53
-1 5 -12 1947.05 48.56
-1 5 12 1618.64 46.99
1 -5 12 1935 50.07
1 5 -12 2000.83 49.17
1 5 12 1556.46 45.7
-1 6 0 3.01 3.4
-1 6 -1 1518.13 35.84
-1 6 1 1586.48 36.22
1 6 -1 1722.6 15.09
1 6 1 1500.36 29.99
-1 6 -2 11.35 2.37
-1 6 2 13.08 4.87
1 6 -2 12.15 2.42
1 6 2 8.44 3.84
-1 6 -3 156.64 7.57
-1 6 3 159.49 12.46
1 6 -3 176.2 7.98
-1 6 -4 4.89 2.55
-1 6 4 7.57 4.43
1 -6 4 7.03 3.76
1 6 -4 9.83 3.09
-1 6 -5 3723.15 44.41
-1 6 5 3767.32 59.03
1 -6 5 3825.07 52.21
1 6 -5 4212.98 47.29
-1 6 -6 1.42 2.78
-1 6 6 -0.39 3.22
1 -6 6 4.58 3.76
1 6 -6 1.75 2.86
-1 6 -7 73.17 8.44
-1 6 7 65.21 10.66
1 -6 7 65.83 10.76
1 6 -7 73.32 8.42
-1 6 -8 7.34 4.45
-1 6 8 6.38 4.87
1 6 -8 7.7 4.3
-1 6 -9 912.67 29.92
-1 6 9 787.42 30.87
1 6 -9 887.32 29.5
-1 6 -10 7.83 5.36
-1 6 10 4.87 5.28
1 6 -10 4.04 4.33
-1 7 0 278.36 17.38
-1 7 -1 -0.08 1.29
-1 7 1 -2.32 3.17
-1 7 -2 2387.45 26.75
-1 7 2 2543.57 50.26
1 7 -2 2931.47 29.71
-1 7 -3 55.35 5.48
-1 7 3 67.4 10.68
1 7 -3 66.09 5.84
-1 7 -4 93.33 7.52
-1 7 4 98.53 11.2
1 7 -4 101.28 7.83
-1 7 -5 4.63 3.19
-1 7 5 9.09 5.25
1 7 -5 7.75 3.6
-1 7 -6 75.15 8.37
-1 7 6 62.43 10.66
1 7 -6 71.98 8.29
-1 7 -7 1.18 3.04
-1 7 7 -1.96 3.81
1 7 -7 2.93 3.48
-1 7 -8 2284.11 46.06
-1 7 8 2025.29 49.74
1 7 -8 2321.67 46.44
1 8 0 31.87 3.14
-1 8 -1 837.76 15.32
-1 8 1 805.55 30.79
1 8 -1 1015.66 16.94
-1 8 -2 2.88 2.11
-1 8 2 -3.06 3.91
1 8 -2 2.27 2.14
-1 -8 3 141.14 13.62
-1 8 -3 138.36 8.57
-1 8 3 118.94 12.95
1 8 -3 139.46 8.6
-1 -8 4 2.39 5.41
-1 8 -4 5.61 3.19
-1 8 4 1.06 4.51
1 8 -4 5.07 3.19
-1 -8 5 2820.15 59.96
-1 8 -5 2616.53 41.91
-1 8 5 2324.27 53.19
1 8 -5 2785.94 43.28
-1 -8 6 23.74 8.65
-1 8 -6 18.79 5.43
1 8 -6 21.11 5.66
-2 0 0 7089.51 50.56
-2 0 -1 0.31 1
-2 0 -2 454.2 11.38
-2 0 -3 0.28 1.67
-2 0 -4 3363.59 36.35
-2 0 4 3829.81 35.25
-2 0 4 3587.13 35.35
2 0 -4 3899.27 37.95
2 0 4 3140.4 34.4
-2 0 -5 2.03 2.21
-2 0 5 1.57 1.83
-2 0 5 1.96 2.09
2 0 -5 0.54 2.01
2 0 5 0 1.83
-2 0 -6 1462 28.47
-2 0 6 1567.43 27.7
-2 0 6 1597.35 26.7
2 0 -6 1624.12 29.12
2 0 6 1458.4 28.11
-2 0 -7 -0.46 2.73
-2 0 7 0.72 2.68
-2 0 7 0.26 2.32
2 0 -7 -0.82 2.01
2 0 7 -1.11 2.45
-2 0 -8 351.12 16.53
-2 0 8 382.24 16.53
-2 0 8 398.64 15.22
2 0 -8 380.9 16.86
2 0 8 352.51 16.53
-2 0 -9 -0.93 3.14
-2 0 9 0.67 2.81
-2 0 9 -0.77 2.68
2 0 -9 0.15 3.09
2 0 9 -0.7 3.06
2 0 9 3.78 3.73
-2 0 -10 4826 68.51
-2 0 10 4822.32 66.29
-2 0 10 4735.48 56.79
2 0 -10 5038.84 68.51
2 0 10 4752.45 67.48
2 0 10 4126.29 62.36
-2 0 -11 0.77 4.17
-2 0 11 -0.03 3.86
2 0 -11 1.57 4.15
2 0 11 0.18 3.55
2 0 11 -0.72 3.17
-2 0 -12 233.77 18.05
-2 0 12 231.45 17.38
2 0 -12 263.09 18.51
2 0 12 232.82 17.69
-2 0 -13 -0.85 4.63
-2 0 13 0 4.04
2 0 -13 -1.91 4.22
2 0 13 2.42 4.79
-2 0 -14 509.35 28.35
-2 0 14 503.86 27.62
2 0 -14 556.44 28.89
2 0 14 479.38 27.32
-2 -1 0 3.48 0.8
-2 1 0 0.13 1.52
-2 1 -1 179.24 6.93
-2 1 1 187.27 7.34
-2 1 -2 86.84 5.28
2 1 2 85.19 4.53
-2 -1 -3 8371.97 73.68
-2 -1 3 8502.06 72.11
-2 1 -3 8478.17 69.8
-2 1 -3 8642.24 65.86
-2 1 3 9167.76 75.41
2 1 3 7015.36 47.4
-2 -1 -4 61.89 5.59
-2 -1 4 74.02 5.95
-2 1 -4 68.02 5.59
-2 1 4 83.9 6.13
2 -1 -4 88.23 5.74
2 1 4 68.53 5.33
-2 -1 -5 878.07 20.85
-2 -1 5 977.17 19.05
-2 -1 5 1022.5 21.88
-2 1 -5 883.89 20.18
-2 1 5 1000.98 21.63
-2 1 5 910.33 17.71
2 -1 -5 1043.08 20.42
2 -1 5 857.89 20.83
2 1 -5 1050.8 22.78
2 1 5 835.67 18.9
2 1 5 776.3 17.66
-2 -1 -6 0.26 2.21
-2 -1 6 1.47 2.24
-2 -1 6 0.62 2.19
-2 1 -6 0.1 2.03
-2 1 6 1 2.16
-2 1 6 2.42 2.24
2 -1 -6 0.7 2.19
2 -1 6 -1.34 2.16
2 1 -6 -1.47 1.98
2 1 6 0.05 2.09
2 1 6 -0.08 2.19
-2 -1 -7 4316.73 53.27
-2 -1 7 4428.16 49.35
-2 -1 7 4520.04 51.39
-2 1 -7 4372.6 52.73
-2 1 7 4547.13 53.68
-2 1 7 4202.99 42.07
2 -1 -7 4632.91 51.21
2 -1 7 4105.77 52.26
2 1 -7 4701.19 55.64
2 1 7 4078.33 49.61
2 1 7 3564.79 45.62
-2 -1 -8 38.85 7.62
-2 -1 8 20.42 5.28
-2 -1 8 14.73 4.87
-2 1 -8 18.25 5.38
-2 1 8 14.03 4.92
-2 1 8 13.54 3.99
2 -1 -8 12.9 4.53
2 -1 8 14.06 5.3
2 1 -8 19.36 5.61
2 1 8 15.37 4.89
2 1 8 11.25 4.4
-2 -1 -9 323.23 17.33
-2 -1 9 330.7 16.35
-2 -1 9 303.51 15.32
-2 1 -9 295.81 16.32
-2 1 9 322.67 17.02
2 -1 -9 328.38 16.37
2 -1 9 322.46 17.22
2 1 -9 329.49 17.3
2 1 9 299.96 16.27
2 1 9 263.97 15.09
-2 -1 -10 18.07 6.31
-2 -1 10 21.91 6.36
-2 -1 10 22.35 6.31
-2 1 -10 14.55 5.82
-2 1 10 21.24 6.38
2 -1 -10 12.23 5.12
2 -1 10 16.84 6.13
2 1 -10 21.19 6.54
2 1 10 15.6 5.79
-2 -1 -11 65.91 11.3
-2 -1 11 80.66 11.71
-2 -1 11 83.9 11.28
-2 1 -11 52.06 9.89
-2 1 11 82.02 12.13
2 -1 -11 75.13 11.25
2 -1 11 58.08 10.3
2 -1 11 57.9 10.68
2 1 -11 77.31 12.31
2 1 11 71.34 11.56
-2 -1 -12 1.49 4.92
-2 -1 12 0.39 3.68
-2 -1 12 5.72 4.66
-2 1 -12 1.93 4.33
-2 1 12 2.88 4.35
2 -1 -12 -1.54 3.81
2 -1 12 0.36 3.73
2 -1 12 -0.18 4.81
2 1 -12 2.6 4.74
2 1 12 1.13 4.2
-2 -1 -13 2377.07 57.21
-2 -1 13 2387.99 55.2
-2 1 -13 2352.77 57.03
-2 1 13 2336.73 56.33
2 -1 -13 2476.73 55.94
2 -1 13 2215.39 55.4
2 1 -13 2410.65 57.62
2 1 13 2187.43 54.01
-2 -1 -14 1.6 5.41
-2 -1 14 1.18 4.81
-2 1 -14 4.09 5.87
-2 1 14 2.11 5.12
2 -1 -14 3.71 5.54
2 -1 14 0.85 5.12
2 1 -14 2.19 5.61
2 1 14 -1.24 4.35
-2 2 0 9999 95.08
-2 -2 1 80.71 6.23
-2 2 1 74.89 5.9
-2 -2 2 355.42 11.84
-2 2 -2 289.3 10.84
-2 2 -2 307.84 11.2
-2 2 2 347.31 12.02
2 2 2 309.72 4.56
2 2 2 298.52 7
-2 -2 -3 2.91 2.19
-2 -2 3 3.19 2.39
-2 2 -3 2.63 1.78
-2 2 3 0.85 2.03
2 2 3 1.31 1.44
-2 -2 -4 2509.87 33.91
-2 -2 4 2802.82 36.89
-2 2 -4 2517.9 30.38
-2 2 4 2798.27 36.64
2 -2 -4 2912.37 28.32
2 2 4 2438.22 27.73
2 2 4 2274.17 26.65
-2 -2 -5 17.89 4.12
-2 -2 5 22.94 3.99
-2 -2 5 27.86 5.51
-2 2 -5 19.39 4.17
-2 2 5 27.42 5.38
2 -2 -5 28.14 4.3
2 -2 5 25.13 5.17
2 2 5 23.81 4.22
2 2 5 20.91 3.99
-2 -2 -6 2920.84 41.81
-2 -2 6 2981.7 36.58
-2 -2 6 3221.14 44.46
-2 2 -6 3041.87 40.55
-2 2 -6 2961.98 37.87
-2 2 6 3304.71 45.41
-2 2 6 2531.91 32.72
2 -2 -6 3358.46 38.26
2 -2 6 2827.85 42.25
2 2 -6 3268.07 45.26
2 2 -6 3266.29 39.73
2 2 6 2881.71 37.67
2 2 6 2567.72 35.48
-2 -2 -7 18.02 4.92
-2 -2 7 34.45 6
-2 -2 7 25.64 6.08
-2 2 -7 25.64 5.64
-2 2 -7 27.52 5.48
-2 2 7 30.35 6.13
2 -2 -7 31.67 5.51
2 -2 7 26.78 6.02
2 2 -7 28.4 6.13
2 2 -7 34.6 6.15
2 2 7 27.65 5.64
-2 -2 -8 140.31 11.3
-2 -2 8 164.8 10.92
-2 -2 8 175.74 12.33
-2 2 -8 140.52 11.04
-2 2 8 146.65 11.51
2 -2 -8 157.72 10.48
2 -2 8 145.56 11.74
2 2 -8 175.38 12.72
2 2 -8 165.72 10.89
2 2 8 114.95 9.6
-2 -2 -9 -0.18 3.42
-2 -2 9 -0.82 2.7
-2 -2 9 0.57 3.09
-2 2 -9 0.64 3.32
-2 2 9 0.26 3.45
2 -2 -9 0.21 2.7
2 -2 9 -0.7 3.27
2 2 -9 -0.85 2.65
2 2 9 -1.08 2.78
-2 -2 -10 4006.16 63.26
-2 -2 10 4018.52 59.32
-2 -2 10 4189.03 62.36
-2 2 -10 3962.17 62.41
-2 2 10 4016.21 64.44
2 -2 -10 4207.91 59.5
2 -2 10 3881.81 63.41
2 2 -10 4085.82 65.21
2 2 10 3258.31 55.1
-2 -2 -11 6.05 4.97
-2 -2 11 0.59 3.6
-2 -2 11 6.87 5.25
-2 2 -11 5.33 4.87
-2 2 11 4.3 4.84
2 -2 -11 0.67 3.76
2 -2 11 6.1 5.15
2 2 -11 4.76 4.81
2 2 11 4.33 4.27
-2 -2 -12 28.53 8.62
-2 -2 12 42.63 9.37
-2 -2 12 29.84 8.19
-2 2 -12 34.47 9.09
-2 2 12 31.77 8.96
2 -2 -12 35.79 8.68
2 -2 12 31.2 8.42
2 -2 12 46.86 10.58
2 2 -12 30.1 8.55
2 2 12 27.96 8.26
-2 -2 -13 12.25 6.59
-2 -2 13 14.86 7.08
-2 -2 13 12.56 6.49
-2 2 -13 13.7 6.8
-2 2 13 11.02 6.31
2 -2 -13 6 5.36
2 -2 13 11.25 6.75
2 2 -13 11.33 6.69
2 2 13 13.85 6.49
-2 -2 14 836.93 34.32
-2 2 14 818.32 35.91
2 -2 14 777.77 35.3
2 2 14 761.47 33.78
-2 -3 0 6.72 2.63
-2 3 0 3.06 2.55
-2 3 0 5.64 2.65
-2 -3 1 296.51 11.12
-2 3 -1 287.58 12.13
-2 3 1 278.85 12.02
-2 3 1 254.78 9.89
-2 -3 2 -0.08 2.03
-2 3 -2 -1.52 2.01
-2 3 -2 2.29 1.62
-2 3 2 2.24 2.24
-2 3 2 0.39 1.75
2 3 -2 -0.82 1.13
2 3 2 0.51 1
-2 -3 -3 3837.48 41.81
-2 -3 3 4482.15 48.09
-2 3 -3 4072.41 33.39
-2 3 -3 3742.82 34.24
-2 3 3 4074.91 47.04
2 3 -3 4447.67 37.36
2 3 3 3946.69 27.08
-2 -3 -4 -0.03 1.91
-2 -3 4 3.53 3.27
-2 3 -4 1.6 1.93
-2 3 -4 1.31 1.85
-2 3 4 -0.85 2.32
2 3 -4 0.88 1.78
2 3 4 -0.31 1.29
2 3 4 -0.23 1.65
-2 -3 -5 760.11 20.88
-2 -3 5 853.05 23.66
-2 3 -5 803.1 19.1
-2 3 -5 739.59 18.38
-2 3 5 857.22 23.89
2 -3 -5 891.15 16.48
2 -3 5 772.72 22.09
2 3 -5 848.23 19.62
2 3 5 757.79 18.12
-2 -3 -6 3.24 2.86
-2 -3 6 1.16 2.29
-2 -3 6 2.42 2.86
-2 3 -6 1.47 2.57
-2 3 -6 0.67 2.24
-2 3 6 4.04 3.27
-2 3 6 1.21 2.57
2 -3 -6 2.52 2.19
2 -3 6 2.16 3.14
2 3 -6 0 1.88
2 3 6 1.6 2.37
-2 -3 -7 4188.91 54.76
-2 -3 7 4142.98 48.2
-2 -3 7 4565.23 60.42
-2 3 -7 4147.92 51.72
-2 3 -7 4250.88 50.72
-2 3 7 4443.73 59.96
2 -3 -7 4641.07 47.22
2 -3 7 4093.18 56.43
2 3 -7 4554.8 52.49
2 3 7 3444.79 46.03
-2 -3 -8 -0.23 3.12
-2 -3 8 0.82 2.99
-2 -3 8 -1.39 2.88
-2 3 -8 1.03 2.86
-2 3 -8 2.16 2.96
-2 3 8 -1.47 2.68
2 -3 -8 1.18 2.47
2 -3 8 1.26 3.4
2 3 -8 1.65 2.65
2 3 8 1.93 2.83
-2 -3 -9 19.36 6.1
-2 -3 9 26.29 6.38
-2 -3 9 50.87 9.37
-2 3 -9 24.61 6.59
-2 3 -9 37.79 7.26
-2 3 9 39.21 8.75
2 -3 -9 28.55 6.08
2 -3 9 21.27 6.69
2 3 -9 21.06 6.28
2 3 -9 28.78 6.67
2 3 9 23.92 6.31
-2 -3 -10 5.84 4.43
-2 -3 10 -0.03 3.4
-2 -3 10 -0.75 3.73
-2 3 -10 2.03 3.84
-2 3 10 2.91 4.33
2 -3 -10 2.21 3.3
2 -3 10 0.75 4.12
2 3 -10 2.29 4.07
2 3 10 0.41 3.35
-2 -3 -11 14.08 6.31
-2 -3 11 7.34 5.3
-2 -3 11 12.9 6.44
-2 3 -11 9.83 5.56
-2 3 11 15.04 6.75
2 -3 -11 15.99 5.61
2 -3 11 9.63 5.9
2 3 -11 13.49 6.49
2 3 11 11.33 5.74
-2 -3 -12 -0.54 4.2
-2 -3 12 2.57 4.25
-2 -3 12 -0.15 4.66
-2 3 -12 3.94 4.81
-2 3 12 -2.47 3.71
2 -3 -12 0.54 4.33
2 -3 12 -0.08 3.78
2 3 -12 -1.65 4.22
2 3 12 2.01 4.3
-2 -3 -13 2545.86 58.93
-2 -3 13 2504.59 55.84
-2 -3 13 2600.52 58.8
-2 3 -13 2497.25 58.78
-2 3 13 2443.93 60.48
2 -3 13 2573.18 60.97
2 -3 13 2488.22 61.09
2 3 13 2063.42 52.47
-2 -4 0 7745.14 57.49
-2 4 0 6748.98 64.39
2 4 0 7885.69 49.66
-2 -4 -1 31.54 4.89
-2 -4 1 24.72 4.94
-2 4 -1 18.25 4.61
-2 4 1 22.06 5.05
2 4 -1 27.14 3.09
2 4 1 22.55 2.73
-2 -4 2 362.47 14.52
-2 4 -2 296.84 14.31
-2 4 2 339.81 15.22
2 4 -2 345.94 9.99
2 4 2 311.29 10.32
2 4 2 345.5 8.78
-2 -4 -3 0.26 2.09
-2 -4 3 0.67 2.7
-2 4 -3 -0.54 1.49
-2 4 3 1.62 3.01
2 4 -3 -0.03 1.47
-2 -4 -4 1521.24 29.07
-2 -4 4 1733.72 34.68
-2 4 -4 1553.86 25.33
-2 4 4 1601.42 33.91
2 4 -4 1708.57 26.57
-2 -4 -5 11.92 4.17
-2 -4 5 12.46 4.84
-2 4 -5 14.11 5.23
-2 4 -5 13.59 3.78
-2 4 5 15.6 5.1
2 -4 5 10.38 4.38
2 4 -5 14.06 3.71
2 4 5 17.12 4.12
-2 -4 -6 2013.47 36.94
-2 -4 6 2239.54 43.64
-2 4 -6 2004.85 33.16
-2 4 -6 2040.04 34.24
-2 4 6 1966.74 40.57
2 -4 6 1992.23 39.31
2 4 -6 2204.37 35.58
2 4 6 1946.74 33.26
-2 -4 -7 12.85 4.76
-2 -4 7 11.43 4.33
-2 -4 7 17.2 6.26
-2 4 -7 11.69 4.2
-2 4 -7 11.33 4.35
-2 4 7 11.66 4.87
2 -4 7 12.07 5.1
2 4 -7 14.55 4.43
2 4 7 12.23 4.43
-2 -4 -8 202.9 13.75
-2 -4 8 202.59 12.51
-2 -4 8 204.37 15.47
-2 4 -8 189.92 12.77
-2 4 -8 181.27 12.44
-2 4 8 183.1 14.26
2 -4 8 188.4 14.19
2 4 -8 211.96 13.26
2 4 8 181.51 12.38
-2 -4 -9 1.44 3.6
-2 -4 9 -1.08 2.96
-2 -4 9 2.86 4.63
-2 4 -9 -0.08 3.14
-2 4 -9 0.93 3.48
-2 4 9 -0.49 3.22
2 -4 9 0.62 3.91
2 4 -9 0.67 3.14
2 4 9 0.15 3.5
-2 -4 -10 3154.84 57.18
-2 -4 10 3097.79 53.04
-2 -4 10 3251.23 62.87
-2 4 -10 3048.46 55.33
-2 4 -10 3243.61 55.76
-2 4 10 2713.49 56.87
2 -4 10 3185.81 60.55
2 4 -10 3282.28 56.1
2 4 10 2527.32 50.18
-2 -4 -11 5.54 5.02
-2 -4 11 3.17 4.35
-2 -4 11 5.23 5.59
-2 4 -11 4.3 4.56
-2 4 -11 5.15 5.72
-2 4 11 3.99 5.15
2 -4 11 2.78 4.71
2 4 -11 4.94 5.64
2 4 11 4.63 4.94
-2 -4 -12 35.22 8.93
-2 -4 12 49.17 10.14
-2 -4 12 36.3 9.81
-2 4 -12 39.03 9.32
-2 4 12 31.44 9.24
2 -4 12 49.92 10.94
2 4 12 35.73 9.14
-2 -5 0 5.23 3.24
-2 5 0 -2.06 3.04
2 5 0 2.37 1.62
-2 -5 -1 214.61 12.2
-2 -5 1 204.57 11.56
-2 5 -1 177.72 12.54
-2 5 1 173.73 12.33
2 5 -1 199.09 7.36
2 5 1 205.78 6.75
-2 -5 2 9.78 4.27
-2 5 -2 4.74 3.53
-2 5 -2 6.85 2.34
-2 5 2 4.92 3.55
2 5 -2 5.9 2.21
2 5 2 11.51 2.37
-2 -5 -3 4332.72 49.35
-2 -5 3 5076.92 61.04
-2 5 -3 4250.15 40.14
-2 5 3 4667.95 61.53
2 5 -3 4992.81 43.56
-2 -5 -4 10.09 3.94
-2 -5 4 8.78 4.76
-2 5 -4 11.59 3.32
-2 5 4 11.15 4.69
2 5 -4 17.82 3.99
-2 -5 -5 301.86 14.49
-2 -5 5 371.3 18.85
-2 5 -5 326.27 13.67
-2 5 5 331.76 17.69
2 -5 5 309.49 16.12
2 5 -5 335.9 13.85
-2 -5 -6 1.8 3.17
-2 -5 6 0.39 4.04
-2 5 -6 1.24 2.52
-2 5 6 0.08 3.24
2 -5 6 3.58 3.78
2 5 -6 3.86 2.93
-2 -5 -7 2917.83 47.83
-2 -5 7 3188.05 58.67
-2 5 -7 2911.55 46.08
-2 5 7 2796.05 53.78
2 -5 7 2894.5 51.9
2 5 -7 3162.69 48.04
-2 -5 -8 3.24 3.91
-2 -5 8 2.68 4.61
-2 5 -8 2.03 3.48
-2 5 8 2.93 4.56
2 -5 8 4.71 4.61
2 5 -8 3.01 3.42
-2 -5 -9 219.02 15.27
-2 -5 9 268.63 19.46
-2 5 -9 246.67 15.96
-2 5 9 221.69 17.12
2 -5 9 230.78 16.91
2 5 -9 258.2 16.27
2 5 9 203.77 21.55
-2 -5 -10 6.46 5.02
-2 -5 10 7.93 6.18
-2 5 -10 12.72 5.77
-2 5 10 6.62 5.02
2 -5 10 8.37 5.82
2 5 -10 6.23 4.69
2 5 10 1.65 4.33
-2 -5 -11 80.4 13.72
-2 -5 11 85.32 14.19
-2 5 -11 95.72 13.28
-2 5 11 65.99 12.13
2 -5 11 82.69 13.28
2 5 -11 110.71 12.62
2 5 11 64.52 12.33
-2 6 0 3049.75 53.45
2 6 0 3640.07 30.64
-2 -6 1 1.42 3.4
-2 6 -1 3.48 3.99
-2 6 1 -0.77 2.7
2 6 -1 -0.88 1.36
2 6 1 0.36 1.39
-2 -6 2 179.65 12.67
-2 6 -2 145.64 7.62
-2 6 2 145.31 12.59
2 6 -2 160.19 7.98
2 6 2 163.95 6.87
-2 -6 3 5.95 4.38
-2 6 -3 3.63 2.29
-2 6 3 7.36 4.63
2 6 -3 4.07 2.42
-2 -6 4 1479.54 37.69
-2 6 -4 1238.89 25.46
-2 6 4 1306.06 36.46
2 6 -4 1400.68 27.06
-2 -6 5 -2.34 3.63
-2 6 -5 -0.82 2.37
-2 6 5 2.7 4.2
2 -6 5 -1.39 3.27
2 6 -5 1.65 2.57
-2 -6 6 885.9 32.13
-2 6 -6 767.29 23.45
-2 6 6 770.17 29.5
2 -6 6 744.94 26.67
2 6 -6 827.12 24.36
-2 -6 7 4.45 5.17
-2 6 -7 3.58 3.37
-2 6 7 1.98 4.09
2 -6 7 -0.9 3.35
2 6 -7 1.54 3.12
-2 -6 8 206.53 17.76
-2 6 -8 187.45 13.88
-2 6 8 171.03 15.63
2 -6 8 216.54 16.25
2 6 -8 185.52 13.8
-2 -6 9 0.88 4.97
-2 6 -9 1.65 3.71
-2 6 9 4.94 5.02
2 -6 9 4.84 4.94
2 6 -9 6.18 4.63
-2 -6 10 3015.87 67.74
-2 6 -10 2994.96 57.8
-2 6 10 2457.37 58.42
2 -6 10 3008.94 61.22
2 6 -10 3091.66 58.73
-2 7 0 0.03 3.63
2 7 0 1.96 1.96
-2 7 -1 52.11 5.05
-2 7 1 52.21 10.2
2 7 -1 50.38 4.99
2 7 1 54.81 4.69
-2 -7 2 5.41 4.87
-2 7 -2 8.37 3.04
-2 7 2 6.77 5.2
2 7 -2 10.71 3.17
-2 -7 3 3188.54 56.2
-2 7 -3 2610.76 36.12
-2 7 3 2673.61 55.3
2 7 -3 3255.76 40.39
-2 -7 4 9.04 5.46
-2 7 -4 6.64 3.35
-2 7 4 5.77 5.15
2 7 -4 6.51 3.37
-2 -7 5 393.24 22.19
-2 7 -5 352.38 15.86
-2 7 5 349.31 21.34
2 7 -5 399.72 16.86
-2 -7 6 -2.78 4.02
-2 7 -6 1.29 3.12
-2 7 6 2.11 4.3
2 7 -6 1.39 3.24
-2 -7 7 2070.73 53.55
-2 7 -7 1885.8 40.81
-2 7 7 1752.26 47.89
2 7 -7 2107.36 43.12
-2 -7 8 7.9 6.23
-2 7 -8 5.97 4.3
-2 7 8 4.09 5.54
2 7 -8 2.63 3.94
2 8 0 3589.22 36.46
-2 8 -1 1.67 2.19
-2 8 1 1.42 4.66
2 8 -1 3.4 2.47
2 8 1 2.01 1.98
-2 8 -2 57.98 6.23
-2 8 2 48.3 10.27
2 8 -2 60.99 6.31
-2 8 -3 2.52 2.65
-2 8 3 6.18 5.36
2 8 -3 2.01 2.6
-2 -8 4 979.46 34.58
-2 8 -4 833.2 23.51
-2 8 4 826.84 33.42
2 8 -4 980.62 25.49
-2 -8 5 -0.67 4.63
-2 8 -5 -0.49 2.83
-2 8 5 0.15 4.48
2 8 -5 1.49 3.19
-3 0 0 1.39 1.36
-3 0 0 1.6 2.06
-3 0 -1 2101.31 20.8
-3 0 1 2318.14 23.97
-3 0 1 1952.12 27.96
-3 0 -2 0.33 1.7
-3 0 2 0.26 1.85
-3 0 -3 376.86 13.18
-3 0 -3 389.48 12.87
-3 0 3 387.44 13.41
-3 0 -4 0.33 2.09
-3 0 -4 0.51 1.96
-3 0 4 1.88 1.96
-3 0 4 2.14 2.52
3 0 4 -0.95 2.14
-3 0 -5 5857.77 57.59
-3 0 -5 5995.95 52.7
-3 0 5 6292.25 52.73
-3 0 5 5780.54 54.79
3 0 5 5284.4 53.11
-3 0 -6 -0.54 2.32
-3 0 6 0.08 2.24
-3 0 6 0.31 2.75
3 0 6 3.24 3.01
-3 0 -7 435.9 18.33
-3 0 7 483.65 17.51
-3 0 7 462.26 17.28
3 0 7 407.03 17.35
-3 0 -8 -0.23 2.7
-3 0 8 1.52 2.91
-3 0 8 -0.57 2.7
3 0 -8 -0.13 2.63
3 0 8 0.36 3.22
-3 0 -9 1255.65 34.7
-3 0 9 1361.01 33.65
-3 0 9 1263.22 30.74
3 0 -9 1380.31 35.17
3 0 9 1224.63 33.52
3 0 9 1167.55 32.03
-3 0 -10 -2.99 3.48
-3 0 10 6.18 4.38
-3 0 10 0.18 3.58
3 0 -10 1.18 3.6
3 0 10 -0.36 4.02
3 0 10 1.75 3.68
-3 0 -11 1061.82 35.86
-3 0 11 1151.26 35.19
-3 0 11 1068.51 31.02
3 0 -11 1203.49 36.84
3 0 11 1047.37 35.01
3 0 11 1021.81 34.04
-3 0 -12 3.91 5.12
-3 0 12 -1.42 3.68
3 0 -12 4.3 4.94
3 0 12 -1.29 3.94
3 0 12 2.45 4.63
-3 0 -13 262.91 20.54
-3 0 13 320.61 21.29
3 0 13 255.16 19.7
-3 -1 0 1251.74 11.28
-3 -1 0 1198.04 21.78
-3 1 0 1232.59 20.11
-3 1 0 1073.15 21.14
-3 -1 -1 2.96 2.21
-3 -1 1 3.09 1.34
-3 -1 1 2.86 2.19
-3 1 -1 2.57 2.03
-3 1 -1 2.91 2.45
-3 1 1 4.69 2.24
-3 1 1 2.42 2.24
-3 -1 -2 7264.53 51.77
-3 -1 2 6840.86 55.15
-3 1 -2 6631.4 54.12
-3 1 -2 6991.71 49.66
-3 1 -2 6921.42 55.22
-3 1 2 7321.94 66.29
-3 1 2 6147.62 50.46
-3 -1 -3 205.17 10.45
-3 -1 -3 202.69 8.96
-3 -1 3 227.67 10.92
-3 1 -3 196.21 9.27
-3 1 -3 202.44 10.12
-3 1 3 226.59 10.27
-3 1 3 191.8 9.45
3 1 3 185.47 8.34
-3 -1 -4 420.83 15.34
-3 -1 -4 431.18 13
-3 -1 4 491.12 12.36
-3 -1 4 444.85 15.63
-3 1 -4 403.74 14.01
-3 1 -4 414.06 14.7
-3 1 4 403.38 13.75
3 1 4 369.34 12.56
-3 -1 -5 4.09 2.96
-3 -1 -5 7.85 2.99
-3 -1 5 6.87 2.6
-3 -1 5 6.41 3.3
-3 1 -5 3.91 3.04
-3 1 5 8.34 3.37
-3 1 5 8.06 3.45
3 -1 5 7.7 3.89
3 1 5 6.33 3.12
-3 -1 -6 117.94 9.76
-3 -1 6 130.58 8.29
-3 -1 6 111.17 9.17
-3 1 -6 155.55 10.27
-3 1 6 129.29 9.35
-3 1 6 108.03 8.06
3 -1 6 96.08 8.99
3 1 6 103.16 8.34
3 1 6 99.09 7.75
-3 -1 -7 6.77 4.07
-3 -1 7 8.26 3.55
-3 -1 7 9.42 4.3
-3 1 -7 9.14 4.35
-3 1 7 6.82 3.68
-3 1 7 8.78 3.53
3 -1 7 9.94 4.48
3 1 7 10.27 4.17
3 1 7 7.05 3.55
-3 -1 -8 4138.14 59.65
-3 -1 8 4457.64 54.4
-3 -1 8 4289.88 57.28
-3 1 -8 4098.77 57.9
-3 1 8 4434.18 58.96
-3 1 8 3954.34 48.68
3 -1 -8 4503.54 57.1
3 -1 8 4159.92 59.57
3 1 8 3927.59 54.66
3 1 8 3478.82 49.92
-3 -1 -9 51.65 9.45
-3 -1 9 55.69 8.44
-3 -1 9 52.08 8.99
-3 1 -9 40.34 8.55
-3 1 9 51.75 8.88
-3 1 9 51.83 7.88
3 -1 -9 47.19 8.29
3 -1 9 43.18 8.73
3 1 9 54.99 9.32
3 1 9 41.22 8.06
-3 -1 -10 288.32 18.28
-3 -1 10 316.1 17.28
-3 -1 10 284.2 16.73
-3 1 -10 288.27 18.12
-3 1 10 326.3 18.77
3 -1 -10 328.18 18.12
3 -1 10 283.25 18.2
3 1 10 290.05 17.58
3 1 10 256.86 16.3
-3 -1 -11 16.4 6.18
-3 -1 11 13.8 5.84
-3 -1 11 16.48 6.23
-3 1 -11 8.44 5.72
-3 1 11 12.64 6
3 -1 -11 17.3 6.36
3 -1 11 11.92 6.1
3 -1 11 14.55 6.31
3 1 11 12.33 5.72
-3 -1 -12 2272.78 55.17
-3 -1 12 2345.77 51.75
-3 -1 12 2292.09 49.15
-3 1 -12 2213.64 53.94
-3 1 12 2416.26 55.17
3 -1 -12 2477.92 53.99
3 -1 12 2292.5 55.1
3 -1 12 2214.16 53.68
3 1 12 2117.59 50.74
-3 -1 -13 0.15 4.71
-3 -1 13 4.63 4.99
-3 1 -13 9.09 6.54
-3 1 13 2.83 5.41
3 -1 -13 11.69 6.26
3 -1 13 6.41 5.97
3 -1 13 11.02 6.59
3 1 13 6.33 5.54
-3 -2 0 245.3 10.48
-3 2 0 238.43 10.66
-3 2 0 201.56 9.89
-3 -2 -1 3458.82 36.71
-3 -2 1 3436.14 39.47
-3 2 -1 3352.82 38.62
-3 2 -1 3083.55 28.63
-3 2 -1 2874.35 37.07
-3 2 1 3463.35 39.83
-3 2 1 2836.86 35.43
3 2 1 2719.38 21.7
-3 -2 -2 0.39 1.8
-3 -2 2 0.23 2.19
-3 2 -2 -1.29 1.98
-3 2 -2 1.49 1.67
-3 2 -2 -1.34 1.75
-3 2 2 -0.39 1.93
-3 2 2 1.36 2.19
3 2 2 0.18 1.26
-3 -2 -3 277.23 12.51
-3 -2 -3 288.58 10.32
-3 -2 3 326.35 13.7
-3 2 -3 282.92 10.53
-3 2 -3 290.2 12.95
-3 2 3 342.77 13.85
-3 2 3 263.76 11.04
3 2 3 257.45 8.86
-3 -2 -4 4.4 2.91
-3 -2 -4 5.25 2.45
-3 -2 4 5.41 3.24
-3 2 -4 7.13 2.91
-3 2 -4 2.55 2.52
-3 2 4 7.78 3.58
-3 2 4 5.38 2.99
3 2 -4 5.69 2.81
3 2 4 6.85 2.65
3 2 4 4.99 2.19
-3 -2 -5 6441.83 64.49
-3 -2 -5 6844.96 48.14
-3 -2 5 7031.84 48.84
-3 -2 5 6893.67 67.14
-3 2 -5 6235.18 56.85
-3 2 5 5330.95 49.35
3 2 -5 7052.9 59.68
3 2 5 5560.7 49.48
3 2 5 5058.41 44.75
-3 -2 -6 87.95 8.68
-3 -2 6 96.16 7.03
-3 -2 6 96.24 9.27
-3 2 -6 83.21 7.88
-3 2 -6 86.12 7.78
-3 2 6 78.42 6.75
3 -2 6 85.91 9.04
3 2 -6 86.09 7.72
3 2 6 78.78 7.23
3 2 6 90.08 7.23
-3 -2 -7 143.25 11.59
-3 -2 7 91.5 7.65
-3 -2 7 84.93 9.01
-3 2 -7 79.84 8.42
-3 2 -7 79.84 8.06
-3 2 7 85.09 8.83
-3 2 7 71.34 6.85
3 -2 7 86.56 9.65
3 2 -7 87.97 8.32
3 2 7 88.28 8.32
3 2 7 70.26 7.29
-3 -2 -8 6.28 4.17
-3 -2 8 7.23 3.55
-3 -2 8 5.64 4.56
-3 2 -8 7.13 3.89
-3 2 8 9.27 4.63
3 -2 -8 7.41 3.81
3 -2 8 6.85 4.35
3 2 8 5.36 3.71
3 2 8 8.24 3.78
-3 -2 -9 1204.47 34.96
-3 -2 9 1311.37 31.33
-3 -2 9 1273.96 34.99
-3 2 -9 1188.54 33.37
-3 2 9 1323.6 36.25
3 -2 -9 1383.43 32.72
3 -2 9 1227.93 35.66
3 2 9 991.79 28.63
-3 -2 -10 5.97 5.46
-3 -2 10 3.66 4.02
-3 -2 10 7.44 5.23
-3 2 -10 8.01 5.43
-3 2 10 5.84 4.94
3 -2 -10 5.64 3.99
3 -2 10 5.23 4.94
3 2 10 7.59 4.79
-3 -2 -11 1320.87 40.45
-3 -2 11 1362.14 36.71
-3 -2 11 1397.61 39.67
-3 2 -11 1295.82 39.21
-3 2 11 1389.99 41.32
3 -2 -11 1468.78 38.28
3 -2 11 1368.45 41.6
3 2 11 1208.31 36.02
-3 -2 -12 16.48 7.11
-3 -2 12 21.37 7.31
-3 -2 12 23.58 7.67
-3 2 -12 20.44 7.39
-3 2 12 20 7.72
3 -2 -12 20.52 6.82
3 -2 12 19.95 8.11
3 2 12 16.53 6.59
-3 -2 -13 87.48 14.75
-3 -2 13 81.3 12.87
-3 -2 13 102.7 14.55
-3 2 -13 66.09 12.67
-3 2 13 97.78 15.19
3 -2 13 76.75 13.05
3 -2 13 80.27 13.8
3 2 13 91.11 14.06
-3 -3 0 810.13 19.62
-3 3 0 783.66 21.45
-3 3 0 679.01 18.92
3 3 0 794.12 16.68
-3 -3 -1 -0.18 2.11
-3 -3 1 1.08 2.7
-3 3 -1 -0.59 2.55
-3 3 -1 -1.8 2.29
-3 3 1 1 2.75
-3 3 1 -0.46 2.03
3 3 -1 -0.46 1.65
3 3 1 0.8 1.88
-3 -3 -2 4775.98 42.94
-3 -3 2 4576.22 50.77
-3 3 -2 4384.83 50.98
-3 3 -2 4136.64 49.53
-3 3 -2 4308.88 40.91
-3 3 2 4574.57 52.7
-3 3 2 3507.43 40.83
3 3 -2 4696.37 42.74
-3 -3 -3 -1.78 2.29
-3 -3 -3 3.68 2.37
-3 -3 3 -2.6 2.32
-3 3 -3 0.9 1.8
-3 3 -3 -0.67 1.72
-3 3 3 0.36 2.52
-3 3 3 1.16 2.29
3 3 -3 0.82 1.93
-3 -3 4 47.22 7.34
-3 3 -4 46.86 5.15
-3 3 -4 49.71 5.79
-3 3 4 56.38 8.29
-3 3 4 41.94 5.17
3 3 -4 51.13 5.77
-3 -3 -5 -0.26 2.34
-3 -3 5 0.39 2.68
-3 3 -5 1.96 2.47
-3 3 -5 1.91 2.5
-3 3 5 2.14 2.83
-3 3 5 1.96 2.45
3 3 -5 1.62 2.29
-3 -3 -6 106.74 10.04
-3 -3 6 117.71 10.81
-3 3 -6 103.14 8.57
-3 3 -6 107.95 8.91
-3 3 6 96.29 9.86
3 -3 6 100.46 10.09
3 3 -6 113.38 9.01
-3 -3 -7 2.73 3.63
-3 -3 7 0.59 3.5
-3 3 -7 -0.59 2.57
-3 3 -7 11.74 4.56
-3 3 7 -0.75 2.68
3 -3 7 2.78 3.6
3 3 -7 0.23 2.73
3 3 7 2.45 2.78
-3 -3 -8 3144.08 54.32
-3 -3 8 3099.08 55.25
-3 3 -8 2871.64 47.99
-3 3 -8 3058.17 48.71
-3 3 8 2936.49 54.17
3 -3 8 2994.29 54.5
3 3 -8 3188.18 49.71
3 3 8 2392.13 40.96
-3 -3 -9 2.45 4.27
-3 -3 9 1.78 4.53
-3 3 -9 1.03 3.71
-3 3 -9 -0.8 3.14
3 -3 9 1.57 3.96
3 3 -9 1.67 3.4
3 3 9 0.67 3.17
-3 -3 -10 566.04 25.93
-3 -3 10 594.62 26.83
-3 3 -10 525.75 23.81
3 -3 10 571.01 26.62
3 3 10 459.48 21.21
-3 -3 -11 0.05 4.27
-3 -3 11 0.1 4.4
-3 3 -11 -1.13 3.91
-3 3 11 0.49 4.43
3 -3 11 -0.03 4.2
3 3 11 0.03 3.71
-3 -3 -12 2108.88 53.7
-3 -3 12 2146.65 53.6
-3 3 -12 2073.15 51.75
-3 3 12 2131.2 55.4
3 -3 12 2104.15 54.79
3 3 12 1816.31 46.32
-3 -4 0 93.04 7.8
-3 4 0 88.23 8.99
3 4 0 95.88 6.41
-3 -4 -1 2425.4 34.04
-3 -4 1 2356.86 37.28
-3 4 -1 2213.51 40.09
-3 4 1 2267.5 40.6
-3 4 1 1955.49 33.34
3 4 -1 2335.98 30.02
3 4 1 2362.4 29.32
-3 -4 -2 1.44 2.21
-3 -4 2 -0.1 2.75
-3 4 -2 -1.11 2.57
-3 4 -2 1.88 2.09
-3 4 2 -0.57 2.93
-3 4 2 2.86 2.6
3 4 -2 1.91 2.14
-3 -4 -3 278.33 14.01
-3 -4 3 327.04 15.78
-3 4 -3 293.21 12.05
-3 4 3 295.84 15.73
-3 4 3 265 11.92
3 4 -3 330.37 12.74
-3 -4 -4 2.78 3.19
-3 -4 4 4.17 3.81
-3 4 -4 4.58 2.88
-3 4 4 8.11 4.17
3 4 -4 9.14 3.4
-3 -4 -5 4900.84 60.94
-3 -4 5 5320.6 67.61
-3 4 -5 4881.07 53.83
-3 4 5 4892.71 65.52
3 4 -5 5295.55 56.1
-3 -4 -6 40.81 7.75
-3 -4 6 44.72 8.78
-3 4 -6 38.46 6.8
-3 4 6 51.59 9.19
3 -4 6 38.82 8.01
3 4 -6 55.66 8.03
-3 -4 -7 71.24 10.2
-3 -4 7 77.98 11.41
-3 4 -7 75.36 8.6
-3 4 7 85.32 11.92
3 -4 7 87.12 10.4
3 4 -7 85.68 9.01
-3 -4 -8 8.83 4.94
-3 -4 8 9.94 5.82
-3 4 -8 9.86 4.51
-3 4 -8 8.29 4.43
-3 4 8 8.08 5.1
3 -4 8 9.04 5.07
3 4 -8 6.77 4.04
-3 -4 -9 851.14 30.59
-3 -4 9 926.5 33.88
-3 4 -9 864.56 28.32
-3 4 -9 983.55 30.69
-3 4 9 842 32.18
3 -4 9 892.28 32.67
3 4 -9 931.16 29.84
-3 -4 -10 11.84 6
-3 -4 10 5.02 5.72
-3 4 -10 3.73 4.27
-3 4 -10 11.41 5.59
-3 4 10 3.6 5.15
3 -4 10 7.96 5.9
3 4 -10 9.35 5.41
-3 -4 -11 1096.24 37.64
-3 -4 11 1170.39 40.73
-3 4 -11 1086.74 35.45
-3 4 11 1040.01 38.49
3 -4 11 1162.69 40.27
-3 -4 -12 9.37 6.33
-3 -4 12 17.46 7.72
-3 4 -12 17.74 7.03
-3 4 12 10.58 6.51
3 -4 12 24.64 8.14
-3 -5 0 453.53 16.97
-3 5 0 405.23 19.46
3 5 0 471.01 13.98
-3 -5 -1 4.53 3.35
-3 -5 1 5.28 3.63
-3 5 -1 2.01 3.58
-3 5 1 3.81 3.81
3 5 -1 4.35 2.52
3 5 1 2.06 2.24
-3 -5 2 4228.27 56.33
-3 5 -2 3925.3 42.53
-3 5 2 3910.8 59.39
3 5 -2 4233.08 44.23
-3 -5 -3 51.21 8.03
-3 -5 3 61.2 9.37
-3 5 -3 46.62 6.36
-3 5 3 48.25 8.68
3 5 -3 53.24 6.1
-3 -5 -4 209.59 13.36
-3 -5 4 236.14 15.29
-3 5 -4 195.02 11.15
-3 5 4 208.92 15.01
3 5 -4 223.06 11.84
-3 -5 -5 0.7 3.3
-3 -5 5 3.81 4.22
-3 5 -5 2.45 2.88
-3 5 5 3.01 4.15
3 5 -5 3.17 2.99
-3 -5 -6 116.6 11.07
-3 -5 6 107.36 12.07
-3 5 -6 94.28 9.29
-3 5 6 83.31 11.89
3 -5 6 86.27 10.74
3 5 -6 109.83 9.91
-3 -5 -7 -0.1 3.71
-3 -5 7 4.22 5.43
-3 5 -7 11.77 4.74
-3 5 7 5.17 4.71
3 -5 7 5.17 4.89
3 5 -7 6.23 4.2
-3 -5 -8 2866.44 54.12
-3 -5 8 3081.8 62.38
-3 5 -8 3077.45 53.16
-3 5 8 2658.19 57.31
3 -5 8 2879.03 57.8
3 5 -8 3093.08 53.32
-3 -5 -9 19.13 6.75
-3 -5 9 24.38 8.03
-3 5 -9 11.33 5.66
-3 5 9 16.63 6.8
3 -5 9 19 7.18
3 5 -9 20.18 6.62
-3 -5 -10 197.93 16.43
-3 -5 10 224.29 19.13
-3 5 -10 221.38 16.79
-3 5 10 187.79 17.33
3 -5 10 215.08 18.15
3 5 -10 238.09 17.3
-3 -5 -11 7.93 5.77
-3 -5 11 4.79 5.48
-3 5 -11 3.4 4.71
-3 5 11 7.57 6.08
3 -5 11 1.29 5.28
3 5 -11 4.89 4.97
-3 6 0 -0.77 3.68
3 6 0 2.14 2.34
-3 -6 1 1166.81 30.33
-3 6 -1 982.47 32.65
-3 6 1 1002.14 32.88
3 6 -1 1109.52 23.04
3 6 1 1069.64 21.78
-3 -6 -2 0.23 3.63
-3 -6 2 3.48 4.04
-3 6 -2 2.11 2.52
-3 6 2 4.81 4.38
3 6 -2 3.91 2.68
-3 -6 -3 108.44 10.38
-3 -6 3 133.62 12.28
-3 6 -3 129.06 9.32
-3 6 3 133.85 13.23
3 6 -3 138.84 9.55
-3 -6 -4 2.14 3.35
-3 -6 4 0.67 4.15
-3 6 -4 1.21 2.86
-3 6 4 3.6 4.27
3 6 -4 1.31 2.63
-3 -6 -5 3011.03 50.95
-3 -6 5 3385.83 61.61
-3 6 -5 3059.22 47.01
-3 6 5 3004.08 59.57
3 6 -5 3421 49.74
-3 -6 -6 0.21 5.61
-3 -6 6 1.18 4.45
-3 6 -6 -0.98 2.83
-3 6 6 -2.09 3.76
3 -6 6 1.57 4.17
3 6 -6 -0.98 2.73
-3 -6 7 174.86 16.43
-3 6 -7 199.5 14.19
-3 6 7 191.52 16.71
3 -6 7 172.16 15.5
3 6 -7 187.79 13.83
-3 -6 8 1.03 4.89
-3 6 -8 0.85 3.35
-3 6 8 4.76 5.02
3 -6 8 1.54 4.76
3 6 -8 1.85 3.58
-3 -6 9 817.62 35.4
-3 6 -9 810.36 30.15
-3 6 9 713.61 32.52
3 -6 9 783.87 32.46
3 6 -9 837.83 30.64
-3 7 0 413.06 23.38
3 7 0 462.36 15.58
-3 7 -1 0.95 4.56
-3 7 -1 0.08 2.5
-3 7 1 1.13 4.38
3 7 -1 3.12 2.78
3 7 1 -2.27 2.21
-3 -7 2 2841.42 52.29
-3 7 -2 2358.23 36.97
-3 7 2 2398.75 54.91
3 7 -2 2732.82 39.85
-3 -7 3 26.36 7.62
-3 7 -3 24.59 5.33
-3 7 3 28.55 7.85
3 7 -3 22.89 5.28
-3 -7 4 114.34 12.92
-3 7 -4 111.99 9.86
-3 7 4 112.74 13.62
3 7 -4 147.16 10.99
-3 -7 5 4.74 5.54
-3 7 -5 5.97 3.94
-3 7 5 1.8 4.35
3 -7 5 0.59 4.53
3 7 -5 3.17 3.6
-3 -7 6 29.35 8.88
-3 7 -6 20.8 6.1
-3 7 6 18.54 7.36
3 -7 6 16.07 6.59
3 7 -6 15.73 5.46
-3 -7 7 3.32 5.64
-3 7 -7 7.54 4.56
-3 7 7 2.68 5.12
3 -7 7 8.16 5.9
3 7 -7 6.54 4.51
-3 8 0 21.21 4.89
3 8 0 16.91 4.38
-3 8 -1 934.58 23.56
-3 8 1 923.85 36.58
3 8 -1 1097.09 25.57
-3 8 -2 4.66 3.24
-3 8 2 -1 4.45
3 8 -2 2.86 3.01
-3 8 -3 85.04 8.75
-3 8 3 53.76 11.41
3 8 -3 74.58 8.26
-4 0 0 9119.87 59.34
-4 0 0 8111.99 66.78
-4 0 -1 -0.31 1.47
-4 0 -1 -0.39 2.32
-4 0 1 -0.77 1.42
-4 0 1 0.67 2.68
-4 0 -2 279.98 12.82
-4 0 2 322.59 11.2
-4 0 2 295.69 13.54
-4 0 -3 1.72 2.52
-4 0 -3 1.18 2.39
-4 0 3 0.44 2.01
-4 0 3 1.72 2.63
-4 0 -4 1605.05 31.9
-4 0 -4 1643.95 31.02
-4 0 4 1691.4 32.93
-4 0 -5 6.49 3.76
-4 0 -5 1.34 2.39
-4 0 5 0.03 2.57
4 0 5 4.07 3.04
-4 0 -6 2436.55 43.41
-4 0 -6 2499.36 40.09
-4 0 6 2766.11 39.8
-4 0 6 2440.59 42.04
4 0 6 2339.2 41.01
-4 0 -7 1.39 3.66
-4 0 7 0.21 2.47
-4 0 7 -0.33 2.96
4 0 7 0.8 3.17
-4 0 -8 153.26 13.03
-4 0 8 151 11.33
-4 0 8 161.53 12.36
4 0 8 137.71 12.05
-4 0 -9 -4.15 2.57
-4 0 9 -1.75 3.01
-4 0 9 0.1 3.81
4 0 9 -1.57 3.14
-4 0 -10 3275.28 62.15
-4 0 10 3436.93 57.8
-4 0 10 3115.84 54.3
4 0 10 3194.49 59.65
4 0 10 3045.27 56.2
-4 0 -11 1.57 4.79
-4 0 11 1.36 4.2
-4 0 11 1.83 4.25
4 0 11 -2.19 3.89
4 0 11 -2.37 3.66
-4 0 -12 32.72 9.29
-4 0 12 38.49 9.29
4 0 12 30.69 9.14
4 0 12 31.72 9.01
-4 0 -13 -2.52 5.07
-4 0 13 1.18 4.48
4 0 13 2.45 4.87
-4 -1 0 4.3 1.47
-4 -1 0 3.32 2.75
-4 1 0 4.79 2.7
-4 1 0 3.53 3.01
-4 -1 -1 182.46 10.25
-4 -1 1 220.74 7.11
-4 -1 1 219.35 11.71
-4 1 -1 227.82 9.96
-4 1 -1 204.14 11.25
-4 1 1 215.64 10.01
-4 1 1 191.78 10.86
-4 -1 -2 46.5 6.64
-4 -1 2 50.67 4.33
-4 -1 2 42.38 6.46
-4 1 -2 45.83 5.07
-4 1 -2 51.8 5.84
-4 1 -2 40.6 6.57
-4 1 2 46.24 5.61
-4 1 2 44.49 6.9
-4 -1 -3 4686.85 54.45
-4 -1 -3 4666.82 49.69
-4 -1 3 4386.89 52.78
-4 1 -3 4484.49 48.71
-4 1 -3 4608.63 53.4
-4 1 3 4966.6 50.87
-4 1 3 3986.39 48.63
-4 -1 -4 49.28 7.72
-4 -1 -4 50.87 7.05
-4 -1 4 49.07 7.47
-4 1 -4 54.01 6.51
-4 1 -4 58.24 7.08
-4 1 4 55.04 6.54
-4 1 4 43.02 6.72
4 1 4 47.78 5.69
-4 -1 -5 602.93 21.39
-4 -1 -5 638.9 18.95
-4 -1 5 648.58 22.04
-4 1 -5 621.37 20.44
-4 1 -5 597.06 20.49
-4 1 5 587.72 19.72
4 1 5 557.05 18.18
-4 -1 -6 2.86 3.3
-4 -1 -6 3.24 2.78
-4 -1 6 0.1 2.16
-4 -1 6 3.58 3.48
-4 1 -6 3.4 3.06
-4 1 6 1.13 2.78
4 -1 6 -0.95 3.24
4 1 6 3.81 3.19
-4 -1 -7 3802.03 58.52
-4 -1 7 4075.96 48.63
-4 -1 7 3698.87 55.92
-4 1 -7 3666.53 55.07
-4 1 7 3523.23 50.28
4 -1 7 3620.09 56.18
4 1 7 3489.84 50.87
4 1 7 3216.12 45.6
-4 -1 -8 13.31 5.64
-4 -1 8 36.28 6.85
-4 -1 8 19.18 6.26
-4 1 -8 10.97 5.23
-4 1 8 20.73 6.13
-4 1 8 11.28 4.84
4 -1 8 17.64 6.31
4 1 8 14.67 5.28
4 1 8 11.66 4.76
-4 -1 -9 85.68 12.13
-4 -1 9 99.27 9.94
-4 -1 9 86.92 10.58
-4 1 -9 78.01 11.77
-4 1 9 107.18 11.07
-4 1 9 106.59 10.27
4 -1 9 73.01 11.33
4 1 9 117.63 11.48
4 1 9 74.74 10.53
-4 -1 -10 34.29 8.62
-4 -1 10 33.78 7.75
-4 -1 10 28.94 7.88
-4 1 -10 27.37 7.88
-4 1 10 27.32 7.26
4 -1 10 32.85 8.7
4 1 10 28.45 7.54
4 1 10 22.84 6.75
-4 -1 -11 18.2 7.49
-4 -1 11 37.15 8.47
-4 -1 11 32.23 8.42
-4 1 -11 21.47 7.65
-4 1 11 37.79 9.09
4 -1 11 37.79 9.53
4 1 11 32.75 8.34
4 1 11 52.8 10.35
-4 -1 -12 -0.08 4.74
-4 -1 12 -1.08 3.78
-4 -1 12 0.59 4.76
-4 1 -12 -1.52 4.61
-4 1 12 1.96 4.87
4 -1 12 -3.17 4.3
4 -1 12 1.16 4.94
4 1 12 0 4.25
-4 -2 0 5862.41 57.82
-4 2 0 6182.81 57.64
-4 2 0 5359.09 57.39
-4 -2 -1 50.98 7.21
-4 -2 1 46.88 7.39
-4 2 -1 41.37 6.15
-4 2 -1 38.21 5.3
-4 2 -1 40.16 7
-4 2 -1 45.7 6.38
-4 2 1 41.94 6.31
-4 2 1 35.04 6.02
-4 -2 -2 228.34 11.33
-4 -2 2 236.34 12.87
-4 2 -2 221.33 11.51
-4 2 -2 204.26 9.76
-4 2 -2 211.22 12.36
-4 2 -2 223.78 11.04
-4 2 2 241.9 12.44
-4 2 2 216.24 11.87
4 2 -2 244.74 11.46
4 2 2 200.84 8.19
-4 -2 -3 10.97 3.71
-4 -2 3 12.92 4.3
-4 2 -3 8.55 3.12
-4 2 -3 10.63 4.35
-4 2 -3 11.69 3.84
-4 2 3 10.43 3.86
-4 2 3 8.73 3.84
4 2 -3 20.03 4.69
4 2 3 11.64 3.14
-4 -2 -4 1945.43 38.1
-4 -2 -4 1940.23 31.25
-4 -2 4 1968.49 38.28
-4 2 -4 1808.1 31.49
-4 2 -4 1854.83 36.87
-4 2 -4 1911.52 33.19
-4 2 4 2051.57 37.56
-4 2 4 1632.46 31.74
4 2 -4 2100.72 34.78
4 2 4 1724.12 27.37
-4 -2 -5 20.11 5.66
-4 -2 -5 19.72 4.53
-4 -2 5 21.42 6.2
-4 2 -5 16.09 4.58
-4 2 -5 19.54 4.99
-4 2 5 23.12 5.74
-4 2 5 17.3 4.89
4 2 -5 20.54 5.15
4 2 5 22.55 4.76
-4 -2 -6 1479.1 35.94
-4 -2 6 1512.08 36.22
-4 2 -6 1403.54 31.62
-4 2 -6 1460.02 31.67
-4 2 6 1569.39 36.17
-4 2 6 1275.86 28.94
4 -2 6 1446.25 35.66
4 2 -6 1588.77 33.01
4 2 6 1308.18 27.99
-4 -2 -7 26.85 6.85
-4 -2 7 27.99 7.44
-4 2 -7 25.57 6.15
-4 2 7 25.44 6.67
-4 2 7 23.92 5.84
4 -2 7 38.05 8.34
4 2 7 31.98 6.36
-4 -2 -8 213.48 15.91
-4 -2 8 242.06 16.4
-4 2 -8 196.08 14.03
4 -2 8 212.66 15.83
4 2 8 208.38 13.49
4 2 8 185.06 18.51
-4 -2 -9 0.03 4.33
-4 -2 9 8.03 5.41
-4 2 -9 2.99 4.38
4 -2 9 5.38 5.05
4 2 9 4.02 4.02
4 2 9 2.83 3.5
-4 -2 -10 3532.14 66.42
-4 -2 10 3508.35 63.9
-4 2 -10 3430.09 62.28
4 -2 10 3532.37 66.35
4 2 10 3035.36 53.32
-4 -2 -11 2.93 5.46
-4 -2 11 0.59 4.84
-4 2 -11 6.31 5.54
4 -2 11 0.31 5.12
4 2 11 4.79 4.61
-4 -2 -12 112.43 16.5
-4 -2 12 115.49 13.77
-4 2 -12 98.79 14.67
4 -2 12 103.6 15.63
4 2 12 106.79 12.59
-4 -3 0 12.85 4.48
-4 3 0 12.85 4.84
-4 3 0 10.63 4.35
-4 -3 -1 79.42 7.47
-4 -3 1 86.58 8.39
-4 3 -1 98.99 9.09
-4 3 -1 78.45 8.34
-4 3 1 89.65 8.78
-4 3 1 91.27 8.52
4 3 -1 97.68 7.75
-4 -3 -2 6.72 3.45
-4 -3 2 2.52 3.09
-4 3 -2 0.95 2.91
-4 3 -2 5.54 3.91
-4 3 -2 2.01 2.65
-4 3 2 4.99 3.48
-4 3 2 7.16 3.71
4 3 -2 10.04 3.58
-4 -3 -3 5302.19 51.9
-4 -3 3 5153.84 62.48
-4 3 -3 4877.96 61.71
-4 3 -3 5120.81 54.04
-4 3 3 5207.45 62.66
-4 3 3 4042.65 50.51
4 3 -3 5287.31 54.94
-4 -3 -4 -0.31 3.5
-4 -3 4 3.09 3.86
-4 3 -4 2.99 2.75
-4 3 -4 2.96 2.91
-4 3 4 2.75 3.45
-4 3 4 2.78 3.17
4 3 -4 1.29 2.63
-4 -3 -5 490.3 21.01
-4 -3 5 506.15 21.5
-4 3 -5 446.71 16.35
-4 3 -5 475.62 18.25
-4 3 5 497.56 21.19
-4 3 5 395.6 16.12
4 3 -5 511.9 18.9
-4 -3 -6 7.57 4.35
-4 -3 6 9.73 5.36
-4 3 -6 8.5 3.91
-4 3 -6 8.42 4.22
-4 3 6 7.18 4.51
-4 3 6 6.31 4.12
4 -3 6 1.72 3.76
4 3 -6 12.67 4.53
-4 -3 -7 2692.56 52.03
-4 -3 7 2838.59 54.35
-4 3 -7 2538.03 44.26
-4 3 -7 2823.22 47.76
-4 3 7 2701.9 52.47
4 -3 7 2697.6 53.01
4 3 -7 2914.35 48.5
-4 -3 -8 2.55 4.51
-4 -3 8 2.06 4.79
-4 3 -8 1 3.68
-4 3 -8 8.19 4.76
-4 3 8 1.72 3.86
4 -3 8 -0.82 4.35
4 3 -8 2.57 3.71
-4 -3 -9 243.35 17.94
-4 -3 9 236.6 17.56
-4 3 -9 210.65 15.4
-4 3 9 244.92 18.02
4 -3 9 242.5 18.1
-4 -3 -10 4.51 5.02
-4 -3 10 5.84 5.61
-4 3 -10 -0.36 3.66
-4 3 10 -0.54 4.04
4 -3 10 4.07 4.99
-4 -3 -11 63.26 12.31
-4 -3 11 66.78 12.62
-4 3 -11 75.49 12.41
-4 3 11 76.44 13.28
4 -3 11 67.61 12.56
-4 -3 -12 5.54 6
-4 -3 12 6.36 6.08
-4 3 -12 3.68 5.07
-4 3 12 7.93 6.23
4 -3 12 4.89 5.79
-4 -4 0 4803.73 56.64
-4 4 0 4746.99 62.77
-4 4 0 3885.6 54.25
4 4 0 4731.31 50.33
-4 -4 -1 44.9 7.18
-4 -4 1 37.41 7.05
-4 4 -1 38.85 7.67
-4 4 -1 48.12 8.6
-4 4 1 48.86 8.65
-4 4 1 33.78 6.75
4 4 -1 42.87 6.26
-4 -4 -2 162.07 10.14
-4 -4 2 170.38 12.28
-4 4 -2 155.97 12.31
-4 4 -2 161.89 10.27
-4 4 2 165.67 12.77
-4 4 2 134.93 10.35
4 4 -2 152.88 10.01
-4 -4 -3 0.77 3.53
-4 -4 3 4.35 4.04
-4 4 -3 1.8 2.75
-4 4 3 -1.8 3.04
-4 4 3 2.24 3.14
4 4 -3 5.12 3.27
-4 -4 -4 1460.15 36.07
-4 -4 4 1641.76 38.98
-4 4 -4 1428.15 31.02
-4 4 4 1512.52 37.87
-4 4 4 1235.44 28.53
4 4 -4 1589.29 32.72
-4 -4 -5 22.24 6.46
-4 -4 5 29.32 7.93
-4 4 -5 20.39 5.41
-4 4 5 20.16 6.59
4 4 -5 20.49 5.36
-4 -4 -6 1167.27 34.22
-4 -4 6 1346.72 38.26
-4 4 -6 1219.87 31.41
-4 4 6 1214.8 36.28
4 4 -6 1331.47 32.77
-4 -4 -7 37.54 8.91
-4 -4 7 44.9 10.14
-4 4 -7 32.59 7.21
-4 4 7 30.84 7.93
4 -4 7 36.12 8.91
4 4 -7 49.56 8.7
-4 -4 -8 160.01 14.67
-4 -4 8 163.15 15.55
-4 4 -8 164.62 13.49
-4 4 8 152.72 14.83
4 -4 8 166.68 15.58
4 4 -8 167.47 13.52
-4 -4 -9 4.92 5.07
-4 -4 9 1.88 5.02
-4 4 -9 2.06 4.09
-4 4 9 0.64 4.43
4 -4 9 3.3 5.1
4 4 -9 0.59 3.66
-4 -4 -10 3133.09 64.34
-4 -4 10 3036.49 65.63
-4 4 10 2932.2 64.26
4 -4 10 3136.36 66.32
-4 -4 -11 4.58 5.97
-4 -4 11 6.15 6.15
-4 4 11 1.42 5.02
4 -4 11 4.92 5.66
-4 -5 0 13.49 4.87
-4 5 0 6.31 4.81
4 5 0 7.52 3.71
-4 -5 -1 139.95 10.48
-4 -5 1 107.72 10.27
-4 5 -1 117.89 11.97
-4 5 1 113.92 11.97
4 5 -1 132.2 9.58
-4 -5 2 18.56 6
-4 5 -2 18.43 6.31
-4 5 -2 16.07 4.58
-4 5 2 16.55 5.97
4 5 -2 17.2 4.69
-4 -5 -3 2790.62 50.72
-4 -5 3 3117.64 54.4
-4 5 -3 2728.55 42.92
-4 5 3 2831.38 54.79
4 5 -3 3047.64 45.39
-4 -5 -4 12.98 5.82
-4 -5 4 21.91 6.8
-4 5 -4 14.52 4.87
-4 5 4 18.3 6.64
4 5 -4 17.25 5.23
-4 -5 -5 402.74 20.65
-4 -5 5 419.8 22.01
-4 5 -5 392.36 18.15
-4 5 5 392.75 21.88
4 5 -5 435.64 19.05
-4 -5 -6 8.21 5.1
-4 -5 6 11.71 6.2
-4 5 -6 3.91 3.86
-4 5 6 9.81 5.33
4 -5 6 10.94 6
4 5 -6 6.38 3.91
-4 -5 -7 2496.25 52.96
-4 -5 7 2634.84 58.26
-4 5 -7 2614.45 49.84
-4 5 7 2403.62 55.61
4 -5 7 2580.93 56.49
4 5 -7 2722.68 50.85
-4 -5 -8 7.41 5.61
-4 -5 8 9.17 6.36
-4 5 -8 4.27 4.51
-4 5 8 4.74 5.43
4 -5 8 6.85 5.74
4 5 -8 5.15 4.63
-4 -5 -9 80.63 13.08
-4 -5 9 59.57 12.23
-4 5 -9 63.75 10.61
-4 5 9 69.07 12.59
4 -5 9 65.75 12.54
4 5 -9 78.37 11.84
-4 -5 -10 12.56 6.64
-4 -5 10 13.26 7.49
-4 5 -10 12.9 6.41
-4 5 10 8.47 6.31
4 -5 10 14.26 7.29
4 5 -10 20.13 6.98
-4 6 0 3927.33 68.17
4 6 0 4314.21 52.39
-4 -6 1 3.24 4.4
-4 6 -1 5.72 5.12
-4 6 -1 4.66 3.58
-4 6 1 0.64 4.63
4 6 -1 5.1 3.42
-4 -6 -2 121.96 12.23
-4 -6 2 145.9 12.85
-4 6 -2 148.53 10.94
-4 6 2 126.49 13.7
4 6 -2 155.73 11.12
-4 -6 -3 5.38 5.3
-4 -6 3 10.94 5.72
-4 6 -3 14.21 4.89
-4 6 3 5.48 5.2
4 6 -3 11.2 4.38
-4 -6 -4 846.48 29.74
-4 -6 4 889.12 32.31
-4 6 -4 850.86 26.36
-4 6 4 786.26 31.87
4 6 -4 925.68 27.47
-4 -6 -5 4.3 4.76
-4 -6 5 9.37 5.61
-4 6 -5 4.27 3.86
-4 6 5 13.36 6.41
4 6 -5 6.44 4.3
-4 -6 -6 1324.81 38.46
-4 -6 6 1382.79 42.97
-4 6 -6 1324.37 35.53
-4 6 6 1259.72 41.78
4 -6 6 1341.52 41.42
4 6 -6 1427.45 36.87
-4 -6 -7 2.6 4.94
-4 -6 7 -0.05 4.51
-4 6 -7 2.16 3.68
-4 6 7 4.53 4.97
4 -6 7 3.96 5.17
4 6 -7 -0.8 3.35
-4 -6 -8 98.3 13.8
-4 -6 8 105.12 15.91
-4 6 -8 86.79 12.44
-4 6 8 95.95 15.06
4 -6 8 119.46 16.32
4 6 -8 106.46 12.25
-4 7 0 3.35 5.41
-4 7 -1 77.11 13.13
-4 7 -1 84.03 8.88
-4 7 1 79.89 13.13
4 7 -1 103.65 9.55
-4 -7 2 11.89 5.97
-4 7 -2 15.96 5.05
-4 7 2 11.2 6.64
4 7 -2 16.45 5.07
-4 -7 3 2293.68 51.49
-4 7 -3 2096.01 41.14
-4 7 3 2043.88 53.73
4 7 -3 2314 43.28
-4 -7 4 23.81 7.93
-4 7 -4 16.91 5.48
-4 7 4 16.86 7.54
4 7 -4 19.54 5.77
-4 -7 5 254.31 19.41
-4 7 -5 253.49 16.09
-4 7 5 249.04 20.11
4 -7 5 242.01 18.97
4 7 -5 271.05 16.61
-5 0 0 0.21 1.85
-5 0 0 1.29 2.81
-5 0 -1 2484.28 42.71
-5 0 1 2797.47 33.11
-5 0 1 2408.35 42.48
-5 0 -2 4.45 3.6
-5 0 2 0.05 2.11
-5 0 2 2.63 3.17
-5 0 -3 274.96 14.78
-5 0 -3 278.77 14.78
-5 0 3 299.24 12.67
-5 0 3 262.4 14.83
-5 0 -4 -2.14 2.01
-5 0 -4 -0.98 2.65
-5 0 4 -1.21 2.06
-5 0 4 0.98 3.14
-5 0 -5 5256.95 66.86
-5 0 -5 5498.21 65.6
-5 0 5 5826.96 61.81
-5 0 5 5051.53 66.01
5 0 5 5126.79 62.69
-5 0 -6 1.96 3.32
-5 0 -6 6.64 4.3
-5 0 6 -0.03 3.5
5 0 6 1.29 3.24
-5 0 -7 19.88 6.28
-5 0 7 41.5 8.6
5 0 7 14.73 5.69
-5 0 -8 4.2 4.48
-5 0 8 3.96 4.45
5 0 8 0.95 3.89
-5 0 -9 866.9 32.59
-5 0 9 855.19 30.48
5 0 9 887.93 31.74
-5 0 -10 -3.53 3.94
-5 0 10 2.65 4.58
5 0 10 -0.8 3.96
5 0 10 1.83 4.09
-5 0 -11 1186.37 41.35
-5 0 11 1156.38 36.82
5 0 11 1277.1 41.3
5 0 11 1205.35 38.23
-5 -1 0 524.79 19.88
-5 1 0 560.97 16.94
-5 1 0 470.75 19.18
-5 -1 -1 10.27 4.43
-5 -1 1 14.75 5.07
-5 1 -1 11.59 3.84
-5 1 -1 12.56 4.97
-5 1 1 12.85 3.91
-5 1 1 16.27 5.41
-5 -1 -2 3750.18 51.67
-5 -1 2 3746.06 54.19
-5 1 -2 3713.21 48.58
-5 1 -2 3674.07 53.47
-5 1 2 4205.98 48.61
-5 1 2 3465.92 51.67
-5 -1 -3 9.76 4.66
-5 -1 -3 12.25 4.61
-5 -1 3 12.44 5.02
-5 1 -3 14.65 4.71
-5 1 -3 10.38 4.45
-5 1 3 16.61 4.69
-5 1 3 10.01 4.63
-5 -1 -4 83.49 9.6
-5 -1 -4 66.19 7.88
-5 -1 4 75.59 6.82
-5 -1 4 72.11 10.61
-5 1 -4 72.37 8.21
-5 1 -4 70.13 8.39
-5 1 4 74.56 8.08
-5 1 4 59.42 9.01
5 1 4 56.82 6.98
-5 -1 -5 1.29 3.42
-5 -1 -5 2.75 3.27
-5 -1 5 5.41 4.15
-5 1 -5 4.97 3.84
-5 1 -5 2.99 3.63
-5 1 5 3.12 3.19
-5 1 5 2.75 3.81
5 1 5 0.7 2.99
-5 -1 -6 97.37 10.99
-5 -1 -6 95.75 9.37
-5 -1 6 92.61 10.71
-5 1 -6 84.78 9.71
-5 1 -6 119.3 11.28
-5 1 6 107.59 10.32
-5 1 6 80.53 9.45
5 -1 6 98.24 10.68
5 1 6 96 9.6
-5 -1 -7 16.89 6.57
-5 -1 -7 15.55 5.15
-5 -1 7 14.21 6.02
-5 1 -7 7.62 4.76
-5 1 7 15.09 5.56
-5 1 7 9.86 5.28
5 -1 7 11.22 5.64
5 1 7 17.2 5.64
-5 -1 -8 2843.76 57.34
-5 -1 8 2818.14 55.38
-5 1 -8 2752.36 54.04
-5 1 8 2897.72 54.37
-5 1 8 2524.7 48.94
5 -1 8 2743.95 54.86
5 1 8 2671.34 49.97
-5 -1 -9 0.03 4.58
-5 -1 9 4.76 5.1
-5 1 -9 3.01 4.69
-5 1 9 7.29 4.94
5 -1 9 3.84 4.92
5 1 9 4.74 4.53
-5 -1 -10 444.37 25.31
-5 -1 10 425.88 23.43
-5 1 -10 404.02 23.38
-5 1 10 372.77 22.5
5 -1 10 425.83 24.07
5 1 10 428.79 22.81
-5 -1 -11 1.78 5.23
-5 -1 11 3.91 5.17
-5 1 -11 0.93 4.97
5 -1 11 3.32 5.15
5 -1 11 2.55 4.99
5 1 11 6.23 5.07
-5 -2 0 13.41 4.89
-5 2 0 11.92 4.15
-5 2 0 6.41 3.91
-5 -2 -1 1385.03 31.85
-5 -2 1 1404.85 33.34
-5 2 -1 1423 30.07
-5 2 -1 1279.03 26.23
-5 2 -1 1247.75 32.16
-5 2 -1 1373.47 29.74
-5 2 1 1495.99 31.46
-5 2 1 1235.5 31.51
-5 -2 -2 7.62 3.89
-5 -2 2 6.57 4.17
-5 2 -2 3.73 3.66
-5 2 -2 5.77 3.3
-5 2 -2 10.2 4.99
-5 2 -2 7.39 3.68
-5 2 2 8.62 3.94
-5 2 2 7.13 4.09
-5 -2 -3 211.09 14.34
-5 -2 -3 235.26 13.21
-5 -2 3 218.78 14.52
-5 2 -3 209.03 11.89
-5 2 -3 221.64 14.39
-5 2 -3 204.73 12.51
-5 2 3 242.42 14.01
-5 2 3 206.99 13.28
-5 -2 -4 22.3 7
-5 -2 -4 14.88 4.94
-5 -2 4 18.54 6.38
-5 2 -4 19.13 5.15
-5 2 -4 18.82 6.54
-5 2 -4 16.35 4.87
-5 2 4 14.47 5.02
-5 2 4 12 5.17
5 2 -4 23.43 5.74
-5 -2 -5 4008.12 62.56
-5 -2 -5 4177.71 53.09
-5 -2 5 4006.89 62.48
-5 2 -5 3859.06 53.68
-5 2 -5 4152.45 62.74
-5 2 5 4308.11 60.76
-5 2 5 3359 52.57
-5 -2 -6 2.52 4.33
-5 -2 6 5.92 5.15
-5 2 -6 13.59 5.15
-5 2 6 7.49 4.61
-5 2 6 4.48 3.99
5 -2 6 11.33 5.38
-5 -2 -7 218.66 16.66
-5 -2 7 230.65 16.61
-5 2 -7 228.36 15.37
-5 2 7 220.84 15.73
-5 2 7 202.72 13.93
5 -2 7 223.83 16.3
-5 -2 -8 0.13 3.96
-5 -2 8 0.95 3.94
-5 2 -8 4.45 4.33
-5 2 8 1.21 3.94
-5 2 8 -0.51 3.42
5 -2 8 0.64 4.27
-5 -2 -9 891.05 34.52
-5 -2 9 884.28 33.62
-5 2 -9 835.59 30.95
-5 2 9 864.81 32.72
5 -2 9 867.85 33.65
-5 -2 -10 13.21 7.18
-5 -2 10 10.84 6.75
-5 2 -10 13.1 6.28
-5 2 10 11.95 6.02
5 -2 10 16.43 7.29
-5 -2 -11 890.92 37.05
-5 -2 11 856.32 34.83
-5 2 -11 823.16 33.55
-5 2 11 888.83 35.84
5 -2 11 904.2 36.82
-5 -3 0 597.45 21.99
-5 3 0 579.32 21.68
-5 3 0 531.15 21.68
-5 -3 -1 1.06 3.19
-5 -3 1 0.67 3.3
-5 3 -1 0.64 3.22
-5 3 -1 2.91 3.63
-5 3 -1 -0.72 2.88
-5 3 1 -0.05 3.17
-5 3 1 0.98 3.19
-5 -3 -2 4401.95 56.07
-5 -3 2 4074.29 59.7
-5 3 -2 4153.89 57.36
-5 3 -2 3961.6 60.32
-5 3 -2 4044.65 53.19
-5 3 2 4335.32 60.09
-5 3 2 3684.35 55.35
-5 -3 -3 0.95 4.04
-5 -3 -3 0.41 2.88
-5 -3 3 -0.46 3.42
-5 3 -3 9.11 5.05
-5 3 -3 -0.7 2.7
-5 3 3 0.82 3.32
-5 3 3 0.8 3.24
5 3 -3 1.21 2.73
-5 -3 -4 327.84 18.74
-5 -3 -4 322.77 14.98
-5 -3 4 328.82 18.54
-5 3 -4 316.05 18.46
-5 3 -4 318.88 16.22
-5 3 4 354.93 18.69
-5 3 4 289.64 16.09
5 3 -4 336.34 16.58
-5 -3 -5 4.35 4.61
-5 -3 5 0.72 3.96
-5 3 -5 1.34 3.42
-5 3 5 1.85 3.78
-5 3 5 4.58 4.02
5 3 -5 2.42 3.42
-5 -3 -6 50.38 9.89
-5 -3 6 55.61 10.63
-5 3 -6 57.21 9.24
-5 3 6 54.07 9.81
-5 3 6 64.65 9.71
5 3 -6 42.48 7.83
-5 -3 -7 2.03 4.76
-5 -3 7 -1.24 3.84
-5 3 -7 1.8 3.71
-5 3 7 -0.46 3.55
5 -3 7 -3.96 3.81
-5 -3 -8 2932.07 61.04
-5 -3 8 3101.93 63.02
-5 3 -8 2861.52 52.57
-5 3 8 3130.9 61.89
5 -3 8 3003.02 61.89
-5 -3 -9 0.21 5.07
-5 -3 9 -1.21 4.27
-5 3 -9 1.85 3.96
-5 3 9 -3.53 3.48
5 -3 9 -0.93 4.09
-5 -3 -10 125.64 15.16
-5 -3 10 124.56 14.78
-5 3 -10 139.98 14.16
-5 3 10 124.04 14.73
5 -3 10 124.4 14.91
-5 -4 0 25.31 6.69
-5 4 0 23.09 6.49
-5 4 0 25.8 7.21
-5 -4 -1 1291.29 32.03
-5 -4 1 1277.05 33.93
-5 4 -1 1198.47 33.98
-5 4 -1 1071.09 32.59
-5 4 -1 1179.17 29.56
-5 4 1 1226.74 34.65
-5 4 1 1056.82 31.25
-5 -4 -2 5.51 3.89
-5 -4 2 2.73 4.07
-5 4 -2 0.23 3.91
-5 4 -2 2.19 3.86
-5 4 -2 5.56 3.81
-5 4 2 3.48 4.43
-5 4 2 3.04 3.99
5 4 -2 2.39 3.42
-5 -4 -3 85.68 12.38
-5 -4 3 108.31 11.66
-5 4 -3 103.93 10.14
-5 4 3 133.59 12.74
-5 4 3 81.79 9.5
5 4 -3 116.99 10.45
-5 -4 -4 4.07 4.43
-5 -4 4 5.05 4.92
-5 4 -4 5.56 4.15
-5 4 4 1.67 4.2
-5 4 4 7.26 4.4
5 4 -4 5.1 3.81
-5 -4 -5 3425.63 62.1
-5 -4 5 3628.69 64.7
-5 4 -5 3479.67 55.53
-5 4 5 3570.68 63.46
-5 4 5 2543.47 68.3
5 4 -5 3638.52 56.79
-5 -4 -6 10.89 6.26
-5 -4 6 10.2 6.31
-5 4 -6 12.77 5.48
-5 4 6 6.72 5.25
5 4 -6 12.46 5.15
-5 -4 -7 161.78 15.4
-5 -4 7 175.97 16.35
-5 4 -7 172.57 14.31
-5 4 7 172.24 15.83
5 -4 7 143.84 15.06
5 4 -7 176.1 14.42
-5 -4 -8 0.8 4.76
-5 -4 8 2.42 5.41
-5 4 -8 -0.46 4.09
-5 4 8 -0.72 4.09
5 -4 8 3.53 5.3
5 4 -8 -2.83 3.66
-5 -4 -9 949.23 36.97
-5 -4 9 873.41 36.33
-5 4 9 906.21 36.4
5 -4 9 905.05 36.69
-5 -5 0 463.06 20.8
-5 5 0 468.8 23.58
-5 -5 -1 7.49 4.89
-5 -5 1 6.15 4.76
-5 5 -1 -1.31 3.94
-5 5 -1 4.02 4.07
-5 5 1 0.1 4.53
-5 -5 2 2531.57 51.1
-5 5 -2 2388.12 52.26
-5 5 -2 2469.09 44.9
-5 5 2 2447.49 53.37
-5 5 2 2046.19 44.2
5 5 -2 2536.75 45.54
-5 -5 -3 5.3 4.79
-5 -5 3 1.42 4.56
-5 5 -3 0.98 3.22
-5 5 3 11.04 5.92
-5 5 3 -0.49 3.58
5 5 -3 3.53 3.71
-5 -5 -4 37.18 9.17
-5 -5 4 29.86 8.39
-5 5 -4 35.86 7.39
-5 5 4 38.21 8.83
5 5 -4 44.9 8.21
-5 -5 -5 4.97 5.15
-5 -5 5 1.78 4.87
-5 5 -5 1.62 3.76
-5 5 5 -2.93 3.86
5 5 -5 2.68 3.55
-5 -5 -6 24.38 8.08
-5 -5 6 36.69 9.81
-5 5 -6 37.79 8.26
-5 5 6 29.38 8.37
5 5 -6 44.1 8.73
-5 -5 -7 12 6.54
-5 -5 7 9.81 6.67
-5 5 -7 4.07 4.53
-5 5 7 17.89 7.59
5 -5 7 8.62 6.38
5 5 -7 11.15 5.51
-5 -5 -8 2014.91 52.6
-5 -5 8 1978.07 54.68
-5 5 -8 2126.06 49.82
-5 5 8 2066.69 55.38
5 -5 8 1962.24 53.83
5 5 -8 2110.58 49.64
-5 6 0 2.32 4.66
-5 6 0 3.32 3.6
-5 -6 1 1326.09 37.07
-5 6 -1 1248.78 40.91
-5 6 -1 1271.36 33.08
-5 6 1 1290.87 41.58
-5 -6 -2 0.54 4.89
-5 -6 2 2.01 4.89
-5 6 -2 1.52 3.5
-5 6 2 -0.26 4.79
5 6 -2 0.05 3.35
-5 -6 -3 134.52 14.19
-5 -6 3 157.1 15.09
-5 6 -3 158.95 13.03
-5 6 3 155.79 15.94
5 6 -3 169.79 13.41
-5 -6 -4 -1.06 3.86
-5 -6 4 1.39 4.94
-5 6 -4 -0.21 3.4
-5 6 4 1.18 4.43
5 6 -4 -0.8 3.19
-5 -6 -5 3099.51 62.38
-5 -6 5 3250.41 66.42
-5 6 -5 3076.42 56.2
-5 6 5 3139.55 67.35
5 6 -5 3322.21 58.42
-5 -6 -6 0.15 4.92
-5 -6 6 0 5.12
-5 6 -6 -1.11 3.55
-5 6 6 0.05 4.74
5 -6 6 -1.6 4.4
5 6 -6 0.98 3.78
-5 7 0 152.21 16.79
-5 7 0 159.78 12.92
-5 -7 -1 0.51 5.05
-5 7 -1 -1.03 3.22
-5 7 1 1.34 5.41
-5 -7 -2 1891.57 48.25
-5 7 -2 1906.73 42.38
-5 7 2 1932.4 54.25
-6 0 0 4003.85 61.69
-6 0 -1 0.77 3.68
-6 0 1 -0.1 3.24
-6 0 -2 117.48 11.22
-6 0 -2 111.84 11.33
-6 0 2 116.99 11.87
-6 0 -3 0.59 3.63
-6 0 -3 2.88 3.99
-6 0 3 8.26 5.3
-6 0 -4 1428.59 37.41
-6 0 -4 1544.29 38.8
-6 0 4 1429.02 38.75
-6 0 -5 1.6 3.78
-6 0 -5 3.53 4.25
-6 0 5 2.7 4.38
6 0 5 -1.78 3.5
-6 0 -6 1183.72 36.35
-6 0 -6 1201.56 35.07
-6 0 6 1338.74 51.8
-6 0 6 1091.63 35.27
6 0 6 1155.17 33.83
-6 0 -7 2.39 4.4
-6 0 -7 1.44 4.17
-6 0 7 -0.41 3.32
-6 0 7 -1.06 3.99
6 0 7 0.39 4.25
-6 0 -8 161.96 15.47
-6 0 8 174.22 14.21
-6 0 8 134.19 13.95
6 0 8 169.38 15.04
-6 0 -9 -0.98 4.56
-6 0 9 0.51 3.96
-6 0 9 0.05 4.25
6 0 9 -5.51 3.17
-6 0 -10 3093.36 67.04
-6 0 10 3153.73 61.87
-6 0 10 2831.12 60.45
6 0 10 3059.15 63.28
-6 -1 0 5.87 4.48
-6 1 0 6.28 4.48
-6 -1 -1 60.89 9.76
-6 -1 1 73.84 11.2
-6 1 -1 70.13 8.42
-6 1 -1 59.34 9.81
-6 1 1 66.68 8.08
-6 1 1 64.26 10.43
-6 -1 -2 33.16 7.59
-6 -1 2 32.18 7.96
-6 1 -2 31.23 6.95
-6 1 -2 37.1 8.55
-6 1 2 38.8 6.72
-6 1 2 28.78 7.65
-6 -1 -3 3335.55 57.67
-6 -1 -3 3379.37 55.66
-6 -1 3 3228.06 57.72
-6 1 -3 3240.88 52.37
-6 1 -3 3348.47 58.08
-6 1 3 3672.58 50.77
-6 1 3 3003.23 54.94
-6 -1 -4 35.97 8.21
-6 -1 -4 52.21 9.55
-6 -1 4 40.63 9.24
-6 1 -4 34.45 7.47
-6 1 -4 42.33 9.14
-6 1 4 44.05 7.65
-6 1 4 41.19 9.22
6 1 4 42.74 7.57
-6 -1 -5 412.06 21.86
-6 -1 -5 455.02 20.93
-6 -1 5 413.19 22.17
-6 1 -5 425.62 20.73
-6 1 -5 415.71 21.57
-6 1 5 446.89 19.75
-6 1 5 382.76 20.73
6 1 5 416.59 18.85
-6 -1 -6 -0.05 4.22
-6 -1 -6 0.26 3.84
-6 -1 6 2.93 5.1
-6 1 -6 2.73 4.04
-6 1 -6 4.38 4.76
-6 1 6 0.88 3.53
-6 1 6 2.14 4.38
6 -1 6 1.93 4.33
6 1 6 1.78 3.84
-6 -1 -7 2305.04 53.65
-6 -1 -7 2492.36 48.43
-6 -1 7 2310.37 53.32
-6 1 -7 2334.88 51.16
-6 1 7 2520.06 50.51
-6 1 7 2140.09 48.94
6 -1 7 2309.62 51.65
6 1 7 2196.7 45.78
-6 -1 -8 7.72 5.92
-6 -1 8 11.1 6.54
-6 1 -8 12.87 6.36
-6 1 8 19.41 6.54
-6 1 8 15.22 6.75
6 -1 8 16.58 6.87
6 1 8 15.55 6.36
-6 -1 -9 94.1 14.57
-6 -1 9 118.02 13.93
-6 1 -9 104.91 13.1
-6 1 9 106.15 12.62
-6 1 9 103.57 12.41
6 -1 9 105.81 13.18
6 1 9 114.05 12.77
-6 -1 -10 31.13 9.35
-6 -1 10 38.26 9.89
-6 1 -10 33.31 9.45
-6 1 10 32.85 8.96
-6 1 10 29.45 8.39
6 -1 10 31.82 9.04
6 1 10 38.72 11.97
-6 -2 0 4241.22 63.69
-6 2 0 4406.74 56.9
-6 2 0 3921.46 63.18
-6 2 0 4555.75 87.46
-6 -2 -1 31.72 7.39
-6 -2 1 33.67 8.01
-6 2 -1 30.89 6.51
-6 2 -1 33.16 8.08
-6 2 1 34.5 6.9
-6 2 1 21.52 6.59
-6 2 1 27.88 7.13
-6 -2 -2 200.56 14.24
-6 -2 2 192.32 14.96
-6 2 -2 178.47 12.05
-6 2 -2 187.86 15.01
-6 2 2 214.82 13.77
-6 2 2 169.71 14.01
-6 -2 -3 0.59 4.2
-6 -2 -3 3.19 3.89
-6 -2 3 2.06 4.12
-6 2 -3 3.99 3.89
-6 2 -3 5.92 4.84
-6 2 3 1.49 3.55
-6 2 3 4.99 4.58
-6 -2 -4 962.13 33.21
-6 -2 -4 1060.5 30.82
-6 -2 4 953.43 32.95
-6 2 -4 963.21 28.45
-6 2 -4 959.84 32.98
-6 2 4 1105.97 31.77
-6 2 4 842.44 29.74
-6 -2 -5 14.31 5.95
-6 -2 -5 14.96 5.54
-6 -2 5 15.83 6.95
-6 2 -5 16.84 5.77
-6 2 -5 13.41 6.69
-6 2 5 17.48 5.92
-6 2 5 12.44 6.13
-6 -2 -6 1169.05 38.36
-6 -2 6 1209.16 39.03
-6 2 -6 1157.82 33.75
-6 2 6 1274.27 36.66
-6 2 6 1005.36 32.88
6 -2 6 1205.17 38.1
-6 -2 -7 39.75 9.68
-6 -2 7 35.68 9.58
-6 2 -7 34.11 8.42
-6 2 7 36.4 8.5
-6 2 7 38.88 8.88
6 -2 7 35.84 8.96
-6 -2 -8 131.25 14.98
-6 -2 8 162.56 16.22
-6 2 -8 149.89 14.44
-6 2 8 165.03 15.32
-6 2 8 135.88 13.41
6 -2 8 152.13 15.5
-6 -2 -9 1.75 5.48
-6 -2 9 5.02 5.77
-6 2 -9 -0.7 4.22
-6 2 9 -0.93 4.33
6 -2 9 2.09 5.07
-6 -3 0 9.73 5.17
-6 3 0 2.93 4.02
-6 3 0 3.53 4.43
-6 3 0 5.07 4.43
-6 -3 -1 132.85 12.18
-6 -3 1 127.57 12.59
-6 3 -1 136.81 12.1
-6 3 -1 130.63 13.1
-6 3 -1 136.73 11.95
-6 3 1 138.92 12.18
-6 3 1 135.88 13.05
-6 -3 -2 0.51 3.48
-6 -3 2 2.7 4.69
-6 3 -2 -0.98 3.66
-6 3 -2 -0.13 3.48
-6 3 2 -2.45 2.93
-6 3 2 -0.51 3.48
-6 -3 -3 2729.58 56.46
-6 -3 -3 2805.84 49.79
-6 -3 3 2728.6 55.58
-6 3 -3 2658.99 55.71
-6 3 -3 2753.39 50.05
-6 3 3 2858.31 53.27
-6 3 3 2366.59 49.74
-6 -3 -4 -0.82 3.94
-6 -3 -4 5.74 4.2
-6 -3 4 1.13 4.66
-6 3 -4 1.34 4.27
-6 3 -4 1.83 3.89
-6 3 4 1.18 3.71
-6 3 4 3.22 4.58
-6 -3 -5 329.88 21.09
-6 -3 5 325.14 21.01
-6 3 5 345.09 20.21
-6 3 5 291.44 18.07
-6 -3 -6 -0.28 4.07
-6 -3 6 6.44 5.38
-6 3 6 3.6 4.22
-6 3 6 3.91 4.45
-6 -3 -7 2550.29 59.39
-6 -3 7 2439.48 58.24
-6 3 7 2638.67 57.39
-6 3 7 2038.19 68.59
6 -3 7 2555.57 59.01
-6 -3 -8 -1.91 4.35
-6 -3 8 0.23 4.92
-6 3 8 -1.8 4.02
6 -3 8 2.11 5.36
-6 -3 -9 98.17 15.58
-6 -3 9 89.54 14.78
-6 3 9 87.89 13.88
6 -3 9 80.84 14.08
-6 -4 0 3684.06 61.43
-6 4 0 3568.42 61.84
-6 4 0 3082.78 59.55
-6 4 0 3611.36 57.49
-6 -4 -1 29.79 7.83
-6 -4 1 22.45 7.23
-6 4 -1 21.83 6.9
-6 4 -1 28.32 7.85
-6 4 -1 20.11 6.54
-6 4 1 29.61 8.08
-6 4 1 32.28 8.57
-6 -4 -2 127.7 12
-6 -4 2 144.71 13.8
-6 4 -2 115.44 13.16
-6 4 -2 144.05 12.77
-6 4 2 138.2 13.49
-6 4 2 98.32 11.69
-6 -4 -3 1.93 5.07
-6 -4 3 3.37 5.05
-6 4 -3 0.8 4.12
-6 4 3 3.09 4.53
-6 4 3 1.96 4.27
-6 -4 -4 873.18 33.98
-6 -4 4 945.71 35.01
-6 4 -4 951.09 31.33
-6 4 4 916.36 33.57
-6 4 4 751.28 28.65
-6 -4 -5 13.21 6.85
-6 -4 5 20.91 7.78
-6 4 -5 12.38 6.18
-6 4 5 15.58 6.72
-6 4 5 21.29 7.23
6 4 -5 16.35 6.13
-6 -4 -6 971.48 37.07
-6 -4 6 1002.19 37.95
-6 4 -6 1049.72 34.73
-6 4 6 1129.76 38.77
6 4 -6 1108.65 36.04
-6 -4 -7 20.49 8.01
-6 -4 7 23.58 8.44
-6 4 7 25.95 8.42
6 -4 7 21.55 8.26
-6 -4 -8 116.96 16.97
-6 -4 8 102.13 15.7
-6 4 8 110.78 15.78
6 -4 8 114.95 16.86
-6 -5 0 8.21 5.48
-6 5 0 3.71 5.25
-6 5 0 4.61 4.84
-6 -5 1 32.18 8.68
-6 5 -1 32.46 8.73
-6 5 -1 53.86 9.37
-6 5 1 26.96 8.03
-6 5 1 26.93 8.01
-6 -5 -2 9.58 6.38
-6 -5 2 6.23 5.48
-6 5 -2 3.32 4.17
-6 5 2 6.67 5.33
-6 5 2 6.57 5.07
-6 -5 -3 2315.28 55.71
-6 -5 3 2458.61 55.97
-6 5 -3 2378.36 49.82
-6 5 3 2375.43 56.02
-6 5 3 1985.69 47.11
-6 -5 -4 12.36 7.16
-6 -5 4 16.61 7.47
-6 5 -4 11.66 5.9
-6 5 4 17.02 7.05
-6 -5 -5 305.88 21.6
-6 -5 5 333.74 22.63
-6 5 -5 329.44 20.06
-6 5 5 357.01 23.25
6 5 -5 364.61 21.03
-6 -5 -6 1.13 5.48
-6 -5 6 5.59 5.97
-6 5 -6 1.18 4.3
-6 5 6 8.65 6.26
6 -5 6 4.84 6.02
6 5 -6 2.14 4.45
-6 6 0 2518.85 60.01
-6 6 0 2555.36 51.47
-6 -6 1 1.67 4.58
-6 6 -1 -4.63 2.99
-6 6 1 -3.78 4.43
-6 6 1 -1.8 3.48
-6 -6 -2 68.28 12.82
-6 -6 2 72.71 12.56
-6 6 -2 59.99 10.3
-6 6 2 75.46 13.54
-6 -6 -3 10.07 6.98
-6 -6 3 11.17 6.87
-6 6 -3 11.25 5.59
-6 6 3 3.53 5.87
-7 0 0 1.11 4.3
-7 0 -1 781.22 29.09
-7 0 -1 772.65 30.66
-7 0 1 712.3 29.71
-7 0 -2 2.93 4.63
-7 0 -2 4.02 4.97
-7 0 2 3.06 4.66
-7 0 -3 87.28 12.56
-7 0 -3 99.27 12.13
-7 0 3 115.37 13.31
-7 0 -4 -1.72 3.66
-7 0 -4 2.52 4.66
-7 0 4 0.67 4.35
7 0 4 -2.52 3.19
-7 0 -5 2777.8 58.13
-7 0 -5 2743.51 57.39
-7 0 5 2656.8 58.98
7 0 5 2722.22 53.55
-7 0 -6 0.9 4.25
-7 0 -6 -0.31 4.02
-7 0 6 9.47 6.33
7 0 6 -2.21 3.76
-7 0 -7 226.02 18.38
-7 0 -7 234.54 17.84
-7 0 7 230.81 18.74
7 0 7 240.69 17.79
-7 0 -8 0.93 4.66
-7 0 8 -1.31 4.43
7 0 8 4.48 5.43
-7 -1 0 434.43 23.3
-7 1 0 392.21 22.35
-7 -1 -1 8.5 5.46
-7 -1 1 8.39 5.69
-7 1 -1 6.28 4.94
-7 1 -1 9.78 5.72
-7 1 1 10.2 6.15
-7 -1 -2 2763.2 56.92
-7 -1 -2 2772.86 56.51
-7 -1 2 2672.12 57.41
-7 1 -2 2698.45 51.67
-7 1 -2 2729.91 57.85
-7 1 2 2531.29 55.79
-7 -1 -3 -1.21 4.33
-7 -1 -3 -1.88 3.76
-7 -1 3 1.57 4.66
-7 1 -3 1.6 3.81
-7 1 -3 3.99 5.2
-7 1 3 4.84 5.25
-7 -1 -4 122.45 13.67
-7 -1 -4 141.08 13.95
-7 -1 4 126.36 14.19
-7 1 -4 138.28 13.16
-7 1 -4 128.11 13.93
-7 1 4 124.35 13.77
-7 -1 -5 2.27 4.99
-7 -1 -5 5.23 4.76
-7 -1 5 5.77 5.3
-7 1 -5 7.36 5.12
-7 1 -5 5.69 5.61
-7 1 5 6.13 5.25
7 -1 5 2.42 4.76
-7 -1 -6 22.5 8.03
-7 -1 -6 32.26 8.62
-7 -1 6 33.34 9.4
-7 1 -6 33.03 8.55
-7 1 -6 27.16 8.21
-7 1 6 22.55 8.08
7 -1 6 22.48 7.98
-7 -1 -7 19.77 7.72
-7 -1 -7 19.64 7.05
-7 -1 7 12.02 7.11
-7 1 -7 10.66 6.2
-7 1 7 9.63 6.46
7 -1 7 8.19 6.02
-7 -1 -8 2230.84 57.77
-7 -1 8 2014.29 54.68
-7 1 -8 2198.63 54.53
-7 1 8 2040.45 52.57
7 -1 8 2287.22 55.84
-7 -2 0 0.41 4.2
-7 2 0 4.22 5.41
-7 -2 -1 1225.84 37.87
-7 -2 1 1194.35 38.44
-7 2 -1 1147.7 38.31
-7 2 1 1142.92 38.05
-7 -2 -2 1.93 5.12
-7 -2 -2 5.64 5.15
-7 -2 2 3.6 5.17
-7 2 -2 5.43 4.97
-7 2 2 4.56 5.12
-7 -2 -3 147.73 15.04
-7 -2 -3 159.18 14.42
-7 -2 3 148.06 15.22
-7 2 -3 136.37 14.6
-7 2 3 143.3 14.6
-7 -2 -4 5.2 5.25
-7 -2 -4 3.81 5.05
-7 -2 4 8.96 5.97
-7 2 -4 9.24 6.05
-7 2 4 6.69 6.08
-7 -2 -5 3137.1 65.78
-7 -2 -5 3281.69 59.34
-7 -2 5 2962.96 64.36
-7 2 -5 3217.22 66.11
-7 2 5 2756.82 59.14
-7 -2 -6 6.51 5.61
-7 -2 6 -0.67 3.94
-7 2 6 1.36 4.71
7 -2 6 2.24 5.33
-7 -2 -7 64.36 12.82
-7 -2 7 55.33 11.64
-7 2 -7 53.4 11.3
-7 2 7 57.95 14.88
-7 2 7 45.75 10.32
7 -2 7 45.62 10.74
-7 -3 0 241.47 17.92
-7 3 0 298.16 28.09
-7 3 0 251.71 18.97
-7 -3 -1 3.99 4.84
-7 -3 1 0.77 4.12
-7 3 -1 1.83 4.69
-7 3 1 0.49 4.02
-7 3 1 3.91 4.97
-7 -3 -2 1986.54 52.06
-7 -3 -2 1993.16 47.47
-7 -3 2 2020.29 51.23
-7 3 -2 1931.91 51.31
-7 3 2 2075.96 46.81
-7 3 2 1804.78 48.17
-7 -3 -3 1.8 5.2
-7 -3 -3 -0.31 4.15
-7 -3 3 0.64 4.79
-7 3 -3 7.05 5.69
-7 3 3 0.64 3.81
-7 3 3 5.95 5.36
-7 -3 -4 14.21 7.18
-7 -3 4 20.42 7.78
-7 3 -4 12.77 7.11
-7 3 4 11.33 5.87
-7 3 4 27.6 8.44
-7 -3 -5 4.12 5.72
-7 -3 5 4.43 5.77
-7 3 5 5.17 5.02
-7 3 5 3.94 5.15
-7 -3 -6 68.74 13.26
-7 -3 6 65.44 13.05
-7 3 6 62.43 11.66
-7 3 6 59.6 11.64
7 -3 6 69.64 13.05
-7 -4 0 3.6 4.87
-7 4 0 2.86 4.3
-7 4 0 3.55 5.1
-7 4 0 -1.52 3.76
-7 -4 -1 982.39 34.11
-7 -4 1 974.46 35.61
-7 4 -1 930.13 36.38
-7 4 -1 999.05 33.86
-7 4 1 967.18 34.24
-7 4 1 882.73 34.76
-7 4 1 984.17 33.57
-7 -4 -2 0.85 5.61
-7 -4 -2 11.87 5.9
-7 -4 2 5.51 5.59
-7 4 -2 6.69 6.28
-7 4 -2 1 4.61
-7 4 2 6.82 5.17
-7 4 2 0.64 4.53
-7 4 2 5.54 5.43
-7 -4 -3 191.8 18.12
-7 -4 3 181.92 17.15
-7 4 3 190.03 16.5
-7 4 3 150.38 15.11
-7 -4 -4 23.25 9.14
-7 -4 4 9.55 6.46
-7 4 4 12.18 6.36
-7 4 4 15.96 7.11
-7 -4 -5 2607.37 63.23
-7 -4 5 2602.71 62.87
-7 4 5 2773.55 61.22
-7 4 5 2211.2 52.55
-7 -5 0 274.81 19.15
-7 5 0 280.86 20.88
-7 5 0 263.79 18.79
-8 0 0 2505.03 55.64
-8 0 0 2511.95 60.01
-8 0 -1 1 4.45
-8 0 -1 -1.8 4.4
-8 0 1 1.6 5.1
-8 0 -2 162.92 15.65
-8 0 -2 169.33 16.68
-8 0 2 157.28 16.53
-8 0 -3 1.36 4.51
-8 0 -3 5.77 5.69
-8 0 3 -0.08 5.2
-8 0 -4 580.53 28.37
-8 0 -4 579.32 29.07
-8 0 4 493.26 27.83
-8 -1 0 5.54 5.43
-8 1 0 4.99 5.54
-8 -1 -1 58.44 11.17
-8 -1 -1 67.63 12.74
-8 -1 1 81.1 14.08
-8 1 -1 77.67 12.25
-8 1 -1 69.92 12.95
-8 1 1 72.42 13.49
-8 -1 -2 8.34 5.97
-8 -1 -2 6.31 6.08
-8 -1 2 5.92 6.31
-8 1 -2 8.93 5.38
-8 1 -2 4.04 5.3
-8 1 2 6.15 6.13
-8 -1 -3 2179.71 55.33
-8 -1 -3 2222.27 55.1
-8 -1 3 2098.59 56.15
-8 1 -3 2149.82 50.72
-8 1 -3 2150.44 56.2
-8 1 3 1961.08 53.94
-8 -1 -4 14.47 7.26
-8 -1 -4 17.48 7.59
-8 -1 4 18.9 8.14
-8 1 -4 14.01 6.38
-8 1 -4 20.78 8.5
-8 1 4 10.3 6.8
-8 -2 0 2674.64 61.45
-8 2 0 2589.24 62.12
-8 -2 -1 7.83 5.87
-8 -2 -1 7.96 6.18
-8 -2 1 12 7.03
-8 2 -1 5.72 5.87
-8 2 1 7.57 5.92
-8 -2 -2 73.19 13.39
-8 -2 -2 79.17 13.72
-8 -2 2 75.07 13.41
-8 2 -2 75.28 13.31
-8 2 2 80.27 14.42
-8 -2 -3 5.23 6.18
-8 -2 -3 10.12 6.62
-8 -2 3 11.33 7.29
-8 2 -3 12.59 6.95
-8 2 3 3.89 6
