#------------------------------------------------------------------------------
#$Date: 2019-10-29 23:30:56 +0200 (Tue, 29 Oct 2019) $
#$Revision: 220443 $
#$URL: file:///home/coder/svn-repositories/cod/cif/4/00/30/4003022.cif $
#------------------------------------------------------------------------------
#
# This file is available in the Crystallography Open Database (COD),
# http://www.crystallography.net/
#
# All data on this site have been placed in the public domain by the
# contributors.
#
data_4003022
loop_
_publ_author_name
'Wu, Ziyan'
'Zhang, Qiqi'
'Li, Binghan'
'Shi, Zhifang'
'Xu, Kaimin'
'Chen, Yi'
'Ning, Zhijun'
'Mi, Qixi'
_publ_section_title
;
 Stabilizing the CsSnCl3 Perovskite Lattice by B-Site Substitution for
 Enhanced Light Emission
;
_journal_issue                   14
_journal_name_full               'Chemistry of Materials'
_journal_page_first              4999
_journal_paper_doi               10.1021/acs.chemmater.9b00433
_journal_volume                  31
_journal_year                    2019
_chemical_formula_moiety         '2(Cl1.5 Cs0.5 In0.03 Sn0.45)'
_chemical_formula_sum            'Cl3 Cs In0.07 Sn0.9'
_chemical_formula_weight         353.77
_space_group_crystal_system      cubic
_space_group_IT_number           221
_space_group_name_Hall           '-P 4 2 3'
_space_group_name_H-M_alt        'P m -3 m'
_symmetry_space_group_name_Hall  '-P 4 2 3'
_symmetry_space_group_name_H-M   'P m -3 m'
_audit_creation_date             2019-01-13
_audit_creation_method
;
Olex2 1.2
(compiled 2018.05.29 svn.r3508 for OlexSys, GUI svn.r5506)
;
_cell_angle_alpha                90
_cell_angle_beta                 90
_cell_angle_gamma                90
_cell_formula_units_Z            1
_cell_length_a                   5.507(2)
_cell_length_b                   5.507(2)
_cell_length_c                   5.507(2)
_cell_measurement_reflns_used    257
_cell_measurement_temperature    180(2)
_cell_measurement_theta_max      27.148
_cell_measurement_theta_min      3.700
_cell_volume                     167.01(11)
_computing_cell_refinement       'SAINT v8.37A (Bruker, 2015)'
_computing_data_reduction        'SAINT v8.37A (Bruker, 2015)'
_computing_molecular_graphics    'Olex2 (Dolomanov et al., 2009)'
_computing_publication_material  'Olex2 (Dolomanov et al., 2009)'
_computing_structure_refinement  'ShelXL (Sheldrick, 2015)'
_computing_structure_solution    'XS (Sheldrick, 2008)'
_diffrn_ambient_temperature      179.97
_diffrn_measured_fraction_theta_full 1.000
_diffrn_measured_fraction_theta_max 1.000
_diffrn_measurement_device_type  'Bruker APEX-II CCD'
_diffrn_measurement_method       '\f and \w scans'
_diffrn_radiation_type           MoK\a
_diffrn_radiation_wavelength     0.71073
_diffrn_reflns_av_R_equivalents  0.0542
_diffrn_reflns_av_unetI/netI     0.0275
_diffrn_reflns_Laue_measured_fraction_full 1.000
_diffrn_reflns_Laue_measured_fraction_max 1.000
_diffrn_reflns_limit_h_max       6
_diffrn_reflns_limit_h_min       -7
_diffrn_reflns_limit_k_max       6
_diffrn_reflns_limit_k_min       -7
_diffrn_reflns_limit_l_max       7
_diffrn_reflns_limit_l_min       -4
_diffrn_reflns_number            803
_diffrn_reflns_point_group_measured_fraction_full 1.000
_diffrn_reflns_point_group_measured_fraction_max 1.000
_diffrn_reflns_theta_full        25.242
_diffrn_reflns_theta_max         27.147
_diffrn_reflns_theta_min         3.700
_diffrn_standards_number         0
_exptl_absorpt_coefficient_mu    10.112
_exptl_absorpt_correction_T_max  0.7455
_exptl_absorpt_correction_T_min  0.4194
_exptl_absorpt_correction_type   multi-scan
_exptl_absorpt_process_details
'SADABS-2016/2 (Bruker,2016/2) was used for absorption correction. wR2(int) was 0.1808 before and 0.0693 after correction. The Ratio of minimum to maximum transmission is 0.5626. The \l/2 correction factor is Not present.'
_exptl_crystal_colour            yellow
_exptl_crystal_colour_primary    yellow
_exptl_crystal_density_diffrn    3.517
_exptl_crystal_description       irregular
_exptl_crystal_F_000             154
_exptl_crystal_size_max          0.1
_exptl_crystal_size_mid          0.1
_exptl_crystal_size_min          0.1
_refine_diff_density_max         1.742
_refine_diff_density_min         -0.829
_refine_diff_density_rms         0.256
_refine_ls_extinction_method     none
_refine_ls_goodness_of_fit_ref   1.200
_refine_ls_hydrogen_treatment    undef
_refine_ls_matrix_type           full
_refine_ls_number_parameters     5
_refine_ls_number_reflns         60
_refine_ls_number_restraints     0
_refine_ls_restrained_S_all      1.200
_refine_ls_R_factor_all          0.0657
_refine_ls_R_factor_gt           0.0588
_refine_ls_shift/su_max          0.000
_refine_ls_shift/su_mean         0.000
_refine_ls_structure_factor_coef Fsqd
_refine_ls_weighting_details
'w=1/[\s^2^(Fo^2^)+(0.0972P)^2^+0.7889P] where P=(Fo^2^+2Fc^2^)/3'
_refine_ls_weighting_scheme      calc
_refine_ls_wR_factor_gt          0.1660
_refine_ls_wR_factor_ref         0.1753
_reflns_Friedel_coverage         0.000
_reflns_number_gt                54
_reflns_number_total             60
_reflns_threshold_expression     'I > 2\s(I)'
_cod_data_source_file            cm9b00433_si_003.cif
_cod_data_source_block           mo_2_mqx_98_180k_1_0m
_cod_original_cell_volume        167.03(19)
_cod_original_formula_sum        'Cl3 Cs In0.07 Sn0.90'
_cod_database_code               4003022
_shelx_shelxl_version_number     2016/6
_shelx_space_group_comment
;
The symmetry employed for this shelxl refinement is uniquely defined
by the following loop, which should always be used as a source of
symmetry information in preference to the above space-group names.
They are only intended as comments.
;
_shelx_estimated_absorpt_t_max   0.431
_shelx_estimated_absorpt_t_min   0.431
_olex2_refinement_description
;
1. Uiso/Uaniso restraints and constraints
Uiso(Sn2) = Uiso(In)
2. Others
 Fixed Sof: Sn2(0.01875) In(0.0014)
;
_shelx_res_file
;
TITL mo_2_MQX_98_180K_1_0m in Pm-3m #221
    mo_2_mqx_98_180k_1_0m.res
    created by SHELXL-2016/6 at 21:57:32 on 13-Jan-2019
REM reset to Pm-3m #221
CELL 0.71073 5.5072 5.5072 5.5072 90 90 90
ZERR 1 0.0021 0.0021 0.0021 0 0 0
LATT 1
SYMM -Y,+X,+Z
SYMM -X,-Y,+Z
SYMM +Y,-X,+Z
SYMM +X,-Z,+Y
SYMM +X,-Y,-Z
SYMM +X,+Z,-Y
SYMM +Z,+Y,-X
SYMM -X,+Y,-Z
SYMM -Z,+Y,+X
SYMM +Z,+X,+Y
SYMM +Y,+Z,+X
SYMM -Y,-Z,+X
SYMM +Z,-X,-Y
SYMM -Y,+Z,-X
SYMM -Z,-X,+Y
SYMM -Z,+X,-Y
SYMM +Y,-Z,-X
SYMM +Y,+X,-Z
SYMM -Y,-X,-Z
SYMM -X,+Z,+Y
SYMM -X,-Z,-Y
SYMM +Z,-Y,+X
SYMM -Z,-Y,-X
SFAC Cl Sn In Cs
UNIT 3 0.9 0.067 1
EADP Sn2 In

L.S. 4 0 0
PLAN  20
SIZE 0.1 0.1 0.1
TEMP -93.18
fmap 2 53
acta
REM <olex2.extras>
REM <HklSrc "%.\\mo_2_MQX_98_180K_1_0m.hkl">
REM </olex2.extras>

WGHT    0.097200    0.788900
FVAR       0.34549
CS1   4    0.500000    0.500000    0.500000    10.02083    0.10239
PART 1
SN2   2    0.000000    0.000000    0.000000    10.01875    0.05569
PART 0
CL4   1    0.500000    0.000000    0.000000    10.06250    0.15734    0.13845 =
         0.13845    0.00000    0.00000    0.00000
PART 2
IN    3    0.000000    0.000000    0.000000    10.00140    0.05569
HKLF 4




REM  mo_2_MQX_98_180K_1_0m in Pm-3m #221
REM R1 =  0.0588 for      54 Fo > 4sig(Fo)  and  0.0657 for all      60 data
REM      5 parameters refined using      0 restraints

END

WGHT      0.0972      0.7889

REM Highest difference peak  1.742,  deepest hole -0.829,  1-sigma level  0.256
Q1    1   0.5000  0.6067  0.5000  10.12500  0.05    1.74
Q2    1   0.1231  0.0000  0.0000  10.12500  0.05    1.18
Q3    1   0.3003  0.0000 -0.3003  10.25000  0.05    0.50
Q4    1   0.2535  0.3570  0.7465  10.50000  0.05    0.44
Q5    1   0.2534 -0.1390 -0.2534  10.50000  0.05    0.36
Q6    1  -0.2472 -0.2032  0.2032  10.50000  0.05    0.36
Q7    1   0.4030  0.0000  0.2068  10.50000  0.05    0.33
Q8    1   0.5000  0.0000  0.2017  10.25000  0.05    0.31
Q9    1   0.2725 -0.1252  0.0000  10.50000  0.05    0.29
Q10   1   0.3658 -0.2642  0.0000  10.50000  0.05    0.26
Q11   1   0.5000 -0.0834 -0.2356  10.50000  0.05    0.19
Q12   1   0.5000  0.1260 -0.2852  10.50000  0.05    0.14
Q13   1   0.7792  0.5000  0.3530  10.50000  0.05    0.14
Q14   1   0.5000 -0.1657  0.2342  10.50000  0.05    0.03
;
_shelx_res_checksum              15119
_shelx_hkl_file
;
  -1   0   0    8.38    0.72
   0  -1   0    9.89    0.62
   0   1   0    9.62    0.63
   1   0   0    8.74    0.74
  -1  -1   0  632.45   35.51
  -1   1   0  636.91   35.54
   0  -1  -1  600.26   35.50
   0  -1   1  602.43   35.50
   0   1   1  626.43   35.51
   1  -1   0  627.03   35.54
  -1  -1  -1  125.86    7.27
   1  -1   1  129.44    7.31
  -1   1   1  130.55    7.43
   1  -1  -1  119.73    7.40
  -1   1  -1  126.31    7.30
   1   1   1  127.64    7.29
  -2   0   0  890.56   53.50
   0  -2   0 1000.00   53.41
   0   2   0  973.34   53.41
   2   0   0  870.11   53.50
   0   2  -1    4.64    0.50
   0   2   1    4.54    0.54
   2  -1   0    4.45    0.63
   0  -2  -1    5.79    0.52
   0  -2   1    4.66    0.54
  -2   1   0    5.26    0.69
   1   2   0    4.60    0.52
   2   0   1    4.61    0.60
   1  -2   0    4.99    0.54
  -1   2   0    5.63    0.57
   0   1   2    4.71    0.55
  -2   0  -1    5.56    0.48
  -2   0   1    4.66    0.70
  -1  -2   0    4.70    0.50
  -2  -1  -1  324.22   21.20
  -2  -1  -1  358.35   21.12
   1  -2   1  369.11   21.19
  -2   1   1  365.78   21.35
  -1  -2  -1  377.63   21.16
   1  -1   2  365.94   21.11
  -1   1   2  356.40   21.29
   2  -1   1  377.88   21.20
  -1   2   1  411.02   21.28
   1  -2  -1  374.89   21.23
  -2   1  -1  375.75   21.16
  -1  -2   1  390.90   21.22
   1   1   2  365.89   21.08
   1   2   1  369.20   21.17
   2  -1  -1  347.76   21.31
  -1   2  -1  368.01   21.18
  -2  -2   0  524.24   29.48
  -2   0   2  499.41   29.60
  -2   2   0  548.58   29.55
   0  -2  -2  479.99   29.44
   0  -2   2  499.84   29.45
   0   2   2  531.58   29.48
   2  -2   0  515.57   29.53
   2   0   2  508.38   29.39
  -2  -2  -1    6.14    0.58
  -2   1   2    7.22    0.98
   2  -2   1    6.58    0.70
  -2   2   1    6.80    0.87
  -1  -2  -2    6.39    0.51
  -1   2   2    6.14    0.78
   2  -1   2    5.65    0.56
   1  -2   2    5.89    0.61
   1   2   2    6.77    0.58
   2  -2  -1    5.69    0.77
  -2   2  -1    5.89    0.65
   2  -1  -2    6.25    0.88
   1  -2  -2    6.00    0.77
  -2  -2  -2  216.94   14.58
  -2  -2  -2  264.78   14.53
   2  -2   2  264.67   14.69
  -2   2   2  277.32   14.96
   2  -2  -2  231.82   14.82
  -2   2  -2  262.95   14.62
   2   2   2  259.76   14.65
  -3   0   0   10.00    1.17
   0  -3   0    7.92    0.83
   0   3   0   10.38    0.85
   3   0   0    7.94    1.16
   0   3   1  200.49   11.85
   3  -1   0  188.85   11.96
   0  -3  -1  204.25   11.84
   0  -3   1  209.97   11.87
   0   3  -1  205.14   11.85
  -3   1   0  213.07   12.00
  -3  -1   0  204.54   12.04
  -3  -2   0    4.61    0.63
   0  -3  -2    4.87    0.62
   0  -3   2    5.46    0.74
   0   3   2    5.61    0.78
   2   0   3    4.50    0.37
   3  -2   0    4.49    0.73
  -2   0   3    6.23    0.89
  -3   2   0    5.73    0.85
   1  -3   0  204.27   11.83
  -1  -3   0  209.66   11.82
  -1   3   0  204.09   11.84
   0   1   3  196.88   11.77
  -3   0  -1  220.19   11.82
  -3   0   1  204.73   12.03
   1   3   0  204.44   11.82
   3   0   1  179.89   11.89
   1  -3   1    4.62    0.63
  -1   1   3    5.52    0.82
  -3  -1  -1    6.29    0.81
  -3   1   1    5.27    0.94
   3  -1   1    5.56    0.77
  -1  -3  -1    4.33    0.62
  -1   3   1    5.73    0.75
  -3  -1   1    5.59    0.91
  -3   1  -1    5.38    0.70
  -1  -3   1    4.32    0.64
   1   3   1    5.62    0.66
   3  -1  -1    4.36    0.88
   1   1   3    4.51    0.43
  -1   3  -1    4.76    0.67
   1  -3  -1    5.11    0.68
  -1  -3  -2  120.31    6.85
  -1   3   2  126.06    7.06
   2  -1   3  115.26    6.78
  -3   2   1  115.28    7.15
  -2   1   3  118.47    7.16
   3  -2   1  116.00    6.98
  -3  -2  -1  113.38    6.84
  -3  -2  -1  117.79    7.08
   1  -3   2  111.68    6.90
   2   1   3  114.34    6.73
   1  -3  -2  107.44    6.95
  -3   2  -1  121.42    6.94
  -1  -3   2  121.93    6.96
   1   3   2  115.32    6.89
  -3   0   2    4.93    0.95
   0   2   3    5.61    0.78
  -2  -3   0    6.10    0.75
  -2   3   0    5.57    0.78
   3   0   2    4.72    0.70
  -2  -3  -1  115.01    6.78
  -3   1   2  118.56    7.14
   2  -3   1  113.59    6.85
   3  -1   2  115.32    6.82
   1  -2   3  114.25    6.75
  -1   2   3  119.52    6.98
  -2   3   1  123.27    7.01
  -2   3  -1  113.87    6.84
  -2  -3   1  100.66    6.85
   1   2   3  116.99    6.72
  -3  -1   2  119.33    7.04
  -3   1  -2  112.59    6.65
   2  -3  -1  113.99    6.90
  -3  -2  -2    4.11    0.48
  -3  -2  -2    3.89    0.44
  -3   2   2    3.08    0.99
  -2  -3  -2    4.39    0.58
   2  -2   3    5.13    0.66
  -2   2   3    5.18    1.07
   3  -2   2    4.27    0.66
  -2   3   2    5.78    1.01
   2  -3  -2    6.39    0.81
  -3   2  -2    4.63    0.54
  -2  -3   2    3.75    0.74
   2   2   3    4.10    0.57
   2   3   2    5.28    0.67
   3  -2  -2    6.31    0.92
  -2   3  -2    3.47    0.56
  -3   0   3   58.14    4.42
  -3   3   0   76.76    4.42
   0  -3  -3   63.43    4.13
   0  -3   3   73.55    4.19
   0   3   3   73.23    4.27
   3  -3   0   65.60    4.33
   3   0   3   65.99    4.13
  -3  -3  -1   -0.38    0.37
   3  -3   1    0.22    0.53
  -3   1   3   -0.71    0.83
   3  -1   3   -0.65    0.34
  -3   3   1    0.45    0.78
  -1   3   3   -0.49    0.66
  -3   3  -1    0.48    0.55
   1   3   3   -0.46    0.40
   3  -3  -1    0.03    0.63
  -3  -3   1    0.42    0.54
   1  -3  -3   -0.12    0.55
  -3  -3  -2   31.06    2.50
  -3  -3  -2   37.75    2.28
  -3   2   3   40.38    3.14
   3  -3   2   35.23    2.49
  -2   3   3   41.37    3.00
   3  -2   3   35.86    2.43
   3  -3  -2   31.19    2.64
  -3   3  -2   37.01    2.42
   2   3   3   36.70    2.40
  -3   3   3    3.34    1.32
   3  -3   3    0.19    0.61
   3  -3  -3    1.29    1.04
  -4   0   0  175.56   10.15
   0  -4   0  166.41    9.88
   0   4   0  161.98    9.89
   0   4  -1    5.59    0.80
   0   4   1    4.95    0.78
  -4  -1   0    4.38    1.06
  -4   1   0    4.44    0.99
   0  -4   1    4.91    0.74
   4  -2   0   74.82    5.31
   0  -4  -2   81.74    5.16
   0  -4   2   82.89    5.21
   0   4   2   88.64    5.25
  -2   0   4   90.54    5.36
  -4   2   0   86.23    5.45
  -4  -2   0   86.11    5.49
   3   0   4    4.00    0.57
   0   4   3    4.30    0.90
   4  -3   0    4.37    1.05
  -3   0   4    3.36    1.68
   0  -4   3    4.97    0.89
   0  -4  -3    3.30    0.79
  -4  -3   0    4.04    1.21
  -4  -3   0    4.85    0.81
  -4   3   0    4.53    1.23
  -4   0  -1    6.07    0.88
   1   4   0    5.39    0.79
   4   0   1    6.69    1.05
   0   1   4    5.78    0.74
  -4   0   1    5.40    1.14
  -1   4   0    5.98    0.84
   1  -4   0    4.53    0.75
  -1   4   1   76.47    4.61
   1  -4   1   72.27    4.53
  -4  -1  -1   74.66    4.68
  -1   1   4   73.75    4.65
  -1  -4  -1   77.94    4.48
  -4   1   1   74.94    4.92
  -4   1  -1   77.74    4.57
  -1   4  -1   72.08    4.54
   1   1   4   66.53    4.29
   1   4   1   71.20    4.52
  -1  -4   1   71.94    4.53
  -4  -1   1   69.13    4.81
   1  -4  -1   76.27    4.53
   4  -1  -1   69.54    4.79
  -4  -2  -1    4.90    0.67
  -4  -2  -1    5.49    1.12
  -1   4   2    3.96    0.89
   4  -2   1    6.59    0.96
   2  -1   4    5.08    0.56
  -1  -4  -2    4.38    0.69
  -2   1   4    6.25    1.16
  -4   2   1    4.15    1.18
   1  -4   2    6.68    0.89
  -4  -2   1    4.04    1.11
  -1  -4   2    4.35    0.84
   1   4   2    3.93    0.75
  -1   4  -2    4.03    0.74
   1  -4  -2    6.83    0.83
  -4   2  -1    5.02    0.83
   4  -2  -1    5.41    1.05
   2   1   4    4.45    0.40
   3  -1   4   23.50    1.68
  -1  -4  -3   19.79    1.72
  -4  -3  -1   23.59    2.35
   1  -4   3   26.72    1.91
  -4   3   1   24.76    2.53
  -4  -3   1   25.59    2.29
   1   4   3   24.85    1.94
   4  -3  -1   24.14    2.28
  -1  -4   3   20.97    2.08
  -4   3  -1   24.83    2.06
  -4   0   2   87.51    5.49
  -2  -4   0   83.64    5.13
   4   0   2   74.01    5.27
   0   2   4   87.55    5.14
   2  -4   0   81.43    5.20
  -4   0  -2   82.81    4.87
  -2   4   0   86.96    5.23
  -1   2   4    3.81    0.93
  -2   4   1    4.64    0.97
   1  -2   4    5.13    0.68
  -4  -1  -2    5.31    0.51
  -4   1   2    2.89    1.14
  -4  -1  -2    4.27    0.52
   2  -4   1    5.37    0.83
  -2  -4   1    6.45    0.90
  -2   4  -1    6.25    0.90
   2   4   1    4.41    0.81
  -4   1  -2    5.18    0.64
   2  -4  -1    4.06    0.88
  -4  -1   2    3.64    1.07
   1   2   4    5.35    0.61
  -4  -2  -2   49.89    2.90
  -2   2   4   52.00    3.56
   4  -2   2   41.62    3.13
  -2  -4  -2   44.75    2.94
   2  -4   2   44.73    3.13
  -2   4   2   51.34    3.49
   2  -2   4   46.08    2.91
  -4  -2  -2   46.15    2.78
   2  -4  -2   44.76    3.22
   4  -2  -2   39.51    3.77
  -2   4  -2   46.97    3.07
   2   2   4   47.39    2.83
  -2  -4   2   40.56    3.35
   2   4   2   47.05    3.12
  -4   2  -2   45.91    2.94
   2  -4   3    5.60    1.44
   3  -2   4    3.98    0.69
  -2   4   3    2.41    1.16
  -3   2   4    4.49    1.45
  -2  -4  -3    2.16    0.75
  -4  -3  -2    2.48    0.81
  -4  -3  -2    3.27    0.55
  -4   3  -2    1.84    0.69
   2   4   3    1.83    0.78
   4  -3  -2    2.92    1.14
   2  -4  -3    2.82    0.97
  -2  -4   3    3.21    0.97
   4   0   3    4.01    0.92
   3  -4   0    4.97    0.99
   0   3   4    3.36    0.79
  -3   4   0    2.71    0.92
  -4   0   3    4.28    1.22
  -3  -4   0    4.58    0.82
   3  -4   1   23.79    2.11
   4  -1   3   24.22    1.99
  -4   1   3   29.29    2.72
  -1   3   4   27.48    2.27
   1   3   4   22.49    1.80
  -3  -4   1   26.71    2.08
  -3   4  -1   24.05    2.06
  -1  -3   4   24.30    2.00
  -4  -1   3   18.66    2.64
   3  -4  -1   21.32    2.08
  -4   2   3    0.32    1.34
  -3  -4  -2    2.84    0.62
   3  -4   2    4.26    0.98
  -2   3   4    1.23    1.22
   2   3   4    3.49    0.67
   3  -4  -2    3.80    1.13
  -3  -4   2    2.60    0.95
  -3   4  -2    3.86    0.82
  -4   3   3    7.41    1.91
   3  -4   3    7.10    1.20
  -3   3   4   10.73    1.93
  -3   4   3    8.10    1.80
   3  -3   4    9.16    1.14
  -3  -4   3    8.51    1.41
   3  -4  -3    7.53    1.47
   4  -3  -3    5.01    1.55
  -4  -4   0   15.16    1.67
  -4   0   4   10.72    1.81
   0  -4   4   15.59    1.61
   0   4   4   17.22    2.35
   4  -4   0   14.05    1.94
   4   0   4   12.75    1.70
  -4  -4  -1    1.13    1.20
  -4  -4  -1    2.70    0.78
   4  -1   4    3.44    0.84
   1  -4   4    2.33    0.83
  -4   1   4    3.76    1.54
  -1   4   4    2.27    1.11
  -4   4   1    2.40    1.36
   4  -4   1    1.68    1.05
  -4   4  -1    2.19    1.00
  -1  -4   4    1.55    0.93
   1   4   4    2.14    0.83
   4  -4  -1    3.48    1.11
  -4  -1   4    1.88    1.29
  -4  -4   1    4.38    1.06
  -4  -4  -2    8.30    1.03
   4  -4   2   10.35    1.56
  -4   2   4    6.16    1.96
  -2   4   4   11.14    1.87
  -4   4   2    7.83    1.89
   2  -4   4   12.48    1.61
  -4   4  -2    8.31    1.26
  -2  -4   4    9.39    1.48
   2   4   4    9.75    1.23
   4  -4  -2    8.68    1.65
  -4  -4   2   12.82    1.70
  -4  -2   4    8.08    1.77
   4  -3   4    1.69    1.20
  -4   3   4   -0.10    1.82
  -4   4   3    2.50    2.00
   4  -4   3   -0.28    1.24
  -3   4   4    6.11    1.99
   3  -4   4    0.85    1.08
   4  -4  -3    2.17    1.61
  -3  -4   4   -0.11    1.31
  -4  -4   3   -0.01    1.38
   4  -4   4   -0.39    1.54
  -4   4   4    1.35    2.50
  -4  -4   4    0.65    1.75
  -5   0   0    6.76    1.48
   0  -5   0    6.59    1.17
  -5   1   0   30.99    2.84
   0  -5  -1   27.55    2.22
   0  -5   1   33.36    2.39
   0   5  -1   28.60    2.36
   0   5   1   32.38    2.39
   5  -1   0   25.10    2.82
  -5  -1   0   34.97    2.97
  -5   2   0    2.57    1.32
  -2   0   5    3.23    1.09
   0  -5  -2    5.38    0.93
  -5  -2   0    2.82    1.34
   0   5   2    4.63    1.03
   5  -2   0    3.12    1.20
   0  -5   2    2.74    0.90
   0  -5   3    9.69    1.32
   0   5   3    8.31    1.37
   3   0   5    8.53    0.96
   5  -3   0    7.38    1.50
  -5  -3   0   10.14    1.31
  -3   0   5    9.78    1.73
  -5  -3   0   10.81    1.78
  -5   4   0    0.21    1.54
  -5  -4   0    2.62    1.63
   0  -5  -4    0.85    0.95
   0   5   4    0.88    1.27
   4   0   5    3.70    1.02
   5  -4   0    2.17    1.42
   0  -5   4    1.66    1.11
  -5  -4   0    3.72    1.20
  -4   0   5    3.33    1.85
   5   0   1   34.24    2.97
   0   1   5   30.12    2.35
  -5   0  -1   37.63    2.65
  -5   0   1   33.77    3.09
  -1  -5   0   27.82    2.56
   1  -5   0   31.39    2.42
  -1   1   5    2.11    0.98
  -5  -1  -1    0.04    0.98
  -5   1   1    1.07    1.26
  -1  -5  -1    0.61    0.68
   5  -1   1    1.20    1.26
   1  -5   1    2.60    0.82
   5  -1  -1    1.51    1.23
  -1  -5   1    1.83    0.78
   1   5   1    1.24    0.78
  -1   5  -1    0.98    0.78
  -5  -1   1    1.21    1.24
  -5   1  -1    2.11    0.91
   1  -5  -1    1.12    0.79
   1   1   5    0.87    0.49
  -2   1   5   20.28    2.39
   2  -1   5   18.52    1.32
  -5  -2  -1   19.21    2.35
  -1   5   2   15.69    2.06
  -1  -5  -2   18.18    1.65
   1  -5   2   18.99    1.88
   5  -2   1   16.20    2.10
   1  -5  -2   15.49    2.50
   2   1   5   18.53    1.14
  -1  -5   2   18.58    1.84
   5  -2  -1   21.17    2.40
   1   5   2   19.02    1.87
  -5   2  -1   19.40    1.98
  -3   1   5    1.61    1.44
   5  -3   1    1.25    1.12
   3  -1   5    0.16    0.53
   1  -5   3    1.43    0.88
  -5   3   1    0.41    1.57
  -5  -3  -1    1.34    1.39
  -5  -3  -1    0.00    0.72
  -1   5   3    1.38    1.17
  -1  -5  -3    2.75    0.85
  -5  -3   1    3.53    1.53
   1  -5  -3    1.12    1.10
   5  -3  -1   -0.57    1.15
  -1  -5   3    1.44    0.97
   1   5   3    2.95    1.04
  -5  -3   1    1.85    1.08
  -5   3  -1    0.91    1.03
  -3  -1   5    0.47    1.28
   1  -5   4    1.66    1.10
  -4   1   5    5.65    2.07
  -5  -4  -1    1.38    1.44
  -5   4   1    1.80    1.89
  -1   5   4    3.99    1.61
   5  -4   1    4.84    1.49
   4  -1   5    4.01    1.02
  -4  -1   5    2.34    1.70
  -1  -5   4    1.98    1.25
  -5  -4   1    2.86    1.29
   5  -4  -1    2.42    1.48
  -5   4  -1    2.45    1.42
  -5  -4   1    0.87    1.79
   1   5   4    3.20    1.29
  -5   0  -2    3.45    0.57
   0   2   5    4.70    0.91
  -2  -5   0    3.84    0.90
   2  -5   0    3.33    0.96
   5   0   2    3.55    1.33
   1  -2   5   17.90    1.46
  -5  -1  -2   18.43    1.31
  -1   2   5   18.89    2.16
   5  -1   2   15.28    2.24
   2  -5   1   16.43    1.82
  -2  -5  -1   20.02    1.71
  -5  -1  -2   19.00    1.40
  -5   1  -2   18.85    1.52
   2  -5  -1   15.56    1.82
  -2  -5   1   18.82    1.83
   1   2   5   19.01    1.49
  -2   5   2    3.81    1.31
  -5   2   2    3.47    1.65
  -2   2   5    4.48    1.83
  -5  -2  -2    3.09    0.69
  -5  -2  -2    3.26    0.56
   2  -2   5    3.00    0.65
   5  -2   2    2.68    1.20
   2  -5   2    1.54    0.98
  -2  -5   2    3.43    1.05
  -2   5  -2    3.71    0.99
  -5   2  -2    4.19    0.80
   2  -5  -2    3.35    1.21
   2   5   2    4.29    1.06
   5  -2  -2    4.55    1.41
   2   2   5    3.54    0.53
  -5  -2   2    1.96    1.39
  -2   5   3    5.93    1.67
  -5  -3  -2    6.12    0.77
   2  -5   3    5.77    1.24
  -5  -3  -2    4.33    1.04
  -2  -5  -3    5.38    0.93
  -3   2   5    5.93    1.78
  -5   3   2    6.32    2.01
   5  -3   2    8.21    1.56
  -5   3  -2    6.72    1.09
  -2  -5   3    6.00    1.30
   5  -3  -2    3.48    1.56
   2  -5  -3    6.44    1.46
   2   5   3    7.31    1.30
  -5  -3   2    3.49    1.72
  -5  -4  -2    0.48    1.18
  -2   5   4    2.83    1.88
   2  -5   4    1.94    1.23
  -5   4   2    0.19    2.15
  -4   2   5    0.80    2.06
   5  -4   2    3.05    1.55
   4  -2   5    2.94    1.16
  -2  -5   4    0.82    1.37
  -4  -2   5    2.29    1.90
  -5  -4   2   -1.29    1.41
   5  -4  -2   -0.07    1.64
  -5   4  -2   -0.25    1.31
   2   5   4    4.02    1.29
  -5   0   3    6.06    2.26
   0   3   5   12.34    1.62
  -3  -5   0    9.79    1.35
   0  -3   5   10.56    1.39
  -3   5   0    9.75    1.56
   5   0   3   10.02    1.68
   3  -5   0    7.57    1.36
   5  -1   3    2.05    1.27
  -3   5   1    0.80    1.27
   3  -5   1    2.17    1.03
  -3  -5  -1    0.65    1.02
   1  -3   5   -0.08    0.71
  -5   1   3   -0.22    1.45
   1   3   5    1.04    0.71
  -5  -1   3    2.84    1.49
  -1  -3   5    1.35    0.90
  -3  -5   1    0.05    0.91
   3  -5  -1    1.68    1.06
  -3   5   2    7.77    1.81
   3  -5   2    3.11    1.13
   5  -2   3    7.89    1.49
  -2   3   5    4.94    1.63
   2  -3   5    6.60    0.98
  -5   2   3    3.71    1.88
   2   3   5    6.08    0.88
  -3   5  -2    1.98    1.24
  -5  -2   3    0.79    1.63
  -3  -5   2    5.61    1.33
   3  -5  -2    4.61    1.38
   5  -3   3    2.20    1.41
  -3   3   5   -2.31    1.95
   3  -5   3    0.04    1.19
  -5   3   3    0.80    2.08
   3  -3   5    2.37    1.08
  -3   5   3    1.25    1.90
   3  -5  -3    0.19    1.52
  -5  -3   3   -1.37    1.86
  -3  -5   3    1.17    1.39
   3  -5   4    2.36    1.58
   4  -3   5    1.87    1.56
  -4   3   5    4.40    2.83
   5  -4   3   -2.23    1.62
  -3   5   4    1.61    4.37
  -5  -4   3    0.05    1.93
   3  -5  -4    3.32    2.14
   5  -4  -3    1.14    2.05
  -3  -5   4   -0.03    1.70
   0  -4   5    2.50    1.05
  -4   5   0    1.13    1.56
   4  -5   0    0.72    1.32
  -5   0   4    3.20    1.83
   0   4   5    0.51    1.15
  -4  -5   0    0.94    1.05
   5  -1   4    2.58    1.51
   4  -5   1    3.95    1.42
   1  -4   5    7.19    1.25
  -4  -5  -1    2.40    1.11
  -4   5   1    4.99    1.77
  -5   1   4    2.88    2.01
  -1   4   5    5.46    1.51
  -5  -1   4    3.02    1.75
  -1  -4   5    2.57    1.11
   4  -5  -1    2.36    1.46
  -4  -5   1    2.50    1.24
  -4   5  -1    3.90    1.44
   1   4   5    2.27    1.63
  -4  -5  -2    0.17    1.38
  -2   4   5   -0.14    1.83
   2  -4   5    0.74    1.12
  -4   5   2    5.93    2.17
   4  -5   2   -0.35    1.37
   5  -2   4    4.42    1.51
  -5   2   4    1.97    2.19
  -5  -2   4   -2.87    1.91
  -2  -4   5   -0.26    1.36
  -4  -5   2    2.74    1.55
   4  -5  -2    4.10    1.60
   5  -3   4    3.36    1.75
  -3   4   5   -1.43    2.33
   3  -4   5    1.28    1.48
   4  -5   3   -0.83    1.65
   4  -5  -3   -0.60    2.00
  -4  -5   3    0.35    1.81
  -3  -4   5    2.98    1.92
  -5  -5   0    0.82    1.98
  -5  -5   0    0.53    1.44
  -5   5   0    1.98    2.17
   0  -5   5    4.98    1.55
   0   5   5    0.94    1.65
   5  -5   0   -1.81    1.88
  -6   0   0   11.60    2.43
   0  -6   0   14.15    1.82
   0   6   0   15.05    1.93
   6  -1   0    3.70    1.66
  -1   0   6    4.20    1.28
   0  -6  -1    2.96    1.11
   0  -6   1    3.48    1.07
   0   6  -1    1.56    1.08
   0   6   1    3.42    1.23
   0   6   2    7.69    1.55
   6  -2   0    5.44    1.88
  -6   2   0    8.04    2.05
  -2   0   6    6.22    1.65
   0  -6  -2    8.87    1.46
   0  -6   2    8.27    1.43
  -6  -3   0    2.39    1.27
  -6   3   0    0.55    1.81
  -3   0   6    4.21    1.94
   0  -6  -3    0.83    1.60
   0  -6   3    0.56    1.18
   0   6   3    2.62    1.54
   6  -3   0   -1.34    1.68
  -6  -3   0    1.31    1.93
  -6   0   1    0.72    1.79
   1   6   0    1.47    1.12
   0   1   6    3.76    1.01
   1  -6   0    2.71    1.05
  -6   0  -1    0.58    1.27
  -1   6   0    2.19    1.19
  -1  -6   0    0.49    1.01
  -1   1   6    6.90    1.50
  -6   1   1    5.67    1.93
  -1  -6  -1    7.99    1.28
  -6  -1  -1    7.99    1.62
   6  -1   1    8.58    2.04
   1  -6   1    5.22    1.21
  -1   6   1    7.63    1.53
   1  -6  -1    5.07    1.27
  -6  -1   1    6.53    1.94
  -1  -6   1    7.31    1.33
   1   6   1    8.46    1.46
  -6   1  -1    7.37    1.50
  -1   6  -1    7.80    1.45
   1   1   6    7.06    0.90
  -6  -2  -1    2.33    1.61
   6  -2   1    1.37    1.76
  -6  -2  -1    2.30    0.92
   2  -1   6    1.68    0.57
  -6   2   1    1.21    1.93
  -1   6   2    1.46    1.46
  -1  -6  -2    2.15    1.17
   1  -6   2    1.25    1.08
  -2   1   6   -0.28    1.54
   1  -6  -2   -0.07    1.21
  -1  -6   2    2.38    1.18
  -6   2  -1    1.29    1.34
   6  -2  -1    1.28    1.68
  -6  -2   1    0.61    1.87
   1   6   2    0.56    1.30
   2   1   6    1.89    0.35
  -1   6   3    3.33    1.90
   3  -1   6    2.17    0.78
  -6  -3  -1    3.15    1.64
  -3   1   6    7.93    2.28
  -1  -6  -3    3.63    1.31
   6  -3   1    0.63    1.86
  -6   3   1    2.56    2.23
   1  -6   3    3.33    1.26
   1   6   3    1.25    1.52
  -3  -1   6    3.76    1.98
   1  -6  -3    3.30    1.69
  -6   3  -1    1.40    1.59
  -6  -3   1    8.93    2.23
  -6  -3   1    2.83    1.45
   6  -3  -1    2.40    1.98
  -1  -6   3    5.00    1.39
  -6   0   2    8.70    2.08
  -2  -6   0    8.27    1.39
   0   2   6    8.33    1.30
  -6   0  -2    7.44    0.89
  -6   0  -2    9.68    1.26
  -2   6   0    7.28    1.58
   2  -6   0    6.37    1.41
  -6   1   2   -0.13    1.96
  -6  -1  -2    0.93    0.62
  -6  -1  -2    0.52    0.68
   2  -6   1    1.14    1.13
   6  -1   2    1.66    1.90
  -2  -6  -1    2.09    1.15
  -1   2   6    2.62    1.63
  -2   6   1    1.21    1.49
  -2  -6   1    1.87    1.16
  -6   1  -2    1.77    0.82
  -6  -1   2    3.32    1.83
  -2   6  -1    2.90    1.28
   1   2   6    1.18    0.75
   2  -6  -1    1.73    1.23
  -6  -2  -2    4.90    0.78
  -2  -6  -2    3.51    1.21
  -2   6   2    2.82    1.78
   6  -2   2    3.45    2.00
   2  -6   2    4.81    1.43
  -6   2   2    5.51    2.22
  -6  -2  -2    3.33    0.86
  -2   2   6    4.92    1.92
  -6  -2   2    6.12    2.21
  -2   6  -2    3.98    1.34
   2   6   2    3.89    1.46
   2   2   6    4.70    0.70
  -6   2  -2    4.29    1.17
   2  -6  -2    2.94    1.57
  -2  -6   2    5.60    1.47
  -2   6   3    0.83    3.86
  -3   2   6   -1.97    2.17
  -6  -3  -2    0.06    0.83
  -6  -3  -2    2.50    1.12
   2  -6   3    1.95    1.50
   6  -3   2   -1.65    1.90
  -6   3   2    1.24    3.48
   2   6   3    2.22    1.65
   6  -3  -2    1.89    2.07
   2  -6  -3    2.79    1.82
  -6  -3   2   -0.05    2.37
  -6   3  -2   -0.71    1.26
  -2  -6   3    4.19    1.70
   0   3   6    1.48    1.54
  -3   6   0    1.31    1.62
   3  -6   0    0.02    1.33
  -6   0   3   -3.15    1.94
  -3  -6   0   -0.26    1.23
   0  -3   6    0.56    1.03
  -3   6   1    6.59    2.04
  -6   1   3    3.08    2.13
   3  -6   1   -0.14    1.37
  -3  -6  -1    1.50    1.27
  -1   3   6    1.12    1.61
   6  -1   3    2.92    2.27
  -3   6  -1    3.14    1.57
  -1  -3   6    1.74    1.28
  -3  -6   1    4.74    1.45
   1   3   6    3.23    1.05
   3  -6  -1    5.53    1.62
  -6  -1   3    1.79    2.07
  -3  -6  -2    2.71    1.28
   3  -6   2    0.60    1.46
   6  -2   3    2.65    2.32
  -2   3   6   -0.45    2.01
   2   3   6    1.63    0.94
  -3   6  -2    2.91    1.56
   3  -6  -2    0.63    1.74
  -3  -6   2    2.98    1.72
  -7   0   0    2.91    2.31
   0  -7   0    3.76    1.43
   0   0   7   -0.24    1.30
   0  -7  -1    4.66    1.63
   0  -7   1    7.50    1.69
   1   0   7    3.90    1.09
  -1   0   7    3.58    1.77
  -7   1   0    6.17    2.60
  -7  -1   0    3.35    2.35
   1  -7   0    2.90    1.63
   0   1   7    1.24    1.29
  -7   0  -1    1.77    2.06
  -7   0   1    7.58    2.82
  -1  -7   0    5.32    1.65
   0   0   0    0.00    0.00
;
_shelx_hkl_checksum              23218
_olex2_submission_special_instructions 'No special instructions were received'
loop_
_space_group_symop_operation_xyz
'x, y, z'
'-y, x, z'
'-x, -y, z'
'y, -x, z'
'x, -z, y'
'x, -y, -z'
'x, z, -y'
'z, y, -x'
'-x, y, -z'
'-z, y, x'
'z, x, y'
'y, z, x'
'-y, -z, x'
'z, -x, -y'
'-y, z, -x'
'-z, -x, y'
'-z, x, -y'
'y, -z, -x'
'y, x, -z'
'-y, -x, -z'
'-x, z, y'
'-x, -z, -y'
'z, -y, x'
'-z, -y, -x'
'-x, -y, -z'
'y, -x, -z'
'x, y, -z'
'-y, x, -z'
'-x, z, -y'
'-x, y, z'
'-x, -z, y'
'-z, -y, x'
'x, -y, z'
'z, -y, -x'
'-z, -x, -y'
'-y, -z, -x'
'y, z, -x'
'-z, x, y'
'y, -z, x'
'z, x, -y'
'z, -x, y'
'-y, z, x'
'-y, -x, z'
'y, x, z'
'x, -z, -y'
'x, z, y'
'-z, y, -x'
'z, y, x'
loop_
_atom_site_label
_atom_site_type_symbol
_atom_site_fract_x
_atom_site_fract_y
_atom_site_fract_z
_atom_site_U_iso_or_equiv
_atom_site_adp_type
_atom_site_occupancy
_atom_site_site_symmetry_order
_atom_site_calc_flag
_atom_site_refinement_flags_posn
_atom_site_refinement_flags_adp
_atom_site_refinement_flags_occupancy
_atom_site_disorder_assembly
_atom_site_disorder_group
Cs1 Cs 0.500000 0.500000 0.500000 0.1024(19) Uiso 1 48 d S T P A .
Sn2 Sn 0.000000 0.000000 0.000000 0.0557(15) Uiso 0.9 48 d S T P A 1
Cl4 Cl 0.500000 0.000000 0.000000 0.145(6) Uani 1 16 d S T P . .
In In 0.000000 0.000000 0.000000 0.0557(15) Uiso 0.0672 48 d S T P A 2
loop_
_atom_site_aniso_label
_atom_site_aniso_U_11
_atom_site_aniso_U_22
_atom_site_aniso_U_33
_atom_site_aniso_U_23
_atom_site_aniso_U_13
_atom_site_aniso_U_12
Cl4 0.157(13) 0.138(8) 0.138(8) 0.000 0.000 0.000
loop_
_atom_type_symbol
_atom_type_description
_atom_type_scat_dispersion_real
_atom_type_scat_dispersion_imag
_atom_type_scat_source
Cl Cl 0.1484 0.1585 'International Tables Vol C Tables 4.2.6.8 and 6.1.1.4'
Sn Sn -0.6537 1.4246 'International Tables Vol C Tables 4.2.6.8 and 6.1.1.4'
In In -0.7276 1.3100 'International Tables Vol C Tables 4.2.6.8 and 6.1.1.4'
Cs Cs -0.3680 2.1192 'International Tables Vol C Tables 4.2.6.8 and 6.1.1.4'
loop_
_geom_angle_atom_site_label_1
_geom_angle_atom_site_label_2
_geom_angle_atom_site_label_3
_geom_angle
_geom_angle_site_symmetry_1
_geom_angle_site_symmetry_3
Cl4 Cs1 Cl4 120.0 8_666 .
Cl4 Cs1 Cl4 60.0 8_666 2_655
Cl4 Cs1 Cl4 90.0 2 2_556
Cl4 Cs1 Cl4 180.0 2_556 2_655
Cl4 Cs1 Cl4 90.0 1_566 1_556
Cl4 Cs1 Cl4 90.0 2_656 2_556
Cl4 Cs1 Cl4 60.0 8_666 1_565
Cl4 Cs1 Cl4 180.0 8_666 8_556
Cl4 Cs1 Cl4 90.0 . 1_556
Cl4 Cs1 Cl4 120.0 2 1_556
Cl4 Cs1 Cl4 120.0 8_666 2_556
Cl4 Cs1 Cl4 60.0 . 8_556
Cl4 Cs1 Cl4 120.0 1_565 2_556
Cl4 Cs1 Cl4 120.0 8_556 2_655
Cl4 Cs1 Cl4 120.0 8_556 1_565
Cl4 Cs1 Cl4 60.0 8_666 2_656
Cl4 Cs1 Cl4 120.0 8_656 1_565
Cl4 Cs1 Cl4 120.0 8_666 1_556
Cl4 Cs1 Cl4 60.0 2_656 1_556
Cl4 Cs1 Cl4 120.0 . 2_656
Cl4 Cs1 Cl4 60.0 8_656 1_556
Cl4 Cs1 Cl4 180.0 1_565 1_556
Cl4 Cs1 Cl4 60.0 8_556 2_556
Cl4 Cs1 Cl4 120.0 8_556 2_656
Cl4 Cs1 Cl4 60.0 8_566 2_556
Cl4 Cs1 Cl4 120.0 8_656 2_556
Cl4 Cs1 Cl4 60.0 . 2_655
Cl4 Cs1 Cl4 120.0 8_666 2
Cl4 Cs1 Cl4 90.0 . 1_565
Cl4 Cs1 Cl4 120.0 8_566 2_655
Cl4 Cs1 Cl4 120.0 2_656 1_565
Cl4 Cs1 Cl4 60.0 . 2
Cl4 Cs1 Cl4 120.0 . 8_566
Cl4 Cs1 Cl4 60.0 8_566 1_565
Cl4 Cs1 Cl4 90.0 8_556 8_566
Cl4 Cs1 Cl4 60.0 8_556 2
Cl4 Cs1 Cl4 120.0 2_656 8_566
Cl4 Cs1 Cl4 60.0 8_556 1_556
Cl4 Cs1 Cl4 60.0 2 8_566
Cl4 Cs1 Cl4 180.0 2_656 2
Cl4 Cs1 Cl4 60.0 1_566 8_566
Cl4 Cs1 Cl4 120.0 8_566 1_556
Cl4 Cs1 Cl4 90.0 8_666 8_656
Cl4 Cs1 Cl4 60.0 8_666 1_566
Cl4 Cs1 Cl4 60.0 . 8_656
Cl4 Cs1 Cl4 120.0 . 2_556
Cl4 Cs1 Cl4 90.0 8_556 8_656
Cl4 Cs1 Cl4 180.0 . 1_566
Cl4 Cs1 Cl4 60.0 2_656 8_656
Cl4 Cs1 Cl4 60.0 1_566 2_556
Cl4 Cs1 Cl4 120.0 2 8_656
Cl4 Cs1 Cl4 120.0 8_556 1_566
Cl4 Cs1 Cl4 120.0 1_566 8_656
Cl4 Cs1 Cl4 60.0 1_556 2_556
Cl4 Cs1 Cl4 90.0 2_656 2_655
Cl4 Cs1 Cl4 60.0 2_656 1_566
Cl4 Cs1 Cl4 120.0 1_566 2_655
Cl4 Cs1 Cl4 90.0 2 2_655
Cl4 Cs1 Cl4 60.0 8_656 2_655
Cl4 Cs1 Cl4 120.0 2 1_566
Cl4 Cs1 Cl4 120.0 1_556 2_655
Cl4 Cs1 Cl4 60.0 1_565 2_655
Cl4 Cs1 Cl4 60.0 2 1_565
Cl4 Cs1 Cl4 90.0 8_666 8_566
Cl4 Cs1 Cl4 90.0 1_566 1_565
Cl4 Cs1 Cl4 180.0 8_566 8_656
Cl4 Sn2 Cl4 90.0 8_556 .
Cl4 Sn2 Cl4 180.0 2_545 2
Cl4 Sn2 Cl4 90.0 2 8
Cl4 Sn2 Cl4 90.0 1_455 2
Cl4 Sn2 Cl4 90.0 . 8
Cl4 Sn2 Cl4 90.0 1_455 8
Cl4 Sn2 Cl4 90.0 8_556 2_545
Cl4 Sn2 Cl4 90.0 8_556 1_455
Cl4 Sn2 Cl4 90.0 . 2_545
Cl4 Sn2 Cl4 180.0 8_556 8
Cl4 Sn2 Cl4 90.0 1_455 2_545
Cl4 Sn2 Cl4 180.0 . 1_455
Cl4 Sn2 Cl4 90.0 2_545 8
Cl4 Sn2 Cl4 90.0 . 2
Cl4 Sn2 Cl4 90.0 8_556 2
Cs1 Cl4 Cs1 180.0 . 1_544
Cs1 Cl4 Cs1 90.0 1_544 1_554
Cs1 Cl4 Cs1 180.0 1_554 1_545
Cs1 Cl4 Cs1 90.0 1_544 1_545
Cs1 Cl4 Cs1 90.0 . 1_545
Cs1 Cl4 Cs1 90.0 . 1_554
Sn2 Cl4 Cs1 90.0 1_655 1_554
Sn2 Cl4 Cs1 90.0 1_655 1_545
Sn2 Cl4 Cs1 90.0 1_655 .
Sn2 Cl4 Cs1 90.0 . 1_554
Sn2 Cl4 Cs1 90.0 . 1_545
Sn2 Cl4 Cs1 90.0 1_655 1_544
Sn2 Cl4 Cs1 90.0 . .
Sn2 Cl4 Cs1 90.0 . 1_544
Sn2 Cl4 Sn2 180.0 1_655 .
In Cl4 Cs1 90.0 . .
Cl4 In Cl4 90.0 8_556 2
Cl4 In Cl4 90.0 . 8
Cl4 In Cl4 180.0 2_545 2
Cl4 In Cl4 90.0 2 8
Cl4 In Cl4 90.0 2_545 8
Cl4 In Cl4 180.0 8_556 8
Cl4 In Cl4 180.0 . 1_455
Cl4 In Cl4 90.0 1_455 2
Cl4 In Cl4 90.0 8_556 2_545
Cl4 In Cl4 90.0 8_556 .
Cl4 In Cl4 90.0 . 2_545
Cl4 In Cl4 90.0 1_455 8
Cl4 In Cl4 90.0 1_455 2_545
Cl4 In Cl4 90.0 8_556 1_455
Cl4 In Cl4 90.0 . 2
loop_
_geom_bond_atom_site_label_1
_geom_bond_atom_site_label_2
_geom_bond_distance
_geom_bond_site_symmetry_2
Cs1 Cl4 3.8942(15) 8_666
Cs1 Cl4 3.8942(15) 2_556
Cs1 Cl4 3.8942(15) 8_656
Cs1 Cl4 3.8942(15) 1_565
Cs1 Cl4 3.8942(15) 1_556
Cs1 Cl4 3.8942(15) 8_566
Cs1 Cl4 3.8942(15) 2_656
Cs1 Cl4 3.8942(15) .
Cs1 Cl4 3.8942(15) 1_566
Cs1 Cl4 3.8942(15) 2_655
Cs1 Cl4 3.8942(15) 8_556
Cs1 Cl4 3.8942(15) 2
Sn2 Cl4 2.7536(10) 8_556
Sn2 Cl4 2.7536(10) 2_545
Sn2 Cl4 2.7536(10) 1_455
Sn2 Cl4 2.7536(10) 8
Sn2 Cl4 2.7536(10) 2
Sn2 Cl4 2.7536(10) .
Cl4 In 2.7536(10) .
