#------------------------------------------------------------------------------
#$Date: 2020-03-18 01:15:35 +0200 (Wed, 18 Mar 2020) $
#$Revision: 249451 $
#$URL: file:///home/coder/svn-repositories/cod/cif/4/00/34/4003499.cif $
#------------------------------------------------------------------------------
#
# This file is available in the Crystallography Open Database (COD),
# http://www.crystallography.net/
#
# All data on this site have been placed in the public domain by the
# contributors.
#
data_4003499
loop_
_publ_author_name
'Li, Zhuang'
'Zhang, Shengzi'
'Huang, Zhiwei'
'Zhao, Li-Dong'
'Uykur, Ece'
'Xing, Wenhao'
'Lin, Zheshuai'
'Yao, Jiyong'
'Wu, Yicheng'
_publ_section_title
;
 Molecular Construction from AgGaS2 to CuZnPS4: Defect-Induced Second
 Harmonic Generation Enhancement and Cosubstitution-Driven Band Gap
 Enlargement
;
_journal_name_full               'Chemistry of Materials'
_journal_paper_doi               10.1021/acs.chemmater.0c00609
_journal_year                    2020
_chemical_formula_moiety         '0.5(Cu2 P2 S8 Zn2)'
_chemical_formula_sum            'Cu P S4 Zn'
_chemical_formula_weight         288.12
_space_group_crystal_system      tetragonal
_space_group_IT_number           121
_space_group_name_Hall           'I -4 2'
_space_group_name_H-M_alt        'I -4 2 m'
_atom_sites_solution_primary     dual
_audit_creation_date             2019-07-26
_audit_creation_method
;
Olex2 1.2
(compiled 2017.08.10 svn.r3458 for OlexSys, GUI svn.r5381)
;
_cell_angle_alpha                90
_cell_angle_beta                 90
_cell_angle_gamma                90
_cell_formula_units_Z            2
_cell_length_a                   5.4980(4)
_cell_length_b                   5.4980(4)
_cell_length_c                   9.2110(10)
_cell_measurement_reflns_used    1218
_cell_measurement_temperature    153(2)
_cell_measurement_theta_max      26.2500
_cell_measurement_theta_min      4.2660
_cell_volume                     278.43(4)
_computing_cell_refinement       'CrysAlisPro 1.171.39.44a (Rigaku OD, 2018)'
_computing_data_collection       'CrysAlisPro 1.171.39.44a (Rigaku OD, 2018)'
_computing_data_reduction        'CrysAlisPro 1.171.39.44a (Rigaku OD, 2018)'
_computing_molecular_graphics    'Olex2 (Dolomanov et al., 2009)'
_computing_publication_material  'Olex2 (Dolomanov et al., 2009)'
_computing_structure_refinement  'XL (Sheldrick, 2008)'
_computing_structure_solution    'ShelXT (Sheldrick, 2015)'
_diffrn_ambient_environment      air
_diffrn_ambient_temperature      153(2)
_diffrn_detector                 'CCD plate'
_diffrn_detector_type            HyPix
_diffrn_measured_fraction_theta_full 1.000
_diffrn_measured_fraction_theta_max 1.000
_diffrn_measurement_details
;
List of Runs (angles in degrees, time in seconds):

  # Type    Start    End  Width  t~exp~   \w     \q     \k     \f   Frames
--------------------------------------------------------------------------
  1  \w      3.00  80.00   0.50    1.42    --    9.62  19.00  90.00  154
  2  \w    -13.00  81.00   0.50    1.42    --    9.62  77.00 120.00  188
  3  \w     39.00  81.00   0.50    1.42    --    9.62  57.00-150.00   84
  4  \w    -25.00  33.00   0.50    1.42    --    9.62 -99.00 -30.00  116
  5  \w    -20.00  18.00   0.50    1.42    --    9.62 -37.00 -90.00   76
  6  \w    -24.00   7.00   0.50    1.42    --   -8.52 -99.00  60.00   62
;
_diffrn_measurement_device       'four-circle diffractometer'
_diffrn_measurement_device_type  'XtaLAB Synergy, Dualflex, HyPix'
_diffrn_measurement_method       '\w scans'
_diffrn_orient_matrix_type
'CrysAlisPro convention (1999,Acta A55,543-557)'
_diffrn_orient_matrix_UB_11      0.0121976000
_diffrn_orient_matrix_UB_12      0.0713928000
_diffrn_orient_matrix_UB_13      -0.0636973000
_diffrn_orient_matrix_UB_21      -0.1242680000
_diffrn_orient_matrix_UB_22      -0.0204385000
_diffrn_orient_matrix_UB_23      -0.0166060000
_diffrn_orient_matrix_UB_31      -0.0322635000
_diffrn_orient_matrix_UB_32      0.1056175000
_diffrn_orient_matrix_UB_33      0.0398950000
_diffrn_radiation_monochromator  mirror
_diffrn_radiation_probe          x-ray
_diffrn_radiation_type           MoK\a
_diffrn_radiation_wavelength     0.71073
_diffrn_reflns_av_R_equivalents  0.0247
_diffrn_reflns_av_unetI/netI     0.0119
_diffrn_reflns_Laue_measured_fraction_full 1.000
_diffrn_reflns_Laue_measured_fraction_max 1.000
_diffrn_reflns_limit_h_max       6
_diffrn_reflns_limit_h_min       -6
_diffrn_reflns_limit_k_max       6
_diffrn_reflns_limit_k_min       -6
_diffrn_reflns_limit_l_max       11
_diffrn_reflns_limit_l_min       -11
_diffrn_reflns_number            1383
_diffrn_reflns_point_group_measured_fraction_full 1.000
_diffrn_reflns_point_group_measured_fraction_max 1.000
_diffrn_reflns_theta_full        25.242
_diffrn_reflns_theta_max         26.251
_diffrn_reflns_theta_min         4.317
_diffrn_source                   'micro-focus sealed X-ray tube'
_diffrn_source_type              'PhotonJet (Mo) X-ray Source'
_exptl_absorpt_coefficient_mu    9.753
_exptl_absorpt_correction_T_max  1.00000
_exptl_absorpt_correction_T_min  0.49644
_exptl_absorpt_correction_type   multi-scan
_exptl_absorpt_process_details
;
CrysAlisPro 1.171.39.44a (Rigaku Oxford Diffraction, 2018)
Empirical absorption correction using spherical harmonics,
 implemented in SCALE3 ABSPACK scaling algorithm.
;
_exptl_crystal_colour            colourless
_exptl_crystal_density_diffrn    3.437
_exptl_crystal_description       block
_exptl_crystal_F_000             276
_exptl_crystal_size_max          0.2
_exptl_crystal_size_mid          0.2
_exptl_crystal_size_min          0.2
_refine_diff_density_max         0.261
_refine_diff_density_min         -0.851
_refine_diff_density_rms         0.125
_refine_ls_abs_structure_details
;
 Flack x determined using 62 quotients [(I+)-(I-)]/[(I+)+(I-)]
 (Parsons, Flack and Wagner, Acta Cryst. B69 (2013) 249-259).
;
_refine_ls_abs_structure_Flack   -0.03(3)
_refine_ls_extinction_method     none
_refine_ls_goodness_of_fit_ref   1.302
_refine_ls_hydrogen_treatment    undef
_refine_ls_matrix_type           full
_refine_ls_number_parameters     11
_refine_ls_number_reflns         169
_refine_ls_number_restraints     0
_refine_ls_restrained_S_all      1.302
_refine_ls_R_factor_all          0.0190
_refine_ls_R_factor_gt           0.0189
_refine_ls_shift/su_max          0.000
_refine_ls_shift/su_mean         0.000
_refine_ls_structure_factor_coef Fsqd
_refine_ls_weighting_details
'w=1/[\s^2^(Fo^2^)+(0.0173P)^2^+1.5652P] where P=(Fo^2^+2Fc^2^)/3'
_refine_ls_weighting_scheme      calc
_refine_ls_wR_factor_gt          0.0495
_refine_ls_wR_factor_ref         0.0495
_reflns_Friedel_coverage         0.594
_reflns_Friedel_fraction_full    1.000
_reflns_Friedel_fraction_max     1.000
_reflns_number_gt                168
_reflns_number_total             169
_reflns_threshold_expression     'I > 2\s(I)'
_cod_data_source_file            cm0c00609_si_002.cif
_cod_data_source_block           exp_5502
_cod_original_cell_volume        278.43(5)
_cod_database_code               4003499
_shelxl_version_number           2014-3
_shelx_space_group_comment
;
The symmetry employed for this shelxl refinement is uniquely defined
by the following loop, which should always be used as a source of
symmetry information in preference to the above space-group names.
They are only intended as comments.
;
_reflns_odcompleteness_completeness 84.25
_reflns_odcompleteness_iscentric 1
_reflns_odcompleteness_theta     28.22
_olex2_refinement_description
;
1. Shared sites
{Cu01, Zn01}
2. Uiso/Uaniso restraints and constraints
Uanis(Cu01) = Uanis(Zn01)
3. Others
 Fixed Sof: Cu01(0.125) Zn01(0.125)
;
_shelx_res_file
;
TITL exp_5502_a.res in I-42m
REM Old TITL exp_5502_c.res in I-42m
REM SHELXT solution in I-42m: R1 0.034, Rweak 0.027, Alpha 0.058
REM <I/s> 0.000 for 0 systematic absences, Orientation as input
REM Flack x = -0.074 ( 0.028 ) from 62 Parsons' quotients
REM Formula found by SHELXT: Cu2 P S4
CELL 0.71073 5.498 5.498 9.211 90 90 90
ZERR 2 0.0004 0.0004 0.001 0 0 0
LATT -2
SYMM -X,-Y,+Z
SYMM +Y,-X,-Z
SYMM -Y,+X,-Z
SYMM -X,+Y,-Z
SYMM +X,-Y,-Z
SYMM -Y,-X,+Z
SYMM +Y,+X,+Z
SFAC Cu P S Zn
UNIT 2 2 8 2
EADP Cu01 Zn01
EXYZ Cu01 Zn01

L.S. 10
PLAN  20
LIST 6
fmap 2
acta
REM <olex2.extras>
REM <HklSrc "%.\\exp_5502.hkl">
REM </olex2.extras>

WGHT    0.017300    1.565200
FVAR       0.59764
CU01  1    0.500000    1.000000    0.750000    10.12500    0.01370    0.01370 =
         0.01500    0.00000    0.00000    0.00000
ZN01  4    0.500000    1.000000    0.750000    10.12500    0.01370    0.01370 =
         0.01500    0.00000    0.00000    0.00000
P002  2    0.500000    0.500000    0.500000    10.12500    0.00884    0.00884 =
         0.00502    0.00000    0.00000    0.00000
S003  3    0.274323    0.725677    0.613507    10.50000    0.00843    0.00843 =
         0.01180   -0.00324    0.00324    0.00032
HKLF 4

REM  exp_5502_a.res in I-42m
REM R1 =  0.0189 for     168 Fo > 4sig(Fo)  and  0.0190 for all     169 data
REM     11 parameters refined using      0 restraints

END

WGHT      0.0173      1.5652

REM Highest difference peak  0.261,  deepest hole -0.851,  1-sigma level  0.125
Q1    1   0.2381  0.7619  0.4945  10.50000  0.05    0.26
Q2    1   0.0000  1.0000  0.6251  10.25000  0.05    0.25
Q3    1  -0.0294  0.6689  0.5809  11.00000  0.05    0.23
Q4    1   0.3240  0.6760  0.5568  10.50000  0.05    0.23
Q5    1   0.4981  1.1785  0.7789  11.00000  0.05    0.22
Q6    1   0.5774  0.6886  0.6897  11.00000  0.05    0.22
Q7    1   0.3307  0.6693  0.6844  10.50000  0.05    0.22
Q8    1   0.6476  0.7014  0.5579  11.00000  0.05    0.21
Q9    1   0.5000  0.5000  0.3523  10.25000  0.05    0.21
Q10   1   0.3689  0.6311  0.8338  10.50000  0.05    0.19
Q11   1   0.1855  0.9865  0.6554  11.00000  0.05    0.19
Q12   1   0.2784  0.7650  0.7471  11.00000  0.05    0.18
Q13   1   0.5000  0.6924  0.5000  10.50000  0.05    0.18
Q14   1   0.5000  1.0000  0.6193  10.50000  0.05    0.18
Q15   1   0.4693  0.6535  0.7271  11.00000  0.05    0.17
Q16   1   0.0774  0.6664  0.4605  11.00000  0.05    0.17
Q17   1   0.1778  0.7581  0.7593  11.00000  0.05    0.15
Q18   1   0.6317  1.1686  0.8153  11.00000  0.05    0.15
Q19   1   0.2327  1.1757  0.6251  11.00000  0.05    0.15
Q20   1   0.4620  1.1741  0.6439  11.00000  0.05    0.15
;
_shelx_res_checksum              71702
_shelx_hkl_file
;
   0   0  -2 1618.37   22.62
   0   0  -4  273.95    5.60
   0   0   4  298.44    8.47
   0   0   4  301.10    8.57
   0   0  -4  291.11    7.99
   0   0  -6 2182.53   28.36
   0   0   6 2232.99   37.13
   0   0   6 2350.65   37.91
   0   0  -6 2308.43   36.39
   0   0  -6 2314.07   41.29
   0   0  -8 4279.17   71.00
   0   0   8 4110.22   65.00
   0   0  10    5.50    1.92
   0   0 -10    4.06    2.91
   0   0  10    3.09    2.10
   0   0  10    4.12    2.17
   1   0  -1  592.49   12.70
   0  -1   1  600.65    9.72
   0   1   1  592.44   11.62
   0   1  -1  596.81   11.03
  -1   0  -1  561.00   10.29
   0  -1  -1  601.85   10.24
   0  -1  -3   71.91    2.55
  -1   0   3   82.80    3.29
   0   1  -3   75.96    2.97
  -1   0  -3   78.03    4.55
   1   0  -3   77.38    4.67
   0  -1  -3   74.35    4.00
   0  -1  -3   75.33    3.80
   1   0  -3   79.25    3.21
  -1   0  -3   68.71    4.17
   0   1   3   84.46    3.54
   0  -1  -5   34.77    2.73
   0  -1   5   30.28    3.19
   1   0   5   33.87    2.30
   1   0   5   35.25    3.92
   0   1  -5   31.42    1.57
   1   0  -5   28.81    3.36
  -1   0  -5   36.05    3.55
  -1   0  -5   30.39    3.61
   0  -1   5   29.66    3.24
  -1   0   5   31.92    2.39
   0   1   5   35.47    3.28
   0   1   5   36.00    3.02
   0  -1  -5   31.85    2.77
  -1   0   5   33.96    3.77
   0   1   7  113.07    6.78
   1   0  -7  111.29    7.20
   0  -1  -7  112.12    5.80
   0   1   7  129.38    7.03
  -1   0   7  123.56    5.45
   0  -1   7  109.95    7.24
   1   0   7  109.34    5.37
   1   0   7  122.72    8.26
  -1   0   7  123.82    8.02
  -1   0  -7  121.43    8.45
  -1   0   7  120.29    6.82
   0  -1  -7  124.95    5.40
   0  -1   9  113.57    7.51
  -1   0   9  126.31    7.81
   1   0   9  128.97    9.46
   0   1   9  132.85    8.32
   0  -1  -9  120.88    4.39
  -1   0   9  121.01    8.99
  -1   0   9  129.32    6.02
   1   0  -9  130.87    8.74
   0  -1   9  130.46    8.82
  -1   0  -9  127.46   10.02
   1   0  -9  125.93    5.03
   0  -1   9  119.62    8.07
   0  -1  -9  119.42    9.53
   1   0   9  124.99    6.57
   0  -1  11   32.96    5.29
   1   0 -11   40.11    6.63
  -1   0  11   28.69    5.04
   0   1  11   37.22    5.37
   1   0  11   26.39    5.09
   0  -1  11   29.87    5.03
   0  -1  11   25.94    4.14
  -1   0 -11   31.07    5.97
  -1   0  11   33.10    4.68
   0  -1 -11   32.60    6.10
  -1  -1 -10 1093.09   32.57
   1  -1  10 1043.43   25.02
  -1   1  10 1053.94   24.48
   1  -1  10 1008.03   29.74
  -1   1  10 1094.93   29.63
   1  -1   8  591.69   20.17
  -1   1   8  574.29   20.27
   1   1  -8  593.24   12.39
  -1   1   8  660.57   16.08
  -1  -1  -8  685.75   22.10
  -1  -1  -6 3473.11   57.68
  -1  -1  -6 3503.24   52.88
   1   1  -6 3540.99   57.99
  -1   1   6 3653.28   49.37
   1  -1   6 3537.57   57.22
   1  -1   6 3512.09   51.96
   1  -1   4 1804.33   24.36
   1   1  -4 1845.14   33.46
  -1  -1  -4 1758.11   29.73
  -1   1   4 1850.14   34.62
  -1  -1  -4 1877.36   31.64
  -1  -1  -4 1760.50   27.83
   1   1  -2 7378.28   95.08
  -1  -1  -2 7498.39   88.97
  -1  -1  -2 7486.06   93.53
  -1  -1  -2 7518.96   97.11
   1  -1   2 7120.83   95.47
  -1   1   2 7396.09   91.89
   1  -1   2 7613.83   96.57
   1   1  -2 7219.02   96.77
  -1  -1   0 2193.69   31.50
   1  -1   0 2265.06   32.74
   1   1   0 2247.18   33.43
   1  -1  -2 7793.78   99.90
   1   1   2 7426.52   94.33
  -1   1  -4 1701.86   32.20
  -1  -1   4 1730.48   29.52
   1   1   4 1732.66   28.01
   1  -1  -4 1769.51   33.03
   1  -1  -6 3284.31   53.95
  -1  -1   6 3267.49   54.81
  -1   1  -6 3268.11   55.90
   1  -1  -8  794.49   18.57
  -1  -1   8  789.64   23.01
  -1  -1   8  791.31   22.98
   1   1   8  792.91   24.25
  -1  -1   8  807.66   19.59
  -1   1  -8  797.54   24.77
   1  -1  -8  791.31   21.55
  -1  -1  10 1193.73   30.86
   1   1  10 1234.09   33.13
  -1  -1  10 1219.51   26.36
  -1  -1  10 1175.62   31.47
   1  -1 -10 1176.17   28.73
  -1   1 -10 1202.62   34.99
   2   0   0  264.29    8.45
  -2   0   0  282.71   11.22
  -2   0   0  293.45   10.03
   0   2   0  291.17    9.69
   0  -2   0  282.71    8.79
   0  -2   0  266.77    9.38
   2   0   2 2423.57   37.08
   0  -2  -2 2417.29   39.20
   0  -2   2 2403.67   37.97
   2   0   2 2475.81   44.62
   2   0  -2 2534.61   43.24
   0   2  -2 2604.16   36.08
   0   2   2 2552.15   35.99
   0   2  -2 2515.93   38.58
   2   0  -4 8488.89  105.59
   0   2  -4 8475.38  109.47
   0  -2  -4 8519.67  109.88
   0  -2   4 8498.48  112.28
   0  -2   4 8429.40  106.33
   0  -2  -4 8149.48   99.33
   0   2  -4 8315.08  106.88
   0   2   4 8482.05  103.48
   0  -2  -4 8547.89  109.79
  -2   0  -4 8552.99  113.61
   2   0  -4 8009.71  116.06
   2   0   4 8312.44  103.58
  -2   0  -4 8709.61  113.51
  -2   0   6  192.86   10.86
   0  -2  -6  199.16    8.74
   0  -2   6  180.76    9.40
   0   2  -6  185.49    9.47
   0  -2  -6  196.04    8.20
   2   0   6  204.16    5.83
   2   0   6  204.45   12.23
  -2   0  -6  188.35    9.85
   2   0   6  168.40    4.79
   0  -2   6  187.39    9.42
   2   0  -6  207.83   11.06
   2   0   6  188.73    4.98
  -2   0  -6  219.32   11.25
  -2   0  -8  158.71   11.01
  -2   0  -8  156.29    9.81
   2   0  -8  192.48   11.44
   0  -2  -8  172.66    7.56
   0   2  -8  166.50   10.37
   0  -2   8  154.17    9.33
   0   2   8  169.29    7.56
   0  -2  -8  167.86    8.12
   0  -2  -8  174.05   10.63
  -2   0   8  166.35   10.87
   0  -2   8  156.05    9.56
   0  -2   8  167.06   10.43
   2   0   8  170.18   12.16
   0  -2  10  849.32   27.09
   0  -2 -10  932.05   29.31
   0  -2  10  883.86   25.82
   2   0  10  911.27   31.24
  -2   0 -10  890.24   29.74
   0   2  10  844.87   20.57
   0   2 -10  886.18   28.57
   2   0 -10  930.83   28.16
  -2   0  10  941.26   24.38
  -2  -1  -9   23.89    4.91
   2  -1   9   16.97    4.32
   1  -2   9   12.47    3.49
  -2   1   9   21.74    4.58
   1  -2   9   22.35    3.84
  -2   1   9   14.94    2.59
  -1  -2  -9   18.64    4.04
   1   2  -9   13.80    3.61
   2   1  -9   15.94    3.92
  -2  -1  -9   19.83    3.74
   1   2  -9   15.89    1.70
  -1   2   9   13.54    1.73
  -1  -2  -7  107.86    5.57
  -2  -1  -7  124.53    8.89
  -1  -2  -7  117.35    6.44
  -1  -2  -7  120.07    8.03
   2  -1   7  112.27    9.20
   1   2  -7  112.07    5.61
   1   2  -7  107.94    7.72
   1  -2   7  112.34    7.28
  -2   1   7  113.11    8.99
   2  -1   7  126.62    6.18
  -2  -1  -7  104.72    7.18
   2   1  -7  119.03    8.96
   1  -2   7  111.71    8.17
  -2  -1  -5  234.41   10.66
   2   1  -5  241.44   11.58
  -1  -2  -5  245.13    6.60
  -1  -2  -5  212.39    7.91
  -1  -2  -5  231.73    9.29
   2   1  -5  240.00    9.43
   1  -2   5  223.48   10.37
  -2  -1  -5  211.75    9.89
  -2   1   5  255.68   12.61
   2  -1   5  244.54   11.02
   1   2  -5  216.67    8.47
   1  -2   5  245.14    7.23
  -1  -2  -5  233.48    9.50
   2  -1   3  380.71   14.24
  -2  -1  -3  362.07   13.64
   2   1  -3  357.92   13.06
  -1  -2  -3  365.77    9.57
   1   2  -3  341.50   11.02
   1  -2   3  356.90   11.90
   2   1  -3  354.30   11.21
  -1  -2  -3  357.27   11.28
   1  -2   3  367.27   10.34
  -1  -2  -3  353.14   11.51
   1  -2   3  377.97   11.31
   1   2  -1  185.17    6.11
   1  -2   1  173.63    6.92
  -2  -1  -1  174.52    4.48
  -2  -1  -1  172.46    6.53
   1   2  -1  180.09    7.83
   1   2  -1  178.11    7.74
   2  -1   1  194.81    9.20
  -2   1   1  176.45    8.49
  -1   2  -1  173.29    8.33
  -2   1  -1  185.32    8.35
  -2  -1   1  170.66    7.57
   2   1   1  169.46    6.21
   1   2   1  188.83    8.07
   2  -1  -1  170.10    8.52
   1  -2  -1  181.97    5.77
   2   1   3  363.14   11.22
   2   1   3  352.33   11.05
   1  -2  -3  376.02   13.07
   1  -2  -3  362.93    7.47
  -1   2  -3  370.21   11.72
  -1   2  -3  366.29   12.97
   2  -1  -3  369.81   14.50
   1   2   3  376.63   12.17
  -2   1  -5  236.68   11.50
   2   1   5  242.76    8.76
  -1  -2   5  242.87   11.03
   1  -2  -5  270.23   11.64
   2   1   5  229.17    9.77
  -1  -2   5  239.01   10.18
  -2   1  -5  238.66   11.18
   2  -1  -5  229.65   11.96
   2   1   5  263.59   13.24
  -1   2  -5  237.18   10.77
   1  -2  -5  239.06   10.37
   1   2   5  242.09    9.93
   2  -1  -7  122.24    9.05
  -2   1  -7  125.73    9.32
  -1   2  -7  126.71    8.95
  -2  -1   7  128.09    9.27
  -1  -2   7  129.07    8.79
  -2   1  -7  117.10    8.58
   1  -2  -7  123.12    8.09
  -1  -2   7  123.17    7.60
   2   1   7  121.11    9.70
   2   1   7  108.17    5.47
   1  -2  -7  108.79    7.17
   2  -1  -9   23.70    4.57
   2   1   9   19.04    4.59
   1  -2  -9   17.32    2.99
  -2  -1   9   18.34    4.47
  -1  -2   9   27.67    5.29
   1  -2  -9   20.20    3.67
  -1  -2   9   17.77    3.94
  -1   2  -9   19.42    4.42
  -1  -2   9   20.87    3.71
  -2   1  -9   21.62    4.86
  -2  -2 -10   10.69    3.76
   2  -2  10   11.99    4.11
   2   2 -10   16.91    4.43
   2  -2  10   11.79    2.89
  -2   2   8 2937.48   53.19
   2  -2   8 2645.09   52.10
   2   2  -8 2680.77   42.42
   2  -2   8 2934.95   44.93
  -2  -2  -8 2941.45   50.62
  -2  -2  -8 2664.78   42.87
  -2   2   6 1267.57   18.31
  -2  -2  -6 1300.33   27.76
   2  -2   6 1439.74   31.42
  -2  -2  -6 1460.44   30.46
   2   2  -6 1351.19   28.54
  -2   2   6 1508.68   34.93
   2  -2   6 1383.29   22.37
  -2  -2  -4  292.21   10.52
  -2  -2  -4  262.77   12.05
   2   2  -4  262.81   11.42
  -2  -2  -4  267.72    5.90
   2   2  -4  274.23   11.53
   2  -2   4  292.21   11.87
   2   2  -4  300.00   13.29
   2  -2   4  284.46   12.60
  -2   2   4  288.16    7.67
   2   2  -2  969.33   23.28
   2  -2   2  962.17   22.45
  -2   2   2  972.88   18.74
   2  -2   2  979.62   23.35
  -2  -2  -2  931.57   17.87
   2   2  -2  959.02   22.76
  -2   2   0 9999.00  126.86
   2  -2   0 9627.75  129.21
  -2  -2   0 9780.59  126.38
   2   2   0 9850.63  131.12
   2   2   2  932.13   17.64
  -2   2  -2  976.59   24.05
   2  -2  -2  935.35   24.48
   2  -2  -4  300.94   13.72
  -2   2  -4  311.12   13.15
  -2  -2   4  297.41   12.68
  -2   2  -4  327.88   13.51
   2   2   4  295.73   11.64
   2  -2  -4  295.28    5.56
  -2  -2   6 1548.60   32.48
   2   2   6 1527.80   31.02
  -2  -2   6 1532.36   35.30
   2  -2  -6 1481.69   35.75
   2  -2  -8 2912.36   55.90
  -2  -2   8 2840.89   51.51
  -2  -2  10    0.51    2.51
   2  -2 -10    1.14    2.34
   0   3  -1   34.22    3.97
   0  -3  -1   30.06    4.17
  -3   0   1   36.80    4.36
  -3   0  -1   37.56    4.10
   0   3  -1   35.94    3.99
   0  -3   1   32.69    3.67
   0  -3   1   30.28    1.93
   0  -3  -1   32.15    3.38
   0   3   1   28.71    3.74
   3   0   1   32.30    3.75
   0  -3  -3  403.60   14.18
   0   3  -3  424.81   13.95
   3   0   3  388.05   16.91
   0   3   3  405.88   11.41
   0   3  -3  425.81   11.68
   3   0  -3  429.34   17.17
  -3   0  -3  368.44   15.66
   3   0   3  421.24   12.31
   0   3  -3  395.32   14.01
  -3   0  -3  415.00   13.00
   0  -3  -5  480.71   16.19
   0  -3   5  480.16   16.77
   3   0  -5  521.35   19.96
   0  -3   5  472.26   16.92
   0   3  -5  486.47   15.31
   0   3   5  486.92   11.65
   0  -3  -5  503.75   15.83
   0  -3   5  525.89   17.73
   0   3  -5  494.72   14.60
   3   0   5  477.30   11.25
  -3   0  -5  426.30   16.67
   3   0   5  515.37   21.41
   3   0  -5  474.75   13.09
   3   0   7   17.43    2.22
   3   0  -7   20.99    4.57
   0  -3  -7   20.72    3.12
   0  -3  -7   18.11    3.40
   3   0   7   14.08    3.43
   3   0   7   16.83    4.75
   0   3  -7   17.92    3.61
  -3   0   7   21.54    4.62
   0  -3   7   17.50    3.61
  -3   0  -7   14.79    3.57
   0  -3   7   19.86    3.76
   0   3   7   16.79    1.73
   0  -3  -9   13.69    3.02
   0  -3   9   18.44    4.51
  -3   0  -9   20.17    4.95
   0   3  -9   16.41    3.99
   0  -3  -9   20.85    4.27
   3   0  -9   17.27    4.48
   0  -3  -9   16.68    2.71
   3   0   9   15.32    5.03
   1  -3  10  790.79   27.62
  -3  -1 -10  818.96   28.11
   3  -1  10  797.73   31.08
   3   1 -10  841.87   29.42
  -1  -3 -10  809.91   26.03
   1   3 -10  764.81   25.76
  -3   1  10  826.35   20.09
  -1  -3  -8  591.36   18.08
   3  -1   8  611.16   25.91
  -3  -1  -8  540.55   19.48
   3  -1   8  611.58   13.91
  -1  -3  -8  637.66   20.16
  -3  -1  -8  633.12   22.31
   3  -1   8  542.46   13.67
   1  -3   8  610.74   20.22
   1   3  -8  595.40   20.24
   3   1  -8  627.12   23.69
   1   3  -8  601.92   15.84
   1  -3   6 2093.87   34.38
  -1  -3  -6 2056.32   39.86
  -1  -3  -6 2131.52   34.03
  -1  -3  -6 2030.37   31.56
  -3   1   6 2137.96   47.49
  -1  -3  -6 2139.22   37.96
   3  -1   6 2100.20   43.08
   1   3  -6 2076.99   39.12
   3   1  -6 2110.16   38.15
   3  -1   6 2061.50   35.27
   1  -3   6 2080.06   42.86
   1   3  -6 1956.69   36.84
   3   1  -6 2055.70   45.63
  -3  -1  -6 1910.62   41.25
   3  -1   4  796.93   26.50
  -1  -3  -4  793.90   21.36
  -1  -3  -4  756.43   18.90
   3  -1   4  832.52   23.02
  -1  -3  -4  786.64   16.66
  -3  -1  -4  708.83   22.99
   1   3  -4  776.50   17.83
   1  -3   4  775.86   19.20
   3  -1   4  774.27   19.73
   3   1  -4  751.08   19.67
   1   3  -4  764.59   20.02
   1  -3   4  843.85   22.20
   3   1  -4  804.27   24.29
  -3   1   4  775.91   21.54
   1   3  -2 4288.81   64.98
   3  -1   2 4283.73   72.00
  -1  -3  -2 4261.36   65.78
   1   3  -2 4263.80   66.37
  -3  -1  -2 4079.23   61.49
  -1  -3  -2 4198.22   53.79
   3  -1   2 4053.27   64.86
   1  -3   2 4355.33   60.83
   1   3  -2 4244.84   55.06
   1   3  -2 4320.36   62.03
   1  -3   2 4273.67   63.75
  -3  -1  -2 4108.30   71.23
  -3  -1  -2 4328.61   57.58
   3  -1   0 1431.71   33.03
  -3  -1   0 1502.02   29.96
   1   3   0 1443.20   31.07
  -1  -3   0 1516.25   26.62
   1  -3   0 1523.15   26.86
   1  -3   0 1530.64   34.21
   1  -3   0 1520.62   29.00
   3   1   0 1521.96   30.12
  -3   1  -2 3985.48   62.86
   1  -3  -2 3993.91   52.94
   3  -1  -2 3948.41   67.42
   1   3   2 3990.84   60.02
   3   1   2 3976.53   56.69
  -3  -1   2 3923.96   63.85
   1  -3  -2 3941.49   56.65
  -3  -1   4  920.53   25.55
   3   1   4  865.76   22.07
   1  -3  -4  922.95   24.69
   3   1   4  884.03   14.72
   1  -3  -4  906.78   24.28
   1   3   4  861.32   20.46
   1   3   4  943.33   24.39
  -3   1  -4  923.05   23.80
   3   1   4  941.35   22.53
   3  -1  -4  920.07   27.42
  -3  -1   6 2386.55   49.56
   3   1   6 2404.64   40.85
   1  -3  -6 2299.96   45.92
  -1   3  -6 2372.00   45.44
   3   1   6 2365.88   44.37
  -1  -3   6 2369.36   44.99
   1   3   6 2359.02   40.40
   1  -3  -6 2428.81   45.95
   3   1   6 2554.56   54.94
  -1  -3   6 2336.68   46.91
  -3   1  -6 2207.87   46.78
   3  -1  -6 2526.05   52.40
  -1   3  -8  516.52   20.03
   3  -1  -8  528.79   22.14
   3   1   8  494.59   13.50
  -1  -3   8  492.63   18.06
   1   3   8  514.42   14.59
   3   1   8  536.85   23.51
   1  -3  -8  502.69   17.80
   1  -3  -8  518.65   18.27
  -3   1 -10  712.33   28.05
  -1   3 -10  721.45   26.28
   3  -1 -10  710.03   26.39
   3   1  10  727.79   28.75
   1  -3 -10  668.16   20.07
   1   3  10  695.75   15.60
   2   3  -9  232.04   10.34
  -3   2   9  176.58    6.32
   3   2  -9  217.80   11.25
  -3   2   9  201.50    6.13
  -2  -3  -9  241.47   13.15
   3  -2   9  214.87   15.23
  -3  -2  -9  221.73   13.35
   2   3  -9  223.97   12.89
   3  -2   9  231.07   10.18
   2  -3   9  226.24   12.13
   2  -3   9  211.30   13.93
   2   3  -7  174.39    9.62
   2  -3   7  180.18    7.09
   3  -2   7  175.79    6.98
  -2  -3  -7  171.09    8.52
  -2  -3  -7  182.90   10.01
  -3   2   7  172.56    7.57
   3   2  -7  173.90   12.45
   2  -3   7  176.57   11.65
  -3   2   7  185.54   13.05
  -3  -2  -7  164.99   10.14
   2   3  -5   40.00    4.76
  -3   2   5   39.91    4.16
  -2  -3  -5   40.56    4.83
  -2  -3  -5   39.66    4.07
  -2  -3  -5   41.22    2.55
   3   2  -5   40.83    5.83
   3  -2   5   45.62    5.54
  -3  -2  -5   39.25    5.42
   3  -2   5   44.41    6.06
   2  -3   5   39.06    4.80
  -3   2   5   36.43    5.74
   3   2  -5   38.42    4.63
   2  -3   5   42.06    5.26
  -3  -2  -3   73.93    4.44
   2   3  -3   78.48    6.64
   3  -2   3   69.23    6.42
   3  -2   3   77.54    7.45
   2  -3   3   76.30    6.12
  -3   2   3   80.71    6.09
  -2  -3  -3   66.69    4.26
  -2  -3  -3   68.15    6.24
   2   3  -3   67.28    6.19
   3   2  -3   78.05    6.42
   2  -3   3   66.04    5.96
  -3  -2  -3   66.49    6.93
   3   2  -1  540.24   17.28
   2   3  -1  532.95   18.07
  -2   3   1  523.98   14.06
  -2  -3  -1  494.33   10.29
  -3  -2  -1  495.55   14.60
   3  -2   1  497.78   17.79
  -2  -3  -1  506.94   14.91
   2  -3   1  532.34   19.64
   2  -3   1  518.95   15.90
   2   3  -1  530.72   17.65
   3  -2   1  532.13   18.95
   2   3   1  543.07   18.15
  -3   2  -1  471.93   16.97
   3   2   1  529.15   15.23
   3  -2  -1  521.72   18.84
   2  -3  -1  557.40   15.49
   2   3   1  519.44    9.13
  -2  -3   1  504.65   15.88
   2  -3  -1  522.81   20.76
   3  -2  -1  528.16   17.40
  -3  -2   1  517.70   16.37
   2   3   3   74.65    6.53
   3   2   3   82.80    6.69
   2  -3  -3   82.94    4.60
   3  -2  -3   71.58    7.10
   2  -3  -3   65.30    6.72
  -2   3  -3   83.27    7.24
  -2  -3   3   76.72    6.50
  -3  -2   3   68.39    6.29
  -3   2  -3   76.85    6.79
   3  -2  -5   38.83    5.71
   3   2   5   49.86    5.19
  -3   2  -5   46.06    5.70
   3  -2  -5   36.48    1.89
   2  -3  -5   37.20    5.32
   3   2   5   45.93    4.57
  -2   3  -5   40.50    5.43
  -3   2  -5   36.05    5.13
  -3  -2   5   43.53    5.68
  -2  -3   5   37.02    5.10
   2   3   5   35.34    4.75
   2  -3  -7  182.78   11.72
   2   3   7  197.09   11.01
  -2  -3   7  185.93   10.89
   2  -3  -7  175.30   11.19
   3  -2  -7  185.90   12.75
   3   2   7  175.38    9.51
  -2   3  -9  232.19   14.42
   2  -3  -9  223.28   12.74
   3  -2  -9  234.86   14.57
   2  -3  -9  231.81   13.39
   3  -3   8  182.50    6.60
   3   3  -8  180.35   10.98
   3   3  -6 1459.81   35.36
  -3  -3  -6 1448.75   35.02
   3  -3   6 1375.93   37.48
   3  -3   6 1462.06   30.30
   3   3  -4  943.44   27.44
   3   3  -4  953.47   26.99
   3  -3   4  962.37   26.52
   3  -3   4  918.72   27.62
  -3   3   4  923.85   18.16
  -3  -3  -4  924.48   18.42
  -3  -3  -4  993.06   29.09
   3   3  -2 2518.37   50.47
   3  -3   2 2515.00   48.43
   3  -3   2 2493.38   49.57
   3   3  -2 2483.13   49.58
  -3  -3  -2 2554.71   41.44
   3   3  -2 2458.33   34.88
   3  -3   0  463.06   17.47
   3   3   0  468.01   18.41
  -3  -3   0  433.33   14.78
   3  -3   0  420.02   19.06
  -3   3   0  424.32   15.51
   3   3   0  447.97   17.73
  -3   3  -2 2761.72   51.44
   3   3   2 2712.75   41.16
  -3   3  -2 2816.05   55.92
  -3  -3   2 2810.68   50.84
   3  -3  -2 2723.32   48.18
   3  -3  -2 2773.18   59.86
   3   3   4  906.99   26.34
   3  -3  -4  875.97   28.20
  -3   3  -4  879.45   27.23
  -3  -3   4  895.57   25.83
  -3   3  -4  850.40   26.36
   3  -3  -6 1261.28   36.13
   3   3   6 1292.82   32.29
   3   3   8  295.57   14.01
   3  -3  -8  282.67   16.04
  -4   0   0 5934.91   92.17
   0  -4   0 5955.44   72.45
   4   0   0 6003.17   85.34
   0  -4   0 5861.90   90.12
   0  -4   0 5910.67   87.51
   0   4   0 6006.13   91.80
   4   0   0 6114.33   92.40
   0  -4  -2  545.33   18.70
   0  -4   2  547.80   17.87
   0  -4  -2  560.91   22.49
   0  -4   2  556.93   18.44
  -4   0   2  593.63   20.60
  -4   0  -2  586.07   23.04
   0   4  -2  582.95   19.69
  -4   0   2  568.74   21.36
   0   4  -2  574.09   19.26
   4   0   2  561.41   17.89
   0  -4  -4  242.50   12.41
   0  -4   4  249.87   11.44
   0  -4  -4  205.38    5.60
  -4   0   4  269.32   14.59
   4   0   4  245.59   12.63
   0  -4   4  238.46   11.74
  -4   0  -4  243.36   11.01
  -4   0  -4  225.67   13.63
   0  -4   4  226.92   12.05
   0  -4  -4  197.67    6.79
   4   0  -4  255.42   15.06
   0   4  -4  242.52   12.36
   0   4  -4  244.36   11.76
   4   0   4  244.83    9.91
  -4   0  -6  969.53   26.31
   0  -4  -6  959.30   27.16
   0   4  -6  960.62   24.79
   0  -4  -6  976.02   26.25
   0  -4   6 1039.35   28.97
   0   4  -6  936.92   27.83
   4   0  -6  957.05   21.92
   4   0  -6 1032.63   32.93
   4   0   6 1001.56   34.43
   4   0   6  932.21   17.83
   0  -4  -8 2021.28   38.14
   4   0   8 1928.58   33.84
   0  -4  -8 1964.02   42.67
   0   4  -8 1998.12   43.11
   4   0  -8 1985.32   50.69
   0  -4  -8 1990.75   41.08
   4   0   8 2090.45   55.33
   4  -1   9  100.07   11.95
   4  -1   9   61.65    3.29
   1   4  -9   84.14    8.06
  -1  -4  -9   83.74    7.77
   4   1  -9   87.11   10.04
   4  -1   7  254.61   17.63
   4   1  -7  242.29   15.48
  -1  -4  -7  242.39   12.86
  -1  -4  -7  250.20    9.78
   4  -1   7  213.78    9.20
   1   4  -7  255.52   12.27
  -1  -4  -7  256.82   11.28
   1  -4   7  227.63   13.49
   4   1  -7  257.28   11.61
   1   4  -7  230.09   11.25
   1  -4   5   85.68    6.59
  -1  -4  -5   96.05    7.95
  -1  -4  -5   95.83    5.81
   4   1  -5   94.71    9.42
   4  -1   5   90.02    6.62
   1   4  -5   90.56    6.13
  -1  -4  -5   97.93    5.62
  -4  -1  -5   82.95    8.33
   1   4  -5   93.26    7.60
  -4  -1  -5   92.05    6.50
   1  -4   5  101.64    8.21
   1  -4   5   88.76    7.77
   4   1  -5   86.75    6.69
  -4   1   5   87.31    7.74
   4  -1   5   90.59    9.78
   1   4  -5  101.07    7.52
   1  -4   3  266.68   12.26
  -1  -4  -3  286.12   13.38
  -4  -1  -3  291.81   16.36
   4  -1   3  278.82   12.79
   4  -1   3  283.42   14.21
  -1  -4  -3  269.96    7.01
   1   4  -3  298.50    8.67
   1  -4   3  292.80   10.59
  -4   1   3  313.96   16.12
  -4  -1  -3  293.04   11.01
  -4  -1  -3  279.32   10.11
   4  -1   3  318.03   16.91
   1   4  -3  290.53   12.47
   1  -4   3  278.96   13.30
   1  -4   3  302.72   13.15
  -4   1   3  285.14   14.23
   1   4  -3  309.23   13.73
   1  -4   1  339.14   14.07
  -1  -4  -1  322.13   13.85
  -4   1   1  353.21   17.04
   4  -1   1  320.53   14.46
  -4  -1  -1  339.58   13.54
   1  -4   1  341.54   10.68
  -4   1   1  378.53   16.74
  -1  -4  -1  327.62   12.79
   1  -4   1  339.44   16.06
   4  -1   1  360.55   14.78
   1  -4   1  356.14   14.05
   4   1  -1  346.78   10.58
   4   1  -1  335.73   15.00
   1  -4   1  338.45   12.88
  -4  -1  -1  318.48   16.74
   1   4  -1  306.69   14.21
  -4  -1   1  349.53   14.78
   1  -4  -1  336.26   11.01
  -4   1  -1  337.89   16.86
   1  -4  -1  356.55   17.70
   1   4   1  324.71   13.34
   1  -4  -1  346.15   12.80
  -1  -4   1  317.06   14.27
   4   1   1  344.25   13.52
   4  -1  -1  320.72   14.61
   1   4   1  318.93   14.82
   1  -4  -1  349.45   15.10
   4  -1  -3  282.88   15.40
   1   4   3  297.53   12.06
  -4  -1   3  264.10   14.00
  -1  -4   3  281.63   12.92
   4   1   3  274.38   12.56
   1  -4  -3  274.79    7.70
  -1  -4   3  297.87   13.97
  -1   4  -3  288.07   14.33
   4   1   3  283.22   10.35
  -4   1  -3  270.28   14.89
  -1  -4   3  272.94   13.31
  -4   1  -3  315.53   13.96
   1  -4  -3  292.97   10.86
   1  -4  -3  278.01   13.64
  -4  -1   5  103.86    9.28
   4   1   5   89.86    3.71
   4   1   5   91.59    7.22
  -4   1  -5   80.97    8.24
   4   1   5   89.84    7.47
   1  -4  -5  115.84    9.20
  -4   1  -5   97.56    8.03
  -1   4  -5   85.95    8.19
  -1  -4   5  100.91    8.18
   1   4   5   94.50    6.38
   4  -1  -5   90.43    5.63
   4  -1  -5   99.24    9.81
   1  -4  -5   86.15    7.79
   4   1   7  244.05   11.17
   1  -4  -7  255.63   13.61
  -1   4  -7  239.82   13.12
  -1  -4   7  258.52   15.16
   1   4   7  233.67    9.78
   4  -1  -7  233.98   15.51
  -1   4  -9   83.76    8.53
  -1  -4   9   96.68   10.81
   1   4   9   78.06    4.93
   4  -1  -9   91.87   10.22
   1  -4  -9   81.59    7.37
   4   1   9   82.86    5.47
  -2  -4  -8  114.87    8.38
   2   4  -8  126.30    9.05
   4  -2   8  108.58    7.50
   4   2  -8  124.17   11.88
   2  -4   8  104.50   10.08
   4  -2   8  107.90    5.86
   2   4  -8  115.66    8.37
   2  -4   6  104.08    9.12
   2   4  -6   91.46    7.82
   2  -4   6  107.91    7.35
   4  -2   6   94.46   10.26
  -2  -4  -6   99.44    6.54
  -2  -4  -6  109.78    6.03
   2   4  -6  113.44    7.43
  -2  -4  -6  105.79    7.33
   4  -2   6   95.26    7.45
   2  -4   6   97.77    7.85
  -4  -2  -6   94.77    9.15
   4   2  -6  113.38   10.66
  -2  -4  -6  106.72    4.89
   4   2  -6   99.97    8.06
   2   4  -4 3439.33   62.61
   4  -2   4 3519.61   70.05
   2  -4   4 3498.90   62.86
  -4  -2  -4 3496.60   69.15
  -2  -4  -4 3479.22   61.79
  -4   2   4 3648.52   61.95
   4  -2   4 3497.93   64.73
   2  -4   4 3496.91   58.52
  -4  -2  -4 3431.92   51.55
   4  -2   4 3400.00   60.94
   2   4  -4 3597.22   52.22
  -4  -2  -4 3449.30   50.64
   2   4  -4 3530.67   57.84
   4   2  -4 3502.65   61.91
  -2  -4  -4 3552.22   62.22
  -2  -4  -4 3469.97   53.58
   2  -4   4 3602.45   59.92
   2   4  -2  813.23   25.58
  -4  -2  -2  864.44   21.67
  -2  -4  -2  742.35   24.07
   2  -4   2  872.98   22.42
   4  -2   2  833.27   25.63
   2   4  -2  843.59   13.72
   2   4  -2  877.62   20.94
  -4   2   2  868.43   25.68
  -2  -4  -2  862.87   22.21
  -2  -4  -2  824.05   19.07
   4   2  -2  827.25   25.29
   2   4  -2  870.24   26.31
   4   2  -2  871.96   26.34
  -4  -2  -2  876.82   28.82
   4  -2   2  838.33   28.12
   2  -4   2  838.33   24.22
   2  -4   2  837.69   23.72
   2   4   0  248.75   13.45
  -4  -2   0  253.89   11.89
   4  -2   0  253.45   13.70
  -2  -4   0  260.74   11.93
   4  -2   0  256.01   13.90
   2  -4   0  268.66   15.67
   4   2   0  266.26   12.25
   2  -4   0  255.47   11.07
   4  -2   0  310.89   15.69
  -4   2   0  240.37   13.49
   2  -4   0  247.27   12.81
  -4   2  -2  779.98   26.11
   4  -2  -2  925.38   28.66
   4   2   2  895.45   26.87
   2  -4  -2  924.37   21.01
   4   2   2  884.40   22.63
   4  -2  -2  847.68   28.69
   2  -4  -2  913.25   32.52
   4   2   2  920.79   22.10
   2  -4  -2  947.55   27.47
  -2  -4   2  745.95   23.58
   2  -4  -2  921.75   21.86
   2   4   2  879.70   24.93
   2  -4  -2  877.41   26.45
  -4  -2   2  930.28   25.86
   4  -2  -4 3451.81   68.75
   4   2   4 3623.77   63.79
   4   2   4 3417.11   58.16
   2  -4  -4 3821.23   69.29
  -4   2  -4 3688.84   65.77
  -2  -4   4 3626.04   64.01
   2   4   4 3470.75   61.20
   2  -4  -4 3516.44   52.11
   2  -4  -4 3605.81   66.04
   2   4   4 3688.54   66.29
  -4  -2   4 3607.00   65.30
   4   2   6   78.98    7.23
   2  -4  -6   81.37    8.37
   4   2   6   67.91    6.44
   4  -2  -6   59.69    2.77
   2   4   6   67.33    6.31
   2   4   6   67.40    7.36
   4  -2  -6   62.32    7.99
   2  -4  -8  130.60   10.64
   2   4   8  142.72    8.96
   4  -2  -8  133.98   11.94
   4   2   8  133.79    8.73
   3  -4   7  115.71    7.63
   3   4  -7  146.22   10.63
   4   3  -7  111.68    9.81
   4  -3   7  124.08   12.06
  -4   3   7  109.77    4.03
   3  -4   7  112.05   10.73
   3   4  -7  140.37    8.98
   4  -3   7  118.28    8.50
   4  -3   7  133.53    8.24
  -3  -4  -5  291.93   15.58
   3   4  -5  254.27   14.66
   3   4  -5  254.16   14.68
   4   3  -5  283.53   15.67
   4  -3   5  274.54   16.82
  -4  -3  -5  243.03   15.44
  -4  -3  -5  233.64    6.78
   4  -3   5  249.50   12.83
   3  -4   5  252.90   14.87
   4   3  -5  257.46   14.10
  -3  -4  -5  275.33    8.92
   3  -4   5  274.05   12.99
  -4  -3  -3  335.56   11.98
   4  -3   3  329.88   17.52
   3   4  -3  322.51   16.61
  -4   3   3  328.73   13.21
   4   3  -3  349.87   17.46
   3  -4   3  352.09   15.55
   4  -3   3  316.72   15.12
   3  -4   3  320.57   15.81
   3   4  -3  313.19   10.34
  -3  -4  -3  280.25    7.74
  -3  -4  -3  300.35   15.97
   3   4  -3  363.72   17.03
  -3  -4  -3  328.94   11.87
   4   3  -3  339.77   16.40
  -4  -3  -3  321.30   17.49
   3  -4   3  296.45   14.18
   3   4  -1  134.77   10.65
   4   3  -1  117.19    9.89
  -4   3   1  122.22    8.71
   3  -4   1  114.12    8.80
   4  -3   1  122.70   10.01
   3  -4   1  122.17   11.06
   4  -3   1  129.76   10.81
  -3  -4  -1  124.54    7.98
   3   4  -1  150.51   10.67
   4   3  -1  123.70   10.12
   3  -4   1  113.16    9.07
  -4  -3  -1  122.20    7.95
   4  -3   1  121.59   10.07
   3  -4  -1  131.40    8.88
   3   4   1  138.09   10.60
  -4   3  -1  113.41    9.11
   3  -4  -1  153.49   11.24
   4  -3  -1  131.47   11.10
   3  -4  -1  118.47   11.26
   4  -3  -1  119.25    9.40
  -3  -4   1  119.53    8.64
  -4  -3   1  117.94    8.57
   3   4   3  316.90   16.32
   4   3   3  351.61   16.94
   4  -3  -3  316.42   17.41
   3  -4  -3  383.13   18.96
   4   3   3  313.53   11.59
   3  -4  -3  330.53   20.03
   3  -4  -3  315.11   11.62
   3   4   3  314.65   15.71
   4  -3  -3  286.34   17.77
  -4   3  -3  336.69   16.69
   4   3   5  284.69   15.22
   4  -3  -5  266.15   16.22
   3  -4  -5  288.49   16.79
   4   3   5  252.66   11.18
   3  -4  -5  283.18    7.47
   3   4   5  230.70   13.75
   3   4   5  243.57   14.36
   4   3   7  127.56    9.75
   3  -4  -7  149.23   12.18
   3   4   7  155.93   11.14
   3   4   7  146.85   10.98
   4  -3  -7  133.20   11.85
   4   4  -6  473.22   21.31
   4  -4   6  445.77   22.37
   4   4  -6  408.67   19.58
   4  -4   6  419.72   17.25
   4   4  -4  135.81   11.61
   4  -4   4  128.48   11.51
   4  -4   4  131.57   10.25
   4   4  -4  147.40    6.26
   4   4  -4  147.45   11.59
   4  -4   4  116.41    9.40
   4  -4   2  318.94   17.11
   4   4  -2  332.83   18.14
  -4   4   2  319.93   13.31
   4  -4   2  330.87   16.78
   4   4  -2  326.11   17.41
  -4  -4  -2  296.31   12.80
   4   4   0 2591.10   57.77
   4   4   0 2499.12   39.50
  -4   4   0 2553.91   50.77
   4   4   0 2693.20   56.97
  -4  -4   0 2729.99   50.43
   4  -4   0 2595.73   53.59
   4   4   2  272.64   16.13
   4  -4  -2  258.92   16.09
   4   4   2  243.10    8.41
   4   4   2  220.30   14.48
   4   4   4  153.79   12.14
   4  -4  -4  168.07   13.43
   4   4   4  148.27   12.04
   4  -4  -6  526.07   24.49
   4   4   6  513.61   21.76
   0  -5  -1  543.10   20.40
   0  -5   1  531.83   19.75
   0  -5  -1  515.73   16.31
  -5   0   1  624.30   22.80
   0  -5   1  530.72   17.77
  -5   0  -1  634.09   21.47
   5   0  -1  572.12   18.32
   0  -5  -1  560.44   22.03
   0  -5   1  549.24   19.85
   0  -5  -1  553.35   19.57
   5   0  -1  578.79   22.55
   5   0   1  594.95   20.93
  -5   0   1  554.78   23.72
   0  -5   3   24.42    4.33
   0  -5   3   29.09    4.81
   0  -5  -3   32.51    3.28
   0  -5  -3   25.14    2.10
   5   0   3   22.93    3.91
   0   5  -3   26.49    5.06
   0  -5  -3   28.43    5.81
  -5   0   3   27.23    5.31
   0  -5   5   84.11    7.50
  -5   0  -5   91.57    7.59
   0  -5  -5   86.92    5.29
   0  -5  -5   87.57    8.34
   0  -5   5   87.58    8.19
  -5   0   5   89.31    9.31
   5   0  -5   96.27   10.37
   5   0  -5   90.84    7.18
   5   0   5   93.66    6.26
   0  -5   7  127.23   10.67
   5   0   7  139.18    9.13
   0  -5  -7  146.00   10.07
   0  -5  -7  143.03    8.45
   5   0   7  120.67    3.95
   5   0   7  156.35   14.68
   5   0  -7  147.33    8.32
   5   0  -7  130.81   12.62
   5  -1   6 1039.54   25.15
   1  -5   6 1006.28   27.01
   1   5  -6 1063.02   25.22
  -1  -5  -6 1092.55   22.82
  -1  -5  -6 1111.98   28.89
   1  -5   6 1034.07   30.92
   5   1  -6 1083.76   36.71
   5   1  -6 1038.74   27.70
  -5   1   6 1097.48   32.19
   1   5  -6 1046.10   29.04
  -5   1   4  548.05   22.17
   1  -5   4  525.63   19.55
   5  -1   4  524.20   18.77
  -5  -1  -4  550.27   16.79
   1   5  -4  520.03   20.10
   1  -5   4  511.02   19.64
   5  -1   4  550.53   25.47
   5   1  -4  526.99   19.66
   1   5  -4  513.51   20.12
   1  -5   2 1667.23   39.08
   5  -1   2 1656.29   39.67
  -5   1   2 1753.11   43.99
   1  -5   2 1701.83   30.27
  -5  -1  -2 1860.60   38.66
  -5   1   2 1832.01   43.93
  -1  -5  -2 1659.80   38.63
   1  -5   2 1767.11   38.31
   1  -5   2 1675.65   38.97
   5   1  -2 1725.83   42.99
   1   5  -2 1635.43   40.36
   1  -5   0  342.82   16.06
   5  -1   0  374.08   17.65
  -5  -1   0  362.49   16.19
   1  -5   0  354.72   10.70
  -5   1   0  381.54   19.43
   1  -5   0  395.26   14.48
   5  -1   0  370.39   16.13
   1  -5   0  365.99   18.93
   1  -5   0  349.85   15.05
   5   1   0  374.34   16.70
   1   5   0  363.68   17.31
   1  -5  -2 1801.97   31.98
  -1  -5   2 1734.68   40.13
  -5  -1   2 1900.27   43.45
   5   1   2 1753.39   40.34
   5  -1  -2 1836.17   43.39
   1  -5  -2 1756.63   48.69
   1   5   2 1761.90   38.70
  -5  -1   2 1932.53   48.28
   5   1   2 1889.69   38.36
   1  -5  -2 1910.58   37.67
   1   5   2 1803.09   43.53
   1  -5  -4  487.75   20.22
  -5   1  -4  490.79   19.63
   5   1   4  507.13   15.03
   1   5   4  450.57   16.33
   5  -1  -4  481.30   22.39
   5   1   6 1005.77   28.16
   1  -5  -6  956.40   30.72
   1   5   6  885.76   23.07
  -1  -5   6  935.21   29.97
   5  -1  -6  921.29   21.56
   5  -1  -6  953.66   34.22
   2   5  -7   22.57    4.47
   2   5  -7   28.32    4.31
   5   2  -7   31.00    6.76
   5  -2   7   22.86    4.18
   2  -5   7   22.37    5.21
   5   2  -7   39.59    5.71
   5  -2   7   28.59    6.78
   2  -5   5  412.98   19.00
   2  -5   5  435.65   17.53
   5  -2   5  431.66   17.81
  -5   2   5  442.61   18.33
   2   5  -5  415.47   12.76
   2  -5   5  430.91   16.41
   2   5  -5  445.24   17.53
   5   2  -5  410.74   17.95
   5  -2   5  406.71   22.17
   2   5  -5  412.36   18.32
   2  -5   3  327.45   15.45
   2  -5   3  343.87   16.08
   5  -2   3  294.02   15.29
  -5  -2  -3  340.65   13.35
   2  -5   3  310.09   12.72
  -5   2   3  336.90   16.49
   5   2  -3  256.91    9.56
   2   5  -3  332.31   14.03
  -2  -5  -3  259.35   12.08
  -2  -5  -3  312.78   12.88
   5   2  -3  315.59   17.05
   5  -2   3  322.61   18.77
   5   2  -3  297.57   15.80
   2   5  -3  345.02   17.10
   5  -2   1   72.45    7.89
  -5  -2  -1   76.55    7.27
   2  -5   1   78.96    6.29
  -2  -5  -1   68.50    6.58
  -5   2   1   83.62    8.66
   5   2  -1   87.74    8.13
   2  -5   1   77.83    7.54
   2  -5   1   77.93    6.92
   2   5  -1   72.61    7.92
  -5  -2   1   72.62    7.46
   5  -2  -1   82.77    8.80
   2  -5  -1   80.13    6.16
  -2  -5   1   72.75    7.42
   5  -2  -1   71.24    8.07
   2  -5  -1   75.93    9.48
   5   2   1   74.47    6.77
   2   5   1   80.32    7.70
   2  -5  -1   80.74    6.78
  -5   2  -1   74.61    8.54
   2   5   1   79.83    8.34
   5  -2  -3  331.15   18.12
   5   2   3  354.21   17.57
   5   2   3  319.74   14.40
   2  -5  -3  322.41   17.09
   5  -2  -3  293.30   17.14
   5   2   3  309.31   12.31
   2  -5  -3  296.11   19.42
   2   5   3  311.98   15.01
   2  -5  -3  336.89   12.88
   2   5   3  317.17   17.23
   2  -5  -3  309.38   10.28
   5   2   5  480.11   20.18
   2  -5  -5  467.82   21.52
   2   5   5  449.61   17.73
   2   5   5  432.03   20.46
   5  -2  -5  425.70   21.75
   5   2   7   30.18    4.99
   5  -2  -7   28.70    6.55
   2  -5  -7   24.17    5.34
   2   5   7   28.87    4.54
   3   5  -6  796.39   27.79
   5  -3   6  707.35   30.41
   3  -5   6  750.58   24.10
   5   3  -6  815.44   30.03
   5  -3   6  765.34   25.08
   3   5  -6  752.61   19.93
   3  -5   6  756.23   28.82
   5   3  -6  782.10   26.89
   3   5  -4   78.95    8.65
   5   3  -4   77.83    9.17
   5  -3   4   86.08    8.45
   3   5  -4   74.13    4.35
   5   3  -4   66.96    8.67
   3   5  -4   69.29    5.76
   3  -5   4   76.79    8.61
   5   3  -4   75.43    8.40
  -3  -5  -4   81.20    8.92
  -5   3   4   72.01    6.86
   5  -3   4   79.05    9.58
   3   5  -2 1250.26   37.05
  -5   3   2 1175.90   31.91
  -5  -3  -2 1214.88   29.75
   5   3  -2 1241.40   37.55
   3  -5   2 1340.98   33.16
   5  -3   2 1124.21   33.75
   3  -5   2 1208.46   33.96
   5   3  -2 1232.21   35.78
  -3  -5  -2 1135.76   28.40
   3   5  -2 1239.11   36.24
   5   3  -2 1262.20   36.59
   5  -3   2 1210.16   37.56
   3   5   0  695.32   26.62
  -5  -3   0  666.48   22.14
   5   3   0  643.05   25.97
   5  -3   0  643.47   25.38
  -5   3   0  601.18   23.49
   3  -5   0  692.75   22.45
   5  -3   0  648.14   26.32
   3  -5   0  688.19   29.04
   5   3   0  675.19   27.26
   5   3   2 1104.24   34.31
   5   3   2 1027.95   26.01
   3  -5  -2 1138.70   35.14
   5  -3  -2 1118.10   36.05
   3  -5  -2 1113.89   38.86
   3  -5  -2 1045.66   26.67
   3   5   2 1090.35   32.34
   3  -5  -2 1085.83   26.27
   5  -3  -4  129.02   12.12
   5   3   4  128.83   11.12
   3  -5  -4  142.51   12.46
   5   3   4  110.04    7.95
   5  -3  -4  109.31   11.59
   3  -5  -4  112.39   12.71
   3   5   4  139.07   10.77
   3   5   4  130.98   11.43
   5  -3  -6  837.80   31.90
   5   3   6  901.44   29.61
   3   5   6  829.00   27.47
   3   5   6  851.94   30.08
  -5   4   3   66.19    6.58
   4   5  -3   75.05    9.41
   5   4  -3   85.82   10.05
   4  -5   3   93.13   10.11
   5  -4   3   66.63    8.27
   4   5  -3   59.60    3.72
   4  -5   3   75.32    8.82
   4   5  -3   62.10    8.50
   5   4  -3   94.34   10.04
   5  -4   3   70.87    9.19
  -5   4   1  276.43   14.55
   4   5  -1  308.31   18.53
   4  -5   1  287.19   16.11
   5   4  -1  275.10   17.68
   5  -4   1  295.29   17.17
   4   5  -1  286.47   17.36
   5   4  -1  291.82   17.81
   5  -4   1  270.68   16.60
   5   4   1  290.88   11.07
   4  -5  -1  317.99   18.85
   5  -4  -1  291.39   18.63
   4  -5  -1  283.39   19.19
   4   5   1  292.30   17.19
   5   4   1  286.87   18.06
   4  -5  -1  305.45   15.03
   4   5   3   77.45    9.37
   5   4   3   86.46    9.89
   5  -4  -3   89.47   10.50
   4  -5  -3   67.79    9.04
   5   4   3   77.68    5.80
   5  -4  -3   66.00    9.56
   4  -5  -3   84.99   11.13
   4   5   3   76.33    8.96
   5   4   3   78.27    9.97
   0  -6   0  193.36   10.93
   6   0   0  184.80   12.93
   0  -6  -2  400.85   13.97
   6   0  -2  365.11   15.41
   0  -6  -2  370.46   19.36
   0  -6   2  353.45   16.16
   6   0  -2  378.59   19.78
   6   0   2  387.49   17.31
   0  -6   4 1612.85   38.75
   6   0  -4 1554.06   38.89
   6   0   4 1673.34   35.66
   1  -6   5  113.85    9.98
  -1  -6  -5   98.79   10.27
   6   1  -5  114.58    9.51
   1   6  -5  114.37   10.00
   6  -1   5  111.91    8.45
   1  -6   3  288.81   14.99
   6   1  -3  276.06   11.66
  -1  -6  -3  291.87   15.68
   1   6  -3  257.30   15.45
   6  -1   3  300.53   15.23
   1  -6   1  224.25   12.42
  -6  -1  -1  211.01   13.33
   6   1  -1  227.03   14.57
   1   6  -1  205.20   14.07
   6  -1   1  207.72   13.68
   1  -6  -1  200.76   10.17
   6  -1  -1  219.43   13.20
   1  -6  -1  198.04   15.16
   6   1   1  206.60   12.66
   1   6   1  210.61   14.44
   6  -1  -1  222.55   14.88
   6  -1  -3  330.10   17.19
   1  -6  -3  273.09   18.21
   6   1   3  304.27   13.83
   6  -1  -3  304.55   18.42
   6   1   5  136.35   11.28
  -1  -6   5  120.89   10.45
   1  -6  -5  129.79   11.49
   6   1   5  122.91    6.99
   6  -1  -5  114.88   12.13
   2  -6   4  142.76   11.36
   6  -2   4  140.55   11.04
   6   2  -4  159.49   13.86
   6  -2   4  112.61   12.46
   6   2  -4  136.00   11.21
   2   6  -4  138.53   11.88
   6  -2   2  199.86   13.74
   6   2  -2  192.70   13.79
   2  -6   2  232.36   13.63
   2   6  -2  191.50   14.23
   6  -2   0 1831.27   46.95
   6   2   0 1822.01   43.02
   2  -6   0 1777.79   52.40
   6  -2   0 1839.32   45.92
   2  -6   0 1856.21   39.95
   2   6   0 1823.56   47.84
   6  -2  -2  163.82   13.50
   2  -6  -2  148.68    8.32
   6   2   2  162.73   10.54
   6  -2  -2  156.32   12.54
   2  -6  -2  147.74   14.30
   2   6   2  160.63   11.72
   2  -6  -2  167.02   10.39
   6   2   4  179.48   13.69
   2  -6  -4  135.97   12.26
   6  -2  -4  144.03   12.45
   2  -6  -4  146.19   14.10
   2   6   4  161.61   11.20
   2   6   4  150.63   12.87
   6  -3   1  229.71   15.45
   6   3  -1  210.74   15.91
   3  -6   1  207.95   13.28
   6   3  -1  236.74   15.06
   6   3  -1  222.24   16.28
   3   6  -1  187.00   14.76
   3  -6  -1  207.30   11.71
   6  -3  -1  208.79   15.33
   6   3   1  224.80   16.19
   3  -6  -1  218.83   15.41
   6  -3  -1  219.50   15.81
   3  -6  -1  225.04   17.88
   3   6   1  194.94   14.13
   3   6   1  231.06   16.32
   0   0   0    0.00    0.00





TITL exp_5502 in I-42m
REM I-42m (#121 in standard setting)
CELL 0.71073   5.498007   5.498007   9.210985  90.0000  90.0000  90.0000
ZERR    1.00   0.000400   0.000400   0.001031   0.0000   0.0000   0.0000
LATT -2
SYMM -x,-y, z
SYMM  y,-x,-z
SYMM -y, x,-z
SYMM -x, y,-z
SYMM  x,-y,-z
SYMM -y,-x, z
SYMM  y, x, z
SFAC C H N O
UNIT 11.00 10.00 1.00 1.00
TREF
HKLF 4
END
_computing_structure_solution     'SHELXT 2014/5 (Sheldrick, 2014)'
_computing_structure_solution     'SHELXT 2014/5 (Sheldrick, 2014)'
_computing_structure_solution     'SHELXT 2018/2 (Sheldrick, 2018)'
_computing_structure_solution     'SHELXT 2018/2 (Sheldrick, 2018)'
;
_shelx_hkl_checksum              85757
_olex2_submission_special_instructions 'No special instructions were received'
_oxdiff_exptl_absorpt_empirical_details
;
Empirical correction (ABSPACK) includes:
- Absorption correction using spherical harmonics
- Frame scaling
;
_oxdiff_exptl_absorpt_empirical_full_max 1.554
_oxdiff_exptl_absorpt_empirical_full_min 0.734
loop_
_space_group_symop_operation_xyz
'x, y, z'
'-x, -y, z'
'y, -x, -z'
'-y, x, -z'
'-x, y, -z'
'x, -y, -z'
'-y, -x, z'
'y, x, z'
'x+1/2, y+1/2, z+1/2'
'-x+1/2, -y+1/2, z+1/2'
'y+1/2, -x+1/2, -z+1/2'
'-y+1/2, x+1/2, -z+1/2'
'-x+1/2, y+1/2, -z+1/2'
'x+1/2, -y+1/2, -z+1/2'
'-y+1/2, -x+1/2, z+1/2'
'y+1/2, x+1/2, z+1/2'
loop_
_atom_site_label
_atom_site_type_symbol
_atom_site_fract_x
_atom_site_fract_y
_atom_site_fract_z
_atom_site_U_iso_or_equiv
_atom_site_adp_type
_atom_site_occupancy
_atom_site_site_symmetry_order
_atom_site_calc_flag
_atom_site_refinement_flags_posn
_atom_site_refinement_flags_adp
_atom_site_refinement_flags_occupancy
_atom_site_disorder_assembly
_atom_site_disorder_group
Cu01 Cu 0.5000 1.0000 0.7500 0.0141(4) Uani 0.5 4 d S T P . .
Zn01 Zn 0.5000 1.0000 0.7500 0.0141(4) Uani 0.5 4 d S T P . .
P002 P 0.5000 0.5000 0.5000 0.0076(6) Uani 1 8 d S T P . .
S003 S 0.27432(19) 0.72568(19) 0.61351(19) 0.0096(4) Uani 1 2 d S T P . .
loop_
_atom_site_aniso_label
_atom_site_aniso_U_11
_atom_site_aniso_U_22
_atom_site_aniso_U_33
_atom_site_aniso_U_23
_atom_site_aniso_U_13
_atom_site_aniso_U_12
Cu01 0.0137(4) 0.0137(4) 0.0150(6) 0.000 0.000 0.000
Zn01 0.0137(4) 0.0137(4) 0.0150(6) 0.000 0.000 0.000
P002 0.0088(9) 0.0088(9) 0.0050(13) 0.000 0.000 0.000
S003 0.0084(5) 0.0084(5) 0.0118(8) -0.0032(4) 0.0032(4) 0.0003(6)
loop_
_atom_type_symbol
_atom_type_description
_atom_type_scat_dispersion_real
_atom_type_scat_dispersion_imag
_atom_type_scat_source
Cu Cu 0.3201 1.2651 'International Tables Vol C Tables 4.2.6.8 and 6.1.1.4'
P P 0.1023 0.0942 'International Tables Vol C Tables 4.2.6.8 and 6.1.1.4'
S S 0.1246 0.1234 'International Tables Vol C Tables 4.2.6.8 and 6.1.1.4'
Zn Zn 0.2839 1.4301 'International Tables Vol C Tables 4.2.6.8 and 6.1.1.4'
loop_
_geom_angle_atom_site_label_1
_geom_angle_atom_site_label_2
_geom_angle_atom_site_label_3
_geom_angle
_geom_angle_site_symmetry_1
_geom_angle_site_symmetry_3
_geom_angle_publ_flag
S003 Cu01 S003 107.04(3) . 12_656 ?
S003 Cu01 S003 107.04(4) 12_656 2_675 ?
S003 Cu01 S003 114.46(7) . 2_675 ?
S003 Cu01 S003 114.46(7) 12_656 11_466 ?
S003 Cu01 S003 107.04(4) . 11_466 ?
S003 Cu01 S003 107.04(3) 2_675 11_466 ?
S003 P002 S003 118.42(10) 4_656 3_566 ?
S003 P002 S003 105.19(4) 3_566 2_665 ?
S003 P002 S003 105.19(4) 4_656 . ?
S003 P002 S003 118.42(10) 2_665 . ?
S003 P002 S003 105.19(4) 4_656 2_665 ?
S003 P002 S003 105.19(4) 3_566 . ?
Cu01 S003 Cu01 113.63(7) . 13_546 ?
Cu01 S003 Zn01 113.63(7) . 13_546 ?
Zn01 S003 Cu01 0.0 13_546 13_546 ?
P002 S003 Cu01 110.30(4) . . ?
P002 S003 Cu01 110.30(4) . 13_546 ?
P002 S003 Zn01 110.30(4) . 13_546 ?
loop_
_geom_bond_atom_site_label_1
_geom_bond_atom_site_label_2
_geom_bond_distance
_geom_bond_site_symmetry_2
_geom_bond_publ_flag
Cu01 S003 2.3227(10) . ?
Cu01 S003 2.3227(9) 12_656 ?
Cu01 S003 2.3227(10) 2_675 ?
Cu01 S003 2.3227(9) 11_466 ?
P002 S003 2.0426(15) . ?
P002 S003 2.0426(15) 4_656 ?
P002 S003 2.0426(15) 2_665 ?
P002 S003 2.0426(15) 3_566 ?
S003 Cu01 2.3227(9) 13_546 ?
S003 Zn01 2.3227(9) 13_546 ?
