#------------------------------------------------------------------------------
#$Date: 2020-11-19 01:21:11 +0200 (Thu, 19 Nov 2020) $
#$Revision: 259175 $
#$URL: file:///home/coder/svn-repositories/cod/cif/4/00/37/4003708.cif $
#------------------------------------------------------------------------------
#
# This file is available in the Crystallography Open Database (COD),
# http://www.crystallography.net/
#
# All data on this site have been placed in the public domain by the
# contributors.
#
data_4003708
loop_
_publ_author_name
'Hodges, James M.'
'Xia, Yi'
'Malliakas, Christos D.'
'Slade, Tyler J.'
'Wolverton, Chris'
'Kanatzidis, Mercouri G.'
_publ_section_title
;
 Mixed-Valent Copper Chalcogenides: Tuning Structures and Electronic
 Properties Using Multiple Anions
;
_journal_name_full               'Chemistry of Materials'
_journal_paper_doi               10.1021/acs.chemmater.0c03620
_journal_year                    2020
_chemical_formula_moiety         '2(Cs0.5 Cu2.09 S Te0.5)'
_chemical_formula_sum            'Cs Cu4.17 S2 Te'
_chemical_formula_weight         589.59
_space_group_crystal_system      tetragonal
_space_group_IT_number           123
_space_group_name_Hall           '-P 4 2'
_space_group_name_H-M_alt        'P 4/m m m'
_audit_creation_date             2019-06-09
_audit_creation_method
;
Olex2 1.2
(compiled 2018.05.29 svn.r3508 for OlexSys, GUI svn.r5506)
;
_cell_angle_alpha                90
_cell_angle_beta                 90
_cell_angle_gamma                90
_cell_formula_units_Z            1
_cell_length_a                   3.9443(5)
_cell_length_b                   3.9443(5)
_cell_length_c                   10.689(3)
_cell_measurement_reflns_used    1843
_cell_measurement_temperature    300
_cell_measurement_theta_max      34.328
_cell_measurement_theta_min      3.812
_cell_volume                     166.29(6)
_computing_cell_refinement       'SAINT V8.38A (?, 2016)'
_computing_data_collection       'APEX2 V2017.3 (Bruker, 2017)'
_computing_data_reduction        'SAINT V8.38A (?, 2016)'
_computing_molecular_graphics    'Olex2 (Dolomanov et al., 2009)'
_computing_publication_material  'Olex2 (Dolomanov et al., 2009)'
_computing_structure_refinement  'XL (Sheldrick, 2008)'
_diffrn_ambient_temperature      300
_diffrn_detector_area_resol_mean 8
_diffrn_measured_fraction_theta_full 0.992
_diffrn_measured_fraction_theta_max 0.977
_diffrn_measurement_device_type  'Bruker Kappa APEX CCD area detector'
_diffrn_measurement_method       '\w and \f scans'
_diffrn_radiation_monochromator  Triumph
_diffrn_radiation_type           MoK\a
_diffrn_radiation_wavelength     0.71073
_diffrn_reflns_av_R_equivalents  0.0304
_diffrn_reflns_av_unetI/netI     0.0172
_diffrn_reflns_Laue_measured_fraction_full 0.992
_diffrn_reflns_Laue_measured_fraction_max 0.977
_diffrn_reflns_limit_h_max       6
_diffrn_reflns_limit_h_min       -6
_diffrn_reflns_limit_k_max       6
_diffrn_reflns_limit_k_min       -5
_diffrn_reflns_limit_l_max       14
_diffrn_reflns_limit_l_min       -16
_diffrn_reflns_number            2213
_diffrn_reflns_point_group_measured_fraction_full 0.992
_diffrn_reflns_point_group_measured_fraction_max 0.977
_diffrn_reflns_theta_full        25.242
_diffrn_reflns_theta_max         34.441
_diffrn_reflns_theta_min         1.905
_diffrn_source                   'sealed tube'
_exptl_absorpt_coefficient_mu    23.336
_exptl_absorpt_correction_T_max  0.7468
_exptl_absorpt_correction_T_min  0.3389
_exptl_absorpt_correction_type   multi-scan
_exptl_absorpt_process_details
'SADABS-2016/2 (Bruker,2016/2) was used for absorption correction. wR2(int) was 0.1244 before and 0.0413 after correction. The Ratio of minimum to maximum transmission is 0.4538. The \l/2 correction factor is Not present.'
_exptl_crystal_colour            black
_exptl_crystal_colour_primary    black
_exptl_crystal_density_diffrn    5.888
_exptl_crystal_description       plate
_exptl_crystal_F_000             260
_exptl_crystal_size_max          0.064
_exptl_crystal_size_mid          0.022
_exptl_crystal_size_min          0.014
_refine_diff_density_max         1.156
_refine_diff_density_min         -0.713
_refine_diff_density_rms         0.161
_refine_ls_extinction_coef       0.020(2)
_refine_ls_extinction_expression Fc^*^=kFc[1+0.001xFc^2^\l^3^/sin(2\q)]^-1/4^
_refine_ls_extinction_method     'SHELXL-2014/7 (Sheldrick 2014'
_refine_ls_goodness_of_fit_ref   1.164
_refine_ls_hydrogen_treatment    undef
_refine_ls_matrix_type           full
_refine_ls_number_parameters     16
_refine_ls_number_reflns         257
_refine_ls_number_restraints     0
_refine_ls_restrained_S_all      1.164
_refine_ls_R_factor_all          0.0153
_refine_ls_R_factor_gt           0.0151
_refine_ls_shift/su_max          0.000
_refine_ls_shift/su_mean         0.000
_refine_ls_structure_factor_coef Fsqd
_refine_ls_weighting_details
'w=1/[\s^2^(Fo^2^)+(0.0146P)^2^+0.3609P] where P=(Fo^2^+2Fc^2^)/3'
_refine_ls_weighting_scheme      calc
_refine_ls_wR_factor_gt          0.0390
_refine_ls_wR_factor_ref         0.0392
_reflns_Friedel_coverage         0.000
_reflns_number_gt                254
_reflns_number_total             257
_reflns_threshold_expression     'I > 2\s(I)'
_cod_data_source_file            cm0c03620_si_003.cif
_cod_data_source_block           cscu4tes2
_cod_database_code               4003708
_shelx_shelxl_version_number     2014/7
_shelx_space_group_comment
;
The symmetry employed for this shelxl refinement is uniquely defined
by the following loop, which should always be used as a source of
symmetry information in preference to the above space-group names.
They are only intended as comments.
;
_olex2_refinement_description
;
;
_shelx_res_file
;
    cscu4tes2.res created by SHELXL-2014/7

TITL p4mmm_a.res in P4/mmm
REM Old TITL P4mmm in P4/mmm
REM SHELXT solution in P4/mmm
REM R1 0.074, Rweak 0.006, Alpha 0.023, Orientation as input
REM Formula found by SHELXT: S3 Cu4 Cs2
CELL 0.71073 3.9443 3.9443 10.6886 90 90 90
ZERR 1 0.0005 0.0005 0.0025 0 0 0
LATT 1
SYMM -X,-Y,+Z
SYMM -Y,+X,+Z
SYMM +Y,-X,+Z
SYMM -X,+Y,-Z
SYMM +X,-Y,-Z
SYMM +Y,+X,-Z
SYMM -Y,-X,-Z
SFAC Cs Cu S Te
UNIT 1 4.17 2 1

L.S. 4 0 0
PLAN  20
TEMP 26.85
list 4
fmap 2 53
acta
REM <olex2.extras>
REM <HklSrc "%.\\CsCu4TeS2.hkl">
REM </olex2.extras>

WGHT    0.014600    0.360900
EXTI    0.020030
FVAR       0.63515
CS1   1    0.000000    0.000000    0.500000    10.06250    0.01519    0.01519 =
         0.01735    0.00000    0.00000    0.00000
CU1   2    0.000000    0.500000    0.180671    10.25000    0.01191    0.02404 =
         0.02521    0.00000    0.00000    0.00000
CU2   2    0.500000    0.500000    0.000000     0.01081    0.02225    0.02225 =
         0.01937    0.00000    0.00000    0.00000
S1    3    0.500000    0.500000    0.293136    10.12500    0.01030    0.01030 =
         0.01392    0.00000    0.00000    0.00000
TE1   4    0.000000    0.000000    0.000000    10.06250    0.01600    0.01600 =
         0.01017    0.00000    0.00000    0.00000
HKLF 4

REM  p4mmm_a.res in P4/mmm
REM R1 =  0.0151 for     254 Fo > 4sig(Fo)  and  0.0153 for all     257 data
REM     16 parameters refined using      0 restraints

END

WGHT      0.0146      0.3610

REM Highest difference peak  1.156,  deepest hole -0.713,  1-sigma level  0.161
Q1    1   0.0000  0.0000  0.4358  10.12500  0.05    1.16
Q2    1   0.0000  0.5000  0.1179  10.25000  0.05    0.81
Q3    1   0.0000  0.3832  0.2123  10.50000  0.05    0.68
Q4    1   0.0000  0.0940  0.5000  10.25000  0.05    0.56
Q5    1   0.0000  0.5000  0.2604  10.25000  0.05    0.50
Q6    1   0.2463  0.2463  0.2028  10.50000  0.05    0.43
Q7    1   0.3191  0.5000  0.1929  10.50000  0.05    0.42
Q8    1  -0.5000 -0.1009  0.5000  10.25000  0.05    0.39
Q9    1  -0.2538 -0.2538  0.5000  10.25000  0.05    0.39
Q10   1   0.0000 -0.3315  0.5000  10.25000  0.05    0.39
Q11   1  -0.4100  0.0780  0.5000  10.50000  0.05    0.39
Q12   1   0.5000  0.3989  0.5000  10.25000  0.05    0.38
Q13   1   0.5849  0.5849  0.5000  10.25000  0.05    0.37
Q14   1   0.0000  0.7056  0.1159  10.50000  0.05    0.36
Q15   1   0.1355  0.0000 -0.0697  10.50000  0.05    0.35
Q16   1   0.0000  0.0000 -0.1202  10.12500  0.05    0.35
Q17   1   0.7393  0.2607  0.0000  10.25000  0.05    0.34
Q18   1   0.5000  0.5000  0.2466  10.12500  0.05    0.34
Q19   1  -0.5000 -0.2801  0.5000  10.25000  0.05    0.32
Q20   1   0.2537  0.2537  0.3046  10.50000  0.05    0.32
;
_shelx_res_checksum              81828
_shelx_hkl_file
;
  -1   0   0 1492.25   56.99
  -1   0   0 1385.76   56.59
   0  -1   0 1368.06   56.59
   1   0   0 1375.76   56.69
   0  -1   0 1464.25   56.59
   0   1   0 1456.45   56.49
   1  -1   0  135.59    5.10
  -1   1   0  122.49    5.00
   1  -1   0  126.19    5.00
  -1  -1   0  118.79    5.00
  -1   1   0  123.89    5.10
   1   1   0  130.79    5.10
  -1  -1   0  121.19    5.20
   2   0   0 9246.78  374.56
   0  -2   0 9786.52  374.56
  -2   0   0 9593.74  375.06
   0   2   0 8531.25  378.06
  -2   0   0 9999.00  374.36
   1   2   0  808.52   32.00
  -2   1   0  802.82   32.00
  -1  -2   0  788.12   31.90
  -2   1   0  781.72   32.10
  -1  -2   0  809.22   32.00
  -1  -2   0  827.82   32.00
   2  -1   0  811.72   32.00
   1  -2   0  818.72   32.40
  -1   2   0  778.22   32.40
  -1   2   0  835.12   32.30
  -2  -1   0  784.22   32.40
   2   1   0  837.32   32.50
  -2  -1   0  835.02   32.50
   0   3   0  729.63   28.50
  -3   0   0  699.23   28.80
  -3   0   0  773.52   28.60
   3   0   0  665.93   28.70
  -3   1   0   94.29    3.80
  -3   1   0   82.39    3.90
   1   3   0   92.39    3.80
   3  -1   0   79.79    3.80
  -1  -3   0   90.39    3.80
  -2  -2   0 6546.25  262.17
  -2  -2   0 6800.42  261.27
  -2  -2   0 6840.32  261.77
  -2   2   0 6664.93  261.47
   2   2   0 6270.67  261.97
  -2   2   0 6407.36  261.67
   1  -3   0   86.19    3.80
  -3  -1   0   88.59    4.00
   3   1   0   90.69    3.90
  -3  -1   0   84.49    3.70
  -1   3   0   87.19    3.60
  -4   0   0 3497.05  133.89
   4   0   0 3654.13  133.99
  -4   0   0 3215.78  134.09
   0  -4   0 3315.77  133.89
   0   4   0 3199.78  133.69
  -1  -4   0  194.08    8.20
   1   4   0  193.48    8.10
  -4   1   0  199.58    8.20
  -4   1   0  196.18    8.40
  -1  -4   0  191.48    8.20
   4  -1   0  202.38    8.20
  -2  -3   0  441.66   18.20
  -3   2   0  456.15   18.20
  -3   2   0  446.66   18.60
   2   3   0  450.15   18.30
  -2  -3   0  469.15   18.40
  -3  -2   0  409.36   17.80
  -3  -2   0  424.06   17.50
   2  -3   0  442.26   17.60
   3   2   0  468.75   17.70
  -3  -2   0  440.46   17.60
  -2   3   0  440.26   17.50
  -1   4   0  195.28    7.80
  -4  -1   0  189.68    8.30
   4   1   0  184.38    8.10
   1  -4   0  193.28    8.00
  -4  -1   0  198.08    8.00
   0  -5   0  228.88    9.70
  -5   0   0  232.78    9.60
  -5   0   0  233.18   10.00
   5   0   0  222.88    9.80
  -1  -5   0   66.09    3.20
  -5   1   0   60.59    3.10
  -2  -4   0 2327.07   92.59
  -4   2   0 2359.46   92.49
  -2  -4   0 2329.97   92.49
   2   4   0 2295.07   92.49
  -3  -3   0   88.39    3.90
  -3  -3   0   90.19    4.10
  -3   3   0   86.09    3.80
   3   3   0   87.89    4.00
  -4  -2   0 2364.56   92.99
   2  -4   0 2296.07   92.69
  -2   4   0 2336.97   92.49
   5   1   0   62.69    3.30
  -5  -1   0   67.79    3.60
  -5  -1   0   65.89    3.10
   1  -5   0   63.49    3.20
  -6   0   0  819.22   33.00
  -6   1   0   27.50    2.20
  -2  -5   0  164.28    7.30
  -5   2   0  171.28    7.20
  -3  -4   0  126.19    5.80
  -3  -4   0  128.79    5.60
  -4   3   0  133.29    5.60
   3   4   0  129.89    5.70
  -3   4   0  136.99    5.80
   4   3   0  149.19    6.00
  -4  -3   0  123.19    6.10
   5   2   0  160.48    7.10
  -5  -2   0  163.98    7.40
   2  -5   0  162.18    7.00
   6   1   0   35.20    2.40
  -3  -5   0   48.80    2.60
   3   5   0   52.39    2.60
  -5   3   0   45.80    2.60
  -4   4   0 1016.40   40.60
   4   4   0 1011.50   40.70
   5   3   0   54.09    2.90
   0   0   1  655.43   26.10
  -1   0  -1    0.80    0.20
   0  -1  -1    1.00    0.30
   1   0  -1    0.60    0.20
   0   1   1    0.80    0.20
   0   1   1    2.00    0.20
   0  -1   1    0.50    0.20
  -1   0   1    1.20    0.20
   1   0   1    0.80    0.20
  -1   1  -1  838.72   32.10
   1   1  -1  783.92   32.20
  -1  -1  -1  875.31   32.30
   1  -1  -1  819.82   32.10
  -1  -1  -1  815.32   32.10
  -1   1  -1  821.72   32.10
   1  -1  -1  784.12   32.10
  -1   1   1  806.32   32.20
  -1   1   1  801.22   32.10
  -1  -1   1  755.12   32.20
  -1  -1   1  825.52   32.10
  -1  -1   1  809.72   32.10
   1   1   1  792.32   32.20
  -2   0  -1  333.07   13.50
   2   0  -1  334.57   13.60
   0  -2  -1  337.87   13.60
  -2   0  -1  319.07   13.70
   2   0   1  340.27   13.60
   0  -2   1  344.57   13.60
   0  -2   1  327.77   13.50
   0   2   1  354.76   13.50
  -2   0   1  349.57   13.50
  -1  -2  -1    1.90    0.20
   2  -1  -1    1.20    0.30
  -1  -2  -1    1.90    0.40
  -2   1  -1    2.80    0.30
   2  -1   1    1.90    0.30
  -2   1   1    2.00    0.40
  -1  -2   1    2.50    0.40
   1   2   1    1.50    0.40
  -1  -2   1    3.40    0.40
  -2   1   1    2.20    0.30
  -2  -1  -1    2.50    0.30
   1  -2  -1    2.10    0.30
  -1   2  -1    1.50    0.20
   2   1  -1    2.40    0.40
  -2  -1  -1    1.60    0.50
  -1   2  -1    2.30    0.20
  -1   2   1    2.60    0.30
  -2  -1   1    1.80    0.30
  -2  -1   1    1.70    0.30
   2   1   1    1.90    0.40
  -1   2   1    2.20    0.30
  -3   1  -1  276.77   11.70
   3  -1  -1  277.77   11.50
  -3   1  -1  285.97   11.50
   1   3  -1  285.97   11.50
  -1  -3  -1  288.97   11.60
   1   3   1  286.77   11.50
  -1  -3   1  284.47   11.50
  -1  -3   1  289.47   11.50
   3  -1   1  278.17   11.50
  -3   1   1  284.77   11.70
  -3   1   1  282.57   11.50
  -2   2  -1  181.88    7.70
  -2  -2  -1  190.68    7.70
  -2  -2  -1  192.98    7.80
  -2   2  -1  194.88    7.80
   2  -2  -1  188.78    7.70
  -2  -2  -1  186.88    8.00
   2   2  -1  195.18    7.80
   2  -2  -1  192.48    7.70
  -2   2   1  189.48    7.90
  -2  -2   1  186.38    7.80
  -2  -2   1  213.18    7.90
  -2  -2   1  182.48    7.70
  -2   2   1  187.48    7.70
   2   2   1  187.78    7.90
   3   1  -1  286.27   11.40
  -1   3  -1  283.77   11.10
  -3  -1  -1  276.07   11.60
   1  -3  -1  283.97   11.30
  -3  -1   1  276.37   11.30
   3   1   1  277.17   11.40
  -3  -1   1  250.77   11.50
  -3  -1   1  287.47   11.20
   1  -3   1  285.17   11.30
  -1   3   1  279.07   11.20
   4   0  -1   71.29    3.20
  -4   0  -1   60.49    3.10
  -4   0  -1   69.99    3.40
   0  -4  -1   63.29    3.10
  -4   0   1   69.99    3.10
  -4   0   1   68.49    3.40
   0   4   1   68.89    3.00
   0  -4   1   63.89    3.10
   4   0   1   69.09    3.30
  -4   1  -1    2.20    0.60
   1   4  -1    3.00    0.60
   4  -1  -1    3.20    0.60
  -1  -4  -1    2.60    0.70
  -4   1  -1    3.20    0.80
   1   4   1    4.50    0.70
  -1  -4   1    2.70    0.60
  -4   1   1    1.20    0.60
   4  -1   1    2.30    0.60
  -4   1   1    2.90    0.60
  -1  -4   1    2.20    0.50
  -2  -3  -1    4.10    0.60
   2   3  -1    1.10    0.50
  -3   2  -1    0.30    0.40
  -2  -3  -1    1.00    0.50
  -3   2   1    0.50    0.50
   2   3   1    2.40    0.60
  -2  -3   1    1.20    0.40
  -2  -3   1    0.80    0.40
  -3   2   1    0.50    0.40
  -3  -2  -1    0.30    0.30
   3   2  -1    2.30    0.50
  -2   3  -1    0.90    0.30
   2  -3  -1    0.60    0.40
  -3  -2  -1    0.20    0.50
  -2   3   1    3.00    0.40
  -3  -2   1    0.50    0.30
  -3  -2   1    3.40    0.70
   3   2   1    0.30    0.50
  -4  -1  -1    2.90    0.60
   1  -4  -1    1.40    0.60
  -4  -1  -1    3.40    0.80
   4   1  -1    2.00    0.60
  -4  -1   1    2.60    0.60
   1  -4   1    5.10    0.70
  -1   4   1    1.60    0.40
  -4  -1   1    1.80    0.70
   4   1   1    1.80    0.60
  -5   0  -1    1.30    0.80
   5   0  -1    0.20    0.80
   0  -5  -1    1.00    0.70
  -5   0  -1    1.00    0.60
  -5   0   1    0.70    0.60
   5   0   1    3.70    1.00
   0  -5   1    2.10    0.70
  -5   0   1    1.70    0.80
  -5   1  -1   70.99    3.50
  -1  -5  -1   74.39    3.80
  -1  -5  -1   73.49    3.60
  -1  -5   1   77.09    3.60
  -5   1   1   71.39    3.50
  -4   2  -1   41.50    2.20
  -2  -4  -1   43.20    2.30
  -2  -4  -1   40.70    2.20
   2   4  -1   41.00    2.10
  -2  -4   1   40.80    2.20
   2   4   1   40.30    2.20
  -2  -4   1   43.10    2.20
  -4   2   1   44.80    2.20
   3   3  -1  141.89    5.70
  -3  -3  -1  132.89    5.60
  -3   3  -1  136.59    5.50
  -3  -3  -1  118.29    5.80
  -3   3   1  130.89    5.60
   3   3   1  117.79    5.70
  -3  -3   1  135.89    5.60
  -3  -3   1  136.19    5.80
  -4  -2  -1   44.70    2.10
   2  -4  -1   38.90    2.10
  -4  -2  -1   43.40    2.50
   4   2  -1   38.20    2.20
  -2   4   1   40.90    2.00
   4   2   1   39.20    2.30
  -4  -2   1   48.00    2.50
   5   1  -1   71.79    3.60
  -5  -1  -1   71.49    3.40
  -5  -1  -1   71.39    3.80
   1  -5  -1   72.49    3.50
   5   1   1   67.99    3.60
   1  -5   1   71.09    3.50
  -5  -1   1   75.59    3.90
  -5  -1   1   77.49    3.40
   6   0  -1   12.90    1.60
  -6   0  -1   12.20    1.30
  -6   0   1   11.10    1.20
  -6   1  -1    1.80    1.00
  -6   1   1    2.60    0.90
  -5   2  -1    2.20    0.70
  -2  -5  -1    1.80    0.70
  -2  -5  -1    1.30    0.70
   2   5   1    1.60    0.70
  -5   2   1    3.30    0.80
  -2  -5   1    2.20    0.80
  -3  -4  -1    1.30    0.60
  -4   3  -1    0.90    0.60
  -3  -4  -1    1.60    0.70
   3   4  -1    3.30    0.70
  -3  -4   1    1.50    0.60
   3   4   1    1.20    0.60
  -3  -4   1    0.80    0.60
  -4   3   1    1.80    0.60
  -3   4  -1    0.30    0.50
  -4  -3  -1    2.00    0.80
   4   3  -1    0.80    0.60
  -4  -3   1    0.50    0.70
  -3   4   1    0.50    0.50
   4   3   1    0.40    0.60
   2  -5  -1    1.00    0.70
   5   2  -1    1.00    0.70
  -5  -2  -1    1.00    0.80
   5   2   1    1.40    0.80
  -5  -2   1    1.60    0.90
   6   1  -1    1.60    0.90
   6   1   1    3.70    1.00
   3   5  -1   43.40    2.40
  -5   3  -1   40.50    2.30
  -3  -5  -1   38.70    2.30
  -5   3   1   38.30    2.30
  -3  -5   1   41.00    2.30
   3   5   1   41.60    2.30
  -4   4  -1   12.40    1.20
   4   4  -1   15.60    1.30
  -4   4   1   13.20    1.20
   4   4   1   12.70    1.30
   5   3  -1   45.40    2.60
   5   3   1   45.30    2.60
   0   0   2   22.10    0.90
   0   0   2   20.40    0.90
   0  -1  -2 3977.80  153.88
  -1   0  -2 3867.31  153.88
   1   0  -2 3853.91  153.88
  -1   0  -2 4160.08  154.58
   0  -1   2 4013.60  153.98
  -1   0   2 3946.51  153.88
   0   1   2 3712.23  153.98
   0   1   2 3866.81  154.18
   1   0   2 3356.66  154.08
  -1   0   2 4037.00  154.28
  -1   1  -2 5275.37  210.98
   1   1  -2 4929.61  210.88
   1  -1  -2 5075.79  210.98
   1  -1  -2 5442.66  210.88
  -1  -1  -2 5473.05  211.08
  -1   1  -2 5480.65  210.78
  -1   1   2 5269.87  211.38
   1   1   2 5040.00  211.58
  -1  -1   2 5187.68  211.28
  -1  -1   2 5429.36  210.68
  -1   1   2 5432.16  211.08
  -1  -1   2 5797.12  210.98
  -2   0  -2   31.00    1.60
   0  -2  -2   31.70    1.30
   0  -2  -2   31.40    1.50
   2   0  -2   27.10    1.40
  -2   0  -2   29.20    1.40
   2   0   2   29.90    1.50
   0  -2   2   30.60    1.40
   0   2   2   30.20    1.40
  -2   0   2   31.20    1.40
  -2   0   2   28.00    1.50
   0   2   2   31.20    1.40
   1   2  -2 2318.87   94.69
  -2   1  -2 2363.06   94.89
   2  -1  -2 2522.95   94.89
  -2   1  -2 2339.57   94.99
  -1  -2  -2 2408.86   94.89
  -1  -2   2 2432.06   94.89
   1   2   2 2226.78   94.89
  -2   1   2 2557.84   95.69
  -2   1   2 2486.15   94.89
   2  -1   2 2262.37   94.79
  -1  -2   2 2385.46   95.19
  -2  -1  -2 2552.84   94.39
  -1   2  -2 2413.56   93.99
   1  -2  -2 2316.67   94.19
   1  -2  -2 2312.97   94.29
  -2  -1  -2 2264.67   94.29
   2   1  -2 2384.96   94.59
   1  -2   2 2383.46   94.59
  -2  -1   2 2463.55   94.19
  -1   2   2 2334.07   94.59
  -2  -1   2 2610.14   94.69
  -1   2   2 2261.87   94.49
  -2  -1   2 2354.86   94.29
   2   1   2 2270.67   94.19
   1  -2   2 2325.77   94.29
  -3   0  -2 1434.86   59.29
  -3   0  -2 1440.76   59.59
   3   0  -2 1505.05   59.39
   0  -3  -2 1503.05   59.39
  -3   0   2 1447.66   59.29
   3   0   2 1562.44   59.49
   0  -3   2 1508.65   59.39
   0   3   2 1478.25   59.29
  -3   0   2 1566.34   59.49
  -3   1  -2 2263.67   87.99
  -3   1  -2 2239.38   87.79
   3  -1  -2 2214.68   87.79
   1   3  -2 2228.68   87.69
  -1  -3  -2 2234.28   87.89
  -1  -3   2 2236.38   87.79
  -3   1   2 2226.08   87.99
   3  -1   2 2179.58   87.79
  -1  -3   2 2191.88   87.79
   1   3   2 2105.09   87.79
  -3   1   2 2228.98   87.79
  -2   2  -2   32.70    1.50
  -2  -2  -2   29.50    1.40
   2  -2  -2   28.00    1.40
  -2   2  -2   35.70    1.40
  -2  -2  -2   27.00    1.70
   2   2  -2   31.40    1.50
  -2   2   2   31.90    1.60
  -2   2   2   28.30    1.50
   2   2   2   30.60    1.70
  -2  -2   2   30.80    1.60
  -2  -2   2   29.50    1.40
  -3  -1  -2 2039.40   87.19
   3   1  -2 2147.29   86.99
  -3  -1  -2 2239.38   86.89
  -1   3  -2 2209.08   86.69
   1  -3  -2 2182.38   86.89
  -3  -1   2 2257.07   87.09
  -3  -1   2 2244.68   86.89
  -1   3   2 2218.78   86.89
   1  -3   2 2183.78   86.99
   0  -4  -2   21.70    1.40
   4   0  -2   19.30    1.40
  -4   0  -2   21.10    1.70
  -4   0  -2   18.30    1.30
  -4   0   2   24.40    1.60
   4   0   2   21.00    1.50
   0   4   2   22.50    1.30
  -4   0   2   22.40    1.30
   0  -4   2   19.50    1.30
  -4   1  -2  973.70   38.30
  -4   1  -2  972.30   38.60
   4  -1  -2  987.20   38.40
  -1  -4  -2  964.00   38.40
   1   4   2  921.51   38.30
  -4   1   2  932.31   38.30
  -1  -4   2  949.60   38.40
  -4   1   2  974.00   38.60
   3  -2  -2 1065.49   43.40
   2   3  -2 1057.09   43.40
  -3   2  -2 1084.69   43.40
  -2  -3  -2 1007.00   43.70
  -2  -3  -2 1078.59   43.50
  -2  -3   2 1180.88   43.50
  -2  -3   2 1110.09   43.40
  -3   2   2 1054.79   43.60
  -3   2   2 1088.09   43.40
   2   3   2 1183.18   43.60
   3   2  -2 1130.89   45.30
  -3  -2  -2 1141.09   45.20
  -3  -2  -2 1269.97   45.60
  -2   3  -2 1090.09   45.10
   2  -3  -2 1094.69   45.20
  -3  -2   2 1113.29   45.40
  -2   3   2 1137.79   45.20
  -3  -2   2 1121.99   45.10
   3   2   2 1130.29   45.40
   4   1  -2  961.10   38.40
  -4  -1  -2  956.60   38.30
  -4  -1  -2  930.71   38.70
   1  -4  -2  953.60   38.40
   4   1   2  985.60   38.50
  -4  -1   2  951.20   38.30
  -1   4   2  968.90   38.30
  -4  -1   2 1012.00   38.70
   1  -4   2  922.21   38.40
   5   0  -2  410.66   16.70
   0  -5  -2  406.86   16.70
  -5   0  -2  398.36   17.00
  -5   0  -2  422.46   16.60
  -5   0   2  418.46   17.00
   5   0   2  403.86   16.80
  -5   0   2  394.56   16.50
   0  -5   2  410.06   16.60
   0   5   2  385.16   16.50
  -5   1  -2  524.55   21.80
  -1  -5  -2  532.45   21.90
  -1  -5  -2  538.25   21.90
   5  -1  -2  553.64   22.00
  -1  -5   2  535.15   21.80
  -5   1   2  553.94   22.20
  -5   1   2  548.35   21.80
   1   5   2  516.85   21.80
  -2  -4  -2   17.90    1.50
   2   4  -2   20.80    1.30
  -2  -4  -2   19.30    1.40
  -4   2  -2   18.40    1.30
   2   4   2   22.70    1.40
  -2  -4   2   18.70    1.30
  -4   2   2   20.00    1.40
  -2  -4   2   18.70    1.30
  -3  -3  -2 1029.10   40.80
  -3  -3  -2 1019.90   40.60
   3   3  -2 1021.50   40.50
  -3   3  -2 1036.10   40.40
  -3  -3   2 1024.30   40.40
   3   3   2  952.80   40.60
  -3  -3   2  998.50   40.70
  -3   3   2 1032.10   40.50
  -4  -2  -2   20.90    1.30
   2  -4  -2   18.50    1.20
   4   2  -2   19.00    1.40
  -4  -2  -2   19.20    1.60
  -2   4   2   17.00    1.20
   4   2   2   19.50    1.50
  -4  -2   2   20.40    1.60
   1  -5  -2  540.45   22.20
   5   1  -2  530.75   22.30
  -5  -1  -2  522.85   22.10
  -5  -1  -2  568.04   22.70
  -1   5   2  568.24   22.10
   5   1   2  521.15   22.30
  -5  -1   2  574.54   22.60
  -5  -1   2  570.34   22.20
   1  -5   2  528.55   22.20
  -6   0  -2    6.80    1.00
   6   0  -2    8.60    1.30
  -6   0   2    7.80    1.10
  -6   1   2  316.47   13.70
  -5   2  -2  306.87   13.00
  -2  -5  -2  328.57   13.20
  -2  -5  -2  323.37   13.20
  -5   2   2  303.67   13.00
  -2  -5   2  315.37   13.00
   2   5   2  311.57   13.00
  -3  -4  -2  518.25   21.30
   3   4  -2  522.45   21.00
  -4   3  -2  517.95   21.00
  -3  -4  -2  517.35   21.10
  -3  -4   2  516.15   21.00
   3   4   2  500.35   21.10
  -4   3   2  510.05   21.00
  -3  -4   2  548.45   21.10
  -4  -3  -2  565.94   21.50
   4   3  -2  529.85   21.10
  -4  -3   2  476.25   21.30
   4   3   2  501.15   21.20
  -3   4   2  527.75   21.00
   5   2  -2  312.07   13.00
   2  -5  -2  314.87   12.90
  -5  -2  -2  314.87   13.40
  -2   5   2  315.07   12.80
   5   2   2  301.07   13.00
  -6  -1  -2  299.07   13.10
   6   1   2  331.37   13.40
  -3  -5  -2  302.27   12.80
  -5   3  -2  291.27   12.70
   3   5   2  317.67   12.80
  -5   3   2  312.57   12.80
  -4   4  -2   12.40    1.20
   4   4  -2   11.10    1.20
   4   4   2   16.20    1.40
  -4   4   2   12.20    1.20
   5   3  -2  288.17   12.60
  -3   5   2  316.17   12.50
   5   3   2  300.97   12.70
   0   0  -3 2250.27   86.59
   0   0   3 2067.79   86.49
   0   0   3 2223.98   86.79
   1   0  -3  245.98    9.10
  -1   0  -3  227.68    9.10
  -1   0  -3  229.78    9.20
   0  -1  -3  228.88    9.10
   0   1   3  236.78    9.10
  -1   0   3  228.18    9.10
  -1   0   3  210.48    9.10
   0  -1   3  226.08    9.00
   0   1   3  232.98    9.20
   1   0   3  199.98    9.20
  -1  -1  -3 3493.95  139.29
   1  -1  -3 3455.05  139.39
  -1   1  -3 3505.45  139.19
   1  -1  -3 3510.15  139.19
   1   1  -3 3513.35  139.19
  -1   1  -3 3477.95  138.99
  -1   1   3 3758.52  139.79
  -1  -1   3 3457.95  139.49
  -1  -1   3 3659.43  139.29
  -1   1   3 3457.85  139.39
   1   1   3 3301.27  139.49
   0  -2  -3 1315.27   50.89
  -2   0  -3 1203.48   50.99
   0  -2  -3 1263.37   50.69
   2   0  -3 1405.76   50.79
  -2   0  -3 1299.67   50.79
   0   2   3 1262.37   50.79
  -2   0   3 1290.47   50.79
   0   2   3 1263.17   50.79
   2   0   3 1309.37   50.89
  -2   0   3 1200.28   50.89
   0  -2   3 1263.67   50.79
  -2   1  -3   95.39    4.10
  -1  -2  -3   99.89    4.00
   1   2  -3   99.39    3.90
   2  -1  -3   86.89    4.00
  -2   1  -3   88.29    4.00
  -1  -2   3  101.29    4.00
  -2   1   3   98.99    4.20
  -2   1   3   93.49    4.00
   2  -1   3   94.89    3.90
  -1  -2   3   98.79    4.00
   1   2   3   99.29    4.10
   2   1  -3  104.79    4.10
  -2  -1  -3   90.89    4.10
  -2  -1  -3   97.99    4.30
   1  -2  -3   97.29    4.10
   1  -2  -3   95.89    4.00
  -1   2  -3   94.89    3.90
  -1   2   3  104.39    4.20
   1  -2   3   96.29    4.00
   2   1   3   98.49    4.30
  -2  -1   3  102.59    4.20
  -2  -1   3   92.19    4.00
  -1   2   3   96.79    4.10
  -2  -1   3   99.19    4.00
  -3   0  -3  136.49    5.70
  -3   0  -3  122.59    5.40
   0  -3  -3  127.79    5.50
   3   0   3  129.99    5.60
  -3   0   3  120.69    5.40
   0  -3   3  124.19    5.40
   0   3   3  144.39    5.50
  -3   0   3  132.49    5.60
   3  -1  -3 1238.48   51.39
   1   3  -3 1288.57   51.29
  -3   1  -3 1264.17   51.59
  -1  -3  -3 1292.77   51.49
  -3   1  -3 1357.06   51.39
   3  -1   3 1268.47   51.39
  -1  -3   3 1319.57   51.39
  -3   1   3 1323.37   51.39
  -3   1   3 1235.68   51.49
   1   3   3 1332.17   51.49
  -1  -3   3 1293.37   51.29
  -2  -2  -3  719.93   30.00
   2  -2  -3  731.93   29.70
   2  -2  -3  756.72   29.70
   2   2  -3  720.83   29.70
  -2  -2  -3  709.83   29.70
  -2   2  -3  753.02   29.70
  -2  -2   3  765.32   29.70
  -2  -2   3  689.33   29.80
  -2   2   3  822.42   29.90
  -2   2   3  794.72   29.80
   1  -3  -3 1301.37   51.79
   3   1  -3 1312.77   51.79
  -3  -1  -3 1317.77   51.79
  -3  -1  -3 1252.87   52.09
  -3  -1   3 1308.87   51.69
  -3  -1   3 1312.37   51.99
  -1   3   3 1310.67   51.69
   1  -3   3 1302.17   51.79
   0  -4  -3  308.17   12.70
  -4   0  -3  308.67   12.60
   4   0  -3  317.97   12.70
  -4   0  -3  325.77   13.10
   0  -4   3  291.47   12.60
  -4   0   3  309.17   12.60
  -4   0   3  307.07   12.90
   4   0   3  317.97   12.80
   0   4   3  299.37   12.60
   4  -1  -3   18.40    1.40
  -1  -4  -3   20.50    1.40
  -1  -4   3   20.80    1.30
  -4   1   3   20.80    1.30
  -4   1   3   19.70    1.50
   1   4   3   23.10    1.40
  -2  -3  -3   76.79    3.60
  -3   2  -3   78.49    3.40
   2   3  -3   83.69    3.40
  -2  -3  -3   81.09    3.80
   3  -2  -3   78.79    3.50
  -2  -3   3   79.49    3.50
  -3   2   3   76.19    3.70
  -2  -3   3   76.79    3.40
  -3   2   3   70.49    3.50
   2   3   3   88.39    3.70
  -2   3  -3   78.29    3.30
  -3  -2  -3   85.59    3.80
  -3  -2  -3   74.19    3.40
   3   2  -3   76.39    3.50
   2  -3  -3   76.59    3.40
  -3  -2   3   74.49    3.60
  -2   3   3   79.09    3.40
   3   2   3   76.99    3.60
  -4  -1  -3   22.30    1.70
   1  -4  -3   18.20    1.30
   4   1  -3   19.80    1.40
  -4  -1  -3   20.50    1.30
   1  -4   3   19.70    1.30
  -1   4   3   20.50    1.20
   4   1   3   17.60    1.50
  -4  -1   3   21.70    1.30
  -4  -1   3   20.10    1.50
   5   0  -3   63.79    3.20
  -5   0  -3   54.59    3.50
  -5   0  -3   62.79    3.10
   0  -5  -3   57.49    3.10
  -5   0   3   63.49    3.40
   0   5   3   65.29    3.10
   5   0   3   70.89    4.20
   0  -5   3   59.69    3.10
  -5   0   3   61.89    3.00
  -1  -5  -3  304.87   13.30
   5  -1  -3  335.27   13.30
  -5   1  -3  326.17   13.20
  -1  -5   3  314.47   13.20
  -5   1   3  309.57   13.50
  -5   1   3  334.97   13.20
   1   5   3  311.57   13.20
  -4   2  -3  199.78    8.30
  -2  -4  -3  193.18    8.50
  -2  -4  -3  199.58    8.40
   2   4   3  193.98    8.40
  -2  -4   3  201.18    8.30
  -2  -4   3  193.38    8.20
  -4   2   3  202.38    8.30
  -3  -3  -3  609.64   25.00
  -3  -3  -3  616.74   25.20
  -3   3  -3  601.84   24.80
   3   3  -3  589.04   24.90
  -3   3   3  619.94   24.90
   3   3   3  682.43   25.10
  -3  -3   3  616.84   25.00
   4   2  -3  196.28    8.40
   2  -4  -3  202.48    8.40
  -4  -2  -3  192.98    8.70
   4   2   3  202.08    8.60
  -4  -2   3  212.78    8.70
  -2   4   3  198.38    8.30
   5   1  -3  312.37   12.90
  -5  -1  -3  290.17   13.20
   1  -5  -3  302.87   12.80
  -5  -1  -3  308.57   12.70
  -1   5   3  306.57   12.70
   5   1   3  301.87   12.90
  -5  -1   3  335.67   13.20
   6   0  -3   53.09    3.10
  -6   0  -3   53.49    3.10
  -6   0   3   59.99    3.00
  -2  -5  -3   43.30    2.60
  -2  -5  -3   43.60    2.50
  -5   2  -3   44.90    2.40
   2   5   3   42.90    2.40
  -2  -5   3   42.20    2.30
  -5   2   3   41.10    2.40
  -4   3  -3   19.50    1.50
   3   4  -3   28.10    1.50
  -3  -4  -3   27.40    1.90
  -3  -4  -3   20.30    1.60
  -3  -4   3   23.20    1.60
  -4   3   3   21.70    1.50
   3   4   3   20.20    1.70
   4   3  -3   19.20    1.50
  -4  -3  -3   21.10    1.80
  -4  -3  -3   22.60    1.50
  -3   4   3   22.30    1.40
   4   3   3   18.50    1.60
  -4  -3   3   20.20    1.70
  -5  -2  -3   51.29    3.90
   2  -5  -3   41.70    2.30
   5   2  -3   43.00    2.50
   5   2   3   43.30    2.60
  -2   5   3   42.00    2.30
  -6  -1  -3    1.20    0.80
   6   1   3    4.00    1.60
  -5   3  -3  174.68    7.70
   3   5   3  190.88    7.80
  -5   3   3  170.08    7.70
  -4  -4  -3   73.69    3.80
   4   4  -3   71.59    3.40
   4   4   3   62.59    3.50
  -4   4   3   71.09    3.40
   5   3  -3  178.98    7.60
   5   3   3  166.38    7.60
  -3   5   3  174.18    7.50
   0   0  -4 2665.53   98.89
   0   0   4 2394.56   99.19
   0   0   4 2408.16   98.79
  -1   0  -4 1506.75   59.99
   0  -1  -4 1487.25   59.99
   0   1  -4 1577.74   59.79
  -1   0  -4 1487.55   59.99
   1   0  -4 1474.55   59.99
   0   1   4 1546.65   59.89
   1   0   4 1422.46   59.89
   0   1   4 1422.26   59.79
  -1   0   4 1587.94   60.19
  -1   0   4 1541.25   59.79
   0  -1   4 1545.15   59.89
  -1   1  -4 3457.85  133.69
   1  -1  -4 3385.66  133.59
  -1  -1  -4 3296.07  133.79
   1   1  -4 3553.24  133.69
  -1   1  -4 3414.56  133.49
   1   1   4 3038.10  133.79
  -1   1   4 3297.47  133.99
  -1   1   4 3389.56  144.89
  -1  -1   4 3479.65  134.09
   0  -2  -4 1537.25   60.69
  -2   0  -4 1499.75   60.99
   2   0  -4 1462.85   60.79
  -2   0  -4 1540.05   60.79
   0   2   4 1595.94   60.79
   0   2   4 1486.55   60.89
   2   0   4 1526.55   60.89
  -2   0   4 1602.14   60.89
  -2   0   4 1536.95   60.79
  -2   1  -4  981.70   40.00
   2  -1  -4 1034.10   39.80
   2  -1  -4 1005.10   40.00
  -1  -2  -4 1022.50   40.00
  -2   1  -4 1027.90   40.10
   1   2  -4 1001.80   39.90
  -2   1   4  960.10   40.00
  -1  -2   4 1011.70   39.90
   1   2   4  968.70   40.10
  -1  -2   4 1038.60   40.00
  -2   1   4 1087.59   40.10
   2  -1   4  931.61   39.90
  -2  -1  -4 1051.99   40.50
  -2  -1  -4  988.90   40.20
   1  -2  -4 1000.50   40.20
   1  -2  -4 1018.10   40.10
   2   1  -4 1064.59   40.20
   2   1   4  949.60   40.30
  -2  -1   4  995.30   40.30
  -1   2   4 1005.50   40.20
  -2  -1   4 1028.70   40.10
  -1   2   4 1000.70   40.30
  -3   0  -4  668.43   27.60
   3   0  -4  670.93   27.40
  -3   0  -4  686.33   27.30
   0  -3  -4  691.53   27.40
   0  -3   4  682.13   27.40
  -3   0   4  690.23   27.50
  -3   0   4  684.83   27.30
   0   3   4  691.33   27.40
   3   0   4  685.93   27.50
  -3   1  -4 1625.14   64.49
   3  -1  -4 1709.13   64.59
  -3   1  -4 1584.84   64.69
  -1  -3  -4 1615.64   64.69
  -3   1   4 1612.14   64.49
  -1  -3   4 1583.04   64.39
  -1  -3   4 1650.13   64.49
  -3   1   4 1579.94   64.69
   1   3   4 1655.63   64.59
  -2   2  -4 1067.29   43.40
   2  -2  -4 1031.10   43.40
   2  -2  -4 1097.09   43.40
  -2  -2  -4 1092.99   43.80
  -2  -2  -4 1103.69   43.40
   2   2  -4 1116.69   43.40
  -2  -2   4 1112.29   43.50
  -2   2   4 1129.29   43.50
  -2  -2   4 1110.69   43.40
  -2   2   4 1063.39   43.60
   1  -3  -4 1602.64   64.89
  -3  -1  -4 1574.44   64.79
  -3  -1  -4 1706.33   65.19
   3   1  -4 1607.54   64.89
  -1   3   4 1566.14   64.79
  -1   3   4 1660.53   64.89
  -3  -1   4 1596.14   64.79
   3   1   4 1779.12   65.09
  -3  -1   4 1601.14   64.99
  -4   0  -4  585.34   22.70
  -4   0  -4  561.84   23.10
   0  -4  -4  558.54   22.80
   4   0  -4  607.84   22.80
  -4   0   4  580.34   22.70
   0  -4   4  551.24   22.70
   0   4   4  554.54   22.70
  -4   0   4  541.85   22.90
   4   0   4  530.95   22.90
  -4   1  -4  354.86   14.20
  -1  -4  -4  351.26   14.40
   4  -1  -4  321.37   14.20
  -1  -4   4  361.66   14.30
  -4   1   4  351.26   14.50
  -4   1   4  370.26   14.30
   1   4   4  333.37   14.30
   3  -2  -4  510.55   20.00
  -2  -3  -4  489.75   20.10
  -2  -3  -4  469.75   20.20
  -3   2  -4  496.65   19.90
   2   3  -4  507.25   19.90
  -3   2   4  509.55   20.00
  -2  -3   4  500.95   20.00
  -3   2   4  492.85   20.20
  -2  -3   4  493.25   19.90
   2   3   4  487.05   20.10
  -3  -2  -4  490.15   20.50
   3   2  -4  493.05   20.10
   2  -3  -4  488.35   20.00
  -3  -2  -4  482.95   20.10
  -3  -2   4  488.15   20.20
  -2   3   4  503.75   20.10
   3   2   4  555.84   20.30
   1  -4  -4  348.67   14.80
  -4  -1  -4  382.46   14.80
  -4  -1  -4  364.96   15.20
   4   1  -4  356.06   14.90
  -1   4   4  365.86   14.80
  -4  -1   4  349.37   15.00
  -4  -1   4  370.66   14.80
   4   1   4  372.36   15.00
  -5   0  -4  197.48    8.40
   0  -5  -4  203.68    8.60
   5   0  -4  199.78    8.50
  -5   0   4  195.38    8.40
   0   5   4  196.38    8.50
  -5   0   4  209.18    8.80
   0  -5   4  192.28    8.50
  -5   1  -4  471.65   19.10
  -1  -5  -4  480.85   19.30
   5  -1  -4  444.56   19.10
  -1  -5   4  465.15   19.10
  -5   1   4  455.45   19.10
   1   5   4  480.05   19.20
  -5   1   4  483.45   19.50
  -2  -4  -4  408.96   17.40
  -2  -4  -4  414.96   17.30
   2   4   4  415.96   17.30
  -4   2   4  421.26   17.10
  -4   2   4  443.16   17.50
  -2  -4   4  424.66   17.10
  -3  -3  -4  823.02   34.20
  -3   3  -4  823.62   33.70
  -3  -3  -4  846.22   33.90
   3   3  -4  876.11   33.80
   3   3   4  875.41   34.00
  -3   3   4  861.91   33.80
  -3  -3   4  808.82   33.90
  -4  -2  -4  423.16   16.90
  -4  -2  -4  400.06   17.30
   2  -4  -4  415.76   16.90
   4   2  -4  437.96   17.00
   4   2   4  384.26   17.10
  -4  -2   4  425.86   17.20
  -2   4   4  431.56   16.90
  -5  -1  -4  476.55   19.70
  -5  -1  -4  488.15   19.20
   5   1  -4  482.65   19.30
   1  -5  -4  475.75   19.30
  -1   5   4  459.15   19.10
  -5  -1   4  445.86   19.50
   6   0  -4  150.58    6.90
   1   6   4  100.69    4.80
  -5   2  -4  148.89    6.50
  -2  -5  -4  152.18    6.70
  -5   2   4  145.89    6.50
   2   5   4  149.39    6.60
  -2  -5   4  150.48    6.50
  -3  -4  -4  211.88    9.10
  -3  -4  -4  206.68    8.80
   3   4  -4  202.58    8.60
  -4   3  -4  197.88    8.70
  -3  -4   4  209.88    8.70
   3   4   4  203.78    8.90
  -4   3   4  214.78    8.70
   4   3  -4  202.08    8.60
  -4  -3  -4  208.28    8.70
  -4  -3  -4  198.28    9.00
  -3   4   4  210.08    8.60
   4   3   4  210.78    8.80
  -4  -3   4  199.88    8.80
   5   2  -4  149.88    6.90
  -5  -2  -4  153.78    7.30
   5   2   4  162.18    7.00
  -2   5   4  160.58    6.80
  -5   3  -4  299.97   12.20
  -5   3   4  285.07   12.20
   3   5   4  287.97   12.30
   4   4  -4  188.58    8.30
  -4  -4  -4  202.68    8.50
  -4   4   4  191.48    8.40
   4   4   4  202.38    8.50
   5   3  -4  286.97   12.50
  -3   5   4  301.37   12.50
   5   3   4  313.17   12.70
   0   0  -5  949.21   37.70
   0   0   5  965.40   37.70
   0   0   5  932.41   37.70
  -1   0  -5   72.49    3.10
   1   0  -5   76.59    3.10
  -1   0  -5   65.69    3.20
   0   1  -5   75.89    3.00
  -1   0   5   73.79    3.20
   0   1   5   72.99    3.20
  -1   0   5   75.59    3.10
   1   0   5   68.19    3.20
   0  -1   5   73.39    3.10
   0   1   5   81.19    3.20
  -1  -1  -5 1900.31   76.99
   1   1  -5 2063.89   76.99
   1  -1  -5 1824.52   76.99
  -1   1  -5 1931.01   76.99
  -1   1  -5 1923.01   76.99
  -1   1   5 1995.90   77.29
  -1   1   5 2044.90   76.99
   1   1   5 1762.72   77.09
  -1  -1   5 2042.50   77.39
   0  -2  -5  541.55   20.60
  -2   0  -5  529.95   20.60
  -2   0  -5  532.95   20.90
   2   0  -5  479.45   20.60
  -2   0   5  542.15   20.60
   0   2   5  526.05   20.80
   0  -2   5  515.95   20.50
   0   2   5  523.05   20.70
  -2   0   5  493.65   20.70
   2   0   5  473.85   20.80
  -2   1  -5   35.50    1.70
  -1  -2  -5   40.80    1.80
   2  -1  -5   38.90    1.80
  -2   1  -5   38.10    1.90
   1   2  -5   37.00    1.60
  -2   1   5   36.80    1.90
  -2   1   5   36.50    1.80
  -1  -2   5   41.10    1.70
   1   2   5   36.10    2.00
  -2  -1  -5   36.00    1.70
   1  -2  -5   35.20    1.70
   1  -2  -5   35.60    1.70
   2   1  -5   36.40    1.70
  -2  -1  -5   33.60    2.10
  -1   2  -5   37.20    1.50
  -1   2   5   34.00    1.70
  -2  -1   5   37.50    1.60
   2   1   5   36.00    2.00
  -2  -1   5   32.50    1.80
  -1   2   5   37.20    1.80
  -3   0  -5   54.79    2.70
   0  -3  -5   67.89    2.90
   0  -3  -5   57.59    2.60
   3   0  -5   54.69    2.70
  -3   0  -5   62.29    3.10
   3   0   5   59.29    2.90
   0   3   5   60.79    2.80
   0   3   5   62.09    2.80
  -3   0   5   59.79    2.70
  -3   0   5   60.29    2.90
  -1  -3  -5  869.51   35.30
  -1  -3  -5  851.51   35.00
   3  -1  -5  950.60   35.20
  -3   1  -5  878.21   35.10
   1   3   5  907.81   35.30
  -3   1   5  899.61   35.20
  -3   1   5  813.32   35.30
  -1  -3   5  862.71   35.00
  -1  -3   5  893.51   35.20
  -2   2  -5  295.67   11.80
   2  -2  -5  309.87   11.90
  -2  -2  -5  289.87   11.90
   2   2  -5  283.07   11.80
  -2  -2  -5  277.27   12.20
  -2   2   5  302.17   11.90
  -2  -2   5  309.67   11.80
  -2   2   5  297.57   12.10
  -2  -2   5  297.47   11.90
   2   2   5  268.77   12.10
   1  -3  -5  846.52   34.30
  -3  -1  -5  879.61   34.60
  -3  -1  -5  872.81   34.30
   3   1  -5  818.82   34.20
  -1   3   5  835.12   34.20
  -3  -1   5  918.91   34.40
   3   1   5  858.91   34.50
  -3  -1   5  847.42   34.20
  -1   3   5  843.22   34.40
   0  -4  -5  104.79    4.70
  -4   0  -5  112.89    5.10
   4   0  -5  103.19    4.60
  -4   0  -5  102.09    4.60
   4   0   5  107.69    4.90
  -4   0   5  100.49    4.80
  -4   0   5  105.19    4.60
   0   4   5  106.99    4.70
  -4   1  -5    8.00    0.90
  -1  -4  -5    9.10    1.10
   4  -1  -5   10.30    1.00
  -4   1   5    6.20    0.90
   1   4   5    8.80    1.00
  -1  -4   5    9.10    1.00
  -4   1   5    8.30    0.90
  -2  -3  -5   39.90    2.40
  -3   2  -5   40.90    2.00
   2   3  -5   39.50    1.90
   3  -2  -5   36.00    2.00
  -2  -3   5   44.60    2.00
   2   3   5   47.40    2.30
  -3   2   5   35.10    2.20
  -2  -3   5   42.70    2.00
  -3   2   5   34.50    2.00
  -3  -2  -5   33.70    2.20
  -3  -2  -5   35.90    1.80
   3   2   5   35.50    2.10
  -3  -2   5   35.50    1.90
  -2   3   5   36.60    1.90
  -4  -1  -5    5.40    1.00
   4   1  -5    6.30    0.80
  -4  -1  -5    8.40    0.90
   1  -4  -5   10.90    1.00
  -1   4   5    8.70    0.90
  -4  -1   5    7.10    1.00
   4   1   5   14.30    1.30
   0  -5  -5   45.50    2.40
   5   0  -5   33.30    2.20
   0   5   5   39.20    2.30
  -5   0   5   35.20    2.40
  -5   0   5   37.20    2.10
  -5   1  -5  255.77   10.50
  -1  -5  -5  240.88   10.70
   5  -1  -5  264.97   10.60
  -1  -5   5  247.98   10.50
  -5   1   5  241.28   10.50
  -5   1   5  255.97   10.90
   1   5   5  245.58   10.60
  -4   2  -5   65.39    3.10
  -2  -4  -5   70.49    3.40
  -2  -4  -5   68.59    3.50
   4  -2  -5   62.49    3.40
  -4   2   5   67.89    3.50
  -4   2   5   66.99    3.20
   2   4   5   68.29    3.40
  -2  -4   5   63.39    3.10
  -3  -3  -5  422.66   18.00
   3   3  -5  458.05   17.50
  -3   3  -5  426.26   17.50
   3   3   5  447.66   17.80
  -3   3   5  430.76   17.60
  -3  -3   5  416.56   17.60
   4   2  -5   64.19    3.20
  -4  -2  -5   61.79    3.60
  -4  -2  -5   70.39    3.20
  -2   4   5   66.79    3.20
   4   2   5   73.69    3.40
  -4  -2   5   65.49    3.40
   1  -5  -5  235.28   10.20
  -5  -1  -5  262.47   10.70
   5   1  -5  233.18   10.20
   5   1   5  246.08   10.40
  -1   5   5  243.98   10.10
  -5  -1   5  227.08   10.90
   0   6   5   18.90    2.00
  -2  -5  -5   26.80    1.90
  -5   2  -5   27.20    1.80
   2   5   5   25.70    1.90
  -2  -5   5   25.00    1.70
  -5   2   5   28.90    1.90
  -3  -4  -5    9.20    1.20
  -4   3  -5   10.80    1.10
  -3  -4  -5    9.50    1.40
  -4   3   5    9.60    1.10
   3   4   5   13.40    1.30
  -4  -3  -5    8.90    1.30
  -3   4   5    8.80    1.00
   4   3   5   10.70    1.30
  -4  -3   5   16.50    1.40
  -5  -2  -5   27.80    1.80
   5   2  -5   26.30    1.80
   5   2   5   25.60    1.90
  -2   5   5   24.00    1.70
  -5   3  -5  141.19    6.20
   3   5   5  134.39    6.70
   4   4  -5   20.20    1.50
  -4  -4  -5   23.00    2.00
   4   4   5   19.90    1.80
  -4   4   5   21.90    1.70
   5   3  -5  154.18    6.80
  -3   5   5  142.49    6.50
   0   0  -6 6595.64  253.27
   0   0   6 6590.34  253.97
   0   0   6 5969.40  253.17
   1   0  -6 1334.97   56.39
   0  -1  -6 1395.76   56.39
   0   1  -6 1486.75   56.29
  -1   0  -6 1386.76   56.39
  -1   0   6 1401.96   56.49
   0   1   6 1404.96   56.49
  -1   0   6 1460.05   56.39
   1   0   6 1384.16   56.59
   0  -1   6 1428.96   56.39
   0   1   6 1534.35   56.59
  -1  -1  -6   58.29    2.40
  -1   1  -6   47.20    2.40
  -1   1  -6   52.39    2.30
  -1  -1   6   58.89    2.40
  -1   1   6   47.00    2.40
   1   1   6   52.99    2.50
  -1   1   6   55.89    2.40
  -2   0  -6 4072.69  162.78
   0  -2  -6 4421.16  162.88
  -2   0  -6 4197.58  162.88
   2   0  -6 4173.68  163.18
  -2   0   6 4363.16  162.48
   0   2   6 4181.88  163.58
   0   2   6 3884.31  162.68
  -2   0   6 4026.60  163.58
   2   0   6 3587.84  162.58
   0  -2   6 4123.19  162.58
   1   2  -6  971.90   37.30
   2  -1  -6  919.61   37.50
  -2   1  -6  966.60   37.40
  -2   1  -6  923.31   37.70
  -1  -2  -6  906.41   37.40
  -2   1   6  914.51   37.60
  -2   1   6  944.81   37.50
  -1  -2   6  915.61   37.40
   1   2   6 1000.00   37.60
   1  -2  -6  932.41   37.50
  -2  -1  -6  933.61   37.80
   1  -2  -6  943.51   37.50
  -2  -1  -6  957.00   37.50
   2   1  -6  939.11   37.40
  -1   2  -6  927.51   37.30
   2   1   6  952.40   37.70
  -2  -1   6  954.90   37.50
  -1   2   6  918.11   37.50
  -1   2   6  950.80   37.60
   0  -3  -6  779.62   31.10
  -3   0  -6  788.52   31.50
   3   0  -6  815.52   31.20
  -3   0  -6  780.72   31.20
   0  -3  -6  778.12   31.30
  -3   0   6  794.92   31.10
  -3   0   6  788.12   31.30
   0   3   6  777.12   31.30
   0   3   6  801.52   31.30
   3   0   6  689.23   31.30
  -1  -3  -6   49.40    2.30
   3  -1  -6   52.19    2.50
  -3   1  -6   52.89    2.40
   1   3   6   50.49    2.60
  -3   1   6   48.60    2.60
  -3   1   6   52.09    2.40
  -2  -2  -6 2891.91  115.49
   2  -2  -6 2728.93  115.09
   2   2  -6 2997.70  114.99
  -2  -2  -6 3187.68  115.09
  -2   2  -6 2917.31  114.99
  -2   2   6 2903.01  115.09
  -2  -2   6 2843.82  115.09
  -2   2   6 2788.02  115.29
   2   2   6 2868.41  115.29
  -3  -1  -6   50.39    2.40
   1  -3  -6   49.80    2.40
   3   1  -6   48.90    2.40
  -3  -1  -6   48.90    2.80
   1  -3  -6   51.19    2.30
   3   1   6   53.39    2.70
  -3  -1   6   47.50    2.50
  -1   3   6   51.69    2.50
   0  -4  -6 1446.16   57.09
  -4   0  -6 1519.45   56.99
   4   0  -6 1425.56   56.99
   0   4   6 1282.97   56.99
  -4   0   6 1451.55   56.89
  -4   0   6 1446.86   57.19
  -1  -4  -6  324.37   13.70
  -4   1  -6  339.97   13.50
   4  -1  -6  306.47   13.50
  -4   1   6  337.17   13.70
  -4   1   6  333.27   13.50
   1   4   6  332.27   13.60
   3  -2  -6  585.04   22.40
  -2  -3  -6  560.64   22.70
   2   3  -6  547.75   22.20
  -3   2  -6  547.65   22.30
  -2  -3  -6  561.14   22.30
  -3   2   6  536.05   22.30
  -2  -3   6  557.24   22.30
   2   3   6  548.65   22.50
  -3   2   6  549.65   22.60
   3   2  -6  515.55   22.20
  -3  -2  -6  573.14   22.30
  -3  -2  -6  575.24   22.80
  -2   3   6  540.25   22.30
   3   2   6  522.55   22.50
  -2   3   6  571.34   23.30
  -3  -2   6  579.94   22.40
  -4  -1  -6  329.97   13.50
   4   1  -6  341.47   13.60
  -4  -1  -6  333.37   14.00
   1  -4  -6  323.97   13.60
   4   1   6  345.67   13.80
  -4  -1   6  325.47   13.70
  -1   4   6  313.47   13.50
  -5   0  -6  282.57   11.50
   0  -5  -6  266.87   11.70
   5   0  -6  259.47   11.50
  -5   0   6  287.97   12.00
   0   5   6  283.57   11.60
   5  -1  -6   35.20    2.10
  -1  -5  -6   29.00    2.10
  -5   1   6   25.60    1.90
   1   5   6   29.30    2.10
  -5   1   6   31.40    2.20
  -4   2  -6 1056.09   42.40
  -2  -4  -6 1075.69   42.90
   4  -2  -6 1092.59   42.50
  -2  -4  -6 1052.69   42.70
  -4   2   6 1082.09   42.80
   2   4   6 1007.70   42.60
  -4   2   6 1036.70   42.50
  -2  -4   6 1086.29   42.40
   3   3  -6   38.70    2.00
  -3  -3  -6   41.70    2.60
   3   3   6   40.90    2.40
  -3   3   6   41.10    2.20
  -3  -3   6   37.70    2.10
   4   2  -6 1105.09   42.20
  -4  -2  -6 1066.69   42.70
  -4  -2  -6 1041.60   42.20
  -2   4   6 1002.80   42.20
   4   2   6 1060.79   42.40
  -4  -2   6 1050.29   42.40
  -5  -1  -6   28.40    2.30
  -5  -1  -6   27.80    1.80
   1  -5  -6   23.50    1.80
   5   1  -6   24.60    1.80
  -1   5   6   29.20    1.90
  -5   2  -6  207.78    8.90
   2   5   6  212.58    9.10
  -5   2   6  206.08    8.90
  -3  -4  -6  200.18    8.80
   3   4   6  207.98    8.90
  -4   3   6  202.18    8.60
   4   3  -6  217.38    9.10
  -3   4   6  216.78    9.10
  -4  -3   6  198.68    9.20
   4   3   6  234.58    9.40
   5   2  -6  208.38    9.20
   5   2   6  223.68    9.40
  -2   5   6  214.38    9.20
  -5   3  -6   19.70    1.80
   4   4  -6  462.95   19.10
   4   4   6  474.75   19.90
  -4   4   6  477.85   19.50
   0   0  -7   55.59    2.40
   0   0   7   55.99    2.50
   0   0   7   52.39    2.50
   0   1  -7  116.89    4.60
   0  -1  -7  115.29    4.70
  -1   0  -7  109.89    4.60
   1   0  -7  110.79    4.70
  -1   0   7  111.49    4.70
   1   0   7  104.09    4.80
   0   1   7  113.69    4.80
   0   1   7  106.69    4.70
   0  -1   7  112.59    4.70
  -1   0   7  113.09    4.80
   1   1  -7  177.58    7.10
  -1  -1  -7  172.38    7.10
   1  -1  -7  183.98    7.20
  -1   1  -7  172.08    7.10
  -1   1   7  169.18    7.30
   1   1   7  170.18    7.30
  -1  -1   7  177.08    7.20
  -1   1   7  167.98    7.20
   2   0  -7   36.80    1.80
  -2   0  -7   37.40    2.20
  -2   0  -7   42.90    1.90
   0  -2  -7   40.20    1.90
   0   2  -7   39.20    1.60
   2   0   7   34.00    2.10
   0   2   7   41.10    2.00
  -2   0   7   36.70    2.00
   0  -2   7   37.80    1.70
   0   2   7   38.60    2.00
   2  -1  -7   86.59    3.60
   1   2  -7   82.89    3.40
  -1  -2  -7   81.19    3.60
  -2   1  -7   81.99    3.50
  -2   1   7   79.29    3.60
   1   2   7   81.29    3.70
  -1  -2   7   79.99    3.50
  -2   1   7   79.69    3.70
  -1   2  -7   76.79    3.30
   2   1  -7   80.29    3.40
   1  -2  -7   79.79    3.50
  -2  -1  -7   79.79    3.90
   1  -2  -7   86.49    3.50
  -2  -1  -7   76.69    3.50
  -1   2   7   84.09    3.60
  -2  -1   7   80.59    3.60
   2   1   7   74.29    3.70
  -1   2   7   80.09    3.70
  -3   0  -7   70.59    3.60
   0  -3  -7   76.99    3.20
   3   0  -7   63.19    3.20
   0  -3  -7   74.89    3.40
  -3   0  -7   77.29    3.20
   0   3   7   70.29    3.30
   0   3   7   73.69    3.30
  -3   0   7   71.59    3.20
  -3   0   7   67.59    3.40
   3   0   7   54.49    4.00
  -3   1  -7   82.39    3.70
  -1  -3  -7   88.79    3.70
   1   3   7   84.99    3.90
  -3   1   7   81.59    3.70
  -3   1   7   85.39    4.00
  -2  -2  -7   30.90    1.60
   2   2  -7   30.80    1.50
   2  -2  -7   32.10    1.70
  -2   2  -7   30.10    1.50
  -2  -2  -7   33.20    2.10
  -2   2   7   30.40    1.80
  -2   2   7   30.80    1.70
   2   2   7   28.90    1.90
  -2  -2   7   32.40    1.60
   1  -3  -7   77.49    3.60
  -3  -1  -7   93.89    4.20
   3   1  -7   79.09    3.60
  -3  -1  -7   83.19    3.70
   1  -3  -7   79.79    3.70
  -1   3   7   82.49    3.80
  -1   3   7   84.19    3.70
  -3  -1   7   82.29    3.80
   3   1   7   80.79    3.90
  -4   0  -7   21.00    1.50
   0  -4  -7   18.10    1.60
   0   4   7   21.90    1.60
  -4   0   7   21.20    1.40
  -4   0   7   22.70    1.70
   4  -1  -7   35.30    2.00
  -1  -4  -7   30.40    2.10
  -4   1  -7   31.90    1.90
  -4   1   7   34.20    2.20
   1   4   7   32.40    2.10
  -4   1   7   29.70    1.90
  -2  -3  -7   63.29    3.20
  -3   2  -7   53.59    2.60
   3  -2  -7   54.99    2.70
  -2  -3  -7   54.39    2.60
   2   3   7   50.99    2.80
  -3   2   7   51.29    2.70
  -3   2   7   57.39    2.90
  -2  -3   7   54.19    2.50
   3   2  -7   58.49    2.70
  -3  -2  -7   58.69    3.20
  -3  -2  -7   55.99    2.70
  -2   3   7   58.09    2.80
  -2   3   7   52.69    2.90
  -3  -2   7   52.59    2.80
   3   2   7   59.19    3.00
   4   1  -7   28.70    1.80
  -4  -1  -7   32.30    1.90
  -4  -1  -7   31.90    2.30
   1  -4  -7   35.60    2.00
  -4  -1   7   33.70    2.10
  -1   4   7   33.70    2.00
   4   1   7   36.00    2.20
  -5   0  -7   33.50    2.10
   0  -5  -7   32.00    2.20
   5   0  -7   39.20    2.20
   0   5   7   33.20    2.20
  -1  -5  -7   25.60    2.10
  -5   1  -7   24.90    1.80
   5  -1  -7   26.50    1.90
   1   5   7   28.80    2.10
  -5   1   7   28.10    1.80
   4  -2  -7   18.00    1.50
  -4   2  -7   23.90    1.50
  -2  -4  -7   13.10    1.60
  -2  -4  -7   16.30    1.70
  -4   2   7   17.20    1.60
   2   4   7   17.70    1.60
  -4   2   7   16.40    1.40
  -3  -3  -7   53.09    3.00
   3   3  -7   46.80    2.30
  -3  -3   7   46.20    2.40
   3   3   7   45.70    2.70
  -3   3   7   44.60    2.40
   4   2  -7   15.40    1.30
  -4  -2  -7   14.80    1.30
  -4  -2  -7   25.50    2.00
  -2   4   7   16.10    1.40
   4   2   7   15.50    1.50
  -4  -2   7   15.90    1.50
   5   1  -7   25.20    1.90
   1  -5  -7   26.80    1.90
  -5  -1  -7   26.40    1.80
  -1   5   7   31.00    2.00
   2   5   7   26.20    2.10
  -5   2   7   23.60    1.80
  -3  -4  -7   21.70    1.80
   3   4   7   22.90    1.90
  -4   3   7   21.10    1.70
   4   3  -7   20.80    1.50
   4   3   7   25.00    1.80
  -3   4   7   21.00    1.60
  -5  -2  -7   24.80    1.80
   5   2  -7   28.50    1.90
  -2   5   7   23.70    1.80
   5   2   7   23.40    2.00
   0   0   8    0.70    0.40
   0   0   8    1.20    0.50
   0   1  -8 1297.07   53.99
   0  -1  -8 1396.36   54.19
   1   0  -8 1396.76   54.09
  -1   0  -8 1420.26   54.09
  -1   0   8 1346.87   54.19
  -1   0   8 1391.96   54.29
   0   1   8 1292.07   54.29
   1   0   8 1357.96   54.29
   0   1   8 1320.17   54.19
   0  -1   8 1407.46   54.19
   1  -1  -8 3050.29  123.69
   1   1  -8 3135.89  123.69
  -1  -1  -8 2958.30  123.69
  -1   1  -8 3113.99  123.69
   1   1   8 3224.48  123.89
  -1   1   8 3159.28  123.89
  -1  -1   8 3202.48  124.19
  -1   1   8 3135.09  123.79
  -2   0  -8    3.90    0.60
  -2   0  -8    4.10    0.80
   0   2  -8    3.00    0.40
   2   0  -8    2.90    0.50
   0  -2  -8    7.50    0.70
  -2   0   8    3.40    0.60
   0  -2   8    3.90    0.40
   0   2   8    2.60    0.60
   0   2   8    1.70    0.60
  -2   0   8    3.40    0.50
   2   0   8    3.20    0.70
   2  -1  -8 1005.40   41.50
  -2   1  -8 1079.79   41.40
  -1  -2  -8 1029.10   41.50
   1   2  -8 1077.99   41.30
  -1  -2   8 1031.20   41.40
  -2   1   8 1057.59   41.50
  -2   1   8 1008.80   41.60
   1   2   8 1031.00   41.60
  -2  -1  -8 1022.80   40.50
   2   1  -8 1020.20   40.40
  -2  -1  -8 1040.70   40.90
  -1   2  -8  994.60   40.30
   1  -2  -8 1005.40   40.50
  -1   2   8  997.80   40.50
  -1   2   8  986.80   40.60
  -2  -1   8  998.90   40.50
   2   1   8 1068.39   40.70
  -3   0  -8  660.13   26.50
   0  -3  -8  671.13   26.50
   0  -3  -8  643.04   26.80
   3   0  -8  657.93   26.50
  -3   0   8  652.73   26.40
   0   3   8  685.33   26.70
   0   3   8  667.93   26.60
  -3   0   8  642.64   26.70
  -1  -3  -8 1592.34   60.89
   3  -1  -8 1548.25   60.99
  -3   1  -8 1523.75   60.89
   1   3   8 1533.95   61.09
  -3   1   8 1470.65   60.89
  -3   1   8 1516.65   61.19
   2   2  -8    4.80    0.60
  -2  -2  -8    4.50    0.70
  -2  -2  -8    8.40    1.10
   2   2   8    4.60    0.80
  -2  -2   8    4.10    0.60
  -2   2   8    3.10    0.70
  -2   2   8    9.50    0.90
   1  -3  -8 1503.45   58.59
  -3  -1  -8 1417.16   58.99
   3   1  -8 1397.46   58.49
   1  -3  -8 1523.05   58.49
  -3  -1  -8 1547.85   58.59
   3   1   8 1466.45   58.69
  -3  -1   8 1439.86   58.69
  -1   3   8 1506.65   58.79
  -1   3   8 1428.66   58.59
  -4   0  -8    6.70    0.90
   4   0  -8    6.20    0.90
   0  -4  -8    6.20    1.10
   0   4   8    5.20    0.90
  -4   0   8    5.80    0.90
  -1  -4  -8  475.25   20.00
  -4   1  -8  489.95   19.70
   4  -1  -8  461.15   19.70
  -4   1   8  507.35   20.00
  -4   1   8  483.95   19.70
   1   4   8  494.15   19.90
  -2  -3  -8  468.25   21.10
  -2  -3  -8  531.55   20.70
  -3   2  -8  512.55   20.60
   3  -2  -8  525.65   20.70
   2   3   8  518.35   20.90
  -3   2   8  509.35   20.70
  -3   2   8  515.95   21.00
  -3  -2  -8  503.45   21.10
   3   2  -8  521.95   21.10
  -3  -2  -8  530.45   21.70
  -2   3   8  519.25   21.20
   3   2   8  560.04   21.40
  -2   3   8  493.65   21.30
  -3  -2   8  536.05   21.20
   1  -4  -8  480.75   20.10
   4   1  -8  528.25   20.00
  -4  -1  -8  492.55   20.50
  -4  -1  -8  472.05   20.00
   4   1   8  471.15   20.30
  -1   4   8  518.55   20.10
  -4  -1   8  479.45   20.20
   5   0  -8  201.18    8.30
  -5   0  -8  191.08    8.30
   0  -5  -8  190.58    8.60
   0   5   8  188.18    8.40
  -5   1  -8  463.75   19.50
   5  -1  -8  490.55   19.60
  -5   1   8  470.55   19.50
   1   5   8  481.15   19.70
  -4   2  -8    5.90    0.90
  -2  -4  -8    6.80    1.30
  -2  -4  -8    6.80    1.20
   4  -2  -8   11.30    1.10
  -4   2   8    3.10    0.80
   2   4   8    6.70    1.10
   3   3  -8  815.32   33.30
  -3  -3  -8  761.12   33.40
  -3  -3  -8  913.41   34.00
  -3   3   8  806.72   33.40
   3   3   8  857.91   33.60
  -3  -3   8  836.72   33.40
  -4  -2  -8    5.80    0.90
   4   2  -8    5.20    0.80
  -4  -2  -8    5.70    1.20
  -4  -2   8    6.00    1.00
  -2   4   8    5.90    0.90
   4   2   8    6.10    1.00
  -5  -1  -8  443.26   18.60
   5   1  -8  461.05   18.60
  -1   5   8  455.95   18.70
  -5   2   8  160.28    7.20
   3   4   8  271.67   11.80
  -4   3   8  283.47   11.70
   4   3  -8  282.67   11.80
   4   3   8  285.47   12.10
  -3   4   8  286.77   12.00
  -5  -2  -8  163.48    7.30
   5   2   8  171.58    7.70
   0   0  -9  603.84   23.10
   0   0   9  610.24   23.20
   0   0   9  520.65   23.20
   0   1  -9   18.10    1.00
  -1   0  -9   20.10    1.10
   0  -1  -9   17.00    1.10
   1   0  -9   17.50    1.10
   0   1   9   20.00    1.30
   0   1   9   19.60    1.30
   0  -1   9   17.50    1.10
   1   0   9   14.90    1.20
  -1   0   9   16.70    1.20
  -1   0   9   17.70    1.10
  -1   1  -9  207.08    8.50
   1   1  -9  203.78    8.50
  -1  -1  -9  208.78    8.60
   1  -1  -9  208.78    8.60
  -1   1   9  213.68    8.80
  -1  -1   9  198.58    8.60
   1   1   9  212.68    8.70
  -1   1   9  215.08    8.60
  -2   0  -9  377.46   15.70
   2   0  -9  379.86   15.70
   0  -2  -9  402.86   15.80
   0   2  -9  371.26   15.60
  -2   0   9  389.86   15.90
   0  -2   9  378.56   15.70
  -2   0   9  378.56   15.80
   0   2   9  436.26   15.90
   0   2   9  393.06   16.00
  -1  -2  -9   17.00    1.10
   2  -1  -9   14.30    1.10
   1   2  -9   16.10    0.90
  -2   1  -9   14.40    1.10
  -2   1   9   16.30    1.30
  -2   1   9   16.60    1.20
  -1  -2   9   17.70    1.10
   1   2   9   19.30    1.40
  -2  -1  -9   15.40    1.50
   1  -2  -9   16.50    1.20
  -2  -1  -9   15.20    1.20
   2   1  -9   16.50    1.10
  -1   2  -9   21.70    1.00
  -1   2   9   14.70    1.30
   2   1   9   17.80    1.40
  -2  -1   9   18.10    1.20
  -1   2   9   17.00    1.30
   0  -3  -9    7.40    0.80
  -3   0  -9    9.50    0.90
   3   0  -9    8.10    0.90
   0   3   9    7.60    1.00
  -3   0   9    8.10    1.00
   0   3   9    7.30    0.90
  -1  -3  -9   87.49    4.00
   3  -1  -9   83.69    4.10
  -3   1  -9   86.49    4.00
   1   3   9   97.39    4.30
  -3   1   9   87.39    4.30
  -3   1   9  100.79    4.10
  -2  -2  -9  266.37   11.00
  -2  -2  -9  268.67   11.50
   2  -2  -9  290.27   11.10
  -2   2  -9  259.87   10.90
   2   2  -9  259.97   10.90
   2   2   9  266.97   11.20
  -2   2   9  267.97   11.10
  -2   2   9  264.47   11.20
  -2  -2   9  265.67   11.00
  -3  -1  -9   83.49    4.00
   1  -3  -9  101.19    4.00
  -3  -1  -9   86.19    4.50
   3   1  -9   86.89    3.90
   1  -3  -9   89.49    4.10
  -1   3   9   88.19    4.10
   3   1   9   90.09    4.20
  -1   3   9   89.99    4.20
  -3  -1   9   80.59    4.10
  -4   0  -9  148.19    6.40
   4   0  -9  144.39    6.40
   0  -4  -9  140.39    6.70
  -4   0   9  150.98    6.70
   0   4   9  150.68    6.60
  -4   1  -9   12.00    1.20
   4  -1  -9   16.60    1.40
  -1  -4  -9   17.40    1.90
  -4   1   9   10.10    1.10
   1   4   9   11.10    1.30
  -4   1   9   12.50    1.40
  -3   2  -9    9.30    0.90
  -2  -3  -9    7.10    0.90
   3  -2  -9    6.90    0.90
  -2  -3  -9   11.70    1.40
  -3   2   9    8.70    1.00
  -3   2   9    6.60    1.00
   2   3   9    8.10    1.10
  -3  -2  -9    5.80    0.90
  -3  -2  -9    6.60    1.20
   2  -3  -9    8.30    1.10
   3   2  -9   12.30    0.90
  -3  -2   9    8.30    0.90
  -2   3   9    7.00    1.00
  -2   3   9    9.30    1.10
   3   2   9   11.90    1.20
   4   1  -9   12.90    1.10
  -4  -1  -9   14.80    1.30
  -1   4   9    9.40    1.20
  -4  -1   9   13.00    1.30
   5   0  -9    2.60    0.90
  -5   0  -9    2.90    0.90
   0   5   9    2.20    1.00
  -5   1  -9   21.20    1.80
   5  -1  -9   21.10    1.80
   1   5   9   25.80    2.50
  -4   2  -9  105.09    4.90
   4  -2  -9  112.49    5.00
  -2  -4  -9  103.39    5.30
   2   4   9  116.19    5.20
  -4   2   9  110.89    5.00
  -4   2   9  108.79    5.30
  -3  -3  -9   40.40    2.80
  -3  -3  -9   42.90    2.30
   3   3  -9   41.90    2.10
  -3  -3   9   40.20    2.20
  -3   3   9   39.10    2.40
   3   3   9   43.40    2.60
  -4  -2  -9  110.39    5.10
  -4  -2  -9  113.39    5.70
   4   2  -9  108.69    5.00
  -2   4   9  115.59    5.20
   4   2   9  122.99    5.30
  -5  -1  -9   28.70    2.20
  -1   5   9   28.40    2.90
  -4   3   9    7.90    1.10
   3   4   9    9.70    1.30
   4   3  -9    5.40    0.90
   4   3   9    6.30    1.10
  -3   4   9    7.50    1.10
   0   0 -10 2250.27   87.09
   0   0  10 2142.09   87.29
   0   1 -10  406.36   16.30
   0  -1 -10  418.36   16.40
   1   0 -10  385.36   16.30
  -1   0 -10  392.56   16.30
   0   1  10  430.46   16.50
   0  -1  10  413.96   16.40
   0   1  10  382.66   16.50
  -1   0  10  407.26   16.50
  -1   1 -10  680.73   26.80
  -1  -1 -10  632.64   26.80
   1  -1 -10  653.73   26.80
   1   1 -10  665.03   26.80
  -1   1  10  671.53   26.90
  -1   1  10  704.13   27.10
   1   1  10  702.13   27.00
  -1  -1  10  647.44   26.90
  -2   0 -10 1521.45   58.99
   0  -2 -10 1368.56   58.89
   0   2 -10 1424.96   58.89
   2   0 -10 1582.24   58.99
   0  -2  10 1477.05   58.89
   0   2  10 1515.05   59.19
   0   2  10 1489.95   59.09
  -2   0  10 1473.65   59.09
   1   2 -10  289.87   11.60
  -1  -2 -10  284.37   11.80
  -2   1 -10  286.27   11.70
  -2   1  10  290.67   12.00
  -1  -2  10  284.07   11.70
   1   2  10  286.87   12.00
  -2   1  10  289.57   11.80
   1  -2 -10  296.17   11.90
  -2  -1 -10  280.07   12.20
   2   1 -10  283.97   11.70
  -2  -1 -10  290.67   11.80
  -1   2  10  286.57   12.00
   2   1  10  308.07   12.00
  -1   2  10  296.77   11.90
  -2  -1  10  267.77   11.90
   0  -3 -10  241.78    9.90
   3   0 -10  238.18    9.90
  -3   0 -10  236.58    9.90
   0   3  10  233.68   10.10
  -3   0  10  236.98   10.10
   0   3  10  240.58   10.10
  -1  -3 -10  396.46   16.60
  -3   1 -10  388.56   16.50
  -3   1  10  427.76   16.90
  -3   1  10  407.26   16.60
   1   3  10  417.26   16.80
  -2  -2 -10 1142.69   43.90
   2   2 -10 1090.49   43.20
  -2   2 -10 1067.29   43.20
   2  -2 -10 1114.19   43.40
  -2  -2 -10 1053.99   43.40
  -2   2  10 1063.09   43.40
  -2   2  10 1082.39   43.60
  -2  -2  10 1073.59   43.40
   2   2  10 1080.99   43.50
  -3  -1 -10  435.26   16.70
   1  -3 -10  407.26   16.70
   3   1 -10  397.36   16.60
  -1   3  10  414.66   16.90
  -1   3  10  398.96   16.80
  -3  -1  10  403.06   16.80
   0  -4 -10  581.74   25.90
  -4   0 -10  701.43   25.60
   4   0 -10  626.44   25.50
   0   4  10  608.84   25.70
   4  -1 -10  115.89    5.10
  -4   1 -10  113.09    5.10
  -1  -4 -10  108.79    5.50
   1   4  10  109.89    5.30
  -3   2 -10  177.08    7.70
   3  -2 -10  193.08    7.80
  -2  -3 -10  174.28    7.70
  -2  -3 -10  197.58    8.30
  -3   2  10  189.58    8.10
   2   3  10  168.48    7.90
  -3   2  10  177.98    7.80
   3   2 -10  170.88    7.20
   2  -3 -10  169.28    7.30
  -3  -2 -10  169.98    7.30
  -3  -2 -10  162.98    7.80
  -2   3  10  175.38    7.40
  -2   3  10  163.88    7.50
   3   2  10  182.48    7.50
  -3  -2  10  167.58    7.40
   4   1 -10  117.59    5.10
  -4  -1 -10  112.69    5.20
  -1   4  10  113.99    5.30
  -4   2 -10  477.85   19.60
   4  -2 -10  479.55   19.60
  -4   2  10  474.75   19.70
   2   4  10  490.95   19.90
  -3  -3 -10  269.47   11.00
   3   3  10  248.18   11.20
  -3   3  10  272.87   11.10
   4   2 -10  464.45   18.70
  -4  -2 -10  465.35   18.80
  -2   4  10  452.95   18.90
   4   2  10  448.36   19.50
   4   3 -10   74.49    3.60
   0   0 -11  544.95   21.80
   0   0  11  541.05   22.00
   1   0 -11    0.10    0.40
   0   1 -11    0.40    0.40
  -1   0 -11    0.60    0.50
   0  -1 -11    0.90    0.50
  -1   0  11    0.40    0.50
   0   1  11    1.10    0.60
   0   1  11    1.50    0.60
   0  -1  11    1.70    0.50
   1   1 -11  243.58   10.30
  -1  -1 -11  270.07   10.40
   1  -1 -11  243.58   10.40
  -1   1 -11  248.78   10.30
  -1  -1  11  249.78   10.50
  -1   1  11  258.97   10.50
  -1   1  11  251.77   10.60
   1   1  11  257.37   10.50
   2   0 -11  357.56   15.20
  -2   0 -11  378.06   15.20
   0  -2 -11  358.06   15.20
  -2   0  11  384.26   15.40
   0   2  11  378.76   15.50
   0   2  11  394.76   15.30
   0  -2  11  360.86   15.10
   1   2 -11    1.50    0.40
  -1  -2 -11    2.70    0.70
  -2   1 -11    1.60    0.60
   2  -1 -11    1.90    0.60
  -1  -2  11    2.20    0.50
  -2   1  11    1.40    0.70
   1   2  11    1.10    0.70
  -2   1  11    3.40    0.70
  -2  -1 -11    1.10    0.60
   1  -2 -11    4.00    0.70
   2   1 -11    5.30    0.70
  -2  -1  11    1.50    0.60
  -1   2  11    1.60    0.60
  -3   0 -11    1.10    0.60
   0  -3 -11   -0.40    0.50
   3   0 -11    0.80    0.60
  -3   0  11    1.10    0.70
   0   3  11    1.00    0.60
   0   3  11   -0.40    0.70
  -1  -3 -11  114.99    5.60
  -3   1 -11  127.79    5.70
   1   3  11  142.79    6.00
  -3   1  11  136.19    6.00
  -2  -2 -11  264.37   11.40
   2   2 -11  262.27   10.70
  -2   2 -11  265.37   10.80
   2  -2 -11  269.17   10.90
  -2  -2 -11  262.57   10.90
   2   2  11  270.27   11.10
  -2   2  11  254.17   10.90
  -2   2  11  254.17   11.10
  -2  -2  11  260.57   10.90
  -3  -1 -11  125.79    5.60
   1  -3 -11  122.59    5.50
   3   1 -11  124.29    5.50
  -1   3  11  140.79    5.70
  -3  -1  11  120.29    5.60
  -1   3  11  121.89    5.80
   0  -4 -11  132.59    6.80
  -4   0 -11  145.49    6.30
   4   0 -11  144.49    6.30
   0   4  11  140.69    6.40
  -1  -4 -11    3.40    1.40
   4  -1 -11    2.80    0.80
  -4   1 -11    4.60    0.90
   1   4  11    1.80    0.90
  -2  -3 -11    0.90    0.60
  -3   2 -11    0.30    0.60
  -2  -3 -11    1.10    0.90
   3  -2 -11   -0.40    0.60
  -3   2  11    0.50    0.70
   2   3  11   -0.40    0.80
  -3   2  11    0.40    0.70
  -3  -2 -11    0.20    0.60
  -3  -2 -11   -0.80    0.70
   3   2 -11    1.20    0.60
   2  -3 -11   -0.10    0.60
  -2   3  11   -0.10    0.70
  -3  -2  11    0.60    0.60
   3   2  11    0.40    0.70
  -2   3  11    0.40    0.70
   4   1 -11    2.70    0.80
  -4  -1 -11    3.20    0.80
  -1   4  11    2.60    0.90
   4  -2 -11  109.39    5.10
  -4   2 -11  114.59    5.10
  -4   2  11  111.49    5.10
   2   4  11  106.39    5.30
  -3  -3 -11   70.09    3.40
  -3   3  11   63.39    3.50
   3   3  11   72.09    3.60
  -4  -2 -11  118.39    5.10
   4   2 -11  105.59    4.90
  -2   4  11  103.39    5.20
   0   0 -12  672.03   27.30
   0   0  12  688.33   27.50
  -1   0 -12  726.93   29.40
   0   1 -12  733.93   29.30
   0  -1 -12  717.53   29.40
   1   0 -12  725.13   29.40
   0   1  12  740.23   29.70
   0  -1  12  750.52   29.50
  -1   0  12  740.63   29.60
   1   1 -12  105.29    4.00
   1  -1 -12   86.89    4.00
  -1   1 -12   78.59    3.90
  -1  -1 -12   98.79    4.10
  -1   1  12   84.59    4.20
  -1  -1  12   82.79    4.10
   0  -2 -12  492.95   21.40
  -2   0 -12  519.15   21.40
   2   0 -12  539.95   21.40
   0   2  12  547.65   21.70
   0   2  12  512.55   21.50
  -2   0  12  558.94   21.60
  -2   1 -12  563.04   23.10
  -1  -2 -12  554.54   23.20
   2  -1 -12  586.04   23.20
   1   2 -12  589.24   23.00
  -1  -2  12  572.04   23.10
  -2   1  12  588.94   23.40
   1   2  12  555.64   23.30
   1  -2 -12  554.94   23.10
   2   1 -12  556.34   23.00
  -2  -1 -12  549.65   23.10
  -1   2  12  592.14   23.40
  -2  -1  12  590.64   23.20
  -1   2  12  581.64   23.20
   3   0 -12  450.95   18.10
   0  -3 -12  441.26   18.10
  -3   0 -12  446.96   18.10
   0   3  12  434.46   18.30
  -3   0  12  430.26   18.30
   0   3  12  453.05   18.30
   3  -1 -12   47.30    2.60
  -1  -3 -12   50.29    2.60
  -3   1 -12   48.50    2.60
   1   3  12   49.10    2.80
  -3   1  12   49.60    3.40
  -2  -2 -12  394.16   16.10
   2   2 -12  375.66   15.40
  -2  -2 -12  360.96   15.50
   2  -2 -12  361.16   15.50
   2   2  12  394.66   15.70
  -2  -2  12  381.76   15.50
  -2   2  12  372.66   15.60
  -2   2  12  389.36   15.80
   1  -3 -12   50.49    2.70
  -3  -1 -12   47.10    2.70
   3   1 -12   54.99    2.60
  -1   3  12   51.89    2.90
  -3  -1  12   49.70    2.90
  -1   3  12   45.80    2.80
   4   0 -12  215.78    9.40
  -4   0 -12  215.08    9.50
   0   4  12  236.28    9.70
  -4   1 -12  269.97   11.20
   4  -1 -12  244.98   11.10
   1   4  12  279.17   11.40
  -3   2 -12  337.87   14.30
   3  -2 -12  331.97   14.40
  -2  -3 -12  358.06   14.40
  -3   2  12  353.06   14.40
   2   3  12  359.36   14.60
  -3  -2 -12  343.07   14.20
   2  -3 -12  340.27   14.30
   3   2 -12  331.67   14.10
  -2   3  12  337.07   14.60
  -2   3  12  366.36   14.40
   4   1 -12  273.77   11.10
  -4  -1 -12  267.57   11.20
  -1   4  12  248.88   11.30
  -3  -3 -12   32.40    2.10
   3   3  12   26.80    2.10
  -3   3  12   33.10    2.20
   0   0 -13   21.70    1.40
   0   0  13   19.50    1.60
   1   0 -13    1.70    0.60
   0  -1 -13    2.60    0.70
  -1   0 -13    3.10    0.60
   0   1 -13    2.40    0.60
  -1   0  13    1.70    0.70
   0  -1  13    2.40    0.70
   0   1  13    1.50    0.70
   1   1 -13  132.39    5.70
   1  -1 -13  137.09    5.80
  -1  -1 -13  127.59    5.80
  -1   1 -13  132.49    5.70
  -1   1  13  141.59    6.10
  -1  -1  13  136.39    6.00
  -2   0 -13   16.80    1.30
   0  -2 -13   15.10    1.30
   2   0 -13   14.40    1.20
   0   2  13   11.80    1.30
  -2   0  13   14.30    1.40
   0   2  13   13.50    1.40
   1   2 -13    2.70    0.70
   2  -1 -13    0.40    0.60
  -1  -2 -13    1.00    0.60
  -2   1 -13    3.40    0.70
  -2   1  13    1.80    0.80
   1   2  13    1.40    0.80
   2   1 -13    1.40    0.60
  -2  -1 -13    1.40    0.70
   1  -2 -13    1.10    0.70
  -2  -1  13    1.50    0.70
  -1   2  13    2.50    0.80
  -1   2  13    0.80    0.70
   3   0 -13    1.70    0.70
   0  -3 -13    3.20    0.80
  -3   0 -13    3.80    0.80
   0   3  13    2.00    0.90
   3  -1 -13   70.09    3.60
  -3   1 -13   77.29    3.70
  -1  -3 -13   75.79    3.70
   1   3  13   82.09    3.90
   2   2 -13    8.50    0.90
  -2  -2 -13    7.60    1.00
   2  -2 -13    8.10    1.00
  -2  -2  13   10.00    1.10
  -2   2  13    7.40    1.10
   3   1 -13   81.79    3.80
  -3  -1 -13   75.79    3.80
   1  -3 -13   78.39    3.80
  -1   3  13   79.49    4.00
  -2  -3 -13    3.30    0.80
   3  -2 -13    2.60    0.80
   2   3  13    1.90    0.90
   2  -3 -13    1.30    1.10
   3   2 -13    2.20    0.70
  -3  -2 -13    1.40    0.70
  -2   3  13    0.80    0.90
   0   0 -14  130.19    5.60
   0   0  14  124.39    5.80
   1   0 -14  187.98    7.90
  -1   0 -14  179.88    7.90
   0   1 -14  196.58    7.90
   0  -1 -14  189.28    7.90
   0  -1  14  179.18    8.00
  -1   0  14  186.38    8.10
   0   1  14  190.18    8.20
  -1   1 -14 1030.20   42.00
   1  -1 -14 1045.60   42.10
   1   1 -14 1067.09   42.00
  -1  -1 -14 1077.29   42.10
  -1   1  14 1075.89   42.40
  -1  -1  14 1012.70   42.20
  -2   0 -14  106.79    4.50
   2   0 -14   94.09    4.40
   0  -2 -14   93.79    4.50
   2  -1 -14  138.59    6.60
  -1  -2 -14  159.68    6.70
  -2   1 -14  156.28    6.60
  -2  -1 -14  158.08    6.60
   1  -2 -14  144.89    6.50
   2   1 -14  146.49    6.40
   0  -3 -14  114.29    5.10
   3   0 -14  105.49    4.90
  -3   0 -14  106.49    5.00
   0   3  14  111.99    5.20
  -1  -3 -14  623.54   25.30
  -3   1 -14  646.14   25.30
   3  -1 -14  590.74   25.40
   1   3  14  632.34   25.50
   2  -2 -14   86.59    4.10
   2   2 -14   84.59    3.90
  -2  -2 -14   89.99    4.20
   3   1 -14  617.94   25.00
  -3  -1 -14  582.54   25.20
   1  -3 -14  664.93   25.20
  -1   3  14  606.54   25.20
   0   0 -15   12.10    1.10
  -1   0 -15   20.80    1.50
   1   0 -15   20.70    1.50
   0  -1 -15   26.10    1.60
   0   1 -15   22.30    1.50
  -1  -1 -15    1.30    0.70
   1  -1 -15    1.70    0.70
   1   1 -15    1.70    0.60
  -1   1 -15    0.60    0.60
   2   0 -15   10.00    1.10
  -2   0 -15    8.70    1.10
   0  -2 -15   12.70    1.20
   2  -1 -15   15.50    1.40
  -1  -2 -15   15.00    1.40
  -2   1 -15   18.40    1.50
  -2  -1 -15   18.20    1.50
   1  -2 -15   14.10    1.30
   2   1 -15   16.90    1.40
   2   2 -15    6.20    0.90
   0   0 -16  417.76   17.10
  -1   0 -16  221.88    9.60
   1   0 -16  222.68    9.60
   0   1 -16  244.18    9.60
   0  -1 -16  223.88    9.70
  -1  -1 -16   47.80    2.80
   1  -1 -16   52.49    3.10
  -1   1 -16   49.60    2.60
   1   1 -16   52.39    2.60
   0   0   0    0.00    0.00

_computing_structure_solution     'SHELXT 2014/5 (Sheldrick, 2014)'
;
_shelx_hkl_checksum              73676
_olex2_submission_special_instructions 'No special instructions were received'
loop_
_space_group_symop_operation_xyz
'x, y, z'
'-x, -y, z'
'-y, x, z'
'y, -x, z'
'-x, y, -z'
'x, -y, -z'
'y, x, -z'
'-y, -x, -z'
'-x, -y, -z'
'x, y, -z'
'y, -x, -z'
'-y, x, -z'
'x, -y, z'
'-x, y, z'
'-y, -x, z'
'y, x, z'
loop_
_atom_site_label
_atom_site_type_symbol
_atom_site_fract_x
_atom_site_fract_y
_atom_site_fract_z
_atom_site_U_iso_or_equiv
_atom_site_adp_type
_atom_site_occupancy
_atom_site_site_symmetry_order
_atom_site_calc_flag
_atom_site_refinement_flags_posn
_atom_site_refinement_flags_adp
_atom_site_refinement_flags_occupancy
_atom_site_disorder_assembly
_atom_site_disorder_group
Cs1 Cs 0.0000 0.0000 0.5000 0.01591(13) Uani 1 16 d S T P . .
Cu1 Cu 0.0000 0.5000 0.18067(5) 0.02039(14) Uani 1 4 d S T P . .
Cu2 Cu 0.5000 0.5000 0.0000 0.0213(17) Uani 0.173(6) 16 d S T P . .
S1 S 0.5000 0.5000 0.29314(11) 0.0115(2) Uani 1 8 d S T P . .
Te1 Te 0.0000 0.0000 0.0000 0.01406(13) Uani 1 16 d S T P . .
loop_
_atom_site_aniso_label
_atom_site_aniso_U_11
_atom_site_aniso_U_22
_atom_site_aniso_U_33
_atom_site_aniso_U_23
_atom_site_aniso_U_13
_atom_site_aniso_U_12
Cs1 0.01519(15) 0.01519(15) 0.0174(2) 0.000 0.000 0.000
Cu1 0.0119(2) 0.0240(2) 0.0252(2) 0.000 0.000 0.000
Cu2 0.022(2) 0.022(2) 0.019(3) 0.000 0.000 0.000
S1 0.0103(3) 0.0103(3) 0.0139(4) 0.000 0.000 0.000
Te1 0.01600(16) 0.01600(16) 0.01017(19) 0.000 0.000 0.000
loop_
_atom_type_symbol
_atom_type_description
_atom_type_scat_dispersion_real
_atom_type_scat_dispersion_imag
_atom_type_scat_source
Cs Cs -0.3680 2.1192 'International Tables Vol C Tables 4.2.6.8 and 6.1.1.4'
Cu Cu 0.3201 1.2651 'International Tables Vol C Tables 4.2.6.8 and 6.1.1.4'
S S 0.1246 0.1234 'International Tables Vol C Tables 4.2.6.8 and 6.1.1.4'
Te Te -0.5308 1.6751 'International Tables Vol C Tables 4.2.6.8 and 6.1.1.4'
loop_
_geom_angle_atom_site_label_1
_geom_angle_atom_site_label_2
_geom_angle_atom_site_label_3
_geom_angle
_geom_angle_site_symmetry_1
_geom_angle_site_symmetry_3
_geom_angle_publ_flag
Cu1 Cs1 Cu1 180.0 11_556 3 ?
Cu1 Cs1 Cu1 180.0 9_566 1_545 ?
Cu1 Cs1 Cu1 138.565(10) 11_556 1_545 ?
Cu1 Cs1 Cu1 138.565(10) 3 9_566 ?
Cu1 Cs1 Cu1 41.435(9) 11_556 9_566 ?
Cu1 Cs1 Cu1 41.435(9) 3 1_545 ?
S1 Cs1 Cu1 35.401(12) 9_656 11_556 ?
S1 Cs1 Cu1 105.111(18) 1_455 9_566 ?
S1 Cs1 Cu1 74.889(18) . 3 ?
S1 Cs1 Cu1 144.599(12) 9_566 1_545 ?
S1 Cs1 Cu1 74.889(18) 9_556 9_566 ?
S1 Cs1 Cu1 35.401(12) 9_566 9_566 ?
S1 Cs1 Cu1 144.599(12) 9_666 1_545 ?
S1 Cs1 Cu1 105.111(18) 1_545 11_556 ?
S1 Cs1 Cu1 74.889(18) 1_455 1_545 ?
S1 Cs1 Cu1 144.599(12) 1_545 9_566 ?
S1 Cs1 Cu1 35.401(12) 9_666 9_566 ?
S1 Cs1 Cu1 105.111(18) 9_656 1_545 ?
S1 Cs1 Cu1 35.401(12) 1_455 3 ?
S1 Cs1 Cu1 74.889(18) 9_556 11_556 ?
S1 Cs1 Cu1 74.889(18) 1_545 3 ?
S1 Cs1 Cu1 74.889(18) . 1_545 ?
S1 Cs1 Cu1 105.111(18) 9_556 3 ?
S1 Cs1 Cu1 144.599(12) 9_666 3 ?
S1 Cs1 Cu1 105.111(18) . 11_556 ?
S1 Cs1 Cu1 144.599(12) 1_455 11_556 ?
S1 Cs1 Cu1 105.111(18) . 9_566 ?
S1 Cs1 Cu1 35.401(12) 1_445 3 ?
S1 Cs1 Cu1 35.401(12) 9_666 11_556 ?
S1 Cs1 Cu1 74.889(18) 9_566 11_556 ?
S1 Cs1 Cu1 144.599(12) 1_445 11_556 ?
S1 Cs1 Cu1 105.111(18) 9_566 3 ?
S1 Cs1 Cu1 74.889(18) 9_656 9_566 ?
S1 Cs1 Cu1 35.401(12) 1_445 1_545 ?
S1 Cs1 Cu1 144.599(12) 1_445 9_566 ?
S1 Cs1 Cu1 144.599(12) 9_656 3 ?
S1 Cs1 Cu1 35.401(12) 1_545 1_545 ?
S1 Cs1 Cu1 105.111(18) 9_556 1_545 ?
S1 Cs1 S1 103.19(3) 9_566 9_656 ?
S1 Cs1 S1 67.298(17) 1_445 1_545 ?
S1 Cs1 S1 180.0 . 9_556 ?
S1 Cs1 S1 112.702(17) 1_445 9_566 ?
S1 Cs1 S1 76.81(3) 9_656 1_545 ?
S1 Cs1 S1 67.298(17) . 1_455 ?
S1 Cs1 S1 112.702(17) 9_666 1_545 ?
S1 Cs1 S1 103.19(3) . 1_445 ?
S1 Cs1 S1 180.00(3) 9_566 1_545 ?
S1 Cs1 S1 112.702(17) 9_666 1_455 ?
S1 Cs1 S1 103.19(3) 1_455 1_545 ?
S1 Cs1 S1 76.81(3) 1_445 9_556 ?
S1 Cs1 S1 112.702(17) 1_455 9_556 ?
S1 Cs1 S1 67.298(17) 1_445 1_455 ?
S1 Cs1 S1 112.702(17) 1_445 9_656 ?
S1 Cs1 S1 112.702(17) 1_545 9_556 ?
S1 Cs1 S1 76.81(3) . 9_666 ?
S1 Cs1 S1 76.81(3) 9_566 1_455 ?
S1 Cs1 S1 180.0 9_666 1_445 ?
S1 Cs1 S1 112.702(17) . 9_566 ?
S1 Cs1 S1 67.298(17) 9_666 9_566 ?
S1 Cs1 S1 180.00(3) 9_656 1_455 ?
S1 Cs1 S1 112.702(17) . 9_656 ?
S1 Cs1 S1 67.298(17) 9_666 9_656 ?
S1 Cs1 S1 103.19(3) 9_666 9_556 ?
S1 Cs1 S1 67.298(17) . 1_545 ?
S1 Cs1 S1 67.298(17) 9_566 9_556 ?
S1 Cs1 S1 67.298(17) 9_656 9_556 ?
Cs1 Cu1 Cs1 60.039(15) 1_565 . ?
Cu1 Cu1 Cs1 69.282(5) 3_565 1_565 ?
Cu1 Cu1 Cs1 69.282(5) 3_665 1_565 ?
Cu1 Cu1 Cs1 69.282(5) 3 . ?
Cu1 Cu1 Cs1 110.717(5) 3 1_565 ?
Cu1 Cu1 Cs1 69.282(5) 3_655 . ?
Cu1 Cu1 Cs1 110.717(5) 3_565 . ?
Cu1 Cu1 Cs1 110.717(5) 3_655 1_565 ?
Cu1 Cu1 Cs1 110.717(5) 3_665 . ?
Cu1 Cu1 Cu1 180.0 3 3_665 ?
Cu1 Cu1 Cu1 90.0 3_665 3_655 ?
Cu1 Cu1 Cu1 90.0 3 3_655 ?
Cu1 Cu1 Cu1 180.0 3_655 3_565 ?
Cu1 Cu1 Cu1 90.0 3_665 3_565 ?
Cu1 Cu1 Cu1 90.0 3 3_565 ?
Cu2 Cu1 Cs1 127.285(10) . 1_565 ?
Cu2 Cu1 Cs1 127.285(9) 1_455 1_565 ?
Cu2 Cu1 Cs1 127.285(10) 1_455 . ?
Cu2 Cu1 Cs1 127.285(10) . . ?
Cu2 Cu1 Cu1 59.654(6) 1_455 3 ?
Cu2 Cu1 Cu1 120.347(6) . 3 ?
Cu2 Cu1 Cu1 120.347(6) 1_455 3_665 ?
Cu2 Cu1 Cu1 120.347(6) . 3_565 ?
Cu2 Cu1 Cu1 120.347(6) 1_455 3_655 ?
Cu2 Cu1 Cu1 59.654(6) . 3_665 ?
Cu2 Cu1 Cu1 59.654(6) 1_455 3_565 ?
Cu2 Cu1 Cu1 59.654(6) . 3_655 ?
Cu2 Cu1 Cu2 91.20(2) 1_455 . ?
Cu2 Cu1 Te1 60.693(12) 1_455 . ?
Cu2 Cu1 Te1 60.693(12) 1_455 1_565 ?
S1 Cu1 Cs1 63.22(2) 1_455 . ?
S1 Cu1 Cs1 63.21(2) . . ?
S1 Cu1 Cs1 63.22(2) 1_455 1_565 ?
S1 Cu1 Cs1 63.21(2) . 1_565 ?
S1 Cu1 Cu1 127.141(13) . 3_565 ?
S1 Cu1 Cu1 52.858(13) . 3_665 ?
S1 Cu1 Cu1 52.858(13) 1_455 3_565 ?
S1 Cu1 Cu1 127.141(13) . 3 ?
S1 Cu1 Cu1 127.141(13) 1_455 3_665 ?
S1 Cu1 Cu1 127.141(13) 1_455 3_655 ?
S1 Cu1 Cu1 52.858(12) . 3_655 ?
S1 Cu1 Cu1 52.858(13) 1_455 3 ?
S1 Cu1 Cu2 75.76(3) . . ?
S1 Cu1 Cu2 166.97(3) . 1_455 ?
S1 Cu1 Cu2 166.97(3) 1_455 . ?
S1 Cu1 Cu2 75.76(3) 1_455 1_455 ?
S1 Cu1 S1 117.27(5) 1_455 . ?
S1 Cu1 Te1 111.355(18) . 1_565 ?
S1 Cu1 Te1 111.355(18) . . ?
S1 Cu1 Te1 111.354(18) 1_455 1_565 ?
S1 Cu1 Te1 111.354(18) 1_455 . ?
Te1 Cu1 Cs1 104.378(15) 1_565 1_565 ?
Te1 Cu1 Cs1 104.378(15) . . ?
Te1 Cu1 Cs1 164.417(11) 1_565 . ?
Te1 Cu1 Cs1 164.417(11) . 1_565 ?
Te1 Cu1 Cu1 59.654(6) 1_565 3_565 ?
Te1 Cu1 Cu1 120.347(6) . 3_565 ?
Te1 Cu1 Cu1 120.347(6) 1_565 3_655 ?
Te1 Cu1 Cu1 59.654(6) . 3 ?
Te1 Cu1 Cu1 59.654(6) . 3_655 ?
Te1 Cu1 Cu1 120.347(6) 1_565 3 ?
Te1 Cu1 Cu1 120.347(6) . 3_665 ?
Te1 Cu1 Cu1 59.654(6) 1_565 3_665 ?
Te1 Cu1 Cu2 60.693(12) 1_565 . ?
Te1 Cu1 Cu2 60.693(12) . . ?
Te1 Cu1 Te1 91.20(2) . 1_565 ?
Cu1 Cu2 Cu1 180.0 11 3_665 ?
Cu1 Cu2 Cu1 91.20(2) . 1_655 ?
Cu1 Cu2 Cu1 91.20(2) 11 11_565 ?
Cu1 Cu2 Cu1 60.693(12) 11_565 9_665 ?
Cu1 Cu2 Cu1 119.307(12) 11 1_655 ?
Cu1 Cu2 Cu1 60.693(12) 11 9_565 ?
Cu1 Cu2 Cu1 88.80(2) 3_665 11_565 ?
Cu1 Cu2 Cu1 119.307(12) 3_665 9_565 ?
Cu1 Cu2 Cu1 60.693(12) 11 9_665 ?
Cu1 Cu2 Cu1 180.000(15) 1_655 9_565 ?
Cu1 Cu2 Cu1 119.307(12) . 11_565 ?
Cu1 Cu2 Cu1 60.693(12) 3_665 1_655 ?
Cu1 Cu2 Cu1 88.80(2) 11 3_655 ?
Cu1 Cu2 Cu1 91.20(2) 3_665 3_655 ?
Cu1 Cu2 Cu1 119.307(12) 3_655 9_665 ?
Cu1 Cu2 Cu1 119.307(12) 9_565 3_655 ?
Cu1 Cu2 Cu1 119.307(12) . 11 ?
Cu1 Cu2 Cu1 180.0 . 9_665 ?
Cu1 Cu2 Cu1 180.0 11_565 3_655 ?
Cu1 Cu2 Cu1 119.307(12) 3_665 9_665 ?
Cu1 Cu2 Cu1 60.693(12) . 3_665 ?
Cu1 Cu2 Cu1 91.20(2) 9_565 9_665 ?
Cu1 Cu2 Cu1 60.693(12) 9_565 11_565 ?
Cu1 Cu2 Cu1 88.80(2) . 9_565 ?
Cu1 Cu2 Cu1 88.80(2) 1_655 9_665 ?
Cu1 Cu2 Cu1 119.307(12) 1_655 11_565 ?
Cu1 Cu2 Cu1 60.693(12) 1_655 3_655 ?
Cu1 Cu2 Cu1 60.693(12) . 3_655 ?
Cu1 Cu2 Te1 120.346(6) . 1_665 ?
Cu1 Cu2 Te1 59.654(6) 11 1_655 ?
Cu1 Cu2 Te1 59.654(6) 9_565 . ?
Cu1 Cu2 Te1 120.346(6) . 1_655 ?
Cu1 Cu2 Te1 120.346(6) 3_665 . ?
Cu1 Cu2 Te1 120.346(6) 11 1_565 ?
Cu1 Cu2 Te1 59.654(6) 3_655 . ?
Cu1 Cu2 Te1 120.346(6) 11 1_665 ?
Cu1 Cu2 Te1 59.654(6) 11 . ?
Cu1 Cu2 Te1 120.346(6) 11_565 1_655 ?
Cu1 Cu2 Te1 120.346(6) 1_655 . ?
Cu1 Cu2 Te1 59.654(6) 3_665 1_665 ?
Cu1 Cu2 Te1 120.346(6) 11_565 . ?
Cu1 Cu2 Te1 59.654(6) 11_565 1_565 ?
Cu1 Cu2 Te1 120.346(6) 9_565 1_655 ?
Cu1 Cu2 Te1 59.654(6) 1_655 1_665 ?
Cu1 Cu2 Te1 59.654(6) . . ?
Cu1 Cu2 Te1 120.346(6) 3_665 1_655 ?
Cu1 Cu2 Te1 59.654(6) 3_655 1_655 ?
Cu1 Cu2 Te1 120.346(6) 9_565 1_665 ?
Cu1 Cu2 Te1 59.654(6) . 1_565 ?
Cu1 Cu2 Te1 59.654(6) 9_665 1_655 ?
Cu1 Cu2 Te1 59.654(6) 3_665 1_565 ?
Cu1 Cu2 Te1 59.654(6) 11_565 1_665 ?
Cu1 Cu2 Te1 59.654(6) 9_565 1_565 ?
Cu1 Cu2 Te1 120.346(6) 1_655 1_565 ?
Cu1 Cu2 Te1 120.346(6) 3_655 1_565 ?
Cu1 Cu2 Te1 120.346(6) 3_655 1_665 ?
Cu1 Cu2 Te1 120.346(6) 9_665 . ?
Cu1 Cu2 Te1 120.346(6) 9_665 1_565 ?
Cu1 Cu2 Te1 59.654(6) 9_665 1_665 ?
Cu1 Cu2 Te1 59.654(6) 1_655 1_655 ?
Te1 Cu2 Te1 90.0 . 1_565 ?
Te1 Cu2 Te1 180.0 1_655 1_565 ?
Te1 Cu2 Te1 90.0 . 1_655 ?
Te1 Cu2 Te1 90.0 1_665 1_565 ?
Te1 Cu2 Te1 90.0 1_665 1_655 ?
Te1 Cu2 Te1 180.0 1_665 . ?
Cs1 S1 Cs1 67.298(17) 1_665 1_565 ?
Cs1 S1 Cs1 103.19(3) 1_565 1_655 ?
Cs1 S1 Cs1 67.298(17) 1_665 1_655 ?
Cs1 S1 Cs1 67.298(17) 1_565 . ?
Cs1 S1 Cs1 103.19(3) 1_665 . ?
Cs1 S1 Cs1 67.298(17) 1_655 . ?
Cu1 S1 Cs1 81.385(17) . . ?
Cu1 S1 Cs1 142.795(10) 3_665 1_655 ?
Cu1 S1 Cs1 142.795(10) 1_655 1_565 ?
Cu1 S1 Cs1 142.795(10) 3_655 1_565 ?
Cu1 S1 Cs1 81.384(17) 1_655 1_665 ?
Cu1 S1 Cs1 81.384(17) 3_665 1_565 ?
Cu1 S1 Cs1 81.384(17) 1_655 1_655 ?
Cu1 S1 Cs1 142.795(10) 3_655 1_665 ?
Cu1 S1 Cs1 81.384(17) 3_655 . ?
Cu1 S1 Cs1 81.384(17) 3_655 1_655 ?
Cu1 S1 Cs1 142.795(10) 1_655 . ?
Cu1 S1 Cs1 142.795(10) 3_665 . ?
Cu1 S1 Cs1 81.385(17) . 1_565 ?
Cu1 S1 Cs1 81.384(17) 3_665 1_665 ?
Cu1 S1 Cs1 142.795(10) . 1_655 ?
Cu1 S1 Cs1 142.795(10) . 1_665 ?
Cu1 S1 Cu1 117.27(5) 1_655 . ?
Cu1 S1 Cu1 74.28(3) 3_665 1_655 ?
Cu1 S1 Cu1 74.28(3) 3_655 1_655 ?
Cu1 S1 Cu1 117.27(5) 3_655 3_665 ?
Cu1 S1 Cu1 74.28(3) 3_655 . ?
Cu1 S1 Cu1 74.28(3) 3_665 . ?
Cu1 Te1 Cu1 60.693(12) 3_655 1_545 ?
Cu1 Te1 Cu1 119.307(12) 9 3 ?
Cu1 Te1 Cu1 180.0 9_565 1_545 ?
Cu1 Te1 Cu1 91.20(2) 3_655 3 ?
Cu1 Te1 Cu1 119.307(12) 11_455 1_545 ?
Cu1 Te1 Cu1 91.20(2) 9 9_565 ?
Cu1 Te1 Cu1 88.80(2) 11_455 3 ?
Cu1 Te1 Cu1 119.307(12) 11 1_545 ?
Cu1 Te1 Cu1 119.307(12) 9_565 3 ?
Cu1 Te1 Cu1 60.693(12) 11_455 9_565 ?
Cu1 Te1 Cu1 88.80(2) 9 1_545 ?
Cu1 Te1 Cu1 60.693(12) 3 1_545 ?
Cu1 Te1 Cu1 180.0 . 9 ?
Cu1 Te1 Cu1 60.693(12) . 3 ?
Cu1 Te1 Cu1 88.80(2) 3_655 11 ?
Cu1 Te1 Cu1 60.693(12) 11_455 9 ?
Cu1 Te1 Cu1 60.693(12) 9 11 ?
Cu1 Te1 Cu1 180.0 11 3 ?
Cu1 Te1 Cu1 88.80(2) . 9_565 ?
Cu1 Te1 Cu1 119.307(12) 3_655 9 ?
Cu1 Te1 Cu1 119.307(12) . 11_455 ?
Cu1 Te1 Cu1 119.307(12) 3_655 9_565 ?
Cu1 Te1 Cu1 60.693(12) . 3_655 ?
Cu1 Te1 Cu1 119.307(12) . 11 ?
Cu1 Te1 Cu1 180.0 11_455 3_655 ?
Cu1 Te1 Cu1 60.693(12) 11 9_565 ?
Cu1 Te1 Cu1 91.20(2) 11_455 11 ?
Cu1 Te1 Cu1 91.20(2) . 1_545 ?
Cu1 Te1 Cu2 120.346(6) 3 . ?
Cu1 Te1 Cu2 59.654(6) . . ?
Cu1 Te1 Cu2 59.654(6) 11 . ?
Cu1 Te1 Cu2 59.654(6) 11_455 1_455 ?
Cu1 Te1 Cu2 59.654(6) 3_655 . ?
Cu1 Te1 Cu2 120.346(6) 11_455 1_545 ?
Cu1 Te1 Cu2 59.654(6) 1_545 1_445 ?
Cu1 Te1 Cu2 59.654(6) 11_455 1_445 ?
Cu1 Te1 Cu2 120.346(6) 11_455 . ?
Cu1 Te1 Cu2 120.346(6) 3_655 1_445 ?
Cu1 Te1 Cu2 120.346(6) 9 . ?
Cu1 Te1 Cu2 120.346(6) 9_565 1_545 ?
Cu1 Te1 Cu2 59.654(6) 9_565 . ?
Cu1 Te1 Cu2 59.654(6) 9 1_445 ?
Cu1 Te1 Cu2 120.346(6) 3_655 1_455 ?
Cu1 Te1 Cu2 120.346(6) 9 1_455 ?
Cu1 Te1 Cu2 120.346(6) 11 1_455 ?
Cu1 Te1 Cu2 120.346(6) 11 1_445 ?
Cu1 Te1 Cu2 59.654(6) 3 1_455 ?
Cu1 Te1 Cu2 120.346(6) 1_545 1_455 ?
Cu1 Te1 Cu2 120.346(6) . 1_545 ?
Cu1 Te1 Cu2 120.346(6) 9_565 1_445 ?
Cu1 Te1 Cu2 59.654(6) 3_655 1_545 ?
Cu1 Te1 Cu2 59.654(6) 9 1_545 ?
Cu1 Te1 Cu2 59.654(6) 11 1_545 ?
Cu1 Te1 Cu2 59.654(6) 3 1_445 ?
Cu1 Te1 Cu2 120.346(6) 3 1_545 ?
Cu1 Te1 Cu2 59.654(6) 1_545 1_545 ?
Cu1 Te1 Cu2 120.346(6) 1_545 . ?
Cu1 Te1 Cu2 120.346(6) . 1_445 ?
Cu1 Te1 Cu2 59.654(6) . 1_455 ?
Cu1 Te1 Cu2 59.654(6) 9_565 1_455 ?
Cu2 Te1 Cu2 180.0 1_455 1_545 ?
Cu2 Te1 Cu2 180.0 1_445 . ?
Cu2 Te1 Cu2 90.0 1_445 1_455 ?
Cu2 Te1 Cu2 90.0 . 1_545 ?
Cu2 Te1 Cu2 90.0 . 1_455 ?
Cu2 Te1 Cu2 90.0 1_445 1_545 ?
loop_
_geom_bond_atom_site_label_1
_geom_bond_atom_site_label_2
_geom_bond_distance
_geom_bond_site_symmetry_2
_geom_bond_publ_flag
Cs1 Cu1 3.9420(8) 3 ?
Cs1 Cu1 3.9420(8) 9_566 ?
Cs1 Cu1 3.9420(8) 1_545 ?
Cs1 Cu1 3.9420(8) 11_556 ?
Cs1 S1 3.5592(8) 1_545 ?
Cs1 S1 3.5592(8) 1_445 ?
Cs1 S1 3.5592(8) 9_566 ?
Cs1 S1 3.5592(8) 9_666 ?
Cs1 S1 3.5592(8) 9_556 ?
Cs1 S1 3.5592(8) 9_656 ?
Cs1 S1 3.5592(8) . ?
Cs1 S1 3.5592(8) 1_455 ?
Cu1 Cs1 3.9420(8) 1_565 ?
Cu1 Cu1 2.7890(4) 3_655 ?
Cu1 Cu1 2.7890(4) 3_665 ?
Cu1 Cu1 2.7890(4) 3_565 ?
Cu1 Cu1 2.7890(4) 3 ?
Cu1 Cu2 2.7602(5) . ?
Cu1 Cu2 2.7602(5) 1_455 ?
Cu1 S1 2.3096(7) 1_455 ?
Cu1 S1 2.3096(7) . ?
Cu1 Te1 2.7602(5) 1_565 ?
Cu1 Te1 2.7602(5) . ?
Cu2 Cu1 2.7602(5) 1_655 ?
Cu2 Cu1 2.7602(5) 11 ?
Cu2 Cu1 2.7602(5) 9_565 ?
Cu2 Cu1 2.7602(5) 11_565 ?
Cu2 Cu1 2.7602(5) 3_665 ?
Cu2 Cu1 2.7602(5) 9_665 ?
Cu2 Cu1 2.7602(5) 3_655 ?
Cu2 Te1 2.7890(4) 1_665 ?
Cu2 Te1 2.7890(4) 1_655 ?
Cu2 Te1 2.7890(4) 1_565 ?
Cu2 Te1 2.7890(4) . ?
S1 Cs1 3.5592(8) 1_565 ?
S1 Cs1 3.5592(8) 1_655 ?
S1 Cs1 3.5592(8) 1_665 ?
S1 Cu1 2.3096(7) 3_655 ?
S1 Cu1 2.3096(7) 3_665 ?
S1 Cu1 2.3096(7) 1_655 ?
Te1 Cu1 2.7602(5) 9_565 ?
Te1 Cu1 2.7602(5) 9 ?
Te1 Cu1 2.7602(5) 3 ?
Te1 Cu1 2.7602(5) 1_545 ?
Te1 Cu1 2.7602(5) 11 ?
Te1 Cu1 2.7602(5) 11_455 ?
Te1 Cu1 2.7602(5) 3_655 ?
Te1 Cu2 2.7890(4) 1_445 ?
Te1 Cu2 2.7890(4) 1_455 ?
Te1 Cu2 2.7890(4) 1_545 ?
