#------------------------------------------------------------------------------
#$Date: 2019-11-22 23:04:21 +0200 (Fri, 22 Nov 2019) $
#$Revision: 231519 $
#$URL: file:///home/coder/svn-repositories/cod/cif/4/00/33/4003326.cif $
#------------------------------------------------------------------------------
#
# This file is available in the Crystallography Open Database (COD),
# http://www.crystallography.net/
#
# All data on this site have been placed in the public domain by the
# contributors.
#
data_4003326
loop_
_publ_author_name
'Yang, Guangsai'
'Gong, Pifu'
'Lin, Zheshuai'
'Ye, Ning'
_publ_section_title
;
 AZn2BO3X2(A = K, Rb, NH4; X = Cl, Br): New Members of KBBF Family
 Exhibiting Large SHG Response and the Enhancement of Layer Interaction by
 Modified Structures
;
_journal_issue                   24
_journal_name_full               'Chemistry of Materials'
_journal_page_first              9122
_journal_paper_doi               10.1021/acs.chemmater.6b04272
_journal_volume                  28
_journal_year                    2016
_chemical_formula_sum            'B Br2 K O3 Zn2'
_chemical_formula_weight         388.47
_space_group_crystal_system      trigonal
_space_group_IT_number           155
_space_group_name_Hall           'R 3 2"'
_space_group_name_H-M_alt        'R 3 2 :H'
_audit_creation_method           SHELXL-2014/7
_cell_angle_alpha                90
_cell_angle_beta                 90
_cell_angle_gamma                120
_cell_formula_units_Z            3
_cell_length_a                   4.9618(6)
_cell_length_b                   4.9618(6)
_cell_length_c                   28.199(7)
_cell_measurement_reflns_used    618
_cell_measurement_temperature    293(2)
_cell_measurement_theta_max      27.4624
_cell_measurement_theta_min      4.3366
_cell_volume                     601.23(18)
_computing_structure_refinement  'SHELXL-2014/7 (Sheldrick, 2014)'
_diffrn_ambient_temperature      293(2)
_diffrn_detector_area_resol_mean 14.6306
_diffrn_measured_fraction_theta_full 0.971
_diffrn_measured_fraction_theta_max 0.977
_diffrn_measurement_device
;
Mercury70 (2x2 bin mode)
;
_diffrn_measurement_method       CCD_Profile_fitting
_diffrn_radiation_type           MoK\a
_diffrn_radiation_wavelength     0.71073
_diffrn_reflns_av_R_equivalents  0.0667
_diffrn_reflns_av_unetI/netI     0.0584
_diffrn_reflns_Laue_measured_fraction_full 0.971
_diffrn_reflns_Laue_measured_fraction_max 0.977
_diffrn_reflns_limit_h_max       6
_diffrn_reflns_limit_h_min       -5
_diffrn_reflns_limit_k_max       5
_diffrn_reflns_limit_k_min       -6
_diffrn_reflns_limit_l_max       36
_diffrn_reflns_limit_l_min       -36
_diffrn_reflns_number            1323
_diffrn_reflns_point_group_measured_fraction_full 0.976
_diffrn_reflns_point_group_measured_fraction_max 0.981
_diffrn_reflns_theta_full        25.242
_diffrn_reflns_theta_max         27.461
_diffrn_reflns_theta_min         4.336
_diffrn_source                   'Sealed Tube'
_exptl_absorpt_coefficient_mu    16.403
_exptl_absorpt_correction_T_max  1.0000
_exptl_absorpt_correction_T_min  0.4608
_exptl_absorpt_correction_type   multi-scan
_exptl_crystal_colour            White
_exptl_crystal_density_diffrn    3.219
_exptl_crystal_description       Prism
_exptl_crystal_F_000             534
_exptl_crystal_size_max          0.3000
_exptl_crystal_size_mid          0.0500
_exptl_crystal_size_min          0.0500
_refine_diff_density_max         0.920
_refine_diff_density_min         -0.822
_refine_diff_density_rms         0.193
_refine_ls_abs_structure_details
;
 Flack x determined using 86 quotients [(I+)-(I-)]/[(I+)+(I-)]
 (Parsons, Flack and Wagner, Acta Cryst. B69 (2013) 249-259).
;
_refine_ls_abs_structure_Flack   0.15(5)
_refine_ls_extinction_coef       0.0112(14)
_refine_ls_extinction_expression Fc^*^=kFc[1+0.001xFc^2^\l^3^/sin(2\q)]^-1/4^
_refine_ls_extinction_method     'SHELXL-2014/7 (Sheldrick 2014'
_refine_ls_goodness_of_fit_ref   0.984
_refine_ls_hydrogen_treatment    undef
_refine_ls_matrix_type           full
_refine_ls_number_parameters     17
_refine_ls_number_reflns         312
_refine_ls_number_restraints     0
_refine_ls_restrained_S_all      0.984
_refine_ls_R_factor_all          0.0322
_refine_ls_R_factor_gt           0.0302
_refine_ls_shift/su_max          0.000
_refine_ls_shift/su_mean         0.000
_refine_ls_structure_factor_coef Fsqd
_refine_ls_weighting_details
'w=1/[\s^2^(Fo^2^)+(0.0227P)^2^] where P=(Fo^2^+2Fc^2^)/3'
_refine_ls_weighting_scheme      calc
_refine_ls_wR_factor_gt          0.0591
_refine_ls_wR_factor_ref         0.0596
_reflns_Friedel_coverage         0.500
_reflns_Friedel_fraction_full    0.987
_reflns_Friedel_fraction_max     0.990
_reflns_number_gt                273
_reflns_number_total             312
_reflns_threshold_expression     'I > 2\s(I)'
_cod_data_source_file            cm6b04272_si_004.cif
_cod_data_source_block           1
_cod_depositor_comments
;
The following automatic conversions were performed:

data item '_exptl_absorpt_correction_type' value 'Multi-scan' was
changed to 'multi-scan' in accordance with the
/home/saulius/struct/COD-crude-data/automatic-downloads/DataCite-retrospective/ACS/depositions/lib/dictionaries/cif_core.dic
dictionary named 'cif_core.dic' version 2.4.2 last updated on
2011-04-26.

Automatic conversion script
Id: cif_fix_values 6909 2019-04-08 15:41:33Z antanas 
;
_cod_original_cell_volume        601.2(2)
_cod_database_code               4003326
_shelx_shelxl_version_number     2014/7
_shelx_space_group_comment
;
The symmetry employed for this shelxl refinement is uniquely defined
by the following loop, which should always be used as a source of
symmetry information in preference to the above space-group names.
They are only intended as comments.
;
_shelx_res_file
;

    1.res created by SHELXL-2014/7

TITL 1 in R32
CELL 0.71073   4.9618   4.9618  28.1990  90.000  90.000 120.000
ZERR    3.00   0.0006   0.0006   0.0066   0.000   0.000   0.000
LATT -3
SYMM -Y, X-Y, Z
SYMM -X+Y, -X, Z
SYMM Y, X, -Z
SYMM X-Y, -Y, -Z
SYMM -X, -X+Y, -Z
SFAC B O K ZN BR
UNIT 3 9 3 6 6

L.S. 100
BOND
FMAP 2
PLAN 20
ACTA
OMIT 0 1 2
OMIT -2 2 11
WGHT    0.022700
EXTI    0.011198
FVAR       0.42820
MOLE   1
ZN1   4    0.333333    0.666667    0.974482    10.33333    0.01075    0.01075 =
         0.02239    0.00000    0.00000    0.00537
BR    5    0.333333    0.666667    0.889738    10.33333    0.05203    0.05203 =
         0.02169    0.00000    0.00000    0.02601
K1    3    0.666667    0.333333    0.833333    10.16667    0.04392    0.04392 =
         0.05211    0.00000    0.00000    0.02196
O1    2    0.722731    1.000000    1.000000    10.50000    0.00905    0.01013 =
         0.03472   -0.00424   -0.00212    0.00506
B1    1    1.000000    1.000000    1.000000    10.16667    0.01035    0.01035 =
         0.02701    0.00000    0.00000    0.00517
MOLE   2
HKLF 4

REM  1 in R32
REM R1 =  0.0302 for     273 Fo > 4sig(Fo)  and  0.0322 for all     312 data
REM     17 parameters refined using      0 restraints

END

WGHT      0.0227      0.0000

REM Highest difference peak  0.920,  deepest hole -0.822,  1-sigma level  0.193
Q1    1   0.3333  0.6667  1.0679  10.33333  0.05    0.92
Q2    1   0.3333  0.6667  0.9211  10.33333  0.05    0.91
Q3    1   0.3333  0.6667  0.9444  10.33333  0.05    0.82
Q4    1   0.2338  0.4834  0.8907  11.00000  0.05    0.77
Q5    1   0.3333  0.6667  0.8287  10.33333  0.05    0.69
Q6    1   0.3333  0.6667  1.0036  10.33333  0.05    0.67
Q7    1   0.2158  0.7051  0.9736  11.00000  0.05    0.59
Q8    1   0.4246  0.5939  0.9735  11.00000  0.05    0.58
Q9    1   0.3333  0.6667  0.8613  10.33333  0.05    0.43
Q10   1   0.9525  0.3333  0.8333  10.50000  0.05    0.41
Q11   1   0.6831  1.0004  1.0286  11.00000  0.05    0.35
Q12   1   1.0000  1.0000  1.0684  10.33333  0.05    0.33
Q13   1   0.0000  1.0000  0.8902  10.33333  0.05    0.32
Q14   1  -0.0222  0.3014  0.9418  11.00000  0.05    0.32
Q15   1   0.5471  0.7021  0.9339  11.00000  0.05    0.31
Q16   1   0.5743  0.4671  0.8357  11.00000  0.05    0.30
Q17   1   0.0011  0.6977  0.9179  11.00000  0.05    0.30
Q18   1   0.6667  0.1022  0.8333  10.50000  0.05    0.30
Q19   1   0.7033  0.9660  1.0556  11.00000  0.05    0.29
Q20   1   0.6667  0.3333  0.7798  10.33333  0.05    0.29
;
_shelx_res_checksum              39856
_shelx_hkl_file
;
   0   0  -6 1616.35   89.46
   0   0   6 1977.98   93.98
   0   0  -9 5440.61  210.78
   0   0   9 5548.00  193.16
   0   0 -12  117.60   41.53
   0   0  12  118.34   38.41
   0   0 -15 4869.49  234.78
   0   0  15 3821.92  172.41
   0   0 -18 1190.10  107.76
   0   0  18  855.28  100.89
   0   0 -21 3708.99  216.86
   0   0  21 2793.48  191.87
   0   0 -24 1436.73  158.57
   0   0  24 1186.38  131.77
   0   0 -27  749.16  100.67
   0   0  27  686.77   97.94
   0   0 -30    6.60   17.94
   0   0  30    4.37   17.72
   0   0 -33   12.14   17.43
   0   0  33   12.22   16.40
   0   0 -36 1759.06  227.76
   0   0  36 1623.61  228.61
   1   0 -35  115.16  134.22
   0  -1 -35  104.03   41.78
  -1   1 -35   89.20   74.88
  -1   0  35   77.01   89.76
   1  -1  35   90.21   88.76
   0   1  35   68.19  104.21
   1   0 -32 1339.49  159.78
   0  -1 -32 1023.17  112.55
  -1   1 -32 1017.01  160.15
  -1   0  32  944.16  142.34
   1  -1  32 1071.34  151.75
   0   1  32  861.42  106.19
   1   0 -29   73.13  119.74
   0  -1 -29   51.57   64.96
  -1   1 -29   58.82  114.88
  -1   0  29   43.21   49.88
   1  -1  29   54.01   78.88
   0   1  29   43.10   57.73
   1   0 -26 2531.10  307.03
   0  -1 -26 2463.47  295.28
  -1   1 -26 2153.93  195.84
  -1   0  26 2410.13  279.27
   1  -1  26 2029.11  220.40
   0   1  26 1871.09  205.90
   1   0 -23 2630.08  197.52
   0  -1 -23 3037.53  171.46
  -1   1 -23 4064.52  319.47
  -1   0  23 3227.24  189.51
   1  -1  23 3104.90  196.92
   0   1  23 2304.83  176.20
   1   0 -20   70.83   66.48
   0  -1 -20   83.82   26.46
  -1   1 -20   80.88  121.81
  -1   0  20  104.59  105.65
   1  -1  20   89.40   47.43
   0   1  20   67.78   26.46
   1   0 -17  189.97   63.80
   0  -1 -17  231.60   46.15
  -1   1 -17  222.75  153.39
  -1   0  17  154.40   45.15
   1  -1  17  203.25   49.81
   0   1  17  160.31   31.85
   1   0 -14 1326.88   94.51
   0  -1 -14 1444.76  101.94
  -1   1 -14 1277.57   95.62
  -1   0  14 1475.10   88.92
   1  -1  14 1412.15  138.07
   0   1  14 1150.29   66.70
   1   0 -11 7728.43  265.08
   0  -1 -11 9999.99  566.35
  -1   1 -11 9098.66  526.04
   1  -1  11 8422.79  294.78
   1   0  -8  391.21   36.30
   0  -1  -8  312.65   37.99
  -1   1  -8  592.20   45.43
   1  -1   8  378.42   51.86
   0   1   8  421.17   34.09
   1   0  -5  389.97   30.91
   0   1   5  360.30   25.42
   0  -1  -5  389.59   31.10
  -1   1  -5  416.52   34.94
   1  -1   5  375.97   50.29
   0   1   5  354.62   26.36
   1  -1   2 4040.71  148.83
   1  -1  -1  456.84   29.39
   1   0   1  471.31   30.67
   0  -1   1  487.08   45.21
   0   1  -1  526.42   36.16
   1  -1  -1  474.14   45.70
   1   0   1  449.15   29.84
   0   1  -1  443.24   30.22
  -1   0  -1  468.35   30.80
   1  -1  -7 1220.86   51.40
   0   1  -7 1174.96  107.43
  -1   0  -7 1169.76   50.81
   1  -1  -7 1356.43   66.28
  -1   1   7 1163.62   46.14
   1   0   7 1133.19   56.20
   0   1 -10 5443.55  230.40
  -1   1  10 4652.39  151.31
   1   0  10 5671.57  197.41
   1  -1 -13 5993.05  201.79
   0  -1  13 7415.76  260.99
   1   0  13 6820.91  237.60
   1  -1 -16  224.23   52.63
   0   1 -16  188.92   48.41
  -1   0 -16  102.38   45.60
   0  -1  16  120.34   31.44
  -1   1  16  119.17   29.34
   1   0  16  113.27   40.15
   1  -1 -19  402.99   71.78
   0   1 -19  749.14   93.23
  -1   0 -19  328.99   49.49
   0  -1  19  501.15  107.49
  -1   1  19  527.71   65.18
   1   0  19  415.76   62.19
   1  -1 -22 1846.97  154.33
   0   1 -22 2646.12  226.79
  -1   0 -22 1691.50  132.03
   0  -1  22 2535.69  179.31
  -1   1  22 2391.10  175.55
   1   0  22 2012.87  149.09
   1  -1 -25 1789.18  145.06
   0   1 -25 1997.26  149.05
   0  -1  25 1717.11  176.93
  -1   1  25 1821.63  171.73
   1   0  25 1679.81  153.22
   1  -1 -28  230.91  189.08
   0   1 -28  169.90   78.47
  -1   0 -28  129.06  127.41
   0  -1  28  166.77  106.21
  -1   1  28  161.04   39.72
   1   0  28  145.01   50.11
   1  -1 -31    0.52   17.07
   0   1 -31   -0.20   20.26
  -1   0 -31   -1.44   18.18
   0  -1  31    0.80    5.52
  -1   1  31    1.01    7.79
   1   0  31    1.30   10.19
   1  -1 -34 1452.91  222.29
   0   1 -34 1148.07  164.44
  -1   0 -34 1089.66  158.51
   0  -1  34  954.96  185.04
   1   0  34 1030.26  152.12
   2  -1 -33   27.24   37.74
  -1   2 -33   25.36   37.27
  -1  -1 -33   25.19   34.16
   1  -2  33   32.60   41.06
   1   1  33   35.25   42.76
   2  -1 -30   22.44   33.43
  -1   2 -30   25.53   54.64
  -1  -1 -30   30.54   42.82
   1  -2  30   25.43   36.49
   1   1  30   22.83   59.42
   2  -1 -27  162.15   90.79
  -1   2 -27  249.05  116.28
  -1  -1 -27  182.33   81.55
   1  -2  27  272.58   94.15
  -2   1  27  189.03   60.97
   1   1  27  147.55   76.74
   2  -1 -24 1568.24  169.29
  -1   2 -24 1717.54  159.59
  -1  -1 -24 1171.05  109.65
   1  -2  24 1502.09  186.76
  -2   1  24 1552.71  113.38
   1   1  24 1222.49  112.36
   2  -1 -21 3097.75  207.16
  -1   2 -21 1916.93  201.86
  -1  -1 -21 2906.28  165.86
   1  -2  21 3381.48  309.48
  -2   1  21 3488.50  188.90
   1   1  21 2846.16  161.06
   2  -1 -18  104.77   26.25
  -1   2 -18  138.31  118.96
  -1  -1 -18   98.92   33.71
   1  -2  18   85.42   41.00
  -2   1  18  109.68   55.10
   1   1  18   69.80   23.79
   1  -2  15 4163.06  192.11
  -2   1  15 4384.70  175.82
   1   1  15 4459.97  183.13
  -1   2 -12 1061.74   88.63
  -1  -1 -12  980.00   51.67
  -2   1  12 1164.49   62.30
   1  -2  12 1175.48   90.20
   1   1  12 1100.18   65.45
   2  -1  -9 1747.69   72.75
  -1   2  -9 2253.66  109.26
  -1  -1  -9 1833.75   64.87
   1   1   9 1722.53   83.84
   1  -2   9 1758.37   65.87
   1   1   6  372.99   26.14
   2  -1  -6  355.28   34.64
  -1   2  -6  441.03   41.23
   1   1   6  379.49   34.24
   1  -2   6  369.11   28.11
   1   1   3  324.56   23.90
   2  -1  -3  299.23   29.90
  -1   2  -3  293.48   25.51
   1   1   3  322.85   29.49
   2  -1  -3  311.46   21.88
   2  -1   3  288.70   26.29
   1  -2  -3  302.43   22.07
   1   1  -3  272.04   26.02
   2  -1   3  261.22   26.16
   1   1  -3  271.07   25.60
  -1   2   3  292.68   23.26
  -1  -1   3  285.44   28.07
   1  -2  -6  364.66   26.04
   1   1  -6  355.74   35.34
  -2   1  -6  354.68   31.50
   2  -1   6  380.69   51.39
  -1   2   6  340.10   25.11
   1   1  -6  354.78   30.92
  -1  -1   6  374.75   35.82
   1  -2  -9 1701.12   67.20
   1   1  -9 1746.80   95.95
  -2   1  -9 1661.44   74.45
   2  -1   9 1928.26   97.33
  -1   2   9 1774.72   64.08
   1  -2 -12  947.95   54.18
   1   1 -12 1767.91  174.04
  -2   1 -12 1116.70   66.08
   2  -1  12  973.53   87.17
  -1   2  12  885.37   41.72
   1  -2 -15 5280.76  236.41
   1   1 -15 4097.06  218.94
  -2   1 -15 4151.97  170.15
   2  -1  15 3742.20  222.14
  -1   2  15 4345.56  150.21
   1  -2 -18   44.70   27.41
   1   1 -18   46.39   28.04
  -2   1 -18   57.19   28.78
   2  -1  18   79.99   30.20
  -1   2  18  101.82   34.21
   1   1 -21 2829.17  186.96
   1  -2 -21 2913.57  197.00
  -2   1 -21 2643.43  163.60
  -1  -1  21 2921.97  164.33
   2  -1  21 2589.72  195.24
  -1   2  21 2824.73  139.11
   1   1 -24 1577.09  163.29
   1  -2 -24 2032.21  182.49
  -2   1 -24 1060.22  106.60
  -1  -1  24 1165.14  104.62
   2  -1  24 1424.09  141.13
  -1   2  24 1251.69  105.86
   1   1 -27  256.89   76.11
   1  -2 -27  237.30  134.11
  -2   1 -27   78.12   89.29
  -1  -1  27  330.06  120.25
   2  -1  27  208.97   52.84
  -1   2  27  157.13   60.68
   1   1 -30   47.63   97.94
   1  -2 -30   43.05   61.02
  -2   1 -30   19.25   30.04
  -1  -1  30   20.12   29.64
   2  -1  30   21.91   33.81
  -1   2  30   17.00   24.39
   1   1 -33   58.10   75.45
   1  -2 -33   34.17   65.88
  -2   1 -33   27.07   44.77
  -1  -1  33   19.27   28.15
   2  -1  33   23.40   28.47
   2   0 -34 1170.91  195.32
  -2   2 -34  608.72  286.09
   2  -2  34  839.12  152.38
   0   2  34  764.06  129.96
   2   0 -31    6.02   35.16
  -2   2 -31    3.57   20.67
  -2   0  31    3.43   14.45
   2  -2  31    5.91   22.46
   0   2  31   10.86   20.39
   2   0 -28  148.73   89.11
  -2   2 -28   98.61   71.57
  -2   0  28  204.25   91.70
   2  -2  28  167.60   71.59
   0   2  28  141.03   76.17
   2   0 -25 1223.93  159.07
   0  -2 -25 1428.89  142.01
  -2   2 -25  732.08   96.98
  -2   0  25 1262.26  125.55
   2  -2  25 1333.99  165.22
   0   2  25 1186.93  146.76
   2   0 -22 1528.33  194.06
   0  -2 -22 1073.74   82.78
  -2   2 -22  698.63   79.83
  -2   0  22 1073.26   87.61
   2  -2  22 1379.28  161.01
   0   2  22 1081.36   83.19
   2   0 -19  298.90   66.96
   0  -2 -19  187.17   32.34
  -2   2 -19  233.92   66.67
   2  -2  19  284.55   52.81
   0   2  19  238.57   52.41
   2   0 -16   53.65   20.92
   0  -2 -16   34.35   29.86
  -2   2 -16   64.55   57.53
   2  -2  16   56.09   46.13
   0   2  16   54.28   19.19
   2   0 -13 4151.83  167.51
   0  -2 -13 4303.01  153.27
  -2   2 -13 4433.97  182.07
   2  -2  13 4744.32  234.05
   0   2  13 4263.68  147.73
   2   0 -10 3111.21  126.29
   0  -2 -10 3587.79  112.40
  -2   2 -10 2993.56  125.98
   2  -2  10 2904.67  206.04
   0   2  10 2901.13  108.21
   2   0  -7  811.72   45.40
  -2   2  -7  853.14   50.34
   2  -2   7  787.82   84.11
   0   2   7  804.76   45.74
   2   0  -7  823.19   41.00
   2   0  -4 2965.35  105.04
  -2   2  -4 2981.41  104.76
   2  -2   4 2573.17  146.42
   0   2   4 3001.27  103.30
   2   0  -4 3024.33  100.84
   2  -2   1  796.32   39.01
   2   0  -1  792.66   40.52
   0  -2  -1  791.73   27.39
   0   2   1  814.31   28.07
   2  -2   1  803.08   55.06
   2   0  -1  791.80   39.38
   0   2   1  808.33   42.22
  -2   0   1  844.99   46.78
   0   2  -2 5952.89  187.06
   2  -2  -2 6101.46  173.94
   0  -2   2 6078.54  185.44
  -2   0  -2 5887.59  179.26
   2   0   5  911.38   42.90
   2  -2  -5  947.60   44.01
   0   2  -5  918.54   75.55
   2   0   5  923.43   48.50
   0  -2   5  895.55   44.46
  -2   0  -5  869.44   39.95
   2  -2  -8  947.17   46.34
   0   2  -8  944.00   89.92
  -2   0  -8  893.57   45.52
   2   0   8  951.11   55.03
   0  -2   8 1001.84   53.10
   2   0  11 8091.00  268.03
   0  -2  11 8075.41  252.79
   2  -2 -14  409.91   43.52
   0   2 -14  554.66   75.24
  -2   0 -14  386.45   39.83
   2   0  14  445.29   68.74
  -2   2  14  426.05   36.81
   2  -2 -17   29.58   18.32
   0   2 -17   43.91   70.79
  -2   0 -17   29.15   16.37
  -2   2  17   26.51   12.22
   2   0  17   25.67   13.41
   2  -2 -20   74.03   22.98
   0   2 -20   92.35   57.01
  -2   0 -20   67.47   39.15
   0  -2  20   78.58   32.42
  -2   2  20   61.41   19.56
   2   0  20   57.79   38.54
  -2   0 -23 1359.38  116.41
   0  -2  23 1451.12  115.76
   2   0  23 1252.34  125.85
   2  -2 -26 1113.09  134.86
   0   2 -26 1562.44  149.75
  -2   0 -26  893.09  102.37
   0  -2  26 1213.55  191.84
   2   0  26  922.89  109.24
   2  -2 -29   29.68   42.02
   0   2 -29   40.44   65.22
  -2   0 -29   17.99   18.68
   0  -2  29   35.94   61.72
   2   0  29   29.75   49.63
   2  -2 -32  699.40  125.09
   0   2 -32  752.35  134.95
  -2   0 -32  376.81  120.81
   0  -2  32  536.68  128.69
   2   0  32  497.26  116.79
   3  -2 -31   18.63   37.41
  -1   3 -31   23.06   38.01
   1  -3  31   10.65   35.99
   2   1  31   18.07   30.75
   3  -2 -28  160.87   59.19
  -1   3 -28  102.64  132.87
   1  -3  28  174.70   85.19
   2   1  28  118.58   69.17
   3  -2 -25 1157.58  134.65
  -2  -1 -25  697.42   72.50
   1  -3  25 1607.24  272.41
   2   1  25  771.74  106.73
   3  -2 -22  789.64   92.15
   1  -3  22  692.89   97.47
   2   1  22  680.48   86.71
   3  -2 -19  268.21   43.34
  -1   3 -19  221.15   53.19
  -2  -1 -19  254.83   34.88
   1  -3  19  246.74   56.46
   2   1  19  226.97   48.51
   3  -2 -16  110.27   25.00
  -1   3 -16   78.43   30.90
  -2  -1 -16   93.59   18.89
   1  -3  16  111.70   32.91
   2   1  16  111.27   39.98
  -1   3 -13 3294.24  172.24
  -2  -1 -13 3216.16  116.27
   2   1  13 3169.58  139.56
   1  -3  13 3292.74  124.06
   2   1  10 2318.00   84.21
   3  -2 -10 2507.21  110.50
   2   1  10 2406.46  117.69
   1  -3  10 2505.17   97.65
   2   1   7  413.73   44.55
   3  -2  -7  375.43   37.72
  -1   3  -7  404.63   41.43
   2   1   7  405.22   40.48
  -2  -1  -7  365.90   37.33
   1  -3   7  403.88   36.14
   3  -2  -4 2094.85   94.87
   2   1   4 1963.50   74.89
  -1   3  -4 2118.63   82.69
   2   1   4 1996.91   89.90
   3  -2  -4 2225.10   67.41
  -2  -1  -4 1968.40   82.35
   3  -2  -1  512.69   41.85
   2   1   1  525.36   33.21
  -1   3  -1  492.39   34.91
   3  -2  -1  510.10   27.01
   2   1   1  530.38   39.02
  -2  -1  -1  535.16   39.70
   3  -2   2 4063.51  140.20
   1  -3  -2 3601.51  105.71
   2   1  -2 3552.15  120.27
   3  -2   2 4687.08  150.19
   2   1  -2 4136.76  143.41
  -2  -1   2 3925.98  146.84
   3  -2   5  751.08   46.90
   1  -3  -5  717.34   29.53
   2   1  -5  730.61   47.11
   3  -2   5  723.20   51.50
   2   1  -5  767.57   47.56
  -1   3   5  753.06   41.86
  -2  -1   5  749.64   53.11
   2   1  -8  739.85   53.34
   1  -3  -8  764.91   34.03
  -3   2  -8  757.08   50.86
   3  -2   8  756.61   74.35
  -1   3   8  711.34   39.88
   2   1  -8  779.53   49.02
   2   1 -11 4802.60  185.54
  -3   2 -11 4821.99  179.72
   3  -2  11 4750.36  199.08
  -1   3  11 4726.99  153.37
   2   1 -14  231.87   56.27
   1  -3 -14  206.50   45.86
  -3   2 -14  242.94   35.31
   3  -2  14  263.55   51.54
  -1   3  14  269.07   28.70
   2   1 -17   49.98   69.53
   1  -3 -17   50.16   49.85
  -3   2 -17   37.43   22.83
   3  -2  17   48.41   25.27
  -1   3  17   46.13   15.18
   2   1 -20   45.96   84.84
  -3   2 -20   36.61   35.01
   3  -2  20   26.41   31.92
  -1   3  20   15.17   14.14
   2   1 -23 1087.44  136.08
  -3   2 -23  989.48  102.05
   3  -2  23 1289.53  145.53
  -1   3  23 1025.83   82.15
   2   1 -26  944.91  131.88
  -3   2 -26  718.52   92.78
  -2  -1  26 1241.46  139.01
   3  -2  26 1134.00  159.75
   2   1 -29    5.01   24.22
  -3   2 -29    4.43   17.27
  -2  -1  29    7.41   17.32
   3  -2  29    5.43   24.95
   2   1 -32  635.98  135.72
  -3   2 -32  201.50  132.41
  -2  -1  32  647.34  207.76
   3  -2  32  517.91  105.35
   3  -1 -32  402.96   99.98
  -2   3 -32  360.41   77.26
   2  -3  32  613.13  146.03
   1   2  32  334.91   84.53
   3  -1 -29   12.48   39.23
  -2   3 -29    3.29   18.90
   2  -3  29    9.19   17.43
   1   2  29    4.10   13.55
   3  -1 -26 1318.21  175.97
  -2   3 -26  575.34   91.10
   2  -3  26 1162.93  183.00
   1   2  26  829.51  135.24
   3  -1 -23 1183.21  113.43
   2  -3  23 1328.90  229.68
   1   2  23 1183.67  117.96
   3  -1 -20   23.87   34.50
  -2   3 -20   16.86   29.06
  -3   1  20   38.26   17.66
   2  -3  20   59.17   70.46
   1   2  20   37.55   26.49
   3  -1 -17   59.63   70.83
  -2   3 -17   68.52   62.78
  -1  -2 -17   51.71   20.75
   2  -3  17  127.65   66.80
   1   2  17   41.75   34.97
   3  -1 -14  325.79   46.87
  -2   3 -14  279.95   55.32
  -1  -2 -14  268.83   23.86
   2  -3  14  292.77   86.21
   1   2  14  251.13   42.96
   3  -1 -11 4554.85  173.87
  -2   3 -11 4867.93  193.97
   2  -3  11 4522.96  208.39
   1   2  11 4924.25  185.31
   2  -3  11 4968.54  150.66
   1   2   8  768.30   28.51
   3  -1  -8  725.32   55.26
  -2   3  -8  738.76   49.35
   2  -3   8  759.56   71.55
   1   2   8  792.41   51.48
   3  -1  -8  763.32   38.04
   2  -3   8  783.95   36.90
   3  -1  -5  778.50   48.34
   1   2   5  718.29   29.48
  -2   3  -5  742.96   44.32
   2  -3   5  781.91   66.02
   1   2   5  753.79   47.70
   3  -1  -5  757.46   36.66
   3  -1  -2 4023.76  142.56
  -2   3  -2 3844.65  128.27
   3  -1  -2 4065.56  129.20
   1   2   2 3819.93  136.06
  -1  -2  -2 4028.25  142.33
   2  -3  -1  524.40   30.52
   3  -1   1  486.73   47.16
   1   2  -1  497.77   48.61
   3  -1   1  504.87   32.37
   1   2  -1  521.07   39.35
  -1  -2   1  499.22   45.61
   3  -1   4 2089.10   85.48
   2  -3  -4 1958.81   73.64
   1   2  -4 2182.63  136.62
   3  -1   4 2106.18   85.28
   1   2  -4 2017.53   88.97
  -1  -2   4 2176.91   94.04
   3  -1   7  363.73   36.51
   2  -3  -7  425.22   43.46
   1   2  -7  375.30   58.50
   3  -1   7  403.79   44.24
  -1  -2   7  373.96   41.27
   2  -3 -10 2315.58   88.88
  -3   1 -10 2248.65   98.13
   3  -1  10 2785.39  127.32
  -1  -2  10 2526.68  112.42
   2  -3 -13 3466.65  131.54
  -3   1 -13 2997.51  124.46
   3  -1  13 2936.48  136.91
  -2   3  13 3100.43   96.27
   2  -3 -16  110.30   25.94
   1   2 -16  128.49   66.98
  -3   1 -16   99.39   23.34
   3  -1  16   94.79   26.55
  -2   3  16  107.94   19.73
   2  -3 -19  293.29   50.79
   1   2 -19  308.46   64.83
  -3   1 -19  204.55   59.37
   3  -1  19  222.84   42.69
   1   2 -22 1064.05  189.44
  -3   1 -22  684.03   77.92
   3  -1  22  659.83   89.87
   2  -3 -25  773.01  109.92
   1   2 -25 1800.28  213.10
  -3   1 -25  735.63   86.91
  -1  -2  25  885.87  104.40
   3  -1  25  632.65   97.04
   2  -3 -28  139.18   47.76
   1   2 -28  205.80   66.45
  -3   1 -28   64.93   89.07
  -1  -2  28  106.33   41.38
   3  -1  28  112.31   42.27
   1   2 -31   24.64   40.40
  -3   1 -31    9.27   15.09
  -1  -2  31   19.66   30.84
   3  -1  31   15.36   25.73
   3   0 -30    2.99   22.76
  -3   3 -30   -0.60   15.20
   3  -3  30   -0.27   12.00
   0   3  30    0.55    8.47
   3   0 -27  135.69   97.02
  -3   3 -27   58.77  100.09
  -3   0  27  102.70   37.84
   3  -3  27  139.16   51.11
   0   3  27   96.54   47.78
   3   0 -24  615.85  108.24
  -3   3 -24  347.05  163.85
  -3   0  24  531.52   73.10
   3  -3  24  526.84  102.63
   0   3  24  394.84   72.99
   3   0 -21 1011.99  142.76
  -3   3 -21  959.39  133.15
   3  -3  21 1109.97  150.57
   0   3  21  995.42   89.58
   3   0 -18   30.14   54.04
  -3   3 -18   32.67   52.29
   3  -3  18   36.74   64.22
   0   3  18   25.07   41.81
   3   0 -15 1430.56  102.60
  -3   3 -15 1422.75   98.17
   3  -3  15 1512.63  151.03
   0   3  15 1407.23   87.03
   3   0 -12  131.50   32.47
  -3   3 -12  125.80   26.07
   3  -3  12  144.63   58.72
   0   3  12  119.90   27.05
   3   0  -9 1388.39   76.08
  -3   3  -9 1352.45   75.10
   3  -3   9 1258.69  144.25
   0   3   9 1332.30   68.99
   3   0  -9 1361.54   65.42
   3   0  -6  545.95   41.02
  -3   3  -6  561.64   43.01
   3  -3   6  542.33   57.51
   0   3   6  532.06   39.17
   3   0  -6  568.81   37.97
   3  -3   3  602.25   41.27
   3   0  -3  601.74   42.30
   3  -3   3  572.71   51.50
   3   0  -3  584.65   38.75
   0   3   3  636.34   45.16
   3  -3   0 8948.06  486.37
   3  -3   0 8969.24  484.49
   3   0   0 8836.23  268.86
   0   3   0 8606.52  270.64
   3  -3  -3  551.20   49.20
   3   0   3  616.09   41.10
   0   3  -3  662.39   42.31
   3  -3  -3  563.34   22.32
   3   0   3  622.34   45.46
   0  -3   3  582.57   44.48
  -3   0  -3  585.06   47.84
   3   0   6  600.90   40.05
   3  -3  -6  602.16   43.84
   0   3  -6  601.77   49.07
   3   0   6  595.64   44.20
   0  -3   6  594.11   44.99
  -3   0  -6  575.82   39.75
   3   0   9 1346.65   65.25
   3  -3  -9 1439.17   73.96
   0   3  -9 1276.40   91.28
   3   0   9 1333.68   74.56
  -3   0  -9 1408.33   67.96
   0  -3   9 1402.31   73.79
   3   0  12  136.33   22.29
   3  -3 -12  146.24   27.78
   0   3 -12  163.78   88.27
   3   0  12  146.63   34.35
  -3   0 -12  147.88   22.61
   0  -3  12  144.77   43.40
   3  -3 -15 1507.94   80.53
   0   3 -15 1187.48  102.28
  -3   0 -15 1390.05   77.49
   3   0  15 1444.44  112.61
  -3   0 -15 1443.63   70.36
   3  -3 -18   34.62   46.81
   0   3 -18   32.68   48.16
  -3   0 -18   26.62   13.27
   3   0  18   31.62   26.53
   3  -3 -21 1206.92  111.32
   0   3 -21 1299.00  133.31
  -3   0 -21 1058.34   92.49
   3   0  21 1148.68  176.09
   3  -3 -24  457.64   70.58
  -3   0 -24  393.66   55.14
   0  -3  24  790.18  134.93
   3   0  24  412.80   89.55
   3  -3 -27  185.89  113.65
   0   3 -27  139.92  100.70
  -3   0 -27   82.58   31.50
   0  -3  27  121.14   49.10
   3   0  27   79.78   45.53
   0   3 -30   -1.75   19.17
  -3   0 -30    0.78   11.91
   0  -3  30    4.18   25.92
   3   0  30    1.83    8.58
   4  -3 -26  685.35  111.12
  -1   4 -26  744.89  131.27
   1  -4  26  652.78  248.78
   3   1  26  577.80  114.73
   4  -3 -23 1101.20  132.58
  -1   4 -23  630.92  103.25
   1  -4  23  986.57  127.64
   3   1  23  790.99  134.17
   4  -3 -20   31.06   47.01
  -1   4 -20   17.69   20.59
   1  -4  20   14.44   28.50
   3   1  20   15.85   22.65
   3   1  17   49.29   15.63
   4  -3 -17   49.15   59.29
  -1   4 -17   49.77   60.47
   3   1  17   46.80   59.02
  -3  -1 -17   44.92   16.75
   3   1  14  155.83   38.21
   4  -3 -14  151.41   30.74
  -1   4 -14  209.88   47.38
   3   1  14  153.97   47.21
  -3  -1 -14  149.68   27.52
   1  -4  14  165.64   32.06
   3   1  11 2151.25   92.36
   4  -3 -11 2150.38  112.62
  -1   4 -11 2203.63  118.03
   3   1  11 2082.28  112.94
  -3  -1 -11 2030.40   97.17
   1  -4  11 2141.86  108.18
   3   1   8  357.99   41.86
   4  -3  -8  359.87   53.68
  -1   4  -8  402.73   42.29
   3   1   8  361.83   45.46
  -3  -1  -8  350.80   42.29
   1  -4   8  337.58   37.60
   4  -3  -5  313.15   38.16
   3   1   5  312.27   37.11
  -1   4  -5  324.39   33.43
   3   1   5  317.80   40.53
   1  -4   5  310.31   38.37
  -3  -1  -5  334.49   41.35
   4  -3  -2 1572.02   89.15
   3   1   2 1599.81   76.51
  -1   4  -2 1592.76   61.88
   3   1   2 1561.19   81.81
  -3  -1  -2 1616.32   96.35
   4  -3   1  119.05   22.27
   3   1  -1  109.58   32.49
   4  -3   1  120.91   21.18
   3   1  -1  110.00   22.75
  -3  -1   1  106.83   27.44
   4  -3   4 1219.35   68.90
   3   1  -4 1173.71   66.26
   4  -3   4 1132.29   63.60
   3   1  -4 1256.46   72.00
  -1   4   4 1217.84   67.86
   4  -3   7   13.53   10.86
   3   1  -7   10.67   17.05
   4  -3   7   13.62   25.81
  -1   4   7   14.15   10.25
   3   1  -7   10.57   11.31
   3   1 -10 1650.09  104.49
   4  -3  10 1980.66  116.06
  -1   4  10 1682.24   81.17
   3   1 -13 2469.74  270.69
  -4   3 -13 2146.33  152.09
   4  -3  13 2088.49  175.64
  -1   4  13 2164.06  137.67
   3   1 -16  204.29   60.40
  -4   3 -16  197.45   36.93
   4  -3  16  191.16   45.83
  -1   4  16  200.62   29.10
   3   1 -19  289.79   70.16
  -4   3 -19  234.10   49.00
   4  -3  19  189.36   46.30
   3   1 -22  643.59  115.08
  -4   3 -22  410.32   63.48
   4  -3  22  403.87   72.92
   3   1 -25  376.61   96.52
  -4   3 -25  272.76   62.70
   4  -3  25  332.10   77.04
   4  -2 -27   26.46   37.63
  -2   4 -27   18.36   24.43
   2  -4  27   32.06   35.49
   2   2  27   27.05   40.10
   4  -2 -24  551.27   95.74
  -2   4 -24  410.74  143.11
   2  -4  24  609.24  168.76
   2   2  24  448.74   84.31
   4  -2 -21 1192.04  108.83
   2  -4  21 2130.64  264.89
   2   2  21 1177.27  111.07
   4  -2 -18   19.73   26.23
  -2   4 -18   15.41   56.75
   2  -4  18   16.29   16.68
   2   2  18   17.65   18.12
   4  -2 -15 1110.65  110.35
  -2   4 -15 1595.86  129.09
   2  -4  15 1545.49  147.92
   2   2  15 1533.79  122.64
   4  -2 -12  326.86   46.90
  -2   4 -12  371.27   47.58
   2   2  12  321.54   55.07
   2  -4  12  320.80   34.19
   4  -2  -9  494.44   51.57
  -2   4  -9  503.00   46.80
   2   2   9  516.55   47.95
  -2  -2  -9  479.53   50.38
   2  -4   9  516.99   37.76
   4  -2  -6  175.70   29.83
   2   2   6  157.58   28.30
  -2   4  -6  164.96   23.99
   2   2   6  170.94   29.82
   4  -2  -6  171.85   17.49
   2  -4   6  177.07   23.90
  -2  -2  -6  185.74   31.14
   4  -2  -3  168.27   46.71
  -2   4  -3  170.40   22.14
   4  -2  -3  186.81   19.50
   2   2   3  228.35   34.39
  -2  -2  -3  227.98   32.95
   2  -4   0 4547.18  143.72
   4  -2   0 4891.52  177.96
   2   2   0 4423.35  148.95
   4  -2   0 5076.65  159.95
   2   2   0 4872.96  178.61
  -2  -2   0 4896.03  178.59
   4  -2   3  177.48   29.72
   2  -4  -3  208.85   34.25
   2   2  -3  205.08   31.24
   4  -2   3  170.17   31.41
   2   2  -3  180.70   27.48
  -2  -2   3  169.96   33.03
   4  -2   6  179.06   29.13
   2  -4  -6  176.62   21.35
   2   2  -6  150.07   37.47
   4  -2   6  164.78   27.71
   2   2  -6  176.46   28.78
  -2  -2   6  166.49   46.44
   4  -2   9  473.15   48.98
   2   2  -9  539.22   61.37
   4  -2   9  525.21   61.06
  -2  -2   9  474.73   55.37
   2   2 -12  434.67   79.24
   4  -2  12  435.99   60.09
   2   2 -15 1334.40  165.13
  -4   2 -15 1489.13  114.56
   4  -2  15 1451.89  136.95
   2   2 -18   12.97   15.59
  -4   2 -18   19.35   17.57
   4  -2  18   14.82   19.94
   2   2 -21 1108.61  142.82
  -4   2 -21 1053.82  101.50
   4  -2  21  947.53  109.24
   2   2 -24  623.89  126.34
  -4   2 -24  428.88   66.74
   4  -2  24  363.78   64.30
   2   2 -27   40.72   53.92
  -4   2 -27   21.90   23.27
   4  -2  27   42.41   65.10
   4  -1 -25  357.63   75.18
  -3   4 -25  273.30  134.14
   3  -4  25  383.84   96.56
   1   3  25  308.76   66.42
   4  -1 -22  496.99   84.77
  -3   4 -22  402.15   72.45
   3  -4  22  543.69  125.65
   1   3  22  433.85   67.42
   4  -1 -19  237.77   50.33
  -3   4 -19  234.75   45.31
   3  -4  19  325.29   80.98
   1   3  19  242.41   55.36
   4  -1 -16  218.55   75.54
  -3   4 -16  207.68   45.19
   3  -4  16  227.24   57.09
   1   3  16  207.81   52.16
   4  -1 -13 2464.52  266.98
  -3   4 -13 2133.21  151.72
   3  -4  13 2755.24  325.02
   1   3  13 2167.57  147.88
   4  -1 -10 1631.38   85.44
  -3   4 -10 1715.08   91.50
   3  -4  10 2449.81  192.07
   1   3  10 1704.04   91.21
   4  -1  -7   15.36   19.22
  -3   4  -7   11.69    8.62
   3  -4   7   15.72   33.83
   4  -1  -7   14.04    8.97
   3  -4   4 1207.39   62.60
   4  -1  -4 1225.20   80.61
   3  -4   4 1323.34  144.47
   4  -1  -4 1186.52   58.32
   1   3   4 1180.31   69.98
  -1  -3  -4 1240.60   75.40
   3  -4   1  107.22   18.61
   4  -1  -1  111.76   40.34
   3  -4   1  109.87   37.55
   4  -1  -1  117.29   18.89
   1   3   1  120.30   24.63
  -1  -3  -1  132.64   28.91
   3  -4  -2 1562.26   74.92
   4  -1   2 1604.09   80.61
   3  -4  -2 1438.53  136.92
   4  -1   2 1667.54   79.39
   1   3  -2 1581.13   85.46
  -1  -3   2 1601.87   84.71
   4  -1   5  305.46   39.10
   3  -4  -5  308.40   33.55
   1   3  -5  249.33   51.24
   4  -1   5  297.82   33.86
  -1  -3   5  329.23   43.86
   4  -1   8  347.24   41.77
   3  -4  -8  354.29   35.29
   1   3  -8  320.74   53.97
   4  -1   8  355.69   48.54
  -1  -3   8  368.64   45.50
   4  -1  11 1982.44   96.16
   3  -4 -11 2109.17   93.21
   1   3 -11 2424.95  160.82
   4  -1  11 2193.64  128.44
  -1  -3  11 2236.94  117.80
   4  -1  14  148.95   29.64
   3  -4 -14  172.21   37.25
   1   3 -14  230.36   57.25
   4  -1  14  160.13   38.02
   3  -4 -17   51.21   17.06
   1   3 -17   79.71   82.35
   4  -1  17   44.78   36.45
   3  -4 -20   13.41   22.03
  -4   1 -20   12.95   15.31
   4  -1  20   14.61   23.61
  -4   1 -23  781.49   84.15
   4  -1  23  812.55  145.87
  -4   1 -26  571.21   91.06
   4  -1  26  557.73  105.89
   4   0 -23  758.25  153.98
  -4   4 -23  651.07  100.03
   4  -4  23  824.07  149.36
   0   4  23  679.25  105.26
   4   0 -20   37.99   71.06
  -4   4 -20   40.05   24.83
   4  -4  20   43.02   88.23
   0   4  20   38.95   18.14
   4   0 -17   76.43   99.89
  -4   4 -17   73.45   24.85
   4  -4  17   87.59   70.36
   0   4  17   69.31   20.32
   4   0 -14  143.98   31.17
  -4   4 -14  140.31   33.58
   4  -4  14  119.90   38.02
   0   4  14  137.14   26.75
   4   0 -11 1370.81  109.23
  -4   4 -11 1295.01  102.78
   4  -4  11 1244.87  122.62
   0   4  11 1273.17   97.34
   4  -4   8  185.63   34.92
   4   0  -8  176.49   43.53
   4  -4   8  172.41   44.93
   0   4   8  184.23   30.76
   4   0  -8  182.83   27.26
   4  -4   5  189.10   31.28
   4   0  -5  184.00   49.23
   4  -4   5  206.19   37.03
   4   0  -5  194.89   27.94
   0   4   5  188.62   30.67
   4   0  -2  951.04   64.87
   4   0  -2  915.89   57.87
   0   4   2  933.52   65.84
   4   0   1   26.27   28.01
   4   0   1   25.10   13.21
   0  -4   1   21.23   13.75
   4  -4  -4 1015.21   76.63
   4   0   4 1034.25   76.70
   4   0   4 1043.29   66.90
   0  -4   4  989.19   66.05
   4   0   7   10.39   15.78
   4  -4  -7    9.41   16.56
   4   0   7   10.15   24.30
   0  -4   7    9.50   13.29
  -4   0  -7    7.47   20.26
   4   0  10 1648.50  123.53
   4  -4 -10 1737.55  126.41
   0   4 -10 1655.05  123.80
   4   0  10 1611.26  121.07
   0  -4  10 1754.56  127.38
  -4   0 -10 1519.75  111.73
   4   0  13 1900.75  129.63
   4  -4 -13 1920.35  131.43
   0   4 -13 2051.98  163.96
   4   0  13 1946.68  143.23
   0  -4  13 2014.73  142.73
   4   0  16  291.06   39.01
   4  -4 -16  331.28   49.01
   0   4 -16  329.08  152.00
   4   0  16  269.91   64.38
   4   0  19  300.31   44.13
   4  -4 -19  327.14   50.54
   0   4 -19  321.33   67.01
   4   0  19  303.54   90.34
   4   0  22  380.67   60.91
   4  -4 -22  444.44   73.02
   0   4 -22  495.17  102.46
   4   0  22  355.05   78.23
   4  -4 -25  206.18   48.93
   0   4 -25  448.74  313.08
   0  -4  25  258.67   80.20
   4   0  25  156.97   52.68
   5  -4 -18   31.06   50.55
   4   1  18   33.94   44.58
   5  -4 -15  521.02   75.78
   4   1  15  596.68   88.46
   1  -5  15  571.34   76.79
   5  -4 -12  101.22   24.10
   4   1  12  110.05   35.96
  -4  -1 -12  100.25   27.77
   1  -5  12   96.59   52.37
   5  -4  -9  214.77   36.98
   4   1   9  187.17   52.24
   1  -5   9  196.49   35.10
  -4  -1  -9  220.81   50.69
   5  -4  -6  197.68   34.89
   4   1   6  196.12   38.64
   4   1   6  180.43   33.79
   1  -5   6  182.30   36.34
  -4  -1  -6  182.90   44.90
   5  -4  -3  223.31   39.16
   4   1   3  223.20   51.27
   4   1   3  243.92   39.92
   1  -5   3  223.43   37.94
  -4  -1  -3  231.47   38.01
   5  -4   0 2322.34  251.36
   4   1   0 2202.35  147.74
   4   1   0 2342.73  252.26
   1  -5   0 2288.77  153.04
   5  -4   3  268.86   44.84
   4   1  -3  241.81   66.97
   4   1  -3  255.81   37.63
   5  -4   6  170.59   32.25
   4   1  -6  180.79   89.82
   4   1  -6  168.37   30.60
   5  -4   9  214.20   40.51
   4   1  -9  217.14   51.72
  -1   5   9  206.67   34.45
   4   1  -9  202.55   34.70
   5  -4  12   89.52   29.79
   4   1 -12   97.84  106.59
  -1   5  12   91.71   24.06
   5  -4  15  429.11   65.00
   4   1 -15  633.61   95.79
   5  -4  15  515.10  109.63
   4   1 -18   40.32   61.05
  -5   4 -18   34.04   21.37
   5  -4  18   28.60   53.56
   5  -3 -22  156.09   39.68
  -2   5 -22  130.78   73.67
   2  -5  22  157.68  104.88
   3   2  22  156.22   49.23
   5  -3 -19  123.15   36.04
  -2   5 -19   99.67   30.47
   2  -5  19  147.51   53.34
   3   2  19  115.62   52.70
  -3  -2 -19  112.40   35.93
   5  -3 -16  123.69   53.90
  -2   5 -16  118.12   32.66
   2  -5  16  212.39   69.83
   3   2  16  124.09   45.98
  -3  -2 -16  112.98   29.68
   5  -3 -13  992.14   87.51
  -2   5 -13 1040.96   89.98
   3   2  13 1087.90  100.33
  -3  -2 -13  984.63   89.32
   5  -3 -10  823.77   84.39
  -2   5 -10  829.78   71.36
   3   2  10  866.47   83.12
  -3  -2 -10  777.62   73.93
   2  -5  10  848.01   66.99
   5  -3  -7   35.17   42.24
   3   2   7   29.95   22.01
   2  -5   7   22.12   12.73
  -3  -2  -7   24.24   13.74
   5  -3  -4  363.24   58.66
   3   2   4  377.96   47.84
   2  -5   4  364.05   43.39
  -3  -2  -4  350.62   48.80
   5  -3  -1  211.49   40.21
   3   2   1  209.45   34.42
  -3  -2  -1  203.47   53.55
   5  -3   2 1331.58  125.60
   3   2  -2 1173.60   91.30
   3   2  -2 1239.00   97.90
  -3  -2   2 1276.05  106.63
   5  -3   5  539.60   64.99
   3   2  -5  563.75   63.60
   3   2  -5  520.87   58.47
  -3  -2   5  495.63   57.72
   5  -3   8  507.86   59.67
   3   2  -8  436.54   54.88
   5  -3   8  489.49   63.75
   3   2  -8  496.11   58.94
   5  -3  11 1435.25  110.67
   3   2 -11 1431.03  125.33
   5  -3  11 1638.06  136.63
   5  -3  14   16.86   16.58
   3   2 -14   27.53   33.88
   5  -3  14   18.11   42.88
   5  -3  17   10.77   14.71
   3   2 -17   13.75   22.35
   5  -3  17    9.55   22.65
   3   2 -20    5.40   18.23
  -5   3 -20    7.83   16.44
   5  -3  20   17.56   17.99
   5  -2 -20   17.03   21.22
  -3   5 -20   10.65   18.71
   3  -5  20   11.39   42.83
   2   3  20    9.99   13.77
   5  -2 -17    8.68   16.28
  -3   5 -17    7.70    9.56
   3  -5  17   91.01   46.81
   2   3  17   18.29   16.71
   5  -2 -14   17.84   23.29
  -3   5 -14   13.61   13.84
   3  -5  14   29.77   60.39
   2   3  14   19.40   15.93
   5  -2 -11 1495.44  113.78
  -3   5 -11 1504.33  111.72
   3  -5  11 1307.14  136.35
   2   3  11 1529.90  122.78
  -2  -3 -11 1590.55  122.69
   5  -2  -8  501.00   64.74
  -3   5  -8  494.70   51.12
   3  -5   8  399.00   64.96
   2   3   8  461.14   54.43
  -2  -3  -8  503.47   61.56
   3  -5   5  545.75   50.81
   5  -2  -5  520.92   62.73
   3  -5   5  402.70   61.40
   2   3   5  544.14   59.41
  -2  -3  -5  530.04   59.84
   3  -5   2 1316.93   90.33
   5  -2  -2 1291.01   96.89
   2   3   2 1232.86   99.29
  -2  -3  -2 1274.92  100.40
   5  -2   1  209.46   37.47
   5  -2   1  217.95   27.27
   2   3  -1  195.25   34.68
  -2  -3   1  217.32   39.83
   5  -2   4  354.00   45.86
   5  -2   4  359.20   39.54
   2   3  -4  398.52   53.08
  -2  -3   4  367.16   53.33
   5  -2   7   37.49   33.68
   5  -2   7   29.80   15.07
  -2  -3   7   30.30   61.32
   5  -2  10  826.65   76.10
   5  -2  10  795.10   70.57
  -2  -3  10  805.50   84.54
   5  -2  13  979.57   86.13
   2   3 -13  675.12  103.77
   5  -2  13 1048.61   92.41
   5  -2  16  109.57   29.98
   2   3 -16  119.69  159.37
   5  -2  16  123.28   38.91
   5  -2  19  104.82   30.63
   2   3 -19  201.45  139.52
   5  -2  19  118.51   41.97
   5  -2  22  126.99   34.72
   2   3 -22  286.02  185.11
   5  -2  22  163.59   51.59
   5  -1 -18   32.20   46.96
  -4   5 -18   29.98   22.84
   4  -5  18   35.46   77.04
   1   4  18   38.53   20.80
   5  -1 -15  658.27   95.02
  -4   5 -15  587.44   85.00
   4  -5  15  616.21  113.65
   1   4  15  586.96   82.76
   5  -1 -12   95.81   27.84
  -4   5 -12   85.27   24.68
   4  -5  12   72.16   42.07
   1   4  12   98.88   27.10
   4  -5   9  207.40   36.94
   5  -1  -9  200.79   34.03
   1   4   9  193.81   35.00
   4  -5   6  182.99   32.53
   5  -1  -6  172.03   49.49
   1   4   6  168.04   33.05
  -1  -4  -6  194.95   41.94
   4  -5   3  255.57   46.70
   5  -1  -3  256.11   46.92
   5  -1  -3  258.73   32.48
   1   4   3  291.89   45.08
  -1  -4  -3  297.62   51.04
   4  -5   0 2327.20  249.22
   5  -1   0 2341.28  249.92
   5  -1   0 2333.00  246.11
   1   4   0 2230.99  155.55
  -1  -4   0 2280.75  159.62
   4  -5  -3  231.10   47.89
   5  -1   3  224.53   74.12
   5  -1   3  240.83   63.19
  -1  -4   3  259.10   46.08
   5  -1   6  187.40   35.99
   4  -5  -6  202.46   30.85
   5  -1   6  185.93   50.93
  -1  -4   6  198.95   39.58
   5  -1   9  199.92   43.20
   4  -5  -9  219.73   39.24
   5  -1   9  197.95   54.72
  -1  -4   9  207.17   56.36
   5  -1  12   96.12   27.34
   5  -1  12   87.33   46.18
  -1  -4  12   90.97   50.37
   5  -1  15  551.35   76.46
   5  -1  15  522.91   91.83
   5  -1  18   25.80   17.13
   5  -1  18   25.02   48.99
   5   0 -16  149.05   41.29
   0   5  16  148.16   36.30
   5  -5  13  738.12   98.31
   5   0 -13  756.99  107.43
   0   5  13  677.81   90.71
   5  -5  10  598.43   82.53
   5   0 -10  604.80   86.56
   0   5  10  578.80   80.77
   5  -5   7    5.79   11.41
   5   0  -7    0.65   11.89
   5   0  -7    3.78   10.94
   0   5   7    3.17   10.82
   5  -5   4  217.24   42.25
   5   0  -4  208.94   47.81
   5   0  -4  225.07   35.73
   0   5   4  213.53   38.83
   0  -5  -4  227.31   45.15
   5  -5   1  109.40   31.31
   5   0  -1  101.47   57.25
   5   0  -1  107.56   26.91
   0  -5  -1  119.35   34.89
   5  -5  -2  625.00   68.77
   5   0   2  661.29   66.27
   5   0   2  647.62   64.87
   0  -5   2  668.84   71.34
   5  -5  -5  314.72   55.92
   5   0   5  312.03   65.91
   5   0   5  313.68   51.07
   0  -5   5  323.56   58.36
   5   0   8  332.12   61.55
   5  -5  -8  344.43   59.68
   5   0   8  318.98   68.23
   0  -5   8  342.91   59.95
   5   0  11  772.45   96.82
   5  -5 -11  811.47  107.55
   5   0  11  803.73  104.51
   0  -5  11  788.17  106.34
   5   0  14    0.89    6.05
   5  -5 -14    6.22   13.62
   5   0  14    1.44    7.12
   0  -5  14    6.07   10.64
   6  -5  -1  103.13   30.97
   5   1   1  113.18   33.86
   1  -6   1  107.67   39.55
   6  -5   2  472.60   83.73
   5   1  -2  527.53   76.11
   1  -6  -2  574.55   86.32
   6  -4 -11  614.87   86.89
   4   2  11  654.43   95.51
  -4  -2 -11  576.77   88.15
   6  -4  -8  296.56   59.26
   4   2   8  302.19   57.06
   2  -6   8  290.91   48.15
  -4  -2  -8  296.92   71.46
   6  -4  -5  314.92   55.86
   4   2   5  330.63   58.84
   2  -6   5  277.17   47.01
  -4  -2  -5  279.98   63.27
   6  -4  -2  510.77   81.69
   4   2   2  526.89   77.22
   2  -6   2  527.76   74.32
  -4  -2  -2  480.08   86.04
   6  -4   1   89.78   28.50
   4   2  -1  101.92   30.83
  -4  -2   1   97.22   93.64
   6  -4   4  148.53   37.28
   4   2  -4  144.22   34.90
   6  -4   7    8.94   15.23
   4   2  -7    6.06   12.68
   6  -4  10  475.75   74.25
   6  -3 -12   49.63   58.50
   3  -6  12   46.04   36.63
   3   3  12   43.72   23.76
  -3  -3 -12   51.24   28.26
   6  -3  -9  121.63   37.90
   3   3   9  123.28   36.03
  -3  -3  -9  112.70   35.80
   6  -3  -6  167.58   38.66
   3   3   6  177.13   42.32
  -3  -3  -6  172.97   43.15
   6  -3  -3  248.41   54.48
   3   3   3  281.49   53.45
  -3  -3  -3  265.74   53.75
   6  -3   0 1508.61  175.70
   3   3   0 1564.37  181.45
  -3  -3   0 1478.43  180.43
   6  -3   3  230.20   52.09
   3   3  -3  244.38   47.39
  -3  -3   3  236.51   64.19
   6  -3   6  159.94   43.93
   3   3  -6  170.23   41.77
  -3  -3   6  148.93   58.66
   6  -3   9  110.49   34.19
   6  -3  12   43.72   55.30
   6  -2 -10  462.97   73.19
   2   4  10  460.45   71.71
  -2  -4 -10  491.26   79.16
   6  -2  -7    7.64   15.55
   2   4   7    8.36   15.29
  -2  -4  -7   22.85   23.47
   6  -2  -4  139.23   62.30
   2   4   4  141.49   36.85
  -2  -4  -4  142.70   40.08
   6  -2  -1   90.70   30.05
   2   4   1  107.18   33.34
  -2  -4  -1  110.72   39.73
   6  -2   2  492.29   88.78
   2   4  -2  541.58   81.26
  -2  -4   2  542.66   88.80
   6  -2   5  297.62   55.94
  -2  -4   5  289.46   90.82
   6  -2   8  275.53   58.89
  -2  -4   8  290.29   54.70
   6  -2  11  592.01   83.89
   6  -2  11  575.29   90.69
  -2  -4  11  658.34  111.66
   6  -1  -2  462.93   79.06
   1   5   2  511.36   79.13
  -1  -5  -2  476.06   79.69
   6  -1   1   95.93   53.63
  -1  -5   1  101.27   35.30
   0   0   0    0.00    0.00
;
_shelx_hkl_checksum              74065
loop_
_space_group_symop_operation_xyz
'x, y, z'
'-y, x-y, z'
'-x+y, -x, z'
'y, x, -z'
'x-y, -y, -z'
'-x, -x+y, -z'
'x+2/3, y+1/3, z+1/3'
'-y+2/3, x-y+1/3, z+1/3'
'-x+y+2/3, -x+1/3, z+1/3'
'y+2/3, x+1/3, -z+1/3'
'x-y+2/3, -y+1/3, -z+1/3'
'-x+2/3, -x+y+1/3, -z+1/3'
'x+1/3, y+2/3, z+2/3'
'-y+1/3, x-y+2/3, z+2/3'
'-x+y+1/3, -x+2/3, z+2/3'
'y+1/3, x+2/3, -z+2/3'
'x-y+1/3, -y+2/3, -z+2/3'
'-x+1/3, -x+y+2/3, -z+2/3'
loop_
_atom_site_label
_atom_site_type_symbol
_atom_site_fract_x
_atom_site_fract_y
_atom_site_fract_z
_atom_site_U_iso_or_equiv
_atom_site_adp_type
_atom_site_occupancy
_atom_site_site_symmetry_order
_atom_site_calc_flag
_atom_site_refinement_flags_posn
_atom_site_refinement_flags_adp
_atom_site_refinement_flags_occupancy
Zn1 Zn 0.3333 0.6667 0.97448(4) 0.0146(4) Uani 1 3 d S T P
Br Br 0.3333 0.6667 0.88974(4) 0.0419(4) Uani 1 3 d S T P
K1 K 0.6667 0.3333 0.8333 0.0466(10) Uani 1 6 d S T P
O1 O 0.7227(9) 1.0000 1.0000 0.0178(15) Uani 1 2 d S T P
B1 B 1.0000 1.0000 1.0000 0.016(3) Uani 1 6 d S T P
loop_
_atom_site_aniso_label
_atom_site_aniso_U_11
_atom_site_aniso_U_22
_atom_site_aniso_U_33
_atom_site_aniso_U_23
_atom_site_aniso_U_13
_atom_site_aniso_U_12
Zn1 0.0107(4) 0.0107(4) 0.0224(7) 0.000 0.000 0.00537(19)
Br 0.0520(5) 0.0520(5) 0.0217(7) 0.000 0.000 0.0260(2)
K1 0.0439(11) 0.0439(11) 0.052(3) 0.000 0.000 0.0220(6)
O1 0.0090(19) 0.010(2) 0.035(5) -0.004(3) -0.0021(13) 0.0051(12)
B1 0.010(3) 0.010(3) 0.027(9) 0.000 0.000 0.0052(15)
loop_
_atom_type_symbol
_atom_type_description
_atom_type_scat_dispersion_real
_atom_type_scat_dispersion_imag
_atom_type_scat_source
B B 0.0013 0.0007 'International Tables Vol C Tables 4.2.6.8 and 6.1.1.4'
O O 0.0106 0.0060 'International Tables Vol C Tables 4.2.6.8 and 6.1.1.4'
K K 0.2009 0.2494 'International Tables Vol C Tables 4.2.6.8 and 6.1.1.4'
Zn Zn 0.2839 1.4301 'International Tables Vol C Tables 4.2.6.8 and 6.1.1.4'
Br Br -0.2901 2.4595 'International Tables Vol C Tables 4.2.6.8 and 6.1.1.4'
loop_
_geom_angle_atom_site_label_1
_geom_angle_atom_site_label_2
_geom_angle_atom_site_label_3
_geom_angle
_geom_angle_site_symmetry_1
_geom_angle_site_symmetry_3
O1 Zn1 O1 107.16(4) . 2_665
O1 Zn1 O1 107.16(5) . 3_565
O1 Zn1 O1 107.16(5) 2_665 3_565
O1 Zn1 Br 111.69(4) . .
O1 Zn1 Br 111.69(4) 2_665 .
O1 Zn1 Br 111.69(4) 3_565 .
Zn1 Br K1 119.039(19) . 1_455
Zn1 Br K1 119.039(19) . 1_565
K1 Br K1 98.43(2) 1_455 1_565
Zn1 Br K1 119.040(19) . .
K1 Br K1 98.43(3) 1_455 .
K1 Br K1 98.43(2) 1_565 .
Br K1 Br 98.43(2) . 1_655
Br K1 Br 98.43(3) . 1_545
Br K1 Br 98.43(2) 1_655 1_545
Br K1 Br 180.0 . 16_546
Br K1 Br 81.57(3) 1_655 16_546
Br K1 Br 81.57(3) 1_545 16_546
Br K1 Br 81.57(2) . 16_446
Br K1 Br 180.0 1_655 16_446
Br K1 Br 81.58(2) 1_545 16_446
Br K1 Br 98.42(3) 16_546 16_446
Br K1 Br 81.57(3) . 16_556
Br K1 Br 81.58(3) 1_655 16_556
Br K1 Br 180.0 1_545 16_556
Br K1 Br 98.42(2) 16_546 16_556
Br K1 Br 98.42(3) 16_446 16_556
Br K1 K1 139.213(13) . 1_655
Br K1 K1 40.786(13) 1_655 1_655
Br K1 K1 90.0 1_545 1_655
Br K1 K1 40.789(13) 16_546 1_655
Br K1 K1 139.213(13) 16_446 1_655
Br K1 K1 90.0 16_556 1_655
Br K1 K1 139.213(13) . 1_545
Br K1 K1 90.0 1_655 1_545
Br K1 K1 40.786(13) 1_545 1_545
Br K1 K1 40.789(12) 16_546 1_545
Br K1 K1 90.0 16_446 1_545
Br K1 K1 139.213(13) 16_556 1_545
K1 K1 K1 60.0 1_655 1_545
Br K1 K1 90.0 . 1_665
Br K1 K1 40.787(13) 1_655 1_665
Br K1 K1 139.212(12) 1_545 1_665
Br K1 K1 90.0 16_546 1_665
Br K1 K1 139.213(12) 16_446 1_665
Br K1 K1 40.788(13) 16_556 1_665
K1 K1 K1 60.0 1_655 1_665
K1 K1 K1 120.0 1_545 1_665
Br K1 K1 90.0 . 1_445
Br K1 K1 139.212(13) 1_655 1_445
Br K1 K1 40.787(13) 1_545 1_445
Br K1 K1 90.0 16_546 1_445
Br K1 K1 40.788(13) 16_446 1_445
Br K1 K1 139.213(13) 16_556 1_445
K1 K1 K1 120.0 1_655 1_445
K1 K1 K1 60.0 1_545 1_445
K1 K1 K1 180.0 1_665 1_445
Br K1 K1 40.786(12) . 1_455
Br K1 K1 139.212(13) 1_655 1_455
Br K1 K1 90.0 1_545 1_455
Br K1 K1 139.213(13) 16_546 1_455
Br K1 K1 40.789(12) 16_446 1_455
Br K1 K1 90.0 16_556 1_455
K1 K1 K1 180.0 1_655 1_455
K1 K1 K1 120.0 1_545 1_455
K1 K1 K1 120.0 1_665 1_455
K1 K1 K1 60.0 1_445 1_455
Br K1 K1 40.786(12) . 1_565
Br K1 K1 90.000(1) 1_655 1_565
Br K1 K1 139.212(13) 1_545 1_565
Br K1 K1 139.213(13) 16_546 1_565
Br K1 K1 90.0 16_446 1_565
Br K1 K1 40.789(13) 16_556 1_565
K1 K1 K1 120.0 1_655 1_565
K1 K1 K1 180.0 1_545 1_565
K1 K1 K1 60.0 1_665 1_565
K1 K1 K1 120.0 1_445 1_565
K1 K1 K1 60.0 1_455 1_565
B1 O1 Zn1 124.58(11) . .
B1 O1 Zn1 124.58(11) . 4_567
Zn1 O1 Zn1 110.8(2) . 4_567
O1 B1 O1 120.000(8) 3_675 2_765
O1 B1 O1 120.000(6) 3_675 .
O1 B1 O1 120.00(2) 2_765 .
loop_
_geom_bond_atom_site_label_1
_geom_bond_atom_site_label_2
_geom_bond_distance
_geom_bond_site_symmetry_2
Zn1 O1 1.947(3) .
Zn1 O1 1.947(3) 2_665
Zn1 O1 1.947(3) 3_565
Zn1 Br 2.3897(16) .
Br K1 3.2766(7) 1_455
Br K1 3.2766(7) 1_565
Br K1 3.2766(7) .
K1 Br 3.2767(7) 1_655
K1 Br 3.2767(7) 1_545
K1 Br 3.2767(7) 16_546
K1 Br 3.2767(7) 16_446
K1 Br 3.2767(7) 16_556
K1 K1 4.9618(6) 1_655
K1 K1 4.9618(6) 1_545
K1 K1 4.9618(6) 1_665
K1 K1 4.9618(6) 1_445
K1 K1 4.9618(6) 1_455
K1 K1 4.9618(6) 1_565
O1 B1 1.376(5) .
O1 Zn1 1.947(3) 4_567
B1 O1 1.376(5) 3_675
B1 O1 1.376(5) 2_765
