#------------------------------------------------------------------------------
#$Date: 2020-05-02 22:42:06 +0300 (Sat, 02 May 2020) $
#$Revision: 251408 $
#$URL: file:///home/coder/svn-repositories/cod/cif/4/00/35/4003538.cif $
#------------------------------------------------------------------------------
#
# This file is available in the Crystallography Open Database (COD),
# http://www.crystallography.net/
#
# All data on this site have been placed in the public domain by the
# contributors.
#
data_4003538
loop_
_publ_author_name
'Gui, Xin'
'Xie, Weiwei'
_publ_section_title
;
 Crystal Structure, Magnetism, and Electronic Properties of a
 Rare-Earth-Free Ferromagnet: MnPt5As
;
_journal_name_full               'Chemistry of Materials'
_journal_paper_doi               10.1021/acs.chemmater.0c00244
_journal_year                    2020
_chemical_formula_sum            'As Mn Pt5'
_chemical_formula_weight         1105.31
_space_group_crystal_system      tetragonal
_space_group_IT_number           123
_space_group_name_Hall           '-P 4 2'
_space_group_name_H-M_alt        'P 4/m m m'
_audit_creation_method           SHELXL-2013
_cell_angle_alpha                90
_cell_angle_beta                 90
_cell_angle_gamma                90
_cell_formula_units_Z            1
_cell_length_a                   3.9308(8)
_cell_length_b                   3.9308(8)
_cell_length_c                   7.0919(14)
_cell_measurement_reflns_used    1489
_cell_measurement_temperature    296(2)
_cell_measurement_theta_max      25.242
_cell_measurement_theta_min      2.872
_cell_volume                     109.58(4)
_computing_cell_refinement       'Bruker SAINT'
_computing_data_collection       'Bruker APEX2'
_computing_data_reduction        'Bruker SAINT'
_computing_molecular_graphics    'Bruker SHELXTL'
_computing_publication_material  'Bruker SHELXTL'
_computing_structure_refinement  'SHELXL-2013 (Sheldrick, 2013)'
_computing_structure_solution    'SHELXS-97 (Sheldrick 2008)'
_diffrn_ambient_temperature      296(2)
_diffrn_measured_fraction_theta_full 0.988
_diffrn_measured_fraction_theta_max 0.995
_diffrn_measurement_device_type  'Bruker APEX-II CCD'
_diffrn_measurement_method       '\f and \w scans'
_diffrn_radiation_type           MoK\a
_diffrn_radiation_wavelength     0.71073
_diffrn_reflns_av_R_equivalents  0.0408
_diffrn_reflns_av_unetI/netI     0.0237
_diffrn_reflns_Laue_measured_fraction_full 0.988
_diffrn_reflns_Laue_measured_fraction_max 0.995
_diffrn_reflns_limit_h_max       5
_diffrn_reflns_limit_h_min       -6
_diffrn_reflns_limit_k_max       6
_diffrn_reflns_limit_k_min       -5
_diffrn_reflns_limit_l_max       11
_diffrn_reflns_limit_l_min       -11
_diffrn_reflns_number            1489
_diffrn_reflns_point_group_measured_fraction_full 0.988
_diffrn_reflns_point_group_measured_fraction_max 0.995
_diffrn_reflns_theta_full        25.242
_diffrn_reflns_theta_max         36.301
_diffrn_reflns_theta_min         2.872
_exptl_absorpt_coefficient_mu    169.048
_exptl_absorpt_correction_T_max  0.7457
_exptl_absorpt_correction_T_min  0.2545
_exptl_absorpt_correction_type   multi-scan
_exptl_absorpt_process_details   'SADABS Sheldrick'
_exptl_crystal_colour            Silver
_exptl_crystal_density_diffrn    16.750
_exptl_crystal_density_meas      ?
_exptl_crystal_density_method    'not measured'
_exptl_crystal_description       Regular
_exptl_crystal_F_000             448
_exptl_crystal_size_max          0.030
_exptl_crystal_size_mid          0.025
_exptl_crystal_size_min          0.020
_refine_diff_density_max         4.851
_refine_diff_density_min         -3.876
_refine_diff_density_rms         0.974
_refine_ls_extinction_coef       0.0011(8)
_refine_ls_extinction_expression Fc^*^=kFc[1+0.001xFc^2^\l^3^/sin(2\q)]^-1/4^
_refine_ls_extinction_method     SHELXL
_refine_ls_goodness_of_fit_ref   1.163
_refine_ls_hydrogen_treatment    None
_refine_ls_matrix_type           full
_refine_ls_number_parameters     12
_refine_ls_number_reflns         200
_refine_ls_number_restraints     0
_refine_ls_restrained_S_all      1.163
_refine_ls_R_factor_all          0.0312
_refine_ls_R_factor_gt           0.0273
_refine_ls_shift/su_max          0.000
_refine_ls_shift/su_mean         0.000
_refine_ls_structure_factor_coef Fsqd
_refine_ls_weighting_details
'w=1/[\s^2^(Fo^2^)+(0.0456P)^2^+0.3507P] where P=(Fo^2^+2Fc^2^)/3'
_refine_ls_weighting_scheme      calc
_refine_ls_wR_factor_gt          0.0726
_refine_ls_wR_factor_ref         0.0752
_reflns_Friedel_coverage         0.000
_reflns_number_gt                180
_reflns_number_total             200
_reflns_threshold_expression     'I > 2\s(I)'
_cod_data_source_file            cm0c00244_si_001.cif
_cod_data_source_block           XG_MnPt5As_100919_H_0m
_cod_depositor_comments
;
The following automatic conversions were performed:

data item '_exptl_absorpt_correction_type' value 'Multi-scan' was
changed to 'multi-scan' in accordance with the
/home/data/users/saulius/crontab/automatic-downloads/rss-feeds/ACS/lib/dictionaries/cif_core.dic
dictionary named 'cif_core.dic' version 2.4.2 last updated on
2011-04-26.

data item '_exptl_crystal_density_meas' value 'None' was changed to
'?' -- the value is perceived as not measured.

Automatic conversion script
Id: cif_fix_values 7556 2019-12-06 15:28:31Z antanas 
;
_cod_original_cell_volume        109.58(5)
_cod_database_code               4003538
_shelx_space_group_comment
;
The symmetry employed for this shelxl refinement is uniquely defined
by the following loop, which should always be used as a source of
symmetry information in preference to the above space-group names.
They are only intended as comments.
;
_shelxl_version_number           2013-4
_shelx_res_file
;
TITL XG_MnPt5As_100919_H_0m in P4/mmm
CELL 0.71073   3.93080   3.93080   7.09190  90.0000  90.0000  90.0000
ZERR    1.00   0.00080   0.00080   0.00140   0.0000   0.0000   0.0000
LATT  1
SYMM -X, -Y, Z
SYMM -Y, X, Z
SYMM Y, -X, Z
SYMM -X, Y, -Z
SYMM X, -Y, -Z
SYMM Y, X, -Z
SYMM -Y, -X, -Z
SFAC MN AS PT
UNIT 1 1 5
TEMP 23.000

L.S. 10
ACTA

WGHT    0.045600    0.350700
EXTI    0.001141
FVAR       0.09556
MOLE   1
PT1   3    0.000000    0.500000    0.279382    10.25000    0.00653    0.00513 =
         0.00763    0.00000    0.00000    0.00000
PT2   3    0.000000    0.000000    0.000000    10.06250    0.00620    0.00620 =
         0.00537    0.00000    0.00000    0.00000
AS3   2    0.000000    0.000000    0.500000    10.06250    0.00699    0.00699 =
         0.00616    0.00000    0.00000    0.00000
MN4   1    0.500000    0.500000    0.000000    10.06250    0.00747    0.00747 =
         0.00635    0.00000    0.00000    0.00000
HKLF 4

REM  XG_MnPt5As_100919_H_0m in P4/mmm
REM R1 =  0.0273 for     180 Fo > 4sig(Fo)  and  0.0312 for all     200 data
REM     12 parameters refined using      0 restraints

END

WGHT      0.0456      0.3507

REM Highest difference peak  4.851,  deepest hole -3.876,  1-sigma level  0.974
Q1    1   0.0000  0.3625  0.2813  10.50000  0.05    4.85
Q2    1   0.0000  0.0000  0.1140  10.12500  0.05    4.76
Q3    1   0.0000  0.5000  0.4003  10.25000  0.05    4.61
Q4    1   0.1662  0.0000  0.0000  10.25000  0.05    4.56
Q5    1   0.0000  0.5000  0.1389  10.25000  0.05    4.44
Q6    1   0.1495  0.5000  0.2891  10.50000  0.05    3.55
Q7    1   0.0000 -0.5000  0.0000  10.12500  0.05    3.43
Q8    1   0.1083  0.5000  0.5000  10.25000  0.05    2.93
Q9    1   0.5000  0.5000  0.1743  10.12500  0.05    2.65
Q10   1   0.0000  0.0000  0.4019  10.12500  0.05    2.56
Q11   1   0.2390  0.5000  0.4135  10.50000  0.05    2.38
Q12   1   0.0000  0.0000  0.2782  10.12500  0.05    2.17
Q13   1   0.0000  0.1695  0.3416  10.50000  0.05    2.09
Q14   1  -0.1267  0.2292  0.2696  11.00000  0.05    1.95
Q15   1  -0.2459  0.3480  0.3227  11.00000  0.05    1.94
Q16   1   0.1497  0.0000  0.5000  10.25000  0.05    1.80
Q17   1   0.2808  0.1730  0.0000  10.50000  0.05    1.75
Q18   1   0.1381  0.5000  0.0631  10.50000  0.05    1.73
Q19   1   0.5000  0.3070  0.0000  10.25000  0.05    1.69
Q20   1   0.0000  0.4234  0.5000  10.25000  0.05    1.66
;
_shelx_res_checksum              66422
_shelx_hkl_file
;
   1   1   0  223.48    8.28
  -1  -1   0  232.24    8.23
  -1  -1   0  224.20    8.50
  -2  -1   0   35.69    1.97
   2   1   0   36.66    1.66
  -2  -1   0   38.62    1.57
  -2   0   0 1000.00   35.73
  -2   0   0  988.35   35.92
  -1  -2   0   37.77    2.28
  -1  -2   0   37.26    1.57
  -2   1   0   37.17    1.82
   2   2   0  728.57   26.28
  -2  -2   0  744.34   26.18
  -2  -2   0  700.28   26.64
  -3  -2   0   19.51    1.19
  -3  -2   0   23.29    1.99
   3   2   0   20.22    1.32
  -2   3   0   20.34    1.51
   3   1   0  114.08    4.57
  -3  -1   0  118.24    4.91
  -3  -1   0  115.35    4.44
  -3   0   0   27.30    1.31
  -3   0   0   26.71    1.78
  -3   1   0  110.64    4.54
  -1  -3   0  110.62    5.35
  -2  -3   0   20.03    1.23
  -2  -3   0   19.61    2.05
  -3   2   0   19.18    1.49
   3   3   0   69.80    3.09
  -3  -3   0   67.22    3.90
  -3   3   0   67.32    3.21
  -3  -3   0   71.55    2.98
  -4  -3   0   13.67    1.99
   4   3   0   13.23    1.37
  -3   4   0   11.37    1.65
  -4  -3   0   10.34    1.08
  -4  -2   0  366.85   13.50
   4   2   0  362.46   13.69
  -4  -2   0  353.38   14.15
  -2   4   0  374.26   13.89
   4   1   0   20.93    1.42
  -4  -1   0   19.10    1.32
  -4  -1   0   21.54    1.97
   4   0   0  513.32   18.46
  -4   0   0  490.78   18.72
  -4   0   0  495.53   18.24
  -4   1   0   18.64    1.65
  -4   2   0  368.19   14.09
  -2  -4   0  376.62   15.09
  -3  -4   0   10.46    2.01
  -3  -4   0   12.29    1.11
  -4   3   0   12.67    1.45
  -4  -4   0  194.83    8.74
  -4  -4   0  190.29    7.55
  -5  -4   0    6.25    1.22
  -5  -4   0    2.54    2.17
  -5  -3   0   37.04    3.36
  -5  -3   0   39.63    2.31
  -3   5   0   41.15    3.41
  -5  -2   0   10.79    1.93
  -2   5   0    8.80    1.68
  -5  -2   0    9.99    1.07
  -5  -1   0   62.42    2.96
  -5  -1   0   65.51    3.89
   5   0   0   10.72    1.32
  -5   0   0   12.55    1.79
  -5   0   0   12.29    1.10
  -5   1   0   61.84    3.66
  -5   2   0    9.60    1.62
  -3  -5   0   34.46    3.96
  -5   3   0   39.80    2.88
  -4  -5   0    6.53    2.79
  -4  -5   0    4.16    1.11
  -2   6   0  181.81    8.43
  -6  -2   0  174.09    8.58
  -6  -2   0  173.53    7.17
  -1   6   0   10.70    2.31
  -6  -1   0    9.71    1.28
  -6  -1   0   10.38    2.23
  -6   0   0  209.66    9.16
  -6   0   0  208.56    8.21
  -6   1   0   13.53    2.16
  -6   2   0  182.82    8.11
   0   0  -1    1.72    0.71
   0   0   1    1.86    0.85
  -1   0  -1    3.74    0.55
   1   0  -1    3.90    0.40
  -1   0  -1    4.54    0.39
  -1   0   1    3.74    0.39
  -1  -1  -1  106.81    3.85
   1   1  -1  105.43    3.97
  -1  -1  -1  103.51    4.14
  -1   1   1  100.15    4.04
  -1  -1   1  106.87    4.20
  -1  -1   1  106.25    3.90
  -1  -1   1  100.07    4.11
  -1  -1   1  104.32    3.94
  -2  -1  -1    3.71    0.43
  -2  -1  -1    4.89    0.81
   2   1  -1    3.22    0.52
  -1   2   1    3.96    0.61
  -2  -1   1    3.34    0.72
  -2  -1   1    4.30    0.71
  -2  -1   1    3.63    0.45
  -2   0  -1    0.99    0.57
  -2   0  -1    1.08    0.30
   2   0  -1    2.06    0.40
  -2   0   1    0.87    0.50
  -2   0   1    1.67    0.31
  -1  -2  -1    2.49    0.96
  -1  -2  -1    3.44    0.36
  -2   1  -1    3.45    0.73
  -1  -2   1    3.11    0.41
  -1  -2   1    3.07    0.97
  -2   1   1    5.32    1.24
  -2   1   1    3.46    0.52
  -2  -2  -1    0.40    0.88
   2   2  -1    2.25    0.56
  -2  -2  -1    0.69    0.34
  -2  -2   1    1.09    0.40
  -2   2   1    0.14    0.64
   2   2   1    0.59    0.39
  -2  -2   1    1.44    0.82
  -3  -2  -1    3.37    0.55
  -3  -2  -1    3.18    1.10
   3   2  -1    2.84    0.66
   3   2   1    3.61    0.66
  -3  -2   1    2.94    0.54
  -3  -2   1    2.71    1.04
  -2   3   1    2.73    0.82
   3   1  -1   54.45    2.39
  -3  -1  -1   53.01    2.24
  -3  -1  -1   51.64    2.77
  -3  -1   1   52.29    2.74
  -1   3   1   53.53    2.58
  -3  -1   1   53.70    2.27
  -3   0  -1    2.09    0.44
   3   0  -1    2.91    0.55
  -3   0  -1    2.85    0.86
  -3   0   1    1.86    0.44
  -3   0   1    2.54    0.73
  -3   1  -1   51.15    2.59
  -1  -3  -1   50.13    3.41
  -1  -3   1   46.22    3.31
  -3   1   1   49.25    2.35
   2   3  -1    2.47    0.79
  -3   2  -1    3.07    0.95
  -2  -3  -1    2.15    0.47
  -2  -3  -1    2.14    1.36
  -2  -3   1    1.91    1.21
  -3   2   1    1.39    0.65
  -2  -3   1    2.78    0.53
  -3  -3  -1   30.58    2.88
  -3  -3  -1   33.55    1.70
   3   3  -1   31.21    1.93
   3   3   1   31.17    1.77
  -3  -3   1   30.47    1.71
  -3  -3   1   30.30    2.61
  -3   3   1   30.16    2.53
  -4  -3  -1    1.51    0.64
   4   3  -1    2.23    0.89
  -4  -3  -1    1.43    1.39
  -4  -3   1    1.21    1.20
   4   3   1    1.74    0.82
  -3   4   1    0.07    1.20
  -4  -3   1    1.60    0.65
  -4  -2  -1    1.31    1.07
  -4  -2  -1    0.97    0.55
   4   2  -1    0.69    0.63
  -2   4  -1    1.01    0.98
  -4  -2   1   -0.76    0.50
  -2   4   1    0.91    0.99
   4   2   1    1.00    0.64
  -4  -2   1    1.11    1.06
  -4  -1  -1    3.22    0.58
   4   1  -1    2.45    0.70
  -4  -1  -1    3.33    1.12
  -4  -1   1    2.24    0.59
  -1   4   1    3.14    1.03
   4   1   1    2.01    0.68
  -4  -1   1    5.00    1.16
  -4   0  -1    1.16    1.10
  -4   0  -1    0.50    0.52
   4   0  -1   -0.28    0.57
  -4   0   1    1.23    0.89
  -4   0   1   -0.35    0.52
  -4   1  -1    4.05    1.10
  -4   1   1    1.68    0.91
  -4   2  -1    0.67    1.03
  -2  -4  -1    0.98    0.59
  -2  -4  -1   -0.21    1.73
  -4   2   1    0.52    0.81
  -2  -4   1   -0.28    1.59
  -4   3  -1    2.76    1.12
  -3  -4  -1    3.15    1.83
  -3  -4  -1    1.13    0.71
  -3  -4   1    2.91    1.49
  -4   3   1    0.39    0.93
  -3  -4   1    1.47    0.63
  -4  -4  -1   -0.35    1.64
  -4  -4  -1   -0.11    0.77
  -4   4  -1    2.02    1.38
  -4  -4   1   -0.30    0.65
  -4  -4   1   -0.70    1.37
  -5  -4  -1   -0.56    2.17
  -5  -4  -1    1.42    1.09
  -5  -4   1    1.57    1.85
  -5  -4   1    0.86    0.91
  -5  -3  -1   20.22    2.58
  -5  -3  -1   18.26    1.56
  -3   5  -1   12.98    2.55
  -5  -3   1   20.96    2.44
  -3   5   1   18.09    2.39
  -5  -3   1   17.62    1.48
  -5  -2  -1   -0.01    0.67
  -5  -2  -1    0.48    1.37
  -2   5  -1    0.46    1.28
  -2   5   1    0.40    1.22
  -5  -2   1    1.65    0.69
  -5  -2   1    2.36    1.45
  -5  -1  -1   26.06    2.54
  -5  -1  -1   26.33    1.80
  -5  -1   1   26.80    2.59
  -1   5   1   24.48    2.32
  -5  -1   1   24.03    1.77
  -5   0  -1    3.37    1.38
   5   0  -1    2.64    0.92
  -5   0  -1    1.56    0.72
  -5   0   1    1.19    0.75
  -5   0   1    1.84    1.25
   5   0   1    4.02    0.97
  -5   1  -1   25.83    2.44
  -5   1   1   26.43    2.35
   5  -1   1   26.08    2.04
  -5   2  -1    1.74    1.35
  -5   2   1    1.90    1.25
  -5   3  -1   16.48    2.05
  -3  -5  -1   13.88    1.36
  -3  -5  -1   18.50    3.47
  -3  -5   1   18.13    2.90
  -4  -5  -1   -0.21    1.00
  -5   4  -1   -1.63    2.21
  -4  -5  -1   -3.07    2.58
  -4  -5   1    2.73    2.35
  -6  -2  -1   -0.20    2.23
  -6  -2  -1   -0.05    0.94
  -2   6  -1   -2.28    1.96
  -6  -2   1    0.19    0.91
  -2   6   1    1.01    2.17
  -6  -2   1   -0.55    1.71
  -6  -1  -1   -0.38    0.93
  -6  -1  -1   -0.69    1.98
  -6  -1   1    0.60    0.85
  -6  -1   1    0.37    1.73
  -1   6   1    1.92    1.89
  -6   0  -1   -2.47    1.74
  -6   0  -1    0.21    0.93
   0   6   1    0.02    1.60
  -6   0   1   -0.48    0.87
  -6   0   1   -0.67    1.56
  -6   1  -1    2.34    1.74
  -6   1   1   -0.51    1.48
  -6   2  -1    0.04    1.93
  -6   2   1    3.80    2.71
   0   0  -2  164.02    6.93
   0   0   2  187.27    7.26
   0   0   2  179.04    7.00
  -1   0  -2   44.79    1.83
   0   1  -2   43.05    2.57
   1   0  -2   43.91    1.95
   1   0   2   47.09    1.88
   0   1   2   47.23    1.97
   0  -1   2   45.06    2.18
  -1   0   2   41.53    3.05
   0  -1   2   49.44    2.46
  -1   0   2   40.42    1.87
  -1  -1  -2  920.69   33.24
   1   1  -2  924.79   33.25
  -1   1  -2  940.48   33.23
  -1  -1  -2  908.78   33.06
   1  -1   2  904.33   33.31
  -1   1   2  921.64   33.36
  -1  -1   2  934.23   33.37
  -1  -1   2  904.00   33.50
   2   1  -2   32.04    1.59
  -2  -1  -2   31.89    1.43
  -2  -1  -2   28.25    1.94
  -2  -1   2   34.23    1.92
  -2  -1   2   33.02    1.47
  -1   2   2   30.23    1.70
  -2  -1   2   31.73    2.17
  -2   0  -2  120.47    4.40
  -2   0  -2  112.26    4.70
   2   0  -2  118.00    4.52
   0   2   2  123.14    4.57
  -2   0   2  115.95    4.39
  -2   0   2  122.79    4.59
  -2   0   2   98.21    5.42
  -2   1  -2   32.81    1.45
  -1  -2  -2   31.73    2.30
  -1  -2  -2   32.03    1.41
   1   2  -2   34.31    1.85
  -2   1   2   35.51    2.73
  -1  -2   2   30.98    2.32
  -2  -2  -2   88.95    4.23
   2   2  -2   89.71    3.74
  -2  -2  -2   92.71    3.52
  -2  -2   2   88.09    3.57
  -2  -2   2   89.03    4.09
  -2   2   2   90.95    4.03
  -3  -2  -2   19.87    1.26
  -3  -2  -2   19.82    2.01
   3   2  -2   19.71    1.46
  -2   3   2   20.48    1.84
  -3  -2   2   21.26    1.26
  -3  -2   2   20.46    1.89
   3   1  -2  533.82   19.03
  -3  -1  -2  513.41   19.31
  -3  -1  -2  533.61   18.83
  -3  -1   2  515.79   19.18
  -3  -1   2  476.70   19.27
  -1   3   2  520.09   19.10
  -3  -1   2  528.48   18.85
  -3   0  -2   26.03    2.03
  -3   0  -2   28.08    1.38
   3   0  -2   26.85    1.47
  -3   0   2   25.46    1.38
  -3   0   2   20.42    2.22
  -3   0   2   30.41    1.75
  -3   1  -2  500.65   19.61
  -3   1  -2  541.03   19.13
  -3   1   2  540.29   19.34
  -2  -3  -2   20.24    1.23
  -2  -3  -2   16.55    2.14
  -3   2  -2   22.98    2.23
  -2  -3   2   20.84    1.97
  -3   2   2   16.53    2.44
  -3  -3  -2  318.94   13.14
   3   3  -2  337.10   12.45
  -3  -3  -2  335.77   12.13
  -3   3   2  313.12   12.86
  -3  -3   2  318.48   12.80
  -3  -3   2  335.11   12.18
   4   3  -2   11.48    1.42
  -4  -3  -2    8.72    2.07
  -4  -3  -2   10.64    1.14
  -3   4   2    8.05    1.81
   4   3   2   11.20    1.29
  -4  -3   2   10.63    1.05
  -4  -3   2   12.44    1.77
  -4  -2  -2   49.39    2.39
   4   2  -2   51.26    2.64
  -4  -2  -2   50.09    3.48
  -4  -2   2   49.55    3.10
  -4  -2   2   51.63    2.41
   4   2   2   52.93    2.62
  -2   4   2   51.64    3.04
   4   1  -2   16.21    1.42
  -4  -1  -2   16.14    1.82
  -4  -1  -2   15.08    1.23
  -4  -1   2   15.16    1.65
  -4  -1   2   15.28    1.23
  -1   4   2   16.93    1.76
   4   0  -2   68.38    3.06
  -4   0  -2   64.65    2.87
  -4   0  -2   68.11    3.75
  -4   0   2   67.71    2.90
   0   4   2   65.75    3.35
  -4   0   2   69.98    3.38
  -4   1  -2   15.87    1.15
  -4   1  -2   15.47    1.89
  -4   1   2   16.46    1.61
  -2  -4  -2   44.81    4.52
  -4   2  -2   55.04    3.41
  -2  -4   2   51.10    3.95
  -4   2   2   54.72    2.75
  -3  -4  -2   10.06    1.08
   3   4  -2    9.18    1.62
  -3  -4  -2    8.93    2.55
  -4   3  -2    8.96    1.83
  -3  -4   2    7.91    1.76
  -4  -4  -2   29.01    2.08
  -4   4  -2   30.50    2.88
  -4  -4  -2   27.47    3.33
  -4  -4   2   35.15    3.12
  -4   4   2   23.66    4.26
  -5  -4  -2    5.91    2.92
  -5  -4  -2    5.90    1.39
  -4   5  -2    3.80    2.32
  -5  -4   2    7.70    2.21
  -5  -3  -2  164.39    8.08
  -5  -3  -2  163.67    6.74
  -3   5   2  167.17    7.86
  -5  -3   2  164.71    6.68
  -5  -3   2  172.33    7.64
  -5  -2  -2   11.47    1.22
  -5  -2  -2   14.92    2.34
  -5  -2   2   12.00    1.91
  -2   5   2    7.10    1.69
  -5  -2   2   11.02    1.13
  -5  -1  -2  246.29   10.47
  -5  -1  -2  241.86    9.45
  -5  -1   2  249.86    9.47
  -5  -1   2  253.27   10.15
  -1   5   2  250.46   10.09
  -5   0  -2   16.96    2.28
  -5   0  -2   15.34    1.25
   5   0  -2   14.45    1.60
  -5   0   2   15.26    1.87
  -5   0   2   16.18    1.26
   0   5   2   13.00    1.71
  -5   1  -2  270.69   10.10
  -5   1  -2  269.13   11.14
  -5   1   2  263.85   10.60
  -5   2  -2   13.09    2.05
  -3  -5  -2  174.22    9.91
  -5   3  -2  181.90    8.12
  -4  -5  -2    5.93    3.40
  -5   4  -2    8.20    2.17
  -4  -5  -2    5.83    1.35
  -4  -5   2    8.58    2.50
  -2   6  -2   25.44    3.31
  -6  -2  -2   30.54    3.80
  -6  -2  -2   30.23    2.44
  -6  -2   2   28.54    2.11
  -2   6   2   27.21    3.34
  -6  -2   2   30.10    3.13
  -6  -1  -2    6.14    2.56
  -6  -1  -2    8.44    1.25
  -6  -1   2    4.07    1.00
  -1   6   2    5.43    2.14
  -6  -1   2    4.08    1.87
  -6   0  -2   27.70    2.30
  -6   0  -2   34.74    3.58
   0   6   2   32.66    3.33
  -6   0   2   35.16    3.06
  -6   1  -2    4.10    2.39
   1   6   2    2.83    1.81
  -6   1   2    3.39    1.69
  -6   2  -2   27.44    3.25
   2   6   2   29.69    2.95
   0   0  -3  314.57   12.05
   0   0   3  317.70   12.03
   0   0   3  308.93   12.12
   0   0   3  331.00   12.11
   1   0  -3    4.58    0.87
  -1   0  -3    3.08    0.56
   0  -1  -3    2.47    0.54
   0   1  -3    2.34    1.16
   0   1   3    2.70    0.76
   0  -1   3    2.44    1.16
   0   1   3    2.97    0.70
  -1   0   3    3.38    1.35
   1   0   3    3.73    1.38
  -1   0   3    3.07    1.15
   0  -1   3    2.62    0.90
   1   1  -3   43.29    2.25
  -1   1  -3   46.06    2.29
  -1  -1  -3   38.85    1.74
   1   1   3   41.46    2.14
  -1  -1   3   37.03    2.87
  -1  -1   3   41.31    2.29
  -1   1   3   39.92    2.56
  -1   1   3   43.00    2.12
   2   1  -3    3.11    0.65
  -2  -1  -3    1.87    0.88
  -2  -1  -3    3.51    0.48
  -2  -1   3    2.39    0.78
  -2  -1   3    5.60    1.52
  -1   2   3    2.45    0.78
  -2   0  -3  200.69    7.39
   0   2  -3  193.01    8.09
  -2   0  -3  200.93    7.77
   2   0  -3  205.02    7.55
   0   2   3  200.98    7.58
  -2   0   3  191.72    8.51
   1   2  -3    4.37    1.05
  -1  -2  -3    2.86    0.42
  -2   1  -3    2.52    0.55
  -1  -2   3    3.12    1.07
  -2   1   3    2.44    1.60
   1   2   3    2.88    0.62
  -2  -2  -3  163.30    6.14
   2   2  -3  162.83    6.47
  -2  -2  -3  154.63    6.87
  -2   2   3  169.38    6.87
  -2  -2   3  163.39    6.83
  -2  -2   3  162.91    6.71
  -3  -2  -3    1.19    1.30
   3   2  -3    1.54    0.74
  -3  -2  -3    2.73    0.59
  -3  -2   3    1.83    0.94
  -3  -2   3    2.14    1.15
  -2   3   3    2.39    1.10
  -3  -1  -3   26.98    2.42
   3   1  -3   25.52    1.60
  -3  -1  -3   24.61    1.45
  -3  -1   3   26.77    1.43
  -1   3   3   22.81    1.84
  -3  -1   3   25.38    1.92
  -3  -1   3   26.15    2.49
  -3   0  -3    4.11    1.24
  -3   0  -3    2.74    0.60
   3   0  -3    1.26    0.64
  -3   0   3    2.41    1.77
   0   3   3    1.92    0.78
  -3   0   3    2.87    0.78
  -3   1  -3   26.24    2.40
   1   3  -3   25.25    2.29
  -3   1  -3   27.80    1.47
   1   3   3   26.74    1.79
  -3   1   3   27.25    2.92
  -2  -3  -3    1.41    1.64
  -2  -3  -3    1.70    0.53
   2   3  -3    2.22    1.11
  -2  -3   3    2.99    1.22
  -3   2   3    0.56    1.89
  -3  -3  -3   16.31    2.52
  -3  -3  -3   18.24    1.38
   3   3  -3   17.10    1.73
  -3  -3   3   16.72    1.84
  -3   3   3   14.21    2.20
  -4  -3  -3   -0.47    1.86
  -4  -3  -3    1.60    0.75
  -4  -3   3    0.69    1.12
  -3   4   3    1.12    1.56
   4   3   3    3.15    0.96
  -4  -2  -3   81.01    4.81
  -4  -2  -3   87.67    3.71
   4   2  -3   84.07    3.98
  -2   4   3   88.85    4.40
  -4  -2   3   89.15    3.73
  -4  -2   3   92.29    4.35
   4   1  -3    1.05    0.77
  -4  -1  -3    2.00    0.60
  -4  -1  -3    3.33    1.39
  -4  -1   3    2.57    1.06
  -4  -1   3    1.46    0.59
  -4  -1   3    1.24    1.29
  -1   4   3    1.61    0.98
  -4   0  -3  113.18    4.59
   4   0  -3  114.97    4.81
  -4   0  -3  116.58    5.57
  -4   0   3  115.71    4.92
   0   4   3  112.25    4.98
  -4   0   3  112.56    4.56
  -4   1  -3    1.98    0.76
  -4   1  -3    0.81    1.49
   1   4   3    1.08    0.92
  -4   1   3    1.25    0.89
  -4   2  -3   93.88    5.06
   2   4   3   90.19    4.27
  -4   2   3   95.66    6.37
   3   4  -3   -0.43    1.47
  -4   3  -3    3.76    2.08
  -3  -4  -3    1.07    2.38
  -3  -4  -3    1.79    0.78
  -4   3   3    4.10    2.68
  -3  -4   3    0.66    1.37
  -4  -4  -3   45.61    4.51
  -4  -4  -3   53.60    2.94
  -4   4  -3   58.13    4.37
  -4   4   3   53.71    5.19
  -4  -4   3   58.64    3.99
  -5  -3  -3    9.35    2.74
  -5  -3  -3    8.61    1.39
  -5  -3   3   11.28    1.98
  -3   5   3    7.36    2.29
  -5  -2  -3   -0.84    1.88
  -5  -2  -3    1.53    0.81
  -5  -2   3    1.43    1.35
  -2   5   3    1.80    1.47
  -5  -1  -3   13.09    1.22
  -5  -1  -3    9.05    2.03
  -5  -1   3   11.17    1.15
  -5  -1   3   15.60    1.89
  -1   5   3   12.56    1.84
   5   0  -3    0.40    1.20
  -5   0  -3   -0.34    1.81
  -5   0  -3    0.33    0.79
  -5   0   3    1.55    1.17
   0   5   3    1.52    1.20
  -5   1  -3   16.66    1.37
  -5   1  -3   13.05    2.47
   1   5   3   13.64    1.84
  -5   2  -3    1.16    2.04
   2   5   3    0.95    1.37
  -5   3  -3    7.41    2.45
   3   5   3   13.16    1.98
  -6  -2  -3   60.85    5.22
  -6  -2  -3   48.64    3.20
  -2   6  -3   45.69    4.85
  -6  -2   3   45.39    4.06
  -2   6   3   47.91    4.91
  -6  -1  -3    3.98    2.84
  -6  -1  -3   -0.12    1.10
  -6  -1   3    4.80    1.71
  -1   6   3    2.04    2.17
  -6   0  -3   54.81    5.33
  -6   0  -3   53.04    2.96
   0   6   3   57.59    4.12
  -6   0   3   54.67    3.80
  -6   1  -3    5.86    2.95
  -6   1  -3    2.29    1.42
   1   6   3    0.62    1.82
   2   6   3   52.06    4.11
   0   0  -4  626.90   22.90
   0   0   4  625.89   22.84
   0   0   4  604.50   22.92
   1   0  -4   31.30    2.19
   0   1  -4   34.58    2.34
  -1   0  -4   33.15    2.02
  -1   0   4   37.62    2.45
   0   1   4   33.52    2.22
   0  -1   4   29.90    2.58
  -1   0   4   34.85    2.69
   1   0   4   37.49    2.74
   0  -1   4   22.93    2.49
   0   1   4   31.42    2.25
  -1  -1  -4   36.50    1.85
   1   1  -4   39.53    2.52
  -1   1   4   38.42    2.86
   1  -1   4   35.09    2.98
  -1  -1   4   34.53    3.28
   1   1   4   42.55    2.54
  -1  -1   4   41.25    2.62
  -1   1   4   42.32    2.53
  -2  -1  -4   26.27    1.43
  -1   2  -4   19.59    2.09
   2   1  -4   25.62    1.81
  -2  -1  -4   20.04    2.06
  -2  -1   4   20.71    2.57
   2   1   4   24.53    2.23
  -1   2   4   27.89    2.16
  -2  -1   4   25.82    1.86
  -1   2   4   25.53    1.70
  -2   0  -4  419.67   16.02
   2   0  -4  431.92   15.77
  -2   0  -4  421.85   15.53
   0   2  -4  422.12   16.08
   0   2   4  416.65   15.59
  -2   0   4  439.76   16.52
   0   2   4  415.52   15.75
  -2   1  -4   24.59    1.76
   1   2  -4   27.35    2.34
  -1  -2  -4   24.49    1.33
  -2   1   4   27.31    2.80
   1   2   4   26.76    1.68
  -1  -2   4   28.38    2.84
   1   2   4   24.36    1.73
  -2   2  -4  328.85   12.59
   2   2  -4  333.85   12.96
  -2  -2  -4  335.17   12.49
  -2  -2   4  358.45   13.60
   2   2   4  342.69   12.77
  -2  -2   4  327.57   13.06
  -2   2   4  351.52   13.43
   3   2  -4   16.41    1.58
  -3  -2  -4   12.37    2.01
  -3  -2  -4   16.48    1.25
  -3  -2   4   14.65    1.65
  -3  -2   4   17.25    2.39
  -2   3   4   16.54    1.44
  -2   3   4   16.31    1.98
   3   1  -4   25.96    1.81
  -3  -1  -4   25.07    2.36
  -3  -1  -4   25.70    1.56
  -3  -1   4   25.20    2.03
  -3  -1   4   27.57    2.97
  -1   3   4   24.87    2.13
   3   0  -4   18.10    1.59
  -3   0  -4   21.59    1.39
  -3   0  -4   19.23    2.16
   0   3   4   17.97    1.74
  -3   0   4   20.67    2.71
  -3   1  -4   26.36    2.81
   1   3  -4   27.99    2.56
  -3   1  -4   26.46    1.66
  -3   1   4   26.15    2.97
   1   3   4   26.49    1.86
  -3   2  -4   16.07    1.22
   2   3  -4   12.37    1.84
  -2  -3  -4   17.12    1.29
   2   3   4   16.82    1.46
  -3   2   4   13.40    2.70
  -2  -3   4   15.87    1.90
   2   3   4   15.41    1.53
  -3  -3  -4   19.26    1.39
   3   3  -4   16.44    1.92
  -3  -3  -4   15.08    2.71
  -3   3   4   17.14    2.59
  -3  -3   4   20.99    2.14
  -4  -3  -4   10.87    1.21
  -4  -3  -4    9.00    2.51
  -4  -3   4   12.05    1.82
  -3   4   4    4.91    2.18
  -4  -2  -4  163.74    8.23
   4   2  -4  185.16    7.50
  -4  -2  -4  177.27    7.06
  -4  -2   4  187.74    7.64
  -2   4   4  183.96    7.90
  -4  -2   4  184.35    7.96
   4   1  -4   13.80    1.52
  -4  -1  -4   15.60    1.31
  -4  -1  -4   12.87    2.26
  -4  -1   4   16.79    2.54
  -4  -1   4   15.95    1.67
  -1   4   4   13.69    1.72
   4   0  -4  222.87    8.92
  -4   0  -4  232.74    9.75
  -4   0  -4  228.54    8.64
  -4   0   4  208.57    9.97
   0   4   4  230.49    9.10
  -4   0   4  236.76    8.99
  -4   1  -4   16.34    1.27
  -4   1  -4   15.48    2.42
   1   4   4   16.09    1.67
  -4   1   4   11.96    2.70
  -4   2  -4  202.40    9.31
   2   4   4  201.04    8.16
  -4   2   4  207.56    9.87
  -4   3  -4   10.37    2.62
  -3  -4  -4    6.56    2.97
  -3  -4  -4    6.01    1.06
  -4   3   4   10.60    3.10
  -4  -4  -4  106.17    4.85
  -4   4  -4  111.94    6.40
  -4  -4  -4  101.22    7.34
  -4  -4   4  115.49    5.89
  -4   4   4  104.41    7.04
  -5  -3  -4   10.72    3.31
  -5  -3  -4   11.03    1.54
  -5  -3   4   15.45    2.19
  -3   5   4    8.48    2.75
  -5  -2  -4    6.29    1.09
  -5  -2  -4    6.98    2.63
  -5  -2   4    8.01    1.63
  -2   5   4    7.01    2.04
  -5  -1  -4   16.41    1.41
  -5  -1  -4   13.05    2.68
  -5  -1   4   14.93    1.85
  -1   5   4   11.97    1.96
  -5   0  -4    8.94    1.18
  -5   0  -4    7.41    2.55
  -5   0   4    7.87    1.45
   0   5   4    6.59    1.63
  -5   1  -4   16.19    2.90
  -5   1  -4   17.49    1.52
   1   5   4   15.29    2.00
  -5   2  -4    8.38    2.89
   2   5   4    6.49    1.69
  -5   3  -4   11.50    3.12
  -6  -1  -4    9.44    3.75
  -6  -1  -4    9.68    1.48
  -1   6   4    6.44    2.54
  -6  -1   4    7.08    1.88
  -6   0  -4  106.42    4.90
  -6   0  -4  117.35    7.79
   0   6   4  113.61    6.08
  -6   1  -4    6.94    3.88
  -6   1  -4    8.44    1.36
   1   6   4    6.60    2.26
   0   0  -5  120.24    5.35
   0   0   5  123.62    5.34
   0   0   5  123.61    5.50
  -1   0  -5    2.91    1.25
  -1   0  -5    3.09    1.13
   0   1  -5    2.75    1.12
   1   0  -5    2.90    1.24
   1   0   5    4.78    1.35
  -1   0   5    3.48    1.42
   0  -1   5    2.66    1.90
   0   1   5    3.45    1.32
   0   1   5    1.97    1.35
  -1   0   5    3.00    1.17
   0  -1   5    0.59    1.28
  -1  -1  -5  323.89   11.97
   1   1  -5  315.43   12.46
  -1   1   5  323.16   12.35
  -1  -1   5  319.61   12.46
   1   1   5  322.75   12.39
  -1   1   5  309.74   12.73
  -1   2  -5    1.63    1.29
   2   1  -5    2.49    1.25
  -2  -1  -5    2.70    1.27
  -2  -1  -5    2.16    0.76
  -1   2   5    1.37    1.42
  -2  -1   5    1.37    1.95
  -1   2   5    1.83    1.04
  -2  -1   5    1.04    0.91
   2   1   5    2.14    1.56
  -2   0  -5   81.14    4.80
  -2   0  -5   96.96    4.04
   2   0  -5   87.65    4.39
   0   2  -5   97.24    4.43
   0   2   5   92.82    4.33
   2   0   5   94.40    4.83
   0  -2   5   88.16    5.00
  -2   0   5   96.77    4.96
   0   2   5   91.73    4.12
   1   2  -5    2.40    1.36
  -1  -2  -5    1.23    0.63
  -2   1  -5    3.93    1.10
   1   2   5    2.33    1.02
  -1  -2   5    3.79    2.03
  -2   1   5    5.05    1.96
   1   2   5    2.92    1.04
  -2   2  -5   72.32    3.60
   2   2  -5   72.65    4.03
  -2  -2  -5   69.49    3.26
  -2  -2   5   85.09    5.18
  -2   2   5   80.40    4.80
   2   2   5   77.81    3.98
   3   2  -5    1.85    1.19
  -3  -2  -5    2.49    0.82
  -3  -2  -5    2.84    1.90
  -2   3  -5    3.60    1.27
  -2   3   5    3.68    1.18
  -2   3   5    3.17    1.73
  -3  -2   5    0.87    1.11
  -3  -2   5    2.63    2.07
  -3  -1  -5  196.31    8.89
   3   1  -5  202.81    8.28
  -3  -1  -5  210.50    7.91
  -1   3   5  209.31    8.04
  -3  -1   5  201.00    9.53
  -3  -1   5  201.22    8.19
  -1   3   5  207.48    8.47
   0   3  -5    3.58    1.21
  -3   0  -5    1.02    0.79
   3   0  -5    2.41    1.15
  -3   0  -5    5.69    1.80
   0   3   5    2.52    0.96
  -3   0   5    5.60    2.07
   0   3   5    0.39    1.04
  -3   1  -5  203.00    9.60
  -3   1  -5  210.35    8.17
   1   3  -5  208.19    9.03
  -3   1   5  233.50    9.50
   1   3   5  203.46    8.31
   1   3   5  213.03    8.39
  -3   2  -5    2.53    0.99
   2   3  -5    2.07    1.51
  -2  -3  -5    2.55    0.79
   2   3   5    1.54    1.15
  -3   2   5    0.63    2.20
   3   3  -5  138.93    6.50
  -3  -3  -5  136.72    5.68
  -3  -3   5  144.93    6.51
  -3   3   5  143.08    7.36
  -4  -3  -5    0.87    0.96
  -4  -3  -5   -1.66    2.40
  -3   4   5    2.26    2.25
  -4  -3   5    2.33    1.56
  -4  -2  -5   43.18    2.53
  -4  -2  -5   39.60    3.80
  -4  -2   5   47.51    4.13
  -2   4   5   43.30    3.76
  -2   4   5   49.81    2.97
  -4  -2   5   45.54    3.24
  -4  -1  -5   -1.03    2.07
   4   1  -5    1.14    1.17
  -4  -1  -5    3.12    0.89
  -4  -1   5    0.34    1.12
  -1   4   5    0.27    1.37
  -1   4   5    1.57    1.11
  -4  -1   5    3.58    2.27
   4   0  -5   48.38    3.14
  -4   0  -5   47.29    4.39
  -4   0  -5   53.23    2.71
   0   4   5   56.45    3.31
  -4   0   5   51.64    4.74
   0   4   5   54.34    3.02
  -4   1  -5   -0.52    0.91
  -4   1  -5    4.01    2.28
   1   4   5    0.76    1.14
  -4   1   5    2.67    2.15
   1   4   5    1.64    1.24
  -4   2  -5   50.34    2.67
  -4   2  -5   35.69    3.94
   2   4  -5   44.84    3.87
  -4   2   5   46.69    4.60
   2   4   5   46.35    2.95
   2   4   5   47.69    3.10
  -4   3  -5    0.10    2.54
  -3  -4  -5    1.25    0.90
  -4   3   5    1.58    2.61
  -4   4  -5   22.74    3.39
  -4  -4  -5   21.51    1.97
  -4   4   5   24.72    4.02
  -5  -3  -5   82.18    4.38
  -5  -3  -5   83.80    7.70
  -3   5   5   83.40    6.45
  -5  -3   5   85.47    5.02
  -5  -2  -5   -0.32    2.77
  -5  -2  -5    0.51    1.08
  -2   5   5    1.96    1.45
  -5  -2   5    3.23    1.55
  -2   5   5   -1.17    2.06
  -5  -1  -5  117.00    6.88
  -5  -1  -5  112.20    4.81
  -1   5   5  113.75    5.79
  -1   5   5  113.61    5.19
  -5  -1   5   88.53    5.90
  -5  -1   5  106.91    5.21
  -5   0  -5    0.67    2.75
  -5   0  -5    0.04    1.07
  -5   0   5   -0.10    2.26
   0   5   5    1.86    1.61
  -5   1  -5  117.73    5.14
  -5   1  -5  119.37    7.58
   1   5   5  119.24    5.58
   1   5   5  124.50    5.84
  -5   1   5  111.53    7.19
  -5   2  -5    2.22    3.16
   2   5   5    2.38    1.63
   2   5   5    2.38    1.55
  -5   2   5    1.24    2.81
  -5   3  -5   84.84    7.34
   3   5   5   93.93    5.22
   0   0  -6   -0.03    0.99
   0   0   6    0.40    1.25
   0   0   6   -0.29    1.08
   1   0  -6   21.58    2.10
   0   1  -6   23.98    2.07
  -1   0  -6   18.02    2.12
  -1   0  -6   21.21    1.92
   0  -1   6   11.08    2.47
   1   0   6   25.33    2.09
   0   1   6   23.05    2.15
  -1   0   6   24.18    2.26
   0  -1   6   14.02    1.93
  -1   0   6   24.72    1.94
   0   1   6   21.90    2.37
  -1  -1  -6  188.26    7.58
  -1   1  -6  183.50    7.86
   1   1  -6  187.08    8.02
  -1  -1   6  174.74    8.33
   1   1   6  183.07    7.82
  -1  -1   6  182.42    8.00
  -1   1   6  190.87    7.77
   1   1   6  191.54    7.88
  -1   1   6  190.01    8.18
  -2  -1  -6   11.86    2.01
  -2  -1  -6   20.60    1.67
  -1   2  -6   19.86    2.09
   2   1  -6   21.54    2.32
  -2  -1   6   15.56    2.55
  -1   2   6   18.29    1.99
   2   1   6   21.44    2.17
  -2   0  -6    0.12    1.16
  -2   0  -6   -0.25    1.51
   2   0  -6   -0.13    1.24
   0   2  -6    0.47    1.02
  -2   0   6    2.92    1.51
   0   2   6    0.35    1.41
   0   2   6   -0.60    1.23
   0  -2   6    1.71    2.18
   2   0   6   -0.33    1.37
   1   2  -6   20.23    2.32
  -1  -2  -6   13.89    1.28
  -2   1  -6   13.44    1.65
  -1  -2   6   10.25    2.75
   2  -1   6    8.51    2.42
   1   2   6   16.38    1.89
  -2   1   6   23.76    2.62
   1   2   6   17.18    1.89
  -2   2  -6    0.70    1.26
   2   2  -6   -0.10    1.37
  -2  -2  -6   -0.89    0.78
  -2   2   6    0.48    2.05
   2   2   6    1.65    1.57
  -2  -2   6    1.03    2.28
  -2   3  -6   10.85    1.69
  -3  -2  -6   10.40    2.52
   3   2  -6   12.55    2.14
  -3  -2  -6   13.07    1.40
  -2   3   6   12.02    2.41
  -3  -2   6   11.86    1.69
  -2   3   6   13.87    1.93
  -3  -2   6   13.05    2.94
  -3  -1  -6  118.18    6.73
  -3  -1  -6  125.76    5.26
   3   1  -6  120.50    5.84
  -1   3  -6  121.09    5.75
  -3  -1   6  121.00    5.47
  -3  -1   6  126.53    6.93
  -1   3   6  128.34    5.58
  -1   3   6  126.50    6.09
  -3   0  -6   16.76    2.59
   3   0  -6   18.09    2.20
  -3   0  -6   15.21    1.62
   0   3  -6   16.95    1.85
   0   3   6   15.73    1.72
   0   3   6   13.04    1.90
  -3   0   6   18.05    2.55
  -3   1  -6  128.18    5.56
  -3   1  -6  131.20    6.81
   1   3  -6  132.16    6.27
   1   3   6  125.69    5.80
   1   3   6  128.00    5.79
  -3   1   6  131.66    6.54
   2   3  -6   11.85    2.10
  -2  -3  -6   10.98    1.16
  -3   2  -6   11.75    1.57
  -3   2   6   13.41    2.74
   2   3   6   11.49    1.90
  -3  -3  -6   75.63    3.69
  -3   3   6   79.70    5.74
  -4  -3  -6    6.18    1.36
  -4  -3   6    8.50    1.96
  -3   4   6    7.51    2.84
  -4  -2  -6    0.48    1.11
  -4  -2  -6    0.22    2.58
  -4  -2   6    2.31    2.47
  -2   4   6   -0.91    1.98
  -2   4   6    0.78    1.50
  -4  -2   6   -1.20    1.26
  -4  -1  -6   10.29    1.41
  -4  -1  -6    8.96    2.97
  -4  -1   6   12.13    2.94
  -4  -1   6    9.20    1.50
  -1   4   6    7.78    2.05
  -1   4   6   11.44    1.69
  -4   0  -6   -0.41    2.30
  -4   0  -6    2.01    1.08
   0   4   6   -0.73    1.15
  -4   0   6    1.68    2.18
   0   4   6    0.08    1.48
  -4   1  -6   12.40    2.95
   1   4  -6   15.85    2.09
  -4   1  -6   11.57    1.43
   1   4   6   12.28    1.74
  -4   1   6   16.53    2.85
   1   4   6   10.91    1.90
  -4   2  -6    3.20    2.30
  -4   2  -6    2.53    1.25
   2   4   6   -0.80    1.55
  -4   2   6   -1.06    2.13
  -3  -4  -6    4.19    1.09
  -4   3  -6    7.98    2.84
  -4   3   6    5.87    2.62
  -5  -2  -6    3.78    1.48
  -5  -2  -6    3.70    3.78
  -5  -2   6    8.10    1.93
  -2   5   6    5.54    2.86
  -2   5   6    2.45    1.97
  -5  -1  -6   70.13    3.83
  -5  -1  -6   62.44    6.32
  -5  -1   6   63.62    5.63
  -1   5   6   75.96    5.11
  -1   5   6   68.50    4.28
  -5   0  -6    6.74    3.38
  -5   0  -6    9.36    1.57
   0   5   6    6.46    2.22
  -5   0   6    9.93    3.03
   0   5   6   10.36    1.85
  -5   1  -6   63.80    6.10
  -5   1  -6   67.69    3.76
   1   5   6   69.34    4.59
  -5   1   6   83.28    5.96
   1   5   6   73.58    4.47
  -5   2  -6    4.27    3.82
  -5   2  -6    4.70    1.62
  -5   2   6    6.77    3.06
   2   5   6   -0.79    1.89
   2   5   6    7.26    2.09
   0   0  -7  328.09   12.69
   0   0   7  327.61   12.71
   0   0   7  319.83   12.50
   0   1  -7    3.78    1.22
  -1   0  -7    1.95    1.18
   0  -1  -7    2.94    1.11
   1   0  -7    2.55    1.08
   1   0   7    1.12    1.15
   0  -1   7    0.28    1.35
   0  -1   7   -0.99    1.85
  -1   0   7    2.78    1.13
  -1   0   7    2.89    1.41
   0   1   7    4.13    1.40
  -1   1  -7  101.93    5.20
   1   1  -7  113.99    5.40
  -1  -1  -7  103.00    5.26
  -1   1   7  115.47    5.65
   1  -1   7  116.40    5.71
  -1  -1   7  110.22    5.47
  -1   1   7  119.15    5.29
   1   1   7  107.14    5.31
  -1  -1   7  120.53    5.93
  -2  -1  -7    1.91    1.35
  -1   2  -7    0.83    1.15
   2   1  -7    2.49    1.55
  -1   2   7    1.80    1.68
   2   1   7    1.51    1.43
  -1   2   7    2.08    2.02
  -2  -1   7    0.61    1.82
   2   0  -7  256.48   10.76
  -2   0  -7  258.59   10.63
  -2   0  -7  290.77   10.74
   0   2  -7  268.84   10.59
  -2   0   7  273.22   10.32
  -2   0   7  268.71   10.78
   2   0   7  272.07   10.50
   0   2   7  240.39   10.60
   0  -2   7  238.33   11.77
   0   2   7  252.90   10.90
   1   2  -7    5.55    1.55
  -1  -2  -7    2.66    1.13
  -2   1  -7    2.29    1.40
   2  -1   7    1.07    1.99
  -2   1   7    2.74    1.69
  -2   1   7    1.68    1.27
   1   2   7    2.32    1.60
   1   2   7    3.32    1.65
  -1  -2   7    0.21    2.53
  -2   2  -7  220.67    8.64
  -2  -2  -7  217.01    8.56
   2   2  -7  215.10    9.34
  -2   2   7  209.44    9.71
  -2  -2   7  219.26   10.21
  -2   2   7  208.86    9.09
   2   2   7  212.16    9.21
  -2   3  -7    3.54    1.40
  -3  -2  -7    3.54    1.21
  -2   3   7    0.11    1.74
  -2   3   7    2.83    2.27
  -3  -2   7    2.34    2.65
  -3  -1  -7   80.43    4.18
  -1   3  -7   78.70    4.25
  -3  -1  -7  103.73    5.86
   3   1  -7   76.18    4.71
  -1   3   7   82.96    5.12
  -3  -1   7   79.93    5.32
  -1   3   7   69.67    4.47
   0   3  -7    2.30    1.21
  -3   0  -7    2.41    1.33
   3   0  -7    3.22    1.77
  -3   0  -7    6.64    1.98
   0   3   7    3.04    1.54
  -3   0   7    3.84    1.68
   0   3   7    2.98    1.85
  -3   1  -7   78.46    5.05
  -3   1  -7   80.30    4.24
   1   3  -7   86.82    4.55
  -3   1   7   85.51    5.02
   1   3   7   77.45    4.61
   1   3   7   77.38    4.66
  -2  -3  -7    1.12    1.03
  -3   2  -7    1.09    1.43
  -3   2   7    3.18    2.15
   2   3   7    2.93    1.86
  -3   3  -7   52.66    3.65
  -3  -3  -7   50.67    3.24
  -3   3   7   51.54    5.00
  -4  -3  -7   -0.44    1.41
  -3   4   7    1.15    3.32
  -4  -2  -7  147.01    6.59
  -4  -2  -7  175.95    8.71
  -2   4   7  136.71    7.77
  -2   4   7  141.04    7.05
  -4  -2   7  141.57    8.30
  -4  -1  -7   -0.40    2.64
  -4  -1  -7    4.03    1.40
  -4  -1   7    2.85    2.37
  -1   4   7    1.80    2.15
  -1   4   7    2.79    1.73
  -4   0  -7  187.98    8.87
  -4   0  -7  169.38    7.43
  -4   0   7  185.62    8.55
   0   4   7  169.84    8.08
   0   4   7  164.51    7.72
  -4   1  -7    1.53    1.39
  -4   1  -7    2.07    2.27
   1   4   7    0.49    1.63
  -4   1   7    2.88    2.03
   1   4   7   -1.64    1.73
  -4   2  -7  143.80    6.36
  -4   2  -7  151.27    7.60
  -4   2   7  140.66    7.38
   2   4   7  138.23    7.09
  -3  -4  -7   -0.66    1.23
  -4   3  -7   -0.27    2.83
  -4   3   7    2.16    2.58
   3   4   7    2.58    2.37
  -5  -1  -7   40.46    3.23
  -5  -1  -7   50.52    5.25
  -5  -1   7   47.93    5.24
  -1   5   7   44.44    3.76
  -1   5   7   42.03    4.41
  -5   0  -7    0.87    1.59
  -5   0  -7    3.16    3.62
   0   5   7   -0.17    2.05
   0   5   7    1.59    2.32
  -5   0   7    1.05    2.93
  -5   1  -7   42.15    5.07
  -5   1  -7   43.71    3.39
   1   5   7   38.97    3.66
   1   5   7   50.31    4.40
  -5   1   7   51.33    4.84
   0   0  -8   49.79    3.07
   0   0   8   50.76    2.99
   0   0   8   46.57    3.30
  -1   0  -8   15.37    1.67
   1   0  -8   16.42    1.79
   0   1  -8   14.42    1.90
   0  -1  -8   15.43    1.55
   0   1   8   14.98    1.99
   1   0   8   14.00    1.69
  -1   0   8   15.94    1.60
  -1   0   8   16.79    2.07
   0  -1   8   14.48    1.88
   0  -1   8   16.74    2.40
   0   1   8   16.26    1.85
  -1  -1  -8   18.05    1.92
  -1   1  -8   14.07    1.89
   1   1  -8   19.17    2.10
  -1   1   8   19.62    2.27
   1   1   8   14.79    1.89
  -1  -1   8   17.60    2.03
  -1   1   8   18.44    1.95
   1  -1   8   14.17    2.09
  -1  -1   8   18.93    2.52
  -2  -1  -8    9.65    1.77
  -1   2  -8   11.82    1.77
   2   1  -8   17.30    2.42
  -1   2   8   12.04    2.40
   2   1   8   10.76    1.78
  -1   2   8    5.45    1.79
  -2  -1   8   14.93    2.44
   2   0  -8   44.77    3.10
   0   2  -8   41.73    3.03
  -2   0  -8   46.07    3.21
  -2   0  -8   39.84    3.24
  -2   0   8   38.52    2.84
   0   2   8   36.54    3.47
   0   2   8   44.20    3.87
   2   0   8   42.95    3.10
  -2   0   8   42.92    3.34
   0  -2   8   28.65    3.70
  -1  -2  -8   11.65    1.74
   1   2  -8   12.34    1.93
  -2   1  -8   15.57    1.83
   2  -1   8    9.91    2.25
  -2   1   8   14.33    2.20
  -2   1   8   11.50    1.69
  -1  -2   8   14.66    2.94
   1   2   8   12.18    2.06
  -2   2  -8   36.56    2.74
  -2  -2  -8   27.79    2.44
  -2  -2   8   30.04    3.56
   2   2   8   28.28    2.68
  -2   2   8   27.87    2.58
  -2   2   8   36.42    3.44
  -2   3  -8   10.90    1.62
  -3  -2  -8    9.13    1.74
  -2   3   8    8.83    2.74
  -3  -2   8   12.57    2.82
   3   2   8   13.70    2.06
  -3  -1  -8   10.36    2.02
   3   1   8   12.41    1.82
  -3  -1   8   12.87    2.63
  -1   3   8   14.19    2.85
  -1   3   8   12.19    2.30
  -3   0  -8    9.82    2.00
  -3   0  -8    7.91    2.18
   0   3   8   11.19    2.16
  -3   0   8   13.18    2.21
   0   3   8    7.89    2.33
  -3   1  -8    7.06    1.72
  -3   1  -8   11.39    1.95
   1   3   8    9.48    2.29
  -3   1   8   11.35    2.25
   1   3   8   11.26    2.21
  -2  -3  -8    7.35    1.48
  -3   2  -8    7.95    1.79
  -3   2  -8    9.96    1.97
  -3   2   8    8.51    2.33
   2   3   8    7.49    2.33
  -3  -3  -8    5.45    1.66
  -3   3  -8    6.21    1.73
  -3   3   8    5.46    2.71
  -4  -2  -8   20.38    2.58
  -2   4  -8   23.69    2.21
  -2   4   8   16.21    3.70
  -4  -2   8   16.34    3.75
  -2   4   8   19.91    3.05
  -4  -1  -8    8.30    1.98
  -4  -1  -8   11.94    3.23
  -1   4   8    4.81    2.72
  -4  -1   8    9.57    2.92
  -1   4   8    8.07    2.30
  -4   0  -8   25.33    3.24
  -4   0  -8   23.40    2.43
   0   4   8   17.90    3.03
   0   4   8   20.72    2.74
  -4   0   8   26.12    3.21
  -4   1  -8   10.20    2.47
  -4   1  -8    8.04    1.89
   1   4   8    6.08    2.50
  -4   1   8    9.86    2.37
   1   4   8    3.09    2.33
  -4   2  -8   18.31    2.26
  -4   2  -8   24.91    3.12
   2   4   8   20.69    3.10
  -4   2   8   22.36    3.14
   0   0  -9   77.67    4.10
   0   0   9   76.94    3.91
   0   0   9   79.59    4.24
  -1   0  -9    3.66    1.12
   0  -1  -9    2.90    1.06
   1   0  -9    1.47    1.16
   0  -1   9    0.34    1.26
  -1   0   9    3.06    1.52
   0   1   9    2.95    1.57
   1   0   9    2.49    1.21
   0  -1   9    2.17    1.67
   0   1   9    0.93    1.27
  -1   0   9    1.64    1.13
  -1   1  -9  202.32    8.11
  -1  -1  -9  205.76    8.28
  -1  -1   9  206.57    8.89
  -1   1   9  202.88    8.77
  -1  -1   9  201.88    8.48
  -1   1   9  199.67    8.39
   1  -1   9  213.74    8.69
   1   1   9  194.90    8.42
  -2  -1  -9    1.67    1.49
  -1   2   9    3.32    2.00
   2   1   9   -0.25    1.29
  -1   2   9    0.59    1.55
  -2  -1   9    3.13    1.87
  -2   0  -9   74.70    4.08
   0   2   9   73.08    4.58
  -2   0   9   75.20    4.41
   2   0   9   72.74    4.15
   0   2   9   64.42    4.24
  -2   0   9   73.12    3.87
   0  -2   9   87.20    5.34
  -2   1  -9    1.28    1.17
  -1  -2  -9   -0.22    1.41
  -2   1  -9    2.39    1.37
   1   2   9    2.21    1.59
   1   2   9    3.78    1.70
  -2   1   9    3.19    1.71
  -1  -2   9    0.77    2.13
  -2   1   9    1.53    1.19
  -2   2  -9   64.99    3.51
  -2  -2  -9   56.57    4.12
   2   2   9   57.88    3.99
  -2   2   9   59.01    4.46
  -2   2   9   56.81    3.85
  -2  -2   9   70.88    4.76
  -2   3  -9    1.42    1.39
  -3  -2  -9    0.30    1.90
  -3  -2   9   -2.50    2.19
  -2   3   9    0.81    1.80
  -2   3   9    2.00    2.49
  -3  -1  -9  143.37    7.00
  -1   3   9  135.62    7.63
  -1   3   9  136.67    7.14
   3   1   9  155.01    6.47
  -3  -1   9  155.63    7.29
  -3   0  -9   -0.78    1.91
  -3   0  -9    1.40    1.59
   0   3   9    1.23    1.92
   0   3   9    2.33    2.27
  -3   0   9    2.26    1.77
  -3   1  -9  154.80    6.53
  -3   1  -9  142.20    6.47
   1   3   9  137.10    7.15
  -3   1   9  138.25    6.89
   1   3   9  136.72    7.30
  -3   2  -9   -0.79    1.57
  -2  -3  -9   -0.10    1.52
  -3   2  -9    0.15    1.59
   2   3   9    2.70    2.04
  -3   2   9    0.58    2.11
  -3   3  -9  105.37    5.10
  -3   3   9   97.85    6.51
  -4  -1  -9   -1.65    2.13
  -1   4   9    2.26    2.68
  -4  -1   9    1.92    2.77
  -1   4   9   -3.34    2.83
  -4   0  -9   48.85    4.80
  -4   0  -9   37.88    3.40
  -4   0   9   46.51    4.19
   0   4   9   40.40    4.05
   0   4   9   49.64    4.94
  -4   1  -9    1.92    2.10
  -4   1  -9   -3.20    2.15
  -4   1   9    2.72    2.28
   1   4   9    4.79    2.71
   1   4   9    0.82    2.56
   0   0 -10   55.75    2.84
   0   0  10   56.26    3.58
   0   0  10   49.16    3.24
   0  -1 -10    6.76    1.24
  -1   0 -10   10.53    1.32
   1   0  10    9.98    1.60
   0  -1  10   12.36    1.77
   0   1  10    8.90    1.74
  -1   0  10   11.42    1.56
   0  -1  10   10.04    2.20
  -1   0  10    8.03    1.82
   0   1  10    7.99    1.56
  -1   1 -10    2.13    1.09
  -1  -1 -10    1.61    1.18
   1  -1 -10   -0.03    0.95
  -1   1  10    0.13    1.57
  -1   1  10    2.43    1.32
  -1  -1  10    2.66    1.76
   1  -1  10    2.44    1.50
   1   1  10    3.40    1.31
  -2  -1 -10    7.87    1.58
  -1   2 -10    9.60    1.57
   2   1  10    7.42    1.58
  -1   2  10    8.89    2.15
  -2  -1  10    7.12    1.98
  -1   2  10    6.90    1.74
  -2   0 -10   47.80    3.16
  -2   0  10   45.85    3.22
  -2   0  10   45.05    3.64
   2   0  10   51.67    3.39
   0  -2  10   53.22    4.20
   0   2  10   44.76    3.66
   0   2  10   44.48    3.49
  -2   1 -10   11.07    1.65
  -1  -2 -10   10.17    1.75
  -2   1  10    7.38    1.44
   1   2  10    7.07    1.82
  -1  -2  10    8.62    2.34
  -2   1  10   10.14    2.08
  -2  -2 -10   35.77    3.00
  -2   2 -10   40.48    3.15
  -2   2  10   43.20    3.36
   2   2  10   40.29    3.47
  -2   2  10   44.64    4.02
  -2  -2  10   41.02    4.02
  -3  -1 -10    0.63    1.91
  -1   3 -10    2.51    1.43
  -1   3  10    2.87    2.08
  -1   3  10    0.72    2.14
  -3  -1  10    5.05    2.34
   3   1  10    1.67    1.43
  -3   0 -10    3.72    1.81
   0   3  10    7.24    2.25
   3   0  10    7.92    1.87
  -3   0  10    6.26    2.25
   0   3  10    7.13    2.28
  -3   1 -10    2.24    1.67
  -3   1 -10   -0.06    1.59
   1   3  10    1.13    2.11
  -3   1  10    2.34    2.15
   0   0 -11   99.37    4.52
   0   0  11  102.46    5.21
   0   0  11  105.05    5.00
  -1   0 -11    2.37    1.24
   0  -1 -11    2.21    1.09
  -1   0  11    2.13    1.61
   0  -1  11    1.43    1.81
   0   1  11    1.62    1.44
   0   1  11    0.99    1.32
   1   0  11    2.75    1.43
  -1   0  11    0.56    1.42
  -1  -1 -11   28.15    2.14
   1  -1 -11   31.29    2.29
  -1   1 -11   31.24    2.53
   1   1  11   24.42    2.22
  -1   1  11   27.55    2.37
  -1   1  11   30.33    3.10
  -1  -1  11   35.48    3.44
  -2  -1 -11   -1.19    1.47
  -1   2 -11    0.00    1.44
  -1   2  11   -0.41    1.69
  -1   2  11    0.09    1.78
   2   1  11    1.26    1.37
  -2  -1  11    1.04    2.11
  -2   0 -11   93.26    4.70
  -2   0  11   98.09    5.36
   0   2  11   91.74    5.16
   0   2  11   92.07    5.08
   2   0  11   93.99    4.92
  -2   0  11   92.60    4.87
  -2   1 -11    3.84    1.59
  -1  -2 -11   -1.26    1.63
  -2   1  11    2.26    1.92
  -2   1  11    0.20    1.47
   1   2  11    0.85    1.68
  -1  -2  11    3.66    1.96
   0   0   0    0.00    0.00
;
_shelx_hkl_checksum              61242
loop_
_space_group_symop_operation_xyz
'x, y, z'
'-x, -y, z'
'-y, x, z'
'y, -x, z'
'-x, y, -z'
'x, -y, -z'
'y, x, -z'
'-y, -x, -z'
'-x, -y, -z'
'x, y, -z'
'y, -x, -z'
'-y, x, -z'
'x, -y, z'
'-x, y, z'
'-y, -x, z'
'y, x, z'
loop_
_atom_site_label
_atom_site_type_symbol
_atom_site_fract_x
_atom_site_fract_y
_atom_site_fract_z
_atom_site_U_iso_or_equiv
_atom_site_adp_type
_atom_site_occupancy
_atom_site_site_symmetry_order
_atom_site_calc_flag
_atom_site_refinement_flags_posn
_atom_site_refinement_flags_adp
_atom_site_refinement_flags_occupancy
_atom_site_disorder_assembly
_atom_site_disorder_group
Pt1 Pt 0.0000 0.5000 0.27938(8) 0.0064(2) Uani 1 4 d S T P . .
Pt2 Pt 0.0000 0.0000 0.0000 0.0059(3) Uani 1 16 d S T P . .
As3 As 0.0000 0.0000 0.5000 0.0067(5) Uani 1 16 d S T P . .
Mn4 Mn 0.5000 0.5000 0.0000 0.0071(7) Uani 1 16 d S T P . .
loop_
_atom_site_aniso_label
_atom_site_aniso_U_11
_atom_site_aniso_U_22
_atom_site_aniso_U_33
_atom_site_aniso_U_23
_atom_site_aniso_U_13
_atom_site_aniso_U_12
Pt1 0.0065(3) 0.0051(3) 0.0076(3) 0.000 0.000 0.000
Pt2 0.0062(3) 0.0062(3) 0.0054(4) 0.000 0.000 0.000
As3 0.0070(7) 0.0070(7) 0.0062(11) 0.000 0.000 0.000
Mn4 0.0075(11) 0.0075(11) 0.0064(15) 0.000 0.000 0.000
loop_
_atom_type_symbol
_atom_type_description
_atom_type_scat_dispersion_real
_atom_type_scat_dispersion_imag
_atom_type_scat_source
Mn Mn 0.3368 0.7283 'International Tables Vol C Tables 4.2.6.8 and 6.1.1.4'
As As 0.0499 2.0058 'International Tables Vol C Tables 4.2.6.8 and 6.1.1.4'
Pt Pt -1.7033 8.3905 'International Tables Vol C Tables 4.2.6.8 and 6.1.1.4'
loop_
_geom_angle_atom_site_label_1
_geom_angle_atom_site_label_2
_geom_angle_atom_site_label_3
_geom_angle
_geom_angle_site_symmetry_1
_geom_angle_site_symmetry_3
_geom_angle_publ_flag
As3 Pt1 As3 102.96(3) 1_565 . ?
As3 Pt1 Pt1 56.412(7) 1_565 3_665 ?
As3 Pt1 Pt1 123.588(7) . 3_665 ?
As3 Pt1 Pt1 123.588(7) 1_565 3 ?
As3 Pt1 Pt1 56.412(7) . 3 ?
Pt1 Pt1 Pt1 180.0 3_665 3 ?
As3 Pt1 Pt1 56.412(7) 1_565 3_565 ?
As3 Pt1 Pt1 123.588(7) . 3_565 ?
Pt1 Pt1 Pt1 90.0 3_665 3_565 ?
Pt1 Pt1 Pt1 90.0 3 3_565 ?
As3 Pt1 Pt1 123.588(7) 1_565 3_655 ?
As3 Pt1 Pt1 56.412(7) . 3_655 ?
Pt1 Pt1 Pt1 90.0 3_665 3_655 ?
Pt1 Pt1 Pt1 90.0 3 3_655 ?
Pt1 Pt1 Pt1 180.0 3_565 3_655 ?
As3 Pt1 Mn4 116.243(9) 1_565 1_455 ?
As3 Pt1 Mn4 116.243(9) . 1_455 ?
Pt1 Pt1 Mn4 119.866(7) 3_665 1_455 ?
Pt1 Pt1 Mn4 60.134(7) 3 1_455 ?
Pt1 Pt1 Mn4 60.134(7) 3_565 1_455 ?
Pt1 Pt1 Mn4 119.866(6) 3_655 1_455 ?
As3 Pt1 Pt2 173.291(18) 1_565 . ?
As3 Pt1 Pt2 83.754(16) . . ?
Pt1 Pt1 Pt2 119.866(7) 3_665 . ?
Pt1 Pt1 Pt2 60.134(7) 3 . ?
Pt1 Pt1 Pt2 119.866(6) 3_565 . ?
Pt1 Pt1 Pt2 60.134(7) 3_655 . ?
Mn4 Pt1 Pt2 59.732(14) 1_455 . ?
As3 Pt1 Mn4 116.243(9) 1_565 . ?
As3 Pt1 Mn4 116.243(9) . . ?
Pt1 Pt1 Mn4 60.134(7) 3_665 . ?
Pt1 Pt1 Mn4 119.866(6) 3 . ?
Pt1 Pt1 Mn4 119.866(6) 3_565 . ?
Pt1 Pt1 Mn4 60.134(6) 3_655 . ?
Mn4 Pt1 Mn4 89.54(2) 1_455 . ?
Pt2 Pt1 Mn4 59.732(14) . . ?
As3 Pt1 Pt2 83.754(16) 1_565 1_565 ?
As3 Pt1 Pt2 173.291(18) . 1_565 ?
Pt1 Pt1 Pt2 60.134(7) 3_665 1_565 ?
Pt1 Pt1 Pt2 119.866(6) 3 1_565 ?
Pt1 Pt1 Pt2 60.134(6) 3_565 1_565 ?
Pt1 Pt1 Pt2 119.866(6) 3_655 1_565 ?
Mn4 Pt1 Pt2 59.732(14) 1_455 1_565 ?
Pt2 Pt1 Pt2 89.54(2) . 1_565 ?
Mn4 Pt1 Pt2 59.732(14) . 1_565 ?
As3 Pt1 Pt1 51.478(13) 1_565 9_566 ?
As3 Pt1 Pt1 51.478(13) . 9_566 ?
Pt1 Pt1 Pt1 90.0 3_665 9_566 ?
Pt1 Pt1 Pt1 90.0 3 9_566 ?
Pt1 Pt1 Pt1 90.0 3_565 9_566 ?
Pt1 Pt1 Pt1 90.0 3_655 9_566 ?
Mn4 Pt1 Pt1 135.232(12) 1_455 9_566 ?
Pt2 Pt1 Pt1 135.232(12) . 9_566 ?
Mn4 Pt1 Pt1 135.232(12) . 9_566 ?
Pt2 Pt1 Pt1 135.232(12) 1_565 9_566 ?
Mn4 Pt2 Mn4 180.0 1_445 . ?
Mn4 Pt2 Mn4 90.0 1_445 1_455 ?
Mn4 Pt2 Mn4 90.0 . 1_455 ?
Mn4 Pt2 Mn4 90.0 1_445 1_545 ?
Mn4 Pt2 Mn4 90.0 . 1_545 ?
Mn4 Pt2 Mn4 180.0 1_455 1_545 ?
Mn4 Pt2 Pt1 60.134(7) 1_445 9 ?
Mn4 Pt2 Pt1 119.866(7) . 9 ?
Mn4 Pt2 Pt1 119.866(7) 1_455 9 ?
Mn4 Pt2 Pt1 60.134(7) 1_545 9 ?
Mn4 Pt2 Pt1 60.134(7) 1_445 11_455 ?
Mn4 Pt2 Pt1 119.866(7) . 11_455 ?
Mn4 Pt2 Pt1 60.134(7) 1_455 11_455 ?
Mn4 Pt2 Pt1 119.866(7) 1_545 11_455 ?
Pt1 Pt2 Pt1 59.732(14) 9 11_455 ?
Mn4 Pt2 Pt1 119.866(7) 1_445 3_655 ?
Mn4 Pt2 Pt1 60.134(7) . 3_655 ?
Mn4 Pt2 Pt1 119.866(7) 1_455 3_655 ?
Mn4 Pt2 Pt1 60.134(7) 1_545 3_655 ?
Pt1 Pt2 Pt1 120.268(14) 9 3_655 ?
Pt1 Pt2 Pt1 180.0 11_455 3_655 ?
Mn4 Pt2 Pt1 60.134(7) 1_445 1_545 ?
Mn4 Pt2 Pt1 119.866(7) . 1_545 ?
Mn4 Pt2 Pt1 119.866(7) 1_455 1_545 ?
Mn4 Pt2 Pt1 60.134(6) 1_545 1_545 ?
Pt1 Pt2 Pt1 90.46(2) 9 1_545 ?
Pt1 Pt2 Pt1 120.268(14) 11_455 1_545 ?
Pt1 Pt2 Pt1 59.732(14) 3_655 1_545 ?
Mn4 Pt2 Pt1 60.134(7) 1_445 3 ?
Mn4 Pt2 Pt1 119.866(7) . 3 ?
Mn4 Pt2 Pt1 60.134(6) 1_455 3 ?
Mn4 Pt2 Pt1 119.866(7) 1_545 3 ?
Pt1 Pt2 Pt1 120.268(14) 9 3 ?
Pt1 Pt2 Pt1 90.46(2) 11_455 3 ?
Pt1 Pt2 Pt1 89.54(2) 3_655 3 ?
Pt1 Pt2 Pt1 59.732(14) 1_545 3 ?
Mn4 Pt2 Pt1 119.866(7) 1_445 11 ?
Mn4 Pt2 Pt1 60.134(7) . 11 ?
Mn4 Pt2 Pt1 119.866(7) 1_455 11 ?
Mn4 Pt2 Pt1 60.134(6) 1_545 11 ?
Pt1 Pt2 Pt1 59.732(14) 9 11 ?
Pt1 Pt2 Pt1 89.54(2) 11_455 11 ?
Pt1 Pt2 Pt1 90.46(2) 3_655 11 ?
Pt1 Pt2 Pt1 120.268(14) 1_545 11 ?
Pt1 Pt2 Pt1 180.0 3 11 ?
Mn4 Pt2 Pt1 119.866(7) 1_445 9_565 ?
Mn4 Pt2 Pt1 60.134(7) . 9_565 ?
Mn4 Pt2 Pt1 60.134(6) 1_455 9_565 ?
Mn4 Pt2 Pt1 119.866(7) 1_545 9_565 ?
Pt1 Pt2 Pt1 89.54(2) 9 9_565 ?
Pt1 Pt2 Pt1 59.732(14) 11_455 9_565 ?
Pt1 Pt2 Pt1 120.268(14) 3_655 9_565 ?
Pt1 Pt2 Pt1 180.0 1_545 9_565 ?
Pt1 Pt2 Pt1 120.268(14) 3 9_565 ?
Pt1 Pt2 Pt1 59.732(14) 11 9_565 ?
Mn4 Pt2 Pt1 119.866(7) 1_445 . ?
Mn4 Pt2 Pt1 60.134(7) . . ?
Mn4 Pt2 Pt1 60.134(6) 1_455 . ?
Mn4 Pt2 Pt1 119.866(6) 1_545 . ?
Pt1 Pt2 Pt1 180.0 9 . ?
Pt1 Pt2 Pt1 120.268(14) 11_455 . ?
Pt1 Pt2 Pt1 59.732(14) 3_655 . ?
Pt1 Pt2 Pt1 89.54(2) 1_545 . ?
Pt1 Pt2 Pt1 59.732(14) 3 . ?
Pt1 Pt2 Pt1 120.268(14) 11 . ?
Pt1 Pt2 Pt1 90.46(2) 9_565 . ?
Pt1 As3 Pt1 112.824(14) . 11_556 ?
Pt1 As3 Pt1 102.96(3) . 1_545 ?
Pt1 As3 Pt1 112.824(14) 11_556 1_545 ?
Pt1 As3 Pt1 67.176(14) . 3 ?
Pt1 As3 Pt1 180.0 11_556 3 ?
Pt1 As3 Pt1 67.176(14) 1_545 3 ?
Pt1 As3 Pt1 77.04(3) . 9_566 ?
Pt1 As3 Pt1 67.176(14) 11_556 9_566 ?
Pt1 As3 Pt1 180.00(2) 1_545 9_566 ?
Pt1 As3 Pt1 112.824(14) 3 9_566 ?
Pt1 As3 Pt1 180.0 . 9_556 ?
Pt1 As3 Pt1 67.176(14) 11_556 9_556 ?
Pt1 As3 Pt1 77.04(3) 1_545 9_556 ?
Pt1 As3 Pt1 112.824(14) 3 9_556 ?
Pt1 As3 Pt1 102.96(3) 9_566 9_556 ?
Pt1 As3 Pt1 67.176(14) . 3_655 ?
Pt1 As3 Pt1 77.04(3) 11_556 3_655 ?
Pt1 As3 Pt1 67.176(14) 1_545 3_655 ?
Pt1 As3 Pt1 102.96(3) 3 3_655 ?
Pt1 As3 Pt1 112.824(14) 9_566 3_655 ?
Pt1 As3 Pt1 112.824(14) 9_556 3_655 ?
Pt1 As3 Pt1 112.824(14) . 11_456 ?
Pt1 As3 Pt1 102.96(3) 11_556 11_456 ?
Pt1 As3 Pt1 112.824(14) 1_545 11_456 ?
Pt1 As3 Pt1 77.04(3) 3 11_456 ?
Pt1 As3 Pt1 67.176(14) 9_566 11_456 ?
Pt1 As3 Pt1 67.176(14) 9_556 11_456 ?
Pt1 As3 Pt1 180.0 3_655 11_456 ?
Pt2 Mn4 Pt2 180.0 1_665 . ?
Pt2 Mn4 Pt2 90.0 1_665 1_565 ?
Pt2 Mn4 Pt2 90.0 . 1_565 ?
Pt2 Mn4 Pt2 90.0 1_665 1_655 ?
Pt2 Mn4 Pt2 90.0 . 1_655 ?
Pt2 Mn4 Pt2 180.0 1_565 1_655 ?
Pt2 Mn4 Pt1 60.134(7) 1_665 1_655 ?
Pt2 Mn4 Pt1 119.866(7) . 1_655 ?
Pt2 Mn4 Pt1 119.866(7) 1_565 1_655 ?
Pt2 Mn4 Pt1 60.134(7) 1_655 1_655 ?
Pt2 Mn4 Pt1 119.866(7) 1_665 9_565 ?
Pt2 Mn4 Pt1 60.134(7) . 9_565 ?
Pt2 Mn4 Pt1 60.134(7) 1_565 9_565 ?
Pt2 Mn4 Pt1 119.866(7) 1_655 9_565 ?
Pt1 Mn4 Pt1 180.0 1_655 9_565 ?
Pt2 Mn4 Pt1 119.866(7) 1_665 11 ?
Pt2 Mn4 Pt1 60.134(7) . 11 ?
Pt2 Mn4 Pt1 119.866(7) 1_565 11 ?
Pt2 Mn4 Pt1 60.134(7) 1_655 11 ?
Pt1 Mn4 Pt1 120.268(14) 1_655 11 ?
Pt1 Mn4 Pt1 59.732(14) 9_565 11 ?
Pt2 Mn4 Pt1 60.134(7) 1_665 3_665 ?
Pt2 Mn4 Pt1 119.866(7) . 3_665 ?
Pt2 Mn4 Pt1 60.134(7) 1_565 3_665 ?
Pt2 Mn4 Pt1 119.866(7) 1_655 3_665 ?
Pt1 Mn4 Pt1 59.732(14) 1_655 3_665 ?
Pt1 Mn4 Pt1 120.268(14) 9_565 3_665 ?
Pt1 Mn4 Pt1 180.0 11 3_665 ?
Pt2 Mn4 Pt1 60.134(7) 1_665 9_665 ?
Pt2 Mn4 Pt1 119.866(7) . 9_665 ?
Pt2 Mn4 Pt1 119.866(7) 1_565 9_665 ?
Pt2 Mn4 Pt1 60.134(6) 1_655 9_665 ?
Pt1 Mn4 Pt1 90.46(2) 1_655 9_665 ?
Pt1 Mn4 Pt1 89.54(2) 9_565 9_665 ?
Pt1 Mn4 Pt1 59.732(14) 11 9_665 ?
Pt1 Mn4 Pt1 120.268(14) 3_665 9_665 ?
Pt2 Mn4 Pt1 60.134(7) 1_665 11_565 ?
Pt2 Mn4 Pt1 119.866(7) . 11_565 ?
Pt2 Mn4 Pt1 60.134(7) 1_565 11_565 ?
Pt2 Mn4 Pt1 119.866(7) 1_655 11_565 ?
Pt1 Mn4 Pt1 120.268(14) 1_655 11_565 ?
Pt1 Mn4 Pt1 59.732(14) 9_565 11_565 ?
Pt1 Mn4 Pt1 89.54(2) 11 11_565 ?
Pt1 Mn4 Pt1 90.46(2) 3_665 11_565 ?
Pt1 Mn4 Pt1 59.732(14) 9_665 11_565 ?
Pt2 Mn4 Pt1 119.866(7) 1_665 3_655 ?
Pt2 Mn4 Pt1 60.134(7) . 3_655 ?
Pt2 Mn4 Pt1 119.866(7) 1_565 3_655 ?
Pt2 Mn4 Pt1 60.134(6) 1_655 3_655 ?
Pt1 Mn4 Pt1 59.732(14) 1_655 3_655 ?
Pt1 Mn4 Pt1 120.268(14) 9_565 3_655 ?
Pt1 Mn4 Pt1 90.46(2) 11 3_655 ?
Pt1 Mn4 Pt1 89.54(2) 3_665 3_655 ?
Pt1 Mn4 Pt1 120.268(14) 9_665 3_655 ?
Pt1 Mn4 Pt1 180.0 11_565 3_655 ?
Pt2 Mn4 Pt1 119.866(6) 1_665 . ?
Pt2 Mn4 Pt1 60.134(6) . . ?
Pt2 Mn4 Pt1 60.134(6) 1_565 . ?
Pt2 Mn4 Pt1 119.866(6) 1_655 . ?
Pt1 Mn4 Pt1 89.54(2) 1_655 . ?
Pt1 Mn4 Pt1 90.46(2) 9_565 . ?
Pt1 Mn4 Pt1 120.268(14) 11 . ?
Pt1 Mn4 Pt1 59.732(14) 3_665 . ?
Pt1 Mn4 Pt1 180.0 9_665 . ?
Pt1 Mn4 Pt1 120.268(14) 11_565 . ?
Pt1 Mn4 Pt1 59.732(14) 3_655 . ?
loop_
_geom_bond_atom_site_label_1
_geom_bond_atom_site_label_2
_geom_bond_distance
_geom_bond_site_symmetry_2
_geom_bond_publ_flag
Pt1 As3 2.5121(5) 1_565 ?
Pt1 As3 2.5121(5) . ?
Pt1 Pt1 2.7795(6) 3_665 ?
Pt1 Pt1 2.7795(6) 3 ?
Pt1 Pt1 2.7795(6) 3_565 ?
Pt1 Pt1 2.7795(6) 3_655 ?
Pt1 Mn4 2.7908(6) 1_455 ?
Pt1 Pt2 2.7908(6) . ?
Pt1 Mn4 2.7908(6) . ?
Pt1 Pt2 2.7908(6) 1_565 ?
Pt1 Pt1 3.1292(13) 9_566 ?
Pt2 Mn4 2.7795(6) 1_445 ?
Pt2 Mn4 2.7795(6) . ?
Pt2 Mn4 2.7795(6) 1_455 ?
Pt2 Mn4 2.7795(6) 1_545 ?
Pt2 Pt1 2.7908(6) 9 ?
Pt2 Pt1 2.7908(6) 11_455 ?
Pt2 Pt1 2.7908(6) 3_655 ?
Pt2 Pt1 2.7908(6) 1_545 ?
Pt2 Pt1 2.7908(6) 3 ?
Pt2 Pt1 2.7908(6) 11 ?
Pt2 Pt1 2.7908(6) 9_565 ?
As3 Pt1 2.5121(5) 11_556 ?
As3 Pt1 2.5121(5) 1_545 ?
As3 Pt1 2.5121(5) 3 ?
As3 Pt1 2.5121(5) 9_566 ?
As3 Pt1 2.5121(5) 9_556 ?
As3 Pt1 2.5121(5) 3_655 ?
As3 Pt1 2.5121(5) 11_456 ?
Mn4 Pt2 2.7795(6) 1_665 ?
Mn4 Pt2 2.7795(6) 1_565 ?
Mn4 Pt2 2.7795(6) 1_655 ?
Mn4 Pt1 2.7908(6) 1_655 ?
Mn4 Pt1 2.7908(6) 9_565 ?
Mn4 Pt1 2.7908(6) 11 ?
Mn4 Pt1 2.7908(6) 3_665 ?
Mn4 Pt1 2.7908(6) 9_665 ?
Mn4 Pt1 2.7908(6) 11_565 ?
Mn4 Pt1 2.7908(6) 3_655 ?
