#------------------------------------------------------------------------------
#$Date: 2019-11-22 23:04:55 +0200 (Fri, 22 Nov 2019) $
#$Revision: 231521 $
#$URL: file:///home/coder/svn-repositories/cod/cif/4/00/33/4003328.cif $
#------------------------------------------------------------------------------
#
# This file is available in the Crystallography Open Database (COD),
# http://www.crystallography.net/
#
# All data on this site have been placed in the public domain by the
# contributors.
#
data_4003328
loop_
_publ_author_name
'Yang, Guangsai'
'Gong, Pifu'
'Lin, Zheshuai'
'Ye, Ning'
_publ_section_title
;
 AZn2BO3X2(A = K, Rb, NH4; X = Cl, Br): New Members of KBBF Family
 Exhibiting Large SHG Response and the Enhancement of Layer Interaction by
 Modified Structures
;
_journal_issue                   24
_journal_name_full               'Chemistry of Materials'
_journal_page_first              9122
_journal_paper_doi               10.1021/acs.chemmater.6b04272
_journal_volume                  28
_journal_year                    2016
_chemical_formula_sum            'B Cl2 K O3 Zn2'
_chemical_formula_weight         299.55
_space_group_crystal_system      trigonal
_space_group_IT_number           155
_space_group_name_Hall           'R 3 2"'
_space_group_name_H-M_alt        'R 3 2 :H'
_audit_creation_method           SHELXL-2014/7
_cell_angle_alpha                90
_cell_angle_beta                 90
_cell_angle_gamma                120
_cell_formula_units_Z            3
_cell_length_a                   4.9624(6)
_cell_length_b                   4.9624(6)
_cell_length_c                   26.386(5)
_cell_measurement_reflns_used    541
_cell_measurement_temperature    293(2)
_cell_measurement_theta_max      27.4934
_cell_measurement_theta_min      2.3157
_cell_volume                     562.71(14)
_computing_structure_refinement  'SHELXL-2014/7 (Sheldrick, 2014)'
_diffrn_ambient_temperature      293(2)
_diffrn_detector_area_resol_mean 14.6306
_diffrn_measured_fraction_theta_full 0.994
_diffrn_measured_fraction_theta_max 0.990
_diffrn_measurement_device
;
Mercury70 (2x2 bin mode)
;
_diffrn_measurement_method       CCD_Profile_fitting
_diffrn_radiation_type           MoK\a
_diffrn_radiation_wavelength     0.71073
_diffrn_reflns_av_R_equivalents  0.0351
_diffrn_reflns_av_unetI/netI     0.0371
_diffrn_reflns_Laue_measured_fraction_full 0.994
_diffrn_reflns_Laue_measured_fraction_max 0.990
_diffrn_reflns_limit_h_max       5
_diffrn_reflns_limit_h_min       -6
_diffrn_reflns_limit_k_max       6
_diffrn_reflns_limit_k_min       -6
_diffrn_reflns_limit_l_max       33
_diffrn_reflns_limit_l_min       -33
_diffrn_reflns_number            1423
_diffrn_reflns_point_group_measured_fraction_full 0.991
_diffrn_reflns_point_group_measured_fraction_max 0.987
_diffrn_reflns_theta_full        25.242
_diffrn_reflns_theta_max         27.492
_diffrn_reflns_theta_min         2.316
_diffrn_source                   'Sealed Tube'
_exptl_absorpt_coefficient_mu    7.587
_exptl_absorpt_correction_T_max  1.0000
_exptl_absorpt_correction_T_min  0.7424
_exptl_absorpt_correction_type   multi-scan
_exptl_crystal_colour            White
_exptl_crystal_density_diffrn    2.652
_exptl_crystal_description       Prism
_exptl_crystal_F_000             426
_exptl_crystal_size_max          0.3000
_exptl_crystal_size_mid          0.2500
_exptl_crystal_size_min          0.0500
_refine_diff_density_max         0.536
_refine_diff_density_min         -0.447
_refine_diff_density_rms         0.140
_refine_ls_abs_structure_details
;
 Flack x determined using 84 quotients [(I+)-(I-)]/[(I+)+(I-)]
 (Parsons, Flack and Wagner, Acta Cryst. B69 (2013) 249-259).
;
_refine_ls_abs_structure_Flack   0.04(2)
_refine_ls_extinction_method     none
_refine_ls_goodness_of_fit_ref   1.034
_refine_ls_hydrogen_treatment    undef
_refine_ls_matrix_type           full
_refine_ls_number_parameters     17
_refine_ls_number_reflns         294
_refine_ls_number_restraints     0
_refine_ls_restrained_S_all      1.034
_refine_ls_R_factor_all          0.0215
_refine_ls_R_factor_gt           0.0197
_refine_ls_shift/su_max          0.000
_refine_ls_shift/su_mean         0.000
_refine_ls_structure_factor_coef Fsqd
_refine_ls_weighting_details
'w=1/[\s^2^(Fo^2^)+(0.0126P)^2^] where P=(Fo^2^+2Fc^2^)/3'
_refine_ls_weighting_scheme      calc
_refine_ls_wR_factor_gt          0.0389
_refine_ls_wR_factor_ref         0.0394
_reflns_Friedel_coverage         0.492
_reflns_Friedel_fraction_full    0.986
_reflns_Friedel_fraction_max     0.980
_reflns_number_gt                266
_reflns_number_total             294
_reflns_threshold_expression     'I > 2\s(I)'
_cod_data_source_file            cm6b04272_si_003.cif
_cod_data_source_block           1
_cod_depositor_comments
;
The following automatic conversions were performed:

data item '_exptl_absorpt_correction_type' value 'Multi-scan' was
changed to 'multi-scan' in accordance with the
/home/saulius/struct/COD-crude-data/automatic-downloads/DataCite-retrospective/ACS/depositions/lib/dictionaries/cif_core.dic
dictionary named 'cif_core.dic' version 2.4.2 last updated on
2011-04-26.

Automatic conversion script
Id: cif_fix_values 6909 2019-04-08 15:41:33Z antanas 
;
_cod_original_cell_volume        562.71(18)
_cod_database_code               4003328
_shelx_shelxl_version_number     2014/7
_shelx_space_group_comment
;
The symmetry employed for this shelxl refinement is uniquely defined
by the following loop, which should always be used as a source of
symmetry information in preference to the above space-group names.
They are only intended as comments.
;
_shelx_res_file
;

    1.res created by SHELXL-2014/7


TITL 1 in R32
CELL 0.71073   4.9624   4.9624  26.3857  90.000  90.000 120.000
ZERR    3.00   0.0006   0.0006   0.0054   0.000   0.000   0.000
LATT -3
SYMM -Y, X-Y, Z
SYMM -X+Y, -X, Z
SYMM Y, X, -Z
SYMM X-Y, -Y, -Z
SYMM -X, -X+Y, -Z
SFAC B O CL K ZN
UNIT 3 9 6 3 6

L.S.300
BOND
FMAP 2
PLAN 20
TWIN -1 0 0 0 -1 0 0 0 1
ACTA
WGHT    0.012600
BASF   0.11948
FVAR       0.52641
ZN1   5    0.666667    0.333333    0.027874    10.33333    0.00920    0.00920 =
         0.02367    0.00000    0.00000    0.00460
CL1   3    0.666667    0.333333    0.113370    10.33333    0.04259    0.04259 =
         0.02160    0.00000    0.00000    0.02129
K1    4    0.333333    0.666667    0.166667    10.16667    0.03369    0.03369 =
         0.05087    0.00000    0.00000    0.01684
O1    2    0.276558    0.000000    0.000000    10.50000    0.00645    0.00862 =
         0.04031   -0.00564   -0.00282    0.00431
B1    1    0.000000    0.000000    0.000000    10.16667    0.00854    0.00854 =
         0.02653    0.00000    0.00000    0.00427

HKLF 4

REM  1 in R32
REM R1 =  0.0197 for     266 Fo > 4sig(Fo)  and  0.0215 for all     294 data
REM     17 parameters refined using      0 restraints

END

WGHT      0.0126      0.0000

REM Highest difference peak  0.536,  deepest hole -0.447,  1-sigma level  0.140
Q1    1   0.4777  0.2435  0.1090  11.00000  0.05    0.47
Q2    1   0.6667  0.3333 -0.0659  10.33333  0.05    0.38
Q3    1   0.5629  0.1175  0.1531  11.00000  0.05    0.36
Q4    1   0.6667  0.3333  0.0815  10.33333  0.05    0.33
Q5    1   0.6667  0.3333  0.2138  10.33333  0.05    0.32
Q6    1   0.3333  0.6667  0.1394  10.33333  0.05    0.31
Q7    1   0.0000  0.0000  0.0877  10.33333  0.05    0.31
Q8    1   0.6825  0.8479  0.1143  11.00000  0.05    0.29
Q9    1   0.8607  0.7371  0.1108  11.00000  0.05    0.28
Q10   1   0.4399  0.3893  0.1207  11.00000  0.05    0.28
Q11   1   0.9443  0.3919  0.1191  11.00000  0.05    0.27
Q12   1   0.4466  0.8713  0.1192  11.00000  0.05    0.26
Q13   1   0.5860  0.2984  0.1608  11.00000  0.05    0.25
Q14   1   0.0704  0.6087  0.1531  11.00000  0.05    0.24
Q15   1   0.7243  0.8734  0.1555  11.00000  0.05    0.23
Q16   1   0.2375  0.7235  0.1194  11.00000  0.05    0.21
Q17   1   0.5443  0.6154  0.1515  11.00000  0.05    0.20
Q18   1   0.1219 -0.1299  0.0893  11.00000  0.05    0.20
Q19   1   0.8014  0.2023  0.1498  11.00000  0.05    0.19
Q20   1   0.2802  0.9558  0.1523  11.00000  0.05    0.18
;
_shelx_res_checksum              18016
_shelx_hkl_file
;
   0   0   3 3347.23   69.88
   0   0  -3 3392.94   67.66
   0   0   3 2933.62   59.02
   0   0  -6 6887.23  133.60
   0   0   6 7304.97  134.62
   0   0  -9 2676.27   88.90
   0   0   9 2880.13   87.98
   0   0 -12  160.39   26.13
   0   0  12  174.31   28.42
   0   0 -15 3106.61  122.63
   0   0  15 3172.08  126.49
   0   0 -18   18.39   29.93
   0   0  18   20.08   21.61
   0   0 -21 2683.62  139.63
   0   0  21 2601.34  117.29
   0   0  21 2380.89  111.99
   0   0 -24   39.58   47.06
   0   0  24   38.44   21.90
   0   0 -27  318.89   87.58
   0   0  27  702.55   72.66
   0   0 -30  118.30  136.34
   0   0  30   75.98   89.51
   0   0 -33  355.72  116.62
   0   0  33  308.94   50.15
  -1   1 -32  292.67   83.03
   0  -1 -32  299.40  124.37
   1   0 -32  261.81   57.40
   0   1  32  289.40   53.11
  -1   0  32  255.00   47.97
   1  -1  32  245.46   50.72
  -1   1 -29   27.27   37.41
   0  -1 -29   21.34   31.01
   1   0 -29   24.26   31.61
  -1   0  29   19.54   36.77
   1  -1  29   16.25   22.41
   0   1  29   20.29   25.52
  -1   1 -26 1001.37  120.51
   0  -1 -26 1069.48  123.15
   1   0 -26  980.10  130.46
  -1   0  26  878.70   83.73
   1  -1  26  890.62   87.88
   0   1  26 1046.00  127.54
  -1   1 -23 2298.63  162.22
   0  -1 -23 2389.86  161.69
   1   0 -23 1961.38  146.75
  -1   0  23 2220.49  149.54
   1  -1  23 2045.05  131.30
   0   1  23 2349.40  181.89
  -1   1 -20  809.02   94.98
   0  -1 -20  808.49   92.34
   1   0 -20  566.56   72.73
  -1   0  20  845.86   75.10
   1  -1  20  709.06   66.36
   0   1  20  698.70   88.88
  -1   1 -17  121.77   59.90
   0  -1 -17  115.08   45.84
   1   0 -17  112.06   27.66
  -1   0  17  106.46   27.27
   1  -1  17   81.34   34.40
   0   1  17  113.22   46.70
  -1   0  17  128.59   24.14
  -1   1 -14  691.34   71.27
   0  -1 -14  770.35   60.59
   1   0 -14  955.38   76.73
  -1   0  14  661.67   64.24
   1  -1  14  814.22   45.50
   0   1  14  982.33   80.59
  -1   0  14 1014.43   57.48
  -1   1 -11 5127.85  139.07
   0  -1 -11 5169.96  131.79
   1   0 -11 5141.43  132.07
  -1   0  11 5224.86  128.92
   1  -1  11 5294.42  102.06
   0   1  11 5293.01  126.84
  -1   0  11 5343.16  116.67
  -1   1  -8 1182.78   74.43
   0  -1  -8 1227.48   49.39
   1   0  -8 1219.35   63.96
  -1   0   8 1279.62   62.90
   1  -1   8 1282.74   39.10
   0  -1  -8 1228.96   53.99
   0   1   8 1254.76   56.52
  -1   0   8 1089.07   46.82
   0  -1  -5 2940.50   62.08
  -1   1  -5 2904.06   68.19
   1   0  -5 2921.14   74.82
  -1   0   5 2893.63   70.75
   1  -1   5 2897.91   48.05
   0  -1  -5 2967.92   75.71
   0   1   5 2856.58   70.87
   0   1   2 4298.49   61.17
   0  -1  -2 4317.17   62.44
  -1   1  -2 4312.41   67.67
   1   0  -2 4301.89   84.18
  -1   0   2 4370.14   76.57
   0  -1  -2 4326.52   82.29
   0   1   2 4100.08   73.85
  -1   0  -1  932.34   34.29
   0  -1   1 1008.43   27.84
   0   1  -1  924.31   25.80
   1  -1  -1  965.72   27.15
  -1   0  -1  931.50   27.37
   0  -1   1  942.06   40.00
   1  -1  -1  903.56   29.82
  -1   0  -1  993.93   32.03
   1   0   1 1058.85   39.45
  -1   0  -4 5832.50  101.44
   0   1  -4 5888.04   95.36
   0  -1   4 5976.93  100.10
  -1   0  -4 5854.03   84.40
  -1   0  -7    8.36   15.02
   0   1  -7   13.13   15.88
   1  -1  -7    9.11   14.33
   0  -1   7   11.64   11.78
  -1   0  -7    9.30    6.08
  -1   1   7    9.47   12.02
   1   0   7   10.16   14.69
  -1   0 -10 9331.20  172.52
   0   1 -10 9462.77  200.00
   1  -1 -10 9272.79  171.17
   0  -1  10 9337.11  166.56
  -1   1  10 8999.62  155.63
   1   0  10 9267.74  196.22
  -1   0 -13 4383.74  130.50
   0   1 -13 4191.85  139.37
   1  -1 -13 4523.06  131.20
   0  -1  13 4613.23  119.60
  -1   1  13 4403.60  112.62
   1   0  13 4683.30  142.16
  -1   0 -16  965.10   85.04
   0   1 -16  797.13   83.99
   1  -1 -16  730.64   69.51
   0  -1  16  963.82   69.94
  -1   1  16  989.45   65.37
   1   0  16 1079.25   74.29
  -1   0 -19  288.01   53.77
   0   1 -19  346.02   50.97
   1  -1 -19  299.09   47.36
   0  -1  19  252.99   37.69
  -1   1  19  269.82   48.03
   1   0  19  366.49   51.15
  -1   0 -22  125.06   67.14
   0   1 -22  135.54   68.05
   1  -1 -22  128.31   31.94
   0  -1  22  111.67   49.68
  -1   1  22  141.84   33.59
   1   0  22  127.24   29.28
  -1   0 -25 1381.16  166.58
   0   1 -25 1479.12  154.79
   1  -1 -25 1356.23  143.92
   0  -1  25 1238.15  115.17
  -1   1  25 1477.02  118.11
  -1   0 -28  119.06   51.29
   0   1 -28  132.58  102.26
   1  -1 -28  136.61   63.03
   1   0  28  117.40   31.62
  -1   1  28  135.01   39.02
   0  -1  28  125.09   71.05
  -1   1  28  133.06   44.83
  -1   0 -31  268.31   61.47
   0   1 -31  272.18   58.61
   1  -1 -31  272.90  126.89
  -1   1  31  271.62   52.10
   1   0  31  248.40   43.00
   0  -1  31  244.13   50.40
  -1   1  31  266.58   71.81
  -1  -1 -30   30.19   49.18
  -1   2 -30   31.58   46.41
   2  -1 -30   26.88   38.66
  -2   1  30   35.71   52.10
   1  -2  30   24.64   35.23
   1   1  30   34.53   55.31
  -1  -1 -27   65.14   90.46
  -1   2 -27   79.54   98.86
   2  -1 -27   58.54   85.42
  -2   1  27   71.13   94.40
   1  -2  27   38.46   57.35
   1   1  27   69.29  102.17
  -2   1  27   73.80   48.87
  -1  -1 -24  170.13   86.25
  -1   2 -24  248.71   53.79
   2  -1 -24  166.59   57.29
  -2   1  24  220.18   52.62
   1  -2  24  140.49   56.25
   1   1  24  217.69   50.29
  -2   1  24  232.63   44.15
  -1  -1 -21 2852.53  183.67
  -1   2 -21 2984.77  162.06
   2  -1 -21 2635.20  173.45
  -2   1  21 3048.82  150.63
   1  -2  21 2687.37  152.48
   1   1  21 3023.81  191.11
  -2   1  21 3314.77  157.20
  -1  -1 -18  513.97   63.65
  -1   2 -18  565.66   81.54
   2  -1 -18  504.17   67.26
  -2   1  18  475.57   54.54
   1  -2  18  419.65   43.61
   1   1  18  379.37   59.40
  -2   1  18  478.03   59.55
  -1  -1 -15 4378.36  137.70
  -1   2 -15 4753.74  159.05
   2  -1 -15 4253.24  135.62
  -2   1  15 4404.39  147.91
   1  -2  15 4239.22  125.67
  -2   1  15 4392.29  128.64
   1   1  15 4186.40  178.22
  -1  -1 -12 1555.01   72.49
  -1   2 -12 1493.08   88.86
   2  -1 -12 1453.98   71.28
  -2   1  12 1184.75   71.78
   1  -2  12 1475.83   59.80
  -2   1  12 1399.20   53.50
   1   1  12 1484.63   83.85
  -1  -1  -9  269.04   28.95
  -1   2  -9  200.14   26.82
   2  -1  -9  270.25   29.14
  -2   1   9  250.07   31.64
   1  -2   9  278.53   27.22
  -1  -1  -9  269.21   30.91
  -2   1   9  262.58   24.45
   1   1   9  280.34   50.50
  -1  -1  -6 1354.04   62.60
  -1   2  -6 1315.18   63.63
   2  -1  -6 1327.12   57.64
  -2   1   6 1592.20   62.42
   1  -2   6 1467.90   50.68
  -1  -1  -6 1365.39   65.98
  -2   1   6 1402.25   38.40
   1   1   6 1475.18   67.82
  -1  -1  -3  717.15   43.89
  -1   2  -3  804.32   33.35
   2  -1  -3  726.04   39.96
  -2   1   3  978.76   41.79
   1  -2   3  912.76   42.96
  -1  -1  -3  743.34   45.02
   1   1   3  936.55   45.29
  -2   1  -3  897.10   51.27
   1   1  -3  944.26   45.01
  -1  -1   3  755.70   40.94
   1  -2  -3  949.60   46.75
  -2   1  -6 1492.07   64.73
   1  -2  -6 1533.43   44.29
   1   1  -6 1450.32   59.93
  -1  -1   6 1363.18   60.81
   1  -2  -6 1447.66   71.65
  -1   2   6 1340.54   55.85
  -2   1  -9  264.73   32.00
   1  -2  -9  283.30   32.17
   1   1  -9  272.58   30.40
  -1  -1   9  262.30   39.22
   1  -2  -9  270.64   32.05
  -1   2   9  261.92   43.07
  -2   1 -12 1468.46   83.28
   1  -2 -12 1196.20   65.88
   1   1 -12 1389.59   72.57
   2  -1  12 1447.19   47.83
  -1  -1  12 1560.06   89.55
  -1   2  12 1462.42   77.53
  -2   1 -15 4068.75  135.03
   1  -2 -15 3867.62  132.59
   1   1 -15 4223.20  158.71
   2  -1  15 4201.10   97.73
  -1  -1  15 4386.55  134.76
  -1   2  15 4466.97  142.19
  -2   1 -18  421.03   62.54
   1  -2 -18  439.38   64.41
   1   1 -18  443.82   72.53
   2  -1  18  500.39   36.99
  -1  -1  18  505.48   61.18
  -1   2  18  494.30   57.21
  -2   1 -21 2780.97  184.65
   1  -2 -21 3085.94  175.60
   1   1 -21 2701.44  186.88
   2  -1  21 2653.16  145.36
  -1  -1  21 2459.50  159.90
  -1   2  21 2945.77  186.10
  -2   1 -24  146.40   87.20
   1  -2 -24  214.56   68.77
   1   1 -24  140.45   36.93
   2  -1  24  203.19   34.26
  -1  -1  24  151.69   42.27
  -1   2  24  221.66   49.51
  -2   1 -27   81.12   58.18
   1  -2 -27   82.85   49.18
   1   1 -27   59.98   33.62
  -1  -1  27   71.29   42.93
  -1   2  27   58.52   75.10
  -2   1 -30   36.56   50.60
   1  -2 -30   36.35   40.79
   1   1 -30   34.38   59.27
  -1  -1  30   21.97   57.67
  -1   2  30   28.33   52.78
  -2   2 -31  276.30  130.90
   0  -2 -31  291.92  116.12
   2   0 -31  255.79   99.35
  -2   0  31  239.06   50.76
   0   2  31  304.42   79.20
  -2   2 -28  143.65   74.46
   0  -2 -28  163.15   78.30
   2   0 -28   96.47  108.78
  -2   0  28  153.65   39.77
   0   2  28  153.04  130.83
  -2   2 -25 1183.43  124.80
   0  -2 -25 1176.05  151.22
   2   0 -25 1039.52  129.92
  -2   0  25 1106.95  131.36
   0   2  25  985.51  118.73
  -2   2 -22   48.56   78.28
   0  -2 -22   47.30   61.27
   2   0 -22   42.31   67.96
  -2   0  22   30.23   48.15
   2  -2  22   26.54   40.28
   0   2  22   82.81   82.75
  -2   2 -19  119.01   33.00
   0  -2 -19  153.70   36.28
   2   0 -19  146.88   33.01
  -2   0  19  107.52   28.77
   2  -2  19  146.65   25.55
   0   2  19  156.46   34.41
  -2   2 -16  502.79   68.88
   0  -2 -16  427.68   72.61
   2   0 -16  554.39   53.83
  -2   0  16  551.17   52.57
   2  -2  16  566.44   44.07
   0   2  16  554.52   59.60
  -2   2 -13 2606.21  103.08
   0  -2 -13 2616.42  101.40
   2   0 -13 2487.22  101.75
  -2   0  13 2633.15  107.70
   2  -2  13 2690.08   69.09
   0  -2 -13 2589.51  107.08
   0   2  13 2614.32  132.05
  -2   2 -10 4921.28  125.87
   0  -2 -10 5020.30  117.32
   2   0 -10 4774.31  137.48
  -2   0  10 5141.96  162.78
   2  -2  10 5031.68   86.12
   0  -2 -10 4911.62  145.87
   0   2  10 4827.19  132.87
  -2   2  -7    5.18    9.51
   2   0  -7    7.20   13.52
  -2   0   7    6.97   10.29
   2  -2   7    2.51    5.29
   0  -2  -7    4.50   12.25
   0   2   7    8.70   14.50
   0  -2  -4 1979.03   54.12
  -2   2  -4 1854.37   57.56
   2   0  -4 1918.35   75.71
  -2   0   4 1949.64   65.93
   0  -2  -4 1921.68   77.97
   2  -2   4 1875.43   45.23
   0   2   4 1900.97   67.76
   0  -2  -1 1403.67   44.21
  -2   2  -1 1396.83   54.13
   2   0  -1 1409.18   61.38
  -2   0   1 1450.43   53.94
   0  -2  -1 1414.98   70.40
   2  -2   1 1418.23   45.28
  -2   2   2 3946.38   75.08
  -2   0  -2 4001.27  108.70
   0   2  -2 4046.59   78.81
  -2   0  -2 4018.27   86.77
   0  -2   2 4112.21  102.50
  -2   0  -5 3622.69  103.57
   0   2  -5 3586.89   83.44
   2  -2  -5 3561.29   79.77
   0  -2   5 3659.03  100.57
  -2   0  -5 3694.08   82.17
   2   0   5 3787.30  101.67
  -2   0  -8 1905.02   79.54
   0   2  -8 1855.17   77.39
   2  -2  -8 1883.49   64.57
   0  -2   8 1909.72   87.09
  -2   0  -8 1867.09   69.67
  -2   2   8 1874.01   66.13
   2   0   8 1462.96   91.95
  -2   0 -11 4461.63  129.06
   0   2 -11 4657.25  139.63
   2  -2 -11 4506.69  116.32
   0  -2  11 4418.75  126.52
  -2   0 -11 4598.32  107.31
  -2   2  11 4454.59  121.22
   2   0  11 4295.32  137.78
  -2   0 -14  276.77   44.89
   0   2 -14  276.18   37.94
   2  -2 -14  283.82   34.26
   0  -2  14  265.49   34.85
  -2   2  14  267.37   40.59
   2   0  14  269.38   39.67
  -2   0 -17   22.60   34.01
   0   2 -17   24.54   31.00
   2  -2 -17   20.33   28.21
   0  -2  17   21.09   29.77
  -2   2  17   23.37   23.90
   2   0  17   25.25   29.65
  -2   0 -20  447.33   60.94
   0   2 -20  354.32   61.88
   2  -2 -20  414.90   58.43
   0  -2  20  424.91   56.37
  -2   2  20  442.15   54.51
   2   0  20  430.59   67.51
  -2   0 -23 1457.38  121.99
   0   2 -23 1152.48  120.54
   2  -2 -23 1039.31  138.33
   0  -2  23 1443.06  107.69
  -2   2  23 1399.38  112.31
  -2   0 -26  556.10   98.69
   0   2 -26  605.67   88.45
   2  -2 -26  486.09   74.64
   0  -2  26  413.79   69.03
  -2   2  26  553.22   78.24
  -2   0 -29    6.86   11.58
   0   2 -29    4.32   29.16
   2  -2 -29    6.03   15.58
  -2   2  29    5.39   21.89
   0  -2  29    4.78   14.36
  -2   2  29    0.30   15.43
  -2   0 -32  153.88  194.02
   0   2 -32  505.00   75.55
   2  -2 -32  140.00  156.67
  -2   2  32  163.11   43.93
   0  -2  32  135.35   54.43
  -2   2  32  170.03   54.84
  -2  -1 -28  109.91  114.49
  -1   3 -28  138.54   99.01
   3  -2 -28  105.32   34.83
  -3   2  28  129.83   76.19
   1  -3  28   88.35   47.40
   2   1  28  163.59  103.54
  -2  -1 -25  918.14  110.92
  -1   3 -25  913.07  104.96
   3  -2 -25  844.51   86.64
  -3   2  25  902.68   90.24
   1  -3  25  772.91   94.84
   2   1  25  982.99  114.38
  -2  -1 -22   39.61   61.37
  -1   3 -22   30.66   39.98
   3  -2 -22   29.96   31.60
  -3   2  22   39.31   24.17
   1  -3  22   27.19   43.77
  -3   2  22   16.18   29.63
   2   1  22   38.79   60.94
  -2  -1 -19  146.36   40.79
  -1   3 -19   87.34   25.34
   3  -2 -19  133.71   31.81
  -3   2  19  156.27   36.47
   1  -3  19  149.14   82.17
  -3   2  19  148.86   32.71
   2   1  19  188.52   70.69
  -2  -1 -16  510.38   54.20
  -1   3 -16  479.13   75.04
   3  -2 -16  493.18   49.95
  -3   2  16  567.79   60.12
   1  -3  16  524.52   52.29
  -2  -1 -16  500.20   48.34
  -3   2  16  494.17   43.93
   2   1  16  549.40   79.46
  -2  -1 -13 2064.37  103.56
  -1   3 -13 2137.21   98.64
   3  -2 -13 2029.04   92.60
  -3   2  13 2126.18  104.11
   1  -3  13 2112.39   89.17
  -2  -1 -13 2076.80   98.63
  -3   2  13 1964.21   72.24
   2   1  13 1820.63  103.99
  -2  -1 -10 3744.50  133.46
  -1   3 -10 3972.45  131.82
   3  -2 -10 3853.52  120.43
   1  -3  10 3819.91  118.87
  -2  -1 -10 3813.60  128.42
  -3   2  10 3909.61  102.14
   2   1  10 3478.53  140.56
  -2  -1  -7   50.35   15.42
  -1   3  -7   52.63   22.60
   3  -2  -7   49.17   14.44
   1  -3   7   89.02   24.50
  -2  -1  -7   50.18   15.44
   2   1   7  104.38   21.03
  -2  -1  -4 1328.58   85.23
  -1   3  -4 1344.93   39.20
   3  -2  -4 1308.48   60.39
  -3   2   4 1438.54   60.20
   1  -3   4 1334.22   76.90
  -2  -1  -4 1350.05   68.20
   2   1   4 1331.51   72.37
  -2  -1  -1  923.64   67.87
  -3   2   1  874.72   54.07
  -3   2   1  979.40   39.82
  -2  -1  -1  936.33   54.04
   1  -3   1  896.64   59.23
   2   1   1 1125.46   44.13
  -3   2  -2 2586.61  104.49
   2   1  -2 2614.11   94.32
  -3   2  -2 2612.49   47.87
  -2  -1   2 2760.03   97.09
   1  -3  -2 2626.53   95.36
   2   1  -2 2571.89   60.25
  -3   2  -5 2599.40   88.60
   1  -3  -5 2773.62   43.58
   2   1  -5 2595.08   97.50
  -2  -1   5 2821.25  103.39
   1  -3  -5 2601.45  118.45
   2   1  -5 2620.58   50.18
  -3   2  -8 1357.95   86.40
   1  -3  -8 1416.12   51.05
   2   1  -8 1405.97   75.46
  -2  -1   8 1454.47   72.73
   1  -3  -8 1411.32   86.60
  -1   3   8 1464.96   74.06
  -3   2 -11 2998.18  109.05
   2   1 -11 2931.91  113.96
  -2  -1  11 2919.81  115.42
   1  -3 -11 2932.09  125.44
  -1   3  11 3009.60  140.28
  -3   2 -14  232.65   37.88
   1  -3 -14  210.78   54.64
   2   1 -14  219.91   34.84
  -2  -1  14  240.20   38.29
  -1   3  14  240.87   36.99
  -3   2 -17   61.30   64.43
   1  -3 -17   58.04   32.13
   2   1 -17   55.71   21.84
  -2  -1  17   49.59   38.03
  -1   3  17   48.60   51.31
  -3   2 -20  432.92   67.83
   1  -3 -20  472.98   77.37
   2   1 -20  428.67   57.68
  -2  -1  20  411.35   58.79
  -1   3  20  411.29   62.80
  -3   2 -23 1156.97  131.85
   1  -3 -23 1318.37  132.93
   2   1 -23 1206.93  109.96
  -2  -1  23 1056.55  102.97
  -1   3  23 1182.69  125.67
  -3   2 -26  386.03   83.14
   1  -3 -26  584.61   88.01
   2   1 -26  528.51   73.75
  -2  -1  26  325.17   55.15
  -1   3  26  582.62   81.27
  -3   2 -29   22.76   33.32
   1  -3 -29   25.52   39.83
   2   1 -29   23.66   27.24
  -2  -1  29   -1.60   11.84
  -1   3  29    0.01   15.46
  -1  -2 -29   14.92   24.18
  -2   3 -29   13.86   25.58
   3  -1 -29   16.66   18.74
  -3   1  29   20.34   38.66
   1   2  29   31.62   90.53
  -1  -2 -26  462.22   72.47
  -2   3 -26  622.73  115.89
   3  -1 -26  507.84   70.60
  -3   1  26  555.49   70.80
   1   2  26  625.46   97.77
  -1  -2 -23 1097.24  127.33
  -2   3 -23 1316.89  132.24
   3  -1 -23 1167.64  106.67
  -3   1  23 1137.03  104.41
   1   2  23 1006.66  133.83
  -1  -2 -20  421.06   99.67
  -2   3 -20  457.79   82.45
   3  -1 -20  419.95   56.25
  -3   1  20  354.42   51.59
   2  -3  20  433.40   43.59
   1   2  20  491.10   78.10
  -1  -2 -17   52.71   26.00
  -2   3 -17   46.81   27.47
   3  -1 -17   44.75   19.31
  -3   1  17   46.61   60.52
   2  -3  17   31.55   26.38
  -1  -2 -17   50.71   23.11
   1   2  17   61.14   72.39
  -1  -2 -14  246.24   40.94
  -2   3 -14  231.06   55.44
   3  -1 -14  232.76   36.51
  -3   1  14  217.47   35.08
   2  -3  14  228.25   40.85
  -1  -2 -14  231.45   42.37
   1   2  14  240.15   38.14
  -3   1  14  313.49   31.04
  -1  -2 -11 3065.36  103.15
  -2   3 -11 3012.71  120.24
   3  -1 -11 3130.54  120.75
  -3   1  11 2949.34  112.79
   2  -3  11 2958.46   86.92
  -1  -2 -11 3128.13  140.62
   1   2  11 3081.68  130.48
  -3   1  11 2827.49   81.87
  -1  -2  -8 1473.02   82.66
  -2   3  -8 1433.18   71.61
   3  -1  -8 1519.10   79.02
  -3   1   8 1368.13   66.74
   2  -3   8 1341.01   53.97
  -1  -2  -8 1471.27   85.06
   1   2   8 1430.32   90.44
  -3   1   8 1385.86   36.49
  -1  -2  -5 2664.47   92.25
   3  -1  -5 2653.57   97.61
  -3   1   5 2599.57   88.17
   2  -3   5 2569.95   78.22
  -1  -2  -5 2709.94  123.28
   1   2   5 2638.91  109.74
  -3   1   2 2587.34   92.24
  -1  -2  -2 2742.82   84.98
  -3   1   2 2774.75   79.67
  -1  -2  -2 2745.70  106.43
   2  -3   2 2650.33   83.36
   1   2   2 2689.31   88.73
  -1  -2   1  920.12   46.65
  -3   1  -1  888.45   73.39
  -2   3   1 1084.84   17.86
  -3   1  -1  887.96   39.84
  -1  -2   1  936.19   70.39
   2  -3  -1  902.28   50.96
   1   2  -1  873.16   44.74
  -2   3   4 1348.80   27.71
  -3   1  -4 1362.81  110.63
   1   2  -4 1350.41   61.61
  -1  -2   4 1349.33   80.84
  -3   1  -4 1330.72   39.37
   2  -3  -4 1327.52   75.44
  -3   1  -7   90.47   25.73
   2  -3  -7   92.81   11.67
   1   2  -7   87.81   19.27
  -1  -2   7   50.83   18.42
  -3   1  -7   91.39   12.46
   2  -3  -7   98.31   23.20
  -3   1 -10 3854.15  141.88
   2  -3 -10 3857.75   91.34
   1   2 -10 3829.96  121.30
  -1  -2  10 3745.19  154.19
  -2   3  10 3860.27  123.55
  -3   1 -13 2047.85   97.97
   2  -3 -13 2111.00   87.22
   1   2 -13 2071.71   96.67
  -1  -2  13 2012.94  107.86
  -2   3  13 2053.04  132.41
  -3   1 -16  525.73   65.44
   2  -3 -16  504.52   58.36
   1   2 -16  512.81   53.57
  -1  -2  16  461.72   67.95
  -2   3  16  481.31   56.44
  -3   1 -19  147.41   35.29
   2  -3 -19  150.81   55.15
   1   2 -19  135.44   34.54
  -1  -2  19  138.10   30.06
  -2   3  19  156.40   33.36
  -3   1 -22   29.40   35.17
   2  -3 -22   30.06   31.08
   1   2 -22   29.09   23.37
  -1  -2  22   30.93   42.09
  -2   3  22   29.71   55.12
  -3   1 -25  872.67  105.54
   2  -3 -25  636.11   91.44
   1   2 -25  753.80  100.13
  -1  -2  25  761.49   84.42
  -2   3  25  915.03  102.69
  -3   1 -28  128.52   75.00
   2  -3 -28  106.88   64.25
   1   2 -28   69.95   62.80
  -1  -2  28   87.54   30.89
  -2   3  28  145.80   92.24
  -3   3 -27   87.35   35.76
   0  -3 -27   94.17   52.41
   3   0 -27   88.86   39.07
  -3   0  27   61.59  109.42
   0   3  27   76.71   99.23
  -3   3 -24   34.94   42.34
   0  -3 -24   34.34   52.49
   3   0 -24   31.78   23.57
  -3   0  24   19.76   32.04
   0   3  24   30.04   74.65
  -3   3 -21 1077.97  125.93
   0  -3 -21 1207.08  132.99
   3   0 -21 1118.34  102.70
  -3   0  21 1041.51  107.51
   0   3  21 1179.81  115.61
  -3   3 -18   98.01   30.54
   0  -3 -18   93.08   54.10
   3   0 -18  121.49   34.32
  -3   0  18  112.42   30.34
   0   3  18  119.31   32.93
  -3   3 -15 1442.71  141.95
   0  -3 -15 1417.98  109.55
   3   0 -15 1444.73  107.91
  -3   0  15 1525.48  111.16
   0  -3 -15 1530.53  116.75
   0   3  15 1509.65  115.01
  -3   3 -12  221.42   38.62
   0  -3 -12  219.21   31.78
   3   0 -12  221.75   36.82
  -3   0  12  227.85   33.49
   0  -3 -12  213.34   62.53
   0   3  12  234.69   37.63
  -3   3  -9  306.03   38.81
   0  -3  -9  307.91   33.81
   3   0  -9  313.49   41.76
  -3   0   9  294.09   46.57
   0  -3  -9  302.31   46.53
   3  -3   9  294.69   19.76
   0   3   9  301.98   40.29
   0  -3  -6 1622.95   68.61
  -3   3  -6 1659.77   74.20
   3   0  -6 1660.86   85.49
  -3   0   6 1707.96   76.56
   0  -3  -6 1683.11  100.30
   3  -3   6 1703.30   49.08
   0   3   6 1726.90   93.91
   0  -3  -3 1579.50   55.95
  -3   3  -3 1517.20   69.72
   3   0  -3 1504.04   78.29
  -3   0   3 1610.48   80.19
   0  -3  -3 1558.67   96.29
   0   3   3 1564.28   74.39
  -3   0   0 9911.13  205.95
   0  -3   0 9972.63  412.80
  -3   3   0 9999.98  421.58
  -3   0   0 9798.20  211.96
   0  -3   0 9891.66  207.00
  -3   3   3 1547.80   57.26
  -3   0  -3 1513.26   94.72
   0   3  -3 1527.45   54.60
  -3   0  -3 1524.47   64.31
   0  -3   3 1493.39   89.62
  -3   0  -6 1717.83  102.33
   0   3  -6 1768.13   67.64
   3  -3  -6 1602.79   58.69
   0  -3   6 1710.57   90.17
  -3   0  -6 1764.88   67.36
  -3   0  -9  304.40   44.44
   0   3  -9  309.18   32.09
   3  -3  -9  301.34   29.92
   0  -3   9  303.01   50.07
  -3   0  -9  305.67   30.36
  -3   3   9  310.74   35.96
  -3   0 -12  238.28   50.03
   0   3 -12  253.63   32.75
   3  -3 -12  250.90   30.76
   0  -3  12  240.04   35.91
  -3   0 -12  238.88   31.61
  -3   3  12  264.42   40.85
  -3   0 -15 1472.42  135.19
   0   3 -15 1525.34  103.58
   3  -3 -15 1424.86   93.24
   0  -3  15 1455.30  103.53
  -3   3  15 1502.00  109.15
  -3   0 -18  120.71   94.80
   0   3 -18  155.77   31.76
   3  -3 -18  111.38   24.96
   0  -3  18  112.82   30.84
  -3   3  18  111.74   45.58
  -3   0 -21 1278.69  132.56
   0   3 -21 1151.81  132.23
   3  -3 -21 1138.21   91.51
   0  -3  21 1156.42   94.49
  -3   3  21 1193.16  105.24
  -3   0 -24   33.19   54.91
   0   3 -24   27.34   52.49
   3  -3 -24   23.20   18.27
   0  -3  24   27.91   46.86
  -3   3  24   26.97   38.72
  -3   0 -27  105.33   91.99
   0   3 -27   48.00   86.18
   3  -3 -27   62.30   27.11
   0  -3  27   51.04   83.64
  -3   3  27   59.21   26.74
  -3  -1 -26  466.76   75.19
  -1   4 -26  262.08   51.75
   4  -3 -26  455.16   61.97
  -4   3  26  466.61   68.81
   1  -4  26  504.34   62.56
   3   1  26  506.37   74.87
  -3  -1 -23  932.81  102.30
  -1   4 -23  851.25   87.19
   4  -3 -23  879.56   82.44
  -4   3  23  913.37   87.37
   1  -4  23  881.23   77.89
   3   1  23  950.49   91.30
  -3  -1 -20  464.55  104.81
  -1   4 -20  445.63   70.12
   4  -3 -20  442.95   55.81
  -4   3  20  462.66   61.58
   1  -4  20  428.46   65.69
   3   1  20  510.71   70.04
  -3  -1 -17   89.94   51.92
  -1   4 -17   73.05   38.37
   4  -3 -17   89.24   25.23
  -4   3  17   89.25   29.46
   1  -4  17   60.74   60.86
  -3  -1 -17   89.04   26.05
   3   1  17   97.46   71.02
  -3  -1 -14  195.82   38.34
   4  -3 -14  221.70   37.28
  -4   3  14  187.81   35.84
   1  -4  14  205.49   41.78
  -4   3  14  203.09   42.86
   3   1  14  231.24   79.04
  -3  -1 -11 1327.29  109.14
   4  -3 -11 1297.77   91.20
  -4   3  11  972.11   79.59
   1  -4  11 1274.44  106.67
  -3  -1 -11 1277.44  106.65
  -4   3  11 1422.45  121.76
   3   1  11 1303.53  107.91
  -3  -1  -8  612.32   71.70
   4  -3  -8  584.19   53.00
  -4   3   8  499.10   50.97
   1  -4   8  622.61   64.28
  -3  -1  -8  632.31   62.22
   3   1   8  625.93   59.56
  -4   3   5 1156.52   62.17
  -3  -1  -5 1105.02   94.39
  -4   3   5 1123.99   60.29
   1  -4   5 1108.08   83.94
  -3  -1  -5 1127.60   67.15
   3   1   5  843.17   63.52
  -3  -1  -2 1008.52   74.70
  -4   3   2 1051.57   62.49
  -4   3   2 1036.15   48.74
  -3  -1  -2 1017.70   69.03
   1  -4   2 1028.74   69.99
   3   1   2  916.07   56.34
  -3  -1   1  215.91   34.31
  -4   3  -1  240.21   40.65
  -3  -1   1  212.10   31.82
   1  -4  -1  220.52   37.17
  -4   3  -4  982.99   67.59
  -3  -1   4 1005.55   67.46
   1  -4  -4  974.58   77.45
  -4   3  -7  156.52   28.82
   3   1  -7  151.52   30.77
  -3  -1   7  159.61   32.31
   1  -4  -7  172.26   44.95
  -1   4   7  168.04   32.39
  -4   3 -10 2725.81  167.75
   3   1 -10 2800.83  167.72
  -3  -1  10 2689.48  185.44
   1  -4 -10 2773.74  186.84
  -1   4  10 2992.41  139.03
  -4   3 -13 1808.61  120.84
   3   1 -13 1648.21  120.33
  -3  -1  13 1623.32  121.53
   1  -4 -13 1676.20  130.59
  -1   4  13 1685.01  132.91
  -4   3 -16  567.91   92.28
   3   1 -16  501.32   61.86
  -3  -1  16  491.86   82.22
   1  -4 -16  537.14   73.42
  -1   4  16  533.87   67.92
  -4   3 -19  158.59   53.54
   3   1 -19  146.44   36.93
  -3  -1  19  158.10   38.50
  -1   4  19  163.68   56.66
  -4   3 -22   35.76   49.02
   3   1 -22   36.14   25.52
  -3  -1  22   28.81   56.23
  -1   4  22   25.29   40.66
  -4   3 -25  372.17   75.99
   3   1 -25  411.99   66.79
  -3  -1  25  377.35   68.46
  -1   4  25  442.02   71.07
  -2  -2 -24  100.27   43.42
  -2   4 -24   86.06   59.31
   4  -2 -24   90.58   32.32
  -4   2  24   93.64   35.78
   2   2  24  121.18  128.55
  -2  -2 -21 1291.16  110.51
  -2   4 -21 1159.67   96.64
   4  -2 -21 1287.91  102.50
  -4   2  21 1128.29   99.66
   2   2  21 1317.18  122.36
  -2  -2 -18  304.03   67.02
  -2   4 -18  188.46   37.32
   4  -2 -18  280.22   45.62
  -4   2  18  182.82   41.93
   2  -4  18  309.51   39.13
  -2  -2 -18  309.26   49.14
   2   2  18  281.00   58.91
  -2  -2 -15 1786.86  144.79
  -2   4 -15 1682.67  120.91
   4  -2 -15 1762.24  124.46
  -4   2  15 1480.00  108.80
   2  -4  15 1796.59  121.50
  -2  -2 -15 1810.79  142.44
   2   2  15 1939.79  177.77
  -2  -2 -12  539.39   59.61
   4  -2 -12  574.06   63.04
  -4   2  12  506.30   52.22
   2  -4  12  529.17   48.75
  -2  -2 -12  563.35   65.37
   2   2  12  602.84   70.56
  -2  -2  -9   33.11   16.95
   4  -2  -9   34.54   17.21
  -4   2   9   32.65   30.56
   2  -4   9   36.06   15.97
  -2  -2  -9   33.33   32.53
   2   2   9   36.49   47.77
  -2  -2  -6  604.83   53.37
   4  -2  -6  599.84   52.53
  -4   2   6  574.46   43.88
   2  -4   6  557.82   54.64
  -2  -2  -6  623.69   73.93
   2   2   6  579.38   62.17
  -4   2   3  531.17   50.00
  -2  -2  -3  563.90   61.10
  -4   2   3  546.15   38.89
  -2  -2  -3  580.01   57.19
   2  -4   3  512.31   60.79
   2   2   3  545.28   45.02
  -2  -2   0 5232.95  151.29
  -4   2   0 5107.12  166.53
  -4   2   0 5250.92   98.88
  -2  -2   0 5381.75  169.26
   2  -4   0 5311.07  155.81
   2   2   0 4978.76  116.18
  -2  -2   3  550.73   47.07
  -4   2  -3  529.05   51.91
  -2  -2   3  589.79   61.71
   2  -4  -3  532.91   80.97
   2   2  -3  268.13   25.45
  -4   2  -6  567.78   55.91
   2   2  -6  554.78   49.84
  -2  -2   6  595.70   64.42
   2  -4  -6  569.95   61.17
  -4   2  -9   33.89   43.29
   2   2  -9   32.90   16.91
  -2  -2   9   31.38   51.78
   2  -4  -9   46.42   23.59
  -2   4   9   32.59   17.60
  -4   2 -12  544.21   64.21
   2   2 -12  568.48   61.75
  -2  -2  12  534.18   58.09
  -2   4  12  560.77   75.45
  -4   2 -15 1782.95  151.13
   2   2 -15 1779.42  126.44
  -2  -2  15 1678.80  128.01
  -2   4  15 1852.23  141.52
  -4   2 -18  332.39   69.80
   2   2 -18  300.98   49.05
  -2  -2  18  286.00   54.94
  -2   4  18  309.24   54.98
  -4   2 -21 1322.33  121.86
   2   2 -21 1296.10  104.74
  -2  -2  21 1261.22  108.18
  -2   4  21 1375.72  148.93
  -4   2 -24  104.71   80.40
   2   2 -24   90.86   32.85
  -2  -2  24   85.65   77.34
  -2   4  24  102.61   32.41
  -1  -3 -25  323.34   72.44
  -3   4 -25  456.27   82.96
   4  -1 -25  426.33   65.70
  -4   1  25  309.99   76.64
   1   3  25  446.47   93.46
  -1  -3 -22   31.40   30.01
  -3   4 -22   29.81   60.38
   4  -1 -22   32.25   24.58
  -4   1  22   22.11   42.00
   1   3  22   33.29   52.32
  -1  -3 -19  157.20   58.53
  -3   4 -19  167.98   43.17
   4  -1 -19  150.78   38.18
  -4   1  19  145.32   40.74
  -1  -3 -19  170.98   41.77
   1   3  19  165.96   43.04
  -1  -3 -16  527.90   91.56
  -3   4 -16  530.44   78.80
   4  -1 -16  546.57   67.41
  -4   1  16  511.96   70.91
  -1  -3 -16  521.08   73.45
   1   3  16  559.80   83.37
  -1  -3 -13 1668.35  131.94
  -3   4 -13 1690.91  132.74
   4  -1 -13 1738.91  126.47
  -4   1  13 1609.80  110.01
  -1  -3 -13 1657.99  162.39
   1   3  13 1729.76  155.48
  -1  -3 -10 2704.14  151.62
   4  -1 -10 2862.44  170.48
  -4   1  10 2728.12  159.17
  -1  -3 -10 2647.30  173.73
   1   3  10 2845.96  187.72
  -1  -3  -7  168.84   27.02
   4  -1  -7  173.80   32.82
  -4   1   7  152.23   34.81
  -1  -3  -7  173.25   38.25
   3  -4   7  156.60   30.37
   1   3   7  191.20   34.11
  -4   1   4 1031.82   72.75
  -1  -3  -4  982.31   57.23
  -4   1   4  977.37   56.17
  -1  -3  -4  984.34   92.58
   3  -4   4  988.88   62.45
   1   3   4  996.54   70.46
  -4   1   1  219.81   38.51
  -1  -3  -1  216.29   44.44
  -4   1   1  221.05   24.99
  -1  -3  -1  224.37   40.01
   3  -4   1  235.39   39.33
   1   3   1  311.92   42.89
  -1  -3   2 1014.88   55.16
  -4   1  -2 1038.20   83.92
  -4   1  -2 1022.27   46.43
  -1  -3   2 1008.18   93.64
   3  -4  -2 1036.87   64.97
  -4   1  -5 1128.84   84.21
   1   3  -5 1154.80   63.94
  -1  -3   5 1103.86   81.47
  -4   1  -8  637.40   78.35
   1   3  -8  658.54   59.26
  -1  -3   8  640.99   63.75
  -4   1 -11 1316.39  116.03
   1   3 -11 1343.59   95.82
  -1  -3  11 1165.31  102.33
  -3   4  11 1382.44  103.79
  -4   1 -14  191.57   62.98
   1   3 -14  208.94   36.05
  -1  -3  14  197.68   42.62
  -3   4  14  227.49   40.78
  -4   1 -17   65.67   41.11
   1   3 -17   72.44   25.09
  -1  -3  17   77.56   27.39
  -3   4  17   86.16   77.46
  -4   1 -20  451.73   78.84
   1   3 -20  428.69   59.24
  -1  -3  20  427.62   69.80
  -3   4  20  483.86   65.36
  -4   1 -23  909.92  121.04
   1   3 -23  922.17   92.77
  -1  -3  23  923.99   89.85
  -3   4  23  997.49  121.99
  -4   1 -26  442.94   97.96
   1   3 -26  458.65   68.68
  -1  -3  26  437.65   72.29
  -3   4  26  504.65   67.81
  -4   4 -23  924.14  111.87
   4   0 -23  839.97   93.86
  -4   0  23  768.77   84.33
   0   4  23  900.59  125.65
  -4   4 -20  409.79   64.44
   4   0 -20  453.80   67.57
  -4   0  20  457.87   60.61
   0   4  20  495.58   78.95
  -4   4 -17  116.27   34.00
   4   0 -17  123.28   35.61
  -4   0  17  117.07   31.27
   0  -4 -17  121.98   36.62
   0   4  17  140.58   72.34
  -4   4 -14  216.49   49.03
   4   0 -14  207.32   44.34
  -4   0  14  209.12   47.74
   0  -4 -14  217.41   67.34
   0   4  14  232.95   43.64
  -4   4 -11  819.36   81.34
   4   0 -11  791.49   83.50
  -4   0  11  745.50   70.63
   0  -4 -11  723.49  111.32
   0   4  11  788.50   92.82
  -4   4  -8  340.15   61.35
   4   0  -8  337.71   51.92
  -4   0   8  322.14   58.61
   0  -4  -8  337.82   51.50
   0   4   8  354.44   51.51
  -4   0   5  767.06   76.24
  -4   0   5  717.32   67.42
   0  -4  -5  687.77   71.35
   0   4   5  714.28   87.81
  -4   0   2  578.03   68.14
  -4   0   2  565.41   57.87
   0  -4  -2  550.95   65.58
   0   4   2  586.66   62.12
  -4   0  -1   69.27   54.84
  -4   0  -1   61.53   22.89
   0  -4   1   69.63   24.42
  -4   0  -4 1003.15  102.04
   0  -4   4  970.33   86.28
  -4   0  -4  988.31   69.58
  -4   0  -7  290.52   62.59
   0  -4   7  262.06   48.09
  -4   0 -10 2731.03  184.62
   0  -4  10 2579.01  175.91
  -4   4  10 2905.86  166.18
  -4   0 -13 1673.77  147.75
   0  -4  13 1600.00  142.15
  -4   4  13 1821.06  136.09
  -4   0 -16  600.05   77.06
   0  -4  16  574.16   70.54
  -4   4  16  620.64   64.61
  -4   0 -19  213.12   72.67
   0  -4  19  196.69   48.70
   0   4 -22   36.15   24.80
   0  -4  22   39.68   65.26
  -4   4  22   26.62   55.23
  -4  -1 -18  191.82   95.80
  -5   4  18  201.34   41.95
   1  -5  18  186.15  109.10
  -4  -1 -15  799.27  116.65
  -5   4  15  680.19   69.24
   1  -5  15  760.91   92.89
  -4  -1 -12  226.04   70.39
   1  -5  12  216.52   41.86
  -4  -1  -9   21.42   31.81
   1  -5   9   20.08   26.58
  -4  -1  -6  435.95   59.75
   1  -5   6  418.67   64.75
  -4  -1  -6  424.91   53.41
  -4  -1  -3  492.04   64.85
  -4  -1  -3  465.75   57.38
   1  -5   3  470.35   80.19
  -4  -1   0 2781.87  189.00
  -4  -1   0 2704.65  170.22
   1  -5   0 2851.71  182.40
  -4  -1   3  525.05   67.23
  -4  -1   3  486.31   65.25
   1  -5  -3  514.65   71.22
  -1   5   3  490.48   60.69
  -4  -1   6  420.16   60.33
  -5   4  -6  426.48   52.13
  -4  -1   6  415.92   54.45
   1  -5  -6  418.36   92.02
  -1   5   6  406.44   58.14
  -5   4  -9   20.91   42.27
   4   1  -9   23.50   22.03
  -4  -1   9   17.21   35.66
   1  -5  -9   23.52   61.01
  -1   5   9   25.91   24.45
  -5   4 -12  224.58   42.72
   4   1 -12  196.90   43.06
  -4  -1  12  212.48   39.42
   1  -5 -12  206.99   62.35
  -1   5  12  210.33   77.12
  -5   4 -15  864.18   92.35
   4   1 -15 1063.24   96.08
  -4  -1  15  820.97   78.53
   1  -5 -15  852.89   96.36
  -1   5  15  865.44  113.48
  -5   4 -18  188.37   45.23
   4   1 -18  195.17   46.96
  -4  -1  18  202.53   47.25
   1  -5 -18  185.37   53.13
  -1   5  18  215.53   48.39
  -3  -2 -19   67.24   80.12
   5  -3 -19   71.00   28.59
  -5   3  19   28.14   53.00
  -3  -2 -19   64.34   27.90
   3   2  19   68.42  102.97
  -3  -2 -16  261.07   63.04
   5  -3 -16  292.83   47.95
  -5   3  16  178.77   52.77
   2  -5  16  229.77   36.75
  -3  -2 -16  294.59   49.98
   3   2  16  304.01   73.57
  -3  -2 -13  823.84   86.90
   5  -3 -13  834.83   74.74
  -5   3  13  703.81   61.83
   2  -5  13  794.22   67.50
  -3  -2 -13  870.52   95.59
   3   2  13  812.00   94.93
  -3  -2 -10 1479.46  129.74
   2  -5  10 1281.04  115.20
  -3  -2 -10 1468.74  115.67
   3   2  10 1132.21  124.44
  -5   3   7   52.74   22.75
  -3  -2  -7   87.72   69.88
   2  -5   7   50.24   24.84
  -3  -2  -7   78.49   52.97
   3   2   7   39.88   39.92
  -5   3   4  294.34   47.33
  -3  -2  -4  309.06   52.94
  -3  -2  -4  309.61   59.25
   2  -5   4  294.08   53.74
  -3  -2  -1  340.67   48.56
  -5   3   1  344.08   55.65
  -3  -2  -1  336.55   49.90
   2  -5   1  344.59   71.40
  -3  -2   2 1229.90   94.52
  -5   3  -2 1058.76  105.97
  -3  -2   2 1037.08   99.93
   2  -5  -2 1053.14   88.89
  -3  -2   5 1174.68   93.20
  -5   3  -5 1232.55  101.57
  -3  -2   5 1285.29  119.59
   2  -5  -5 1213.82  116.46
  -5   3  -8  789.12   95.29
   3   2  -8  767.57   76.34
  -3  -2   8  750.15   75.85
   2  -5  -8  779.18   86.28
  -2   5   8  708.00   74.66
  -5   3 -11 1116.39  103.92
   3   2 -11 1109.30   97.41
  -3  -2  11 1071.83   95.86
   2  -5 -11 1200.66  110.33
  -2   5  11 1261.12  150.20
  -5   3 -14   30.41   53.49
   3   2 -14   38.97   23.39
  -3  -2  14   21.45   15.69
   2  -5 -14   43.15   27.88
  -2   5  14   35.13   37.89
  -5   3 -17   16.87   20.05
   3   2 -17   18.34   17.28
  -3  -2  17  364.25   57.13
  -2   5  17   31.30   30.87
  -5   3 -20  180.18  104.41
   3   2 -20  189.63   43.12
  -3  -2  20  197.24   55.04
  -2   5  20  239.10   49.47
  -2  -3 -20  214.01  121.31
   5  -2 -20  222.07   47.91
  -5   2  20  177.00   46.89
  -2  -3 -20  223.10   51.25
   2   3  20  204.63   57.29
  -2  -3 -17   23.82   31.95
   5  -2 -17   26.49   21.98
  -5   2  17    5.72   11.72
  -2  -3 -17   23.51   46.52
   2   3  17   14.52   28.66
  -2  -3 -14   34.16   48.62
   5  -2 -14   79.92   29.79
  -5   2  14   16.82   40.21
  -2  -3 -14   34.14   56.09
   2   3  14   40.52   63.52
  -2  -3 -11 1078.67   92.75
   5  -2 -11 1131.93   99.35
  -5   2  11 1057.52   81.52
  -2  -3 -11 1139.53  107.48
   2   3  11 1138.99  109.57
  -5   2   8  801.22   78.23
  -2  -3  -8  738.01  101.04
  -2  -3  -8  754.05   78.54
   2   3   8  793.81   74.82
  -5   2   5 1239.89  121.11
  -2  -3  -5 1194.81   94.69
  -2  -3  -5 1204.04  107.08
   3  -5   5 1230.30  106.41
   2   3   5 1305.29  102.23
  -5   2   2 1076.66  110.28
  -2  -3  -2 1027.50   86.00
  -2  -3  -2 1032.74   98.49
   3  -5   2 1074.69   88.03
   2   3   2 1077.22   81.84
  -2  -3   1  337.29   46.77
  -5   2  -1  361.26   53.97
  -2  -3   1  331.74   51.40
   3  -5  -1  352.81   57.32
  -2  -3   4  331.01   44.47
  -5   2  -4  307.25   50.95
  -2  -3   4  318.31   59.39
   3  -5  -4  303.10   47.31
  -5   2  -7   49.75   28.98
  -2  -3   7   76.57   25.22
   3  -5  -7   75.21   28.12
  -5   2 -10 1397.98  125.01
   2   3 -10 1402.49  107.29
  -2  -3  10 1332.00  129.76
  -3   5  10 1444.14  111.76
  -5   2 -13  808.34   85.12
   2   3 -13  821.93   76.62
  -2  -3  13  759.69  111.92
  -3   5  13  895.84  111.03
  -5   2 -16  252.70   46.75
   2   3 -16  257.62   47.47
  -2  -3  16  266.16   47.37
  -3   5  16  297.43   78.59
  -5   2 -19   70.82   73.35
   2   3 -19   60.25   25.94
  -2  -3  19   56.88  100.32
  -3   5  19   69.67   93.98
   5  -1 -18  205.94   47.43
  -5   1  18  180.02   38.41
  -1  -4 -18  219.32   53.75
   1   4  18  215.24   54.23
   5  -1 -15  861.83   87.93
  -5   1  15  758.16   70.08
  -1  -4 -15  867.68   93.67
   1   4  15  888.05   92.06
   5  -1 -12  224.21   45.57
  -5   1  12  198.19   65.45
  -1  -4 -12  218.54   58.45
   1   4  12  258.26   91.77
  -5   1   9   26.68   23.77
  -5   1   9   12.79   23.82
  -1  -4  -9   24.78   40.05
   1   4   9   30.83   35.38
  -5   1   6  454.89   63.16
  -5   1   6  406.52   51.18
  -1  -4  -6  423.60   65.02
   1   4   6  430.19   56.92
  -5   1   3  539.02   87.84
  -1  -4  -3  480.83   75.88
   1   4   3  522.30   62.55
  -5   1   0 2916.92  223.52
  -1  -4   0 2787.01  189.81
   1   4   0 2748.66  169.65
  -5   1  -3  515.80   65.73
  -1  -4   3  473.54   72.58
   1   4  -3  529.50   55.66
  -5   1  -6  460.66   65.18
  -1  -4   6  420.75   61.57
   1   4  -6  292.77   40.40
  -5   1  -9   25.58   37.80
  -1  -4   9   21.18   31.15
  -4   5   9   27.07   18.93
  -5   1 -12  216.56   46.61
  -1  -4  12  213.46   42.92
  -4   5  12  241.62   67.85
  -5   1 -15  785.25  111.66
  -1  -4  15  792.34   81.34
  -4   5  15  915.75  104.93
  -5   1 -18  188.91   60.28
  -1  -4  18  189.09   42.50
  -4   5  18  242.60   91.38
   5   0 -13  636.48   78.49
  -5   0  13  616.66   66.05
   0  -5 -13  628.22   81.13
   0   5  13  649.61  103.14
  -5   0  10 1206.18  111.40
  -5   0  10  950.47   83.21
   0  -5 -10 1020.55   99.45
   0   5  10 1109.18  111.87
  -5   0   7   77.61   34.52
  -5   0   7   62.88   36.53
   0  -5  -7   68.49   53.53
   0   5   7  102.21   48.55
  -5   0   4  227.96   87.38
   0  -5  -4  206.52   53.94
   0   5   4  279.55   90.51
  -5   0   1  190.23   52.29
   0  -5  -1  163.22   38.02
   0   5   1  230.62   41.44
  -5   0  -2  623.23   81.86
   0  -5   2  592.52   89.27
   0   5  -2  594.42   62.82
  -5   0  -5  782.72   91.65
   0  -5   5  747.63   88.78
  -5   0  -8  507.38   70.04
   0  -5   8  495.11   65.78
  -5   0 -11  680.49   89.17
   0  -5  11  684.00   74.72
  -5   5  11  736.56   74.74
  -5   0 -14   17.35   33.26
   0  -5  14    0.21   45.03
  -5   5  14   16.34   23.87
  -5  -1  -1  183.13   54.61
   1  -6   1  139.54  111.27
  -1   6  -1  190.24   46.58
  -4  -2  -8  423.41   71.85
   2  -6   8  424.50   64.53
  -4  -2  -8  429.88   59.31
  -4  -2  -5  659.76   88.20
  -4  -2  -5  685.31   70.45
   2  -6   5  647.54  116.13
  -4  -2  -2  506.36   84.04
  -4  -2  -2  505.26   61.57
   2  -6   2  469.65   85.60
  -4  -2   1  151.60   94.78
  -4  -2   1  149.36   49.52
   2  -6  -1  150.40   39.97
  -4  -2   4  162.31  108.08
  -4  -2   4  148.39   64.54
   2  -6  -4  165.38   44.00
  -2   6   4  236.28   48.65
  -4  -2   7   71.67   31.39
  -4  -2   7   55.88   77.96
   2  -6  -7   74.40   68.38
  -2   6   7   91.84   38.30
  -4  -2  10  887.11   90.10
  -4  -2  10  763.00   80.48
   2  -6 -10  799.81   94.25
  -2   6  10  824.39   89.94
  -6   3  12  123.18   33.86
  -3  -3 -12   94.48   91.08
  -3  -3 -12  116.19   38.07
  -6   3   9   17.08   33.13
  -3  -3  -9   23.21   23.07
  -3  -3  -9   20.61   43.62
  -6   3   6  349.36   55.21
  -3  -3  -6  364.84   52.32
  -3  -3  -6  339.12   66.40
  -6   3   3  444.46   62.78
  -3  -3  -3  455.07  117.72
  -3  -3  -3  445.46   73.13
   3  -6   3  404.43   72.62
  -3  -3   0 1920.32  121.13
  -6   3   0 1922.01  141.33
  -3  -3   0 1993.29  142.13
   3  -6   0 1901.20  143.28
  -3  -3   3  460.36   59.69
  -6   3  -3  425.86   56.98
  -3  -3   3  431.40   75.12
   3  -6  -3  402.31   60.44
  -3  -3   6  356.85   51.83
  -6   3  -6  341.89   53.74
  -3  -3   6  339.77   85.57
   3  -6  -6  330.79   55.89
  -3   6   6  353.54   55.70
  -3  -3   9   15.45   19.03
  -6   3  -9   19.62   27.00
  -3  -3   9   18.00   48.59
   3  -6  -9   26.15   23.08
  -3   6   9   23.06   24.85
  -6   3 -12  116.30   35.36
   3   3 -12  130.37   34.68
  -3  -3  12  105.09   83.37
  -3   6  12  119.66   73.53
  -6   2  10  907.55   91.66
  -2  -4 -10  807.66   89.14
   2   4  10  782.07   81.00
  -6   2   7   77.27   33.82
  -2  -4  -7   50.71   86.66
  -6   2   4  195.18   72.20
  -2  -4  -4  159.58   52.51
  -6   2   1  168.46   81.92
  -2  -4  -1  165.94   49.06
  -6   2  -2  482.44   83.41
  -2  -4   2  475.03   86.14
  -6   2  -5  656.07   80.12
  -2  -4   5  626.39   88.04
  -6   2  -8  424.14   64.44
  -2  -4   8  394.13   70.50
  -4   6   8  437.80   61.13
  -6   1  -1  192.07  125.42
  -1  -5   1  172.54  171.35
   0   0   0    0.00    0.00
;
_shelx_hkl_checksum              91271
loop_
_space_group_symop_operation_xyz
'x, y, z'
'-y, x-y, z'
'-x+y, -x, z'
'y, x, -z'
'x-y, -y, -z'
'-x, -x+y, -z'
'x+2/3, y+1/3, z+1/3'
'-y+2/3, x-y+1/3, z+1/3'
'-x+y+2/3, -x+1/3, z+1/3'
'y+2/3, x+1/3, -z+1/3'
'x-y+2/3, -y+1/3, -z+1/3'
'-x+2/3, -x+y+1/3, -z+1/3'
'x+1/3, y+2/3, z+2/3'
'-y+1/3, x-y+2/3, z+2/3'
'-x+y+1/3, -x+2/3, z+2/3'
'y+1/3, x+2/3, -z+2/3'
'x-y+1/3, -y+2/3, -z+2/3'
'-x+1/3, -x+y+2/3, -z+2/3'
loop_
_atom_site_label
_atom_site_type_symbol
_atom_site_fract_x
_atom_site_fract_y
_atom_site_fract_z
_atom_site_U_iso_or_equiv
_atom_site_adp_type
_atom_site_occupancy
_atom_site_site_symmetry_order
_atom_site_calc_flag
_atom_site_refinement_flags_posn
_atom_site_refinement_flags_adp
_atom_site_refinement_flags_occupancy
Zn1 Zn 0.6667 0.3333 0.02787(3) 0.0140(2) Uani 1 3 d S T P
Cl1 Cl 0.6667 0.3333 0.11337(6) 0.0356(4) Uani 1 3 d S T P
K1 K 0.3333 0.6667 0.1667 0.0394(6) Uani 1 6 d S T P
O1 O 0.2766(8) 0.0000 0.0000 0.0182(10) Uani 1 2 d S T P
B1 B 0.0000 0.0000 0.0000 0.0145(19) Uani 1 6 d S T P
loop_
_atom_site_aniso_label
_atom_site_aniso_U_11
_atom_site_aniso_U_22
_atom_site_aniso_U_33
_atom_site_aniso_U_23
_atom_site_aniso_U_13
_atom_site_aniso_U_12
Zn1 0.0092(2) 0.0092(2) 0.0237(4) 0.000 0.000 0.00460(12)
Cl1 0.0426(7) 0.0426(7) 0.0216(9) 0.000 0.000 0.0213(3)
K1 0.0337(8) 0.0337(8) 0.0509(16) 0.000 0.000 0.0168(4)
O1 0.0065(16) 0.009(2) 0.040(3) -0.0056(19) -0.0028(9) 0.0043(10)
B1 0.009(3) 0.009(3) 0.027(6) 0.000 0.000 0.0043(13)
loop_
_atom_type_symbol
_atom_type_description
_atom_type_scat_dispersion_real
_atom_type_scat_dispersion_imag
_atom_type_scat_source
B B 0.0013 0.0007 'International Tables Vol C Tables 4.2.6.8 and 6.1.1.4'
O O 0.0106 0.0060 'International Tables Vol C Tables 4.2.6.8 and 6.1.1.4'
Cl Cl 0.1484 0.1585 'International Tables Vol C Tables 4.2.6.8 and 6.1.1.4'
K K 0.2009 0.2494 'International Tables Vol C Tables 4.2.6.8 and 6.1.1.4'
Zn Zn 0.2839 1.4301 'International Tables Vol C Tables 4.2.6.8 and 6.1.1.4'
loop_
_geom_angle_atom_site_label_1
_geom_angle_atom_site_label_2
_geom_angle_atom_site_label_3
_geom_angle
_geom_angle_site_symmetry_1
_geom_angle_site_symmetry_3
O1 Zn1 O1 106.72(4) . 2_655
O1 Zn1 O1 106.72(4) . 3_665
O1 Zn1 O1 106.72(4) 2_655 3_665
O1 Zn1 Cl1 112.10(3) . .
O1 Zn1 Cl1 112.10(3) 2_655 .
O1 Zn1 Cl1 112.10(3) 3_665 .
Zn1 Cl1 K1 116.14(3) . 1_655
Zn1 Cl1 K1 116.14(3) . 1_545
K1 Cl1 K1 102.05(3) 1_655 1_545
Zn1 Cl1 K1 116.14(3) . .
K1 Cl1 K1 102.05(3) 1_655 .
K1 Cl1 K1 102.05(3) 1_545 .
Cl1 K1 Cl1 102.05(3) 1_455 1_565
Cl1 K1 Cl1 77.95(3) 1_455 10_455
Cl1 K1 Cl1 77.95(3) 1_565 10_455
Cl1 K1 Cl1 180.0 1_455 10
Cl1 K1 Cl1 77.95(3) 1_565 10
Cl1 K1 Cl1 102.05(3) 10_455 10
Cl1 K1 Cl1 77.95(3) 1_455 10_445
Cl1 K1 Cl1 180.0 1_565 10_445
Cl1 K1 Cl1 102.05(3) 10_455 10_445
Cl1 K1 Cl1 102.05(3) 10 10_445
Cl1 K1 Cl1 102.05(3) 1_455 .
Cl1 K1 Cl1 102.05(3) 1_565 .
Cl1 K1 Cl1 180.00(5) 10_455 .
Cl1 K1 Cl1 77.95(3) 10 .
Cl1 K1 Cl1 77.95(3) 10_445 .
Cl1 K1 K1 90.0 1_455 1_565
Cl1 K1 K1 38.973(17) 1_565 1_565
Cl1 K1 K1 38.975(17) 10_455 1_565
Cl1 K1 K1 90.0 10 1_565
Cl1 K1 K1 141.026(17) 10_445 1_565
Cl1 K1 K1 141.025(17) . 1_565
Cl1 K1 K1 38.973(17) 1_455 1_455
Cl1 K1 K1 90.0 1_565 1_455
Cl1 K1 K1 38.975(17) 10_455 1_455
Cl1 K1 K1 141.026(17) 10 1_455
Cl1 K1 K1 90.0 10_445 1_455
Cl1 K1 K1 141.025(17) . 1_455
K1 K1 K1 60.0 1_565 1_455
Cl1 K1 K1 141.025(17) 1_455 1_665
Cl1 K1 K1 38.974(17) 1_565 1_665
Cl1 K1 K1 90.0 10_455 1_665
Cl1 K1 K1 38.975(17) 10 1_665
Cl1 K1 K1 141.026(17) 10_445 1_665
Cl1 K1 K1 90.0 . 1_665
K1 K1 K1 60.0 1_565 1_665
K1 K1 K1 120.0 1_455 1_665
Cl1 K1 K1 38.974(17) 1_455 1_445
Cl1 K1 K1 141.025(17) 1_565 1_445
Cl1 K1 K1 90.0 10_455 1_445
Cl1 K1 K1 141.026(17) 10 1_445
Cl1 K1 K1 38.975(17) 10_445 1_445
Cl1 K1 K1 90.0 . 1_445
K1 K1 K1 120.0 1_565 1_445
K1 K1 K1 60.0 1_455 1_445
K1 K1 K1 180.0 1_665 1_445
Cl1 K1 K1 90.0 1_455 1_545
Cl1 K1 K1 141.026(17) 1_565 1_545
Cl1 K1 K1 141.026(17) 10_455 1_545
Cl1 K1 K1 90.0 10 1_545
Cl1 K1 K1 38.975(17) 10_445 1_545
Cl1 K1 K1 38.974(17) . 1_545
K1 K1 K1 180.0 1_565 1_545
K1 K1 K1 120.0 1_455 1_545
K1 K1 K1 120.0 1_665 1_545
K1 K1 K1 60.0 1_445 1_545
Cl1 K1 K1 141.026(17) 1_455 1_655
Cl1 K1 K1 90.0 1_565 1_655
Cl1 K1 K1 141.026(17) 10_455 1_655
Cl1 K1 K1 38.975(17) 10 1_655
Cl1 K1 K1 90.0 10_445 1_655
Cl1 K1 K1 38.974(17) . 1_655
K1 K1 K1 120.0 1_565 1_655
K1 K1 K1 180.0 1_455 1_655
K1 K1 K1 60.0 1_665 1_655
K1 K1 K1 120.0 1_445 1_655
K1 K1 K1 60.000(1) 1_545 1_655
B1 O1 Zn1 124.55(9) . .
B1 O1 Zn1 124.55(9) . 4_545
Zn1 O1 Zn1 110.90(18) . 4_545
O1 B1 O1 120.0 3 2
O1 B1 O1 120.0 3 .
O1 B1 O1 120.0 2 .
loop_
_geom_bond_atom_site_label_1
_geom_bond_atom_site_label_2
_geom_bond_distance
_geom_bond_site_symmetry_2
Zn1 O1 1.955(2) .
Zn1 O1 1.955(2) 2_655
Zn1 O1 1.955(2) 3_665
Zn1 Cl1 2.2559(19) .
Cl1 K1 3.1915(8) 1_655
Cl1 K1 3.1915(8) 1_545
Cl1 K1 3.1916(8) .
K1 Cl1 3.1915(8) 1_455
K1 Cl1 3.1915(8) 1_565
K1 Cl1 3.1916(8) 10_455
K1 Cl1 3.1916(8) 10
K1 Cl1 3.1916(8) 10_445
K1 K1 4.9624(6) 1_565
K1 K1 4.9624(6) 1_455
K1 K1 4.9624(6) 1_665
K1 K1 4.9624(6) 1_445
K1 K1 4.9624(6) 1_545
K1 K1 4.9624(6) 1_655
O1 B1 1.372(4) .
O1 Zn1 1.955(2) 4_545
B1 O1 1.372(4) 3
B1 O1 1.372(4) 2
