#------------------------------------------------------------------------------
#$Date: 2021-03-04 01:21:51 +0200 (Thu, 04 Mar 2021) $
#$Revision: 262419 $
#$URL: file:///home/coder/svn-repositories/cod/cif/4/00/38/4003881.cif $
#------------------------------------------------------------------------------
#
# This file is available in the Crystallography Open Database (COD),
# http://www.crystallography.net/
#
# All data on this site have been placed in the public domain by the
# contributors.
#
data_4003881
loop_
_publ_author_name
'Zhao, Xin'
'Lin, Chensheng'
'Chen, Jindong'
'Luo, Min'
'Xu, Feng'
'Yang, Shunda'
'Shi, Shuangshuang'
'Li, Bingxuan'
'Ye, Ning'
_publ_section_title
;
 Halonitrides Zn2NX (X=Cl,Br): Novel Mid-Infrared Nonlinear Optical
 Materials
;
_journal_issue                   4
_journal_name_full               'Chemistry of Materials'
_journal_page_first              1462
_journal_page_last               1470
_journal_paper_doi               10.1021/acs.chemmater.0c04772
_journal_volume                  33
_journal_year                    2021
_chemical_formula_moiety         'Cl N Zn2'
_chemical_formula_sum            'Cl N Zn2'
_chemical_formula_weight         180.20
_space_group_crystal_system      orthorhombic
_space_group_IT_number           33
_space_group_name_Hall           'P 2c -2n'
_space_group_name_H-M_alt        'P n a 21'
_audit_creation_date             2020-08-12
_audit_creation_method
;
Olex2 1.3
(compiled 2020.07.31 svn.rc2a77460 for OlexSys, GUI svn.r6145)
;
_cell_angle_alpha                90
_cell_angle_beta                 90
_cell_angle_gamma                90
_cell_formula_units_Z            4
_cell_length_a                   6.137(4)
_cell_length_b                   7.394(5)
_cell_length_c                   5.940(4)
_cell_measurement_reflns_used    779
_cell_measurement_temperature    293(2)
_cell_measurement_theta_max      27.4507
_cell_measurement_theta_min      3.3195
_cell_volume                     269.5(3)
_computing_molecular_graphics    'Olex2 1.3 (Dolomanov et al., 2009)'
_computing_publication_material  'Olex2 1.3 (Dolomanov et al., 2009)'
_computing_structure_refinement  'SHELXL 2017/1 (Sheldrick, 2015)'
_computing_structure_solution    'ShelXT (Sheldrick, 2015)'
_diffrn_ambient_temperature      293(2)
_diffrn_measured_fraction_theta_full 0.993
_diffrn_measured_fraction_theta_max 0.994
_diffrn_measurement_device_type  'Bruker P4'
_diffrn_measurement_method       '\w scans'
_diffrn_radiation_type           MoK\a
_diffrn_radiation_wavelength     0.71073
_diffrn_reflns_av_R_equivalents  0.0286
_diffrn_reflns_av_unetI/netI     0.0331
_diffrn_reflns_Laue_measured_fraction_full 0.993
_diffrn_reflns_Laue_measured_fraction_max 0.994
_diffrn_reflns_limit_h_max       7
_diffrn_reflns_limit_h_min       -6
_diffrn_reflns_limit_k_max       9
_diffrn_reflns_limit_k_min       -9
_diffrn_reflns_limit_l_max       7
_diffrn_reflns_limit_l_min       -7
_diffrn_reflns_number            1902
_diffrn_reflns_point_group_measured_fraction_full 0.994
_diffrn_reflns_point_group_measured_fraction_max 0.995
_diffrn_reflns_theta_full        25.242
_diffrn_reflns_theta_max         27.450
_diffrn_reflns_theta_min         4.316
_exptl_absorpt_coefficient_mu    18.428
_exptl_absorpt_correction_type   none
_exptl_crystal_density_diffrn    4.441
_exptl_crystal_description       Prism
_exptl_crystal_F_000             336
_exptl_crystal_size_max          0.1
_exptl_crystal_size_mid          0.1
_exptl_crystal_size_min          0.1
_refine_diff_density_max         0.723
_refine_diff_density_min         -0.898
_refine_diff_density_rms         0.249
_refine_ls_abs_structure_details
;
 Refined as an inversion twin.
;
_refine_ls_abs_structure_Flack   0.46(4)
_refine_ls_extinction_method     none
_refine_ls_goodness_of_fit_ref   1.111
_refine_ls_hydrogen_treatment    undef
_refine_ls_matrix_type           full
_refine_ls_number_parameters     38
_refine_ls_number_reflns         606
_refine_ls_number_restraints     1
_refine_ls_restrained_S_all      1.110
_refine_ls_R_factor_all          0.0267
_refine_ls_R_factor_gt           0.0253
_refine_ls_shift/su_max          0.000
_refine_ls_shift/su_mean         0.000
_refine_ls_structure_factor_coef Fsqd
_refine_ls_weighting_details
'w=1/[\s^2^(Fo^2^)+(0.0332P)^2^] where P=(Fo^2^+2Fc^2^)/3'
_refine_ls_weighting_scheme      calc
_refine_ls_wR_factor_gt          0.0573
_refine_ls_wR_factor_ref         0.0578
_reflns_Friedel_coverage         0.829
_reflns_Friedel_fraction_full    0.995
_reflns_Friedel_fraction_max     0.996
_reflns_number_gt                584
_reflns_number_total             606
_reflns_threshold_expression     'I > 2\s(I)'
_cod_data_source_file            cm0c04772_si_002.cif
_cod_data_source_block           Zn2NCl
_cod_database_code               4003881
_shelx_shelxl_version_number     2017/1
_shelx_space_group_comment
;
The symmetry employed for this shelxl refinement is uniquely defined
by the following loop, which should always be used as a source of
symmetry information in preference to the above space-group names.
They are only intended as comments.
;
_olex2_refinement_description
;
1. Twinned data refinement
 Scales: 0.54(4)
 0.46(4)
;
_shelx_res_file
;
TITL 1_a.res in Pna2(1)
    1.res
    created by SHELXL-2017/1 at 14:58:14 on 12-Aug-2020
REM Old TITL 1_a.res in Pna2(1)
REM SHELXT solution in Pna2(1)
REM R1 0.054, Rweak 0.004, Alpha 0.001, Orientation as input
REM Flack x = 0.451 ( 0.022 ) from Parsons' quotients
REM Formula found by SHELXT: Cl N Zn2
CELL 0.71073 6.1373 7.3939 5.9396 90 90 90
ZERR 4 0.0043 0.005 0.0043 0 0 0
LATT -1
SYMM -X,-Y,0.5+Z
SYMM 0.5+X,0.5-Y,+Z
SYMM 0.5-X,0.5+Y,0.5+Z
SFAC Cl N Zn
UNIT 4 4 8

L.S. 100
PLAN  5
CONF
list 4
MORE -1
fmap 2
acta
TWIN -1 0 0 0 -1 0 0 0 -1 2
REM <olex2.extras>
REM <HklSrc "%.\\1.hkl">
REM </olex2.extras>

WGHT    0.033200
BASF   0.46178
FVAR       0.79749
ZN1   3    0.377426    0.324631    0.675790    11.00000    0.00693    0.01369 =
         0.02157   -0.00039   -0.00102    0.00378
ZN2   3    0.028886    0.447460    0.324178    11.00000    0.01603    0.01962 =
         0.01331    0.00797   -0.00325    0.00079
CL1   1    0.581431    0.622160    0.624386    11.00000    0.01009    0.01073 =
         0.01394    0.00072    0.00041   -0.00056
N1    2    0.076228    0.373374    0.624514    11.00000    0.00772    0.00630 =
         0.00895    0.00074    0.00015    0.00186
HKLF 4




REM  1_a.res in Pna2(1)
REM R1 =  0.0253 for     584 Fo > 4sig(Fo)  and  0.0267 for all     606 data
REM     38 parameters refined using      1 restraints

END

WGHT      0.0332      0.0000

REM Highest difference peak  0.723,  deepest hole -0.898,  1-sigma level  0.249
Q1    1   0.4022  0.5618  0.3800  11.00000  0.05    0.72
Q2    1   0.5623  0.8309  0.5238  11.00000  0.05    0.68
Q3    1  -0.0310  0.3461  0.5654  11.00000  0.05    0.64
Q4    1  -0.0753  0.3732  0.5406  11.00000  0.05    0.59
Q5    1   0.1152  0.6172  0.4516  11.00000  0.05    0.57
;
_shelx_res_checksum              6622
_shelx_hkl_file
;
   0  -2   0  331.90   13.91
   0   2   0  324.57   12.95
   0  -3   0    1.56    4.65
   0   3   0    2.46    3.31
   0  -4   0 2264.78   63.63
   0   4   0 2204.32   61.94
   0  -5   0    2.67    4.83
   0   5   0    7.45    5.37
   0  -6   0  852.85   35.77
   0   6   0  662.15   32.78
   0  -7   0    7.51    5.68
   0   7   0    1.59    7.99
   0  -8   0  820.86   51.26
   0   8   0  766.05   44.25
   0  -9   0   11.82   14.12
   0   9   0    6.58    4.37
  -1   0   0    5.02    2.16
   1  -1   0 1175.86   35.42
  -1  -1   0 1162.16   26.26
   1   1   0 1215.23   32.30
  -1  -2   0 5930.02  126.95
   1  -2   0 5282.36  127.93
   1   2   0 5025.99  114.97
  -1  -3   0 8073.16  176.42
   1  -3   0 7842.90  186.06
   1   3   0 7867.83  171.07
   1   3   0 8334.74  186.51
  -1   3   0 8682.15  194.24
  -1  -4   0 1064.32   30.53
   1  -4   0 1038.41   40.63
   1   4   0  976.96   34.26
  -1   4   0  980.09   34.47
  -1  -5   0  387.41   17.11
   1  -5   0  362.30   22.98
   1   5   0  367.19   20.64
  -1   5   0  390.33   22.10
  -1  -6   0   48.89    6.77
   1  -6   0   27.97   12.75
   1   6   0   20.43   11.36
  -1   6   0   14.07    6.32
   1  -7   0 1236.48   66.67
   1   7   0 1169.49   62.07
  -1   7   0 1217.87   64.61
   1  -8   0  188.44   21.84
  -1  -8   0  156.17   22.40
   1  -8   0  173.12   23.32
   1   8   0  166.26   20.65
  -1   8   0  194.37   22.36
  -1  -9   0  170.89   29.01
   1  -9   0  169.15   26.92
   1   9   0  120.23   58.40
  -1   9   0  164.92   22.94
   2   1   0 4965.02  112.51
   2  -1   0 4517.12  113.44
   2  -1   0 5147.07  112.15
  -2  -1   0 4787.20  108.16
   2  -2   0 2909.59   82.46
  -2  -2   0 2675.38   58.13
   2   2   0 2765.85   73.29
   2  -3   0  284.07   20.20
   2   3   0  290.97   18.85
   2  -4   0   93.03   13.20
   2   4   0   65.65   19.08
   2  -5   0 3842.49  110.77
   2   5   0 3559.42   96.05
  -2   5   0 3644.37   98.14
   2  -6   0  201.24   23.10
   2   6   0  182.95   20.54
  -2   6   0  176.42   17.66
   2  -7   0  309.18   84.55
  -2  -7   0  275.00   28.76
   2   7   0  307.34   34.87
  -2   7   0  339.25   27.31
   2  -8   0  122.82   56.23
  -2  -8   0   99.11   21.63
   2  -8   0  109.11   18.62
   2   8   0  117.25   64.61
  -2   8   0   96.76   16.95
   2  -9   0   37.09   33.53
  -2  -9   0  104.32   24.33
   2  -9   0   86.11   19.62
   2   9   0   59.90   33.08
  -2   9   0   54.81   14.14
   3   0   0    2.78    5.87
  -3   0   0    1.54    0.72
   3   1   0 5160.22  122.16
   3  -1   0 5051.76  130.49
  -3  -1   0 5093.01  114.34
   3   2   0 8078.14  177.81
   3  -2   0 7793.80  193.84
  -3  -2   0 8186.98  183.00
   3  -3   0  222.10   20.39
  -3  -3   0  190.59   14.14
   3   3   0  196.27   13.82
   3  -4   0  146.15   17.08
  -3  -4   0  122.65   12.82
   3   4   0  152.91   45.37
   3  -5   0  458.71   32.51
  -3  -5   0  400.08   26.84
   3  -6   0    4.07    6.77
  -3  -6   0    5.11   10.60
   3   6   0    6.21    7.69
  -3   6   0   11.34   11.97
   3  -7   0  234.45   55.18
  -3  -7   0  214.77   24.67
   3  -7   0  282.06   24.42
   3   7   0  258.01   23.45
  -3   7   0  215.47   21.47
   3  -8   0  290.89   34.93
  -3  -8   0  348.49   39.18
   3  -8   0  303.29   33.21
   3   8   0  336.58   35.09
  -3   8   0  277.99   30.17
   4   0   0 1165.84   44.09
   4   1   0   25.93   11.47
   4  -1   0    3.96    7.06
  -4  -1   0    5.23    1.90
   4   2   0 3983.54   94.36
   4  -2   0 4030.25  116.33
   4  -2   0 3579.57   77.99
  -4  -2   0 3897.93   92.45
   4   3   0  167.51    6.84
   4  -3   0  202.51   21.42
  -4  -3   0  192.96   13.90
   4  -3   0  189.77   10.92
  -4  -4   0 1189.15   43.88
   4   4   0 1134.00   44.71
   4  -5   0 1312.25   75.18
  -4  -5   0 1339.80   68.66
   4  -5   0 1375.56   65.24
   4   5   0 1232.33   63.45
   4  -6   0 1818.12   86.71
  -4  -6   0 1914.10   83.27
   4   6   0 1778.32   77.51
   4  -7   0  449.14   47.75
  -4  -7   0  459.54   45.58
   4   7   0  319.92   33.60
  -4   7   0  369.30   36.41
   4  -8   0    4.91    7.98
  -4  -8   0    4.36   12.79
   4   8   0    7.33    5.45
  -4   8   0    4.91    9.47
   5   0   0    2.06    7.32
   5   1   0 3019.39   86.10
   5  -1   0 2853.60  104.59
  -5  -1   0 2813.23   65.06
   5   2   0  166.29   12.27
   5  -2   0  151.32   18.91
  -5  -2   0  149.47    9.97
   5  -3   0  836.95   53.56
  -5  -3   0  843.75   41.87
   5  -4   0 2637.43  128.96
  -5  -4   0 2458.05  108.00
   5  -5   0   68.34   26.96
  -5  -5   0   53.57   10.66
   5  -6   0    0.35    7.25
  -5  -6   0    4.71    8.65
   5  -7   0    0.35    6.43
  -5  -7   0    7.14   10.13
  -5   7   0   -5.93    9.36
   6   0   0  181.23   75.75
   6   1   0 2227.62  102.55
   6  -1   0 2191.77  107.17
   6  -2   0  132.56   57.82
   6  -3   0  264.27   28.74
   6  -4   0  732.92   67.17
   6  -5   0   12.21   14.49
   6  -6   0   50.71   24.01
   7   0   0    7.91    5.11
   7  -1   0   31.04   22.89
   7  -2   0  221.81   89.38
   7  -3   0  301.22   35.19
   7  -4   0 1790.18  129.65
   0   0  -1    0.53    0.66
   0   0  -1    0.18    1.53
   0  -1   1 2157.06   51.13
   0  -1  -1 2087.71   49.86
   0   1   1 2135.78   52.92
   0  -1   1 2146.24   52.35
   0   1   1 2205.73   52.06
   0  -2   1    0.51    1.72
   0  -2  -1    1.58    2.94
   0   2   1    3.36    2.90
   0  -2   1    4.05    3.60
   0   2  -1    3.52    1.58
   0   2   1    0.97    2.83
   0  -3   1 5652.34  131.11
   0  -3  -1 5150.17  121.51
   0  -3   1 5250.31  128.09
   0   3  -1 5429.92  125.82
   0   3   1 5578.01  131.16
   0  -4   1    2.41    3.23
   0  -4  -1    5.13    4.74
   0  -4   1   42.69    8.93
   0   4  -1    3.17    3.78
   0   4   1    1.72    4.37
   0  -5  -1 5042.30  128.19
   0  -5   1 5005.66  132.74
   0   5  -1 5199.90  127.95
   0  -6   1    6.51    4.15
   0  -6  -1    2.80    6.10
   0  -6   1   21.21    9.59
   0   6  -1    3.86    5.74
   0   6   1    6.05   11.45
   0  -7   1 1981.12   91.21
   0  -7  -1 1984.13   94.78
   0  -7   1 1849.09   94.12
   0   7  -1 1824.08   88.15
   0   7   1 1820.59   88.85
   0  -8  -1    2.32    2.41
   0  -8   1    4.46   12.50
   0   8  -1    2.65   10.04
   0   8   1    0.29    8.54
   0  -9   1  344.24   40.60
   0   9  -1  306.12   32.34
   0   9   1  344.35   34.50
   1   0   1    1.99    1.99
   1   0  -1    0.23    2.28
   1   0   1    2.64    1.95
  -1   0  -1    1.38    2.06
  -1   0   1    0.88    2.64
  -1   0  -1    8.38    1.27
   1   1   1  153.08    7.01
   1  -1   1  165.94   10.07
   1  -1  -1  164.46   10.34
   1   1  -1  141.84    6.66
  -1  -1   1  143.16    6.50
   1   1   1  147.42    8.67
  -1   1   1  139.04    8.75
   1  -1   1  162.91    7.83
  -1  -1   1  149.51    8.49
   1   1   1  145.27    7.27
  -1  -2   1 3515.52   82.64
   1   2  -1 3330.64   75.30
   1  -2   1 3381.85   84.33
   1  -2  -1 3271.63   82.54
  -1  -2  -1 3398.72   77.33
  -1   2   1 3454.15   85.44
  -1  -2   1 3335.68   82.59
   1  -2   1 3364.05   81.34
   1   2  -1 3482.76   82.48
   1   2   1 3476.78   82.93
  -1   2  -1 3529.48   81.80
  -1  -3   1 2245.86   53.30
   1  -3   1 2155.17   61.54
   1  -3  -1 2132.25   62.13
  -1  -3  -1 2171.92   53.22
  -1  -3   1 2142.64   61.49
   1  -3   1 2161.68   60.65
   1   3  -1 2150.65   56.82
   1   3   1 2109.94   57.16
  -1   3  -1 2118.20   55.05
  -1  -4   1 2288.58   55.86
   1  -4   1 2260.82   71.22
   1  -4  -1 2104.29   65.24
  -1  -4  -1 2235.62   58.75
  -1  -4   1 2204.78   67.63
   1  -4   1 2271.64   67.82
   1   4  -1 2287.41   63.43
   1   4   1 2303.05   64.99
  -1   4  -1 2260.96   61.91
  -1   4   1 2357.02   67.54
  -1  -5   1 1217.07   34.44
   1  -5   1 1164.64   44.73
   1  -5  -1 1167.88   46.55
  -1  -5  -1 1224.03   40.16
  -1  -5   1 1176.20   48.28
   1  -5   1 1190.18   47.06
   1   5  -1 1242.54   47.56
   1   5   1 1173.85   43.28
  -1   5  -1 1318.35   45.26
  -1   5   1 1166.39   43.36
  -1  -6   1 3415.05   83.23
   1  -6   1 3539.55  101.25
  -1  -6  -1 3639.11   95.84
   1  -6  -1 3704.51  109.19
   1  -6   1 3648.04  106.94
   1   6  -1 3878.48  105.27
  -1   6  -1 3567.92   99.01
  -1   6   1 3560.33  100.72
   1  -7   1   25.28   14.67
   1  -7  -1   27.21   11.87
  -1  -7   1   18.45   12.45
   1  -7   1   90.95   16.24
   1   7  -1   31.70   10.28
   1   7   1   18.69    9.83
  -1   7  -1   16.08    7.93
  -1   7   1   23.21    9.10
   1  -8   1  521.42   48.06
   1  -8  -1  605.89   54.28
  -1  -8   1  548.79   52.51
   1  -8   1  576.28   54.41
   1   8  -1  594.79   52.63
   1   8   1  554.65   50.18
  -1   8  -1  532.13   48.03
  -1   8   1  542.00   51.24
  -1  -9   1  269.11   36.11
   1  -9   1  366.16   39.04
   1   9  -1  343.74   35.85
   1   9   1  332.06   34.50
  -1   9  -1  299.72   41.82
  -1   9   1  316.95   33.55
   2   0   1 3690.58   89.04
   2   0  -1 3681.17   89.75
   2   0   1 3861.37   86.87
  -2   0  -1 3835.81   84.97
  -2   0   1 4049.26   92.43
   2   1   1  661.41   20.39
   2  -1   1  638.15   25.25
   2  -1  -1  632.88   25.70
   2   1  -1  642.59   20.68
  -2   1   1  656.84   21.02
   2  -1   1  634.69   17.32
  -2  -1   1  659.72   21.63
   2   1   1  631.53   20.81
   2   2  -1 1215.83   36.75
   2   2   1 1354.97   33.90
   2  -2   1 1287.68   44.34
   2  -2  -1 1382.55   47.30
   2   2  -1 1343.28   33.81
  -2   2   1 1322.92   38.83
   2  -2   1 1320.07   35.96
  -2  -2   1 1299.27   38.57
   2   2  -1 1234.17   38.20
   2   2   1 1276.56   36.74
  -2  -3  -1 2411.94   55.54
   2   3  -1 2585.60   58.53
   2  -3   1 2569.00   77.41
   2  -3  -1 2611.65   78.05
   2   3  -1 2645.65   59.73
  -2  -3  -1 2608.29   60.17
  -2  -3   1 2668.88   73.05
   2  -3   1 2648.21   69.63
   2   3  -1 2728.45   72.38
   2   3   1 2658.95   69.90
   2  -4   1  264.85   20.68
   2   4  -1  207.35    8.51
   2  -4  -1  221.47   19.41
  -2  -4  -1  229.39   10.07
   2   4  -1  238.09    7.77
  -2  -4   1  228.97   18.00
   2  -4   1  265.69   17.82
   2   4  -1  243.80   15.57
   2   4   1  241.83   16.45
  -2   4  -1  219.94   14.73
   2  -5   1 1867.83   70.56
  -2  -5  -1 1879.30   49.07
   2  -5  -1 1965.59   70.40
   2   5  -1 1831.53   41.80
  -2  -5   1 1986.29   67.44
   2  -5   1 2040.76   65.69
   2   5  -1 1951.13   61.18
   2   5   1 1914.34   60.97
  -2   5  -1 1900.51   58.27
  -2   5   1 1881.97   61.86
   2  -6   1 1452.84   76.00
   2  -6  -1 1511.34   80.82
  -2  -6   1 1475.29   77.07
   2  -6   1 1485.78   74.97
   2   6  -1 1472.77   72.10
   2   6   1 1407.97   74.13
  -2   6  -1 1491.33   72.22
  -2   6   1 1460.62   73.34
   2  -7   1  438.59   33.10
   2  -7  -1  497.47   39.18
  -2  -7   1  452.72   35.93
   2  -7   1  442.38   32.94
   2   7  -1  455.68   30.78
   2   7   1  428.73   30.01
  -2   7  -1  433.44   31.91
  -2   7   1  402.24   29.93
   2  -8   1 2103.39  141.39
   2  -8  -1 2240.38  150.48
  -2  -8   1 2113.38  144.91
   2  -8   1 2035.94  136.21
   2   8  -1 2058.53  136.31
  -2   8  -1 2041.89  135.68
  -2   8   1 1755.97  132.19
   2  -9   1    7.00   11.45
   2  -9  -1   10.45    9.31
  -2  -9   1   21.66   14.67
   2   9  -1    8.32    8.32
   2   9   1    4.92   12.69
  -2   9  -1   13.32   11.63
  -2   9   1   15.52   11.55
   3   0   1    0.47    3.44
   3   0  -1    0.00    5.15
  -3   0   1    1.79    2.46
  -3   0  -1    1.77    0.80
   3   1   1  591.06   22.28
   3  -1   1  546.01   30.80
   3  -1  -1  585.49   28.92
   3   1  -1  561.43   23.74
  -3   1   1  551.99   18.22
  -3  -1   1  517.91   18.87
   3   2   1 1075.34   30.14
   3  -2   1 1100.25   44.31
   3  -2  -1 1023.71   42.51
   3   2  -1  973.13   30.58
  -3   2   1 1074.34   33.00
   3  -2   1 1027.23   27.65
  -3  -2   1 1041.21   33.31
   3   2   1 1051.42   34.79
   3   3  -1 1899.97   44.74
   3  -3   1 1916.39   67.91
   3   3  -1 1918.28   46.66
   3  -3  -1 1983.20   69.58
  -3  -3  -1 1981.59   46.96
   3  -3   1 1976.78   52.55
  -3  -3   1 2008.50   58.51
   3   3   1 1858.71   57.06
   3  -4   1 4174.13  120.92
   3  -4  -1 4268.80  124.17
  -3  -4   1 4341.50  113.33
   3  -4   1 4284.05  106.36
   3   4  -1 4363.76  114.16
   3   4   1 4405.11  112.49
   3  -5   1 1280.00   56.36
   3  -5  -1 1420.21   61.25
  -3  -5   1 1329.35   52.35
   3  -5   1 1459.69   50.76
   3   5  -1 1387.22   51.39
   3   5   1 1393.57   50.41
  -3   5  -1 1252.45   45.44
   3  -6   1  571.04  120.82
   3  -6  -1  607.03   45.97
  -3  -6   1  544.21   39.10
   3  -6   1  592.67   37.51
   3   6  -1  568.00   37.64
   3   6   1  532.03   35.40
  -3   6   1  488.00   34.72
   3  -7   1  121.58   65.57
   3  -7  -1  138.72   21.83
  -3  -7   1  106.97   19.99
   3  -7   1  150.27   18.53
   3   7  -1   83.70   58.64
   3   7   1  125.94   16.86
  -3   7  -1  102.50   15.04
  -3   7   1  118.55   18.53
   3  -8   1   87.43   35.80
   3  -8  -1  101.68   20.35
   3  -8   1   92.21   17.90
   3   8  -1   79.04   31.94
   3   8   1   73.18   49.71
  -3   8  -1  112.23   18.27
  -3   8   1   91.55   17.66
   4   0   1 1509.97   50.58
   4   0  -1 1501.09   54.33
  -4   0   1 1582.20   41.06
   4   1   1 3226.82   85.10
   4  -1   1 2967.50   88.72
   4   1  -1 2961.33   83.91
   4  -1  -1 2983.04   92.00
  -4   1   1 3057.57   72.38
  -4  -1   1 3140.31   76.35
  -4  -1  -1 2800.78   65.89
   4   2   1  708.61   24.22
   4  -2   1  640.19   36.96
   4   2  -1  653.77   27.05
   4  -2  -1  691.89   39.63
  -4   2   1  647.72   22.68
  -4  -2   1  710.42   26.36
   4   3   1  658.06   20.15
   4  -3   1  671.30   60.65
   4   3  -1  645.15   21.01
   4  -3  -1  733.54   42.41
   4  -3   1  653.54   20.78
  -4  -3   1  664.87   27.81
   4  -4   1  605.20   44.70
   4  -4  -1  689.14   49.36
   4  -4   1  626.31   31.59
  -4  -4   1  570.12   34.42
   4   4   1  652.15   38.20
   4  -5   1  435.03   37.04
   4  -5  -1  578.32   45.05
  -4  -5   1  478.63   32.89
   4  -5   1  511.12   29.75
   4   5  -1  449.94   31.67
   4   5   1  437.81   30.43
   4  -6   1   35.50   17.26
   4  -6  -1   48.15   16.97
  -4  -6   1   37.43   12.19
   4  -6   1   51.63   11.16
   4   6   1   35.83   25.24
  -4   6  -1   30.40    9.99
   4  -7   1 2014.87  141.31
   4  -7  -1 1922.21  148.08
  -4  -7   1 1801.61  135.73
  -4  -7  -1 1743.84  133.25
   4   7  -1 1913.83  142.55
   4   7   1 1777.91  133.93
  -4   7  -1 1723.70  127.59
  -4   7   1 1829.17  137.21
   4  -8   1  570.99   53.82
   4  -8  -1  624.66   58.74
  -4  -8   1  556.14   52.95
  -4  -8  -1  544.40   53.88
   4   8  -1  551.08   49.59
   4   8   1  537.50   48.75
  -4   8  -1  516.11   44.47
  -4   8   1  577.90   50.18
   5   0   1    5.03    4.39
   5   0  -1    7.67    8.41
  -5   0   1    1.42    2.35
   5   1   1 2181.38   65.75
   5  -1   1 1959.94   70.53
   5   1  -1 2142.35   68.73
   5  -1  -1 2276.61   80.90
  -5  -1   1 2060.42   52.82
   5   2   1   36.46   17.16
   5  -2   1   37.93   22.71
   5   2  -1   38.44    8.23
   5  -2  -1   45.48   12.37
  -5  -2   1   42.88    6.48
  -5  -2  -1   40.08    5.76
   5  -3   1  684.57   56.52
   5  -3  -1  708.21   49.67
  -5  -3   1  724.75   38.28
  -5  -3  -1  681.61   35.66
   5  -4   1 1977.99   92.03
   5  -4  -1 2210.32  100.44
   5  -5   1  166.08   65.46
   5  -5  -1  134.68   23.80
  -5  -5   1  153.55   17.93
  -5  -5  -1  140.75   18.67
   5  -6   1  518.46   53.70
   5  -6  -1  478.39   49.63
  -5  -6   1  448.25   41.87
  -5  -6  -1  494.93   46.16
   5   6   1  471.06   44.33
   5  -7   1   90.42   49.59
   5  -7  -1  143.29   24.90
  -5  -7   1   95.91   19.01
  -5  -7  -1  103.02   18.30
   5   7   1   84.55   71.11
  -5   7  -1  104.53   17.58
   6   0   1 1276.05   60.36
   6   0  -1 1293.13   62.28
   6   1   1   57.52   39.28
   6  -1   1   82.06   34.90
   6   1  -1   69.98   12.59
   6  -1  -1   54.36   13.22
   6  -2   1 1653.37   80.39
   6  -2  -1 1841.73   87.95
   6  -3   1  138.95   63.77
   6  -3  -1  179.48   26.73
   6  -4   1  261.70   33.94
   6  -4  -1  266.33   34.52
   6  -5   1  135.39   48.07
   6  -5  -1  160.48   26.14
   6  -6   1  977.28   81.82
   6  -6  -1  978.21   81.96
   7   0   1    1.51    8.77
   7   0  -1    2.04    4.71
   7  -1   1  886.26   75.88
   7  -1  -1  915.66   77.20
   7  -3   1  235.75   64.82
   7  -3  -1  247.48   33.08
   7  -4   1  215.49   33.78
   7  -4  -1  162.40  107.81
   0   0  -2 9999.00  218.13
   0   0   2 9292.98  204.62
   0  -1   2    2.56    2.12
   0  -1  -2    2.14    3.62
   0   1   2    8.17    3.94
   0  -1   2    5.81    5.24
   0  -1   2    4.28    2.73
   0  -2   2 5985.75  138.32
   0  -2  -2 5955.16  138.29
   0   2   2 6188.44  147.47
   0  -2   2 5805.90  137.61
   0   2  -2 6179.85  136.94
   0   2   2 6088.45  139.80
   0  -3   2    3.06    2.83
   0  -3  -2    4.12    4.91
   0   3   2    2.62    2.80
   0  -3   2    8.32    5.56
   0   3   2    1.91    3.60
   0  -4   2 4100.23  102.13
   0  -4  -2 3970.37  101.83
   0   4   2 3894.12  110.27
   0  -4   2 3798.76  103.16
   0   4  -2 3979.81   98.09
   0   4   2 4024.36  103.35
   0  -5   2    1.14    4.41
   0  -5  -2    1.64    5.10
   0  -5   2    0.93    7.85
   0   5  -2    0.00    2.61
   0   5   2    3.84    6.82
   0  -6   2 1936.83   86.93
   0  -6  -2 1865.22   88.81
   0  -6   2 1828.12   90.99
   0   6  -2 1857.10   85.69
   0   6   2 1837.61   87.99
   0  -7   2    4.20    4.84
   0  -7   2    8.15    9.55
   0   7  -2    2.54    3.10
   0   7   2    5.37    7.75
   0  -8   2 1229.55   99.30
   0   8  -2 1208.03   93.45
   0   8   2 1139.71   90.15
   0  -9   2    7.54   13.35
   0   9  -2    6.19    5.21
   0   9   2    5.71   10.70
   1   0   2    1.93    1.66
   1   0  -2    1.66    3.49
   1   0   2    4.17    3.65
  -1   0   2   -0.88    3.18
  -1   0  -2    1.24    0.64
   1  -1  -2 7896.67  180.14
   1   1  -2 7943.73  178.21
   1   1   2 7437.11  170.23
  -1   1   2 7777.59  177.90
   1  -1   2 7666.92  173.27
  -1  -1   2 7747.57  176.55
   1   1   2 8046.89  177.24
   1  -2   2 3083.11   79.16
   1  -2  -2 3056.62   79.18
  -1  -2  -2 3141.77   76.98
   1   2  -2 3102.94   74.84
   1   2   2 3143.09   83.23
  -1   2   2 3179.45   82.32
   1  -2   2 3156.02   79.97
  -1  -2   2 3159.38   81.80
   1   2   2 3163.02   76.94
  -1   2  -2 3247.55   73.98
  -1  -3   2 2414.47   64.25
   1  -3   2 2498.79   69.59
   1  -3  -2 2480.07   69.85
  -1  -3  -2 2530.01   64.66
   1   3   2 2521.02   74.92
   1  -3   2 2530.59   70.19
  -1  -3   2 2436.82   69.61
   1   3  -2 2459.44   64.45
   1   3   2 2489.21   66.28
  -1   3  -2 2541.87   63.14
   1  -4   2 1783.47   57.02
   1  -4  -2 1618.24   54.44
  -1  -4  -2 1678.38   48.38
  -1   4   2 1613.95   56.87
   1  -4   2 1658.37   55.42
  -1  -4   2 1617.41   55.78
   1   4  -2 1693.21   49.99
   1   4   2 1606.89   50.52
  -1   4  -2 1673.01   47.88
  -1   4   2 1630.29   53.04
  -1  -5   2  503.52   20.75
   1  -5   2  521.51   81.79
   1  -5  -2  501.01   29.37
  -1  -5  -2  491.60   24.30
  -1  -5   2  441.87   29.13
   1  -5   2  490.44   28.82
   1   5  -2  470.32   23.19
   1   5   2  460.56   26.26
  -1   5  -2  470.72   23.00
  -1   5   2  432.25   25.64
  -1  -6   2  207.06   20.57
   1  -6   2  233.42   22.03
   1  -6  -2  201.77   21.39
  -1  -6  -2  209.47   18.71
  -1  -6   2  229.59   23.40
   1  -6   2  208.89   22.07
   1   6  -2  226.14   20.72
   1   6   2  228.40   20.35
  -1   6  -2  166.95   16.49
  -1   6   2  206.87   21.18
   1  -7   2  307.15   30.43
   1  -7  -2  364.89   30.93
  -1  -7  -2  321.46   24.43
  -1  -7   2  312.84   29.72
   1  -7   2  356.06   30.53
   1   7  -2  329.44   25.98
  -1   7  -2  333.66   66.59
   1   7   2  317.06   26.12
  -1   7   2  316.32   27.91
   1  -8   2  111.99   18.14
   1  -8  -2   89.94   19.25
   1  -8   2  113.10   23.98
  -1  -8   2   81.30   18.48
   1   8  -2   88.27   41.08
  -1   8  -2   71.59   35.45
   1   8   2  102.20   40.00
  -1   8   2   70.86   15.55
   1  -9   2  362.09   39.32
  -1  -9   2  371.74   41.54
   1   9  -2  408.64   39.82
  -1   9  -2  399.08   55.68
   1   9   2  420.80   41.59
  -1   9   2  463.98   47.13
   2   0   2 2376.73   63.16
   2   0  -2 2249.93   60.44
   2   0   2 2304.82   58.83
  -2   0   2 2267.56   59.67
   2   1   2 5356.35  125.13
   2  -1   2 5115.08  125.61
   2  -1  -2 5034.08  122.83
   2   1  -2 5211.55  121.88
   2   1   2 5044.52  120.11
  -2   1   2 5175.10  122.36
   2  -1   2 5126.37  117.88
  -2  -1   2 5072.31  120.66
   2   1   2 5229.29  120.58
   2  -2  -2 2318.37   67.28
   2   2  -2 2314.25   58.91
  -2  -2  -2 2307.35   58.82
   2   2   2 2349.38   68.05
  -2   2   2 2359.75   64.51
   2  -2   2 2401.34   62.39
  -2  -2   2 2264.29   62.71
   2   2   2 2241.89   57.76
   2  -3   2  697.32   32.22
   2  -3  -2  621.51   30.40
  -2  -3  -2  639.05   22.28
   2   3  -2  627.10   21.20
  -2   3   2  667.33   29.40
   2  -3   2  636.32   26.15
  -2  -3   2  634.50   28.03
   2   3  -2  618.98   25.44
   2   3   2  630.61   24.98
  -2   3  -2  646.23   22.87
   2  -4   2 1018.40   42.62
   2  -4  -2  990.59   43.06
  -2  -4  -2  954.28   30.24
   2   4  -2  975.59   28.82
  -2   4   2  919.79   39.61
   2  -4   2 1018.05   38.55
  -2  -4   2  947.09   39.29
   2   4  -2 1031.58   37.59
   2   4   2 1024.85   37.54
  -2   4  -2  998.60   33.68
   2  -5   2 1404.51   56.02
   2  -5  -2 1403.54   58.26
  -2  -5  -2 1353.96   40.71
   2   5  -2 1405.25   38.25
   2  -5   2 1399.04   52.24
  -2  -5   2 1333.06   52.51
   2   5  -2 1353.57   49.28
   2   5   2 1423.23   50.17
  -2   5  -2 1420.11   46.69
   2  -6   2  243.78   60.89
   2  -6  -2  203.46   23.98
   2  -6   2  184.40   21.97
  -2  -6   2  196.90   23.56
   2   6  -2  208.80   25.81
   2   6   2  214.64   20.54
  -2   6  -2  176.15   17.08
  -2   6   2  198.97   22.12
   2  -7  -2  843.54   52.00
  -2  -7   2  817.36   52.08
   2  -7   2  811.18   47.33
   2   7  -2  891.90   47.88
   2   7   2  857.34   46.74
  -2   7  -2  807.72   43.07
  -2   7   2  817.82   47.59
   2  -8   2  917.53   78.41
   2  -8  -2 1006.39   85.85
   2  -8   2  847.69   72.79
  -2  -8   2  880.76   78.18
   2   8  -2  872.52   79.29
   2   8   2  825.37   69.35
  -2   8  -2  916.88   74.92
  -2   8   2  831.70   70.17
   3   0   2    6.59    4.70
   3   0   2    1.98    1.77
  -3   0   2    2.96    4.91
   3   1   2 2156.40   59.25
   3  -1   2 2420.92   71.68
   3  -1  -2 2245.62   68.61
   3   1  -2 2148.75   60.19
   3   1   2 2306.08   63.51
  -3   1   2 2261.53   60.72
   3  -1   2 2297.63   57.21
  -3  -1   2 2263.26   61.31
   3   2   2 3798.40   92.67
   3  -2   2 3555.52  100.62
   3  -2  -2 3688.10  103.68
   3   2  -2 3663.91   90.45
  -3   2   2 3637.47   92.14
   3  -2   2 3635.46   87.06
  -3  -2   2 3556.62   91.45
   3   2   2 3552.69   89.10
   3  -3  -2 2450.86   80.51
   3   3  -2 2489.91   62.21
  -3  -3  -2 2610.01   65.25
  -3   3   2 2407.86   70.43
   3  -3   2 2494.40   65.64
  -3  -3   2 2443.19   70.41
   3   3   2 2624.68   72.15
   3  -4   2 1837.42   67.78
   3  -4  -2 1848.26   69.13
  -3  -4  -2 1824.77   48.20
  -3   4   2 2004.77   64.32
   3  -4   2 1920.75   57.26
  -3  -4   2 1870.27   61.81
   3   4   2 1967.90   59.90
   3  -5   2  383.58   32.26
   3  -5  -2  398.28   34.40
   3  -5   2  399.26   27.12
  -3  -5   2  419.77   31.25
   3   5  -2  450.20   31.35
   3   5   2  404.22   27.33
  -3   5  -2  420.59   26.71
   3  -6   2 1162.61   63.21
   3  -6  -2 1124.41   64.61
   3  -6   2 1229.10   57.23
  -3  -6   2 1170.44   59.12
   3   6  -2 1196.95   57.95
   3   6   2 1114.26   53.70
  -3   6  -2 1141.17   51.74
   3  -7   2  286.16   34.82
   3  -7  -2  294.77   37.12
   3  -7   2  276.40   30.95
  -3  -7   2  302.24   34.40
   3   7  -2  284.42   54.25
   3   7   2  266.44   29.08
  -3   7  -2  271.69   29.14
  -3   7   2  286.14   32.60
   3  -8   2   88.78   52.38
   3  -8   2   91.81   18.48
  -3  -8   2  120.74   21.92
   3   8  -2   77.83   50.07
  -3   8  -2  106.15   17.64
  -3   8   2   80.34   17.40
   4   0   2 7431.85  177.82
   4   0  -2 7412.66  181.76
  -4   0   2 7709.38  308.18
   4   1   2  451.57   22.07
   4  -1   2  504.42   38.92
   4  -1  -2  496.29   29.80
   4   1  -2  480.82   24.95
   4  -1   2  465.61   14.91
  -4   1   2  468.37   19.93
  -4  -1   2  480.48   21.50
   4   2   2 1184.37   37.91
   4  -2   2 1240.89   51.89
   4  -2  -2 1230.39   53.35
   4   2  -2 1177.02   41.05
  -4   2   2 1212.63   39.39
   4  -2   2 1190.58   31.80
  -4  -2   2 1230.31   41.14
   4   3   2 1087.29   32.88
   4  -3   2 1122.83   60.81
   4  -3  -2 1067.07   51.89
   4   3  -2 1086.07   35.87
  -4   3   2 1128.29   40.63
   4  -3   2 1092.42   33.05
  -4  -3   2 1067.86   39.65
   4   3   2 1047.35   39.26
   4  -4   2  283.80   39.37
   4  -4  -2  372.22   35.29
   4  -4   2  319.20   20.14
  -4  -4   2  339.06   26.47
   4   4   2  308.63   22.89
   4  -5   2  309.24   45.74
   4  -5  -2  315.74   33.66
   4  -5   2  293.96   19.88
  -4  -5   2  292.43   24.66
   4   5   2  318.63   24.51
   4  -6   2  926.16   57.45
   4  -6  -2  933.96   60.14
  -4  -6   2 1020.73   55.15
   4   6   2 1025.16   53.41
  -4   6  -2  869.74   43.97
   4  -7   2   44.89   21.34
   4  -7  -2   57.27   18.17
  -4  -7   2   51.73   15.89
   4   7  -2   41.21   11.81
   4   7   2   52.95   23.82
  -4   7  -2   60.09   14.68
  -4   7   2   48.09   14.33
   5   0   2    1.59    5.39
   5   0  -2    4.00    7.35
  -5   0   2    1.42    2.83
   5   1   2  500.85   30.54
   5  -1   2  537.05   39.00
   5  -1  -2  527.32   39.15
   5   1  -2  498.80   34.47
  -5   1   2  492.77   26.20
  -5  -1   2  551.96   29.80
   5   2   2  285.65   19.80
   5  -2   2  290.44   27.71
   5  -2  -2  328.24   30.80
   5   2  -2  284.33   22.21
  -5   2   2  285.00   18.85
  -5  -2   2  273.15   19.19
   5  -3   2 1912.16   99.20
   5  -3  -2 2046.15  106.23
  -5   3   2 1857.68   82.91
  -5  -3   2 1955.65   88.09
   5  -4   2  914.36   55.38
   5  -4  -2  928.95   58.96
  -5  -4   2  868.26   43.43
   5  -5   2   86.87   47.11
   5  -5  -2   84.36   21.97
  -5  -5   2  116.80   17.10
   5   5   2   87.06   15.44
   5  -6   2 1065.27   91.37
   5  -6  -2 1231.77  104.58
  -5  -6   2  986.15   80.48
   5   6   2 1108.74   88.48
  -5   6  -2  953.86   75.08
   5  -7   2  294.62   39.16
   5  -7  -2  277.23   38.94
  -5  -7   2  236.37   30.74
   6   0   2 1736.01   76.01
   6   0  -2 1626.53   76.75
   6   1   2 1208.22   54.51
   6  -1   2 1232.41   63.22
   6   1  -2 1185.08   59.28
   6  -1  -2 1152.83   63.34
   6  -2   2  143.87   68.92
   6  -2  -2  156.98   26.20
   6  -3   2  566.23   55.50
   6  -3  -2  528.93   54.22
   6  -4   2  377.13   44.05
   6  -4  -2  474.98   51.73
   6  -5   2 1018.45   83.38
   6  -5  -2 1055.11   86.61
  -6  -5   2  951.62   68.87
   7   0   2    0.48    5.08
   7   0  -2    0.88   10.36
   7  -1  -2   37.35   13.37
   7  -2  -2 1275.00   97.56
   7  -3   2  118.95   77.76
   7  -3  -2  176.47   29.58
   0   0  -3    2.14    4.21
   0   0   3    3.41    4.36
   0  -1   3 4358.77  106.44
   0  -1  -3 4683.76  114.39
   0   1   3 4486.88  114.00
   0  -1   3 4531.16  111.86
   0  -1   3 4279.05   94.68
   0  -2   3    2.40    1.66
   0  -2  -3    1.27    4.31
   0   2   3    1.62    3.44
   0   2   3    3.28    3.99
   0  -3   3  819.58   31.43
   0  -3  -3  756.34   30.82
   0   3   3  796.69   36.03
   0  -3   3  857.73   35.77
   0   3  -3  795.19   25.15
   0   3   3  773.80   29.34
   0  -4   3    3.49    4.78
   0  -4  -3    3.51    4.83
   0   4   3    5.89    6.47
   0  -4   3   10.47   11.02
   0   4  -3    6.69    3.47
   0   4   3    4.17    6.18
   0  -5   3  734.93   31.70
   0  -5  -3  653.64   31.64
   0   5   3  727.66   41.90
   0  -5   3  686.55   36.32
   0   5  -3  734.91   28.79
   0   5   3  745.00   34.47
   0  -6   3    0.21    6.39
   0  -6   3    0.10    8.62
   0   6  -3    4.15    4.44
   0   6   3   -0.14    6.37
   0  -7   3 3516.49  128.86
   0  -7  -3 3636.83  138.24
   0  -7   3 3572.62  141.13
   0   7  -3 3578.14  128.59
   0   7   3 3510.46  133.32
   0  -8  -3   -0.74    9.52
   0  -8   3   11.64   19.40
   0   8  -3    3.80    9.67
   0   8   3   -3.06    9.89
   1   0   3   -0.27    2.49
   1   0  -3   10.10    6.24
   1   0   3    3.72    4.20
  -1   0   3   -2.36    3.86
   1   0   3    2.69    1.33
   1  -1   3  675.74   27.39
   1  -1  -3  658.24   27.18
   1   1  -3  649.15   25.27
  -1  -1  -3  647.64   25.33
   1   1   3  697.74   28.34
  -1   1   3  731.86   29.43
   1  -1   3  707.57   27.10
  -1  -1   3  698.63   27.99
   1   1   3  714.23   21.31
   1  -2   3 2138.66   62.90
   1  -2  -3 2099.42   62.18
  -1  -2  -3 2067.53   58.14
   1   2  -3 2106.93   58.37
   1   2   3 2226.35   66.22
  -1   2   3 2142.65   63.96
   1  -2   3 2152.03   62.26
  -1  -2   3 2127.89   62.90
   1   2   3 2210.88   57.76
  -1  -3   3  776.52   28.84
   1  -3   3  841.24   34.08
   1  -3  -3  862.09   35.35
  -1  -3  -3  912.54   33.44
   1   3   3  925.68   44.87
  -1   3   3  894.57   38.84
   1  -3   3  931.99   37.11
  -1  -3   3  920.10   37.84
  -1   3  -3  877.70   24.61
   1   3   3  886.81   31.72
  -1  -4   3 5955.48  141.47
   1  -4   3 5923.73  147.76
   1  -4  -3 5895.62  147.87
  -1  -4  -3 6097.95  146.52
   1   4   3 5823.95  155.19
  -1   4   3 6110.14  157.25
   1  -4   3 5889.12  149.96
  -1  -4   3 5988.76  153.97
   1   4  -3 6023.98  146.83
  -1   4  -3 5669.95  129.71
   1   4   3 5970.17  144.88
  -1   4   3 6222.62  153.94
  -1  -5   3  664.03   35.22
   1  -5   3  667.07   39.71
   1  -5  -3  677.99   43.20
  -1  -5  -3  707.44   31.48
  -1   5   3  636.96   42.07
   1  -5   3  629.58   40.19
  -1  -5   3  703.81   39.21
   1   5  -3  713.49   38.63
  -1   5  -3  661.99   34.27
   1   5   3  686.21   32.04
  -1   5   3  679.20   40.64
  -1  -6   3  162.14   14.43
   1  -6   3  165.15   20.39
   1  -6  -3  188.97   23.59
  -1  -6  -3  177.42   18.25
   1  -6   3  201.06   23.08
  -1  -6   3  213.45   24.83
   1   6  -3  184.80   24.67
  -1   6  -3  179.70   16.15
   1   6   3  181.04   19.06
  -1   6   3  177.39   19.78
   1  -7   3   21.50   12.53
   1  -7  -3   20.20    9.78
  -1  -7  -3   30.56   11.85
   1  -7   3   11.52   13.72
  -1  -7   3   37.97   14.36
   1   7  -3   19.51   15.25
  -1   7  -3   23.35   14.83
   1   7   3   37.39   17.69
  -1   7   3   20.96    8.60
   1  -8   3    4.50    8.09
   1  -8  -3   11.97   11.47
   1  -8   3    1.05   10.00
  -1  -8   3   10.21   11.85
   1   8  -3    2.48    7.38
  -1   8  -3    8.57    6.37
   1   8   3    5.82    5.48
  -1   8   3    6.79   10.60
   2   0   3 1806.45   54.46
   2   0  -3 1757.50   53.70
   2   0   3 1741.33   52.69
  -2   0   3 1697.34   51.97
   2   1   3  234.37   14.56
   2  -1   3  250.33   16.95
   2  -1  -3  228.73   16.12
   2   1  -3  207.21   13.96
   2   1   3  219.56   15.04
  -2   1   3  211.81   19.62
   2  -1   3  209.68   13.82
  -2  -1   3  234.79   15.34
   2   1   3  212.66    9.94
   2  -2   3 2278.30   69.02
   2  -2  -3 2317.66   70.48
   2   2  -3 2314.10   63.63
  -2  -2  -3 2360.43   64.72
   2   2   3 2258.95   68.40
  -2   2   3 2335.16   68.21
   2  -2   3 2406.97   66.96
  -2  -2   3 2292.05   67.45
   2   2   3 2396.90   61.54
  -2   2  -3 2272.83   51.61
   2  -3   3 1339.10   49.28
   2  -3  -3 1377.25   50.58
  -2  -3  -3 1355.15   42.48
   2   3  -3 1372.98   41.99
   2   3   3 1325.38   51.44
  -2   3   3 1339.92   48.46
   2  -3   3 1285.05   44.21
  -2  -3   3 1388.02   49.25
   2   3   3 1340.91   41.98
  -2   3  -3 1307.59   34.85
   2  -4   3  452.29   27.76
   2  -4  -3  449.19   28.82
  -2  -4  -3  436.30   21.95
   2   4  -3  436.67   20.47
   2   4   3  473.36   30.77
  -2   4   3  408.59   27.28
   2  -4   3  440.42   26.04
  -2  -4   3  422.15   27.13
   2   4   3  382.29   42.44
  -2   4  -3  439.26   18.37
   2  -5   3 1587.06   80.40
   2  -5  -3 1477.14   78.23
  -2  -5  -3 1526.90   70.22
   2   5  -3 1572.29   69.92
   2  -5   3 1454.29   72.92
  -2  -5   3 1568.40   80.74
   2   5  -3 1575.45   75.30
   2   5   3 1443.85   70.83
  -2   5  -3 1473.80   66.78
  -2   5   3 1513.70   75.85
   2  -6   3 1467.25   69.10
   2  -6  -3 1540.24   75.08
   2  -6   3 1465.42   68.21
  -2  -6   3 1443.43   71.40
   2   6  -3 1491.13   64.98
   2   6   3 1399.44   63.00
  -2   6  -3 1508.41   60.60
  -2   6   3 1448.91   67.63
   2  -7   3  626.81   56.24
   2  -7  -3  555.19   53.33
   2  -7   3  646.52   58.14
  -2  -7   3  608.27   57.40
   2   7  -3  589.85   50.63
   2   7   3  541.22   49.02
  -2   7  -3  517.40   44.25
  -2   7   3  555.13   50.62
   2  -8   3  622.76   54.73
   2  -8  -3  687.56   62.61
   2  -8   3  643.72   55.65
  -2  -8   3  649.19   58.91
   2   8  -3  562.67   48.14
   2   8   3  613.61   52.93
  -2   8   3  597.20   51.66
   3   0   3    2.07    3.94
   3   0  -3   21.33    6.05
   3   0   3    6.51    7.11
  -3   0   3    3.84    4.55
   3   1   3 1278.51   43.28
   3  -1   3 1287.43   47.00
   3  -1  -3 1278.35   47.21
   3   1  -3 1274.68   43.39
   3   1   3 1250.84   43.83
  -3   1   3 1225.67   42.81
   3  -1   3 1305.74   40.87
  -3  -1   3 1263.73   42.59
   3   2   3 2887.50   75.91
   3  -2   3 2750.05   84.04
   3  -2  -3 2764.58   84.38
   3   2  -3 2820.52   75.56
   3   2   3 2910.18   83.27
  -3   2   3 2878.19   79.34
   3  -2   3 2884.37   75.08
  -3  -2   3 2957.82   82.17
   3   2   3 2917.37   75.21
   3  -3   3  360.10   26.36
   3  -3  -3  393.20   28.66
   3   3  -3  410.33   20.30
  -3  -3  -3  402.32   20.36
   3   3   3  437.43   28.31
  -3   3   3  458.84   25.75
   3  -3   3  420.12   21.76
  -3  -3   3  388.32   23.48
   3  -4   3  181.23   51.39
   3  -4  -3  164.79   21.39
   3   4  -3  155.13   12.96
  -3  -4  -3  169.55   14.41
  -3   4   3  188.26   50.99
   3  -4   3  156.66   15.59
  -3  -4   3  159.53   18.51
   3   4   3  147.76   20.83
  -3   4  -3  141.49   11.81
   3  -5   3  618.37   52.80
   3  -5  -3  734.38   51.27
  -3   5   3  743.48   47.37
  -3  -5   3  655.57   43.35
   3   5   3  689.75   41.05
  -3   5  -3  670.93   36.82
   3  -6   3  958.23   57.26
   3  -6  -3 1033.30   60.23
   3  -6   3 1006.29   51.39
  -3  -6   3 1024.43   57.34
   3   6   3  979.71   50.34
  -3   6  -3  875.48   42.07
   3  -7   3  120.19   31.56
   3  -7  -3  159.00   26.28
   3  -7   3  165.39   22.77
  -3  -7   3  104.51   20.64
   3   7  -3  140.64   20.94
   3   7   3  142.36   62.60
  -3   7   3  140.81   21.10
   3  -8   3  280.29   95.76
   3  -8  -3  297.82   41.27
   3  -8   3  291.71   33.57
  -3  -8   3  258.90   33.12
   3   8  -3  282.03   31.46
   3   8   3  311.07   33.92
  -3   8   3  235.47   30.72
   4   0   3 2636.90   78.47
   4   0  -3 2809.55   84.34
   4   0   3 2669.60   70.62
  -4   0   3 2679.16   74.44
   4   1   3  877.72   44.97
   4  -1   3  833.76   38.31
   4  -1  -3  885.76   41.72
   4   1   3  916.91   35.66
   4  -1   3  883.32   29.84
  -4   1   3  883.59   79.44
  -4  -1   3  957.62   36.51
   4   2   3  578.53   32.86
   4  -2   3  554.87   38.28
   4  -2  -3  556.87   39.00
   4   2  -3  601.45   35.21
  -4   2   3  533.21   31.14
   4  -2   3  618.19   31.77
  -4  -2   3  554.03   33.02
   4  -3   3 1322.35   71.77
   4  -3  -3 1261.52   71.33
   4   3  -3 1336.38   62.24
  -4  -3  -3 1348.60   62.86
   4  -3   3 1335.40   61.10
  -4  -3   3 1295.89   64.64
   4   3   3 1325.58   62.98
   4  -4   3  226.72   51.21
   4  -4  -3  345.09   34.03
  -4  -4  -3  313.74   20.43
  -4   4   3  309.96   33.78
   4  -4   3  326.93   22.42
  -4  -4   3  290.36   24.99
   4   4   3  290.36   22.36
   4  -5   3 1942.22   92.19
   4  -5  -3 1907.52   93.00
  -4  -5   3 1895.27   81.98
   4   5   3 1767.00   73.25
   4  -6   3   92.63   34.55
   4  -6  -3  110.64   22.02
  -4  -6   3  118.02   18.95
   4   6   3   50.33   38.84
   4  -7   3  224.27   98.09
   4  -7  -3  243.15   34.00
  -4  -7   3  229.10   29.95
   4   7   3  218.21   78.76
  -4   7   3  249.57   31.49
   5   0   3    6.66    6.24
   5   0  -3   10.44    9.43
  -5   0   3    0.72    2.44
   5   1   3  184.21   18.16
   5  -1   3  145.91   41.85
   5  -1  -3  159.89   20.65
   5   1  -3  144.17   17.58
  -5   1   3  172.03   15.05
  -5  -1   3  154.50   14.83
   5   2   3  823.90   39.10
   5  -2   3  833.54   48.91
   5  -2  -3  747.20   47.33
   5   2  -3  828.10   42.65
  -5   2   3  823.63   38.31
   5  -3   3 1131.50   61.66
   5  -3  -3 1730.96   84.68
  -5   3   3 1360.28   58.05
  -5  -3   3 1542.57   64.51
   5  -4   3   58.63   30.16
   5  -4  -3   74.64   17.61
  -5   4   3   64.40   12.37
  -5  -4   3   86.11   14.35
   5  -5   3  100.94   74.02
   5  -5  -3  215.68   32.79
  -5  -5   3  176.63   23.14
   5  -6   3  857.39   73.68
   5  -6  -3  987.52   83.20
  -5  -6   3  898.16   69.55
   5   6   3  878.28   66.18
   6   0  -3 3644.82  233.25
   6   1   3  107.60   50.34
   6  -1   3   82.56   52.05
   6   1  -3  117.97   20.60
   6  -1  -3  118.17   20.73
   6  -2   3   32.54   24.69
   6  -2  -3   60.17   21.18
   6  -3  -3  370.76   45.29
   6  -4  -3   17.48   17.37
  -6  -4   3    9.71    6.77
   6  -5   3   92.34   98.74
   6  -5  -3  128.09   26.63
  -6  -5   3   91.34   18.24
   7   0   3    8.89    9.91
   7   0  -3   -3.47    9.88
   7  -1   3  244.95   31.48
   7  -1  -3  280.32   35.59
   7  -2   3  529.14   50.81
   7  -2  -3  598.36   58.63
   0   0  -4 4179.70  107.89
   0   0   4 4266.76  111.88
   0  -1  -4    0.90    5.36
   0   1  -4    4.15    5.85
   0   1   4    2.38    3.91
   0  -1   4    4.52    5.84
   0  -1   4    0.60    0.68
   0   1   4    1.96    2.43
   0  -2   4 4291.46  109.55
   0  -2  -4 4494.68  115.87
   0   2   4 4224.62  113.62
   0  -2   4 4426.65  116.69
   0   2   4 4581.08  109.59
   0  -3   4    1.80    3.52
   0  -3  -4   13.82   10.08
   0   3   4    0.71    7.88
   0  -3   4   20.38    7.49
   0   3   4    4.37    4.42
   0  -4   4 1006.39   52.45
   0  -4  -4 1060.88   56.55
   0   4   4  993.10   58.11
   0  -4   4 1054.85   58.24
   0   4   4  993.86   51.07
   0  -5   4    1.77    3.35
   0  -5  -4   -5.53    8.85
   0   5   4    4.34    7.51
   0  -5   4   12.98   12.16
   0   5  -4    4.18    5.18
   0   5   4    4.62    8.14
   0  -6   4 1823.41   74.97
   0  -6  -4 1968.32   83.52
   0  -6   4 1976.96   90.15
   0   6  -4 1581.51   61.42
   0   6   4 1842.76   79.36
   0  -7   4    2.91    3.59
   0  -7  -4    0.37    9.76
   0  -7   4   18.46   16.97
   0   7   4    8.70   11.36
   0  -8   4  102.45   24.85
   0   8   4   69.32   16.00
   1   0  -4    1.77    5.69
   1   0   4    0.64    4.13
  -1   0   4    2.91    6.30
   1  -1   4 3880.99  101.71
   1  -1  -4 3735.39  100.33
   1   1  -4 3998.48  102.95
  -1  -1  -4 3910.35  101.70
   1   1   4 3921.56  104.69
  -1   1   4 3630.33   98.66
   1  -1   4 3845.53  101.38
  -1  -1   4 3949.77  105.03
   1   1   4 3892.73   88.93
   1  -2   4 1036.32   40.68
   1  -2  -4 1082.35   43.02
  -1  -2  -4 1010.57   38.21
   1   2  -4 1048.75   38.84
   1   2   4 1069.65   44.15
  -1   2   4 1022.23   41.90
   1  -2   4 1043.49   40.77
  -1  -2   4  974.53   40.72
   1   2   4 1027.30   32.22
   1  -3   4  963.64   49.55
   1  -3  -4  914.84   40.13
  -1  -3  -4  938.00   38.17
   1   3  -4  818.66   33.92
   1   3   4  944.48   43.64
  -1   3   4  917.08   42.04
   1  -3   4  919.89   39.76
  -1  -3   4  943.34   41.83
   1   3   4  950.48   33.94
   1  -4   4 1094.46   58.06
   1  -4  -4 1217.65   64.50
  -1  -4  -4 1114.79   57.23
   1   4  -4 1115.82   55.12
   1   4   4 1197.38   65.81
  -1   4   4 1141.44   63.29
   1  -4   4 1104.95   59.57
  -1  -4   4 1171.21   63.35
   1   4   4 1133.26   55.75
  -1   4   4 1113.07   57.58
  -1  -5   4  261.04   21.47
   1  -5   4  239.50   22.55
   1  -5  -4  264.82   25.73
  -1  -5  -4  259.86   23.11
   1   5   4  245.31   26.18
  -1   5   4  268.81   26.80
   1  -5   4  289.65   25.93
  -1  -5   4  287.51   27.92
   1   5   4  240.21   21.21
  -1   5   4  244.71   22.39
  -1  -6   4   39.73    8.72
   1  -6   4   38.78   35.37
   1  -6  -4   61.71   13.78
  -1  -6  -4   71.12   14.20
  -1   6   4   70.38   17.18
   1  -6   4   89.54   19.69
  -1  -6   4   55.65   15.84
   1   6  -4   61.15   10.34
   1   6   4   54.96   11.16
  -1   6   4   63.66   12.98
   1  -7   4  300.54   33.33
   1  -7  -4  267.50   32.88
  -1  -7  -4  265.43   30.99
   1  -7   4  270.13   33.20
  -1  -7   4  328.11   38.65
   1   7  -4  172.38   20.54
   1   7   4  276.91   30.54
  -1   7   4  273.28   31.97
   1  -8   4   23.56   45.53
   1  -8  -4   41.48   19.80
   1  -8   4   46.40   16.98
  -1  -8   4   52.98   20.47
   1   8   4   45.85   36.75
  -1   8   4   43.91   19.59
   2   0   4 3009.90   84.09
   2   0  -4 3007.15   85.07
   2   0   4 3057.35   84.83
  -2   0   4 3083.15   87.01
   2  -1   4 2592.85   77.46
   2  -1  -4 2621.98   78.46
   2   1  -4 2639.32   75.96
   2   1   4 2541.91   75.55
  -2   1   4 2812.02   81.56
   2  -1   4 2582.07   74.32
  -2  -1   4 2598.35   76.65
   2   1   4 2538.23   62.21
   2  -2   4 1313.89   51.00
   2  -2  -4 1303.29   50.86
   2   2  -4 1245.58   44.44
  -2  -2  -4 1214.21   43.27
   2   2   4 1390.00   52.37
  -2   2   4 1267.93   48.17
   2  -2   4 1343.02   47.80
  -2  -2   4 1360.28   50.07
   2   2   4 1308.30   37.91
   2  -3   4   79.04   35.69
   2  -3  -4   75.37   13.14
  -2  -3  -4   85.97   11.26
   2   3  -4   81.93   10.71
   2   3   4   91.61   40.92
  -2   3   4   94.27   37.35
   2  -3   4   84.50   11.92
  -2  -3   4   69.98   11.36
   2   3   4   72.62   16.50
   2  -4   4  152.20   39.21
   2  -4  -4  130.57   19.77
  -2  -4  -4  121.35   13.94
   2   4  -4  133.17   13.85
   2   4   4  161.87   61.55
  -2   4   4  128.49   53.29
   2  -4   4  133.91   16.32
  -2  -4   4  153.23   19.30
   2   4   4  127.93   13.48
   2  -5   4  489.78  115.82
   2  -5  -4  450.02   34.08
  -2  -5  -4  364.47   25.75
   2   5  -4  425.46   25.85
  -2   5   4  417.63   33.97
   2  -5   4  366.74   28.82
  -2  -5   4  414.72   32.12
   2   5   4  374.73   33.02
  -2   5   4  397.38   30.24
   2  -6   4  164.89   39.50
   2  -6  -4  189.39   27.34
  -2  -6  -4  169.78   21.71
  -2   6   4  141.05   23.35
   2  -6   4  160.60   23.10
  -2  -6   4  198.17   30.14
   2   6   4  158.44   19.96
  -2   6   4  173.24   23.90
   2  -7   4  944.55   73.29
   2  -7  -4  981.35   78.17
   2  -7   4  925.17   72.34
  -2  -7   4  981.96   78.15
   2   7   4  901.01   68.26
  -2   7   4  876.62   68.87
   3   0   4    1.56    4.89
   3   0  -4    4.39    8.77
   3   0   4    1.93    5.55
  -3   0   4    6.10    7.21
   3   1   4  700.46   46.47
   3  -1   4  723.83   35.75
   3  -1  -4  789.18   38.04
   3   1  -4  703.84   33.07
  -3   1   4  776.87   35.26
   3  -1   4  772.74   32.99
  -3  -1   4  772.23   35.71
   3  -2   4 1559.07   78.33
   3  -2  -4 1484.07   75.19
   3   2  -4 1462.02   69.77
  -3  -2  -4 1542.31   72.94
   3   2   4 1502.62   74.42
  -3   2   4 1573.74   76.37
   3  -2   4 1514.62   71.33
  -3  -2   4 1471.05   72.34
   3   2   4 1535.22   67.68
   3  -3   4 1645.09   88.88
   3  -3  -4 1719.57   87.03
   3   3  -4 1817.94   83.15
  -3  -3  -4 1763.45   81.59
   3   3   4 1700.62   85.57
  -3   3   4 1639.33   80.90
   3  -3   4 1730.81   80.60
  -3  -3   4 1783.63   86.16
   3   3   4 1725.67   76.88
   3  -4   4 1695.98   78.12
   3  -4  -4 1830.74   83.84
   3   4  -4 1788.97   69.71
  -3  -4  -4 1852.34   73.47
   3   4   4 1785.37   81.69
  -3   4   4 1747.69   76.57
  -3  -4   4 1742.72   75.83
   3   4   4 1696.83   66.86
   3  -5   4  312.39   34.21
   3  -5  -4  392.92   35.21
  -3  -5  -4  387.58   25.64
  -3   5   4  378.67   30.86
   3  -5   4  370.60   27.57
  -3  -5   4  401.08   31.12
   3   5   4  354.77   31.67
   3  -6   4  286.98   66.60
   3  -6  -4  301.22   38.47
   3  -6   4  267.17   29.40
  -3  -6   4  286.08   34.02
   3   6   4  295.47   31.38
  -3   6   4  259.56   30.29
   3  -7   4  206.16   87.58
   3  -7  -4  224.54   32.14
   3  -7   4  186.73   24.87
  -3  -7   4  206.50   30.04
   3   7   4  220.30   25.86
  -3   7   4  239.82   29.10
   4   0   4 4076.28  176.05
   4   0  -4 4281.59  184.82
   4   0   4 4437.05  151.75
  -4   0   4 4326.48  184.05
   4   1   4  151.52   25.81
   4  -1   4  154.07   67.57
   4  -1  -4  179.88   20.54
   4   1  -4  163.01   17.66
   4   1   4  150.00   15.71
   4  -1   4  169.68   15.47
  -4   1   4  172.21   39.53
   4   2   4  192.54   19.03
   4  -2   4  192.83   21.20
   4  -2  -4  202.46   22.77
   4   2  -4  228.77   20.70
   4   2   4  189.24   38.52
  -4   2   4  207.74   19.61
   4  -2   4  179.46   16.34
  -4  -2   4  209.31   20.23
   4  -3   4  409.46   33.37
   4  -3  -4  452.16   36.06
   4   3  -4  399.49   26.41
  -4  -3  -4  446.29   28.03
   4   3   4  454.35   32.92
  -4   3   4  379.61   27.82
   4  -3   4  430.35   26.60
  -4  -3   4  396.41   28.39
   4   3   4  377.39   23.19
   4  -4   4  297.84   31.80
   4  -4  -4  336.37   34.29
  -4  -4  -4  285.95   20.96
  -4   4   4  333.85   26.62
  -4  -4   4  325.29   27.28
   4   4   4  328.30   22.97
   4  -5   4  358.36   40.88
   4  -5  -4  387.17   46.22
  -4   5   4  347.54   36.09
  -4  -5   4  329.17   34.26
   4   5   4  347.78   33.63
   4  -6   4  296.08  112.51
   4  -6  -4  270.41   35.21
  -4  -6   4  272.86   31.60
   4   6   4  249.41   26.65
   5   0   4    5.52    4.83
   5   0  -4    5.21    8.93
  -5   0   4    6.85    7.17
   5   1   4  398.06   27.50
   5  -1  -4  368.88   33.04
   5   1  -4  453.08   32.59
  -5   1   4  406.66   26.71
  -5  -1   4  393.62   27.34
   5  -2   4 1032.91   57.76
   5  -2  -4 1066.85   61.68
   5   2  -4 1077.62   53.57
  -5   2   4 1012.55   48.28
  -5  -2   4 1066.46   51.08
   5  -3   4  969.04   82.38
   5  -3  -4 1084.99   91.61
  -5   3   4  941.41   74.10
  -5  -3   4 1056.30   81.90
   5  -4   4   84.71   45.03
   5  -4  -4  101.30   21.04
  -5   4   4   95.49   16.28
  -5  -4   4   79.12   14.49
   5  -5   4  207.32   31.17
   5  -5  -4  241.59   34.02
  -5   5   4  157.78   23.42
  -5  -5   4  207.17   25.69
   5   5   4  186.52   21.78
   6   0   4  414.52   41.54
   6   0  -4  442.61   45.50
   6   1   4  378.08   37.27
   6  -1   4  330.84   49.43
   6  -1  -4  366.08   43.51
   6   1  -4  395.05   41.50
   6  -2   4   60.47   23.40
   6  -2  -4   92.64   23.64
  -6  -2   4   54.57   12.21
   6  -3   4  418.90   59.78
   6  -3  -4  490.12   52.40
  -6  -3   4  365.76   33.63
   0   0  -5    2.11    8.04
   0   0   5    0.72    6.45
   0  -1  -5 2089.61   67.21
   0   1  -5 2016.44   65.35
   0   1   5 2046.91   68.82
   0  -1   5 1919.86   65.22
   0   1   5 2038.24   53.27
   0  -2  -5    0.39    7.00
   0   2  -5    6.53    6.61
   0   2   5    1.21    5.53
   0  -2   5    1.72    7.03
   0  -3  -5 2047.40   97.11
   0   3   5 2026.21   99.28
   0  -3   5 1902.54   93.25
   0   3   5 1885.99   84.26
   0  -4   5   -0.05    5.65
   0  -4  -5   10.76   10.66
   0   4   5   24.88   13.03
   0  -4   5    3.15    8.43
   0   4   5    0.53    5.76
   0  -5   5  911.29   46.74
   0  -5  -5 1029.61   55.89
   0   5   5  914.70   89.20
   0  -5   5  695.64   44.17
   0  -6   5    5.47    5.60
   0  -6  -5    5.31   10.76
   0   6   5    4.17    9.79
   0  -6   5    3.41   11.34
   0  -7   5  346.91   33.55
   0  -7  -5  434.18   43.88
   0  -7   5  455.18   47.72
   0   7   5  376.87   36.51
   1   0  -5    4.94    6.88
  -1   0  -5    2.96    7.14
   1   0   5    4.71    3.23
  -1   0   5    1.01    8.94
   1  -1  -5  326.97   25.48
   1   1  -5  381.39   27.33
  -1  -1  -5  322.70   24.82
   1   1   5  311.59   30.01
  -1   1   5  343.15   31.30
   1  -1   5  322.67   24.87
  -1  -1   5  229.80   22.15
   1  -2   5  404.02   29.10
   1  -2  -5  369.01   28.84
  -1  -2  -5  376.81   27.21
   1   2  -5  375.65   26.67
   1   2   5  383.87   29.47
  -1   2   5  401.75   42.56
   1  -2   5  386.91   28.92
  -1  -2   5  412.82   32.01
   1   2   5  386.44   21.65
   1  -3   5  621.89   39.69
   1  -3  -5  655.70   42.24
  -1  -3  -5  593.65   38.39
   1   3  -5  623.60   37.64
   1   3   5  642.29   43.44
  -1   3   5  553.29   38.58
   1  -3   5  600.28   39.13
  -1  -3   5  619.32   41.93
   1   3   5  600.15   32.89
  -1   3   5  596.74   35.83
   1  -4   5 1649.51   73.44
   1  -4  -5 1663.31   74.77
  -1  -4  -5 1738.47   75.61
   1   4  -5 1736.83   72.25
  -1   4   5 1824.92   83.86
   1  -4   5 1575.53   72.33
  -1  -4   5 1747.75   79.71
   1   4   5 1695.85   67.42
  -1   4   5 1716.10   70.91
   1  -5   5  233.45   24.14
   1  -5  -5  230.00   24.54
  -1  -5  -5  206.43   21.46
   1   5  -5  192.97   19.57
   1   5   5  201.93   24.06
  -1   5   5  211.56   26.80
   1  -5   5  189.08   25.94
  -1  -5   5  186.43   23.03
   1   5   5  185.22   17.72
  -1   5   5  211.44   21.46
   1  -6   5 1827.33  136.57
   1  -6  -5 1838.06  139.74
  -1  -6  -5 1616.51  121.61
   1   6  -5 1628.30  120.24
   1   6   5 1711.35  134.67
  -1   6   5 1702.68  133.29
   1  -6   5 1830.34  140.54
  -1  -6   5 1790.32  138.22
   1  -7   5    3.20    4.31
   1  -7  -5   15.97   17.29
   1  -7   5    6.02   12.74
  -1  -7   5   10.73   19.96
   1   7   5    2.30    7.25
  -1   7   5    3.96   10.60
   2   0   5 1322.90   66.46
   2   0  -5 1253.93   64.27
   2   0   5 1325.18   67.28
  -2   0   5 1414.51   72.02
   2  -1   5  294.09   24.58
   2  -1  -5  299.46   25.11
   2   1  -5  277.54   22.58
  -2  -1  -5  304.91   24.70
   2   1   5  258.38   23.08
  -2   1   5  287.30   24.30
   2  -1   5  265.27   22.69
  -2  -1   5  250.94   22.42
   2  -2   5  653.25   42.53
   2  -2  -5  689.41   44.63
   2   2  -5  598.75   36.64
  -2  -2  -5  600.71   37.12
   2   2   5  612.79   40.55
  -2   2   5  610.25   58.63
   2  -2   5  594.42   37.86
   2  -3   5 1147.25   70.12
   2  -3  -5 1196.40   60.88
  -2  -3  -5 1153.12   53.75
   2   3  -5 1185.50   54.04
   2   3   5 1162.24   59.27
  -2   3   5 1032.20   53.41
   2  -3   5 1245.87   58.61
  -2  -3   5 1123.88   57.31
   2   3   5 1085.28   43.97
   2  -4   5  579.72   62.86
   2  -4  -5  537.69   39.44
  -2  -4  -5  509.90   32.15
   2   4  -5  560.47   32.76
   2   4   5  603.23   41.99
  -2   4   5  594.10   50.41
   2  -4   5  593.63   37.62
  -2  -4   5  634.26   41.62
   2  -5   5  610.63   55.75
   2  -5  -5  682.88   61.60
  -2  -5  -5  625.75   53.53
   2   5  -5  621.30   51.77
   2   5   5  590.38   57.35
  -2   5   5  596.00   56.21
   2  -5   5  530.95   50.08
  -2  -5   5  602.93   56.24
   2   5   5  567.48   47.59
  -2   5   5  555.53   49.86
   2  -6   5  631.28   54.78
   2  -6  -5  728.54   62.03
  -2  -6  -5  596.14   49.41
  -2   6   5  517.07   48.06
   2  -6   5  620.93   52.90
  -2  -6   5  679.20   59.41
   2   6   5  583.93   47.17
  -2   6   5  605.79   51.36
   3   0   5    1.43    2.85
   3   0  -5    3.07    7.33
   3   0   5    3.83    5.37
  -3   0   5    0.63   10.33
   3  -1   5  933.08   53.82
   3  -1  -5  961.00   55.02
   3   1  -5 1017.39   56.65
   3   1   5 1048.19   58.24
  -3   1   5 1039.95   58.06
   3  -1   5 1048.51   56.39
  -3  -1   5 1050.39   58.46
   3  -2   5  773.06   45.26
   3  -2  -5  711.86   43.86
   3   2  -5  677.86   38.44
  -3  -2  -5  660.59   38.12
   3   2   5  805.44   46.40
  -3   2   5  741.52   42.93
   3  -2   5  704.42   39.57
  -3  -2   5  688.20   40.45
   3  -3   5  518.88   46.35
   3  -3  -5  578.74   40.08
   3   3  -5  577.07   34.29
  -3  -3  -5  542.55   33.70
   3   3   5  517.28   36.74
  -3   3   5  517.07   35.72
   3  -3   5  517.03   33.13
  -3  -3   5  540.72   35.35
   3  -4   5  920.50   77.89
   3  -4  -5  969.51   82.11
   3   4  -5  944.61   74.11
  -3  -4  -5  931.78   73.73
   3   4   5  932.26   78.67
  -3   4   5  964.10   79.78
   3  -4   5  896.75   71.97
  -3  -4   5  911.78   75.43
   3   4   5  857.98   65.61
   3  -5   5  154.45   23.71
   3  -5  -5  187.99   29.29
  -3  -5  -5  173.78   23.32
  -3   5   5  182.52   25.32
   3  -5   5  162.72   22.65
  -3  -5   5  220.83   28.93
   3   5   5  186.14   21.26
   3  -6   5  405.37   42.61
   3  -6  -5  416.82   45.03
  -3   6   5  405.68   43.10
   3  -6   5  371.40   38.05
  -3  -6   5  463.35   45.34
   3   6   5  354.36   32.91
  -3   6   5  385.14   38.78
   4   0   5   11.37   16.20
   4   0  -5   11.71   14.62
   4   0   5    5.29    4.21
  -4   0   5   13.72   10.16
   4   1   5  743.92   41.19
   4  -1   5  763.17   45.74
   4  -1  -5  796.91   47.69
   4   1  -5  808.77   46.05
   4   1   5  781.67   43.52
   4  -1   5  775.38   41.11
  -4   1   5  737.28   41.14
  -4  -1   5  719.18   41.35
   4  -2   5  263.55   33.28
   4  -2  -5  259.33   30.93
   4   2  -5  275.74   29.96
  -4  -2  -5  251.65   27.04
   4   2   5  254.97   29.59
  -4   2   5  249.43   65.04
  -4  -2   5  254.15   28.24
   4  -3   5  223.18   28.50
   4  -3  -5  218.83   29.21
   4   3  -5  221.92   26.63
  -4  -3  -5  208.56   23.79
   4   3   5  257.55   31.46
  -4   3   5  200.24   24.59
  -4  -3   5  206.74   24.50
   4  -4   5  575.73   55.54
   4  -4  -5  510.46   52.13
  -4  -4  -5  424.34   39.36
  -4   4   5  491.98   65.52
  -4  -4   5  531.74   49.17
   4  -5   5  795.58   67.87
   4  -5  -5  719.34   65.36
  -4   5   5  562.93   50.26
  -4  -5   5  665.12   56.55
   5   0   5   17.98   13.91
   5   0  -5    0.13   12.03
  -5   0   5    2.64    5.10
   5   1   5  591.40   51.64
   5  -1   5  599.60   56.12
   5  -1  -5  663.64   60.76
   5   1  -5  597.57   54.03
  -5  -1   5  650.89   55.97
   5  -2   5  956.93   77.62
   5  -2  -5  975.02   78.57
   5   2  -5  982.49   73.05
  -5  -2  -5  887.69   66.07
  -5   2   5  941.28   69.26
  -5  -2   5  913.33   68.07
   5  -3   5  361.03   41.77
   5  -3  -5  313.97   39.26
  -5   3   5  294.44   33.44
  -5  -3   5  304.29   32.12
   5  -4   5  481.21   49.01
   5  -4  -5  499.95   52.10
  -5   4   5  409.07   40.08
  -5  -4   5  479.99   43.64
   6   0   5  967.82   73.82
   6   0  -5  960.02   79.61
   6   1   5    5.08    7.49
   6  -1   5    4.41    6.85
   6  -1  -5   10.95   14.54
   6   1  -5   13.66   12.59
   0   0  -6 4074.51  147.66
   0   0   6 4242.14  298.42
   0  -1  -6    5.85    8.40
   0   1  -6    2.59    7.11
   0   1   6   -2.38    8.15
   0  -1   6    3.91    5.77
   0  -2  -6  280.79   25.85
   0   2  -6  249.99   24.09
   0   2   6  269.40   25.19
   0  -2   6  271.36   25.22
   0  -3  -6   -2.27    9.49
   0   3  -6    5.13    9.49
   0   3   6    6.64    5.98
   0  -3   6   -1.14    7.93
   0  -4  -6  353.60   36.77
   0   4  -6  369.04   37.01
   0   4   6  423.56   44.87
   0  -4   6  383.98   39.76
   0   4   6  378.38   34.37
   0  -5  -6    3.26    8.93
   0   5  -6    2.33    9.36
   0   5   6   -1.53    8.22
   0  -5   6   -2.30   13.35
   0   5   6   -0.32    7.64
   0  -6  -6  361.11   39.81
   0   6  -6  347.47   35.96
   0  -6   6  386.88   44.76
   1   0  -6    2.25    6.82
  -1   0  -6    6.14    9.02
   1   0   6    6.18    8.38
  -1   0   6    8.14    9.75
   1  -1  -6  462.26   32.73
   1   1  -6  495.43   32.70
  -1  -1  -6  499.66   34.26
  -1   1  -6  509.90   34.93
   1   1   6  530.99   35.83
  -1   1   6  561.11   39.31
   1  -1   6  503.27   35.50
  -1  -1   6  481.47   39.58
   1  -2  -6  357.48   28.73
  -1  -2  -6  387.78   29.96
   1   2  -6  388.20   29.58
  -1   2  -6  347.54   27.74
   1   2   6  360.48   29.85
  -1   2   6  371.34   30.35
   1  -2   6  350.21   30.99
  -1  -2   6  383.69   32.01
  -1   2   6  368.81   22.87
   1  -3   6 1195.89   93.17
  -1  -3  -6 1166.47   91.31
   1   3  -6 1150.82   88.99
   1   3   6 1136.76   91.44
  -1   3   6 1263.21  100.15
   1  -3   6 1165.15   93.74
  -1  -3   6 1185.99   94.07
   1  -4   6  235.66   28.68
   1  -4  -6  189.30   27.44
  -1  -4  -6  192.76   24.85
   1   4  -6  206.90   26.47
   1   4   6  166.56   61.01
  -1   4   6  199.16   79.20
   1  -4   6  217.07   28.47
  -1  -4   6  192.14   27.41
  -1   4   6  184.75   22.24
   1  -5   6  144.95   21.76
   1  -5  -6  175.71   26.76
  -1  -5  -6  154.47   23.03
   1   5  -6  139.45   21.12
  -1   5   6  174.75   26.04
   1  -5   6  159.13   24.40
  -1  -5   6  187.13   28.71
  -1   5   6  130.58   19.27
   2   0  -6 1364.11   64.69
  -2   0  -6 1311.27   62.87
   2   0   6 1314.97   63.96
  -2   0   6 1315.48   64.40
   2  -1  -6  436.43   31.94
   2   1  -6  480.37   34.52
  -2  -1  -6  419.86   30.99
  -2   1  -6  427.71   31.46
   2   1   6  453.21   33.87
  -2   1   6  376.29   40.40
   2  -1   6  433.37   32.22
  -2  -1   6  429.68   33.08
   2  -2   6  530.84   37.11
   2  -2  -6  588.26   53.53
   2   2  -6  524.10   35.14
  -2  -2  -6  582.60   37.60
   2   2   6  534.41   39.13
  -2   2   6  567.14   39.05
   2  -2   6  511.98   35.71
  -2  -2   6  535.94   38.33
   2  -3   6  153.47   22.85
   2  -3  -6  203.06   28.08
   2   3  -6  163.10   22.45
  -2  -3  -6  156.53   21.36
   2   3   6  144.19   25.35
  -2   3   6  176.37   45.82
   2  -3   6  174.49   24.70
  -2  -3   6  152.89   23.87
   2  -4   6  170.50   24.38
   2  -4  -6  182.86   26.35
  -2  -4  -6  216.33   26.57
   2   4  -6  203.52   24.62
   2   4   6  199.71   29.79
  -2   4   6  163.72   52.42
   2  -4   6  180.80   26.09
  -2  -4   6  212.69   28.81
  -2   4   6  191.11   25.61
   2  -5   6  502.13   46.37
  -2  -5  -6  488.03   44.76
   2   5  -6  485.49   42.12
   2   5   6  513.79   61.41
   2  -5   6  453.93   43.88
  -2  -5   6  509.02   48.25
  -2   5   6  445.90   39.89
   3   0  -6    7.48   11.07
  -3   0  -6    7.82    9.73
   3   0   6    2.57    6.19
  -3   0   6    7.32   11.71
   3  -1   6  902.46   73.81
   3  -1  -6  932.18   76.69
   3   1  -6  924.76   75.71
  -3  -1  -6  830.93   67.99
   3   1   6  889.41   73.78
  -3   1   6  985.75   80.53
   3  -1   6  884.76   72.63
  -3  -1   6  957.77   78.83
   3  -2   6  899.13   78.42
   3  -2  -6  933.26   78.41
   3   2  -6  907.80   74.52
  -3  -2  -6  890.15   72.30
   3   2   6  991.16   83.09
  -3   2   6  831.53   70.16
   3  -2   6  864.40   71.56
  -3  -2   6  884.43   73.47
   3  -3   6   30.93   37.91
   3  -3  -6   49.91   16.42
   3   3  -6   58.87   14.68
  -3  -3  -6   64.93   13.75
   3   3   6   71.60   43.22
  -3   3   6   55.25   28.23
   3  -3   6   50.60   23.77
  -3  -3   6   43.44   13.78
   3  -4   6  126.08   21.02
   3  -4  -6  183.18   28.24
   3   4  -6  145.49   20.06
  -3  -4  -6  179.24   23.79
   3   4   6  148.31   24.83
  -3   4   6  155.08   72.92
   3  -4   6  114.61   19.11
  -3  -4   6  154.87   22.71
   4   0   6   36.59   15.23
   4   0  -6   51.48   13.57
   4   0   6   25.12   20.06
  -4   0   6   50.41   16.98
   4  -1   6   37.12   19.17
   4  -1  -6   28.08   13.06
   4   1  -6   39.28   16.05
  -4  -1  -6    2.78    7.90
   4   1   6   13.17   14.11
  -4   1   6   34.69   10.44
  -4  -1   6   34.37   16.31
   4  -2  -6  766.19   64.99
   4   2  -6  807.66   63.95
  -4  -2  -6  792.17   62.40
   4   2   6  804.57   64.58
  -4   2   6  764.18   61.26
  -4  -2   6  772.00   61.07
   4  -3   6  136.73   24.11
   4  -3  -6  128.32   23.40
   4   3  -6   85.31   18.05
  -4  -3  -6  116.77   20.17
   4   3   6  148.37   24.83
  -4   3   6   96.26   78.12
  -4  -3   6  145.70   24.54
   5   0  -6    9.63   16.44
  -5   0   6    4.02    4.42
   0   0  -7   -0.68    7.75
   0   0   7    4.60    5.07
   0  -1  -7  252.18   30.11
   0   1  -7  236.82   28.65
   0   1   7  236.99   28.95
   0  -1   7  259.03   41.09
   0  -2  -7    4.18    9.07
   0   2  -7   -2.04   10.57
   0   2   7    3.06    7.93
   0  -2   7    5.08    7.59
   0   3  -7  374.48   37.75
   0   3   7  347.25   38.41
   0  -3   7  383.47   40.45
   0  -4  -7    0.98   11.21
   0   4  -7    4.00   10.20
   0  -4   7    8.56   15.60
   1   0  -7    1.30    8.83
  -1   0  -7    5.00    8.97
   1   0   7    2.32    5.73
  -1   0   7   -1.43    8.43
   1  -1  -7   24.64   12.22
   1   1  -7   21.33   10.44
  -1  -1  -7   13.53    9.47
  -1   1  -7   13.61   10.41
   1   1   7   22.76    8.65
  -1   1   7   27.54   13.49
   1  -1   7   20.52   12.56
  -1  -1   7   26.15   13.83
   1  -2  -7 1704.31  118.42
  -1  -2  -7 1676.53  115.40
   1   2  -7 1727.42  119.42
  -1   2  -7 1551.37  108.66
   1   2   7 1615.53  114.45
   1  -2   7 1620.32  114.07
  -1  -2   7 1503.92  107.29
   1  -3  -7  348.39   36.62
  -1  -3  -7  309.98   33.04
   1   3  -7  359.04   38.20
  -1   3  -7  368.30   39.37
   1   3   7  307.49   36.45
  -1   3   7  324.18   37.89
   1  -3   7  362.14   40.13
  -1  -3   7  371.90   39.97
   2   0  -7 1734.50  119.95
  -2   0  -7 1639.88  113.21
   2   0   7 1735.78  132.06
  -2   0   7 1801.90  124.87
   2  -1  -7   19.70   11.10
   2   1  -7   31.77   11.64
  -2  -1  -7   38.73   13.20
  -2   1  -7   39.31   12.34
   2   1   7   34.29   32.15
  -2   1   7   19.48   19.33
   2  -1   7   38.91   16.34
  -2  -1   7   30.54   20.36
   2  -2  -7   32.25   16.94
   2   2  -7   33.66   14.99
  -2  -2  -7   15.10   11.55
  -2   2  -7   39.21   15.60
   2   2   7    4.92   15.47
  -2   2   7   41.00   26.51
   2  -2   7   19.14   12.83
  -2  -2   7   16.76   10.66
   2  -3  -7  315.13   37.14
   2   3  -7  264.98   33.26
  -2  -3  -7  293.58   33.95
   2   3   7  272.20   35.51
  -2   3   7  230.95   84.86
   2  -3   7  194.56  104.53
  -2  -3   7  225.30   30.38
   3   0  -7    5.26   11.61
  -3   0  -7    7.70   10.26
   3   0   7   13.72    8.81
  -3   0   7    1.45    6.24
   3  -1  -7   17.58   15.94
   3   1  -7    8.77   10.63
  -3  -1  -7   19.67   11.90
  -3   1  -7   18.95   11.66
   3   1   7    3.10    9.02
  -3   1   7   23.39   12.43
   3  -1   7    8.35   11.68
  -3  -1   7    9.20    7.22
   0   0   0    0.00    0.00





_computing_structure_solution     'SHELXT 2014/5 (Sheldrick, 2014)'
_computing_structure_solution     'SHELXT 2014/5 (Sheldrick, 2014)'
_computing_structure_solution     'SHELXT 2014/5 (Sheldrick, 2014)'
_computing_structure_solution     'SHELXT 2014/5 (Sheldrick, 2014)'
_computing_structure_solution     'SHELXT 2014/5 (Sheldrick, 2014)'
;
_shelx_hkl_checksum              67876
_olex2_submission_special_instructions 'No special instructions were received'
loop_
_space_group_symop_operation_xyz
'x, y, z'
'-x, -y, z+1/2'
'x+1/2, -y+1/2, z'
'-x+1/2, y+1/2, z+1/2'
loop_
_atom_site_label
_atom_site_type_symbol
_atom_site_fract_x
_atom_site_fract_y
_atom_site_fract_z
_atom_site_U_iso_or_equiv
_atom_site_adp_type
_atom_site_occupancy
_atom_site_site_symmetry_order
_atom_site_calc_flag
_atom_site_refinement_flags_posn
_atom_site_refinement_flags_adp
_atom_site_refinement_flags_occupancy
_atom_site_disorder_assembly
_atom_site_disorder_group
Zn1 Zn 0.37743(16) 0.32463(11) 0.67579(18) 0.0141(2) Uani 1 1 d . . . . .
Zn2 Zn 0.02889(16) 0.44746(12) 0.32418(16) 0.0163(3) Uani 1 1 d . . . . .
Cl1 Cl 0.5814(3) 0.6222(2) 0.6244(3) 0.0116(4) Uani 1 1 d . . . . .
N1 N 0.0762(10) 0.3734(8) 0.6245(10) 0.0077(12) Uani 1 1 d . . . . .
loop_
_atom_site_aniso_label
_atom_site_aniso_U_11
_atom_site_aniso_U_22
_atom_site_aniso_U_33
_atom_site_aniso_U_23
_atom_site_aniso_U_13
_atom_site_aniso_U_12
Zn1 0.0069(5) 0.0137(4) 0.0216(4) -0.0004(3) -0.0010(4) 0.0038(3)
Zn2 0.0160(6) 0.0196(4) 0.0133(4) 0.0080(3) -0.0032(4) 0.0008(4)
Cl1 0.0101(10) 0.0107(7) 0.0139(9) 0.0007(6) 0.0004(7) -0.0006(7)
N1 0.008(3) 0.006(2) 0.009(3) 0.001(2) 0.000(3) 0.002(2)
loop_
_atom_type_symbol
_atom_type_description
_atom_type_scat_dispersion_real
_atom_type_scat_dispersion_imag
_atom_type_scat_source
Cl Cl 0.1484 0.1585 'International Tables Vol C Tables 4.2.6.8 and 6.1.1.4'
N N 0.0061 0.0033 'International Tables Vol C Tables 4.2.6.8 and 6.1.1.4'
Zn Zn 0.2839 1.4301 'International Tables Vol C Tables 4.2.6.8 and 6.1.1.4'
loop_
_geom_angle_atom_site_label_1
_geom_angle_atom_site_label_2
_geom_angle_atom_site_label_3
_geom_angle
_geom_angle_site_symmetry_1
_geom_angle_site_symmetry_3
_geom_angle_publ_flag
Zn2 Zn1 Zn2 142.23(4) 3 2_565 ?
Zn2 Zn1 Zn2 86.71(6) 3 . ?
Zn2 Zn1 Zn2 126.99(4) 4_545 . ?
Zn2 Zn1 Zn2 124.96(5) 4_545 2_565 ?
Zn2 Zn1 Zn2 59.15(4) . 2_565 ?
Zn2 Zn1 Zn2 61.69(5) 4_545 3 ?
Cl1 Zn1 Zn2 109.76(7) . 3 ?
Cl1 Zn1 Zn2 80.03(5) 2_665 4_545 ?
Cl1 Zn1 Zn2 73.70(5) 2_665 2_565 ?
Cl1 Zn1 Zn2 137.99(6) 2_665 3 ?
Cl1 Zn1 Zn2 87.74(7) . 2_565 ?
Cl1 Zn1 Zn2 90.31(6) . . ?
Cl1 Zn1 Zn2 138.41(7) . 4_545 ?
Cl1 Zn1 Zn2 132.84(6) 2_665 . ?
Cl1 Zn1 Cl1 86.94(5) . 2_665 ?
N1 Zn1 Zn2 38.28(18) 3 4_545 ?
N1 Zn1 Zn2 36.64(19) 3 3 ?
N1 Zn1 Zn2 34.20(18) . 2_565 ?
N1 Zn1 Zn2 114.26(18) . 4_545 ?
N1 Zn1 Zn2 162.68(19) 3 2_565 ?
N1 Zn1 Zn2 108.13(19) . 3 ?
N1 Zn1 Zn2 34.41(19) . . ?
N1 Zn1 Zn2 123.22(19) 3 . ?
N1 Zn1 Cl1 107.08(19) . . ?
N1 Zn1 Cl1 102.72(19) . 2_665 ?
N1 Zn1 Cl1 101.9(2) 3 2_665 ?
N1 Zn1 Cl1 108.98(19) 3 . ?
N1 Zn1 N1 136.9(2) . 3 ?
Zn1 Zn2 Zn1 109.73(4) 4_554 . ?
Zn1 Zn2 Zn1 152.68(5) . 2_564 ?
Zn1 Zn2 Zn1 107.76(5) 3_455 2_564 ?
Zn1 Zn2 Zn1 63.80(5) 3_455 . ?
Zn1 Zn2 Zn1 64.38(4) 4_554 2_564 ?
Zn1 Zn2 Zn1 151.62(5) 4_554 3_455 ?
Zn1 Zn2 Zn2 60.18(4) 4_554 2_564 ?
Zn1 Zn2 Zn2 94.08(6) 4_554 2_565 ?
Zn1 Zn2 Zn2 142.20(5) 3_455 2_564 ?
Zn1 Zn2 Zn2 58.13(5) 3_455 2_565 ?
Zn2 Zn2 Zn1 92.51(5) 2_565 2_564 ?
Zn2 Zn2 Zn1 60.24(4) 2_564 2_564 ?
Zn2 Zn2 Zn1 142.56(6) 2_564 . ?
Zn2 Zn2 Zn1 60.61(5) 2_565 . ?
Zn2 Zn2 Zn2 147.91(7) 2_564 2_565 ?
Cl1 Zn2 Zn1 132.73(6) 2_664 2_564 ?
Cl1 Zn2 Zn1 83.02(5) 2_664 4_554 ?
Cl1 Zn2 Zn1 69.21(6) 4_544 3_455 ?
Cl1 Zn2 Zn1 98.75(6) 4_544 2_564 ?
Cl1 Zn2 Zn1 137.21(6) 4_544 4_554 ?
Cl1 Zn2 Zn1 116.28(6) 2_664 3_455 ?
Cl1 Zn2 Zn1 68.56(7) 2_664 . ?
Cl1 Zn2 Zn1 101.63(6) 4_544 . ?
Cl1 Zn2 Zn2 124.61(6) 2_664 2_565 ?
Cl1 Zn2 Zn2 77.19(6) 4_544 2_564 ?
Cl1 Zn2 Zn2 127.07(6) 4_544 2_565 ?
Cl1 Zn2 Zn2 74.28(6) 2_664 2_564 ?
Cl1 Zn2 Cl1 82.15(6) 2_664 4_544 ?
N1 Zn2 Zn1 122.93(19) . 2_564 ?
N1 Zn2 Zn1 121.40(18) . 4_554 ?
N1 Zn2 Zn1 39.21(19) 2_564 4_554 ?
N1 Zn2 Zn1 34.5(2) 2_564 2_564 ?
N1 Zn2 Zn1 34.81(19) . . ?
N1 Zn2 Zn1 142.1(2) 2_564 3_455 ?
N1 Zn2 Zn1 148.89(19) 2_564 . ?
N1 Zn2 Zn1 37.58(19) . 3_455 ?
N1 Zn2 Zn2 112.8(2) 2_564 2_565 ?
N1 Zn2 Zn2 176.71(19) . 2_564 ?
N1 Zn2 Zn2 35.13(19) 2_564 2_564 ?
N1 Zn2 Zn2 35.19(18) . 2_565 ?
N1 Zn2 Cl1 100.99(19) . 4_544 ?
N1 Zn2 Cl1 99.1(2) 2_564 2_664 ?
N1 Zn2 Cl1 102.8(2) . 2_664 ?
N1 Zn2 Cl1 104.9(2) 2_564 4_544 ?
N1 Zn2 N1 148.0(2) . 2_564 ?
Zn1 Cl1 Zn1 106.81(7) . 2_664 ?
Zn1 Cl1 Zn2 112.04(7) 2_664 2_665 ?
Zn1 Cl1 Zn2 108.60(7) 2_664 4 ?
Zn1 Cl1 Zn2 125.36(8) . 4 ?
Zn1 Cl1 Zn2 102.49(7) . 2_665 ?
Zn2 Cl1 Zn2 101.11(7) 2_665 4 ?
Zn1 N1 Zn1 116.4(3) . 3_455 ?
Zn2 N1 Zn1 102.5(3) 2_565 3_455 ?
Zn2 N1 Zn1 110.8(3) . . ?
Zn2 N1 Zn1 105.8(3) . 3_455 ?
Zn2 N1 Zn1 111.3(3) 2_565 . ?
Zn2 N1 Zn2 109.7(3) . 2_565 ?
loop_
_geom_bond_atom_site_label_1
_geom_bond_atom_site_label_2
_geom_bond_distance
_geom_bond_site_symmetry_2
_geom_bond_publ_flag
Zn1 Zn2 3.0452(19) 3 ?
Zn1 Zn2 3.136(2) 2_565 ?
Zn1 Zn2 3.124(2) . ?
Zn1 Zn2 2.981(2) 4_545 ?
Zn1 Cl1 2.550(2) . ?
Zn1 Cl1 2.705(3) 2_665 ?
Zn1 N1 1.908(7) . ?
Zn1 N1 1.930(6) 3 ?
Zn2 Zn2 3.090(2) 2_564 ?
Zn2 Zn2 3.090(2) 2_565 ?
Zn2 Cl1 2.719(3) 2_664 ?
Zn2 Cl1 2.766(2) 4_544 ?
Zn2 N1 1.889(6) . ?
Zn2 N1 1.891(6) 2_564 ?
loop_
_geom_torsion_atom_site_label_1
_geom_torsion_atom_site_label_2
_geom_torsion_atom_site_label_3
_geom_torsion_atom_site_label_4
_geom_torsion
_geom_torsion_site_symmetry_1
_geom_torsion_site_symmetry_2
_geom_torsion_site_symmetry_3
_geom_torsion_site_symmetry_4
_geom_torsion_publ_flag
Zn1 Zn2 N1 Zn1 -79.3(3) 4_554 . . . ?
Zn1 Zn2 N1 Zn1 153.75(15) 4_554 . . 3_455 ?
Zn1 Zn2 N1 Zn1 75.8(3) 2_564 . . 3_455 ?
Zn1 Zn2 N1 Zn1 -126.9(4) . . . 3_455 ?
Zn1 Zn2 N1 Zn1 -157.31(16) 2_564 . . . ?
Zn1 Zn2 N1 Zn1 126.9(4) 3_455 . . . ?
Zn1 Zn2 N1 Zn2 43.9(4) 4_554 . . 2_565 ?
Zn1 Zn2 N1 Zn2 123.2(5) . . . 2_565 ?
Zn1 Zn2 N1 Zn2 -109.9(4) 3_455 . . 2_565 ?
Zn1 Zn2 N1 Zn2 -34.1(4) 2_564 . . 2_565 ?
Zn2 Zn2 N1 Zn1 -123.2(5) 2_565 . . . ?
Zn2 Zn2 N1 Zn1 109.9(4) 2_565 . . 3_455 ?
Cl1 Zn2 N1 Zn1 94.6(3) 4_544 . . . ?
Cl1 Zn2 N1 Zn1 -32.3(3) 4_544 . . 3_455 ?
Cl1 Zn2 N1 Zn1 10.3(3) 2_664 . . . ?
Cl1 Zn2 N1 Zn1 -116.7(2) 2_664 . . 3_455 ?
Cl1 Zn2 N1 Zn2 133.5(2) 2_664 . . 2_565 ?
Cl1 Zn2 N1 Zn2 -142.2(2) 4_544 . . 2_565 ?
N1 Zn2 N1 Zn1 -121.9(3) 2_564 . . . ?
N1 Zn2 N1 Zn1 111.2(3) 2_564 . . 3_455 ?
N1 Zn2 N1 Zn2 1.3(2) 2_564 . . 2_565 ?
loop_
_twin_individual_id
_twin_individual_mass_fraction_refined
1 0.54(4)
2 0.46(4)
