#------------------------------------------------------------------------------
#$Date: 2019-10-29 23:30:26 +0200 (Tue, 29 Oct 2019) $
#$Revision: 220442 $
#$URL: file:///home/coder/svn-repositories/cod/cif/4/00/30/4003021.cif $
#------------------------------------------------------------------------------
#
# This file is available in the Crystallography Open Database (COD),
# http://www.crystallography.net/
#
# All data on this site have been placed in the public domain by the
# contributors.
#
data_4003021
loop_
_publ_author_name
'Wu, Ziyan'
'Zhang, Qiqi'
'Li, Binghan'
'Shi, Zhifang'
'Xu, Kaimin'
'Chen, Yi'
'Ning, Zhijun'
'Mi, Qixi'
_publ_section_title
;
 Stabilizing the CsSnCl3 Perovskite Lattice by B-Site Substitution for
 Enhanced Light Emission
;
_journal_issue                   14
_journal_name_full               'Chemistry of Materials'
_journal_page_first              4999
_journal_paper_doi               10.1021/acs.chemmater.9b00433
_journal_volume                  31
_journal_year                    2019
_chemical_formula_moiety         '2(Cl1.5 Cs0.5 Mn0.05 Sn0.45)'
_chemical_formula_sum            'Cl3 Cs Mn0.1 Sn0.9'
_chemical_formula_weight         351.58
_space_group_crystal_system      cubic
_space_group_IT_number           221
_space_group_name_Hall           '-P 4 2 3'
_space_group_name_H-M_alt        'P m -3 m'
_symmetry_space_group_name_Hall  '-P 4 2 3'
_symmetry_space_group_name_H-M   'P m -3 m'
_atom_sites_solution_primary     direct
_audit_creation_date             2019-01-13
_audit_creation_method
;
Olex2 1.2
(compiled 2018.05.29 svn.r3508 for OlexSys, GUI svn.r5506)
;
_cell_angle_alpha                90
_cell_angle_beta                 90
_cell_angle_gamma                90
_cell_formula_units_Z            1
_cell_length_a                   5.5519(8)
_cell_length_b                   5.5519(8)
_cell_length_c                   5.5519(8)
_cell_measurement_reflns_used    844
_cell_measurement_temperature    300(2)
_cell_measurement_theta_max      26.33
_cell_measurement_theta_min      3.67
_cell_volume                     171.13(4)
_computing_cell_refinement       'SAINT v8.37A (Bruker, 2015)'
_computing_data_reduction        'SAINT v8.37A (Bruker, 2015)'
_computing_molecular_graphics    'Olex2 (Dolomanov et al., 2009)'
_computing_publication_material  'Olex2 (Dolomanov et al., 2009)'
_computing_structure_refinement  'ShelXL (Sheldrick, 2015)'
_computing_structure_solution    'XS (Sheldrick, 2008)'
_diffrn_ambient_temperature      300.0
_diffrn_measured_fraction_theta_full 0.980
_diffrn_measured_fraction_theta_max 0.982
_diffrn_measurement_device_type  'Bruker APEX-II CCD'
_diffrn_measurement_method       '\f and \w scans'
_diffrn_radiation_type           MoK\a
_diffrn_radiation_wavelength     0.71073
_diffrn_reflns_av_R_equivalents  0.0405
_diffrn_reflns_av_unetI/netI     0.0155
_diffrn_reflns_Laue_measured_fraction_full 0.980
_diffrn_reflns_Laue_measured_fraction_max 0.982
_diffrn_reflns_limit_h_max       6
_diffrn_reflns_limit_h_min       -6
_diffrn_reflns_limit_k_max       6
_diffrn_reflns_limit_k_min       -6
_diffrn_reflns_limit_l_max       6
_diffrn_reflns_limit_l_min       -6
_diffrn_reflns_number            1157
_diffrn_reflns_point_group_measured_fraction_full 0.980
_diffrn_reflns_point_group_measured_fraction_max 0.982
_diffrn_reflns_theta_full        25.242
_diffrn_reflns_theta_max         26.325
_diffrn_reflns_theta_min         3.670
_diffrn_standards_number         0
_exptl_absorpt_coefficient_mu    9.826
_exptl_absorpt_correction_T_max  0.7454
_exptl_absorpt_correction_T_min  0.4307
_exptl_absorpt_correction_type   multi-scan
_exptl_absorpt_process_details
'SADABS-2016/2 (Bruker,2016/2) was used for absorption correction. wR2(int) was 0.1563 before and 0.0632 after correction. The Ratio of minimum to maximum transmission is 0.5778. The \l/2 correction factor is Not present.'
_exptl_crystal_colour            yellow
_exptl_crystal_colour_primary    yellow
_exptl_crystal_density_diffrn    3.411
_exptl_crystal_description       plate
_exptl_crystal_F_000             154
_refine_diff_density_max         0.446
_refine_diff_density_min         -0.285
_refine_diff_density_rms         0.093
_refine_ls_extinction_coef       0.115(18)
_refine_ls_extinction_expression Fc^*^=kFc[1+0.001xFc^2^\l^3^/sin(2\q)]^-1/4^
_refine_ls_extinction_method     'SHELXL-2016/6 (Sheldrick 2016)'
_refine_ls_goodness_of_fit_ref   1.272
_refine_ls_hydrogen_treatment    undef
_refine_ls_matrix_type           full
_refine_ls_number_parameters     6
_refine_ls_number_reflns         54
_refine_ls_number_restraints     0
_refine_ls_restrained_S_all      1.272
_refine_ls_R_factor_all          0.0173
_refine_ls_R_factor_gt           0.0173
_refine_ls_shift/su_max          0.000
_refine_ls_shift/su_mean         0.000
_refine_ls_structure_factor_coef Fsqd
_refine_ls_weighting_details
'w=1/[\s^2^(Fo^2^)+(0.0233P)^2^+0.0547P] where P=(Fo^2^+2Fc^2^)/3'
_refine_ls_weighting_scheme      calc
_refine_ls_wR_factor_gt          0.0431
_refine_ls_wR_factor_ref         0.0431
_reflns_Friedel_coverage         0.000
_reflns_number_gt                54
_reflns_number_total             54
_reflns_threshold_expression     'I > 2\s(I)'
_cod_data_source_file            cm9b00433_si_002.cif
_cod_data_source_block           mo_cssncl3_0m
_cod_original_cell_volume        171.13(7)
_cod_original_formula_sum        'Cl3 Cs Mn0.10 Sn0.90'
_cod_database_code               4003021
_shelx_shelxl_version_number     2016/6
_shelx_space_group_comment
;
The symmetry employed for this shelxl refinement is uniquely defined
by the following loop, which should always be used as a source of
symmetry information in preference to the above space-group names.
They are only intended as comments.
;
_olex2_refinement_description
;
1. Uiso/Uaniso restraints and constraints
Uanis(Sn2) = Uanis(Mn)
2. Others
 Fixed Sof: Sn2(0.01875) Mn(0.00208)
;
_shelx_res_file
;
TITL mo_CsSnCl3_0m in Pm-3m #221
    mo_cssncl3_0m.res
    created by SHELXL-2016/6 at 15:49:35 on 28-Dec-2018
REM reset to Pm-3m #221
CELL 0.71073 5.5519 5.5519 5.5519 90 90 90
ZERR 1 0.0008 0.0008 0.0008 0 0 0
LATT 1
SYMM -Y,+X,+Z
SYMM -X,-Y,+Z
SYMM +Y,-X,+Z
SYMM +X,-Z,+Y
SYMM +X,-Y,-Z
SYMM +X,+Z,-Y
SYMM +Z,+Y,-X
SYMM -X,+Y,-Z
SYMM -Z,+Y,+X
SYMM +Z,+X,+Y
SYMM +Y,+Z,+X
SYMM -Y,-Z,+X
SYMM +Z,-X,-Y
SYMM -Y,+Z,-X
SYMM -Z,-X,+Y
SYMM -Z,+X,-Y
SYMM +Y,-Z,-X
SYMM +Y,+X,-Z
SYMM -Y,-X,-Z
SYMM -X,+Z,+Y
SYMM -X,-Z,-Y
SYMM +Z,-Y,+X
SYMM -Z,-Y,-X
SFAC Cl Sn Mn Cs
UNIT 3 0.9 0.1 1
EADP Sn2 Mn

L.S. 4 0 0
PLAN  20
TEMP 26.85
fmap 2 53
acta
REM <olex2.extras>
REM <HklSrc "%.\\mo_CsSnCl3_0m.hkl">
REM </olex2.extras>

WGHT    0.023300    0.054700
EXTI    0.114880
FVAR       1.48181
CS1   4    0.000000    0.000000    0.000000    10.02083    0.08328    0.08328 =
         0.08328    0.00000    0.00000    0.00000
PART 1
SN2   2    0.500000    0.500000    0.500000    10.01875    0.03271    0.03271 =
         0.03271    0.00000    0.00000    0.00000
PART 0
CL1   1    0.500000    0.000000    0.500000    10.06250    0.15169    0.08730 =
         0.15169    0.00000    0.00000    0.00000
PART 2
MN    3    0.500000    0.500000    0.500000    10.00208    0.03271    0.03271 =
         0.03271    0.00000    0.00000    0.00000
HKLF 4




REM  mo_CsSnCl3_0m in Pm-3m #221
REM R1 =  0.0173 for      54 Fo > 4sig(Fo)  and  0.0173 for all      54 data
REM      6 parameters refined using      0 restraints

END

WGHT      0.0233      0.0547

REM Highest difference peak  0.446,  deepest hole -0.285,  1-sigma level  0.093
Q1    1   0.0000  0.0000 -0.5000  10.06250  0.05    0.45
Q2    1   0.5000  0.0000  0.6961  10.25000  0.05    0.23
Q3    1   0.2512  0.2512  0.2512  10.16667  0.05    0.21
Q4    1   0.5000  0.0838  0.3134  10.50000  0.05    0.11
Q5    1   0.7227  0.0000  0.7227  10.25000  0.05    0.11
Q6    1   0.5000  0.1424  0.1424  10.25000  0.05    0.11
Q7    1   0.5000  0.2257  0.2679  10.50000  0.05    0.06
;
_shelx_res_checksum              18187
_shelx_hkl_file
;
  -1   0   0  178.98    9.60
   0  -1   0  180.18    9.30
   0   0   1  173.48    8.30
   0   1   0  172.88    9.20
   1   0   0  178.98    9.60
  -1   0  -1 6858.41  310.97
  -1   1   0 6923.41  311.37
   1  -1   0 6915.21  311.27
   1   0   1 6991.50  311.17
  -1  -1  -1 2176.18   97.49
  -1  -1  -1 2116.89   97.09
   1   1  -1 2167.78   97.69
   1  -1   1 2069.39   98.49
  -1   1   1 2171.78   97.09
  -1   1  -1 2090.29   98.59
  -1  -1   1 2132.09   97.69
   1   1   1 2218.28   97.69
   1   1   1 2169.28   97.29
   0   2  -1  182.28   11.00
   0   2   1  170.88    9.90
   1   0   2  163.48   10.40
   2  -1   0  168.48   11.80
   2   1   0  169.58   10.80
  -1   0   2  160.28    9.10
   0  -2  -1  176.78    9.80
   0  -2   1  173.68   10.70
  -1   0  -2  182.48    9.90
  -2  -1   0  182.48   11.10
  -2  -1   0  179.78   10.90
  -2   1   0  164.28   12.00
   2   0   1  171.48   12.40
   0   1  -2  170.58    9.90
   1  -2   0  171.28   11.60
   1   2   0  170.18   10.70
  -2   0  -1  165.88   11.80
  -2   0   1  185.08   10.80
  -1  -2   0  184.48   10.80
  -1   2   0  209.08   12.30
   0  -1   2  172.88   10.30
  -2  -1  -1 6399.06  279.27
  -2  -1  -1 6315.77  278.87
   1   2  -1 6291.17  278.97
   1   1  -2 6204.78  277.97
  -2   1   1 6227.58  278.87
  -1  -2  -1 6213.48  278.07
  -1  -2  -1 6134.59  277.87
   1  -2   1 6250.97  279.77
   1  -1   2 6375.66  279.27
   2  -1   1 5826.32  280.37
   2   1  -1 6106.09  278.87
  -1   2   1 5490.05  278.67
   1  -2  -1 5920.91  277.87
  -1  -2   1 6144.08  278.97
  -1  -1   2 6150.78  278.27
  -2   1  -1 5871.71  280.47
   1   1   2 5980.40  278.37
   1   1   2 6103.79  277.47
  -2  -1   1 6227.08  278.97
   1   2   1 6106.19  278.17
   2  -1  -1 6525.35  278.17
  -1   1  -2 6435.76  279.07
  -1   2  -1 6423.56  280.07
   2   1   1 6735.33  279.77
  -2  -2   0 9640.04  424.66
  -2  -2   0 9951.60  424.86
  -2   0  -2 8487.65  424.96
  -2   2   0 9013.10  426.26
   0  -2   2 9982.90  424.86
   0   2  -2 9920.71  424.66
   2  -2   0 8998.50  425.76
   2   0   2 8974.30  425.76
   2   2   0 9999.00  424.96
  -2  -2  -1  197.08   12.50
  -2  -2  -1  205.88   12.30
   1  -2   2  192.78   13.20
  -2  -1  -2  173.18   12.80
  -2  -1  -2  192.68   11.60
  -1   2   2  170.78   11.20
   2   2  -1  202.38   13.10
  -2   1   2  203.58   11.30
   2  -1   2  179.38   13.90
  -2   2   1  171.98   13.60
  -1  -2  -2  208.38    9.60
   2  -2   1  180.88   14.50
   1   2  -2  203.68   12.50
  -2  -1   2  195.58   12.30
  -2  -2   1  202.98   13.00
  -1   2  -2  233.78   14.30
   1   2   2  198.08   11.50
   1   2   2  195.18   11.10
   2  -2  -1  201.98   12.30
  -1  -2   2  210.18   12.70
  -2   2  -1  193.18   15.20
   2   1   2  217.08   13.90
  -2   1  -2  173.58   13.80
   2   2   1  188.48   12.60
  -2  -2  -2 5626.14  264.77
  -2  -2  -2 5718.63  263.97
   2   2  -2 5958.10  265.57
   2  -2   2 5746.92  267.37
  -2   2   2 5871.41  264.97
  -2   2  -2 5898.21  267.67
  -2  -2   2 5981.50  265.77
   2   2   2 6207.48  265.77
   2   2   2 5751.32  264.87
  -3   0   0   82.79    9.30
   0  -3   0   79.99    7.60
   0   0   3   82.79    5.70
   0   3   0   90.39    8.50
   3   0   0   87.69    9.10
   0  -3  -1 3849.71  175.48
   0  -3   1 3957.10  176.68
   0   3  -1 4032.10  176.98
   0   3   1 4016.00  175.78
   1   0   3 3722.43  175.28
   3  -1   0 3958.40  177.68
   3   1   0 4133.09  177.28
  -3  -1   0 3795.12  176.88
  -3   1   0 3727.13  177.68
  -1   0  -3 3628.44  173.08
  -1   0  -3 3708.63  173.18
  -1   0   3 3818.82  173.98
  -3  -1   0 3901.71  176.78
   0   3   2  118.69    8.60
   0   3  -2  117.79   10.80
   0  -3   2  122.19   10.80
  -3   2   0  127.49   13.10
  -2   0  -3  119.59   10.10
  -3  -2   0  120.49   11.20
  -3  -2   0  116.69   10.80
  -2   0   3  120.99    8.60
   3   2   0  112.29   10.60
  -2   0  -3  120.19    9.30
   2   0   3  106.59   10.90
   3  -2   0  106.89   11.90
  -3   0   1 3962.10  177.58
  -3   0  -1 3796.12  178.68
   3   0   1 3994.00  179.48
  -1  -3   0 3915.11  177.18
   0   1  -3 3679.43  175.28
   1   3   0 3911.01  177.38
  -1   3   0 4073.39  178.48
   0  -1   3 3862.51  176.28
   1  -3   0 3814.12  178.08
  -1   3   1   93.39    9.30
  -3  -1  -1   99.99    9.90
  -3  -1  -1   99.79    9.70
   1   3  -1   98.89    9.60
  -1  -3  -1   86.99    7.70
  -1  -3  -1   96.89    7.90
   1  -3   1   93.59   10.00
   1  -1   3   83.09    8.40
   1   1  -3   89.49    6.80
  -3   1   1   95.49    9.80
   3  -1   1   93.39   11.50
   1  -3  -1   80.69    8.80
   1   1   3   80.09    7.80
   3  -1  -1  102.59    8.70
  -1  -3   1   88.99    8.50
  -3  -1   1  108.59    9.60
  -3  -1   1   83.79    8.60
  -3   1  -1   70.29   10.70
  -1   3  -1  102.39   10.40
  -1   1  -3   96.89    8.00
   1   3   1   98.39    8.50
   3   1   1   97.19    9.90
  -1  -1   3   94.39    7.50
  -3  -2  -1 2850.01  130.49
  -2  -1  -3 2857.81  127.39
  -1   3   2 2898.61  129.19
   1  -3   2 2843.72  131.09
   1   3  -2 2836.92  130.39
  -2  -1  -3 2826.42  128.09
   2  -1   3 2523.35  130.69
  -3  -2  -1 2880.31  130.29
  -1  -3  -2 2842.22  127.49
   3  -2   1 2718.33  132.49
   3   2  -1 2806.82  130.59
  -3   2   1 2584.94  131.19
  -1  -3  -2 2835.72  127.39
  -1   3  -2 2856.21  131.49
   2   1   3 2839.52  130.89
   3  -2  -1 2871.61  129.99
   3   2   1 3012.10  131.29
   1   3   2 2718.13  128.59
  -3  -2   1 2833.12  130.49
  -3   2  -1 2746.83  132.89
   3   2   1 2765.52  130.39
  -1  -3   2 2906.41  130.59
  -2   1  -3 2847.81  130.69
  -3  -2   1 2781.22  130.29
  -2  -1   3 2833.12  129.09
  -2  -3   0  109.99   10.00
  -3   0   2  113.09   10.20
   2   3   0  113.89   10.60
   3   0   2  111.19   12.80
  -2  -3   0  112.89   10.40
   2  -3   0   90.69   11.60
   0   2  -3  120.69    9.60
   0   2   3  120.59    6.40
   0   2   3  121.19    6.10
  -2   3   0   91.79   11.80
   0  -2   3  110.59    9.70
  -3   0  -2  104.59   12.30
  -3   0   2  112.99    9.80
   1  -2   3 2794.32  129.99
   3  -1   2 2662.33  131.89
  -3  -1  -2 2893.91  129.69
  -3  -1  -2 2528.25  129.89
  -1   2   3 2720.73  125.69
   2   3  -1 2832.42  129.89
   1   2  -3 2738.33  128.49
  -2  -3  -1 2861.91  128.89
  -3   1   2 2837.32  128.99
  -2  -3  -1 2886.81  129.09
   2  -3   1 2597.24  130.99
  -2   3   1 2671.73  130.89
  -1   2  -3 3105.99  130.09
   3   1   2 3007.50  131.89
   2   3   1 2871.61  129.49
  -3  -1   2 2866.91  129.69
  -3   1  -2 2870.81  131.99
   1   2   3 2699.63  126.89
   2  -3  -1 2637.34  129.19
   1   2   3 2965.80  127.89
  -2  -3   1 2848.31  129.89
  -2   3  -1 2825.02  131.99
  -3  -1   2 2722.03  129.19
  -1  -2   3 2763.32  128.99
  -3  -2  -2  131.99   12.50
  -3  -2  -2  130.79   11.20
   2   3  -2  146.29   12.60
   2   2  -3  136.69   11.20
  -3   2   2  133.79   12.20
  -2  -3  -2  130.69   10.80
  -2  -3  -2  134.39    9.80
  -2   3   2  133.99   12.90
  -2  -2  -3  139.49    7.20
   3   2  -2  133.19   12.20
  -2   2   3  137.59    9.40
  -2   2  -3  144.59   14.30
  -3   2  -2  140.49   16.10
   2   2   3  147.59   12.00
   2   2   3  130.79   10.40
   2   3   2  135.29   11.30
  -2   3  -2  150.48   15.70
  -2  -2   3  130.59   11.20
   3   2   2  138.59   12.80
  -3  -3   0 1776.82   87.99
  -3  -3   0 1903.21   88.19
  -3   0  -3 1756.32   88.79
  -3   0  -3 1781.92   88.09
  -3   0   3 1879.41   86.79
  -3   0   3 1868.31   87.09
  -3   3   0 1840.12   91.39
   0  -3   3 1901.21   88.29
   0   3  -3 1851.21   88.09
   0   3   3 1823.12   84.79
   3  -3   0 1878.51   90.19
   3   0   3 1928.31   90.19
   3   3   0 1881.91   88.69
  -3  -3  -1    5.00    5.60
  -3  -3  -1   18.70    4.90
   3  -3   1   -8.80    6.80
   1   3  -3   10.50    5.60
  -3  -1  -3    2.00    6.00
  -3  -1  -3    0.90    4.00
   1  -3   3    2.40    5.60
  -1   3   3    6.00    3.60
  -3   1   3    1.00    3.80
   3   3  -1   11.10    6.40
  -3   3   1    0.80    6.80
  -1   3  -3    3.80    6.60
  -3   1  -3    5.00    7.20
  -3  -1   3    7.00    4.70
  -3  -3   1    2.20    4.80
   1   3   3    9.00    3.50
   3  -3  -1    2.50    5.40
  -3  -3   1    8.90    6.10
   3   1   3   17.80    6.90
  -3   3  -1   -4.20    7.80
   3   3   1    4.60    5.40
  -3  -3  -2 1391.86   63.29
  -3  -3  -2 1344.87   62.29
   3   3  -2 1322.97   64.09
  -3  -2  -3 1338.57   63.09
  -3  -2  -3 1331.17   61.19
   3  -2   3 1149.48   65.29
   2  -3   3 1277.67   65.49
  -3   2   3 1292.77   61.99
  -3   3   2 1252.07   64.89
   3  -3   2 1160.68   65.59
   2   3  -3 1326.77   63.29
  -2   3   3 1180.88   62.19
  -3   2  -3 1278.77   66.19
  -2   3  -3 1346.07   65.99
   2   3   3 1277.57   61.69
  -2  -3   3 1302.97   63.69
  -3  -2   3 1299.77   63.39
   3   2   3 1205.68   64.29
  -3  -3   2 1311.57   64.09
   3   3   2 1291.77   63.19
  -3  -3  -3   51.89    8.60
  -3  -3  -3   54.39    8.00
   3   3  -3   46.00    9.40
   3  -3   3   35.70   11.20
  -3   3   3   41.40    9.10
  -3   3  -3   45.40   12.70
  -3  -3   3   53.39   12.70
   3   3   3   51.49    9.10
   3   3   3   44.70    8.40
  -4   0   0 4094.29  185.78
   0  -4   0 3962.80  184.28
   0   0   4 4011.10  181.58
   0   4   0 4240.78  184.98
   4   0   0 3781.82  185.48
  -1   0   4  187.38   11.70
   0  -4  -1  204.68   14.70
   0   4  -1  201.48   16.20
   0   4   1  213.08   15.10
   1   0   4  198.08   13.40
   4   1   0  260.27   16.00
  -4  -1   0  247.38   16.40
  -4   1   0  180.98   17.40
  -4  -1   0  221.58   16.70
   4  -2   0 2458.75  120.69
  -2   0  -4 2670.83  115.49
  -2   0  -4 2603.04  115.59
   2   0   4 2269.77  118.79
   0  -4  -2 2421.26  114.79
   0  -4   2 2625.24  120.09
  -4  -2   0 2563.84  120.09
  -4   2   0 2443.66  121.89
  -2   0   4 2628.44  116.49
   0   4  -2 2675.43  120.59
   0   4   2 2604.94  117.69
  -4  -2   0 2500.55  119.59
  -4  -3   0  138.69   17.10
  -4   3   0  137.79   19.40
  -3   0  -4  135.29   14.30
  -4  -3   0  135.49   15.30
   0   4  -3  102.29   22.20
   0   4   3  134.99   11.00
   3   0   4  169.58   16.40
   4  -3   0  166.28   18.30
  -3   0  -4  120.59   12.40
  -3   0   4  120.59   11.50
   1  -4   0  161.88   14.90
   1   4   0  199.18   14.90
   0   1   4  198.98   10.20
  -4   0  -1  192.78   17.30
   0  -1   4  208.18   13.10
  -4   0   1  210.28   16.10
  -1   4   0  206.58   16.00
  -1  -4   0  205.68   14.10
  -4  -1  -1 2199.88  105.29
  -4  -1  -1 2154.98  105.19
   4  -1   1 2157.48  106.89
  -1  -4  -1 2284.77  102.69
  -4   1   1 2215.58  105.19
  -1   4   1 2271.47  104.39
   1  -1   4 2201.38  103.29
   1  -4   1 2284.77  104.99
   1   4  -1 2284.17  104.79
  -1  -4  -1 2143.29  102.79
   4   1   1 2372.96  106.59
  -4   1  -1 2025.10  106.09
   1  -4  -1 1915.01  103.39
   1   4   1 2234.78  103.69
   4  -1  -1 2367.66  104.49
  -4  -1   1 2165.68  104.49
  -1   1  -4 2265.17  100.99
  -1  -4   1 2298.57  104.49
  -4  -1   1 2257.27  105.29
   1   1   4 1950.10  101.79
  -1  -1   4 2146.79  101.89
  -1   4  -1 2424.96  106.29
  -4  -2  -1  189.28   15.80
  -1  -4  -2  205.78   12.30
  -4   2   1  164.98   17.50
  -4  -2  -1  182.78   16.50
   2  -1   4  225.18   15.80
   4  -2   1  198.48   19.20
  -1  -4  -2  187.38   13.00
   1   4  -2  221.48   17.10
   1  -4   2  180.98   16.40
  -1   4   2  198.28   14.80
  -1   4  -2  211.48   18.20
   2   1   4  187.88   15.60
  -2  -1   4  187.08   13.30
  -2   1  -4  203.48   14.80
   1   4   2  206.78   14.40
  -4  -2   1  181.08   15.50
  -4   2  -1  200.98   21.70
  -4  -2   1  174.68   17.50
  -1  -4   2  175.88   15.10
   4  -2  -1  199.28   15.90
  -1   4   3 1078.79   50.89
   4  -3   1  899.01   62.19
  -3  -1  -4 1126.09   49.60
  -4  -3  -1 1056.79   54.49
  -4   3   1  865.11   58.29
  -4  -3  -1 1070.49   53.79
   1  -4   3 1054.69   55.09
   1   4  -3  908.91   56.29
  -3  -1  -4 1025.50   50.39
   3  -1   4 1000.40   55.09
  -3   1   4 1083.39   50.49
   4   3  -1  994.00   54.09
  -1   4  -3 1113.29   55.99
   1   4   3 1011.00   50.69
   3   1   4 1038.00   55.09
  -4  -3   1 1035.30   54.09
   4   3   1 1035.10   53.99
  -3   1  -4 1001.70   54.09
  -1  -4   3 1046.10   54.49
   4  -3  -1 1192.68   53.79
   0  -2   4 2561.04  115.29
   0   2   4 2254.47  111.19
  -4   0  -2 2304.17  117.59
  -2  -4   0 2610.64  115.99
  -2   4   0 2640.54  118.89
  -4   0   2 2583.34  116.19
  -4   0   2 2131.49  116.29
   2  -4   0 2420.86  117.09
   2   4   0 2632.44  116.69
   0   2  -4 2617.04  114.09
  -4   0  -2 2422.66  117.89
   4   0   2 2532.05  119.19
   0   2   4 2391.86  110.69
  -4   1   2  197.08   16.00
  -2  -4  -1  208.28   14.30
  -2   4   1  181.18   17.90
   2  -4   1  176.28   17.20
   1   2  -4  196.98   13.50
  -4  -1  -2  171.08   17.60
   2   4  -1  207.68   18.50
  -2  -4  -1  214.88   15.10
   4  -1   2  206.78   19.60
  -2  -4   1  202.98   16.00
  -2   4  -1  197.78   21.10
  -4   1  -2  183.98   19.00
   2   4   1  194.38   15.30
  -4  -1   2  193.28   15.90
   1   2   4  190.38   13.20
  -1   2  -4  213.78   14.90
  -4  -1   2  206.28   16.20
   4   1   2  216.08   19.00
   2  -4  -1  191.38   16.20
   1   2   4  187.88   11.60
  -2  -4  -2 1665.63   78.59
  -2   4   2 1706.63   81.89
   2  -4   2 1577.84   83.39
  -4  -2  -2 1750.92   81.49
   4  -2   2 1579.54   90.59
   2  -2   4 1605.94   81.89
  -2   2   4 1643.74   76.59
  -4  -2  -2 1611.34   81.59
   2   4  -2 1671.03   81.79
  -2  -4  -2 1663.03   78.69
  -4   2   2 1604.74   81.59
   2   2   4 1767.42   80.69
  -2  -2   4 1719.53   79.89
  -4   2  -2 1699.93   84.89
  -2   2  -4 1740.63   81.69
   4   2   2 1901.31   84.29
  -2   4  -2 1635.44   83.89
  -2  -4   2 1497.75   88.09
  -4  -2   2 1648.83   81.59
   2   4   2 1674.33   80.19
  -2   4   3  144.89   15.20
  -3   2   4  140.09   11.90
  -4  -3  -2  117.19   15.90
   4  -3   2  153.38   18.40
   2  -4   3  110.79   17.50
  -4  -3  -2  128.19   14.40
   2   4  -3  131.89   16.20
   3  -2   4  122.59   16.70
  -4  -3   2  125.69   15.50
  -2  -4   3  126.79   15.60
  -3   2  -4  137.99   18.80
   2   4   3  131.69   13.20
  -3  -2   4  136.69   14.00
   0   3   4  131.49    8.50
   3  -4   0  111.59   17.00
   0  -3   4  137.49   13.80
   0   3  -4  143.99   14.00
  -3  -4   0  122.89   13.80
  -3   4   0  120.39   19.50
   3   4   0  151.38   19.90
   4   0   3  162.58   18.30
  -4   0  -3  159.88   17.50
  -4   0  -3  104.19   15.40
  -4   0   3  132.19   13.80
  -4  -1  -3 1038.20   55.39
  -3  -4  -1 1067.29   53.99
  -1   3   4 1106.39   49.70
   1  -3   4 1068.79   55.29
   1   3  -4 1038.00   53.29
  -3  -4  -1 1087.29   53.89
   3  -4   1 1007.50   56.69
  -4   1   3 1056.69   53.49
   1   3   4 1031.60   50.29
   1   3   4 1042.00   50.59
   4   1   3 1079.79   57.89
   3   4   1 1026.10   54.39
  -3  -4   1 1097.69   55.09
  -3  -4   1 1012.90   55.09
  -4  -1   3 1039.60   54.09
  -4   1  -3 1125.09   57.69
   3  -4  -1 1029.30   54.59
  -1  -3   4 1043.60   53.99
  -1   3  -4 1152.38   55.29
   4  -2   3  130.99   17.70
  -3  -4  -2  117.89   12.20
   3  -4   2  126.69   18.10
  -4   2   3  127.79   14.60
  -4  -2  -3  136.79   16.70
   2   3  -4  137.99   14.80
  -2   3   4  113.99   12.30
   2  -3   4  128.99   17.30
  -3   4   2  129.59   18.70
  -3  -4  -2  126.29   14.30
   4   2   3  123.49   19.70
  -3  -4   2  134.89   15.60
   3   4   2  133.19   15.20
  -2   3  -4  138.69   18.30
  -4  -2   3  119.09   15.40
  -4   2  -3  147.59   20.20
  -4  -2   3  128.29   15.50
   2   3   4  148.59   12.60
   2   3   4  133.39   12.10
  -4  -3  -3  487.45   31.90
   3  -3   4  485.35   35.30
   4  -3   3  495.55   35.10
  -4   3   3  440.86   33.80
  -3  -4  -3  503.25   29.10
  -3  -4  -3  535.85   27.90
   3  -4   3  466.85   35.20
  -3   4   3  532.05   34.20
  -3   3   4  444.66   29.90
  -4   3  -3  638.64   38.80
  -3   4  -3  520.55   37.80
  -3  -3   4  539.45   32.10
  -3  -4   3  555.74   33.20
  -4  -3   3  558.04   32.70
   3   3   4  511.25   31.70
   3   4   3  514.55   31.20
  -3   3  -4  509.05   36.50
   4   3   3  592.44   35.00
  -4  -4   0  802.82   46.20
  -4   0  -4  849.91   47.40
  -4   0  -4  884.41   45.10
  -4   0   4  811.92   45.00
  -4   0   4  782.52   44.20
  -4   4   0  853.81   51.79
   0  -4   4  780.72   46.00
   0   4  -4  894.71   47.30
   0   4   4  824.82   41.10
   4  -4   0  833.62   49.99
   4   0   4  926.21   50.29
  -4  -4  -1  132.19   17.70
  -4  -4  -1  126.29   16.30
  -4   1   4   93.39   14.30
   4  -4   1  136.89   21.50
  -4  -1  -4  133.79   18.40
   4   4  -1  166.38   19.10
  -1   4   4  135.09   11.50
   4  -1   4  144.09   20.60
  -4   1   4  150.58   15.00
   1  -4   4  138.49   18.20
   1   4  -4  127.89   17.60
  -4   4   1  168.98   23.60
  -1  -4   4  143.19   17.00
  -1   4  -4  138.99   17.70
  -4  -1   4  149.19   15.60
  -4  -4   1  164.08   18.20
  -4   4  -1  173.98   25.10
   1   4   4  131.99   12.10
  -4  -4   1  153.18   17.00
  -4   1  -4  150.78   20.80
   4   1   4  130.59   18.50
  -4  -1   4  127.99   15.80
   4   4   1  126.09   17.10
  -4  -4  -2  555.24   34.80
  -4  -4  -2  523.95   33.00
   2   4  -4  555.14   35.00
   4   4  -2  527.55   35.50
  -4  -2  -4  593.94   33.00
  -4  -2  -4  562.14   30.30
   4  -2   4  579.14   38.20
   2  -4   4  489.65   36.40
  -4   2   4  523.05   32.30
  -2   4   4  561.84   31.40
  -4   4   2  573.54   38.80
   4  -4   2  515.55   37.80
  -4   4  -2  598.94   40.60
  -2  -4   4  540.15   34.10
  -4  -4   2  526.85   35.50
   2   4   4  557.04   31.30
  -4   2  -4  598.74   39.00
  -4  -2   4  582.94   34.10
   4   2   4  581.04   38.50
  -4  -4   2  535.85   34.70
   4   4   2  546.45   35.00
  -4  -4  -3   95.69   14.40
   4   4  -3   68.79   14.20
  -4  -3  -4   82.19   12.80
  -4  -3  -4   84.39   11.40
   4  -3   4   93.89   16.70
  -3   4   4  103.59   14.90
  -4   3   4  102.89   21.50
   4  -4   3  108.09   16.90
  -4   4   3   67.19   16.10
   3  -4   4   66.09   15.80
  -4   4  -3  121.89   22.00
  -4   3  -4  128.89   19.70
  -3  -4   4   89.19   13.90
   3   4   4  108.89   16.30
  -3   4  -4   89.89   19.00
  -4  -3   4   88.59   13.60
   4   3   4   98.29   16.00
  -4  -4   3   97.29   14.80
   4  -4   4  185.88   27.70
  -4   4   4  206.08   28.20
  -4   4  -4  257.87   36.30
  -4  -4   4  211.58   25.30
   0  -5   0   99.59   13.20
   0   0   5  108.09    9.30
   0   5   0  110.69   14.50
   5   0   0  130.99   15.60
   0  -5  -1  918.61   47.40
   0  -5   1  905.11   48.60
   1   0   5  891.71   45.70
   5  -1   0  909.91   50.39
  -5  -1   0  953.00   50.79
  -1   0   5  903.31   43.70
  -5   2   0   83.09   15.20
  -2   0   5  101.09    9.50
   0  -5  -2  111.79    8.30
   0  -5  -2   90.29   10.70
   0   5   2  113.09   13.30
  -5  -2   0   98.39   15.60
   0  -5   2  115.49   14.50
   0   5   3  505.65   29.00
   0   5  -3  530.15   34.90
   0  -5   3  494.95   32.80
  -5  -3   0  469.85   33.20
  -5  -3   0  488.75   32.70
  -5   3   0  471.45   36.80
  -3   0  -5  473.95   25.30
   3   0   5  476.15   32.80
   5  -3   0  509.85   35.90
  -3   0   5  568.94   27.60
  -3   0  -5  480.85   24.90
  -4   0   5  102.39   13.10
  -5  -4   0   78.99   14.60
  -5   4   0   69.79   19.20
  -4   0   5   84.69   11.80
   0  -5   4   67.79   14.20
  -4   0  -5   85.29   13.80
  -5  -4   0   85.79   15.70
   0   5  -4  101.59   18.10
   5  -4   0   93.89   18.00
   4   0   5   81.99   16.50
   0   5   4   72.29   10.30
   5   0   1  937.31   52.69
  -1  -5   0  952.30   48.80
  -5   0  -1  846.82   51.19
   1   5   0  947.81   49.90
  -5   0  -1  874.61   51.59
  -5   0   1  998.00   50.99
   0   1   5  947.51   44.20
  -1   5   0  992.30   51.19
   0  -1   5  960.40   46.80
   1  -5   0  903.31   49.50
   5  -1   1   37.90   12.10
  -5  -1  -1   48.10   11.70
  -1   1   5   32.70    4.60
  -1  -5  -1   30.80    7.50
   1  -5   1   41.40   11.40
  -1  -5  -1   40.10    7.50
  -5   1   1   47.10   11.00
  -5  -1  -1   40.50   11.20
  -5  -1   1   41.30   10.30
  -1  -1   5   34.00    6.00
  -1  -5   1   34.80   13.10
   1   5   1   39.80    9.10
   1  -5  -1   33.80    8.90
   5  -1  -1   38.20    9.80
   1   1   5   24.00    6.30
   5   1   1   46.60   11.80
  -5   2   1  661.23   41.30
  -1  -5  -2  725.83   34.80
  -1   5   2  728.93   38.50
  -1  -5  -2  639.54   36.10
  -5  -2  -1  692.93   40.20
  -2   1   5  688.13   33.60
   5  -2   1  671.03   43.10
   2  -1   5  608.74   38.30
   1  -5   2  681.63   40.50
  -5  -2   1  720.13   40.50
  -2   1  -5  718.33   34.30
  -1  -5   2  695.53   39.90
   2   1   5  709.63   38.60
   5  -2  -1  740.23   40.40
  -2   1  -5  645.94   34.30
   1   5   2  552.84   43.80
  -2  -1   5  805.32   36.00
  -5  -3  -1   58.89   12.90
   3  -1   5   76.79   13.60
  -1   5   3   66.69   10.10
   1  -5   3   54.19   12.00
  -5   3   1   71.09   15.90
  -3   1   5   54.59    8.00
  -3   1   5   58.79    9.30
   1   5  -3   51.79   12.90
   5  -3   1   49.80   14.50
  -5  -3   1   63.49   11.70
   5  -3  -1   75.29   13.60
  -1   5  -3   65.09   15.10
  -5  -3   1   71.69   13.40
   3   1   5   64.49   12.70
  -1  -5   3   52.99   11.50
  -3   1  -5   72.39   11.50
  -3  -1   5   61.29    9.50
  -3   1  -5   47.70    9.40
  -5   3  -1   51.09   16.00
   5  -4   1  347.97   31.70
  -5  -4  -1  327.27   28.50
   1   5  -4  304.17   29.10
   4  -1   5  271.77   28.10
  -5  -4  -1  291.17   26.40
  -4  -1  -5  237.98   19.50
  -4   1   5  299.17   21.60
  -4  -1  -5  276.17   17.10
   1  -5   4  293.17   26.70
  -1   5   4  293.47   21.10
  -5   4   1  303.67   32.30
  -5   4  -1  319.17   33.30
  -1   5  -4  318.87   31.60
  -4  -1   5  342.27   25.00
  -5  -4   1  314.17   28.10
   5  -4  -1  253.37   29.10
  -4   1  -5  281.17   24.80
  -4   1  -5  284.47   28.40
   4   1   5  381.46   31.40
  -5  -4   1  308.47   26.60
  -1  -5   4  297.37   26.70
  -4  -1   5  332.57   24.00
   2   5   0  117.09   14.80
  -2  -5   0  108.59   14.10
  -5   0   2   89.29   18.40
   0   2   5  100.19    8.20
  -5   0  -2  114.29   16.20
  -5   0  -2   96.19   15.10
  -2   5   0  118.29   19.00
   2  -5   0   87.59   13.30
   0  -2   5  117.29   12.30
   0   2  -5  107.09    9.90
   5   0   2   80.39   14.70
  -5   0   2  113.49   15.30
  -2  -5  -1  701.63   37.90
  -5   1   2  709.53   40.50
   1  -2   5  702.03   39.00
  -2   5   1  702.13   41.60
  -2  -5  -1  721.13   38.00
   5  -1   2  722.93   43.40
   2  -5   1  631.64   40.50
  -5  -1  -2  678.43   41.90
  -5  -1  -2  642.04   41.30
  -1   2  -5  739.53   36.40
  -1  -2   5  685.33   37.20
  -2   5  -1  698.23   43.70
  -2  -5   1  691.63   39.70
   2  -5  -1  708.73   40.00
   1   2   5  683.43   36.00
   2   5   1  709.53   39.70
  -5  -1   2  698.63   39.90
   5   1   2  701.33   43.40
  -5  -1   2  714.83   41.70
  -5   2   2   84.79   14.00
  -2   5   2  130.49   18.40
  -2  -5  -2  110.09   13.00
  -2  -5  -2   93.29   12.30
   5  -2   2  111.29   16.80
   2  -2   5   84.49   13.60
  -2   2   5   97.49    7.70
  -5  -2  -2   84.59   13.90
  -5  -2  -2  119.49   15.80
   2  -5   2   90.09   14.70
   2   5  -2  108.59   15.30
   2   2   5   81.29   11.50
  -5   2  -2  106.19   17.20
  -2  -5   2   86.49   12.80
   5   2   2  126.29   19.10
  -5  -2   2  103.49   14.50
   2   5   2  101.89   15.00
  -2  -2   5   85.29   12.60
  -2   2  -5  100.89   15.20
  -5  -2   2  108.29   16.20
   2   5  -3  365.86   28.90
  -5   3   2  348.77   30.00
   3  -2   5  309.77   28.50
  -5  -3  -2  340.97   27.30
  -3   2   5  335.87   21.10
   2  -5   3  350.06   29.60
   5  -3   2  365.36   30.90
   3   2   5  399.56   28.70
  -5  -3   2  363.36   28.70
  -3   2  -5  370.66   29.30
  -3  -2   5  361.76   24.90
  -5  -3   2  325.77   26.90
  -5   3  -2  411.66   34.20
   2   5   3  344.17   24.70
  -2   5  -3  343.77   31.50
  -2  -5   3  375.86   27.80
  -4   2   5   68.29   11.70
  -5  -4  -2   34.30   15.60
  -5  -4  -2   88.59   15.70
   2   5  -4   76.19   16.20
  -5   4   2   75.09   18.60
   4  -2   5   87.09   17.30
   2  -5   4   68.09   16.20
  -2   5   4   82.99   12.80
   5  -4   2   58.49   17.90
  -2   5  -4   83.89   21.20
  -4   2  -5   73.19   18.30
  -5  -4   2   58.09   14.00
   4   2   5   76.09   17.10
  -5  -4   2   34.40   15.50
   2   5   4   83.89   12.70
  -4  -2   5   97.79   14.80
  -2  -5   4   67.89   15.40
  -5   4  -2   44.20   19.20
  -3   5   0  517.05   37.90
  -3  -5   0  498.85   31.30
  -5   0   3  467.55   32.10
   3   5   0  464.75   32.10
   0  -3   5  505.85   31.10
   0   3  -5  513.55   29.90
   0   3   5  458.85   23.90
   3  -5   0  505.95   36.00
  -5   0   3  512.85   32.00
   5   0   3  492.05   36.30
  -5   0  -3  508.35   35.00
  -5   0  -3  505.55   33.90
  -5  -1  -3   65.09   15.20
  -3  -5  -1   52.59   10.60
  -3   5   1   60.79   15.60
  -1   3   5   60.39    5.30
   1  -3   5   58.59   11.80
  -5   1   3   62.79   12.30
   3   5  -1   33.70   11.50
   5  -1   3   47.60   13.80
   3  -5   1   28.70   12.60
  -5  -1  -3   60.59   13.40
   1   3  -5   46.60    9.50
  -1   3  -5   51.89   11.20
   1   3   5   56.19    8.40
  -3   5  -1   59.09   16.70
   1   3   5   63.79    8.70
  -3  -5   1   63.29   11.70
   5   1   3   70.49   15.80
   3   5   1   64.79   12.80
  -3  -5   1   45.80   11.60
  -5  -1   3   65.09   12.20
  -5  -1   3   69.39   12.10
  -1  -3   5   69.39   11.00
  -3  -5  -2  332.87   24.90
   3   5  -2  344.17   27.90
  -2   3   5  307.07   21.10
  -3   5   2  394.56   31.70
   3  -5   2  319.67   29.60
  -5  -2  -3  341.07   29.40
   5  -2   3  412.66   31.80
   2  -3   5  381.16   28.90
  -5   2   3  365.06   28.20
  -3  -5  -2  377.96   24.50
  -5  -2  -3  322.07   38.20
  -5  -2   3  392.66   29.20
  -2   3  -5  405.26   30.80
  -5   2  -3  404.86   32.60
  -2  -3   5  359.16   25.80
  -3   5  -2  365.36   34.50
  -3  -5   2  376.86   27.60
   3   5   2  352.76   26.80
   5   2   3  399.46   32.30
  -5  -2   3  373.16   27.70
   5  -3   3   74.99   16.70
  -3  -5  -3   59.19    9.80
  -3  -5  -3   46.80    8.80
  -3   5   3   62.29   15.00
   3   5  -3   42.90   15.10
  -5   3   3   35.30   14.40
  -3   3   5   60.69   10.60
   3  -3   5   53.09   15.50
  -5  -3  -3   62.39   14.90
  -5  -3  -3   41.30   12.70
   3  -5   3   46.90   15.50
  -3  -3   5   69.89   13.10
  -5  -3   3   61.89   14.50
  -3  -5   3   52.69   12.20
   3   5   3   61.99   12.50
  -5  -3   3   68.09   14.40
  -5   3  -3   53.69   19.10
  -3   5  -3   49.60   19.40
   3   3   5   84.89   13.60
  -4  -5   0   91.29   13.70
  -4   5   0   96.39   21.80
   0  -4   5   71.79   13.00
  -4  -5   0  117.49   17.00
  -5   0   4   92.99   13.70
   0   4   5   94.19    9.80
   4  -5   0   99.49   19.20
  -5   0  -4   66.39   14.80
   5   0   4   92.69   18.10
  -5   0   4   82.99   13.90
  -5   0  -4   74.09   16.10
   0   4  -5   72.89   14.70
   4   5   0   99.69   16.60
  -1   4   5  286.97   17.20
   5  -1   4  317.47   30.10
  -4  -5  -1  229.08   25.40
  -5  -1  -4  323.17   29.40
   1  -4   5  315.57   27.40
   1   4  -5  309.27   26.70
   4   5  -1  326.97   29.10
  -4   5   1  318.07   33.50
  -5   1   4  304.07   25.50
  -5   1   4  287.57   25.60
   4  -5   1  277.07   29.70
  -4  -5  -1  282.87   25.40
  -5  -1  -4  304.57   40.10
   4   5   1  290.67   26.70
  -4   5  -1  283.97   33.70
  -5   1  -4  300.97   28.60
  -1  -4   5  260.67   24.20
  -4  -5   1  292.47   26.00
  -4  -5   1  313.47   28.60
  -5  -1   4  333.77   27.00
  -5  -1   4  270.97   25.50
   1   4   5  287.57   19.10
   5   1   4  311.67   30.90
   4  -5  -1  263.27   26.90
  -5  -2  -4   59.59   12.90
   5  -2   4  104.29   19.60
  -4  -5  -2   97.99   14.80
  -4   5   2   57.79   20.30
  -5  -2  -4  101.39   16.90
  -4  -5  -2   84.09   15.90
  -2   4   5   93.39   12.70
   2  -4   5   90.99   16.80
   2   4  -5   74.49   15.40
   4  -5   2   70.49   18.50
   4   5  -2   88.19   17.30
  -5   2   4   86.19   14.80
  -4  -5   2   52.19   14.30
   5   2   4   71.69   18.20
  -2   4  -5   72.49   19.20
  -5  -2   4   69.79   15.00
  -5  -2   4  107.69   16.20
  -5   2  -4   75.79   18.80
  -4   5  -2   66.19   22.10
   4   5   2   73.59   15.60
  -2  -4   5   74.99   13.70
  -4  -5   2   88.79   17.30
  -6   0   0  530.55   39.10
  -6   0   0  589.04   40.20
   0  -6   0  589.94   36.70
   0   0   6  618.94   31.90
   0   6   0  604.84   37.80
   6   0   0  613.74   39.90
  -6   1   0  104.39   17.90
  -1   0   6  112.99   11.40
   0  -6  -1  164.78   17.40
   0  -6   1  105.59   15.20
   0   6  -1  122.29   19.90
   0   6   1  115.89   18.70
   6  -1   0  145.49   21.70
  -6  -1   0  154.28   22.10
  -6  -1   0  112.59   17.80
   2   0   6  363.56   28.20
  -6   2   0  355.06   33.70
  -2   0   6  453.35   23.80
   0  -6  -2  418.36   21.60
   6  -2   0  384.56   34.00
   0  -6   2  415.06   31.00
   0   6  -2  457.95   35.00
  -6  -2   0  438.76   32.00
  -6  -2   0  401.26   33.00
   0  -6  -2  350.56   23.60
   0   6   2  463.25   29.70
  -6  -3   0   82.99   18.80
   0  -6   3   86.19   16.40
   0   6  -3   97.09   20.50
   0   6   3   88.49   13.80
   3   0   6   92.39   16.10
   6  -3   0   81.29   19.70
  -6  -3   0   62.49   16.20
  -6   3   0   70.99   20.30
  -3   0   6  119.99   13.30
  -1  -6   0  108.79   17.40
  -1   6   0  111.19   16.50
   0   1   6  119.79   10.80
   1  -6   0   79.79   14.60
  -6   0  -1  121.49   18.60
  -6   0   1  111.39   17.40
  -6   0   1  137.19   19.20
  -6   0  -1  101.09   17.80
   1   6   0  131.79   17.30
   6   0   1   92.79   17.50
   1   6  -1  456.15   32.40
  -1  -6  -1  409.26   26.80
   6  -1   1  393.36   32.50
  -6  -1  -1  407.46   33.30
  -1   6   1  447.26   31.30
  -6  -1  -1  399.86   33.80
   1  -6   1  409.26   31.10
  -1  -6  -1  437.66   28.80
  -1   1   6  440.26   22.00
  -6   1   1  395.96   33.60
   1  -1   6  409.96   27.50
  -6  -1   1  445.46   32.50
  -1  -6   1  408.56   29.50
  -6   1  -1  374.16   34.20
   1   6   1  442.96   30.80
   6   1   1  443.16   33.80
   1  -6  -1  431.46   29.50
  -6  -1   1  389.06   31.40
  -1   6  -1  407.16   32.90
   1   1   6  385.46   25.50
   2  -1   6   79.19   13.70
  -2   1   6   99.59    9.70
  -1  -6  -2   96.89   12.20
  -6   2   1   85.59   17.60
   1  -6   2  107.99   17.00
   1   6  -2  117.39   19.10
  -6  -2  -1   73.09   16.80
  -1   6   2  113.79   15.90
  -1  -6  -2   74.79   12.00
  -6  -2  -1   95.99   16.70
   6  -2   1   97.39   19.30
  -1   6  -2  102.79   18.60
   1   6   2  103.09   15.00
   6  -2  -1  104.59   16.90
  -6  -2   1   94.59   16.80
  -2  -1   6  116.59   13.60
  -6  -2   1  116.29   17.40
  -6   2  -1   98.59   19.50
  -1  -6   2   69.09   14.00
   6  -3   1  225.78   32.00
  -3   1   6  227.18   17.60
   3  -1   6  234.38   26.70
   1   6  -3  235.58   30.60
  -1   6   3  224.78   23.10
   1  -6   3  209.48   26.80
  -6  -3  -1  221.78   29.30
  -3   1   6  260.17   17.30
  -6  -3  -1  214.48   27.50
  -6   3   1  227.08   31.90
  -1   6  -3  211.58   32.40
   6  -3  -1  234.98   29.60
  -6   3  -1  237.88   33.50
  -6  -3   1  235.98   27.30
  -3  -1   6  203.58   22.20
   3   1   6  227.18   26.80
   1   6   3  246.58   23.40
  -6  -3   1  189.18   28.60
  -1  -6   3  227.68   25.80
  -6   0   2  439.76   33.00
   6   0   2  394.16   34.90
  -6   0  -2  409.86   33.90
  -2  -6   0  423.36   29.70
  -6   0  -2  377.66   34.90
   0  -2   6  470.35   28.50
   2   6   0  422.06   31.70
   2  -6   0  384.76   32.40
   0   2   6  411.66   23.10
  -2   6   0  447.36   36.20
  -6   0   2  435.56   33.60
  -6  -1  -2   69.09   17.40
   6  -1   2   73.59   17.20
  -2   6   1   75.29   17.70
  -2  -6  -1   83.79   15.70
  -6  -1  -2  122.79   18.70
   2   6  -1  111.49   17.80
   2  -6   1   74.99   15.50
   1  -2   6  103.99   15.00
  -6   1   2  116.59   17.90
  -6   1   2   79.49   16.60
  -1   2   6   93.89    6.80
  -2  -6  -1   86.19   14.00
   1   2   6  107.39   14.30
   2   6   1  146.79   21.20
  -6   1  -2  104.09   20.20
   6   1   2   71.99   17.50
  -2   6  -1  120.59   19.90
  -2  -6   1  134.09   19.30
  -6  -1   2   86.59   16.20
  -6  -1   2   85.49   16.00
  -1  -2   6  129.09   15.70
   2   6  -2  277.17   31.00
   2  -2   6  265.67   26.60
  -2   2   6  293.47   16.30
  -6   2   2  271.07   31.30
   6  -2   2  331.17   33.70
  -2   6   2  326.17   29.60
   2  -6   2  229.98   28.20
  -6  -2  -2  292.17   31.00
  -6  -2  -2  308.67   30.00
  -2  -6  -2  301.47   21.90
  -2   2   6  306.17   16.20
  -6  -2   2  311.27   29.50
   2   6   2  311.07   27.20
  -6   2  -2  286.07   32.70
  -2  -6   2  265.57   25.80
  -2  -2   6  352.26   23.80
  -2   2  -6  262.67   18.90
  -6  -2   2  321.17   30.60
   6   2   2  341.87   32.60
  -2   6  -2  247.28   31.80
   0   3  -6   66.19   11.20
   3  -6   0   81.39   18.60
  -6   0   3  100.99   17.20
   3   6   0  101.09   18.30
  -6   0  -3   72.69   18.20
   0  -3   6   92.09   14.70
  -3   6   0   44.30   20.10
   6   0   3   64.29   18.20
  -3  -6   0   67.69   13.90
  -6   0   3   74.19   15.70
  -3  -6   0   83.99   15.80
  -6   0  -3   69.09   17.30
   1  -3   6  228.08   25.00
   6  -1   3  286.87   31.60
  -6  -1  -3  235.38   31.50
   3  -6   1  186.88   27.70
   3   6  -1  242.28   29.30
  -3   6   1  243.28   34.40
  -6  -1  -3  277.57   29.70
  -3  -6  -1  206.28   23.60
  -6   1   3  211.78   27.60
  -6   1   3  196.08   28.10
  -6   1  -3  231.48   29.50
  -6   1  -3  222.58   31.40
  -6  -1   3  230.98   26.00
  -6  -1   3  237.28   28.30
  -3  -6   1  213.58   26.20
  -3  -6   1  170.38   23.20
  -3   6  -1  247.28   37.40
   3   6   1  222.18   26.60
  -1  -3   6  210.48   22.10
  -1   3  -6  227.98   22.40
   6   1   3  231.18   33.00
   1   3   6  252.87   16.30
   3  -6  -1  215.38   27.50
   0   0   0    0.00    0.00

_computing_structure_solution     'SHELXT 2014/5 (Sheldrick, 2014)'
;
_shelx_hkl_checksum              93770
_olex2_submission_special_instructions 'No special instructions were received'
loop_
_space_group_symop_operation_xyz
'x, y, z'
'-y, x, z'
'-x, -y, z'
'y, -x, z'
'x, -z, y'
'x, -y, -z'
'x, z, -y'
'z, y, -x'
'-x, y, -z'
'-z, y, x'
'z, x, y'
'y, z, x'
'-y, -z, x'
'z, -x, -y'
'-y, z, -x'
'-z, -x, y'
'-z, x, -y'
'y, -z, -x'
'y, x, -z'
'-y, -x, -z'
'-x, z, y'
'-x, -z, -y'
'z, -y, x'
'-z, -y, -x'
'-x, -y, -z'
'y, -x, -z'
'x, y, -z'
'-y, x, -z'
'-x, z, -y'
'-x, y, z'
'-x, -z, y'
'-z, -y, x'
'x, -y, z'
'z, -y, -x'
'-z, -x, -y'
'-y, -z, -x'
'y, z, -x'
'-z, x, y'
'y, -z, x'
'z, x, -y'
'z, -x, y'
'-y, z, x'
'-y, -x, z'
'y, x, z'
'x, -z, -y'
'x, z, y'
'-z, y, -x'
'z, y, x'
loop_
_atom_site_label
_atom_site_type_symbol
_atom_site_fract_x
_atom_site_fract_y
_atom_site_fract_z
_atom_site_U_iso_or_equiv
_atom_site_adp_type
_atom_site_occupancy
_atom_site_site_symmetry_order
_atom_site_calc_flag
_atom_site_refinement_flags_posn
_atom_site_refinement_flags_adp
_atom_site_refinement_flags_occupancy
_atom_site_disorder_group
Cs1 Cs 0.000000 0.000000 0.000000 0.0833(6) Uani 1 48 d S T P .
Sn2 Sn 0.500000 0.500000 0.500000 0.0327(5) Uani 0.9 48 d S T P 1
Cl1 Cl 0.500000 0.000000 0.500000 0.1302(18) Uani 1 16 d S T P .
Mn Mn 0.500000 0.500000 0.500000 0.0327(5) Uani 0.0998 48 d S T P 2
loop_
_atom_site_aniso_label
_atom_site_aniso_U_11
_atom_site_aniso_U_22
_atom_site_aniso_U_33
_atom_site_aniso_U_23
_atom_site_aniso_U_13
_atom_site_aniso_U_12
Cs1 0.0833(6) 0.0833(6) 0.0833(6) 0.000 0.000 0.000
Sn2 0.0327(5) 0.0327(5) 0.0327(5) 0.000 0.000 0.000
Cl1 0.152(2) 0.087(2) 0.152(2) 0.000 0.000 0.000
Mn 0.0327(5) 0.0327(5) 0.0327(5) 0.000 0.000 0.000
loop_
_atom_type_symbol
_atom_type_description
_atom_type_scat_dispersion_real
_atom_type_scat_dispersion_imag
_atom_type_scat_source
Cl Cl 0.1484 0.1585 'International Tables Vol C Tables 4.2.6.8 and 6.1.1.4'
Sn Sn -0.6537 1.4246 'International Tables Vol C Tables 4.2.6.8 and 6.1.1.4'
Mn Mn 0.3368 0.7283 'International Tables Vol C Tables 4.2.6.8 and 6.1.1.4'
Cs Cs -0.3680 2.1192 'International Tables Vol C Tables 4.2.6.8 and 6.1.1.4'
loop_
_geom_angle_atom_site_label_1
_geom_angle_atom_site_label_2
_geom_angle_atom_site_label_3
_geom_angle
_geom_angle_site_symmetry_1
_geom_angle_site_symmetry_3
Cl1 Cs1 Cl1 60.0 5_565 .
Cl1 Cs1 Cl1 180.0 5_465 5
Cl1 Cs1 Cl1 120.0 2 5
Cl1 Cs1 Cl1 60.0 5_565 2_554
Cl1 Cs1 Cl1 60.0 1_454 5_465
Cl1 Cs1 Cl1 120.0 2_544 1_455
Cl1 Cs1 Cl1 90.0 2_544 2_554
Cl1 Cs1 Cl1 120.0 1_455 2_554
Cl1 Cs1 Cl1 60.0 2 5_465
Cl1 Cs1 Cl1 90.0 1_454 1_554
Cl1 Cs1 Cl1 60.0 . 5
Cl1 Cs1 Cl1 60.0 2 1_455
Cl1 Cs1 Cl1 120.0 1_454 5
Cl1 Cs1 Cl1 120.0 5_565 2_545
Cl1 Cs1 Cl1 180.0 2_545 2_554
Cl1 Cs1 Cl1 180.0 5_565 5_455
Cl1 Cs1 Cl1 90.0 5_455 5_465
Cl1 Cs1 Cl1 90.0 . 1_554
Cl1 Cs1 Cl1 120.0 2_544 5_465
Cl1 Cs1 Cl1 60.0 2_544 1_554
Cl1 Cs1 Cl1 90.0 5_565 5
Cl1 Cs1 Cl1 120.0 5_565 1_455
Cl1 Cs1 Cl1 90.0 5_455 5
Cl1 Cs1 Cl1 120.0 . 5_455
Cl1 Cs1 Cl1 60.0 2_544 5
Cl1 Cs1 Cl1 60.0 2_545 1_455
Cl1 Cs1 Cl1 90.0 2 2_554
Cl1 Cs1 Cl1 120.0 5_455 2_554
Cl1 Cs1 Cl1 60.0 2_544 1_454
Cl1 Cs1 Cl1 60.0 5_455 2_545
Cl1 Cs1 Cl1 90.0 5_565 5_465
Cl1 Cs1 Cl1 60.0 5_565 2
Cl1 Cs1 Cl1 120.0 5_465 2_545
Cl1 Cs1 Cl1 60.0 5 2_545
Cl1 Cs1 Cl1 60.0 5_455 2_544
Cl1 Cs1 Cl1 60.0 5_565 1_554
Cl1 Cs1 Cl1 120.0 5_455 1_554
Cl1 Cs1 Cl1 120.0 2 1_554
Cl1 Cs1 Cl1 180.0 2 2_544
Cl1 Cs1 Cl1 60.0 . 2
Cl1 Cs1 Cl1 120.0 5_465 1_554
Cl1 Cs1 Cl1 60.0 5 1_554
Cl1 Cs1 Cl1 120.0 5_565 1_454
Cl1 Cs1 Cl1 120.0 2_545 1_554
Cl1 Cs1 Cl1 90.0 . 1_455
Cl1 Cs1 Cl1 60.0 5_455 1_455
Cl1 Cs1 Cl1 180.0 . 1_454
Cl1 Cs1 Cl1 120.0 5_455 2
Cl1 Cs1 Cl1 90.0 1_454 1_455
Cl1 Cs1 Cl1 60.0 5_465 1_455
Cl1 Cs1 Cl1 60.0 5_455 1_454
Cl1 Cs1 Cl1 120.0 5 1_455
Cl1 Cs1 Cl1 180.0 1_554 1_455
Cl1 Cs1 Cl1 120.0 . 2_554
Cl1 Cs1 Cl1 60.0 1_454 2_554
Cl1 Cs1 Cl1 120.0 5_565 2_544
Cl1 Cs1 Cl1 120.0 5 2_554
Cl1 Cs1 Cl1 60.0 . 2_545
Cl1 Cs1 Cl1 60.0 1_554 2_554
Cl1 Cs1 Cl1 60.0 5_465 2_554
Cl1 Cs1 Cl1 90.0 2_544 2_545
Cl1 Cs1 Cl1 90.0 2 2_545
Cl1 Cs1 Cl1 120.0 1_454 2_545
Cl1 Cs1 Cl1 120.0 . 2_544
Cl1 Cs1 Cl1 120.0 . 5_465
Cl1 Cs1 Cl1 120.0 2 1_454
Cl1 Sn2 Cl1 90.0 5_566 .
Cl1 Sn2 Cl1 90.0 . 2
Cl1 Sn2 Cl1 90.0 2 5_565
Cl1 Sn2 Cl1 180.0 2 2_655
Cl1 Sn2 Cl1 90.0 1_565 2
Cl1 Sn2 Cl1 90.0 2_655 5_565
Cl1 Sn2 Cl1 90.0 5_566 1_565
Cl1 Sn2 Cl1 90.0 1_565 2_655
Cl1 Sn2 Cl1 180.0 5_566 5_565
Cl1 Sn2 Cl1 90.0 . 5_565
Cl1 Sn2 Cl1 180.0 . 1_565
Cl1 Sn2 Cl1 90.0 1_565 5_565
Cl1 Sn2 Cl1 90.0 5_566 2_655
Cl1 Sn2 Cl1 90.0 5_566 2
Cl1 Sn2 Cl1 90.0 . 2_655
Cs1 Cl1 Cs1 180.0 . 1_656
Cs1 Cl1 Cs1 90.0 . 1_556
Cs1 Cl1 Cs1 90.0 1_656 1_556
Cs1 Cl1 Cs1 90.0 1_656 1_655
Cs1 Cl1 Cs1 180.0 1_655 1_556
Cs1 Cl1 Cs1 90.0 . 1_655
Sn2 Cl1 Cs1 90.0 . 1_656
Sn2 Cl1 Cs1 90.0 1_545 1_656
Sn2 Cl1 Cs1 90.0 . 1_556
Sn2 Cl1 Cs1 90.0 1_545 .
Sn2 Cl1 Cs1 90.0 . .
Sn2 Cl1 Cs1 90.0 . 1_655
Sn2 Cl1 Cs1 90.0 1_545 1_655
Sn2 Cl1 Cs1 90.0 1_545 1_556
Sn2 Cl1 Sn2 180.0 1_545 .
Mn Cl1 Cs1 90.0 . .
Cl1 Mn Cl1 90.0 . 2_655
Cl1 Mn Cl1 90.0 . 2
Cl1 Mn Cl1 90.0 5_566 2
Cl1 Mn Cl1 90.0 5_566 2_655
Cl1 Mn Cl1 90.0 1_565 2
Cl1 Mn Cl1 90.0 . 5_565
Cl1 Mn Cl1 90.0 1_565 2_655
Cl1 Mn Cl1 180.0 2 2_655
Cl1 Mn Cl1 90.0 5_566 .
Cl1 Mn Cl1 90.0 2_655 5_565
Cl1 Mn Cl1 90.0 1_565 5_565
Cl1 Mn Cl1 90.0 2 5_565
Cl1 Mn Cl1 90.0 5_566 1_565
Cl1 Mn Cl1 180.0 5_566 5_565
Cl1 Mn Cl1 180.0 . 1_565
loop_
_geom_bond_atom_site_label_1
_geom_bond_atom_site_label_2
_geom_bond_distance
_geom_bond_site_symmetry_2
Cs1 Cl1 3.9258(6) 5_565
Cs1 Cl1 3.9258(6) 1_454
Cs1 Cl1 3.9258(6) 2
Cs1 Cl1 3.9258(6) 1_455
Cs1 Cl1 3.9258(6) 2_544
Cs1 Cl1 3.9258(6) 5
Cs1 Cl1 3.9258(6) .
Cs1 Cl1 3.9258(6) 2_545
Cs1 Cl1 3.9258(6) 5_455
Cs1 Cl1 3.9258(6) 1_554
Cs1 Cl1 3.9258(6) 5_465
Cs1 Cl1 3.9258(6) 2_554
Sn2 Cl1 2.7759(4) 5_566
Sn2 Cl1 2.7759(4) .
Sn2 Cl1 2.7759(4) 2_655
Sn2 Cl1 2.7759(4) 2
Sn2 Cl1 2.7759(4) 1_565
Sn2 Cl1 2.7759(4) 5_565
Cl1 Mn 2.7759(4) .
