#------------------------------------------------------------------------------
#$Date: 2021-02-04 00:33:00 +0200 (Thu, 04 Feb 2021) $
#$Revision: 261429 $
#$URL: file:///home/coder/svn-repositories/cod/cif/4/00/38/4003863.cif $
#------------------------------------------------------------------------------
#
# This file is available in the Crystallography Open Database (COD),
# http://www.crystallography.net/
#
# All data on this site have been placed in the public domain by the
# contributors.
#
data_4003863
loop_
_publ_author_name
'Calder\'on-Cueva, Mario'
'Peng, Wanyue'
'Clarke, Samantha M.'
'Ding, Jingxuan'
'Brugman, Benjamin L.'
'Levental, Gill'
'Balodhi, Ashiwini'
'Rylko, Megan'
'Delaire, Olivier'
'Walsh, James P. S.'
'Dorfman, Susannah M.'
'Zevalkink, Alexandra'
_publ_section_title
;
 Anisotropic Structural Collapse of Mg3Sb2 and Mg3Bi2 at High Pressure
;
_journal_issue                   2
_journal_name_full               'Chemistry of Materials'
_journal_page_first              567
_journal_page_last               573
_journal_paper_doi               10.1021/acs.chemmater.0c03678
_journal_volume                  33
_journal_year                    2021
_chemical_formula_moiety         'Mg3 Sb2'
_chemical_formula_sum            'Mg3 Sb2'
_chemical_formula_weight         316.43
_space_group_crystal_system      trigonal
_space_group_IT_number           164
_space_group_name_Hall           '-P 3 2"'
_space_group_name_H-M_alt        'P -3 m 1'
_atom_sites_solution_primary     direct
_audit_creation_date             2020-12-02
_audit_creation_method
;
Olex2 1.3
(compiled 2020.11.12 svn.r5f609507 for OlexSys, GUI svn.r6214)
;
_audit_update_record
;
2020-12-02 # Formatted by publCIF

;
_cell_angle_alpha                90
_cell_angle_beta                 90
_cell_angle_gamma                120
_cell_formula_units_Z            1
_cell_length_a                   4.4420(19)
_cell_length_b                   4.4420(19)
_cell_length_c                   7.001(6)
_cell_measurement_reflns_used    110
_cell_measurement_temperature    298.15
_cell_measurement_theta_max      15.40
_cell_measurement_theta_min      3.23
_cell_volume                     119.63(13)
_computing_cell_refinement       'SAINT V8.40A (Bruker, 2019)'
_computing_data_reduction        'SAINT V8.40A (Bruker, 2019)'
_computing_molecular_graphics    'Olex2 1.3 (Dolomanov et al., 2009)'
_computing_publication_material  'Olex2 1.3 (Dolomanov et al., 2009)'
_computing_structure_refinement  'XL  (Sheldrick, 2008)'
_computing_structure_solution    'XS  (Sheldrick, 2008)'
_diffrn_ambient_pressure         4880000
_diffrn_ambient_temperature      298.15
_diffrn_measured_fraction_theta_full 0.398
_diffrn_measured_fraction_theta_max 0.381
_diffrn_measurement_device_type  'Pilatus 1M'
_diffrn_measurement_method       '\f and \w scans'
_diffrn_radiation_type           synchrotron
_diffrn_radiation_wavelength     0.4335
_diffrn_reflns_av_R_equivalents  0.0489
_diffrn_reflns_av_unetI/netI     0.0315
_diffrn_reflns_Laue_measured_fraction_full 0.398
_diffrn_reflns_Laue_measured_fraction_max 0.381
_diffrn_reflns_limit_h_max       5
_diffrn_reflns_limit_h_min       -5
_diffrn_reflns_limit_k_max       4
_diffrn_reflns_limit_k_min       -5
_diffrn_reflns_limit_l_max       2
_diffrn_reflns_limit_l_min       -4
_diffrn_reflns_number            318
_diffrn_reflns_point_group_measured_fraction_full 0.398
_diffrn_reflns_point_group_measured_fraction_max 0.381
_diffrn_reflns_theta_full        15.076
_diffrn_reflns_theta_max         15.965
_diffrn_reflns_theta_min         3.230
_diffrn_source                   synchrotron
_diffrn_source_current           0.0
_diffrn_source_power             0.0
_diffrn_source_voltage           0.0
_diffrn_standards_number         0
_exptl_absorpt_coefficient_mu    3.052
_exptl_absorpt_correction_T_max  0.7440
_exptl_absorpt_correction_T_min  0.1420
_exptl_absorpt_correction_type   multi-scan
_exptl_absorpt_process_details
;
SADABS-2016/2 (Bruker,2016/2) was used for absorption correction.
wR2(int) was 0.1370 before and 0.0739 after correction.
The Ratio of minimum to maximum transmission is 0.1909.
The \l/2 correction factor is Not present.
;
_exptl_crystal_colour            'metallic dark grey'
_exptl_crystal_colour_lustre     metallic
_exptl_crystal_colour_modifier   dark
_exptl_crystal_colour_primary    grey
_exptl_crystal_density_diffrn    4.392
_exptl_crystal_description       hexagonal
_exptl_crystal_F_000             138
_exptl_crystal_preparation       'Directional flux growth'
_exptl_crystal_recrystallization_method 'Chemical vapor transport'
_exptl_crystal_size_max          0.04
_exptl_crystal_size_mid          0.04
_exptl_crystal_size_min          0.01
_refine_diff_density_max         5.344
_refine_diff_density_min         -5.263
_refine_diff_density_rms         0.959
_refine_ls_extinction_method     none
_refine_ls_goodness_of_fit_ref   1.511
_refine_ls_hydrogen_treatment    undef
_refine_ls_matrix_type           full
_refine_ls_number_parameters     6
_refine_ls_number_reflns         48
_refine_ls_number_restraints     0
_refine_ls_restrained_S_all      1.511
_refine_ls_R_factor_all          0.1006
_refine_ls_R_factor_gt           0.0826
_refine_ls_shift/su_max          0.000
_refine_ls_shift/su_mean         0.000
_refine_ls_structure_factor_coef Fsqd
_refine_ls_weighting_details
'w=1/[\s^2^(Fo^2^)+(0.1766P)^2^+2.9372P] where P=(Fo^2^+2Fc^2^)/3'
_refine_ls_weighting_scheme      calc
_refine_ls_wR_factor_gt          0.2198
_refine_ls_wR_factor_ref         0.2860
_reflns_Friedel_coverage         0.000
_reflns_number_gt                43
_reflns_number_total             48
_reflns_threshold_expression     'I > 2\s(I)'
_cod_data_source_file            cm0c03678_si_001.cif
_cod_data_source_block           Mg3Sb2_AP_4.88GPa
_cod_original_cell_volume        119.63(15)
_cod_database_code               4003863
_shelx_shelxl_version_number     2018/3
_shelx_space_group_comment
;
The symmetry employed for this shelxl refinement is uniquely defined
by the following loop, which should always be used as a source of
symmetry information in preference to the above space-group names.
They are only intended as comments.
;
_shelx_estimated_absorpt_t_max   0.970
_shelx_estimated_absorpt_t_min   0.888
_olex2_refinement_description
;
;
_shelx_res_file
;
TITL strong_absorption_0m in P-3m1 #164
    strong_absorption_0m.res
    created by SHELXL-2018/3 at 14:19:07 on 02-Dec-2020
REM reset to P-3m1 #164
CELL 0.4335 4.442 4.442 7.0008 90 90 120
ZERR 1 0.00191 0.00191 0.0064 0 0 0
LATT 1
SYMM -Y,+X-Y,+Z
SYMM +Y-X,-X,+Z
SYMM -Y+X,-Y,-Z
SYMM -X,-X+Y,-Z
SYMM +Y,+X,-Z
SFAC Mg Sb
DISP Mg 0.0086 0.0127 41.1863
DISP Sb -2.5055 0.6347 1763.9865
UNIT 3 2

L.S. 20
PLAN  1
SIZE 0.04 0.04 0.01
TEMP 25
CONF
fmap 2 53
acta
MORE -1
OMIT -4 5 3
OMIT -1 5 3
OMIT 0 2 2
OMIT -3 5 4
OMIT -2 3 3
OMIT -1 3 3
REM <olex2.extras>
REM <HklSrc "%.\\strong_absorption_0_V3m.hkl">
REM </olex2.extras>

WGHT    0.176600    2.937200
FVAR       0.30003
SB1   2    0.666667    0.333333    0.232223    10.16667    0.01217
MG1   1    1.000000    0.000000    0.000000    10.08333    0.00986
MG2   1    0.666667    0.333333    0.663544    10.16667    0.02028
HKLF 4




REM  strong_absorption_0m in P-3m1 #164
REM wR2 = 0.285998, GooF = S = 1.51075, Restrained GooF = 1.51075 for all data
REM R1 = 0.082582 for 43 Fo > 4sig(Fo) and 0.100551 for all 48 data
REM 6 parameters refined using 0 restraints

END

WGHT      0.1727      3.2543

REM Highest difference peak  5.344,  deepest hole -5.263,  1-sigma level  0.959
Q1    1   0.6667  0.3333  0.0798  10.16667  0.05    5.34
;
_shelx_res_checksum              31562
_shelx_hkl_file
;
   1   0   0  173.23   10.08
   1   0   0  178.17   10.09
  -1   1   0  194.31   10.24
   1   0   0  195.95   10.45
  -1   1   0  186.71   10.13
   0  -1   0  169.17   10.11
   0  -1   0  179.18   10.57
   0  -1   0  171.34   10.13
   1  -1   0  176.63   10.15
   1  -1   0  184.68   10.22
  -1   0   0  172.41   10.40
   1  -1   0  164.09   10.12
   0   1   0  174.02   10.11
   1  -2   0  905.73   50.20
   1   1   0  922.56   50.43
  -2   1   0 1000.00   49.80
   1   1   0  888.23   49.55
   1  -2   0  867.95   49.63
   1  -2   0  860.20   49.68
  -2   1   0  819.75   49.60
  -1  -1   0  867.19   49.55
  -1  -1   0  850.25   49.56
  -1  -1   0  871.23   50.40
  -1   2   0  787.83   49.61
   2  -1   0  898.36   49.65
  -1   2   0  833.79   50.13
   2  -1   0  877.67   49.60
   2  -1   0  918.85   49.73
   0  -2   0  106.37    6.14
   2   0   0  107.54    6.06
   0  -2   0  108.63    6.99
  -2   2   0  107.62    6.13
   0  -2   0  108.17    6.10
   2   0   0  106.42    6.04
   2   0   0  110.29    6.71
   0   2   0  106.74    6.09
   2  -2   0  116.63    6.35
  -2   0   0  101.26    6.04
   2  -2   0  101.66    6.18
  -2   0   0  101.13    6.65
   0   2   0  107.51    6.93
   2  -2   0  100.47    6.12
   1   2   0   79.81    4.49
   2  -3   0   80.20    4.68
  -3   1   0   76.63    4.52
   2  -3   0   75.45    4.57
  -3   1   0   73.75    4.90
   2  -3   0   80.31    5.22
   1   2   0   82.95    5.69
  -1  -2   0   75.62    4.49
  -2   3   0   80.71    5.20
  -2   3   0   79.73    4.58
   3  -1   0   77.42    4.92
   1  -3   0   76.21    4.37
   1  -3   0   71.37    5.23
  -3   2   0   77.68    4.36
   2   1   0   79.02    5.37
   1  -3   0   77.32    4.45
   3  -2   0   66.90    4.40
  -2  -1   0   81.22    5.44
  -1   3   0   75.58    4.36
  -1   3   0   74.62    5.20
   3  -2   0   68.18    4.34
  -3   3   0  456.12   25.29
   3   0   0  419.64   26.09
   0  -3   0  487.49   26.82
   0  -3   0  457.34   25.24
   0  -3   0  433.27   25.30
   0   3   0  455.61   26.55
  -3   0   0  431.48   26.12
   3  -3   0  445.10   25.29
   0   3   0  413.61   25.22
   3  -3   0  452.26   25.40
   3  -4   0   49.74    3.46
   1   3   0   38.90    2.49
   3  -4   0   41.21    2.72
   4  -1   0   42.17    2.51
   4  -1   0   40.91    3.14
  -1  -3   0   42.02    2.56
   4  -1   0   45.56    2.58
  -1  -3   0   41.53    2.50
   2  -4   0  318.36   19.16
   2   2   0  342.01   19.64
  -2  -2   0  323.65   19.67
  -2   4   0  290.15   18.98
   4  -2   0  320.27   18.08
   4  -2   0  297.83   17.98
  -2   4   0  321.76   18.04
   1  -4   0   38.27    2.64
   1  -4   0   44.24    2.58
   1  -4   0   39.08    3.64
   3   1   0   45.03    3.75
  -1   4   0   41.97    2.56
  -3  -1   0   46.44    3.81
   4  -3   0   38.80    2.56
   4  -3   0   39.54    2.66
   0  -4   0   32.10    2.10
   4   0   0   34.42    3.06
   0  -4   0   33.40    2.02
   0   4   0   29.20    1.99
   4  -4   0   33.96    2.21
   4  -5   0  149.29    8.11
   5  -1   0  123.36    8.67
   3  -5   0   27.62    1.91
  -5   2   0   28.34    1.70
   3  -5   0   25.26    2.66
   5  -2   0   25.83    1.77
   1  -5   0  141.04    8.69
   5  -4   0  154.18    8.77
  -1   0  -1  326.66   20.20
   1  -1  -1  374.96   19.64
   1  -1  -1  374.22   19.68
   0  -1   1  309.80   20.26
  -1   1   1  349.06   19.64
   0  -1  -1  218.25   12.33
   0  -1  -1  207.83   12.35
  -1   1  -1  221.67   12.34
   1  -1   1  224.21   12.34
   1  -1   1  215.86   12.37
   2  -1  -1    7.35    0.49
   2  -1  -1    7.09    0.52
  -1  -1  -1    8.13    1.06
  -1   2  -1    8.14    0.99
  -1   2  -1    6.13    0.50
   1  -2   1    7.01    0.51
   1   1   1    8.52    1.08
   1  -2   1    8.91    1.02
  -2   1   1    6.64    0.49
   1  -2   1    6.98    0.55
   3  -2  -1  197.49   10.99
  -2  -1  -1  193.69   10.79
  -1   3  -1  191.64   10.92
  -2  -1  -1  181.74   10.80
   3  -2  -1  192.21   10.92
  -3   2   1  195.12   10.92
   1  -3   1  194.87   10.93
   1  -3   1  181.87   11.00
   0   2  -1  148.90    8.49
   2  -2  -1  141.69    8.56
   2  -2  -1  143.70    8.51
  -2   0  -1  152.24    8.45
  -2   2   1  150.87    8.52
   0  -2   1  150.92    8.55
   0  -2   1  153.34    8.50
   1  -2  -1    8.21    0.96
   1  -2  -1    7.16    0.55
  -2   1  -1    7.41    0.51
   1  -2  -1    6.81    0.51
   1   1  -1    9.44    1.21
   2  -1   1    7.22    0.54
  -1   2   1    8.64    1.05
  -1  -1   1    8.33    1.08
  -1   2   1    6.23    0.51
   2  -1   1    7.43    0.51
   2   0  -1  215.79   12.45
   2   0  -1  228.81   12.47
   2  -2   1  231.94   12.53
   0   2   1  183.37   13.35
   2  -2   1  239.47   12.60
  -2   3  -1  103.16    6.15
  -1  -2  -1  108.82    6.08
  -3   1   1   99.99    6.10
   2  -3   1  107.89    6.26
   2  -3   1  112.57    6.19
   4  -2  -1    3.26    0.37
   4  -2  -1    3.01    0.30
   4  -2  -1    3.04    0.45
  -2  -2  -1    2.69    0.20
  -2  -2  -1    2.47    0.21
  -2  -2  -1    3.31    0.94
  -2   4  -1    2.58    0.66
   2  -4   1    3.37    0.85
   5  -3  -1   69.71    4.34
   2  -5   1   70.48    4.38
  -1   4  -1   70.61    4.05
   4  -3  -1   68.09    4.05
   4  -3  -1   71.88    4.19
   1  -4   1   62.58    4.04
  -3   0  -1    3.94    0.28
   0   3  -1    3.90    0.34
  -3   0  -1    4.76    0.87
   0   3  -1    3.79    0.94
   3  -3  -1    3.82    0.42
   3  -3  -1    3.50    0.35
   3   0   1    4.00    0.79
  -3   3   1    3.92    0.37
   0  -3   1    3.40    0.38
   0  -3   1    4.08    0.94
   0  -3   1    4.02    0.35
   2  -3  -1  174.95   10.05
   2  -3  -1  172.03   10.13
  -2   3   1  192.79   10.08
   3  -1   1  178.11   10.01
   3  -1   1  160.61   10.05
   1  -3  -1  107.96    6.43
  -3   2  -1  110.49    6.36
   1  -3  -1  109.23    6.36
  -1   3   1  112.06    6.36
   3  -2   1  110.97    6.36
   3  -2   1  110.04    6.43
   3   0  -1    3.62    0.27
   3   0  -1    4.69    0.90
  -3   3  -1    3.39    0.35
   0  -3  -1    3.95    0.39
  -3   3  -1    3.63    0.50
   0  -3  -1    3.89    0.33
   3   0  -1    3.68    0.30
   0  -3  -1    3.82    0.92
   3  -3   1    3.91    0.43
   0   3   1    3.44    0.32
   3  -3   1    3.86    0.37
   0   3   1    4.55    0.99
  -3   0   1    3.30    0.72
   4  -1  -1   98.03    5.94
  -1  -3  -1  105.08    5.95
   4  -1  -1  101.25    6.01
  -1  -3  -1  103.00    6.01
   3  -4   1  110.05    6.19
   5  -2  -1   51.17    2.88
  -5   2   1   38.65    2.72
   3  -5   1   46.26    2.96
   5  -4  -1    1.89    0.38
   1  -5   1    1.40    0.34
   4  -4  -1   80.68    5.15
   0   4  -1   89.51    4.99
   0  -4   1   84.81    4.97
   0  -4   1   83.81    5.07
   3  -4  -1   68.22    4.22
   1   3  -1   70.68    4.02
   2  -4  -1    3.07    0.73
   2   2  -1    2.66    0.21
  -2   4   1    2.48    0.77
   4  -2   1    2.70    0.30
  -2  -2   1    3.09    0.88
   4  -2   1    2.56    0.35
   1  -4  -1   69.44    5.26
   3   1  -1   77.49    5.48
  -3  -1   1   63.56    5.06
  -1   4   1   56.09    3.89
   0  -4  -1   54.13    3.32
   0  -4  -1   53.79    3.42
   0   4   1   58.44    3.34
   4  -4   1   56.35    3.51
   5  -1  -1    1.41    0.64
   4  -5   1    1.18    0.34
   4  -5  -1    1.74    0.38
  -5   2  -1   67.49    4.01
   3  -5  -1   70.37    4.25
   5  -2   1   66.10    4.16
   2  -5  -1   46.58    3.02
   5  -3   1   46.47    2.98
   1  -5  -1    1.41    0.33
   5  -4   1    1.47    0.35
  -1  -1  -2  179.11   11.52
   1  -2  -2  128.23    7.22
   1  -2  -2  123.25    7.27
   0   2   2    5.72    1.06
  -2  -2  -2  119.51    7.10
  -2  -2  -2  119.60    7.13
   4  -2  -2  127.28    7.21
  -2   4  -2  131.03    8.44
   4  -2  -2  126.51    7.30
   5  -3  -2  109.69    6.59
   2  -5   2  109.89    6.64
   0   3  -2  158.51    9.28
   3  -3  -2  152.11    9.30
  -3   0  -2  170.56   10.38
  -3   3   2  146.72    9.31
   0  -3   2  182.52   10.92
   3   0  -2  182.30   11.12
   0  -3  -2  164.81    9.95
  -3   3  -2  158.79    9.91
   0  -3  -2  200.54   11.71
   0  -3  -2  166.62    9.88
   0   3   2  183.23   11.61
   3  -3   2  155.68    9.91
  -1  -3  -2  158.18    9.08
   4  -1  -2  145.92    9.08
  -1  -3  -2  156.86    9.14
   4  -1  -2  157.45    9.17
   3  -4   2  176.30    9.36
   5  -2  -2    1.94    0.32
   3  -5   2    1.95    0.40
   5  -4  -2   66.84    4.20
   4  -4  -2  118.19    7.06
   0   4  -2  119.15    6.92
   5  -1  -2   78.60    5.78
   4  -5   2   72.09    4.72
   4  -5  -2   64.68    4.08
  -5   2  -2   95.87    5.60
   3  -5  -2   96.11    5.83
   2  -5  -2    1.72    0.35
   1  -5  -2   68.03    4.24
   5  -4   2   68.18    4.29
  -2  -1  -3    0.06    0.43
  -1  -2  -3    0.01    0.35
   4  -2  -3    0.15    0.13
   4  -2  -3   -0.09    0.10
   5  -3  -3   29.06    2.00
   4  -3  -3  140.23    8.22
   3  -3  -3    0.08    0.09
   3  -3  -3    0.02    0.07
  -3   0  -3    0.09    0.32
   2  -3  -3   -0.09    0.08
   2  -3  -3   -0.15    0.07
   1  -3  -3    0.03    0.09
   1  -3  -3    0.01    0.11
   0  -3  -3   -0.12    0.36
   0  -3  -3    0.06    0.12
   0  -3  -3   -0.04    0.11
  -1  -3  -3    0.04    0.13
   4  -1  -3   -0.06    0.08
  -1  -3  -3   -0.02    0.12
   4  -1  -3    0.05    0.11
   5  -2  -3   95.87    5.76
   5  -4  -3    4.56    0.56
   4  -4  -3   33.04    2.21
   2  -4  -3   -0.04    0.09
   2  -4  -3   -0.04    0.41
   1  -4  -3   50.93    3.23
   0  -4  -3  134.92    8.06
   0  -4  -3  139.03    7.96
   4  -5  -3    4.43    0.57
  -5   2  -3   32.77    2.07
   3  -5  -3   32.68    2.26
   2  -5  -3  115.31    6.95
   1  -5  -3    5.50    0.64
   3  -5  -4    0.12    0.24
   2  -5  -4    0.10    0.24
   0   0   0    0.00    0.00
  -4   1   0   39.79    2.50
  -4   3   0   45.28    2.59
  -4   3   1   67.93    4.05
  -4   1  -1   67.84    4.01
;
_shelx_hkl_checksum              17543
_olex2_submission_special_instructions 'No special instructions were received'
loop_
_space_group_symop_operation_xyz
'x, y, z'
'-y, x-y, z'
'-x+y, -x, z'
'x-y, -y, -z'
'-x, -x+y, -z'
'y, x, -z'
'-x, -y, -z'
'y, -x+y, -z'
'x-y, x, -z'
'-x+y, y, z'
'x, x-y, z'
'-y, -x, z'
loop_
_atom_site_label
_atom_site_type_symbol
_atom_site_fract_x
_atom_site_fract_y
_atom_site_fract_z
_atom_site_U_iso_or_equiv
_atom_site_adp_type
_atom_site_occupancy
_atom_site_site_symmetry_order
_atom_site_calc_flag
_atom_site_refinement_flags_posn
_atom_site_refinement_flags_adp
_atom_site_refinement_flags_occupancy
_atom_site_disorder_assembly
_atom_site_disorder_group
Sb1 Sb 0.666667 0.333333 0.2322(9) 0.012(3) Uiso 1 6 d S . P . .
Mg1 Mg 1.000000 0.000000 0.000000 0.010(6) Uiso 1 12 d S . P . .
Mg2 Mg 0.666667 0.333333 0.664(11) 0.020(5) Uiso 1 6 d S . P . .
loop_
_atom_type_symbol
_atom_type_description
_atom_type_scat_dispersion_real
_atom_type_scat_dispersion_imag
_atom_type_scat_source
Mg Mg 0.0086 0.0127 'International Tables Vol C Tables 4.2.6.8 and 6.1.1.4'
Sb Sb -2.5055 0.6347 'International Tables Vol C Tables 4.2.6.8 and 6.1.1.4'
loop_
_geom_angle_atom_site_label_1
_geom_angle_atom_site_label_2
_geom_angle_atom_site_label_3
_geom_angle
_geom_angle_site_symmetry_1
_geom_angle_site_symmetry_3
_geom_angle_publ_flag
Mg1 Sb1 Mg1 94.01(14) . 1_565 ?
Mg1 Sb1 Mg1 94.01(14) 1_455 1_565 ?
Mg1 Sb1 Mg1 94.01(14) . 1_455 ?
Mg1 Sb1 Mg2 122.37(10) 1_455 . ?
Mg1 Sb1 Mg2 122.37(10) 1_565 . ?
Mg1 Sb1 Mg2 122.37(10) . . ?
Mg2 Sb1 Mg1 75.0(10) 7_666 1_455 ?
Mg2 Sb1 Mg1 75.0(10) 7_766 . ?
Mg2 Sb1 Mg1 163.5(16) 7_666 . ?
Mg2 Sb1 Mg1 75.0(10) 7_766 1_565 ?
Mg2 Sb1 Mg1 75.0(10) 7_656 1_455 ?
Mg2 Sb1 Mg1 75.0(10) 7_656 . ?
Mg2 Sb1 Mg1 163.5(16) 7_656 1_565 ?
Mg2 Sb1 Mg1 163.5(16) 7_766 1_455 ?
Mg2 Sb1 Mg1 75.0(10) 7_666 1_565 ?
Mg2 Sb1 Mg2 74.1(16) 7_766 . ?
Mg2 Sb1 Mg2 74.1(16) 7_666 . ?
Mg2 Sb1 Mg2 112.8(14) 7_656 7_666 ?
Mg2 Sb1 Mg2 112.8(14) 7_766 7_666 ?
Mg2 Sb1 Mg2 74.1(16) 7_656 . ?
Mg2 Sb1 Mg2 112.8(14) 7_766 7_656 ?
Sb1 Mg1 Sb1 180.0 7_755 . ?
Sb1 Mg1 Sb1 85.99(14) 1_655 7_765 ?
Sb1 Mg1 Sb1 94.01(14) 1_655 1_545 ?
Sb1 Mg1 Sb1 94.01(14) 7_655 7_765 ?
Sb1 Mg1 Sb1 94.01(14) . 1_545 ?
Sb1 Mg1 Sb1 85.99(14) 7_655 1_545 ?
Sb1 Mg1 Sb1 85.99(14) 7_755 1_655 ?
Sb1 Mg1 Sb1 94.01(14) 7_755 7_655 ?
Sb1 Mg1 Sb1 94.01(14) . 1_655 ?
Sb1 Mg1 Sb1 85.99(14) 7_755 1_545 ?
Sb1 Mg1 Sb1 180.0 7_655 1_655 ?
Sb1 Mg1 Sb1 85.99(14) . 7_655 ?
Sb1 Mg1 Sb1 94.01(14) 7_755 7_765 ?
Sb1 Mg1 Sb1 85.99(14) . 7_765 ?
Sb1 Mg1 Sb1 180.0 7_765 1_545 ?
Sb1 Mg1 Mg2 74.9(9) 7_755 7_756 ?
Sb1 Mg1 Mg2 105.1(9) 1_545 7_766 ?
Sb1 Mg1 Mg2 105.1(9) 7_655 1_654 ?
Sb1 Mg1 Mg2 105.1(9) 1_655 7_656 ?
Sb1 Mg1 Mg2 105.1(9) 7_765 1_544 ?
Sb1 Mg1 Mg2 132.31(14) . 1_654 ?
Sb1 Mg1 Mg2 132.31(14) 7_755 7_656 ?
Sb1 Mg1 Mg2 105.1(9) . 7_756 ?
Sb1 Mg1 Mg2 47.69(14) 7_655 1_544 ?
Sb1 Mg1 Mg2 132.31(14) 1_655 1_544 ?
Sb1 Mg1 Mg2 47.69(14) 7_755 1_654 ?
Sb1 Mg1 Mg2 132.31(14) 7_655 7_756 ?
Sb1 Mg1 Mg2 47.69(14) 7_765 1_654 ?
Sb1 Mg1 Mg2 132.31(14) 1_545 1_654 ?
Sb1 Mg1 Mg2 74.9(9) 7_765 7_766 ?
Sb1 Mg1 Mg2 47.69(14) 1_655 7_756 ?
Sb1 Mg1 Mg2 105.1(9) 7_755 1_554 ?
Sb1 Mg1 Mg2 132.31(14) . 1_544 ?
Sb1 Mg1 Mg2 47.69(14) 7_765 1_554 ?
Sb1 Mg1 Mg2 132.31(14) 7_765 7_756 ?
Sb1 Mg1 Mg2 132.31(14) 1_545 1_554 ?
Sb1 Mg1 Mg2 74.9(9) 1_545 1_544 ?
Sb1 Mg1 Mg2 132.31(14) 7_755 7_766 ?
Sb1 Mg1 Mg2 47.69(14) 1_545 7_756 ?
Sb1 Mg1 Mg2 47.69(14) . 7_766 ?
Sb1 Mg1 Mg2 74.9(9) 1_655 1_654 ?
Sb1 Mg1 Mg2 132.31(14) 7_655 7_766 ?
Sb1 Mg1 Mg2 74.9(9) . 1_554 ?
Sb1 Mg1 Mg2 74.9(9) 7_655 7_656 ?
Sb1 Mg1 Mg2 47.69(14) . 7_656 ?
Sb1 Mg1 Mg2 132.31(14) 7_765 7_656 ?
Sb1 Mg1 Mg2 47.69(14) 7_655 1_554 ?
Sb1 Mg1 Mg2 47.69(14) 7_755 1_544 ?
Sb1 Mg1 Mg2 47.69(14) 1_545 7_656 ?
Sb1 Mg1 Mg2 132.31(14) 1_655 1_554 ?
Sb1 Mg1 Mg2 47.69(14) 1_655 7_766 ?
Mg2 Mg1 Mg2 79.3(14) 1_554 1_654 ?
Mg2 Mg1 Mg2 79.3(14) 7_756 7_656 ?
Mg2 Mg1 Mg2 180.0 7_756 1_554 ?
Mg2 Mg1 Mg2 79.3(14) 1_554 1_544 ?
Mg2 Mg1 Mg2 180.0 1_654 7_656 ?
Mg2 Mg1 Mg2 100.7(14) 1_544 7_656 ?
Mg2 Mg1 Mg2 79.3(14) 7_756 7_766 ?
Mg2 Mg1 Mg2 100.7(14) 7_766 1_654 ?
Mg2 Mg1 Mg2 79.3(14) 7_766 7_656 ?
Mg2 Mg1 Mg2 100.7(14) 1_554 7_656 ?
Mg2 Mg1 Mg2 100.7(14) 7_756 1_654 ?
Mg2 Mg1 Mg2 79.3(14) 1_544 1_654 ?
Mg2 Mg1 Mg2 180.0(18) 7_766 1_544 ?
Mg2 Mg1 Mg2 100.7(14) 7_756 1_544 ?
Mg2 Mg1 Mg2 100.7(14) 1_554 7_766 ?
Sb1 Mg2 Sb1 105.9(16) 7_656 . ?
Sb1 Mg2 Sb1 105.9(16) 7_666 . ?
Sb1 Mg2 Sb1 112.8(14) 7_656 7_666 ?
Sb1 Mg2 Sb1 105.9(16) 7_766 . ?
Sb1 Mg2 Sb1 112.8(14) 7_766 7_666 ?
Sb1 Mg2 Sb1 112.8(14) 7_766 7_656 ?
Sb1 Mg2 Mg1 57.4(9) 7_666 1_566 ?
Sb1 Mg2 Mg1 57.4(9) 7_656 1_556 ?
Sb1 Mg2 Mg1 132.6(9) . 1_566 ?
Sb1 Mg2 Mg1 57.4(9) 7_766 1_566 ?
Sb1 Mg2 Mg1 122(2) 7_766 1_456 ?
Sb1 Mg2 Mg1 132.6(9) . 1_556 ?
Sb1 Mg2 Mg1 57.4(9) 7_766 1_556 ?
Sb1 Mg2 Mg1 57.4(9) 7_656 1_456 ?
Sb1 Mg2 Mg1 122(2) 7_666 1_556 ?
Sb1 Mg2 Mg1 122(2) 7_656 1_566 ?
Sb1 Mg2 Mg1 132.6(9) . 1_456 ?
Sb1 Mg2 Mg1 57.4(9) 7_666 1_456 ?
Sb1 Mg2 Mg2 122.8(13) 7_766 7_656 ?
Sb1 Mg2 Mg2 122.8(13) 7_656 7_766 ?
Sb1 Mg2 Mg2 57.6(3) 7_766 7_766 ?
Sb1 Mg2 Mg2 122.8(13) 7_656 7_666 ?
Sb1 Mg2 Mg2 57.6(3) 7_656 7_656 ?
Sb1 Mg2 Mg2 48.2(19) . 7_766 ?
Sb1 Mg2 Mg2 57.6(3) 7_666 7_666 ?
Sb1 Mg2 Mg2 122.8(13) 7_666 7_656 ?
Sb1 Mg2 Mg2 122.8(13) 7_666 7_766 ?
Sb1 Mg2 Mg2 48.2(19) . 7_666 ?
Sb1 Mg2 Mg2 48.2(19) . 7_656 ?
Sb1 Mg2 Mg2 122.8(13) 7_766 7_666 ?
Mg1 Mg2 Mg1 79.3(14) 1_556 1_456 ?
Mg1 Mg2 Mg1 79.3(14) 1_556 1_566 ?
Mg1 Mg2 Mg1 79.3(14) 1_566 1_456 ?
Mg1 Mg2 Mg2 100.1(7) 1_456 7_666 ?
Mg1 Mg2 Mg2 100.1(8) 1_566 7_766 ?
Mg1 Mg2 Mg2 100.1(7) 1_556 7_656 ?
Mg1 Mg2 Mg2 100.1(7) 1_456 7_656 ?
Mg1 Mg2 Mg2 179(3) 1_456 7_766 ?
Mg1 Mg2 Mg2 179(3) 1_556 7_666 ?
Mg1 Mg2 Mg2 179(3) 1_566 7_656 ?
Mg1 Mg2 Mg2 100.1(7) 1_556 7_766 ?
Mg1 Mg2 Mg2 100.1(7) 1_566 7_666 ?
Mg2 Mg2 Mg2 80(3) 7_656 7_766 ?
Mg2 Mg2 Mg2 80(3) 7_656 7_666 ?
Mg2 Mg2 Mg2 80(3) 7_766 7_666 ?
loop_
_geom_bond_atom_site_label_1
_geom_bond_atom_site_label_2
_geom_bond_distance
_geom_bond_site_symmetry_2
_geom_bond_publ_flag
Sb1 Mg1 3.036(3) . ?
Sb1 Mg1 3.036(3) 1_455 ?
Sb1 Mg1 3.036(3) 1_565 ?
Sb1 Mg2 2.67(2) 7_766 ?
Sb1 Mg2 3.02(7) . ?
Sb1 Mg2 2.67(2) 7_666 ?
Sb1 Mg2 2.67(2) 7_656 ?
Mg1 Mg2 3.48(5) 1_544 ?
Mg1 Mg2 3.48(5) 7_756 ?
Mg1 Mg2 3.48(5) 1_554 ?
Mg1 Mg2 3.48(5) 1_654 ?
Mg1 Mg2 3.48(5) 7_766 ?
Mg1 Mg2 3.48(5) 7_656 ?
Mg2 Mg2 3.44(10) 7_656 ?
Mg2 Mg2 3.44(10) 7_766 ?
Mg2 Mg2 3.44(10) 7_666 ?
