#------------------------------------------------------------------------------
#$Date: 2021-03-04 01:22:13 +0200 (Thu, 04 Mar 2021) $
#$Revision: 262420 $
#$URL: file:///home/coder/svn-repositories/cod/cif/4/00/38/4003882.cif $
#------------------------------------------------------------------------------
#
# This file is available in the Crystallography Open Database (COD),
# http://www.crystallography.net/
#
# All data on this site have been placed in the public domain by the
# contributors.
#
data_4003882
loop_
_publ_author_name
'Zhao, Xin'
'Lin, Chensheng'
'Chen, Jindong'
'Luo, Min'
'Xu, Feng'
'Yang, Shunda'
'Shi, Shuangshuang'
'Li, Bingxuan'
'Ye, Ning'
_publ_section_title
;
 Halonitrides Zn2NX (X=Cl,Br): Novel Mid-Infrared Nonlinear Optical
 Materials
;
_journal_issue                   4
_journal_name_full               'Chemistry of Materials'
_journal_page_first              1462
_journal_page_last               1470
_journal_paper_doi               10.1021/acs.chemmater.0c04772
_journal_volume                  33
_journal_year                    2021
_chemical_formula_moiety         'Br N Zn2'
_chemical_formula_sum            'Br N Zn2'
_chemical_formula_weight         224.66
_space_group_crystal_system      orthorhombic
_space_group_IT_number           33
_space_group_name_Hall           'P 2c -2n'
_space_group_name_H-M_alt        'P n a 21'
_atom_sites_solution_primary     dual
_audit_creation_date             2020-12-26
_audit_creation_method
;
Olex2 1.3
(compiled 2020.07.31 svn.rc2a77460 for OlexSys, GUI svn.r6145)
;
_cell_angle_alpha                90
_cell_angle_beta                 90
_cell_angle_gamma                90
_cell_formula_units_Z            4
_cell_length_a                   6.222(7)
_cell_length_b                   7.650(8)
_cell_length_c                   6.094(7)
_cell_measurement_reflns_used    982
_cell_measurement_temperature    293(2)
_cell_measurement_theta_max      27.5010
_cell_measurement_theta_min      3.2743
_cell_volume                     290.1(6)
_computing_molecular_graphics    'Olex2 1.3 (Dolomanov et al., 2009)'
_computing_publication_material  'Olex2 1.3 (Dolomanov et al., 2009)'
_computing_structure_refinement  'SHELXL 2017/1 (Sheldrick, 2015)'
_computing_structure_solution    'SHELXT 2014/5 (Sheldrick, 2014)'
_diffrn_ambient_temperature      293(2)
_diffrn_measured_fraction_theta_full 0.979
_diffrn_measured_fraction_theta_max 0.981
_diffrn_measurement_device_type  'Bruker P4'
_diffrn_measurement_method       '\w scans'
_diffrn_radiation_monochromator  graphite
_diffrn_radiation_type           MoK\a
_diffrn_radiation_wavelength     0.71073
_diffrn_reflns_av_R_equivalents  0.0444
_diffrn_reflns_av_unetI/netI     0.0477
_diffrn_reflns_Laue_measured_fraction_full 0.979
_diffrn_reflns_Laue_measured_fraction_max 0.981
_diffrn_reflns_limit_h_max       8
_diffrn_reflns_limit_h_min       -7
_diffrn_reflns_limit_k_max       9
_diffrn_reflns_limit_k_min       -9
_diffrn_reflns_limit_l_max       7
_diffrn_reflns_limit_l_min       -7
_diffrn_reflns_number            2135
_diffrn_reflns_point_group_measured_fraction_full 0.987
_diffrn_reflns_point_group_measured_fraction_max 0.988
_diffrn_reflns_theta_full        25.242
_diffrn_reflns_theta_max         27.456
_diffrn_reflns_theta_min         4.222
_exptl_absorpt_coefficient_mu    29.979
_exptl_absorpt_correction_type   none
_exptl_crystal_density_diffrn    5.144
_exptl_crystal_description       Prism
_exptl_crystal_F_000             408
_exptl_crystal_size_max          0.1000
_exptl_crystal_size_mid          0.1000
_exptl_crystal_size_min          0.1000
_refine_diff_density_max         0.925
_refine_diff_density_min         -1.507
_refine_diff_density_rms         0.315
_refine_ls_abs_structure_details
;
 Refined as an inversion twin.
;
_refine_ls_abs_structure_Flack   0.45(5)
_refine_ls_extinction_method     none
_refine_ls_goodness_of_fit_ref   1.016
_refine_ls_hydrogen_treatment    undef
_refine_ls_matrix_type           full
_refine_ls_number_parameters     38
_refine_ls_number_reflns         642
_refine_ls_number_restraints     1
_refine_ls_restrained_S_all      1.015
_refine_ls_R_factor_all          0.0319
_refine_ls_R_factor_gt           0.0302
_refine_ls_shift/su_max          0.000
_refine_ls_shift/su_mean         0.000
_refine_ls_structure_factor_coef Fsqd
_refine_ls_weighting_details
'w=1/[\s^2^(Fo^2^)+(0.0366P)^2^] where P=(Fo^2^+2Fc^2^)/3'
_refine_ls_weighting_scheme      calc
_refine_ls_wR_factor_gt          0.0660
_refine_ls_wR_factor_ref         0.0667
_reflns_Friedel_coverage         0.844
_reflns_Friedel_fraction_full    0.996
_reflns_Friedel_fraction_max     0.997
_reflns_number_gt                607
_reflns_number_total             642
_reflns_threshold_expression     'I > 2\s(I)'
_cod_data_source_file            cm0c04772_si_003.cif
_cod_data_source_block           Zn2NBr
_cod_database_code               4003882
_shelx_shelxl_version_number     2017/1
_shelx_space_group_comment
;
The symmetry employed for this shelxl refinement is uniquely defined
by the following loop, which should always be used as a source of
symmetry information in preference to the above space-group names.
They are only intended as comments.
;
_olex2_refinement_description
;
1. Twinned data refinement
 Scales: 0.55(5)
 0.45(5)
;
_shelx_res_file
;
TITL 2_a.res in Pna2(1)
    2.res
    created by SHELXL-2017/1 at 17:19:09 on 26-Dec-2020
REM Old TITL 2 in Pna2(1)
REM SHELXT solution in Pna2(1)
REM R1 0.063, Rweak 0.007, Alpha 0.002, Orientation as input
REM Flack x = 0.447 ( 0.050 ) from Parsons' quotients
REM Formula found by SHELXT: N Br3
CELL 0.71073 6.2219 7.6496 6.0944 90 90 90
ZERR 4 0.0072 0.008 0.0066 0 0 0
LATT -1
SYMM -X,-Y,0.5+Z
SYMM 0.5+X,0.5-Y,+Z
SYMM 0.5-X,0.5+Y,0.5+Z
SFAC Br N Zn
UNIT 4 4 8

L.S. 50
PLAN  5
CONF
list 4
MORE -1
fmap 2
ACTA
TWIN -1 0 0 0 -1 0 0 0 -1 2
OMIT 2 1 -1
OMIT 2 1 1
OMIT 1 3 0
OMIT 1 2 0
OMIT 1 1 -2
OMIT 0 0 -2
OMIT 2 4 0
OMIT 4 0 -3
OMIT 0 3 3
OMIT 2 1 0
OMIT 4 4 0
REM <olex2.extras>
REM <HklSrc "%.\\2.hkl">
REM </olex2.extras>

WGHT    0.036600
BASF   0.44767
FVAR       0.56146
BR1   1    0.419106    0.379607    0.375731    11.00000    0.01424    0.01306 =
         0.01525    0.00037    0.00042   -0.00067
ZN1   3    0.631421    0.682230    0.344000    11.00000    0.01037    0.01446 =
         0.02746   -0.00038   -0.00038    0.00377
ZN2   3    0.481999    0.968824    0.655529    11.00000    0.02179    0.02501 =
         0.01789   -0.01135   -0.00611    0.00217
N1    2    0.432003    0.873505    0.374454    11.00000    0.00617    0.01123 =
         0.00832   -0.00179    0.00155    0.00180
HKLF 4




REM  2_a.res in Pna2(1)
REM R1 =  0.0302 for     607 Fo > 4sig(Fo)  and  0.0319 for all     642 data
REM     38 parameters refined using      1 restraints

END

WGHT      0.0366      0.0000

REM Highest difference peak  0.925,  deepest hole -1.507,  1-sigma level  0.315
Q1    1   0.6737  0.6383  0.1482  11.00000  0.05    0.92
Q2    1   0.7901  0.7229  0.4298  11.00000  0.05    0.82
Q3    1   0.6858  0.6361  0.5964  11.00000  0.05    0.81
Q4    1   0.3171  1.0016  0.4552  11.00000  0.05    0.79
Q5    1   0.3802  0.6042  0.1615  11.00000  0.05    0.77
;
_shelx_res_checksum              32424
_shelx_hkl_file
;
   0   2   0  423.95   18.81
   0  -2   0  429.25   22.10
   0   2   0  349.01   26.45
   0   2   0  377.32   14.62
   0  -3   0    2.04    3.23
   0   3   0    1.43    3.21
   0  -3   0    2.06    5.45
   0   3   0    7.78    6.88
   0   3   0    3.56    3.12
   0  -4   0 1298.06   43.37
   0  -4   0 1172.77   44.60
   0  -5   0    1.47    5.76
   0  -5   0    4.88    8.72
   0  -6   0 1245.66   51.76
   0  -6   0 1185.04   56.09
   0  -7   0    1.93    3.48
   0  -7   0    9.94   13.20
   0  -8   0  107.60   18.41
   0  -8   0   90.14   19.96
   0  -9   0    1.28    3.75
  -1   0   0   11.38    2.38
  -1   1   0   51.82    4.83
  -1  -1   0   92.77    6.20
  -1   1   0   46.59   10.05
   1   1   0   80.31    5.65
   1   2   0 4164.68  115.71
   1  -2   0 3986.65  111.04
  -1   2   0 4331.06  122.35
   1   2   0 3944.49  123.17
   1  -2   0 3825.81  108.13
  -1   2   0 4020.15  113.18
  -1  -2   0 4001.96  108.98
   1   2   0 4006.23  109.51
  -1  -3   0 8108.53  266.85
   1  -3   0 8234.29  271.74
  -1   3   0 7634.28  269.61
   1  -3   0 7589.52  253.48
  -1  -3   0 8257.80  270.49
   1   3   0 6822.64  224.08
  -1  -4   0  730.02   28.44
   1  -4   0  763.77   29.95
   1  -4   0  717.29   36.76
  -1  -4   0  777.40   31.54
  -1  -5   0  673.66   29.86
   1  -5   0  739.69   31.07
   1  -5   0  664.78   38.26
  -1  -5   0  722.11   28.91
  -1  -6   0   13.64    9.36
   1  -6   0   20.32   12.95
  -1  -7   0   49.28   10.62
   1  -7   0   49.94   29.63
   1  -7   0   72.30   32.34
   1  -8   0    7.87   10.19
   1   8   0   12.83    5.47
   1  -8   0    6.64   11.85
   1   9   0  130.61   14.08
   1  -9   0  112.83   24.44
   2   0   0 7659.52  251.25
  -2   0   0 7261.26  239.96
   2   0   0 7412.35  242.83
  -2   0   0 6306.24  206.11
   2  -1   0 5206.19  142.29
   2   1   0 5286.65  147.45
   2  -1   0 5280.28  147.06
  -2   1   0 5232.30  144.14
   2   1   0 5082.23  136.84
  -2  -1   0 5217.69  140.19
   2  -2   0 2644.86   78.41
  -2   2   0 2616.68   79.68
   2  -2   0 2789.17   86.77
   2   2   0 2895.65   80.04
  -2  -2   0 2792.91   78.88
   2  -3   0  108.77   11.65
   2   3   0  130.00   10.05
   2   3   0  128.52   12.22
   2  -3   0  116.64   19.43
  -2  -3   0  131.02    9.47
   2  -4   0   35.10   19.27
   2   4   0   32.08    6.70
   2   4   0   32.02   16.71
  -2  -4   0   12.12    8.17
   2  -5   0 1943.42   74.64
   2   5   0 1852.35   67.84
   2  -5   0 2036.05   86.83
  -2  -5   0 1957.27   70.85
   2  -6   0   42.68   28.88
   2   6   0   38.70    8.71
   2  -6   0   38.81   29.13
  -2  -6   0   45.91   10.19
   2  -7   0    6.88    4.82
   2   7   0    3.29    5.64
   2  -7   0    6.20    5.99
   2  -8   0  332.51   35.65
   2   8   0  329.60   34.98
   2   9   0   91.40   17.25
   2  -9   0   55.67   48.21
   3   0   0   57.32    8.46
   3   0   0    3.57    6.88
   3  -1   0 3307.87   95.36
   3   1   0 2894.73   86.04
   3  -1   0 3159.66   93.97
   3   1   0 3165.27   91.23
  -3  -1   0 3071.78   85.97
   3  -2   0 6391.89  217.36
   3   2   0 6859.68  229.12
   3  -2   0 6855.05  231.26
   3   2   0 6326.89  207.46
   3  -3   0    0.00    8.23
   3  -3   0    3.10    7.62
  -3  -3   0    8.95   10.40
   3   4   0  110.90   12.36
   3   4   0   85.60   10.55
   3  -4   0  152.92   66.10
   3   4   0  109.97    9.55
  -3  -4   0   98.51    9.74
   3  -5   0 1458.20   74.26
   3   5   0 1492.12   59.22
   3  -5   0 1397.31   73.03
   3   5   0 1451.47   52.76
  -3  -5   0 1426.99   54.38
   3  -6   0  455.05   38.19
   3   6   0  453.75   35.28
   3  -6   0  480.43   61.05
  -3  -6   0  423.19   31.69
   3  -7   0    2.66    6.30
   3  -7   0   -1.51   11.92
  -3  -7   0    5.17    4.92
   3   8   0   17.50    8.05
   3  -8   0   25.70   21.31
   3   9   0  100.97   14.01
   3  -9   0  114.38   39.54
   4   0   0  820.93   34.60
   4   0   0  761.77   31.48
   4  -1   0  176.92   15.47
   4   1   0  205.56   19.17
   4  -1   0  185.15   29.13
   4   1   0  195.54   16.52
   4  -2   0 2942.83  109.29
   4   2   0 2993.10  108.25
   4  -2   0 2880.59  109.15
   4   2   0 2798.49   97.08
   4  -3   0  373.44   26.63
   4   3   0  342.16   22.16
   4  -3   0  360.05   42.04
   4   3   0  348.53   16.50
  -4  -3   0  419.79   22.76
   4  -4   0 1839.21   76.47
   4   4   0 2264.34   87.01
   4  -4   0 1918.22   89.01
   4   4   0 2141.71   74.59
  -4  -4   0 1855.25   69.95
   4  -5   0  677.21   52.81
   4   5   0  616.91   47.11
   4  -5   0  650.02   57.29
   4   5   0  528.98   36.06
  -4  -5   0  648.48   46.05
   4  -6   0  151.88   20.02
   4   6   0  139.86   20.94
   4  -6   0  142.40   59.24
   4  -7   0  942.43   94.02
   4   7   0  898.15   88.31
   4  -7   0  939.25   97.11
   4   8   0   57.77   12.95
   4  -8   0   71.86   24.44
   5   0   0    1.66    6.46
   5  -1   0 2834.31  107.73
   5   1   0 2553.55   97.24
   5  -1   0 2693.10  118.69
   5   1   0 2679.31   98.29
   5  -2   0  170.96   19.57
   5   2   0  129.39   20.26
   5  -2   0  286.52   39.61
   5   2   0  123.51   34.73
   5  -3   0  242.30   25.42
   5   3   0  270.33   27.24
   5  -3   0  212.01   33.61
   5   3   0  220.20   22.57
  -5  -3   0  216.78   20.63
   5   4   0 1209.86   83.57
   5  -4   0 1240.18   90.81
  -5  -4   0 1261.97   83.17
   5  -5   0   15.03   11.46
   5   5   0    8.11    9.61
   5  -5   0    6.77    8.49
   5  -6   0  443.57   48.72
   5   6   0  355.77   39.54
   5  -6   0  431.67   58.07
   5   7   0  126.85   16.85
   5  -7   0  199.49   37.07
   6   0   0   88.45   15.99
   6   0   0   95.00   34.68
   6  -1   0  732.08   55.99
   6   1   0  708.26   55.11
   6   1   0  628.56   50.37
   6  -2   0   63.53   15.47
   6   2   0   73.03   17.62
   6  -2   0   75.89   21.54
   6   2   0   67.69   17.52
   6  -3   0    4.14   10.71
   6   3   0   -1.16   11.36
   6  -3   0    0.99    8.98
  -6  -3   0    1.83    4.36
   6  -4   0 1977.66  187.77
   6   4   0 1802.38  171.80
   6  -4   0 1947.03  186.17
  -6  -4   0 1731.05  161.45
   6  -5   0    5.71   10.39
   6   5   0    6.99   16.33
   6  -5   0   14.62   14.32
   6  -6   0  127.25   45.25
   6   6   0  168.41   25.46
   6  -6   0  106.18   82.25
   7   0   0   11.16    9.49
   7   0   0    2.93    6.86
   7  -1   0  332.01   32.13
   7  -1   0  340.77   41.18
   7  -2   0  179.69   23.82
   7   2   0  189.61   25.47
   7  -2   0  191.38   29.19
   7  -3   0  214.66   26.57
   7   3   0  208.45   25.85
   7  -3   0  259.60   35.38
  -7  -3   0  211.65   20.37
   7  -4   0  280.40   33.35
   7   4   0  211.05   25.21
   7  -4   0  270.09   41.08
   8  -1   0   49.22   17.74
   8   1   0   70.19   19.91
   0   1   1  190.74   13.71
   0   1  -1  219.97    9.34
   0   1  -1  191.25   13.87
   0   2  -1   49.52    6.31
   0  -2  -1   54.22   30.09
   0   2   1    9.91   17.30
   0   2  -1   40.57    2.95
   0  -2   1   73.96   25.37
   0   2  -1  105.57   25.52
   0  -2   1   43.74   22.26
   0   2  -1   53.16   15.25
   0  -3  -1 4103.08  120.91
   0   3  -1 3898.47  107.21
   0   3  -1 4085.85  109.52
   0  -3   1 4259.82  126.18
   0   3  -1 3978.62  112.81
   0  -3   1 4029.01  115.86
   0  -4  -1    1.68    5.12
   0   4  -1    4.77    6.09
   0  -4  -1   12.38   10.93
   0  -4   1   15.77   20.24
   0  -4   1    3.98    5.00
   0  -5   1 1084.83   35.79
   0  -5  -1 1120.99   44.64
   0   5  -1 1061.81   36.61
   0  -5  -1 1113.81   48.30
   0  -5   1 1094.31   49.64
   0  -5   1 1141.84   44.44
   0  -6  -1    8.64   12.85
   0  -6   1   -0.26    8.44
   0  -7  -1 2449.22  228.28
   0   7  -1 2571.54  235.25
   0  -7   1 2341.18  219.01
   0  -8  -1   22.13   27.48
   0  -8   1    7.70    6.14
   0  -9  -1  992.51   68.42
   0  -9   1  941.43   67.64
  -1   0  -1    2.53    2.20
   1   0   1    2.13    2.27
  -1   0   1    1.39    3.72
  -1   0   1   14.66    9.16
  -1   0  -1    0.58    4.89
   1   0   1    1.97    2.97
  -1   0  -1    2.84    2.16
   1  -1   1   23.13    3.67
  -1  -1  -1   31.89   14.46
   1   1   1   26.07   19.59
   1  -1  -1   30.12   10.52
  -1   1   1   27.81    5.49
   1   1  -1   30.17    5.83
  -1  -1   1   28.00    3.72
   1  -1  -1   44.91    8.69
  -1   1   1   27.87   16.43
   1  -1   1   35.03   20.57
  -1   1  -1   25.25    6.30
   1   1   1   29.44    7.89
   1  -1   1   37.28    8.06
  -1   1  -1   25.57   13.95
  -1  -1  -1   27.70    2.65
  -1  -1   1   31.03   19.59
  -1  -2  -1 1794.56   59.75
   1  -2  -1 1879.03   64.92
  -1   2   1 1868.70   58.68
  -1   2  -1 1724.46   46.66
  -1  -2   1 2040.95   57.18
   1  -2  -1 1764.25   58.80
   1  -2   1 1755.96   54.95
   1   2  -1 1945.52   52.98
   1  -2   1 1848.30   56.55
  -1  -2   1 1883.15   64.64
   1   2  -1 1971.75   62.63
   1   2   1 1851.50   49.45
   1   3  -1  517.50   26.93
  -1  -3  -1  559.99   25.00
   1  -3  -1  558.36   27.74
  -1   3  -1  563.85   17.78
   1   3  -1  535.69   19.15
   1  -3  -1  573.95   32.89
   1  -3   1  541.24   28.46
   1   3  -1  556.92   20.73
  -1  -3   1  526.82   23.13
   1   3   1  534.88   17.60
  -1  -4  -1 1260.86   46.39
   1  -4  -1 1256.75   48.13
  -1   4  -1 1164.11   36.15
   1   4  -1 1236.42   38.40
   1  -4  -1 1218.84   50.85
  -1  -4   1 1256.31   45.09
   1  -4   1 1301.90   59.70
   1   4  -1 1237.58   42.48
  -1  -4   1 1188.29   47.21
   1   4   1 1196.16   38.81
  -1  -5  -1 1595.94   65.86
   1  -5  -1 1669.17   75.42
  -1   5  -1 1615.81   58.96
   1   5  -1 1729.68   61.97
  -1  -5   1 1586.16   63.22
   1  -5   1 1594.44   77.24
  -1  -5   1 1567.30   69.61
  -1  -6  -1 3703.11  238.57
   1  -6  -1 3573.04  135.29
   1   6  -1 3694.75  230.65
   1  -6  -1 3683.68  244.74
  -1  -6   1 3651.43  137.70
   1  -6   1 3691.34  237.81
  -1  -6   1 3614.87  130.02
   1  -7   1  126.43   13.10
  -1  -7  -1  113.19   48.67
   1  -7  -1  118.00   18.01
   1   7  -1  163.80   16.11
   1  -7  -1  109.25   24.65
  -1  -7   1  132.27   18.35
   1  -7   1  113.23   18.97
  -1  -7   1  114.62   17.02
  -1  -8  -1  507.17   54.24
   1  -8  -1  500.79   53.07
   1   8  -1  507.18   49.47
  -1  -8   1  524.19   57.83
   1  -8  -1  513.05   59.86
   1  -8   1  462.40   53.05
  -1  -9  -1  285.27   28.44
   1  -9  -1  286.41   33.84
   1  -9   1  284.62   45.30
   2   0  -1  494.65   21.95
   2   0   1  475.67   19.56
   2   0  -1  490.70   19.26
  -2   0   1  483.17   17.54
   2   0   1  505.32   22.23
  -2   0  -1  455.56   18.61
   2  -1  -1  890.84   37.92
   2   1  -1  889.15   33.43
  -2   1  -1  895.16   29.50
   2   1  -1  955.54   29.42
   2  -1  -1  939.03   39.17
  -2   1   1  920.26   44.10
   2  -1   1  917.13   41.27
  -2  -1   1  938.43   27.84
  -2  -1  -1 1031.09   36.14
   2  -2  -1 1091.78   41.86
   2  -2   1 1126.08   34.86
   2   2  -1 1150.81   38.20
  -2   2  -1 1144.03   34.02
   2  -2  -1 1149.84   46.21
   2  -2   1 1128.94   49.41
   2   2   1 1142.03   38.66
  -2  -2   1 1170.05   40.73
  -2  -3  -1  934.57   39.17
   2  -3  -1  940.82   62.24
  -2   3  -1 1061.75   32.47
   2   3  -1 1093.41   35.55
   2  -3  -1  992.03   64.36
   2  -3   1  946.72   48.16
   2   3  -1 1088.67   30.73
  -2  -3  -1 1018.13   29.41
  -2  -3   1 1016.03   37.97
  -2  -4  -1 1650.07   57.80
   2  -4  -1 1551.07   59.19
  -2   4  -1 1604.49   47.07
   2   4  -1 1683.59   53.29
   2  -4  -1 1721.73   64.14
   2  -4   1 1596.99   65.78
   2   4  -1 1618.82   48.62
  -2  -4   1 1714.91   58.64
  -2  -5  -1  610.13   35.38
   2  -5  -1  663.20   48.20
  -2   5  -1  600.88   23.82
   2   5  -1  657.52   29.97
   2  -5  -1  605.72   41.37
   2  -5   1  615.82   38.81
   2   5  -1  546.08   23.62
  -2  -5   1  619.81   32.07
   2   5   1  596.60   24.44
  -2  -6  -1  988.17   49.28
   2  -6  -1  952.11   46.07
   2   6  -1  983.20   40.62
   2  -6  -1  871.39   59.45
   2  -6   1  985.45   52.70
  -2  -6   1  850.77   45.34
  -2  -7  -1  420.99   37.70
   2  -7  -1  438.06   43.87
   2   7  -1  454.55   33.91
   2  -7  -1  412.45   50.84
  -2  -7   1  388.34   31.17
   2  -8  -1 1892.57  178.45
   2   8  -1 1984.83  183.98
   2   8   1 2171.69  130.55
   2  -8  -1 1989.06  131.73
   2  -8   1 2147.62  138.68
  -2  -8   1 1851.14  174.08
   2  -9  -1  162.01   19.15
   2  -9  -1  178.44   28.22
   2  -9   1  169.30   26.39
   3   0  -1    7.34    8.39
   3   0   1    6.49    7.85
   3   0  -1   10.97   11.52
  -3   0   1   15.52    9.49
   3   0   1   28.42   15.73
   3  -1  -1  686.24   31.43
   3   1  -1  729.54   29.79
   3  -1   1  724.68   27.66
   3   1   1  702.12   29.12
   3  -1  -1  702.56   33.30
   3   1  -1  671.03   25.34
   3  -1   1  649.93   30.22
  -3  -1   1  666.02   21.06
   3   1   1  663.48   28.16
   3  -2  -1  840.95   36.34
   3  -2   1  831.55   30.84
   3   2  -1  831.80   33.74
   3  -2  -1  797.46   62.29
   3  -2   1  869.97   48.74
   3   2   1 1009.11   36.84
  -3  -2   1  820.06   35.47
   3  -3  -1  206.54   20.24
   3  -3   1  240.34   15.25
   3   3  -1  226.11   16.07
   3   3   1  220.99   16.12
   3  -3  -1  203.76   35.84
   3  -3   1  236.99   23.14
   3   3   1  201.77   15.49
  -3  -3   1  210.67   22.01
   3  -4  -1 1903.48   81.99
   3  -4   1 1938.96   72.79
   3   4   1 1820.75   70.00
   3  -4  -1 1884.42   82.54
   3  -4   1 1649.43  111.30
   3   4   1 1920.75   71.41
  -3  -4   1 2031.03   76.47
   3  -5  -1 1759.41   88.02
   3  -5   1 1772.95   67.20
   3   5  -1 1768.38   67.30
   3   5   1 1786.35   69.37
   3  -5  -1 1633.28   78.64
   3  -5   1 1839.51   79.34
   3   5  -1 1841.15   62.83
   3   5   1 1782.43   67.39
  -3  -5  -1 1725.85   59.71
  -3  -5   1 1957.09   85.04
   3  -6   1  347.89   28.30
   3  -6  -1  349.37   38.77
   3   6  -1  342.27   28.40
   3   6   1  321.62   28.26
   3  -6  -1  309.69   36.16
   3  -6   1  375.57   38.14
  -3  -6   1  327.73   28.90
   3  -7  -1  207.42   28.60
   3   7  -1  204.20   24.38
   3   7   1  195.40   24.94
   3  -7  -1  202.83   60.07
   3  -7   1  241.53   45.71
  -3  -7   1  203.13   25.75
   3  -8  -1  197.94   24.25
   3   8  -1  169.64   17.83
   3   8   1  176.68   19.84
   3  -8   1  199.57   30.71
  -3  -8   1  173.46   18.86
   3   9   1  592.54   41.20
   3  -9  -1  591.23   51.77
   3  -9   1  603.46   67.45
   4   0  -1 2489.49   79.25
   4   0   1 2580.00   82.37
   4   0  -1 2567.90   80.01
   4   0   1 2567.82   91.52
   4  -1  -1  725.89   34.37
   4   1  -1  759.46   35.36
   4  -1   1  733.39   33.95
   4  -1  -1  737.34   38.97
   4   1  -1  671.30   26.46
   4  -1   1  760.25   46.01
   4   1   1  745.80   35.44
  -4  -1   1  709.48   27.85
   4  -2  -1  278.64   25.77
   4  -2   1  239.30   18.22
   4   2  -1  222.75   19.55
   4   2   1  272.41   21.91
   4  -2  -1  248.06   33.33
   4   2  -1  212.97   13.80
   4  -2   1  219.03   21.37
   4   2   1  245.11   17.93
  -4  -2   1  242.25   10.17
   4  -3  -1  711.77   44.27
   4  -3   1  597.80   31.25
   4   3  -1  618.77   35.22
   4   3   1  774.54   38.98
   4  -3  -1  581.43   58.98
   4  -3   1  560.89   38.08
  -4  -3   1  607.03   31.10
  -4  -3  -1  621.57   26.82
   4  -4  -1 1575.26   70.07
   4  -4   1 1850.65   74.22
   4   4  -1 1737.55   71.21
   4   4   1 1498.94   62.19
   4  -4  -1 1712.90   79.53
   4  -4   1 1559.06   91.41
  -4  -4   1 1541.82   61.97
   4  -5  -1  230.12   26.72
   4  -5   1  242.95   23.60
   4   5  -1  337.01   30.94
   4   5   1  217.59   23.48
   4  -5  -1  225.82   32.05
   4   5   1  194.23   18.53
  -4  -5  -1  196.83   14.96
  -4  -5   1  242.78   23.00
   4  -6  -1   12.48   11.80
   4   6  -1   12.39    8.52
   4   6   1    9.36    8.82
   4  -6  -1   45.21   37.00
   4  -6   1    6.17    8.30
   4   6   1    3.99    4.38
  -4  -6   1   12.57   13.09
   4  -7  -1 1604.79  107.48
   4   7  -1 1336.01   83.64
   4   7   1 1470.57   94.17
   4  -7  -1 1559.17  108.25
  -4  -7   1 1261.38   79.19
   4  -8  -1  476.71   37.65
   4   8  -1  388.00   28.04
   4   8   1  393.27   31.40
   4  -8  -1  426.49   49.87
   4  -8   1  482.02   47.78
   5   0  -1    8.18   14.69
   5   0   1    2.17    9.26
   5   0  -1    3.94    5.72
   5   0   1    5.93   11.73
   5   1  -1  979.36   46.96
   5  -1   1 1002.66   46.57
   5  -1  -1 1124.25   56.99
   5   1  -1  919.46   38.69
   5  -1   1 1008.63   50.15
   5   1   1  948.90   46.97
   5  -2  -1  469.01   36.44
   5  -2   1  455.04   27.94
   5   2  -1  479.18   30.94
   5   2   1  442.35   28.11
   5  -2  -1  487.03   41.19
   5   2  -1  431.50   22.00
   5  -2   1  473.83   45.86
   5   2   1  483.66   29.61
   5  -3  -1 1068.82   77.70
   5  -3   1 1036.88   71.83
   5   3  -1  897.10   65.32
   5   3   1 1069.63   75.36
   5  -3  -1 1039.94  103.94
   5  -3   1 1044.27   76.82
   5   3   1  968.90   66.06
  -5  -3   1 1085.32   74.55
  -5  -3  -1  991.48   66.03
   5  -4  -1  756.22   61.47
   5  -4   1  695.38   51.82
   5   4  -1  688.67   54.00
   5   4   1  855.16   62.73
   5  -4  -1  773.48   77.21
   5  -4   1  841.08   69.18
   5   4   1  774.98   53.26
  -5  -4   1  676.14   49.16
   5  -5  -1  138.58   78.67
   5  -5   1  139.19   28.75
   5   5  -1  121.82   20.49
   5   5   1  151.06   23.58
   5  -5  -1  136.42   28.87
   5  -5   1  140.78   24.93
  -5  -5   1  134.15   18.93
   5  -6  -1  924.80   68.26
   5   6  -1 1150.11   77.10
   5   6   1  825.48   58.98
   5  -6  -1  850.85   67.11
   5  -6   1  947.64   72.60
  -5  -6   1  930.46   62.65
   5  -7  -1    4.72    7.76
   5   7  -1    9.29   10.98
   5   7   1   10.41   14.08
   5  -7  -1    6.22   15.81
   5  -7   1   12.28   21.78
   6   0  -1  822.08   61.25
   6   0   1  852.23   64.01
   6   0  -1  941.34   65.67
   6   0   1  818.12   64.73
   6  -1  -1  622.90   52.03
   6   1  -1  574.95   46.86
   6  -1   1  564.42   44.00
   6   1   1  569.25   45.83
   6   1  -1  585.35   48.85
   6  -1  -1  600.47   50.40
   6  -1   1  684.46   57.15
   6   1   1  661.98   53.99
   6  -2  -1  576.28   47.72
   6  -2   1  570.35   44.99
   6   2  -1  555.84   46.00
   6   2   1  573.60   46.69
   6  -2  -1  653.65   56.23
   6  -2   1  592.88   70.32
   6   2   1  599.20   47.35
   6  -3  -1  332.09   43.41
   6  -3   1  316.81   37.37
   6   3  -1  350.08   42.37
   6   3   1  310.52   39.08
   6  -3  -1  339.70   43.75
   6  -3   1  336.74   48.87
   6   3   1  317.73   35.44
  -6  -3   1  308.23   34.62
   6  -4  -1  159.70   31.40
   6  -4   1  165.88   24.00
   6   4  -1  132.87   25.30
   6   4   1  146.50   23.49
   6  -4  -1  188.68   32.52
   6  -4   1  147.41   55.41
  -6  -4   1  154.73   21.82
   6  -5  -1  416.58   41.84
   6  -5   1  384.26   34.60
   6   5  -1  308.33   29.72
   6   5   1  398.84   34.62
   6  -5  -1  395.33   40.47
   6  -5   1  351.66   40.13
  -6  -5   1  328.42   27.94
   6  -6  -1  235.64   48.87
   6   6  -1  218.26   27.55
   6   6   1  197.25   22.37
   6  -6  -1  253.98   32.38
   6  -6   1  237.83   52.77
   7   0   1    8.45   10.76
   7   0   1    2.46    7.65
   7  -1  -1  165.74   26.81
   7   1  -1  150.34   25.89
   7  -1   1  151.35   19.59
   7   1   1  155.00   23.53
   7  -1  -1  131.91   27.62
   7  -1   1  138.92   24.93
   7   1   1  146.12   17.88
   7  -2  -1 1835.68  119.79
   7  -2   1 1615.42  103.76
   7   2  -1 1651.86  108.00
   7   2   1 1505.33  100.45
   7  -2  -1 1707.86  124.74
   7  -2   1 1808.95  130.28
   7  -3  -1   47.01   17.48
   7  -3   1   47.17   12.75
   7   3  -1   58.31   17.03
   7   3   1   89.00   19.59
   7  -3  -1   48.54   56.13
   7  -3   1   42.68   56.57
  -7  -3   1   37.94   23.48
   7  -4  -1  204.45   30.20
   7  -4   1  210.41   23.96
   7   4  -1  192.00   25.53
   7   4   1  171.97   24.14
   7  -4  -1  186.19   26.83
   7  -4   1  194.79   27.78
  -7  -4   1  181.56   19.21
   8   0  -1  792.49   60.05
   8   0   1  723.79   51.15
   0   0  -2 5891.36  165.55
   0   0   2 5757.22  158.10
   0   0   2 6580.09  218.89
   0   0   2 5891.17  161.22
   0   0  -2 5533.01  154.40
   0  -1  -2    9.48   12.20
   0   1  -2   10.71    7.35
   0  -1   2    7.47    5.05
   0   1  -2   53.75    8.64
   0  -1   2   12.06   11.59
   0  -2  -2 4695.79  140.74
   0  -2   2 5450.65  144.94
   0  -2   2 4836.31  133.46
   0   2  -2 5349.91  146.90
   0  -2   2 5379.11  155.31
   0   3  -2   22.76    3.03
   0  -3  -2    1.42   16.40
   0   3  -2   16.36    2.31
   0  -3   2    2.98    4.79
   0  -3   2    2.73    4.84
   0   4  -2 6109.81  163.37
   0   4  -2 6411.62  208.17
   0  -4   2 6288.17  213.28
   0  -4   2 6218.67  176.51
   0  -5  -2    9.81   13.46
   0   5  -2   14.18    3.65
   0  -5   2    7.26   12.58
   0  -5   2    4.34    4.99
   0   6  -2  158.99    8.57
   0  -6   2  139.27   16.98
   0  -6   2  151.40   20.83
   0  -7  -2    7.66   10.41
   0  -7   2    3.64    6.43
   0  -7   2    4.33    7.66
   0  -8  -2  201.16   28.56
   0  -8   2  174.50   25.86
   0  -9  -2    6.28    7.21
   0  -9   2    4.97    7.13
  -1   0  -2    6.24    5.97
   1   0   2   13.44    9.06
   1   0  -2   23.78   15.21
   1   0   2    8.88    8.58
   1   0   2   11.23    6.74
  -1   0  -2    6.83    9.60
  -1   0   2    9.81    7.35
  -1   1  -2 7649.58  249.43
  -1  -1  -2 7048.43  248.38
   1  -1  -2 6969.95  235.74
   1   1  -2 6708.98  221.66
  -1  -1   2 7736.56  258.28
   1  -1   2 7551.00  250.80
  -1  -1   2 7428.98  242.02
   1   1   2 7525.69  249.40
   1  -1   2 7574.26  251.20
   1   1   2 6900.14  225.13
  -1  -1   2 7796.70  260.51
  -1  -2  -2 3177.70   95.38
   1  -2   2 3093.89   83.37
   1  -2  -2 2940.47   95.27
   1   2  -2 3041.15   86.86
   1  -2   2 2998.89   80.07
   1  -2   2 2988.33   94.97
   1   2  -2 3007.94   83.51
   1  -2   2 3019.26   90.35
   1   2   2 3136.05   84.64
  -1  -2   2 2978.45   92.86
  -1  -3  -2  882.50   39.16
   1  -3  -2  907.88   44.43
  -1  -3   2  912.57   28.36
  -1  -3   2  924.41   31.28
   1  -3   2  817.51   41.55
   1   3  -2  925.07   29.91
   1   3   2  872.78   25.13
   1  -3   2  833.98   37.56
  -1  -3   2  867.24   35.67
   1   4  -2  755.94   34.33
  -1  -4  -2  819.85   38.48
   1  -4  -2  868.25   40.64
   1   4  -2  837.63   28.01
  -1  -4   2  788.99   34.25
   1  -4   2  813.30   39.58
   1  -4   2  847.89   40.48
   1   4   2  850.56   26.25
  -1  -4   2  821.71   37.06
  -1  -5  -2  106.23   43.03
   1  -5  -2  124.70   19.16
   1   5  -2  124.91    9.64
  -1  -5   2  123.20   22.61
   1  -5   2  119.61   17.53
   1  -5   2  123.98   19.72
  -1  -5   2  113.74   16.22
   1   5   2   93.86    9.08
  -1  -6  -2  147.54   21.39
   1  -6  -2  151.62   21.61
   1   6  -2  173.02   12.49
  -1  -6   2  168.11   18.30
   1  -6   2  143.84   17.87
  -1  -6   2  150.01   18.50
  -1  -7  -2  262.75   28.49
   1  -7  -2  226.57   41.80
   1   7  -2  273.34   21.11
  -1  -7   2  275.20   26.66
   1  -7   2  278.49   30.56
  -1  -7   2  220.60   23.40
  -1  -8  -2   18.69   14.91
   1  -8  -2   19.46   13.39
  -1  -8   2   22.54   36.09
   1  -8   2   13.78   19.19
  -1  -8   2   11.44   10.28
  -1  -9  -2   45.73   50.95
   1  -9  -2   36.04   31.83
   1  -9   2   41.50   29.39
   2   0  -2  411.96   23.08
   2   0   2  429.42   17.72
  -2   0   2  380.70   17.55
   2   0   2  434.12   23.39
  -2   0  -2  453.89   17.90
  -2  -1  -2 4397.72  132.89
   2  -1   2 4410.68  125.73
   2  -1  -2 4593.66  135.27
   2   1  -2 4712.92  135.21
   2  -1   2 4235.79  117.30
  -2  -1   2 4619.28  127.68
   2  -1   2 4527.14  131.58
   2   1   2 4504.61  128.63
  -2  -1  -2 4317.45  117.43
  -2  -1   2 4623.14  139.99
  -2  -2  -2 1440.31   52.37
   2  -2   2 1294.27   41.12
   2  -2  -2 1332.98   54.31
   2   2  -2 1404.30   45.95
   2  -2  -2 1391.66   52.05
  -2  -2   2 1395.00   39.56
   2  -2   2 1652.90   79.36
  -2  -2   2 1368.35   37.98
   2   2   2 1428.71   49.62
  -2  -2   2 1362.98   59.18
   2  -3   2  552.27   18.11
  -2  -3  -2  561.42   31.56
   2  -3  -2  568.12   35.10
   2  -3   2  537.13   17.96
   2   3  -2  526.60   22.10
   2  -3  -2  599.67   34.93
  -2  -3   2  569.49   17.11
   2  -3   2  514.71   33.25
   2   3   2  548.67   24.31
  -2  -3   2  522.06   27.23
   2  -4   2 3044.25   99.38
  -2  -4  -2 2872.78  108.70
   2  -4   2 2823.75   95.32
   2  -4  -2 2940.68  135.97
   2   4  -2 3340.54  114.81
   2  -4  -2 2763.66  110.86
  -2  -4   2 3067.48  102.30
   2   4  -2 3060.26  101.00
  -2  -4   2 2854.16  108.71
  -2  -5  -2  954.55   52.44
   2   5  -2  912.00   38.52
   2  -5  -2  961.14   55.75
   2  -5   2  802.61   56.06
   2   5  -2  777.63   30.04
  -2  -5   2  852.79   42.66
  -2  -6  -2  220.52   27.69
   2  -6  -2  186.97   25.55
   2   6  -2  200.79   18.60
   2  -6  -2  164.65   28.77
   2  -6   2  206.59   25.08
  -2  -6   2  181.48   23.06
  -2  -7  -2   76.90   60.96
   2  -7  -2   73.22   55.96
   2   7  -2   86.27   12.83
   2  -7  -2   79.02   23.32
   2  -7   2   89.13   59.90
  -2  -7   2   77.21   14.60
  -2  -8  -2  257.87   31.04
   2  -8  -2  223.38   26.71
   2  -8   2  270.02   50.51
  -2  -8   2  246.78   27.06
  -2  -9  -2   36.63   13.60
   2  -9  -2   23.44   21.16
   2  -9   2   50.75   52.76
  -2  -9   2   46.01   14.65
   3   0  -2    6.69   13.58
   3   0   2    1.48    6.08
   3   0  -2   17.53    9.13
  -3   0   2    6.97    5.27
   3   0   2    7.49   10.78
   3  -1  -2  897.18   39.42
   3   1  -2  852.61   35.23
   3  -1   2  856.62   31.75
   3   1   2  953.52   34.45
   3  -1  -2  853.92   36.88
  -3  -1   2  856.02   28.88
   3  -1   2  871.30   51.11
   3   1   2  899.68   37.94
  -3  -1  -2  877.48   28.22
   3  -2  -2 4486.78  138.38
   3   2  -2 4356.31  126.37
   3  -2   2 4111.41  115.00
   3   2   2 4077.03  119.19
   3  -2  -2 4319.86  132.87
   3  -2   2 4052.02  134.78
   3   2   2 4253.15  125.14
  -3  -2  -2 3846.73  103.83
  -3  -2   2 4476.33  131.38
   3  -3   2 2658.47   93.60
   3   3  -2 2686.70   96.85
   3   3   2 2591.66   93.72
   3  -3  -2 2646.15  104.96
   3  -3   2 2816.71  125.02
   3   3   2 2587.06   94.86
  -3  -3   2 2695.15   98.78
  -3  -4  -2  442.15   30.14
   3  -4  -2  458.96   35.79
   3   4  -2  455.13   26.05
  -3   4  -2  383.90   15.45
   3  -4  -2  483.47   52.52
   3  -4   2  439.47   33.41
   3   4   2  464.95   29.00
  -3  -4   2  503.19   30.19
  -3  -5  -2  144.65   25.03
   3  -5   2  147.25   10.48
   3  -5  -2  176.98   28.23
   3   5  -2  243.83   18.69
   3  -5  -2  234.73   92.19
   3  -5   2  140.81   65.93
   3   5   2  162.67   16.93
  -3  -5   2  162.43   28.12
   3  -6  -2 1246.33   92.10
   3   6  -2 1210.31   81.19
   3  -6  -2 1167.33   89.46
   3  -6   2 1345.19  103.26
   3   6   2 1172.84   80.16
  -3  -6   2 1225.32   88.15
   3  -7  -2   56.97   42.32
   3   7  -2  104.32   15.89
   3   7   2   69.96   14.95
   3  -7  -2   73.68   29.88
   3  -7   2   61.63   44.73
   3   7   2   59.91   12.47
  -3  -7   2   62.88   51.86
   3  -8  -2   35.76   41.07
   3   8   2   74.87   16.16
   3  -8  -2   73.02   31.33
   3  -8   2   58.08   45.09
  -3  -8   2   44.22   26.62
   4   0  -2 4583.04  289.87
   4   0  -2 6521.28  406.48
   4   0   2 5588.38  354.16
   4  -1  -2  448.34   32.69
   4   1  -2  378.45   29.32
   4  -1   2  488.25   28.55
   4   1   2  376.72   23.25
   4  -1  -2  526.38   31.41
   4  -1   2  443.81   41.25
  -4  -1   2  396.85   17.60
   4   1   2  380.22   26.64
   4  -2  -2  351.11   30.29
   4   2  -2  325.50   23.27
   4  -2   2  377.72   22.01
   4  -2  -2  302.60   64.18
   4  -2   2  352.30   34.13
   4   2   2  350.69   24.86
  -4  -2  -2  328.83   14.91
  -4  -2   2  308.05   24.23
   4  -3  -2 1056.35   54.86
   4  -3   2 1019.62   41.64
   4   3  -2  973.39   47.05
   4   3   2 1074.30   49.50
   4  -3  -2 1003.64   53.03
   4  -3   2 1127.04   72.78
   4   3   2  997.95   46.96
  -4  -3  -2  875.82   30.82
  -4  -3   2 1041.44   51.57
  -4  -3  -2 1018.64   35.71
   4  -4  -2   47.09   44.54
   4  -4   2   52.31    9.19
   4   4  -2   56.88   13.69
   4   4   2   53.30   15.41
   4  -4  -2   54.93   51.21
   4  -4   2   57.68   32.22
   4   4   2   45.63   11.03
  -4  -4   2   53.38   43.65
   4  -5  -2   65.56   61.75
   4   5  -2   55.15   12.08
   4   5   2   56.06   13.65
   4  -5  -2   62.02   48.44
   4  -5   2   93.75   32.89
   4   5   2   51.16   13.69
  -4  -5   2   67.00   22.45
   4  -6  -2  691.32   77.64
   4   6  -2  628.75   63.12
   4   6   2  555.95   58.24
   4  -6  -2  549.52   95.18
   4  -6   2  613.59   67.22
   4   6   2  502.89   52.32
  -4  -6   2  631.39   64.97
   4  -7  -2  190.04   63.20
   4   7  -2  171.40   19.07
   4   7   2  204.49   23.83
   4  -7  -2  194.51   34.58
   4  -7   2  194.17   26.28
   4   7   2  178.87   22.98
  -4  -7   2  207.63   22.07
   4  -8  -2   28.50   30.63
   4   8  -2   29.39    8.63
   4   8   2   34.64   12.59
   4  -8  -2   36.33   22.96
   4  -8   2   36.87   36.04
  -4  -8   2   18.06   28.17
   5   0   2    3.78    8.99
   5   0   2    1.66   11.12
   5  -1  -2  127.24   22.38
   5   1  -2  120.40   20.11
   5  -1   2  107.65   14.09
   5   1   2  102.27   14.88
   5   1  -2  120.93   12.96
   5  -1  -2  117.58   39.37
   5  -1   2  111.48   21.37
   5   1   2  133.94   29.92
   5   2  -2   23.00   10.69
   5  -2   2   10.24    6.98
   5   2   2   37.76   12.31
   5  -2  -2   27.34   15.74
   5  -2   2   12.37   15.70
   5   2   2   19.60   10.63
  -5  -2   2   16.20    7.81
   5  -3  -2 2236.50  212.25
   5  -3   2 2059.15  134.43
   5   3  -2 1867.88  124.58
   5   3   2 2442.05  228.04
   5  -3  -2 1897.11  136.80
   5  -3   2 2045.48  137.95
   5   3   2 2338.94  218.12
  -5  -3   2 2084.73  194.66
   5  -4  -2  333.46   50.73
   5  -4   2  322.38   26.40
   5   4  -2  315.71   31.40
   5   4   2  261.50   26.88
   5  -4  -2  353.67   41.38
   5  -4   2  394.96   39.72
   5   4   2  297.13   27.44
  -5  -4   2  354.06   31.73
   5  -5  -2  372.44   46.27
   5   5  -2  298.50   37.17
   5   5   2  318.59   38.13
   5  -5  -2  348.61   53.68
   5  -5   2  346.85   59.08
   5   5   2  292.31   33.87
  -5  -5   2  346.19   38.93
   5  -6  -2 1229.01   86.31
   5   6  -2 1153.64   77.19
   5   6   2 1079.78   73.60
   5  -6  -2 1113.52  108.58
   5  -6   2 1151.65   81.94
  -5  -6   2 1155.00   76.12
   5  -7  -2   32.68   33.86
   5   7  -2   40.20   11.42
   5   7   2   29.91    9.81
   5  -7  -2   44.14   50.81
   5  -7   2   40.27   43.03
  -5  -7   2   28.28   23.70
   6   0  -2 1820.89  174.37
   6   0   2 1718.69  116.26
   6   0  -2 1646.73  107.69
   6   0   2 1970.33  138.84
   6  -1  -2  438.56   52.54
   6   1  -2  407.16   47.11
   6  -1   2  428.98   47.36
   6  -1  -2  409.76   49.77
   6  -1   2  447.43   60.60
   6   1   2  414.64   61.87
   6  -2  -2  388.73   49.21
   6   2  -2  368.35   43.60
   6  -2   2  368.32   39.84
   6   2   2  352.41   39.76
   6  -2  -2  363.00   48.75
   6  -2   2  379.15   49.21
   6   2   2  384.61   59.02
  -6  -2   2  401.85   45.30
   6  -3  -2  184.13   32.92
   6  -3   2  154.37   23.12
   6   3  -2  131.92   22.12
   6   3   2  132.98   20.68
   6  -3  -2  147.21   52.65
   6  -3   2  177.04   35.77
   6   3   2  141.55   21.74
  -6  -3   2  151.54   23.20
   6  -4  -2  423.87   42.16
   6  -4   2  437.57   34.33
   6   4  -2  358.29   34.13
   6   4   2  491.62   41.69
   6  -4  -2  402.50   39.64
   6  -4   2  398.02   39.93
   6   4   2  408.62   35.39
  -6  -4   2  409.83   33.86
   6  -5  -2  298.38   33.74
   6   5  -2  242.83   25.79
   6   5   2  290.72   28.84
   6  -5  -2  287.39   48.98
   6  -5   2  351.47   49.04
  -6  -5   2  291.98   40.38
   6  -6  -2    7.60    9.16
   6   6  -2    5.13    8.38
   6   6   2    5.09   11.61
   6  -6  -2   -2.68   11.27
   6  -6   2    3.48   13.13
  -6  -6   2   -0.33    4.57
   7   0  -2    4.33   12.74
   7   0   2    4.02   12.44
   7   0   2    0.09    9.44
   7   1  -2   37.30   18.23
   7  -1   2   11.09    8.87
   7   1   2   11.96   10.06
   7  -1   2   13.78   18.51
   7   1   2    7.42   10.00
   7  -2  -2  417.96   41.26
   7   2  -2  498.05   44.04
   7  -2   2  417.31   35.52
   7   2   2  402.61   38.43
   7  -2  -2  415.00   38.68
   7  -2   2  452.14   59.81
   7   2   2  420.82   36.13
  -7  -2   2  481.49   41.61
   7  -3  -2  109.78   28.60
   7  -3   2   99.77   18.67
   7   3  -2   74.03   20.05
   7   3   2   96.20   22.75
   7  -3  -2   76.03   33.29
   7  -3   2  100.21   33.28
  -7  -3   2  100.16   15.82
   7  -4  -2   58.75   22.83
   7   4  -2   33.02   13.51
   7   4   2   33.90   13.93
   7  -4  -2   29.31   37.25
   7  -4   2   40.66   40.57
  -7  -4   2   33.16   29.07
   0   0  -3    6.11    5.72
   0   0   3    9.06   10.32
   0   0   3    6.66    4.92
   0  -1  -3 1045.22   43.49
   0   1  -3  963.57   39.06
   0  -1   3  970.66   33.30
   0  -1   3 1020.58   38.24
   0   1   3  974.65   37.52
   0  -1   3 1012.77   39.83
   0   1   3 1043.22   44.36
   0  -2  -3    0.61    8.89
   0   2  -3   39.97    8.53
   0  -2   3    2.57    1.88
   0  -2   3   26.55   10.52
   0  -2   3   16.84   20.40
   0   2   3    8.52    5.17
   0  -3  -3  922.63   57.72
   0  -3   3  986.31   28.42
   0  -3   3 1029.57   39.93
   0  -3   3  926.07   39.66
   0  -4  -3    5.45    9.79
   0  -4   3    5.23    9.42
   0  -4   3    7.30   10.22
   0  -5   3  548.75   32.85
   0  -5   3  519.81   33.68
   0  -6  -3    0.22    5.73
   0  -6   3    3.27    7.89
   0  -6   3   22.87   16.97
   0  -7   3 3451.55  203.65
   0  -7   3 3161.43  190.22
   0  -8  -3    1.93    5.02
   0  -8   3    1.51    4.45
   0  -8   3    1.89    7.78
   0  -9  -3  147.09   49.11
  -1   0  -3    0.92    4.42
   1   0  -3    1.12    3.30
   1   0   3    4.35   10.89
  -1   0   3   -0.34    4.83
   1   0   3    1.74    2.87
  -1   0   3    1.50    4.61
  -1   1  -3  132.60   11.47
  -1  -1  -3  142.78   61.01
   1  -1   3  135.73   17.79
   1  -1  -3  142.23   55.46
   1   1  -3  126.89   38.21
   1  -1   3  126.84   14.99
  -1  -1   3  132.36   11.13
   1   1   3  116.47   14.58
   1  -1   3  134.96   13.62
   1   1   3  146.39   11.12
  -1  -1   3  126.96   13.87
  -1  -1  -3  105.79   10.45
  -1   2  -3 2058.07   59.47
  -1  -2  -3 1917.11   67.71
   1  -2  -3 1954.28   74.12
   1  -2   3 1946.75   57.37
   1   2  -3 1843.33   59.43
   1  -2   3 1960.72   65.55
  -1  -2   3 1930.96   59.61
   1   2   3 1891.55   63.35
   1  -2   3 1981.89   65.91
   1   2   3 1927.46   58.22
  -1  -2   3 1826.89   63.62
  -1  -3  -3  205.72   21.43
   1  -3  -3  185.94   20.82
   1   3  -3  206.58   15.42
  -1  -3   3  193.54    9.20
   1  -3   3  287.75   29.61
   1  -3   3  218.25   19.66
  -1  -3   3  205.08   31.47
   1   3   3  194.40   10.52
  -1  -4  -3 2437.42   97.91
   1  -4  -3 2527.21  139.48
   1   4  -3 2928.82   99.43
  -1  -4   3 2627.18   89.38
  -1  -4   3 2583.12   92.94
   1  -4   3 2468.09   98.10
  -1  -4   3 2521.74   96.98
   1   4   3 2624.97   88.33
  -1  -5  -3 1028.20   70.39
   1  -5  -3 1053.03   56.74
   1   5  -3 1043.65   39.79
  -1  -5   3 1125.17   47.43
   1  -5   3  958.36   53.62
   1  -5   3 1037.30   51.05
  -1  -5   3 1009.00   49.93
  -1  -6  -3  850.47   65.25
   1  -6  -3  804.28   73.89
  -1  -6   3  814.97   57.38
   1  -6   3  865.79   70.43
   1  -6   3  827.09   61.63
  -1  -6   3  768.71   56.63
  -1  -7  -3   80.00   60.61
   1  -7  -3   79.60   56.49
  -1  -7   3   84.69   15.47
   1  -7   3   73.42   18.90
  -1  -7   3   78.06   50.15
  -1  -8  -3  121.66   25.09
   1  -8  -3  107.78   47.00
   1  -8   3  127.82   19.69
  -1  -8   3  111.85   18.47
  -1  -9  -3  214.72   28.44
   1  -9  -3  220.34   28.83
   1  -9   3  211.81   33.40
  -1  -9   3  218.66   26.97
  -2   0  -3  632.30   30.02
   2   0  -3  583.43   31.57
   2   0   3  603.83   30.25
   2   0   3  651.41   26.46
  -2   0   3  617.32   30.16
  -2   1  -3  220.88   14.83
  -2  -1  -3  168.16   16.94
   2  -1  -3  177.01   29.58
   2   1  -3  158.56   19.67
   2  -1   3  229.54   25.80
   2   1   3  157.53   17.85
  -2  -1   3  194.08   12.40
   2   1   3  163.41   11.66
   2  -1   3  192.78   16.91
  -2  -1   3  169.31   26.57
  -2  -2  -3 1120.05   47.20
   2  -2   3 1173.94   38.78
   2  -2  -3 1226.05   53.71
   2   2  -3 1164.41   43.92
   2  -2   3 1015.13   58.57
   2   2   3 1191.17   47.96
   2  -2   3 1330.95   50.76
  -2  -2   3 1209.13   47.77
  -2  -3  -3  241.76   30.43
   2  -3   3  276.01   12.03
   2  -3  -3  284.48   30.92
   2   3  -3  264.69   19.63
   2  -3   3  254.51   10.18
   2   3   3  314.15   25.69
   2  -3   3  276.48   26.94
  -2  -3   3  261.19   22.67
  -2  -4  -3 1001.50   63.75
   2  -4  -3  956.53   56.41
   2   4  -3  974.20   41.98
   2  -4   3  926.16   54.31
   2   4   3 1001.35   48.32
   2   4  -3  799.73   29.06
   2  -4   3  929.03   45.24
  -2  -4   3  960.52   58.02
  -2  -5  -3  846.45   67.00
   2  -5  -3  818.29   66.02
   2   5  -3 1024.76   67.96
   2  -5   3  798.94   61.37
  -2  -5   3  849.81   63.87
  -2  -6  -3  546.71   48.84
   2   6  -3  539.84   38.88
   2  -6   3  505.99   49.20
  -2  -6   3  528.44   44.64
  -2  -7  -3  584.05   64.79
   2  -7  -3  557.95   63.43
   2  -7   3  551.78   58.81
  -2  -7   3  530.25   58.26
  -2  -8  -3 1432.95   98.48
   2  -8  -3 1302.63   93.10
   2  -8   3 1500.76  100.45
  -2  -8   3 1364.17   91.26
   3   0  -3    1.25   13.55
   3   0   3    5.77    8.01
   3   0   3   14.53   24.50
   3  -1  -3  414.44   42.37
   3   1  -3  338.89   31.23
   3  -1   3  292.06   16.82
   3   1   3  310.73   18.46
  -3  -1   3  327.78   17.21
   3  -1   3  354.13   32.33
   3   1   3  334.86   27.99
  -3  -1  -3  289.74   14.71
  -3  -1   3  329.08   23.53
  -3  -2  -3 1178.98   53.49
   3  -2  -3 1222.75   63.56
   3   2  -3 1181.35   52.51
   3  -2   3 1118.51   41.81
  -3  -2   3 1203.97   42.03
   3  -2   3 1270.30   61.33
  -3  -2   3 1171.40   40.34
   3   2   3 1175.19   51.47
  -3  -2  -3 1120.84   40.27
  -3  -2   3 1426.13   63.40
  -3  -3  -3  116.90   59.09
   3  -3  -3  114.69   19.32
   3   3  -3  144.52   18.61
   3  -3   3  126.64   19.65
   3   3   3  129.92   20.17
  -3  -3   3  119.44   27.88
  -3  -4  -3   58.08   43.61
   3  -4  -3   59.70   44.70
   3   4  -3   56.74   10.70
   3  -4   3   70.79   45.03
   3   4   3   72.35   17.08
  -3  -4   3   76.35   14.02
  -3  -5  -3 1414.80   98.41
   3  -5  -3 1418.65  105.04
   3   5  -3 1420.63   95.21
   3  -5   3 1378.10   97.81
   3   5   3 1610.79  109.27
  -3  -5   3 1516.25  104.33
   3  -6  -3  657.90   73.94
   3   6  -3  934.91   90.14
   3  -6   3  653.34   69.30
   3   6   3  666.15   69.23
  -3  -6   3  699.85   72.23
  -3  -7  -3  174.88   27.20
   3  -7  -3  163.56   95.61
   3  -7   3  189.04   26.50
   3   7   3  182.93   22.64
  -3  -7   3  187.75   23.96
  -3  -8  -3  211.66   26.73
   3  -8  -3  239.97   31.43
   3  -8   3  228.73   46.25
   3   8   3  184.75   21.74
  -3  -8   3  222.39   23.45
   4   0  -3 2330.49   93.37
   4   0   3 2548.56   95.67
   4   0   3 2797.98  108.93
   4  -1  -3  287.06   32.64
   4   1  -3  216.04   24.37
   4  -1   3  176.74   14.23
   4  -1   3  216.14   29.90
   4   1   3  261.18   33.41
  -4  -1   3  240.43   25.48
   4  -2  -3  125.72   27.34
   4   2  -3   92.65   17.52
   4  -2   3   78.29    9.65
   4   2   3   63.66   11.55
   4  -2   3   84.95   46.52
   4   2   3   74.10   15.18
  -4  -2   3  106.78   38.68
   4  -3  -3  962.31   78.71
   4   3  -3  892.86   64.86
   4  -3   3  945.20   62.29
   4  -3  -3  878.46   69.00
   4  -3   3  966.81   83.75
   4   3   3  839.56   61.53
  -4  -3   3  890.71   74.69
   4  -4  -3  787.33   65.23
   4   4  -3  768.10   57.07
   4   4   3  729.75   53.84
   4  -4  -3  789.74   64.74
   4  -4   3  870.73   70.42
   4   4   3  772.30   58.06
  -4  -4   3  792.89   59.26
   4   5  -3  441.54   46.65
   4   5   3  506.79   53.98
   4  -5  -3  517.84   62.27
   4  -5   3  501.71   58.19
   4   5   3  494.87   54.62
  -4  -5   3  606.12   64.56
   4  -6  -3   17.67   18.04
   4   6  -3   19.58   10.37
   4   6   3   12.98   11.44
   4  -6  -3   25.36   18.61
   4  -6   3   17.91   10.28
   4   6   3   21.21   12.18
  -4  -6   3   17.19   13.16
   4  -7  -3  273.56   34.11
   4   7  -3  290.30   25.95
   4   7   3  249.82   25.26
   4  -7   3  269.35   32.16
   4   7   3  233.81   25.21
  -4  -7   3  279.43   27.31
   5   0  -3    8.95   18.58
   5   0   3    0.57    6.59
   5   0   3    2.29   10.32
   5  -1  -3  137.92   24.22
   5   1  -3  118.34   23.73
   5  -1   3  155.59   20.42
   5   1   3  117.19   16.14
   5  -1   3  150.67   83.22
   5   1   3   97.95   28.67
   5  -2  -3  381.86   40.90
   5   2  -3  302.77   32.60
   5  -2   3  336.57   27.98
   5   2   3  349.67   30.81
   5  -2  -3  315.14   30.80
   5  -2   3  324.38   40.53
   5   2   3  347.70   33.30
  -5  -2   3  370.07   34.75
   5   3  -3 1180.81  115.73
   5  -3   3 1289.57  120.83
   5   3   3 1128.85  109.29
   5  -3  -3 1168.71  117.36
   5  -3   3 1258.64  125.07
   5   3   3 1272.57  123.92
  -5  -3   3 1278.72  127.78
   5  -4  -3   39.85   35.42
   5   4  -3   37.04   13.07
   5   4   3   47.14   15.62
   5  -4  -3   64.27   21.00
   5  -4   3   47.54   32.56
   5   4   3   41.63   13.42
  -5  -4   3   74.39   18.52
   5   5  -3   16.39    9.29
   5   5   3   17.61   11.85
   5  -5  -3   12.83   18.06
   5  -5   3   24.11   20.61
   5   5   3   22.41   15.35
  -5  -5   3   24.40   29.18
   5  -6  -3 1245.18   93.15
   5   6   3 1452.26   90.11
   5  -6  -3 1077.75   74.60
   5  -6   3 1190.97   79.44
   5   6   3  904.81   55.65
  -5  -6   3 1170.63   71.38
   6   0  -3 1331.78  129.89
   6   0   3 1540.36  148.01
   6   0   3 1375.36  136.59
   6  -1  -3  550.40   62.45
   6   1  -3  479.21   53.91
   6  -1   3  472.57   49.48
   6   1   3  450.61   47.26
   6  -1   3  479.93   75.97
   6   1   3  527.49   58.13
   6  -2  -3   36.14   20.44
   6   2  -3   25.30   12.36
   6  -2   3   29.97   11.26
   6  -2  -3   19.42   12.18
   6  -2   3   26.49   19.77
   6   2   3   28.06   14.31
  -6  -2   3   12.36   26.99
   6  -3  -3  454.19   46.11
   6   3  -3  398.02   42.30
   6  -3   3  416.30   31.36
   6   3   3  511.77   44.35
   6  -3  -3  364.38   34.83
   6  -3   3  386.28   41.17
   6   3   3  449.61   37.01
  -6  -3   3  416.44   35.76
   6  -4  -3   14.77   12.43
   6   4  -3   23.62   12.63
   6  -4  -3   28.46   18.80
   6  -4   3   35.95   55.19
   6   4   3   19.51    9.83
  -6  -4   3   14.79   16.33
   6  -5  -3   95.52   31.10
   6   5   3   93.67   19.88
   6  -5  -3   81.64   26.15
   6  -5   3   89.08   70.78
  -6  -5   3   91.22   16.49
   7   0  -3    7.61   13.05
   7   0   3    3.57    8.12
   7   0   3    0.60    7.56
   7  -1  -3  158.34   29.37
   7   1  -3  119.47   24.32
   7  -1   3  132.36   19.26
   7   1   3  136.00   21.67
   7  -1   3  157.86   31.19
   7   1   3  100.91   41.55
   7   2  -3  906.07   63.34
   7  -2   3  904.01   55.96
   7   2   3  911.56   60.47
   7  -2   3  924.83   64.50
   7   2   3  958.07   62.45
  -7  -2   3  948.93   61.23
   7  -3  -3  160.68   28.92
   7   3  -3  165.67   27.81
   7   3   3  113.65   18.99
   7  -3  -3  126.63   24.52
   7  -3   3  129.49   43.24
   7   3   3  117.39   22.36
  -7  -3   3  143.52   32.65
   0   0  -4 9999.00  336.82
   0   0   4 9108.40  304.23
   0   0   4 9603.98  322.23
   0   1  -4    5.17    6.74
   0  -1   4   -1.57    7.81
   0   1   4    3.76    9.52
   0  -1   4   40.75   21.76
   0   1   4    1.98    3.60
   0  -2  -4 1564.72   81.90
   0   2  -4 1695.77   64.42
   0  -2   4 1729.00   69.38
   0  -2   4 1560.26   67.49
   0   2   4 1618.44   67.07
   0  -3  -4    1.21   11.93
   0   3  -4    4.49    5.41
   0  -3   4    2.19    2.49
   0  -3   4    3.01    7.90
   0  -3   4    3.62    9.97
   0   3   4   -0.22    6.55
   0   4  -4 1001.21   35.01
   0  -4  -4  952.44   55.64
   0  -4   4  937.52   42.29
   0  -4   4 1144.13   58.42
   0   4   4  891.59   40.34
   0  -5  -4    2.37   10.46
   0  -5   4    0.28    6.51
   0  -5   4    5.49    8.54
   0  -6   4  387.77   42.59
   0  -6   4  417.21   46.74
   0  -7  -4    5.67   10.22
   0  -7   4    2.83    5.88
   0  -7   4    3.15    5.76
   0  -8  -4  311.30   34.36
   0  -8   4  345.67   35.14
  -1   0  -4    1.55    8.39
   1   0  -4    6.67   12.96
   1   0   4    4.69   10.17
   1   0   4    3.17    3.97
  -1   0   4   -0.23    9.27
  -1   1  -4  955.92   39.94
  -1  -1  -4  977.10   45.36
   1  -1  -4  978.61   80.11
   1   1  -4  921.68   49.62
   1  -1   4  880.89   43.66
  -1  -1   4  900.65   38.38
   1   1   4  868.62   44.46
   1  -1   4  956.02   44.24
   1   1   4  996.82   42.07
  -1  -1   4  910.51   44.13
  -1   1   4  962.67   47.97
  -1   2  -4 1394.84   55.37
  -1  -2  -4 1478.62   84.32
   1  -2  -4 1497.70   71.98
   1   2  -4 1373.67   55.81
   1  -2   4 1420.81   52.11
   1  -2   4 1520.23   63.82
  -1  -2   4 1433.54   56.14
   1   2   4 1273.81   62.16
   1  -2   4 1482.71   61.89
   1   2   4 1457.58   55.62
  -1  -2   4 1493.95   63.26
  -1   2   4 1537.98   82.07
  -1   3  -4 3305.43  109.16
  -1  -3  -4 3139.51  122.17
   1  -3  -4 3126.58  125.07
   1   3  -4 2969.36  106.18
  -1  -3   4 2984.92  106.24
   1   3   4 3090.37  117.16
   1  -3   4 3114.36  115.46
  -1  -3   4 3071.86  117.55
   1   3   4 3047.40  104.33
  -1  -4  -4  417.83   34.11
   1  -4  -4  386.97   39.32
   1   4  -4  392.90   30.38
  -1  -4   4  395.24   23.38
   1  -4   4  362.84   26.63
   1  -4   4  416.89   32.69
  -1  -4   4  385.55   44.56
   1   4   4  380.67   17.42
  -1  -5  -4  846.84   66.88
   1  -5  -4  852.02   69.65
  -1  -5   4  925.38   63.01
   1  -5   4  949.74   69.43
  -1  -5   4  826.18   70.27
  -1  -6  -4   79.88   56.55
   1  -6  -4   79.40   38.14
  -1  -6   4   90.62   29.95
   1  -6   4   64.63   27.90
   1  -6   4  100.11   24.88
  -1  -6   4   82.02   16.43
  -1  -7  -4   23.63   17.46
   1  -7  -4   15.76    9.55
   1  -7   4   29.18   20.08
   1  -7   4   28.95   15.67
  -1  -7   4   25.26   18.58
   1  -8  -4    5.72    8.16
   1  -8   4    4.17    7.30
  -1  -8   4    4.27    9.70
  -2   0  -4 2897.89  110.30
   2   0  -4 3315.38  138.87
   2   0   4 2915.73  111.54
  -2   0   4 3055.83  106.31
   2   0   4 3269.51  117.51
  -2   0   4 2950.79  112.79
  -2   1  -4 2277.43   83.85
  -2  -1  -4 2262.78   90.65
   2  -1  -4 2599.98  105.63
   2   1  -4 2158.30   91.16
   2  -1   4 2266.87   92.14
   2   1   4 2198.54   87.62
  -2  -1   4 2142.72   76.54
   2  -1   4 2427.25   93.66
   2   1   4 2325.86   84.96
  -2  -1   4 2250.34   96.37
  -2   1   4 2211.19   87.11
  -2  -2  -4  882.58   45.57
   2  -2  -4  878.89   62.03
   2   2  -4  991.82   50.46
   2  -2   4  933.35   34.65
  -2  -2   4  887.05   36.11
   2   2   4  887.86   45.88
   2   2   4  882.93   33.86
   2  -2   4 1121.68   51.69
  -2  -2   4  845.65   42.85
  -2  -3  -4  217.81   25.39
   2  -3  -4  222.18   90.43
   2   3  -4  245.80   24.33
   2  -3   4  212.55    9.20
   2  -3   4  233.54   30.48
  -2  -3   4  204.66   12.80
   2   3   4  218.38   23.69
   2  -3   4  229.15   27.62
  -2  -3   4  213.91   23.80
  -2  -4  -4  148.67   51.36
   2  -4  -4  136.92   87.25
   2   4  -4  140.66   16.04
   2  -4   4  116.41   20.11
   2   4   4  168.33   24.36
   2  -4   4  134.31   22.22
  -2  -4   4  126.88   35.51
  -2  -5  -4  681.24   74.61
   2  -5  -4  646.16   90.99
   2   5  -4  658.55   46.96
   2  -5   4  749.31   69.51
   2   5   4  700.10   56.30
   2  -5   4  648.89   53.22
  -2  -5   4  643.69   52.11
  -2  -6  -4   36.76   26.83
   2  -6  -4   48.94   36.88
   2  -6   4   34.25   25.84
   2   6   4   37.30   14.82
  -2  -6   4   39.36   33.28
  -2  -7  -4  251.47   33.19
   2  -7  -4  262.31   71.49
   2  -7   4  309.42   34.44
  -2  -8  -4  257.43   61.29
   2  -8  -4  287.05   35.22
   2  -8   4  255.70   25.81
  -2  -8   4  273.73   29.80
   3   0  -4   57.50   39.00
   3   0   4    0.03    5.79
   3   0   4   -6.53   14.55
  -3   0   4   69.81   45.99
  -3  -1  -4  829.21   42.45
   3  -1  -4  824.35   53.81
   3   1  -4  832.87   49.30
   3  -1   4  850.08   35.02
   3  -1   4  961.27   50.85
   3   1   4  871.67   47.56
  -3  -1   4  964.90   38.48
  -3  -1   4  944.66   46.92
  -3  -2  -4 2581.51   99.72
   3  -2  -4 2460.70  105.76
   3   2  -4 2690.96  105.26
   3  -2   4 2428.47   84.47
   3  -2   4 2492.79   98.66
   3   2   4 2657.41  103.45
  -3  -2   4 2738.52  105.75
  -3  -3  -4  742.50   58.14
   3  -3  -4  707.05   64.38
   3   3  -4  696.19   53.29
  -3  -3   4  714.28   46.66
   3  -3   4  927.68   83.98
   3   3   4  670.12   52.02
  -3  -3   4  715.52   55.02
  -3  -4  -4  307.29   44.83
   3  -4  -4  292.92   40.01
   3   4  -4  254.14   25.38
   3  -4   4  281.28   31.77
   3   4   4  254.85   30.94
  -3  -4   4  276.43   29.70
  -3  -5  -4  500.10   62.72
   3  -5  -4  514.44   65.18
   3   5  -4  448.39   47.30
   3  -5   4  502.44   59.12
   3   5   4  493.10   56.52
  -3  -5   4  521.75   56.51
  -3  -6  -4  434.23   45.51
   3  -6  -4  446.82   45.33
   3  -6   4  469.76   43.54
   3   6   4  510.99   44.06
  -3  -6   4  488.26   41.66
   3  -7  -4   19.56   19.17
   3  -7   4   11.96   11.29
   3   7   4    7.68   13.63
  -3  -7   4    8.10   17.79
   4   0  -4 1444.13  102.73
   4   0   4 1523.56  101.60
   4   0   4 1431.01  100.06
   4  -1  -4  182.79   27.06
   4   1  -4  196.40   28.07
   4  -1   4  172.17   16.23
   4   1   4  165.12   16.82
   4  -1   4  191.67   52.77
   4   1   4  200.54   27.98
  -4  -1   4  182.57   14.37
  -4  -1   4  218.12   46.38
   4  -2  -4  763.74   74.15
   4   2  -4  767.83   62.05
   4  -2   4  664.53   45.32
   4  -2   4  735.25   65.09
   4   2   4  670.02   58.30
  -4  -2   4  756.63   58.82
   4  -3  -4  301.36   37.02
   4   3  -4  288.48   29.12
   4   3   4  288.06   27.09
   4  -3   4  291.95   43.08
   4   3   4  338.96   36.65
  -4  -3   4  331.82   32.56
   4  -4  -4  702.06   77.73
   4   4  -4  687.89   70.55
   4  -4   4  750.19   78.92
   4   4   4  707.64   72.72
  -4  -4   4  786.42   80.86
   4  -5  -4  340.56  118.56
   4   5  -4  251.38   28.18
   4   5   4  235.20   27.30
   4   5   4  263.21   28.81
  -4  -5   4  272.84   27.18
   4   6  -4  113.54   17.04
   4   6   4  107.16   18.50
   4  -6   4  127.67   66.61
   4   6   4  133.87   22.71
  -4  -6   4  128.59   83.20
   4  -7  -4  324.25   68.26
   4   7   4  328.61   32.34
   4   7   4  301.56   29.69
  -4  -7   4  352.91   32.02
   5   0  -4   14.45   24.41
   5   0   4   13.56    9.71
   5   0   4    8.72   14.33
   5  -1  -4 1210.14  122.59
   5   1  -4 1195.82  119.06
   5  -1   4 1005.72   95.64
   5   1   4 1216.60  116.36
   5  -1   4 1139.99  114.17
   5   1   4 1280.93  125.69
  -5  -1   4 1127.71  110.58
   5  -2  -4  347.03   60.07
   5   2  -4  328.90   42.44
   5  -2   4  329.99   35.27
   5   2   4  280.00   33.28
   5  -2   4  314.03   42.21
   5   2   4  310.56   41.61
  -5  -2   4  314.82   38.65
   5  -3  -4  358.08   48.66
   5   3  -4  340.96   43.38
   5   3   4  342.94   42.46
   5  -3   4  354.80   58.51
   5   3   4  310.96   38.70
  -5  -3   4  305.96   36.32
   5   4  -4  251.26   30.30
   5   4   4  231.31   25.68
   5  -4   4  334.68   67.36
   5   4   4  262.32   29.06
  -5  -4   4  285.40   30.62
   5  -5  -4   16.14   19.69
   5   5   4    8.05   13.02
   5  -5   4   10.90   20.07
   5   5   4   15.33   15.91
  -5  -5   4   13.07   10.95
   6   0  -4  227.30   31.23
   6   0   4  168.65   18.46
   6   0   4  311.49   39.97
   6  -1  -4  310.75   38.38
   6   1  -4  245.47   32.09
   6  -1   4  237.60   23.25
   6   1   4  258.56   25.43
   6  -1   4  264.88   31.81
   6   1   4  230.36   27.88
  -6  -1   4  256.95   28.91
   6  -2  -4  121.35   41.69
   6   2  -4  110.91   24.09
   6  -2   4  121.22   15.78
   6   2   4  128.91   19.53
   6  -2   4  125.52   74.08
   6   2   4  101.06   55.71
  -6  -2   4  101.86   38.70
   6  -3  -4   72.51   69.02
   6   3  -4   74.92   19.90
   6   3   4   66.26   14.71
   6  -3   4   66.79   59.82
   6   3   4   68.39   17.55
  -6  -3   4   76.54   20.30
   6  -4  -4 1047.31   72.19
   6   4   4  839.55   54.92
   6  -4   4  871.05   67.63
   6   4   4  912.93   59.07
  -6  -4   4  933.80   60.55
   0   0  -5    7.15    7.59
   0   0   5   -0.90   10.96
   0   0   5    2.42    4.81
   0  -1  -5  578.78   49.77
   0   1  -5  549.23   37.02
   0  -1   5  521.88   29.86
   0   1   5  534.48   31.85
   0  -1   5  603.87   36.04
   0   1   5  557.84   31.34
   0  -2  -5    5.33   12.92
   0   2  -5    1.59    8.32
   0  -2   5    2.74    9.96
   0   2   5    0.75   12.29
   0  -2   5    5.94   11.14
   0   2   5    3.66    7.12
   0   3  -5 1760.12  112.62
   0  -3  -5 1880.72  132.83
   0  -3   5 1786.24  117.66
   0   3   5 1777.80  119.56
   0  -3   5 1912.87  128.42
   0   3   5 1827.36  118.60
   0  -4  -5    3.41   10.08
   0  -4   5    4.12    6.47
   0  -4   5    1.67    6.06
   0   4   5    6.89    8.20
   0  -5  -5  324.29   52.70
   0  -5   5  385.34   45.14
   0  -5   5  366.13   44.37
   0  -6  -5    8.66   14.15
   0  -6   5    1.94    5.12
   0  -6   5   -1.37    9.19
   0  -7   5  170.34   23.82
  -1   0  -5    4.33    9.06
   1   0  -5    5.49   14.67
   1   0   5    0.06   11.63
  -1   0   5    4.44    8.36
   1   0   5    3.43    4.56
  -1   0   5    2.75    9.76
  -1   1  -5  125.78   23.29
  -1  -1  -5  147.96   24.85
   1  -1  -5  147.56   78.36
   1   1  -5  155.93   43.65
   1  -1   5  137.11   21.82
  -1  -1   5  149.12   16.01
   1   1   5  134.51   20.94
  -1   1   5  143.41   16.59
   1  -1   5  138.58   21.97
   1   1   5  138.93   14.60
  -1  -1   5  145.86   52.77
  -1   1   5  143.95   21.15
  -1   2  -5  500.04   36.00
  -1  -2  -5  581.22   49.97
   1  -2  -5  557.75   58.23
   1   2  -5  545.82   44.55
  -1  -2   5  488.33   36.97
   1   2   5  519.29   49.89
   1  -2   5  572.41   46.46
   1   2   5  574.39   42.33
  -1  -2   5  528.42   44.53
  -1   2   5  564.96   43.92
  -1   3  -5  216.78   16.65
  -1  -3  -5  228.48   37.19
   1  -3  -5  243.41   76.29
   1   3  -5  236.28   28.01
   1  -3   5  224.47   23.73
  -1  -3   5  237.17   21.71
   1   3   5  192.12   27.52
   1  -3   5  222.51   26.64
  -1  -3   5  258.95   30.87
   1   3   5  233.95   19.69
  -1   3   5  270.78   26.42
  -1  -4  -5   43.85   29.75
   1  -4  -5   50.04   32.03
   1   4  -5   36.83   19.59
  -1  -4   5   48.66   36.19
   1  -4   5   50.52   33.08
   1   4   5   40.13   15.50
   1  -4   5   49.15   26.29
  -1  -4   5   41.04   27.95
  -1   4   5   38.19   16.28
  -1  -5  -5  371.82   49.16
   1  -5  -5  284.43   44.27
  -1  -5   5  351.84   38.03
   1  -5   5  347.83   43.05
   1   5   5  319.46   39.81
   1  -5   5  364.82   45.47
  -1  -5   5  315.90   41.06
  -1  -6  -5 1948.77  127.73
   1  -6  -5 2008.04  121.74
   1  -6   5 1873.57  124.34
   1  -6   5 2157.54  118.87
  -1  -6   5 2176.10  119.84
  -1  -7  -5   39.20   42.67
   1  -7  -5   37.20   27.21
   1  -7   5   34.70   21.37
   1  -7   5   44.91   16.93
  -1  -7   5   30.91   29.80
  -2   0  -5  753.72   55.49
   2   0   5  664.39   53.57
  -2   0   5  779.52   54.83
   2   0   5  753.85   56.63
  -2   0   5  762.21   71.44
  -2  -1  -5  286.81   46.36
   2  -1  -5  326.50   56.02
   2   1  -5  260.17   28.43
   2   1   5  270.89   30.27
  -2  -1   5  258.92   22.60
  -2   1   5  277.49   24.87
   2  -1   5  302.47   40.48
   2   1   5  297.49   24.21
  -2  -1   5  279.49   30.88
  -2   1   5  298.00   72.21
  -2   2  -5  139.64   14.51
  -2  -2  -5  164.74   59.74
   2  -2  -5  187.38   61.12
   2   2  -5  126.69   42.02
   2  -2   5  146.47   22.80
  -2  -2   5  153.46   15.38
   2   2   5  141.30   22.71
   2  -2   5  160.63   29.06
   2   2   5  136.18   12.99
  -2  -2   5  153.99   42.71
  -2   2   5  117.09   51.83
  -2  -3  -5  553.60   49.72
   2  -3  -5  572.94   89.08
   2   3  -5  628.92   55.36
   2  -3   5  596.38   50.32
  -2  -3   5  557.48   39.34
   2   3   5  563.60   48.74
   2  -3   5  647.85   66.67
  -2  -3   5  581.36   49.26
  -2  -4  -5  854.67   89.69
   2  -4  -5  892.64   96.20
   2   4  -5  815.74   79.87
   2  -4   5  877.04   90.56
   2   4   5  952.39   96.10
   2  -4   5  866.60   88.33
  -2  -4   5  903.76   91.95
  -2  -5  -5  117.94   45.44
   2  -5  -5  107.58   34.26
   2  -5   5   97.76   20.47
   2   5   5  127.98   29.84
   2  -5   5  114.10   22.67
  -2  -5   5  102.23   21.06
  -2  -6  -5  310.21   38.91
   2  -6  -5  333.64   43.23
   2  -6   5  270.13   31.88
   2   6   5  299.39   32.39
   2  -6   5  294.31   34.42
  -2  -6   5  294.29   31.18
  -2  -7  -5   67.92   72.07
   2  -7  -5   53.10   34.06
   2  -7   5   57.68   55.98
   2   7   5   69.30   18.71
  -2  -7   5   95.30   25.49
  -3   0  -5    0.99    6.09
   3   0  -5   40.08   24.53
   3   0   5    1.07   12.56
  -3   0   5    6.41    6.10
  -3   0   5    9.01    9.90
  -3  -1  -5  624.02   54.14
   3  -1  -5  584.18   53.16
   3   1  -5  605.23   62.20
   3  -1   5  597.42   41.71
   3  -1   5  642.40   53.01
   3   1   5  620.24   51.80
  -3  -1   5  605.45   42.23
  -3  -1   5  671.78   57.22
  -3   1   5  585.01   48.69
  -3  -2  -5   58.83   43.02
   3  -2  -5   50.75   39.18
   3   2  -5   61.28   29.82
   3  -2   5   54.19    7.53
   3  -2   5   61.72   44.76
   3   2   5   62.39   19.72
  -3  -2   5   62.72   30.87
  -3  -3  -5  206.25   32.74
   3  -3  -5  205.26  130.04
   3   3  -5  169.31   35.70
   3  -3   5  182.89   29.18
   3   3   5  193.29   32.58
  -3  -3   5  207.36   30.98
  -3  -4  -5  888.89   98.38
   3  -4  -5  825.88   92.79
   3   4  -5  761.08   77.38
   3  -4   5  703.09   80.34
   3   4   5  760.43   79.76
  -3  -4   5  752.96   78.27
  -3  -5  -5  504.94   50.82
   3  -5  -5  409.17   47.23
   3  -5   5  506.94   47.10
   3   5   5  470.15   44.72
  -3  -5   5  459.17   61.77
  -3  -6  -5   93.02   84.14
   3  -6  -5   92.09   61.57
   3  -6   5  114.72   22.12
   3   6   5  109.90   24.36
  -3  -6   5   85.44   17.91
   4   0  -5  412.97   50.64
   4   0   5  409.73   42.05
   4   0   5  485.53   54.80
  -4   0   5  454.20   45.03
  -4   0   5  522.31   58.56
   4  -1  -5  301.49   50.16
   4   1  -5  304.60   41.06
   4  -1   5  306.01   32.12
   4   1   5  278.54   31.36
   4  -1   5  330.32   44.26
   4   1   5  364.12   46.44
  -4  -1   5  420.53   51.55
  -4   1   5  332.06   42.61
   4  -2  -5   87.02   63.64
   4   2  -5  102.71   22.99
   4  -2   5   81.69   11.41
   4   2   5   83.14   14.27
   4  -2   5   96.20   52.28
   4   2   5   85.29   21.78
  -4  -2   5  110.77   64.23
   4  -3  -5   12.42    9.95
   4   3  -5   17.21   13.60
   4  -3   5    9.88   10.91
   4   3   5    7.08   15.39
  -4  -3   5   16.31   12.69
  -4  -4  -5  828.57   63.13
   4  -4  -5  917.44   79.71
   4   4  -5 1244.19   92.86
   4   4   5  850.28   63.74
  -4  -4   5  857.24   63.11
  -4  -5  -5  131.70   29.39
   4  -5  -5  119.11  110.33
   4   5  -5  111.05   19.99
   4  -5   5  125.25  102.34
   4   5   5  121.81   23.00
  -4  -5   5  119.06   18.26
   5   0  -5    7.83   18.18
   5   0   5    3.93    5.72
   5   0   5   -3.00   12.16
  -5   0   5    1.53    5.58
   5  -1  -5  517.24   54.08
   5   1  -5  523.93   51.62
   5  -1   5  470.52   34.68
   5   1   5  473.57   36.87
   5  -1   5  478.79   45.64
   5   1   5  474.00   43.83
  -5  -1   5  531.43   44.69
  -5   1   5  496.32   45.02
   5  -2  -5  566.48   55.59
   5   2  -5  549.07   50.17
   5   2   5  571.97   45.37
   5  -2   5  623.20   62.78
   5   2   5  596.46   52.59
  -5  -2   5  538.82   46.05
   5  -3  -5   95.58   82.84
   5   3  -5  105.20   23.59
   5   3   5   87.18   15.13
   5  -3   5   94.54   44.56
   5   3   5   86.77   18.76
  -5  -3   5  116.83   19.12
   5  -4  -5  293.65   44.38
   5   4  -5  305.52   31.97
   5  -4   5  310.64   65.78
   5   4   5  335.59   34.04
  -5  -4   5  341.99   33.39
   6   0  -5  104.36   25.51
   6   0   5   67.19   11.01
   6   0   5   84.91   40.27
  -6   0   5   75.35   62.30
   6  -1  -5  181.26   34.31
   6   1  -5  166.74   29.97
   6  -1   5  196.25   22.49
   6   1   5  193.08   21.91
   6  -1   5  180.83  127.45
   6   1   5  135.28   79.41
  -6  -1   5  164.40   25.90
   6  -2  -5  310.99   46.35
   6   2  -5  411.15   47.61
   6   2   5  256.90   26.14
   6  -2   5  271.34   33.59
   6   2   5  283.56   32.66
  -6  -2   5  283.52   29.01
   0   0  -6 2573.59  246.92
   0   0   6 2490.19  232.39
   0   0   6 2690.13  250.52
   0   1  -6    1.74    9.17
   0  -1  -6    3.60   12.28
   0  -1   6    7.43    9.21
   0   1   6    7.66   15.54
   0  -1   6    1.57    5.94
   0   1   6    5.31    8.89
   0   2  -6  190.14   23.67
   0  -2  -6  238.32   35.64
   0  -2   6  217.36   28.42
   0   2   6  211.87   30.07
   0  -2   6  216.63   30.83
   0   2   6  218.54   27.19
   0  -3  -6   24.60   17.67
   0  -3   6    5.09    7.29
   0   3   6    9.98   12.83
   0  -3   6    1.31    5.43
   0   3   6   15.33   12.87
   0  -4  -6 1590.71  156.25
   0  -4   6 1701.31  164.27
   0   4   6 1479.25  143.42
   0  -4   6 1678.12  161.22
   0  -5  -6    6.70   16.57
   0  -5   6    1.44    4.55
   0   5   6    2.28   11.44
   0  -5   6    3.47    6.10
   0  -6  -6  211.83   62.72
   0  -6   6  225.28   29.16
  -1   0  -6    2.63    9.34
   1   0  -6    5.09    8.65
   1   0   6    1.92   10.53
  -1   0   6    9.17    9.57
   1   0   6    2.92    4.59
  -1   0   6   -0.72   11.71
  -1   1  -6 1127.88   82.93
  -1  -1  -6 1087.51   78.50
   1  -1  -6 1153.91  128.20
   1   1  -6 1060.88   82.24
  -1  -1   6  953.63   66.23
   1   1   6 1069.91   78.54
  -1   1   6 1084.08   77.20
   1  -1   6 1083.56   83.00
   1   1   6 1070.12   74.26
  -1  -1   6 1135.42   82.21
  -1   1   6 1112.00   79.78
  -1   2  -6  480.90   48.09
  -1  -2  -6  506.73   57.29
   1  -2  -6  529.09   61.88
   1   2  -6  488.10   52.28
   1  -2   6  499.33   54.31
  -1  -2   6  473.93   49.59
   1   2   6  460.95   52.41
  -1   2   6  491.79   52.90
   1  -2   6  525.66   57.43
   1   2   6  466.24   48.31
  -1  -2   6  535.46   64.83
  -1   2   6  507.93   54.80
  -1  -3  -6  679.74   71.89
   1  -3  -6  760.12   82.78
   1  -3   6  671.02   69.53
  -1  -3   6  704.72   69.53
   1   3   6  726.44   77.10
  -1   3   6  650.35   66.47
   1  -3   6  680.76   77.78
  -1  -3   6  757.77   79.25
  -1   3   6  692.58   70.93
  -1  -4  -6  113.32   68.15
   1  -4  -6  127.17   72.71
   1  -4   6  109.87   20.09
  -1  -4   6  117.77   17.20
   1   4   6   94.19   22.01
   1  -4   6  105.74   20.89
  -1  -4   6  104.26   22.44
  -1   4   6   96.13   20.11
  -1  -5  -6   27.18   19.07
   1  -5  -6   19.44   22.04
   1  -5   6   20.97   23.19
   1   5   6   25.13   18.46
   1  -5   6   21.92   23.86
  -1  -5   6   24.14   25.10
  -1  -6  -6  129.89   31.24
   1  -6  -6   93.09   58.03
   1  -6   6  149.33   24.17
   1   6   6  125.46   23.05
   1  -6   6  148.88   28.28
  -1  -6   6  107.19   76.94
  -2   0  -6  367.50   41.67
   2   0  -6  366.20   47.97
  -2   0   6  334.48   36.49
   2   0   6  354.71   39.13
  -2   0   6  343.37   51.55
  -2   1  -6  698.38   69.62
  -2  -1  -6  659.25   69.56
   2  -1  -6  719.22   81.04
   2   1  -6  688.63   99.94
   2  -1   6  698.30   75.18
   2   1   6  579.55   62.26
  -2  -1   6  624.69   61.93
  -2   1   6  807.45   81.27
   2  -1   6  706.37   72.41
   2   1   6  623.87   61.84
  -2  -1   6  696.49   74.56
  -2   1   6  669.28   69.95
  -2  -2  -6  362.29   44.03
   2  -2  -6  365.44   49.67
   2   2  -6  388.05   68.01
   2  -2   6  343.53   42.34
  -2  -2   6  315.49   34.66
   2   2   6  361.06   45.23
  -2   2   6  311.70   35.32
   2  -2   6  390.45   45.56
  -2  -2   6  384.34   46.44
  -2   2   6  344.78   48.50
  -2  -3  -6  225.37   76.45
   2  -3  -6  262.49   68.30
   2   3  -6  224.30   29.40
   2  -3   6  215.32   30.74
  -2  -3   6  238.11   26.85
   2   3   6  244.82   35.14
   2  -3   6  249.34   35.05
  -2  -3   6  261.73   37.50
  -2   3   6  212.77   31.85
  -2  -4  -6  645.62   56.76
   2  -4  -6  702.48   64.88
   2  -4   6  766.15   59.60
   2   4   6  594.94   50.53
   2  -4   6  678.73   55.28
  -2  -4   6  654.18   53.65
  -2   4   6  575.22   44.45
  -2  -5  -6  291.90   37.25
   2  -5  -6  251.59   64.37
   2  -5   6  264.05   29.77
   2   5   6  290.81   34.68
   2  -5   6  304.19   35.77
  -2  -5   6  275.15   31.23
  -2   5   6  193.26   33.24
  -3   0  -6    5.29    8.31
   3   0   6    0.32   13.39
  -3   0   6   -0.24    6.06
   3   0   6    2.99    6.00
  -3   0   6    3.88    5.90
  -3  -1  -6  450.43   51.06
   3  -1  -6  547.14   68.26
   3   1  -6  504.91   59.40
   3  -1   6  422.04   42.31
   3  -1   6  460.86   54.42
   3   1   6  465.12   53.55
  -3  -1   6  479.52   48.05
  -3   1   6  420.04   43.95
   3  -1   6  449.23   47.37
  -3  -1   6  480.14   56.64
  -3   1   6  458.26   52.17
  -3  -2  -6 1349.07   91.14
   3  -2  -6 1090.21   83.91
   3   2  -6 1066.19   74.53
   3  -2   6 1070.07   75.83
   3   2   6 1104.47   78.40
   3  -2   6 1065.98   71.34
  -3  -2   6 1192.68   84.13
  -3   2   6  988.82   67.63
  -3  -3  -6  126.52   22.26
   3  -3  -6  138.28   68.93
   3   3  -6  113.14   25.93
   3  -3   6  141.18   29.26
   3   3   6  130.26   23.50
   3  -3   6  136.13   22.72
  -3  -3   6  148.89   23.16
  -3   3   6  105.00   36.68
  -3  -4  -6   27.11   17.81
   3  -4  -6   20.95   25.44
   3  -4   6   22.64   17.72
   3   4   6   12.11   15.08
  -3  -4   6    9.46   11.72
  -3   4   6   10.92    7.95
  -3  -5  -6  190.27   82.09
   3  -5  -6  178.28   76.43
   3  -5   6  203.19   28.20
   3   5   6  176.94   28.48
  -3  -5   6  200.81   28.32
   4   0  -6  567.91   64.53
   4   0   6  537.23   37.79
   4   0   6  661.92   55.94
  -4   0   6  592.97   49.08
   4  -1  -6  131.18   69.37
   4   1  -6  132.26   43.03
   4   1   6  140.74   16.63
   4  -1   6  141.55   22.65
   4   1   6  172.50   28.55
  -4   1   6  140.39   14.93
  -4  -1   6  163.84   23.90
  -4   1   6  144.07   56.56
   4  -2  -6  383.46   85.28
   4   2  -6  434.27   44.29
   4   2   6  391.85   32.46
   4  -2   6  448.66   43.08
   4   2   6  427.35   41.86
  -4  -2   6  448.71   40.18
  -4   2   6  404.75   47.81
  -4  -3  -6  193.13   25.95
   4  -3  -6  203.13   77.94
   4   3  -6  164.21   27.03
   4  -3   6  188.20   81.18
   4   3   6  174.21   30.98
  -4  -3   6  200.66   28.60
  -4   3   6  195.86   25.50
  -4  -4  -6   89.83   26.22
   4  -4  -6   95.46   83.19
   4  -4   6   79.56   41.04
   4   4   6   95.36   23.45
  -4  -4   6  109.09   31.29
   5   0  -6   -1.36   17.48
   5   0   6    2.25    6.71
   5   0   6    2.31   13.03
  -5   0   6    2.62   14.44
   5  -1  -6  198.33   38.00
   5   1  -6  179.83   59.92
   5   1   6  235.06   24.04
   5  -1   6  195.92   29.01
   5   1   6  208.70   32.00
  -5  -1   6  235.42   30.26
  -5   1   6  215.01   45.15
   5  -2  -6  126.23  118.82
   5   2  -6  110.66   45.17
   5  -2   6  166.82   85.07
   5   2   6  141.90   27.42
  -5  -2   6  112.45   57.77
  -5   2   6  117.14   67.50
   0   0  -7    3.15    4.68
   0   0   7   -1.21    8.85
   0   0   7    1.54    4.70
   0   1  -7  226.16   23.55
   0  -1  -7  219.56   28.09
   0  -1   7  212.06   23.40
   0   1   7  232.73   29.51
   0  -1   7  279.53   29.12
   0   1   7  231.66   39.74
   0  -2  -7   14.90   15.95
   0  -2   7    3.30    7.61
   0  -2   7    4.70    8.79
   0   2   7    8.12    6.33
   0  -3  -7   48.07   29.45
   0  -3   7   39.55   20.02
   0   3   7   70.56   16.05
   0  -3   7   47.33   40.24
   0  -4  -7    5.68    8.34
   0  -4   7    1.30    3.79
   0   4   7   16.42   18.21
   0  -4   7   -1.26    9.27
  -1   0  -7    5.11    4.98
   1   0  -7    6.76   11.29
   1   0   7    0.27   10.51
  -1   0   7   -0.42    7.04
   1   0   7    3.07    5.69
  -1   0   7    2.80    6.72
  -1   1  -7   37.72   17.47
  -1  -1  -7   30.54   26.51
   1  -1  -7   46.37   54.63
   1   1  -7   29.48   36.84
   1  -1   7   35.26   14.04
  -1  -1   7   44.33   12.76
   1   1   7   41.77   12.80
  -1   1   7   40.07   15.29
   1  -1   7   36.82   33.35
   1   1   7   37.82   10.33
  -1  -1   7   35.78   37.80
  -1   1   7   44.26   38.46
  -1  -2  -7  993.42   72.97
   1  -2  -7  996.91   76.76
   1  -2   7  848.74   60.48
  -1  -2   7  915.59   62.65
   1   2   7  850.91   63.77
  -1   2   7  900.49   66.08
   1  -2   7  873.84   63.81
  -1  -2   7  988.75   72.93
  -1   2   7  954.29   67.31
  -1  -3  -7  143.87   26.32
   1  -3  -7  109.77   90.12
   1  -3   7  125.56   34.40
  -1  -3   7  117.71   16.38
  -1   3   7  137.63   22.45
   1  -3   7  109.35   58.17
  -1  -3   7  121.94   60.55
  -1   3   7   98.07   17.97
  -1  -4  -7  249.55   31.39
   1  -4  -7  275.38   35.01
   1  -4   7  285.68   29.68
   1   4   7  276.58   36.83
   1  -4   7  285.06   42.72
  -1  -4   7  254.08   32.89
  -2   0  -7  724.56   52.37
   2   0  -7  894.25   68.44
   2   0   7  682.93   53.98
  -2   0   7  766.71   53.57
   2   0   7  747.86   52.68
  -2   0   7  848.18   64.19
  -2  -1  -7   18.27   13.55
   2  -1  -7   27.18   20.36
   2   1  -7   12.17   14.07
   2   1   7   16.68   17.00
  -2  -1   7   13.58   10.52
  -2   1   7   14.57   10.35
   2  -1   7   13.76   16.76
  -2  -1   7    9.01    7.92
  -2   1   7   14.36   18.09
  -2  -2  -7  110.68   77.76
   2  -2  -7  106.65   49.50
   2   2  -7  101.60   27.26
   2  -2   7  109.55   18.88
   2   2   7   96.70   22.76
  -2   2   7  120.40   20.04
   2  -2   7   86.77   44.78
  -2  -2   7  100.94   44.40
  -2   2   7   85.80   40.88
  -2  -3  -7    6.63    6.45
   2  -3  -7    5.82   12.85
   2  -3   7    7.28    8.00
   2   3   7    8.50   15.30
  -2   3   7    5.68   10.93
   2  -3   7    4.94    5.61
  -2  -3   7    5.16    8.38
  -2   3   7    3.04    5.37
  -3   0  -7    0.66    5.64
   3   0  -7    5.81   10.43
   3   0   7    0.45   13.55
  -3   0   7    2.00    6.70
  -3   0   7    4.04    8.26
  -3  -1  -7   49.92   36.20
   3  -1  -7   59.40   38.43
   3   1  -7   63.97   27.22
   3  -1   7   77.55   23.57
   3   1   7   65.25   21.13
  -3   1   7   63.82   14.36
   3  -1   7   58.39   14.24
  -3  -1   7   66.20   26.00
  -3   1   7   65.77   28.91
  -3  -2  -7  124.35   53.20
   3  -2  -7   93.07   88.29
   3   2  -7   92.40   84.76
   3  -2   7  126.18   51.48
   3   2   7  129.14   24.45
  -3   2   7  116.90   17.36
   3  -2   7  116.54   19.16
  -3  -2   7  129.23   24.80
  -3   2   7   88.72   41.85
   0   0   0    0.00    0.00

_computing_structure_solution     'SHELXT 2014/5 (Sheldrick, 2014)'
;
_shelx_hkl_checksum              85072
_olex2_submission_special_instructions 'No special instructions were received'
loop_
_space_group_symop_operation_xyz
'x, y, z'
'-x, -y, z+1/2'
'x+1/2, -y+1/2, z'
'-x+1/2, y+1/2, z+1/2'
loop_
_atom_site_label
_atom_site_type_symbol
_atom_site_fract_x
_atom_site_fract_y
_atom_site_fract_z
_atom_site_U_iso_or_equiv
_atom_site_adp_type
_atom_site_occupancy
_atom_site_site_symmetry_order
_atom_site_calc_flag
_atom_site_refinement_flags_posn
_atom_site_refinement_flags_adp
_atom_site_refinement_flags_occupancy
_atom_site_disorder_assembly
_atom_site_disorder_group
Br1 Br 0.41911(16) 0.37961(12) 0.37573(16) 0.0142(3) Uani 1 1 d . . . . .
Zn1 Zn 0.63142(18) 0.68223(15) 0.3440(2) 0.0174(3) Uani 1 1 d . . . . .
Zn2 Zn 0.4820(2) 0.96882(18) 0.6555(2) 0.0216(4) Uani 1 1 d . . . . .
N1 N 0.4320(12) 0.8735(10) 0.3745(18) 0.0086(14) Uani 1 1 d . . . . .
loop_
_atom_site_aniso_label
_atom_site_aniso_U_11
_atom_site_aniso_U_22
_atom_site_aniso_U_33
_atom_site_aniso_U_23
_atom_site_aniso_U_13
_atom_site_aniso_U_12
Br1 0.0142(4) 0.0131(5) 0.0153(5) 0.0004(5) 0.0004(4) -0.0007(4)
Zn1 0.0104(5) 0.0145(6) 0.0275(7) -0.0004(6) -0.0004(5) 0.0038(4)
Zn2 0.0218(6) 0.0250(7) 0.0179(7) -0.0114(6) -0.0061(6) 0.0022(6)
N1 0.006(3) 0.011(3) 0.008(4) -0.002(4) 0.002(3) 0.002(3)
loop_
_atom_type_symbol
_atom_type_description
_atom_type_scat_dispersion_real
_atom_type_scat_dispersion_imag
_atom_type_scat_source
Br Br -0.2901 2.4595 'International Tables Vol C Tables 4.2.6.8 and 6.1.1.4'
N N 0.0061 0.0033 'International Tables Vol C Tables 4.2.6.8 and 6.1.1.4'
Zn Zn 0.2839 1.4301 'International Tables Vol C Tables 4.2.6.8 and 6.1.1.4'
loop_
_geom_angle_atom_site_label_1
_geom_angle_atom_site_label_2
_geom_angle_atom_site_label_3
_geom_angle
_geom_angle_site_symmetry_1
_geom_angle_site_symmetry_3
_geom_angle_publ_flag
Zn1 Br1 Zn1 105.38(5) . 2_665 ?
Zn1 Br1 Zn2 113.40(7) 2_665 4_544 ?
Zn1 Br1 Zn2 100.78(7) . 4_544 ?
Br1 Zn1 Br1 82.92(5) . 2_664 ?
Br1 Zn1 Zn2 127.83(6) 2_664 3_565 ?
Br1 Zn1 Zn2 115.31(8) . . ?
Br1 Zn1 Zn2 88.89(8) . 3_565 ?
Br1 Zn1 Zn2 68.77(6) 2_664 4_644 ?
Br1 Zn1 Zn2 87.39(9) . 4_644 ?
Br1 Zn1 Zn2 133.19(8) . 2_674 ?
Br1 Zn1 Zn2 75.10(6) 2_664 2_674 ?
Br1 Zn1 Zn2 134.06(6) 2_664 . ?
Zn2 Zn1 Zn2 61.63(7) 2_674 . ?
Zn2 Zn1 Zn2 59.42(7) 3_565 4_644 ?
Zn2 Zn1 Zn2 147.14(5) . 4_644 ?
Zn2 Zn1 Zn2 95.79(9) . 3_565 ?
Zn2 Zn1 Zn2 120.44(8) 2_674 4_644 ?
Zn2 Zn1 Zn2 136.94(6) 2_674 3_565 ?
N1 Zn1 Br1 98.5(3) . 2_664 ?
N1 Zn1 Br1 99.4(3) 3_565 2_664 ?
N1 Zn1 Br1 106.3(2) 3_565 . ?
N1 Zn1 Br1 109.4(2) . . ?
N1 Zn1 Zn2 113.3(3) 3_565 . ?
N1 Zn1 Zn2 37.6(3) . 2_674 ?
N1 Zn1 Zn2 117.6(2) 3_565 2_674 ?
N1 Zn1 Zn2 34.9(3) 3_565 3_565 ?
N1 Zn1 Zn2 132.4(3) . 3_565 ?
N1 Zn1 Zn2 36.6(3) . . ?
N1 Zn1 Zn2 34.2(3) 3_565 4_644 ?
N1 Zn1 Zn2 158.0(3) . 4_644 ?
N1 Zn1 N1 141.6(3) 3_565 . ?
Br1 Zn2 Zn1 66.05(8) 4 3_465 ?
Br1 Zn2 Zn1 127.73(8) 4 4_655 ?
Br1 Zn2 Zn1 112.33(7) 4 . ?
Br1 Zn2 Zn1 80.22(6) 4 2_675 ?
Br1 Zn2 Zn2 123.49(7) 4 2_674 ?
Br1 Zn2 Zn2 69.17(7) 4 2_675 ?
Zn1 Zn2 Zn1 163.11(7) 3_465 4_655 ?
Zn1 Zn2 Zn1 111.73(7) . 4_655 ?
Zn1 Zn2 Zn1 162.56(7) 2_675 . ?
Zn1 Zn2 Zn1 113.58(6) 2_675 3_465 ?
Zn1 Zn2 Zn1 64.32(7) . 3_465 ?
Zn1 Zn2 Zn1 64.80(7) 2_675 4_655 ?
Zn1 Zn2 Zn2 104.95(8) 2_675 2_674 ?
Zn1 Zn2 Zn2 60.06(6) 2_675 2_675 ?
Zn1 Zn2 Zn2 134.68(8) . 2_675 ?
Zn1 Zn2 Zn2 58.31(7) . 2_674 ?
Zn2 Zn2 Zn1 103.05(8) 2_674 4_655 ?
Zn2 Zn2 Zn1 60.11(5) 2_675 4_655 ?
Zn2 Zn2 Zn1 60.48(6) 2_674 3_465 ?
Zn2 Zn2 Zn1 135.13(8) 2_675 3_465 ?
Zn2 Zn2 Zn2 160.38(10) 2_674 2_675 ?
N1 Zn2 Br1 100.7(2) . 4 ?
N1 Zn2 Br1 93.9(3) 2_675 4 ?
N1 Zn2 Zn1 150.7(2) 2_675 3_465 ?
N1 Zn2 Zn1 37.5(2) . . ?
N1 Zn2 Zn1 130.9(2) . 2_675 ?
N1 Zn2 Zn1 145.0(2) 2_675 . ?
N1 Zn2 Zn1 131.5(2) . 4_655 ?
N1 Zn2 Zn1 35.3(2) 2_675 4_655 ?
N1 Zn2 Zn1 38.8(2) 2_675 2_675 ?
N1 Zn2 Zn1 35.7(2) . 3_465 ?
N1 Zn2 Zn2 125.5(3) 2_675 2_674 ?
N1 Zn2 Zn2 165.0(3) . 2_675 ?
N1 Zn2 Zn2 34.9(3) 2_675 2_675 ?
N1 Zn2 Zn2 34.6(3) . 2_674 ?
N1 Zn2 N1 160.1(4) 2_675 . ?
Zn1 N1 Zn1 116.6(4) 3_465 . ?
Zn2 N1 Zn1 103.6(4) 2_674 . ?
Zn2 N1 Zn1 105.9(4) . . ?
Zn2 N1 Zn1 109.4(5) . 3_465 ?
Zn2 N1 Zn1 110.5(5) 2_674 3_465 ?
Zn2 N1 Zn2 110.5(4) 2_674 . ?
loop_
_geom_bond_atom_site_label_1
_geom_bond_atom_site_label_2
_geom_bond_distance
_geom_bond_site_symmetry_2
_geom_bond_publ_flag
Br1 Zn1 2.672(3) . ?
Br1 Zn1 2.910(3) 2_665 ?
Br1 Zn2 2.915(3) 4_544 ?
Zn1 Zn2 3.046(3) . ?
Zn1 Zn2 3.126(3) 4_644 ?
Zn1 Zn2 3.114(3) 3_565 ?
Zn1 Zn2 2.990(3) 2_674 ?
Zn1 N1 1.927(8) . ?
Zn1 N1 1.927(8) 3_565 ?
Zn2 Zn2 3.092(3) 2_674 ?
Zn2 Zn2 3.092(3) 2_675 ?
Zn2 N1 1.888(11) . ?
Zn2 N1 1.876(10) 2_675 ?
loop_
_geom_torsion_atom_site_label_1
_geom_torsion_atom_site_label_2
_geom_torsion_atom_site_label_3
_geom_torsion_atom_site_label_4
_geom_torsion
_geom_torsion_site_symmetry_1
_geom_torsion_site_symmetry_2
_geom_torsion_site_symmetry_3
_geom_torsion_site_symmetry_4
_geom_torsion_publ_flag
Br1 Zn2 N1 Zn1 13.6(4) 4 . . 3_465 ?
Br1 Zn2 N1 Zn1 -112.8(3) 4 . . . ?
Br1 Zn2 N1 Zn2 135.5(3) 4 . . 2_674 ?
Zn1 Zn2 N1 Zn1 -163.44(16) 4_655 . . 3_465 ?
Zn1 Zn2 N1 Zn1 160.87(16) 2_675 . . . ?
Zn1 Zn2 N1 Zn1 -72.7(5) 2_675 . . 3_465 ?
Zn1 Zn2 N1 Zn1 -126.5(6) 3_465 . . . ?
Zn1 Zn2 N1 Zn1 70.1(5) 4_655 . . . ?
Zn1 Zn2 N1 Zn1 126.5(6) . . . 3_465 ?
Zn1 Zn2 N1 Zn2 49.2(5) 2_675 . . 2_674 ?
Zn1 Zn2 N1 Zn2 121.9(6) 3_465 . . 2_674 ?
Zn1 Zn2 N1 Zn2 -111.6(5) . . . 2_674 ?
Zn1 Zn2 N1 Zn2 -41.5(5) 4_655 . . 2_674 ?
Zn2 Zn2 N1 Zn1 111.6(5) 2_674 . . . ?
Zn2 Zn2 N1 Zn1 -121.9(6) 2_674 . . 3_465 ?
Zn2 Zn2 N1 Zn1 -66.4(10) 2_675 . . . ?
Zn2 Zn2 N1 Zn1 60.1(11) 2_675 . . 3_465 ?
Zn2 Zn2 N1 Zn2 -178.0(6) 2_675 . . 2_674 ?
N1 Zn2 N1 Zn1 -123.0(4) 2_675 . . 3_465 ?
N1 Zn2 N1 Zn1 110.5(4) 2_675 . . . ?
N1 Zn2 N1 Zn2 -1.1(3) 2_675 . . 2_674 ?
loop_
_twin_individual_id
_twin_individual_mass_fraction_refined
1 0.55(5)
2 0.45(5)
