#------------------------------------------------------------------------------
#$Date: 2021-02-04 00:33:00 +0200 (Thu, 04 Feb 2021) $
#$Revision: 261429 $
#$URL: file:///home/coder/svn-repositories/cod/cif/4/00/38/4003861.cif $
#------------------------------------------------------------------------------
#
# This file is available in the Crystallography Open Database (COD),
# http://www.crystallography.net/
#
# All data on this site have been placed in the public domain by the
# contributors.
#
data_4003861
loop_
_publ_author_name
'Calder\'on-Cueva, Mario'
'Peng, Wanyue'
'Clarke, Samantha M.'
'Ding, Jingxuan'
'Brugman, Benjamin L.'
'Levental, Gill'
'Balodhi, Ashiwini'
'Rylko, Megan'
'Delaire, Olivier'
'Walsh, James P. S.'
'Dorfman, Susannah M.'
'Zevalkink, Alexandra'
_publ_section_title
;
 Anisotropic Structural Collapse of Mg3Sb2 and Mg3Bi2 at High Pressure
;
_journal_issue                   2
_journal_name_full               'Chemistry of Materials'
_journal_page_first              567
_journal_page_last               573
_journal_paper_doi               10.1021/acs.chemmater.0c03678
_journal_volume                  33
_journal_year                    2021
_chemical_formula_moiety         'Mg3 Sb2'
_chemical_formula_sum            'Mg3 Sb2'
_chemical_formula_weight         316.43
_space_group_crystal_system      trigonal
_space_group_IT_number           164
_space_group_name_Hall           '-P 3 2"'
_space_group_name_H-M_alt        'P -3 m 1'
_atom_sites_solution_primary     heavy
_audit_creation_date             2020-11-30
_audit_creation_method
;
Olex2 1.3
(compiled 2020.07.31 svn.rc2a77460 for OlexSys, GUI svn.r6145)
;
_audit_update_record
;
2020-11-30 # Formatted by publCIF

;
_cell_angle_alpha                90
_cell_angle_beta                 90
_cell_angle_gamma                120
_cell_formula_units_Z            1
_cell_length_a                   4.5636(11)
_cell_length_b                   4.5636(11)
_cell_length_c                   7.228(2)
_cell_measurement_reflns_used    820
_cell_measurement_temperature    298.15
_cell_measurement_theta_max      15.51
_cell_measurement_theta_min      3.14
_cell_volume                     130.37(6)
_computing_molecular_graphics    'Olex2 1.3 (Dolomanov et al., 2009)'
_computing_publication_material  'Olex2 1.3 (Dolomanov et al., 2009)'
_computing_structure_refinement  'XL  (Sheldrick, 2008)'
_computing_structure_solution    'XS  (Sheldrick, 2008)'
_diffrn_ambient_pressure         101325
_diffrn_ambient_temperature      298.15
_diffrn_measured_fraction_theta_full 0.852
_diffrn_measured_fraction_theta_max 0.789
_diffrn_measurement_device_type  'Pilatus 1M'
_diffrn_measurement_method       '\f and \w scans'
_diffrn_radiation_type           synchrotron
_diffrn_radiation_wavelength     0.4335
_diffrn_reflns_av_R_equivalents  0.0465
_diffrn_reflns_av_unetI/netI     0.0228
_diffrn_reflns_Laue_measured_fraction_full 0.852
_diffrn_reflns_Laue_measured_fraction_max 0.789
_diffrn_reflns_limit_h_max       4
_diffrn_reflns_limit_h_min       -4
_diffrn_reflns_limit_k_max       5
_diffrn_reflns_limit_k_min       -5
_diffrn_reflns_limit_l_max       7
_diffrn_reflns_limit_l_min       -7
_diffrn_reflns_number            947
_diffrn_reflns_point_group_measured_fraction_full 0.852
_diffrn_reflns_point_group_measured_fraction_max 0.789
_diffrn_reflns_theta_full        15.076
_diffrn_reflns_theta_max         15.513
_diffrn_reflns_theta_min         1.718
_diffrn_source                   synchrotron
_diffrn_source_current           0.0
_diffrn_source_power             0.0
_diffrn_source_voltage           0.0
_diffrn_standards_number         0
_exptl_absorpt_coefficient_mu    2.801
_exptl_absorpt_correction_T_max  0.7439
_exptl_absorpt_correction_T_min  0.5815
_exptl_absorpt_correction_type   multi-scan
_exptl_absorpt_process_details
;
SADABS-2016/2 (Bruker,2016/2) was used for absorption correction.
wR2(int) was 0.1206 before and 0.0632 after correction.
The Ratio of minimum to maximum transmission is 0.7817.
The \l/2 correction factor is Not present.
;
_exptl_crystal_colour            'metallic dark grey'
_exptl_crystal_colour_lustre     metallic
_exptl_crystal_colour_modifier   dark
_exptl_crystal_colour_primary    grey
_exptl_crystal_density_diffrn    4.030
_exptl_crystal_description       hexagonal
_exptl_crystal_F_000             138
_exptl_crystal_preparation       'Directional flux growth'
_exptl_crystal_recrystallization_method 'Chemical vapor transpor'
_exptl_crystal_size_max          0.04
_exptl_crystal_size_mid          0.04
_exptl_crystal_size_min          0.007
_refine_diff_density_max         0.425
_refine_diff_density_min         -0.617
_refine_diff_density_rms         0.160
_refine_ls_extinction_method     none
_refine_ls_goodness_of_fit_ref   1.182
_refine_ls_hydrogen_treatment    undef
_refine_ls_matrix_type           full
_refine_ls_number_parameters     9
_refine_ls_number_reflns         101
_refine_ls_number_restraints     0
_refine_ls_restrained_S_all      1.182
_refine_ls_R_factor_all          0.0152
_refine_ls_R_factor_gt           0.0152
_refine_ls_shift/su_max          0.000
_refine_ls_shift/su_mean         0.000
_refine_ls_structure_factor_coef Fsqd
_refine_ls_weighting_details
'w=1/[\s^2^(Fo^2^)+(0.0152P)^2^] where P=(Fo^2^+2Fc^2^)/3'
_refine_ls_weighting_scheme      calc
_refine_ls_wR_factor_gt          0.0323
_refine_ls_wR_factor_ref         0.0323
_reflns_Friedel_coverage         0.000
_reflns_number_gt                101
_reflns_number_total             101
_reflns_threshold_expression     'I > 2\s(I)'
_cod_data_source_file            cm0c03678_si_001.cif
_cod_data_source_block           Mg3Sb2_AP_0.00GPa
_cod_original_cell_volume        130.37(7)
_cod_database_code               4003861
_shelx_shelxl_version_number     2018/3
_shelx_space_group_comment
;
The symmetry employed for this shelxl refinement is uniquely defined
by the following loop, which should always be used as a source of
symmetry information in preference to the above space-group names.
They are only intended as comments.
;
_shelx_estimated_absorpt_t_max   0.981
_shelx_estimated_absorpt_t_min   0.896
_olex2_refinement_description
;
;
_shelx_res_file
;
TITL AP_screened_at_APS_0m in P-3m1 #164
    ap_screened_at_aps_0m.res
    created by SHELXL-2018/3 at 17:54:27 on 30-Nov-2020
REM reset to P-3m1 #164
CELL 0.4335 4.5636 4.5636 7.2281 90 90 120
ZERR 1 0.00106 0.00106 0.0023 0 0 0
LATT 1
SYMM -Y,+X-Y,+Z
SYMM +Y-X,-X,+Z
SYMM -Y+X,-Y,-Z
SYMM -X,-X+Y,-Z
SYMM +Y,+X,-Z
SFAC Mg Sb
DISP Mg 0.0174 0.0133 41.1863
DISP Sb -2.274 0.6185 1763.9865
UNIT 3 2

L.S. 20
PLAN  1
SIZE 0.007 0.04 0.04
TEMP 25
CONF
MORE -1
fmap 2 53
ACTA
REM <olex2.extras>
REM <HklSrc "%.\\AP_screened_at_APS_0m.hkl">
REM </olex2.extras>

WGHT    0.015200
FVAR       1.03943
SB1   2    0.333333    0.666667    0.728483    10.16667    0.01279    0.01279 =
         0.00973    0.00000    0.00000    0.00640
MG2   1    0.666667    0.333333    0.865060    10.16667    0.01592    0.01592 =
         0.01485    0.00000    0.00000    0.00796
MG3   1    0.000000    1.000000    0.500000    10.08333    0.02389    0.02389 =
         0.02026    0.00000    0.00000    0.01194
HKLF 4




REM  AP_screened_at_APS_0m in P-3m1 #164
REM wR2 = 0.032291, GooF = S = 1.18212, Restrained GooF = 1.18212 for all data
REM R1 = 0.015231 for 101 Fo > 4sig(Fo) and 0.015231 for all 101 data
REM 9 parameters refined using 0 restraints

END

WGHT      0.0148      0.0000

REM Highest difference peak  0.425,  deepest hole -0.617,  1-sigma level  0.160
Q1    1   0.6667  0.3333  0.6468  10.16667  0.05    0.43
;
_shelx_res_checksum              11731
_shelx_hkl_file
;
   1  -1   0 1898.72 115.664   1
   1   0   0 1868.16 115.662   1
   1   0   0 1986.28 115.545   1
   1  -1   0 1923.81 115.766   1
  -1   1   0 1887.64 115.634   1
   0  -1   0 1986.73 115.032   1
   0  -1   0 2007.30 114.974   1
   0   1   0 1820.38 114.965   1
  -1   1   0 1932.75 115.734   1
   1  -2   0 9515.50 546.161   1
   1  -2   0 9260.36 546.146   1
  -2   1   0 9824.65 546.922   1
  -2   1   0 8922.86 546.527   1
   1   1   0 9459.49 545.865   1
   1   1   0 8759.95 545.670   1
   2  -1   0 8576.85 546.803   1
  -1   2   0 8311.43 545.973   1
  -1  -1   0 9999.99 545.830   1
  -1   2   0 8546.12 545.942   1
  -1  -1   0 8654.63 545.800   1
   2  -1   0 9790.26 546.726   1
   0  -2   0 1260.33 74.3317   1
   0  -2   0 1206.99 74.3924   1
   0   2   0 1210.79 74.4035   1
   2   0   0 1282.13 75.8239   1
   0   2   0 1232.32 74.3652   1
  -2   2   0 1233.59 75.6549   1
  -2   0   0 1206.58 75.6647   1
  -2   0   0 1227.68 75.3973   1
  -2   2   0 1320.73 75.9166   1
   2  -2   0 1155.39 75.8240   1
   2  -2   0 1290.27 75.8142   1
   2   0   0 1255.40 75.4822   1
   2  -3   0 922.845 55.6334   1
  -3   2   0 949.230 55.8868   1
   2   1   0 912.930 55.1683   1
  -3   2   0 829.353 55.8079   1
  -3   1   0 885.380 55.9225   1
   1  -3   0 891.612 54.7113   1
   1  -3   0 923.836 54.7236   1
  -3   1   0 853.386 55.5428   1
   2   1   0 919.970 54.8865   1
   2  -3   0 897.969 55.4135   1
  -2   3   0 913.270 55.3242   1
  -1  -2   0 853.305 54.1569   1
   3  -1   0 904.642 56.2040   1
  -2   3   0 956.453 55.4042   1
   3  -2   0 873.226 56.1878   1
  -1  -2   0 876.963 54.1551   1
   3  -2   0 772.525 55.5338   1
  -1   3   0 936.653 54.6881   1
   3  -1   0 902.092 55.7624   1
  -1   3   0 910.733 54.4611   1
   0  -3   0 4334.17 289.221   1
   3  -3   0 4909.74 291.839   1
  -3   0   0 4644.71 290.848   1
   0   3   0 5180.75 289.342   1
  -3   3   0 4860.71 291.291   1
   0   3   0 4713.06 289.325   1
  -3   0   0 5055.33 291.438   1
   3   0   0 4607.34 290.957   1
   3  -3   0 4911.82 291.482   1
   3   0   0 5179.44 291.671   1
  -3   3   0 4855.78 291.453   1
   2   2   0 3394.69 211.969   1
  -4   2   0 3314.71 213.620   1
   2  -4   0 3738.65 212.800   1
  -4   2   0 3474.88 213.465   1
   2  -4   0 3405.99 212.796   1
   2   2   0 3469.76 211.780   1
  -2   4   0 3532.80 212.376   1
   4  -2   0 3595.23 214.290   1
  -2  -2   0 3435.23 211.962   1
  -2   4   0 3543.14 212.543   1
  -2  -2   0 3466.35 212.044   1
   4  -2   0 3965.37 214.107   1
  -4   1   0 485.464 33.5835   1
   3   1   0 497.307 33.0251   1
  -4   1   0 459.468 33.0721   1
   1  -4   0 478.615 31.9018   1
   3   1   0 519.994 32.7672   1
   1   3   0 485.482 30.8446   1
   4  -1   0 619.038 34.7470   1
  -1   4   0 476.949 31.4866   1
  -3   4   0 529.299 33.2382   1
  -3   4   0 509.972 33.1420   1
   4  -1   0 496.209 33.4996   1
  -3  -1   0 522.522 32.9960   1
  -1   4   0 554.537 31.9300   1
  -3  -1   0 542.878 32.7652   1
   4   0   0 364.227 25.6503   1
  -4   0   0 357.785 25.3553   1
  -4   0   0 420.057 26.2447   1
   3   2   0 282.755 20.9691   1
   3   2   0 330.941 21.5649   1
   3  -5   0 324.452 22.1226   1
   3  -5   0 318.538 22.4223   1
  -3   5   0 337.592 21.8832   1
  -2   5   0 316.899 20.8783   1
  -2   5   0 314.085 21.2071   1
  -3   5   0 325.629 21.9602   1
   4   1   0 1884.98 111.619   1
   4   1   0 1727.95 110.898   1
   0   0  -1 78.7475 5.72644   1
   0   0   1 85.1729 5.75721   1
   0   0   1 86.7948 5.78583   1
   0   0  -1 103.152 5.85683   1
  -1   1   1 2684.29 161.415   1
   1   0   1 2878.75 161.526   1
   0  -1   1 2781.90 160.764   1
  -1   0  -1 2693.15 161.466   1
   1   0   1 2561.27 161.335   1
  -1   0  -1 2706.78 161.429   1
   1  -1  -1 2683.35 161.396   1
   0  -1   1 2561.10 160.654   1
   1  -1  -1 2695.26 161.239   1
  -1   1   1 2626.21 161.204   1
   1  -1   1 4803.77 289.054   1
   1  -1   1 4902.44 289.244   1
   1   0  -1 4898.34 288.969   1
  -1   0   1 4760.40 288.828   1
  -1   0   1 4619.32 288.931   1
  -1   1  -1 4707.51 289.196   1
   0   1   1 5279.27 288.857   1
  -1   1  -1 4993.07 289.101   1
   1   0  -1 4583.04 288.836   1
   0  -1  -1 4826.62 288.833   1
   0  -1  -1 4755.34 288.717   1
   0   1   1 4809.70 288.847   1
   0   2  -1 3240.38 173.598   1
  -2   0  -1 2974.65 175.400   1
  -2   2   1 2700.15 175.158   1
  -2   2   1 2870.79 175.076   1
  -2   0  -1 2715.24 174.957   1
   1   1   1 44.1108 3.85189   1
  -2   1   1 47.7200 4.20387   1
  -2   1  -1 51.8027 4.31751   1
   1   1   1 53.9859 3.97969   1
  -2   1   1 52.8302 4.41411   1
  -2   1  -1 40.2107 4.28483   1
   1  -2  -1 52.7761 3.93049   1
   1   1  -1 49.2183 3.56861   1
   1  -2   1 49.8041 3.96683   1
   1  -2   1 44.3040 3.70454   1
   1   1  -1 47.8933 3.49431   1
   2  -1   1 51.4049 4.54764   1
  -1  -1  -1 46.6019 3.98905   1
  -1   2  -1 48.1573 3.92989   1
   2  -1  -1 51.2462 4.38081   1
  -1  -1   1 46.5892 3.44881   1
  -1   2   1 45.0829 3.74484   1
  -1  -1   1 47.1472 3.41140   1
  -1  -1  -1 49.3785 3.94952   1
   2  -1   1 47.2598 4.26022   1
  -1   2   1 44.4071 3.94891   1
  -1   2  -1 49.6003 3.81906   1
   2  -1  -1 49.2636 4.35681   1
  -2   2  -1 1626.06 103.930   1
  -2   2  -1 1795.55 103.772   1
   2  -2   1 1853.27 103.830   1
   2   0  -1 1732.08 103.715   1
  -2   0   1 1709.94 103.490   1
   0  -2  -1 1815.06 103.018   1
  -2   0   1 1640.06 103.412   1
   0   2   1 1564.99 102.844   1
   2   0  -1 1524.37 103.393   1
   2  -2   1 1662.62 103.983   1
   0  -2  -1 1869.12 102.823   1
   3   0   1 24.0118 3.11613   1
   3  -3  -1 22.9118 3.27432   1
  -3   0  -1 22.5159 2.94974   1
   3   0   1 22.5200 3.26083   1
   3  -3  -1 22.9706 3.19399   1
  -3   0  -1 22.9726 3.29815   1
   1  -3   1 1244.45 76.9951   1
  -3   1  -1 1307.13 78.7841   1
  -3   2   1 1235.55 78.2146   1
   2   1   1 1286.59 77.6097   1
   2   1   1 1292.96 77.8405   1
  -3   1  -1 1310.29 78.2432   1
   2  -3  -1 1152.66 77.7243   1
   1  -3   1 1317.59 77.2102   1
   2  -3  -1 1269.75 78.0015   1
  -2  -1  -1 1154.20 77.6625   1
  -2   3   1 1282.86 77.7272   1
  -1  -2   1 1276.34 76.1180   1
  -1   3  -1 1250.97 76.9647   1
  -2  -1  -1 1374.59 77.9454   1
  -1   3  -1 1275.00 76.9821   1
   3  -1   1 1161.18 78.0504   1
  -2   3   1 1336.15 78.1039   1
   3  -1   1 1434.04 79.0424   1
  -1  -2   1 1229.71 76.2147   1
   3  -2  -1 1274.87 78.5615   1
   3  -2  -1 1245.72 78.3952   1
   1   2   1 2167.46 133.588   1
   2  -3   1 2071.98 134.487   1
  -3   1   1 2230.82 134.802   1
  -3   2  -1 2366.42 134.952   1
   2   1  -1 1875.32 133.629   1
   2   1  -1 2085.44 133.976   1
  -3   1   1 1988.45 134.483   1
   2  -3   1 2393.72 134.456   1
   1   2   1 2211.90 133.697   1
  -3   2  -1 2385.75 135.486   1
   3  -1  -1 2304.29 134.970   1
  -2  -1   1 2411.67 133.894   1
  -1  -2  -1 2308.26 133.764   1
  -1   3   1 2299.68 133.662   1
   3  -2   1 2204.64 135.297   1
  -2   3  -1 2290.68 134.324   1
   3  -2   1 2198.72 134.829   1
  -1  -2  -1 2501.59 133.854   1
  -1   3   1 2047.37 133.869   1
   3  -1  -1 2057.15 134.918   1
  -2  -1   1 2166.38 133.687   1
  -2   3  -1 2254.18 134.505   1
  -3   3  -1 24.4422 3.19425   1
   0  -3  -1 21.5423 2.13061   1
  -3   3  -1 23.7455 3.31856   1
   3  -3   1 24.8629 3.24639   1
   3   0  -1 23.8499 3.27759   1
   0  -3  -1 32.5957 2.68054   1
   0   3   1 21.7512 2.39103   1
  -3   0   1 23.2013 3.01560   1
   3  -3   1 20.9431 3.25909   1
   3   0  -1 20.5869 2.92279   1
  -3   0   1 19.6514 2.82711   1
  -4   0  -1 634.755 43.9374   1
  -4   0  -1 702.025 43.7195   1
   4   0   1 703.604 44.3580   1
   4   0   1 670.269 43.6874   1
   3   1   1 1300.27 79.2699   1
   1  -4   1 1296.46 78.1103   1
   1  -4   1 1240.89 77.9160   1
   3  -4  -1 1324.73 79.9557   1
  -4   1  -1 1296.83 80.4483   1
   3  -4  -1 1056.05 79.2456   1
   3   1   1 1235.50 79.4880   1
  -4   1  -1 1447.39 80.1731   1
  -3   4   1 1236.12 79.3388   1
  -3  -1  -1 1291.92 79.3941   1
   4  -1   1 1421.70 80.8711   1
   4  -1   1 1477.61 80.4377   1
  -3  -1  -1 1269.18 79.6343   1
  -1   4  -1 1225.55 77.8877   1
  -3   4   1 1378.65 79.8906   1
  -1   4  -1 1156.48 77.6148   1
   2  -4   1 17.9297 2.53289   1
   2   2   1 17.1425 2.39249   1
   2   2  -1 14.2526 1.87131   1
   2  -4   1 16.8428 2.61705   1
   2   2   1 21.5382 2.46905   1
   2   2  -1 16.5564 2.09708   1
  -4   2  -1 13.5154 2.75518   1
  -4   2  -1 15.1759 2.65798   1
   2  -4  -1 20.1106 2.77412   1
  -2  -2  -1 18.0479 2.45223   1
  -2   4  -1 15.3458 2.28562   1
  -2   4  -1 14.1898 2.25743   1
  -2  -2   1 15.5145 1.84477   1
  -2  -2   1 15.2929 1.88559   1
   4  -2   1 15.4346 2.95637   1
  -2   4   1 11.1560 2.00987   1
  -2  -2  -1 17.3619 2.50276   1
   4  -2  -1 14.2631 2.95269   1
   4  -2  -1 13.9305 2.67946   1
  -2   4   1 14.7265 2.41212   1
   4  -2   1 19.8928 3.05209   1
   3  -4   1 837.163 50.1084   1
   1  -4  -1 773.009 48.2429   1
  -4   1   1 815.601 49.7383   1
   1   3   1 736.124 47.8438   1
   1   3   1 807.926 47.9210   1
  -4   1   1 771.404 49.7131   1
   3   1  -1 806.300 48.9997   1
   3   1  -1 791.655 49.2519   1
   3  -4   1 828.467 49.6203   1
   4  -1  -1 794.330 50.3408   1
  -3  -1   1 640.245 48.4220   1
  -3  -1   1 728.421 48.5344   1
  -1   4   1 820.690 48.1114   1
  -3   4  -1 846.273 49.5606   1
   4  -1  -1 750.990 49.7350   1
  -3   4  -1 788.683 49.5649   1
  -1  -3  -1 771.863 47.9437   1
  -1   4   1 774.358 48.4301   1
   0   4   1 969.357 59.4067   1
   0   4   1 871.876 59.4744   1
  -4   0   1 1023.05 61.1870   1
  -4   0   1 1053.11 61.4888   1
   4   1   1 6.04530 2.27214   1
   4   1   1 8.22619 2.44166   1
  -4  -1  -1 9.67787 2.43429   1
  -4  -1  -1 7.27239 2.36721   1
   3  -5  -1 463.876 34.5279   1
   3  -5  -1 535.137 34.7911   1
   3   2   1 532.032 34.2819   1
  -3   5   1 546.645 34.7536   1
  -3   5   1 557.956 34.4318   1
   3  -5   1 737.005 48.1560   1
   3  -5   1 789.391 47.9591   1
  -3   5  -1 710.902 47.4641   1
  -2   5   1 755.803 46.8024   1
  -2   5   1 738.104 47.2665   1
  -3   5  -1 760.118 47.7101   1
   4   1  -1 7.69980 2.33036   1
   4   1  -1 8.99611 2.64625   1
   0   0  -2 5147.81 317.164   1
   0   0   2 5673.42 317.285   1
   0   0   2 5465.33 317.329   1
   0   0  -2 4909.64 317.164   1
   1  -1  -2 221.689 14.0865   1
   1   0   2 225.859 14.6169   1
  -1   1   2 211.016 14.0304   1
   1   0   2 236.689 14.5064   1
  -1   0  -2 185.436 14.2196   1
   0   1  -2 208.927 13.8163   1
   0   1  -2 222.757 13.8760   1
  -1   0  -2 210.203 14.5654   1
   0  -1   2 228.401 13.8709   1
   0  -1   2 221.864 14.0353   1
  -1   0   2 6118.13 391.423   1
   0  -1  -2 6676.64 391.847   1
   0   1   2 7262.37 391.950   1
   0   1   2 5850.00 391.680   1
   0  -1  -2 6990.49 391.744   1
  -1   1  -2 6596.66 392.120   1
  -1   1  -2 6412.26 391.985   1
   1   0  -2 6461.74 391.479   1
  -2   1   2 3715.04 225.580   1
   1  -2   2 3678.20 225.370   1
   1  -2  -2 3754.68 225.306   1
  -2   1  -2 4114.74 226.436   1
   1   1   2 4025.49 225.937   1
   1  -2   2 4235.02 225.406   1
   1   1  -2 3751.96 224.781   1
  -2   1   2 3698.65 225.910   1
   1   1   2 3724.87 225.527   1
   2  -1  -2 3358.72 225.487   1
  -1  -1   2 3483.47 224.867   1
   2  -1   2 3208.82 225.654   1
   2  -1  -2 3882.34 225.946   1
  -1   2  -2 3590.32 225.397   1
  -1  -1  -2 3796.44 225.848   1
  -1   2   2 3798.86 225.287   1
  -1  -1  -2 3494.81 225.474   1
  -1   2  -2 4135.52 225.597   1
  -1  -1   2 3879.66 224.768   1
   0   2   2 126.128 9.61326   1
   2   0  -2 152.648 9.95167   1
  -2   0   2 139.176 9.92529   1
   0  -2  -2 124.808 9.57099   1
   0  -2  -2 139.037 9.47176   1
   2   0  -2 135.209 9.83741   1
   0   2   2 146.718 9.77029   1
   2  -2   2 138.419 10.3161   1
  -2   0   2 143.838 9.72091   1
   2  -2   2 137.675 10.0299   1
   3  -3  -2 2017.33 125.727   1
  -3   0  -2 2063.47 126.098   1
   0  -3   2 2127.94 123.198   1
  -3   3   2 1874.83 125.313   1
  -3   3   2 1967.18 125.812   1
   3   0   2 2008.82 125.952   1
   0   3  -2 1992.21 123.180   1
   0   3  -2 2169.43 123.168   1
   3  -3  -2 2104.76 125.985   1
   3   0   2 2260.93 125.977   1
   2   1   2 92.0476 7.83353   1
   1  -3   2 98.7580 7.13578   1
  -3   2   2 113.854 8.36244   1
   1   2  -2 97.5269 6.65712   1
   2   1   2 99.9829 8.03311   1
   2  -3  -2 111.545 8.05682   1
   1   2  -2 97.1193 6.65459   1
  -3   2   2 103.262 8.43222   1
   1  -3   2 108.947 7.45649   1
  -2   3   2 107.569 7.85039   1
  -2   3   2 107.488 8.30356   1
  -1  -2   2 102.413 6.63787   1
  -2  -1  -2 101.616 8.25150   1
  -2  -1  -2 90.3339 7.92152   1
   3  -1   2 95.8924 8.47871   1
   3  -2  -2 110.283 8.56308   1
  -1  -2   2 88.6263 6.54070   1
   3  -1   2 107.713 8.47223   1
   2   1  -2 3096.22 189.799   1
   1   2   2 3417.69 190.491   1
  -3   2  -2 3237.79 190.954   1
   2   1  -2 3046.14 189.887   1
  -3   1   2 3067.89 190.791   1
   2  -3   2 3144.20 190.660   1
   2  -3   2 3117.68 190.222   1
  -3   2  -2 3147.97 191.416   1
  -3   1   2 3198.96 190.612   1
   1   2   2 2815.40 189.844   1
  -2  -1   2 3203.18 189.607   1
  -2   3  -2 2996.12 190.555   1
  -2   3  -2 3438.53 190.564   1
   3  -2   2 3137.53 190.928   1
  -1   3   2 3280.72 190.383   1
  -1  -2  -2 3008.06 189.996   1
  -1  -2  -2 3123.02 190.094   1
  -2  -1   2 3256.40 189.857   1
  -1   3   2 3219.92 189.852   1
   0  -3  -2 1973.87 123.402   1
  -3   0   2 2180.64 124.179   1
  -3   0   2 2283.71 124.091   1
   3   0  -2 2010.14 124.092   1
   0  -3  -2 2013.31 123.039   1
  -3   3  -2 1912.76 124.647   1
   3   0  -2 2050.84 124.294   1
   3  -3   2 2017.89 124.806   1
  -3   3  -2 1911.78 124.167   1
   3  -3   2 2059.07 124.341   1
   0   3   2 2002.41 123.500   1
   3  -4  -2 1556.86 100.480   1
   3  -4  -2 1628.28 100.747   1
  -1   4  -2 1469.06 98.8550   1
  -3  -1  -2 1782.58 101.013   1
  -3   4   2 1616.29 100.742   1
  -3   4   2 1768.97 100.472   1
  -1   4  -2 1518.34 98.6229   1
  -3  -1  -2 1778.53 101.019   1
   2  -4   2 1487.65 98.7765   1
   2  -4   2 1659.00 99.4038   1
   2   2  -2 1667.27 98.4024   1
   2  -4  -2 1583.57 99.1958   1
   2   2   2 1669.45 99.2183   1
   2   2   2 1769.24 99.3792   1
  -2   4  -2 1648.75 99.1274   1
  -2   4  -2 1543.46 99.0621   1
  -2  -2  -2 1475.52 99.2997   1
  -2  -2   2 1598.11 97.8446   1
  -2  -2  -2 1751.44 99.5359   1
  -4   1   2 54.7916 5.78584   1
   3  -4   2 58.1290 6.03288   1
   1  -4  -2 52.4611 4.87354   1
   1   3   2 50.7516 5.03087   1
  -4   1   2 61.2020 5.84870   1
   1  -4  -2 56.0481 5.25059   1
   3  -4   2 63.7335 5.84856   1
   1   3   2 57.9295 5.02395   1
   3   1  -2 48.9285 5.32777   1
   3   1  -2 59.5332 5.37351   1
  -3  -1   2 53.0071 5.07790   1
   4  -1  -2 48.7666 5.83131   1
  -1  -3  -2 57.6040 4.82921   1
  -1   4   2 60.7802 5.40207   1
  -3   4  -2 68.5026 6.25032   1
  -1  -3  -2 53.2689 4.97899   1
  -1   4   2 47.8663 4.75167   1
  -3  -1   2 56.9570 5.11698   1
   4  -1  -2 56.1157 5.95478   1
  -3   4  -2 59.5369 5.75092   1
   4   0  -2 1219.49 81.0181   1
  -4   0   2 1411.87 81.1047   1
  -4   0   2 1287.36 80.9015   1
   4   0  -2 1300.39 81.6421   1
   3   2   2 30.6651 4.16659   1
   3   2   2 31.8512 4.01989   1
  -3   5   2 38.4550 4.30556   1
   3  -5   2 1015.13 63.8497   1
   3  -5   2 860.111 63.5540   1
  -3   5  -2 1025.64 63.4810   1
  -2   5   2 1066.85 62.7186   1
  -3   5  -2 1039.82 63.4305   1
  -2   5   2 1037.10 63.3595   1
   4   1  -2 752.048 48.5256   1
   0   0   3 65.9169 5.20916   1
   0   0  -3 63.6693 5.22824   1
   0   0   3 57.7757 5.18862   1
   0   0  -3 67.0910 5.18456   1
   0  -1   3 6079.39 370.100   1
  -1   0  -3 5599.31 370.522   1
  -1   1   3 6362.22 369.974   1
  -1   0  -3 6461.52 370.486   1
   1   0   3 5845.10 370.603   1
   1  -1  -3 5657.62 369.828   1
   0  -1   3 6815.14 369.985   1
   1  -1  -3 6855.88 370.526   1
   0   1  -3 5641.28 369.715   1
   0   1  -3 6370.63 369.957   1
   1   0   3 6238.60 370.368   1
   0   1   3 2511.42 148.627   1
  -1   1  -3 2511.00 148.732   1
   0   1   3 2482.33 148.671   1
   1   0  -3 2347.01 148.381   1
   1   0  -3 2598.87 148.187   1
   1  -1   3 2585.52 148.700   1
  -1   1  -3 2338.06 148.872   1
   1  -1   3 2402.03 148.832   1
  -1   0   3 2361.27 148.077   1
   2  -2  -3 1701.37 106.540   1
  -2   2   3 1763.58 106.477   1
  -2   0  -3 1753.77 107.401   1
   2   0   3 2018.56 107.481   1
   2   0   3 1688.76 107.070   1
   0   2  -3 1748.75 105.719   1
  -2   0  -3 1796.62 107.246   1
  -2   2   3 1731.68 107.044   1
   0  -2   3 1676.74 106.010   1
   0   2  -3 1727.31 105.820   1
   0  -2   3 1685.02 105.723   1
  -2   1  -3 52.3953 5.07412   1
   1  -2  -3 54.3541 4.47890   1
   1  -2   3 52.6409 4.55438   1
   1   1  -3 45.0772 3.85810   1
  -2   1  -3 46.3375 4.84365   1
   1   1  -3 50.3353 4.22148   1
   1  -2  -3 38.8225 4.35534   1
   1  -2   3 47.5863 4.35888   1
   1   1   3 50.9826 4.67551   1
   1   1   3 46.7107 4.80742   1
  -1   2  -3 53.2363 4.59591   1
   2  -1   3 50.2465 4.92365   1
  -1  -1  -3 61.1039 5.12713   1
   2  -1   3 48.4847 4.83573   1
  -1  -1   3 45.6188 3.95135   1
   2  -1  -3 42.0766 4.27527   1
  -1   2  -3 49.8036 4.66151   1
  -1  -1  -3 56.7242 4.84350   1
   2   0  -3 4693.00 270.170   1
   2  -2   3 5000.01 270.938   1
   2  -2   3 4598.14 270.946   1
   0  -2  -3 4358.29 270.380   1
   0   2   3 4324.60 270.383   1
  -2   0   3 4734.95 270.575   1
  -2   0   3 4631.74 270.000   1
   0   2   3 4173.42 270.315   1
  -2   2  -3 3933.23 270.615   1
   0  -2  -3 4524.64 270.123   1
  -3   0  -3 34.5579 4.61539   1
   3   0   3 44.6643 4.84498   1
   3   0   3 47.2638 5.10075   1
   0  -3   3 38.4826 3.25125   1
   0  -3   3 42.3173 3.28455   1
  -3   3   3 38.2426 4.26344   1
  -3   3   3 38.4399 4.64594   1
   0   3  -3 38.4878 3.33080   1
  -3   0  -3 36.0253 4.68361   1
   3  -3  -3 37.5035 4.40858   1
   0   3  -3 39.1685 3.13741   1
   1  -3   3 3008.79 196.639   1
   2  -3  -3 3548.71 197.596   1
  -3   1  -3 3228.99 198.227   1
  -3   2   3 3178.84 197.484   1
   1   2  -3 3297.58 196.041   1
   1   2  -3 3268.97 196.276   1
   2   1   3 3313.79 197.932   1
  -3   2   3 3479.10 198.347   1
   2   1   3 3280.23 197.755   1
   1  -3   3 3354.76 196.713   1
   3  -2  -3 3689.30 198.085   1
  -1   3  -3 3155.23 196.889   1
   3  -1   3 3230.25 198.055   1
  -1   3  -3 3352.38 197.203   1
  -2   3   3 3095.84 197.769   1
  -1  -2   3 3235.13 196.296   1
  -1  -2   3 3205.40 196.207   1
   3  -1   3 3223.60 198.322   1
  -2  -1  -3 2965.11 197.914   1
  -2   3   3 3140.33 197.163   1
  -2  -1  -3 3245.53 197.837   1
   3  -2  -3 3439.65 198.196   1
  -3   1   3 1077.77 77.3482   1
   1  -3  -3 1313.99 76.9092   1
   1   2   3 1385.20 77.3768   1
   1  -3  -3 1344.65 77.4668   1
  -3   2  -3 1165.28 77.9886   1
   2  -3   3 1106.22 77.1686   1
  -3   1   3 1332.85 77.3505   1
   1   2   3 1280.21 77.6474   1
  -3   2  -3 1300.11 78.0396   1
  -1  -2  -3 1400.19 77.4529   1
  -2  -1   3 1318.11 76.8718   1
  -2   3  -3 1252.34 77.5356   1
  -2  -1   3 1197.16 76.2909   1
   3  -1  -3 1265.01 77.4692   1
   3  -1  -3 1286.34 77.7097   1
  -1   3   3 1146.50 76.6771   1
  -2   3  -3 1276.97 77.5511   1
  -1  -2  -3 1192.85 77.0722   1
   3  -2   3 1198.63 78.0093   1
   3  -3   3 44.1589 5.05372   1
   3   0  -3 39.8454 4.48628   1
  -3   3  -3 33.9992 4.65161   1
  -3   3  -3 41.2484 4.77956   1
   0  -3  -3 51.7866 4.78299   1
   3  -3   3 45.9349 4.86608   1
   3   0  -3 36.5096 4.36917   1
   0  -3  -3 52.7379 4.40843   1
  -1   4  -3 722.328 44.4116   1
  -3  -1  -3 704.938 45.9669   1
  -1   4  -3 767.875 44.3128   1
  -3  -1  -3 633.120 45.7918   1
   2  -4   3 37.0033 4.00857   1
   2   2   3 44.5616 4.75075   1
   2  -4   3 44.4489 4.54039   1
   2  -4  -3 35.2600 4.10627   1
   2   2  -3 37.2247 3.64263   1
   2   2   3 36.3992 4.33603   1
  -2   4   3 38.4414 4.11425   1
  -2   4  -3 36.5892 4.32052   1
  -2  -2  -3 39.1836 4.53864   1
  -2  -2  -3 32.8688 4.37637   1
  -2   4  -3 33.1631 4.17290   1
  -2   4   3 38.1259 4.59030   1
   1  -4  -3 1797.92 114.604   1
   1  -4  -3 1933.24 114.268   1
   1   3   3 1681.56 114.620   1
   3  -4   3 1866.11 115.520   1
   3  -4   3 2024.01 115.201   1
   3   1  -3 2031.21 114.868   1
   1   3   3 2071.81 114.704   1
  -1  -3  -3 1925.39 114.223   1
  -1   4   3 1784.90 114.672   1
  -3  -1   3 1873.05 114.379   1
  -1   4   3 1799.15 114.210   1
  -1  -3  -3 1861.71 114.512   1
  -3  -1   3 1744.66 113.862   1
  -4   0   3 518.963 37.2364   1
   0   4   3 521.094 37.2446   1
  -4   0   3 613.452 38.0253   1
   4   0  -3 653.397 38.6803   1
   4   0  -3 612.789 38.1449   1
   3   2   3 1327.20 78.6584   1
   3   2   3 1190.47 78.4356   1
  -2   5   3 482.986 31.1430   1
  -3   5  -3 472.639 31.8412   1
  -2   5   3 485.043 31.9242   1
  -3   5  -3 462.639 31.7808   1
   0   0   4 2412.97 143.321   1
   0   0  -4 2340.40 143.355   1
   0   0   4 2343.75 143.509   1
   1  -1  -4 301.368 20.3741   1
   0   1  -4 304.705 19.9643   1
  -1   0  -4 331.313 20.9484   1
   0  -1   4 310.565 20.4267   1
  -1   1   4 280.336 19.8950   1
   0  -1   4 331.542 20.1841   1
   1   0   4 290.763 20.7918   1
  -1   0  -4 294.549 20.4259   1
   0   1  -4 277.153 19.9584   1
   1   0   4 325.834 20.5924   1
   0   1   4 1983.06 127.021   1
   0   1   4 2434.50 127.371   1
  -1   1  -4 1860.22 126.774   1
   1  -1   4 2082.21 126.920   1
  -1   1  -4 2069.29 127.332   1
   1  -1   4 1983.25 127.257   1
  -1   0   4 2216.10 126.604   1
  -2   2   4 1673.89 96.9687   1
   0  -2   4 1526.22 95.5551   1
   0   2  -4 1425.85 95.5155   1
   2  -2  -4 1522.80 96.0554   1
   2   0   4 1674.67 97.2135   1
   2   0   4 1727.56 97.0199   1
  -2   0  -4 1698.58 97.0875   1
  -2   2   4 1511.97 95.9420   1
  -2   0  -4 1552.34 97.2120   1
   0   2  -4 1450.12 95.3543   1
   0  -2   4 1574.28 96.0815   1
   1   1   4 1848.55 112.621   1
  -2   1  -4 1844.07 113.017   1
  -2   1   4 1735.46 112.612   1
   1  -2  -4 1708.19 112.028   1
   1   1  -4 2025.63 111.785   1
   1  -2  -4 1865.36 112.641   1
   1   1  -4 1889.16 112.084   1
   1   1   4 1734.83 112.963   1
   1  -2   4 1945.21 112.339   1
  -2   1   4 1747.06 111.994   1
  -2   1  -4 2054.20 113.711   1
   1  -2   4 1894.18 112.648   1
  -1  -1  -4 1815.87 112.627   1
   2  -1   4 1878.62 112.944   1
  -1  -1   4 1710.97 111.750   1
  -1   2   4 1812.79 112.145   1
   2  -1  -4 1750.34 112.066   1
  -1   2  -4 1896.91 112.480   1
  -1   2  -4 1779.39 112.599   1
  -1  -1  -4 1875.21 112.893   1
   2  -1   4 1931.01 113.212   1
   2  -2   4 174.908 14.0799   1
  -2   0   4 193.429 14.0266   1
   2  -2   4 204.393 14.4270   1
  -2   0   4 180.665 13.3914   1
  -2   2  -4 217.467 14.7299   1
  -2   2  -4 205.075 14.7493   1
   0   2   4 203.487 14.3230   1
   0  -2  -4 201.153 14.2161   1
   2   0  -4 196.198 13.6082   1
   0  -2  -4 186.856 13.7148   1
   0   2   4 200.393 14.2072   1
   0   3  -4 1041.95 61.4066   1
  -3   0  -4 977.392 63.8655   1
   0   3  -4 1005.91 61.7053   1
   0  -3   4 1070.49 61.9004   1
   3   0   4 1036.93 63.6933   1
  -3   0  -4 902.952 63.3862   1
   0  -3   4 1068.48 61.7123   1
   3   0   4 900.192 63.1756   1
  -3   1  -4 132.033 11.4886   1
   1  -3   4 157.187 10.5666   1
  -3   2   4 152.379 11.6080   1
   2   1   4 139.287 11.1250   1
   1   2  -4 142.238 10.1315   1
  -3   1  -4 156.375 11.9563   1
   1   2  -4 142.773 9.73524   1
   2  -3  -4 141.329 10.7706   1
  -3   2   4 130.027 10.6052   1
   2   1   4 153.833 11.6669   1
   1  -3   4 144.585 10.5033   1
  -2   3   4 135.863 11.2234   1
   3  -2  -4 124.463 10.6554   1
  -1   3  -4 136.953 10.5482   1
  -2  -1  -4 130.868 11.0792   1
   3  -1   4 149.585 11.6897   1
   3  -1   4 143.034 11.4610   1
  -1  -2   4 137.902 10.1840   1
  -2   3   4 131.982 10.5112   1
  -2  -1  -4 153.136 11.7967   1
  -1   3  -4 131.512 10.5934   1
   2  -3   4 1020.52 74.8132   1
   2   1  -4 1107.01 74.1396   1
   1   2   4 1211.98 75.7553   1
   1  -3  -4 1421.29 75.1476   1
   1   2   4 1032.07 74.7410   1
  -3   1   4 1351.42 75.1152   1
  -3   2  -4 1162.77 75.8846   1
  -3   2  -4 1295.26 76.3081   1
  -3   1   4 1194.07 75.5545   1
   1  -3  -4 1287.86 75.4206   1
   2  -3   4 1163.52 74.9740   1
  -2  -1   4 1297.66 74.8780   1
  -2  -1   4 1145.34 74.1077   1
  -2   3  -4 1269.79 75.5912   1
  -1   3   4 1227.20 74.8495   1
   3  -1  -4 1178.25 74.9901   1
  -2   3  -4 1286.55 75.8166   1
  -3   3  -4 1114.25 69.8696   1
   0  -3  -4 1084.17 69.0108   1
  -3   0   4 1121.46 68.4582   1
   3  -3   4 1126.92 69.7932   1
   3   0  -4 1221.68 69.0337   1
  -3   0   4 1066.98 69.0379   1
   3  -3   4 997.470 69.0559   1
   0  -3  -4 1163.87 68.6100   1
  -3   3  -4 1059.53 69.6187   1
  -3  -1  -4 640.536 45.8393   1
  -1   4  -4 770.007 44.2812   1
  -1   4  -4 678.168 43.9181   1
   2   2   4 881.136 53.0803   1
   2   2  -4 800.323 51.3685   1
   2  -4   4 840.252 52.2394   1
   2  -4   4 871.971 52.6297   1
   2   2  -4 822.233 51.6103   1
   2  -4  -4 758.426 52.7317   1
   2  -4  -4 862.383 52.6509   1
   2   2   4 902.386 53.5185   1
  -2   4   4 781.545 52.1859   1
  -2   4  -4 784.336 52.5427   1
  -2   4   4 914.237 53.5639   1
  -2  -2  -4 839.343 53.1962   1
  -2  -2  -4 792.992 52.8735   1
  -2   4  -4 805.146 52.8131   1
   3   1  -4 72.9652 6.55260   1
   1   3   4 74.7210 6.85698   1
   3  -4   4 70.5316 7.27104   1
   1   3   4 66.1343 7.05063   1
   1  -4  -4 69.1949 6.80795   1
   3  -4   4 74.0799 6.99509   1
   1  -4  -4 61.4921 6.17631   1
  -3   4  -4 74.6883 7.39217   1
  -3  -1   4 73.5174 6.62093   1
  -1  -3  -4 59.7105 6.17603   1
  -1   4   4 67.0325 6.51608   1
  -1  -3  -4 78.3108 7.06145   1
  -3  -1   4 73.0845 6.22343   1
  -3   4  -4 69.6596 7.28541   1
   0   4   4 557.481 36.8600   1
  -3   5  -4 489.491 33.7947   1
  -3   5  -4 515.266 34.0386   1
  -1   0  -5 3874.48 226.922   1
   0  -1   5 3576.98 225.993   1
   1   0   5 3673.76 227.103   1
   1  -1  -5 3630.22 226.349   1
   0   1  -5 3745.02 225.954   1
   0  -1   5 3750.20 226.628   1
  -1   0  -5 3536.91 226.449   1
   0   1  -5 4236.22 226.607   1
  -1   1   5 3497.23 225.960   1
   1  -1  -5 3961.71 226.104   1
   0   1   5 895.503 62.8323   1
   0  -1  -5 970.062 62.7364   1
   1  -1   5 1066.98 63.2168   1
   1  -1   5 1000.33 63.6451   1
   1   0  -5 1013.44 62.9831   1
   1   0  -5 1094.03 62.6717   1
   0  -1  -5 1090.16 63.4682   1
  -1   1  -5 1020.93 63.2164   1
  -1   0   5 941.155 62.5984   1
   0   1   5 1025.25 63.4437   1
  -2   0  -5 637.696 45.4747   1
   2   0   5 726.063 45.7186   1
   2   0   5 731.040 46.1997   1
   0  -2   5 745.667 44.8302   1
  -2   2   5 735.263 45.0121   1
   2  -2  -5 652.650 44.7880   1
   0  -2   5 702.107 45.2923   1
   2  -2  -5 751.526 45.7040   1
  -2   1  -5 1633.38 101.647   1
   1  -2  -5 1763.32 101.506   1
  -2   1   5 1629.82 100.668   1
   1  -2  -5 1477.53 100.563   1
   1   1  -5 1678.69 100.339   1
   1  -2   5 1639.78 100.927   1
   1  -2   5 1597.23 101.367   1
   1   1  -5 1682.43 100.868   1
  -2   1  -5 1586.25 101.990   1
  -1   2   5 1590.03 100.854   1
  -1  -1  -5 1790.23 101.749   1
   2  -1  -5 1859.96 101.046   1
   2  -1   5 1565.19 101.701   1
  -1   2  -5 1727.71 101.294   1
  -1   2  -5 1643.78 101.312   1
   2  -1  -5 1572.25 101.136   1
   2  -1   5 1613.50 101.438   1
  -1  -1  -5 1588.09 101.312   1
   0   2   5 2619.44 173.261   1
  -2   0   5 2914.98 172.593   1
  -2   2  -5 2869.52 173.648   1
   0  -2  -5 2689.56 173.205   1
   2  -2   5 2918.09 173.487   1
   0   2   5 2646.52 173.131   1
   0  -2  -5 3019.00 173.053   1
   2  -2   5 3009.16 173.840   1
   2   0  -5 2812.99 173.022   1
   2   0  -5 3091.83 172.725   1
  -2   2  -5 2768.81 173.934   1
   0   3  -5 1065.64 61.7674   1
   0   3  -5 934.064 61.9226   1
   2   1   5 2103.09 133.866   1
   2   1   5 2130.04 134.371   1
   1  -3   5 2081.68 132.920   1
   1   2  -5 2297.52 132.976   1
   1  -3   5 2273.94 133.469   1
   1   2  -5 2197.96 132.327   1
  -2  -1  -5 2268.20 134.574   1
  -1  -2   5 2027.61 132.870   1
  -2  -1  -5 2360.04 134.447   1
  -1   3  -5 1995.64 133.078   1
  -1   3  -5 2321.60 133.576   1
   1   2   5 589.375 38.5828   1
   2  -3   5 605.777 37.9624   1
  -3   1   5 572.172 37.7304   1
   1   2   5 656.069 38.2492   1
   1  -3  -5 544.816 37.7093   1
   2  -3   5 575.802 37.7609   1
   2   1  -5 531.972 37.0977   1
   1  -3  -5 602.659 37.5170   1
   2   1  -5 545.976 36.7262   1
  -2   3  -5 520.245 38.0267   1
  -1  -2  -5 669.894 38.2477   1
  -2   3  -5 531.997 37.7937   1
  -1   3   5 591.862 37.6443   1
  -2  -1   5 592.405 37.4819   1
  -2  -1   5 583.121 36.9211   1
  -3   0   5 1060.78 63.3323   1
  -3   0   5 976.588 63.9287   1
   3   0  -5 996.816 63.3863   1
   0   3   5 892.573 63.6851   1
   0  -3  -5 1128.96 63.7723   1
   0   3   5 1062.02 64.4519   1
   0  -3  -5 983.127 63.9917   1
   2  -4   5 763.788 48.3565   1
   2   2  -5 703.161 47.2443   1
   2   2  -5 717.042 47.6332   1
   2  -4   5 736.505 48.3577   1
  -2   4  -5 805.863 49.3469   1
  -2   4  -5 850.675 49.2283   1
   1   3   5 1367.24 88.0855   1
   3   1  -5 1398.87 86.6753   1
   1   3   5 1443.10 87.5149   1
  -1  -3  -5 1257.89 87.2033   1
  -1  -3  -5 1550.11 87.3278   1
   0   0  -6 721.045 45.4002   1
   0   0   6 708.676 45.6221   1
   0   0  -6 708.622 44.8942   1
   0   0   6 682.240 45.0568   1
   0   1  -6 11.8195 2.26189   1
   1   0   6 10.5077 2.28781   1
  -1   0  -6 11.3609 2.54391   1
  -1   1   6 6.97887 2.05753   1
   1  -1  -6 13.1480 2.62682   1
   0  -1   6 11.9926 2.38664   1
   0  -1   6 9.40413 2.43732   1
   1  -1  -6 7.07478 1.77356   1
   1   0   6 11.6618 2.85146   1
   0   1  -6 15.2345 2.71811   1
   1  -1   6 1672.58 108.501   1
   0  -1  -6 1843.67 108.305   1
   0   1   6 1835.68 108.523   1
   1   0  -6 1643.99 107.648   1
   1  -1   6 2029.44 108.397   1
   0   1   6 1751.15 107.999   1
   1   0  -6 1589.91 107.025   1
  -1   0   6 1687.21 107.647   1
   0   2  -6 1491.41 91.2798   1
   0  -2   6 1383.92 90.9030   1
   0   2  -6 1555.50 90.9030   1
   1   1  -6 576.498 36.2933   1
   1   1  -6 564.655 36.8640   1
  -1  -1   6 535.155 36.7735   1
  -1   2  -6 568.247 37.2219   1
  -1   2  -6 585.855 37.2535   1
   2   0  -6 8.58176 2.24311   1
  -2   0   6 12.2939 2.34772   1
   2   0  -6 12.2185 2.29782   1
   0   3  -6 355.907 24.7842   1
   0   3  -6 380.528 24.4683   1
   1  -3   6 12.6980 2.86607   1
   1  -3   6 8.84089 2.23277   1
   1   2  -6 12.9042 2.58704   1
   1   2  -6 12.5230 2.16007   1
  -1  -2   6 8.89698 2.50349   1
  -1   3  -6 8.14843 2.27029   1
  -1   3  -6 10.4454 2.45375   1
   2  -3   6 1147.13 67.7372   1
   2   1  -6 1104.18 66.8941   1
   2   1  -6 980.478 66.0204   1
  -2  -1   6 1043.41 66.4249   1
  -2   4  -6 315.051 22.2337   1
  -2   4  -6 289.637 21.7222   1
   3   1  -6 12.0172 2.86269   1
   0  -2   7 13.5647 3.21202   1
   0   2  -7 17.7590 3.28384   1
   0   2  -7 20.9353 3.16730   1
   0  -2   7 17.5084 3.31127   1
   1   1  -7 1303.27 77.3814   1
  -1  -1   7 1158.56 77.1569   1
   1   2  -7 1257.12 72.6512   1
   1  -3   7 1019.76 72.5308   1
   1   2  -7 1183.96 71.6651   1
  -1   3  -7 1140.56 72.6802   1
   0   0   0    0.00    0.00   0

 _exptl_absorpt_process_details
)
 SADABS 2016/2: Krause, L., Herbst-Irmer, R., Sheldrick G.M. & Stalke D.,
 J. Appl. Cryst. 48 (2015) 3-10
)
 _exptl_absorpt_correction_type   multi-scan
 _exptl_absorpt_correction_T_max  0.7439
 _exptl_absorpt_correction_T_min  0.5815
 _exptl_special_details
)
 The following wavelength and cell were deduced by SADABS from the
 direction cosines etc. They are given here for emergency use only:
 CELL 0.43350    4.564    4.564    7.227   90.000   89.999  120.000
)
;
_shelx_hkl_checksum              86220
_olex2_submission_special_instructions 'No special instructions were received'
loop_
_space_group_symop_operation_xyz
'x, y, z'
'-y, x-y, z'
'-x+y, -x, z'
'x-y, -y, -z'
'-x, -x+y, -z'
'y, x, -z'
'-x, -y, -z'
'y, -x+y, -z'
'x-y, x, -z'
'-x+y, y, z'
'x, x-y, z'
'-y, -x, z'
loop_
_atom_site_label
_atom_site_type_symbol
_atom_site_fract_x
_atom_site_fract_y
_atom_site_fract_z
_atom_site_U_iso_or_equiv
_atom_site_adp_type
_atom_site_occupancy
_atom_site_site_symmetry_order
_atom_site_calc_flag
_atom_site_refinement_flags_posn
_atom_site_refinement_flags_adp
_atom_site_refinement_flags_occupancy
_atom_site_disorder_assembly
_atom_site_disorder_group
Sb1 Sb 0.333333 0.666667 0.72848(4) 0.0118(3) Uani 1 6 d S T P . .
Mg2 Mg 0.666667 0.333333 0.8651(2) 0.0156(5) Uani 1 6 d S T P . .
Mg3 Mg 0.000000 1.000000 0.500000 0.0227(8) Uani 1 12 d S T P . .
loop_
_atom_site_aniso_label
_atom_site_aniso_U_11
_atom_site_aniso_U_22
_atom_site_aniso_U_33
_atom_site_aniso_U_23
_atom_site_aniso_U_13
_atom_site_aniso_U_12
Sb1 0.0128(3) 0.0128(3) 0.0097(4) 0.000 0.000 0.00640(13)
Mg2 0.0159(6) 0.0159(6) 0.0148(15) 0.000 0.000 0.0080(3)
Mg3 0.0239(8) 0.0239(8) 0.020(2) 0.000 0.000 0.0119(4)
loop_
_atom_type_symbol
_atom_type_description
_atom_type_scat_dispersion_real
_atom_type_scat_dispersion_imag
_atom_type_scat_source
Mg Mg 0.0174 0.0133 'International Tables Vol C Tables 4.2.6.8 and 6.1.1.4'
Sb Sb -2.2740 0.6185 'International Tables Vol C Tables 4.2.6.8 and 6.1.1.4'
loop_
_geom_angle_atom_site_label_1
_geom_angle_atom_site_label_2
_geom_angle_atom_site_label_3
_geom_angle
_geom_angle_site_symmetry_1
_geom_angle_site_symmetry_3
_geom_angle_publ_flag
Mg2 Sb1 Mg2 108.38(4) 1_565 1_455 ?
Mg2 Sb1 Mg2 108.38(4) 1_565 . ?
Mg2 Sb1 Mg2 108.38(4) 1_455 . ?
Mg2 Sb1 Mg2 69.46(4) 1_565 7_667 ?
Mg2 Sb1 Mg2 69.46(4) 1_455 7_667 ?
Mg2 Sb1 Mg2 69.46(4) . 7_667 ?
Mg2 Sb1 Mg3 77.86(2) 1_565 . ?
Mg2 Sb1 Mg3 77.85(2) 1_565 1_655 ?
Mg2 Sb1 Mg3 168.46(4) 1_455 1_655 ?
Mg2 Sb1 Mg3 77.86(2) . 1_655 ?
Mg2 Sb1 Mg3 168.46(4) . . ?
Mg2 Sb1 Mg3 77.86(2) 1_455 . ?
Mg2 Sb1 Mg3 122.079(11) 7_667 . ?
Mg2 Sb1 Mg3 77.86(2) . 1_545 ?
Mg2 Sb1 Mg3 77.85(2) 1_455 1_545 ?
Mg2 Sb1 Mg3 122.080(11) 7_667 1_655 ?
Mg2 Sb1 Mg3 122.080(11) 7_667 1_545 ?
Mg2 Sb1 Mg3 168.46(4) 1_565 1_545 ?
Mg3 Sb1 Mg3 94.411(14) . 1_655 ?
Mg3 Sb1 Mg3 94.411(14) 1_545 1_655 ?
Mg3 Sb1 Mg3 94.411(15) . 1_545 ?
Sb1 Mg2 Sb1 110.54(4) 1_545 7_667 ?
Sb1 Mg2 Sb1 108.38(4) 1_545 1_655 ?
Sb1 Mg2 Sb1 108.38(4) 1_545 . ?
Sb1 Mg2 Sb1 108.38(4) 1_655 . ?
Sb1 Mg2 Sb1 110.54(4) 1_655 7_667 ?
Sb1 Mg2 Sb1 110.54(4) . 7_667 ?
Sb1 Mg2 Mg2 57.06(2) 1_545 7_657 ?
Sb1 Mg2 Mg2 125.808(18) 1_655 7_667 ?
Sb1 Mg2 Mg2 57.05(2) . 7_667 ?
Sb1 Mg2 Mg2 125.808(18) . 7_657 ?
Sb1 Mg2 Mg2 125.809(18) 1_545 7_767 ?
Sb1 Mg2 Mg2 53.48(5) 7_667 7_767 ?
Sb1 Mg2 Mg2 125.808(18) . 7_767 ?
Sb1 Mg2 Mg2 53.49(5) 7_667 7_667 ?
Sb1 Mg2 Mg2 125.809(18) 1_655 7_657 ?
Sb1 Mg2 Mg2 125.808(18) 1_545 7_667 ?
Sb1 Mg2 Mg2 53.48(5) 7_667 7_657 ?
Sb1 Mg2 Mg2 57.06(2) 1_655 7_767 ?
Mg2 Mg2 Mg2 88.22(7) 7_767 7_657 ?
Mg2 Mg2 Mg2 88.22(7) 7_767 7_667 ?
Mg2 Mg2 Mg2 88.22(7) 7_657 7_667 ?
Sb1 Mg3 Sb1 94.411(15) . 1_455 ?
Sb1 Mg3 Sb1 94.411(14) 1_565 1_455 ?
Sb1 Mg3 Sb1 94.411(15) 7_576 7_676 ?
Sb1 Mg3 Sb1 180.0 7_576 . ?
Sb1 Mg3 Sb1 85.589(14) 7_576 1_565 ?
Sb1 Mg3 Sb1 94.411(14) 7_566 7_676 ?
Sb1 Mg3 Sb1 85.589(14) . 7_566 ?
Sb1 Mg3 Sb1 180.0 7_676 1_455 ?
Sb1 Mg3 Sb1 180.0 7_566 1_565 ?
Sb1 Mg3 Sb1 85.589(14) 7_566 1_455 ?
Sb1 Mg3 Sb1 94.411(14) . 1_565 ?
Sb1 Mg3 Sb1 85.589(14) 1_565 7_676 ?
Sb1 Mg3 Sb1 85.589(15) 7_576 1_455 ?
Sb1 Mg3 Sb1 94.411(15) 7_576 7_566 ?
Sb1 Mg3 Sb1 85.589(15) . 7_676 ?
loop_
_geom_bond_atom_site_label_1
_geom_bond_atom_site_label_2
_geom_bond_distance
_geom_bond_site_symmetry_2
_geom_bond_publ_flag
Sb1 Mg2 2.8137(9) 1_565 ?
Sb1 Mg2 2.938(2) 7_667 ?
Sb1 Mg2 2.8137(9) 1_455 ?
Sb1 Mg2 2.8137(9) . ?
Sb1 Mg3 3.1096(6) 1_545 ?
Sb1 Mg3 3.1096(6) 1_655 ?
Sb1 Mg3 3.1096(6) . ?
Mg2 Mg2 3.278(2) 7_767 ?
Mg2 Mg2 3.278(2) 7_657 ?
Mg2 Mg2 3.278(2) 7_667 ?
