#------------------------------------------------------------------------------
#$Date: 2021-07-07 01:27:06 +0300 (Wed, 07 Jul 2021) $
#$Revision: 267304 $
#$URL: file:///home/coder/svn-repositories/cod/cif/4/00/39/4003989.cif $
#------------------------------------------------------------------------------
#
# This file is available in the Crystallography Open Database (COD),
# http://www.crystallography.net/
#
# All data on this site have been placed in the public domain by the
# contributors.
#
data_4003989
loop_
_publ_author_name
'Routledge, Kieran'
'Vir, Praveen'
'Cook, Nicholas'
'Murgatroyd, Philip A. E.'
'Ahmed, Sheikh J.'
'Savvin, Stanislav N.'
'Claridge, John B.'
'Alaria, Jonathan'
_publ_section_title
;
 Mode Crystallography Analysis through the Structural Phase Transition and
 Magnetic Critical Behavior of the Lacunar Spinel GaMo4Se8
;
_journal_name_full               'Chemistry of Materials'
_journal_paper_doi               10.1021/acs.chemmater.1c01448
_journal_year                    2021
_chemical_formula_iupac          GaMo4Se8
_chemical_formula_moiety         'Ga Mo4 Se8'
_chemical_formula_structural     GaMo4Se8
_chemical_formula_sum            'Ga Mo4 Se8'
_chemical_formula_weight         1085.16
_chemical_name_common            GaMo4Se8
_chemical_name_systematic        GaMo4Se8
_space_group_IT_number           216
_space_group_name_Hall           'F -4 2 3'
_space_group_name_H-M_alt        'F -4 3 m'
_symmetry_cell_setting           cubic
_symmetry_space_group_name_Hall  'F -4 2 3'
_symmetry_space_group_name_H-M   'F -4 3 m'
_cell_angle_alpha                90.0000
_cell_angle_beta                 90.0000
_cell_angle_gamma                90.0000
_cell_formula_units_Z            4
_cell_length_a                   10.17818(2)
_cell_length_b                   10.17818(2)
_cell_length_c                   10.17818(2)
_cell_measurement_temperature    300
_cell_volume                     1054.412(4)
_computing_structure_refinement  FULLPROF
_computing_structure_solution    FULLPROF
_diffrn_ambient_temperature      300
_diffrn_detector                 '128 He-3 counting tubes'
_diffrn_detector_type            N/A
_diffrn_measurement_device_type  'Two-axis diffractometer'
_diffrn_measurement_method       High-resolution
_diffrn_radiation_monochromator  Germanium
_diffrn_radiation_type           Neutron
_diffrn_radiation_wavelength     1.59400
_diffrn_source                   'nuclear reactor'
_diffrn_source_type              'High-resolution 2-axis diffractometer (D2B)'
_pd_char_colour                  Black
_pd_char_particle_morphology     'fine powder'
_pd_instr_location               'Institut Laue-Langevin (ILL) Grenoble'
_pd_meas_2theta_range_inc        0.050018
_pd_meas_2theta_range_max        159.95000
_pd_meas_2theta_range_min        0.05000
_pd_meas_number_of_points        3199
_pd_meas_scan_method             cont
_pd_proc_2theta_range_inc        0.050018
_pd_proc_2theta_range_max        159.8719
_pd_proc_2theta_range_min        -0.0281
_pd_proc_info_data_reduction     N/A
_pd_proc_info_excluded_regions   '146 -160 deg'
_pd_proc_ls_background_function
'Linear intrapolation between a set of background points'
_pd_proc_ls_pref_orient_corr     No
_pd_proc_ls_profile_function
'Thompson-Cox-Hastings pseudo-Voigt (Axial divergence asymmetry)'
_pd_proc_ls_prof_R_factor        4.1950
_pd_proc_ls_prof_wR_expected     2.9466
_pd_proc_ls_prof_wR_factor       5.5922
_pd_proc_wavelength              1.594000
_pd_spec_mounting                Vanadium
_pd_spec_mount_mode              reflection
_pd_spec_shape                   cylinder
_pd_spec_size_axial              6
_pd_spec_size_equat              6
_pd_spec_size_thick              5
_refine_ls_goodness_of_fit_all   1.8978
_refine_ls_number_parameters     18
_refine_ls_number_reflns         79
_refine_ls_number_restraints     0
_refine_ls_R_I_factor            2.8214
_cod_data_source_file            cm1c01448_si_008.cif
_cod_data_source_block           GaMo4Se8_cub
_cod_original_cell_volume        1054.412(6)
_cod_original_formula_sum        'Ga1 Mo4 Se8'
_cod_database_code               4003989
_pd_proc_ls_prof_cr_factor       9.3483
_pd_proc_ls_prof_cwr_factor      9.4544
_pd_proc_ls_prof_cwr_expected    4.9817
_pd_proc_ls_prof_chi2            3.6018
_pd_proc_ls_prof_echi2           3.7090
loop_
_symmetry_equiv_pos_as_xyz
x,y,z
x,-y,-z
-x,y,-z
-x,-y,z
y,z,x
-y,-z,x
y,-z,-x
-y,z,-x
z,x,y
-z,x,-y
-z,-x,y
z,-x,-y
y,x,z
-y,x,-z
y,-x,-z
-y,-x,z
z,y,x
-z,-y,x
-z,y,-x
z,-y,-x
x,z,y
x,-z,-y
-x,-z,y
-x,z,-y
x+1/2,y+1/2,z
x+1/2,-y+1/2,-z
-x+1/2,y+1/2,-z
-x+1/2,-y+1/2,z
y+1/2,z+1/2,x
-y+1/2,-z+1/2,x
y+1/2,-z+1/2,-x
-y+1/2,z+1/2,-x
z+1/2,x+1/2,y
-z+1/2,x+1/2,-y
-z+1/2,-x+1/2,y
z+1/2,-x+1/2,-y
y+1/2,x+1/2,z
-y+1/2,x+1/2,-z
y+1/2,-x+1/2,-z
-y+1/2,-x+1/2,z
z+1/2,y+1/2,x
-z+1/2,-y+1/2,x
-z+1/2,y+1/2,-x
z+1/2,-y+1/2,-x
x+1/2,z+1/2,y
x+1/2,-z+1/2,-y
-x+1/2,-z+1/2,y
-x+1/2,z+1/2,-y
x+1/2,y,z+1/2
x+1/2,-y,-z+1/2
-x+1/2,y,-z+1/2
-x+1/2,-y,z+1/2
y+1/2,z,x+1/2
-y+1/2,-z,x+1/2
y+1/2,-z,-x+1/2
-y+1/2,z,-x+1/2
z+1/2,x,y+1/2
-z+1/2,x,-y+1/2
-z+1/2,-x,y+1/2
z+1/2,-x,-y+1/2
y+1/2,x,z+1/2
-y+1/2,x,-z+1/2
y+1/2,-x,-z+1/2
-y+1/2,-x,z+1/2
z+1/2,y,x+1/2
-z+1/2,-y,x+1/2
-z+1/2,y,-x+1/2
z+1/2,-y,-x+1/2
x+1/2,z,y+1/2
x+1/2,-z,-y+1/2
-x+1/2,-z,y+1/2
-x+1/2,z,-y+1/2
x,y+1/2,z+1/2
x,-y+1/2,-z+1/2
-x,y+1/2,-z+1/2
-x,-y+1/2,z+1/2
y,z+1/2,x+1/2
-y,-z+1/2,x+1/2
y,-z+1/2,-x+1/2
-y,z+1/2,-x+1/2
z,x+1/2,y+1/2
-z,x+1/2,-y+1/2
-z,-x+1/2,y+1/2
z,-x+1/2,-y+1/2
y,x+1/2,z+1/2
-y,x+1/2,-z+1/2
y,-x+1/2,-z+1/2
-y,-x+1/2,z+1/2
z,y+1/2,x+1/2
-z,-y+1/2,x+1/2
-z,y+1/2,-x+1/2
z,-y+1/2,-x+1/2
x,z+1/2,y+1/2
x,-z+1/2,-y+1/2
-x,-z+1/2,y+1/2
-x,z+1/2,-y+1/2
loop_
_atom_site_label
_atom_site_fract_x
_atom_site_fract_y
_atom_site_fract_z
_atom_site_U_iso_or_equiv
_atom_site_occupancy
_atom_site_adp_type
_atom_site_type_symbol
Mo1 0.39927(7) 0.39927(7) 0.39927(7) 0.0033(2) 1.00000 Uani Mo
Se1 0.63623(11) 0.63623(11) 0.63623(11) 0.0050(4) 1.00000 Uani Se
Se2 0.13645(11) 0.13645(11) 0.13645(11) 0.0032(4) 1.00000 Uani Se
Ga1 0.00000 0.00000 0.00000 0.0042(6) 1.00006 Uani Ga
loop_
_atom_site_aniso_label
_atom_site_aniso_U_11
_atom_site_aniso_U_22
_atom_site_aniso_U_33
_atom_site_aniso_U_12
_atom_site_aniso_U_13
_atom_site_aniso_U_23
_atom_site_aniso_type_symbol
Mo1 0.0033(2) 0.0033(2) 0.0033(2) 0.0001(2) 0.0001(2) 0.0001(2) Mo
Se1 0.0050(4) 0.0050(4) 0.0050(4) -0.0013(3) -0.0013(3) -0.0013(3) Se
Se2 0.0032(4) 0.0032(4) 0.0032(4) -0.0003(3) -0.0003(3) -0.0003(3) Se
Ga1 0.0042(6) 0.0042(6) 0.0042(6) 0.00000 0.00000 0.00000 Ga
loop_
_atom_type_symbol
_atom_type_scat_length_neutron
_atom_type_scat_source
Mo 0.67150 V.F._Sears_Neutron_News_3_26_(1992)
Se 0.79700 V.F._Sears_Neutron_News_3_26_(1992)
Ga 0.72880 V.F._Sears_Neutron_News_3_26_(1992)
loop_
_geom_angle_atom_site_label_1
_geom_angle_atom_site_label_2
_geom_angle_atom_site_label_3
_geom_angle
_geom_angle_site_symmetry_1
_geom_angle_site_symmetry_3
_geom_angle_publ_flag
Mo1 Mo1 Mo1 60.00000(14 2_566 3_656 ?
Mo1 Mo1 Mo1 60.00000(14 2_566 4_665 ?
Mo1 Mo1 Se1 101.9623(2) 2_566 2_566 ?
Mo1 Mo1 Se1 53.97650(16 2_566 3_656 ?
Mo1 Mo1 Se1 53.97650(16 2_566 4_665 ?
Mo1 Mo1 Se2 142.0709(4) 2_566 28_555 ?
Mo1 Mo1 Se2 142.0709(4) 2_566 51_555 ?
Mo1 Mo1 Se2 100.8799(2) 2_566 74_555 ?
Mo1 Mo1 Mo1 60.00000(14 3_656 4_665 ?
Mo1 Mo1 Se1 53.97650(16 3_656 2_566 ?
Mo1 Mo1 Se1 101.9623(2) 3_656 3_656 ?
Mo1 Mo1 Se1 53.97650(16 3_656 4_665 ?
Mo1 Mo1 Se2 142.0709(4) 3_656 28_555 ?
Mo1 Mo1 Se2 100.8799(2) 3_656 51_555 ?
Mo1 Mo1 Se2 142.0709(4) 3_656 74_555 ?
Mo1 Mo1 Se1 53.97650(16 4_665 2_566 ?
Mo1 Mo1 Se1 53.97650(16 4_665 3_656 ?
Mo1 Mo1 Se1 101.9623(2) 4_665 4_665 ?
Mo1 Mo1 Se2 100.8799(2) 4_665 28_555 ?
Mo1 Mo1 Se2 142.0709(4) 4_665 51_555 ?
Mo1 Mo1 Se2 142.0709(4) 4_665 74_555 ?
Se1 Mo1 Se1 105.3834(3) 2_566 3_656 ?
Se1 Mo1 Se1 105.3834(3) 2_566 4_665 ?
Se1 Mo1 Se2 88.1136(2) 2_566 28_555 ?
Se1 Mo1 Se2 88.1136(2) 2_566 51_555 ?
Se1 Mo1 Se2 157.1578(5) 2_566 74_555 ?
Se1 Mo1 Se1 105.3834(3) 3_656 4_665 ?
Se1 Mo1 Se2 88.1136(2) 3_656 28_555 ?
Se1 Mo1 Se2 157.1578(5) 3_656 51_555 ?
Se1 Mo1 Se2 88.1136(2) 3_656 74_555 ?
Se1 Mo1 Se2 157.1578(5) 4_665 28_555 ?
Se1 Mo1 Se2 88.1136(2) 4_665 51_555 ?
Se1 Mo1 Se2 88.1136(2) 4_665 74_555 ?
Se2 Mo1 Se2 73.74275(19 28_555 51_555 ?
Se2 Mo1 Se2 73.74275(19 28_555 74_555 ?
Se2 Mo1 Se2 73.74275(19 51_555 74_555 ?
Mo1 Se1 Mo1 72.04700(19 2_566 3_656 ?
Mo1 Se1 Mo1 72.04700(19 2_566 4_665 ?
Mo1 Se1 Mo1 72.04700(19 3_656 4_665 ?
Mo1 Se2 Mo1 104.1418(3) 28_555 51_555 ?
Mo1 Se2 Mo1 104.1418(3) 28_555 74_555 ?
Mo1 Se2 Ga1 114.3844(3) 28_555 1_555 ?
Mo1 Se2 Mo1 104.1418(3) 51_555 74_555 ?
Mo1 Se2 Ga1 114.3844(3) 51_555 1_555 ?
Mo1 Se2 Ga1 114.3844(3) 74_555 1_555 ?
Se2 Ga1 Se2 109.4712(2) 1_555 2_555 ?
Se2 Ga1 Se2 109.4712(2) 1_555 3_555 ?
Se2 Ga1 Se2 109.4712(2) 1_555 4_555 ?
Se2 Ga1 Se2 109.4712(2) 2_555 3_555 ?
Se2 Ga1 Se2 109.4712(2) 2_555 4_555 ?
Se2 Ga1 Se2 109.4712(2) 3_555 4_555 ?
loop_
_geom_bond_atom_site_label_1
_geom_bond_atom_site_label_2
_geom_bond_distance
_geom_bond_site_symmetry_2
_geom_bond_publ_flag
Mo1 Mo1 2.899841(4) 2_566 ?
Mo1 Mo1 2.899841(4) 3_656 ?
Mo1 Mo1 2.899841(4) 4_665 ?
Mo1 Se1 2.465360(5) 2_566 ?
Mo1 Se1 2.465360(5) 3_656 ?
Mo1 Se1 2.465360(5) 4_665 ?
Mo1 Se2 2.723997(5) 28_555 ?
Mo1 Se2 2.723997(5) 51_555 ?
Mo1 Se2 2.723997(5) 74_555 ?
Se1 Mo1 2.465360(5) 2_566 ?
Se1 Mo1 2.465360(5) 3_656 ?
Se1 Mo1 2.465361(5) 4_665 ?
Se2 Mo1 2.723997(5) 28_555 ?
Se2 Mo1 2.723997(5) 51_555 ?
Se2 Mo1 2.723997(5) 74_555 ?
Se2 Ga1 2.405496(3) 1_555 ?
Ga1 Se2 2.405496(3) 1_555 ?
Ga1 Se2 2.405496(3) 2_555 ?
Ga1 Se2 2.405496(3) 3_555 ?
Ga1 Se2 2.405496(3) 4_555 ?
