#------------------------------------------------------------------------------
#$Date: 2019-11-22 23:04:39 +0200 (Fri, 22 Nov 2019) $
#$Revision: 231520 $
#$URL: file:///home/coder/svn-repositories/cod/cif/4/00/33/4003327.cif $
#------------------------------------------------------------------------------
#
# This file is available in the Crystallography Open Database (COD),
# http://www.crystallography.net/
#
# All data on this site have been placed in the public domain by the
# contributors.
#
data_4003327
loop_
_publ_author_name
'Yang, Guangsai'
'Gong, Pifu'
'Lin, Zheshuai'
'Ye, Ning'
_publ_section_title
;
 AZn2BO3X2(A = K, Rb, NH4; X = Cl, Br): New Members of KBBF Family
 Exhibiting Large SHG Response and the Enhancement of Layer Interaction by
 Modified Structures
;
_journal_issue                   24
_journal_name_full               'Chemistry of Materials'
_journal_page_first              9122
_journal_paper_doi               10.1021/acs.chemmater.6b04272
_journal_volume                  28
_journal_year                    2016
_chemical_formula_sum            'B Cl2 H4 N O3 Zn2'
_chemical_formula_weight         274.50
_space_group_crystal_system      trigonal
_space_group_IT_number           155
_space_group_name_Hall           'R 3 2"'
_space_group_name_H-M_alt        'R 3 2 :H'
_audit_creation_method           SHELXL-2014/7
_cell_angle_alpha                90
_cell_angle_beta                 90
_cell_angle_gamma                120
_cell_formula_units_Z            3
_cell_length_a                   4.952(6)
_cell_length_b                   4.952(6)
_cell_length_c                   27.05(5)
_cell_measurement_reflns_used    532
_cell_measurement_temperature    293(2)
_cell_measurement_theta_max      27.4934
_cell_measurement_theta_min      4.5218
_cell_volume                     574.5(14)
_computing_structure_refinement  'SHELXL-2014/7 (Sheldrick, 2014)'
_diffrn_ambient_temperature      293(2)
_diffrn_detector_area_resol_mean 14.6306
_diffrn_measured_fraction_theta_full 0.988
_diffrn_measured_fraction_theta_max 0.985
_diffrn_measurement_device
; 
Mercury70 (2x2 bin mode) 
;
_diffrn_measurement_method       CCD_Profile_fitting
_diffrn_radiation_type           MoK\a
_diffrn_radiation_wavelength     0.71073
_diffrn_reflns_av_R_equivalents  0.0651
_diffrn_reflns_av_unetI/netI     0.0567
_diffrn_reflns_Laue_measured_fraction_full 0.988
_diffrn_reflns_Laue_measured_fraction_max 0.985
_diffrn_reflns_limit_h_max       5
_diffrn_reflns_limit_h_min       -6
_diffrn_reflns_limit_k_max       6
_diffrn_reflns_limit_k_min       -6
_diffrn_reflns_limit_l_max       33
_diffrn_reflns_limit_l_min       -34
_diffrn_reflns_number            1147
_diffrn_reflns_point_group_measured_fraction_full 0.992
_diffrn_reflns_point_group_measured_fraction_max 0.990
_diffrn_reflns_theta_full        25.242
_diffrn_reflns_theta_max         27.521
_diffrn_reflns_theta_min         4.522
_diffrn_source                   'fine-focus sealed tube'
_exptl_absorpt_coefficient_mu    6.895
_exptl_absorpt_correction_T_max  1.0000
_exptl_absorpt_correction_T_min  0.4376
_exptl_absorpt_correction_type   multi-scan
_exptl_crystal_colour            White
_exptl_crystal_density_diffrn    2.415
_exptl_crystal_description       Prism
_exptl_crystal_F_000             402
_exptl_crystal_size_max          0.5000
_exptl_crystal_size_mid          0.4000
_exptl_crystal_size_min          0.0500
_refine_diff_density_max         0.824
_refine_diff_density_min         -1.070
_refine_diff_density_rms         0.285
_refine_ls_abs_structure_details
;
 Flack x determined using 84 quotients [(I+)-(I-)]/[(I+)+(I-)]
 (Parsons, Flack and Wagner, Acta Cryst. B69 (2013) 249-259).
;
_refine_ls_abs_structure_Flack   0.14(8)
_refine_ls_extinction_coef       0.020(5)
_refine_ls_extinction_expression Fc^*^=kFc[1+0.001xFc^2^\l^3^/sin(2\q)]^-1/4^
_refine_ls_extinction_method     'SHELXL-2014/7 (Sheldrick 2014'
_refine_ls_goodness_of_fit_ref   1.050
_refine_ls_hydrogen_treatment    undef
_refine_ls_matrix_type           full
_refine_ls_number_parameters     18
_refine_ls_number_reflns         300
_refine_ls_number_restraints     0
_refine_ls_restrained_S_all      1.050
_refine_ls_R_factor_all          0.0460
_refine_ls_R_factor_gt           0.0449
_refine_ls_shift/su_max          0.001
_refine_ls_shift/su_mean         0.000
_refine_ls_structure_factor_coef Fsqd
_refine_ls_weighting_details
'w=1/[\s^2^(Fo^2^)+(0.0587P)^2^] where P=(Fo^2^+2Fc^2^)/3'
_refine_ls_weighting_scheme      calc
_refine_ls_wR_factor_gt          0.1012
_refine_ls_wR_factor_ref         0.1016
_reflns_Friedel_coverage         0.510
_reflns_Friedel_fraction_full    1.000
_reflns_Friedel_fraction_max     1.000
_reflns_number_gt                287
_reflns_number_total             300
_reflns_threshold_expression     'I > 2\s(I)'
_cod_data_source_file            cm6b04272_si_002.cif
_cod_data_source_block           2
_cod_depositor_comments
;
The following automatic conversions were performed:

data item '_exptl_absorpt_correction_type' value 'Multi-scan' was
changed to 'multi-scan' in accordance with the
/home/saulius/struct/COD-crude-data/automatic-downloads/DataCite-retrospective/ACS/depositions/lib/dictionaries/cif_core.dic
dictionary named 'cif_core.dic' version 2.4.2 last updated on
2011-04-26.

Automatic conversion script
Id: cif_fix_values 6909 2019-04-08 15:41:33Z antanas 
;
_cod_original_cell_volume        574.5(17)
_cod_database_code               4003327
_shelx_shelxl_version_number     2014/7
_shelx_space_group_comment
;
The symmetry employed for this shelxl refinement is uniquely defined
by the following loop, which should always be used as a source of
symmetry information in preference to the above space-group names.
They are only intended as comments.
;
_shelx_res_file
;

    2.res created by SHELXL-2014/7


TITL 2 in R32
CELL 0.71073   4.9524   4.9524  27.0456  90.000  90.000 120.000
ZERR    3.00   0.0059   0.0059   0.0452   0.000   0.000   0.000
LATT -3
SYMM -Y, X-Y, Z
SYMM -X+Y, -X, Z
SYMM Y, X, -Z
SYMM X-Y, -Y, -Z
SYMM -X, -X+Y, -Z
SFAC B H N O CL ZN
UNIT 3 12 3 9 6 6

L.S. 300
BOND
BOND $H
FMAP 2
PLAN 50
TWIN -1 0 0 0 -1 0 0 0 1
ACTA
WGHT    0.058700
EXTI    0.019957
BASF   0.44378
FVAR       0.61228
ZN1   6    0.333333    0.666667    0.973495    10.33333    0.01110    0.01110 =
         0.03118    0.00000    0.00000    0.00555
CL1   5    0.333333    0.666667    0.890111    10.33333    0.05984    0.05984 =
         0.03074    0.00000    0.00000    0.02992
N1    3    0.666667    0.333333    0.833333    10.16667    0.03976    0.03976 =
         0.08622    0.00000    0.00000    0.01988
O1    4    0.722916    1.000000    1.000000    10.50000    0.00923    0.01329 =
         0.05055   -0.00701   -0.00350    0.00664
B1    1    1.000000    1.000000    1.000000    10.16667    0.00948    0.00948 =
         0.04738    0.00000    0.00000    0.00474

HKLF 4

REM  2 in R32
REM R1 =  0.0449 for     287 Fo > 4sig(Fo)  and  0.0460 for all     300 data
REM     18 parameters refined using      0 restraints

END

WGHT      0.0587      0.0000

REM Highest difference peak  0.824,  deepest hole -1.070,  1-sigma level  0.285
Q1    1  -0.0388  0.2727  0.8929  11.00000  0.05    0.82
Q2    1   0.3672  0.9722  0.9775  11.00000  0.05    0.75
Q3    1  -0.0537  0.6733  0.8948  11.00000  0.05    0.65
Q4    1   0.8296  1.2162  1.0186  11.00000  0.05    0.61
Q5    1   0.6410  1.0109  1.0291  11.00000  0.05    0.59
Q6    1   1.2639  1.0000  1.0000  10.50000  0.05    0.55
Q7    1   0.5764  0.6870  0.8927  11.00000  0.05    0.53
Q8    1   0.0923  0.6608  0.8878  11.00000  0.05    0.53
Q9    1   0.6022  0.5968  0.8677  11.00000  0.05    0.52
Q10   1   0.6418  0.7960  1.0039  11.00000  0.05    0.39
Q11   1   0.9259  0.5926  0.8333  10.50000  0.05    0.38
Q12   1   0.3333  0.6667  1.0637  10.33333  0.05    0.38
Q13   1   0.9827  0.3333  0.8333  10.50000  0.05    0.37
Q14   1   0.4432  0.9148  1.0080  11.00000  0.05    0.37
Q15   1   0.6667  0.7281  0.8333  10.50000  0.05    0.28
Q16   1   0.5764  0.7809  0.8537  11.00000  0.05    0.27
Q17   1   0.3333  0.6667  1.0060  10.33333  0.05    0.24
Q18   1   1.1046  0.7132  0.8196  11.00000  0.05    0.22
Q19   1   0.7311  0.4673  0.8203  11.00000  0.05    0.21
Q20   1   0.3333  0.6667  0.9365  10.33333  0.05    0.14
Q21   1   0.2111  0.8064  0.9395  11.00000  0.05    0.10
Q22   1   0.6667  0.3333  0.7688  10.33333  0.05    0.08
;
_shelx_res_checksum              18650
_shelx_hkl_file
;
   0   0  -6 5290.59  217.00
   0   0   6 5442.57  199.06
   0   0  -9 7433.52  310.23
   0   0 -12  220.83   44.40
   0   0  12  156.97   29.53
   0   0 -15 4707.03  283.37
   0   0  15 3486.91  159.92
   0   0 -18  185.82   43.04
   0   0  18  225.20   43.32
   0   0 -21 1951.19  135.94
   0   0  21 1896.41  119.16
   0   0 -24  813.01   83.72
   0   0  24  997.41   94.73
   0   0 -27  414.48   72.95
   0   0  27  209.68   54.19
   0   0 -30  135.85   44.10
   0   0 -33  113.57   39.10
  -1   1 -32  164.02   93.46
   0  -1 -32  135.97   42.32
   1   0 -32  170.50   46.19
  -1   1 -29   75.60   95.48
   0  -1 -29   48.38   29.10
   1   0 -29   49.32   27.94
   0   1  29   65.24   73.07
  -1   1 -26 1048.69  146.48
   0  -1 -26  972.50  104.85
   1   0 -26  968.55   95.48
   0   1  26  924.11  117.67
  -1   0  26 1080.82  116.68
  -1   1 -23 1219.88  163.82
   0  -1 -23 1188.37  101.87
   1   0 -23 1407.90  112.42
   0   1  23 1475.08  102.75
  -1   0  23 1559.30  117.08
  -1   1 -20  122.01   42.51
   0  -1 -20  126.48   38.74
   1   0 -20  107.00   33.89
   0   1  20  161.65   54.42
   1  -1  20  231.72   42.02
  -1   0  20  102.85   46.05
  -1   1 -17  248.87   41.97
   0  -1 -17  213.04   45.16
   1   0 -17  213.07   38.80
   0   1  17  343.24   77.06
   1  -1  17  342.94   39.53
  -1   0  17  192.73   35.73
  -1   1 -14   76.06   35.95
   1   0 -14   72.87   27.62
   0   1  14   77.81   33.50
   1  -1  14  104.29   27.18
  -1   0  14   74.41   32.28
  -1   1 -11 3420.03  146.41
   0  -1 -11 3438.44  186.72
   1   0 -11 3494.17  141.25
   1  -1  11 3616.63  133.21
  -1   0  11 3676.82  154.75
  -1   1  -8 1408.48   69.29
   0  -1  -8 1480.84   80.54
   1   0  -8 1340.54   58.34
  -1   0   8 1362.51   66.45
   1  -1   8 1432.78   53.13
  -1   1  -5 1509.11   68.33
   0  -1  -5 1423.76   65.88
  -1   0   5 1417.66   64.87
  -1   1  -5 1479.63   54.61
  -1   0  -1  330.34   28.85
   0  -1   1  357.97   29.58
   1  -1  -1  317.06   28.90
  -1   1   1  331.82   33.13
  -1   0  -1  339.61   31.04
  -1   0  -4 3102.50  125.89
   1  -1  -4 3240.14  123.96
  -1   1   4 3070.15  127.09
  -1   0  -4 3067.93  117.13
   0   1  -7  135.56   27.74
  -1   0  -7  121.22   29.79
   1  -1  -7  136.48   26.61
  -1   1   7  135.85   33.19
   0  -1   7  131.86   23.07
   0   1 -10 4323.37  165.98
  -1   0 -10 4160.29  196.45
   1  -1 -10 4620.27  183.64
  -1   1  10 4553.42  232.97
   0   1 -13 4844.92  205.63
  -1   0 -13 4339.48  234.30
   1  -1 -13 4827.16  198.61
   0  -1  13 4827.01  174.33
   0   1 -16  683.06   89.51
  -1   0 -16  634.83  132.42
   1  -1 -16  655.06   72.02
  -1   1  16  974.81   99.67
   0  -1  16  652.51   62.30
   0   1 -19  498.57  126.46
  -1   0 -19  690.05  106.47
   1  -1 -19  315.93   52.42
   1   0  19  514.76   97.29
  -1   1  19  588.31   81.72
   0  -1  19  332.54   41.11
   1  -1 -22  167.01   43.56
   1   0  22  303.09  100.44
  -1   1  22  399.95  103.16
   0  -1  22  174.65   34.42
   1  -1 -25  323.55   62.05
   1   0  25  428.64   80.62
  -1   1  25  514.16   75.58
  -1   0 -28  220.51   49.26
   0   1 -28  293.71   59.10
   1  -1 -28  258.59   53.92
  -1   1  28  244.86   46.12
   0   1 -31  109.88   38.30
   1  -1 -31   58.18   28.94
  -1   1  31   42.86   47.36
  -1   0 -34  296.68   64.38
   0   1 -34  340.45   67.16
   1  -1 -34  253.92   57.50
  -1   2 -33   84.40  120.46
  -1  -1 -33   54.04   28.79
   2  -1 -33   42.73   25.37
  -1   2 -30   29.37   43.02
  -1  -1 -30   18.56   18.70
   2  -1 -30   18.52   17.18
   1   1  30   15.83   20.29
  -2   1  30   18.23   26.44
  -1   2 -27   49.92   73.75
  -1  -1 -27   48.26   29.97
   2  -1 -27   31.28   19.01
   1   1  27   62.00   46.37
  -2   1  27   56.16   30.65
  -1   2 -24 1051.12  143.99
  -1  -1 -24 1331.70  128.47
   2  -1 -24  766.67   78.59
   1   1  24 1051.40  123.04
  -2   1  24 1182.73  120.13
  -1   2 -21 1899.91  121.33
  -1  -1 -21 2382.92  156.28
   2  -1 -21 2220.81  134.66
   1   1  21 2274.55  135.93
  -2   1  21 2150.66  167.10
  -1   2 -18  891.54   81.74
  -1  -1 -18  947.09   88.40
   2  -1 -18  966.46   73.46
  -2   1  18  679.30   68.39
  -1   2 -15 4241.28  182.93
  -1  -1 -15 4157.56  225.56
   2  -1 -15 4137.85  175.54
  -2   1  15 3903.98  209.33
  -1  -1 -12 1567.34  122.36
   2  -1 -12 1713.99   86.96
  -2   1  12 1939.65  127.47
  -1   2  -9  794.78   55.27
  -1  -1  -9  674.50   65.55
   2  -1  -9  768.31   45.88
  -2   1   9  917.14   88.40
  -1   2  -6 1044.21   59.79
  -1  -1  -6  956.30   67.44
   2  -1  -6 1005.41   52.96
  -1   2  -6 1000.00   48.45
  -2   1   6  929.55   54.99
  -1  -1  -3 2328.80  103.83
   2  -1  -3 2462.17  104.23
   1  -2   3 2356.31  101.62
  -1   2  -3 2287.51  125.11
  -2   1   3 2473.37  110.78
  -1  -1  -3 2261.10  106.62
  -1   2   0 6728.09  287.22
  -2   1  -3 1969.41   85.92
   1  -2  -3 2029.50   90.61
  -1   2   3 1836.06  121.00
  -2   1  -3 1857.62   80.00
  -1  -1   3 2004.72   90.64
  -2   1  -6  949.06   63.46
   1  -2  -6  950.17   56.72
  -1   2   6 1041.56   87.11
  -2   1  -6  979.42   51.70
  -1  -1   6 1021.68   57.41
  -2   1  -9  847.72   65.87
   1   1  -9  764.96   35.50
   1  -2  -9  715.62   43.91
  -1   2   9  804.86   78.12
  -1  -1   9  773.40   47.11
  -2   1  -9  747.22   42.92
  -2   1 -12 1622.93  119.82
   1   1 -12 1423.11   73.46
   1  -2 -12 1709.02   98.40
  -1   2  12 1616.49  127.88
  -1  -1  12 1603.34   79.47
  -2   1 -15 3972.80  185.82
   1   1 -15 3868.40  172.13
   1  -2 -15 4067.44  189.72
  -1   2  15 4237.03  205.60
  -1  -1  15 3957.20  163.65
  -2   1 -18  851.04   79.84
   1   1 -18 1040.55   77.04
   1  -2 -18  929.01   83.05
  -1   2  18  959.36   92.07
  -1  -1  18 1034.97   78.19
  -2   1 -21 2269.32  206.64
   1   1 -21 2611.21  145.60
   1  -2 -21 1987.79  148.34
   2  -1  21 2224.30  109.51
  -1   2  21 2338.83  181.03
  -1  -1  21 2258.54  157.67
  -2   1 -24 1153.10  136.70
   1   1 -24 1114.58   85.88
   1  -2 -24  802.37   95.31
  -1   2  24 1364.45  124.55
  -2   1 -27   54.15   64.50
   1  -2 -27   61.98   31.46
  -1   2  27   78.32   99.04
  -2   1 -30   26.93   26.22
   1  -2 -30   18.66   19.88
  -1   2  30   21.42   20.73
  -2   1 -33   75.07   68.19
   1  -2 -33   57.87   29.83
  -1   2  33   78.98  101.38
  -2   2 -31   62.09   83.04
   0  -2 -31   76.35   33.45
   0   2  31   70.00   67.24
  -2   2 -28  202.16   75.09
   0  -2 -28  215.03   55.00
   0   2  28  242.57   55.06
  -2   0  28  227.98   55.14
  -2   2 -25  340.35   64.12
   0  -2 -25  313.99   67.05
   2   0 -25  192.86   31.26
   0   2  25  398.13   69.67
  -2   0  25  247.84   50.62
  -2   2 -22   93.94   48.27
   0  -2 -22   57.39   33.96
   2   0 -22   82.43   28.65
   0   2  22  123.71   63.02
  -2   0  22   54.94   85.19
  -2   2 -19  213.59   41.65
   0  -2 -19  133.75   40.20
   2   0 -19  212.42   34.60
   0   2  19  197.91   58.14
  -2   0  19  147.95   34.99
  -2   2 -16  398.13   57.71
   0  -2 -16  429.05   65.50
   2   0 -16  372.91   39.06
   0   2  16  795.79  113.43
  -2   0  16  343.78   53.42
  -2   2 -13 2910.39  138.97
   0  -2 -13 3030.82  157.07
   2   0 -13 2906.16  117.51
  -2   0  13 2897.28  144.80
  -2   2 -10 2252.22  111.65
   0  -2 -10 2157.39  112.12
   2   0 -10 2297.14   91.31
  -2   0  10 2236.91  116.20
  -2   2 -10 2180.17   82.38
  -2   2  -7   63.85   25.20
   0  -2  -7   64.15   25.54
   2   0  -7   73.91   22.84
  -2   2  -7   76.40   25.69
  -2   0   7   93.08   35.11
  -2   2  -4  724.55   49.62
  -2   0   4  767.84   42.29
   0  -2  -4  709.39   38.19
  -2   2  -4  772.51   46.41
  -2   0   4  716.98   43.15
  -2   0   1  601.10   51.58
   0  -2  -1  652.03   55.28
   2  -2   1  652.06   59.31
  -2   2  -1  695.68   46.18
  -2   0   1  630.76   58.29
  -2   0  -2 4064.87  155.55
   0  -2   2 3986.90  148.57
   2  -2  -2 3837.94  154.30
  -2   2   2 4036.31  162.30
  -2   0  -2 4187.68  170.11
   0   2  -5 2119.93   83.78
  -2   0  -5 2176.00  104.27
   2  -2  -5 2229.96  104.55
  -2   0  -5 2171.95  102.34
   0   2  -8 1897.18   77.75
  -2   0  -8 1794.51   98.65
   2  -2  -8 1836.94   91.19
  -2   2   8 1929.12  226.21
  -2   0  -8 1849.59   91.06
   0   2 -11 3223.33  129.13
  -2   0 -11 3511.46  167.41
   2  -2 -11 3097.47  143.01
  -2   2  11 2967.77  209.31
   0  -2  11 3503.61  142.44
   0   2 -14    0.57   21.25
  -2   2  14   81.15   39.27
   0  -2  14    2.74   21.33
   0   2 -17   83.05   35.85
  -2   0 -17   73.40   40.00
   2  -2 -17   87.72   30.01
  -2   2  17  110.62   52.20
   0  -2  17   76.17   24.35
   0   2 -20   87.22  101.39
  -2   0 -20   69.52   79.33
   2  -2 -20   66.08   30.20
  -2   2  20   80.50   32.30
   0   2 -23 1141.83  157.24
  -2   0 -23 1155.87  146.96
   2  -2 -23  885.08   90.84
  -2   2  23 1027.53  109.65
   0   2 -26 1051.58  211.48
   2  -2 -26  408.59   66.99
   2   0  26  837.20  104.47
  -2   2  26  378.70   65.67
  -2   0 -29   38.88   49.61
   2  -2 -29   20.76   18.12
  -2   2  29   24.92   49.18
  -2   0 -32   82.25   37.85
   2  -2 -32   57.56   30.75
  -2   2  32   73.55   47.00
  -1   3 -28  179.08   54.08
  -2  -1 -28  224.98   62.85
   3  -2 -28  126.84   33.97
   2   1  28  318.29   82.24
  -3   2  28  242.38  131.36
  -1   3 -25  267.41   57.00
  -2  -1 -25  230.82   51.15
   3  -2 -25  248.14   46.31
  -3   2  25  335.55  138.02
  -1   3 -22   68.11   75.63
  -2  -1 -22   54.19   33.87
   3  -2 -22   65.18   37.79
  -3   2  22   64.19   37.26
  -1   3 -19  199.76   48.30
  -2  -1 -19  200.27   50.16
   3  -2 -19  197.71   39.33
  -3   2  19  129.66   43.40
  -1   3 -16  390.10   61.26
  -2  -1 -16  370.69   91.31
   3  -2 -16  376.95   47.29
  -3   2  16  294.95   56.38
  -1   3 -13 2124.15  106.99
  -2  -1 -13 2227.58  188.69
   3  -2 -13 2180.49  112.94
  -3   2  13 2290.16  180.13
  -1   3 -10 1814.83   92.89
  -2  -1 -10 1621.98  150.59
   3  -2 -10 1773.22   94.64
  -1   3 -10 1891.71   94.37
  -3   2  10 1864.74  133.95
  -1   3  -7  182.20   32.48
  -2  -1  -7  132.66   57.67
   3  -2  -7  174.12   31.71
  -3   2   7  147.31   44.29
  -2  -1  -7  201.87   37.95
   3  -2  -4  588.57   60.30
   1  -3   4  573.57   56.50
  -1   3  -4  463.18   73.50
  -3   2   4  583.64   62.44
  -2  -1  -4  521.62   57.01
  -3   2   1  463.52   47.95
  -2  -1  -1  507.85   52.02
   1  -3   1  425.87   44.73
  -1   3  -1  409.11   72.96
  -3   2   1  478.30   57.29
  -2  -1  -1  424.98   49.47
  -3   2  -2 2592.37  120.40
  -2  -1   2 2745.69  101.83
   1  -3  -2 2833.38  129.57
  -1   3   2 3043.55  201.18
  -2  -1   2 2862.31  139.07
  -3   2  -5 1484.35   80.46
   1  -3  -5 1512.67   82.96
  -1   3   5 1572.83  126.06
  -3   2  -5 1499.82   74.85
  -2  -1   5 1567.67   90.30
  -3   2  -8 1372.85   87.03
   1  -3  -8 1517.36   88.48
  -1   3   8 1363.64  134.58
  -3   2  -8 1478.73   73.31
  -2  -1   8 1526.99   91.00
  -3   2 -11 1835.03  103.33
   1  -3 -11 1854.69  105.42
  -1   3  11 1898.44  138.66
  -2  -1  11 1928.19  107.38
  -3   2 -11 1992.10   91.88
  -3   2 -14   29.10   27.89
   1  -3 -14   61.53   28.57
  -1   3  14  147.90   45.75
  -3   2 -14   27.15   22.36
  -3   2 -17   91.15   32.00
   1  -3 -17   96.31   34.04
  -1   3  17  121.59   39.36
  -2  -1  17   87.25   30.06
  -3   2 -20   99.95   44.43
   1  -3 -20  103.88   39.70
  -1   3  20  116.15   39.46
  -2  -1  20   81.76   31.08
  -3   2 -23  733.64   98.23
   1  -3 -23  706.30   97.25
  -1   3  23  820.79  109.53
  -2  -1  23  501.97   62.75
  -3   2 -26  410.31   94.45
   1  -3 -26  347.49   69.93
  -1   3  26  515.87   73.98
  -3   2 -29   37.78   51.90
   1  -3 -29   23.89   22.43
  -1   3  29   67.52   83.20
  -2   3 -29   48.63   64.71
  -1  -2 -29   34.61   26.93
   1   2  29   44.53   57.98
  -3   1  29   41.77   31.22
  -2   3 -26  463.55   75.68
  -1  -2 -26  415.47   69.21
   1   2  26  498.20  159.30
  -3   1  26  453.12   85.33
  -2   3 -23  752.52  102.70
  -1  -2 -23  597.55   83.83
   3  -1 -23  688.85   63.68
   1   2  23  824.27  100.42
  -3   1  23  457.66   92.66
  -2   3 -20  108.43   43.02
  -1  -2 -20   67.03   34.12
   3  -1 -20  101.03   29.30
  -3   1  20   56.80   30.53
  -2   3 -17  114.35   33.58
  -1  -2 -17   62.71   31.46
   3  -1 -17   87.57   27.02
  -3   1  17   80.62   63.10
  -2   3 -14   23.30   33.93
  -1  -2 -14   29.29   31.98
   3  -1 -14   66.59   26.81
  -3   1  14   21.61   35.43
  -2   3 -11 1961.54  108.48
  -1  -2 -11 1968.10  118.20
   3  -1 -11 1881.73   90.12
  -3   1  11 1771.79  104.84
  -2   3  -8 1640.63  101.22
  -1  -2  -8 1891.79  110.23
   3  -1  -8 1763.36   88.56
  -2   3  -8 1706.37   72.25
  -3   1   8 1566.55   97.08
  -3   1   5 1749.25   82.07
  -2   3  -5 1721.54   90.31
  -1  -2  -5 1662.04   86.83
  -2   3  -5 1479.31   68.49
  -3   1   5 1713.97  113.46
  -3   1   2 2811.58  122.61
  -1  -2  -2 2920.98  122.18
   2  -3   2 3030.24  140.79
  -2   3  -2 3027.80  133.94
  -3   1   2 2763.11  130.94
  -3   1  -1  437.85   64.16
  -1  -2   1  420.12   37.05
   2  -3  -1  427.14   47.26
  -3   1  -1  451.45   49.77
  -3   1  -4  506.68   53.12
   2  -3  -4  518.45   54.93
  -1  -2   4  560.43   43.50
  -2   3   4  519.34   69.06
  -3   1  -4  540.29   55.88
  -1  -2   4  645.28   65.16
  -3   1  -7  169.15   47.25
   1   2  -7  184.42   25.17
   2  -3  -7  146.94   31.46
  -2   3   7  138.10  154.18
  -3   1  -7  162.34   31.14
  -1  -2   7  208.41   34.30
  -3   1 -10 1835.22  125.90
   1   2 -10 1796.53   76.76
   2  -3 -10 1695.94   96.86
  -2   3  10 1524.39  131.41
  -3   1 -10 1795.43   93.66
  -1  -2  10 1768.17   96.60
  -3   1 -13 2251.68  138.83
   2  -3 -13 2154.40  120.28
  -2   3  13 2604.15  214.11
  -1  -2  13 2327.58  119.79
  -3   1 -13 2273.39  112.95
  -3   1 -16  369.27   63.83
   2  -3 -16  385.87   53.53
  -2   3  16  660.46  102.18
  -1  -2  16  343.49   42.19
  -3   1 -19  187.54   77.62
   2  -3 -19  193.09   42.33
  -2   3  19  391.24  106.87
  -1  -2  19  137.13   30.92
  -3   1 -22   61.44   36.57
   2  -3 -22   55.22   22.81
  -2   3  22   89.38   42.56
  -3   1 -25  273.71  151.34
   2  -3 -25  218.20   49.56
  -2   3  25  365.05  176.53
  -3   1 -28  187.57   87.15
   2  -3 -28  107.22   36.13
  -2   3  28  314.40  174.27
  -3   3 -27   42.74   52.62
   0  -3 -27   32.83   22.70
   0   3  27   52.09   45.39
  -3   0  27   37.13   30.03
  -3   3 -24  310.66   62.67
   0  -3 -24  224.57   52.57
   0   3  24  376.71   82.78
  -3   0  24  286.92   61.71
  -3   3 -21  865.78   98.47
   0  -3 -21  761.16   94.80
   0   3  21  945.60  130.44
  -3   0  21  860.33  102.09
  -3   3 -18  329.57   54.36
   0  -3 -18  318.72   57.17
   0   3  18  544.71  103.01
  -3   0  18  323.44   78.79
  -3   3 -15 1279.48  111.10
   0  -3 -15 1452.95  110.46
   0   3  15 1451.74  119.70
  -3   0  15 1308.67   96.65
  -3   3 -12  216.22   37.15
   0  -3 -12  247.79   44.12
  -3   0  12  217.94   38.20
  -3   0   9  926.99   47.80
  -3   3  -9  858.01   75.25
   0  -3  -9  844.66   65.12
  -3   3  -9  840.26   46.61
  -3   0   9  815.71   65.78
  -3   3  -6 1596.29  106.14
  -3   0   6 1433.89   66.77
   0  -3  -6 1522.22   87.37
  -3   3  -6 1444.45   78.66
  -3   0   6 1391.19   87.39
  -3   3  -3 3436.50  152.92
  -3   0   3 3410.25  134.65
   0  -3  -3 3314.37  144.75
  -3   3  -3 3039.18  128.93
  -3   0   3 3276.61  157.74
   0  -3   0 9999.99  153.39
   3  -3   0 9753.13  367.84
  -3   0   0 9903.76  200.94
  -3   0  -3 3109.45  146.01
   0  -3   3 3128.03  128.66
   3  -3  -3 3273.86  152.54
  -3   3   3 3171.03  146.03
  -3   0  -3 3050.70  146.31
   0   3  -6 1340.14   61.78
  -3   0  -6 1367.03   95.34
   3  -3  -6 1381.76   83.56
  -3   3   6 1464.13   92.48
  -3   0  -6 1390.76   86.52
   0   3  -9  776.37   50.69
  -3   0  -9  704.49   70.29
   3  -3  -9  810.59   62.71
  -3   3   9  805.88   76.89
  -3   0  -9  744.79   60.07
   0   3 -12  221.87   37.12
  -3   0 -12  214.50   64.67
   3  -3 -12  215.03   38.34
  -3   3  12  186.66   56.94
  -3   0 -12  229.79   40.32
   0   3 -15 1404.33   87.51
  -3   0 -15 1238.46  180.60
   3  -3 -15 1185.24   84.38
  -3   3  15  945.48   98.25
  -3   0 -18  368.11   74.74
   3  -3 -18  305.36   49.66
  -3   3  18  283.75   86.54
  -3   0 -21 1071.89  228.72
   3  -3 -21  885.53   89.66
  -3   3  21  949.28  107.82
  -3   0 -24  467.27  108.14
   3  -3 -24  319.95   55.94
  -3   3  24  349.76  113.93
  -3   0 -27   97.68  106.65
   3  -3 -27   43.92   25.11
  -3   3  27   42.91   32.70
  -3  -1 -26  347.57   65.50
   4  -3 -26  332.66   53.85
  -4   3  26  447.48   98.43
  -3  -1 -23  491.07   74.69
   4  -3 -23  598.62   74.76
  -4   3  23  607.19   96.54
  -3  -1 -20  331.55   64.76
   4  -3 -20  165.83   38.34
  -4   3  20   90.88   48.46
  -1   4 -17   91.51   24.16
  -3  -1 -17   95.16   43.87
   4  -3 -17   91.50   25.14
  -4   3  17   69.99   28.23
  -1   4 -14    7.94   22.53
  -3  -1 -14    3.55   25.57
  -4   3  14   19.34   77.65
  -1   4 -11  656.76   89.22
  -3  -1 -11  639.21  108.71
  -4   3  11  651.05  114.12
  -1   4  -8  595.11   75.06
  -3  -1  -8  589.27   93.81
   4  -3  -8  703.27   58.18
  -1   4  -8  800.94   85.47
  -4   3   8  628.93   72.61
  -3  -1  -8  793.32   77.47
  -1   4  -5  870.28   60.15
  -3  -1  -5  657.33  108.43
   4  -3  -5  758.41   65.99
  -1   4  -5  678.52   89.75
  -4   3   5  833.15   94.54
  -3  -1  -5  724.62   62.86
  -4   3   2  931.36   64.62
  -3  -1  -2 1071.13   79.26
   1  -4   2  974.99   66.55
  -1   4  -2  886.36  111.67
  -4   3   2 1053.21   85.37
  -3  -1  -2  987.97   79.89
  -4   3  -1   79.97   36.25
   1  -4  -1   74.37   28.07
  -1   4   1  122.89   54.63
  -4   3  -1   83.21   39.58
  -3  -1   1  223.87   42.13
  -4   3  -4  401.98   60.75
   1  -4  -4  418.02   52.99
  -1   4   4  518.90  100.54
  -4   3  -4  477.27   69.51
  -4   3  -7  317.10   58.43
   1  -4  -7  287.37   41.76
  -1   4   7  419.88   81.98
  -4   3  -7  290.08   37.05
  -3  -1   7  281.21   44.24
  -4   3 -10 1319.02   99.46
   1  -4 -10 1463.64  100.53
  -4   3 -10 1503.54   83.75
  -3  -1  10 1400.11  103.97
  -4   3 -13 1502.42  129.70
   1  -4 -13 1619.89  111.92
  -1   4  13 1765.86  224.65
  -3  -1  13 1589.17  114.52
  -4   3 -16  426.60   67.36
   1  -4 -16  437.04   62.18
  -1   4  16  685.79  145.12
  -3  -1  16  395.14   57.11
  -4   3 -19  191.17   42.88
   1  -4 -19  202.23   43.30
  -1   4  19  273.37   64.21
  -3  -1  19  171.83   38.82
  -4   3 -22   56.15   60.30
   1  -4 -22   39.71   25.00
  -1   4  22   60.41   75.91
  -3  -1  22   28.57   18.87
  -4   3 -25  109.19   76.64
   1  -4 -25   80.09   34.05
  -1   4  25  118.56  146.63
  -2   4 -27    4.35   13.18
  -2  -2 -27   10.05   18.82
   2   2  27    6.06   13.22
  -4   2  27    7.46    9.17
  -2   4 -24  430.55   67.90
  -2  -2 -24  466.68   78.07
  -4   2  24  384.19   76.78
  -2   4 -21 1018.08  109.74
  -2  -2 -21  947.92  109.98
   4  -2 -21  948.63   79.93
  -4   2  21  857.96  106.38
  -2   4 -18  598.90   75.55
  -2  -2 -18  380.22   59.94
   4  -2 -18  536.93   52.51
  -4   2  18  622.79   85.95
  -2   4 -15 1573.83  112.78
  -2  -2 -15 1137.63  103.03
  -4   2  15 1647.76  152.71
  -2   4 -12  602.40   83.29
  -2  -2 -12  578.12   76.59
   4  -2 -12  529.29   56.71
  -4   2  12  549.21   81.67
  -2   4  -9  188.92   38.56
  -2  -2  -9  185.66   39.13
   4  -2  -9  181.17   34.79
  -4   2   9  167.63   39.26
  -2   4  -6  513.32   55.86
  -2  -2  -6  563.44   61.90
  -2   4  -6  749.73   87.62
  -4   2   6  506.46   92.58
  -4   2   3 1467.77   98.73
  -2  -2  -3 1599.21   84.46
   2  -4   3 1514.43   94.01
  -2   4  -3 1510.97  113.62
  -4   2   3 1595.47  117.13
  -4   2   0 5230.12  218.81
  -2  -2   0 4893.13  180.27
   2  -4   0 4808.86  206.10
  -2   4   0 4475.43  234.27
  -4   2   0 5053.78  219.42
  -2  -2   0 4786.10  220.22
  -4   2  -3 1438.33   90.97
   2  -4  -3 1338.31   84.82
  -4   2  -3 1407.87   88.23
  -2  -2   3 1264.39   86.30
  -4   2  -6  460.13   60.05
   2  -4  -6  465.48   56.05
  -2   4   6  298.91   51.67
  -4   2  -6  455.45   51.34
  -2  -2   6  424.13   53.58
  -4   2  -9  159.49   38.27
   2  -4  -9  146.39   33.61
  -2   4   9  136.81   38.70
  -4   2  -9  159.50   32.40
  -2  -2   9  150.80   34.35
  -4   2 -12  567.47   69.01
   2  -4 -12  487.70   58.95
  -2   4  12  527.55   73.06
  -2  -2  12  532.14   64.09
  -4   2 -12  566.19   60.47
  -4   2 -15 1610.57  126.62
   2  -4 -15 1534.17  107.59
  -2   4  15 1587.36  180.86
  -2  -2  15 1561.95  108.07
  -4   2 -15 1521.90   87.36
  -4   2 -18  610.36   83.21
   2  -4 -18  614.38   74.26
  -2   4  18  679.76   87.79
  -2  -2  18  511.03   58.82
  -4   2 -21 1050.43  112.47
   2  -4 -21 1096.59  115.75
  -2   4  21 1371.42  151.27
  -4   2 -24  401.66   78.01
   2  -4 -24  414.90   70.55
  -2   4  24  685.95  210.16
  -4   2 -27    2.39   20.83
   2  -4 -27    4.26   13.06
  -2   4  27   11.34   23.64
  -3   4 -25  119.55   35.99
  -1  -3 -25   43.72   23.77
   1   3  25  177.87  212.37
  -4   1  25   58.31   74.69
  -3   4 -22   57.55   61.66
  -1  -3 -22   25.32   19.17
   1   3  22   50.08   30.67
  -4   1  22   20.43   31.10
  -3   4 -19  207.22   39.97
  -1  -3 -19  169.77   42.48
  -4   1  19  154.60   77.05
  -3   4 -16  425.65   73.07
  -1  -3 -16  513.69   74.06
  -4   1  16  432.29   91.54
  -3   4 -13 1619.84  105.81
  -1  -3 -13 1857.46  127.07
  -4   1  13 1741.37  158.95
  -4   1  10 1444.40   87.48
  -3   4 -10 1474.84  120.25
  -1  -3 -10 1619.75  109.03
  -4   1  10 1753.25  150.22
  -3   4  -7  322.07   52.43
  -4   1   7  325.98   53.35
  -1  -3  -7  340.90   45.63
  -3   4  -7  304.38   41.87
  -4   1   7  269.21   43.73
  -3   4  -4  402.78   51.12
  -4   1   4  381.05   52.87
  -1  -3  -4  433.38   49.47
  -3   4  -4  327.34   50.66
  -4   1   1   75.08   38.00
  -1  -3  -1   81.09   25.65
   3  -4   1   74.93   30.64
  -3   4  -1   94.90   47.76
  -4   1   1   84.47   30.80
  -4   1  -2  960.16   64.78
  -1  -3   2  956.41   51.21
   3  -4  -2 1018.87   77.70
  -3   4   2  980.09   72.09
  -4   1  -2  977.11   75.68
  -4   1  -5  694.08   65.25
   3  -4  -5  654.92   71.06
  -3   4   5 1005.43   98.29
  -4   1  -5  681.86   56.71
  -4   1  -8  676.88   73.93
   3  -4  -8  593.44   66.24
  -3   4   8  814.06  114.72
  -4   1 -11  968.50  100.14
   3  -4 -11  789.22   73.10
  -3   4  11  605.63   96.19
  -4   1 -11  781.83   67.42
  -4   1 -14    5.61   37.47
  -3   4  14   11.80   61.76
  -4   1 -14    9.68   23.31
  -1  -3  14   16.20   26.23
  -4   1 -17  119.19   32.23
   3  -4 -17   90.86   25.92
  -3   4  17  146.52  168.70
  -4   1 -20  149.81   58.67
   3  -4 -20  142.19   35.90
  -3   4  20  209.32   52.70
  -4   1 -23  566.40  112.55
   3  -4 -23  599.59   82.29
  -3   4  23  576.64  108.12
  -4   1 -26  339.71  119.20
   3  -4 -26  376.38   68.67
  -3   4  26  388.72   61.73
  -4   4 -23  560.03  100.99
   0  -4 -23  506.50   82.47
   0   4  23  614.83  202.08
  -4   0  23  334.43   64.99
  -4   4 -20  188.09   47.43
   0  -4 -20  197.64   46.06
   0   4  20  236.25   74.72
  -4   0  20  142.36   39.45
  -4   4 -17  144.64   85.09
   0  -4 -17  124.82   34.71
   0   4  17  251.74  101.01
  -4   0  17  111.74   33.49
  -4   4 -14   22.84   25.21
   0  -4 -14   30.32   19.72
   0   4  14   19.30   23.34
  -4   4 -11  445.63   74.29
   0  -4 -11  504.45   67.84
  -4   0  11  619.95   78.73
  -4   4  -8  421.58   64.25
   0  -4  -8  447.06   58.19
  -4   0   8  425.01   61.56
  -4   4  -5  423.39   78.98
   0  -4  -5  404.03   49.70
  -4   4  -5  374.06   49.78
  -4   0   5  452.54   63.48
  -4   4  -2  537.72   63.20
   0  -4  -2  575.25   60.91
  -4   4  -2  611.30   76.50
  -4   0   2  556.57   70.52
  -4   4   1    9.87   23.87
   0  -4   1   12.59   22.35
  -4   4   1   12.00   25.33
  -4   0  -1   20.30   27.69
  -4   0  -4  345.38   59.35
   4  -4  -4  436.15   59.41
   0  -4   4  432.87   46.97
  -4   4   4  473.09   69.63
  -4   0  -4  411.77   57.79
  -4   0  -7  306.20   58.99
   4  -4  -7  415.02   56.43
  -4   4   7  451.45   66.22
  -4   0  -7  392.47   55.83
  -4   0 -10 1250.15  125.86
   4  -4 -10 1497.43  101.76
  -4   4  10 1276.75  193.05
  -4   0 -10 1366.54  101.31
  -4   0 -13 1309.24  175.56
   4  -4 -13 1402.68  112.07
  -4   4  13 1097.03  135.06
  -4   0 -13 1529.39  120.21
  -4   0 -16  404.26  103.16
   4  -4 -16  455.80   59.37
  -4   4  16  232.33   80.84
  -4   0 -19  238.43  152.51
   4  -4 -19  236.73   50.04
  -4   4  19  167.38  140.17
  -4   0 -22   89.76   98.65
   4  -4 -22   64.29   29.45
  -4   4  22   65.65   73.52
  -4  -1 -18  405.28   72.84
   5  -4 -18  351.67   55.22
  -5   4  18  265.09   55.00
  -4  -1 -15  641.51  106.43
   5  -4 -15  657.28   74.13
  -5   4  15  617.73   91.45
  -4  -1 -12  163.98   84.27
   5  -4 -12  216.13   43.22
  -5   4  12  213.27   55.01
   5  -4  -9   92.02   26.18
  -5   4   9  109.53   78.28
  -4  -1  -9   95.35   31.85
  -5   4   6   70.86   27.49
  -5   4   3 1002.03   82.48
   1  -5   3 1056.93   82.57
  -1   5  -3 1006.80  153.83
  -5   4   3 1024.45   87.89
  -4  -1  -3  967.50   95.17
  -5   4   0 2408.27  161.60
   1  -5   0 2511.81  153.67
  -1   5   0 2390.42  256.17
  -5   4   0 2633.01  174.77
  -4  -1   0 2474.83  174.86
  -5   4  -3 1078.87  105.59
   1  -5  -3 1045.21   85.65
  -1   5   3 1025.13  136.29
  -5   4  -3 1143.81  107.90
  -4  -1   3 1048.53  100.87
  -5   4  -6  395.65   78.15
   1  -5  -6  422.83   54.97
  -1   5   6  423.03   95.48
  -5   4  -6  375.52   42.87
  -4  -1   6  423.16   63.53
  -5   4  -9  106.37   80.87
   1  -5  -9   95.27   26.85
  -1   5   9   97.97   72.44
  -4  -1   9   89.91   27.17
  -5   4 -12  197.03   69.55
   1  -5 -12  196.19   38.51
  -1   5  12  222.47   60.91
  -4  -1  12  186.65   41.71
  -5   4 -15  721.40   92.52
   1  -5 -15  721.32   85.24
  -1   5  15  988.98  162.12
  -4  -1  15  689.88   86.39
  -5   4 -18  403.85   79.74
   1  -5 -18  425.13   68.13
  -1   5  18  570.93  149.66
  -4  -1  18  400.99   70.19
  -3  -2 -19   50.23   26.31
   5  -3 -19   70.90   23.05
  -5   3  19   54.83   82.79
  -3  -2 -16  117.43   34.78
   5  -3 -16  218.68   39.99
  -5   3  16  205.40  121.05
  -2   5 -13  626.08   77.62
  -3  -2 -13  690.14   83.38
   5  -3 -13  780.19   75.21
  -5   3  13  690.33  127.12
  -2   5 -10  582.57   63.19
  -5   3  10  645.44  106.18
  -5   3   7  145.07   28.00
  -2   5  -7  106.24   28.90
  -5   3   7  136.03   61.79
  -2   5  -4  105.53   24.40
  -5   3   4  100.09   51.76
  -2   5  -4  103.12   35.92
  -5   3   4  118.48   80.68
  -5   3   1  185.25   54.53
   2  -5   1  192.83   39.89
  -2   5  -1  164.73   41.52
  -3  -2  -1  244.63   51.28
  -5   3  -2  864.31   97.86
   2  -5  -2  823.20   68.64
  -2   5   2  687.62   81.13
  -5   3  -2  944.20   74.46
  -3  -2   2  960.11   88.43
  -5   3  -5  749.77   93.22
   2  -5  -5  753.82   72.48
  -2   5   5  598.19   99.63
  -5   3  -5  776.26   70.91
  -3  -2   5  769.55   80.63
  -5   3  -8  785.43   88.09
   2  -5  -8  749.51   75.59
  -2   5   8  726.61  110.35
  -5   3  -8  778.73   71.19
  -3  -2   8  740.22   80.92
  -5   3 -11  699.47   88.90
   2  -5 -11  739.71   79.23
  -2   5  11  726.20  100.95
  -3  -2  11  618.80   73.02
  -5   3 -14   24.33   28.64
   2  -5 -14   20.19   16.26
  -2   5  14   38.65   58.98
  -3  -2  14   24.11   17.34
  -5   3 -17   24.24   31.74
   2  -5 -17   22.45   18.32
  -2   5  17   26.86   40.00
  -3  -2  17   18.48   15.95
  -5   3 -20   78.27   59.97
   2  -5 -20   77.53   32.10
  -2   5  20   81.81   47.69
  -3   5 -20   69.53   84.85
  -2  -3 -20   36.33   19.70
  -5   2  20   47.48   56.72
  -3   5 -17   20.26   24.84
  -2  -3 -17   20.29   16.71
  -5   2  17   24.90   40.58
  -3   5 -14   25.84   27.99
  -2  -3 -14   29.75   19.14
  -5   2  14   28.20   31.56
  -3   5 -11  693.51   75.71
  -2  -3 -11  783.34   79.10
  -5   2  11  700.59  159.35
  -5   2   8  754.21   68.90
  -3   5  -8  806.60   84.30
  -5   2   8  766.15   82.85
  -3   5  -5  823.84   74.27
  -5   2   5  821.12   87.49
  -5   2   5  761.02   76.84
  -3   5  -2 1399.23  110.39
  -5   2   2  951.63   90.46
  -5   2   2  960.61   85.90
  -5   2  -1  216.81   41.41
   3  -5  -1  216.06   45.51
  -5   2  -1  212.73   45.49
  -5   2  -4  193.13   35.47
   3  -5  -4  104.08   27.74
  -3   5   4   88.61   29.07
  -5   2  -4  108.03   27.79
  -5   2  -7  188.77   40.59
   3  -5  -7  117.52   28.08
  -3   5   7  105.83   34.09
  -5   2  -7  149.02   31.77
  -5   2 -10  825.99  108.31
   3  -5 -10 1013.38   88.59
  -3   5  10  532.05   88.76
  -5   2 -10  773.65   77.19
  -2  -3  10  668.38   80.12
  -5   2 -13  798.13   94.43
   3  -5 -13  745.91   79.30
  -3   5  13  757.95  100.76
  -5   2 -13  816.67   76.80
  -2  -3  13  699.99   80.73
  -5   2 -16  238.61   85.99
   3  -5 -16  206.19   42.78
  -3   5  16  243.35   57.32
  -5   2 -19  106.31   64.51
   3  -5 -19   84.99   30.81
  -3   5  19  101.00   37.30
  -4   5 -18  430.15   63.30
  -1  -4 -18  401.87   67.33
  -5   1  18  367.61   63.96
  -4   5 -15  767.99   89.83
  -1  -4 -15  725.30   82.31
  -5   1  15  660.95   83.88
  -4   5 -12  227.29   45.08
  -1  -4 -12  221.46   42.66
  -5   1  12  180.16   38.79
  -4   5  -9   97.80   26.49
  -1  -4  -9  111.64   28.89
  -5   1   9   90.85   29.54
  -4   5  -6  446.64   60.05
  -5   1   6  375.76   56.62
  -4   5  -3 1111.19   92.65
  -5   1   3 1114.24  103.41
  -4   5   0 3047.08  188.93
  -5   1   0 2757.65  189.11
  -5   1  -3  980.17   99.58
   4  -5  -3 1117.76  101.23
  -4   5   3 1067.34  107.36
  -5   1  -3  984.00   92.25
  -5   1  -6  381.67   56.55
   4  -5  -6  428.16   60.29
  -4   5   6  418.91   57.26
  -5   1  -6  420.94   58.54
  -5   1  -9   99.21   82.54
   4  -5  -9   79.25   25.07
  -4   5   9   76.71   34.59
  -5   1  -9   83.03   24.07
  -5   1 -12  192.90   91.35
   4  -5 -12  174.96   35.95
  -4   5  12  141.99   35.56
  -5   1 -12  166.73   33.38
  -5   1 -15  554.43   80.15
   4  -5 -15  602.71   71.11
  -4   5  15  375.46   64.40
  -5   1 -15  750.14   84.87
  -5   1 -18  456.30  226.61
   4  -5 -18  326.54   54.39
  -4   5  18  261.52   58.31
  -5   5 -13  599.97   87.10
   0  -5 -13  642.90   78.73
   0   5  13 1084.16  182.40
  -5   0  13  570.71   82.22
  -5   5 -10  547.33  103.65
   0  -5 -10  543.61   65.94
   0   5  10  460.36   79.91
  -5   0  10  513.56   74.75
  -5   5  -7  137.13   54.14
   0  -5  -7  144.87   34.56
  -5   0   7  169.25   55.59
  -5   5  -4   62.68   27.06
  -5   0   4   60.94   32.40
  -5   5  -1   75.72   30.74
  -5   5  -1   63.95   43.25
  -5   0   1   87.17   31.74
  -5   5   2  465.41   57.00
  -5   5   2  543.43   89.51
  -5   0  -2  550.55   72.88
  -5   5   5  146.80   41.16
  -5   5   5  465.46   78.51
  -5   0  -5  498.45   69.26
   5  -5  -8  481.96   67.14
  -5   5   8  489.82   68.16
  -5   0  -8  439.07   62.01
   5  -5 -11  452.08   70.02
  -5   5  11  391.16   68.54
  -5   0 -11  572.05   76.15
  -6   5   1  118.61   95.98
  -6   5   1   99.59   28.05
  -5  -1  -1   94.87   33.25
  -1   6   2  214.08   55.86
  -5  -1   2  375.45   64.90
  -6   4  11  275.40   45.78
  -6   4  11  583.29   87.64
  -6   4   8  449.88   63.24
  -6   4   8  398.39   96.37
  -2   6  -5  337.31   54.11
  -6   4   5  421.49   64.34
  -6   4   5  496.65   87.80
  -2   6  -2  558.22   62.35
  -6   4   2  428.16   71.51
  -6   4   2  418.99   61.56
  -4  -2  -2  496.59   76.53
  -6   4  -1   99.04   47.19
   2  -6  -1   92.26   29.46
  -2   6   1   38.28   76.84
  -6   4  -1   72.73   22.86
  -4  -2   1   79.96   36.08
  -6   4  -4   40.20   43.16
   2  -6  -4   50.95   24.02
  -2   6   4   15.00   18.02
  -6   4  -4   40.36   18.57
  -4  -2   4   54.20   26.65
  -6   4  -7  181.76   44.92
   2  -6  -7  115.75   33.02
  -2   6   7   77.77   49.65
  -4  -2   7  115.26   50.59
  -6   4 -10  381.90  109.75
   2  -6 -10  404.90   61.51
  -2   6  10  414.24  100.33
  -4  -2  10  374.57   63.39
  -3   6 -12   93.66   24.12
  -6   3  12  111.98   93.10
  -3   6  -9   60.69   52.29
  -6   3   9   68.32   27.92
  -3   6  -6  311.49   46.23
  -6   3   6  379.50  127.13
  -6   3   6  337.58   54.66
  -3   6  -3  840.25   78.40
  -6   3   3  895.73  114.85
  -6   3   3  928.74   97.49
  -6   3   0 1807.53  145.36
   3  -6   0 1752.47  132.19
  -6   3   0 1793.78  139.32
  -6   3  -3  870.14  114.80
   3  -6  -3  906.40   92.34
  -3   6   3 1310.96  146.13
  -6   3  -3  908.44   93.41
  -6   3  -6  342.28   66.05
   3  -6  -6  321.33   50.50
  -3   6   6  404.68   79.71
  -6   3  -6  398.77   57.50
  -6   3  -9   70.05   40.91
   3  -6  -9   59.63   24.03
  -3   6   9   81.59  140.02
  -6   3  -9   65.48   22.44
  -3  -3   9   66.63   29.59
  -6   3 -12  126.28   92.95
   3  -6 -12   94.09   28.72
  -3   6  12  160.47   63.20
  -3  -3  12   98.90   34.72
  -4   6 -10  386.42   64.15
  -6   2  10  390.72   66.30
  -4   6  -7  111.51   61.20
  -6   2   7  105.70   35.62
  -4   6  -4   40.22   62.19
  -6   2   4   63.47   30.00
  -4   6  -1   81.74   30.24
  -6   2   1  300.77   55.36
  -6   2  -2  484.33   71.16
   4  -6  -5  447.73   64.34
  -4   6   5  531.42   94.79
  -6   2  -5  458.07   65.63
  -6   2  -8  487.71   91.13
   4  -6  -8  370.46   57.48
  -4   6   8  380.00   75.23
  -6   2  -8  469.45   67.47
   4  -6 -11  256.44   47.73
  -4   6  11  183.34   44.30
  -6   2 -11  318.01   51.71
  -6   1   2  426.10   69.55
  -5   6   1  104.92   33.76
  -6   1  -1  105.75   35.39
   0   0   0    0.00    0.00
;
_shelx_hkl_checksum              72275
loop_
_space_group_symop_operation_xyz
'x, y, z'
'-y, x-y, z'
'-x+y, -x, z'
'y, x, -z'
'x-y, -y, -z'
'-x, -x+y, -z'
'x+2/3, y+1/3, z+1/3'
'-y+2/3, x-y+1/3, z+1/3'
'-x+y+2/3, -x+1/3, z+1/3'
'y+2/3, x+1/3, -z+1/3'
'x-y+2/3, -y+1/3, -z+1/3'
'-x+2/3, -x+y+1/3, -z+1/3'
'x+1/3, y+2/3, z+2/3'
'-y+1/3, x-y+2/3, z+2/3'
'-x+y+1/3, -x+2/3, z+2/3'
'y+1/3, x+2/3, -z+2/3'
'x-y+1/3, -y+2/3, -z+2/3'
'-x+1/3, -x+y+2/3, -z+2/3'
loop_
_atom_site_label
_atom_site_type_symbol
_atom_site_fract_x
_atom_site_fract_y
_atom_site_fract_z
_atom_site_U_iso_or_equiv
_atom_site_adp_type
_atom_site_occupancy
_atom_site_site_symmetry_order
_atom_site_calc_flag
_atom_site_refinement_flags_posn
_atom_site_refinement_flags_adp
_atom_site_refinement_flags_occupancy
Zn1 Zn 0.3333 0.6667 0.97349(5) 0.0178(6) Uani 1 3 d S T P
Cl1 Cl 0.3333 0.6667 0.89011(14) 0.0501(10) Uani 1 3 d S T P
N1 N 0.6667 0.3333 0.8333 0.055(5) Uani 1 6 d S T P
O1 O 0.7229(15) 1.0000 1.0000 0.024(2) Uani 1 2 d S T P
B1 B 1.0000 1.0000 1.0000 0.022(4) Uani 1 6 d S T P
loop_
_atom_site_aniso_label
_atom_site_aniso_U_11
_atom_site_aniso_U_22
_atom_site_aniso_U_33
_atom_site_aniso_U_23
_atom_site_aniso_U_13
_atom_site_aniso_U_12
Zn1 0.0111(6) 0.0111(6) 0.0312(9) 0.000 0.000 0.0056(3)
Cl1 0.0598(15) 0.0598(15) 0.0307(19) 0.000 0.000 0.0299(7)
N1 0.040(6) 0.040(6) 0.086(16) 0.000 0.000 0.020(3)
O1 0.009(3) 0.013(4) 0.051(6) -0.007(4) -0.004(2) 0.0066(18)
B1 0.009(4) 0.009(4) 0.047(13) 0.000 0.000 0.005(2)
loop_
_atom_type_symbol
_atom_type_description
_atom_type_scat_dispersion_real
_atom_type_scat_dispersion_imag
_atom_type_scat_source
B B 0.0013 0.0007 'International Tables Vol C Tables 4.2.6.8 and 6.1.1.4'
H H 0.0000 0.0000 'International Tables Vol C Tables 4.2.6.8 and 6.1.1.4'
N N 0.0061 0.0033 'International Tables Vol C Tables 4.2.6.8 and 6.1.1.4'
O O 0.0106 0.0060 'International Tables Vol C Tables 4.2.6.8 and 6.1.1.4'
Cl Cl 0.1484 0.1585 'International Tables Vol C Tables 4.2.6.8 and 6.1.1.4'
Zn Zn 0.2839 1.4301 'International Tables Vol C Tables 4.2.6.8 and 6.1.1.4'
loop_
_geom_angle_atom_site_label_1
_geom_angle_atom_site_label_2
_geom_angle_atom_site_label_3
_geom_angle
_geom_angle_site_symmetry_1
_geom_angle_site_symmetry_3
O1 Zn1 O1 107.21(8) . 2_665
O1 Zn1 O1 107.21(8) . 3_565
O1 Zn1 O1 107.21(8) 2_665 3_565
O1 Zn1 Cl1 111.65(8) . .
O1 Zn1 Cl1 111.65(7) 2_665 .
O1 Zn1 Cl1 111.65(7) 3_565 .
B1 O1 Zn1 124.62(18) . .
B1 O1 Zn1 124.62(18) . 4_567
Zn1 O1 Zn1 110.8(4) . 4_567
O1 B1 O1 120.000(12) 3_675 2_765
O1 B1 O1 120.000(9) 3_675 .
O1 B1 O1 120.00(3) 2_765 .
loop_
_geom_bond_atom_site_label_1
_geom_bond_atom_site_label_2
_geom_bond_distance
_geom_bond_site_symmetry_2
Zn1 O1 1.943(5) .
Zn1 O1 1.943(5) 2_665
Zn1 O1 1.943(5) 3_565
Zn1 Cl1 2.255(5) .
O1 B1 1.372(7) .
O1 Zn1 1.943(5) 4_567
B1 O1 1.372(8) 3_675
B1 O1 1.372(8) 2_765
