#------------------------------------------------------------------------------
#$Date: 2019-10-29 23:32:18 +0200 (Tue, 29 Oct 2019) $
#$Revision: 220448 $
#$URL: file:///home/coder/svn-repositories/cod/cif/4/00/30/4003029.cif $
#------------------------------------------------------------------------------
#
# This file is available in the Crystallography Open Database (COD),
# http://www.crystallography.net/
#
# All data on this site have been placed in the public domain by the
# contributors.
#
data_4003029
loop_
_publ_author_name
'Owens-Baird, Bryan'
'Xu, Junyuan'
'Petrovykh, Dmitri Y.'
'Bondarchuk, Oleksandr'
'Ziouani, Yasmine'
'Gonz\'alez-Ballesteros, Noelia'
'Yox, Philip'
'Sapountzi, Foteini M.'
'Niemantsverdriet, Hans'
'Kolen&#x2019;ko, Yury V.'
'Kovnir, Kirill'
_publ_section_title
;
 NiP2: A Story of Two Divergent Polymorphic Multifunctional Materials
;
_journal_issue                   9
_journal_name_full               'Chemistry of Materials'
_journal_page_first              3407
_journal_paper_doi               10.1021/acs.chemmater.9b00565
_journal_volume                  31
_journal_year                    2019
_chemical_formula_sum            'Ni P2'
_chemical_formula_weight         120.65
_space_group_crystal_system      cubic
_space_group_IT_number           205
_space_group_name_Hall           '-P 2ac 2ab 3'
_space_group_name_H-M_alt        'P a -3'
_symmetry_space_group_name_Hall  '-P 2ac 2ab 3'
_symmetry_space_group_name_H-M   'P a -3'
_atom_sites_solution_primary     direct
_atom_sites_solution_secondary   difmap
_audit_creation_method           SHELXL-2014/7
_cell_angle_alpha                90
_cell_angle_beta                 90
_cell_angle_gamma                90
_cell_formula_units_Z            4
_cell_length_a                   5.44750(10)
_cell_length_b                   5.44750(10)
_cell_length_c                   5.44750(10)
_cell_measurement_reflns_used    1012
_cell_measurement_temperature    100(2)
_cell_measurement_theta_max      45.118
_cell_measurement_theta_min      12.953
_cell_volume                     161.656(5)
_computing_cell_refinement       'SAINT (8.34a) (Bruker, 2013)'
_computing_data_collection       'Apex3 (2016.9) (Bruker, 2016)'
_computing_data_reduction        'SAINT (8.34a) (Bruker, 2013)'
_computing_molecular_graphics    'Bruker SHELXTL'
_computing_publication_material  'Bruker SHELXTL'
_computing_structure_refinement  'SHELXL-2016/6 (Sheldrick, 2016)'
_computing_structure_solution    'SHELXT (Sheldrick, 2014)'
_diffrn_ambient_temperature      100(2)
_diffrn_measured_fraction_theta_full 1.000
_diffrn_measured_fraction_theta_max 1.000
_diffrn_measurement_device_type  'Bruker Photon100 CMOS'
_diffrn_measurement_method       'profile scans from /w and /p scans'
_diffrn_radiation_type           MoK\a
_diffrn_radiation_wavelength     0.71073
_diffrn_reflns_av_R_equivalents  0.0400
_diffrn_reflns_av_unetI/netI     0.0250
_diffrn_reflns_Laue_measured_fraction_full 1.000
_diffrn_reflns_Laue_measured_fraction_max 1.000
_diffrn_reflns_limit_h_max       5
_diffrn_reflns_limit_h_min       -7
_diffrn_reflns_limit_k_max       5
_diffrn_reflns_limit_k_min       -7
_diffrn_reflns_limit_l_max       7
_diffrn_reflns_limit_l_min       -5
_diffrn_reflns_number            1012
_diffrn_reflns_point_group_measured_fraction_full 1.000
_diffrn_reflns_point_group_measured_fraction_max 1.000
_diffrn_reflns_theta_full        25.242
_diffrn_reflns_theta_max         30.071
_diffrn_reflns_theta_min         6.488
_diffrn_source                   Micro-source
_exptl_absorpt_coefficient_mu    13.337
_exptl_absorpt_correction_T_max  0.7460
_exptl_absorpt_correction_T_min  0.5701
_exptl_absorpt_correction_type   multi-scan
_exptl_absorpt_process_details   'SADABS 2016/2 (Sheldrick, 2016)'
_exptl_crystal_colour            Black
_exptl_crystal_density_diffrn    4.957
_exptl_crystal_density_meas      ?
_exptl_crystal_density_method    'not measured'
_exptl_crystal_description       Block
_exptl_crystal_F_000             232
_exptl_crystal_size_max          0.01
_exptl_crystal_size_mid          0.01
_exptl_crystal_size_min          0.01
_refine_diff_density_max         0.478
_refine_diff_density_min         -0.383
_refine_diff_density_rms         0.138
_refine_ls_extinction_coef       0.024(6)
_refine_ls_extinction_expression Fc^*^=kFc[1+0.001xFc^2^\l^3^/sin(2\q)]^-1/4^
_refine_ls_extinction_method     'SHELXL-2014/7 (Sheldrick 2014'
_refine_ls_goodness_of_fit_ref   1.223
_refine_ls_hydrogen_treatment    undef
_refine_ls_matrix_type           full
_refine_ls_number_parameters     8
_refine_ls_number_reflns         82
_refine_ls_number_restraints     0
_refine_ls_restrained_S_all      1.223
_refine_ls_R_factor_all          0.0214
_refine_ls_R_factor_gt           0.0189
_refine_ls_shift/su_max          0.000
_refine_ls_shift/su_mean         0.000
_refine_ls_structure_factor_coef Fsqd
_refine_ls_weighting_details
'w=1/[\s^2^(Fo^2^)+0.4050P] where P=(Fo^2^+2Fc^2^)/3'
_refine_ls_weighting_scheme      calc
_refine_ls_wR_factor_gt          0.0393
_refine_ls_wR_factor_ref         0.0401
_reflns_Friedel_coverage         0.000
_reflns_number_gt                74
_reflns_number_total             82
_reflns_threshold_expression     'I > 2\s(I)'
_cod_data_source_file            cm9b00565_si_002.cif
_cod_data_source_block           redo
_cod_depositor_comments
;
The following automatic conversions were performed:

'_exptl_crystal_density_meas' value 'not measured' was changed to '?'
- the value is perceived as not measured.

Automatic conversion script
Id: cif_fix_values 4973 2017-02-22 13:04:09Z antanas 
;
_cod_original_cell_volume        161.656(9)
_cod_database_code               4003029
_shelx_shelxl_version_number     2014/7
_shelx_space_group_comment
;
The symmetry employed for this shelxl refinement is uniquely defined
by the following loop, which should always be used as a source of
symmetry information in preference to the above space-group names.
They are only intended as comments.
;
_shelx_res_file
;

    redo.res created by SHELXL-2014/7


TITL redo in Pa-3
CELL 0.71073   5.44750   5.44750   5.44750  90.0000  90.0000  90.0000
ZERR 4 0.00010 0.00010 0.00010 0.0000 0.0000 0.0000
LATT  1
SYMM 0.5-X, -Y, 0.5+Z
SYMM -X, 0.5+Y, 0.5-Z
SYMM 0.5+X, 0.5-Y, -Z
SYMM Z, X, Y
SYMM 0.5+Z, 0.5-X, -Y
SYMM 0.5-Z, -X, 0.5+Y
SYMM -Z, 0.5+X, 0.5-Y
SYMM Y, Z, X
SYMM -Y, 0.5+Z, 0.5-X
SYMM 0.5+Y, 0.5-Z, -X
SYMM 0.5-Y, -Z, 0.5+X
SFAC Ni P
UNIT 4 8
TEMP -173.160

L.S. 14
BOND
list
FMAP 2
PLAN -20
acta

WGHT    0.000000    0.405000
EXTI    0.023932
FVAR       0.32211   1.00000
MOLE   1
NI2   1    1.000000    0.000000    0.000000    10.16667    0.00226    0.00226 =
         0.00226    0.00010    0.00010    0.00010
P3    2    0.884542    0.384542    0.115458    10.33333    0.00280    0.00280 =
         0.00280    0.00007    0.00007   -0.00007

MOLE   2
HKLF 4

REM  redo in Pa-3
REM R1 =  0.0189 for      74 Fo > 4sig(Fo)  and  0.0214 for all      82 data
REM      8 parameters refined using      0 restraints

END

WGHT      0.0000      0.3845

REM Highest difference peak  0.478,  deepest hole -0.383,  1-sigma level  0.138
Q1    1   1.3554 -0.0523  0.3584  11.00000  0.05    0.48
Q2    1   0.9620  0.1380 -0.0732  11.00000  0.05    0.42
Q3    1   0.9783  0.2286  0.2120  11.00000  0.05    0.34
Q4    1   1.1754  0.1511  0.0308  11.00000  0.05    0.28
Q5    1   0.8466  0.0228 -0.0298  11.00000  0.05    0.26
Q6    1   0.9644  0.2695  0.0426  11.00000  0.05    0.24
Q7    1   1.0991  0.0510  0.2204  11.00000  0.05    0.22
Q8    1   0.5935  0.1985  0.1357  11.00000  0.05    0.16
Q9    1   0.9811  0.4811  0.0189  10.33333  0.05    0.16
;
_shelx_res_checksum              35156
_shelx_hkl_file
;
   0   1   0   -1.24    0.22
   0  -1   0   -1.12    0.22
   0   0  -1   -1.04    0.38
   1   0   0   -0.94    0.29
  -1   0   0   -1.35    0.26
  -1  -1   0   -1.13    0.43
   0  -1   1   -0.41    0.50
  -1   0   1   -0.44    0.46
   1   0  -1   -0.24    0.62
   0   1  -1   -1.75    1.04
  -1  -1   0   -0.86    0.45
   0  -1   1    0.24    0.46
  -1   0   1   -0.86    0.37
   0   1  -1    0.22    0.47
   1  -1  -1  384.11   20.19
  -1  -1   1  344.54   20.38
  -1  -1   1  341.88   20.34
  -1   1   1  355.35   20.19
  -2   0   0  990.83   53.66
   0   2   0  919.63   53.55
   0  -2   0  950.81   53.58
  -1  -2   0   -0.95    0.65
   0  -1   2   -0.37    0.45
  -2   0  -1   -0.56    0.39
  -1  -2   0   -0.23    0.56
  -1   0   2  306.71   17.86
   0  -2   1  320.11   17.82
  -2  -1   0  308.53   17.82
   0  -2   1  308.88   17.83
  -1  -1   2  153.59    9.03
  -2  -1   1  150.51    9.13
  -1  -2   1  149.62    9.08
  -2  -1   1  151.57    9.09
  -1  -1   2  153.36    9.16
  -1  -2   1  154.04    9.09
  -1   1  -2  153.20    8.74
   2  -1   1  154.72    8.80
  -2  -1  -1  154.33    8.95
  -2   1   1  156.99    8.96
  -1   1   2  152.60    8.94
  -2  -2   0  607.85   35.33
  -2   0   2  643.42   35.38
  -2  -2   0  605.21   35.35
   0  -2   2  629.75   35.22
  -2   0  -2  615.84   34.94
  -1  -2   2    3.95    1.02
  -2  -2   1    3.64    1.09
  -2  -1   2    4.39    1.07
  -2  -2   1    4.75    1.16
  -1  -2   2    3.86    1.07
   1  -2  -2    3.47    0.78
  -2  -1   2    2.58    1.08
  -2  -2  -1    4.12    1.06
  -2   2   1    3.66    0.72
  -2   1   2    3.89    0.91
   1  -2   2    3.77    0.76
  -2  -2   2  542.39   30.79
  -2  -2   2  528.95   30.84
   2  -2   2  521.21   30.20
  -2   2   2  555.43   30.39
  -3   0   0   -0.14    0.65
   0  -3   0   -0.01    0.61
   0   3   0    0.26    0.84
  -3   0   1   -0.27    0.76
  -3   0  -1    0.00    0.57
  -1  -3   0   -0.17    0.67
  -3   0   1   -1.32    0.78
  -1   3   0    0.39    0.72
  -2  -3   0  285.71   16.60
  -3   0  -2  272.38   16.05
   0  -2   3  290.88   16.30
  -2  -3   0  280.76   16.45
  -3   0   2  281.30   16.54
   0  -3   1    0.39    0.81
   0  -3  -1   -0.11    0.38
   0  -3   1   -0.18    0.79
  -3  -1   0   -1.06    0.74
  -1   0   3   -0.07    0.87
  -1  -1   3  876.20   48.14
  -3  -1   1  852.87   48.09
  -1  -1   3  782.30   47.85
  -1  -3   1  832.69   47.93
  -1  -3   1  871.61   48.06
  -3  -1   1  875.99   48.00
  -3  -1  -1  831.01   47.78
  -1  -3  -1  842.43   47.72
  -3   1   1  847.84   47.89
  -1  -2   3   61.90    4.33
  -3  -1   2   59.11    4.27
  -1  -2   3   64.03    4.09
  -2  -3   1   57.28    4.20
  -3  -1   2   59.39    4.15
  -2  -3   1   56.40    4.14
  -2  -3  -1   56.60    4.18
  -3  -1  -2   59.69    3.81
   1  -2   3   57.18    3.67
  -2   3   1   61.56    3.52
  -3   1   2   58.97    4.00
  -2  -3  -1   57.94    4.01
  -3  -2   0   -1.51    0.88
  -3  -2   0    0.69    1.05
  -2   0   3   -0.68    0.94
   0  -3   2    0.26    0.86
  -1  -3   2  144.73    9.23
  -1  -3   2  154.45    9.32
  -2  -1   3  149.87    9.24
  -3  -2   1  157.65    9.40
  -2  -1   3  152.03    9.40
  -3  -2   1  153.20    9.31
  -3   2   1  154.87    9.01
   1  -3   2  148.68    9.00
  -2   1   3  148.72    9.12
  -3  -2  -1  155.67    9.19
  -3  -2   2    5.50    1.45
  -2  -2   3    4.55    1.33
  -3  -2   2    4.32    1.46
  -2  -3   2    4.63    1.42
  -2  -2   3    2.42    1.34
  -2  -3   2    2.20    1.34
  -2   2   3    4.48    1.09
   2  -3   2    4.73    0.97
  -3  -2  -2    3.46    1.14
  -3   2   2    2.19    1.02
  -3  -3   0   -1.29    1.06
   0  -3   3   -0.24    0.89
  -3   0  -3   -0.20    0.41
  -3  -3   0    0.13    1.11
  -3   0   3   -1.14    1.04
  -1  -3   3  228.11   13.53
  -3  -3   1  226.32   13.71
  -1  -3   3  228.65   13.76
  -3  -3   1  222.45   13.65
  -3  -1   3  231.16   13.78
  -3  -1   3  223.04   13.63
   1  -3   3  227.27   13.20
  -3  -3  -1  230.21   13.61
  -3   1   3  221.39   13.46
  -3   3   1  226.72   13.10
  -3  -3  -1  222.34   13.58
  -3  -1  -3  235.28   13.16
  -3  -2   3   75.33    5.23
  -3  -3   2   76.62    5.32
  -3  -2   3   73.32    5.40
  -3  -3   2   67.69    5.30
  -2  -3   3   69.63    5.18
  -2  -3   3   72.72    5.32
   2  -3   3   71.09    4.48
  -3   3   2   86.11    4.63
  -3   2   3   70.76    4.83
  -3  -3  -2   68.01    5.07
  -3  -3   3  394.98   24.19
  -3  -3   3  418.48   24.43
  -3   3   3  420.40   23.52
  -4   0   0    8.60    1.41
  -1  -4   0    0.15    0.88
  -4   0   1   -1.05    0.98
  -1   4   0    0.36    0.88
  -4   0   1    2.03    1.00
  -4   0  -1   -1.29    0.77
  -1  -4   0    0.44    1.20
  -4   0   2  286.03   17.53
  -4   0  -2  303.47   16.91
  -2  -4   0  300.24   17.66
  -2  -4   0  296.37   17.37
  -3  -4   0    0.91    1.41
   0  -3   4    0.96    1.11
  -3  -4   0    0.98    1.29
  -4   0   3    1.38    1.51
   0  -4   1   10.44    1.83
  -4  -1   0   12.58    1.90
  -4  -1   0   12.96    1.57
  -1  -4   1    6.12    1.41
  -4  -1   1    5.55    1.53
  -4  -1   1    9.87    1.66
  -1  -4   1    6.84    1.54
  -4  -1  -1    6.29    1.25
  -1  -4  -1    6.69    1.13
  -4   1   1    6.15    1.51
  -1  -2   4   -0.50    1.03
  -4  -1   2    0.46    1.39
  -2  -4   1   -0.94    1.19
  -2  -4   1    0.88    1.14
  -4  -1   2    0.86    1.25
  -4   1   2   -0.93    1.03
  -2  -4  -1    1.34    1.53
  -4  -1  -2    1.95    0.95
  -2  -4  -1   -0.14    1.04
  -3  -4   1    7.19    1.94
  -4  -1   3    6.08    1.95
  -4  -1   3    6.19    2.03
  -1  -3   4    3.58    1.48
  -3  -4   1    8.11    1.98
  -4  -1  -3    8.07    1.29
  -3  -4  -1    7.10    1.95
   1  -3   4    8.97    1.33
  -4   1   3    5.55    1.74
  -3  -4  -1    5.81    1.73
  -2   0   4  285.99   17.23
   0  -4   2  306.61   17.16
  -4  -2   0  285.91   17.13
  -4  -2   0  287.52   17.35
  -4  -2   1  134.97    8.78
  -1  -4   2  142.04    8.65
  -2   1  -4  135.00    7.81
  -4  -2   1  137.91    8.62
  -2  -1   4  144.36    8.84
  -1  -4   2  136.94    8.63
  -4   2   1  137.84    8.39
  -1  -4  -2  139.78    8.10
  -4  -2  -1  142.68    8.50
  -2   1   4  131.98    8.45
   1  -4   2  119.85    8.49
  -4  -2   2  300.50   18.34
  -2  -4   2  301.88   18.35
  -2  -2   4  315.40   18.60
  -2  -2   4  311.20   18.29
  -2  -4   2  313.57   18.44
  -4  -2   2  294.86   18.50
  -4   2   2  304.14   18.04
  -2  -4  -2  317.96   18.02
   2  -4   2  323.04   17.95
  -4  -2  -2  309.06   18.05
  -4  -2   3  178.34   10.84
  -2  -3   4  173.66   10.74
  -3  -4   2  169.05   10.94
  -2  -3   4  157.36   10.94
  -4  -2   3  172.19   11.10
  -3  -4   2  181.48   11.00
  -4   2   3  172.98   10.49
  -3  -4  -2  162.62   10.80
  -3  -4  -2  175.01   10.64
   3  -4   2  172.76   10.18
  -4  -2  -3  169.62   10.37
  -3   0  -4   12.05    1.02
  -4  -3   0   11.97    2.11
   0  -4  -3   11.92    1.55
  -3   0  -4   12.25    0.90
   0  -4   3   10.13    1.92
  -4  -3   0   10.47    2.22
  -3   0   4   12.94    2.22
  -1  -4   3    3.78    1.70
  -3  -1   4   -0.10    1.57
  -4  -3   1    4.58    1.68
  -1  -4   3    1.18    1.51
  -4  -3   1    1.93    1.64
  -4  -3  -1    6.07    1.93
  -4   3   1    3.22    1.24
  -4  -3  -1    5.85    1.62
  -3   1   4    1.86    1.45
   1  -4   3    4.66    1.33
  -3  -2   4   -0.16    1.63
  -2  -4   3   -1.91    1.56
  -4  -3   2    1.30    1.86
  -3  -2   4   -0.02    1.68
  -2  -4   3    0.68    1.66
  -4  -3   2    1.72    1.76
  -4   3   2    0.73    1.17
  -3   2   4    0.79    1.28
  -4  -3  -2   -0.54    1.37
   2  -4   3    1.33    1.09
  -3  -4   3    5.20    3.42
  -3  -3   4   -1.00    3.86
  -3  -3   4    5.92    3.04
  -3  -4   3    2.59    2.15
  -4  -3   3    0.66    2.90
  -3  -4   3    9.19    3.24
  -3  -3   4    6.16    1.97
  -3  -4   3    2.65    1.91
  -4  -3   3    1.44    3.06
  -4  -3  -3    5.45    1.79
  -3  -4  -3    4.04    3.10
   3  -4   3    2.99    1.05
  -4   3   3    5.62    1.57
  -4  -4   0  893.80   53.66
   0  -4   4  916.45   53.42
  -4   0   4  887.05   52.73
  -4  -4   0  923.40   52.84
  -4   0   4 1000.00   54.84
   0  -4   4  918.32   52.34
  -4  -4   0  910.25   52.76
  -4  -4   1   11.39    4.93
  -4  -4   1    6.93    2.23
  -4  -4   1    4.21    2.98
  -4  -4   1    3.07    2.02
  -1  -4   4   13.38    3.57
  -1  -4   4    3.43    1.87
  -4  -1   4    4.31    2.06
  -4  -1   4    5.01    2.81
  -4  -4  -1    3.75    3.14
  -4  -1  -4    6.89    1.24
  -4  -4  -1    5.93    2.03
  -4  -4  -1    3.98    2.03
   1  -4   4    6.07    1.52
  -4   1   4    3.60    1.81
   1  -4   4    4.43    3.63
  -4   4   1    6.68    1.40
  -4  -4  -1    7.98    3.27
  -4  -2   4  255.36   15.24
  -4  -2   4  251.48   16.42
  -2  -4   4  274.73   17.16
  -2  -4   4  279.44   16.38
  -4  -2   4  264.73   16.85
  -4  -4   2  258.32   16.52
  -4  -4   2  265.02   16.92
  -2  -4   4  255.78   15.71
  -4  -4   2  274.29   15.39
  -4  -2   4  284.88   16.81
  -4   2   4  274.25   16.05
  -4  -4  -2  273.43   16.36
   2  -4   4  263.80   15.46
  -4  -4  -2  278.74   16.47
  -4  -2  -4  268.61   15.82
  -4  -4  -2  274.96   17.15
  -4   4   2  275.56   15.50
  -3  -4   4    6.91    2.51
  -3  -4   4    5.28    3.32
  -4  -4   3   14.70    3.92
  -3  -4   4   12.07    3.55
  -4  -3   4   12.69    3.43
  -4  -4   3    8.37    3.26
  -3  -4   4   11.22    3.42
  -4  -3   4   10.75    3.18
  -4  -4   3    6.62    2.63
  -4  -4   3    7.57    3.10
  -4  -3   4   10.68    2.61
  -4  -4   3    5.30    2.42
  -4  -3   4    8.17    2.72
  -3  -4   4    8.96    2.58
  -4  -3  -4    7.73    2.30
  -4  -4  -3   10.13    2.56
  -4   3   4    9.80    2.03
  -4  -4   4   -0.83    3.07
  -4  -4   4    5.50    2.51
  -4  -4   4   -1.07    2.60
  -4  -4   4    4.64    3.57
  -4  -4   4    3.51    2.52
   0   5   0   -0.99    3.21
   5   0   0    4.32    4.65
  -5   0   0    0.70    4.02
   0   5   0   -1.73    3.73
   0   0   5   -3.89    4.57
   0   0  -5    5.05    4.40
  -1  -5   0    1.53    1.17
  -5   0   1   -0.55    1.43
  -1  -5   0    0.06    1.55
  -2  -5   0   61.13    4.36
  -5   0   2   59.95    4.82
  -2  -5   0   53.48    4.75
  -3  -5   0   -1.40    2.69
  -3  -5   0    0.66    2.84
  -3  -5   0    3.60    1.90
   0  -3   5    1.00    1.38
  -5   0   3   -0.17    1.75
  -4  -5   0    3.88    3.23
   0  -4   5    5.51    4.17
   0  -4   5    2.38    1.84
   0  -4   5   -1.30    3.34
  -4  -5   0    5.22    3.06
  -5   0   4    3.67    2.80
  -4  -5   0    2.55    2.28
  -5   0   4   11.53    2.52
  -4  -5   0    4.89    3.38
  -5  -1   0   -0.58    1.07
  -5  -1   0    1.14    1.71
   0  -5   1   -0.82    1.44
  -5  -1   1  637.62   36.26
  -5  -1   1  615.43   36.55
  -1  -5   1  639.01   36.13
  -1  -5   1  638.91   36.52
  -1  -5  -1  607.93   35.75
  -5   1   1  637.42   36.39
  -5  -1  -1  639.31   35.98
  -2  -5   1   88.43    6.11
  -2  -5   1   86.73    6.37
  -5  -1   2   89.67    6.51
  -5  -1   2   86.83    6.23
  -5  -1  -2   87.76    5.62
  -2  -5  -1   88.85    5.89
  -2  -5  -1   86.61    6.49
  -5   1   2   91.25    6.16
  -3  -5   1   77.61    7.10
  -5  -1   3   87.23    6.66
  -5  -1   3   83.62    7.19
  -1  -3   5   91.93    5.91
  -3  -5   1   81.71    6.83
  -3  -5   1   82.18    6.15
  -3  -5   1   82.99    6.10
  -3  -5   1   80.71    7.00
  -1  -3   5   76.56    7.13
  -3  -5  -1   82.57    5.83
  -3  -5  -1   74.46    6.98
  -5  -1  -3   82.51    5.24
  -5   1   3   83.73    6.04
  -3  -5  -1   82.27    6.96
  -5  -1   4    6.05    2.86
  -4  -5   1    5.07    3.42
  -4  -5   1    1.72    2.50
  -1  -4   5    6.73    2.13
  -1  -4   5   13.40    3.90
  -4  -5   1    9.44    3.03
  -4  -5   1    3.46    3.07
  -5  -1   4    5.90    2.86
  -5  -1   4    1.43    2.32
  -4  -5   1    0.05    2.11
  -1  -4   5    7.25    3.95
  -4  -5  -1    2.27    2.09
  -4  -5  -1    3.13    2.95
  -4  -5  -1    5.36    3.78
  -4  -5  -1    3.43    2.31
   1  -4   5    7.38    3.58
  -5   1   4    2.99    2.09
   1  -4   5    5.62    4.50
  -5  -1  -4    1.58    1.51
  -4  -5  -1    6.47    3.15
   1  -4   5    2.43    1.51
  -5  -2   0   -0.44    1.61
   0  -5   2   -0.94    1.44
  -5  -2   0    1.02    1.42
  -2  -1   5   25.93    3.22
  -1  -5   2   28.49    3.16
  -1  -5   2   32.16    3.23
  -5  -2   1   29.57    2.97
  -5  -2   1   30.52    3.37
   1  -5   2   27.80    2.84
  -1  -5  -2   29.85    2.36
  -5   2   1   22.35    2.87
  -5  -2  -1   30.95    2.87
  -5  -2   2   -1.16    1.63
  -5  -2   2    1.87    1.70
  -2  -5   2    2.14    3.10
  -2  -2   5   -0.53    1.62
  -2  -5   2    0.37    1.63
  -2  -5   2   -1.35    1.54
  -5  -2   2   -2.48    5.29
  -5  -2   2    2.35    2.58
  -2  -5   2    1.13    2.71
  -5  -2  -2   -0.65    1.30
  -2  -5  -2    0.40    1.42
  -5   2   2    0.13    1.37
   2  -5   2    1.07    1.54
  -2  -5  -2   -1.63    2.85
  -3  -5   2   22.13    3.96
  -3  -5   2   17.44    3.68
  -5  -2   3    8.51    3.27
  -3  -5   2   14.44    2.81
  -5  -2   3   19.44    3.44
  -5  -2   3   21.71    3.10
  -2  -3   5   17.38    2.84
  -2  -3   5   18.22    4.21
  -2  -3   5   15.75    3.54
  -5  -2   3   20.17    3.48
  -2  -3   5   18.29    3.26
  -3  -5   2   17.22    3.88
  -3  -5   2   16.90    2.98
  -3  -5  -2   21.60    3.95
   3  -5   2   18.63    2.55
  -3  -5  -2   14.54    2.65
  -3  -5  -2   20.87    3.36
  -5   2   3   17.45    2.73
  -5  -2  -3   16.93    2.42
  -5  -2   4    0.56    2.78
  -2  -4   5   12.00    3.82
  -5  -2   4    0.26    1.99
  -4  -5   2    3.43    2.21
  -2  -4   5   -0.07    3.13
  -4  -5   2    6.87    3.10
  -5  -2   4    1.67    2.26
  -2  -4   5    2.74    3.44
  -5  -2   4   -0.14    2.83
  -4  -5   2    5.52    3.44
  -4  -5   2    0.14    2.39
  -4  -5   2    4.54    2.89
  -2  -4   5    2.13    2.27
  -5  -2  -4   -0.68    1.68
  -4  -5  -2   -1.75    3.04
  -4  -5  -2   -1.42    2.10
   2  -4   5    0.99    4.22
   4  -5   2   -0.26    1.72
  -4  -5  -2   -1.13    2.95
  -5   2   4    1.08    2.09
  -4  -5  -2    0.32    2.17
   0  -5   3    3.02    3.49
   0  -5   3    1.86    3.05
  -3   0   5   -1.13    1.68
   0  -5   3    1.11    1.65
  -5  -3   0    1.75    1.74
  -5  -3   0   -1.52    1.62
  -3  -1   5   80.13    6.88
  -1  -5   3   89.83    6.33
  -1  -5   3   87.54    7.50
  -5  -3   1   80.29    6.17
  -5  -3   1   89.09    7.25
  -1  -5   3   91.56    7.17
  -5  -3   1   86.74    6.74
  -3  -1   5   85.14    6.67
  -5  -3  -1   88.69    6.20
   1  -5   3   83.55    5.87
   1  -5   3   87.73    7.36
  -5  -3  -1   78.05    6.46
  -5   3   1   85.63    5.86
  -1  -5  -3   90.61    5.32
  -3   1   5   79.14    6.07
  -2  -5   3  109.02    8.58
  -3  -2   5  117.43    8.22
  -2  -5   3  111.58    7.90
  -5  -3   2  116.77    8.57
  -2  -5   3   88.50    9.37
  -5  -3   2  101.10    7.78
  -5  -3   2  122.04    8.15
  -2  -5   3  106.40    8.73
  -5  -3   2  118.34    8.22
  -2  -5   3  111.87    8.39
  -3  -2   5  111.72    8.34
  -5   3   2  115.52    7.34
  -2  -5  -3  114.60    8.61
   2  -5   3  111.25    7.15
  -5  -3  -2  114.79    7.55
   2  -5   3  115.82    8.77
  -2  -5  -3  112.59    7.16
  -5  -3   3  296.91   19.14
  -3  -3   5  298.82   17.25
  -3  -3   5  316.96   19.18
  -3  -5   3  308.58   19.17
  -3  -5   3  317.34   18.85
  -5  -3   3  302.29   17.27
  -5  -3   3  303.90   18.71
  -3  -5   3  318.26   19.30
  -3  -5   3  307.51   17.44
  -3  -3   5  307.80   19.01
  -5  -3   3  300.72   19.03
  -3  -3   5  290.89   18.97
  -3  -5   3  302.05   18.82
  -3  -3   5  311.46   18.69
  -5   3   3  303.21   18.11
   3  -5   3  316.33   19.20
  -3  -5  -3  306.72   18.22
  -5  -3  -3  305.11   18.27
  -5  -3  -3  305.03   19.13
  -3  -5  -3  322.70   18.90
  -3  -5  -3  292.16   19.23
  -5  -3   4    1.91    3.01
  -3  -4   5    5.17    2.88
  -3  -4   5    4.54    2.45
  -4  -5   3    8.43    3.41
  -3  -4   5    3.90    3.00
  -5  -3   4    4.44    2.40
  -4  -5   3    3.68    2.61
  -4  -5   3    2.67    2.92
  -5  -3   4    3.22    4.67
  -3  -4   5    7.09    3.50
  -5  -3   4    0.69    2.94
  -4  -5   3    1.42    2.90
  -5  -3   4    8.49    2.83
  -3  -4   5    2.01    3.40
  -5  -3  -4    6.56    2.44
  -5   3   4    8.92    2.39
  -4  -5  -3    6.74    2.65
   4  -5   3    9.93    4.10
  -4   0   5    1.72    2.54
   0  -5   4    3.48    3.60
  -5  -4   0    3.30    3.18
   0  -5   4   -0.91    3.14
   0  -5   4   -3.96    1.63
  -5  -4   0    3.71    2.43
  -5  -4   0    2.07    2.96
  -4   0   5    1.05    2.10
  -5  -4   0    0.97    2.07
  -5  -4   1    1.99    2.14
  -4  -1   5    6.71    2.91
  -4  -1   5    0.18    3.23
  -5  -4   1   -0.42    2.24
  -1  -5   4   -3.58    3.39
  -5  -4   1    3.26    3.01
  -5  -4   1    0.96    3.38
  -1  -5   4    4.68    3.34
  -5  -4   1    2.88    3.23
  -4  -1   5   -0.50    1.81
  -5  -4  -1    4.33    3.00
   1  -5   4    4.56    3.82
  -5  -4  -1    2.56    2.13
   1  -5   4    3.27    3.36
  -5   4   1    1.84    1.72
  -1  -5  -4    2.38    1.34
  -5  -4  -1   -0.71    2.27
   1  -5   4    0.88    1.71
  -5  -4  -1    4.98    3.38
  -4   1   5    0.55    1.89
  -5  -4  -1    5.22    3.54
  -4  -1  -5    2.30    1.23
  -5  -4   2   42.24    5.56
  -2  -5   4   42.34    5.50
  -2  -5   4   41.78    5.06
  -4  -2   5   45.09    4.96
  -5  -4   2   27.46    5.29
  -5  -4   2   39.80    5.09
  -4  -2   5   47.96    5.42
  -4  -2   5   46.69    4.59
  -2  -5   4   49.84    5.84
  -5  -4   2   37.72    4.62
  -2  -5   4   37.43    4.46
  -5  -4   2   36.74    4.29
  -2  -5   4   48.67    4.51
  -5  -4  -2   35.76    5.50
  -5  -4  -2   32.81    4.03
  -4  -2  -5   37.98    3.54
  -5  -4  -2   33.41    4.51
  -4   2   5   39.24    4.02
  -5   4   2   35.02    3.55
   2  -5   4   40.72    3.42
   2  -5   4   40.49    5.28
  -5  -4  -2   37.27    5.04
  -3  -5   4    0.59    2.79
  -3  -5   4   -2.44    2.18
  -4  -3   5    6.25    3.11
  -5  -4   3   -1.12    3.92
  -3  -5   4    4.76    3.22
  -3  -5   4   -1.24    2.42
  -4  -3   5   -3.27    2.96
  -5  -4   3    3.06    3.01
  -4  -3   5    1.05    2.20
  -3  -5   4    7.20    3.50
  -4  -3   5   -1.22    3.68
  -5  -4   3    0.48    3.09
  -5  -4   3   -0.17    2.61
  -4  -3   5   -1.39    2.42
  -5  -4   3   -2.58    2.18
  -5  -4  -3   -3.71    2.34
  -4  -3  -5    1.02    2.24
  -5   4   3    3.85    1.89
   3  -5   4    4.53    3.64
  -4  -4   5   -0.05    2.49
  -5  -4   4    1.63    3.92
  -5  -4   4    0.23    2.43
  -5  -4   4   -3.10    2.79
  -4  -5   4    2.24    3.32
  -4  -5   4    7.06    3.10
  -4  -5   4    3.37    3.33
  -5  -4   4    9.37    3.19
  -4  -4   5    5.75    3.44
  -4  -4   5   -1.14    2.35
  -4  -4   5    1.39    3.69
  -4  -5   4    1.72    2.61
  -5  -4   4    1.46    3.46
  -4  -4   5    2.58    3.37
  -4  -5   4    5.45    3.50
  -4  -5  -4    3.67    2.95
   4  -5   4   -8.83    3.33
  -4  -4  -5    4.03    2.62
  -5  -4  -4    2.52    2.54
  -4  -5  -4    2.98    2.76
  -5  -5   0   -1.29    2.29
   0  -5   5    0.78    3.39
  -5  -5   0    3.41    2.40
   0  -5   5    2.12    2.07
  -5  -5   0   -1.93    3.15
  -5  -5   0   -0.10    3.24
  -5  -5   0    4.21    3.04
  -5   0   5   -1.05    2.86
  -5   5   0    1.26    2.06
   0  -5   5   -0.55    3.83
  -5   0   5    0.75    2.35
  -5  -5   1   26.71    4.83
  -5  -1   5   23.56    4.16
  -5  -5   1   28.80    3.95
  -5  -5   1   28.54    4.93
  -5  -5   1   24.46    4.30
  -5  -1   5   24.87    3.92
  -1  -5   5   20.47    3.44
  -1  -5   5   27.94    5.07
  -1  -5   5   27.20    4.78
  -5  -1   5   27.14    4.85
  -5  -5   1   20.82    4.26
   1  -5   5   26.56    5.19
  -5  -5  -1   23.87    3.84
  -5  -5  -1   27.41    4.87
  -5  -5  -1   24.34    3.99
  -5  -5  -1   29.63    5.56
   1  -5   5   30.64    3.22
  -5  -5  -1   28.21    4.70
   1  -5   5   28.82    5.15
  -5   1   5   23.03    3.92
  -5  -2   5   28.39    5.00
  -5  -5   2   27.71    5.11
  -5  -5   2   29.88    4.25
  -5  -5   2   31.51    4.09
  -5  -5   2   26.97    5.27
  -5  -5   2   23.52    4.55
  -2  -5   5   27.12    4.90
  -2  -5   5   32.09    5.15
  -5  -2   5   32.60    4.84
  -2  -5   5   21.08    4.67
  -2  -5   5   20.28    3.62
  -5  -2   5   18.29    3.79
  -5  -5  -2   21.83    3.90
   2  -5   5   13.69    4.63
  -5  -5  -2   27.12    5.07
  -5  -5  -2   37.93    6.10
  -5   2   5   15.03    3.52
  -5  -5  -2   20.59    4.27
  -5  -5  -2   25.96    3.81
   2  -5   5   25.77    5.07
  -5  -3   5  286.05   18.15
  -3  -5   5  304.09   18.58
  -5  -3   5  274.33   18.29
  -5  -5   3  292.15   18.11
  -5  -3   5  267.27   18.14
  -3  -5   5  292.80   16.89
  -5  -5   3  276.12   18.29
  -3  -5   5  280.65   18.07
  -5  -5   3  281.51   18.20
  -5  -3   5  280.90   16.67
  -5  -3   5  276.54   17.79
  -5  -5   3  277.89   16.78
  -3  -5   5  255.36   18.20
  -5  -5   3  275.71   17.82
  -3  -5   5  283.20   17.65
  -5  -5  -3  278.53   17.62
  -5  -5  -3  290.52   18.55
  -5  -5  -3  290.10   17.58
   3  -5   5  271.51   18.50
   5  -5   3  272.82   18.16
   0  -6   0   84.61    7.14
   0  -6   0   89.82    7.78
  -1  -6   0    2.09    2.79
  -1  -6   0    2.25    1.56
  -1  -6   0   -6.59    3.24
  -1  -6   0    1.49    3.15
  -1  -6   0    4.75    2.48
  -2  -6   0  183.19   11.20
  -2  -6   0  184.21   11.90
  -2  -6   0  173.48   11.63
  -6   0   2  170.66   11.70
  -6   0   2  181.60   12.30
  -2  -6   0  184.53   12.28
  -2  -6   0  189.61   12.19
  -3  -6   0    0.68    2.42
  -3  -6   0   -2.27    2.12
  -3  -6   0    4.13    3.25
  -3  -6   0    8.12    2.92
  -6   0   3   -0.59    2.05
  -3  -6   0    4.05    2.93
  -6   0   3    5.39    3.02
  -4  -6   0  287.69   17.87
  -4  -6   0  254.50   16.98
  -4  -6   0  276.91   15.89
   0  -4   6  271.03   17.91
   0  -4   6  276.47   16.31
  -6   0   4  266.25   17.53
  -4  -6   0  289.18   17.95
  -4  -6   0  295.94   17.51
  -6   0   4  247.17   17.07
   0  -6   1   95.34    7.48
  -6  -1   0   90.87    6.27
   0  -6   1   87.14    7.87
  -6   1   0   80.50    6.69
   0  -6   1   96.22    6.88
  -6  -1   0  106.79    7.20
  -1  -6   1   51.58    5.98
  -1  -6   1   34.66    5.62
  -1  -6   1   45.10    4.41
  -1  -6   1   43.26    5.16
  -6  -1   1   46.00    4.16
  -6  -1   1   44.25    4.61
   1  -6   1   54.20    5.50
  -1  -6  -1   49.12    5.29
  -6  -1  -1   46.49    3.78
   1  -6   1   41.89    4.26
  -6   1   1   50.69    4.46
  -6  -1   2    1.27    1.97
  -2  -6   1    0.47    2.05
  -2  -6   1    4.21    3.43
  -6  -1   2   -1.57    2.13
  -2  -6   1    1.70    3.07
  -6  -1   2    4.56    3.27
  -6  -1   2    2.79    2.63
  -2  -6   1    3.60    2.94
  -2  -6  -1   -8.75    3.38
  -6  -1  -2    4.49    1.60
   2  -6   1   -0.81    4.76
  -2  -6  -1   -3.50    2.02
  -2  -6  -1    1.12    3.03
  -2  -6  -1    1.68    1.68
  -1  -3   6   60.90    6.55
  -3  -6   1   61.14    5.56
  -1  -3   6   56.24    6.20
  -3  -6   1   67.94    6.74
  -1  -3   6   56.56    7.45
  -3  -6   1   71.74    6.47
  -6  -1   3   59.68    6.29
  -6  -1   3   68.85    5.88
  -6  -1   3   61.97    5.77
  -3  -6   1   57.95    5.90
  -3  -6   1   54.52    5.40
  -6   1   3   64.45    5.57
  -3  -6  -1   62.17    5.22
  -3  -6  -1   68.79    6.70
  -3  -6  -1   72.10    6.37
  -3  -6  -1   66.80    6.18
  -6   1   3   55.98    6.24
  -3  -6  -1   53.57    5.46
  -6  -1  -3   61.39    4.39
  -1  -4   6   50.85    6.17
  -4  -6   1   48.21    6.09
  -6  -1   4   66.69    6.36
  -4  -6   1   61.43    6.54
  -6  -1   4   57.29    5.56
  -4  -6   1   58.31    6.27
  -4  -6   1   59.79    5.61
  -1  -4   6   77.17    6.58
  -6  -1   4   54.97    5.74
  -1  -4   6   49.67    6.99
  -4  -6  -1   62.32    6.18
  -4  -6  -1   62.46    5.68
  -6   1   4   55.09    5.24
  -4  -6  -1   56.12    6.68
  -4  -6  -1   56.85    5.57
  -4  -6  -1   58.41    6.36
   1  -4   6   56.55    7.81
  -6  -2   0  205.14   12.50
  -6   2   0  165.73   11.73
   0  -6   2  184.20   11.96
  -6  -2   0  179.05   11.30
  -6  -2   0  182.53   12.16
   0  -6  -2  198.68   12.80
   0  -6   2  187.99   12.47
  -6  -2   0  184.60   11.54
   0  -6   2  187.41   11.89
  -1  -6   2   14.86    3.92
  -1  -6   2   16.10    3.54
  -1  -6   2   14.53    3.91
  -6  -2   1   12.94    3.62
  -6  -2   1   10.80    3.24
  -1  -6   2    9.17    2.78
  -6  -2   1   12.55    2.53
  -6  -2   1   10.16    2.84
  -1  -6  -2   15.46    3.37
  -6  -2  -1   11.60    2.85
  -6  -2  -1   11.56    2.38
  -6   2   1   14.36    2.76
   1  -6   2   16.65    3.82
   1  -6   2   13.65    2.69
  -2  -6   2  174.16   11.28
  -6  -2   2  168.33   11.84
  -2  -6   2  164.27   11.86
  -6  -2   2  179.53   11.33
  -6  -2   2  179.87   11.02
  -2  -2   6  164.39   11.74
  -2  -6   2  173.25   11.91
  -2  -2   6  172.37   12.17
  -2  -6   2  183.88   11.33
  -2  -6   2  181.01   11.57
  -6  -2   2  187.94   11.88
  -2  -6  -2  172.81   10.63
  -6  -2  -2  172.90   10.80
   2  -6   2  174.16   11.05
  -2  -6  -2  170.05   11.78
  -2  -6  -2  179.72   11.68
  -6   2   2  176.68   11.20
   2  -6   2  167.72   11.80
  -3  -6   2   14.43    3.76
  -2  -3   6   16.71    3.60
  -6  -2   3   13.70    3.45
  -3  -6   2   15.91    3.41
  -3  -6   2   14.85    3.77
  -3  -6   2    9.22    3.70
  -2  -3   6   20.65    4.27
  -2  -3   6   12.61    3.99
  -6  -2   3   14.80    3.75
  -6  -2   3   11.57    3.25
  -3  -6   2   14.86    3.26
  -6  -2   3   10.63    2.87
  -6  -2  -3   13.96    2.44
  -3  -6  -2   14.57    3.87
   3  -6   2    7.81    3.77
  -3  -6  -2   11.21    3.33
  -3  -6  -2   12.34    2.74
  -3  -6  -2   19.58    4.74
   3  -6   2   14.96    2.69
  -4  -6   2  154.11   11.19
  -4  -6   2  156.94   10.61
  -2  -4   6  155.67   13.89
  -4  -6   2  151.83   10.69
  -4  -6   2  142.28   11.08
  -2  -4   6  155.72   10.28
  -6  -2   4  163.52   11.31
  -2  -4   6  154.41   10.66
  -6  -2   4  153.28   10.81
  -2  -4   6  136.43   10.69
  -6  -2   4  149.35   10.13
  -4  -6   2  149.90   10.62
  -4  -6  -2  152.58   11.43
  -4  -6  -2  148.85   10.20
   4  -6   2  144.72   11.19
  -6   2   4  156.66   10.26
  -4  -6  -2  144.71   10.61
  -4  -6  -2  149.12   10.61
  -4  -6  -2  129.23   11.01
   2  -4   6  152.89   11.24
  -6   3   0  116.11    7.94
   0  -6  -3  118.45    8.58
  -6  -3   0  112.01    8.86
  -6  -3   0  110.23    8.02
  -6  -3   0  111.71    8.26
  -6  -3   0  114.23    8.97
  -6  -3   0  108.91    8.37
   0  -6   3  108.76    8.99
   0  -6   3  112.44    8.77
  -6  -3   1   18.19    3.90
  -6  -3   1   29.82    5.31
  -6  -3   1   22.40    3.25
  -1  -6   3   23.93    4.36
  -1  -6   3   17.61    3.29
  -1  -6   3   22.33    4.36
  -3  -1   6   23.09    4.21
  -6  -3   1   21.70    3.73
  -1  -6   3   30.24    5.12
  -6  -3   1   24.44    4.04
  -1  -6  -3   23.47    4.26
  -6  -3  -1   18.37    3.74
  -6  -3  -1   21.70    3.66
   1  -6   3   17.80    3.15
  -6   3   1   26.10    3.39
  -6  -3  -1   23.37    4.57
   1  -6   3   30.81    5.27
   1  -6   3   19.24    4.13
  -6  -3  -1   22.37    4.13
  -6  -3   2    3.44    4.55
  -2  -6   3    3.65    2.42
  -6  -3   2    2.47    3.08
  -3  -2   6    6.61    3.60
  -6  -3   2    0.68    2.41
  -6  -3   2    0.42    1.93
  -2  -6   3    5.45    3.20
  -2  -6   3   -1.01    2.46
  -2  -6   3    8.55    3.71
  -6  -3   2    3.79    2.83
  -3  -2   6    0.15    2.67
  -3  -2   6    1.54    2.30
  -2  -6   3   -2.22    3.06
  -3  -2   6    5.05    4.12
  -6  -3  -2    6.69    2.37
   2  -6   3    0.47    3.23
  -6   3   2    1.31    2.22
  -2  -6  -3   -7.10    2.88
  -6  -3  -2    1.11    2.39
  -6  -3  -2    1.19    3.33
   2  -6   3    2.36    2.02
  -3  -6   3   33.99    5.06
  -3  -6   3   26.85    4.12
  -3  -6   3   33.22    4.50
  -3  -6   3   29.59    5.22
  -3  -3   6   31.26    5.64
  -6  -3   3   31.67    4.15
  -3  -6   3   31.11    5.16
  -6  -3   3   29.23    4.63
  -6  -3   3   32.55    4.56
  -6  -3   3   20.01    4.34
  -3  -3   6   36.28    5.58
  -3  -3   6   29.54    4.56
  -3  -6  -3   32.52    4.41
   3  -6   3   29.46    4.96
  -6  -3  -3   24.69    3.89
  -6   3   3   20.98    3.92
  -3  -6  -3   28.82    4.81
  -6  -3  -3   28.61    4.93
  -6  -4   0  256.34   17.17
   0  -6   4  266.25   16.53
   0  -6   4  247.07   17.61
  -6  -4   0  278.57   17.26
   0  -6   4  274.01   16.53
  -4   0   6  275.16   16.86
  -6  -4   0  269.57   16.80
  -6  -4   0  272.96   17.34
  -6  -4   0  269.64   15.48
  -6   4   0  272.55   16.41
  -6  -4   1   -5.99    2.21
  -6  -4   1    3.12    3.09
  -4  -1   6    3.71    2.66
  -1  -6   4   -1.44    3.48
  -6  -4   1   -2.74    2.33
  -6  -4   1   -2.74    2.92
  -1  -6   4    2.67    2.45
  -4  -1   6    4.34    3.61
  -4  -1   6    2.65    2.86
  -1  -6   4    0.90    3.70
  -6  -4   1   -0.76    3.56
  -1  -6   4    3.49    3.42
   1  -6   4    2.86    3.80
  -6  -4  -1    5.15    3.08
   1  -6   4    2.20    3.40
  -6  -4  -1    0.31    2.49
  -6  -4  -1    4.41    2.67
  -6   4   1   -1.15    2.26
   1  -6   4   -1.30    2.22
  -6  -4  -1    7.48    3.33
  -6  -4   2  141.83   10.66
  -6  -4   2  145.88   10.98
  -4  -2   6  154.67   10.24
  -4  -2   6  162.33   11.23
  -2  -6   4  153.59   10.89
  -2  -6   4  148.56   10.94
  -6  -4   2  159.05   11.47
  -2  -6   4  150.17   11.46
  -6  -4   2  152.34   10.49
  -4  -2   6  147.36   10.75
  -6  -4   2  147.59   10.91
  -2  -6   4  155.98   10.56
  -6  -4  -2  150.04   10.65
  -6  -4  -2  152.39   10.39
  -6  -4  -2  139.86   10.99
   2  -6   4  149.82   11.31
  -6  -4  -2  163.17   10.28
  -6   4   2  149.08    9.86
   2  -6   4  148.27   11.19
   0  -7   0    4.45    3.53
   0  -7   0    4.95    2.70
   0  -7   0    5.64    3.18
   0  -7   0   -4.56    3.11
  -7   0   0    1.81    2.33
  -7   0   1    0.20    3.59
  -1  -7   0    0.66    2.43
   1  -7   0   -3.18    3.04
  -1  -7   0   -1.97    2.86
  -7   0   1   -3.01    2.22
  -1  -7   0   -0.07    3.43
  -7   0  -1    2.12    2.31
  -1  -7   0    8.07    3.17
  -2  -7   0  126.57    9.39
  -7   0   2  129.57    9.40
  -2  -7   0  126.25    9.27
   2  -7   0  125.74    9.79
  -7   0   2  121.29    9.47
  -2  -7   0  126.40    9.78
  -2  -7   0  129.84    9.76
  -3  -7   0    1.16    3.20
  -3  -7   0    8.79    3.23
  -3  -7   0    6.40    2.93
  -7   0   3   -0.85    3.20
  -7   0   3   -1.59    2.64
  -3  -7   0    4.91    3.33
   0  -7   1   -0.36    3.77
   0  -7   1    4.04    3.64
   0  -7   1    3.31    2.63
   0  -7   1   -3.80    2.70
   0  -7  -1   -3.93    3.44
  -7  -1   0    2.64    2.31
  -7   1   0   -3.34    2.08
  -7  -1   0   -6.53    3.58
   0  -7  -1    0.34    3.02
  -1  -7   1   97.91    7.86
  -7  -1   1   98.51    7.92
  -7  -1   1   91.95    7.57
  -1  -7   1  104.17    7.59
   1  -7  -1   87.30    7.67
  -1  -7   1   84.45    7.93
  -1  -7   1   88.58    8.35
  -1  -7  -1   97.39    7.41
  -1  -7  -1  104.52    8.26
   1  -7   1   92.41    7.96
  -7   1   1   92.69    7.50
  -1  -7  -1   89.80    7.58
   1  -7   1   94.81    7.28
  -7  -1  -1   91.22    7.43
   1  -7   1   99.77    8.78
  -7  -1   2   11.56    3.24
  -2  -7   1   11.32    2.96
   2  -7  -1    4.16    4.07
  -2  -7   1    2.20    3.38
  -2  -7   1    6.94    3.43
  -7  -1   2    8.47    3.40
  -2  -7   1   12.70    3.75
  -2  -7   1    9.77    2.93
  -2  -7  -1   10.48    3.27
  -2  -7  -1    4.01    3.37
  -2  -7  -1    7.89    3.41
  -7   1   2    7.33    3.97
  -7   1   2    6.74    3.03
   2  -7   1    5.30    3.06
   2  -7   1   12.29    3.94
  -2  -7  -1    6.44    3.71
  -3  -7   1  172.25   12.24
  -3  -7   1  179.95   12.94
  -1  -3   7  192.77   13.64
  -3  -7   1  160.79   12.15
  -3  -7   1  175.57   11.82
  -1  -3   7  216.55   15.22
  -3  -7   1  169.22   12.63
  -7  -1   3  179.74   12.54
  -7  -1   3  175.89   12.41
  -3  -7  -1  174.51   11.75
   3  -7   1  184.15   12.57
  -7   1   3  185.08   12.17
  -3  -7  -1  178.88   12.70
  -3  -7  -1  178.39   12.33
   3  -7   1  173.12   11.73
  -3  -7  -1  170.99   12.80
   0  -7  -2   -2.11    3.00
  -7   2   0   -0.53    2.46
   0  -7   2   -3.74    2.46
  -7  -2   0   -1.25    2.06
   0  -7   2   -1.25    3.76
  -7  -2   0    1.21    3.37
  -7  -2   0   -1.06    2.50
   0  -7   2    1.74    2.98
   0  -7  -2    2.68    4.33
   0  -7   2    3.91    3.46
  -1  -7   2   75.20    7.47
  -1  -7   2   76.73    7.26
   1  -7  -2   66.35    6.77
  -7  -2   1   78.77    5.99
  -7  -2   1   76.40    6.69
  -1  -7   2   54.19    6.40
  -1  -7   2   69.12    6.27
  -7  -2   1   69.96    7.01
   1  -7   2   67.89    6.87
  -1  -7  -2   70.22    6.65
   1  -7   2   63.35    6.50
  -7   2   1   72.09    6.21
   1  -7   2   66.48    5.83
  -7  -2  -1   66.59    5.52
  -1  -7  -2   71.18    7.70
  -7  -2  -1   69.79    6.28
  -7  -2  -1   57.64    7.19
  -2  -7   2    5.21    3.62
  -2  -2   7    3.33    3.67
  -7  -2   2   -2.95    2.66
  -2  -7   2   -1.19    3.49
  -7  -2   2    2.74    2.36
  -2  -7   2   -2.71    3.17
  -7  -2   2    1.11    3.14
  -2  -7   2   -1.91    2.52
  -7  -2   2   -3.01    2.59
  -2  -7  -2    0.00    2.45
  -2  -7  -2    7.00    4.38
  -7  -2  -2    2.19    4.05
  -2  -7  -2   -0.33    3.00
  -7  -2  -2    2.96    2.37
  -7   2   2    5.56    2.70
   2  -7   2    3.53    2.74
   2  -7   2    6.46    3.32
  -7  -2  -2   -0.96    2.38
   0  -7   3   -6.83    3.99
  -7  -3   0    4.51    2.99
   0  -7  -3   -3.04    4.63
  -7  -3   0   -2.28    2.27
  -7   3   0    2.23    2.70
  -7  -3   0   -1.63    3.08
   0  -7   3    4.42    3.58
   0  -7   3    2.06    3.76
   0  -7  -3    3.22    3.73
  -7  -3   0    0.55    3.18
   0  -7   3    1.51    2.71
  -1  -7   3  183.36   12.85
  -7  -3   1  171.70   12.40
  -7  -3   1  182.56   12.63
  -1  -7   3  163.57   12.33
  -7  -3   1  169.90   11.44
  -1  -7   3  162.78   12.19
  -7  -3   1  174.65   12.31
   1  -7  -3  168.10   12.39
  -7  -3   1  176.03   11.74
  -7  -3  -1  177.28   12.30
  -7  -3  -1  177.03   12.47
   1  -7   3  166.49   12.29
   1  -7   3  180.22   11.56
  -7  -3  -1  182.30   11.54
  -1  -7  -3  179.09   12.40
   1  -7   3  189.05   12.82
  -7   3   1  180.37   11.74
   0   0   0    0.00    0.00
;
_shelx_hkl_checksum              62438
loop_
_space_group_symop_operation_xyz
'x, y, z'
'-x+1/2, -y, z+1/2'
'-x, y+1/2, -z+1/2'
'x+1/2, -y+1/2, -z'
'z, x, y'
'z+1/2, -x+1/2, -y'
'-z+1/2, -x, y+1/2'
'-z, x+1/2, -y+1/2'
'y, z, x'
'-y, z+1/2, -x+1/2'
'y+1/2, -z+1/2, -x'
'-y+1/2, -z, x+1/2'
'-x, -y, -z'
'x-1/2, y, -z-1/2'
'x, -y-1/2, z-1/2'
'-x-1/2, y-1/2, z'
'-z, -x, -y'
'-z-1/2, x-1/2, y'
'z-1/2, x, -y-1/2'
'z, -x-1/2, y-1/2'
'-y, -z, -x'
'y, -z-1/2, x-1/2'
'-y-1/2, z-1/2, x'
'y-1/2, z, -x-1/2'
loop_
_atom_site_label
_atom_site_type_symbol
_atom_site_fract_x
_atom_site_fract_y
_atom_site_fract_z
_atom_site_U_iso_or_equiv
_atom_site_adp_type
_atom_site_occupancy
_atom_site_site_symmetry_order
_atom_site_calc_flag
_atom_site_refinement_flags_posn
_atom_site_refinement_flags_adp
_atom_site_refinement_flags_occupancy
Ni2 Ni 1.0000 0.0000 0.0000 0.0023(3) Uani 1 6 d S T P
P3 P 0.88454(10) 0.38454(10) 0.11546(10) 0.0028(3) Uani 1 3 d S T P
loop_
_atom_site_aniso_label
_atom_site_aniso_U_11
_atom_site_aniso_U_22
_atom_site_aniso_U_33
_atom_site_aniso_U_23
_atom_site_aniso_U_13
_atom_site_aniso_U_12
Ni2 0.0023(3) 0.0023(3) 0.0023(3) 0.00010(16) 0.00010(16) 0.00010(16)
P3 0.0028(3) 0.0028(3) 0.0028(3) 0.0001(2) 0.0001(2) -0.0001(2)
loop_
_atom_type_symbol
_atom_type_description
_atom_type_scat_dispersion_real
_atom_type_scat_dispersion_imag
_atom_type_scat_source
Ni Ni 0.3393 1.1124 'International Tables Vol C Tables 4.2.6.8 and 6.1.1.4'
P P 0.1023 0.0942 'International Tables Vol C Tables 4.2.6.8 and 6.1.1.4'
loop_
_geom_angle_atom_site_label_1
_geom_angle_atom_site_label_2
_geom_angle_atom_site_label_3
_geom_angle
_geom_angle_site_symmetry_1
_geom_angle_site_symmetry_3
P3 Ni2 P3 85.619(9) . 16_755
P3 Ni2 P3 94.381(9) . 4
P3 Ni2 P3 180.0 16_755 4
P3 Ni2 P3 94.380(9) . 3_745
P3 Ni2 P3 85.620(9) 16_755 3_745
P3 Ni2 P3 94.380(9) 4 3_745
P3 Ni2 P3 85.620(9) . 15_565
P3 Ni2 P3 94.380(9) 16_755 15_565
P3 Ni2 P3 85.620(9) 4 15_565
P3 Ni2 P3 180.0 3_745 15_565
P3 Ni2 P3 180.0 . 13_755
P3 Ni2 P3 94.380(9) 16_755 13_755
P3 Ni2 P3 85.620(9) 4 13_755
P3 Ni2 P3 85.620(9) 3_745 13_755
P3 Ni2 P3 94.380(9) 15_565 13_755
P3 P3 Ni2 102.26(2) 13_765 3_755
P3 P3 Ni2 102.26(2) 13_765 .
Ni2 P3 Ni2 115.619(17) 3_755 .
P3 P3 Ni2 102.26(2) 13_765 4_455
Ni2 P3 Ni2 115.619(17) 3_755 4_455
Ni2 P3 Ni2 115.619(17) . 4_455
loop_
_geom_bond_atom_site_label_1
_geom_bond_atom_site_label_2
_geom_bond_distance
_geom_bond_site_symmetry_2
Ni2 P3 2.2758(2) .
Ni2 P3 2.2758(2) 16_755
Ni2 P3 2.2758(2) 4
Ni2 P3 2.2758(2) 3_745
Ni2 P3 2.2758(2) 15_565
Ni2 P3 2.2758(2) 13_755
P3 P3 2.179(2) 13_765
P3 Ni2 2.2758(2) 3_755
P3 Ni2 2.2758(2) 4_455
