#------------------------------------------------------------------------------
#$Date: 2020-05-23 01:21:52 +0300 (Sat, 23 May 2020) $
#$Revision: 252282 $
#$URL: file:///home/coder/svn-repositories/cod/cif/4/00/35/4003560.cif $
#------------------------------------------------------------------------------
#
# This file is available in the Crystallography Open Database (COD),
# http://www.crystallography.net/
#
# All data on this site have been placed in the public domain by the
# contributors.
#
data_4003560
loop_
_publ_author_name
'Flynn, Steven'
'Sanghvi, Sheel'
'Nisbet, Matthew L.'
'Griffith, Kent J.'
'Zhang, Weiguo'
'Halasyamani, P. Shiv'
'Haile, Sossina M.'
'Poeppelmeier, Kenneth R.'
_publ_section_title
;
 LiIn2SbO6: A New Rutile-Related Structure Type with Unique Ion Channels
;
_journal_name_full               'Chemistry of Materials'
_journal_paper_doi               10.1021/acs.chemmater.0c01491
_journal_year                    2020
_chemical_formula_moiety         '0.5(In4 O12 Sb2), Li'
_chemical_formula_sum            'In2 Li O6 Sb'
_chemical_formula_weight         454.33
_space_group_crystal_system      orthorhombic
_space_group_IT_number           58
_space_group_name_Hall           '-P 2 2n'
_space_group_name_H-M_alt        'P n n m'
_atom_sites_solution_primary     direct
_audit_creation_date             2020-01-14
_audit_creation_method
;
Olex2 1.2
(compiled 2018.05.29 svn.r3508 for OlexSys, GUI svn.r5506)
;
_cell_angle_alpha                90
_cell_angle_beta                 90
_cell_angle_gamma                90
_cell_formula_units_Z            2
_cell_length_a                   5.0991(2)
_cell_length_b                   5.3298(2)
_cell_length_c                   8.8729(3)
_cell_measurement_reflns_used    1453
_cell_measurement_temperature    323
_cell_measurement_theta_max      36.224
_cell_measurement_theta_min      4.46
_cell_volume                     241.140(15)
_computing_cell_refinement       'SAINT V8.34A (Bruker, 2017)'
_computing_data_collection       'APEX2 V2017.3 (Bruker, 2017)'
_computing_data_reduction        'Bruker SAINT'
_computing_molecular_graphics    'Olex2 (Dolomanov et al., 2009)'
_computing_publication_material  'Olex2 (Dolomanov et al., 2009)'
_computing_structure_refinement  'XL (Sheldrick, 2008)'
_computing_structure_solution    'XS (Sheldrick, 2008)'
_diffrn_ambient_temperature      323.0
_diffrn_detector_area_resol_mean 8
_diffrn_measured_fraction_theta_full 1.000
_diffrn_measured_fraction_theta_max 1.000
_diffrn_measurement_device_type  'Bruker Kappa APEX CCD area detector'
_diffrn_measurement_method       '\w and \f scans'
_diffrn_radiation_monochromator  Triumph
_diffrn_radiation_type           MoK\a
_diffrn_radiation_wavelength     0.71073
_diffrn_reflns_av_R_equivalents  0.0497
_diffrn_reflns_av_unetI/netI     0.0345
_diffrn_reflns_Laue_measured_fraction_full 1.000
_diffrn_reflns_Laue_measured_fraction_max 1.000
_diffrn_reflns_limit_h_max       7
_diffrn_reflns_limit_h_min       -8
_diffrn_reflns_limit_k_max       8
_diffrn_reflns_limit_k_min       -8
_diffrn_reflns_limit_l_max       13
_diffrn_reflns_limit_l_min       -14
_diffrn_reflns_number            3815
_diffrn_reflns_point_group_measured_fraction_full 1.000
_diffrn_reflns_point_group_measured_fraction_max 1.000
_diffrn_reflns_theta_full        25.242
_diffrn_reflns_theta_max         36.322
_diffrn_reflns_theta_min         4.461
_diffrn_source                   microsource
_exptl_absorpt_coefficient_mu    14.993
_exptl_absorpt_correction_T_max  0.7471
_exptl_absorpt_correction_T_min  0.6205
_exptl_absorpt_correction_type   multi-scan
_exptl_absorpt_process_details
'SADABS-2016/2 (Bruker,2016/2) was used for absorption correction. wR2(int) was 0.0834 before and 0.0625 after correction. The Ratio of minimum to maximum transmission is 0.8305. The \l/2 correction factor is Not present.'
_exptl_crystal_colour            colourless
_exptl_crystal_colour_primary    colourless
_exptl_crystal_density_diffrn    6.257
_exptl_crystal_description       block
_exptl_crystal_F_000             400
_exptl_crystal_size_max          0.058
_exptl_crystal_size_mid          0.052
_exptl_crystal_size_min          0.041
_refine_diff_density_max         0.895
_refine_diff_density_min         -1.961
_refine_diff_density_rms         0.290
_refine_ls_extinction_coef       0.0223(11)
_refine_ls_extinction_expression Fc^*^=kFc[1+0.001xFc^2^\l^3^/sin(2\q)]^-1/4^
_refine_ls_extinction_method     'SHELXL-2018/3 (Sheldrick 2018)'
_refine_ls_goodness_of_fit_ref   1.055
_refine_ls_hydrogen_treatment    undef
_refine_ls_matrix_type           full
_refine_ls_number_parameters     32
_refine_ls_number_reflns         619
_refine_ls_number_restraints     0
_refine_ls_restrained_S_all      1.055
_refine_ls_R_factor_all          0.0234
_refine_ls_R_factor_gt           0.0194
_refine_ls_shift/su_max          0.000
_refine_ls_shift/su_mean         0.000
_refine_ls_structure_factor_coef Fsqd
_refine_ls_weighting_details
'w=1/[\s^2^(Fo^2^)+(0.0190P)^2^] where P=(Fo^2^+2Fc^2^)/3'
_refine_ls_weighting_scheme      calc
_refine_ls_wR_factor_gt          0.0507
_refine_ls_wR_factor_ref         0.0537
_reflns_Friedel_coverage         0.000
_reflns_number_gt                507
_reflns_number_total             619
_reflns_threshold_expression     'I > 2\s(I)'
_iucr_refine_instructions_details
;
TITL work4 in Pnnm #58
    work4.res
    created by SHELXL-2018/3 at 12:07:41 on 14-Jan-2020
REM reset to Pnnm #58
CELL 0.71073 5.0991 5.3298 8.8729 90 90 90
ZERR 2 0.0002 0.0002 0.0003 0 0 0
LATT 1
SYMM -X,-Y,+Z
SYMM 0.5+X,0.5-Y,0.5-Z
SYMM 0.5-X,0.5+Y,0.5-Z
SFAC In Li O Sb
UNIT 4 2 12 2
EQIV $1 1-X,-Y,+Z
EQIV $2 1-X,1-Y,+Z
EQIV $3 +X,1+Y,+Z
EQIV $4 1-X,1-Y,1-Z
EQIV $5 +X,1+Y,1-Z
EQIV $6 +X,+Y,1-Z
EQIV $7 1-X,-Y,1-Z

L.S. 10 0 0
PLAN  20
SIZE 0.041 0.052 0.058
TEMP 49.85
FREE Sb1 In1_$3
FREE Sb1 In1_$2
FREE Sb1 In1_$5
FREE Sb1 In1_$4
FREE Sb1 In1_$7
FREE Sb1 In1_$6
FREE Sb1 In1_$1
FREE Sb1 In1
CONN 0 Li1
fmap 2 53
acta
REM <olex2.extras>
REM <HklSrc "%.\\work4.hkl">
REM </olex2.extras>

WGHT    0.019000
EXTI    0.022309
FVAR       0.15811
SB1   4    0.500000    0.500000    0.500000    10.25000    0.00746    0.00401 =
         0.00423    0.00000    0.00000    0.00005
IN1   1    0.500000    0.000000    0.300409    10.50000    0.00742    0.00535 =
         0.00539    0.00000    0.00000   -0.00057
O1    3    0.278712    0.336353    0.343784    11.00000    0.01440    0.01083 =
         0.00996   -0.00365   -0.00620    0.00502
O2    3    0.697985    0.184156    0.500000    10.50000    0.00776    0.00561 =
         0.00830    0.00000    0.00000    0.00146
LI1   2    0.045553    0.101168    0.500000    10.25000    0.00187    0.04736 =
         0.02371    0.00000    0.00000   -0.00018
HKLF 4




REM  work4 in Pnnm #58
REM wR2 = 0.053746, GooF = S = 1.05470, Restrained GooF = 1.05470 for all data
REM R1 = 0.019411 for 507 Fo > 4sig(Fo) and 0.023354 for all 619 data
REM 32 parameters refined using 0 restraints

END  
     
WGHT      0.0190      0.0000 

REM Highest difference peak  0.895,  deepest hole -1.961,  1-sigma level  0.290
Q1    1   0.0687 -0.0002  0.5605  11.00000  0.05    0.90
Q2    1   0.0029  0.3640  0.3725  11.00000  0.05    0.82
Q3    1   0.5034  0.3551  0.2426  11.00000  0.05    0.80
Q4    1   0.0000  0.5000  0.4152  10.50000  0.05    0.79
Q5    1   0.0000  0.0000  0.6395  10.50000  0.05    0.77
Q6    1   0.3989  0.5050  0.4699  11.00000  0.05    0.73
Q7    1   0.5152 -0.0808  0.2234  11.00000  0.05    0.72
Q8    1  -0.0074  0.3567  0.5359  11.00000  0.05    0.71
Q9    1   0.1683  0.3219  0.3446  11.00000  0.05    0.71
Q10   1   0.2005  0.1600  0.5548  11.00000  0.05    0.70
Q11   1   0.6155 -0.0120  0.2861  11.00000  0.05    0.70
Q12   1   0.7349  0.3241  0.3624  11.00000  0.05    0.68
Q13   1   0.2730  0.4812  0.3992  11.00000  0.05    0.67
Q14   1   0.0697  0.2026  0.3767  11.00000  0.05    0.66
Q15   1   0.2857  0.3007  0.3049  11.00000  0.05    0.66
Q16   1   0.7742  0.2212  0.5000  10.50000  0.05    0.64
Q17   1   0.2646  0.2486  0.3959  11.00000  0.05    0.64
Q18   1  -0.0016  0.2872  0.3190  11.00000  0.05    0.64
Q19   1   0.4737  0.5686  0.5711  11.00000  0.05    0.62
Q20   1   0.6117  0.3445  0.5000  10.50000  0.05    0.60

  REM The information below was added by Olex2.
  REM
  REM R1 = 0.019411 for 507 Fo > 4sig(Fo) and 0.023354 for all 4232 data
  REM n/a parameters refined using n/a restraints
  REM Highest difference peak 0.90, deepest hole -1.96
  REM Mean Shift 0, Max Shift 0.000.

  REM +++ Tabular Listing of Refinement Information +++
  REM R1_all = 0.023354
  REM R1_gt = 0.019411
  REM wR_ref = 0.053746
  REM GOOF = 1.05470
  REM Shift_max = 0.000
  REM Shift_mean = 0
  REM Reflections_all = 4232
  REM Reflections_gt = 507
  REM Parameters = n/a
  REM Hole = -1.96
  REM Peak = 0.90
  REM Flack = n/a

  
;
_cod_data_source_file            cm0c01491_si_002.cif
_cod_data_source_block           work4
_cod_database_code               4003560
_shelx_shelxl_version_number     2018/3
_shelx_space_group_comment
;
The symmetry employed for this shelxl refinement is uniquely defined
by the following loop, which should always be used as a source of
symmetry information in preference to the above space-group names.
They are only intended as comments.
;
_shelx_estimated_absorpt_t_max   0.578
_shelx_estimated_absorpt_t_min   0.477
_olex2_refinement_description
;
1. Others
 Fixed Sof: Li1(0.25)
;
_olex2_submission_special_instructions 'No special instructions were received'
loop_
_space_group_symop_operation_xyz
'x, y, z'
'-x, -y, z'
'x+1/2, -y+1/2, -z+1/2'
'-x+1/2, y+1/2, -z+1/2'
'-x, -y, -z'
'x, y, -z'
'-x-1/2, y-1/2, z-1/2'
'x-1/2, -y-1/2, z-1/2'
loop_
_atom_site_label
_atom_site_type_symbol
_atom_site_fract_x
_atom_site_fract_y
_atom_site_fract_z
_atom_site_U_iso_or_equiv
_atom_site_adp_type
_atom_site_occupancy
_atom_site_site_symmetry_order
_atom_site_calc_flag
_atom_site_refinement_flags_posn
_atom_site_refinement_flags_adp
_atom_site_refinement_flags_occupancy
_atom_site_disorder_assembly
_atom_site_disorder_group
Sb1 Sb 0.500000 0.500000 0.500000 0.00523(9) Uani 1 4 d S T P . .
In1 In 0.500000 0.000000 0.30041(2) 0.00605(9) Uani 1 2 d S T P . .
O1 O 0.2787(3) 0.3364(3) 0.34378(13) 0.0117(3) Uani 1 1 d . . . . .
O2 O 0.6980(4) 0.1842(3) 0.500000 0.0072(3) Uani 1 2 d S T P . .
Li1 Li 0.046(3) 0.101(3) 0.500000 0.024(3) Uani 0.5 2 d . . . . .
loop_
_atom_site_aniso_label
_atom_site_aniso_U_11
_atom_site_aniso_U_22
_atom_site_aniso_U_33
_atom_site_aniso_U_23
_atom_site_aniso_U_13
_atom_site_aniso_U_12
Sb1 0.00746(16) 0.00401(13) 0.00423(14) 0.000 0.000 0.00005(6)
In1 0.00742(13) 0.00535(12) 0.00539(12) 0.000 0.000 -0.00057(5)
O1 0.0144(7) 0.0108(5) 0.0100(6) -0.0036(4) -0.0062(5) 0.0050(5)
O2 0.0078(8) 0.0056(6) 0.0083(7) 0.000 0.000 0.0015(7)
Li1 0.002(5) 0.047(8) 0.024(6) 0.000 0.000 0.000(5)
loop_
_atom_type_symbol
_atom_type_description
_atom_type_scat_dispersion_real
_atom_type_scat_dispersion_imag
_atom_type_scat_source
In In -0.7276 1.3100 'International Tables Vol C Tables 4.2.6.8 and 6.1.1.4'
Li Li -0.0003 0.0001 'International Tables Vol C Tables 4.2.6.8 and 6.1.1.4'
O O 0.0106 0.0060 'International Tables Vol C Tables 4.2.6.8 and 6.1.1.4'
Sb Sb -0.5866 1.5461 'International Tables Vol C Tables 4.2.6.8 and 6.1.1.4'
loop_
_geom_angle_atom_site_label_1
_geom_angle_atom_site_label_2
_geom_angle_atom_site_label_3
_geom_angle
_geom_angle_site_symmetry_1
_geom_angle_site_symmetry_3
_geom_angle_publ_flag
O1 Sb1 O1 180.0 5_666 . ?
O1 Sb1 O1 88.37(9) . 6_556 ?
O1 Sb1 O1 180.0 2_665 6_556 ?
O1 Sb1 O1 91.63(9) 5_666 6_556 ?
O1 Sb1 O1 88.37(9) 5_666 2_665 ?
O1 Sb1 O1 91.63(9) . 2_665 ?
O2 Sb1 O1 94.84(6) 5_666 6_556 ?
O2 Sb1 O1 85.16(6) 5_666 2_665 ?
O2 Sb1 O1 85.16(6) . 6_556 ?
O2 Sb1 O1 85.16(6) . . ?
O2 Sb1 O1 94.84(6) . 2_665 ?
O2 Sb1 O1 94.84(6) 5_666 . ?
O2 Sb1 O1 85.16(6) 5_666 5_666 ?
O2 Sb1 O1 94.84(6) . 5_666 ?
O2 Sb1 O2 180.00(10) . 5_666 ?
In1 In1 Sb1 0.000(8) 2_655 1_545 ?
In1 In1 O1 0(10) 2_655 . ?
In1 In1 O1 0(10) 2_655 2_655 ?
In1 In1 O1 0(10) 2_655 4_545 ?
In1 In1 O1 0(10) 2_655 3 ?
In1 In1 O2 0(10) 2_655 5_656 ?
In1 In1 O2 0(10) 2_655 . ?
O1 In1 Sb1 133.04(4) 3 1_545 ?
O1 In1 Sb1 37.59(4) 2_655 1_545 ?
O1 In1 Sb1 89.50(4) 4_545 1_545 ?
O1 In1 Sb1 126.48(4) . 1_545 ?
O1 In1 O1 105.00(7) 4_545 3 ?
O1 In1 O1 159.40(6) 2_655 . ?
O1 In1 O1 95.74(3) 4_545 . ?
O1 In1 O1 96.76(3) 4_545 2_655 ?
O1 In1 O1 95.74(3) 3 2_655 ?
O1 In1 O1 96.76(3) 3 . ?
O1 In1 O2 74.50(6) 2_655 5_656 ?
O1 In1 O2 89.70(5) 3 . ?
O1 In1 O2 89.28(6) 2_655 . ?
O1 In1 O2 89.70(5) 4_545 5_656 ?
O1 In1 O2 163.38(6) 3 5_656 ?
O1 In1 O2 74.50(6) . . ?
O1 In1 O2 163.38(6) 4_545 . ?
O1 In1 O2 89.28(6) . 5_656 ?
O2 In1 Sb1 85.88(4) . 1_545 ?
O2 In1 Sb1 37.39(5) 5_656 1_545 ?
O2 In1 O2 76.97(7) . 5_656 ?
Sb1 O1 In1 101.09(6) . . ?
Sb1 O1 In1 128.75(7) . 3_455 ?
Sb1 O1 In1 101.09(6) . 2_655 ?
In1 O1 In1 126.24(6) 3_455 2_655 ?
In1 O1 In1 0.000(10) . 2_655 ?
In1 O1 In1 126.24(6) 3_455 . ?
Sb1 O2 In1 98.20(6) . . ?
Sb1 O2 In1 98.20(6) . 6_556 ?
Sb1 O2 In1 98.20(6) . 5_656 ?
Sb1 O2 In1 98.20(6) . 2_655 ?
In1 O2 In1 103.03(7) 2_655 5_656 ?
In1 O2 In1 0.0 2_655 . ?
In1 O2 In1 103.03(7) . 6_556 ?
In1 O2 In1 0.0 5_656 6_556 ?
In1 O2 In1 103.03(7) 2_655 6_556 ?
In1 O2 In1 103.03(7) . 5_656 ?
loop_
_geom_bond_atom_site_label_1
_geom_bond_atom_site_label_2
_geom_bond_distance
_geom_bond_site_symmetry_2
_geom_bond_publ_flag
Sb1 O1 1.9888(13) 6_556 ?
Sb1 O1 1.9888(13) . ?
Sb1 O1 1.9888(13) 5_666 ?
Sb1 O1 1.9888(13) 2_665 ?
Sb1 O2 1.9629(18) . ?
Sb1 O2 1.9629(18) 5_666 ?
In1 In1 0.0000(4) 2_655 ?
In1 O1 2.1018(14) 4_545 ?
In1 O1 2.1018(14) 3 ?
In1 O1 2.1529(14) 2_655 ?
In1 O1 2.1529(14) . ?
In1 O2 2.2625(12) . ?
In1 O2 2.2625(12) 5_656 ?
loop_
_refln_index_h
_refln_index_k
_refln_index_l
_refln_F_squared_meas
_refln_F_squared_sigma
-2 0 0 575.31 37.11
-3 0 0 -0.01 0.07
-4 0 0 713.67 46.21
-5 0 0 0.19 0.14
-5 0 0 0.06 0.13
-6 0 0 287.55 18.17
-6 0 0 262.37 18.28
-7 0 0 0.21 0.25
-8 0 0 135.71 9.48
0 -1 0 0 0.03
0 -1 0 0.02 0.03
-1 -1 0 128.44 7.96
-1 1 0 123.32 7.89
-1 -1 0 113.52 7.88
-2 -1 0 -0.02 0.07
-2 -1 0 0.08 0.07
-2 1 0 -0.03 0.05
-3 1 0 82.87 5.7
-3 -1 0 85.87 5.79
-3 -1 0 81.32 5.64
-3 1 0 88.36 5.54
-4 -1 0 0.18 0.18
-4 1 0 0.28 0.19
-4 -1 0 0.23 0.13
-5 -1 0 35.66 2.64
-5 -1 0 30.7 2.4
-5 1 0 29.1 2.44
-6 -1 0 0.06 0.17
-6 1 0 0.03 0.16
-7 -1 0 25.32 2.27
-7 1 0 27.43 2.29
-8 1 0 0.63 0.41
-8 -1 0 0.34 0.32
0 -2 0 665.14 44.28
0 -2 0 696.68 44.32
0 2 0 634.02 44.3
0 2 0 762.3 44.46
-1 -2 0 69.62 4.56
1 -2 0 70.4 4.59
-1 2 0 66.38 4.55
-1 2 0 68.09 4.58
-1 -2 0 71.66 4.58
-2 2 0 827.92 59
-2 -2 0 930.16 59.12
-2 2 0 1000 59.17
-3 -2 0 17.33 1.3
-3 2 0 16.6 1.26
-3 2 0 14.68 1.26
-4 2 0 473.09 29.06
-4 2 0 442.06 28.85
-4 -2 0 426.66 29.02
-5 -2 0 0.35 0.21
-5 2 0 0.4 0.23
-6 2 0 306.01 17.94
-6 -2 0 233.91 17.8
-7 -2 0 0 0.19
-7 2 0 -0.02 0.26
-8 -2 0 140.65 9.65
-8 2 0 136.31 9.62
0 -3 0 0.07 0.07
0 3 0 -0.03 0.04
0 3 0 -0.03 0.05
0 -3 0 -0.03 0.05
1 3 0 92.94 6.06
-1 3 0 100.64 6.14
1 -3 0 84 6.2
-1 -3 0 95.48 6.14
-1 3 0 103.04 6.21
-1 -3 0 83.33 6.15
1 -3 0 91.74 6.18
-1 3 0 94.2 6.1
-2 -3 0 0.1 0.11
-2 3 0 0.41 0.16
-2 3 0 0.3 0.12
-3 3 0 57.02 3.79
-3 3 0 57.7 3.71
-3 -3 0 47.95 3.73
-4 -3 0 0.48 0.2
-4 3 0 0.3 0.13
-4 3 0 0.75 0.24
-5 -3 0 37.74 2.9
-5 3 0 39.78 2.69
-6 -3 0 0.36 0.23
-7 -3 0 11.26 1.4
-8 -3 0 0.1 0.27
-8 3 0 0.34 0.36
0 4 0 522.35 35.27
0 4 0 516.97 35.12
0 -4 0 598.67 35.28
0 -4 0 544.57 35.25
-1 4 0 21.78 1.7
-1 -4 0 24.32 1.66
-1 4 0 22.39 1.59
-1 -4 0 23.86 1.69
1 -4 0 19.13 1.66
-1 4 0 23.98 1.62
1 -4 0 20.92 1.71
1 4 0 23.48 1.53
1 4 0 18.01 1.68
2 -4 0 606.76 37.51
-2 4 0 572.54 37.41
2 4 0 547.1 37.2
-2 -4 0 589.36 37.34
-3 4 0 5.42 0.72
3 -4 0 4.53 0.74
-3 -4 0 5.17 0.66
-4 4 0 337.07 21.72
-4 -4 0 326.75 21.66
-5 -4 0 1.03 0.35
-5 4 0 0.84 0.24
-6 -4 0 198.47 13.26
-7 -4 0 0.28 0.29
0 -5 0 0.09 0.12
0 5 0 0.13 0.13
0 5 0 0.09 0.1
0 -5 0 0.01 0.11
-1 -5 0 56.26 3.55
1 -5 0 51.32 3.59
1 5 0 49.64 3.61
-1 5 0 50.66 3.59
1 -5 0 47 3.54
-1 -5 0 45.49 3.51
2 5 0 0.1 0.16
-2 -5 0 -0.07 0.08
2 -5 0 -0.02 0.11
-2 5 0 0 0.15
-3 5 0 25.64 2.12
-3 -5 0 26.18 2.03
3 -5 0 28.66 2.25
-4 -5 0 0.67 0.27
4 -5 0 0.45 0.31
-4 5 0 0.36 0.25
-5 -5 0 23.7 2.06
5 -5 0 26.49 2.26
-5 5 0 26.3 1.92
6 -5 0 0.36 0.35
-6 -5 0 0.27 0.25
7 -5 0 12.88 1.72
-7 -5 0 13.35 1.57
0 -6 0 536.86 32.12
0 -6 0 470.27 32.04
0 6 0 472.41 32.14
1 -6 0 0.64 0.29
-1 -6 0 0.47 0.24
-1 6 0 0.02 0.17
-1 -6 0 0.14 0.16
1 6 0 0.11 0.18
-2 6 0 250.37 15.67
2 -6 0 225.93 15.64
-2 -6 0 236.19 15.51
2 6 0 230.85 15.67
-3 -6 0 0.07 0.15
3 6 0 -0.03 0.2
3 -6 0 0.05 0.2
-3 6 0 0.37 0.23
-4 -6 0 269.31 16.91
-4 6 0 256.12 17.04
4 -6 0 241.69 17.14
5 -6 0 0.09 0.26
-5 -6 0 -0.02 0.16
6 -6 0 150.04 9.94
-6 -6 0 134.07 9.54
0 -7 0 0.03 0.2
0 -7 0 0.11 0.19
0 7 0 -0.12 0.19
-1 -7 0 19.52 1.73
1 7 0 20.71 1.89
-1 7 0 19.67 1.82
1 -7 0 22.41 1.86
-2 -7 0 0.06 0.17
2 7 0 0.08 0.25
-2 7 0 0.02 0.2
2 -7 0 0.13 0.25
-3 7 0 18.64 2.24
3 -7 0 27.2 2.27
-3 -7 0 25.07 2.03
3 7 0 28.13 2.29
4 7 0 0.38 0.33
-4 -7 0 0.21 0.21
4 -7 0 0.03 0.28
-4 7 0 0.47 0.36
5 -7 0 9.19 1.36
-5 -7 0 7.82 1.02
5 7 0 6.73 1.22
0 -8 0 158.37 10.6
0 8 0 151.63 10.68
1 -8 0 0.78 0.43
1 8 0 1.37 0.52
-1 8 0 1.56 0.5
-1 -8 0 1.57 0.46
2 -8 0 220.69 14.66
-2 -8 0 215.02 14.45
-2 8 0 239.23 14.72
2 8 0 194.19 14.65
3 8 0 3 0.73
-3 8 0 0.6 0.4
3 -8 0 0.5 0.39
-3 -8 0 0.87 0.34
0 0 -1 0.01 0.02
0 0 1 0.05 0.02
-1 0 1 376.44 23.63
-1 0 -1 311.58 23.59
-1 0 -1 414.04 23.68
-1 0 1 366.91 23.62
-2 0 1 0.07 0.07
-2 0 -1 -0.02 0.07
-2 0 1 -0.05 0.04
-3 0 1 134.83 8.75
-3 0 1 129.98 8.79
-4 0 -1 -0.02 0.09
-4 0 1 -0.01 0.11
-4 0 1 0.12 0.13
-5 0 1 183.95 11.5
-5 0 -1 160.78 11.58
-6 0 1 0.02 0.15
-6 0 -1 0.06 0.16
-6 0 -1 0.12 0.25
-7 0 1 43.6 3.43
-7 0 -1 43.3 3.54
-7 0 -1 42.76 3.33
-8 0 -1 -0.08 0.25
-8 0 1 0 0.26
0 -1 -1 39.52 2.39
0 -1 1 36.8 2.39
0 -1 1 36.93 2.42
0 -1 -1 32.46 2.43
-1 -1 -1 0.17 0.05
-1 -1 -1 0.09 0.07
-1 1 1 0.09 0.06
1 -1 1 0.15 0.07
-1 1 -1 0.18 0.07
-1 -1 1 0.11 0.07
1 -1 -1 0.18 0.06
-1 1 -1 0.19 0.08
-1 1 -1 0.09 0.07
-2 1 1 13.88 1.05
-2 -1 -1 15.15 1.16
-2 1 -1 13.07 1.09
-2 -1 1 15.62 1.11
-2 1 -1 12.66 1.05
-2 1 -1 15.38 0.99
-3 1 1 0.19 0.12
-3 -1 -1 0.13 0.15
-3 1 1 0.17 0.09
-3 1 -1 0.19 0.13
-3 -1 1 0.1 0.1
-3 1 -1 0.32 0.07
-4 -1 -1 16 1.27
-4 -1 -1 17.46 1.46
-4 1 1 15.3 1.11
-4 1 1 14.87 1.3
-4 1 -1 15.32 1.35
-4 -1 1 14.54 1.29
-5 -1 -1 1.04 0.3
-5 -1 -1 1.07 0.43
-5 1 1 1.43 0.41
-5 -1 1 0.86 0.3
-5 1 -1 0.6 0.31
-6 -1 -1 5.54 0.82
-6 1 1 4.43 0.81
-6 -1 -1 4.72 0.91
-6 1 -1 3.81 0.79
-6 -1 1 3.97 0.75
-7 1 1 0.62 0.37
-7 -1 -1 0.43 0.31
-7 -1 1 0.16 0.24
-7 1 -1 1.21 0.44
-7 1 -1 0.23 0.29
-8 1 1 5.99 1.11
-8 -1 -1 4.1 0.88
-8 1 -1 4.53 0.89
-8 -1 1 5.56 1.05
0 -2 1 0 0.05
0 2 -1 0.05 0.05
0 -2 1 0.02 0.04
0 2 -1 0.04 0.05
0 -2 -1 0.03 0.05
0 -2 -1 0.03 0.05
0 2 1 -0.02 0.05
-1 2 1 281.95 19.06
-1 -2 -1 306.28 19.1
-1 -2 -1 296.41 19.01
-1 -2 -1 269.98 19.12
1 -2 1 294.07 19.09
1 -2 -1 298.99 19.13
-1 2 -1 297.92 19.09
-1 -2 1 315.32 19.09
-1 2 -1 317.43 19.08
-1 2 -1 272.16 19.06
-2 -2 -1 5.67 0.48
-2 -2 -1 6.28 0.75
-2 2 1 4.78 0.56
-2 2 -1 5.46 0.61
-2 2 -1 4.72 0.56
2 -2 -1 5.25 0.44
-2 2 -1 5.91 0.52
-2 -2 1 4.58 0.57
-3 2 1 240.66 16.39
-3 -2 -1 246.56 16.56
-3 -2 -1 230.82 16.35
-3 2 1 233.31 16.34
-3 2 -1 252.98 16.44
3 -2 -1 260.42 16.28
-3 -2 1 288.76 16.48
-3 2 -1 263.06 16.29
-4 -2 -1 3.54 0.66
-4 2 1 2.76 0.39
-4 -2 -1 2.34 0.44
-4 2 1 3.16 0.5
-4 2 -1 2.83 0.51
-4 -2 1 2.77 0.52
-4 2 -1 3.99 0.38
-5 2 1 85.65 6.27
-5 2 1 103.83 6.07
-5 -2 -1 87.65 6.27
-5 -2 -1 92.08 6.56
-5 -2 1 88.54 6.35
-5 2 -1 90.26 6.36
-6 -2 -1 2.71 0.57
-6 -2 1 1.87 0.53
-6 2 -1 1.71 0.53
-7 2 1 66.79 5.35
-7 -2 -1 66.19 5.31
-7 -2 1 76.08 5.44
-7 2 -1 90.52 5.75
-8 2 1 -0.07 0.27
-8 -2 -1 0.57 0.34
-8 2 -1 -0.1 0.27
-8 -2 1 0.54 0.44
0 -3 1 18.71 1.37
0 -3 1 19.16 1.4
0 -3 -1 18.64 1.42
0 3 -1 20.38 1.35
0 3 -1 18.01 1.41
0 -3 -1 19.87 1.37
0 3 1 16.32 1.38
1 -3 1 0.82 0.22
-1 -3 -1 1.35 0.28
1 3 -1 1.33 0.21
1 -3 1 1.79 0.32
-1 -3 -1 0.86 0.18
-1 3 1 0.91 0.22
-1 -3 1 1.53 0.25
1 3 1 1.17 0.15
1 -3 -1 0.91 0.25
-1 3 -1 1.18 0.23
-1 3 -1 1.25 0.24
-1 -3 1 0.94 0.21
-1 3 -1 0.79 0.22
-2 -3 -1 19.15 1.52
-2 3 -1 23 1.57
-2 -3 1 21.45 1.61
-2 3 -1 23.09 1.6
-2 3 -1 18.83 1.59
2 -3 -1 23.21 1.69
-3 3 1 -0.01 0.08
-3 -3 -1 -0.01 0.07
3 -3 -1 0.24 0.1
-3 -3 1 -0.05 0.08
-3 3 -1 -0.04 0.08
-3 3 -1 0.06 0.11
-4 -3 -1 6.6 0.78
-4 -3 1 8.3 0.95
-4 3 -1 6.62 0.66
-4 3 -1 5.83 0.79
-5 -3 -1 0.02 0.12
-5 3 1 0 0.1
-5 3 -1 0.18 0.19
-5 3 -1 0.21 0.11
-5 -3 1 0.05 0.13
-6 -3 -1 9.62 1.13
-6 -3 1 6.99 1.04
-7 -3 -1 0.25 0.27
-7 3 1 0.53 0.35
-7 -3 1 0.1 0.21
0 -4 -1 0.11 0.12
0 4 -1 0.02 0.07
0 4 -1 0.04 0.09
0 -4 1 0.05 0.07
0 4 1 -0.11 0.08
0 -4 1 0 0.07
0 -4 -1 -0.03 0.06
-1 4 1 210.46 12.92
1 -4 1 166.52 12.86
-1 -4 -1 206.56 12.92
1 -4 1 172.38 12.88
-1 4 1 210.61 12.76
-1 -4 -1 201.73 12.82
1 4 -1 196.17 12.93
1 4 -1 196.13 12.76
1 4 1 198.45 12.94
-1 4 -1 173.23 12.88
-1 4 -1 204.74 12.84
-1 -4 1 208.95 12.85
-1 4 -1 197.54 12.84
-1 -4 1 204.53 12.86
1 -4 -1 196.9 12.94
2 -4 1 2.76 0.5
-2 4 1 2.57 0.45
2 4 -1 1.9 0.31
-2 -4 -1 2.01 0.33
2 -4 -1 1.76 0.43
-2 4 -1 1.56 0.32
-2 4 -1 2.3 0.43
-2 4 -1 2.41 0.42
-2 -4 1 1.85 0.38
-3 -4 -1 162.97 10.38
-3 4 1 162.39 10.47
-3 4 -1 152.83 10.48
-3 4 -1 155.77 10.45
3 -4 -1 156.46 10.57
-3 -4 1 154.03 10.46
-4 -4 -1 2.57 0.46
-4 4 1 3.34 0.56
-4 -4 1 2.91 0.55
4 -4 -1 1.92 0.5
-4 4 -1 2.08 0.47
-5 4 1 71.87 5.26
-5 -4 -1 73.22 5.39
-5 4 -1 84.96 5.26
-5 -4 1 83.42 5.53
-6 -4 -1 1.61 0.45
-6 4 1 1.84 0.33
-6 -4 1 2.07 0.53
-7 -4 -1 52.34 3.97
-7 -4 1 55.57 4.09
0 -5 -1 10.71 0.89
0 5 -1 8.51 1.04
0 5 -1 9.2 0.79
0 5 1 9.43 1.06
0 -5 -1 8.37 1.01
0 -5 1 8.15 0.99
0 -5 1 9.14 0.87
1 -5 1 0.35 0.2
-1 5 1 0.24 0.17
-1 -5 -1 0.29 0.15
1 5 -1 0.24 0.19
1 5 -1 0.47 0.16
-1 -5 -1 0.37 0.2
1 -5 1 0.27 0.18
1 5 1 0.12 0.14
-1 5 -1 0.21 0.17
1 -5 -1 0.27 0.21
-1 -5 1 0.48 0.2
-1 5 -1 0.18 0.14
-1 5 -1 0.17 0.14
-1 -5 1 0.1 0.13
-2 -5 -1 15.11 1.12
2 5 -1 17.15 1.33
2 -5 1 13.07 1.24
-2 5 1 11.26 1.29
-2 -5 1 11.96 1.13
-2 5 -1 11.99 1.32
2 -5 -1 10.37 1.33
2 5 1 13.17 1.41
3 -5 1 0.39 0.25
-3 5 1 1.08 0.34
-3 -5 -1 0.37 0.17
3 -5 -1 0.47 0.29
-3 -5 1 0.22 0.18
-3 5 -1 0.12 0.17
-4 -5 -1 8.68 0.94
4 -5 1 5.35 0.92
-4 5 1 6.99 0.96
-4 5 -1 5.09 0.86
-4 -5 1 8.9 1.05
4 -5 -1 8.15 1.18
-5 -5 -1 0.01 0.17
5 -5 1 0.2 0.23
-5 5 1 -0.03 0.12
5 -5 -1 0.17 0.26
-5 -5 1 0.14 0.21
-5 5 -1 0.01 0.15
6 -5 1 3.43 0.76
-6 -5 -1 1.81 0.5
-6 5 1 2 0.41
-6 -5 1 1.91 0.53
6 -5 -1 2.59 0.67
-7 -5 -1 0.03 0.24
7 -5 1 0.06 0.29
7 -5 -1 -0.19 0.32
-7 -5 1 0.23 0.28
0 -6 -1 0.08 0.14
0 -6 1 -0.05 0.12
0 -6 1 0 0.12
0 6 1 -0.01 0.16
0 -6 -1 -0.05 0.11
0 6 -1 -0.17 0.15
-1 -6 -1 121.32 8.01
1 6 -1 135.42 8.23
1 -6 1 121.48 8.11
-1 6 1 111.73 8.1
1 -6 1 119.64 8.11
-1 -6 -1 120.8 8.11
-1 -6 1 128.77 8.11
1 -6 -1 104.39 8.09
1 6 1 110.64 8.13
-1 6 -1 114.91 8.12
-1 -6 1 118.15 8.03
-1 6 -1 123.31 7.96
2 -6 1 0.04 0.17
-2 6 1 -0.18 0.15
-2 -6 -1 -0.13 0.12
2 6 -1 -0.08 0.17
-2 6 -1 0.08 0.15
2 6 1 0.09 0.19
-2 -6 1 0.07 0.16
2 -6 -1 0.02 0.17
3 -6 1 62.41 4.96
-3 6 1 66.28 4.91
-3 -6 -1 64.06 4.73
3 6 -1 60.57 4.93
3 6 1 76.16 5.06
-3 6 -1 72.89 4.98
-3 -6 1 76.04 4.88
3 -6 -1 72.47 5.04
-4 6 1 0.05 0.19
4 -6 1 0.12 0.26
-4 -6 -1 0.26 0.18
4 -6 -1 0.13 0.25
-4 6 -1 0.22 0.23
-4 -6 1 0.27 0.2
5 -6 1 65.38 5.4
-5 -6 -1 70.91 5.12
-5 6 -1 82.44 5.08
-5 -6 1 71.4 5.24
5 -6 -1 77.69 5.55
-6 -6 -1 0.05 0.2
-6 6 1 0.16 0.21
6 -6 1 -0.05 0.33
6 -6 -1 -0.09 0.26
-6 -6 1 0.04 0.22
0 -7 1 9.3 1.2
0 7 1 12.15 1.44
0 -7 1 10.17 1.24
0 7 -1 9.34 1.29
0 -7 -1 11.59 1.36
-1 -7 -1 -0.07 0.14
1 7 -1 -0.01 0.21
-1 7 1 0.2 0.21
1 -7 1 0.11 0.22
1 7 1 -0.08 0.18
-1 -7 1 -0.02 0.16
-1 7 -1 0.03 0.15
1 -7 -1 0.04 0.21
-2 7 1 3.34 0.69
2 -7 1 3.32 0.7
2 7 -1 5.25 0.92
-2 -7 -1 2.97 0.56
2 7 1 4.02 0.79
-2 7 -1 2.6 0.62
2 -7 -1 2.25 0.61
-2 -7 1 3.26 0.65
-3 -7 -1 -0.06 0.16
3 -7 1 0.1 0.25
3 7 -1 -0.13 0.2
-3 7 1 0.15 0.22
3 7 1 0.04 0.21
-3 -7 1 -0.11 0.16
-3 7 -1 0.11 0.22
3 -7 -1 -0.14 0.21
-4 7 1 6.04 1
4 7 -1 4.53 0.95
-4 -7 -1 7.38 0.89
4 -7 1 7.39 1.16
4 -7 -1 5.45 1.01
-4 7 -1 6.12 1.02
4 7 1 5.13 1.01
-4 -7 1 5.25 0.85
5 7 -1 0.23 0.33
5 -7 1 0.88 0.48
-5 7 1 0.22 0.3
-5 -7 -1 0.35 0.25
-5 -7 1 0.2 0.29
5 -7 -1 0.11 0.35
5 7 1 0.2 0.37
-5 7 -1 0.33 0.25
0 8 1 -0.16 0.21
0 -8 1 0.06 0.21
0 8 -1 0.06 0.26
0 -8 -1 0.25 0.3
1 -8 1 56.26 4.12
-1 -8 -1 52.05 3.94
1 8 -1 57.38 4.25
-1 -8 1 47.65 3.98
1 -8 -1 54.02 4.18
-1 8 -1 58.66 4.24
1 8 1 57 4.24
2 -8 1 -0.12 0.29
2 8 -1 -0.09 0.27
-2 -8 -1 -0.03 0.2
-2 8 1 -0.06 0.28
-2 8 -1 -0.08 0.25
2 -8 -1 0.25 0.34
2 8 1 0.13 0.27
-2 -8 1 0.01 0.21
3 -8 1 59.47 4.73
3 8 -1 64.69 4.82
-3 -8 -1 62.59 4.47
-3 8 1 64.42 4.75
3 8 1 60.76 4.79
3 -8 -1 68.44 4.86
-3 -8 1 59.95 4.59
-3 8 -1 61.22 4.73
0 0 2 30.47 2.07
0 0 -2 32.37 2.1
-1 0 -2 -0.01 0.03
-1 0 2 -0.01 0.05
-1 0 -2 -0.05 0.05
-1 0 2 0.02 0.03
-2 0 2 35.05 2.66
-2 0 -2 43.76 2.77
-2 0 -2 39.4 2.62
-2 0 2 37.55 2.57
-3 0 2 -0.06 0.08
-3 0 -2 0.01 0.1
-4 0 -2 21.71 1.8
-4 0 2 21.28 1.7
-5 0 -2 0.02 0.14
-5 0 2 -0.15 0.09
-6 0 -2 7.32 1.17
-6 0 2 6.88 1.05
-7 0 2 0.13 0.25
-7 0 -2 -0.02 0.18
-7 0 -2 0.56 0.36
-8 0 -2 11.12 1.45
-8 0 2 9.68 1.47
0 1 -2 -0.04 0.03
0 -1 -2 0.06 0.05
0 -1 2 0.02 0.04
0 -1 -2 0.01 0.04
-1 -1 -2 723.93 46.79
-1 -1 -2 714.6 46.94
1 -1 2 695.57 46.79
-1 1 2 738.41 46.86
-1 1 -2 645.52 46.83
-1 1 -2 731.91 46.88
1 -1 -2 698.73 46.95
-1 1 -2 773.15 46.86
-1 1 -2 836.72 46.88
-1 -1 2 707.19 46.81
1 -1 -2 739.14 46.92
-2 -1 -2 7.13 0.7
-2 1 -2 7.69 0.63
-2 1 -2 7.24 0.68
-2 1 -2 7.37 0.5
-2 -1 2 8.03 0.69
-3 -1 -2 511.29 35.97
-3 1 2 588.36 35.74
-3 -1 2 602.69 35.92
-3 1 -2 516.75 35.91
-4 1 2 3.53 0.58
-4 -1 -2 4.51 0.75
-4 1 2 3.52 0.41
-4 -1 2 4.07 0.63
-4 1 -2 3.03 0.57
-5 1 2 257.04 16.2
-5 -1 -2 237.18 16.34
-5 -1 -2 255.88 16.1
-5 1 -2 234.24 16.25
-5 -1 2 239.31 16.19
-6 -1 -2 2.06 0.61
-6 1 2 3.12 0.65
-6 -1 -2 1.5 0.42
-6 -1 2 2.56 0.61
-6 1 -2 2.56 0.64
-7 -1 -2 164.28 11.55
-7 -1 -2 150.49 11.19
-7 1 2 165.5 11.36
-7 -1 2 163.35 11.38
-7 1 -2 187.92 11.55
-8 1 2 0.59 0.39
-8 -1 -2 0.27 0.29
-8 1 -2 0.52 0.38
-8 -1 2 0.19 0.36
-8 1 -2 0.54 0.36
0 -2 2 57.02 3.63
0 2 -2 57.48 3.68
0 2 -2 56.46 3.67
0 -2 2 60.02 3.7
0 -2 -2 49.4 3.7
0 2 2 50.04 3.66
-1 -2 -2 0.01 0.07
-1 -2 -2 -0.01 0.03
1 -2 2 0.04 0.06
-1 2 2 0.08 0.07
-1 2 -2 0.06 0.07
-1 -2 2 0.07 0.08
1 -2 -2 0.01 0.05
1 -2 -2 0.04 0.08
-1 2 -2 0.13 0.08
-1 2 -2 0.13 0.08
-2 -2 -2 22.96 1.82
-2 2 2 22.4 1.69
-2 -2 -2 25.86 1.65
2 -2 -2 22.89 1.67
-2 -2 2 22.42 1.75
-2 2 -2 23.44 1.73
2 -2 -2 23.8 1.77
-2 2 -2 25.1 1.75
-2 2 -2 24 1.73
-3 2 2 0.05 0.08
-3 -2 -2 0.13 0.15
-3 -2 -2 -0.01 0.06
-3 -2 2 0.04 0.1
3 -2 -2 0.03 0.07
-3 2 -2 0.12 0.11
-3 2 -2 -0.03 0.08
-3 2 -2 0.11 0.05
-4 -2 -2 14.68 1.21
-4 2 2 13.14 1.13
-4 -2 -2 14.34 1.43
-4 -2 2 17.06 1.35
-4 2 -2 17.16 1.37
-5 -2 -2 0.27 0.24
-5 -2 -2 0.17 0.17
-5 2 2 0.33 0.13
-5 2 -2 0.28 0.23
-5 -2 2 0.14 0.19
-6 2 2 10.87 1.35
-6 -2 -2 13.6 1.72
-6 -2 -2 8.49 1.16
-6 2 -2 12.11 1.46
-6 -2 2 12.26 1.43
-7 2 2 0.31 0.3
-7 -2 -2 0.26 0.32
-7 2 -2 0 0.26
-7 -2 2 0.45 0.33
-8 -2 -2 3.03 0.74
-8 2 2 4.45 0.98
-8 2 -2 3.94 0.82
-8 -2 2 3.3 0.79
0 3 -2 0.17 0.1
0 -3 -2 -0.01 0.05
0 -3 2 0.04 0.08
0 -3 -2 0.21 0.13
0 3 -2 0.06 0.08
0 3 2 -0.01 0.08
0 -3 2 -0.07 0.04
-1 -3 -2 632.23 40.63
-1 3 2 592.25 40.55
1 3 -2 669.53 40.61
1 -3 2 615.25 40.6
1 3 -2 654.32 40.54
1 -3 2 645.26 40.57
-1 -3 -2 622.7 40.47
-1 3 -2 637.72 40.59
-1 -3 2 635.65 40.5
1 -3 -2 711.73 40.67
-1 3 -2 536.97 40.54
-1 3 -2 608.02 40.58
-1 -3 2 619.85 40.58
-2 -3 -2 0.43 0.12
-2 -3 -2 -0.05 0.08
-2 3 2 0.05 0.1
-2 3 -2 -0.04 0.06
-2 -3 2 0.05 0.1
-2 3 -2 -0.03 0.07
2 -3 -2 -0.06 0.07
2 -3 -2 0 0.07
-2 3 -2 -0.01 0.07
-3 3 2 352.72 22.64
-3 -3 -2 347.75 22.56
-3 -3 -2 299.95 22.78
3 -3 -2 339.19 22.75
-3 -3 2 355.34 22.71
-3 3 -2 349.8 22.7
-3 3 -2 347.33 22.69
-3 3 -2 358.43 22.69
3 -3 -2 382.51 22.56
-4 -3 -2 0.42 0.18
-4 -3 -2 0.28 0.22
-4 3 -2 0.39 0.23
-4 3 -2 0.15 0.1
-4 -3 2 0.35 0.19
-5 -3 -2 295.56 19.14
-5 3 2 275.33 18.57
-5 -3 -2 304.73 18.73
-5 -3 2 282.74 18.85
-5 3 -2 272.47 18.83
-6 3 2 0.11 0.12
-6 -3 -2 -0.11 0.15
-6 -3 2 0.01 0.16
-6 3 -2 -0.32 0.27
-7 -3 -2 109.62 7.79
-7 3 2 123.37 8.05
-7 -3 2 108.1 7.94
0 -4 -2 15.62 1.39
0 -4 2 15.18 1.36
0 4 2 19.49 1.42
0 4 -2 17.28 1.41
0 -4 -2 18.52 1.33
0 4 -2 18.56 1.33
0 -4 2 17.65 1.33
-1 4 2 0.15 0.12
1 4 -2 0.37 0.14
1 4 -2 0.3 0.18
1 -4 2 0.39 0.16
1 -4 2 0.47 0.2
-1 -4 -2 0.36 0.13
-1 -4 -2 0.66 0.22
-1 4 -2 0.52 0.21
1 4 2 0.07 0.11
-1 -4 2 0.3 0.16
-1 4 -2 0.76 0.22
-1 -4 2 0.69 0.19
1 -4 -2 0.53 0.23
-1 4 -2 0.43 0.18
-2 -4 -2 22.13 1.59
2 4 -2 22.75 1.65
2 -4 2 22.33 1.75
-2 4 2 22.22 1.72
-2 4 -2 22.73 1.71
-2 -4 2 19.05 1.69
-2 4 -2 22.28 1.75
2 -4 -2 24.43 1.86
-2 4 -2 22.17 1.71
-3 4 2 0.05 0.11
-3 -4 -2 -0.04 0.08
3 -4 -2 0.11 0.17
-3 4 -2 -0.04 0.15
-3 -4 2 -0.09 0.09
-3 4 -2 -0.04 0.1
-4 4 2 11.67 1.17
-4 -4 -2 9.4 0.85
4 -4 -2 8.54 1.16
-4 4 -2 7.35 1.02
-4 -4 2 11.44 1.23
-4 4 -2 8.66 1.08
-5 -4 -2 0.15 0.16
-5 4 2 0.15 0.15
-5 -4 2 0.48 0.27
5 -4 -2 0.36 0.31
-6 -4 -2 8.71 1.03
-6 4 2 6.19 0.76
-6 -4 2 9 1.18
6 -4 -2 9.08 1.26
-7 -4 -2 0.86 0.34
7 -4 -2 0.09 0.31
-7 -4 2 0.15 0.25
0 -5 -2 0.1 0.11
0 5 -2 -0.09 0.1
0 5 -2 0 0.11
0 -5 2 0 0.09
0 5 2 0.01 0.1
0 -5 -2 0.02 0.14
0 -5 2 -0.03 0.09
-1 -5 -2 323.47 20.81
1 -5 2 348.55 21
1 -5 2 326.82 20.9
-1 -5 -2 311.53 20.97
-1 5 2 307.49 20.93
1 5 -2 311.8 20.78
1 5 -2 301.49 20.96
-1 5 -2 349.38 20.93
-1 -5 2 321.24 20.83
1 5 2 314.98 20.97
1 -5 -2 309.25 21
-1 -5 2 316.14 20.93
-1 5 -2 314.05 20.95
-1 5 -2 326.55 20.88
-2 -5 -2 0.7 0.2
-2 5 2 0.25 0.18
2 5 -2 0.26 0.2
2 -5 2 0.26 0.21
2 5 -2 0.24 0.15
2 -5 -2 0.45 0.24
-2 5 -2 0.29 0.18
-2 5 -2 0.26 0.19
-2 5 -2 0.18 0.19
-2 -5 2 0.54 0.24
-3 -5 -2 269.21 18.84
-3 5 2 291.76 19.04
3 -5 2 285.92 19.1
-3 -5 2 301.13 19.05
3 -5 -2 274.21 19.17
-3 5 -2 321.68 19.13
-4 -5 -2 0.91 0.27
4 -5 2 1.58 0.48
-4 5 2 1.34 0.4
-4 -5 2 1.85 0.48
4 -5 -2 0.87 0.39
-4 5 -2 1.72 0.48
-5 -5 -2 145.22 10.14
-5 5 2 162.36 10.12
-5 -5 2 157.15 10.38
-5 5 -2 156.95 10.04
5 -5 -2 138.63 10.45
-6 5 2 0.63 0.25
-6 -5 -2 0.1 0.19
-6 -5 2 0.4 0.32
6 -5 -2 0.48 0.33
0 6 2 9.18 1.13
0 -6 2 9.69 1.03
0 -6 2 8.64 1.06
0 -6 -2 9.51 1.18
0 6 -2 8.18 1.12
0 6 -2 9.41 1.13
-1 -6 -2 0.77 0.3
1 6 -2 0.58 0.28
-1 -6 -2 0.3 0.18
1 -6 2 0.58 0.25
1 -6 2 0.46 0.26
-1 6 2 0.59 0.26
1 6 2 0.65 0.29
-1 -6 2 0.68 0.27
-1 -6 2 0.85 0.32
-1 6 -2 1.44 0.35
1 -6 -2 0.35 0.25
-1 6 -2 0.8 0.32
2 -6 2 8.63 1.1
2 6 -2 9.08 1.19
-2 -6 -2 9.3 0.88
-2 6 2 6.82 1.05
-2 6 -2 10.41 1.23
-2 6 -2 9.9 1.09
2 -6 -2 9.52 1.23
-2 -6 2 10.93 1.2
2 6 2 8.85 1.19
-3 6 2 0.12 0.17
3 -6 2 -0.09 0.2
3 6 -2 0.05 0.18
-3 -6 -2 0.09 0.13
3 6 2 0.24 0.26
-3 -6 2 -0.03 0.15
-3 6 -2 0.07 0.19
3 -6 -2 0.09 0.2
4 -6 2 10.27 1.33
-4 -6 -2 7.45 0.88
4 6 -2 10.55 1.32
-4 6 2 7.41 1.09
4 -6 -2 6.84 1.14
-4 6 -2 11.06 1.29
-4 -6 2 7.65 1.06
5 -6 2 -0.19 0.22
-5 -6 -2 -0.03 0.17
5 -6 -2 0.23 0.35
-5 6 -2 0.04 0.18
-5 -6 2 -0.06 0.2
-6 6 2 2.81 0.5
-6 -6 -2 2.55 0.51
6 -6 2 1.58 0.6
-6 -6 2 2.77 0.68
6 -6 -2 2.37 0.72
0 -7 -2 0.27 0.27
0 -7 2 0 0.18
0 7 -2 0.13 0.24
0 7 2 0.11 0.2
1 -7 2 189.05 12.83
-1 7 2 192.79 12.86
-1 -7 -2 189.79 12.66
1 7 -2 195.79 12.94
1 -7 2 193.49 12.78
1 7 2 181.32 12.88
-1 -7 2 186.15 12.81
-1 7 -2 195.89 12.92
1 -7 -2 197 12.93
-2 7 2 0.62 0.33
-2 -7 -2 0.74 0.27
2 -7 2 0.01 0.21
2 7 -2 0.12 0.25
2 -7 -2 0.23 0.26
-2 -7 2 1.35 0.42
2 7 2 0.49 0.32
-2 7 -2 0.45 0.32
3 7 -2 155.39 10.93
3 -7 2 173.42 10.95
-3 -7 -2 157.62 10.62
-3 7 2 168.99 10.92
-3 -7 2 149.62 10.79
3 -7 -2 159.11 11
3 7 2 153.6 10.95
-3 7 -2 161.43 10.92
4 -7 2 0.63 0.37
4 7 -2 0.86 0.4
-4 7 2 0.42 0.36
-4 -7 -2 0.42 0.26
-4 7 -2 0.37 0.34
4 -7 -2 0.54 0.41
-4 -7 2 0.31 0.29
4 7 2 0.65 0.39
5 7 -2 116.63 7.76
5 -7 2 95.3 7.69
-5 -7 -2 113.25 7.33
-5 -7 2 103.81 7.53
5 -7 -2 116.5 7.82
5 7 2 102.34 7.71
0 8 -2 10.05 1.34
0 -8 2 8.55 1.19
0 8 2 9.88 1.32
0 -8 -2 6.64 1.12
1 8 -2 0.15 0.25
-1 8 2 0.02 0.23
1 -8 -2 -0.45 0.25
1 8 2 0.16 0.25
-1 8 -2 0.05 0.2
-1 -8 2 0.01 0.22
-2 -8 -2 4.82 0.69
-2 8 2 4.78 0.87
2 8 -2 1.93 0.64
-2 8 -2 3.6 0.81
-2 -8 2 4.36 0.8
2 8 2 1.21 0.53
2 -8 -2 3.65 0.84
3 -8 2 0.08 0.37
-3 8 2 0.17 0.24
3 8 -2 0.29 0.34
-3 -8 -2 0.34 0.24
-3 -8 2 -0.13 0.24
-3 8 -2 0.03 0.27
3 -8 -2 0.41 0.38
3 8 2 -0.03 0.31
0 0 -3 0.14 0.07
0 0 -3 -0.01 0.06
0 0 3 0.02 0.04
-1 0 -3 59.52 4.01
-1 0 3 67.32 4.05
1 0 3 58.81 3.96
-1 0 3 53.68 3.96
-1 0 -3 63.51 4.08
1 0 -3 63.21 3.98
-1 0 -3 59.91 4
-2 0 3 0.01 0.04
-2 0 -3 0.17 0.12
-2 0 -3 0.08 0.08
-2 0 3 0.06 0.08
-3 0 3 28.01 2.02
-3 0 -3 25.38 2.07
-4 0 3 0 0.12
-4 0 -3 -0.05 0.11
-5 0 3 20.95 1.65
-5 0 -3 14.88 1.6
-6 0 3 -0.08 0.17
-6 0 -3 0.15 0.24
-7 0 3 3.87 0.83
-7 0 -3 4.27 0.79
-7 0 -3 3.57 0.87
-8 0 3 0.14 0.34
-8 0 -3 -0.06 0.26
-8 0 -3 0.16 0.34
0 -1 3 511.87 33.47
0 -1 -3 482.45 33.49
0 1 -3 535.93 33.54
0 -1 -3 500.49 33.5
0 -1 -3 568.12 33.52
1 -1 3 65.24 4.6
-1 1 3 70.22 4.62
-1 -1 -3 71.28 4.54
-1 -1 -3 71.05 4.51
-1 -1 -3 76.79 4.71
1 -1 -3 64.79 4.62
-1 1 -3 72.05 4.57
-1 1 -3 71.38 4.62
-1 1 -3 73.48 4.68
-1 1 -3 69.61 4.6
1 -1 -3 63.56 4.63
-1 -1 3 67.21 4.64
-2 -1 -3 649.92 47.41
-2 1 3 841.66 47.37
-2 -1 -3 697.79 47.24
-2 1 -3 738.22 47.41
-2 1 -3 736.04 47.33
-2 -1 3 746.39 47.38
-3 1 3 15.79 1.12
-3 -1 -3 15.97 1.34
-3 1 3 13.66 1.21
-3 1 -3 14.48 1.18
-3 1 -3 15.72 1.31
-3 -1 3 14.05 1.25
-4 1 3 361.13 21.93
-4 1 3 334.57 22.12
-4 -1 -3 304.29 22.25
-4 1 -3 337.59 22.22
-4 -1 3 355.32 22.2
-5 1 3 1.53 0.44
-5 -1 -3 1.02 0.42
-5 1 -3 0.96 0.39
-5 -1 3 1.15 0.37
-6 -1 -3 206.77 13.45
-6 -1 -3 197.28 13.07
-6 1 3 172.73 13.17
-6 -1 3 204.13 13.29
-6 1 -3 203.12 13.35
-7 1 3 -0.04 0.21
-7 -1 -3 0.01 0.22
-7 -1 -3 -0.1 0.18
-7 -1 3 0.13 0.28
-7 1 -3 0.07 0.26
-8 -1 -3 116.26 8.3
-8 -1 -3 104.33 7.84
-8 1 3 114.72 8.11
-8 1 -3 112.72 7.92
-8 1 -3 123.43 8.25
-8 -1 3 106.12 8.03
0 -2 3 0 0.04
0 -2 3 -0.01 0.05
0 -2 -3 0.02 0.06
0 2 -3 -0.07 0.05
0 2 -3 -0.01 0.05
0 -2 -3 0.03 0.05
0 2 3 0.02 0.04
-1 -2 -3 38.5 2.52
-1 2 3 45.06 2.64
-1 -2 -3 41.21 2.73
1 2 -3 38.53 2.64
1 -2 3 39.64 2.69
-1 2 3 35.02 2.63
-1 2 -3 40.9 2.68
-1 2 -3 38.76 2.73
1 -2 -3 40.94 2.69
-1 -2 3 37.34 2.7
1 -2 -3 36.97 2.7
-1 2 -3 35.25 2.65
-1 2 -3 37.61 2.57
-2 -2 -3 0.04 0.05
-2 -2 -3 0.01 0.07
-2 2 3 0.06 0.08
-2 -2 3 0.08 0.11
2 -2 -3 0.01 0.07
-2 2 -3 0.05 0.07
-2 2 -3 0.22 0.13
-2 2 -3 0.11 0.1
2 -2 -3 0.12 0.13
-3 -2 -3 26.16 1.83
-3 -2 -3 22.01 1.47
-3 2 -3 18.28 1.63
-3 2 -3 19.63 1.58
-3 -2 3 20.36 1.64
3 -2 -3 17.5 1.5
-3 2 -3 20.78 1.35
-4 2 3 0.41 0.15
-4 -2 -3 0.85 0.23
-4 2 3 0.53 0.24
-4 -2 -3 0.66 0.31
4 -2 -3 0.65 0.21
-4 2 -3 0.8 0.3
-4 -2 3 0.8 0.28
-5 -2 -3 14.68 1.7
-5 2 3 12.31 1.02
-5 2 3 12.63 1.4
-5 -2 -3 11.64 1.1
-5 2 -3 14.86 1.34
-5 -2 3 11.55 1.4
-6 -2 -3 -0.12 0.14
-6 2 3 0.04 0.2
-6 -2 -3 0.08 0.19
-6 2 -3 0.25 0.24
-6 -2 3 0.21 0.21
-7 2 3 10.54 1.42
-7 -2 -3 6.12 0.97
-7 -2 -3 8.46 1.44
-7 2 -3 7.03 1.2
-7 -2 3 6.69 1.11
-8 -2 -3 0.34 0.34
-8 2 3 0.87 0.57
-8 -2 3 0.62 0.46
0 -3 3 775.84 54.14
0 -3 -3 859.79 54.21
0 3 -3 795.63 54.1
0 -3 3 867.95 54.09
0 3 -3 812.66 54.13
0 3 3 930.87 54.14
1 3 -3 0.32 0.13
-1 3 3 0.17 0.11
-1 -3 -3 0.15 0.12
-1 -3 -3 0.18 0.07
1 -3 3 0.22 0.12
1 3 -3 0.05 0.09
-1 -3 -3 0.35 0.17
-1 3 -3 0.16 0.11
1 -3 -3 0.96 0.25
-1 3 -3 0.14 0.13
-1 3 -3 0.33 0.15
-1 -3 3 0.18 0.13
2 -3 3 326.14 20.55
-2 -3 -3 344.78 20.34
-2 -3 -3 297.2 20.6
-2 3 3 313.85 20.46
-2 -3 3 306.09 20.56
2 -3 -3 326.8 20.48
-2 3 -3 295.76 20.51
2 -3 -3 337.25 20.65
-2 3 -3 329.29 20.54
-2 3 -3 276.52 20.52
-3 3 3 -0.07 0.09
-3 -3 -3 0.01 0.06
-3 -3 -3 0.01 0.12
-3 3 -3 0.16 0.13
-3 3 -3 0.09 0.12
3 -3 -3 -0.02 0.08
3 -3 -3 -0.05 0.12
-3 -3 3 0.08 0.14
-3 3 -3 -0.04 0.09
-4 -3 -3 349.66 25.25
-4 -3 -3 392.69 24.91
4 -3 -3 385.03 25.03
-4 3 -3 378.45 24.79
4 -3 -3 383.04 25.15
-4 3 -3 382.04 25.16
-4 -3 3 420.21 25.15
-5 3 3 0.06 0.12
-5 -3 -3 0.09 0.13
-5 3 3 0.06 0.17
-5 -3 -3 0.07 0.24
-5 -3 3 0.04 0.18
-5 3 -3 0.04 0.18
-6 3 3 182.69 11.04
-6 -3 -3 149.88 11.18
-6 3 3 178.09 11.46
-6 -3 -3 158.56 11.67
-6 3 -3 176.3 11.52
-6 -3 3 162.22 11.41
-7 3 3 0.17 0.32
-7 -3 -3 -0.02 0.21
-7 -3 3 0.18 0.26
0 4 -3 0.09 0.11
0 -4 3 0.01 0.08
0 -4 -3 -0.06 0.08
0 4 -3 0 0.09
0 4 3 0 0.1
0 -4 3 0.03 0.11
1 4 -3 16.12 1.21
-1 -4 -3 15.91 1.12
1 -4 3 14.27 1.21
1 -4 3 13.76 1.26
-1 -4 -3 13.68 1.28
-1 4 3 14.7 1.23
1 4 -3 15.88 1.28
1 4 3 14.26 1.25
-1 -4 3 14.78 1.26
-1 4 -3 12.66 1.2
1 -4 -3 17.41 1.37
-1 -4 3 15.78 1.14
-1 4 -3 17.16 1.3
-1 4 -3 16.31 1.3
2 -4 3 0.08 0.13
2 4 -3 -0.09 0.12
-2 4 3 -0.16 0.08
-2 -4 -3 0.02 0.07
2 -4 -3 0.07 0.13
-2 -4 3 -0.01 0.1
-2 4 -3 0.01 0.1
-2 4 -3 0 0.11
-2 4 -3 0.09 0.12
-3 -4 -3 19.36 1.41
-3 4 3 19.35 1.55
-3 4 -3 19.82 1.6
-3 4 -3 21.05 1.64
-3 -4 3 18.82 1.63
3 -4 -3 17.87 1.69
-3 4 -3 18.17 1.59
-4 -4 -3 0.14 0.13
-4 4 3 0.35 0.21
-4 4 -3 0.15 0.11
-4 -4 3 0.39 0.22
-4 4 -3 0.18 0.19
4 -4 -3 0.15 0.21
-5 4 3 4.27 0.6
-5 -4 -3 5.17 0.66
5 -4 -3 5.97 0.97
-5 -4 3 4.93 0.85
-6 4 3 0.17 0.17
-6 -4 -3 0.2 0.19
6 -4 -3 -0.15 0.18
-6 -4 3 0.3 0.29
-7 -4 -3 8.25 1.08
-7 -4 3 11.28 1.48
7 -4 -3 9.83 1.44
0 5 -3 271.57 17.87
0 -5 3 294.05 18.03
0 -5 -3 268.52 18.04
0 5 -3 271.46 18
0 -5 3 259.32 17.83
0 5 3 281.39 17.98
-1 -5 -3 6.47 0.62
1 5 -3 7.11 0.8
1 -5 3 7.34 0.82
-1 5 3 6.75 0.87
1 5 -3 5.88 0.84
1 -5 3 6.51 0.87
-1 -5 -3 7.23 0.94
-1 5 -3 7.03 0.89
-1 5 -3 6.28 0.82
-1 5 -3 6.47 0.88
-1 -5 3 6.37 0.87
1 5 3 6.98 0.91
1 -5 -3 6.97 0.97
-1 -5 3 7.19 0.65
-2 5 3 322.54 23.72
2 -5 3 358.77 23.81
2 5 -3 368.01 23.8
2 -5 3 397.66 23.82
-2 -5 -3 330.51 23.55
2 5 -3 383.26 23.66
-2 5 -3 387.89 23.77
-2 5 -3 369.4 23.82
-2 5 -3 366.72 23.78
2 -5 -3 396.59 23.93
-2 -5 3 331.9 23.76
-3 5 3 2.74 0.53
3 5 -3 3.63 0.66
-3 -5 -3 3.77 0.46
3 5 -3 3.95 0.59
3 -5 3 2.92 0.59
-3 5 -3 3.45 0.62
-3 5 -3 4.46 0.95
-3 5 -3 2.77 0.6
-3 -5 3 3.28 0.62
3 -5 -3 2.92 0.64
-4 5 3 182.77 12.37
-4 -5 -3 199.12 12.16
4 -5 -3 169.85 12.56
-4 5 -3 190.47 12.47
-4 -5 3 180.68 12.46
-5 -5 -3 0.48 0.22
-5 5 3 0.45 0.23
-5 -5 3 0.14 0.26
5 -5 -3 0.49 0.36
-6 -5 -3 142.26 9.18
-6 5 3 143.29 9.16
6 -5 -3 125.09 9.55
-6 -5 3 133.82 9.47
0 -6 3 0.05 0.19
0 6 -3 0.04 0.14
0 6 -3 0.14 0.19
0 6 -3 0.05 0.2
0 6 3 0.02 0.19
0 -6 -3 -0.05 0.16
1 -6 3 11.88 1.31
-1 6 3 9.41 1.15
1 6 -3 12.42 1.34
1 -6 3 11.11 1.16
-1 -6 -3 8.58 0.85
-1 -6 -3 8.7 1.15
-1 6 -3 8.73 1.17
1 6 3 9.32 1.2
-1 -6 3 9.78 1.17
-1 6 -3 10.49 1.12
1 -6 -3 9.33 1.24
-1 6 -3 9.68 1.19
-2 -6 -3 0.79 0.23
2 6 -3 0.23 0.26
2 -6 3 0.43 0.26
-2 6 3 0.33 0.24
-2 6 -3 0.06 0.19
-2 -6 3 0.34 0.25
2 6 3 0.58 0.31
2 -6 -3 0.02 0.19
-2 6 -3 0.21 0.21
-3 6 3 8.18 1.09
3 -6 3 7.92 1.13
-3 -6 -3 7.43 0.81
3 6 -3 6.29 1
3 -6 -3 8.94 1.24
3 6 3 7.17 1.07
-3 6 -3 11.17 1.25
-3 -6 3 5.27 0.93
-4 6 3 0.46 0.28
-4 -6 -3 0.26 0.18
4 6 -3 0.3 0.28
4 -6 3 0.3 0.31
-4 6 -3 1.07 0.42
-4 -6 3 0.86 0.35
4 -6 -3 0.51 0.36
5 -6 3 8.09 1.25
5 6 -3 6.19 1.08
-5 -6 -3 7.75 0.83
5 -6 -3 8.45 1.31
-5 -6 3 6.7 1.06
-6 6 3 0.21 0.24
6 -6 3 0.41 0.39
6 -6 -3 0.59 0.39
-6 -6 3 0.87 0.39
0 7 -3 181.93 12.46
0 -7 3 168.4 12.37
0 -7 -3 210.26 12.56
0 7 3 179.43 12.42
1 7 -3 3.92 0.78
-1 7 3 4.12 0.76
1 -7 3 2.97 0.64
-1 7 -3 5.77 0.92
1 -7 -3 3.32 0.74
1 7 3 2.95 0.67
-1 -7 3 3.02 0.67
2 7 -3 180.16 13.18
-2 7 3 187.73 13.12
-2 -7 -3 192.22 12.87
2 -7 3 213.21 13.15
-2 -7 3 186.09 13.13
2 7 3 208.5 13.27
2 -7 -3 199.33 13.3
-2 7 -3 199.32 13.23
3 7 -3 1.62 0.5
3 -7 3 0.88 0.41
-3 -7 -3 1.48 0.35
-3 7 3 1.47 0.48
-3 -7 3 1.1 0.43
3 -7 -3 1.57 0.55
-3 7 -3 1.27 0.46
3 7 3 0.97 0.45
-4 7 3 123.12 8.96
4 7 -3 117.58 9
4 -7 3 135.24 9.12
4 7 3 138.76 9.19
-4 7 -3 132.56 9.09
-4 -7 3 142.17 9.05
4 -7 -3 122.75 9.13
0 8 3 -0.1 0.2
0 -8 3 0.06 0.24
0 8 -3 0.28 0.29
0 -8 -3 0.06 0.31
-1 8 3 6.61 1.09
1 8 -3 4.65 0.94
-1 -8 3 7.17 1.08
1 -8 -3 6.76 1.16
-1 8 -3 7.68 1.19
1 8 3 6.5 1.12
-2 8 3 -0.35 0.26
2 8 -3 0.18 0.32
-2 -8 3 0.07 0.27
-2 8 -3 0.06 0.26
2 -8 -3 0.09 0.27
2 8 3 -0.11 0.27
-3 8 3 1.75 0.62
3 8 -3 2.04 0.63
3 -8 -3 2.45 0.74
-3 8 -3 1.72 0.58
3 8 3 3.32 0.81
-3 -8 3 3.38 0.77
0 0 -4 215.71 16.3
0 0 -4 263.56 16.36
0 0 4 275.1 16.26
-1 0 -4 0.02 0.06
-1 0 -4 0.04 0.05
1 0 4 0.04 0.05
-1 0 4 -0.03 0.05
1 0 -4 0.04 0.05
-1 0 -4 0.07 0.06
-1 0 4 0.08 0.05
-2 0 -4 287.22 19.47
-2 0 4 321.1 19.27
-2 0 4 284.97 19.4
-2 0 -4 305.77 19.32
2 0 -4 291.58 19.29
-3 0 -4 0.07 0.13
-3 0 4 0.07 0.12
-3 0 4 0.12 0.08
-3 0 -4 0.06 0.08
-4 0 4 136.7 8.97
-4 0 -4 128.72 9.01
-5 0 -4 -0.15 0.15
-5 0 4 0.04 0.19
-6 0 4 100.81 7.2
-6 0 -4 102.71 7.32
-7 0 -4 0.02 0.25
-7 0 4 -0.01 0.25
-8 0 -4 27.97 2.68
-8 0 -4 28.06 2.37
0 1 -4 0.04 0.06
0 -1 4 0.02 0.06
0 -1 -4 0.02 0.06
0 -1 -4 0.02 0.07
0 -1 -4 -0.04 0.04
0 1 -4 0.03 0.05
-1 -1 -4 21.77 1.38
-1 -1 -4 23.11 1.58
-1 1 4 18.21 1.46
1 -1 4 18.5 1.45
-1 -1 -4 19.56 1.41
-1 1 -4 18.87 1.47
1 -1 -4 22.67 1.46
1 -1 -4 20.33 1.48
-1 1 -4 22.15 1.56
-1 -1 4 21.28 1.52
1 -1 -4 18.98 1.5
-1 1 -4 19.61 1.44
-2 1 4 6.79 0.73
-2 -1 -4 5.14 0.72
-2 -1 -4 5.91 0.5
-2 -1 -4 6.42 0.46
2 -1 -4 5.01 0.61
-2 -1 4 4.9 0.66
-2 1 -4 5.58 0.72
2 -1 -4 5.69 0.65
-2 1 -4 5.85 0.64
-3 -1 -4 27.94 2.21
-3 1 4 26.25 2.11
-3 -1 4 30.26 2.16
-3 1 -4 29.7 2.08
-3 1 -4 26.89 2.2
-4 1 4 4.67 0.51
-4 1 4 4.45 0.69
-4 -1 -4 3.7 0.7
-4 1 -4 3.56 0.7
-4 -1 4 2.86 0.58
-5 -1 -4 3.71 0.8
-5 1 4 2.64 0.61
-5 -1 4 3.85 0.72
-5 1 -4 5.44 0.88
-6 -1 -4 1.99 0.62
-6 -1 -4 2.49 0.52
-6 1 4 3.51 0.71
-6 1 -4 1.7 0.59
-6 -1 4 2.51 0.64
-7 -1 -4 6.68 0.98
-7 1 4 8.85 1.33
-7 -1 -4 8.74 1.4
-7 1 -4 7.82 1.3
-7 -1 4 8.89 1.32
-8 -1 -4 0.88 0.54
-8 -1 -4 0.66 0.37
-8 1 4 1.9 0.67
-8 -1 4 2.24 0.72
-8 1 -4 0.29 0.43
-8 1 -4 0.76 0.4
0 2 -4 263.35 17.4
0 2 4 276.66 17.24
0 -2 -4 262.88 17.27
0 -2 -4 252.26 17.35
0 -2 4 256.2 17.3
0 -2 -4 277.32 17.34
0 2 -4 276.07 17.25
0 2 -4 266.93 17.3
1 2 -4 1.85 0.28
-1 2 4 1.65 0.25
-1 -2 -4 2 0.2
-1 -2 -4 1.85 0.35
-1 2 4 2.07 0.31
1 -2 4 2.02 0.34
-1 2 -4 1.34 0.28
1 -2 -4 1.67 0.34
-1 2 -4 1.63 0.3
-1 -2 4 2.26 0.37
-1 2 -4 1.62 0.36
1 -2 -4 1.41 0.29
-1 2 -4 2.07 0.28
-2 -2 -4 223.56 13.79
2 -2 4 227.43 13.66
-2 2 4 191.67 13.54
-2 2 4 190.13 13.62
-2 2 -4 223.8 13.68
2 -2 -4 193.53 13.69
-2 2 -4 212.18 13.43
2 -2 -4 220.49 13.67
-2 2 -4 195.41 13.71
-2 2 -4 206.66 13.64
-2 -2 4 215.07 13.72
-3 -2 -4 0.33 0.22
-3 2 4 0.47 0.21
-3 2 -4 0.8 0.28
3 -2 -4 0.7 0.22
-3 -2 4 0.31 0.19
3 -2 -4 0.45 0.21
-3 2 -4 0.58 0.22
-4 2 4 138.47 9.5
-4 -2 -4 142.63 9.48
-4 -2 -4 153.48 9.93
-4 2 4 168.23 9.75
4 -2 -4 139.76 9.57
-4 -2 4 136.78 9.72
4 -2 -4 146.57 9.7
-4 2 -4 139.37 9.79
-4 2 -4 139.26 9.64
-5 -2 -4 1.14 0.3
-5 2 4 0.68 0.31
-5 -2 -4 1.38 0.48
-5 2 4 1.04 0.25
-5 -2 4 1.14 0.39
5 -2 -4 1.42 0.36
-5 2 -4 1.49 0.48
-6 -2 -4 61.37 4.18
-6 -2 -4 54.24 4.53
-6 2 4 61.5 4.42
-6 2 -4 56.79 4.44
-6 -2 4 57 4.36
-7 2 4 0.04 0.33
-7 -2 -4 0.5 0.3
-7 -2 -4 0.16 0.35
-7 -2 4 -0.09 0.2
-7 2 -4 -0.02 0.26
0 -3 4 -0.04 0.05
0 3 -4 0.25 0.12
0 3 4 0.04 0.08
0 3 -4 0.02 0.07
0 -3 -4 -0.05 0.07
0 -3 4 0.01 0.07
0 -3 -4 -0.03 0.07
0 3 -4 -0.05 0.08
1 3 -4 25.47 1.87
1 -3 4 21.45 1.86
1 3 -4 28.18 1.86
-1 3 4 24.37 1.81
-1 -3 -4 26.52 1.94
-1 -3 -4 26.4 1.91
-1 3 -4 25.45 1.86
-1 -3 4 26.01 1.9
-1 3 -4 21.7 1.91
1 -3 -4 25.39 1.94
-1 3 -4 27.49 1.88
1 -3 -4 24.9 1.88
-2 -3 -4 0.02 0.04
-2 -3 -4 0.05 0.13
-2 3 4 0.11 0.13
-2 3 4 0.55 0.19
2 -3 4 0.01 0.1
2 -3 -4 0 0.1
2 -3 -4 -0.05 0.07
-2 3 -4 0.02 0.11
-2 3 -4 0.06 0.11
-2 3 -4 -0.05 0.11
-2 -3 4 -0.02 0.11
-3 -3 -4 2.82 0.59
-3 -3 -4 2.27 0.3
-3 3 4 3.33 0.54
-3 3 4 1.53 0.35
-3 3 -4 3.1 0.56
3 -3 -4 2.7 0.45
-3 3 -4 3.92 0.58
-3 3 -4 3.14 0.56
-3 3 -4 3.47 0.33
3 -3 -4 1.92 0.47
-3 -3 4 2.89 0.56
-4 3 4 0.18 0.2
-4 -3 -4 0.11 0.11
-4 -3 -4 0.02 0.18
-4 -3 4 0.42 0.24
-4 3 -4 0.16 0.19
4 -3 -4 0.27 0.19
-4 3 -4 0.12 0.14
4 -3 -4 0.23 0.21
-5 3 4 18.14 1.4
-5 3 4 18.37 1.62
-5 -3 -4 17.84 1.8
-5 -3 -4 14.55 1.38
-5 -3 4 22.67 1.73
-5 3 -4 16.28 1.64
5 -3 -4 18.74 1.66
-6 3 4 0.41 0.36
-6 3 4 0.13 0.14
-6 -3 -4 0.21 0.19
-6 -3 -4 0.27 0.28
-6 3 -4 0.38 0.34
-6 -3 4 -0.21 0.18
6 -3 -4 0.04 0.22
-7 -3 -4 0.38 0.27
-7 3 -4 1.6 1.04
7 -3 -4 0.26 0.31
-7 -3 4 1.1 0.5
0 4 -4 192.96 12.13
0 4 4 183.54 11.96
0 4 -4 181.53 11.96
0 -4 4 185.22 12.03
0 -4 -4 176.99 12.08
0 -4 4 182.86 11.84
0 4 -4 169.46 11.97
1 -4 4 0.04 0.13
-1 -4 -4 -0.09 0.08
-1 4 4 -0.09 0.06
1 -4 4 0.23 0.13
1 4 -4 -0.02 0.1
1 4 -4 0.17 0.13
-1 4 -4 0.03 0.09
-1 4 -4 0.15 0.15
1 4 4 0.12 0.13
-1 -4 4 0.01 0.1
1 -4 -4 -0.01 0.1
-1 4 -4 0.28 0.17
-2 4 4 118.06 8.24
2 -4 4 116.11 8.33
2 4 -4 119.64 8.3
-2 -4 -4 129.79 8.42
-2 -4 -4 136.14 8.06
-2 4 -4 136.12 8.36
-2 -4 4 122.13 8.36
2 -4 -4 114.22 8.38
-2 4 -4 127.94 8.39
-2 4 -4 114.47 8.31
-3 -4 -4 0.39 0.11
-3 -4 -4 0.73 0.33
-3 4 4 0.02 0.13
-3 4 -4 0.41 0.25
3 -4 -4 0.79 0.25
-3 -4 4 0.09 0.16
-3 4 -4 0.69 0.28
3 -4 -4 0.1 0.21
-3 4 -4 0.44 0.23
-4 -4 -4 110.67 7.09
-4 -4 -4 102.53 7.58
-4 4 4 104.2 7.26
-4 -4 4 108.65 7.45
-4 4 -4 103.61 7.46
4 -4 -4 114.75 7.55
-5 -4 -4 0.44 0.36
-5 -4 -4 0.78 0.23
-5 4 4 0.12 0.16
-5 -4 4 0.65 0.33
-5 4 -4 0.47 0.35
5 -4 -4 0.5 0.31
-6 4 4 58.8 3.89
-6 -4 -4 54.37 3.88
6 -4 -4 55.25 4.27
-6 -4 4 53.04 4.2
-7 -4 -4 0.41 0.28
7 -4 -4 0.88 0.47
-7 -4 4 0.51 0.38
0 5 -4 -0.06 0.14
0 -5 -4 -0.09 0.14
0 5 4 0.01 0.13
0 -5 4 -0.09 0.11
0 5 -4 -0.14 0.13
0 5 -4 0.08 0.11
1 5 -4 8.27 1.01
-1 5 4 7.67 0.91
1 -5 4 7.82 0.97
1 -5 4 11.31 0.84
-1 -5 -4 6.76 0.94
1 5 -4 6.48 0.83
-1 5 -4 7.12 0.99
1 -5 -4 6.51 0.99
-1 -5 4 5.51 0.87
1 5 4 6.83 0.91
-1 5 -4 7.32 0.92
-1 5 -4 8.46 1.01
-2 5 4 0.69 0.29
2 5 -4 0.35 0.22
-2 -5 -4 0.51 0.15
2 -5 4 0.57 0.27
2 -5 4 0.3 0.2
2 5 -4 0.87 0.29
2 -5 -4 0.73 0.34
-2 5 -4 1.03 0.33
-2 5 -4 1.04 0.35
-2 5 -4 0.86 0.31
-2 -5 4 0.7 0.29
-3 5 4 14 1.27
3 5 -4 12.24 1.43
3 -5 4 15.79 1.36
3 5 -4 15.62 1.29
-3 -5 -4 13.43 1.05
-3 5 -4 17.15 1.39
-3 5 -4 14.76 1.36
3 -5 -4 10.61 1.47
-3 5 -4 14.15 1.51
-3 -5 4 12.45 1.47
4 5 -4 0.67 0.32
-4 5 4 1.19 0.37
-4 -5 -4 1.22 0.24
-4 5 -4 1.43 0.44
-4 -5 4 0.82 0.39
4 -5 -4 1.48 0.5
-4 5 -4 1.02 0.24
-5 5 4 1.39 0.36
-5 -5 -4 2.31 0.37
-5 -5 4 2.39 0.64
5 -5 -4 2.06 0.62
-6 5 4 0.84 0.29
6 -5 -4 0.11 0.37
-6 -5 4 1.52 0.56
0 -6 -4 78.16 5.79
0 6 4 85.76 5.73
0 6 -4 81.87 5.61
0 6 -4 89.98 5.79
0 -6 4 74.34 5.71
0 6 -4 78.93 5.82
-1 -6 -4 0.15 0.21
1 6 -4 0.13 0.23
1 -6 4 0.17 0.22
1 6 -4 0.74 0.26
-1 6 4 0.34 0.21
-1 6 -4 0.22 0.21
1 -6 -4 0.13 0.2
-1 6 -4 0.19 0.26
-1 -6 4 0.26 0.24
1 6 4 0.63 0.3
-1 6 -4 0.58 0.31
2 6 -4 101.47 6.75
2 -6 4 96.76 6.64
-2 6 4 95.24 6.66
2 -6 4 97.77 6.74
2 6 4 90.87 6.72
2 -6 -4 84.79 6.77
-2 6 -4 116.39 7.47
-2 6 -4 92.05 6.72
-2 6 -4 97.75 6.67
-2 -6 4 96.42 6.74
-3 -6 -4 0 0.1
3 -6 4 0.22 0.24
-3 6 4 0.14 0.2
3 6 -4 -0.13 0.18
3 6 4 -0.06 0.21
-3 6 -4 0.09 0.19
-3 -6 4 0.47 0.27
-3 6 -4 0.25 0.24
3 -6 -4 -0.13 0.18
4 -6 4 53.53 3.93
4 6 -4 49.89 3.84
-4 6 4 51.77 3.8
4 -6 -4 45.07 3.92
-4 -6 4 52.28 3.89
-4 6 -4 52.18 3.9
5 -6 4 -0.05 0.28
5 6 -4 0 0.21
5 -6 -4 0.12 0.28
-5 -6 4 0.25 0.31
0 -7 4 0.26 0.23
0 7 -4 0.07 0.25
0 7 -4 0.11 0.21
0 7 4 0.03 0.2
0 -7 -4 -0.05 0.17
1 7 -4 5.95 1.07
1 -7 4 5.98 0.98
-1 7 4 7.21 1
1 7 -4 5.12 0.92
-1 -7 4 7 1.08
-1 7 -4 7.77 1.01
1 7 4 4.46 0.85
1 -7 -4 5.63 1.06
-1 7 -4 5.98 0.97
-2 7 4 0.44 0.31
2 7 -4 0.12 0.27
2 -7 -4 0.02 0.3
-2 -7 4 0.46 0.3
-2 7 -4 0 0.24
2 7 4 0.36 0.28
-2 7 -4 0.58 0.3
3 7 -4 8.37 1.18
-3 7 4 7.23 1.06
-3 7 -4 7.42 1.16
-3 -7 4 7.46 1.16
3 -7 -4 5.58 1.1
3 7 4 6.57 1.11
4 -7 4 1.32 0.58
-4 7 4 1.92 0.56
4 7 -4 1.76 0.58
4 7 4 0.89 0.43
-4 7 -4 1.86 0.57
4 -7 -4 2.29 0.71
-4 -7 4 1.38 0.49
0 -8 -4 52.91 4.2
0 8 -4 52.46 4.17
0 8 4 56.65 4.16
0 -8 4 53.88 4.16
1 8 -4 0.65 0.44
-1 8 4 0.76 0.4
1 -8 4 0.63 0.38
-1 8 -4 0.19 0.34
-1 -8 4 0.27 0.34
1 8 4 0.37 0.37
1 -8 -4 0.43 0.34
-2 8 4 62.11 4.34
2 8 -4 57.96 4.37
2 -8 -4 50.43 4.37
-2 -8 4 50.4 4.28
2 8 4 59.57 4.39
-2 8 -4 58.86 4.39
0 0 -5 0.03 0.1
0 0 -5 0.03 0.07
0 0 5 0.02 0.06
-1 0 -5 675.06 47.34
1 0 -5 692.26 47.27
-1 0 -5 719.57 47.43
1 0 5 794.91 47.31
-1 0 5 716.37 47.34
-1 0 -5 747.7 47.31
1 0 -5 758.52 47.41
1 0 -5 809.54 47.4
-1 0 5 702.3 47.24
-2 0 -5 0.11 0.12
-2 0 5 0.05 0.06
-2 0 -5 -0.01 0.06
2 0 -5 0.07 0.08
-2 0 5 -0.01 0.1
-3 0 -5 503.53 29.29
-3 0 5 439.2 29.18
3 0 -5 450.75 29.24
-3 0 5 415.59 29.37
-4 0 -5 0.03 0.16
-4 0 5 -0.11 0.13
-5 0 5 332.27 22.77
-5 0 -5 358.92 22.9
-6 0 5 -0.09 0.2
-6 0 -5 0.12 0.26
-7 0 5 171.85 11.04
-7 0 -5 145.64 11.03
-8 0 -5 0.41 0.42
-8 0 5 -0.18 0.33
-8 0 -5 0.1 0.27
0 -1 5 97.09 6.57
0 -1 -5 90.86 6.61
0 1 -5 102.79 6.7
0 1 -5 95.79 6.59
0 1 -5 96.23 6.47
0 -1 -5 112.47 6.64
0 -1 -5 98.35 6.61
0 1 -5 104.83 6.63
-1 -1 -5 1.48 0.31
-1 -1 -5 1.11 0.21
-1 -1 -5 1.6 0.22
1 -1 5 1.49 0.27
-1 -1 -5 1.97 0.38
-1 1 5 2.12 0.32
-1 1 -5 1.65 0.3
-1 1 -5 1.78 0.29
-1 -1 5 1.36 0.28
-1 1 -5 1.98 0.37
1 -1 -5 1.52 0.28
1 -1 -5 1.09 0.28
1 -1 -5 1.89 0.31
-2 -1 -5 73.21 4.84
-2 -1 -5 70.12 4.52
2 1 -5 72.19 4.49
-2 1 5 60.47 4.67
-2 -1 -5 70.93 4.58
-2 1 -5 68.33 4.76
-2 -1 5 71.32 4.73
2 -1 -5 70.71 4.65
2 -1 -5 56.82 4.65
-2 1 -5 72.16 4.66
-3 -1 -5 0.26 0.14
-3 -1 -5 0.93 0.33
-3 1 5 0.37 0.23
-3 1 5 0.47 0.15
-3 1 -5 0.83 0.25
-3 -1 5 0.4 0.2
3 -1 -5 0.46 0.19
-3 1 -5 0.35 0.21
-4 1 5 48.77 3.43
-4 1 5 43.52 3.14
-4 -1 -5 40.91 3.44
4 -1 -5 46.26 3.29
-4 1 -5 44.53 3.47
-4 1 -5 44.79 3.27
-4 -1 5 53.44 3.45
-5 1 5 0.08 0.18
-5 -1 -5 -0.06 0.17
-5 1 -5 0.05 0.18
-5 -1 5 0.25 0.21
-6 1 5 25.57 2.15
-6 -1 -5 22.77 2.19
-6 -1 5 20.75 2.01
-6 1 -5 21.63 2.12
-7 1 5 0.09 0.35
-7 -1 -5 0.32 0.23
-7 -1 -5 0.18 0.33
-7 -1 5 -0.18 0.22
-7 1 -5 0.12 0.3
0 -2 -5 -0.06 0.08
0 -2 -5 0.53 0.19
0 -2 -5 0.01 0.08
0 -2 5 0.03 0.09
0 2 5 0.04 0.07
0 2 -5 0.28 0.12
0 2 -5 0.11 0.12
0 2 -5 -0.01 0.07
-1 -2 -5 665.22 39.91
1 2 -5 635.36 39.71
-1 2 5 595.46 39.73
-1 -2 -5 609.26 39.65
1 -2 5 578.39 39.8
-1 -2 -5 555.17 39.61
-1 2 5 668.07 39.69
1 -2 -5 616.76 39.85
-1 2 -5 615.65 39.76
1 -2 -5 634.72 39.86
-1 -2 5 573.91 39.84
-1 2 -5 677.13 39.76
-1 2 -5 593.86 39.93
1 -2 -5 614.72 39.7
-1 2 -5 618.8 39.82
-2 -2 -5 1.85 0.25
-2 -2 -5 1.87 0.15
-2 2 5 1.34 0.34
-2 -2 -5 2.27 0.44
2 -2 5 0.95 0.26
-2 -2 5 1.27 0.35
-2 2 -5 1.48 0.25
2 -2 -5 2.02 0.39
-2 2 -5 1.09 0.34
2 -2 -5 1.55 0.25
2 -2 -5 1.1 0.3
-2 2 -5 1.1 0.28
-3 -2 -5 515.6 33.66
-3 2 5 535.83 33.53
-3 2 -5 472.49 33.46
-3 -2 5 537.36 33.56
3 -2 -5 501.61 33.52
-3 2 -5 541.12 33.63
3 -2 -5 511.14 33.47
-4 -2 -5 1.43 0.45
-4 2 5 1.07 0.25
-4 2 5 1.37 0.42
-4 -2 5 0.83 0.31
-4 2 -5 1.76 0.5
4 -2 -5 1.65 0.42
4 -2 -5 0.76 0.28
-4 2 -5 1.35 0.36
-5 2 5 279.87 17.59
-5 -2 -5 273.41 17.79
-5 2 5 241.43 17.2
-5 -2 -5 263.6 17.24
5 -2 -5 271.08 17.38
5 -2 -5 268.94 17.49
-5 -2 5 253.57 17.54
-5 2 -5 267.02 17.66
-6 -2 -5 0.55 0.27
-6 2 5 0.56 0.37
-6 -2 -5 0.35 0.33
6 -2 -5 1.13 0.42
-6 2 -5 0.71 0.39
-6 -2 5 2.18 0.6
-7 -2 -5 186.36 12.83
-7 -2 -5 179.07 12.26
-7 2 5 199.37 13.77
7 -2 -5 179.95 12.43
-7 2 -5 179.23 12.67
-7 -2 5 186.06 12.6
0 -3 5 39.63 3.03
0 3 -5 42.98 3.02
0 -3 -5 46.9 3.14
0 3 -5 44.06 3.17
0 -3 -5 39.72 2.93
0 3 5 40.49 2.94
0 3 -5 44.69 2.98
0 -3 5 44.74 2.84
1 -3 5 1.16 0.31
-1 3 5 0.67 0.18
1 3 -5 0.5 0.2
1 3 -5 0.79 0.22
-1 -3 -5 1.18 0.3
-1 -3 5 0.28 0.17
-1 3 -5 0.52 0.23
1 -3 -5 0.76 0.25
-1 3 -5 1.15 0.22
-1 3 -5 0.79 0.23
-1 3 -5 0.54 0.21
1 -3 -5 0.65 0.25
2 3 -5 61.89 4.1
-2 -3 -5 64.44 4.3
-2 3 5 64.85 4.06
2 -3 5 59.08 4.16
2 -3 -5 62.02 4.24
-2 -3 5 53.29 4.19
-2 3 -5 54.91 4.15
-2 3 -5 60.9 4.15
-2 3 -5 56.85 4.24
2 -3 -5 58.06 4.16
-3 -3 -5 0.06 0.05
-3 3 5 0.05 0.1
-3 -3 -5 0.36 0.25
-3 3 -5 0.23 0.2
3 -3 -5 0.02 0.15
-3 -3 5 0.02 0.14
-3 3 -5 -0.11 0.08
3 -3 -5 0.19 0.15
-4 -3 -5 32.99 2.67
-4 3 5 27.92 2.21
-4 -3 -5 33.07 2.16
4 -3 -5 31.31 2.5
-4 3 -5 30.4 2.4
-4 -3 5 33.01 2.51
4 -3 -5 31.22 2.36
-4 3 -5 27.02 2.49
-5 3 5 -0.02 0.12
-5 -3 -5 0.34 0.18
-5 -3 -5 0.47 0.34
5 -3 -5 0.29 0.27
-5 -3 5 0.32 0.26
-5 3 -5 0.29 0.26
-6 -3 -5 19 1.52
-6 3 5 16.54 1.42
-6 -3 -5 18.74 2.25
6 -3 -5 17.12 1.92
-6 -3 5 22.41 1.87
-6 3 -5 17.26 1.8
-7 -3 -5 0.21 0.22
-7 -3 -5 0.29 0.38
7 -3 -5 -0.3 0.28
-7 -3 5 0.35 0.38
-7 3 -5 -0.14 0.29
0 4 -5 -0.02 0.1
0 4 5 -0.08 0.1
0 4 -5 -0.01 0.08
0 -4 5 0.01 0.1
0 4 -5 -0.03 0.11
0 -4 -5 -0.03 0.09
1 -4 5 517.32 30.19
1 -4 5 483.65 30
1 4 -5 468.24 30.1
-1 4 5 448.93 30.03
-1 -4 -5 497.11 30.11
1 4 -5 471.86 30.09
-1 4 -5 452.59 30.09
-1 -4 5 438.2 30.14
-1 4 -5 408.72 30.19
1 -4 -5 453.67 30.21
1 4 5 482.66 30.1
-1 4 -5 441.45 30.08
2 -4 5 0.92 0.3
2 4 -5 0.72 0.3
-2 -4 -5 0.98 0.32
-2 4 5 0.52 0.21
2 4 -5 0.72 0.25
-2 4 -5 1.48 0.41
-2 4 -5 0.76 0.27
2 -4 -5 0.83 0.34
-2 4 -5 1.27 0.35
-2 -4 5 1.12 0.36
-3 -4 -5 365.04 24.93
-3 4 5 396.42 24.69
3 4 -5 352.06 24.71
3 -4 -5 369.9 24.89
-3 -4 5 387.09 24.9
-3 4 -5 403.06 24.83
-3 4 -5 373.87 24.87
3 -4 -5 403.48 24.75
-3 4 -5 364.39 24.79
-4 -4 -5 1.29 0.48
-4 -4 -5 1.52 0.22
-4 4 -5 1.9 0.55
4 -4 -5 1.77 0.52
-4 4 -5 1.59 0.45
-4 -4 5 1.39 0.46
-5 4 5 206.94 13.95
-5 -4 -5 217.33 13.83
-5 -4 -5 218.88 14.56
-5 -4 5 199.05 14.26
5 -4 -5 218.9 14.38
-5 4 -5 212.88 14.37
-6 4 5 0.97 0.29
6 -4 -5 0.15 0.35
-6 -4 5 1.69 0.56
-7 -4 5 133.72 9.76
7 -4 -5 146.48 9.85
0 5 -5 46.52 3.12
0 -5 -5 36.41 3.18
0 5 5 38.82 3.07
0 5 -5 43.29 3.31
0 -5 5 44.32 3.2
0 5 -5 45.7 3.15
1 5 -5 0.02 0.19
1 5 -5 -0.05 0.1
-1 5 5 0.02 0.13
1 -5 5 -0.08 0.11
-1 5 -5 0.05 0.18
1 -5 -5 0.13 0.2
-1 5 -5 -0.1 0.14
-1 5 -5 0 0.17
1 5 5 0 0.14
-1 -5 5 0.08 0.15
2 -5 5 20.66 1.78
2 5 -5 22.93 1.83
-2 5 5 22.13 1.8
2 5 -5 19.96 1.81
2 -5 5 22.39 1.9
-2 -5 5 21.83 1.92
2 5 5 22.32 1.88
2 -5 -5 25.28 2.04
-2 5 -5 26.05 1.95
-2 5 -5 23.34 1.89
-2 5 -5 23.01 1.95
3 5 -5 -0.08 0.17
-3 5 5 0.14 0.15
3 5 -5 0.1 0.19
-3 5 -5 0.38 0.25
-3 5 -5 -0.02 0.15
3 -5 -5 0.11 0.2
-3 -5 5 0.13 0.19
-3 5 -5 -0.03 0.15
4 5 -5 23.32 1.97
-4 5 5 22.98 1.9
-4 -5 5 19.82 2.01
4 -5 -5 22.71 2.11
-4 5 -5 26.62 2.09
-4 5 -5 25.25 2.15
5 5 -5 0.06 0.23
-5 5 5 0.36 0.2
-5 -5 5 0.12 0.24
5 -5 -5 0.47 0.33
-6 5 5 14.41 1.33
-6 -5 5 18.33 2.03
6 -5 -5 16.5 1.94
0 -6 -5 0.04 0.17
0 6 -5 0.14 0.24
0 -6 5 0.06 0.22
0 6 -5 -0.06 0.14
0 6 5 -0.01 0.17
0 6 -5 0.1 0.2
1 6 -5 284.45 19.39
-1 6 5 293.73 19.46
1 6 -5 314.84 19.56
1 -6 5 309.56 19.59
-1 -6 5 284.88 19.56
1 -6 -5 292.6 19.66
-1 6 -5 290.21 19.46
-1 6 -5 303.23 19.67
-1 6 -5 306.99 19.55
1 6 5 279.93 19.48
2 6 -5 -0.08 0.16
-2 6 5 0 0.17
2 6 -5 0.39 0.26
2 -6 5 0.06 0.21
-2 6 -5 -0.01 0.18
-2 6 -5 -0.02 0.18
2 -6 -5 0.5 0.35
-2 6 -5 0.14 0.2
-2 -6 5 0.11 0.24
2 6 5 -0.08 0.18
3 -6 5 213.02 13.93
-3 6 5 192.62 13.82
3 6 -5 210.11 13.93
-3 6 -5 217.55 14
-3 6 -5 221.13 13.95
-3 -6 5 197.51 13.98
3 -6 -5 199.7 14.1
3 6 5 214.41 14
4 -6 5 1 0.42
-4 6 5 0.16 0.25
4 6 -5 0.54 0.33
-4 -6 5 0.41 0.35
-4 6 -5 0.01 0.25
4 -6 -5 0.22 0.24
5 -6 5 196.16 12.57
5 6 -5 179.95 12.41
-5 6 5 169.49 12.14
-5 -6 5 190.51 12.52
5 -6 -5 184.76 12.61
0 7 -5 17.75 1.7
0 -7 -5 14.76 1.82
0 -7 5 16.06 1.81
0 7 -5 17.63 1.86
0 7 5 13.56 1.65
1 7 -5 0.38 0.35
-1 7 5 0.51 0.31
1 -7 5 0.33 0.29
1 7 -5 0.23 0.25
-1 7 -5 0.52 0.31
1 7 5 0.67 0.35
-1 -7 5 0.08 0.24
-1 7 -5 0.14 0.27
1 -7 -5 -0.22 0.23
-2 7 5 23.49 1.95
2 7 -5 21.85 2.24
2 7 5 20.5 2.19
-2 7 -5 22.89 2.05
-2 7 -5 21.28 1.92
-2 -7 5 21.5 2.03
2 -7 -5 21.7 2.37
-3 7 5 0.46 0.3
3 7 -5 0.6 0.4
-3 7 -5 0.14 0.35
3 -7 -5 0.53 0.43
-3 -7 5 0.35 0.34
-3 7 -5 -0.08 0.25
3 7 5 -0.18 0.23
4 7 -5 12.12 1.59
-4 7 5 13.1 1.57
4 -7 -5 12.44 1.77
4 7 5 13.3 1.73
-4 7 -5 15.89 1.8
-4 -7 5 14.78 1.74
0 -8 5 0.22 0.33
0 8 5 -0.1 0.25
0 -8 -5 0.18 0.34
0 8 -5 -0.01 0.24
1 -8 5 180.03 11.67
-1 8 5 152.63 11.49
1 8 -5 174.79 11.62
-1 -8 5 169.33 11.64
-1 8 -5 177.15 11.67
1 8 5 171.64 11.62
1 -8 -5 161.28 11.69
2 8 -5 0.48 0.46
-2 8 5 0.47 0.34
2 8 -5 0.12 0.36
-2 -8 5 -0.05 0.32
-2 8 -5 -0.18 0.23
2 8 5 0 0.3
2 -8 -5 0.2 0.41
0 0 -6 409.33 28.17
0 0 -6 468.35 28.25
0 0 6 433.49 28.06
0 0 6 429.1 27.97
1 0 -6 0.04 0.06
1 0 -6 0.11 0.13
1 0 6 0.05 0.07
-1 0 -6 0.02 0.08
-1 0 6 -0.06 0.05
-1 0 6 -0.01 0.07
1 0 -6 0.1 0.11
-1 0 -6 -0.02 0.06
-1 0 -6 -0.02 0.09
2 0 -6 110.44 6.91
-2 0 6 98.39 7.03
-2 0 -6 114.3 7.18
-2 0 -6 104.8 6.95
-2 0 6 97.03 6.88
3 0 -6 0.08 0.11
-3 0 -6 -0.04 0.12
-3 0 6 -0.01 0.1
-3 0 6 -0.06 0.06
-3 0 -6 0.03 0.11
-4 0 -6 159.83 10.9
-4 0 6 155.98 10.75
-4 0 -6 166.32 10.6
4 0 -6 156.98 10.55
-5 0 -6 0 0.15
-5 0 6 0.12 0.26
-6 0 -6 66.83 5.33
-6 0 6 74.86 5.28
-7 0 6 -0.01 0.21
-7 0 -6 -0.07 0.23
0 -1 -6 -0.04 0.06
0 -1 6 -0.06 0.06
0 1 -6 -0.1 0.08
0 1 -6 -0.01 0.07
0 -1 -6 0.09 0.1
0 1 -6 0.03 0.08
1 1 -6 17.05 1.44
-1 -1 -6 16.81 1.42
-1 -1 -6 19.83 1.25
-1 -1 -6 17.75 1.27
-1 -1 -6 18.65 1.39
-1 1 6 16.9 1.29
1 -1 6 17.16 1.31
-1 -1 6 16.31 1.35
1 -1 -6 16.8 1.34
1 -1 -6 15.1 1.33
-1 1 -6 18.5 1.35
1 -1 -6 15.91 1.38
-1 1 -6 15.94 1.32
-1 1 -6 17.95 1.45
-2 1 6 -0.04 0.09
-2 1 6 0.08 0.08
-2 -1 -6 -0.04 0.11
-2 -1 -6 0 0.08
-2 -1 6 -0.06 0.08
-2 1 -6 0 0.07
2 -1 -6 0.06 0.08
-2 1 -6 -0.03 0.07
-2 1 -6 0.05 0.1
2 -1 -6 0.09 0.12
2 -1 -6 -0.03 0.09
-3 1 6 10.17 0.81
-3 -1 -6 8.37 0.8
-3 -1 -6 8.22 1.15
-3 1 6 10.41 1.12
3 -1 -6 10.88 1.11
-3 1 -6 9.46 1
3 -1 -6 9.32 0.88
-3 1 -6 8.68 1.15
-3 -1 6 11.16 1.2
-4 1 6 0.14 0.09
-4 1 6 0.14 0.19
-4 -1 -6 0.35 0.26
-4 1 -6 0.12 0.21
-4 1 -6 0.14 0.15
4 -1 -6 0.01 0.14
-4 -1 6 -0.08 0.13
-5 1 6 8.15 1.19
-5 -1 -6 7.91 1.23
-5 1 -6 8.02 1.21
5 -1 -6 6.83 0.95
-5 -1 6 7.3 1.1
-6 1 6 -0.13 0.27
-6 -1 -6 -0.08 0.23
-6 -1 6 -0.01 0.23
-6 1 -6 -0.01 0.25
6 -1 -6 0.06 0.37
-7 -1 -6 3.1 0.6
-7 -1 -6 1.96 0.71
-7 1 6 2.31 0.7
-7 1 -6 1.22 0.58
-7 -1 6 0.75 0.43
0 2 -6 129.24 9.08
0 2 6 135.93 8.81
0 2 -6 133.12 8.96
0 -2 -6 126.77 8.99
0 2 -6 134.11 8.83
0 -2 6 136.84 8.94
0 -2 -6 141.33 8.96
0 -2 -6 143.4 9.02
-1 -2 -6 15.94 1.06
-1 -2 -6 14.4 1.29
-1 2 6 14.56 1.07
1 2 -6 15.19 1.1
1 -2 6 12.23 1.19
-1 -2 -6 14.38 1.08
-1 2 -6 14.54 1.15
-1 2 -6 15.68 1.19
-1 -2 6 13.57 1.23
1 -2 -6 17.85 1.3
-1 2 -6 15 1.34
1 -2 -6 17.23 1.17
-1 2 -6 14.47 1.23
-2 -2 -6 238.09 14.64
-2 -2 -6 227.04 14.55
-2 -2 -6 229.12 14.97
2 2 -6 215.99 14.64
2 -2 6 238.36 14.79
-2 -2 6 239.99 14.91
2 -2 -6 205.27 14.84
-2 2 -6 235.69 14.97
-2 2 -6 247.9 14.7
-2 2 -6 200.85 14.77
2 -2 -6 204.28 14.81
-3 2 6 6.28 0.65
-3 -2 -6 5 0.82
-3 -2 6 5.93 0.85
-3 2 -6 5.34 0.74
-3 2 -6 6.02 0.9
3 -2 -6 6.48 0.84
3 -2 -6 4.98 0.73
-4 2 6 90.66 6.31
-4 -2 -6 87.66 6.69
-4 -2 6 94.28 6.57
-4 2 -6 99.17 6.72
4 -2 -6 100.82 6.56
-4 2 -6 94.54 6.48
4 -2 -6 93.87 6.48
-5 2 6 0.46 0.2
-5 -2 -6 0.73 0.24
-5 -2 -6 0.22 0.26
5 -2 -6 0.16 0.21
-5 2 -6 0.23 0.25
5 -2 -6 0.18 0.2
-5 -2 6 0.41 0.28
-6 -2 -6 65.09 5.27
-6 -2 -6 66.93 4.73
-6 -2 6 63.63 5.05
-6 2 -6 78.83 5.27
6 -2 -6 67.7 4.98
-7 -2 -6 -0.12 0.25
-7 -2 -6 -0.09 0.18
-7 -2 6 -0.23 0.25
-7 2 -6 -0.18 0.24
0 3 -6 0.04 0.15
0 3 6 0.04 0.1
0 3 -6 -0.01 0.1
0 -3 -6 0.01 0.1
0 -3 -6 0.03 0.09
0 3 -6 0 0.11
0 -3 6 0.02 0.08
1 3 -6 12.2 0.9
-1 -3 -6 10.86 0.98
-1 3 6 9.83 0.83
1 -3 6 7.52 0.99
-1 3 -6 9.56 1.06
1 -3 -6 8.37 1.03
1 -3 -6 9.82 1.13
-1 3 -6 11.13 0.92
-1 -3 6 10.44 0.97
-1 3 -6 9.68 1.22
-1 3 -6 10.48 0.87
2 3 -6 0.11 0.13
2 -3 6 0.07 0.14
-2 -3 -6 0.27 0.19
-2 3 6 0.05 0.09
2 -3 -6 0 0.14
2 -3 -6 0.04 0.15
-2 3 -6 0.3 0.19
-2 3 -6 0.13 0.11
-2 3 -6 0.32 0.22
-2 -3 6 0.2 0.2
-3 -3 -6 10.78 1.3
3 3 -6 9.01 0.94
-3 -3 6 7.81 1.1
-3 3 -6 11.37 1.19
3 -3 -6 8.59 1.1
-3 3 -6 7.23 1.07
3 -3 -6 8.43 1.02
-4 -3 -6 0.19 0.29
-4 -3 -6 0.53 0.14
-4 3 6 0.4 0.17
-4 -3 6 0.64 0.31
-4 3 -6 0.29 0.28
4 -3 -6 0.34 0.25
4 -3 -6 0.16 0.22
-4 3 -6 0.44 0.26
-5 -3 -6 3.62 0.85
-5 -3 -6 3.56 0.48
-5 3 6 3.37 0.53
-5 -3 6 3.36 0.73
-5 3 -6 4.35 0.89
5 -3 -6 2.7 0.7
-6 3 6 0.04 0.15
-6 -3 -6 0.06 0.28
-6 -3 -6 0.17 0.18
-6 -3 6 -0.21 0.19
6 -3 -6 0.14 0.32
-6 3 -6 0.1 0.25
-7 -3 -6 4.6 1.11
7 -3 -6 4.63 0.95
-7 3 -6 2.93 0.9
-7 -3 6 5.37 1.02
0 -4 -6 118.4 7.38
0 4 -6 105.29 7.18
0 4 6 107.63 7.14
0 4 -6 100.76 7.4
0 4 -6 103.71 7.22
0 -4 6 105.54 7.27
-1 4 6 9.31 0.94
1 4 -6 10.74 0.9
-1 -4 -6 8.78 1.04
1 4 -6 8.58 1.03
1 -4 6 7.67 0.99
-1 4 -6 8.92 1.01
-1 4 -6 8.14 1.13
-1 4 -6 8.17 0.98
-1 -4 6 8.44 1.05
1 4 6 10.29 1.03
1 -4 -6 7.95 1.09
2 4 -6 162.06 9.93
2 -4 6 148.65 10
-2 4 6 136.35 9.82
2 4 -6 140.19 9.98
-2 -4 -6 164.63 10.11
2 -4 -6 156.62 10.12
-2 4 -6 155.63 9.99
-2 -4 6 158.06 10.07
-2 4 -6 143.67 9.99
-2 4 -6 131.58 10.06
2 -4 -6 145.3 9.98
3 4 -6 2.47 0.48
-3 4 6 3.11 0.51
-3 -4 -6 3.11 0.7
3 -4 -6 3.31 0.59
-3 4 -6 3.56 0.65
-3 4 -6 4.78 0.76
3 -4 -6 4.43 0.77
-3 -4 6 1.95 0.53
-3 4 -6 3.17 0.66
4 4 -6 81.38 5.43
-4 -4 -6 86.93 5.82
-4 4 -6 84.13 5.57
-4 4 -6 75.76 5.67
4 -4 -6 61.35 5.49
-4 -4 6 80.66 5.65
-5 -4 -6 0.69 0.42
-5 4 6 0.37 0.21
-5 -4 6 0.14 0.26
5 -4 -6 0.74 0.43
-5 4 -6 1.14 0.48
-6 -4 -6 60.95 4.64
-6 4 6 50.05 3.87
-6 -4 6 43.37 4.16
6 -4 -6 61.56 4.36
-6 4 -6 68.09 4.51
0 5 6 0.03 0.13
0 -5 6 0.02 0.15
0 -5 -6 0.17 0.17
0 5 -6 0.07 0.19
0 5 -6 0.06 0.15
0 5 -6 -0.17 0.11
1 5 -6 5.15 0.78
1 5 -6 4.48 0.89
-1 5 6 6.22 0.8
1 -5 6 4.22 0.75
1 5 -6 6.82 0.87
1 -5 -6 5.89 0.92
-1 5 -6 8.25 0.97
-1 -5 6 6.14 0.91
-1 5 -6 6.03 0.84
1 5 6 5.91 0.81
-1 5 -6 6.26 1
2 5 -6 0.23 0.19
2 -5 6 0.08 0.21
2 5 -6 0.14 0.22
-2 5 6 0.01 0.18
-2 -5 6 0.09 0.18
2 -5 -6 -0.06 0.17
-2 5 -6 0.23 0.21
-2 5 -6 0.09 0.19
2 5 6 -0.16 0.16
-2 5 -6 0.16 0.22
3 5 -6 7.84 1.08
-3 5 6 8.74 1.01
3 5 -6 8.7 1.06
-3 5 -6 7.73 1.06
-3 5 -6 8.52 1.19
-3 -5 6 10.1 1.27
-3 5 -6 8.65 1.16
3 -5 -6 7.5 1.18
4 5 -6 0.29 0.23
-4 5 -6 0.79 0.35
4 -5 -6 -0.15 0.18
-4 -5 6 0.5 0.31
-4 5 -6 0.35 0.32
-5 5 6 1.51 0.38
-5 -5 6 2 0.62
5 -5 -6 2.26 0.64
-6 5 6 0.21 0.21
-6 -5 6 0.2 0.36
6 -5 -6 -0.02 0.26
0 6 -6 139.82 9.07
0 6 -6 130.68 8.96
0 -6 -6 124.69 9.14
0 -6 6 130.35 9.12
0 6 6 132.06 8.99
0 6 -6 136.12 9.25
1 6 -6 0.03 0.24
1 6 -6 0.11 0.21
-1 6 6 0.06 0.2
1 6 -6 -0.07 0.16
1 -6 6 0.28 0.26
-1 6 -6 -0.06 0.22
-1 -6 6 0.1 0.22
-1 6 -6 0.38 0.28
1 6 6 0.29 0.25
-1 6 -6 0.1 0.25
1 -6 -6 0.03 0.25
2 -6 6 49.53 3.77
2 6 -6 58.26 3.73
-2 6 6 48.73 3.62
2 6 -6 52.8 3.74
-2 6 -6 49.98 3.74
-2 6 -6 53.34 3.89
2 -6 -6 48.59 3.87
2 6 6 48.41 3.71
-2 -6 6 44.36 3.76
-2 6 -6 40.95 3.64
3 6 -6 -0.04 0.24
-3 6 6 -0.16 0.18
3 -6 -6 -0.1 0.28
3 6 6 -0.03 0.23
-3 6 -6 0.4 0.31
-3 6 -6 0.11 0.24
-3 -6 6 0.1 0.25
-3 6 -6 -0.04 0.19
4 6 -6 82.15 6.02
4 -6 -6 63.51 5.38
-4 6 -6 70.36 5.29
-4 -6 6 78.77 5.43
-5 6 6 0.32 0.25
5 -6 6 -0.09 0.56
-5 -6 6 -0.04 0.28
5 -6 -6 0.01 0.28
0 7 -6 0.03 0.25
0 7 -6 0.05 0.24
0 7 -6 -0.11 0.23
0 7 6 0.05 0.21
0 -7 6 0.24 0.33
0 -7 -6 0.1 0.28
-1 7 6 5.2 0.89
1 -7 6 5.45 0.98
1 7 -6 6.36 1.17
1 7 -6 6.86 1.03
1 -7 -6 6.83 1.16
-1 -7 6 8.68 1.27
-1 7 -6 6.77 1.06
1 7 6 6.67 1.05
-1 7 -6 5.33 0.92
-1 7 -6 6.17 1.11
2 7 -6 0.09 0.24
-2 7 6 0.06 0.3
2 7 -6 -0.06 0.25
2 -7 -6 -0.04 0.27
2 7 6 -0.1 0.26
-2 7 -6 0.26 0.31
-2 7 -6 0.04 0.23
-2 -7 6 -0.11 0.22
3 7 -6 1.82 0.59
-3 7 -6 1.87 0.61
3 -7 -6 1.74 0.62
-3 -7 6 4.04 0.89
3 7 6 1.94 0.62
-3 7 -6 1.93 0.61
0 8 6 36.59 3.14
0 -8 6 37.12 3.26
0 8 -6 45.7 3.32
-1 8 6 1.33 0.52
1 8 -6 0.97 0.53
1 -8 6 1.22 0.52
1 8 -6 0.96 0.47
1 -8 -6 0.69 0.43
-1 -8 6 0.75 0.46
1 8 6 1.29 0.5
-1 8 -6 1.24 0.52
0 0 -7 0.08 0.13
0 0 -7 0.05 0.1
0 0 7 0.12 0.07
1 0 -7 16.09 1.27
-1 0 -7 14.8 1.28
1 0 -7 12.47 1.21
-1 0 7 14.63 1.05
-1 0 7 12.58 1.13
-1 0 -7 13.88 1.19
-2 0 -7 0 0.13
-2 0 7 0.05 0.08
2 0 -7 0.03 0.11
2 0 -7 -0.1 0.09
2 0 -7 -0.04 0.08
-2 0 7 -0.07 0.12
-2 0 -7 0 0.09
-3 0 -7 31.88 2.34
-3 0 7 34.28 2.51
-3 0 -7 29.88 2.58
-4 0 7 0 0.18
-4 0 -7 -0.03 0.12
-4 0 -7 0.04 0.17
-5 0 -7 1.02 0.42
-5 0 7 0.27 0.33
-6 0 7 0.26 0.32
-6 0 -7 0.07 0.27
-7 0 7 14.69 1.89
-7 0 -7 13.6 1.96
0 1 -7 443.96 28.74
0 1 -7 445.26 28.71
0 -1 -7 428.8 28.73
0 -1 -7 447.74 28.75
0 -1 7 453.38 28.65
0 1 -7 436.84 28.84
1 1 -7 1 0.33
-1 -1 -7 0.85 0.3
-1 -1 -7 0.24 0.15
-1 -1 -7 0.68 0.19
1 -1 7 0.79 0.23
1 1 -7 0.8 0.25
-1 1 -7 0.81 0.25
1 -1 -7 0.99 0.27
1 -1 -7 0.42 0.21
1 -1 -7 0.7 0.22
-1 1 -7 0.95 0.26
-1 -1 7 0.78 0.24
-1 1 -7 0.63 0.27
-2 -1 -7 334.44 22.87
-2 -1 -7 364.78 22.58
-2 1 7 339.29 22.55
2 -1 -7 368.11 22.7
-2 1 -7 350.55 22.85
-2 -1 7 347.53 22.76
2 -1 -7 351.47 22.65
2 -1 -7 349.61 22.79
-2 1 -7 325.84 22.62
-2 1 -7 353.66 22.67
-3 -1 -7 1.19 0.41
-3 1 7 0.59 0.18
-3 1 7 0.35 0.21
-3 -1 -7 0.83 0.24
-3 1 -7 0.52 0.23
-3 1 -7 1.06 0.37
3 -1 -7 0.18 0.22
3 -1 -7 0.62 0.23
3 -1 -7 1 0.29
-3 -1 7 1.25 0.38
-4 1 7 266.84 17.48
-4 -1 -7 272.1 17.62
-4 1 7 263.75 17.17
-4 1 -7 254.14 17.31
-4 -1 7 251.99 17.46
4 -1 -7 294.31 17.42
-4 1 -7 245.72 17.57
4 -1 -7 260.41 17.29
-5 -1 -7 0.74 0.41
-5 1 -7 0.56 0.33
5 -1 -7 1.07 0.38
-5 -1 7 1.08 0.45
-6 -1 -7 135.77 9.87
-6 -1 7 154.99 9.8
6 -1 -7 141.05 9.5
-6 1 -7 127.77 9.74
-7 -1 -7 0.24 0.27
-7 -1 -7 1.13 0.6
-7 1 -7 0.29 0.35
-7 -1 7 0.53 0.4
0 -2 -7 -0.06 0.08
0 -2 7 0.06 0.1
0 2 -7 0.19 0.16
0 2 -7 0.07 0.09
0 2 -7 -0.03 0.08
0 2 -7 -0.03 0.09
0 -2 -7 0.07 0.12
1 -2 7 19.29 1.59
1 2 -7 22.85 1.82
-1 -2 -7 21.2 1.71
-1 -2 -7 20.73 1.47
-1 2 -7 20.23 1.74
-1 -2 7 21.3 1.64
1 -2 -7 22.48 1.7
-1 2 -7 17.62 1.55
1 -2 -7 20.18 1.55
-1 2 -7 19.98 1.62
1 -2 -7 20.28 1.66
-2 -2 -7 1 0.36
-2 -2 -7 1.93 0.29
2 -2 -7 1.43 0.36
-2 2 -7 2.11 0.35
-2 2 -7 1.6 0.36
2 -2 -7 2.18 0.47
-2 -2 7 1.52 0.39
-2 2 -7 1.2 0.38
-3 -2 -7 7.36 1.06
-3 2 7 6.43 0.73
3 -2 -7 6 0.85
-3 2 -7 5.64 0.82
-3 -2 7 7.79 1.03
-3 2 -7 7.36 1.06
3 -2 -7 8.36 1.02
-4 2 7 1.56 0.34
-4 -2 -7 1.42 0.49
-4 2 -7 1.95 0.48
-4 -2 7 2.24 0.55
-4 2 -7 2.42 0.61
4 -2 -7 1.22 0.39
4 -2 -7 2.31 0.5
-5 -2 -7 13.22 1.8
-5 2 7 13.81 1.18
-5 -2 -7 15.06 1.17
-5 2 -7 16.99 1.96
-5 -2 7 10.92 1.55
5 -2 -7 15.79 1.43
5 -2 -7 12.6 1.52
-6 -2 -7 0.75 0.5
-6 -2 -7 2.32 0.44
6 -2 -7 2.07 0.56
-6 2 -7 1.91 0.63
-6 -2 7 3.36 0.79
-7 -2 -7 1.56 0.65
-7 -2 -7 3.53 0.59
-7 -2 7 1.18 0.56
-7 2 -7 3.57 0.93
0 -3 7 339.8 20.87
0 3 -7 318.67 21
0 3 7 314.9 20.65
0 3 -7 311.42 20.69
0 -3 -7 320.48 20.91
0 3 -7 307.76 20.81
1 3 -7 0.53 0.27
-1 -3 -7 0.18 0.19
1 -3 7 0.2 0.16
1 3 -7 0.31 0.18
1 3 -7 0.27 0.22
-1 3 -7 0.13 0.14
1 -3 -7 0.43 0.25
-1 3 -7 0.12 0.2
-1 3 -7 0.16 0.15
-1 -3 7 0.18 0.17
-1 3 -7 -0.08 0.09
1 -3 -7 0.66 0.28
-2 -3 -7 310.64 21.14
2 -3 7 335.71 21.04
-2 3 -7 293.8 21.17
2 -3 -7 335.99 21.13
2 -3 -7 316.4 21.09
-2 3 -7 352.14 21.07
-2 -3 7 307.79 21.11
-3 -3 -7 0.11 0.18
3 -3 -7 -0.15 0.1
-3 3 -7 0.14 0.23
-3 3 -7 0.01 0.18
-3 -3 7 0.02 0.18
3 -3 -7 -0.17 0.15
-4 -3 -7 184.88 12.7
-4 3 7 202.29 12.25
-4 3 -7 164.54 12.39
-4 -3 7 177.05 12.53
4 -3 -7 196.21 12.52
-4 3 -7 199.23 12.71
4 -3 -7 175.56 12.4
-5 3 7 -0.01 0.11
-5 -3 -7 -0.14 0.22
-5 3 -7 0.17 0.25
5 -3 -7 0.04 0.24
-5 -3 7 0.08 0.26
5 -3 -7 0.22 0.26
-6 -3 -7 156.98 10.52
-6 3 7 144.43 9.73
-6 3 -7 163.94 10.39
-6 -3 7 132.33 10.13
6 -3 -7 138.91 10.07
0 4 -7 0.02 0.13
0 4 7 -0.05 0.12
0 -4 7 0.13 0.16
0 4 -7 -0.08 0.15
0 -4 -7 -0.06 0.13
0 4 -7 0 0.14
1 4 -7 11.73 1.49
1 -4 7 14.86 1.22
1 4 -7 10.79 1.23
1 4 -7 10.65 1.01
-1 -4 7 10.01 1.25
-1 4 -7 11.09 1.23
-1 4 -7 12.27 1.22
-1 4 -7 10.91 1.45
1 4 7 12.66 1.07
1 -4 -7 10.03 1.32
2 -4 7 0.75 0.3
2 4 -7 1.49 0.41
-2 -4 -7 0.75 0.33
2 -4 -7 0.88 0.37
-2 4 -7 0.8 0.36
-2 4 -7 0.79 0.31
-2 -4 7 0.5 0.28
-2 4 -7 1.23 0.35
2 -4 -7 1.24 0.38
-3 -4 -7 4.52 0.86
-3 4 -7 4.72 0.89
3 -4 -7 5.13 0.9
3 -4 -7 5.51 0.83
-3 -4 7 5.48 0.92
-3 4 -7 5.18 0.84
-4 -4 -7 2.19 0.66
-4 4 -7 1.73 0.56
4 -4 -7 2.39 0.54
-4 4 -7 2.87 0.6
4 -4 -7 1.05 0.4
-4 -4 7 2.22 0.58
-5 4 7 8.52 0.99
-5 -4 -7 7.97 1.35
5 -4 -7 8.92 1.28
-5 4 -7 9 1.43
-5 -4 7 8.79 1.33
-6 4 7 1.34 0.35
-6 -4 -7 0.37 0.41
-6 4 -7 0.79 0.45
6 -4 -7 1.47 0.52
-6 -4 7 1.76 0.63
0 5 -7 236.42 15.47
0 5 -7 214.07 15.64
0 5 -7 255.44 15.44
0 -5 -7 222.51 15.59
0 -5 7 240.69 15.57
0 5 7 231.11 15.37
1 5 -7 0.74 0.32
-1 5 7 1.16 0.31
1 5 -7 1.01 0.34
1 5 -7 0.67 0.41
1 -5 7 1.03 0.39
-1 5 -7 0.94 0.43
1 -5 -7 0.74 0.35
-1 5 -7 0.74 0.31
1 5 7 0.64 0.29
-1 5 -7 0.45 0.26
-1 -5 7 1.24 0.42
2 5 -7 213.84 14.36
2 -5 7 221.19 14.42
2 5 -7 222.93 14.45
2 5 7 202.15 14.3
-2 5 -7 216.61 14.36
2 -5 -7 200.95 14.48
-2 -5 7 234.65 14.52
-2 5 -7 217.07 14.4
-2 5 -7 213.6 14.56
-3 -5 -7 0.32 0.37
3 5 -7 0.45 0.3
-3 5 -7 0.97 0.41
-3 5 -7 0.72 0.39
-3 5 -7 0.91 0.4
3 -5 -7 0.64 0.39
-3 -5 7 0.84 0.4
-4 -5 -7 166.74 11.59
4 5 -7 160.54 11.34
-4 5 -7 175.18 11.4
-4 -5 7 162.99 11.44
-4 5 -7 169.18 11.58
4 -5 -7 170.54 11.54
-5 5 7 0.18 0.22
-5 5 -7 0.96 0.52
-5 -5 7 0.56 0.42
5 -5 -7 -0.13 0.26
0 6 -7 -0.17 0.19
0 -6 7 -0.05 0.24
0 6 -7 0.02 0.22
0 6 -7 -0.04 0.18
0 -6 -7 0.14 0.26
0 6 7 -0.1 0.19
1 6 -7 5 1.05
1 6 -7 4.37 0.77
1 6 -7 4.68 0.82
-1 6 7 5.03 0.74
1 -6 7 4.55 0.86
-1 6 -7 3.37 0.7
1 -6 -7 4.95 0.94
-1 6 -7 4.82 0.82
1 6 7 4.82 0.78
-1 6 -7 5.61 1.06
-1 -6 7 4.19 0.84
2 6 -7 0 0.21
2 -6 7 0.18 0.23
2 6 -7 0.26 0.41
-2 6 -7 0.11 0.2
-2 6 -7 0.1 0.24
2 6 7 0.18 0.23
-2 6 -7 -0.06 0.27
2 -6 -7 0.72 0.4
-2 -6 7 -0.17 0.22
3 6 -7 10.82 1.39
-3 6 -7 12.53 1.48
3 6 7 10.32 1.38
-3 6 -7 12.86 1.65
3 -6 -7 12.45 1.66
-3 -6 7 11.7 1.54
-3 6 -7 10.93 1.42
-4 -6 7 0.52 0.4
4 -6 -7 0.18 0.33
-4 6 -7 0.24 0.31
0 7 -7 186.12 12.26
0 7 -7 170.87 12.53
0 7 -7 175.18 12.25
0 7 7 192.58 12.25
1 -7 7 0.19 0.33
1 7 -7 -0.19 0.19
1 7 -7 -0.21 0.25
1 7 -7 0.08 0.33
-1 -7 7 -0.28 0.25
1 7 7 -0.19 0.26
-1 7 -7 0.03 0.29
-1 7 -7 0.07 0.27
1 -7 -7 0.02 0.24
-1 7 -7 0.06 0.27
2 7 -7 127.41 9.31
-2 7 -7 141.1 9.07
2 7 7 124.76 8.95
2 -7 -7 119.73 9.17
-2 7 -7 129.97 8.97
-2 -7 7 134.5 9.16
-3 7 -7 0 0.33
-3 7 -7 0.52 0.37
-3 -7 7 0.26 0.35
3 7 7 0.09 0.36
3 -7 -7 0.62 0.47
0 0 -8 7 0.93
0 0 -8 7.8 0.86
0 0 8 6.88 0.58
0 0 -8 7.13 0.9
1 0 -8 0.04 0.1
1 0 -8 -0.03 0.12
-1 0 -8 0.1 0.16
-1 0 8 0.01 0.08
-1 0 -8 0.06 0.13
2 0 -8 22.49 1.89
-2 0 -8 22.35 1.96
2 0 -8 24.64 1.94
-2 0 -8 21.63 1.73
-2 0 8 23.17 1.67
3 0 -8 0.1 0.18
-3 0 -8 0.13 0.2
-3 0 -8 0.08 0.12
-4 0 -8 5.42 0.77
-4 0 -8 6.86 1.12
-4 0 8 6.89 1.11
-5 0 -8 0.17 0.22
-6 0 -8 5.35 1.1
7 0 -8 0.06 0.26
-7 0 -8 0.3 0.39
0 -1 -8 0.03 0.1
0 1 -8 -0.09 0.09
0 -1 -8 0.05 0.12
0 1 -8 -0.01 0.12
0 -1 -8 -0.03 0.11
0 1 -8 -0.08 0.13
1 1 -8 380.85 24.15
-1 -1 -8 343.35 24
1 1 -8 371.45 24.06
-1 -1 -8 372.09 23.87
-1 1 8 343.49 23.76
-1 -1 -8 352.96 24.09
-1 1 -8 374.77 23.96
-1 1 -8 370.44 24.16
-1 -1 8 377.15 23.97
1 -1 -8 403.81 24.03
-1 1 -8 365.79 23.97
1 -1 -8 364.74 24.09
-2 -1 -8 0.77 0.22
-2 -1 -8 0.67 0.32
-2 1 8 1 0.24
2 1 -8 2.65 0.55
-2 1 -8 1.26 0.3
-2 1 -8 0.86 0.28
2 -1 -8 4.27 0.56
-2 -1 8 1.07 0.34
-2 1 -8 0.99 0.38
2 -1 -8 1.11 0.35
2 -1 -8 0.45 0.26
-3 -1 -8 309.27 20.51
-3 -1 -8 317.64 20.13
-3 1 8 299.4 20.07
-3 1 -8 314.86 20.5
3 -1 -8 319.33 20.26
3 -1 -8 302.83 20.16
-3 1 -8 301.82 20.21
-3 -1 8 319.14 20.36
3 -1 -8 296.32 20.33
-4 1 8 0.58 0.21
-4 -1 -8 0.99 0.42
-4 -1 -8 1.21 0.32
-4 1 -8 0.6 0.35
4 -1 -8 1.12 0.42
-4 -1 8 0.69 0.37
-4 1 -8 1.36 0.38
-5 -1 -8 164.12 11.5
-5 1 -8 156.51 11.47
5 -1 -8 174.02 11.27
-5 -1 8 169.52 11.36
-6 -1 -8 0.31 0.36
-6 1 -8 0.44 0.37
6 -1 -8 0.84 0.38
-6 -1 8 0.98 0.47
-7 -1 -8 107.12 7.72
-7 -1 -8 106.29 8.31
-7 1 -8 121.93 8.42
7 -1 -8 106.93 8.19
-7 -1 8 136.93 8.72
0 -2 -8 21.75 1.84
0 2 -8 21.14 1.78
0 -2 -8 25.29 1.85
0 2 -8 22.38 1.81
0 -2 -8 20.74 1.66
0 2 -8 21.44 1.94
0 -2 8 24.1 1.8
-1 -2 -8 0.7 0.3
-1 -2 -8 0.44 0.17
1 2 -8 0.97 0.38
-1 2 -8 0.77 0.32
-1 2 -8 0.56 0.23
1 -2 -8 1.04 0.29
1 -2 -8 0.55 0.27
1 -2 -8 0.46 0.24
-1 -2 8 0.57 0.26
-2 -2 -8 9.46 1.23
2 -2 -8 9.27 1.13
-2 2 -8 8.45 1
-2 2 -8 7.41 0.88
-2 2 -8 8.7 1.17
-2 -2 8 7.96 1.06
2 -2 -8 10.32 1.1
-3 -2 -8 0.06 0.18
-3 2 8 0.24 0.15
3 -2 -8 0.16 0.18
-3 2 -8 0.16 0.21
-3 2 -8 0.56 0.29
3 -2 -8 0.39 0.26
-3 -2 8 0.09 0.21
-4 2 8 11.69 1.03
-4 -2 -8 12.59 1.6
4 -2 -8 10.27 1.27
-4 -2 8 13.1 1.57
-4 2 -8 16.1 1.29
-4 2 -8 8.21 1.36
4 -2 -8 12.4 1.42
-5 2 8 0.08 0.12
-5 -2 -8 -0.05 0.13
-5 -2 -8 0.22 0.29
-5 -2 8 -0.01 0.21
-5 2 -8 0.2 0.33
-5 2 -8 0.06 0.21
5 -2 -8 0.06 0.23
-6 -2 -8 6.06 1.24
-6 2 -8 5.45 1.06
6 -2 -8 6.32 1.04
-6 -2 8 7.33 1.21
0 3 -8 0.01 0.17
0 3 -8 0.19 0.18
0 -3 8 -0.01 0.14
0 3 -8 0.17 0.17
1 3 -8 284.78 20.01
1 3 -8 273.02 20.2
-1 -3 -8 320.75 20.04
-1 3 -8 314.71 19.92
-1 3 -8 319.88 20.24
1 -3 -8 310.46 20.08
-1 3 -8 310.96 20.02
1 -3 -8 273.45 20.02
-1 3 -8 323.77 19.88
-1 -3 8 315.79 20.06
-2 -3 -8 0.11 0.18
-2 3 -8 0 0.18
2 -3 -8 -0.04 0.13
-2 -3 8 -0.08 0.16
2 -3 -8 0.21 0.22
-2 3 -8 0.19 0.19
-3 -3 -8 180.62 13.35
-3 3 -8 192.05 13.22
3 -3 -8 211.57 13.28
-3 3 -8 194.13 13.41
3 -3 -8 216.61 13.31
-3 -3 8 195.04 13.32
-4 3 8 0.21 0.18
-4 -3 -8 0.29 0.3
-4 -3 8 0.44 0.33
4 -3 -8 0.1 0.2
-4 3 -8 0.15 0.29
-4 3 -8 0.15 0.2
4 -3 -8 0.36 0.29
-5 3 8 193.41 12.59
-5 -3 -8 188.39 13.2
5 -3 -8 176.96 12.8
-5 3 -8 173.44 12.8
5 -3 -8 206.07 12.91
-5 -3 8 196.02 13.03
-5 3 -8 202.46 13.21
-6 3 8 0.13 0.18
-6 -3 -8 -0.06 0.33
-6 -3 8 0.4 0.36
-6 3 -8 0.41 0.34
0 4 -8 9.89 1.24
0 4 -8 14.97 1.69
0 -4 8 12.73 1.39
0 -4 -8 11.99 1.43
0 4 -8 10.41 1.17
1 -4 8 1 0.36
1 4 -8 1.53 0.53
1 4 -8 1.18 0.36
-1 4 -8 1.26 0.48
-1 4 -8 0.91 0.31
-1 4 -8 0.8 0.31
1 -4 -8 1.42 0.46
-1 -4 8 1.45 0.44
2 4 -8 11.99 1.39
-2 -4 -8 11.97 1.44
-2 4 -8 10.38 1.49
2 -4 -8 10.53 1.36
-2 -4 8 14.27 1.57
2 -4 -8 14.19 1.49
-2 4 -8 9.72 1.26
-3 -4 -8 0.9 0.41
-3 4 -8 0.6 0.33
3 -4 -8 0.08 0.21
3 -4 -8 1.16 0.4
-3 4 -8 0.3 0.28
-3 -4 8 0.51 0.31
-4 4 8 7.96 0.88
-4 -4 -8 6.56 1.16
-4 4 -8 8.91 1.36
-4 4 -8 6.44 1.03
4 -4 -8 6.61 1.01
4 -4 -8 5.19 0.99
-4 -4 8 9.03 1.31
-5 4 8 0.03 0.15
-5 -4 -8 0.13 0.35
-5 4 -8 -0.01 0.34
5 -4 -8 0.16 0.27
-5 4 -8 0.07 0.28
-5 -4 8 0.14 0.29
-6 -4 -8 4.8 1.1
-6 4 8 5.42 0.75
-6 4 -8 4.79 1.04
6 -4 -8 4.38 0.93
-6 -4 8 5.85 1.12
0 -5 8 0.03 0.22
0 5 -8 0.36 0.31
0 5 -8 -0.03 0.15
0 -5 -8 0 0.2
1 5 -8 187.48 14.4
1 -5 8 221.27 14.24
1 5 -8 218.76 14.18
1 5 8 240.81 14.74
-1 5 -8 196.87 14.12
-1 -5 8 207.5 14.25
-1 5 -8 216.04 14.1
-1 5 -8 191.19 14.35
1 -5 -8 242.75 14.4
2 5 -8 0.06 0.18
2 5 -8 0.01 0.23
-2 5 -8 0.01 0.23
2 -5 -8 0.22 0.3
2 5 8 0.53 0.26
-2 -5 8 0.23 0.24
-2 5 -8 0.03 0.23
-2 5 -8 0.18 0.26
3 5 -8 191.85 12.92
-3 5 -8 190.06 13.11
-3 -5 8 196.58 13.06
-3 5 -8 177.74 12.91
3 -5 -8 203.5 13.11
-4 -5 -8 0.11 0.35
4 5 -8 -0.03 0.27
-4 -5 8 0.67 0.38
-4 5 -8 0.29 0.26
-4 5 -8 0.32 0.38
4 -5 -8 0.7 0.39
-5 -5 -8 115.02 8.23
-5 5 8 109.81 7.62
-5 5 -8 114.48 8.2
-5 -5 8 110.17 8
5 -5 -8 112.56 8.03
0 6 -8 3.38 0.9
0 -6 8 3.35 0.78
0 6 -8 4.47 0.79
1 6 -8 0.99 0.52
1 6 -8 0.37 0.3
1 -6 8 0.66 0.4
1 -6 -8 1.35 0.54
-1 -6 8 1.3 0.54
-1 6 -8 0.73 0.4
-1 6 -8 0.67 0.36
-1 6 -8 0.31 0.31
2 6 -8 10.42 1.36
2 6 -8 9.87 1.56
-2 -6 8 9.78 1.45
-2 6 -8 11.61 1.35
2 6 8 10.85 1.31
-2 6 -8 10.33 1.36
2 -6 -8 6.96 1.31
-2 6 -8 10.89 1.59
3 6 -8 0.45 0.31
-3 6 -8 0.19 0.35
-3 -6 8 0.35 0.3
3 -6 -8 0.19 0.33
3 6 8 0.07 0.26
-3 6 -8 -0.01 0.25
-4 -6 8 4.24 0.92
4 -6 -8 5.08 1.01
-4 6 -8 3.23 0.79
4 6 8 4.82 0.91
-4 6 -8 4.48 1.1
0 7 -8 0.05 0.27
0 -7 8 -0.07 0.27
0 7 -8 0.06 0.35
1 7 -8 148.17 9.55
1 7 -8 134.79 9.86
1 -7 8 144.57 9.71
1 -7 -8 131.59 9.74
-1 -7 8 138.45 9.77
-1 7 -8 132.95 9.55
-1 7 -8 140.29 9.81
-1 7 -8 135.64 9.55
2 7 -8 0.3 0.44
-2 7 -8 0.32 0.42
2 7 8 0.13 0.31
2 -7 -8 0.01 0.31
-2 -7 8 0.34 0.45
-2 7 -8 -0.08 0.3
-2 7 -8 0.2 0.34
0 0 -9 0.17 0.16
0 0 9 -0.03 0.08
0 0 -9 0.13 0.17
0 0 -9 0.09 0.15
-1 0 -9 118.36 8.06
-1 0 9 120.1 7.92
-1 0 -9 125.07 8.29
-1 0 -9 117.07 8.15
1 0 -9 121.81 8.28
-2 0 -9 -0.06 0.11
2 0 -9 -0.06 0.13
-2 0 -9 -0.02 0.13
-2 0 9 0.05 0.11
2 0 -9 -0.11 0.14
-3 0 -9 94.31 6.86
-3 0 -9 99.32 6.52
3 0 -9 95.01 6.69
3 0 -9 92.75 6.69
-4 0 -9 0.16 0.19
4 0 -9 0.1 0.2
4 0 -9 0.14 0.22
-4 0 -9 0.14 0.24
-5 0 -9 51.68 4.43
5 0 -9 62.7 4.32
6 0 -9 0.09 0.21
-6 0 -9 -0.12 0.24
0 -1 -9 4.33 0.72
0 1 -9 4.39 0.73
0 1 -9 5.07 0.83
0 -1 -9 4.13 0.61
0 1 -9 3.54 0.61
0 -1 -9 3.65 0.64
1 1 -9 6.69 0.96
1 1 -9 4.37 0.85
-1 -1 -9 6.79 0.78
-1 -1 -9 9.62 1.07
-1 -1 -9 5.7 0.92
-1 1 9 7.66 0.71
-1 1 -9 7.52 0.91
1 -1 -9 5 0.79
-1 1 -9 5.69 0.82
1 -1 -9 6.24 0.93
-1 1 -9 7.28 1.05
2 1 -9 19.24 1.69
2 1 -9 20.81 1.81
-2 -1 -9 18.21 1.77
-2 1 9 19.8 1.46
-2 -1 -9 18.22 1.48
2 -1 -9 18.36 1.63
2 -1 -9 18.18 1.7
-2 1 -9 20.14 1.59
-2 1 -9 19.87 1.58
-2 1 -9 17.12 1.73
3 1 -9 2.89 0.68
-3 -1 -9 3.11 0.52
-3 1 9 2.65 0.44
-3 -1 -9 2.23 0.64
-3 1 -9 2.83 0.69
-3 1 -9 3.66 0.61
3 -1 -9 3.41 0.7
-4 -1 -9 9.16 1.27
-4 1 9 4.03 0.64
-4 1 -9 5.64 0.83
-4 1 -9 12.61 1.56
4 -1 -9 5.19 0.93
-5 -1 -9 0.06 0.22
-5 1 -9 -0.03 0.24
5 -1 -9 0.09 0.23
-5 1 -9 0.03 0.23
-6 -1 -9 3.94 1.01
-6 1 -9 3.77 0.94
6 -1 -9 5.2 0.95
0 2 -9 -0.02 0.18
0 -2 -9 -0.06 0.11
0 -2 -9 -0.08 0.13
0 2 -9 0.19 0.19
0 -2 -9 0.05 0.15
0 2 -9 0.04 0.16
1 2 -9 113.26 7.39
-1 -2 -9 103.82 7.41
1 2 -9 103.98 7.36
1 2 -9 104.68 7.5
-1 -2 -9 114.93 7.15
-1 2 -9 113.58 7.3
1 -2 -9 112.57 7.32
-1 2 -9 95.21 7.45
-1 2 -9 101.39 7.29
1 -2 -9 106.41 7.41
-2 2 9 0.01 0.12
2 2 -9 0.01 0.2
-2 -2 -9 0.01 0.17
-2 2 -9 0 0.17
2 -2 -9 0.14 0.18
-2 2 -9 -0.07 0.12
-2 -2 9 -0.05 0.19
-2 2 -9 -0.06 0.12
2 -2 -9 0.28 0.25
-3 2 9 90.78 6.16
-3 -2 -9 97.32 6.61
-3 -2 9 90.71 6.47
-3 2 -9 87.4 6.58
3 -2 -9 90.26 6.45
-3 2 -9 88.33 6.34
3 -2 -9 94.77 6.34
-4 -2 -9 0.54 0.35
-4 2 9 0.09 0.15
-4 -2 9 0.19 0.3
4 -2 -9 0.17 0.21
-4 2 -9 0.25 0.29
-4 2 -9 0.04 0.19
-5 -2 -9 51.71 4.35
-5 2 9 47.36 3.78
-5 -2 9 61.68 4.33
5 -2 -9 58.62 4.17
-5 2 -9 58.37 4.44
-5 2 -9 53.3 4.04
-6 -2 -9 0.02 0.31
-6 2 -9 -0.1 0.32
6 -2 -9 0.01 0.29
-6 -2 9 0.05 0.38
0 3 -9 33.21 2.79
0 3 -9 32.37 2.55
0 3 -9 32.66 2.54
1 3 -9 -0.03 0.19
1 3 -9 0.07 0.22
-1 -3 -9 0.23 0.21
1 3 -9 -0.01 0.15
-1 -3 9 0.24 0.22
-1 3 -9 -0.08 0.15
-1 3 -9 0.04 0.17
-1 3 -9 0.1 0.18
1 -3 -9 0.02 0.15
1 -3 -9 0.07 0.2
2 3 -9 0.93 0.37
-2 -3 -9 1.58 0.47
2 3 -9 0.53 0.36
-2 3 -9 1.32 0.39
2 -3 -9 1.05 0.38
-2 3 -9 1.18 0.45
2 -3 -9 1.67 0.49
-2 -3 9 1.3 0.42
-3 -3 -9 -0.02 0.22
-3 3 9 0.06 0.14
3 -3 -9 -0.07 0.18
3 -3 -9 0.03 0.19
-3 3 -9 -0.11 0.13
-3 3 -9 0 0.17
-3 -3 9 0.02 0.21
-4 3 9 13.5 1.15
-4 -3 -9 8.46 1.47
-4 3 -9 13.92 1.53
-4 -3 9 11.63 1.53
4 -3 -9 11.42 1.43
-4 3 -9 12.63 1.78
4 -3 -9 17.71 1.72
-5 -3 -9 0.22 0.34
-5 3 9 0.05 0.17
-5 -3 9 -0.07 0.29
-5 3 -9 -0.05 0.24
5 -3 -9 0 0.26
-5 3 -9 0.07 0.33
-6 -3 -9 3.12 0.89
-6 -3 9 3.17 0.84
-6 3 -9 4.44 1.05
0 4 -9 -0.03 0.17
0 -4 9 0.85 0.39
0 4 -9 0.1 0.2
0 4 -9 0.01 0.19
1 4 -9 98.67 6.45
1 4 -9 84.21 6.61
1 -4 -9 92.03 6.49
-1 -4 9 81.69 6.4
-1 4 -9 89.55 6.37
-1 4 -9 103.5 6.7
2 4 -9 0.07 0.3
2 4 -9 0.03 0.2
2 -4 -9 0.25 0.22
-2 4 -9 0.06 0.19
-2 4 -9 0.04 0.18
2 -4 -9 0.04 0.21
-2 -4 9 0.06 0.23
3 4 -9 64.11 4.55
-3 -4 -9 62.46 4.66
-3 4 -9 67.09 4.54
3 -4 -9 68.72 4.57
3 -4 -9 55.41 4.49
-3 4 -9 53.32 4.6
-3 -4 9 56.01 4.51
-4 4 9 0.22 0.2
-4 -4 -9 0.17 0.32
-4 -4 9 -0.05 0.28
-4 4 -9 0.1 0.24
4 -4 -9 0.23 0.3
-4 4 -9 0.28 0.35
4 -4 -9 -0.07 0.23
-5 4 9 59.1 3.85
-5 -4 -9 53.26 4.37
-5 4 -9 51.4 4.35
-5 -4 9 51.36 4.2
-5 4 -9 51.76 4.07
5 -4 -9 50.92 4.1
0 -5 9 2.8 0.66
0 5 -9 1.98 0.55
0 5 -9 2.57 0.73
1 5 -9 2.28 0.58
1 5 -9 2.14 0.69
-1 5 -9 2.92 0.78
-1 -5 9 2.78 0.67
-1 5 -9 3.13 0.67
1 -5 -9 2.32 0.67
2 5 -9 16.65 1.68
2 5 -9 12.86 1.81
-2 -5 9 12.32 1.65
-2 5 -9 13.39 1.6
2 -5 -9 11.41 1.61
-2 5 -9 12.15 1.72
3 5 -9 1.09 0.44
3 5 -9 0.78 0.47
-3 -5 9 1.6 0.59
-3 5 -9 0.8 0.44
3 -5 -9 0.79 0.47
-3 5 -9 0.4 0.32
4 5 -9 3.62 0.76
-4 5 9 4.07 0.62
4 -5 -9 1.37 0.59
-4 -5 9 3.17 0.81
-4 5 -9 3.06 0.86
-4 5 -9 3.7 0.8
0 6 -9 0.01 0.23
0 -6 9 -0.22 0.27
0 6 -9 -0.1 0.29
1 6 -9 52.04 4.52
1 6 -9 59.59 4.33
-1 6 -9 56.94 4.53
1 -6 -9 56.46 4.46
-1 6 -9 60.75 4.36
-1 -6 9 57 4.44
2 6 -9 0.17 0.34
2 6 -9 0.14 0.3
-2 6 -9 -0.04 0.24
-2 -6 9 0.14 0.31
-2 6 -9 0.14 0.31
2 -6 -9 0.35 0.4
3 6 -9 47.51 4.16
3 6 -9 46.5 3.81
-3 6 -9 51.66 4.14
-3 6 -9 48.56 3.88
-3 -6 9 57.73 4.12
3 -6 -9 48.13 4.05
0 -7 9 3.63 0.86
0 7 -9 3.27 0.74
0 7 -9 2.43 0.81
0 0 10 329.88 21.19
0 0 -10 317.4 21.38
0 0 -10 341.19 21.63
0 0 -10 318.86 21.5
1 0 -10 -0.11 0.16
-1 0 -10 0.29 0.22
1 0 -10 0.23 0.21
-1 0 -10 -0.04 0.12
-1 0 -10 -0.13 0.14
-2 0 -10 353.82 22.56
-2 0 -10 327.52 22.87
2 0 -10 326.97 22.79
2 0 -10 372.89 22.86
3 0 -10 0.17 0.21
-3 0 -10 0.09 0.2
3 0 -10 -0.19 0.13
-3 0 -10 0 0.15
-4 0 -10 182.07 12.92
-4 0 -10 191.27 12.5
4 0 -10 188.54 12.73
5 0 -10 0.17 0.26
-5 0 -10 0.35 0.37
6 0 -10 161.04 10.88
-6 0 -10 153.54 11.12
0 -1 -10 -0.12 0.14
0 1 -10 -0.11 0.15
0 -1 -10 0.13 0.19
0 -1 -10 0 0.13
0 1 -10 -0.05 0.11
0 1 -10 -0.01 0.16
1 1 -10 32.07 2.6
1 1 -10 32 2.69
-1 -1 -10 30.52 2.36
1 1 -10 31.7 2.52
-1 -1 -10 31.37 2.62
-1 -1 -10 27.2 2.47
-1 1 -10 32.43 2.51
1 -1 -10 35.1 2.59
-1 1 -10 33.13 2.69
-1 1 -10 34.88 2.5
1 -1 -10 30.08 2.56
2 1 -10 0.16 0.24
-2 -1 -10 1 0.3
-2 1 10 0.97 0.27
-2 -1 -10 0.1 0.24
2 1 -10 0.69 0.36
-2 1 -10 1.21 0.35
2 -1 -10 1.76 0.53
-2 1 -10 0.99 0.42
-2 1 -10 1.44 0.39
2 -1 -10 1.28 0.41
-3 1 10 18.45 1.43
3 1 -10 20.87 1.78
3 1 -10 14.55 1.9
-3 -1 -10 18.32 1.84
3 -1 -10 15.3 1.83
-3 1 -10 16.32 2.04
-3 1 -10 18.54 1.58
4 1 -10 2.33 0.64
4 1 -10 1.1 0.44
-4 -1 -10 2.29 0.68
-4 1 -10 1.77 0.47
4 -1 -10 1.39 0.53
-4 1 -10 1.49 0.56
-5 -1 -10 24.18 2.34
5 1 -10 25.01 2.14
5 -1 -10 22.86 2.13
-5 1 -10 24.25 2.02
-5 1 -10 19.14 2.43
-6 -1 -10 1.61 0.67
6 1 -10 0.95 0.49
6 -1 -10 0.6 0.4
-6 1 -10 0.67 0.53
0 -2 -10 319.07 20.98
0 2 -10 310.83 20.92
0 2 -10 352.74 21.02
0 2 -10 283.82 21.11
0 -2 -10 334.84 20.78
0 -2 -10 308.67 21
1 2 -10 0.91 0.43
1 2 -10 0.6 0.32
1 2 -10 0.37 0.26
-1 -2 -10 1.24 0.43
1 -2 -10 0.72 0.34
-1 2 -10 0.95 0.41
-1 2 -10 0.77 0.32
-1 2 -10 0.58 0.27
2 2 -10 291.04 18.64
2 2 -10 241.97 18.35
-2 2 10 298.61 18.11
-2 -2 -10 273.44 18.53
2 -2 -10 277.61 18.44
-2 2 -10 294.1 18.25
-2 2 -10 266.35 18.28
-2 2 -10 281.51 18.57
2 -2 -10 271.68 18.28
-3 -2 -10 0.59 0.34
3 2 -10 0.05 0.25
-3 2 10 0.08 0.16
-3 2 -10 0.07 0.22
-3 2 -10 0.43 0.37
3 -2 -10 0.15 0.21
-4 -2 -10 237.08 15.55
-4 2 10 234.16 14.99
-4 2 -10 240.49 15.24
4 -2 -10 225.87 15.33
-4 2 -10 201.56 15.5
-5 -2 -10 0.56 0.43
-5 2 -10 1.21 0.45
-5 2 -10 0.99 0.52
5 -2 -10 0.82 0.41
0 3 -10 0.29 0.24
0 3 -10 0 0.23
0 3 -10 -0.06 0.14
1 3 -10 18.28 1.78
1 3 -10 21.33 1.86
1 3 -10 20.93 2.02
-1 3 -10 21.82 1.76
-1 3 -10 20.29 1.8
1 -3 -10 21.15 1.89
-1 3 -10 19.64 1.97
2 3 -10 -0.05 0.23
2 3 -10 -0.14 0.2
-2 -3 -10 -0.19 0.19
2 3 -10 -0.02 0.18
-2 3 -10 -0.09 0.21
-2 3 -10 0 0.16
2 -3 -10 -0.05 0.18
2 -3 -10 0.16 0.22
3 3 -10 32.6 2.94
-3 -3 -10 34.68 2.9
-3 3 10 33.29 2.48
3 -3 -10 37.03 2.84
-3 3 -10 31.89 2.69
3 -3 -10 36.22 2.79
-3 3 -10 30.28 2.88
-4 3 10 0.01 0.15
-4 -3 -10 0.15 0.31
4 -3 -10 0.27 0.29
-4 3 -10 0.16 0.26
-4 3 -10 0.26 0.33
-5 3 10 4.83 0.72
-5 -3 -10 5.25 1.14
-5 3 -10 6.81 1.27
-5 3 -10 6.47 1.02
5 -3 -10 4.82 0.94
0 4 -10 263.32 17.14
0 4 -10 298.91 17.43
0 4 -10 216.28 17.31
1 4 -10 -0.03 0.21
1 4 -10 0.03 0.19
1 4 -10 0.65 0.32
-1 4 -10 0.06 0.3
-1 4 -10 0.21 0.25
2 4 -10 192.07 13.67
2 4 -10 215.41 13.42
2 -4 -10 199.92 13.43
2 -4 -10 192.16 13.39
-2 4 -10 207.99 13.37
-2 4 -10 183.99 13.56
3 4 -10 0.34 0.36
-3 4 10 0.35 0.26
3 4 -10 0.33 0.3
-3 4 -10 0.48 0.38
-3 4 -10 0.89 0.4
3 -4 -10 0.9 0.44
-3 -4 10 0.16 0.33
3 -4 -10 0.06 0.27
-4 -4 -10 199.18 13.54
-4 4 10 186.11 12.97
4 -4 -10 192.12 13.26
4 -4 -10 224.56 13.41
-4 4 -10 174.32 13.5
-4 4 -10 189.45 13.25
-4 -4 10 210.2 13.42
0 5 -10 0.22 0.26
0 5 -10 0.26 0.35
1 5 -10 20.34 2.17
1 5 -10 25.5 2.3
-1 5 -10 19.38 2.1
-1 5 -10 18.48 2.34
2 5 -10 1.17 0.46
2 5 -10 0.27 0.35
-2 -5 10 0.75 0.46
2 -5 -10 0.58 0.37
-2 5 -10 0.14 0.29
-2 5 -10 0.1 0.27
3 5 -10 11.37 1.79
3 5 -10 12.86 1.55
-3 5 -10 8.64 1.33
-3 5 -10 9.9 1.62
-3 -5 10 10.91 1.53
4 5 -10 0.1 0.3
-4 5 10 0.61 0.32
4 5 -10 0.46 0.38
-4 5 -10 1.19 0.47
-4 5 -10 0.23 0.44
-4 -5 10 0.52 0.48
4 -5 -10 0.34 0.41
0 6 -10 153.52 11.18
0 6 -10 161.24 10.82
1 6 -10 0.09 0.29
1 6 -10 0.08 0.26
-1 6 -10 0.59 0.39
-1 6 -10 0.2 0.37
2 6 -10 172.85 12.98
2 6 -10 192.64 12.72
-2 6 -10 190.86 13.01
2 -6 -10 182.49 12.85
-2 6 -10 184.66 12.72
-2 -6 10 194.37 12.88
0 0 -11 0 0.21
0 0 -11 -0.1 0.16
0 0 -11 -0.1 0.13
-1 0 -11 97.15 6.97
1 0 -11 112.4 7.27
1 0 -11 101.05 7.07
-1 0 -11 96 7.08
1 0 -11 107.39 7.24
-1 0 -11 99.93 7.25
-2 0 -11 -0.03 0.14
2 0 -11 0.14 0.24
2 0 -11 -0.02 0.25
-2 0 -11 0.04 0.25
-3 0 -11 70.27 4.78
3 0 -11 65.68 4.98
3 0 -11 65.5 5.01
-3 0 -11 65.75 5.16
-4 0 -11 0.03 0.21
4 0 -11 0.15 0.27
-4 0 -11 0.16 0.31
-5 0 -11 61.82 5
5 0 -11 64.26 4.84
0 1 -11 2.84 0.58
0 1 -11 3.91 0.82
0 1 -11 3.27 0.7
0 -1 -11 2.48 0.65
0 -1 -11 3.45 0.71
0 -1 -11 3.71 0.63
1 1 -11 1.45 0.45
1 1 -11 0.87 0.38
1 1 -11 0.95 0.47
-1 -1 -11 0.93 0.31
-1 -1 -11 2.93 0.68
-1 -1 -11 1.66 0.49
1 -1 -11 1.58 0.5
-1 1 -11 1.21 0.48
-1 1 -11 1.09 0.38
1 -1 -11 1.16 0.44
-1 1 -11 1.11 0.41
-2 -1 -11 6.18 1.12
-2 1 11 7.38 0.79
2 1 -11 11.59 1.36
2 1 -11 6.31 1.14
-2 -1 -11 6.13 0.82
-2 1 -11 5.13 0.85
-2 1 -11 6.07 1.12
2 -1 -11 8.83 1.23
-3 1 11 0.53 0.25
-3 -1 -11 1.95 0.66
3 1 -11 0.98 0.43
3 1 -11 1.08 0.49
-3 1 -11 0.85 0.34
-3 1 -11 0.05 0.26
3 -1 -11 0.77 0.44
4 1 -11 2.37 0.67
-4 -1 -11 3.04 0.83
4 1 -11 3.72 0.85
-4 1 -11 2.35 0.75
4 -1 -11 3.05 0.76
-4 1 -11 4.09 0.74
-5 -1 -11 0.14 0.32
5 1 -11 0.16 0.3
-5 1 -11 0.05 0.37
-5 1 -11 0.31 0.3
5 -1 -11 -0.02 0.25
0 -2 -11 0.19 0.26
0 2 -11 0.11 0.24
0 2 -11 0.09 0.24
0 2 -11 -0.07 0.18
1 2 -11 89.56 6.03
-1 -2 -11 85.09 6.11
1 2 -11 76.72 6.2
1 2 -11 86.51 6.09
1 -2 -11 81.62 6.07
-1 2 -11 82.26 6.22
-1 2 -11 86.35 5.98
-1 2 -11 87.66 5.97
2 2 -11 0.03 0.19
2 2 -11 0.79 0.37
-2 -2 -11 0.23 0.31
2 2 -11 0.18 0.24
2 -2 -11 -0.15 0.15
-2 2 -11 0.28 0.26
-2 2 -11 0.07 0.28
3 2 -11 75.14 5.66
-3 -2 -11 80.71 5.83
3 2 -11 79.81 5.86
-3 2 11 78 5.32
-3 2 -11 80.42 5.57
-3 2 -11 72.74 5.83
3 -2 -11 74.86 5.65
4 2 -11 0.26 0.31
4 2 -11 0.11 0.28
-4 2 11 0.48 0.24
-4 -2 -11 0.29 0.32
4 -2 -11 0.69 0.37
-4 2 -11 0.39 0.29
-4 2 -11 -0.26 0.24
-5 -2 -11 58.99 4.28
5 2 -11 45.75 3.93
5 2 -11 48.35 3.82
-5 2 -11 41.08 4
5 -2 -11 48.96 3.86
-5 2 -11 49.81 3.74
0 3 -11 8.21 1.4
0 3 -11 14.34 1.51
0 3 -11 12.41 1.46
1 3 -11 0.55 0.38
1 3 -11 -0.05 0.22
1 3 -11 0.17 0.27
1 -3 -11 0.29 0.24
-1 3 -11 0.24 0.23
-1 3 -11 0.59 0.42
2 3 -11 0.1 0.25
2 3 -11 1.49 0.58
-2 -3 -11 2.37 0.69
2 3 -11 1.86 0.56
2 -3 -11 1.74 0.59
-2 3 -11 4.54 0.79
-2 3 -11 0.9 0.49
3 3 -11 -0.08 0.2
-3 -3 -11 0.09 0.34
3 3 -11 0.36 0.38
-3 3 11 -0.01 0.15
3 3 -11 -0.05 0.24
-3 3 -11 0.04 0.26
-3 3 -11 -0.15 0.21
3 -3 -11 0.14 0.28
-4 3 11 7.22 0.89
-4 -3 -11 5.12 1.09
4 3 -11 5.76 1.17
-4 3 -11 6.01 1.24
-4 3 -11 3.13 0.77
4 -3 -11 7.28 1.2
0 4 -11 0.14 0.23
0 4 -11 0.12 0.24
1 4 -11 57.55 5.19
1 4 -11 65.94 4.99
1 4 -11 78.18 5.1
-1 4 -11 69.13 5.3
-1 4 -11 69.37 4.98
2 4 -11 0.24 0.28
2 4 -11 -0.04 0.27
2 4 -11 -0.04 0.25
-2 4 -11 0.07 0.27
2 -4 -11 0.16 0.3
-2 4 -11 0.12 0.32
3 4 -11 56.59 4.59
3 4 -11 58.79 4.91
-3 4 -11 69.33 4.7
3 -4 -11 63.77 4.68
-3 4 -11 62.01 4.92
3 -4 -11 58.36 4.63
4 4 -11 0.41 0.35
-4 4 11 0.76 0.32
4 4 -11 0.3 0.4
4 -4 -11 0.29 0.39
-4 4 -11 0.02 0.44
-4 4 -11 0.23 0.33
0 5 -11 1.59 0.63
0 5 -11 1.83 0.57
1 5 -11 0.04 0.3
1 5 -11 0.13 0.28
-1 5 -11 0.25 0.37
-1 5 -11 0.2 0.29
2 5 -11 9.82 1.34
2 5 -11 8.48 1.25
2 5 -11 7.67 1.46
-2 5 -11 6.61 1.14
2 -5 -11 6.18 1.15
-2 5 -11 12.04 1.67
3 5 -11 -0.12 0.26
3 5 -11 0.27 0.33
3 -5 -11 0.12 0.38
-3 5 -11 0.6 0.53
-3 5 -11 0.14 0.37
0 0 -12 0.46 0.28
0 0 -12 0.05 0.25
0 0 -12 1.03 0.46
-1 0 -12 0.06 0.22
-1 0 -12 0.09 0.2
-1 0 -12 0.22 0.27
1 0 -12 0.23 0.25
1 0 -12 0.24 0.29
1 0 -12 0.07 0.25
2 0 -12 17.16 1.65
-2 0 -12 15.28 1.58
2 0 -12 13.18 1.78
-2 0 -12 16 2.07
-3 0 -12 -0.04 0.21
3 0 -12 0.26 0.3
-3 0 -12 0.05 0.21
-4 0 -12 2.8 0.84
4 0 -12 1.97 0.65
0 1 -12 -0.14 0.14
0 -1 -12 -0.24 0.2
0 1 -12 0.08 0.25
0 1 -12 -0.03 0.22
0 -1 -12 -0.22 0.17
0 -1 -12 0.03 0.23
-1 -1 -12 195.24 13.15
1 1 -12 192.2 13.13
1 1 -12 176.42 13.01
-1 -1 -12 185.87 12.75
1 1 -12 223.4 13.01
1 -1 -12 187.95 12.85
1 -1 -12 188.86 13.06
-1 1 -12 188.25 13.14
-1 1 -12 204.95 12.98
-1 1 -12 179.69 12.85
-2 -1 -12 0 0.28
-2 1 12 0.29 0.18
2 1 -12 0.05 0.25
2 1 -12 0.24 0.27
2 1 -12 -0.17 0.25
2 -1 -12 0.01 0.23
-2 1 -12 -0.08 0.28
-2 1 -12 -0.21 0.14
3 1 -12 124.64 10.33
3 1 -12 156.42 10.55
-3 -1 -12 149.23 10.61
-3 1 -12 147.4 10.21
-3 1 -12 164.46 10.75
3 -1 -12 161.59 10.5
-4 -1 -12 0.08 0.28
4 1 -12 -0.04 0.29
4 1 -12 0.23 0.36
4 -1 -12 -0.05 0.27
-4 1 -12 -0.15 0.26
-4 1 -12 -0.01 0.23
0 2 -12 13.64 1.8
0 2 -12 10.21 1.39
0 -2 -12 12.11 1.6
0 2 -12 13.72 1.59
1 2 -12 1.2 0.53
1 2 -12 2.32 0.6
1 2 -12 1.98 0.6
-1 -2 -12 2.84 0.75
-1 2 -12 2.5 0.73
-1 2 -12 1.71 0.52
1 -2 -12 1.79 0.58
-1 2 -12 2.39 0.61
2 2 -12 2.06 0.6
2 2 -12 2.8 0.8
2 2 -12 1.84 0.6
-2 -2 -12 3.52 0.85
-2 2 -12 3.32 0.67
-2 2 -12 0.96 0.52
2 -2 -12 2.94 0.76
-3 -2 -12 1.38 0.56
-3 2 12 0.53 0.25
3 2 -12 1.24 0.52
3 2 -12 0.79 0.47
3 -2 -12 0.46 0.41
-3 2 -12 0.21 0.37
-3 2 -12 0.26 0.3
-4 -2 -12 4.36 1
4 2 -12 3.14 0.82
4 2 -12 6.68 1.2
-4 2 -12 7.14 1.36
-4 2 -12 4.31 0.84
4 -2 -12 6.12 1.07
0 3 -12 -0.01 0.24
0 3 -12 -0.03 0.26
0 3 -12 -0.04 0.22
1 3 -12 146.89 11.01
1 3 -12 164.67 10.81
1 3 -12 154.25 10.71
-1 3 -12 159.39 10.69
-1 3 -12 151.46 11
1 -3 -12 161.55 10.84
2 3 -12 -0.13 0.24
2 3 -12 0.01 0.28
2 3 -12 -0.17 0.27
2 -3 -12 -0.27 0.25
-2 3 -12 0.29 0.29
-2 3 -12 -0.1 0.25
3 3 -12 122.76 8.97
3 3 -12 131.72 9.28
-3 3 12 125.42 8.64
3 3 -12 126.72 9.06
-3 -3 -12 135.08 9.2
-3 3 -12 123.55 8.94
3 -3 -12 131.91 9.08
-3 3 -12 132.84 9.35
-4 3 12 0.15 0.23
4 3 -12 0.38 0.36
-4 -3 -12 0.14 0.42
4 3 -12 0.14 0.38
4 -3 -12 0.48 0.41
-4 3 -12 0.42 0.36
-4 3 -12 0.48 0.51
0 4 -12 9.45 1.58
0 4 -12 8.26 1.24
1 4 -12 2.98 0.78
1 4 -12 1.34 0.51
1 4 -12 1.62 0.66
-1 4 -12 1.75 0.57
-1 4 -12 1.31 0.57
2 4 -12 3.5 0.77
2 4 -12 1.91 0.63
2 4 -12 2.99 0.91
-2 4 -12 1.43 0.64
-2 4 -12 2.23 0.63
3 4 -12 1.15 0.56
3 4 -12 0.6 0.43
3 4 -12 0.94 0.47
-3 4 -12 0.82 0.55
-3 4 -12 1.66 0.58
3 -4 -12 1.44 0.54
0 5 -12 -0.36 0.22
0 5 -12 -0.1 0.27
1 5 -12 112.55 8.12
1 5 -12 108.09 8.47
-1 5 -12 113.05 8.46
-1 5 -12 124.03 8.15
0 0 -13 0.05 0.31
0 0 -13 0.32 0.31
0 0 -13 -0.11 0.21
-1 0 -13 5.02 0.82
-1 0 -13 6.2 1.18
1 0 -13 3.28 0.82
-1 0 -13 5.5 0.96
1 0 -13 4.69 0.97
1 0 -13 6.56 1.01
-2 0 -13 0.12 0.25
2 0 -13 0.09 0.29
2 0 -13 -0.02 0.26
-2 0 -13 -0.15 0.3
-3 0 -13 10.12 1.76
3 0 -13 15.11 1.86
4 0 -13 0.45 0.43
-4 0 -13 0.02 0.36
0 -1 -13 181.5 12.55
0 1 -13 171.26 12.44
0 1 -13 194.32 12.39
0 1 -13 185.6 12.68
0 -1 -13 196.36 12.28
0 -1 -13 166.99 12.44
1 1 -13 0.25 0.35
-1 -1 -13 -0.06 0.29
1 1 -13 0.21 0.26
1 1 -13 0.01 0.28
-1 1 -13 0.45 0.3
-1 1 -13 0.24 0.28
1 -1 -13 0.09 0.28
1 -1 -13 0.9 0.45
-1 1 -13 -0.04 0.32
-2 -1 -13 146.63 10.3
2 1 -13 144.86 10.17
2 1 -13 167.01 10.31
2 1 -13 144.55 10.01
2 -1 -13 130.65 9.9
-2 1 -13 144.25 10.33
-2 1 -13 156.24 9.92
2 -1 -13 125.86 10.03
3 1 -13 0 0.39
3 1 -13 0.15 0.36
-3 -1 -13 0.69 0.5
3 -1 -13 0.43 0.4
-3 1 -13 0.01 0.26
-3 1 -13 0.71 0.48
0 2 -13 0.19 0.29
0 2 -13 0.04 0.3
0 2 -13 -0.19 0.19
1 2 -13 7.67 1.18
1 2 -13 8.83 1.33
1 2 -13 9.84 1.51
-1 2 -13 6.27 1.25
-1 2 -13 8.17 1.18
-1 2 -13 6.92 1.1
1 -2 -13 9.48 1.42
-2 -2 -13 0.34 0.43
2 2 -13 0.43 0.44
2 2 -13 0.35 0.36
2 2 -13 0.79 0.46
-2 2 -13 0.6 0.37
2 -2 -13 0.68 0.43
-2 2 -13 0.84 0.51
3 2 -13 3.18 0.91
-3 2 13 5.26 0.71
3 2 -13 4.18 0.94
-3 -2 -13 2.4 0.74
3 2 -13 2.34 0.7
-3 2 -13 2.67 0.7
-3 2 -13 1.63 0.76
3 -2 -13 2.29 0.73
0 3 -13 152.87 9.68
0 3 -13 114.16 9.63
0 3 -13 144.34 9.5
1 3 -13 0.04 0.35
1 3 -13 0.85 0.4
1 3 -13 0.1 0.35
-1 3 -13 0.26 0.28
-1 3 -13 -0.02 0.28
2 3 -13 154.13 10.14
2 3 -13 119.11 10.17
2 3 -13 137.13 9.93
-2 3 -13 154.53 9.98
2 -3 -13 156.12 10.13
0 4 -13 -0.13 0.25
0 4 -13 -0.34 0.26
1 4 -13 4.1 0.91
1 4 -13 6.91 1.4
-1 4 -13 6.66 1.09
-1 4 -13 4.97 1.21
0 0 -14 71.15 5.19
0 0 -14 71.68 5.38
0 0 -14 70.68 5.49
-1 0 -14 0.03 0.27
-1 0 -14 -0.03 0.35
1 0 -14 -0.03 0.32
1 0 -14 -0.06 0.36
1 0 -14 0.19 0.3
2 0 -14 34.9 3.03
2 0 -14 32.87 2.86
-2 0 -14 35.19 3.25
0 1 -14 0.04 0.29
0 -1 -14 0.27 0.29
0 1 -14 -0.29 0.29
0 1 -14 0.02 0.33
1 1 -14 4.83 0.97
-1 -1 -14 4.46 1.03
1 1 -14 5.56 1.06
1 1 -14 6.52 1.26
-1 1 -14 6.64 1.3
-1 1 -14 3.44 0.79
1 -1 -14 5.12 0.91
-1 1 -14 5.59 1.03
1 -1 -14 7.09 1.22
2 1 -14 0.29 0.39
-2 -1 -14 0.14 0.4
2 1 -14 0.04 0.4
2 1 -14 -0.24 0.3
-2 1 -14 0.02 0.31
2 -1 -14 0.59 0.42
2 -1 -14 0.18 0.34
-2 1 -14 -0.13 0.32
0 2 -14 41.68 3.32
0 2 -14 39.47 3.35
1 2 -14 1.49 0.64
1 2 -14 0.28 0.39
1 2 -14 0.38 0.34
-1 2 -14 0.48 0.35
-1 2 -14 0.32 0.47
1 -2 -14 0.56 0.4
