#------------------------------------------------------------------------------
#$Date: 2020-02-22 01:17:48 +0200 (Sat, 22 Feb 2020) $
#$Revision: 248377 $
#$URL: file:///home/coder/svn-repositories/cod/cif/4/00/34/4003491.cif $
#------------------------------------------------------------------------------
#
# This file is available in the Crystallography Open Database (COD),
# http://www.crystallography.net/
#
# All data on this site have been placed in the public domain by the
# contributors.
#
data_4003491
loop_
_publ_author_name
'Zhang, Jiliang'
'Lee, Jey-Jau'
'Yang, Tonghan'
'He, Wei'
'Kang, Yong-Mook'
'Bobev, Svilen'
_publ_section_title
;
 Tunable Magnetic Exchange between Rare-Earth Metal 5d and Iron 3d States:
 A Case Study of the Multiple Magnetic Transitions in Gd6FeBi2 and the
 Solid Solutions Dy6--xGdxFeBi2 (1 &#x2264; x &#x2264; 5) with Curie
 Temperatures in the Range 120--350 K
;
_journal_name_full               'Chemistry of Materials'
_journal_paper_doi               10.1021/acs.chemmater.0c00060
_journal_year                    2020
_chemical_formula_sum            'Bi2 Fe Gd6'
_chemical_formula_weight         1417.31
_space_group_IT_number           189
_space_group_name_Hall           'P -6 -2'
_space_group_name_H-M_alt        'P -6 2 m'
_symmetry_cell_setting           hexagonal
_symmetry_space_group_name_H-M   'P -6 2 m'
_atom_sites_solution_primary     direct
_atom_sites_solution_secondary   difmap
_audit_creation_method           SHELXL-97
_cell_angle_alpha                90.00
_cell_angle_beta                 90.00
_cell_angle_gamma                120.00
_cell_formula_units_Z            1
_cell_length_a                   8.3561(8)
_cell_length_b                   8.3561(8)
_cell_length_c                   4.2354(9)
_cell_measurement_reflns_used    530
_cell_measurement_temperature    250(2)
_cell_measurement_theta_max      25.17
_cell_measurement_theta_min      4.81
_cell_volume                     256.11(6)
_computing_cell_refinement       'Bruker SMART'
_computing_data_collection       'Bruker SMART'
_computing_data_reduction        'Bruker SAINT'
_computing_molecular_graphics    'Bruker SHELXTL'
_computing_publication_material  'Bruker SHELXTL'
_computing_structure_refinement  'SHELXL-97 (Sheldrick, 1997)'
_computing_structure_solution    'SHELXS-97 (Sheldrick, 1990)'
_diffrn_ambient_temperature      250(2)
_diffrn_measured_fraction_theta_full 1.000
_diffrn_measured_fraction_theta_max 1.000
_diffrn_measurement_device_type  'CCD area detector'
_diffrn_measurement_method       'phi and omega scans'
_diffrn_radiation_monochromator  graphite
_diffrn_radiation_source         'fine-focus sealed tube'
_diffrn_radiation_type           MoK\a
_diffrn_radiation_wavelength     0.71073
_diffrn_reflns_av_R_equivalents  0.0808
_diffrn_reflns_av_sigmaI/netI    0.0367
_diffrn_reflns_limit_h_max       11
_diffrn_reflns_limit_h_min       -11
_diffrn_reflns_limit_k_max       11
_diffrn_reflns_limit_k_min       -11
_diffrn_reflns_limit_l_max       5
_diffrn_reflns_limit_l_min       -5
_diffrn_reflns_number            3795
_diffrn_reflns_theta_full        29.57
_diffrn_reflns_theta_max         29.57
_diffrn_reflns_theta_min         2.81
_exptl_absorpt_coefficient_mu    73.753
_exptl_absorpt_correction_T_max  0.3670
_exptl_absorpt_correction_T_min  0.2083
_exptl_absorpt_correction_type   multi-scan
_exptl_absorpt_process_details   SADABS
_exptl_crystal_colour            silver
_exptl_crystal_density_diffrn    9.189
_exptl_crystal_density_method    'not measured'
_exptl_crystal_description       irregular
_exptl_crystal_F_000             576
_exptl_crystal_size_max          0.03
_exptl_crystal_size_mid          0.02
_exptl_crystal_size_min          0.02
_refine_diff_density_max         1.142
_refine_diff_density_min         -1.228
_refine_diff_density_rms         0.303
_refine_ls_abs_structure_details 'Flack H D (1983), Acta Cryst. A39, 876-881'
_refine_ls_abs_structure_Flack   0.02(2)
_refine_ls_extinction_method     none
_refine_ls_goodness_of_fit_ref   1.103
_refine_ls_matrix_type           full
_refine_ls_number_parameters     14
_refine_ls_number_reflns         299
_refine_ls_number_restraints     0
_refine_ls_restrained_S_all      1.103
_refine_ls_R_factor_all          0.0270
_refine_ls_R_factor_gt           0.0249
_refine_ls_shift/su_max          0.000
_refine_ls_shift/su_mean         0.000
_refine_ls_structure_factor_coef Fsqd
_refine_ls_weighting_details
'calc w=1/[\s^2^(Fo^2^)+(0.0140P)^2^+0.0000P] where P=(Fo^2^+2Fc^2^)/3'
_refine_ls_weighting_scheme      calc
_refine_ls_wR_factor_gt          0.0447
_refine_ls_wR_factor_ref         0.0451
_reflns_number_gt                286
_reflns_number_total             299
_reflns_threshold_expression     >2sigma(I)
_cod_data_source_file            cm0c00060_si_001.cif
_cod_data_source_block           250K
_cod_depositor_comments
;
The following automatic conversions were performed:

data item '_symmetry_cell_setting' value 'Hexagonal' was changed to
'hexagonal' in accordance with the
/home/data/users/saulius/crontab/automatic-downloads/rss-feeds/ACS/lib/dictionaries/cif_core.dic
dictionary named 'cif_core.dic' version 2.4.2 last updated on
2011-04-26.

Automatic conversion script
Id: cif_fix_values 7556 2019-12-06 15:28:31Z antanas 
;
_cod_original_sg_symbol_H-M      P-62m
_cod_database_code               4003491
loop_
_symmetry_equiv_pos_as_xyz
'x, y, z'
'-y, x-y, z'
'-x+y, -x, z'
'x, y, -z'
'-y, x-y, -z'
'-x+y, -x, -z'
'y, x, -z'
'x-y, -y, -z'
'-x, -x+y, -z'
'y, x, z'
'x-y, -y, z'
'-x, -x+y, z'
loop_
_atom_site_label
_atom_site_type_symbol
_atom_site_fract_x
_atom_site_fract_y
_atom_site_fract_z
_atom_site_U_iso_or_equiv
_atom_site_adp_type
_atom_site_occupancy
_atom_site_symmetry_multiplicity
_atom_site_calc_flag
_atom_site_refinement_flags
_atom_site_disorder_assembly
_atom_site_disorder_group
Bi1 Bi 0.3333 0.6667 0.5000 0.0129(2) Uani 1 6 d S . .
Gd1 Gd 0.23761(13) 1.0000 0.5000 0.0150(2) Uani 1 4 d S . .
Gd2 Gd 0.59858(15) 1.0000 1.0000 0.0146(3) Uani 1 4 d S . .
Fe1 Fe 1.0000 1.0000 1.0000 0.0215(12) Uani 1 12 d S . .
loop_
_atom_site_aniso_label
_atom_site_aniso_U_11
_atom_site_aniso_U_22
_atom_site_aniso_U_33
_atom_site_aniso_U_23
_atom_site_aniso_U_13
_atom_site_aniso_U_12
Bi1 0.0127(3) 0.0127(3) 0.0134(5) 0.000 0.000 0.00635(16)
Gd1 0.0129(4) 0.0120(5) 0.0198(5) 0.000 0.000 0.0060(3)
Gd2 0.0153(4) 0.0147(5) 0.0134(5) 0.000 0.000 0.0074(3)
Fe1 0.0256(19) 0.0256(19) 0.013(3) 0.000 0.000 0.0128(10)
loop_
_atom_type_symbol
_atom_type_description
_atom_type_scat_dispersion_real
_atom_type_scat_dispersion_imag
_atom_type_scat_source
Fe Fe 0.3463 0.8444 'International Tables Vol C Tables 4.2.6.8 and 6.1.1.4'
Gd Gd -0.1653 3.9035 'International Tables Vol C Tables 4.2.6.8 and 6.1.1.4'
Bi Bi -4.1077 10.2566 'International Tables Vol C Tables 4.2.6.8 and 6.1.1.4'
loop_
_geom_angle_atom_site_label_1
_geom_angle_atom_site_label_2
_geom_angle_atom_site_label_3
_geom_angle
_geom_angle_site_symmetry_1
_geom_angle_site_symmetry_3
_geom_angle_publ_flag
Gd1 Bi1 Gd1 120.0 2_665 . ?
Gd1 Bi1 Gd1 120.001(1) 2_665 3_565 ?
Gd1 Bi1 Gd1 120.0 . 3_565 ?
Gd1 Bi1 Gd2 68.19(2) 2_665 2_664 ?
Gd1 Bi1 Gd2 66.57(2) . 2_664 ?
Gd1 Bi1 Gd2 140.267(8) 3_565 2_664 ?
Gd1 Bi1 Gd2 68.19(2) 2_665 2_665 ?
Gd1 Bi1 Gd2 66.57(2) . 2_665 ?
Gd1 Bi1 Gd2 140.267(7) 3_565 2_665 ?
Gd2 Bi1 Gd2 79.440(16) 2_664 2_665 ?
Gd1 Bi1 Gd2 66.57(2) 2_665 3_564 ?
Gd1 Bi1 Gd2 140.267(8) . 3_564 ?
Gd1 Bi1 Gd2 68.20(2) 3_565 3_564 ?
Gd2 Bi1 Gd2 83.537(12) 2_664 3_564 ?
Gd2 Bi1 Gd2 134.763(6) 2_665 3_564 ?
Gd1 Bi1 Gd2 66.57(2) 2_665 3_565 ?
Gd1 Bi1 Gd2 140.267(8) . 3_565 ?
Gd1 Bi1 Gd2 68.20(2) 3_565 3_565 ?
Gd2 Bi1 Gd2 134.763(6) 2_664 3_565 ?
Gd2 Bi1 Gd2 83.537(12) 2_665 3_565 ?
Gd2 Bi1 Gd2 79.440(16) 3_564 3_565 ?
Gd1 Bi1 Gd2 140.267(8) 2_665 . ?
Gd1 Bi1 Gd2 68.19(2) . . ?
Gd1 Bi1 Gd2 66.57(2) 3_565 . ?
Gd2 Bi1 Gd2 134.764(5) 2_664 . ?
Gd2 Bi1 Gd2 83.538(12) 2_665 . ?
Gd2 Bi1 Gd2 134.764(6) 3_564 . ?
Gd2 Bi1 Gd2 83.538(12) 3_565 . ?
Gd1 Bi1 Gd2 140.267(8) 2_665 1_554 ?
Gd1 Bi1 Gd2 68.19(2) . 1_554 ?
Gd1 Bi1 Gd2 66.57(2) 3_565 1_554 ?
Gd2 Bi1 Gd2 83.538(12) 2_664 1_554 ?
Gd2 Bi1 Gd2 134.764(6) 2_665 1_554 ?
Gd2 Bi1 Gd2 83.538(12) 3_564 1_554 ?
Gd2 Bi1 Gd2 134.764(6) 3_565 1_554 ?
Gd2 Bi1 Gd2 79.440(17) . 1_554 ?
Fe1 Gd1 Fe1 93.69(3) 1_454 1_455 ?
Fe1 Gd1 Bi1 117.390(4) 1_454 7_566 ?
Fe1 Gd1 Bi1 117.390(4) 1_455 7_566 ?
Fe1 Gd1 Bi1 117.391(4) 1_454 . ?
Fe1 Gd1 Bi1 117.391(4) 1_455 . ?
Bi1 Gd1 Bi1 95.46(3) 7_566 . ?
Fe1 Gd1 Gd1 53.677(13) 1_454 3_465 ?
Fe1 Gd1 Gd1 53.677(13) 1_455 3_465 ?
Bi1 Gd1 Gd1 162.268(14) 7_566 3_465 ?
Bi1 Gd1 Gd1 102.269(14) . 3_465 ?
Fe1 Gd1 Gd1 53.677(13) 1_454 2_675 ?
Fe1 Gd1 Gd1 53.676(13) 1_455 2_675 ?
Bi1 Gd1 Gd1 102.268(14) 7_566 2_675 ?
Bi1 Gd1 Gd1 162.269(14) . 2_675 ?
Gd1 Gd1 Gd1 60.0 3_465 2_675 ?
Fe1 Gd1 Gd2 111.70(2) 1_454 3_575 ?
Fe1 Gd1 Gd2 60.880(18) 1_455 3_575 ?
Bi1 Gd1 Gd2 57.433(16) 7_566 3_575 ?
Bi1 Gd1 Gd2 130.79(2) . 3_575 ?
Gd1 Gd1 Gd2 109.18(2) 3_465 3_575 ?
Gd1 Gd1 Gd2 61.538(17) 2_675 3_575 ?
Fe1 Gd1 Gd2 60.880(18) 1_454 3_574 ?
Fe1 Gd1 Gd2 111.70(2) 1_455 3_574 ?
Bi1 Gd1 Gd2 57.433(16) 7_566 3_574 ?
Bi1 Gd1 Gd2 130.79(2) . 3_574 ?
Gd1 Gd1 Gd2 109.18(2) 3_465 3_574 ?
Gd1 Gd1 Gd2 61.538(17) 2_675 3_574 ?
Gd2 Gd1 Gd2 71.88(2) 3_575 3_574 ?
Fe1 Gd1 Gd2 60.881(18) 1_454 2_664 ?
Fe1 Gd1 Gd2 111.70(2) 1_455 2_664 ?
Bi1 Gd1 Gd2 130.79(2) 7_566 2_664 ?
Bi1 Gd1 Gd2 57.432(16) . 2_664 ?
Gd1 Gd1 Gd2 61.538(18) 3_465 2_664 ?
Gd1 Gd1 Gd2 109.18(2) 2_675 2_664 ?
Gd2 Gd1 Gd2 170.19(4) 3_575 2_664 ?
Gd2 Gd1 Gd2 107.24(3) 3_574 2_664 ?
Fe1 Gd1 Gd2 111.70(2) 1_454 2_665 ?
Fe1 Gd1 Gd2 60.881(18) 1_455 2_665 ?
Bi1 Gd1 Gd2 130.79(2) 7_566 2_665 ?
Bi1 Gd1 Gd2 57.432(16) . 2_665 ?
Gd1 Gd1 Gd2 61.538(17) 3_465 2_665 ?
Gd1 Gd1 Gd2 109.18(2) 2_675 2_665 ?
Gd2 Gd1 Gd2 107.24(3) 3_575 2_665 ?
Gd2 Gd1 Gd2 170.19(4) 3_574 2_665 ?
Gd2 Gd1 Gd2 71.88(2) 2_664 2_665 ?
Fe1 Gd1 Gd2 168.23(3) 1_454 . ?
Fe1 Gd1 Gd2 98.083(18) 1_455 . ?
Bi1 Gd1 Gd2 56.600(16) 7_566 . ?
Bi1 Gd1 Gd2 56.600(16) . . ?
Gd1 Gd1 Gd2 135.136(12) 3_465 . ?
Gd1 Gd1 Gd2 135.135(12) 2_675 . ?
Gd2 Gd1 Gd2 74.496(16) 3_575 . ?
Gd2 Gd1 Gd2 114.03(2) 3_574 . ?
Gd2 Gd1 Gd2 114.03(2) 2_664 . ?
Gd2 Gd1 Gd2 74.496(16) 2_665 . ?
Fe1 Gd1 Gd2 98.083(18) 1_454 1_554 ?
Fe1 Gd1 Gd2 168.23(3) 1_455 1_554 ?
Bi1 Gd1 Gd2 56.600(16) 7_566 1_554 ?
Bi1 Gd1 Gd2 56.600(16) . 1_554 ?
Gd1 Gd1 Gd2 135.136(12) 3_465 1_554 ?
Gd1 Gd1 Gd2 135.135(12) 2_675 1_554 ?
Gd2 Gd1 Gd2 114.03(2) 3_575 1_554 ?
Gd2 Gd1 Gd2 74.496(16) 3_574 1_554 ?
Gd2 Gd1 Gd2 74.496(16) 2_664 1_554 ?
Gd2 Gd1 Gd2 114.03(2) 2_665 1_554 ?
Gd2 Gd1 Gd2 70.14(3) . 1_554 ?
Bi1 Gd2 Bi1 79.440(16) 7_567 7_566 ?
Bi1 Gd2 Bi1 93.422(17) 7_567 1_556 ?
Bi1 Gd2 Bi1 151.21(4) 7_566 1_556 ?
Bi1 Gd2 Bi1 151.21(4) 7_567 . ?
Bi1 Gd2 Bi1 93.422(17) 7_566 . ?
Bi1 Gd2 Bi1 79.440(16) 1_556 . ?
Bi1 Gd2 Fe1 104.39(2) 7_567 . ?
Bi1 Gd2 Fe1 104.39(2) 7_566 . ?
Bi1 Gd2 Fe1 104.39(2) 1_556 . ?
Bi1 Gd2 Fe1 104.39(2) . . ?
Bi1 Gd2 Gd1 152.21(4) 7_567 3_565 ?
Bi1 Gd2 Gd1 97.731(18) 7_566 3_565 ?
Bi1 Gd2 Gd1 101.003(19) 1_556 3_565 ?
Bi1 Gd2 Gd1 55.994(17) . 3_565 ?
Fe1 Gd2 Gd1 49.12(2) . 3_565 ?
Bi1 Gd2 Gd1 97.731(18) 7_567 3_566 ?
Bi1 Gd2 Gd1 152.21(4) 7_566 3_566 ?
Bi1 Gd2 Gd1 55.994(17) 1_556 3_566 ?
Bi1 Gd2 Gd1 101.004(19) . 3_566 ?
Fe1 Gd2 Gd1 49.12(2) . 3_566 ?
Gd1 Gd2 Gd1 71.88(2) 3_565 3_566 ?
Bi1 Gd2 Gd1 55.994(17) 7_567 2_776 ?
Bi1 Gd2 Gd1 101.003(19) 7_566 2_776 ?
Bi1 Gd2 Gd1 97.731(17) 1_556 2_776 ?
Bi1 Gd2 Gd1 152.21(4) . 2_776 ?
Fe1 Gd2 Gd1 49.12(2) . 2_776 ?
Gd1 Gd2 Gd1 98.24(4) 3_565 2_776 ?
Gd1 Gd2 Gd1 56.92(4) 3_566 2_776 ?
Bi1 Gd2 Gd1 101.003(19) 7_567 2_775 ?
Bi1 Gd2 Gd1 55.994(17) 7_566 2_775 ?
Bi1 Gd2 Gd1 152.21(4) 1_556 2_775 ?
Bi1 Gd2 Gd1 97.731(17) . 2_775 ?
Fe1 Gd2 Gd1 49.12(2) . 2_775 ?
Gd1 Gd2 Gd1 56.92(4) 3_565 2_775 ?
Gd1 Gd2 Gd1 98.23(4) 3_566 2_775 ?
Gd1 Gd2 Gd1 71.88(2) 2_776 2_775 ?
Bi1 Gd2 Gd1 99.42(3) 7_567 . ?
Bi1 Gd2 Gd1 55.205(15) 7_566 . ?
Bi1 Gd2 Gd1 99.43(3) 1_556 . ?
Bi1 Gd2 Gd1 55.205(15) . . ?
Fe1 Gd2 Gd1 144.928(16) . . ?
Gd1 Gd2 Gd1 101.44(2) 3_565 . ?
Gd1 Gd2 Gd1 150.801(19) 3_566 . ?
Gd1 Gd2 Gd1 150.800(19) 2_776 . ?
Gd1 Gd2 Gd1 101.44(2) 2_775 . ?
Bi1 Gd2 Gd1 55.205(15) 7_567 1_556 ?
Bi1 Gd2 Gd1 99.42(3) 7_566 1_556 ?
Bi1 Gd2 Gd1 55.206(14) 1_556 1_556 ?
Bi1 Gd2 Gd1 99.42(3) . 1_556 ?
Fe1 Gd2 Gd1 144.928(16) . 1_556 ?
Gd1 Gd2 Gd1 150.80(2) 3_565 1_556 ?
Gd1 Gd2 Gd1 101.44(2) 3_566 1_556 ?
Gd1 Gd2 Gd1 101.44(2) 2_776 1_556 ?
Gd1 Gd2 Gd1 150.800(19) 2_775 1_556 ?
Gd1 Gd2 Gd1 70.14(3) . 1_556 ?
Gd1 Fe1 Gd1 93.69(3) 3_565 3_566 ?
Gd1 Fe1 Gd1 140.005(13) 3_565 1_656 ?
Gd1 Fe1 Gd1 72.65(3) 3_566 1_656 ?
Gd1 Fe1 Gd1 72.65(3) 3_565 1_655 ?
Gd1 Fe1 Gd1 140.005(13) 3_566 1_655 ?
Gd1 Fe1 Gd1 93.69(3) 1_656 1_655 ?
Gd1 Fe1 Gd1 140.004(13) 3_565 2_776 ?
Gd1 Fe1 Gd1 72.65(3) 3_566 2_776 ?
Gd1 Fe1 Gd1 72.65(3) 1_656 2_776 ?
Gd1 Fe1 Gd1 140.003(13) 1_655 2_776 ?
Gd1 Fe1 Gd1 72.65(3) 3_565 2_775 ?
Gd1 Fe1 Gd1 140.004(13) 3_566 2_775 ?
Gd1 Fe1 Gd1 140.003(13) 1_656 2_775 ?
Gd1 Fe1 Gd1 72.65(3) 1_655 2_775 ?
Gd1 Fe1 Gd1 93.69(3) 2_776 2_775 ?
Gd1 Fe1 Gd2 133.155(17) 3_565 3_675 ?
Gd1 Fe1 Gd2 133.155(17) 3_566 3_675 ?
Gd1 Fe1 Gd2 70.002(6) 1_656 3_675 ?
Gd1 Fe1 Gd2 70.002(7) 1_655 3_675 ?
Gd1 Fe1 Gd2 70.002(7) 2_776 3_675 ?
Gd1 Fe1 Gd2 70.002(6) 2_775 3_675 ?
Gd1 Fe1 Gd2 70.002(6) 3_565 . ?
Gd1 Fe1 Gd2 70.002(6) 3_566 . ?
Gd1 Fe1 Gd2 133.155(17) 1_656 . ?
Gd1 Fe1 Gd2 133.155(17) 1_655 . ?
Gd1 Fe1 Gd2 70.002(6) 2_776 . ?
Gd1 Fe1 Gd2 70.002(6) 2_775 . ?
Gd2 Fe1 Gd2 120.0 3_675 . ?
Gd1 Fe1 Gd2 70.002(7) 3_565 2_765 ?
Gd1 Fe1 Gd2 70.002(7) 3_566 2_765 ?
Gd1 Fe1 Gd2 70.002(7) 1_656 2_765 ?
Gd1 Fe1 Gd2 70.002(6) 1_655 2_765 ?
Gd1 Fe1 Gd2 133.155(17) 2_776 2_765 ?
Gd1 Fe1 Gd2 133.155(17) 2_775 2_765 ?
Gd2 Fe1 Gd2 120.0 3_675 2_765 ?
Gd2 Fe1 Gd2 120.0 . 2_765 ?
loop_
_geom_bond_atom_site_label_1
_geom_bond_atom_site_label_2
_geom_bond_distance
_geom_bond_site_symmetry_2
_geom_bond_publ_flag
Bi1 Gd1 3.2597(8) 2_665 ?
Bi1 Gd1 3.2597(8) . ?
Bi1 Gd1 3.2597(8) 3_565 ?
Bi1 Gd2 3.3139(5) 2_664 ?
Bi1 Gd2 3.3139(5) 2_665 ?
Bi1 Gd2 3.3139(5) 3_564 ?
Bi1 Gd2 3.3139(5) 3_565 ?
Bi1 Gd2 3.3139(5) . ?
Bi1 Gd2 3.3139(5) 1_554 ?
Gd1 Fe1 2.9029(8) 1_454 ?
Gd1 Fe1 2.9029(8) 1_455 ?
Gd1 Bi1 3.2597(8) 7_566 ?
Gd1 Gd1 3.4390(19) 3_465 ?
Gd1 Gd1 3.4391(19) 2_675 ?
Gd1 Gd2 3.6081(9) 3_575 ?
Gd1 Gd2 3.6081(9) 3_574 ?
Gd1 Gd2 3.6081(9) 2_664 ?
Gd1 Gd2 3.6081(9) 2_665 ?
Gd1 Gd2 3.6855(14) . ?
Gd1 Gd2 3.6855(14) 1_554 ?
Gd2 Bi1 3.3139(5) 7_567 ?
Gd2 Bi1 3.3139(5) 7_566 ?
Gd2 Bi1 3.3139(5) 1_556 ?
Gd2 Fe1 3.3543(13) . ?
Gd2 Gd1 3.6081(9) 3_565 ?
Gd2 Gd1 3.6081(9) 3_566 ?
Gd2 Gd1 3.6081(9) 2_776 ?
Gd2 Gd1 3.6081(9) 2_775 ?
Gd2 Gd1 3.6855(14) 1_556 ?
Fe1 Gd1 2.9029(8) 3_565 ?
Fe1 Gd1 2.9029(8) 3_566 ?
Fe1 Gd1 2.9029(8) 1_656 ?
Fe1 Gd1 2.9029(8) 1_655 ?
Fe1 Gd1 2.9029(8) 2_776 ?
Fe1 Gd1 2.9029(8) 2_775 ?
Fe1 Gd2 3.3543(13) 3_675 ?
Fe1 Gd2 3.3543(13) 2_765 ?
