#------------------------------------------------------------------------------
#$Date: 2020-06-24 01:22:15 +0300 (Wed, 24 Jun 2020) $
#$Revision: 253373 $
#$URL: file:///home/coder/svn-repositories/cod/cif/4/00/35/4003587.cif $
#------------------------------------------------------------------------------
#
# This file is available in the Crystallography Open Database (COD),
# http://www.crystallography.net/
#
# All data on this site have been placed in the public domain by the
# contributors.
#
data_4003587
loop_
_publ_author_name
'Gai, Minqiang'
'Tong, Tinghao'
'Wang, Ying'
'Yang, Zhihua'
'Pan, Shilie'
_publ_section_title
;
 New Alkaline-Earth Metal Fluoroiodates Exhibiting Large Birefringence and
 Short Ultraviolet Cutoff Edge with Highly Polarizable (IO3F)2-- Units
;
_journal_name_full               'Chemistry of Materials'
_journal_paper_doi               10.1021/acs.chemmater.0c01452
_journal_year                    2020
_chemical_formula_moiety         'I4 O12 Sr2'
_chemical_formula_sum            'I4 O12 Sr2'
_chemical_formula_weight         874.84
_space_group_crystal_system      triclinic
_space_group_IT_number           2
_space_group_name_Hall           '-P 1'
_space_group_name_H-M_alt        'P -1'
_atom_sites_solution_primary     dual
_audit_creation_date             2018-06-02
_audit_creation_method
;
Olex2 1.2
(compiled 2018.05.18 svn.r3508 for OlexSys, GUI svn.r5497)
;
_cell_angle_alpha                84.259(4)
_cell_angle_beta                 84.715(3)
_cell_angle_gamma                63.544(3)
_cell_formula_units_Z            2
_cell_length_a                   7.024(2)
_cell_length_b                   7.064(2)
_cell_length_c                   13.100(4)
_cell_measurement_reflns_used    2042
_cell_measurement_temperature    296(2)
_cell_measurement_theta_max      27.50
_cell_measurement_theta_min      3.23
_cell_volume                     578.2(3)
_computing_cell_refinement       'SAINT V8.38A (?, 2016)'
_computing_data_reduction        'SAINT V8.38A (?, 2016)'
_computing_molecular_graphics    'Olex2 (Dolomanov et al., 2009)'
_computing_publication_material  'Olex2 (Dolomanov et al., 2009)'
_computing_structure_refinement  'ShelXL (Sheldrick, 2015)'
_computing_structure_solution    'ShelXT (Sheldrick, 2015)'
_diffrn_ambient_temperature      296.15
_diffrn_measured_fraction_theta_full 0.980
_diffrn_measured_fraction_theta_max 0.967
_diffrn_measurement_device_type  'Bruker APEX-II CCD'
_diffrn_measurement_method       '\f and \w scans'
_diffrn_radiation_type           MoK\a
_diffrn_radiation_wavelength     0.71073
_diffrn_reflns_av_R_equivalents  0.0217
_diffrn_reflns_av_unetI/netI     0.0402
_diffrn_reflns_Laue_measured_fraction_full 0.980
_diffrn_reflns_Laue_measured_fraction_max 0.967
_diffrn_reflns_limit_h_max       9
_diffrn_reflns_limit_h_min       -5
_diffrn_reflns_limit_k_max       9
_diffrn_reflns_limit_k_min       -7
_diffrn_reflns_limit_l_max       17
_diffrn_reflns_limit_l_min       -14
_diffrn_reflns_number            3603
_diffrn_reflns_point_group_measured_fraction_full 0.980
_diffrn_reflns_point_group_measured_fraction_max 0.967
_diffrn_reflns_theta_full        25.242
_diffrn_reflns_theta_max         27.529
_diffrn_reflns_theta_min         3.130
_diffrn_standards_number         0
_exptl_absorpt_coefficient_mu    19.962
_exptl_absorpt_correction_T_max  0.7456
_exptl_absorpt_correction_T_min  0.4596
_exptl_absorpt_correction_type   multi-scan
_exptl_absorpt_process_details
'SADABS-2016/2 (Bruker,2016/2) was used for absorption correction. wR2(int) was 0.0944 before and 0.0333 after correction. The Ratio of minimum to maximum transmission is 0.6164. The \l/2 correction factor is Not present.'
_exptl_crystal_colour            colourless
_exptl_crystal_colour_primary    colourless
_exptl_crystal_density_diffrn    5.025
_exptl_crystal_description       block
_exptl_crystal_F_000             768
_exptl_crystal_size_max          0.171
_exptl_crystal_size_mid          0.121
_exptl_crystal_size_min          0.108
_refine_diff_density_max         1.486
_refine_diff_density_min         -2.945
_refine_diff_density_rms         0.437
_refine_ls_extinction_method     none
_refine_ls_goodness_of_fit_ref   1.048
_refine_ls_hydrogen_treatment    undef
_refine_ls_matrix_type           full
_refine_ls_number_parameters     163
_refine_ls_number_reflns         2579
_refine_ls_number_restraints     0
_refine_ls_restrained_S_all      1.048
_refine_ls_R_factor_all          0.0359
_refine_ls_R_factor_gt           0.0328
_refine_ls_shift/su_max          0.001
_refine_ls_shift/su_mean         0.000
_refine_ls_structure_factor_coef Fsqd
_refine_ls_weighting_details
'w=1/[\s^2^(Fo^2^)+(0.0568P)^2^+0.7052P] where P=(Fo^2^+2Fc^2^)/3'
_refine_ls_weighting_scheme      calc
_refine_ls_wR_factor_gt          0.0902
_refine_ls_wR_factor_ref         0.0931
_reflns_Friedel_coverage         0.000
_reflns_number_gt                2356
_reflns_number_total             2579
_reflns_threshold_expression     'I > 2\s(I)'
_iucr_refine_instructions_details
;
TITL 1_a.res in P-1
    1.res
    created by SHELXL-2016/6 at 12:10:59 on 02-Jun-2018
REM Old TITL 1 in P-1
REM SHELXT solution in P-1
REM R1 0.052, Rweak 0.003, Alpha 0.040, Orientation as input
REM Formula found by SHELXT: O6 Sr I2
CELL 0.71073 7.0241 7.0638 13.1004 84.259 84.715 63.544
ZERR 2 0.002 0.002 0.0038 0.004 0.003 0.003
LATT 1
SFAC I O Sr
UNIT 8 24 4

L.S. 10
PLAN  20
TEMP 23
list 4
fmap 2
ACTA
OMIT 1 0 3
REM <olex2.extras>
REM <HklSrc "%.\\1.hkl">
REM </olex2.extras>

WGHT    0.056800    0.705200
FVAR       0.25919
I1    1    0.163005    0.955131    0.121362    11.00000    0.00864    0.00680 =
         0.01265   -0.00128    0.00094   -0.00395
I2    1    0.833421    0.610730    0.117543    11.00000    0.00762    0.00651 =
         0.01151   -0.00022    0.00003   -0.00332
I3    1    0.814857    0.167912    0.363854    11.00000    0.00949    0.00867 =
         0.01457   -0.00198    0.00044   -0.00369
I4    1    0.814340    0.486144    0.614224    11.00000    0.00882    0.00822 =
         0.01709    0.00008   -0.00085   -0.00355
SR1   3    0.451680    0.314727    0.127005    11.00000    0.00816    0.00899 =
         0.01373    0.00035   -0.00067   -0.00342
SR2   3    0.513058    0.133713    0.635523    11.00000    0.01032    0.01050 =
         0.01254   -0.00070   -0.00047   -0.00451
O1    2    0.236986    0.942467   -0.013591    11.00000    0.01954    0.02027 =
         0.00783   -0.00063    0.00117   -0.00939
O2    2    0.403928    0.947294    0.166896    11.00000    0.01398    0.01185 =
         0.01464   -0.00285   -0.00155   -0.00671
O3    2    0.185561    0.691394    0.156298    11.00000    0.01541    0.00792 =
         0.02500   -0.00368    0.00232   -0.00850
O4    2    0.650000    0.534879    0.066909    11.00000    0.01104    0.01420 =
         0.01536   -0.00069   -0.00387   -0.00777
O5    2    0.794192    0.571531    0.253147    11.00000    0.01642    0.01996 =
         0.00397   -0.00065    0.00162   -0.00506
O6    2    1.075649    0.368069    0.095026    11.00000    0.00459    0.00853 =
         0.01850   -0.00179    0.00003   -0.00020
O7    2    0.733865    0.105379    0.248806    11.00000    0.02004    0.02992 =
         0.02151   -0.00479   -0.00239   -0.00231
O8    2    1.080761   -0.047050    0.362393    11.00000    0.00757    0.01370 =
         0.04466   -0.01181    0.00118   -0.00208
O9    2    0.679856    0.052755    0.454170    11.00000    0.01893    0.02621 =
         0.01651   -0.00204    0.00113   -0.01501
O10   2    0.566349    0.468076    0.643655    11.00000    0.01049    0.01334 =
         0.03730    0.00153    0.00214   -0.00598
O11   2    0.783363    0.564380    0.479661    11.00000    0.02366    0.03102 =
         0.00757    0.00090    0.00009   -0.00878
O12   2    0.739774    0.729226    0.676218    11.00000    0.02363    0.01409 =
         0.02735   -0.00603   -0.00754   -0.00628
HKLF 4




REM  1_a.res in P-1
REM R1 =  0.0328 for    2356 Fo > 4sig(Fo)  and  0.0359 for all    2579 data
REM    163 parameters refined using      0 restraints

END  
     
WGHT      0.0568      0.7052 

REM Highest difference peak  1.486,  deepest hole -2.945,  1-sigma level  0.437
Q1    1   1.0704  0.2746  0.0179  11.00000  0.05    1.49
Q2    1   0.8959  0.0024  0.4404  11.00000  0.05    1.43
Q3    1   0.8573  0.4754  0.5490  11.00000  0.05    1.33
Q4    1   0.1956  0.9728  0.0532  11.00000  0.05    1.31
Q5    1   0.2362  0.7810  0.1964  11.00000  0.05    1.28
Q6    1   0.3105  0.6339  0.2230  11.00000  0.05    1.28
Q7    1   0.7554  0.6198  0.5403  11.00000  0.05    1.21
Q8    1   0.7050  0.5675  0.2494  11.00000  0.05    1.18
Q9    1   0.9307  0.2949  0.2181  11.00000  0.05    1.16
Q10   1   0.7637  0.7651  0.0446  11.00000  0.05    1.16
Q11   1   0.8423  0.6626  0.0538  11.00000  0.05    1.16
Q12   1   0.3771  0.6752  0.0127  11.00000  0.05    1.14
Q13   1   0.8020  0.5848  0.1849  11.00000  0.05    1.13
Q14   1   0.8145  0.4949  0.1040  11.00000  0.05    1.13
Q15   1   0.5607  0.9787  0.2258  11.00000  0.05    1.12
Q16   1   0.7898  0.7050  0.0548  11.00000  0.05    1.11
Q17   1   0.9210  0.4001  0.0319  11.00000  0.05    1.10
Q18   1   0.5867  0.6869  0.4403  11.00000  0.05    1.10
Q19   1   0.3783  0.4561  0.0587  11.00000  0.05    1.08
Q20   1   0.6551 -0.1623  0.5112  11.00000  0.05    1.08

  REM The information below was added by Olex2.
  REM
  REM R1 = 0.0328 for 2356 Fo > 4sig(Fo) and 0.0359 for all 3604 data
  REM n/a parameters refined using n/a restraints
  REM Highest difference peak 1.49, deepest hole -2.95
  REM Mean Shift 0, Max Shift 0.001.

  REM +++ Tabular Listing of Refinement Information +++
  REM R1_all = 0.0359
  REM R1_gt = 0.0328
  REM wR_ref = 0.0931
  REM GOOF = 1.048
  REM Shift_max = 0.001
  REM Shift_mean = 0
  REM Reflections_all = 3604
  REM Reflections_gt = 2356
  REM Parameters = n/a
  REM Hole = -2.95
  REM Peak = 1.49
  REM Flack = n/a

  
;
_cod_data_source_file            cm0c01452_si_005.cif
_cod_data_source_block           1
_cod_database_code               4003587
_shelx_shelxl_version_number     2016/6
_shelx_space_group_comment
;
The symmetry employed for this shelxl refinement is uniquely defined
by the following loop, which should always be used as a source of
symmetry information in preference to the above space-group names.
They are only intended as comments.
;
_olex2_refinement_description
;
;
_olex2_submission_special_instructions 'No special instructions were received'
loop_
_space_group_symop_operation_xyz
'x, y, z'
'-x, -y, -z'
loop_
_atom_site_label
_atom_site_type_symbol
_atom_site_fract_x
_atom_site_fract_y
_atom_site_fract_z
_atom_site_U_iso_or_equiv
_atom_site_adp_type
_atom_site_occupancy
_atom_site_site_symmetry_order
_atom_site_calc_flag
_atom_site_refinement_flags_posn
_atom_site_refinement_flags_adp
_atom_site_refinement_flags_occupancy
_atom_site_disorder_assembly
_atom_site_disorder_group
I1 I 0.16301(6) 0.95513(6) 0.12136(3) 0.00921(13) Uani 1 1 d . . . . .
I2 I 0.83342(6) 0.61073(6) 0.11754(3) 0.00853(13) Uani 1 1 d . . . . .
I3 I 0.81486(6) 0.16791(6) 0.36385(3) 0.01101(13) Uani 1 1 d . . . . .
I4 I 0.81434(6) 0.48614(6) 0.61422(3) 0.01151(13) Uani 1 1 d . . . . .
Sr1 Sr 0.45168(10) 0.31473(10) 0.12700(5) 0.01050(15) Uani 1 1 d . . . . .
Sr2 Sr 0.51306(9) 0.13371(10) 0.63552(5) 0.01116(16) Uani 1 1 d . . . . .
O1 O 0.2370(7) 0.9425(8) -0.0136(4) 0.0158(10) Uani 1 1 d . . . . .
O2 O 0.4039(7) 0.9473(7) 0.1669(4) 0.0129(10) Uani 1 1 d . . . . .
O3 O 0.1856(7) 0.6914(7) 0.1563(4) 0.0149(10) Uani 1 1 d . . . . .
O4 O 0.6500(7) 0.5349(7) 0.0669(4) 0.0125(9) Uani 1 1 d . . . . .
O5 O 0.7942(7) 0.5715(7) 0.2531(4) 0.0147(10) Uani 1 1 d . . . . .
O6 O 1.0756(6) 0.3681(7) 0.0950(4) 0.0115(9) Uani 1 1 d . . . . .
O7 O 0.7339(8) 0.1054(8) 0.2488(4) 0.0267(12) Uani 1 1 d . . . . .
O8 O 1.0808(7) -0.0471(7) 0.3624(5) 0.0224(12) Uani 1 1 d . . . . .
O9 O 0.6799(7) 0.0528(8) 0.4542(4) 0.0188(11) Uani 1 1 d . . . . .
O10 O 0.5663(7) 0.4681(7) 0.6437(4) 0.0206(11) Uani 1 1 d . . . . .
O11 O 0.7834(8) 0.5644(8) 0.4797(4) 0.0222(11) Uani 1 1 d . . . . .
O12 O 0.7398(8) 0.7292(7) 0.6762(4) 0.0217(11) Uani 1 1 d . . . . .
loop_
_atom_site_aniso_label
_atom_site_aniso_U_11
_atom_site_aniso_U_22
_atom_site_aniso_U_33
_atom_site_aniso_U_23
_atom_site_aniso_U_13
_atom_site_aniso_U_12
I1 0.0086(2) 0.0068(2) 0.0126(2) -0.00128(17) 0.00094(17) -0.00395(17)
I2 0.0076(2) 0.0065(2) 0.0115(2) -0.00022(17) 0.00003(16) -0.00332(16)
I3 0.0095(2) 0.0087(2) 0.0146(3) -0.00198(16) 0.00044(16) -0.00369(16)
I4 0.0088(2) 0.0082(2) 0.0171(3) 0.00008(17) -0.00085(17) -0.00355(16)
Sr1 0.0082(3) 0.0090(3) 0.0137(3) 0.0003(2) -0.0007(2) -0.0034(2)
Sr2 0.0103(3) 0.0105(3) 0.0125(3) -0.0007(2) -0.0005(2) -0.0045(2)
O1 0.020(2) 0.020(2) 0.008(2) -0.0006(19) 0.0012(19) -0.009(2)
O2 0.014(2) 0.012(2) 0.015(3) -0.0029(19) -0.0015(19) -0.0067(18)
O3 0.015(2) 0.008(2) 0.025(3) -0.004(2) 0.002(2) -0.0085(19)
O4 0.011(2) 0.014(2) 0.015(3) -0.0007(19) -0.0039(18) -0.0078(18)
O5 0.016(2) 0.020(2) 0.004(2) -0.0006(19) 0.0016(18) -0.005(2)
O6 0.005(2) 0.009(2) 0.019(3) -0.0018(18) 0.0000(17) -0.0002(17)
O7 0.020(3) 0.030(3) 0.022(3) -0.005(2) -0.002(2) -0.002(2)
O8 0.008(2) 0.014(2) 0.045(4) -0.012(2) 0.001(2) -0.0021(19)
O9 0.019(2) 0.026(3) 0.017(3) -0.002(2) 0.001(2) -0.015(2)
O10 0.010(2) 0.013(2) 0.037(3) 0.002(2) 0.002(2) -0.0060(19)
O11 0.024(3) 0.031(3) 0.008(3) 0.001(2) 0.000(2) -0.009(2)
O12 0.024(3) 0.014(2) 0.027(3) -0.006(2) -0.008(2) -0.006(2)
loop_
_atom_type_symbol
_atom_type_description
_atom_type_scat_dispersion_real
_atom_type_scat_dispersion_imag
_atom_type_scat_source
I I -0.4742 1.8119 'International Tables Vol C Tables 4.2.6.8 and 6.1.1.4'
O O 0.0106 0.0060 'International Tables Vol C Tables 4.2.6.8 and 6.1.1.4'
Sr Sr -1.5307 3.2498 'International Tables Vol C Tables 4.2.6.8 and 6.1.1.4'
loop_
_geom_angle_atom_site_label_1
_geom_angle_atom_site_label_2
_geom_angle_atom_site_label_3
_geom_angle
_geom_angle_site_symmetry_1
_geom_angle_site_symmetry_3
_geom_angle_publ_flag
Sr1 I1 Sr2 64.123(17) 1_565 2_666 ?
O1 I1 Sr1 86.51(15) . 1_565 ?
O1 I1 Sr2 132.57(15) . 2_666 ?
O1 I1 O2 98.7(2) . . ?
O1 I1 O3 102.0(2) . . ?
O2 I1 Sr1 39.63(14) . 1_565 ?
O2 I1 Sr2 35.41(15) . 2_666 ?
O3 I1 Sr1 143.59(15) . 1_565 ?
O3 I1 Sr2 85.36(16) . 2_666 ?
O3 I1 O2 104.0(2) . . ?
Sr1 I2 Sr1 122.376(17) 2_665 1_655 ?
Sr1 I2 Sr2 119.60(2) 1_655 2_666 ?
Sr1 I2 Sr2 117.96(3) 2_665 2_666 ?
O4 I2 Sr1 39.96(15) . 2_665 ?
O4 I2 Sr1 130.39(14) . 1_655 ?
O4 I2 Sr2 97.82(15) . 2_666 ?
O4 I2 O6 97.7(2) . . ?
O5 I2 Sr1 139.56(15) . 2_665 ?
O5 I2 Sr1 92.83(15) . 1_655 ?
O5 I2 Sr2 35.03(15) . 2_666 ?
O5 I2 O4 103.0(2) . . ?
O5 I2 O6 99.3(2) . . ?
O6 I2 Sr1 32.86(14) . 1_655 ?
O6 I2 Sr1 101.22(15) . 2_665 ?
O6 I2 Sr2 134.16(15) . 2_666 ?
Sr2 I3 Sr1 64.955(18) 2_656 . ?
O7 I3 Sr1 27.10(16) . . ?
O7 I3 Sr2 55.59(18) . 2_656 ?
O8 I3 Sr1 121.62(19) . . ?
O8 I3 Sr2 100.77(15) . 2_656 ?
O8 I3 O7 96.5(2) . . ?
O9 I3 Sr1 100.02(16) . . ?
O9 I3 Sr2 40.62(16) . 2_656 ?
O9 I3 O7 96.2(2) . . ?
O9 I3 O8 100.0(2) . . ?
Sr1 I4 Sr2 87.557(19) 2_666 . ?
O10 I4 Sr1 65.92(19) . 2_666 ?
O10 I4 Sr2 32.44(16) . . ?
O10 I4 O12 96.8(2) . . ?
O11 I4 Sr1 139.85(17) . 2_666 ?
O11 I4 Sr2 97.34(17) . . ?
O11 I4 O10 98.3(2) . . ?
O11 I4 O12 105.2(2) . . ?
O12 I4 Sr1 45.93(17) . 2_666 ?
O12 I4 Sr2 127.54(16) . . ?
I2 Sr1 I1 64.30(2) 1_455 1_545 ?
I2 Sr1 I1 65.412(16) 2_665 1_545 ?
I2 Sr1 I2 57.624(17) 2_665 1_455 ?
I4 Sr1 I1 92.64(2) 2_666 1_545 ?
I4 Sr1 I2 68.058(18) 2_666 1_455 ?
I4 Sr1 I2 125.68(3) 2_666 2_665 ?
O1 Sr1 I1 89.37(11) 2_665 1_545 ?
O1 Sr1 I2 136.18(11) 2_665 1_455 ?
O1 Sr1 I2 80.10(11) 2_665 2_665 ?
O1 Sr1 I4 152.16(11) 2_665 2_666 ?
O1 Sr1 O2 78.76(14) 2_665 1_545 ?
O1 Sr1 O4 75.11(15) 2_665 2_665 ?
O1 Sr1 O12 134.20(15) 2_665 2_666 ?
O2 Sr1 I1 24.94(9) 1_545 1_545 ?
O2 Sr1 I2 86.74(9) 1_545 1_455 ?
O2 Sr1 I2 86.01(10) 1_545 2_665 ?
O2 Sr1 I4 91.66(10) 1_545 2_666 ?
O2 Sr1 O12 64.55(14) 1_545 2_666 ?
O3 Sr1 I1 110.59(10) . 1_545 ?
O3 Sr1 I2 47.38(10) . 1_455 ?
O3 Sr1 I2 85.51(12) . 2_665 ?
O3 Sr1 I4 55.25(12) . 2_666 ?
O3 Sr1 O1 147.76(15) . 2_665 ?
O3 Sr1 O2 129.03(13) . 1_545 ?
O3 Sr1 O4 79.52(15) . 2_665 ?
O3 Sr1 O4 75.34(14) . . ?
O3 Sr1 O6 69.97(14) . 1_455 ?
O3 Sr1 O12 77.76(15) . 2_666 ?
O4 Sr1 I1 90.53(9) 2_665 1_545 ?
O4 Sr1 I1 160.89(11) . 1_545 ?
O4 Sr1 I2 25.46(9) 2_665 2_665 ?
O4 Sr1 I2 97.82(11) . 2_665 ?
O4 Sr1 I2 115.69(10) . 1_455 ?
O4 Sr1 I2 71.07(9) 2_665 1_455 ?
O4 Sr1 I4 132.59(10) 2_665 2_666 ?
O4 Sr1 I4 105.13(11) . 2_666 ?
O4 Sr1 O1 78.23(15) . 2_665 ?
O4 Sr1 O2 109.08(14) 2_665 1_545 ?
O4 Sr1 O2 155.63(14) . 1_545 ?
O4 Sr1 O4 72.36(15) . 2_665 ?
O4 Sr1 O6 131.46(14) . 1_455 ?
O4 Sr1 O12 129.99(15) . 2_666 ?
O4 Sr1 O12 141.12(14) 2_665 2_666 ?
O6 Sr1 I1 43.35(10) 1_455 1_545 ?
O6 Sr1 I2 47.51(11) 1_455 2_665 ?
O6 Sr1 I2 22.71(10) 1_455 1_455 ?
O6 Sr1 I4 81.78(11) 1_455 2_666 ?
O6 Sr1 O1 117.23(15) 1_455 2_665 ?
O6 Sr1 O2 67.53(13) 1_455 1_545 ?
O6 Sr1 O4 68.84(14) 1_455 2_665 ?
O6 Sr1 O12 73.88(15) 1_455 2_666 ?
O7 Sr1 I1 101.88(13) . 1_545 ?
O7 Sr1 I2 140.79(13) . 1_455 ?
O7 Sr1 I2 152.85(13) . 2_665 ?
O7 Sr1 I4 76.71(13) . 2_666 ?
O7 Sr1 O1 75.71(17) . 2_665 ?
O7 Sr1 O2 77.41(16) . 1_545 ?
O7 Sr1 O3 121.63(17) . . ?
O7 Sr1 O4 89.22(17) . . ?
O7 Sr1 O4 148.05(16) . 2_665 ?
O7 Sr1 O6 137.99(17) . 1_455 ?
O7 Sr1 O12 70.50(16) . 2_666 ?
O12 Sr1 I1 68.91(10) 2_666 1_545 ?
O12 Sr1 I2 70.30(10) 2_666 1_455 ?
O12 Sr1 I2 121.18(10) 2_666 2_665 ?
O12 Sr1 I4 27.17(10) 2_666 2_666 ?
I3 Sr2 I1 117.16(2) 2_656 2_666 ?
I3 Sr2 I4 174.20(2) 2_656 . ?
I4 Sr2 I1 68.235(17) . 2_666 ?
O2 Sr2 I1 23.42(9) 2_666 2_666 ?
O2 Sr2 I3 96.71(9) 2_666 2_656 ?
O2 Sr2 I4 88.09(9) 2_666 . ?
O2 Sr2 O5 69.93(14) 2_666 2_666 ?
O2 Sr2 O7 68.63(14) 2_666 2_656 ?
O2 Sr2 O9 121.74(14) 2_666 2_656 ?
O2 Sr2 O11 137.06(15) 2_666 2_666 ?
O5 Sr2 I1 82.40(11) 2_666 2_666 ?
O5 Sr2 I3 90.92(10) 2_666 2_656 ?
O5 Sr2 I4 87.67(10) 2_666 . ?
O5 Sr2 O7 76.24(14) 2_666 2_656 ?
O5 Sr2 O9 105.49(15) 2_666 2_656 ?
O7 Sr2 I1 90.52(11) 2_656 2_666 ?
O7 Sr2 I3 28.68(11) 2_656 2_656 ?
O7 Sr2 I4 155.05(11) 2_656 . ?
O8 Sr2 I1 53.28(13) 2_756 2_666 ?
O8 Sr2 I3 137.66(10) 2_756 2_656 ?
O8 Sr2 I4 46.78(10) 2_756 . ?
O8 Sr2 O2 75.80(16) 2_756 2_666 ?
O8 Sr2 O5 123.19(15) 2_756 2_666 ?
O8 Sr2 O7 129.51(15) 2_756 2_656 ?
O8 Sr2 O9 131.11(15) 2_756 2_656 ?
O8 Sr2 O11 127.68(16) 2_756 2_666 ?
O9 Sr2 I1 124.30(11) . 2_666 ?
O9 Sr2 I1 139.28(11) 2_656 2_666 ?
O9 Sr2 I3 26.04(10) 2_656 2_656 ?
O9 Sr2 I3 96.05(10) . 2_656 ?
O9 Sr2 I4 81.85(10) . . ?
O9 Sr2 I4 149.87(11) 2_656 . ?
O9 Sr2 O2 143.53(15) . 2_666 ?
O9 Sr2 O5 143.73(15) . 2_666 ?
O9 Sr2 O7 54.69(15) 2_656 2_656 ?
O9 Sr2 O7 122.20(15) . 2_656 ?
O9 Sr2 O8 71.79(17) . 2_756 ?
O9 Sr2 O9 71.49(16) . 2_656 ?
O9 Sr2 O10 95.84(16) . . ?
O9 Sr2 O11 77.79(16) . 2_666 ?
O9 Sr2 O12 84.01(17) . 1_545 ?
O10 Sr2 I1 73.38(13) . 2_666 ?
O10 Sr2 I3 154.37(10) . 2_656 ?
O10 Sr2 I4 22.20(10) . . ?
O10 Sr2 O2 86.96(16) . 2_666 ?
O10 Sr2 O5 66.46(15) . 2_666 ?
O10 Sr2 O7 140.76(16) . 2_656 ?
O10 Sr2 O8 67.84(15) . 2_756 ?
O10 Sr2 O9 146.78(17) . 2_656 ?
O10 Sr2 O11 74.29(17) . 2_666 ?
O10 Sr2 O12 135.55(16) . 1_545 ?
O11 Sr2 I1 142.31(12) 2_666 2_666 ?
O11 Sr2 I3 86.19(12) 2_666 2_656 ?
O11 Sr2 I4 88.08(12) 2_666 . ?
O11 Sr2 O5 67.19(15) 2_666 2_666 ?
O11 Sr2 O7 102.66(15) 2_666 2_656 ?
O11 Sr2 O9 73.05(16) 2_666 2_656 ?
O12 Sr2 I1 70.50(12) 1_545 2_666 ?
O12 Sr2 I3 68.38(11) 1_545 2_656 ?
O12 Sr2 I4 116.59(11) 1_545 . ?
O12 Sr2 O2 69.40(15) 1_545 2_666 ?
O12 Sr2 O5 131.17(16) 1_545 2_666 ?
O12 Sr2 O7 64.57(15) 1_545 2_656 ?
O12 Sr2 O8 70.06(15) 1_545 2_756 ?
O12 Sr2 O9 75.05(16) 1_545 2_656 ?
O12 Sr2 O11 146.90(16) 1_545 2_666 ?
I1 O1 Sr1 135.7(2) . 2_665 ?
I1 O2 Sr1 115.4(2) . 1_565 ?
I1 O2 Sr2 121.2(2) . 2_666 ?
Sr2 O2 Sr1 100.23(15) 2_666 1_565 ?
I1 O3 Sr1 137.3(2) . . ?
I2 O4 Sr1 137.8(2) . . ?
I2 O4 Sr1 114.6(2) . 2_665 ?
Sr1 O4 Sr1 107.64(15) . 2_665 ?
I2 O5 Sr2 122.4(2) . 2_666 ?
I2 O6 Sr1 124.4(2) . 1_655 ?
I3 O7 Sr1 133.4(3) . . ?
I3 O7 Sr2 95.7(2) . 2_656 ?
Sr1 O7 Sr2 94.86(16) . 2_656 ?
I3 O8 Sr2 143.1(2) . 2_756 ?
I3 O9 Sr2 133.7(2) . . ?
I3 O9 Sr2 113.3(2) . 2_656 ?
Sr2 O9 Sr2 108.51(16) . 2_656 ?
I4 O10 Sr2 125.4(2) . . ?
I4 O11 Sr2 136.5(3) . 2_666 ?
I4 O12 Sr1 106.9(2) . 2_666 ?
I4 O12 Sr2 137.3(3) . 1_565 ?
Sr2 O12 Sr1 99.07(16) 1_565 2_666 ?
loop_
_geom_bond_atom_site_label_1
_geom_bond_atom_site_label_2
_geom_bond_distance
_geom_bond_site_symmetry_2
_geom_bond_publ_flag
I1 Sr1 3.9017(10) 1_565 ?
I1 Sr2 3.9214(12) 2_666 ?
I1 O1 1.796(5) . ?
I1 O2 1.822(4) . ?
I1 O3 1.812(4) . ?
I2 Sr1 3.8991(13) 1_655 ?
I2 Sr1 3.8021(12) 2_665 ?
I2 Sr2 3.9306(11) 2_666 ?
I2 O4 1.797(4) . ?
I2 O5 1.785(5) . ?
I2 O6 1.825(4) . ?
I3 Sr1 3.9582(11) . ?
I3 Sr2 3.7697(10) 2_656 ?
I3 O7 1.818(6) . ?
I3 O8 1.807(5) . ?
I3 O9 1.802(5) . ?
I4 Sr1 3.7958(12) 2_666 ?
I4 Sr2 3.8988(10) . ?
I4 O10 1.807(4) . ?
I4 O11 1.797(5) . ?
I4 O12 1.812(5) . ?
Sr1 O1 2.587(5) 2_665 ?
Sr1 O2 2.756(4) 1_545 ?
Sr1 O3 2.522(4) . ?
Sr1 O4 2.542(4) . ?
Sr1 O4 2.685(5) 2_665 ?
Sr1 O6 2.565(4) 1_455 ?
Sr1 O7 2.482(5) . ?
Sr1 O12 2.850(6) 2_666 ?
Sr2 O2 2.655(5) 2_666 ?
Sr2 O5 2.673(5) 2_666 ?
Sr2 O7 3.126(6) 2_656 ?
Sr2 O8 2.640(5) 2_756 ?
Sr2 O9 2.551(5) . ?
Sr2 O9 2.673(5) 2_656 ?
Sr2 O10 2.564(5) . ?
Sr2 O11 2.672(5) 2_666 ?
Sr2 O12 2.604(5) 1_545 ?
loop_
_refln_index_h
_refln_index_k
_refln_index_l
_refln_F_squared_meas
_refln_F_squared_sigma
1 0 0 132.59 5.1
1 0 0 127.99 4.8
-2 0 0 1497.65 50.39
2 0 0 1465.85 50.49
2 0 0 1457.55 51.09
-3 0 0 8879.31 297.07
3 0 0 8430.26 297.27
3 0 0 8968 297.27
-4 0 0 14.6 1.6
4 0 0 14.6 2.3
4 0 0 18.8 2.1
5 0 0 1036.7 36.3
5 0 0 976.9 37.8
6 0 0 2056.49 74.39
7 0 0 0.7 2.1
8 0 0 744.63 32.2
7 -1 0 12 3.6
6 -1 0 89.89 7.2
5 -1 0 33.6 4.3
4 -1 0 63.79 4.9
4 -1 0 65.69 3.6
-4 1 0 67.09 4
3 -1 0 273.57 11.8
3 -1 0 263.17 10.2
-3 1 0 273.07 10.9
2 -1 0 6.7 0.8
2 -1 0 4 1
1 -1 0 310.27 11.6
-1 1 0 298.77 11.3
0 -1 0 23.9 1.4
0 1 0 22.8 1.4
1 1 0 18.1 1.1
2 1 0 642.24 22.6
-3 -1 0 60.59 2.6
3 1 0 64.09 3.4
-4 -1 0 5.5 0.7
4 1 0 3.9 1.2
4 1 0 4.1 1.2
5 1 0 678.83 26.5
5 1 0 694.23 25.6
6 1 0 178.88 9.7
6 1 0 187.88 9
7 1 0 19.2 3
7 1 0 17.6 3.7
8 1 0 153.88 10.4
7 -2 0 454.65 22.6
6 -2 0 306.07 16.3
5 -2 0 499.25 22.2
4 -2 0 494.15 21.2
-4 2 0 507.35 20
3 -2 0 428.86 18.1
-3 2 0 439.46 17.3
2 -2 0 2678.63 91.29
2 -2 0 2580.54 88.69
-2 2 0 2600.84 90.59
1 -2 0 1239.48 44.6
-1 2 0 1284.97 44.6
0 -2 0 1390.06 48.5
0 2 0 1391.36 48.5
1 2 0 6943.6 235.28
2 2 0 20.2 1.6
2 2 0 21.4 1.6
3 2 0 198.58 8.2
3 2 0 198.58 7.9
-4 -2 0 4019.2 130.49
4 2 0 3639.34 131.19
5 2 0 37.3 3.7
6 2 0 188.68 9.4
6 2 0 195.88 9.8
7 2 0 1035.9 38.3
7 2 0 1004.9 39
8 2 0 0.8 1.6
8 2 0 1.1 1.8
6 -3 0 17.8 4.7
5 -3 0 253.37 14.1
4 -3 0 36.1 4.8
-4 3 0 46.4 4.4
3 -3 0 65.59 5.3
-3 3 0 58.39 4.8
2 -3 0 344.17 15.1
-2 3 0 342.37 14.7
1 -3 0 42.4 3.7
-1 3 0 45.2 3.6
0 -3 0 89.89 5.2
0 3 0 81.99 3.3
0 3 0 89.79 5
1 3 0 86.99 4.8
1 3 0 91.09 3.9
2 3 0 30.4 2.5
2 3 0 36.6 2.3
3 3 0 392.56 15
3 3 0 393.36 15.1
4 3 0 391.66 15.7
4 3 0 404.26 15.3
5 3 0 16.5 2.5
6 3 0 520.35 20.9
7 3 0 691.43 27.6
7 3 0 695.53 27.4
8 3 0 9.2 2.6
8 3 0 9 3
9 3 0 68.99 7
5 -4 0 422.26 21.3
4 -4 0 189.18 11.9
3 -4 0 150.28 9.6
-3 4 0 149.99 9
2 -4 0 410.66 18.7
-2 4 0 434.16 18.5
1 -4 0 8.3 2.3
-1 4 0 10.6 2.5
0 -4 0 111.29 7.3
0 4 0 127.79 7.1
1 4 0 209.28 9.8
1 4 0 203.78 8
2 4 0 0.8 0.5
2 4 0 2.4 1.1
3 4 0 97.29 5.5
3 4 0 96.89 5.1
4 4 0 25 2.9
4 4 0 28.5 2.6
5 4 0 84.49 5.4
6 4 0 73.09 5.3
7 4 0 38.5 4.7
8 4 0 61.69 6.2
9 4 0 202.28 11.7
4 -5 0 21.7 5.1
3 -5 0 62.79 7.6
-3 5 0 77.09 6.7
2 -5 0 489.45 22.6
-2 5 0 496.25 21.8
1 -5 0 72.69 6.7
-1 5 0 73.09 6.1
0 -5 0 27.9 4.7
0 5 0 32.7 4.3
1 5 0 1338.07 49.5
2 5 0 11.7 2.6
2 5 0 11 1.7
3 5 0 81.59 4.7
3 5 0 87.59 5.8
4 5 0 741.83 27.3
4 5 0 708.63 27.7
5 5 0 20.8 3
6 5 0 5.9 2
7 5 0 155.28 9.1
8 5 0 218.18 12
9 5 0 97.09 7.8
3 -6 0 299.17 18.1
-3 6 0 323.37 17.1
2 -6 0 18.6 5
-2 6 0 14.1 3.6
1 -6 0 4.8 3.4
-1 6 0 8.4 3.1
0 -6 0 477.15 22.6
0 6 0 488.35 21.9
1 6 0 20.8 3.9
2 6 0 68.79 6
4 6 0 96.79 5.8
4 6 0 102.59 6.7
5 6 0 238.88 11.4
6 6 0 34.2 4.4
7 6 0 177.68 10.2
8 6 0 285.77 14.7
2 -7 0 413.96 22.9
-2 7 0 410.06 21.3
1 -7 0 1777.32 68.69
-1 7 0 1742.43 67.09
0 -7 0 9 4.1
0 7 0 5.3 2.9
1 7 0 455.95 21.8
2 7 0 2761.82 99.79
3 7 0 95.29 7.5
4 7 0 278.57 14.2
5 7 0 2029.2 72.29
6 7 0 212.58 11.2
7 7 0 320.57 15.6
8 7 0 1061.39 41.8
0 8 0 1.6 2.7
1 8 0 38.5 6.6
2 8 0 0.2 2.3
3 8 0 -1.3 2.1
4 8 0 -0.9 1.8
6 8 0 53.79 5.6
7 8 0 11.7 3.5
3 9 0 967.3 41.2
4 9 0 26.8 5.7
4 9 -1 11.9 4.2
3 9 -1 432.66 22.5
7 8 -1 57.49 6.3
6 8 -1 6.1 2.3
5 8 -1 84.39 7.2
4 8 -1 2.3 2.5
3 8 -1 30.5 5.7
2 8 -1 125.69 9.9
1 8 -1 77.89 9.2
0 8 -1 118.39 10.1
8 7 -1 4.2 2.7
7 7 -1 33.7 4.9
6 7 -1 143.79 8.7
5 7 -1 1.4 1.5
5 7 -1 1.9 1.8
4 7 -1 136.09 8.9
3 7 -1 2.3 1.9
2 7 -1 1 1.9
1 7 -1 125.29 9.3
0 7 -1 2 2.2
-1 7 -1 14.8 4.2
1 -7 1 17.5 5.5
-2 7 -1 4.5 3.2
2 -7 1 -1.5 3.5
8 6 -1 131.39 8.9
7 6 -1 2.7 2
6 6 -1 1051.09 39.7
5 6 -1 346.17 14.9
5 6 -1 331.27 16.5
4 6 -1 13.2 3
4 6 -1 7.7 2
2 6 -1 536.45 23
1 6 -1 132.59 8.8
0 6 -1 774.32 32.4
0 -6 1 808.62 33.2
-1 6 -1 770.02 31.9
1 -6 1 749.92 32.7
-2 6 -1 437.66 21.1
2 -6 1 438.56 22
-3 6 -1 251.57 14.7
3 -6 1 262.87 16.2
8 5 -1 328.07 15.9
7 5 -1 211.68 11.2
6 5 -1 15 3
5 5 -1 220.58 10.5
4 5 -1 273.77 12.4
4 5 -1 258.17 11.6
3 5 -1 4 1.3
3 5 -1 1.7 1.2
2 5 -1 32.1 4.1
2 5 -1 31 2.5
1 5 -1 62.29 5.2
-1 -5 1 59.89 5.4
0 5 -1 53.09 5.1
0 -5 1 60.29 5.8
-1 5 -1 28.7 4.3
1 -5 1 26 4.5
-2 5 -1 8.2 2.8
2 -5 1 9.6 3.2
-3 5 -1 2.4 2.2
3 -5 1 3.9 2.8
4 -5 1 9.2 3.7
9 4 -1 4.1 2.3
8 4 -1 1646.44 60.59
7 4 -1 577.04 23.6
6 4 -1 103.59 6.5
5 4 -1 4427.76 152.38
4 4 -1 896.61 33.2
4 4 -1 904.61 33
3 4 -1 35.1 2.8
3 4 -1 31.8 3
2 4 -1 6554.74 224.78
2 4 -1 6605.04 223.38
1 4 -1 722.33 26
1 4 -1 753.12 28.2
-1 -4 1 734.33 28.1
0 4 -1 138.09 7.8
0 -4 1 146.59 8
-1 4 -1 6517.25 220.28
1 -4 1 6312.17 220.18
-2 4 -1 453.55 19.8
2 -4 1 477.55 20.4
-3 4 -1 645.74 26.5
3 -4 1 647.64 27.3
4 -4 1 2151.28 79.39
5 -4 1 211.58 13.5
8 3 -1 135.29 8.5
7 3 -1 30.3 4.6
7 3 -1 34.7 4.2
6 3 -1 22.6 3.1
6 3 -1 25.6 3.2
5 3 -1 390.86 16
4 3 -1 4.4 1.3
4 3 -1 4.4 1.2
3 3 -1 464.35 17.7
3 3 -1 461.75 17.5
2 3 -1 73.79 4.2
2 3 -1 67.89 3.6
1 3 -1 96.29 5.2
1 3 -1 94.39 4.2
-1 -3 1 92.59 5.1
0 3 -1 523.85 18
0 3 -1 491.85 19.7
0 -3 1 508.75 19.5
-1 3 -1 7.2 1.7
1 -3 1 5.7 1.6
-2 3 -1 30.9 3.6
2 -3 1 23.2 3.2
-3 3 -1 453.85 18.7
3 -3 1 439.26 19.4
-4 3 -1 78.89 6.4
4 -3 1 85.19 6.8
5 -3 1 25.5 4.6
6 -3 1 74.19 8.6
8 2 -1 196.88 10.7
8 2 -1 212.08 11.9
7 2 -1 507.25 20.9
7 2 -1 511.85 21.5
6 2 -1 468.75 19.2
6 2 -1 482.95 19.6
5 2 -1 23 2.7
5 2 -1 24.1 2.9
4 2 -1 2503.55 85.59
-4 -2 1 2442.76 85.89
3 2 -1 5.7 1.2
3 2 -1 3.9 1
2 2 -1 119.89 5.4
2 2 -1 119.09 5.2
1 2 -1 4989.5 169.28
1 2 -1 4964.5 168.58
0 2 -1 76.69 3.1
0 2 -1 73.99 4
0 -2 1 73.19 3.7
-1 2 -1 2.7 1
1 -2 1 6.2 1.4
-2 2 -1 5161.18 175.38
2 -2 1 5167.68 175.88
2 -2 1 5076.19 173.38
-3 2 -1 171.78 8.3
3 -2 1 180.38 9.2
-4 2 -1 108.29 6.1
4 -2 1 98.99 6.9
5 -2 1 1526.35 57.19
6 -2 1 61.09 7
7 -2 1 83.79 9.4
8 1 -1 1.6 2.1
7 1 -1 155.08 9.6
7 1 -1 165.18 8.7
6 1 -1 182.18 9.8
6 1 -1 192.18 9.2
5 1 -1 54.89 4.2
5 1 -1 57.89 4
4 1 -1 526.35 19.8
4 1 -1 510.45 19.3
-4 -1 1 508.15 18.5
3 1 -1 5.1 1.1
3 1 -1 5.1 1.1
-3 -1 1 8.3 1.3
1 1 -1 66.79 3.1
1 1 -1 63.79 2.9
0 1 -1 5.5 0.6
0 1 -1 5.2 0.8
0 -1 1 5.1 0.7
-1 1 -1 859.81 30.2
1 -1 1 854.01 30.3
1 -1 1 867.41 29.4
-2 1 -1 466.25 19.1
2 -1 1 544.65 18.5
2 -1 1 573.54 19.9
-3 1 -1 6.8 1.3
3 -1 1 4.7 1.5
3 -1 1 4.6 0.9
-4 1 -1 426.96 16.2
4 -1 1 417.86 17.7
4 -1 1 408.66 15.6
5 -1 1 805.02 31.9
6 -1 1 12.7 3.2
7 -1 1 330.67 17.4
8 0 -1 12.1 3.8
7 0 -1 557.14 24.5
6 0 -1 141.29 8.7
5 0 -1 93.79 6.3
5 0 -1 107.39 5.6
4 0 -1 768.82 28.9
4 0 -1 777.42 27.8
-4 0 1 757.92 27.5
3 0 -1 433.66 15.6
3 0 -1 414.56 16.3
-3 0 1 414.46 15.4
2 0 -1 6.1 0.9
2 0 -1 6.4 1
-2 0 1 6.2 0.9
1 0 -1 103.59 4
1 0 -1 101.89 4.2
1 0 1 3 0.4
-2 0 -1 191.98 6.9
2 0 1 179.88 7.1
-3 0 -1 406.16 14.6
3 0 1 401.66 14.9
3 0 1 410.96 15.9
-4 0 -1 72.99 4.4
4 0 1 78.79 5.1
4 0 1 82.59 4.2
5 0 1 208.18 9
5 0 1 198.58 10.3
6 0 1 94.19 6.9
7 0 1 197.68 11.9
8 0 1 35.7 5.9
7 -1 -1 252.17 14.5
6 -1 -1 0.7 1.5
5 -1 -1 3.5 1.7
4 -1 -1 654.43 23.9
-4 1 1 663.53 24.5
3 -1 -1 10.2 1.3
3 -1 -1 8.5 1.8
-3 1 1 10.3 1.6
2 -1 -1 4.4 0.7
2 -1 -1 4.9 1.2
-2 1 1 5.5 1.1
1 -1 -1 1421.46 48.3
1 -1 -1 1436.16 49.2
-1 1 1 1394.96 49
0 -1 -1 1.4 0.7
0 1 1 1 0.4
1 1 1 29.3 1.4
1 1 1 25.2 1.4
2 1 1 1201.58 41.5
3 1 1 1282.57 44.7
4 1 1 139.49 6.5
5 1 1 469.75 17.8
5 1 1 440.36 18.6
6 1 1 433.56 18.5
6 1 1 406.76 17
7 1 1 211.88 10.2
7 1 1 189.48 11.2
8 1 1 2.5 2.6
7 -2 -1 33 5.6
6 -2 -1 148.59 10.2
5 -2 -1 607.14 25.8
4 -2 -1 13 2.7
3 -2 -1 49.4 4.2
-3 2 1 50.69 3.8
2 -2 -1 1625.04 55.59
2 -2 -1 1644.94 57.79
-2 2 1 1610.74 57.19
1 -2 -1 89.49 5
-1 2 1 99.69 5
0 -2 -1 91.99 4.9
0 2 1 89.79 3.4
0 2 1 88.19 4.5
1 2 1 803.52 28.4
2 2 1 248.28 9.4
3 2 1 416.46 14.8
3 2 1 413.16 15.6
4 2 1 101.59 5.2
5 2 1 190.98 8.9
6 2 1 384.86 16.1
7 2 1 5.7 2.2
7 2 1 7 2.2
8 2 1 362.56 16.5
8 2 1 364.46 17.6
6 -3 -1 960 40.1
5 -3 -1 352.86 17.9
4 -3 -1 107.49 7.9
-4 3 1 107.29 7
3 -3 -1 4037.6 140.09
-3 3 1 3988.3 139.09
2 -3 -1 69.29 5.2
-2 3 1 65.09 4.7
1 -3 -1 516.35 20.6
-1 3 1 525.25 20.4
0 -3 -1 9565.14 328.67
0 3 1 9671.03 326.87
0 3 1 9761.82 328.27
1 3 1 135.59 6.7
1 3 1 147.29 5.7
2 3 1 601.14 21.6
2 3 1 601.64 22.2
3 3 1 7466.25 253.17
4 3 1 4.6 1.4
4 3 1 6.1 1
5 3 1 1192.08 43
6 3 1 2025.3 71.79
7 3 1 11.3 2.6
8 3 1 673.73 27.6
8 3 1 690.23 28.4
9 3 1 383.96 18
5 -4 -1 -0.3 2.7
4 -4 -1 26 4.7
-4 4 1 27.9 4.5
3 -4 -1 -1.6 1.5
-3 4 1 -0.3 1.2
2 -4 -1 -0.9 1.6
-2 4 1 -0.8 1.3
1 -4 -1 69.69 5.8
-1 4 1 69.89 5.2
0 -4 -1 38.4 4.6
0 4 1 36.4 4.1
1 4 1 7.9 1.9
1 4 1 6.6 1
2 4 1 0.6 0.4
2 4 1 0.2 0.9
3 4 1 2.5 1
3 4 1 1.3 0.8
4 4 1 5.1 1.3
4 4 1 3.3 1.2
5 4 1 58.59 4.4
6 4 1 101.09 6.5
7 4 1 68.29 5.6
8 4 1 59.09 6
9 4 1 3.1 2.3
4 -5 -1 533.05 25.7
3 -5 -1 581.64 26.9
-3 5 1 608.24 26
2 -5 -1 1895.51 71.79
-2 5 1 1981.2 71.19
1 -5 -1 309.67 15.7
-1 5 1 295.27 14.7
0 -5 -1 1245.68 47.3
0 5 1 1240.28 46.6
1 5 1 4768.72 165.18
2 5 1 43.9 4.1
2 5 1 39.3 2.7
3 5 1 1096.49 39.9
3 5 1 1057.29 38.5
4 5 1 5166.88 175.28
4 5 1 5068.89 175.68
5 5 1 257.87 11.8
6 5 1 572.04 23.2
7 5 1 1810.12 65.69
8 5 1 136.99 9
9 5 1 398.46 19
3 -6 -1 106.39 11.5
-3 6 1 109.39 8.9
2 -6 -1 50.79 7.5
-2 6 1 55.49 7.1
1 -6 -1 20.6 5.1
-1 6 1 20.6 4.2
0 -6 -1 89.29 8.2
0 6 1 90.09 7.3
1 6 1 0.8 1.9
2 6 1 65.49 5.8
4 6 1 229.38 10.5
4 6 1 224.98 11.4
5 6 1 128.69 7.5
6 6 1 186.88 10.1
7 6 1 483.05 21
8 6 1 19.5 3.9
2 -7 -1 499.65 25.7
-2 7 1 475.15 23.8
1 -7 -1 26.2 6.5
-1 7 1 25.7 5.3
0 7 1 161.38 11.1
1 7 1 394.46 19.6
2 7 1 239.28 13.6
3 7 1 115.49 8.5
4 7 1 259.27 13.6
5 7 1 372.66 16.3
6 7 1 5 2.2
7 7 1 46.4 5.8
8 7 1 336.17 16.8
0 8 1 56.99 8.1
1 8 1 110.49 9.8
2 8 1 4.3 2.9
3 8 1 192.58 12.6
4 8 1 178.38 11.5
6 8 1 73.09 6.8
7 8 1 49.5 6.1
3 9 1 62.39 8.6
4 9 1 161.58 11.7
7 8 -2 1454.25 54.69
6 8 -2 402.66 18.2
5 8 -2 61.29 7.2
4 8 -2 2157.28 79.99
3 8 -2 550.74 25.6
2 8 -2 2.8 2.6
1 8 -2 1553.74 60.59
0 8 -2 585.54 27.7
8 7 -2 0 2
7 7 -2 314.07 15.4
6 7 -2 2.9 2
5 7 -2 29.7 4
5 7 -2 27 4.5
4 7 -2 166.48 10.3
3 7 -2 8.1 2.9
2 7 -2 307.77 15.9
1 7 -2 37.5 5.8
0 7 -2 6.4 3.1
-1 7 -2 214.08 13.5
-2 7 -2 4.2 2.9
8 6 -2 145.39 9.5
7 6 -2 0.1 1.8
6 6 -2 1421.96 52.29
5 6 -2 116.59 7
5 6 -2 122.59 7.9
4 6 -2 37 4.8
4 6 -2 36.5 3.8
3 6 -2 2174.08 76.59
3 6 -2 2206.98 78.99
2 6 -2 34.9 4.7
1 6 -2 104.59 7.7
0 6 -2 1812.62 66.99
0 -6 2 1800.72 67.49
-1 6 -2 51.29 6.4
1 -6 2 49.9 7.2
-2 6 -2 5 2.6
2 -6 2 4.7 3.5
-3 6 -2 891.11 37.1
3 -6 2 882.91 38.4
8 5 -2 235.68 12.6
7 5 -2 4.9 2.3
6 5 -2 168.88 9.2
5 5 -2 163.48 9.8
5 5 -2 163.38 8.6
4 5 -2 52.39 4.5
4 5 -2 48.6 3.9
3 5 -2 257.57 12.2
3 5 -2 248.28 10.8
2 5 -2 34.2 2.7
2 5 -2 37.5 4.3
1 5 -2 790.02 30.7
-1 -5 2 767.52 30.5
0 5 -2 22.8 3.9
0 -5 2 24.4 4.2
-1 5 -2 4.5 2.2
1 -5 2 1.3 1.9
-2 5 -2 619.74 26.3
2 -5 2 621.64 26.7
-3 5 -2 146.09 9.7
3 -5 2 146.99 10.4
4 -5 2 -0.9 2.7
8 4 -2 1.8 2.1
7 4 -2 -1.2 1.3
6 4 -2 356.46 15.6
5 4 -2 46.8 3.9
4 4 -2 53.69 4.1
4 4 -2 46.4 3.6
3 4 -2 6 1.7
3 4 -2 8.3 1.6
2 4 -2 48.5 3.1
2 4 -2 42.5 3.7
1 4 -2 63.29 4.6
1 4 -2 59.49 3.3
-1 -4 2 61.59 4.5
0 4 -2 85.49 5.8
0 -4 2 100.09 6.1
-1 4 -2 70.39 5.5
1 -4 2 78.29 5.7
-2 4 -2 6 2
2 -4 2 6 2.2
-3 4 -2 93.89 6.8
3 -4 2 81.49 6.8
4 -4 2 60.79 7.2
5 -4 2 69.09 8.4
8 3 -2 1.8 1.7
7 3 -2 26.7 3.7
6 3 -2 718.43 27.7
5 3 -2 51.79 3.4
5 3 -2 51.09 3.9
4 3 -2 40.3 3.3
4 3 -2 49.7 3.8
3 3 -2 859.31 30.9
3 3 -2 852.91 31.5
2 3 -2 62.49 3.4
2 3 -2 57.49 3.9
1 3 -2 2.9 1.1
1 3 -2 6.5 1.1
-1 -3 2 4 1.3
0 3 -2 240.18 10.6
0 3 -2 230.18 9.5
0 -3 2 244.18 10.1
-1 3 -2 408.36 16.8
1 -3 2 411.16 16.6
-2 3 -2 325.27 14.3
2 -3 2 331.47 14.6
-3 3 -2 4.6 1.8
3 -3 2 7.2 2.3
4 -3 2 844.12 34
5 -3 2 292.27 15.8
6 -3 2 15.2 4.1
8 2 -2 531.15 22.3
7 2 -2 472.55 20.1
7 2 -2 464.55 19.6
6 2 -2 6.2 1.9
6 2 -2 4.6 1.7
5 2 -2 567.94 21.9
5 2 -2 568.24 21.7
4 2 -2 1165.98 40.9
4 2 -2 1189.88 40.5
-4 -2 2 1068.79 41.9
3 2 -2 1.6 0.8
3 2 -2 4.1 1.4
2 2 -2 28.6 2.1
2 2 -2 29.8 2.4
1 2 -2 736.23 26.2
1 2 -2 707.63 25.4
0 2 -2 3.4 0.8
0 2 -2 1.4 0.7
0 -2 2 2.5 0.7
-1 2 -2 227.68 9.8
1 -2 2 237.18 9.8
-2 2 -2 70.59 4.3
2 -2 2 66.09 4.5
2 -2 2 70.09 3
3 -2 2 6.5 1.9
4 -2 2 254.37 12.7
5 -2 2 33.1 5
6 -2 2 213.78 12.9
7 -2 2 72.79 8.5
8 1 -2 1042.2 41.3
7 1 -2 446.46 20.1
7 1 -2 461.95 19
6 1 -2 30.5 3.4
6 1 -2 21.9 3.4
5 1 -2 4568.94 157.48
5 1 -2 4581.44 156.88
4 1 -2 521.95 19.6
4 1 -2 506.35 19.4
-4 -1 2 511.75 19.1
3 1 -2 26.4 2.2
-3 -1 2 31 2.6
2 1 -2 8575.94 292.27
2 1 -2 8582.44 292.77
1 1 -2 456.25 16.9
1 1 -2 453.05 16.3
0 1 -2 599.44 21.9
0 -1 2 621.04 21.2
-1 1 -2 8865.01 293.97
1 -1 2 8341.87 292.97
-2 1 -2 8 1.3
2 -1 2 9.6 1.6
2 -1 2 9.8 1.1
-3 1 -2 1026.8 35.6
3 -1 2 1000.1 34.9
3 -1 2 970 36.6
4 -1 2 3367.06 112.49
4 -1 2 3206.38 114.49
5 -1 2 133.79 8.4
6 -1 2 976.2 39
7 -1 2 631.94 28.3
8 0 -2 -0.6 2.2
7 0 -2 2.7 2
6 0 -2 7.9 2.5
5 0 -2 16.9 2.3
5 0 -2 13.7 2.5
4 0 -2 115.89 6.6
4 0 -2 126.19 6
-4 0 2 124.89 5.9
3 0 -2 115.49 5.8
3 0 -2 117.79 5.3
-3 0 2 106.99 5.3
2 0 -2 43.2 2.6
2 0 -2 42.7 2.4
1 0 -2 74.89 3.5
-1 0 2 83.29 4.2
0 0 2 7.2 1.3
-1 0 -2 2.3 0.6
-2 0 -2 3 0.6
2 0 2 1.6 0.5
-3 0 -2 44.5 2.3
3 0 2 40.8 2.5
4 0 2 11.1 1.6
4 0 2 9.8 2.1
5 0 2 7.3 2.2
5 0 2 9.2 1.7
6 0 2 45.7 5.4
7 0 2 6.7 2.9
8 0 2 1.7 2.5
7 -1 -2 899.01 36.9
6 -1 -2 837.92 33.9
5 -1 -2 275.07 13.5
4 -1 -2 3746.23 124.99
4 -1 -2 3555.74 126.79
-4 1 2 3645.34 125.59
3 -1 -2 549.95 19.8
3 -1 -2 537.75 21.2
2 -1 -2 9.2 1.2
2 -1 -2 7.9 1.5
-2 1 2 9 1.4
1 -1 -2 9999 333.77
1 -1 -2 9306.37 329.87
-1 1 2 9823.92 331.07
0 1 2 93.99 4.2
1 1 2 862.11 29.6
1 1 2 843.12 29.5
2 1 2 9994.3 340.87
3 1 2 9.4 1.4
4 1 2 1011 36.1
5 1 2 4625.24 158.38
6 1 2 1.6 1.5
6 1 2 4.2 1.6
7 1 2 525.95 23.4
7 1 2 545.35 21.7
8 1 2 1016.1 41.1
7 -2 -2 104.39 9.3
6 -2 -2 87.39 7.7
5 -2 -2 163.88 10
4 -2 -2 161.48 9.3
-4 2 2 176.28 8.7
3 -2 -2 26.8 3.6
-3 2 2 33.3 3.1
2 -2 -2 601.84 21.5
2 -2 -2 590.54 22.9
-2 2 2 586.64 22.4
1 -2 -2 149.49 7.2
-1 2 2 145.39 6.9
0 -2 -2 530.95 20.1
0 2 2 526.15 19.6
1 2 2 1005.5 35.5
1 2 2 1011.3 34.9
2 2 2 197.68 7.7
3 2 2 10.2 0.8
3 2 2 9.2 1.4
4 2 2 798.82 29.1
5 2 2 621.34 23.6
6 2 2 45.1 3.9
7 2 2 368.56 16.1
7 2 2 366.86 17.3
8 2 2 720.73 29.3
8 2 2 758.02 31.2
6 -3 -2 5.6 3.4
5 -3 -2 259.87 14.5
4 -3 -2 670.03 27.6
-4 3 2 638.54 26.2
3 -3 -2 17.9 3.2
-3 3 2 16 2.8
2 -3 -2 407.96 17.5
-2 3 2 408.26 17
1 -3 -2 491.95 20.1
-1 3 2 503.55 19.7
0 -3 -2 508.85 19.6
0 3 2 480.55 18.9
0 3 2 470.05 17
1 3 2 0.8 0.4
1 3 2 0 0.6
2 3 2 21.6 2
2 3 2 19.7 2
3 3 2 1571.24 55.19
3 3 2 1587.54 54.79
4 3 2 16.5 2.3
4 3 2 21.8 1.6
5 3 2 2.1 1.1
6 3 2 1031.1 38.2
7 3 2 60.79 5.2
8 3 2 14.1 3.6
8 3 2 11.6 3.1
9 3 2 302.37 16.2
9 3 2 289.37 14.8
5 -4 -2 26.4 5.4
4 -4 -2 5.6 2.9
-4 4 2 7.3 2.6
3 -4 -2 56.89 6.7
-3 4 2 63.99 5.6
2 -4 -2 33.3 4.7
-2 4 2 38.3 4.7
1 -4 -2 7.5 2.7
-1 4 2 2.9 1.6
0 -4 -2 5.5 2.4
0 4 2 0.9 1.1
1 4 2 225.78 10.3
1 4 2 209.18 8.4
2 4 2 154.28 6.7
3 4 2 165.08 7.8
3 4 2 164.48 7.5
4 4 2 11.1 1.8
4 4 2 11.5 2.1
5 4 2 47.8 4.6
6 4 2 672.13 26.3
7 4 2 2.9 1.8
8 4 2 1.8 2.1
9 4 2 598.24 25.7
4 -5 -2 10.1 4
-4 5 2 13.8 4.5
3 -5 -2 50.99 7.2
-3 5 2 53.69 6.5
2 -5 -2 398.66 19.8
-2 5 2 406.26 18.7
1 -5 -2 190.08 11.8
-1 5 2 197.68 10.9
0 -5 -2 37.9 5.4
0 5 2 42.4 5
1 5 2 407.56 17.9
2 5 2 318.27 12.6
2 5 2 333.87 14.7
3 5 2 73.59 5.2
3 5 2 74.99 4.4
4 5 2 23.6 2.9
4 5 2 19.5 2.9
5 5 2 414.06 17.3
6 5 2 257.87 12.4
7 5 2 70.29 5.8
8 5 2 384.46 17.9
9 5 2 43.6 6.1
3 -6 -2 708.13 32.6
-3 6 2 685.93 30.5
2 -6 -2 2 3.5
-2 6 2 6.3 2.9
1 -6 -2 51.39 7.1
-1 6 2 45.5 6.2
0 -6 -2 1708.33 65.39
0 6 2 1752.82 64.49
1 6 2 88.99 7
2 6 2 135.09 8.6
4 6 2 74.19 5
4 6 2 80.19 5.9
5 6 2 137.39 7.8
6 6 2 1222.08 45.6
7 6 2 6.5 2.5
8 6 2 212.78 12.1
2 -7 -2 -0.9 3.6
-2 7 2 5.3 3.3
1 -7 -2 177.18 13.2
-1 7 2 149.49 11.2
0 7 2 21.5 4.5
1 7 2 27.5 5
2 7 2 145.49 9.9
3 7 2 83.59 7.2
4 7 2 106.89 7.8
5 7 2 16.4 3
6 7 2 45.6 5.1
7 7 2 171.18 10.4
8 7 2 55.49 6.6
0 8 2 779.72 34.7
1 8 2 1936.91 73.89
2 8 2 37.9 6.6
3 8 2 941.21 39.1
4 8 2 2401.16 87.99
6 8 2 451.55 19.9
7 8 2 1358.06 51.49
3 9 2 13.2 4.3
4 9 2 43.2 6.9
6 8 -3 97.29 7.2
5 8 -3 11.4 3.4
4 8 -3 166.08 11.3
3 8 -3 97.69 8.6
2 8 -3 28.9 5.7
1 8 -3 106.09 9.6
7 7 -3 15.6 3.4
6 7 -3 23.5 3.8
5 7 -3 267.27 14.3
5 7 -3 267.77 12.9
4 7 -3 116.59 8.4
3 7 -3 81.19 7
2 7 -3 109.59 8.6
1 7 -3 337.37 17.4
0 7 -3 145.59 10.5
-1 7 -3 2.3 2.6
8 6 -3 6.6 2.7
7 6 -3 415.26 18.7
6 6 -3 159.88 9.1
5 6 -3 25.7 3.6
5 6 -3 26.8 4.2
4 6 -3 80.49 5.5
4 6 -3 90.59 6.7
3 6 -3 73.79 4.9
3 6 -3 74.29 6.2
2 6 -3 16.7 3.5
1 6 -3 13.4 3.3
0 6 -3 82.99 7
-1 6 -3 0.2 1.8
1 -6 3 1.7 2.2
-2 6 -3 128.09 9.3
2 -6 3 114.49 9.7
-3 6 -3 10.9 3.8
3 -6 3 9.2 4.2
8 5 -3 2.2 2.2
7 5 -3 1710.93 62.39
6 5 -3 291.87 13.6
5 5 -3 4.8 1.9
5 5 -3 2 1.4
4 5 -3 3638.54 124.69
4 5 -3 3570.54 125.99
3 5 -3 530.35 21.9
3 5 -3 519.65 20.3
2 5 -3 52.39 3.6
2 5 -3 54.09 4.7
1 5 -3 3319.97 116.49
0 5 -3 694.83 28.8
0 -5 3 739.83 28.9
-1 5 -3 464.65 21.1
1 -5 3 505.95 21.4
-2 5 -3 1238.38 47.6
2 -5 3 1247.18 47.9
-3 5 -3 373.16 18
3 -5 3 363.46 18.6
4 -5 3 640.64 29.2
8 4 -3 36.2 4.8
7 4 -3 83.69 6.1
6 4 -3 129.89 7.6
5 4 -3 17.9 3.7
5 4 -3 17.7 2.8
4 4 -3 121.59 6.4
4 4 -3 114.79 7
3 4 -3 138.39 7.6
3 4 -3 134.89 6.7
2 4 -3 31 3.8
2 4 -3 24.8 2.6
1 4 -3 19.7 2.2
1 4 -3 17.4 3
-1 -4 3 18.4 2.6
0 4 -3 2.1 1.4
0 -4 3 2.8 1.4
-1 4 -3 24.2 3.6
1 -4 3 28.3 3.8
-2 4 -3 14.6 2.9
2 -4 3 6.5 2.2
-3 4 -3 5.5 2.2
3 -4 3 11 3.1
4 -4 3 30.9 5.2
5 -4 3 18.8 4.6
8 3 -3 440.66 19.5
7 3 -3 41.6 4.8
6 3 -3 2520.85 88.69
5 3 -3 394.96 16.3
4 3 -3 34.9 3
4 3 -3 34.3 4.3
3 3 -3 6777.52 224.38
3 3 -3 6403.46 225.18
2 3 -3 370.46 15.3
2 3 -3 372.66 14.3
1 3 -3 29.3 2.8
-1 -3 3 29.5 2.3
0 3 -3 7941.01 257.37
0 3 -3 6683.63 256.47
0 -3 3 8007.6 256.37
-1 3 -3 80.19 5.2
1 -3 3 80.79 5.1
-2 3 -3 108.99 6.5
2 -3 3 100.19 6.4
-3 3 -3 3504.15 120.99
3 -3 3 3438.16 121.79
4 -3 3 52.59 6.1
5 -3 3 571.34 25.8
6 -3 3 974.8 41
8 2 -3 128.59 8.2
7 2 -3 65.09 5.2
6 2 -3 393.26 16.5
6 2 -3 390.76 16.5
5 2 -3 36.5 3
5 2 -3 37.5 3.8
4 2 -3 496.05 17.8
4 2 -3 483.25 18.5
-4 -2 3 437.76 20
3 2 -3 478.65 16.8
3 2 -3 454.05 19.3
3 2 -3 466.95 17.8
2 2 -3 313.67 12.4
2 2 -3 324.97 13.3
1 2 -3 930.81 33
1 2 -3 938.51 33.8
0 2 -3 3.8 1.1
0 2 -3 5.4 1.3
0 -2 3 5.3 1
-1 2 -3 124.89 6.3
1 -2 3 125.49 6
-2 2 -3 1472.55 53.19
2 -2 3 1552.74 51.69
2 -2 3 1481.25 53.49
4 -2 3 56.99 5.1
5 -2 3 478.75 21.7
6 -2 3 232.78 13.8
7 -2 3 79.99 9.4
7 1 -3 70.09 6
7 1 -3 68.89 5.3
6 1 -3 446.56 19
6 1 -3 453.15 18.5
5 1 -3 218.98 10.2
5 1 -3 213.88 9.9
4 1 -3 37.4 3
4 1 -3 35.4 2.9
-4 -1 3 42.8 3.5
3 1 -3 108.59 5.1
3 1 -3 104.79 5.3
-3 -1 3 110.19 6.5
2 1 -3 1036.3 34.9
2 1 -3 1028.7 34.2
-2 -1 3 887.81 36.7
1 1 -3 139.49 5.9
1 1 -3 134.69 6.7
0 1 -3 6.9 1.5
0 1 -3 7.2 1.3
-1 1 -3 1015.4 36
2 -1 3 4.8 0.9
-3 1 -3 126.99 6.1
3 -1 3 127.09 6.9
3 -1 3 128.49 5.6
4 -1 3 1202.68 44.6
4 -1 3 1202.18 42.3
5 -1 3 25.7 3.8
6 -1 3 0.9 1.9
7 -1 3 464.05 22.7
7 0 -3 135.19 9.2
6 0 -3 15.7 3.2
5 0 -3 119.09 7.3
5 0 -3 125.39 6.6
4 0 -3 21 2.5
4 0 -3 18.9 2.6
-4 0 3 25.2 2.8
3 0 -3 26.4 2.2
3 0 -3 30.2 2.6
2 0 -3 5.1 1.1
2 0 -3 4.4 1
-2 0 3 4.2 1.2
1 0 -3 55.69 3.1
-1 0 3 59.29 4.1
0 0 3 28.6 2.7
-1 0 -3 67.39 3.7
-2 0 -3 67.39 3.3
2 0 3 59.99 3.2
-3 0 -3 189.48 7.6
3 0 3 189.88 7.9
4 0 3 1041.1 37
5 0 3 129.09 7.9
5 0 3 121.89 6.3
6 0 3 86.59 7
7 0 3 700.83 30
8 0 3 27.5 5.6
7 -1 -3 326.97 17
6 -1 -3 4.8 2.3
5 -1 -3 531.75 22.4
4 -1 -3 1017.5 39.3
4 -1 -3 1096.79 37.9
3 -1 -3 138.69 6.4
3 -1 -3 146.69 7.4
-3 1 3 137.99 7
2 -1 -3 10.9 1.8
2 -1 -3 11.1 1.5
-2 1 3 8.3 1.5
1 -1 -3 322.97 13
1 -1 -3 332.87 12.9
-1 1 3 317.07 12.8
0 1 3 129.89 5.9
1 1 3 356.76 13.5
2 1 3 53.89 2.8
2 1 3 49 2.8
3 1 3 247.68 10
4 1 3 344.97 13.7
5 1 3 17.6 2.4
6 1 3 339.37 14.4
7 1 3 186.18 9.6
7 1 3 183.68 11.2
8 1 3 27.3 5
6 -2 -3 149.79 10.4
5 -2 -3 1203.68 46.3
4 -2 -3 58.59 5.3
-4 2 3 56.89 4.6
3 -2 -3 85.19 5.8
-3 2 3 77.39 5.1
2 -2 -3 3289.47 121.99
2 -2 -3 3707.93 123.09
-2 2 3 3665.23 122.59
1 -2 -3 15.8 2.4
-1 2 3 18.8 2.3
0 -2 -3 44.3 3.4
0 2 3 39.5 2.9
1 2 3 3745.43 129.99
1 2 3 3869.31 129.49
2 2 3 25.8 1.9
3 2 3 134.99 5.3
4 2 3 2571.84 88.99
5 2 3 11.4 2.1
6 2 3 645.84 25
7 2 3 415.06 17.8
8 2 3 168.38 9.5
8 2 3 156.38 10.6
6 -3 -3 122.39 10
5 -3 -3 30.7 5.4
4 -3 -3 18.1 3.9
-4 3 3 7.3 2.3
3 -3 -3 652.43 26.7
-3 3 3 656.43 26
2 -3 -3 78.49 5.9
-2 3 3 66.79 5
1 -3 -3 0.7 1.5
-1 3 3 2.1 1.1
0 -3 -3 659.53 25.9
0 3 3 643.54 25.1
0 3 3 689.53 23.5
1 3 3 301.77 11.6
1 3 3 314.47 12.7
2 3 3 158.78 7.4
2 3 3 166.98 7.1
3 3 3 5.9 1.4
3 3 3 4.4 1
4 3 3 127.19 5.4
4 3 3 130.79 6.5
5 3 3 137.39 7.2
6 3 3 -0.9 1.2
7 3 3 85.69 6.1
8 3 3 111.59 7.7
9 3 3 19.5 4
9 3 3 23.4 4.7
5 -4 -3 387.96 20.4
4 -4 -3 2221.18 83.29
-4 4 3 2293.27 81.99
3 -4 -3 245.58 13.6
-3 4 3 242.68 12.7
2 -4 -3 587.54 25.5
-2 4 3 613.24 24.7
1 -4 -3 5403.16 187.58
-1 4 3 5423.56 186.58
0 -4 -3 7.9 2.5
0 4 3 9 2.3
1 4 3 817.62 31.1
1 4 3 829.62 29.1
2 4 3 7330.37 247.48
2 4 3 7253.97 248.78
3 4 3 176.28 8.3
3 4 3 176.08 8
4 4 3 1666.43 57.89
4 4 3 1639.14 58.49
5 4 3 4422.16 152.28
6 4 3 359.76 15.7
7 4 3 841.12 32.7
8 4 3 1246.88 47.2
9 4 3 118.89 9
9 4 3 97.59 7.9
4 -5 -3 1.6 3.3
-4 5 3 2.7 2.5
3 -5 -3 1.2 3.2
-3 5 3 -1 1.6
2 -5 -3 46.1 6.7
-2 5 3 65.39 6.9
1 -5 -3 2.2 2.6
-1 5 3 0.8 1.5
0 -5 -3 101.99 7.8
0 5 3 96.19 6.9
1 5 3 115.29 7.3
2 5 3 0 1
2 5 3 0.3 0.7
3 5 3 108.79 6.6
3 5 3 113.39 5.9
4 5 3 328.07 14
5 5 3 318.77 14.1
6 5 3 4.1 1.9
7 5 3 113.19 7.6
8 5 3 351.16 16.9
9 5 3 1 2.1
3 -6 -3 315.77 19.1
-3 6 3 327.47 17.6
2 -6 -3 265.27 16.2
-2 6 3 263.17 14.8
1 -6 -3 767.72 33.5
-1 6 3 777.42 32.3
0 6 3 748.13 31
1 6 3 83.89 6.8
2 6 3 461.55 20.5
3 6 3 2232.88 80.19
4 6 3 27.7 3.3
4 6 3 25.8 3.8
5 6 3 453.85 18.9
6 6 3 1566.04 57.29
7 6 3 57.69 6
8 6 3 236.98 13.1
2 -7 -3 20 6.1
-2 7 3 20.4 4.9
1 -7 -3 47.2 7.9
-1 7 3 43.4 6.7
0 7 3 0.2 2
1 7 3 171.38 11.3
2 7 3 37.8 5.8
3 7 3 45.1 5.9
4 7 3 259.87 13.6
5 7 3 5.5 2.1
6 7 3 371.66 17
7 7 3 11.2 3
8 7 3 3.4 2.5
0 8 3 128.19 10.7
1 8 3 30.8 6.1
2 8 3 286.07 16.4
3 8 3 72.79 8.5
4 8 3 22.1 4.6
6 8 3 2.3 2.1
7 8 3 194.18 11.5
3 9 3 295.17 17.4
4 9 3 0.4 2.5
6 8 -4 100.69 7.3
5 8 -4 43.7 6.6
4 8 -4 -2 1.7
3 8 -4 54.19 7.3
2 8 -4 1 2.6
1 8 -4 64.19 8.5
7 7 -4 266.97 13.9
6 7 -4 44.7 5.2
5 7 -4 2486.25 89.19
5 7 -4 2395.56 86.69
4 7 -4 178.48 11.2
3 7 -4 13 3.6
2 7 -4 2564.94 93.49
1 7 -4 189.58 12.2
0 7 -4 48.8 6.9
-1 7 -4 1457.65 57.09
8 6 -4 246.28 13.5
7 6 -4 28.5 4.3
6 6 -4 77.29 6.1
5 6 -4 273.57 14.4
5 6 -4 279.97 13.1
4 6 -4 32 4.7
4 6 -4 30.1 3.7
3 6 -4 446.96 18.1
3 6 -4 435.36 20
2 6 -4 168.38 10.2
1 6 -4 12 3.3
0 6 -4 668.63 28.5
-1 6 -4 -1.2 1.7
-2 6 -4 76.89 8.5
-3 6 -4 358.76 18.4
3 -6 4 326.67 18.5
8 5 -4 114.49 8.2
7 5 -4 190.78 10.6
6 5 -4 8.8 2.5
5 5 -4 41 5.3
5 5 -4 31.3 4.1
4 5 -4 961.9 36
4 5 -4 977.2 37.6
3 5 -4 91.09 5.6
3 5 -4 99.79 6.8
2 5 -4 24.5 3.8
1 5 -4 1231.88 46.4
0 5 -4 7.1 2.4
-1 5 -4 69.79 6.1
1 -5 4 71.39 6.2
-2 5 -4 602.04 25.8
2 -5 4 603.94 26.1
-3 5 -4 15.1 3.8
3 -5 4 16.3 3.9
4 -5 4 11.6 3.9
8 4 -4 6.7 2.4
7 4 -4 27.6 4
6 4 -4 53.99 5.5
5 4 -4 57.49 6.5
5 4 -4 38.5 4.2
4 4 -4 88.09 5.5
4 4 -4 89.09 6.4
3 4 -4 125.39 6.7
3 4 -4 132.99 7.7
2 4 -4 43 4
2 4 -4 47.4 3.4
1 4 -4 15.9 2.2
1 4 -4 19 3
-1 -4 4 15.5 2.4
0 4 -4 33.9 4.2
0 -4 4 48.6 3.9
-1 4 -4 310.17 14.4
1 -4 4 308.47 14
-2 4 -4 433.66 19.1
2 -4 4 444.66 19.4
-3 4 -4 6.6 2.3
3 -4 4 8.1 2.7
4 -4 4 165.88 11.1
5 -4 4 429.46 21.8
8 3 -4 4.4 2.2
7 3 -4 450.95 19.5
6 3 -4 215.78 10.8
5 3 -4 3.8 1.5
4 3 -4 446.36 17.9
4 3 -4 452.45 19.9
3 3 -4 380.06 16.2
3 3 -4 365.66 14.9
2 3 -4 3.9 1.5
2 3 -4 7.4 1.5
1 3 -4 48.7 3.8
1 3 -4 43 3
-1 -3 4 38.6 2.5
0 3 -4 0.8 1.1
0 3 -4 2.4 1.3
0 -3 4 0.4 0.7
-1 3 -4 8.4 2
1 -3 4 12.2 2.2
-2 3 -4 266.97 12.6
2 -3 4 279.77 12.7
-3 3 -4 2.5 1.7
3 -3 4 1.1 1.6
4 -3 4 24.7 4.2
5 -3 4 299.17 16.3
6 -3 4 -0.3 2.4
8 2 -4 14.7 3.2
7 2 -4 861.81 33.4
6 2 -4 121.69 7.2
5 2 -4 104.19 6
5 2 -4 91.39 5.8
4 2 -4 2594.24 87.19
4 2 -4 2606.04 88.29
-4 -2 4 2392.96 90.59
3 2 -4 5.3 1.3
3 2 -4 8.8 1
3 2 -4 1.9 1.4
2 2 -4 263.17 11
2 2 -4 281.47 12.3
1 2 -4 3281.07 111.19
1 2 -4 3197.88 111.99
0 2 -4 225.28 9.7
0 2 -4 182.78 9.8
0 -2 4 222.98 8.4
-1 2 -4 290.57 12.4
1 -2 4 294.57 11.9
-2 2 -4 1116.99 40.4
2 -2 4 1108.89 40.4
-3 2 -4 478.25 20.1
3 -2 4 547.15 21.1
4 -2 4 529.85 22.6
5 -2 4 259.67 14.1
6 -2 4 236.88 14.1
7 1 -4 22.7 3.5
6 1 -4 328.97 15.2
6 1 -4 357.56 15.1
5 1 -4 287.07 12.7
5 1 -4 298.27 12.9
4 1 -4 16 2.4
-4 -1 4 15.9 2.9
3 1 -4 126.29 6.2
3 1 -4 125.39 5.7
-3 -1 4 134.49 7.9
2 1 -4 842.32 29.5
2 1 -4 870.71 30.5
-2 -1 4 818.62 32.8
1 1 -4 69.89 3.9
1 1 -4 60.19 4.5
0 1 -4 102.59 5.5
-1 1 -4 64.49 3.9
-2 1 -4 31.1 2.5
-3 1 -4 75.49 4.4
3 -1 4 71.59 3.9
4 -1 4 11.2 1.7
4 -1 4 8.4 2.2
5 -1 4 134.49 8.8
6 -1 4 44.3 5.9
7 -1 4 2.5 2.7
7 0 -4 114.89 8.3
6 0 -4 2493.15 88.89
5 0 -4 341.87 14.3
5 0 -4 330.97 14.9
4 0 -4 564.94 22
4 0 -4 567.44 21.6
3 0 -4 7644.34 261.27
3 0 -4 7414.06 261.37
-3 0 4 8014.6 262.47
2 0 -4 4.2 1.1
2 0 -4 2.6 0.9
-2 0 4 9.3 2.1
1 0 -4 515.95 18.7
-1 0 4 451.15 19.7
0 0 4 9831.32 334.97
-1 0 -4 6.5 1.6
-2 0 -4 249.28 10.4
-3 0 -4 6424.36 223.08
3 0 4 6712.13 223.08
4 0 4 7.4 1.5
5 0 4 1186.98 42.6
6 0 4 1525.25 57.29
7 0 4 2.9 2.5
8 0 4 836.82 36.3
7 -1 -4 126.69 9.7
6 -1 -4 84.39 7.1
5 -1 -4 74.19 5.9
4 -1 -4 95.39 5.3
4 -1 -4 90.79 6.1
-4 1 4 85.79 5.7
3 -1 -4 88.99 5.5
3 -1 -4 84.29 4.8
-3 1 4 87.99 5.4
2 -1 -4 215.78 9.8
2 -1 -4 226.68 9.6
-2 1 4 216.78 9.9
1 -1 -4 145.79 6.8
1 -1 -4 130.09 7.3
-1 1 4 141.19 7
0 1 4 0.9 0.8
1 1 4 523.65 19.9
2 1 4 444.76 17.3
2 1 4 475.05 17.1
3 1 4 287.37 10.7
3 1 4 235.98 10.1
4 1 4 62.39 3.9
5 1 4 452.15 17.9
6 1 4 206.08 9.9
7 1 4 39.3 4.4
7 1 4 34 5.3
8 1 4 44.2 6.6
6 -2 -4 425.56 20.6
5 -2 -4 729.13 30.2
4 -2 -4 198.68 10.8
-4 2 4 191.48 10.1
3 -2 -4 847.32 32.2
-3 2 4 824.72 31.6
2 -2 -4 2041.1 67.49
2 -2 -4 1646.64 66.69
-2 2 4 1979.9 66.99
1 -2 -4 58.19 4.3
-1 2 4 55.49 4
0 2 4 262.47 11.1
1 2 4 3179.98 109.19
2 2 4 133.09 6.1
2 2 4 140.99 6.2
3 2 4 11.6 1.8
3 2 4 10.3 1.3
4 2 4 3827.52 131.39
5 2 4 36.7 3.8
6 2 4 101.49 6.2
7 2 4 1463.65 53.39
8 2 4 3.1 2.5
8 2 4 2.3 2
6 -3 -4 167.68 12.1
5 -3 -4 46.1 6.4
4 -3 -4 1 2.3
-4 3 4 5 1.9
3 -3 -4 85.99 6.9
-3 3 4 92.69 6.4
2 -3 -4 60.59 5.3
-2 3 4 61.99 4.9
1 -3 -4 132.89 8
-1 3 4 140.29 7.5
0 3 4 239.88 10.8
1 3 4 204.78 8.8
1 3 4 236.68 9.9
2 3 4 485.05 18.3
2 3 4 493.05 18.7
3 3 4 354.26 14.1
3 3 4 354.76 13.7
4 3 4 705.63 26.1
4 3 4 687.03 24.7
5 3 4 71.39 4.8
6 3 4 265.07 12.3
7 3 4 952.6 36.3
8 3 4 3.5 2.1
5 -4 -4 388.36 20.6
4 -4 -4 137.99 10.3
-4 4 4 148.09 9.6
3 -4 -4 122.79 9.4
-3 4 4 139.59 8.8
2 -4 -4 342.97 16.8
-2 4 4 334.47 15.6
1 -4 -4 85.99 7
-1 4 4 81.59 6
0 4 4 136.39 7.8
1 4 4 7.4 1.3
1 4 4 8.3 2
2 4 4 21 3
2 4 4 23.4 2.5
3 4 4 325.47 13.5
3 4 4 322.17 13.2
4 4 4 73.19 4.2
5 4 4 231.58 10.9
6 4 4 342.47 15.2
7 4 4 31.3 4.3
8 4 4 395.36 18.2
9 4 4 193.78 11.5
4 -5 -4 -5.7 2.9
-4 5 4 -0.8 2.2
3 -5 -4 57.49 7.9
-3 5 4 48.2 6.5
2 -5 -4 462.05 22.1
-2 5 4 459.75 21
1 -5 -4 3.4 3.1
-1 5 4 4.8 2.4
0 5 4 13.9 3
1 5 4 912.21 35.2
2 5 4 2.7 1.6
2 5 4 2.1 1
3 5 4 53.39 4.5
3 5 4 54.19 3.8
4 5 4 543.35 21
4 5 4 516.55 20.9
5 5 4 52.59 4.4
6 5 4 11.3 2.6
7 5 4 237.98 12.2
8 5 4 275.57 14.2
3 -6 -4 356.16 20.5
-3 6 4 360.86 19
2 -6 -4 64.09 8.6
-2 6 4 53.29 6.9
1 -6 -4 4.6 3.5
-1 6 4 2.6 2.3
0 6 4 568.54 25
1 6 4 391.56 18.4
2 6 4 68.19 5.9
3 6 4 68.59 5.7
3 6 4 62.79 4.4
4 6 4 472.25 19
4 6 4 459.15 19.8
5 6 4 238.38 11.6
6 6 4 44.7 4.9
7 6 4 500.15 21.8
8 6 4 80.09 8
-1 7 4 1530.35 59.49
0 7 4 8.2 3.1
1 7 4 527.95 24.4
2 7 4 2367.96 86.59
3 7 4 317.37 16.2
4 7 4 419.66 19.3
5 7 4 1536.55 55.99
6 7 4 335.17 15.8
7 7 4 309.57 15.5
8 7 4 807.42 33.4
0 8 4 7.5 3.8
1 8 4 18.5 4.8
2 8 4 17.4 4.7
3 8 4 1.5 2.4
4 8 4 8.5 3.2
6 8 4 20 3.6
7 8 4 58.89 6.7
3 9 4 1087.69 45.7
4 9 4 125.19 10.1
5 8 -5 36.5 6
4 8 -5 2.2 2.4
3 8 -5 13 4
2 8 -5 43.7 6.8
1 8 -5 38.5 6.7
7 7 -5 22.2 4
6 7 -5 97.19 7.2
5 7 -5 24.5 4.8
4 7 -5 98.49 8.2
3 7 -5 24.5 4.7
2 7 -5 4.7 2.7
1 7 -5 57.09 7.4
0 7 -5 113.09 9.2
-1 7 -5 6.3 3
7 6 -5 6 2.5
6 6 -5 1007.1 38.8
5 6 -5 305.97 16
5 6 -5 302.67 14.2
4 6 -5 26.6 4.7
4 6 -5 31.8 3.8
3 6 -5 1060.99 41.3
3 6 -5 1038.5 39
2 6 -5 404.76 19.1
1 6 -5 296.57 15.3
0 6 -5 650.23 28
-1 6 -5 418.16 20.2
-2 6 -5 547.25 25.2
8 5 -5 240.78 13.1
7 5 -5 176.08 10.3
6 5 -5 43.2 5
5 5 -5 171.58 9.2
5 5 -5 164.48 10.6
4 5 -5 201.28 11.4
4 5 -5 201.78 10.1
3 5 -5 16.7 2.6
3 5 -5 12.4 2.9
2 5 -5 5.1 1.6
2 5 -5 3.8 1.9
1 5 -5 43.4 5.3
0 5 -5 7.7 2.5
-1 5 -5 116.79 8.2
-2 5 -5 9.6 3
2 -5 5 10.7 3.3
-3 5 -5 82.49 7.2
3 -5 5 76.09 7.3
4 -5 5 19.2 4.9
8 4 -5 1363.96 51.59
7 4 -5 665.63 27.2
6 4 -5 1.6 1.6
5 4 -5 4453.15 147.19
5 4 -5 4035.4 149.88
4 4 -5 307.07 13.4
4 4 -5 300.17 15
3 4 -5 92.49 5.7
3 4 -5 101.09 6.9
2 4 -5 6142.39 205.78
2 4 -5 5894.71 207.28
0 4 -5 759.32 29.7
0 -4 5 746.43 28.4
-1 4 -5 4177.88 146.99
1 -4 5 4263.57 146.29
-2 4 -5 82.19 6.3
2 -4 5 71.99 6.1
-3 4 -5 652.23 27.7
3 -4 5 694.73 28.6
4 -4 5 1346.27 52.59
5 -4 5 84.79 9.8
8 3 -5 136.69 8.9
7 3 -5 6.3 2.4
6 3 -5 41.7 4.5
5 3 -5 282.77 12.9
-5 -3 5 292.27 15.3
4 3 -5 92.59 7.3
4 3 -5 90.69 5.6
3 3 -5 332.27 13.9
3 3 -5 335.47 15.5
2 3 -5 116.39 6.2
2 3 -5 123.19 7.3
1 3 -5 194.98 8.8
1 3 -5 169.68 9.1
-1 -3 5 175.38 7.1
0 3 -5 307.07 14.2
0 -3 5 342.27 13.1
-1 3 -5 22.6 3.4
1 -3 5 24.3 3.1
-2 3 -5 108.69 6.8
2 -3 5 105.29 6.7
-3 3 -5 422.26 18.3
3 -3 5 423.26 18.9
4 -3 5 24.3 4.4
5 -3 5 129.29 9.9
6 -3 5 149.79 11.6
8 2 -5 84.79 6.7
7 2 -5 691.23 27.8
6 2 -5 439.86 18.6
5 2 -5 94.39 5.9
4 2 -5 2654.93 92.09
-4 -2 5 2627.44 95.19
3 2 -5 45.7 2.8
3 2 -5 42.1 3.4
-3 -2 5 48.2 5.8
2 2 -5 88.19 5
2 2 -5 88.89 6.2
1 2 -5 6395.76 219.78
1 2 -5 6484.65 220.68
0 2 -5 136.19 7.2
0 -2 5 131.29 5.8
-1 2 -5 122.69 6.8
1 -2 5 127.39 6.2
-2 2 -5 3106.39 107.89
2 -2 5 3103.89 107.79
-3 2 -5 21.6 3.1
3 -2 5 18 3
4 -2 5 33.8 4.7
5 -2 5 1318.47 50.79
6 -2 5 26.5 5.1
7 1 -5 105.29 7.1
6 1 -5 26.3 3.7
4 1 -5 323.67 13.2
4 1 -5 322.97 13.6
-4 -1 5 315.77 15.2
3 1 -5 31.5 2.4
3 1 -5 24.7 2.9
-3 -1 5 25.9 4
2 1 -5 515.25 19.8
2 1 -5 523.55 18.8
-2 -1 5 514.15 22.4
1 1 -5 73.99 5.6
1 1 -5 75.69 4.8
0 1 -5 0.9 0.8
-1 1 -5 1156.28 41.8
-2 1 -5 292.37 12.4
-3 1 -5 98.59 5.7
3 -1 5 102.29 5.1
4 -1 5 795.52 29.2
4 -1 5 810.42 31.6
5 -1 5 756.02 31
6 -1 5 74.59 7.1
7 -1 5 210.58 13.7
7 0 -5 353.36 17.3
6 0 -5 58.09 5.4
5 0 -5 83.39 6
5 0 -5 91.49 5.7
4 0 -5 384.56 15.7
4 0 -5 368.86 15.8
-4 0 5 389.46 16.5
3 0 -5 32.5 3.4
3 0 -5 33.9 3.1
-3 0 5 48.9 4.4
2 0 -5 166.38 8
-2 0 5 171.38 9.4
1 0 -5 573.64 21.3
-1 0 5 479.45 21.7
0 0 5 165.58 9.2
-2 0 -5 180.68 8.7
-3 0 -5 284.97 11.9
3 0 5 274.07 11.3
4 0 5 80.79 4.7
5 0 5 322.47 13.5
6 0 5 234.38 13.1
7 0 5 198.38 12.7
7 -1 -5 113.39 9
6 -1 -5 4 2.4
5 -1 -5 35.6 4.8
4 -1 -5 332.67 13.7
4 -1 -5 301.87 14.2
-4 1 5 307.87 14.3
3 -1 -5 5.3 1.8
3 -1 -5 3.3 1.3
-3 1 5 5.3 1.7
2 -1 -5 34.5 3.8
2 -1 -5 44.4 3.7
-2 1 5 38.1 3.5
1 -1 -5 1226.38 44.4
-1 1 5 1259.87 45.5
0 1 5 10 2.1
1 1 5 151.08 7.7
2 1 5 339.17 14.1
3 1 5 280.67 10.7
3 1 5 226.68 10.6
4 1 5 35.2 3
5 1 5 11.1 2.1
6 1 5 628.44 24.5
7 1 5 110.39 6.9
7 1 5 100.59 8.3
8 1 5 13.3 4.1
6 -2 -5 165.08 11.2
5 -2 -5 480.65 21.8
4 -2 -5 32.4 4.4
-4 2 5 37.5 4.6
3 -2 -5 56.99 5.8
3 -2 -5 54.39 4.9
-3 2 5 53.39 4.7
2 -2 -5 494.25 20.2
-2 2 5 479.45 19.9
1 -2 -5 169.18 8.5
-1 2 5 144.89 7.9
0 2 5 6.5 1.7
1 2 5 697.53 26
2 2 5 449.86 16.9
2 2 5 427.66 16.7
3 2 5 297.07 11.4
3 2 5 283.37 11.8
4 2 5 7.1 1.6
5 2 5 428.56 17.4
6 2 5 227.28 10.8
7 2 5 30.1 4.1
8 2 5 443.76 21.9
8 2 5 465.45 20
5 -3 -5 91.39 8.2
4 -3 -5 312.57 16.1
-4 3 5 311.97 15.2
3 -3 -5 2814.52 99.89
-3 3 5 2777.22 98.99
2 -3 -5 7.3 2.8
-2 3 5 6.6 2.3
1 -3 -5 697.93 27.2
-1 3 5 662.13 26.5
0 3 5 6367.46 217.98
1 3 5 301.67 12.1
1 3 5 310.97 13.1
2 3 5 802.52 29
2 3 5 791.12 29.4
3 3 5 4244.58 145.79
3 3 5 4264.97 145.49
4 3 5 217.08 9.5
5 3 5 508.55 20.2
6 3 5 1055.29 39.3
7 3 5 14.4 3
8 3 5 616.04 25.6
5 -4 -5 12.1 4.6
4 -4 -5 4.2 3.5
-4 4 5 4.5 2.5
3 -4 -5 27.7 5.2
-3 4 5 32.1 4.8
2 -4 -5 121.89 9
-2 4 5 125.89 8.1
1 -4 -5 40.1 5.4
-1 4 5 41.6 5
0 4 5 6.1 2
0 4 5 3.7 1.5
1 4 5 4.4 1.7
1 4 5 4.8 1.2
2 4 5 37.3 3.5
2 4 5 27.4 2.8
3 4 5 0.7 0.8
3 4 5 0.3 0.9
4 4 5 1 0.8
4 4 5 1.3 1
5 4 5 76.59 5.2
6 4 5 11.1 2.4
7 4 5 18.1 3.3
8 4 5 74.69 7.2
4 -5 -5 157.68 12.9
-4 5 5 178.18 11.6
3 -5 -5 843.32 36.3
-3 5 5 832.32 34.8
2 -5 -5 1646.64 64.29
-2 5 5 1741.53 63.39
1 -5 -5 43.4 6.1
-1 5 5 38.2 5.2
0 5 5 1172.18 44.6
1 5 5 3531.35 123.79
3 5 5 805.72 29.6
3 5 5 783.72 30.5
4 5 5 3582.74 123.49
4 5 5 3545.75 123.49
5 5 5 349.67 15.3
6 5 5 359.06 16.1
7 5 5 1624.14 59.69
8 5 5 275.77 14.1
3 -6 -5 256.87 16.9
-3 6 5 252.57 15.2
2 -6 -5 3.2 3.4
-2 6 5 4.3 3
-1 6 5 152.08 10.4
0 6 5 60.49 6.8
1 6 5 76.99 6.8
2 6 5 255.87 13.4
3 6 5 83.09 5.2
3 6 5 78.39 6.4
4 6 5 442.76 18.2
4 6 5 434.96 18.9
5 6 5 157.38 8.8
6 6 5 85.89 6.5
7 6 5 471.85 20.9
8 6 5 8.5 2.9
-1 7 5 39.7 6.6
0 7 5 104.69 9
1 7 5 343.27 17.8
2 7 5 190.98 11.9
3 7 5 69.09 6.6
4 7 5 107.39 7.9
5 7 5 475.25 20.2
6 7 5 56.09 6.2
7 7 5 62.09 6.7
8 7 5 479.15 22.1
0 8 5 38.8 6.9
1 8 5 78.19 9.4
2 8 5 24.6 5.4
3 8 5 213.58 13.5
4 8 5 168.68 11.2
6 8 5 32.1 4.7
7 8 5 78.69 8
4 9 5 323.97 18.3
5 8 -6 5 2.5
4 8 -6 1743.53 67.29
3 8 -6 343.57 18.8
2 8 -6 69.79 8.9
6 7 -6 39 5.3
5 7 -6 56.79 7.6
5 7 -6 84.09 6.5
4 7 -6 178.68 11.9
3 7 -6 32.2 5.4
2 7 -6 218.38 13.3
1 7 -6 11.1 3.6
0 7 -6 21.2 4.7
-1 7 -6 187.08 12.7
7 6 -6 2.7 2.1
6 6 -6 1159.68 44.3
5 6 -6 108.49 8.7
5 6 -6 110.19 7.5
4 6 -6 19.2 3.4
4 6 -6 19.9 4.3
3 6 -6 2084.89 76.99
3 6 -6 2092.69 74.69
2 6 -6 4 2.4
1 6 -6 7.3 2.8
0 6 -6 1430.16 54.89
-1 6 -6 7.4 3
-2 6 -6 26.3 5.2
8 5 -6 87.79 7.4
7 5 -6 52.49 6
6 5 -6 156.38 9.3
5 5 -6 2.5 1.5
5 5 -6 0.7 1.7
4 5 -6 176.78 9.6
4 5 -6 190.58 11.3
3 5 -6 62.99 5.8
3 5 -6 57.19 4.7
2 5 -6 32.2 4.8
2 5 -6 30.5 3.9
1 5 -6 384.66 18
0 5 -6 4.5 2.4
-1 5 -6 6.6 2.7
-2 5 -6 479.45 22
-3 5 -6 171.78 11.1
3 -5 6 160.78 14.7
8 4 -6 2.9 2.2
7 4 -6 1.6 1.6
6 4 -6 126.49 7.9
5 4 -6 27.8 3.9
-5 -4 6 20.1 4.4
4 4 -6 9.8 2.3
4 4 -6 6.6 2.6
3 4 -6 10 2.2
3 4 -6 11.3 3
2 4 -6 106.19 7.4
2 4 -6 112.49 6.6
1 4 -6 22.5 3.7
1 4 -6 26.6 3.9
0 4 -6 150.38 8.9
-1 4 -6 231.38 11.9
1 -4 6 218.48 11.1
-2 4 -6 0.9 1.6
2 -4 6 3.1 1.8
-3 4 -6 150.38 9.7
3 -4 6 163.58 10.2
4 -4 6 102.59 8.7
8 3 -6 11.4 3.2
7 3 -6 35.5 4.8
6 3 -6 325.67 15.1
5 3 -6 36.8 4.2
-5 -3 6 37.6 5.9
4 3 -6 1.4 1.4
-4 -3 6 1.8 1.9
3 3 -6 395.06 18.8
3 3 -6 420.86 16.9
2 3 -6 257.57 11.7
2 3 -6 265.57 13
1 3 -6 161.38 8.7
1 3 -6 160.48 9
0 3 -6 215.78 11
0 -3 6 224.88 9.5
-1 3 -6 252.47 12.4
1 -3 6 263.37 11.5
-2 3 -6 357.46 16.2
2 -3 6 366.56 16
-3 3 -6 40.7 4.9
3 -3 6 31.6 4.6
4 -3 6 434.26 20.5
5 -3 6 327.17 17.7
8 2 -6 292.37 14.8
7 2 -6 368.76 17
6 2 -6 65.19 6.2
4 2 -6 694.93 26.5
-4 -2 6 677.03 29.4
3 2 -6 44.7 3.6
-3 -2 6 42.3 5.8
2 2 -6 6.5 1.7
2 2 -6 4.1 2
1 2 -6 271.87 13
1 2 -6 275.07 12.6
0 2 -6 86.09 5.7
-1 2 -6 282.07 12.8
-2 2 -6 1.6 1.3
2 -2 6 2.6 1.4
-3 2 -6 142.29 7.9
3 -2 6 130.99 8
4 -2 6 282.57 14.3
5 -2 6 7.7 3
6 -2 6 342.27 18.7
7 1 -6 309.27 14.9
6 1 -6 118.69 7.5
4 1 -6 209.08 10
4 1 -6 207.78 9.4
-4 -1 6 200.18 11.6
3 1 -6 122.79 6.7
3 1 -6 119.89 6.1
-3 -1 6 125.79 8.7
2 1 -6 6372.66 210.78
-2 -1 6 5942.61 213.58
1 1 -6 8.3 2.1
-1 -1 6 5.6 2.1
0 1 -6 852.61 33
-1 1 -6 5075.49 174.68
-2 1 -6 7.5 1.9
-3 1 -6 1570.84 55.09
3 -1 6 1496.95 53.89
4 -1 6 2218.38 77.29
5 -1 6 0.6 1.8
6 -1 6 896.41 37.2
7 -1 6 184.18 12.9
6 0 -6 4.9 2.3
5 0 -6 41.4 4.5
5 0 -6 38.5 4.4
4 0 -6 188.98 9.7
4 0 -6 198.78 9.7
-4 0 6 202.48 10.8
3 0 -6 42.3 4.3
-3 0 6 50.89 6
2 0 -6 133.19 7.2
2 0 -6 123.09 6.4
-2 0 6 117.19 8
1 0 -6 192.88 10.1
-1 0 6 176.68 10.4
0 0 6 4.1 1.9
1 0 6 93.59 6.6
-2 0 -6 18.2 3
-3 0 -6 30.5 3.8
3 0 6 26.9 2.9
4 0 6 8.4 1.7
5 0 6 2.1 1.2
6 0 6 88.59 7.5
7 0 6 8.3 3.6
7 -1 -6 943.71 38.8
6 -1 -6 447.56 20.7
5 -1 -6 324.27 15.6
4 -1 -6 3424.46 118.99
4 -1 -6 3387.36 119.49
-4 1 6 3430.86 119.89
3 -1 -6 198.48 9.8
3 -1 -6 186.58 9.7
-3 1 6 185.38 10.1
2 -1 -6 628.94 24.2
2 -1 -6 612.24 25.2
-2 1 6 633.64 25.3
-1 1 6 7620.44 261.47
0 1 6 145.39 8.4
1 1 6 564.24 22.8
2 1 6 5406.06 185.88
3 1 6 105.69 5.2
3 1 6 70.79 5.2
4 1 6 1229.58 44.1
5 1 6 2827.22 98.39
6 1 6 128.49 7.4
7 1 6 418.16 18.1
8 1 6 586.64 27.6
6 -2 -6 0.4 2.5
5 -2 -6 214.38 12.6
4 -2 -6 63.19 5.8
-4 2 6 54.19 5.2
3 -2 -6 117.39 8
3 -2 -6 132.69 8.4
-3 2 6 133.39 8.2
2 -2 -6 561.84 23.1
-2 2 6 577.44 23.3
-1 2 6 46.1 4.2
0 2 6 485.75 19.7
1 2 6 960.2 35.5
2 2 6 277.57 11.9
3 2 6 256.57 10.7
3 2 6 251.17 10.9
4 2 6 392.66 15.9
5 2 6 738.13 28
6 2 6 118.29 7.1
7 2 6 211.98 10.9
8 2 6 522.05 22.4
5 -3 -6 261.87 15.3
4 -3 -6 517.55 23.7
-4 3 6 509.45 22.6
3 -3 -6 130.29 9
-3 3 6 131.89 8.6
2 -3 -6 183.68 10.7
-2 3 6 191.68 10.4
1 -3 -6 530.45 22.1
-1 3 6 509.25 21.5
0 3 6 477.65 19.8
1 3 6 23.5 3.2
2 3 6 35.6 2.9
2 3 6 36 3.3
3 3 6 1826.12 63.19
3 3 6 1769.22 63.19
4 3 6 15.9 2.4
5 3 6 4.3 1.6
6 3 6 868.41 33.1
7 3 6 45.3 5.2
8 3 6 -0.5 1.8
4 -4 -6 -2.2 2.7
-4 4 6 8.9 3.1
3 -4 -6 7.2 3.2
-3 4 6 3.1 2.2
2 -4 -6 27.3 5
-2 4 6 26.8 4.4
1 -4 -6 6.8 2.8
-1 4 6 2.1 2
0 4 6 13.3 2.9
2 4 6 7.5 1.6
2 4 6 13 2.5
3 4 6 248.38 11.3
4 4 6 65.89 4.3
4 4 6 62.89 4.6
5 4 6 10.4 2.3
6 4 6 756.02 29.5
7 4 6 0 1.6
8 4 6 6.7 2.4
4 -5 -6 65.79 9.2
-4 5 6 61.19 7.7
3 -5 -6 76.69 9.1
-3 5 6 104.29 8.3
2 -5 -6 257.37 15.3
-2 5 6 262.37 14.3
-1 5 6 260.47 13.9
0 5 6 7.3 2.5
1 5 6 103.49 7.2
2 5 6 697.53 25.9
2 5 6 680.43 27.6
3 5 6 2.4 1.6
3 5 6 1.7 1.2
4 5 6 0 1.1
4 5 6 3.5 1.6
5 5 6 392.36 17
6 5 6 143.99 8.5
7 5 6 192.78 10.7
8 5 6 390.96 18.4
2 -6 -6 4.4 3.8
-2 6 6 7.1 3.4
-1 6 6 125.69 9.4
0 6 6 1151.68 45.2
1 6 6 152.28 9.8
2 6 6 117.49 8.2
3 6 6 1469.55 52.39
3 6 6 1447.36 54.39
4 6 6 76.59 5.5
4 6 6 81.09 6.1
5 6 6 82.19 6.1
6 6 6 621.74 25.6
7 6 6 0.5 2
8 6 6 109.79 8.2
-1 7 6 142.59 10.9
0 7 6 119.99 9.8
1 7 6 20.6 4.7
2 7 6 46.9 6.5
3 7 6 178.38 11.1
4 7 6 47.7 6.1
5 7 6 -0.5 1.5
6 7 6 171.28 10.1
7 7 6 33.5 5
1 8 6 1285.37 51.99
2 8 6 153.18 11.3
3 8 6 701.73 31.1
4 8 6 1602.64 61.29
6 8 6 328.07 16
7 8 6 811.42 33.4
6 7 -7 5.3 2.4
5 7 -7 217.48 14.1
5 7 -7 217.28 12.1
4 7 -7 63.49 8
3 7 -7 25.7 5.3
2 7 -7 49.5 7
1 7 -7 295.47 16.7
0 7 -7 129.89 10.2
7 6 -7 192.28 11.6
6 6 -7 77.99 6.7
5 6 -7 -2.3 1.5
5 6 -7 1.4 1.8
4 6 -7 19 3.5
4 6 -7 18.3 4.5
3 6 -7 32.5 4.5
3 6 -7 37 5.8
2 6 -7 -0.2 1.9
1 6 -7 82.89 7.6
0 6 -7 2.2 2.5
-1 6 -7 25.5 5.1
-2 6 -7 100.29 8.8
7 5 -7 1282.07 49.1
6 5 -7 319.67 15.5
5 5 -7 92.99 8.5
5 5 -7 82.49 6.3
4 5 -7 2623.84 94.09
4 5 -7 2516.95 91.09
3 5 -7 269.07 14.6
3 5 -7 268.47 13
2 5 -7 139.29 9.5
2 5 -7 152.48 8.9
1 5 -7 2163.48 79.09
0 5 -7 287.37 15
-1 5 -7 580.54 25.5
-2 5 -7 803.22 33.5
-3 5 -7 124.99 9.4
7 4 -7 153.48 9.8
6 4 -7 167.18 9.8
5 4 -7 19.7 3.4
-5 -4 7 16.4 4.1
4 4 -7 165.58 11.3
4 4 -7 171.68 9.3
3 4 -7 102.49 6.6
3 4 -7 97.09 7.6
2 4 -7 23.4 3.5
2 4 -7 21.2 3.8
1 4 -7 34 4.9
1 4 -7 29.1 4.4
0 4 -7 28.4 4.4
-1 4 -7 75.19 6.4
-2 4 -7 7.1 2.7
2 -4 7 13.3 3.7
-3 4 -7 11.3 3.3
3 -4 7 6.7 2.7
4 -4 7 28.4 5.4
7 3 -7 47.9 5.7
6 3 -7 2660.53 94.69
5 3 -7 245.28 12.1
-5 -3 7 240.38 14.4
4 3 -7 111.19 6.9
-4 -3 7 108.09 8.9
3 3 -7 5318.37 182.08
3 3 -7 5254.97 185.18
2 3 -7 90.09 6.1
2 3 -7 96.09 7.2
1 3 -7 149.39 9.1
1 3 -7 155.18 9.2
0 3 -7 5186.78 179.68
-1 3 -7 15.6 3
1 -3 7 16 2.5
-2 3 -7 336.67 15.6
2 -3 7 319.67 14.7
-3 3 -7 2302.07 81.49
3 -3 7 2220.48 81.49
4 -3 7 -0.8 1.8
5 -3 7 557.14 26.2
7 2 -7 177.58 10.5
6 2 -7 221.28 11.6
5 2 -7 35.6 4.3
-5 -2 7 36.6 5.4
4 2 -7 299.07 13.3
-4 -2 7 270.37 15.4
3 2 -7 251.87 11.6
-3 -2 7 233.38 13.8
2 2 -7 388.46 19.1
2 2 -7 407.96 17.1
1 2 -7 780.12 31.9
1 2 -7 840.12 32.6
0 2 -7 1.9 1.2
-1 2 -7 510.45 21.3
-2 2 -7 862.21 33.3
-3 2 -7 281.07 13.4
3 -2 7 279.87 13.6
4 -2 7 102.39 7.8
5 -2 7 299.77 16
6 -2 7 281.07 16.6
7 1 -7 133.19 8.7
6 1 -7 306.87 14.7
5 1 -7 280.97 13.3
-5 -1 7 280.17 14.8
4 1 -7 85.89 5.8
-4 -1 7 78.29 7
3 1 -7 40.3 4.4
-3 -1 7 38.1 5.6
2 1 -7 1393.86 51.19
-2 -1 7 1411.96 53.99
1 1 -7 16.3 3.2
-1 -1 7 21.7 4.1
0 1 -7 6.6 2.2
-1 1 -7 1277.57 47.6
-2 1 -7 13.8 2.7
4 -1 7 1087.19 39.5
5 -1 7 16.3 3.8
6 -1 7 5.4 3
7 -1 7 466.55 23.7
5 0 -7 7.5 2.4
5 0 -7 8.4 2.4
-5 0 7 10.2 3.3
4 0 -7 0.3 1.2
4 0 -7 -0.1 1.4
-4 0 7 3 2.2
3 0 -7 -0.3 0.6
3 0 -7 2.3 1.4
-3 0 7 2.8 2
2 0 -7 22.2 3.6
-2 0 7 12.5 3.2
1 0 -7 44.1 5.5
-1 0 7 36.9 5.4
0 0 7 89.59 7
1 0 7 147.99 9.2
2 0 7 9.5 2.5
-3 0 -7 127.09 7.8
3 0 7 120.39 6.5
3 0 7 130.09 8
4 0 7 478.15 18.9
5 0 7 13.3 2.4
7 0 7 778.02 34.2
6 -1 -7 47.4 6.3
5 -1 -7 302.77 15.1
4 -1 -7 513.65 21.3
4 -1 -7 474.05 21.1
-4 1 7 509.95 22.1
3 -1 -7 281.97 13.9
3 -1 -7 288.17 13.4
-3 1 7 286.77 14.3
2 -1 -7 47.2 4.4
2 -1 -7 47.2 5.6
-2 1 7 57.69 5.3
-1 1 7 87.89 6.8
0 1 7 92.19 6.8
1 1 7 115.29 7.4
2 1 7 9.6 2.4
3 1 7 255.37 11.1
3 1 7 252.97 12.2
4 1 7 280.87 12.2
5 1 7 153.28 8.1
6 1 7 400.96 17.1
7 1 7 112.19 7.3
8 1 7 126.89 10.5
6 -2 -7 154.58 11.4
5 -2 -7 821.62 34.2
4 -2 -7 27.7 4.6
-4 2 7 37 5.3
3 -2 -7 98.69 7.3
-3 2 7 92.09 7.1
2 -2 -7 2115.09 76.69
-2 2 7 2174.78 77.49
-1 2 7 2.7 1.6
0 2 7 106.09 6.9
1 2 7 2513.15 88.69
2 2 7 85.19 5.6
3 2 7 537.75 21
3 2 7 544.25 21.2
4 2 7 826.32 30.8
5 2 7 3.7 1.7
6 2 7 408.56 17.5
7 2 7 213.68 11.1
8 2 7 105.29 7.5
5 -3 -7 4.7 3.5
4 -3 -7 35.8 5.8
-4 3 7 35 5.6
3 -3 -7 217.08 12.7
-3 3 7 228.48 12.5
2 -3 -7 129.39 8.9
-2 3 7 131.89 8.7
-1 3 7 113.49 7.6
0 3 7 414.36 18.1
1 3 7 380.86 16.6
2 3 7 45.6 4
2 3 7 39.2 3.3
3 3 7 5.9 1.6
3 3 7 4.5 1.5
4 3 7 371.76 15.5
5 3 7 110.09 6.6
6 3 7 91.39 6.3
7 3 7 157.68 9.1
8 3 7 26 4.1
4 -4 -7 1761.42 68.69
-4 4 7 1834.02 67.99
3 -4 -7 34.7 5.8
-3 4 7 42.8 5.9
2 -4 -7 715.63 30.2
-2 4 7 701.03 29.6
-1 4 7 3495.65 123.19
0 4 7 77.29 6.2
1 4 7 1057.69 40.8
1 4 7 1105.59 39.3
2 4 7 4584.04 154.88
2 4 7 4431.06 155.98
3 4 7 765.12 29.2
3 4 7 790.82 29.7
4 4 7 1010.7 37.1
4 4 7 987.3 37.3
5 4 7 2243.58 79.49
6 4 7 391.66 17.2
7 4 7 622.74 25.6
8 4 7 593.64 25.2
3 -5 -7 78.49 9.2
-3 5 7 76.09 8.6
2 -5 -7 124.99 10.1
-2 5 7 112.59 9
-1 5 7 20 4.2
0 5 7 253.27 13.5
1 5 7 47 5.6
2 5 7 39.3 4.9
2 5 7 35 3.6
3 5 7 92.99 6.5
3 5 7 90.49 5.7
4 5 7 58.49 4.7
4 5 7 52.79 5.1
5 5 7 125.59 7.6
6 5 7 18.6 3.4
7 5 7 74.49 6.2
8 5 7 210.58 12
-2 6 7 136.59 10.5
-1 6 7 782.02 33.4
0 6 7 869.71 35.9
1 6 7 2.1 2
2 6 7 652.23 27.6
3 6 7 1413.36 50.39
3 6 7 1368.56 52.19
4 6 7 119.89 7.9
4 6 7 129.89 7.5
5 6 7 169.68 9.5
6 6 7 1363.96 50.89
7 6 7 93.59 7.3
8 6 7 166.08 10.6
-1 7 7 53.89 7.7
0 7 7 37.1 6.2
1 7 7 216.08 13.5
2 7 7 10.8 3.4
3 7 7 154.38 10.4
4 7 7 137.29 9.3
5 7 7 3.5 2.1
6 7 7 463.85 20.7
7 7 7 26.2 4.5
1 8 7 1.9 2.6
2 8 7 207.98 13.8
3 8 7 96.69 8.8
4 8 7 31 5.7
6 8 7 3.3 2.5
5 7 -8 1690.63 63.19
5 7 -8 1677.33 66.49
4 7 -8 76.29 9.3
3 7 -8 16.3 4.4
2 7 -8 1846.62 70.79
1 7 -8 69.99 8.8
6 6 -8 117.59 8.6
5 6 -8 233.98 15.3
5 6 -8 230.48 12.8
4 6 -8 69.69 7
4 6 -8 71.19 8.7
3 6 -8 340.47 18.4
3 6 -8 359.86 17.1
2 6 -8 13.1 3.7
1 6 -8 96.09 8.3
0 6 -8 332.07 17.7
-1 6 -8 0.2 2.3
7 5 -8 119.59 8.8
6 5 -8 2.8 2.1
5 5 -8 2.5 2.5
5 5 -8 2.1 1.9
4 5 -8 651.03 29.6
4 5 -8 645.44 26.8
3 5 -8 6.8 2.3
3 5 -8 2.9 2.4
2 5 -8 75.19 7.1
2 5 -8 69.29 7.1
1 5 -8 1020.8 40.9
0 5 -8 0.6 1.9
-1 5 -8 89.09 7.7
-2 5 -8 547.15 25.1
7 4 -8 37.1 5.3
6 4 -8 7 2.6
5 4 -8 6.7 2.5
-5 -4 8 7.2 3.6
4 4 -8 3.8 2
4 4 -8 10.7 3.8
3 4 -8 17.5 3.3
3 4 -8 14.7 4.1
2 4 -8 -0.1 1.3
2 4 -8 2.3 1.9
1 4 -8 128.39 8.7
1 4 -8 116.89 8.7
0 4 -8 27.2 4.5
-1 4 -8 142.19 9.5
-2 4 -8 352.16 17.3
-3 4 -8 9.4 3.3
4 -4 8 99.89 8.8
7 3 -8 218.48 12.4
6 3 -8 213.88 11.8
5 3 -8 13.2 3
-5 -3 8 6 3.2
4 3 -8 27.5 3.9
-4 -3 8 41.6 6.6
3 3 -8 76.19 8.7
3 3 -8 76.89 5.9
2 3 -8 34.1 5.2
2 3 -8 43.2 5.1
1 3 -8 117.29 8.3
1 3 -8 115.49 8.4
0 3 -8 10.7 3
-1 3 -8 59.49 5.5
-2 3 -8 388.06 17.9
2 -3 8 379.66 16.8
-3 3 -8 118.29 8.2
3 -3 8 116.29 8.1
4 -3 8 130.29 9.5
5 -3 8 187.78 12.9
7 2 -8 473.85 21.5
6 2 -8 46.8 5.5
5 2 -8 79.49 6.1
-5 -2 8 72.79 8.2
4 2 -8 1272.07 48.1
-4 -2 8 1321.97 51.29
3 2 -8 191.58 10.3
-3 -2 8 206.78 12.9
2 2 -8 191.18 10.1
-2 -2 8 159.48 11
1 2 -8 2487.95 87.49
1 2 -8 2305.67 86.69
0 2 -8 142.79 9.1
-1 2 -8 414.46 18.7
-2 2 -8 851.51 33.6
-3 2 -8 157.88 9.5
3 -2 8 164.78 9.6
4 -2 8 839.32 34.4
5 -2 8 78.59 8.4
6 -2 8 101.99 9.5
7 1 -8 37.1 5.3
6 1 -8 149.39 9.4
5 1 -8 257.07 13.1
-5 -1 8 268.27 14.9
4 1 -8 191.08 10.2
-4 -1 8 171.38 11.6
3 1 -8 54.79 5.6
-3 -1 8 51.29 6.7
2 1 -8 113.99 7.8
-2 -1 8 133.19 9.7
1 1 -8 151.98 9.9
-1 -1 8 163.78 10.6
0 1 -8 6 2.4
0 -1 8 6.8 2.4
-1 1 -8 23.1 4.1
-2 1 -8 256.47 13.1
-3 1 -8 51.09 4.9
4 -1 8 37.7 3.9
5 -1 8 253.07 14.4
6 -1 8 14.3 4.1
5 0 -8 133.19 8.6
-5 0 8 131.79 9.4
4 0 -8 353.36 16.1
-4 0 8 323.57 17.1
3 0 -8 5674.33 192.88
-3 0 8 5461.35 194.98
2 0 -8 21.7 4
-2 0 8 27 4.7
-1 0 8 936.11 37.9
0 0 8 7583.44 262.17
1 0 8 97.29 7.7
2 0 8 890.71 35.7
3 0 8 3553.14 125.49
4 0 8 263.97 11.9
5 0 8 1091.59 40.4
7 0 8 41.2 6.5
5 -1 -8 36.3 5.3
-5 1 8 41 6.5
4 -1 -8 78.59 6.6
4 -1 -8 82.09 6.8
-4 1 8 72.29 6.9
3 -1 -8 192.68 10.5
3 -1 -8 189.18 11.5
-3 1 8 215.18 12.2
-2 1 8 491.55 22.5
-1 1 8 141.69 9.6
0 1 8 2.9 2
1 1 8 462.05 20.5
2 1 8 272.37 13.6
3 1 8 132.49 8.2
4 1 8 119.89 6.8
5 1 8 208.38 10.2
6 1 8 143.79 8.2
7 1 8 18.5 3.5
5 -2 -8 552.94 25.3
4 -2 -8 266.47 14.3
-4 2 8 262.97 14.7
3 -2 -8 516.55 22.8
-3 2 8 546.95 23.9
-2 2 8 2643.14 95.19
-1 2 8 26.1 4.1
0 2 8 441.16 19.6
1 2 8 3149.39 111.09
2 2 8 50.99 4.8
3 2 8 294.37 12.7
3 2 8 278.97 13.2
4 2 8 2211.48 77.89
5 2 8 223.28 10.8
6 2 8 84.89 6
7 2 8 971.9 37.5
8 2 8 16.3 3.6
5 -3 -8 18.5 5.3
4 -3 -8 2.6 2.9
-4 3 8 -1.9 2
3 -3 -8 251.47 13.8
-3 3 8 231.98 13.6
-2 3 8 0.4 1.9
-1 3 8 286.47 14.7
0 3 8 248.08 12.8
1 3 8 135.99 8.3
2 3 8 606.24 24.4
3 3 8 255.97 11.9
3 3 8 250.57 11.5
4 3 8 617.54 24.2
5 3 8 90.89 6
6 3 8 64.99 5.3
7 3 8 713.63 28.7
8 3 8 2.9 2.1
4 -4 -8 54.09 7.7
-4 4 8 65.79 8.2
3 -4 -8 286.37 16.4
-3 4 8 313.47 16.7
-2 4 8 210.18 12.4
-1 4 8 1.7 2.2
0 4 8 293.07 14.9
1 4 8 17.8 3.6
2 4 8 293.27 14.1
2 4 8 302.17 13.1
3 4 8 103.79 6.2
3 4 8 99.89 6.6
4 4 8 4 1.7
5 4 8 285.17 13.3
6 4 8 167.68 9.4
7 4 8 45.2 5.6
8 4 8 357.56 17.2
3 -5 -8 23.8 5.7
-3 5 8 19.1 5
-2 5 8 211.98 13.3
-1 5 8 4.4 2.8
0 5 8 2 2.2
1 5 8 341.97 16.6
2 5 8 3.1 1.9
2 5 8 6.2 1.7
3 5 8 14.2 3.2
3 5 8 18.3 2.9
4 5 8 308.97 14.4
4 5 8 314.17 14.2
5 5 8 59.79 5
6 5 8 71.89 6.8
7 5 8 91.89 7
8 5 8 161.68 10.2
-2 6 8 146.89 11.2
-1 6 8 3.4 2.7
0 6 8 176.58 11.8
1 6 8 610.44 26.9
2 6 8 8 3
3 6 8 3.2 2.2
3 6 8 0.6 1.3
4 6 8 447.26 19.3
4 6 8 462.35 20.1
5 6 8 48.5 5.3
6 6 8 107.59 7.7
7 6 8 359.26 17.2
8 6 8 35.3 5.1
0 7 8 61.39 8
1 7 8 341.87 18.3
2 7 8 1246.18 49.3
3 7 8 305.87 16.2
4 7 8 350.26 17.4
5 7 8 1111.99 42.4
6 7 8 469.35 21
7 7 8 202.48 12
2 8 8 11.2 4.1
3 8 8 10.1 3.6
4 8 8 1 2.1
6 8 8 -1.7 1.8
4 7 -9 43.6 7.3
3 7 -9 34.9 6.8
2 7 -9 23.6 5.4
6 6 -9 587.14 26.2
5 6 -9 79.19 8.2
5 6 -9 70.59 10
4 6 -9 71.49 7.6
4 6 -9 56.39 8.6
3 6 -9 417.26 21.2
3 6 -9 394.46 21.1
2 6 -9 171.58 12
1 6 -9 202.18 13.1
0 6 -9 277.47 16.1
-1 6 -9 320.87 17.9
6 5 -9 94.99 7.9
5 5 -9 133.19 9.2
-5 -5 9 133.49 11.4
4 5 -9 70.49 9.3
4 5 -9 45.1 5.7
3 5 -9 58.59 6.8
3 5 -9 59.99 8
2 5 -9 9.2 3.4
2 5 -9 8.4 3
1 5 -9 4 2.5
0 5 -9 36.3 5.9
-1 5 -9 18.8 4.5
-2 5 -9 16.3 4.4
7 4 -9 269.87 14.8
6 4 -9 95.19 7.7
5 4 -9 2363.76 86.79
-5 -4 9 2448.26 91.09
4 4 -9 26.9 4.2
4 4 -9 23.8 5.7
-4 -4 9 28.4 5.8
3 4 -9 129.19 10.5
3 4 -9 147.09 9.3
2 4 -9 3291.97 116.89
2 4 -9 3246.78 117.79
1 4 -9 15.7 3.9
0 4 -9 378.06 18.6
-1 4 -9 2312.87 84.69
-2 4 -9 62.39 7.6
-3 4 -9 610.34 27.9
7 3 -9 81.19 8.4
6 3 -9 60.99 6.6
5 3 -9 128.39 8.8
-5 -3 9 155.58 11.3
4 3 -9 241.18 12.6
-4 -3 9 225.88 14.7
3 3 -9 147.79 9.1
-3 -3 9 139.19 10.7
2 3 -9 127.09 8.9
2 3 -9 125.69 9.7
1 3 -9 348.77 17.7
0 3 -9 304.27 15.8
-1 3 -9 15.5 3.6
-2 3 -9 254.57 13.8
-3 3 -9 72.69 6.6
3 -3 9 72.39 6.3
4 -3 9 27.9 5
5 -3 9 76.59 8.9
7 2 -9 606.94 26.7
6 2 -9 73.79 7.4
5 2 -9 118.89 8.2
-5 -2 9 109.59 9.2
4 2 -9 1438.46 54.99
-4 -2 9 1520.85 58.09
3 2 -9 3.5 1.9
-3 -2 9 12.9 3.9
2 2 -9 11 3.1
-2 -2 9 10.8 3.5
1 2 -9 3267.07 117.79
0 2 -9 3.8 2.3
-1 2 -9 22.8 4.3
-2 2 -9 2740.83 98.39
-3 2 -9 4.9 2.1
3 -2 9 4.1 2.1
4 -2 9 61.29 7
5 -2 9 838.42 35.9
7 1 -9 49.3 6.3
6 1 -9 31 5
5 1 -9 190.88 11
-5 -1 9 173.78 12.1
4 1 -9 67.39 6.9
-4 -1 9 68.59 8.4
3 1 -9 115.79 8.1
-3 -1 9 120.89 9.5
2 1 -9 345.67 17.6
-2 -1 9 388.06 19.4
-1 -1 9 0.7 2
0 -1 9 264.87 14.7
-1 1 -9 427.16 20.4
-2 1 -9 632.24 27.2
-3 1 -9 98.59 7.5
4 -1 9 247.18 11.7
6 -1 9 32.2 5.8
5 0 -9 29.2 4.8
-5 0 9 26.4 5.1
4 0 -9 93.79 7.4
-4 0 9 73.19 8.3
3 0 -9 31.6 5.2
-3 0 9 39.7 6.2
2 0 -9 133.59 9.7
-2 0 9 165.28 10.9
-1 0 9 44.9 6.3
0 0 9 290.77 15.7
1 0 9 272.97 14.9
2 0 9 220.58 12.8
3 0 9 880.61 35.8
4 0 9 69.29 5.1
5 0 9 177.38 9.4
7 0 9 167.88 12.7
-5 1 9 30.5 5.6
4 -1 -9 151.48 9.4
4 -1 -9 151.68 10.3
-4 1 9 138.59 10.4
3 -1 -9 1.4 2
-3 1 9 0.8 2
-2 1 9 19.9 4.2
-1 1 9 390.16 19.5
0 1 9 59.29 7
1 1 9 8.4 2.7
2 1 9 531.75 23.3
3 1 9 244.88 12.9
4 1 9 139.79 7.9
5 1 9 11 2.5
6 1 9 319.17 14.8
7 1 9 229.28 15.8
5 -2 -9 358.36 18.5
4 -2 -9 116.29 8.9
-4 2 9 101.09 9
-3 2 9 22.4 4.9
-2 2 9 463.35 21.9
-1 2 9 473.65 21.8
1 2 9 30.4 4.7
2 2 9 810.82 32.6
3 2 9 46.2 5.4
3 2 9 39.1 4.3
4 2 9 89.29 6
5 2 9 495.85 20.5
6 2 9 61.89 6
7 2 9 218.58 11.7
5 -3 -9 33.5 6.2
4 -3 -9 432.06 21.6
-4 3 9 451.65 22
-3 3 9 1803.22 68.39
-2 3 9 33.9 5.5
-1 3 9 478.15 22.1
0 3 9 3159.98 112.59
1 3 9 84.79 6.8
2 3 9 578.44 24.1
3 3 9 2327.67 82.79
3 3 9 2362.46 83.39
4 3 9 255.27 12.1
5 3 9 555.54 22.7
6 3 9 587.34 24.1
7 3 9 104.89 7.4
8 3 9 555.64 24.1
4 -4 -9 3.3 3.6
-4 4 9 7.6 3.5
-3 4 9 69.89 8.8
-2 4 9 62.69 8
-1 4 9 40.5 5.9
0 4 9 114.99 8.5
1 4 9 47.9 5.9
2 4 9 8.6 2.7
2 4 9 10.8 2.3
3 4 9 13.9 2.6
3 4 9 19.4 3.5
4 4 9 11.3 2.5
5 4 9 113.79 7.3
6 4 9 13.2 2.8
7 4 9 2.7 2.2
8 4 9 92.79 7.4
-3 5 9 862.01 37.6
-2 5 9 1427.06 56.29
-1 5 9 -1.8 2
0 5 9 907.41 37.2
1 5 9 2411.56 87.49
2 5 9 225.78 12.3
2 5 9 222.88 10.9
3 5 9 674.73 26.3
3 5 9 653.33 27.2
4 5 9 1981.7 71.09
5 5 9 498.05 21.2
6 5 9 364.86 16.9
7 5 9 954.9 37.6
8 5 9 386.86 18.5
-2 6 9 7.3 3.7
-1 6 9 101.59 9.4
0 6 9 86.39 8
1 6 9 59.99 7.3
2 6 9 431.16 20.6
3 6 9 40 4.6
3 6 9 40 5.5
4 6 9 298.17 19.8
4 6 9 342.77 15.3
5 6 9 179.28 10.1
6 6 9 51.69 5.7
7 6 9 427.36 19.7
0 7 9 97.39 9.3
1 7 9 367.66 19.6
2 7 9 270.57 15.6
3 7 9 11.8 3.5
4 7 9 128.69 11
5 7 9 550.34 23.5
6 7 9 6.3 2.6
7 7 9 72.29 7.7
2 8 9 54.49 7.9
3 8 9 113.99 9.9
5 6 -10 9.4 4.6
5 6 -10 7.4 3
4 6 -10 12.8 4.5
4 6 -10 7.3 3.2
3 6 -10 1332.17 54.39
2 6 -10 4.8 2.9
1 6 -10 2.2 2.9
0 6 -10 988.1 41.8
6 5 -10 101.19 8.4
5 5 -10 20 4.5
-5 -5 10 33.8 7.1
4 5 -10 208.88 12.7
4 5 -10 208.08 15
3 5 -10 35.9 5.6
3 5 -10 41 7.1
2 5 -10 115.19 9.4
2 5 -10 100.39 9.1
1 5 -10 281.07 16.2
0 5 -10 0 2
-1 5 -10 93.79 8.5
-2 5 -10 314.27 17.6
6 4 -10 73.19 7.8
5 4 -10 9.5 3.2
-5 -4 10 8.2 3.9
4 4 -10 4.5 2.4
-4 -4 10 1.3 2.5
3 4 -10 36.1 5.6
3 4 -10 40.3 7
2 4 -10 124.19 9.9
2 4 -10 157.18 11.3
1 4 -10 5.3 3
0 4 -10 204.98 12.8
-1 4 -10 293.07 16.2
-2 4 -10 21.7 4.6
6 3 -10 135.09 9.7
5 3 -10 5.5 2.3
-5 -3 10 7.2 3.4
4 3 -10 14.6 3.6
-4 -3 10 15.1 4.8
3 3 -10 98.79 7.8
-3 -3 10 99.19 9.4
2 3 -10 44.8 6.3
2 3 -10 43.4 7
1 3 -10 89.19 8.1
0 3 -10 14.8 3.8
-1 3 -10 154.18 10.6
-2 3 -10 110.59 8.7
-3 3 -10 4.2 2.6
6 2 -10 62.49 7.4
5 2 -10 140.99 9.8
-5 -2 10 151.08 11.2
4 2 -10 254.57 14.4
-4 -2 10 309.67 17
3 2 -10 129.59 9.3
-3 -2 10 153.58 11.3
2 2 -10 5.7 2.5
-2 -2 10 7.9 3.6
-1 -2 10 42.7 6.4
0 2 -10 87.69 7.9
-1 2 -10 236.48 13.9
-2 2 -10 42.6 6.2
-3 2 -10 252.27 14.2
4 -2 10 159.48 10.8
5 -2 10 107.69 9.5
6 1 -10 235.08 13.9
5 1 -10 1617.24 57.59
-5 -1 10 1372.26 58.29
4 1 -10 25 4.6
-4 -1 10 20.7 5.1
3 1 -10 244.88 14.5
-3 -1 10 287.27 16
2 1 -10 2466.05 97.49
-2 -1 10 2908.31 99.39
0 -1 10 493.45 23.6
1 -1 10 1810.12 68.49
-2 1 -10 -0.3 1.9
2 -1 10 0.4 1.8
-3 1 -10 670.83 29.9
3 -1 10 717.53 30.4
4 -1 10 751.72 29.5
6 -1 10 634.54 29.9
5 0 -10 63.89 7.7
-5 0 10 54.49 7.6
4 0 -10 162.88 11
-4 0 10 158.58 11.7
3 0 -10 0.9 2.2
-3 0 10 -1 2.2
-2 0 10 141.39 10.5
-1 0 10 369.16 19
0 0 10 9 3.2
1 0 10 122.99 9.4
2 0 10 32.1 5.4
3 0 10 56.29 7.2
4 0 10 18.3 3.1
5 0 10 12.7 2.8
-5 1 10 346.77 18.9
4 -1 -10 1700.73 68.79
-4 1 10 1922.11 69.99
-3 1 10 10.4 3.9
-2 1 10 577.14 27
-1 1 10 3263.47 118.09
0 1 10 274.87 15.3
1 1 10 431.16 20.5
2 1 10 3545.15 125.89
3 1 10 232.88 12.9
4 1 10 303.67 14.1
5 1 10 1437.56 52.89
6 1 10 77.69 6.1
-4 2 10 20.2 5.3
-3 2 10 349.27 18.9
-2 2 10 345.97 18.4
-1 2 10 15.9 3.9
0 2 10 352.76 17.9
1 2 10 209.08 12.4
2 2 10 180.98 11.1
3 2 10 244.98 13.1
4 2 10 140.29 8.2
5 2 10 619.14 25.1
6 2 10 103.29 7.2
7 2 10 30 4.5
-4 3 10 297.67 17.6
-3 3 10 128.79 10.8
-2 3 10 131.79 10.3
-1 3 10 201.08 12.7
0 3 10 565.24 25.4
1 3 10 37.1 5.5
2 3 10 9.9 2.7
3 3 10 1090.79 40.8
3 3 10 1075.29 41.4
4 3 10 4.4 1.8
5 3 10 8.3 2.4
6 3 10 1022.2 39.3
7 3 10 4.4 2.2
-3 4 10 3.4 3.6
-2 4 10 64.89 8.5
-1 4 10 -1.6 2
0 4 10 19 4.3
1 4 10 59.69 7
2 4 10 14.2 2.9
2 4 10 20.4 3.9
3 4 10 230.78 12.3
3 4 10 227.78 11.5
4 4 10 58.99 5.8
5 4 10 5.6 2
6 4 10 558.64 23.6
7 4 10 6 2.4
-2 5 10 149.09 11.8
-1 5 10 408.26 21.1
0 5 10 5.3 2.8
1 5 10 9.6 3.3
2 5 10 657.03 26.4
2 5 10 657.53 28.2
3 5 10 3.2 1.7
3 5 10 0.8 1.8
4 5 10 112.59 7.5
5 5 10 486.15 21.1
6 5 10 3 2.1
7 5 10 376.16 17.9
-1 6 10 116.39 10.2
0 6 10 709.23 31.9
1 6 10 49.9 7.1
2 6 10 99.49 8.3
3 6 10 892.21 35.6
3 6 10 837.62 33.5
4 6 10 54.09 5.8
5 6 10 86.79 6.9
6 6 10 337.07 16.4
7 6 10 22.7 4.5
1 7 10 3.1 2.8
2 7 10 10.9 3.8
3 7 10 292.67 16.3
5 7 10 77.59 7.5
6 7 10 191.48 11.5
4 6 -11 0.7 2.8
4 6 -11 0.8 2.7
3 6 -11 5.8 4
2 6 -11 9 3.7
1 6 -11 77.29 9.7
5 5 -11 138.19 10.6
-5 -5 11 151.48 13.3
4 5 -11 1303.97 51.29
4 5 -11 1221.78 54.09
-4 -5 11 1310.17 54.69
3 5 -11 116.49 10
3 5 -11 107.59 12.5
2 5 -11 261.67 16.5
1 5 -11 984.5 42.1
0 5 -11 25.1 5.4
-1 5 -11 405.66 21.4
6 4 -11 188.08 12.5
5 4 -11 7.1 3
-5 -4 11 1.8 3
4 4 -11 144.89 10.4
-4 -4 11 125.99 11.8
3 4 -11 110.39 10.5
3 4 -11 115.59 9.7
-3 -4 11 123.59 11
2 4 -11 8.3 3.7
2 4 -11 7.4 3.4
1 4 -11 88.09 10.1
0 4 -11 38 6.4
-1 4 -11 91.29 8.5
-2 4 -11 19.8 4.9
6 3 -11 1592.84 61.49
5 3 -11 48.6 6.9
-5 -3 11 48.4 7.5
4 3 -11 110.79 9
-4 -3 11 114.99 10.4
3 3 -11 3040.6 109.89
-3 -3 11 2998.2 111.89
2 3 -11 4.1 2.8
-2 -3 11 3.9 2.9
1 3 -11 199.88 13.6
0 3 -11 2318.57 86.89
-1 3 -11 55.79 7.5
-2 3 -11 316.57 17.5
6 2 -11 82.29 9
5 2 -11 203.38 12.9
-5 -2 11 196.38 13.6
4 2 -11 165.88 11.5
-4 -2 11 176.08 12.6
3 2 -11 53.59 7.1
-3 -2 11 46.7 7.2
2 2 -11 388.36 21.1
-2 -2 11 472.25 23.1
-1 -2 11 324.07 18.4
0 2 -11 -0.1 2
0 -2 11 3.7 2.6
-1 2 -11 469.15 23.3
-2 2 -11 335.17 18.2
-3 2 -11 178.58 12.1
4 -2 11 101.39 8.4
5 -2 11 120.89 10.2
6 1 -11 189.78 12.9
5 1 -11 178.98 12.1
-5 -1 11 166.88 12.5
4 1 -11 51.19 7.2
-4 -1 11 53.79 7.6
3 1 -11 22.1 5
-3 -1 11 27.5 5.3
-2 -1 11 829.42 36.1
-1 -1 11 0.6 2.3
0 -1 11 33.2 6
1 -1 11 1359.76 53.99
2 -1 11 4.1 3
3 -1 11 14.2 4.1
4 -1 11 806.12 31.9
5 0 -11 2.6 2.4
-5 0 11 1.6 3.2
4 0 -11 1 2.5
-4 0 11 2.2 2.7
3 0 -11 15 4.1
-3 0 11 14.5 4.3
-2 0 11 11.4 4
-1 0 11 86.09 8
0 0 11 85.69 7.9
1 0 11 191.38 12.5
2 0 11 12.9 3.6
3 0 11 47.8 6.6
4 0 11 301.17 14.5
5 0 11 2.5 1.8
-5 1 11 115.39 10.4
-4 1 11 182.38 13.2
-3 1 11 153.58 11.7
-2 1 11 11.7 3.9
-1 1 11 57.29 7.7
0 1 11 392.56 20.1
1 1 11 127.79 9.5
2 1 11 216.48 12.8
3 1 11 289.37 15.3
4 1 11 144.49 8.8
5 1 11 258.77 13
6 1 11 341.07 16.3
-4 2 11 -0.4 3
-3 2 11 122.29 10.5
-2 2 11 675.83 30.9
-1 2 11 17.2 4.2
0 2 11 52.59 6.9
1 2 11 722.13 31.3
2 2 11 5.4 2.6
3 2 11 248.78 13.7
4 2 11 362.36 16.6
5 2 11 7.7 2.5
6 2 11 326.47 15.7
7 2 11 56.69 6.4
-4 3 11 55.59 8.6
-3 3 11 143.09 11.7
-2 3 11 193.48 13.6
-1 3 11 36.1 6.3
0 3 11 58.09 7.5
1 3 11 516.15 23.8
2 3 11 9.3 3
3 3 11 5.6 2.5
3 3 11 4.9 2
4 3 11 264.07 13.2
5 3 11 30.6 4.3
6 3 11 135.59 8.8
7 3 11 192.88 11.2
-3 4 11 6.4 4
-2 4 11 679.93 31.7
-1 4 11 1597.74 62.59
0 4 11 260.17 15.3
1 4 11 548.65 25.2
2 4 11 1923.11 71.39
3 4 11 516.85 23.1
3 4 11 532.05 22.4
4 4 11 427.26 18.9
5 4 11 1101.19 42.2
6 4 11 345.17 16.6
7 4 11 312.27 15.6
-2 5 11 33.4 6.8
-1 5 11 1.9 3
0 5 11 172.98 12.3
1 5 11 70.99 8.5
2 5 11 32.3 5.5
2 5 11 28.6 4.2
3 5 11 172.28 10.8
3 5 11 161.88 9.6
4 5 11 0.6 1.6
5 5 11 77.09 6.5
6 5 11 29.6 4.7
7 5 11 13.6 3.5
-1 6 11 561.54 28.1
0 6 11 617.14 29.5
1 6 11 14.1 4.4
2 6 11 354.66 18.7
3 6 11 933.71 39.1
3 6 11 977.5 37.2
4 6 11 120.79 8.2
5 6 11 132.69 8.9
6 6 11 831.82 33.8
1 7 11 189.58 13.7
2 7 11 8.1 3.6
3 7 11 191.68 12.8
5 7 11 8.8 2.9
4 5 -12 477.05 24.1
-4 -5 12 431.66 25.6
3 5 -12 5 3.4
3 5 -12 -2.8 2
2 5 -12 35.2 7.2
1 5 -12 746.13 34.8
0 5 -12 1.8 2.8
5 4 -12 10.2 3.9
-5 -4 12 12.7 4.9
4 4 -12 12.5 4.4
-4 -4 12 9.7 4.8
3 4 -12 7.7 3.6
-3 -4 12 4.6 3.7
2 4 -12 17.9 5.2
1 4 -12 31.9 6.5
0 4 -12 5 3.3
-1 4 -12 100.99 9.7
-2 4 -12 208.18 14.2
5 3 -12 22.3 5.2
-5 -3 12 17.4 4.9
4 3 -12 7.7 3.4
-4 -3 12 3.3 3.5
3 3 -12 -1.1 2
-3 -3 12 4.3 3.6
-2 -3 12 27.1 6.2
1 3 -12 101.39 11.7
-1 -3 12 105.29 10
0 3 -12 36.3 6.7
-1 3 -12 43.6 7.2
-2 3 -12 290.27 17.4
5 2 -12 155.98 12.2
-5 -2 12 193.98 13.5
4 2 -12 614.14 29.9
-4 -2 12 689.73 31.1
3 2 -12 6.9 3.5
-3 -2 12 10.1 4.3
-2 -2 12 224.58 15.1
-1 -2 12 595.94 28.8
0 -2 12 14.2 4.5
-2 2 -12 220.28 14.8
2 -2 12 241.98 15.4
5 1 -12 119.99 11.8
-5 -1 12 101.49 11.4
4 1 -12 180.88 13.3
-4 -1 12 205.98 14.2
3 1 -12 92.89 10.4
-3 -1 12 99.49 10.7
-2 -1 12 51.19 7.4
-1 -1 12 163.68 12
0 -1 12 3 2.8
1 -1 12 0.1 2.4
2 -1 12 196.88 13.5
3 -1 12 14.8 4.2
4 -1 12 88.29 6.8
5 0 -12 10.4 4.4
-5 0 12 11.2 4.3
-4 0 12 417.56 22.5
-3 0 12 2582.44 96.89
-2 0 12 76.79 9.3
-1 0 12 550.14 26.1
0 0 12 2684.63 98.89
1 0 12 235.08 14.5
2 0 12 594.74 27.5
3 0 12 1319.57 52.39
4 0 12 136.79 8.9
5 0 12 448.86 20.2
-5 1 12 124.39 11.2
-4 1 12 32.2 6.7
-3 1 12 20.2 5.5
-2 1 12 443.16 23.3
-1 1 12 12.3 4.1
0 1 12 -2.6 2.1
1 1 12 380.66 19.6
2 1 12 111.29 8.9
3 1 12 36.5 5.7
4 1 12 116.19 8
5 1 12 74.49 6.4
6 1 12 83.09 6.9
-4 2 12 51.09 8.5
-3 2 12 419.16 23.1
-2 2 12 1001.8 42.9
-1 2 12 3.1 2.8
0 2 12 159.78 11.5
1 2 12 1625.64 62.79
2 2 12 151.58 10.8
3 2 12 64.39 7.6
4 2 12 1108.99 42.8
5 2 12 74.29 7.3
6 2 12 51.49 6
-3 3 12 155.98 13
-2 3 12 94.09 11
-1 3 12 233.68 15.3
0 3 12 63.79 8.1
1 3 12 91.89 8.1
2 3 12 245.28 14.1
3 3 12 82.69 7.1
3 3 12 79.19 6.6
4 3 12 310.47 15.3
5 3 12 98.99 7.5
6 3 12 15.1 3.4
7 3 12 517.95 23.2
-2 4 12 122.29 13.2
-1 4 12 -2 2.7
0 4 12 211.98 14.1
1 4 12 6.9 3.3
2 4 12 193.28 12.4
3 4 12 174.58 10.2
3 4 12 146.99 10.3
4 4 12 27.7 4.3
5 4 12 573.74 24.6
6 4 12 141.49 9.4
7 4 12 2.6 2.3
-1 5 12 18.7 5.6
0 5 12 1.5 2.8
1 5 12 185.98 13
2 5 12 3.1 2
2 5 12 4.8 3.1
3 5 12 0.7 1.9
3 5 12 0.2 2.1
4 5 12 89.29 7.1
5 5 12 39.7 5.4
6 5 12 24 4.3
0 6 12 56.79 8.7
1 6 12 462.85 23.8
2 6 12 2.2 2.9
3 6 12 1.1 2.8
3 6 12 13.8 3.1
4 6 12 679.93 28.5
5 6 12 2.2 2.4
6 6 12 280.47 15
3 7 12 325.87 18.3
-3 -5 13 65.49 10.4
2 5 -13 -0.3 3.2
1 5 -13 20.4 5.8
4 4 -13 31.7 6.6
-4 -4 13 31.1 7.3
-3 -4 13 278.97 19
-2 -4 13 1822.72 73.49
1 4 -13 24.9 6.5
0 4 -13 440.96 24.4
-1 4 -13 802.02 37.1
5 3 -13 133.79 13.4
-5 -3 13 135.39 11.8
4 3 -13 254.37 17
-4 -3 13 293.47 18
-3 -3 13 46.2 8
-2 -3 13 56.39 9.2
-1 -3 13 226.38 15.9
0 3 -13 101.79 11.8
0 -3 13 79.19 10.3
-1 3 -13 0.9 2.7
-2 3 -13 182.18 13.9
5 2 -13 101.99 11.6
-5 -2 13 69.69 9.1
4 2 -13 1219.08 54.89
-4 -2 13 1486.85 55.99
-3 -2 13 6.6 3.8
-2 -2 13 189.58 13.9
-1 -2 13 1859.11 72.89
0 -2 13 71.09 9.5
1 -2 13 43.8 7.8
2 -2 13 1269.67 52.99
5 1 -13 181.48 14
-5 -1 13 187.88 13.8
4 1 -13 14.4 4.7
-4 -1 13 20 5.7
-3 -1 13 236.88 15.5
-2 -1 13 142.69 11.5
-1 -1 13 13.7 4.5
0 -1 13 238.58 15.4
1 -1 13 204.78 14.1
2 -1 13 290.17 17.6
4 -1 13 125.39 8.7
-4 0 13 83.49 10.3
-3 0 13 89.59 10.5
-2 0 13 35.5 6.6
-1 0 13 3.2 2.8
0 0 13 260.87 15.7
1 0 13 87.79 9.7
2 0 13 104.49 9.1
3 0 13 645.04 29.5
4 0 13 25.9 4.4
5 0 13 97.79 7.6
-4 1 13 12.9 4.8
-3 1 13 2.4 3.4
-2 1 13 15.8 5
-1 1 13 144.29 11.6
0 1 13 22.7 5.5
1 1 13 2.5 2.7
2 1 13 73.59 8.6
3 1 13 70.59 8.2
4 1 13 34.6 5.1
5 1 13 0.2 1.8
6 1 13 164.48 10.5
-3 2 13 95.09 11.7
-2 2 13 61.59 8.7
-1 2 13 226.88 15.1
0 2 13 -1.1 2.3
1 2 13 0.6 2.5
2 2 13 364.66 19.4
3 2 13 18.3 4.7
4 2 13 81.39 7
5 2 13 357.86 17.5
6 2 13 32 5
-3 3 13 758.32 36.4
-2 3 13 48.7 8.3
-1 3 13 371.76 21.2
0 3 13 893.81 39
1 3 13 122.59 10.1
2 3 13 187.78 12.2
3 3 13 451.35 21.6
4 3 13 153.78 9.9
5 3 13 238.18 13.2
6 3 13 180.18 11.2
-2 4 13 108.99 12.8
-1 4 13 18.1 5.7
0 4 13 61.89 8.8
1 4 13 127.19 10.8
2 4 13 -1.9 2.4
3 4 13 9.7 3
3 4 13 14.8 4.2
4 4 13 6.7 2.4
5 4 13 35.8 5.1
6 4 13 42 5.7
-1 5 13 63.69 9.7
0 5 13 576.34 28.9
1 5 13 997.9 42.8
2 5 13 332.77 17.8
2 5 13 264.17 14.9
3 5 13 258.77 14
3 5 13 254.87 15.1
4 5 13 832.12 34.1
5 5 13 405.36 19.4
6 5 13 135.29 9.7
1 6 13 145.89 12.1
2 6 13 291.27 17.3
3 6 13 0.5 1.8
3 6 13 0.8 2.5
4 6 13 199.08 12
5 6 13 98.19 8.1
-3 -4 14 48 8.9
-2 -4 14 187.98 15.5
-1 -4 14 4.6 4.4
0 4 -14 127.99 12.2
4 3 -14 7.7 4
-4 -3 14 4 3.8
-3 -3 14 39.9 7.7
-2 -3 14 16 5.4
-1 -3 14 17.9 5.7
0 -3 14 25.4 6.7
1 -3 14 131.29 14.4
2 -3 14 145.29 13.3
-4 -2 14 68.79 9.2
-3 -2 14 215.38 15.1
-2 -2 14 3.7 3.6
-1 -2 14 10.2 4.2
0 -2 14 183.28 14.1
1 -2 14 57.59 9
2 -2 14 121.79 11.6
-4 -1 14 1.9 3.4
-3 -1 14 312.07 18.6
-2 -1 14 1252.87 51.49
-1 -1 14 44.5 7.2
0 -1 14 431.86 22.9
1 -1 14 1182.58 49.5
2 -1 14 40.7 7
4 -1 14 102.99 11.8
-4 0 14 128.09 11.8
-3 0 14 1.3 3.1
-2 0 14 241.18 15.9
-1 0 14 219.38 14.6
0 0 14 29.6 6
1 0 14 128.29 10.6
2 0 14 102.09 9.5
4 0 14 9.4 3.2
-3 1 14 2.2 3.8
-2 1 14 452.65 24.3
-1 1 14 2019.5 78.09
0 1 14 185.58 13.4
1 1 14 563.54 27.1
2 1 14 1894.01 72.39
3 1 14 565.84 26.8
4 1 14 130.99 9.4
5 1 14 397.86 19.4
-3 2 14 196.98 15.4
-2 2 14 97.99 11.3
-1 2 14 6.7 3.8
0 2 14 351.06 19.7
1 2 14 68.49 8.9
2 2 14 172.38 12.5
3 2 14 272.27 16
4 2 14 26.8 4.6
5 2 14 242.28 13.7
-2 3 14 36.6 8
-1 3 14 122.19 11.5
0 3 14 465.25 24.5
1 3 14 -1.8 2.5
2 3 14 39.8 6.4
3 3 14 539.85 25.3
4 3 14 12.8 3.3
5 3 14 2.2 2.3
-1 4 14 3.9 3.9
0 4 14 26.4 6.2
1 4 14 62.69 8.9
2 4 14 21.1 5.4
3 4 14 122.89 10
3 4 14 123.79 9.2
4 4 14 36.7 5.5
5 4 14 0 1.8
0 5 14 38.5 7.6
1 5 14 3.6 3.7
2 5 14 237.98 14
2 5 14 261.97 16.4
3 5 14 -1.5 1.8
3 5 14 -4.5 2.1
4 5 14 135.69 9.8
5 5 14 261.87 14.7
-2 -3 15 33.4 7.3
-1 -3 15 152.28 13.8
0 -3 15 1109.69 49.7
-3 -2 15 5.6 4.2
-2 -2 15 494.05 26
-1 -2 15 98.09 11.7
0 -2 15 11.5 4.9
1 -2 15 284.87 19
2 -2 15 101.09 12.2
-3 -1 15 24.8 5.8
-2 -1 15 556.54 27.7
-1 -1 15 1.7 2.9
0 -1 15 18.9 5.4
1 -1 15 1094.49 46.7
2 -1 15 0.8 3.4
-3 0 15 37.4 7.3
-2 0 15 37.4 7.1
-1 0 15 64.19 8.8
0 0 15 17.1 4.8
1 0 15 113.19 10.3
2 0 15 18.1 5.2
4 0 15 182.28 11.8
-3 1 15 172.78 13.9
-2 1 15 11 4.5
-1 1 15 16 5.5
0 1 15 306.17 18.5
1 1 15 50.89 7.6
2 1 15 244.78 15.5
4 1 15 69.89 8.1
-2 2 15 300.67 19.1
-1 2 15 14.2 4.9
0 2 15 120.69 10.7
1 2 15 304.47 18
2 2 15 13.5 4.3
4 2 15 100.79 9.9
-1 3 15 48.3 8.8
0 3 15 1.7 3.2
1 3 15 287.57 17.6
2 3 15 23.2 5.3
3 3 15 15.7 4.2
4 3 15 174.18 11.7
5 3 15 -0.1 2.2
0 4 15 193.48 15
1 4 15 294.17 18.3
2 4 15 525.35 26.3
3 4 15 276.37 16
3 4 15 303.77 17.4
4 4 15 142.69 10.5
2 5 15 5 2.8
2 5 15 2.2 3.4
3 5 15 76.89 9.5
3 5 15 69.29 8.1
-1 -2 16 222.58 16
0 -2 16 6 4.3
-2 -1 16 9.8 4.2
-1 -1 16 247.18 16.3
0 -1 16 19.8 5.6
1 -1 16 80.29 10.4
2 -1 16 125.69 11.6
-2 0 16 49 8.1
-1 0 16 312.27 18.8
0 0 16 1124.59 47.5
1 0 16 203.78 14.3
2 0 16 509.15 25.6
-1 1 16 33.2 6.9
0 1 16 2.4 3.5
1 1 16 419.06 22.6
2 1 16 38.5 7.3
-1 2 16 6.9 4.1
0 2 16 133.29 11.7
1 2 16 1143.39 48.1
2 2 16 180.98 13.3
0 3 16 38.4 7.4
1 3 16 143.59 12.2
2 3 16 187.08 13.6
1 1 17 3.1 3.2
