#------------------------------------------------------------------------------
#$Date: 2022-01-04 01:16:45 +0200 (Tue, 04 Jan 2022) $
#$Revision: 271768 $
#$URL: file:///home/coder/svn-repositories/cod/cif/4/00/40/4004058.cif $
#------------------------------------------------------------------------------
#
# This file is available in the Crystallography Open Database (COD),
# http://www.crystallography.net/
#
# All data on this site have been placed in the public domain by the
# contributors.
#
data_4004058
loop_
_publ_author_name
'Liu, Kefeng'
'Liu, Jian'
'Liu, Qian'
'Wang, Qiqi'
'Yu, Fang'
'Liu, Xiao-Cun'
'Xia, Sheng-Qing'
_publ_section_title
;
 Phase Transitions, Structure Evolution, and Thermoelectric Properties
 Based on A2MnSb2 (A = Ca, Yb)
;
_journal_issue                   24
_journal_name_full               'Chemistry of Materials'
_journal_page_first              9732
_journal_page_last               9740
_journal_paper_doi               10.1021/acs.chemmater.1c03527
_journal_volume                  33
_journal_year                    2021
_chemical_formula_sum            'Ag0.58 Ca2 Mn0.71 Sb2'
_chemical_formula_weight         425.23
_space_group_crystal_system      hexagonal
_space_group_IT_number           186
_space_group_name_Hall           'P 6c -2c'
_space_group_name_H-M_alt        'P 63 m c'
_audit_creation_method           SHELXL-2018/3
_cell_angle_alpha                90
_cell_angle_beta                 90
_cell_angle_gamma                120
_cell_formula_units_Z            1
_cell_length_a                   4.6848(6)
_cell_length_b                   4.6848(6)
_cell_length_c                   7.7443(18)
_cell_measurement_reflns_used    649
_cell_measurement_temperature    296(2)
_cell_measurement_theta_max      27.33
_cell_measurement_theta_min      5.02
_cell_volume                     147.20(4)
_computing_cell_refinement       'Bruker SMART'
_computing_data_collection       'Bruker SMART'
_computing_data_reduction        'Bruker SAINT'
_computing_molecular_graphics    'Bruker SHELXTL'
_computing_publication_material  'Bruker SHELXTL'
_computing_structure_refinement  'SHELXL-2018/3 (Sheldrick, 2018)'
_computing_structure_solution    'Bruker SHELXTL'
_diffrn_ambient_temperature      296(2)
_diffrn_measured_fraction_theta_full 1.000
_diffrn_measured_fraction_theta_max 1.000
_diffrn_measurement_device_type  'CCD area detector'
_diffrn_measurement_method       'phi and omega scans'
_diffrn_radiation_type           MoK\a
_diffrn_radiation_wavelength     0.71073
_diffrn_reflns_av_R_equivalents  0.0165
_diffrn_reflns_av_unetI/netI     0.0127
_diffrn_reflns_Laue_measured_fraction_full 1.000
_diffrn_reflns_Laue_measured_fraction_max 1.000
_diffrn_reflns_limit_h_max       6
_diffrn_reflns_limit_h_min       -4
_diffrn_reflns_limit_k_max       6
_diffrn_reflns_limit_k_min       -6
_diffrn_reflns_limit_l_max       10
_diffrn_reflns_limit_l_min       -9
_diffrn_reflns_number            779
_diffrn_reflns_point_group_measured_fraction_full 1.000
_diffrn_reflns_point_group_measured_fraction_max 0.994
_diffrn_reflns_theta_full        25.242
_diffrn_reflns_theta_max         27.327
_diffrn_reflns_theta_min         5.025
_exptl_absorpt_coefficient_mu    14.080
_exptl_absorpt_correction_T_max  0.7455
_exptl_absorpt_correction_T_min  0.6152
_exptl_absorpt_correction_type   multi-scan
_exptl_crystal_colour            black
_exptl_crystal_density_diffrn    4.797
_exptl_crystal_description       block
_exptl_crystal_F_000             187
_exptl_crystal_size_max          0.080
_exptl_crystal_size_mid          0.070
_exptl_crystal_size_min          0.050
_refine_diff_density_max         1.824
_refine_diff_density_min         -1.546
_refine_diff_density_rms         0.238
_refine_ls_abs_structure_details
; 
 Refined as an inversion twin. 
;
_refine_ls_abs_structure_Flack   0.1(7)
_refine_ls_extinction_coef       0.12(2)
_refine_ls_extinction_expression Fc^*^=kFc[1+0.001xFc^2^\l^3^/sin(2\q)]^-1/4^
_refine_ls_extinction_method     'SHELXL-2018/3 (Sheldrick 2018)'
_refine_ls_goodness_of_fit_ref   1.340
_refine_ls_matrix_type           full
_refine_ls_number_parameters     14
_refine_ls_number_reflns         153
_refine_ls_number_restraints     2
_refine_ls_restrained_S_all      1.330
_refine_ls_R_factor_all          0.0350
_refine_ls_R_factor_gt           0.0319
_refine_ls_shift/su_max          0.000
_refine_ls_shift/su_mean         0.000
_refine_ls_structure_factor_coef Fsqd
_refine_ls_weighting_details
'w=1/[\s^2^(Fo^2^)+(0.0193P)^2^+3.0001P] where P=(Fo^2^+2Fc^2^)/3'
_refine_ls_weighting_scheme      calc
_refine_ls_wR_factor_gt          0.0746
_refine_ls_wR_factor_ref         0.0785
_reflns_Friedel_coverage         0.843
_reflns_Friedel_fraction_full    1.000
_reflns_Friedel_fraction_max     0.986
_reflns_number_gt                147
_reflns_number_total             153
_reflns_threshold_expression     'I > 2\s(I)'
_cod_data_source_file            cm1c03527_si_002.cif
_cod_data_source_block           s
_cod_original_cell_volume        147.20(5)
_cod_database_code               4004058
_shelx_shelxl_version_number     2018/3
_shelx_space_group_comment
; 
The symmetry employed for this shelxl refinement is uniquely defined 
by the following loop, which should always be used as a source of 
symmetry information in preference to the above space-group names. 
They are only intended as comments. 
;
_shelx_estimated_absorpt_t_min   0.399
_shelx_estimated_absorpt_t_max   0.540
_shelx_res_file
; 
TITL s in P6(3)mc 
    s.res 
    created by SHELXL-2018/3 at 18:29:09 on 27-Jul-2021 
CELL 0.71073   4.6848   4.6848   7.7443  90.000  90.000 120.000 
ZERR    1.00   0.0006   0.0006   0.0018   0.000   0.000   0.000 
LATT -1 
SYMM -Y, X-Y, Z 
SYMM -X+Y, -X, Z 
SYMM -X, -Y, 0.5+Z 
SYMM Y, -X+Y, 0.5+Z 
SYMM X-Y, X, 0.5+Z 
SYMM -Y, -X, Z 
SYMM -X+Y, Y, Z 
SYMM X, X-Y, Z 
SYMM Y, X, 0.5+Z 
SYMM X-Y, -Y, 0.5+Z 
SYMM -X, -X+Y, 0.5+Z 
SFAC CA MN AG SB 
UNIT 2 0.71 0.58 2 
twin 
TEMP 23.000 
SIZE 0.05 0.07 0.08 
  
L.S. 20 
BOND 
ACTA 
FMAP 2 
PLAN 2 
  
EADP MN AG 
EXYZ MN AG 
SUMP 1 0.002 2.0 2 1.0 3 
WGHT    0.019300    3.000100 
EXTI    0.118945 
BASF   0.13538 
FVAR       1.06209   0.35456   0.29087 
CA    1    0.000000    0.000000   -0.000180    10.16667    0.08776    0.08776 = 
         0.01208    0.00000    0.00000    0.04388 
MN    2    0.666667    0.333333    0.163102    20.16667    0.01764    0.01764 = 
         0.06782    0.00000    0.00000    0.00882 
AG    3    0.666667    0.333333    0.163102    30.16667    0.01764    0.01764 = 
         0.06782    0.00000    0.00000    0.00882 
SB    4    0.333333    0.666667    0.253810    10.16667    0.01935    0.01935 = 
         0.03997    0.00000    0.00000    0.00968 
  
HKLF 4 
  
  
  
  
REM  s in P6(3)mc 
REM wR2 = 0.0785, GooF = S = 1.340, Restrained GooF = 1.330 for all data 
REM R1 = 0.0319 for 147 Fo > 4sig(Fo) and 0.0350 for all 153 data 
REM 14 parameters refined using 1 restraints 
  
END 
  
WGHT      0.0193      2.9977 
  
REM Highest difference peak  1.824,  deepest hole -1.546,  1-sigma level  0.238 
Q1    1   0.3333  0.6667  0.0810  10.16667  0.05    1.82 
Q2    1   0.3333  0.6667  0.4451  10.16667  0.05    1.39 
;
_shelx_res_checksum              66045
_shelx_hkl_file
; 
   1   0   0 1218.81   20.21 
   1   0   0 1219.75   22.23 
   0   1   0 1247.99   20.23 
  -1   1   0 1257.14   24.93 
  -1   1   0 1265.25   20.23 
   0   1   0 1275.05   22.93 
   1   1   0 9992.86  162.22 
  -1   2   0 9653.23  163.98 
   1   1   0 9465.93  144.21 
   2  -1   0 9340.63  163.42 
   0   2   0 1089.82   23.12 
   0   2   0 1130.21   20.82 
   2  -2   0 1113.89   26.41 
   2   0   0 1097.22   20.75 
   2   0   0 1139.40   21.78 
  -1   3   0 1018.06   20.67 
   2   1   0 1017.26   20.83 
  -1   3   0  991.84   24.72 
   1   2   0  990.18   20.53 
   2  -3   0  987.63   26.25 
   3  -1   0 1011.41   23.59 
  -2   3   0  998.86   20.54 
   3  -2   0 1026.70   26.27 
   3  -3   0 6014.04  111.37 
   3   0   0 5871.61   92.85 
   0   3   0 6046.62  105.72 
   0   3   0 5955.88   92.77 
   2   2   0 4618.83   75.89 
   4  -2   0 4735.08   89.18 
  -2   4   0 4661.71   75.76 
   1   3   0  741.27   18.57 
   4  -3   0  717.74   23.99 
   4  -1   0  748.55   19.08 
   3   1   0  734.20   18.86 
   3  -4   0  767.03   24.64 
  -3   4   0  766.36   18.71 
  -1   4   0  734.16   18.55 
   1  -4   0  748.69   22.02 
   0   4   0  619.25   17.60 
   4  -4   0  644.88   23.64 
   4   0   0  668.54   18.36 
   2   3   0  522.32   16.45 
   5  -2   0  557.61   16.97 
   5  -3   0  519.04   20.71 
  -3   5   0  544.51   16.72 
   2  -5   0  516.50   20.45 
   3   2   0  531.77   16.66 
  -2   5   0  546.58   16.74 
   3  -5   0  523.10   21.49 
   4   1   0 2135.41   43.15 
   5  -4   0 2099.46   53.58 
   5  -1   0 2119.91   43.18 
   1   4   0 2160.96   42.75 
  -1   5   0 2140.42   42.66 
   4  -5   0 2175.88   54.18 
   0   5   0  367.93   14.40 
   5  -5   0  350.56   19.16 
   5   0   0  353.56   14.43 
   6  -3   0 1269.59   30.89 
  -3   6   0 1258.99   36.68 
   3  -6   0 1287.76   38.69 
   3   3   0 1296.58   35.40 
   0   0  -1   -3.39    0.67 
   1  -1   1 2253.51   42.13 
   1   0  -1 2194.01   34.57 
   0   1   1 2297.84   40.35 
   0   1   1 2278.26   34.87 
   1   0   1 2312.16   35.00 
  -1   0   1 2265.36   38.97 
   1   0   1 2353.67   40.43 
   0   1  -1 2279.23   43.66 
   0  -1   1 2291.60   40.24 
   0   1  -1 2229.14   34.84 
  -1   1   1 2264.99   34.62 
   1   1  -1    4.29    1.66 
  -1   2  -1    6.99    2.00 
  -1   2   1    4.45    2.04 
   2  -1   1   -0.15    1.69 
  -2   1   1    4.27    2.09 
  -1   2  -1    1.12    1.15 
   1  -2   1    2.65    1.95 
   1   1   1    2.58    1.33 
   1   1   1    4.17    1.66 
   2   0  -1 1540.24   27.14 
   2   0   1 1576.57   27.40 
   2  -2   1 1556.94   34.65 
   2   0  -1 1579.24   28.91 
   0   2   1 1578.18   27.37 
   0   2  -1 1545.99   27.24 
   2   0   1 1539.63   30.17 
   0   2  -1 1549.67   32.11 
   0   2   1 1565.80   30.72 
  -2   2   1 1638.34   33.97 
   0  -2   1 1564.25   30.80 
  -1   3  -1 1137.91   22.72 
   2  -3   1 1094.67   28.76 
   3  -1   1 1118.17   26.51 
   3  -1  -1 1155.20   22.71 
   1   2   1 1139.09   22.59 
   3  -2   1 1164.03   28.93 
  -1   3  -1 1132.61   24.13 
  -2   3   1 1130.40   28.49 
   2   1   1 1131.93   22.68 
   3  -1  -1 1118.53   25.75 
   1   2  -1 1105.65   22.37 
  -3   2   1 1167.12   28.48 
   2   1  -1 1132.09   22.47 
  -1   3   1 1119.38   27.08 
  -2   3  -1 1122.78   22.59 
   1  -3   1 1154.58   27.44 
   1   2   1 1124.32   22.90 
  -2   3   1 1162.40   22.54 
  -1   3   1 1180.05   22.76 
   0   3  -1   11.74    3.23 
   0   3  -1   11.87    2.33 
   3   0   1   15.26    3.33 
   0   3   1    8.49    2.72 
   0   3   1   15.17    3.35 
   3   0  -1   16.29    3.27 
  -3   3   1   14.99    4.11 
   0  -3   1    8.97    2.62 
   3  -3   1    8.94    3.54 
   2   2   1   16.77    3.82 
   4  -2  -1    9.30    3.45 
   2   2  -1   21.89    4.10 
  -2   4  -1   22.17    4.35 
  -2   4   1   15.53    4.30 
   2  -4   1    9.98    3.81 
   4  -2   1   10.54    3.78 
  -2   4   1   16.56    3.73 
  -1   4   1  642.49   20.50 
   4  -1  -1  652.58   17.54 
  -3   4   1  640.22   22.39 
   4  -3   1  693.19   23.33 
  -3   4   1  651.35   17.11 
   1   3  -1  659.43   17.33 
   1   3  -1  684.66   19.07 
   4  -1   1  638.93   17.38 
   1  -4   1  668.75   20.47 
   3   1  -1  664.20   17.46 
   3   1   1  662.18   17.47 
   1   3   1  674.59   17.40 
  -1   4   1  679.65   17.48 
   4  -3  -1  671.11   22.39 
  -1   4  -1  659.77   17.43 
   3  -4   1  700.06   23.54 
   4  -4  -1  510.05   20.31 
   0   4   1  509.29   15.34 
   4   0  -1  502.64   15.58 
   0   4  -1  494.05   15.24 
   4   0   1  501.71   15.58 
   4  -4   1  485.96   20.72 
   2  -5  -1  393.29   17.24 
   3   2  -1  396.23   14.07 
   2  -5   1  401.61   17.63 
  -3   5   1  395.98   13.89 
   3  -5  -1  395.63   18.02 
  -2   5   1  383.40   13.84 
   5  -3   1  389.07   18.06 
   3   2   1  385.45   13.93 
   2   3   1  405.46   14.13 
   5  -3  -1  399.48   17.83 
  -3   5  -1  369.07   13.64 
   2   3  -1  377.13   13.67 
   5  -2  -1  403.26   13.95 
   5  -2   1  392.14   14.03 
   3  -5   1  372.17   17.99 
  -2   5  -1  400.71   14.04 
   5  -1  -1   11.71    4.20 
  -1   5   1   12.88    4.27 
   4   1   1   15.15    4.58 
  -1   5  -1   13.55    4.15 
   4   1  -1   20.33    4.79 
   5  -4   1    6.39    4.54 
   5  -4  -1   10.19    4.66 
   4  -5   1   13.06    5.54 
   4  -5  -1   13.37    5.09 
   1   4  -1   17.89    4.52 
   5  -1   1   16.22    4.57 
   1   4   1   11.46    4.18 
   5  -5   1  268.88   16.88 
   5   0   1  267.89   12.44 
   0   5   1  265.31   12.15 
   0   5  -1  258.54   12.10 
   5  -5  -1  269.15   16.66 
   5   0  -1  269.19   12.57 
   3  -6   1   14.84    6.25 
   6  -3  -1   10.72    4.60 
   3  -6  -1   -0.03    3.54 
  -3   6   1   12.58    5.03 
   3   3  -1   18.01    5.52 
   0   0   2 4214.91   73.18 
   0   0  -2 4282.76   82.69 
  -1   1   2 4718.67   67.95 
   1   0   2 4795.79   68.88 
   1  -1  -2 4498.89   88.79 
   1  -1   2 4764.11   82.09 
   1   0   2 4734.58   81.05 
   1   0  -2 4562.77   88.31 
  -1   1   2 4625.22   80.91 
   0  -1   2 4444.76   80.10 
   0   1  -2 4723.17   70.83 
   0   1   2 4641.12   68.51 
   1   0  -2 4650.86   69.27 
   0   1   2 4901.99   80.87 
  -1   0   2 4478.37   79.10 
  -1   2  -2 3524.17   68.37 
   1   1  -2 3482.37   69.31 
  -1   2   2 3422.75   64.54 
   2  -1   2 3694.37   65.67 
  -2   1   2 3478.05   63.51 
  -1  -1   2 3482.91   59.75 
  -1   2   2 3450.98   54.09 
   1   1   2 3615.74   62.65 
   1  -2   2 3560.30   65.98 
  -1   2  -2 3550.79   54.67 
   1   1  -2 3485.85   54.17 
  -2   0   2 2945.46   51.73 
   0   2  -2 2915.26   46.88 
   2  -2  -2 2919.01   56.58 
   0  -2   2 2896.99   53.92 
   2  -2   2 2860.19   58.22 
   0   2   2 2955.92   46.93 
   0   2   2 2899.75   54.28 
   0   2  -2 2968.88   58.41 
   2   0   2 2986.72   47.17 
  -2   2   2 3034.32   56.58 
   2   0  -2 2925.38   46.43 
   2   0   2 2938.87   54.22 
   3  -2   2 1852.85   42.82 
  -1   3   2 1944.02   33.96 
  -1   3  -2 1886.58   39.86 
  -2   3   2 1860.99   41.64 
  -2   3   2 1891.14   33.61 
   1   2  -2 1894.79   33.75 
   2   1  -2 1905.21   33.62 
   2   1   2 1978.38   37.11 
   2  -3   2 1972.42   43.46 
   1   2  -2 1936.75   41.82 
   1  -3   2 1926.01   41.28 
   2   1   2 1912.41   34.10 
  -1   3   2 1877.64   40.59 
   1   2   2 1927.31   34.12 
  -3   2   2 1905.66   41.31 
  -2   3  -2 1865.36   34.04 
   3  -1  -2 1880.22   33.67 
   1   2   2 1971.10   37.46 
   3  -1   2 1942.22   40.92 
  -1   3  -2 1879.21   33.95 
  -3   1   2 1927.05   39.17 
  -3   3   2 2499.17   54.73 
   0   3  -2 2602.95   44.71 
   3   0   2 2557.12   49.93 
   0   3   2 2615.47   44.66 
   0   3   2 2540.15   50.92 
   3   0  -2 2575.80   44.50 
   0   3  -2 2633.40   53.59 
   3  -3   2 2623.39   57.26 
   3   0   2 2601.75   44.82 
   4  -2   2 2064.20   47.61 
  -2   4   2 2152.16   48.06 
   2   2   2 2144.37   39.27 
   4  -2  -2 2112.83   46.66 
  -2   4  -2 2122.53   39.39 
   2   2  -2 2079.38   38.53 
   2  -4   2 2028.02   47.75 
  -1   4  -2  851.35   20.66 
  -3   4   2  863.66   20.35 
   4  -3   2  877.17   28.12 
  -1   4   2  859.12   25.10 
  -1   4   2  854.52   20.49 
   1   3  -2  892.63   23.82 
   4  -1  -2  869.30   20.69 
   1   3   2  878.03   20.74 
   4  -1   2  877.48   21.09 
  -3   4   2  836.64   26.66 
   1   3  -2  882.74   20.66 
   1  -4   2  871.71   24.80 
   3  -4   2  854.74   27.58 
   3   1   2  871.62   20.83 
   3   1  -2  856.78   20.42 
   0   4  -2  651.78   18.02 
   4   0   2  651.90   18.29 
   4   0  -2  676.61   18.28 
   0   4   2  654.53   17.96 
   4  -4   2  632.30   24.82 
  -4   4   2  657.72   23.87 
   2   3   2  500.39   15.85 
   2   3  -2  477.02   15.25 
   5  -3  -2  481.59   20.02 
   2   3  -2  480.28   17.80 
  -3   5   2  455.23   20.18 
  -2   5  -2  452.50   15.41 
  -3   5   2  489.67   15.56 
   3  -5   2  473.36   20.54 
  -2   5   2  482.95   19.92 
   5  -2  -2  461.40   15.22 
   3   2   2  464.65   15.47 
  -2   5   2  457.65   15.27 
   5  -3   2  471.82   20.51 
   3   2  -2  460.26   15.26 
   5  -2   2  453.07   15.35 
  -3   5  -2  459.70   15.52 
   2  -5   2  471.23   19.43 
   4   1  -2 1218.52   28.65 
  -1   5  -2 1263.84   28.68 
   5  -4   2 1195.71   37.68 
   1   4  -2 1190.78   28.12 
   4  -5  -2 1177.61   36.95 
   5  -1  -2 1182.78   28.32 
   1   4   2 1194.39   28.23 
   4  -5   2 1193.76   37.50 
   5  -1   2 1208.90   28.71 
  -1   5   2 1172.55   27.94 
   4   1   2 1199.28   28.66 
   5  -4  -2 1168.16   36.04 
   5   0  -2  227.98   11.66 
   0   5  -2  237.21   11.48 
   5   0   2  229.99   11.41 
   0   5   2  219.74   11.13 
   5  -5   2  230.79   16.32 
   5  -5  -2  234.42   15.65 
   0   0   3    1.02    1.25 
   0   0  -3   11.91    2.23 
   0  -1   3 3640.56   67.09 
   0   1   3 3937.59   68.15 
   0   1  -3 3833.14   55.71 
   1  -1  -3 3776.23   72.03 
   1   0   3 3804.47   56.26 
   1  -1   3 3796.40   68.81 
  -1   1   3 3781.07   67.56 
   1   0   3 3804.90   68.15 
   0   1   3 3675.74   55.67 
   0   1  -3 3698.20   73.09 
   1   0  -3 3713.78   54.67 
   1   0  -3 3652.58   73.05 
  -1   0   3 3594.43   66.05 
  -1   1  -3 3730.70   73.75 
   1  -2   3    4.33    2.15 
  -1  -1   3    3.70    1.48 
   1   1   3    1.77    1.29 
  -1   2   3    9.87    2.64 
   2  -1   3    2.92    2.00 
   1   1  -3    3.42    1.66 
  -1   2  -3    0.54    1.43 
  -2   1   3    1.04    1.46 
   1   1   3    7.01    2.29 
   2  -1  -3    3.09    1.58 
  -1   2   3    3.73    1.48 
   1   1  -3    1.99    1.32 
   1  -2  -3    1.94    1.18 
   0   2   3 2692.50   52.06 
   2   0   3 2742.92   52.26 
   0   2  -3 2704.22   55.54 
  -2   2   3 2744.39   53.24 
  -2   0   3 2691.90   48.96 
   0   2   3 2667.31   43.56 
   2   0   3 2760.17   44.22 
   0   2  -3 2707.63   43.61 
   2   0  -3 2652.79   42.59 
   2  -2  -3 2721.58   53.40 
   0  -2   3 2714.46   51.32 
   2  -2   3 2659.81   55.09 
   2   0  -3 2674.77   56.77 
  -2   3  -3 2019.34   35.98 
   3  -2  -3 2004.65   43.68 
   1   2  -3 2029.70   44.58 
  -2   3   3 1998.72   34.97 
  -2   3   3 2054.22   44.34 
   2   1  -3 2042.20   45.60 
   3  -2   3 2009.44   45.36 
   3  -1   3 1987.50   43.56 
   1   2  -3 1998.18   35.05 
  -1   3  -3 2026.00   35.72 
   2  -3   3 2064.72   46.15 
   3  -1  -3 1973.30   34.87 
  -3   1   3 2025.86   40.91 
   2   1  -3 2007.87   34.82 
  -1   3   3 1973.87   35.13 
   1  -3   3 1985.55   43.74 
   2   1   3 2048.71   40.56 
  -1   3   3 1997.71   43.01 
   3  -1   3 1984.29   35.79 
   1   2   3 2001.41   35.50 
  -3   2   3 1980.81   42.87 
  -1   3  -3 2039.84   43.52 
   1   2   3 1990.25   40.50 
   3   0  -3    6.41    2.50 
   0   3   3   10.84    3.09 
   0   3  -3   14.83    3.24 
   0   3  -3    2.64    2.36 
   3   0   3    6.13    2.49 
   3  -3   3    8.70    4.35 
  -3   3   3    4.24    2.99 
   0   3   3   10.68    3.26 
   3   0   3    7.27    3.11 
   2  -4   3   10.80    4.26 
  -2   4  -3   31.05    5.06 
   2   2  -3    4.99    2.61 
  -2   4   3    4.72    3.14 
  -2   4   3    6.70    2.96 
   2   2  -3   15.15    3.74 
   4  -2   3    5.15    3.32 
  -4   2   3    6.81    3.37 
   2   2   3    1.22    2.35 
   3   1  -3 1166.75   24.95 
   1   3   3 1158.72   25.25 
   3   1   3 1177.22   25.65 
  -3   4   3 1153.41   32.90 
  -1   4   3 1131.15   25.04 
   4  -1   3 1175.67   30.49 
  -1   4  -3 1156.74   25.53 
   3  -4   3 1203.52   34.71 
   1   3  -3 1139.76   24.88 
   1   3  -3 1150.73   29.91 
  -1   4   3 1137.08   30.85 
   4  -3   3 1178.74   34.71 
   4  -1  -3 1196.43   25.45 
   4  -1   3 1168.15   25.93 
   4  -4   3  884.08   30.69 
   0   4   3  890.56   21.80 
   4   0   3  866.31   22.12 
   4   0  -3  898.54   21.72 
  -4   4   3  914.28   29.15 
   0   4  -3  862.51   21.73 
  -2   5   3  704.48   19.40 
   5  -2  -3  683.08   20.19 
   2   3   3  672.16   19.24 
  -3   5   3  732.36   26.39 
   3   2  -3  694.47   19.08 
  -2   5  -3  676.84   19.67 
   3   2   3  687.88   19.56 
   5  -3  -3  687.41   26.83 
   2   3  -3  710.81   23.15 
   3   2  -3  690.89   23.74 
   3  -5   3  690.28   25.98 
   2   3  -3  684.53   19.03 
  -2   5   3  681.32   25.04 
   5  -3   3  678.33   25.62 
   5  -2   3  697.48   19.57 
  -3   5   3  679.52   19.00 
  -3   5  -3  659.40   19.35 
   4   1   3    2.81    3.44 
  -1   5   3    5.44    3.81 
   1   4   3   12.81    4.61 
   5  -4   3    5.62    5.29 
  -1   5  -3    4.10    3.49 
   4   1  -3   14.50    4.83 
   5  -1   3    2.61    3.31 
  -4   5   3    1.56    4.26 
   5  -4  -3    5.27    4.81 
   1   4  -3    8.12    3.83 
   4  -5   3   12.42    5.94 
   0   5  -3  460.90   16.49 
   5  -5  -3  487.14   35.81 
   0   5   3  483.24   16.72 
   0   0  -4 4709.93   91.80 
   0   0   4 4728.38   84.79 
  -1   0   4    6.31    2.05 
   1   0   4    7.64    1.63 
   1   0  -4    9.38    0.79 
   0   1   4    5.00    2.24 
   1  -1   4    4.45    2.23 
   1  -1  -4    4.76    1.81 
   0  -1   4    5.43    2.18 
   0   1  -4    8.53    1.57 
   1   0   4    6.18    2.44 
   0   1  -4    6.46    2.25 
  -1   1  -4    4.52    1.94 
  -1   1   4    4.53    1.96 
   1   1  -4 3006.53   47.36 
   1   1   4 3091.57   59.28 
  -1   2  -4 3092.75   63.93 
   1   1  -4 3091.20   64.08 
   2  -1   4 3031.53   60.75 
   1  -2  -4 3010.93   60.94 
   2  -1  -4 3073.72   46.77 
  -1   2  -4 3184.16   48.99 
  -1   2   4 3043.30   47.55 
   1   1   4 3161.25   48.76 
  -1  -1   4 3045.46   56.67 
  -2   1   4 3073.09   58.60 
   2  -1  -4 3138.19   63.34 
  -2   0   4   39.72    3.61 
   0   2  -4   41.55    3.06 
   0   2   4   43.78    4.50 
  -2   2   4   50.44    6.28 
   2  -2   4   49.76    7.09 
   2  -2  -4   44.13    3.72 
   2   0   4   48.93    6.09 
   0  -2   4   40.71    4.21 
   0   2   4   44.24    3.15 
   0   2  -4   39.31    3.91 
   2   0   4   35.38    3.04 
   2   0  -4   37.79    4.36 
   2   0  -4   45.76    2.76 
   1   2   4   78.13    4.71 
   1   2  -4   81.14    4.58 
   1  -3   4   76.34    6.78 
   2   1  -4   81.78    4.42 
  -1   3  -4   79.55    4.85 
   1   2  -4   78.97    6.21 
   2   1   4   71.28    5.74 
   3  -1   4   80.26    4.88 
   1   2   4   88.70    6.39 
  -2   3   4   80.84    4.51 
   3  -2   4   72.02    7.17 
   2   1   4   71.15    4.68 
   3  -2  -4   67.83    5.35 
   2   1  -4   77.91    6.37 
  -3   1   4   82.37    5.87 
  -2   3   4   68.17    6.21 
   2  -3   4   72.01    7.30 
   3  -1  -4   75.61    6.47 
  -1   3   4   81.21    4.64 
  -3   2   4   64.82    6.03 
  -1   3  -4   67.21    5.73 
   3  -1   4   78.03    6.80 
  -1   3   4   70.61    6.25 
   0   3  -4 1449.27   35.12 
   3   0   4 1488.01   34.30 
   0   3   4 1461.96   34.52 
  -3   3   4 1405.54   35.96 
   3  -3   4 1413.33   38.48 
   0   3   4 1485.21   28.25 
   0   3  -4 1428.59   27.93 
   3   0   4 1461.78   28.67 
   3   0  -4 1447.02   37.58 
   2   2  -4 1066.93   29.64 
   2   2  -4 1017.12   22.14 
  -2   4   4 1041.72   22.52 
   4  -2  -4 1029.50   29.05 
   2   2   4 1043.12   23.25 
  -2   4   4 1022.72   29.87 
   4  -2   4 1046.29   30.85 
  -4   2   4 1031.38   28.16 
  -2   4  -4 1001.19   23.27 
   2  -4   4  999.38   30.40 
   1   3   4   96.28    6.08 
  -3   4   4   88.47    8.47 
   3   1   4   87.25    6.04 
   3   1  -4   88.80    7.77 
   1   3  -4  101.45    7.58 
  -1   4   4   99.98    8.20 
   4  -1   4   90.15    6.18 
   4  -3   4   86.90    9.18 
  -4   3   4   84.57    8.04 
  -1   4   4  102.20    6.22 
   4  -1   4   89.24    8.09 
   4  -1  -4   91.78    7.99 
  -1   4  -4   97.90    6.22 
   3  -4   4   88.79    9.20 
   4  -4   4   96.33   10.07 
   0   4   4  107.13    6.81 
  -4   4   4   97.27    9.11 
   4   0   4   90.22    6.59 
   4   0  -4   96.53    8.60 
   0   4  -4  106.77    6.81 
   2   3  -4   86.73    6.80 
  -2   5   4   92.35    9.36 
   2   3   4   89.01    6.81 
   5  -2   4   85.90    6.67 
   3  -5   4  103.33   13.57 
   5  -2  -4   92.54    8.79 
   3   2   4   86.56    6.71 
  -2   5   4   75.58    6.59 
  -3   5   4   90.11    9.49 
   5  -3   4   99.67   10.30 
   3   2  -4   87.48    8.43 
   2   3  -4  108.60    8.66 
  -2   5  -4   93.98    7.05 
  -1   5   4  434.71   15.09 
   5  -1  -4  432.57   20.25 
   4  -5   4  442.53   22.06 
  -1   5  -4  422.43   15.03 
   4   1   4  406.21   15.12 
   5  -4   4  437.05   22.42 
   1   4  -4  431.32   14.98 
  -4   5   4  430.99   21.03 
   4   1  -4  438.82   19.53 
   5  -1   4  451.25   15.69 
   0   0   5   -0.83    1.33 
   0   0  -5    7.15    2.57 
   1   0   5 3096.52   46.78 
   1   0   5 2882.88   59.82 
   1   0  -5 2989.67   63.71 
  -1   1  -5 3111.20   64.74 
   1  -1  -5 3104.71   63.13 
   0  -1   5 3062.57   59.76 
   0   1   5 3037.60   60.14 
  -1   1   5 3105.27   60.09 
   0   1  -5 3064.83   64.42 
  -1   0   5 3072.79   58.78 
   1  -1   5 3108.60   61.30 
   1   1  -5    2.03    1.90 
   2  -1   5    1.13    2.66 
  -1  -1   5    1.87    2.07 
  -1   2  -5    1.29    2.27 
  -1   2   5    3.97    2.56 
  -2   1   5    0.72    2.01 
   2  -1  -5    1.44    1.74 
   1  -2   5   -0.57    1.25 
   1   1   5    3.14    1.81 
   1   1   5    3.82    2.57 
  -2   0   5 2313.24   45.91 
   2  -2  -5 2282.64   49.07 
   0   2   5 2328.36   48.94 
  -2   2   5 2383.97   49.42 
   2   0  -5 2307.00   52.30 
   0   2  -5 2320.56   51.76 
   2   0   5 2327.73   38.79 
   2   0   5 2270.95   48.91 
   0  -2   5 2227.52   47.73 
   2  -2   5 2294.48   51.02 
   2   1   5 1687.00   39.30 
   3  -1   5 1723.13   42.21 
  -1   3   5 1745.46   41.40 
   3  -2  -5 1746.96   41.11 
   2   1  -5 1744.98   43.26 
  -2   3   5 1813.67   42.15 
   3  -2   5 1765.80   43.45 
   3  -1   5 1767.51   32.82 
  -3   1   5 1774.73   38.77 
   2   1   5 1767.91   32.47 
   1   2   5 1831.60   40.46 
   3  -1  -5 1737.69   42.83 
   1   2  -5 1757.19   42.56 
   2  -3   5 1792.23   43.91 
  -1   3  -5 1775.45   42.34 
   1  -3   5 1721.40   41.44 
  -3   2   5 1780.82   40.64 
  -1   3  -5 1773.13   32.46 
   1   2   5 1776.66   32.15 
   3  -3   5    2.06    3.64 
   3   0   5    1.81    2.83 
   0   3   5    2.24    2.81 
   3   0  -5    2.27    2.55 
  -3   3   5    2.18    2.73 
   0   3  -5    2.06    2.43 
   3   0   5    2.87    2.40 
   4  -2   5    5.66    3.85 
  -2   4  -5    2.65    2.90 
   2   2  -5    1.47    2.64 
   2  -4   5    1.74    3.91 
  -2   4   5    3.91    3.66 
   2   2   5    0.59    2.50 
   4  -2  -5    0.24    2.28 
  -4   3   5 1065.77   31.32 
   3   1   5 1070.43   24.28 
  -1   4  -5 1037.24   23.86 
   3   1  -5 1021.77   31.36 
   4  -1  -5 1029.99   31.86 
   4  -1   5 1052.79   24.42 
  -3   4   5 1082.03   32.28 
   4  -1   5 1066.85   31.21 
  -1   4   5 1007.30   30.11 
   1   3  -5 1065.03   30.32 
   1   3   5 1055.31   23.68 
   3  -4   5 1025.83   33.68 
   4  -3   5 1020.03   33.50 
   4   0  -5  842.70   29.08 
  -4   4   5  889.13   30.05 
   4  -4   5  904.89   32.71 
  -3   5   5  631.45   25.58 
   2   3   5  664.31   18.90 
   3   2   5  643.02   18.91 
   3  -5   5  628.30   26.28 
   5  -3   5  669.02   26.81 
  -2   5   5  678.16   25.61 
   5  -2   5  645.64   19.22 
   3   2  -5  676.01   24.33 
   5  -2   5  635.42   24.61 
   5  -2  -5  631.05   23.97 
  -2   5  -5  661.08   19.23 
   2   3  -5  536.17   22.32 
   0   0  -6  147.31    8.70 
   0   0   6  150.80    8.87 
   0   1  -6  876.50   25.04 
   1   0  -6  839.56   24.43 
   1   0   6  836.63   24.18 
  -1   1   6  863.27   23.84 
   0   1   6  806.88   23.63 
   1  -1  -6  834.57   23.59 
  -1   0   6  855.48   23.15 
   1  -1   6  828.04   24.48 
  -1   1  -6  867.90   25.11 
   0  -1   6  860.77   23.86 
   1  -2  -6  184.32    9.07 
   1   1   6  180.71    9.97 
   2  -1   6  178.40   10.85 
  -1  -1   6  187.75    9.31 
   2  -1  -6  197.14    9.98 
  -1   2  -6  181.55   10.47 
  -1   2   6  181.77   10.23 
  -2   1   6  189.44    9.86 
   2   0   6  500.11   18.19 
  -2   2   6  518.68   18.38 
   2   0  -6  514.12   18.56 
  -2   0   6  525.54   16.33 
   2  -2   6  489.11   19.07 
   0   2  -6  510.73   18.44 
   2  -2  -6  514.24   16.73 
   0  -2   6  498.78   17.39 
   0   2   6  507.46   18.16 
   3  -2   6  334.73   16.04 
   1   2   6  322.50   14.20 
   2   1   6  306.16   13.77 
   2   1  -6  335.53   15.25 
  -2   3   6  337.09   15.36 
   3  -2  -6  312.41   13.29 
  -1   3  -6  326.09   14.77 
  -1   3   6  324.38   14.95 
   1  -3   6  321.79   15.00 
   2  -3   6  318.53   15.92 
  -3   2   6  335.83   14.74 
   3  -1   6  297.49   15.12 
   3  -1  -6  329.26   15.03 
   1   2  -6  311.66   14.41 
   3  -3   6  183.01   12.96 
   3   0   6  187.88   11.35 
   0   3   6  177.57   10.97 
   0   3  -6  198.00   11.28 
   3   0  -6  187.69   11.87 
  -3   3   6  209.16   12.18 
   2   2  -6  180.05   11.69 
  -2   4   6  168.56   11.66 
   4  -2   6  172.22    8.52 
   2  -4   6  168.23   12.69 
   4  -2  -6  200.08   11.50 
   4  -2   6  190.41   13.09 
  -3   4   6  123.42   10.64 
  -1   4   6  127.05   10.24 
   4  -3   6  132.42   11.84 
  -4   3   6  130.76   10.67 
   4  -1  -6  141.45   10.75 
   3   1  -6  135.79   10.60 
   4  -1   6  132.51   10.92 
   3  -4   6  153.81   12.86 
   4  -1   6  135.29    8.01 
   4   0  -6   94.05    9.41 
  -4   4   6   94.52   10.15 
   4  -4   6  120.44   15.54 
   4   0   6  100.07    7.37 
   0   0   7   12.72    4.20 
   0   0  -7   -0.33    2.14 
   0   1  -7  889.63   27.27 
  -1   1  -7  878.00   27.25 
   0   1   7  889.13   26.15 
   1  -1   7  935.86   27.27 
  -1   0   7  907.88   25.48 
   1  -1  -7  887.24   26.11 
   1   0  -7  885.23   26.79 
  -1   1   7  863.94   25.62 
   1   0   7  935.51   26.96 
   0  -1   7  896.76   26.10 
  -1   2  -7   -1.06    2.48 
  -2   1   7    0.59    2.40 
   2  -1   7   -0.27    2.58 
   2  -1  -7    1.88    2.48 
   1   1  -7   14.17    4.14 
  -1   2   7    1.41    2.90 
   1  -2   7    0.54    3.05 
   1   1   7    2.46    2.75 
  -1  -1   7   -2.27    2.24 
   0  -2   7  763.96   23.34 
   2  -2   7  708.57   24.97 
   0   2   7  667.47   22.92 
  -2   2   7  707.16   23.42 
   2   0   7  713.56   23.75 
   0   2  -7  698.31   23.95 
   2   0  -7  704.88   23.85 
   3  -1   7  567.52   22.04 
   3  -1  -7  564.47   21.36 
   1  -3   7  581.17   21.80 
   2   1   7  568.55   20.25 
  -1   3   7  543.36   21.13 
   2   1  -7  547.00   21.46 
   1   2  -7  562.48   21.21 
   2  -3   7  592.11   23.36 
   1   2   7  513.44   19.87 
  -2   3   7  529.05   21.19 
  -3   2   7  554.48   20.58 
   3  -2   7  539.10   22.46 
   0   3   7   -0.67    2.74 
   3  -3   7    5.53    4.64 
   0   3  -7    0.13    2.86 
   3   0  -7    0.94    2.84 
  -3   3   7   19.44    5.93 
   3   0   7    0.60    3.44 
  -2   4   7    0.94    4.06 
   2   2  -7    2.49    3.44 
   2  -4   7    3.77    4.89 
   4  -2   7   -0.10    4.27 
   3   1  -7  356.70   18.59 
  -3   4   7  381.89   19.17 
   3  -4   7  400.69   20.81 
   4  -1   7  369.31   18.78 
  -1   4   7  371.08   18.32 
  -4   3   7  390.55   18.88 
   1   3  -7  376.14   17.85 
   4  -1  -7  380.99   19.01 
   4  -3   7  401.90   20.80 
   0   0  -8 1309.77   36.70 
   0   0   8 1322.85   35.29 
  -1   0   8    0.98    3.15 
   0  -1   8   -0.41    2.21 
   0   1  -8    0.11    2.43 
   1  -1  -8   -0.35    2.43 
   0   1   8    2.69    2.95 
   1  -1   8    2.75    3.46 
  -1   1   8   -1.31    2.56 
   1   0  -8    2.21    2.73 
   1   0   8   -0.02    3.03 
  -1   2   8  862.31   27.69 
   1   1  -8  861.23   28.55 
  -1   2  -8  908.25   29.34 
   2  -1   8  874.28   28.68 
  -2   1   8  873.98   26.93 
   2  -1  -8  855.82   27.66 
   1  -2   8  877.32   28.78 
   1   1   8  879.42   27.74 
   0   2  -8    6.02    3.95 
   0   2   8    9.61    4.49 
  -2   2   8   10.09    4.94 
   2  -2   8    8.73    4.77 
   2   0   8    8.29    4.49 
   2   0  -8   14.17    4.61 
   3  -2   8   27.35    7.90 
  -2   3   8    9.96    4.93 
   1   2  -8   13.78    4.87 
  -1   3   8   15.07    5.41 
  -3   2   8   20.42    6.30 
   3  -1   8   10.21    4.77 
   2   1   8   21.60    6.13 
   2   1  -8   14.59    4.98 
  -1   3  -8   19.03    6.14 
   2  -3   8   18.69    6.90 
   3  -1  -8   11.75    4.68 
   1  -3   8   18.59    6.37 
   1   2   8   18.48    5.87 
   0   3  -8  460.81   20.27 
   3   0   8  422.06   19.90 
   3   0  -8  432.94   20.67 
   0   3   8  438.72   19.60 
   3  -3   8  431.55   21.89 
   0   0  -9   -0.99    2.49 
   0   0   9   -0.40    3.06 
   1  -1   9  112.83   10.30 
   1   0  -9  121.17   10.20 
   0   1   9  103.53    9.48 
   0   1  -9  116.70   10.21 
   1  -1  -9  112.41    9.76 
   1   0   9  116.52   10.31 
  -1   1   9  117.62    9.97 
  -1   0   9   97.36    9.11 
  -1   2  -9    0.36    3.49 
   1   1   9    0.57    3.55 
   2  -1  -9   -0.90    2.97 
  -1   2   9   -1.05    2.90 
   1  -2   9    0.22    4.25 
  -2   1   9    0.34    3.68 
   2  -1   9    0.82    3.86 
   1   1  -9    7.35    4.38 
   2   0   9   91.21    9.79 
   0   2   9  100.54   12.35 
   0   2  -9   94.18    9.70 
   2  -2   9  102.42   10.57 
   2   0  -9   97.15    9.81 
  -2   2   9   94.32    9.42 
   0   0  10   58.55   10.35 
   0   0   0    0.00    0.00 
;
_shelx_hkl_checksum              39581
loop_
_space_group_symop_operation_xyz
'x, y, z'
'-y, x-y, z'
'-x+y, -x, z'
'-x, -y, z+1/2'
'y, -x+y, z+1/2'
'x-y, x, z+1/2'
'-y, -x, z'
'-x+y, y, z'
'x, x-y, z'
'y, x, z+1/2'
'x-y, -y, z+1/2'
'-x, -x+y, z+1/2'
loop_
_atom_site_label
_atom_site_type_symbol
_atom_site_fract_x
_atom_site_fract_y
_atom_site_fract_z
_atom_site_U_iso_or_equiv
_atom_site_adp_type
_atom_site_occupancy
_atom_site_site_symmetry_order
_atom_site_calc_flag
_atom_site_refinement_flags_posn
_atom_site_refinement_flags_adp
_atom_site_refinement_flags_occupancy
_atom_site_disorder_assembly
_atom_site_disorder_group
Ca Ca 0.000000 0.000000 -0.0002(11) 0.063(3) Uani 1 6 d S T P . .
Mn Mn 0.666667 0.333333 0.1631(10) 0.034(3) Uani 0.355(13) 6 d S T P . .
Ag Ag 0.666667 0.333333 0.1631(10) 0.034(3) Uani 0.29(3) 6 d S T P . .
Sb Sb 0.333333 0.666667 0.25381(2) 0.0262(10) Uani 1 6 d S T P . .
loop_
_atom_site_aniso_label
_atom_site_aniso_U_11
_atom_site_aniso_U_22
_atom_site_aniso_U_33
_atom_site_aniso_U_23
_atom_site_aniso_U_13
_atom_site_aniso_U_12
Ca 0.088(4) 0.088(4) 0.012(3) 0.000 0.000 0.044(2)
Mn 0.018(3) 0.018(3) 0.068(5) 0.000 0.000 0.0088(14)
Ag 0.018(3) 0.018(3) 0.068(5) 0.000 0.000 0.0088(14)
Sb 0.0194(10) 0.0194(10) 0.0400(13) 0.000 0.000 0.0097(5)
loop_
_atom_type_symbol
_atom_type_description
_atom_type_scat_dispersion_real
_atom_type_scat_dispersion_imag
_atom_type_scat_source
Ca Ca 0.2262 0.3064 'International Tables Vol C Tables 4.2.6.8 and 6.1.1.4'
Mn Mn 0.3368 0.7283 'International Tables Vol C Tables 4.2.6.8 and 6.1.1.4'
Ag Ag -0.8971 1.1015 'International Tables Vol C Tables 4.2.6.8 and 6.1.1.4'
Sb Sb -0.5866 1.5461 'International Tables Vol C Tables 4.2.6.8 and 6.1.1.4'
loop_
_geom_angle_atom_site_label_1
_geom_angle_atom_site_label_2
_geom_angle_atom_site_label_3
_geom_angle
_geom_angle_site_symmetry_1
_geom_angle_site_symmetry_3
_geom_angle_publ_flag
Mn Ca Mn 103.4(3) 1_455 . ?
Mn Ca Mn 103.4(3) 1_455 1_445 ?
Mn Ca Mn 103.4(3) . 1_445 ?
Mn Ca Sb 60.22(15) 1_455 4_564 ?
Mn Ca Sb 127.89(9) . 4_564 ?
Mn Ca Sb 127.89(9) 1_445 4_564 ?
Mn Ca Sb 127.89(9) 1_455 4_554 ?
Mn Ca Sb 127.89(9) . 4_554 ?
Mn Ca Sb 60.22(15) 1_445 4_554 ?
Sb Ca Sb 90.15(17) 4_564 4_554 ?
Mn Ca Sb 127.89(9) 1_455 4_664 ?
Mn Ca Sb 60.22(15) . 4_664 ?
Mn Ca Sb 127.89(9) 1_445 4_664 ?
Sb Ca Sb 90.15(17) 4_564 4_664 ?
Sb Ca Sb 90.15(17) 4_554 4_664 ?
Mn Ca Sb 118.9(3) 1_455 1_545 ?
Mn Ca Sb 52.02(11) . 1_545 ?
Mn Ca Sb 52.02(11) 1_445 1_545 ?
Sb Ca Sb 179.1(2) 4_564 1_545 ?
Sb Ca Sb 90.464(10) 4_554 1_545 ?
Sb Ca Sb 90.464(10) 4_664 1_545 ?
Mn Ca Sb 52.02(11) 1_455 1_445 ?
Mn Ca Sb 118.9(3) . 1_445 ?
Mn Ca Sb 52.02(11) 1_445 1_445 ?
Sb Ca Sb 90.464(10) 4_564 1_445 ?
Sb Ca Sb 90.464(10) 4_554 1_445 ?
Sb Ca Sb 179.1(2) 4_664 1_445 ?
Sb Ca Sb 88.92(17) 1_545 1_445 ?
Mn Ca Sb 52.02(11) 1_455 . ?
Mn Ca Sb 52.02(11) . . ?
Mn Ca Sb 118.9(3) 1_445 . ?
Sb Ca Sb 90.464(11) 4_564 . ?
Sb Ca Sb 179.1(2) 4_554 . ?
Sb Ca Sb 90.464(10) 4_664 . ?
Sb Ca Sb 88.92(17) 1_545 . ?
Sb Ca Sb 88.92(17) 1_445 . ?
Mn Ca Mn 161.1(4) 1_455 4_654 ?
Mn Ca Mn 88.16(9) . 4_654 ?
Mn Ca Mn 88.16(9) 1_445 4_654 ?
Sb Ca Mn 100.9(2) 4_564 4_654 ?
Sb Ca Mn 46.05(8) 4_554 4_654 ?
Sb Ca Mn 46.05(8) 4_664 4_654 ?
Sb Ca Mn 79.98(9) 1_545 4_654 ?
Sb Ca Mn 134.37(4) 1_445 4_654 ?
Sb Ca Mn 134.37(4) . 4_654 ?
Mn Ca Mn 88.16(9) 1_455 4_554 ?
Mn Ca Mn 161.1(4) . 4_554 ?
Mn Ca Mn 88.16(9) 1_445 4_554 ?
Sb Ca Mn 46.05(8) 4_564 4_554 ?
Sb Ca Mn 46.06(8) 4_554 4_554 ?
Sb Ca Mn 100.9(2) 4_664 4_554 ?
Sb Ca Mn 134.37(4) 1_545 4_554 ?
Sb Ca Mn 79.98(9) 1_445 4_554 ?
Sb Ca Mn 134.37(4) . 4_554 ?
Mn Ca Mn 77.1(2) 4_654 4_554 ?
Sb Mn Sb 113.91(13) 1_655 1_545 ?
Sb Mn Sb 113.90(13) 1_655 . ?
Sb Mn Sb 113.90(13) 1_545 . ?
Sb Mn Ca 70.61(7) 1_655 1_655 ?
Sb Mn Ca 70.61(7) 1_545 1_655 ?
Sb Mn Ca 169.5(4) . 1_655 ?
Sb Mn Ca 169.5(4) 1_655 . ?
Sb Mn Ca 70.61(7) 1_545 . ?
Sb Mn Ca 70.61(7) . . ?
Ca Mn Ca 103.4(3) 1_655 . ?
Sb Mn Ca 70.61(7) 1_655 1_665 ?
Sb Mn Ca 169.5(4) 1_545 1_665 ?
Sb Mn Ca 70.61(7) . 1_665 ?
Ca Mn Ca 103.4(3) 1_655 1_665 ?
Ca Mn Ca 103.4(3) . 1_665 ?
Sb Mn Sb 104.56(16) 1_655 4_664 ?
Sb Mn Sb 104.56(16) 1_545 4_664 ?
Sb Mn Sb 104.56(16) . 4_664 ?
Ca Mn Sb 64.9(2) 1_655 4_664 ?
Ca Mn Sb 64.9(2) . 4_664 ?
Ca Mn Sb 64.9(2) 1_665 4_664 ?
Sb Mn Ca 58.48(9) 1_655 4_655 ?
Sb Mn Ca 58.48(9) 1_545 4_655 ?
Sb Mn Ca 121.5(3) . 4_655 ?
Ca Mn Ca 69.01(8) 1_655 4_655 ?
Ca Mn Ca 128.32(14) . 4_655 ?
Ca Mn Ca 128.32(14) 1_665 4_655 ?
Sb Mn Ca 133.95(14) 4_664 4_655 ?
Sb Mn Ca 58.48(9) 1_655 4_665 ?
Sb Mn Ca 121.5(3) 1_545 4_665 ?
Sb Mn Ca 58.48(9) . 4_665 ?
Ca Mn Ca 128.32(14) 1_655 4_665 ?
Ca Mn Ca 128.32(14) . 4_665 ?
Ca Mn Ca 69.01(8) 1_665 4_665 ?
Sb Mn Ca 133.95(14) 4_664 4_665 ?
Ca Mn Ca 77.1(2) 4_655 4_665 ?
Sb Mn Ca 121.5(3) 1_655 4 ?
Sb Mn Ca 58.48(9) 1_545 4 ?
Sb Mn Ca 58.48(9) . 4 ?
Ca Mn Ca 128.32(14) 1_655 4 ?
Ca Mn Ca 69.01(8) . 4 ?
Ca Mn Ca 128.32(14) 1_665 4 ?
Sb Mn Ca 133.95(14) 4_664 4 ?
Ca Mn Ca 77.1(2) 4_655 4 ?
Ca Mn Ca 77.1(2) 4_665 4 ?
Mn Sb Mn 113.91(13) 1_455 1_565 ?
Mn Sb Mn 113.90(13) 1_455 . ?
Mn Sb Mn 113.90(13) 1_565 . ?
Mn Sb Mn 104.56(16) 1_455 4_665 ?
Mn Sb Mn 104.56(16) 1_565 4_665 ?
Mn Sb Mn 104.56(16) . 4_665 ?
Mn Sb Ca 75.47(14) 1_455 4_565 ?
Mn Sb Ca 75.47(14) 1_565 4_565 ?
Mn Sb Ca 159.40(18) . 4_565 ?
Mn Sb Ca 54.84(12) 4_665 4_565 ?
Mn Sb Ca 159.40(18) 1_455 4_665 ?
Mn Sb Ca 75.47(14) 1_565 4_665 ?
Mn Sb Ca 75.47(14) . 4_665 ?
Mn Sb Ca 54.84(12) 4_665 4_665 ?
Ca Sb Ca 90.15(17) 4_565 4_665 ?
Mn Sb Ca 75.47(14) 1_455 4 ?
Mn Sb Ca 159.40(18) 1_565 4 ?
Mn Sb Ca 75.47(14) . 4 ?
Mn Sb Ca 54.84(12) 4_665 4 ?
Ca Sb Ca 90.15(17) 4_565 4 ?
Ca Sb Ca 90.15(17) 4_665 4 ?
Mn Sb Ca 57.37(9) 1_455 1_565 ?
Mn Sb Ca 57.37(9) 1_565 1_565 ?
Mn Sb Ca 129.42(18) . 1_565 ?
Mn Sb Ca 126.03(12) 4_665 1_565 ?
Ca Sb Ca 71.185(15) 4_565 1_565 ?
Ca Sb Ca 132.012(7) 4_665 1_565 ?
Ca Sb Ca 132.012(6) 4 1_565 ?
Mn Sb Ca 57.37(9) 1_455 . ?
Mn Sb Ca 129.42(18) 1_565 . ?
Mn Sb Ca 57.37(9) . . ?
Mn Sb Ca 126.03(12) 4_665 . ?
Ca Sb Ca 132.012(6) 4_565 . ?
Ca Sb Ca 132.012(6) 4_665 . ?
Ca Sb Ca 71.185(15) 4 . ?
Ca Sb Ca 88.92(17) 1_565 . ?
Mn Sb Ca 129.42(18) 1_455 1_665 ?
Mn Sb Ca 57.37(9) 1_565 1_665 ?
Mn Sb Ca 57.37(9) . 1_665 ?
Mn Sb Ca 126.03(12) 4_665 1_665 ?
Ca Sb Ca 132.012(7) 4_565 1_665 ?
Ca Sb Ca 71.185(15) 4_665 1_665 ?
Ca Sb Ca 132.012(7) 4 1_665 ?
Ca Sb Ca 88.92(17) 1_565 1_665 ?
Ca Sb Ca 88.92(17) . 1_665 ?
loop_
_geom_bond_atom_site_label_1
_geom_bond_atom_site_label_2
_geom_bond_distance
_geom_bond_site_symmetry_2
_geom_bond_publ_flag
Ca Mn 2.986(5) 1_455 ?
Ca Mn 2.986(5) . ?
Ca Mn 2.986(5) 1_445 ?
Ca Sb 3.308(5) 4_564 ?
Ca Sb 3.308(5) 4_554 ?
Ca Sb 3.308(5) 4_664 ?
Ca Sb 3.344(5) 1_545 ?
Ca Sb 3.344(5) 1_445 ?
Ca Sb 3.344(5) . ?
Ca Mn 3.757(9) 4_654 ?
Ca Mn 3.757(9) 4_554 ?
Mn Sb 2.794(2) 1_655 ?
Mn Sb 2.794(2) 1_545 ?
Mn Sb 2.795(2) . ?
Mn Sb 3.170(8) 4_664 ?
