#------------------------------------------------------------------------------
#$Date: 2022-01-04 01:16:27 +0200 (Tue, 04 Jan 2022) $
#$Revision: 271767 $
#$URL: file:///home/coder/svn-repositories/cod/cif/4/00/40/4004057.cif $
#------------------------------------------------------------------------------
#
# This file is available in the Crystallography Open Database (COD),
# http://www.crystallography.net/
#
# All data on this site have been placed in the public domain by the
# contributors.
#
data_4004057
loop_
_publ_author_name
'Liu, Kefeng'
'Liu, Jian'
'Liu, Qian'
'Wang, Qiqi'
'Yu, Fang'
'Liu, Xiao-Cun'
'Xia, Sheng-Qing'
_publ_section_title
;
 Phase Transitions, Structure Evolution, and Thermoelectric Properties
 Based on A2MnSb2 (A = Ca, Yb)
;
_journal_issue                   24
_journal_name_full               'Chemistry of Materials'
_journal_page_first              9732
_journal_page_last               9740
_journal_paper_doi               10.1021/acs.chemmater.1c03527
_journal_volume                  33
_journal_year                    2021
_chemical_formula_sum            'Ag0.28 Mn0.86 Sb2 Yb2'
_chemical_formula_weight         667.03
_space_group_crystal_system      hexagonal
_space_group_IT_number           186
_space_group_name_Hall           'P 6c -2c'
_space_group_name_H-M_alt        'P 63 m c'
_audit_creation_method           SHELXL-2018/3
_cell_angle_alpha                90
_cell_angle_beta                 90
_cell_angle_gamma                120
_cell_formula_units_Z            1
_cell_length_a                   4.6540(4)
_cell_length_b                   4.6540(4)
_cell_length_c                   7.6686(15)
_cell_measurement_reflns_used    590
_cell_measurement_temperature    296(2)
_cell_measurement_theta_max      27.53
_cell_measurement_theta_min      5.06
_cell_volume                     143.85(3)
_computing_cell_refinement       'Bruker SMART'
_computing_data_collection       'Bruker SMART'
_computing_data_reduction        'Bruker SAINT'
_computing_molecular_graphics    'Bruker SHELXTL'
_computing_publication_material  'Bruker SHELXTL'
_computing_structure_refinement  'SHELXL-2018/3 (Sheldrick, 2018)'
_computing_structure_solution    'Bruker SHELXTL'
_diffrn_ambient_temperature      296(2)
_diffrn_measured_fraction_theta_full 1.000
_diffrn_measured_fraction_theta_max 1.000
_diffrn_measurement_device_type  'CCD area detector'
_diffrn_measurement_method       'phi and omega scans'
_diffrn_radiation_type           MoK\a
_diffrn_radiation_wavelength     0.71073
_diffrn_reflns_av_R_equivalents  0.0296
_diffrn_reflns_av_unetI/netI     0.0222
_diffrn_reflns_Laue_measured_fraction_full 1.000
_diffrn_reflns_Laue_measured_fraction_max 1.000
_diffrn_reflns_limit_h_max       6
_diffrn_reflns_limit_h_min       -5
_diffrn_reflns_limit_k_max       5
_diffrn_reflns_limit_k_min       -6
_diffrn_reflns_limit_l_max       7
_diffrn_reflns_limit_l_min       -9
_diffrn_reflns_number            796
_diffrn_reflns_point_group_measured_fraction_full 0.889
_diffrn_reflns_point_group_measured_fraction_max 0.875
_diffrn_reflns_theta_full        25.242
_diffrn_reflns_theta_max         27.532
_diffrn_reflns_theta_min         5.058
_exptl_absorpt_coefficient_mu    44.054
_exptl_absorpt_correction_T_max  0.7455
_exptl_absorpt_correction_T_min  0.6152
_exptl_absorpt_correction_type   multi-scan
_exptl_crystal_colour            black
_exptl_crystal_density_diffrn    7.700
_exptl_crystal_description       block
_exptl_crystal_F_000             277
_exptl_crystal_size_max          0.100
_exptl_crystal_size_mid          0.060
_exptl_crystal_size_min          0.020
_refine_diff_density_max         3.054
_refine_diff_density_min         -1.474
_refine_diff_density_rms         0.301
_refine_ls_abs_structure_details
; 
 Refined as an inversion twin. 
;
_refine_ls_abs_structure_Flack   0.50(12)
_refine_ls_extinction_coef       0.117(15)
_refine_ls_extinction_expression Fc^*^=kFc[1+0.001xFc^2^\l^3^/sin(2\q)]^-1/4^
_refine_ls_extinction_method     'SHELXL-2018/3 (Sheldrick 2018)'
_refine_ls_goodness_of_fit_ref   1.222
_refine_ls_matrix_type           full
_refine_ls_number_parameters     14
_refine_ls_number_reflns         133
_refine_ls_number_restraints     2
_refine_ls_restrained_S_all      1.212
_refine_ls_R_factor_all          0.0361
_refine_ls_R_factor_gt           0.0327
_refine_ls_shift/su_max          0.000
_refine_ls_shift/su_mean         0.000
_refine_ls_structure_factor_coef Fsqd
_refine_ls_weighting_details
'w=1/[\s^2^(Fo^2^)+(0.0089P)^2^+5.3401P] where P=(Fo^2^+2Fc^2^)/3'
_refine_ls_weighting_scheme      calc
_refine_ls_wR_factor_gt          0.0715
_refine_ls_wR_factor_ref         0.0738
_reflns_Friedel_coverage         0.622
_reflns_Friedel_fraction_full    0.759
_reflns_Friedel_fraction_max     0.729
_reflns_number_gt                118
_reflns_number_total             133
_reflns_threshold_expression     'I > 2\s(I)'
_cod_data_source_file            cm1c03527_si_003.cif
_cod_data_source_block           s
_cod_original_cell_volume        143.85(4)
_cod_database_code               4004057
_shelx_shelxl_version_number     2018/3
_shelx_space_group_comment
; 
The symmetry employed for this shelxl refinement is uniquely defined 
by the following loop, which should always be used as a source of 
symmetry information in preference to the above space-group names. 
They are only intended as comments. 
;
_shelx_estimated_absorpt_t_min   0.096
_shelx_estimated_absorpt_t_max   0.473
_shelx_res_file
; 
TITL s in P6(3)mc 
    s.res 
    created by SHELXL-2018/3 at 13:19:38 on 27-Jul-2021 
CELL 0.71073   4.6540   4.6540   7.6686  90.000  90.000 120.000 
ZERR    1.00   0.0004   0.0004   0.0015   0.000   0.000   0.000 
LATT -1 
SYMM -Y, X-Y, Z 
SYMM -X+Y, -X, Z 
SYMM -X, -Y, 0.5+Z 
SYMM Y, -X+Y, 0.5+Z 
SYMM X-Y, X, 0.5+Z 
SYMM -Y, -X, Z 
SYMM -X+Y, Y, Z 
SYMM X, X-Y, Z 
SYMM Y, X, 0.5+Z 
SYMM X-Y, -Y, 0.5+Z 
SYMM -X, -X+Y, 0.5+Z 
SFAC MN AG SB YB 
UNIT 0.86 0.28 2 2 
TEMP 23.000 
SIZE 0.02 0.06 0.10 
  
L.S. 4 
BOND 
ACTA 
twin 
FMAP 2 
PLAN 2 
  
EXYZ MN AG 
EADP MN AG 
sump 1.0 0.02 2.0 2 1.0 3 
WGHT    0.008900    5.340100 
EXTI    0.116945 
BASF   0.49661 
FVAR       0.79431   0.43621   0.12762 
YB    4    0.000000    0.000000   -0.000490    10.16667    0.08473    0.08473 = 
         0.02090    0.00000    0.00000    0.04236 
MN    1    0.666667    0.333333    0.172809    20.16667    0.01313    0.01313 = 
         0.06545    0.00000    0.00000    0.00656 
AG    2    0.666667    0.333333    0.172809    30.16667    0.01313    0.01313 = 
         0.06545    0.00000    0.00000    0.00656 
SB    3    0.333333    0.666667    0.258880    10.16667    0.02224    0.02224 = 
         0.04310    0.00000    0.00000    0.01112 
  
HKLF 4 
  
  
  
  
REM  s in P6(3)mc 
REM wR2 = 0.0738, GooF = S = 1.222, Restrained GooF = 1.212 for all data 
REM R1 = 0.0327 for 118 Fo > 4sig(Fo) and 0.0361 for all 133 data 
REM 14 parameters refined using 1 restraints 
  
END 
  
WGHT      0.0089      5.3327 
  
REM Highest difference peak  3.054,  deepest hole -1.474,  1-sigma level  0.301 
Q1    1   0.6667  0.3333  0.3734  10.16667  0.05    3.05 
Q2    1   0.3333  0.6667  0.3979  10.16667  0.05    1.74 
;
_shelx_res_checksum              33980
_shelx_hkl_file
; 
   1  -1   0 1565.77   55.67 
   1   0   0 1556.84   54.44 
  -1   0   0 1667.21   61.30 
  -1  -1   0 8459.19  336.88 
   1  -2   0 9318.69  304.91 
  -2   1   0 8933.82  335.54 
   2  -1   0 9993.51  305.67 
   1   1   0 9096.33  302.92 
  -1  -1   0 9133.01  296.48 
   2  -2   0  505.33   23.08 
   0   2   0  562.59   20.83 
  -2   0   0  544.97   25.35 
   2   0   0  541.59   21.48 
  -1   3   0   97.50    7.31 
   3  -2   0   90.81    9.44 
  -1  -2   0  117.17    9.45 
   2   1   0  115.28    6.91 
   2  -3   0  102.91    8.37 
  -3   1   0  125.42    9.22 
   3  -1   0  120.61    8.39 
  -2  -1   0   94.19   10.26 
   1   2   0  115.51    6.68 
   0  -3   0 4898.27  181.83 
   3  -3   0 5153.20  168.53 
   0   3   0 4603.55  164.36 
  -3   0   0 4737.51  184.68 
   3   0   0 4982.58  165.39 
   2   2   0 3584.99  124.70 
   2  -4   0 3665.92  128.09 
  -2  -2   0 3623.63  142.18 
   4  -2   0 3731.95  128.19 
   4  -1   0   17.47    4.44 
  -1   4   0   22.66    4.83 
  -4   1   0   11.28    4.59 
   4  -3   0   19.74    5.13 
   3   1   0   22.56    4.26 
  -1  -3   0   19.48    5.70 
   3  -4   0   17.03    4.58 
  -3  -1   0   22.32    6.07 
   1   3   0   26.12    4.18 
   4  -4   0   52.31    8.48 
   0   4   0   60.74    6.77 
   4   0   0   55.00    6.79 
  -4   0   0   63.87    9.21 
   3   2   0   83.25    8.19 
   3  -5   0   65.78    9.20 
   2   3   0  100.33    9.02 
  -3  -2   0   88.90   12.32 
  -2  -3   0   87.84   12.33 
   5  -2   0   75.17    9.02 
   5  -3   0   93.36   10.87 
   2  -5   0   80.13    9.75 
   1  -5   0 1199.70   47.26 
   4   1   0 1186.33   45.90 
  -4  -1   0 1227.10   54.30 
   5  -4   0 1121.88   49.60 
  -5   1   0 1218.71   53.63 
   5  -1   0 1254.97   47.36 
   4  -5   0 1161.48   48.27 
   1   4   0 1221.51   45.89 
   5   0   0  113.60   10.58 
  -5   0   0  119.87   13.52 
   5  -5   0   88.36   10.97 
  -3  -3   0  687.49   48.44 
   3  -6   0  648.91   31.28 
   0   1  -1 1479.14   48.77 
  -1   0  -1 1404.34   47.53 
  -1   1  -1 1485.22   49.78 
   1   0  -1 1395.25   48.65 
   1  -1  -1 1424.13   49.84 
   0  -1   1 1366.73   52.96 
   0  -1  -1 1389.71   47.76 
  -1   0  -1 1351.18   55.11 
   1   0   1 1385.11   48.65 
  -1   0   1 1446.77   54.23 
   1   0  -1 1446.55   46.84 
   0   1   1 1411.25   47.89 
   1  -1   1 1410.92   50.25 
  -1  -1   1   -2.43    1.71 
   1   1   1    0.01    0.85 
  -1  -1  -1    0.42    1.73 
  -2   1  -1   -0.61    1.42 
  -1  -1  -1    2.54    0.88 
   1  -2  -1   -0.53    1.27 
  -1   2  -1   -0.19    1.49 
   2  -1   1   -1.11    1.34 
  -2   1  -1    1.35    2.51 
   1   1  -1    0.17    0.96 
   2  -1  -1    0.61    1.63 
   2   0   1  940.37   35.21 
   2   0  -1  928.93   31.82 
  -2   0   1  953.75   40.00 
  -2   0  -1  971.88   33.57 
  -2   0  -1  985.37   40.90 
   0  -2   1  957.89   38.10 
   0   2   1  992.47   34.45 
   2  -2  -1  912.20   37.39 
   2  -2   1  997.90   37.76 
   0   2  -1  943.88   34.91 
   2   0  -1  966.35   35.38 
   1   2   1  674.98   25.22 
   2  -3  -1  632.01   27.85 
  -1   3  -1  682.14   27.31 
   3  -1   1  644.13   27.26 
   1   2  -1  731.94   26.20 
   3  -2   1  670.40   28.86 
   2  -3   1  678.83   28.58 
   2   1  -1  666.88   26.03 
   3  -1  -1  682.87   25.34 
  -1  -2  -1  639.17   23.69 
  -2  -1  -1  703.96   31.98 
  -3   1  -1  684.54   30.97 
  -1  -2  -1  727.40   30.82 
  -1  -2   1  676.82   31.60 
   3  -1  -1  650.40   27.72 
   1  -3  -1  678.37   27.52 
   3  -2  -1  629.95   28.91 
  -2  -1   1  606.37   30.84 
   0  -3   1   -0.70    2.24 
  -3   0  -1   -0.76    3.18 
  -3   0   1   -2.27    2.81 
   3   0   1    0.70    1.92 
   0   3   1    1.65    1.81 
   0   3  -1    2.28    2.01 
   3   0  -1    0.29    1.75 
   3  -3  -1    3.64    3.57 
   3  -3   1   -0.43    2.32 
   4  -2   1   -0.29    2.58 
  -2  -2  -1    7.48    4.20 
   2  -4   1    0.92    2.86 
   2   2   1    0.92    1.55 
   2   2  -1    1.78    2.11 
   4  -2  -1    1.41    2.64 
  -2  -2   1   -0.79    3.86 
   2  -4  -1   -0.03    2.60 
   3  -4   1  363.61   19.49 
  -4   1  -1  352.68   20.73 
   4  -3   1  374.25   20.31 
   1   3  -1  383.64   17.29 
  -3  -1   1  373.30   21.91 
  -1  -3  -1  368.40   20.81 
  -1  -3   1  364.06   22.85 
   3   1   1  357.88   16.80 
   3  -4  -1  358.35   19.12 
   4  -1   1  385.13   18.25 
  -3  -1  -1  362.76   21.50 
  -1   4  -1  361.47   18.12 
   4  -3  -1  338.87   20.23 
   3   1  -1  383.32   17.51 
   4  -1  -1  378.27   18.91 
   1   3   1  395.23   16.78 
   1  -4  -1  392.38   18.75 
   0   4  -1  261.54   14.26 
   4   0  -1  270.75   14.78 
   0   4   1  290.48   14.63 
   4  -4  -1  259.05   16.74 
   4  -4   1  265.96   16.29 
  -4   0  -1  268.83   17.58 
   0  -4  -1  256.99   15.54 
   4   0   1  304.92   14.65 
  -4   0   1  250.62   17.67 
   3  -5   1  228.64   15.31 
   5  -3   1  222.96   15.70 
  -3  -2   1  221.36   17.99 
   5  -2  -1  202.91   14.45 
   2  -5   1  197.56   14.75 
   3   2   1  236.67   12.97 
   5  -2   1  253.66   14.71 
  -3  -2  -1  223.15   16.98 
   3  -5  -1  243.25   15.10 
   2  -5  -1  212.62   14.45 
   3   2  -1  216.90   12.93 
   5  -3  -1  214.44   15.28 
   2   3  -1  247.46   13.24 
  -2  -3  -1  234.40   17.62 
  -4  -1   1    2.07    4.56 
   5  -4  -1    0.60    3.78 
  -1  -4  -1    2.47    4.02 
   5  -4   1    1.69    3.56 
   4  -5   1    3.57    3.71 
   1   4  -1    2.97    2.77 
   4  -5  -1    0.09    3.52 
   5  -1   1    0.18    2.70 
  -5   1  -1   -0.85    3.24 
   1  -5   1   -0.49    2.78 
  -4  -1  -1    4.00    4.36 
   5  -1  -1    5.56    3.64 
   4   1  -1    2.79    2.95 
  -1   5  -1    1.37    2.91 
   4   1   1    0.12    2.43 
   5   0   1  122.98    9.57 
  -5   0  -1  121.81   13.14 
   5   0  -1  113.07   11.25 
   5  -5   1  161.51   14.54 
   5  -5  -1  112.43   12.61 
  -5   0   1  144.04   15.25 
   0   5  -1  128.59   10.23 
   3   3  -1    3.12    3.43 
  -3  -3  -1    2.39    5.55 
   6  -3   1   -3.76    5.74 
   3  -6   1    7.41    4.89 
   0   0  -2  393.20   14.28 
   0   0  -2  397.87   15.15 
   1   0  -2 6941.37  224.65 
   0   1  -2 6629.80  222.68 
   1   0  -2 6969.85  220.81 
   1  -1   2 6202.29  225.87 
   0  -1  -2 7296.48  223.50 
  -1   0  -2 6701.51  221.20 
   1  -1  -2 7133.43  221.66 
  -1   0  -2 6502.48  248.93 
   0   1  -2 6227.59  224.68 
   1  -1  -2 7325.86  225.29 
   1   0   2 6639.35  224.31 
  -1   1  -2 6502.11  223.26 
  -1   1  -2 7032.64  247.61 
   1   1  -2   21.71    3.15 
  -1  -1  -2   35.13    5.05 
  -2   1  -2   26.20    4.59 
   1   1  -2   39.06    3.92 
   1  -2  -2   31.07    4.48 
  -1   2  -2   24.26    4.06 
  -1   2  -2   32.03    5.19 
  -1  -1   2   31.40    4.76 
   2  -1  -2   28.32    4.38 
  -1  -1  -2   30.74    2.69 
   1  -2  -2   59.80    5.76 
   2  -1  -2   28.48    3.57 
   1   1   2   28.64    2.42 
   2  -1   2   30.70    4.55 
  -2   1  -2   27.20    4.54 
   2   0   2 4707.98  152.36 
   0   2   2 4270.32  151.51 
   2   0  -2 4673.00  152.95 
   2  -2  -2 4867.69  155.92 
  -2   2  -2 4440.30  152.83 
   0  -2  -2 4569.81  149.97 
   0  -2   2 3854.60  167.81 
   2  -2  -2 4643.56  152.00 
   0   2  -2 4242.56  152.58 
   2  -2   2 4782.00  155.56 
   0   2  -2 4297.62  151.01 
  -2   0  -2 4838.66  171.08 
  -2   0  -2 4802.06  149.67 
   2   0  -2 4611.96  148.37 
  -1  -2   2 3156.35  120.00 
   2  -3   2 2977.39  108.67 
   3  -1  -2 3005.37  108.14 
   2  -3  -2 3171.06  108.70 
  -1  -2  -2 3046.04  102.55 
   1   2   2 2972.46  104.37 
   3  -1  -2 3056.17  103.41 
   1   2  -2 3092.96  106.07 
  -1  -2  -2 3138.60  118.63 
  -3   1  -2 3148.34  119.24 
   3  -2  -2 3144.33  109.59 
   1  -3  -2 3015.57  105.63 
   2   1  -2 3098.49  106.18 
   3  -2   2 3093.92  109.03 
  -1   3  -2 3013.94  107.28 
   3  -1   2 2914.62  107.07 
  -3   1  -2 3499.74  106.02 
  -3   2  -2 3169.70  107.29 
  -2  -1   2 3112.03  119.66 
   1  -3  -2 3118.59  107.02 
   2   1   2 3114.22  105.02 
  -2  -1  -2 3098.22  120.37 
   3  -3   2  191.48   12.62 
   0   3  -2  204.33   10.98 
   0  -3  -2  194.46   10.26 
   3  -3  -2  185.46   13.44 
  -3   0   2  208.99   13.94 
  -3   0  -2  186.26   13.32 
   3   0  -2  177.15   10.91 
   0   3   2  213.50   10.61 
   2   2  -2  299.12   14.77 
  -2  -2  -2  297.48   18.85 
   2  -4  -2  273.67   15.87 
   4  -2   2  281.49   16.30 
   2  -4   2  327.25   17.92 
  -4   2  -2  311.21   17.62 
  -2  -2   2  334.49   21.36 
   4  -2  -2  294.38   17.09 
   3  -4  -2 1127.80   45.43 
  -3  -1   2 1113.43   50.29 
   4  -1  -2 1088.47   44.48 
  -4   1  -2 1150.71   48.96 
   3   1  -2 1128.73   42.94 
   4  -1   2 1092.80   42.88 
  -1   4  -2 1139.33   43.94 
   3   1   2 1188.12   42.05 
  -1  -3  -2 1124.17   48.79 
  -3  -1  -2 1075.76   49.53 
   4  -3   2 1165.75   46.40 
   1  -4  -2 1148.78   42.87 
   1   3  -2 1140.76   42.76 
   3  -4   2 1101.98   45.34 
   4  -3  -2 1112.41   47.39 
  -4   0  -2  662.87   33.32 
   0   4  -2  725.06   29.28 
   4  -4   2  724.24   31.77 
   4   0   2  716.12   28.41 
   4  -4  -2  664.46   32.27 
   4   0  -2  663.19   29.50 
   5  -3  -2  461.47   24.27 
   5  -2   2  411.69   21.16 
   2   3  -2  443.25   20.43 
   5  -2  -2  423.07   22.64 
   2  -5   2  456.83   23.68 
   3  -5   2  425.83   23.29 
   3   2  -2  438.53   20.50 
   2  -5  -2  428.37   21.06 
   5  -3   2  446.54   23.38 
   3  -5  -2  448.45   22.46 
  -2  -3  -2  410.60   25.30 
  -3  -2  -2  423.53   25.08 
   1  -5  -2  363.29   18.01 
   4   1  -2  349.88   18.43 
   5  -1  -2  362.71   19.47 
  -4  -1  -2  357.06   22.05 
   5  -4  -2  359.34   20.54 
  -1   5  -2  381.49   19.33 
   4  -5   2  406.09   21.13 
   5  -4   2  344.65   20.54 
  -1  -4  -2  384.49   22.19 
   5  -1   2  364.47   18.30 
  -4  -1   2  355.77   23.51 
  -5   1  -2  348.70   20.84 
   1   4  -2  369.99   18.24 
   4  -5  -2  353.96   20.46 
   5  -4  -2  335.44   21.28 
   5  -5   2  146.77   14.60 
   5   0  -2  145.54   11.37 
  -5   0  -2  141.09   12.94 
   5  -5  -2  180.31   14.26 
   0   5  -2  161.08   11.64 
   0   0  -3   -0.08    1.32 
   0   0  -3   -0.70    0.86 
   0   1  -3 1888.81   64.01 
  -1   0  -3 1831.03   70.90 
   1   0   3 1874.61   63.05 
   1  -1   3 1796.54   64.86 
   0  -1  -3 1855.21   63.14 
   1  -1  -3 1926.08   63.18 
   1  -1  -3 1873.19   63.39 
  -1   0  -3 1815.00   63.36 
   1   0  -3 1913.20   63.67 
  -1   1  -3 1809.83   64.99 
  -1   1  -3 1839.46   69.99 
   0   1  -3 1884.98   65.07 
  -1  -1  -3   19.01    3.60 
   1  -2  -3   -0.14    1.74 
   2  -1  -3   -1.02    1.26 
   2  -1   3    3.81    2.00 
   2  -1  -3    0.27    0.90 
  -1   2  -3   -0.34    1.62 
   1   1  -3    2.80    1.48 
   1   1   3    2.04    0.84 
  -1  -1  -3    9.98    2.10 
   1  -2  -3    3.97    1.88 
   1   1  -3   -1.09    1.55 
  -1   2  -3   -0.45    2.03 
  -2   1  -3    9.37    3.02 
  -2   1  -3   -0.62    1.63 
   0  -2  -3 1322.00   46.43 
  -2   0  -3 1330.51   54.86 
   2  -2  -3 1370.93   48.53 
   2   0  -3 1325.38   46.06 
  -2   2  -3 1379.31   50.60 
   2  -2   3 1336.45   50.21 
   2   0  -3 1301.61   47.87 
   2   0   3 1336.83   47.02 
   0  -2  -3 1338.98   46.91 
   2  -2  -3 1284.40   49.82 
   0   2  -3 1367.33   48.25 
  -2   0  -3 1376.02   47.12 
   0   2  -3 1332.33   48.66 
   3  -2  -3  984.88   37.66 
   3  -1  -3  991.49   35.51 
   2  -3   3  982.18   39.22 
   3  -2   3 1020.56   39.20 
  -1   3  -3 1005.63   38.53 
  -1  -2  -3  939.65   41.57 
  -1   3  -3 1013.02   38.06 
  -2   3  -3  966.57   39.39 
   3  -2  -3  904.09   38.91 
   1   2  -3  988.99   36.91 
  -3   2  -3  998.17   38.70 
  -3   2  -3  988.73   40.62 
   3  -1  -3  961.58   38.12 
   1   2  -3  989.65   35.88 
  -3   1  -3  998.89   42.14 
   2  -3  -3  949.98   39.58 
   2  -3  -3  952.49   38.26 
  -2  -1  -3  959.54   42.79 
   2   1  -3  954.32   36.70 
   1  -3  -3  939.37   37.11 
  -1  -2  -3  957.38   34.69 
  -3   1  -3 1084.87   37.71 
   3  -3  -3    1.10    2.84 
  -3   0  -3    5.58    3.59 
   3  -3  -3    0.87    3.86 
   0   3  -3    2.28    2.18 
   3   0   3    0.87    1.82 
   3  -3   3    3.01    3.04 
   3   0  -3    8.55    3.13 
   0  -3  -3    7.42    2.53 
  -3   3  -3   -2.54    2.51 
   4  -2  -3    1.35    3.50 
   2  -4   3   -1.33    2.75 
  -4   2  -3    1.02    2.85 
   2   2  -3    1.17    2.23 
  -2  -2  -3   -2.23    2.74 
   4  -2   3    6.91    3.45 
   2  -4  -3   -1.47    2.34 
  -4   2  -3    0.38    2.79 
   3  -4  -3  574.94   27.73 
   4  -3  -3  550.63   26.91 
   3  -4   3  582.17   26.98 
   1  -4  -3  600.68   25.00 
   4  -3  -3  616.20   29.09 
  -1   4  -3  545.29   25.18 
  -1  -3  -3  579.47   28.39 
  -3  -1  -3  550.01   28.92 
   3   1  -3  582.84   24.70 
  -4   1  -3  575.51   28.01 
   4  -1  -3  513.18   25.33 
   4  -1   3  577.19   24.36 
   4  -3   3  553.68   26.86 
   1   3  -3  582.91   24.50 
   3  -4  -3  561.39   26.23 
   4  -4  -3  388.46   22.70 
   4   0  -3  367.85   19.12 
   4  -4  -3  421.69   21.41 
   0   4  -3  388.51   18.76 
  -4   0  -3  355.20   21.32 
   4  -4   3  373.41   20.38 
  -5   2  -3  308.98   18.85 
   3   2  -3  296.57   16.42 
   3  -5  -3  313.70   18.04 
   5  -3  -3  327.86   20.07 
  -2  -3  -3  326.42   21.17 
   5  -3   3  311.53   18.53 
   3  -5   3  309.31   19.01 
   2  -5  -3  325.16   17.82 
  -3  -2  -3  315.67   20.68 
   2   3  -3  321.69   16.62 
   5  -2  -3  341.34   19.46 
   5  -2   3  346.80   17.63 
   2  -5   3  306.56   18.77 
  -1  -4  -3    2.70    4.05 
   4   1  -3   -2.16    2.61 
   5  -1  -3    1.56    3.39 
  -4  -1  -3    0.03    3.56 
   4  -5  -3   -2.01    3.17 
   5  -4  -3    0.70    4.57 
   4  -5   3   -3.30    2.85 
   5  -4  -3    0.02    4.82 
  -1   5  -3   -1.03    3.14 
   1  -5  -3   -1.29    2.65 
   1   4  -3    3.05    2.92 
   5  -4   3    0.65    3.79 
  -5   1  -3   -1.18    3.04 
   0  -5  -3  229.29   17.13 
   5  -5  -3  229.03   17.76 
   5  -5  -3  223.70   16.51 
   0   5  -3  232.13   16.39 
   0   0  -4 7049.87  236.64 
   0   0  -4 7264.36  235.15 
  -1   1  -4 2164.55   81.52 
   1  -1   4 2138.94   75.37 
   0  -1  -4 2159.15   74.03 
  -1   0  -4 2192.13   74.42 
   1   0  -4 2231.44   74.19 
   1   0   4 2163.13   73.29 
   1  -1  -4 2242.84   73.23 
   1   0  -4 2185.18   74.19 
  -1   1  -4 2162.56   75.99 
   0   1  -4 2136.71   74.60 
   0   1  -4 2112.76   75.81 
   1  -1  -4 2182.89   74.14 
  -2   1  -4 4888.11  162.26 
  -1  -1  -4 4894.80  160.28 
  -1   2  -4 4814.49  164.20 
  -2   1  -4 4989.83  180.70 
   2  -1   4 4823.04  163.54 
   1  -2  -4 4909.92  161.25 
  -1  -1  -4 4814.30  180.89 
   1   1  -4 4819.22  161.73 
   2  -1  -4 4872.10  162.67 
   1   1  -4 4819.39  163.00 
  -1   2  -4 4516.65  163.90 
   2  -1  -4 4985.98  160.80 
   2  -2  -4  972.58   36.68 
   2   0  -4  931.57   35.18 
  -2   0  -4 1005.41   36.14 
   2   0  -4  945.76   36.00 
   0  -2  -4  953.51   35.59 
  -2   0  -4  964.91   41.61 
   0   2  -4  947.48   36.28 
   2  -2   4 1006.80   38.35 
   2  -2  -4 1014.99   36.52 
   2   0   4  965.34   35.49 
   0   2  -4 1022.55   38.24 
  -2   2  -4  970.22   38.84 
   2   1  -4  372.60   17.20 
   2  -3   4  373.46   19.04 
   3  -1  -4  362.62   17.50 
  -3   1  -4  389.84   17.95 
  -3   1  -4  382.06   19.79 
  -2  -1  -4  406.13   21.03 
  -1   3  -4  384.47   18.19 
   1   2  -4  399.82   17.27 
   2  -3  -4  366.99   18.38 
   3  -1   4  383.70   17.36 
   1  -3  -4  411.34   18.08 
  -2  -1  -4  377.69   16.01 
  -2   3  -4  359.09   19.80 
   3  -2   4  376.48   18.48 
   3  -2  -4  410.13   19.25 
  -1  -2  -4  403.22   20.33 
  -3   2  -4  355.50   18.65 
  -3   2  -4  396.70   19.00 
   3  -1  -4  382.10   16.74 
   1   2  -4  395.32   17.40 
  -1   3  -4  350.73   18.88 
   3  -2  -4  370.04   17.82 
  -1  -2  -4  375.75   15.98 
   3  -3  -4 1984.21   71.74 
   3   0  -4 1941.72   70.48 
   0   3  -4 1906.78   70.38 
  -3   3  -4 1923.53   72.00 
   0  -3  -4 2018.46   68.62 
   3  -3  -4 1926.44   73.80 
  -3   0  -4 1978.37   79.32 
   3  -3   4 2067.79   73.12 
   2   2  -4 1225.48   48.52 
   4  -2   4 1316.71   50.04 
   2  -4  -4 1268.88   49.73 
  -4   2  -4 1362.61   54.48 
   2  -4   4 1297.17   51.56 
  -2  -2  -4 1284.75   56.15 
   4  -2  -4 1298.33   51.57 
  -4   2  -4 1375.54   49.41 
  -4   1  -4   37.52    6.73 
  -1   4  -4   38.13    6.32 
   4  -1  -4   37.92    6.15 
   1   3  -4   27.26    4.80 
   4  -3  -4   39.20    7.38 
   4  -3  -4   38.81    7.91 
   4  -3   4   18.59    5.14 
   3  -4  -4   32.10    6.32 
  -4   3  -4   46.33    7.33 
   1  -4  -4   31.94    5.80 
  -3  -1  -4   36.24    7.39 
   3   1  -4   34.43    5.57 
   3  -4   4   40.03    6.89 
  -1  -3  -4   30.24    6.33 
   4  -4   4    2.46    3.66 
   4  -4  -4    3.09    3.80 
   4   0  -4   -1.21    2.64 
   0   4  -4    2.94    2.74 
  -4   0  -4   -0.05    3.30 
   5  -3  -4    5.73    5.35 
   5  -3   4    1.58    3.71 
   3  -5  -4    0.50    3.23 
  -2  -3  -4   -0.21    4.05 
   3   2  -4    1.84    2.90 
   5  -2  -4    3.21    4.04 
  -3  -2  -4    4.80    4.66 
  -5   2  -4    2.37    3.47 
   2   3  -4    1.77    2.85 
   2  -5   4    3.67    3.66 
   3  -5   4    0.41    3.36 
   2  -5  -4   -0.26    3.20 
  -5   1  -4  318.23   19.26 
   4   1  -4  337.56   18.10 
   5  -1  -4  342.67   19.35 
  -1   5  -4  323.05   18.24 
   5  -4  -4  338.82   21.98 
   5  -4  -4  318.75   21.34 
  -1  -4  -4  333.12   21.01 
   5  -4   4  341.87   19.70 
   1   4  -4  317.25   17.36 
   4  -5  -4  336.05   19.41 
   1  -5  -4  309.11   16.80 
   4  -5   4  333.49   19.49 
  -4  -1  -4  352.83   21.14 
   0   0  -5    1.79    1.21 
   0   0  -5    0.78    1.79 
  -1   1  -5 1253.33   53.26 
   1  -1  -5 1447.32   49.55 
  -1   0  -5 1388.68   49.56 
  -1   0  -5 1356.14   54.15 
   0   1  -5 1422.63   49.01 
   0  -1  -5 1335.70   49.04 
   1   0  -5 1380.78   49.47 
   1   0  -5 1449.58   48.54 
   1  -1  -5 1380.98   47.96 
   1  -1   5 1436.58   49.79 
   0   1  -5 1383.23   51.04 
  -1   1  -5 1342.23   50.91 
  -2   1  -5   24.28    4.74 
  -1   2  -5    0.16    1.94 
  -1  -1  -5   -0.97    1.63 
   1  -2  -5    0.26    1.42 
   1   1  -5    6.95    2.45 
  -2   1  -5    0.65    2.18 
   2  -1  -5    2.91    2.07 
   1   1  -5    0.23    1.99 
   2  -1   5    1.11    1.87 
  -1  -1  -5   -1.33    1.79 
  -1   2  -5    3.24    3.31 
   2  -1  -5    0.54    1.53 
   2   0  -5 1002.70   38.16 
   2   0  -5 1029.57   38.19 
  -2   0  -5 1067.32   44.06 
  -2   2  -5 1053.52   41.21 
   0  -2  -5 1036.64   38.24 
   0   2  -5 1019.31   38.62 
   2  -2  -5 1001.02   38.87 
  -2   0  -5 1026.10   38.67 
   0   2  -5 1057.87   40.98 
  -2  -1  -5  804.75   36.14 
   3  -2  -5  778.67   31.43 
  -2  -1  -5  809.79   30.03 
   3  -1  -5  754.52   30.83 
   3  -1  -5  798.07   30.79 
   3  -2  -5  763.29   31.55 
  -2   3  -5  786.98   34.15 
  -3   1  -5  783.75   31.59 
   1   2  -5  758.67   31.03 
  -1   3  -5  760.04   33.57 
   1   2  -5  762.80   32.02 
   2  -3   5  809.93   33.18 
  -1  -2  -5  827.98   35.77 
  -1   3  -5  803.29   32.32 
  -1  -2  -5  789.03   29.90 
   3  -2   5  773.92   31.90 
   2  -3  -5  808.40   32.22 
   1  -3  -5  764.59   31.24 
   2   1  -5  776.86   30.95 
  -3   2  -5  790.42   32.68 
  -3   3  -5   -0.14    2.91 
   3  -3   5    0.75    2.90 
   3   0  -5    3.35    2.34 
   0   3  -5   -0.51    1.98 
  -3   0  -5   -2.87    2.65 
   3  -3  -5    4.48    3.23 
   0  -3  -5   -0.85    1.87 
   0   3  -5    4.90    3.16 
   4  -2  -5    0.15    3.04 
   2  -4   5   -0.53    2.67 
  -2   4  -5    0.77    3.37 
  -4   2  -5    2.73    3.24 
   2   2  -5    0.17    2.06 
  -2  -2  -5   -1.00    3.43 
   2  -4  -5   -1.38    2.44 
   4  -3  -5  398.87   27.62 
  -1   4  -5  410.32   20.72 
  -1  -3  -5  427.51   23.25 
   3  -4  -5  430.27   21.98 
   1   3  -5  442.25   20.43 
   4  -3   5  421.24   21.45 
   4  -3  -5  435.76   22.37 
  -1   4  -5  402.78   20.72 
   3   1  -5  419.40   20.04 
  -4   1  -5  423.34   22.38 
   4  -1  -5  439.11   21.09 
  -3   4  -5  436.98   22.70 
  -3  -1  -5  425.73   24.24 
  -4   3  -5  419.72   21.15 
   1  -4  -5  425.93   20.00 
   3  -4   5  433.99   21.98 
   0   4  -5  364.87   18.63 
   4  -4   5  365.23   19.69 
   4   0  -5  370.12   18.78 
   4  -4  -5  339.68   20.45 
  -4   0  -5  359.31   20.92 
   3   2  -5  277.96   15.80 
   3  -5   5  281.37   17.83 
   5  -2  -5  261.24   17.54 
   3  -5  -5  295.42   17.58 
  -2  -3  -5  292.94   19.96 
  -3  -2  -5  291.96   20.11 
   5  -3  -5  245.13   19.01 
   2   3  -5  287.83   15.95 
   2  -5   5  285.52   17.28 
   2  -5  -5  292.79   16.91 
   0   0  -6 1319.15   48.35 
   0   1  -6 2949.08  100.00 
   0   1  -6 2865.39  101.57 
  -1   0  -6 2899.29  100.20 
   1   0  -6 2856.67   99.07 
   1   0  -6 2994.10  100.42 
   1  -1  -6 2994.42  100.05 
  -1   1  -6 2952.14  101.77 
  -1   0  -6 2886.28  110.45 
   0  -1  -6 2898.87   99.80 
  -1  -1  -6  522.07   21.78 
  -1  -1  -6  521.76   24.45 
   2  -1  -6  500.42   22.00 
   1   1  -6  527.52   23.25 
  -1   2  -6  520.14   22.12 
  -1   2  -6  525.25   24.48 
   1  -2  -6  489.01   21.91 
  -2   1  -6  496.73   22.90 
   1   1  -6  509.71   21.16 
   2   0  -6 1763.45   62.21 
  -2   0  -6 1751.98   62.85 
   2  -2  -6 1684.78   62.68 
  -2   2  -6 1774.74   65.03 
   0   2  -6 1718.22   62.72 
  -2   0  -6 1800.19   70.43 
   0   2  -6 1773.85   64.89 
   0  -2  -6 1776.57   62.30 
   2  -2   6 1715.93   63.79 
   1  -3  -6 1002.05   39.05 
   3  -1  -6  991.94   38.38 
   2  -3  -6 1034.08   40.03 
   2   1  -6 1024.01   38.78 
   3  -2  -6 1038.28   39.75 
  -2  -1  -6 1062.31   44.86 
  -2  -1  -6  996.12   37.92 
   3  -1  -6  989.34   40.16 
  -2   3  -6  976.78   41.90 
   2  -3   6 1006.54   40.67 
   1   2  -6  972.29   38.72 
  -1  -2  -6 1018.74   37.93 
  -3   2  -6 1002.40   40.36 
  -3   1  -6 1038.51   39.53 
  -1   3  -6 1004.87   39.95 
  -1   3  -6  978.86   41.60 
  -1  -2  -6  997.86   43.96 
   0   3  -6   50.20    6.29 
   3  -3   6   40.90    6.74 
  -3   3  -6   35.77    6.59 
   3   0  -6   45.66    5.98 
   0  -3  -6   52.07    6.48 
   3  -3  -6   48.81    7.41 
   0   3  -6   40.93    6.77 
  -3   0  -6   27.97    6.07 
   2   2  -6    7.97    3.44 
  -4   2  -6    5.33    3.75 
   2  -4   6    5.15    4.03 
   4  -2  -6    2.42    3.17 
  -2   4  -6   -0.61    3.32 
  -2  -2  -6   10.97    5.36 
   2  -4  -6   11.05    4.31 
   3  -4   6  277.50   17.10 
   4  -1  -6  292.95   16.34 
  -1  -3  -6  303.13   18.48 
  -4   3  -6  283.13   16.67 
  -4   1  -6  290.76   17.59 
   1   3  -6  297.92   16.00 
  -3   4  -6  283.49   17.87 
  -1   4  -6  320.87   17.11 
   4  -3  -6  321.29   18.80 
   1  -4  -6  318.50   16.45 
  -1   4  -6  296.83   17.28 
   3   1  -6  291.92   15.81 
  -3  -1  -6  316.92   19.87 
   3  -4  -6  283.36   17.25 
   4   0  -6  177.74   12.18 
   4  -4  -6  179.98   14.28 
  -4   4  -6  174.81   13.15 
  -4   0  -6  166.00   13.49 
   0   4  -6  186.77   12.47 
   0   0  -7   -1.52    1.98 
   0  -1  -7  411.04   19.25 
   0   1  -7  414.39   20.67 
  -1   1  -7  452.36   21.07 
   1   0  -7  429.31   19.93 
  -1   0  -7  385.89   19.33 
   1  -1  -7  430.17   19.49 
   2  -1  -7   -2.55    2.35 
   1   1  -7   -0.79    2.83 
  -2   1  -7    0.24    2.77 
  -1   2  -7   -0.46    2.25 
   1   1  -7    0.29    2.02 
  -1  -1  -7   -1.54    2.17 
  -1  -1  -7   -0.43    2.26 
  -1   2  -7    3.55    3.37 
   1  -2  -7   -0.24    2.22 
   0  -2  -7  342.48   16.41 
  -2   0  -7  323.27   16.92 
   0   2  -7  318.29   15.73 
   2  -2  -7  306.30   16.47 
  -2   2  -7  328.57   18.21 
   0   2  -7  338.74   18.53 
   2   0  -7  326.41   16.92 
  -3   2  -7  232.15   14.72 
   1   2  -7  249.11   13.50 
   2   1  -7  226.89   12.92 
  -2   3  -7  233.86   15.95 
   2  -3   7  242.69   15.18 
  -3   1  -7  251.53   14.64 
  -1   3  -7  245.59   16.21 
   3  -2  -7  228.49   14.28 
   1  -3  -7  236.89   13.99 
  -1  -2  -7  244.35   13.28 
   2  -3  -7  238.73   14.38 
  -2  -1  -7  255.33   13.68 
  -2  -1  -7  255.21   16.22 
  -1   3  -7  239.83   14.11 
  -1  -2  -7  241.75   15.55 
   0   3  -7    0.46    2.68 
  -3   3  -7    4.85    4.10 
   3  -3  -7    0.34    3.20 
   3   0  -7    2.61    2.69 
  -3   0  -7    3.51    3.64 
   0   3  -7   -3.99    3.42 
   0  -3  -7    2.89    2.79 
  -2  -2  -7   10.58    5.23 
   2   2  -7   -2.12    2.65 
   2  -4   7    3.04    4.34 
  -2   4  -7    1.18    4.03 
   2  -4  -7   -1.41    3.24 
  -4   2  -7    4.94    4.08 
   4  -3  -7  139.63   14.04 
  -4   3  -7  169.19   12.45 
  -1   4  -7  142.19   13.68 
   3  -4   7  164.81   13.00 
   1   3  -7  165.23   11.53 
  -1   4  -7  167.73   12.16 
   3   1  -7  169.90   11.48 
  -3   4  -7  176.52   17.58 
   3  -4  -7  161.01   12.87 
   1  -4  -7  177.41   12.02 
  -1  -3  -7  172.75   13.44 
  -3  -1  -7  183.99   14.74 
   0   0  -8 2465.16   87.19 
   0   1  -8  768.68   33.20 
   1   0  -8  793.71   32.55 
   1  -1  -8  796.15   32.10 
  -1   1  -8  756.18   32.96 
   0  -1  -8  756.24   31.67 
  -1   0  -8  750.44   32.16 
   1   1  -8 1578.64   59.81 
  -2   1  -8 1567.27   59.33 
   1  -2  -8 1486.31   57.95 
   2  -1  -8 1596.48   58.94 
  -1  -1  -8 1570.21   58.15 
  -1   2  -8 1594.20   60.58 
  -1  -1  -8 1651.72   64.39 
  -2   0  -8  364.12   19.01 
  -2   2  -8  353.76   19.75 
   0   2  -8  340.59   19.75 
   2   0  -8  408.81   19.87 
   0  -2  -8  372.15   18.32 
   2  -2  -8  354.14   18.51 
  -1  -2  -8  167.65   11.17 
  -3   2  -8  148.12   12.19 
   2  -3  -8  173.73   12.31 
  -2  -1  -8  165.50   11.46 
  -2  -1  -8  167.87   13.16 
  -2   3  -8  177.24   13.63 
  -3   1  -8  155.04   11.69 
   1   2  -8  167.02   10.83 
  -1   3  -8  136.89   14.04 
   3  -2  -8  152.44   12.06 
   1  -3  -8  139.02   11.07 
  -1  -2  -8  174.87   12.99 
  -3   3  -8  539.77   27.72 
   0   3  -8  595.11   26.10 
   0   3  -8  535.03   27.22 
   3  -3  -8  612.85   28.13 
   0  -3  -8  607.81   25.98 
   0   0  -9   -0.64    2.84 
  -1   1  -9   41.62    7.03 
   0  -1  -9   47.12    7.04 
   1  -1  -9   47.70    7.22 
   1   0  -9   55.55    8.22 
  -1   0  -9   56.70    8.15 
   0   1  -9   54.10    8.63 
   1   1  -9   -0.47    4.02 
   2  -1  -9    2.48    3.78 
   1  -2  -9   -0.91    2.62 
  -1  -1  -9    3.99    3.75 
  -1   2  -9    0.34    3.51 
  -2   1  -9    8.42    4.32 
   2   0  -9   39.64    7.74 
   0  -2  -9   41.16    6.95 
  -2   0  -9   44.69    7.53 
   0   2  -9   33.21    7.43 
   2  -2  -9   31.12    6.45 
  -2   2  -9   48.29    8.22 
   0   0   0    0.00    0.00 
;
_shelx_hkl_checksum              34155
loop_
_space_group_symop_operation_xyz
'x, y, z'
'-y, x-y, z'
'-x+y, -x, z'
'-x, -y, z+1/2'
'y, -x+y, z+1/2'
'x-y, x, z+1/2'
'-y, -x, z'
'-x+y, y, z'
'x, x-y, z'
'y, x, z+1/2'
'x-y, -y, z+1/2'
'-x, -x+y, z+1/2'
loop_
_atom_site_label
_atom_site_type_symbol
_atom_site_fract_x
_atom_site_fract_y
_atom_site_fract_z
_atom_site_U_iso_or_equiv
_atom_site_adp_type
_atom_site_occupancy
_atom_site_site_symmetry_order
_atom_site_calc_flag
_atom_site_refinement_flags_posn
_atom_site_refinement_flags_adp
_atom_site_refinement_flags_occupancy
_atom_site_disorder_assembly
_atom_site_disorder_group
Yb Yb 0.000000 0.000000 -0.0005(10) 0.0635(12) Uani 1 6 d S T P . .
Mn Mn 0.666667 0.333333 0.1728(19) 0.031(5) Uani 0.44(2) 6 d S T P . .
Ag Ag 0.666667 0.333333 0.1728(19) 0.031(5) Uani 0.13(3) 6 d S T P . .
Sb Sb 0.333333 0.666667 0.2589(3) 0.0292(11) Uani 1 6 d S T P . .
loop_
_atom_site_aniso_label
_atom_site_aniso_U_11
_atom_site_aniso_U_22
_atom_site_aniso_U_33
_atom_site_aniso_U_23
_atom_site_aniso_U_13
_atom_site_aniso_U_12
Yb 0.0847(15) 0.0847(15) 0.0209(14) 0.000 0.000 0.0424(8)
Mn 0.013(4) 0.013(4) 0.065(11) 0.000 0.000 0.007(2)
Ag 0.013(4) 0.013(4) 0.065(11) 0.000 0.000 0.007(2)
Sb 0.0222(12) 0.0222(12) 0.0431(18) 0.000 0.000 0.0111(6)
loop_
_atom_type_symbol
_atom_type_description
_atom_type_scat_dispersion_real
_atom_type_scat_dispersion_imag
_atom_type_scat_source
Mn Mn 0.3368 0.7283 'International Tables Vol C Tables 4.2.6.8 and 6.1.1.4'
Ag Ag -0.8971 1.1015 'International Tables Vol C Tables 4.2.6.8 and 6.1.1.4'
Sb Sb -0.5866 1.5461 'International Tables Vol C Tables 4.2.6.8 and 6.1.1.4'
Yb Yb -0.3850 5.5486 'International Tables Vol C Tables 4.2.6.8 and 6.1.1.4'
loop_
_geom_angle_atom_site_label_1
_geom_angle_atom_site_label_2
_geom_angle_atom_site_label_3
_geom_angle
_geom_angle_site_symmetry_1
_geom_angle_site_symmetry_3
_geom_angle_publ_flag
Mn Yb Mn 101.8(3) 1_455 . ?
Mn Yb Mn 101.8(3) 1_455 1_445 ?
Mn Yb Mn 101.8(3) . 1_445 ?
Mn Yb Sb 60.8(2) 1_455 4_564 ?
Mn Yb Sb 128.35(11) . 4_564 ?
Mn Yb Sb 128.35(11) 1_445 4_564 ?
Mn Yb Sb 128.35(11) 1_455 4_554 ?
Mn Yb Sb 128.35(11) . 4_554 ?
Mn Yb Sb 60.8(2) 1_445 4_554 ?
Sb Yb Sb 91.10(17) 4_564 4_554 ?
Mn Yb Sb 128.35(11) 1_455 4_664 ?
Mn Yb Sb 60.8(2) . 4_664 ?
Mn Yb Sb 128.35(11) 1_445 4_664 ?
Sb Yb Sb 91.10(17) 4_564 4_664 ?
Sb Yb Sb 91.10(17) 4_554 4_664 ?
Mn Yb Sb 117.2(3) 1_455 1_545 ?
Mn Yb Sb 51.39(13) . 1_545 ?
Mn Yb Sb 51.39(13) 1_445 1_545 ?
Sb Yb Sb 178.0(2) 4_564 1_545 ?
Sb Yb Sb 90.317(10) 4_554 1_545 ?
Sb Yb Sb 90.317(11) 4_664 1_545 ?
Mn Yb Sb 51.39(13) 1_455 . ?
Mn Yb Sb 51.39(13) . . ?
Mn Yb Sb 117.2(3) 1_445 . ?
Sb Yb Sb 90.317(10) 4_564 . ?
Sb Yb Sb 178.0(2) 4_554 . ?
Sb Yb Sb 90.317(10) 4_664 . ?
Sb Yb Sb 88.22(16) 1_545 . ?
Mn Yb Sb 51.39(13) 1_455 1_445 ?
Mn Yb Sb 117.2(3) . 1_445 ?
Mn Yb Sb 51.39(13) 1_445 1_445 ?
Sb Yb Sb 90.317(11) 4_564 1_445 ?
Sb Yb Sb 90.318(10) 4_554 1_445 ?
Sb Yb Sb 178.0(2) 4_664 1_445 ?
Sb Yb Sb 88.23(16) 1_545 1_445 ?
Sb Yb Sb 88.22(16) . 1_445 ?
Mn Yb Mn 163.3(5) 1_455 4_654 ?
Mn Yb Mn 88.54(10) . 4_654 ?
Mn Yb Mn 88.54(10) 1_445 4_654 ?
Sb Yb Mn 102.5(3) 4_564 4_654 ?
Sb Yb Mn 46.57(8) 4_554 4_654 ?
Sb Yb Mn 46.57(8) 4_664 4_654 ?
Sb Yb Mn 79.51(17) 1_545 4_654 ?
Sb Yb Mn 134.40(5) . 4_654 ?
Sb Yb Mn 134.40(5) 1_445 4_654 ?
Mn Yb Mn 88.54(10) 1_455 4_554 ?
Mn Yb Mn 163.3(5) . 4_554 ?
Mn Yb Mn 88.54(10) 1_445 4_554 ?
Sb Yb Mn 46.57(8) 4_564 4_554 ?
Sb Yb Mn 46.57(8) 4_554 4_554 ?
Sb Yb Mn 102.5(3) 4_664 4_554 ?
Sb Yb Mn 134.40(5) 1_545 4_554 ?
Sb Yb Mn 134.40(5) . 4_554 ?
Sb Yb Mn 79.51(17) 1_445 4_554 ?
Mn Yb Mn 78.6(3) 4_654 4_554 ?
Sb Mn Sb 114.5(2) 1_655 1_545 ?
Sb Mn Sb 114.5(2) 1_655 . ?
Sb Mn Sb 114.5(2) 1_545 . ?
Sb Mn Yb 70.76(9) 1_655 1_655 ?
Sb Mn Yb 70.76(9) 1_545 1_655 ?
Sb Mn Yb 167.5(5) . 1_655 ?
Sb Mn Yb 70.76(9) 1_655 1_665 ?
Sb Mn Yb 167.5(5) 1_545 1_665 ?
Sb Mn Yb 70.76(9) . 1_665 ?
Yb Mn Yb 101.8(3) 1_655 1_665 ?
Sb Mn Yb 167.5(5) 1_655 . ?
Sb Mn Yb 70.76(9) 1_545 . ?
Sb Mn Yb 70.76(9) . . ?
Yb Mn Yb 101.8(3) 1_655 . ?
Yb Mn Yb 101.8(3) 1_665 . ?
Sb Mn Sb 103.8(3) 1_655 4_664 ?
Sb Mn Sb 103.8(3) 1_545 4_664 ?
Sb Mn Sb 103.8(3) . 4_664 ?
Yb Mn Sb 63.7(3) 1_655 4_664 ?
Yb Mn Sb 63.7(3) 1_665 4_664 ?
Yb Mn Sb 63.7(3) . 4_664 ?
Sb Mn Yb 58.81(17) 1_655 4_655 ?
Sb Mn Yb 58.81(17) 1_545 4_655 ?
Sb Mn Yb 123.2(5) . 4_655 ?
Yb Mn Yb 69.31(9) 1_655 4_655 ?
Yb Mn Yb 129.06(16) 1_665 4_655 ?
Yb Mn Yb 129.06(16) . 4_655 ?
Sb Mn Yb 133.00(18) 4_664 4_655 ?
Sb Mn Yb 58.81(17) 1_655 4_665 ?
Sb Mn Yb 123.2(5) 1_545 4_665 ?
Sb Mn Yb 58.81(17) . 4_665 ?
Yb Mn Yb 129.06(16) 1_655 4_665 ?
Yb Mn Yb 69.31(9) 1_665 4_665 ?
Yb Mn Yb 129.06(16) . 4_665 ?
Sb Mn Yb 133.00(18) 4_664 4_665 ?
Yb Mn Yb 78.6(3) 4_655 4_665 ?
Sb Mn Yb 123.2(5) 1_655 4 ?
Sb Mn Yb 58.81(17) 1_545 4 ?
Sb Mn Yb 58.81(17) . 4 ?
Yb Mn Yb 129.06(16) 1_655 4 ?
Yb Mn Yb 129.06(16) 1_665 4 ?
Yb Mn Yb 69.31(9) . 4 ?
Sb Mn Yb 133.00(18) 4_664 4 ?
Yb Mn Yb 78.6(3) 4_655 4 ?
Yb Mn Yb 78.6(3) 4_665 4 ?
Mn Sb Mn 114.5(2) 1_455 1_565 ?
Mn Sb Mn 114.5(2) 1_455 . ?
Mn Sb Mn 114.5(2) 1_565 . ?
Mn Sb Mn 103.8(3) 1_455 4_665 ?
Mn Sb Mn 103.8(3) 1_565 4_665 ?
Mn Sb Mn 103.8(3) . 4_665 ?
Mn Sb Yb 74.6(2) 1_455 4_565 ?
Mn Sb Yb 74.6(2) 1_565 4_565 ?
Mn Sb Yb 159.3(3) . 4_565 ?
Mn Sb Yb 55.52(12) 4_665 4_565 ?
Mn Sb Yb 159.3(3) 1_455 4_665 ?
Mn Sb Yb 74.6(2) 1_565 4_665 ?
Mn Sb Yb 74.6(2) . 4_665 ?
Mn Sb Yb 55.52(12) 4_665 4_665 ?
Yb Sb Yb 91.10(17) 4_565 4_665 ?
Mn Sb Yb 74.6(2) 1_455 4 ?
Mn Sb Yb 159.3(3) 1_565 4 ?
Mn Sb Yb 74.6(2) . 4 ?
Mn Sb Yb 55.52(12) 4_665 4 ?
Yb Sb Yb 91.10(17) 4_565 4 ?
Yb Sb Yb 91.10(17) 4_665 4 ?
Mn Sb Yb 57.85(17) 1_455 1_565 ?
Mn Sb Yb 57.85(17) 1_565 1_565 ?
Mn Sb Yb 129.7(3) . 1_565 ?
Mn Sb Yb 126.51(11) 4_665 1_565 ?
Yb Sb Yb 70.990(12) 4_565 1_565 ?
Yb Sb Yb 131.920(11) 4_665 1_565 ?
Yb Sb Yb 131.920(10) 4 1_565 ?
Mn Sb Yb 129.7(3) 1_455 1_665 ?
Mn Sb Yb 57.85(17) 1_565 1_665 ?
Mn Sb Yb 57.85(17) . 1_665 ?
Mn Sb Yb 126.51(12) 4_665 1_665 ?
Yb Sb Yb 131.920(11) 4_565 1_665 ?
Yb Sb Yb 70.990(12) 4_665 1_665 ?
Yb Sb Yb 131.920(11) 4 1_665 ?
Yb Sb Yb 88.23(16) 1_565 1_665 ?
Mn Sb Yb 57.85(17) 1_455 . ?
Mn Sb Yb 129.7(3) 1_565 . ?
Mn Sb Yb 57.85(17) . . ?
Mn Sb Yb 126.51(11) 4_665 . ?
Yb Sb Yb 131.920(11) 4_565 . ?
Yb Sb Yb 131.920(10) 4_665 . ?
Yb Sb Yb 70.990(13) 4 . ?
Yb Sb Yb 88.23(16) 1_565 . ?
Yb Sb Yb 88.23(16) 1_665 . ?
loop_
_geom_bond_atom_site_label_1
_geom_bond_atom_site_label_2
_geom_bond_distance
_geom_bond_site_symmetry_2
_geom_bond_publ_flag
Yb Mn 2.998(7) 1_455 ?
Yb Mn 2.998(7) . ?
Yb Mn 2.998(7) 1_445 ?
Yb Sb 3.260(5) 4_564 ?
Yb Sb 3.260(5) 4_554 ?
Yb Sb 3.260(5) 4_664 ?
Yb Sb 3.343(5) 1_545 ?
Yb Sb 3.343(5) . ?
Yb Sb 3.343(5) 1_445 ?
Yb Mn 3.674(11) 4_654 ?
Yb Mn 3.674(11) 4_554 ?
Mn Sb 2.767(3) 1_655 ?
Mn Sb 2.767(3) 1_545 ?
Mn Sb 2.767(3) . ?
Mn Sb 3.174(15) 4_664 ?
