#------------------------------------------------------------------------------
#$Date: 2022-04-04 00:49:54 +0300 (Mon, 04 Apr 2022) $
#$Revision: 274279 $
#$URL: file:///home/coder/svn-repositories/cod/cif/4/00/40/4004072.cif $
#------------------------------------------------------------------------------
#
# This file is available in the Crystallography Open Database (COD),
# http://www.crystallography.net/
#
# All data on this site have been placed in the public domain by the
# contributors.
#
data_4004072
loop_
_publ_author_name
'Gui, Xin'
'Cava, Robert J.'
_publ_section_title
;
 LaIr3Ga2: A Superconductor Based on a Kagome Lattice of Ir
;
_journal_issue                   6
_journal_name_full               'Chemistry of Materials'
_journal_page_first              2824
_journal_page_last               2832
_journal_paper_doi               10.1021/acs.chemmater.2c00280
_journal_volume                  34
_journal_year                    2022
_chemical_formula_sum            'Ga2 Ir3 La'
_chemical_formula_weight         854.95
_space_group_crystal_system      hexagonal
_space_group_IT_number           191
_space_group_name_Hall           '-P 6 2'
_space_group_name_H-M_alt        'P 6/m m m'
_audit_creation_method           SHELXL-2013
_cell_angle_alpha                90
_cell_angle_beta                 90
_cell_angle_gamma                120
_cell_formula_units_Z            1
_cell_length_a                   5.5884(3)
_cell_length_b                   5.5884(3)
_cell_length_c                   3.9063(3)
_cell_measurement_reflns_used    1429
_cell_measurement_temperature    301(2)
_cell_measurement_theta_max      30.98
_cell_measurement_theta_min      4.21
_cell_volume                     105.650(11)
_computing_structure_refinement  'SHELXL-2013 (Sheldrick, 2013)'
_diffrn_ambient_temperature      301(2)
_diffrn_measured_fraction_theta_full 1.000
_diffrn_measured_fraction_theta_max 1.000
_diffrn_measurement_device_type  Bruker_GUEST
_diffrn_radiation_type           MoK\a
_diffrn_radiation_wavelength     0.71073
_diffrn_reflns_av_R_equivalents  0.0217
_diffrn_reflns_av_unetI/netI     0.0101
_diffrn_reflns_Laue_measured_fraction_full 1.000
_diffrn_reflns_Laue_measured_fraction_max 1.000
_diffrn_reflns_limit_h_max       8
_diffrn_reflns_limit_h_min       -8
_diffrn_reflns_limit_k_max       7
_diffrn_reflns_limit_k_min       -8
_diffrn_reflns_limit_l_max       5
_diffrn_reflns_limit_l_min       -5
_diffrn_reflns_number            1393
_diffrn_reflns_point_group_measured_fraction_full 1.000
_diffrn_reflns_point_group_measured_fraction_max 1.000
_diffrn_reflns_theta_full        25.242
_diffrn_reflns_theta_max         30.979
_diffrn_reflns_theta_min         4.211
_exptl_absorpt_coefficient_mu    116.327
_exptl_absorpt_correction_T_max  0.4383
_exptl_absorpt_correction_T_min  0.0511
_exptl_absorpt_correction_type   numerical
_exptl_crystal_density_diffrn    13.438
_exptl_crystal_description       metallic
_exptl_crystal_F_000             350
_exptl_crystal_size_max          0.094
_exptl_crystal_size_mid          0.078
_exptl_crystal_size_min          0.009
_refine_diff_density_max         1.356
_refine_diff_density_min         -1.836
_refine_diff_density_rms         0.328
_refine_ls_extinction_coef       0.0096(12)
_refine_ls_extinction_expression Fc^*^=kFc[1+0.001xFc^2^\l^3^/sin(2\q)]^-1/4^
_refine_ls_extinction_method     SHELXL
_refine_ls_goodness_of_fit_ref   1.182
_refine_ls_hydrogen_treatment    undef
_refine_ls_matrix_type           full
_refine_ls_number_parameters     9
_refine_ls_number_reflns         91
_refine_ls_number_restraints     0
_refine_ls_restrained_S_all      1.182
_refine_ls_R_factor_all          0.0124
_refine_ls_R_factor_gt           0.0124
_refine_ls_shift/su_max          0.000
_refine_ls_shift/su_mean         0.000
_refine_ls_structure_factor_coef Fsqd
_refine_ls_weighting_details
'w=1/[\s^2^(Fo^2^)+(0.0226P)^2^+0.5061P] where P=(Fo^2^+2Fc^2^)/3'
_refine_ls_weighting_scheme      calc
_refine_ls_wR_factor_gt          0.0339
_refine_ls_wR_factor_ref         0.0339
_reflns_Friedel_coverage         0.000
_reflns_number_gt                91
_reflns_number_total             91
_reflns_threshold_expression     'I > 2\s(I)'
_cod_data_source_file            cm2c00280_si_002.cif
_cod_data_source_block           XG_1432_0m
_cod_original_cell_volume        105.650(13)
_cod_database_code               4004072
_shelx_space_group_comment
;
The symmetry employed for this shelxl refinement is uniquely defined
by the following loop, which should always be used as a source of
symmetry information in preference to the above space-group names.
They are only intended as comments.
;
_shelx_estimated_absorpt_t_min   0.032
_shelx_estimated_absorpt_t_max   0.421
_shelxl_version_number           2013-4
_shelx_res_file
;
TITL XG_1432_0m in P6/mmm
CELL 0.71073   5.58840   5.58840   3.90630  90.0000  90.0000 120.0000
ZERR    1.00   0.00028   0.00028   0.00030   0.0000   0.0000   0.0000
LATT  1
SYMM -Y, X-Y, Z
SYMM -X+Y, -X, Z
SYMM -X, -Y, Z
SYMM Y, -X+Y, Z
SYMM X-Y, X, Z
SYMM Y, X, -Z
SYMM X-Y, -Y, -Z
SYMM -X, -X+Y, -Z
SYMM -Y, -X, -Z
SYMM -X+Y, Y, -Z
SYMM X, X-Y, -Z
SFAC GA LA IR
UNIT 2 1 3
TEMP 27.850
SIZE 0.009 0.078 0.094

L.S. 10
ACTA

WGHT    0.022600    0.506100
EXTI    0.009616
FVAR       0.13537
MOLE   1
IR1   3    0.500000    0.000000    0.500000    10.12500    0.01003    0.00462 =
         0.00835    0.00000    0.00000    0.00231
LA2   2    0.000000    0.000000    0.000000    10.04167    0.00715    0.00715 =
         0.01671    0.00000    0.00000    0.00358
GA3   1    0.333333    0.666667    0.000000    10.08333    0.00602    0.00602 =
         0.00503    0.00000    0.00000    0.00301
HKLF 4

REM  XG_1432_0m in P6/mmm
REM R1 =  0.0124 for      91 Fo > 4sig(Fo)  and  0.0124 for all      91 data
REM      9 parameters refined using      0 restraints

END

WGHT      0.0212      0.6024

REM Highest difference peak  1.356,  deepest hole -1.836,  1-sigma level  0.328
Q1    1   0.6667  0.3333  0.5000  10.08333  0.05    1.36
Q2    1   0.0000  0.0000 -0.5000  10.04167  0.05    1.29
Q3    1   0.0000  0.0000  0.1484  10.08333  0.05    1.21
Q4    1   0.4232  0.0000  0.3519  10.50000  0.05    0.75
Q5    1   0.4930  0.6843  0.0000  10.50000  0.05    0.57
Q6    1   0.4524  0.9048 -0.1128  10.50000  0.05    0.53
Q7    1   0.1176  0.2352  0.0000  10.25000  0.05    0.47
Q8    1   0.5797  0.1593  0.3276  10.50000  0.05    0.43
Q9    1   0.2078  0.4157  0.0000  10.25000  0.05    0.41
Q10   1   0.4033  0.0000  0.5000  10.25000  0.05    0.37
Q11   1   0.4052  0.2026  0.3917  10.50000  0.05    0.33
Q12   1   0.2102  0.4205  0.1431  10.50000  0.05    0.29
Q13   1   0.0000  0.2874  0.0995  10.50000  0.05    0.24
Q14   1   0.7675 -0.1162  0.5000  10.25000  0.05    0.20
Q15   1   0.3029  0.1011  0.3875  11.00000  0.05    0.12
;
_shelx_res_checksum              6090
_shelx_hkl_file
;
   0  -1   0   42.83    1.08
  -1   1   0   43.33    1.09
  -1   1   0   44.49    1.09
  -1   1   0   44.79    1.10
   0  -1   0   43.46    1.08
   0  -1   0   43.68    1.08
   0  -1   0   42.94    1.08
   0  -1   0   44.25    1.08
  -1   0   0   42.50    1.09
   0   1   0   41.49    1.09
   1  -1   0   45.93    1.10
   1  -1   0   43.73    1.09
   1  -1   0   43.73    1.08
  -1   0   0   44.43    1.07
   1   1   0   19.57    0.50
   1  -2   0   20.16    0.54
   1  -2   0   19.31    0.54
  -2   1   0   20.04    0.55
  -2   1   0   20.29    0.53
   2  -1   0   19.48    0.52
  -1  -1   0   19.23    0.52
  -1  -1   0   19.22    0.55
  -1   2   0   19.39    0.54
   0  -2   0  648.75   15.44
  -2   2   0  640.48   15.46
  -2   0   0  628.01   15.46
   2  -2   0  646.38   15.46
  -3   1   0   26.89    0.76
   2  -3   0   25.19    0.75
  -3   1   0   26.13    0.70
   2  -3   0   26.79    0.76
   2  -3   0   27.77    0.80
  -2   3   0   27.15    0.76
  -1  -2   0   27.37    0.69
  -1  -2   0   27.30    0.72
  -1  -2   0   27.84    0.70
   3  -1   0   25.67    0.71
  -1  -2   0   26.48    0.75
   1  -3   0   27.54    0.76
  -3   2   0   26.83    0.74
   1  -3   0   28.04    0.76
  -3   2   0   27.49    0.77
   1  -3   0   26.91    0.74
   1  -3   0   27.21    0.75
  -2  -1   0   26.35    0.77
   0  -3   0   14.72    0.46
  -3   3   0   15.10    0.48
   0  -3   0   14.54    0.46
   0  -3   0   15.06    0.47
  -3   0   0   15.20    0.49
   3  -3   0   15.20    0.49
   3  -4   0   24.24    0.80
  -4   1   0   24.28    0.80
   3  -4   0   23.91    0.73
  -4   1   0   23.58    0.65
  -1  -3   0   23.45    0.69
   4  -1   0   24.21    0.65
  -3   4   0   23.68    0.73
  -1  -3   0   23.58    0.67
  -1  -3   0   24.53    0.74
  -1  -3   0   23.69    0.65
  -4   2   0  724.02   17.65
   2  -4   0  693.16   17.65
   2  -4   0  748.52   17.71
   2  -4   0  736.88   17.71
  -4   2   0  746.09   17.71
   4  -2   0  731.18   17.66
  -2  -2   0  735.45   17.78
   4  -2   0  736.03   17.66
   1  -4   0   24.66    0.78
   1  -4   0   23.32    0.71
  -4   3   0   23.88    0.71
  -4   3   0   24.79    0.78
   1  -4   0   23.52    0.69
   4  -3   0   23.22    0.71
  -3  -1   0   24.03    0.75
   0  -4   0  358.14    9.00
   0  -4   0  370.35    8.97
  -4   4   0  371.62    8.99
   0  -4   0  368.09    8.95
  -4   0   0  366.41    9.01
   4  -5   0    4.86    0.29
   4  -5   0    5.26    0.30
   4  -5   0    4.58    0.34
  -5   1   0    5.03    0.32
  -1  -4   0    5.01    0.23
  -1  -4   0    4.91    0.28
  -1  -4   0    4.81    0.24
  -1  -4   0    4.90    0.29
  -5   2   0   11.69    0.48
   3  -5   0   11.43    0.46
   3  -5   0   11.66    0.46
   3  -5   0   10.65    0.40
  -5   2   0   11.54    0.38
  -2  -3   0   12.02    0.50
   5  -2   0   11.30    0.38
  -2  -3   0   11.12    0.46
  -5   3   0   11.44    0.48
   2  -5   0   10.94    0.45
   2  -5   0   11.19    0.46
  -5   3   0   11.42    0.42
   2  -5   0   12.14    0.41
   5  -3   0   11.48    0.42
  -3  -2   0   11.92    0.48
   1  -5   0    4.80    0.33
   1  -5   0    4.98    0.29
  -5   4   0    5.47    0.29
   1  -5   0    5.12    0.26
  -4  -1   0    4.64    0.32
   5  -4   0    5.22    0.28
   0  -5   0    6.99    0.34
   0  -5   0    6.62    0.34
   5  -5   0    5.65    0.89
   5  -5   0    6.49    0.35
  -5   0   0    7.35    0.39
   5  -6   0   13.25    0.57
   5  -6   0   13.02    0.59
  -6   1   0   13.19    0.58
   5  -6   0   13.26    0.63
  -1  -5   0   13.05    0.49
  -1  -5   0   14.46    0.56
  -1  -5   0   13.76    0.55
  -6   2   0  237.63    5.96
   4  -6   0  236.75    5.95
   4  -6   0  243.24    5.95
   4  -6   0  224.93    5.81
  -2  -4   0  248.29    5.94
  -2  -4   0  230.04    5.98
   6  -2   0  231.04    5.78
  -6   3   0    2.44    0.28
  -6   3   0    1.93    0.19
   3  -6   0    2.50    0.26
   3  -6   0    2.07    0.25
   6  -3   0    1.95    0.22
  -3  -3   0    2.22    0.28
   2  -6   0  235.57    6.07
   2  -6   0  249.95    6.18
  -6   4   0  245.86    6.30
   2  -6   0  250.44    6.20
  -4  -2   0  253.23    6.22
   6  -4   0  244.06    6.13
   1  -6   0   12.57    0.50
   1  -6   0   13.49    0.54
   1  -6   0   13.82    0.56
   6  -5   0   13.42    0.54
   6  -5   0   13.38    0.55
  -5  -1   0   13.46    0.85
   0  -6   0  311.40    7.80
   0  -6   0  316.48    7.81
   0  -6   0  318.71    7.86
   6  -6   0  315.95    7.88
  -6   0   0  309.77    7.91
   6  -6   0  317.73    8.15
   6  -7   0    6.55    0.44
  -7   1   0    7.27    0.48
   6  -7   0    7.56    0.45
  -1  -6   0    7.86    0.50
   5  -7   0    5.16    0.38
  -7   2   0    5.54    0.42
   5  -7   0    4.89    0.37
  -2  -5   0    4.90    0.56
  -7   3   0    5.49    0.41
   4  -7   0    5.57    0.37
   4  -7   0    6.23    0.40
   7  -3   0    5.82    0.28
   7  -3   0    5.30    0.27
  -3  -4   0    6.43    0.42
   3  -7   0    5.84    0.39
  -7   4   0    5.92    0.48
   3  -7   0    5.78    0.28
  -4  -3   0    5.30    0.41
   7  -4   0    4.88    0.29
   7  -4   0    5.37    0.30
   2  -7   0    5.61    0.39
   2  -7   0    5.63    0.31
   2  -7   0    6.12    0.38
   7  -5   0    4.95    0.58
  -5  -2   0    5.49    0.43
   7  -5   0    6.09    0.35
   1  -7   0    6.58    0.41
   1  -7   0    7.36    0.38
   1  -7   0    7.69    0.45
   7  -6   0    7.99    0.45
   7  -6   0    6.87    0.42
  -6  -1   0    7.89    0.51
   0  -7   0    1.20    0.23
   0  -7   0    1.29    0.26
   0  -7   0    1.77    0.27
  -7   0   0    1.87    0.31
   7  -7   0    1.18    0.26
   5  -8   0   11.31    0.58
   5  -8   0   10.46    0.57
  -8   3   0    9.85    0.61
  -3  -5   0   10.95    0.59
  -8   4   0  211.24    5.73
   4  -8   0  217.32    5.62
   4  -8   0  227.40    5.67
  -4  -4   0  228.35    5.65
   8  -4   0  208.46    5.45
   8  -4   0  213.79    5.44
   3  -8   0   11.16    0.59
   3  -8   0   10.42    0.55
   8  -5   0    9.24    0.47
  -5  -3   0    9.92    0.61
   8  -5   0   10.23    0.47
   0   0   1  169.20    4.35
   1  -1  -1  126.38    3.16
  -1   0  -1  123.39    3.43
  -1   0  -1  131.86    3.28
  -1   0  -1  122.28    3.12
   1  -1  -1  128.83    3.12
   1   0   1  128.75    3.51
   0  -1   1  126.96    3.20
   0  -1   1  127.77    3.13
  -1   1   1  125.16    3.12
   1   0  -1  130.04    3.37
   0  -1  -1  123.61    3.14
  -1   1  -1  124.29    3.12
   0  -1  -1  123.91    3.14
   1   0  -1  126.67    3.42
   0  -1  -1  127.18    3.08
   1  -1   1  125.59    3.28
  -1   0   1  124.33    3.13
   0   1   1  125.36    3.13
   1  -1   1  129.24    3.12
  -1   0   1  132.60    3.17
  -1   0   1  124.17    3.11
   0   1   1  126.33    3.08
  -1  -1  -1  377.98    9.88
   2  -1  -1  397.79    9.47
  -1  -1  -1  386.51    9.43
  -1  -1  -1  398.83    9.69
   2  -1  -1  395.99    9.42
  -1   2  -1  387.43    9.45
  -1   2  -1  392.99    9.45
  -2   1   1  392.30    9.43
  -2   1   1  383.74    9.41
   1  -2   1  390.67    9.45
   1   1   1  384.93    9.47
   3  -2  -1   83.36    2.15
  -1   3  -1   86.79    2.16
  -1   3  -1   83.34    2.16
   3  -2  -1   84.32    2.14
  -2  -1  -1   84.14    2.17
   1  -3   1   86.14    2.27
  -3   2   1   86.47    2.12
   1  -3   1   86.17    2.16
   2   1   1   84.90    2.16
   0   2  -1  445.25   10.43
  -2   0  -1  429.43   10.46
   0   2  -1  429.03   10.43
   2  -2  -1  428.78   10.46
  -2   0  -1  439.23   10.53
   2  -2  -1  437.86   10.45
  -2   2   1  430.11   10.46
   0  -2   1  423.24   10.43
   0  -2   1  440.98   10.51
   2   0   1  409.84   10.77
   1   1  -1  383.10    9.38
  -2   1  -1  390.75    9.43
   1   1  -1  383.90    9.36
   1  -2  -1  403.56    9.43
   1  -2  -1  406.67    9.44
  -2   1  -1  382.70    9.45
  -2   1  -1  390.35    9.42
  -1  -1   1  387.40    9.51
  -1  -1   1  375.41    9.40
  -1   2   1  388.25    9.43
  -1  -1   1  387.47    9.44
   2  -1   1  385.20    9.43
   0  -2  -1  430.85   10.35
   0  -2  -1  440.08   10.34
  -2   2  -1  440.53   10.33
   0  -2  -1  433.81   10.28
  -2   2  -1  420.60   10.33
   2  -2   1  426.55   10.33
   2  -2   1  421.04   10.55
   0   2   1  424.75   10.32
  -2   0   1  403.85   10.31
  -2   0   1  417.88   10.27
  -1  -2  -1   86.21    2.22
  -2   3  -1   84.83    2.16
  -1  -2  -1   83.03    2.18
  -1  -2  -1   84.42    2.13
   3  -1  -1   83.00    2.09
   3  -1  -1   83.95    2.12
  -2   3  -1   83.53    2.16
  -3   1   1   82.30    2.14
   1   2   1   85.93    2.13
   2  -3   1   89.50    2.61
   4  -2  -1   99.40    2.50
  -2   4  -1   95.71    2.53
   4  -2  -1  100.75    2.49
  -2   4  -1   99.64    2.55
  -2  -2  -1  101.14    2.59
   4  -2  -1  100.38    2.48
  -2  -2  -1   97.92    2.92
   2  -4   1   95.47    2.66
   2   2   1  100.46    2.47
  -4   2   1   98.21    2.51
   5  -3  -1   48.18    1.31
   5  -3  -1   44.90    1.26
  -2   5  -1   44.75    1.31
  -3  -2  -1   43.72    1.59
  -3  -2  -1   45.87    1.31
  -2   5  -1   45.51    1.29
   2  -5   1   46.76    1.36
  -5   3   1   44.54    1.28
  -1   4  -1   68.06    1.86
   4  -3  -1   71.49    1.88
   4  -3  -1   71.54    1.86
  -3  -1  -1   72.46    1.95
  -3  -1  -1   70.24    1.89
   1  -4   1   76.02    2.04
  -4   3   1   71.58    1.86
  -3   0  -1  256.37    6.23
  -3   0  -1  260.98    6.28
   3  -3  -1  255.80    6.29
   0   3  -1  260.85    6.25
   3  -3  -1  256.83    6.28
   0   3  -1  266.25    6.26
  -3   0  -1  252.75    6.30
   0  -3   1  246.79    6.24
   3   0   1  246.55    6.78
   0  -3   1  254.54    6.33
  -3   1  -1   85.63    2.19
  -3   1  -1   83.89    2.16
   1   2  -1   84.45    2.10
   2  -3  -1   84.70    2.17
  -3   1  -1   84.07    2.14
   1   2  -1   85.83    2.10
   2  -3  -1   84.07    2.17
   3  -1   1   87.34    2.22
  -1  -2   1   85.21    2.12
  -1  -2   1   82.84    2.19
  -3   2  -1   85.34    2.23
   1  -3  -1   85.72    2.19
  -3   2  -1   85.67    2.18
  -3   2  -1   85.72    2.17
   1  -3  -1   85.49    2.18
  -2  -1   1   84.04    2.19
   3  -2   1   84.30    2.17
  -3   3  -1  253.00    6.33
   0  -3  -1  261.19    6.35
   0  -3  -1  259.16    6.27
   0  -3  -1  255.17    6.33
  -3   3  -1  258.95    6.34
  -3   0   1  247.87    6.33
   3  -3   1  271.68    6.82
   0   3   1  256.61    6.31
  -3   4  -1   70.65    1.88
   4  -1  -1   69.93    1.78
  -1  -3  -1   71.99    1.92
  -1  -3  -1   71.15    1.84
  -1  -3  -1   70.84    1.88
  -3   4  -1   70.50    1.88
  -4   1   1   70.62    1.92
   1   3   1   72.20    1.82
  -2  -3  -1   46.22    1.59
  -2  -3  -1   41.93    1.65
   5  -2  -1   42.83    1.15
  -2  -3  -1   43.66    1.23
   5  -2  -1   42.74    1.17
  -3   5  -1   44.80    1.26
  -3   5  -1   43.21    1.26
  -5   2   1   43.40    1.24
   3  -5   1   42.48    1.38
  -3  -3  -1  139.82    3.64
  -3   6  -1  142.25    3.67
   6  -3  -1  143.72    3.54
   3  -6   1  138.14    3.65
   3  -6   1  148.89    3.70
  -6   3   1  132.07    3.63
   7  -4  -1   25.35    0.80
   7  -4  -1   25.48    0.82
   3  -7   1   25.16    0.90
   3  -7   1   26.30    0.89
   3  -7   1   25.25    0.92
  -7   4   1   23.84    0.96
   6  -4  -1  150.28    3.87
  -4  -2  -1  153.98    3.96
   6  -4  -1  156.99    3.90
   2  -6   1  156.24    3.96
   2  -6   1  152.50    3.94
   2  -6   1  152.21    3.93
  -6   4   1  146.50    4.02
  -4  -1  -1  154.07    4.04
   5  -4  -1  161.27    4.00
  -4  -1  -1  152.40    3.92
   5  -4  -1  162.00    4.02
   1  -5   1  157.16    4.05
   1  -5   1  154.74    4.00
   1  -5   1  164.88    4.01
   4  -4  -1  243.68    5.86
   4  -4  -1  236.86    5.85
  -4   0  -1  236.04    5.78
  -4   0  -1  236.45    5.87
   0  -4   1  223.93    5.87
   0  -4   1  236.85    5.81
  -4   1  -1   70.97    1.82
   3  -4  -1   70.75    1.89
  -4   1  -1   74.40    1.85
  -4   1  -1   71.93    1.92
   3  -4  -1   68.88    1.89
  -1  -3   1   71.55    1.91
  -1  -3   1   72.46    1.82
  -1  -3   1   70.12    1.81
  -4   2  -1   98.66    2.48
  -4   2  -1   99.70    2.56
   2  -4  -1   98.66    2.52
   2  -4  -1   95.17    2.52
  -4   2  -1   99.59    2.50
  -2  -2   1   94.26    2.53
   1  -4  -1   73.41    1.95
  -4   3  -1   71.36    1.92
   1  -4  -1   74.26    1.93
  -4   3  -1   72.23    1.92
  -4   3  -1   74.14    2.07
  -3  -1   1   73.72    1.95
   0  -4  -1  241.46    5.90
   0  -4  -1  233.80    5.83
  -4   4  -1  232.74    5.90
   0  -4  -1  241.03    5.93
  -4   4  -1  242.85    5.91
  -4   0   1  235.06    5.92
  -1  -4  -1  157.21    3.98
  -1  -4  -1  151.21    3.92
  -1  -4  -1  157.48    3.88
  -4   5  -1  153.72    3.95
  -4   5  -1  155.94    3.94
  -5   1   1  150.97    3.93
  -4   6  -1  152.47    3.91
  -2  -4  -1  152.25    3.85
  -2  -4  -1  153.09    4.24
  -6   2   1  147.76    3.88
   4  -6   1  148.23    3.90
   4  -6   1  148.77    4.01
   7  -3  -1   25.67    0.75
  -3  -4  -1   25.97    0.89
   7  -3  -1   23.68    0.77
  -7   3   1   25.51    0.93
   4  -7   1   26.03    0.92
   4  -7   1   23.66    0.90
   7  -5  -1   67.42    1.91
  -5  -2  -1   67.42    1.99
   7  -5  -1   69.04    1.93
   2  -7   1   66.47    1.96
   2  -7   1   67.87    2.12
   2  -7   1   67.71    1.92
  -5  -1  -1   44.07    1.36
   6  -5  -1   42.72    1.30
   6  -5  -1   46.10    1.31
   1  -6   1   44.00    1.31
   1  -6   1   43.32    1.29
   1  -6   1   41.54    1.31
  -5   0  -1   32.13    1.04
   5  -5  -1   31.24    1.01
  -5   0  -1   32.85    0.89
   0  -5   1   32.08    1.02
   0  -5   1   31.85    0.96
  -5   1  -1  161.30    3.92
  -5   1  -1  157.87    3.89
   4  -5  -1  156.32    4.01
  -5   1  -1  162.17    4.05
   4  -5  -1  159.99    4.02
  -1  -4   1  153.27    3.91
  -1  -4   1  150.49    4.01
  -1  -4   1  158.12    3.92
  -1  -4   1  157.04    3.90
  -5   2  -1   47.17    1.26
   3  -5  -1   45.05    1.31
  -5   2  -1   44.24    1.23
   3  -5  -1   45.88    1.31
  -5   2  -1   45.01    1.35
  -2  -3   1   45.21    1.33
  -5   3  -1   44.55    1.28
  -5   3  -1   45.82    1.32
   2  -5  -1   46.99    1.33
   2  -5  -1   46.48    1.31
  -5   3  -1   46.62    1.40
  -3  -2   1   43.31    1.33
   1  -5  -1  153.13    3.95
   1  -5  -1  159.67    4.07
  -5   4  -1  157.51    4.05
   1  -5  -1  162.05    4.10
  -5   4  -1  161.42    4.07
  -4  -1   1  160.98    4.11
   5  -4   1  166.73    4.41
   0  -5  -1   34.19    0.95
   0  -5  -1   31.42    1.04
   0  -5  -1   33.27    1.02
  -5   5  -1   32.97    1.04
  -5   5  -1   32.59    1.03
  -5   0   1   33.23    1.06
  -1  -5  -1   42.98    1.46
  -1  -5  -1   42.97    1.24
  -1  -5  -1   43.39    1.37
  -5   6  -1   42.17    1.32
  -6   1   1   41.83    1.32
   5  -6   1   43.45    1.34
  -2  -5  -1   67.14    1.88
   5  -7   1   68.66    1.97
  -7   2   1   64.25    1.95
   7  -6  -1   26.07    0.97
  -6  -1  -1   27.97    1.05
   7  -6  -1   28.51    0.97
   1  -7   1   26.58    0.94
   1  -7   1   29.24    0.98
   1  -7   1   29.10    0.99
   6  -6  -1   45.40    1.40
  -6   0  -1   45.12    1.45
   6  -6  -1   44.88    1.41
   0  -6   1   48.08    1.37
   0  -6   1   46.16    1.33
   5  -6  -1   44.13    1.34
  -6   1  -1   45.65    1.46
   5  -6  -1   42.01    1.48
  -1  -5   1   42.23    1.19
  -1  -5   1   43.91    1.34
  -1  -5   1   42.80    1.24
   4  -6  -1  152.33    3.95
  -6   2  -1  152.59    3.81
  -6   2  -1  150.44    3.82
   4  -6  -1  154.59    3.95
  -6   2  -1  154.67    3.99
  -2  -4   1  148.89    3.95
  -6   3  -1  139.88    3.57
  -6   3  -1  140.33    3.56
  -6   3  -1  143.01    3.74
   3  -6  -1  139.00    3.65
   3  -6  -1  140.38    3.67
  -3  -3   1  139.92    3.68
   2  -6  -1  153.35    4.06
  -6   4  -1  155.71    3.99
  -6   4  -1  158.60    4.24
   2  -6  -1  153.77    4.03
  -6   4  -1  155.73    3.98
  -4  -2   1  160.54    4.09
   1  -6  -1   44.29    1.34
   1  -6  -1   43.25    1.30
  -6   5  -1   41.49    1.29
   1  -6  -1   42.08    1.17
  -5  -1   1   42.59    1.44
   6  -5   1   43.11    1.98
  -6   6  -1   49.30    1.46
   0  -6  -1   46.36    1.46
   0  -6  -1   45.87    1.32
   0  -6  -1   47.47    1.41
  -6   0   1   44.56    1.47
   6  -6   1   48.93    1.49
  -1  -6  -1   26.00    0.88
  -1  -6  -1   25.54    0.98
  -1  -6  -1   26.78    1.08
   6  -7   1   27.38    1.00
  -7   1   1   26.07    1.00
   6  -7   1   28.67    1.22
   6  -7  -1   27.31    1.02
  -7   1  -1   27.62    1.06
   6  -7  -1   29.25    1.03
  -1  -6   1   29.02    1.02
  -7   2  -1   67.54    1.78
  -7   2  -1   67.58    2.00
   5  -7  -1   63.25    1.94
   5  -7  -1   66.54    1.95
  -2  -5   1   68.50    1.97
   4  -7  -1   27.58    0.97
  -7   3  -1   26.19    0.84
  -7   3  -1   25.73    1.01
   4  -7  -1   27.10    0.95
  -3  -4   1   26.62    0.98
   7  -3   1   25.94    0.83
   3  -7  -1   27.63    0.99
  -7   4  -1   25.63    1.08
  -7   4  -1   27.03    0.89
   3  -7  -1   26.63    0.96
  -4  -3   1   27.21    1.01
   7  -4   1   28.61    0.91
   2  -7  -1   64.81    1.95
  -7   5  -1   67.97    1.92
   2  -7  -1   68.68    2.00
  -5  -2   1   70.18    2.03
   7  -5   1   64.53    2.61
   1  -7  -1   26.98    1.02
   1  -7  -1   28.47    0.84
  -7   6  -1   26.95    0.98
   1  -7  -1   28.18    1.08
   7  -6   1   27.81    1.01
  -6  -1   1   28.81    1.08
   0   0  -2 1000.00   23.11
   0   0  -2  979.80   23.11
   0   0   2  928.27   23.05
   0   0   2  896.46   23.07
   1  -1  -2   28.75    0.95
  -1   0  -2   29.85    1.05
   1  -1  -2   30.09    0.96
  -1   0  -2   27.31    1.05
   0   1  -2   28.68    1.02
   0   1  -2   28.65    0.97
   0  -1   2   29.68    1.11
  -1   1   2   29.08    0.95
   1   0   2   27.58    1.00
   1   0  -2   27.27    0.98
   0  -1  -2   29.92    1.14
   0  -1  -2   29.68    1.18
  -1   1  -2   29.50    0.99
   0   1   2   29.11    0.89
   0   1   2   27.72    1.07
  -1   0   2   29.06    1.06
   1  -1   2   29.50    0.97
  -1  -1  -2    9.79    0.64
   2  -1  -2    8.91    0.43
  -1   2  -2   10.11    0.40
  -1  -1  -2    8.70    0.72
   2  -1  -2    9.41    0.42
  -2   1   2    9.49    0.34
  -2   1   2    9.95    0.40
   3  -2  -2   22.01    0.70
   3  -2  -2   21.86    0.68
  -1   3  -2   21.05    0.68
  -1   3  -2   21.20    0.68
  -2  -1  -2   21.28    0.67
  -2  -1  -2   20.40    0.86
   0   2  -2  466.36   11.39
   2  -2  -2  476.88   11.43
   0   2  -2  459.94   11.41
  -2   0  -2  462.34   11.41
   2  -2  -2  479.85   11.42
  -2   0  -2  479.92   11.75
   0  -2   2  454.21   11.52
   1  -2  -2    8.94    0.40
   1  -2  -2    9.65    0.40
  -2   1  -2   10.14    0.45
  -2   1  -2   10.38    0.51
  -1  -1   2    9.41    0.46
   0  -2  -2  475.08   11.49
  -2   2  -2  466.78   11.41
  -2   2  -2  468.92   11.43
   2   0  -2  461.99   11.51
   0  -2  -2  467.97   11.48
   0  -2  -2  476.15   11.31
   2   0  -2  456.65   11.41
  -2   0   2  465.92   11.47
   3  -1  -2   23.04    0.76
   3  -1  -2   22.92    0.73
  -2   3  -2   21.58    0.70
  -1  -2  -2   21.18    1.05
  -1  -2  -2   20.95    0.64
  -2   3  -2   21.09    0.70
  -3   1   2   21.05    0.66
  -3   1   2   21.47    0.66
   2  -3   2   23.10    0.93
  -2  -2  -2  615.47   14.50
   4  -2  -2  587.17   14.51
  -2   4  -2  595.55   14.52
  -2   4  -2  583.97   14.53
  -2  -2  -2  617.38   14.76
   4  -2  -2  594.77   14.47
  -2  -2  -2  604.31   15.01
  -4   2   2  574.20   14.45
  -3  -2  -2    9.42    0.44
  -3  -2  -2    8.65    0.64
   5  -3  -2   10.16    0.40
  -3  -2  -2    9.27    0.66
  -2   5  -2    9.78    0.44
  -2   5  -2    9.77    0.46
   2  -5   2    9.10    0.69
  -5   3   2    9.73    0.40
  -3  -1  -2   20.19    0.68
  -1   4  -2   20.13    0.66
   4  -3  -2   19.61    0.66
   1  -4   2   20.26    0.93
   3  -3  -2    8.76    0.38
  -3   0  -2    9.29    0.44
  -3   0  -2   10.58    1.00
   0   3  -2    9.24    0.36
   0   3  -2    8.54    0.34
   3  -3  -2    8.66    0.39
   0  -3   2    8.13    0.54
   2  -3  -2   21.27    0.71
   2  -3  -2   22.06    0.71
  -3   1  -2   21.12    0.71
   1   2  -2   21.61    0.63
   1   2  -2   20.90    0.66
  -3   1  -2   22.05    0.74
  -3   1  -2   23.93    0.94
  -1  -2   2   21.79    0.86
   1  -3  -2   22.15    0.73
   1  -3  -2   21.43    0.74
  -3   2  -2   22.10    0.71
   2   1  -2   22.31    0.74
  -3   2  -2   22.35    0.74
  -2  -1   2   21.75    0.75
   3   0  -2    7.80    0.41
   0  -3  -2    7.95    0.42
  -3   3  -2    8.31    0.38
   0  -3  -2    7.57    0.40
   0  -3  -2    8.22    0.29
   3  -3   2    8.97    0.82
  -3   0   2    8.34    0.39
  -3   0   2    8.80    0.40
  -1  -3  -2   19.57    0.87
  -1  -3  -2   20.30    0.86
  -3   4  -2   19.75    0.69
  -1  -3  -2   19.84    0.63
   4  -1  -2   21.46    0.78
  -3   4  -2   19.68    0.69
  -4   1   2   18.93    0.59
  -4   1   2   18.69    0.66
   5  -2  -2    9.37    0.38
  -2  -3  -2   11.16    0.80
  -2  -3  -2   10.01    0.42
   5  -2  -2   10.41    0.44
  -2  -3  -2    9.31    1.23
  -3   5  -2    9.88    0.46
  -3   5  -2   10.36    0.47
   3  -5   2   11.59    0.94
  -5   2   2    9.71    0.43
  -3  -3  -2    1.08    0.19
   6  -3  -2    1.18    0.19
  -3  -3  -2    1.66    0.37
   6  -3  -2    0.96    0.15
  -3  -3  -2    1.28    0.46
  -3   6  -2    1.28    0.20
  -6   3   2    1.27    0.21
   3  -6   2    0.64    0.35
  -4  -3  -2    5.04    0.62
   7  -4  -2    4.73    0.34
  -3   7  -2    4.93    0.40
   7  -4  -2    5.02    0.31
   3  -7   2    5.01    0.38
   6  -4  -2  200.05    5.10
  -4  -2  -2  194.38    5.20
  -2   6  -2  204.21    5.14
  -4  -2  -2  200.99    5.38
  -2   6  -2  194.68    5.10
   6  -4  -2  201.71    5.07
   2  -6   2  211.26    5.40
  -1   5  -2    3.69    0.26
   5  -4  -2    3.12    0.25
  -4  -1  -2    3.08    0.31
  -4  -1  -2    3.76    0.41
  -4  -1  -2    3.77    0.24
   5  -4  -2    3.15    0.26
   1  -5   2    3.75    0.45
   4  -4  -2  296.21    7.36
   0   4  -2  301.60    7.30
  -4   0  -2  306.16    7.44
   0   4  -2  302.21    7.30
   4  -4  -2  296.29    7.37
  -4   0  -2  285.84    7.37
  -4   0  -2  287.89    7.29
   3  -4  -2   20.11    0.70
  -4   1  -2   21.12    0.72
  -4   1  -2   19.34    0.66
  -4   1  -2   19.40    0.71
   1   3  -2   20.40    0.61
   3  -4  -2   19.62    0.70
   1   3  -2   20.50    0.62
  -1  -3   2   21.62    0.82
   2  -4  -2  601.43   14.40
   2   2  -2  576.14   14.25
  -4   2  -2  575.30   14.38
  -4   2  -2  590.01   14.35
  -4   2  -2  583.80   14.46
   2  -4  -2  593.68   14.40
  -2  -2   2  608.26   14.46
  -4   3  -2   21.19    0.73
   1  -4  -2   21.04    0.74
   1  -4  -2   21.04    0.76
   0  -4  -2  285.55    7.36
  -4   4  -2  290.14    7.28
   0  -4  -2  293.80    7.16
   0  -4  -2  298.24    7.34
  -4   4  -2  289.41    7.30
  -4   0   2  302.91    7.32
  -4   5  -2    2.88    0.31
  -1  -4  -2    3.29    0.44
  -1  -4  -2    3.61    0.24
  -4   5  -2    3.13    0.28
  -1  -4  -2    3.49    0.44
  -5   1   2    3.68    0.30
  -2  -4  -2  196.80    4.94
   6  -2  -2  194.75    4.99
  -2  -4  -2  198.08    5.53
  -4   6  -2  195.21    5.06
  -4   6  -2  197.23    5.04
  -6   2   2  193.29    5.00
  -3  -4  -2    4.89    0.36
   7  -3  -2    5.79    0.37
  -4   7  -2    5.88    0.42
  -3  -4  -2    5.21    0.60
  -7   3   2    5.18    0.45
  -5  -2  -2    3.86    0.40
   7  -5  -2    3.77    0.34
   7  -5  -2    4.14    0.31
   2  -7   2    4.47    0.35
   2  -7   2    3.96    0.36
   6  -5  -2   11.65    0.54
  -5  -1  -2   12.26    0.59
   6  -5  -2   12.57    0.56
  -5  -1  -2   11.95    0.50
  -5   0  -2    6.59    0.36
   5  -5  -2    5.82    0.38
   0   5  -2    6.10    0.34
   5  -5  -2    7.01    0.40
   0   5  -2    6.64    0.34
  -5   0  -2    6.36    0.30
   0  -5   2    7.25    0.53
  -5   1  -2    3.68    0.33
  -5   1  -2    3.31    0.23
  -5   1  -2    3.53    0.28
   1   4  -2    3.18    0.21
   4  -5  -2    2.83    0.27
   4  -5  -2    3.22    0.33
  -1  -4   2    3.97    0.42
  -5   2  -2   10.11    0.52
  -5   2  -2    9.91    0.42
  -5   2  -2    9.84    0.45
   3  -5  -2   10.25    0.48
   3  -5  -2    9.43    0.47
  -2  -3   2   10.58    0.55
  -5   3  -2   10.42    0.47
  -5   3  -2   10.52    0.46
   2  -5  -2   10.60    0.50
  -5   3  -2   11.32    0.62
  -3  -2   2   10.08    0.54
  -5   4  -2    3.63    0.28
   1  -5  -2    3.17    0.35
  -5   4  -2    3.77    0.31
  -4  -1   2    3.37    0.34
   5  -4   2    3.77    0.68
   0  -5  -2    6.20    0.45
   0  -5  -2    6.12    0.42
  -5   5  -2    6.97    0.40
  -5   5  -2    6.31    0.56
   0  -5  -2    5.96    0.28
  -5   0   2    6.91    0.45
  -1  -5  -2   12.32    0.48
  -1  -5  -2   12.18    0.75
  -5   6  -2   11.72    0.56
  -1  -5  -2   12.02    0.72
  -5   6  -2   12.85    0.60
  -6   1   2   12.14    0.60
  -5   7  -2    3.32    0.38
  -5   7  -2    4.09    0.42
  -2  -5  -2    3.73    0.31
  -7   2   2    4.37    0.44
  -6  -1  -2    8.07    0.55
   7  -6  -2    7.65    0.47
   7  -6  -2    6.90    0.46
   1  -7   2    7.19    0.46
   1  -7   2    7.88    0.45
   1  -7   2    7.45    0.58
  -6   0  -2  256.57    6.48
  -6   0  -2  258.14    6.67
   6  -6  -2  270.36    6.64
   6  -6  -2  259.08    6.64
   0  -6   2  260.24    6.53
   0  -6   2  261.53    6.56
   5  -6  -2   12.12    0.58
   5  -6  -2   12.15    0.58
  -6   1  -2   12.62    0.51
  -6   1  -2   12.85    0.64
  -1  -5   2   12.54    0.49
  -1  -5   2   13.62    0.71
  -6   2  -2  199.85    5.12
  -6   2  -2  203.54    5.28
   4  -6  -2  205.47    5.69
   4  -6  -2  195.06    5.21
  -6   2  -2  210.52    5.10
  -6   3  -2    1.15    0.20
   3  -6  -2    1.39    0.24
  -6   3  -2    1.34    0.21
  -3  -3   2    1.29    0.25
  -6   4  -2  204.28    5.17
   2  -6  -2  199.61    5.22
  -6   4  -2  197.92    5.21
   2  -6  -2  202.02    5.25
  -4  -2   2  211.42    5.31
  -6   5  -2   11.46    0.56
   1  -6  -2   12.69    0.64
   1  -6  -2   12.05    0.59
  -5  -1   2   12.48    0.67
  -6   6  -2  258.68    6.61
   0  -6  -2  250.43    6.41
  -6   6  -2  256.39    6.63
   0  -6  -2  263.93    6.75
  -6   0   2  271.28    6.71
  -1  -6  -2    6.93    0.79
  -6   7  -2    7.31    0.50
  -1  -6  -2    8.42    0.73
  -7   1   2    6.95    0.57
   6  -7  -2    7.87    0.50
   6  -7  -2    7.45    0.51
  -7   1  -2    8.02    0.55
  -1  -6   2    9.17    0.63
  -7   2  -2    4.23    0.32
  -7   2  -2    4.33    0.47
  -7   2  -2    4.45    0.30
   5  -7  -2    4.05    0.37
  -2  -5   2    3.96    0.49
  -7   3  -2    5.07    0.35
  -7   3  -2    6.14    0.52
  -7   3  -2    5.80    0.37
   4  -7  -2    5.24    0.42
   4  -7  -2    6.30    0.43
  -3  -4   2    4.49    0.50
  -7   4  -2    6.18    0.39
   3  -7  -2    5.19    0.42
  -4  -3   2    6.20    0.54
  -7   5  -2    4.29    0.37
   2  -7  -2    5.30    0.53
  -7   5  -2    4.63    0.37
   2  -7  -2    3.64    0.45
   7  -5   2    4.43    0.80
  -5  -2   2    4.87    0.52
   1  -7  -2    7.08    0.50
   1  -7  -2    7.45    0.53
  -7   6  -2    7.50    0.50
  -7   6  -2    7.55    0.47
  -6  -1   2    8.66    0.65
   0   0  -3  102.36    2.74
   0   0  -3  101.64    2.73
   0   0   3   98.22    2.66
   0   1  -3   52.00    1.74
  -1   0  -3   54.80    1.61
   0   1  -3   49.22    1.71
  -1   1   3   55.48    1.49
   1   0   3   49.81    1.87
  -1   1  -3   47.53    1.86
   0  -1  -3   51.52    1.73
  -1   1  -3   52.72    1.81
   1   0  -3   51.17    1.53
   0  -1  -3   55.17    1.79
   1  -1   3   51.33    1.59
  -1   2  -3  172.93    4.79
   2  -1  -3  176.95    5.32
  -1  -1  -3  185.23    4.77
  -1  -1  -3  181.74    4.77
  -1   2  -3  182.05    4.84
   1  -2   3  184.93    4.68
  -1   3  -3   44.88    1.38
   3  -2  -3   43.95    1.44
   3  -2  -3   46.33    1.48
  -2  -1  -3   43.15    1.47
  -2  -1  -3   46.64    1.47
  -2  -1  -3   42.75    1.30
  -1   3  -3   44.99    1.39
  -2   0  -3  236.87    6.40
   2  -2  -3  245.80    6.37
  -2   0  -3  245.40    6.36
   0   2  -3  239.28    6.29
   2  -2  -3  252.31    6.36
   2   0   3  260.33    6.28
  -2   1  -3  168.61    5.08
   1   1  -3  178.79    4.84
   1   1  -3  185.23    4.75
   1  -2  -3  178.43    4.82
   1  -2  -3  186.33    4.88
  -1  -1   3  174.15    4.82
   2   0  -3  242.77    5.98
   0  -2  -3  235.20    6.67
   2   0  -3  234.81    6.02
  -2   2  -3  239.92    6.26
   0  -2  -3  242.72    6.63
   0   2   3  236.29    6.09
   3  -1  -3   39.78    1.79
  -2   3  -3   41.90    1.37
  -1  -2  -3   41.32    1.73
  -1  -2  -3   41.33    1.56
  -2   3  -3   45.15    1.37
   2  -3   3   42.26    1.40
  -3   1   3   45.31    1.30
  -2   4  -3   70.59    2.02
  -2  -2  -3   72.51    2.11
   4  -2  -3   68.93    2.11
  -2  -2  -3   70.41    2.19
  -2  -2  -3   68.83    1.92
   4  -2  -3   75.80    2.18
  -2   4  -3   69.72    2.03
  -4   2   3   69.86    1.90
  -3  -2  -3   28.11    1.10
   5  -3  -3   26.30    0.94
  -3  -2  -3   28.48    0.93
  -2   5  -3   28.07    0.97
  -2   5  -3   26.35    0.97
   5  -3  -3   25.52    0.98
   4  -3  -3   40.68    1.31
  -3  -1  -3   43.07    1.48
  -1   4  -3   43.14    1.30
  -3  -1  -3   38.24    1.24
   4  -3  -3   39.96    1.27
  -1   4  -3   41.84    1.28
  -3   0  -3  124.67    3.84
   3  -3  -3  132.43    3.53
  -3   0  -3  130.59    3.51
   0   3  -3  138.98    3.48
   3  -3  -3  136.18    3.56
   0   3  -3  135.46    3.52
   0  -3   3  138.31    3.99
  -3   1  -3   40.26    1.79
   1   2  -3   43.10    1.30
   2  -3  -3   44.66    1.39
   1   2  -3   44.22    1.41
   2  -3  -3   41.95    1.38
   3  -1   3   46.06    1.44
   1  -3  -3   43.50    1.43
   2   1  -3   42.92    1.52
   1  -3  -3   41.59    1.43
  -3   2  -3   42.44    1.41
  -3   2  -3   45.02    1.52
   3  -2   3   43.99    1.79
   3   0  -3  136.78    3.56
   0  -3  -3  133.12    3.87
  -3   3  -3  140.31    3.68
   0  -3  -3  133.06    3.90
  -3   3  -3  135.85    3.62
  -3   0   3  138.99    3.64
  -3   4  -3   40.59    1.30
  -1  -3  -3   39.00    2.03
   4  -1  -3   38.49    1.22
   4  -1  -3   41.58    1.50
  -1  -3  -3   39.24    1.16
  -3   4  -3   41.12    1.32
  -4   1   3   43.18    1.28
  -2  -3  -3   28.15    1.26
  -2  -3  -3   27.88    1.11
  -2  -3  -3   28.10    0.91
   5  -2  -3   29.32    1.28
  -3   5  -3   28.71    1.00
   3  -5   3   29.99    1.49
  -5   2   3   27.62    0.96
  -3  -3  -3   88.74    3.01
   6  -3  -3   83.77    2.53
  -3   6  -3   92.59    2.52
  -3   6  -3   89.24    2.49
   6  -3  -3   83.86    2.46
  -3  -3  -3   81.90    2.55
  -3  -3  -3   90.38    2.41
   6  -4  -3  104.38    2.83
  -2   6  -3  107.55    2.89
   6  -4  -3  100.89    2.88
  -2   6  -3  103.94    2.86
  -4  -2  -3  102.31    3.01
   5  -4  -3   90.42    2.59
  -4  -1  -3   95.10    2.76
   5  -4  -3   92.96    2.57
  -1   5  -3   93.17    2.55
  -1   5  -3   95.51    2.57
  -4  -1  -3   94.37    2.59
   0   4  -3  163.49    4.02
   0   4  -3  153.50    3.97
   4  -4  -3  152.07    4.05
  -4   0  -3  155.04    4.06
  -4   0  -3  152.24    4.68
   4  -4  -3  154.21    4.07
  -4   1  -3   41.60    1.33
   1   3  -3   39.90    1.16
   3  -4  -3   39.16    1.28
   2  -4  -3   68.05    1.99
   2  -4  -3   65.60    1.98
   2   2  -3   67.64    1.79
   2   2  -3   68.19    1.91
  -4   2  -3   67.90    1.98
   4  -2   3   70.57    2.15
  -4   3  -3   39.11    1.32
   1  -4  -3   41.16    1.38
   1  -4  -3   39.51    1.35
  -4   3  -3   39.08    1.27
   4  -3   3   39.04    1.80
  -4   4  -3  161.81    4.21
   0  -4  -3  151.85    4.37
  -4   4  -3  155.71    4.16
   0  -4  -3  157.50    4.42
   4   0  -3  159.83    4.10
  -4   0   3  166.61    4.23
   4  -4   3  155.76    4.51
  -4   5  -3   97.02    2.95
  -4   5  -3   96.80    2.71
  -1  -4  -3   90.59    3.50
  -1  -4  -3   95.87    2.51
   5  -1  -3   93.43    2.59
  -5   1   3  101.75    2.72
  -4   6  -3  106.56    2.96
  -4   6  -3  105.05    2.94
  -2  -4  -3  101.87    3.34
   6  -2  -3  103.03    3.21
  -2  -4  -3  107.97    3.07
  -2  -4  -3  107.00    2.80
  -6   2   3  104.37    2.94
  -5  -1  -3   28.90    0.93
   6  -5  -3   25.96    0.98
   6  -5  -3   26.14    1.01
  -5  -1  -3   25.65    0.99
  -5  -1  -3   26.51    1.37
  -1   6  -3   27.22    0.97
  -5   0  -3   19.12    0.74
   0   5  -3   19.46    0.71
   0   5  -3   19.91    0.73
   5  -5  -3   18.56    0.80
  -5   0  -3   18.93    0.82
   5  -5  -3   20.08    0.80
   0  -5   3   21.05    1.18
  -5   1  -3   97.92    2.80
   4  -5  -3   92.98    2.65
  -5   1  -3   97.73    2.61
   1   4  -3   93.82    2.49
   1   4  -3   92.80    2.51
  -5   1  -3   97.31    2.70
  -1  -4   3   94.55    2.99
  -5   2  -3   27.08    0.95
   2   3  -3   28.11    0.85
  -5   2  -3   26.67    1.08
   3  -5  -3   26.02    0.99
   3  -5  -3   27.41    1.01
  -5   2  -3   27.65    1.06
  -5   3  -3   26.58    0.94
   2  -5  -3   24.84    0.97
   5  -3   3   24.98    1.24
   1  -5  -3   93.23    2.70
  -5   4  -3   92.46    2.59
  -5   4  -3   92.40    2.64
   1  -5  -3   94.89    2.75
   0  -5  -3   21.40    1.08
  -5   5  -3   20.83    0.87
   5  -5   3   22.34    1.15
  -5   6  -3   26.74    1.03
  -1  -5  -3   24.67    1.60
  -1  -5  -3   24.37    3.31
  -5   6  -3   23.91    0.97
  -1  -5  -3   24.99    0.81
  -6   1   3   27.22    1.10
  -6   1  -3   27.45    1.02
   1   5  -3   27.96    0.88
   5  -6  -3   26.61    1.04
  -6   1  -3   26.85    1.08
  -6   1  -3   27.07    0.92
   5  -6  -3   25.57    1.03
  -6   2  -3  107.02    3.05
  -6   2  -3  102.74    2.91
  -6   2  -3  106.94    2.83
   4  -6  -3  102.01    2.94
   3  -6  -3   84.78    2.46
  -6   3  -3   86.93    2.45
   3  -6  -3   85.49    2.49
  -6   3  -3   81.53    2.66
   2  -6  -3  104.01    2.98
  -6   4  -3  102.15    2.86
   2  -6  -3  105.37    3.01
  -6   4  -3  107.62    2.95
   6  -4   3  104.48    3.59
  -6   5  -3   28.06    1.07
   1  -6  -3   27.44    1.12
   1  -6  -3   27.07    1.17
  -6   5  -3   26.00    1.01
   0   0  -4  433.13   10.79
   0   0  -4  440.65   10.79
   0   0   4  428.47   10.68
  -1   0  -4   14.84    0.72
   0   1  -4   16.45    0.74
   1  -1  -4   16.44    0.76
  -1   0  -4   15.88    0.71
   1  -1  -4   15.83    0.75
   1   0   4   16.95    0.79
   0  -1   4   15.34    0.67
   0  -1  -4   15.81    0.72
   0  -1  -4   15.03    0.73
  -1   1  -4   15.58    0.76
   1   0  -4   15.47    0.67
   0   1   4   14.95    0.61
  -1   0   4   15.62    0.64
   2  -1  -4    1.95    0.37
  -1  -1  -4    1.81    0.32
  -1   2  -4    2.19    0.52
   2  -1  -4    2.26    0.33
  -1  -1  -4    2.55    0.37
   1   1   4    1.42    0.35
  -2   1   4    2.10    0.33
  -1   3  -4   11.69    0.90
  -2  -1  -4   12.48    1.00
   3  -2  -4   11.87    0.97
  -2  -1  -4   14.19    0.70
   3  -2  -4   13.46    1.18
   2   1   4   13.45    0.76
   2  -2  -4  212.72    6.15
  -2   0  -4  225.13    5.64
   0   2  -4  209.97    5.82
  -2   0  -4  223.42    5.65
   0   2  -4  219.40    5.89
   2   0   4  203.48    5.92
   1  -2  -4    2.64    0.52
   1  -2  -4    3.31    0.67
  -2   1  -4    1.52    0.39
   1   1  -4    2.56    0.34
  -1  -1   4    1.81    0.36
  -1   2   4    2.41    0.23
   2  -1   4    1.60    0.38
   2   0  -4  215.81    5.59
   0  -2  -4  212.89    5.81
   2   0  -4  220.50    5.55
   0  -2  -4  220.61    5.91
   0   2   4  214.52    5.53
   2  -2   4  226.09    5.73
  -2   3  -4   10.68    0.95
  -1  -2  -4   12.75    0.68
   3  -1  -4   12.80    0.68
   1   2   4   12.22    0.81
  -2  -2  -4  292.59    7.52
  -2   4  -4  305.68    7.98
  -2   4  -4  287.71    7.68
  -2  -2  -4  300.05    7.47
   4  -2  -4  281.72    7.90
   4  -2  -4  281.19    7.58
   2  -4   4  294.24    7.47
  -3  -2  -4    6.55    0.56
   5  -3  -4    8.16    1.06
  -2   5  -4    7.06    0.63
  -2   5  -4    7.44    0.65
  -3  -2  -4    7.95    0.51
   2  -5   4    6.38    0.65
  -3  -1  -4   12.86    0.74
  -1   4  -4   12.95    0.82
   4  -3  -4   11.61    1.11
  -3  -1  -4   13.63    0.74
   4  -3  -4   14.52    1.00
   1  -4   4   14.76    0.81
   3  -3  -4    2.32    0.52
   0  -3   4    2.54    0.46
   3   0   4    2.45    0.44
   1   2  -4   13.31    0.92
   2  -3  -4   11.51    1.03
   2  -3  -4   11.63    1.05
   1   2  -4   13.08    0.85
   3  -1   4   12.98    1.01
  -3   2  -4   13.08    1.59
   1  -3  -4   13.81    1.31
   2   1  -4   13.07    0.68
  -3   2  -4   12.36    1.27
   2   1  -4   14.69    0.72
   3  -2   4   15.12    1.74
   0  -3  -4    3.06    0.57
  -3   3  -4    2.26    0.62
   0  -3  -4    3.03    0.71
   3   0  -4    3.05    0.30
  -3   3  -4    3.15    0.62
   3   0  -4    2.92    0.35
   3  -3   4    3.03    0.45
  -3   4  -4   11.07    0.83
  -3   4  -4   12.98    0.82
   4  -1  -4   11.92    0.53
  -1  -3  -4   11.25    0.83
   3  -4   4   11.63    0.69
   5  -2  -4    6.93    0.47
  -2  -3  -4    7.20    0.59
  -2  -3  -4    6.94    0.57
  -3   5  -4    7.10    0.67
  -2  -3  -4    7.72    0.48
  -3   5  -4    7.36    0.64
   3  -5   4    7.10    0.60
  -1   5  -4    1.15    0.37
  -4  -1  -4    1.68    0.39
   5  -4  -4    1.29    0.39
  -4  -1  -4    1.19    0.48
   5  -4  -4    0.72    0.33
  -4  -1  -4    0.84    0.27
   1  -5   4    0.86    0.39
   0   4  -4  145.83    4.08
   4  -4  -4  155.06    4.20
   4  -4  -4  146.62    4.19
   0   4  -4  143.82    3.98
  -4   0  -4  148.99    4.26
   1   3  -4   11.44    0.77
   1   3  -4   11.06    0.62
  -4   1  -4   11.78    1.31
   3  -4  -4   12.74    0.82
  -4   1  -4   11.06    0.90
   3  -4  -4   12.59    0.79
   4  -1   4   11.58    0.82
   2  -4  -4  293.59    7.87
   2  -4  -4  294.83    7.85
   1  -4  -4   12.28    1.07
  -4   3  -4   11.98    1.02
  -4   3  -4   13.27    0.90
   1  -4  -4   11.84    1.12
  -3  -1   4   10.72    0.90
  -4   4  -4  148.71    4.43
   4   0  -4  156.84    3.99
   0  -4  -4  142.67    5.28
  -4   4  -4  157.69    4.34
  -1  -4  -4    1.36    0.47
   5  -1  -4    1.61    0.30
  -4   5  -4    1.73    0.43
  -4   5  -4    1.35    0.44
   4  -5   4    1.73    0.41
  -5   1  -4    0.42    0.61
   1   4  -4    0.68    0.22
   1   4  -4    1.11    0.32
   5  -1   4    0.93    0.32
  -1  -4   4    0.07    0.57
   2   3  -4    6.87    0.53
   3  -5  -4    6.27    0.60
   2   3  -4    7.04    0.43
  -5   2  -4    4.88    0.86
   3  -5  -4    5.79    0.64
   2  -5  -4    5.47    0.65
   3   2  -4    6.57    0.59
   2  -5  -4    5.27    0.67
  -5   3  -4    7.13    0.87
   5  -3   4    5.93    0.90
   1  -5  -4    1.11    0.49
  -5   4  -4    1.69    0.50
  -5   4  -4    1.24    0.36
   5  -4   4    1.40    0.51
   0   0  -5   50.82    1.63
   0   0   5   52.03    1.55
   0   1  -5   20.34    0.88
  -1   0  -5   19.92    0.88
   1  -1  -5   22.46    0.92
   0   1  -5   21.83    0.90
   1  -1  -5   21.97    0.92
  -1   0  -5   19.52    0.89
   0  -1   5   22.32    0.84
  -1   1   5   21.58    0.74
  -1   1  -5   21.58    0.91
   1   0  -5   23.67    0.92
   0  -1  -5   20.75    0.93
  -1   1  -5   22.18    0.93
  -1   0   5   20.45    0.81
   0   1   5   21.22    0.78
   2  -1  -5   72.35    2.17
  -1   2  -5   71.14    2.21
  -1  -1  -5   69.11    2.15
  -1  -1  -5   69.80    2.18
  -1   2  -5   69.02    2.20
   1   1   5   74.73    2.13
  -2   1   5   75.41    2.03
   1  -2   5   73.98    2.15
  -1   3  -5   16.82    0.98
  -1   3  -5   16.65    0.99
  -2  -1  -5   18.18    0.84
   3  -2  -5   18.39    0.92
   3  -2  -5   18.02    0.84
  -2  -1  -5   16.38    0.81
   1  -3   5   17.60    0.82
   2  -2  -5  123.23    3.41
   2  -2  -5  113.73    3.38
   0   2  -5  121.17    3.33
  -2   0  -5  117.78    3.32
   0   2  -5  112.89    3.30
  -2   0  -5  113.62    3.30
   0  -2   5  119.96    3.25
   2   0   5  122.78    3.43
   1  -2  -5   72.96    2.27
   1  -2  -5   70.65    2.23
   1   1  -5   74.11    2.14
  -2   1  -5   67.99    2.18
  -2   2  -5  114.25    3.26
   0  -2  -5  119.40    3.30
   2   0  -5  112.35    3.12
  -2   2  -5  109.02    3.26
   0   2   5  111.28    2.96
  -2   3  -5   20.57    1.06
  -1  -2  -5   17.28    0.88
  -2   3  -5   19.21    1.07
  -1  -2  -5   18.27    0.85
   3  -1  -5   19.96    0.80
   1   2   5   17.95    0.81
   2  -3   5   20.33    0.91
  -3   0  -5   54.88    1.81
  -3   0  -5   55.86    1.85
   0   3  -5   55.26    1.98
   3  -3  -5   52.76    2.02
   0   3  -5   56.61    1.94
  -3   1  -5   16.70    0.88
   2  -3  -5   17.48    1.09
   1   2  -5   17.44    0.85
   1   2  -5   18.16    0.85
   2  -3  -5   17.24    1.07
   3  -1   5   17.65    1.07
  -1  -2   5   20.01    0.89
  -3   2  -5   17.88    0.94
  -3   2  -5   17.12    0.98
   1  -3  -5   18.24    1.08
   2   1  -5   20.50    0.85
   1  -3  -5   18.23    1.02
  -2  -1   5   19.38    0.88
   3  -2   5   20.34    1.04
   0  -3  -5   56.79    1.98
   3   0  -5   56.08    1.72
   0  -3  -5   53.75    1.88
  -3   3  -5   54.34    2.02
  -3   3  -5   54.30    2.10
  -3   0   5   58.41    1.80
   0   0   0    0.00    0.00
;
_shelx_hkl_checksum              45855
loop_
_space_group_symop_operation_xyz
'x, y, z'
'-y, x-y, z'
'-x+y, -x, z'
'-x, -y, z'
'y, -x+y, z'
'x-y, x, z'
'y, x, -z'
'x-y, -y, -z'
'-x, -x+y, -z'
'-y, -x, -z'
'-x+y, y, -z'
'x, x-y, -z'
'-x, -y, -z'
'y, -x+y, -z'
'x-y, x, -z'
'x, y, -z'
'-y, x-y, -z'
'-x+y, -x, -z'
'-y, -x, z'
'-x+y, y, z'
'x, x-y, z'
'y, x, z'
'x-y, -y, z'
'-x, -x+y, z'
loop_
_atom_site_label
_atom_site_type_symbol
_atom_site_fract_x
_atom_site_fract_y
_atom_site_fract_z
_atom_site_U_iso_or_equiv
_atom_site_adp_type
_atom_site_occupancy
_atom_site_site_symmetry_order
_atom_site_calc_flag
_atom_site_refinement_flags_posn
_atom_site_refinement_flags_adp
_atom_site_refinement_flags_occupancy
_atom_site_disorder_assembly
_atom_site_disorder_group
Ir1 Ir 0.5000 0.0000 0.5000 0.0083(2) Uani 1 8 d S T P . .
La2 La 0.0000 0.0000 0.0000 0.0103(2) Uani 1 24 d S T P . .
Ga3 Ga 0.3333 0.6667 0.0000 0.0057(3) Uani 1 12 d S T P . .
loop_
_atom_site_aniso_label
_atom_site_aniso_U_11
_atom_site_aniso_U_22
_atom_site_aniso_U_33
_atom_site_aniso_U_23
_atom_site_aniso_U_13
_atom_site_aniso_U_12
Ir1 0.0100(2) 0.0046(2) 0.0083(3) 0.000 0.000 0.00231(11)
La2 0.0072(3) 0.0072(3) 0.0167(5) 0.000 0.000 0.00358(15)
Ga3 0.0060(3) 0.0060(3) 0.0050(5) 0.000 0.000 0.00301(17)
loop_
_atom_type_symbol
_atom_type_description
_atom_type_scat_dispersion_real
_atom_type_scat_dispersion_imag
_atom_type_scat_source
Ga Ga 0.2307 1.6083 'International Tables Vol C Tables 4.2.6.8 and 6.1.1.4'
La La -0.2871 2.4523 'International Tables Vol C Tables 4.2.6.8 and 6.1.1.4'
Ir Ir -1.4442 7.9887 'International Tables Vol C Tables 4.2.6.8 and 6.1.1.4'
loop_
_geom_angle_atom_site_label_1
_geom_angle_atom_site_label_2
_geom_angle_atom_site_label_3
_geom_angle
_geom_angle_site_symmetry_1
_geom_angle_site_symmetry_3
_geom_angle_publ_flag
Ga3 Ir1 Ga3 180.0 13_666 1_545 ?
Ga3 Ir1 Ga3 100.889(5) 13_666 13_665 ?
Ga3 Ir1 Ga3 79.111(5) 1_545 13_665 ?
Ga3 Ir1 Ga3 79.111(5) 13_666 1_546 ?
Ga3 Ir1 Ga3 100.889(5) 1_545 1_546 ?
Ga3 Ir1 Ga3 180.0 13_665 1_546 ?
Ga3 Ir1 Ir1 56.530(2) 13_666 2_655 ?
Ga3 Ir1 Ir1 123.470(2) 1_545 2_655 ?
Ga3 Ir1 Ir1 56.530(2) 13_665 2_655 ?
Ga3 Ir1 Ir1 123.470(2) 1_546 2_655 ?
Ga3 Ir1 Ir1 123.470(2) 13_666 2_545 ?
Ga3 Ir1 Ir1 56.530(2) 1_545 2_545 ?
Ga3 Ir1 Ir1 123.470(1) 13_665 2_545 ?
Ga3 Ir1 Ir1 56.530(2) 1_546 2_545 ?
Ir1 Ir1 Ir1 180.0 2_655 2_545 ?
Ga3 Ir1 Ir1 56.529(2) 13_666 3_665 ?
Ga3 Ir1 Ir1 123.471(2) 1_545 3_665 ?
Ga3 Ir1 Ir1 56.529(1) 13_665 3_665 ?
Ga3 Ir1 Ir1 123.471(2) 1_546 3_665 ?
Ir1 Ir1 Ir1 60.0 2_655 3_665 ?
Ir1 Ir1 Ir1 120.0 2_545 3_665 ?
Ga3 Ir1 Ir1 123.471(2) 13_666 3_655 ?
Ga3 Ir1 Ir1 56.529(2) 1_545 3_655 ?
Ga3 Ir1 Ir1 123.471(2) 13_665 3_655 ?
Ga3 Ir1 Ir1 56.529(2) 1_546 3_655 ?
Ir1 Ir1 Ir1 120.0 2_655 3_655 ?
Ir1 Ir1 Ir1 60.0 2_545 3_655 ?
Ir1 Ir1 Ir1 180.0 3_665 3_655 ?
Ga3 Ir1 La2 116.213(3) 13_666 . ?
Ga3 Ir1 La2 63.787(3) 1_545 . ?
Ga3 Ir1 La2 63.786(3) 13_665 . ?
Ga3 Ir1 La2 116.214(3) 1_546 . ?
Ir1 Ir1 La2 114.193(1) 2_655 . ?
Ir1 Ir1 La2 65.807(1) 2_545 . ?
Ir1 Ir1 La2 65.807(1) 3_665 . ?
Ir1 Ir1 La2 114.193(1) 3_655 . ?
Ga3 Ir1 La2 63.787(3) 13_666 1_656 ?
Ga3 Ir1 La2 116.213(3) 1_545 1_656 ?
Ga3 Ir1 La2 116.214(3) 13_665 1_656 ?
Ga3 Ir1 La2 63.786(3) 1_546 1_656 ?
Ir1 Ir1 La2 65.807(1) 2_655 1_656 ?
Ir1 Ir1 La2 114.193(1) 2_545 1_656 ?
Ir1 Ir1 La2 114.193(1) 3_665 1_656 ?
Ir1 Ir1 La2 65.807(1) 3_655 1_656 ?
La2 Ir1 La2 180.0 . 1_656 ?
Ga3 Ir1 La2 116.214(3) 13_666 1_655 ?
Ga3 Ir1 La2 63.786(3) 1_545 1_655 ?
Ga3 Ir1 La2 63.787(3) 13_665 1_655 ?
Ga3 Ir1 La2 116.213(3) 1_546 1_655 ?
Ir1 Ir1 La2 65.807(1) 2_655 1_655 ?
Ir1 Ir1 La2 114.193(1) 2_545 1_655 ?
Ir1 Ir1 La2 114.193(1) 3_665 1_655 ?
Ir1 Ir1 La2 65.807(1) 3_655 1_655 ?
La2 Ir1 La2 110.093(5) . 1_655 ?
La2 Ir1 La2 69.907(5) 1_656 1_655 ?
Ga3 Ir1 La2 63.786(3) 13_666 1_556 ?
Ga3 Ir1 La2 116.214(3) 1_545 1_556 ?
Ga3 Ir1 La2 116.213(3) 13_665 1_556 ?
Ga3 Ir1 La2 63.787(3) 1_546 1_556 ?
Ir1 Ir1 La2 114.193(1) 2_655 1_556 ?
Ir1 Ir1 La2 65.807(1) 2_545 1_556 ?
Ir1 Ir1 La2 65.807(1) 3_665 1_556 ?
Ir1 Ir1 La2 114.193(1) 3_655 1_556 ?
La2 Ir1 La2 69.907(5) . 1_556 ?
La2 Ir1 La2 110.093(5) 1_656 1_556 ?
La2 Ir1 La2 180.0 1_655 1_556 ?
Ga3 La2 Ga3 120.0 13_665 13 ?
Ga3 La2 Ga3 180.0 13_665 1_445 ?
Ga3 La2 Ga3 60.0 13 1_445 ?
Ga3 La2 Ga3 60.0 13_665 . ?
Ga3 La2 Ga3 180.0 13 . ?
Ga3 La2 Ga3 120.0 1_445 . ?
Ga3 La2 Ga3 120.0 13_665 13_565 ?
Ga3 La2 Ga3 120.0 13 13_565 ?
Ga3 La2 Ga3 60.0 1_445 13_565 ?
Ga3 La2 Ga3 60.0 . 13_565 ?
Ga3 La2 Ga3 60.0 13_665 1_545 ?
Ga3 La2 Ga3 60.0 13 1_545 ?
Ga3 La2 Ga3 120.0 1_445 1_545 ?
Ga3 La2 Ga3 120.0 . 1_545 ?
Ga3 La2 Ga3 180.0 13_565 1_545 ?
Ga3 La2 Ir1 44.780(2) 13_665 3_665 ?
Ga3 La2 Ir1 135.220(2) 13 3_665 ?
Ga3 La2 Ir1 135.220(2) 1_445 3_665 ?
Ga3 La2 Ir1 44.781(2) . 3_665 ?
Ga3 La2 Ir1 90.0 13_565 3_665 ?
Ga3 La2 Ir1 90.0 1_545 3_665 ?
Ga3 La2 Ir1 135.220(2) 13_665 3_554 ?
Ga3 La2 Ir1 44.780(2) 13 3_554 ?
Ga3 La2 Ir1 44.780(2) 1_445 3_554 ?
Ga3 La2 Ir1 135.219(2) . 3_554 ?
Ga3 La2 Ir1 90.0 13_565 3_554 ?
Ga3 La2 Ir1 90.0 1_545 3_554 ?
Ir1 La2 Ir1 180.0 3_665 3_554 ?
Ga3 La2 Ir1 44.781(2) 13_665 . ?
Ga3 La2 Ir1 90.0 13 . ?
Ga3 La2 Ir1 135.219(2) 1_445 . ?
Ga3 La2 Ir1 90.0 . . ?
Ga3 La2 Ir1 135.219(2) 13_565 . ?
Ga3 La2 Ir1 44.781(1) 1_545 . ?
Ir1 La2 Ir1 48.386(1) 3_665 . ?
Ir1 La2 Ir1 131.614(1) 3_554 . ?
Ga3 La2 Ir1 90.0 13_665 2 ?
Ga3 La2 Ir1 135.219(2) 13 2 ?
Ga3 La2 Ir1 90.0 1_445 2 ?
Ga3 La2 Ir1 44.781(2) . 2 ?
Ga3 La2 Ir1 44.781(1) 13_565 2 ?
Ga3 La2 Ir1 135.219(1) 1_545 2 ?
Ir1 La2 Ir1 48.386(1) 3_665 2 ?
Ir1 La2 Ir1 131.614(1) 3_554 2 ?
Ir1 La2 Ir1 90.439(4) . 2 ?
Ga3 La2 Ir1 90.0 13_665 2_544 ?
Ga3 La2 Ir1 44.781(2) 13 2_544 ?
Ga3 La2 Ir1 90.0 1_445 2_544 ?
Ga3 La2 Ir1 135.219(2) . 2_544 ?
Ga3 La2 Ir1 135.219(1) 13_565 2_544 ?
Ga3 La2 Ir1 44.781(1) 1_545 2_544 ?
Ir1 La2 Ir1 131.614(1) 3_665 2_544 ?
Ir1 La2 Ir1 48.386(1) 3_554 2_544 ?
Ir1 La2 Ir1 89.561(4) . 2_544 ?
Ir1 La2 Ir1 180.0 2 2_544 ?
Ga3 La2 Ir1 135.219(2) 13_665 1_454 ?
Ga3 La2 Ir1 90.0 13 1_454 ?
Ga3 La2 Ir1 44.781(2) 1_445 1_454 ?
Ga3 La2 Ir1 90.0 . 1_454 ?
Ga3 La2 Ir1 44.781(1) 13_565 1_454 ?
Ga3 La2 Ir1 135.219(2) 1_545 1_454 ?
Ir1 La2 Ir1 131.614(1) 3_665 1_454 ?
Ir1 La2 Ir1 48.386(1) 3_554 1_454 ?
Ir1 La2 Ir1 180.0 . 1_454 ?
Ir1 La2 Ir1 89.561(4) 2 1_454 ?
Ir1 La2 Ir1 90.439(4) 2_544 1_454 ?
Ir1 Ga3 Ir1 142.866(2) 2_554 1_565 ?
Ir1 Ga3 Ir1 100.889(5) 2_554 2 ?
Ir1 Ga3 Ir1 66.941(4) 1_565 2 ?
Ir1 Ga3 Ir1 66.941(4) 2_554 1_564 ?
Ir1 Ga3 Ir1 100.889(5) 1_565 1_564 ?
Ir1 Ga3 Ir1 142.866(2) 2 1_564 ?
Ir1 Ga3 Ir1 142.866(2) 2_554 3_665 ?
Ir1 Ga3 Ir1 66.941(4) 1_565 3_665 ?
Ir1 Ga3 Ir1 66.941(4) 2 3_665 ?
Ir1 Ga3 Ir1 142.866(2) 1_564 3_665 ?
Ir1 Ga3 Ir1 66.941(4) 2_554 3_664 ?
Ir1 Ga3 Ir1 142.866(2) 1_565 3_664 ?
Ir1 Ga3 Ir1 142.866(2) 2 3_664 ?
Ir1 Ga3 Ir1 66.941(4) 1_564 3_664 ?
Ir1 Ga3 Ir1 100.889(5) 3_665 3_664 ?
Ir1 Ga3 La2 71.433(1) 2_554 1_565 ?
Ir1 Ga3 La2 71.433(1) 1_565 1_565 ?
Ir1 Ga3 La2 71.433(1) 2 1_565 ?
Ir1 Ga3 La2 71.433(1) 1_564 1_565 ?
Ir1 Ga3 La2 129.555(2) 3_665 1_565 ?
Ir1 Ga3 La2 129.555(2) 3_664 1_565 ?
Ir1 Ga3 La2 129.556(3) 2_554 1_665 ?
Ir1 Ga3 La2 71.433(1) 1_565 1_665 ?
Ir1 Ga3 La2 129.555(2) 2 1_665 ?
Ir1 Ga3 La2 71.433(1) 1_564 1_665 ?
Ir1 Ga3 La2 71.433(1) 3_665 1_665 ?
Ir1 Ga3 La2 71.433(1) 3_664 1_665 ?
La2 Ga3 La2 120.0 1_565 1_665 ?
Ir1 Ga3 La2 71.433(1) 2_554 . ?
Ir1 Ga3 La2 129.555(3) 1_565 . ?
Ir1 Ga3 La2 71.433(1) 2 . ?
Ir1 Ga3 La2 129.555(2) 1_564 . ?
Ir1 Ga3 La2 71.433(1) 3_665 . ?
Ir1 Ga3 La2 71.433(1) 3_664 . ?
La2 Ga3 La2 120.0 1_565 . ?
La2 Ga3 La2 120.0 1_665 . ?
loop_
_geom_bond_atom_site_label_1
_geom_bond_atom_site_label_2
_geom_bond_distance
_geom_bond_site_symmetry_2
_geom_bond_publ_flag
Ir1 Ga3 2.53325(13) 13_666 ?
Ir1 Ga3 2.53325(13) 1_545 ?
Ir1 Ga3 2.53325(13) 13_665 ?
Ir1 Ga3 2.53325(12) 1_546 ?
Ir1 Ir1 2.79420(14) 2_655 ?
Ir1 Ir1 2.79420(14) 2_545 ?
Ir1 Ir1 2.79420(14) 3_665 ?
Ir1 Ir1 2.79420(14) 3_655 ?
Ir1 La2 3.40916(15) . ?
Ir1 La2 3.40916(15) 1_656 ?
Ir1 La2 3.40916(14) 1_655 ?
Ir1 La2 3.40916(15) 1_556 ?
La2 Ga3 3.22645(16) 13_665 ?
La2 Ga3 3.22645(16) 13 ?
La2 Ga3 3.22645(16) 1_445 ?
La2 Ga3 3.22646(16) . ?
La2 Ga3 3.22649(16) 13_565 ?
La2 Ga3 3.22649(16) 1_545 ?
La2 Ir1 3.40916(14) 3_665 ?
La2 Ir1 3.40916(14) 3_554 ?
La2 Ir1 3.40916(15) 2 ?
La2 Ir1 3.40916(15) 2_544 ?
La2 Ir1 3.40916(15) 1_454 ?
Ga3 Ir1 2.53324(13) 2_554 ?
Ga3 Ir1 2.53324(13) 1_565 ?
Ga3 Ir1 2.53324(13) 2 ?
Ga3 Ir1 2.53324(13) 1_564 ?
Ga3 Ir1 2.53324(12) 3_665 ?
Ga3 Ir1 2.53324(13) 3_664 ?
Ga3 La2 3.22646(16) 1_565 ?
Ga3 La2 3.22646(17) 1_665 ?
