#------------------------------------------------------------------------------
#$Date: 2021-11-02 10:25:29 +0200 (Tue, 02 Nov 2021) $
#$Revision: 270198 $
#$URL: file:///home/coder/svn-repositories/cod/cif/4/00/40/4004039.cif $
#------------------------------------------------------------------------------
#
# This file is available in the Crystallography Open Database (COD),
# http://www.crystallography.net/
#
# All data on this site have been placed in the public domain by the
# contributors.
#
data_4004039
loop_
_publ_author_name
'Belik, A.A.'
'Iikubo, S.'
'Kodama, K.'
'Igawa, N.'
'Shamoto, S.'
'Takayama-Muromachi, E.'
_publ_section_title
;
 Neutron powder diffraction study on the crystal and magnetic structures
 of BiCrO3 :At 130 K
;
_journal_name_full               'Chemistry of Materials'
_journal_page_first              3765
_journal_page_last               3769
_journal_paper_doi               10.1021/cm800375d
_journal_volume                  20
_journal_year                    2008
_chemical_formula_sum            'Bi Cr O3'
_chemical_name_common            'BiCrO3 at 130 K'
_space_group_IT_number           15
_space_group_name_Hall           '-C 2yc'
_space_group_name_H-M_alt        'C 1 2/c 1'
_cell_angle_alpha                90.000000
_cell_angle_beta                 108.564(3)
_cell_angle_gamma                90.000000
_cell_formula_units_Z            8
_cell_length_a                   9.4658(5)
_cell_length_b                   5.4810(2)
_cell_length_c                   9.5879(4)
_cell_volume                     471.56(4)
_diffrn_ambient_pressure         100
_diffrn_ambient_temperature      130
_cod_data_source_file            BiCrO3-C2c-130K.cif
_cod_data_source_block           BiCrO3-130K
_cod_original_cell_volume        471.56(3)
_cod_original_sg_symbol_H-M      'C 2/c'
_cod_database_code               4004039
loop_
_space_group_symop_id
_space_group_symop_operation_xyz
1 x,y,z
2 -x,-y,-z
3 -x,y,-z+1/2
4 x,-y,z+1/2
5 x+1/2,y+1/2,z
6 -x+1/2,-y+1/2,-z
7 -x+1/2,y+1/2,-z+1/2
8 x+1/2,-y+1/2,z+1/2
loop_
_atom_site_label
_atom_site_occupancy
_atom_site_fract_x
_atom_site_fract_y
_atom_site_fract_z
_atom_site_adp_type
_atom_site_B_iso_or_equiv
_atom_site_type_symbol
Bi 1.0 0.13324(16) 0.2134(3) 0.13098(17) Biso 0.34(3) Bi
Cr1 1.0 0.000000 0.2409(7) 0.750000 Biso 0.43(10) Cr
Cr2 1.0 0.250000 0.250000 0.500000 Biso 0.44(10) Cr
O1 1.0 0.0871(3) 0.2012(5) 0.5877(2) Biso 0.78(5) O
O2 1.0 0.1547(3) 0.5272(5) 0.3651(3) Biso 0.58(5) O
O3 1.0 0.3570(3) 0.5223(5) 0.1580(3) Biso 0.24(5) O
