#------------------------------------------------------------------------------
#$Date: 2016-03-21 05:36:41 +0200 (Mon, 21 Mar 2016) $
#$Revision: 178487 $
#$URL: svn://www.crystallography.net/cod/cif/4/03/08/4030834.cif $
#------------------------------------------------------------------------------
#
# This file is available in the Crystallography Open Database (COD),
# http://www.crystallography.net/
#
# All data on this site have been placed in the public domain by the
# contributors.
#
data_4030834
loop_
_publ_author_name
'Faget, H.'
'Grannec, J.'
'Tressaud, A.'
'Rodriguez, V.'
'Roisnel, T.'
'Flerov, I. N.'
'Gorev, M. V.'
_publ_section_title
;
 Neutron powder refinements of the three structural forms of Rb2KScF6
;
_journal_name_full
'European Journal of Solid State and Inorganic Chemistry'
_journal_page_first              893
_journal_page_last               905
_journal_volume                  33
_journal_year                    1996
_chemical_formula_sum            'F6 K Rb2 Sc'
_chemical_formula_weight         368.98
_space_group_IT_number           14
_symmetry_cell_setting           monoclinic
_symmetry_Int_Tables_number      14
_symmetry_space_group_name_Hall  '-P 2yn'
_symmetry_space_group_name_H-M   'P 1 21/n 1'
_cell_angle_alpha                90
_cell_angle_beta                 89.90(1)
_cell_angle_gamma                90
_cell_formula_units_Z            2
_cell_length_a                   6.363(1)
_cell_length_b                   6.349(1)
_cell_length_c                   8.993(1)
_cell_volume                     363.30(9)
_diffrn_ambient_temperature      150
_diffrn_radiation_probe          neutron
_diffrn_radiation_wavelength     1.2272
_exptl_crystal_density_diffrn    3.373
_pd_proc_ls_prof_R_factor        0.065
_pd_proc_ls_prof_wR_factor       0.081
_refine_ls_number_parameters     31
_refine_ls_number_reflns         1144
_refine_ls_R_I_factor            0.105
_cod_data_source_file            EJSSIC-1996-33-893-905-2.cif
_cod_data_source_block           Rb2KScF6-2
_cod_depositor_comments
;
Rigid octahedra Rietveld refinement, Fullprof software
;
_cod_original_cell_volume        363.31(9)
_cod_original_sg_symbol_H-M      'P 21/n'
_cod_database_code               4030834
loop_
_symmetry_equiv_pos_site_id
_symmetry_equiv_pos_as_xyz
1 x,y,z
2 1/2-x,1/2+y,1/2-z
3 -x,-y,-z
4 1/2+x,1/2-y,1/2+z
loop_
_atom_site_label
_atom_site_type_symbol
_atom_site_thermal_displace_type
_atom_site_fract_x
_atom_site_fract_y
_atom_site_fract_z
_atom_site_occupancy
_atom_site_U_iso_or_equiv
Sc Sc Uiso 0.00000 0.00000 0.00000 1.000 0.0089(13)
F1 F Uiso 0.058(3) 0.011(2) 0.221(2) 1.000 0.018(3)
F2 F Uiso -0.252(3) 0.189(2) 0.029(2) 1.000 0.018(3)
F3 F Uiso 0.184(2) 0.256(3) -0.031(2) 1.000 0.025(3)
Rb Rb Uiso 0.504(2) -0.0210(10) 0.251(2) 1.000 0.0152(13)
K K Uiso 0.00000 0.00000 0.50000 1.000 0.0089(13)
loop_
_geom_angle_atom_site_label_1
_geom_angle_atom_site_label_2
_geom_angle_atom_site_label_3
_geom_angle
_geom_angle_site_symmetry_1
_geom_angle_site_symmetry_3
_geom_angle_publ_flag
F1 Sc F2 89.9(7) . . yes
F1 Sc F3 90.1(7) . . yes
F1 Sc F1 180.00 . 3_555 yes
F1 Sc F2 90.1(7) . 3_555 yes
F1 Sc F3 89.9(7) . 3_555 yes
F2 Sc F3 90.0(6) . . yes
F1 Sc F2 90.1(7) 3_555 . yes
F2 Sc F2 180.00 . 3_555 yes
F2 Sc F3 90.0(6) . 3_555 yes
F1 Sc F3 89.9(7) 3_555 . yes
F2 Sc F3 90.0(6) 3_555 . yes
F3 Sc F3 180.00 . 3_555 yes
F1 Sc F2 89.9(7) 3_555 3_555 yes
F1 Sc F3 90.1(7) 3_555 3_555 yes
F2 Sc F3 90.0(6) 3_555 3_555 yes
loop_
_geom_bond_atom_site_label_1
_geom_bond_atom_site_label_2
_geom_bond_distance
_geom_bond_site_symmetry_2
_geom_bond_publ_flag
Sc F1 2.023(18) . yes
Sc F2 2.019(17) . yes
Sc F3 2.022(17) . yes
Sc F1 2.023(18) 3_555 yes
Sc F2 2.019(17) 3_555 yes
Sc F3 2.022(17) 3_555 yes
