#------------------------------------------------------------------------------
#$Date: 2016-03-21 05:37:26 +0200 (Mon, 21 Mar 2016) $
#$Revision: 178488 $
#$URL: svn://www.crystallography.net/cod/cif/4/03/09/4030901.cif $
#------------------------------------------------------------------------------
#
# This file is available in the Crystallography Open Database (COD),
# http://www.crystallography.net/
#
# All data on this site have been placed in the public domain by the
# contributors.
#
data_4030901
loop_
_publ_author_name
'Rumpf, C.'
'Tillinski, R.'
'Nather, C.'
'Durichen, P.'
'Jeb, I.'
'Bensch, W.'
_publ_section_title
;
 Synthesis, crystal structures and optical properties of new quaternary
 chalcogenides of Va metals : Rb2CuVS4, K2CuVSe4, Rb2CuNbSe4, Cs2CuNbSe4
 and Rb2CuNbS4
;
_journal_name_full
'European Journal of Solid State and Inorganic Chemistry'
_journal_page_first              1187
_journal_page_last               1198
_journal_volume                  34
_journal_year                    1997
_chemical_formula_sum            'Cu Nb Rb2 S4'
_chemical_formula_weight         455.648
_space_group_IT_number           70
_symmetry_cell_setting           orthorhombic
_symmetry_Int_Tables_number      70
_symmetry_space_group_name_Hall  '-F 2uv 2vw'
_symmetry_space_group_name_H-M   'F d d d :2'
_cell_angle_alpha                90
_cell_angle_beta                 90
_cell_angle_gamma                90
_cell_formula_units_Z            8
_cell_length_a                   5.5924(7)
_cell_length_b                   13.498(2)
_cell_length_c                   23.839(3)
_cell_volume                     1799.5(4)
_diffrn_ambient_temperature      293
_diffrn_radiation_probe          x-ray
_diffrn_radiation_type           MoK\a
_diffrn_radiation_wavelength     0.71073
_exptl_absorpt_coefficient_mu    15.22
_exptl_crystal_density_diffrn    3.364
_exptl_crystal_F_000             1664
_refine_ls_goodness_of_fit_ref   0.964
_refine_ls_number_parameters     22
_refine_ls_number_reflns         410
_refine_ls_R_factor_gt           0.0231
_refine_ls_wR_factor_gt          0.0513
_cod_data_source_file            EJSSIC-1997-34-1187-1198-3.cif
_cod_data_source_block           Rb2CuNbS4
_cod_original_sg_symbol_H-M      'F d d d'
_cod_database_code               4030901
loop_
_symmetry_equiv_pos_site_id
_symmetry_equiv_pos_as_xyz
1 x,y,z
2 1/4-x,1/4-y,z
3 x,1/4-y,1/4-z
4 1/4-x,y,1/4-z
5 -x,-y,-z
6 3/4+x,3/4+y,-z
7 -x,3/4+y,3/4+z
8 3/4+x,-y,3/4+z
9 x,1/2+y,1/2+z
10 1/4-x,3/4-y,1/2+z
11 x,3/4-y,3/4-z
12 1/4-x,1/2+y,3/4-z
13 -x,1/2-y,1/2-z
14 3/4+x,1/4+y,1/2-z
15 -x,1/4+y,1/4+z
16 3/4+x,1/2-y,1/4+z
17 1/2+x,y,1/2+z
18 3/4-x,1/4-y,1/2+z
19 1/2+x,1/4-y,3/4-z
20 3/4-x,y,3/4-z
21 1/2-x,-y,1/2-z
22 1/4+x,3/4+y,1/2-z
23 1/2-x,3/4+y,1/4+z
24 1/4+x,-y,1/4+z
25 1/2+x,1/2+y,z
26 3/4-x,3/4-y,z
27 1/2+x,3/4-y,1/4-z
28 3/4-x,1/2+y,1/4-z
29 1/2-x,1/2-y,-z
30 1/4+x,1/4+y,-z
31 1/2-x,1/4+y,3/4+z
32 1/4+x,1/2-y,3/4+z
loop_
_atom_site_label
_atom_site_type_symbol
_atom_site_thermal_displace_type
_atom_site_fract_x
_atom_site_fract_y
_atom_site_fract_z
_atom_site_occupancy
_atom_site_U_iso_or_equiv
_atom_site_calc_flag
_atom_site_refinement_flags
_atom_site_disorder_assembly
_atom_site_disorder_group
Nb Nb Uiso 0.12500 0.62500 0.12500 1.000 0.0160(10) . . . .
Cu Cu Uiso 0.62500 0.62500 0.12500 1.000 0.0260(10) . . . .
S S Uiso -0.1157(2) 0.72250(10) 0.07070(10) 1.000 0.0260(10) . . . .
Rb Rb Uiso 0.37500 0.37500 0.19720(10) 1.000 0.0310(10) . . . .
loop_
_atom_type_symbol
_atom_type_description
_atom_type_scat_dispersion_real
_atom_type_scat_dispersion_imag
_atom_type_scat_source
Cu Cu 0.3201 1.2651 ' International Tables Vol C Tables 4.2.6.8 and 6.1.1.4'
Nb Nb -2.0727 0.6215 ' International Tables Vol C Tables 4.2.6.8 and 6.1.1.4'
Rb Rb -0.9393 2.9676 ' International Tables Vol C Tables 4.2.6.8 and 6.1.1.4'
S S 0.1246 0.1234 ' International Tables Vol C Tables 4.2.6.8 and 6.1.1.4'
loop_
_geom_angle_atom_site_label_1
_geom_angle_atom_site_label_2
_geom_angle_atom_site_label_3
_geom_angle
_geom_angle_site_symmetry_1
_geom_angle_site_symmetry_2
_geom_angle_site_symmetry_3
_geom_angle_publ_flag
Cu Nb S 126.10(4) . . . yes
Cu Nb Cu 180.00 . . 1_455 yes
Cu Nb S 53.90(4) . . 2_565 yes
Cu Nb S 126.10(4) . . 3_565 yes
Cu Nb S 53.90(4) . . 4_555 yes
Cu Nb S 53.90(4) 1_455 . . yes
S Nb S 110.97(7) . . 2_565 yes
S Nb S 107.80(5) . . 3_565 yes
S Nb S 109.65(5) . . 4_555 yes
Cu Nb S 126.10(4) 1_455 . 2_565 yes
Cu Nb S 53.90(4) 1_455 . 3_565 yes
Cu Nb S 126.10(4) 1_455 . 4_555 yes
S Nb S 109.65(5) 2_565 . 3_565 yes
S Nb S 107.80(5) 2_565 . 4_555 yes
S Nb S 110.97(7) 3_565 . 4_555 yes
Nb Cu Nb 180.00 . . 1_655 yes
Nb Cu S 128.15(4) . . 1_655 yes
Nb Cu S 51.85(4) . . 2_565 yes
Nb Cu S 128.15(4) . . 3_665 yes
Nb Cu S 51.85(4) . . 4_555 yes
Nb Cu S 51.85(4) 1_655 . 1_655 yes
Nb Cu S 128.15(4) 1_655 . 2_565 yes
Nb Cu S 51.85(4) 1_655 . 3_665 yes
Nb Cu S 128.15(4) 1_655 . 4_555 yes
S Cu S 113.07(7) 1_655 . 2_565 yes
S Cu S 103.70(5) 1_655 . 3_665 yes
S Cu S 111.80(5) 1_655 . 4_555 yes
S Cu S 111.80(5) 2_565 . 3_665 yes
S Cu S 103.70(5) 2_565 . 4_555 yes
S Cu S 113.07(7) 3_665 . 4_555 yes
Nb S Cu 74.25(6) . . 1_455 yes
loop_
_geom_bond_atom_site_label_1
_geom_bond_atom_site_label_2
_geom_bond_distance
_geom_bond_site_symmetry_1
_geom_bond_site_symmetry_2
_geom_bond_publ_flag
Nb Cu 2.7962(4) . . yes
Nb S 2.2846(17) . . yes
Nb Cu 2.7962(4) . 1_455 yes
Nb S 2.2846(17) . 2_565 yes
Nb S 2.2846(17) . 3_565 yes
Nb S 2.2846(17) . 4_555 yes
Cu S 2.3474(17) . 1_655 yes
Cu S 2.3474(17) . 2_565 yes
Cu S 2.3474(17) . 3_665 yes
Cu S 2.3474(17) . 4_555 yes
loop_
_geom_torsion_atom_site_label_1
_geom_torsion_atom_site_label_2
_geom_torsion_atom_site_label_3
_geom_torsion_atom_site_label_4
_geom_torsion
_geom_torsion_site_symmetry_1
_geom_torsion_site_symmetry_2
_geom_torsion_site_symmetry_3
_geom_torsion_site_symmetry_4
_geom_torsion_publ_flag
S Nb S Cu 120.09(5) . . 2_565 . no
S Nb S Cu -120.92(6) . . 4_555 . no
S Nb Cu S 0.02(10) . . . 1_655 no
S Nb Cu S -90.95(9) . . . 2_565 no
S Nb Cu S 180.00(9) . . . 3_665 no
S Nb Cu S 89.05(9) . . . 4_555 no
