#------------------------------------------------------------------------------
#$Date: 2016-03-21 05:36:41 +0200 (Mon, 21 Mar 2016) $
#$Revision: 178487 $
#$URL: svn://www.crystallography.net/cod/cif/4/03/08/4030822.cif $
#------------------------------------------------------------------------------
#
# This file is available in the Crystallography Open Database (COD),
# http://www.crystallography.net/
#
# All data on this site have been placed in the public domain by the
# contributors.
#
data_4030822
loop_
_publ_author_name
'Jannin, M.'
'Kilinsky, C.'
'Godefroy, G.'
'Jannot, B.'
'Sorokina, N. I.'
'Lee, D. Y.'
'Simonov, V. I.'
'Vronkova, V. I.'
'Yanoviskii, V. K.'
_publ_section_title
;
 Crystal structures and dielectric properties of compounds in the
 KTiOPP4-TlTiOPO4 and RbTiOPO4-TlTiOPO4 systems
;
_journal_name_full
'European Journal of Solid State and Inorganic Chemistry'
_journal_page_first              607
_journal_page_last               621
_journal_volume                  33
_journal_year                    1996
_chemical_formula_sum            'O5 P Rb0.77 Ti Tl0.23'
_chemical_formula_weight         271.656
_space_group_IT_number           33
_symmetry_cell_setting           orthorhombic
_symmetry_Int_Tables_number      33
_symmetry_space_group_name_Hall  'P 2c -2n'
_symmetry_space_group_name_H-M   'P n a 21'
_cell_angle_alpha                90
_cell_angle_beta                 90
_cell_angle_gamma                90
_cell_formula_units_Z            8
_cell_length_a                   12.946(3)
_cell_length_b                   6.491(1)
_cell_length_c                   10.547(3)
_cell_volume                     886.3(4)
_diffrn_ambient_temperature      293
_diffrn_radiation_probe          x-ray
_diffrn_radiation_type           MoK\a
_diffrn_radiation_wavelength     0.71073
_exptl_absorpt_coefficient_mu    20.32
_exptl_crystal_density_diffrn    4.072
_exptl_crystal_density_meas      4.01
_refine_ls_number_parameters     147
_refine_ls_number_reflns         2106
_refine_ls_R_factor_gt           0.021
_refine_ls_wR_factor_gt          0.023
_cod_data_source_file            EJSSIC-1996-33-607-621-3.cif
_cod_data_source_block           Rb0.77Tl0.23TiOPO4
_cod_database_code               4030822
loop_
_symmetry_equiv_pos_site_id
_symmetry_equiv_pos_as_xyz
1 x,y,z
2 -x,-y,1/2+z
3 1/2-x,1/2+y,1/2+z
4 1/2+x,1/2-y,z
loop_
_atom_site_label
_atom_site_type_symbol
_atom_site_thermal_displace_type
_atom_site_fract_x
_atom_site_fract_y
_atom_site_fract_z
_atom_site_occupancy
_atom_site_U_iso_or_equiv
Tl1 Tl Uiso 0.10486(2) 0.69546(5) 0.07576(7) 0.230 0.0175(1)
Tl2 Tl Uiso 0.38382(2) 0.78356(4) 0.32703(7) 0.230 0.0188(1)
Ti1 Ti Uiso 0.37251(4) 0.49978(9) 0.00000 1.000 0.0043(1)
Ti2 Ti Uiso 0.24786(5) 0.26812(8) 0.25167(9) 1.000 0.0043(1)
P1 P Uiso 0.49957(7) 0.33340(10) 0.25840(10) 1.000 0.0044(1)
P2 P Uiso 0.18039(6) 0.50200(10) 0.51210(10) 1.000 0.0046(1)
O1 O Uiso 0.4858(2) 0.4796(5) 0.1465(3) 1.000 0.0091(5)
O2 O Uiso 0.5136(2) 0.4608(4) 0.3818(3) 1.000 0.0081(5)
O3 O Uiso 0.4017(2) 0.2018(4) 0.2789(3) 1.000 0.0082(4)
O4 O Uiso 0.5947(2) 0.1939(4) 0.2398(3) 1.000 0.0075(4)
O5 O Uiso 0.1144(2) 0.3109(4) 0.5421(3) 1.000 0.0067(4)
O6 O Uiso 0.1134(2) 0.6910(4) 0.4846(3) 1.000 0.0099(5)
O7 O Uiso 0.2514(2) 0.5441(4) 0.6267(2) 1.000 0.0076(4)
O8 O Uiso 0.2519(2) 0.4574(4) 0.3996(3) 1.000 0.0094(5)
O9 O Uiso 0.2225(2) 0.0446(4) 0.3897(3) 1.000 0.0084(5)
O10 O Uiso 0.2219(2) -0.0376(4) 0.6428(2) 1.000 0.0070(4)
Rb1 Rb Uiso 0.10486(2) 0.69546(5) 0.07576(7) 0.770 0.0175(1)
Rb2 Rb Uiso 0.38382(2) 0.78356(4) 0.32703(7) 0.770 0.0188(1)
loop_
_atom_type_symbol
_atom_type_description
_atom_type_scat_dispersion_real
_atom_type_scat_dispersion_imag
_atom_type_scat_source
O O 0.0106 0.0060 ' International Tables Vol C Tables 4.2.6.8 and 6.1.1.4'
P P 0.1023 0.0942 ' International Tables Vol C Tables 4.2.6.8 and 6.1.1.4'
Rb Rb -0.9393 2.9676 ' International Tables Vol C Tables 4.2.6.8 and 6.1.1.4'
Ti Ti 0.2776 0.4457 ' International Tables Vol C Tables 4.2.6.8 and 6.1.1.4'
Tl Tl -2.8358 9.6688 ' International Tables Vol C Tables 4.2.6.8 and 6.1.1.4'
loop_
_geom_angle_atom_site_label_1
_geom_angle_atom_site_label_2
_geom_angle_atom_site_label_3
_geom_angle
_geom_angle_site_symmetry_1
_geom_angle_site_symmetry_3
_geom_angle_publ_flag
O7 Tl1 O10 82.20(7) 3_554 3_554 yes
O1 Tl1 O7 73.45(8) 4_465 3_554 yes
O1 Tl1 O10 143.67(8) 4_465 3_554 yes
O2 Tl2 O8 75.01(8) . . yes
O2 Tl2 O5 104.49(8) . 3_554 yes
O5 Tl2 O8 108.61(8) 3_554 . yes
O1 Ti1 O2 87.21(12) . 2_664 yes
O1 Ti1 O6 86.29(12) . 3_544 yes
O1 Ti1 O5 81.30(12) . 3_554 yes
O1 Ti1 O9 173.06(13) . 3_554 yes
O1 Ti1 O10 82.20(10) . 3_554 yes
O2 Ti1 O6 90.60(11) 2_664 3_544 yes
O2 Ti1 O5 86.98(11) 2_664 3_554 yes
O2 Ti1 O9 94.95(13) 2_664 3_554 yes
O2 Ti1 O10 169.36(11) 2_664 3_554 yes
O5 Ti1 O6 167.45(11) 3_554 3_544 yes
O6 Ti1 O9 100.27(12) 3_544 3_554 yes
O6 Ti1 O10 89.73(11) 3_544 3_554 yes
O5 Ti1 O9 92.21(12) 3_554 3_554 yes
O5 Ti1 O10 90.40(11) 3_554 3_554 yes
O9 Ti1 O10 95.46(12) 3_554 3_554 yes
O3 Ti2 O8 89.67(12) . . yes
O3 Ti2 O9 84.79(11) . . yes
O3 Ti2 O7 86.22(11) . 3_544 yes
O3 Ti2 O10 91.48(12) . 3_554 yes
O3 Ti2 O4 173.25(12) . 4_455 yes
O8 Ti2 O9 83.45(12) . . yes
O7 Ti2 O8 170.25(11) 3_544 . yes
O8 Ti2 O10 93.66(11) . 3_554 yes
O4 Ti2 O8 89.94(12) 4_455 . yes
O7 Ti2 O9 87.37(11) 3_544 . yes
O9 Ti2 O10 175.28(12) . 3_554 yes
O4 Ti2 O9 88.47(11) 4_455 . yes
O7 Ti2 O10 95.29(11) 3_544 3_554 yes
O4 Ti2 O7 93.10(12) 4_455 3_544 yes
O4 Ti2 O10 95.27(12) 4_455 3_554 yes
O1 P1 O2 109.33(16) . . yes
O1 P1 O3 110.91(16) . . yes
O1 P1 O4 111.13(17) . . yes
O2 P1 O3 105.87(16) . . yes
O2 P1 O4 109.04(16) . . yes
O3 P1 O4 110.41(14) . . yes
O5 P2 O6 111.75(15) . . yes
O5 P2 O7 108.21(16) . . yes
O5 P2 O8 110.01(15) . . yes
O6 P2 O7 110.13(15) . . yes
O6 P2 O8 110.31(16) . . yes
O7 P2 O8 106.26(15) . . yes
Ti1 O1 P1 132.75(18) . . yes
Tl1 O1 Ti1 98.25(12) 4_565 . yes
Tl1 O1 P1 129.00(15) 4_565 . yes
Tl2 O2 P1 99.11(13) . . yes
Tl2 O2 Ti1 119.83(12) . 2_665 yes
Ti1 O2 P1 134.03(16) 2_665 . yes
Ti2 O3 P1 131.24(16) . . yes
Ti2 O4 P1 135.33(16) 4_555 . yes
Ti1 O5 P2 134.04(17) 3_545 . yes
Ti1 O6 P2 136.84(17) 3_555 . yes
Ti2 O7 P2 131.32(16) 3_555 . yes
Tl2 O8 Ti2 105.46(12) . . yes
Tl2 O8 P2 115.68(14) . . yes
Ti2 O8 P2 135.15(16) . . yes
Ti1 O9 Ti2 134.80(15) 3_545 . yes
Ti1 O10 Ti2 137.30(15) 3_545 3_545 yes
loop_
_geom_bond_atom_site_label_1
_geom_bond_atom_site_label_2
_geom_bond_distance
_geom_bond_site_symmetry_2
_geom_bond_publ_flag
Tl1 O7 2.979(3) 3_554 yes
Tl1 O10 2.796(3) 3_554 yes
Tl1 O1 2.717(3) 4_465 yes
Tl2 O2 2.747(3) . yes
Tl2 O8 2.826(3) . yes
Tl2 O5 3.011(3) 3_554 yes
Ti1 O1 2.134(3) . yes
Ti1 O2 1.948(3) 2_664 yes
Ti1 O6 2.019(3) 3_544 yes
Ti1 O5 2.075(3) 3_554 yes
Ti1 O9 1.718(3) 3_554 yes
Ti1 O10 1.955(2) 3_554 yes
Ti2 O3 2.058(3) . yes
Ti2 O8 1.987(3) . yes
Ti2 O9 2.081(3) . yes
Ti2 O7 1.963(3) 3_544 yes
Ti2 O10 1.750(3) 3_554 yes
Ti2 O4 2.002(3) 4_455 yes
P1 O1 1.525(3) . yes
P1 O2 1.553(3) . yes
P1 O3 1.543(3) . yes
P1 O4 1.541(3) . yes
P2 O5 1.539(3) . yes
P2 O6 1.530(3) . yes
P2 O7 1.543(3) . yes
P2 O8 1.533(3) . yes
loop_
_geom_torsion_atom_site_label_1
_geom_torsion_atom_site_label_2
_geom_torsion_atom_site_label_3
_geom_torsion_atom_site_label_4
_geom_torsion
_geom_torsion_site_symmetry_1
_geom_torsion_site_symmetry_3
_geom_torsion_site_symmetry_4
_geom_torsion_publ_flag
O2 Ti1 O1 P1 -135.4(2) 2_664 . . no
O6 Ti1 O1 P1 -44.6(2) 3_544 . . no
O5 Ti1 O1 P1 137.3(3) 3_554 . . no
O10 Ti1 O1 P1 45.7(2) 3_554 . . no
O1 Ti1 O2 P1 -145.7(2) . 2_664 2_664 no
O1 Ti1 O6 P2 111.5(3) . 3_544 3_544 no
O1 Ti1 O5 P2 -164.6(3) . 3_554 3_554 no
O1 Ti1 O10 Ti2 -66.7(2) . 3_554 . no
O6 Ti1 O10 Ti2 19.6(2) 3_544 3_554 . no
O5 Ti1 O10 Ti2 -147.9(2) 3_554 3_554 . no
O9 Ti1 O10 Ti2 119.9(2) 3_554 3_554 . no
O8 Ti2 O3 P1 -70.6(3) . . . no
O9 Ti2 O3 P1 -154.0(3) . . . no
O7 Ti2 O3 P1 118.3(2) 3_544 . . no
O10 Ti2 O3 P1 23.1(3) 3_554 . . no
O3 Ti2 O8 P2 -137.5(2) . . . no
O9 Ti2 O8 P2 -52.7(2) . . . no
O10 Ti2 O8 P2 131.0(2) 3_554 . . no
O4 Ti2 O8 P2 35.7(2) 4_455 . . no
O3 Ti2 O9 Ti1 152.6(2) . . 3_545 no
O8 Ti2 O9 Ti1 62.3(2) . . 3_545 no
O7 Ti2 O9 Ti1 -121.0(2) 3_544 . 3_545 no
O4 Ti2 O9 Ti1 -27.8(2) 4_455 . 3_545 no
O3 Ti2 O7 P2 -52.1(2) . 3_544 3_544 no
O9 Ti2 O7 P2 -137.0(2) . 3_544 3_544 no
O3 Ti2 O10 Ti1 43.6(2) . 3_554 . no
O8 Ti2 O10 Ti1 133.4(2) . 3_554 . no
O7 Ti2 O10 Ti1 -42.7(2) 3_544 3_554 . no
O4 Ti2 O10 Ti1 -136.3(2) 4_455 3_554 . no
O8 Ti2 O4 P1 -113.9(3) . 4_455 4_455 no
O9 Ti2 O4 P1 -30.5(3) . 4_455 4_455 no
O2 P1 O1 Ti1 -128.3(2) . . . no
O3 P1 O1 Ti1 -12.0(3) . . . no
O4 P1 O1 Ti1 111.3(2) . . . no
O1 P1 O2 Ti1 -113.6(2) . . 2_665 no
O3 P1 O2 Ti1 126.8(2) . . 2_665 no
O4 P1 O2 Ti1 8.0(3) . . 2_665 no
O1 P1 O3 Ti2 -33.4(3) . . . no
O2 P1 O3 Ti2 85.1(3) . . . no
O4 P1 O3 Ti2 -157.0(2) . . . no
O1 P1 O4 Ti2 75.1(3) . . 4_555 no
O2 P1 O4 Ti2 -45.5(3) . . 4_555 no
O3 P1 O4 Ti2 -161.4(2) . . 4_555 no
O6 P2 O5 Ti1 142.3(2) . . 3_545 no
O7 P2 O5 Ti1 -96.2(3) . . 3_545 no
O8 P2 O5 Ti1 19.5(3) . . 3_545 no
O5 P2 O6 Ti1 152.5(2) . . 3_555 no
O7 P2 O6 Ti1 32.2(3) . . 3_555 no
O8 P2 O6 Ti1 -84.8(3) . . 3_555 no
O5 P2 O7 Ti2 -111.0(2) . . 3_555 no
O6 P2 O7 Ti2 11.4(2) . . 3_555 no
O8 P2 O7 Ti2 130.90(19) . . 3_555 no
O5 P2 O8 Ti2 26.3(3) . . . no
O6 P2 O8 Ti2 -97.5(2) . . . no
O7 P2 O8 Ti2 143.2(2) . . . no
