#------------------------------------------------------------------------------
#$Date: 2016-03-21 05:30:10 +0200 (Mon, 21 Mar 2016) $
#$Revision: 178481 $
#$URL: svn://www.crystallography.net/cod/cif/4/03/02/4030232.cif $
#------------------------------------------------------------------------------
#
# This file is available in the Crystallography Open Database (COD),
# http://www.crystallography.net/
#
# All data on this site have been placed in the public domain by the
# contributors.
#
data_4030232
loop_
_publ_author_name
'Champarnaud-Mesjard, J.-C.'
'Mercurio, D.'
'Frit, B.'
'Follet-Houttemane, C.'
'Boivin, J.-C.'
'Roult, G.'
_publ_section_title
;
 Single crystal X-ray and powder neutron diffraction study of the A-La2O3
 type Bi(1-x)PbxF(2xy)O(1.5-0.5x-xy) solid solution
;
_journal_name_full
'European Journal of Solid State and Inorganic Chemistry'
_journal_page_first              137
_journal_page_last               153
_journal_volume                  26
_journal_year                    1989
_chemical_formula_sum            'Bi F O2 Pb'
_chemical_formula_weight         467.18
_space_group_IT_number           164
_symmetry_cell_setting           trigonal
_symmetry_Int_Tables_number      164
_symmetry_space_group_name_Hall  '-P 3 2"'
_symmetry_space_group_name_H-M   'P -3 m 1'
_cell_angle_alpha                90
_cell_angle_beta                 90
_cell_angle_gamma                120
_cell_formula_units_Z            1
_cell_length_a                   4.101(2)
_cell_length_b                   4.101(2)
_cell_length_c                   6.087(2)
_cell_volume                     88.66(7)
_diffrn_ambient_temperature      293
_diffrn_radiation_probe          neutron
_diffrn_radiation_type           white
_exptl_crystal_density_diffrn    8.64
_exptl_crystal_density_meas      8.60
_pd_proc_ls_prof_R_factor        0.034
_cod_data_source_file            EJSSIC-1989-26-137-153-2.cif
_cod_data_source_block           BiPbFO2-neutron
_cod_original_cell_volume        20
_cod_database_code               4030232
loop_
_symmetry_equiv_pos_site_id
_symmetry_equiv_pos_as_xyz
1 x,y,z
2 -y,x-y,z
3 -x+y,-x,z
4 y,x,-z
5 -x,-x+y,-z
6 x-y,-y,-z
7 -x,-y,-z
8 y,-x+y,-z
9 x-y,x,-z
10 -y,-x,z
11 x,x-y,z
12 -x+y,y,z
loop_
_atom_site_label
_atom_site_type_symbol
_atom_site_thermal_displace_type
_atom_site_fract_x
_atom_site_fract_y
_atom_site_fract_z
_atom_site_occupancy
_atom_site_U_iso_or_equiv
O O Uiso 0.2648(3) 0.5296(3) 0.6173(3) 0.332(2) 0.0429(9)
Bi Bi Uiso 0.33333 0.66667 0.2697(2) 0.500 0.0263(1)
Pb Pb Uiso 0.33333 0.66667 0.2663(2) 0.500 0.0263(1)
F1 F Uiso 0.00000 0.00000 0.00000 0.550(8) 0.0522(3)
F2 F Uiso 0.00000 0.00000 0.165(4) 0.086(4) 0.035(5)
F3 F Uiso 0.06260(10) 0.1252(19) 0.436(2) 0.048(4) 0.054(8)
loop_
_geom_angle_atom_site_label_1
_geom_angle_atom_site_label_2
_geom_angle_atom_site_label_3
_geom_angle
_geom_angle_site_symmetry_1
_geom_angle_site_symmetry_3
_geom_angle_publ_flag
O O O 60.00(16) 2_665 3_565 yes
loop_
_geom_bond_atom_site_label_1
_geom_bond_atom_site_label_2
_geom_bond_distance
_geom_bond_site_symmetry_2
_geom_bond_publ_flag
O O 0.8432(19) 2_665 yes
O O 0.8432(18) 3_565 yes
