#------------------------------------------------------------------------------
#$Date: 2016-03-21 05:35:49 +0200 (Mon, 21 Mar 2016) $
#$Revision: 178486 $
#$URL: svn://www.crystallography.net/cod/cif/4/03/07/4030785.cif $
#------------------------------------------------------------------------------
#
# This file is available in the Crystallography Open Database (COD),
# http://www.crystallography.net/
#
# All data on this site have been placed in the public domain by the
# contributors.
#
data_4030785
loop_
_publ_author_name
'Bronger, W.'
'Eyck, J.'
'Kruse, K.'
'Schmitz, D.'
_publ_section_title
;
 Ternary rubidium rare-earth sulphides; synthesis and structure
;
_journal_name_full
'European Journal of Solid State and Inorganic Chemistry'
_journal_page_first              213
_journal_page_last               216
_journal_volume                  33
_journal_year                    1996
_chemical_formula_sum            'La Rb S2'
_chemical_formula_weight         288.503
_space_group_IT_number           166
_symmetry_cell_setting           trigonal
_symmetry_Int_Tables_number      166
_symmetry_space_group_name_Hall  '-R 3 2"'
_symmetry_space_group_name_H-M   'R -3 m :H'
_cell_angle_alpha                90
_cell_angle_beta                 90
_cell_angle_gamma                120
_cell_formula_units_Z            3
_cell_length_a                   4.296(1)
_cell_length_b                   4.296(1)
_cell_length_c                   22.930(6)
_cell_volume                     366.49(15)
_diffrn_ambient_temperature      293
_diffrn_radiation_probe          x-ray
_diffrn_radiation_type           MoK\a
_diffrn_radiation_wavelength     0.71073
_exptl_absorpt_coefficient_mu    19.288
_exptl_crystal_density_diffrn    3.922
_exptl_crystal_F_000             378
_refine_ls_number_parameters     8
_refine_ls_number_reflns         166
_refine_ls_R_factor_gt           0.018
_cod_data_source_file            EJSSIC-1996-33-213-216-1.cif
_cod_data_source_block           RbLaS2
_cod_original_cell_volume        20
_cod_original_sg_symbol_H-M      'R -3 m'
_cod_database_code               4030785
loop_
_symmetry_equiv_pos_site_id
_symmetry_equiv_pos_as_xyz
1 x,y,z
2 -y,x-y,z
3 -x+y,-x,z
4 y,x,-z
5 -x,-x+y,-z
6 x-y,-y,-z
7 -x,-y,-z
8 y,-x+y,-z
9 x-y,x,-z
10 -y,-x,z
11 x,x-y,z
12 -x+y,y,z
13 1/3+x,2/3+y,2/3+z
14 1/3-y,2/3+x-y,2/3+z
15 1/3-x+y,2/3-x,2/3+z
16 1/3+y,2/3+x,2/3-z
17 1/3-x,2/3-x+y,2/3-z
18 1/3+x-y,2/3-y,2/3-z
19 1/3-x,2/3-y,2/3-z
20 1/3+y,2/3-x+y,2/3-z
21 1/3+x-y,2/3+x,2/3-z
22 1/3-y,2/3-x,2/3+z
23 1/3+x,2/3+x-y,2/3+z
24 1/3-x+y,2/3+y,2/3+z
25 2/3+x,1/3+y,1/3+z
26 2/3-y,1/3+x-y,1/3+z
27 2/3-x+y,1/3-x,1/3+z
28 2/3+y,1/3+x,1/3-z
29 2/3-x,1/3-x+y,1/3-z
30 2/3+x-y,1/3-y,1/3-z
31 2/3-x,1/3-y,1/3-z
32 2/3+y,1/3-x+y,1/3-z
33 2/3+x-y,1/3+x,1/3-z
34 2/3-y,1/3-x,1/3+z
35 2/3+x,1/3+x-y,1/3+z
36 2/3-x+y,1/3+y,1/3+z
loop_
_atom_site_aniso_label
_atom_site_aniso_U_11
_atom_site_aniso_U_22
_atom_site_aniso_U_33
_atom_site_aniso_U_23
_atom_site_aniso_U_13
_atom_site_aniso_U_12
La 0.0040(1) 0.0040(1) 0.0060(3) 0.0000 0.0000 0.0000
S 0.0080(5) 0.0080(5) 0.0066(6) 0.0000 0.0000 0.0000
Rb 0.0161(3) 0.0161(3) 0.0089(4) 0.0000 0.0000 0.0000
loop_
_atom_site_label
_atom_site_type_symbol
_atom_site_thermal_displace_type
_atom_site_fract_x
_atom_site_fract_y
_atom_site_fract_z
_atom_site_occupancy
_atom_site_U_iso_or_equiv
La La Uani 0.00000 0.00000 0.50000 1.000 0.0056(1)
S S Uani 0.00000 0.00000 0.23370(10) 1.000 0.0093(3)
Rb Rb Uani 0.00000 0.00000 0.00000 1.000 0.0173(2)
loop_
_geom_bond_atom_site_label_1
_geom_bond_atom_site_label_2
_geom_bond_distance
_geom_bond_site_symmetry_2
_geom_bond_publ_flag
La S 2.9179(14) 16_445 yes
La S 2.9179(14) 16_545 yes
La S 2.9179(14) 16_555 yes
