#------------------------------------------------------------------------------
#$Date: 2015-10-09 19:21:54 +0300 (Fri, 09 Oct 2015) $
#$Revision: 162505 $
#$URL: svn://www.crystallography.net/cod/cif/4/03/15/4031586.cif $
#------------------------------------------------------------------------------
#
# This file is available in the Crystallography Open Database (COD),
# http://www.crystallography.net/
#
# All data on this site have been placed in the public domain by the
# contributors.
#
data_4031586
loop_
_publ_author_name
'Bezzenberger, R.'
'Schoellhorn, R.'
_publ_section_title
;
 Electrochemical synthesis of perovskite type oxobismuthates (III/V) from
 hydroxide melts
;
_journal_name_full
'European Journal of Solid State Inorganic Chemistry'
_journal_page_first              435
_journal_page_last               445
_journal_volume                  30
_journal_year                    1993
_chemical_formula_sum            'Ba0.64 Bi0.7 K0.32 Nd0.34 O3'
_chemical_name_systematic        '(K0.32 Ba0.64 Nd0.04) (Nd0.3 Bi0.7) O3'
_space_group_IT_number           221
_symmetry_space_group_name_Hall  '-P 4 2 3'
_symmetry_space_group_name_H-M   'P m -3 m'
_cell_angle_alpha                90
_cell_angle_beta                 90
_cell_angle_gamma                90
_cell_formula_units_Z            1
_cell_length_a                   4.302
_cell_length_b                   4.302
_cell_length_c                   4.302
_cell_volume                     79.618
_citation_journal_id_ASTM        EJSCE5
_cod_data_source_file            Bezzenberger_EJSCE5_1993_855.cif
_cod_data_source_block           Ba0.64Bi0.7K0.32Nd0.34O3
_cod_database_code               4031586
loop_
_symmetry_equiv_pos_as_xyz
x,y,z
-y,x,z
-x,-y,z
y,-x,z
x,-y,-z
y,x,-z
-x,y,-z
-y,-x,-z
z,x,y
-x,z,y
-z,-x,y
x,-z,y
z,-x,-y
x,z,-y
-z,x,-y
-x,-z,-y
y,z,x
y,-z,-x
z,y,-x
-y,z,-x
-z,-y,-x
-y,-z,x
z,-y,x
-z,y,x
-x,-y,-z
y,-x,-z
x,y,-z
-y,x,-z
-x,y,z
-y,-x,z
x,-y,z
y,x,z
-z,-x,-y
x,-z,-y
z,x,-y
-x,z,-y
-z,x,y
-x,-z,y
z,-x,y
x,z,y
-y,-z,-x
-y,z,x
-z,-y,x
y,-z,x
z,y,x
y,z,-x
-z,y,-x
z,-y,-x
loop_
_atom_site_label
_atom_site_type_symbol
_atom_site_fract_x
_atom_site_fract_y
_atom_site_fract_z
_atom_site_occupancy
_atom_site_U_iso_or_equiv
Ba1 Ba+2 0 0 0 0.64 0.0
O1 O-2 0.5 0 0 1 0.0
K1 K+1 0 0 0 0.32 0.0
Nd1 Nd+3 0 0 0 0.04 0.0
Nd2 Nd+3 0.5 0.5 0.5 0.3 0.0
Bi1 Bi+4 0.5 0.5 0.5 0.7 0.0
