#------------------------------------------------------------------------------
#$Date: 2015-10-09 19:33:29 +0300 (Fri, 09 Oct 2015) $
#$Revision: 162513 $
#$URL: svn://www.crystallography.net/cod/cif/4/03/15/4031588.cif $
#------------------------------------------------------------------------------
#
# This file is available in the Crystallography Open Database (COD),
# http://www.crystallography.net/
#
# All data on this site have been placed in the public domain by the
# contributors.
#
data_4031588
loop_
_publ_author_name
'Bezzenberger, R.'
'Schoellhorn, R.'
_publ_section_title
;
 Electrochemical synthesis of perovskite type oxobismuthates (III/V) from
 hydroxide melts
;
_journal_name_full
'European Journal of Solid State Inorganic Chemistry'
_journal_page_first              435
_journal_page_last               445
_journal_volume                  30
_journal_year                    1993
_chemical_formula_sum            'Ba0.69 Bi0.66 Gd0.35 K0.3 O3'
_chemical_name_systematic        '(K0.3 Ba0.69 Gd0.01) (Gd0.34 Bi0.66) O3'
_space_group_IT_number           221
_symmetry_space_group_name_Hall  '-P 4 2 3'
_symmetry_space_group_name_H-M   'P m -3 m'
_cell_angle_alpha                90
_cell_angle_beta                 90
_cell_angle_gamma                90
_cell_formula_units_Z            1
_cell_length_a                   4.285
_cell_length_b                   4.285
_cell_length_c                   4.285
_cell_volume                     78.678
_citation_journal_id_ASTM        EJSCE5
_cod_data_source_file            Bezzenberger_EJSCE5_1993_865.cif
_cod_data_source_block           Ba0.69Bi0.66Gd0.35K0.3O3
_cod_original_cell_volume        78.67784
_cod_database_code               4031588
loop_
_symmetry_equiv_pos_as_xyz
x,y,z
-y,x,z
-x,-y,z
y,-x,z
x,-y,-z
y,x,-z
-x,y,-z
-y,-x,-z
z,x,y
-x,z,y
-z,-x,y
x,-z,y
z,-x,-y
x,z,-y
-z,x,-y
-x,-z,-y
y,z,x
y,-z,-x
z,y,-x
-y,z,-x
-z,-y,-x
-y,-z,x
z,-y,x
-z,y,x
-x,-y,-z
y,-x,-z
x,y,-z
-y,x,-z
-x,y,z
-y,-x,z
x,-y,z
y,x,z
-z,-x,-y
x,-z,-y
z,x,-y
-x,z,-y
-z,x,y
-x,-z,y
z,-x,y
x,z,y
-y,-z,-x
-y,z,x
-z,-y,x
y,-z,x
z,y,x
y,z,-x
-z,y,-x
z,-y,-x
loop_
_atom_site_label
_atom_site_type_symbol
_atom_site_fract_x
_atom_site_fract_y
_atom_site_fract_z
_atom_site_occupancy
_atom_site_U_iso_or_equiv
O1 O-2 0.5 0 0 1 0.0
Bi1 Bi+4 0.5 0.5 0.5 0.66 0.0
Ba1 Ba+2 0 0 0 0.69 0.0
Gd1 Gd+3 0 0 0 0.01 0.0
K1 K+1 0 0 0 0.3 0.0
Gd2 Gd+3 0.5 0.5 0.5 0.34 0.0
