#------------------------------------------------------------------------------
#$Date: 2015-07-12 19:23:05 +0300 (Sun, 12 Jul 2015) $
#$Revision: 147447 $
#$URL: svn://www.crystallography.net/cod/cif/4/03/12/4031210.cif $
#------------------------------------------------------------------------------
#
# This file is available in the Crystallography Open Database (COD),
# http://www.crystallography.net/
#
# All data on this site have been placed in the public domain by the
# contributors.
#
data_4031210
loop_
_publ_author_name
'Healy, P.C.'
'Kepert, D.L.'
'Taylor, D.'
'White, A.H.'
_publ_section_title
;
 Crystal structure of dicesium
 octa-mue3-chloro-hexachloro-octahedro-hexa-tungstate(II) and
 -molybdate(II) complexes
;
_journal_name_full
;
Journal of the Chemical Society. Dalton Transactions, Inorganic Chemistry 
(1972-)
;
_journal_page_first              646
_journal_page_last               650
_journal_volume                  1973
_journal_year                    1973
_chemical_formula_sum            'Br6 Cl8 Cs2 W6'
_chemical_name_systematic        'Cs2 (W6 Cl8 Br6)'
_space_group_IT_number           159
_symmetry_space_group_name_Hall  'P 3 -2c'
_symmetry_space_group_name_H-M   'P 3 1 c'
_cell_angle_alpha                90
_cell_angle_beta                 90
_cell_angle_gamma                120
_cell_formula_units_Z            2
_cell_length_a                   10.07
_cell_length_b                   10.07
_cell_length_c                   14.75
_cell_volume                     1295.333
_citation_journal_id_ASTM        JCDTBI
_cod_data_source_file            Healy_JCDTBI_1973_1132.cif
_cod_data_source_block           Br6Cl8Cs2W6
_cod_database_code               4031210
loop_
_symmetry_equiv_pos_as_xyz
x,y,z
-y,x-y,z
-x+y,-x,z
y,x,z+1/2
-x,-x+y,z+1/2
x-y,-y,z+1/2
loop_
_atom_site_label
_atom_site_type_symbol
_atom_site_fract_x
_atom_site_fract_y
_atom_site_fract_z
_atom_site_occupancy
_atom_site_U_iso_or_equiv
Cs1 Cs+1 0.3333 0.6667 0.246 1 0.0
Cl3 Cl-1 0.6667 0.3333 0.441 1 0.0
W2 W+2 0.6565 0.479 0.1763 1 0.0
Br2 Br-1 0.631 0.679 0.081 1 0.0
Br1 Br-1 0.295 0.326 0.411 1 0.0
Cl1 Cl-1 0.369 0.308 0.176 1 0.0
W1 W+2 0.5151 0.3251 0.3201 1 0.0
Cl4 Cl-1 0.6667 0.3333 0.033 1 0.0
Cl2 Cl-1 0.65 0.61 0.318 1 0.0
Cs2 Cs+1 0 0 0.034 1 0.0
