#------------------------------------------------------------------------------
#$Date: 2016-02-13 21:28:24 +0200 (Sat, 13 Feb 2016) $
#$Revision: 176429 $
#$URL: svn://www.crystallography.net/cod/cif/4/03/15/4031574.cif $
#------------------------------------------------------------------------------
#
# This file is available in the Crystallography Open Database (COD),
# http://www.crystallography.net/
#
# All data on this site have been placed in the public domain by the
# contributors.
#
data_4031574
loop_
_publ_author_name
'Liu, W.'
'Chen, H.-H.'
'Zhao, J.T.'
'Yang, X.X.'
_publ_section_title
;
 Two novel transition-metal phosphite compounds with 4-, 6- and
 12-membered rings: hydrothermal syntheses, crystal structures and
 magnetic properties of Na2 [M (H P O3)2] (M = Fe, Co)
;
_journal_name_full               'European Journal of Inorganic Chemistry'
_journal_page_first              946
_journal_page_last               951
_journal_volume                  2005
_journal_year                    2005
_chemical_formula_sum            'Co H2 Na2 O6 P2'
_chemical_name_systematic        'Na2 (Co (H P O3)2)'
_space_group_IT_number           62
_symmetry_space_group_name_Hall  '-P 2ac 2n'
_symmetry_space_group_name_H-M   'P n m a'
_cell_angle_alpha                90
_cell_angle_beta                 90
_cell_angle_gamma                90
_cell_formula_units_Z            4
_cell_length_a                   12.091
_cell_length_b                   5.3998
_cell_length_c                   9.115
_cell_volume                     595.109
_citation_journal_id_ASTM        EJICFO
_cod_data_source_file            Liu_EJICFO_2005_1702.cif
_cod_data_source_block           H2Co1Na2O6P2
_cod_original_formula_sum        'H2 Co1 Na2 O6 P2'
_cod_database_code               4031574
loop_
_symmetry_equiv_pos_as_xyz
x,y,z
-x+1/2,-y,z+1/2
x+1/2,-y+1/2,-z+1/2
-x,y+1/2,-z
-x,-y,-z
x-1/2,y,-z-1/2
-x-1/2,y-1/2,z-1/2
x,-y-1/2,z
loop_
_atom_site_label
_atom_site_type_symbol
_atom_site_fract_x
_atom_site_fract_y
_atom_site_fract_z
_atom_site_occupancy
_atom_site_U_iso_or_equiv
P2 P+3 0.31565 0.25 0.50116 1 0.0
H1 H+1 0.436 0.25 0.494 1 0.0
H2 H+1 0.417 -0.25 0.009 1 0.0
Na1 Na+1 0.2206 0.25 -0.17356 1 0.0
P1 P+3 0.48366 -0.25 0.12612 1 0.0
O4 O-2 0.39588 0.25 -0.0794 1 0.0
O2 O-2 0.26928 0.25 0.3465 1 0.0
O1 O-2 0.4511 -0.0187 0.21132 1 0.0
O3 O-2 0.21378 -0.016 0.08444 1 0.0
Na2 Na+1 0.59545 0.25 0.27665 1 0.0
Co1 Co+2 0.33981 0.25 0.1362 1 0.0
