#------------------------------------------------------------------------------
#$Date: 2016-01-09 14:28:06 +0200 (Sat, 09 Jan 2016) $
#$Revision: 174066 $
#$URL: svn://www.crystallography.net/cod/cif/4/03/18/4031805.cif $
#------------------------------------------------------------------------------
#
# This file is available in the Crystallography Open Database (COD),
# http://www.crystallography.net/
#
# All data on this site have been placed in the public domain by the
# contributors.
#
data_4031805
loop_
_publ_author_name
'Suchow, L.'
_publ_section_title
;
 Bismuth magnesium titanate, an unusual new Perovskite
;
_journal_name_full               'Journal of Inorganic and Nuclear Chemistry'
_journal_page_first              87
_journal_page_last               95
_journal_volume                  30
_journal_year                    1968
_chemical_formula_sum            'Bi0.8 Mg0.5 O3 Ti0.65'
_chemical_name_systematic        '(Bi0.8 Mg0.2) (Mg0.3 Ti0.65) O3'
_space_group_IT_number           221
_symmetry_space_group_name_Hall  '-P 4 2 3'
_symmetry_space_group_name_H-M   'P m -3 m'
_cell_angle_alpha                90
_cell_angle_beta                 90
_cell_angle_gamma                90
_cell_formula_units_Z            1
_cell_length_a                   3.98
_cell_length_b                   3.98
_cell_length_c                   3.98
_cell_volume                     63.045
_citation_journal_id_ASTM        JINCAO
_cod_data_source_file            Suchow_JINCAO_1968_1669.cif
_cod_data_source_block           Bi0.8Mg0.5O3Ti0.65
_cod_original_cell_volume        63.04479
_cod_database_code               4031805
loop_
_symmetry_equiv_pos_as_xyz
x,y,z
-y,x,z
-x,-y,z
y,-x,z
x,-y,-z
y,x,-z
-x,y,-z
-y,-x,-z
z,x,y
-x,z,y
-z,-x,y
x,-z,y
z,-x,-y
x,z,-y
-z,x,-y
-x,-z,-y
y,z,x
y,-z,-x
z,y,-x
-y,z,-x
-z,-y,-x
-y,-z,x
z,-y,x
-z,y,x
-x,-y,-z
y,-x,-z
x,y,-z
-y,x,-z
-x,y,z
-y,-x,z
x,-y,z
y,x,z
-z,-x,-y
x,-z,-y
z,x,-y
-x,z,-y
-z,x,y
-x,-z,y
z,-x,y
x,z,y
-y,-z,-x
-y,z,x
-z,-y,x
y,-z,x
z,y,x
y,z,-x
-z,y,-x
z,-y,-x
loop_
_atom_site_label
_atom_site_type_symbol
_atom_site_fract_x
_atom_site_fract_y
_atom_site_fract_z
_atom_site_occupancy
_atom_site_U_iso_or_equiv
Mg2 Mg+2 0.5 0.5 0.5 0.3 0.0
Mg1 Mg+2 0 0 0 0.2 0.0
Ti1 Ti+4 0.5 0.5 0.5 0.65 0.0
O1 O-2 0.5 0.5 0 1 0.0
Bi1 Bi+3 0 0 0 0.8 0.0
