#------------------------------------------------------------------------------
#$Date: 2016-02-16 22:30:59 +0200 (Tue, 16 Feb 2016) $
#$Revision: 176467 $
#$URL: svn://www.crystallography.net/cod/cif/4/10/03/4100396.cif $
#------------------------------------------------------------------------------
#
# This file is available in the Crystallography Open Database (COD),
# http://www.crystallography.net/
#
# All data on this site have been placed in the public domain by the
# contributors.
#
data_4100396
_journal_name_full               'Journal of the American Chemical Society'
_journal_year                    2005
_chemical_formula_sum            'Cl2 Cu3 H6 O6 Zn'
_chemical_formula_weight         428.94
_space_group_IT_number           166
_symmetry_cell_setting           rhombohedral
_symmetry_space_group_name_Hall  '-R 3 2"'
_symmetry_space_group_name_H-M   'R -3 m :H'
_cell_angle_alpha                90.00
_cell_angle_beta                 90.00
_cell_angle_gamma                120.00
_cell_formula_units_Z            3
_cell_length_a                   6.8293(6)
_cell_length_b                   6.8293(6)
_cell_length_c                   14.024(2)
_cell_measurement_temperature    150(2)
_cell_volume                     566.46(12)
_diffrn_ambient_temperature      150(2)
_exptl_crystal_density_diffrn    3.772
_cod_depositor_comments
;
The following automatic conversions were performed:
'_symmetry_cell_setting' value 'Rhombohedral' changed to 'rhombohedral'
according to '/home/saulius/struct/CIF-dictionaries/cif_core.dic'
dictionary named 'cif_core.dic' version 2.4.1 from 2010-06-29.

Automatic conversion script
Id: cif_fix_enum 1527 2010-12-29 10:47:43Z saulius 
;
_cod_original_sg_symbol_H-M      'R -3 m'
_cod_original_formula_sum        'H6 Cl2 Cu3 O6 Zn'
_cod_database_code               4100396
loop_
_symmetry_equiv_pos_as_xyz
'x, y, z'
'-y, x-y, z'
'-x+y, -x, z'
'y, x, -z'
'x-y, -y, -z'
'-x, -x+y, -z'
'x+2/3, y+1/3, z+1/3'
'-y+2/3, x-y+1/3, z+1/3'
'-x+y+2/3, -x+1/3, z+1/3'
'y+2/3, x+1/3, -z+1/3'
'x-y+2/3, -y+1/3, -z+1/3'
'-x+2/3, -x+y+1/3, -z+1/3'
'x+1/3, y+2/3, z+2/3'
'-y+1/3, x-y+2/3, z+2/3'
'-x+y+1/3, -x+2/3, z+2/3'
'y+1/3, x+2/3, -z+2/3'
'x-y+1/3, -y+2/3, -z+2/3'
'-x+1/3, -x+y+2/3, -z+2/3'
'-x, -y, -z'
'y, -x+y, -z'
'x-y, x, -z'
'-y, -x, z'
'-x+y, y, z'
'x, x-y, z'
'-x+2/3, -y+1/3, -z+1/3'
'y+2/3, -x+y+1/3, -z+1/3'
'x-y+2/3, x+1/3, -z+1/3'
'-y+2/3, -x+1/3, z+1/3'
'-x+y+2/3, y+1/3, z+1/3'
'x+2/3, x-y+1/3, z+1/3'
'-x+1/3, -y+2/3, -z+2/3'
'y+1/3, -x+y+2/3, -z+2/3'
'x-y+1/3, x+2/3, -z+2/3'
'-y+1/3, -x+2/3, z+2/3'
'-x+y+1/3, y+2/3, z+2/3'
'x+1/3, x-y+2/3, z+2/3'
loop_
_atom_site_label
_atom_site_type_symbol
_atom_site_fract_x
_atom_site_fract_y
_atom_site_fract_z
_atom_site_U_iso_or_equiv
_atom_site_adp_type
_atom_site_occupancy
_atom_site_symmetry_multiplicity
_atom_site_calc_flag
_atom_site_refinement_flags
_atom_site_disorder_assembly
_atom_site_disorder_group
Cu1 Cu 0.8333 0.1667 0.1667 0.0081(4) Uani 1 4 d S . .
O1 O 0.7466(6) -0.1267(3) 0.1054(2) 0.0127(7) Uani 1 2 d SD . .
H1 H 0.615(4) -0.192(2) 0.085(4) 0.04(2) Uiso 1 2 d SD . .
Zn1 Zn 1.0000 0.0000 0.0000 0.0090(4) Uani 1 12 d S . .
Cl1 Cl 0.6667 0.3333 0.02765(12) 0.0100(5) Uani 1 6 d S . .
loop_
_atom_site_aniso_label
_atom_site_aniso_U_11
_atom_site_aniso_U_22
_atom_site_aniso_U_33
_atom_site_aniso_U_23
_atom_site_aniso_U_13
_atom_site_aniso_U_12
Cu1 0.0075(4) 0.0075(4) 0.0098(5) -0.00045(13) 0.00045(13) 0.0041(4)
O1 0.0079(19) 0.0109(12) 0.0184(15) -0.0027(7) -0.0053(15) 0.0040(9)
Zn1 0.0088(5) 0.0088(5) 0.0094(7) 0.000 0.000 0.0044(2)
Cl1 0.0103(6) 0.0103(6) 0.0092(9) 0.000 0.000 0.0052(3)
loop_
_geom_bond_atom_site_label_1
_geom_bond_atom_site_label_2
_geom_bond_distance
_geom_bond_site_symmetry_2
_geom_bond_publ_flag
Cu1 O1 1.9791(16) 3_765 ?
Cu1 O1 1.9791(16) . ?
Cu1 O1 1.9791(16) 27_445 ?
Cu1 O1 1.9791(16) 25_655 ?
Cu1 Zn1 3.0578(3) . ?
Cu1 Zn1 3.0578(3) 7_455 ?
O1 Cu1 1.9791(16) 2_645 ?
O1 Zn1 2.105(3) . ?
Zn1 O1 2.105(3) 3_765 ?
Zn1 O1 2.105(3) 21_545 ?
Zn1 O1 2.105(3) 20_665 ?
Zn1 O1 2.105(3) 19_755 ?
Zn1 O1 2.105(3) 2_645 ?
Zn1 Cu1 3.0578(3) 3_765 ?
Zn1 Cu1 3.0578(3) 2_645 ?
Zn1 Cu1 3.0578(3) 15_654 ?
Zn1 Cu1 3.0578(3) 14_644 ?
Zn1 Cu1 3.0578(3) 13_544 ?
