#------------------------------------------------------------------------------
#$Date: 2022-09-15 02:29:21 +0300 (Thu, 15 Sep 2022) $
#$Revision: 277856 $
#$URL: file:///home/coder/svn-repositories/cod/cif/4/10/09/4100932.cif $
#------------------------------------------------------------------------------
#
# This file is available in the Crystallography Open Database (COD),
# http://www.crystallography.net/
#
# All data on this site have been placed in the public domain by the
# contributors.
#
data_4100932
loop_
_publ_author_name
'Goodwin, Andrew L.'
'Chapman, Karena W.'
'Kepert, Cameron J.'
_publ_section_title
;
 Guest-Dependent Negative Thermal Expansion in Nanoporous
 Prussian Blue Analogues MIIPtIV(CN)6.x{H2O} (0 =< x =< 2; M = Zn, Cd)
;
_journal_name_full               'Journal of the American Chemical Society'
_journal_year                    2005
_chemical_formula_moiety         'C6 N6 Pt Zn'
_chemical_formula_sum            'C6 N6 Pt Zn'
_chemical_formula_weight         416.58
_chemical_name_common            'zinc hexacyanoplatinate'
_space_group_IT_number           225
_space_group_name_Hall           '-F 4 2 3'
_space_group_name_H-M_alt        'F m -3 m'
_symmetry_cell_setting           cubic
_symmetry_Int_Tables_number      225
_symmetry_space_group_name_Hall  '-F 4 2 3'
_symmetry_space_group_name_H-M   'F m -3 m'
_cell_angle_alpha                90.00
_cell_angle_beta                 90.00
_cell_angle_gamma                90.00
_cell_formula_units_Z            4
_cell_length_a                   10.5186(7)
_cell_length_b                   10.5186(7)
_cell_length_c                   10.5186(7)
_cell_measurement_temperature    300(2)
_cell_volume                     1163.79(13)
_diffrn_ambient_temperature      300(2)
_exptl_crystal_density_diffrn    2.378
_cod_database_code               4100932
loop_
_symmetry_equiv_pos_as_xyz
'x, y, z'
'-x, -y, z'
'-x, y, -z'
'x, -y, -z'
'z, x, y'
'z, -x, -y'
'-z, -x, y'
'-z, x, -y'
'y, z, x'
'-y, z, -x'
'y, -z, -x'
'-y, -z, x'
'y, x, -z'
'-y, -x, -z'
'y, -x, z'
'-y, x, z'
'x, z, -y'
'-x, z, y'
'-x, -z, -y'
'x, -z, y'
'z, y, -x'
'z, -y, x'
'-z, y, x'
'-z, -y, -x'
'x, y+1/2, z+1/2'
'-x, -y+1/2, z+1/2'
'-x, y+1/2, -z+1/2'
'x, -y+1/2, -z+1/2'
'z, x+1/2, y+1/2'
'z, -x+1/2, -y+1/2'
'-z, -x+1/2, y+1/2'
'-z, x+1/2, -y+1/2'
'y, z+1/2, x+1/2'
'-y, z+1/2, -x+1/2'
'y, -z+1/2, -x+1/2'
'-y, -z+1/2, x+1/2'
'y, x+1/2, -z+1/2'
'-y, -x+1/2, -z+1/2'
'y, -x+1/2, z+1/2'
'-y, x+1/2, z+1/2'
'x, z+1/2, -y+1/2'
'-x, z+1/2, y+1/2'
'-x, -z+1/2, -y+1/2'
'x, -z+1/2, y+1/2'
'z, y+1/2, -x+1/2'
'z, -y+1/2, x+1/2'
'-z, y+1/2, x+1/2'
'-z, -y+1/2, -x+1/2'
'x+1/2, y, z+1/2'
'-x+1/2, -y, z+1/2'
'-x+1/2, y, -z+1/2'
'x+1/2, -y, -z+1/2'
'z+1/2, x, y+1/2'
'z+1/2, -x, -y+1/2'
'-z+1/2, -x, y+1/2'
'-z+1/2, x, -y+1/2'
'y+1/2, z, x+1/2'
'-y+1/2, z, -x+1/2'
'y+1/2, -z, -x+1/2'
'-y+1/2, -z, x+1/2'
'y+1/2, x, -z+1/2'
'-y+1/2, -x, -z+1/2'
'y+1/2, -x, z+1/2'
'-y+1/2, x, z+1/2'
'x+1/2, z, -y+1/2'
'-x+1/2, z, y+1/2'
'-x+1/2, -z, -y+1/2'
'x+1/2, -z, y+1/2'
'z+1/2, y, -x+1/2'
'z+1/2, -y, x+1/2'
'-z+1/2, y, x+1/2'
'-z+1/2, -y, -x+1/2'
'x+1/2, y+1/2, z'
'-x+1/2, -y+1/2, z'
'-x+1/2, y+1/2, -z'
'x+1/2, -y+1/2, -z'
'z+1/2, x+1/2, y'
'z+1/2, -x+1/2, -y'
'-z+1/2, -x+1/2, y'
'-z+1/2, x+1/2, -y'
'y+1/2, z+1/2, x'
'-y+1/2, z+1/2, -x'
'y+1/2, -z+1/2, -x'
'-y+1/2, -z+1/2, x'
'y+1/2, x+1/2, -z'
'-y+1/2, -x+1/2, -z'
'y+1/2, -x+1/2, z'
'-y+1/2, x+1/2, z'
'x+1/2, z+1/2, -y'
'-x+1/2, z+1/2, y'
'-x+1/2, -z+1/2, -y'
'x+1/2, -z+1/2, y'
'z+1/2, y+1/2, -x'
'z+1/2, -y+1/2, x'
'-z+1/2, y+1/2, x'
'-z+1/2, -y+1/2, -x'
'-x, -y, -z'
'x, y, -z'
'x, -y, z'
'-x, y, z'
'-z, -x, -y'
'-z, x, y'
'z, x, -y'
'z, -x, y'
'-y, -z, -x'
'y, -z, x'
'-y, z, x'
'y, z, -x'
'-y, -x, z'
'y, x, z'
'-y, x, -z'
'y, -x, -z'
'-x, -z, y'
'x, -z, -y'
'x, z, y'
'-x, z, -y'
'-z, -y, x'
'-z, y, -x'
'z, -y, -x'
'z, y, x'
'-x, -y+1/2, -z+1/2'
'x, y+1/2, -z+1/2'
'x, -y+1/2, z+1/2'
'-x, y+1/2, z+1/2'
'-z, -x+1/2, -y+1/2'
'-z, x+1/2, y+1/2'
'z, x+1/2, -y+1/2'
'z, -x+1/2, y+1/2'
'-y, -z+1/2, -x+1/2'
'y, -z+1/2, x+1/2'
'-y, z+1/2, x+1/2'
'y, z+1/2, -x+1/2'
'-y, -x+1/2, z+1/2'
'y, x+1/2, z+1/2'
'-y, x+1/2, -z+1/2'
'y, -x+1/2, -z+1/2'
'-x, -z+1/2, y+1/2'
'x, -z+1/2, -y+1/2'
'x, z+1/2, y+1/2'
'-x, z+1/2, -y+1/2'
'-z, -y+1/2, x+1/2'
'-z, y+1/2, -x+1/2'
'z, -y+1/2, -x+1/2'
'z, y+1/2, x+1/2'
'-x+1/2, -y, -z+1/2'
'x+1/2, y, -z+1/2'
'x+1/2, -y, z+1/2'
'-x+1/2, y, z+1/2'
'-z+1/2, -x, -y+1/2'
'-z+1/2, x, y+1/2'
'z+1/2, x, -y+1/2'
'z+1/2, -x, y+1/2'
'-y+1/2, -z, -x+1/2'
'y+1/2, -z, x+1/2'
'-y+1/2, z, x+1/2'
'y+1/2, z, -x+1/2'
'-y+1/2, -x, z+1/2'
'y+1/2, x, z+1/2'
'-y+1/2, x, -z+1/2'
'y+1/2, -x, -z+1/2'
'-x+1/2, -z, y+1/2'
'x+1/2, -z, -y+1/2'
'x+1/2, z, y+1/2'
'-x+1/2, z, -y+1/2'
'-z+1/2, -y, x+1/2'
'-z+1/2, y, -x+1/2'
'z+1/2, -y, -x+1/2'
'z+1/2, y, x+1/2'
'-x+1/2, -y+1/2, -z'
'x+1/2, y+1/2, -z'
'x+1/2, -y+1/2, z'
'-x+1/2, y+1/2, z'
'-z+1/2, -x+1/2, -y'
'-z+1/2, x+1/2, y'
'z+1/2, x+1/2, -y'
'z+1/2, -x+1/2, y'
'-y+1/2, -z+1/2, -x'
'y+1/2, -z+1/2, x'
'-y+1/2, z+1/2, x'
'y+1/2, z+1/2, -x'
'-y+1/2, -x+1/2, z'
'y+1/2, x+1/2, z'
'-y+1/2, x+1/2, -z'
'y+1/2, -x+1/2, -z'
'-x+1/2, -z+1/2, y'
'x+1/2, -z+1/2, -y'
'x+1/2, z+1/2, y'
'-x+1/2, z+1/2, -y'
'-z+1/2, -y+1/2, x'
'-z+1/2, y+1/2, -x'
'z+1/2, -y+1/2, -x'
'z+1/2, y+1/2, x'
loop_
_atom_site_label
_atom_site_type_symbol
_atom_site_fract_x
_atom_site_fract_y
_atom_site_fract_z
_atom_site_U_iso_or_equiv
_atom_site_adp_type
_atom_site_occupancy
_atom_site_symmetry_multiplicity
_atom_site_calc_flag
_atom_site_refinement_flags
_atom_site_disorder_assembly
_atom_site_disorder_group
Zn1 Zn 0.0000 0.0000 0.5000 0.0209(6) Uiso 1 48 d S . .
Pt1 Pt 0.0000 0.0000 0.0000 0.0216(4) Uiso 1 48 d S . .
C1 C 0.0000 0.0000 0.1931(12) 0.030(2) Uani 1 8 d SU . .
N1 N 0.0000 0.0000 0.2967(10) 0.034(2) Uani 1 8 d SU . .
loop_
_atom_site_aniso_label
_atom_site_aniso_U_11
_atom_site_aniso_U_22
_atom_site_aniso_U_33
_atom_site_aniso_U_23
_atom_site_aniso_U_13
_atom_site_aniso_U_12
C1 0.026(3) 0.026(3) 0.038(5) 0.000 0.000 0.000
N1 0.037(3) 0.037(3) 0.028(5) 0.000 0.000 0.000
loop_
_geom_bond_atom_site_label_1
_geom_bond_atom_site_label_2
_geom_bond_distance
_geom_bond_site_symmetry_2
_geom_bond_publ_flag
Zn1 N1 2.139(11) 129 ?
Zn1 N1 2.139(11) . ?
Zn1 N1 2.139(11) 97_556 ?
Zn1 N1 2.139(11) 53_455 ?
Zn1 N1 2.139(11) 149 ?
Zn1 N1 2.139(11) 33_545 ?
Pt1 C1 2.031(13) 105 ?
Pt1 C1 2.031(13) 9 ?
Pt1 C1 2.031(13) 97 ?
Pt1 C1 2.031(13) 5 ?
Pt1 C1 2.031(13) 101 ?
Pt1 C1 2.031(13) . ?
C1 N1 1.090(19) . ?
