#------------------------------------------------------------------------------
#$Date: 2016-02-16 22:30:59 +0200 (Tue, 16 Feb 2016) $
#$Revision: 176467 $
#$URL: svn://www.crystallography.net/cod/cif/4/10/23/4102354.cif $
#------------------------------------------------------------------------------
#
# This file is available in the Crystallography Open Database (COD),
# http://www.crystallography.net/
#
# All data on this site have been placed in the public domain by the
# contributors.
#
data_4102354
loop_
_publ_author_name
'Eugen Dorolti'
'Laurent Cario'
'Beno\^it Corraze'
'Etienne Janod'
'Cristian Vaju'
'Hyun-Joo Koo'
'Erjun Kan'
'Myung-Hwan Whangbo'
_publ_section_title
;
 Half-Metallic Ferromagnetism and Large Negative Magnetoresistance in the
 New Lacunar Spinel GaTi3VS8
;
_journal_name_full               'Journal of the American Chemical Society'
_journal_page_first              5704
_journal_page_last               5710
_journal_paper_doi               10.1021/ja908128b
_journal_volume                  132
_journal_year                    2010
_chemical_formula_sum            'Ga1.021 S8 Ti V3'
_space_group_IT_number           216
_symmetry_cell_setting           cubic
_symmetry_space_group_name_Hall  'F -4 2 3'
_symmetry_space_group_name_H-M   'F -4 3 m'
_cell_angle_alpha                90.00000
_cell_angle_beta                 90.00000
_cell_angle_gamma                90.00000
_cell_formula_units_Z            4
_cell_length_a                   9.721893(20)
_cell_length_b                   9.721893(20)
_cell_length_c                   9.721893(20)
_cell_volume                     918.867(3)
_computing_structure_refinement  FULLPROF
_pd_meas_2theta_range_inc        0.016800
_pd_meas_2theta_range_max        120.00740
_pd_meas_2theta_range_min        10.00000
_pd_meas_number_of_points        6549
_pd_proc_2theta_range_inc        0.016800
_pd_proc_2theta_range_max        120.0074
_pd_proc_2theta_range_min        10.0000
_pd_proc_ls_prof_R_factor        4.9266
_pd_proc_ls_prof_wR_expected     4.2927
_pd_proc_ls_prof_wR_factor       6.8634
_pd_proc_wavelength              1.540562
_refine_ls_number_parameters     27
_refine_ls_number_reflns         56
_refine_ls_number_restraints     0
_refine_ls_R_I_factor            4.5761
_cod_data_source_file            ja908128b_si_003_1.cif
_cod_data_source_block           GaV4S8
_cod_original_formula_sum        'Ga1.021 V3 Ti S8'
_cod_database_code               4102354
#BEGIN Tags that were not found in dictionaries:
_pd_proc_ls_prof_cr_factor       30.1926
_pd_proc_ls_prof_cwr_factor      18.9506
_pd_proc_ls_prof_cwr_expected    11.8527
_pd_proc_ls_prof_chi2            2.5563
_pd_proc_ls_prof_echi2           3.0886
#END Tags that were not found in dictionaries
loop_
_symmetry_equiv_pos_as_xyz
x,y,z
x,-y,-z
-x,y,-z
-x,-y,z
y,z,x
-y,-z,x
y,-z,-x
-y,z,-x
z,x,y
-z,x,-y
-z,-x,y
z,-x,-y
y,x,z
-y,x,-z
y,-x,-z
-y,-x,z
z,y,x
-z,-y,x
-z,y,-x
z,-y,-x
x,z,y
x,-z,-y
-x,-z,y
-x,z,-y
x+1/2,y+1/2,z
x+1/2,-y+1/2,-z
-x+1/2,y+1/2,-z
-x+1/2,-y+1/2,z
y+1/2,z+1/2,x
-y+1/2,-z+1/2,x
y+1/2,-z+1/2,-x
-y+1/2,z+1/2,-x
z+1/2,x+1/2,y
-z+1/2,x+1/2,-y
-z+1/2,-x+1/2,y
z+1/2,-x+1/2,-y
y+1/2,x+1/2,z
-y+1/2,x+1/2,-z
y+1/2,-x+1/2,-z
-y+1/2,-x+1/2,z
z+1/2,y+1/2,x
-z+1/2,-y+1/2,x
-z+1/2,y+1/2,-x
z+1/2,-y+1/2,-x
x+1/2,z+1/2,y
x+1/2,-z+1/2,-y
-x+1/2,-z+1/2,y
-x+1/2,z+1/2,-y
x+1/2,y,z+1/2
x+1/2,-y,-z+1/2
-x+1/2,y,-z+1/2
-x+1/2,-y,z+1/2
y+1/2,z,x+1/2
-y+1/2,-z,x+1/2
y+1/2,-z,-x+1/2
-y+1/2,z,-x+1/2
z+1/2,x,y+1/2
-z+1/2,x,-y+1/2
-z+1/2,-x,y+1/2
z+1/2,-x,-y+1/2
y+1/2,x,z+1/2
-y+1/2,x,-z+1/2
y+1/2,-x,-z+1/2
-y+1/2,-x,z+1/2
z+1/2,y,x+1/2
-z+1/2,-y,x+1/2
-z+1/2,y,-x+1/2
z+1/2,-y,-x+1/2
x+1/2,z,y+1/2
x+1/2,-z,-y+1/2
-x+1/2,-z,y+1/2
-x+1/2,z,-y+1/2
x,y+1/2,z+1/2
x,-y+1/2,-z+1/2
-x,y+1/2,-z+1/2
-x,-y+1/2,z+1/2
y,z+1/2,x+1/2
-y,-z+1/2,x+1/2
y,-z+1/2,-x+1/2
-y,z+1/2,-x+1/2
z,x+1/2,y+1/2
-z,x+1/2,-y+1/2
-z,-x+1/2,y+1/2
z,-x+1/2,-y+1/2
y,x+1/2,z+1/2
-y,x+1/2,-z+1/2
y,-x+1/2,-z+1/2
-y,-x+1/2,z+1/2
z,y+1/2,x+1/2
-z,-y+1/2,x+1/2
-z,y+1/2,-x+1/2
z,-y+1/2,-x+1/2
x,z+1/2,y+1/2
x,-z+1/2,-y+1/2
-x,-z+1/2,y+1/2
-x,z+1/2,-y+1/2
loop_
_atom_site_label
_atom_site_fract_x
_atom_site_fract_y
_atom_site_fract_z
_atom_site_U_iso_or_equiv
_atom_site_occupancy
_atom_site_adp_type
_atom_site_type_symbol
Ga1 0.00000 0.00000 0.00000 0.0067(10) 1.021(7) Uiso Ga
V1 0.60710(12) 0.60710(12) 0.60710(12) 0.0084(5) 0.75000 Uiso V
Ti1 0.60710(12) 0.60710(12) 0.60710(12) 0.0084(5) 0.25000 Uiso Ti
S1 0.37164(18) 0.37164(18) 0.37164(18) 0.0079(9) 1.00000 Uiso S
S2 0.86387(19) 0.86387(19) 0.86387(19) 0.0059(11) 1.00000 Uiso S
loop_
_atom_type_symbol
_atom_type_scat_Cromer_Mann_a1
_atom_type_scat_Cromer_Mann_b1
_atom_type_scat_Cromer_Mann_a2
_atom_type_scat_Cromer_Mann_b2
_atom_type_scat_Cromer_Mann_a3
_atom_type_scat_Cromer_Mann_b3
_atom_type_scat_Cromer_Mann_a4
_atom_type_scat_Cromer_Mann_b4
_atom_type_scat_Cromer_Mann_c
_atom_type_scat_dispersion_real
_atom_type_scat_dispersion_imag
_atom_type_scat_source
ga 15.23540 3.06690 6.70060 0.24120 4.35910 10.78050 2.96230 61.41350 1.71890
-1.35400 0.77700
International_Tables_for_Crystallography_Vol.C(1991)_Tables_6.1.1.4_and_6.1.1.5
v 10.29710 6.86570 7.35110 0.43850 2.07030 26.89380 2.05710 102.47800 1.21990
0.03500 2.11000
International_Tables_for_Crystallography_Vol.C(1991)_Tables_6.1.1.4_and_6.1.1.5
ti 9.75950 7.85080 7.35580 0.50000 1.69910 35.63380 1.90210 116.10500 1.28070
0.18900 1.80700
International_Tables_for_Crystallography_Vol.C(1991)_Tables_6.1.1.4_and_6.1.1.5
s 6.90530 1.46790 5.20340 22.21510 1.43790 0.25360 1.58630 56.17200 0.86690
0.31900 0.55700
International_Tables_for_Crystallography_Vol.C(1991)_Tables_6.1.1.4_and_6.1.1.5
