#------------------------------------------------------------------------------
#$Date: 2016-03-21 17:09:55 +0200 (Mon, 21 Mar 2016) $
#$Revision: 178771 $
#$URL: svn://www.crystallography.net/cod/cif/4/10/25/4102593.cif $
#------------------------------------------------------------------------------
#
# This file is available in the Crystallography Open Database (COD),
# http://www.crystallography.net/
#
# All data on this site have been placed in the public domain by the
# contributors.
#
data_4102593
loop_
_publ_author_name
'Peng Wang'
'Scott Forbes'
'Taras Kolodiazhnyi'
'Kosuke Kosuda'
'Yurij Mozharivskyj'
_publ_section_title
;
 Synthesis, Crystal and Electronic Structures of New Narrow-Band-Gap
 Semiconducting Antimonide Oxides RE3SbO3 and RE8Sb3-\dO8, with RE = La,
 Sm, Gd, and Ho
;
_journal_name_full               'Journal of the American Chemical Society'
_journal_page_first              8795
_journal_page_last               8803
_journal_paper_doi               10.1021/ja1027698
_journal_volume                  132
_journal_year                    2010
_chemical_formula_sum            'Ho8 O8 Sb3'
_chemical_formula_weight         1812.69
_chemical_name_systematic
; 
 ? 
;
_space_group_IT_number           12
_symmetry_cell_setting           monoclinic
_symmetry_space_group_name_Hall  '-C 2y'
_symmetry_space_group_name_H-M   'C 1 2/m 1'
_atom_sites_solution_primary     direct
_atom_sites_solution_secondary   difmap
_audit_creation_method           SHELXL-97
_cell_angle_alpha                90.00
_cell_angle_beta                 106.958(7)
_cell_angle_gamma                90.00
_cell_formula_units_Z            2
_cell_length_a                   13.1368(11)
_cell_length_b                   3.7609(2)
_cell_length_c                   14.8700(13)
_cell_measurement_reflns_used    20510
_cell_measurement_temperature    293(2)
_cell_measurement_theta_max      75.0
_cell_measurement_theta_min      7.3
_cell_volume                     702.73(10)
_computing_cell_refinement       X-Area
_computing_data_collection       X-Area
_computing_data_reduction        X-Red32
_computing_publication_material  'SHELXL-97 (Sheldrick, 1997)'
_computing_structure_refinement  'SHELXL-97 (Sheldrick, 1997)'
_computing_structure_solution    'SHELXS-97 (Sheldrick, 1990)'
_diffrn_ambient_temperature      293(2)
_diffrn_measured_fraction_theta_full 0.994
_diffrn_measured_fraction_theta_max 0.994
_diffrn_measurement_device_type  'STOE IPDSII'
_diffrn_measurement_method       'omega scan'
_diffrn_radiation_monochromator  graphite
_diffrn_radiation_source         'fine-focus sealed tube'
_diffrn_radiation_type           MoK\a
_diffrn_radiation_wavelength     0.71073
_diffrn_reflns_av_R_equivalents  0.0900
_diffrn_reflns_av_sigmaI/netI    0.0724
_diffrn_reflns_limit_h_max       22
_diffrn_reflns_limit_h_min       -22
_diffrn_reflns_limit_k_max       6
_diffrn_reflns_limit_k_min       -6
_diffrn_reflns_limit_l_max       25
_diffrn_reflns_limit_l_min       -25
_diffrn_reflns_number            10299
_diffrn_reflns_theta_full        37.20
_diffrn_reflns_theta_max         37.20
_diffrn_reflns_theta_min         3.65
_exptl_absorpt_coefficient_mu    50.125
_exptl_absorpt_correction_T_max  0.2546
_exptl_absorpt_correction_T_min  0.0674
_exptl_absorpt_correction_type   numerical
_exptl_absorpt_process_details   X-Red
_exptl_crystal_colour            Black
_exptl_crystal_density_diffrn    8.567
_exptl_crystal_density_method    'not measured'
_exptl_crystal_description       Plate
_exptl_crystal_F_000             1506
_exptl_crystal_size_max          0.028
_exptl_crystal_size_mid          0.025
_exptl_crystal_size_min          0.008
_refine_diff_density_max         4.309
_refine_diff_density_min         -4.141
_refine_diff_density_rms         0.719
_refine_ls_extinction_coef       0.00185(6)
_refine_ls_extinction_expression Fc^*^=kFc[1+0.001xFc^2^\l^3^/sin(2\q)]^-1/4^
_refine_ls_extinction_method     SHELXL
_refine_ls_goodness_of_fit_ref   1.015
_refine_ls_matrix_type           full
_refine_ls_number_parameters     62
_refine_ls_number_reflns         2022
_refine_ls_number_restraints     0
_refine_ls_restrained_S_all      1.015
_refine_ls_R_factor_all          0.0737
_refine_ls_R_factor_gt           0.0410
_refine_ls_shift/su_max          0.000
_refine_ls_shift/su_mean         0.000
_refine_ls_structure_factor_coef Fsqd
_refine_ls_weighting_details
'calc w=1/[\s^2^(Fo^2^)+(0.0241P)^2^+0.0000P] where P=(Fo^2^+2Fc^2^)/3'
_refine_ls_weighting_scheme      calc
_refine_ls_wR_factor_gt          0.0660
_refine_ls_wR_factor_ref         0.0720
_reflns_number_gt                1458
_reflns_number_total             2022
_reflns_threshold_expression     >2sigma(I)
_cod_data_source_file            ja1027698_si_008.cif
_cod_data_source_block           c2m
_cod_original_cell_volume        702.73(9)
_cod_database_code               4102593
loop_
_symmetry_equiv_pos_as_xyz
'x, y, z'
'-x, y, -z'
'x+1/2, y+1/2, z'
'-x+1/2, y+1/2, -z'
'-x, -y, -z'
'x, -y, z'
'-x+1/2, -y+1/2, -z'
'x+1/2, -y+1/2, z'
loop_
_atom_site_label
_atom_site_type_symbol
_atom_site_fract_x
_atom_site_fract_y
_atom_site_fract_z
_atom_site_U_iso_or_equiv
_atom_site_adp_type
_atom_site_occupancy
_atom_site_symmetry_multiplicity
_atom_site_calc_flag
_atom_site_refinement_flags
Ho1 Ho 0.71926(4) 0.0000 0.08908(4) 0.00718(11) Uani 1 2 d S
Ho2 Ho 0.45628(4) 0.0000 0.16929(4) 0.01116(12) Uani 1 2 d S
Ho3 Ho 0.87741(4) 0.0000 0.34761(4) 0.00739(11) Uani 1 2 d S
Ho4 Ho 0.64347(4) 0.0000 0.43042(4) 0.00859(11) Uani 1 2 d S
Sb1 Sb 0.17137(6) 0.0000 0.26664(6) 0.01297(17) Uani 1 2 d S
Sb2 Sb 0.0000 0.0504(11) 0.0000 0.0123(10) Uani 0.475(4) 2 d SP
O1 O 0.4691(6) 0.0000 0.3688(9) 0.023(2) Uani 1 2 d S
O2 O 0.8826(7) 0.0000 0.2018(5) 0.0100(15) Uani 1 2 d S
O3 O 0.2960(6) 0.0000 0.0663(6) 0.0083(14) Uani 1 2 d S
O4 O 0.1649(6) 0.0000 0.5144(6) 0.0091(14) Uani 1 2 d S
loop_
_atom_site_aniso_label
_atom_site_aniso_U_11
_atom_site_aniso_U_22
_atom_site_aniso_U_33
_atom_site_aniso_U_23
_atom_site_aniso_U_13
_atom_site_aniso_U_12
Ho1 0.0076(2) 0.0074(2) 0.0064(2) 0.000 0.00191(14) 0.000
Ho2 0.0069(2) 0.0078(3) 0.0175(3) 0.000 0.00150(16) 0.000
Ho3 0.0091(2) 0.0063(2) 0.0076(2) 0.000 0.00372(16) 0.000
Ho4 0.00709(19) 0.0057(2) 0.0115(2) 0.000 0.00041(16) 0.000
Sb1 0.0085(3) 0.0212(5) 0.0094(3) 0.000 0.0030(2) 0.000
Sb2 0.0094(6) 0.018(3) 0.0094(7) 0.000 0.0031(4) 0.000
O1 0.004(3) 0.015(5) 0.046(6) 0.000 -0.004(3) 0.000
O2 0.014(4) 0.014(5) 0.003(3) 0.000 0.004(3) 0.000
O3 0.005(3) 0.007(4) 0.008(3) 0.000 -0.005(2) 0.000
O4 0.013(3) 0.008(4) 0.010(3) 0.000 0.010(3) 0.000
loop_
_atom_type_symbol
_atom_type_description
_atom_type_scat_dispersion_real
_atom_type_scat_dispersion_imag
_atom_type_scat_source
O O 0.0106 0.0060 'International Tables Vol C Tables 4.2.6.8 and 6.1.1.4'
Sb Sb -0.5866 1.5461 'International Tables Vol C Tables 4.2.6.8 and 6.1.1.4'
Ho Ho -0.2175 4.6783 'International Tables Vol C Tables 4.2.6.8 and 6.1.1.4'
loop_
_geom_angle_atom_site_label_1
_geom_angle_atom_site_label_2
_geom_angle_atom_site_label_3
_geom_angle
_geom_angle_site_symmetry_1
_geom_angle_site_symmetry_3
O3 Ho1 O3 116.9(4) 3 3_545
O3 Ho1 O3 75.6(2) 3 5_655
O3 Ho1 O3 75.6(2) 3_545 5_655
O3 Ho1 O2 75.0(2) 3 .
O3 Ho1 O2 75.0(2) 3_545 .
O3 Ho1 O2 122.0(3) 5_655 .
O3 Ho1 Sb2 140.08(18) 3 3_545
O3 Ho1 Sb2 83.41(18) 3_545 3_545
O3 Ho1 Sb2 77.32(17) 5_655 3_545
O2 Ho1 Sb2 144.88(10) . 3_545
O3 Ho1 Sb2 83.41(18) 3 7
O3 Ho1 Sb2 140.08(18) 3_545 7
O3 Ho1 Sb2 77.32(17) 5_655 7
O2 Ho1 Sb2 144.88(10) . 7
Sb2 Ho1 Sb2 62.30(12) 3_545 7
O3 Ho1 Sb1 81.2(2) 3 3
O3 Ho1 Sb1 141.0(2) 3_545 3
O3 Ho1 Sb1 143.29(8) 5_655 3
O2 Ho1 Sb1 77.43(17) . 3
Sb2 Ho1 Sb1 104.87(4) 3_545 3
Sb2 Ho1 Sb1 72.06(3) 7 3
O3 Ho1 Sb1 141.0(2) 3 3_545
O3 Ho1 Sb1 81.2(2) 3_545 3_545
O3 Ho1 Sb1 143.29(8) 5_655 3_545
O2 Ho1 Sb1 77.43(17) . 3_545
Sb2 Ho1 Sb1 72.06(3) 3_545 3_545
Sb2 Ho1 Sb1 104.87(4) 7 3_545
Sb1 Ho1 Sb1 66.151(19) 3 3_545
O3 Ho1 Sb2 144.42(18) 3 7_545
O3 Ho1 Sb2 78.42(18) 3_545 7_545
O3 Ho1 Sb2 78.11(15) 5_655 7_545
O2 Ho1 Sb2 140.20(9) . 7_545
Sb2 Ho1 Sb2 5.35(12) 3_545 7_545
Sb2 Ho1 Sb2 67.651(14) 7 7_545
Sb1 Ho1 Sb2 107.49(3) 3 7_545
Sb1 Ho1 Sb2 69.59(3) 3_545 7_545
O3 Ho1 Sb2 78.42(18) 3 3
O3 Ho1 Sb2 144.42(18) 3_545 3
O3 Ho1 Sb2 78.11(15) 5_655 3
O2 Ho1 Sb2 140.20(9) . 3
Sb2 Ho1 Sb2 67.651(14) 3_545 3
Sb2 Ho1 Sb2 5.35(12) 7 3
Sb1 Ho1 Sb2 69.59(3) 3 3
Sb1 Ho1 Sb2 107.49(3) 3_545 3
Sb2 Ho1 Sb2 73.00(11) 7_545 3
O3 Ho1 Ho1 97.1(2) 3 7_645
O3 Ho1 Ho1 38.3(2) 3_545 7_645
O3 Ho1 Ho1 37.27(9) 5_655 7_645
O2 Ho1 Ho1 100.21(17) . 7_645
Sb2 Ho1 Ho1 77.74(3) 3_545 7_645
Sb2 Ho1 Ho1 109.81(4) 7 7_645
Sb1 Ho1 Ho1 177.36(3) 3 7_645
Sb1 Ho1 Ho1 114.668(10) 3_545 7_645
Sb2 Ho1 Ho1 75.08(3) 7_545 7_645
Sb2 Ho1 Ho1 112.11(3) 3 7_645
O3 Ho1 Ho1 38.3(2) 3 7_655
O3 Ho1 Ho1 97.1(2) 3_545 7_655
O3 Ho1 Ho1 37.27(9) 5_655 7_655
O2 Ho1 Ho1 100.21(17) . 7_655
Sb2 Ho1 Ho1 109.81(4) 3_545 7_655
Sb2 Ho1 Ho1 77.74(3) 7 7_655
Sb1 Ho1 Ho1 114.668(10) 3 7_655
Sb1 Ho1 Ho1 177.36(3) 3_545 7_655
Sb2 Ho1 Ho1 112.11(3) 7_545 7_655
Sb2 Ho1 Ho1 75.08(3) 3 7_655
Ho1 Ho1 Ho1 64.393(19) 7_645 7_655
O3 Ho2 O2 76.4(2) . 3_445
O3 Ho2 O2 76.4(2) . 3_455
O2 Ho2 O2 114.9(4) 3_445 3_455
O3 Ho2 Sb2 79.0(2) . 3_545
O2 Ho2 Sb2 85.08(19) 3_445 3_545
O2 Ho2 Sb2 143.1(2) 3_455 3_545
O3 Ho2 Sb2 79.0(2) . 7
O2 Ho2 Sb2 143.1(2) 3_445 7
O2 Ho2 Sb2 85.08(19) 3_455 7
Sb2 Ho2 Sb2 63.35(13) 3_545 7
O3 Ho2 Sb1 144.20(7) . 3
O2 Ho2 Sb1 138.0(2) 3_445 3
O2 Ho2 Sb1 78.3(2) 3_455 3
Sb2 Ho2 Sb1 108.19(4) 3_545 3
Sb2 Ho2 Sb1 73.91(4) 7 3
O3 Ho2 Sb1 144.20(7) . 3_545
O2 Ho2 Sb1 78.33(19) 3_445 3_545
O2 Ho2 Sb1 138.0(2) 3_455 3_545
Sb2 Ho2 Sb1 73.91(4) 3_545 3_545
Sb2 Ho2 Sb1 108.19(4) 7 3_545
Sb1 Ho2 Sb1 68.27(2) 3 3_545
O3 Ho2 Sb2 79.71(19) . 7_545
O2 Ho2 Sb2 80.01(19) 3_445 7_545
O2 Ho2 Sb2 147.4(2) 3_455 7_545
Sb2 Ho2 Sb2 5.39(12) 3_545 7_545
Sb2 Ho2 Sb2 68.739(15) 7 7_545
Sb1 Ho2 Sb2 110.77(3) 3 7_545
Sb1 Ho2 Sb2 71.23(3) 3_545 7_545
O3 Ho2 Sb2 79.71(19) . 3
O2 Ho2 Sb2 147.4(2) 3_445 3
O2 Ho2 Sb2 80.01(19) 3_455 3
Sb2 Ho2 Sb2 68.739(15) 3_545 3
Sb2 Ho2 Sb2 5.39(12) 7 3
Sb1 Ho2 Sb2 71.23(3) 3 3
Sb1 Ho2 Sb2 110.77(3) 3_545 3
Sb2 Ho2 Sb2 74.13(11) 7_545 3
O3 Ho2 Ho1 36.84(11) . 3_445
O2 Ho2 Ho1 39.6(2) 3_445 3_445
O2 Ho2 Ho1 97.27(19) 3_455 3_445
Sb2 Ho2 Ho1 78.30(3) 3_545 3_445
Sb2 Ho2 Ho1 110.86(3) 7 3_445
Sb1 Ho2 Ho1 173.39(3) 3 3_445
Sb1 Ho2 Ho1 113.336(11) 3_545 3_445
Sb2 Ho2 Ho1 75.59(3) 7_545 3_445
Sb2 Ho2 Ho1 113.12(3) 3 3_445
O3 Ho2 Ho1 36.84(11) . 3_455
O2 Ho2 Ho1 97.27(19) 3_445 3_455
O2 Ho2 Ho1 39.6(2) 3_455 3_455
Sb2 Ho2 Ho1 110.86(3) 3_545 3_455
Sb2 Ho2 Ho1 78.30(3) 7 3_455
Sb1 Ho2 Ho1 113.336(11) 3 3_455
Sb1 Ho2 Ho1 173.39(3) 3_545 3_455
Sb2 Ho2 Ho1 113.12(3) 7_545 3_455
Sb2 Ho2 Ho1 75.59(3) 3 3_455
Ho1 Ho2 Ho1 64.301(13) 3_445 3_455
O3 Ho2 Ho3 95.1(2) . 3_455
O2 Ho2 Ho3 92.53(18) 3_445 3_455
O2 Ho2 Ho3 34.22(19) 3_455 3_455
Sb2 Ho2 Ho3 174.01(2) 3_545 3_455
Sb2 Ho2 Ho3 116.87(6) 7 3_455
Sb1 Ho2 Ho3 77.211(18) 3 3_455
Sb1 Ho2 Ho3 111.01(2) 3_545 3_455
Sb2 Ho2 Ho3 171.71(4) 7_545 3_455
Sb2 Ho2 Ho3 111.51(5) 3 3_455
Ho1 Ho2 Ho3 96.362(18) 3_445 3_455
Ho1 Ho2 Ho3 63.951(15) 3_455 3_455
O2 Ho3 O1 88.1(4) . 3
O2 Ho3 O1 88.1(4) . 3_545
O1 Ho3 O1 117.0(4) 3 3_545
O2 Ho3 O4 168.2(3) . 5_656
O1 Ho3 O4 97.9(4) 3 5_656
O1 Ho3 O4 97.9(4) 3_545 5_656
O2 Ho3 Sb1 84.01(18) . 3_545
O1 Ho3 Sb1 156.05(19) 3 3_545
O1 Ho3 Sb1 85.42(18) 3_545 3_545
O4 Ho3 Sb1 86.43(17) 5_656 3_545
O2 Ho3 Sb1 84.01(18) . 3
O1 Ho3 Sb1 85.42(18) 3 3
O1 Ho3 Sb1 156.05(19) 3_545 3
O4 Ho3 Sb1 86.43(17) 5_656 3
Sb1 Ho3 Sb1 71.29(2) 3_545 3
O2 Ho3 Ho4 127.6(2) . .
O1 Ho3 Ho4 115.7(3) 3 .
O1 Ho3 Ho4 115.7(3) 3_545 .
O4 Ho3 Ho4 40.6(2) 5_656 .
Sb1 Ho3 Ho4 54.924(18) 3_545 .
Sb1 Ho3 Ho4 54.924(18) 3 .
O2 Ho3 Ho2 34.97(9) . 3_545
O1 Ho3 Ho2 106.5(3) 3 3_545
O1 Ho3 Ho2 53.4(3) 3_545 3_545
O4 Ho3 Ho2 148.52(3) 5_656 3_545
Sb1 Ho3 Ho2 79.228(19) 3_545 3_545
Sb1 Ho3 Ho2 114.54(2) 3 3_545
Ho4 Ho3 Ho2 134.149(15) . 3_545
O2 Ho3 Ho2 34.97(9) . 3
O1 Ho3 Ho2 53.4(3) 3 3
O1 Ho3 Ho2 106.5(3) 3_545 3
O4 Ho3 Ho2 148.52(3) 5_656 3
Sb1 Ho3 Ho2 114.54(2) 3_545 3
Sb1 Ho3 Ho2 79.228(19) 3 3
Ho4 Ho3 Ho2 134.149(15) . 3
Ho2 Ho3 Ho2 62.226(14) 3_545 3
O2 Ho3 Ho3 90.000(1) . 1_565
O1 Ho3 Ho3 31.51(18) 3 1_565
O1 Ho3 Ho3 148.49(18) 3_545 1_565
O4 Ho3 Ho3 90.000(1) 5_656 1_565
Sb1 Ho3 Ho3 125.647(10) 3_545 1_565
Sb1 Ho3 Ho3 54.353(10) 3 1_565
Ho4 Ho3 Ho3 90.0 . 1_565
Ho2 Ho3 Ho3 121.113(7) 3_545 1_565
Ho2 Ho3 Ho3 58.887(7) 3 1_565
O2 Ho3 Ho3 90.000(1) . 1_545
O1 Ho3 Ho3 148.49(18) 3 1_545
O1 Ho3 Ho3 31.51(18) 3_545 1_545
O4 Ho3 Ho3 90.000(1) 5_656 1_545
Sb1 Ho3 Ho3 54.353(10) 3_545 1_545
Sb1 Ho3 Ho3 125.647(10) 3 1_545
Ho4 Ho3 Ho3 90.0 . 1_545
Ho2 Ho3 Ho3 58.887(7) 3_545 1_545
Ho2 Ho3 Ho3 121.113(7) 3 1_545
Ho3 Ho3 Ho3 180.00(5) 1_565 1_545
O2 Ho3 Ho1 33.3(2) . .
O1 Ho3 Ho1 105.0(3) 3 .
O1 Ho3 Ho1 105.0(3) 3_545 .
O4 Ho3 Ho1 135.0(2) 5_656 .
Sb1 Ho3 Ho1 58.050(18) 3_545 .
Sb1 Ho3 Ho1 58.050(18) 3 .
Ho4 Ho3 Ho1 94.363(18) . .
Ho2 Ho3 Ho1 56.675(13) 3_545 .
Ho2 Ho3 Ho1 56.675(13) 3 .
Ho3 Ho3 Ho1 90.0 1_565 .
Ho3 Ho3 Ho1 90.0 1_545 .
O1 Ho4 O4 100.3(3) . 3
O1 Ho4 O4 100.3(3) . 3_545
O4 Ho4 O4 115.0(4) 3 3_545
O1 Ho4 O4 175.6(4) . 5_656
O4 Ho4 O4 82.0(2) 3 5_656
O4 Ho4 O4 82.0(2) 3_545 5_656
O1 Ho4 Sb1 91.1(3) . 3_545
O4 Ho4 Sb1 154.63(19) 3 3_545
O4 Ho4 Sb1 84.64(18) 3_545 3_545
O4 Ho4 Sb1 85.31(16) 5_656 3_545
O1 Ho4 Sb1 91.1(3) . 3
O4 Ho4 Sb1 84.64(18) 3 3
O4 Ho4 Sb1 154.63(19) 3_545 3
O4 Ho4 Sb1 85.31(16) 5_656 3
Sb1 Ho4 Sb1 72.46(2) 3_545 3
O1 Ho4 Ho4 143.10(15) . 7_656
O4 Ho4 Ho4 42.9(2) 3 7_656
O4 Ho4 Ho4 100.0(2) 3_545 7_656
O4 Ho4 Ho4 39.07(10) 5_656 7_656
Sb1 Ho4 Ho4 121.25(3) 3_545 7_656
Sb1 Ho4 Ho4 83.356(19) 3 7_656
O1 Ho4 Ho4 143.10(15) . 7_646
O4 Ho4 Ho4 100.0(2) 3 7_646
O4 Ho4 Ho4 42.9(2) 3_545 7_646
O4 Ho4 Ho4 39.07(10) 5_656 7_646
Sb1 Ho4 Ho4 83.356(19) 3_545 7_646
Sb1 Ho4 Ho4 121.25(3) 3 7_646
Ho4 Ho4 Ho4 64.928(19) 7_656 7_646
O1 Ho4 Ho3 137.6(3) . .
O4 Ho4 Ho3 102.1(2) 3 .
O4 Ho4 Ho3 102.1(2) 3_545 .
O4 Ho4 Ho3 37.93(19) 5_656 .
Sb1 Ho4 Ho3 56.097(17) 3_545 .
Sb1 Ho4 Ho3 56.097(17) 3 .
Ho4 Ho4 Ho3 65.835(19) 7_656 .
Ho4 Ho4 Ho3 65.835(19) 7_646 .
O1 Ho4 Ho4 90.000(1) . 1_565
O4 Ho4 Ho4 32.49(18) 3 1_565
O4 Ho4 Ho4 147.51(18) 3_545 1_565
O4 Ho4 Ho4 90.000(1) 5_656 1_565
Sb1 Ho4 Ho4 126.231(11) 3_545 1_565
Sb1 Ho4 Ho4 53.769(11) 3 1_565
Ho4 Ho4 Ho4 57.536(9) 7_656 1_565
Ho4 Ho4 Ho4 122.464(9) 7_646 1_565
Ho3 Ho4 Ho4 90.0 . 1_565
O1 Ho4 Ho4 90.000(1) . 1_545
O4 Ho4 Ho4 147.51(18) 3 1_545
O4 Ho4 Ho4 32.49(18) 3_545 1_545
O4 Ho4 Ho4 90.0 5_656 1_545
Sb1 Ho4 Ho4 53.768(11) 3_545 1_545
Sb1 Ho4 Ho4 126.231(11) 3 1_545
Ho4 Ho4 Ho4 122.464(9) 7_656 1_545
Ho4 Ho4 Ho4 57.536(9) 7_646 1_545
Ho3 Ho4 Ho4 90.0 . 1_545
Ho4 Ho4 Ho4 180.0 1_565 1_545
O1 Ho4 Ho3 29.43(3) . 3_445
O4 Ho4 Ho3 123.1(2) 3 3_445
O4 Ho4 Ho3 73.8(2) 3_545 3_445
O4 Ho4 Ho3 150.653(11) 5_656 3_445
Sb1 Ho4 Ho3 76.259(17) 3_545 3_445
Sb1 Ho4 Ho3 109.94(2) 3 3_445
Ho4 Ho4 Ho3 161.36(3) 7_656 3_445
Ho4 Ho4 Ho3 114.963(12) 7_646 3_445
Ho3 Ho4 Ho3 132.269(18) . 3_445
Ho4 Ho4 Ho3 119.307(6) 1_565 3_445
Ho4 Ho4 Ho3 60.693(6) 1_545 3_445
Ho4 Sb1 Ho4 72.46(2) 3_455 3_445
Ho4 Sb1 Ho3 68.979(17) 3_455 3_455
Ho4 Sb1 Ho3 109.28(3) 3_445 3_455
Ho4 Sb1 Ho3 109.28(3) 3_455 3_445
Ho4 Sb1 Ho3 68.979(17) 3_445 3_445
Ho3 Sb1 Ho3 71.29(2) 3_455 3_445
Ho4 Sb1 Ho2 113.05(3) 3_455 3_445
Ho4 Sb1 Ho2 74.226(18) 3_445 3_445
Ho3 Sb1 Ho2 176.47(3) 3_455 3_445
Ho3 Sb1 Ho2 110.123(10) 3_445 3_445
Ho4 Sb1 Ho2 74.226(18) 3_455 3_455
Ho4 Sb1 Ho2 113.05(3) 3_445 3_455
Ho3 Sb1 Ho2 110.123(10) 3_455 3_455
Ho3 Sb1 Ho2 176.47(3) 3_445 3_455
Ho2 Sb1 Ho2 68.27(2) 3_445 3_455
Ho4 Sb1 Ho1 175.33(2) 3_455 3_445
Ho4 Sb1 Ho1 110.583(10) 3_445 3_445
Ho3 Sb1 Ho1 106.45(3) 3_455 3_445
Ho3 Sb1 Ho1 69.334(18) 3_445 3_445
Ho2 Sb1 Ho1 71.466(17) 3_445 3_445
Ho2 Sb1 Ho1 107.14(3) 3_455 3_445
Ho4 Sb1 Ho1 110.583(10) 3_455 3_455
Ho4 Sb1 Ho1 175.33(2) 3_445 3_455
Ho3 Sb1 Ho1 69.334(18) 3_455 3_455
Ho3 Sb1 Ho1 106.45(3) 3_445 3_455
Ho2 Sb1 Ho1 107.14(3) 3_445 3_455
Ho2 Sb1 Ho1 71.466(17) 3_455 3_455
Ho1 Sb1 Ho1 66.151(19) 3_445 3_455
Ho2 Sb2 Ho2 116.65(13) 3_455 7
Ho2 Sb2 Ho1 75.44(6) 3_455 3_455
Ho2 Sb2 Ho1 73.03(6) 7 3_455
Ho2 Sb2 Ho1 73.03(6) 3_455 7
Ho2 Sb2 Ho1 75.44(6) 7 7
Ho1 Sb2 Ho1 117.70(12) 3_455 7
Ho2 Sb2 Ho2 174.61(12) 3_455 7_545
Ho2 Sb2 Ho2 68.739(15) 7 7_545
Ho1 Sb2 Ho2 107.027(15) 3_455 7_545
Ho1 Sb2 Ho2 109.313(16) 7 7_545
Ho2 Sb2 Ho2 68.739(15) 3_455 3_445
Ho2 Sb2 Ho2 174.61(12) 7 3_445
Ho1 Sb2 Ho2 109.313(16) 3_455 3_445
Ho1 Sb2 Ho2 107.027(15) 7 3_445
Ho2 Sb2 Ho2 105.87(11) 7_545 3_445
Ho2 Sb2 Ho1 107.059(15) 3_455 7_545
Ho2 Sb2 Ho1 109.349(16) 7 7_545
Ho1 Sb2 Ho1 174.65(12) 3_455 7_545
Ho1 Sb2 Ho1 67.651(14) 7 7_545
Ho2 Sb2 Ho1 70.08(6) 7_545 7_545
Ho2 Sb2 Ho1 67.89(6) 3_445 7_545
Ho2 Sb2 Ho1 109.349(16) 3_455 3_445
Ho2 Sb2 Ho1 107.059(15) 7 3_445
Ho1 Sb2 Ho1 67.651(14) 3_455 3_445
Ho1 Sb2 Ho1 174.65(12) 7 3_445
Ho2 Sb2 Ho1 67.89(6) 7_545 3_445
Ho2 Sb2 Ho1 70.08(6) 3_445 3_445
Ho1 Sb2 Ho1 107.00(11) 7_545 3_445
Ho4 O1 Ho3 121.15(18) . 3_445
Ho4 O1 Ho3 121.15(18) . 3_455
Ho3 O1 Ho3 117.0(4) 3_445 3_455
Ho3 O2 Ho2 110.8(2) . 3
Ho3 O2 Ho2 110.8(2) . 3_545
Ho2 O2 Ho2 114.9(4) 3 3_545
Ho3 O2 Ho1 115.4(4) . .
Ho2 O2 Ho1 102.3(2) 3 .
Ho2 O2 Ho1 102.3(2) 3_545 .
Ho1 O3 Ho1 116.9(4) 3_445 3_455
Ho1 O3 Ho2 106.2(2) 3_445 .
Ho1 O3 Ho2 106.2(2) 3_455 .
Ho1 O3 Ho1 104.4(2) 3_445 5_655
Ho1 O3 Ho1 104.4(2) 3_455 5_655
Ho2 O3 Ho1 119.4(4) . 5_655
Ho4 O4 Ho4 115.0(4) 3_445 3_455
Ho4 O4 Ho3 118.7(2) 3_445 5_656
Ho4 O4 Ho3 118.7(2) 3_455 5_656
Ho4 O4 Ho4 98.0(2) 3_445 5_656
Ho4 O4 Ho4 98.0(2) 3_455 5_656
Ho3 O4 Ho4 101.5(3) 5_656 5_656
loop_
_geom_bond_atom_site_label_1
_geom_bond_atom_site_label_2
_geom_bond_distance
_geom_bond_site_symmetry_2
Ho1 O3 2.206(5) 3
Ho1 O3 2.206(5) 3_545
Ho1 O3 2.260(8) 5_655
Ho1 O2 2.306(8) .
Ho1 Sb2 3.269(2) 3_545
Ho1 Sb2 3.269(2) 7
Ho1 Sb1 3.4457(9) 3
Ho1 Sb1 3.4457(9) 3_545
Ho1 Sb2 3.480(2) 7_545
Ho1 Sb2 3.480(2) 3
Ho1 Ho1 3.5292(9) 7_645
Ho1 Ho1 3.5292(9) 7_655
Ho2 O3 2.213(7) .
Ho2 O2 2.231(5) 3_445
Ho2 O2 2.231(5) 3_455
Ho2 Sb2 3.220(2) 3_545
Ho2 Sb2 3.220(2) 7
Ho2 Sb1 3.3510(9) 3
Ho2 Sb1 3.3510(9) 3_545
Ho2 Sb2 3.435(3) 7_545
Ho2 Sb2 3.435(3) 3
Ho2 Ho1 3.5337(6) 3_445
Ho2 Ho1 3.5337(6) 3_455
Ho2 Ho3 3.6392(7) 3_455
Ho3 O2 2.190(8) .
Ho3 O1 2.206(4) 3
Ho3 O1 2.206(4) 3_545
Ho3 O4 2.276(8) 5_656
Ho3 Sb1 3.2266(8) 3_545
Ho3 Sb1 3.2266(8) 3
Ho3 Ho4 3.6289(8) .
Ho3 Ho2 3.6392(7) 3_545
Ho3 Ho2 3.6392(7) 3
Ho3 Ho3 3.7609(2) 1_565
Ho3 Ho3 3.7609(2) 1_545
Ho4 O1 2.205(8) .
Ho4 O4 2.230(4) 3
Ho4 O4 2.230(4) 3_545
Ho4 O4 2.410(8) 5_656
Ho4 Sb1 3.1815(9) 3_545
Ho4 Sb1 3.1815(9) 3
Ho4 Ho4 3.5033(9) 7_656
Ho4 Ho4 3.5033(9) 7_646
Ho4 Ho4 3.7609(2) 1_565
Ho4 Ho4 3.7609(2) 1_545
Ho4 Ho3 3.8416(7) 3_445
Sb1 Ho4 3.1815(9) 3_455
Sb1 Ho4 3.1815(9) 3_445
Sb1 Ho3 3.2266(8) 3_455
Sb1 Ho3 3.2266(8) 3_445
Sb1 Ho2 3.3510(9) 3_445
Sb1 Ho2 3.3510(9) 3_455
Sb1 Ho1 3.4457(9) 3_445
Sb1 Ho1 3.4457(9) 3_455
Sb2 Ho2 3.220(2) 3_455
Sb2 Ho2 3.220(2) 7
Sb2 Ho1 3.269(2) 3_455
Sb2 Ho1 3.269(2) 7
Sb2 Ho2 3.435(3) 7_545
Sb2 Ho2 3.435(3) 3_445
Sb2 Ho1 3.480(2) 7_545
Sb2 Ho1 3.480(2) 3_445
O1 Ho3 2.206(4) 3_445
O1 Ho3 2.206(4) 3_455
O2 Ho2 2.231(5) 3
O2 Ho2 2.231(5) 3_545
O3 Ho1 2.206(5) 3_445
O3 Ho1 2.206(5) 3_455
O3 Ho1 2.260(8) 5_655
O4 Ho4 2.230(4) 3_445
O4 Ho4 2.230(4) 3_455
O4 Ho3 2.276(8) 5_656
O4 Ho4 2.410(8) 5_656
