#------------------------------------------------------------------------------
#$Date: 2016-03-21 17:59:44 +0200 (Mon, 21 Mar 2016) $
#$Revision: 178798 $
#$URL: svn://www.crystallography.net/cod/cif/4/10/52/4105292.cif $
#------------------------------------------------------------------------------
#
# This file is available in the Crystallography Open Database (COD),
# http://www.crystallography.net/
#
# All data on this site have been placed in the public domain by the
# contributors.
#
data_4105292
loop_
_publ_author_name
'Alfred J. Wooten'
'Donald J. Werder'
'Darrick J. Williams'
'Joanna L. Casson'
'Jennifer A. Hollingsworth'
_publ_section_title
;
 Solution-Liquid-Solid Growth of Ternary Cu-In-Se Semiconductor Nanowires
 from Multiple- and Single-Source Precursors
;
_journal_name_full               'Journal of the American Chemical Society'
_journal_page_first              16177
_journal_page_last               16188
_journal_paper_doi               10.1021/ja905730n
_journal_volume                  131
_journal_year                    2009
_chemical_formula_sum            'Cu In Se2'
_chemical_formula_weight         336.29
_space_group_IT_number           122
_symmetry_cell_setting           tetragonal
_symmetry_space_group_name_Hall  'I -4 2bw'
_symmetry_space_group_name_H-M   'I -4 2 d'
_audit_author_name               'Alfred Wooten'
_audit_creation_date             2009-01-23T10:29
_audit_creation_method           'from EXP file using GSAS2CIF'
_cell_angle_alpha                90.0
_cell_angle_beta                 90.0
_cell_angle_gamma                90.0
_cell_formula_units_Z            4
_cell_length_a                   5.7937(25)
_cell_length_b                   5.7937
_cell_length_c                   11.554(8)
_cell_volume                     387.8(3)
_computing_structure_refinement  GSAS
_diffrn_radiation_polarisn_ratio 0.5
_diffrn_radiation_probe          x-ray
_exptl_absorpt_correction_T_max  1.00000
_exptl_absorpt_correction_T_min  1.00000
_exptl_absorpt_process_details
;   GSAS Absorption/surface roughness correction: function number 0
 No correction is applied.
;
_pd_block_id
2009-01-23T10:29|CUINSE2MSP3002|Alfred_Wooten|Ultima_III
_pd_calc_method                  'Rietveld Refinement'
_pd_phase_name                   'from E:/Powder/Compounds/CUINSE2.cel'
_pd_proc_info_datetime           2009-01-23T10:29:17
_pd_proc_ls_background_function
;   GSAS Background function number 6 with  8 terms.
 Power series in Q**2n/n! and n!/Q**2n
      1:    1330.27     2:    150.941     3:   -1390.24     4:   -36.2759    
      5:    692.829     6:    4.10532     7:   -64.7416     8:  -0.205314    
;
_pd_proc_ls_peak_cutoff          0.01000
_pd_proc_ls_profile_function
;
 CW Profile function number 2 with  18 terms
 Profile coefficients for Simpson's rule integration of pseudovoigt function
 C.J. Howard (1982). J. Appl. Cryst.,15,615-620.
 P. Thompson, D.E. Cox & J.B. Hastings (1987). J. Appl. Cryst.,20,79-83.
 Peak tails are ignored  where the intensity is below 0.0100 times the peak
   Aniso. broadening axis   0.0   0.0   1.0
;
_pd_proc_ls_prof_R_factor        0.0530
_pd_proc_ls_prof_wR_expected     0.0268
_pd_proc_ls_prof_wR_factor       0.0752
_refine_ls_goodness_of_fit_all   8.68
_refine_ls_matrix_type           full
_refine_ls_number_parameters     15
_refine_ls_number_restraints     0
_refine_ls_R_Fsqd_factor         0.27890
_refine_ls_shift/su_max          0.00
_refine_ls_shift/su_mean         0.00
_reflns_d_resolution_high        1.110
_reflns_d_resolution_low         5.179
_reflns_limit_h_max              5
_reflns_limit_h_min              0
_reflns_limit_k_max              3
_reflns_limit_k_min              0
_reflns_limit_l_max              10
_reflns_limit_l_min              0
_reflns_number_total             108
_cod_data_source_file            ja905730n_si_003.cif
_cod_data_source_block           x
_cod_depositor_comments
;
The following automatic conversions were performed:

'_geom_bond_publ_flag' value 'N' changed to 'n' according to the
built-in table from CIF Core dictionary named 'cif_core.dic' version
2.4.1 from 2010-06-29 (12 times).

'_geom_angle_publ_flag' value 'N'
changed to 'n' according to the built-in table from CIF Core
dictionary named 'cif_core.dic' version 2.4.1 from 2010-06-29 (18
times).

Automatic conversion script
Id: cif_fix_values 1715 2011-07-08 13:25:40Z adriana 
;
_cod_original_cell_volume        387.83(24)
_cod_database_code               4105292
_cod_database_fobs_code          4105292
#BEGIN Tags that were not found in dictionaries:
_gsas_exptl_extinct_corr_t_min   1.00000
_gsas_exptl_extinct_corr_t_max   1.00000
#END Tags that were not found in dictionaries
loop_
_symmetry_equiv_pos_site_id
_symmetry_equiv_pos_as_xyz
1 +x,+y,+z
2 +y,-x,-z
3 -x,-y,+z
4 -y,+x,-z
5 -x+1/2,+y,-z+3/4
6 +y,+x+1/2,+z+1/4
7 +x+1/2,-y,-z+3/4
8 -y,-x+1/2,+z+1/4
101 +x+1/2,+y+1/2,+z+1/2
102 +y+1/2,-x+1/2,-z+1/2
103 -x+1/2,-y+1/2,+z+1/2
104 -y+1/2,+x+1/2,-z+1/2
105 -x,+y+1/2,-z+1/4
106 +y+1/2,+x,+z+3/4
107 +x,-y+1/2,-z+1/4
108 -y+1/2,-x,+z+3/4
loop_
_atom_site_type_symbol
_atom_site_label
_atom_site_fract_x
_atom_site_fract_y
_atom_site_fract_z
_atom_site_occupancy
_atom_site_thermal_displace_type
_atom_site_U_iso_or_equiv
_atom_site_symmetry_multiplicity
Cu Cu 0.0 0.0 0.0 1.0 Uiso 0.025 4
In In 0.0 0.0 0.5 1.0 Uiso 0.0204(30) 4
Se Se 0.242 0.25 0.125 1.0 Uiso 0.025 8
loop_
_atom_type_symbol
_atom_type_number_in_cell
_atom_type_scat_dispersion_real
_atom_type_scat_dispersion_imag
_atom_type_scat_Cromer_Mann_a1
_atom_type_scat_Cromer_Mann_a2
_atom_type_scat_Cromer_Mann_a3
_atom_type_scat_Cromer_Mann_a4
_atom_type_scat_Cromer_Mann_b1
_atom_type_scat_Cromer_Mann_b2
_atom_type_scat_Cromer_Mann_b3
_atom_type_scat_Cromer_Mann_b4
_atom_type_scat_Cromer_Mann_c
_atom_type_scat_source
Cu 4.0 0.000 0.000 13.3380 3.58280 7.16760 0.24700 5.61580 11.3966 1.67350
64.8126 1.19100 International_Tables_Vol_C
In 4.0 0.000 0.000 19.1624 0.54760 18.5596 6.37760 4.29480 25.8499 2.03960
92.8029 4.93910 International_Tables_Vol_C
Se 8.0 0.000 0.000 17.0006 2.40980 5.81960 0.27260 3.97310 15.2372 4.35430
43.8163 2.84090 International_Tables_Vol_C
loop_
_diffrn_radiation_wavelength
_diffrn_radiation_wavelength_wt
_diffrn_radiation_type
_diffrn_radiation_wavelength_id
1.540510 1.000 K\a~1~ 1
1.544330 0.500 K\a~2~ 2
loop_
_geom_angle_atom_site_label_1
_geom_angle_atom_site_label_2
_geom_angle_atom_site_label_3
_geom_angle
_geom_angle_site_symmetry_1
_geom_angle_site_symmetry_3
_geom_angle_publ_flag
Se Cu Se 109.827(22) 1_555 2_555 n
Se Cu Se 108.76(4) 1_555 3_555 n
Se Cu Se 109.827(22) 1_555 4_555 n
Se Cu Se 109.827(22) 2_555 3_555 n
Se Cu Se 108.76(4) 2_555 4_555 n
Se Cu Se 109.827(22) 3_555 4_555 n
Se In Se 108.965(22) 5_555 6_545 n
Se In Se 110.49(4) 5_555 7_455 n
Se In Se 108.965(22) 5_555 8_555 n
Se In Se 108.965(22) 6_545 7_455 n
Se In Se 110.49(4) 6_545 8_555 n
Se In Se 108.965(22) 7_455 8_555 n
Cu Se Cu 111.141(22) 1_555 6_555 n
Cu Se In 109.370(22) 1_555 5_555 n
Cu Se In 109.60(4) 1_555 101_554 n
Cu Se In 109.60(4) 6_555 5_555 n
Cu Se In 109.370(22) 6_555 101_554 n
In Se In 107.682(22) 5_555 101_554 n
loop_
_geom_bond_atom_site_label_1
_geom_bond_atom_site_label_2
_geom_bond_distance
_geom_bond_site_symmetry_2
_geom_bond_publ_flag
Cu Se 2.4798(9) 1_555 n
Cu Se 2.4798(9) 2_555 n
Cu Se 2.4798(9) 3_555 n
Cu Se 2.4798(9) 4_555 n
In Se 2.5334(9) 5_555 n
In Se 2.5334(9) 6_545 n
In Se 2.5334(9) 7_455 n
In Se 2.5334(9) 8_555 n
Se Cu 2.4798(9) 1_555 n
Se Cu 2.4798(9) 6_555 n
Se In 2.5334(9) 5_555 n
Se In 2.5334(9) 101_554 n
