#------------------------------------------------------------------------------
#$Date: 2022-06-28 19:49:11 +0300 (Tue, 28 Jun 2022) $
#$Revision: 276354 $
#$URL: file:///home/coder/svn-repositories/cod/cif/4/10/77/4107788.cif $
#------------------------------------------------------------------------------
#
# This file is available in the Crystallography Open Database (COD),
# http://www.crystallography.net/
#
# All data on this site have been placed in the public domain by the
# contributors.
#
data_4107788
loop_
_publ_author_name
'Hui Wu'
_publ_contact_author_address
;
NIST Center for Neutron Research, 
National Institute of Standards and Technology, 
Gaithersburg, Maryland 20899-6102, USA
;
_publ_contact_author_email       huiwu@nist.gov
_publ_contact_author_name        'Dr. Hui Wu'
_publ_section_title
;
 Structure of Ternary Imide Li2Ca(NH)2 and Hydrogen Storage Mechanisms in
 Amide-Hydride System
;
_journal_name_full               'Journal of the American Chemical Society'
_journal_page_first              6515
_journal_page_last               6522
_journal_paper_doi               10.1021/ja800300e
_journal_volume                  130
_journal_year                    2008
_chemical_formula_sum            'Ca D2 Li2 N2'
_chemical_formula_weight         84.48
_chemical_name_common            CaLi2(DN)2
_space_group_IT_number           164
_symmetry_cell_setting           trigonal
_symmetry_space_group_name_Hall  '-P 3 2"'
_symmetry_space_group_name_H-M   'P -3 m 1'
_atom_sites_solution_primary     direct
_audit_creation_method           GSAS2CIF
_cell_angle_alpha                90.0
_cell_angle_beta                 90.0
_cell_angle_gamma                120.0
_cell_formula_units_Z            1
_cell_length_a                   3.56787(7)
_cell_length_b                   3.56787
_cell_length_c                   5.94851(23)
_cell_measurement_reflns_used    75
_cell_measurement_temperature    15.000
_cell_measurement_theta_max      167.75
_cell_measurement_theta_min      3.0
_cell_volume                     65.578(3)
_computing_structure_refinement  GSAS
_diffrn_measurement_device_type  BT1_Powder_diffractometer_NCNR
_diffrn_measurement_method       cont
_diffrn_radiation_monochromator  Cu311
_diffrn_radiation_probe          neutron
_diffrn_radiation_type           neutron
_diffrn_radiation_wavelength     1.5403
_diffrn_reflns_limit_h_max       5
_diffrn_reflns_limit_h_min       0
_diffrn_reflns_limit_k_max       4
_diffrn_reflns_limit_k_min       0
_diffrn_reflns_limit_l_max       7
_diffrn_reflns_limit_l_min       -7
_diffrn_reflns_number            75
_exptl_absorpt_correction_T_max  1.00000
_exptl_absorpt_correction_T_min  1.00000
_pd_calc_method                  'Rietveld Refinement'
_pd_meas_2theta_range_inc        0.05
_pd_meas_2theta_range_max        167.75
_pd_meas_2theta_range_min        3.0
_pd_meas_number_of_points        3296
_pd_proc_info_datetime           2007-10-24T15:30
_pd_proc_ls_prof_R_factor        0.0591
_pd_proc_ls_prof_wR_expected     0.0549
_pd_proc_ls_prof_wR_factor       0.0697
_pd_proc_number_of_points        3296
_refine_ls_extinction_method     none
_refine_ls_goodness_of_fit_ref   1.28
_refine_ls_matrix_type           full
_refine_ls_number_parameters     39
_refine_ls_number_reflns         75
_refine_ls_number_restraints     0
_refine_ls_R_Fsqd_factor         0.0839
_refine_ls_shift/su_max          0.04
_refine_ls_shift/su_mean         0.00
_refine_ls_structure_factor_coef Fsqd
_refine_ls_weighting_details
'calc w=1/[\s^2^(Fo^2^)+(0.1435P)^2^+0.0000P] where P=(Fo^2^+2Fc^2^)/3'
_refine_ls_weighting_scheme      calc
_reflns_d_resolution_high        0.781
_reflns_d_resolution_low         5.949
_reflns_number_total             75
_cod_data_source_file            ja800300e-file005.cif
_cod_data_source_block           CALi2(DN)2(Deuterated)_295K
_cod_original_cell_volume        65.578(4)
_cod_database_code               4107788
_gsas_exptl_extinct_corr_t_min   1.00000
_gsas_exptl_extinct_corr_t_max   1.00000
loop_
_symmetry_equiv_pos_site_id
_symmetry_equiv_pos_as_xyz
1 +x,+y,+z
2 -y,x-y,+z
3 y-x,-x,+z
4 y-x,+y,+z
5 -y,-x,+z
6 +x,x-y,+z
-1 -x,-y,-z
-2 +y,y-x,-z
-3 x-y,+x,-z
-4 x-y,-y,-z
-5 +y,+x,-z
-6 -x,y-x,-z
loop_
_atom_site_aniso_label
_atom_site_aniso_U_11
_atom_site_aniso_U_12
_atom_site_aniso_U_13
_atom_site_aniso_U_22
_atom_site_aniso_U_23
_atom_site_aniso_U_33
Ca 0.0121(11) 0.0060(5) 0.0 0.0121(11) 0.0 0.0174(25)
Li 0.031(4) 0.0153(19) 0.0 0.031(4) 0.0 0.035(7)
N 0.0138(5) 0.00688(23 0.0 0.0138(5) 0.0 0.0082(7)
D 0.070(4) 0.0350(18) 0.0186(29) 0.084(4) 0.0093(14) 0.063(5)
loop_
_atom_site_type_symbol
_atom_site_label
_atom_site_fract_x
_atom_site_fract_y
_atom_site_fract_z
_atom_site_occupancy
_atom_site_thermal_displace_type
_atom_site_U_iso_or_equiv
_atom_site_symmetry_multiplicity
Ca Ca 0.0 0.0 0.0 1.0 Uani 0.01384 1
Li Li 0.3333 0.6667 0.6370(1) 0.86(4) Uani 0.03214 2
N N 0.3333 0.6667 0.2496(2) 1.0 Uani 0.0119 2
D D 0.0998(2) 0.5499(1) 0.3190(1) 0.34(1) Uani 0.07379 6
loop_
_atom_type_symbol
_atom_type_scat_length_neutron
_atom_type_scat_source
Ca 0.4700 International_Tables_Vol_C
Li -0.1900 International_Tables_Vol_C
N 0.9360 International_Tables_Vol_C
D 0.6674 International_Tables_Vol_C
loop_
_geom_angle_atom_site_label_1
_geom_angle_atom_site_label_2
_geom_angle_atom_site_label_3
_geom_angle
_geom_angle_site_symmetry_1
_geom_angle_site_symmetry_3
_geom_angle_publ_flag
Ca Ca Ca 60.0 1_445 1_455 n
Ca Ca Ca 60.0 1_445 1_545 n
Ca Ca Ca 120.0 1_445 1_565 n
Ca Ca Ca 120.0 1_445 1_655 n
Ca Ca Ca 180.0 1_445 1_665 n
Ca Ca Li 53.29(9) 1_445 1_444 n
Ca Ca Li 90.0 1_445 1_544 n
Ca Ca Li 126.71(9) 1_445 1_554 n
Ca Ca Li 53.29(9) 1_445 -1_556 n
Ca Ca Li 90.0 1_445 -1_566 n
Ca Ca Li 126.71(9) 1_445 -1_666 n
Ca Ca N 45.37(5) 1_445 1_445 n
Ca Ca N 90.0 1_445 1_545 n
Ca Ca N 134.63(5) 1_445 1_555 n
Ca Ca N 45.37(5) 1_445 -1_555 n
Ca Ca N 90.0 1_445 -1_565 n
Ca Ca N 134.63(5) 1_445 -1_665 n
Ca Ca D 76.22(15) 1_445 1_545 n
Ca Ca D 116.23(17) 1_445 1_555 n
Ca Ca D 47.14(9) 1_445 2_555 n
Ca Ca D 132.86(9) 1_445 2_665 n
Ca Ca D 63.77(17) 1_445 3_455 n
Ca Ca D 103.78(15) 1_445 3_555 n
Ca Ca D 63.77(17) 1_445 -1_555 n
Ca Ca Ca 120.0 1_455 1_545 n
Ca Ca Ca 60.0 1_455 1_565 n
Ca Ca Ca 180.0 1_455 1_655 n
Ca Ca Ca 120.0 1_455 1_665 n
Ca Ca Li 53.29(9) 1_455 1_444 n
Ca Ca Li 126.71(9) 1_455 1_544 n
Ca Ca Li 89.9966 1_455 1_554 n
Ca Ca Li 90.0034 1_455 -1_556 n
Ca Ca Li 53.29(9) 1_455 -1_566 n
Ca Ca Li 126.71(9) 1_455 -1_666 n
Ca Ca N 45.36(5) 1_455 1_445 n
Ca Ca N 134.63(5) 1_455 1_545 n
Ca Ca N 89.996 1_455 1_555 n
Ca Ca N 90.004 1_455 -1_555 n
Ca Ca N 45.37(5) 1_455 -1_565 n
Ca Ca N 134.64(5) 1_455 -1_665 n
Ca Ca D 116.23(17) 1_455 1_545 n
Ca Ca D 76.22(15) 1_455 1_555 n
Ca Ca D 63.77(17) 1_455 2_555 n
Ca Ca D 103.78(15) 1_455 2_665 n
Ca Ca D 47.14(9) 1_455 3_455 n
Ca Ca D 132.86(9) 1_455 3_555 n
Ca Ca D 103.78(15) 1_455 -1_555 n
Ca Ca Ca 180.0 1_545 1_565 n
Ca Ca Ca 60.0 1_545 1_655 n
Ca Ca Ca 120.0 1_545 1_665 n
Ca Ca Li 90.0034 1_545 1_444 n
Ca Ca Li 53.29(9) 1_545 1_544 n
Ca Ca Li 126.71(9) 1_545 1_554 n
Ca Ca Li 53.29(9) 1_545 -1_556 n
Ca Ca Li 126.71(9) 1_545 -1_566 n
Ca Ca Li 89.9966 1_545 -1_666 n
Ca Ca N 90.004 1_545 1_445 n
Ca Ca N 45.37(5) 1_545 1_545 n
Ca Ca N 134.64(5) 1_545 1_555 n
Ca Ca N 45.36(5) 1_545 -1_555 n
Ca Ca N 134.63(5) 1_545 -1_565 n
Ca Ca N 89.996 1_545 -1_665 n
Ca Ca D 47.14(9) 1_545 1_545 n
Ca Ca D 132.86(9) 1_545 1_555 n
Ca Ca D 76.22(15) 1_545 2_555 n
Ca Ca D 116.23(17) 1_545 2_665 n
Ca Ca D 103.78(15) 1_545 3_455 n
Ca Ca D 63.77(17) 1_545 3_555 n
Ca Ca D 47.14(9) 1_545 -1_555 n
Ca Ca Ca 120.0 1_565 1_655 n
Ca Ca Ca 60.0 1_565 1_665 n
Ca Ca Li 89.9966 1_565 1_444 n
Ca Ca Li 126.71(9) 1_565 1_544 n
Ca Ca Li 53.29(9) 1_565 1_554 n
Ca Ca Li 126.71(9) 1_565 -1_556 n
Ca Ca Li 53.29(9) 1_565 -1_566 n
Ca Ca Li 90.0034 1_565 -1_666 n
Ca Ca N 89.996 1_565 1_445 n
Ca Ca N 134.63(5) 1_565 1_545 n
Ca Ca N 45.36(5) 1_565 1_555 n
Ca Ca N 134.64(5) 1_565 -1_555 n
Ca Ca N 45.37(5) 1_565 -1_565 n
Ca Ca N 90.004 1_565 -1_665 n
Ca Ca D 132.86(9) 1_565 1_545 n
Ca Ca D 47.14(9) 1_565 1_555 n
Ca Ca D 103.78(15) 1_565 2_555 n
Ca Ca D 63.77(17) 1_565 2_665 n
Ca Ca D 76.22(15) 1_565 3_455 n
Ca Ca D 116.23(17) 1_565 3_555 n
Ca Ca D 132.86(9) 1_565 -1_555 n
Ca Ca Ca 60.0 1_655 1_665 n
Ca Ca Li 126.71(9) 1_655 1_444 n
Ca Ca Li 53.29(9) 1_655 1_544 n
Ca Ca Li 90.0034 1_655 1_554 n
Ca Ca Li 89.9966 1_655 -1_556 n
Ca Ca Li 126.71(9) 1_655 -1_566 n
Ca Ca Li 53.29(9) 1_655 -1_666 n
Ca Ca N 134.64(5) 1_655 1_445 n
Ca Ca N 45.37(5) 1_655 1_545 n
Ca Ca N 90.004 1_655 1_555 n
Ca Ca N 89.996 1_655 -1_555 n
Ca Ca N 134.63(5) 1_655 -1_565 n
Ca Ca N 45.36(5) 1_655 -1_665 n
Ca Ca D 63.77(17) 1_655 1_545 n
Ca Ca D 103.78(15) 1_655 1_555 n
Ca Ca D 116.23(17) 1_655 2_555 n
Ca Ca D 76.22(15) 1_655 2_665 n
Ca Ca D 132.86(9) 1_655 3_455 n
Ca Ca D 47.14(9) 1_655 3_555 n
Ca Ca D 76.22(15) 1_655 -1_555 n
Ca Ca Li 126.71(9) 1_665 1_444 n
Ca Ca Li 90.0 1_665 1_544 n
Ca Ca Li 53.29(9) 1_665 1_554 n
Ca Ca Li 126.71(9) 1_665 -1_556 n
Ca Ca Li 90.0 1_665 -1_566 n
Ca Ca Li 53.29(9) 1_665 -1_666 n
Ca Ca N 134.63(5) 1_665 1_445 n
Ca Ca N 90.0 1_665 1_545 n
Ca Ca N 45.37(5) 1_665 1_555 n
Ca Ca N 134.63(5) 1_665 -1_555 n
Ca Ca N 90.0 1_665 -1_565 n
Ca Ca N 45.37(5) 1_665 -1_665 n
Ca Ca D 103.78(15) 1_665 1_545 n
Ca Ca D 63.77(17) 1_665 1_555 n
Ca Ca D 132.86(9) 1_665 2_555 n
Ca Ca D 47.14(9) 1_665 2_665 n
Ca Ca D 116.23(17) 1_665 3_455 n
Ca Ca D 76.22(15) 1_665 3_555 n
Ca Ca D 116.23(17) 1_665 -1_555 n
Li Ca Li 73.42(18) 1_444 1_544 n
Li Ca Li 73.42(18) 1_444 1_554 n
Li Ca Li 106.58(18) 1_444 -1_556 n
Li Ca Li 106.58(18) 1_444 -1_566 n
Li Ca Li 180.0 1_444 -1_666 n
Li Ca N 82.13(12) 1_444 1_445 n
Li Ca N 134.68(4) 1_444 1_545 n
Li Ca N 134.67(4) 1_444 1_555 n
Li Ca N 45.33(4) 1_444 -1_555 n
Li Ca N 45.32(4) 1_444 -1_565 n
Li Ca N 97.87(12) 1_444 -1_665 n
Li Ca D 127.21(14) 1_444 1_545 n
Li Ca D 127.20(14) 1_444 1_555 n
Li Ca D 94.38(17) 1_444 2_555 n
Li Ca D 152.81(18) 1_444 2_665 n
Li Ca D 94.38(17) 1_444 3_455 n
Li Ca D 152.82(18) 1_444 3_555 n
Li Ca D 52.80(14) 1_444 -1_555 n
Li Ca Li 73.42(18) 1_544 1_554 n
Li Ca Li 106.58(18) 1_544 -1_556 n
Li Ca Li 180.0 1_544 -1_566 n
Li Ca Li 106.58(18) 1_544 -1_666 n
Li Ca N 134.68(4) 1_544 1_445 n
Li Ca N 82.14(12) 1_544 1_545 n
Li Ca N 134.68(4) 1_544 1_555 n
Li Ca N 45.32(4) 1_544 -1_555 n
Li Ca N 97.86(12) 1_544 -1_565 n
Li Ca N 45.32(4) 1_544 -1_665 n
Li Ca D 94.38(17) 1_544 1_545 n
Li Ca D 152.82(18) 1_544 1_555 n
Li Ca D 127.21(14) 1_544 2_555 n
Li Ca D 127.21(14) 1_544 2_665 n
Li Ca D 152.82(18) 1_544 3_455 n
Li Ca D 94.38(17) 1_544 3_555 n
Li Ca D 27.18(18) 1_544 -1_555 n
Li Ca Li 179.9802 1_554 -1_556 n
Li Ca Li 106.58(18) 1_554 -1_566 n
Li Ca Li 106.58(18) 1_554 -1_666 n
Li Ca N 134.67(4) 1_554 1_445 n
Li Ca N 134.68(4) 1_554 1_545 n
Li Ca N 82.13(12) 1_554 1_555 n
Li Ca N 97.87(12) 1_554 -1_555 n
Li Ca N 45.32(4) 1_554 -1_565 n
Li Ca N 45.33(4) 1_554 -1_665 n
Li Ca D 152.82(18) 1_554 1_545 n
Li Ca D 94.38(17) 1_554 1_555 n
Li Ca D 152.81(18) 1_554 2_555 n
Li Ca D 94.38(17) 1_554 2_665 n
Li Ca D 127.20(14) 1_554 3_455 n
Li Ca D 127.21(14) 1_554 3_555 n
Li Ca D 85.62(17) 1_554 -1_555 n
Li Ca Li 73.42(18) -1_556 -1_566 n
Li Ca Li 73.42(18) -1_556 -1_666 n
Li Ca N 45.33(4) -1_556 1_445 n
Li Ca N 45.32(4) -1_556 1_545 n
Li Ca N 97.87(12) -1_556 1_555 n
Li Ca N 82.13(12) -1_556 -1_555 n
Li Ca N 134.68(4) -1_556 -1_565 n
Li Ca N 134.67(4) -1_556 -1_665 n
Li Ca D 27.18(18) -1_556 1_545 n
Li Ca D 85.62(17) -1_556 1_555 n
Li Ca D 27.19(18) -1_556 2_555 n
Li Ca D 85.62(17) -1_556 2_665 n
Li Ca D 52.80(14) -1_556 3_455 n
Li Ca D 52.79(14) -1_556 3_555 n
Li Ca D 94.38(17) -1_556 -1_555 n
Li Ca Li 73.42(18) -1_566 -1_666 n
Li Ca N 45.32(4) -1_566 1_445 n
Li Ca N 97.86(12) -1_566 1_545 n
Li Ca N 45.32(4) -1_566 1_555 n
Li Ca N 134.68(4) -1_566 -1_555 n
Li Ca N 82.14(12) -1_566 -1_565 n
Li Ca N 134.68(4) -1_566 -1_665 n
Li Ca D 85.62(17) -1_566 1_545 n
Li Ca D 27.18(18) -1_566 1_555 n
Li Ca D 52.79(14) -1_566 2_555 n
Li Ca D 52.79(14) -1_566 2_665 n
Li Ca D 27.18(18) -1_566 3_455 n
Li Ca D 85.62(17) -1_566 3_555 n
Li Ca D 152.82(18) -1_566 -1_555 n
Li Ca N 97.87(12) -1_666 1_445 n
Li Ca N 45.32(4) -1_666 1_545 n
Li Ca N 45.33(4) -1_666 1_555 n
Li Ca N 134.67(4) -1_666 -1_555 n
Li Ca N 134.68(4) -1_666 -1_565 n
Li Ca N 82.13(12) -1_666 -1_665 n
Li Ca D 52.79(14) -1_666 1_545 n
Li Ca D 52.80(14) -1_666 1_555 n
Li Ca D 85.62(17) -1_666 2_555 n
Li Ca D 27.19(18) -1_666 2_665 n
Li Ca D 85.62(17) -1_666 3_455 n
Li Ca D 27.18(18) -1_666 3_555 n
Li Ca D 127.20(14) -1_666 -1_555 n
N Ca N 89.27(10) 1_445 1_545 n
N Ca N 89.26(10) 1_445 1_555 n
N Ca N 90.74(10) 1_445 -1_555 n
N Ca N 90.73(10) 1_445 -1_565 n
N Ca N 180.0 1_445 -1_665 n
N Ca D 70.87(20) 1_445 1_545 n
N Ca D 70.87(20) 1_445 1_555 n
N Ca D 18.45(16) 1_445 2_555 n
N Ca D 90.41(10) 1_445 2_665 n
N Ca D 18.44(16) 1_445 3_455 n
N Ca D 90.41(10) 1_445 3_555 n
N Ca D 109.13(20) 1_445 -1_555 n
N Ca N 89.27(10) 1_545 1_555 n
N Ca N 90.73(10) 1_545 -1_555 n
N Ca N 179.9802 1_545 -1_565 n
N Ca N 90.73(10) 1_545 -1_665 n
N Ca D 18.44(16) 1_545 1_545 n
N Ca D 90.40(10) 1_545 1_555 n
N Ca D 70.87(20) 1_545 2_555 n
N Ca D 70.87(20) 1_545 2_665 n
N Ca D 90.40(10) 1_545 3_455 n
N Ca D 18.44(16) 1_545 3_555 n
N Ca D 89.60(10) 1_545 -1_555 n
N Ca N 179.972 1_555 -1_555 n
N Ca N 90.73(10) 1_555 -1_565 n
N Ca N 90.74(10) 1_555 -1_665 n
N Ca D 90.41(10) 1_555 1_545 n
N Ca D 18.44(16) 1_555 1_555 n
N Ca D 90.41(10) 1_555 2_555 n
N Ca D 18.45(16) 1_555 2_665 n
N Ca D 70.87(20) 1_555 3_455 n
N Ca D 70.87(20) 1_555 3_555 n
N Ca D 161.56(16) 1_555 -1_555 n
N Ca N 89.27(10) -1_555 -1_565 n
N Ca N 89.26(10) -1_555 -1_665 n
N Ca D 89.59(10) -1_555 1_545 n
N Ca D 161.56(16) -1_555 1_555 n
N Ca D 89.59(10) -1_555 2_555 n
N Ca D 161.55(16) -1_555 2_665 n
N Ca D 109.13(20) -1_555 3_455 n
N Ca D 109.13(20) -1_555 3_555 n
N Ca D 18.44(16) -1_555 -1_555 n
N Ca N 89.27(10) -1_565 -1_665 n
N Ca D 161.56(16) -1_565 1_545 n
N Ca D 89.60(10) -1_565 1_555 n
N Ca D 109.13(20) -1_565 2_555 n
N Ca D 109.13(20) -1_565 2_665 n
N Ca D 89.60(10) -1_565 3_455 n
N Ca D 161.56(16) -1_565 3_555 n
N Ca D 90.40(10) -1_565 -1_555 n
N Ca D 109.13(20) -1_665 1_545 n
N Ca D 109.13(20) -1_665 1_555 n
N Ca D 161.55(16) -1_665 2_555 n
N Ca D 89.59(10) -1_665 2_665 n
N Ca D 161.56(16) -1_665 3_455 n
N Ca D 89.59(10) -1_665 3_555 n
N Ca D 70.87(20) -1_665 -1_555 n
D Ca D 85.71(18) 1_545 1_555 n
D Ca D 52.45(35) 1_545 2_555 n
D Ca D 73.42(17) 1_545 2_665 n
D Ca D 73.42(17) 1_545 3_455 n
D Ca D 27.57(30) 1_545 3_555 n
D Ca D 94.28(18) 1_545 -1_555 n
D Ca D 73.42(17) 1_555 2_555 n
D Ca D 27.57(30) 1_555 2_665 n
D Ca D 52.45(35) 1_555 3_455 n
D Ca D 73.42(17) 1_555 3_555 n
D Ca D 180.0 1_555 -1_555 n
D Ca D 85.71(18) 2_555 2_665 n
D Ca D 27.57(30) 2_555 3_455 n
D Ca D 73.42(17) 2_555 3_555 n
D Ca D 106.58(17) 2_555 -1_555 n
D Ca D 73.42(17) 2_665 3_455 n
D Ca D 52.45(35) 2_665 3_555 n
D Ca D 152.43(30) 2_665 -1_555 n
D Ca D 85.71(18) 3_455 3_555 n
D Ca D 127.55(35) 3_455 -1_555 n
D Ca D 106.58(17) 3_555 -1_555 n
Ca Li Ca 73.42(18) 1_556 1_566 n
Ca Li Ca 73.42(18) 1_556 1_666 n
Ca Li Li 100.27(16) 1_556 -1_566 n
Ca Li Li 100.26(16) 1_556 -1_666 n
Ca Li Li 172.0(4) 1_556 -1_676 n
Ca Li N 136.35(12) 1_556 1_555 n
Ca Li N 56.41(17) 1_556 -1_566 n
Ca Li N 56.41(17) 1_556 -1_666 n
Ca Li N 115.5(4) 1_556 -1_676 n
Ca Li D 123.57(17) 1_556 1_555 n
Ca Li D 123.57(17) 1_556 2_665 n
Ca Li D 157.23(30) 1_556 3_565 n
Ca Li D 61.47(30) 1_556 -1_566 n
Ca Li D 61.47(30) 1_556 -2_556 n
Ca Li D 122.6(5) 1_556 -3_666 n
Ca Li Ca 73.42(18) 1_566 1_666 n
Ca Li Li 100.28(16) 1_566 -1_566 n
Ca Li Li 172.0(4) 1_566 -1_666 n
Ca Li Li 100.28(16) 1_566 -1_676 n
Ca Li N 136.35(12) 1_566 1_555 n
Ca Li N 56.42(17) 1_566 -1_566 n
Ca Li N 115.5(4) 1_566 -1_666 n
Ca Li N 56.42(17) 1_566 -1_676 n
Ca Li D 123.58(17) 1_566 1_555 n
Ca Li D 157.24(30) 1_566 2_665 n
Ca Li D 123.58(17) 1_566 3_565 n
Ca Li D 61.48(30) 1_566 -1_566 n
Ca Li D 122.6(5) 1_566 -2_556 n
Ca Li D 61.48(30) 1_566 -3_666 n
Ca Li Li 172.0(4) 1_666 -1_566 n
Ca Li Li 100.26(16) 1_666 -1_666 n
Ca Li Li 100.27(16) 1_666 -1_676 n
Ca Li N 136.35(12) 1_666 1_555 n
Ca Li N 115.5(4) 1_666 -1_566 n
Ca Li N 56.41(17) 1_666 -1_666 n
Ca Li N 56.41(17) 1_666 -1_676 n
Ca Li D 157.23(30) 1_666 1_555 n
Ca Li D 123.57(17) 1_666 2_665 n
Ca Li D 123.57(17) 1_666 3_565 n
Ca Li D 122.6(5) 1_666 -1_566 n
Ca Li D 61.47(30) 1_666 -2_556 n
Ca Li D 61.47(30) 1_666 -3_666 n
Li Li Li 85.5(4) -1_566 -1_666 n
Li Li Li 85.6(4) -1_566 -1_676 n
Li Li N 51.64(30) -1_566 1_555 n
Li Li N 56.49(11) -1_566 -1_566 n
Li Li N 124.44(17) -1_566 -1_666 n
Li Li N 124.47(17) -1_566 -1_676 n
Li Li D 30.77(32) -1_566 1_555 n
Li Li D 63.9(4) -1_566 2_665 n
Li Li D 63.9(4) -1_566 3_565 n
Li Li D 49.42(26) -1_566 -1_566 n
Li Li D 120.25(32) -1_566 -2_556 n
Li Li D 120.27(32) -1_566 -3_666 n
Li Li Li 85.5(4) -1_666 -1_676 n
Li Li N 51.65(30) -1_666 1_555 n
Li Li N 124.45(17) -1_666 -1_566 n
Li Li N 56.48(11) -1_666 -1_666 n
Li Li N 124.45(17) -1_666 -1_676 n
Li Li D 63.9(4) -1_666 1_555 n
Li Li D 30.77(32) -1_666 2_665 n
Li Li D 63.9(4) -1_666 3_565 n
Li Li D 120.25(32) -1_666 -1_566 n
Li Li D 49.41(26) -1_666 -2_556 n
Li Li D 120.25(32) -1_666 -3_666 n
Li Li N 51.64(30) -1_676 1_555 n
Li Li N 124.47(17) -1_676 -1_566 n
Li Li N 124.44(17) -1_676 -1_666 n
Li Li N 56.49(11) -1_676 -1_676 n
Li Li D 63.9(4) -1_676 1_555 n
Li Li D 63.9(4) -1_676 2_665 n
Li Li D 30.77(32) -1_676 3_565 n
Li Li D 120.27(32) -1_676 -1_566 n
Li Li D 120.25(32) -1_676 -2_556 n
Li Li D 49.42(26) -1_676 -3_666 n
N Li N 108.13(26) 1_555 -1_566 n
N Li N 108.13(26) 1_555 -1_666 n
N Li N 108.13(26) 1_555 -1_676 n
N Li D 20.88(25) 1_555 1_555 n
N Li D 20.89(25) 1_555 2_665 n
N Li D 20.88(25) 1_555 3_565 n
N Li D 101.1(4) 1_555 -1_566 n
N Li D 101.1(4) 1_555 -2_556 n
N Li D 101.1(4) 1_555 -3_666 n
N Li N 110.77(25) -1_566 -1_666 n
N Li N 110.79(25) -1_566 -1_676 n
N Li D 87.26(33) -1_566 1_555 n
N Li D 117.40(28) -1_566 2_665 n
N Li D 117.41(28) -1_566 3_565 n
N Li D 7.07(28) -1_566 -1_566 n
N Li D 113.99(28) -1_566 -2_556 n
N Li D 114.01(28) -1_566 -3_666 n
N Li N 110.77(25) -1_666 -1_676 n
N Li D 117.39(28) -1_666 1_555 n
N Li D 87.24(33) -1_666 2_665 n
N Li D 117.39(28) -1_666 3_565 n
N Li D 113.99(28) -1_666 -1_566 n
N Li D 7.07(28) -1_666 -2_556 n
N Li D 113.99(28) -1_666 -3_666 n
N Li D 117.41(28) -1_676 1_555 n
N Li D 117.40(28) -1_676 2_665 n
N Li D 87.26(33) -1_676 3_565 n
N Li D 114.01(28) -1_676 -1_566 n
N Li D 113.99(28) -1_676 -2_556 n
N Li D 7.07(28) -1_676 -3_666 n
D Li D 36.0(4) 1_555 2_665 n
D Li D 36.0(4) 1_555 3_565 n
D Li D 80.2(5) 1_555 -1_566 n
D Li D 110.7(4) 1_555 -2_556 n
D Li D 110.7(4) 1_555 -3_666 n
D Li D 36.0(4) 2_665 3_565 n
D Li D 110.7(4) 2_665 -1_566 n
D Li D 80.2(5) 2_665 -2_556 n
D Li D 110.7(4) 2_665 -3_666 n
D Li D 110.7(4) 3_565 -1_566 n
D Li D 110.7(4) 3_565 -2_556 n
D Li D 80.2(5) 3_565 -3_666 n
D Li D 116.40(28) -1_566 -2_556 n
D Li D 116.42(28) -1_566 -3_666 n
D Li D 116.40(28) -2_556 -3_666 n
Ca N Ca 89.27(10) 1_555 1_565 n
Ca N Ca 89.26(10) 1_555 1_665 n
Ca N Li 125.78(7) 1_555 1_555 n
Ca N Li 78.26(17) 1_555 -1_566 n
Ca N Li 78.25(17) 1_555 -1_666 n
Ca N Li 162.35(31) 1_555 -1_676 n
Ca N D 86.46(30) 1_555 1_555 n
Ca N D 86.46(30) 1_555 2_665 n
Ca N D 174.0(5) 1_555 3_565 n
Ca N Ca 89.27(10) 1_565 1_665 n
Ca N Li 125.79(7) 1_565 1_555 n
Ca N Li 78.27(17) 1_565 -1_566 n
Ca N Li 162.34(31) 1_565 -1_666 n
Ca N Li 78.27(17) 1_565 -1_676 n
Ca N D 86.48(30) 1_565 1_555 n
Ca N D 174.0(5) 1_565 2_665 n
Ca N D 86.48(30) 1_565 3_565 n
Ca N Li 125.78(7) 1_665 1_555 n
Ca N Li 162.35(31) 1_665 -1_566 n
Ca N Li 78.25(17) 1_665 -1_666 n
Ca N Li 78.26(17) 1_665 -1_676 n
Ca N D 174.0(5) 1_665 1_555 n
Ca N D 86.46(30) 1_665 2_665 n
Ca N D 86.46(30) 1_665 3_565 n
Li N Li 71.87(26) 1_555 -1_566 n
Li N Li 71.87(26) 1_555 -1_666 n
Li N Li 71.87(26) 1_555 -1_676 n
Li N D 60.2(5) 1_555 1_555 n
Li N D 60.2(5) 1_555 2_665 n
Li N D 60.2(5) 1_555 3_565 n
Li N Li 110.77(25) -1_566 -1_666 n
Li N Li 110.79(25) -1_566 -1_676 n
Li N D 11.7(4) -1_566 1_555 n
Li N D 104.93(33) -1_566 2_665 n
Li N D 104.95(33) -1_566 3_565 n
Li N Li 110.77(25) -1_666 -1_676 n
Li N D 104.93(33) -1_666 1_555 n
Li N D 11.6(4) -1_666 2_665 n
Li N D 104.93(33) -1_666 3_565 n
Li N D 104.95(33) -1_676 1_555 n
Li N D 104.94(33) -1_676 2_665 n
Li N D 11.7(4) -1_676 3_565 n
D N D 97.5(6) 1_555 2_665 n
D N D 97.5(6) 1_555 3_565 n
D N D 97.5(6) 2_665 3_565 n
Ca D Ca 85.71(18) 1_555 1_565 n
Ca D Li 135.89(11) 1_555 1_555 n
Ca D Li 91.34(34) 1_555 -1_566 n
Ca D N 75.09(31) 1_555 1_555 n
Ca D D 76.22(15) 1_555 2_665 n
Ca D D 116.23(17) 1_555 3_565 n
Ca D Li 135.88(11) 1_565 1_555 n
Ca D Li 91.35(34) 1_565 -1_566 n
Ca D N 75.07(31) 1_565 1_555 n
Ca D D 116.23(17) 1_565 2_665 n
Ca D D 76.22(15) 1_565 3_565 n
Li D Li 99.8(5) 1_555 -1_566 n
Li D N 98.9(6) 1_555 1_555 n
Li D D 72.02(21) 1_555 2_665 n
Li D D 72.02(21) 1_555 3_565 n
Li D N 161.3(7) -1_566 1_555 n
Li D D 148.20(14) -1_566 2_665 n
Li D D 148.21(14) -1_566 3_565 n
N D D 41.28(29) 1_555 2_665 n
N D D 41.26(29) 1_555 3_565 n
D D D 60.0 2_665 3_565 n
loop_
_geom_bond_atom_site_label_1
_geom_bond_atom_site_label_2
_geom_bond_distance
_geom_bond_site_symmetry_2
_geom_bond_publ_flag
Ca Ca 3.56787(7) 1_445 n
Ca Ca 3.56787(7) 1_455 n
Ca Ca 3.56787(7) 1_545 n
Ca Ca 3.56787(7) 1_565 n
Ca Ca 3.56787(7) 1_655 n
Ca Ca 3.56787(7) 1_665 n
Ca Li 2.984(6) 1_444 n
Ca Li 2.984(6) 1_544 n
Ca Li 2.984(6) 1_554 n
Ca Li 2.984(6) -1_556 n
Ca Li 2.984(6) -1_566 n
Ca Li 2.984(6) -1_666 n
Ca N 2.5393(21) 1_445 n
Ca N 2.5390(21) 1_545 n
Ca N 2.5393(21) 1_555 n
Ca N 2.5393(21) -1_555 n
Ca N 2.5390(21) -1_565 n
Ca N 2.5393(21) -1_665 n
Ca D 2.623(4) 1_545 n
Ca D 2.623(4) 1_555 n
Ca D 2.623(4) 2_555 n
Ca D 2.623(4) 2_665 n
Ca D 2.623(4) 3_455 n
Ca D 2.623(4) 3_555 n
Ca D 2.623(4) -1_555 n
Ca D 2.623(4) -1_565 n
Ca D 2.623(4) -2_445 n
Ca D 2.623(4) -2_555 n
Ca D 2.623(4) -3_555 n
Ca D 2.623(4) -3_655 n
Li Ca 2.984(6) 1_556 n
Li Ca 2.984(6) 1_566 n
Li Ca 2.984(6) 1_666 n
Li Li 2.627(11) -1_566 n
Li Li 2.627(11) -1_666 n
Li Li 2.627(11) -1_676 n
Li N 2.305(9) 1_555 n
Li N 2.1674(33) -1_566 n
Li N 2.1679(33) -1_666 n
Li N 2.1674(33) -1_676 n
Li D 2.024(10) 1_555 n
Li D 2.025(10) 2_665 n
Li D 2.024(10) 3_565 n
Li D 1.364(8) -1_566 n
Li D 2.514(5) -1_666 n
Li D 2.514(5) -1_676 n
Li D 2.514(5) -2_456 n
Li D 1.364(8) -2_556 n
Li D 2.514(5) -2_566 n
Li D 2.514(5) -3_556 n
Li D 2.514(5) -3_656 n
Li D 1.364(8) -3_666 n
N Ca 2.5393(21) 1_555 n
N Ca 2.5390(21) 1_565 n
N Ca 2.5393(21) 1_665 n
N Li 2.305(9) 1_555 n
N Li 2.1674(33) -1_566 n
N Li 2.1679(33) -1_666 n
N Li 2.1674(33) -1_676 n
N D 0.831(8) 1_555 n
N D 0.832(8) 2_665 n
N D 0.831(8) 3_565 n
D Ca 2.623(4) 1_555 n
D Ca 2.623(4) 1_565 n
D Li 2.024(10) 1_555 n
D Li 1.364(8) -1_566 n
D Li 2.514(5) -1_666 n
D Li 2.514(5) -1_676 n
D N 0.831(8) 1_555 n
D D 1.250(13) 2_665 n
D D 1.250(13) 3_565 n
loop_
_cod_changelog_entry_id
_cod_changelog_entry_author
_cod_changelog_entry_date
_cod_changelog_entry_text
1 'Vaitkus, Antanas' 2022-06-28T19:47:00+03:00
;
 Removed the '_chemical_name_systematic' data item that had an incorrect value.
;
