#------------------------------------------------------------------------------
#$Date: 2016-02-16 22:30:59 +0200 (Tue, 16 Feb 2016) $
#$Revision: 176467 $
#$URL: svn://www.crystallography.net/cod/cif/4/10/79/4107935.cif $
#------------------------------------------------------------------------------
#
# This file is available in the Crystallography Open Database (COD),
# http://www.crystallography.net/
#
# All data on this site have been placed in the public domain by the
# contributors.
#
data_4107935
loop_
_publ_author_name
'Houria Kabbour'
'Etienne Janod'
'Beno\^it Corraze'
'Michel Danot'
'Changhoon Lee'
'Myung-Hwan Whangbo'
'Laurent Cario'
_publ_section_title
;
 Structure and Magnetic Properties of Oxychalcogenides A2F2Fe2OQ2 (A = Sr,
 Ba; Q = S, Se) with Fe2O Square Planar Layers Representing an
 Antiferromagnetic Checkerboard Spin Lattice
;
_journal_name_full               'Journal of the American Chemical Society'
_journal_page_first              8261
_journal_page_last               8270
_journal_paper_doi               10.1021/ja711139g
_journal_volume                  130
_journal_year                    2008
_chemical_formula_sum            'Ba2 F2 Fe2 O S2'
_space_group_IT_number           139
_symmetry_cell_setting           tetragonal
_symmetry_space_group_name_Hall  '-I 4 2'
_symmetry_space_group_name_H-M   'I 4/m m m'
_cell_angle_alpha                90.00000
_cell_angle_beta                 90.00000
_cell_angle_gamma                90.00000
_cell_formula_units_Z            2
_cell_length_a                   4.12377(10)
_cell_length_b                   4.12377(10)
_cell_length_c                   19.0885(5)
_cell_volume                     324.609(14)
_computing_structure_refinement  FULLPROF
_diffrn_radiation_type           X-ray
_pd_meas_2theta_range_inc        0.030000
_pd_meas_2theta_range_max        109.96000
_pd_meas_2theta_range_min        10.00000
_pd_meas_number_of_points        3333
_pd_proc_2theta_range_inc        0.030000
_pd_proc_2theta_range_max        109.9600
_pd_proc_2theta_range_min        10.0000
_pd_proc_ls_prof_R_factor        2.1249
_pd_proc_ls_prof_wR_expected     2.0606
_pd_proc_ls_prof_wR_factor       2.8912
_pd_proc_wavelength              1.540590
_refine_ls_number_parameters     56
_refine_ls_number_reflns         182
_refine_ls_number_restraints     0
_refine_ls_R_I_factor            5.8218
_cod_data_source_file            ja711139g-file003.cif
_cod_data_source_block           phase_1
_cod_original_formula_sum        'F2 Fe2 O S2 Ba2'
_cod_database_code               4107935
#BEGIN Tags that were not found in dictionaries:
_pd_proc_ls_prof_cr_factor       19.9690
_pd_proc_ls_prof_cwr_factor      13.7512
_pd_proc_ls_prof_cwr_expected    9.8006
_pd_proc_ls_prof_chi2            1.9687
_pd_proc_ls_prof_echi2           2.0878
#END Tags that were not found in dictionaries
loop_
_symmetry_equiv_pos_as_xyz
x,y,z
-y,x,z
-x,-y,z
y,-x,z
-x,y,z
y,x,z
x,-y,z
-y,-x,z
-x,-y,-z
y,-x,-z
x,y,-z
-y,x,-z
x,-y,-z
-y,-x,-z
-x,y,-z
y,x,-z
x+1/2,y+1/2,z+1/2
-y+1/2,x+1/2,z+1/2
-x+1/2,-y+1/2,z+1/2
y+1/2,-x+1/2,z+1/2
-x+1/2,y+1/2,z+1/2
y+1/2,x+1/2,z+1/2
x+1/2,-y+1/2,z+1/2
-y+1/2,-x+1/2,z+1/2
-x+1/2,-y+1/2,-z+1/2
y+1/2,-x+1/2,-z+1/2
x+1/2,y+1/2,-z+1/2
-y+1/2,x+1/2,-z+1/2
x+1/2,-y+1/2,-z+1/2
-y+1/2,-x+1/2,-z+1/2
-x+1/2,y+1/2,-z+1/2
y+1/2,x+1/2,-z+1/2
loop_
_atom_site_label
_atom_site_fract_x
_atom_site_fract_y
_atom_site_fract_z
_atom_site_U_iso_or_equiv
_atom_site_occupancy
_atom_site_adp_type
_atom_site_type_symbol
Ba 0.50000 0.50000 0.16591(6) 0.0434(6) 1.00000 Uiso Ba
F 0.50000 0.00000 0.25000 0.040(4) 1.00000 Uiso F
Fe 0.50000 0.00000 0.00000 0.0397(12) 1.00000 Uiso Fe
S 0.00000 0.00000 0.0871(2) 0.0520(19) 1.00000 Uiso S
0 0.50000 0.50000 0.00000 0.012(4) 1.00000 Uiso O
loop_
_atom_type_symbol
_atom_type_scat_Cromer_Mann_a1
_atom_type_scat_Cromer_Mann_b1
_atom_type_scat_Cromer_Mann_a2
_atom_type_scat_Cromer_Mann_b2
_atom_type_scat_Cromer_Mann_a3
_atom_type_scat_Cromer_Mann_b3
_atom_type_scat_Cromer_Mann_a4
_atom_type_scat_Cromer_Mann_b4
_atom_type_scat_Cromer_Mann_c
_atom_type_scat_dispersion_real
_atom_type_scat_dispersion_imag
_atom_type_scat_source
ba 20.33610 3.21600 19.29700 0.27560 10.88800 20.20730 2.69590 167.20200
2.77310 -1.33400 8.46000
International_Tables_for_Crystallography_Vol.C(1991)_Tables_6.1.1.4_and_6.1.1.5
f 3.53920 10.28250 2.64120 4.29440 1.51700 0.26150 1.02430 26.14760 0.27760
0.06900 0.05300
International_Tables_for_Crystallography_Vol.C(1991)_Tables_6.1.1.4_and_6.1.1.5
fe 11.76950 4.76110 7.35730 0.30720 3.52220 15.35350 2.30450 76.88050 1.03690
-1.17900 3.20400
International_Tables_for_Crystallography_Vol.C(1991)_Tables_6.1.1.4_and_6.1.1.5
s 6.90530 1.46790 5.20340 22.21510 1.43790 0.25360 1.58630 56.17200 0.86690
0.31900 0.55700
International_Tables_for_Crystallography_Vol.C(1991)_Tables_6.1.1.4_and_6.1.1.5
o 3.04850 13.27710 2.28680 5.70110 1.54630 0.32390 0.86700 32.90890 0.25080
0.04700 0.03200
International_Tables_for_Crystallography_Vol.C(1991)_Tables_6.1.1.4_and_6.1.1.5
