#------------------------------------------------------------------------------
#$Date: 2016-03-21 19:17:11 +0200 (Mon, 21 Mar 2016) $
#$Revision: 178843 $
#$URL: svn://www.crystallography.net/cod/cif/4/10/97/4109719.cif $
#------------------------------------------------------------------------------
#
# This file is available in the Crystallography Open Database (COD),
# http://www.crystallography.net/
#
# All data on this site have been placed in the public domain by the
# contributors.
#
data_4109719
loop_
_publ_author_name
'Benjamin Rohrmoser'
'Georg Eickerling'
'Manuel Presnitz'
'Wolfgang Scherer'
'Volker Eyert'
'Rolf-Dieter Hoffmann'
'Ute Ch. Rodewald'
'Christian Vogt'
'Rainer P\"ottgen'
_publ_contact_author_address
;
 Chemische Physik und Materialwissenschaften
 Universit\"at Augsburg
 D-86159 Augsburg (Germany)

;
_publ_contact_author_email       wolfgang.scherer@physik.uni-augsburg.de
_publ_contact_author_fax         +49(821)5983227
_publ_contact_author_name
;
 Prof. W. Scherer
;
_publ_contact_author_phone       +49(821)5983350
_publ_section_title
;
 Experimental Electron Density of the Complex Carbides Sc3[Fe(C2)2] and
 Sc3[Co(C2)2]
;
_journal_name_full               'Journal of the American Chemical Society'
_journal_page_first              9356
_journal_page_last               9365
_journal_paper_doi               10.1021/ja068137y
_journal_volume                  129
_journal_year                    2007
_chemical_compound_source        'see text'
_chemical_formula_moiety         'C4 Co Sc3'
_chemical_formula_sum            'C4 Co Sc3'
_chemical_formula_weight         241.85
_chemical_name_systematic
;
 ?
;
_space_group_IT_number           71
_symmetry_cell_setting           orthorhombic
_symmetry_space_group_name_Hall  '-I 2 2'
_symmetry_space_group_name_H-M   'I m m m'
_audit_creation_date             'Nov  7 14:47:30 2006'
_audit_creation_method           'PLATON <TABLE ACC> option''
_audit_update_record             ' ?'
_cell_angle_alpha                90
_cell_angle_beta                 90
_cell_angle_gamma                90
_cell_formula_units_Z            2
_cell_length_a                   3.3935(10)
_cell_length_b                   4.3687(10)
_cell_length_c                   11.9851(10)
_cell_measurement_reflns_used    6755
_cell_measurement_temperature    293(2)
_cell_volume                     177.68(7)
_computing_cell_refinement
;
;
_computing_data_collection
;
;
_computing_data_reduction
;
;
_computing_publication_material  'XD (Koritsanszky et al, 1995)'
_computing_structure_refinement  'XD (Koritsanszky et al, 1995)'
_diffrn_ambient_temperature      293(2)
_diffrn_measured_fraction_theta_full 1.0
_diffrn_measured_fraction_theta_max 1.0
_diffrn_measurement_device       'four-circle diffractometer'
_diffrn_measurement_device_type  CAD4
_diffrn_measurement_method       omega/2theta
_diffrn_radiation_monochromator  graphite
_diffrn_radiation_type           MoKa
_diffrn_radiation_wavelength     0.71073
_diffrn_reflns_av_R_equivalents  0.0312
_diffrn_reflns_av_sigmaI/netI    0.0153
_diffrn_reflns_limit_h_max       8
_diffrn_reflns_limit_h_min       -8
_diffrn_reflns_limit_k_max       11
_diffrn_reflns_limit_k_min       -11
_diffrn_reflns_limit_l_max       31
_diffrn_reflns_limit_l_min       -31
_diffrn_reflns_number            1013
_diffrn_reflns_reduction_process ' ?'
_diffrn_reflns_theta_full        69.90
_diffrn_reflns_theta_max         69.90
_diffrn_reflns_theta_min         3.40
_diffrn_standards_decay_%        0
_diffrn_standards_interval_count 0
_diffrn_standards_interval_time  7200s
_diffrn_standards_number         2
_exptl_absorpt_coefficient_mu    9.833
_exptl_absorpt_correction_T_max  0.780
_exptl_absorpt_correction_T_min  0.579
_exptl_absorpt_correction_type   numerical
_exptl_absorpt_process_details
;
Absorption correction was performed using 
 X-RED32, Vers. 1.10, X-SHAPE, Vers. 2.05
 program package for crystal shape refinement
 STOE & Cie GmbH, Darmstadt, Germany, 2004
;
_exptl_crystal_colour            'grey             '
_exptl_crystal_density_diffrn    4.521
_exptl_crystal_density_method    'Not Measured'
_exptl_crystal_description       'cuboid           '
_exptl_crystal_F_000             228
_exptl_crystal_size_max          0.090
_exptl_crystal_size_mid          0.045
_exptl_crystal_size_min          0.020
_refine_diff_density_max         0.286
_refine_diff_density_min         -0.246
_refine_diff_density_rms         0.053
_refine_ls_extinction_method     none
_refine_ls_goodness_of_fit_ref   1.1971
_refine_ls_matrix_type           full
_refine_ls_number_parameters     55
_refine_ls_number_reflns         910
_refine_ls_number_restraints     0
_refine_ls_R_factor_all          0.0214
_refine_ls_R_factor_gt           0.0122
_refine_ls_shift/su_max          0.0000
_refine_ls_structure_factor_coef F
_refine_ls_weighting_details
;
     calc w1 = 1/[s^2^(Fo)]
;
_refine_ls_weighting_scheme      calc
_refine_ls_wR_factor_ref         0.0081
_reflns_number_gt                910
_reflns_number_total             1013
_reflns_threshold_expression     I>3\s(I)
_cod_data_source_file            ja068137ysi20061114_093317.cif
_cod_data_source_block           global
_cod_database_code               4109719
loop_
_symmetry_equiv_pos_site_id
_symmetry_equiv_pos_as_xyz
1 +X,+Y,+Z
2 -X,-Y,+Z
3 -X,+Y,-Z
4 +X,-Y,-Z
5 -X,-Y,-Z
6 +X,+Y,-Z
7 +X,-Y,+Z
8 -X,+Y,+Z
9 1/2+X,1/2+Y,1/2+Z
10 1/2-X,1/2-Y,1/2-Z
11 1/2-X,1/2-Y,1/2+Z
12 1/2+X,1/2+Y,1/2-Z
13 1/2-X,1/2+Y,1/2-Z
14 1/2+X,1/2-Y,1/2+Z
15 1/2+X,1/2-Y,1/2-Z
16 1/2-X,1/2+Y,1/2+Z
loop_
_atom_site_aniso_label
_atom_site_aniso_U_11
_atom_site_aniso_U_22
_atom_site_aniso_U_33
_atom_site_aniso_U_12
_atom_site_aniso_U_13
_atom_site_aniso_U_23
CO 0.00636(6) 0.00318(5) 0.00306(5) 0.00000 0.00000 0.00000
SC(1) 0.00369(4) 0.00399(4) 0.00395(4) 0.00000 0.00000 0.00000
SC(2) 0.00385(3) 0.00338(3) 0.00353(3) 0.00000 0.00000 0.00000
C 0.0055(1) 0.0041(1) 0.0044(1) 0.0000 0.0000 0.0003(1)
loop_
_atom_site_label
_atom_site_fract_x
_atom_site_fract_y
_atom_site_fract_z
_atom_site_occupancy
_atom_site_U_iso_or_equiv
CO 0.500 0.00000 0.00000 1 0.004
SC(1) 0.000 0.50000 0.00000 1 0.004
SC(2) 0.500 0.500000 0.311958(8) 1 0.004
C 0.500 0.3336(1) 0.1248(0) 1 0.005
loop_
_atom_type_symbol
_atom_type_description
_atom_type_scat_dispersion_real
_atom_type_scat_dispersion_imag
_atom_type_scat_source
Sc Sc 0.2520 0.3720
;
For all atoms both the core and the valence scattering function
were calculated from Hartree-Fock atomic wavefunctions. The deformation density
was described by a multipole model in terms of spherical harmonics multiplied
by Slater-type radial functions.
E. Clementi, D. L. Raimondi, J. Chem Phys. 1963, 38, 2686.
;
Co Co 0.3494 0.9721
;
For all atoms both the core and the valence scattering function
were calculated from Hartree-Fock atomic wavefunctions. The deformation density
was described by a multipole model in terms of spherical harmonics multiplied
by Slater-type radial functions.
E. Clementi, D. L. Raimondi, J. Chem Phys. 1963, 38, 2686.
;
C C 0.0030 0.0020
;
For all atoms both the core and the valence scattering function
were calculated from Hartree-Fock atomic wavefunctions. The deformation density
was described by a multipole model in terms of spherical harmonics multiplied
by Slater-type radial functions.
E. Clementi, D. L. Raimondi, J. Chem Phys. 1963, 38, 2686.
;
loop_
_geom_angle_atom_site_label_1
_geom_angle_atom_site_label_2
_geom_angle_atom_site_label_3
_geom_angle
_geom_angle_site_symmetry_1
_geom_angle_site_symmetry_2
_geom_angle_site_symmetry_3
_geom_angle_publ_flag
C CO C 88.50(2) 1_555 1_555 2_655 yes
C CO C 91.50(2) 1_555 1_555 3_655 yes
loop_
_geom_bond_atom_site_label_1
_geom_bond_atom_site_label_2
_geom_bond_distance
_geom_bond_site_symmetry_1
_geom_bond_site_symmetry_2
_geom_bond_publ_flag
C C 1.4539(8) 1_555 2_665 yes
SC(1) C 2.3761(3) 1_555 8_555 yes
SC(2) C 2.3576(4) 1_555 1_555 yes
CO C 2.0886(4) 1_555 1_555 yes
