#------------------------------------------------------------------------------
#$Date: 2016-03-22 11:19:20 +0200 (Tue, 22 Mar 2016) $
#$Revision: 178894 $
#$URL: svn://www.crystallography.net/cod/cif/4/11/23/4112389.cif $
#------------------------------------------------------------------------------
#
# This file is available in the Crystallography Open Database (COD),
# http://www.crystallography.net/
#
# All data on this site have been placed in the public domain by the
# contributors.
#
data_4112389
loop_
_publ_author_name
'Li-Ming Wu'
'Dong-Kyun Seo'
_publ_section_title
;
 Mn14Al56+xGe3-x (x= 0-0.6): A New Intermetallic Phase Containing
 Unprecedented "Half-Broken" Mackay Icosahedra as Building Units
;
_journal_name_full               'Journal of the American Chemical Society'
_journal_page_first              4398
_journal_page_last               4403
_journal_paper_doi               10.1021/ja039154f
_journal_volume                  126
_journal_year                    2004
_chemical_formula_sum            'Al56 Ge3 Mn14'
_chemical_formula_weight         2497.81
_chemical_name_systematic
; 
 ? 
;
_space_group_IT_number           147
_symmetry_cell_setting           trigonal
_symmetry_space_group_name_Hall  '-P 3'
_symmetry_space_group_name_H-M   'P -3'
_atom_sites_solution_hydrogens   geom
_atom_sites_solution_primary     direct
_atom_sites_solution_secondary   difmap
_audit_creation_method           SHELXL-97
_cell_angle_alpha                90.000(4)
_cell_angle_beta                 90.000(4)
_cell_angle_gamma                120.000(4)
_cell_formula_units_Z            1
_cell_length_a                   11.098(2)
_cell_length_b                   11.098(2)
_cell_length_c                   10.3496(19)
_cell_measurement_temperature    298(2)
_cell_volume                     1103.9(3)
_computing_cell_refinement       'Bruker SMART'
_computing_data_collection       'Bruker SMART'
_computing_data_reduction        'Bruker SHELXTL'
_computing_molecular_graphics    'Bruker SHELXTL'
_computing_publication_material  'Bruker SHELXTL'
_computing_structure_refinement  'SHELXL-97 (Sheldrick, 1997)'
_computing_structure_solution    'SHELXS-97 (Sheldrick, 1990)'
_diffrn_ambient_temperature      298(2)
_diffrn_measured_fraction_theta_full 0.999
_diffrn_measured_fraction_theta_max 0.999
_diffrn_measurement_device_type  'CCD area detector'
_diffrn_measurement_method       'phi and omega scans'
_diffrn_radiation_monochromator  graphite
_diffrn_radiation_source         'fine-focus sealed tube'
_diffrn_radiation_type           MoK\a
_diffrn_radiation_wavelength     0.71073
_diffrn_reflns_av_R_equivalents  0.0618
_diffrn_reflns_av_sigmaI/netI    0.0427
_diffrn_reflns_limit_h_max       15
_diffrn_reflns_limit_h_min       -15
_diffrn_reflns_limit_k_max       15
_diffrn_reflns_limit_k_min       -15
_diffrn_reflns_limit_l_max       14
_diffrn_reflns_limit_l_min       -14
_diffrn_reflns_number            13099
_diffrn_reflns_theta_full        29.99
_diffrn_reflns_theta_max         29.99
_diffrn_reflns_theta_min         1.97
_diffrn_standards_decay_%        none
_diffrn_standards_interval_count none
_diffrn_standards_interval_time  none
_diffrn_standards_number         none
_exptl_absorpt_coefficient_mu    6.997
_exptl_absorpt_correction_type   empirical
_exptl_absorpt_process_details   'SADABS (Sheldrick, 1996)'
_exptl_crystal_colour            Silvery
_exptl_crystal_density_diffrn    3.757
_exptl_crystal_description       Block
_exptl_crystal_F_000             1174
_exptl_crystal_size_max          0.07
_exptl_crystal_size_mid          0.06
_exptl_crystal_size_min          0.04
_refine_diff_density_max         0.873
_refine_diff_density_min         -1.182
_refine_diff_density_rms         0.193
_refine_ls_extinction_coef       0.00075(14)
_refine_ls_extinction_expression Fc^*^=kFc[1+0.001xFc^2^\l^3^/sin(2\q)]^-1/4^
_refine_ls_extinction_method     SHELXL
_refine_ls_goodness_of_fit_ref   1.072
_refine_ls_hydrogen_treatment    mixed
_refine_ls_matrix_type           full
_refine_ls_number_parameters     112
_refine_ls_number_reflns         2165
_refine_ls_number_restraints     0
_refine_ls_restrained_S_all      1.072
_refine_ls_R_factor_all          0.0465
_refine_ls_R_factor_gt           0.0431
_refine_ls_shift/su_max          0.000
_refine_ls_shift/su_mean         0.000
_refine_ls_structure_factor_coef Fsqd
_refine_ls_weighting_details
'calc w=1/[\s^2^(Fo^2^)+(0.0000P)^2^+9.8606P] where P=(Fo^2^+2Fc^2^)/3'
_refine_ls_weighting_scheme      calc
_refine_ls_wR_factor_gt          0.0848
_refine_ls_wR_factor_ref         0.0865
_reflns_number_gt                2048
_reflns_number_total             2165
_reflns_threshold_expression     >2sigma(I)
_cod_data_source_file            ja039154fsi20031213_050058.cif
_cod_data_source_block           w274
_cod_database_code               4112389
loop_
_symmetry_equiv_pos_as_xyz
'x, y, z'
'-y, x-y, z'
'-x+y, -x, z'
'-x, -y, -z'
'y, -x+y, -z'
'x-y, x, -z'
loop_
_atom_site_label
_atom_site_type_symbol
_atom_site_fract_x
_atom_site_fract_y
_atom_site_fract_z
_atom_site_U_iso_or_equiv
_atom_site_adp_type
_atom_site_occupancy
_atom_site_symmetry_multiplicity
_atom_site_calc_flag
_atom_site_refinement_flags
Mn1 Mn 0.3333 0.6667 0.44543(10) 0.0043(2) Uani 1 3 d S
Mn2 Mn 0.36088(6) 0.42294(6) 0.07157(6) 0.00497(14) Uani 1 1 d .
Mn3 Mn 0.25794(6) 0.04830(6) 0.33116(6) 0.00514(14) Uani 1 1 d .
Ge1 Ge 0.0000 0.0000 0.0000 0.0072(2) Uani 1 6 d S
Ge2 Ge 0.3333 0.6667 0.72050(8) 0.01115(18) Uani 1 3 d S
Al1 Al 0.0000 0.0000 0.7452(2) 0.0094(4) Uani 1 3 d S
Al2 Al 0.26218(14) 0.13084(14) 0.08429(13) 0.0093(3) Uani 1 1 d .
Al3 Al 0.49290(14) 0.11437(14) 0.43643(13) 0.0088(3) Uani 1 1 d .
Al4 Al 0.13824(14) 0.41657(14) 0.45323(14) 0.0105(3) Uani 1 1 d .
Al5 Al 0.16740(15) 0.62423(15) 0.27359(13) 0.0116(3) Uani 1 1 d .
Al6 Al 0.19202(13) 0.51319(14) 0.01594(13) 0.0082(3) Uani 1 1 d .
Al7 Al 0.44767(14) 0.06341(14) 0.17098(13) 0.0091(3) Uani 1 1 d .
Al8 Al 0.40738(13) 0.30495(14) 0.26899(13) 0.0078(2) Uani 1 1 d .
Al9 Al 0.14556(14) 0.30021(14) 0.18802(13) 0.0094(3) Uani 1 1 d .
Al10 Al 0.16646(14) 0.19503(14) 0.42175(12) 0.0083(3) Uani 1 1 d .
loop_
_atom_site_aniso_label
_atom_site_aniso_U_11
_atom_site_aniso_U_22
_atom_site_aniso_U_33
_atom_site_aniso_U_23
_atom_site_aniso_U_13
_atom_site_aniso_U_12
Mn1 0.0043(3) 0.0043(3) 0.0042(4) 0.000 0.000 0.00216(14)
Mn2 0.0049(3) 0.0050(3) 0.0049(3) 0.0001(2) 0.0004(2) 0.0023(2)
Mn3 0.0051(3) 0.0049(3) 0.0053(3) 0.0004(2) 0.0006(2) 0.0025(2)
Ge1 0.0070(3) 0.0070(3) 0.0077(5) 0.000 0.000 0.00350(15)
Ge2 0.0091(2) 0.0091(2) 0.0152(4) 0.000 0.000 0.00456(12)
Al1 0.0087(6) 0.0087(6) 0.0107(10) 0.000 0.000 0.0044(3)
Al2 0.0076(6) 0.0098(6) 0.0093(6) -0.0003(5) -0.0006(5) 0.0035(5)
Al3 0.0084(6) 0.0074(6) 0.0104(6) -0.0018(5) -0.0014(5) 0.0038(5)
Al4 0.0066(6) 0.0071(6) 0.0160(7) -0.0022(5) 0.0002(5) 0.0020(5)
Al5 0.0124(6) 0.0130(6) 0.0104(6) -0.0018(5) -0.0056(5) 0.0072(5)
Al6 0.0074(6) 0.0077(6) 0.0107(6) -0.0007(5) 0.0002(5) 0.0045(5)
Al7 0.0110(6) 0.0114(6) 0.0068(6) 0.0006(5) 0.0006(5) 0.0071(5)
Al8 0.0073(6) 0.0065(6) 0.0077(6) 0.0002(4) 0.0003(5) 0.0020(5)
Al9 0.0073(6) 0.0114(6) 0.0082(6) 0.0014(5) 0.0021(5) 0.0036(5)
Al10 0.0108(6) 0.0096(6) 0.0068(6) 0.0001(5) -0.0002(5) 0.0068(5)
loop_
_atom_type_symbol
_atom_type_description
_atom_type_scat_dispersion_real
_atom_type_scat_dispersion_imag
_atom_type_scat_source
Al Al 0.0645 0.0514 'International Tables Vol C Tables 4.2.6.8 and 6.1.1.4'
Mn Mn 0.3368 0.7283 'International Tables Vol C Tables 4.2.6.8 and 6.1.1.4'
Ge Ge 0.1547 1.8001 'International Tables Vol C Tables 4.2.6.8 and 6.1.1.4'
loop_
_geom_angle_atom_site_label_1
_geom_angle_atom_site_label_2
_geom_angle_atom_site_label_3
_geom_angle
_geom_angle_site_symmetry_1
_geom_angle_site_symmetry_3
Al5 Mn1 Al5 72.37(6) . 3_565
Al5 Mn1 Al5 72.37(6) . 2_665
Al5 Mn1 Al5 72.37(6) 3_565 2_665
Al5 Mn1 Al4 72.86(5) . 3_565
Al5 Mn1 Al4 70.16(5) 3_565 3_565
Al5 Mn1 Al4 134.77(6) 2_665 3_565
Al5 Mn1 Al4 70.16(5) . .
Al5 Mn1 Al4 134.77(6) 3_565 .
Al5 Mn1 Al4 72.86(5) 2_665 .
Al4 Mn1 Al4 119.899(5) 3_565 .
Al5 Mn1 Al4 134.77(6) . 2_665
Al5 Mn1 Al4 72.86(5) 3_565 2_665
Al5 Mn1 Al4 70.16(5) 2_665 2_665
Al4 Mn1 Al4 119.899(5) 3_565 2_665
Al4 Mn1 Al4 119.899(5) . 2_665
Al5 Mn1 Al3 75.90(5) . 5_566
Al5 Mn1 Al3 128.62(5) 3_565 5_566
Al5 Mn1 Al3 132.67(5) 2_665 5_566
Al4 Mn1 Al3 62.36(4) 3_565 5_566
Al4 Mn1 Al3 63.73(4) . 5_566
Al4 Mn1 Al3 149.33(6) 2_665 5_566
Al5 Mn1 Al3 132.67(5) . 4_666
Al5 Mn1 Al3 75.90(5) 3_565 4_666
Al5 Mn1 Al3 128.62(5) 2_665 4_666
Al4 Mn1 Al3 63.73(4) 3_565 4_666
Al4 Mn1 Al3 149.33(6) . 4_666
Al4 Mn1 Al3 62.36(4) 2_665 4_666
Al3 Mn1 Al3 98.71(5) 5_566 4_666
Al5 Mn1 Al3 128.62(5) . 6_556
Al5 Mn1 Al3 132.67(5) 3_565 6_556
Al5 Mn1 Al3 75.90(5) 2_665 6_556
Al4 Mn1 Al3 149.33(6) 3_565 6_556
Al4 Mn1 Al3 62.36(4) . 6_556
Al4 Mn1 Al3 63.73(4) 2_665 6_556
Al3 Mn1 Al3 98.71(5) 5_566 6_556
Al3 Mn1 Al3 98.71(5) 4_666 6_556
Al5 Mn1 Ge2 137.02(4) . .
Al5 Mn1 Ge2 137.02(4) 3_565 .
Al5 Mn1 Ge2 137.02(4) 2_665 .
Al4 Mn1 Ge2 88.17(4) 3_565 .
Al4 Mn1 Ge2 88.17(4) . .
Al4 Mn1 Ge2 88.17(4) 2_665 .
Al3 Mn1 Ge2 61.18(4) 5_566 .
Al3 Mn1 Ge2 61.18(4) 4_666 .
Al3 Mn1 Ge2 61.18(4) 6_556 .
Al9 Mn2 Al5 69.89(5) . 2_665
Al9 Mn2 Al7 125.45(5) . 6
Al5 Mn2 Al7 144.79(5) 2_665 6
Al9 Mn2 Al6 125.91(5) . 2_665
Al5 Mn2 Al6 74.48(5) 2_665 2_665
Al7 Mn2 Al6 71.47(5) 6 2_665
Al9 Mn2 Al6 67.91(5) . .
Al5 Mn2 Al6 80.99(5) 2_665 .
Al7 Mn2 Al6 78.00(5) 6 .
Al6 Mn2 Al6 67.39(6) 2_665 .
Al9 Mn2 Al8 73.33(5) . .
Al5 Mn2 Al8 68.16(5) 2_665 .
Al7 Mn2 Al8 142.80(5) 6 .
Al6 Mn2 Al8 127.20(5) 2_665 .
Al6 Mn2 Al8 136.80(5) . .
Al9 Mn2 Al6 127.07(5) . 5
Al5 Mn2 Al6 130.53(5) 2_665 5
Al7 Mn2 Al6 69.49(5) 6 5
Al6 Mn2 Al6 107.00(4) 2_665 5
Al6 Mn2 Al6 146.78(3) . 5
Al8 Mn2 Al6 73.90(5) . 5
Al9 Mn2 Al7 126.93(5) . 3_665
Al5 Mn2 Al7 67.05(5) 2_665 3_665
Al7 Mn2 Al7 107.61(4) 6 3_665
Al6 Mn2 Al7 68.87(4) 2_665 3_665
Al6 Mn2 Al7 131.06(5) . 3_665
Al8 Mn2 Al7 62.91(4) . 3_665
Al6 Mn2 Al7 67.97(4) 5 3_665
Al9 Mn2 Al2 66.07(5) . 6
Al5 Mn2 Al2 129.61(5) 2_665 6
Al7 Mn2 Al2 60.28(4) 6 6
Al6 Mn2 Al2 113.80(5) 2_665 6
Al6 Mn2 Al2 60.78(4) . 6
Al8 Mn2 Al2 118.63(5) . 6
Al6 Mn2 Al2 96.00(5) 5 6
Al7 Mn2 Al2 163.29(5) 3_665 6
Al9 Mn2 Al2 67.99(5) . .
Al5 Mn2 Al2 117.59(5) 2_665 .
Al7 Mn2 Al2 97.43(5) 6 .
Al6 Mn2 Al2 165.50(5) 2_665 .
Al6 Mn2 Al2 120.47(5) . .
Al8 Mn2 Al2 57.02(4) . .
Al6 Mn2 Al2 59.41(4) 5 .
Al7 Mn2 Al2 107.20(4) 3_665 .
Al2 Mn2 Al2 65.83(5) 6 .
Al9 Mn2 Mn2 178.49(5) . 4_665
Al5 Mn2 Mn2 109.59(5) 2_665 4_665
Al7 Mn2 Mn2 55.80(4) 6 4_665
Al6 Mn2 Mn2 54.91(4) 2_665 4_665
Al6 Mn2 Mn2 113.49(4) . 4_665
Al8 Mn2 Mn2 105.16(4) . 4_665
Al6 Mn2 Mn2 52.09(3) 5 4_665
Al7 Mn2 Mn2 51.80(4) 3_665 4_665
Al2 Mn2 Mn2 114.98(4) 6 4_665
Al2 Mn2 Mn2 111.30(4) . 4_665
Al9 Mn3 Al10 130.91(5) 3 .
Al9 Mn3 Al4 76.76(5) 3 3
Al10 Mn3 Al4 125.37(5) . 3
Al9 Mn3 Al8 126.89(5) 3 .
Al10 Mn3 Al8 67.46(5) . .
Al4 Mn3 Al8 139.70(5) 3 .
Al9 Mn3 Al3 118.86(5) 3 .
Al10 Mn3 Al3 109.90(5) . .
Al4 Mn3 Al3 61.90(5) 3 .
Al8 Mn3 Al3 77.80(5) . .
Al9 Mn3 Al7 70.88(5) 3 .
Al10 Mn3 Al7 140.66(5) . .
Al4 Mn3 Al7 88.31(5) 3 .
Al8 Mn3 Al7 73.55(5) . .
Al3 Mn3 Al7 65.27(5) . .
Al9 Mn3 Al10 122.79(5) 3 5_556
Al10 Mn3 Al10 60.72(5) . 5_556
Al4 Mn3 Al10 64.85(5) 3 5_556
Al8 Mn3 Al10 109.53(5) . 5_556
Al3 Mn3 Al10 78.52(5) . 5_556
Al7 Mn3 Al10 142.38(5) . 5_556
Al9 Mn3 Al10 66.05(5) 3 3
Al10 Mn3 Al10 86.12(6) . 3
Al4 Mn3 Al10 61.60(4) 3 3
Al8 Mn3 Al10 152.79(5) . 3
Al3 Mn3 Al10 119.30(5) . 3
Al7 Mn3 Al10 131.61(5) . 3
Al10 Mn3 Al10 58.92(4) 5_556 3
Al9 Mn3 Al2 68.75(5) 3 .
Al10 Mn3 Al2 94.46(5) . .
Al4 Mn3 Al2 139.00(5) 3 .
Al8 Mn3 Al2 59.62(4) . .
Al3 Mn3 Al2 117.38(5) . .
Al7 Mn3 Al2 60.22(4) . .
Al10 Mn3 Al2 154.78(5) 5_556 .
Al10 Mn3 Al2 119.11(5) 3 .
Al9 Mn3 Al1 70.20(5) 3 4
Al10 Mn3 Al1 60.76(4) . 4
Al4 Mn3 Al1 119.60(4) 3 4
Al8 Mn3 Al1 100.17(4) . 4
Al3 Mn3 Al1 170.09(6) . 4
Al7 Mn3 Al1 123.74(6) . 4
Al10 Mn3 Al1 93.22(6) 5_556 4
Al10 Mn3 Al1 59.12(4) 3 4
Al2 Mn3 Al1 68.60(5) . 4
Al1 Ge1 Al1 180.0 4 .
Al1 Ge1 Al2 70.91(3) 4 .
Al1 Ge1 Al2 109.09(3) . .
Al1 Ge1 Al2 109.09(3) 4 4
Al1 Ge1 Al2 70.91(3) . 4
Al2 Ge1 Al2 180.00(4) . 4
Al1 Ge1 Al2 109.09(3) 4 5
Al1 Ge1 Al2 70.91(3) . 5
Al2 Ge1 Al2 70.15(3) . 5
Al2 Ge1 Al2 109.85(3) 4 5
Al1 Ge1 Al2 109.09(3) 4 6
Al1 Ge1 Al2 70.91(3) . 6
Al2 Ge1 Al2 70.15(3) . 6
Al2 Ge1 Al2 109.85(3) 4 6
Al2 Ge1 Al2 109.85(3) 5 6
Al1 Ge1 Al2 70.91(3) 4 2
Al1 Ge1 Al2 109.09(3) . 2
Al2 Ge1 Al2 109.85(3) . 2
Al2 Ge1 Al2 70.15(3) 4 2
Al2 Ge1 Al2 180.00(4) 5 2
Al2 Ge1 Al2 70.15(3) 6 2
Al1 Ge1 Al2 70.91(3) 4 3
Al1 Ge1 Al2 109.09(3) . 3
Al2 Ge1 Al2 109.85(3) . 3
Al2 Ge1 Al2 70.15(3) 4 3
Al2 Ge1 Al2 70.15(3) 5 3
Al2 Ge1 Al2 180.0 6 3
Al2 Ge1 Al2 109.85(3) 2 3
Al8 Ge2 Al8 119.843(5) 5_566 6_556
Al8 Ge2 Al8 119.843(5) 5_566 4_666
Al8 Ge2 Al8 119.843(5) 6_556 4_666
Al8 Ge2 Al3 71.91(4) 5_566 5_566
Al8 Ge2 Al3 63.54(4) 6_556 5_566
Al8 Ge2 Al3 145.73(5) 4_666 5_566
Al8 Ge2 Al3 63.54(4) 5_566 4_666
Al8 Ge2 Al3 145.73(5) 6_556 4_666
Al8 Ge2 Al3 71.91(4) 4_666 4_666
Al3 Ge2 Al3 88.72(5) 5_566 4_666
Al8 Ge2 Al3 145.73(5) 5_566 6_556
Al8 Ge2 Al3 71.91(4) 6_556 6_556
Al8 Ge2 Al3 63.54(4) 4_666 6_556
Al3 Ge2 Al3 88.72(5) 5_566 6_556
Al3 Ge2 Al3 88.72(5) 4_666 6_556
Al8 Ge2 Mn1 92.28(3) 5_566 .
Al8 Ge2 Mn1 92.28(3) 6_556 .
Al8 Ge2 Mn1 92.28(3) 4_666 .
Al3 Ge2 Mn1 53.84(3) 5_566 .
Al3 Ge2 Mn1 53.84(3) 4_666 .
Al3 Ge2 Mn1 53.84(3) 6_556 .
Ge1 Al1 Al10 130.49(5) . 4
Ge1 Al1 Al10 130.49(5) . 5
Al10 Al1 Al10 82.39(7) 4 5
Ge1 Al1 Al10 130.49(5) . 6
Al10 Al1 Al10 82.39(7) 4 6
Al10 Al1 Al10 82.39(7) 5 6
Ge1 Al1 Mn3 106.70(5) . 4
Al10 Al1 Mn3 54.80(4) 4 4
Al10 Al1 Mn3 122.77(9) 5 4
Al10 Al1 Mn3 58.36(4) 6 4
Ge1 Al1 Mn3 106.70(5) . 6
Al10 Al1 Mn3 122.77(9) 4 6
Al10 Al1 Mn3 58.36(4) 5 6
Al10 Al1 Mn3 54.80(4) 6 6
Mn3 Al1 Mn3 112.10(4) 4 6
Ge1 Al1 Mn3 106.70(5) . 5
Al10 Al1 Mn3 58.36(4) 4 5
Al10 Al1 Mn3 54.80(4) 5 5
Al10 Al1 Mn3 122.77(9) 6 5
Mn3 Al1 Mn3 112.10(4) 4 5
Mn3 Al1 Mn3 112.10(4) 6 5
Ge1 Al1 Al9 76.54(5) . 5
Al10 Al1 Al9 138.03(6) 4 5
Al10 Al1 Al9 58.08(4) 5 5
Al10 Al1 Al9 103.80(5) 6 5
Mn3 Al1 Al9 159.61(3) 4 5
Mn3 Al1 Al9 49.04(3) 6 5
Mn3 Al1 Al9 85.35(3) 5 5
Ge1 Al1 Al9 76.54(5) . 4
Al10 Al1 Al9 58.08(4) 4 4
Al10 Al1 Al9 103.80(5) 5 4
Al10 Al1 Al9 138.03(6) 6 4
Mn3 Al1 Al9 85.35(3) 4 4
Mn3 Al1 Al9 159.61(3) 6 4
Mn3 Al1 Al9 49.04(3) 5 4
Al9 Al1 Al9 114.75(4) 5 4
Ge1 Al1 Al9 76.54(5) . 6
Al10 Al1 Al9 103.80(5) 4 6
Al10 Al1 Al9 138.03(6) 5 6
Al10 Al1 Al9 58.08(4) 6 6
Mn3 Al1 Al9 49.04(3) 4 6
Mn3 Al1 Al9 85.35(3) 6 6
Mn3 Al1 Al9 159.61(3) 5 6
Al9 Al1 Al9 114.75(4) 5 6
Al9 Al1 Al9 114.75(4) 4 6
Al8 Al2 Ge1 137.83(6) . .
Al8 Al2 Al7 71.69(5) . .
Ge1 Al2 Al7 137.80(6) . .
Al8 Al2 Mn3 57.41(4) . .
Ge1 Al2 Mn3 107.15(5) . .
Al7 Al2 Mn3 58.25(4) . .
Al8 Al2 Al6 72.10(5) . 5
Ge1 Al2 Al6 135.43(6) . 5
Al7 Al2 Al6 73.30(5) . 5
Mn3 Al2 Al6 117.39(6) . 5
Al8 Al2 Mn2 112.53(6) . 5
Ge1 Al2 Mn2 109.63(5) . 5
Al7 Al2 Mn2 55.11(4) . 5
Mn3 Al2 Mn2 111.08(5) . 5
Al6 Al2 Mn2 56.21(4) 5 5
Al8 Al2 Al9 130.29(7) . 5
Ge1 Al2 Al9 78.29(5) . 5
Al7 Al2 Al9 105.04(6) . 5
Mn3 Al2 Al9 160.74(6) . 5
Al6 Al2 Al9 60.22(5) 5 5
Mn2 Al2 Al9 50.54(4) 5 5
Al8 Al2 Mn2 56.77(4) . .
Ge1 Al2 Mn2 107.31(5) . .
Al7 Al2 Mn2 114.89(6) . .
Mn3 Al2 Mn2 111.05(5) . .
Al6 Al2 Mn2 55.91(4) 5 .
Mn2 Al2 Mn2 110.48(5) 5 .
Al9 Al2 Mn2 83.92(5) 5 .
Al8 Al2 Al9 106.70(6) . 3
Ge1 Al2 Al9 77.53(4) . 3
Al7 Al2 Al9 62.90(5) . 3
Mn3 Al2 Al9 50.28(4) . 3
Al6 Al2 Al9 133.26(6) 5 3
Mn2 Al2 Al9 84.55(5) 5 3
Al9 Al2 Al9 115.53(6) 5 3
Mn2 Al2 Al9 160.53(6) . 3
Al8 Al2 Al9 64.60(5) . .
Ge1 Al2 Al9 76.13(4) . .
Al7 Al2 Al9 134.21(6) . .
Mn3 Al2 Al9 86.19(5) . .
Al6 Al2 Al9 104.34(6) 5 .
Mn2 Al2 Al9 158.04(6) 5 .
Al9 Al2 Al9 113.05(6) 5 .
Mn2 Al2 Al9 48.64(4) . .
Al9 Al2 Al9 117.36(7) 3 .
Mn1 Al3 Mn3 130.87(6) 4_666 .
Mn1 Al3 Al4 58.66(4) 4_666 5_556
Mn3 Al3 Al4 75.46(5) . 5_556
Mn1 Al3 Al4 147.23(7) 4_666 3
Mn3 Al3 Al4 58.28(4) . 3
Al4 Al3 Al4 106.09(7) 5_556 3
Mn1 Al3 Al4 57.97(4) 4_666 6_656
Mn3 Al3 Al4 170.61(7) . 6_656
Al4 Al3 Al4 111.44(8) 5_556 6_656
Al4 Al3 Al4 112.77(6) 3 6_656
Mn1 Al3 Ge2 64.99(4) 4_666 4_666
Mn3 Al3 Ge2 99.48(5) . 4_666
Al4 Al3 Ge2 88.35(5) 5_556 4_666
Al4 Al3 Ge2 147.50(6) 3 4_666
Al4 Al3 Ge2 87.31(5) 6_656 4_666
Mn1 Al3 Al7 129.82(6) 4_666 .
Mn3 Al3 Al7 58.18(4) . .
Al4 Al3 Al7 118.70(6) 5_556 .
Al4 Al3 Al7 82.76(6) 3 .
Al4 Al3 Al7 120.31(6) 6_656 .
Ge2 Al3 Al7 64.85(4) 4_666 .
Mn1 Al3 Al8 95.58(5) 4_666 2_655
Mn3 Al3 Al8 115.64(6) . 2_655
Al4 Al3 Al8 145.15(7) 5_556 2_655
Al4 Al3 Al8 107.54(6) 3 2_655
Al4 Al3 Al8 62.62(5) 6_656 2_655
Ge2 Al3 Al8 57.95(4) 4_666 2_655
Al7 Al3 Al8 57.80(5) . 2_655
Mn1 Al3 Al3 105.59(7) 4_666 4_656
Mn3 Al3 Al3 115.40(7) . 4_656
Al4 Al3 Al3 125.53(8) 5_556 4_656
Al4 Al3 Al3 57.20(5) 3 4_656
Al4 Al3 Al3 55.58(5) 6_656 4_656
Ge2 Al3 Al3 135.38(7) 4_666 4_656
Al7 Al3 Al3 110.32(7) . 4_656
Al8 Al3 Al3 81.40(6) 2_655 4_656
Mn1 Al4 Mn3 147.52(7) . 2
Mn1 Al4 Al3 58.98(4) . 6_556
Mn3 Al4 Al3 138.52(7) 2 6_556
Mn1 Al4 Al3 115.74(6) . 2
Mn3 Al4 Al3 59.82(4) 2 2
Al3 Al4 Al3 155.95(6) 6_556 2
Mn1 Al4 Al10 125.54(6) . .
Mn3 Al4 Al10 61.25(4) 2 .
Al3 Al4 Al10 77.31(6) 6_556 .
Al3 Al4 Al10 117.07(6) 2 .
Mn1 Al4 Al3 58.29(4) . 5_566
Mn3 Al4 Al3 126.96(6) 2 5_566
Al3 Al4 Al3 93.24(7) 6_556 5_566
Al3 Al4 Al3 67.23(6) 2 5_566
Al10 Al4 Al3 161.77(7) . 5_566
Mn1 Al4 Al10 153.13(7) . 6_556
Mn3 Al4 Al10 59.33(4) 2 6_556
Al3 Al4 Al10 100.52(6) 6_556 6_556
Al3 Al4 Al10 75.21(5) 2 6_556
Al10 Al4 Al10 57.13(6) . 6_556
Al3 Al4 Al10 110.62(6) 5_566 6_556
Mn1 Al4 Al5 53.33(4) . .
Mn3 Al4 Al5 96.82(6) 2 .
Al3 Al4 Al5 109.68(6) 6_556 .
Al3 Al4 Al5 76.53(5) 2 .
Al10 Al4 Al5 130.67(7) . .
Al3 Al4 Al5 67.07(5) 5_566 .
Al10 Al4 Al5 149.76(7) 6_556 .
Mn1 Al4 Al8 95.60(6) . 6_556
Mn3 Al4 Al8 115.34(6) 2 6_556
Al3 Al4 Al8 71.25(5) 6_556 6_556
Al3 Al4 Al8 86.76(6) 2 6_556
Al10 Al4 Al8 99.62(6) . 6_556
Al3 Al4 Al8 62.35(5) 5_566 6_556
Al10 Al4 Al8 59.32(5) 6_556 6_556
Al5 Al4 Al8 129.33(6) . 6_556
Mn1 Al4 Al5 52.05(4) . 2_665
Mn3 Al4 Al5 104.40(6) 2 2_665
Al3 Al4 Al5 66.28(5) 6_556 2_665
Al3 Al4 Al5 131.63(7) 2 2_665
Al10 Al4 Al5 82.66(5) . 2_665
Al3 Al4 Al5 108.03(6) 5_566 2_665
Al10 Al4 Al5 139.77(6) 6_556 2_665
Al5 Al4 Al5 59.33(6) . 2_665
Al8 Al4 Al5 135.85(6) 6_556 2_665
Mn1 Al5 Mn2 162.87(7) . 3_565
Mn1 Al5 Al9 115.96(6) . 3_565
Mn2 Al5 Al9 54.37(4) 3_565 3_565
Mn1 Al5 Al7 134.47(6) . 2
Mn2 Al5 Al7 60.13(4) 3_565 2
Al9 Al5 Al7 107.99(6) 3_565 2
Mn1 Al5 Al8 133.40(7) . 3_565
Mn2 Al5 Al8 58.81(4) 3_565 3_565
Al9 Al5 Al8 64.63(5) 3_565 3_565
Al7 Al5 Al8 58.18(5) 2 3_565
Mn1 Al5 Al4 56.51(4) . .
Mn2 Al5 Al4 138.48(7) 3_565 .
Al9 Al5 Al4 156.27(7) 3_565 .
Al7 Al5 Al4 78.46(5) 2 .
Al8 Al5 Al4 103.00(6) 3_565 .
Mn1 Al5 Al5 53.82(3) . 3_565
Mn2 Al5 Al5 109.05(5) 3_565 3_565
Al9 Al5 Al5 79.04(7) 3_565 3_565
Al7 Al5 Al5 151.97(5) 2 3_565
Al8 Al5 Al5 141.89(8) 3_565 3_565
Al4 Al5 Al5 106.28(5) . 3_565
Mn1 Al5 Al5 53.82(3) . 2_665
Mn2 Al5 Al5 120.63(4) 3_565 2_665
Al9 Al5 Al5 135.15(7) 3_565 2_665
Al7 Al5 Al5 101.40(7) 2 2_665
Al8 Al5 Al5 158.08(8) 3_565 2_665
Al4 Al5 Al5 61.98(5) . 2_665
Al5 Al5 Al5 60.0 3_565 2_665
Mn1 Al5 Al4 55.09(4) . 3_565
Mn2 Al5 Al4 118.69(6) 3_565 3_565
Al9 Al5 Al4 64.42(5) 3_565 3_565
Al7 Al5 Al4 149.13(7) 2 3_565
Al8 Al5 Al4 93.68(6) 3_565 3_565
Al4 Al5 Al4 98.02(7) . 3_565
Al5 Al5 Al4 58.69(5) 3_565 3_565
Al5 Al5 Al4 103.82(5) 2_665 3_565
Mn2 Al6 Mn2 152.38(6) 3_565 .
Mn2 Al6 Mn2 73.00(4) 3_565 6
Mn2 Al6 Mn2 125.46(6) . 6
Mn2 Al6 Al2 137.33(6) 3_565 6
Mn2 Al6 Al2 63.01(4) . 6
Mn2 Al6 Al2 64.68(4) 6 6
Mn2 Al6 Al9 114.07(6) 3_565 .
Mn2 Al6 Al9 52.77(4) . .
Mn2 Al6 Al9 89.47(5) 6 .
Al2 Al6 Al9 62.01(5) 6 .
Mn2 Al6 Al6 115.69(5) 3_565 2_665
Mn2 Al6 Al6 55.18(5) . 2_665
Mn2 Al6 Al6 159.63(3) 6 2_665
Al2 Al6 Al6 106.13(7) 6 2_665
Al9 Al6 Al6 102.31(6) . 2_665
Mn2 Al6 Al6 57.43(5) 3_565 3_565
Mn2 Al6 Al6 113.51(5) . 3_565
Mn2 Al6 Al6 120.24(7) 6 3_565
Al2 Al6 Al6 154.50(5) 6 3_565
Al9 Al6 Al6 138.40(4) . 3_565
Al6 Al6 Al6 60.0 2_665 3_565
Mn2 Al6 Al7 57.67(4) 3_565 2
Mn2 Al6 Al7 113.52(6) . 2
Mn2 Al6 Al7 53.73(4) 6 2
Al2 Al6 Al7 91.43(5) 6 2
Al9 Al6 Al7 60.92(5) . 2
Al6 Al6 Al7 146.64(4) 2_665 2
Al6 Al6 Al7 111.71(6) 3_565 2
Mn2 Al6 Al7 54.24(4) 3_565 5_565
Mn2 Al6 Al7 151.32(6) . 5_565
Mn2 Al6 Al7 56.62(4) 6 5_565
Al2 Al6 Al7 103.00(6) 6 5_565
Al9 Al6 Al7 145.52(6) . 5_565
Al6 Al6 Al7 111.92(5) 2_665 5_565
Al6 Al6 Al7 67.57(5) 3_565 5_565
Al7 Al6 Al7 90.63(5) 2 5_565
Mn2 Al7 Mn3 123.20(6) 5 .
Mn2 Al7 Mn2 72.39(4) 5 2_655
Mn3 Al7 Mn2 147.10(6) . 2_655
Mn2 Al7 Al2 64.61(4) 5 .
Mn3 Al7 Al2 61.52(4) . .
Mn2 Al7 Al2 135.28(6) 2_655 .
Mn2 Al7 Al8 117.69(6) 5 2_655
Mn3 Al7 Al8 118.95(6) . 2_655
Mn2 Al7 Al8 57.78(4) 2_655 2_655
Al2 Al7 Al8 158.07(7) . 2_655
Mn2 Al7 Al3 170.10(7) 5 .
Mn3 Al7 Al3 56.55(4) . .
Mn2 Al7 Al3 113.37(6) 2_655 .
Al2 Al7 Al3 111.00(6) . .
Al8 Al7 Al3 62.75(5) 2_655 .
Mn2 Al7 Al5 114.97(6) 5 3
Mn3 Al7 Al5 95.53(5) . 3
Mn2 Al7 Al5 52.82(4) 2_655 3
Al2 Al7 Al5 139.73(7) . 3
Al8 Al7 Al5 61.18(5) 2_655 3
Al3 Al7 Al5 74.32(5) . 3
Mn2 Al7 Al9 88.89(5) 5 3
Mn3 Al7 Al9 50.75(4) . 3
Mn2 Al7 Al9 106.72(5) 2_655 3
Al2 Al7 Al9 62.13(5) . 3
Al8 Al7 Al9 137.22(6) 2_655 3
Al3 Al7 Al9 96.76(5) . 3
Al5 Al7 Al9 77.67(5) 3 3
Mn2 Al7 Al6 56.78(4) 5 3
Mn3 Al7 Al6 107.67(6) . 3
Mn2 Al7 Al6 53.45(4) 2_655 3
Al2 Al7 Al6 91.35(6) . 3
Al8 Al7 Al6 108.16(6) 2_655 3
Al3 Al7 Al6 133.08(6) . 3
Al5 Al7 Al6 62.97(5) 3 3
Al9 Al7 Al6 57.18(4) 3 3
Mn2 Al7 Al6 54.29(4) 5 6_655
Mn3 Al7 Al6 157.40(6) . 6_655
Mn2 Al7 Al6 55.42(4) 2_655 6_655
Al2 Al7 Al6 104.45(6) . 6_655
Al8 Al7 Al6 66.89(5) 2_655 6_655
Al3 Al7 Al6 121.42(6) . 6_655
Al5 Al7 Al6 105.59(6) 3 6_655
Al9 Al7 Al6 141.40(6) 3 6_655
Al6 Al7 Al6 89.37(5) 3 6_655
Mn3 Al8 Mn2 125.00(5) . .
Mn3 Al8 Al2 62.98(5) . .
Mn2 Al8 Al2 66.21(5) . .
Mn3 Al8 Ge2 100.20(5) . 4_666
Mn2 Al8 Ge2 115.67(5) . 4_666
Al2 Al8 Ge2 109.72(6) . 4_666
Mn3 Al8 Al7 163.12(6) . 3_665
Mn2 Al8 Al7 59.31(4) . 3_665
Al2 Al8 Al7 111.53(6) . 3_665
Ge2 Al8 Al7 65.72(4) 4_666 3_665
Mn3 Al8 Al10 55.13(4) . .
Mn2 Al8 Al10 105.93(5) . .
Al2 Al8 Al10 89.40(6) . .
Ge2 Al8 Al10 138.27(6) 4_666 .
Al7 Al8 Al10 141.67(6) 3_665 .
Mn3 Al8 Al5 136.03(6) . 2_665
Mn2 Al8 Al5 53.03(4) . 2_665
Al2 Al8 Al5 112.49(6) . 2_665
Ge2 Al8 Al5 120.35(5) 4_666 2_665
Al7 Al8 Al5 60.65(5) 3_665 2_665
Al10 Al8 Al5 81.99(5) . 2_665
Mn3 Al8 Al3 122.47(6) . 3_665
Mn2 Al8 Al3 111.81(5) . 3_665
Al2 Al8 Al3 166.75(7) . 3_665
Ge2 Al8 Al3 58.51(4) 4_666 3_665
Al7 Al8 Al3 59.45(5) 3_665 3_665
Al10 Al8 Al3 103.56(6) . 3_665
Al5 Al8 Al3 72.73(5) 2_665 3_665
Mn3 Al8 Al4 70.94(4) . 5_556
Mn2 Al8 Al4 148.51(6) . 5_556
Al2 Al8 Al4 133.52(6) . 5_556
Ge2 Al8 Al4 83.32(5) 4_666 5_556
Al7 Al8 Al4 114.39(6) 3_665 5_556
Al10 Al8 Al4 58.06(5) . 5_556
Al5 Al8 Al4 96.05(6) 2_665 5_556
Al3 Al8 Al4 55.03(5) 3_665 5_556
Mn3 Al8 Al9 88.15(5) . .
Mn2 Al8 Al9 50.07(4) . .
Al2 Al8 Al9 63.27(5) . .
Ge2 Al8 Al9 165.27(6) 4_666 .
Al7 Al8 Al9 103.77(6) 3_665 .
Al10 Al8 Al9 56.34(4) . .
Al5 Al8 Al9 56.68(5) 2_665 .
Al3 Al8 Al9 126.48(6) 3_665 .
Al4 Al8 Al9 111.02(6) 5_556 .
Mn3 Al9 Mn2 169.96(7) 2 .
Mn3 Al9 Al10 61.51(4) 2 .
Mn2 Al9 Al10 114.32(6) . .
Mn3 Al9 Al5 114.22(6) 2 2_665
Mn2 Al9 Al5 55.74(4) . 2_665
Al10 Al9 Al5 84.23(6) . 2_665
Mn3 Al9 Al6 119.95(6) 2 .
Mn2 Al9 Al6 59.32(4) . .
Al10 Al9 Al6 154.45(7) . .
Al5 Al9 Al6 71.97(5) 2_665 .
Mn3 Al9 Al2 125.65(6) 2 6
Mn2 Al9 Al2 63.39(4) . 6
Al10 Al9 Al2 145.15(7) . 6
Al5 Al9 Al2 114.63(6) 2_665 6
Al6 Al9 Al2 57.77(5) . 6
Mn3 Al9 Al2 60.96(4) 2 2
Mn2 Al9 Al2 127.96(6) . 2
Al10 Al9 Al2 109.88(6) . 2
Al5 Al9 Al2 156.00(7) 2_665 2
Al6 Al9 Al2 89.94(5) . 2
Al2 Al9 Al2 64.70(5) 6 2
Mn3 Al9 Al7 58.37(4) 2 2
Mn2 Al9 Al7 121.01(6) . 2
Al10 Al9 Al7 116.14(6) . 2
Al5 Al9 Al7 101.67(6) 2_665 2
Al6 Al9 Al7 61.90(5) . 2
Al2 Al9 Al7 89.63(5) 6 2
Al2 Al9 Al7 54.97(4) 2 2
Mn3 Al9 Al2 123.11(6) 2 .
Mn2 Al9 Al2 63.37(4) . .
Al10 Al9 Al2 83.86(5) . .
Al5 Al9 Al2 104.48(6) 2_665 .
Al6 Al9 Al2 110.55(6) . .
Al2 Al9 Al2 63.66(5) 6 .
Al2 Al9 Al2 96.48(7) 2 .
Al7 Al9 Al2 148.53(6) 2 .
Mn3 Al9 Al1 60.76(4) 2 4
Mn2 Al9 Al1 125.63(6) . 4
Al10 Al9 Al1 55.38(6) . 4
Al5 Al9 Al1 137.47(7) 2_665 4
Al6 Al9 Al1 149.87(7) . 4
Al2 Al9 Al1 96.05(7) 6 4
Al2 Al9 Al1 63.40(5) 2 4
Al7 Al9 Al1 107.51(5) 2 4
Al2 Al9 Al1 62.46(5) . 4
Mn3 Al9 Al8 119.77(6) 2 .
Mn2 Al9 Al8 56.60(4) . .
Al10 Al9 Al8 58.28(5) . .
Al5 Al9 Al8 58.69(5) 2_665 .
Al6 Al9 Al8 113.32(6) . .
Al2 Al9 Al8 105.13(6) 6 .
Al2 Al9 Al8 145.22(6) 2 .
Al7 Al9 Al8 158.92(6) 2 .
Al2 Al9 Al8 52.14(4) . .
Al1 Al9 Al8 86.18(5) 4 .
Mn3 Al10 Al10 62.27(4) . 5_556
Mn3 Al10 Al10 137.97(4) . 6_556
Al10 Al10 Al10 85.10(7) 5_556 6_556
Mn3 Al10 Mn3 117.34(5) . 6_556
Al10 Al10 Mn3 60.72(6) 5_556 6_556
Al10 Al10 Mn3 57.00(6) 6_556 6_556
Mn3 Al10 Mn3 125.55(6) . 2
Al10 Al10 Mn3 134.53(4) 5_556 2
Al10 Al10 Mn3 60.35(4) 6_556 2
Mn3 Al10 Mn3 112.28(5) 6_556 2
Mn3 Al10 Al4 158.15(7) . .
Al10 Al10 Al4 134.24(8) 5_556 .
Al10 Al10 Al4 63.76(5) 6_556 .
Mn3 Al10 Al4 74.01(5) 6_556 .
Mn3 Al10 Al4 57.15(4) 2 .
Mn3 Al10 Al1 64.43(4) . 4
Al10 Al10 Al1 96.24(4) 5_556 4
Al10 Al10 Al1 96.24(4) 6_556 4
Mn3 Al10 Al1 143.82(7) 6_556 4
Mn3 Al10 Al1 62.52(3) 2 4
Al4 Al10 Al1 118.58(6) . 4
Mn3 Al10 Al9 95.44(5) . .
Al10 Al10 Al9 156.88(7) 5_556 .
Al10 Al10 Al9 111.07(6) 6_556 .
Mn3 Al10 Al9 141.85(6) 6_556 .
Mn3 Al10 Al9 52.43(4) 2 .
Al4 Al10 Al9 68.87(5) . .
Al1 Al10 Al9 66.54(6) 4 .
Mn3 Al10 Al4 74.11(5) . 5_556
Al10 Al10 Al4 59.12(6) 5_556 5_556
Al10 Al10 Al4 112.65(8) 6_556 5_556
Mn3 Al10 Al4 55.81(4) 6_556 5_556
Mn3 Al10 Al4 158.49(6) 2 5_556
Al4 Al10 Al4 101.34(5) . 5_556
Al1 Al10 Al4 138.34(6) 4 5_556
Al9 Al10 Al4 123.60(6) . 5_556
Mn3 Al10 Al8 57.41(4) . .
Al10 Al10 Al8 103.44(6) 5_556 .
Al10 Al10 Al8 163.90(6) 6_556 .
Mn3 Al10 Al8 115.13(6) 6_556 .
Mn3 Al10 Al8 117.79(6) 2 .
Al4 Al10 Al8 101.24(6) . .
Al1 Al10 Al8 96.35(6) 4 .
Al9 Al10 Al8 65.38(5) . .
Al4 Al10 Al8 62.61(5) 5_556 .
loop_
_geom_bond_atom_site_label_1
_geom_bond_atom_site_label_2
_geom_bond_distance
_geom_bond_site_symmetry_2
Mn1 Al5 2.4307(16) .
Mn1 Al5 2.4307(16) 3_565
Mn1 Al5 2.4307(16) 2_665
Mn1 Al4 2.5276(14) 3_565
Mn1 Al4 2.5276(14) .
Mn1 Al4 2.5276(14) 2_665
Mn1 Al3 2.5363(15) 5_566
Mn1 Al3 2.5363(15) 4_666
Mn1 Al3 2.5363(15) 6_556
Mn1 Ge2 2.8469(15) .
Mn2 Al9 2.4007(15) .
Mn2 Al5 2.4411(15) 2_665
Mn2 Al7 2.5245(15) 6
Mn2 Al6 2.5260(15) 2_665
Mn2 Al6 2.5930(15) .
Mn2 Al8 2.6137(15) .
Mn2 Al6 2.6196(15) 5
Mn2 Al7 2.6569(15) 3_665
Mn2 Al2 2.7802(15) 6
Mn2 Al2 2.8592(16) .
Mn2 Mn2 3.0616(13) 4_665
Mn3 Al9 2.3814(15) 3
Mn3 Al10 2.4929(15) .
Mn3 Al4 2.5302(15) 3
Mn3 Al8 2.5599(15) .
Mn3 Al3 2.5714(15) .
Mn3 Al7 2.6186(15) .
Mn3 Al10 2.6310(15) 5_556
Mn3 Al10 2.6406(15) 3
Mn3 Al2 2.7067(15) .
Mn3 Al1 2.7519(10) 4
Ge1 Al1 2.637(2) 4
Ge1 Al1 2.637(2) .
Ge1 Al2 2.6666(14) .
Ge1 Al2 2.6666(14) 4
Ge1 Al2 2.6666(14) 5
Ge1 Al2 2.6666(14) 6
Ge1 Al2 2.6666(14) 2
Ge1 Al2 2.6666(14) 3
Ge2 Al8 2.7359(14) 5_566
Ge2 Al8 2.7359(14) 6_556
Ge2 Al8 2.7359(14) 4_666
Ge2 Al3 2.7524(15) 5_566
Ge2 Al3 2.7524(15) 4_666
Ge2 Al3 2.7524(15) 6_556
Al1 Al10 2.662(2) 4
Al1 Al10 2.662(2) 5
Al1 Al10 2.662(2) 6
Al1 Mn3 2.7519(10) 4
Al1 Mn3 2.7519(10) 6
Al1 Mn3 2.7519(10) 5
Al1 Al9 2.9673(16) 5
Al1 Al9 2.9673(16) 4
Al1 Al9 2.9673(16) 6
Al2 Al8 2.6212(19) .
Al2 Al7 2.6727(19) .
Al2 Al6 2.7228(19) 5
Al2 Mn2 2.7802(15) 5
Al2 Al9 2.842(2) 5
Al2 Al9 2.885(2) 3
Al2 Al9 2.965(2) .
Al3 Mn1 2.5363(15) 4_666
Al3 Al4 2.6218(19) 5_556
Al3 Al4 2.624(2) 3
Al3 Al4 2.6735(19) 6_656
Al3 Ge2 2.7524(15) 4_666
Al3 Al7 2.7992(19) .
Al3 Al8 2.8898(19) 2_655
Al3 Al3 2.933(3) 4_656
Al4 Mn3 2.5302(15) 2
Al4 Al3 2.622(2) 6_556
Al4 Al3 2.624(2) 2
Al4 Al10 2.6494(19) .
Al4 Al3 2.6735(19) 5_566
Al4 Al10 2.7689(19) 6_556
Al4 Al5 2.851(2) .
Al4 Al8 2.897(2) 6_556
Al4 Al5 2.946(2) 2_665
Al5 Mn2 2.4411(15) 3_565
Al5 Al9 2.774(2) 3_565
Al5 Al7 2.821(2) 2
Al5 Al8 2.836(2) 3_565
Al5 Al5 2.870(2) 3_565
Al5 Al5 2.870(2) 2_665
Al5 Al4 2.946(2) 3_565
Al6 Mn2 2.5260(15) 3_565
Al6 Mn2 2.6196(15) 6
Al6 Al2 2.7228(19) 6
Al6 Al9 2.7939(19) .
Al6 Al6 2.840(2) 2_665
Al6 Al6 2.840(2) 3_565
Al6 Al7 2.9328(19) 2
Al6 Al7 2.9495(19) 5_565
Al7 Mn2 2.5245(15) 5
Al7 Mn2 2.6569(15) 2_655
Al7 Al8 2.7504(19) 2_655
Al7 Al5 2.821(2) 3
Al7 Al9 2.906(2) 3
Al7 Al6 2.9328(19) 3
Al7 Al6 2.9495(19) 6_655
Al8 Ge2 2.7359(14) 4_666
Al8 Al7 2.7504(19) 3_665
Al8 Al10 2.8062(19) .
Al8 Al5 2.836(2) 2_665
Al8 Al3 2.8898(19) 3_665
Al8 Al4 2.897(2) 5_556
Al8 Al9 2.9992(19) .
Al9 Mn3 2.3814(15) 2
Al9 Al10 2.7458(19) .
Al9 Al5 2.774(2) 2_665
Al9 Al2 2.842(2) 6
Al9 Al2 2.885(2) 2
Al9 Al7 2.906(2) 2
Al9 Al1 2.9673(16) 4
Al10 Al10 2.593(2) 5_556
Al10 Al10 2.593(2) 6_556
Al10 Mn3 2.6310(15) 6_556
Al10 Mn3 2.6406(15) 2
Al10 Al1 2.662(2) 4
Al10 Al4 2.7689(19) 5_556
