#------------------------------------------------------------------------------
#$Date: 2016-02-16 22:30:59 +0200 (Tue, 16 Feb 2016) $
#$Revision: 176467 $
#$URL: svn://www.crystallography.net/cod/cif/4/11/64/4116445.cif $
#------------------------------------------------------------------------------
#
# This file is available in the Crystallography Open Database (COD),
# http://www.crystallography.net/
#
# All data on this site have been placed in the public domain by the
# contributors.
#
data_4116445
loop_
_publ_author_name
'T. M. Barclay'
'L. Beer'
'A. W. Cordes'
'R. C. Haddon'
'M. I. Itkis'
'R. T. Oakley'
'K. E. Preuss'
'R. W. Reed'
_publ_section_title
;
 trans-4,4'-Dichloro-1,1',2,2',3,3'-tetrathiadiazafulvalene (DC-TAF) and
 Its 1:1 Radical Cation Salts [DC-TAF][X]: Preparation and Solid-State
 Properties of BF4-, ClO4-, and FSO3- Derivatives
;
_journal_name_full               'Journal of the American Chemical Society'
_journal_page_first              6657
_journal_page_last               6663
_journal_paper_doi               10.1021/ja990933z
_journal_volume                  121
_journal_year                    1999
_chemical_formula_moiety         'S4 Cl2 F4 B N2 C4 '
_chemical_formula_sum            'C4 B Cl2 F4 N2 S4'
_chemical_formula_weight         362.00
_chemical_name_systematic        ?
_space_group_IT_number           14
_symmetry_cell_setting           monoclinic
_symmetry_space_group_name_Hall  '-P 2yn'
_symmetry_space_group_name_H-M   'P 1 21/n 1'
_cell_angle_alpha                90.0
_cell_angle_beta                 92.450(20)
_cell_angle_gamma                90.0
_cell_formula_units_Z            4
_cell_length_a                   7.2873(17)
_cell_length_b                   13.992(2)
_cell_length_c                   10.872(4)
_cell_measurement_reflns_used    25
_cell_measurement_temperature    293
_cell_measurement_theta_max      12.00
_cell_measurement_theta_min      10.00
_cell_volume                     1107.5(5)
_computing_data_reduction        'NRCVAX DATRD2'
_computing_molecular_graphics    NRCVAX
_computing_publication_material  'NRCVAX TABLES Jan 94 Version'
_computing_structure_refinement  'NRCVAX LSTSQ'
_computing_structure_solution    'NRCVAX SOLVER'
_diffrn_ambient_temperature      293
_diffrn_measurement_device       'Nonius CAD-4    '
_diffrn_measurement_method       'Theta/2theta scan b/P/b '
_diffrn_radiation_monochromator  graphite
_diffrn_radiation_source         'xray tube'
_diffrn_radiation_type           'Molybdenum K\a'
_diffrn_radiation_wavelength     0.7107
_diffrn_reflns_av_R_equivalents  0.024
_diffrn_reflns_limit_h_max       8
_diffrn_reflns_limit_h_min       -8
_diffrn_reflns_limit_k_max       0
_diffrn_reflns_limit_k_min       -16
_diffrn_reflns_limit_l_max       12
_diffrn_reflns_limit_l_min       0
_diffrn_reflns_number            2048
_diffrn_reflns_theta_max         25.00
_diffrn_reflns_theta_min         2.00
_diffrn_standards_decay_%        1.6
_diffrn_standards_interval_time  60
_diffrn_standards_number         3
_exptl_absorpt_coefficient_mu    1.34
_exptl_absorpt_correction_T_max  0.85
_exptl_absorpt_correction_T_min  0.80
_exptl_absorpt_correction_type   integration
_exptl_crystal_colour            green
_exptl_crystal_density_diffrn    2.171
_exptl_crystal_F_000             711.12
_exptl_crystal_size_max          0.40
_exptl_crystal_size_mid          0.18
_exptl_crystal_size_min          0.15
_refine_diff_density_max         0.42
_refine_diff_density_min         -0.38
_refine_ls_extinction_coef       2929(617)
_refine_ls_extinction_method     Larson
_refine_ls_goodness_of_fit_obs   1.01
_refine_ls_matrix_type           full
_refine_ls_number_parameters     155
_refine_ls_number_reflns         1445
_refine_ls_R_factor_obs          0.039
_refine_ls_shift/esd_max         0.000
_refine_ls_structure_factor_coef F
_refine_ls_weighting_details     'w = 1/(\s^2^(F)+0.0009F^2^)'
_refine_ls_weighting_scheme      calc
_refine_ls_wR_factor_obs         0.046
_reflns_number_observed          1449
_reflns_number_total             1944
_reflns_observed_criterion       'Inet > 1.0\s(Inet)'
_cod_data_source_file            ja990933z_1.cif
_cod_data_source_block           '[DC-TAF][BF4]'
_cod_depositor_comments
;
The following automatic conversions were performed:

'_refine_ls_weighting_scheme' value '1/(\s^2^(F)+0.0009F^2^)' was
changed to 'calc'. New tag '_refine_ls_weighting_details' was
created. The value of the new tag was set to 'w =
1/(\s^2^(F)+0.0009F^2^)'.

Automatic conversion script
Id: cif_fix_values 3143 2015-03-26 13:38:13Z robertas 
;
_cod_original_sg_symbol_H-M      'P 21/n'
_cod_original_formula_sum        'S4 Cl2 F4 B N2 C4 '
_cod_database_code               4116445
loop_
_symmetry_equiv_pos_as_xyz
x,y,z
-x,-y,-z
1/2-x,1/2+y,1/2-z
1/2+x,1/2-y,1/2+z
loop_
_atom_site_aniso_label
_atom_site_aniso_U_11
_atom_site_aniso_U_22
_atom_site_aniso_U_33
_atom_site_aniso_U_12
_atom_site_aniso_U_13
_atom_site_aniso_U_23
_atom_site_aniso_type_symbol
S1 0.0300(6) 0.0452(7) 0.0548(8) 0.0103(5) 0.0105(5) 0.0036(5) S
S2 0.0260(6) 0.0412(6) 0.0405(6) 0.0036(4) 0.0101(5) 0.0048(5) S
S3 0.0254(5) 0.0407(6) 0.0351(6) 0.0038(4) 0.0092(4) 0.0043(5) S
S4 0.0322(6) 0.0414(6) 0.0518(7) 0.0101(5) 0.0121(5) 0.0020(5) S
Cl1 0.0491(7) 0.0580(8) 0.0782(10) 0.0160(6) 0.0351(7) 0.0326(7) Cl
Cl2 0.0543(8) 0.0440(7) 0.0607(8) 0.0050(5) 0.0303(6) 0.0153(6) Cl
F1 0.0428(15) 0.0618(17) 0.0593(18) 0.0181(13) 0.0090(13) -0.0028(14) F
F2 0.0490(17) 0.0740(20) 0.0641(20) -0.0146(14) 0.0238(15) -0.0034(15) F
F3 0.0688(20) 0.0539(17) 0.0513(17) 0.0145(14) -0.0044(14) 0.0125(14) F
F4 0.0734(20) 0.0507(17) 0.0517(17) -0.0054(14) -0.0110(15) -0.0114(14) F
B 0.0282(23) 0.038(3) 0.033(3) 0.0010(21) 0.0043(20) -0.0015(22) B
N1 0.0370(21) 0.0442(22) 0.0514(24) 0.0108(17) 0.0129(17) 0.0102(18) n
N2 0.0418(21) 0.0346(19) 0.0492(22) 0.0082(17) 0.0156(18) 0.0063(17) n
C1 0.0309(22) 0.0406(23) 0.0410(25) 0.0039(19) 0.0081(19) 0.0053(19) C
C2 0.0219(19) 0.0370(22) 0.0237(20) 0.0013(16) 0.0023(16) 0.0015(17) C
C3 0.0259(19) 0.0327(21) 0.0240(20) -0.0006(17) 0.0062(16) -0.0043(17) C
C4 0.0303(22) 0.0383(23) 0.0314(22) -0.0035(18) 0.0055(18) -0.0010(19) C
loop_
_atom_site_label
_atom_site_fract_x
_atom_site_fract_y
_atom_site_fract_z
_atom_site_U_iso_or_equiv
_atom_site_thermal_displace_type
_atom_site_type_symbol
S1 0.26738(14) 0.90039(8) -0.04255(11) 0.0431(6) Uij S
S2 0.39023(14) 0.77563(8) 0.01486(10) 0.0357(6) Uij S
S3 0.91495(14) 0.73986(7) -0.16030(10) 0.0335(5) Uij S
S4 1.03495(15) 0.61369(8) -0.10393(11) 0.0415(6) Uij S
Cl1 0.73904(17) 0.92259(9) -0.22483(13) 0.0609(7) Uij Cl
Cl2 0.57994(17) 0.60254(8) 0.09746(11) 0.0522(7) Uij Cl
F1 1.0468(4) 0.78766(20) 0.1420(3) 0.0545(16) Uij F
F2 0.7675(4) 0.79967(22) 0.2194(3) 0.0618(17) Uij F
F3 0.8623(4) 0.90859(19) 0.08353(25) 0.0582(16) Uij F
F4 0.9895(4) 0.90434(18) 0.27733(25) 0.0590(17) Uij F
B 0.9173(6) 0.8512(3) 0.1815(4) 0.0331(24) Uij B
N1 0.4267(5) 0.9368(3) -0.1307(4) 0.0439(20) Uij n
N2 0.8796(5) 0.58184(24) -0.0093(3) 0.0415(19) Uij n
C1 0.5676(6) 0.8811(3) -0.1371(4) 0.0373(22) Uij C
C2 0.5819(5) 0.7930(3) -0.0700(3) 0.0275(20) Uij C
C3 0.7267(5) 0.7261(3) -0.0706(3) 0.0274(18) Uij C
C4 0.7428(5) 0.6385(3) -0.0012(4) 0.0332(20) Uij C
loop_
_atom_type_symbol
_atom_type_scat_dispersion_real
_atom_type_scat_dispersion_imag
_atom_type_scat_source
S 0.110 0.124 'International Tables Vol. IV Table 2.2B'
Cl 0.132 0.159 'International Tables Vol. IV Table 2.2B'
F 0.014 0.010 'International Tables Vol. IV Table 2.2B'
B 0.000 0.001 'International Tables Vol. IV Table 2.2B'
N 0.004 0.003 'International Tables Vol. IV Table 2.2B'
C 0.002 0.002 'International Tables Vol. IV Table 2.2B'
loop_
_diffrn_standard_refln_index_h
_diffrn_standard_refln_index_k
_diffrn_standard_refln_index_l
1 -5 4
-3 1 4
-1 -6 3
loop_
_geom_angle_atom_site_label_1
_geom_angle_atom_site_label_2
_geom_angle_atom_site_label_3
_geom_angle
S2 S1 N1 97.68(13)
S1 S2 C2 94.03(14)
S4 S3 C3 94.27(14)
S3 S4 N2 97.20(13)
F1 B F2 108.4(4)
F1 B F3 108.4(4)
F1 B F4 110.0(4)
F2 B F3 109.0(4)
F2 B F4 109.8(4)
F3 B F4 111.2(4)
S1 N1 C1 115.6(3)
S4 N2 C4 116.1(3)
Cl1 C1 N1 115.3(3)
Cl1 C1 C2 122.5(3)
N1 C1 C2 122.1(4)
S2 C2 C1 110.5(3)
S2 C2 C3 122.2(3)
C1 C2 C3 127.3(3)
S3 C3 C2 122.8(3)
S3 C3 C4 109.9(3)
C2 C3 C4 127.3(3)
Cl2 C4 N2 115.1(3)
Cl2 C4 C3 122.4(3)
N2 C4 C3 122.5(4)
loop_
_geom_bond_atom_site_label_1
_geom_bond_atom_site_label_2
_geom_bond_distance
S1 S2 2.0471(15)
S1 N1 1.619(4)
S2 C2 1.724(4)
S3 S4 2.0521(15)
S3 C3 1.728(4)
S4 N2 1.624(4)
Cl1 C1 1.706(4)
Cl2 C4 1.709(4)
F1 B 1.378(5)
F2 B 1.385(5)
F3 B 1.380(5)
F4 B 1.367(5)
N1 C1 1.293(5)
N2 C4 1.279(5)
C1 C2 1.434(6)
C2 C3 1.410(5)
C3 C4 1.442(6)
