#------------------------------------------------------------------------------
#$Date: 2016-03-22 12:17:29 +0200 (Tue, 22 Mar 2016) $
#$Revision: 178944 $
#$URL: svn://www.crystallography.net/cod/cif/4/11/73/4117368.cif $
#------------------------------------------------------------------------------
#
# This file is available in the Crystallography Open Database (COD),
# http://www.crystallography.net/
#
# All data on this site have been placed in the public domain by the
# contributors.
#
data_4117368
loop_
_publ_author_name
'Christopher M. Kareis'
'Saul H. Lapidus'
'Jae-Hyuk Her'
'Peter W. Stephens'
'Joel S. Miller'
_publ_section_title
;
 Non-Prussian Blue Structures and Magnetic Ordering of Na2MnII[MnII(CN)6]
 and Na2MnII[MnII(CN)6].2H2O
;
_journal_name_full               'Journal of the American Chemical Society'
_journal_page_first              2246
_journal_page_last               2254
_journal_paper_doi               10.1021/ja209799y
_journal_volume                  134
_journal_year                    2012
_chemical_formula_moiety         'C3 Mn N3, O, Na'
_chemical_formula_sum            'C3 Mn N3 Na O'
_chemical_formula_weight         171.99
_chemical_name_systematic
;
?
;
_space_group_IT_number           14
_symmetry_cell_setting           monoclinic
_symmetry_Int_Tables_number      14
_symmetry_space_group_name_Hall  '-P 2yn'
_symmetry_space_group_name_H-M   'P 1 21/n 1'
_cell_angle_alpha                90
_cell_angle_beta                 92.4379(28)
_cell_angle_gamma                90
_cell_formula_units_Z            4
_cell_length_a                   10.66744(32)
_cell_length_b                   7.60223(23)
_cell_length_c                   7.40713(22)
_cell_measurement_temperature    300
_cell_volume                     600.15(3)
_computing_cell_refinement       TOPAS-Academic
_computing_data_collection       SPEC
_computing_data_reduction        TOPAS-Academic
_computing_structure_refinement  TOPAS-Academic
_computing_structure_solution    TOPAS-Academic
_diffrn_ambient_temperature      300
_diffrn_detector                 'NaI scintillation counter'
_diffrn_measurement_device_type  'Huber diffractometer'
_diffrn_radiation_monochromator  'Si(111) channel cut'
_diffrn_radiation_type           synchrotron
_diffrn_radiation_wavelength     0.697106
_diffrn_source                   synchrotron
_pd_block_diffractogram_id       1-H2O
_pd_instr_location
;
X16C, National Synchrotron Light Source, Brookhaven National Laboratory
;
_pd_meas_2theta_range_inc        0.005
_pd_meas_2theta_range_max        46.0
_pd_meas_2theta_range_min        6.0
_pd_meas_number_of_points        8001
_pd_meas_scan_method             step
_pd_proc_2theta_range_inc        0.005
_pd_proc_2theta_range_max        46.0
_pd_proc_2theta_range_min        6.0
_pd_proc_ls_background_function
;
3 Pearson-Voight peaks and Chebyshev polynomial with 9 coefficients
;
_pd_proc_ls_pref_orient_corr
;
none
;
_pd_proc_ls_profile_function
;
Simple_Axial_model function with Rp=9999,Rs=330 in TOPAS-Academic
;
_pd_proc_ls_prof_R_factor        0.06222
_pd_proc_ls_prof_wR_expected     0.04597
_pd_proc_ls_prof_wR_factor       0.0788
_pd_proc_wavelength              0.697106
_pd_spec_mounting
;
capillary
;
_pd_spec_mount_mode              transmission
_pd_spec_shape                   cylinder
_refine_ls_goodness_of_fit_all   1.714
_refine_ls_number_parameters     67
_refine_ls_weighting_details     1/(sigma*sigma)
_refine_ls_weighting_scheme      sigma
_cod_data_source_file            ja209799y_si_001_1.cif
_cod_data_source_block           1-H2O
_cod_original_cell_volume        600.148(31)
_cod_original_sg_symbol_H-M      'P 21/n'
_cod_database_code               4117368
_cod_database_fobs_code          4117368
loop_
_symmetry_equiv_pos_site_id
_symmetry_equiv_pos_as_xyz
1 x,y,z
2 1/2-x,1/2+y,1/2-z
3 -x,-y,-z
4 1/2+x,1/2-y,1/2+z
loop_
_atom_site_label
_atom_site_type_symbol
_atom_site_thermal_displace_type
_atom_site_fract_x
_atom_site_fract_y
_atom_site_fract_z
_atom_site_occupancy
_atom_site_U_iso_or_equiv
Mn1 Mn Uiso 0.50000 0.50000 0.50000 1.000 0.0107(2)
Mn2 Mn Uiso 0.50000 0.00000 1.00000 1.000 0.0107(2)
N1 N Uiso 0.5058(8) 0.3233(5) 0.7463(6) 1.000 0.0107(2)
N2 N Uiso 0.2876(3) 0.4917(11) 0.4831(12) 1.000 0.0107(2)
N3 N Uiso 0.4998(7) 0.2555(8) 0.3254(9) 1.000 0.0107(2)
C1 C Uiso 0.5034(9) 0.2031(10) 0.8357(11) 1.000 0.0107(2)
C2 C Uiso 0.1828(4) 0.4923(11) 0.4981(8) 1.000 0.0107(2)
C3 C Uiso 0.5042(8) 0.1643(11) 0.2055(9) 1.000 0.0107(2)
O1 O Uiso 0.2522(3) 0.2160(4) 0.2874(4) 1.000 0.0107(2)
Na1 Na Uiso 0.2425(6) 0.4480(5) 0.0347(14) 1.000 0.1150(14)
loop_
_geom_angle_atom_site_label_1
_geom_angle_atom_site_label_2
_geom_angle_atom_site_label_3
_geom_angle
_geom_angle_site_symmetry_1
_geom_angle_site_symmetry_3
_geom_angle_publ_flag
N1 Mn1 N2 91.2(3) . . yes
N1 Mn1 N3 88.43(19) . . yes
N1 Mn1 N1 180.00 . 3_666 yes
N1 Mn1 N2 88.8(3) . 3_666 yes
N1 Mn1 N3 91.57(19) . 3_666 yes
N2 Mn1 N3 88.2(3) . . yes
N1 Mn1 N2 88.8(3) 3_666 . yes
N2 Mn1 N2 180.00 . 3_666 yes
N2 Mn1 N3 91.8(3) . 3_666 yes
N1 Mn1 N3 91.58(19) 3_666 . yes
N2 Mn1 N3 91.8(3) 3_666 . yes
N3 Mn1 N3 180.00 . 3_666 yes
N1 Mn1 N2 91.2(3) 3_666 3_666 yes
N1 Mn1 N3 88.43(19) 3_666 3_666 yes
N2 Mn1 N3 88.2(3) 3_666 3_666 yes
C1 Mn2 C3 88.9(3) . 1_556 yes
C1 Mn2 C2 94.2(4) . 2_546 yes
C1 Mn2 C3 91.2(3) . 3_656 yes
C1 Mn2 C1 180.00 . 3_657 yes
C1 Mn2 C2 85.8(4) . 4_555 yes
C2 Mn2 C3 90.2(3) 2_546 1_556 yes
C3 Mn2 C3 180.00 1_556 3_656 yes
C1 Mn2 C3 91.2(3) 3_657 1_556 yes
C2 Mn2 C3 89.8(3) 4_555 1_556 yes
C2 Mn2 C3 89.8(3) 2_546 3_656 yes
C1 Mn2 C2 85.8(4) 3_657 2_546 yes
C2 Mn2 C2 180.00 2_546 4_555 yes
C1 Mn2 C3 88.9(3) 3_657 3_656 yes
C2 Mn2 C3 90.2(3) 4_555 3_656 yes
C1 Mn2 C2 94.2(4) 3_657 4_555 yes
Mn1 N1 C1 162.2(5) . . yes
Mn1 N2 C2 171.0(7) . . yes
Mn1 N3 C3 162.6(6) . . yes
Mn2 C1 N1 177.7(7) . . yes
Mn2 C2 N2 174.6(7) 2_556 . yes
Mn2 C3 N3 176.0(8) 1_554 . yes
loop_
_geom_bond_atom_site_label_1
_geom_bond_atom_site_label_2
_geom_bond_distance
_geom_bond_site_symmetry_2
_geom_bond_publ_flag
Mn1 N1 2.264(4) . yes
Mn1 N2 2.265(3) . yes
Mn1 N3 2.264(6) . yes
Mn1 N1 2.264(4) 3_666 yes
Mn1 N2 2.265(3) 3_666 yes
Mn1 N3 2.264(6) 3_666 yes
Mn2 C1 1.967(8) . yes
Mn2 C3 1.968(7) 1_556 yes
Mn2 C2 1.951(4) 2_546 yes
Mn2 C3 1.968(7) 3_656 yes
Mn2 C1 1.967(8) 3_657 yes
Mn2 C2 1.952(4) 4_555 yes
N1 C1 1.129(9) . yes
N2 C2 1.128(5) . yes
N3 C3 1.129(10) . yes
