#------------------------------------------------------------------------------
#$Date: 2016-03-22 12:22:20 +0200 (Tue, 22 Mar 2016) $
#$Revision: 178947 $
#$URL: svn://www.crystallography.net/cod/cif/4/11/76/4117647.cif $
#------------------------------------------------------------------------------
#
# This file is available in the Crystallography Open Database (COD),
# http://www.crystallography.net/
#
# All data on this site have been placed in the public domain by the
# contributors.
#
data_4117647
loop_
_publ_author_name
'Qisheng Lin'
'John D Corbett'
_publ_section_title
;
 Formation of Nets of Corner-Shared Bicapped Gold Squares in SrAu3Ge: How
 a BaAl4- Type Derivative Reconciles Fewer Valence Electrons and the
 Origin of Its Uniaxial Negative Thermal Expansion
;
_journal_name_full               'Journal of the American Chemical Society'
_journal_page_first              4877
_journal_page_last               4884
_journal_paper_doi               10.1021/ja211625w
_journal_volume                  134
_journal_year                    2012
_chemical_formula_sum            'Au3 Ge Sr'
_chemical_formula_weight         751.11
_chemical_name_systematic
; 
 ? 
;
_space_group_IT_number           129
_symmetry_cell_setting           tetragonal
_symmetry_space_group_name_Hall  '-P 4a 2a'
_symmetry_space_group_name_H-M   'P 4/n m m :2'
_atom_sites_solution_primary     direct
_atom_sites_solution_secondary   difmap
_audit_creation_method           SHELXL-97
_cell_angle_alpha                90.00
_cell_angle_beta                 90.00
_cell_angle_gamma                90.00
_cell_formula_units_Z            2
_cell_length_a                   6.2490(9)
_cell_length_b                   6.2490(9)
_cell_length_c                   5.5104(8)
_cell_measurement_reflns_used    1771
_cell_measurement_temperature    110(2)
_cell_measurement_theta_max      28.25
_cell_measurement_theta_min      3.70
_cell_volume                     215.18(5)
_computing_structure_refinement  'SHELXL-97 (Sheldrick, 1997)'
_computing_structure_solution    'SHELXS-97 (Sheldrick, 1990)'
_diffrn_ambient_temperature      110(2)
_diffrn_measured_fraction_theta_full 0.989
_diffrn_measured_fraction_theta_max 0.989
_diffrn_radiation_monochromator  graphite
_diffrn_radiation_source         'fine-focus sealed tube'
_diffrn_radiation_type           MoK\a
_diffrn_radiation_wavelength     0.71073
_diffrn_reflns_av_R_equivalents  0.0413
_diffrn_reflns_av_sigmaI/netI    0.0221
_diffrn_reflns_limit_h_max       8
_diffrn_reflns_limit_h_min       -8
_diffrn_reflns_limit_k_max       8
_diffrn_reflns_limit_k_min       -8
_diffrn_reflns_limit_l_max       7
_diffrn_reflns_limit_l_min       -7
_diffrn_reflns_number            1771
_diffrn_reflns_theta_full        28.25
_diffrn_reflns_theta_max         28.25
_diffrn_reflns_theta_min         3.70
_exptl_absorpt_coefficient_mu    120.287
_exptl_absorpt_correction_T_max  0.182
_exptl_absorpt_correction_T_min  0.063
_exptl_absorpt_correction_type   empirical
_exptl_absorpt_process_details   SADABS
_exptl_crystal_density_diffrn    11.533
_exptl_crystal_F_000             614
_exptl_crystal_size_max          0.026
_exptl_crystal_size_mid          0.020
_exptl_crystal_size_min          0.014
_refine_diff_density_max         1.959
_refine_diff_density_min         -2.026
_refine_diff_density_rms         0.477
_refine_ls_extinction_coef       0.0021(3)
_refine_ls_extinction_expression Fc^*^=kFc[1+0.001xFc^2^\l^3^/sin(2\q)]^-1/4^
_refine_ls_extinction_method     SHELXL
_refine_ls_goodness_of_fit_ref   1.209
_refine_ls_matrix_type           full
_refine_ls_number_parameters     14
_refine_ls_number_reflns         175
_refine_ls_number_restraints     0
_refine_ls_restrained_S_all      1.209
_refine_ls_R_factor_all          0.0223
_refine_ls_R_factor_gt           0.0214
_refine_ls_shift/su_max          0.000
_refine_ls_shift/su_mean         0.000
_refine_ls_structure_factor_coef Fsqd
_refine_ls_weighting_details
'calc w=1/[\s^2^(Fo^2^)+(0.0148P)^2^+6.9486P] where P=(Fo^2^+2Fc^2^)/3'
_refine_ls_weighting_scheme      calc
_refine_ls_wR_factor_gt          0.0483
_refine_ls_wR_factor_ref         0.0485
_reflns_number_gt                166
_reflns_number_total             175
_reflns_threshold_expression     >2sigma(I)
_cod_data_source_file            ja211625w_si_002_3.cif
_cod_data_source_block           SrAu3Ge_110K
_cod_original_sg_symbol_H-M      'P 4/n m m'
_cod_database_code               4117647
loop_
_symmetry_equiv_pos_as_xyz
'x, y, z'
'-x+1/2, -y+1/2, z'
'-y+1/2, x, z'
'y, -x+1/2, z'
'-x, y+1/2, -z'
'x+1/2, -y, -z'
'y+1/2, x+1/2, -z'
'-y, -x, -z'
'-x, -y, -z'
'x-1/2, y-1/2, -z'
'y-1/2, -x, -z'
'-y, x-1/2, -z'
'x, -y-1/2, z'
'-x-1/2, y, z'
'-y-1/2, -x-1/2, z'
'y, x, z'
loop_
_atom_site_label
_atom_site_type_symbol
_atom_site_fract_x
_atom_site_fract_y
_atom_site_fract_z
_atom_site_U_iso_or_equiv
_atom_site_adp_type
_atom_site_occupancy
_atom_site_symmetry_multiplicity
_atom_site_calc_flag
_atom_site_refinement_flags
Au1 Au 0.0000 0.5000 0.5000 0.0114(3) Uani 1 4 d S
Au2 Au 0.2500 0.2500 0.81975(17) 0.0095(3) Uani 1 8 d S
Ge Ge 0.2500 0.2500 0.2656(5) 0.0078(5) Uani 1 8 d S
Sr Sr 0.2500 0.7500 0.0000 0.0080(5) Uani 1 8 d S
loop_
_atom_site_aniso_label
_atom_site_aniso_U_11
_atom_site_aniso_U_22
_atom_site_aniso_U_33
_atom_site_aniso_U_23
_atom_site_aniso_U_13
_atom_site_aniso_U_12
Au1 0.0140(3) 0.0140(3) 0.0062(4) -0.00018(16) 0.00018(16) 0.0063(3)
Au2 0.0111(4) 0.0111(4) 0.0061(5) 0.000 0.000 0.000
Ge 0.0084(8) 0.0084(8) 0.0066(11) 0.000 0.000 0.000
Sr 0.0089(7) 0.0089(7) 0.0064(11) 0.000 0.000 0.000
loop_
_atom_type_symbol
_atom_type_description
_atom_type_scat_dispersion_real
_atom_type_scat_dispersion_imag
_atom_type_scat_source
Ge Ge 0.1547 1.8001 'International Tables Vol C Tables 4.2.6.8 and 6.1.1.4'
Sr Sr -1.5307 3.2498 'International Tables Vol C Tables 4.2.6.8 and 6.1.1.4'
Au Au -2.0133 8.8022 'International Tables Vol C Tables 4.2.6.8 and 6.1.1.4'
loop_
_geom_angle_atom_site_label_1
_geom_angle_atom_site_label_2
_geom_angle_atom_site_label_3
_geom_angle
_geom_angle_site_symmetry_1
_geom_angle_site_symmetry_3
Ge Au1 Ge 180.0 9_566 .
Ge Au1 Au2 111.12(5) 9_566 .
Ge Au1 Au2 68.88(5) . .
Ge Au1 Au2 68.88(5) 9_566 9_566
Ge Au1 Au2 111.12(5) . 9_566
Au2 Au1 Au2 180.0 . 9_566
Ge Au1 Au1 127.62(2) 9_566 3
Ge Au1 Au1 52.38(2) . 3
Au2 Au1 Au1 56.438(8) . 3
Au2 Au1 Au1 123.562(8) 9_566 3
Ge Au1 Au1 52.38(2) 9_566 3_565
Ge Au1 Au1 127.62(2) . 3_565
Au2 Au1 Au1 123.562(8) . 3_565
Au2 Au1 Au1 56.438(8) 9_566 3_565
Au1 Au1 Au1 180.0 3 3_565
Ge Au1 Au1 52.38(2) 9_566 4_455
Ge Au1 Au1 127.62(2) . 4_455
Au2 Au1 Au1 123.562(9) . 4_455
Au2 Au1 Au1 56.438(8) 9_566 4_455
Au1 Au1 Au1 90.0 3 4_455
Au1 Au1 Au1 90.0 3_565 4_455
Ge Au1 Au1 127.62(2) 9_566 4
Ge Au1 Au1 52.38(2) . 4
Au2 Au1 Au1 56.438(8) . 4
Au2 Au1 Au1 123.562(9) 9_566 4
Au1 Au1 Au1 90.0 3 4
Au1 Au1 Au1 90.0 3_565 4
Au1 Au1 Au1 180.0 4_455 4
Ge Au1 Sr 113.18(4) 9_566 9_565
Ge Au1 Sr 66.82(4) . 9_565
Au2 Au1 Sr 119.106(12) . 9_565
Au2 Au1 Sr 60.894(12) 9_566 9_565
Au1 Au1 Sr 63.745(4) 3 9_565
Au1 Au1 Sr 116.255(4) 3_565 9_565
Au1 Au1 Sr 63.745(4) 4_455 9_565
Au1 Au1 Sr 116.255(4) 4 9_565
Ge Au1 Sr 66.82(4) 9_566 1_556
Ge Au1 Sr 113.18(4) . 1_556
Au2 Au1 Sr 60.894(12) . 1_556
Au2 Au1 Sr 119.106(12) 9_566 1_556
Au1 Au1 Sr 116.255(3) 3 1_556
Au1 Au1 Sr 63.745(3) 3_565 1_556
Au1 Au1 Sr 116.255(4) 4_455 1_556
Au1 Au1 Sr 63.745(4) 4 1_556
Sr Au1 Sr 180.0 9_565 1_556
Ge Au1 Sr 66.82(4) 9_566 9_566
Ge Au1 Sr 113.18(4) . 9_566
Au2 Au1 Sr 60.894(12) . 9_566
Au2 Au1 Sr 119.106(12) 9_566 9_566
Au1 Au1 Sr 63.745(3) 3 9_566
Au1 Au1 Sr 116.255(3) 3_565 9_566
Au1 Au1 Sr 63.745(3) 4_455 9_566
Au1 Au1 Sr 116.255(3) 4 9_566
Sr Au1 Sr 102.549(11) 9_565 9_566
Sr Au1 Sr 77.451(11) 1_556 9_566
Ge Au1 Sr 113.18(4) 9_566 .
Ge Au1 Sr 66.82(4) . .
Au2 Au1 Sr 119.106(12) . .
Au2 Au1 Sr 60.894(12) 9_566 .
Au1 Au1 Sr 116.255(4) 3 .
Au1 Au1 Sr 63.745(4) 3_565 .
Au1 Au1 Sr 116.255(3) 4_455 .
Au1 Au1 Sr 63.745(3) 4 .
Sr Au1 Sr 77.451(11) 9_565 .
Sr Au1 Sr 102.549(11) 1_556 .
Sr Au1 Sr 180.0 9_566 .
Ge Au2 Au1 128.572(16) 1_556 3
Ge Au2 Au1 128.572(16) 1_556 .
Au1 Au2 Au1 67.123(17) 3 .
Ge Au2 Au1 128.572(16) 1_556 2
Au1 Au2 Au1 67.123(17) 3 2
Au1 Au2 Au1 102.86(3) . 2
Ge Au2 Au1 128.572(16) 1_556 4
Au1 Au2 Au1 102.86(3) 3 4
Au1 Au2 Au1 67.124(17) . 4
Au1 Au2 Au1 67.124(17) 2 4
Ge Au2 Ge 180.000(1) 1_556 .
Au1 Au2 Ge 51.428(16) 3 .
Au1 Au2 Ge 51.428(16) . .
Au1 Au2 Ge 51.428(16) 2 .
Au1 Au2 Ge 51.428(16) 4 .
Ge Au2 Sr 72.365(16) 1_556 9_666
Au1 Au2 Sr 135.704(13) 3 9_666
Au1 Au2 Sr 135.704(13) . 9_666
Au1 Au2 Sr 70.247(7) 2 9_666
Au1 Au2 Sr 70.247(7) 4 9_666
Ge Au2 Sr 107.635(16) . 9_666
Ge Au2 Sr 72.365(16) 1_556 1_556
Au1 Au2 Sr 135.704(13) 3 1_556
Au1 Au2 Sr 70.247(7) . 1_556
Au1 Au2 Sr 135.704(13) 2 1_556
Au1 Au2 Sr 70.247(7) 4 1_556
Ge Au2 Sr 107.635(16) . 1_556
Sr Au2 Sr 84.734(9) 9_666 1_556
Ge Au2 Sr 72.365(16) 1_556 1_546
Au1 Au2 Sr 70.247(7) 3 1_546
Au1 Au2 Sr 135.704(13) . 1_546
Au1 Au2 Sr 70.247(7) 2 1_546
Au1 Au2 Sr 135.704(13) 4 1_546
Ge Au2 Sr 107.635(16) . 1_546
Sr Au2 Sr 84.734(9) 9_666 1_546
Sr Au2 Sr 144.73(3) 1_556 1_546
Ge Au2 Sr 72.365(16) 1_556 9_566
Au1 Au2 Sr 70.247(7) 3 9_566
Au1 Au2 Sr 70.247(7) . 9_566
Au1 Au2 Sr 135.704(13) 2 9_566
Au1 Au2 Sr 135.704(13) 4 9_566
Ge Au2 Sr 107.635(16) . 9_566
Sr Au2 Sr 144.73(3) 9_666 9_566
Sr Au2 Sr 84.734(9) 1_556 9_566
Sr Au2 Sr 84.734(9) 1_546 9_566
Au2 Ge Au1 120.31(5) 1_554 4
Au2 Ge Au1 120.31(5) 1_554 3
Au1 Ge Au1 119.38(10) 4 3
Au2 Ge Au1 120.31(5) 1_554 .
Au1 Ge Au1 75.25(4) 4 .
Au1 Ge Au1 75.25(4) 3 .
Au2 Ge Au1 120.31(5) 1_554 2
Au1 Ge Au1 75.25(4) 4 2
Au1 Ge Au1 75.25(4) 3 2
Au1 Ge Au1 119.38(10) . 2
Au2 Ge Au2 180.0 1_554 .
Au1 Ge Au2 59.69(5) 4 .
Au1 Ge Au2 59.69(5) 3 .
Au1 Ge Au2 59.69(5) . .
Au1 Ge Au2 59.69(5) 2 .
Au2 Ge Sr 64.90(4) 1_554 9_565
Au1 Ge Sr 140.076(9) 4 9_565
Au1 Ge Sr 70.201(10) 3 9_565
Au1 Ge Sr 70.201(10) . 9_565
Au1 Ge Sr 140.076(9) 2 9_565
Au2 Ge Sr 115.10(4) . 9_565
Au2 Ge Sr 64.90(4) 1_554 1_545
Au1 Ge Sr 140.076(9) 4 1_545
Au1 Ge Sr 70.201(10) 3 1_545
Au1 Ge Sr 140.076(9) . 1_545
Au1 Ge Sr 70.201(10) 2 1_545
Au2 Ge Sr 115.10(4) . 1_545
Sr Ge Sr 79.63(3) 9_565 1_545
Au2 Ge Sr 64.90(4) 1_554 9_665
Au1 Ge Sr 70.201(10) 4 9_665
Au1 Ge Sr 140.076(9) 3 9_665
Au1 Ge Sr 140.076(9) . 9_665
Au1 Ge Sr 70.201(10) 2 9_665
Au2 Ge Sr 115.10(4) . 9_665
Sr Ge Sr 129.80(8) 9_565 9_665
Sr Ge Sr 79.63(3) 1_545 9_665
Au2 Ge Sr 64.90(4) 1_554 .
Au1 Ge Sr 70.201(10) 4 .
Au1 Ge Sr 140.076(9) 3 .
Au1 Ge Sr 70.201(10) . .
Au1 Ge Sr 140.076(9) 2 .
Au2 Ge Sr 115.10(4) . .
Sr Ge Sr 79.63(3) 9_565 .
Sr Ge Sr 129.80(8) 1_545 .
Sr Ge Sr 79.63(3) 9_665 .
Au2 Sr Au2 95.266(9) 9_666 1_554
Au2 Sr Au2 144.73(3) 9_666 9_566
Au2 Sr Au2 95.266(9) 1_554 9_566
Au2 Sr Au2 95.266(9) 9_666 1_564
Au2 Sr Au2 144.73(3) 1_554 1_564
Au2 Sr Au2 95.266(9) 9_566 1_564
Au2 Sr Ge 172.53(4) 9_666 9_565
Au2 Sr Ge 82.616(12) 1_554 9_565
Au2 Sr Ge 42.74(4) 9_566 9_565
Au2 Sr Ge 82.616(12) 1_564 9_565
Au2 Sr Ge 82.616(12) 9_666 1_565
Au2 Sr Ge 172.53(4) 1_554 1_565
Au2 Sr Ge 82.616(12) 9_566 1_565
Au2 Sr Ge 42.74(4) 1_564 1_565
Ge Sr Ge 100.37(3) 9_565 1_565
Au2 Sr Ge 42.74(4) 9_666 9_665
Au2 Sr Ge 82.616(12) 1_554 9_665
Au2 Sr Ge 172.53(4) 9_566 9_665
Au2 Sr Ge 82.616(12) 1_564 9_665
Ge Sr Ge 129.80(8) 9_565 9_665
Ge Sr Ge 100.37(3) 1_565 9_665
Au2 Sr Ge 82.616(12) 9_666 .
Au2 Sr Ge 42.74(4) 1_554 .
Au2 Sr Ge 82.616(12) 9_566 .
Au2 Sr Ge 172.53(4) 1_564 .
Ge Sr Ge 100.37(3) 9_565 .
Ge Sr Ge 129.80(8) 1_565 .
Ge Sr Ge 100.37(3) 9_665 .
Au2 Sr Au1 48.858(13) 9_666 2_565
Au2 Sr Au1 131.142(13) 1_554 2_565
Au2 Sr Au1 100.674(16) 9_566 2_565
Au2 Sr Au1 79.326(16) 1_564 2_565
Ge Sr Au1 137.02(3) 9_565 2_565
Ge Sr Au1 42.98(3) 1_565 2_565
Ge Sr Au1 86.01(4) 9_665 2_565
Ge Sr Au1 93.99(4) . 2_565
Au2 Sr Au1 131.142(13) 9_666 1_554
Au2 Sr Au1 48.858(13) 1_554 1_554
Au2 Sr Au1 79.326(16) 9_566 1_554
Au2 Sr Au1 100.674(16) 1_564 1_554
Ge Sr Au1 42.98(3) 9_565 1_554
Ge Sr Au1 137.02(3) 1_565 1_554
Ge Sr Au1 93.99(4) 9_665 1_554
Ge Sr Au1 86.01(4) . 1_554
Au1 Sr Au1 180.0 2_565 1_554
Au2 Sr Au1 100.674(16) 9_666 3_565
Au2 Sr Au1 131.142(13) 1_554 3_565
Au2 Sr Au1 48.858(13) 9_566 3_565
Au2 Sr Au1 79.326(16) 1_564 3_565
Ge Sr Au1 86.01(4) 9_565 3_565
Ge Sr Au1 42.98(3) 1_565 3_565
Ge Sr Au1 137.02(3) 9_665 3_565
Ge Sr Au1 93.99(4) . 3_565
Au1 Sr Au1 52.509(7) 2_565 3_565
Au1 Sr Au1 127.491(7) 1_554 3_565
Au2 Sr Au1 48.858(13) 9_666 4
Au2 Sr Au1 79.326(16) 1_554 4
Au2 Sr Au1 100.674(16) 9_566 4
Au2 Sr Au1 131.142(13) 1_564 4
Ge Sr Au1 137.02(3) 9_565 4
Ge Sr Au1 93.99(4) 1_565 4
Ge Sr Au1 86.01(4) 9_665 4
Ge Sr Au1 42.98(3) . 4
Au1 Sr Au1 52.509(7) 2_565 4
Au1 Sr Au1 127.491(7) 1_554 4
Au1 Sr Au1 77.451(12) 3_565 4
loop_
_geom_bond_atom_site_label_1
_geom_bond_atom_site_label_2
_geom_bond_distance
_geom_bond_site_symmetry_2
Au1 Ge 2.5591(13) 9_566
Au1 Ge 2.5591(13) .
Au1 Au2 2.8259(7) .
Au1 Au2 2.8259(7) 9_566
Au1 Au1 3.1245(5) 3
Au1 Au1 3.1245(5) 3_565
Au1 Au1 3.1245(5) 4_455
Au1 Au1 3.1245(5) 4
Au1 Sr 3.5316(4) 9_565
Au1 Sr 3.5316(4) 1_556
Au1 Sr 3.5316(4) 9_566
Au1 Sr 3.5316(4) .
Au2 Ge 2.457(3) 1_556
Au2 Au1 2.8259(7) 3
Au2 Au1 2.8259(7) 2
Au2 Au1 2.8259(7) 4
Au2 Ge 3.053(3) .
Au2 Sr 3.2786(5) 9_666
Au2 Sr 3.2786(5) 1_556
Au2 Sr 3.2786(5) 1_546
Au2 Sr 3.2786(5) 9_566
Ge Au2 2.457(3) 1_554
Ge Au1 2.5591(13) 4
Ge Au1 2.5591(13) 3
Ge Au1 2.5591(13) 2
Ge Sr 3.4504(12) 9_565
Ge Sr 3.4504(12) 1_545
Ge Sr 3.4504(12) 9_665
Ge Sr 3.4504(12) .
Sr Au2 3.2786(5) 9_666
Sr Au2 3.2786(5) 1_554
Sr Au2 3.2786(5) 9_566
Sr Au2 3.2786(5) 1_564
Sr Ge 3.4504(12) 9_565
Sr Ge 3.4504(12) 1_565
Sr Ge 3.4504(12) 9_665
Sr Au1 3.5316(4) 2_565
Sr Au1 3.5316(4) 1_554
Sr Au1 3.5316(4) 3_565
Sr Au1 3.5316(4) 4
