#------------------------------------------------------------------------------
#$Date: 2016-03-22 12:59:08 +0200 (Tue, 22 Mar 2016) $
#$Revision: 178968 $
#$URL: svn://www.crystallography.net/cod/cif/4/11/97/4119774.cif $
#------------------------------------------------------------------------------
#
# This file is available in the Crystallography Open Database (COD),
# http://www.crystallography.net/
#
# All data on this site have been placed in the public domain by the
# contributors.
#
data_4119774
loop_
_publ_author_name
'Saul H. Lapidus'
'Gregory J. Halder'
'Peter J. Chupas'
'Karena W. Chapman'
_publ_contact_author_address
; 
X-ray Sciences Division
Argonne National Laboratory
Lemont, IL
USA
;
_publ_contact_author_name        'Karena Chapman'
_publ_section_title
;
 Exploiting High Pressures to Generate Porosity, Polymorphism, And Lattice
 Expansion in the Nonporous Molecular Framework Zn(CN)2
;
_journal_name_full               'Journal of the American Chemical Society'
_journal_page_first              7621
_journal_page_last               7628
_journal_paper_doi               10.1021/ja4012707
_journal_volume                  135
_journal_year                    2013
_chemical_formula_sum            'C2 N2 Zn'
_space_group_IT_number           61
_symmetry_space_group_name_Hall  '-P 2ac 2ab'
_symmetry_space_group_name_H-M   'P b c a'
_cell_angle_alpha                90
_cell_angle_beta                 90
_cell_angle_gamma                90
_cell_formula_units_Z            8
_cell_length_a                   12.65365(90)
_cell_length_b                   6.96095(65)
_cell_length_c                   6.71431(52)
_cell_measurement_temperature    295
_cell_volume                     591.41(8)
_computing_cell_refinement       TOPAS
_computing_data_collection       SPEC
_computing_data_reduction        TOPAS
_computing_structure_refinement  TOPAS
_computing_structure_solution    TOPAS
_diffrn_ambient_temperature      295
_diffrn_detector                 'MAR345 imaging plate detector'
_diffrn_radiation_monochromator  'Si(111) channel cut'
_diffrn_radiation_type           synchrotron
_diffrn_radiation_wavelength     0.60665
_diffrn_source                   synchrotron
_pd_block_diffractogram_id       II_5.13GPa
_pd_instr_location
;
1-BM, Advanced Photon Source, Argonne National Laboratory
;
_pd_meas_2theta_range_inc        0.011
_pd_meas_2theta_range_max        21.995
_pd_meas_2theta_range_min        5.0
_pd_meas_number_of_points        1546
_pd_meas_scan_method             cont
_pd_proc_2theta_range_inc        0.011
_pd_proc_2theta_range_max        21.995
_pd_proc_2theta_range_min        5.0
_pd_proc_ls_background_function
;
1 Pearson-Voight peaks and Chebyshev polynomial with 11 coefficients
;
_pd_proc_ls_pref_orient_corr
;
none
;
_pd_proc_ls_profile_function
;
?
;
_pd_proc_ls_prof_R_factor        0.01405
_pd_proc_ls_prof_wR_expected     0.08945
_pd_proc_ls_prof_wR_factor       0.01941
_pd_proc_wavelength              0.60665
_pd_spec_mounting
;
diamond anvil cell
;
_pd_spec_mount_mode              transmission
_pd_spec_shape                   irregular
_refine_ls_goodness_of_fit_all   0.217
_refine_ls_number_parameters     46
_refine_ls_weighting_details     1/(sigma*sigma)
_refine_ls_weighting_scheme      sigma
_cod_data_source_file            ja4012707_si_002_3.cif
_cod_data_source_block           II_5.13GPa
_cod_original_cell_volume        591.406(93)
_cod_database_code               4119774
loop_
_symmetry_equiv_pos_site_id
_symmetry_equiv_pos_as_xyz
1 '-x, -y, -z'
2 '-x, y+1/2, -z+1/2'
3 '-x+1/2, -y, z+1/2'
4 '-x+1/2, y+1/2, z'
5 'x, -y+1/2, z+1/2'
6 'x, y, z'
7 'x+1/2, -y+1/2, -z'
8 'x+1/2, y, -z+1/2'
loop_
_atom_site_label
_atom_site_type_symbol
_atom_site_symmetry_multiplicity
_atom_site_fract_x
_atom_site_fract_y
_atom_site_fract_z
_atom_site_occupancy
_atom_site_B_iso_or_equiv
Zn1 Zn 8 0.62553(20) 1.05625(26) 0.83854(42) 1 4.524(98)
C1 C 0 0.73863(45) 1.1254(19) 0.6535(11) 1 0.1435069
C2 C 0 0.5348(11) 0.8755(22) 0.6808(22) 1 0.1435069
C3 C 0 0.7019(11) 0.9274(27) 1.0646(12) 1 0.1435069
C4 C 0 0.5319(15) 1.2983(18) 0.8471(28) 1 0.1435069
