#------------------------------------------------------------------------------
#$Date: 2016-03-22 13:56:23 +0200 (Tue, 22 Mar 2016) $
#$Revision: 178982 $
#$URL: svn://www.crystallography.net/cod/cif/4/12/05/4120551.cif $
#------------------------------------------------------------------------------
#
# This file is available in the Crystallography Open Database (COD),
# http://www.crystallography.net/
#
# All data on this site have been placed in the public domain by the
# contributors.
#
data_4120551
loop_
_publ_author_name
'Park, Woon Bae'
'Singh, Satendra Pal'
'Sohn, Kee-Sun'
_publ_section_title
;
 Discovery of a phosphor for light emitting diode applications and its
 structural determination, ba(si,al)5(o,n)8:eu(2+).
;
_journal_issue                   6
_journal_name_full               'Journal of the American Chemical Society'
_journal_page_first              2363
_journal_page_last               2373
_journal_paper_doi               10.1021/ja409865c
_journal_volume                  136
_journal_year                    2014
_chemical_formula_sum            'Al Ba N5 O3 Si4'
_chemical_formula_weight         394.69
_space_group_IT_number           36
_symmetry_cell_setting           orthorhombic
_symmetry_space_group_name_Hall  'A -2 2a'
_symmetry_space_group_name_H-M   'A 21 a m'
_cell_angle_alpha                90.00000
_cell_angle_beta                 90.00000
_cell_angle_gamma                90.00000
_cell_formula_units_Z            4
_cell_length_a                   9.48461(3)
_cell_length_b                   13.47194(6)
_cell_length_c                   5.773234(18)
_cell_measurement_temperature    298
_cell_volume                     737.681(5)
_computing_structure_refinement  FULLPROF
_diffrn_ambient_temperature      298
_diffrn_measurement_device_type  '8C2 HRPD beamline Pohang Light Source'
_diffrn_radiation_type           Synchrotron
_diffrn_radiation_wavelength     1.54720
_diffrn_source                   '8C2 HRPD beamline Pohang Light Source'
_exptl_crystal_density_diffrn    3.55
_pd_char_colour                  White
_pd_meas_2theta_range_inc        0.005000
_pd_meas_2theta_range_max        130.50000
_pd_meas_2theta_range_min        10.00000
_pd_meas_number_of_points        24101
_pd_meas_scan_method             cont
_pd_proc_2theta_range_inc        0.005000
_pd_proc_2theta_range_max        130.5004
_pd_proc_2theta_range_min        10.0004
_pd_proc_ls_prof_R_factor        5.5788
_pd_proc_ls_prof_wR_expected     5.2033
_pd_proc_ls_prof_wR_factor       7.4891
_pd_proc_wavelength              1.547200
_pd_spec_mount_mode              reflection
_refine_ls_goodness_of_fit_all   2.0716
_refine_ls_number_parameters     86
_refine_ls_number_reflns         377
_refine_ls_number_restraints     0
_refine_ls_R_I_factor            3.1036
_cod_data_source_file            ja409865c_si_002.cif
_cod_data_source_block           orthorhombic-major-phase
_cod_original_cell_volume        737.682(5)
_cod_database_code               4120551
#BEGIN Tags that were not found in dictionaries:
_pd_proc_ls_prof_cr_factor       11.0492
_pd_proc_ls_prof_cwr_factor      11.6452
_pd_proc_ls_prof_cwr_expected    8.0910
_pd_proc_ls_prof_chi2            2.0716
_pd_proc_ls_prof_echi2           2.0828
#END Tags that were not found in dictionaries
loop_
_symmetry_equiv_pos_as_xyz
x,y,z
x+1/2,-y,-z
x+1/2,-y,z
x,y,-z
x,y+1/2,z+1/2
x+1/2,-y+1/2,-z+1/2
x+1/2,-y+1/2,z+1/2
x,y+1/2,-z+1/2
loop_
_atom_site_label
_atom_site_fract_x
_atom_site_fract_y
_atom_site_fract_z
_atom_site_U_iso_or_equiv
_atom_site_occupancy
_atom_site_adp_type
_atom_site_type_symbol
Ba 0.00000 -0.01227(5) 0.00000 0.0240(4) 1.00000 Uani BA
Al1 0.2453(5) 0.46694(15) 0.00000 0.0017(6) 1.00000 Uiso AL
Si2 0.0130(5) 0.29205(16) 0.00000 0.0024(6) 1.00000 Uiso SI
Si3 0.2319(3) 0.16872(12) 0.2524(3) 0.0038(4) 1.00000 Uiso SI
Si4 0.4571(4) 0.2842(2) 0.00000 0.0082(9) 1.00000 Uiso SI
O1 0.2456(8) 0.0409(2) 0.2579(6) 0.0141(10) 1.00000 Uiso O
N2 0.0910(9) 0.4054(6) 0.00000 0.009(3) 1.00000 Uiso N
N3 0.1318(7) 0.2003(6) 0.00000 0.004(2) 1.00000 Uiso N
N4 0.1462(6) 0.7097(6) 0.00000 0.0039(18) 1.00000 Uiso N
N5 0.4060(5) 0.2152(3) 0.2455(8) 0.0019(13) 1.00000 Uiso N
O6 0.3924(8) 0.3971(5) 0.00000 0.017(2) 1.00000 Uiso O
loop_
_atom_site_aniso_label
_atom_site_aniso_U_11
_atom_site_aniso_U_22
_atom_site_aniso_U_33
_atom_site_aniso_U_12
_atom_site_aniso_U_13
_atom_site_aniso_U_23
_atom_site_aniso_type_symbol
Ba 0.0157(3) 0.0241(4) 0.0321(4) -0.0142(5) 0.00000 0.00000 BA
loop_
_atom_type_symbol
_atom_type_scat_Cromer_Mann_a1
_atom_type_scat_Cromer_Mann_b1
_atom_type_scat_Cromer_Mann_a2
_atom_type_scat_Cromer_Mann_b2
_atom_type_scat_Cromer_Mann_a3
_atom_type_scat_Cromer_Mann_b3
_atom_type_scat_Cromer_Mann_a4
_atom_type_scat_Cromer_Mann_b4
_atom_type_scat_Cromer_Mann_c
_atom_type_scat_dispersion_real
_atom_type_scat_dispersion_imag
_atom_type_scat_source
ba 20.33610 3.21600 19.29700 0.27560 10.88800 20.20730 2.69590 167.20200
2.77310 -1.33400 8.46000
International_Tables_for_Crystallography_Vol.C(1991)_Tables_6.1.1.4_and_6.1.1.5
al 6.42020 3.03870 1.90020 0.74260 1.59360 31.54720 1.96460 85.08860 1.11510
0.20400 0.24600
International_Tables_for_Crystallography_Vol.C(1991)_Tables_6.1.1.4_and_6.1.1.5
si 6.29150 2.43860 3.03530 32.33370 1.98910 0.67850 1.54100 81.69370 1.14070
0.24400 0.33000
International_Tables_for_Crystallography_Vol.C(1991)_Tables_6.1.1.4_and_6.1.1.5
o 3.04850 13.27710 2.28680 5.70110 1.54630 0.32390 0.86700 32.90890 0.25080
0.04700 0.03200
International_Tables_for_Crystallography_Vol.C(1991)_Tables_6.1.1.4_and_6.1.1.5
n 12.21260 0.00570 3.13220 9.89330 2.01250 28.99750 1.16630 0.58260 -11.52900
0.02900 0.01800
International_Tables_for_Crystallography_Vol.C(1991)_Tables_6.1.1.4_and_6.1.1.5
loop_
_geom_bond_atom_site_label_1
_geom_bond_atom_site_label_2
_geom_bond_distance
_geom_bond_site_symmetry_2
Al1 O1 1.716(3) 5_554
Al1 O12 1.716(3) 8_555
Al1 N2 1.682(9) .
Al1 O6 1.683(8) .
Si2 N2 1.697(9) .
Si2 N3 1.673(8) .
Si2 N5 1.788(5) 6_455
Si2 N5 1.788(5) 7_454
Si3 O1 1.727(3) .
Si3 N3 1.790(5) .
Si3 N4 1.735(4) 5_545
Si3 N5 1.766(5) .
Si4 N4 1.795(7) 2_565
Si4 N5 1.763(5) .
Si4 N5 1.763(5) 4_555
Si4 O6 1.640(7) .
