#------------------------------------------------------------------------------
#$Date: 2016-03-22 21:09:53 +0200 (Tue, 22 Mar 2016) $
#$Revision: 179014 $
#$URL: svn://www.crystallography.net/cod/cif/4/12/12/4121258.cif $
#------------------------------------------------------------------------------
#
# This file is available in the Crystallography Open Database (COD),
# http://www.crystallography.net/
#
# All data on this site have been placed in the public domain by the
# contributors.
#
data_4121258
loop_
_publ_author_name
'Jae-Hyuk Her'
'Peter W. Stephens'
'Royce A. Davidson'
'Kil Sik Min'
'Joshua D. Bagnato'
'Kipp van Schooten'
'Christoph Boehme'
'Joel S. Miller'
_publ_section_title
;
 Weak Ferromagnetic Ordering of the Li+[TCNE].- (TCNE =
 Tetracyanoethylene) Organic Magnet with an Interpenetrating Diamondoid
 Structure
;
_journal_name_full               'Journal of the American Chemical Society'
_journal_page_first              18060
_journal_page_last               18063
_journal_paper_doi               10.1021/ja410818e
_journal_volume                  135
_journal_year                    2013
_chemical_formula_sum            'C6 Li N4'
_chemical_formula_weight         135.04
_space_group_IT_number           13
_symmetry_space_group_name_Hall  '-P 2yc'
_symmetry_space_group_name_H-M   'P 1 2/c 1'
_cell_angle_alpha                90
_cell_angle_beta                 107.5467(44)
_cell_angle_gamma                90
_cell_formula_units_Z            2
_cell_length_a                   5.43311(50)
_cell_length_b                   5.40704(62)
_cell_length_c                   11.91853(83)
_cell_measurement_temperature    50
_cell_volume                     333.84(5)
_diffrn_ambient_temperature      50
_diffrn_detector                 'NaI scintillation counter'
_diffrn_measurement_device_type  'Huber diffractometer'
_diffrn_radiation_monochromator  'double Si(111)'
_diffrn_radiation_wavelength     0.690779
_diffrn_source                   synchrotron
_exptl_absorpt_correction_type   none
_pd_char_colour                  'dark green yellow'
_pd_instr_location
; 
X16C, National Synchrotron Light Source, Brookhaven National Laboratory
;
_pd_meas_2theta_range_inc        0.005
_pd_meas_2theta_range_max        40
_pd_meas_2theta_range_min        4
_pd_meas_number_of_points        7201
_pd_meas_scan_method             step
_pd_spec_mounting
;
Sealed glass capillary of 1 mm nom diameter
;
_pd_spec_mount_mode              reflection
_pd_spec_shape                   cylinder
_pd_spec_size_axial              10
_pd_spec_size_equat              1
_pd_spec_size_thick              1
_cod_data_source_file            ja410818e_si_001_3.cif
_cod_data_source_block           LiTCNE-50K
_cod_original_cell_volume        333.840(79)
_cod_database_code               4121258
loop_
_symmetry_equiv_pos_as_xyz
'x, y, z'
'-x, y, 1/2-z'
'-x, -y, -z'
'x, -y, 1/2+z'
loop_
_atom_site_label
_atom_site_type_symbol
_atom_site_symmetry_multiplicity
_atom_site_fract_x
_atom_site_fract_y
_atom_site_fract_z
_atom_site_occupancy
_atom_site_B_iso_or_equiv
Li Li+1 2 0.5 0.3037(38) 0.75 1 1
N2 N 4 -0.23656(65) -0.43156(46) -0.14349(31) 1 1
N3 N 4 0.34084(35) 0.13652(56) -0.14307(22) 1 1
C4 C 4 -0.11875(36) -0.27151(27) -0.11158(24) 1 1
C5 C 4 0.19862(29) 0.03414(65) -0.11611(41) 1 1
C6 C 4 0.02068(14) -0.04984(20) -0.050581(97) 1 1
