#------------------------------------------------------------------------------
#$Date: 2016-03-04 11:43:50 +0200 (Fri, 04 Mar 2016) $
#$Revision: 177410 $
#$URL: svn://www.crystallography.net/cod/cif/4/12/49/4124925.cif $
#------------------------------------------------------------------------------
#
# This file is available in the Crystallography Open Database (COD),
# http://www.crystallography.net/
#
# All data on this site have been placed in the public domain by the
# contributors.
#
data_4124925
loop_
_publ_author_name
'Tan, Xiaoyan'
'Fabbris, Gilberto'
'Haskel, Daniel'
'Yaroslavtsev, Alexander A.'
'Cao, Huibo'
'Thompson, Corey M.'
'Kovnir, Kirill'
'Menushenkov, Alexey P.'
'Chernikov, Roman V.'
'Garlea, V. Ovidiu'
'Shatruk, Michael'
_publ_section_title
;
 A Transition from Localized to Strongly Correlated Electron Behavior and
 Mixed Valence Driven by Physical or Chemical Pressure in ACo2As2 (A = Eu
 and Ca).
;
_journal_issue                   8
_journal_name_full               'Journal of the American Chemical Society'
_journal_page_first              2724
_journal_page_last               2731
_journal_paper_doi               10.1021/jacs.5b12659
_journal_volume                  138
_journal_year                    2016
_chemical_formula_sum            'As2 Ca Co1.87'
_chemical_formula_weight         300.36
_chemical_name_systematic        2014/7
_space_group_crystal_system      tetragonal
_space_group_IT_number           139
_space_group_name_Hall           '-I 4 2'
_space_group_name_H-M_alt        'I 4/m m m'
_symmetry_space_group_name_Hall  '-I 4 2'
_symmetry_space_group_name_H-M   'I 4/m m m'
_audit_creation_method           SHELXL-2014
_cell_angle_alpha                90
_cell_angle_beta                 90
_cell_angle_gamma                90
_cell_formula_units_Z            2
_cell_length_a                   3.9927(2)
_cell_length_b                   3.9927(2)
_cell_length_c                   10.3133(6)
_cell_measurement_reflns_used    1144
_cell_measurement_temperature    293(2)
_cell_measurement_theta_max      41.92
_cell_measurement_theta_min      3.95
_cell_volume                     164.411(15)
_computing_cell_refinement       'SMART V5.625 (Bruker, 2000)'
_computing_data_collection       'SMART V5.625 (Bruker, 2000)'
_computing_data_reduction        'SAINT V6.32 (Bruker, 2001)'
_computing_molecular_graphics    'CrystalMaker V9.2.2 (2015)'
_computing_publication_material  'SHELXL-97 (Sheldrick, 1997)'
_computing_structure_refinement  'SHELXL-2014 (Sheldrick, 2014)'
_computing_structure_solution    'SHELXS-97 (Sheldrick, 1990)'
_diffrn_ambient_temperature      293(2)
_diffrn_measured_fraction_theta_full 1.000
_diffrn_measured_fraction_theta_max 1.000
_diffrn_measurement_device_type  'Bruker APEX II CCD area-detector'
_diffrn_measurement_method       'profile data from \w scans'
_diffrn_radiation_type           MoK\a
_diffrn_radiation_wavelength     0.71073
_diffrn_reflns_av_R_equivalents  0.0195
_diffrn_reflns_av_unetI/netI     0.0125
_diffrn_reflns_laue_measured_fraction_full 1.000
_diffrn_reflns_laue_measured_fraction_max 1.000
_diffrn_reflns_limit_h_max       7
_diffrn_reflns_limit_h_min       -7
_diffrn_reflns_limit_k_max       7
_diffrn_reflns_limit_k_min       -7
_diffrn_reflns_limit_l_max       19
_diffrn_reflns_limit_l_min       -13
_diffrn_reflns_number            1464
_diffrn_reflns_point_group_measured_fraction_full 1.000
_diffrn_reflns_point_group_measured_fraction_max 1.000
_diffrn_reflns_theta_full        25.242
_diffrn_reflns_theta_max         42.018
_diffrn_reflns_theta_min         3.952
_diffrn_source                   'sealed tube'
_exptl_absorpt_coefficient_mu    31.324
_exptl_absorpt_correction_T_max  0.7482
_exptl_absorpt_correction_T_min  0.4835
_exptl_absorpt_correction_type   empirical
_exptl_absorpt_process_details   'SADABS v2.03 (Bruker, 2003)'
_exptl_crystal_colour            black
_exptl_crystal_density_diffrn    6.217
_exptl_crystal_description       plate
_exptl_crystal_F_000             280
_exptl_crystal_size_max          0.03
_exptl_crystal_size_mid          0.02
_exptl_crystal_size_min          0.02
_refine_diff_density_max         1.407
_refine_diff_density_min         -1.277
_refine_diff_density_rms         0.211
_refine_ls_extinction_coef       0.0113(19)
_refine_ls_extinction_expression Fc^*^=kFc[1+0.001xFc^2^\l^3^/sin(2\q)]^-1/4^
_refine_ls_extinction_method     'SHELXL-2014/7 (Sheldrick 2014)'
_refine_ls_goodness_of_fit_ref   1.161
_refine_ls_hydrogen_treatment    undef
_refine_ls_matrix_type           full
_refine_ls_number_parameters     10
_refine_ls_number_reflns         206
_refine_ls_number_restraints     0
_refine_ls_restrained_S_all      1.161
_refine_ls_R_factor_all          0.0204
_refine_ls_R_factor_gt           0.0200
_refine_ls_shift/su_max          0.000
_refine_ls_shift/su_mean         0.000
_refine_ls_structure_factor_coef Fsqd
_refine_ls_weighting_details
'w=1/[\s^2^(Fo^2^)+(0.0233P)^2^+0.6417P] where P=(Fo^2^+2Fc^2^)/3'
_refine_ls_weighting_scheme      calc
_refine_ls_wR_factor_gt          0.0476
_refine_ls_wR_factor_ref         0.0477
_reflns_Friedel_coverage         0.000
_reflns_number_gt                200
_reflns_number_total             206
_reflns_threshold_expression     'I > 2\s(I)'
_cod_data_source_file            ja5b12659_si_003.cif
_cod_data_source_block           shelx
_cod_depositor_comments
'Adding full bibliography for 4124924--4124927.cif.'
_cod_original_cell_volume        164.411(19)
_cod_database_code               4124925
_shelx_space_group_comment
;
The symmetry employed for this shelxl refinement is uniquely defined
by the following loop, which should always be used as a source of
symmetry information in preference to the above space-group names.
They are only intended as comments.
;
_shelxl_version_number           2014-3
_shelx_res_file
;
TITL xt184I4mmm in I4/mmm
CELL 0.71073   3.9927   3.9927  10.3133  90.000  90.000  90.000
ZERR    2.00   0.0002   0.0002   0.0006   0.000   0.000   0.000
LATT  2
SYMM -X, -Y, Z
SYMM -Y, X, Z
SYMM Y, -X, Z
SYMM -X, Y, -Z
SYMM X, -Y, -Z
SYMM Y, X, -Z
SYMM -Y, -X, -Z
SFAC CA CO AS
UNIT 2 4 4

L.S. 7
BOND
FMAP 2
PLAN -20
acta

WGHT    0.023300    0.641700
EXTI    0.011305
FVAR       0.18309
MOLE   1
AS1   3    0.000000    0.000000    0.367444    10.12500    0.00887    0.00887 =
         0.01098    0.00000    0.00000    0.00000
CA1   1   -0.500000   -0.500000    0.500000    10.06250    0.00892    0.00892 =
         0.01011    0.00000    0.00000    0.00000
CO1   2   -0.500000    0.000000    0.250000     0.11710    0.00801    0.00801 =
         0.00958    0.00000    0.00000    0.00000

MOLE   2
HKLF 4

REM  xt184I4mmm in I4/mmm
REM R1 =  0.0200 for     200 Fo > 4sig(Fo)  and  0.0204 for all     206 data
REM     10 parameters refined using      0 restraints

END

WGHT      0.0231      0.6483

REM Highest difference peak  1.407,  deepest hole -1.277,  1-sigma level  0.211
Q1    1   0.1220  0.0000  0.3428  10.50000  0.05    1.41
Q2    1   0.3881  0.0000  0.2298  10.50000  0.05    0.79
Q3    1   0.0000  0.0000  0.2328  10.12500  0.05    0.58
Q4    1   0.3171  0.0000  0.3416  10.50000  0.05    0.51
Q5    1   0.2048  0.2048  0.2430  10.50000  0.05    0.50
Q6    1   0.2708  0.2097  0.1309  11.00000  0.05    0.48
Q7    1   0.0000  0.2083  0.2575  10.50000  0.05    0.45
Q8    1   0.0000  0.1493  0.5000  10.25000  0.05    0.44
Q9    1   0.1176  0.0000  0.0321  10.50000  0.05    0.43
Q10   1   0.2022  0.2022  0.3029  10.50000  0.05    0.43
Q11   1  -0.5000  0.2320  0.3731  10.50000  0.05    0.39
Q12   1   0.0000  0.2495  0.4444  10.50000  0.05    0.35
Q13   1   0.3689  0.2132  0.0882  11.00000  0.05    0.33
Q14   1   0.4027  0.2214  0.4591  11.00000  0.05    0.31
Q15   1   0.1131  0.1131  0.4218  10.50000  0.05    0.29
Q16   1   0.2754  0.2154  0.5000  10.50000  0.05    0.27
Q17   1  -0.5000  0.1087  0.2045  10.50000  0.05    0.26
Q18   1  -0.5000  0.0000  0.3354  10.25000  0.05    0.26
Q19   1   0.1064  0.1727  0.0920  11.00000  0.05    0.23
Q20   1   0.0000  0.2109  0.2015  10.50000  0.05    0.22
;
_shelx_res_checksum              65506
_shelx_hkl_file
;
   1  -1   0  100.97    1.90
   1  -1   0  100.01    1.87
   1   1   0  102.46    2.06
  -1  -1   0  100.78    1.89
   2   0   0  943.35   13.44
   0  -2   0 1000.00   13.76
   2   0   0  988.50   13.88
   0  -2   0  957.40   13.46
   2   2   0  675.31   10.89
   2  -2   0  709.92   10.36
   2  -2   0  698.07   10.38
  -2  -2   0  718.39   10.67
   1  -3   0   48.72    1.66
   1  -3   0   48.44    1.32
   3   1   0   47.49    1.76
  -3  -1   0   46.42    1.58
   3  -1   0   50.15    1.56
  -1  -3   0   48.99    1.49
   3  -1   0   46.73    1.61
  -1  -3   0   49.37    1.74
  -3  -3   0   28.53    0.80
  -3   3   0   29.14    0.74
   3  -3   0   28.63    1.44
   3   3   0   29.09    1.71
  -3  -3   0   27.57    1.41
   4   2   0  298.68    6.42
  -4  -2   0  312.88    4.34
  -4  -2   0  313.32    6.27
   2  -4   0  307.87    4.23
   2  -4   0  309.06    6.16
   0  -4   0  419.34    6.97
   4   0   0  420.15    7.37
   0  -4   0  410.12    7.53
   4   0   0  418.67    7.39
   4  -2   0  301.52    5.92
  -2  -4   0  303.25    4.15
   2   4   0  298.65    6.52
  -2  -4   0  303.34    5.87
  -2  -4   0  299.77    4.30
  -4   2   0  300.84    4.31
   4  -2   0  303.12    4.09
  -4  -4   0  151.66    2.89
  -4  -4   0  151.83    2.69
  -4   4   0  153.21    2.63
   4  -4   0  153.45    2.61
  -5  -3   0   11.99    0.70
  -3   5   0   12.33    0.62
   3  -5   0   10.88    0.69
   5   1   0   18.21    1.36
   5   1   0   18.95    1.39
  -5  -1   0   16.47    0.70
   5   1   0   19.50    0.79
   1  -5   0   18.31    0.79
  -1  -5   0   18.54    0.83
   5  -1   0   19.47    0.79
   5  -1   0   18.52    1.35
   5  -3   0   12.45    0.68
  -3  -5   0   11.36    0.63
  -3  -5   0   12.33    0.86
  -5   5   0    3.44    0.57
   5  -5   0    4.83    0.60
  -5  -5   0    4.96    0.57
  -4   6   0   64.95    1.68
  -6  -4   0   64.80    1.79
  -6  -2   0  105.68    2.24
   2  -6   0  106.88    2.24
   0  -6   0  139.16    2.71
  -2  -6   0  118.08    2.58
   6  -4   0   71.09    1.78
  -4  -6   0   68.30    1.79
  -4  -6   0   72.30    2.06
   1  -7   0    5.46    0.65
  -1  -7   0    6.66    0.73
   0  -1  -1   69.45    1.18
   0  -1  -1   68.01    1.31
   1   0  -1   70.64    1.43
   1   0   1   68.25    1.34
   0  -1   1   69.64    1.38
   0  -1   1   69.83    1.36
  -1   0   1   69.67    1.23
   1   0   1   72.49    1.26
  -2  -1  -1   41.88    1.28
   2   1  -1   43.40    1.51
   1  -2  -1   44.45    0.96
   1  -2  -1   42.91    1.32
   1  -2   1   43.54    1.22
   2   1   1   41.99    1.40
  -2  -1   1   43.11    1.23
   1  -2   1   43.85    1.26
   2  -1  -1   45.44    1.13
  -1  -2  -1   44.81    1.23
   2  -1  -1   45.48    1.37
  -1  -2  -1   44.87    1.40
   2  -1   1   45.50    1.26
  -1  -2   1   44.45    1.29
   2  -1   1   44.44    1.32
   2  -3  -1   25.10    1.27
   3   2  -1   25.96    1.48
  -3  -2  -1   24.82    1.22
   3   2   1   25.94    1.41
   2  -3   1   24.08    1.17
  -3  -2   1   24.48    1.22
   0  -3  -1   33.48    1.38
   3   0  -1   35.36    1.22
   0  -3  -1   33.65    1.06
   3   0  -1   34.03    1.40
   3   0   1   33.36    1.26
   0  -3   1   31.94    1.33
   3   0   1   34.60    1.26
   0  -3   1   33.25    1.16
   2   3  -1   24.64    1.40
  -2  -3  -1   24.36    1.14
   3  -2  -1   24.26    1.21
  -2  -3   1   22.90    1.13
   2   3   1   24.65    1.39
   3  -2   1   23.77    1.13
   4   3  -1    8.40    1.15
   3  -4  -1   10.64    1.03
  -4  -3  -1    9.48    0.55
   3  -4  -1   10.18    0.58
   4   3  -1    9.87    0.73
  -3   4  -1    9.82    0.53
  -4  -3  -1    9.70    0.99
  -4  -3   1   10.99    0.57
  -4  -3   1   10.16    1.00
   3  -4   1   10.96    1.02
   3  -4   1   10.06    0.56
  -3   4   1   10.03    0.50
   4   1  -1   22.11    1.38
   4   1  -1   17.90    1.14
   1  -4  -1   18.38    1.20
   4   1   1   17.07    1.15
   1  -4   1   17.92    1.21
   4   1   1   17.86    1.14
  -1  -4  -1   16.73    0.98
   4  -1  -1   17.18    1.18
  -1  -4  -1   18.85    1.28
  -1  -4   1   18.06    1.04
  -1  -4   1   18.50    1.25
   4  -1   1   18.87    1.11
   4  -3  -1    9.97    1.01
  -3  -4  -1    9.26    0.93
  -4   3  -1    9.93    0.54
  -3  -4  -1    9.60    0.70
   3   4  -1    8.07    1.11
   4  -3  -1   10.71    0.60
  -3  -4  -1    9.75    0.52
   4  -3   1   10.75    0.98
   3   4   1    9.33    1.16
   4  -3   1    9.85    0.56
  -3  -4   1    9.88    0.56
  -3  -4   1    9.71    0.98
  -3  -4   1    9.30    0.70
  -4   3   1    9.78    0.54
  -4   5  -1    3.94    0.53
   4  -5  -1    4.53    0.55
   5   4  -1    3.36    0.54
  -5  -4  -1    3.45    0.49
  -5  -4   1    3.46    0.48
  -4   5   1    4.70    0.52
   4  -5   1    3.34    0.47
   2  -5  -1    8.15    0.60
  -5  -2  -1    7.86    0.54
   5   2  -1    7.85    0.64
   2  -5   1    7.57    0.58
  -5  -2   1    7.63    0.55
   0  -5  -1   11.11    0.66
   5   0  -1   10.55    0.64
   0  -5  -1   11.33    1.19
   5   0  -1   10.13    1.07
   0  -5   1   10.35    0.62
   0  -5   1   10.18    1.11
   5  -2  -1    6.64    0.56
  -2  -5  -1    7.52    0.49
  -2  -5  -1    7.60    0.66
  -2  -5   1    9.15    0.68
  -2  -5   1    7.51    0.50
  -4  -5  -1    4.17    0.47
   5  -4  -1    3.26    0.47
  -5   4  -1    3.81    0.53
  -4  -5   1    3.44    0.45
  -4  -5   1    4.37    0.63
  -5   4   1    4.57    0.55
   5  -4   1    4.82    0.53
  -6  -3  -1    3.44    0.52
   3  -6  -1    3.48    0.52
  -3   6  -1    3.58    0.51
   3  -6   1    2.97    0.46
  -3   6   1    2.71    0.42
  -6  -3   1    2.54    0.46
   1  -6  -1    5.09    0.63
   6   1  -1    4.80    0.59
   1  -6   1    5.27    0.59
  -1  -6  -1    5.65    0.68
   6  -1  -1    4.87    0.58
  -1  -6   1    4.78    0.63
  -3  -6  -1    3.40    0.45
   6  -3  -1    3.47    0.49
  -3  -6  -1    3.30    0.61
  -3  -6   1    3.43    0.59
  -3  -6   1    3.06    0.45
  -2   7  -1    2.45    0.44
   2  -7  -1    2.23    0.47
   2  -7   1    1.91    0.44
   0  -7  -1    2.35    0.51
   0  -7   1    2.99    0.52
  -2  -7  -1    3.67    0.64
  -2  -7   1    1.45    0.48
   0   0  -2  177.49    2.43
   0   0   2  170.38    2.79
  -1  -1  -2  311.46    4.77
   1  -1  -2  301.80    4.70
   1   1   2  304.73    4.60
   1  -1   2  307.39    4.45
   1  -1   2  297.29    5.09
  -1  -1   2  307.71    4.79
   0  -2  -2   94.08    2.06
   0  -2  -2   95.53    1.74
   2   0  -2   91.91    2.17
   2   0   2   96.04    1.83
   2   0   2   91.66    2.07
   0  -2   2   92.62    2.06
   0  -2   2   96.46    2.08
  -2   0   2   95.01    1.84
  -2  -2  -2   65.35    1.78
   2  -2  -2   64.17    1.88
   2   2  -2   65.37    2.13
  -2  -2   2   63.24    1.80
   2  -2   2   64.39    1.89
   2   2   2   61.22    1.96
   2  -2   2   64.65    1.73
   3   1  -2  124.47    3.23
   1  -3  -2  123.39    2.98
   1  -3   2  122.24    2.81
   3   1   2  127.17    2.84
   3   1   2  124.09    2.93
  -3  -1   2  123.47    2.80
   1  -3   2  124.75    2.77
  -1  -3  -2  123.88    2.64
   1   3  -2  126.37    3.11
   3  -1  -2  124.04    3.05
  -1  -3  -2  127.63    3.08
   3  -1   2  125.66    2.70
  -1  -3   2  125.68    2.88
   3  -1   2  123.64    2.98
  -3   3  -2   64.85    1.26
  -3  -3  -2   63.55    2.19
   3   3  -2   62.61    2.63
  -3  -3  -2   64.03    1.29
   3  -3  -2   65.24    1.33
   3  -3  -2   64.73    2.29
  -3  -3   2   64.92    1.32
   3  -3   2   62.75    2.13
  -3  -3   2   63.55    1.47
   3   3   2   66.17    2.51
  -3  -3   2   62.99    2.21
  -3   3   2   65.04    1.24
   4   2  -2   23.29    1.60
  -4  -2  -2   23.28    0.77
   2  -4  -2   23.71    0.79
  -2   4  -2   22.82    0.66
   4   2  -2   26.60    0.90
   2  -4  -2   25.86    1.50
  -4  -2   2   22.32    1.33
   4   2   2   21.39    1.33
   2  -4   2   23.25    1.36
  -4  -2   2   22.93    0.73
   2  -4   2   24.05    0.76
   0  -4  -2   32.34    1.65
   4   0  -2   29.54    1.60
   4   0   2   33.73    1.55
   0  -4   2   34.59    1.59
   0  -4   2   33.78    1.41
   4  -2  -2   22.94    0.81
   2   4  -2   20.65    1.45
  -2  -4  -2   24.43    0.87
   4  -2  -2   22.31    1.44
  -2  -4  -2   23.89    0.70
  -2  -4  -2   24.15    1.24
  -2  -4   2   21.44    0.83
  -4   2   2   22.76    0.70
   4  -2   2   22.87    1.24
   2   4   2   22.00    1.49
  -2  -4   2   22.47    1.30
  -2  -4   2   23.12    0.74
  -4   4  -2   11.43    0.63
   4  -4  -2   11.07    0.69
  -4  -4  -2   11.85    0.64
  -4   4   2   11.30    0.62
  -4  -4   2   11.43    0.66
  -4  -4   2   11.46    0.84
   4  -4   2   10.62    0.61
   5   3  -2   28.29    1.15
   5   3  -2   29.61    1.09
   3  -5  -2   29.78    1.08
  -3   5  -2   30.25    0.95
  -5  -3  -2   29.88    1.03
  -5  -3   2   29.04    1.04
   3  -5   2   29.06    1.01
  -3   5   2   30.40    0.92
   1  -5  -2   41.36    1.19
   5   1  -2   42.35    1.23
   5   1  -2   38.05    2.08
  -5  -1  -2   43.29    1.14
   5   1   2   44.53    2.16
   1  -5   2   42.75    1.16
  -1  -5  -2   42.26    1.26
  -1  -5  -2   46.19    2.37
   5  -1  -2   41.91    1.23
  -1  -5   2   45.18    1.91
  -1  -5   2   42.28    1.20
  -1  -5   2   42.96    1.08
   5  -3  -2   31.55    1.10
  -3  -5  -2   30.29    0.97
  -3  -5   2   29.41    1.19
  -5   3   2   29.48    0.98
  -3  -5   2   31.04    1.04
   5  -5  -2   16.87    0.90
   5   5  -2   16.51    1.03
  -5   5  -2   16.20    0.87
  -5  -5  -2   15.76    0.84
  -5   5   2   15.62    0.84
  -5  -5   2   15.52    0.89
  -6  -4  -2    4.95    0.59
  -4   6  -2    4.70    0.59
   4  -6  -2    4.81    0.61
   6   4  -2    5.04    0.70
   4  -6   2    5.93    0.61
  -6  -4   2    4.90    0.61
  -4   6   2    5.44    0.57
   2  -6  -2    8.42    0.68
  -2   6  -2    6.79    0.57
   6   2  -2    7.48    0.70
  -6  -2  -2    7.58    0.61
   2  -6   2    7.63    0.65
   0  -6  -2   10.39    0.78
   6   0  -2    9.16    0.72
   0  -6   2   10.74    0.71
  -2  -6  -2    8.70    0.79
   6  -2  -2    6.39    0.66
  -2  -6   2    7.37    0.72
  -2  -6   2    7.98    0.57
   6  -4  -2    4.49    0.62
  -4  -6  -2    3.99    0.51
  -4  -6   2    4.55    0.53
   1  -7  -2   18.93    1.03
   1  -7   2   17.85    0.96
   7  -1  -2   18.97    1.00
  -1  -7  -2   19.92    1.12
  -1  -7   2   17.98    1.00
   1   0  -3  398.19    5.95
   0  -1  -3  397.34    5.71
  -1   0   3  407.24    5.85
   0  -1   3  406.23    6.36
   0   1   3  407.34    5.80
   1   0   3  407.16    5.31
   0  -1   3  402.55    5.81
   1  -2  -3  257.22    4.48
   2   1  -3  246.67    4.78
   2   1   3  266.49    4.29
   1  -2   3  252.40    4.22
   1  -2   3  265.49    4.81
   2   1   3  257.37    4.53
  -2  -1   3  249.90    4.38
   1   2  -3  252.14    4.66
   2  -1  -3  256.34    4.55
  -1  -2  -3  253.43    4.39
  -1  -2  -3  260.82    4.30
   2  -1   3  257.09    4.03
   2  -1   3  250.65    4.75
  -1  -2   3  256.21    4.55
   2  -3  -3  136.57    3.39
   3   2  -3  134.89    3.73
   3   2   3  136.29    3.27
  -3  -2   3  134.67    3.28
   2  -3   3  136.03    3.22
   2  -3   3  133.13    3.08
   0  -3  -3  182.21    3.74
   3   0  -3  170.00    3.88
   0  -3   3  178.00    3.65
   3   0   3  179.48    3.25
   3   0   3  180.71    3.77
  -3   0   3  173.78    3.31
   0  -3   3  176.65    3.67
   2   3  -3  139.59    3.73
   3  -2  -3  135.65    3.45
  -2  -3  -3  135.37    3.10
   3  -2   3  137.43    2.99
  -2  -3   3  134.80    3.32
   2   3   3  132.30    3.46
   3  -2   3  139.85    3.54
  -4  -3  -3   62.75    1.43
  -3   4  -3   61.26    1.34
   4   3  -3   61.55    1.61
   3  -4  -3   62.16    1.46
   3  -4   3   62.89    2.33
   3  -4   3   62.86    1.35
  -3   4   3   62.05    1.30
  -4  -3   3   62.39    1.46
   1  -4  -3  101.24    3.05
  -4  -1  -3   99.92    1.79
   4   1  -3   96.32    3.13
   4   1  -3   97.60    1.87
   1  -4  -3  101.28    1.84
  -4  -1   3   98.37    2.74
   4   1   3  103.52    2.98
   1  -4   3   97.99    2.64
   1  -4   3  103.06    2.90
   4  -1  -3  103.11    3.15
   1   4  -3  103.54    3.15
   4  -1  -3  100.98    1.89
  -1  -4  -3  100.94    3.13
  -1  -4   3  101.81    1.82
  -1  -4   3  102.76    2.88
   4  -1   3  102.32    3.09
  -3  -4  -3   64.20    1.37
   4  -3  -3   62.39    1.47
  -4   3  -3   60.55    1.32
  -3  -4  -3   59.40    2.30
  -4   3   3   61.72    1.36
  -3  -4   3   63.20    1.43
  -3  -4   3   59.72    1.54
   5   4  -3   25.94    1.15
  -4   5  -3   27.04    1.00
   4  -5  -3   27.91    1.08
  -5  -4  -3   26.66    1.03
   4  -5   3   25.95    0.98
  -4   5   3   27.23    0.97
  -5  -4   3   27.80    1.11
  -2   5  -3   50.12    1.18
   5   2  -3   51.33    1.46
  -5  -2  -3   50.34    1.33
   2  -5  -3   50.52    1.37
  -5  -2   3   49.14    1.30
   2  -5   3   48.52    1.27
   0  -5  -3   62.02    1.54
   5   0  -3   60.22    1.52
   0  -5  -3   63.38    2.75
  -5   0  -3   62.68    1.46
   0  -5   3   62.56    1.35
   0  -5   3   62.10    1.43
   5   0   3   63.32    2.58
   5  -2  -3   51.12    1.41
  -2  -5  -3   50.21    1.45
  -2  -5   3   51.00    1.30
  -2  -5   3   50.86    1.40
  -4  -5  -3   28.46    1.04
   5  -4  -3   29.15    1.15
  -4  -5   3   27.55    1.09
  -4  -5   3   29.66    1.28
  -5   4   3   28.86    1.04
   6   3  -3   21.99    1.07
  -6  -3  -3   23.02    1.00
  -3   6  -3   23.30    0.96
   3  -6  -3   24.32    1.07
   3  -6   3   23.36    0.97
  -3   6   3   23.47    0.89
  -6  -3   3   22.44    1.04
  -6  -1  -3   33.75    1.18
   1  -6  -3   35.47    1.26
   6   1  -3   35.23    1.27
   1  -6   3   34.29    1.18
   6  -1  -3   34.11    1.26
  -1  -6  -3   35.53    1.31
  -1  -6   3   34.95    1.21
  -1  -6   3   33.31    1.05
   6  -3  -3   23.91    1.09
  -3  -6   3   23.38    1.01
  -3  -6   3   26.38    1.18
  -7  -2  -3   18.75    0.99
   7   2  -3   16.97    1.00
   2  -7  -3   16.40    0.96
  -2   7  -3   18.75    0.91
   0  -7  -3   21.90    1.15
   7   0  -3   22.16    1.08
   0  -7   3   23.51    1.06
   7  -2  -3   18.76    1.02
  -2  -7   3   18.85    1.03
  -2  -7   3   18.34    0.87
   0   0  -4    1.85    0.21
   0   0   4    2.81    0.38
   1   1  -4  543.03    8.15
   1  -1  -4  531.78    7.90
   1   1   4  535.87    7.48
   1   1   4  547.56    8.15
   1  -1   4  540.25    8.71
  -1  -1   4  551.40    8.29
   1  -1   4  549.48    7.44
   2   0  -4    0.73    0.33
   0  -2  -4    0.49    0.25
   2   0   4    0.60    0.27
   0  -2   4    0.12    0.20
   0   2   4    0.66    0.19
   0  -2   4    0.34    0.27
   2   0   4    1.11    0.20
  -2   0   4    0.25    0.18
   2   2  -4    0.40    0.35
   2  -2  -4    0.64    0.34
  -2  -2   4    0.17    0.26
   2  -2   4    0.20    0.33
   2  -2   4    0.52    0.25
   2   2   4    0.28    0.25
   1  -3  -4  287.65    5.33
   3   1  -4  280.44    5.61
   1  -3   4  283.66    5.07
   1  -3   4  286.43    5.42
  -3  -1   4  282.29    5.12
   3   1   4  271.59    5.33
  -1  -3  -4  282.62    5.40
   1   3  -4  280.35    5.49
   3  -1  -4  279.92    5.55
  -1  -3  -4  297.07    4.98
  -1  -3   4  284.01    5.44
   3  -1   4  288.43    5.67
   3  -3  -4  156.70    4.02
  -3   3  -4  158.33    2.51
   3   3  -4  155.13    4.43
  -3  -3  -4  158.12    2.48
   3  -3  -4  153.09    2.51
  -3   3   4  159.23    2.49
  -3  -3   4  153.99    2.67
  -3  -3   4  157.30    2.55
   3   3   4  156.30    3.78
  -3  -3   4  161.68    4.00
   4   2  -4    0.24    0.21
  -2   4  -4    0.26    0.20
   2  -4  -4    0.78    0.49
   4   2  -4   -0.50    0.35
   4   2  -4    0.67    0.28
   2  -4  -4   -0.03    0.18
  -4  -2  -4    1.19    0.24
   2  -4   4    0.50    0.19
   2  -4   4   -0.01    0.31
  -4  -2   4    0.51    0.21
  -4  -2   4    0.39    0.35
   4   2   4    1.58    0.52
   0  -4  -4   -0.40    0.38
   4   0  -4    0.24    0.35
   4   0  -4    0.17    0.19
   0  -4   4    0.54    0.34
   0  -4   4    0.10    0.30
   0  -4   4    0.32    0.18
   4   0   4    0.42    0.36
   4  -2  -4    0.78    0.24
  -2  -4  -4    0.66    0.39
   2   4  -4    0.50    0.46
  -2  -4  -4    0.18    0.15
   4  -2  -4    0.72    0.51
  -2  -4   4    0.04    0.20
  -2  -4   4    0.26    0.19
  -4   2   4    0.33    0.21
  -2  -4   4   -0.12    0.32
  -4   4  -4    0.04    0.26
  -4  -4  -4    0.20    0.22
   4   4  -4    0.48    0.32
   4  -4  -4    0.11    0.24
  -4  -4   4    0.37    0.26
  -4  -4   4    0.47    0.33
  -4   4   4    0.29    0.27
   5   3  -4   62.70    1.73
  -3   5  -4   60.75    1.47
   3  -5  -4   62.71    1.62
  -5  -3  -4   62.98    1.58
   3  -5   4   61.86    1.45
  -3   5   4   63.61    1.42
  -5  -3   4   61.50    1.59
   5   1  -4   95.99    2.04
  -1   5  -4   98.33    1.81
  -5  -1  -4   98.94    1.97
   1  -5  -4   97.29    2.01
   1  -5   4   98.06    1.88
   5  -1  -4   96.56    2.05
  -1  -5  -4   96.94    2.05
  -1  -5   4   97.06    1.93
  -1  -5   4   98.49    1.92
  -3  -5  -4   63.94    1.47
   5  -3  -4   65.75    1.69
  -5   3   4   64.64    1.53
  -3  -5   4   64.43    1.72
  -3  -5   4   62.43    1.61
   5  -5  -4   32.07    1.25
   5   5  -4   29.77    1.30
  -5  -5  -4   31.72    1.16
  -5  -5   4   31.49    1.26
  -5   5   4   31.06    1.15
   6   4  -4    0.37    0.37
  -6  -4  -4    0.46    0.30
   4  -6  -4    0.27    0.31
  -4   6  -4    1.04    0.40
  -4   6   4    0.55    0.36
  -6  -4   4    0.34    0.35
  -6  -2  -4    0.80    0.34
   6   2  -4    0.35    0.32
  -2   6  -4    0.24    0.29
   2  -6  -4    0.14    0.28
   2  -6   4    0.22    0.25
   6   0  -4    0.42    0.32
  -6   0  -4    1.67    0.40
   0  -6  -4   -0.03    0.31
   0  -6   4    0.35    0.27
   6  -2  -4    0.26    0.31
  -2  -6   4    0.33    0.27
  -2  -6   4    0.02    0.29
   6  -4  -4    0.64    0.36
  -4  -6  -4   -0.11    0.24
  -4  -6   4    0.81    0.43
  -4  -6   4    0.35    0.32
   7   1  -4   36.35    1.40
   1  -7  -4   35.39    1.38
  -1   7  -4   37.83    1.23
   1  -7   4   35.11    1.28
   7  -1  -4   32.79    1.36
  -1  -7   4   34.51    1.32
   1   0  -5  158.06    2.86
   0   1  -5  159.01    2.77
   0  -1  -5  158.55    2.65
   0  -1   5  158.53    3.37
  -1   0   5  153.50    2.84
   0   1   5  160.58    2.80
   1   0   5  156.84    3.18
   2   1  -5  111.44    2.86
   1  -2  -5  112.43    2.60
  -2  -1   5  111.58    2.53
   1  -2   5  111.20    2.32
   2   1   5  110.41    2.62
   1  -2   5  112.04    3.02
   2  -1  -5  110.55    2.65
   1   2  -5  112.19    2.74
  -1  -2  -5  106.95    2.37
  -1  -2   5  108.33    2.70
   1   2   5  109.49    2.35
   2  -1   5  109.33    2.92
   3   2  -5   60.15    2.47
   2  -3  -5   61.35    2.19
  -3  -2   5   62.00    2.13
   3   2   5   59.07    2.06
   2  -3   5   60.33    1.90
   2  -3   5   59.27    2.24
   3   0  -5   83.74    2.49
   0  -3  -5   81.30    2.36
   3   0   5   76.40    2.39
   0  -3   5   82.50    2.45
   0  -3   5   76.79    2.21
   2   3  -5   61.44    2.35
   3  -2  -5   59.15    2.21
   2   3   5   57.57    1.87
  -2  -3   5   60.03    2.18
   3  -2   5   60.16    2.33
   4   3  -5   30.88    1.02
  -4  -3  -5   29.20    0.94
  -3   4  -5   28.85    0.91
   3  -4  -5   28.76    1.00
   4   3  -5   30.73    1.14
  -3   4   5   29.17    0.87
  -4  -3   5   29.66    0.99
   4   1  -5   45.92    1.19
  -4  -1  -5   46.54    1.15
   1  -4  -5   46.57    2.06
  -1   4  -5   47.84    1.05
   1  -4  -5   45.36    1.18
   4   1  -5   50.66    2.22
   1  -4   5   45.62    1.91
   1  -4   5   46.45    1.04
   1  -4   5   46.65    1.10
   4   1   5   40.68    1.89
   1  -4   5   44.68    1.84
   1   4  -5   50.71    2.16
   4  -1  -5   45.34    2.10
   4  -1  -5   45.19    1.19
  -1  -4   5   46.76    1.13
  -1  -4   5   46.67    1.15
  -4   1   5   46.15    1.05
   4  -1   5   47.83    2.19
   4  -1   5   46.13    1.21
  -1  -4   5   45.16    1.99
  -3  -4  -5   30.85    0.90
   4  -3  -5   28.71    1.03
  -3  -4   5   30.11    1.01
  -4   3   5   29.59    0.93
  -3  -4   5   31.73    1.11
  -5  -4  -5   15.14    0.79
   5   4  -5   15.71    0.88
   5   4  -5   12.13    0.86
  -4   5  -5   15.29    0.76
   4  -5  -5   15.45    0.86
  -5  -4   5   14.77    0.83
  -4   5   5   13.74    0.78
  -5  -2  -5   26.24    0.97
  -2   5  -5   25.31    0.89
   5   2  -5   27.60    1.10
   2  -5  -5   24.82    1.00
   2  -5   5   25.95    0.92
  -5   0  -5   29.93    1.02
   0  -5  -5   28.47    1.05
   5   0  -5   29.81    1.09
   0  -5   5   30.46    0.96
   0  -5   5   29.35    0.94
   5  -2  -5   26.12    1.06
  -2  -5   5   26.38    0.97
  -2  -5   5   26.27    1.00
   4   5  -5   15.32    0.94
  -4  -5  -5   16.01    0.75
   5  -4  -5   15.21    0.90
  -5   4   5   13.96    0.81
  -4  -5   5   15.13    0.88
  -4  -5   5   14.66    0.95
   6   3  -5   14.07    0.89
  -6  -3  -5   12.09    0.79
  -3   6  -5   13.09    0.76
   3  -6  -5   13.09    0.85
   1  -6  -5   18.81    0.96
  -6  -1  -5   17.55    0.92
  -1   6  -5   17.56    0.81
   6   1  -5   19.51    1.01
   1  -6   5   18.64    0.88
   6  -1  -5   14.95    0.92
  -1  -6   5   17.37    0.81
  -1  -6   5   16.24    0.84
   6  -3  -5   14.75    0.93
  -3  -6   5   13.49    0.88
  -3  -6   5   12.34    0.78
   0  -7  -5   12.46    0.94
   7   0  -5   12.17    0.89
   0   7  -5   11.64    0.76
   0  -7   5   10.68    0.78
   0   0  -6    9.07    0.40
   0   0   6    8.87    0.63
   1   1  -6  319.95    5.42
   1  -1  -6  332.68    5.28
  -1  -1   6  328.06    5.75
   1  -1   6  331.01    6.07
   1   1   6  324.47    5.51
   0  -2  -6    5.50    0.52
   2   0  -6    5.74    0.58
   0   2  -6    5.17    0.53
   0  -2   6    6.41    0.66
   2   0   6    5.94    0.62
   2   2  -6    3.92    0.73
   2  -2  -6    4.12    0.57
  -2  -2   6    3.48    0.57
   2  -2   6    4.66    0.71
   2   2   6    5.04    0.55
   1  -3  -6  167.92    3.86
   3   1  -6  169.82    4.03
  -3  -1   6  167.13    3.64
   3   1   6  165.80    3.91
   1  -3   6  172.88    3.54
   1  -3   6  167.64    4.12
   3  -1  -6  170.65    4.03
   1   3  -6  172.33    3.98
  -1  -3   6  169.29    4.10
   3  -1   6  172.25    4.30
   3   3  -6   96.17    1.88
  -3  -3  -6  101.22    1.81
   3  -3  -6   93.68    3.10
   3   3  -6  103.90    3.51
  -3   3  -6  100.64    1.79
   3  -3  -6   96.39    1.87
   3  -3   6   98.14    1.97
  -3  -3   6   97.79    2.00
  -3  -3   6   99.80    1.93
   3   3   6  102.83    2.97
   3  -3   6  101.92    3.40
  -3  -3   6  100.57    3.21
  -3   3   6  101.36    1.84
  -4  -2  -6    0.90    0.24
   4   2  -6    2.34    0.39
   2  -4  -6    1.45    0.58
   2  -4  -6    1.44    0.30
  -2   4  -6    1.52    0.28
   4   2  -6    1.82    0.35
   2  -4   6    1.61    0.30
   2  -4   6    1.52    0.61
   0   4  -6    2.01    0.33
  -4   0  -6    2.08    0.32
   4   0  -6    1.45    0.29
   4   0  -6    1.93    0.62
   0   4  -6    2.44    0.65
   0  -4   6    1.94    0.56
   0  -4   6    1.81    0.27
   4   0   6    2.07    0.61
   0  -4   6    2.06    0.32
   2   4  -6    1.84    0.69
   4  -2  -6    1.83    0.68
   2   4  -6    2.24    0.36
   4  -2  -6    1.45    0.32
   4  -2   6    4.43    0.50
  -4   2   6    1.76    0.31
  -2  -4   6    1.56    0.32
  -2  -4   6    1.41    0.30
   4  -2   6    7.01    1.05
   4   4  -6    0.96    0.36
   4   4  -6    1.20    0.37
  -4  -4  -6    1.83    0.35
   4  -4  -6    1.32    0.35
  -4  -4   6    0.96    0.32
  -4   4   6    0.77    0.31
  -3   5  -6   44.15    1.22
   3  -5  -6   43.08    1.36
  -5  -3  -6   45.32    1.34
   5   3  -6   46.72    1.47
   1  -5  -6   65.26    1.63
   5   1  -6   66.00    1.66
  -1   5  -6   65.96    1.47
  -5  -1  -6   66.12    1.64
   1  -5   6   66.93    1.49
   1  -5   6   66.57    1.51
   5  -1  -6   67.10    1.69
  -1  -5   6   66.73    1.61
  -1  -5   6   67.99    1.56
   5  -1   6   67.96    1.76
   5  -3  -6   44.30    1.41
  -3  -5   6   44.09    1.37
  -5   3   6   43.42    1.28
  -3  -5   6   43.55    1.38
   5   5  -6   22.74    1.05
  -5  -5  -6   22.54    0.97
   5  -5  -6   22.00    1.06
   5   5  -6   23.35    1.08
  -5  -5   6   24.36    1.11
  -5   5   6   24.49    1.03
   2  -6  -6    0.77    0.38
  -2   6  -6    1.16    0.36
   6   2  -6    0.95    0.37
  -6  -2  -6    1.10    0.37
   0   6  -6    1.57    0.37
   6   0  -6    1.10    0.39
   0  -6   6    0.79    0.30
   0  -6   6    1.34    0.33
   6   0   6    0.96    0.41
   6  -2  -6    0.71    0.37
  -2  -6   6    1.17    0.38
  -2  -6   6    0.97    0.34
   7   1  -6   26.94    1.23
  -1   7  -6   26.99    1.09
   1  -7  -6   27.61    1.23
   7   1   6   26.35    1.24
   1  -7   6   27.07    1.11
   7  -1  -6   25.07    1.22
   1   7  -6   25.70    1.05
  -1  -7   6   26.65    1.13
  -1  -7   6   25.86    1.03
   0   1  -7   80.60    1.78
   1   0  -7   80.70    1.84
   0  -1   7   77.39    2.37
   1   0   7   78.26    2.29
  -1   0   7   77.95    2.00
   0   1   7   81.28    1.99
   1  -2  -7   60.94    1.87
   2   1  -7   61.88    2.00
   1  -2   7   54.91    2.25
   2   1   7   61.86    1.98
  -2  -1   7   60.48    1.91
   2  -1  -7   61.39    1.89
   1   2  -7   60.00    1.98
   1   2   7   61.53    1.75
   2  -1   7   61.86    2.29
  -1  -2   7   57.29    2.06
  -3  -2  -7   32.19    0.91
   3   2  -7   31.18    0.93
   3   2  -7   31.37    0.96
   2  -3  -7   31.58    0.91
   3   2  -7   31.59    1.79
   2  -3  -7   30.47    1.58
  -2   3  -7   32.61    0.84
   2  -3   7   32.72    1.00
   3   2   7   34.96    1.59
  -3  -2   7   34.69    1.65
   2  -3   7   32.55    1.81
   0   3  -7   47.53    1.79
   3   0  -7   43.02    1.75
   0  -3   7   42.94    1.94
   3   0   7   42.76    1.88
   2   3  -7   38.61    0.88
   3  -2  -7   31.77    0.95
   2   3  -7   32.73    1.81
   3  -2  -7   33.22    1.69
  -2  -3   7   32.58    0.98
  -2  -3   7   33.88    1.78
  -3   2   7   32.35    0.92
   3  -2   7   31.83    1.81
   2   3   7   33.64    1.46
  -2  -3   7   34.62    1.02
   3  -2   7   33.49    1.04
  -3   4  -7   13.09    0.65
   4   3  -7   14.28    0.84
  -4  -3  -7   13.55    0.68
   3  -4  -7   14.96    0.78
   4   3  -7   14.47    0.76
  -4  -3   7   14.51    0.76
  -3   4   7   14.36    0.68
   4   1  -7   25.07    1.63
  -1   4  -7   24.10    0.79
  -4  -1  -7   24.73    0.89
   4   1  -7   25.97    0.90
   4   1   7   25.00    1.57
   1  -4   7   25.34    1.60
   1  -4   7   25.40    0.87
   1   4  -7   25.60    1.58
   4  -1  -7   24.12    0.90
   1   4  -7   24.48    0.80
   4  -1  -7   25.06    1.60
  -4   1   7   23.91    0.79
  -1  -4   7   24.99    1.59
   4  -1   7   23.49    0.93
  -1  -4   7   27.70    0.89
   4  -1   7   26.39    1.78
  -1  -4   7   24.96    0.83
   4  -3  -7   14.72    0.79
   3   4  -7   13.62    0.71
  -3  -4  -7   13.59    0.63
  -3  -4   7   15.25    0.81
  -4   3   7   14.35    0.72
  -3  -4   7   14.67    0.77
   5   4  -7    5.90    0.67
   5   4  -7    5.62    0.67
  -5  -4  -7    6.36    0.58
   4  -5  -7    4.56    0.59
  -4   5   7    6.78    0.64
  -5  -4   7    6.18    0.65
  -2   5  -7   12.03    0.65
   5   2  -7   11.90    0.79
  -5  -2  -7   11.36    0.71
   2  -5  -7   12.28    0.77
   5   0  -7   14.81    0.82
   0   5  -7   16.97    0.73
   5   0   7   14.46    0.80
   0  -5   7   13.43    0.69
   0  -5   7   14.50    0.73
   5  -2  -7   12.01    0.80
   2   5  -7   12.44    0.67
   5  -2   7   12.23    0.80
  -2  -5   7   11.83    0.76
  -2  -5   7   12.62    0.75
  -4  -5  -7    6.31    0.54
   4   5  -7    6.97    0.68
   5  -4  -7    4.81    0.63
   4   5  -7    6.18    0.70
  -4  -5   7    6.09    0.65
  -5   4   7    5.35    0.63
   3  -6  -7    5.88    0.65
  -3   6  -7    4.59    0.56
   6   3  -7    6.48    0.66
  -6  -3  -7    4.65    0.58
   6   1  -7    8.60    0.77
  -6  -1  -7    8.44    0.70
  -1   6  -7    7.33    0.62
   1  -6   7    8.03    0.65
   1   6  -7    7.87    0.64
   6  -1  -7    7.83    0.75
  -1  -6   7    8.68    0.67
  -1  -6   7    8.43    0.67
   6  -1   7    8.59    0.78
   6  -3  -7    5.28    0.65
   3   6  -7    4.20    0.53
  -3  -6   7    6.09    0.65
  -3  -6   7    4.81    0.58
   0   7  -7    5.63    0.62
   7   0  -7    6.52    0.70
   0  -7   7    5.18    0.64
   7   0   7    5.46    0.72
   0   0   8  573.53    9.37
   1   1  -8   30.16    1.21
   1  -1  -8   30.99    1.15
  -1  -1   8   32.42    1.44
   1  -1   8   28.41    1.49
   1   1   8   30.92    1.33
   2   0  -8  415.77    6.75
   0  -2   8  401.50    7.68
   2   0   8  411.31    7.61
   2  -2  -8  326.14    5.97
   2   2  -8  326.28    6.36
   2   2   8  323.79    6.07
  -2  -2   8  315.73    6.47
   2  -2   8  323.76    6.86
   3   1  -8   18.55    0.71
  -1   3  -8   19.33    0.65
   3   1  -8   17.89    1.25
  -3  -1  -8   19.64    0.75
   3   1   8   17.84    1.25
   1  -3   8   18.98    0.77
   1  -3   8   19.54    1.39
   3  -1  -8   19.72    0.71
   3  -1  -8   20.37    1.26
   1   3  -8   19.89    1.29
   1   3  -8   18.63    0.68
  -3   1   8   19.78    0.71
  -1  -3   8   18.46    1.33
   3  -1   8   18.98    0.77
  -1  -3   8   19.94    0.79
   3  -1   8   18.58    1.40
  -3  -3  -8   11.63    0.59
   3  -3  -8   12.42    0.67
   3   3  -8   11.16    0.67
   3   3  -8   12.12    0.72
  -3   3   8   12.93    0.67
   3  -3   8   13.40    0.73
  -3  -3   8   12.10    0.68
   2  -4  -8  163.14    2.73
   4   2  -8  163.68    2.85
  -4  -2  -8  167.20    2.85
  -2   4  -8  164.65    2.76
   2  -4   8  162.10    2.89
   0   4  -8  210.86    3.31
   4   0  -8  204.95    3.23
   4   0   8  203.84    3.40
   0  -4   8  212.53    3.40
   2   4  -8  152.26    2.71
   4  -2  -8  166.89    2.82
  -2  -4   8  163.22    2.76
  -4   2   8  160.48    2.85
   4  -2   8  163.85    2.98
  -2  -4   8  166.60    2.95
   4  -4  -8   90.98    2.04
   4   4  -8   89.67    2.05
  -4  -4  -8   91.54    1.94
   4   4  -8   91.12    2.13
  -4   4   8   91.74    2.01
  -4  -4   8   89.64    2.16
  -3   5  -8    5.48    0.55
   3  -5  -8    5.07    0.60
   5   3  -8    5.51    0.64
  -5  -3  -8    4.54    0.54
  -1   5  -8    7.40    0.57
  -5  -1  -8    8.43    0.66
   5   1  -8    8.37    0.67
   1  -5   8    8.18    0.62
   5  -1  -8    7.99    0.69
   1   5  -8    8.75    0.59
   5  -1   8    7.66    0.69
  -1  -5   8    7.37    0.59
  -1  -5   8    7.77    0.64
   3   5  -8    4.82    0.58
   5  -3  -8    5.24    0.63
  -3  -5   8    5.62    0.62
  -3  -5   8    5.00    0.60
  -5   3   8    5.04    0.64
  -2   6  -8   69.92    1.73
   2  -6  -8   73.35    1.83
  -6  -2  -8   69.64    1.92
   6   2  -8   71.53    1.91
   0   6  -8   84.43    1.93
   6   0  -8   87.56    2.15
   6   0   8   84.92    2.22
   0  -6   8   83.57    2.01
   6  -2  -8   68.13    1.86
   2   6  -8   68.69    1.72
  -2  -6   8   68.73    1.87
  -2  -6   8   70.74    1.79
   0  -1   9    0.60    0.38
   1   0   9    1.17    0.47
   2   1  -9    1.33    0.43
   2   1   9    1.46    0.47
   1  -2   9    4.05    0.72
   2  -1  -9    1.22    0.41
  -1  -2   9    0.42    0.40
   2  -1   9    0.79    0.49
   3   2  -9    0.45    0.25
  -3  -2  -9    0.76    0.25
   3   2  -9    0.73    0.25
   3   2  -9    0.33    0.52
   2  -3   9    0.32    0.24
   2  -3   9    0.44    0.51
   3   2   9    0.27    0.40
   3   0  -9    0.59    0.21
   0   3  -9    0.48    0.23
   3   0  -9    0.52    0.41
   0  -3   9    0.45    0.45
  -3   0   9    0.58    0.23
   0  -3   9    0.48    0.23
   3   0   9    0.67    0.48
   3   0   9    0.94    0.26
   3  -2  -9    0.37    0.46
   2   3  -9    1.12    0.61
   3  -2  -9    0.30    0.21
   2   3  -9    0.57    0.25
  -3   2   9    0.22    0.23
  -2  -3   9    0.15    0.22
   3  -2   9    0.31    0.25
  -2  -3   9    0.94    0.28
  -2  -3   9   -0.30    0.40
   3  -2   9    0.74    0.56
   3  -4  -9    0.45    0.27
   4   3  -9    0.26    0.32
   4   3  -9    0.57    0.33
  -4  -3  -9    1.08    0.31
  -3   4   9    0.75    0.31
   3  -4   9    0.15    0.29
   4   1  -9    0.33    0.23
  -4  -1  -9    0.95    0.29
  -1   4  -9    0.85    0.27
   1  -4   9    0.13    0.23
   1   4  -9    0.40    0.27
   4  -1  -9    0.28    0.24
  -1  -4   9    0.67    0.28
  -4   1   9    1.43    0.33
  -1  -4   9    0.36    0.23
   4  -1   9    0.42    0.29
   4  -3  -9    0.18    0.26
   3   4  -9    0.21    0.29
   3   4  -9    0.15    0.30
   4  -3   9    0.87    0.35
  -4   3   9    0.84    0.36
  -3  -4   9    0.19    0.28
  -5  -4  -9    0.30    0.30
   5   4  -9    0.43    0.36
   4  -5  -9    0.05    0.29
  -4   5   9    0.70    0.36
   5   2  -9    0.13    0.27
  -2   5  -9    0.11    0.28
  -5  -2  -9    0.35    0.30
   2  -5   9   -0.05    0.26
   0   5  -9    0.48    0.29
   5   0  -9   -0.13    0.26
   5   0   9   -0.13    0.29
   0  -5   9    0.35    0.27
   5  -2  -9    0.61    0.30
   2   5  -9   -0.44    0.23
  -2  -5   9   -0.01    0.27
  -2  -5   9    0.01    0.27
   5  -2   9    0.25    0.34
   4   5  -9    0.32    0.35
   4   5  -9    0.35    0.34
   5  -4  -9    0.40    0.34
  -4  -5   9    0.09    0.32
  -5   4   9    0.30    0.39
  -1   6  -9    0.19    0.33
   6   1  -9    0.37    0.34
   6   1   9   -0.20    0.33
   1  -6   9   -0.15    0.24
   1   6  -9    0.48    0.36
   6  -1  -9    0.48    0.36
  -1  -6   9    0.15    0.31
  -1  -6   9    0.19    0.30
   6  -1   9    0.84    0.40
   0   0  10   99.65    2.82
   1   1  10   22.87    1.30
  -1  -1  10   24.66    1.38
   1  -1  10   23.23    1.47
  -2   0  10   68.46    1.44
   0  -2  10   68.32    1.52
   0  -2  10   70.89    2.60
   2   0  10   72.50    2.66
   2   0  10   69.23    1.50
   2   2 -10   51.09    1.18
   2  -2  10   52.69    1.20
  -2  -2  10   50.34    2.21
   2   2  10   53.12    2.10
  -2   2  10   51.21    1.25
  -2  -2  10   49.81    1.25
   2  -2  10   53.44    2.44
   2  -2  10   51.47    1.37
  -1   3 -10   14.40    0.60
   3   1 -10   13.44    0.60
   1  -3  10   14.80    1.33
   3   1  10   14.32    0.70
   3   1  10   14.30    1.25
   1  -3  10   14.64    0.73
   1   3 -10   14.75    0.67
   3  -1 -10   17.59    1.21
   3  -1 -10   15.77    0.64
   3  -1  10   16.12    0.77
  -1  -3  10   16.38    1.37
  -1  -3  10   14.21    0.74
   3  -1  10   15.38    1.39
  -3   1  10   13.74    0.69
   3   3 -10   11.82    0.71
   3   3 -10   11.19    0.73
  -3  -3  10   11.17    0.74
  -3   3  10   12.05    0.71
   3  -3  10   11.71    0.74
  -2   4 -10   26.39    0.88
   4   2 -10   25.29    0.99
  -4  -2 -10   27.71    1.04
   2  -4  10   25.61    1.04
   0   4 -10   33.68    1.03
   4   0 -10   34.35    1.04
   4   0  10   30.92    1.15
   0  -4  10   31.53    1.13
   2   4 -10   26.63    0.97
   4  -2 -10   26.08    0.94
  -2  -4  10   24.06    1.06
   4  -2  10   25.63    1.09
  -4   2  10   25.08    1.01
  -2  -4  10   25.15    0.95
   4   4 -10   14.63    0.82
   4   4 -10   15.54    0.87
   4  -4 -10   14.72    0.82
   4  -4  10   15.12    0.89
  -4  -4  10   14.75    0.89
  -4   4  10   14.39    0.86
  -5  -3 -10    6.61    0.64
   5   3 -10    8.51    0.70
   3  -5  10    8.29    0.65
  -3   5  10    7.62    0.66
   5   1 -10    9.31    0.74
  -1   5 -10    9.75    0.65
   5   1  10   10.61    0.76
   1  -5  10    9.90    0.70
   5  -1 -10    9.92    0.71
   1   5 -10    7.99    0.61
   5  -1  10    9.96    0.76
  -1  -5  10    9.61    0.72
   5  -3 -10    7.72    0.68
   3   5 -10    7.68    0.73
  -5   3  10    8.28    0.73
   5  -3  10    8.37    0.74
   6   2 -10   11.06    0.82
  -2   6 -10   10.87    0.73
   6   2  10   11.67    0.83
   6   0 -10   13.68    0.87
   0   6 -10   12.37    0.79
   0  -6  10   13.87    0.84
   6   0  10   14.67    0.96
   6  -2 -10   10.94    0.79
   2   6 -10   12.30    0.78
  -2  -6  10   11.06    0.82
  -2  -6  10    9.85    0.76
   6  -2  10   10.74    0.87
   0  -1  11  118.44    2.09
   0  -1  11  117.86    3.40
  -1   0  11  116.96    2.09
   1   0  11  121.53    3.38
   1  -2  11   95.17    1.97
   2   1  11  100.25    1.92
   1  -2  11   96.93    3.35
   2   1  11   94.89    3.17
  -1  -2  11   95.36    1.90
  -2   1  11   91.54    1.85
  -1  -2  11   95.24    3.16
   2  -1  11   95.56    3.27
   2  -1  11   92.73    1.94
   3   2 -11   60.67    1.42
   2  -3  11   59.70    1.59
   3   2  11   61.17    1.48
   0   3 -11   76.76    1.57
   0  -3  11   75.35    1.74
  -3   0  11   75.01    1.60
   3   0  11   76.38    1.76
  -2  -3  11   55.27    1.52
  -3   2  11   57.72    1.45
   3  -2  11   57.84    1.58
   3  -2  11   56.76    1.37
   4   3 -11   34.66    1.22
  -4  -3 -11   33.69    1.18
  -3   4  11   36.89    1.21
   3  -4  11   37.66    1.30
   4   1 -11   48.72    1.29
  -1   4 -11   49.44    1.24
   4   1  11   49.84    1.46
   1  -4  11   48.63    1.43
   4  -1 -11   48.65    1.27
   1   4 -11   48.57    1.32
   4  -1  11   46.14    1.46
  -1  -4  11   49.34    1.46
  -4   1  11   48.86    1.35
   3   4 -11   34.41    1.21
   4  -3 -11   34.18    1.11
   3   4 -11   35.15    1.20
   4  -3  11   33.99    1.29
  -3  -4  11   33.16    1.28
  -4   3  11   34.71    1.24
   5   2 -11   28.47    1.11
   5   2  11   30.44    1.19
   2  -5  11   29.09    1.16
   5   0 -11   36.67    1.22
   0   5 -11   34.61    1.11
   5   0  11   34.65    1.34
   0  -5  11   33.52    1.27
   2   5 -11   29.14    1.11
   5  -2 -11   31.25    1.12
   5  -2  11   26.74    1.24
  -2  -5  11   29.47    1.25
  -1   6 -11   20.74    0.94
   6   1 -11   20.53    1.02
   1  -6  11   20.78    0.97
   6   1  11   22.26    1.15
   1   6 -11   20.60    0.97
   6  -1 -11   22.62    1.05
  -1  -6  11   20.15    1.06
   6  -1  11   23.87    1.16
   0   0  12    3.05    0.39
   1  -1  12   95.47    3.29
  -1   1  12   96.66    1.86
   1  -1  12   95.96    1.88
   1  -1  12   97.78    1.95
  -1  -1  12   99.12    1.84
   0  -2  12    1.75    0.66
  -2   0  12    1.56    0.32
   2   0  12    1.29    0.60
   0  -2  12    2.31    0.37
   2   0  12    1.82    0.34
  -2   2  12    0.98    0.30
   2  -2  12    1.54    0.35
   1  -3  12   64.65    1.65
   3   1  12   63.28    1.62
   1   3 -12   61.13    1.42
   3  -1  12   61.24    1.64
  -3   1  12   62.50    1.54
  -1  -3  12   62.20    1.62
   3   3 -12   41.92    1.25
  -3   3  12   41.45    1.28
   3  -3  12   43.84    1.40
   4   2 -12    0.86    0.31
   2  -4  12    1.62    0.39
   4   2  12    1.11    0.35
   4   0 -12    0.78    0.28
   0   4 -12    1.02    0.34
   0  -4  12    1.33    0.38
   4   0  12    0.79    0.35
   2   4 -12    0.48    0.34
  -4   2  12    1.55    0.42
  -2  -4  12    0.95    0.37
   4  -2  12    0.79    0.37
   4   4 -12    1.01    0.39
   4   4 -12    0.75    0.39
  -4   4  12    1.10    0.43
   4  -4  12    1.06    0.39
   5   3 -12   23.70    1.02
   3  -5  12   23.06    1.03
   5   3  12   23.40    1.05
  -3   5  12   22.56    1.01
   5   1 -12   30.06    1.11
   5   1  12   29.01    1.25
   1  -5  12   29.90    1.20
   1   5 -12   30.32    1.12
   5  -1 -12   30.39    1.10
   5  -1  12   28.47    1.24
  -1  -5  12   29.89    1.23
   3   5 -12   23.52    1.02
   5  -3 -12   22.05    0.96
  -3  -5  12   23.76    1.13
   5  -3  12   22.35    1.12
  -5   3  12   23.00    1.07
   1   0  13    7.88    0.53
   0  -1  13    9.34    0.55
   0   1  13    8.32    0.52
  -1   0  13    8.94    0.56
  -1   2  13    7.99    0.54
   1  -2  13    7.83    0.61
  -2   1  13    6.99    0.56
   2  -1  13    8.45    0.58
  -1  -2  13    7.63    0.59
   2  -1  13    7.68    0.61
  -2   3  13    6.78    0.59
   2  -3  13    5.26    0.59
   3   0  13    6.32    0.60
   0  -3  13    6.67    0.57
  -2  -3  13    6.07    0.60
  -3   2  13    6.59    0.62
   3  -2  13    5.45    0.59
   3  -4  13    3.73    0.55
  -3   4  13    3.72    0.58
   4   1  13    5.44    0.61
   1  -4  13    5.95    0.60
   4  -1  13    4.19    0.57
  -1  -4  13    4.47    0.56
  -3  -4  13    3.59    0.56
   4  -3  13    4.51    0.58
  -4   3  13    3.42    0.54
   5   2 -13    4.32    0.62
   2  -5  13    3.84    0.56
   5   2  13    3.94    0.60
   5   0 -13    5.47    0.61
   5   0  13    3.91    0.60
   0  -5  13    4.86    0.59
   2   5 -13    3.10    0.51
   5  -2  13    3.64    0.59
  -2  -5  13    3.22    0.56
   0   0  14    1.69    0.33
  -1   1  14   94.84    1.89
   1  -1  14   93.38    1.90
   1  -1  14   95.00    1.99
  -1  -1  14   96.29    1.87
   1   1  14   94.74    1.87
   2   0  14    1.15    0.35
   0  -2  14    1.01    0.31
  -2   0  14    0.69    0.28
   2  -2  14    0.90    0.34
  -2   2  14    1.04    0.33
   1  -3  14   68.16    1.74
   3   1  14   65.98    1.70
   3  -1  14   68.05    1.81
   3  -1  14   68.01    1.66
  -1  -3  14   68.04    1.73
  -3   1  14   66.86    1.66
  -3   3  14   46.70    1.43
   3  -3  14   49.65    1.54
   2  -4  14   -0.05    0.27
   4   2  14   -0.06    0.30
   4   0  14    0.65    0.35
   0  -4  14    0.08    0.29
  -4   2  14    0.44    0.36
  -2  -4  14    0.26    0.34
   4  -2  14    0.73    0.39
   5   1  14   37.69    1.39
   1  -5  14   35.59    1.33
   5  -1  14   36.05    1.42
  -1  -5  14   35.84    1.36
   0   1  15   15.73    0.70
   1   0  15   15.03    0.74
   0  -1  15   15.62    0.73
  -1   0  15   15.68    0.76
  -1   2  15   12.76    0.66
   1  -2  15   10.75    0.71
  -2   1  15   12.56    0.70
   2  -1  15   12.16    0.71
   2  -1  15   11.94    0.74
  -2   3  15    7.98    0.63
   2  -3  15    7.99    0.68
   0  -3  15    9.05    0.69
   3   0  15   12.10    0.79
  -3   2  15    9.70    0.70
   3  -2  15    7.32    0.69
   4   1  15    7.37    0.69
   1  -4  15    6.50    0.64
  -1  -4  15    6.37    0.61
   4  -1  15    6.31    0.68
   4  -1  15    6.59    0.63
   0   0  16   71.77    1.64
   1  -1  16    1.68    0.37
   1   1  16    2.02    0.37
  -1   1  16    1.33    0.33
   0   2  16   63.79    1.50
   2   0  16   63.31    1.60
  -2   0  16   63.32    1.51
  -2   2  16   54.77    1.45
   2  -2  16   54.42    1.58
  -1   3  16    0.78    0.31
   1  -3  16    1.10    0.37
  -1  -3  16    1.03    0.35
   3  -1  16    0.93    0.37
  -3   1  16    0.62    0.36
   3  -1  16    1.03    0.38
   3  -3  16    0.38    0.35
  -3   3  16    0.56    0.36
   4   0  16   44.71    1.53
   0  -4  16   44.04    1.44
   0   1  17    1.91    0.37
  -1   0  17    1.65    0.37
   1   0  17    2.07    0.40
   2   1  17    1.40    0.37
   1  -2  17    1.52    0.39
  -1   2  17    1.99    0.39
   2  -1  17    1.39    0.38
   1   2  17    1.52    0.37
   2  -1  17    1.32    0.39
  -2   1  17    1.76    0.37
   2  -3  17    1.17    0.37
  -2   3  17    1.15    0.36
   3   0  17    1.80    0.43
   0  -3  17    0.95    0.35
   3   0  17    1.46    0.40
  -3   2  17    2.16    0.43
   3  -2  17    1.76    0.44
   0   0  18   22.97    0.92
  -1   1  18    1.68    0.38
   1   1  18    1.79    0.38
   2   0  18   18.63    0.86
   0   2  18   16.73    0.81
   2  -2  18   16.51    0.88
  -1   0  19   18.24    0.80
   0   1  19   17.08    0.82
   1   0  19   17.89    0.84
   0   0   0    0.00    0.00
;
_shelx_hkl_checksum              14849
loop_
_space_group_symop_operation_xyz
'x, y, z'
'-x, -y, z'
'-y, x, z'
'y, -x, z'
'-x, y, -z'
'x, -y, -z'
'y, x, -z'
'-y, -x, -z'
'x+1/2, y+1/2, z+1/2'
'-x+1/2, -y+1/2, z+1/2'
'-y+1/2, x+1/2, z+1/2'
'y+1/2, -x+1/2, z+1/2'
'-x+1/2, y+1/2, -z+1/2'
'x+1/2, -y+1/2, -z+1/2'
'y+1/2, x+1/2, -z+1/2'
'-y+1/2, -x+1/2, -z+1/2'
'-x, -y, -z'
'x, y, -z'
'y, -x, -z'
'-y, x, -z'
'x, -y, z'
'-x, y, z'
'-y, -x, z'
'y, x, z'
'-x+1/2, -y+1/2, -z+1/2'
'x+1/2, y+1/2, -z+1/2'
'y+1/2, -x+1/2, -z+1/2'
'-y+1/2, x+1/2, -z+1/2'
'x+1/2, -y+1/2, z+1/2'
'-x+1/2, y+1/2, z+1/2'
'-y+1/2, -x+1/2, z+1/2'
'y+1/2, x+1/2, z+1/2'
loop_
_atom_site_label
_atom_site_type_symbol
_atom_site_fract_x
_atom_site_fract_y
_atom_site_fract_z
_atom_site_U_iso_or_equiv
_atom_site_adp_type
_atom_site_occupancy
_atom_site_site_symmetry_order
_atom_site_calc_flag
_atom_site_refinement_flags_posn
_atom_site_refinement_flags_adp
_atom_site_refinement_flags_occupancy
As1 As 0.0000 0.0000 0.36744(4) 0.00957(12) Uani 1 8 d S T P
Ca1 Ca -0.5000 -0.5000 0.5000 0.00931(17) Uani 1 16 d S T P
Co1 Co -0.5000 0.0000 0.2500 0.00853(15) Uani 0.937(4) 8 d S T .
loop_
_atom_site_aniso_label
_atom_site_aniso_U_11
_atom_site_aniso_U_22
_atom_site_aniso_U_33
_atom_site_aniso_U_23
_atom_site_aniso_U_13
_atom_site_aniso_U_12
As1 0.00887(14) 0.00887(14) 0.01098(18) 0.000 0.000 0.000
Ca1 0.0089(2) 0.0089(2) 0.0101(4) 0.000 0.000 0.000
Co1 0.00801(17) 0.00801(17) 0.0096(2) 0.000 0.000 0.000
loop_
_atom_type_symbol
_atom_type_description
_atom_type_scat_dispersion_real
_atom_type_scat_dispersion_imag
_atom_type_scat_source
Ca Ca 0.2262 0.3064 'International Tables Vol C Tables 4.2.6.8 and 6.1.1.4'
Co Co 0.3494 0.9721 'International Tables Vol C Tables 4.2.6.8 and 6.1.1.4'
As As 0.0499 2.0058 'International Tables Vol C Tables 4.2.6.8 and 6.1.1.4'
loop_
_geom_angle_atom_site_label_1
_geom_angle_atom_site_label_2
_geom_angle_atom_site_label_3
_geom_angle
_geom_angle_site_symmetry_1
_geom_angle_site_symmetry_3
Co1 As1 Co1 74.391(9) 25_445 .
Co1 As1 Co1 117.508(19) 25_445 25_455
Co1 As1 Co1 74.391(9) . 25_455
Co1 As1 Co1 74.391(9) 25_445 1_655
Co1 As1 Co1 117.508(19) . 1_655
Co1 As1 Co1 74.391(9) 25_455 1_655
Co1 As1 As1 121.246(9) 25_445 17_556
Co1 As1 As1 121.246(9) . 17_556
Co1 As1 As1 121.246(9) 25_455 17_556
Co1 As1 As1 121.246(9) 1_655 17_556
Co1 As1 Ca1 140.369(2) 25_445 1_665
Co1 As1 Ca1 140.369(2) . 1_665
Co1 As1 Ca1 71.456(3) 25_455 1_665
Co1 As1 Ca1 71.456(3) 1_655 1_665
As1 As1 Ca1 64.163(8) 17_556 1_665
Co1 As1 Ca1 71.456(3) 25_445 .
Co1 As1 Ca1 71.456(3) . .
Co1 As1 Ca1 140.369(2) 25_455 .
Co1 As1 Ca1 140.369(2) 1_655 .
As1 As1 Ca1 64.163(7) 17_556 .
Ca1 As1 Ca1 128.325(15) 1_665 .
Co1 As1 Ca1 140.369(2) 25_445 1_565
Co1 As1 Ca1 71.456(3) . 1_565
Co1 As1 Ca1 71.456(3) 25_455 1_565
Co1 As1 Ca1 140.369(2) 1_655 1_565
As1 As1 Ca1 64.163(7) 17_556 1_565
Ca1 As1 Ca1 79.051(6) 1_665 1_565
Ca1 As1 Ca1 79.051(6) . 1_565
Co1 As1 Ca1 71.456(3) 25_445 1_655
Co1 As1 Ca1 140.369(2) . 1_655
Co1 As1 Ca1 140.369(2) 25_455 1_655
Co1 As1 Ca1 71.456(3) 1_655 1_655
As1 As1 Ca1 64.163(7) 17_556 1_655
Ca1 As1 Ca1 79.051(6) 1_665 1_655
Ca1 As1 Ca1 79.051(6) . 1_655
Ca1 As1 Ca1 128.325(15) 1_565 1_655
As1 Ca1 As1 180.0 17_556 1_445
As1 Ca1 As1 128.326(15) 17_556 17_446
As1 Ca1 As1 51.674(15) 1_445 17_446
As1 Ca1 As1 79.051(6) 17_556 17_456
As1 Ca1 As1 100.949(6) 1_445 17_456
As1 Ca1 As1 79.051(6) 17_446 17_456
As1 Ca1 As1 100.949(6) 17_556 1_545
As1 Ca1 As1 79.051(6) 1_445 1_545
As1 Ca1 As1 100.949(6) 17_446 1_545
As1 Ca1 As1 180.0 17_456 1_545
As1 Ca1 As1 100.949(6) 17_556 1_455
As1 Ca1 As1 79.051(6) 1_445 1_455
As1 Ca1 As1 100.949(6) 17_446 1_455
As1 Ca1 As1 51.674(15) 17_456 1_455
As1 Ca1 As1 128.326(15) 1_545 1_455
As1 Ca1 As1 79.051(6) 17_556 17_546
As1 Ca1 As1 100.949(6) 1_445 17_546
As1 Ca1 As1 79.051(6) 17_446 17_546
As1 Ca1 As1 128.326(15) 17_456 17_546
As1 Ca1 As1 51.674(15) 1_545 17_546
As1 Ca1 As1 180.0 1_455 17_546
As1 Ca1 As1 51.675(15) 17_556 .
As1 Ca1 As1 128.325(15) 1_445 .
As1 Ca1 As1 180.0 17_446 .
As1 Ca1 As1 100.949(6) 17_456 .
As1 Ca1 As1 79.051(6) 1_545 .
As1 Ca1 As1 79.051(6) 1_455 .
As1 Ca1 As1 100.949(6) 17_546 .
As1 Ca1 Co1 137.242(6) 17_556 25_345
As1 Ca1 Co1 42.758(6) 1_445 25_345
As1 Ca1 Co1 87.419(7) 17_446 25_345
As1 Ca1 Co1 87.419(7) 17_456 25_345
As1 Ca1 Co1 92.581(7) 1_545 25_345
As1 Ca1 Co1 42.758(6) 1_455 25_345
As1 Ca1 Co1 137.242(6) 17_546 25_345
As1 Ca1 Co1 92.581(7) . 25_345
As1 Ca1 Co1 42.758(6) 17_556 17_456
As1 Ca1 Co1 137.242(6) 1_445 17_456
As1 Ca1 Co1 92.581(7) 17_446 17_456
As1 Ca1 Co1 42.758(6) 17_456 17_456
As1 Ca1 Co1 137.242(6) 1_545 17_456
As1 Ca1 Co1 87.419(7) 1_455 17_456
As1 Ca1 Co1 92.581(7) 17_546 17_456
As1 Ca1 Co1 87.419(7) . 17_456
Co1 Ca1 Co1 128.696(2) 25_345 17_456
As1 Ca1 Co1 42.758(6) 17_556 9_545
As1 Ca1 Co1 137.242(6) 1_445 9_545
As1 Ca1 Co1 92.581(7) 17_446 9_545
As1 Ca1 Co1 92.581(7) 17_456 9_545
As1 Ca1 Co1 87.419(7) 1_545 9_545
As1 Ca1 Co1 137.242(6) 1_455 9_545
As1 Ca1 Co1 42.758(6) 17_546 9_545
As1 Ca1 Co1 87.419(7) . 9_545
Co1 Ca1 Co1 180.0 25_345 9_545
Co1 Ca1 Co1 51.304(2) 17_456 9_545
As1 Ca1 Co1 137.242(6) 17_556 1_545
As1 Ca1 Co1 42.758(6) 1_445 1_545
As1 Ca1 Co1 87.419(7) 17_446 1_545
As1 Ca1 Co1 137.242(6) 17_456 1_545
As1 Ca1 Co1 42.758(6) 1_545 1_545
As1 Ca1 Co1 92.581(7) 1_455 1_545
As1 Ca1 Co1 87.419(7) 17_546 1_545
As1 Ca1 Co1 92.581(7) . 1_545
Co1 Ca1 Co1 51.304(2) 25_345 1_545
Co1 Ca1 Co1 180.0 17_456 1_545
Co1 Ca1 Co1 128.696(2) 9_545 1_545
As1 Co1 As1 105.609(9) . 25_445
As1 Co1 As1 105.609(9) . 25_455
As1 Co1 As1 117.507(19) 25_445 25_455
As1 Co1 As1 117.507(19) . 1_455
As1 Co1 As1 105.609(9) 25_445 1_455
As1 Co1 As1 105.609(9) 25_455 1_455
As1 Co1 Co1 52.804(4) . 25_455
As1 Co1 Co1 127.196(4) 25_445 25_455
As1 Co1 Co1 52.804(4) 25_455 25_455
As1 Co1 Co1 127.196(4) 1_455 25_455
As1 Co1 Co1 127.196(4) . 25_345
As1 Co1 Co1 52.804(4) 25_445 25_345
As1 Co1 Co1 127.196(4) 25_455 25_345
As1 Co1 Co1 52.805(4) 1_455 25_345
Co1 Co1 Co1 180.0 25_455 25_345
As1 Co1 Co1 127.196(4) . 25_355
As1 Co1 Co1 127.196(4) 25_445 25_355
As1 Co1 Co1 52.804(4) 25_455 25_355
As1 Co1 Co1 52.804(4) 1_455 25_355
Co1 Co1 Co1 90.0 25_455 25_355
Co1 Co1 Co1 90.0 25_345 25_355
As1 Co1 Co1 52.804(4) . 25_445
As1 Co1 Co1 52.805(4) 25_445 25_445
As1 Co1 Co1 127.196(4) 25_455 25_445
As1 Co1 Co1 127.196(4) 1_455 25_445
Co1 Co1 Co1 90.0 25_455 25_445
Co1 Co1 Co1 90.0 25_345 25_445
Co1 Co1 Co1 180.0 25_355 25_445
As1 Co1 Ca1 158.996(9) . 9_454
As1 Co1 Ca1 65.786(7) 25_445 9_454
As1 Co1 Ca1 65.786(7) 25_455 9_454
As1 Co1 Ca1 83.496(10) 1_455 9_454
Co1 Co1 Ca1 115.652(1) 25_455 9_454
Co1 Co1 Ca1 64.348(1) 25_345 9_454
Co1 Co1 Ca1 64.348(1) 25_355 9_454
Co1 Co1 Ca1 115.652(1) 25_445 9_454
As1 Co1 Ca1 65.786(7) . 1_565
As1 Co1 Ca1 158.996(9) 25_445 1_565
As1 Co1 Ca1 83.496(10) 25_455 1_565
As1 Co1 Ca1 65.786(7) 1_455 1_565
Co1 Co1 Ca1 64.348(1) 25_455 1_565
Co1 Co1 Ca1 115.652(1) 25_345 1_565
Co1 Co1 Ca1 64.348(1) 25_355 1_565
Co1 Co1 Ca1 115.652(1) 25_445 1_565
Ca1 Co1 Ca1 128.696(2) 9_454 1_565
As1 Co1 Ca1 65.786(7) . .
As1 Co1 Ca1 83.496(10) 25_445 .
As1 Co1 Ca1 158.996(9) 25_455 .
As1 Co1 Ca1 65.786(7) 1_455 .
Co1 Co1 Ca1 115.652(1) 25_455 .
Co1 Co1 Ca1 64.348(1) 25_345 .
Co1 Co1 Ca1 115.652(1) 25_355 .
Co1 Co1 Ca1 64.348(1) 25_445 .
Ca1 Co1 Ca1 128.696(3) 9_454 .
Ca1 Co1 Ca1 75.500(4) 1_565 .
As1 Co1 Ca1 83.496(10) . 9_554
As1 Co1 Ca1 65.786(7) 25_445 9_554
As1 Co1 Ca1 65.786(7) 25_455 9_554
As1 Co1 Ca1 158.996(9) 1_455 9_554
Co1 Co1 Ca1 64.348(1) 25_455 9_554
Co1 Co1 Ca1 115.652(1) 25_345 9_554
Co1 Co1 Ca1 115.652(1) 25_355 9_554
Co1 Co1 Ca1 64.348(1) 25_445 9_554
Ca1 Co1 Ca1 75.500(4) 9_454 9_554
Ca1 Co1 Ca1 128.696(3) 1_565 9_554
Ca1 Co1 Ca1 128.696(3) . 9_554
loop_
_geom_bond_atom_site_label_1
_geom_bond_atom_site_label_2
_geom_bond_distance
_geom_bond_site_symmetry_2
As1 Co1 2.3351(2) 25_445
As1 Co1 2.3351(2) .
As1 Co1 2.3351(2) 25_455
As1 Co1 2.3351(2) 1_655
As1 As1 2.7342(9) 17_556
As1 Ca1 3.1368(2) 1_665
As1 Ca1 3.1368(2) .
As1 Ca1 3.1368(2) 1_565
As1 Ca1 3.1368(2) 1_655
Ca1 As1 3.1368(2) 17_556
Ca1 As1 3.1368(2) 1_445
Ca1 As1 3.1368(2) 17_446
Ca1 As1 3.1368(2) 17_456
Ca1 As1 3.1368(2) 1_545
Ca1 As1 3.1368(2) 1_455
Ca1 As1 3.1368(2) 17_546
Ca1 Co1 3.26086(13) 25_345
Ca1 Co1 3.26086(13) 17_456
Ca1 Co1 3.26086(13) 9_545
Ca1 Co1 3.26086(13) 1_545
Co1 As1 2.3351(2) 25_445
Co1 As1 2.3351(2) 25_455
Co1 As1 2.3351(2) 1_455
Co1 Co1 2.82327(14) 25_455
Co1 Co1 2.82327(14) 25_345
Co1 Co1 2.82327(14) 25_355
Co1 Co1 2.82327(14) 25_445
Co1 Ca1 3.26086(13) 9_454
Co1 Ca1 3.26086(13) 1_565
Co1 Ca1 3.26085(13) 9_554
