#------------------------------------------------------------------------------
#$Date: 2016-02-13 21:28:24 +0200 (Sat, 13 Feb 2016) $
#$Revision: 176429 $
#$URL: svn://www.crystallography.net/cod/cif/4/12/40/4124085.cif $
#------------------------------------------------------------------------------
#
# This file is available in the Crystallography Open Database (COD),
# http://www.crystallography.net/
#
# All data on this site have been placed in the public domain by the
# contributors.
#
data_4124085
loop_
_publ_author_name
'Goodwin, A.L.'
'Keen, D.A.'
'Dove, M.T.'
'Tucker, M.G.'
'Peters, L.'
'Evans, J.S.O.'
_publ_section_title
;
 Argentophilicity-dependent colossal thermal expansion in extended
 Prussian blue analogues
;
_journal_name_full               'Journal of the American Chemical Society'
_journal_page_first              9660
_journal_page_last               9661
_journal_volume                  130
_journal_year                    2008
_chemical_formula_sum            'C6 Ag3 Fe N6'
_chemical_name_systematic        'Ag3 (Fe (C N)6)'
_space_group_IT_number           162
_symmetry_space_group_name_Hall  '-P 3 2'
_symmetry_space_group_name_H-M   'P -3 1 m'
_cell_angle_alpha                90
_cell_angle_beta                 90
_cell_angle_gamma                120
_cell_formula_units_Z            1
_cell_length_a                   6.7172
_cell_length_b                   6.7172
_cell_length_c                   7.5196
_cell_volume                     293.834
_citation_journal_id_ASTM        JACSAT
_cod_data_source_file            Goodwin_JACSAT_2008_1546.cif
_cod_data_source_block           C6Ag3Fe1N6
_cod_original_cell_volume        293.8339
_cod_original_formula_sum        'C6 Ag3 Fe1 N6'
_cod_database_code               4124085
loop_
_symmetry_equiv_pos_as_xyz
x,y,z
-y,x-y,z
-x+y,-x,z
-y,-x,-z
x,x-y,-z
-x+y,y,-z
-x,-y,-z
y,-x+y,-z
x-y,x,-z
y,x,z
-x,-x+y,z
x-y,-y,z
loop_
_atom_site_label
_atom_site_type_symbol
_atom_site_fract_x
_atom_site_fract_y
_atom_site_fract_z
_atom_site_occupancy
_atom_site_U_iso_or_equiv
N1 N-3 0.34271 0 0.26911 1 0.0
Fe1 Fe+3 0 0 0 1 0.0
C1 C+2 0.22468 0 0.15765 1 0.0
Ag1 Ag+1 0.5 0 0.5 1 0.0
