#------------------------------------------------------------------------------
#$Date: 2016-02-13 21:28:24 +0200 (Sat, 13 Feb 2016) $
#$Revision: 176429 $
#$URL: svn://www.crystallography.net/cod/cif/4/12/43/4124320.cif $
#------------------------------------------------------------------------------
#
# This file is available in the Crystallography Open Database (COD),
# http://www.crystallography.net/
#
# All data on this site have been placed in the public domain by the
# contributors.
#
data_4124320
loop_
_publ_author_name
'Butler, L.G.'
'Zietlow, M.H.'
'Clark, R.J.H.'
'Gray, H.B.'
'Che, C.'
'Grunthaner, P.J.'
'Sridhar, S.'
'Schaefer, W.P.'
'Swanson, B.I.'
_publ_section_title
;
 Translational Symmetries in the Linear-Chain Semiconductors K4 (Pt2 (P2
 O5 H2)4 X) * n(H2 O) (X = Cl, Br, I)
;
_journal_name_full               'Journal of the American Chemical Society'
_journal_page_first              1155
_journal_page_last               1162
_journal_volume                  110
_journal_year                    1988
_chemical_formula_sum            'Br H14 K4 O23 P8 Pt2'
_chemical_name_systematic        'K4 (Pt2 (P2 O5 H2)4 Br) (H2 O)3'
_space_group_IT_number           127
_symmetry_space_group_name_Hall  '-P 4 2ab'
_symmetry_space_group_name_H-M   'P 4/m b m'
_cell_angle_alpha                90
_cell_angle_beta                 90
_cell_angle_gamma                90
_cell_formula_units_Z            2
_cell_length_a                   13.131
_cell_length_b                   13.131
_cell_length_c                   8.139
_cell_volume                     1403.352
_citation_journal_id_ASTM        JACSAT
_cod_data_source_file            Butler_JACSAT_1988_1609.cif
_cod_data_source_block           H14Br1K4O23P8Pt2
_cod_original_formula_sum        'H14 Br1 K4 O23 P8 Pt2'
_cod_database_code               4124320
loop_
_symmetry_equiv_pos_as_xyz
x,y,z
-y,x,z
-x,-y,z
y,-x,z
x+1/2,-y+1/2,-z
y+1/2,x+1/2,-z
-x+1/2,y+1/2,-z
-y+1/2,-x+1/2,-z
-x,-y,-z
y,-x,-z
x,y,-z
-y,x,-z
-x-1/2,y-1/2,z
-y-1/2,-x-1/2,z
x-1/2,-y-1/2,z
y-1/2,x-1/2,z
loop_
_atom_site_label
_atom_site_type_symbol
_atom_site_fract_x
_atom_site_fract_y
_atom_site_fract_z
_atom_site_occupancy
_atom_site_U_iso_or_equiv
O2 O-2 0.0845 0.2341 0.2636 1 0.0
Br1 Br-1 0 0 0.0122 0.5 0.0
O3 O-2 0.1708 0.147 0.5 1 0.0
K1 K+1 0.2739 0.7739 0 1 0.0
O4 O-2 0.1024 0.6024 0.5215 0.375 0.0
Pt1 Pt+2 0 0 0.3291 1 0.0
P1 P+3 0.1201 0.1306 0.3204 1 0.0
O1 O-2 0.2172 0.1026 0.2167 1 0.0
O5 O-2 0.0551 0.5551 0.2701 0.375 0.0
K2 K+1 0.3898 0.8898 0.5 1 0.0
