#------------------------------------------------------------------------------
#$Date: 2017-04-04 07:48:52 +0300 (Tue, 04 Apr 2017) $
#$Revision: 194740 $
#$URL: file:///home/coder/svn-repositories/cod/cif/4/12/58/4125883.cif $
#------------------------------------------------------------------------------
#
# This file is available in the Crystallography Open Database (COD),
# http://www.crystallography.net/
#
# All data on this site have been placed in the public domain by the
# contributors.
#
data_4125883
loop_
_publ_author_name
'Bugaris, Daniel E.'
'Malliakas, Christos D.'
'Han, Fei'
'Calta, Nicholas P.'
'Sturza, Mihai'
'Krogstad, Matthew J.'
'Osborn, Raymond'
'Rosenkranz, Stephan'
'Ruff, Jacob P. C.'
'Trimarchi, Giancarlo'
'Bud'ko, Sergey L.'
'Balasubramanian, Mahalingam'
'Chung, Duck Young'
'Kanatzidis, Mercouri G.'
_publ_section_title
;
 Charge Density Wave in the New Polymorphs of RE2Ru3Ge5 (RE = Pr, Sm, Dy).
;
_journal_issue                   11
_journal_name_full               'Journal of the American Chemical Society'
_journal_page_first              4130
_journal_page_last               4143
_journal_paper_doi               10.1021/jacs.7b00284
_journal_volume                  139
_journal_year                    2017
_chemical_formula_moiety         'Ge5 Pr2 Ru3'
_chemical_formula_sum            'Ge5 Pr2 Ru3'
_chemical_formula_weight         947.98
_chemical_name_systematic
; 
 ? 
;
_space_group_IT_number           128
_symmetry_cell_setting           tetragonal
_symmetry_space_group_name_Hall  '-P 4 2n'
_symmetry_space_group_name_H-M   'P 4/m n c'
_atom_sites_solution_primary     direct
_atom_sites_solution_secondary   difmap
_audit_creation_method           SHELXL-97
_cell_angle_alpha                90.00
_cell_angle_beta                 90.00
_cell_angle_gamma                90.00
_cell_formula_units_Z            4
_cell_length_a                   11.0201(16)
_cell_length_b                   11.0201(16)
_cell_length_c                   5.8525(12)
_cell_measurement_reflns_used    23051
_cell_measurement_temperature    298(2)
_cell_measurement_theta_max      38.29
_cell_measurement_theta_min      3.70
_cell_volume                     710.7(2)
_computing_cell_refinement       'STOE X-AREA'
_computing_data_collection       'STOE X-AREA'
_computing_data_reduction        'STOE X-RED'
_computing_molecular_graphics    Diamond
_computing_publication_material  SHELXTL
_computing_structure_refinement  'SHELXL-97 (Sheldrick, 2008)'
_computing_structure_solution    'SHELXS-97 (Sheldrick, 2008)'
_diffrn_ambient_temperature      298(2)
_diffrn_measured_fraction_theta_full 0.993
_diffrn_measured_fraction_theta_max 0.993
_diffrn_measurement_device_type  'STOE IPDS 2T'
_diffrn_measurement_method       'rotation method'
_diffrn_radiation_monochromator  'plane graphite'
_diffrn_radiation_source         'sealed X-ray tube, long-fine focus'
_diffrn_radiation_type           MoK\a
_diffrn_radiation_wavelength     0.71073
_diffrn_reflns_av_R_equivalents  0.0571
_diffrn_reflns_av_sigmaI/netI    0.0200
_diffrn_reflns_limit_h_max       19
_diffrn_reflns_limit_h_min       -17
_diffrn_reflns_limit_k_max       19
_diffrn_reflns_limit_k_min       -19
_diffrn_reflns_limit_l_max       8
_diffrn_reflns_limit_l_min       -10
_diffrn_reflns_number            12320
_diffrn_reflns_theta_full        38.16
_diffrn_reflns_theta_max         38.16
_diffrn_reflns_theta_min         3.94
_exptl_absorpt_coefficient_mu    40.307
_exptl_absorpt_correction_T_max  0.0587
_exptl_absorpt_correction_T_min  0.0115
_exptl_absorpt_correction_type   integration
_exptl_absorpt_process_details   X-Shape
_exptl_crystal_colour            black
_exptl_crystal_density_diffrn    8.859
_exptl_crystal_density_method    'not measured'
_exptl_crystal_description       prism
_exptl_crystal_F_000             1640
_exptl_crystal_size_max          0.1700
_exptl_crystal_size_mid          0.1600
_exptl_crystal_size_min          0.1400
_refine_diff_density_max         2.660
_refine_diff_density_min         -1.722
_refine_diff_density_rms         0.440
_refine_ls_extinction_coef       0.0063(3)
_refine_ls_extinction_expression Fc^*^=kFc[1+0.001xFc^2^\l^3^/sin(2\q)]^-1/4^
_refine_ls_extinction_method     SHELXL
_refine_ls_goodness_of_fit_ref   1.565
_refine_ls_matrix_type           full
_refine_ls_number_parameters     31
_refine_ls_number_reflns         1044
_refine_ls_number_restraints     0
_refine_ls_restrained_S_all      1.565
_refine_ls_R_factor_all          0.0281
_refine_ls_R_factor_gt           0.0280
_refine_ls_shift/su_max          0.000
_refine_ls_shift/su_mean         0.000
_refine_ls_structure_factor_coef Fsqd
_refine_ls_weighting_details
'calc w=1/[\s^2^(Fo^2^)+(0.0137P)^2^+9.5663P] where P=(Fo^2^+2Fc^2^)/3'
_refine_ls_weighting_scheme      calc
_refine_ls_wR_factor_gt          0.0677
_refine_ls_wR_factor_ref         0.0677
_reflns_number_gt                1043
_reflns_number_total             1044
_reflns_threshold_expression     >2sigma(I)
_cod_data_source_file            ja7b00284_si_002.cif
_cod_data_source_block           Pr2Ru3Ge5
_cod_database_code               4125883
loop_
_symmetry_equiv_pos_as_xyz
'x, y, z'
'-x, -y, z'
'-y, x, z'
'y, -x, z'
'-x+1/2, y+1/2, -z+1/2'
'x+1/2, -y+1/2, -z+1/2'
'y+1/2, x+1/2, -z+1/2'
'-y+1/2, -x+1/2, -z+1/2'
'-x, -y, -z'
'x, y, -z'
'y, -x, -z'
'-y, x, -z'
'x-1/2, -y-1/2, z-1/2'
'-x-1/2, y-1/2, z-1/2'
'-y-1/2, -x-1/2, z-1/2'
'y-1/2, x-1/2, z-1/2'
loop_
_atom_site_label
_atom_site_type_symbol
_atom_site_fract_x
_atom_site_fract_y
_atom_site_fract_z
_atom_site_U_iso_or_equiv
_atom_site_adp_type
_atom_site_occupancy
_atom_site_symmetry_multiplicity
_atom_site_calc_flag
_atom_site_refinement_flags
Pr1 Pr 0.26440(3) 0.42999(3) 0.0000 0.00662(9) Uani 1 2 d S
Ru1 Ru 0.14325(4) 0.12331(4) 0.0000 0.00559(10) Uani 1 2 d S
Ru2 Ru 0.0000 0.5000 0.2500 0.00524(12) Uani 1 4 d S
Ge1 Ge 0.02805(6) 0.31949(6) 0.0000 0.00554(13) Uani 1 2 d S
Ge2 Ge 0.17579(5) 0.67579(5) 0.2500 0.01150(15) Uani 1 2 d S
Ge3 Ge 0.0000 0.0000 0.24348(17) 0.00579(16) Uani 1 4 d S
loop_
_atom_site_aniso_label
_atom_site_aniso_U_11
_atom_site_aniso_U_22
_atom_site_aniso_U_33
_atom_site_aniso_U_23
_atom_site_aniso_U_13
_atom_site_aniso_U_12
Pr1 0.00533(13) 0.00833(14) 0.00619(15) 0.000 0.000 -0.00031(9)
Ru1 0.00487(17) 0.00504(17) 0.00687(19) 0.000 0.000 -0.00006(12)
Ru2 0.00602(15) 0.00602(15) 0.0037(2) 0.000 0.000 0.00066(17)
Ge1 0.0056(2) 0.0053(2) 0.0057(3) 0.000 0.000 -0.00015(17)
Ge2 0.00887(17) 0.00887(17) 0.0168(4) 0.00564(18) -0.00564(18) -0.00163(19)
Ge3 0.0057(2) 0.0057(2) 0.0060(4) 0.000 0.000 0.000
loop_
_atom_type_symbol
_atom_type_description
_atom_type_scat_dispersion_real
_atom_type_scat_dispersion_imag
_atom_type_scat_source
Ge Ge 0.1547 1.8001 'International Tables Vol C Tables 4.2.6.8 and 6.1.1.4'
Ru Ru -1.2594 0.8363 'International Tables Vol C Tables 4.2.6.8 and 6.1.1.4'
Pr Pr -0.2180 2.8214 'International Tables Vol C Tables 4.2.6.8 and 6.1.1.4'
loop_
_geom_angle_atom_site_label_1
_geom_angle_atom_site_label_2
_geom_angle_atom_site_label_3
_geom_angle
_geom_angle_site_symmetry_1
_geom_angle_site_symmetry_3
Ge1 Pr1 Ge3 149.884(18) . 5
Ge1 Pr1 Ge3 149.884(18) . 13_665
Ge3 Pr1 Ge3 58.00(4) 5 13_665
Ge1 Pr1 Ge1 78.068(16) . 15_665
Ge3 Pr1 Ge1 132.05(2) 5 15_665
Ge3 Pr1 Ge1 75.85(2) 13_665 15_665
Ge1 Pr1 Ge1 78.069(16) . 15_666
Ge3 Pr1 Ge1 75.85(2) 5 15_666
Ge3 Pr1 Ge1 132.05(2) 13_665 15_666
Ge1 Pr1 Ge1 141.09(3) 15_665 15_666
Ge1 Pr1 Ge2 79.481(16) . 12_655
Ge3 Pr1 Ge2 105.352(15) 5 12_655
Ge3 Pr1 Ge2 79.940(11) 13_665 12_655
Ge1 Pr1 Ge2 76.276(17) 15_665 12_655
Ge1 Pr1 Ge2 128.130(16) 15_666 12_655
Ge1 Pr1 Ge2 79.481(16) . 3_655
Ge3 Pr1 Ge2 79.940(11) 5 3_655
Ge3 Pr1 Ge2 105.352(15) 13_665 3_655
Ge1 Pr1 Ge2 128.130(16) 15_665 3_655
Ge1 Pr1 Ge2 76.276(17) 15_666 3_655
Ge2 Pr1 Ge2 53.901(16) 12_655 3_655
Ge1 Pr1 Ge2 94.666(19) . .
Ge3 Pr1 Ge2 79.915(15) 5 .
Ge3 Pr1 Ge2 105.314(18) 13_665 .
Ge1 Pr1 Ge2 102.246(18) 15_665 .
Ge1 Pr1 Ge2 50.047(14) 15_666 .
Ge2 Pr1 Ge2 174.132(13) 12_655 .
Ge2 Pr1 Ge2 125.742(12) 3_655 .
Ge1 Pr1 Ge2 94.666(19) . 10
Ge3 Pr1 Ge2 105.314(18) 5 10
Ge3 Pr1 Ge2 79.915(15) 13_665 10
Ge1 Pr1 Ge2 50.047(14) 15_665 10
Ge1 Pr1 Ge2 102.246(18) 15_666 10
Ge2 Pr1 Ge2 125.742(12) 12_655 10
Ge2 Pr1 Ge2 174.132(13) 3_655 10
Ge2 Pr1 Ge2 53.873(14) . 10
Ge1 Pr1 Ru1 103.750(12) . 15_666
Ge3 Pr1 Ru1 46.536(17) 5 15_666
Ge3 Pr1 Ru1 100.23(2) 13_665 15_666
Ge1 Pr1 Ru1 172.242(18) 15_665 15_666
Ge1 Pr1 Ru1 46.165(17) 15_666 15_666
Ge2 Pr1 Ru1 96.540(17) 12_655 15_666
Ge2 Pr1 Ru1 45.951(9) 3_655 15_666
Ge2 Pr1 Ru1 85.194(13) . 15_666
Ge2 Pr1 Ru1 136.468(14) 10 15_666
Ge1 Pr1 Ru1 103.750(12) . 15_665
Ge3 Pr1 Ru1 100.23(2) 5 15_665
Ge3 Pr1 Ru1 46.536(17) 13_665 15_665
Ge1 Pr1 Ru1 46.165(17) 15_665 15_665
Ge1 Pr1 Ru1 172.242(18) 15_666 15_665
Ge2 Pr1 Ru1 45.951(9) 12_655 15_665
Ge2 Pr1 Ru1 96.540(17) 3_655 15_665
Ge2 Pr1 Ru1 136.468(14) . 15_665
Ge2 Pr1 Ru1 85.194(13) 10 15_665
Ru1 Pr1 Ru1 126.43(2) 15_666 15_665
Ge1 Pr1 Ru2 46.349(12) . 9_565
Ge3 Pr1 Ru2 152.059(12) 5 9_565
Ge3 Pr1 Ru2 117.389(18) 13_665 9_565
Ge1 Pr1 Ru2 45.161(12) 15_665 9_565
Ge1 Pr1 Ru2 96.799(18) 15_666 9_565
Ge2 Pr1 Ru2 100.337(12) 12_655 9_565
Ge2 Pr1 Ru2 125.118(12) 3_655 9_565
Ge2 Pr1 Ru2 75.035(13) . 9_565
Ge2 Pr1 Ru2 49.167(13) 10 9_565
Ru1 Pr1 Ru2 140.787(11) 15_666 9_565
Ru1 Pr1 Ru2 89.722(14) 15_665 9_565
Ge1 Ru1 Ge3 98.49(2) . 9
Ge1 Ru1 Ge3 98.49(2) . .
Ge3 Ru1 Ge3 68.75(4) 9 .
Ge1 Ru1 Ge2 101.61(2) . 3_655
Ge3 Ru1 Ge2 159.87(3) 9 3_655
Ge3 Ru1 Ge2 106.76(2) . 3_655
Ge1 Ru1 Ge2 101.61(2) . 12_655
Ge3 Ru1 Ge2 106.76(2) 9 12_655
Ge3 Ru1 Ge2 159.87(3) . 12_655
Ge2 Ru1 Ge2 70.34(2) 3_655 12_655
Ge1 Ru1 Ge1 161.08(3) . 11
Ge3 Ru1 Ge1 97.106(19) 9 11
Ge3 Ru1 Ge1 97.106(19) . 11
Ge2 Ru1 Ge1 63.44(2) 3_655 11
Ge2 Ru1 Ge1 63.44(2) 12_655 11
Ge1 Ru1 Ru1 145.30(2) . 11
Ge3 Ru1 Ru1 54.296(10) 9 11
Ge3 Ru1 Ru1 54.296(10) . 11
Ge2 Ru1 Ru1 106.60(2) 3_655 11
Ge2 Ru1 Ru1 106.60(2) 12_655 11
Ge1 Ru1 Ru1 53.62(2) 11 11
Ge1 Ru1 Ru1 55.30(2) . 3
Ge3 Ru1 Ru1 54.295(10) 9 3
Ge3 Ru1 Ru1 54.295(10) . 3
Ge2 Ru1 Ru1 139.987(19) 3_655 3
Ge2 Ru1 Ru1 139.987(19) 12_655 3
Ge1 Ru1 Ru1 143.62(2) 11 3
Ru1 Ru1 Ru1 90.0 11 3
Ge1 Ru1 Pr1 63.245(11) . 15_666
Ge3 Ru1 Pr1 123.59(2) 9 15_666
Ge3 Ru1 Pr1 62.95(2) . 15_666
Ge2 Ru1 Pr1 65.991(16) 3_655 15_666
Ge2 Ru1 Pr1 128.429(18) 12_655 15_666
Ge1 Ru1 Pr1 115.640(11) 11 15_666
Ru1 Ru1 Pr1 110.981(9) 11 15_666
Ru1 Ru1 Pr1 74.117(13) 3 15_666
Ge1 Ru1 Pr1 63.245(11) . 15_665
Ge3 Ru1 Pr1 62.95(2) 9 15_665
Ge3 Ru1 Pr1 123.59(2) . 15_665
Ge2 Ru1 Pr1 128.429(18) 3_655 15_665
Ge2 Ru1 Pr1 65.991(16) 12_655 15_665
Ge1 Ru1 Pr1 115.640(11) 11 15_665
Ru1 Ru1 Pr1 110.981(9) 11 15_665
Ru1 Ru1 Pr1 74.117(13) 3 15_665
Pr1 Ru1 Pr1 126.43(2) 15_666 15_665
Ge1 Ru1 Pr1 51.978(18) . .
Ge3 Ru1 Pr1 136.937(19) 9 .
Ge3 Ru1 Pr1 136.937(19) . .
Ge2 Ru1 Pr1 59.985(15) 3_655 .
Ge2 Ru1 Pr1 59.985(15) 12_655 .
Ge1 Ru1 Pr1 109.10(2) 11 .
Ru1 Ru1 Pr1 162.72(2) 11 .
Ru1 Ru1 Pr1 107.28(2) 3 .
Pr1 Ru1 Pr1 74.893(11) 15_666 .
Pr1 Ru1 Pr1 74.893(11) 15_665 .
Ge1 Ru2 Ge1 107.98(2) 15_666 7_455
Ge1 Ru2 Ge1 122.97(3) 15_666 9_565
Ge1 Ru2 Ge1 98.46(3) 7_455 9_565
Ge1 Ru2 Ge1 98.46(3) 15_666 .
Ge1 Ru2 Ge1 122.97(3) 7_455 .
Ge1 Ru2 Ge1 107.98(2) 9_565 .
Ge1 Ru2 Ge2 61.486(15) 15_666 .
Ge1 Ru2 Ge2 118.514(15) 7_455 .
Ge1 Ru2 Ge2 61.486(15) 9_565 .
Ge1 Ru2 Ge2 118.514(15) . .
Ge1 Ru2 Ge2 118.514(15) 15_666 2_565
Ge1 Ru2 Ge2 61.486(15) 7_455 2_565
Ge1 Ru2 Ge2 118.514(15) 9_565 2_565
Ge1 Ru2 Ge2 61.486(15) . 2_565
Ge2 Ru2 Ge2 180.0 . 2_565
Ge1 Ru2 Ru2 53.991(11) 15_666 9_566
Ge1 Ru2 Ru2 53.991(12) 7_455 9_566
Ge1 Ru2 Ru2 126.009(11) 9_565 9_566
Ge1 Ru2 Ru2 126.009(11) . 9_566
Ge2 Ru2 Ru2 90.0 . 9_566
Ge2 Ru2 Ru2 90.0 2_565 9_566
Ge1 Ru2 Ru2 126.009(12) 15_666 9_565
Ge1 Ru2 Ru2 126.009(11) 7_455 9_565
Ge1 Ru2 Ru2 53.991(11) 9_565 9_565
Ge1 Ru2 Ru2 53.991(11) . 9_565
Ge2 Ru2 Ru2 90.0 . 9_565
Ge2 Ru2 Ru2 90.0 2_565 9_565
Ru2 Ru2 Ru2 180.0 9_566 9_565
Ge1 Ru2 Pr1 62.161(16) 15_666 .
Ge1 Ru2 Pr1 168.657(11) 7_455 .
Ge1 Ru2 Pr1 92.026(16) 9_565 .
Ge1 Ru2 Pr1 56.713(17) . .
Ge2 Ru2 Pr1 63.122(6) . .
Ge2 Ru2 Pr1 116.878(6) 2_565 .
Ru2 Ru2 Pr1 115.893(6) 9_566 .
Ru2 Ru2 Pr1 64.107(6) 9_565 .
Ge1 Ru2 Pr1 92.027(16) 15_666 7_455
Ge1 Ru2 Pr1 56.713(17) 7_455 7_455
Ge1 Ru2 Pr1 62.160(16) 9_565 7_455
Ge1 Ru2 Pr1 168.657(12) . 7_455
Ge2 Ru2 Pr1 63.122(6) . 7_455
Ge2 Ru2 Pr1 116.878(6) 2_565 7_455
Ru2 Ru2 Pr1 64.107(6) 9_566 7_455
Ru2 Ru2 Pr1 115.893(6) 9_565 7_455
Pr1 Ru2 Pr1 126.244(12) . 7_455
Ge1 Ru2 Pr1 168.657(11) 15_666 9_565
Ge1 Ru2 Pr1 62.160(16) 7_455 9_565
Ge1 Ru2 Pr1 56.713(17) 9_565 9_565
Ge1 Ru2 Pr1 92.027(16) . 9_565
Ge2 Ru2 Pr1 116.878(6) . 9_565
Ge2 Ru2 Pr1 63.122(6) 2_565 9_565
Ru2 Ru2 Pr1 115.893(6) 9_566 9_565
Ru2 Ru2 Pr1 64.107(6) 9_565 9_565
Pr1 Ru2 Pr1 128.215(12) . 9_565
Pr1 Ru2 Pr1 77.887(12) 7_455 9_565
Ge1 Ru2 Pr1 56.713(17) 15_666 15_666
Ge1 Ru2 Pr1 92.027(16) 7_455 15_666
Ge1 Ru2 Pr1 168.657(12) 9_565 15_666
Ge1 Ru2 Pr1 62.160(16) . 15_666
Ge2 Ru2 Pr1 116.878(6) . 15_666
Ge2 Ru2 Pr1 63.122(6) 2_565 15_666
Ru2 Ru2 Pr1 64.107(6) 9_566 15_666
Ru2 Ru2 Pr1 115.893(6) 9_565 15_666
Pr1 Ru2 Pr1 77.887(12) . 15_666
Pr1 Ru2 Pr1 128.215(12) 7_455 15_666
Pr1 Ru2 Pr1 126.244(12) 9_565 15_666
Ru2 Ge1 Ru2 72.02(2) . 9_565
Ru2 Ge1 Ru1 138.779(18) . .
Ru2 Ge1 Ru1 138.779(18) 9_565 .
Ru2 Ge1 Ru1 121.70(2) . 3
Ru2 Ge1 Ru1 121.70(2) 9_565 3
Ru1 Ge1 Ru1 71.08(3) . 3
Ru2 Ge1 Ge2 101.61(3) . 9_565
Ru2 Ge1 Ge2 63.873(19) 9_565 9_565
Ru1 Ge1 Ge2 116.16(3) . 9_565
Ru1 Ge1 Ge2 57.92(2) 3 9_565
Ru2 Ge1 Ge2 63.873(19) . 2_565
Ru2 Ge1 Ge2 101.61(2) 9_565 2_565
Ru1 Ge1 Ge2 116.16(3) . 2_565
Ru1 Ge1 Ge2 57.92(2) 3 2_565
Ge2 Ge1 Ge2 66.14(2) 9_565 2_565
Ru2 Ge1 Pr1 76.938(18) . .
Ru2 Ge1 Pr1 76.938(18) 9_565 .
Ru1 Ge1 Pr1 84.64(2) . .
Ru1 Ge1 Pr1 155.72(3) 3 .
Ge2 Ge1 Pr1 138.65(2) 9_565 .
Ge2 Ge1 Pr1 138.65(2) 2_565 .
Ru2 Ge1 Pr1 144.19(2) . 15_665
Ru2 Ge1 Pr1 72.679(13) 9_565 15_665
Ru1 Ge1 Pr1 70.590(14) . 15_665
Ru1 Ge1 Pr1 82.594(15) 3 15_665
Ge2 Ge1 Pr1 67.425(12) 9_565 15_665
Ge2 Ge1 Pr1 130.17(2) 2_565 15_665
Pr1 Ge1 Pr1 89.495(15) . 15_665
Ru2 Ge1 Pr1 72.679(13) . 15_666
Ru2 Ge1 Pr1 144.19(2) 9_565 15_666
Ru1 Ge1 Pr1 70.590(14) . 15_666
Ru1 Ge1 Pr1 82.594(15) 3 15_666
Ge2 Ge1 Pr1 130.17(2) 9_565 15_666
Ge2 Ge1 Pr1 67.425(12) 2_565 15_666
Pr1 Ge1 Pr1 89.495(15) . 15_666
Pr1 Ge1 Pr1 141.09(3) 15_665 15_666
Ru1 Ge2 Ru1 133.58(4) 5 11_565
Ru1 Ge2 Ge1 167.54(3) 5 9_565
Ru1 Ge2 Ge1 58.649(18) 11_565 9_565
Ru1 Ge2 Ge1 58.649(18) 5 15_666
Ru1 Ge2 Ge1 167.54(3) 11_565 15_666
Ge1 Ge2 Ge1 109.28(4) 9_565 15_666
Ru1 Ge2 Ru2 113.212(19) 5 .
Ru1 Ge2 Ru2 113.212(19) 11_565 .
Ge1 Ge2 Ru2 54.641(19) 9_565 .
Ge1 Ge2 Ru2 54.641(19) 15_666 .
Ru1 Ge2 Ge2 54.829(10) 5 10_556
Ru1 Ge2 Ge2 125.171(10) 11_565 10_556
Ge1 Ge2 Ge2 123.070(12) 9_565 10_556
Ge1 Ge2 Ge2 56.931(12) 15_666 10_556
Ru2 Ge2 Ge2 90.0 . 10_556
Ru1 Ge2 Ge2 125.171(11) 5 10
Ru1 Ge2 Ge2 54.829(10) 11_565 10
Ge1 Ge2 Ge2 56.931(12) 9_565 10
Ge1 Ge2 Ge2 123.070(12) 15_666 10
Ru2 Ge2 Ge2 90.0 . 10
Ge2 Ge2 Ge2 180.0 10_556 10
Ru1 Ge2 Pr1 77.070(19) 5 5
Ru1 Ge2 Pr1 68.057(19) 11_565 5
Ge1 Ge2 Pr1 113.673(17) 9_565 5
Ge1 Ge2 Pr1 118.404(16) 15_666 5
Ru2 Ge2 Pr1 139.280(10) . 5
Ge2 Ge2 Pr1 63.049(8) 10_556 5
Ge2 Ge2 Pr1 116.950(8) 10 5
Ru1 Ge2 Pr1 68.057(19) 5 11_565
Ru1 Ge2 Pr1 77.070(19) 11_565 11_565
Ge1 Ge2 Pr1 118.404(16) 9_565 11_565
Ge1 Ge2 Pr1 113.673(17) 15_666 11_565
Ru2 Ge2 Pr1 139.280(11) . 11_565
Ge2 Ge2 Pr1 116.950(8) 10_556 11_565
Ge2 Ge2 Pr1 63.049(8) 10 11_565
Pr1 Ge2 Pr1 81.44(2) 5 11_565
Ru1 Ge2 Pr1 80.365(13) 5 .
Ru1 Ge2 Pr1 117.797(14) 11_565 .
Ge1 Ge2 Pr1 91.28(2) 9_565 .
Ge1 Ge2 Pr1 62.528(17) 15_666 .
Ru2 Ge2 Pr1 67.712(14) . .
Ge2 Ge2 Pr1 116.936(7) 10_556 .
Ge2 Ge2 Pr1 63.064(7) 10 .
Pr1 Ge2 Pr1 150.613(19) 5 .
Pr1 Ge2 Pr1 72.757(13) 11_565 .
Ru1 Ge2 Pr1 117.797(14) 5 7_455
Ru1 Ge2 Pr1 80.365(13) 11_565 7_455
Ge1 Ge2 Pr1 62.528(17) 9_565 7_455
Ge1 Ge2 Pr1 91.28(2) 15_666 7_455
Ru2 Ge2 Pr1 67.712(14) . 7_455
Ge2 Ge2 Pr1 63.064(7) 10_556 7_455
Ge2 Ge2 Pr1 116.936(7) 10 7_455
Pr1 Ge2 Pr1 72.757(12) 5 7_455
Pr1 Ge2 Pr1 150.613(19) 11_565 7_455
Pr1 Ge2 Pr1 135.42(3) . 7_455
Ru1 Ge3 Ru1 71.41(2) 9 11
Ru1 Ge3 Ru1 71.41(2) 9 3
Ru1 Ge3 Ru1 111.25(4) 11 3
Ru1 Ge3 Ru1 111.25(4) 9 .
Ru1 Ge3 Ru1 71.41(2) 11 .
Ru1 Ge3 Ru1 71.41(2) 3 .
Ru1 Ge3 Ge3 55.62(2) 9 9
Ru1 Ge3 Ge3 55.62(2) 11 9
Ru1 Ge3 Ge3 55.62(2) 3 9
Ru1 Ge3 Ge3 55.62(2) . 9
Ru1 Ge3 Pr1 151.765(14) 9 15_666
Ru1 Ge3 Pr1 131.605(13) 11 15_666
Ru1 Ge3 Pr1 83.308(13) 3 15_666
Ru1 Ge3 Pr1 70.515(14) . 15_666
Ge3 Ge3 Pr1 118.998(18) 9 15_666
Ru1 Ge3 Pr1 131.605(13) 9 5_545
Ru1 Ge3 Pr1 70.515(14) 11 5_545
Ru1 Ge3 Pr1 151.765(14) 3 5_545
Ru1 Ge3 Pr1 83.307(13) . 5_545
Ge3 Ge3 Pr1 118.998(18) 9 5_545
Pr1 Ge3 Pr1 76.407(15) 15_666 5_545
Ru1 Ge3 Pr1 70.515(14) 9 7_445
Ru1 Ge3 Pr1 83.308(14) 11 7_445
Ru1 Ge3 Pr1 131.605(13) 3 7_445
Ru1 Ge3 Pr1 151.764(14) . 7_445
Ge3 Ge3 Pr1 118.998(18) 9 7_445
Pr1 Ge3 Pr1 122.00(4) 15_666 7_445
Pr1 Ge3 Pr1 76.407(15) 5_545 7_445
Ru1 Ge3 Pr1 83.308(13) 9 13_566
Ru1 Ge3 Pr1 151.765(14) 11 13_566
Ru1 Ge3 Pr1 70.515(14) 3 13_566
Ru1 Ge3 Pr1 131.605(13) . 13_566
Ge3 Ge3 Pr1 118.998(18) 9 13_566
Pr1 Ge3 Pr1 76.407(15) 15_666 13_566
Pr1 Ge3 Pr1 122.00(4) 5_545 13_566
Pr1 Ge3 Pr1 76.407(15) 7_445 13_566
loop_
_geom_bond_atom_site_label_1
_geom_bond_atom_site_label_2
_geom_bond_distance
_geom_bond_site_symmetry_2
Pr1 Ge1 2.8752(9) .
Pr1 Ge3 3.0968(7) 5
Pr1 Ge3 3.0968(7) 13_665
Pr1 Ge1 3.1035(6) 15_665
Pr1 Ge1 3.1035(6) 15_666
Pr1 Ge2 3.2283(8) 12_655
Pr1 Ge2 3.2283(8) 3_655
Pr1 Ge2 3.2299(6) .
Pr1 Ge2 3.2299(6) 10
Pr1 Ru1 3.2780(6) 15_666
Pr1 Ru1 3.2780(6) 15_665
Pr1 Ru2 3.3505(5) 9_565
Ru1 Ge1 2.5071(9) .
Ru1 Ge3 2.5238(8) 9
Ru1 Ge3 2.5238(8) .
Ru1 Ge2 2.5400(6) 3_655
Ru1 Ge2 2.5400(6) 12_655
Ru1 Ge1 2.5601(9) 11
Ru1 Ru1 2.9457(8) 11
Ru1 Ru1 2.9458(8) 3
Ru1 Pr1 3.2780(6) 15_666
Ru1 Pr1 3.2780(6) 15_665
Ru2 Ge1 2.4887(6) 15_666
Ru2 Ge1 2.4887(6) 7_455
Ru2 Ge1 2.4887(6) 9_565
Ru2 Ge1 2.4887(6) .
Ru2 Ge2 2.7397(9) .
Ru2 Ge2 2.7397(9) 2_565
Ru2 Ru2 2.9262(6) 9_566
Ru2 Ru2 2.9263(6) 9_565
Ru2 Pr1 3.3505(5) 7_455
Ru2 Pr1 3.3505(5) 9_565
Ru2 Pr1 3.3505(5) 15_666
Ge1 Ru2 2.4887(6) 9_565
Ge1 Ru1 2.5602(9) 3
Ge1 Ge2 2.6814(8) 9_565
Ge1 Ge2 2.6814(8) 2_565
Ge1 Pr1 3.1035(6) 15_665
Ge1 Pr1 3.1035(6) 15_666
Ge2 Ru1 2.5401(6) 5
Ge2 Ru1 2.5401(6) 11_565
Ge2 Ge1 2.6814(8) 9_565
Ge2 Ge1 2.6814(8) 15_666
Ge2 Ge2 2.9262(6) 10_556
Ge2 Ge2 2.9263(6) 10
Ge2 Pr1 3.2283(8) 5
Ge2 Pr1 3.2283(8) 11_565
Ge2 Pr1 3.2299(6) 7_455
Ge3 Ru1 2.5238(8) 9
Ge3 Ru1 2.5238(7) 11
Ge3 Ru1 2.5238(7) 3
Ge3 Ge3 2.850(2) 9
Ge3 Pr1 3.0967(7) 15_666
Ge3 Pr1 3.0967(7) 5_545
Ge3 Pr1 3.0967(7) 7_445
Ge3 Pr1 3.0967(7) 13_566
