#------------------------------------------------------------------------------
#$Date: 2017-04-04 07:48:52 +0300 (Tue, 04 Apr 2017) $
#$Revision: 194740 $
#$URL: file:///home/coder/svn-repositories/cod/cif/4/12/58/4125885.cif $
#------------------------------------------------------------------------------
#
# This file is available in the Crystallography Open Database (COD),
# http://www.crystallography.net/
#
# All data on this site have been placed in the public domain by the
# contributors.
#
data_4125885
loop_
_publ_author_name
'Bugaris, Daniel E.'
'Malliakas, Christos D.'
'Han, Fei'
'Calta, Nicholas P.'
'Sturza, Mihai'
'Krogstad, Matthew J.'
'Osborn, Raymond'
'Rosenkranz, Stephan'
'Ruff, Jacob P. C.'
'Trimarchi, Giancarlo'
'Bud'ko, Sergey L.'
'Balasubramanian, Mahalingam'
'Chung, Duck Young'
'Kanatzidis, Mercouri G.'
_publ_section_title
;
 Charge Density Wave in the New Polymorphs of RE2Ru3Ge5 (RE = Pr, Sm, Dy).
;
_journal_issue                   11
_journal_name_full               'Journal of the American Chemical Society'
_journal_page_first              4130
_journal_page_last               4143
_journal_paper_doi               10.1021/jacs.7b00284
_journal_volume                  139
_journal_year                    2017
_chemical_formula_moiety         'Dy2 Ge5 Ru3'
_chemical_formula_sum            'Dy2 Ge5 Ru3'
_chemical_formula_weight         991.16
_chemical_name_systematic
; 
 ? 
;
_space_group_IT_number           128
_symmetry_cell_setting           tetragonal
_symmetry_space_group_name_Hall  '-P 4 2n'
_symmetry_space_group_name_H-M   'P 4/m n c'
_atom_sites_solution_primary     direct
_atom_sites_solution_secondary   difmap
_audit_creation_method           SHELXL-97
_cell_angle_alpha                90.00
_cell_angle_beta                 90.00
_cell_angle_gamma                90.00
_cell_formula_units_Z            4
_cell_length_a                   10.9272(15)
_cell_length_b                   10.9272(15)
_cell_length_c                   5.6970(11)
_cell_measurement_reflns_used    16874
_cell_measurement_temperature    298(2)
_cell_measurement_theta_max      38.17
_cell_measurement_theta_min      3.58
_cell_volume                     680.24(19)
_computing_cell_refinement       'STOE X-AREA'
_computing_data_collection       'STOE X-AREA'
_computing_data_reduction        'STOE X-RED'
_computing_molecular_graphics    Diamond
_computing_publication_material  SHELXTL
_computing_structure_refinement  'SHELXL-97 (Sheldrick, 2008)'
_computing_structure_solution    'SHELXS-97 (Sheldrick, 2008)'
_diffrn_ambient_temperature      298(2)
_diffrn_measured_fraction_theta_full 0.996
_diffrn_measured_fraction_theta_max 0.996
_diffrn_measurement_device_type  'STOE IPDS 2T'
_diffrn_measurement_method       'rotation method'
_diffrn_radiation_monochromator  'plane graphite'
_diffrn_radiation_source         'sealed X-ray tube, long-fine focus'
_diffrn_radiation_type           MoK\a
_diffrn_radiation_wavelength     0.71073
_diffrn_reflns_av_R_equivalents  0.0522
_diffrn_reflns_av_sigmaI/netI    0.0187
_diffrn_reflns_limit_h_max       16
_diffrn_reflns_limit_h_min       -16
_diffrn_reflns_limit_k_max       16
_diffrn_reflns_limit_k_min       -16
_diffrn_reflns_limit_l_max       8
_diffrn_reflns_limit_l_min       -8
_diffrn_reflns_number            8580
_diffrn_reflns_theta_full        33.00
_diffrn_reflns_theta_max         33.00
_diffrn_reflns_theta_min         3.73
_exptl_absorpt_coefficient_mu    49.759
_exptl_absorpt_correction_T_max  0.0741
_exptl_absorpt_correction_T_min  0.0226
_exptl_absorpt_correction_type   integration
_exptl_absorpt_process_details   X-Shape
_exptl_crystal_colour            black
_exptl_crystal_density_diffrn    9.678
_exptl_crystal_density_method    'not measured'
_exptl_crystal_description       prism
_exptl_crystal_F_000             1696
_exptl_crystal_size_max          0.1000
_exptl_crystal_size_mid          0.0990
_exptl_crystal_size_min          0.0500
_refine_diff_density_max         2.075
_refine_diff_density_min         -1.892
_refine_diff_density_rms         0.397
_refine_ls_extinction_coef       0.0065(3)
_refine_ls_extinction_expression Fc^*^=kFc[1+0.001xFc^2^\l^3^/sin(2\q)]^-1/4^
_refine_ls_extinction_method     SHELXL
_refine_ls_goodness_of_fit_ref   1.269
_refine_ls_matrix_type           full
_refine_ls_number_parameters     31
_refine_ls_number_reflns         703
_refine_ls_number_restraints     0
_refine_ls_restrained_S_all      1.269
_refine_ls_R_factor_all          0.0293
_refine_ls_R_factor_gt           0.0292
_refine_ls_shift/su_max          0.000
_refine_ls_shift/su_mean         0.000
_refine_ls_structure_factor_coef Fsqd
_refine_ls_weighting_details
'calc w=1/[\s^2^(Fo^2^)+(0.0228P)^2^+15.6279P] where P=(Fo^2^+2Fc^2^)/3'
_refine_ls_weighting_scheme      calc
_refine_ls_wR_factor_gt          0.0685
_refine_ls_wR_factor_ref         0.0686
_reflns_number_gt                701
_reflns_number_total             703
_reflns_threshold_expression     >2sigma(I)
_cod_data_source_file            ja7b00284_si_002.cif
_cod_data_source_block           Dy2Ru3Ge5
_cod_database_code               4125885
loop_
_symmetry_equiv_pos_as_xyz
'x, y, z'
'-x, -y, z'
'-y, x, z'
'y, -x, z'
'-x+1/2, y+1/2, -z+1/2'
'x+1/2, -y+1/2, -z+1/2'
'y+1/2, x+1/2, -z+1/2'
'-y+1/2, -x+1/2, -z+1/2'
'-x, -y, -z'
'x, y, -z'
'y, -x, -z'
'-y, x, -z'
'x-1/2, -y-1/2, z-1/2'
'-x-1/2, y-1/2, z-1/2'
'-y-1/2, -x-1/2, z-1/2'
'y-1/2, x-1/2, z-1/2'
loop_
_atom_site_label
_atom_site_type_symbol
_atom_site_fract_x
_atom_site_fract_y
_atom_site_fract_z
_atom_site_U_iso_or_equiv
_atom_site_adp_type
_atom_site_occupancy
_atom_site_symmetry_multiplicity
_atom_site_calc_flag
_atom_site_refinement_flags
Dy1 Dy 0.26380(4) 0.43025(4) 0.0000 0.01275(15) Uani 1 2 d S
Ru1 Ru 0.14241(6) 0.12282(6) 0.0000 0.01089(17) Uani 1 2 d S
Ru2 Ru 0.0000 0.5000 0.2500 0.0109(2) Uani 1 4 d S
Ge1 Ge 0.03169(8) 0.31877(9) 0.0000 0.0110(2) Uani 1 2 d S
Ge2 Ge 0.17626(7) 0.67626(7) 0.2500 0.0166(2) Uani 1 2 d S
Ge3 Ge 0.0000 0.0000 0.2581(2) 0.0108(2) Uani 1 4 d S
loop_
_atom_site_aniso_label
_atom_site_aniso_U_11
_atom_site_aniso_U_22
_atom_site_aniso_U_33
_atom_site_aniso_U_23
_atom_site_aniso_U_13
_atom_site_aniso_U_12
Dy1 0.00936(19) 0.0134(2) 0.0155(2) 0.000 0.000 -0.00039(12)
Ru1 0.0082(3) 0.0084(3) 0.0160(3) 0.000 0.000 -0.0002(2)
Ru2 0.0103(3) 0.0103(3) 0.0121(4) 0.000 0.000 0.0010(3)
Ge1 0.0096(4) 0.0085(4) 0.0150(4) 0.000 0.000 0.0000(3)
Ge2 0.0134(3) 0.0134(3) 0.0228(5) 0.0050(3) -0.0050(3) -0.0016(3)
Ge3 0.0093(3) 0.0093(3) 0.0137(6) 0.000 0.000 0.000
loop_
_atom_type_symbol
_atom_type_description
_atom_type_scat_dispersion_real
_atom_type_scat_dispersion_imag
_atom_type_scat_source
Ge Ge 0.1547 1.8001 'International Tables Vol C Tables 4.2.6.8 and 6.1.1.4'
Ru Ru -1.2594 0.8363 'International Tables Vol C Tables 4.2.6.8 and 6.1.1.4'
Dy Dy -0.1892 4.4098 'International Tables Vol C Tables 4.2.6.8 and 6.1.1.4'
loop_
_geom_angle_atom_site_label_1
_geom_angle_atom_site_label_2
_geom_angle_atom_site_label_3
_geom_angle
_geom_angle_site_symmetry_1
_geom_angle_site_symmetry_3
Ge1 Dy1 Ge1 77.88(2) . 15_665
Ge1 Dy1 Ge1 77.88(2) . 15_666
Ge1 Dy1 Ge1 141.55(4) 15_665 15_666
Ge1 Dy1 Ge3 151.48(2) . 5
Ge1 Dy1 Ge3 130.61(3) 15_665 5
Ge1 Dy1 Ge3 77.89(3) 15_666 5
Ge1 Dy1 Ge3 151.48(2) . 13_665
Ge1 Dy1 Ge3 77.89(3) 15_665 13_665
Ge1 Dy1 Ge3 130.61(3) 15_666 13_665
Ge3 Dy1 Ge3 54.23(5) 5 13_665
Ge1 Dy1 Ge2 78.94(2) . 12_655
Ge1 Dy1 Ge2 76.09(2) 15_665 12_655
Ge1 Dy1 Ge2 127.11(2) 15_666 12_655
Ge3 Dy1 Ge2 104.343(19) 5 12_655
Ge3 Dy1 Ge2 80.818(15) 13_665 12_655
Ge1 Dy1 Ge2 78.94(2) . 3_655
Ge1 Dy1 Ge2 127.11(2) 15_665 3_655
Ge1 Dy1 Ge2 76.09(2) 15_666 3_655
Ge3 Dy1 Ge2 80.818(15) 5 3_655
Ge3 Dy1 Ge2 104.343(19) 13_665 3_655
Ge2 Dy1 Ge2 53.080(19) 12_655 3_655
Ge1 Dy1 Ge2 95.43(3) . 10
Ge1 Dy1 Ge2 51.13(2) 15_665 10
Ge1 Dy1 Ge2 102.46(2) 15_666 10
Ge3 Dy1 Ge2 104.31(2) 5 10
Ge3 Dy1 Ge2 80.79(2) 13_665 10
Ge2 Dy1 Ge2 126.587(11) 12_655 10
Ge2 Dy1 Ge2 174.357(17) 3_655 10
Ge1 Dy1 Ge2 95.43(3) . .
Ge1 Dy1 Ge2 102.46(2) 15_665 .
Ge1 Dy1 Ge2 51.13(2) 15_666 .
Ge3 Dy1 Ge2 80.79(2) 5 .
Ge3 Dy1 Ge2 104.31(2) 13_665 .
Ge2 Dy1 Ge2 174.358(17) 12_655 .
Ge2 Dy1 Ge2 126.587(11) 3_655 .
Ge2 Dy1 Ge2 53.053(14) 10 .
Ge1 Dy1 Ru1 103.953(17) . 15_666
Ge1 Dy1 Ru1 171.34(2) 15_665 15_666
Ge1 Dy1 Ru1 46.43(2) 15_666 15_666
Ge3 Dy1 Ru1 47.75(2) 5 15_666
Ge3 Dy1 Ru1 97.90(3) 13_665 15_666
Ge2 Dy1 Ru1 95.85(2) 12_655 15_666
Ge2 Dy1 Ru1 46.211(13) 3_655 15_666
Ge2 Dy1 Ru1 136.174(19) 10 15_666
Ge2 Dy1 Ru1 85.864(15) . 15_666
Ge1 Dy1 Ru1 103.953(17) . 15_665
Ge1 Dy1 Ru1 46.43(2) 15_665 15_665
Ge1 Dy1 Ru1 171.34(2) 15_666 15_665
Ge3 Dy1 Ru1 97.90(3) 5 15_665
Ge3 Dy1 Ru1 47.75(2) 13_665 15_665
Ge2 Dy1 Ru1 46.211(13) 12_655 15_665
Ge2 Dy1 Ru1 95.85(2) 3_655 15_665
Ge2 Dy1 Ru1 85.864(16) 10 15_665
Ge2 Dy1 Ru1 136.174(19) . 15_665
Ru1 Dy1 Ru1 125.36(3) 15_666 15_665
Ge1 Dy1 Ru2 46.647(17) . 9_565
Ge1 Dy1 Ru2 45.600(18) 15_665 9_565
Ge1 Dy1 Ru2 96.56(2) 15_666 9_565
Ge3 Dy1 Ru2 152.006(15) 5 9_565
Ge3 Dy1 Ru2 119.35(2) 13_665 9_565
Ge2 Dy1 Ru2 100.807(15) 12_655 9_565
Ge2 Dy1 Ru2 124.938(15) 3_655 9_565
Ge2 Dy1 Ru2 49.565(18) 10 9_565
Ge2 Dy1 Ru2 74.717(16) . 9_565
Ru1 Dy1 Ru2 141.003(15) 15_666 9_565
Ru1 Dy1 Ru2 90.647(15) 15_665 9_565
Ge1 Ru1 Ge2 100.71(3) . 3_655
Ge1 Ru1 Ge2 100.71(3) . 12_655
Ge2 Ru1 Ge2 69.17(2) 3_655 12_655
Ge1 Ru1 Ge3 99.18(3) . .
Ge2 Ru1 Ge3 106.24(3) 3_655 .
Ge2 Ru1 Ge3 160.10(4) 12_655 .
Ge1 Ru1 Ge3 99.18(3) . 9
Ge2 Ru1 Ge3 160.10(4) 3_655 9
Ge2 Ru1 Ge3 106.24(3) 12_655 9
Ge3 Ru1 Ge3 71.17(6) . 9
Ge1 Ru1 Ge1 160.69(4) . 11
Ge2 Ru1 Ge1 63.86(3) 3_655 11
Ge2 Ru1 Ge1 63.86(3) 12_655 11
Ge3 Ru1 Ge1 96.50(3) . 11
Ge3 Ru1 Ge1 96.50(3) 9 11
Ge1 Ru1 Ru1 56.31(3) . 3
Ge2 Ru1 Ru1 140.39(3) 3_655 3
Ge2 Ru1 Ru1 140.39(3) 12_655 3
Ge3 Ru1 Ru1 54.897(14) . 3
Ge3 Ru1 Ru1 54.897(14) 9 3
Ge1 Ru1 Ru1 143.00(3) 11 3
Ge1 Ru1 Ru1 146.31(3) . 11
Ge2 Ru1 Ru1 106.87(3) 3_655 11
Ge2 Ru1 Ru1 106.87(3) 12_655 11
Ge3 Ru1 Ru1 54.896(14) . 11
Ge3 Ru1 Ru1 54.896(14) 9 11
Ge1 Ru1 Ru1 53.00(3) 11 11
Ru1 Ru1 Ru1 90.0 3 11
Ge1 Ru1 Dy1 62.725(14) . 15_666
Ge2 Ru1 Dy1 66.50(2) 3_655 15_666
Ge2 Ru1 Dy1 127.59(2) 12_655 15_666
Ge3 Ru1 Dy1 62.34(3) . 15_666
Ge3 Ru1 Dy1 124.73(3) 9 15_666
Ge1 Ru1 Dy1 116.163(15) 11 15_666
Ru1 Ru1 Dy1 74.012(19) 3 15_666
Ru1 Ru1 Dy1 111.540(12) 11 15_666
Ge1 Ru1 Dy1 62.725(14) . 15_665
Ge2 Ru1 Dy1 127.59(2) 3_655 15_665
Ge2 Ru1 Dy1 66.50(2) 12_655 15_665
Ge3 Ru1 Dy1 124.73(3) . 15_665
Ge3 Ru1 Dy1 62.34(3) 9 15_665
Ge1 Ru1 Dy1 116.163(15) 11 15_665
Ru1 Ru1 Dy1 74.012(19) 3 15_665
Ru1 Ru1 Dy1 111.540(12) 11 15_665
Dy1 Ru1 Dy1 125.36(3) 15_666 15_665
Ge1 Ru2 Ge1 96.21(4) . 15_666
Ge1 Ru2 Ge1 124.06(4) . 7_455
Ge1 Ru2 Ge1 109.37(3) 15_666 7_455
Ge1 Ru2 Ge1 109.37(3) . 9_565
Ge1 Ru2 Ge1 124.06(4) 15_666 9_565
Ge1 Ru2 Ge1 96.21(4) 7_455 9_565
Ge1 Ru2 Ge2 62.03(2) . 2_565
Ge1 Ru2 Ge2 117.97(2) 15_666 2_565
Ge1 Ru2 Ge2 62.03(2) 7_455 2_565
Ge1 Ru2 Ge2 117.97(2) 9_565 2_565
Ge1 Ru2 Ge2 117.97(2) . .
Ge1 Ru2 Ge2 62.03(2) 15_666 .
Ge1 Ru2 Ge2 117.97(2) 7_455 .
Ge1 Ru2 Ge2 62.03(2) 9_565 .
Ge2 Ru2 Ge2 180.0 2_565 .
Ge1 Ru2 Ru2 125.315(14) . 9_566
Ge1 Ru2 Ru2 54.685(14) 15_666 9_566
Ge1 Ru2 Ru2 54.685(14) 7_455 9_566
Ge1 Ru2 Ru2 125.315(14) 9_565 9_566
Ge2 Ru2 Ru2 90.0 2_565 9_566
Ge2 Ru2 Ru2 90.0 . 9_566
Ge1 Ru2 Ru2 54.685(14) . 9_565
Ge1 Ru2 Ru2 125.315(14) 15_666 9_565
Ge1 Ru2 Ru2 125.315(14) 7_455 9_565
Ge1 Ru2 Ru2 54.685(14) 9_565 9_565
Ge2 Ru2 Ru2 90.0 2_565 9_565
Ge2 Ru2 Ru2 90.0 . 9_565
Ru2 Ru2 Ru2 180.0 9_566 9_565
Ge1 Ru2 Dy1 169.352(15) . 7_455
Ge1 Ru2 Dy1 93.37(2) 15_666 7_455
Ge1 Ru2 Dy1 56.14(2) 7_455 7_455
Ge1 Ru2 Dy1 61.023(17) 9_565 7_455
Ge2 Ru2 Dy1 116.985(7) 2_565 7_455
Ge2 Ru2 Dy1 63.015(7) . 7_455
Ru2 Ru2 Dy1 64.467(6) 9_566 7_455
Ru2 Ru2 Dy1 115.533(6) 9_565 7_455
Ge1 Ru2 Dy1 93.37(2) . 9_565
Ge1 Ru2 Dy1 169.352(15) 15_666 9_565
Ge1 Ru2 Dy1 61.023(17) 7_455 9_565
Ge1 Ru2 Dy1 56.14(2) 9_565 9_565
Ge2 Ru2 Dy1 63.015(7) 2_565 9_565
Ge2 Ru2 Dy1 116.985(7) . 9_565
Ru2 Ru2 Dy1 115.533(6) 9_566 9_565
Ru2 Ru2 Dy1 64.467(6) 9_565 9_565
Dy1 Ru2 Dy1 77.488(14) 7_455 9_565
Ge1 Ru2 Dy1 61.024(17) . 15_666
Ge1 Ru2 Dy1 56.14(2) 15_666 15_666
Ge1 Ru2 Dy1 93.37(2) 7_455 15_666
Ge1 Ru2 Dy1 169.352(15) 9_565 15_666
Ge2 Ru2 Dy1 63.015(7) 2_565 15_666
Ge2 Ru2 Dy1 116.985(7) . 15_666
Ru2 Ru2 Dy1 64.467(6) 9_566 15_666
Ru2 Ru2 Dy1 115.533(6) 9_565 15_666
Dy1 Ru2 Dy1 128.934(12) 7_455 15_666
Dy1 Ru2 Dy1 126.030(15) 9_565 15_666
Ge1 Ru2 Dy1 56.14(2) . .
Ge1 Ru2 Dy1 61.023(17) 15_666 .
Ge1 Ru2 Dy1 169.352(15) 7_455 .
Ge1 Ru2 Dy1 93.37(2) 9_565 .
Ge2 Ru2 Dy1 116.985(7) 2_565 .
Ge2 Ru2 Dy1 63.015(7) . .
Ru2 Ru2 Dy1 115.533(6) 9_566 .
Ru2 Ru2 Dy1 64.467(6) 9_565 .
Dy1 Ru2 Dy1 126.030(15) 7_455 .
Dy1 Ru2 Dy1 128.934(12) 9_565 .
Dy1 Ru2 Dy1 77.488(14) 15_666 .
Ru1 Ge1 Ru2 140.26(2) . .
Ru1 Ge1 Ru2 140.26(2) . 9_565
Ru2 Ge1 Ru2 70.63(3) . 9_565
Ru1 Ge1 Ru1 70.69(4) . 3
Ru2 Ge1 Ru1 120.79(3) . 3
Ru2 Ge1 Ru1 120.79(3) 9_565 3
Ru1 Ge1 Ge2 115.75(4) . 9_565
Ru2 Ge1 Ge2 99.88(3) . 9_565
Ru2 Ge1 Ge2 63.75(2) 9_565 9_565
Ru1 Ge1 Ge2 57.11(3) 3 9_565
Ru1 Ge1 Ge2 115.75(4) . 2_565
Ru2 Ge1 Ge2 63.75(2) . 2_565
Ru2 Ge1 Ge2 99.88(3) 9_565 2_565
Ru1 Ge1 Ge2 57.11(3) 3 2_565
Ge2 Ge1 Ge2 64.14(3) 9_565 2_565
Ru1 Ge1 Dy1 86.19(3) . .
Ru2 Ge1 Dy1 77.21(3) . .
Ru2 Ge1 Dy1 77.21(3) 9_565 .
Ru1 Ge1 Dy1 156.88(4) 3 .
Ge2 Ge1 Dy1 139.01(3) 9_565 .
Ge2 Ge1 Dy1 139.01(3) 2_565 .
Ru1 Ge1 Dy1 70.842(19) . 15_665
Ru2 Ge1 Dy1 143.67(3) . 15_665
Ru2 Ge1 Dy1 73.376(14) 9_565 15_665
Ru1 Ge1 Dy1 82.29(2) 3 15_665
Ge2 Ge1 Dy1 67.758(14) 9_565 15_665
Ge2 Ge1 Dy1 128.62(3) 2_565 15_665
Dy1 Ge1 Dy1 90.30(2) . 15_665
Ru1 Ge1 Dy1 70.842(19) . 15_666
Ru2 Ge1 Dy1 73.376(14) . 15_666
Ru2 Ge1 Dy1 143.67(3) 9_565 15_666
Ru1 Ge1 Dy1 82.29(2) 3 15_666
Ge2 Ge1 Dy1 128.62(3) 9_565 15_666
Ge2 Ge1 Dy1 67.758(14) 2_565 15_666
Dy1 Ge1 Dy1 90.30(2) . 15_666
Dy1 Ge1 Dy1 141.55(4) 15_665 15_666
Ru1 Ge2 Ru1 133.62(5) 5 11_565
Ru1 Ge2 Ge1 167.19(5) 5 9_565
Ru1 Ge2 Ge1 59.03(2) 11_565 9_565
Ru1 Ge2 Ge1 59.03(2) 5 15_666
Ru1 Ge2 Ge1 167.19(5) 11_565 15_666
Ge1 Ge2 Ge1 108.44(5) 9_565 15_666
Ru1 Ge2 Ru2 113.19(3) 5 .
Ru1 Ge2 Ru2 113.19(3) 11_565 .
Ge1 Ge2 Ru2 54.22(3) 9_565 .
Ge1 Ge2 Ru2 54.22(3) 15_666 .
Ru1 Ge2 Ge2 55.414(12) 5 10_556
Ru1 Ge2 Ge2 124.586(12) 11_565 10_556
Ge1 Ge2 Ge2 122.070(14) 9_565 10_556
Ge1 Ge2 Ge2 57.929(14) 15_666 10_556
Ru2 Ge2 Ge2 90.0 . 10_556
Ru1 Ge2 Ge2 124.586(12) 5 10
Ru1 Ge2 Ge2 55.415(12) 11_565 10
Ge1 Ge2 Ge2 57.929(14) 9_565 10
Ge1 Ge2 Ge2 122.070(14) 15_666 10
Ru2 Ge2 Ge2 90.0 . 10
Ge2 Ge2 Ge2 180.0 10_556 10
Ru1 Ge2 Dy1 77.69(3) 5 5
Ru1 Ge2 Dy1 67.29(2) 11_565 5
Ge1 Ge2 Dy1 113.18(2) 9_565 5
Ge1 Ge2 Dy1 119.749(18) 15_666 5
Ru2 Ge2 Dy1 139.551(13) . 5
Ge2 Ge2 Dy1 63.461(9) 10_556 5
Ge2 Ge2 Dy1 116.540(9) 10 5
Ru1 Ge2 Dy1 67.29(2) 5 11_565
Ru1 Ge2 Dy1 77.69(3) 11_565 11_565
Ge1 Ge2 Dy1 119.749(18) 9_565 11_565
Ge1 Ge2 Dy1 113.18(2) 15_666 11_565
Ru2 Ge2 Dy1 139.551(13) . 11_565
Ge2 Ge2 Dy1 116.540(9) 10_556 11_565
Ge2 Ge2 Dy1 63.461(9) 10 11_565
Dy1 Ge2 Dy1 80.90(3) 5 11_565
Ru1 Ge2 Dy1 118.814(15) 5 7_455
Ru1 Ge2 Dy1 79.657(16) 11_565 7_455
Ge1 Ge2 Dy1 61.11(2) 9_565 7_455
Ge1 Ge2 Dy1 91.95(3) 15_666 7_455
Ru2 Ge2 Dy1 67.419(19) . 7_455
Ge2 Ge2 Dy1 63.473(7) 10_556 7_455
Ge2 Ge2 Dy1 116.526(7) 10 7_455
Dy1 Ge2 Dy1 73.293(15) 5 7_455
Dy1 Ge2 Dy1 150.68(3) 11_565 7_455
Ru1 Ge2 Dy1 79.657(16) 5 .
Ru1 Ge2 Dy1 118.815(15) 11_565 .
Ge1 Ge2 Dy1 91.95(3) 9_565 .
Ge1 Ge2 Dy1 61.11(2) 15_666 .
Ru2 Ge2 Dy1 67.420(19) . .
Ge2 Ge2 Dy1 116.526(7) 10_556 .
Ge2 Ge2 Dy1 63.474(7) 10 .
Dy1 Ge2 Dy1 150.68(3) 5 .
Dy1 Ge2 Dy1 73.292(15) 11_565 .
Dy1 Ge2 Dy1 134.84(4) 7_455 .
Ru1 Ge3 Ru1 70.21(3) 9 11
Ru1 Ge3 Ru1 70.21(3) 9 3
Ru1 Ge3 Ru1 108.83(6) 11 3
Ru1 Ge3 Ru1 108.83(6) 9 .
Ru1 Ge3 Ru1 70.21(3) 11 .
Ru1 Ge3 Ru1 70.21(3) 3 .
Ru1 Ge3 Ge3 125.59(3) 9 9_556
Ru1 Ge3 Ge3 125.59(3) 11 9_556
Ru1 Ge3 Ge3 125.59(3) 3 9_556
Ru1 Ge3 Ge3 125.59(3) . 9_556
Ru1 Ge3 Dy1 150.91(2) 9 15_666
Ru1 Ge3 Dy1 131.077(18) 11 15_666
Ru1 Ge3 Dy1 82.726(17) 3 15_666
Ru1 Ge3 Dy1 69.915(16) . 15_666
Ge3 Ge3 Dy1 62.89(2) 9_556 15_666
Ru1 Ge3 Dy1 131.077(18) 9 5_545
Ru1 Ge3 Dy1 69.916(16) 11 5_545
Ru1 Ge3 Dy1 150.91(2) 3 5_545
Ru1 Ge3 Dy1 82.727(17) . 5_545
Ge3 Ge3 Dy1 62.89(2) 9_556 5_545
Dy1 Ge3 Dy1 78.01(2) 15_666 5_545
Ru1 Ge3 Dy1 69.916(16) 9 7_445
Ru1 Ge3 Dy1 82.726(17) 11 7_445
Ru1 Ge3 Dy1 131.077(18) 3 7_445
Ru1 Ge3 Dy1 150.91(2) . 7_445
Ge3 Ge3 Dy1 62.89(2) 9_556 7_445
Dy1 Ge3 Dy1 125.77(5) 15_666 7_445
Dy1 Ge3 Dy1 78.01(2) 5_545 7_445
Ru1 Ge3 Dy1 82.726(17) 9 13_566
Ru1 Ge3 Dy1 150.91(2) 11 13_566
Ru1 Ge3 Dy1 69.916(16) 3 13_566
Ru1 Ge3 Dy1 131.076(18) . 13_566
Ge3 Ge3 Dy1 62.89(2) 9_556 13_566
Dy1 Ge3 Dy1 78.01(2) 15_666 13_566
Dy1 Ge3 Dy1 125.77(5) 5_545 13_566
Dy1 Ge3 Dy1 78.01(2) 7_445 13_566
loop_
_geom_bond_atom_site_label_1
_geom_bond_atom_site_label_2
_geom_bond_distance
_geom_bond_site_symmetry_2
Dy1 Ge1 2.8137(11) .
Dy1 Ge1 3.0168(6) 15_665
Dy1 Ge1 3.0168(6) 15_666
Dy1 Ge3 3.0235(8) 5
Dy1 Ge3 3.0235(8) 13_665
Dy1 Ge2 3.1875(9) 12_655
Dy1 Ge2 3.1875(9) 3_655
Dy1 Ge2 3.1890(6) 10
Dy1 Ge2 3.1890(6) .
Dy1 Ru1 3.2062(6) 15_666
Dy1 Ru1 3.2062(6) 15_665
Dy1 Ru2 3.3043(5) 9_565
Ru1 Ge1 2.4593(12) .
Ru1 Ge2 2.5091(7) 3_655
Ru1 Ge2 2.5091(7) 12_655
Ru1 Ge3 2.5269(10) .
Ru1 Ge3 2.5269(10) 9
Ru1 Ge1 2.5621(12) 11
Ru1 Ru1 2.9061(10) 3
Ru1 Ru1 2.9061(10) 11
Ru1 Dy1 3.2062(6) 15_666
Ru1 Dy1 3.2062(6) 15_665
Ru2 Ge1 2.4638(8) .
Ru2 Ge1 2.4638(8) 15_666
Ru2 Ge1 2.4638(8) 7_455
Ru2 Ge1 2.4638(8) 9_565
Ru2 Ge2 2.7238(11) 2_565
Ru2 Ge2 2.7239(11) .
Ru2 Ru2 2.8485(5) 9_566
Ru2 Ru2 2.8485(5) 9_565
Ru2 Dy1 3.3043(5) 7_455
Ru2 Dy1 3.3043(5) 9_565
Ru2 Dy1 3.3043(5) 15_666
Ge1 Ru2 2.4638(8) 9_565
Ge1 Ru1 2.5621(12) 3
Ge1 Ge2 2.6824(10) 9_565
Ge1 Ge2 2.6824(10) 2_565
Ge1 Dy1 3.0167(6) 15_665
Ge1 Dy1 3.0167(6) 15_666
Ge2 Ru1 2.5091(7) 5
Ge2 Ru1 2.5091(7) 11_565
Ge2 Ge1 2.6824(10) 9_565
Ge2 Ge1 2.6824(10) 15_666
Ge2 Ge2 2.8485(5) 10_556
Ge2 Ge2 2.8485(5) 10
Ge2 Dy1 3.1875(9) 5
Ge2 Dy1 3.1875(9) 11_565
Ge2 Dy1 3.1890(7) 7_455
Ge3 Ru1 2.5268(10) 9
Ge3 Ru1 2.5268(10) 11
Ge3 Ru1 2.5268(10) 3
Ge3 Ge3 2.756(3) 9_556
Ge3 Dy1 3.0235(8) 15_666
Ge3 Dy1 3.0235(8) 5_545
Ge3 Dy1 3.0235(8) 7_445
Ge3 Dy1 3.0235(8) 13_566
