#------------------------------------------------------------------------------
#$Date: 2019-11-02 08:06:52 +0200 (Sat, 02 Nov 2019) $
#$Revision: 221045 $
#$URL: file:///home/coder/svn-repositories/cod/cif/4/12/78/4127882.cif $
#------------------------------------------------------------------------------
#
# This file is available in the Crystallography Open Database (COD),
# http://www.crystallography.net/
#
# All data on this site have been placed in the public domain by the
# contributors.
#
data_4127882
loop_
_publ_author_name
'Chen, Haijie'
'McClain, Rebecca'
'He, Jiangang'
'Zhang, Chi'
'Olding, Jack N.'
'Dos Reis, Roberto'
'Bao, Jin-Ke'
'Hadar, Ido'
'Spanopoulos, Ioannis'
'Malliakas, Christos D.'
'He, Yihui'
'Chung, Duck Young'
'Kwok, Wai-Kwong'
'Weiss, Emily A.'
'Dravid, Vinayak P.'
'Wolverton, Christopher'
'Kanatzidis, Mercouri G.'
_publ_section_title
;
 Antiferromagnetic Semiconductor BaFMn<sub>0.5</sub>Te with Unique Mn
 Ordering and Red Photoluminescence.
;
_journal_issue                   43
_journal_name_full               'Journal of the American Chemical Society'
_journal_page_first              17421
_journal_page_last               17430
_journal_paper_doi               10.1021/jacs.9b09382
_journal_volume                  141
_journal_year                    2019
_chemical_formula_sum            'Ba F Mn0.5 Te'
_chemical_formula_weight         311.4
_space_group_IT_number           129
_space_group_name_Hall           'P 4ab 2ab -1ab'
_space_group_name_H-M_alt        'P 4/n m m :1'
_symmetry_cell_setting           tetragonal
_symmetry_Int_Tables_number      129
_symmetry_space_group_name_Hall  'P 4ab 2ab -1ab'
_symmetry_space_group_name_H-M   'P 4/n m m :1'
_cell_angle_alpha                90
_cell_angle_beta                 90
_cell_angle_gamma                90
_cell_formula_units_Z            2
_cell_length_a                   4.4704(6)
_cell_length_b                   4.4704(6)
_cell_length_c                   9.6340(17)
_cell_measurement_reflns_used    1752
_cell_measurement_temperature    293
_cell_measurement_theta_max      29.63
_cell_measurement_theta_min      2.11
_cell_volume                     192.53(5)
_computing_cell_refinement       'STOE X-AREA'
_computing_data_collection       'STOE X-AREA'
_computing_data_reduction        'STOE X-RED'
_computing_structure_refinement  JANA2006
_computing_structure_solution    JANA2006
_diffrn_ambient_temperature      293
_diffrn_detector                 'image plate (34 cm diameter)'
_diffrn_detector_area_resol_mean 6.67
_diffrn_measured_fraction_theta_full 0.99
_diffrn_measured_fraction_theta_max 0.99
_diffrn_measurement_device       'four-circle diffractometer'
_diffrn_measurement_device_type  'IPDS Stoe'
_diffrn_measurement_method       '??integration method??'
_diffrn_radiation_monochromator  graphite
_diffrn_radiation_probe          x-ray
_diffrn_radiation_source         'X-ray tube'
_diffrn_radiation_type           'Mo K\a'
_diffrn_radiation_wavelength     0.71073
_diffrn_reflns_av_R_equivalents  0.0537
_diffrn_reflns_av_unetI/netI     0.0037
_diffrn_reflns_limit_h_max       6
_diffrn_reflns_limit_h_min       -5
_diffrn_reflns_limit_k_max       6
_diffrn_reflns_limit_k_min       -6
_diffrn_reflns_limit_l_max       13
_diffrn_reflns_limit_l_min       -13
_diffrn_reflns_number            1758
_diffrn_reflns_theta_full        29.11
_diffrn_reflns_theta_max         29.11
_diffrn_reflns_theta_min         2.11
_diffrn_source
'sealed X-ray tube, 12 x 0.4 mm long-fine focus'
_diffrn_source_current           40
_diffrn_source_power             2.00
_diffrn_source_voltage           50
_exptl_absorpt_coefficient_mu    19.084
_exptl_absorpt_correction_T_max  0.5978
_exptl_absorpt_correction_T_min  0.2395
_exptl_absorpt_correction_type   integration
_exptl_absorpt_process_details   X-SHAPE
_exptl_crystal_colour            red
_exptl_crystal_density_diffrn    5.3717
_exptl_crystal_description       'square plate'
_exptl_crystal_F_000             259
_exptl_crystal_size_max          0.2131
_exptl_crystal_size_mid          0.1279
_exptl_crystal_size_min          0.0058
_refine_diff_density_max         1.53
_refine_diff_density_min         -4.88
_refine_ls_abs_structure_details
'  2612 of Friedel pairs used in the refinement'
_refine_ls_extinction_method     none
_refine_ls_goodness_of_fit_gt    5.87
_refine_ls_goodness_of_fit_ref   5.61
_refine_ls_number_constraints    0
_refine_ls_number_parameters     12
_refine_ls_number_reflns         190
_refine_ls_number_restraints     0
_refine_ls_R_factor_all          0.0484
_refine_ls_R_factor_gt           0.0468
_refine_ls_shift/su_max          0.0402
_refine_ls_shift/su_mean         0.0164
_refine_ls_structure_factor_coef Fsqd
_refine_ls_weighting_details     w=1/(\s^2^(I)+0.0004I^2^)
_refine_ls_weighting_scheme      sigma
_refine_ls_wR_factor_gt          0.1366
_refine_ls_wR_factor_ref         0.1368
_reflns_number_gt                174
_reflns_number_total             190
_reflns_threshold_expression     I>3\s(I)
_cod_data_source_file            ja9b09382_si_002.cif
_cod_data_source_block           I
_cod_depositor_comments
;
The following automatic conversions were performed:

'_diffrn_radiation_probe' value 'X-ray' changed to 'x-ray' according
to
/home/data/users/saulius/crontab/automatic-downloads/current/ACS/lib/dictionaries/cif_core.dic
dictionary named 'cif_core.dic' version 2.4.2 from 2011-04-26.

Automatic conversion script
Id: cif_fix_values 4973 2017-02-22 13:04:09Z antanas 
;
_cod_original_sg_symbol_Hall     '-P 4a;-2a'
_cod_original_sg_symbol_H-M      'P 4/n m m'
_cod_original_formula_sum        'Ba1 F1 Mn0.5 Te1'
_cod_database_code               4127882
loop_
_space_group_symop_id
_space_group_symop_operation_xyz
1 x,y,z
2 -x,-y,z
3 -y+1/2,x+1/2,z
4 y+1/2,-x+1/2,z
5 -x+1/2,y+1/2,-z
6 x+1/2,-y+1/2,-z
7 y,x,-z
8 -y,-x,-z
9 -x+1/2,-y+1/2,-z
10 x+1/2,y+1/2,-z
11 y,-x,-z
12 -y,x,-z
13 x,-y,z
14 -x,y,z
15 -y+1/2,-x+1/2,z
16 y+1/2,x+1/2,z
loop_
_atom_site_label
_atom_site_type_symbol
_atom_site_fract_x
_atom_site_fract_y
_atom_site_fract_z
_atom_site_adp_type
_atom_site_U_iso_or_equiv
_atom_site_site_symmetry_multiplicity
_atom_site_occupancy
_atom_site_calc_flag
Ba1 Ba 0 0.5 0.35098(14) Uani 0.0221(4) 2 1 d
Te1 Te 0.5 0 0.17044(17) Uani 0.0245(4) 2 1 d
F1 F -0.5 0.5 0.5 Uani 0.031(3) 2 1 d
Mn1 Mn 0.5 -0.5 0 Uani 0.0269(18) 2 0.500(17) d
loop_
_atom_site_aniso_label
_atom_site_aniso_type_symbol
_atom_site_aniso_U_11
_atom_site_aniso_U_22
_atom_site_aniso_U_33
_atom_site_aniso_U_12
_atom_site_aniso_U_13
_atom_site_aniso_U_23
Ba1 Ba 0.0212(6) 0.0212(6) 0.0240(8) 0 0 0
Te1 Te 0.0246(7) 0.0246(7) 0.0241(8) 0 0 0
F1 F 0.033(5) 0.033(5) 0.026(7) 0 0 0
Mn1 Mn 0.031(3) 0.031(3) 0.018(3) 0 0 0
loop_
_atom_type_symbol
_atom_type_scat_dispersion_real
_atom_type_scat_dispersion_imag
_atom_type_scat_source
Ba -0.3244 2.2819 'International Tables Vol C tables 4.2.6.8 and 6.1.1.1'
F 0.0171 0.0103 'International Tables Vol C tables 4.2.6.8 and 6.1.1.1'
Mn 0.3368 0.7283 'International Tables Vol C tables 4.2.6.8 and 6.1.1.1'
Te -0.5308 1.6751 'International Tables Vol C tables 4.2.6.8 and 6.1.1.1'
loop_
_geom_angle_atom_site_label_1
_geom_angle_atom_site_label_2
_geom_angle_atom_site_label_3
_geom_angle_site_symmetry_1
_geom_angle_site_symmetry_3
_geom_angle
Ba1 Ba1 Ba1 1_455 1_545 90
Ba1 Ba1 Ba1 1_455 1_565 90
Ba1 Ba1 Ba1 1_455 1_655 180.0(5)
Ba1 Ba1 Ba1 1_455 5_446 58.439(18)
Ba1 Ba1 Ba1 1_455 5_456 58.439(18)
Ba1 Ba1 Ba1 1_455 5_546 121.56(3)
Ba1 Ba1 Ba1 1_455 5_556 121.56(3)
Ba1 Ba1 Te1 1_455 1_455 51.719(16)
Ba1 Ba1 Te1 1_455 1_465 51.719(16)
Ba1 Ba1 Te1 1_455 . 128.28(2)
Ba1 Ba1 Te1 1_455 1_565 128.28(2)
Ba1 Ba1 F1 1_455 . 32.71(2)
Ba1 Ba1 F1 1_455 1_655 147.29(5)
Ba1 Ba1 F1 1_455 3_555 90.000(13)
Ba1 Ba1 F1 1_455 3_565 90.000(13)
Ba1 Ba1 Ba1 1_545 1_565 180.0(5)
Ba1 Ba1 Ba1 1_545 1_655 90
Ba1 Ba1 Ba1 1_545 5_446 58.439(18)
Ba1 Ba1 Ba1 1_545 5_456 121.56(3)
Ba1 Ba1 Ba1 1_545 5_546 58.439(18)
Ba1 Ba1 Ba1 1_545 5_556 121.56(3)
Ba1 Ba1 Te1 1_545 1_455 51.719(16)
Ba1 Ba1 Te1 1_545 1_465 128.28(2)
Ba1 Ba1 Te1 1_545 . 51.719(16)
Ba1 Ba1 Te1 1_545 1_565 128.28(2)
Ba1 Ba1 F1 1_545 . 90.000(13)
Ba1 Ba1 F1 1_545 1_655 90.000(13)
Ba1 Ba1 F1 1_545 3_555 32.71(2)
Ba1 Ba1 F1 1_545 3_565 147.29(5)
Ba1 Ba1 Ba1 1_565 1_655 90
Ba1 Ba1 Ba1 1_565 5_446 121.56(3)
Ba1 Ba1 Ba1 1_565 5_456 58.439(18)
Ba1 Ba1 Ba1 1_565 5_546 121.56(3)
Ba1 Ba1 Ba1 1_565 5_556 58.439(18)
Ba1 Ba1 Te1 1_565 1_455 128.28(2)
Ba1 Ba1 Te1 1_565 1_465 51.719(16)
Ba1 Ba1 Te1 1_565 . 128.28(2)
Ba1 Ba1 Te1 1_565 1_565 51.719(16)
Ba1 Ba1 F1 1_565 . 90.000(13)
Ba1 Ba1 F1 1_565 1_655 90.000(13)
Ba1 Ba1 F1 1_565 3_555 147.29(5)
Ba1 Ba1 F1 1_565 3_565 32.71(2)
Ba1 Ba1 Ba1 1_655 5_446 121.56(3)
Ba1 Ba1 Ba1 1_655 5_456 121.56(3)
Ba1 Ba1 Ba1 1_655 5_546 58.439(18)
Ba1 Ba1 Ba1 1_655 5_556 58.439(18)
Ba1 Ba1 Te1 1_655 1_455 128.28(2)
Ba1 Ba1 Te1 1_655 1_465 128.28(2)
Ba1 Ba1 Te1 1_655 . 51.719(16)
Ba1 Ba1 Te1 1_655 1_565 51.719(16)
Ba1 Ba1 F1 1_655 . 147.29(5)
Ba1 Ba1 F1 1_655 1_655 32.71(2)
Ba1 Ba1 F1 1_655 3_555 90.000(13)
Ba1 Ba1 F1 1_655 3_565 90.000(13)
Ba1 Ba1 Ba1 5_446 5_456 63.12(2)
Ba1 Ba1 Ba1 5_446 5_546 63.12(2)
Ba1 Ba1 Ba1 5_446 5_556 95.50(4)
Ba1 Ba1 Te1 5_446 1_455 71.07(3)
Ba1 Ba1 Te1 5_446 1_465 108.913(19)
Ba1 Ba1 Te1 5_446 . 108.913(19)
Ba1 Ba1 Te1 5_446 1_565 166.57(4)
Ba1 Ba1 F1 5_446 . 36.509(12)
Ba1 Ba1 F1 5_446 1_655 94.42(4)
Ba1 Ba1 F1 5_446 3_555 36.509(12)
Ba1 Ba1 F1 5_446 3_565 94.42(4)
Ba1 Ba1 Ba1 5_456 5_546 95.50(4)
Ba1 Ba1 Ba1 5_456 5_556 63.12(2)
Ba1 Ba1 Te1 5_456 1_455 108.913(19)
Ba1 Ba1 Te1 5_456 1_465 71.07(3)
Ba1 Ba1 Te1 5_456 . 166.57(4)
Ba1 Ba1 Te1 5_456 1_565 108.913(19)
Ba1 Ba1 F1 5_456 . 36.509(12)
Ba1 Ba1 F1 5_456 1_655 94.42(4)
Ba1 Ba1 F1 5_456 3_555 94.42(4)
Ba1 Ba1 F1 5_456 3_565 36.509(12)
Ba1 Ba1 Ba1 5_546 5_556 63.12(2)
Ba1 Ba1 Te1 5_546 1_455 108.913(19)
Ba1 Ba1 Te1 5_546 1_465 166.57(4)
Ba1 Ba1 Te1 5_546 . 71.07(3)
Ba1 Ba1 Te1 5_546 1_565 108.913(19)
Ba1 Ba1 F1 5_546 . 94.42(4)
Ba1 Ba1 F1 5_546 1_655 36.509(12)
Ba1 Ba1 F1 5_546 3_555 36.509(12)
Ba1 Ba1 F1 5_546 3_565 94.42(4)
Ba1 Ba1 Te1 5_556 1_455 166.57(4)
Ba1 Ba1 Te1 5_556 1_465 108.913(19)
Ba1 Ba1 Te1 5_556 . 108.913(19)
Ba1 Ba1 Te1 5_556 1_565 71.07(3)
Ba1 Ba1 F1 5_556 . 94.42(4)
Ba1 Ba1 F1 5_556 1_655 36.509(12)
Ba1 Ba1 F1 5_556 3_555 94.42(4)
Ba1 Ba1 F1 5_556 3_565 36.509(12)
Te1 Ba1 Te1 1_455 1_465 76.56(2)
Te1 Ba1 Te1 1_455 . 76.56(2)
Te1 Ba1 Te1 1_455 1_565 122.36(5)
Te1 Ba1 F1 1_455 . 74.89(2)
Te1 Ba1 F1 1_455 1_655 141.424(9)
Te1 Ba1 F1 1_455 3_555 74.89(2)
Te1 Ba1 F1 1_455 3_565 141.424(9)
Te1 Ba1 Te1 1_465 . 122.36(5)
Te1 Ba1 Te1 1_465 1_565 76.56(2)
Te1 Ba1 F1 1_465 . 74.89(2)
Te1 Ba1 F1 1_465 1_655 141.424(9)
Te1 Ba1 F1 1_465 3_555 141.424(9)
Te1 Ba1 F1 1_465 3_565 74.89(2)
Te1 Ba1 Te1 . 1_565 76.56(2)
Te1 Ba1 F1 . . 141.424(9)
Te1 Ba1 F1 . 1_655 74.89(2)
Te1 Ba1 F1 . 3_555 74.89(2)
Te1 Ba1 F1 . 3_565 141.424(9)
Te1 Ba1 F1 1_565 . 141.424(9)
Te1 Ba1 F1 1_565 1_655 74.89(2)
Te1 Ba1 F1 1_565 3_555 141.424(9)
Te1 Ba1 F1 1_565 3_565 74.89(2)
F1 Ba1 F1 . 1_655 114.57(5)
F1 Ba1 F1 . 3_555 73.02(2)
F1 Ba1 F1 . 3_565 73.02(2)
F1 Ba1 F1 1_655 3_555 73.02(2)
F1 Ba1 F1 1_655 3_565 73.02(2)
F1 Ba1 F1 3_555 3_565 114.57(5)
Ba1 Te1 Ba1 1_545 . 76.56(2)
Ba1 Te1 Ba1 1_545 1_645 76.56(2)
Ba1 Te1 Ba1 1_545 1_655 122.36(5)
Ba1 Te1 Mn1 1_545 . 77.651(18)
Ba1 Te1 Mn1 1_545 1_565 141.691(12)
Ba1 Te1 Mn1 1_545 3_445 77.651(18)
Ba1 Te1 Mn1 1_545 3_545 141.691(12)
Ba1 Te1 Ba1 . 1_645 122.36(5)
Ba1 Te1 Ba1 . 1_655 76.56(2)
Ba1 Te1 Mn1 . . 141.691(12)
Ba1 Te1 Mn1 . 1_565 77.651(18)
Ba1 Te1 Mn1 . 3_445 77.651(18)
Ba1 Te1 Mn1 . 3_545 141.691(12)
Ba1 Te1 Ba1 1_645 1_655 76.56(2)
Ba1 Te1 Mn1 1_645 . 77.651(18)
Ba1 Te1 Mn1 1_645 1_565 141.691(12)
Ba1 Te1 Mn1 1_645 3_445 141.691(12)
Ba1 Te1 Mn1 1_645 3_545 77.651(18)
Ba1 Te1 Mn1 1_655 . 141.691(12)
Ba1 Te1 Mn1 1_655 1_565 77.651(18)
Ba1 Te1 Mn1 1_655 3_445 141.691(12)
Ba1 Te1 Mn1 1_655 3_545 77.651(18)
Mn1 Te1 Mn1 . 1_565 107.40(5)
Mn1 Te1 Mn1 . 3_445 69.48(3)
Mn1 Te1 Mn1 . 3_545 69.48(3)
Mn1 Te1 Mn1 1_565 3_445 69.48(3)
Mn1 Te1 Mn1 1_565 3_545 69.48(3)
Mn1 Te1 Mn1 3_445 3_545 107.40(5)
Ba1 F1 Ba1 1_455 . 114.57(4)
Ba1 F1 Ba1 1_455 5_446 106.981(18)
Ba1 F1 Ba1 1_455 5_456 106.981(18)
Ba1 F1 Ba1 . 5_446 106.981(18)
Ba1 F1 Ba1 . 5_456 106.981(18)
Ba1 F1 Ba1 5_446 5_456 114.57(4)
Te1 Mn1 Te1 1_545 . 107.40(4)
Te1 Mn1 Te1 1_545 5_545 110.52(2)
Te1 Mn1 Te1 1_545 5_645 110.52(2)
Te1 Mn1 Te1 . 5_545 110.52(2)
Te1 Mn1 Te1 . 5_645 110.52(2)
Te1 Mn1 Te1 5_545 5_645 107.40(4)
loop_
_geom_bond_atom_site_label_1
_geom_bond_atom_site_label_2
_geom_bond_site_symmetry_2
_geom_bond_distance
Ba1 Ba1 1_455 4.4704(12)
Ba1 Ba1 1_545 4.4704(12)
Ba1 Ba1 1_565 4.4704(12)
Ba1 Ba1 1_655 4.4704(12)
Ba1 Ba1 5_446 4.2705(15)
Ba1 Ba1 5_456 4.2705(15)
Ba1 Ba1 5_546 4.2705(15)
Ba1 Ba1 5_556 4.2705(15)
Ba1 Te1 1_455 3.6079(12)
Ba1 Te1 1_465 3.6079(12)
Ba1 Te1 . 3.6079(12)
Ba1 Te1 1_565 3.6079(12)
Ba1 F1 . 2.6566(9)
Ba1 F1 1_655 2.6566(9)
Ba1 F1 3_555 2.6566(9)
Ba1 F1 3_565 2.6566(9)
Te1 Mn1 . 2.7735(11)
Te1 Mn1 1_565 2.7735(11)
Te1 Mn1 3_445 2.7735(11)
Te1 Mn1 3_545 2.7735(11)
loop_
_refln_index_h
_refln_index_k
_refln_index_l
_refln_F_squared_calc
_refln_F_squared_meas
_refln_F_squared_sigma
_refln_observed_status
1 1 0 19647.60 13162.90 37.82 o
2 2 0 19686.20 16519.30 25.99 o
1 3 0 8578.15 7778.56 10.47 o
3 3 0 4616.57 4797.43 13.38 o
0 4 0 9205.39 9159.25 15.90 o
2 4 0 6604.39 6794.29 10.09 o
4 4 0 2703.27 2081.61 13.19 o
1 5 0 2633.60 2788.54 7.37 o
3 5 0 1558.10 1572.51 7.56 o
0 6 0 2056.36 2107.41 12.02 o
0 0 1 75.91 70.01 12.22 o
0 1 1 2.17 9.31 3.30 <
1 1 1 358.03 326.02 4.07 o
0 2 1 44.42 50.04 2.91 o
1 2 1 0.60 3.88 1.94 <
2 2 1 27.75 32.00 2.72 o
0 3 1 1.36 4.85 2.52 <
1 3 1 191.79 194.53 2.13 o
2 3 1 2.98 3.88 2.13 <
3 3 1 117.64 127.03 3.68 o
0 4 1 19.84 19.98 2.91 o
1 4 1 4.80 5.82 1.94 <
2 4 1 17.96 19.39 2.33 o
3 4 1 6.78 8.34 2.91 <
4 4 1 12.26 13.96 4.85 <
0 5 1 6.78 8.53 3.30 <
1 5 1 73.68 79.71 2.52 o
2 5 1 6.85 10.09 2.52 o
3 5 1 46.38 40.73 3.10 o
0 6 1 10.54 12.99 4.07 o
1 6 1 6.06 8.15 3.10 <
0 0 2 1688.52 1647.56 19.59 o
0 1 2 24937.50 18618.90 36.07 o
1 1 2 9649.58 8384.64 14.93 o
0 2 2 1116.97 1097.15 5.43 o
1 2 2 14759.50 12623.90 11.64 o
2 2 2 845.95 834.55 5.24 o
0 3 2 9852.21 9283.38 12.61 o
1 3 2 3532.68 3655.67 5.62 o
2 3 2 6922.20 6871.09 7.56 o
3 3 2 1647.57 1926.07 7.18 o
0 4 2 507.81 501.35 3.88 o
1 4 2 5004.72 5187.45 6.40 o
2 4 2 394.41 389.44 3.10 o
3 4 2 2757.70 3024.19 6.21 o
4 4 2 188.03 167.57 5.24 o
0 5 2 2757.70 3044.55 7.76 o
1 5 2 853.46 1007.55 3.88 o
2 5 2 2086.25 2217.38 5.62 o
3 5 2 471.62 463.72 4.27 o
0 6 2 148.13 104.92 4.46 o
0 0 3 56.93 56.63 6.98 o
0 1 3 1083.70 1064.76 6.40 o
1 1 3 12.54 13.19 3.30 o
0 2 3 58.86 63.23 2.91 o
1 2 3 676.87 669.69 2.91 o
2 2 3 55.08 55.66 3.30 o
0 3 3 464.23 482.34 3.88 o
1 3 3 2.13 6.59 1.94 o
2 3 3 333.13 354.73 2.91 o
3 3 3 0.38 2.33 3.49 <
0 4 3 48.73 51.01 3.30 o
1 4 3 245.18 262.21 2.72 o
2 4 3 43.91 44.80 2.52 o
3 4 3 138.96 154.77 3.30 o
4 4 3 27.95 25.99 5.04 o
0 5 3 138.97 150.89 3.88 o
1 5 3 2.10 5.82 2.72 <
2 5 3 106.32 120.83 3.10 o
3 5 3 3.03 7.37 3.49 <
0 0 4 4574.50 4611.24 22.50 o
0 1 4 11425.30 10705.40 16.68 o
1 1 4 12434.50 11392.70 17.65 o
0 2 4 3176.54 3231.32 9.70 o
1 2 4 7373.76 7112.36 8.15 o
2 2 4 2351.94 2422.76 10.09 o
0 3 4 5077.04 5194.05 10.67 o
1 3 4 5330.43 5608.89 6.79 o
2 3 4 3614.80 3781.15 6.01 o
3 3 4 2699.91 3063.36 10.09 o
0 4 4 1366.31 1462.35 6.79 o
1 4 4 2630.83 2888.23 5.24 o
2 4 4 1054.16 1143.89 4.27 o
3 4 4 1459.21 1613.82 5.24 o
4 4 4 500.68 425.32 6.59 o
0 5 4 1459.21 1587.05 7.76 o
1 5 4 1479.17 1583.37 5.04 o
2 5 4 1106.23 1146.60 5.24 o
3 5 4 851.61 487.77 7.56 o
0 0 5 2287.05 2348.48 15.52 o
0 1 5 309.45 322.73 4.27 o
1 1 5 1021.90 1040.32 6.01 o
0 2 5 1521.13 1546.71 6.40 o
1 2 5 231.62 230.60 2.33 o
2 2 5 1050.81 1073.29 5.04 o
0 3 5 185.99 194.72 4.65 o
1 3 5 465.57 500.96 2.91 o
2 3 5 152.79 155.35 2.72 o
3 3 5 241.25 273.46 4.27 o
0 4 5 533.97 547.12 4.65 o
1 4 5 125.86 132.46 2.72 o
2 4 5 390.03 457.13 3.49 o
3 4 5 84.55 88.44 3.49 o
4 4 5 163.58 130.33 6.59 o
0 5 5 84.55 88.25 4.46 o
1 5 5 134.10 131.11 3.30 o
2 5 5 69.07 68.27 3.49 o
0 0 6 16600.70 15845.30 52.37 o
0 1 6 847.80 955.37 5.24 o
1 1 6 6130.78 6130.80 11.25 o
0 2 6 10998.10 11098.10 14.55 o
1 2 6 605.97 676.09 3.30 o
2 2 6 7612.62 7934.10 11.83 o
0 3 6 448.83 541.49 4.07 o
1 3 6 3324.68 3478.02 5.82 o
2 3 6 338.95 395.07 3.49 o
3 3 6 1902.69 2093.44 7.37 o
0 4 6 3942.69 4266.60 9.50 o
1 4 6 259.09 310.70 3.10 o
2 4 6 2914.60 3242.18 6.59 o
3 4 6 155.27 168.93 3.49 o
0 5 6 155.27 166.79 5.04 o
1 5 6 1127.39 1133.22 5.62 o
2 5 6 121.46 113.46 3.68 o
0 0 7 874.74 987.18 10.47 o
0 1 7 971.12 1029.07 5.43 o
1 1 7 1406.81 1443.92 6.01 o
0 2 7 647.01 674.93 4.85 o
1 2 7 661.43 707.90 3.68 o
2 2 7 494.27 522.88 4.46 o
0 3 7 461.09 517.64 4.46 o
1 3 7 788.67 838.04 3.68 o
2 3 7 327.87 359.96 3.88 o
3 3 7 463.18 509.69 5.24 o
0 4 7 300.36 299.45 4.85 o
1 4 7 237.26 267.84 3.30 o
2 4 7 236.65 245.15 3.68 o
3 4 7 129.67 131.30 3.68 o
0 5 7 129.67 123.15 5.04 o
1 5 7 279.98 250.19 4.85 o
0 0 8 12.92 21.33 6.01 o
0 1 8 5511.27 5935.50 10.67 o
1 1 8 573.84 622.56 4.85 o
0 2 8 6.14 24.83 3.68 o
1 2 8 4006.33 4334.87 7.18 o
2 2 8 3.20 7.76 3.68 <
0 3 8 2964.58 3383.76 8.92 o
1 3 8 245.80 275.60 3.30 o
2 3 8 2223.83 2514.11 6.01 o
3 3 8 116.77 136.34 4.65 o
0 4 8 1.03 8.15 4.07 <
1 4 8 1687.01 1670.45 6.01 o
2 4 8 0.62 11.83 3.49 o
0 0 9 90.48 113.85 6.98 o
0 1 9 1654.81 1796.71 6.59 o
1 1 9 294.51 313.42 4.27 o
0 2 9 59.19 73.51 3.88 o
1 2 9 1234.67 1348.31 4.85 o
2 2 9 39.77 55.27 4.27 o
0 3 9 933.01 1061.27 6.40 o
1 3 9 141.30 161.94 3.10 o
2 3 9 712.37 754.06 4.46 o
3 3 9 72.29 77.00 5.24 o
0 4 9 19.24 20.36 4.65 o
1 4 9 548.73 475.36 5.04 o
2 4 9 13.75 16.29 6.40 <
0 0 10 1097.69 1248.62 11.64 o
0 1 10 726.56 805.45 5.82 o
1 1 10 2519.62 2845.95 9.12 o
0 2 10 860.26 985.24 6.21 o
1 2 10 531.62 581.45 4.07 o
2 2 10 676.40 744.36 7.18 o
0 3 10 394.52 434.63 5.62 o
1 3 10 1400.69 1513.94 5.62 o
2 3 10 296.31 316.13 4.07 o
0 0 11 1714.44 1784.30 13.38 o
0 1 11 14.96 19.01 4.07 o
1 1 11 992.77 1098.89 6.98 o
0 2 11 1288.76 1262.78 7.37 o
1 2 11 13.23 17.46 3.30 o
2 2 11 978.81 913.68 7.76 o
0 3 11 11.50 14.16 4.85 <
1 3 11 583.53 476.33 4.85 o
0 0 12 1186.56 1254.63 12.80 o
0 1 12 297.24 271.14 5.04 o
1 1 12 342.34 359.19 5.82 o
0 2 12 884.57 834.93 6.98 o
1 2 12 232.94 211.40 4.27 o
0 0 13 144.59 115.20 9.50 o
0 1 13 621.90 211.01 10.09 o
