#------------------------------------------------------------------------------
#$Date: 2019-11-02 08:07:15 +0200 (Sat, 02 Nov 2019) $
#$Revision: 221046 $
#$URL: file:///home/coder/svn-repositories/cod/cif/4/12/78/4127883.cif $
#------------------------------------------------------------------------------
#
# This file is available in the Crystallography Open Database (COD),
# http://www.crystallography.net/
#
# All data on this site have been placed in the public domain by the
# contributors.
#
data_4127883
loop_
_publ_author_name
'Chen, Haijie'
'McClain, Rebecca'
'He, Jiangang'
'Zhang, Chi'
'Olding, Jack N.'
'Dos Reis, Roberto'
'Bao, Jin-Ke'
'Hadar, Ido'
'Spanopoulos, Ioannis'
'Malliakas, Christos D.'
'He, Yihui'
'Chung, Duck Young'
'Kwok, Wai-Kwong'
'Weiss, Emily A.'
'Dravid, Vinayak P.'
'Wolverton, Christopher'
'Kanatzidis, Mercouri G.'
_publ_section_title
;
 Antiferromagnetic Semiconductor BaFMn<sub>0.5</sub>Te with Unique Mn
 Ordering and Red Photoluminescence.
;
_journal_issue                   43
_journal_name_full               'Journal of the American Chemical Society'
_journal_page_first              17421
_journal_page_last               17430
_journal_paper_doi               10.1021/jacs.9b09382
_journal_volume                  141
_journal_year                    2019
_chemical_formula_sum            'Ba F Mn0.5 Te'
_chemical_formula_weight         311.4
_space_group_IT_number           67
_space_group_name_Hall           '-C 2a 2'
_space_group_name_H-M_alt        'C m m a'
_space_group_ssg_name            Cmme(\a01/2)0ss
_symmetry_cell_setting           orthorhombic
_symmetry_space_group_name_Hall  '-C 2a 2'
_symmetry_space_group_name_H-M   'C m m a'
_cell_angle_alpha                90
_cell_angle_beta                 90
_cell_angle_gamma                90
_cell_formula_units_Z            4
_cell_length_a                   6.3205(12)
_cell_length_b                   6.3233(10)
_cell_length_c                   9.6379(17)
_cell_measurement_reflns_used    3185
_cell_measurement_temperature    293
_cell_measurement_theta_max      29.67
_cell_measurement_theta_min      2.05
_cell_modulation_dimension       1
_cell_volume                     385.19(12)
_computing_cell_refinement       'STOE X-AREA'
_computing_data_collection       'STOE X-AREA'
_computing_data_reduction        'STOE X-RED'
_computing_structure_refinement  JANA2006
_computing_structure_solution    JANA2006
_diffrn_ambient_temperature      293
_diffrn_detector                 'image plate (34 cm diameter)'
_diffrn_detector_area_resol_mean 6.67
_diffrn_measured_fraction_theta_full 0.99
_diffrn_measured_fraction_theta_max 0.99
_diffrn_measurement_device       'four-circle diffractometer'
_diffrn_measurement_device_type  'IPDS Stoe 2T'
_diffrn_measurement_method       '??integration method??'
_diffrn_radiation_monochromator  graphite
_diffrn_radiation_probe          x-ray
_diffrn_radiation_source         'X-ray tube'
_diffrn_radiation_type           'Mo K\a'
_diffrn_radiation_wavelength     0.71073
_diffrn_reflns_av_R_equivalents  0.053
_diffrn_reflns_av_unetI/netI     0.008
_diffrn_reflns_limit_h_max       8
_diffrn_reflns_limit_h_min       -8
_diffrn_reflns_limit_index_m_1_max 1
_diffrn_reflns_limit_index_m_1_min -1
_diffrn_reflns_limit_k_max       8
_diffrn_reflns_limit_k_min       -8
_diffrn_reflns_limit_l_max       13
_diffrn_reflns_limit_l_min       -13
_diffrn_reflns_number            4965
_diffrn_reflns_theta_full        29.18
_diffrn_reflns_theta_max         29.18
_diffrn_reflns_theta_min         4.02
_diffrn_source
'sealed X-ray tube, 12 x 0.4 mm long-fine focus'
_diffrn_source_current           40
_diffrn_source_power             2.00
_diffrn_source_voltage           50
_exptl_absorpt_coefficient_mu    19.078
_exptl_absorpt_correction_T_max  0.5923
_exptl_absorpt_correction_T_min  0.2672
_exptl_absorpt_correction_type   integration
_exptl_absorpt_process_details   X-SHAPE
_exptl_crystal_colour            red
_exptl_crystal_density_diffrn    5.3698
_exptl_crystal_F_000             518
_exptl_crystal_size_max          0.2131
_exptl_crystal_size_mid          0.1279
_exptl_crystal_size_min          0.0058
_refine_diff_density_max         8.70
_refine_diff_density_min         -5.75
_refine_ls_abs_structure_details
'  2612 of Friedel pairs used in the refinement'
_refine_ls_extinction_method     none
_refine_ls_goodness_of_fit_gt    5.36
_refine_ls_goodness_of_fit_ref   4.67
_refine_ls_number_constraints    4
_refine_ls_number_parameters     25
_refine_ls_number_reflns         781
_refine_ls_number_restraints     0
_refine_ls_R_factor_all          0.0770
_refine_ls_R_factor_gt           0.0614
_refine_ls_shift/su_max          0.0033
_refine_ls_shift/su_mean         0.0005
_refine_ls_structure_factor_coef Fsqd
_refine_ls_weighting_details     w=1/(\s^2^(I)+0.0004I^2^)
_refine_ls_weighting_scheme      sigma
_refine_ls_wR_factor_gt          0.1689
_refine_ls_wR_factor_ref         0.1728
_reflns_number_gt                573
_reflns_number_total             781
_reflns_threshold_expression     I>3\s(I)
_cod_data_source_file            ja9b09382_si_003.cif
_cod_data_source_block           I
_cod_depositor_comments
;
The following automatic conversions were performed:

'_diffrn_radiation_probe' value 'X-ray' changed to 'x-ray' according
to
/home/data/users/saulius/crontab/automatic-downloads/current/ACS/lib/dictionaries/cif_core.dic
dictionary named 'cif_core.dic' version 2.4.2 from 2011-04-26.

Automatic conversion script
Id: cif_fix_values 4973 2017-02-22 13:04:09Z antanas 
;
_cod_original_formula_sum        'Ba1 F1 Mn0.5 Te1'
_cod_database_code               4127883
_jana_cell_commen_supercell_matrix_1_1 3
_jana_cell_commen_supercell_matrix_1_2 0
_jana_cell_commen_supercell_matrix_1_3 0
_jana_cell_commen_supercell_matrix_2_1 0
_jana_cell_commen_supercell_matrix_2_2 1
_jana_cell_commen_supercell_matrix_2_3 0
_jana_cell_commen_supercell_matrix_3_1 0
_jana_cell_commen_supercell_matrix_3_2 0
_jana_cell_commen_supercell_matrix_3_3 2
_jana_cell_commen_t_section_1    0
loop_
_space_group_symop_id
_space_group_symop_operation_xyz
1 x,y,z
2 -x,-y+0.5,z
3 -x,y+0.5,-z
4 x,-y,-z
5 x+0.5,y+0.5,z
6 -x+0.5,-y,z
7 -x+0.5,y,-z
8 x+0.5,-y+0.5,-z
9 -x,-y,-z
10 x,y+0.5,-z
11 x,-y+0.5,z
12 -x,y,z
13 -x+0.5,-y+0.5,-z
14 x+0.5,y,-z
15 x+0.5,-y,z
16 -x+0.5,y+0.5,z
loop_
_space_group_symop_ssg_id
_space_group_symop_ssg_operation_algebraic
1 x1,x2,x3,x4
2 -x1,-x2+1/2,x3,x3-x4+1/2
3 -x1,x2+1/2,-x3,-x4+1/2
4 x1,-x2,-x3,-x3+x4
5 -x1,-x2,-x3,-x4
6 x1,x2+1/2,-x3,-x3+x4+1/2
7 x1,-x2+1/2,x3,x4+1/2
8 -x1,x2,x3,x3-x4
9 x1+1/2,x2+1/2,x3,x4
10 -x1+1/2,-x2,x3,x3-x4+1/2
11 -x1+1/2,x2,-x3,-x4+1/2
12 x1+1/2,-x2+1/2,-x3,-x3+x4
13 -x1+1/2,-x2+1/2,-x3,-x4
14 x1+1/2,x2,-x3,-x3+x4+1/2
15 x1+1/2,-x2,x3,x4+1/2
16 -x1+1/2,x2+1/2,x3,x3-x4
loop_
_atom_site_label
_atom_site_type_symbol
_atom_site_fract_x
_atom_site_fract_y
_atom_site_fract_z
_atom_site_adp_type
_atom_site_U_iso_or_equiv
_atom_site_site_symmetry_multiplicity
_atom_site_occupancy
_atom_site_calc_flag
Ba1 Ba 0 0.25 0.35101(10) Uani 0.0189(3) 4 1 d
Te1 Te 0.5 0.25 0.17061(12) Uani 0.0213(3) 4 1 d
Mn1 Mn 0.25 0 0 Uani 0.0316(13) 4 0.5 d
F1 F -0.25 0 0.5 Uani 0.032(3) 4 1 d
loop_
_atom_site_aniso_label
_atom_site_aniso_type_symbol
_atom_site_aniso_U_11
_atom_site_aniso_U_22
_atom_site_aniso_U_33
_atom_site_aniso_U_12
_atom_site_aniso_U_13
_atom_site_aniso_U_23
Ba1 Ba 0.0167(5) 0.0173(6) 0.0228(5) 0 0 0
Te1 Te 0.0208(6) 0.0212(7) 0.0220(5) 0 0 0
Mn1 Mn 0.031(2) 0.039(2) 0.024(2) 0 0 0
F1 F 0.023(5) 0.040(7) 0.031(5) 0 0 0
loop_
_atom_site_displace_Fourier_atom_site_label
_atom_site_displace_Fourier_axis
_atom_site_displace_Fourier_wave_vector_seq_id
_atom_site_displace_Fourier_param_cos
_atom_site_displace_Fourier_param_sin
Ba1 x 1 0 0
Ba1 y 1 -0.00693(10) -0.0137(2)
Ba1 z 1 0 0
Te1 x 1 0 0
Te1 y 1 -0.0128(2) -0.00763(14)
Te1 z 1 0 0
F1 x 1 0 0
F1 y 1 0 -0.020(3)
F1 z 1 0.0026(15) 0
loop_
_atom_site_Fourier_wave_vector_seq_id
_jana_atom_site_fourier_wave_vector_q1_coeff
1 1
loop_
_atom_site_occ_special_func_atom_site_label
_atom_site_occ_special_func_crenel_c
_atom_site_occ_special_func_crenel_w
Mn1 0.75 0.5
loop_
_atom_site_U_Fourier_atom_site_label
_atom_site_U_Fourier_tens_elem
_atom_site_U_Fourier_wave_vector_seq_id
_atom_site_U_Fourier_param_cos
_atom_site_U_Fourier_param_sin
Ba1 U11 1 0 0
Ba1 U22 1 0 0
Ba1 U33 1 0 0
Ba1 U12 1 -0.0013(5) 0.0007(2)
Ba1 U13 1 0 0
Ba1 U23 1 0.0005(3) 0.0009(5)
Te1 U11 1 0 0
Te1 U22 1 0 0
Te1 U33 1 0 0
Te1 U12 1 -0.0016(3) 0.0027(5)
Te1 U13 1 0 0
Te1 U23 1 0.0003(6) 0.0002(4)
F1 U11 1 0 0
F1 U22 1 0 0
F1 U33 1 0 0
F1 U12 1 -0.002(7) 0
F1 U13 1 0 -0.002(6)
F1 U23 1 0 0
loop_
_atom_type_symbol
_atom_type_scat_dispersion_real
_atom_type_scat_dispersion_imag
_atom_type_scat_source
Ba -0.3244 2.2819 'International Tables Vol C tables 4.2.6.8 and 6.1.1.1'
F 0.0171 0.0103 'International Tables Vol C tables 4.2.6.8 and 6.1.1.1'
Mn 0.3368 0.7283 'International Tables Vol C tables 4.2.6.8 and 6.1.1.1'
Te -0.5308 1.6751 'International Tables Vol C tables 4.2.6.8 and 6.1.1.1'
loop_
_cell_wave_vector_seq_id
_cell_wave_vector_x
_cell_wave_vector_y
_cell_wave_vector_z
1 0.333333 0.000000 0.500000
loop_
_refln_index_h
_refln_index_k
_refln_index_l
_refln_index_m_1
_refln_F_squared_calc
_refln_F_squared_meas
_refln_F_squared_sigma
_refln_observed_status
2 0 0 0 79867.40 63157.80 217.93 o
4 0 0 0 84055.30 76542.10 123.63 o
6 0 0 0 21475.10 21076.10 68.15 o
8 0 0 0 14033.70 14622.90 93.51 o
4 2 0 0 36816.30 35776.70 63.40 o
6 2 0 0 30349.60 31265.10 59.44 o
8 2 0 0 8172.13 7631.63 41.21 o
2 4 0 0 35342.50 33896.10 69.74 o
4 4 0 0 38063.80 40814.50 69.74 o
6 4 0 0 12333.80 12869.20 44.38 o
0 6 0 0 18675.10 20744.10 91.14 o
2 6 0 0 25046.80 29097.70 66.57 o
4 6 0 0 11345.40 12136.90 46.76 o
6 6 0 0 8966.27 9356.86 52.30 o
0 8 0 0 9627.89 6427.05 69.74 o
2 8 0 0 6283.73 6751.18 57.85 o
2 0 1 0 1430.35 1450.25 22.19 o
4 0 1 0 164.55 146.61 14.26 o
6 0 1 0 491.63 553.15 16.64 o
8 0 1 0 104.93 64.19 20.60 o
-7 1 1 -1 45.14 110.95 15.06 o
-5 1 1 -1 80.01 144.23 11.89 o
-3 1 1 -1 449.26 501.64 11.89 o
-1 1 1 -1 599.81 456.47 14.26 o
1 1 1 -1 1091.13 593.57 22.98 o
1 1 1 0 9.15 45.17 15.85 <
3 1 1 -1 387.68 119.67 11.09 o
3 1 1 0 2.91 15.85 10.30 <
5 1 1 -1 199.92 56.27 11.09 o
5 1 1 0 17.56 17.43 10.30 <
7 1 1 -1 42.24 1.58 12.68 <
7 1 1 0 43.01 33.28 13.47 <
-8 2 1 -1 49.96 58.64 17.43 o
-6 2 1 -1 148.54 150.57 13.47 o
-4 2 1 -1 204.05 233.78 11.09 o
-2 2 1 -1 549.34 573.76 13.47 o
0 2 1 -1 404.88 445.38 17.43 o
0 2 1 0 1462.33 1460.55 27.74 o
2 2 1 -1 551.18 596.74 15.06 o
2 2 1 0 196.97 221.10 12.68 o
4 2 1 -1 176.80 241.71 11.09 o
4 2 1 0 774.05 873.32 11.89 o
6 2 1 -1 119.71 149.78 11.89 o
6 2 1 0 125.85 87.17 11.89 o
8 2 1 -1 34.37 61.81 15.06 o
8 2 1 0 214.53 206.84 16.64 o
-7 3 1 -1 2.98 38.04 15.06 <
-5 3 1 -1 160.93 263.11 12.68 o
-3 3 1 -1 59.40 98.27 11.09 o
-1 3 1 -1 676.13 616.55 15.06 o
1 3 1 -1 180.50 76.87 15.06 o
1 3 1 0 2.38 19.02 15.06 <
3 3 1 -1 413.64 228.24 12.68 o
3 3 1 0 6.50 21.40 11.09 <
5 3 1 -1 53.58 0.79 11.09 <
5 3 1 0 25.93 23.77 11.89 <
7 3 1 -1 45.46 31.70 13.47 <
7 3 1 0 41.47 44.38 15.06 <
-6 4 1 -1 298.01 316.20 15.85 o
-4 4 1 -1 727.97 756.82 14.26 o
-2 4 1 -1 783.95 800.41 13.47 o
0 4 1 -1 1340.97 1404.28 19.81 o
0 4 1 0 108.93 140.27 20.60 o
2 4 1 -1 730.95 834.49 15.06 o
2 4 1 0 780.92 856.68 14.26 o
4 4 1 -1 638.83 780.60 13.47 o
4 4 1 0 105.81 87.17 12.68 o
6 4 1 -1 228.49 332.84 14.26 o
6 4 1 0 315.42 359.79 15.06 o
8 4 1 -1 123.90 154.53 34.87 o
-5 5 1 -1 0.06 28.53 15.06 <
-3 5 1 -1 217.15 284.50 14.26 o
-1 5 1 -1 9.12 24.57 14.26 <
1 5 1 -1 315.25 289.26 16.64 o
1 5 1 0 11.99 16.64 14.26 <
3 5 1 -1 16.23 4.75 13.47 <
3 5 1 0 21.18 25.36 13.47 <
5 5 1 -1 81.07 52.30 14.26 o
5 5 1 0 33.39 34.87 14.26 <
7 5 1 -1 5.61 21.40 17.43 <
7 5 1 0 34.59 40.42 19.81 <
-4 6 1 -1 626.14 623.68 17.43 o
-2 6 1 -1 1107.71 1108.69 16.64 o
0 6 1 -1 951.96 1015.17 21.40 o
0 6 1 0 467.45 544.44 29.32 o
2 6 1 -1 1029.78 1120.57 18.23 o
2 6 1 0 78.69 84.00 15.85 o
4 6 1 -1 525.84 653.80 16.64 o
4 6 1 0 299.81 346.32 16.64 o
6 6 1 -1 343.40 391.49 19.02 o
6 6 1 0 63.14 57.85 18.23 o
-3 7 1 -1 1.73 15.85 17.43 <
-1 7 1 -1 117.88 136.31 19.81 o
1 7 1 -1 0.03 11.89 20.60 <
1 7 1 0 26.73 38.83 19.02 <
3 7 1 -1 68.79 73.70 17.43 o
3 7 1 0 28.56 45.96 16.64 <
5 7 1 -1 0.95 28.53 18.23 <
5 7 1 0 28.08 29.32 19.02 <
-2 8 1 -1 639.80 422.39 22.19 o
0 8 1 -1 803.39 632.40 23.77 o
0 8 1 0 52.11 57.06 32.49 <
2 8 1 -1 584.42 482.62 23.77 o
2 8 1 0 177.65 145.82 21.40 o
0 0 2 0 6891.98 6805.86 80.83 o
2 0 2 0 39279.40 38105.80 81.63 o
4 0 2 0 3671.79 3731.02 27.74 o
6 0 2 0 7606.05 8573.10 38.04 o
8 0 2 0 996.89 803.58 25.36 o
-7 1 2 -1 77.95 146.61 15.06 o
-5 1 2 -1 28.21 73.70 11.09 o
-3 1 2 -1 602.48 678.37 11.89 o
-1 1 2 -1 303.47 201.29 13.47 o
1 1 2 -1 1358.18 780.60 23.77 o
1 1 2 0 100259.00 78294.30 150.57 o
3 1 2 -1 192.38 30.11 11.09 <
3 1 2 0 61333.30 58237.30 64.19 o
5 1 2 -1 304.74 124.42 9.51 o
5 1 2 0 30732.00 31379.20 39.62 o
7 1 2 -1 12.82 6.34 12.68 <
7 1 2 0 13532.40 14282.20 31.70 o
-8 2 2 -1 19.49 36.45 20.60 <
-6 2 2 -1 27.20 38.04 13.47 <
-4 2 2 -1 107.12 110.15 10.30 o
-2 2 2 -1 77.67 93.51 11.89 o
0 2 2 -1 251.55 240.91 16.64 o
0 2 2 0 38021.50 34963.60 110.15 o
2 2 2 -1 62.47 88.76 12.68 o
2 2 2 0 4739.84 4876.95 24.57 o
4 2 2 -1 81.56 109.36 10.30 o
4 2 2 0 14864.50 16325.20 32.49 o
6 2 2 -1 13.18 23.77 12.68 <
6 2 2 0 1884.86 1810.03 16.64 o
8 2 2 -1 8.74 34.87 15.06 <
8 2 2 0 2404.45 2341.00 22.19 o
-7 3 2 -1 22.62 23.77 15.85 <
-5 3 2 -1 436.26 592.78 14.26 o
-3 3 2 -1 14.04 12.68 11.09 <
-1 3 2 -1 1465.82 1426.47 19.02 o
1 3 2 -1 1.56 49.13 14.26 o
1 3 2 0 58928.90 53050.50 86.38 o
3 3 2 -1 1021.37 786.94 14.26 o
3 3 2 0 40654.80 41057.80 55.47 o
5 3 2 -1 7.82 91.14 11.89 o
5 3 2 0 22084.90 23497.20 38.04 o
7 3 2 -1 195.26 148.99 15.06 o
7 3 2 0 10174.60 10435.40 31.70 o
-6 4 2 -1 117.50 122.04 15.85 o
-4 4 2 -1 133.82 147.40 12.68 o
-2 4 2 -1 379.35 374.85 13.47 o
0 4 2 -1 204.07 233.78 14.26 o
0 4 2 0 3703.67 3701.70 34.08 o
2 4 2 -1 330.22 366.13 14.26 o
2 4 2 0 13586.40 15894.90 39.62 o
4 4 2 -1 84.53 121.25 12.68 o
4 4 2 0 2323.40 2223.71 17.43 o
6 4 2 -1 67.02 104.61 14.26 o
6 4 2 0 3756.63 4533.01 22.98 o
-5 5 2 -1 130.78 88.76 15.06 o
-3 5 2 -1 821.42 972.38 16.64 o
-1 5 2 -1 184.77 183.86 15.06 o
1 5 2 -1 1166.16 1154.65 18.23 o
1 5 2 0 27220.10 29628.60 52.30 o
3 5 2 -1 137.51 249.63 14.26 o
3 5 2 0 20359.50 22795.00 42.79 o
5 5 2 -1 473.47 426.36 15.06 o
5 5 2 0 11996.70 13324.00 34.08 o
7 5 2 -1 56.43 106.99 19.02 o
-4 6 2 -1 225.00 225.86 15.85 o
-2 6 2 -1 204.90 194.95 17.43 o
0 6 2 -1 351.33 384.36 18.23 o
0 6 2 0 5888.03 8562.00 47.55 o
2 6 2 -1 163.82 172.76 15.85 o
2 6 2 0 1776.81 1607.16 20.60 o
4 6 2 -1 154.33 200.50 15.85 o
4 6 2 0 3274.05 4418.10 26.15 o
6 6 2 -1 41.58 68.15 17.43 o
6 6 2 0 743.76 461.23 19.81 o
-3 7 2 -1 249.09 154.53 18.23 o
-1 7 2 -1 721.77 787.73 19.81 o
1 7 2 -1 277.96 272.61 19.81 o
1 7 2 0 10575.30 11728.80 42.79 o
3 7 2 -1 554.38 591.19 22.19 o
3 7 2 0 8277.81 9516.95 38.83 o
5 7 2 -1 145.03 169.59 19.02 o
-2 8 2 -1 190.95 126.80 21.40 o
0 8 2 -1 142.21 106.19 22.98 o
0 8 2 0 831.45 586.44 35.66 o
2 8 2 -1 155.95 139.48 21.40 o
2 8 2 0 1604.46 1722.07 29.32 o
0 0 3 0 213.93 233.78 28.53 o
2 0 3 0 43.03 47.55 16.64 <
4 0 3 0 204.07 248.84 15.06 o
6 0 3 0 13.11 10.30 17.43 <
8 0 3 0 130.42 138.68 23.77 o
-7 1 3 -1 0.07 33.28 15.85 <
-5 1 3 -1 320.74 447.75 11.89 o
-3 1 3 -1 50.50 68.95 9.51 o
-1 1 3 -1 1443.36 1275.90 19.81 o
1 1 3 -1 188.09 38.83 15.06 <
1 1 3 0 4450.96 4574.22 29.32 o
3 1 3 -1 899.72 547.61 12.68 o
3 1 3 0 2878.26 3024.91 16.64 o
5 1 3 -1 30.14 15.06 10.30 <
5 1 3 0 1515.64 1568.33 14.26 o
7 1 3 -1 119.70 67.36 14.26 o
7 1 3 0 701.72 741.77 16.64 o
-6 2 3 -1 2.68 7.13 12.68 <
-4 2 3 -1 21.80 29.32 11.09 <
-2 2 3 -1 3.15 11.09 11.09 <
0 2 3 -1 59.52 55.47 15.06 o
0 2 3 0 53.91 68.15 22.98 <
2 2 3 -1 4.31 16.64 14.26 <
2 2 3 0 223.70 280.54 13.47 o
4 2 3 -1 27.56 32.49 10.30 o
4 2 3 0 2.57 30.11 10.30 <
6 2 3 -1 4.27 12.68 11.89 <
6 2 3 0 180.73 197.33 12.68 o
8 2 3 -1 6.20 26.94 15.85 <
8 2 3 0 38.48 34.08 19.02 <
-7 3 3 -1 329.06 423.19 17.43 o
-5 3 3 -1 136.06 86.38 13.47 o
-3 3 3 -1 1522.60 1726.03 16.64 o
-1 3 3 -1 163.71 202.08 13.47 o
1 3 3 -1 2357.77 2051.74 22.98 o
1 3 3 0 2775.89 2913.17 21.40 o
3 3 3 -1 94.07 286.88 12.68 o
3 3 3 0 1967.42 2111.97 16.64 o
5 3 3 -1 714.81 640.33 14.26 o
5 3 3 0 1115.67 1195.86 15.06 o
7 3 3 -1 34.63 155.33 15.85 o
7 3 3 0 534.98 557.91 17.43 o
-6 4 3 -1 27.79 35.66 15.85 <
-4 4 3 -1 13.31 18.23 12.68 <
-2 4 3 -1 83.02 90.34 13.47 o
0 4 3 -1 17.60 26.15 14.26 <
0 4 3 0 216.42 243.29 24.57 o
2 4 3 -1 93.60 110.15 13.47 o
2 4 3 0 7.28 30.91 13.47 <
4 4 3 -1 18.55 30.11 14.26 <
4 4 3 0 191.57 225.07 14.26 o
6 4 3 -1 34.70 43.59 14.26 o
6 4 3 0 21.99 27.74 15.06 <
-5 5 3 -1 887.48 1028.64 18.23 o
-3 5 3 -1 560.91 469.94 15.85 o
-1 5 3 -1 2065.98 2220.54 20.60 o
1 5 3 -1 591.61 689.46 19.02 o
1 5 3 0 1358.19 1589.72 22.19 o
3 5 3 -1 1416.93 1432.02 19.81 o
3 5 3 0 1036.39 1140.39 19.81 o
5 5 3 -1 245.28 429.53 15.85 o
5 5 3 0 627.72 665.69 17.43 o
7 5 3 -1 323.42 301.94 19.02 o
-4 6 3 -1 56.51 78.46 16.64 o
-2 6 3 -1 31.24 38.04 16.64 <
0 6 3 -1 96.74 114.91 17.43 o
0 6 3 0 1.83 11.09 26.15 <
2 6 3 -1 36.04 48.34 17.43 <
2 6 3 0 167.75 192.57 19.02 o
4 6 3 -1 66.05 77.66 16.64 o
4 6 3 0 13.55 20.60 19.02 <
6 6 3 -1 21.48 31.70 18.23 <
-3 7 3 -1 1082.27 1111.06 26.94 o
-1 7 3 -1 730.80 570.59 20.60 o
1 7 3 -1 1299.09 1272.73 22.98 o
1 7 3 0 561.53 590.40 22.98 o
3 7 3 -1 497.50 534.14 23.77 o
3 7 3 0 444.22 514.32 22.98 o
5 7 3 -1 550.21 399.41 23.77 o
-2 8 3 -1 58.49 47.55 27.74 <
0 8 3 -1 38.13 42.00 23.77 <
0 8 3 0 100.87 91.93 36.45 <
2 8 3 -1 62.86 60.23 26.15 <
2 8 3 0 14.02 19.81 24.57 <
0 0 4 0 18754.20 18853.20 91.93 o
2 0 4 0 50362.20 50745.20 102.23 o
4 0 4 0 10292.30 11224.80 37.25 o
6 0 4 0 12498.70 14086.40 43.59 o
8 0 4 0 2690.92 2138.12 30.91 o
-7 1 4 -1 3.64 38.83 15.06 <
-5 1 4 -1 179.42 279.75 13.47 o
-3 1 4 -1 88.18 113.32 11.89 o
-1 1 4 -1 816.32 683.91 16.64 o
1 1 4 -1 249.99 77.66 15.06 o
1 1 4 0 46470.10 45252.50 77.66 o
3 1 4 -1 538.40 257.56 11.89 o
3 1 4 0 30964.60 32204.20 45.96 o
5 1 4 -1 56.33 3.96 11.89 <
5 1 4 0 16198.50 17118.50 31.70 o
7 1 4 -1 71.74 29.32 13.47 <
7 1 4 0 7205.03 7508.00 26.15 o
-6 2 4 -1 8.53 17.43 14.26 <
-4 2 4 -1 38.49 34.87 11.89 <
-2 2 4 -1 16.11 26.94 11.89 <
0 2 4 -1 91.42 82.42 19.02 o
0 2 4 0 48946.80 45834.10 110.95 o
2 2 4 -1 19.36 28.53 14.26 <
2 2 4 0 13365.30 14090.40 47.55 o
4 2 4 -1 46.65 53.10 11.09 o
4 2 4 0 22473.80 25152.70 40.42 o
6 2 4 -1 11.59 19.81 12.68 <
6 2 4 0 5053.27 5235.95 24.57 o
8 2 4 -1 11.31 23.77 18.23 <
8 2 4 0 4398.70 3227.79 41.21 o
-7 3 4 -1 136.01 213.18 16.64 o
-5 3 4 -1 15.84 14.26 13.47 <
-3 3 4 -1 686.24 820.22 15.06 o
-1 3 4 -1 2.19 11.89 12.68 <
1 3 4 -1 1086.89 881.24 17.43 o
1 3 4 0 29733.80 30071.60 57.06 o
3 3 4 -1 0.04 42.00 12.68 o
3 3 4 0 21157.60 22810.10 45.96 o
5 3 4 -1 324.18 229.03 13.47 o
5 3 4 0 11690.20 13279.70 31.70 o
7 3 4 -1 0.83 46.76 15.85 <
7 3 4 0 5428.17 5637.73 30.91 o
-6 4 4 -1 53.35 64.19 16.64 o
-4 4 4 -1 42.15 46.76 14.26 o
-2 4 4 -1 148.29 156.12 14.26 o
0 4 4 -1 63.40 75.29 16.64 o
0 4 4 0 9928.38 10093.10 77.66 o
2 4 4 -1 163.54 168.01 15.06 o
2 4 4 0 20743.70 24494.10 46.76 o
4 4 4 -1 52.44 64.19 14.26 o
4 4 4 0 6117.89 6400.10 29.32 o
6 4 4 -1 63.77 78.46 15.06 o
6 4 4 0 6624.07 7612.61 30.11 o
-5 5 4 -1 339.55 424.77 18.23 o
-3 5 4 -1 113.12 79.25 16.64 o
-1 5 4 -1 828.49 886.79 19.02 o
1 5 4 -1 96.50 139.48 19.02 o
1 5 4 0 14320.30 16321.20 44.38 o
3 5 4 -1 561.48 516.70 16.64 o
3 5 4 0 10764.20 12178.10 35.66 o
5 5 4 -1 36.86 118.08 16.64 o
5 5 4 0 6385.01 6991.30 34.08 o
7 5 4 -1 118.07 87.17 20.60 o
-4 6 4 -1 110.45 119.67 19.02 o
-2 6 4 -1 86.10 98.27 19.02 o
0 6 4 -1 183.56 197.33 20.60 o
0 6 4 0 9920.36 13298.70 79.25 o
2 6 4 -1 94.92 103.82 19.02 o
2 6 4 0 4544.21 4743.81 29.32 o
4 6 4 -1 125.05 160.87 18.23 o
4 6 4 0 5844.81 6240.02 33.28 o
6 6 4 -1 50.20 45.17 20.60 <
-3 7 4 -1 385.71 463.60 22.98 o
-1 7 4 -1 171.50 126.80 20.60 o
1 7 4 -1 464.80 471.53 24.57 o
1 7 4 0 5607.91 6520.56 40.42 o
3 7 4 -1 106.60 141.06 22.19 o
3 7 4 0 4399.55 4544.90 35.66 o
-2 8 4 -1 117.25 106.99 39.62 <
0 8 4 -1 92.17 69.74 29.32 <
0 8 4 0 2105.11 1528.70 60.23 o
2 8 4 -1 123.95 102.23 26.15 o
2 8 4 0 3037.45 221.90 67.36 o
0 0 5 0 9385.48 9619.97 63.40 o
2 0 5 0 4450.19 4491.01 34.87 o
4 0 5 0 4440.69 4789.78 27.74 o
6 0 5 0 1267.51 1251.33 22.98 o
8 0 5 0 783.32 528.59 37.25 o
-7 1 5 -1 65.29 118.08 16.64 o
-5 1 5 -1 22.03 57.06 12.68 o
-3 1 5 -1 428.35 464.40 11.89 o
-1 1 5 -1 183.75 122.83 14.26 o
1 1 5 -1 798.23 523.83 15.06 o
1 1 5 0 1250.62 1369.41 18.23 o
3 1 5 -1 122.19 19.02 11.09 <
3 1 5 0 981.92 1020.72 14.26 o
5 1 5 -1 217.66 96.68 11.89 o
5 1 5 0 711.84 687.88 13.47 o
7 1 5 -1 9.77 15.85 14.26 <
7 1 5 0 447.63 419.22 15.85 o
-6 2 5 -1 80.44 82.42 15.06 o
-4 2 5 -1 210.76 198.12 13.47 o
-2 2 5 -1 222.26 236.95 13.47 o
0 2 5 -1 403.90 381.98 16.64 o
0 2 5 0 4317.49 4532.22 38.04 o
2 2 5 -1 197.73 224.27 15.85 o
2 2 5 0 6282.25 6669.55 30.11 o
4 2 5 -1 171.82 214.76 15.06 o
4 2 5 0 2180.08 2249.86 17.43 o
6 2 5 -1 53.07 89.55 12.68 o
6 2 5 0 1733.95 2047.78 18.23 o
8 2 5 -1 27.85 54.68 18.23 o
-7 3 5 -1 17.11 33.28 19.02 <
-5 3 5 -1 346.56 466.77 15.06 o
-3 3 5 -1 12.02 4.75 13.47 <
-1 3 5 -1 1024.87 980.30 15.85 o
1 3 5 -1 1.97 24.57 13.47 <
1 3 5 0 933.91 1010.42 15.85 o
3 3 5 -1 723.23 581.68 15.85 o
3 3 5 0 788.44 833.69 22.19 o
5 3 5 -1 6.39 70.53 13.47 o
5 3 5 0 580.90 598.33 15.85 o
7 3 5 -1 148.88 134.72 17.43 o
7 3 5 0 364.27 316.99 19.02 o
-6 4 5 -1 279.21 263.90 17.43 o
-4 4 5 -1 389.34 383.56 18.23 o
-2 4 5 -1 768.48 763.96 15.85 o
0 4 5 -1 608.74 592.78 21.40 o
0 4 5 0 4292.20 4515.58 37.25 o
2 4 5 -1 693.31 754.45 15.85 o
2 4 5 0 2016.04 2155.56 20.60 o
4 4 5 -1 298.13 389.90 15.06 o
4 4 5 0 2259.23 2399.64 20.60 o
6 4 5 -1 190.26 258.35 16.64 o
6 4 5 0 698.30 616.55 20.60 o
-5 5 5 -1 103.05 55.47 19.02 <
-3 5 5 -1 642.56 793.28 19.02 o
-1 5 5 -1 145.51 145.02 17.43 o
1 5 5 -1 872.96 877.28 23.77 o
1 5 5 0 613.66 664.10 21.40 o
3 5 5 -1 106.35 188.61 16.64 o
3 5 5 0 526.66 572.97 18.23 o
5 5 5 -1 361.31 341.56 18.23 o
5 5 5 0 387.50 385.15 19.02 o
-4 6 5 -1 555.52 500.06 24.57 o
-2 6 5 -1 619.69 607.84 20.60 o
0 6 5 -1 836.99 847.17 31.70 o
0 6 5 0 1022.42 1166.54 34.87 o
2 6 5 -1 541.89 561.08 22.19 o
2 6 5 0 1587.06 1894.83 23.77 o
4 6 5 -1 430.11 526.21 22.19 o
4 6 5 0 623.96 572.17 21.40 o
-3 7 5 -1 197.14 126.00 22.98 o
-1 7 5 -1 568.36 598.33 25.36 o
1 7 5 -1 216.01 165.63 26.15 o
1 7 5 0 333.96 339.98 30.91 o
3 7 5 -1 430.64 434.28 23.77 o
3 7 5 0 285.12 282.12 23.77 o
0 8 5 -1 475.06 356.62 32.49 o
0 8 5 0 644.02 559.49 43.59 o
0 0 6 0 66841.60 64318.00 212.39 o
2 0 6 0 26232.80 26746.40 63.40 o
4 0 6 0 32751.00 36003.40 64.98 o
6 0 6 0 9237.66 9374.30 40.42 o
-7 1 6 -1 15.19 50.72 16.64 o
-5 1 6 -1 58.98 104.61 13.47 o
-3 1 6 -1 142.62 164.04 12.68 o
-1 1 6 -1 277.28 214.76 14.26 o
1 1 6 -1 285.11 141.06 14.26 o
1 1 6 0 3390.78 4083.67 22.19 o
3 1 6 -1 212.49 74.49 11.09 o
3 1 6 0 2513.64 2977.36 19.81 o
5 1 6 -1 72.07 15.85 11.89 <
5 1 6 0 1516.69 1745.05 16.64 o
7 1 6 -1 35.92 22.98 15.06 <
7 1 6 0 775.05 781.39 19.02 o
-6 2 6 -1 35.63 54.68 15.85 o
-4 2 6 -1 38.96 45.96 12.68 o
-2 2 6 -1 110.05 96.68 13.47 o
0 2 6 -1 61.23 71.32 14.26 o
0 2 6 0 25911.10 26473.70 74.49 o
2 2 6 -1 105.19 106.99 13.47 o
2 2 6 0 44619.20 47250.30 67.36 o
4 2 6 -1 32.24 39.62 14.26 <
4 2 6 0 14928.50 15639.70 34.87 o
6 2 6 -1 27.98 43.59 14.26 o
6 2 6 0 13503.60 15066.70 36.45 o
-5 3 6 -1 27.40 67.36 15.06 o
-3 3 6 -1 101.28 139.48 15.85 o
-1 3 6 -1 131.10 119.67 13.47 o
1 3 6 -1 202.18 121.25 14.26 o
1 3 6 0 2415.89 2937.74 22.19 o
3 3 6 -1 79.40 34.08 14.26 <
3 3 6 0 1860.98 2307.72 19.81 o
5 3 6 -1 85.33 27.74 13.47 <
5 3 6 0 1153.44 1363.87 18.23 o
7 3 6 -1 5.89 21.40 17.43 <
7 3 6 0 606.55 574.55 20.60 o
-6 4 6 -1 62.54 74.49 19.02 o
-4 4 6 -1 169.28 147.40 17.43 o
-2 4 6 -1 149.32 156.12 14.26 o
0 4 6 -1 285.91 264.69 24.57 o
0 4 6 0 29604.40 31846.80 82.42 o
2 4 6 -1 136.15 150.57 15.06 o
2 4 6 0 14283.10 14752.10 38.83 o
4 4 6 -1 145.37 190.20 18.23 o
4 4 6 0 16418.20 18619.40 41.21 o
6 4 6 -1 46.36 72.12 19.81 o
6 4 6 0 5488.21 5121.04 32.49 o
-5 5 6 -1 27.61 55.47 21.40 <
-3 5 6 -1 18.60 52.30 19.02 <
-1 5 6 -1 85.52 101.44 17.43 o
1 5 6 -1 29.19 26.94 22.98 <
1 5 6 0 1345.26 1619.84 25.36 o
3 5 6 -1 86.79 67.36 19.81 o
3 5 6 0 1064.86 1348.81 21.40 o
5 5 6 -1 3.06 23.77 19.81 <
5 5 6 0 690.03 713.24 22.19 o
-4 6 6 -1 131.91 90.34 20.60 o
-2 6 6 -1 257.32 242.50 21.40 o
0 6 6 -1 192.19 210.01 22.19 o
0 6 6 0 7987.51 8943.19 56.27 o
2 6 6 -1 237.10 245.67 21.40 o
2 6 6 0 11101.70 12908.00 45.96 o
4 6 6 -1 108.40 118.87 19.81 o
4 6 6 0 5036.93 4804.83 35.66 o
-3 7 6 -1 27.74 61.02 25.36 <
-1 7 6 -1 1.67 40.42 26.94 <
1 7 6 -1 48.41 72.12 24.57 <
1 7 6 0 608.60 665.69 27.74 o
3 7 6 -1 0.08 23.77 26.15 <
3 7 6 0 495.10 373.26 25.36 o
0 0 7 0 3738.41 4036.12 42.79 o
2 0 7 0 5760.38 6320.86 36.45 o
4 0 7 0 2349.58 2297.41 25.36 o
6 0 7 0 2118.68 2321.98 28.53 o
-7 1 7 -1 43.46 74.49 18.23 o
-5 1 7 -1 18.05 48.34 15.06 o
-3 1 7 -1 255.79 287.67 15.06 o
-1 1 7 -1 112.91 82.42 14.26 o
1 1 7 -1 430.27 284.50 13.47 o
1 1 7 0 4170.63 4364.21 22.98 o
3 1 7 -1 82.99 23.77 12.68 <
3 1 7 0 2920.68 3129.52 22.19 o
5 1 7 -1 126.79 52.30 13.47 o
5 1 7 0 1533.79 1697.50 18.23 o
7 1 7 -1 10.65 20.60 16.64 <
7 1 7 0 658.47 535.72 20.60 o
-6 2 7 -1 99.48 111.74 16.64 o
-4 2 7 -1 139.67 152.16 14.26 o
-2 2 7 -1 275.43 289.26 16.64 o
0 2 7 -1 223.55 235.37 15.06 o
0 2 7 0 5689.93 6132.25 38.04 o
2 2 7 -1 258.58 287.67 15.06 o
2 2 7 0 2837.03 2935.36 21.40 o
4 2 7 -1 117.16 157.70 15.06 o
4 2 7 0 3355.67 3727.85 21.40 o
6 2 7 -1 76.57 103.02 15.85 o
6 2 7 0 1258.52 1183.97 19.02 o
-5 3 7 -1 209.21 247.26 16.64 o
-3 3 7 -1 2.91 3.17 19.02 <
-1 3 7 -1 572.45 508.77 15.85 o
1 3 7 -1 0.09 11.09 15.85 <
1 3 7 0 2834.87 3049.48 22.98 o
3 3 7 -1 386.78 277.37 14.26 o
3 3 7 0 2037.94 2219.75 20.60 o
5 3 7 -1 0.04 26.15 15.06 <
5 3 7 0 1107.27 1122.95 19.02 o
7 3 7 -1 73.96 47.55 18.23 <
-6 4 7 -1 221.58 168.01 20.60 o
-4 4 7 -1 470.06 458.06 19.81 o
-2 4 7 -1 528.25 523.04 15.85 o
0 4 7 -1 750.31 743.35 17.43 o
0 4 7 0 2099.10 2255.41 28.53 o
2 4 7 -1 484.26 517.49 15.85 o
2 4 7 0 3210.97 3601.05 24.57 o
4 4 7 -1 397.60 488.96 18.23 o
4 4 7 0 1409.12 1336.92 22.19 o
6 4 7 -1 165.54 202.08 22.19 o
6 4 7 0 1278.46 1138.80 28.53 o
-5 5 7 -1 46.80 33.28 21.40 <
-3 5 7 -1 366.20 400.20 18.23 o
-1 5 7 -1 59.32 43.59 19.81 <
1 5 7 -1 467.24 428.73 18.23 o
1 5 7 0 1403.41 1423.30 31.70 o
3 5 7 -1 33.21 57.85 16.64 o
3 5 7 0 1044.22 1216.46 20.60 o
5 5 7 -1 175.25 126.00 22.98 o
5 5 7 0 608.50 558.70 23.77 o
-4 6 7 -1 461.13 226.65 22.98 o
-2 6 7 -1 739.10 679.16 22.19 o
0 6 7 -1 669.02 654.59 22.98 o
0 6 7 0 1833.69 2059.67 40.42 o
2 6 7 -1 677.10 681.54 26.15 o
2 6 7 0 1023.61 960.49 26.94 o
4 6 7 -1 380.37 375.64 23.77 o
4 6 7 0 1174.26 1124.54 26.15 o
-1 7 7 -1 302.52 298.77 26.94 o
1 7 7 -1 86.93 102.23 26.94 o
1 7 7 0 552.67 611.80 27.74 o
3 7 7 -1 209.09 142.65 25.36 o
0 0 8 0 11.10 87.97 25.36 o
2 0 8 0 2268.87 2738.83 29.32 o
4 0 8 0 1.28 38.83 20.60 <
6 0 8 0 512.47 627.65 26.15 o
-5 1 8 -1 15.89 51.51 15.85 o
-3 1 8 -1 130.75 152.16 15.06 o
-1 1 8 -1 84.73 70.53 15.85 o
1 1 8 -1 230.76 141.85 13.47 o
1 1 8 0 22962.20 25025.90 45.17 o
3 1 8 -1 64.05 11.09 14.26 <
3 1 8 0 17257.20 19129.80 42.79 o
5 1 8 -1 81.54 34.87 15.06 <
5 1 8 0 10231.50 11468.80 33.28 o
7 1 8 -1 8.80 26.15 19.02 <
-6 2 8 -1 0.23 22.19 17.43 <
-4 2 8 -1 4.59 16.64 15.85 <
-2 2 8 -1 0.52 4.75 15.85 <
0 2 8 -1 8.25 13.47 15.85 <
0 2 8 0 2181.45 2599.35 29.32 o
2 2 8 -1 0.04 3.17 15.06 <
2 2 8 0 2.37 106.19 15.85 o
4 2 8 -1 1.79 6.34 15.06 <
4 2 8 0 986.84 1219.63 20.60 o
6 2 8 -1 0.15 21.40 17.43 <
6 2 8 0 0.01 51.51 18.23 <
-5 3 8 -1 93.72 119.67 17.43 o
-3 3 8 -1 0.99 19.81 17.43 <
-1 3 8 -1 262.99 250.43 16.64 o
1 3 8 -1 6.80 6.34 15.85 <
1 3 8 0 16553.20 18484.70 45.96 o
3 3 8 -1 206.61 128.38 15.85 o
3 3 8 0 12655.00 14728.30 38.83 o
5 3 8 -1 0.59 19.02 16.64 <
5 3 8 0 7707.81 7490.56 34.87 o
-4 4 8 -1 1.02 32.49 19.81 <
-2 4 8 -1 13.75 19.81 16.64 <
0 4 8 -1 0.71 10.30 17.43 <
0 4 8 0 0.02 18.23 24.57 <
2 4 8 -1 8.50 14.26 15.85 <
2 4 8 0 879.28 1184.76 20.60 o
4 4 8 -1 0.08 19.02 17.43 <
4 4 8 0 0.16 34.08 17.43 <
6 4 8 -1 0.42 23.77 19.02 <
-3 5 8 -1 160.47 214.76 19.02 o
-1 5 8 -1 10.08 17.43 21.40 <
1 5 8 -1 225.41 205.25 19.81 o
1 5 8 0 9018.55 10116.10 40.42 o
3 5 8 -1 8.20 43.59 19.02 <
3 5 8 0 7082.12 6918.39 38.04 o
5 5 8 -1 105.80 68.15 21.40 o
-2 6 8 -1 0.98 23.77 22.19 <
0 6 8 -1 8.48 38.04 20.60 <
0 6 8 0 363.51 562.66 34.08 o
2 6 8 -1 0.03 22.98 26.94 <
2 6 8 0 1.05 50.72 26.15 <
4 6 8 -1 1.41 34.87 22.19 <
1 7 8 -1 30.39 33.28 26.94 <
0 0 9 0 479.52 482.62 29.32 o
2 0 9 0 1235.06 1328.20 26.15 o
4 0 9 0 239.03 243.29 23.77 o
6 0 9 0 308.94 370.09 30.11 o
-5 1 9 -1 130.47 179.10 17.43 o
-3 1 9 -1 3.36 17.43 16.64 <
-1 1 9 -1 360.50 333.64 15.85 o
1 1 9 -1 14.71 7.92 14.26 <
1 1 9 0 7094.70 7561.09 26.94 o
3 1 9 -1 255.65 173.55 15.06 o
3 1 9 0 5478.36 5848.54 28.53 o
5 1 9 -1 3.00 17.43 15.85 <
5 1 9 0 3381.28 3347.45 24.57 o
-6 2 9 -1 1.14 34.08 42.00 <
-4 2 9 -1 0.10 17.43 16.64 <
-2 2 9 -1 3.45 5.55 17.43 <
0 2 9 -1 0.05 4.75 15.85 <
0 2 9 0 1231.13 1340.88 26.15 o
2 2 9 -1 2.85 7.13 15.06 <
2 2 9 0 326.60 316.20 16.64 o
4 2 9 -1 0.00 13.47 17.43 <
4 2 9 0 597.13 711.65 18.23 o
6 2 9 -1 0.52 22.98 17.43 <
6 2 9 0 95.53 87.17 34.87 <
-5 3 9 -1 95.73 52.30 19.81 <
-3 3 9 -1 632.03 691.84 20.60 o
-1 3 9 -1 132.37 136.31 16.64 o
1 3 9 -1 822.98 721.95 22.98 o
1 3 9 0 5277.64 5716.19 30.11 o
3 3 9 -1 86.74 160.08 17.43 o
3 3 9 0 4122.23 4658.22 28.53 o
5 3 9 -1 325.88 237.74 21.40 o
5 3 9 0 2601.31 2153.18 30.11 o
-4 4 9 -1 5.01 36.45 23.77 <
-2 4 9 -1 0.42 17.43 18.23 <
0 4 9 -1 7.75 13.47 19.02 <
0 4 9 0 218.35 221.90 25.36 o
2 4 9 -1 0.14 12.68 17.43 <
2 4 9 0 590.18 714.82 20.60 o
4 4 9 -1 3.03 24.57 19.02 <
4 4 9 0 119.29 89.55 19.81 o
-3 5 9 -1 348.83 231.40 21.40 o
-1 5 9 -1 966.01 847.17 30.11 o
1 5 9 -1 368.73 390.70 21.40 o
1 5 9 0 3020.39 3027.29 27.74 o
3 5 9 -1 691.59 584.06 24.57 o
3 5 9 0 2411.44 1990.72 30.11 o
-2 6 9 -1 6.44 35.66 25.36 <
0 6 9 -1 0.64 28.53 22.98 <
0 6 9 0 297.94 334.43 34.08 o
2 6 9 -1 4.89 41.21 22.19 <
2 6 9 0 82.19 83.21 34.08 <
0 0 10 0 4998.44 5331.84 49.93 o
2 0 10 0 10179.40 12462.60 60.23 o
4 0 10 0 3274.83 3081.97 37.25 o
-5 1 10 -1 24.87 42.00 19.02 <
-3 1 10 -1 34.04 53.10 18.23 <
-1 1 10 -1 84.17 84.80 16.64 o
1 1 10 -1 63.79 46.76 14.26 o
1 1 10 0 3213.27 3447.31 25.36 o
3 1 10 -1 63.89 31.70 15.85 <
3 1 10 0 2420.85 2435.30 24.57 o
5 1 10 -1 25.41 33.28 17.43 <
5 1 10 0 1433.53 1386.06 22.19 o
-4 2 10 -1 4.30 19.81 18.23 <
-2 2 10 -1 1.45 13.47 16.64 <
0 2 10 -1 7.74 15.06 15.85 <
0 2 10 0 9913.57 11953.00 49.93 o
2 2 10 -1 2.11 14.26 16.64 <
2 2 10 0 3982.80 4233.45 26.15 o
4 2 10 -1 6.04 23.77 19.02 <
4 2 10 0 5915.89 6363.65 33.28 o
6 2 10 -1 1.76 14.26 48.34 <
-3 3 10 -1 51.33 72.12 19.02 o
-1 3 10 -1 21.64 26.94 17.43 <
1 3 10 -1 76.51 58.64 19.81 <
1 3 10 0 2317.28 2554.18 24.57 o
3 3 10 -1 21.75 31.70 19.02 <
3 3 10 0 1774.56 1921.78 24.57 o
5 3 10 -1 26.32 31.70 19.81 <
-4 4 10 -1 4.10 19.81 24.57 <
-2 4 10 -1 17.01 38.83 19.81 <
0 4 10 -1 6.79 30.91 21.40 <
0 4 10 0 3089.29 3176.28 42.00 o
2 4 10 -1 20.29 30.91 19.02 <
2 4 10 0 5473.82 7034.89 36.45 o
4 4 10 -1 7.19 41.21 20.60 <
-3 5 10 -1 1.94 23.77 38.04 <
-1 5 10 -1 44.40 63.40 22.98 <
1 5 10 -1 6.22 23.77 21.40 <
1 5 10 0 1254.55 1286.99 27.74 o
3 5 10 -1 29.61 31.70 26.94 <
0 6 10 -1 24.86 52.30 53.10 <
0 0 11 0 7319.63 7725.93 57.85 o
2 0 11 0 4679.72 4682.79 49.13 o
4 0 11 0 4415.57 3616.11 40.42 o
-3 1 11 -1 68.29 84.00 17.43 o
-1 1 11 -1 33.04 44.38 16.64 <
1 1 11 -1 101.35 76.08 16.64 o
1 1 11 0 54.32 87.97 18.23 o
3 1 11 -1 25.25 27.74 16.64 <
3 1 11 0 51.46 76.87 19.81 o
5 1 11 -1 39.18 34.87 19.02 <
-4 2 11 -1 82.81 71.32 20.60 o
-2 2 11 -1 93.63 99.06 19.02 o
0 2 11 -1 122.71 121.25 16.64 o
0 2 11 0 4584.87 4666.15 38.04 o
2 2 11 -1 83.62 90.34 16.64 o
2 2 11 0 5567.80 5474.48 31.70 o
4 2 11 -1 66.38 59.44 20.60 <
4 2 11 0 2907.34 1881.36 28.53 o
-3 3 11 -1 0.04 20.60 19.02 <
-1 3 11 -1 138.47 143.44 19.81 o
1 3 11 -1 1.12 17.43 20.60 <
1 3 11 0 47.70 75.29 19.81 o
3 3 11 -1 103.31 97.48 19.02 o
3 3 11 0 44.69 63.40 21.40 <
-2 4 11 -1 302.66 263.90 25.36 o
0 4 11 -1 273.53 288.46 22.19 o
0 4 11 0 4145.09 4293.68 49.13 o
2 4 11 -1 270.99 225.07 22.19 o
2 4 11 0 2736.82 2425.80 30.91 o
-1 5 11 -1 8.51 33.28 27.74 <
1 5 11 -1 124.91 108.57 22.98 o
0 0 12 0 4845.69 5205.83 57.06 o
2 0 12 0 1801.28 1598.44 38.04 o
-3 1 12 -1 19.66 38.83 19.81 <
-1 1 12 -1 36.89 42.79 17.43 <
1 1 12 -1 31.94 34.08 17.43 <
1 1 12 0 1221.94 1298.88 22.19 o
3 1 12 -1 32.24 26.94 19.02 <
3 1 12 0 994.19 836.86 22.19 o
-2 2 12 -1 0.70 25.36 19.02 <
0 2 12 -1 0.00 19.02 17.43 <
0 2 12 0 1775.08 1546.93 32.49 o
2 2 12 -1 0.61 22.98 17.43 <
2 2 12 0 3631.54 3523.39 30.11 o
4 2 12 -1 0.00 22.98 29.32 <
-1 3 12 -1 14.81 32.49 20.60 <
1 3 12 -1 35.57 43.59 22.98 <
1 3 12 0 951.94 913.73 26.15 o
3 3 12 -1 9.47 25.36 25.36 <
0 4 12 -1 1.61 22.98 22.98 <
0 0 13 0 716.48 552.36 42.00 o
-1 1 13 -1 6.02 19.81 19.02 <
1 1 13 -1 71.09 45.96 20.60 <
1 1 13 0 2884.35 1395.57 57.85 o
0 2 13 -1 30.15 37.25 19.02 <
2 2 13 -1 31.69 38.04 20.60 <
loop_
_jana_atom_site_u_legendre_atom_site_label
_jana_atom_site_u_legendre_tens_elem
_jana_atom_site_u_legendre_param_order
_jana_atom_site_u_legendre_param_coeff
Mn1 U11 1 0
Mn1 U22 1 0
Mn1 U33 1 0
Mn1 U12 1 0
Mn1 U13 1 0
Mn1 U23 1 0.000375
Mn1 U11 2 0.000139
Mn1 U22 2 0.000139
Mn1 U33 2 0.000323
Mn1 U12 2 0
Mn1 U13 2 0
Mn1 U23 2 0
