#------------------------------------------------------------------------------
#$Date: 2019-11-03 16:11:58 +0200 (Sun, 03 Nov 2019) $
#$Revision: 221832 $
#$URL: file:///home/coder/svn-repositories/cod/cif/4/12/87/4128767.cif $
#------------------------------------------------------------------------------
#
# This file is available in the Crystallography Open Database (COD),
# http://www.crystallography.net/
#
# All data on this site have been placed in the public domain by the
# contributors.
#
data_4128767
loop_
_publ_author_name
'Ke, Weijun'
'Spanopoulos, Ioannis'
'Tu, Qing'
'Hadar, Ido'
'Li, Xiaotong'
'Shekhawat, Gajendra S.'
'Dravid, Vinayak P.'
'Kanatzidis, Mercouri G.'
_publ_section_title
;
 Ethylenediammonium-Based &quot;Hollow&quot; Pb/Sn Perovskites with Ideal
 Band Gap Yield Solar Cells with Higher Efficiency and Stability.
;
_journal_issue                   21
_journal_name_full               'Journal of the American Chemical Society'
_journal_page_first              8627
_journal_page_last               8637
_journal_paper_doi               10.1021/jacs.9b03662
_journal_volume                  141
_journal_year                    2019
_chemical_formula_moiety         (FA)0.5(MA)0.5(Pb)0.5(Sn)0.5(I)3
_chemical_formula_sum            'C I3 N2.857 Pb0.48 Sn0.521'
_chemical_formula_weight         594
_chemical_name_common            'formamidinium methylamonium lead tin iodide'
_space_group_IT_number           221
_space_group_name_Hall           '-P 4 2 3'
_space_group_name_H-M_alt        'P m -3 m'
_symmetry_cell_setting           cubic
_symmetry_Int_Tables_number      221
_symmetry_space_group_name_Hall  '-P 4 2 3'
_symmetry_space_group_name_H-M   'P m -3 m'
_cell_angle_alpha                90
_cell_angle_beta                 90
_cell_angle_gamma                90
_cell_formula_units_Z            1
_cell_length_a                   6.29830(10)
_cell_length_b                   6.29830(10)
_cell_length_c                   6.29830(10)
_cell_measurement_reflns_used    2819
_cell_measurement_temperature    293
_cell_measurement_theta_max      69.476
_cell_measurement_theta_min      9.154
_cell_volume                     249.845(7)
_computing_cell_refinement       'SAINT V8.34A (Bruker, 2017)'
_computing_data_collection       'APEX2 V2017.3 (Bruker, 2017)'
_computing_data_reduction        'Bruker SAINT'
_diffrn_ambient_temperature      293
_diffrn_detector_area_resol_mean 8
_diffrn_measured_fraction_theta_full 0.96
_diffrn_measured_fraction_theta_max 0.96
_diffrn_measurement_device       'four-circle diffractometer'
_diffrn_measurement_device_type  'Bruker Kappa APEX CCD area detector'
_diffrn_measurement_method       '\w and \f scans'
_diffrn_radiation_monochromator  'MX optics'
_diffrn_radiation_probe          x-ray
_diffrn_radiation_source         microsource
_diffrn_radiation_type           'Mo K\a'
_diffrn_radiation_wavelength     0.71073
_diffrn_reflns_av_R_equivalents  0.0396
_diffrn_reflns_av_unetI/netI     0.0146
_diffrn_reflns_limit_h_max       10
_diffrn_reflns_limit_h_min       -9
_diffrn_reflns_limit_k_max       9
_diffrn_reflns_limit_k_min       -9
_diffrn_reflns_limit_l_max       9
_diffrn_reflns_limit_l_min       -8
_diffrn_reflns_number            3482
_diffrn_reflns_theta_full        35.13
_diffrn_reflns_theta_max         35.13
_diffrn_reflns_theta_min         4.58
_diffrn_source                   'sealed tube'
_exptl_absorpt_coefficient_mu    18.633
_exptl_absorpt_correction_T_max  0.7469
_exptl_absorpt_correction_T_min  0.6209
_exptl_absorpt_correction_type   multi-scan
_exptl_absorpt_process_details   'Scale APEX3'
_exptl_crystal_density_diffrn    3.9482
_exptl_crystal_description       'black polyhedron'
_exptl_crystal_F_000             250
_exptl_crystal_size_max          0.021
_exptl_crystal_size_mid          0.017
_exptl_crystal_size_min          0.015
_refine_diff_density_max         0.78
_refine_diff_density_min         -0.50
_refine_ls_extinction_method     none
_refine_ls_goodness_of_fit_gt    2.72
_refine_ls_goodness_of_fit_ref   2.72
_refine_ls_number_constraints    2
_refine_ls_number_parameters     6
_refine_ls_number_reflns         144
_refine_ls_number_restraints     0
_refine_ls_R_factor_all          0.0193
_refine_ls_R_factor_gt           0.0193
_refine_ls_shift/su_max          0.0487
_refine_ls_shift/su_mean         0.0230
_refine_ls_structure_factor_coef Fsqd
_refine_ls_weighting_details     w=1/(\s^2^(I)+0.0004I^2^)
_refine_ls_weighting_scheme      sigma
_refine_ls_wR_factor_gt          0.0696
_refine_ls_wR_factor_ref         0.0696
_reflns_number_gt                144
_reflns_number_total             144
_reflns_threshold_expression     I>2\s(I)
_cod_data_source_file            ja9b03662_si_002.cif
_cod_data_source_block           FA0.5MA0.5Pb0.5Sn0.5I3
_cod_depositor_comments
;
The following automatic conversions were performed:

data item '_diffrn_radiation_probe' value 'X-ray' was changed to
'x-ray' in accordance with the
/home/data/users/saulius/crontab/automatic-downloads/current/ACS/lib/dictionaries/cif_core.dic
dictionary named 'cif_core.dic' version 2.4.2 last updated on
2011-04-26.

Automatic conversion script
Id: cif_fix_values 6909 2019-04-08 15:41:33Z antanas 
;
_cod_original_sg_symbol_Hall     '-P 4;2;3'
_cod_original_formula_sum        'C1 I3 N2.857 Pb0.48 Sn0.521'
_cod_database_code               4128767
loop_
_space_group_symop_id
_space_group_symop_operation_xyz
1 x,y,z
2 -x,-y,z
3 -x,y,-z
4 x,-y,-z
5 z,x,y
6 z,-x,-y
7 -z,-x,y
8 -z,x,-y
9 y,z,x
10 -y,z,-x
11 y,-z,-x
12 -y,-z,x
13 y,x,-z
14 -y,-x,-z
15 y,-x,z
16 -y,x,z
17 x,z,-y
18 -x,z,y
19 -x,-z,-y
20 x,-z,y
21 z,y,-x
22 z,-y,x
23 -z,y,x
24 -z,-y,-x
25 -x,-y,-z
26 x,y,-z
27 x,-y,z
28 -x,y,z
29 -z,-x,-y
30 -z,x,y
31 z,x,-y
32 z,-x,y
33 -y,-z,-x
34 y,-z,x
35 -y,z,x
36 y,z,-x
37 -y,-x,z
38 y,x,z
39 -y,x,-z
40 y,-x,-z
41 -x,-z,y
42 x,-z,-y
43 x,z,y
44 -x,z,-y
45 -z,-y,x
46 -z,y,-x
47 z,-y,-x
48 z,y,x
loop_
_atom_site_label
_atom_site_type_symbol
_atom_site_fract_x
_atom_site_fract_y
_atom_site_fract_z
_atom_site_adp_type
_atom_site_U_iso_or_equiv
_atom_site_site_symmetry_multiplicity
_atom_site_occupancy
_atom_site_calc_flag
Pb1 Pb 0.5 0.5 0.5 Uani 0.03348(14) 1 0.4799 d
Sn1' Sn 0.5 0.5 0.5 Uani 0.03348(14) 1 0.5209 d
I1 I 0.5 0.5 0 Uani 0.0835(3) 3 1 d
C1 C 0 0 0 Uiso 0.40(9) 1 1 d
N1 N 0 0 -0.16(3) Uiso 0.40(9) 6 0.4761 d
loop_
_atom_site_aniso_label
_atom_site_aniso_type_symbol
_atom_site_aniso_U_11
_atom_site_aniso_U_22
_atom_site_aniso_U_33
_atom_site_aniso_U_12
_atom_site_aniso_U_13
_atom_site_aniso_U_23
Pb1 Pb 0.0335(2) 0.0335(2) 0.0335(2) 0 0 0
Sn1' Sn 0.0335(2) 0.0335(2) 0.0335(2) 0 0 0
I1 I 0.1126(5) 0.1126(5) 0.0254(3) 0 0 0
loop_
_atom_type_symbol
_atom_type_scat_dispersion_real
_atom_type_scat_dispersion_imag
_atom_type_scat_source
C 0.0033 0.0016 'International Tables Vol C tables 4.2.6.8 and 6.1.1.1'
I -0.4742 1.8119 'International Tables Vol C tables 4.2.6.8 and 6.1.1.1'
N 0.0061 0.0033 'International Tables Vol C tables 4.2.6.8 and 6.1.1.1'
Pb -3.3944 10.1111 'International Tables Vol C tables 4.2.6.8 and 6.1.1.1'
Sn -0.6537 1.4246 'International Tables Vol C tables 4.2.6.8 and 6.1.1.1'
loop_
_geom_angle_atom_site_label_1
_geom_angle_atom_site_label_2
_geom_angle_atom_site_label_3
_geom_angle_site_symmetry_1
_geom_angle_site_symmetry_3
_geom_angle
Sn1' Pb1 I1 . . 0
Sn1' Pb1 I1 . 1_556 0
Sn1' Pb1 I1 . 5_555 0
Sn1' Pb1 I1 . 5_655 0
Sn1' Pb1 I1 . 9_555 0
Sn1' Pb1 I1 . 9_565 0
I1 Pb1 I1 . 1_556 180.0(5)
I1 Pb1 I1 . 5_555 90
I1 Pb1 I1 . 5_655 90
I1 Pb1 I1 . 9_555 90
I1 Pb1 I1 . 9_565 90
I1 Pb1 I1 1_556 5_555 90
I1 Pb1 I1 1_556 5_655 90
I1 Pb1 I1 1_556 9_555 90
I1 Pb1 I1 1_556 9_565 90
I1 Pb1 I1 5_555 5_655 180.0(5)
I1 Pb1 I1 5_555 9_555 90
I1 Pb1 I1 5_555 9_565 90
I1 Pb1 I1 5_655 9_555 90
I1 Pb1 I1 5_655 9_565 90
I1 Pb1 I1 9_555 9_565 180.0(5)
Pb1 Sn1' I1 . . 0
Pb1 Sn1' I1 . 1_556 0
Pb1 Sn1' I1 . 5_555 0
Pb1 Sn1' I1 . 5_655 0
Pb1 Sn1' I1 . 9_555 0
Pb1 Sn1' I1 . 9_565 0
I1 Sn1' I1 . 1_556 180.0(5)
I1 Sn1' I1 . 5_555 90
I1 Sn1' I1 . 5_655 90
I1 Sn1' I1 . 9_555 90
I1 Sn1' I1 . 9_565 90
I1 Sn1' I1 1_556 5_555 90
I1 Sn1' I1 1_556 5_655 90
I1 Sn1' I1 1_556 9_555 90
I1 Sn1' I1 1_556 9_565 90
I1 Sn1' I1 5_555 5_655 180.0(5)
I1 Sn1' I1 5_555 9_555 90
I1 Sn1' I1 5_555 9_565 90
I1 Sn1' I1 5_655 9_555 90
I1 Sn1' I1 5_655 9_565 90
I1 Sn1' I1 9_555 9_565 180.0(5)
Pb1 I1 Pb1 1_554 . 180.0(5)
Pb1 I1 Sn1' 1_554 1_554 0.0(5)
Pb1 I1 Sn1' 1_554 . 180.0(5)
Pb1 I1 N1 1_554 5_655 90
Pb1 I1 N1 1_554 5_665 90
Pb1 I1 N1 1_554 7_555 90
Pb1 I1 N1 1_554 7_565 90
Pb1 I1 N1 1_554 9_565 90
Pb1 I1 N1 1_554 9_665 90
Pb1 I1 N1 1_554 11_555 90
Pb1 I1 N1 1_554 11_655 90
Pb1 I1 Sn1' . 1_554 180.0(5)
Pb1 I1 Sn1' . . 0.0(5)
Pb1 I1 N1 . 5_655 90
Pb1 I1 N1 . 5_665 90
Pb1 I1 N1 . 7_555 90
Pb1 I1 N1 . 7_565 90
Pb1 I1 N1 . 9_565 90
Pb1 I1 N1 . 9_665 90
Pb1 I1 N1 . 11_555 90
Pb1 I1 N1 . 11_655 90
Sn1' I1 Sn1' 1_554 . 180.0(5)
Sn1' I1 N1 1_554 5_655 90
Sn1' I1 N1 1_554 5_665 90
Sn1' I1 N1 1_554 7_555 90
Sn1' I1 N1 1_554 7_565 90
Sn1' I1 N1 1_554 9_565 90
Sn1' I1 N1 1_554 9_665 90
Sn1' I1 N1 1_554 11_555 90
Sn1' I1 N1 1_554 11_655 90
Sn1' I1 N1 . 5_655 90
Sn1' I1 N1 . 5_665 90
Sn1' I1 N1 . 7_555 90
Sn1' I1 N1 . 7_565 90
Sn1' I1 N1 . 9_565 90
Sn1' I1 N1 . 9_665 90
Sn1' I1 N1 . 11_555 90
Sn1' I1 N1 . 11_655 90
N1 I1 N1 5_655 5_665 112(3)
N1 I1 N1 5_655 7_555 68(3)
N1 I1 N1 5_655 7_565 180.0(5)
N1 I1 N1 5_655 9_565 158(3)
N1 I1 N1 5_655 9_665 90(3)
N1 I1 N1 5_655 11_555 90(3)
N1 I1 N1 5_655 11_655 22(3)
N1 I1 N1 5_665 7_555 180.0(5)
N1 I1 N1 5_665 7_565 68(3)
N1 I1 N1 5_665 9_565 90(3)
N1 I1 N1 5_665 9_665 22(3)
N1 I1 N1 5_665 11_555 158(3)
N1 I1 N1 5_665 11_655 90(3)
N1 I1 N1 7_555 7_565 112(3)
N1 I1 N1 7_555 9_565 90(3)
N1 I1 N1 7_555 9_665 158(3)
N1 I1 N1 7_555 11_555 22(3)
N1 I1 N1 7_555 11_655 90(3)
N1 I1 N1 7_565 9_565 22(3)
N1 I1 N1 7_565 9_665 90(3)
N1 I1 N1 7_565 11_555 90(3)
N1 I1 N1 7_565 11_655 158(3)
N1 I1 N1 9_565 9_665 112(3)
N1 I1 N1 9_565 11_555 68(3)
N1 I1 N1 9_565 11_655 180.0(5)
N1 I1 N1 9_665 11_555 180.0(5)
N1 I1 N1 9_665 11_655 68(3)
N1 I1 N1 11_555 11_655 112(3)
N1 C1 N1 . 3_555 180.0(5)
N1 C1 N1 . 5_555 90
N1 C1 N1 . 7_555 90
N1 C1 N1 . 9_555 90
N1 C1 N1 . 11_555 90
N1 C1 N1 3_555 5_555 90
N1 C1 N1 3_555 7_555 90
N1 C1 N1 3_555 9_555 90
N1 C1 N1 3_555 11_555 90
N1 C1 N1 5_555 7_555 180.0(5)
N1 C1 N1 5_555 9_555 90
N1 C1 N1 5_555 11_555 90
N1 C1 N1 7_555 9_555 90
N1 C1 N1 7_555 11_555 90
N1 C1 N1 9_555 11_555 180.0(5)
I1 N1 I1 5_544 5_554 112(5)
I1 N1 I1 5_544 9_454 72(2)
I1 N1 I1 5_544 9_554 72(2)
I1 N1 C1 5_544 . 124(2)
I1 N1 N1 5_544 5_555 113(2)
I1 N1 N1 5_544 7_555 113(2)
I1 N1 N1 5_544 9_555 79(6)
I1 N1 N1 5_544 11_555 169(10)
I1 N1 I1 5_554 9_454 72(2)
I1 N1 I1 5_554 9_554 72(2)
I1 N1 C1 5_554 . 124(2)
I1 N1 N1 5_554 5_555 113(2)
I1 N1 N1 5_554 7_555 113(2)
I1 N1 N1 5_554 9_555 169(10)
I1 N1 N1 5_554 11_555 79(6)
I1 N1 I1 9_454 9_554 112(5)
I1 N1 C1 9_454 . 124(2)
I1 N1 N1 9_454 5_555 79(6)
I1 N1 N1 9_454 7_555 169(10)
I1 N1 N1 9_454 9_555 113(2)
I1 N1 N1 9_454 11_555 113(2)
I1 N1 C1 9_554 . 124(2)
I1 N1 N1 9_554 5_555 169(10)
I1 N1 N1 9_554 7_555 79(6)
I1 N1 N1 9_554 9_555 113(2)
I1 N1 N1 9_554 11_555 113(2)
C1 N1 N1 . 5_555 45(8)
C1 N1 N1 . 7_555 45(8)
C1 N1 N1 . 9_555 45(8)
C1 N1 N1 . 11_555 45(8)
N1 N1 N1 5_555 7_555 90(13)
N1 N1 N1 5_555 9_555 60(8)
N1 N1 N1 5_555 11_555 60(8)
N1 N1 N1 7_555 9_555 60(8)
N1 N1 N1 7_555 11_555 60(8)
N1 N1 N1 9_555 11_555 90(13)
loop_
_geom_bond_atom_site_label_1
_geom_bond_atom_site_label_2
_geom_bond_site_symmetry_2
_geom_bond_distance
Pb1 Sn1' . 0
Pb1 I1 . 3.14915(10)
Pb1 I1 1_556 3.14915(10)
Pb1 I1 5_555 3.14915(10)
Pb1 I1 5_655 3.14915(10)
Pb1 I1 9_555 3.14915(10)
Pb1 I1 9_565 3.14915(10)
Sn1' I1 . 3.14915(10)
Sn1' I1 1_556 3.14915(10)
Sn1' I1 5_555 3.14915(10)
Sn1' I1 5_655 3.14915(10)
Sn1' I1 9_555 3.14915(10)
Sn1' I1 9_565 3.14915(10)
I1 N1 5_655 3.80(11)
I1 N1 5_665 3.80(11)
I1 N1 7_555 3.80(11)
I1 N1 7_565 3.80(11)
I1 N1 9_565 3.80(11)
I1 N1 9_665 3.80(11)
I1 N1 11_555 3.80(11)
I1 N1 11_655 3.80(11)
C1 N1 . 1.02(19)
C1 N1 3_555 1.02(19)
C1 N1 5_555 1.02(19)
C1 N1 7_555 1.02(19)
C1 N1 9_555 1.02(19)
C1 N1 11_555 1.02(19)
N1 N1 5_555 1.44(19)
N1 N1 7_555 1.44(19)
N1 N1 9_555 1.44(19)
N1 N1 11_555 1.44(19)
loop_
_refln_index_h
_refln_index_k
_refln_index_l
_refln_F_squared_calc
_refln_F_squared_meas
_refln_F_squared_sigma
_refln_observed_status
0 1 1 466.29 411.78 19.47 o
0 1 2 7077.17 6963.42 146.00 o
1 1 2 523.67 575.08 6.18 o
1 2 2 5580.17 5785.90 52.33 o
2 2 2 11497.50 11348.90 376.63 o
0 0 3 2964.02 2913.74 43.40 o
0 1 3 79.56 73.97 0.69 o
1 1 3 1137.31 1321.11 11.34 o
0 2 3 2540.94 2584.06 21.18 o
1 2 3 214.49 208.30 1.26 o
2 2 3 2088.75 2108.38 17.75 o
0 3 3 67.13 54.62 0.69 o
1 3 3 244.04 266.12 2.29 o
2 3 3 148.17 138.21 1.37 o
3 3 3 31.05 30.92 0.69 o
0 0 4 8555.33 9221.81 144.17 o
0 1 4 3559.51 3619.58 26.91 o
1 1 4 994.01 1020.18 8.02 o
0 2 4 5876.16 5954.35 48.67 o
1 2 4 2682.96 2712.31 15.69 o
2 2 4 4107.86 4022.89 34.47 o
0 3 4 1492.46 1465.51 12.14 o
1 3 4 493.23 501.56 3.09 o
2 3 4 1177.06 1139.50 7.56 o
3 3 4 289.44 295.21 3.09 o
0 4 4 2199.83 2193.12 27.48 o
1 4 4 1248.47 1264.55 11.68 o
2 4 4 1586.73 1519.33 14.89 o
3 4 4 611.81 589.73 6.30 o
4 4 4 658.21 628.67 12.25 o
0 0 5 368.19 337.81 5.73 o
0 1 5 20.04 20.27 0.23 o
1 1 5 93.15 116.00 1.03 o
0 2 5 376.50 359.91 3.21 o
1 2 5 60.00 63.67 0.46 o
2 2 5 360.91 343.19 3.21 o
0 3 5 41.31 36.76 0.46 o
1 3 5 6.42 8.59 0.11 o
2 3 5 70.00 68.71 0.57 o
3 3 5 8.87 11.34 0.34 o
0 4 5 320.43 307.69 2.98 o
1 4 5 149.15 157.68 1.15 o
2 4 5 277.55 262.80 1.95 o
3 4 5 112.74 117.03 1.03 o
4 4 5 177.33 165.70 2.06 o
0 5 5 46.29 41.80 0.80 o
1 5 5 16.43 19.81 0.46 o
2 5 5 55.52 53.36 0.69 o
3 5 5 27.62 33.44 0.57 o
4 5 5 61.25 61.49 0.92 o
5 5 5 28.95 35.61 1.15 o
0 0 6 2100.63 2190.48 36.30 o
0 1 6 1327.10 1305.54 12.02 o
1 1 6 788.29 795.39 7.21 o
0 2 6 1494.17 1504.22 14.43 o
1 2 6 980.36 990.06 6.30 o
2 2 6 1075.96 1070.34 9.96 o
0 3 6 640.71 630.04 5.95 o
1 3 6 411.31 421.74 2.86 o
2 3 6 489.90 473.05 3.32 o
3 3 6 234.62 237.27 2.52 o
0 4 6 594.69 589.73 5.73 o
1 4 6 432.44 440.07 3.21 o
2 4 6 442.51 422.77 3.21 o
3 4 6 235.85 229.94 1.83 o
4 4 6 198.25 180.81 2.06 o
0 5 6 180.05 167.64 1.95 o
1 5 6 133.24 136.50 1.15 o
2 5 6 146.65 138.44 1.15 o
3 5 6 87.94 89.32 0.80 o
4 5 6 82.13 77.75 0.80 o
5 5 6 40.85 41.91 0.80 o
0 6 6 169.50 161.00 2.86 o
1 6 6 139.74 146.00 1.83 o
2 6 6 131.13 125.85 1.60 o
3 6 6 83.81 83.71 1.26 o
4 6 6 64.81 58.29 0.92 o
5 6 6 33.96 32.64 1.15 o
0 0 7 18.55 19.70 0.80 o
0 1 7 3.43 4.24 0.23 o
1 1 7 3.73 5.61 0.23 o
0 2 7 30.67 31.61 0.46 o
1 2 7 11.24 12.25 0.23 o
2 2 7 39.70 41.68 0.57 o
0 3 7 14.29 13.97 0.34 o
1 3 7 5.48 6.41 0.23 o
2 3 7 21.91 22.22 0.34 o
3 3 7 14.49 17.29 0.46 o
0 4 7 49.26 47.64 0.80 o
1 4 7 34.03 36.53 0.46 o
2 4 7 48.52 49.01 0.57 o
3 4 7 32.82 34.70 0.46 o
4 4 7 39.80 38.82 0.69 o
0 5 7 23.70 22.10 0.57 o
1 5 7 17.97 19.92 0.34 o
2 5 7 25.08 23.93 0.46 o
3 5 7 19.56 22.67 0.46 o
4 5 7 23.27 24.51 0.46 o
5 5 7 15.50 19.81 1.15 o
0 6 7 39.12 38.59 0.80 o
1 6 7 33.63 34.12 0.57 o
2 6 7 34.19 33.90 0.57 o
3 6 7 25.53 27.02 0.57 o
4 6 7 22.39 22.79 0.92 o
0 7 7 14.85 15.00 1.49 o
1 7 7 13.45 14.20 1.03 o
2 7 7 13.97 13.51 1.60 o
0 0 8 494.66 504.42 12.25 o
0 1 8 402.49 387.62 4.47 o
1 1 8 326.94 317.42 3.78 o
0 2 8 357.12 358.53 4.24 o
1 2 8 294.58 295.78 2.52 o
2 2 8 261.24 259.94 3.09 o
0 3 8 209.49 206.69 2.40 o
1 3 8 174.98 172.68 1.49 o
2 3 8 157.87 158.37 1.37 o
3 3 8 99.75 97.56 1.37 o
0 4 8 146.69 142.91 1.83 o
1 4 8 125.75 128.71 1.26 o
2 4 8 111.28 108.56 1.15 o
3 4 8 72.86 73.40 0.80 o
4 4 8 52.21 50.38 1.26 o
0 5 8 66.99 65.50 1.15 o
1 5 8 58.82 58.40 0.80 o
2 5 8 53.15 52.68 0.80 o
3 5 8 37.27 37.45 1.03 o
0 6 8 42.76 43.86 2.06 o
1 6 8 38.52 42.03 1.60 o
2 6 8 33.95 34.81 2.40 o
0 0 9 0.71 1.72 0.57 o
0 1 9 0.72 0.80 0.23 o
1 1 9 0.77 1.26 0.34 o
0 2 9 1.61 2.18 0.34 o
1 2 9 1.31 1.95 0.23 o
2 2 9 3.46 4.58 0.34 o
0 3 9 2.65 2.98 0.34 o
1 3 9 2.31 2.86 0.23 o
2 3 9 4.36 4.81 0.34 o
3 3 9 5.01 6.30 0.80 o
0 4 9 6.76 6.76 0.69 o
1 4 9 6.17 7.10 0.46 o
2 4 9 7.63 9.50 0.80 o
0 1 10 102.68 97.79 4.24 o
1 1 10 92.09 80.04 5.27 o
