#------------------------------------------------------------------------------
#$Date: 2019-11-03 16:25:46 +0200 (Sun, 03 Nov 2019) $
#$Revision: 221863 $
#$URL: file:///home/coder/svn-repositories/cod/cif/4/12/87/4128799.cif $
#------------------------------------------------------------------------------
#
# This file is available in the Crystallography Open Database (COD),
# http://www.crystallography.net/
#
# All data on this site have been placed in the public domain by the
# contributors.
#
data_4128799
loop_
_publ_author_name
'Strangm\"uller, Stefan'
'Eickhoff, Henrik'
'M\"uller, David'
'Klein, Wilhelm'
'Raudaschl-Sieber, Gabriele'
'Kirchhain, Holger'
'Sedlmeier, Christian'
'Baran, Volodymyr'
'Senyshyn, Anatoliy'
'Deringer, Volker L.'
'van W\"ullen, Leo'
'Gasteiger, Hubert A.'
'F\"assler, Thomas F'
_publ_section_title
;
 Fast Ionic Conductivity in the Most Lithium-Rich Phosphidosilicate
 Li<sub>14</sub>SiP<sub>6</sub>.
;
_journal_issue                   36
_journal_name_full               'Journal of the American Chemical Society'
_journal_page_first              14200
_journal_page_last               14209
_journal_paper_doi               10.1021/jacs.9b05301
_journal_volume                  141
_journal_year                    2019
_chemical_formula_moiety         'P4 Si0.67, 9.33(Li)'
_chemical_formula_sum            'Li2.33 P Si0.17'
_chemical_formula_weight         51.85
_space_group_crystal_system      cubic
_space_group_IT_number           225
_space_group_name_Hall           '-F 4 2 3'
_space_group_name_H-M_alt        'F m -3 m'
_atom_sites_solution_primary     direct
_atom_sites_solution_secondary   difmap
_audit_creation_method           SHELXL-2014/7
_cell_angle_alpha                90
_cell_angle_beta                 90
_cell_angle_gamma                90
_cell_formula_units_Z            4
_cell_length_a                   5.9253(7)
_cell_length_b                   5.9253(7)
_cell_length_c                   5.9253(7)
_cell_measurement_reflns_used    968
_cell_measurement_temperature    123(2)
_cell_measurement_theta_max      75.22
_cell_measurement_theta_min      11.90
_cell_volume                     208.03(4)
_computing_cell_refinement       'STOE X-AREA 1.76'
_computing_data_collection       'STOE X-AREA 1.76'
_computing_data_reduction        'STOE X-AREA 1.76'
_computing_molecular_graphics    'DIAMOND 3.2k'
_computing_structure_refinement  SHELXL-2014/7
_computing_structure_solution    SHELXS-97
_diffrn_ambient_temperature      123(2)
_diffrn_detector                 STOE
_diffrn_detector_area_resol_mean 5.81
_diffrn_detector_type            'Pilatus 300K'
_diffrn_measured_fraction_theta_full 1.000
_diffrn_measured_fraction_theta_max 0.982
_diffrn_measurement_device_type  'STOE StadiVari'
_diffrn_measurement_method       '\w scans'
_diffrn_radiation_collimation    '0.6 mm diameter'
_diffrn_radiation_monochromator  'Graded multilayer mirror'
_diffrn_radiation_type           'Mo K\a'
_diffrn_radiation_wavelength     0.71073
_diffrn_reflns_av_R_equivalents  0.0247
_diffrn_reflns_av_unetI/netI     0.0146
_diffrn_reflns_Laue_measured_fraction_full 1.000
_diffrn_reflns_Laue_measured_fraction_max 0.982
_diffrn_reflns_limit_h_max       10
_diffrn_reflns_limit_h_min       -10
_diffrn_reflns_limit_k_max       10
_diffrn_reflns_limit_k_min       -10
_diffrn_reflns_limit_l_max       10
_diffrn_reflns_limit_l_min       -10
_diffrn_reflns_number            554
_diffrn_reflns_point_group_measured_fraction_full 1.000
_diffrn_reflns_point_group_measured_fraction_max 0.982
_diffrn_reflns_theta_full        25.242
_diffrn_reflns_theta_max         40.236
_diffrn_reflns_theta_min         5.963
_diffrn_source                   'Genix 3D HF Mo'
_diffrn_source_current           1.000
_diffrn_source_power             0.050
_diffrn_source_voltage           50
_exptl_absorpt_coefficient_mu    0.898
_exptl_absorpt_correction_type   none
_exptl_crystal_colour            orange-red
_exptl_crystal_density_diffrn    1.655
_exptl_crystal_description       block
_exptl_crystal_F_000             97
_exptl_crystal_size_max          0.05
_exptl_crystal_size_mid          0.045
_exptl_crystal_size_min          0.03
_refine_diff_density_max         0.444
_refine_diff_density_min         -0.582
_refine_diff_density_rms         0.089
_refine_ls_extinction_method     none
_refine_ls_goodness_of_fit_ref   1.182
_refine_ls_hydrogen_treatment    undef
_refine_ls_matrix_type           full
_refine_ls_number_parameters     4
_refine_ls_number_reflns         54
_refine_ls_number_restraints     0
_refine_ls_restrained_S_all      1.182
_refine_ls_R_factor_all          0.0523
_refine_ls_R_factor_gt           0.0410
_refine_ls_shift/su_max          0.000
_refine_ls_shift/su_mean         0.000
_refine_ls_structure_factor_coef Fsqd
_refine_ls_weighting_details
'w=1/[\s^2^(Fo^2^)+(0.0362P)^2^+0.5916P] where P=(Fo^2^+2Fc^2^)/3'
_refine_ls_weighting_scheme      calc
_refine_ls_wR_factor_gt          0.0861
_refine_ls_wR_factor_ref         0.0907
_reflns_number_gt                48
_reflns_number_total             54
_reflns_threshold_expression     'I > 2\s(I)'
_cod_data_source_file            ja9b05301_si_002.cif
_cod_data_source_block           Li14SiP6
_cod_original_cell_volume        208.03(7)
_cod_database_code               4128799
_shelx_shelxl_version_number     2014/7
_shelx_space_group_comment
;
The symmetry employed for this shelxl refinement is uniquely defined
by the following loop, which should always be used as a source of
symmetry information in preference to the above space-group names.
They are only intended as comments.
;
_shelx_res_file
;

    Li14SiP6.res created by SHELXL-2014/7

TITL Li14SiP6 in Fm-3m (Nr.225)
CELL 0.71073   5.9253   5.9253   5.9253  90.000  90.000  90.000
ZERR 1         0.0007   0.0007   0.0007   0.000   0.000   0.000
LATT  4
SYMM -X, -Y, +Z
SYMM -X, +Y, -Z
SYMM +X, -Y, -Z
SYMM +Z, +X, +Y
SYMM +Z, -X, -Y
SYMM -Z, -X, +Y
SYMM -Z, +X, -Y
SYMM +Y, +Z, +X
SYMM -Y, +Z, -X
SYMM +Y, -Z, -X
SYMM -Y, -Z, +X
SYMM +Y, +X, -Z
SYMM -Y, -X, -Z
SYMM +Y, -X, +Z
SYMM -Y, +X, +Z
SYMM +X, +Z, -Y
SYMM -X, +Z, +Y
SYMM -X, -Z, -Y
SYMM +X, -Z, +Y
SYMM +Z, +Y, -X
SYMM +Z, -Y, +X
SYMM -Z, +Y, +X
SYMM -Z, -Y, -X
SFAC Li Si P
UNIT 9.333 0.667 4
TEMP -150
L.S. 10
BOND
EXYZ SI LI1
EADP SI LI1
FMAP 2
PLAN 20
ACTA
WGHT    0.036200    0.591600
FVAR       0.60341
LI1   1    0.250000    0.250000    0.250000    10.03819    0.01908    0.01908 =
         0.01908    0.00000    0.00000    0.00000
LI2   1    0.500000    0.000000    0.000000    10.01042    0.08587    0.08587 =
         0.08587    0.00000    0.00000    0.00000
SI    2    0.250000    0.250000    0.250000    10.00347    0.01908    0.01908 =
         0.01908    0.00000    0.00000    0.00000
P     3    0.000000    0.000000    0.000000    10.02083    0.02632    0.02632 =
         0.02632    0.00000    0.00000    0.00000
HKLF 4

REM  Li14SiP6 in Fm-3m (Nr.225)
REM R1 =  0.0410 for      48 Fo > 4sig(Fo)  and  0.0523 for all      54 data
REM      4 parameters refined using      0 restraints

END

WGHT      0.0362      0.5916

REM Highest difference peak  0.444,  deepest hole -0.582,  1-sigma level  0.089
Q1    1   0.0000  0.0000  0.1713  10.12500  0.05    0.31
Q2    1   0.0744  0.0744  0.0744  10.16667  0.05    0.24
Q3    1   0.1791  0.3209  0.1791  10.16667  0.05    0.23
Q4    1   0.3867  0.1133  0.1133  10.16667  0.05    0.21
Q5    1   0.5000  0.0000  0.2222  10.12500  0.05    0.18
Q6    1   0.1112  0.0000  0.1112  10.25000  0.05    0.15
Q7    1   0.2208  0.2208  0.1080  10.50000  0.05    0.13
Q8    1   0.3485  0.3485  0.1515  10.16667  0.05    0.11
Q9    1   0.0651  0.2226  0.0651  10.50000  0.05    0.10
Q10   1   0.0000 -0.1264  0.2206  10.50000  0.05    0.10
Q11   1   0.6143 -0.1143  0.0000  10.25000  0.05    0.07
Q12   1   0.0000  0.2982  0.2018  10.25000  0.05    0.05
Q13   1   0.2500  0.2500  0.0000  10.12500  0.05    0.05
Q14   1   0.1823  0.3177  0.0603  10.50000  0.05    0.03
Q15   1   0.2309  0.4264  0.2309  10.50000  0.05    0.03
Q16   1   0.3088  0.0523  0.0000  10.50000  0.05    0.00
;
_shelx_res_checksum              49941
_shelx_hkl_file
;
  -7  -1   7    3.55    5.82
  -7   1   5   16.20    5.21
  -5  -1   3   91.38    4.34
  -6  -2   6    5.45    5.08
  -6   0   4   14.31    4.63
  -5   5   3   36.99    3.43
  -6   4   4    8.54    4.13
  -6   6   6    3.61    4.32
  -3  -5   7    8.54    3.94
  -7   1   7    5.76    5.93
  -6  -2   8   16.84    5.98
  -7   3   7   -0.27    5.71
  -4  -4   6    3.58    4.03
  -6   2   4   91.40    5.29
  -5  -3   9   -2.97    6.09
  -4   0   2   63.29    3.39
  -4  -4   8   15.80    4.95
  -3   1   1  301.65    3.90
  -5   1   3   91.55    4.61
  -4   4   2   26.90    2.63
  -6   0   6   45.10    5.77
  -1  -5   5   43.54    2.89
  -2  -4   4   29.08    3.00
  -4   2   2  380.86    5.37
  -4  -2   4   30.15    3.54
  -6   2   6    4.39    5.10
  -2  -2   2  101.75    2.91
  -6   2   8   15.83    6.22
  -5  -1   9    2.88    5.87
  -5   5   5   14.02    4.18
  -1  -5   7   17.87    3.47
  -4   6   4    8.21    3.34
  -4  -2   6   94.51    5.48
  -5   5   7    7.35    5.34
  -4  -2   8    2.59    4.98
  -5   1   9    2.52    6.07
  -3  -3   9    2.77    4.98
  -2  -4   8    4.86    4.12
  -1  -1   1  666.19    3.63
  -5   1   7   16.77    4.87
  -3  -1   3  197.92    4.59
  -5   3   7    8.73    4.79
   1  -5   5   43.22    2.00
  -4   6   8   -1.09    5.41
  -4   4   4  126.09    4.45
  -4   0   6   11.34    3.92
  -3   7   5   12.16    3.39
  -2   6   2   17.82    1.95
   0  -4   4  274.21    3.64
   1  -5   7   16.30    2.88
  -2  -2  10   -1.71    5.25
  -3  -1   9    4.72    5.29
  -3   5   3   59.05    2.96
  -3   7   7    6.46    4.46
  -4   2   8   -2.20    5.11
  -4   2   6   90.09    5.53
  -2  -2   4  379.04    5.45
  -3  -1   7   29.77    4.85
  -1  -3   9    6.11    4.42
  -2   0   2  970.27    6.05
  -3   1   9    2.78    5.46
  -3   3   3  140.27    3.97
  -3   3   9    3.56    5.54
  -2  -2   6   19.14    3.35
  -2   0  10   11.32    5.81
  -1  -3   7   31.50    4.13
   1   1  -1  667.58    3.49
  -3   5   5   38.08    4.04
  -3   5   7    8.28    4.57
  -3   1   5   91.73    4.27
  -3   3   7   25.60    5.13
  -3   3   5   59.24    4.41
  -2   6   8   11.19    5.42
  -2   0   8    4.68    4.29
  -2   6   4   91.16    4.09
   1  -3   9    9.65    4.43
  -2   6   6    4.93    4.00
   2  -4   8    1.22    3.53
  -2   2   8   36.71    5.69
  -1   7   7    6.99    4.74
  -1   5   9   -2.17    6.35
   0  -2   8    1.17    4.40
   0   0  10   -1.14    5.46
  -1   1   9    8.59    4.97
   4   0   2   62.36    3.17
   5   1   1  134.81    3.20
   7  -3   3   25.14    4.52
   1  -5   3   93.24    2.29
   8  -2   2   38.47    4.72
  10   0  -2    5.13    3.62
   7  -7   3    5.61    4.63
  10  -2   0    9.76    4.71
   9   1  -3    9.26    2.90
   3  -3   3  142.57    3.70
   5  -3   3   60.19    3.60
   5  -7   3   11.99    3.38
   8  -4   2   -1.13    4.02
   9  -3   1    6.00    4.34
   3  -7   3   20.86    2.82
   6   2  -2   18.44    1.97
   8  -6   2   18.17    5.25
   5  -5   3   32.49    3.84
   6  -2   2   18.76    3.66
   7  -1   1   41.69    3.82
   9  -1  -1    6.88    3.57
   6  -8   2   12.05    4.14
   0  -4   2   59.88    1.54
   2  -2   2  102.65    2.63
   4  -2   2  381.12    5.05
   0  -6   2  158.85    2.27
   6  -4   2   95.06    4.52
   8  -2   0    1.44    4.01
   2  -8   2   34.20    2.57
   4  -8   2    2.96    2.95
   5  -1   1  138.57    3.93
   8   0  -2    5.36    3.21
   4   2  -2  373.56    2.95
   5  -9   1    2.92    3.80
   7  -5   1   13.47    4.61
   1  -1   1  671.92    3.40
   9  -5  -1    6.34    5.37
   7   1  -3   28.70    2.76
   2  -4   2  372.02    4.48
   2  -6   2   17.15    2.01
   4   0   0  529.88    4.86
   9  -1  -5    4.28    3.64
   8   0  -4   27.36    3.26
   6  -2   0  163.97    4.56
  -1  -7   1   37.85    1.38
   7  -7  -1    7.58    5.20
   3   1  -1  298.49    2.74
   6  -4   0   13.77    4.00
   5  -9  -1    3.83    4.67
   3  -3   1  193.00    3.92
  -1   1  -1  666.63    3.29
   8  -2  -4    4.79    3.93
   1  -7   1   39.79    2.33
   4  -2   0   57.19    2.98
   7  -7  -3    6.19    5.49
   5   1  -3   93.18    2.71
   8  -2  -6   13.90    4.05
   5  -7  -1   17.34    4.44
   2  -8   0    5.03    3.13
   1  -3   1  303.23    3.07
   7  -3  -3   20.44    4.37
   6  -2  -2   15.41    3.57
   7  -5  -3   10.11    4.98
   1  -5   1  135.20    2.93
   7  -1  -5   13.94    3.56
   2 -10  -2   -3.45    3.86
   5  -5  -1   39.56    3.92
   6  -4  -2   91.67    5.28
   6   0  -4   11.78    2.78
   0  -8   0   47.30    2.49
   7  -1  -7    7.01    3.32
   1  -9  -1    7.22    3.08
  -5   3   7   12.65    3.38
  -4   6   6   23.04    3.51
  -5   5   7    2.91    3.20
  -3   7   5   11.10    2.88
  -3   9   3    4.82    2.63
  -6  -2   6    3.35    2.16
  -1   7   3   30.32    2.39
  -7  -1   7    2.85    2.47
  -3  -3   3  139.19    1.65
  -2   4   6   85.62    3.94
  -2   8   4   -0.24    2.45
  -5  -3   5   38.63    2.03
  -1   5   5   41.23    2.94
  -3   5   7   13.21    3.37
  -5  -1   7   13.26    2.73
  -1  -1   3  301.74    2.60
  -4   4   8   18.46    3.48
  -1   1   5  139.46    3.21
  -6   0   8    1.65    2.54
   0   4   4  261.58    3.72
  -4   2   8    0.76    2.77
  -4  -2   6   95.05    2.86
  -3   9   5   -0.72    2.54
  -2   0   6  164.38    3.63
  -3   7   7    3.84    2.90
  -1   7   5   15.61    2.72
   0   0   2  246.67    2.00
   0   6   4   14.31    2.18
  -4   0   8   30.24    3.03
  -5   1   9    4.27    2.98
  -2   8   6   11.57    2.68
  -3  -1   7   31.75    2.73
  -1   3   7   30.34    3.39
  -1   5   7   19.03    3.27
  -3   3   9    0.88    3.14
   1   3   3  186.18    2.65
  -1  -1   5  140.43    2.73
   0   0   4  537.27    4.15
   0   8   2    3.99    1.27
  -3  -3   5   62.22    1.81
   0   6   6   49.89    3.15
  -1   7   7    3.65    2.78
  -5  -3   7   11.09    2.03
  -5  -1   9    2.42    2.42
   0   8   4   31.19    2.29
   0   4  -2   58.95    0.96
  -4  -2   8    1.19    2.39
   1   1   3  296.11    2.91
   0   0   6   22.72    2.40
  -1   3   9    5.90    2.93
  -1   5   9    1.37    3.00
   1   7   3   27.71    1.70
  -3  -1   9    4.89    2.80
  -2   2  10    1.20    2.96
   0   8   6    3.07    2.37
   1   1   5  140.87    2.90
   0   6   8   -0.45    2.81
   1   7   5   11.67    2.19
   1   3   7   29.40    3.26
  -3  -3   7   22.16    2.07
  -2  -2   8   40.51    2.86
  -2   0  10   10.27    3.19
   1   1   1  666.53    2.60
   0   0   8   47.94    3.38
   1   1   7   41.86    3.06
   1   7   1   37.42    0.91
   1   7   7    8.47    2.48
   2   2   4  369.66    3.84
  -1  -1   9    7.31    2.74
   0   2  10    9.00    3.14
   2   2   6   17.97    2.34
   2   6   6    4.99    2.32
  -1  -3   5   90.23    1.92
   1  -1   5  137.47    2.81
   2   4   8    3.58    2.98
   1   1   9    6.84    3.21
  -3  -3   9    2.09    2.22
  -3  -3   1  186.36    1.24
   2   6   8   15.47    2.97
  -2  -2  10    0.59    2.52
  -1  -3   7   29.25    2.17
   2   0   6  168.18    3.51
   0  -2   8    5.28    2.47
   2   0   4   61.76    2.06
   3   5   5   35.83    2.38
   3   5   7    9.27    2.57
   2   2  10   -1.55    2.84
   3   1   5   92.51    3.02
  -1  -3   9    4.37    2.37
   3   1   7   31.52    3.24
   3   3   9    3.50    2.95
   3   7   5    9.52    2.03
  -2  -4   4   27.97    0.90
   3   7   7    2.28    2.34
  -2  -4   8    0.47    1.84
   0  -2  10    3.63    2.65
   3   1   3  188.81    2.92
   4   2   6   93.59    3.58
  -1   1  -1  677.39    2.62
   2  -2   6   18.41    2.23
   1  -3   7   26.91    2.53
   4   2   8    3.30    3.06
   4   6   6   24.34    2.45
   3  -1   7   28.09    3.06
   3   7   3   20.81    1.39
   3  -1   5   91.90    2.69
   4   2   4   30.98    2.10
   1  -3   9    3.70    2.43
   2  -2   4  385.88    3.78
   0  -4   6   13.69    1.68
   3  -1   9    6.38    3.03
   4   0   6   13.19    2.78
   4   6   4    6.85    1.77
   0  -4   8   29.75    2.37
   4   0   8   28.23    3.40
   2  -2  10   -0.07    2.75
   5   3   7   13.12    2.73
   5   5   7    9.65    2.48
   4   0   4  273.62    3.94
   5   1   7   16.04    3.23
   5   5   5   13.09    2.15
   3  -1   3  191.20    2.87
   5   1   9    0.06    2.86
   5   1   5   43.50    3.00
   1  -1   1  668.09    2.73
   4  -2   8    0.34    2.88
   4   4   2   29.37    1.49
   3  -3   9    3.72    2.70
   4  -2   6   89.50    3.32
   4   2   2  373.94    3.58
   2  -4   8    1.76    2.30
   5  -1   7   17.72    3.14
   6   2   8   14.13    3.08
   6   4   6   24.26    2.70
   3  -3   5   59.20    2.60
   5  -1   9    2.71    2.95
   5  -1   5   37.76    3.13
   3   1   1  303.06    2.66
   5   5   3   32.60    1.82
   4  -2   4   30.15    2.55
   1  -5   7   16.06    1.96
   3  -7  -7    2.99    4.81
   6  -6  -2    5.00    3.33
   3  -7  -5    9.95    5.17
   0  -6  -6   44.92    5.50
   0  -6  -8   -0.69    4.78
   5  -7  -3   12.72    4.30
  -2  -4  -8   -0.43    4.33
  -1  -5  -9    1.21    4.39
   1  -7  -7    5.84    5.07
   2  -6  -2   19.29    3.66
   1  -7  -5   18.07    4.98
  -3  -3  -7   24.64    3.80
   4  -8  -4   16.12    5.18
   2  -8  -6   12.55    4.99
   6  -8  -4    4.20    4.13
   1  -5  -1  138.99    3.90
  -3  -3  -9   -0.80    3.81
  -2  -2  -2  100.72    2.63
  -1  -7  -7    3.33    4.92
  -1  -7  -5   17.60    5.07
  -1  -3  -1  303.33    3.84
   0  -8  -6    3.05    5.11
   4  -8  -2    1.66    3.98
   4  -6   0   12.50    2.57
  -4  -2  -6   89.12    3.52
  -2  -6  -4   90.89    5.27
  -3  -5  -9   -3.16    3.77
   0  -8  -4   28.15    5.44
   1  -9  -5    0.57    5.01
  -2  -4  -2  375.22    5.19
   5  -9  -3    0.96    4.31
  -4   0  -6   10.85    1.66
   3  -9  -3    3.65    4.59
  -4  -4  -6    5.23    3.63
   1  -7  -1   43.50    3.90
  -2  -8  -6   11.95    4.82
  -3  -7  -7    8.08    4.29
  -4  -2  -4   30.40    2.39
  -1  -9  -5    0.21    4.54
  -3  -7  -5    7.87    4.27
  -2  -6  -2   16.30    3.70
   3  -5   1   90.16    2.38
  -2  -8  -4    0.71    4.49
   5  -5   1   40.58    1.50
   0  -6   0   20.93    2.97
  -1  -9  -3    9.28    4.56
   3  -9  -1    7.59    3.54
   2 -10  -2    2.81    4.40
   2  -8   0    2.96    3.06
  -5  -5  -7    6.15    3.54
  -3  -3  -1  192.25    3.59
  -2  -4   0   60.99    3.04
  -4  -4  -2   31.99    2.99
  -4  -8  -4   18.52    4.20
  -1  -9  -1    8.23    4.03
  -5  -7  -5    5.09    4.05
  -3  -9  -3    5.07    4.11
   1  -7   1   37.88    2.90
  -5  -1  -5   41.08    1.76
  -2  -2   0 1000.00    5.53
  -5  -3  -3   60.42    2.81
  -2 -10  -2   -1.08    3.41
  -6  -4  -6   24.70    3.01
   2 -10   0    6.30    3.45
  -6  -6  -6    1.43    3.36
  -4  -8  -2    2.66    3.89
  -1  -3   1  305.10    3.52
  -1  -7   1   41.73    3.46
  -3  -1  -1  308.01    2.97
   3  -9   1    6.50    2.86
   1  -9   1    3.43    3.02
   2  -6   2   17.59    1.87
  -6  -6  -4   22.03    3.52
  -6  -4  -4    6.18    2.81
  -4  -6   0   15.19    3.59
  -5  -5  -1   39.39    3.67
   0  -4   2   61.17    2.33
  -4  -4   0  264.38    4.73
   2  -8   2   36.59    2.97
  -3  -5   1   94.45    3.61
   4  -6   2   87.37    1.90
  -3  -7   1   29.18    3.97
  -4  -8   0   25.31    4.17
   0  -8   2    2.83    2.82
   1   1  -1  668.01    3.34
  -7  -5  -5    5.50    3.12
  -5  -1  -3   91.92    2.09
  -6  -4  -2   95.31    3.85
  -6  -2  -4   82.89    2.55
  -5  -9  -1    1.80    3.66
  -3  -9   1    8.02    3.90
   2   0   0  250.33    1.83
  -5  -5   1   42.49    3.11
  -4  -2   2  377.01    5.33
  -7  -5   1   17.31    3.95
  -8  -6   0    0.79    3.44
  -8  -2   2   34.85    4.95
  -6   2   2   16.39    3.62
  -2   4   0   60.01    1.56
  -8   2   2   36.91    5.18
  -4   2   2  378.44    5.27
  -9  -5   1    2.10    3.62
 -10   0   2    9.86    4.66
 -10  -2   2   -2.89    4.05
  -1  -1   1  679.38    3.37
  -7  -1   3   31.12    4.12
  -7   5   1   17.17    3.54
 -10   2   2   -3.80    4.30
  -7   1   3   30.30    4.29
  -4  -4   2   26.78    2.39
  -5   5   1   43.61    2.88
  -5   1   3   92.26    4.20
  -8   4   2   -1.93    4.01
  -9   1   3    2.33    4.61
  -9   5   1    5.20    3.62
  -2   0   2  963.69    5.52
  -1   1   1  666.31    3.35
  -2  -2   2  101.77    2.39
  -4   6   0   13.64    1.66
  -8  -6   2   12.47    3.47
  -8   0   4   25.09    4.86
  -6  -6   2    3.14    3.09
  -4   4   2   30.29    2.40
  -8  -2   4    3.01    4.14
  -6   0   4   14.38    3.50
  -6  -2   4   91.48    4.76
  -7  -5   3    8.65    3.62
  -8   2   4   -1.44    4.47
  -9  -5   3    0.45    3.65
  -6   2   4   91.25    5.01
  -2   2   2  100.89    2.30
  -8  -4   4   15.24    3.87
  -3  -3   3  142.68    3.64
  -4   0   4  266.30    4.98
  -6  -4   4    6.46    3.39
  -4  -2   4   32.25    3.32
  -3   5   1   92.06    2.17
  -7  -1   5   19.41    4.49
  -9  -1   5   -0.37    3.95
  -7   1   5   20.02    4.65
  -9   1   5    4.34    4.22
  -8   4   4   13.34    3.98
  -6   6   2    1.34    2.70
  -4   2   4   28.91    3.42
  -5  -1   5   42.18    4.13
  -5   1   5   39.58    4.12
  -5   5   3   32.46    2.98
  -1   9   1    9.57    5.67
   0   8   6    0.64    4.73
  -1   5   5   42.74    3.47
   0  10   0    0.49    5.64
   0  10   2    9.21    5.12
  -1   7  -1   38.92    3.73
   1   7   7    4.62    3.91
   1   9  -3    0.91    4.07
  -1   3  -1  303.25    3.60
  -1   7   3   28.95    4.26
   0   6   6   45.22    3.58
   0   4   6   12.51    2.24
   1   9   5    6.57    4.77
  -1   5  -1  134.26    3.60
   1  -1  -1  667.90    3.11
   2   8  -4   -0.20    3.06
  -1   5   3   95.08    3.65
   1   9  -1    4.21    4.33
  -1   5   1  137.30    4.03
   0   8   2    1.95    4.34
  -1   3   1  302.01    3.65
   1   7  -3   32.68    3.91
   1   9   3    4.97    4.35
  -4   2   0   60.77    2.77
   1   5  -3   87.80    1.80
  -5   1   3   91.11    2.90
  -6   2   4   87.59    3.46
  -6   2   6    3.84    2.41
   1   7  -3   24.89    1.73
  -7   5   5    5.03    3.82
  -2   4  -2  378.36    4.54
  -6   4   2   89.52    4.66
  -3   3  -1  191.98    3.88
  -5   3   1   87.88    3.49
  -6   8   2   10.88    4.68
  -2   8  -2   40.32    3.37
  -5   1   5   43.77    2.33
  -6   6   2    3.58    3.92
  -4   0   6   13.25    1.35
  -5   5   1   44.96    4.15
   1  -1   1  664.66    3.07
  -6   4   4    7.59    3.50
  -3   1   1  304.49    3.33
  -3   5  -1   93.10    3.68
  -6   4   6   22.14    3.48
  -4   6   0   12.96    3.77
   3   1   1  303.92    4.01
   4   4   0  270.01    6.05
   4   8  -6   -1.87    5.29
   8  -2   0    0.90    2.86
   1   7  -5   11.75    3.11
   5  -1   1  136.30    3.09
   5   5  -1   41.01    5.30
   0   6  -4   11.73    2.50
   4   6  -2   89.00    5.72
   8   0   0   47.67    4.39
   9   1  -1    4.58    4.87
   8   4  -2    0.55    5.87
   3   7  -5    8.45    4.14
   0  -2   0  248.49    2.34
   7   3  -1   28.67    5.32
   7   5  -3    8.30    5.84
   6   6  -4   26.01    6.13
   9   3  -3    0.16    5.87
   2   2   0  986.66    6.54
   3   7  -7    3.23    4.71
   4   2   0   59.36    3.84
   6   4  -2   93.56    5.64
   7   7   3    2.81    4.76
   6   8   2   13.82    5.76
   0   6  -2  166.49    4.93
   1   5   1  139.58    4.34
   0   4   0  543.70    5.91
   6   4   4    6.81    2.99
   3   9  -5   -0.92    5.41
   3   9  -3    4.52    5.37
   2   8  -6   14.17    4.46
   3   7   1   27.76    4.87
   0   6  -4   12.64    2.94
   2   4   2  386.14    5.49
   4   8   0   25.23    5.06
  -1   3  -5   91.41    2.08
   1   7  -5   13.86    3.38
   2   8  -4    3.18    3.99
   4   6   2   85.84    4.86
   5   5   3   34.76    3.73
   0   2   0  250.65    2.93
   2   6   0  162.13    5.20
   7   5   3    9.98    3.75
   1   3   1  310.15    4.10
   5   7   1   17.13    4.16
   1   5  -7   16.75    2.29
   1  -7  -5   14.04    2.40
   0  -6  -2  165.09    2.10
   1  -3  -1  309.40    2.35
   2   0  -2  984.43    4.78
   2  -2  -2   99.80    2.05
   2   2 -10    1.44    2.87
   3   1  -5   88.33    2.70
   3  -3  -5   60.56    2.86
   3  -1  -9    6.02    3.33
   3   1  -7   25.39    2.95
   3  -3  -7   20.93    3.40
   3  -1  -5   91.85    3.46
   3  -1  -7   30.99    3.70
   2  -2 -10   -0.25    4.36
   2   0 -10    7.75    3.90
   2  -4  -8    1.62    3.48
   1  -1  -1  683.04    3.02
   1   3  -9    6.61    2.43
   0   0   0    0.00    0.00
;
_shelx_hkl_checksum              43151
loop_
_space_group_symop_operation_xyz
'x, y, z'
'-x, -y, z'
'-x, y, -z'
'x, -y, -z'
'z, x, y'
'z, -x, -y'
'-z, -x, y'
'-z, x, -y'
'y, z, x'
'-y, z, -x'
'y, -z, -x'
'-y, -z, x'
'y, x, -z'
'-y, -x, -z'
'y, -x, z'
'-y, x, z'
'x, z, -y'
'-x, z, y'
'-x, -z, -y'
'x, -z, y'
'z, y, -x'
'z, -y, x'
'-z, y, x'
'-z, -y, -x'
'x, y+1/2, z+1/2'
'-x, -y+1/2, z+1/2'
'-x, y+1/2, -z+1/2'
'x, -y+1/2, -z+1/2'
'z, x+1/2, y+1/2'
'z, -x+1/2, -y+1/2'
'-z, -x+1/2, y+1/2'
'-z, x+1/2, -y+1/2'
'y, z+1/2, x+1/2'
'-y, z+1/2, -x+1/2'
'y, -z+1/2, -x+1/2'
'-y, -z+1/2, x+1/2'
'y, x+1/2, -z+1/2'
'-y, -x+1/2, -z+1/2'
'y, -x+1/2, z+1/2'
'-y, x+1/2, z+1/2'
'x, z+1/2, -y+1/2'
'-x, z+1/2, y+1/2'
'-x, -z+1/2, -y+1/2'
'x, -z+1/2, y+1/2'
'z, y+1/2, -x+1/2'
'z, -y+1/2, x+1/2'
'-z, y+1/2, x+1/2'
'-z, -y+1/2, -x+1/2'
'x+1/2, y, z+1/2'
'-x+1/2, -y, z+1/2'
'-x+1/2, y, -z+1/2'
'x+1/2, -y, -z+1/2'
'z+1/2, x, y+1/2'
'z+1/2, -x, -y+1/2'
'-z+1/2, -x, y+1/2'
'-z+1/2, x, -y+1/2'
'y+1/2, z, x+1/2'
'-y+1/2, z, -x+1/2'
'y+1/2, -z, -x+1/2'
'-y+1/2, -z, x+1/2'
'y+1/2, x, -z+1/2'
'-y+1/2, -x, -z+1/2'
'y+1/2, -x, z+1/2'
'-y+1/2, x, z+1/2'
'x+1/2, z, -y+1/2'
'-x+1/2, z, y+1/2'
'-x+1/2, -z, -y+1/2'
'x+1/2, -z, y+1/2'
'z+1/2, y, -x+1/2'
'z+1/2, -y, x+1/2'
'-z+1/2, y, x+1/2'
'-z+1/2, -y, -x+1/2'
'x+1/2, y+1/2, z'
'-x+1/2, -y+1/2, z'
'-x+1/2, y+1/2, -z'
'x+1/2, -y+1/2, -z'
'z+1/2, x+1/2, y'
'z+1/2, -x+1/2, -y'
'-z+1/2, -x+1/2, y'
'-z+1/2, x+1/2, -y'
'y+1/2, z+1/2, x'
'-y+1/2, z+1/2, -x'
'y+1/2, -z+1/2, -x'
'-y+1/2, -z+1/2, x'
'y+1/2, x+1/2, -z'
'-y+1/2, -x+1/2, -z'
'y+1/2, -x+1/2, z'
'-y+1/2, x+1/2, z'
'x+1/2, z+1/2, -y'
'-x+1/2, z+1/2, y'
'-x+1/2, -z+1/2, -y'
'x+1/2, -z+1/2, y'
'z+1/2, y+1/2, -x'
'z+1/2, -y+1/2, x'
'-z+1/2, y+1/2, x'
'-z+1/2, -y+1/2, -x'
'-x, -y, -z'
'x, y, -z'
'x, -y, z'
'-x, y, z'
'-z, -x, -y'
'-z, x, y'
'z, x, -y'
'z, -x, y'
'-y, -z, -x'
'y, -z, x'
'-y, z, x'
'y, z, -x'
'-y, -x, z'
'y, x, z'
'-y, x, -z'
'y, -x, -z'
'-x, -z, y'
'x, -z, -y'
'x, z, y'
'-x, z, -y'
'-z, -y, x'
'-z, y, -x'
'z, -y, -x'
'z, y, x'
'-x, -y+1/2, -z+1/2'
'x, y+1/2, -z+1/2'
'x, -y+1/2, z+1/2'
'-x, y+1/2, z+1/2'
'-z, -x+1/2, -y+1/2'
'-z, x+1/2, y+1/2'
'z, x+1/2, -y+1/2'
'z, -x+1/2, y+1/2'
'-y, -z+1/2, -x+1/2'
'y, -z+1/2, x+1/2'
'-y, z+1/2, x+1/2'
'y, z+1/2, -x+1/2'
'-y, -x+1/2, z+1/2'
'y, x+1/2, z+1/2'
'-y, x+1/2, -z+1/2'
'y, -x+1/2, -z+1/2'
'-x, -z+1/2, y+1/2'
'x, -z+1/2, -y+1/2'
'x, z+1/2, y+1/2'
'-x, z+1/2, -y+1/2'
'-z, -y+1/2, x+1/2'
'-z, y+1/2, -x+1/2'
'z, -y+1/2, -x+1/2'
'z, y+1/2, x+1/2'
'-x+1/2, -y, -z+1/2'
'x+1/2, y, -z+1/2'
'x+1/2, -y, z+1/2'
'-x+1/2, y, z+1/2'
'-z+1/2, -x, -y+1/2'
'-z+1/2, x, y+1/2'
'z+1/2, x, -y+1/2'
'z+1/2, -x, y+1/2'
'-y+1/2, -z, -x+1/2'
'y+1/2, -z, x+1/2'
'-y+1/2, z, x+1/2'
'y+1/2, z, -x+1/2'
'-y+1/2, -x, z+1/2'
'y+1/2, x, z+1/2'
'-y+1/2, x, -z+1/2'
'y+1/2, -x, -z+1/2'
'-x+1/2, -z, y+1/2'
'x+1/2, -z, -y+1/2'
'x+1/2, z, y+1/2'
'-x+1/2, z, -y+1/2'
'-z+1/2, -y, x+1/2'
'-z+1/2, y, -x+1/2'
'z+1/2, -y, -x+1/2'
'z+1/2, y, x+1/2'
'-x+1/2, -y+1/2, -z'
'x+1/2, y+1/2, -z'
'x+1/2, -y+1/2, z'
'-x+1/2, y+1/2, z'
'-z+1/2, -x+1/2, -y'
'-z+1/2, x+1/2, y'
'z+1/2, x+1/2, -y'
'z+1/2, -x+1/2, y'
'-y+1/2, -z+1/2, -x'
'y+1/2, -z+1/2, x'
'-y+1/2, z+1/2, x'
'y+1/2, z+1/2, -x'
'-y+1/2, -x+1/2, z'
'y+1/2, x+1/2, z'
'-y+1/2, x+1/2, -z'
'y+1/2, -x+1/2, -z'
'-x+1/2, -z+1/2, y'
'x+1/2, -z+1/2, -y'
'x+1/2, z+1/2, y'
'-x+1/2, z+1/2, -y'
'-z+1/2, -y+1/2, x'
'-z+1/2, y+1/2, -x'
'z+1/2, -y+1/2, -x'
'z+1/2, y+1/2, x'
loop_
_atom_site_label
_atom_site_type_symbol
_atom_site_fract_x
_atom_site_fract_y
_atom_site_fract_z
_atom_site_U_iso_or_equiv
_atom_site_adp_type
_atom_site_occupancy
_atom_site_site_symmetry_order
_atom_site_calc_flag
_atom_site_refinement_flags_posn
_atom_site_refinement_flags_adp
_atom_site_refinement_flags_occupancy
Li1 Li 0.2500 0.2500 0.2500 0.0191(9) Uani 0.9166 24 d S T P
Li2 Li 0.5000 0.0000 0.0000 0.086(17) Uani 0.5002 48 d S T P
Si Si 0.2500 0.2500 0.2500 0.0191(9) Uani 0.0833 24 d S T P
P P 0.0000 0.0000 0.0000 0.0263(5) Uani 1 48 d S T P
loop_
_atom_site_aniso_label
_atom_site_aniso_U_11
_atom_site_aniso_U_22
_atom_site_aniso_U_33
_atom_site_aniso_U_23
_atom_site_aniso_U_13
_atom_site_aniso_U_12
Li1 0.0191(9) 0.0191(9) 0.0191(9) 0.000 0.000 0.000
Li2 0.086(17) 0.086(17) 0.086(17) 0.000 0.000 0.000
Si 0.0191(9) 0.0191(9) 0.0191(9) 0.000 0.000 0.000
P 0.0263(5) 0.0263(5) 0.0263(5) 0.000 0.000 0.000
loop_
_atom_type_symbol
_atom_type_description
_atom_type_scat_dispersion_real
_atom_type_scat_dispersion_imag
_atom_type_scat_source
Li Li -0.0003 0.0001 'International Tables Vol C Tables 4.2.6.8 and 6.1.1.4'
Si Si 0.0817 0.0704 'International Tables Vol C Tables 4.2.6.8 and 6.1.1.4'
P P 0.1023 0.0942 'International Tables Vol C Tables 4.2.6.8 and 6.1.1.4'
loop_
_geom_angle_atom_site_label_1
_geom_angle_atom_site_label_2
_geom_angle_atom_site_label_3
_geom_angle
_geom_angle_site_symmetry_1
_geom_angle_site_symmetry_3
Li2 Li1 P 180.0 25 .
Li2 Li1 P 70.529(1) 25 73
P Li1 P 109.471(1) . 73
Li2 Li1 P 70.5 25 49
P Li1 P 109.5 . 49
P Li1 P 109.5 73 49
Li2 Li1 P 70.5 25 25
P Li1 P 109.5 . 25
P Li1 P 109.5 73 25
P Li1 P 109.5 49 25
Li2 Li1 Li2 109.5 25 73_455
P Li1 Li2 70.5 . 73_455
P Li1 Li2 70.5 73 73_455
P Li1 Li2 180.0 49 73_455
P Li1 Li2 70.5 25 73_455
Li2 Li1 Li2 109.5 25 49_455
P Li1 Li2 70.529(1) . 49_455
P Li1 Li2 180.0 73 49_455
P Li1 Li2 70.5 49 49_455
P Li1 Li2 70.5 25 49_455
Li2 Li1 Li2 109.5 73_455 49_455
Li2 Li1 Li2 109.5 25 .
P Li1 Li2 70.5 . .
P Li1 Li2 70.5 73 .
P Li1 Li2 70.5 49 .
P Li1 Li2 180.0 25 .
Li2 Li1 Li2 109.5 73_455 .
Li2 Li1 Li2 109.5 49_455 .
Li2 Li1 Li1 125.3 25 121
P Li1 Li1 54.7 . 121
P Li1 Li1 125.3 73 121
P Li1 Li1 125.3 49 121
P Li1 Li1 54.7 25 121
Li2 Li1 Li1 54.7 73_455 121
Li2 Li1 Li1 54.7 49_455 121
Li2 Li1 Li1 125.3 . 121
Li2 Li1 Li1 54.7 25 169_556
P Li1 Li1 125.3 . 169_556
P Li1 Li1 125.3 73 169_556
P Li1 Li1 54.7 49 169_556
P Li1 Li1 54.7 25 169_556
Li2 Li1 Li1 125.3 73_455 169_556
Li2 Li1 Li1 54.7 49_455 169_556
Li2 Li1 Li1 125.3 . 169_556
Li1 Li1 Li1 90.0 121 169_556
Li2 Li1 Li1 125.3 25 169
P Li1 Li1 54.7 . 169
P Li1 Li1 54.7 73 169
P Li1 Li1 125.3 49 169
P Li1 Li1 125.3 25 169
Li2 Li1 Li1 54.7 73_455 169
Li2 Li1 Li1 125.3 49_455 169
Li2 Li1 Li1 54.7 . 169
Li1 Li1 Li1 90.0 121 169
Li1 Li1 Li1 180.0 169_556 169
Li2 Li1 Li1 54.7 25 145_565
P Li1 Li1 125.3 . 145_565
P Li1 Li1 54.7 73 145_565
P Li1 Li1 125.3 49 145_565
P Li1 Li1 54.7 25 145_565
Li2 Li1 Li1 54.7 73_455 145_565
Li2 Li1 Li1 125.3 49_455 145_565
Li2 Li1 Li1 125.3 . 145_565
Li1 Li1 Li1 90.0 121 145_565
Li1 Li1 Li1 90.0 169_556 145_565
Li1 Li1 Li1 90.0 169 145_565
Si Li2 Si 180.0 121_655 25_544
Si Li2 Li1 0.0 121_655 121_655
Si Li2 Li1 180.0 25_544 121_655
Si Li2 Li1 180.0 121_655 25_544
Si Li2 Li1 0.0 25_544 25_544
Li1 Li2 Li1 180.0 121_655 25_544
Si Li2 Si 109.5 121_655 169
Si Li2 Si 70.5 25_544 169
Li1 Li2 Si 109.5 121_655 169
Li1 Li2 Si 70.5 25_544 169
Si Li2 Li1 70.5 121_655 49_554
Si Li2 Li1 109.5 25_544 49_554
Li1 Li2 Li1 70.5 121_655 49_554
Li1 Li2 Li1 109.471(1) 25_544 49_554
Si Li2 Li1 70.5 169 49_554
Si Li2 Li1 70.5 121_655 73_545
Si Li2 Li1 109.5 25_544 73_545
Li1 Li2 Li1 70.5 121_655 73_545
Li1 Li2 Li1 109.5 25_544 73_545
Si Li2 Li1 180.0 169 73_545
Li1 Li2 Li1 109.471(1) 49_554 73_545
Si Li2 Li1 109.5 121_655 97_655
Si Li2 Li1 70.5 25_544 97_655
Li1 Li2 Li1 109.5 121_655 97_655
Li1 Li2 Li1 70.5 25_544 97_655
Si Li2 Li1 109.5 169 97_655
Li1 Li2 Li1 70.5 49_554 97_655
Li1 Li2 Li1 70.5 73_545 97_655
Si Li2 Si 109.5 121_655 145
Si Li2 Si 70.5 25_544 145
Li1 Li2 Si 109.5 121_655 145
Li1 Li2 Si 70.5 25_544 145
Si Li2 Si 109.5 169 145
Li1 Li2 Si 180.0 49_554 145
Li1 Li2 Si 70.5 73_545 145
Li1 Li2 Si 109.5 97_655 145
Si Li2 Li1 109.5 121_655 145
Si Li2 Li1 70.5 25_544 145
Li1 Li2 Li1 109.5 121_655 145
Li1 Li2 Li1 70.5 25_544 145
Si Li2 Li1 109.5 169 145
Li1 Li2 Li1 180.0 49_554 145
Li1 Li2 Li1 70.5 73_545 145
Li1 Li2 Li1 109.5 97_655 145
Si Li2 Li1 0.0 145 145
Si Li2 Li1 109.5 121_655 169
Si Li2 Li1 70.5 25_544 169
Li1 Li2 Li1 109.5 121_655 169
Li1 Li2 Li1 70.5 25_544 169
Si Li2 Li1 0.0 169 169
Li1 Li2 Li1 70.5 49_554 169
Li1 Li2 Li1 180.0 73_545 169
Li1 Li2 Li1 109.5 97_655 169
Si Li2 Li1 109.5 145 169
Li1 Li2 Li1 109.5 145 169
Si P Li1 180.0 97 .
Si P Li1 0.0 97 97
Li1 P Li1 180.0 . 97
Si P Si 109.5 97 169
Li1 P Si 70.5 . 169
Li1 P Si 109.5 97 169
Si P Li1 70.5 97 49_454
Li1 P Li1 109.5 . 49_454
Li1 P Li1 70.5 97 49_454
Si P Li1 70.5 169 49_454
Si P Li1 70.5 97 73_445
Li1 P Li1 109.5 . 73_445
Li1 P Li1 70.5 97 73_445
Si P Li1 180.0 169 73_445
Li1 P Li1 109.5 49_454 73_445
Si P Li1 70.5 97 25_544
Li1 P Li1 109.5 . 25_544
Li1 P Li1 70.5 97 25_544
Si P Li1 70.5 169 25_544
Li1 P Li1 109.5 49_454 25_544
Li1 P Li1 109.5 73_445 25_544
Si P Li1 109.5 97 121
Li1 P Li1 70.5 . 121
Li1 P Li1 109.5 97 121
Si P Li1 109.5 169 121
Li1 P Li1 70.5 49_454 121
Li1 P Li1 70.5 73_445 121
Li1 P Li1 180.0 25_544 121
Si P Li1 109.5 97 145
Li1 P Li1 70.5 . 145
Li1 P Li1 109.5 97 145
Si P Li1 109.5 169 145
Li1 P Li1 180.0 49_454 145
Li1 P Li1 70.5 73_445 145
Li1 P Li1 70.5 25_544 145
Li1 P Li1 109.5 121 145
Si P Li1 109.5 97 169
Li1 P Li1 70.5 . 169
Li1 P Li1 109.5 97 169
Si P Li1 0.0 169 169
Li1 P Li1 70.5 49_454 169
Li1 P Li1 180.0 73_445 169
Li1 P Li1 70.5 25_544 169
Li1 P Li1 109.5 121 169
Li1 P Li1 109.5 145 169
Si P Si 109.5 97 145
Li1 P Si 70.5 . 145
Li1 P Si 109.5 97 145
Si P Si 109.5 169 145
Li1 P Si 180.0 49_454 145
Li1 P Si 70.5 73_445 145
Li1 P Si 70.5 25_544 145
Li1 P Si 109.5 121 145
Li1 P Si 0.0 145 145
Li1 P Si 109.5 169 145
loop_
_geom_bond_atom_site_label_1
_geom_bond_atom_site_label_2
_geom_bond_distance
_geom_bond_site_symmetry_2
Li1 Li2 2.5657(3) 25
Li1 P 2.5657(3) .
Li1 P 2.5657(3) 73
Li1 P 2.5657(3) 49
Li1 P 2.5657(3) 25
Li1 Li2 2.5657(3) 73_455
Li1 Li2 2.5657(3) 49_455
Li1 Li2 2.5657(3) .
Li1 Li1 2.9627(4) 121
Li1 Li1 2.9626(4) 169_556
Li1 Li1 2.9627(4) 169
Li1 Li1 2.9627(4) 145_565
Li2 Si 2.5657(3) 121_655
Li2 Si 2.5657(3) 25_544
Li2 Li1 2.5657(3) 121_655
Li2 Li1 2.5657(3) 25_544
Li2 Si 2.5657(3) 169
Li2 Li1 2.5657(3) 49_554
Li2 Li1 2.5657(3) 73_545
Li2 Li1 2.5657(3) 97_655
Li2 Si 2.5657(3) 145
Li2 Li1 2.5657(3) 145
Li2 Li1 2.5657(3) 169
P Si 2.5657(3) 97
P Li1 2.5657(3) 97
P Si 2.5657(3) 169
P Li1 2.5657(3) 49_454
P Li1 2.5657(3) 73_445
P Li1 2.5657(3) 25_544
P Li1 2.5657(3) 121
P Li1 2.5657(3) 145
P Li1 2.5657(3) 169
P Si 2.5657(3) 145
