#------------------------------------------------------------------------------
#$Date: 2019-11-20 01:45:43 +0200 (Wed, 20 Nov 2019) $
#$Revision: 231059 $
#$URL: file:///home/coder/svn-repositories/cod/cif/4/12/91/4129175.cif $
#------------------------------------------------------------------------------
#
# This file is available in the Crystallography Open Database (COD),
# http://www.crystallography.net/
#
# All data on this site have been placed in the public domain by the
# contributors.
#
data_4129175
loop_
_publ_author_name
'Zhou, Laidong'
'Assoud, Abdeljalil'
'Zhang, Qiang'
'Wu, Xiaohan'
'Nazar, Linda F.'
_publ_section_title
;
 A New Family of Argyrodite Thioantimonate Lithium Superionic Conductors.
;
_journal_name_full               'Journal of the American Chemical Society'
_journal_paper_doi               10.1021/jacs.9b08357
_journal_year                    2019
_chemical_formula_moiety         'I1.03 Li6.47 S4.97 Sb0.80 Sn0.20'
_chemical_formula_sum            'I1.03 Li6.47 S4.97 Sb0.8 Sn0.2'
_chemical_formula_weight         456.38
_space_group_crystal_system      cubic
_space_group_IT_number           216
_space_group_name_Hall           'F -4 2 3'
_space_group_name_H-M_alt        'F -4 3 m'
_audit_creation_method           SHELXL-2016/6
_cell_angle_alpha                90
_cell_angle_beta                 90
_cell_angle_gamma                90
_cell_formula_units_Z            4
_cell_length_a                   10.4419(6)
_cell_length_b                   10.4419(6)
_cell_length_c                   10.4419(6)
_cell_measurement_reflns_used    202
_cell_measurement_temperature    280(2)
_cell_measurement_theta_max      29.704
_cell_measurement_theta_min      3.379
_cell_volume                     1138.51(11)
_computing_cell_refinement       'SMART, 'Bruker APEX II'
_computing_data_collection       'Bruker kappa APEX II'
_computing_data_reduction        'SMART, 'Bruker APEX II'
_computing_structure_refinement  'SHELXL-2016/6 (Sheldrick, 2016)'
_computing_structure_solution    'SHELXL-2016 (Sheldrick, 2016)'
_diffrn_ambient_temperature      280(2)
_diffrn_measured_fraction_theta_full 1.000
_diffrn_measured_fraction_theta_max 1.000
_diffrn_measurement_device_type  'BRUKER kappa APEX II'
_diffrn_measurement_method       'Omega and phi scan'
_diffrn_radiation_type           MoK\a
_diffrn_radiation_wavelength     0.71073
_diffrn_reflns_av_R_equivalents  0.0189
_diffrn_reflns_av_unetI/netI     0.0111
_diffrn_reflns_Laue_measured_fraction_full 1.000
_diffrn_reflns_Laue_measured_fraction_max 1.000
_diffrn_reflns_limit_h_max       12
_diffrn_reflns_limit_h_min       -12
_diffrn_reflns_limit_k_max       0
_diffrn_reflns_limit_k_min       -14
_diffrn_reflns_limit_l_max       12
_diffrn_reflns_limit_l_min       -11
_diffrn_reflns_number            2020
_diffrn_reflns_point_group_measured_fraction_full 1.000
_diffrn_reflns_point_group_measured_fraction_max 1.000
_diffrn_reflns_theta_full        25.242
_diffrn_reflns_theta_max         29.704
_diffrn_reflns_theta_min         3.379
_diffrn_source                   'fine-focus sealed tube'
_exptl_absorpt_coefficient_mu    6.030
_exptl_absorpt_correction_T_max  0.7460
_exptl_absorpt_correction_T_min  0.5518
_exptl_absorpt_correction_type   multi-scan
_exptl_absorpt_process_details
;
 SADABS 2016/2: Krause, L., Herbst-Irmer, R., Sheldrick G.M. & Stalke D.,
 J. Appl. Cryst. 48 (2015) 3-10
;
_exptl_crystal_colour            Colourless
_exptl_crystal_density_diffrn    2.663
_exptl_crystal_description       Plate
_exptl_crystal_F_000             818
_exptl_crystal_size_max          0.130
_exptl_crystal_size_mid          0.085
_exptl_crystal_size_min          0.010
_refine_diff_density_max         0.510
_refine_diff_density_min         -0.254
_refine_diff_density_rms         0.071
_refine_ls_abs_structure_details
;
 Flack x determined using 87 quotients [(I+)-(I-)]/[(I+)+(I-)]
 (Parsons, Flack and Wagner, Acta Cryst. B69 (2013) 249-259).
;
_refine_ls_abs_structure_Flack   0.02(3)
_refine_ls_extinction_method     none
_refine_ls_goodness_of_fit_ref   1.063
_refine_ls_hydrogen_treatment    undef
_refine_ls_matrix_type           full
_refine_ls_number_parameters     19
_refine_ls_number_reflns         202
_refine_ls_number_restraints     0
_refine_ls_restrained_S_all      1.063
_refine_ls_R_factor_all          0.0096
_refine_ls_R_factor_gt           0.0096
_refine_ls_shift/su_max          0.000
_refine_ls_shift/su_mean         0.000
_refine_ls_structure_factor_coef Fsqd
_refine_ls_weighting_details
'w=1/[\s^2^(Fo^2^)+(0.0184P)^2^] where P=(Fo^2^+2Fc^2^)/3'
_refine_ls_weighting_scheme      calc
_refine_ls_wR_factor_gt          0.0236
_refine_ls_wR_factor_ref         0.0236
_reflns_Friedel_coverage         0.757
_reflns_Friedel_fraction_full    1.000
_reflns_Friedel_fraction_max     1.000
_reflns_number_gt                202
_reflns_number_total             202
_reflns_threshold_expression     'I > 2\s(I)'
_cod_data_source_file            Li6.2Sn0.2Sb0.8S5I.cif
_cod_data_source_block           Li6.2Sn0.2Sb0.8S5I
_cod_original_cell_volume        1138.5(2)
_cod_original_formula_sum        'I1.03 Li6.47 S4.97 Sb0.80 Sn0.20'
_cod_database_code               4129175
_shelx_shelxl_version_number     2016/6
_shelx_space_group_comment
;
The symmetry employed for this shelxl refinement is uniquely defined
by the following loop, which should always be used as a source of
symmetry information in preference to the above space-group names.
They are only intended as comments.
;
_shelx_estimated_absorpt_t_min   0.508
_shelx_estimated_absorpt_t_max   0.942
_shelx_res_file
;
TITL LN39_0m in F-43m
    LN39_Li iso.res
    created by SHELXL-2016/6 at 10:53:46 on 01-Feb-2019
CELL 0.71073  10.44190  10.44190  10.44190  90.0000  90.0000  90.0000
ZERR    4.00   0.00060   0.00060   0.00060   0.0000   0.0000   0.0000
LATT -4
SYMM -X, -Y, Z
SYMM -X, Y, -Z
SYMM X, -Y, -Z
SYMM Z, X, Y
SYMM Z, -X, -Y
SYMM -Z, -X, Y
SYMM -Z, X, -Y
SYMM Y, Z, X
SYMM -Y, Z, -X
SYMM Y, -Z, -X
SYMM -Y, -Z, X
SYMM Y, X, Z
SYMM -Y, -X, Z
SYMM Y, -X, -Z
SYMM -Y, X, -Z
SYMM X, Z, Y
SYMM -X, Z, -Y
SYMM -X, -Z, Y
SYMM X, -Z, -Y
SYMM Z, Y, X
SYMM Z, -Y, -X
SYMM -Z, Y, -X
SYMM -Z, -Y, X
SFAC I LI S SB SN
UNIT 4.13253 25.8672 19.8684 3.20064 0.79968
TEMP 6.840
SIZE 0.01 0.085 0.13
ACTA
L.S. 10
BOND
LIST 4

EXYZ SB1 SN1
EADP SB1 SN1
EXYZ S1 I2
EADP S1 I2
EXYZ I1 S3
EADP I1 S3
OMIT -3 60

FMAP 2
PLAN 10
WGHT    0.018400
FVAR       0.22441   0.95660   0.98965
I1    1    0.500000    0.500000    0.000000    30.04167    0.03889    0.03889 =
         0.03889    0.00000    0.00000    0.00000
S3    3    0.500000    0.500000    0.000000   -30.04167    0.03889    0.03889 =
         0.03889    0.00000    0.00000    0.00000
SB1   4    0.500000    0.500000    0.500000    10.03334    0.01371    0.01371 =
         0.01371    0.00000    0.00000    0.00000
SN1   5    0.500000    0.500000    0.500000    10.00833    0.01371    0.01371 =
         0.01371    0.00000    0.00000    0.00000
S1    3    0.250000    0.250000    0.250000    20.04167    0.01999    0.01999 =
         0.01999    0.00000    0.00000    0.00000
I2    1    0.250000    0.250000    0.250000   -20.04167    0.01999    0.01999 =
         0.01999    0.00000    0.00000    0.00000
S2    3    0.371495    0.371495    0.628505    10.16667    0.02076    0.02076 =
         0.02076    0.00335    0.00335   -0.00335
LI1   2    0.291715    0.523813    0.791715     0.20949    0.04079    0.03648 =
         0.04079   -0.00194    0.00830   -0.00194
LI2   2    0.250000    0.520994    0.750000     0.05996    0.04186
HKLF 4 1 -1 0 0 0 -1 0 0 0 -1




REM  LN39_0m in F-43m
REM R1 =  0.0096 for     202 Fo > 4sig(Fo)  and  0.0096 for all     202 data
REM     19 parameters refined using      0 restraints

END

WGHT      0.0165      0.0000

REM Highest difference peak  0.510,  deepest hole -0.254,  1-sigma level  0.071
Q1    1   0.5854  0.5000  0.5000  10.25000  0.05    0.51
Q2    1   0.5843  0.5000  0.0000  10.25000  0.05    0.46
Q3    1   0.1636  0.2500  0.2500  10.25000  0.05    0.16
Q4    1   0.3761  0.3761  0.5181  10.50000  0.05    0.16
Q5    1   0.3589  0.4588  0.6411  10.50000  0.05    0.13
Q6    1   0.2918  0.3663  0.6337  10.50000  0.05    0.11
Q7    1   0.3291  0.4588  0.8291  10.50000  0.05    0.08
Q8    1   0.2777  0.4476  0.8566  11.00000  0.05    0.06
Q9    1   0.4345  0.5021  0.7554  11.00000  0.05    0.06
Q10   1   0.4646  0.4938  0.7820  11.00000  0.05    0.04
;
_shelx_res_checksum              15081
_shelx_hkl_file
;
   1   1  -1 248.383 6.11853   4
  -1   1   1 245.784 6.20008   4
  -1   1  -1 259.559 6.36988   4
  -1   1  -1 256.567 6.19153   2
   0   2   0 4405.30 104.085   2
   0   2   0 4376.97 104.874   4
  -2   0  -2 7597.59 181.962   2
  -2   2   0 7771.74 182.923   2
  -2   2   0 7743.99 184.187   4
   0   2  -2 7597.93 186.864   1
   0   2  -2 7882.05 183.455   2
   0   2  -2 7844.68 183.898   4
   2   2  -2 6718.02 157.538   4
  -2   2   2 6285.14 157.766   4
  -2   2  -2 6710.46 159.725   3
  -2   2  -2 6823.79 158.212   2
  -2   2  -2 6849.88 160.747   1
   1   3  -1 968.112 24.3136   1
  -3   1   1 966.672 23.1746   4
   1   3  -1 979.372 23.4453   3
   1   3  -1 992.216 23.4569   4
  -1   3   1 984.634 23.5167   4
   1   3  -1 994.311 23.2584   2
  -1   3   1 959.403 23.4880   3
  -1   3   1 969.744 24.2912   1
  -1   3   1 980.620 23.2515   2
  -1   3   1 989.444 23.4201   5
  -1   3  -1 950.300 23.5141   3
  -1   3  -1 942.704 23.3646   5
  -3   1  -1 918.085 23.1592   2
  -1   3  -1 954.229 23.5146   4
  -1   1  -3 951.104 23.1730   2
  -1   3  -1 1014.71 24.3114   1
   1   3   1 1001.59 24.4228   1
   1   3   1 970.053 23.0726   2
   1   3   1 971.978 23.3084   5
  -1   3   3 259.800 7.01137   3
  -1   3   3 258.607 7.01551   4
  -3   1   3 251.566 6.48201   4
   3   3  -1 262.474 6.87372   4
   1   3  -3 269.142 6.98596   4
   1   3  -3 259.129 6.95069   5
   1   3  -3 252.016 7.63849   1
  -3   3   1 244.799 7.95611   1
  -3   3   1 261.916 6.93016   2
  -3   3   1 248.003 6.94115   3
  -3   3   1 257.953 6.97612   4
   1   3  -3 262.375 6.96824   3
   3   3  -1 260.298 6.87891   3
  -1   3  -3 269.261 7.21511   3
  -1   3  -3 274.261 7.24181   4
  -1   3  -3 263.174 6.86010   5
  -3   1  -3 249.460 7.67587   1
  -3   1  -3 257.496 6.61397   2
  -3   3  -1 256.799 7.13421   4
  -1   3  -3 264.381 7.95720   1
  -3   3  -1 259.431 6.84671   2
  -3   3  -1 253.382 7.10994   3
   1   3   3 265.901 6.46415   2
   1   3   3 264.493 6.68590   5
  -1   3  -3 264.159 6.87373   2
  -3   3  -1 273.534 8.09085   1
   3   3   1 265.578 6.77939   5
   3   3  -3 435.878 10.7673   4
  -3   3   3 430.334 10.9476   4
  -3   3   3 416.401 10.9173   3
  -3   3  -3 427.302 10.8072   5
  -3   3  -3 426.257 11.4114   3
  -3   3  -3 433.303 10.8898   2
  -3   3  -3 443.605 12.4061   1
   0   4   0 2333.39 55.6752   1
   0   4   0 2322.12 54.5641   2
   0   4   0 2277.31 54.9163   3
   0   4   0 2310.99 54.9313   4
   0   4   0 2285.04 54.7668   5
   0   4   2 3119.92 71.8444   2
   0   4   2 3046.37 72.3419   3
   0   4   2 3061.14 72.3495   4
   0   4   2 3133.15 72.1188   5
   0   4  -2 3017.34 72.1491   5
   0   4   2 3069.51 73.2491   1
   0   4  -2 3078.01 72.3151   3
   0   4  -2 3132.85 72.3310   4
   0   4  -2 3146.80 73.2137   1
   0   4  -2 3085.67 72.0307   2
  -4   2   0 2982.17 72.1320   3
  -4   2   0 3002.33 72.1210   4
  -4   2   0 2698.73 72.7463   1
  -4   2   0 3073.94 72.0331   2
   2   4   0 3155.65 72.9009   4
   2   4   0 3068.92 72.7142   5
   2   4   0 3048.39 72.3797   2
   2   4   0 3091.04 72.8813   3
   0   2  -4 3027.69 72.5455   5
   2   4   0 3115.61 73.2097   1
  -2   4   0 3033.73 72.9048   4
  -2   4   0 3151.61 72.8197   5
  -4   0  -2 2956.56 72.2468   2
  -2   4   0 3154.37 74.0739   1
  -2   4   0 3043.78 72.6038   2
  -2   4   0 3010.77 72.8957   3
  -2   4   2 5063.71 119.569   4
   2   4  -2 4954.82 120.896   1
  -4   2   2 5018.05 120.315   1
  -4   2   2 4885.49 119.156   3
  -4   2   2 5037.30 119.176   4
  -2   4   2 4844.95 121.756   1
   2   4  -2 5291.94 119.507   3
   2   4  -2 5318.49 119.819   4
   2   4  -2 5099.76 119.872   5
  -2   4   2 4991.30 119.545   3
  -2   4   2 5242.96 119.998   2
  -2   4  -2 5088.78 120.230   4
  -2   4  -2 5085.41 119.738   5
  -2   2  -4 5101.34 121.484   1
  -2   4  -2 5072.38 120.675   3
  -2   4  -2 5228.07 119.383   2
  -4   2  -2 4736.94 120.208   1
  -4   2  -2 4911.36 119.370   2
  -2   2  -4 5002.38 119.411   2
  -2   2  -4 5049.67 119.288   5
  -2   4  -2 5320.06 122.915   1
   2   4   2 5011.03 119.110   2
   2   4   2 5152.85 119.268   5
  -4   0  -4 9454.57 227.689   2
  -4   4   0 9096.64 229.270   1
  -4   4   0 9802.63 229.395   2
  -4   4   0 9488.17 230.253   3
  -4   4   0 9707.61 230.187   4
   0   4  -4 9720.47 235.414   1
   0   4  -4 9741.11 229.730   2
   0   4  -4 9962.28 230.150   3
   0   4  -4 9999.99 231.034   4
   0   4  -4 9870.26 229.871   5
   4   4   0 9778.77 229.614   5
   4   4  -2 1830.26 45.3131   1
   4   4  -2 1823.48 45.0628   3
  -4   2   4 1884.62 44.8294   3
  -4   2   4 1938.77 44.8256   4
   2   4  -4 1917.73 45.3611   5
   2   4  -4 1909.17 46.2630   1
   2   4  -4 1841.24 45.1864   3
   2   4  -4 1840.39 45.1716   4
  -4   4   2 1802.61 46.7291   1
  -4   4   2 1902.23 45.2832   3
  -4   4   2 1904.08 45.2914   4
  -2   4   4 1908.70 45.3232   3
   4   4  -2 1849.24 45.0837   4
   4   4  -2 1917.64 45.4008   5
  -2   4   4 1910.64 45.3372   4
  -2   4  -4 1933.33 46.9135   1
  -2   4  -4 1871.48 45.0665   5
  -4   4  -2 1879.80 45.1068   2
  -4   4  -2 1877.98 45.5975   3
  -4   4  -2 1924.24 45.6333   4
  -4   4  -2 1931.32 46.9425   1
   2   4   4 1865.48 44.8058   5
  -4   2  -4 1831.61 46.5117   1
  -4   2  -4 1863.87 44.8757   2
  -2   4  -4 1920.02 45.1305   2
  -2   4  -4 1935.11 45.7098   3
   4   4   2 1888.37 45.3985   1
   4   4   2 1917.65 44.9523   5
   4   4  -4 986.966 24.8126   4
  -4   4   4 1015.07 25.1292   4
  -4   4   4 996.102 25.1078   3
  -4   4  -4 1030.64 24.9619   5
  -4   4  -4 1048.74 25.8661   3
  -4   4  -4 1037.36 25.0587   2
  -4   4  -4 1055.89 27.1874   1
   1   5  -1 683.091 16.7166   3
   1   5  -1 677.427 16.7010   4
  -5   1   1 616.079 16.7306   1
   1   5  -1 658.830 16.2124   2
  -1   5   1 661.547 16.7066   4
  -1   5   1 661.751 16.5123   5
   1   5  -1 654.693 16.5048   5
  -1   5   1 651.030 16.6829   3
   1   5  -1 659.954 17.3042   1
  -1   5   1 679.536 17.8864   1
  -1   5   1 659.167 16.2332   2
  -1   5  -1 671.252 16.7423   4
  -1   5  -1 671.881 17.7793   1
  -1   5  -1 658.734 16.3236   2
  -1   5  -1 661.545 16.5247   5
  -1   1  -5 647.303 16.1768   5
  -5   1  -1 599.690 16.7206   1
  -5   1  -1 647.018 16.1617   2
  -1   5  -1 653.167 16.7168   3
   1   5   1 677.211 17.4599   1
   1   5   1 670.763 16.0885   2
   1   5   1 666.175 16.7334   3
   1   5   1 674.676 16.7622   4
   1   5   1 664.030 16.4409   5
  -1   5   3 217.062 6.38486   4
   1   5  -3 218.343 7.16941   1
   1   5  -3 217.714 6.04872   2
   1   5  -3 220.892 6.38892   3
   1   5  -3 224.813 6.40380   4
   1   5  -3 211.553 6.22257   5
  -1   5   3 213.825 7.55707   1
  -1   5   3 210.293 5.81219   2
  -1   5   3 213.267 6.37413   3
  -5   3   1 213.417 6.11428   4
  -5   3   1 198.394 7.15580   1
  -5   3   1 206.906 6.08961   3
  -1   5  -3 211.672 6.05985   2
   1   5   3 212.275 5.60407   2
   1   5   3 218.610 6.02125   5
  -1   5  -3 220.916 6.52806   4
  -1   5  -3 212.917 6.16801   5
  -3   1  -5 208.179 5.68102   2
  -1   5  -3 216.809 7.44101   1
  -5   3  -1 206.767 6.34128   3
  -1   5  -3 222.392 6.54660   3
  -5   3  -1 206.125 6.01165   2
  -5   3  -1 192.560 7.22584   1
  -3   5   1 211.904 7.60717   1
  -3   5   1 214.181 6.01461   2
   1   3  -5 214.084 6.04378   5
   3   5  -1 208.262 6.43346   1
   3   5  -1 217.488 6.26155   3
   3   5  -1 217.621 6.26243   4
   3   5  -1 212.111 6.12064   5
   1   3  -5 199.187 6.06198   3
  -3   5   1 212.511 6.29652   3
  -3   5   1 213.426 6.28922   4
   3   5   1 205.663 5.93924   5
   3   5   1 215.827 6.53438   1
   3   5   1 211.524 5.49799   2
   3   5   1 210.901 6.37717   3
   3   5   1 212.959 6.37754   4
  -5   1  -3 194.950 6.75168   1
  -5   1  -3 205.063 5.60427   2
  -3   5  -1 216.418 7.63373   1
  -3   5  -1 208.284 5.97682   2
  -3   5  -1 200.474 6.30723   3
  -3   5  -1 208.086 6.34655   4
  -3   5  -1 208.951 6.13158   5
  -1   3  -5 211.667 5.84839   5
   3   5  -3 307.871 8.64441   5
  -3   5   3 314.771 8.68680   3
  -5   3   3 313.797 9.77182   1
  -5   3   3 309.194 8.28054   3
  -5   3   3 312.400 8.27758   4
   3   5  -3 314.508 8.60521   4
  -3   5   3 310.406 8.66332   4
   3   5  -3 313.276 9.20292   1
  -3   3   5 312.411 8.34724   3
  -3   3   5 309.816 8.35030   4
  -3   5   3 311.594 8.44052   2
  -3   5   3 294.725 10.1455   1
   3   5  -3 324.002 8.65168   3
  -3   5  -3 320.688 9.04142   4
  -3   5  -3 309.475 8.45105   5
  -3   5  -3 321.301 8.46348   2
  -3   5  -3 327.411 10.4348   1
  -5   3  -3 314.599 8.31971   2
  -3   3  -5 308.184 8.28363   2
  -3   3  -5 298.427 8.04602   5
  -3   5  -3 316.854 9.03671   3
  -3   3  -5 317.571 10.2490   1
  -5   3  -3 290.087 9.84440   1
   3   5   3 313.062 8.23203   5
   5   3   3 309.388 7.93217   5
   5   5  -1 89.5816 3.53969   5
   1   5  -5 81.1512 3.71474   4
   1   5  -5 84.5058 3.46859   5
   1   5  -5 89.4718 4.62167   1
   5   5  -1 86.3908 3.54896   3
  -5   5   1 76.9772 4.81225   1
  -5   5   1 82.7113 3.43218   2
  -5   5   1 90.3851 3.70173   3
  -5   5   1 88.0430 3.66546   4
   5   5  -1 86.7663 3.53423   4
   1   5  -5 82.7921 3.70481   3
  -1   5   5 82.2046 3.63815   4
  -1   5   5 84.3076 3.66451   3
  -1   5  -5 91.2296 3.46490   5
  -1   5  -5 91.6367 3.96663   3
  -5   5  -1 87.9990 3.86799   3
  -1   5  -5 90.6914 3.44303   2
  -5   5  -1 81.0238 4.97625   1
  -5   5  -1 83.8509 3.39033   2
   1   5   5 87.9248 2.76723   2
  -5   5  -1 92.3238 3.88172   4
  -1   5  -5 92.0840 4.91486   1
  -5   1  -5 83.3486 2.87071   2
   5   5   1 88.1744 3.31285   5
   3   5  -5 287.081 8.50456   5
   5   5  -3 279.996 8.08091   4
   5   5  -3 301.466 8.65852   5
   3   5  -5 293.758 8.27124   4
  -3   5   5 289.590 8.43171   3
  -5   5   3 286.661 10.1217   1
  -5   5   3 293.991 8.41368   3
  -5   5   3 298.401 8.41859   4
   3   5  -5 287.494 8.27110   3
  -3   5   5 292.815 8.40847   4
  -3   5  -5 310.603 9.11860   3
  -3   5  -5 290.899 8.11823   5
  -5   5  -3 297.844 8.93263   3
  -3   5  -5 293.662 8.22765   2
  -3   5  -5 312.625 10.5369   1
  -5   5  -3 297.966 8.24050   2
  -5   3  -5 292.070 10.2120   1
  -5   3  -5 294.689 7.99237   2
  -5   5  -3 293.644 10.3908   1
   5   5   3 295.843 7.90402   5
   5   5  -5 271.548 8.26419   5
  -5   5   5 274.688 7.80106   4
  -5   5   5 269.097 7.80799   3
  -5   5   5 267.302 9.89906   1
  -5   5  -5 260.826 7.49313   5
  -5   5  -5 256.296 7.59601   2
  -5   5  -5 251.248 10.1027   1
   0   6   0 2761.32 66.3078   1
   0   6   0 2701.91 64.5846   2
   0   6   0 2710.51 65.1814   3
   0   6   0 2748.14 65.2002   4
   0   6   0 2684.03 64.9282   5
   0   6   2 3618.43 87.3851   1
   0   6   2 3597.84 85.4447   2
   0   6   2 3600.61 86.1806   3
   0   6   2 3646.82 86.2020   4
   0   6   2 3707.96 85.8724   5
   0   6  -2 3664.40 86.2054   4
   0   6  -2 3645.88 85.9760   5
  -6   2   0 3371.22 86.4309   1
   0   6  -2 3613.08 87.2323   1
   0   6  -2 3658.56 85.6890   2
   0   6  -2 3651.81 86.1961   3
   0   6   4 1303.37 31.2539   2
   0   6   4 1306.04 32.1342   4
   0   6  -4 1331.88 32.1989   4
   0   6  -4 1331.43 31.8856   5
  -6   4   0 1215.57 33.1859   1
  -6   4   0 1265.28 31.6481   2
  -6   4   0 1299.75 31.9430   3
  -6   4   0 1289.70 31.9157   4
   0   6  -4 1298.11 33.3948   1
   0   6  -4 1350.07 32.2424   3
   0   6   4 1290.32 32.1264   3
   0   6  -4 1304.13 31.6651   2
  -2   6   0 3826.55 87.6481   1
  -6   0  -2 3625.85 85.0211   2
  -2   6   0 3580.51 85.6857   5
   2   6   0 3503.83 86.3823   1
  -6   0   2 3522.20 85.7988   1
   2   6   0 3579.52 85.5958   5
   0   2  -6 3553.81 85.2414   5
  -2   6   0 3613.71 85.9101   4
   2   6   0 3595.09 85.1504   2
   2   6   0 3646.85 85.9023   3
   2   6   0 3698.81 85.9260   4
  -2   6   0 3580.29 85.9102   3
  -2   6   0 3536.31 85.3774   2
  -6   2   2 2724.65 63.7665   1
  -6   2   2 2644.62 62.4945   3
   2   6  -2 2729.37 62.6504   2
  -2   6   2 2671.75 63.1805   4
   2   6  -2 2791.11 63.2126   3
   2   6  -2 2712.27 63.0243   5
   2   6  -2 2790.74 63.2000   4
  -2   6   2 2673.89 63.1873   3
  -2   6   2 2794.98 65.0799   1
  -2   6   2 2668.96 62.6353   2
   2   6  -2 2678.85 63.8527   1
  -6   2  -2 2502.69 62.4824   2
  -2   6  -2 2559.45 62.9153   5
  -2   2  -6 2499.41 62.2432   5
  -6   2  -2 2343.91 63.5423   1
  -2   6  -2 2664.81 64.7741   1
  -2   6  -2 2599.10 62.7519   2
   2   6   2 2585.25 63.9217   1
   2   6   2 2555.93 62.2428   2
   2   6   2 2641.90 63.3097   3
   2   6   2 2649.05 63.3165   4
   2   6   2 2596.71 62.7662   5
  -2   6  -2 2560.93 63.2543   3
  -2   6  -2 2559.96 63.2499   4
   2   6  -4 2565.13 62.0413   3
   2   6  -4 2587.65 62.0484   4
  -6   4   2 2622.49 63.4998   1
   2   6  -4 2529.59 63.0170   1
  -2   6   4 2545.41 61.4707   2
   6   4  -2 2535.19 61.3793   4
  -2   6   4 2576.70 62.0503   4
   2   6  -4 2562.93 61.9465   5
  -6   4   2 2555.25 61.7095   3
  -6   4   2 2563.78 61.6992   4
  -2   6   4 2459.07 63.8290   1
  -2   6   4 2552.41 62.0411   3
  -6   4  -2 2571.24 61.5867   2
   2   6   4 2622.39 61.1117   2
  -2   6  -4 2798.77 64.2693   1
  -4   2  -6 2554.84 61.2882   2
   6   4   2 2575.71 61.3946   5
  -6   4  -2 2527.53 62.1630   3
   2   6   4 2609.13 61.5202   5
  -6   4  -2 2355.95 63.3211   1
  -2   6  -4 2624.30 61.8045   5
  -2   6  -4 2604.90 61.7110   2
  -2   6  -4 2686.59 62.4670   3
  -2   6  -4 2756.65 62.5152   4
   4   6   0 1281.96 30.9355   5
  -4   6   0 1267.61 33.0748   1
  -4   6   0 1274.69 30.8149   2
  -4   6   0 1258.14 31.2438   3
   4   6   0 1269.91 31.2280   4
   4   6   0 1226.27 31.1966   1
  -4   6   0 1260.74 31.2516   4
   0   4  -6 1286.49 30.7844   5
  -6   0  -4 1247.52 30.1279   2
   4   6   0 1257.26 31.2087   3
   4   6  -2 2541.51 60.8494   5
  -2   4   6 2549.58 60.7038   3
  -2   4   6 2505.32 60.6775   4
   4   6  -2 2473.59 60.7992   4
   4   6  -2 2427.65 60.7963   3
  -4   6   2 2409.47 62.8256   1
  -4   6   2 2547.59 60.5962   2
  -4   6   2 2535.25 60.9669   3
  -4   6   2 2574.74 60.9776   4
   2   4  -6 2553.83 60.7625   5
   4   6  -2 2504.56 61.1772   1
   4   6   2 2545.23 61.2672   1
   4   6   2 2531.54 60.4683   5
  -2   4  -6 2646.93 62.9504   1
  -6   2  -4 2489.94 62.0193   1
  -6   2  -4 2531.56 60.2057   2
  -4   6  -2 2639.89 63.1212   1
  -4   6  -2 2591.73 60.6477   2
  -4   6  -2 2485.60 61.1173   3
  -4   6  -2 2523.61 61.1404   4
  -4   6  -2 2552.80 60.7356   5
  -2   4  -6 2565.69 60.4934   2
  -2   4  -6 2563.52 60.3651   5
   4   6  -4 1341.84 33.9224   1
   4   6  -4 1272.56 32.8981   4
  -6   4   4 1370.47 34.8866   1
  -4   6   4 1379.71 33.2317   4
  -4   6   4 1309.63 35.3774   1
  -4   4   6 1340.50 32.8692   3
  -4   4   6 1354.76 32.7933   4
   4   6  -4 1329.69 33.2281   5
  -4   6   4 1367.49 33.2166   3
  -4   6   4 1370.42 32.9640   2
  -4   6  -4 1375.70 33.7040   4
  -4   6  -4 1310.01 32.8415   5
  -4   4  -6 1355.25 32.7185   2
  -4   6  -4 1366.84 33.6780   3
  -4   6  -4 1359.29 32.9092   2
  -4   4  -6 1375.21 35.5221   1
  -6   4  -4 1223.72 34.7644   1
  -6   4  -4 1327.46 32.7074   2
  -4   6  -4 1421.40 35.7852   1
  -6   6   0 1853.21 49.6080   1
  -6   6   0 1955.94 47.2853   2
  -6   6   0 1931.63 47.6756   3
  -6   6   0 1949.88 47.6807   4
   0   6  -6 2015.97 49.5646   1
   0   6  -6 1929.63 47.8431   3
   0   6  -6 2004.67 47.4017   5
   0   6   6 2003.42 46.7316   2
   0   6   6 1974.18 47.7245   4
   6   6   0 1905.93 47.4804   3
   6   6   0 1977.23 47.5634   4
   6   6   0 1959.80 47.3348   5
   2   6  -6 1450.64 37.3993   5
   6   6  -2 1483.96 37.5359   5
   2   6  -6 1436.92 37.4866   3
   2   6  -6 1442.14 37.4442   4
  -6   6   2 1462.86 39.6566   1
  -6   6   2 1456.58 37.3021   2
  -6   6   2 1492.50 37.5303   3
  -6   6   2 1499.88 37.5461   4
  -2   6   6 1475.07 37.5518   3
  -2   6   6 1478.30 37.5539   4
  -2   6  -6 1665.81 38.3125   3
  -2   6  -6 1610.58 37.2949   5
  -2   6  -6 1679.66 40.2144   1
  -2   6  -6 1595.10 37.2898   2
  -6   6  -2 1613.05 38.0698   3
  -6   6  -2 1591.12 37.9600   4
  -6   6  -2 1430.52 39.6631   1
  -6   6  -2 1571.79 37.2774   2
   6   6   2 1566.15 37.0624   5
   6   6  -4 1638.54 39.7440   5
  -4   6   6 1614.06 39.3626   3
  -4   6   6 1617.46 39.3485   4
   4   6  -6 1617.12 39.5997   5
  -6   6   4 1648.60 39.3433   4
  -6   6   4 1608.15 41.8090   1
  -6   6   4 1673.09 39.4693   2
  -6   6   4 1632.15 39.3656   3
  -6   6  -4 1554.01 39.9717   3
  -4   6  -6 1650.95 42.3874   1
  -4   6  -6 1611.86 39.0963   2
  -4   6  -6 1653.29 40.2909   3
  -4   6  -6 1579.48 38.9313   5
  -6   4  -6 1559.69 38.8306   2
  -6   6  -4 1510.92 42.0056   1
  -6   6  -4 1564.23 39.0771   2
  -6   4  -6 1516.31 41.7338   1
   6   6  -6 875.705 22.3060   5
  -6   6   6 889.205 24.5608   1
  -6   6  -6 811.223 21.3864   2
  -6   6  -6 785.155 24.6689   1
   1   7  -1 240.907 7.16461   5
   1   7  -1 236.408 6.72389   2
   1   7  -1 251.780 7.52483   3
   1   7  -1 250.779 7.50493   4
   1   7  -1 234.223 8.13798   1
  -1   7   1 241.699 7.16873   5
  -1   7   1 241.532 7.41910   4
  -1   7   1 247.592 8.74581   1
  -1   7   1 240.424 6.80122   2
  -1   7   1 239.260 7.42343   3
  -1   7  -1 233.090 7.16645   5
  -1   7  -1 235.100 7.44084   4
  -1   7  -1 241.992 7.48589   3
  -1   1  -7 228.842 6.39004   5
  -1   7  -1 232.518 8.53706   1
  -1   7  -1 240.355 6.86214   2
  -7   1  -1 244.859 6.83367   2
   1   7   1 243.471 8.29119   1
   1   7   1 241.609 6.61606   2
   1   7   1 236.555 7.46012   3
   1   7   1 243.354 7.50533   4
   1   7   1 233.988 7.07213   5
   1   7  -3 173.028 6.86075   1
   1   7  -3 182.118 5.58469   2
   1   7  -3 186.573 6.19859   3
   1   7  -3 188.511 6.15181   4
   1   7  -3 178.086 5.86657   5
  -7   3   1 174.848 6.69524   1
  -7   3   1 177.210 5.70685   3
  -1   7   3 179.885 6.08164   4
  -1   7   3 185.799 7.51182   1
  -1   7   3 182.984 5.33522   2
  -1   7   3 178.520 6.10542   3
   1   7   3 172.715 6.12562   3
  -1   7  -3 170.280 7.26950   1
  -1   7  -3 180.540 5.65144   2
  -1   7  -3 186.857 6.26313   3
  -1   7  -3 177.315 6.18559   4
  -1   7  -3 177.179 5.84479   5
   1   7   3 180.558 7.08046   1
   1   7   3 179.683 5.14202   2
   1   7   3 175.578 6.13172   4
   1   7   3 181.559 5.67683   5
  -7   3  -1 171.387 6.75247   1
  -7   3  -1 177.013 5.63903   2
   7   5  -1 170.787 5.94031   5
   1   7  -5 166.119 7.17216   1
  -1   7   5 168.162 5.23979   2
  -1   7   5 161.287 6.06989   3
  -7   5   1 176.933 5.90354   2
  -1   7   5 167.072 7.68192   1
  -1   7   5 173.073 6.12913   4
  -7   5   1 163.430 6.00544   3
   1   7  -5 166.393 6.17902   4
   1   7  -5 159.944 5.79725   5
   1   7  -5 166.825 6.20748   3
  -7   5   1 169.731 7.44554   1
  -7   5   1 172.283 5.99285   4
  -7   5  -1 173.712 5.74640   2
   1   7   5 173.332 6.26065   3
  -7   5  -1 174.286 7.64082   1
   1   7   5 181.869 6.32266   4
  -1   7  -5 179.522 7.63095   1
   7   5   1 177.005 5.61883   5
  -1   7  -5 184.095 5.77082   2
  -1   7  -5 182.522 6.54941   3
  -1   7  -5 191.201 6.56059   4
  -1   7  -5 181.284 5.90324   5
  -7   5  -1 171.032 6.23205   3
   1   3  -7 178.140 5.50339   5
  -3   7   1 180.580 7.58247   1
   3   7  -1 171.837 6.28196   1
  -3   7   1 174.562 6.01154   3
  -3   7   1 179.490 6.02326   4
   3   7  -1 178.365 5.74739   5
   3   7  -1 178.067 5.22032   2
   3   7  -1 178.970 6.06941   3
  -3   7   1 177.458 5.47379   2
   3   7  -1 176.876 6.02397   4
   3   7   1 171.344 6.33544   1
  -3   7  -1 182.583 5.59254   2
  -1   3  -7 173.736 5.21654   5
  -3   7  -1 167.424 5.94630   4
  -3   7  -1 176.022 7.56096   1
  -7   1  -3 172.512 5.12051   2
  -3   7  -1 176.435 6.05790   3
   3   7   1 172.475 5.61063   5
   3   7   1 169.964 4.95455   2
   3   7   1 176.806 6.10441   3
   3   7   1 175.213 6.07272   4
  -3   3   7 180.543 5.57599   4
   3   7  -3 180.325 5.99790   5
  -3   7   3 179.215 7.86131   1
  -3   7   3 176.580 5.62984   2
  -3   7   3 177.330 6.14220   3
  -3   7   3 175.361 6.12603   4
   3   7  -3 176.494 6.65512   1
   3   7  -3 173.911 6.15592   3
   3   7  -3 175.476 6.11080   4
  -3   3   7 177.973 5.65372   3
  -7   3   3 183.392 6.95035   1
  -3   7  -3 179.947 5.86740   5
   3   7   3 178.683 6.36595   4
   3   7   3 178.417 5.62980   5
  -3   7  -3 183.924 5.79304   2
  -3   7  -3 181.181 6.33882   3
  -3   7  -3 183.775 6.32322   4
   3   7   3 186.344 6.43965   3
  -7   3  -3 182.218 7.18897   1
  -3   7  -3 192.390 8.02619   1
   3   7   3 170.868 6.64654   1
  -7   3  -3 178.584 5.56712   2
   3   7  -5 207.489 6.88819   5
   3   7  -5 195.584 6.77418   4
  -3   7   5 202.397 8.87334   1
   3   7  -5 206.321 7.85545   1
  -3   7   5 203.159 6.36341   2
  -3   7   5 206.840 6.97239   3
   3   7  -5 193.698 6.83465   3
  -7   5   3 212.352 8.47889   1
  -3   7   5 204.367 6.91585   4
  -3   7  -5 211.898 6.63957   5
  -3   7  -5 216.602 6.66114   2
  -3   7  -5 218.899 9.11545   1
  -7   5  -3 198.141 8.63234   1
  -3   7  -5 224.358 7.57147   3
  -3   7  -5 216.740 7.44329   4
  -5   3  -7 207.033 6.21434   2
  -7   5  -3 208.899 7.36264   3
  -7   5  -3 212.027 6.58810   2
  -5   7   1 156.996 5.95023   3
  -5   7   1 162.611 7.71978   1
   1   5  -7 164.856 5.54117   5
   5   7  -1 160.781 5.84153   3
   5   7  -1 162.874 5.84579   4
   5   7  -1 168.546 5.71223   5
  -5   7   1 165.412 5.95587   4
  -5   7   1 168.443 5.55963   2
  -5   7  -1 175.565 5.59434   2
  -5   7  -1 171.039 6.08262   3
  -5   7  -1 169.840 6.02763   4
  -5   7  -1 163.625 7.79369   1
   5   7   1 161.450 6.03703   3
   5   7   1 164.812 6.00378   4
   5   7   1 168.801 5.50274   5
  -1   5  -7 170.385 5.39478   5
   3   5  -7 207.872 6.82965   5
   5   7  -3 207.376 6.89510   5
  -5   7   3 207.381 8.96039   1
  -3   5   7 212.788 6.73327   4
  -5   7   3 207.355 6.97452   3
  -5   7   3 205.709 6.95098   4
  -5   7   3 204.495 6.62452   2
  -3   5   7 211.115 6.75730   3
  -7   3  -5 204.015 8.55466   1
  -3   5  -7 206.623 6.47394   2
  -5   7  -3 211.976 9.25320   1
  -5   7  -3 209.921 6.62102   2
  -5   7  -3 214.912 7.34614   3
  -5   7  -3 201.501 7.20121   4
   5   7   3 213.137 6.35444   5
  -7   3  -5 209.371 6.25237   2
  -5   7   5 174.634 6.15846   4
   5   5  -7 173.274 6.37492   5
  -7   5   5 174.199 7.83859   1
   5   7  -5 170.887 6.23530   5
  -5   7   5 168.560 6.00993   2
  -5   7   5 179.000 6.24247   3
  -5   7   5 168.049 8.21766   1
  -5   7  -5 166.944 6.75843   3
  -5   7  -5 163.341 5.66576   5
  -5   7  -5 160.975 5.78368   2
  -5   5  -7 160.381 5.63222   2
  -5   7  -5 163.867 8.53370   1
  -7   5  -5 163.616 8.32729   1
  -7   5  -5 170.223 5.71892   2
  -5   5  -7 164.667 8.55888   1
   1   7  -7 183.154 6.87063   3
   1   7  -7 186.610 6.38833   5
   7   7  -1 190.383 6.52901   5
  -1   7   7 188.155 6.67170   4
  -7   7   1 189.492 8.63597   1
  -7   7   1 188.535 6.43413   2
  -7   7   1 187.216 6.78809   3
  -7   7   1 180.621 6.68892   4
  -1   7   7 186.098 6.73162   3
  -1   7  -7 189.325 6.35602   5
  -1   7  -7 189.927 7.26559   3
  -7   7  -1 180.038 6.83788   4
  -7   7  -1 177.948 8.77724   1
  -7   7  -1 183.852 6.35466   2
  -7   7  -1 178.680 6.84469   3
   7   7   1 192.848 6.72145   3
   7   7   1 193.100 6.70694   4
   7   7   1 185.440 6.24266   5
  -3   7   7 67.5527 3.97474   3
  -3   7   7 63.7242 3.85171   4
   3   7  -7 61.7881 3.73785   5
  -7   7   3 66.7367 5.69381   1
  -7   7   3 67.5094 4.02892   2
  -7   7   3 64.2088 4.10730   3
  -7   7   3 66.1661 4.06395   4
   7   7  -3 68.2323 4.08623   5
  -3   7   7 65.3647 3.49766   2
  -3   7  -7 70.5178 4.83470   3
  -3   7  -7 69.6524 3.50639   5
  -3   7  -7 68.2727 3.68503   2
  -7   7  -3 63.9580 6.03776   1
  -7   7  -3 67.9805 3.72150   2
  -7   7  -3 67.8105 4.48555   3
  -3   7  -7 79.8399 6.23305   1
  -7   5   7 72.1298 5.87385   1
   7   7  -5 72.9193 4.54517   5
   5   7  -7 76.1786 4.36494   5
  -7   7   5 82.2209 6.30226   1
  -7   7   5 77.6317 4.53895   2
  -5   7   7 75.9996 6.21034   1
  -5   7  -7 73.9679 3.91502   2
  -5   7  -7 66.5881 6.75275   1
  -7   7  -5 66.9431 3.90115   2
  -7   7  -5 59.0196 6.47851   1
   7   7  -7 158.807 6.79845   5
  -7   7   7 166.568 8.81697   1
  -7   7  -7 153.240 6.00145   2
  -7   7  -7 142.677 9.44592   1
   0   8   0 5185.20 125.755   1
   0   8   0 5224.08 123.584   2
   0   8   0 5210.90 124.428   3
   0   8   0 5223.26 124.446   4
   0   8   0 5296.85 124.131   5
   0   8   2 1094.56 27.6253   4
   0   8   2 1094.59 27.2020   5
   0   8  -2 1079.80 26.8744   2
   0   8  -2 1124.13 27.7371   3
   0   8  -2 1101.88 27.6772   4
   0   8  -2 1103.04 27.3339   5
   0   8   2 1095.34 29.1058   1
   0   8   2 1078.97 26.6444   2
   0   8   2 1065.92 27.5787   3
  -8   2   0 1076.77 26.9778   2
   0   8  -2 1063.54 28.8354   1
   0   8  -4 524.349 13.9434   2
   0   8  -4 542.297 14.8065   3
  -8   4   0 511.359 14.2776   3
   0   8  -4 525.226 16.0227   1
   0   8   4 507.485 16.1029   1
   0   8   4 538.363 13.5075   2
   0   8   4 528.728 14.6560   3
   0   8   4 541.214 14.6666   4
   0   8  -4 528.365 14.2937   5
  -8   4   0 520.993 15.4380   1
  -8   4   0 527.511 14.1087   2
   0   8  -4 530.224 14.7414   4
   0   8   6 781.195 21.0151   4
   0   8  -6 780.607 21.2552   3
   0   8  -6 784.353 21.2375   4
   0   8   6 797.951 21.0781   3
  -8   6   0 790.617 20.5105   2
  -8   6   0 783.977 20.8835   3
   8   6   0 793.374 20.5253   5
   0   8  -6 807.460 20.6583   5
  -8   6   0 804.309 22.7875   1
   0   8   6 795.672 23.1208   1
   0   8  -6 800.663 22.8958   1
  -2   8   0 1079.56 27.0221   5
  -2   8   0 1082.52 26.6155   2
  -2   8   0 1068.97 27.3281   3
   2   8   0 1047.96 26.2845   2
  -8   0  -2 1073.62 26.3995   2
  -2   8   0 1128.35 29.2716   1
   0   2  -8 1035.86 26.2992   5
   2   8   0 1068.71 28.1459   1
   2   8   0 1057.20 26.9042   5
   2   8   0 1109.51 27.4343   3
   2   8   0 1083.82 27.3661   4
  -2   8   0 1085.37 27.3414   4
  -2   8   2 2210.84 55.2042   1
   2   8  -2 2151.68 52.7311   5
   2   8  -2 2212.29 53.1380   3
  -2   8   2 2143.13 53.0301   4
   2   8  -2 2124.15 53.9257   1
   2   8  -2 2151.13 52.2293   2
  -2   8   2 2133.73 53.0187   3
  -2   8   2 2127.39 52.2179   2
   2   8  -2 2192.84 53.0952   4
  -8   2  -2 2185.53 52.1805   2
   2   8   2 2146.87 51.8520   2
   2   8   2 2195.69 53.2032   3
   2   8   2 2175.26 54.1137   1
  -2   8  -2 2228.37 52.4593   2
  -2   8  -2 2271.54 55.1283   1
  -2   8  -2 2184.27 53.1823   3
  -2   8  -2 2178.24 53.1623   4
  -2   8  -2 2142.10 52.6911   5
   2   8   2 2159.85 52.5499   5
   2   8   2 2194.02 53.1817   4
  -2   8   4 941.176 24.2152   3
  -8   4   2 934.334 25.1837   1
   2   8  -4 889.471 24.1806   3
  -2   8   4 941.280 26.4248   1
   2   8  -4 920.061 23.9028   5
   2   8  -4 909.895 25.2385   1
  -2   8   4 927.415 23.2974   2
  -2   8   4 921.446 24.1452   4
   2   8  -4 917.909 24.2278   4
  -2   8  -4 979.719 24.5190   4
   2   8   4 944.890 24.4277   3
  -2   8  -4 969.723 24.5252   3
  -2   8  -4 988.411 26.4288   1
  -2   8  -4 950.239 23.8988   5
  -2   8  -4 938.342 23.6448   2
  -8   4  -2 944.901 25.3651   1
  -8   4  -2 946.728 23.5430   2
   2   8   4 941.870 25.5195   1
   2   8   4 930.802 24.3560   4
   2   8   4 935.370 23.5535   5
   2   8  -6 1263.08 33.4827   1
  -2   8   6 1253.40 31.8459   3
  -2   8   6 1220.94 34.3898   1
  -2   8   6 1267.48 31.8460   4
  -8   6   2 1271.69 33.7376   1
   8   6  -2 1288.15 31.8312   5
  -8   6   2 1290.51 31.6393   2
   2   8  -6 1228.16 31.9100   3
   2   8  -6 1222.80 31.8902   4
   2   8  -6 1222.28 31.5795   5
  -2   8   6 1247.83 30.9181   2
  -8   6  -2 1256.10 31.3302   2
  -2   8  -6 1299.64 32.4462   3
  -2   8  -6 1293.02 31.5402   5
   2   8   6 1278.19 33.7428   1
   2   8   6 1248.87 32.1687   3
  -2   8  -6 1294.05 34.5268   1
  -8   6  -2 1242.56 33.8647   1
   2   8   6 1268.33 32.2179   4
  -8   6  -2 1223.43 32.0036   3
  -2   8  -6 1258.02 31.3521   2
  -4   8   0 493.557 13.9785   4
  -4   8   0 511.245 13.4295   2
  -4   8   0 534.897 16.4355   1
   4   8   0 490.005 14.0123   4
   4   8   0 509.175 13.6447   5
   4   8   0 492.413 17.0515   1
  -4   8   0 499.637 14.0355   3
   4   8   0 502.086 14.0802   3
   0   4  -8 511.200 13.2794   5
   4   8  -2 887.856 23.5189   3
  -4   8   2 918.966 26.0124   1
   2   4  -8 934.014 23.1464   5
   4   8  -2 911.810 25.6005   1
   4   8  -2 891.464 23.5219   4
   4   8  -2 920.415 23.3369   5
  -4   8   2 931.017 23.6515   3
  -4   8   2 939.051 23.6456   4
  -4   8   2 901.074 22.9235   2
   4   8   2 905.082 23.7447   4
  -4   8  -2 911.633 23.7460   3
  -4   8  -2 912.305 23.7106   4
  -4   8  -2 903.578 23.2533   5
   4   8   2 938.249 23.0514   5
   4   8   2 871.240 24.3168   1
   4   8   2 897.851 23.7653   3
  -4   8  -2 935.892 26.0064   1
  -4   8  -2 930.512 23.0849   2
   4   8  -4 3123.64 74.6783   5
  -4   8   4 2928.72 77.3404   1
  -4   8   4 3184.26 74.2223   2
   4   8  -4 2973.65 75.6864   1
  -8   4   4 3129.06 76.1600   1
  -4   8   4 3041.86 74.6869   3
  -4   8   4 3106.60 74.7055   4
  -8   4  -4 3118.62 73.9947   2
  -4   8  -4 3158.16 75.2432   3
  -4   8  -4 3206.73 77.6784   1
  -4   8  -4 3087.05 74.3704   5
   4   8   4 3096.55 75.1811   4
   4   8   4 3054.50 75.1615   3
  -8   4  -4 3154.85 76.4413   1
  -4   8  -4 3119.99 75.1711   4
   4   8   4 3080.46 75.6264   1
  -4   8  -4 3095.44 74.2380   2
  -4   8   6 411.253 12.2241   3
  -8   6   4 417.939 14.1591   1
   4   8  -6 416.011 12.2343   5
  -4   8   6 419.514 11.6860   2
  -4   8   6 416.704 12.1963   4
  -4   8   6 410.182 14.8460   1
   8   6  -4 415.634 12.5321   5
  -4   8  -6 421.193 12.9848   3
  -4   8  -6 419.067 11.8203   2
  -4   8  -6 416.754 11.7417   5
  -8   6  -4 427.655 11.8199   2
   4   8   6 413.858 13.3207   1
  -8   6  -4 414.810 14.6108   1
  -4   8  -6 437.377 15.2576   1
   6   8   0 786.885 20.4718   3
   6   8   0 782.507 20.4126   4
   0   6  -8 776.343 19.8548   5
  -6   8   0 734.626 22.8518   1
  -6   8   0 766.024 19.8930   2
  -6   8   0 770.557 20.5055   3
  -6   8   0 764.834 20.4353   4
   6   8   0 783.938 20.0428   5
  -2   6   8 1254.65 30.9728   3
   2   6  -8 1245.98 30.8050   5
   6   8  -2 1263.77 31.0572   5
  -6   8   2 1255.98 30.7174   2
  -6   8   2 1257.50 31.2268   3
  -6   8   2 1233.89 31.1405   4
  -2   6   8 1258.43 30.9452   4
  -6   8   2 1222.18 33.8519   1
  -6   8  -2 1217.19 31.4352   3
  -6   8  -2 1185.94 31.2975   4
  -6   8  -2 1223.56 30.6691   2
   6   8   2 1218.83 31.3739   3
   6   8   2 1227.34 31.3919   4
   6   8   2 1206.24 30.4671   5
  -6   8  -2 1167.58 33.8087   1
  -6   8   4 417.490 14.8137   1
   4   6  -8 416.525 12.1639   5
   6   8  -4 420.476 12.3079   5
  -6   8   4 422.963 12.1771   4
  -8   4   6 430.429 13.8307   1
  -6   8   4 435.693 11.9693   2
  -6   8   4 426.335 12.2616   3
  -6   8  -4 405.338 12.6698   3
  -4   6  -8 404.982 11.5921   2
  -6   8  -4 387.926 14.9251   1
  -6   8  -4 416.430 11.7908   2
  -6   8   6 786.738 20.4130   2
   6   6  -8 761.791 20.9435   5
  -8   6   6 757.443 22.8931   1
  -6   8   6 785.240 23.7355   1
   6   8  -6 769.594 20.8795   5
  -6   8  -6 771.697 20.1766   2
  -6   8  -6 760.416 21.4469   3
  -6   6  -8 757.378 19.9358   2
  -8   6  -6 777.075 23.6857   1
  -8   6  -6 777.089 20.0201   2
  -6   8  -6 768.141 24.2601   1
  -8   8   0 2006.05 52.3777   1
  -8   8   0 2005.47 49.1629   2
  -8   8   0 1985.09 49.7668   3
  -8   8   0 2029.32 49.7905   4
   0   8  -8 1945.41 49.9684   3
   0   8  -8 2029.13 49.2240   5
   0   8   8 2031.63 49.8147   3
   0   8   8 2000.44 49.7214   4
   8   8   0 2020.09 49.2720   5
   2   8  -8 402.590 12.0649   5
   8   8  -2 403.882 12.3152   5
  -2   8   8 415.234 12.4594   3
  -8   8   2 410.113 14.7702   1
  -8   8   2 424.780 12.1822   2
  -8   8   2 432.322 12.5618   3
  -8   8   2 418.658 12.7637   4
  -2   8   8 418.804 12.3904   4
  -2   8  -8 403.963 13.1706   3
  -2   8  -8 414.443 11.8725   5
  -8   8  -2 412.060 12.8215   3
  -2   8  -8 446.319 15.4509   1
  -8   8  -2 407.204 15.1318   1
  -8   8  -2 409.479 11.9860   2
   8   8   2 407.948 12.4375   3
   8   8   2 402.354 12.3962   4
  -4   8   8 189.698 6.81885   2
   4   8  -8 184.996 7.24845   5
   8   8  -4 187.893 7.51889   5
  -8   8   4 197.782 9.76548   1
  -8   8   4 198.296 7.39083   2
  -4   8   8 192.807 9.92454   1
  -4   8  -8 194.552 6.89220   2
  -4   8  -8 206.841 10.6113   1
  -8   8  -4 192.197 10.3024   1
  -8   8  -4 202.266 7.06457   2
  -8   8  -4 189.391 8.00705   3
  -8   6   8 365.574 13.6658   1
   6   8  -8 343.163 11.3057   5
   8   6  -8 340.844 11.6053   5
  -8   8   6 357.762 13.8513   1
  -8   8   6 360.649 11.2772   2
   8   8  -6 343.555 11.4623   5
  -6   8   8 354.993 10.9320   2
  -6   8   8 348.616 14.0598   1
  -6   8  -8 339.889 10.4650   2
  -8   8  -6 308.936 14.1639   1
  -8   8  -6 338.836 10.5843   2
  -6   8  -8 351.337 15.0078   1
   8   8  -8 898.153 24.8411   5
  -8   8   8 930.276 27.7099   1
  -8   8  -8 870.179 28.4915   1
   1   9  -1 115.519 4.35109   2
   1   9  -1 124.290 5.34009   3
   1   9  -1 123.501 5.28684   4
   1   9  -1 125.086 4.94003   5
  -1   9   1 125.870 4.96833   5
   1   9  -1 123.544 6.18274   1
  -1   9   1 118.468 6.48313   1
  -1   9   1 120.406 4.43625   2
  -1   9   1 117.426 5.13802   3
  -1   9   1 114.682 5.15519   4
  -1   9  -1 122.058 5.25262   4
  -1   9  -1 123.303 4.93691   5
  -9   1  -1 121.385 4.68290   2
  -1   9  -1 125.138 6.48966   1
  -1   9  -1 124.890 4.57871   2
  -1   9  -1 126.136 5.31475   3
   1   9   1 125.371 6.16205   1
   1   9   1 120.376 4.21049   2
   1   9   1 122.814 5.33198   3
   1   9   1 123.455 5.29343   4
   1   9   1 118.110 4.81842   5
   1   9  -3 199.755 7.30002   4
   1   9  -3 203.884 6.97646   5
   1   9  -3 207.378 6.54702   2
   1   9  -3 195.968 7.32725   3
  -9   3   1 189.594 6.89667   2
  -1   9   3 198.046 8.72411   1
  -1   9   3 196.089 6.26062   2
  -1   9   3 202.611 7.29523   3
  -1   9   3 197.935 7.21514   4
   1   9  -3 199.583 8.26200   1
   1   9   3 207.915 6.78178   5
  -1   9  -3 214.223 7.47311   4
   1   9   3 210.536 7.38200   3
   1   9   3 205.419 7.29958   4
   1   9   3 214.712 8.50216   1
   1   9   3 209.894 7.63473   2
  -1   9  -3 211.894 6.65502   2
  -1   9  -3 217.605 7.59314   3
  -1   9  -3 223.663 8.93039   1
  -9   3  -1 212.364 6.77241   2
  -1   9  -3 213.871 7.03694   5
  -1   9   5 183.310 5.71080   2
   1   9  -5 173.922 7.87719   1
  -1   9   5 180.486 8.51365   1
   1   9  -5 180.656 6.44474   5
   1   9  -5 169.800 6.86400   3
  -9   5   1 189.968 6.64541   2
  -1   9   5 179.121 6.72663   4
  -1   9   5 172.699 6.73705   3
   1   9  -5 169.117 6.77109   4
  -9   5  -1 171.166 6.27784   2
  -1   9  -5 178.190 7.02431   4
  -1   9  -5 172.690 8.33138   1
  -1   9  -5 173.047 6.09705   2
   1   9   5 182.724 8.17630   1
   1   9   5 171.770 6.81943   3
  -1   9  -5 177.954 6.40065   5
   1   9   5 172.170 6.79108   4
  -1   9  -5 170.987 7.03633   3
  -9   7   1 156.227 6.12266   2
  -9   7   1 141.984 7.80096   1
   1   9  -7 139.984 6.40477   3
   1   9  -7 144.210 6.76572   4
   1   9  -7 148.697 5.98727   5
   1   9  -7 141.405 7.79066   1
  -1   9   7 143.838 6.22694   4
  -1   9   7 147.177 6.38075   3
   9   7  -1 146.717 6.02643   5
  -1   9   7 147.094 8.32250   1
  -9   7  -1 141.612 6.52846   3
  -1   9  -7 141.830 5.79801   5
  -1   9  -7 148.696 6.84396   3
  -1   9  -7 133.971 7.97622   1
   1   9   7 135.733 7.71501   1
   1   9   7 143.859 6.39740   3
   1   9   7 147.138 6.30601   4
  -9   7  -1 143.849 5.93593   2
  -9   7  -1 149.422 8.15458   1
   3   9  -1 203.201 6.19973   2
  -3   9   1 200.003 7.21641   3
   3   9  -1 200.967 7.31293   3
   3   9  -1 195.293 7.22088   4
   3   9  -1 195.405 6.80747   5
  -3   9   1 195.943 7.13305   4
   1   3  -9 196.902 6.35873   5
   3   9  -1 194.562 7.62484   1
  -3   9   1 198.012 6.49534   2
  -3   9   1 216.454 9.26773   1
   3   9   1 209.173 7.39705   4
  -3   9  -1 219.841 9.21964   1
   3   9   1 205.064 7.73585   1
   3   9   1 209.682 7.42119   3
  -3   9  -1 208.097 7.24543   4
   3   9   1 206.406 6.73822   5
  -3   9  -1 205.289 7.29091   3
  -3   9  -1 217.697 6.64884   2
  -3   9   3 170.510 8.41391   1
  -3   9   3 163.935 6.32987   3
   3   9  -3 163.145 6.40400   4
   3   9  -3 161.165 6.07794   5
   3   9  -3 157.610 6.41041   3
  -3   9   3 151.396 6.15355   4
   3   9  -3 167.848 7.01366   1
  -3   9   3 164.325 5.58133   2
  -3   9  -3 165.547 6.52722   3
   3   9   3 166.677 7.06305   1
  -3   9  -3 172.480 6.08521   5
  -9   3  -3 167.050 5.66668   2
  -3   9  -3 175.739 8.48958   1
   3   9   3 165.366 6.59649   3
   3   9   3 166.235 6.58518   4
  -3   9  -3 167.545 6.48993   4
  -3   9  -3 168.782 5.81273   2
   3   9   3 163.458 5.73837   5
   3   9  -5 123.692 5.21234   5
  -3   9   5 111.927 5.32833   3
  -3   9   5 113.908 5.25708   4
  -3   9   5 110.910 4.47392   2
   3   9  -5 119.516 6.21403   1
  -3   9   5 103.259 7.00113   1
  -9   5   3 111.506 5.41341   2
  -3   9  -5 112.745 4.93214   5
   3   9   5 118.285 6.16621   1
  -9   5  -3 116.355 4.88448   2
   3   9   5 114.287 5.49273   4
  -3   9  -5 118.310 7.39264   1
  -3   9  -5 114.637 5.65390   4
   3   9   5 110.064 5.53718   3
  -3   9  -5 115.300 4.87993   2
  -3   9  -5 115.609 5.79562   3
  -3   9   7 86.8715 4.75731   4
  -3   9   7 84.9487 4.24139   2
  -9   7   3 95.1835 6.50697   1
  -3   9   7 79.1457 4.77469   3
   9   7  -3 86.8504 5.01397   5
  -3   9   7 81.6320 6.85076   1
  -9   7   3 92.0518 5.08163   2
   3   9  -7 86.1878 4.63966   5
  -3   9  -7 76.5966 4.25967   5
  -3   9  -7 77.2480 4.31050   2
  -9   7  -3 81.5506 6.88131   1
   3   9   7 77.4364 4.97560   4
  -3   9  -7 77.1240 6.91945   1
  -3   9  -7 83.8540 5.53936   3
   3   9   7 77.0082 5.12100   3
  -9   7  -3 79.6107 4.51987   2
   3   9   7 82.2413 5.73923   1
   5   9  -1 175.667 6.64168   3
  -5   9   1 173.369 6.57717   4
   1   5  -9 173.522 5.87261   5
   5   9  -1 172.729 6.53626   4
   5   9  -1 171.469 6.19384   5
  -5   9   1 170.699 8.70317   1
  -5   9   1 177.702 6.68870   3
  -5   9   1 171.883 5.97930   2
  -5   9  -1 167.936 8.85970   1
   5   9   1 165.712 6.61377   4
   5   9   1 158.205 5.96582   5
  -5   9  -1 164.738 5.94243   2
  -5   9  -1 165.333 6.65534   3
  -5   9  -1 169.584 6.61091   4
   5   9   1 153.145 6.59611   3
   3   5  -9 109.583 4.83907   5
  -5   9   3 113.192 5.19578   4
  -5   9   3 112.915 5.32356   3
  -5   9   3 108.457 7.37411   1
  -5   9   3 120.989 4.77762   2
   5   9  -3 110.949 5.02875   5
   5   9   3 102.947 5.46842   3
   5   9   3 106.214 5.37287   4
  -5   9  -3 110.737 5.55034   3
  -5   9  -3 109.164 4.68599   2
  -5   9  -3 112.588 7.44334   1
  -5   9  -3 107.885 4.82146   5
  -5   9  -3 105.808 5.38495   4
   5   5  -9 74.4532 4.57886   5
  -5   9   5 75.4925 4.57350   4
  -5   9   5 72.9858 6.52732   1
  -5   9   5 76.9795 4.19927   2
  -5   9   5 74.3090 4.60841   3
   5   9  -5 69.1981 4.41846   5
  -5   9  -5 82.6282 7.16839   1
   5   9   5 74.5507 4.88439   4
  -5   9  -5 73.8476 5.02336   3
  -5   9  -5 80.0461 4.13646   5
   5   9   5 77.1512 5.04116   3
  -5   9  -5 81.5498 4.17512   2
   5   9  -7 87.8656 5.18394   5
  -5   9   7 107.097 7.79206   1
  -5   9   7 93.2242 4.76072   2
  -9   7   5 95.5918 7.00886   1
   9   7  -5 91.7198 5.56549   5
  -9   7   5 92.8581 5.60199   2
  -5   9  -7 110.143 8.43350   1
  -9   7  -5 103.167 4.97791   2
  -5   9  -7 100.545 6.24617   3
  -9   7  -5 97.7601 7.78434   1
  -5   9  -7 93.9279 4.80359   2
  -7   9   1 143.298 8.54757   1
  -7   9   1 144.489 6.25668   3
   7   9  -1 144.646 5.89455   5
  -7   9   1 147.214 5.77714   2
  -1   7   9 139.435 6.06662   3
  -7   9   1 138.451 6.10519   4
   1   7  -9 140.629 5.55498   5
  -1   7   9 138.823 5.94294   4
   7   9   1 144.704 6.10904   4
   7   9   1 145.163 6.25658   3
  -7   9  -1 132.550 8.44108   1
  -7   9  -1 133.824 6.26350   4
   7   9   1 140.080 5.63995   5
  -7   9  -1 136.265 5.69311   2
  -7   9  -1 139.851 6.38950   3
   3   7  -9 92.9698 4.61275   5
   7   9  -3 83.9156 4.89769   5
  -7   9   3 91.7462 4.70627   2
  -7   9   3 88.2507 5.00077   4
  -7   9   3 87.6406 5.03841   3
  -7   9   3 87.2153 7.13429   1
  -7   9  -3 77.8782 7.34893   1
   7   9   3 79.3119 4.97510   4
  -7   9  -3 74.5100 4.33111   2
   7   9   3 79.2543 5.12350   3
  -7   9  -3 71.1430 4.97470   3
  -7   9   5 91.4448 5.05826   2
   5   7  -9 94.6802 5.19366   5
   7   9  -5 99.0599 5.44255   5
  -7   9   5 87.2042 7.39273   1
  -7   9  -5 99.3774 4.86377   2
  -7   9  -5 97.2204 5.82821   3
  -7   9  -5 89.3086 8.02891   1
   7   9   5 96.2928 5.58551   4
  -5   7  -9 96.5329 4.70788   2
   7   9  -7 129.381 6.53212   5
  -9   7   7 129.314 8.43701   1
  -7   7   9 135.253 8.67984   1
   9   7  -7 126.567 6.74562   5
  -7   9   7 141.834 9.07734   1
   7   7  -9 128.817 6.58083   5
  -9   7  -7 135.707 9.52348   1
  -7   9  -7 123.073 9.62387   1
  -1   9   9 76.3466 5.18237   3
   9   9  -1 74.9491 4.92719   5
   1   9  -9 77.3845 4.70741   5
  -9   9   1 88.5102 7.36692   1
  -9   9   1 76.0058 5.04393   2
  -9   9   1 76.9261 5.39250   3
  -1   9   9 76.2629 4.98335   4
  -1   9   9 69.9633 6.97792   1
  -9   9  -1 89.5265 7.57311   1
  -1   9  -9 79.4506 4.51140   5
  -9   9  -1 77.8973 5.46147   3
   1   9   9 83.9835 5.34876   3
   1   9   9 77.0592 5.06894   4
  -9   9  -1 83.3602 4.90037   2
  -3   9   9 91.1867 7.70124   1
   9   9  -3 82.7889 5.41506   5
   3   9  -9 84.1462 4.96981   5
  -9   9   3 88.4169 7.42859   1
  -9   9  -3 93.1660 7.95534   1
  -9   9  -3 91.3917 6.05227   3
   3   9   9 101.351 5.98123   3
  -9   9  -3 89.6087 5.61912   2
   9   9   3 95.3571 5.51150   3
   9   9  -5 105.326 6.16586   5
  -9   9   5 99.1795 7.99392   1
  -5   9   9 104.688 8.43886   1
   5   9  -9 108.562 5.89775   5
  -9   9  -5 99.7065 8.71250   1
  -9   7   9 80.1730 7.58895   1
   9   7  -9 89.7740 6.16659   5
  -9   9   7 82.5028 7.88538   1
  -7   9   9 82.7246 7.94408   1
   7   9  -9 80.7986 5.73978   5
   9   9  -7 75.3717 5.81227   5
  -9   9  -7 79.0635 9.04281   1
   0  10   0 557.499 17.1036   1
   0  10   0 552.092 14.5156   2
   0  10   0 552.600 15.6427   3
   0  10   0 553.989 15.6390   4
   0  10   0 535.934 15.0780   5
   0  10   2 1266.16 31.3542   2
   0  10   2 1287.78 32.7093   3
   0  10   2 1267.83 32.6314   4
   0  10   2 1292.22 32.1503   5
   0  10  -2 1286.02 31.6739   2
   0  10  -2 1316.38 32.8052   3
   0  10  -2 1281.88 32.6761   4
   0  10  -2 1292.01 32.2547   5
   0  10   2 1262.96 34.3601   1
 -10   2   0 1217.62 31.7272   2
   0  10  -2 1273.02 34.2686   1
 -10   4   0 743.309 19.8160   2
   0  10  -4 753.789 22.2620   1
   0  10  -4 768.988 19.6862   2
   0  10  -4 779.377 20.8315   3
   0  10  -4 772.944 20.7799   4
   0  10  -4 741.411 20.0956   5
   0  10   4 747.036 22.4195   1
   0  10   4 745.474 20.5139   3
   0  10   4 737.844 20.4856   4
   0  10  -6 809.843 23.2951   3
   0  10  -6 813.874 23.2411   4
   0  10  -6 858.639 22.6080   5
   0  10   6 871.121 25.5388   1
   0  10   6 862.545 23.1686   3
   0  10   6 873.614 23.1289   4
   0  10  -6 862.518 22.2605   2
   0  10  -6 870.093 25.2365   1
 -10   6   0 874.431 22.4994   2
   0  10  -8 189.940 7.31402   5
   0  10   8 196.535 10.0844   1
   0  10  -8 191.363 9.83427   1
   0  10  -8 180.540 8.11254   3
   0  10   8 185.870 7.89759   3
   0  10   8 191.544 7.79226   4
 -10   8   0 199.247 7.57379   2
   2  10   0 1264.08 31.1456   2
  -2  10   0 1280.19 32.1142   5
   2  10   0 1225.39 33.3954   1
  -2  10   0 1265.83 31.4451   2
  -2  10   0 1246.35 32.4315   3
  -2  10   0 1263.59 32.4484   4
  -2  10   0 1307.36 34.8035   1
   2  10   0 1250.46 31.9119   5
   2  10   0 1314.30 32.6534   3
   2  10   0 1270.72 32.5371   4
  -2  10   2 850.950 23.4400   4
   2  10  -2 841.822 23.5683   3
   2  10  -2 825.539 23.4659   4
  -2  10   2 824.480 23.3860   3
   2  10  -2 842.502 22.4041   2
   2  10  -2 845.866 24.5588   1
  -2  10   2 870.763 25.7227   1
   2  10  -2 840.136 23.0630   5
  -2  10   2 842.865 22.4272   2
  -2  10  -2 944.580 23.8223   4
   2  10   2 937.531 23.8013   3
  -2  10  -2 927.713 22.7325   2
  -2  10  -2 967.920 23.9268   3
   2  10   2 937.627 23.7874   4
   2  10   2 940.008 23.0141   5
   2  10   2 907.671 24.7527   1
  -2  10  -2 918.267 23.1985   5
  -2  10  -2 928.495 25.8692   1
  -2  10   4 1001.83 26.1182   4
  -2  10   4 989.708 24.9532   2
  -2  10   4 1019.91 26.2196   3
 -10   4   2 958.188 25.6185   2
  -2  10   4 1009.81 28.7585   1
   2  10  -4 928.403 26.0799   4
   2  10  -4 1004.47 25.8568   5
   2  10  -4 927.205 26.0999   3
   2  10  -4 974.169 27.4197   1
   2  10   4 1030.41 26.4138   4
   2  10   4 1008.15 25.4177   5
   2  10   4 986.343 27.5678   1
   2  10   4 1028.70 26.4504   3
 -10   4  -2 1000.59 25.2812   2
  -2  10  -4 989.761 25.7519   5
  -2  10  -4 992.740 28.4060   1
  -2  10  -4 1019.11 25.4463   2
  -2  10  -4 1014.18 26.3680   4
  -2  10  -4 1029.43 26.5030   3
 -10   6   2 602.057 16.0881   2
  -2  10   6 576.555 19.0722   1
  -2  10   6 587.391 16.3988   3
  -2  10   6 596.227 16.3732   4
  10   6  -2 596.020 16.2646   5
   2  10  -6 583.259 17.9925   1
   2  10  -6 590.903 16.0423   5
   2  10   6 534.453 17.8344   1
  -2  10  -6 561.038 16.8625   3
   2  10   6 573.804 16.6159   4
  -2  10  -6 560.237 16.7511   4
  -2  10  -6 563.792 15.8722   5
   2  10   6 535.138 16.4653   3
  -2  10  -6 537.008 15.4839   2
 -10   6  -2 542.535 15.6001   2
  -2  10  -6 535.792 18.5522   1
  -2  10   8 511.710 18.6361   1
   2  10  -8 507.577 15.2468   5
  -2  10   8 522.008 15.6409   3
  10   8  -2 503.567 15.4059   5
  -2  10   8 519.834 15.5826   4
  -2  10  -8 512.022 16.3770   3
 -10   8  -2 538.878 15.1544   2
  -2  10  -8 540.125 15.0968   5
   2  10   8 535.540 16.0520   3
  -2  10  -8 555.662 18.9615   1
 -10   8  -2 542.203 16.1810   3
   2  10   8 542.040 18.0064   1
  -4  10   0 736.180 19.9305   4
  -4  10   0 728.145 19.9281   3
   4  10   0 713.888 19.9965   3
   4  10   0 711.686 19.9395   4
  -4  10   0 722.159 19.0254   2
  -4  10   0 767.667 22.6931   1
   4  10   0 731.799 19.4092   5
   2   4 -10 988.942 25.1352   5
   4  10  -2 966.148 25.8938   4
   4  10  -2 983.378 25.9596   3
  -4  10   2 1000.19 28.8151   1
  -4  10   2 979.141 25.0140   2
  -4  10   2 973.271 25.9359   3
  -4  10   2 991.113 25.9495   4
   4  10  -2 975.455 25.5366   5
   4  10   2 963.990 26.1647   3
  -4  10  -2 998.326 25.6073   5
  -4  10  -2 997.999 26.1229   4
  -4  10  -2 996.255 25.1793   2
  -4  10  -2 999.455 26.2126   3
   4  10   2 966.596 26.0968   4
   4  10   2 993.683 25.3009   5
  -4  10  -2 1046.43 28.9918   1
   4   4 -10 303.156 9.73735   5
  -4  10   4 310.845 12.7974   1
  -4  10   4 307.586 10.0448   4
  -4  10   4 306.866 9.18921   2
   4  10  -4 295.543 9.74901   5
  -4  10   4 295.869 10.0786   3
  -4  10  -4 300.855 9.64141   5
  -4  10  -4 300.653 9.40754   2
   4  10   4 317.551 10.5674   3
   4  10   4 302.650 10.3968   4
  -4  10  -4 309.567 10.4133   4
  -4  10  -4 309.226 10.5159   3
  -4  10  -4 322.215 12.7898   1
  -4  10   6 629.836 17.7907   4
  -4  10   6 629.999 17.7908   3
  10   6  -4 634.505 17.9884   5
   4  10  -6 624.778 17.6551   5
  -4  10   6 600.423 20.8301   1
 -10   6   4 638.994 17.8020   2
  -4  10   6 624.456 16.8382   2
  -4  10  -6 659.244 21.2915   1
  -4  10  -6 646.230 17.2638   2
 -10   6  -4 632.151 18.4664   2
  -4  10  -6 635.678 17.3147   5
   4  10   6 619.984 18.2291   4
   4  10   6 614.664 18.3009   3
  -4  10  -6 643.458 18.5516   3
  10   8  -4 298.564 10.7921   5
  -4  10   8 304.600 13.6299   1
   4  10  -8 311.144 10.4862   5
  -4  10  -8 322.222 14.2885   1
 -10   8  -4 306.826 10.3102   2
   4  10   8 318.409 11.3463   3
  -4  10  -8 327.949 11.8710   3
   6  10   0 833.725 22.3154   3
  -6  10   0 848.428 21.6503   2
  -6  10   0 782.564 25.1291   1
  -6  10   0 838.274 22.3976   4
   6  10   0 829.843 21.8058   5
  -6  10   0 826.843 22.4553   3
   6  10   0 827.433 22.2689   4
  -6  10   2 578.126 16.0046   3
  -6  10   2 552.511 18.7756   1
  -6  10   2 581.007 15.9424   4
   6  10  -2 582.681 15.6200   5
  -6  10   2 572.362 15.1685   2
   2   6 -10 568.719 15.2089   5
   6  10   2 534.539 16.0088   4
   6  10   2 527.818 16.0609   3
  -6  10  -2 526.402 16.0564   3
  -6  10  -2 512.822 15.0324   2
  -6  10  -2 534.548 16.0126   4
  -6  10  -2 515.369 18.6971   1
   4   6 -10 628.866 17.2523   5
   6  10  -4 615.515 17.3844   5
  -6  10   4 619.577 16.7935   2
  -6  10   4 613.277 17.3895   4
  -6  10   4 619.017 17.5182   3
  -6  10   4 615.772 20.6350   1
   6  10   4 623.042 17.9215   4
  -6  10  -4 603.100 17.8752   3
  -6  10  -4 604.702 17.7952   4
   6  10   4 614.303 18.0219   3
  -6  10  -4 625.241 16.8946   2
  -6  10  -4 628.717 21.0547   1
  -6  10   6 387.792 11.9725   2
   6  10  -6 392.815 12.6634   5
   6   6 -10 385.081 12.6585   5
  -6  10   6 387.430 15.6798   1
  10   6  -6 382.495 12.8590   5
  -6  10  -6 428.033 16.6097   1
   6  10   6 411.170 13.3619   3
  -6  10  -6 436.523 13.6175   3
  10   8  -6 393.349 13.0427   5
   6  10  -8 393.129 12.8353   5
  -8   6  10 399.194 15.4063   1
  -6  10   8 405.416 16.2312   1
   8   6 -10 378.029 12.9931   5
  -6  10  -8 395.039 16.9738   1
   6  10   8 373.918 13.4610   3
   0   8  10 182.937 7.50586   4
  -8  10   0 190.013 10.5870   1
   0   8  10 189.803 7.68473   3
  -8  10   0 187.078 7.80848   4
   8  10   0 189.838 7.27244   5
  -8  10   0 192.614 8.68681   2
  -8  10   0 180.321 7.88864   3
   2   8 -10 496.048 14.5972   5
   8  10  -2 515.487 15.0481   5
  -8  10   2 513.663 15.3241   3
  -8  10   2 493.801 15.3985   4
  -8  10   2 526.900 18.4713   1
  -8  10  -2 499.127 15.3867   4
  -8  10  -2 492.055 15.4107   3
  -8  10  -2 504.097 18.5325   1
   8  10   2 553.553 15.5019   3
   8  10  -4 316.661 10.8162   5
  -8  10   4 325.539 13.6404   1
   4   8 -10 318.101 10.4705   5
   8  10   4 322.704 15.0933   4
  -8  10  -4 292.693 11.0587   3
   8  10   4 309.611 11.0626   3
  -8  10  -4 301.445 14.0187   1
   8  10  -6 384.729 12.8282   5
  -6   8  10 396.306 15.7255   1
  10   6  -8 388.567 13.0031   5
   6   8 -10 397.772 12.6691   5
  -8  10   6 398.297 15.9020   1
  -8  10  -6 344.959 16.0549   1
   8  10   6 386.037 13.2438   3
 -10  10   0 355.899 14.8182   1
 -10  10   0 369.495 16.6422   3
   0  10  10 368.355 15.1692   1
   0  10  10 356.083 12.2218   3
   2  10 -10 253.806 9.55694   5
  10  10  -2 250.090 9.92381   5
 -10  10   2 262.075 12.6401   1
  -2  10  10 252.786 12.8718   1
 -10  10  -2 298.792 13.4000   1
   2  10  10 293.616 12.7804   1
   2  10  10 294.665 10.6419   3
 -10  10  -2 292.992 10.8799   3
   4  10 -10 348.346 11.5131   5
 -10  10   4 340.131 14.4070   1
  -4  10  10 328.368 15.0496   1
  10  10  -4 322.916 11.7940   5
   4  10  10 347.827 12.4305   3
 -10  10  -4 349.804 15.1774   1
   1  11  -1 63.3436 4.59350   3
   1  11  -1 66.0491 4.51032   4
   1  11  -1 59.5015 4.02696   5
   1  11  -1 58.5191 3.41169   2
   1  11  -1 58.2858 5.12636   1
  -1  11   1 59.3327 5.54496   1
  -1  11   1 58.5752 3.47470   2
  -1  11   1 57.4594 4.36589   3
  -1  11   1 62.2108 4.36350   4
  -1  11   1 62.6315 4.10208   5
  -1  11  -1 68.5816 4.09448   5
  -1  11  -1 68.6952 4.47599   4
  -1  11  -1 65.9829 5.73078   1
  -1  11  -1 67.9538 3.64230   2
  -1  11  -1 67.3948 4.53140   3
   1  11   1 71.4771 5.42960   1
   1  11   1 68.4195 3.34594   2
   1  11   1 66.5039 4.69498   3
   1  11   1 65.7496 4.51697   4
   1  11   1 67.2774 4.04779   5
 -11   3   1 163.981 6.82671   2
  -1  11   3 183.350 8.93073   1
  -1  11   3 165.975 5.93232   2
  -1  11   3 176.728 7.28533   3
  -1  11   3 171.372 7.17928   4
   1  11  -3 172.651 8.28802   1
   1  11  -3 174.980 6.25715   2
   1  11  -3 180.243 7.43196   3
   1  11  -3 176.855 7.29550   4
   1  11  -3 174.226 6.79686   5
   1  11   3 181.619 8.46967   1
   1  11   3 180.453 7.39753   3
   1  11   3 185.787 7.34253   4
   1  11   3 165.601 6.52522   5
  -1  11  -3 184.017 7.40406   4
  -1  11  -3 188.017 7.54769   3
  -1  11  -3 176.579 6.83745   5
  -1  11  -3 175.642 8.88294   1
  -1  11  -3 187.005 6.41281   2
  -1  11   5 157.743 8.67235   1
   1  11  -5 135.635 6.82936   3
   1  11  -5 138.799 6.21343   5
  -1  11   5 151.041 6.66642   4
  -1  11   5 149.052 6.77350   3
 -11   5   1 148.348 6.50663   2
   1  11  -5 151.308 8.02011   1
   1  11  -5 140.018 6.73636   4
  -1  11  -5 151.956 6.34388   5
  -1  11  -5 159.388 7.23654   3
  -1  11  -5 157.674 7.05867   4
   1  11   5 158.155 8.19729   1
  -1  11  -5 148.442 8.38368   1
   1  11   5 149.117 6.84735   3
   1  11   5 151.449 6.75426   4
 -11   5  -1 145.318 6.22863   2
  -1  11  -5 151.360 5.94426   2
  -1  11   7 36.4498 5.39042   1
 -11   7   1 33.2470 4.08510   2
  -1  11   7 38.9693 4.13855   3
  -1  11   7 35.4257 3.88431   4
   1  11  -7 36.9106 3.46590   5
   1  11  -7 31.8532 4.87726   1
  -1  11  -7 28.9380 3.21628   5
  -1  11  -7 32.2151 4.47444   3
  -1  11  -7 28.3055 3.79016   4
  -1  11  -7 30.5346 5.02303   1
   1  11   7 45.8140 4.75633   3
   1  11   7 33.6106 4.91758   1
 -11   7  -1 27.8754 3.31053   2
  -1  11   9 51.7798 4.93711   3
  -1  11   9 47.8090 6.35326   1
   1  11  -9 41.5902 3.92954   5
   1  11   9 54.4131 5.29823   3
  -1  11  -9 49.0448 4.30636   5
   1  11   9 60.1575 6.66531   1
  -3  11   1 166.963 6.97336   4
  -3  11   1 172.986 6.18286   2
   3  11  -1 175.625 6.72079   5
   3  11  -1 166.116 9.15338   1
   3  11  -1 169.834 7.10845   4
   3  11  -1 168.530 7.21333   3
  -3  11   1 183.165 9.33319   1
  -3  11   1 176.436 7.16909   3
  -3  11  -1 193.669 9.54631   1
   3  11   1 179.783 7.26760   4
   3  11   1 169.426 7.32269   3
   3  11   1 175.844 6.56825   5
  -3  11  -1 172.410 7.11861   4
   3  11   1 168.271 8.60597   1
  -3  11  -1 166.761 6.21715   2
  -3  11  -1 168.906 7.19161   3
  -3  11  -1 180.561 6.82354   5
  -3  11   3 42.5760 3.98579   4
  -3  11   3 39.7030 5.33639   1
  -3  11   3 40.2606 3.19839   2
   3  11  -3 44.0475 3.79931   5
   3  11  -3 46.2083 6.93493   1
   3  11  -3 30.3142 3.41398   4
   3  11  -3 37.1881 4.08044   3
  -3  11   3 47.4791 4.52655   3
  -3  11  -3 51.4475 3.56817   2
   3  11   3 42.9148 4.30073   3
  -3  11  -3 48.6485 5.77658   1
  -3  11  -3 48.2820 4.27356   3
  -3  11  -3 47.0475 4.10956   4
   3  11   3 50.5899 4.29767   4
   3  11   3 47.2909 3.48579   5
   3  11   3 42.3928 4.65045   1
  -3  11  -3 49.5522 3.83224   5
  -3  11   5 55.1493 3.45520   2
 -11   5   3 50.7754 4.09801   2
  -3  11   5 54.6725 4.48422   3
   3  11  -5 55.7137 4.15991   5
  -3  11   5 61.7157 6.47798   1
  -3  11   5 51.5673 4.33661   4
  -3  11  -5 50.5053 6.24723   1
  -3  11  -5 48.0037 4.60158   4
   3  11   5 54.8003 4.97725   3
   3  11   5 43.4536 5.43570   1
  -3  11  -5 53.4999 3.93470   2
  -3  11  -5 47.0755 4.83591   3
   3  11   5 44.5423 4.46202   4
  -3  11  -5 47.1167 3.88466   5
  -3  11   7 143.654 6.90045   3
  -3  11   7 147.628 6.95421   4
  11   7  -3 150.393 7.01672   5
  -3  11   7 140.135 9.34329   1
   3  11  -7 147.452 6.61905   5
   3  11   7 155.325 7.46074   3
  -3  11  -7 155.701 9.68353   1
  -3  11  -7 147.281 6.41475   5
  -3  11  -7 146.619 7.74749   3
 -11   7  -3 145.167 6.63065   2
   3  11  -9 104.586 5.98094   5
  11   9  -3 98.4354 6.39700   5
  -3  11   9 113.561 8.93466   1
  -3  11  -9 111.379 9.31448   1
   3  11   9 122.928 6.97599   3
  -5  11   1 146.524 6.56280   4
   5  11  -1 155.757 6.77611   3
  -5  11   1 142.450 5.75893   2
  -5  11   1 149.656 6.72750   3
   5  11  -1 156.110 6.65810   4
  -5  11   1 150.098 9.12917   1
   5  11  -1 145.866 6.22665   5
  -5  11  -1 146.062 9.04470   1
   5  11   1 140.884 5.95042   5
  -5  11  -1 148.456 5.89916   2
  -5  11  -1 138.841 6.70965   3
   5  11   1 140.722 6.63969   4
  -5  11  -1 144.526 6.60366   4
   5  11   1 132.742 6.68983   3
  -5  11   3 52.6257 4.27394   4
  -5  11   3 48.3841 4.40985   3
  -5  11   3 52.7351 6.49568   1
   3   5 -11 49.5400 3.71484   5
   5  11  -3 55.1161 4.29684   5
  -5  11   3 52.4532 3.75070   2
  -5  11  -3 44.6901 4.54217   3
  -5  11  -3 42.5141 4.34004   4
   5  11   3 46.8890 4.61357   3
   5  11   3 41.9453 4.32371   4
  -5  11  -3 48.8745 6.38062   1
  -5  11  -3 44.7419 3.76536   2
  -5  11   5 58.2626 4.04180   2
  -5  11   5 52.1015 6.83473   1
   5   5 -11 57.6934 4.62247   5
  -5  11   5 63.8165 4.82668   4
  -5  11   5 58.6416 4.88916   3
   5  11  -5 56.7134 4.52526   5
   5  11   5 66.5314 5.40097   3
  -5  11  -5 67.2819 5.41580   3
  -5  11  -5 67.7872 4.39714   5
  -5  11  -5 76.2925 7.75382   1
   7   5 -11 113.992 6.64181   5
   5  11  -7 124.935 6.37213   5
  -5  11   7 129.745 9.30374   1
  11   7  -5 131.662 6.95918   5
   5  11   7 119.923 7.14550   3
  -5  11  -7 132.869 7.52172   3
  -5  11  -7 148.525 10.2089   1
  -7  11   1 41.1373 6.10454   1
  -7  11   1 39.3542 4.29374   3
  -7  11   1 32.8705 3.57050   4
   7  11  -1 35.3183 3.48096   5
   7  11   1 36.4775 4.14741   3
  -7  11  -1 27.7297 5.33858   4
  -7  11  -1 34.2348 4.19080   3
  -7  11  -1 30.4074 5.67315   1
   7  11  -3 147.145 6.60188   5
  -7  11   3 144.338 6.94046   4
   3   7 -11 145.125 6.28167   5
  -7  11   3 141.586 6.89037   3
  -7  11   3 141.506 9.37177   1
  -7  11  -3 133.847 7.14771   3
  -7  11  -3 137.444 9.70138   1
   7  11   3 132.424 7.66636   4
   7  11   3 141.621 7.20581   3
   5   7 -11 127.233 6.32885   5
   7  11  -5 130.637 6.59507   5
  -7  11   5 126.288 9.21778   1
   7  11   5 127.274 7.06622   3
  -7  11  -5 118.491 6.97059   3
  -7  11  -5 115.421 9.70170   1
  -9  11   1 51.4461 6.86065   1
  -9  11   1 46.2900 5.14868   3
   9  11  -1 46.3159 4.16739   5
  -9  11  -1 56.4766 7.46825   1
   1   9  11 55.2197 5.12455   3
  -9  11  -1 56.8559 5.47499   3
  -9  11   3 118.941 9.30457   1
  -3   9  11 110.171 9.04869   1
   3   9 -11 109.625 5.90679   5
   9  11  -3 108.478 6.36488   5
   3   9  11 108.720 6.65960   3
  -9  11  -3 109.036 6.87719   3
  -9  11  -3 113.039 9.38421   1
   0  12   0 165.596 8.61819   1
   0  12   0 176.157 6.18231   2
   0  12   0 173.034 7.51505   3
   0  12   0 180.670 7.46210   4
   0  12   0 179.210 6.91687   5
   0  12   2 400.490 12.5918   4
   0  12   2 386.282 11.9190   5
   0  12  -2 398.194 12.7055   3
   0  12  -2 390.133 12.6119   4
   0  12  -2 381.592 11.9717   5
   0  12   2 375.588 14.0035   1
   0  12   2 383.038 12.4777   3
   0  12  -2 394.544 11.3222   2
   0  12  -2 389.354 14.1989   1
 -12   4   0 1257.45 33.7178   2
   0  12   4 1334.19 34.6027   3
   0  12  -4 1344.64 33.4078   2
   0  12  -4 1344.52 34.8648   3
   0  12  -4 1320.86 34.7216   4
   0  12  -4 1343.14 34.0606   5
   0  12   4 1340.52 36.8274   1
   0  12  -4 1294.61 36.4946   1
   0  12   4 1317.96 34.4884   4
   0  12  -6 176.330 9.55838   1
   0  12  -6 178.680 8.36127   3
   0  12  -6 163.078 8.14163   4
   0  12   6 186.923 7.98031   3
   0  12   6 183.773 9.74134   1
   0  12  -6 180.879 7.38498   5
 -12   6   0 170.591 7.84094   2
   0  12  -8 90.2254 7.98456   1
   0  12  -8 91.6143 5.46355   5
   0  12   8 97.5604 6.16366   3
  -2  12   0 365.578 12.2641   3
   2  12   0 374.966 12.3991   4
  -2  12   0 393.138 11.2061   2
   2  12   0 395.283 11.8680   5
   2  12   0 377.635 13.4789   1
   2  12   0 381.491 12.5447   3
  -2  12   0 376.768 12.2301   4
  -2  12   0 389.479 11.9555   5
  -2  12   0 397.078 14.6126   1
   2  12  -2 683.785 19.9059   3
   2  12  -2 707.827 18.4195   2
  -2  12   2 696.325 19.7654   4
   2  12  -2 708.360 21.2209   1
  -2  12   2 726.919 22.4083   1
  -2  12   2 698.117 18.4377   2
   2  12  -2 682.168 19.8286   4
   2  12  -2 708.952 19.3445   5
  -2  12   2 714.843 19.9214   3
   2  12   2 689.271 19.8784   4
   2  12   2 663.349 18.9256   5
   2  12   2 700.961 19.9970   3
   2  12   2 676.897 20.9842   1
  -2  12  -2 708.641 19.9446   4
  -2  12  -2 717.502 22.3045   1
  -2  12  -2 697.050 18.6985   2
  -2  12  -2 705.662 20.0210   3
  -2  12  -2 694.212 19.3341   5
  -2  12   4 261.805 9.68861   3
   2  12  -4 260.518 9.96509   3
   2  12  -4 255.289 9.84935   4
  -2  12   4 269.688 9.68432   4
   2  12  -4 268.310 9.39988   5
   2  12  -4 286.558 11.2016   1
  -2  12   4 288.054 12.3682   1
 -12   4   2 264.266 9.43792   2
  -2  12  -4 269.590 10.1144   3
  -2  12  -4 272.963 9.03017   2
   2  12   4 280.343 10.1251   3
   2  12   4 267.710 10.9921   1
   2  12   4 270.131 11.8416   4
  -2  12  -4 268.203 9.32265   5
  -2  12  -4 280.070 10.0293   4
   2  12   4 258.455 8.89163   5
  -2  12  -4 270.759 11.9961   1
  -2  12   6 453.903 17.2666   1
  12   6  -2 460.321 14.2851   5
   2  12  -6 457.080 13.9766   5
  -2  12   6 440.610 14.3097   3
   2  12  -6 436.668 15.9511   1
  -2  12  -6 488.706 15.1537   3
   2  12   6 459.236 14.6764   3
  -2  12  -6 452.763 13.7988   5
  -2  12  -6 466.577 17.1357   1
   2  12   6 452.579 16.1169   1
   2  12  -8 182.859 7.72757   5
  -2  12   8 184.002 8.21903   3
  -2  12   8 180.984 10.8318   1
  -2  12  -8 181.094 7.52888   5
   2  12   8 186.538 8.47136   3
  -2  12  -8 178.663 10.7515   1
   2  12   8 182.624 9.91629   1
  -2  12  -8 167.286 8.84115   3
   4  12   0 1239.26 33.4735   4
  -4  12   0 1270.87 33.4001   4
  -4  12   0 1347.65 36.9284   1
  -4  12   0 1292.64 32.2771   2
  -4  12   0 1262.61 33.4604   3
   4  12   0 1235.92 33.5311   3
   4  12   0 1310.08 32.8838   5
   4  12  -2 266.367 9.66176   4
  -4  12   2 251.777 9.52544   3
  -4  12   2 263.597 8.51477   2
   4  12  -2 281.912 9.87769   3
  -4  12   2 251.468 9.38218   4
  -4  12   2 265.759 12.3176   1
   4  12  -2 266.812 9.19815   5
  -4  12  -2 271.924 9.24428   5
   4  12   2 254.709 9.84836   3
  -4  12  -2 268.893 12.3139   1
   4  12   2 268.707 8.90825   5
  -4  12  -2 250.468 11.2173   4
  -4  12  -2 263.726 9.81667   3
   4  12   2 250.662 9.65721   4
  -4  12  -2 261.418 8.79018   2
   4  12  -4 129.029 6.19966   5
  -4  12   4 114.554 6.38114   3
  -4  12   4 114.558 8.66749   1
  -4  12   4 122.066 5.38665   2
   4  12   4 128.976 6.87417   3
  -4  12  -4 118.615 5.88921   5
  -4  12  -4 126.241 6.91106   3
  -4  12  -4 126.494 8.87890   1
  12   6  -4 255.227 9.57678   5
   4  12  -6 231.364 8.93050   5
   6   4 -12 223.900 9.08346   5
  -4  12   6 231.412 12.2440   1
  -4  12   6 240.124 9.41878   3
  -4  12  -6 242.991 9.95338   3
   4  12   6 231.290 9.80340   3
  -4  12  -6 241.756 8.83430   5
  -4  12  -6 253.852 12.6174   1
  -6  12   0 173.705 10.7000   1
  -6  12   0 193.013 8.07918   3
   6  12   0 179.333 7.86747   3
   6  12   0 181.948 7.37586   5
  -6  12   2 439.373 14.2022   3
   6  12  -2 453.491 13.8955   5
  -6  12   2 426.969 17.3524   1
  -6  12  -2 459.054 14.6181   3
   6  12   2 465.711 14.5326   3
  -6  12  -2 460.038 17.8315   1
   4   6 -12 241.540 9.94602   5
   6  12  -4 233.277 9.04854   5
  -6  12   4 233.042 9.28257   3
  -6  12   4 231.484 12.3203   1
  -6  12  -4 246.659 12.7898   1
  -6  12  -4 234.901 9.76823   3
   6  12   4 241.940 9.74689   3
  -6  12   6 326.624 14.8047   1
   6   6 -12 316.418 11.2382   5
  12   6  -6 335.026 11.6683   5
   6  12  -6 318.206 11.2641   5
  -6  12  -6 316.481 15.1338   1
  -6  12  -6 318.657 12.0230   3
   6  12   6 314.533 11.9963   3
  -8  12   0 86.0658 8.53947   1
  -8  12   0 87.4582 6.20290   3
   8  12  -2 187.621 7.95834   5
  -8  12   2 180.240 8.28377   3
  -8  12   2 183.879 11.0737   1
  -8  12  -2 173.716 8.41543   3
  -8  12  -2 167.513 11.2296   1
   1  13  -1 110.981 5.60348   5
   1  13  -1 111.784 4.84988   2
   1  13  -1 107.418 6.32531   3
  -1  13   1 105.005 5.59375   5
  -1  13   1 108.398 7.55202   1
  -1  13   1 109.715 4.86798   2
  -1  13   1 113.352 6.30209   3
   1  13  -1 112.535 7.23892   1
  -1  13  -1 95.4371 5.49724   5
  -1  13  -1 98.9549 4.86411   2
  -1  13  -1 98.3518 6.07110   3
  -1  13  -1 100.339 7.38969   1
   1  13   1 97.8423 6.92357   1
   1  13   1 100.310 6.17163   3
   1  13   1 93.6077 5.35992   5
   1  13  -3 95.0859 5.98222   2
   1  13  -3 95.6704 6.24898   3
   1  13  -3 96.0624 5.46193   5
   1  13  -3 93.0566 6.84615   1
  -1  13   3 89.7755 7.30945   1
   1  13   3 87.9351 6.84180   1
  -1  13  -3 94.0221 6.17447   3
  -1  13  -3 93.9499 5.40434   5
   1  13   3 100.578 6.22560   3
   1  13   3 95.8224 5.32416   5
  -1  13  -3 87.3430 7.23193   1
   1  13  -5 69.1590 6.61962   1
  -1  13   5 73.1835 7.14737   1
  -1  13   5 72.5281 5.58885   3
   1  13  -5 74.8998 5.18204   5
   1  13  -5 61.5117 5.72461   3
   1  13   5 89.5854 6.03090   3
  -1  13  -5 74.5801 7.20464   1
  -1  13  -5 84.0831 6.30647   3
  -1  13  -5 81.5935 5.12081   5
   1  13   5 72.0581 6.68847   1
  -3  13   1 98.5356 7.88698   1
   3  13  -1 89.5569 6.09887   3
   3  13  -1 93.4496 5.28417   5
  -3  13   1 96.4674 5.82189   3
  -3  13  -1 91.5589 5.98865   3
  -3  13  -1 78.4731 7.39665   1
   3  13   1 91.4603 5.99257   3
  -3  13  -1 89.7856 5.39896   5
   3  13   1 85.0731 5.06306   5
  -3  13   3 78.3060 7.48142   1
   3  13  -3 70.5385 4.97902   5
  -3  13   3 79.2201 5.55327   3
   3  13  -3 69.0522 5.51112   3
  -3  13  -3 66.4886 7.26388   1
  -3  13  -3 64.4191 5.52409   3
   3  13   3 61.8120 4.53362   5
   3  13   3 64.8538 5.68223   3
  -3  13  -3 60.2416 4.83425   5
   3  13  -5 73.5830 5.30592   5
  -3  13   5 69.2953 7.65884   1
  -3  13   5 76.7038 5.71875   3
  -3  13  -5 80.8319 5.30452   5
  -3  13  -5 85.7539 6.41858   3
  -3  13  -5 90.5151 8.16370   1
   3  13   5 74.7848 5.98066   3
  -5  13   1 79.0165 5.77698   3
  -5  13   1 77.4719 8.00160   1
   5  13  -1 75.6832 5.14432   5
   5  13  -1 70.1486 5.54953   3
   5  13   1 76.3936 5.01883   5
  -5  13  -1 92.6984 8.22140   1
  -5  13  -1 67.2386 5.57128   3
   5  13   1 71.9363 5.79170   3
   5  13  -3 61.3347 5.05696   5
  -5  13   3 69.4987 7.72140   1
  -5  13   3 68.9735 5.49584   3
  -5  13  -3 78.8486 6.09228   3
   5  13   3 70.4727 5.97347   3
  -5  13  -3 86.8908 8.38634   1
   0  14   0 288.992 12.5242   1
   0  14   0 299.177 11.1784   3
   0  14   0 300.266 10.4197   5
   0  14   2 386.149 15.0578   1
   0  14   2 404.320 13.5910   3
   0  14   2 383.185 12.5585   5
   0  14  -2 400.127 12.7454   5
   0  14  -2 403.251 13.7438   3
   0  14  -2 393.709 15.3132   1
   0  14   4 101.834 7.89317   1
   0  14   4 98.2742 6.35762   3
   0  14  -4 104.493 7.96420   1
   0  14  -4 95.7477 5.74953   5
   0  14  -4 99.3625 6.84120   3
   2  14   0 400.900 13.7567   3
  -2  14   0 413.862 16.0386   1
  -2  14   0 392.911 13.4646   3
  -2  14   0 401.987 12.8992   5
   2  14   0 384.538 12.6315   5
   2  14  -2 257.143 10.2599   3
   2  14  -2 263.999 9.51300   5
  -2  14   2 267.003 12.3812   1
  -2  14   2 263.338 10.1571   3
  -2  14  -2 250.446 10.2376   3
  -2  14  -2 236.625 11.9471   1
   2  14   2 249.190 10.1692   3
   2  14   2 241.525 9.18799   5
  -2  14  -2 255.060 9.57699   5
  -2  14   4 328.530 14.3175   1
   2  14  -4 318.872 11.1593   5
   2  14  -4 307.219 11.8508   3
   2  14   4 333.377 12.1021   3
  -2  14  -4 312.984 11.1311   5
  -2  14  -4 334.398 12.2498   3
  -2  14  -4 323.746 14.2848   1
  -4  14   0 96.0325 6.44696   3
   4  14   0 105.737 5.87071   5
  -4  14   0 99.5015 8.71457   1
   4  14   0 109.002 6.79997   3
  -4  14   2 311.226 11.4049   3
   4  14  -2 302.110 10.7843   5
  -4  14   2 305.410 14.2484   1
   4  14  -2 302.610 14.9933   3
  -4  14  -2 335.028 14.6571   1
  -4  14  -2 309.432 11.6176   3
   4  14   2 303.588 11.6926   3
   4  14   2 300.611 10.5050   5
   0   0   0    0.00    0.00   0

 _exptl_absorpt_process_details
)
 SADABS 2016/2: Krause, L., Herbst-Irmer, R., Sheldrick G.M. & Stalke D.,
 J. Appl. Cryst. 48 (2015) 3-10
)
 _exptl_absorpt_correction_type   multi-scan
 _exptl_absorpt_correction_T_max  0.7460
 _exptl_absorpt_correction_T_min  0.5518
 _exptl_special_details
)
 The following wavelength and cell were deduced by SADABS from the
 direction cosines etc. They are given here for emergency use only:
 CELL 0.71073   10.452   10.451   10.451   90.009   89.996   90.006
)

;
_shelx_hkl_checksum              76970
loop_
_space_group_symop_operation_xyz
'x, y, z'
'-x, -y, z'
'-x, y, -z'
'x, -y, -z'
'z, x, y'
'z, -x, -y'
'-z, -x, y'
'-z, x, -y'
'y, z, x'
'-y, z, -x'
'y, -z, -x'
'-y, -z, x'
'y, x, z'
'-y, -x, z'
'y, -x, -z'
'-y, x, -z'
'x, z, y'
'-x, z, -y'
'-x, -z, y'
'x, -z, -y'
'z, y, x'
'z, -y, -x'
'-z, y, -x'
'-z, -y, x'
'x, y+1/2, z+1/2'
'-x, -y+1/2, z+1/2'
'-x, y+1/2, -z+1/2'
'x, -y+1/2, -z+1/2'
'z, x+1/2, y+1/2'
'z, -x+1/2, -y+1/2'
'-z, -x+1/2, y+1/2'
'-z, x+1/2, -y+1/2'
'y, z+1/2, x+1/2'
'-y, z+1/2, -x+1/2'
'y, -z+1/2, -x+1/2'
'-y, -z+1/2, x+1/2'
'y, x+1/2, z+1/2'
'-y, -x+1/2, z+1/2'
'y, -x+1/2, -z+1/2'
'-y, x+1/2, -z+1/2'
'x, z+1/2, y+1/2'
'-x, z+1/2, -y+1/2'
'-x, -z+1/2, y+1/2'
'x, -z+1/2, -y+1/2'
'z, y+1/2, x+1/2'
'z, -y+1/2, -x+1/2'
'-z, y+1/2, -x+1/2'
'-z, -y+1/2, x+1/2'
'x+1/2, y, z+1/2'
'-x+1/2, -y, z+1/2'
'-x+1/2, y, -z+1/2'
'x+1/2, -y, -z+1/2'
'z+1/2, x, y+1/2'
'z+1/2, -x, -y+1/2'
'-z+1/2, -x, y+1/2'
'-z+1/2, x, -y+1/2'
'y+1/2, z, x+1/2'
'-y+1/2, z, -x+1/2'
'y+1/2, -z, -x+1/2'
'-y+1/2, -z, x+1/2'
'y+1/2, x, z+1/2'
'-y+1/2, -x, z+1/2'
'y+1/2, -x, -z+1/2'
'-y+1/2, x, -z+1/2'
'x+1/2, z, y+1/2'
'-x+1/2, z, -y+1/2'
'-x+1/2, -z, y+1/2'
'x+1/2, -z, -y+1/2'
'z+1/2, y, x+1/2'
'z+1/2, -y, -x+1/2'
'-z+1/2, y, -x+1/2'
'-z+1/2, -y, x+1/2'
'x+1/2, y+1/2, z'
'-x+1/2, -y+1/2, z'
'-x+1/2, y+1/2, -z'
'x+1/2, -y+1/2, -z'
'z+1/2, x+1/2, y'
'z+1/2, -x+1/2, -y'
'-z+1/2, -x+1/2, y'
'-z+1/2, x+1/2, -y'
'y+1/2, z+1/2, x'
'-y+1/2, z+1/2, -x'
'y+1/2, -z+1/2, -x'
'-y+1/2, -z+1/2, x'
'y+1/2, x+1/2, z'
'-y+1/2, -x+1/2, z'
'y+1/2, -x+1/2, -z'
'-y+1/2, x+1/2, -z'
'x+1/2, z+1/2, y'
'-x+1/2, z+1/2, -y'
'-x+1/2, -z+1/2, y'
'x+1/2, -z+1/2, -y'
'z+1/2, y+1/2, x'
'z+1/2, -y+1/2, -x'
'-z+1/2, y+1/2, -x'
'-z+1/2, -y+1/2, x'
loop_
_atom_site_label
_atom_site_type_symbol
_atom_site_fract_x
_atom_site_fract_y
_atom_site_fract_z
_atom_site_U_iso_or_equiv
_atom_site_adp_type
_atom_site_occupancy
_atom_site_site_symmetry_order
_atom_site_calc_flag
_atom_site_refinement_flags_posn
_atom_site_refinement_flags_adp
_atom_site_refinement_flags_occupancy
I1 I 0.500000 0.500000 0.000000 0.0389(3) Uani 0.990(4) 24 d S T P
S3 S 0.500000 0.500000 0.000000 0.0389(3) Uani 0.010(4) 24 d S T P
Sb1 Sb 0.500000 0.500000 0.500000 0.01371(13) Uani 0.8002 24 d S T P
Sn1 Sn 0.500000 0.500000 0.500000 0.01371(13) Uani 0.1999 24 d S T P
S1 S 0.250000 0.250000 0.250000 0.0200(6) Uani 0.957(5) 24 d S T P
I2 I 0.250000 0.250000 0.250000 0.0200(6) Uani 0.043(5) 24 d S T P
S2 S 0.37149(6) 0.37149(6) 0.62851(6) 0.0208(2) Uani 1 6 d S T P
Li1 Li 0.292(2) 0.5238(14) 0.792(2) 0.039(7) Uani 0.42(5) 2 d S T .
Li2 Li 0.250000 0.521(5) 0.750000 0.042(16) Uiso 0.24(10) 4 d S . .
loop_
_atom_site_aniso_label
_atom_site_aniso_U_11
_atom_site_aniso_U_22
_atom_site_aniso_U_33
_atom_site_aniso_U_23
_atom_site_aniso_U_13
_atom_site_aniso_U_12
I1 0.0389(3) 0.0389(3) 0.0389(3) 0.000 0.000 0.000
S3 0.0389(3) 0.0389(3) 0.0389(3) 0.000 0.000 0.000
Sb1 0.01371(13) 0.01371(13) 0.01371(13) 0.000 0.000 0.000
Sn1 0.01371(13) 0.01371(13) 0.01371(13) 0.000 0.000 0.000
S1 0.0200(6) 0.0200(6) 0.0200(6) 0.000 0.000 0.000
I2 0.0200(6) 0.0200(6) 0.0200(6) 0.000 0.000 0.000
S2 0.0208(2) 0.0208(2) 0.0208(2) 0.0034(2) 0.0034(2) -0.0034(2)
Li1 0.041(9) 0.036(7) 0.041(9) -0.002(5) 0.008(9) -0.002(5)
loop_
_atom_type_symbol
_atom_type_description
_atom_type_scat_dispersion_real
_atom_type_scat_dispersion_imag
_atom_type_scat_source
I I -0.4742 1.8119 'International Tables Vol C Tables 4.2.6.8 and 6.1.1.4'
Li Li -0.0003 0.0001 'International Tables Vol C Tables 4.2.6.8 and 6.1.1.4'
S S 0.1246 0.1234 'International Tables Vol C Tables 4.2.6.8 and 6.1.1.4'
Sb Sb -0.5866 1.5461 'International Tables Vol C Tables 4.2.6.8 and 6.1.1.4'
Sn Sn -0.6537 1.4246 'International Tables Vol C Tables 4.2.6.8 and 6.1.1.4'
loop_
_geom_angle_atom_site_label_1
_geom_angle_atom_site_label_2
_geom_angle_atom_site_label_3
_geom_angle
_geom_angle_site_symmetry_1
_geom_angle_site_symmetry_3
Li1 I1 Li1 52.4(5) 3_656 35_565
Li1 I1 Li1 52.4(5) 3_656 55_664
Li1 I1 Li1 52.4(5) 35_565 55_664
Li1 I1 Li1 119.79(3) 3_656 33_544
Li1 I1 Li1 170.8(6) 35_565 33_544
Li1 I1 Li1 119.79(3) 55_664 33_544
Li1 I1 Li1 170.8(5) 3_656 1_554
Li1 I1 Li1 119.79(3) 35_565 1_554
Li1 I1 Li1 119.79(3) 55_664 1_554
Li1 I1 Li1 67.5(4) 33_544 1_554
Li1 I1 Li1 119.79(3) 3_656 53_454
Li1 I1 Li1 119.79(3) 35_565 53_454
Li1 I1 Li1 170.8(5) 55_664 53_454
Li1 I1 Li1 67.5(4) 33_544 53_454
Li1 I1 Li1 67.5(4) 1_554 53_454
Li1 I1 Li1 90.37(5) 3_656 2_664
Li1 I1 Li1 119.79(3) 35_565 2_664
Li1 I1 Li1 67.5(4) 55_664 2_664
Li1 I1 Li1 52.4(5) 33_544 2_664
Li1 I1 Li1 90.37(4) 1_554 2_664
Li1 I1 Li1 119.79(3) 53_454 2_664
Li1 I1 Li1 119.79(3) 3_656 36_664
Li1 I1 Li1 90.37(4) 35_565 36_664
Li1 I1 Li1 67.5(4) 55_664 36_664
Li1 I1 Li1 90.37(4) 33_544 36_664
Li1 I1 Li1 52.4(5) 1_554 36_664
Li1 I1 Li1 119.79(3) 53_454 36_664
Li1 I1 Li1 67.5(4) 2_664 36_664
Li1 I1 Li1 67.5(4) 3_656 56_655
Li1 I1 Li1 119.79(3) 35_565 56_655
Li1 I1 Li1 90.37(5) 55_664 56_655
Li1 I1 Li1 52.4(5) 33_544 56_655
Li1 I1 Li1 119.79(3) 1_554 56_655
Li1 I1 Li1 90.37(4) 53_454 56_655
Li1 I1 Li1 52.4(5) 2_664 56_655
Li1 I1 Li1 119.79(3) 36_664 56_655
Li1 I1 Li1 90.37(5) 3_656 4_566
Li1 I1 Li1 67.5(4) 35_565 4_566
Li1 I1 Li1 119.79(3) 55_664 4_566
Li1 I1 Li1 119.79(3) 33_544 4_566
Li1 I1 Li1 90.37(5) 1_554 4_566
Li1 I1 Li1 52.4(5) 53_454 4_566
Li1 I1 Li1 170.8(5) 2_664 4_566
Li1 I1 Li1 119.79(3) 36_664 4_566
Li1 I1 Li1 119.79(3) 56_655 4_566
Li1 I1 Li1 67.5(4) 3_656 34_645
Li1 I1 Li1 90.37(4) 35_565 34_645
Li1 I1 Li1 119.79(3) 55_664 34_645
Li1 I1 Li1 90.37(4) 33_544 34_645
Li1 I1 Li1 119.79(3) 1_554 34_645
Li1 I1 Li1 52.4(5) 53_454 34_645
Li1 I1 Li1 119.79(3) 2_664 34_645
Li1 I1 Li1 170.8(5) 36_664 34_645
Li1 I1 Li1 67.5(4) 56_655 34_645
Li1 I1 Li1 52.4(5) 4_566 34_645
Li1 I1 Li1 119.79(3) 3_656 54_465
Li1 I1 Li1 67.5(4) 35_565 54_465
Li1 I1 Li1 90.37(4) 55_664 54_465
Li1 I1 Li1 119.79(3) 33_544 54_465
Li1 I1 Li1 52.4(5) 1_554 54_465
Li1 I1 Li1 90.37(4) 53_454 54_465
Li1 I1 Li1 119.79(3) 2_664 54_465
Li1 I1 Li1 52.4(5) 36_664 54_465
Li1 I1 Li1 170.8(5) 56_655 54_465
Li1 I1 Li1 67.5(4) 4_566 54_465
Li1 I1 Li1 119.79(3) 34_645 54_465
S2 Sb1 S2 109.5 2_665 4_566
S2 Sb1 S2 109.5 2_665 3_656
S2 Sb1 S2 109.5 4_566 3_656
S2 Sb1 S2 109.5 2_665 .
S2 Sb1 S2 109.5 4_566 .
S2 Sb1 S2 109.5 3_656 .
Li2 S1 Li2 180.0 34_645 81_445
Li2 S1 Li2 90.000(1) 34_645 78_456
Li2 S1 Li2 90.000(3) 81_445 78_456
Li2 S1 Li2 90.000(3) 34_645 53_454
Li2 S1 Li2 90.000(4) 81_445 53_454
Li2 S1 Li2 180.0 78_456 53_454
Li2 S1 Li2 90.000(4) 34_645 50_564
Li2 S1 Li2 90.000(3) 81_445 50_564
Li2 S1 Li2 90.000(3) 78_456 50_564
Li2 S1 Li2 90.0 53_454 50_564
Li2 S1 Li2 90.000(1) 34_645 25_544
Li2 S1 Li2 90.000(4) 81_445 25_544
Li2 S1 Li2 90.0 78_456 25_544
Li2 S1 Li2 90.000(3) 53_454 25_544
Li2 S1 Li2 180.0 50_564 25_544
Li2 S1 Li1 165.4(7) 34_645 59_465
Li2 S1 Li1 14.6(7) 81_445 59_465
Li2 S1 Li1 100.3(5) 78_456 59_465
Li2 S1 Li1 79.7(5) 53_454 59_465
Li2 S1 Li1 100.3(5) 50_564 59_465
Li2 S1 Li1 79.7(5) 25_544 59_465
Li2 S1 Li1 100.3(5) 34_645 75_546
Li2 S1 Li1 79.7(5) 81_445 75_546
Li2 S1 Li1 100.3(5) 78_456 75_546
Li2 S1 Li1 79.7(5) 53_454 75_546
Li2 S1 Li1 165.4(7) 50_564 75_546
Li2 S1 Li1 14.6(7) 25_544 75_546
Li1 S1 Li1 67.8(12) 59_465 75_546
Li2 S1 Li1 100.3(5) 34_645 31_654
Li2 S1 Li1 79.7(5) 81_445 31_654
Li2 S1 Li1 165.4(7) 78_456 31_654
Li2 S1 Li1 14.6(7) 53_454 31_654
Li2 S1 Li1 100.3(5) 50_564 31_654
Li2 S1 Li1 79.7(5) 25_544 31_654
Li1 S1 Li1 67.8(12) 59_465 31_654
Li1 S1 Li1 67.8(12) 75_546 31_654
Li2 S1 Li1 100.3(5) 34_645 50_564
Li2 S1 Li1 79.7(5) 81_445 50_564
Li2 S1 Li1 79.7(5) 78_456 50_564
Li2 S1 Li1 100.3(5) 53_454 50_564
Li2 S1 Li1 14.6(7) 50_564 50_564
Li2 S1 Li1 165.4(7) 25_544 50_564
Li1 S1 Li1 91.83(18) 59_465 50_564
Li1 S1 Li1 159.4(10) 75_546 50_564
Li1 S1 Li1 108.3(8) 31_654 50_564
Li2 S1 Li1 14.6(7) 34_645 34_645
Li2 S1 Li1 165.4(7) 81_445 34_645
Li2 S1 Li1 100.3(5) 78_456 34_645
Li2 S1 Li1 79.7(5) 53_454 34_645
Li2 S1 Li1 79.7(5) 50_564 34_645
Li2 S1 Li1 100.3(5) 25_544 34_645
Li1 S1 Li1 159.4(10) 59_465 34_645
Li1 S1 Li1 108.3(8) 75_546 34_645
Li1 S1 Li1 91.83(18) 31_654 34_645
Li1 S1 Li1 91.83(18) 50_564 34_645
Li2 S1 Li1 100.3(5) 34_645 8_656
Li2 S1 Li1 79.7(5) 81_445 8_656
Li2 S1 Li1 14.6(7) 78_456 8_656
Li2 S1 Li1 165.4(7) 53_454 8_656
Li2 S1 Li1 79.7(5) 50_564 8_656
Li2 S1 Li1 100.3(5) 25_544 8_656
Li1 S1 Li1 91.83(18) 59_465 8_656
Li1 S1 Li1 108.3(8) 75_546 8_656
Li1 S1 Li1 159.4(10) 31_654 8_656
Li1 S1 Li1 67.8(12) 50_564 8_656
Li1 S1 Li1 108.3(8) 34_645 8_656
Sb1 S2 Li2 103.7(10) . .
Sb1 S2 Li2 103.7(10) . 33_545
Li2 S2 Li2 114.6(8) . 33_545
Sb1 S2 Li2 103.7(10) . 78_456
Li2 S2 Li2 114.6(8) . 78_456
Li2 S2 Li2 114.6(8) 33_545 78_456
Sb1 S2 Li1 102.8(3) . 33_545
Li2 S2 Li1 101.3(7) . 33_545
Li2 S2 Li1 14.4(7) 33_545 33_545
Li2 S2 Li1 128.0(9) 78_456 33_545
Sb1 S2 Li1 102.8(3) . 51_556
Li2 S2 Li1 14.4(7) . 51_556
Li2 S2 Li1 128.0(9) 33_545 51_556
Li2 S2 Li1 101.3(7) 78_456 51_556
Li1 S2 Li1 115.27(18) 33_545 51_556
Sb1 S2 Li1 102.8(3) . 11_566
Li2 S2 Li1 128.0(9) . 11_566
Li2 S2 Li1 14.4(7) 33_545 11_566
Li2 S2 Li1 101.3(7) 78_456 11_566
Li1 S2 Li1 28.8(14) 33_545 11_566
Li1 S2 Li1 140.5(12) 51_556 11_566
Sb1 S2 Li1 102.8(3) . .
Li2 S2 Li1 14.4(7) . .
Li2 S2 Li1 101.3(7) 33_545 .
Li2 S2 Li1 128.0(9) 78_456 .
Li1 S2 Li1 87.6(14) 33_545 .
Li1 S2 Li1 28.8(14) 51_556 .
Li1 S2 Li1 115.27(18) 11_566 .
Sb1 S2 Li1 102.8(3) . 78_456
Li2 S2 Li1 128.0(9) . 78_456
Li2 S2 Li1 101.3(7) 33_545 78_456
Li2 S2 Li1 14.4(7) 78_456 78_456
Li1 S2 Li1 115.27(18) 33_545 78_456
Li1 S2 Li1 115.27(18) 51_556 78_456
Li1 S2 Li1 87.6(14) 11_566 78_456
Li1 S2 Li1 140.5(12) . 78_456
Sb1 S2 Li1 102.8(3) . 8_656
Li2 S2 Li1 101.3(7) . 8_656
Li2 S2 Li1 128.0(9) 33_545 8_656
Li2 S2 Li1 14.4(7) 78_456 8_656
Li1 S2 Li1 140.5(12) 33_545 8_656
Li1 S2 Li1 87.6(14) 51_556 8_656
Li1 S2 Li1 115.27(18) 11_566 8_656
Li1 S2 Li1 115.27(18) . 8_656
Li1 S2 Li1 28.8(14) 78_456 8_656
Li2 Li1 Li1 3(6) . 51_556
Li2 Li1 S1 78(6) . 25
Li1 Li1 S1 75.4(7) 51_556 25
Li2 Li1 S2 74(4) . .
Li1 Li1 S2 75.6(7) 51_556 .
S1 Li1 S2 124.0(7) 25 .
Li2 Li1 S2 74(4) . 51_556
Li1 Li1 S2 75.6(7) 51_556 51_556
S1 Li1 S2 124.0(7) 25 51_556
S2 Li1 S2 92.9(6) . 51_556
Li2 Li1 Li1 122(5) . 36_665
Li1 Li1 Li1 120.002(12) 51_556 36_665
S1 Li1 Li1 56.1(6) 25 36_665
S2 Li1 Li1 102.5(4) . 36_665
S2 Li1 Li1 160.2(6) 51_556 36_665
Li2 Li1 Li1 122(5) . 54_466
Li1 Li1 Li1 120.002(3) 51_556 54_466
S1 Li1 Li1 56.1(6) 25 54_466
S2 Li1 Li1 160.2(6) . 54_466
S2 Li1 Li1 102.5(4) 51_556 54_466
Li1 Li1 Li1 60.000(2) 36_665 54_466
Li2 Li1 I1 173(6) . 1_556
Li1 Li1 I1 175.4(3) 51_556 1_556
S1 Li1 I1 109.2(8) 25 1_556
S2 Li1 I1 101.3(8) . 1_556
S2 Li1 I1 101.3(7) 51_556 1_556
Li1 Li1 I1 63.8(2) 36_665 1_556
Li1 Li1 I1 63.8(2) 54_466 1_556
Li2 Li1 Li2 113(5) . 10_656
Li1 Li1 Li2 110.3(9) 51_556 10_656
S1 Li1 Li2 49.4(9) 25 10_656
S2 Li1 Li2 100.4(5) . 10_656
S2 Li1 Li2 166.4(7) 51_556 10_656
Li1 Li1 Li2 9.7(9) 36_665 10_656
Li1 Li1 Li2 63.9(4) 54_466 10_656
I1 Li1 Li2 73.5(9) 1_556 10_656
Li2 Li1 Li2 113(5) . 54_466
Li1 Li1 Li2 110.3(9) 51_556 54_466
S1 Li1 Li2 49.4(9) 25 54_466
S2 Li1 Li2 166.4(7) . 54_466
S2 Li1 Li2 100.4(5) 51_556 54_466
Li1 Li1 Li2 63.9(4) 36_665 54_466
Li1 Li1 Li2 9.7(9) 54_466 54_466
I1 Li1 Li2 73.5(9) 1_556 54_466
Li2 Li1 Li2 66.2(10) 10_656 54_466
Li2 Li1 Li1 118(5) . 53_455
Li1 Li1 Li1 120.000(13) 51_556 53_455
S1 Li1 Li1 144.1(4) 25 53_455
S2 Li1 Li1 91.9(5) . 53_455
S2 Li1 Li1 46.2(7) 51_556 53_455
Li1 Li1 Li1 119.999(4) 36_665 53_455
Li1 Li1 Li1 89.999(1) 54_466 53_455
I1 Li1 Li1 56.3(2) 1_556 53_455
Li2 Li1 Li1 129.7(9) 10_656 53_455
Li2 Li1 Li1 95.3(10) 54_466 53_455
Li2 Li1 Li1 118(5) . 33_545
Li1 Li1 Li1 120.000(3) 51_556 33_545
S1 Li1 Li1 144.1(4) 25 33_545
S2 Li1 Li1 46.2(7) . 33_545
S2 Li1 Li1 91.9(5) 51_556 33_545
Li1 Li1 Li1 89.999(5) 36_665 33_545
Li1 Li1 Li1 119.999(8) 54_466 33_545
I1 Li1 Li1 56.3(2) 1_556 33_545
Li2 Li1 Li1 95.3(10) 10_656 33_545
Li2 Li1 Li1 129.7(9) 54_466 33_545
Li1 Li1 Li1 59.999(1) 53_455 33_545
Li1 Li2 Li1 175(10) . 51_556
Li1 Li2 S2 92(4) . .
Li1 Li2 S2 92(4) 51_556 .
Li1 Li2 S2 92(4) . 51_556
Li1 Li2 S2 92(4) 51_556 51_556
S2 Li2 S2 98(2) . 51_556
Li1 Li2 S1 87(6) . 25
Li1 Li2 S1 87(6) 51_556 25
S2 Li2 S1 131.0(10) . 25
S2 Li2 S1 131.0(10) 51_556 25
Li1 Li2 Li1 48(4) . 36_665
Li1 Li2 Li1 127(6) 51_556 36_665
S2 Li2 Li1 94.74(16) . 36_665
S2 Li2 Li1 138.3(5) 51_556 36_665
S1 Li2 Li1 50.8(10) 25 36_665
Li1 Li2 Li1 48(4) . 54_466
Li1 Li2 Li1 127(6) 51_556 54_466
S2 Li2 Li1 138.3(5) . 54_466
S2 Li2 Li1 94.74(16) 51_556 54_466
S1 Li2 Li1 50.8(10) 25 54_466
Li1 Li2 Li1 52.2(8) 36_665 54_466
Li1 Li2 Li1 127(6) . 7_665
Li1 Li2 Li1 48(4) 51_556 7_665
S2 Li2 Li1 94.74(16) . 7_665
S2 Li2 Li1 138.3(5) 51_556 7_665
S1 Li2 Li1 50.8(10) 25 7_665
Li1 Li2 Li1 79.4(18) 36_665 7_665
Li1 Li2 Li1 102(2) 54_466 7_665
Li1 Li2 Li1 127(6) . 83_466
Li1 Li2 Li1 48(4) 51_556 83_466
S2 Li2 Li1 138.3(5) . 83_466
S2 Li2 Li1 94.74(16) 51_556 83_466
S1 Li2 Li1 50.8(10) 25 83_466
Li1 Li2 Li1 102(2) 36_665 83_466
Li1 Li2 Li1 79.4(18) 54_466 83_466
Li1 Li2 Li1 52.2(8) 7_665 83_466
Li1 Li2 Li2 58(5) . 10_656
Li1 Li2 Li2 118(5) 51_556 10_656
S2 Li2 Li2 95.0(9) . 10_656
S2 Li2 Li2 147.3(4) 51_556 10_656
S1 Li2 Li2 45.000(4) 25 10_656
Li1 Li2 Li2 9.7(9) 36_665 10_656
Li1 Li2 Li2 56.9(5) 54_466 10_656
Li1 Li2 Li2 69.7(9) 7_665 10_656
Li1 Li2 Li2 95.3(10) 83_466 10_656
Li1 Li2 Li2 58(5) . 54_466
Li1 Li2 Li2 118(5) 51_556 54_466
S2 Li2 Li2 147.3(4) . 54_466
S2 Li2 Li2 95.0(9) 51_556 54_466
S1 Li2 Li2 45.000(1) 25 54_466
Li1 Li2 Li2 56.9(5) 36_665 54_466
Li1 Li2 Li2 9.7(9) 54_466 54_466
Li1 Li2 Li2 95.3(10) 7_665 54_466
Li1 Li2 Li2 69.7(9) 83_466 54_466
Li2 Li2 Li2 60.000(5) 10_656 54_466
Li1 Li2 Li2 118(5) . 77_455
Li1 Li2 Li2 58(5) 51_556 77_455
S2 Li2 Li2 95.0(9) . 77_455
S2 Li2 Li2 147.3(4) 51_556 77_455
S1 Li2 Li2 45.000(1) 25 77_455
Li1 Li2 Li2 69.7(9) 36_665 77_455
Li1 Li2 Li2 95.3(10) 54_466 77_455
Li1 Li2 Li2 9.7(9) 7_665 77_455
Li1 Li2 Li2 56.9(5) 83_466 77_455
Li2 Li2 Li2 60.000(4) 10_656 77_455
Li2 Li2 Li2 90.000(4) 54_466 77_455
loop_
_geom_bond_atom_site_label_1
_geom_bond_atom_site_label_2
_geom_bond_distance
_geom_bond_site_symmetry_2
I1 Li1 3.09(3) 3_656
I1 Li1 3.09(3) 35_565
I1 Li1 3.09(3) 55_664
I1 Li1 3.09(3) 33_544
I1 Li1 3.09(3) 1_554
I1 Li1 3.09(3) 53_454
I1 Li1 3.09(3) 2_664
I1 Li1 3.09(3) 36_664
I1 Li1 3.09(3) 56_655
I1 Li1 3.09(3) 4_566
I1 Li1 3.09(3) 34_645
I1 Li1 3.09(3) 54_465
Sb1 S2 2.3241(11) 2_665
Sb1 S2 2.3241(11) 4_566
Sb1 S2 2.3241(11) 3_656
Sb1 S2 2.3241(11) .
S1 Li2 2.39(5) 34_645
S1 Li2 2.39(5) 81_445
S1 Li2 2.39(5) 78_456
S1 Li2 2.39(5) 53_454
S1 Li2 2.39(5) 50_564
S1 Li2 2.39(5) 25_544
S1 Li1 2.441(17) 59_465
S1 Li1 2.441(17) 75_546
S1 Li1 2.441(17) 31_654
S1 Li1 2.441(17) 50_564
S1 Li1 2.441(17) 34_645
S1 Li1 2.441(17) 8_656
S2 Li2 2.38(4) .
S2 Li2 2.38(4) 33_545
S2 Li2 2.38(4) 78_456
S2 Li1 2.475(12) 33_545
S2 Li1 2.475(12) 51_556
S2 Li1 2.475(12) 11_566
S2 Li1 2.475(12) .
S2 Li1 2.475(12) 78_456
S2 Li1 2.475(12) 8_656
Li1 Li2 0.62(3) .
Li1 Li1 1.23(6) 51_556
Li1 Li1 2.72(4) 36_665
Li1 Li1 2.72(4) 54_466
Li1 Li2 3.10(4) 10_656
Li1 Li2 3.10(4) 54_466
Li1 Li1 3.43(4) 53_455
Li1 Li1 3.43(4) 33_545
Li2 Li2 3.38(8) 10_656
Li2 Li2 3.38(8) 54_466
Li2 Li2 3.38(8) 77_455
