#------------------------------------------------------------------------------
#$Date: 2019-11-25 07:54:27 +0200 (Mon, 25 Nov 2019) $
#$Revision: 240419 $
#$URL: file:///home/coder/svn-repositories/cod/cif/4/12/97/4129761.cif $
#------------------------------------------------------------------------------
#
# This file is available in the Crystallography Open Database (COD),
# http://www.crystallography.net/
#
# All data on this site have been placed in the public domain by the
# contributors.
#
data_4129761
loop_
_publ_author_name
'Fredrickson, Rie T.'
'Guo, Yiming'
'Fredrickson, Daniel C.'
_publ_section_title
;
 Epitaxial Stabilization between Intermetallic and Carbide Domains in the
 Structures of Mn16SiC4 and Mn17Si2C4.
;
_journal_issue                   1
_journal_name_full               'Journal of the American Chemical Society'
_journal_page_first              248
_journal_page_last               256
_journal_paper_doi               10.1021/jacs.5b10355
_journal_volume                  138
_journal_year                    2016
_chemical_formula_moiety         'C4 Mn17 Si2'
_chemical_formula_sum            'C4 Mn17 Si2'
_chemical_formula_weight         1038.2
_chemical_name_common            'Manganese silicon carbide'
_space_group_IT_number           11
_space_group_name_Hall           '-P 2yb'
_space_group_name_H-M_alt        'P 1 21/m 1'
_symmetry_cell_setting           monoclinic
_symmetry_Int_Tables_number      11
_symmetry_space_group_name_Hall  '-P 2yb'
_symmetry_space_group_name_H-M   'P 1 21/m 1'
_cell_angle_alpha                90
_cell_angle_beta                 106.247(13)
_cell_angle_gamma                90
_cell_formula_units_Z            2
_cell_length_a                   6.4114(9)
_cell_length_b                   7.6648(5)
_cell_length_c                   10.4946(16)
_cell_measurement_reflns_used    1268
_cell_measurement_temperature    293
_cell_measurement_theta_max      28.7254
_cell_measurement_theta_min      3.3047
_cell_volume                     495.13(11)
_diffrn_ambient_temperature      293
_diffrn_detector                 'Xcalibur, Eos'
_diffrn_detector_area_resol_mean 16.1500
_diffrn_measured_fraction_theta_full 0.98
_diffrn_measured_fraction_theta_max 0.9
_diffrn_measurement_device       'four-cycle diffractometer'
_diffrn_measurement_device_type  'Oxford Diffraction Xcalibur'
_diffrn_measurement_method       '\w scans'
_diffrn_measurement_specimen_support Fiber
_diffrn_radiation_monochromator  graphite
_diffrn_radiation_probe          x-ray
_diffrn_radiation_source         'X-ray tube'
_diffrn_radiation_type           'Mo K\a'
_diffrn_radiation_wavelength     0.71073
_diffrn_reflns_av_R_equivalents  0.051
_diffrn_reflns_av_unetI/netI     0.049
_diffrn_reflns_limit_h_max       8
_diffrn_reflns_limit_h_min       -8
_diffrn_reflns_limit_k_max       10
_diffrn_reflns_limit_k_min       -10
_diffrn_reflns_limit_l_max       13
_diffrn_reflns_limit_l_min       -13
_diffrn_reflns_number            4268
_diffrn_reflns_theta_full        27.62
_diffrn_reflns_theta_max         28.79
_diffrn_reflns_theta_min         3.31
_diffrn_source                   'Enhance (Mo) X-ray Source'
_diffrn_source_current           45
_diffrn_source_power             2.5
_diffrn_source_voltage           50
_exptl_absorpt_coefficient_mu    21.007
_exptl_absorpt_correction_T_max  1.00000
_exptl_absorpt_correction_T_min  0.33809
_exptl_absorpt_correction_type   multi-scan
_exptl_absorpt_process_details
;
CrysAlisPro, Agilent Technologies,
Version 1.171.35.15 (release 03-08-2011 CrysAlis171 .NET)
(compiled Aug  3 2011,13:03:54)
Empirical absorption correction using spherical harmonics,
 implemented in SCALE3 ABSPACK scaling algorithm.
;
_exptl_crystal_colour            'metallic black'
_exptl_crystal_density_diffrn    6.9612
_exptl_crystal_description       Plate
_exptl_crystal_F_000             954
_exptl_crystal_size_max          0.113
_exptl_crystal_size_mid          0.070
_exptl_crystal_size_min          0.016
_refine_diff_density_max         1.17
_refine_diff_density_min         -1.24
_refine_ls_extinction_method     none
_refine_ls_goodness_of_fit_gt    1.19
_refine_ls_goodness_of_fit_ref   1.16
_refine_ls_number_constraints    0
_refine_ls_number_parameters     118
_refine_ls_number_reflns         1250
_refine_ls_number_restraints     0
_refine_ls_R_factor_all          0.0505
_refine_ls_R_factor_gt           0.0329
_refine_ls_shift/su_max          0.0419
_refine_ls_shift/su_mean         0.0070
_refine_ls_structure_factor_coef F
_refine_ls_weighting_details     w=1/(\s^2^(F)+0.0001F^2^)
_refine_ls_weighting_scheme      sigma
_refine_ls_wR_factor_gt          0.0338
_refine_ls_wR_factor_ref         0.0383
_reflns_number_gt                950
_reflns_number_total             1250
_reflns_threshold_expression     I>3\s(I)
_cod_data_source_file            ja5b10355_si_003.cif
_cod_data_source_block           I
_cod_depositor_comments
;
The following automatic conversions were performed:

data item '_diffrn_radiation_probe' value 'X-ray' was changed to
'x-ray' in accordance with the
/home/saulius/struct/COD-crude-data/automatic-downloads/DataCite-retrospective/ACS/depositions/lib/dictionaries/cif_core.dic
dictionary named 'cif_core.dic' version 2.4.2 last updated on
2011-04-26.

Automatic conversion script
Id: cif_fix_values 6909 2019-04-08 15:41:33Z antanas 
;
_cod_database_code               4129761
loop_
_space_group_symop_id
_space_group_symop_operation_xyz
1 x,y,z
2 -x,y+1/2,-z
3 -x,-y,-z
4 x,-y+1/2,z
loop_
_atom_site_label
_atom_site_type_symbol
_atom_site_fract_x
_atom_site_fract_y
_atom_site_fract_z
_atom_site_adp_type
_atom_site_U_iso_or_equiv
_atom_site_symmetry_multiplicity
_atom_site_occupancy
_atom_site_calc_flag
Mn1 Mn 0.7288(2) 0.25 0.27717(14) Uani 0.0039(4) 2 1 d
Mn2 Mn 0.50432(15) 0.08920(12) 0.40516(10) Uani 0.0041(3) 4 1 d
Mn3 Mn 0.81647(16) 0.55463(12) 0.01027(11) Uani 0.0051(3) 4 1 d
Mn4 Mn 0.9552(2) 0.25 0.12787(15) Uani 0.0044(5) 2 1 d
Mn5 Mn 0.15300(16) -0.02056(12) 0.24946(10) Uani 0.0051(3) 4 1 d
Mn6 Mn 0.87034(16) 0.52237(12) 0.38886(10) Uani 0.0047(3) 4 1 d
Mn7 Mn 0.8394(2) 0.25 0.54660(15) Uani 0.0055(5) 2 1 d
Mn8 Mn 1.1352(2) 0.25 0.40676(15) Uani 0.0053(5) 2 1 d
Mn9 Mn 0.52085(16) 0.53690(13) 0.17361(11) Uani 0.0060(3) 4 1 d
Mn10 Mn 0.5435(2) 0.25 0.02501(15) Uani 0.0069(5) 2 1 d
Mn11 Mn 0.8425(2) 0.75 0.21213(15) Uani 0.0059(5) 2 1 d
Mn12 Mn 0.5201(2) 0.75 0.36518(16) Uani 0.0081(5) 2 1 d
Si1 Si 0.1876(4) -0.25 0.1068(3) Uani 0.0031(8) 2 1 d
Si2 Si 1.3341(4) 0.25 0.1964(3) Uani 0.0046(8) 2 1 d
C1 C 0.7663(11) 0.5025(8) 0.5511(7) Uani 0.008(2) 4 1 d
C2 C 0.8309(10) 0.0350(8) 0.1926(7) Uani 0.006(2) 4 1 d
loop_
_atom_site_aniso_label
_atom_site_aniso_type_symbol
_atom_site_aniso_U_11
_atom_site_aniso_U_22
_atom_site_aniso_U_33
_atom_site_aniso_U_12
_atom_site_aniso_U_13
_atom_site_aniso_U_23
Mn1 Mn 0.0028(7) 0.0046(6) 0.0041(7) 0 0.0007(5) 0
Mn2 Mn 0.0030(5) 0.0043(5) 0.0051(5) -0.0004(4) 0.0011(4) 0.0010(4)
Mn3 Mn 0.0044(5) 0.0066(5) 0.0041(5) 0.0006(4) 0.0007(4) 0.0007(4)
Mn4 Mn 0.0028(7) 0.0053(7) 0.0048(8) 0 0.0007(5) 0
Mn5 Mn 0.0033(5) 0.0059(5) 0.0057(6) -0.0008(4) 0.0008(4) -0.0011(4)
Mn6 Mn 0.0039(5) 0.0064(5) 0.0037(5) -0.0015(4) 0.0010(4) -0.0005(4)
Mn7 Mn 0.0030(8) 0.0035(6) 0.0089(8) 0 -0.0004(6) 0
Mn8 Mn 0.0040(7) 0.0045(7) 0.0079(8) 0 0.0025(6) 0
Mn9 Mn 0.0036(5) 0.0079(5) 0.0062(6) 0.0006(4) 0.0009(4) 0.0007(4)
Mn10 Mn 0.0045(8) 0.0101(7) 0.0061(8) 0 0.0014(6) 0
Mn11 Mn 0.0050(8) 0.0045(6) 0.0083(8) 0 0.0022(6) 0
Mn12 Mn 0.0097(8) 0.0062(7) 0.0093(8) 0 0.0040(6) 0
Si1 Si 0.0043(13) 0.0022(11) 0.0029(13) 0 0.0011(10) 0
Si2 Si 0.0011(13) 0.0068(12) 0.0058(14) 0 0.0007(10) 0
C1 C 0.004(3) 0.006(3) 0.016(4) 0.003(3) 0.003(3) 0.002(3)
C2 C 0.005(3) 0.006(3) 0.006(4) -0.002(3) 0.000(3) 0.000(3)
loop_
_atom_type_symbol
_atom_type_scat_dispersion_real
_atom_type_scat_dispersion_imag
_atom_type_scat_source
C 0.0033 0.0016 'International Tables Vol C tables 4.2.6.8 and 6.1.1.1'
Mn 0.3368 0.7283 'International Tables Vol C tables 4.2.6.8 and 6.1.1.1'
Si 0.0817 0.0704 'International Tables Vol C tables 4.2.6.8 and 6.1.1.1'
loop_
_geom_angle_atom_site_label_1
_geom_angle_atom_site_label_2
_geom_angle_atom_site_label_3
_geom_angle_site_symmetry_1
_geom_angle_site_symmetry_3
_geom_angle
Mn2 Mn1 Mn2 . 4_555 57.93(5)
Mn2 Mn1 Mn4 . . 150.88(3)
Mn2 Mn1 Mn6 . . 110.48(7)
Mn2 Mn1 Mn6 . 4_555 61.42(4)
Mn2 Mn1 Mn7 . . 58.13(5)
Mn2 Mn1 Mn8 . . 111.02(6)
Mn2 Mn1 Mn9 . . 108.98(6)
Mn2 Mn1 Mn9 . 4_555 61.27(4)
Mn2 Mn1 Mn10 . . 112.04(6)
Mn2 Mn1 Si2 . 1_455 59.82(7)
Mn2 Mn1 C2 . . 97.7(2)
Mn2 Mn1 C2 . 4_555 155.3(2)
Mn2 Mn1 Mn4 4_555 . 150.88(3)
Mn2 Mn1 Mn6 4_555 . 61.42(4)
Mn2 Mn1 Mn6 4_555 4_555 110.48(7)
Mn2 Mn1 Mn7 4_555 . 58.13(5)
Mn2 Mn1 Mn8 4_555 . 111.02(6)
Mn2 Mn1 Mn9 4_555 . 61.27(4)
Mn2 Mn1 Mn9 4_555 4_555 108.98(6)
Mn2 Mn1 Mn10 4_555 . 112.04(6)
Mn2 Mn1 Si2 4_555 1_455 59.82(7)
Mn2 Mn1 C2 4_555 . 155.3(2)
Mn2 Mn1 C2 4_555 4_555 97.7(2)
Mn4 Mn1 Mn6 . . 95.82(5)
Mn4 Mn1 Mn6 . 4_555 95.82(5)
Mn4 Mn1 Mn7 . . 130.25(7)
Mn4 Mn1 Mn8 . . 68.93(6)
Mn4 Mn1 Mn9 . . 93.37(5)
Mn4 Mn1 Mn9 . 4_555 93.37(5)
Mn4 Mn1 Mn10 . . 61.48(6)
Mn4 Mn1 Si2 . 1_455 121.95(10)
Mn4 Mn1 C2 . . 53.2(2)
Mn4 Mn1 C2 . 4_555 53.2(2)
Mn6 Mn1 Mn6 . 4_555 117.54(6)
Mn6 Mn1 Mn7 . . 63.03(4)
Mn6 Mn1 Mn8 . . 64.02(4)
Mn6 Mn1 Mn9 . . 64.08(3)
Mn6 Mn1 Mn9 . 4_555 170.39(8)
Mn6 Mn1 Mn10 . . 119.68(4)
Mn6 Mn1 Si2 . 1_455 112.20(5)
Mn6 Mn1 C2 . . 140.31(19)
Mn6 Mn1 C2 . 4_555 53.38(19)
Mn6 Mn1 Mn7 4_555 . 63.03(4)
Mn6 Mn1 Mn8 4_555 . 64.02(4)
Mn6 Mn1 Mn9 4_555 . 170.39(8)
Mn6 Mn1 Mn9 4_555 4_555 64.08(3)
Mn6 Mn1 Mn10 4_555 . 119.68(4)
Mn6 Mn1 Si2 4_555 1_455 112.20(5)
Mn6 Mn1 C2 4_555 . 53.38(19)
Mn6 Mn1 C2 4_555 4_555 140.31(19)
Mn7 Mn1 Mn8 . . 61.32(6)
Mn7 Mn1 Mn9 . . 112.51(5)
Mn7 Mn1 Mn9 . 4_555 112.51(5)
Mn7 Mn1 Mn10 . . 168.28(8)
Mn7 Mn1 Si2 . 1_455 107.81(10)
Mn7 Mn1 C2 . . 115.21(18)
Mn7 Mn1 C2 . 4_555 115.21(18)
Mn8 Mn1 Mn9 . . 122.39(3)
Mn8 Mn1 Mn9 . 4_555 122.39(3)
Mn8 Mn1 Mn10 . . 130.40(9)
Mn8 Mn1 Si2 . 1_455 169.13(11)
Mn8 Mn1 C2 . . 80.31(17)
Mn8 Mn1 C2 . 4_555 80.31(17)
Mn9 Mn1 Mn9 . 4_555 112.63(5)
Mn9 Mn1 Mn10 . . 62.84(4)
Mn9 Mn1 Si2 . 1_455 60.06(4)
Mn9 Mn1 C2 . . 132.2(2)
Mn9 Mn1 C2 . 4_555 48.91(18)
Mn9 Mn1 Mn10 4_555 . 62.84(4)
Mn9 Mn1 Si2 4_555 1_455 60.06(4)
Mn9 Mn1 C2 4_555 . 48.91(18)
Mn9 Mn1 C2 4_555 4_555 132.2(2)
Mn10 Mn1 Si2 . 1_455 60.47(8)
Mn10 Mn1 C2 . . 70.69(18)
Mn10 Mn1 C2 . 4_555 70.69(18)
Si2 Mn1 C2 1_455 . 105.92(18)
Si2 Mn1 C2 1_455 4_555 105.92(18)
C2 Mn1 C2 . 4_555 106.0(3)
Mn1 Mn2 Mn2 . 3_656 148.36(5)
Mn1 Mn2 Mn2 . 4_555 61.03(4)
Mn1 Mn2 Mn5 . . 110.69(6)
Mn1 Mn2 Mn6 . 4_555 57.29(4)
Mn1 Mn2 Mn7 . . 64.28(5)
Mn1 Mn2 Mn8 . 1_455 114.37(5)
Mn1 Mn2 Mn9 . 4_555 61.19(4)
Mn1 Mn2 Mn12 . 1_545 109.91(6)
Mn1 Mn2 Mn12 . 2_646 115.14(5)
Mn1 Mn2 Si2 . 1_455 57.87(7)
Mn1 Mn2 C1 . 2_646 157.63(19)
Mn1 Mn2 C1 . 4_555 95.4(2)
Mn2 Mn2 Mn2 3_656 4_555 124.27(6)
Mn2 Mn2 Mn5 3_656 . 97.00(5)
Mn2 Mn2 Mn6 3_656 4_555 95.66(5)
Mn2 Mn2 Mn7 3_656 . 90.21(5)
Mn2 Mn2 Mn8 3_656 1_455 91.79(5)
Mn2 Mn2 Mn9 3_656 4_555 124.29(5)
Mn2 Mn2 Mn12 3_656 1_545 65.57(5)
Mn2 Mn2 Mn12 3_656 2_646 60.92(4)
Mn2 Mn2 Si2 3_656 1_455 153.78(8)
Mn2 Mn2 C1 3_656 2_646 54.01(19)
Mn2 Mn2 C1 3_656 4_555 53.0(2)
Mn2 Mn2 Mn5 4_555 . 109.44(4)
Mn2 Mn2 Mn6 4_555 4_555 109.61(5)
Mn2 Mn2 Mn7 4_555 . 61.22(3)
Mn2 Mn2 Mn8 4_555 1_455 62.54(4)
Mn2 Mn2 Mn9 4_555 4_555 111.44(5)
Mn2 Mn2 Mn12 4_555 1_545 170.00(7)
Mn2 Mn2 Mn12 4_555 2_646 63.38(4)
Mn2 Mn2 Si2 4_555 1_455 60.26(4)
Mn2 Mn2 C1 4_555 2_646 109.13(19)
Mn2 Mn2 C1 4_555 4_555 110.01(18)
Mn5 Mn2 Mn6 . 4_555 121.04(5)
Mn5 Mn2 Mn7 . . 170.53(5)
Mn5 Mn2 Mn8 . 1_455 61.78(4)
Mn5 Mn2 Mn9 . 4_555 62.74(4)
Mn5 Mn2 Mn12 . 1_545 68.68(4)
Mn5 Mn2 Mn12 . 2_646 117.17(6)
Mn5 Mn2 Si2 . 1_455 60.20(5)
Mn5 Mn2 C1 . 2_646 51.2(2)
Mn5 Mn2 C1 . 4_555 139.69(18)
Mn6 Mn2 Mn7 4_555 . 63.97(4)
Mn6 Mn2 Mn8 4_555 1_455 171.51(5)
Mn6 Mn2 Mn9 4_555 4_555 62.69(4)
Mn6 Mn2 Mn12 4_555 1_545 65.28(5)
Mn6 Mn2 Mn12 4_555 2_646 119.25(5)
Mn6 Mn2 Si2 4_555 1_455 107.03(8)
Mn6 Mn2 C1 4_555 2_646 140.18(18)
Mn6 Mn2 C1 4_555 4_555 50.1(2)
Mn7 Mn2 Mn8 . 1_455 112.05(5)
Mn7 Mn2 Mn9 . 4_555 117.76(6)
Mn7 Mn2 Mn12 . 1_545 120.20(5)
Mn7 Mn2 Mn12 . 2_646 61.34(5)
Mn7 Mn2 Si2 . 1_455 111.27(6)
Mn7 Mn2 C1 . 2_646 131.2(2)
Mn7 Mn2 C1 . 4_555 49.77(18)
Mn8 Mn2 Mn9 1_455 4_555 115.94(5)
Mn8 Mn2 Mn12 1_455 1_545 121.90(5)
Mn8 Mn2 Mn12 1_455 2_646 61.33(5)
Mn8 Mn2 Si2 1_455 1_455 66.76(8)
Mn8 Mn2 C1 1_455 2_646 48.25(18)
Mn8 Mn2 C1 1_455 4_555 133.9(2)
Mn9 Mn2 Mn12 4_555 1_545 58.73(5)
Mn9 Mn2 Mn12 4_555 2_646 174.71(5)
Mn9 Mn2 Si2 4_555 1_455 59.45(6)
Mn9 Mn2 C1 4_555 2_646 110.2(2)
Mn9 Mn2 C1 4_555 4_555 109.0(2)
Mn12 Mn2 Mn12 1_545 2_646 126.49(6)
Mn12 Mn2 Si2 1_545 1_455 112.05(6)
Mn12 Mn2 C1 1_545 2_646 77.67(19)
Mn12 Mn2 C1 1_545 4_555 73.84(18)
Mn12 Mn2 Si2 2_646 1_455 115.58(6)
Mn12 Mn2 C1 2_646 2_646 71.7(2)
Mn12 Mn2 C1 2_646 4_555 74.7(2)
Si2 Mn2 C1 1_455 2_646 99.8(2)
Si2 Mn2 C1 1_455 4_555 153.2(2)
C1 Mn2 C1 2_646 4_555 107.0(3)
Mn3 Mn3 Mn4 3_765 . 63.82(5)
Mn3 Mn3 Mn4 3_765 2_755 60.04(4)
Mn3 Mn3 Mn5 3_765 2_655 62.77(4)
Mn3 Mn3 Mn5 3_765 4_655 63.51(4)
Mn3 Mn3 Mn9 3_765 3_665 116.67(6)
Mn3 Mn3 Mn10 3_765 2_655 160.63(6)
Mn3 Mn3 Mn11 3_765 . 114.31(5)
Mn3 Mn3 Si1 3_765 2_655 63.96(7)
Mn3 Mn3 Si2 3_765 2_755 104.74(8)
Mn3 Mn3 C2 3_765 4_555 99.76(19)
Mn4 Mn3 Mn4 . 2_755 123.86(6)
Mn4 Mn3 Mn5 . 2_655 99.33(5)
Mn4 Mn3 Mn5 . 4_655 55.73(4)
Mn4 Mn3 Mn9 . 3_665 102.14(5)
Mn4 Mn3 Mn10 . 2_655 135.38(6)
Mn4 Mn3 Mn11 . . 101.10(5)
Mn4 Mn3 Si1 . 2_655 53.14(6)
Mn4 Mn3 Si2 . 2_755 152.78(7)
Mn4 Mn3 C2 . 4_555 48.84(19)
Mn4 Mn3 Mn5 2_755 2_655 54.57(4)
Mn4 Mn3 Mn5 2_755 4_655 97.52(5)
Mn4 Mn3 Mn9 2_755 3_665 102.25(5)
Mn4 Mn3 Mn10 2_755 2_655 100.71(5)
Mn4 Mn3 Mn11 2_755 . 101.25(5)
Mn4 Mn3 Si1 2_755 2_655 99.95(8)
Mn4 Mn3 Si2 2_755 2_755 51.46(7)
Mn4 Mn3 C2 2_755 4_555 142.40(18)
Mn5 Mn3 Mn5 2_655 4_655 126.28(5)
Mn5 Mn3 Mn9 2_655 3_665 59.51(4)
Mn5 Mn3 Mn10 2_655 2_655 105.51(5)
Mn5 Mn3 Mn11 2_655 . 154.77(5)
Mn5 Mn3 Si1 2_655 2_655 50.83(6)
Mn5 Mn3 Si2 2_655 2_755 54.85(6)
Mn5 Mn3 C2 2_655 4_555 147.69(19)
Mn5 Mn3 Mn9 4_655 3_665 156.57(5)
Mn5 Mn3 Mn10 4_655 2_655 125.89(6)
Mn5 Mn3 Mn11 4_655 . 57.50(4)
Mn5 Mn3 Si1 4_655 2_655 103.75(6)
Mn5 Mn3 Si2 4_655 2_755 144.10(6)
Mn5 Mn3 C2 4_655 4_555 45.81(18)
Mn9 Mn3 Mn10 3_665 2_655 62.44(4)
Mn9 Mn3 Mn11 3_665 . 129.00(6)
Mn9 Mn3 Si1 3_665 2_655 60.64(6)
Mn9 Mn3 Si2 3_665 2_755 59.27(5)
Mn9 Mn3 C2 3_665 4_555 115.34(18)
Mn10 Mn3 Mn11 2_655 . 69.09(5)
Mn10 Mn3 Si1 2_655 2_655 122.22(7)
Mn10 Mn3 Si2 2_655 2_755 57.19(7)
Mn10 Mn3 C2 2_655 4_555 97.5(2)
Mn11 Mn3 Si1 . 2_655 153.32(7)
Mn11 Mn3 Si2 . 2_755 106.11(6)
Mn11 Mn3 C2 . 4_555 55.77(18)
Si1 Mn3 Si2 2_655 2_755 99.74(7)
Si1 Mn3 C2 2_655 4_555 97.63(19)
Si2 Mn3 C2 2_755 4_555 154.4(2)
Mn1 Mn4 Mn3 . . 96.70(5)
Mn1 Mn4 Mn3 . 2_745 147.23(3)
Mn1 Mn4 Mn3 . 3_765 147.23(3)
Mn1 Mn4 Mn3 . 4_555 96.70(5)
Mn1 Mn4 Mn5 . 1_655 88.88(5)
Mn1 Mn4 Mn5 . 4_655 88.88(5)
Mn1 Mn4 Mn8 . . 58.28(6)
Mn1 Mn4 Mn10 . . 62.43(6)
Mn1 Mn4 Si1 . 2_655 123.04(9)
Mn1 Mn4 Si2 . . 124.26(10)
Mn1 Mn4 C2 . . 54.5(2)
Mn1 Mn4 C2 . 4_555 54.5(2)
Mn3 Mn4 Mn3 . 2_745 112.75(6)
Mn3 Mn4 Mn3 . 3_765 56.14(4)
Mn3 Mn4 Mn3 . 4_555 121.64(6)
Mn3 Mn4 Mn5 . 1_655 170.36(6)
Mn3 Mn4 Mn5 . 4_655 65.14(3)
Mn3 Mn4 Mn8 . . 117.65(4)
Mn3 Mn4 Mn10 . . 68.55(4)
Mn3 Mn4 Si1 . 2_655 62.58(4)
Mn3 Mn4 Si2 . . 109.00(5)
Mn3 Mn4 C2 . . 138.83(19)
Mn3 Mn4 C2 . 4_555 48.3(2)
Mn3 Mn4 Mn3 2_745 3_765 65.44(5)
Mn3 Mn4 Mn3 2_745 4_555 56.14(4)
Mn3 Mn4 Mn5 2_745 1_655 64.21(4)
Mn3 Mn4 Mn5 2_745 4_655 115.82(6)
Mn3 Mn4 Mn8 2_745 . 114.77(5)
Mn3 Mn4 Mn10 2_745 . 114.41(6)
Mn3 Mn4 Si1 2_745 2_655 64.17(7)
Mn3 Mn4 Si2 2_745 . 60.28(7)
Mn3 Mn4 C2 2_745 . 92.9(2)
Mn3 Mn4 C2 2_745 4_555 158.3(2)
Mn3 Mn4 Mn3 3_765 4_555 112.75(6)
Mn3 Mn4 Mn5 3_765 1_655 115.82(6)
Mn3 Mn4 Mn5 3_765 4_655 64.21(4)
Mn3 Mn4 Mn8 3_765 . 114.77(5)
Mn3 Mn4 Mn10 3_765 . 114.41(6)
Mn3 Mn4 Si1 3_765 2_655 64.17(7)
Mn3 Mn4 Si2 3_765 . 60.28(7)
Mn3 Mn4 C2 3_765 . 158.3(2)
Mn3 Mn4 C2 3_765 4_555 92.9(2)
Mn3 Mn4 Mn5 4_555 1_655 65.14(3)
Mn3 Mn4 Mn5 4_555 4_655 170.36(6)
Mn3 Mn4 Mn8 4_555 . 117.65(4)
Mn3 Mn4 Mn10 4_555 . 68.55(4)
Mn3 Mn4 Si1 4_555 2_655 62.58(4)
Mn3 Mn4 Si2 4_555 . 109.00(5)
Mn3 Mn4 C2 4_555 . 48.3(2)
Mn3 Mn4 C2 4_555 4_555 138.83(19)
Mn5 Mn4 Mn5 1_655 4_655 107.28(5)
Mn5 Mn4 Mn8 1_655 . 59.05(4)
Mn5 Mn4 Mn10 1_655 . 121.08(4)
Mn5 Mn4 Si1 1_655 2_655 120.49(5)
Mn5 Mn4 Si2 1_655 . 61.39(5)
Mn5 Mn4 C2 1_655 . 50.58(18)
Mn5 Mn4 C2 1_655 4_555 132.3(2)
Mn5 Mn4 Mn8 4_655 . 59.05(4)
Mn5 Mn4 Mn10 4_655 . 121.08(4)
Mn5 Mn4 Si1 4_655 2_655 120.49(5)
Mn5 Mn4 Si2 4_655 . 61.39(5)
Mn5 Mn4 C2 4_655 . 132.3(2)
Mn5 Mn4 C2 4_655 4_555 50.58(18)
Mn8 Mn4 Mn10 . . 120.70(8)
Mn8 Mn4 Si1 . 2_655 178.68(10)
Mn8 Mn4 Si2 . . 65.98(9)
Mn8 Mn4 C2 . . 74.83(19)
Mn8 Mn4 C2 . 4_555 74.83(19)
Mn10 Mn4 Si1 . 2_655 60.61(8)
Mn10 Mn4 Si2 . . 173.31(11)
Mn10 Mn4 C2 . . 71.67(17)
Mn10 Mn4 C2 . 4_555 71.67(17)
Si1 Mn4 Si2 2_655 . 112.70(12)
Si1 Mn4 C2 2_655 . 105.88(19)
Si1 Mn4 C2 2_655 4_555 105.88(19)
Si2 Mn4 C2 . . 111.68(18)
Si2 Mn4 C2 . 4_555 111.68(18)
C2 Mn4 C2 . 4_555 108.7(3)
Mn2 Mn5 Mn3 . 2_645 105.31(5)
Mn2 Mn5 Mn3 . 4_455 157.69(6)
Mn2 Mn5 Mn4 . 1_455 106.17(5)
Mn2 Mn5 Mn6 . 4_455 105.69(5)
Mn2 Mn5 Mn7 . 2_646 83.78(5)
Mn2 Mn5 Mn8 . 1_455 61.77(4)
Mn2 Mn5 Mn9 . 4_555 60.74(4)
Mn2 Mn5 Mn11 . 1_445 145.88(6)
Mn2 Mn5 Si1 . . 115.66(8)
Mn2 Mn5 Si2 . 1_455 59.03(6)
Mn2 Mn5 C1 . 2_646 51.5(2)
Mn2 Mn5 C2 . 1_455 140.36(19)
Mn3 Mn5 Mn3 2_645 4_455 53.72(4)
Mn3 Mn5 Mn4 2_645 1_455 61.22(5)
Mn3 Mn5 Mn6 2_645 4_455 140.99(5)
Mn3 Mn5 Mn7 2_645 2_646 151.74(5)
Mn3 Mn5 Mn8 2_645 1_455 117.43(5)
Mn3 Mn5 Mn9 2_645 4_555 54.98(4)
Mn3 Mn5 Mn11 2_645 1_445 104.32(5)
Mn3 Mn5 Si1 2_645 . 59.96(6)
Mn3 Mn5 Si2 2_645 1_455 57.39(7)
Mn3 Mn5 C1 2_645 2_646 155.4(2)
Mn3 Mn5 C2 2_645 1_455 90.7(2)
Mn3 Mn5 Mn4 4_455 1_455 59.12(4)
Mn3 Mn5 Mn6 4_455 4_455 91.14(5)
Mn3 Mn5 Mn7 4_455 2_646 118.23(5)
Mn3 Mn5 Mn8 4_455 1_455 117.78(5)
Mn3 Mn5 Mn9 4_455 4_555 104.30(5)
Mn3 Mn5 Mn11 4_455 1_445 56.11(4)
Mn3 Mn5 Si1 4_455 . 63.37(6)
Mn3 Mn5 Si2 4_455 1_455 99.47(7)
Mn3 Mn5 C1 4_455 2_646 147.1(2)
Mn3 Mn5 C2 4_455 1_455 45.3(2)
Mn4 Mn5 Mn6 1_455 4_455 87.67(5)
Mn4 Mn5 Mn7 1_455 2_646 142.82(7)
Mn4 Mn5 Mn8 1_455 1_455 65.23(5)
Mn4 Mn5 Mn9 1_455 4_555 103.97(6)
Mn4 Mn5 Mn11 1_455 1_445 102.69(5)
Mn4 Mn5 Si1 1_455 . 113.98(7)
Mn4 Mn5 Si2 1_455 1_455 54.54(6)
Mn4 Mn5 C1 1_455 2_646 113.02(19)
Mn4 Mn5 C2 1_455 1_455 50.61(19)
Mn6 Mn5 Mn7 4_455 2_646 55.27(4)
Mn6 Mn5 Mn8 4_455 1_455 60.33(5)
Mn6 Mn5 Mn9 4_455 4_555 163.92(5)
Mn6 Mn5 Mn11 4_455 1_445 57.50(5)
Mn6 Mn5 Si1 4_455 . 123.44(8)
Mn6 Mn5 Si2 4_455 1_455 124.10(7)
Mn6 Mn5 C1 4_455 2_646 55.9(2)
Mn6 Mn5 C2 4_455 1_455 50.3(2)
Mn7 Mn5 Mn8 2_646 1_455 90.57(5)
Mn7 Mn5 Mn9 2_646 4_555 111.87(5)
Mn7 Mn5 Mn11 2_646 1_445 62.15(5)
Mn7 Mn5 Si1 2_646 . 91.88(6)
Mn7 Mn5 Si2 2_646 1_455 142.03(7)
Mn7 Mn5 C1 2_646 2_646 46.20(18)
Mn7 Mn5 C2 2_646 1_455 99.1(2)
Mn8 Mn5 Mn9 1_455 4_555 114.25(5)
Mn8 Mn5 Mn11 1_455 1_445 117.01(6)
Mn8 Mn5 Si1 1_455 . 176.23(9)
Mn8 Mn5 Si2 1_455 1_455 66.36(7)
Mn8 Mn5 C1 1_455 2_646 48.27(18)
Mn8 Mn5 C2 1_455 1_455 78.63(19)
Mn9 Mn5 Mn11 4_555 1_445 128.31(5)
Mn9 Mn5 Si1 4_555 . 62.13(7)
Mn9 Mn5 Si2 4_555 1_455 58.42(6)
Mn9 Mn5 C1 4_555 2_646 108.6(2)
Mn9 Mn5 C2 4_555 1_455 145.7(2)
Mn11 Mn5 Si1 1_445 . 66.72(7)
Mn11 Mn5 Si2 1_445 1_455 154.87(7)
Mn11 Mn5 C1 1_445 2_646 100.3(2)
Mn11 Mn5 C2 1_445 1_455 54.86(17)
Si1 Mn5 Si2 . 1_455 110.06(10)
Si1 Mn5 C1 . 2_646 132.91(19)
Si1 Mn5 C2 . 1_455 103.8(2)
Si2 Mn5 C1 1_455 2_646 99.0(2)
Si2 Mn5 C2 1_455 1_455 104.90(19)
C1 Mn5 C2 2_646 1_455 103.4(3)
Mn1 Mn6 Mn2 . 4_555 61.29(5)
Mn1 Mn6 Mn5 . 4_655 87.12(6)
Mn1 Mn6 Mn6 . 3_766 113.24(5)
Mn1 Mn6 Mn7 . . 63.45(5)
Mn1 Mn6 Mn7 . 2_756 151.00(7)
Mn1 Mn6 Mn8 . . 60.51(4)
Mn1 Mn6 Mn8 . 2_756 145.69(7)
Mn1 Mn6 Mn9 . . 61.58(4)
Mn1 Mn6 Mn11 . . 107.39(5)
Mn1 Mn6 Mn12 . . 108.01(5)
Mn1 Mn6 C1 . . 100.13(19)
Mn1 Mn6 C1 . 3_766 106.22(17)
Mn1 Mn6 C2 . 4_555 53.84(18)
Mn2 Mn6 Mn5 4_555 4_655 145.79(5)
Mn2 Mn6 Mn6 4_555 3_766 106.14(5)
Mn2 Mn6 Mn7 4_555 . 58.23(4)
Mn2 Mn6 Mn7 4_555 2_756 147.67(6)
Mn2 Mn6 Mn8 4_555 . 108.24(5)
Mn2 Mn6 Mn8 4_555 2_756 87.02(5)
Mn2 Mn6 Mn9 4_555 . 60.40(4)
Mn2 Mn6 Mn11 4_555 . 113.92(5)
Mn2 Mn6 Mn12 4_555 . 58.95(4)
Mn2 Mn6 C1 4_555 . 52.02(18)
Mn2 Mn6 C1 4_555 3_766 148.82(18)
Mn2 Mn6 C2 4_555 4_555 97.96(19)
Mn5 Mn6 Mn6 4_655 3_766 97.91(5)
Mn5 Mn6 Mn7 4_655 . 121.09(5)
Mn5 Mn6 Mn7 4_655 2_756 65.04(5)
Mn5 Mn6 Mn8 4_655 . 60.66(5)
Mn5 Mn6 Mn8 4_655 2_756 126.43(5)
Mn5 Mn6 Mn9 4_655 . 94.27(5)
Mn5 Mn6 Mn11 4_655 . 60.73(5)
Mn5 Mn6 Mn12 4_655 . 127.93(5)
Mn5 Mn6 C1 4_655 . 156.83(19)
Mn5 Mn6 C1 4_655 3_766 48.2(2)
Mn5 Mn6 C2 4_655 4_555 49.49(19)
Mn6 Mn6 Mn7 3_766 . 57.49(4)
Mn6 Mn6 Mn7 3_766 2_756 65.78(4)
Mn6 Mn6 Mn8 3_766 . 65.11(4)
Mn6 Mn6 Mn8 3_766 2_756 60.64(4)
Mn6 Mn6 Mn9 3_766 . 166.55(6)
Mn6 Mn6 Mn11 3_766 . 132.82(5)
Mn6 Mn6 Mn12 3_766 . 118.66(6)
Mn6 Mn6 C1 3_766 . 58.97(18)
Mn6 Mn6 C1 3_766 3_766 49.8(2)
Mn6 Mn6 C2 3_766 4_555 140.94(18)
Mn7 Mn6 Mn7 . 2_756 123.27(5)
Mn7 Mn6 Mn8 . . 60.44(5)
Mn7 Mn6 Mn8 . 2_756 89.61(5)
Mn7 Mn6 Mn9 . . 110.96(5)
Mn7 Mn6 Mn11 . . 169.66(5)
Mn7 Mn6 Mn12 . . 109.94(6)
Mn7 Mn6 C1 . . 47.29(18)
Mn7 Mn6 C1 . 3_766 90.60(18)
Mn7 Mn6 C2 . 4_555 116.07(18)
Mn7 Mn6 Mn8 2_756 . 96.68(5)
Mn7 Mn6 Mn8 2_756 2_756 61.40(5)
Mn7 Mn6 Mn9 2_756 . 125.27(5)
Mn7 Mn6 Mn11 2_756 . 67.05(5)
Mn7 Mn6 Mn12 2_756 . 96.13(4)
Mn7 Mn6 C1 2_756 . 102.86(19)
Mn7 Mn6 C1 2_756 3_766 49.34(16)
Mn7 Mn6 C2 2_756 4_555 107.13(19)
Mn8 Mn6 Mn8 . 2_756 125.76(5)
Mn8 Mn6 Mn9 . . 117.02(5)
Mn8 Mn6 Mn11 . . 120.51(7)
Mn8 Mn6 Mn12 . . 166.96(5)
Mn8 Mn6 C1 . . 103.78(19)
Mn8 Mn6 C1 . 3_766 47.37(16)
Mn8 Mn6 C2 . 4_555 78.46(18)
Mn8 Mn6 Mn9 2_756 . 115.70(5)
Mn8 Mn6 Mn11 2_756 . 96.91(5)
Mn8 Mn6 Mn12 2_756 . 59.53(4)
Mn8 Mn6 C1 2_756 . 46.38(18)
Mn8 Mn6 C1 2_756 3_766 94.19(19)
Mn8 Mn6 C2 2_756 4_555 152.48(17)
Mn9 Mn6 Mn11 . . 58.94(4)
Mn9 Mn6 Mn12 . . 56.16(4)
Mn9 Mn6 C1 . . 108.57(19)
Mn9 Mn6 C1 . 3_766 142.3(2)
Mn9 Mn6 C2 . 4_555 47.87(18)
Mn11 Mn6 Mn12 . . 67.21(5)
Mn11 Mn6 C1 . . 135.09(19)
Mn11 Mn6 C1 . 3_766 96.89(19)
Mn11 Mn6 C2 . 4_555 56.29(17)
Mn12 Mn6 C1 . . 70.89(19)
Mn12 Mn6 C1 . 3_766 145.24(16)
Mn12 Mn6 C2 . 4_555 100.02(18)
C1 Mn6 C1 . 3_766 108.8(3)
C1 Mn6 C2 . 4_555 149.5(3)
C1 Mn6 C2 3_766 4_555 95.2(3)
Mn1 Mn7 Mn2 . . 57.59(5)
Mn1 Mn7 Mn2 . 4_555 57.59(5)
Mn1 Mn7 Mn5 . 2_656 138.60(3)
Mn1 Mn7 Mn5 . 3_656 138.60(3)
Mn1 Mn7 Mn6 . . 53.52(4)
Mn1 Mn7 Mn6 . 2_746 103.87(6)
Mn1 Mn7 Mn6 . 3_766 103.87(6)
Mn1 Mn7 Mn6 . 4_555 53.52(4)
Mn1 Mn7 Mn8 . . 56.85(6)
Mn1 Mn7 Mn11 . 2_746 149.57(8)
Mn1 Mn7 Mn12 . 2_646 110.85(6)
Mn1 Mn7 C1 . . 91.7(2)
Mn1 Mn7 C1 . 4_555 91.7(2)
Mn2 Mn7 Mn2 . 4_555 57.55(4)
Mn2 Mn7 Mn5 . 2_656 125.89(7)
Mn2 Mn7 Mn5 . 3_656 88.43(4)
Mn2 Mn7 Mn6 . . 102.12(5)
Mn2 Mn7 Mn6 . 2_746 105.14(3)
Mn2 Mn7 Mn6 . 3_766 158.84(6)
Mn2 Mn7 Mn6 . 4_555 57.80(4)
Mn2 Mn7 Mn8 . . 106.71(6)
Mn2 Mn7 Mn11 . 2_746 144.43(5)
Mn2 Mn7 Mn12 . 2_646 62.78(5)
Mn2 Mn7 C1 . . 108.42(19)
Mn2 Mn7 C1 . 4_555 51.82(18)
Mn2 Mn7 Mn5 4_555 2_656 88.43(4)
Mn2 Mn7 Mn5 4_555 3_656 125.89(7)
Mn2 Mn7 Mn6 4_555 . 57.80(4)
Mn2 Mn7 Mn6 4_555 2_746 158.84(6)
Mn2 Mn7 Mn6 4_555 3_766 105.14(3)
Mn2 Mn7 Mn6 4_555 4_555 102.12(5)
Mn2 Mn7 Mn8 4_555 . 106.71(6)
Mn2 Mn7 Mn11 4_555 2_746 144.43(5)
Mn2 Mn7 Mn12 4_555 2_646 62.78(5)
Mn2 Mn7 C1 4_555 . 51.82(18)
Mn2 Mn7 C1 4_555 4_555 108.42(19)
Mn5 Mn7 Mn5 2_656 3_656 79.16(5)
Mn5 Mn7 Mn6 2_656 . 89.68(3)
Mn5 Mn7 Mn6 2_656 2_746 112.58(6)
Mn5 Mn7 Mn6 2_656 3_766 59.69(4)
Mn5 Mn7 Mn6 2_656 4_555 167.86(5)
Mn5 Mn7 Mn8 2_656 . 123.94(5)
Mn5 Mn7 Mn11 2_656 2_746 56.13(4)
Mn5 Mn7 Mn12 2_656 2_646 64.39(5)
Mn5 Mn7 C1 2_656 . 46.9(2)
Mn5 Mn7 C1 2_656 4_555 123.6(2)
Mn5 Mn7 Mn6 3_656 . 167.86(5)
Mn5 Mn7 Mn6 3_656 2_746 59.69(4)
Mn5 Mn7 Mn6 3_656 3_766 112.58(6)
Mn5 Mn7 Mn6 3_656 4_555 89.68(3)
Mn5 Mn7 Mn8 3_656 . 123.94(5)
Mn5 Mn7 Mn11 3_656 2_746 56.13(4)
Mn5 Mn7 Mn12 3_656 2_646 64.39(5)
Mn5 Mn7 C1 3_656 . 123.6(2)
Mn5 Mn7 C1 3_656 4_555 46.9(2)
Mn6 Mn7 Mn6 . 2_746 121.83(7)
Mn6 Mn7 Mn6 . 3_766 56.73(4)
Mn6 Mn7 Mn6 . 4_555 100.98(6)
Mn6 Mn7 Mn8 . . 59.02(4)
Mn6 Mn7 Mn11 . 2_746 113.44(4)
Mn6 Mn7 Mn12 . 2_646 115.04(4)
Mn6 Mn7 C1 . . 47.5(2)
Mn6 Mn7 C1 . 4_555 145.2(2)
Mn6 Mn7 Mn6 2_746 3_766 88.43(5)
Mn6 Mn7 Mn6 2_746 4_555 56.73(4)
Mn6 Mn7 Mn8 2_746 . 64.25(5)
Mn6 Mn7 Mn11 2_746 2_746 56.72(4)
Mn6 Mn7 Mn12 2_746 2_646 123.09(6)
Mn6 Mn7 C1 2_746 . 146.31(19)
Mn6 Mn7 C1 2_746 4_555 58.60(19)
Mn6 Mn7 Mn6 3_766 4_555 121.83(7)
Mn6 Mn7 Mn8 3_766 . 64.25(5)
Mn6 Mn7 Mn11 3_766 2_746 56.72(4)
Mn6 Mn7 Mn12 3_766 2_646 123.09(6)
Mn6 Mn7 C1 3_766 . 58.60(19)
Mn6 Mn7 C1 3_766 4_555 146.31(19)
Mn6 Mn7 Mn8 4_555 . 59.02(4)
Mn6 Mn7 Mn11 4_555 2_746 113.44(4)
Mn6 Mn7 Mn12 4_555 2_646 115.04(4)
Mn6 Mn7 C1 4_555 . 145.2(2)
Mn6 Mn7 C1 4_555 4_555 47.5(2)
Mn8 Mn7 Mn11 . 2_746 92.72(6)
Mn8 Mn7 Mn12 . 2_646 167.70(7)
Mn8 Mn7 C1 . . 102.6(2)
Mn8 Mn7 C1 . 4_555 102.6(2)
Mn11 Mn7 Mn12 2_746 2_646 99.58(7)
Mn11 Mn7 C1 2_746 . 95.53(19)
Mn11 Mn7 C1 2_746 4_555 95.53(19)
Mn12 Mn7 C1 2_646 . 76.4(2)
Mn12 Mn7 C1 2_646 4_555 76.4(2)
C1 Mn7 C1 . 4_555 151.9(3)
Mn1 Mn8 Mn2 . 1_655 139.66(6)
Mn1 Mn8 Mn2 . 4_655 139.66(6)
Mn1 Mn8 Mn4 . . 52.80(6)
Mn1 Mn8 Mn5 . 1_655 83.44(5)
Mn1 Mn8 Mn5 . 4_655 83.44(5)
Mn1 Mn8 Mn6 . . 55.47(3)
Mn1 Mn8 Mn6 . 2_746 100.27(6)
Mn1 Mn8 Mn6 . 3_766 100.27(6)
Mn1 Mn8 Mn6 . 4_555 55.47(3)
Mn1 Mn8 Mn7 . . 61.83(6)
Mn1 Mn8 Mn12 . 2_746 154.25(9)
Mn1 Mn8 C1 . 2_746 108.97(18)
Mn1 Mn8 C1 . 3_766 108.97(18)
Mn2 Mn8 Mn2 1_655 4_655 54.92(4)
Mn2 Mn8 Mn4 1_655 . 95.68(6)
Mn2 Mn8 Mn5 1_655 1_655 56.45(4)
Mn2 Mn8 Mn5 1_655 4_655 99.38(6)
Mn2 Mn8 Mn6 1_655 . 155.35(5)
Mn2 Mn8 Mn6 1_655 2_746 85.28(4)
Mn2 Mn8 Mn6 1_655 3_766 119.87(5)
Mn2 Mn8 Mn6 1_655 4_555 100.73(3)
Mn2 Mn8 Mn7 1_655 . 139.50(5)
Mn2 Mn8 Mn12 1_655 2_746 60.72(5)
Mn2 Mn8 C1 1_655 2_746 48.8(2)
Mn2 Mn8 C1 1_655 3_766 102.3(2)
Mn2 Mn8 Mn4 4_655 . 95.68(6)
Mn2 Mn8 Mn5 4_655 1_655 99.38(6)
Mn2 Mn8 Mn5 4_655 4_655 56.45(4)
Mn2 Mn8 Mn6 4_655 . 100.73(3)
Mn2 Mn8 Mn6 4_655 2_746 119.87(5)
Mn2 Mn8 Mn6 4_655 3_766 85.28(4)
Mn2 Mn8 Mn6 4_655 4_555 155.35(5)
Mn2 Mn8 Mn7 4_655 . 139.50(5)
Mn2 Mn8 Mn12 4_655 2_746 60.72(5)
Mn2 Mn8 C1 4_655 2_746 102.3(2)
Mn2 Mn8 C1 4_655 3_766 48.8(2)
Mn4 Mn8 Mn5 . 1_655 55.72(4)
Mn4 Mn8 Mn5 . 4_655 55.72(4)
Mn4 Mn8 Mn6 . . 81.94(4)
Mn4 Mn8 Mn6 . 2_746 135.26(4)
Mn4 Mn8 Mn6 . 3_766 135.26(4)
Mn4 Mn8 Mn6 . 4_555 81.94(4)
Mn4 Mn8 Mn7 . . 114.62(6)
Mn4 Mn8 Mn12 . 2_746 152.95(8)
Mn4 Mn8 C1 . 2_746 103.9(2)
Mn4 Mn8 C1 . 3_766 103.9(2)
Mn5 Mn8 Mn5 1_655 4_655 101.77(6)
Mn5 Mn8 Mn6 1_655 . 134.50(6)
Mn5 Mn8 Mn6 1_655 2_746 90.09(3)
Mn5 Mn8 Mn6 1_655 3_766 167.95(6)
Mn5 Mn8 Mn6 1_655 4_555 59.01(4)
Mn5 Mn8 Mn7 1_655 . 119.54(4)
Mn5 Mn8 Mn12 1_655 2_746 111.87(5)
Mn5 Mn8 C1 1_655 2_746 48.6(2)
Mn5 Mn8 C1 1_655 3_766 143.5(3)
Mn5 Mn8 Mn6 4_655 . 59.01(4)
Mn5 Mn8 Mn6 4_655 2_746 167.95(6)
Mn5 Mn8 Mn6 4_655 3_766 90.09(3)
Mn5 Mn8 Mn6 4_655 4_555 134.50(6)
Mn5 Mn8 Mn7 4_655 . 119.54(4)
Mn5 Mn8 Mn12 4_655 2_746 111.87(5)
Mn5 Mn8 C1 4_655 2_746 143.5(3)
Mn5 Mn8 C1 4_655 3_766 48.6(2)
Mn6 Mn8 Mn6 . 2_746 113.69(7)
Mn6 Mn8 Mn6 . 3_766 54.24(4)
Mn6 Mn8 Mn6 . 4_555 103.18(6)
Mn6 Mn8 Mn7 . . 60.55(4)
Mn6 Mn8 Mn12 . 2_746 113.59(5)
Mn6 Mn8 C1 . 2_746 155.5(2)
Mn6 Mn8 C1 . 3_766 55.30(19)
Mn6 Mn8 Mn6 2_746 3_766 77.99(5)
Mn6 Mn8 Mn6 2_746 4_555 54.24(4)
Mn6 Mn8 Mn7 2_746 . 54.36(4)
Mn6 Mn8 Mn12 2_746 2_746 60.71(4)
Mn6 Mn8 C1 2_746 2_746 46.1(2)
Mn6 Mn8 C1 2_746 3_766 119.7(2)
Mn6 Mn8 Mn6 3_766 4_555 113.69(7)
Mn6 Mn8 Mn7 3_766 . 54.36(4)
Mn6 Mn8 Mn12 3_766 2_746 60.71(4)
Mn6 Mn8 C1 3_766 2_746 119.7(2)
Mn6 Mn8 C1 3_766 3_766 46.1(2)
Mn6 Mn8 Mn7 4_555 . 60.55(4)
Mn6 Mn8 Mn12 4_555 2_746 113.59(5)
Mn6 Mn8 C1 4_555 2_746 55.30(19)
Mn6 Mn8 C1 4_555 3_766 155.5(2)
Mn7 Mn8 Mn12 . 2_746 92.42(7)
Mn7 Mn8 C1 . 2_746 96.1(2)
Mn7 Mn8 C1 . 3_766 96.1(2)
Mn12 Mn8 C1 2_746 2_746 71.55(18)
Mn12 Mn8 C1 2_746 3_766 71.55(18)
C1 Mn8 C1 2_746 3_766 141.5(3)
Mn1 Mn9 Mn2 . 4_555 57.54(5)
Mn1 Mn9 Mn3 . 3_665 107.73(5)
Mn1 Mn9 Mn5 . 4_555 102.85(5)
Mn1 Mn9 Mn6 . . 54.34(4)
Mn1 Mn9 Mn10 . . 57.45(4)
Mn1 Mn9 Mn10 . 2_655 143.57(7)
Mn1 Mn9 Mn11 . . 100.00(5)
Mn1 Mn9 Mn12 . . 108.40(5)
Mn1 Mn9 Si1 . 1_565 155.13(8)
Mn1 Mn9 Si2 . 1_455 55.89(6)
Mn1 Mn9 C2 . 4_555 50.40(19)
Mn2 Mn9 Mn3 4_555 3_665 110.47(5)
Mn2 Mn9 Mn5 4_555 4_555 56.51(4)
Mn2 Mn9 Mn6 4_555 . 56.90(4)
Mn2 Mn9 Mn10 4_555 . 104.67(5)
Mn2 Mn9 Mn10 4_555 2_655 158.76(6)
Mn2 Mn9 Mn11 4_555 . 108.91(5)
Mn2 Mn9 Mn12 4_555 . 60.55(4)
Mn2 Mn9 Si1 4_555 1_565 103.54(8)
Mn2 Mn9 Si2 4_555 1_455 57.14(7)
Mn2 Mn9 C2 4_555 4_555 95.8(2)
Mn3 Mn9 Mn5 3_665 4_555 65.51(4)
Mn3 Mn9 Mn6 3_665 . 161.17(5)
Mn3 Mn9 Mn10 3_665 . 61.07(4)
Mn3 Mn9 Mn10 3_665 2_655 69.84(4)
Mn3 Mn9 Mn11 3_665 . 139.75(6)
Mn3 Mn9 Mn12 3_665 . 124.95(6)
Mn3 Mn9 Si1 3_665 1_565 61.08(5)
Mn3 Mn9 Si2 3_665 1_455 60.93(6)
Mn3 Mn9 C2 3_665 4_555 126.91(19)
Mn5 Mn9 Mn6 4_555 . 109.92(5)
Mn5 Mn9 Mn10 4_555 . 108.84(5)
Mn5 Mn9 Mn10 4_555 2_655 108.16(5)
Mn5 Mn9 Mn11 4_555 . 135.43(6)
Mn5 Mn9 Mn12 4_555 . 66.94(5)
Mn5 Mn9 Si1 4_555 1_565 52.66(6)
Mn5 Mn9 Si2 4_555 1_455 57.24(7)
Mn5 Mn9 C2 4_555 4_555 151.3(2)
Mn6 Mn9 Mn10 . . 106.31(5)
Mn6 Mn9 Mn10 . 2_655 127.38(5)
Mn6 Mn9 Mn11 . . 56.91(4)
Mn6 Mn9 Mn12 . . 63.81(4)
Mn6 Mn9 Si1 . 1_565 132.20(7)
Mn6 Mn9 Si2 . 1_455 100.81(7)
Mn6 Mn9 C2 . 4_555 48.9(2)
Mn10 Mn9 Mn10 . 2_655 94.04(5)
Mn10 Mn9 Mn11 . . 115.72(6)
Mn10 Mn9 Mn12 . . 164.86(6)
Mn10 Mn9 Si1 . 1_565 121.30(6)
Mn10 Mn9 Si2 . 1_455 57.21(7)
Mn10 Mn9 C2 . 4_555 68.12(18)
Mn10 Mn9 Mn11 2_655 . 70.49(5)
Mn10 Mn9 Mn12 2_655 . 101.10(5)
Mn10 Mn9 Si1 2_655 1_565 57.16(7)
Mn10 Mn9 Si2 2_655 1_455 130.33(7)
Mn10 Mn9 C2 2_655 4_555 100.5(2)
Mn11 Mn9 Mn12 . . 69.71(5)
Mn11 Mn9 Si1 . 1_565 101.75(5)
Mn11 Mn9 Si2 . 1_455 155.60(7)
Mn11 Mn9 C2 . 4_555 55.50(17)
Mn12 Mn9 Si1 . 1_565 68.71(6)
Mn12 Mn9 Si2 . 1_455 111.61(8)
Mn12 Mn9 C2 . 4_555 108.12(19)
Si1 Mn9 Si2 1_565 1_455 101.16(7)
Si1 Mn9 C2 1_565 4_555 154.4(2)
Si2 Mn9 C2 1_455 4_555 103.36(19)
Mn1 Mn10 Mn3 . 2_645 105.81(7)
Mn1 Mn10 Mn3 . 3_665 105.81(7)
Mn1 Mn10 Mn4 . . 56.10(6)
Mn1 Mn10 Mn9 . . 59.71(4)
Mn1 Mn10 Mn9 . 2_645 138.58(3)
Mn1 Mn10 Mn9 . 3_665 138.58(3)
Mn1 Mn10 Mn9 . 4_555 59.71(4)
Mn1 Mn10 Si1 . 2_655 112.18(8)
Mn1 Mn10 Si2 . 1_455 56.90(7)
Mn3 Mn10 Mn3 2_645 3_665 67.70(5)
Mn3 Mn10 Mn4 2_645 . 143.43(4)
Mn3 Mn10 Mn9 2_645 . 110.33(7)
Mn3 Mn10 Mn9 2_645 2_645 66.45(4)
Mn3 Mn10 Mn9 2_645 3_665 107.65(6)
Mn3 Mn10 Mn9 2_645 4_555 56.48(4)
Mn3 Mn10 Si1 2_645 2_655 128.58(7)
Mn3 Mn10 Si2 2_645 1_455 59.44(6)
Mn3 Mn10 Mn4 3_665 . 143.43(4)
Mn3 Mn10 Mn9 3_665 . 56.48(4)
Mn3 Mn10 Mn9 3_665 2_645 107.65(6)
Mn3 Mn10 Mn9 3_665 3_665 66.45(4)
Mn3 Mn10 Mn9 3_665 4_555 110.33(7)
Mn3 Mn10 Si1 3_665 2_655 128.58(7)
Mn3 Mn10 Si2 3_665 1_455 59.44(6)
Mn4 Mn10 Mn9 . . 88.42(4)
Mn4 Mn10 Mn9 . 2_645 104.66(6)
Mn4 Mn10 Mn9 . 3_665 104.66(6)
Mn4 Mn10 Mn9 . 4_555 88.42(4)
Mn4 Mn10 Si1 . 2_655 56.08(7)
Mn4 Mn10 Si2 . 1_455 113.00(8)
Mn9 Mn10 Mn9 . 2_645 161.55(6)
Mn9 Mn10 Mn9 . 3_665 85.96(3)
Mn9 Mn10 Mn9 . 4_555 107.71(7)
Mn9 Mn10 Si1 . 2_655 118.26(5)
Mn9 Mn10 Si2 . 1_455 57.89(4)
Mn9 Mn10 Mn9 2_645 3_665 78.24(6)
Mn9 Mn10 Mn9 2_645 4_555 85.96(3)
Mn9 Mn10 Si1 2_645 2_655 62.13(6)
Mn9 Mn10 Si2 2_645 1_455 125.19(6)
Mn9 Mn10 Mn9 3_665 4_555 161.55(6)
Mn9 Mn10 Si1 3_665 2_655 62.13(6)
Mn9 Mn10 Si2 3_665 1_455 125.19(6)
Mn9 Mn10 Si1 4_555 2_655 118.26(5)
Mn9 Mn10 Si2 4_555 1_455 57.89(4)
Si1 Mn10 Si2 2_655 1_455 169.08(10)
Mn3 Mn11 Mn3 . 4_565 71.55(5)
Mn3 Mn11 Mn5 . 1_665 112.93(7)
Mn3 Mn11 Mn5 . 4_655 66.39(4)
Mn3 Mn11 Mn6 . . 100.31(3)
Mn3 Mn11 Mn6 . 4_565 171.84(6)
Mn3 Mn11 Mn7 . 2_756 128.07(5)
Mn3 Mn11 Mn9 . . 68.59(4)
Mn3 Mn11 Mn9 . 4_565 112.17(6)
Mn3 Mn11 C2 . 1_565 120.8(2)
Mn3 Mn11 C2 . 4_555 49.29(19)
Mn3 Mn11 Mn5 4_565 1_665 66.39(4)
Mn3 Mn11 Mn5 4_565 4_655 112.93(7)
Mn3 Mn11 Mn6 4_565 . 171.84(6)
Mn3 Mn11 Mn6 4_565 4_565 100.31(3)
Mn3 Mn11 Mn7 4_565 2_756 128.07(5)
Mn3 Mn11 Mn9 4_565 . 112.17(6)
Mn3 Mn11 Mn9 4_565 4_565 68.59(4)
Mn3 Mn11 C2 4_565 1_565 49.29(19)
Mn3 Mn11 C2 4_565 4_555 120.8(2)
Mn5 Mn11 Mn5 1_665 4_655 85.02(5)
Mn5 Mn11 Mn6 1_665 . 117.65(6)
Mn5 Mn11 Mn6 1_665 4_565 61.77(4)
Mn5 Mn11 Mn7 1_665 2_756 61.71(4)
Mn5 Mn11 Mn9 1_665 . 176.90(5)
Mn5 Mn11 Mn9 1_665 4_565 98.07(3)
Mn5 Mn11 C2 1_665 1_565 49.12(17)
Mn5 Mn11 C2 1_665 4_555 133.75(19)
Mn5 Mn11 Mn6 4_655 . 61.77(4)
Mn5 Mn11 Mn6 4_655 4_565 117.65(6)
Mn5 Mn11 Mn7 4_655 2_756 61.71(4)
Mn5 Mn11 Mn9 4_655 . 98.07(3)
Mn5 Mn11 Mn9 4_655 4_565 176.90(5)
Mn5 Mn11 C2 4_655 1_565 133.75(19)
Mn5 Mn11 C2 4_655 4_555 49.12(17)
Mn6 Mn11 Mn6 . 4_565 87.81(6)
Mn6 Mn11 Mn7 . 2_756 56.23(4)
Mn6 Mn11 Mn9 . . 64.15(4)
Mn6 Mn11 Mn9 . 4_565 116.40(8)
Mn6 Mn11 C2 . 1_565 138.9(2)
Mn6 Mn11 C2 . 4_555 51.08(19)
Mn6 Mn11 Mn7 4_565 2_756 56.23(4)
Mn6 Mn11 Mn9 4_565 . 116.40(8)
Mn6 Mn11 Mn9 4_565 4_565 64.15(4)
Mn6 Mn11 C2 4_565 1_565 51.08(19)
Mn6 Mn11 C2 4_565 4_555 138.9(2)
Mn7 Mn11 Mn9 2_756 . 119.75(6)
Mn7 Mn11 Mn9 2_756 4_565 119.75(6)
Mn7 Mn11 C2 2_756 1_565 94.73(16)
Mn7 Mn11 C2 2_756 4_555 94.73(16)
Mn9 Mn11 Mn9 . 4_565 78.83(5)
Mn9 Mn11 C2 . 1_565 127.81(18)
Mn9 Mn11 C2 . 4_555 49.33(18)
Mn9 Mn11 C2 4_565 1_565 49.33(18)
Mn9 Mn11 C2 4_565 4_555 127.81(18)
C2 Mn11 C2 1_565 4_555 169.7(3)
Mn2 Mn12 Mn2 1_565 2_656 106.74(6)
Mn2 Mn12 Mn2 1_565 3_666 53.51(4)
Mn2 Mn12 Mn2 1_565 4_555 160.01(8)
Mn2 Mn12 Mn6 1_565 . 131.69(6)
Mn2 Mn12 Mn6 1_565 4_565 55.77(3)
Mn2 Mn12 Mn7 1_565 2_656 82.64(5)
Mn2 Mn12 Mn8 1_565 2_756 85.38(4)
Mn2 Mn12 Mn9 1_565 . 138.81(7)
Mn2 Mn12 Mn9 1_565 4_565 60.73(4)
Mn2 Mn12 Mn2 2_656 3_666 53.25(4)
Mn2 Mn12 Mn2 2_656 4_555 53.51(4)
Mn2 Mn12 Mn6 2_656 . 83.33(4)
Mn2 Mn12 Mn6 2_656 4_565 116.26(6)
Mn2 Mn12 Mn7 2_656 2_656 55.87(5)
Mn2 Mn12 Mn8 2_656 2_756 57.95(5)
Mn2 Mn12 Mn9 2_656 . 114.23(3)
Mn2 Mn12 Mn9 2_656 4_565 167.23(5)
Mn2 Mn12 Mn2 3_666 4_555 106.74(6)
Mn2 Mn12 Mn6 3_666 . 116.26(6)
Mn2 Mn12 Mn6 3_666 4_565 83.33(4)
Mn2 Mn12 Mn7 3_666 2_656 55.87(5)
Mn2 Mn12 Mn8 3_666 2_756 57.95(5)
Mn2 Mn12 Mn9 3_666 . 167.23(5)
Mn2 Mn12 Mn9 3_666 4_565 114.23(3)
Mn2 Mn12 Mn6 4_555 . 55.77(3)
Mn2 Mn12 Mn6 4_555 4_565 131.69(6)
Mn2 Mn12 Mn7 4_555 2_656 82.64(5)
Mn2 Mn12 Mn8 4_555 2_756 85.38(4)
Mn2 Mn12 Mn9 4_555 . 60.73(4)
Mn2 Mn12 Mn9 4_555 4_565 138.81(7)
Mn6 Mn12 Mn6 . 4_565 77.11(5)
Mn6 Mn12 Mn7 . 2_656 134.96(5)
Mn6 Mn12 Mn8 . 2_756 59.76(4)
Mn6 Mn12 Mn9 . . 60.03(4)
Mn6 Mn12 Mn9 . 4_565 106.63(7)
Mn6 Mn12 Mn7 4_565 2_656 134.96(5)
Mn6 Mn12 Mn8 4_565 2_756 59.76(4)
Mn6 Mn12 Mn9 4_565 . 106.63(7)
Mn6 Mn12 Mn9 4_565 4_565 60.03(4)
Mn7 Mn12 Mn8 2_656 2_756 104.72(7)
Mn7 Mn12 Mn9 2_656 . 116.79(5)
Mn7 Mn12 Mn9 2_656 4_565 116.79(5)
Mn8 Mn12 Mn9 2_756 . 119.78(6)
Mn8 Mn12 Mn9 2_756 4_565 119.78(6)
Mn9 Mn12 Mn9 . 4_565 78.15(6)
Mn3 Si1 Mn3 2_645 3_655 124.77(11)
Mn3 Si1 Mn4 2_645 2_645 64.28(6)
Mn3 Si1 Mn5 2_645 . 69.21(4)
Mn3 Si1 Mn5 2_645 4_545 164.93(12)
Mn3 Si1 Mn9 2_645 1_545 125.26(11)
Mn3 Si1 Mn9 2_645 4_555 58.28(4)
Mn3 Si1 Mn10 2_645 2_645 70.10(7)
Mn3 Si1 Mn4 3_655 2_645 64.28(6)
Mn3 Si1 Mn5 3_655 . 164.93(12)
Mn3 Si1 Mn5 3_655 4_545 69.21(4)
Mn3 Si1 Mn9 3_655 1_545 58.28(4)
Mn3 Si1 Mn9 3_655 4_555 125.26(11)
Mn3 Si1 Mn10 3_655 2_645 70.10(7)
Mn4 Si1 Mn5 2_645 . 125.48(6)
Mn4 Si1 Mn5 2_645 4_545 125.48(6)
Mn4 Si1 Mn9 2_645 1_545 109.03(10)
Mn4 Si1 Mn9 2_645 4_555 109.03(10)
Mn4 Si1 Mn10 2_645 2_645 63.30(9)
Mn5 Si1 Mn5 . 4_545 96.35(11)
Mn5 Si1 Mn9 . 1_545 120.56(10)
Mn5 Si1 Mn9 . 4_555 65.21(5)
Mn5 Si1 Mn10 . 2_645 123.66(8)
Mn5 Si1 Mn9 4_545 1_545 65.21(5)
Mn5 Si1 Mn9 4_545 4_555 120.56(10)
Mn5 Si1 Mn10 4_545 2_645 123.66(8)
Mn9 Si1 Mn9 1_545 4_555 76.99(7)
Mn9 Si1 Mn10 1_545 2_645 60.71(7)
Mn9 Si1 Mn10 4_555 2_645 60.71(7)
Mn1 Si2 Mn2 1_655 1_655 62.32(7)
Mn1 Si2 Mn2 1_655 4_655 62.32(7)
Mn1 Si2 Mn3 1_655 2_745 113.54(11)
Mn1 Si2 Mn3 1_655 3_765 113.54(11)
Mn1 Si2 Mn4 1_655 . 177.69(15)
Mn1 Si2 Mn5 1_655 1_655 115.00(6)
Mn1 Si2 Mn5 1_655 4_655 115.00(6)
Mn1 Si2 Mn9 1_655 1_655 64.05(6)
Mn1 Si2 Mn9 1_655 4_655 64.05(6)
Mn1 Si2 Mn10 1_655 1_655 62.63(9)
Mn2 Si2 Mn2 1_655 4_655 59.49(7)
Mn2 Si2 Mn3 1_655 2_745 114.87(3)
Mn2 Si2 Mn3 1_655 3_765 173.86(7)
Mn2 Si2 Mn4 1_655 . 115.76(12)
Mn2 Si2 Mn5 1_655 1_655 60.77(5)
Mn2 Si2 Mn5 1_655 4_655 109.28(11)
Mn2 Si2 Mn9 1_655 1_655 114.15(9)
Mn2 Si2 Mn9 1_655 4_655 63.41(5)
Mn2 Si2 Mn10 1_655 1_655 115.96(10)
Mn2 Si2 Mn3 4_655 2_745 173.86(7)
Mn2 Si2 Mn3 4_655 3_765 114.87(3)
Mn2 Si2 Mn4 4_655 . 115.76(12)
Mn2 Si2 Mn5 4_655 1_655 109.28(11)
Mn2 Si2 Mn5 4_655 4_655 60.77(5)
Mn2 Si2 Mn9 4_655 1_655 63.41(5)
Mn2 Si2 Mn9 4_655 4_655 114.15(9)
Mn2 Si2 Mn10 4_655 1_655 115.96(10)
Mn3 Si2 Mn3 2_745 3_765 70.65(7)
Mn3 Si2 Mn4 2_745 . 68.27(7)
Mn3 Si2 Mn5 2_745 1_655 67.76(5)
Mn3 Si2 Mn5 2_745 4_655 125.13(9)
Mn3 Si2 Mn9 2_745 1_655 119.70(12)
Mn3 Si2 Mn9 2_745 4_655 59.80(5)
Mn3 Si2 Mn10 2_745 1_655 63.37(7)
Mn3 Si2 Mn4 3_765 . 68.27(7)
Mn3 Si2 Mn5 3_765 1_655 125.13(9)
Mn3 Si2 Mn5 3_765 4_655 67.76(5)
Mn3 Si2 Mn9 3_765 1_655 59.80(5)
Mn3 Si2 Mn9 3_765 4_655 119.70(12)
Mn3 Si2 Mn10 3_765 1_655 63.37(7)
Mn4 Si2 Mn5 . 1_655 64.06(6)
Mn4 Si2 Mn5 . 4_655 64.06(6)
Mn4 Si2 Mn9 . 1_655 116.58(6)
Mn4 Si2 Mn9 . 4_655 116.58(6)
Mn4 Si2 Mn10 . 1_655 119.68(12)
Mn5 Si2 Mn5 1_655 4_655 111.15(12)
Mn5 Si2 Mn9 1_655 1_655 172.48(13)
Mn5 Si2 Mn9 1_655 4_655 64.34(4)
Mn5 Si2 Mn10 1_655 1_655 121.85(7)
Mn5 Si2 Mn9 4_655 1_655 64.34(4)
Mn5 Si2 Mn9 4_655 4_655 172.48(13)
Mn5 Si2 Mn10 4_655 1_655 121.85(7)
Mn9 Si2 Mn9 1_655 4_655 119.40(12)
Mn9 Si2 Mn10 1_655 1_655 64.91(7)
Mn9 Si2 Mn10 4_655 1_655 64.91(7)
Mn2 C1 Mn2 2_656 4_555 73.0(2)
Mn2 C1 Mn5 2_656 2_656 77.3(3)
Mn2 C1 Mn6 2_656 . 132.7(3)
Mn2 C1 Mn6 2_656 3_766 148.3(4)
Mn2 C1 Mn7 2_656 . 123.0(4)
Mn2 C1 Mn8 2_656 2_756 82.9(3)
Mn2 C1 Mn5 4_555 2_656 131.4(4)
Mn2 C1 Mn6 4_555 . 77.9(3)
Mn2 C1 Mn6 4_555 3_766 138.4(4)
Mn2 C1 Mn7 4_555 . 78.4(2)
Mn2 C1 Mn8 4_555 2_756 128.9(3)
Mn5 C1 Mn6 2_656 . 147.1(4)
Mn5 C1 Mn6 2_656 3_766 75.9(2)
Mn5 C1 Mn7 2_656 . 86.9(3)
Mn5 C1 Mn8 2_656 2_756 83.1(3)
Mn6 C1 Mn6 . 3_766 71.2(3)
Mn6 C1 Mn7 . . 85.3(3)
Mn6 C1 Mn8 . 2_756 87.5(3)
Mn6 C1 Mn7 3_766 . 72.1(2)
Mn6 C1 Mn8 3_766 2_756 77.3(2)
Mn7 C1 Mn8 . 2_756 149.3(4)
Mn1 C2 Mn3 . 4_555 138.3(3)
Mn1 C2 Mn4 . . 72.3(2)
Mn1 C2 Mn5 . 1_655 117.4(3)
Mn1 C2 Mn6 . 4_555 72.8(2)
Mn1 C2 Mn9 . 4_555 80.7(3)
Mn1 C2 Mn11 . 1_545 139.6(4)
Mn3 C2 Mn4 4_555 . 82.9(3)
Mn3 C2 Mn5 4_555 1_655 88.9(3)
Mn3 C2 Mn6 4_555 4_555 147.4(3)
Mn3 C2 Mn9 4_555 4_555 91.8(2)
Mn3 C2 Mn11 4_555 1_545 74.9(2)
Mn4 C2 Mn5 . 1_655 78.8(2)
Mn4 C2 Mn6 . 4_555 124.1(3)
Mn4 C2 Mn9 . 4_555 131.1(3)
Mn4 C2 Mn11 . 1_545 146.5(4)
Mn5 C2 Mn6 1_655 4_555 80.2(2)
Mn5 C2 Mn9 1_655 4_555 150.0(3)
Mn5 C2 Mn11 1_655 1_545 76.0(2)
Mn6 C2 Mn9 4_555 4_555 83.2(3)
Mn6 C2 Mn11 4_555 1_545 72.6(2)
Mn9 C2 Mn11 4_555 1_545 75.2(2)
loop_
_geom_bond_atom_site_label_1
_geom_bond_atom_site_label_2
_geom_bond_site_symmetry_2
_geom_bond_distance
Mn1 Mn2 . 2.5449(19)
Mn1 Mn2 4_555 2.5449(19)
Mn1 Mn4 . 2.416(2)
Mn1 Mn6 . 2.4414(12)
Mn1 Mn6 4_555 2.4414(12)
Mn1 Mn7 . 2.716(2)
Mn1 Mn8 . 2.580(2)
Mn1 Mn9 . 2.6427(12)
Mn1 Mn9 4_555 2.6427(12)
Mn1 Mn10 . 2.580(2)
Mn1 Si2 1_455 2.434(3)
Mn1 C2 . 2.063(7)
Mn1 C2 4_555 2.063(7)
Mn2 Mn2 3_656 2.4285(16)
Mn2 Mn2 4_555 2.4649(13)
Mn2 Mn5 . 2.5282(15)
Mn2 Mn6 4_555 2.5480(16)
Mn2 Mn7 . 2.5601(16)
Mn2 Mn8 1_455 2.6727(18)
Mn2 Mn9 4_555 2.6447(17)
Mn2 Mn12 1_545 2.6400(10)
Mn2 Mn12 2_646 2.750(2)
Mn2 Si2 1_455 2.484(3)
Mn2 C1 2_646 2.027(8)
Mn2 C1 4_555 2.054(6)
Mn3 Mn3 3_765 2.5632(17)
Mn3 Mn4 . 2.6744(12)
Mn3 Mn4 2_755 2.7702(19)
Mn3 Mn5 2_655 2.8458(18)
Mn3 Mn5 4_655 2.8274(17)
Mn3 Mn9 3_665 2.5609(15)
Mn3 Mn10 2_655 2.6884(17)
Mn3 Mn11 . 2.5614(18)
Mn3 Si1 2_655 2.6351(17)
Mn3 Si2 2_755 2.590(2)
Mn3 C2 4_555 2.011(7)
Mn4 Mn5 1_655 2.5752(12)
Mn4 Mn5 4_655 2.5752(12)
Mn4 Mn8 . 2.830(2)
Mn4 Mn10 . 2.557(2)
Mn4 Si1 2_655 2.375(3)
Mn4 Si2 . 2.333(3)
Mn4 C2 . 2.029(7)
Mn4 C2 4_555 2.029(7)
Mn5 Mn6 4_455 2.6283(18)
Mn5 Mn7 2_646 2.7600(17)
Mn5 Mn8 1_455 2.6729(15)
Mn5 Mn9 4_555 2.6948(17)
Mn5 Mn11 1_445 2.6025(15)
Mn5 Si1 . 2.360(2)
Mn5 Si2 1_455 2.514(2)
Mn5 C1 2_646 2.019(8)
Mn5 C2 1_455 2.028(6)
Mn6 Mn6 3_766 2.4806(16)
Mn6 Mn7 . 2.7058(15)
Mn6 Mn7 2_756 2.5020(14)
Mn6 Mn8 . 2.6642(14)
Mn6 Mn8 2_756 2.7728(17)
Mn6 Mn9 . 2.7026(16)
Mn6 Mn11 . 2.5161(16)
Mn6 Mn12 . 2.7993(17)
Mn6 C1 . 2.000(8)
Mn6 C1 3_766 2.245(7)
Mn6 C2 4_555 2.051(7)
Mn7 Mn8 . 2.703(2)
Mn7 Mn11 2_746 2.771(2)
Mn7 Mn12 2_646 2.714(2)
Mn7 C1 . 1.995(6)
Mn7 C1 4_555 1.995(6)
Mn8 Mn12 2_746 2.767(2)
Mn8 C1 2_746 2.009(6)
Mn8 C1 3_766 2.009(6)
Mn9 Mn10 . 2.7232(15)
Mn9 Mn10 2_655 2.5888(17)
Mn9 Mn11 . 2.5724(16)
Mn9 Mn12 . 2.5914(18)
Mn9 Si1 1_565 2.624(2)
Mn9 Si2 1_455 2.5469(18)
Mn9 C2 4_555 2.018(7)
Mn10 Si1 2_655 2.494(4)
Mn10 Si2 1_455 2.528(4)
Mn11 C2 1_565 2.193(6)
Mn11 C2 4_555 2.193(6)
loop_
_refln_index_h
_refln_index_k
_refln_index_l
_refln_F_squared_calc
_refln_F_squared_meas
_refln_F_squared_sigma
_refln_observed_status
1 0 0 61.35 89.36 31.19 <
2 0 0 2876.25 2713.82 76.06 o
3 0 0 207399.00 197383.00 3338.68 o
4 0 0 39.77 83.31 40.35 <
5 0 0 8369.41 8576.72 525.33 o
6 0 0 47080.50 44224.90 1296.19 o
7 0 0 1165.83 699.39 281.88 <
1 1 0 42.57 44.30 12.86 o
2 1 0 592.36 542.57 33.16 o
3 1 0 463.88 468.55 42.77 o
4 1 0 576.97 464.67 83.12 o
5 1 0 7670.93 7657.62 335.73 o
6 1 0 685.40 780.92 124.62 o
7 1 0 103.55 -54.03 105.08 <
0 2 0 1247.61 1425.84 42.01 o
1 2 0 7.13 1.72 12.22 <
2 2 0 27.22 27.24 14.89 <
3 2 0 21166.80 20859.00 327.71 o
4 2 0 797.88 840.11 85.92 o
5 2 0 193.35 152.75 54.16 <
6 2 0 2398.66 2751.62 289.97 o
7 2 0 417.89 229.50 98.90 <
8 2 0 2219.25 1389.49 302.19 o
1 3 0 6626.79 6842.33 98.59 o
2 3 0 731.62 769.21 35.39 o
3 3 0 244.90 247.13 37.61 o
4 3 0 1381.46 1391.21 119.84 o
5 3 0 5652.91 5248.03 384.16 o
6 3 0 657.72 704.04 157.78 o
7 3 0 1695.22 1639.17 251.27 o
0 4 0 171812.00 145756.00 1642.29 o
1 4 0 10545.40 10353.90 153.38 o
2 4 0 1797.09 1882.17 69.44 o
3 4 0 34801.20 35777.70 581.59 o
4 4 0 5593.71 6052.76 260.82 o
5 4 0 473.15 600.62 110.68 o
6 4 0 7486.71 7677.10 534.04 o
7 4 0 7791.81 7692.69 564.40 o
1 5 0 876.29 860.73 47.22 o
2 5 0 911.29 922.72 57.22 o
3 5 0 886.57 841.26 85.98 o
4 5 0 2191.50 2289.94 187.31 o
5 5 0 3399.90 3320.23 256.42 o
6 5 0 1268.19 1223.57 226.77 o
0 6 0 37028.10 37065.70 572.80 o
1 6 0 3589.48 3710.81 112.65 o
2 6 0 1959.98 2002.01 110.42 o
3 6 0 5350.96 5688.45 242.42 o
4 6 0 5499.41 5762.60 387.47 o
5 6 0 617.12 776.79 156.76 o
6 6 0 4846.82 4903.27 588.46 o
1 7 0 1769.51 1818.08 110.49 o
2 7 0 31.81 46.46 36.91 <
3 7 0 40.17 79.81 58.55 <
4 7 0 469.11 462.76 112.21 o
5 7 0 5626.09 5493.38 438.32 o
0 8 0 20525.70 21366.20 770.80 o
1 8 0 1702.33 1863.33 132.51 o
2 8 0 80.06 145.75 62.12 <
3 8 0 1587.88 1788.36 196.15 o
4 8 0 1193.95 1483.05 191.32 o
1 9 0 158.22 140.21 75.55 <
2 9 0 63.11 18.01 81.21 <
3 9 0 1154.21 928.13 175.02 o
1 10 0 464.62 392.24 144.28 <
-8 0 1 8947.43 10198.50 1024.49 o
-7 0 1 2418.05 2269.77 276.79 o
-6 0 1 1800.35 1740.69 224.73 o
-5 0 1 3.93 -31.95 55.18 <
-4 0 1 1654.23 1683.28 125.95 o
-3 0 1 340.62 322.55 52.44 o
-2 0 1 19.83 60.21 25.65 <
-1 0 1 672.16 621.75 34.50 o
1 0 1 987.62 1079.29 44.30 o
2 0 1 2674.54 2845.18 81.02 o
3 0 1 8233.92 8052.22 216.71 o
4 0 1 1658.66 1614.67 193.42 o
5 0 1 45419.40 46103.50 1544.34 o
6 0 1 2892.89 2911.88 294.80 o
7 0 1 155.07 324.65 291.24 <
-8 1 1 111.69 204.49 157.84 <
-7 1 1 7.30 121.31 95.21 <
-6 1 1 3950.42 3787.82 246.31 o
-5 1 1 483.53 411.27 89.74 o
-4 1 1 2263.03 2391.07 134.48 o
-3 1 1 32371.80 32095.90 561.54 o
-2 1 1 327.21 317.33 31.25 o
-1 1 1 108.05 128.24 14.45 o
0 1 1 321.50 374.93 23.74 o
1 1 1 142.06 196.41 25.46 o
2 1 1 3.28 -17.88 19.92 <
3 1 1 1513.72 1595.20 77.77 o
4 1 1 700.46 776.98 76.88 o
5 1 1 7062.34 7745.33 343.81 o
6 1 1 320.92 218.37 89.68 <
7 1 1 81.70 -114.75 89.48 <
-8 2 1 3029.41 3543.68 479.12 o
-7 2 1 59.34 28.51 91.20 <
-6 2 1 3920.74 3408.25 318.73 o
-5 2 1 2659.56 3110.71 281.88 o
-4 2 1 1.23 -40.29 91.65 <
-3 2 1 9993.34 10189.70 217.22 o
-2 2 1 870.69 958.49 44.93 o
-1 2 1 1616.97 1730.89 41.62 o
0 2 1 6.85 2.04 13.05 <
1 2 1 1500.22 1503.04 53.53 o
2 2 1 8251.44 7967.83 163.89 o
3 2 1 801.60 782.77 57.79 o
4 2 1 158.46 195.33 46.97 o
5 2 1 91.97 66.64 45.12 <
6 2 1 724.46 891.54 186.80 o
7 2 1 3.53 -15.15 85.79 <
-7 3 1 10254.60 9029.49 576.49 o
-6 3 1 793.52 712.76 157.46 o
-5 3 1 1178.13 1289.06 194.12 o
-4 3 1 6618.62 6180.49 261.01 o
-3 3 1 10218.80 10172.40 180.05 o
-2 3 1 366.70 308.49 32.20 o
-1 3 1 9015.92 9420.97 136.71 o
0 3 1 4392.29 4406.45 82.93 o
1 3 1 29.09 37.81 17.88 <
2 3 1 1238.08 1329.16 68.74 o
3 3 1 530.72 626.39 78.28 o
4 3 1 2565.60 2493.42 162.68 o
5 3 1 6664.47 6701.68 291.37 o
6 3 1 1129.84 900.51 176.87 o
7 3 1 1166.16 1064.97 214.29 o
-7 4 1 3826.05 3658.37 374.55 o
-6 4 1 1933.46 2404.76 293.72 o
-5 4 1 4791.72 5271.20 381.49 o
-4 4 1 5658.78 6062.56 369.97 o
-3 4 1 0.31 31.25 21.83 <
-2 4 1 9250.12 9638.83 157.65 o
-1 4 1 10287.00 10065.20 148.36 o
0 4 1 95.59 84.46 19.86 o
1 4 1 6220.95 6345.08 130.85 o
2 4 1 4029.06 3992.76 201.18 o
3 4 1 1117.08 1217.59 109.34 o
4 4 1 10781.80 11160.30 372.89 o
5 4 1 7571.13 6872.76 310.14 o
6 4 1 121.11 136.71 114.88 <
7 4 1 3257.49 2577.49 431.77 o
-7 5 1 1634.94 1986.48 292.70 o
-6 5 1 10799.40 12594.30 690.42 o
-5 5 1 1361.14 1237.96 258.14 o
-4 5 1 4521.69 4491.80 319.75 o
-3 5 1 44623.10 45320.90 686.16 o
-2 5 1 1453.57 1391.47 56.96 o
-1 5 1 134.51 122.58 26.54 o
0 5 1 5516.77 5678.14 118.89 o
1 5 1 1475.50 1534.22 76.37 o
2 5 1 762.45 809.31 102.66 o
3 5 1 6240.05 6479.88 300.60 o
4 5 1 76.89 85.60 56.07 <
5 5 1 970.63 1007.50 130.35 o
6 5 1 911.04 1043.14 231.22 o
-6 6 1 858.95 979.75 189.66 o
-5 6 1 463.31 439.66 131.04 o
-4 6 1 267.61 341.71 80.83 o
-3 6 1 2024.15 2190.53 148.55 o
-2 6 1 3281.99 3492.19 122.14 o
-1 6 1 772.33 728.03 57.79 o
0 6 1 28.00 41.43 28.77 <
1 6 1 8846.00 9220.62 218.18 o
2 6 1 656.39 625.69 82.67 o
3 6 1 799.94 678.45 106.10 o
4 6 1 1546.62 1392.42 157.59 o
5 6 1 7358.12 7071.77 461.36 o
-5 7 1 161.20 144.60 108.90 <
-4 7 1 307.58 288.50 111.76 <
-3 7 1 142.01 248.66 79.87 o
-2 7 1 338.56 260.50 62.12 o
-1 7 1 3.13 21.07 30.30 <
0 7 1 14392.00 14871.50 299.00 o
1 7 1 499.80 561.28 61.42 o
2 7 1 1692.84 1808.79 133.72 o
3 7 1 1749.98 1742.34 153.77 o
4 7 1 2144.43 2022.51 204.04 o
5 7 1 12561.00 12840.80 671.52 o
-4 8 1 77.94 233.32 104.38 <
-3 8 1 4330.48 4291.13 294.04 o
-2 8 1 2735.92 2923.97 193.61 o
-1 8 1 1003.79 1083.04 102.15 o
0 8 1 2840.64 2804.13 143.39 o
1 8 1 1210.20 1256.80 110.42 o
2 8 1 1721.77 1784.92 158.67 o
3 8 1 3887.48 3914.80 246.88 o
4 8 1 2918.45 2833.72 219.51 o
5 8 1 1114.46 1237.51 308.30 o
-3 9 1 26437.80 26484.80 1006.93 o
-2 9 1 182.12 230.71 70.45 o
-1 9 1 1689.99 1808.15 218.75 o
0 9 1 6322.60 6129.64 338.72 o
1 9 1 0.51 55.43 46.65 <
2 9 1 4099.98 4201.64 256.68 o
3 9 1 7064.99 6592.15 669.23 o
-1 10 1 1715.40 2026.58 257.89 o
1 10 1 8.59 -55.56 120.35 <
-8 0 2 3218.19 3309.85 612.14 o
-7 0 2 8059.08 8214.64 540.28 o
-6 0 2 1416.85 1437.87 207.29 o
-5 0 2 399.04 233.26 91.27 <
-4 0 2 1373.27 1335.02 129.77 o
-3 0 2 5671.09 5410.20 240.01 o
-2 0 2 48.57 25.33 29.91 <
-1 0 2 93.77 121.31 29.59 o
0 0 2 59.31 22.91 35.77 <
1 0 2 8.93 61.74 39.21 <
2 0 2 1545.76 1475.61 80.51 o
3 0 2 569.87 592.98 59.95 o
4 0 2 53.98 73.96 34.30 <
5 0 2 7190.49 6876.32 418.72 o
6 0 2 480.45 512.34 122.07 o
7 0 2 76.30 197.24 244.97 <
-8 1 2 2991.39 2802.47 285.58 o
-7 1 2 1876.86 1561.78 234.85 o
-6 1 2 1189.44 1030.79 125.13 o
-5 1 2 20.45 18.97 53.27 <
-4 1 2 1910.19 1865.18 121.31 o
-3 1 2 18175.20 18851.20 336.17 o
-2 1 2 1563.88 1851.62 76.44 o
-1 1 2 313.90 383.52 22.98 o
0 1 2 53.82 110.87 25.78 o
1 1 2 152.97 223.14 32.78 o
2 1 2 3389.58 3583.52 106.54 o
3 1 2 44.50 91.65 24.57 o
4 1 2 2404.11 2646.80 118.57 o
5 1 2 696.22 668.59 95.98 o
6 1 2 9.90 53.40 91.58 <
7 1 2 2859.59 2110.72 307.79 o
-8 2 2 3300.84 2891.71 326.69 o
-7 2 2 4871.12 4678.98 389.76 o
-6 2 2 3267.19 2796.94 284.17 o
-5 2 2 3190.73 3516.06 304.41 o
-4 2 2 4514.62 4457.50 174.58 o
-3 2 2 32309.80 32839.90 503.18 o
-2 2 2 3143.65 3138.46 105.59 o
-1 2 2 5838.95 5880.91 111.89 o
0 2 2 628.96 635.68 34.18 o
1 2 2 859.61 764.18 46.65 o
2 2 2 61598.70 57146.90 604.24 o
3 2 2 8.06 -3.63 22.85 <
4 2 2 77.75 129.13 44.17 <
5 2 2 6793.49 6946.33 283.35 o
6 2 2 54.67 60.97 72.62 <
7 2 2 0.45 154.27 125.64 <
-8 3 2 775.53 851.76 248.66 o
-7 3 2 140.01 35.83 65.55 <
-6 3 2 5851.20 5616.98 410.89 o
-5 3 2 24170.50 25154.60 863.28 o
-4 3 2 975.58 907.07 81.08 o
-3 3 2 186.60 177.70 35.07 o
-2 3 2 85679.10 86174.20 1012.59 o
-1 3 2 2439.64 2458.67 73.89 o
0 3 2 13127.80 13464.60 176.42 o
1 3 2 74587.00 73353.40 814.97 o
2 3 2 5678.33 5916.24 138.17 o
3 3 2 4314.23 4121.83 158.60 o
4 3 2 55436.80 53612.90 957.35 o
5 3 2 706.44 727.59 100.94 o
6 3 2 1568.81 1962.24 265.65 o
7 3 2 24816.20 25233.30 1430.80 o
-7 4 2 2434.65 2223.69 225.68 o
-6 4 2 3586.01 3568.82 264.25 o
-5 4 2 116.13 82.48 67.59 <
-4 4 2 7.46 18.33 32.90 <
-3 4 2 149.02 257.83 40.48 o
-2 4 2 1.07 46.08 22.08 <
-1 4 2 61.10 118.76 28.45 o
0 4 2 5170.38 5149.00 130.79 o
1 4 2 43.56 57.41 20.11 <
2 4 2 1421.74 1265.83 116.98 o
3 4 2 1493.63 1393.31 121.94 o
4 4 2 353.64 334.52 72.56 o
5 4 2 3901.80 3797.18 234.09 o
6 4 2 438.13 204.81 117.55 <
-7 5 2 1483.99 2132.29 281.50 o
-6 5 2 1906.36 2188.30 214.80 o
-5 5 2 1419.09 1273.85 189.73 o
-4 5 2 963.69 1035.44 154.85 o
-3 5 2 11016.90 11731.70 268.52 o
-2 5 2 2879.89 2984.63 110.68 o
-1 5 2 67.95 56.13 23.80 <
0 5 2 0.12 -19.86 22.78 <
1 5 2 10739.10 10899.70 246.56 o
2 5 2 6704.42 7108.43 263.81 o
3 5 2 11.56 -57.79 49.83 <
4 5 2 1023.06 924.95 116.66 o
5 5 2 510.89 340.63 86.37 o
6 5 2 113.89 41.50 99.48 <
-6 6 2 4925.30 4912.18 410.32 o
-5 6 2 3482.59 2982.91 299.32 o
-4 6 2 730.25 691.18 131.81 o
-3 6 2 25824.60 26219.50 665.79 o
-2 6 2 3074.18 3346.45 128.31 o
-1 6 2 1346.59 1363.27 74.72 o
0 6 2 4475.81 4754.97 163.95 o
1 6 2 1104.51 1233.69 98.59 o
2 6 2 16186.20 16131.80 445.13 o
3 6 2 2103.16 1961.34 156.63 o
4 6 2 117.37 112.91 63.90 <
5 6 2 769.65 886.76 140.15 o
-5 7 2 5403.94 5214.49 420.76 o
-4 7 2 290.86 365.19 103.55 o
-3 7 2 4511.62 5158.93 283.60 o
-2 7 2 19765.20 20437.30 588.46 o
-1 7 2 657.48 681.83 67.97 o
0 7 2 126.30 123.15 32.78 o
1 7 2 17557.00 18217.40 446.02 o
2 7 2 345.61 353.55 76.06 o
3 7 2 295.61 296.52 76.12 o
4 7 2 18593.60 17983.90 558.04 o
5 7 2 7043.51 7421.50 514.51 o
-4 8 2 2.39 -3.82 70.45 <
-3 8 2 56.37 148.10 94.19 <
-2 8 2 670.59 892.94 124.55 o
-1 8 2 638.86 734.72 112.08 o
0 8 2 2044.92 2193.27 138.43 o
1 8 2 806.97 797.60 90.31 o
2 8 2 6408.37 6380.65 302.76 o
3 8 2 702.99 570.51 120.10 o
4 8 2 303.73 25.27 80.32 <
-3 9 2 2.29 -93.69 75.36 <
-2 9 2 409.72 517.88 130.09 o
-1 9 2 469.27 708.49 154.85 o
0 9 2 2956.69 3137.31 241.72 o
1 9 2 110.71 161.79 58.43 <
2 9 2 5580.60 5619.33 301.17 o
-1 10 2 204.31 192.21 94.32 <
1 10 2 2433.51 1993.29 345.27 o
-8 0 3 218.13 462.51 254.01 <
-7 0 3 46.03 267.05 138.17 <
-6 0 3 46.38 235.17 130.79 <
-5 0 3 574.27 660.44 82.61 o
-4 0 3 62.43 118.44 42.07 <
-3 0 3 27169.90 25543.60 503.11 o
-2 0 3 6656.29 7077.06 191.13 o
-1 0 3 48.54 10.06 61.80 <
0 0 3 458.40 428.78 67.40 o
1 0 3 8.62 -45.63 46.91 <
2 0 3 64.80 164.14 51.17 o
3 0 3 1816.54 2030.40 119.02 o
4 0 3 187.38 275.33 66.13 o
5 0 3 28.63 29.59 46.78 <
6 0 3 1864.18 1830.43 428.08 o
-8 1 3 11.17 -36.72 114.05 <
-7 1 3 323.16 270.17 115.13 <
-6 1 3 709.44 484.34 94.51 o
-5 1 3 33.73 12.28 39.65 <
-4 1 3 9.78 39.46 31.82 <
-3 1 3 3264.73 3399.72 106.35 o
-2 1 3 308.02 310.71 30.36 o
-1 1 3 4.87 -21.89 23.17 <
0 1 3 1259.13 1212.56 62.05 o
1 1 3 429.48 508.33 54.35 o
2 1 3 29929.00 31052.50 437.05 o
3 1 3 884.17 1082.85 63.52 o
4 1 3 321.39 362.52 46.84 o
5 1 3 1221.69 1180.61 145.49 o
6 1 3 3264.90 3364.59 257.76 o
-8 2 3 18054.30 14689.70 752.47 o
-7 2 3 1499.35 1643.57 181.51 o
-6 2 3 15481.50 14958.30 516.03 o
-5 2 3 60183.10 57360.10 1098.51 o
-4 2 3 1734.73 1697.22 101.51 o
-3 2 3 8.52 84.84 31.00 <
-2 2 3 124662.00 120141.00 1541.67 o
-1 2 3 73.15 107.05 29.85 o
0 2 3 682.99 694.49 48.56 o
1 2 3 154138.00 141554.00 1629.31 o
2 2 3 7494.62 7569.92 170.89 o
3 2 3 453.92 414.01 45.00 o
4 2 3 36241.00 37880.30 631.36 o
5 2 3 4324.27 4606.36 283.86 o
6 2 3 1701.53 2108.11 214.04 o
7 2 3 43.73 243.82 159.43 <
-8 3 3 78.66 125.64 140.59 <
-7 3 3 2325.46 2155.78 209.01 o
-6 3 3 2383.90 2657.68 212.96 o
-5 3 3 25.00 76.95 47.42 <
-4 3 3 19354.00 19012.40 372.45 o
-3 3 3 16.53 45.25 29.72 <
-2 3 3 23.32 -3.31 27.88 <
-1 3 3 45122.90 43224.90 536.34 o
0 3 3 4081.07 4119.22 110.81 o
1 3 3 2724.70 2588.25 103.42 o
2 3 3 1219.76 1285.31 70.58 o
3 3 3 6545.54 6442.26 215.25 o
4 3 3 3542.70 3803.74 212.32 o
5 3 3 7648.62 7822.78 328.66 o
6 3 3 1939.34 2225.02 228.17 o
7 3 3 1841.41 1791.03 379.45 o
-8 4 3 638.04 921.39 324.27 <
-7 4 3 198.84 186.35 94.07 <
-6 4 3 1078.09 1072.16 142.95 o
-5 4 3 115.90 111.32 48.05 <
-4 4 3 379.33 424.07 58.87 o
-3 4 3 6310.67 6585.15 221.48 o
-2 4 3 233.93 172.80 30.10 o
-1 4 3 74.41 18.39 22.02 <
0 4 3 798.95 905.35 55.82 o
1 4 3 1664.90 1758.83 88.28 o
2 4 3 42.74 -11.33 26.60 <
3 4 3 3983.20 3628.97 164.90 o
4 4 3 177.69 132.38 59.44 <
5 4 3 475.19 525.90 97.12 o
6 4 3 2547.83 2501.50 253.69 o
-7 5 3 131.40 -48.56 111.00 <
-6 5 3 1713.98 1915.97 240.51 o
-5 5 3 2138.96 2141.90 234.40 o
-4 5 3 295.79 303.52 58.36 o
-3 5 3 355.48 300.72 44.23 o
-2 5 3 2100.34 2105.88 96.61 o
-1 5 3 1498.95 1473.63 88.91 o
0 5 3 101.01 92.73 35.07 <
1 5 3 2976.15 2875.09 171.27 o
2 5 3 27661.60 27281.50 599.34 o
3 5 3 775.78 810.07 101.83 o
4 5 3 1029.60 1031.75 126.84 o
5 5 3 2866.54 2964.32 224.41 o
6 5 3 4744.36 4477.35 570.26 o
-6 6 3 3609.49 3755.18 356.35 o
-5 6 3 15474.10 16422.00 725.11 o
-4 6 3 694.65 826.36 155.74 o
-3 6 3 1944.46 2018.18 165.48 o
-2 6 3 22562.10 23282.20 394.54 o
-1 6 3 233.55 201.12 38.06 o
0 6 3 429.56 419.36 53.02 o
1 6 3 33624.50 33877.90 717.66 o
2 6 3 7117.34 7283.20 299.00 o
3 6 3 1545.45 1537.60 140.21 o
4 6 3 10670.20 10967.80 418.27 o
5 6 3 5749.93 5795.63 317.78 o
-5 7 3 6006.99 5882.82 438.32 o
-4 7 3 725.17 928.58 172.92 o
-3 7 3 2695.85 2854.92 211.24 o
-2 7 3 6842.46 6233.76 306.77 o
-1 7 3 3423.13 3663.02 152.68 o
0 7 3 590.06 499.42 69.37 o
1 7 3 1110.27 925.08 122.96 o
2 7 3 1752.05 1613.53 150.52 o
3 7 3 2.58 -91.33 63.71 <
4 7 3 1.52 -38.82 67.34 <
5 7 3 220.83 276.15 169.87 <
-4 8 3 60.29 197.49 100.43 <
-3 8 3 1176.75 1248.78 190.49 o
-2 8 3 6275.58 6089.35 320.71 o
-1 8 3 894.11 1014.56 170.70 o
0 8 3 878.10 868.31 95.09 o
1 8 3 10461.40 10084.40 430.88 o
2 8 3 749.08 648.29 115.90 o
3 8 3 2082.62 1996.03 186.67 o
4 8 3 2897.99 3417.41 528.25 o
-3 9 3 34.64 -139.19 136.33 <
-2 9 3 3340.04 3204.33 313.13 o
-1 9 3 1943.16 1629.63 223.01 o
0 9 3 894.87 922.66 172.35 o
1 9 3 3104.73 2996.91 213.02 o
2 9 3 1625.24 1180.10 155.17 o
-8 0 4 11510.60 10967.20 1058.41 o
-7 0 4 7649.46 7123.71 489.43 o
-6 0 4 60.85 69.50 52.83 <
-5 0 4 20176.00 20099.70 504.96 o
-4 0 4 7040.13 7023.79 298.11 o
-3 0 4 1609.47 1574.32 124.81 o
-2 0 4 43406.70 43277.40 1346.98 o
-1 0 4 201.01 338.97 91.01 o
0 0 4 217.15 331.72 61.42 o
1 0 4 12271.00 11052.10 334.33 o
2 0 4 39948.00 40942.40 978.67 o
3 0 4 1840.27 1868.04 112.84 o
4 0 4 867.13 1100.61 103.68 o
5 0 4 8133.01 8050.06 379.01 o
6 0 4 331.67 446.47 255.34 <
-8 1 4 690.14 512.91 124.74 o
-7 1 4 307.13 277.49 98.01 <
-6 1 4 13036.80 13012.90 394.98 o
-5 1 4 1085.64 1207.34 83.50 o
-4 1 4 716.58 789.45 59.89 o
-3 1 4 228.48 224.16 30.68 o
-2 1 4 4585.19 4385.00 141.48 o
-1 1 4 1165.72 1259.34 84.84 o
0 1 4 750.86 658.28 62.31 o
1 1 4 11.06 46.97 44.87 <
2 1 4 86.96 118.00 35.07 o
3 1 4 1291.58 1391.98 70.07 o
4 1 4 471.66 562.37 61.29 o
5 1 4 0.53 18.39 58.43 <
6 1 4 4990.28 5080.96 362.14 o
-8 2 4 6180.24 5383.08 430.56 o
-7 2 4 73.00 -38.12 89.10 <
-6 2 4 2061.37 2120.90 154.40 o
-5 2 4 10023.60 10225.90 287.61 o
-4 2 4 1465.37 1491.07 95.59 o
-3 2 4 843.40 772.01 61.80 o
-2 2 4 2083.10 2071.96 92.03 o
-1 2 4 28344.60 28508.30 562.24 o
0 2 4 1140.13 1404.45 100.94 o
1 2 4 834.20 929.34 77.52 o
2 2 4 471.18 487.84 51.87 o
3 2 4 5122.41 5560.14 151.22 o
4 2 4 2.73 -28.45 39.33 <
5 2 4 5027.50 5226.58 266.04 o
6 2 4 12605.50 12909.30 470.08 o
-7 3 4 791.84 595.78 135.76 o
-6 3 4 248.33 266.48 65.17 o
-5 3 4 2254.49 2330.36 151.54 o
-4 3 4 1249.85 1308.41 93.05 o
-3 3 4 9132.23 9118.91 266.61 o
-2 3 4 4596.22 4729.77 154.78 o
-1 3 4 1102.61 1060.96 67.85 o
0 3 4 3220.85 3390.68 133.40 o
1 3 4 768.49 677.44 60.14 o
2 3 4 246.91 330.38 41.11 o
3 3 4 414.04 430.94 61.67 o
4 3 4 4867.07 4989.06 199.78 o
5 3 4 115.14 194.18 78.41 <
6 3 4 2079.12 2073.04 230.59 o
-7 4 4 898.99 952.38 144.16 o
-6 4 4 1454.96 1395.99 129.65 o
-5 4 4 201.19 207.74 73.13 <
-4 4 4 6.17 -62.94 44.81 <
-3 4 4 202.74 169.99 44.68 o
-2 4 4 1841.62 1787.53 89.48 o
-1 4 4 6823.00 6570.70 174.13 o
0 4 4 353.88 313.90 45.25 o
1 4 4 17.74 -0.89 29.09 <
2 4 4 5785.78 5882.12 209.14 o
3 4 4 1966.66 1895.09 136.07 o
4 4 4 542.32 456.72 75.74 o
5 4 4 366.47 558.23 98.97 o
6 4 4 204.96 69.25 105.84 <
-7 5 4 112.03 250.44 179.61 <
-6 5 4 15014.80 15355.30 696.72 o
-5 5 4 798.85 908.98 158.09 o
-4 5 4 118.15 212.51 51.68 o
-3 5 4 45.91 55.63 29.34 <
-2 5 4 333.06 407.45 56.13 o
-1 5 4 33.71 109.28 38.25 <
0 5 4 2817.00 2723.43 141.93 o
1 5 4 2348.90 2306.04 161.72 o
2 5 4 941.67 974.47 111.32 o
3 5 4 6788.42 6705.75 296.01 o
4 5 4 1153.83 1320.12 132.19 o
5 5 4 293.11 421.65 87.89 o
-6 6 4 5.42 -13.87 100.43 <
-5 6 4 1208.50 1389.30 203.66 o
-4 6 4 1214.50 1499.60 197.43 o
-3 6 4 59.01 70.20 44.36 <
-2 6 4 6185.11 6181.19 211.49 o
-1 6 4 940.72 1035.88 86.43 o
0 6 4 770.68 756.67 73.83 o
1 6 4 3403.76 3204.39 203.41 o
2 6 4 3933.80 4166.19 234.21 o
3 6 4 1366.33 1338.39 138.36 o
4 6 4 1217.99 1398.66 151.73 o
5 6 4 13.50 15.34 92.60 <
-5 7 4 10604.60 10919.60 604.95 o
-4 7 4 2073.80 1864.92 230.78 o
-3 7 4 387.54 368.82 86.30 o
-2 7 4 17883.30 18200.40 414.46 o
-1 7 4 1826.75 1771.75 119.08 o
0 7 4 1038.59 924.19 94.70 o
1 7 4 5196.65 4981.61 265.65 o
2 7 4 200.11 216.07 83.82 <
3 7 4 3132.52 3459.16 239.05 o
4 7 4 231.53 186.86 76.37 <
-4 8 4 60.51 -51.68 76.69 <
-3 8 4 171.77 178.78 85.48 <
-2 8 4 62.36 -8.21 49.39 <
-1 8 4 4401.20 4147.48 224.29 o
0 8 4 709.60 653.12 94.32 o
1 8 4 177.53 109.47 66.89 <
2 8 4 745.84 801.29 120.99 o
3 8 4 316.82 251.21 82.23 o
-3 9 4 1335.91 1546.57 310.27 o
-2 9 4 4685.91 4715.64 382.12 o
-1 9 4 297.11 403.70 123.66 o
0 9 4 4624.91 4557.48 253.56 o
1 9 4 7977.62 7772.82 388.49 o
2 9 4 7.49 -122.64 151.86 <
-7 0 5 1032.57 1040.02 205.19 o
-6 0 5 13489.40 12574.80 601.70 o
-5 0 5 17149.70 16846.10 488.79 o
-4 0 5 5374.03 5094.45 262.73 o
-3 0 5 41536.30 43172.00 1448.56 o
-2 0 5 40527.70 42494.50 1385.68 o
-1 0 5 7.80 23.04 74.40 <
0 0 5 97692.60 89207.20 1743.36 o
1 0 5 18336.80 17055.20 458.88 o
2 0 5 452.31 498.53 84.27 o
3 0 5 88219.10 89002.00 1216.32 o
4 0 5 98.62 85.22 54.73 <
5 0 5 972.27 1214.79 201.05 o
6 0 5 23555.20 24462.00 1044.16 o
-8 1 5 132.54 189.66 140.65 <
-7 1 5 1800.03 1837.94 187.37 o
-6 1 5 225.17 189.73 46.21 o
-5 1 5 37.20 45.89 37.61 <
-4 1 5 6698.26 6745.21 204.17 o
-3 1 5 370.03 284.05 39.08 o
-2 1 5 2493.02 2396.80 171.97 o
-1 1 5 69026.60 67663.90 1094.25 o
0 1 5 295.94 275.58 55.12 o
1 1 5 214.26 189.60 51.23 o
2 1 5 14616.00 13823.70 304.41 o
3 1 5 274.87 306.90 42.07 o
4 1 5 2481.80 2641.90 120.22 o
5 1 5 7618.63 7987.94 291.56 o
6 1 5 496.79 576.62 124.49 o
-8 2 5 135.12 8.15 84.97 <
-7 2 5 1115.24 824.39 155.23 o
-6 2 5 2369.18 2490.36 149.06 o
-5 2 5 525.37 575.22 69.05 o
-4 2 5 8.88 -46.72 32.40 <
-3 2 5 6619.46 6612.70 186.29 o
-2 2 5 103.04 -8.08 27.24 <
-1 2 5 10389.00 11131.30 412.10 o
0 2 5 18109.70 16513.20 463.78 o
1 2 5 1261.64 1127.79 88.78 o
2 2 5 218.68 208.69 45.76 o
3 2 5 5558.18 6121.56 175.79 o
4 2 5 5891.03 6184.95 228.87 o
5 2 5 24.70 100.18 58.30 <
6 2 5 7088.00 7324.76 372.64 o
-7 3 5 439.77 670.56 118.44 o
-6 3 5 175.73 227.66 61.80 o
-5 3 5 314.28 295.76 56.52 o
-4 3 5 1568.53 1509.91 119.14 o
-3 3 5 42.05 55.37 26.79 <
-2 3 5 2566.75 2473.11 128.69 o
-1 3 5 5879.96 5356.86 209.20 o
0 3 5 24.85 37.93 47.35 <
1 3 5 32.61 24.57 41.88 <
2 3 5 394.38 374.87 50.02 o
3 3 5 193.62 209.77 49.45 o
4 3 5 2883.93 3067.94 166.18 o
5 3 5 99.97 70.84 60.53 <
6 3 5 345.69 321.34 138.75 <
-7 4 5 7861.29 7827.11 394.09 o
-6 4 5 565.97 619.77 107.05 o
-5 4 5 4076.93 4508.73 258.27 o
-4 4 5 18838.80 18515.60 403.57 o
-3 4 5 1109.08 1083.55 85.60 o
-2 4 5 8377.71 7841.18 207.93 o
-1 4 5 6840.83 6639.43 212.00 o
0 4 5 7929.57 8240.74 283.79 o
1 4 5 1256.18 1317.00 115.71 o
2 4 5 7034.48 7104.23 296.58 o
3 4 5 14360.20 14439.40 412.23 o
4 4 5 2711.48 2636.11 181.26 o
5 4 5 292.29 218.49 85.98 <
-7 5 5 5188.22 4293.29 510.50 o
-6 5 5 34.86 34.62 90.76 <
-5 5 5 342.81 480.65 97.25 o
-4 5 5 15396.30 15863.50 376.01 o
-3 5 5 454.94 451.37 61.67 o
-2 5 5 1402.83 1395.86 88.28 o
-1 5 5 71527.40 69464.80 875.24 o
0 5 5 67.79 112.14 62.24 <
1 5 5 576.12 564.98 89.55 o
2 5 5 23718.40 23352.60 603.35 o
3 5 5 17.12 -29.02 60.08 <
4 5 5 972.97 1004.95 123.15 o
5 5 5 11032.30 11815.40 434.38 o
-6 6 5 10889.80 10203.40 585.72 o
-5 6 5 105.21 56.20 61.80 <
-4 6 5 2287.28 2157.18 183.04 o
-3 6 5 3457.78 3184.79 158.22 o
-2 6 5 1204.54 1198.88 94.32 o
-1 6 5 14071.10 13334.60 340.50 o
0 6 5 3478.12 3389.28 207.04 o
1 6 5 655.05 800.27 112.14 o
2 6 5 2796.01 2955.73 207.86 o
3 6 5 6432.40 7086.54 344.00 o
4 6 5 126.24 279.08 92.99 o
5 6 5 1140.05 1219.44 312.30 o
-5 7 5 322.66 271.00 95.40 <
-4 7 5 1057.18 1192.45 191.89 o
-3 7 5 21.58 -10.12 57.85 <
-2 7 5 1078.32 1194.68 115.51 o
-1 7 5 1864.16 1941.55 130.22 o
0 7 5 125.78 189.15 67.40 <
1 7 5 13.97 73.00 67.27 <
2 7 5 277.36 248.79 71.73 o
3 7 5 1207.28 1225.61 152.68 o
4 7 5 1541.62 1374.67 246.31 o
-4 8 5 5313.77 4276.43 514.76 o
-3 8 5 194.99 202.52 77.20 <
-2 8 5 5781.69 6167.25 420.37 o
-1 8 5 718.82 613.41 91.78 o
0 8 5 31.05 116.85 75.04 <
1 8 5 1184.14 1196.27 153.83 o
2 8 5 1140.69 1199.32 149.18 o
3 8 5 417.96 42.45 119.14 <
-2 9 5 485.62 517.18 135.56 o
-1 9 5 19926.30 18958.70 817.77 o
0 9 5 0.17 52.25 67.59 <
1 9 5 52.25 129.90 89.74 <
-7 0 6 13996.60 14184.70 952.45 o
-6 0 6 2695.91 2633.88 367.36 o
-5 0 6 14208.10 14177.60 432.02 o
-4 0 6 63494.40 62516.80 1370.72 o
-3 0 6 18.91 23.04 41.37 <
-2 0 6 4470.82 4464.43 365.26 o
-1 0 6 35703.60 37164.20 1328.97 o
0 0 6 3114.30 3022.18 201.44 o
1 0 6 29.53 26.54 44.36 <
2 0 6 16729.80 14922.20 478.74 o
3 0 6 6330.27 6378.04 247.51 o
4 0 6 4381.33 4531.26 254.13 o
5 0 6 202.66 331.78 148.55 <
6 0 6 3945.36 3716.03 534.81 o
-7 1 6 960.46 1070.06 181.32 o
-6 1 6 31.12 -24.63 62.63 <
-5 1 6 26.13 -8.08 36.72 <
-4 1 6 771.86 855.83 78.60 o
-3 1 6 347.67 371.37 94.26 o
-2 1 6 23.07 24.95 32.46 <
-1 1 6 4354.15 4321.17 156.44 o
0 1 6 735.52 575.54 83.50 o
1 1 6 30.13 -6.36 43.15 <
2 1 6 371.18 229.18 52.13 o
3 1 6 3097.49 3110.20 133.85 o
4 1 6 1751.41 1796.31 138.81 o
5 1 6 234.11 352.91 78.41 o
6 1 6 1222.68 1208.49 216.14 o
-7 2 6 249.93 388.55 117.81 o
-6 2 6 7.02 70.52 50.02 <
-5 2 6 384.57 314.79 52.44 o
-4 2 6 1889.37 1889.43 149.06 o
-3 2 6 126.61 95.79 44.30 <
-2 2 6 4272.36 4470.67 187.43 o
-1 2 6 3613.57 3488.69 240.51 o
0 2 6 112.98 117.30 63.64 <
1 2 6 1559.69 1531.81 112.84 o
2 2 6 26.60 66.25 44.81 <
3 2 6 121.65 129.26 44.62 <
4 2 6 10635.70 10419.00 322.42 o
5 2 6 963.64 1030.22 122.26 o
-8 3 6 1126.74 1147.14 277.81 o
-7 3 6 5777.50 5465.95 319.75 o
-6 3 6 30.05 -43.92 49.20 <
-5 3 6 607.48 647.46 89.55 o
-4 3 6 25702.50 25557.90 556.77 o
-3 3 6 24.25 66.06 42.39 <
-2 3 6 1.78 -34.30 44.55 <
-1 3 6 4111.79 3837.47 217.09 o
0 3 6 0.71 -29.40 58.74 <
1 3 6 709.29 674.32 91.58 o
2 3 6 7138.55 7420.23 232.37 o
3 3 6 4373.38 4490.27 199.65 o
4 3 6 3.35 42.64 63.90 <
5 3 6 1255.94 1252.34 156.38 o
6 3 6 1204.65 1407.25 251.21 o
-7 4 6 14502.80 14522.20 555.43 o
-6 4 6 4403.57 4340.71 278.45 o
-5 4 6 449.52 439.21 66.45 o
-4 4 6 55750.80 54732.90 847.37 o
-3 4 6 659.67 674.51 73.83 o
-2 4 6 1735.04 1649.87 112.27 o
-1 4 6 37495.70 36553.60 710.98 o
0 4 6 388.35 446.28 76.69 o
1 4 6 6376.60 6442.45 272.65 o
2 4 6 26662.20 26364.70 753.75 o
3 4 6 1756.48 1799.18 150.33 o
4 4 6 4.09 4.90 49.58 <
5 4 6 4709.66 4835.87 311.92 o
-7 5 6 5152.17 4865.40 549.32 o
-6 5 6 33.15 98.78 64.41 <
-5 5 6 401.17 447.30 87.07 o
-4 5 6 1063.56 1067.83 96.36 o
-3 5 6 2028.47 2002.97 115.13 o
-2 5 6 434.76 380.15 53.78 o
-1 5 6 8287.96 7931.55 287.93 o
0 5 6 3332.83 3747.09 260.75 o
1 5 6 692.78 443.99 127.74 o
2 5 6 4.12 51.62 61.93 <
3 5 6 305.79 320.13 85.22 o
4 5 6 4490.37 4562.64 295.06 o
-6 6 6 17.19 252.23 159.05 <
-5 6 6 3652.24 3629.67 328.41 o
-4 6 6 1724.55 1674.56 169.74 o
-3 6 6 0.36 28.13 47.73 <
-2 6 6 1294.09 1265.51 106.35 o
-1 6 6 2045.16 1681.31 166.18 o
0 6 6 0.69 55.37 68.99 <
1 6 6 1292.35 1292.56 145.17 o
2 6 6 452.21 388.30 83.69 o
3 6 6 88.33 75.16 66.45 <
4 6 6 14839.40 14771.40 813.89 o
-5 7 6 412.89 403.00 125.76 o
-4 7 6 9526.20 8820.99 523.61 o
-3 7 6 883.49 825.22 124.74 o
-2 7 6 937.74 866.78 105.21 o
-1 7 6 380.60 416.87 85.48 o
0 7 6 1457.05 1571.96 155.74 o
1 7 6 1365.44 1434.62 159.75 o
2 7 6 1072.27 1166.67 146.96 o
3 7 6 6193.10 5848.96 496.68 o
-4 8 6 9632.99 9181.54 767.30 o
-3 8 6 1903.57 1861.29 192.40 o
-2 8 6 860.84 1061.91 175.34 o
-1 8 6 4112.31 3964.06 235.61 o
0 8 6 5084.76 4307.23 290.28 o
1 8 6 1787.44 1789.69 183.55 o
2 8 6 5466.57 5485.62 696.21 o
0 9 6 2549.49 2428.62 264.76 o
-7 0 7 7109.33 7973.94 708.30 o
-6 0 7 535.97 714.35 197.36 o
-5 0 7 305.13 325.03 147.78 <
-4 0 7 31898.20 33007.80 1335.97 o
-3 0 7 2667.32 2860.52 324.65 o
-2 0 7 436.07 492.42 134.67 o
-1 0 7 377.25 144.09 121.69 <
0 0 7 11514.40 11495.00 439.66 o
1 0 7 1133.24 1114.04 120.99 o
2 0 7 53.47 75.36 53.21 <
3 0 7 948.66 853.41 108.26 o
4 0 7 1774.39 1833.86 169.80 o
5 0 7 0.63 23.80 96.61 <
-7 1 7 1158.80 1600.35 221.36 o
-6 1 7 2001.08 1724.65 210.85 o
-5 1 7 3354.63 3331.24 211.75 o
-4 1 7 1.52 62.18 60.40 <
-3 1 7 1910.52 2146.36 200.35 o
-2 1 7 437.61 531.69 78.73 o
-1 1 7 470.30 490.89 75.29 o
0 1 7 2151.48 2171.69 130.85 o
1 1 7 6362.33 6347.11 254.52 o
2 1 7 11.18 64.92 46.84 <
3 1 7 166.48 85.41 36.85 <
4 1 7 375.95 375.25 78.67 o
5 1 7 82.98 149.25 87.83 <
-7 2 7 16572.30 16907.00 754.83 o
-6 2 7 1808.96 1780.08 171.97 o
-5 2 7 200.30 205.13 66.95 o
-4 2 7 968.01 972.37 110.30 o
-3 2 7 2971.06 3179.44 240.32 o
-2 2 7 90.27 98.08 57.98 <
-1 2 7 7314.47 7461.09 390.78 o
0 2 7 605.85 720.21 107.88 o
1 2 7 326.45 363.29 68.10 o
2 2 7 9.51 53.40 42.51 <
3 2 7 5043.64 4896.90 215.63 o
4 2 7 12.44 39.71 72.17 <
5 2 7 85.14 55.50 71.28 <
-7 3 7 680.74 483.38 116.72 o
-6 3 7 2241.28 2311.39 173.81 o
-5 3 7 471.55 513.87 93.11 o
-4 3 7 6625.62 6291.36 291.56 o
-3 3 7 3205.10 3163.66 194.05 o
-2 3 7 15055.60 16190.70 588.21 o
-1 3 7 4246.30 3984.11 240.90 o
0 3 7 1231.25 1138.73 120.10 o
1 3 7 59652.70 53397.00 993.88 o
2 3 7 2779.42 2569.15 161.21 o
3 3 7 1126.89 998.72 119.02 o
4 3 7 16127.60 15364.80 481.15 o
5 3 7 1239.45 1118.24 171.27 o
-7 4 7 529.82 561.47 143.71 o
-6 4 7 512.28 438.32 76.82 o
-5 4 7 453.79 489.30 77.14 o
-4 4 7 8590.23 8327.68 276.92 o
-3 4 7 476.23 456.84 68.86 o
-2 4 7 813.68 657.90 89.42 o
-1 4 7 1143.82 1083.36 116.53 o
0 4 7 196.64 183.04 56.26 o
1 4 7 1688.92 1686.97 186.67 o
2 4 7 484.35 622.32 106.61 o
3 4 7 1335.41 1200.34 129.45 o
4 4 7 2406.21 2146.61 183.55 o
-7 5 7 1605.09 1434.11 308.42 o
-6 5 7 2084.32 1855.63 190.81 o
-5 5 7 2517.33 2515.56 180.88 o
-4 5 7 491.00 460.09 68.16 o
-3 5 7 1049.13 987.90 98.20 o
-2 5 7 2989.82 3074.68 186.10 o
-1 5 7 1442.85 1300.01 157.46 o
0 5 7 543.34 588.97 123.03 o
1 5 7 2.80 -24.82 74.85 <
2 5 7 108.08 -52.89 67.21 <
3 5 7 13.23 -113.67 77.07 <
4 5 7 6344.57 5987.65 356.16 o
-5 6 7 19.50 -34.94 90.57 <
-4 6 7 1535.29 1407.89 135.63 o
-3 6 7 527.06 509.54 73.38 o
-2 6 7 194.99 340.63 75.67 o
-1 6 7 337.75 593.93 122.52 o
0 6 7 2926.91 3248.82 271.00 o
1 6 7 384.01 390.40 94.39 o
2 6 7 188.89 84.20 93.94 <
3 6 7 67.66 -2.29 74.40 <
4 6 7 3.37 -144.47 192.21 <
-5 7 7 1070.34 942.96 255.92 o
-4 7 7 1946.97 1768.75 191.70 o
-3 7 7 1073.70 1117.99 124.24 o
-2 7 7 1915.55 1679.02 150.01 o
-1 7 7 752.98 617.93 116.92 o
0 7 7 2519.17 2610.97 207.16 o
1 7 7 22086.90 21893.80 662.99 o
2 7 7 252.92 -53.27 71.98 <
-4 8 7 1007.27 1239.93 289.33 o
-3 8 7 1498.62 1468.48 297.48 o
-2 8 7 32.06 169.10 84.78 <
-1 8 7 960.98 804.47 129.45 o
0 8 7 223.56 175.09 77.58 <
1 8 7 7.66 68.99 111.76 <
-7 0 8 1.08 184.82 97.57 <
-6 0 8 3492.60 3969.40 470.46 o
-5 0 8 300.92 312.56 140.91 <
-4 0 8 42.43 176.87 118.00 <
-3 0 8 6350.02 7624.66 576.62 o
-2 0 8 398.85 310.01 126.40 <
-1 0 8 300.88 333.18 132.32 <
0 0 8 13543.30 13591.20 498.85 o
1 0 8 27334.70 28767.20 896.18 o
2 0 8 323.17 243.31 75.86 o
3 0 8 3898.38 3735.89 225.68 o
4 0 8 5251.63 5299.90 435.08 o
5 0 8 2475.85 2906.15 356.09 o
-7 1 8 2242.03 2526.00 289.58 o
-6 1 8 3054.09 3292.54 304.73 o
-5 1 8 118.56 104.31 57.85 <
-4 1 8 3876.22 4045.97 295.82 o
-3 1 8 6882.19 6942.19 387.85 o
-2 1 8 0.49 104.89 81.53 <
-1 1 8 24.64 113.61 84.33 <
0 1 8 19075.20 19163.50 445.32 o
1 1 8 571.94 504.20 71.47 o
2 1 8 436.26 405.35 55.82 o
3 1 8 7584.77 7825.90 240.58 o
4 1 8 255.67 284.30 68.67 o
5 1 8 2076.01 2022.32 212.13 o
-7 2 8 6223.18 6940.98 474.54 o
-6 2 8 8068.33 8011.17 373.40 o
-5 2 8 7969.49 7898.97 448.19 o
-4 2 8 11896.00 12363.80 539.96 o
-3 2 8 12798.20 13517.80 562.11 o
-2 2 8 37474.20 38041.90 1070.63 o
-1 2 8 6206.59 5447.49 352.40 o
0 2 8 1978.45 2376.69 199.53 o
1 2 8 13434.70 14093.90 381.30 o
2 2 8 1072.51 1085.53 100.05 o
3 2 8 204.33 239.05 66.00 o
4 2 8 20331.50 19036.30 561.67 o
5 2 8 294.22 259.23 105.40 <
-7 3 8 8808.54 8265.05 518.90 o
-6 3 8 4135.37 4347.39 275.65 o
-5 3 8 134.92 133.97 65.49 <
-4 3 8 762.97 925.78 143.07 o
-3 3 8 7918.72 8664.93 438.00 o
-2 3 8 479.63 637.78 137.73 o
-1 3 8 11415.70 11425.10 452.90 o
0 3 8 16009.20 15716.30 476.76 o
1 3 8 29.60 1.02 64.60 <
2 3 8 6347.10 6062.87 258.65 o
3 3 8 3656.93 3422.19 218.18 o
4 3 8 2194.21 1818.21 190.04 o
5 3 8 728.59 934.43 298.05 o
-7 4 8 393.29 510.37 135.56 o
-6 4 8 574.42 476.64 94.51 o
-5 4 8 1337.65 1442.70 139.38 o
-4 4 8 233.24 241.53 61.48 o
-3 4 8 1106.12 968.42 125.83 o
-2 4 8 599.74 677.95 106.22 o
-1 4 8 64.91 62.69 64.60 <
0 4 8 4769.79 4655.18 255.53 o
1 4 8 8900.58 7098.38 496.49 o
2 4 8 10.28 -102.09 85.41 <
3 4 8 1510.18 1232.29 137.73 o
4 4 8 752.25 674.32 131.24 o
-6 5 8 11.16 -8.27 64.66 <
-5 5 8 598.90 529.78 87.38 o
-4 5 8 2204.06 2047.58 158.79 o
-3 5 8 140.65 159.11 65.81 <
-2 5 8 1543.76 1642.23 184.70 o
-1 5 8 82.18 19.60 74.72 <
0 5 8 3425.33 3363.63 279.34 o
1 5 8 58.21 78.79 71.54 <
2 5 8 593.96 516.99 108.71 o
3 5 8 1804.08 1320.76 173.24 o
4 5 8 609.79 893.83 302.50 <
-5 6 8 1200.34 1410.88 229.38 o
-4 6 8 7659.96 7300.77 327.33 o
-3 6 8 1908.81 1710.58 156.44 o
-2 6 8 6590.75 6739.48 374.17 o
-1 6 8 1959.84 1930.48 218.30 o
0 6 8 13.67 21.45 107.88 <
1 6 8 413.38 445.45 105.65 o
2 6 8 0.47 4.26 75.23 <
3 6 8 124.42 102.98 128.75 <
-4 7 8 1945.91 2294.91 382.38 o
-3 7 8 16391.90 16545.20 612.77 o
-2 7 8 2132.81 1911.76 202.90 o
-1 7 8 115.30 105.59 85.86 <
0 7 8 25430.60 24341.80 718.93 o
1 7 8 1931.35 2041.60 205.45 o
-3 8 8 77.64 6.81 96.29 <
-2 8 8 5188.94 4379.91 516.10 o
-1 8 8 212.51 302.31 114.24 <
1 8 8 42.25 261.01 172.99 <
-7 0 9 550.75 572.42 202.77 <
-6 0 9 117.65 252.73 154.53 <
-5 0 9 8401.41 8432.88 681.51 o
-4 0 9 5187.09 5278.13 512.34 o
-3 0 9 128.28 149.50 129.96 <
-2 0 9 2444.18 2828.12 384.22 o
-1 0 9 8116.19 6764.62 598.33 o
0 0 9 1775.35 1964.53 315.04 o
1 0 9 6605.20 6493.24 310.08 o
2 0 9 12437.70 12895.90 480.77 o
3 0 9 1065.31 905.60 137.03 o
4 0 9 107.60 196.09 116.28 <
-7 1 9 1117.38 1056.95 186.29 o
-6 1 9 2312.94 2399.28 264.38 o
-5 1 9 782.74 591.07 133.53 o
-4 1 9 0.47 -104.12 89.23 <
-3 1 9 8608.74 9596.50 497.45 o
-2 1 9 1593.34 1628.29 202.84 o
-1 1 9 294.51 182.91 85.41 <
0 1 9 1341.04 1456.00 196.15 o
1 1 9 526.97 480.77 70.96 o
2 1 9 133.83 131.24 43.28 o
3 1 9 1.73 123.22 61.10 <
4 1 9 484.12 409.87 80.89 o
-7 2 9 1997.94 2050.70 364.81 o
-6 2 9 13582.50 13514.90 652.23 o
-5 2 9 3325.49 3272.49 294.29 o
-4 2 9 177.40 214.93 84.65 <
-3 2 9 20947.00 22299.60 805.36 o
-2 2 9 4715.78 5380.03 374.49 o
-1 2 9 2251.16 2215.99 243.12 o
0 2 9 6774.36 6892.49 352.08 o
1 2 9 2302.25 2374.40 154.02 o
2 2 9 5649.55 5828.41 234.72 o
3 2 9 256.47 316.51 65.62 o
4 2 9 1127.03 1081.64 138.43 o
-7 3 9 1285.11 1335.97 296.84 o
-6 3 9 6048.05 6301.93 434.82 o
-5 3 9 3.39 -35.51 78.54 <
-4 3 9 74.61 87.58 53.53 <
-3 3 9 1698.52 2372.30 249.30 o
-2 3 9 3733.14 3890.61 318.22 o
-1 3 9 587.81 530.03 110.93 o
0 3 9 3224.21 3147.69 214.61 o
1 3 9 46.19 143.65 81.40 <
2 3 9 306.15 393.52 93.69 o
3 3 9 1938.41 1770.60 165.92 o
4 3 9 2862.90 2505.57 255.85 o
-6 4 9 1212.56 957.22 139.13 o
-5 4 9 7.27 92.54 76.31 <
-4 4 9 483.87 365.13 91.46 o
-3 4 9 1242.59 1585.84 176.62 o
-2 4 9 1550.29 1812.92 162.99 o
-1 4 9 676.63 858.38 121.69 o
0 4 9 9.84 115.39 83.31 <
1 4 9 50.92 125.38 85.79 <
2 4 9 2256.23 2135.86 233.58 o
3 4 9 181.80 230.20 93.24 <
-6 5 9 8659.88 8807.88 421.46 o
-5 5 9 20.18 11.58 61.16 <
-4 5 9 1146.02 914.90 128.63 o
-3 5 9 14310.80 13588.20 470.08 o
-2 5 9 3869.75 3480.29 288.06 o
-1 5 9 424.74 308.30 104.06 <
0 5 9 2368.81 2055.41 230.08 o
1 5 9 93.09 183.23 103.36 <
2 5 9 432.48 255.15 95.21 <
3 5 9 60.13 -153.32 177.44 <
-4 6 9 2112.71 1784.16 201.31 o
-3 6 9 4935.51 5181.20 346.67 o
-2 6 9 1173.75 874.42 144.86 o
-1 6 9 182.43 85.35 94.39 <
0 6 9 1323.92 1315.16 197.24 o
1 6 9 10463.00 9749.44 456.33 o
-4 7 9 2240.73 2076.35 389.63 o
-3 7 9 53.02 -58.04 89.36 <
-2 7 9 312.91 455.19 122.39 o
-1 7 9 3190.76 2555.47 319.24 o
0 7 9 38.80 433.48 270.30 <
-6 0 10 918.65 682.91 208.18 o
-5 0 10 493.08 603.93 214.67 <
-4 0 10 2.55 -51.93 80.51 <
-3 0 10 3829.05 4202.09 496.17 o
-2 0 10 145.80 467.73 185.08 <
-1 0 10 29.05 91.52 108.39 <
0 0 10 7029.39 7255.01 637.40 o
1 0 10 261.10 373.40 112.52 o
2 0 10 45.79 232.30 98.08 <
3 0 10 1726.93 2356.13 406.63 o
4 0 10 42.66 -74.08 95.79 <
-6 1 10 799.84 817.20 151.22 o
-5 1 10 1362.49 1439.58 208.25 o
-4 1 10 1395.99 1755.07 221.74 o
-3 1 10 2276.08 2489.22 270.74 o
-2 1 10 2157.66 1772.51 228.36 o
-1 1 10 7237.38 6751.07 445.83 o
0 1 10 1360.38 1405.41 168.98 o
1 1 10 469.95 479.63 84.07 o
2 1 10 17023.20 16792.00 459.39 o
3 1 10 40.48 57.79 68.74 <
-6 2 10 712.21 807.40 171.90 o
-5 2 10 15.61 -32.90 74.46 <
-4 2 10 517.17 498.08 125.95 o
-3 2 10 2599.52 2632.67 277.49 o
-2 2 10 3457.80 3514.41 324.21 o
-1 2 10 193.74 196.73 105.27 <
0 2 10 60.77 -74.27 70.77 <
1 2 10 369.31 522.14 89.10 o
2 2 10 318.13 254.96 90.31 <
3 2 10 7287.10 7356.33 436.54 o
4 2 10 907.93 951.49 302.63 o
-6 3 10 238.45 501.39 135.63 o
-5 3 10 2901.35 2958.53 292.19 o
-4 3 10 1506.57 1511.06 209.39 o
-3 3 10 217.58 301.10 115.01 <
-2 3 10 1279.17 1281.43 198.57 o
-1 3 10 1016.64 1173.29 165.10 o
0 3 10 0.58 111.38 63.96 <
1 3 10 351.20 575.79 127.61 o
2 3 10 76.81 190.17 84.90 <
3 3 10 419.23 223.97 102.79 <
-6 4 10 5133.62 5476.45 409.75 o
-5 4 10 15.94 -59.38 49.01 <
-4 4 10 3765.06 4076.52 344.57 o
-3 4 10 135.09 256.93 113.73 <
-2 4 10 1528.49 1472.42 155.48 o
-1 4 10 3826.42 3681.92 304.54 o
0 4 10 26.19 103.74 83.12 <
1 4 10 258.97 272.34 144.16 <
2 4 10 1540.06 1652.54 213.91 o
3 4 10 1314.18 1320.06 311.48 o
-5 5 10 1017.83 786.59 131.17 o
-4 5 10 3981.78 3851.28 263.81 o
-3 5 10 3340.40 3577.92 303.65 o
-2 5 10 653.08 605.96 133.02 o
-1 5 10 15106.90 15046.90 651.85 o
0 5 10 2067.77 2169.27 247.39 o
1 5 10 1342.39 1576.29 213.97 o
-5 6 10 9.40 -181.01 86.81 <
-4 6 10 808.98 569.88 131.17 o
-3 6 10 8760.95 8688.74 586.49 o
-2 6 10 1676.54 1855.95 232.81 o
-1 6 10 894.09 786.33 161.15 o
0 6 10 4640.77 5914.77 723.58 o
-3 7 10 13.50 -67.65 101.13 <
-2 7 10 2474.25 3137.82 538.44 o
-1 7 10 515.33 19.79 127.10 <
-6 0 11 3398.45 3449.11 483.51 o
-5 0 11 6969.26 7971.65 726.00 o
-4 0 11 8141.69 9245.50 784.17 o
-3 0 11 4585.27 5420.76 592.41 o
-2 0 11 27577.60 23680.50 1344.94 o
-1 0 11 14284.90 13523.10 963.52 o
0 0 11 1740.76 2097.54 351.70 o
1 0 11 4038.78 4086.77 345.97 o
2 0 11 1852.62 1777.03 246.12 o
3 0 11 50.97 324.52 151.03 <
-6 1 11 1491.83 1388.99 227.21 o
-5 1 11 6637.66 6647.52 467.60 o
-4 1 11 245.77 249.04 110.04 <
-3 1 11 1.72 124.93 106.73 <
-2 1 11 6190.08 5785.13 445.32 o
-1 1 11 7.90 120.03 114.82 <
0 1 11 448.93 608.45 117.81 o
1 1 11 4257.27 4609.23 265.02 o
2 1 11 0.29 -56.39 57.66 <
3 1 11 1706.53 1728.34 193.80 o
-6 2 11 135.51 349.35 169.61 <
-5 2 11 18499.40 19135.20 830.69 o
-4 2 11 97.19 96.80 106.41 <
-3 2 11 280.17 342.98 135.12 <
-2 2 11 4775.19 4485.95 388.23 o
-1 2 11 1032.08 981.85 183.17 o
0 2 11 238.97 336.94 102.72 o
1 2 11 8462.48 8705.79 330.57 o
2 2 11 7527.20 7769.64 429.60 o
-5 3 11 1076.47 1161.77 204.36 o
-4 3 11 4267.05 4488.49 385.24 o
-3 3 11 66.14 166.37 111.19 <
-2 3 11 1582.34 1646.56 246.24 o
-1 3 11 5795.95 5591.39 360.61 o
0 3 11 304.75 320.64 101.71 o
1 3 11 2363.65 2375.61 238.03 o
2 3 11 2056.18 2056.94 282.52 o
-5 4 11 3.86 246.56 118.95 <
-4 4 11 10775.10 11390.00 629.07 o
-3 4 11 7218.52 8058.59 443.73 o
-2 4 11 4211.89 4536.61 348.96 o
-1 4 11 17215.90 18837.50 725.11 o
0 4 11 3230.56 3681.28 303.39 o
1 4 11 173.16 475.30 190.04 <
-5 5 11 6958.19 6772.39 784.74 o
-4 5 11 2257.11 2291.98 258.84 o
-3 5 11 0.96 41.11 68.61 <
-2 5 11 5959.06 5713.97 406.63 o
-1 5 11 713.82 800.02 147.66 o
-5 0 12 3599.59 3157.49 482.62 o
-4 0 12 2874.68 2727.50 446.40 o
-3 0 12 3672.16 3319.27 512.47 o
-2 0 12 2206.61 2055.86 400.77 o
-1 0 12 2320.12 1921.95 360.36 o
0 0 12 377.92 295.89 112.46 <
1 0 12 870.32 1013.99 184.82 o
2 0 12 27.03 -69.88 99.99 <
-5 1 12 603.14 504.26 139.57 o
-4 1 12 49.44 78.41 99.67 <
-3 1 12 2027.63 2167.81 291.17 o
-2 1 12 2107.97 2006.40 284.56 o
-1 1 12 831.34 644.21 155.17 o
0 1 12 302.31 231.41 88.72 <
1 1 12 141.35 243.00 67.78 o
2 1 12 1.68 130.35 97.57 <
-5 2 12 454.01 599.60 227.47 <
-4 2 12 2712.96 2931.86 333.88 o
-3 2 12 3210.55 2925.56 340.12 o
-2 2 12 414.67 422.98 141.23 <
-1 2 12 140.03 -30.30 98.27 <
0 2 12 15839.30 16807.00 642.05 o
1 2 12 329.64 529.65 183.30 <
2 2 12 391.98 243.57 93.75 <
-5 3 12 532.78 860.86 251.84 o
-4 3 12 980.44 1533.84 254.07 o
-3 3 12 945.59 1010.43 205.13 o
-2 3 12 197.38 314.15 95.02 o
-1 3 12 5102.36 5148.49 356.09 o
0 3 12 1737.14 2063.24 226.13 o
-5 4 12 1458.43 1123.84 273.99 o
-4 4 12 77.00 31.25 106.03 <
-3 4 12 3.49 -194.12 186.61 <
-2 4 12 504.80 788.88 300.21 <
-3 0 13 2684.39 2026.90 434.38 o
-2 0 13 733.77 804.66 271.25 <
-1 0 13 3205.60 3292.99 502.09 o
0 0 13 116.06 133.08 116.09 <
1 0 13 445.38 379.45 202.01 <
-4 1 13 2.33 -198.19 197.36 <
-3 1 13 3435.77 3320.74 374.55 o
-2 1 13 755.48 881.42 202.65 o
-1 1 13 2529.56 3024.15 338.72 o
0 1 13 718.00 609.34 156.18 o
-4 2 13 4.58 118.51 145.87 <
-3 2 13 582.92 544.42 240.83 <
-2 2 13 1825.77 2196.96 407.58 o
-1 2 13 219.19 261.26 162.29 <
0 2 13 5585.65 5464.04 601.83 o
-4 3 13 5386.69 5909.11 670.88 o
-3 3 13 5719.41 5457.42 635.88 o
-2 3 13 313.53 -65.81 101.64 <
