#------------------------------------------------------------------------------
#$Date: 2019-11-25 07:54:07 +0200 (Mon, 25 Nov 2019) $
#$Revision: 240418 $
#$URL: file:///home/coder/svn-repositories/cod/cif/4/12/97/4129760.cif $
#------------------------------------------------------------------------------
#
# This file is available in the Crystallography Open Database (COD),
# http://www.crystallography.net/
#
# All data on this site have been placed in the public domain by the
# contributors.
#
data_4129760
loop_
_publ_author_name
'Fredrickson, Rie T.'
'Guo, Yiming'
'Fredrickson, Daniel C.'
_publ_section_title
;
 Epitaxial Stabilization between Intermetallic and Carbide Domains in the
 Structures of Mn16SiC4 and Mn17Si2C4.
;
_journal_issue                   1
_journal_name_full               'Journal of the American Chemical Society'
_journal_page_first              248
_journal_page_last               256
_journal_paper_doi               10.1021/jacs.5b10355
_journal_volume                  138
_journal_year                    2016
_chemical_formula_moiety         'C4 Mn16 Si1'
_chemical_formula_structural     'C4 Mn16 Si1'
_chemical_formula_sum            'C4 Mn16 Si'
_chemical_formula_weight         955.1
_chemical_name_common            'Manganese silicon carbide'
_space_group_IT_number           12
_space_group_name_Hall           '-C 2y'
_space_group_name_H-M_alt        'C 1 2/m 1'
_symmetry_cell_setting           monoclinic
_symmetry_Int_Tables_number      12
_symmetry_space_group_name_Hall  '-C 2y'
_symmetry_space_group_name_H-M   'C 1 2/m 1'
_cell_angle_alpha                90
_cell_angle_beta                 119.12(3)
_cell_angle_gamma                90
_cell_formula_units_Z            2
_cell_length_a                   10.280(3)
_cell_length_b                   7.7913(19)
_cell_length_c                   6.3715(16)
_cell_measurement_reflns_used    796
_cell_measurement_temperature    293
_cell_measurement_theta_max      28.1990
_cell_measurement_theta_min      6.9170
_cell_volume                     445.8(2)
_diffrn_ambient_temperature      293
_diffrn_detector                 'Xcalibur, Eos'
_diffrn_detector_area_resol_mean 16.1500
_diffrn_measured_fraction_theta_full 0.98
_diffrn_measured_fraction_theta_max 0.89
_diffrn_measurement_device       'four-cycle diffractometer'
_diffrn_measurement_device_type  'Oxford Diffraction CCD'
_diffrn_measurement_method       '\w scans'
_diffrn_measurement_specimen_support Fiber
_diffrn_radiation_monochromator  graphite
_diffrn_radiation_probe          x-ray
_diffrn_radiation_source         'X-ray tube'
_diffrn_radiation_type           'Mo K\a'
_diffrn_radiation_wavelength     0.71069
_diffrn_reflns_av_R_equivalents  0.0483
_diffrn_reflns_av_unetI/netI     0.0482
_diffrn_reflns_limit_h_max       13
_diffrn_reflns_limit_h_min       -13
_diffrn_reflns_limit_k_max       10
_diffrn_reflns_limit_k_min       -10
_diffrn_reflns_limit_l_max       8
_diffrn_reflns_limit_l_min       -8
_diffrn_reflns_number            2132
_diffrn_reflns_theta_full        27.34
_diffrn_reflns_theta_max         28.91
_diffrn_reflns_theta_min         3.46
_diffrn_source                   'Enhance (Mo) X-ray Source'
_diffrn_source_current           45
_diffrn_source_power             2.5
_diffrn_source_voltage           50
_exptl_absorpt_coefficient_mu    21.837
_exptl_absorpt_correction_T_max  0.718
_exptl_absorpt_correction_T_min  0.363
_exptl_absorpt_correction_type   analytical
_exptl_absorpt_process_details
;
CrysAlisPro, Agilent Technologies,
Version 1.171.36.24 (release 03-12-2012 CrysAlis171 .NET)
(compiled Dec  3 2012,18:21:49)
Analytical numeric absorption correction using a multifaceted crystal
			model based on expressions derived by R.C. Clark & J.S. Reid.
(Clark, R. C. & Reid, J. S. (1995). Acta Cryst. A51, 887-897)
;
_exptl_crystal_colour            'metallic black'
_exptl_crystal_density_diffrn    7.113
_exptl_crystal_description       plate
_exptl_crystal_F_000             876
_exptl_crystal_size_max          0.080
_exptl_crystal_size_mid          0.042
_exptl_crystal_size_min          0.019
_refine_diff_density_max         1.08
_refine_diff_density_min         -1.04
_refine_ls_extinction_method     none
_refine_ls_goodness_of_fit_gt    1.11
_refine_ls_goodness_of_fit_ref   1.12
_refine_ls_number_constraints    0
_refine_ls_number_parameters     55
_refine_ls_number_reflns         567
_refine_ls_number_restraints     0
_refine_ls_R_factor_all          0.0466
_refine_ls_R_factor_gt           0.0265
_refine_ls_shift/su_max          0.0191
_refine_ls_shift/su_mean         0.0021
_refine_ls_structure_factor_coef Fsqd
_refine_ls_weighting_details     w=1/(\s^2^(I)+0.0001I^2^)
_refine_ls_weighting_scheme      sigma
_refine_ls_wR_factor_gt          0.0459
_refine_ls_wR_factor_ref         0.0536
_reflns_number_gt                437
_reflns_number_total             567
_reflns_threshold_expression     I>3\s(I)
_cod_data_source_file            ja5b10355_si_002.cif
_cod_data_source_block           I
_cod_depositor_comments
;
The following automatic conversions were performed:

data item '_diffrn_radiation_probe' value 'X-ray' was changed to
'x-ray' in accordance with the
/home/saulius/struct/COD-crude-data/automatic-downloads/DataCite-retrospective/ACS/depositions/lib/dictionaries/cif_core.dic
dictionary named 'cif_core.dic' version 2.4.2 last updated on
2011-04-26.

Automatic conversion script
Id: cif_fix_values 6909 2019-04-08 15:41:33Z antanas 
;
_cod_original_formula_sum        'C4 Mn16 Si1'
_cod_database_code               4129760
loop_
_space_group_symop_id
_space_group_symop_operation_xyz
1 x,y,z
2 -x,y,-z
3 -x,-y,-z
4 x,-y,z
5 x+1/2,y+1/2,z
6 -x+1/2,y+1/2,-z
7 -x+1/2,-y+1/2,-z
8 x+1/2,-y+1/2,z
loop_
_atom_site_label
_atom_site_type_symbol
_atom_site_fract_x
_atom_site_fract_y
_atom_site_fract_z
_atom_site_adp_type
_atom_site_U_iso_or_equiv
_atom_site_symmetry_multiplicity
_atom_site_occupancy
_atom_site_calc_flag
Mn1 Mn 0.38625(8) 0.23114(12) 0.04660(17) Uani 0.0061(4) 8 1 d
Mn2 Mn 0.35572(9) 0.34097(11) 0.62782(18) Uani 0.0056(4) 8 1 d
Mn3 Mn 0.5 0.16790(16) 0.5 Uani 0.0065(5) 4 1 d
Mn4 Mn 0.38147(13) 0.5 0.2834(3) Uani 0.0072(5) 4 1 d
Mn5 Mn 0.21636(12) 0.5 0.7987(2) Uani 0.0064(5) 4 1 d
Mn6 Mn 0.60728(13) 0 0.2513(3) Uani 0.0091(5) 4 1 d
Si1 Si 0.5 0.5 0 Uani 0.0045(12) 2 1 d
C1 C 0.2935(5) 0.2643(8) 0.2856(11) Uani 0.008(2) 8 1 d
loop_
_atom_site_aniso_label
_atom_site_aniso_type_symbol
_atom_site_aniso_U_11
_atom_site_aniso_U_22
_atom_site_aniso_U_33
_atom_site_aniso_U_12
_atom_site_aniso_U_13
_atom_site_aniso_U_23
Mn1 Mn 0.0048(4) 0.0081(5) 0.0036(5) -0.0005(3) 0.0007(4) 0.0001(4)
Mn2 Mn 0.0048(4) 0.0063(5) 0.0042(5) -0.0008(3) 0.0011(4) -0.0004(4)
Mn3 Mn 0.0057(6) 0.0071(6) 0.0057(7) 0 0.0020(5) 0
Mn4 Mn 0.0100(6) 0.0057(6) 0.0068(7) 0 0.0048(5) 0
Mn5 Mn 0.0056(6) 0.0051(7) 0.0067(7) 0 0.0016(5) 0
Mn6 Mn 0.0099(6) 0.0074(6) 0.0086(8) 0 0.0036(6) 0
Si1 Si 0.0041(14) 0.0052(16) 0.0028(17) 0 0.0005(13) 0
C1 C 0.005(3) 0.013(3) 0.002(3) 0.002(2) 0.000(2) 0.001(3)
loop_
_atom_type_symbol
_atom_type_scat_dispersion_real
_atom_type_scat_dispersion_imag
_atom_type_scat_source
C 0.0033 0.0016 'International Tables Vol C tables 4.2.6.8 and 6.1.1.1'
Mn 0.3368 0.7283 'International Tables Vol C tables 4.2.6.8 and 6.1.1.1'
Si 0.0817 0.0704 'International Tables Vol C tables 4.2.6.8 and 6.1.1.1'
loop_
_geom_angle_atom_site_label_1
_geom_angle_atom_site_label_2
_geom_angle_atom_site_label_3
_geom_angle_site_symmetry_1
_geom_angle_site_symmetry_3
_geom_angle
Mn1 Mn1 Mn1 2_655 7_555 156.29(5)
Mn1 Mn1 Mn2 2_655 1_554 57.95(4)
Mn1 Mn1 Mn2 2_655 2_656 60.88(5)
Mn1 Mn1 Mn3 2_655 . 106.21(4)
Mn1 Mn1 Mn4 2_655 . 113.23(5)
Mn1 Mn1 Mn5 2_655 1_554 104.90(6)
Mn1 Mn1 Mn5 2_655 6_546 131.62(5)
Mn1 Mn1 Mn6 2_655 . 58.95(5)
Mn1 Mn1 Mn6 2_655 2_655 60.69(5)
Mn1 Mn1 Si1 2_655 . 57.41(3)
Mn1 Mn1 C1 2_655 . 152.25(13)
Mn1 Mn1 C1 2_655 7_555 102.7(2)
Mn1 Mn1 Mn2 7_555 1_554 98.45(5)
Mn1 Mn1 Mn2 7_555 2_656 136.04(6)
Mn1 Mn1 Mn3 7_555 . 97.41(6)
Mn1 Mn1 Mn4 7_555 . 73.53(5)
Mn1 Mn1 Mn5 7_555 1_554 56.98(4)
Mn1 Mn1 Mn5 7_555 6_546 63.71(4)
Mn1 Mn1 Mn6 7_555 . 138.97(6)
Mn1 Mn1 Mn6 7_555 2_655 108.44(5)
Mn1 Mn1 Si1 7_555 . 113.41(4)
Mn1 Mn1 C1 7_555 . 49.43(12)
Mn1 Mn1 C1 7_555 7_555 54.6(2)
Mn2 Mn1 Mn2 1_554 2_656 105.70(6)
Mn2 Mn1 Mn3 1_554 . 161.40(5)
Mn2 Mn1 Mn4 1_554 . 107.20(5)
Mn2 Mn1 Mn5 1_554 1_554 55.77(5)
Mn2 Mn1 Mn5 1_554 6_546 138.78(5)
Mn2 Mn1 Mn6 1_554 . 111.09(6)
Mn2 Mn1 Mn6 1_554 2_655 62.12(4)
Mn2 Mn1 Si1 1_554 . 56.24(3)
Mn2 Mn1 C1 1_554 . 141.69(15)
Mn2 Mn1 C1 1_554 7_555 49.1(2)
Mn2 Mn1 Mn3 2_656 . 55.78(4)
Mn2 Mn1 Mn4 2_656 . 64.52(4)
Mn2 Mn1 Mn5 2_656 1_554 109.37(5)
Mn2 Mn1 Mn5 2_656 6_546 112.55(5)
Mn2 Mn1 Mn6 2_656 . 62.52(4)
Mn2 Mn1 Mn6 2_656 2_655 115.25(5)
Mn2 Mn1 Si1 2_656 . 57.30(3)
Mn2 Mn1 C1 2_656 . 91.56(13)
Mn2 Mn1 C1 2_656 7_555 152.9(2)
Mn3 Mn1 Mn4 . . 68.30(5)
Mn3 Mn1 Mn5 . 1_554 128.03(6)
Mn3 Mn1 Mn5 . 6_546 58.23(4)
Mn3 Mn1 Mn6 . . 60.90(5)
Mn3 Mn1 Mn6 . 2_655 121.19(5)
Mn3 Mn1 Si1 . . 108.13(4)
Mn3 Mn1 C1 . . 49.61(13)
Mn3 Mn1 C1 . 7_555 149.3(2)
Mn4 Mn1 Mn5 . 1_554 61.49(5)
Mn4 Mn1 Mn5 . 6_546 102.70(6)
Mn4 Mn1 Mn6 . . 120.63(5)
Mn4 Mn1 Mn6 . 2_655 169.20(6)
Mn4 Mn1 Si1 . . 62.13(4)
Mn4 Mn1 C1 . . 49.99(17)
Mn4 Mn1 C1 . 7_555 109.15(19)
Mn5 Mn1 Mn5 1_554 6_546 120.69(6)
Mn5 Mn1 Mn6 1_554 . 163.73(7)
Mn5 Mn1 Mn6 1_554 2_655 110.19(6)
Mn5 Mn1 Si1 1_554 . 58.86(4)
Mn5 Mn1 C1 1_554 . 86.43(16)
Mn5 Mn1 C1 1_554 7_555 51.01(18)
Mn5 Mn1 Mn6 6_546 . 75.35(5)
Mn5 Mn1 Mn6 6_546 2_655 87.44(5)
Mn5 Mn1 Si1 6_546 . 163.82(6)
Mn5 Mn1 C1 6_546 . 53.10(17)
Mn5 Mn1 C1 6_546 7_555 94.5(2)
Mn6 Mn1 Mn6 . 2_655 65.20(5)
Mn6 Mn1 Si1 . . 106.67(4)
Mn6 Mn1 C1 . . 107.21(15)
Mn6 Mn1 C1 . 7_555 130.22(19)
Mn6 Mn1 Si1 2_655 . 108.12(5)
Mn6 Mn1 C1 2_655 . 139.38(17)
Mn6 Mn1 C1 2_655 7_555 65.8(2)
Si1 Mn1 C1 . . 112.11(17)
Si1 Mn1 C1 . 7_555 95.94(19)
C1 Mn1 C1 . 7_555 104.0(2)
Mn1 Mn2 Mn1 1_556 2_656 61.17(5)
Mn1 Mn2 Mn2 1_556 7_556 96.56(6)
Mn1 Mn2 Mn2 1_556 4_565 108.68(5)
Mn1 Mn2 Mn3 1_556 . 111.37(4)
Mn1 Mn2 Mn4 1_556 . 165.68(4)
Mn1 Mn2 Mn4 1_556 2_656 108.09(5)
Mn1 Mn2 Mn5 1_556 . 62.54(5)
Mn1 Mn2 Mn6 1_556 5_455 127.74(6)
Mn1 Mn2 Mn6 1_556 2_656 58.39(5)
Mn1 Mn2 Si1 1_556 1_556 58.04(4)
Mn1 Mn2 C1 1_556 . 142.85(19)
Mn1 Mn2 C1 1_556 7_556 48.60(15)
Mn1 Mn2 Mn2 2_656 7_556 125.12(5)
Mn1 Mn2 Mn2 2_656 4_565 109.28(4)
Mn1 Mn2 Mn3 2_656 . 61.91(4)
Mn1 Mn2 Mn4 2_656 . 110.01(6)
Mn1 Mn2 Mn4 2_656 2_656 57.81(4)
Mn1 Mn2 Mn5 2_656 . 113.20(6)
Mn1 Mn2 Mn6 2_656 5_455 169.37(6)
Mn1 Mn2 Mn6 2_656 2_656 60.46(4)
Mn1 Mn2 Si1 2_656 1_556 59.18(4)
Mn1 Mn2 C1 2_656 . 115.16(16)
Mn1 Mn2 C1 2_656 7_556 105.21(15)
Mn2 Mn2 Mn2 7_556 4_565 125.56(4)
Mn2 Mn2 Mn3 7_556 . 86.81(5)
Mn2 Mn2 Mn4 7_556 . 97.75(5)
Mn2 Mn2 Mn4 7_556 2_656 149.42(7)
Mn2 Mn2 Mn5 7_556 . 93.75(5)
Mn2 Mn2 Mn6 7_556 5_455 62.62(4)
Mn2 Mn2 Mn6 7_556 2_656 65.21(4)
Mn2 Mn2 Si1 7_556 1_556 150.31(7)
Mn2 Mn2 C1 7_556 . 53.25(18)
Mn2 Mn2 C1 7_556 7_556 53.34(17)
Mn2 Mn2 Mn3 4_565 . 123.86(6)
Mn2 Mn2 Mn4 4_565 . 62.05(4)
Mn2 Mn2 Mn4 4_565 2_656 63.42(3)
Mn2 Mn2 Mn5 4_565 . 60.40(4)
Mn2 Mn2 Mn6 4_565 5_455 63.75(3)
Mn2 Mn2 Mn6 4_565 2_656 165.78(6)
Mn2 Mn2 Si1 4_565 1_556 59.43(3)
Mn2 Mn2 C1 4_565 . 107.02(18)
Mn2 Mn2 C1 4_565 7_556 113.73(19)
Mn3 Mn2 Mn4 . . 69.90(5)
Mn3 Mn2 Mn4 . 2_656 67.75(4)
Mn3 Mn2 Mn5 . . 173.91(6)
Mn3 Mn2 Mn6 . 5_455 114.25(6)
Mn3 Mn2 Mn6 . 2_656 62.00(5)
Mn3 Mn2 Si1 . 1_556 115.37(4)
Mn3 Mn2 C1 . . 53.28(16)
Mn3 Mn2 C1 . 7_556 122.15(19)
Mn4 Mn2 Mn4 . 2_656 58.53(5)
Mn4 Mn2 Mn5 . . 115.98(5)
Mn4 Mn2 Mn6 . 5_455 59.98(5)
Mn4 Mn2 Mn6 . 2_656 129.16(6)
Mn4 Mn2 Si1 . 1_556 108.07(4)
Mn4 Mn2 C1 . . 49.90(19)
Mn4 Mn2 C1 . 7_556 143.72(15)
Mn4 Mn2 Mn5 2_656 . 113.38(5)
Mn4 Mn2 Mn6 2_656 5_455 111.67(5)
Mn4 Mn2 Mn6 2_656 2_656 112.84(4)
Mn4 Mn2 Si1 2_656 1_556 60.14(4)
Mn4 Mn2 C1 2_656 . 96.70(19)
Mn4 Mn2 C1 2_656 7_556 155.90(16)
Mn5 Mn2 Mn6 . 5_455 71.22(5)
Mn5 Mn2 Mn6 . 2_656 112.78(6)
Mn5 Mn2 Si1 . 1_556 62.10(4)
Mn5 Mn2 C1 . . 131.32(16)
Mn5 Mn2 C1 . 7_556 54.35(19)
Mn6 Mn2 Mn6 5_455 2_656 127.84(4)
Mn6 Mn2 Si1 5_455 1_556 118.56(5)
Mn6 Mn2 C1 5_455 . 62.18(16)
Mn6 Mn2 C1 5_455 7_556 85.26(15)
Mn6 Mn2 Si1 2_656 1_556 106.49(5)
Mn6 Mn2 C1 2_656 . 86.85(18)
Mn6 Mn2 C1 2_656 7_556 63.48(18)
Si1 Mn2 C1 1_556 . 156.19(19)
Si1 Mn2 C1 1_556 7_556 97.07(18)
C1 Mn2 C1 . 7_556 106.6(2)
Mn1 Mn3 Mn1 . 2_656 158.00(6)
Mn1 Mn3 Mn2 . . 104.60(5)
Mn1 Mn3 Mn2 . 2_656 62.30(4)
Mn1 Mn3 Mn3 . 3_656 101.00(3)
Mn1 Mn3 Mn5 . 5_545 135.02(6)
Mn1 Mn3 Mn5 . 6_546 59.59(5)
Mn1 Mn3 Mn6 . . 61.50(4)
Mn1 Mn3 Mn6 . 2_656 131.61(4)
Mn1 Mn3 C1 . . 54.6(2)
Mn1 Mn3 C1 . 2_656 116.0(2)
Mn1 Mn3 Mn2 2_656 . 62.30(4)
Mn1 Mn3 Mn2 2_656 2_656 104.60(5)
Mn1 Mn3 Mn3 2_656 3_656 101.00(3)
Mn1 Mn3 Mn5 2_656 5_545 59.59(5)
Mn1 Mn3 Mn5 2_656 6_546 135.02(6)
Mn1 Mn3 Mn6 2_656 . 131.61(4)
Mn1 Mn3 Mn6 2_656 2_656 61.50(4)
Mn1 Mn3 C1 2_656 . 116.0(2)
Mn1 Mn3 C1 2_656 2_656 54.6(2)
Mn2 Mn3 Mn2 . 2_656 112.28(6)
Mn2 Mn3 Mn3 . 3_656 123.86(3)
Mn2 Mn3 Mn5 . 5_545 120.19(5)
Mn2 Mn3 Mn5 . 6_546 94.85(4)
Mn2 Mn3 Mn6 . . 165.87(4)
Mn2 Mn3 Mn6 . 2_656 64.90(3)
Mn2 Mn3 C1 . . 53.7(2)
Mn2 Mn3 C1 . 2_656 100.3(2)
Mn2 Mn3 Mn3 2_656 3_656 123.86(3)
Mn2 Mn3 Mn5 2_656 5_545 94.85(4)
Mn2 Mn3 Mn5 2_656 6_546 120.19(5)
Mn2 Mn3 Mn6 2_656 . 64.90(3)
Mn2 Mn3 Mn6 2_656 2_656 165.87(4)
Mn2 Mn3 C1 2_656 . 100.3(2)
Mn2 Mn3 C1 2_656 2_656 53.7(2)
Mn3 Mn3 Mn5 3_656 5_545 58.19(3)
Mn3 Mn3 Mn5 3_656 6_546 58.19(3)
Mn3 Mn3 Mn6 3_656 . 60.69(3)
Mn3 Mn3 Mn6 3_656 2_656 60.69(3)
Mn3 Mn3 C1 3_656 . 111.73(17)
Mn3 Mn3 C1 3_656 2_656 111.73(17)
Mn5 Mn3 Mn5 5_545 6_546 116.39(6)
Mn5 Mn3 Mn6 5_545 . 73.88(5)
Mn5 Mn3 Mn6 5_545 2_656 76.21(5)
Mn5 Mn3 C1 5_545 . 164.8(2)
Mn5 Mn3 C1 5_545 2_656 54.91(17)
Mn5 Mn3 Mn6 6_546 . 76.21(5)
Mn5 Mn3 Mn6 6_546 2_656 73.88(5)
Mn5 Mn3 C1 6_546 . 54.91(17)
Mn5 Mn3 C1 6_546 2_656 164.8(2)
Mn6 Mn3 Mn6 . 2_656 121.38(6)
Mn6 Mn3 C1 . . 112.4(2)
Mn6 Mn3 C1 . 2_656 89.0(2)
Mn6 Mn3 C1 2_656 . 89.0(2)
Mn6 Mn3 C1 2_656 2_656 112.4(2)
C1 Mn3 C1 . 2_656 136.5(3)
Mn1 Mn4 Mn1 . 4_565 107.61(7)
Mn1 Mn4 Mn2 . . 98.17(4)
Mn1 Mn4 Mn2 . 2_656 57.66(4)
Mn1 Mn4 Mn2 . 3_666 100.80(6)
Mn1 Mn4 Mn2 . 4_565 153.97(6)
Mn1 Mn4 Mn4 . 2_656 109.74(4)
Mn1 Mn4 Mn5 . 1_554 61.01(4)
Mn1 Mn4 Mn6 . 5_455 105.53(4)
Mn1 Mn4 Si1 . . 56.89(4)
Mn1 Mn4 C1 . . 54.2(2)
Mn1 Mn4 C1 . 4_565 149.32(16)
Mn1 Mn4 Mn2 4_565 . 153.97(6)
Mn1 Mn4 Mn2 4_565 2_656 100.80(6)
Mn1 Mn4 Mn2 4_565 3_666 57.66(4)
Mn1 Mn4 Mn2 4_565 4_565 98.17(4)
Mn1 Mn4 Mn4 4_565 2_656 109.74(4)
Mn1 Mn4 Mn5 4_565 1_554 61.01(4)
Mn1 Mn4 Mn6 4_565 5_455 105.53(4)
Mn1 Mn4 Si1 4_565 . 56.89(4)
Mn1 Mn4 C1 4_565 . 149.32(16)
Mn1 Mn4 C1 4_565 4_565 54.2(2)
Mn2 Mn4 Mn2 . 2_656 95.89(5)
Mn2 Mn4 Mn2 . 3_666 121.47(6)
Mn2 Mn4 Mn2 . 4_565 55.90(5)
Mn2 Mn4 Mn4 . 2_656 63.10(5)
Mn2 Mn4 Mn5 . 1_554 133.40(5)
Mn2 Mn4 Mn6 . 5_455 62.90(6)
Mn2 Mn4 Si1 . . 147.03(4)
Mn2 Mn4 C1 . . 49.6(2)
Mn2 Mn4 C1 . 4_565 101.0(2)
Mn2 Mn4 Mn2 2_656 3_666 53.17(4)
Mn2 Mn4 Mn2 2_656 4_565 121.47(6)
Mn2 Mn4 Mn4 2_656 2_656 58.37(5)
Mn2 Mn4 Mn5 2_656 1_554 103.96(7)
Mn2 Mn4 Mn6 2_656 5_455 152.39(3)
Mn2 Mn4 Si1 2_656 . 53.63(4)
Mn2 Mn4 C1 2_656 . 89.30(17)
Mn2 Mn4 C1 2_656 4_565 142.12(16)
Mn2 Mn4 Mn2 3_666 4_565 95.89(5)
Mn2 Mn4 Mn4 3_666 2_656 58.37(5)
Mn2 Mn4 Mn5 3_666 1_554 103.96(7)
Mn2 Mn4 Mn6 3_666 5_455 152.39(3)
Mn2 Mn4 Si1 3_666 . 53.63(4)
Mn2 Mn4 C1 3_666 . 142.12(16)
Mn2 Mn4 C1 3_666 4_565 89.30(17)
Mn2 Mn4 Mn4 4_565 2_656 63.10(5)
Mn2 Mn4 Mn5 4_565 1_554 133.40(5)
Mn2 Mn4 Mn6 4_565 5_455 62.90(6)
Mn2 Mn4 Si1 4_565 . 147.03(4)
Mn2 Mn4 C1 4_565 . 101.0(2)
Mn2 Mn4 C1 4_565 4_565 49.6(2)
Mn4 Mn4 Mn5 2_656 1_554 159.74(9)
Mn4 Mn4 Mn6 2_656 5_455 118.15(9)
Mn4 Mn4 Si1 2_656 . 102.56(7)
Mn4 Mn4 C1 2_656 . 100.26(14)
Mn4 Mn4 C1 2_656 4_565 100.26(14)
Mn5 Mn4 Mn6 1_554 5_455 82.11(6)
Mn5 Mn4 Si1 1_554 . 57.18(6)
Mn5 Mn4 C1 1_554 . 88.51(17)
Mn5 Mn4 C1 1_554 4_565 88.51(17)
Mn6 Mn4 Si1 5_455 . 139.30(6)
Mn6 Mn4 C1 5_455 . 63.69(18)
Mn6 Mn4 C1 5_455 4_565 63.69(18)
Si1 Mn4 C1 . . 111.0(2)
Si1 Mn4 C1 . 4_565 111.0(2)
C1 Mn4 C1 . 4_565 127.2(3)
Mn1 Mn5 Mn1 1_556 6_556 127.06(7)
Mn1 Mn5 Mn1 1_556 7_556 59.31(4)
Mn1 Mn5 Mn1 1_556 4_566 102.17(5)
Mn1 Mn5 Mn2 1_556 . 61.69(4)
Mn1 Mn5 Mn2 1_556 4_565 107.13(6)
Mn1 Mn5 Mn3 1_556 5_455 160.62(4)
Mn1 Mn5 Mn3 1_556 7_556 97.07(4)
Mn1 Mn5 Mn4 1_556 1_556 57.50(4)
Mn1 Mn5 Si1 1_556 1_556 56.54(3)
Mn1 Mn5 C1 1_556 6_556 147.41(13)
Mn1 Mn5 C1 1_556 7_556 47.90(13)
Mn1 Mn5 Mn1 6_556 7_556 91.33(7)
Mn1 Mn5 Mn1 6_556 4_566 59.31(4)
Mn1 Mn5 Mn2 6_556 . 163.71(6)
Mn1 Mn5 Mn2 6_556 4_565 104.67(4)
Mn1 Mn5 Mn3 6_556 5_455 62.18(4)
Mn1 Mn5 Mn3 6_556 7_556 106.70(6)
Mn1 Mn5 Mn4 6_556 1_556 72.71(5)
Mn1 Mn5 Si1 6_556 1_556 113.41(4)
Mn1 Mn5 C1 6_556 6_556 55.0(2)
Mn1 Mn5 C1 6_556 7_556 144.8(2)
Mn1 Mn5 Mn1 7_556 4_566 127.06(7)
Mn1 Mn5 Mn2 7_556 . 104.67(4)
Mn1 Mn5 Mn2 7_556 4_565 163.71(6)
Mn1 Mn5 Mn3 7_556 5_455 106.70(6)
Mn1 Mn5 Mn3 7_556 7_556 62.18(4)
Mn1 Mn5 Mn4 7_556 1_556 72.71(5)
Mn1 Mn5 Si1 7_556 1_556 113.41(4)
Mn1 Mn5 C1 7_556 6_556 144.8(2)
Mn1 Mn5 C1 7_556 7_556 55.0(2)
Mn1 Mn5 Mn2 4_566 . 107.13(6)
Mn1 Mn5 Mn2 4_566 4_565 61.69(4)
Mn1 Mn5 Mn3 4_566 5_455 97.07(4)
Mn1 Mn5 Mn3 4_566 7_556 160.62(4)
Mn1 Mn5 Mn4 4_566 1_556 57.50(4)
Mn1 Mn5 Si1 4_566 1_556 56.54(3)
Mn1 Mn5 C1 4_566 6_556 47.90(13)
Mn1 Mn5 C1 4_566 7_556 147.41(13)
Mn2 Mn5 Mn2 . 4_565 59.20(5)
Mn2 Mn5 Mn3 . 5_455 114.55(7)
Mn2 Mn5 Mn3 . 7_556 83.96(5)
Mn2 Mn5 Mn4 . 1_556 108.78(5)
Mn2 Mn5 Si1 . 1_556 57.56(4)
Mn2 Mn5 C1 . 6_556 109.7(2)
Mn2 Mn5 C1 . 7_556 51.4(2)
Mn2 Mn5 Mn3 4_565 5_455 83.96(5)
Mn2 Mn5 Mn3 4_565 7_556 114.55(7)
Mn2 Mn5 Mn4 4_565 1_556 108.78(5)
Mn2 Mn5 Si1 4_565 1_556 57.56(4)
Mn2 Mn5 C1 4_565 6_556 51.4(2)
Mn2 Mn5 C1 4_565 7_556 109.7(2)
Mn3 Mn5 Mn3 5_455 7_556 63.61(5)
Mn3 Mn5 Mn4 5_455 1_556 134.89(6)
Mn3 Mn5 Si1 5_455 1_556 139.82(5)
Mn3 Mn5 C1 5_455 6_556 51.59(12)
Mn3 Mn5 C1 5_455 7_556 113.80(13)
Mn3 Mn5 Mn4 7_556 1_556 134.89(6)
Mn3 Mn5 Si1 7_556 1_556 139.82(5)
Mn3 Mn5 C1 7_556 6_556 113.80(13)
Mn3 Mn5 C1 7_556 7_556 51.59(12)
Mn4 Mn5 Si1 1_556 1_556 59.82(5)
Mn4 Mn5 C1 1_556 6_556 102.45(16)
Mn4 Mn5 C1 1_556 7_556 102.45(16)
Si1 Mn5 C1 1_556 6_556 91.68(14)
Si1 Mn5 C1 1_556 7_556 91.68(14)
C1 Mn5 C1 6_556 7_556 152.9(3)
Mn1 Mn6 Mn1 . 2_655 60.35(4)
Mn1 Mn6 Mn1 . 3_655 114.80(6)
Mn1 Mn6 Mn1 . 4_555 84.15(5)
Mn1 Mn6 Mn2 . 5_545 156.19(7)
Mn1 Mn6 Mn2 . 2_656 57.03(3)
Mn1 Mn6 Mn2 . 3_656 139.02(6)
Mn1 Mn6 Mn2 . 8_555 108.80(4)
Mn1 Mn6 Mn3 . . 57.60(4)
Mn1 Mn6 Mn3 . 3_656 96.91(6)
Mn1 Mn6 Mn4 . 5_545 129.48(5)
Mn1 Mn6 Mn6 . 2_655 56.61(4)
Mn1 Mn6 Mn1 2_655 3_655 86.00(6)
Mn1 Mn6 Mn1 2_655 4_555 114.80(6)
Mn1 Mn6 Mn2 2_655 5_545 125.86(6)
Mn1 Mn6 Mn2 2_655 2_656 59.49(4)
Mn1 Mn6 Mn2 2_655 3_656 144.55(7)
Mn1 Mn6 Mn2 2_655 8_555 89.00(5)
Mn1 Mn6 Mn3 2_655 . 104.74(4)
Mn1 Mn6 Mn3 2_655 3_656 157.25(6)
Mn1 Mn6 Mn4 2_655 5_545 70.55(5)
Mn1 Mn6 Mn6 2_655 2_655 58.19(4)
Mn1 Mn6 Mn1 3_655 4_555 60.35(4)
Mn1 Mn6 Mn2 3_655 5_545 89.00(5)
Mn1 Mn6 Mn2 3_655 2_656 144.55(7)
Mn1 Mn6 Mn2 3_655 3_656 59.49(4)
Mn1 Mn6 Mn2 3_655 8_555 125.86(6)
Mn1 Mn6 Mn3 3_655 . 157.25(6)
Mn1 Mn6 Mn3 3_655 3_656 104.74(4)
Mn1 Mn6 Mn4 3_655 5_545 70.55(5)
Mn1 Mn6 Mn6 3_655 2_655 58.19(4)
Mn1 Mn6 Mn2 4_555 5_545 108.80(4)
Mn1 Mn6 Mn2 4_555 2_656 139.02(6)
Mn1 Mn6 Mn2 4_555 3_656 57.03(3)
Mn1 Mn6 Mn2 4_555 8_555 156.19(7)
Mn1 Mn6 Mn3 4_555 . 96.91(6)
Mn1 Mn6 Mn3 4_555 3_656 57.60(4)
Mn1 Mn6 Mn4 4_555 5_545 129.48(5)
Mn1 Mn6 Mn6 4_555 2_655 56.61(4)
Mn2 Mn6 Mn2 5_545 2_656 104.12(4)
Mn2 Mn6 Mn2 5_545 3_656 52.16(3)
Mn2 Mn6 Mn2 5_545 8_555 52.49(4)
Mn2 Mn6 Mn3 5_545 . 100.13(6)
Mn2 Mn6 Mn3 5_545 3_656 75.10(5)
Mn2 Mn6 Mn4 5_545 5_545 57.13(5)
Mn2 Mn6 Mn6 5_545 2_655 147.18(6)
Mn2 Mn6 Mn2 2_656 3_656 151.56(7)
Mn2 Mn6 Mn2 2_656 8_555 52.16(3)
Mn2 Mn6 Mn3 2_656 . 53.10(4)
Mn2 Mn6 Mn3 2_656 3_656 110.41(7)
Mn2 Mn6 Mn4 2_656 5_545 88.96(4)
Mn2 Mn6 Mn6 2_656 2_655 103.87(3)
Mn2 Mn6 Mn2 3_656 8_555 104.12(4)
Mn2 Mn6 Mn3 3_656 . 110.41(7)
Mn2 Mn6 Mn3 3_656 3_656 53.10(4)
Mn2 Mn6 Mn4 3_656 5_545 88.96(4)
Mn2 Mn6 Mn6 3_656 2_655 103.87(3)
Mn2 Mn6 Mn3 8_555 . 75.10(5)
Mn2 Mn6 Mn3 8_555 3_656 100.13(6)
Mn2 Mn6 Mn4 8_555 5_545 57.13(5)
Mn2 Mn6 Mn6 8_555 2_655 147.18(6)
Mn3 Mn6 Mn3 . 3_656 58.62(5)
Mn3 Mn6 Mn4 . 5_545 131.75(5)
Mn3 Mn6 Mn6 . 2_655 110.28(5)
Mn3 Mn6 Mn4 3_656 5_545 131.75(5)
Mn3 Mn6 Mn6 3_656 2_655 110.28(5)
Mn4 Mn6 Mn6 5_545 2_655 106.79(8)
Mn1 Si1 Mn1 . 2_655 65.18(4)
Mn1 Si1 Mn1 . 3_665 180.0(5)
Mn1 Si1 Mn1 . 4_565 114.82(4)
Mn1 Si1 Mn2 . 1_554 65.72(4)
Mn1 Si1 Mn2 . 2_656 63.52(3)
Mn1 Si1 Mn2 . 3_666 114.28(4)
Mn1 Si1 Mn2 . 4_564 116.48(3)
Mn1 Si1 Mn4 . . 60.98(3)
Mn1 Si1 Mn4 . 2_655 119.02(3)
Mn1 Si1 Mn5 . 1_554 64.60(2)
Mn1 Si1 Mn5 . 2_656 115.40(2)
Mn1 Si1 Mn1 2_655 3_665 114.82(4)
Mn1 Si1 Mn1 2_655 4_565 180.0(5)
Mn1 Si1 Mn2 2_655 1_554 63.52(3)
Mn1 Si1 Mn2 2_655 2_656 65.72(4)
Mn1 Si1 Mn2 2_655 3_666 116.48(3)
Mn1 Si1 Mn2 2_655 4_564 114.28(4)
Mn1 Si1 Mn4 2_655 . 119.02(3)
Mn1 Si1 Mn4 2_655 2_655 60.98(3)
Mn1 Si1 Mn5 2_655 1_554 115.40(2)
Mn1 Si1 Mn5 2_655 2_656 64.60(2)
Mn1 Si1 Mn1 3_665 4_565 65.18(4)
Mn1 Si1 Mn2 3_665 1_554 114.28(4)
Mn1 Si1 Mn2 3_665 2_656 116.48(3)
Mn1 Si1 Mn2 3_665 3_666 65.72(4)
Mn1 Si1 Mn2 3_665 4_564 63.52(3)
Mn1 Si1 Mn4 3_665 . 119.02(3)
Mn1 Si1 Mn4 3_665 2_655 60.98(3)
Mn1 Si1 Mn5 3_665 1_554 115.40(2)
Mn1 Si1 Mn5 3_665 2_656 64.60(2)
Mn1 Si1 Mn2 4_565 1_554 116.48(3)
Mn1 Si1 Mn2 4_565 2_656 114.28(4)
Mn1 Si1 Mn2 4_565 3_666 63.52(3)
Mn1 Si1 Mn2 4_565 4_564 65.72(4)
Mn1 Si1 Mn4 4_565 . 60.98(3)
Mn1 Si1 Mn4 4_565 2_655 119.02(3)
Mn1 Si1 Mn5 4_565 1_554 64.60(2)
Mn1 Si1 Mn5 4_565 2_656 115.40(2)
Mn2 Si1 Mn2 1_554 2_656 118.86(4)
Mn2 Si1 Mn2 1_554 3_666 180.0(5)
Mn2 Si1 Mn2 1_554 4_564 61.14(4)
Mn2 Si1 Mn4 1_554 . 113.77(4)
Mn2 Si1 Mn4 1_554 2_655 66.23(4)
Mn2 Si1 Mn5 1_554 1_554 60.34(5)
Mn2 Si1 Mn5 1_554 2_656 119.66(5)
Mn2 Si1 Mn2 2_656 3_666 61.14(4)
Mn2 Si1 Mn2 2_656 4_564 180.0(5)
Mn2 Si1 Mn4 2_656 . 66.23(4)
Mn2 Si1 Mn4 2_656 2_655 113.77(4)
Mn2 Si1 Mn5 2_656 1_554 119.66(5)
Mn2 Si1 Mn5 2_656 2_656 60.34(5)
Mn2 Si1 Mn2 3_666 4_564 118.86(4)
Mn2 Si1 Mn4 3_666 . 66.23(4)
Mn2 Si1 Mn4 3_666 2_655 113.77(4)
Mn2 Si1 Mn5 3_666 1_554 119.66(5)
Mn2 Si1 Mn5 3_666 2_656 60.34(5)
Mn2 Si1 Mn4 4_564 . 113.77(4)
Mn2 Si1 Mn4 4_564 2_655 66.23(4)
Mn2 Si1 Mn5 4_564 1_554 60.34(5)
Mn2 Si1 Mn5 4_564 2_656 119.66(5)
Mn4 Si1 Mn4 . 2_655 180.0(5)
Mn4 Si1 Mn5 . 1_554 63.00(5)
Mn4 Si1 Mn5 . 2_656 117.00(5)
Mn4 Si1 Mn5 2_655 1_554 117.00(5)
Mn4 Si1 Mn5 2_655 2_656 63.00(5)
Mn5 Si1 Mn5 1_554 2_656 180.0(5)
Mn1 C1 Mn1 . 7_555 76.0(2)
Mn1 C1 Mn2 . . 140.2(3)
Mn1 C1 Mn2 . 7_556 142.0(3)
Mn1 C1 Mn3 . . 75.8(2)
Mn1 C1 Mn4 . . 75.9(2)
Mn1 C1 Mn5 . 6_546 71.9(2)
Mn1 C1 Mn2 7_555 . 139.9(3)
Mn1 C1 Mn2 7_555 7_556 82.29(19)
Mn1 C1 Mn3 7_555 . 146.6(4)
Mn1 C1 Mn4 7_555 . 99.1(3)
Mn1 C1 Mn5 7_555 6_546 81.1(2)
Mn2 C1 Mn2 . 7_556 73.4(3)
Mn2 C1 Mn3 . . 73.00(17)
Mn2 C1 Mn4 . . 80.5(2)
Mn2 C1 Mn5 . 6_546 120.5(3)
Mn2 C1 Mn3 7_556 . 110.3(3)
Mn2 C1 Mn4 7_556 . 139.0(4)
Mn2 C1 Mn5 7_556 6_546 74.2(2)
Mn3 C1 Mn4 . . 90.9(2)
Mn3 C1 Mn5 . 6_546 73.5(2)
Mn4 C1 Mn5 . 6_546 146.7(4)
loop_
_geom_bond_atom_site_label_1
_geom_bond_atom_site_label_2
_geom_bond_site_symmetry_2
_geom_bond_distance
Mn1 Mn1 2_655 2.6785(18)
Mn1 Mn1 7_555 2.582(2)
Mn1 Mn2 1_554 2.671(2)
Mn1 Mn2 2_656 2.591(2)
Mn1 Mn3 . 2.582(2)
Mn1 Mn4 . 2.5958(17)
Mn1 Mn5 1_554 2.6922(16)
Mn1 Mn5 6_546 2.5177(18)
Mn1 Mn6 . 2.6874(18)
Mn1 Mn6 2_655 2.6405(19)
Mn1 Si1 . 2.4863(13)
Mn1 C1 . 2.170(8)
Mn1 C1 7_555 2.022(5)
Mn2 Mn2 7_556 2.4374(18)
Mn2 Mn2 4_565 2.4781(17)
Mn2 Mn3 . 2.4202(15)
Mn2 Mn4 . 2.643(2)
Mn2 Mn4 2_656 2.769(2)
Mn2 Mn5 . 2.508(2)
Mn2 Mn6 5_455 2.802(2)
Mn2 Mn6 2_656 2.7406(16)
Mn2 Si1 1_556 2.4362(18)
Mn2 C1 . 2.040(7)
Mn2 C1 7_556 2.038(7)
Mn3 Mn3 3_656 2.616(2)
Mn3 Mn5 5_545 2.482(2)
Mn3 Mn5 6_546 2.482(2)
Mn3 Mn6 . 2.6722(19)
Mn3 Mn6 2_656 2.6722(19)
Mn3 C1 . 2.029(5)
Mn3 C1 2_656 2.029(5)
Mn4 Mn4 2_656 2.648(3)
Mn4 Mn5 1_554 2.704(3)
Mn4 Mn6 5_455 2.725(3)
Mn4 Si1 . 2.624(2)
Mn4 C1 . 2.050(6)
Mn4 C1 4_565 2.050(6)
Mn5 Si1 1_556 2.551(2)
Mn5 C1 6_556 2.118(6)
Mn5 C1 7_556 2.118(6)
Mn6 Mn6 2_655 2.871(3)
loop_
_refln_index_h
_refln_index_k
_refln_index_l
_refln_F_squared_calc
_refln_F_squared_meas
_refln_F_squared_sigma
_refln_observed_status
2 0 0 52.08 85.62 33.58 <
4 0 0 64221.30 63152.50 734.35 o
6 0 0 1483.42 1502.56 108.62 o
8 0 0 57596.40 58127.70 1116.38 o
10 0 0 9122.49 9546.31 656.52 o
1 1 0 3.76 10.58 26.07 <
3 1 0 3187.88 3225.14 82.16 o
5 1 0 3445.68 3127.01 95.53 o
7 1 0 12654.80 12052.70 272.36 o
9 1 0 4901.65 4933.00 262.84 o
11 1 0 1185.34 1039.23 284.39 o
0 2 0 1427.00 1549.99 87.07 o
2 2 0 2496.82 2527.26 85.34 o
4 2 0 4686.81 4654.00 118.62 o
6 2 0 3853.22 3498.17 135.07 o
8 2 0 1357.13 1181.80 174.42 o
10 2 0 551.08 684.41 191.74 o
12 2 0 46.03 -240.52 406.38 <
1 3 0 432.60 440.15 53.49 o
3 3 0 46506.10 48394.00 672.39 o
5 3 0 87.43 105.06 70.90 <
7 3 0 2106.62 1941.45 179.33 o
9 3 0 3241.15 2929.59 278.42 o
11 3 0 8755.22 8422.52 719.91 o
0 4 0 57362.00 58173.70 1064.14 o
2 4 0 1087.86 948.50 75.81 o
4 4 0 10531.20 10329.10 297.47 o
6 4 0 19120.80 18646.10 571.47 o
8 4 0 4835.23 4281.30 278.33 o
10 4 0 17838.40 16746.00 787.84 o
1 5 0 3171.66 3119.70 138.83 o
3 5 0 64.93 5.68 69.17 <
5 5 0 0.87 -2.21 105.44 <
7 5 0 2909.91 2701.58 234.46 o
9 5 0 6262.23 5853.12 411.09 o
0 6 0 52394.30 52925.80 1140.92 o
2 6 0 75.17 43.58 88.13 <
4 6 0 170.60 142.87 121.32 <
6 6 0 6199.59 5842.44 372.99 o
8 6 0 7468.96 7355.87 452.65 o
1 7 0 4753.59 4560.78 226.09 o
3 7 0 5513.88 5505.05 336.43 o
5 7 0 9867.58 9665.61 491.42 o
7 7 0 12340.70 11134.30 561.46 o
9 7 0 80.44 -253.22 398.01 <
0 8 0 21377.90 21970.90 966.69 o
2 8 0 1037.26 746.66 172.50 o
4 8 0 5641.84 6186.10 394.35 o
6 8 0 3872.27 3069.57 373.76 o
1 9 0 1868.42 1837.36 281.79 o
3 9 0 17230.40 17706.50 688.17 o
5 9 0 5658.96 5159.57 844.12 o
2 10 0 90.28 633.14 280.54 <
-10 0 1 510.66 501.43 180.10 <
-8 0 1 11122.80 10903.90 393.10 o
-6 0 1 63898.40 62106.20 937.15 o
-4 0 1 1554.91 1422.90 82.45 o
-2 0 1 143.63 225.99 43.77 o
0 0 1 415.08 490.17 62.44 o
2 0 1 2290.98 2410.17 106.02 o
4 0 1 8430.59 8580.68 279.10 o
6 0 1 2143.05 2274.91 183.66 o
8 0 1 8948.51 9250.67 622.17 o
10 0 1 10918.90 10680.10 1138.99 o
-11 1 1 141.92 245.42 163.17 <
-9 1 1 704.56 872.88 123.14 o
-7 1 1 9811.02 10133.10 238.59 o
-5 1 1 9027.68 9097.79 187.80 o
-3 1 1 180.99 141.52 39.83 o
-1 1 1 262.59 361.45 42.52 o
1 1 1 985.49 1122.73 60.23 o
3 1 1 76628.20 78027.70 726.36 o
5 1 1 1153.86 1112.73 82.55 o
7 1 1 4396.47 4245.89 250.81 o
9 1 1 0.98 56.57 196.93 <
-12 2 1 13492.80 13287.90 861.34 o
-10 2 1 4137.43 4122.36 280.83 o
-8 2 1 3236.92 3280.36 170.57 o
-6 2 1 6385.90 6426.52 176.54 o
-4 2 1 65432.60 65315.80 607.74 o
-2 2 1 327.57 350.10 48.20 o
0 2 1 794.39 855.47 72.35 o
2 2 1 339.07 358.85 65.32 o
4 2 1 6823.08 6925.54 212.43 o
6 2 1 14593.70 14683.40 347.79 o
8 2 1 59.32 156.72 166.82 <
10 2 1 1.46 554.44 264.47 <
-11 3 1 3950.00 3843.56 326.14 o
-9 3 1 12759.10 12846.00 463.43 o
-7 3 1 19735.00 20162.50 466.12 o
-5 3 1 3962.06 3983.63 165.96 o
-3 3 1 137173.00 133462.00 1150.34 o
-1 3 1 6926.32 6757.08 170.77 o
1 3 1 18872.70 19285.20 350.77 o
3 3 1 5230.17 5064.52 199.15 o
5 3 1 51579.30 53662.30 1193.54 o
7 3 1 934.70 860.09 140.85 o
9 3 1 1341.06 1022.49 224.55 o
-12 4 1 822.92 -210.50 520.48 <
-10 4 1 1304.21 1581.54 221.66 o
-8 4 1 12598.50 12893.10 407.63 o
-6 4 1 1600.10 1712.29 142.00 o
-4 4 1 157.02 200.11 68.79 <
-2 4 1 9084.59 9005.72 165.57 o
0 4 1 48458.70 47771.20 745.99 o
2 4 1 22385.20 22822.40 392.04 o
4 4 1 22040.30 22588.30 535.49 o
6 4 1 446.92 210.12 129.59 <
8 4 1 6798.31 6808.65 486.81 o
10 4 1 8309.94 7130.27 915.89 o
-9 5 1 382.54 849.22 162.69 o
-7 5 1 5061.96 4379.04 273.32 o
-5 5 1 13807.00 13375.70 372.32 o
-3 5 1 48.95 135.84 69.37 <
-1 5 1 528.13 509.80 90.63 o
1 5 1 903.51 743.77 118.24 o
3 5 1 39831.10 40759.70 688.94 o
5 5 1 2194.25 1988.21 189.53 o
7 5 1 1117.18 874.71 184.14 o
9 5 1 473.34 329.99 229.93 <
-8 6 1 3466.76 3021.66 297.57 o
-6 6 1 14707.20 14617.80 578.97 o
-4 6 1 13646.00 14102.80 498.06 o
-2 6 1 688.85 591.19 99.67 o
0 6 1 27703.60 27608.10 545.78 o
2 6 1 12808.20 12468.00 349.81 o
4 6 1 7409.10 7508.36 347.21 o
6 6 1 1114.74 1067.13 200.59 o
8 6 1 17058.70 15959.90 968.99 o
-9 7 1 4868.27 3414.09 674.70 o
-7 7 1 7064.87 7100.73 442.07 o
-5 7 1 5.79 -47.72 151.14 <
-3 7 1 2568.82 2602.10 240.32 o
-1 7 1 3303.27 3499.04 204.05 o
1 7 1 481.30 324.60 118.72 <
3 7 1 21111.10 20960.40 681.62 o
5 7 1 699.79 808.52 182.70 o
7 7 1 3718.58 3372.34 377.42 o
-8 8 1 4998.62 6045.25 908.19 o
-6 8 1 0.04 136.13 195.40 <
-4 8 1 1725.48 1996.39 238.59 o
-2 8 1 206.02 246.77 150.85 <
0 8 1 6591.52 7309.79 396.37 o
2 8 1 3986.36 4229.83 326.14 o
4 8 1 1478.79 1638.02 287.85 o
6 8 1 816.52 514.99 481.80 <
-5 9 1 6634.92 6353.01 517.11 o
-3 9 1 9953.68 10246.20 515.38 o
-1 9 1 7204.21 7534.72 633.33 o
1 9 1 21.84 85.53 191.26 <
3 9 1 3151.93 3351.65 332.68 o
-2 10 1 1564.22 914.83 493.54 <
2 10 1 1467.93 1318.13 340.67 o
-12 0 2 14549.00 14729.70 1289.84 o
-10 0 2 1715.98 1798.78 220.31 o
-8 0 2 1410.11 1479.66 174.90 o
-6 0 2 42282.70 41797.40 582.53 o
-4 0 2 17767.60 18073.30 343.46 o
-2 0 2 1864.00 1894.41 139.88 o
0 0 2 273.61 212.71 128.92 <
2 0 2 120597.00 125819.00 1723.26 o
4 0 2 157.65 185.01 105.83 <
6 0 2 106.77 -8.66 106.50 <
8 0 2 7250.43 7250.33 604.95 o
-11 1 2 2382.90 2268.75 236.67 o
-9 1 2 675.11 690.67 101.21 o
-7 1 2 14148.40 14221.00 287.56 o
-5 1 2 10404.60 10512.00 215.89 o
-3 1 2 4848.10 4890.57 177.69 o
-1 1 2 16.83 -35.79 78.12 <
1 1 2 283.14 348.56 82.83 o
3 1 2 8.65 85.43 74.85 <
5 1 2 994.83 1110.23 110.93 o
7 1 2 1253.54 1681.69 197.22 o
9 1 2 2714.19 3028.49 387.04 o
-12 2 2 6717.66 7386.18 446.69 o
-10 2 2 4366.66 4401.27 266.49 o
-8 2 2 13376.90 13586.70 292.95 o
-6 2 2 4558.32 4513.83 122.28 o
-4 2 2 48670.80 49082.20 631.98 o
-2 2 2 14996.80 15303.70 438.51 o
0 2 2 96648.90 95858.10 1200.08 o
2 2 2 20737.90 21187.50 448.42 o
4 2 2 12730.20 12851.20 377.71 o
6 2 2 33106.80 31904.40 740.12 o
8 2 2 16882.50 15840.70 644.78 o
-11 3 2 398.04 199.24 142.19 <
-9 3 2 35787.60 37178.90 787.74 o
-7 3 2 171.21 113.52 71.00 <
-5 3 2 679.89 676.14 77.35 o
-3 3 2 3296.85 3214.56 139.60 o
-1 3 2 81097.30 79679.50 1070.01 o
1 3 2 31.98 -164.51 89.86 <
3 3 2 28.24 -146.23 123.72 <
5 3 2 19619.20 19698.50 581.76 o
7 3 2 30.79 -46.85 196.36 <
9 3 2 822.30 367.61 307.19 <
-12 4 2 634.07 951.10 297.86 o
-10 4 2 2703.54 2673.87 232.63 o
-8 4 2 6270.63 6277.49 257.55 o
-6 4 2 982.79 957.45 107.94 o
-4 4 2 3533.63 3374.26 141.13 o
-2 4 2 5265.86 5296.76 210.60 o
0 4 2 9989.92 9817.03 365.01 o
2 4 2 69.95 268.42 103.33 <
4 4 2 9.72 103.42 115.64 <
6 4 2 1881.16 1615.60 246.19 o
8 4 2 4066.13 4065.51 417.44 o
-11 5 2 2098.59 1861.50 254.76 o
-9 5 2 985.22 999.30 155.09 o
-7 5 2 12603.20 12644.10 394.83 o
-5 5 2 4535.95 4356.72 194.15 o
-3 5 2 26.37 310.17 82.35 o
-1 5 2 49.45 32.52 109.58 <
1 5 2 6727.32 6596.32 333.55 o
3 5 2 20.73 -74.27 117.85 <
5 5 2 667.50 833.73 185.49 o
7 5 2 466.71 194.15 177.50 <
-10 6 2 1080.39 1156.12 322.39 o
-8 6 2 9479.68 8901.44 480.65 o
-6 6 2 10065.20 9625.39 397.24 o
-4 6 2 63318.30 65030.90 959.57 o
-2 6 2 466.49 489.89 105.64 o
0 6 2 14332.90 14126.00 441.20 o
2 6 2 10473.80 9822.42 442.55 o
4 6 2 6708.30 6448.35 308.73 o
6 6 2 10769.90 10452.10 536.35 o
-9 7 2 218.14 -159.32 449.09 <
-7 7 2 1370.65 1377.58 246.96 o
-5 7 2 2564.45 2260.57 239.27 o
-3 7 2 11160.90 11129.10 411.19 o
-1 7 2 14.61 28.86 117.47 <
1 7 2 6142.49 6477.12 383.00 o
3 7 2 30.86 70.52 140.08 <
5 7 2 6450.82 6229.39 427.16 o
-8 8 2 51.68 -747.14 470.16 <
-6 8 2 7.26 -532.31 267.36 <
-4 8 2 17.43 -127.09 165.48 <
-2 8 2 166.55 40.41 135.36 <
0 8 2 6321.94 5834.56 440.43 o
2 8 2 523.71 462.18 180.00 <
4 8 2 63.46 -400.22 300.84 <
-5 9 2 638.78 485.94 248.98 <
-3 9 2 9554.58 10144.00 519.32 o
-1 9 2 12261.50 12561.20 672.00 o
1 9 2 6329.75 6427.19 511.24 o
3 9 2 139.86 -1714.60 549.34 <
-4 10 2 1831.60 1267.62 311.61 o
-12 0 3 27940.60 30186.80 1804.55 o
-10 0 3 1883.98 1755.97 208.38 o
-8 0 3 28573.90 28663.90 693.07 o
-6 0 3 3675.54 3804.30 263.32 o
-4 0 3 186884.00 174595.00 4366.34 o
-2 0 3 543.10 628.90 189.72 o
0 0 3 18820.30 20494.80 965.82 o
2 0 3 245.90 415.42 133.44 o
4 0 3 11935.40 12671.60 466.41 o
6 0 3 2907.79 2746.22 304.88 o
8 0 3 17.93 98.32 390.70 <
-11 1 3 93.07 139.98 133.63 <
-9 1 3 13838.70 14370.10 468.14 o
-7 1 3 1520.41 1640.23 135.84 o
-5 1 3 2365.86 2336.67 124.01 o
-3 1 3 13805.20 13353.10 381.75 o
-1 1 3 41798.00 40481.90 799.96 o
1 1 3 730.68 723.67 110.73 o
3 1 3 26206.30 28416.30 569.35 o
5 1 3 14027.00 14253.10 426.39 o
7 1 3 8412.56 8385.77 477.67 o
-12 2 3 8323.58 9256.34 467.85 o
-10 2 3 5542.14 5570.18 290.06 o
-8 2 3 2489.51 2473.67 146.33 o
-6 2 3 343.00 307.57 85.82 o
-4 2 3 8486.11 8410.40 280.73 o
-2 2 3 29413.70 28651.40 723.47 o
0 2 3 8458.96 8834.09 255.33 o
2 2 3 1691.92 2079.41 166.44 o
4 2 3 3209.98 3239.67 219.35 o
6 2 3 3836.75 4167.77 294.39 o
8 2 3 1588.15 2062.19 535.87 o
-13 3 3 255.87 -162.78 396.37 <
-11 3 3 1221.57 1334.77 216.95 o
-9 3 3 287.80 266.01 103.42 <
-7 3 3 33741.70 34885.00 553.38 o
-5 3 3 73.73 -53.68 69.08 <
-3 3 3 1543.69 1436.75 135.84 o
-1 3 3 9614.70 9274.33 372.51 o
1 3 3 81.32 119.58 99.96 <
3 3 3 4124.38 4329.30 283.81 o
5 3 3 2504.77 2581.71 251.10 o
7 3 3 2462.86 2402.38 333.64 o
-12 4 3 660.70 1072.32 223.30 o
-10 4 3 4893.64 5410.09 327.68 o
-8 4 3 3578.33 3516.45 217.91 o
-6 4 3 13361.80 13519.60 342.21 o
-4 4 3 5880.32 5509.67 296.61 o
-2 4 3 162.80 69.37 117.28 <
0 4 3 2184.02 2002.64 204.63 o
2 4 3 32549.30 32876.50 721.55 o
4 4 3 266.97 224.55 139.88 <
6 4 3 10919.70 10517.70 543.95 o
-11 5 3 2225.77 1917.11 233.78 o
-9 5 3 5258.82 5167.55 282.46 o
-7 5 3 6285.32 6340.31 280.73 o
-5 5 3 0.73 147.58 106.89 <
-3 5 3 18327.90 18297.70 519.32 o
-1 5 3 16711.10 16450.00 563.39 o
1 5 3 256.91 216.37 139.60 <
3 5 3 13222.40 13509.60 476.99 o
5 5 3 13809.00 13115.60 701.83 o
-10 6 3 704.45 285.25 222.14 <
-8 6 3 364.66 434.37 170.86 <
-6 6 3 1420.82 1703.15 176.64 o
-4 6 3 18044.10 19728.70 705.39 o
-2 6 3 8816.66 8736.25 413.50 o
0 6 3 551.27 532.98 162.21 o
2 6 3 10869.10 10922.40 512.11 o
4 6 3 2307.58 1975.89 300.26 o
6 6 3 5522.05 5025.36 523.17 o
-9 7 3 12717.90 11231.90 801.88 o
-7 7 3 1630.67 1537.38 282.65 o
-5 7 3 4000.08 3849.33 304.49 o
-3 7 3 2.15 85.43 124.68 <
-1 7 3 15284.60 15519.10 522.40 o
1 7 3 6378.48 6529.17 410.80 o
3 7 3 10425.00 10977.20 548.19 o
-8 8 3 3113.19 3390.62 745.12 o
-6 8 3 4777.11 4947.05 444.48 o
-4 8 3 3677.78 4682.19 360.68 o
-2 8 3 838.44 741.27 162.97 o
0 8 3 1815.59 1819.94 243.88 o
2 8 3 6164.57 6390.34 444.38 o
-5 9 3 321.37 214.45 198.96 <
-3 9 3 6741.06 6465.77 498.54 o
-1 9 3 1190.92 1065.87 248.41 o
1 9 3 4567.64 5258.08 582.34 o
-12 0 4 7264.97 8045.58 922.33 o
-10 0 4 22495.40 23516.60 924.84 o
-8 0 4 13584.00 13821.40 588.11 o
-6 0 4 8622.50 7792.94 416.29 o
-4 0 4 50.93 104.77 191.84 <
-2 0 4 901.02 909.44 147.68 o
0 0 4 14405.00 15006.80 625.83 o
2 0 4 33325.80 35592.30 1140.15 o
4 0 4 8942.47 9064.60 601.87 o
6 0 4 18904.00 18358.10 1482.55 o
-11 1 4 828.84 1047.11 210.40 o
-9 1 4 388.41 395.12 161.34 <
-7 1 4 52.39 -55.90 79.37 <
-5 1 4 7.96 -39.35 82.83 <
-3 1 4 6578.76 6472.98 277.75 o
-1 1 4 20828.50 20885.00 592.63 o
1 1 4 9.52 -225.89 122.28 <
3 1 4 828.28 1123.89 158.65 o
5 1 4 263.23 132.67 140.94 <
-12 2 4 7.61 105.64 153.74 <
-10 2 4 1977.01 1737.11 245.52 o
-8 2 4 2048.42 2044.20 167.88 o
-6 2 4 4.43 -87.26 101.79 <
-4 2 4 14262.00 13352.70 586.09 o
-2 2 4 3748.11 3128.84 296.99 o
0 2 4 7022.47 6739.19 264.18 o
2 2 4 8191.13 8464.37 350.39 o
4 2 4 1712.93 1688.91 170.19 o
6 2 4 74.74 384.35 188.85 <
-13 3 4 8998.45 9088.37 706.93 o
-11 3 4 7600.61 8225.20 431.01 o
-9 3 4 4.17 -22.99 117.18 <
-7 3 4 62474.80 62010.00 1001.80 o
-5 3 4 3051.64 2971.63 235.03 o
-3 3 4 2600.41 2331.47 275.73 o
-1 3 4 542.34 410.90 161.43 <
1 3 4 39247.00 41992.40 980.44 o
3 3 4 3.86 113.91 142.58 <
5 3 4 145.69 97.26 203.48 <
-12 4 4 13652.40 13799.30 609.18 o
-10 4 4 749.90 638.62 158.26 o
-8 4 4 9827.66 10232.70 385.69 o
-6 4 4 12889.90 12774.10 394.16 o
-4 4 4 42989.40 42797.20 994.97 o
-2 4 4 17667.30 17325.40 666.62 o
0 4 4 32582.20 32624.10 866.53 o
2 4 4 3961.29 4175.76 318.06 o
4 4 4 5766.96 6158.68 404.07 o
-11 5 4 276.20 509.70 172.60 <
-9 5 4 834.37 854.80 159.99 o
-7 5 4 522.01 639.29 131.61 o
-5 5 4 20.99 61.19 127.86 <
-3 5 4 5894.22 6813.75 431.97 o
-1 5 4 7792.87 7639.11 423.60 o
1 5 4 280.26 317.48 170.77 <
3 5 4 277.71 32.90 152.10 <
5 5 4 1044.54 1252.42 458.91 <
-10 6 4 23988.00 24433.60 856.82 o
-8 6 4 313.92 57.92 152.87 <
-6 6 4 55.03 -252.16 171.82 <
-4 6 4 3485.93 3306.63 321.33 o
-2 6 4 14315.20 14148.60 664.02 o
0 6 4 441.26 532.12 177.02 o
2 6 4 218.31 550.21 204.15 <
4 6 4 8276.74 8563.46 943.21 o
-9 7 4 1.05 605.14 314.40 <
-7 7 4 1885.04 1610.89 280.83 o
-5 7 4 0.55 -326.33 186.64 <
-3 7 4 40.60 -111.89 159.32 <
-1 7 4 11982.00 11257.30 555.50 o
1 7 4 1310.14 1149.09 210.69 o
-6 8 4 1640.82 2125.40 330.08 o
-4 8 4 9761.32 10095.00 518.27 o
-2 8 4 3694.06 4201.16 417.83 o
0 8 4 6264.78 6253.06 458.33 o
-5 9 4 972.86 682.88 272.36 <
-1 9 4 650.10 -241.57 450.63 <
-12 0 5 9.10 400.12 289.68 <
-10 0 5 23431.80 23570.10 1389.51 o
-8 0 5 2888.52 2562.27 292.37 o
-6 0 5 14886.20 14883.90 579.65 o
-4 0 5 1.41 167.98 225.70 <
-2 0 5 57564.40 53200.20 2089.23 o
0 0 5 823.17 885.78 219.35 o
2 0 5 3648.53 3490.77 374.92 o
4 0 5 2244.52 2108.27 354.91 o
-11 1 5 426.06 116.79 170.09 <
-9 1 5 5877.98 5641.85 349.71 o
-7 1 5 20263.70 19880.70 487.00 o
-5 1 5 7158.96 7412.73 468.14 o
-3 1 5 67.76 290.64 112.66 <
-1 1 5 2294.57 2213.43 222.04 o
1 1 5 5675.48 5706.79 319.21 o
3 1 5 8916.54 8689.59 433.22 o
5 1 5 618.64 801.02 321.43 <
-12 2 5 4461.40 4705.28 391.46 o
-10 2 5 13526.80 13680.80 621.78 o
-8 2 5 6482.93 5966.94 250.52 o
-6 2 5 7928.27 7631.12 403.88 o
-4 2 5 30153.10 28496.10 822.95 o
-2 2 5 16759.20 16790.30 780.72 o
0 2 5 331.64 337.01 145.85 <
2 2 5 17080.30 17934.60 613.51 o
4 2 5 7612.96 7854.03 397.24 o
-11 3 5 1780.89 2070.18 252.54 o
-9 3 5 419.26 613.80 153.84 o
-7 3 5 796.80 967.65 154.70 o
-5 3 5 3625.52 3638.44 371.36 o
-3 3 5 81.99 -31.27 152.78 <
-1 3 5 10055.60 10726.60 553.67 o
1 3 5 6820.43 6803.26 451.21 o
3 3 5 8430.26 8793.88 531.64 o
5 3 5 9.32 -1.44 293.05 <
-12 4 5 482.29 535.49 223.10 <
-10 4 5 221.28 326.91 139.02 <
-8 4 5 1312.61 1327.27 182.31 o
-6 4 5 398.00 404.26 157.20 <
-4 4 5 9164.22 8978.98 592.92 o
-2 4 5 70.84 159.61 166.92 <
0 4 5 7.57 381.56 151.53 <
2 4 5 654.54 545.01 210.50 <
4 4 5 9718.18 8802.44 972.17 o
-11 5 5 1941.52 2607.11 413.50 o
-9 5 5 2117.29 2173.70 217.81 o
-7 5 5 5776.71 5851.01 407.15 o
-5 5 5 1684.86 1612.81 276.40 o
-3 5 5 2389.73 2318.29 299.78 o
-1 5 5 279.99 134.59 176.06 <
1 5 5 504.00 741.85 191.07 o
3 5 5 4444.52 4377.70 475.07 o
-10 6 5 929.25 1492.55 337.69 o
-8 6 5 15059.40 16403.10 741.18 o
-6 6 5 91.55 -101.02 243.40 <
-4 6 5 2383.81 2415.94 376.46 o
-2 6 5 3457.64 3966.32 398.68 o
0 6 5 603.02 923.68 244.27 o
2 6 5 6871.64 6414.01 807.08 o
-7 7 5 22086.70 23428.90 1191.81 o
-5 7 5 7350.29 7454.77 646.12 o
-3 7 5 5404.42 5843.70 487.00 o
-1 7 5 3888.64 4044.05 433.70 o
1 7 5 10100.60 9044.69 783.89 o
-6 8 5 980.73 -452.08 423.50 <
-4 8 5 4920.65 5184.68 816.22 o
-2 8 5 217.98 -40.50 523.27 <
-12 0 6 411.96 194.91 245.23 <
-10 0 6 481.98 580.99 330.28 <
-8 0 6 16730.50 17102.60 791.11 o
-6 0 6 1643.25 1900.37 410.71 o
-4 0 6 5825.58 5838.79 680.47 o
-2 0 6 3291.08 2970.48 510.76 o
0 0 6 8.87 -270.15 161.53 <
2 0 6 48.65 -26.55 224.84 <
-11 1 6 2676.96 2761.13 372.70 o
-9 1 6 2230.76 2064.40 242.92 o
-7 1 6 1846.95 1892.58 285.64 o
-5 1 6 9872.95 9929.98 611.20 o
-3 1 6 129.57 186.06 188.76 <
-1 1 6 13356.90 13786.10 760.80 o
1 1 6 6218.67 5944.04 427.83 o
3 1 6 944.98 756.96 201.36 o
-12 2 6 7143.68 7892.80 619.96 o
-10 2 6 233.88 -21.45 196.45 <
-8 2 6 4186.29 3799.11 275.54 o
-6 2 6 14848.30 14667.40 755.90 o
-4 2 6 13734.00 12456.40 712.32 o
-2 2 6 1027.73 1213.07 283.62 o
0 2 6 887.10 493.54 218.39 <
2 2 6 4619.89 4656.12 409.74 o
-11 3 6 14453.70 14285.20 678.26 o
-9 3 6 69.78 151.04 123.43 <
-7 3 6 619.02 630.25 147.10 o
-5 3 6 11182.40 11648.40 572.24 o
-3 3 6 35.68 243.60 206.27 <
-1 3 6 1202.20 1811.19 325.37 o
1 3 6 4788.72 4605.51 492.10 o
3 3 6 7338.18 6804.03 817.85 o
-10 4 6 7051.17 7290.16 410.71 o
-8 4 6 1489.81 1535.27 211.65 o
-6 4 6 2954.71 3307.11 310.07 o
-4 4 6 6929.17 6587.28 548.76 o
-2 4 6 11215.40 10417.10 727.13 o
0 4 6 3067.58 2741.51 428.22 o
2 4 6 3308.51 3458.34 644.30 o
-9 5 6 837.37 1502.36 304.21 o
-7 5 6 4066.74 4318.14 479.40 o
-5 5 6 6568.69 6541.48 572.91 o
-3 5 6 498.56 367.03 218.97 <
-1 5 6 11441.90 11005.10 668.06 o
1 5 6 5493.64 6536.10 851.33 o
-8 6 6 4927.58 5852.45 558.00 o
-6 6 6 8584.57 8416.46 680.37 o
-4 6 6 7498.47 7385.12 631.02 o
-2 6 6 19251.10 20466.00 1089.35 o
-7 7 6 155.62 205.98 336.15 <
-5 7 6 2717.27 2766.52 582.72 o
-10 0 7 3981.60 4542.50 686.72 o
-8 0 7 165.57 203.09 250.81 <
-6 0 7 2213.24 1723.35 410.51 o
-4 0 7 130.18 -244.94 293.72 <
-2 0 7 18026.20 17608.10 1358.54 o
0 0 7 7398.14 7066.29 867.59 o
-11 1 7 4983.23 3917.92 589.17 o
-9 1 7 3647.53 3480.28 282.46 o
-7 1 7 3423.59 3469.89 404.45 o
-5 1 7 2258.02 1763.28 322.87 o
-3 1 7 840.37 679.41 255.04 <
-1 1 7 3879.47 4567.80 511.24 o
-10 2 7 1510.97 1647.83 311.61 o
-8 2 7 16391.40 16906.50 708.56 o
-6 2 7 1312.46 1587.99 328.93 o
-4 2 7 5291.73 4907.99 504.60 o
-2 2 7 10856.60 11054.70 770.04 o
-11 3 7 7119.83 8441.76 888.57 o
-9 3 7 699.86 731.65 206.75 o
-7 3 7 43.30 207.42 164.32 <
-5 3 7 3695.73 3963.14 481.52 o
-3 3 7 6746.08 5365.45 535.87 o
-1 3 7 6343.21 6583.43 814.58 o
-10 4 7 3599.12 3501.16 359.24 o
-8 4 7 16798.90 16230.40 637.47 o
-6 4 7 7579.87 7449.77 637.27 o
-4 4 7 2590.91 2533.99 404.07 o
-7 5 7 3328.03 3220.71 626.31 o
-5 5 7 141.85 -311.42 381.85 <
-8 0 8 4713.19 3794.39 643.43 o
-6 0 8 29477.70 30818.80 1892.39 o
-9 1 8 761.04 841.04 280.73 <
-7 1 8 878.97 1371.72 316.81 o
-8 2 8 55.29 179.71 216.85 <
-6 2 8 1329.50 2508.21 574.26 o
