#------------------------------------------------------------------------------
#$Date: 2019-11-26 01:48:13 +0200 (Tue, 26 Nov 2019) $
#$Revision: 242316 $
#$URL: file:///home/coder/svn-repositories/cod/cif/4/13/23/4132332.cif $
#------------------------------------------------------------------------------
#
# This file is available in the Crystallography Open Database (COD),
# http://www.crystallography.net/
#
# All data on this site have been placed in the public domain by the
# contributors.
#
data_4132332
loop_
_publ_author_name
'Mitchell Warden, Hillary E.'
'Fredrickson, Daniel C.'
_publ_section_title
;
 Frustrated and Allowed Structural Transitions: The Theory-Guided
 Discovery of the Modulated Structure of IrSi.
;
_journal_name_full               'Journal of the American Chemical Society'
_journal_paper_doi               10.1021/jacs.9b10473
_journal_year                    2019
_chemical_formula_sum            'Ir Si'
_chemical_formula_weight         220.3
_space_group_IT_number           14
_space_group_name_Hall           '-P 2xn'
_space_group_name_H-M_alt        'P 21/n 1 1'
_space_group_ssg_name            P21/n(0\b\g)00
_symmetry_cell_setting           monoclinic
_cell_angle_alpha                90
_cell_angle_beta                 90
_cell_angle_gamma                90
_cell_formula_units_Z            4
_cell_length_a                   5.5573(16)
_cell_length_b                   3.2210(11)
_cell_length_c                   6.278(2)
_cell_measurement_reflns_used    569
_cell_measurement_temperature    293
_cell_measurement_theta_max      27.0150
_cell_measurement_theta_min      4.8840
_cell_modulation_dimension       1
_cell_volume                     112.38(6)
_diffrn_ambient_temperature      293
_diffrn_detector                 'CCD plate'
_diffrn_detector_area_resol_mean 16.1500
_diffrn_measured_fraction_theta_full 0.98
_diffrn_measured_fraction_theta_max 0.96
_diffrn_measurement_details
;
List of Runs (angles in degrees, time in seconds):

  # Type    Start    End  Width  t~exp~   \w     \q     \k     \f   Frames
--------------------------------------------------------------------------
  1  \w     72.00  97.00   0.50   60.00    --    0.86-178.00-150.00   50
  2  \w    -64.00  15.00   0.50   60.00    --   -2.42  38.00 -60.00  158
  3  \w     34.00  96.00   0.50   60.00    --   -2.42  38.00 -60.00  124
  4  \w    -52.00   8.00   0.50   60.00    --   35.04 -30.00 -30.00  120
  5  \w     39.00  64.00   0.50   60.00    --   35.04 -30.00 -30.00   50
  6  \w    -26.00  65.00   0.50   60.00    --  -36.60  30.00 -90.00  182
  7  \w   -147.00-109.00   0.50   60.00    --  -36.60 -95.00-150.00   76
  8  \w    -29.00  22.00   0.50   60.00    --  -36.60 -95.00-120.00  102
  9  \w    -60.00 -29.00   0.50   60.00    --  -36.60  30.00 -90.00   62
 10  \w   -129.00 -83.00   0.50   60.00    --  -36.60-125.00 -30.00   92
 11  \w   -147.00 -82.00   0.50   60.00    --  -36.60 -95.00 -90.00  130
 12  \w      3.00  46.00   0.50   60.00    --  -36.60-125.00  60.00   86
 13  \w   -143.00  12.00   0.50   60.00    --  -36.60 -77.00 150.00  310
;
_diffrn_measurement_device       'four-circle diffractometer'
_diffrn_measurement_device_type  'Xcalibur, Eos'
_diffrn_measurement_method       '\w scans'
_diffrn_radiation_monochromator  graphite
_diffrn_radiation_probe          x-ray
_diffrn_radiation_source         'X-ray tube'
_diffrn_radiation_type           'Mo K\a'
_diffrn_radiation_wavelength     0.71075
_diffrn_reflns_av_R_equivalents  0.0336
_diffrn_reflns_av_unetI/netI     0.0429
_diffrn_reflns_limit_h_max       6
_diffrn_reflns_limit_h_min       -7
_diffrn_reflns_limit_index_m_1_max 1
_diffrn_reflns_limit_index_m_1_min -1
_diffrn_reflns_limit_k_max       4
_diffrn_reflns_limit_k_min       -3
_diffrn_reflns_limit_l_max       8
_diffrn_reflns_limit_l_min       -8
_diffrn_reflns_number            1880
_diffrn_reflns_theta_full        26.9
_diffrn_reflns_theta_max         27.22
_diffrn_reflns_theta_min         4.03
_diffrn_source                   'Enhance (Mo) X-ray source'
_exptl_absorpt_coefficient_mu    118.922
_exptl_absorpt_correction_T_max  3.165
_exptl_absorpt_correction_T_min  0.527
_exptl_absorpt_correction_type   analytical
_exptl_absorpt_process_details
;
CrysAlisPro 1.171.38.46 (Rigaku Oxford Diffraction, 2015)
Analytical numeric absorption correction using a multifaceted crystal
			model based on expressions derived by R.C. Clark & J.S. Reid.
(Clark, R. C. & Reid, J. S. (1995). Acta Cryst. A51, 887-897)
Empirical absorption correction using spherical harmonics,
 implemented in SCALE3 ABSPACK scaling algorithm.
;
_exptl_crystal_colour            silver
_exptl_crystal_density_diffrn    13.0215
_exptl_crystal_description       block
_exptl_crystal_F_000             364
_exptl_crystal_size_max          0.061
_exptl_crystal_size_mid          0.030
_exptl_crystal_size_min          0.025
_refine_diff_density_max         3.59
_refine_diff_density_min         -3.81
_refine_ls_extinction_coef       23(3)
_refine_ls_extinction_method
'B-C type 1 Gaussian isotropic (Becker & Coppens, 1974)'
_refine_ls_goodness_of_fit_gt    1.23
_refine_ls_goodness_of_fit_ref   1.04
_refine_ls_number_constraints    0
_refine_ls_number_parameters     37
_refine_ls_number_reflns         718
_refine_ls_number_restraints     0
_refine_ls_R_factor_all          0.0633
_refine_ls_R_factor_gt           0.0331
_refine_ls_shift/su_max          0.0422
_refine_ls_shift/su_mean         0.0075
_refine_ls_structure_factor_coef Fsqd
_refine_ls_weighting_details     w=1/(\s^2^(I)+0.0004I^2^)
_refine_ls_weighting_scheme      sigma
_refine_ls_wR_factor_gt          0.0663
_refine_ls_wR_factor_ref         0.0838
_reflns_number_gt                341
_reflns_number_total             718
_reflns_threshold_expression     I>3\s(I)
_cod_data_source_file            ja9b10473_si_002.cif
_cod_data_source_block           I
_cod_depositor_comments
;
The following automatic conversions were performed:

data item '_diffrn_radiation_probe' value 'X-ray' was changed to
'x-ray' in accordance with the
/home/data/users/saulius/crontab/automatic-downloads/rss-feeds/ACS/lib/dictionaries/cif_core.dic
dictionary named 'cif_core.dic' version 2.4.2 last updated on
2011-04-26.

Automatic conversion script
Id: cif_fix_values 6909 2019-04-08 15:41:33Z antanas 
;
_cod_original_formula_sum        'Ir1 Si1'
_cod_database_code               4132332
loop_
_space_group_symop_id
_space_group_symop_operation_xyz
1 x,y,z
2 x+0.5,-y+0.5,-z+0.5
3 -x,-y,-z
4 -x+0.5,y+0.5,z+0.5
loop_
_space_group_symop_ssg_id
_space_group_symop_ssg_operation_algebraic
1 x1,x2,x3,x4
2 x1+1/2,-x2+1/2,-x3+1/2,-x4
3 -x1,-x2,-x3,-x4
4 -x1+1/2,x2+1/2,x3+1/2,x4
loop_
_atom_site_label
_atom_site_type_symbol
_atom_site_fract_x
_atom_site_fract_y
_atom_site_fract_z
_atom_site_adp_type
_atom_site_U_iso_or_equiv
_atom_site_site_symmetry_multiplicity
_atom_site_occupancy
_atom_site_calc_flag
Ir1 Ir -0.49941(8) 0.7513(4) 0.20348(8) Uani 0.0080(3) 4 1 d
Si1 Si -0.6828(6) 1.245(2) 0.4377(6) Uani 0.0102(11) 4 1 d
loop_
_atom_site_aniso_label
_atom_site_aniso_type_symbol
_atom_site_aniso_U_11
_atom_site_aniso_U_22
_atom_site_aniso_U_33
_atom_site_aniso_U_12
_atom_site_aniso_U_13
_atom_site_aniso_U_23
Ir1 Ir 0.0040(3) 0.0083(7) 0.0116(5) 0.0004(5) -0.0001(2) -0.0050(4)
Si1 Si 0.0064(17) 0.0089(19) 0.0154(19) -0.003(3) 0.0008(17) -0.005(3)
loop_
_atom_site_displace_Fourier_atom_site_label
_atom_site_displace_Fourier_axis
_atom_site_displace_Fourier_wave_vector_seq_id
_atom_site_displace_Fourier_param_cos
_atom_site_displace_Fourier_param_sin
Ir1 x 1 -0.00187(20) -0.0001(3)
Ir1 y 1 0.0034(3) -0.0563(11)
Ir1 z 1 -0.00269(13) -0.0169(4)
Ir1 x 2 -0.0001(7) -0.0001(8)
Ir1 y 2 0.0053(10) -0.0106(7)
Ir1 z 2 0.0006(4) -0.0022(4)
Si1 x 1 0 0
Si1 y 1 0.003(2) -0.031(2)
Si1 z 1 -0.0095(11) -0.0204(11)
loop_
_atom_site_Fourier_wave_vector_seq_id
_jana_atom_site_fourier_wave_vector_q1_coeff
1 1
2 2
loop_
_atom_type_symbol
_atom_type_scat_dispersion_real
_atom_type_scat_dispersion_imag
_atom_type_scat_source
Ir -1.4442 7.9887 'International Tables Vol C tables 4.2.6.8 and 6.1.1.1'
Si 0.0817 0.0704 'International Tables Vol C tables 4.2.6.8 and 6.1.1.1'
loop_
_cell_wave_vector_seq_id
_cell_wave_vector_x
_cell_wave_vector_y
_cell_wave_vector_z
1 0.000000 -0.220000 0.290000
loop_
_exptl_crystal_face_index_h
_exptl_crystal_face_index_k
_exptl_crystal_face_index_l
_exptl_crystal_face_perp_dist
2 6 3 0.0273
3 4 -5 0.0295
0 5 7 0.0132
1 -3 -8 0.0110
-2 6 -5 0.0088
-4 -2 4 0.0244
-3 -2 6 0.0183
4 -4 2 0.0171
-2 -6 -3 0.0205
2 -6 5 0.0161
loop_
_geom_angle_atom_site_label_1
_geom_angle_atom_site_label_2
_geom_angle_atom_site_label_3
_geom_angle_site_ssg_symmetry_1
_geom_angle_site_ssg_symmetry_3
_geom_angle_av
_geom_angle_min
_geom_angle_max
Ir1 Ir1 Ir1 2_4655 2_5655 156.2(2) 155.7(3) 157.3(2)
Ir1 Ir1 Si1 2_4655 1_5455 57.5(2) 56.4(2) 58.8(2)
Ir1 Ir1 Si1 2_4655 . 57.2(2) 55.8(2) 59.23(19)
Ir1 Ir1 Si1 2_4655 2_5655 138.5(3) 135.0(3) 141.3(3)
Ir1 Ir1 Si1 2_4655 2_5755 138.3(3) 135.4(3) 140.8(3)
Ir1 Ir1 Si1 2_4655 3_4765 102.3(2) 101.7(2) 102.7(2)
Ir1 Ir1 Si1 2_4655 4_3445 55.3(2) 54.6(2) 56.0(2)
Ir1 Ir1 Si1 2_5655 1_5455 106.5(2) 105.4(2) 107.5(3)
Ir1 Ir1 Si1 2_5655 . 107.0(2) 105.9(3) 108.3(2)
Ir1 Ir1 Si1 2_5655 2_5655 52.5(2) 51.2(2) 53.8(2)
Ir1 Ir1 Si1 2_5655 2_5755 53.1(2) 52.4(2) 53.8(2)
Ir1 Ir1 Si1 2_5655 3_4765 53.94(17) 53.39(18) 54.83(16)
Ir1 Ir1 Si1 2_5655 4_3445 148.4(3) 147.4(2) 149.4(3)
Si1 Ir1 Si1 1_5455 . 84.0(3) 80.0(3) 88.6(3)
Si1 Ir1 Si1 1_5455 2_5655 94.5(3) 87.5(3) 100.3(4)
Si1 Ir1 Si1 1_5455 2_5755 157.9(3) 154.5(3) 160.3(3)
Si1 Ir1 Si1 1_5455 3_4765 67.8(3) 66.0(3) 69.3(3)
Si1 Ir1 Si1 1_5455 4_3445 96.0(3) 91.6(3) 100.1(3)
Si1 Ir1 Si1 . 2_5655 158.0(3) 157.0(3) 159.3(3)
Si1 Ir1 Si1 . 2_5755 94.9(3) 87.8(3) 99.6(3)
Si1 Ir1 Si1 . 3_4765 67.1(3) 65.4(3) 69.5(3)
Si1 Ir1 Si1 . 4_3445 96.8(3) 94.2(3) 98.2(3)
Si1 Ir1 Si1 2_5655 2_5755 78.5(3) 75.4(3) 81.6(3)
Si1 Ir1 Si1 2_5655 3_4765 92.1(3) 88.9(3) 94.7(3)
Si1 Ir1 Si1 2_5655 4_3445 104.9(3) 103.3(3) 107.4(3)
Si1 Ir1 Si1 2_5755 3_4765 91.8(3) 86.7(3) 95.3(3)
Si1 Ir1 Si1 2_5755 4_3445 105.5(3) 103.4(3) 108.3(3)
Si1 Ir1 Si1 3_4765 4_3445 157.3(3) 156.2(3) 158.4(3)
Ir1 Si1 Ir1 . 1_5655 84.0(3) 78.4(3) 91.9(3)
Ir1 Si1 Ir1 . 2_4655 70.3(3) 67.9(3) 72.0(3)
Ir1 Si1 Ir1 . 2_4755 120.1(3) 114.8(3) 126.1(3)
Ir1 Si1 Ir1 . 3_4765 112.9(3) 109.4(3) 115.8(3)
Ir1 Si1 Ir1 . 4_3555 137.5(5) 132.0(5) 140.9(5)
Ir1 Si1 Ir1 1_5655 2_4655 120.3(3) 114.9(3) 126.7(3)
Ir1 Si1 Ir1 1_5655 2_4755 69.4(3) 68.2(3) 71.1(3)
Ir1 Si1 Ir1 1_5655 3_4765 112.2(3) 110.5(3) 114.1(3)
Ir1 Si1 Ir1 1_5655 4_3555 135.8(5) 133.7(5) 137.9(5)
Ir1 Si1 Ir1 2_4655 2_4755 78.5(2) 74.0(2) 84.7(2)
Ir1 Si1 Ir1 2_4655 3_4765 127.3(4) 122.4(4) 131.8(4)
Ir1 Si1 Ir1 2_4655 4_3555 75.0(2) 72.8(2) 76.5(2)
Ir1 Si1 Ir1 2_4755 3_4765 126.6(4) 124.2(4) 128.8(4)
Ir1 Si1 Ir1 2_4755 4_3555 74.5(2) 73.4(2) 75.8(2)
Ir1 Si1 Ir1 3_4765 4_3555 70.8(3) 69.5(3) 71.7(3)
loop_
_geom_bond_atom_site_label_1
_geom_bond_atom_site_label_2
_geom_bond_site_ssg_symmetry_2
_geom_bond_distance_av
_geom_bond_distance_min
_geom_bond_distance_max
Ir1 Ir1 2_4655 2.840(8) 2.834(9) 2.846(9)
Ir1 Ir1 2_5655 2.840(8) 2.834(9) 2.846(9)
Ir1 Si1 1_5455 2.427(10) 2.377(11) 2.457(11)
Ir1 Si1 . 2.393(10) 2.340(11) 2.465(11)
Ir1 Si1 2_5655 2.539(9) 2.478(10) 2.627(10)
Ir1 Si1 2_5755 2.557(9) 2.499(10) 2.621(10)
Ir1 Si1 3_4765 2.472(9) 2.442(9) 2.511(9)
Ir1 Si1 4_3445 2.431(8) 2.407(8) 2.473(8)
loop_
_twin_individual_id
_twin_individual_mass_fraction_refined
_twin_individual_twin_matrix_11
_twin_individual_twin_matrix_12
_twin_individual_twin_matrix_13
_twin_individual_twin_matrix_21
_twin_individual_twin_matrix_22
_twin_individual_twin_matrix_23
_twin_individual_twin_matrix_31
_twin_individual_twin_matrix_32
_twin_individual_twin_matrix_33
1 0.65(3) 1 0 0 0 1 0 0 0 1
2 0.35(3) 1 0 0 0 1 0 0 0 -1
loop_
_twin_refln_datum_id
_twin_refln_individual_id
_twin_refln_index_h
_twin_refln_index_k
_twin_refln_index_l
_twin_refln_index_m_1
_twin_refln_f_squared_calc
_twin_refln_f_squared_meas
_twin_refln_f_squared_sigma
_twin_refln_include_status
1 1 1 0 0 1 0.08 -0.20 1.73 <
2 2 2 0 0 0 54832.50 49967.50 478.43 o
2 1 2 0 0 0 54832.50 49967.50 478.43 o
3 1 2 0 0 1 23.64 35.87 8.54 o
4 1 3 0 0 1 0.10 5.59 9.55 <
5 2 4 0 0 0 39905.70 38677.20 607.24 o
5 1 4 0 0 0 39905.70 38677.20 607.24 o
6 1 4 0 0 1 14.46 28.99 15.12 <
7 1 5 0 0 1 0.17 16.68 16.69 <
8 2 6 0 0 0 30148.70 31170.00 1080.78 o
8 1 6 0 0 0 30148.70 31170.00 1080.78 o
9 1 6 0 0 1 8.59 68.58 39.55 <
10 1 7 0 0 1 0.04 -5.79 30.63 <
11 1 1 1 0 -1 9.06 6.79 3.05 <
12 2 1 1 0 0 7.87 28.77 5.80 o
12 1 1 1 0 0 7.87 28.77 5.80 o
13 1 1 1 0 1 1.33 0.40 2.51 <
14 1 2 1 0 -1 18.77 11.50 7.72 <
15 2 2 1 0 0 776.03 840.55 46.01 o
15 1 2 1 0 0 776.03 840.55 46.01 o
16 1 2 1 0 1 0.07 -0.94 3.77 <
17 1 3 1 0 -1 11.34 15.35 13.11 <
18 2 3 1 0 0 0.40 20.91 12.25 <
18 1 3 1 0 0 0.40 20.91 12.25 <
19 1 3 1 0 1 0.61 10.48 7.15 <
20 1 4 1 0 -1 3.29 -1.97 12.64 <
21 2 4 1 0 0 571.84 535.40 76.60 o
21 1 4 1 0 0 571.84 535.40 76.60 o
22 1 4 1 0 1 30.30 56.74 20.90 <
23 1 5 1 0 -1 3.76 -6.17 18.07 <
24 2 5 1 0 0 2.76 65.44 32.85 <
24 1 5 1 0 0 2.76 65.44 32.85 <
25 1 5 1 0 1 0.59 -11.84 7.62 <
26 1 6 1 0 -1 29.16 36.98 18.73 <
27 2 6 1 0 0 204.11 182.27 42.87 o
27 1 6 1 0 0 204.11 182.27 42.87 o
28 1 6 1 0 1 10.08 40.04 24.18 <
29 1 0 2 0 -1 4153.20 4373.34 179.88 o
30 2 0 2 0 0 45515.00 45209.70 582.49 o
30 1 0 2 0 0 45515.00 45209.70 582.49 o
31 1 0 2 0 1 3301.08 3633.00 203.40 o
32 1 1 2 0 -1 0.83 13.86 11.59 <
33 2 1 2 0 0 3.82 5.17 6.26 <
33 1 1 2 0 0 3.82 5.17 6.26 <
34 1 1 2 0 1 0.01 -11.06 9.54 <
35 1 2 2 0 -1 2887.49 3058.94 132.88 o
36 2 2 2 0 0 23741.60 24793.00 368.92 o
36 1 2 2 0 0 23741.60 24793.00 368.92 o
37 1 2 2 0 1 2096.13 2322.92 95.90 o
38 1 3 2 0 -1 0.01 15.62 10.81 <
39 2 3 2 0 0 1.63 -2.65 8.76 <
39 1 3 2 0 0 1.63 -2.65 8.76 <
40 1 3 2 0 1 0.01 -6.72 8.65 <
41 1 4 2 0 -1 2291.60 2522.02 283.76 o
42 2 4 2 0 0 20452.90 20718.00 429.03 o
42 1 4 2 0 0 20452.90 20718.00 429.03 o
43 1 4 2 0 1 1638.29 1723.11 118.86 o
44 1 5 2 0 -1 0.05 16.23 12.88 <
45 2 5 2 0 0 0.14 -28.83 22.74 <
45 1 5 2 0 0 0.14 -28.83 22.74 <
46 1 5 2 0 1 0.03 -9.34 12.03 <
47 2 6 2 0 0 17081.10 16920.00 467.27 o
47 1 6 2 0 0 17081.10 16920.00 467.27 o
48 1 6 2 0 1 1228.37 1267.47 125.19 o
49 1 1 3 0 -1 17.71 182.70 66.47 <
50 2 1 3 0 0 29.61 21.94 19.82 <
50 1 1 3 0 0 29.61 21.94 19.82 <
51 1 1 3 0 1 4.77 -7.99 15.74 <
52 1 2 3 0 -1 22.94 67.76 55.96 <
53 2 2 3 0 0 240.57 272.49 74.79 o
53 1 2 3 0 0 240.57 272.49 74.79 o
54 1 2 3 0 1 7.83 -10.59 26.73 <
55 1 3 3 0 -1 28.25 481.70 156.94 o
56 2 3 3 0 0 3.98 -5.95 38.39 <
56 1 3 3 0 0 3.98 -5.95 38.39 <
57 1 3 3 0 1 2.61 22.87 29.19 <
58 1 4 3 0 -1 1.11 -230.51 119.51 <
59 2 4 3 0 0 206.81 206.81 81.71 <
59 1 4 3 0 0 206.81 206.81 81.71 <
60 1 4 3 0 1 36.74 24.25 13.60 <
61 1 5 3 0 1 2.43 56.36 34.12 <
62 1 0 4 0 1 2773.14 2690.10 248.11 o
63 2 1 4 0 0 3.06 11.39 16.91 <
63 1 1 4 0 0 3.06 11.39 16.91 <
64 1 1 4 0 1 0.12 -42.83 41.29 <
65 1 2 4 0 1 1830.97 1904.29 223.92 o
66 1 1 -4 1 -1 181.59 208.19 80.70 <
67 2 1 -4 -1 0 251.11 251.03 133.95 <
67 1 1 -4 1 0 251.11 251.03 133.95 <
68 1 2 -4 1 -1 3.39 111.09 80.22 <
69 1 0 -3 1 -1 1971.06 2087.37 150.18 o
70 2 0 -3 -1 0 11012.40 11595.60 717.50 o
70 1 0 -3 1 0 11012.40 11595.60 717.50 o
71 1 0 -3 1 1 3046.42 2710.12 357.51 o
72 1 1 -3 1 -1 11.95 10.58 15.17 <
73 2 1 -3 -1 0 284.69 306.39 47.73 o
73 1 1 -3 1 0 284.69 306.39 47.73 o
74 1 1 -3 1 1 8.90 23.65 21.86 <
75 1 2 -3 1 -1 2067.36 2156.89 145.67 o
76 2 2 -3 -1 0 12409.60 14159.40 467.83 o
76 1 2 -3 1 0 12409.60 14159.40 467.83 o
77 1 2 -3 1 1 2798.97 3074.84 217.77 o
78 1 3 -3 1 -1 0.35 61.79 35.74 <
79 2 3 -3 -1 0 31.40 -63.36 79.53 <
79 1 3 -3 1 0 31.40 -63.36 79.53 <
80 1 3 -3 1 1 3.67 38.54 22.75 <
81 1 4 -3 1 -1 1488.80 1664.89 163.97 o
82 2 4 -3 -1 0 8893.46 8549.06 414.46 o
82 1 4 -3 1 0 8893.46 8549.06 414.46 o
83 1 4 -3 1 1 2170.99 1744.80 328.40 o
84 1 5 -3 1 -1 0.98 -12.49 22.79 <
85 1 1 -2 1 -1 220.88 231.40 24.51 o
86 2 1 -2 -1 0 1734.55 1784.20 91.34 o
86 1 1 -2 1 0 1734.55 1784.20 91.34 o
87 1 1 -2 1 1 60.91 92.96 22.45 o
88 1 2 -2 1 -1 8.11 13.85 9.49 <
89 2 2 -2 -1 0 35.76 23.09 16.02 <
89 1 2 -2 1 0 35.76 23.09 16.02 <
90 1 2 -2 1 1 4.15 6.53 10.70 <
91 1 3 -2 1 -1 261.55 257.73 41.29 o
92 2 3 -2 -1 0 4577.64 4377.11 178.54 o
92 1 3 -2 1 0 4577.64 4377.11 178.54 o
93 1 3 -2 1 1 111.98 108.14 34.18 o
94 1 4 -2 1 -1 1.45 5.84 20.39 <
95 2 4 -2 -1 0 99.85 101.21 31.77 o
95 1 4 -2 1 0 99.85 101.21 31.77 o
96 1 4 -2 1 1 8.03 12.88 8.33 <
97 1 5 -2 1 -1 100.39 130.00 46.44 <
98 2 5 -2 -1 0 562.48 469.43 89.24 o
98 1 5 -2 1 0 562.48 469.43 89.24 o
99 1 5 -2 1 1 24.50 34.83 21.87 <
100 1 6 -2 1 -1 14.56 -17.33 23.13 <
101 2 6 -2 -1 0 1.92 -5.61 24.96 <
101 1 6 -2 1 0 1.92 -5.61 24.96 <
102 1 0 -1 1 -1 335.02 328.95 29.39 o
103 2 0 -1 -1 0 50552.30 51521.40 347.81 o
103 1 0 -1 1 0 50552.30 51521.40 347.81 o
104 1 0 -1 1 1 920.98 918.41 47.08 o
105 1 1 -1 1 -1 0.94 2.87 3.23 <
106 2 1 -1 -1 0 994.13 1021.49 45.62 o
106 1 1 -1 1 0 994.13 1021.49 45.62 o
107 1 1 -1 1 1 1.01 -0.85 8.22 <
108 1 2 -1 1 -1 331.34 326.63 35.83 o
109 2 2 -1 -1 0 50604.30 51525.00 484.79 o
109 1 2 -1 1 0 50604.30 51525.00 484.79 o
110 1 2 -1 1 1 689.78 657.44 55.11 o
111 1 3 -1 1 -1 0.86 -0.07 7.65 <
112 2 3 -1 -1 0 81.58 74.01 18.41 o
112 1 3 -1 1 0 81.58 74.01 18.41 o
113 1 3 -1 1 1 1.28 -3.35 7.75 <
114 1 4 -1 1 -1 198.80 219.29 39.37 o
115 2 4 -1 -1 0 31099.60 33299.70 523.96 o
115 1 4 -1 1 0 31099.60 33299.70 523.96 o
116 1 4 -1 1 1 479.20 485.43 105.58 o
117 1 5 -1 1 -1 1.40 -11.87 17.56 <
118 2 5 -1 -1 0 143.31 121.67 38.03 o
118 1 5 -1 1 0 143.31 121.67 38.03 o
119 1 5 -1 1 1 2.12 -9.93 26.47 <
120 1 6 -1 1 -1 110.64 148.78 54.94 <
121 2 6 -1 -1 0 17546.00 18588.00 583.04 o
121 1 6 -1 1 0 17546.00 18588.00 583.04 o
122 1 6 -1 1 1 318.22 366.26 79.31 o
123 1 1 0 1 -1 10.98 19.17 10.62 <
124 2 1 0 -1 0 3968.52 4109.50 116.31 o
124 1 1 0 1 0 3968.52 4109.50 116.31 o
125 1 1 0 1 1 16.35 13.34 7.83 <
126 1 2 0 1 -1 4.79 -0.47 3.88 <
127 2 2 0 -1 0 81.90 98.27 22.13 o
127 1 2 0 1 0 81.90 98.27 22.13 o
128 1 2 0 1 1 13.12 22.58 11.33 <
129 1 3 0 1 -1 27.70 28.81 10.53 <
130 2 3 0 -1 0 8736.69 8422.94 155.50 o
130 1 3 0 1 0 8736.69 8422.94 155.50 o
131 1 3 0 1 1 23.11 38.32 10.89 o
132 1 4 0 1 -1 15.19 26.04 12.52 <
133 2 4 0 -1 0 181.82 171.57 31.80 o
133 1 4 0 1 0 181.82 171.57 31.80 o
134 1 4 0 1 1 5.17 -2.49 5.94 <
135 1 5 0 1 -1 2.55 -3.13 12.01 <
136 2 5 0 -1 0 1023.40 1059.49 122.51 o
136 1 5 0 1 0 1023.40 1059.49 122.51 o
137 1 5 0 1 1 5.47 -3.82 13.50 <
138 1 6 0 1 -1 18.15 73.57 39.96 <
139 2 6 0 -1 0 1.77 3.14 15.44 <
139 1 6 0 1 0 1.77 3.14 15.44 <
140 1 6 0 1 1 22.72 41.43 28.11 <
141 1 7 0 1 -1 5.14 -14.16 14.55 <
142 2 7 0 -1 0 1752.47 1647.76 195.32 o
142 1 7 0 1 0 1752.47 1647.76 195.32 o
143 1 7 0 1 1 5.88 -11.03 26.88 <
144 1 0 1 1 -1 2290.39 2211.81 110.72 o
145 2 0 1 -1 0 50238.50 50529.90 408.66 o
145 1 0 1 1 0 50238.50 50529.90 408.66 o
146 1 0 1 1 1 1362.69 1336.28 58.95 o
147 1 1 1 1 -1 13.91 14.90 6.79 <
148 2 1 1 -1 0 986.23 964.82 51.44 o
148 1 1 1 1 0 986.23 964.82 51.44 o
149 1 1 1 1 1 16.29 8.65 6.59 <
150 1 2 1 1 -1 2127.84 2132.09 92.67 o
151 2 2 1 -1 0 50424.10 51887.30 451.25 o
151 1 2 1 1 0 50424.10 51887.30 451.25 o
152 1 2 1 1 1 1420.12 1397.64 73.02 o
153 1 3 1 1 -1 4.35 5.13 6.91 <
154 2 3 1 -1 0 76.00 83.40 16.82 o
154 1 3 1 1 0 76.00 83.40 16.82 o
155 1 3 1 1 1 0.16 -0.71 10.08 <
156 1 4 1 1 -1 1371.66 1575.53 109.95 o
157 2 4 1 -1 0 30988.30 33547.50 449.11 o
157 1 4 1 1 0 30988.30 33547.50 449.11 o
158 1 4 1 1 1 858.42 978.95 85.03 o
159 1 5 1 1 -1 7.22 -6.98 14.19 <
160 2 5 1 -1 0 127.37 148.37 36.56 o
160 1 5 1 1 0 127.37 148.37 36.56 o
161 1 5 1 1 1 0.21 15.10 15.47 <
162 1 6 1 1 -1 799.12 916.61 104.66 o
163 2 6 1 -1 0 17278.20 19203.80 478.04 o
163 1 6 1 1 0 17278.20 19203.80 478.04 o
164 1 6 1 1 1 467.44 508.41 95.22 o
165 1 1 2 1 -1 429.79 551.20 80.35 o
166 2 1 2 -1 0 1541.87 1585.91 106.75 o
166 1 1 2 1 0 1541.87 1585.91 106.75 o
167 1 1 2 1 1 199.12 183.37 34.55 o
168 1 2 2 1 -1 0.09 6.66 9.71 <
169 2 2 2 -1 0 46.17 36.47 14.86 <
169 1 2 2 1 0 46.17 36.47 14.86 <
170 1 2 2 1 1 14.11 2.71 9.34 <
171 1 3 2 1 -1 604.04 689.13 79.88 o
172 2 3 2 -1 0 4214.68 4368.70 149.55 o
172 1 3 2 1 0 4214.68 4368.70 149.55 o
173 1 3 2 1 1 346.90 338.65 44.69 o
174 1 4 2 1 -1 28.27 17.02 17.46 <
175 2 4 2 -1 0 118.61 97.89 34.99 <
175 1 4 2 1 0 118.61 97.89 34.99 <
176 1 4 2 1 1 0.15 -0.45 11.73 <
177 1 5 2 1 -1 194.78 207.66 61.64 o
178 2 5 2 -1 0 481.60 496.55 71.22 o
178 1 5 2 1 0 481.60 496.55 71.22 o
179 1 5 2 1 1 75.56 103.26 32.06 o
180 1 6 2 1 -1 12.36 31.03 32.36 <
181 2 6 2 -1 0 1.21 11.56 25.82 <
181 1 6 2 1 0 1.21 11.56 25.82 <
182 1 6 2 1 1 14.35 26.02 28.78 <
183 1 0 3 1 -1 3933.84 3419.95 375.26 o
184 2 0 3 -1 0 10441.00 11904.10 707.71 o
184 1 0 3 1 0 10441.00 11904.10 707.71 o
185 1 0 3 1 1 2847.64 2537.49 326.50 o
186 1 1 3 1 -1 20.32 32.87 27.10 <
187 2 1 3 -1 0 276.64 233.30 57.58 o
187 1 1 3 1 0 276.64 233.30 57.58 o
188 1 1 3 1 1 28.66 30.44 22.75 <
189 1 2 3 1 -1 4136.19 4402.00 335.37 o
190 2 2 3 -1 0 12132.10 13407.50 550.91 o
190 1 2 3 1 0 12132.10 13407.50 550.91 o
191 1 2 3 1 1 3110.23 3105.33 202.07 o
192 1 3 3 1 -1 2.60 37.63 21.98 <
193 2 3 3 -1 0 26.18 2.88 24.48 <
193 1 3 3 1 0 26.18 2.88 24.48 <
194 1 3 3 1 1 1.00 -2.77 21.96 <
195 1 4 3 1 -1 3137.89 3217.09 251.64 o
196 2 4 3 -1 0 8742.43 8043.85 387.91 o
196 1 4 3 1 0 8742.43 8043.85 387.91 o
197 1 4 3 1 1 2279.23 2285.19 162.55 o
198 1 5 3 1 1 1.04 25.22 42.66 <
199 2 1 4 -1 0 165.06 175.54 71.34 <
199 1 1 4 1 0 165.06 175.54 71.34 <
200 1 1 4 1 1 137.17 110.71 41.22 <
201 1 2 4 1 1 7.33 0.44 41.28 <
202 1 0 -4 2 -1 870.91 636.81 202.10 o
203 1 1 -4 2 -1 5.35 16.47 46.77 <
204 1 2 -4 2 -1 970.53 999.49 217.62 o
205 1 1 -3 2 -1 779.25 821.33 79.48 o
206 2 1 -3 -2 0 4519.23 4294.54 265.41 o
206 1 1 -3 2 0 4519.23 4294.54 265.41 o
207 1 1 -3 2 1 456.16 412.60 77.50 o
208 1 2 -3 2 -1 3.78 5.04 12.50 <
209 2 2 -3 -2 0 87.29 144.25 61.84 <
209 1 2 -3 2 0 87.29 144.25 61.84 <
210 1 2 -3 2 1 0.84 -5.52 22.47 <
211 1 3 -3 2 -1 490.49 430.01 90.29 o
212 2 3 -3 -2 0 2194.70 1921.59 213.91 o
212 1 3 -3 2 0 2194.70 1921.59 213.91 o
213 1 3 -3 2 1 371.54 316.31 81.07 o
214 1 4 -3 2 -1 0.55 22.42 27.42 <
215 2 4 -3 -2 0 142.00 173.79 69.17 <
215 1 4 -3 2 0 142.00 173.79 69.17 <
216 1 0 -2 2 -1 647.54 638.86 57.36 o
217 2 0 -2 -2 0 15330.50 15444.40 390.91 o
217 1 0 -2 2 0 15330.50 15444.40 390.91 o
218 1 0 -2 2 1 1137.46 1136.54 109.92 o
219 1 1 -2 2 -1 2.20 -9.41 10.20 <
220 2 1 -2 -2 0 286.86 298.20 47.19 o
220 1 1 -2 2 0 286.86 298.20 47.19 o
221 1 1 -2 2 1 0.02 -5.40 13.44 <
222 1 2 -2 2 -1 567.56 547.69 68.40 o
223 2 2 -2 -2 0 21253.10 21272.80 421.46 o
223 1 2 -2 2 0 21253.10 21272.80 421.46 o
224 1 2 -2 2 1 1243.67 1189.22 213.45 o
225 1 3 -2 2 -1 3.37 -2.71 3.81 <
226 2 3 -2 -2 0 14.85 12.23 11.80 <
226 1 3 -2 2 0 14.85 12.23 11.80 <
227 1 3 -2 2 1 2.07 -4.02 13.00 <
228 1 4 -2 2 -1 410.18 459.77 63.43 o
229 2 4 -2 -2 0 13657.30 14492.10 445.93 o
229 1 4 -2 2 0 13657.30 14492.10 445.93 o
230 1 4 -2 2 1 870.48 813.46 107.26 o
231 1 5 -2 2 -1 6.18 26.65 29.81 <
232 2 5 -2 -2 0 22.57 36.61 35.88 <
232 1 5 -2 2 0 22.57 36.61 35.88 <
233 1 5 -2 2 1 4.87 -38.71 33.41 <
234 1 6 -2 2 -1 264.26 241.21 65.02 o
235 1 1 -1 2 -1 81.97 81.17 15.20 o
236 2 1 -1 -2 0 18025.60 17308.50 217.02 o
236 1 1 -1 2 0 18025.60 17308.50 217.02 o
237 1 1 -1 2 1 14.69 13.77 5.51 <
238 1 2 -1 2 -1 0.20 2.80 5.18 <
239 2 2 -1 -2 0 236.54 195.80 31.75 o
239 1 2 -1 2 0 236.54 195.80 31.75 o
240 1 2 -1 2 1 1.37 5.06 7.59 <
241 1 3 -1 2 -1 49.02 61.26 14.51 o
242 2 3 -1 -2 0 7908.26 7673.97 195.52 o
242 1 3 -1 2 0 7908.26 7673.97 195.52 o
243 1 3 -1 2 1 31.07 63.60 21.57 <
244 1 4 -1 2 -1 16.77 23.13 12.58 <
245 2 4 -1 -2 0 380.23 387.02 57.61 o
245 1 4 -1 2 0 380.23 387.02 57.61 o
246 1 4 -1 2 1 12.41 32.17 23.63 <
247 1 5 -1 2 -1 39.05 95.83 26.40 o
248 2 5 -1 -2 0 9759.21 10059.40 331.00 o
248 1 5 -1 2 0 9759.21 10059.40 331.00 o
249 1 5 -1 2 1 4.75 34.24 13.99 <
250 1 6 -1 2 -1 7.35 17.97 18.18 <
251 2 6 -1 -2 0 20.84 23.56 24.33 <
251 1 6 -1 2 0 20.84 23.56 24.33 <
252 1 6 -1 2 1 10.05 20.82 19.53 <
253 1 0 0 2 -1 437.18 446.74 34.49 o
254 2 0 0 -2 0 35610.00 37450.70 468.18 o
254 1 0 0 2 0 35610.00 37450.70 468.18 o
255 1 0 0 2 1 105.37 105.74 25.07 o
256 1 1 0 2 -1 6.25 8.91 6.23 <
257 2 1 0 -2 0 629.51 702.38 55.69 o
257 1 1 0 2 0 629.51 702.38 55.69 o
258 1 1 0 2 1 10.05 8.04 10.20 <
259 1 2 0 2 -1 623.26 723.02 92.57 o
260 2 2 0 -2 0 44456.30 42967.50 409.29 o
260 1 2 0 2 0 44456.30 42967.50 409.29 o
261 1 2 0 2 1 122.09 114.75 18.85 o
262 1 3 0 2 -1 2.39 0.38 8.35 <
263 2 3 0 -2 0 27.26 24.03 14.44 <
263 1 3 0 2 0 27.26 24.03 14.44 <
264 1 3 0 2 1 5.41 -2.69 9.77 <
265 1 4 0 2 -1 337.60 378.06 51.39 o
266 2 4 0 -2 0 25439.70 25559.10 467.65 o
266 1 4 0 2 0 25439.70 25559.10 467.65 o
267 1 4 0 2 1 74.14 80.41 25.13 o
268 1 5 0 2 -1 4.22 13.13 14.00 <
269 2 5 0 -2 0 41.89 58.44 29.31 <
269 1 5 0 2 0 41.89 58.44 29.31 <
270 1 5 0 2 1 9.24 0.92 19.31 <
271 1 6 0 2 -1 155.29 132.20 45.46 <
272 2 6 0 -2 0 12637.40 12482.60 507.34 o
272 1 6 0 2 0 12637.40 12482.60 507.34 o
273 1 6 0 2 1 38.80 75.27 42.89 <
274 1 1 1 2 -1 1182.74 1144.03 52.39 o
275 2 1 1 -2 0 17531.80 17687.40 226.32 o
275 1 1 1 2 0 17531.80 17687.40 226.32 o
276 1 1 1 2 1 909.69 931.18 65.80 o
277 1 2 1 2 -1 2.41 3.19 7.16 <
278 2 2 1 -2 0 218.79 202.26 24.29 o
278 1 2 1 2 0 218.79 202.26 24.29 o
279 1 2 1 2 1 12.96 12.73 6.38 <
280 1 3 1 2 -1 637.66 623.41 52.39 o
281 2 3 1 -2 0 7488.15 7060.08 207.83 o
281 1 3 1 2 0 7488.15 7060.08 207.83 o
282 1 3 1 2 1 378.66 323.99 40.37 o
283 1 4 1 2 -1 47.68 49.12 20.02 <
284 2 4 1 -2 0 375.61 364.71 53.41 o
284 1 4 1 2 0 375.61 364.71 53.41 o
285 1 4 1 2 1 0.30 -7.88 15.61 <
286 1 5 1 2 -1 613.96 649.53 74.34 o
287 2 5 1 -2 0 9457.49 10099.00 323.56 o
287 1 5 1 2 0 9457.49 10099.00 323.56 o
288 1 5 1 2 1 492.29 505.84 71.13 o
289 1 6 1 2 -1 5.33 -32.57 32.60 <
290 2 6 1 -2 0 19.01 4.12 16.12 <
290 1 6 1 2 0 19.01 4.12 16.12 <
291 1 6 1 2 1 15.92 38.17 21.24 <
292 1 0 2 2 -1 3042.95 2529.89 311.85 o
293 2 0 2 -2 0 14942.70 14852.30 776.23 o
293 1 0 2 2 0 14942.70 14852.30 776.23 o
294 1 0 2 2 1 2189.33 2093.75 178.69 o
295 1 1 2 2 -1 23.04 8.56 34.55 <
296 2 1 2 -2 0 300.14 266.36 48.28 o
296 1 1 2 2 0 300.14 266.36 48.28 o
297 1 1 2 2 1 27.78 22.62 13.46 <
298 1 2 2 2 -1 3599.81 3678.87 163.96 o
299 2 2 2 -2 0 20555.40 20331.70 381.33 o
299 1 2 2 2 0 20555.40 20331.70 381.33 o
300 1 2 2 2 1 2506.41 2441.21 125.11 o
301 1 3 2 2 -1 0.07 -1.07 9.19 <
302 2 3 2 -2 0 17.24 15.97 13.50 <
302 1 3 2 2 0 17.24 15.97 13.50 <
303 1 3 2 2 1 6.70 -20.77 14.32 <
304 1 4 2 2 -1 2415.16 2297.51 134.64 o
305 2 4 2 -2 0 13108.30 13231.60 379.27 o
305 1 4 2 2 0 13108.30 13231.60 379.27 o
306 1 4 2 2 1 1660.37 1680.64 158.11 o
307 1 5 2 2 -1 0.11 45.96 33.30 <
308 2 5 2 -2 0 34.66 46.76 33.65 <
308 1 5 2 2 0 34.66 46.76 33.65 <
309 1 5 2 2 1 13.60 29.05 20.71 <
310 1 6 2 2 1 979.52 1102.67 148.40 o
311 1 1 3 2 -1 2020.82 1915.03 183.93 o
312 2 1 3 -2 0 3940.39 3446.53 318.23 o
312 1 1 3 2 0 3940.39 3446.53 318.23 o
313 1 1 3 2 1 1293.27 1096.18 183.38 o
314 1 2 3 2 -1 2.45 18.68 29.80 <
315 2 2 3 -2 0 69.73 100.11 44.54 <
315 1 2 3 2 0 69.73 100.11 44.54 <
316 1 2 3 2 1 11.73 5.55 41.65 <
317 1 3 3 2 -1 1254.58 1394.36 184.99 o
318 2 3 3 -2 0 1742.41 1532.46 147.18 o
318 1 3 3 2 0 1742.41 1532.46 147.18 o
319 1 3 3 2 1 652.09 654.69 80.87 o
320 1 4 3 2 -1 38.23 44.87 27.56 <
321 2 4 3 -2 0 135.38 164.97 62.56 <
321 1 4 3 2 0 135.38 164.97 62.56 <
322 1 4 3 2 1 4.13 -16.95 34.65 <
323 1 0 4 2 1 1449.83 1145.37 299.89 o
324 1 1 4 2 1 19.56 11.68 26.85 <
325 1 2 4 2 1 1790.68 1847.83 401.99 o
326 1 0 -3 3 -1 406.31 310.96 62.47 o
327 2 0 -3 -3 0 6787.64 7460.53 546.37 o
327 1 0 -3 3 0 6787.64 7460.53 546.37 o
328 1 0 -3 3 1 868.66 1057.11 212.33 o
329 1 1 -3 3 -1 1.25 -26.31 21.85 <
330 2 1 -3 -3 0 47.12 33.69 33.57 <
330 1 1 -3 3 0 47.12 33.69 33.57 <
331 1 1 -3 3 1 5.57 27.76 19.18 <
332 1 2 -3 3 -1 253.44 287.29 69.72 o
333 2 2 -3 -3 0 2993.35 3199.51 242.66 o
333 1 2 -3 3 0 2993.35 3199.51 242.66 o
334 1 2 -3 3 1 767.38 668.28 112.81 o
335 1 3 -3 3 -1 0.68 -1.80 20.45 <
336 2 3 -3 -3 0 0.82 28.51 45.22 <
336 1 3 -3 3 0 0.82 28.51 45.22 <
337 1 3 -3 3 1 1.04 -10.66 20.03 <
338 1 4 -3 3 -1 223.66 160.74 52.15 o
339 2 4 -3 -3 0 3133.97 2919.96 236.75 o
339 1 4 -3 3 0 3133.97 2919.96 236.75 o
340 1 1 -2 3 -1 451.69 420.32 39.83 o
341 2 1 -2 -3 0 15152.10 14613.70 331.14 o
341 1 1 -2 3 0 15152.10 14613.70 331.14 o
342 1 1 -2 3 1 338.04 306.06 47.62 o
343 1 2 -2 3 -1 0.09 12.87 9.69 <
344 2 2 -2 -3 0 244.18 197.53 32.14 o
344 1 2 -2 3 0 244.18 197.53 32.14 o
345 1 2 -2 3 1 0.13 7.20 10.92 <
346 1 3 -2 3 -1 446.11 398.82 48.15 o
347 2 3 -2 -3 0 9883.94 9428.29 252.60 o
347 1 3 -2 3 0 9883.94 9428.29 252.60 o
348 1 3 -2 3 1 208.70 196.28 37.48 o
349 1 4 -2 3 -1 5.23 -3.86 16.84 <
350 2 4 -2 -3 0 235.81 227.07 47.62 o
350 1 4 -2 3 0 235.81 227.07 47.62 o
351 1 4 -2 3 1 5.53 9.42 17.19 <
352 1 5 -2 3 -1 234.51 168.96 47.89 o
353 2 5 -2 -3 0 9092.99 8598.96 375.42 o
353 1 5 -2 3 0 9092.99 8598.96 375.42 o
354 1 5 -2 3 1 213.90 234.77 65.13 o
355 1 0 -1 3 -1 42.37 31.28 16.81 <
356 2 0 -1 -3 0 24980.80 25813.70 352.76 o
356 1 0 -1 3 0 24980.80 25813.70 352.76 o
357 1 0 -1 3 1 39.76 54.33 23.13 <
358 1 1 -1 3 -1 13.53 19.55 9.06 <
359 2 1 -1 -3 0 120.18 119.39 18.74 o
359 1 1 -1 3 0 120.18 119.39 18.74 o
360 1 1 -1 3 1 3.60 6.42 10.22 <
361 1 2 -1 3 -1 15.17 10.30 10.46 <
362 2 2 -1 -3 0 11141.50 9782.12 303.23 o
362 1 2 -1 3 0 11141.50 9782.12 303.23 o
363 1 2 -1 3 1 105.64 90.55 25.13 o
364 1 3 -1 3 -1 2.25 0.51 13.36 <
365 2 3 -1 -3 0 1.41 3.08 6.52 <
365 1 3 -1 3 0 1.41 3.08 6.52 <
366 1 3 -1 3 1 1.89 8.03 16.60 <
367 1 4 -1 3 -1 14.93 23.00 16.38 <
368 2 4 -1 -3 0 10050.00 9486.85 363.23 o
368 1 4 -1 3 0 10050.00 9486.85 363.23 o
369 1 4 -1 3 1 56.97 65.24 31.53 <
370 1 5 -1 3 -1 4.01 5.17 15.50 <
371 2 5 -1 -3 0 4.62 26.81 34.97 <
371 1 5 -1 3 0 4.62 26.81 34.97 <
372 1 5 -1 3 1 4.36 -41.75 34.96 <
373 1 6 -1 3 -1 13.31 -0.51 15.99 <
374 2 6 -1 -3 0 8859.17 8883.00 348.55 o
374 1 6 -1 3 0 8859.17 8883.00 348.55 o
375 1 6 -1 3 1 20.89 50.59 34.24 <
376 1 1 0 3 -1 700.59 667.32 67.69 o
377 2 1 0 -3 0 30711.80 31386.20 405.07 o
377 1 1 0 3 0 30711.80 31386.20 405.07 o
378 1 1 0 3 1 446.04 443.09 46.22 o
379 1 2 0 3 -1 17.24 11.97 6.98 <
380 2 2 0 -3 0 448.64 390.07 37.25 o
380 1 2 0 3 0 448.64 390.07 37.25 o
381 1 2 0 3 1 5.77 -4.83 10.71 <
382 1 3 0 3 -1 326.56 265.58 32.86 o
383 2 3 0 -3 0 18803.10 18717.10 335.02 o
383 1 3 0 3 0 18803.10 18717.10 335.02 o
384 1 3 0 3 1 357.77 325.00 63.25 o
385 1 4 0 3 -1 0.66 7.33 11.50 <
386 2 4 0 -3 0 384.22 379.61 60.19 o
386 1 4 0 3 0 384.22 379.61 60.19 o
387 1 4 0 3 1 36.27 55.63 26.12 <
388 1 5 0 3 -1 367.57 306.70 68.12 o
389 2 5 0 -3 0 15632.10 16918.10 564.21 o
389 1 5 0 3 0 15632.10 16918.10 564.21 o
390 1 5 0 3 1 219.66 232.42 52.45 o
391 1 6 0 3 -1 15.13 25.03 28.23 <
392 2 6 0 -3 0 122.68 80.61 34.83 <
392 1 6 0 3 0 122.68 80.61 34.83 <
393 1 6 0 3 1 1.03 -1.97 19.34 <
394 1 0 1 3 -1 2272.67 2327.81 148.65 o
395 2 0 1 -3 0 24647.30 26275.10 507.16 o
395 1 0 1 3 0 24647.30 26275.10 507.16 o
396 1 0 1 3 1 1318.03 1306.72 107.45 o
397 1 1 1 3 -1 21.45 36.94 11.79 o
398 2 1 1 -3 0 108.39 101.74 22.20 o
398 1 1 1 3 0 108.39 101.74 22.20 o
399 1 1 1 3 1 0.06 -6.01 10.15 <
400 1 2 1 3 -1 1218.66 1073.63 84.96 o
401 2 2 1 -3 0 10870.20 10204.20 213.92 o
401 1 2 1 3 0 10870.20 10204.20 213.92 o
402 1 2 1 3 1 511.60 483.56 52.85 o
403 1 3 1 3 -1 1.50 6.13 7.49 <
404 2 3 1 -3 0 2.10 -9.78 13.96 <
404 1 3 1 3 0 2.10 -9.78 13.96 <
405 1 3 1 3 1 2.88 16.71 13.98 <
406 1 4 1 3 -1 1013.43 986.29 91.53 o
407 2 4 1 -3 0 9807.18 9186.47 284.52 o
407 1 4 1 3 0 9807.18 9186.47 284.52 o
408 1 4 1 3 1 489.04 423.08 59.40 o
409 1 5 1 3 -1 3.52 -11.48 7.49 <
410 2 5 1 -3 0 3.91 -4.42 11.23 <
410 1 5 1 3 0 3.91 -4.42 11.23 <
411 1 5 1 3 1 5.08 8.77 18.67 <
412 1 6 1 3 -1 829.01 940.87 100.60 o
413 2 6 1 -3 0 8715.74 9224.52 446.87 o
413 1 6 1 3 0 8715.74 9224.52 446.87 o
414 1 6 1 3 1 464.68 525.24 106.83 o
415 1 1 2 3 -1 3654.62 3645.63 232.67 o
416 2 1 2 -3 0 13725.20 14301.20 390.75 o
416 1 1 2 3 0 13725.20 14301.20 390.75 o
417 1 1 2 3 1 2406.83 2508.37 159.29 o
418 1 2 2 3 -1 39.51 37.57 19.59 <
419 2 2 2 -3 0 260.22 243.33 43.49 o
419 1 2 2 3 0 260.22 243.33 43.49 o
420 1 2 2 3 1 24.01 58.44 31.13 <
421 1 3 2 3 -1 2540.31 2449.16 166.25 o
422 2 3 2 -3 0 9048.31 8513.90 360.11 o
422 1 3 2 3 0 9048.31 8513.90 360.11 o
423 1 3 2 3 1 1849.04 1642.88 150.26 o
424 1 4 2 3 -1 8.58 -0.97 16.57 <
425 2 4 2 -3 0 226.23 205.32 58.61 o
425 1 4 2 3 0 226.23 205.32 58.61 o
426 1 4 2 3 1 54.17 50.63 18.60 <
427 1 5 2 3 -1 2221.54 2400.62 188.46 o
428 2 5 2 -3 0 8235.54 8557.88 425.06 o
428 1 5 2 3 0 8235.54 8557.88 425.06 o
429 1 5 2 3 1 1394.37 1354.83 162.00 o
430 1 0 3 3 -1 2753.58 2864.23 464.74 o
431 2 0 3 -3 0 6402.23 6925.66 769.75 o
431 1 0 3 3 0 6402.23 6925.66 769.75 o
432 1 0 3 3 1 1978.64 2283.32 448.81 o
433 1 1 3 3 -1 9.11 42.15 47.05 <
434 2 1 3 -3 0 35.08 -59.51 57.14 <
434 1 1 3 3 0 35.08 -59.51 57.14 <
435 1 1 3 3 1 0.50 17.53 42.61 <
436 1 2 3 3 -1 1608.75 1368.72 166.94 o
437 2 2 3 -3 0 2721.27 2344.73 215.16 o
437 1 2 3 3 0 2721.27 2344.73 215.16 o
438 1 2 3 3 1 938.20 887.43 101.75 o
439 1 3 3 3 -1 0.14 20.07 28.90 <
440 2 3 3 -3 0 1.47 -10.58 15.28 <
440 1 3 3 3 0 1.47 -10.58 15.28 <
441 1 3 3 3 1 2.41 -0.36 14.88 <
442 2 4 3 -3 0 2862.78 2498.41 367.62 o
442 1 4 3 3 0 2862.78 2498.41 367.62 o
443 1 4 3 3 1 933.69 863.95 136.96 o
444 1 1 -3 4 -1 701.21 753.68 107.49 o
445 2 1 -3 -4 0 6654.72 7105.76 344.54 o
445 1 1 -3 4 0 6654.72 7105.76 344.54 o
446 1 1 -3 4 1 633.36 706.51 113.61 o
447 1 2 -3 4 -1 2.91 -26.65 37.81 <
448 2 2 -3 -4 0 1.16 -0.87 23.20 <
448 1 2 -3 4 0 1.16 -0.87 23.20 <
449 1 2 -3 4 1 2.41 -55.00 65.34 <
450 1 3 -3 4 -1 634.51 566.86 131.80 o
451 2 3 -3 -4 0 8557.58 8307.37 399.02 o
451 1 3 -3 4 0 8557.58 8307.37 399.02 o
452 1 4 -3 4 -1 0.48 -13.72 37.52 <
453 1 0 -2 4 -1 8.05 26.08 23.60 <
454 2 0 -2 -4 0 3021.65 3494.35 208.47 o
454 1 0 -2 4 0 3021.65 3494.35 208.47 o
455 1 0 -2 4 1 243.75 283.14 61.50 o
456 1 1 -2 4 -1 0.07 2.62 10.57 <
457 2 1 -2 -4 0 305.43 304.28 42.97 o
457 1 1 -2 4 0 305.43 304.28 42.97 o
458 1 1 -2 4 1 2.41 51.16 24.59 <
459 1 2 -2 4 -1 1.21 6.03 11.37 <
460 2 2 -2 -4 0 2665.60 2548.05 141.92 o
460 1 2 -2 4 0 2665.60 2548.05 141.92 o
461 1 2 -2 4 1 133.08 81.32 34.23 <
462 1 3 -2 4 -1 4.98 3.90 13.64 <
463 2 3 -2 -4 0 43.81 47.19 23.74 <
463 1 3 -2 4 0 43.81 47.19 23.74 <
464 1 3 -2 4 1 2.50 -16.80 19.73 <
465 1 4 -2 4 -1 0.01 25.26 24.28 <
466 2 4 -2 -4 0 2007.69 2071.33 145.90 o
466 1 4 -2 4 0 2007.69 2071.33 145.90 o
467 1 4 -2 4 1 126.14 103.92 34.82 <
468 1 5 -2 4 -1 8.47 10.62 17.47 <
469 1 1 -1 4 -1 23.29 51.21 16.62 o
470 2 1 -1 -4 0 22967.50 23659.10 369.87 o
470 1 1 -1 4 0 22967.50 23659.10 369.87 o
471 1 1 -1 4 1 7.63 11.39 14.39 <
472 1 2 -1 4 -1 6.40 5.48 13.48 <
473 2 2 -1 -4 0 1.03 -13.80 6.59 <
473 1 2 -1 4 0 1.03 -13.80 6.59 <
474 1 2 -1 4 1 5.78 5.60 11.76 <
475 1 3 -1 4 -1 67.59 75.35 23.12 o
476 2 3 -1 -4 0 26795.70 24036.00 463.76 o
476 1 3 -1 4 0 26795.70 24036.00 463.76 o
477 1 3 -1 4 1 36.85 47.28 26.47 <
478 1 4 -1 4 -1 1.13 -1.09 21.27 <
479 2 4 -1 -4 0 1.46 4.96 16.10 <
479 1 4 -1 4 0 1.46 4.96 16.10 <
480 1 4 -1 4 1 0.54 -23.63 21.69 <
481 1 5 -1 4 -1 6.44 -3.00 25.25 <
482 2 5 -1 -4 0 11320.30 10029.60 423.54 o
482 1 5 -1 4 0 11320.30 10029.60 423.54 o
483 1 5 -1 4 1 2.11 -5.06 18.49 <
484 1 6 -1 4 -1 4.04 -9.10 12.09 <
485 1 0 0 4 -1 499.76 446.77 89.63 o
486 2 0 0 -4 0 5747.17 5733.22 241.03 o
486 1 0 0 4 0 5747.17 5733.22 241.03 o
487 1 0 0 4 1 7.52 3.97 13.41 <
488 1 1 0 4 -1 19.40 21.55 9.29 <
489 2 1 0 -4 0 528.48 504.06 57.84 o
489 1 1 0 4 0 528.48 504.06 57.84 o
490 1 1 0 4 1 29.49 26.24 15.96 <
491 1 2 0 4 -1 285.09 256.60 33.71 o
492 2 2 0 -4 0 5016.32 4554.53 143.54 o
492 1 2 0 4 0 5016.32 4554.53 143.54 o
493 1 2 0 4 1 45.59 45.62 15.24 <
494 1 3 0 4 -1 17.64 15.67 8.16 <
495 2 3 0 -4 0 69.52 57.58 17.35 o
495 1 3 0 4 0 69.52 57.58 17.35 o
496 1 3 0 4 1 0.37 -0.82 5.02 <
497 1 4 0 4 -1 232.88 253.14 67.89 o
498 2 4 0 -4 0 3568.21 3355.29 190.82 o
498 1 4 0 4 0 3568.21 3355.29 190.82 o
499 1 4 0 4 1 20.20 -8.67 11.15 <
500 1 5 0 4 -1 31.84 58.61 32.61 <
501 2 5 0 -4 0 124.30 135.37 45.30 <
501 1 5 0 4 0 124.30 135.37 45.30 <
502 1 5 0 4 1 0.71 -5.84 19.36 <
503 1 6 0 4 -1 186.81 149.02 60.66 <
504 2 6 0 -4 0 2388.84 3003.79 387.53 o
504 1 6 0 4 0 2388.84 3003.79 387.53 o
505 1 1 1 4 -1 3097.71 3367.93 160.55 o
506 2 1 1 -4 0 21845.80 23245.80 428.08 o
506 1 1 1 4 0 21845.80 23245.80 428.08 o
507 1 1 1 4 1 2012.54 2017.28 121.98 o
508 1 2 1 4 -1 4.60 20.66 13.44 <
509 2 2 1 -4 0 0.62 -1.09 10.08 <
509 1 2 1 4 0 0.62 -1.09 10.08 <
510 1 2 1 4 1 6.08 4.32 4.57 <
511 1 3 1 4 -1 3429.59 3287.43 198.09 o
512 2 3 1 -4 0 25669.40 24356.10 440.07 o
512 1 3 1 4 0 25669.40 24356.10 440.07 o
513 1 3 1 4 1 2341.05 2161.95 124.89 o
514 1 4 1 4 -1 0.06 20.09 14.63 <
515 2 4 1 -4 0 2.72 -2.48 11.85 <
515 1 4 1 4 0 2.72 -2.48 11.85 <
516 1 4 1 4 1 1.05 -7.84 18.10 <
517 1 5 1 4 -1 1543.31 1529.67 133.90 o
518 2 5 1 -4 0 10682.10 11051.30 363.41 o
518 1 5 1 4 0 10682.10 11051.30 363.41 o
519 1 5 1 4 1 1004.01 964.95 129.66 o
520 1 0 2 4 -1 914.62 1014.87 284.89 o
521 2 0 2 -4 0 2823.35 3122.10 298.80 o
521 1 0 2 4 0 2823.35 3122.10 298.80 o
522 1 0 2 4 1 312.83 258.07 70.16 o
523 1 1 2 4 -1 41.82 46.35 25.47 <
524 2 1 2 -4 0 301.89 339.60 66.54 o
524 1 1 2 4 0 301.89 339.60 66.54 o
525 1 1 2 4 1 56.59 56.05 39.18 <
526 1 2 2 4 -1 727.27 732.51 110.62 o
527 2 2 2 -4 0 2592.21 2400.37 196.05 o
527 1 2 2 4 0 2592.21 2400.37 196.05 o
528 1 2 2 4 1 423.85 497.82 86.32 o
529 1 3 2 4 -1 17.76 19.65 23.55 <
530 2 3 2 -4 0 40.62 56.12 32.90 <
530 1 3 2 4 0 40.62 56.12 32.90 <
531 1 3 2 4 1 0.59 21.82 23.68 <
532 1 4 2 4 -1 597.35 577.20 102.49 o
533 2 4 2 -4 0 1971.42 1678.04 171.45 o
533 1 4 2 4 0 1971.42 1678.04 171.45 o
534 1 4 2 4 1 293.41 323.63 74.56 o
535 1 5 2 4 1 0.80 0.34 17.29 <
536 1 1 3 4 -1 4283.80 4421.12 459.96 o
537 2 1 3 -4 0 5321.52 5789.54 702.65 o
537 1 1 3 4 0 5321.52 5789.54 702.65 o
538 1 1 3 4 1 2532.59 2769.42 347.96 o
539 1 2 3 4 -1 1.13 -39.87 34.15 <
540 2 2 3 -4 0 0.69 38.83 31.47 <
540 1 2 3 4 0 0.69 38.83 31.47 <
541 1 2 3 4 1 2.99 7.07 25.82 <
542 1 3 3 4 -1 4802.34 4520.13 334.46 o
543 2 3 3 -4 0 7099.24 6488.23 384.35 o
543 1 3 3 4 0 7099.24 6488.23 384.35 o
544 1 3 3 4 1 3049.30 3039.85 253.59 o
545 1 0 -3 5 -1 9.42 -20.50 36.72 <
546 2 0 -3 -5 0 15.02 21.05 30.67 <
546 1 0 -3 5 0 15.02 21.05 30.67 <
547 1 1 -3 5 -1 1.20 8.66 26.13 <
548 2 1 -3 -5 0 17.39 -3.60 16.86 <
548 1 1 -3 5 0 17.39 -3.60 16.86 <
549 1 2 -3 5 -1 19.46 12.94 13.57 <
550 1 3 -3 5 -1 3.02 0.35 22.46 <
551 1 1 -2 5 -1 69.54 58.06 22.84 <
552 2 1 -2 -5 0 14657.30 15178.20 645.87 o
552 1 1 -2 5 0 14657.30 15178.20 645.87 o
553 1 1 -2 5 1 90.50 105.20 39.31 <
554 1 2 -2 5 -1 3.06 4.56 8.81 <
555 2 2 -2 -5 0 116.08 88.37 28.23 o
555 1 2 -2 5 0 116.08 88.37 28.23 o
556 1 2 -2 5 1 0.54 1.28 16.12 <
557 1 3 -2 5 -1 31.35 24.51 13.83 <
558 2 3 -2 -5 0 10956.00 10288.60 325.70 o
558 1 3 -2 5 0 10956.00 10288.60 325.70 o
559 1 3 -2 5 1 138.32 119.54 32.57 o
560 1 4 -2 5 -1 4.73 9.73 31.22 <
561 2 4 -2 -5 0 140.92 107.17 34.95 o
561 1 4 -2 5 0 140.92 107.17 34.95 o
562 1 0 -1 5 -1 11.82 17.77 12.56 <
563 2 0 -1 -5 0 12.71 31.71 18.88 <
563 1 0 -1 5 0 12.71 31.71 18.88 <
564 1 0 -1 5 1 65.42 56.51 35.26 <
565 1 1 -1 5 -1 0.04 5.16 9.97 <
566 2 1 -1 -5 0 51.26 47.73 19.56 <
566 1 1 -1 5 0 51.26 47.73 19.56 <
567 1 1 -1 5 1 6.73 -14.26 13.73 <
568 1 2 -1 5 -1 113.87 119.74 29.00 o
569 2 2 -1 -5 0 726.44 791.22 74.63 o
569 1 2 -1 5 0 726.44 791.22 74.63 o
570 1 2 -1 5 1 18.20 35.64 20.03 <
571 1 3 -1 5 -1 6.16 5.77 14.48 <
572 2 3 -1 -5 0 0.51 -0.53 22.67 <
572 1 3 -1 5 0 0.51 -0.53 22.67 <
573 1 3 -1 5 1 7.63 34.94 22.56 <
574 1 4 -1 5 -1 50.00 88.23 45.40 <
575 2 4 -1 -5 0 238.99 235.76 67.68 o
575 1 4 -1 5 0 238.99 235.76 67.68 o
576 1 4 -1 5 1 20.94 13.05 18.48 <
577 1 5 -1 5 -1 13.90 8.60 15.93 <
578 2 5 -1 -5 0 0.46 -18.91 27.96 <
578 1 5 -1 5 0 0.46 -18.91 27.96 <
579 1 1 0 5 -1 1704.14 1772.41 119.56 o
580 2 1 0 -5 0 26274.90 28430.30 435.40 o
580 1 1 0 5 0 26274.90 28430.30 435.40 o
581 1 1 0 5 1 1045.14 1164.21 87.41 o
582 1 2 0 5 -1 21.36 19.07 11.08 <
583 2 2 0 -5 0 181.75 153.87 35.25 o
583 1 2 0 5 0 181.75 153.87 35.25 o
584 1 2 0 5 1 9.56 -0.94 15.53 <
585 1 3 0 5 -1 1383.26 1316.72 151.75 o
586 2 3 0 -5 0 18728.90 17853.10 375.59 o
586 1 3 0 5 0 18728.90 17853.10 375.59 o
587 1 3 0 5 1 575.57 537.99 65.68 o
588 1 4 0 5 -1 29.10 38.14 25.76 <
589 2 4 0 -5 0 236.47 284.90 72.47 o
589 1 4 0 5 0 236.47 284.90 72.47 o
590 1 4 0 5 1 6.47 12.39 12.51 <
591 1 5 0 5 -1 959.82 945.39 142.63 o
592 2 5 0 -5 0 15676.10 15220.90 581.71 o
592 1 5 0 5 0 15676.10 15220.90 581.71 o
593 1 5 0 5 1 679.90 590.49 114.57 o
594 1 0 1 5 -1 3.11 -0.40 18.86 <
595 1 0 1 5 1 30.41 28.69 16.69 <
596 1 1 1 5 -1 3.15 -11.16 15.79 <
597 2 1 1 -5 0 54.87 46.80 29.61 <
597 1 1 1 5 0 54.87 46.80 29.61 <
598 1 1 1 5 1 16.64 -4.47 6.78 <
599 1 2 1 5 -1 182.00 223.06 42.65 o
600 2 2 1 -5 0 746.77 670.96 75.38 o
600 1 2 1 5 0 746.77 670.96 75.38 o
601 1 2 1 5 1 9.90 23.76 15.36 <
602 1 3 1 5 -1 5.45 -52.48 27.39 <
603 2 3 1 -5 0 0.45 5.46 14.19 <
603 1 3 1 5 0 0.45 5.46 14.19 <
604 1 3 1 5 1 8.21 19.98 14.27 <
605 1 4 1 5 -1 67.36 33.21 23.25 <
606 2 4 1 -5 0 249.64 229.95 54.68 o
606 1 4 1 5 0 249.64 229.95 54.68 o
607 1 4 1 5 1 0.13 -15.04 19.70 <
608 1 5 1 5 -1 10.15 35.94 22.16 <
609 2 5 1 -5 0 0.60 -48.40 34.10 <
609 1 5 1 5 0 0.60 -48.40 34.10 <
610 1 1 2 5 -1 5386.95 5539.64 313.11 o
611 2 1 2 -5 0 12904.00 14141.20 505.22 o
611 1 1 2 5 0 12904.00 14141.20 505.22 o
612 1 1 2 5 1 3400.66 3531.84 204.68 o
613 1 2 2 5 -1 25.34 56.75 35.10 <
614 2 2 2 -5 0 102.70 109.63 43.31 <
614 1 2 2 5 0 102.70 109.63 43.31 <
615 1 2 2 5 1 17.27 -3.64 15.30 <
616 1 3 2 5 -1 4250.33 4194.15 272.80 o
617 2 3 2 -5 0 9399.36 8569.69 384.91 o
617 1 3 2 5 0 9399.36 8569.69 384.91 o
618 1 3 2 5 1 2242.66 2246.14 191.53 o
619 1 4 2 5 -1 46.29 51.34 37.69 <
620 2 4 2 -5 0 144.22 111.22 45.48 <
620 1 4 2 5 0 144.22 111.22 45.48 <
621 1 4 2 5 1 20.15 9.40 16.89 <
622 1 0 3 5 -1 1.64 -137.46 156.86 <
623 2 0 3 -5 0 13.03 -57.35 117.34 <
623 1 0 3 5 0 13.03 -57.35 117.34 <
624 1 0 3 5 1 9.39 -207.41 160.04 <
625 1 1 3 5 -1 6.38 -219.88 153.86 <
626 2 1 3 -5 0 21.04 -2.42 35.14 <
626 1 1 3 5 0 21.04 -2.42 35.14 <
627 1 1 3 5 1 15.18 106.29 70.81 <
628 1 2 3 5 1 36.52 36.92 38.02 <
629 1 0 -2 6 -1 44.26 38.37 36.91 <
630 2 0 -2 -6 0 126.09 101.22 55.38 <
630 1 0 -2 6 0 126.09 101.22 55.38 <
631 1 0 -2 6 1 6.18 4.09 13.74 <
632 1 1 -2 6 -1 12.72 20.32 17.97 <
633 2 1 -2 -6 0 76.13 84.78 39.66 <
633 1 1 -2 6 0 76.13 84.78 39.66 <
634 1 1 -2 6 1 0.22 38.56 15.59 <
635 1 2 -2 6 -1 43.79 58.85 31.57 <
636 2 2 -2 -6 0 557.17 540.18 78.91 o
636 1 2 -2 6 0 557.17 540.18 78.91 o
637 1 2 -2 6 1 43.43 7.54 19.33 <
638 1 3 -2 6 -1 0.58 -0.35 13.45 <
639 2 3 -2 -6 0 1.38 -19.85 18.90 <
639 1 3 -2 6 0 1.38 -19.85 18.90 <
640 1 1 -1 6 -1 488.48 540.10 82.29 o
641 2 1 -1 -6 0 16222.70 19564.70 448.40 o
641 1 1 -1 6 0 16222.70 19564.70 448.40 o
642 1 1 -1 6 1 111.85 95.38 41.23 <
643 1 2 -1 6 -1 0.07 -8.14 17.79 <
644 2 2 -1 -6 0 53.38 75.67 24.59 o
644 1 2 -1 6 0 53.38 75.67 24.59 o
645 1 2 -1 6 1 8.59 21.39 23.13 <
646 1 3 -1 6 -1 206.35 223.04 63.67 o
647 2 3 -1 -6 0 10753.60 10792.10 368.23 o
647 1 3 -1 6 0 10753.60 10792.10 368.23 o
648 1 3 -1 6 1 74.51 84.41 33.38 <
649 1 4 -1 6 -1 1.95 -69.76 43.81 <
650 2 4 -1 -6 0 72.89 79.90 39.90 <
650 1 4 -1 6 0 72.89 79.90 39.90 <
651 1 0 0 6 -1 0.87 7.18 20.27 <
652 2 0 0 -6 0 165.54 159.95 63.86 <
652 1 0 0 6 0 165.54 159.95 63.86 <
653 1 0 0 6 1 44.66 59.19 23.36 <
654 1 1 0 6 -1 40.13 55.71 19.47 <
655 2 1 0 -6 0 120.28 124.89 31.71 o
655 1 1 0 6 0 120.28 124.89 31.71 o
656 1 1 0 6 1 1.26 10.78 14.00 <
657 1 2 0 6 -1 20.57 26.97 15.69 <
658 2 2 0 -6 0 909.90 874.77 95.13 o
658 1 2 0 6 0 909.90 874.77 95.13 o
659 1 2 0 6 1 219.44 303.67 60.31 o
660 1 3 0 6 -1 0.53 16.37 6.84 <
661 2 3 0 -6 0 2.20 -5.82 19.19 <
661 1 3 0 6 0 2.20 -5.82 19.19 <
662 1 3 0 6 1 3.47 -0.83 7.68 <
663 1 4 0 6 -1 7.86 -106.01 57.46 <
664 2 4 0 -6 0 445.51 360.24 89.17 o
664 1 4 0 6 0 445.51 360.24 89.17 o
665 1 4 0 6 1 112.39 63.05 28.58 <
666 1 5 0 6 -1 1.20 44.66 75.45 <
667 1 1 1 6 -1 3954.83 4271.56 280.14 o
668 1 2 1 6 -1 5.32 6.01 12.99 <
669 2 2 1 -6 0 57.53 87.18 38.24 <
669 1 2 1 6 0 57.53 87.18 38.24 <
670 1 2 1 6 1 20.55 5.32 23.34 <
671 1 3 1 6 -1 2481.49 2409.89 190.32 o
672 2 3 1 -6 0 9991.48 9561.92 311.68 o
672 1 3 1 6 0 9991.48 9561.92 311.68 o
673 1 4 1 6 -1 9.61 -4.77 30.72 <
674 2 4 1 -6 0 69.85 51.36 29.84 <
674 1 4 1 6 0 69.85 51.36 29.84 <
675 1 4 1 6 1 22.28 13.00 19.97 <
676 1 0 2 6 -1 66.36 7.95 34.77 <
677 2 0 2 -6 0 70.51 19.88 45.74 <
677 1 0 2 6 0 70.51 19.88 45.74 <
678 1 0 2 6 1 61.79 146.14 84.69 <
679 1 1 2 6 -1 39.82 25.80 24.89 <
680 2 1 2 -6 0 68.66 85.40 61.17 <
680 1 1 2 6 0 68.66 85.40 61.17 <
681 1 1 2 6 1 5.71 42.54 38.39 <
682 1 2 2 6 -1 202.23 252.86 69.15 o
683 2 2 2 -6 0 419.95 380.35 85.74 o
683 1 2 2 6 0 419.95 380.35 85.74 o
684 1 2 2 6 1 308.48 278.37 70.95 o
685 1 3 2 6 1 3.27 7.90 20.92 <
686 1 1 -2 7 -1 32.74 44.77 27.27 <
687 1 2 -2 7 -1 2.65 -2.28 17.68 <
688 1 0 -1 7 -1 1.04 -32.70 21.87 <
689 2 0 -1 -7 0 1843.86 2081.16 266.44 o
689 1 0 -1 7 0 1843.86 2081.16 266.44 o
690 1 0 -1 7 1 157.92 231.03 92.13 <
691 1 1 -1 7 -1 3.59 16.01 20.88 <
692 2 1 -1 -7 0 83.41 119.79 37.65 o
692 1 1 -1 7 0 83.41 119.79 37.65 o
693 1 1 -1 7 1 14.70 10.31 25.76 <
694 1 2 -1 7 -1 45.64 71.70 30.52 <
695 2 2 -1 -7 0 2337.91 2572.54 157.98 o
695 1 2 -1 7 0 2337.91 2572.54 157.98 o
696 1 3 -1 7 -1 5.36 28.00 24.82 <
697 1 1 0 7 -1 1383.35 1461.60 126.13 o
698 2 1 0 -7 0 8470.99 9022.24 315.66 o
698 1 1 0 7 0 8470.99 9022.24 315.66 o
699 1 1 0 7 1 466.05 526.19 79.68 o
700 1 2 0 7 -1 6.09 19.95 13.51 <
701 2 2 0 -7 0 10.25 9.68 23.46 <
701 1 2 0 7 0 10.25 9.68 23.46 <
702 1 2 0 7 1 0.02 -29.37 31.06 <
703 1 3 0 7 -1 1530.31 1615.89 171.35 o
704 2 3 0 -7 0 9664.60 10269.40 437.80 o
704 1 3 0 7 0 9664.60 10269.40 437.80 o
705 1 0 1 7 -1 387.94 360.32 121.54 <
706 2 0 1 -7 0 1614.29 1167.69 222.98 o
706 1 0 1 7 0 1614.29 1167.69 222.98 o
707 1 1 1 7 -1 15.84 15.75 37.50 <
708 2 1 1 -7 0 82.04 82.24 37.46 <
708 1 1 1 7 0 82.04 82.24 37.46 <
709 1 1 1 7 1 32.93 -7.38 29.44 <
710 1 2 1 7 -1 659.90 643.44 109.73 o
711 2 2 1 -7 0 2055.53 1995.47 196.72 o
711 1 2 1 7 0 2055.53 1995.47 196.72 o
712 1 2 1 7 1 551.70 531.64 97.46 o
713 1 3 1 7 -1 9.87 47.11 38.96 <
714 1 1 -1 8 -1 359.66 486.94 88.31 o
715 1 0 0 8 -1 838.13 757.64 160.01 o
716 1 1 0 8 -1 2.31 -23.16 35.23 <
717 2 1 0 -8 0 0.06 -58.46 46.85 <
717 1 1 0 8 0 0.06 -58.46 46.85 <
718 1 2 0 8 -1 417.52 294.19 76.30 o
