#------------------------------------------------------------------------------
#$Date: 2020-04-04 07:13:24 +0300 (Sat, 04 Apr 2020) $
#$Revision: 250068 $
#$URL: file:///home/coder/svn-repositories/cod/cif/4/13/43/4134373.cif $
#------------------------------------------------------------------------------
#
# This file is available in the Crystallography Open Database (COD),
# http://www.crystallography.net/
#
# All data on this site have been placed in the public domain by the
# contributors.
#
data_4134373
loop_
_publ_author_name
'Ma, Ni'
'Li, Yan-Yan'
'Chen, Ling'
'Wu, Li-Ming'
_publ_section_title
;
 \a-CsCu<sub>5</sub>Se<sub>3</sub>: Discovery of a Low-Cost Bulk Selenide
 with High Thermoelectric Performance.
;
_journal_issue                   11
_journal_name_full               'Journal of the American Chemical Society'
_journal_page_first              5293
_journal_page_last               5303
_journal_paper_doi               10.1021/jacs.0c00062
_journal_volume                  142
_journal_year                    2020
_chemical_formula_sum            'Cs Cu5 Se3'
_chemical_formula_weight         687.49
_space_group_crystal_system      tetragonal
_space_group_IT_number           136
_space_group_name_Hall           '-P 4n 2n'
_space_group_name_H-M_alt        'P 42/m n m'
_audit_creation_method           SHELXL-2014/7
_cell_angle_alpha                90
_cell_angle_beta                 90
_cell_angle_gamma                90
_cell_formula_units_Z            4
_cell_length_a                   13.2692(7)
_cell_length_b                   13.2692(7)
_cell_length_c                   4.0748(3)
_cell_measurement_reflns_used    3862
_cell_measurement_temperature    293(2)
_cell_measurement_theta_max      27.49
_cell_measurement_theta_min      3.07
_cell_volume                     717.46(8)
_computing_structure_refinement  'SHELXL-2014/7 (Sheldrick, 2014)'
_diffrn_ambient_temperature      293(2)
_diffrn_measured_fraction_theta_full 11
_diffrn_measured_fraction_theta_max 0.927
_diffrn_measurement_device_type  'Bruker APEX-II CCD'
_diffrn_radiation_type           MoK\a
_diffrn_radiation_wavelength     0.71073
_diffrn_reflns_av_R_equivalents  0.0717
_diffrn_reflns_av_unetI/netI     0.0574
_diffrn_reflns_Laue_measured_fraction_full 11
_diffrn_reflns_Laue_measured_fraction_max 0.927
_diffrn_reflns_limit_h_max       14
_diffrn_reflns_limit_h_min       -17
_diffrn_reflns_limit_k_max       11
_diffrn_reflns_limit_k_min       -16
_diffrn_reflns_limit_l_max       3
_diffrn_reflns_limit_l_min       -5
_diffrn_reflns_number            1920
_diffrn_reflns_point_group_measured_fraction_full 11
_diffrn_reflns_point_group_measured_fraction_max 0.927
_diffrn_reflns_theta_full        25.242
_diffrn_reflns_theta_max         27.408
_diffrn_reflns_theta_min         3.070
_exptl_absorpt_coefficient_mu    34.684
_exptl_absorpt_correction_T_max  0.7123
_exptl_absorpt_correction_T_min  0.6123
_exptl_absorpt_correction_type   multi-scan
_exptl_crystal_colour            black
_exptl_crystal_density_diffrn    6.365
_exptl_crystal_description       prism
_exptl_crystal_F_000             1208
_exptl_crystal_size_max          0.93
_exptl_crystal_size_mid          0.65
_exptl_crystal_size_min          0.55
_exptl_transmission_factor_max   0.7253
_exptl_transmission_factor_min   0.6123
_refine_diff_density_max         1.845
_refine_diff_density_min         -2.148
_refine_diff_density_rms         0.452
_refine_ls_extinction_method     none
_refine_ls_goodness_of_fit_ref   1.079
_refine_ls_hydrogen_treatment    undef
_refine_ls_matrix_type           full
_refine_ls_number_parameters     31
_refine_ls_number_reflns         459
_refine_ls_number_restraints     0
_refine_ls_restrained_S_all      1.079
_refine_ls_R_factor_all          0.0549
_refine_ls_R_factor_gt           0.0468
_refine_ls_shift/su_max          0.000
_refine_ls_shift/su_mean         0.000
_refine_ls_structure_factor_coef Fsqd
_refine_ls_weighting_details
'w=1/[\s^2^(Fo^2^)+(0.0589P)^2^+10.2920P] where P=(Fo^2^+2Fc^2^)/3'
_refine_ls_weighting_scheme      calc
_refine_ls_wR_factor_gt          0.1173
_refine_ls_wR_factor_ref         0.1237
_reflns_Friedel_coverage         0.000
_reflns_number_gt                392
_reflns_number_total             459
_reflns_threshold_expression     'I > 2\s(I)'
_cod_data_source_file            ja0c00062_si_002.cif
_cod_data_source_block           Y
_cod_depositor_comments
'Adding full bibliography for 4134372--4134374.cif.'
_cod_original_cell_volume        717.46(9)
_cod_database_code               4134373
_shelx_shelxl_version_number     2014/7
_shelx_space_group_comment
;
The symmetry employed for this shelxl refinement is uniquely defined
by the following loop, which should always be used as a source of
symmetry information in preference to the above space-group names.
They are only intended as comments.
;
_shelx_estimated_absorpt_t_min   0.6123
_shelx_estimated_absorpt_t_max   0.7123
_shelx_res_file
;

    Y.res created by SHELXL-2014/7


TITL Y         P 42/m n m   R =  New: P42/mnm
CELL  0.71073   13.2692   13.2692    4.0748    90.000    90.000    90.000
ZERR  4           0.0007    0.0007    0.0003     0.000     0.000     0.000
LATT   1
SYMM     0.50000 - Y ,    0.50000 + X ,    0.50000 + Z
SYMM             - X ,            - Y ,              Z
SYMM     0.50000 + Y ,    0.50000 - X ,    0.50000 + Z
SYMM     0.50000 + X ,    0.50000 - Y ,    0.50000 - Z
SYMM               Y ,              X ,            - Z
SYMM     0.50000 - X ,    0.50000 + Y ,    0.50000 - Z
SYMM             - Y ,            - X ,            - Z
SFAC Cs Cu Se
UNIT     4   20  12
L.S. 5
FMAP 2
PLAN -20
ACTA
BOND $H
CONF
WGHT    0.058900   10.292000
FVAR       0.07467
CS1   1    0.611225    0.388775    0.000000    10.25000    0.01831    0.01831 =
         0.01243    0.00000    0.00000   -0.00081
CU3   2    0.315239    0.315239   -1.000000    10.25000    0.06574    0.06574 =
         0.01300    0.00000    0.00000   -0.03403
CU1   2    0.208044    0.418589   -0.500000    10.50000    0.01809    0.04854 =
         0.04183    0.00000    0.00000    0.00487
CU2   2    0.895479    0.483907    0.000000    10.50000    0.02872    0.01658 =
         0.02068    0.00000    0.00000   -0.00165
SE2   3    0.383903    0.383903   -0.500000    10.25000    0.01255    0.01255 =
         0.00794    0.00000    0.00000    0.00057
SE1   3    0.609408    0.165200   -0.500000    10.50000    0.01441    0.01359 =
         0.00715    0.00000    0.00000    0.00114

HKLF 4

REM  Y         P 42/m n m   R =  New: P42/mnm
REM R1 =  0.0468 for     392 Fo > 4sig(Fo)  and  0.0549 for all     459 data
REM     31 parameters refined using      0 restraints

END

WGHT      0.0589     10.2920

REM Highest difference peak  1.845,  deepest hole -2.148,  1-sigma level  0.452
Q1    1   0.3858  0.6142 -0.3069  10.50000  0.05    1.84
Q2    1   0.8190  0.1810  0.1846  10.50000  0.05    1.45
Q3    1   0.8391  0.6091 -0.1521  11.00000  0.05    1.35
Q4    1   0.8171  0.3938  0.1996  11.00000  0.05    1.31
Q5    1   0.9857  0.4105  0.1532  11.00000  0.05    1.30
Q6    1   0.6790  0.3401  0.1518  11.00000  0.05    1.23
Q7    1   0.4281  0.7157 -0.5000  10.50000  0.05    1.22
Q8    1   0.7141  0.2210  0.0000  10.50000  0.05    1.17
Q9    1   0.8398  0.0580  0.1294  11.00000  0.05    1.16
Q10   1   0.9480  0.6229 -0.1333  11.00000  0.05    1.13
Q11   1   0.4005  0.3466  0.1408  11.00000  0.05    1.10
Q12   1   0.5000  0.5000  0.1524  10.25000  0.05    1.09
Q13   1   0.4202  0.7656 -0.3599  11.00000  0.05    1.09
Q14   1   0.3086  0.3690  0.0000  10.50000  0.05    1.02
Q15   1   0.3897  0.3897  0.2139  10.50000  0.05    0.95
Q16   1   0.7763  0.2237  0.1620  10.50000  0.05    0.93
Q17   1   0.4210  0.2087  0.1780  11.00000  0.05    0.92
Q18   1   0.5449  0.4324  0.1364  11.00000  0.05    0.92
Q19   1   0.3015  0.1722  0.1189  11.00000  0.05    0.89
Q20   1   0.7076  0.2924  0.3474  10.50000  0.05    0.89
;
_shelx_res_checksum              81584
_shelx_hkl_file
;
  -2   0   0    5.90    0.50
  -2   1   0   11.94    0.95
  -3   0   0    0.12    0.07
  -3   1   0    1.42    0.16
   3  -2   0   42.47    3.31
  -4   1   0   55.61    4.37
  -4   2   0    0.67    0.12
   4  -3   0   33.35    2.61
  -5  -1   0  170.41   13.31
  -5   0   0    0.20    0.12
  -5   1   0  182.52   14.21
  -5   2   0   34.18    2.72
   5  -4   0  126.90    9.84
  -6  -2   0    1.46    0.31
  -6  -1   0   19.35    1.66
  -6   0   0   30.56    2.51
  -6   1   0   19.72    1.65
  -6   2   0    1.15    0.20
   6  -6   0   48.43    3.81
  -7  -5   0    8.41    0.92
  -7  -4   0   21.23    1.99
  -7  -3   0    0.27    0.21
  -7  -2   0    7.86    0.81
  -7  -1   0    7.41    0.77
  -7   0   0    0.05    0.17
  -7   1   0    7.02    0.70
  -7   2   0    5.73    0.57
  -8  -7   0   35.37    3.01
   7  -8   0   36.28    2.70
   7  -8   0   31.42    2.72
  -8  -6   0    0.40    0.30
  -8  -5   0   23.92    2.15
  -8  -4   0  145.44   11.52
  -8  -3   0   89.52    7.22
  -8  -2   0   33.40    2.82
  -8  -1   0   42.17    3.48
  -8   0   0  160.21   12.59
  -8   1   0   42.58    3.47
  -8   2   0   27.30    2.26
  -8   3   0   95.03    7.44
  -7  -8   0   34.63    3.03
  -8  -8   0  140.83   11.27
  -9  -8   0   10.76    1.43
  -9  -7   0    1.68    0.56
   7  -9   0    2.51    0.30
  -9  -6   0    0.01    0.28
  -9  -5   0  349.25   27.33
  -9  -4   0    0.53    0.30
  -9  -3   0   43.00    3.61
  -9  -2   0    1.95    0.44
  -9  -1   0   10.69    1.08
  -9   0   0    0.12    0.21
  -9   1   0   10.12    0.99
  -9   2   0    1.65    0.32
  -9   3   0   41.89    3.35
  -7  -9   0    1.84    0.55
  -8  -9   0   10.08    1.21
  -9  -9   0  259.55   20.52
 -10  -8   0    8.63    1.16
   7 -10   0   18.77    1.56
 -10  -7   0   18.05    1.99
   6 -10   0    3.14    0.41
 -10  -6   0    2.84    0.66
 -10  -5   0    8.77    1.08
 -10  -4   0   69.42    5.71
 -10  -3   0   47.84    4.02
 -10  -2   0    8.53    0.97
 -10  -1   0  191.26   15.07
 -10   0   0  523.68   40.75
 -10   1   0  177.31   13.94
 -10   2   0    6.57    0.71
 -10   3   0   45.31    3.63
  -7 -10   0   15.41    1.62
  -8 -10   0    8.08    1.18
   8 -11   0    9.10    0.76
   8 -11   0    8.62    0.78
   7 -11   0    4.08    0.51
 -11  -7   0    3.80    0.82
   6 -11   0   17.61    1.56
 -11  -6   0   18.01    1.83
 -11  -5   0   -0.05    0.34
   5 -11   0    0.07    0.21
 -11  -4   0    3.33    0.69
 -11  -3   0    1.29    0.46
 -11  -2   0  194.38   15.36
 -11  -1   0   17.41    1.79
 -11   0   0    0.04    0.25
 -11   1   0   15.57    1.47
 -11   2   0  146.72   11.56
 -11   3   0    0.79    0.23
  -6 -11   0   15.32    1.63
   8 -12   0    1.03    0.29
   8 -12   0    1.07    0.23
   7 -12   0   33.19    2.80
 -12  -7   0   35.37    3.19
   6 -12   0   -0.04    0.27
 -12  -6   0   -0.75    0.35
   5 -12   0   21.37    2.27
 -12  -5   0   23.44    2.20
 -12  -4   0   29.62    2.57
   4 -12   0   26.15    2.38
 -12  -3   0   27.88    2.55
 -12  -2   0    8.49    1.04
 -12  -1   0   46.35    3.93
 -12   0   0   21.76    2.01
 -12   1   0   40.77    3.44
 -12   2   0    6.86    0.77
 -12   3   0   28.26    2.33
  -5 -12   0   22.00    2.15
   8 -13   0    6.72    0.68
   7 -13   0    1.02    0.36
 -13  -6   0    1.98    0.62
   6 -13   0    1.50    0.69
   5 -13   0  137.42   11.24
 -13  -5   0  147.68   11.49
 -13  -4   0   29.48    2.81
   4 -13   0   30.91    2.65
   3 -13   0   49.73    4.19
 -13  -3   0   50.76    4.32
   2 -13   0   15.92    1.60
 -13  -2   0   16.73    1.68
 -13  -1   0   57.08    4.79
 -13   0   0    0.11    0.30
 -13   1   0   47.15    3.95
 -13   2   0   13.61    1.30
 -13   3   0   47.64    3.86
  -3 -13   0   48.70    4.15
   8 -14   0   41.73    3.39
   7 -14   0    0.05    0.33
   6 -14   0   12.40    1.29
   5 -14   0    0.47    0.39
 -14  -5   0   -0.26    0.47
 -14  -4   0   61.02    5.32
   4 -14   0   63.78    5.17
   3 -14   0    0.34    0.39
 -14  -3   0    0.48    0.47
   2 -14   0    0.71    0.46
 -14  -2   0    1.42    0.50
   1 -14   0    2.86    0.70
 -14  -1   0    3.08    0.67
 -14   0   0  126.43   10.69
   0 -14   0  141.32   10.76
 -14   1   0    2.15    0.48
  -1 -14   0    1.29    0.57
 -14   2   0    0.93    0.35
   8 -15   0   13.79    1.28
   6 -15   0    6.51    0.95
   5 -15   0    8.15    1.14
 -15  -4   0   50.57    4.56
   4 -15   0   53.44    4.43
   3 -15   0    0.56    0.50
 -15  -2   0    2.27    0.65
   2 -15   0    1.13    0.57
   1 -15   0    4.19    0.85
 -15  -1   0    2.09    0.60
 -15   0   0    0.43    0.37
   0 -15   0   -1.21    0.63
 -15   2   0    0.68    0.36
   6 -16   0    0.40    0.61
   5 -16   0   11.02    1.44
   4 -16   0    0.06    1.08
   3 -16   0   25.54    2.52
 -16  -3   0   26.37    2.60
 -16  -2   0    3.00    0.74
   2 -16   0    3.03    0.85
 -16  -1   0    1.70    0.57
 -16   0   0    1.28    0.47
 -16   1   0    0.54    0.45
 -16   2   0    2.70    0.53
 -17  -2   0   17.86    1.94
 -17  -1   0   19.10    1.99
 -17   0   0   -0.21    0.40
 -17   2   0   17.24    1.58
   0   0  -1    0.09    0.18
   0   0   1   -0.01    0.15
  -1   0  -1    5.45    0.55
   1   0  -1    5.12    0.59
   0   1  -1    3.52    0.52
   0  -1   1    4.29    0.52
  -1   0   1    4.77    0.54
  -1   1  -1    2.57    0.42
   1  -1  -1    3.64    0.46
   1   1  -1    2.50    0.45
  -1  -1   1    2.62    0.41
   1  -1   1    3.70    0.45
   2   1  -1   25.62    2.39
  -1   2  -1   29.77    2.38
   1  -2   1   30.79    2.37
  -2  -1   1   27.46    2.37
   2   0  -1   -0.16    0.15
   0   2  -1   -0.07    0.14
   0  -2   1   -0.08    0.09
  -2   0   1    0.14    0.16
  -2   1  -1   37.85    2.81
   2  -1  -1   30.75    2.85
  -1  -2   1   28.21    2.77
  -2   1   1   40.64    2.88
  -2   3  -1    4.57    0.51
   3   2  -1    4.75    0.58
  -3  -2   1    4.86    0.57
   2  -3   1    4.57    0.51
   3   1  -1  148.04   11.91
  -1   3  -1  153.64   11.87
   1  -3   1  145.32   11.84
  -3  -1   1  158.26   11.90
   3   0  -1   60.35    5.12
   0   3  -1   65.76    5.09
  -3   0   1   62.16    5.09
   0  -3   1   65.04    5.07
   1   3  -1  158.69   12.37
   3  -1  -1  134.33   12.38
  -3   1   1  172.17   12.39
  -1  -3   1  164.04   12.35
   2   3  -1    4.61    0.58
  -3   2  -1    3.97    0.50
   3  -2  -1    5.13    0.63
  -2  -3   1    5.08    0.56
   3   3  -1   66.03    5.95
   3  -3   1   83.10    5.91
  -3  -3   1   73.00    5.95
   4   3  -1   32.15    2.76
  -3   4  -1   31.67    2.64
   3  -4   1   32.61    2.65
  -4  -3   1   33.19    2.75
   4   2  -1   29.48    2.43
  -2   4  -1   26.93    2.33
   2  -4   1   26.07    2.31
  -4  -2   1   30.86    2.43
  -1   4  -1  292.24   22.34
   4   1  -1  273.51   22.38
   1  -4   1  294.36   22.32
  -4  -1   1  285.89   22.37
   0   4  -1    0.04    0.16
   4   0  -1    0.73    0.27
   0  -4   1    1.52    0.29
   1   4  -1  290.43   22.92
  -1  -4   1  315.91   22.91
  -4   1   1  274.57   22.90
   2   4  -1   27.07    2.55
   4  -2  -1   23.55    2.54
  -4   2  -1   31.82    2.47
  -2  -4   1   31.52    2.54
  -4   2   1   36.54    2.59
   4  -3  -1   36.03    2.76
   3   4  -1   30.82    2.69
  -4   3  -1   27.41    2.54
  -3  -4   1   33.72    2.67
   4  -4  -1    4.00    0.65
  -4   4  -1    3.36    0.39
   4   4  -1    4.27    0.67
  -4  -4   1    3.75    0.57
   5   4  -1    9.65    1.11
  -5  -4   1   13.42    1.15
   4  -5   1    9.84    0.96
   5   3  -1   -0.11    0.16
  -3   5  -1    0.65    0.19
   3  -5   1   -0.01    0.11
  -5  -3   1    0.07    0.21
   5   2  -1    1.27    0.34
  -2   5  -1    1.33    0.29
  -5  -2   1    0.93    0.31
   2  -5   1    1.20    0.26
   5   1  -1   74.27    6.29
  -1   5  -1   81.13    6.27
   1  -5   1   81.90    6.24
  -5  -1   1   75.82    6.30
   5  -1  -1   66.84    6.00
   1   5  -1   82.25    6.06
  -1  -5   1   79.90    6.00
  -5   1   1   70.91    6.00
   5  -2  -1    1.44    0.39
   2   5  -1    1.94    0.42
  -2  -5   1    1.07    0.30
  -5   2   1    1.49    0.35
   3   5  -1    0.14    0.18
  -5   3  -1    0.17    0.12
   5  -3  -1   -0.19    0.19
  -3  -5   1    0.02    0.17
   5  -4  -1    7.84    0.98
  -5   4  -1    8.50    0.76
  -4  -5   1   10.35    1.06
   5  -5  -1   -0.05    0.27
  -5  -5   1    0.04    0.20
   5  -6  -1   58.52    4.47
   5  -6   1   55.25    4.25
  -6  -5   1   46.17    4.38
   4  -6   1    2.41    0.38
  -6  -4   1    4.92    0.68
   6   3  -1   48.09    3.79
  -6  -3   1   46.47    3.77
   3  -6   1   41.18    3.61
   6   1  -1  267.97   22.25
  -6  -1   1  284.03   22.28
   1  -6   1  301.55   22.20
   6   0  -1    0.26    0.22
  -6   0   1    0.09    0.19
   0  -6   1    0.05    0.17
   6  -1  -1  259.57   20.49
  -6   1   1  247.25   20.48
  -1  -6   1  278.86   20.47
  -6   3  -1   38.57    3.09
   6  -3  -1   38.88    3.26
  -6   4  -1    3.29    0.30
   6  -4  -1    2.36    0.53
  -4  -6   1    3.59    0.57
   6  -5  -1   40.55    3.58
  -5  -6   1   43.89    3.56
   6  -6  -1  223.32   17.11
  -6  -6   1  210.50   17.06
   6  -7  -1    4.00    0.72
  -7  -6   1    3.31    0.64
   5  -7   1    1.01    0.25
  -7  -5   1    1.13    0.39
  -7  -4   1    0.10    0.26
   4  -7   1    0.02    0.15
   3  -7   1  143.22   11.52
  -7  -3   1  150.68   11.68
   7   2  -1    8.28    0.96
   2  -7   1    8.81    0.88
  -7  -2   1    9.33    1.00
   7   1  -1  127.88   10.38
  -7  -1   1  133.31   10.42
   1  -7   1  131.29   10.32
   7   0  -1   21.83    1.97
  -7   0   1   20.38    1.98
   0  -7   1   24.36    1.95
   7  -1  -1  121.88    9.71
  -1  -7   1  128.98    9.70
  -7   1   1  116.18    9.72
   7  -2  -1    8.43    0.88
  -7   2   1    7.98    0.90
  -2  -7   1    8.28    0.88
   7  -3  -1  123.67   10.41
  -7   3  -1  136.88   10.27
  -3  -7   1  133.87   10.43
   7  -4  -1    0.00    0.19
  -4  -7   1    0.15    0.25
   7  -5  -1    0.84    0.33
  -5  -7   1    0.83    0.34
  -6  -7   1    4.15    0.68
   7  -7  -1  137.73   11.59
  -7  -7   1  153.82   11.63
   7  -8  -1   14.37    1.53
  -8  -7   1   15.97    1.57
   6  -8  -1   90.56    6.92
  -8  -6   1   74.59    6.86
   6  -8   1   87.99    6.66
   5  -8   1   11.60    1.06
  -8  -5   1   11.40    1.25
  -8  -4   1   14.16    1.46
   4  -8   1   14.31    1.29
  -8  -3   1    5.04    0.80
   3  -8   1    5.29    0.62
   2  -8   1   20.39    1.76
  -8  -2   1   19.40    1.87
   8   1  -1   27.51    2.50
   1  -8   1   29.05    2.44
  -8  -1   1   29.36    2.55
   8   0  -1    0.02    0.21
  -8   0   1   -0.29    0.15
   0  -8   1    0.49    0.24
   8  -1  -1   26.97    2.24
  -8   1   1   23.68    2.24
  -1  -8   1   25.60    2.21
   8  -2  -1   17.28    1.59
  -2  -8   1   18.09    1.61
  -8   2   1   17.03    1.63
  -8   3  -1    5.15    0.51
   8  -3  -1    5.58    0.67
  -8   3   1    5.77    0.70
  -3  -8   1    4.82    0.66
   8  -4  -1   11.83    1.20
  -4  -8   1   13.09    1.26
   8  -5  -1   10.55    1.08
  -5  -8   1   10.93    1.15
   8  -6  -1   62.79    5.36
  -6  -8   1   69.62    5.45
   8  -7  -1   12.27    1.36
  -7  -8   1   15.78    1.46
   8  -8  -1    0.71    0.38
   8  -9  -1    0.14    0.35
  -9  -8   1    1.14    0.44
   7  -9  -1    3.23    0.67
  -9  -7   1    3.72    0.83
  -9  -6   1  127.41    9.90
   6  -9   1  118.77    9.61
   5  -9   1   29.26    2.54
  -9  -5   1   32.94    2.79
   4  -9   1    4.17    0.60
  -9  -4   1    4.50    0.78
   3  -9   1    6.90    0.77
  -9  -3   1    6.80    1.00
  -9  -2   1    3.76    0.71
   2  -9   1    4.57    0.59
  -9  -1   1    0.28    0.29
   1  -9   1    0.72    0.44
   9   0  -1   44.27    3.61
  -9   0   1   39.57    3.63
   0  -9   1   44.46    3.57
   9  -1  -1    0.59    0.28
  -9   1   1    0.42    0.29
  -1  -9   1    0.86    0.31
   9  -2  -1    3.49    0.57
  -9   2   1    4.17    0.70
  -2  -9   1    4.26    0.64
  -9   3  -1    5.52    0.53
  -9   3  -1    6.40    0.55
   9  -3  -1    5.23    0.69
  -3  -9   1    5.22    0.72
  -9   3   1    6.30    0.77
   9  -4  -1    3.72    0.56
  -4  -9   1    3.56    0.62
   9  -5  -1   27.70    2.42
  -5  -9   1   29.58    2.54
   9  -6  -1  112.30    9.15
  -6  -9   1  119.44    9.30
   9  -7  -1    3.08    0.52
  -7  -9   1    3.75    0.70
   9  -8  -1    1.14    0.35
  -8  -9   1    1.99    0.55
   9  -9  -1    1.55    0.41
   9 -10  -1    0.62    0.35
   8 -10  -1    0.49    0.40
 -10  -8   1    0.44    0.47
   7 -10  -1   36.96    3.31
 -10  -7   1   39.06    3.40
   6 -10   1    0.23    0.19
 -10  -6   1    0.02    0.37
   5 -10   1   21.34    1.91
 -10  -5   1   23.32    2.16
 -10  -4   1   77.87    6.50
   4 -10   1   79.14    6.30
   3 -10   1   25.67    2.27
 -10  -3   1   26.96    2.44
 -10  -2   1   28.02    2.60
   2 -10   1   28.67    2.46
   1 -10   1   43.75    3.73
 -10  -1   1   46.56    3.89
 -10   0   1    0.43    0.31
   0 -10   1    0.15    0.24
  -1 -10   1   40.82    3.41
 -10   1   1   40.03    3.47
  10  -2  -1   27.02    2.40
 -10   2  -1   32.70    2.32
  -2 -10   1   24.56    2.41
 -10   2   1   25.30    2.44
 -10   3  -1   25.00    2.04
  10  -3  -1   25.03    2.21
 -10   3   1   28.12    2.29
  -3 -10   1   24.03    2.26
  10  -4  -1   71.26    5.61
  -4 -10   1   67.80    5.70
  10  -5  -1   21.89    1.89
  -5 -10   1   21.47    2.03
  10  -6  -1    0.17    0.21
  -6 -10   1    0.00    0.28
  10  -7  -1   33.84    2.83
  -7 -10   1   34.90    3.05
  10  -8  -1    0.63    0.26
  10  -9  -1    1.00    0.29
  10 -10  -1    3.51    0.50
  10 -11  -1    5.94    0.67
   9 -11  -1   -0.08    0.30
   8 -11  -1    5.10    0.84
   7 -11  -1  411.48   31.38
 -11  -7   1  378.31   31.47
   7 -11   1  411.36   31.11
   6 -11   1   11.58    1.13
 -11  -6   1   12.76    1.43
   5 -11   1    0.45    0.27
 -11  -5   1    0.79    0.49
 -11  -4   1   40.09    3.71
   4 -11   1   43.78    3.53
   3 -11   1  473.76   36.42
 -11  -3   1  461.12   36.60
   2 -11   1    0.19    0.27
 -11  -2   1    0.73    0.44
   1 -11   1   74.38    5.97
 -11  -1   1   72.44    6.10
 -11   0   1    2.27    0.57
   0 -11   1    3.23    0.56
 -11   1  -1   72.74    5.72
 -11   1   1   66.10    5.85
  -1 -11   1   74.52    5.82
 -11   2  -1    0.37    0.20
  -2 -11   1    0.16    0.28
 -11   2   1    0.16    0.30
 -11   3  -1  383.05   32.19
 -11   3   1  467.92   32.45
  -3 -11   1  398.06   32.43
  11  -5  -1    1.01    0.30
  -5 -11   1    0.72    0.40
  11  -6  -1   11.55    1.09
  -6 -11   1   12.18    1.32
  11  -7  -1  351.70   27.33
  11  -8  -1    7.03    0.68
  11  -9  -1    0.02    0.14
  10 -12  -1    0.34    0.25
   9 -12  -1    2.86    0.58
   8 -12  -1    0.91    0.47
   7 -12   1   23.56    1.98
 -12  -6   1   38.04    3.39
   6 -12   1   36.12    3.07
   5 -12   1   16.77    1.56
 -12  -5   1   16.23    1.79
 -12  -4   1    6.13    1.06
   4 -12   1    6.73    0.83
 -12  -3   1    8.62    1.24
   3 -12   1    7.81    0.95
   2 -12   1   47.38    4.05
 -12  -2   1   50.00    4.24
 -12  -1  -1    3.52    0.64
 -12  -1   1    3.37    0.77
   1 -12   1    4.64    0.71
 -12   0  -1   -0.16    0.25
 -12   0   1    0.30    0.39
   0 -12   1    0.23    0.35
 -12   1  -1    3.87    0.60
 -12   1   1    4.72    0.80
  -1 -12   1    4.27    0.73
 -12   2  -1   45.56    3.61
  -2 -12   1   42.69    3.77
 -12   3  -1    4.24    0.42
 -12   3   1    4.86    0.73
  -3 -12   1    6.49    0.89
  -4 -12   1    5.56    0.88
  10 -13  -1    2.12    0.39
   9 -13  -1    2.65    0.60
   8 -13  -1    3.74    0.77
   7 -13   1    0.27    0.23
 -13  -6  -1   12.98    1.90
 -13  -5  -1    1.26    0.66
   5 -13   1    1.54    0.47
 -13  -5   1    0.49    0.48
 -13  -4  -1    5.28    0.97
 -13  -4   1    4.55    0.89
   4 -13   1    6.21    0.86
 -13  -3  -1    0.42    0.46
 -13  -3   1    0.19    0.45
   3 -13   1    0.99    0.42
 -13  -2  -1    2.26    0.59
   2 -13   1    2.94    0.63
 -13  -2   1    2.35    0.72
 -13  -1  -1    5.08    0.81
 -13  -1   1    5.83    1.01
   1 -13   1    5.31    0.87
 -13   0   1    9.87    1.22
   0 -13   1    9.76    1.15
 -13   1  -1    3.86    0.61
 -13   1   1    4.36    0.79
  -1 -13   1    4.48    0.88
 -13   2  -1    2.11    0.39
  -2 -13   1    2.97    0.65
 -13   2   1    2.31    0.60
 -13   3   1    1.08    0.45
  -3 -13   1    0.77    0.46
   9 -14  -1    2.11    0.55
   8 -14  -1    0.66    0.91
   7 -14   1    2.66    0.48
 -14  -5  -1    3.09    0.84
   5 -14   1    0.37    0.38
 -14  -4  -1   -0.35    0.54
 -14  -4   1   -0.09    0.47
   4 -14   1    0.20    0.38
 -14  -3  -1    3.78    0.83
   3 -14   1    3.50    0.68
 -14  -3   1    3.99    0.93
 -14  -2  -1   10.28    1.27
 -14  -2   1   11.63    1.42
   2 -14   1   11.43    1.28
 -14  -1  -1   49.24    4.02
 -14  -1   1   44.15    4.14
   1 -14   1   47.90    4.09
 -14   0  -1   -0.26    0.31
 -14   0   1   -0.01    0.37
   0 -14   1    0.48    0.42
 -14   1  -1   43.29    3.72
 -14   1   1   43.55    3.89
  -1 -14   1   47.96    3.90
 -14   2  -1    9.12    0.92
 -14   2   1    9.35    1.15
   5 -15   1    1.73    0.57
 -15  -4  -1   14.38    1.77
   4 -15   1   16.15    1.65
   3 -15   1   20.09    1.92
 -15  -3   1   17.39    2.06
 -15  -2  -1   -0.01    0.46
 -15  -2   1    0.27    0.56
   2 -15   1    0.33    0.51
 -15  -1  -1    0.65    0.47
   1 -15   1    0.73    0.57
 -15  -1   1    0.64    0.57
 -15   0  -1    0.28    0.37
 -15   0   1   -0.39    0.43
 -15   1  -1    0.45    0.31
 -15   1   1   -0.11    0.46
 -15   2  -1    0.79    0.23
 -15   2   1   -0.18    0.44
   4 -16   1    1.81    0.66
 -16  -3  -1    1.93    0.72
   3 -16   1    1.26    0.63
 -16  -2  -1  250.04   19.31
 -16  -2   1  221.48   19.39
   2 -16   1  259.20   19.33
 -16  -1  -1    1.12    0.52
 -16  -1   1    2.29    0.72
 -16   0  -1   -0.94    0.32
 -16   0   1    0.67    0.58
 -16   1  -1    0.82    0.37
 -16   1   1   -1.03    0.48
 -16   2  -1  201.33   16.31
 -16   2   1  219.08   16.60
   0   1  -2    0.51    0.39
  -1   0  -2    0.41    0.35
   1   0  -2    1.10    0.46
   0  -1  -2    2.17    0.52
  -1   0   2    1.95    0.48
   0  -1   2    0.14    0.33
   1  -1  -2   31.52    2.92
   1   1  -2   28.26    2.92
  -1   1  -2   30.15    2.89
  -1  -1  -2   37.55    2.94
  -1  -1   2   36.24    2.89
   2   1  -2    4.26    0.87
   1  -2  -2    6.28    0.93
  -1   2  -2    6.09    0.96
  -2  -1   2    7.16    0.84
   1  -2   2    6.48    0.85
  -2   0  -2    4.23    0.73
   0  -2  -2    4.32    0.71
   0   2  -2    2.77    0.67
   2   0  -2    2.68    0.68
  -2   0   2    3.56    0.69
   0  -2   2    4.06    0.66
  -2   1  -2    5.62    0.88
   1   2  -2    7.02    1.01
   2  -1  -2    4.61    0.88
  -1  -2   2    6.69    0.79
   2  -2  -2    0.05    0.31
   2   2  -2    0.12    0.29
  -2   2  -2    0.17    0.30
  -2  -2   2    0.22    0.28
  -2   3  -2   23.92    2.28
   2  -3  -2   26.62    2.37
   3   2  -2   21.58    2.33
  -3  -2   2   23.20    2.23
   2  -3   2   28.95    2.30
   3   1  -2    1.45    0.50
   1  -3  -2    2.10    0.56
  -1   3  -2    1.98    0.51
  -3  -1   2    0.98    0.45
   1  -3   2    1.83    0.47
   0   3  -2   -0.03    0.28
  -3   0  -2   -0.05    0.25
   3   0  -2    0.06    0.35
   0  -3   2    0.06    0.26
  -3   0   2    0.60    0.34
   1   3  -2    2.39    0.60
   3  -1  -2    1.13    0.48
  -3   1  -2    1.82    0.50
  -1  -3   2    1.57    0.40
  -3   1   2    1.32    0.47
   2   3  -2   21.09    2.16
   3  -2  -2   23.57    2.23
  -3   2  -2   24.17    2.12
  -2  -3   2   21.31    2.18
  -3   3  -2   46.50    4.12
   3  -3  -2   55.72    4.30
   3   3  -2   46.55    4.22
  -3  -3   2   47.64    4.11
  -3   4  -2   25.52    2.51
   3  -4  -2   29.77    2.67
  -4  -3   2   25.05    2.52
   3  -4   2   34.07    2.58
   4   2  -2    0.57    0.36
  -2   4  -2    0.00    0.27
   2  -4  -2    0.27    0.32
   2  -4   2    0.88    0.37
  -4  -2   2    0.16    0.29
   4   1  -2   43.46    4.05
  -1   4  -2   42.83    3.94
  -4  -1   2   48.95    3.95
   1  -4   2   49.21    3.89
   4   0  -2  624.74   48.93
   0   4  -2  589.51   48.80
  -4   0   2  677.64   48.83
   0  -4   2  613.01   48.70
   4  -1  -2   43.61    4.00
   1   4  -2   41.68    3.89
  -4   1  -2   49.81    3.85
   2   4  -2   -0.04    0.31
  -4   2  -2   -0.14    0.26
   4  -2  -2    0.43    0.41
  -2  -4   2   -0.21    0.22
  -4   3  -2   24.88    2.21
   3   4  -2   21.86    2.72
   4  -3  -2   25.39    2.40
  -3  -4   2   23.83    2.22
   4   4  -2  101.98    8.64
  -4   4  -2  108.88    8.52
   4  -4  -2  111.17    8.70
  -4  -4   2  101.30    8.54
   4  -5  -2  112.42    8.06
   5   4  -2   93.10    7.97
  -4   5  -2   94.52    7.80
  -5  -4   2   89.45    7.86
   5   3  -2    9.64    1.23
  -3   5  -2    8.77    1.08
   3  -5  -2   10.55    1.26
   3  -5   2   12.41    1.14
  -5  -3   2    8.87    1.13
   5   2  -2   27.73    2.72
  -2   5  -2   22.59    2.34
   2  -5   2   29.93    2.35
  -5  -2   2   24.76    2.37
  -1   5  -2  100.71    8.50
   5   1  -2  101.04    8.63
   1  -5   2  106.69    8.43
  -5  -1   2  111.97    8.53
   0   5  -2   -0.06    0.30
   5   0  -2    0.48    0.39
  -5   0   2    0.28    0.29
  -5   1  -2  127.80    8.76
   1   5  -2   95.38    8.76
   5  -1  -2  108.36    8.93
  -1  -5   2   98.02    8.68
  -5   1   2  113.57    8.78
   5  -2  -2   26.20    2.60
   2   5  -2   26.32    2.71
  -5   2  -2   27.19    2.39
  -2  -5   2   26.92    2.41
  -5   3  -2   10.67    1.09
   3   5  -2    9.63    1.19
   5  -3  -2    9.69    1.28
  -3  -5   2    8.81    1.07
   4   5  -2   88.06    7.75
  -5   4  -2   99.20    7.61
   5  -4  -2   93.10    7.83
  -4  -5   2   95.84    7.68
  -5   5  -2  940.06   73.94
   5  -5  -2 1000.00   74.22
  -5  -5   2  919.15   74.05
   6   5  -2   61.81    5.62
  -5   6  -2   67.08    5.42
  -6  -5   2   69.88    5.59
  -4   6  -2   25.73    2.25
   6   4  -2   24.76    2.42
  -6  -4   2   23.67    2.32
  -3   6  -2   30.00    2.90
   6   3  -2   31.58    3.07
   3  -6   2   40.57    2.94
  -6  -3   2   31.64    2.99
   6   2  -2    0.26    0.38
  -2   6  -2    1.21    0.44
  -6  -2   2    0.31    0.36
   2  -6   2    0.13    0.27
   6   1  -2   15.46    1.69
  -1   6  -2   15.86    1.59
   1  -6   2   15.04    1.89
  -6  -1   2   15.33    1.59
   0   6  -2   13.67    1.46
   6   0  -2   12.28    1.71
   0  -6   2   12.56    1.35
  -6   0   2   14.79    1.45
   6  -1  -2   14.84    1.72
  -1  -6   2   14.53    1.52
  -6   1   2   17.64    1.64
   6  -2  -2   -0.14    0.40
  -6   2  -2    0.77    0.34
   2   6  -2    0.54    0.40
  -2  -6   2    0.32    0.30
  -6   2   2    0.56    0.41
  -6   3  -2   30.88    2.72
   6  -3  -2   31.64    3.01
   3   6  -2   31.32    2.90
  -3  -6   2   31.46    2.79
   6  -4  -2   23.53    2.45
  -6   4  -2   24.60    2.17
   4   6  -2   24.39    2.38
  -4  -6   2   24.36    2.26
   6  -5  -2   64.52    5.71
  -6   5  -2   66.05    5.39
   5   6  -2   64.05    5.64
  -5  -6   2   70.47    5.57
   6  -6  -2   38.49    3.74
  -6   6  -2   37.03    3.17
   6   6  -2   41.82    3.53
  -6  -6   2   35.43    3.33
  -6   7  -2   22.97    2.02
   7   6  -2   23.52    2.35
   6  -7  -2   23.76    2.37
  -7  -6   2   21.67    2.21
   7   5  -2    7.05    1.14
  -5   7  -2    6.47    0.83
   5  -7  -2    7.96    1.19
   5  -7   2    6.95    0.91
  -7  -5   2    6.27    1.03
   7   4  -2   16.30    1.88
   4  -7  -2   19.45    1.93
  -4   7  -2   16.59    1.69
   4  -7   2   19.76    1.72
  -7  -4   2   17.32    1.82
  -3   7  -2    0.89    0.41
   7   3  -2    0.53    0.42
  -7  -3   2    0.32    0.37
   3  -7   2    0.78    0.36
  -2   7  -2    1.89    0.56
   7   2  -2    2.31    0.64
  -7  -2   2    2.09    0.59
   2  -7   2    3.39    0.96
  -1   7  -2    2.21    0.57
   7   1  -2    2.77    0.72
   1  -7   2    1.56    0.45
  -7  -1   2    2.71    0.63
   7   0  -2   -0.34    0.34
  -7   0   2    0.10    0.34
   0  -7   2   -0.11    0.26
   7  -1  -2    2.94    0.81
   1   7  -2    2.84    0.67
  -1  -7   2    3.60    0.64
  -7   1   2    2.34    0.63
  -7   2  -2    3.33    0.61
   7  -2  -2    2.01    0.80
   2   7  -2    3.02    0.72
  -7   2   2    2.49    0.64
  -2  -7   2    2.64    0.57
   7  -3  -2   -0.01    0.44
   3   7  -2    0.18    0.37
  -7   3  -2    0.07    0.27
  -3  -7   2    0.40    0.35
  -7   4  -2   15.57    1.44
   4   7  -2   16.65    1.73
   7  -4  -2   12.21    1.74
  -4  -7   2   15.28    1.56
   5   7  -2    6.24    1.06
  -7   5  -2    5.38    0.70
   7  -5  -2    5.10    1.67
  -5  -7   2    7.54    1.03
   6   7  -2   25.11    2.42
  -7   6  -2   24.36    2.01
   7  -6  -2   18.60    2.36
  -6  -7   2   23.53    2.24
   7  -7  -2   16.45    1.88
  -7  -7   2   15.43    1.83
   7  -8  -2   24.02    2.48
  -8  -7   2   24.13    2.34
   6  -8  -2    0.17    0.52
  -8  -6   2    0.50    0.48
   5  -8  -2   29.00    2.58
   8   5  -2   19.72    2.42
   5  -8   2   29.23    2.28
  -8  -5   2   22.43    2.40
  -4   8  -2  112.94    8.70
   8   4  -2  100.37    8.87
   4  -8   2  117.25    8.67
  -8  -4   2   99.87    8.81
  -3   8  -2   60.38    4.61
   8   3  -2   52.51    4.72
  -8  -3   2   55.12    4.70
   3  -8   2   49.17    4.67
   8   2  -2   19.52    2.04
  -2   8  -2   21.35    1.95
   2  -8   2   18.14    1.82
  -8  -2   2   19.75    1.98
   8   1  -2   28.07    2.93
  -1   8  -2   34.32    3.11
  -8  -1   2   33.15    2.93
   1  -8   2   32.30    2.80
   8   0  -2  111.30    9.78
   0   8  -2  125.35    9.77
   0  -8   2  117.74    9.64
  -8   0   2  126.54    9.75
   8  -1  -2   30.01    3.02
   1   8  -2   38.25    3.09
  -1  -8   2   30.88    2.87
  -8   1   2   32.87    2.98
   2   8  -2   20.82    2.06
  -8   2  -2   21.95    1.85
   8  -2  -2   16.78    2.00
  -2  -8   2   18.33    1.86
  -8   2   2   19.28    1.95
   8  -3  -2   50.66    4.66
   3   8  -2   58.56    4.68
  -8   3  -2   51.72    4.35
  -3  -8   2   51.46    4.46
   8  -4  -2  101.96    8.18
  -8   4  -2   94.47    7.72
  -4  -8   2   95.83    7.89
   8  -5  -2   19.82    2.24
  -8   5  -2   21.45    1.79
  -5  -8   2   19.25    1.98
  -8   6  -2   -0.03    0.17
   8  -6  -2   -0.27    0.46
  -6  -8   2    0.25    0.35
   8  -7  -2   16.97    2.14
  -7  -8   2   23.72    2.09
   8  -8  -2   73.39    6.29
   8  -9  -2    6.46    1.18
   7  -9  -2    2.82    0.82
  -9  -7   2    1.96    0.83
   6  -9  -2    1.96    0.66
  -9  -6   2    0.39    0.43
   5  -9  -2  344.61   25.18
   9   5  -2  295.17   25.13
   5  -9   2  346.93   24.88
  -9  -5   2  283.10   25.09
   9   4  -2    0.38    0.50
  -9  -4   2   -0.31    0.37
   4  -9   2    0.54    0.38
   9   3  -2   27.93    2.71
  -9  -3   2   29.90    2.70
   3  -9   2   26.54    2.47
   9   2  -2    1.32    0.59
  -9  -2   2    1.47    0.58
   2  -9   2    1.81    0.50
   9   1  -2   13.08    1.55
  -9  -1   2   14.14    1.54
   1  -9   2   13.38    1.40
   9   0  -2    0.81    0.51
   0  -9   2    0.66    0.39
  -9   0   2   -0.37    0.31
   9  -1  -2   11.43    1.49
  -9   1   2   13.90    1.49
  -1  -9   2   12.47    1.35
  -9   2  -2    2.07    0.46
   9  -2  -2    1.29    0.63
  -2  -9   2    1.10    0.45
  -9   2   2    1.10    0.57
  -9   3  -2   26.23    2.22
   9  -3  -2   23.75    2.49
  -3  -9   2   25.38    2.35
   9  -4  -2   -0.08    0.45
  -9   4  -2    0.16    0.22
  -4  -9   2    0.18    0.37
   9  -5  -2  236.37   20.12
  -9   5  -2  264.76   19.73
  -5  -9   2  256.46   20.00
   9  -6  -2    0.62    0.51
  -6  -9   2    0.38    0.37
   9  -7  -2   -0.17    0.44
   9  -8  -2    6.25    1.13
   9  -9  -2  154.36   12.54
   9 -10  -2   16.72    1.90
   8 -10  -2    4.70    0.97
   7 -10  -2   13.09    1.64
   6 -10  -2    5.01    1.01
   6 -10   2    5.93    0.81
   5 -10   2   10.30    1.05
 -10  -5   2    6.54    1.22
  10   4  -2   59.04    4.69
   4 -10   2   49.93    4.34
 -10  -4   2   48.68    4.58
  10   3  -2   33.31    3.02
 -10  -3   2   29.65    2.94
   3 -10   2   30.98    2.76
  10   2  -2    4.63    0.95
 -10  -2   2    5.33    0.99
   2 -10   2    5.91    0.90
  10   1  -2  114.55    9.60
 -10  -1   2  123.57    9.60
   1 -10   2  114.05    9.42
  10   0  -2  313.16   26.74
 -10   0   2  368.49   26.78
   0 -10   2  337.33   26.62
  10  -1  -2  105.77    9.39
  -1 -10   2  115.30    9.30
 -10   1   2  124.93    9.43
  10  -2  -2    3.75    0.87
 -10   2  -2    5.64    0.72
 -10   2   2    4.56    0.90
  -2 -10   2    4.73    0.83
  10  -3  -2   27.09    2.73
 -10   3  -2   29.73    2.46
 -10   4  -2   48.21    3.78
  10  -4  -2   43.61    4.10
  -4 -10   2   46.44    4.01
  10  -5  -2    5.38    1.02
 -10   5  -2    6.56    0.58
  -5 -10   2    5.59    0.95
  10  -6  -2    1.19    0.54
  10  -7  -2    8.42    1.29
  10  -8  -2    4.05    0.87
  10  -9  -2   18.47    1.96
  10 -10  -2   11.34    1.44
  10 -11  -2    6.05    1.05
   9 -11  -2    5.97    1.10
   8 -11  -2    5.03    1.05
   7 -11  -2    3.55    0.90
   6 -11  -2   14.66    1.85
   6 -11   2   17.97    1.63
   5 -11   2    0.01    0.38
 -11  -4   2    3.10    0.76
   4 -11   2    2.19    0.55
  11   3  -2    0.84    0.56
 -11  -3   2    1.43    0.63
   3 -11   2    0.72    0.41
  11   2  -2  124.45   10.18
   2 -11   2  126.87    9.99
 -11  -2   2  121.24   10.16
  11   1  -2   13.79    1.60
 -11  -1   2   13.90    1.56
   1 -11   2   11.85    1.40
  11   0  -2    0.62    0.54
 -11   0   2    0.46    0.50
   0 -11   2    0.49    0.39
  11  -1  -2   13.82    1.54
  -1 -11   2   11.23    1.34
 -11   1   2   12.47    1.50
  11  -2  -2  118.12   10.25
 -11   2  -2  141.90   10.08
 -11   2   2  127.33   10.26
  -2 -11   2  117.03   10.18
 -11   3  -2    0.89    0.31
  11  -3  -2    0.98    0.52
  -3 -11   2    0.73    0.47
 -11   4  -2    2.35    0.36
  11  -4  -2    1.74    0.63
  -4 -11   2    2.80    0.67
  11  -5  -2   -0.13    0.38
  11  -6  -2   11.91    1.42
  11  -7  -2    2.09    0.63
  11  -8  -2    3.71    0.79
  11  -9  -2    5.13    0.88
  11 -10  -2    5.63    0.93
  11 -11  -2   -1.08    0.40
  10 -12  -2    2.17    0.69
   9 -12  -2    2.96    0.82
   8 -12  -2    1.83    0.75
   7 -12  -2   21.41    2.28
   6 -12  -2    0.40    0.62
   6 -12   2    0.81    0.45
   5 -12   2   19.22    1.84
   4 -12   2   16.61    1.67
 -12  -3   2   21.53    2.27
   3 -12   2   20.78    2.04
   2 -12   2    4.54    0.83
 -12  -2   2    5.29    1.04
  12   1  -2   31.64    3.19
   1 -12   2   32.53    3.04
 -12  -1   2   40.07    3.37
  12   0  -2   14.56    1.65
 -12   0   2   12.78    1.63
   0 -12   2   13.83    1.53
  12  -1  -2   31.66    3.02
  -1 -12   2   31.34    2.91
 -12   1   2   34.26    3.08
  12  -2  -2    3.62    0.82
 -12   2  -2    3.91    0.63
  -2 -12   2    3.56    0.72
 -12   2   2    4.09    0.92
 -12   3  -2   21.44    1.84
  12  -3  -2   20.59    2.12
  12  -4  -2   17.53    1.74
 -12   4  -2   15.35    1.30
  12  -5  -2   16.26    1.74
  12  -6  -2    0.43    0.43
  12  -7  -2   16.86    1.75
  12  -8  -2    0.90    0.51
  12  -9  -2    3.71    0.84
   9 -13  -2  102.25    8.49
   8 -13  -2    4.54    1.03
   7 -13  -2    1.19    0.65
   6 -13   2    3.44    0.85
   5 -13   2  108.22    8.71
   4 -13   2   18.35    1.83
   3 -13   2   33.11    2.99
   2 -13   2   10.09    1.26
 -13  -2   2   11.15    1.44
   1 -13   2   41.43    4.04
 -13  -1   2   43.44    3.90
   0 -13   2   -0.13    0.39
  13  -1  -2   37.05    3.54
  -1 -13   2   40.22    3.51
 -13   1   2   40.76    3.63
  13  -2  -2   10.04    1.31
 -13   2  -2   10.47    1.07
 -13   2   2    8.53    1.40
  13  -3  -2   26.55    2.78
 -13   3  -2   33.40    2.51
 -13   3  -2   29.50    2.51
  13  -4  -2   17.10    1.78
  13  -5  -2   94.43    7.73
  13  -6  -2    1.24    0.53
  13  -7  -2    0.21    0.46
   7 -14  -2   -0.87    0.58
   6 -14   2    6.72    0.98
   5 -14   2    0.78    0.52
   3 -14   2    0.66    0.52
   2 -14   2    0.94    0.51
 -14  -1   2    1.92    0.78
   1 -14   2    3.52    0.75
 -14   0   2  121.34    9.98
 -14   1   2    2.25    1.19
 -14   2  -2    0.69    0.34
 -14   2  -2    0.87    0.36
 -14   2   2   -1.31    0.62
 -14   3  -2    0.40    0.18
 -14   3  -2    0.33    0.19
  14  -4  -2   44.17    3.86
  14  -5  -2   -0.27    0.42
  14  -6  -2    4.72    0.81
  14  -7  -2   -0.80    0.36
   5 -15   2    4.01    0.83
   4 -15   2   31.77    2.95
   3 -15   2    0.58    0.56
   2 -15   2    0.97    0.58
 -15  -1  -2    1.84    0.68
 -15   0   2    0.02    0.76
 -15   1   2    0.76    0.81
 -15   2  -2    0.21    0.28
 -15   2  -2    0.00    0.26
 -15   2   2   -1.81    0.88
   0   0  -3   -0.01    0.44
   0  -1  -3    3.02    0.81
   0   1  -3    2.08    0.71
   1   0  -3    2.88    0.81
  -1   0  -3    3.68    0.88
  -1  -1  -3    0.28    0.50
   1  -1  -3   -0.39    0.38
  -1   1  -3   -0.21    0.38
   1   1  -3   -0.23    0.44
   2   1  -3    9.18    1.46
  -1   2  -3    7.00    1.25
   1  -2  -3    6.79    1.29
  -2  -1  -3    7.50    1.24
  -2  -1   3    8.94    1.24
   0  -2  -3   -0.25    0.42
   2   0  -3    0.20    0.48
   0   2  -3   -0.12    0.36
  -2   0  -3    0.02    0.44
   1   2  -3    8.87    1.41
   2  -1  -3    6.88    1.29
  -1  -2  -3    8.77    1.35
  -2   1  -3    6.47    1.19
  -1  -2   3    9.14    1.15
   2   2  -3  293.70   22.37
  -2   2  -3  261.64   22.15
  -2  -2  -3  316.27   22.26
   2  -2  -3  247.72   22.18
  -2   3  -3    0.75    0.59
  -3  -2  -3    3.88    0.88
   2  -3  -3    1.17    0.70
   3   2  -3    2.74    0.87
  -3  -2   3    3.31    0.70
  -3  -1  -3   58.45    5.42
   1  -3  -3   58.37    5.48
   3   1  -3   65.95    5.66
  -1   3  -3   61.62    5.51
  -3  -1   3   72.41    5.45
   0   3  -3   27.44    2.83
   3   0  -3   29.79    2.95
   0  -3  -3   25.72    2.77
  -3   0  -3   24.63    2.69
   0  -3   3   34.81    2.75
   1   3  -3   64.82    5.63
   3  -1  -3   56.65    5.55
  -3   1  -3   55.20    5.41
  -1  -3  -3   64.53    5.54
  -1  -3   3   76.95    5.46
  -2  -3  -3    2.90    0.83
   2   3  -3    1.86    0.79
  -3   2  -3    1.68    0.63
   3  -2  -3    2.59    0.85
  -2  -3   3    2.88    0.65
   3  -3  -3   50.86    5.05
   3   3  -3   55.39    5.16
  -3   3  -3   53.34    4.97
  -3  -3   3   68.58    4.98
   3  -4  -3   15.12    1.94
  -3   4  -3   16.62    1.89
   4   3  -3   18.35    2.12
  -4  -3   3   18.23    1.85
   2  -4  -3   11.63    1.65
  -4  -2  -3   14.19    1.64
  -2   4  -3   11.97    1.56
   4   2  -3   14.06    1.81
  -4  -2   3   14.52    1.56
  -4  -1  -3  117.31    9.59
   1  -4  -3  114.22    9.65
   4   1  -3   95.60    9.68
  -1   4  -3  108.96    9.62
   1  -4   3  138.82    9.55
  -4  -1   3  122.63    9.53
   0   4  -3    0.29    0.54
  -4   0  -3    0.02    0.43
   0  -4  -3    0.74    0.53
   4   0  -3   -0.17    0.50
   0  -4   3    1.53    0.56
  -4   0   3   -0.14    0.44
  -4   1  -3  110.33    9.46
  -1  -4  -3  126.20    9.62
   4  -1  -3  109.29    9.68
   1   4  -3  107.05    9.59
  -1  -4   3  124.16    9.41
  -4   2  -3    9.97    1.43
   2   4  -3   12.42    1.64
   4  -2  -3   11.81    1.86
  -2  -4   3   13.06    1.42
   4  -3  -3   12.64    1.81
  -4   3  -3   14.54    1.71
   3   4  -3   17.40    2.01
  -3  -4   3   17.42    1.73
   4  -4  -3    5.74    1.33
  -4   4  -3    8.41    1.30
   4   4  -3    7.63    1.47
  -4  -4   3   10.31    1.22
   4  -5  -3    4.47    1.15
  -4   5  -3    5.68    1.06
   5   4  -3    6.54    1.33
  -5  -4   3    8.64    1.90
  -3   5  -3   -0.12    0.43
   5   3  -3    0.05    0.53
   3  -5  -3    0.47    0.64
  -5  -3   3    0.71    0.50
   5   2  -3    1.61    0.82
  -2   5  -3    1.11    0.59
   2  -5  -3    2.43    0.80
  -5  -2   3    1.79    0.59
   2  -5   3    1.85    0.63
   5   1  -3   32.49    3.37
  -5  -1  -3   31.69    3.13
  -1   5  -3   30.15    3.17
   1  -5  -3   34.37    3.25
   1  -5   3   34.75    3.04
  -5  -1   3   35.40    3.13
   0  -5  -3  467.06   33.90
  -5   0  -3  408.00   33.71
   0   5  -3  403.40   33.82
   5   0  -3  401.67   33.98
   0  -5   3  449.74   33.64
  -5   0   3  444.52   33.72
   5  -1  -3   30.52    3.03
  -5   1  -3   25.04    2.70
   1   5  -3   26.19    2.85
  -1  -5   3   31.93    2.70
  -5   2  -3    1.54    0.58
   5  -2  -3    0.94    0.65
   2   5  -3    0.47    0.56
  -2  -5   3    1.77    0.61
   3   5  -3   -0.07    0.58
  -5   3  -3    0.17    0.40
   5  -3  -3   -0.49    0.43
  -3  -5   3   -0.12    0.40
  -5   4  -3    8.21    1.21
   5  -4  -3    6.37    1.37
   4   5  -3    6.47    1.36
  -4  -5   3    7.46    1.31
  -5   5  -3    0.52    0.49
   5   5  -3    0.46    0.53
   5  -5  -3    0.14    0.62
  -5  -5   3    0.22    0.42
   6   5  -3   34.26    3.53
   5  -6  -3   38.45    3.55
  -5   6  -3   36.83    3.25
  -6  -5   3   31.73    3.22
  -4   6  -3    0.64    0.53
   4  -6  -3    1.30    0.76
   6   4  -3    0.66    0.72
  -6  -4   3    0.20    0.46
   3  -6  -3   21.92    2.35
  -3   6  -3   21.09    2.16
   6   3  -3   22.44    2.50
  -6  -3   3   17.33    2.28
  -2   6  -3  431.18   37.86
   6   2  -3  476.60   38.17
   2  -6  -3  491.27   38.02
   2  -6   3  535.56   37.78
  -6  -2   3  477.31   37.84
   1  -6  -3  163.16   12.80
   6   1  -3  154.69   12.95
  -6  -1  -3  165.07   12.69
  -1   6  -3  136.30   12.65
  -6  -1   3  158.49   12.62
   1  -6   3  160.01   12.52
   6   0  -3   -0.37    0.55
  -6   0  -3    0.61    0.55
   0   6  -3    0.23    0.57
  -6   0   3    0.90    0.62
   0  -6   3    0.29    0.43
   1   6  -3  146.78   12.01
   6  -1  -3  147.19   12.19
  -6   1  -3  135.12   11.79
  -6   1   3  153.91   11.88
  -1  -6   3  148.00   11.76
   6  -2  -3  449.46   33.83
  -6   2  -3  383.74   33.37
   2   6  -3  435.80   33.66
  -2  -6   3  436.68   33.40
  -6   3  -3   20.54    2.15
   3   6  -3   22.32    2.44
   6  -3  -3   20.10    2.45
  -3  -6   3   23.64    2.35
   4   6  -3    0.41    0.60
  -6   4  -3    0.08    0.44
   6  -4  -3   -0.41    0.49
  -4  -6   3    0.54    0.41
  -6   5  -3   34.30    3.09
   6  -5  -3   29.93    3.36
   5   6  -3   37.76    3.50
  -5  -6   3   32.92    3.13
   6   6  -3  127.69   10.43
   6  -6  -3  116.97   10.33
  -6   6  -3  130.06   10.07
  -6  -6   3  118.42   10.30
   6  -7  -3    4.47    1.13
  -6   7  -3    3.27    0.77
   7   6  -3    4.02    1.11
   7   5  -3    0.54    0.74
   5  -7  -3    0.44    0.71
  -5   7  -3    1.65    0.56
  -7  -5   3    0.54    0.72
   7   4  -3    0.35    0.71
   4  -7  -3    1.42    0.79
  -4   7  -3    0.37    0.52
  -7  -4   3    1.91    0.70
  -3   7  -3   96.08    8.90
   7   3  -3  103.04    9.22
   3  -7  -3  111.36    9.14
  -7  -3   3  103.67    8.95
   3  -7   3  127.47    8.90
   7   2  -3    0.91    0.82
   2  -7  -3    1.65    0.75
  -2   7  -3    1.75    0.70
   2  -7   3    0.87    0.56
  -7  -2   3    1.43    0.60
  -1   7  -3   69.29    6.37
   7   1  -3   79.28    6.71
   1  -7   3   75.87    6.22
   0   7  -3   12.44    1.66
   7   0  -3   15.00    2.14
  -7   0  -3   14.21    1.62
   0  -7   3   12.40    1.48
  -7   0   3   12.12    1.62
   7  -1  -3   64.79    6.18
  -7   1  -3   68.01    5.83
   1   7  -3   69.04    6.03
  -1  -7   3   65.96    5.77
  -7   1   3   75.29    5.94
   2   7  -3    1.77    0.77
   7  -2  -3    0.38    0.67
  -2  -7   3    2.56    0.74
   7  -3  -3   99.53    8.00
   3   7  -3   93.46    7.82
  -7   3  -3   85.34    7.47
  -3  -7   3   87.83    7.51
   4   7  -3    1.07    0.66
  -7   4  -3    0.88    0.50
   7  -4  -3    1.11    0.76
  -4  -7   3    0.92    0.55
   5   7  -3    1.36    0.72
   7  -5  -3    0.48    0.69
  -5  -7   3    0.85    0.55
   6   7  -3    3.81    1.08
   7  -6  -3    3.12    1.01
  -7   6  -3    3.52    0.74
  -7   7  -3  107.54    8.81
   7  -7  -3  105.58    9.24
   7   7  -3  113.47    9.33
  -7   8  -3    7.00    1.05
   8   7  -3    8.61    1.58
   7  -8  -3    6.83    1.43
   6  -8  -3   34.68    3.43
   8   6  -3   32.68    3.46
  -6   8  -3   32.82    3.04
   5  -8  -3    5.39    1.22
  -5   8  -3    4.85    0.96
   8   5  -3    5.97    1.35
  -4   8  -3    8.08    1.31
   8   4  -3    6.39    1.49
   4  -8  -3    9.98    1.55
   4  -8   3    9.91    1.24
   8   3  -3    0.83    0.73
  -3   8  -3    0.55    0.58
   3  -8  -3    2.15    0.82
   3  -8   3    0.60    0.50
  -8  -3   3    0.54    0.58
  -2   8  -3   19.14    2.15
   8   2  -3   17.99    2.35
  -8  -2   3   19.32    2.11
   2  -8   3   20.60    1.99
   8   1  -3   16.26    2.18
  -1   8  -3   15.38    1.94
  -8  -1   3   19.90    2.00
   1  -8   3   17.28    1.83
  -8   0  -3    1.05    0.62
   0   8  -3    0.75    0.65
   8   0  -3    0.01    0.62
  -8   0   3    0.01    0.55
   0  -8   3    0.23    0.46
   1   8  -3   15.61    1.92
  -8   1  -3   15.22    1.78
   8  -1  -3   15.74    2.13
  -8   1   3   20.22    3.18
   2   8  -3   19.40    2.13
  -8   2  -3   16.03    1.77
   8  -2  -3   15.38    2.16
  -2  -8   3   17.05    1.83
   3   8  -3    1.06    0.81
  -8   3  -3   -0.27    0.30
   8  -3  -3   -0.08    0.62
  -3  -8   3    0.23    0.44
   4   8  -3    8.44    1.50
   8  -4  -3    6.00    1.44
  -8   5  -3    4.48    0.80
   8  -5  -3    4.45    1.20
   5   8  -3    4.99    1.21
   6   8  -3   31.44    3.31
  -8   6  -3   31.88    2.84
   8  -6  -3   30.69    3.32
   7   8  -3    9.42    1.62
   8  -7  -3    5.21    1.33
  -8   7  -3    6.10    0.94
   8  -8  -3   -0.40    0.59
   8   8  -3    1.69    0.91
  -8   8  -3    0.10    0.42
   8  -9  -3   -0.08    0.63
   9   7  -3    1.42    0.96
   7  -9  -3    1.54    0.87
   6  -9  -3   58.63    5.52
   9   6  -3   67.39    5.75
  -6   9  -3   59.22    5.16
  -5   9  -3   12.25    1.55
   5  -9  -3   17.68    1.99
   9   5  -3   12.34    2.03
   9   4  -3   -0.31    0.56
   4  -9  -3    0.19    0.60
  -4   9  -3    1.13    0.61
   4  -9   3    0.43    0.57
  -3   9  -3    2.48    0.80
   3  -9  -3    3.25    0.93
   9   3  -3    2.21    0.95
   3  -9   3    2.94    0.74
  -2   9  -3    2.06    0.82
   9   2  -3    1.71    0.92
  -9  -2   3    3.27    0.85
   2  -9   3    2.99    0.73
  -1   9  -3    2.44    0.89
   9   1  -3    0.28    0.74
   1  -9   3    2.68    0.70
  -9  -1   3    1.95    0.82
  -9   0  -3   51.47    4.16
   0   9  -3   42.01    4.19
   9   0  -3   45.08    4.46
  -9   0   3   43.95    4.14
   1   9  -3    1.88    0.83
  -9   1  -3    1.91    0.69
   9  -1  -3    2.00    0.95
  -1  -9   3    1.78    0.64
  -9   1   3    3.04    0.91
   2   9  -3    1.28    0.81
  -9   2  -3    1.98    0.62
   9  -2  -3    1.64    0.94
  -2  -9   3    1.95    0.63
  -9   3  -3    2.56    0.62
   3   9  -3    3.70    1.08
   9  -3  -3    1.54    0.93
   4   9  -3    1.28    0.81
  -9   4  -3    0.48    0.38
   9  -4  -3   -0.99    0.62
   5   9  -3   15.07    1.96
   9  -5  -3   15.64    2.26
  -9   5  -3   12.25    1.42
   9  -6  -3   55.49    5.56
  -9   6  -3   57.31    5.02
   6   9  -3   73.52    5.76
   9  -7  -3    1.92    0.95
  -9   7  -3    1.94    0.51
   9  -8  -3    0.02    0.65
   9  -9  -3   -0.36    0.60
   9 -10  -3    0.01    0.70
   8 -10  -3    1.43    0.84
   7 -10  -3   23.39    2.64
  10   6  -3    0.11    0.88
   6 -10  -3    0.26    0.72
  10   5  -3    8.41    1.70
   5 -10  -3   13.66    1.88
   5 -10   3    8.65    1.30
   4 -10  -3   36.14    3.70
  10   4  -3   35.13    3.79
   4 -10   3   40.53    3.42
  -3  10  -3   22.83    2.23
  10   3  -3   15.68    2.32
   3 -10   3   20.42    2.05
  10   2  -3   22.39    2.71
  -2  10  -3   24.14    2.51
   2 -10   3   24.43    2.33
  -1  10  -3   36.35    3.39
  10   1  -3   32.00    3.53
   1 -10   3   34.64    3.21
 -10   0  -3   -0.28    0.49
   0  10  -3    1.01    0.74
  10   0  -3    0.05    0.75
 -10   0   3   -0.15    0.60
   0 -10   3    0.08    0.46
 -10   1  -3   34.98    3.13
  10  -1  -3   31.74    3.49
   1  10  -3   40.06    3.48
  -1 -10   3   29.16    3.06
 -10   1   3   33.49    3.26
   2  10  -3   25.94    2.63
 -10   2  -3   20.00    2.16
  10  -2  -3   23.46    2.70
 -10   3  -3   16.66    1.88
   3  10  -3   18.61    2.21
  10  -3  -3   15.32    2.37
 -10   4  -3   27.27    2.55
  10  -4  -3   30.06    3.21
  10  -5  -3    6.98    1.40
 -10   5  -3    4.23    0.72
 -10   6  -3    0.00    0.32
  10  -6  -3   -0.16    0.61
  10  -7  -3   15.60    2.17
 -10   7  -3   18.79    1.66
  10  -8  -3    1.51    0.80
  10  -9  -3    1.06    0.72
  10 -10  -3    1.88    0.87
   8 -11  -3    3.36    1.03
   7 -11  -3  221.00   17.91
   6 -11  -3   10.19    1.71
   5 -11  -3    0.51    0.72
   5 -11   3    0.21    0.60
   4 -11  -3   23.48    2.75
  11   4  -3   22.05    2.87
   4 -11   3   29.76    2.54
  11   3  -3  232.21   18.91
  11   2  -3    0.99    0.86
   2 -11   3    0.80    0.57
  11   1  -3   43.40    4.35
   1 -11   3   44.90    3.96
 -11   0  -3    2.91    0.81
  11   0  -3    1.46    0.93
   0 -11   3    3.08    0.73
  11  -1  -3   45.31    4.34
 -11   1  -3   43.09    3.90
  11  -2  -3    0.38    0.78
 -11   2  -3   -0.24    0.38
  11  -3  -3  213.56   17.44
  11  -4  -3   20.60    2.47
 -11   4  -3   20.42    1.94
 -11   5  -3    0.48    0.35
  11  -5  -3    0.28    0.79
  11  -6  -3    8.12    1.55
 -11   6  -3    8.82    0.95
  11  -7  -3  186.50   15.31
  11  -8  -3    1.65    0.89
   7 -12  -3    7.87    1.40
   6 -12  -3   23.68    2.68
   5 -12  -3    9.11    1.64
   5 -12   3   10.85    1.43
   4 -12  -3    2.68    0.97
  12   4  -3    3.21    1.17
   4 -12   3    3.38    0.85
  12   3  -3    5.25    1.36
   3 -12   3    5.94    1.03
  12   2  -3   32.98    3.60
   2 -12   3   35.45    3.22
  12   1  -3    3.22    1.15
 -12   0  -3   -0.26    0.50
  12   0  -3   -0.46    0.68
 -12   1  -3    4.96    0.93
  12  -1  -3    5.26    1.33
  12  -2  -3   30.46    3.24
 -12   2  -3   29.17    2.71
  12  -3  -3    4.66    1.26
 -12   3  -3    2.39    0.78
  12  -4  -3    2.32    0.99
 -12   4  -3    3.09    0.58
 -12   5  -3   10.86    1.05
  12  -5  -3    7.41    1.60
  12  -6  -3   13.72    1.98
  12  -7  -3    4.08    1.19
   5 -13  -3    1.11    1.06
   5 -13   3    1.07    0.78
   4 -13  -3    2.13    1.54
   4 -13   3    1.00    0.75
  13   3  -3    0.25    0.80
   3 -13   3    0.15    0.69
  13   1  -3    1.45    0.95
 -13   0  -3    7.73    1.23
  13   0  -3    7.51    1.52
  13  -1  -3    3.42    1.05
 -13   1  -3    1.74    0.66
  13  -2  -3   -1.20    0.68
 -13   2  -3    0.76    0.46
 -13   3  -3    0.07    0.33
  13  -3  -3   -1.50    0.55
  13  -4  -3    1.56    0.92
 -13   4  -3    2.60    0.50
 -13   5  -3    0.40    0.28
  13  -5  -3    0.24    0.72
  14   1  -3   23.84    2.79
  14   0  -3    0.65    1.24
  14  -1  -3   19.69    2.41
 -14   1  -3   18.74    1.94
 -14   2  -3    4.15    0.72
  14  -2  -3    2.55    1.07
   0   0  -4  862.12   67.54
   0   1  -4    1.41    0.82
  -1   0  -4    0.51    0.62
   0  -1  -4    1.71    0.72
   1   0  -4    1.02    0.57
   1   1  -4    3.77    1.04
  -1  -1  -4    2.52    0.96
   1  -1  -4    3.76    1.11
  -1   1  -4    4.94    1.18
  -2  -1  -4    1.20    0.78
   2   1  -4   -0.08    0.61
  -1   2  -4    0.22    0.64
   1  -2  -4    0.43    0.60
   0   2  -4    2.06    0.87
   0  -2  -4    0.34    0.68
   2   0  -4    1.17    0.82
  -2   0  -4   -0.20    0.50
  -2   1  -4    0.85    0.65
   1   2  -4   -0.18    0.68
   2  -1  -4    0.56    0.67
  -1  -2  -4    0.70    0.70
  -2   2  -4    0.36    0.59
  -2  -2  -4   -0.66    0.55
   2  -2  -4    0.12    0.59
   2   2  -4   -0.48    0.52
   2  -3  -4    1.91    0.95
  -3  -2  -4    1.49    0.80
   3   2  -4    2.09    0.97
  -2   3  -4    2.10    0.77
   1  -3  -4    0.10    0.62
   3   1  -4    0.23    0.58
  -1   3  -4    2.07    0.92
  -3  -1  -4    0.52    0.71
   0   3  -4    0.29    0.64
   0  -3  -4    0.39    0.65
   3   0  -4    0.14    0.53
  -3   0  -4    0.13    0.55
   1   3  -4    1.05    0.84
   3  -1  -4    1.05    0.76
  -1  -3  -4    0.42    0.72
  -3   1  -4    0.92    0.64
   2   3  -4    1.86    0.95
   3  -2  -4    1.33    0.82
  -3   2  -4    1.51    0.79
  -2  -3  -4    1.01    0.81
   3  -3  -4    8.01    1.60
   3   3  -4   13.36    2.07
  -3   3  -4   11.00    1.73
  -3  -3  -4   11.51    1.78
   4   3  -4   11.09    2.03
   3  -4  -4    9.32    1.75
  -4  -3  -4   13.62    1.95
  -3   4  -4   12.69    1.91
   2  -4  -4   -0.17    0.63
   4   2  -4    0.44    0.73
  -4  -2  -4    0.45    0.74
  -2   4  -4    0.11    0.61
  -1   4  -4   32.39    3.29
   4   1  -4   32.72    3.41
  -4  -1  -4   27.50    3.14
   1  -4  -4   31.16    3.28
   0   4  -4  291.04   21.45
   4   0  -4  265.08   21.47
   0  -4  -4  249.23   21.28
  -4   0  -4  253.90   21.22
  -4   1  -4   25.03    2.89
   4  -1  -4   24.25    3.02
  -1  -4  -4   30.88    3.09
   1   4  -4   32.85    3.20
   2   4  -4    0.20    0.74
  -2  -4  -4   -0.60    0.58
   4  -2  -4    0.10    0.63
  -4   2  -4    0.38    0.61
  -4   3  -4   11.72    1.84
  -3  -4  -4   11.30    1.87
   3   4  -4   14.29    2.15
   4  -3  -4   10.83    1.90
  -4   4  -4   78.02    6.52
   4  -4  -4   62.75    6.57
   4   4  -4   82.67    6.91
  -4  -4  -4   73.22    6.54
  -5  -4  -4   33.85    3.32
   4  -5  -4   31.15    3.39
   5   4  -4   28.81    3.53
  -4   5  -4   31.33    3.20
  -3   5  -4    3.68    1.05
  -5  -3  -4    4.56    1.17
   3  -5  -4    3.06    1.08
   5   3  -4    4.20    1.26
  -5  -2  -4    9.89    1.66
   5   2  -4   12.32    2.03
  -2   5  -4    8.57    1.57
   2  -5  -4    7.95    1.60
  -5  -1  -4   37.13    3.68
   5   1  -4   36.48    3.90
   1  -5  -4   34.88    3.71
  -1   5  -4   38.85    3.78
   0  -5  -4   -0.75    0.54
   0   5  -4   -0.29    0.63
  -5   0  -4   -0.28    0.61
   5   0  -4    0.34    0.72
  -5   1  -4   32.99    3.55
   1   5  -4   41.53    3.87
   5  -1  -4   31.48    3.73
  -1  -5  -4   40.16    3.75
   5  -2  -4    6.86    1.51
  -5   2  -4    9.54    1.57
   2   5  -4    8.05    1.62
  -2  -5  -4    9.58    1.62
   3   5  -4    6.47    1.50
  -5   3  -4    3.06    0.96
   5  -3  -4    5.16    1.25
  -3  -5  -4    3.19    1.06
  -4  -5  -4   32.31    3.29
  -5   4  -4   30.09    3.14
   5  -4  -4   27.07    3.31
   4   5  -4   38.02    3.69
   5   5  -4  418.43   29.93
  -5   5  -4  359.87   29.33
  -5  -5  -4  386.17   29.46
   5  -5  -4  320.60   29.53
   5  -6  -4   23.55    2.85
  -5   6  -4   23.82    2.57
   6   5  -4   21.86    3.59
  -6  -4  -4    6.26    1.32
   6   4  -4    6.35    1.70
   4  -6  -4    2.99    1.07
  -4   6  -4    4.21    1.11
  -6  -3  -4    5.83    1.30
   6   3  -4    9.55    1.81
  -3   6  -4    5.96    1.32
   3  -6  -4    4.60    1.29
   6   2  -4    0.61    0.97
  -2   6  -4    0.13    0.71
   2  -6  -4    0.43    0.75
  -6  -2  -4    0.00    0.61
   1  -6  -4   11.85    1.89
   6   1  -4   10.82    2.06
  -1   6  -4   11.27    1.87
  -6  -1  -4    9.42    1.67
   0  -6  -4    2.69    0.96
   0   6  -4    3.88    1.18
   6   0  -4    2.97    1.15
  -6   0  -4    2.05    0.92
  -1  -6  -4    8.37    1.50
   6  -1  -4    5.71    1.57
   1   6  -4   15.90    2.17
  -6   1  -4    8.88    1.51
  -6   2  -4    0.42    0.57
   6  -2  -4    0.87    0.97
  -2  -6  -4    0.61    0.76
   2   6  -4    0.10    0.79
   6  -3  -4    4.23    1.33
  -3  -6  -4    5.38    1.27
   3   6  -4    5.67    1.44
  -6   3  -4    4.13    1.08
   4   6  -4    6.49    1.60
  -6   4  -4    3.85    0.97
   6  -4  -4    4.09    1.36
  -6   5  -4   27.39    2.75
   6  -5  -4   23.76    3.01
  -6   6  -4   16.23    1.87
   6   6  -4   15.79    2.58
   6  -6  -4   11.18    2.03
  -6   7  -4   11.89    1.75
   7   6  -4   11.97    2.29
   5  -7  -4    1.02    0.99
   7   5  -4    1.41    1.12
  -5   7  -4    2.39    0.89
   4  -7  -4    6.38    1.50
   7   4  -4   10.27    1.99
  -7  -4  -4    5.97    1.32
  -4   7  -4    7.44    1.40
  -3   7  -4    0.12    0.67
  -7  -3  -4    1.88    0.88
   3  -7  -4   -0.28    0.68
   7   2  -4   -0.71    0.70
  -7  -2  -4   -0.14    0.62
  -2   7  -4    0.15    0.73
   2  -7  -4    1.70    0.95
   1  -7  -4    1.20    0.92
  -7  -1  -4    0.03    0.72
   7   1  -4   -0.33    0.84
  -1   7  -4   -0.67    0.62
   0   7  -4    0.53    0.86
  -7   0  -4   -0.52    0.62
   7   0  -4   -0.92    0.76
   0  -7  -4    0.20    0.70
   1   7  -4   -0.65    0.70
  -1  -7  -4    0.00    0.70
  -7   1  -4    0.55    0.72
   7  -1  -4   -0.21    0.76
  -2  -7  -4    0.75    0.80
  -7   2  -4    1.00    0.64
   2   7  -4   -0.01    0.81
   7  -2  -4    1.25    0.91
   7  -3  -4    0.60    0.88
  -7   3  -4   -0.13    0.51
   3   7  -4    0.62    0.96
  -7   4  -4    6.11    1.20
   7  -4  -4    8.64    1.78
  -7   5  -4    1.06    0.65
   7  -5  -4    1.63    0.95
   5   7  -4    1.63    1.08
   6   7  -4   10.31    2.07
  -7   6  -4    8.98    1.43
   7  -6  -4    8.64    1.92
   7  -7  -4    1.96    1.17
   7   7  -4    1.33    1.08
  -7   7  -4    1.63    0.75
   7  -8  -4   10.54    1.91
   8   7  -4   11.32    2.18
  -7   8  -4    9.01    1.46
   8   6  -4    0.38    1.04
   6  -8  -4   -0.86    0.69
  -6   8  -4   -0.07    0.60
   5  -8  -4   12.29    2.15
  -5   8  -4   12.65    1.87
   8   5  -4   16.35    2.73
  -4   8  -4   48.79    4.77
   8   4  -4   57.73    5.44
  -3   8  -4   20.02    2.35
   3  -8  -4   10.76    3.18
  -8  -3  -4   18.46    2.28
   8   3  -4   22.42    2.84
  -2   8  -4    6.26    1.34
   8   2  -4    4.66    1.63
  -8  -2  -4    3.53    1.15
  -8  -1  -4   17.38    2.35
  -1   8  -4   22.95    2.55
   8   0  -4   71.77    6.64
   0   8  -4   74.55    6.24
  -8   0  -4   62.27    5.93
   0  -8  -4   61.76    6.17
  -1  -8  -4   14.67    2.23
   8  -1  -4   16.23    2.64
  -8   1  -4   17.42    2.06
   8  -2  -4    4.79    1.49
   2   8  -4    8.02    1.69
  -8   2  -4    3.72    1.01
   8  -3  -4   17.57    2.64
  -8   3  -4   16.48    1.92
   3   8  -4   10.20    2.98
   8  -4  -4   49.19    5.06
  -8   4  -4   46.42    4.37
   4   8  -4   50.78    4.93
   5   8  -4   14.50    2.40
  -8   5  -4   11.16    1.53
   8  -5  -4    8.89    2.60
  -8   6  -4    0.50    0.61
   6   8  -4    0.14    0.92
   8  -6  -4    1.26    1.15
   8  -7  -4    9.74    1.88
  -8   7  -4    9.08    1.37
   7   8  -4    8.51    1.95
  -6   9  -4   -0.23    0.65
   9   6  -4    1.05    1.15
   9   5  -4  196.49   14.76
  -5   9  -4  170.09   13.86
   5  -9  -4  150.04   14.11
   4  -9  -4    1.52    1.02
   9   4  -4    0.44    1.23
  -4   9  -4    0.56    0.71
   9   3  -4   17.61    2.73
  -3   9  -4   10.71    1.80
   3  -9  -4    7.39    1.71
  -9  -3  -4   12.26    1.85
   2  -9  -4    1.82    0.94
   9   2  -4   -0.43    0.96
  -2   9  -4   -0.06    0.66
  -9  -2  -4   -0.13    0.70
  -9  -1  -4   12.68    1.97
  -1   9  -4   18.89    2.26
   9   1  -4   18.89    2.80
   1  -9  -4   10.92    2.02
   0   9  -4   -0.55    0.69
   9   0  -4    0.97    0.96
   0  -9  -4    0.62    0.85
  -9   0  -4   -0.20    0.64
   1   9  -4   20.29    2.44
  -1  -9  -4   13.87    2.23
   9  -1  -4   11.90    2.75
  -9   1  -4   18.50    2.09
  -9   2  -4    0.67    0.69
   2   9  -4   -0.10    0.97
   9  -2  -4    0.19    1.13
   3   9  -4   11.92    2.13
   9  -3  -4    7.80    2.56
  -9   3  -4    7.18    1.26
  -9   4  -4    0.97    0.59
   9  -4  -4    1.61    1.20
   4   9  -4    0.99    1.06
   9  -5  -4  150.34   12.92
  -9   5  -4  150.65   12.21
  -9   6  -4    0.58    0.61
   9  -6  -4    0.08    0.82
   6   9  -4   -0.77    0.88
   5 -10  -4    5.25    1.39
  -5  10  -4    5.70    1.20
  10   5  -4    4.33    1.66
   4 -10  -4   24.29    2.99
  10   4  -4   29.32    3.55
  -4  10  -4   25.58    2.81
  10   3  -4   15.72    2.60
  -3  10  -4   15.03    2.08
 -10  -3  -4   11.37    2.15
   3 -10  -4   11.80    2.06
  -2  10  -4    1.20    0.90
   2 -10  -4    2.42    1.13
  10   2  -4   -0.21    0.99
 -10  -2  -4    1.56    0.93
 -10  -1  -4   43.30    4.37
   1 -10  -4   45.58    4.58
  -1  10  -4   51.83    4.66
  10   1  -4   46.90    5.01
   0 -10  -4  126.81   11.18
 -10   0  -4  130.97   11.02
  10   0  -4  143.10   11.76
   1  10  -4   50.00    4.66
  10  -1  -4   44.15    4.87
 -10   1  -4   43.30    4.21
 -10   2  -4    0.90    0.64
  10  -2  -4    2.15    1.24
   2  10  -4   -0.10    1.01
 -10   3  -4   12.90    1.70
   3  10  -4   16.02    2.53
  10  -3  -4   14.30    2.59
  10  -4  -4   18.95    3.06
   4  10  -4   30.76    3.27
 -10   4  -4   21.75    2.35
  10  -5  -4    4.03    1.37
   5  10  -4    6.35    1.65
 -11  -2  -4   53.96    5.25
  11   2  -4   59.08    5.90
  -2  11  -4   60.00    5.39
  -1  11  -4    5.01    2.29
  11   1  -4    2.50    1.49
 -11  -1  -4    5.64    1.21
   1 -11  -4    6.48    1.41
  11   0  -4    0.73    1.20
 -11   0  -4    0.44    0.76
   0 -11  -4    0.15    0.77
   0  11  -4   -0.71    0.88
 -11   1  -4    5.22    1.14
   1  11  -4    7.34    1.65
  11  -1  -4    6.04    1.83
 -11   2  -4   40.56    4.09
  11  -2  -4   58.14    5.22
   0   0  -5   -0.53    0.70
   1   0  -5    0.46    0.83
   0   1  -5   -0.68    0.64
   0  -1  -5    0.15    0.80
  -1   0  -5    2.50    1.08
   1   1  -5   -0.05    0.90
  -1  -1  -5    0.49    0.79
  -1   1  -5   -0.15    0.67
   1  -1  -5    0.26    0.84
   2   1  -5    0.87    0.96
  -2  -1  -5    1.45    0.92
   1  -2  -5    1.87    1.04
  -1   2  -5    0.42    0.84
   0  -2  -5   -1.24    0.62
  -2   0  -5    0.54    0.94
   2   0  -5   -0.46    0.71
   0   2  -5    0.43    0.82
  -2   1  -5    0.91    0.88
   1   2  -5    2.33    1.09
  -1  -2  -5    0.36    0.83
   2  -1  -5    0.26    0.71
   2  -2  -5   94.32    9.51
  -2  -2  -5  103.84    9.53
   2   2  -5  118.60    9.75
  -2   2  -5  122.14    9.69
  -2   3  -5    0.05    0.86
   2  -3  -5    0.02    0.87
  -3  -2  -5    1.02    0.96
   3   2  -5    1.19    0.90
  -3  -1  -5    9.18    1.80
   1  -3  -5    8.27    1.77
   3   1  -5   12.78    2.15
  -1   3  -5   10.44    1.98
   0  -3  -5    4.93    1.41
  -3   0  -5    6.59    1.51
   3   0  -5    5.74    1.51
   0   3  -5    5.52    1.46
  -3   1  -5    9.32    1.90
   3  -1  -5   10.87    2.07
   1   3  -5   10.60    2.05
  -1  -3  -5    9.20    1.81
  -2  -3  -5    0.68    0.83
   3  -2  -5    0.83    0.97
   2   3  -5   -0.32    0.76
  -3   2  -5   -0.99    0.68
  -3  -3  -5   22.54    3.06
  -3   3  -5   26.38    3.13
   3   3  -5   29.73    3.39
   3  -3  -5   27.11    3.23
  -3   4  -5    6.27    1.54
   3  -4  -5    4.33    1.36
   4   3  -5    5.14    1.58
  -4  -3  -5    5.48    1.51
   4   2  -5    2.69    1.22
  -2   4  -5    2.06    1.12
  -4  -2  -5    1.10    0.98
   2  -4  -5    1.53    1.11
   1  -4  -5   15.28    2.48
  -4  -1  -5   15.01    2.46
  -1   4  -5   18.40    2.68
   4   1  -5   17.77    2.75
   4   0  -5    0.43    0.81
   0  -4  -5   -0.27    0.77
   0   4  -5   -1.14    0.77
  -4   0  -5    0.52    0.84
  -1  -4  -5   19.84    2.64
   1   4  -5   21.44    2.76
   4  -1  -5   13.73    2.55
  -4   1  -5   21.27    2.64
  -4   2  -5    1.12    0.92
   4  -2  -5    2.05    1.16
   2   4  -5    1.99    1.11
  -2  -4  -5    2.11    1.02
  -3  -4  -5    3.31    1.23
   4  -3  -5    1.16    1.00
  -4   3  -5    3.26    1.12
   3   4  -5    4.54    1.53
  -2   5  -5    1.45    1.00
   2  -5  -5   -0.65    0.80
   5   2  -5    0.35    0.89
  -5  -2  -5    1.17    1.04
   5   1  -5    2.66    1.25
  -1   5  -5    5.48    1.46
   1  -5  -5    5.19    1.46
  -5  -1  -5    5.75    1.51
  -5   0  -5   69.39    7.14
   5   0  -5   85.02    7.55
   0   5  -5   91.48    7.50
   0  -5  -5   76.07    7.30
   5  -1  -5    3.16    1.20
   1   5  -5    6.04    1.63
  -1  -5  -5    4.54    1.42
  -5   1  -5    5.21    1.37
  -5   2  -5    1.58    0.91
  -2  -5  -5    0.51    1.01
   2   5  -5    1.25    1.03
   5  -2  -5    1.44    1.00
   0   0   0    0.00    0.00
;
_shelx_hkl_checksum              86830
loop_
_space_group_symop_operation_xyz
'x, y, z'
'-y+1/2, x+1/2, z+1/2'
'-x, -y, z'
'y+1/2, -x+1/2, z+1/2'
'x+1/2, -y+1/2, -z+1/2'
'y, x, -z'
'-x+1/2, y+1/2, -z+1/2'
'-y, -x, -z'
'-x, -y, -z'
'y-1/2, -x-1/2, -z-1/2'
'x, y, -z'
'-y-1/2, x-1/2, -z-1/2'
'-x-1/2, y-1/2, z-1/2'
'-y, -x, z'
'x-1/2, -y-1/2, z-1/2'
'y, x, z'
loop_
_atom_site_label
_atom_site_type_symbol
_atom_site_fract_x
_atom_site_fract_y
_atom_site_fract_z
_atom_site_U_iso_or_equiv
_atom_site_adp_type
_atom_site_occupancy
_atom_site_site_symmetry_order
_atom_site_calc_flag
_atom_site_refinement_flags_posn
_atom_site_refinement_flags_adp
_atom_site_refinement_flags_occupancy
_atom_site_disorder_assembly
_atom_site_disorder_group
Cs1 Cs 0.61123(6) 0.38877(6) 0.0000 0.0164(4) Uani 1 4 d S T P . .
Cu3 Cu 0.31524(17) 0.31524(17) -1.0000 0.0482(10) Uani 1 4 d S T P . .
Cu1 Cu 0.20804(14) 0.41859(18) -0.5000 0.0362(6) Uani 1 2 d S T P . .
Cu2 Cu 0.89548(13) 0.48391(13) 0.0000 0.0220(5) Uani 1 2 d S T P . .
Se2 Se 0.38390(9) 0.38390(9) -0.5000 0.0110(5) Uani 1 4 d S T P . .
Se1 Se 0.60941(8) 0.16520(9) -0.5000 0.0117(4) Uani 1 2 d S T P . .
loop_
_atom_site_aniso_label
_atom_site_aniso_U_11
_atom_site_aniso_U_22
_atom_site_aniso_U_33
_atom_site_aniso_U_23
_atom_site_aniso_U_13
_atom_site_aniso_U_12
Cs1 0.0183(5) 0.0183(5) 0.0124(6) 0.000 0.000 -0.0008(4)
Cu3 0.0657(15) 0.0657(15) 0.0130(11) 0.000 0.000 -0.0340(19)
Cu1 0.0181(9) 0.0485(13) 0.0418(12) 0.000 0.000 0.0049(9)
Cu2 0.0287(9) 0.0166(8) 0.0207(8) 0.000 0.000 -0.0016(7)
Se2 0.0125(6) 0.0125(6) 0.0079(8) 0.000 0.000 0.0006(6)
Se1 0.0144(7) 0.0136(7) 0.0071(6) 0.000 0.000 0.0011(4)
loop_
_atom_type_symbol
_atom_type_description
_atom_type_scat_dispersion_real
_atom_type_scat_dispersion_imag
_atom_type_scat_source
Cs Cs -0.3680 2.1192 'International Tables Vol C Tables 4.2.6.8 and 6.1.1.4'
Cu Cu 0.3201 1.2651 'International Tables Vol C Tables 4.2.6.8 and 6.1.1.4'
Se Se -0.0929 2.2259 'International Tables Vol C Tables 4.2.6.8 and 6.1.1.4'
loop_
_geom_angle_atom_site_label_1
_geom_angle_atom_site_label_2
_geom_angle_atom_site_label_3
_geom_angle
_geom_angle_site_symmetry_1
_geom_angle_site_symmetry_3
_geom_angle_publ_flag
Se1 Cs1 Se1 109.36(4) . 14_666 ?
Se1 Cs1 Se1 71.97(3) . 14_665 ?
Se1 Cs1 Se1 68.96(3) 14_666 14_665 ?
Se1 Cs1 Se1 68.96(3) . 1_556 ?
Se1 Cs1 Se1 71.97(3) 14_666 1_556 ?
Se1 Cs1 Se1 109.36(4) 14_665 1_556 ?
Se1 Cs1 Se2 179.23(3) . 9_665 ?
Se1 Cs1 Se2 70.307(19) 14_666 9_665 ?
Se1 Cs1 Se2 107.26(3) 14_665 9_665 ?
Se1 Cs1 Se2 111.486(17) 1_556 9_665 ?
Se1 Cs1 Se2 111.486(17) . 9_664 ?
Se1 Cs1 Se2 107.26(3) 14_666 9_664 ?
Se1 Cs1 Se2 70.307(19) 14_665 9_664 ?
Se1 Cs1 Se2 179.23(3) 1_556 9_664 ?
Se2 Cs1 Se2 68.06(3) 9_665 9_664 ?
Se1 Cs1 Se2 107.26(3) . 1_556 ?
Se1 Cs1 Se2 111.486(17) 14_666 1_556 ?
Se1 Cs1 Se2 179.23(3) 14_665 1_556 ?
Se1 Cs1 Se2 70.307(19) 1_556 1_556 ?
Se2 Cs1 Se2 73.51(4) 9_665 1_556 ?
Se2 Cs1 Se2 110.04(3) 9_664 1_556 ?
Se1 Cs1 Se2 70.306(19) . . ?
Se1 Cs1 Se2 179.23(3) 14_666 . ?
Se1 Cs1 Se2 111.487(17) 14_665 . ?
Se1 Cs1 Se2 107.26(3) 1_556 . ?
Se2 Cs1 Se2 110.04(3) 9_665 . ?
Se2 Cs1 Se2 73.51(4) 9_664 . ?
Se2 Cs1 Se2 68.06(3) 1_556 . ?
Se1 Cs1 Cu2 38.389(18) . 14_665 ?
Se1 Cs1 Cu2 105.54(3) 14_666 14_665 ?
Se1 Cs1 Cu2 105.54(3) 14_665 14_665 ?
Se1 Cs1 Cu2 38.389(18) 1_556 14_665 ?
Se2 Cs1 Cu2 142.31(2) 9_665 14_665 ?
Se2 Cs1 Cu2 142.31(2) 9_664 14_665 ?
Se2 Cs1 Cu2 73.75(3) 1_556 14_665 ?
Se2 Cs1 Cu2 73.75(3) . 14_665 ?
Se1 Cs1 Cu2 105.54(3) . . ?
Se1 Cs1 Cu2 38.389(18) 14_666 . ?
Se1 Cs1 Cu2 38.389(18) 14_665 . ?
Se1 Cs1 Cu2 105.54(3) 1_556 . ?
Se2 Cs1 Cu2 73.75(3) 9_665 . ?
Se2 Cs1 Cu2 73.75(3) 9_664 . ?
Se2 Cs1 Cu2 142.31(2) 1_556 . ?
Se2 Cs1 Cu2 142.31(2) . . ?
Cu2 Cs1 Cu2 127.01(6) 14_665 . ?
Se1 Cs1 Cu3 143.283(15) . 9_664 ?
Se1 Cs1 Cu3 78.16(3) 14_666 9_664 ?
Se1 Cs1 Cu3 78.16(3) 14_665 9_664 ?
Se1 Cs1 Cu3 143.283(14) 1_556 9_664 ?
Se2 Cs1 Cu3 36.062(19) 9_665 9_664 ?
Se2 Cs1 Cu3 36.062(19) 9_664 9_664 ?
Se2 Cs1 Cu3 102.53(3) 1_556 9_664 ?
Se2 Cs1 Cu3 102.53(3) . 9_664 ?
Cu2 Cs1 Cu3 175.45(4) 14_665 9_664 ?
Cu2 Cs1 Cu3 57.54(3) . 9_664 ?
Se1 Cs1 Cu3 78.16(3) . 1_556 ?
Se1 Cs1 Cu3 143.283(14) 14_666 1_556 ?
Se1 Cs1 Cu3 143.283(14) 14_665 1_556 ?
Se1 Cs1 Cu3 78.16(3) 1_556 1_556 ?
Se2 Cs1 Cu3 102.53(3) 9_665 1_556 ?
Se2 Cs1 Cu3 102.53(3) 9_664 1_556 ?
Se2 Cs1 Cu3 36.062(19) 1_556 1_556 ?
Se2 Cs1 Cu3 36.062(19) . 1_556 ?
Cu2 Cs1 Cu3 57.54(3) 14_665 1_556 ?
Cu2 Cs1 Cu3 175.45(4) . 1_556 ?
Cu3 Cs1 Cu3 117.90(5) 9_664 1_556 ?
Se2 Cu3 Se2 115.38(14) . 1_554 ?
Se2 Cu3 Se1 109.91(3) . 5_453 ?
Se2 Cu3 Se1 109.91(3) 1_554 5_453 ?
Se2 Cu3 Se1 109.91(3) . 2_544 ?
Se2 Cu3 Se1 109.91(3) 1_554 2_544 ?
Se1 Cu3 Se1 100.86(11) 5_453 2_544 ?
Se2 Cu3 Cu1 127.84(8) . 6_553 ?
Se2 Cu3 Cu1 53.14(4) 1_554 6_553 ?
Se1 Cu3 Cu1 121.90(9) 5_453 6_553 ?
Se1 Cu3 Cu1 57.00(4) 2_544 6_553 ?
Se2 Cu3 Cu1 127.84(8) . 1_554 ?
Se2 Cu3 Cu1 53.14(4) 1_554 1_554 ?
Se1 Cu3 Cu1 57.00(4) 5_453 1_554 ?
Se1 Cu3 Cu1 121.90(9) 2_544 1_554 ?
Cu1 Cu3 Cu1 88.22(6) 6_553 1_554 ?
Se2 Cu3 Cu1 53.14(4) . 6_554 ?
Se2 Cu3 Cu1 127.84(8) 1_554 6_554 ?
Se1 Cu3 Cu1 121.90(9) 5_453 6_554 ?
Se1 Cu3 Cu1 57.00(4) 2_544 6_554 ?
Cu1 Cu3 Cu1 91.76(6) 6_553 6_554 ?
Cu1 Cu3 Cu1 178.54(15) 1_554 6_554 ?
Se2 Cu3 Cu1 53.14(4) . . ?
Se2 Cu3 Cu1 127.84(8) 1_554 . ?
Se1 Cu3 Cu1 57.00(4) 5_453 . ?
Se1 Cu3 Cu1 121.90(9) 2_544 . ?
Cu1 Cu3 Cu1 178.54(15) 6_553 . ?
Cu1 Cu3 Cu1 91.76(6) 1_554 . ?
Cu1 Cu3 Cu1 88.22(6) 6_554 . ?
Se2 Cu3 Cs1 62.75(6) . 9_664 ?
Se2 Cu3 Cs1 62.75(6) 1_554 9_664 ?
Se1 Cu3 Cs1 98.52(4) 5_453 9_664 ?
Se1 Cu3 Cs1 160.62(8) 2_544 9_664 ?
Cu1 Cu3 Cs1 111.71(8) 6_553 9_664 ?
Cu1 Cu3 Cs1 69.63(6) 1_554 9_664 ?
Cu1 Cu3 Cs1 111.71(8) 6_554 9_664 ?
Cu1 Cu3 Cs1 69.63(6) . 9_664 ?
Se2 Cu3 Cs1 62.75(6) . 1_554 ?
Se2 Cu3 Cs1 62.75(6) 1_554 1_554 ?
Se1 Cu3 Cs1 160.62(8) 5_453 1_554 ?
Se1 Cu3 Cs1 98.52(4) 2_544 1_554 ?
Cu1 Cu3 Cs1 69.63(6) 6_553 1_554 ?
Cu1 Cu3 Cs1 111.71(8) 1_554 1_554 ?
Cu1 Cu3 Cs1 69.63(6) 6_554 1_554 ?
Cu1 Cu3 Cs1 111.71(8) . 1_554 ?
Cs1 Cu3 Cs1 62.10(5) 9_664 1_554 ?
Se2 Cu3 Cs1 150.33(9) . 2_543 ?
Se2 Cu3 Cs1 94.29(6) 1_554 2_543 ?
Se1 Cu3 Cs1 55.78(5) 5_453 2_543 ?
Se1 Cu3 Cs1 55.78(5) 2_544 2_543 ?
Cu1 Cu3 Cs1 69.60(6) 6_553 2_543 ?
Cu1 Cu3 Cs1 69.60(6) 1_554 2_543 ?
Cu1 Cu3 Cs1 109.03(8) 6_554 2_543 ?
Cu1 Cu3 Cs1 109.03(8) . 2_543 ?
Cs1 Cu3 Cs1 139.140(14) 9_664 2_543 ?
Cs1 Cu3 Cs1 139.140(14) 1_554 2_543 ?
Se2 Cu3 Cs1 94.29(6) . 2_544 ?
Se2 Cu3 Cs1 150.33(9) 1_554 2_544 ?
Se1 Cu3 Cs1 55.78(5) 5_453 2_544 ?
Se1 Cu3 Cs1 55.78(5) 2_544 2_544 ?
Cu1 Cu3 Cs1 109.03(8) 6_553 2_544 ?
Cu1 Cu3 Cs1 109.03(8) 1_554 2_544 ?
Cu1 Cu3 Cs1 69.60(6) 6_554 2_544 ?
Cu1 Cu3 Cs1 69.61(6) . 2_544 ?
Cs1 Cu3 Cs1 139.140(13) 9_664 2_544 ?
Cs1 Cu3 Cs1 139.140(14) 1_554 2_544 ?
Cs1 Cu3 Cs1 56.04(4) 2_543 2_544 ?
Se2 Cu1 Cu2 161.98(12) . 2_544 ?
Se2 Cu1 Se1 113.81(10) . 6_554 ?
Cu2 Cu1 Se1 84.21(7) 2_544 6_554 ?
Se2 Cu1 Se1 113.65(6) . 5_453 ?
Cu2 Cu1 Se1 57.48(5) 2_544 5_453 ?
Se1 Cu1 Se1 107.43(7) 6_554 5_453 ?
Se2 Cu1 Se1 113.65(6) . 5_454 ?
Cu2 Cu1 Se1 57.48(5) 2_544 5_454 ?
Se1 Cu1 Se1 107.43(7) 6_554 5_454 ?
Se1 Cu1 Se1 99.75(8) 5_453 5_454 ?
Se2 Cu1 Cu2 125.13(6) . 9_664 ?
Cu2 Cu1 Cu2 64.19(7) 2_544 9_664 ?
Se1 Cu1 Cu2 55.74(5) 6_554 9_664 ?
Se1 Cu1 Cu2 52.44(4) 5_453 9_664 ?
Se1 Cu1 Cu2 120.83(8) 5_454 9_664 ?
Se2 Cu1 Cu2 125.13(6) . 9_665 ?
Cu2 Cu1 Cu2 64.19(7) 2_544 9_665 ?
Se1 Cu1 Cu2 55.74(5) 6_554 9_665 ?
Se1 Cu1 Cu2 120.83(8) 5_453 9_665 ?
Se1 Cu1 Cu2 52.44(4) 5_454 9_665 ?
Cu2 Cu1 Cu2 94.39(8) 9_664 9_665 ?
Se2 Cu1 Cu3 54.18(6) . 1_556 ?
Cu2 Cu1 Cu3 116.09(8) 2_544 1_556 ?
Se1 Cu1 Cu3 125.54(7) 6_554 1_556 ?
Se1 Cu1 Cu3 126.40(10) 5_453 1_556 ?
Se1 Cu1 Cu3 59.71(6) 5_454 1_556 ?
Cu2 Cu1 Cu3 178.61(8) 9_664 1_556 ?
Cu2 Cu1 Cu3 86.92(3) 9_665 1_556 ?
Se2 Cu1 Cu3 54.18(6) . . ?
Cu2 Cu1 Cu3 116.09(8) 2_544 . ?
Se1 Cu1 Cu3 125.54(7) 6_554 . ?
Se1 Cu1 Cu3 59.71(6) 5_453 . ?
Se1 Cu1 Cu3 126.40(10) 5_454 . ?
Cu2 Cu1 Cu3 86.92(3) 9_664 . ?
Cu2 Cu1 Cu3 178.61(8) 9_665 . ?
Cu3 Cu1 Cu3 91.76(6) 1_556 . ?
Se2 Cu1 Cs1 62.72(5) . 9_665 ?
Cu2 Cu1 Cs1 131.50(6) 2_544 9_665 ?
Se1 Cu1 Cs1 60.95(5) 6_554 9_665 ?
Se1 Cu1 Cs1 159.70(6) 5_453 9_665 ?
Se1 Cu1 Cs1 99.75(3) 5_454 9_665 ?
Cu2 Cu1 Cs1 111.57(8) 9_664 9_665 ?
Cu2 Cu1 Cs1 68.29(5) 9_665 9_665 ?
Cu3 Cu1 Cs1 69.36(7) 1_556 9_665 ?
Cu3 Cu1 Cs1 111.65(8) . 9_665 ?
Se2 Cu1 Cs1 62.72(5) . 9_664 ?
Cu2 Cu1 Cs1 131.50(6) 2_544 9_664 ?
Se1 Cu1 Cs1 60.95(5) 6_554 9_664 ?
Se1 Cu1 Cs1 99.75(3) 5_453 9_664 ?
Se1 Cu1 Cs1 159.70(6) 5_454 9_664 ?
Cu2 Cu1 Cs1 68.29(5) 9_664 9_664 ?
Cu2 Cu1 Cs1 111.57(8) 9_665 9_664 ?
Cu3 Cu1 Cs1 111.65(8) 1_556 9_664 ?
Cu3 Cu1 Cs1 69.36(7) . 9_664 ?
Cs1 Cu1 Cs1 60.34(3) 9_665 9_664 ?
Se2 Cu1 Cs1 96.33(8) . 2_544 ?
Cu2 Cu1 Cs1 65.65(6) 2_544 2_544 ?
Se1 Cu1 Cs1 149.86(7) 6_554 2_544 ?
Se1 Cu1 Cs1 56.94(5) 5_453 2_544 ?
Se1 Cu1 Cs1 56.94(5) 5_454 2_544 ?
Cu2 Cu1 Cs1 107.20(6) 9_664 2_544 ?
Cu2 Cu1 Cs1 107.20(6) 9_665 2_544 ?
Cu3 Cu1 Cs1 71.92(8) 1_556 2_544 ?
Cu3 Cu1 Cs1 71.92(8) . 2_544 ?
Cs1 Cu1 Cs1 141.18(3) 9_665 2_544 ?
Cs1 Cu1 Cs1 141.18(3) 9_664 2_544 ?
Se1 Cu2 Se1 118.90(4) 13_766 14_665 ?
Se1 Cu2 Se1 118.90(4) 13_766 14_666 ?
Se1 Cu2 Se1 108.12(8) 14_665 14_666 ?
Se1 Cu2 Cu1 174.68(10) 13_766 10_665 ?
Se1 Cu2 Cu1 63.24(5) 14_665 10_665 ?
Se1 Cu2 Cu1 63.24(5) 14_666 10_665 ?
Se1 Cu2 Cu1 61.37(6) 13_766 9_664 ?
Se1 Cu2 Cu1 58.47(5) 14_665 9_664 ?
Se1 Cu2 Cu1 131.68(8) 14_666 9_664 ?
Cu1 Cu2 Cu1 121.45(5) 10_665 9_664 ?
Se1 Cu2 Cu1 61.37(6) 13_766 9_665 ?
Se1 Cu2 Cu1 131.68(8) 14_665 9_665 ?
Se1 Cu2 Cu1 58.47(5) 14_666 9_665 ?
Cu1 Cu2 Cu1 121.45(5) 10_665 9_665 ?
Cu1 Cu2 Cu1 94.39(8) 9_664 9_665 ?
Se1 Cu2 Cu2 82.79(8) 13_766 9_765 ?
Se1 Cu2 Cu2 113.02(6) 14_665 9_765 ?
Se1 Cu2 Cu2 113.02(6) 14_666 9_765 ?
Cu1 Cu2 Cu2 91.89(9) 10_665 9_765 ?
Cu1 Cu2 Cu2 114.71(7) 9_664 9_765 ?
Cu1 Cu2 Cu2 114.71(7) 9_665 9_765 ?
Se1 Cu2 Cu2 56.54(6) 13_766 10_676 ?
Se1 Cu2 Cu2 171.44(6) 14_665 10_676 ?
Se1 Cu2 Cu2 80.15(3) 14_666 10_676 ?
Cu1 Cu2 Cu2 120.62(5) 10_665 10_676 ?
Cu1 Cu2 Cu2 117.87(9) 9_664 10_676 ?
Cu1 Cu2 Cu2 54.29(6) 9_665 10_676 ?
Cu2 Cu2 Cu2 60.44(2) 9_765 10_676 ?
Se1 Cu2 Cu2 115.31(4) 13_766 2_645 ?
Se1 Cu2 Cu2 123.85(8) 14_665 2_645 ?
Se1 Cu2 Cu2 52.92(5) 14_666 2_645 ?
Cu1 Cu2 Cu2 61.52(6) 10_665 2_645 ?
Cu1 Cu2 Cu2 174.95(9) 9_664 2_645 ?
Cu1 Cu2 Cu2 86.85(4) 9_665 2_645 ?
Cu2 Cu2 Cu2 60.44(2) 9_765 2_645 ?
Cu2 Cu2 Cu2 59.13(4) 10_676 2_645 ?
Se1 Cu2 Cu2 56.54(6) 13_766 10_675 ?
Se1 Cu2 Cu2 80.15(3) 14_665 10_675 ?
Se1 Cu2 Cu2 171.44(6) 14_666 10_675 ?
Cu1 Cu2 Cu2 120.62(5) 10_665 10_675 ?
Cu1 Cu2 Cu2 54.29(6) 9_664 10_675 ?
Cu1 Cu2 Cu2 117.87(9) 9_665 10_675 ?
Cu2 Cu2 Cu2 60.44(2) 9_765 10_675 ?
Cu2 Cu2 Cu2 91.51(7) 10_676 10_675 ?
Cu2 Cu2 Cu2 120.87(4) 2_645 10_675 ?
Se1 Cu2 Cu2 115.31(4) 13_766 2_644 ?
Se1 Cu2 Cu2 52.92(5) 14_665 2_644 ?
Se1 Cu2 Cu2 123.85(8) 14_666 2_644 ?
Cu1 Cu2 Cu2 61.52(6) 10_665 2_644 ?
Cu1 Cu2 Cu2 86.85(4) 9_664 2_644 ?
Cu1 Cu2 Cu2 174.95(9) 9_665 2_644 ?
Cu2 Cu2 Cu2 60.44(2) 9_765 2_644 ?
Cu2 Cu2 Cu2 120.87(4) 10_676 2_644 ?
Cu2 Cu2 Cu2 91.51(7) 2_645 2_644 ?
Cu2 Cu2 Cu2 59.13(4) 10_675 2_644 ?
Se1 Cu2 Cs1 106.96(6) 13_766 . ?
Se1 Cu2 Cs1 62.64(4) 14_665 . ?
Se1 Cu2 Cs1 62.64(4) 14_666 . ?
Cu1 Cu2 Cs1 78.36(7) 10_665 . ?
Cu1 Cu2 Cs1 71.26(5) 9_664 . ?
Cu1 Cu2 Cs1 71.26(5) 9_665 . ?
Cu2 Cu2 Cs1 170.25(9) 9_765 . ?
Cu2 Cu2 Cs1 124.74(5) 10_676 . ?
Cu2 Cu2 Cs1 113.75(6) 2_645 . ?
Cu2 Cu2 Cs1 124.74(5) 10_675 . ?
Cu2 Cu2 Cs1 113.75(6) 2_644 . ?
Cu1 Se2 Cu1 112.31(14) . 6_554 ?
Cu1 Se2 Cu3 72.68(5) . . ?
Cu1 Se2 Cu3 72.68(5) 6_554 . ?
Cu1 Se2 Cu3 72.68(5) . 1_556 ?
Cu1 Se2 Cu3 72.68(5) 6_554 1_556 ?
Cu3 Se2 Cu3 115.38(14) . 1_556 ?
Cu1 Se2 Cs1 81.78(5) . 9_665 ?
Cu1 Se2 Cs1 144.04(2) 6_554 9_665 ?
Cu3 Se2 Cs1 142.45(3) . 9_665 ?
Cu3 Se2 Cs1 81.19(5) 1_556 9_665 ?
Cu1 Se2 Cs1 144.04(2) . 1_554 ?
Cu1 Se2 Cs1 81.78(5) 6_554 1_554 ?
Cu3 Se2 Cs1 81.19(5) . 1_554 ?
Cu3 Se2 Cs1 142.45(3) 1_556 1_554 ?
Cs1 Se2 Cs1 106.49(4) 9_665 1_554 ?
Cu1 Se2 Cs1 81.78(5) . 9_664 ?
Cu1 Se2 Cs1 144.04(2) 6_554 9_664 ?
Cu3 Se2 Cs1 81.19(5) . 9_664 ?
Cu3 Se2 Cs1 142.45(3) 1_556 9_664 ?
Cs1 Se2 Cs1 68.06(3) 9_665 9_664 ?
Cs1 Se2 Cs1 69.96(3) 1_554 9_664 ?
Cu1 Se2 Cs1 144.04(2) . . ?
Cu1 Se2 Cs1 81.78(5) 6_554 . ?
Cu3 Se2 Cs1 142.45(3) . . ?
Cu3 Se2 Cs1 81.19(5) 1_556 . ?
Cs1 Se2 Cs1 69.96(3) 9_665 . ?
Cs1 Se2 Cs1 68.06(3) 1_554 . ?
Cs1 Se2 Cs1 106.49(4) 9_664 . ?
Cu2 Se1 Cu2 70.54(6) 13_755 14_664 ?
Cu2 Se1 Cu2 70.54(6) 13_755 14_665 ?
Cu2 Se1 Cu2 108.12(8) 14_664 14_665 ?
Cu2 Se1 Cu1 101.11(7) 13_755 6_554 ?
Cu2 Se1 Cu1 65.79(5) 14_664 6_554 ?
Cu2 Se1 Cu1 65.79(5) 14_665 6_554 ?
Cu2 Se1 Cu1 66.18(6) 13_755 5_554 ?
Cu2 Se1 Cu1 136.66(8) 14_664 5_554 ?
Cu2 Se1 Cu1 59.28(5) 14_665 5_554 ?
Cu1 Se1 Cu1 124.80(5) 6_554 5_554 ?
Cu2 Se1 Cu1 66.18(6) 13_755 5_553 ?
Cu2 Se1 Cu1 59.28(5) 14_664 5_553 ?
Cu2 Se1 Cu1 136.66(8) 14_665 5_553 ?
Cu1 Se1 Cu1 124.80(5) 6_554 5_553 ?
Cu1 Se1 Cu1 99.75(8) 5_554 5_553 ?
Cu2 Se1 Cu3 96.97(7) 13_755 10_664 ?
Cu2 Se1 Cu3 121.34(4) 14_664 10_664 ?
Cu2 Se1 Cu3 121.34(4) 14_665 10_664 ?
Cu1 Se1 Cu3 161.92(8) 6_554 10_664 ?
Cu1 Se1 Cu3 63.29(5) 5_554 10_664 ?
Cu1 Se1 Cu3 63.29(5) 5_553 10_664 ?
Cu2 Se1 Cs1 145.506(13) 13_755 . ?
Cu2 Se1 Cs1 136.50(5) 14_664 . ?
Cu2 Se1 Cs1 78.97(4) 14_665 . ?
Cu1 Se1 Cs1 79.98(5) 6_554 . ?
Cu1 Se1 Cs1 84.71(5) 5_554 . ?
Cu1 Se1 Cs1 140.67(6) 5_553 . ?
Cu3 Se1 Cs1 85.14(5) 10_664 . ?
Cu2 Se1 Cs1 145.506(13) 13_755 1_554 ?
Cu2 Se1 Cs1 78.97(4) 14_664 1_554 ?
Cu2 Se1 Cs1 136.50(5) 14_665 1_554 ?
Cu1 Se1 Cs1 79.98(5) 6_554 1_554 ?
Cu1 Se1 Cs1 140.67(6) 5_554 1_554 ?
Cu1 Se1 Cs1 84.71(5) 5_553 1_554 ?
Cu3 Se1 Cs1 85.14(5) 10_664 1_554 ?
Cs1 Se1 Cs1 68.96(3) . 1_554 ?
loop_
_geom_bond_atom_site_label_1
_geom_bond_atom_site_label_2
_geom_bond_distance
_geom_bond_site_symmetry_2
_geom_bond_publ_flag
Cs1 Se1 3.5990(12) . ?
Cs1 Se1 3.5990(12) 14_666 ?
Cs1 Se1 3.5990(12) 14_665 ?
Cs1 Se1 3.5990(12) 1_556 ?
Cs1 Se2 3.6405(12) 9_665 ?
Cs1 Se2 3.6405(12) 9_664 ?
Cs1 Se2 3.6405(12) 1_556 ?
Cs1 Se2 3.6406(12) . ?
Cs1 Cu2 3.9774(18) 14_665 ?
Cs1 Cu2 3.9775(18) . ?
Cs1 Cu3 4.047(3) 9_664 ?
Cs1 Cu3 4.047(3) 1_556 ?
Cu3 Se2 2.4107(19) . ?
Cu3 Se2 2.4107(19) 1_554 ?
Cu3 Se1 2.743(2) 5_453 ?
Cu3 Se1 2.743(2) 2_544 ?
Cu3 Cu1 2.8381(14) 6_553 ?
Cu3 Cu1 2.8381(14) 1_554 ?
Cu3 Cu1 2.8381(14) 6_554 ?
Cu3 Cu1 2.8381(14) . ?
Cu3 Cs1 4.047(3) 9_664 ?
Cu3 Cs1 4.047(3) 1_554 ?
Cu3 Cs1 4.337(3) 2_543 ?
Cu3 Cs1 4.337(3) 2_544 ?
Cu1 Se2 2.378(2) . ?
Cu1 Cu2 2.565(3) 2_544 ?
Cu1 Se1 2.595(3) 6_554 ?
Cu1 Se1 2.6646(16) 5_453 ?
Cu1 Se1 2.6646(16) 5_454 ?
Cu1 Cu2 2.7770(17) 9_664 ?
Cu1 Cu2 2.7770(17) 9_665 ?
Cu1 Cu3 2.8381(14) 1_556 ?
Cu1 Cs1 4.054(2) 9_665 ?
Cu1 Cs1 4.054(2) 9_664 ?
Cu1 Cs1 4.276(3) 2_544 ?
Cu2 Se1 2.406(2) 13_766 ?
Cu2 Se1 2.5165(12) 14_665 ?
Cu2 Se1 2.5165(12) 14_666 ?
Cu2 Cu1 2.565(3) 10_665 ?
Cu2 Cu1 2.7770(17) 9_664 ?
Cu2 Cu1 2.7770(17) 9_665 ?
Cu2 Cu2 2.807(3) 9_765 ?
Cu2 Cu2 2.8442(16) 10_676 ?
Cu2 Cu2 2.8442(17) 2_645 ?
Cu2 Cu2 2.8442(16) 10_675 ?
Cu2 Cu2 2.8442(17) 2_644 ?
Se2 Cu1 2.378(2) 6_554 ?
Se2 Cu3 2.4107(19) 1_556 ?
Se2 Cs1 3.6406(12) 9_665 ?
Se2 Cs1 3.6406(12) 1_554 ?
Se2 Cs1 3.6406(12) 9_664 ?
Se1 Cu2 2.406(2) 13_755 ?
Se1 Cu2 2.5164(12) 14_664 ?
Se1 Cu2 2.5164(12) 14_665 ?
Se1 Cu1 2.595(2) 6_554 ?
Se1 Cu1 2.6646(16) 5_554 ?
Se1 Cu1 2.6646(16) 5_553 ?
Se1 Cu3 2.744(2) 10_664 ?
Se1 Cs1 3.5990(12) 1_554 ?
