#------------------------------------------------------------------------------
#$Date: 2020-04-04 07:11:09 +0300 (Sat, 04 Apr 2020) $
#$Revision: 250063 $
#$URL: file:///home/coder/svn-repositories/cod/cif/4/13/44/4134486.cif $
#------------------------------------------------------------------------------
#
# This file is available in the Crystallography Open Database (COD),
# http://www.crystallography.net/
#
# All data on this site have been placed in the public domain by the
# contributors.
#
data_4134486
loop_
_publ_author_name
'Pan, Chun-Ya'
'Yang, Xin-Rui'
'Xiong, Lin'
'Lu, Zhong-Wei'
'Zhen, Bo-Yu'
'Sui, Xin'
'Deng, Xue-Bin'
'Chen, Ling'
'Wu, Li-Ming'
_publ_section_title
;
 Solid-State Nonlinear Optical Switch with the Widest Switching
 Temperature Range Owing to Its Continuously Tunable <i>T</i><sub>c</sub>.
;
_journal_issue                   13
_journal_name_full               'Journal of the American Chemical Society'
_journal_page_first              6423
_journal_page_last               6431
_journal_paper_doi               10.1021/jacs.0c01741
_journal_volume                  142
_journal_year                    2020
_chemical_formula_sum            'F H8 K0.05 N1.95 O3 P'
_chemical_formula_weight         135.25
_space_group_IT_number           14
_space_group_name_Hall           '-P 2yn'
_space_group_name_H-M_alt        'P 1 21/n 1'
_symmetry_cell_setting           monoclinic
_symmetry_space_group_name_H-M   'P 1 21/n 1'
_atom_sites_solution_hydrogens   none
_atom_sites_solution_primary     direct
_atom_sites_solution_secondary   difmap
_audit_creation_method           SHELXL-97
_cell_angle_alpha                90.00
_cell_angle_beta                 92.2890(10)
_cell_angle_gamma                90.00
_cell_formula_units_Z            4
_cell_length_a                   6.0398(2)
_cell_length_b                   7.8659(3)
_cell_length_c                   11.1767(4)
_cell_measurement_reflns_used    7905
_cell_measurement_temperature    200(2)
_cell_measurement_theta_max      27.49
_cell_measurement_theta_min      3.17
_cell_volume                     530.56(3)
_computing_structure_refinement  'SHELXL-97 (Sheldrick, 1997)'
_computing_structure_solution    'SHELXS-97 (Sheldrick, 1990)'
_diffrn_ambient_temperature      200(2)
_diffrn_measured_fraction_theta_full 0.999
_diffrn_measured_fraction_theta_max 0.999
_diffrn_measurement_device_type  'CCD area detector'
_diffrn_measurement_method       'phi and omega scans'
_diffrn_radiation_monochromator  graphite
_diffrn_radiation_source         'fine-focus sealed tube'
_diffrn_radiation_type           MoK\a
_diffrn_radiation_wavelength     0.71073
_diffrn_reflns_av_R_equivalents  0.0604
_diffrn_reflns_av_sigmaI/netI    0.0231
_diffrn_reflns_limit_h_max       7
_diffrn_reflns_limit_h_min       -7
_diffrn_reflns_limit_k_max       10
_diffrn_reflns_limit_k_min       -10
_diffrn_reflns_limit_l_max       14
_diffrn_reflns_limit_l_min       -14
_diffrn_reflns_number            17686
_diffrn_reflns_theta_full        27.50
_diffrn_reflns_theta_max         27.50
_diffrn_reflns_theta_min         3.17
_exptl_absorpt_coefficient_mu    0.492
_exptl_absorpt_correction_T_max  0.6632
_exptl_absorpt_correction_T_min  0.5278
_exptl_absorpt_correction_type   multi-scan
_exptl_crystal_colour            colorless
_exptl_crystal_density_diffrn    1.693
_exptl_crystal_density_method    'not measured'
_exptl_crystal_description       block
_exptl_crystal_F_000             282
_exptl_crystal_size_max          0.05
_exptl_crystal_size_mid          0.03
_exptl_crystal_size_min          0.02
_refine_diff_density_max         0.435
_refine_diff_density_min         -0.417
_refine_diff_density_rms         0.092
_refine_ls_extinction_method     none
_refine_ls_goodness_of_fit_ref   1.189
_refine_ls_hydrogen_treatment    none
_refine_ls_matrix_type           full
_refine_ls_number_parameters     98
_refine_ls_number_reflns         1212
_refine_ls_number_restraints     38
_refine_ls_restrained_S_all      1.173
_refine_ls_R_factor_all          0.0516
_refine_ls_R_factor_gt           0.0480
_refine_ls_shift/su_max          0.000
_refine_ls_shift/su_mean         0.000
_refine_ls_structure_factor_coef Fsqd
_refine_ls_weighting_details
'calc w=1/[\s^2^(Fo^2^)+(0.0384P)^2^+1.1011P] where P=(Fo^2^+2Fc^2^)/3'
_refine_ls_weighting_scheme      calc
_refine_ls_wR_factor_gt          0.1049
_refine_ls_wR_factor_ref         0.1063
_reflns_number_gt                1137
_reflns_number_total             1212
_reflns_threshold_expression     >2sigma(I)
_cod_data_source_file            K0.2(NH4)1.8PO3F.cif
_cod_data_source_block           K0.2(NH4)1.8PO3F-LTP-200K
_cod_depositor_comments
;
The following automatic conversions were performed:

data item '_symmetry_cell_setting' value 'Monoclinic' was changed to
'monoclinic' in accordance with the
/home/data/users/saulius/crontab/automatic-downloads/rss-feeds/ACS/lib/dictionaries/cif_core.dic
dictionary named 'cif_core.dic' version 2.4.2 last updated on
2011-04-26.

Automatic conversion script
Id: cif_fix_values 7556 2019-12-06 15:28:31Z antanas 

 Adding full bibliography for 4134470--4134505.cif.
;
_cod_original_sg_symbol_H-M      P2(1)/n
_cod_original_formula_sum        'H8 F K0.05 N1.95 O3 P'
_cod_database_code               4134486
loop_
_symmetry_equiv_pos_as_xyz
'x, y, z'
'-x+1/2, y+1/2, -z+1/2'
'-x, -y, -z'
'x-1/2, -y-1/2, z-1/2'
loop_
_atom_site_label
_atom_site_type_symbol
_atom_site_fract_x
_atom_site_fract_y
_atom_site_fract_z
_atom_site_U_iso_or_equiv
_atom_site_adp_type
_atom_site_occupancy
_atom_site_symmetry_multiplicity
_atom_site_calc_flag
_atom_site_refinement_flags
_atom_site_disorder_assembly
_atom_site_disorder_group
P P 0.24882(10) 0.81828(8) 0.63138(5) 0.0092(2) Uani 1 1 d . . .
N1 N 0.2580(4) 0.8647(3) 0.96853(19) 0.0147(5) Uani 1 1 d D . .
N2 N 0.2371(3) 0.9123(2) 0.31054(17) 0.0131(9) Uani 0.966(6) 1 d PD . .
K K 0.2371(3) 0.9123(2) 0.31054(17) 0.0131(9) Uani 0.034(6) 1 d P . .
O2 O 0.4126(3) 0.8192(3) 0.73602(17) 0.0204(4) Uani 1 1 d . . .
F F 0.2462(3) 1.01019(19) 0.58527(14) 0.0216(4) Uani 1 1 d . . .
O1 O 0.3214(3) 0.7203(2) 0.52283(16) 0.0150(4) Uani 1 1 d . . .
O3 O 0.0122(3) 0.7832(2) 0.66076(17) 0.0167(4) Uani 1 1 d . . .
H2 H 0.130(3) 0.821(3) 0.976(2) 0.018(8) Uiso 1 1 d D . .
H3 H 0.345(4) 0.824(4) 1.022(2) 0.039(11) Uiso 1 1 d D . .
H6 H 0.139(4) 0.849(3) 0.277(2) 0.028(9) Uiso 1 1 d D . .
H1 H 0.248(4) 0.971(2) 0.977(2) 0.023(9) Uiso 1 1 d D . .
H4 H 0.302(5) 0.841(4) 0.8999(18) 0.040(11) Uiso 1 1 d D . .
H7 H 0.344(4) 0.911(4) 0.268(2) 0.028(9) Uiso 1 1 d D . .
H5 H 0.186(4) 1.007(2) 0.319(2) 0.028(10) Uiso 1 1 d D . .
H8 H 0.271(4) 0.869(3) 0.3763(18) 0.028(9) Uiso 1 1 d D . .
loop_
_atom_site_aniso_label
_atom_site_aniso_U_11
_atom_site_aniso_U_22
_atom_site_aniso_U_33
_atom_site_aniso_U_23
_atom_site_aniso_U_13
_atom_site_aniso_U_12
P 0.0097(3) 0.0075(3) 0.0106(3) 0.0010(2) 0.0013(2) -0.0001(2)
N1 0.0141(11) 0.0119(11) 0.0180(12) 0.0013(8) 0.0015(9) 0.0010(9)
N2 0.0142(13) 0.0136(12) 0.0119(13) -0.0013(7) 0.0035(8) 0.0031(8)
K 0.0142(13) 0.0136(12) 0.0119(13) -0.0013(7) 0.0035(8) 0.0031(8)
O2 0.0167(9) 0.0271(11) 0.0172(9) -0.0002(8) -0.0030(7) -0.0025(8)
F 0.0326(9) 0.0083(7) 0.0239(9) 0.0035(6) 0.0014(7) 0.0000(6)
O1 0.0174(9) 0.0112(9) 0.0168(9) -0.0027(7) 0.0046(7) 0.0002(7)
O3 0.0106(9) 0.0186(9) 0.0211(9) 0.0000(7) 0.0033(7) -0.0003(7)
loop_
_atom_type_symbol
_atom_type_description
_atom_type_scat_dispersion_real
_atom_type_scat_dispersion_imag
_atom_type_scat_source
N N 0.0061 0.0033 'International Tables Vol C Tables 4.2.6.8 and 6.1.1.4'
H H 0.0000 0.0000 'International Tables Vol C Tables 4.2.6.8 and 6.1.1.4'
O O 0.0106 0.0060 'International Tables Vol C Tables 4.2.6.8 and 6.1.1.4'
F F 0.0171 0.0103 'International Tables Vol C Tables 4.2.6.8 and 6.1.1.4'
P P 0.1023 0.0942 'International Tables Vol C Tables 4.2.6.8 and 6.1.1.4'
K K 0.2009 0.2494 'International Tables Vol C Tables 4.2.6.8 and 6.1.1.4'
loop_
_geom_angle_atom_site_label_1
_geom_angle_atom_site_label_2
_geom_angle_atom_site_label_3
_geom_angle
_geom_angle_site_symmetry_1
_geom_angle_site_symmetry_3
_geom_angle_publ_flag
O2 P O3 115.64(11) . . ?
O2 P O1 115.03(11) . . ?
O3 P O1 112.88(11) . . ?
O2 P F 104.19(10) . . ?
O3 P F 104.28(10) . . ?
O1 P F 102.83(10) . . ?
O2 P K 111.30(9) . 3_576 ?
O3 P K 45.52(8) . 3_576 ?
O1 P K 133.49(8) . 3_576 ?
F P K 61.10(7) . 3_576 ?
O2 P K 49.82(8) . 3_676 ?
O3 P K 147.46(8) . 3_676 ?
O1 P K 99.22(8) . 3_676 ?
F P K 61.58(7) . 3_676 ?
K P K 107.44(5) 3_576 3_676 ?
H2 N1 H3 108.6(19) . . ?
H2 N1 H1 108.5(18) . . ?
H3 N1 H1 110.2(19) . . ?
H2 N1 H4 109.0(19) . . ?
H3 N1 H4 110.2(19) . . ?
H1 N1 H4 110.3(19) . . ?
H6 N2 H7 107.2(19) . . ?
H6 N2 H5 108.6(19) . . ?
H7 N2 H5 113(2) . . ?
H6 N2 H8 107.0(19) . . ?
H7 N2 H8 109.6(19) . . ?
H5 N2 H8 110.9(19) . . ?
P O2 K 131.71(12) . 4_676 ?
P O2 K 108.08(10) . 3_676 ?
K O2 K 91.09(6) 4_676 3_676 ?
P F K 93.40(8) . 3_576 ?
P F K 93.61(8) . 3_676 ?
K F K 132.97(8) 3_576 3_676 ?
P O3 K 112.39(10) . 3_576 ?
P O3 K 143.78(11) . 4_576 ?
K O3 K 93.67(6) 3_576 4_576 ?
loop_
_geom_bond_atom_site_label_1
_geom_bond_atom_site_label_2
_geom_bond_distance
_geom_bond_site_symmetry_2
_geom_bond_publ_flag
P O2 1.5012(19) . ?
P O3 1.5043(18) . ?
P O1 1.5168(18) . ?
P F 1.5950(16) . ?
P K 3.698(2) 3_576 ?
P K 3.794(2) 3_676 ?
N1 H2 0.850(16) . ?
N1 H3 0.843(16) . ?
N1 H1 0.841(16) . ?
N1 H4 0.843(16) . ?
N2 H6 0.848(17) . ?
N2 H7 0.816(17) . ?
N2 H5 0.811(17) . ?
N2 H8 0.830(17) . ?
O2 K 2.779(3) 4_676 ?
O2 K 3.049(3) 3_676 ?
F K 3.243(3) 3_576 ?
F K 3.343(3) 3_676 ?
O3 K 2.854(3) 3_576 ?
O3 K 2.855(3) 4_576 ?
loop_
_geom_hbond_atom_site_label_D
_geom_hbond_atom_site_label_H
_geom_hbond_atom_site_label_A
_geom_hbond_distance_DH
_geom_hbond_distance_HA
_geom_hbond_distance_DA
_geom_hbond_angle_DHA
_geom_hbond_site_symmetry_A
N1 H4 O2 0.843(16) 1.982(17) 2.819(3) 172(3) .
N2 H8 O1 0.830(17) 2.024(18) 2.842(3) 168(3) .
N2 H8 F 0.830(17) 2.60(2) 3.164(2) 127(2) .
N1 H2 O1 0.850(16) 1.984(17) 2.810(3) 164(2) 4_576
N1 H3 O3 0.843(16) 2.004(17) 2.840(3) 172(3) 4_676
N2 H6 O2 0.848(17) 1.946(18) 2.779(3) 167(3) 4_575
N1 H1 O1 0.841(16) 2.007(17) 2.840(3) 170(3) 2_556
N2 H7 O3 0.816(17) 2.21(2) 2.855(3) 136(3) 4_675
N2 H7 O2 0.816(17) 2.58(3) 3.049(3) 118(2) 3_676
N2 H5 O3 0.811(17) 2.057(18) 2.854(3) 167(3) 3_576
