#------------------------------------------------------------------------------
#$Date: 2020-04-04 07:11:09 +0300 (Sat, 04 Apr 2020) $
#$Revision: 250063 $
#$URL: file:///home/coder/svn-repositories/cod/cif/4/13/45/4134501.cif $
#------------------------------------------------------------------------------
#
# This file is available in the Crystallography Open Database (COD),
# http://www.crystallography.net/
#
# All data on this site have been placed in the public domain by the
# contributors.
#
data_4134501
loop_
_publ_author_name
'Pan, Chun-Ya'
'Yang, Xin-Rui'
'Xiong, Lin'
'Lu, Zhong-Wei'
'Zhen, Bo-Yu'
'Sui, Xin'
'Deng, Xue-Bin'
'Chen, Ling'
'Wu, Li-Ming'
_publ_section_title
;
 Solid-State Nonlinear Optical Switch with the Widest Switching
 Temperature Range Owing to Its Continuously Tunable <i>T</i><sub>c</sub>.
;
_journal_issue                   13
_journal_name_full               'Journal of the American Chemical Society'
_journal_page_first              6423
_journal_page_last               6431
_journal_paper_doi               10.1021/jacs.0c01741
_journal_volume                  142
_journal_year                    2020
_chemical_formula_sum            'F H8 K0 N2 O3 P'
_chemical_formula_weight         134.12
_space_group_IT_number           14
_space_group_name_Hall           '-P 2yn'
_space_group_name_H-M_alt        'P 1 21/n 1'
_symmetry_cell_setting           monoclinic
_symmetry_space_group_name_H-M   'P 1 21/n 1'
_atom_sites_solution_hydrogens   none
_atom_sites_solution_primary     direct
_atom_sites_solution_secondary   difmap
_audit_creation_method           SHELXL-97
_cell_angle_alpha                90.00
_cell_angle_beta                 92.271(2)
_cell_angle_gamma                90.00
_cell_formula_units_Z            4
_cell_length_a                   6.0443(2)
_cell_length_b                   7.8705(3)
_cell_length_c                   11.1958(5)
_cell_measurement_reflns_used    7064
_cell_measurement_temperature    240(2)
_cell_measurement_theta_max      27.50
_cell_measurement_theta_min      3.16
_cell_volume                     532.18(4)
_computing_structure_refinement  'SHELXL-97 (Sheldrick, 1997)'
_computing_structure_solution    'SHELXS-97 (Sheldrick, 1990)'
_diffrn_ambient_temperature      240(2)
_diffrn_measured_fraction_theta_full 0.999
_diffrn_measured_fraction_theta_max 0.999
_diffrn_measurement_device_type  'CCD area detector'
_diffrn_measurement_method       'phi and omega scans'
_diffrn_radiation_monochromator  graphite
_diffrn_radiation_source         'fine-focus sealed tube'
_diffrn_radiation_type           MoK\a
_diffrn_radiation_wavelength     0.71073
_diffrn_reflns_av_R_equivalents  0.0696
_diffrn_reflns_av_sigmaI/netI    0.0317
_diffrn_reflns_limit_h_max       7
_diffrn_reflns_limit_h_min       -7
_diffrn_reflns_limit_k_max       10
_diffrn_reflns_limit_k_min       -10
_diffrn_reflns_limit_l_max       14
_diffrn_reflns_limit_l_min       -14
_diffrn_reflns_number            14943
_diffrn_reflns_theta_full        27.50
_diffrn_reflns_theta_max         27.50
_diffrn_reflns_theta_min         3.16
_exptl_absorpt_coefficient_mu    0.455
_exptl_absorpt_correction_T_max  0.7456
_exptl_absorpt_correction_T_min  0.6331
_exptl_absorpt_correction_type   multi-scan
_exptl_crystal_colour            colorless
_exptl_crystal_density_diffrn    1.674
_exptl_crystal_density_method    'not measured'
_exptl_crystal_description       block
_exptl_crystal_F_000             280
_exptl_crystal_size_max          0.05
_exptl_crystal_size_mid          0.03
_exptl_crystal_size_min          0.02
_refine_diff_density_max         0.987
_refine_diff_density_min         -1.003
_refine_diff_density_rms         0.137
_refine_ls_extinction_method     none
_refine_ls_goodness_of_fit_ref   1.605
_refine_ls_hydrogen_treatment    none
_refine_ls_matrix_type           full
_refine_ls_number_parameters     98
_refine_ls_number_reflns         1215
_refine_ls_number_restraints     38
_refine_ls_restrained_S_all      1.585
_refine_ls_R_factor_all          0.0852
_refine_ls_R_factor_gt           0.0779
_refine_ls_shift/su_max          0.000
_refine_ls_shift/su_mean         0.000
_refine_ls_structure_factor_coef Fsqd
_refine_ls_weighting_details
'calc w=1/[\s^2^(Fo^2^)+(0.1000P)^2^+0.0000P] where P=(Fo^2^+2Fc^2^)/3'
_refine_ls_weighting_scheme      calc
_refine_ls_wR_factor_gt          0.1936
_refine_ls_wR_factor_ref         0.1980
_reflns_number_gt                1122
_reflns_number_total             1215
_reflns_threshold_expression     >2sigma(I)
_cod_data_source_file            K0.1(NH4)1.9PO3F.cif
_cod_data_source_block           K0.1(NH4)1.9PO3F-LTP-240K
_cod_depositor_comments
;
The following automatic conversions were performed:

data item '_symmetry_cell_setting' value 'Monoclinic' was changed to
'monoclinic' in accordance with the
/home/data/users/saulius/crontab/automatic-downloads/rss-feeds/ACS/lib/dictionaries/cif_core.dic
dictionary named 'cif_core.dic' version 2.4.2 last updated on
2011-04-26.

Automatic conversion script
Id: cif_fix_values 7556 2019-12-06 15:28:31Z antanas 

 Adding full bibliography for 4134470--4134505.cif.
;
_cod_original_sg_symbol_H-M      P2(1)/n
_cod_original_formula_sum        'H8 F K0 N2 O3 P'
_cod_database_code               4134501
loop_
_symmetry_equiv_pos_as_xyz
'x, y, z'
'-x+1/2, y+1/2, -z+1/2'
'-x, -y, -z'
'x-1/2, -y-1/2, z-1/2'
loop_
_atom_site_label
_atom_site_type_symbol
_atom_site_fract_x
_atom_site_fract_y
_atom_site_fract_z
_atom_site_U_iso_or_equiv
_atom_site_adp_type
_atom_site_occupancy
_atom_site_symmetry_multiplicity
_atom_site_calc_flag
_atom_site_refinement_flags
_atom_site_disorder_assembly
_atom_site_disorder_group
P P 0.24877(14) 0.31781(10) 0.63111(7) 0.0093(4) Uani 1 1 d . . .
N1 N 0.2427(5) -0.1360(4) 0.5321(3) 0.0144(7) Uani 1 1 d D . .
H4 H 0.203(5) -0.158(4) 0.602(2) 0.015(10) Uiso 1 1 d D . .
H3 H 0.155(5) -0.181(4) 0.482(3) 0.049(18) Uiso 1 1 d D . .
H2 H 0.370(4) -0.179(4) 0.524(3) 0.019(12) Uiso 1 1 d D . .
H1 H 0.250(5) -0.032(2) 0.522(3) 0.021(12) Uiso 1 1 d D . .
N2 N 0.2373(5) 0.4113(4) 0.3107(2) 0.0162(13) Uani 0.972(8) 1 d PD . .
H7 H 0.343(4) 0.409(4) 0.266(3) 0.018(11) Uiso 1 1 d D . .
H6 H 0.138(5) 0.348(4) 0.278(3) 0.037(15) Uiso 1 1 d D . .
H5 H 0.186(5) 0.506(3) 0.318(3) 0.015(11) Uiso 1 1 d D . .
H8 H 0.273(5) 0.370(4) 0.376(2) 0.034(14) Uiso 1 1 d D . .
K K 0.2373(5) 0.4113(4) 0.3107(2) 0.0162(13) Uani 0.028(8) 1 d P . .
O2 O 0.4114(5) 0.3171(3) 0.7361(2) 0.0229(7) Uani 1 1 d . . .
F F 0.2473(4) 0.5088(3) 0.5856(2) 0.0233(6) Uani 1 1 d . . .
O1 O 0.3213(4) 0.2195(3) 0.5230(2) 0.0165(6) Uani 1 1 d . . .
O3 O 0.0121(4) 0.2838(3) 0.6602(2) 0.0188(7) Uani 1 1 d . . .
loop_
_atom_site_aniso_label
_atom_site_aniso_U_11
_atom_site_aniso_U_22
_atom_site_aniso_U_33
_atom_site_aniso_U_23
_atom_site_aniso_U_13
_atom_site_aniso_U_12
P 0.0103(6) 0.0061(5) 0.0117(5) 0.0010(3) 0.0013(4) 0.0002(3)
N1 0.0149(17) 0.0115(14) 0.0166(16) -0.0029(12) 0.0004(13) -0.0015(13)
N2 0.0164(19) 0.0172(18) 0.0153(19) -0.0009(11) 0.0049(12) 0.0020(12)
K 0.0164(19) 0.0172(18) 0.0153(19) -0.0009(11) 0.0049(12) 0.0020(12)
O2 0.0186(15) 0.0294(16) 0.0203(15) -0.0016(11) -0.0042(12) 0.0001(11)
F 0.0381(14) 0.0063(10) 0.0255(13) 0.0036(9) 0.0021(10) 0.0000(9)
O1 0.0194(14) 0.0101(12) 0.0204(14) -0.0042(10) 0.0060(11) 0.0017(10)
O3 0.0127(14) 0.0192(13) 0.0249(15) 0.0001(10) 0.0047(11) -0.0014(10)
loop_
_atom_type_symbol
_atom_type_description
_atom_type_scat_dispersion_real
_atom_type_scat_dispersion_imag
_atom_type_scat_source
N N 0.0061 0.0033 'International Tables Vol C Tables 4.2.6.8 and 6.1.1.4'
H H 0.0000 0.0000 'International Tables Vol C Tables 4.2.6.8 and 6.1.1.4'
O O 0.0106 0.0060 'International Tables Vol C Tables 4.2.6.8 and 6.1.1.4'
F F 0.0171 0.0103 'International Tables Vol C Tables 4.2.6.8 and 6.1.1.4'
P P 0.1023 0.0942 'International Tables Vol C Tables 4.2.6.8 and 6.1.1.4'
K K 0.2009 0.2494 'International Tables Vol C Tables 4.2.6.8 and 6.1.1.4'
loop_
_geom_angle_atom_site_label_1
_geom_angle_atom_site_label_2
_geom_angle_atom_site_label_3
_geom_angle
_geom_angle_site_symmetry_1
_geom_angle_site_symmetry_3
_geom_angle_publ_flag
O2 P O3 115.39(16) . . ?
O2 P O1 114.95(15) . . ?
O3 P O1 112.94(15) . . ?
O2 P F 104.47(14) . . ?
O3 P F 104.18(14) . . ?
O1 P F 103.00(14) . . ?
O2 P K 111.29(12) . 3_566 ?
O3 P K 45.36(11) . 3_566 ?
O1 P K 133.63(11) . 3_566 ?
F P K 61.15(10) . 3_566 ?
O2 P K 50.43(12) . 3_666 ?
O3 P K 147.20(12) . 3_666 ?
O1 P K 99.36(11) . 3_666 ?
F P K 61.21(10) . 3_666 ?
K P K 107.17(7) 3_566 3_666 ?
H4 N1 H3 110(2) . . ?
H4 N1 H2 108(2) . . ?
H3 N1 H2 108(2) . . ?
H4 N1 H1 110(2) . . ?
H3 N1 H1 111(2) . . ?
H2 N1 H1 109(2) . . ?
H7 N2 H6 106(2) . . ?
H7 N2 H5 113(2) . . ?
H6 N2 H5 108(2) . . ?
H7 N2 H8 110(2) . . ?
H6 N2 H8 108(2) . . ?
H5 N2 H8 112(2) . . ?
P O2 K 132.33(16) . 4_666 ?
P O2 K 107.43(14) . 3_666 ?
K O2 K 90.85(8) 4_666 3_666 ?
P F K 93.56(11) . 3_566 ?
P F K 94.19(11) . 3_666 ?
K F K 132.81(11) 3_566 3_666 ?
P O3 K 143.42(17) . 4_566 ?
P O3 K 112.68(14) . 3_566 ?
K O3 K 93.56(8) 4_566 3_566 ?
loop_
_geom_bond_atom_site_label_1
_geom_bond_atom_site_label_2
_geom_bond_distance
_geom_bond_site_symmetry_2
_geom_bond_publ_flag
P O2 1.502(3) . ?
P O3 1.503(3) . ?
P O1 1.516(2) . ?
P F 1.587(2) . ?
P K 3.709(3) 3_566 ?
P K 3.802(3) 3_666 ?
N1 H4 0.843(17) . ?
N1 H3 0.832(18) . ?
N1 H2 0.847(17) . ?
N1 H1 0.829(17) . ?
N2 H7 0.825(18) . ?
N2 H6 0.850(18) . ?
N2 H5 0.811(18) . ?
N2 H8 0.823(18) . ?
O2 K 2.772(4) 4_666 ?
O2 K 3.072(4) 3_666 ?
F K 3.255(4) 3_566 ?
F K 3.341(4) 3_666 ?
O3 K 2.860(4) 4_566 ?
O3 K 2.860(4) 3_566 ?
loop_
_geom_hbond_atom_site_label_D
_geom_hbond_atom_site_label_H
_geom_hbond_atom_site_label_A
_geom_hbond_distance_DH
_geom_hbond_distance_HA
_geom_hbond_distance_DA
_geom_hbond_angle_DHA
_geom_hbond_site_symmetry_A
N1 H1 O1 0.829(17) 2.025(19) 2.841(4) 168(3) .
N2 H8 O1 0.823(18) 2.04(2) 2.845(4) 167(4) .
N2 H8 F 0.823(18) 2.60(3) 3.170(3) 128(3) .
N1 H4 O2 0.843(17) 1.978(18) 2.816(4) 173(3) 2_546
N1 H3 O3 0.832(18) 2.023(19) 2.846(4) 170(4) 3_556
N1 H2 O1 0.847(17) 1.985(19) 2.808(4) 164(3) 3_656
N2 H7 O3 0.825(18) 2.20(3) 2.860(4) 137(3) 4_665
N2 H7 O2 0.825(18) 2.62(3) 3.072(4) 116(3) 3_666
N2 H6 O2 0.850(18) 1.934(19) 2.772(4) 168(4) 4_565
N2 H5 O3 0.811(18) 2.065(19) 2.860(4) 167(3) 3_566
