#------------------------------------------------------------------------------
#$Date: 2020-03-05 01:43:09 +0200 (Thu, 05 Mar 2020) $
#$Revision: 248862 $
#$URL: file:///home/coder/svn-repositories/cod/cif/4/13/43/4134336.cif $
#------------------------------------------------------------------------------
#
# This file is available in the Crystallography Open Database (COD),
# http://www.crystallography.net/
#
# All data on this site have been placed in the public domain by the
# contributors.
#
data_4134336
loop_
_publ_author_name
'Guo, Shu'
'Zhong, Ruidan'
'Wang, Wei'
'Tao, Jing'
'Ni, Danrui'
'Cava, Robert J.'
_publ_section_title
;
 K<sub>3</sub>Ir<sub>2</sub>O<sub>6</sub> and
 K<sub>16.3</sub>Ir<sub>8</sub>O<sub>30</sub>, Low dimensional Iridates
 with Infinite IrO<sub>6</sub> Chains.
;
_journal_name_full               'Journal of the American Chemical Society'
_journal_paper_doi               10.1021/jacs.0c00849
_journal_year                    2020
_chemical_formula_moiety         'Ir2 K3 O6'
_chemical_formula_sum            'Ir2 K3 O6'
_chemical_formula_weight         597.70
_space_group_crystal_system      trigonal
_space_group_IT_number           148
_space_group_name_Hall           '-R 3'
_space_group_name_H-M_alt        'R -3 :H'
_atom_sites_solution_hydrogens   None
_atom_sites_solution_primary     direct
_atom_sites_solution_secondary   difmap
_audit_creation_date             2020-01-20
_audit_creation_method
;
Olex2 1.2
(compiled 2018.05.29 svn.r3508 for OlexSys, GUI svn.r5506)
;
_cell_angle_alpha                90.00
_cell_angle_beta                 90.00
_cell_angle_gamma                120.00
_cell_formula_units_Z            6
_cell_length_a                   10.7907(7)
_cell_length_b                   10.7907(7)
_cell_length_c                   10.5055(7)
_cell_measurement_reflns_used    2441
_cell_measurement_temperature    100
_cell_measurement_theta_max      33.16
_cell_measurement_theta_min      3.78
_cell_volume                     1059.37(12)
_computing_molecular_graphics    'Olex2 (Dolomanov et al., 2009)'
_computing_publication_material  'Olex2 (Dolomanov et al., 2009)'
_computing_structure_refinement  'XL (Sheldrick, 2008)'
_computing_structure_solution    'XS (Sheldrick, 2008)'
_diffrn_ambient_temperature      100
_diffrn_detector                 'Bruker APEX2 area detector'
_diffrn_detector_area_resol_mean 7.9
_diffrn_detector_type            'CCD area detector'
_diffrn_measured_fraction_theta_full 1.000
_diffrn_measured_fraction_theta_max 1.000
_diffrn_measurement_device       'three-circle diffractometer'
_diffrn_measurement_device_type  'Bruker SMART APEX2 area detector'
_diffrn_measurement_method       '\w and \f scans'
_diffrn_radiation_monochromator  'mirror optics'
_diffrn_radiation_probe          x-ray
_diffrn_radiation_type           MoK\a
_diffrn_radiation_wavelength     0.71073
_diffrn_reflns_av_R_equivalents  0.0245
_diffrn_reflns_av_unetI/netI     0.0153
_diffrn_reflns_limit_h_max       16
_diffrn_reflns_limit_h_min       -16
_diffrn_reflns_limit_k_max       16
_diffrn_reflns_limit_k_min       -16
_diffrn_reflns_limit_l_max       16
_diffrn_reflns_limit_l_min       -16
_diffrn_reflns_number            6766
_diffrn_reflns_theta_full        33.18
_diffrn_reflns_theta_max         33.18
_diffrn_reflns_theta_min         2.92
_diffrn_source                   'microfocus sealed X-ray tube'
_diffrn_source_type              'Incoatec I\ms'
_diffrn_standards_number         0
_exptl_absorpt_coefficient_mu    39.389
_exptl_absorpt_correction_T_max  0.7465
_exptl_absorpt_correction_T_min  0.3349
_exptl_absorpt_correction_type   multi-scan
_exptl_absorpt_process_details
;
SADABS-2016/2 (Bruker,2016/2) was used for absorption correction.
wR2(int) was 0.1259 before and 0.0244 after correction.
The Ratio of minimum to maximum transmission is 0.4486.
The \l/2 correction factor is Not present.
;
_exptl_crystal_colour            black
_exptl_crystal_colour_primary    black
_exptl_crystal_density_diffrn    5.621
_exptl_crystal_density_method    'not measured'
_exptl_crystal_description       needle
_exptl_crystal_F_000             1554
_exptl_crystal_size_max          0.137
_exptl_crystal_size_mid          0.064
_exptl_crystal_size_min          0.036
_refine_diff_density_max         1.265
_refine_diff_density_min         -1.773
_refine_diff_density_rms         0.292
_refine_ls_extinction_method     none
_refine_ls_goodness_of_fit_ref   1.062
_refine_ls_hydrogen_treatment    undef
_refine_ls_matrix_type           full
_refine_ls_number_parameters     36
_refine_ls_number_reflns         899
_refine_ls_number_restraints     0
_refine_ls_restrained_S_all      1.062
_refine_ls_R_factor_all          0.0295
_refine_ls_R_factor_gt           0.0175
_refine_ls_shift/su_max          0.000
_refine_ls_shift/su_mean         0.000
_refine_ls_structure_factor_coef Fsqd
_refine_ls_weighting_details
'calc w=1/[\s^2^(Fo^2^)+(0.0139P)^2^+0.0000P] where P=(Fo^2^+2Fc^2^)/3'
_refine_ls_weighting_scheme      calc
_refine_ls_wR_factor_gt          0.0314
_refine_ls_wR_factor_ref         0.0344
_reflns_number_gt                721
_reflns_number_total             899
_reflns_threshold_expression     >2sigma(I)
_cod_data_source_file            ja0c00849_si_002.cif
_cod_data_source_block           190915_ki_800_100_0m
_cod_original_sg_symbol_H-M      'R -3'
_cod_database_code               4134336
_olex2_refinement_description
;
1. Twinned data refinement
 Scales: 0.5956(19)
 0.4044(19)
;
_olex2_submission_special_instructions 'No special instructions were received'
loop_
_space_group_symop_id
_space_group_symop_operation_xyz
1 'x, y, z'
2 '-y, x-y, z'
3 '-x+y, -x, z'
4 'x+2/3, y+1/3, z+1/3'
5 '-y+2/3, x-y+1/3, z+1/3'
6 '-x+y+2/3, -x+1/3, z+1/3'
7 'x+1/3, y+2/3, z+2/3'
8 '-y+1/3, x-y+2/3, z+2/3'
9 '-x+y+1/3, -x+2/3, z+2/3'
10 '-x, -y, -z'
11 'y, -x+y, -z'
12 'x-y, x, -z'
13 '-x+2/3, -y+1/3, -z+1/3'
14 'y+2/3, -x+y+1/3, -z+1/3'
15 'x-y+2/3, x+1/3, -z+1/3'
16 '-x+1/3, -y+2/3, -z+2/3'
17 'y+1/3, -x+y+2/3, -z+2/3'
18 'x-y+1/3, x+2/3, -z+2/3'
loop_
_atom_site_label
_atom_site_type_symbol
_atom_site_fract_x
_atom_site_fract_y
_atom_site_fract_z
_atom_site_U_iso_or_equiv
_atom_site_adp_type
_atom_site_occupancy
_atom_site_calc_flag
_atom_site_disorder_assembly
_atom_site_disorder_group
_atom_site_site_symmetry_order
_atom_site_refinement_flags_posn
_atom_site_refinement_flags_adp
_atom_site_refinement_flags_occupancy
Ir1 Ir 0.0000 0.0000 0.0000 0.00294(7) Uani 1 d . . 6 S T P
Ir2 Ir 0.0000 0.0000 0.5000 0.00203(7) Uani 1 d . . 6 S T P
Ir3 Ir 0.0000 0.0000 0.24960(2) 0.00277(6) Uani 1 d . . 3 S T P
K1 K 0.03790(9) 0.30956(8) 0.17563(9) 0.00662(13) Uani 1 d . . 1 . . .
O1 O 0.1503(2) 0.1288(2) 0.1237(2) 0.0048(5) Uani 1 d . . 1 . . .
O2 O 0.0286(3) 0.1524(2) 0.3745(2) 0.0046(5) Uani 1 d . . 1 . . .
loop_
_atom_site_aniso_label
_atom_site_aniso_U_11
_atom_site_aniso_U_22
_atom_site_aniso_U_33
_atom_site_aniso_U_23
_atom_site_aniso_U_13
_atom_site_aniso_U_12
Ir1 0.00192(10) 0.00192(10) 0.00497(15) 0.000 0.000 0.00096(5)
Ir2 0.00214(10) 0.00214(10) 0.00182(15) 0.000 0.000 0.00107(5)
Ir3 0.00189(7) 0.00189(7) 0.00452(10) 0.000 0.000 0.00094(4)
K1 0.0059(4) 0.0052(4) 0.0091(3) 0.0024(3) 0.0015(3) 0.0031(3)
O1 0.0053(14) 0.0062(12) 0.0025(10) -0.0006(9) -0.0015(10) 0.0027(11)
O2 0.0086(13) 0.0046(14) 0.0034(10) 0.0005(10) 0.0007(10) 0.0055(11)
loop_
_atom_type_symbol
_atom_type_description
_atom_type_scat_dispersion_real
_atom_type_scat_dispersion_imag
_atom_type_scat_source
Ir Ir -1.4442 7.9887 'International Tables Vol C Tables 4.2.6.8 and 6.1.1.4'
K K 0.2009 0.2494 'International Tables Vol C Tables 4.2.6.8 and 6.1.1.4'
O O 0.0106 0.0060 'International Tables Vol C Tables 4.2.6.8 and 6.1.1.4'
loop_
_geom_angle_atom_site_label_1
_geom_angle_atom_site_label_2
_geom_angle_atom_site_label_3
_geom_angle
_geom_angle_site_symmetry_1
_geom_angle_site_symmetry_3
_geom_angle_publ_flag
Ir3 Ir1 Ir3 180.0 10 . ?
Ir3 Ir1 K1 120.314(14) 10 . ?
Ir3 Ir1 K1 59.686(14) . 3 ?
Ir3 Ir1 K1 120.314(14) . 12 ?
Ir3 Ir1 K1 59.686(14) . . ?
Ir3 Ir1 K1 59.686(14) 10 12 ?
Ir3 Ir1 K1 59.686(14) 10 10 ?
Ir3 Ir1 K1 120.314(14) . 10 ?
Ir3 Ir1 K1 120.314(14) 10 3 ?
K1 Ir1 K1 96.769(19) . 3 ?
K1 Ir1 K1 96.769(19) 10 12 ?
K1 Ir1 K1 83.231(19) . 12 ?
K1 Ir1 K1 83.231(19) 10 3 ?
K1 Ir1 K1 180.00(3) . 10 ?
K1 Ir1 K1 180.00(3) 3 12 ?
O1 Ir1 Ir3 130.56(7) 3 10 ?
O1 Ir1 Ir3 49.44(7) 3 . ?
O1 Ir1 Ir3 49.44(7) 2 . ?
O1 Ir1 Ir3 49.44(7) 11 10 ?
O1 Ir1 Ir3 130.56(7) 12 . ?
O1 Ir1 Ir3 49.44(7) 10 10 ?
O1 Ir1 Ir3 49.44(7) . . ?
O1 Ir1 Ir3 49.44(7) 12 10 ?
O1 Ir1 Ir3 130.56(7) 11 . ?
O1 Ir1 Ir3 130.56(7) 2 10 ?
O1 Ir1 Ir3 130.56(7) 10 . ?
O1 Ir1 Ir3 130.56(7) . 10 ?
O1 Ir1 K1 48.12(7) 2 . ?
O1 Ir1 K1 49.86(7) 12 12 ?
O1 Ir1 K1 48.12(7) 10 12 ?
O1 Ir1 K1 109.12(7) 3 . ?
O1 Ir1 K1 70.88(7) 12 . ?
O1 Ir1 K1 131.88(7) 11 . ?
O1 Ir1 K1 130.14(7) 3 12 ?
O1 Ir1 K1 49.86(7) 10 10 ?
O1 Ir1 K1 131.88(7) 2 10 ?
O1 Ir1 K1 130.14(7) 10 . ?
O1 Ir1 K1 109.12(7) 12 10 ?
O1 Ir1 K1 70.88(7) 11 3 ?
O1 Ir1 K1 131.88(7) . 12 ?
O1 Ir1 K1 130.14(7) 12 3 ?
O1 Ir1 K1 109.12(7) 11 12 ?
O1 Ir1 K1 109.12(7) 2 3 ?
O1 Ir1 K1 70.88(7) 2 12 ?
O1 Ir1 K1 130.14(7) . 10 ?
O1 Ir1 K1 70.88(7) 3 10 ?
O1 Ir1 K1 48.12(7) . 3 ?
O1 Ir1 K1 49.86(7) . . ?
O1 Ir1 K1 49.86(7) 3 3 ?
O1 Ir1 K1 48.12(7) 11 10 ?
O1 Ir1 K1 131.88(7) 10 3 ?
O1 Ir1 O1 97.72(10) 3 11 ?
O1 Ir1 O1 180.00(16) 11 2 ?
O1 Ir1 O1 82.28(10) 10 11 ?
O1 Ir1 O1 82.28(10) 10 12 ?
O1 Ir1 O1 180.0(3) 10 . ?
O1 Ir1 O1 97.72(10) . 12 ?
O1 Ir1 O1 82.28(10) 3 2 ?
O1 Ir1 O1 180.00(14) 3 12 ?
O1 Ir1 O1 97.72(10) 12 2 ?
O1 Ir1 O1 82.28(10) 11 12 ?
O1 Ir1 O1 82.28(10) . 3 ?
O1 Ir1 O1 97.72(10) 10 2 ?
O1 Ir1 O1 97.72(10) . 11 ?
O1 Ir1 O1 82.28(10) . 2 ?
O1 Ir1 O1 97.72(10) 10 3 ?
Ir3 Ir2 Ir3 180.0 . 10_556 ?
Ir3 Ir2 K1 88.488(15) . 16 ?
Ir3 Ir2 K1 91.512(15) . 4_445 ?
Ir3 Ir2 K1 91.512(15) . 5 ?
Ir3 Ir2 K1 91.512(15) 10_556 16 ?
Ir3 Ir2 K1 88.488(15) . 17_445 ?
Ir3 Ir2 K1 88.488(15) 10_556 4_445 ?
Ir3 Ir2 K1 91.512(15) 10_556 17_445 ?
Ir3 Ir2 K1 88.488(15) 10_556 5 ?
K1 Ir2 K1 60.068(1) 17_445 4_445 ?
K1 Ir2 K1 119.932(1) 5 4_445 ?
K1 Ir2 K1 119.932(1) 17_445 16 ?
K1 Ir2 K1 180.0 16 4_445 ?
K1 Ir2 K1 60.068(1) 5 16 ?
K1 Ir2 K1 180.0 5 17_445 ?
O2 Ir2 Ir3 131.04(6) 10_556 . ?
O2 Ir2 Ir3 48.96(6) 10_556 10_556 ?
O2 Ir2 Ir3 48.96(6) 11_556 10_556 ?
O2 Ir2 Ir3 131.04(6) . 10_556 ?
O2 Ir2 Ir3 48.96(6) 2 . ?
O2 Ir2 Ir3 131.04(6) 12_556 . ?
O2 Ir2 Ir3 131.04(6) 2 10_556 ?
O2 Ir2 Ir3 131.04(6) 3 10_556 ?
O2 Ir2 Ir3 48.96(6) . . ?
O2 Ir2 Ir3 131.04(6) 11_556 . ?
O2 Ir2 Ir3 48.96(6) 3 . ?
O2 Ir2 Ir3 48.96(6) 12_556 10_556 ?
O2 Ir2 K1 53.82(7) 11_556 5 ?
O2 Ir2 K1 81.08(7) 3 16 ?
O2 Ir2 K1 46.09(7) 11_556 16 ?
O2 Ir2 K1 126.18(7) 2 5 ?
O2 Ir2 K1 53.82(7) 10_556 4_445 ?
O2 Ir2 K1 98.92(7) . 5 ?
O2 Ir2 K1 126.18(7) 10_556 16 ?
O2 Ir2 K1 81.08(7) 10_556 5 ?
O2 Ir2 K1 46.09(7) 2 4_445 ?
O2 Ir2 K1 133.91(7) 12_556 5 ?
O2 Ir2 K1 98.92(7) 3 4_445 ?
O2 Ir2 K1 46.09(7) 3 5 ?
O2 Ir2 K1 53.82(7) . 16 ?
O2 Ir2 K1 126.18(7) 11_556 17_445 ?
O2 Ir2 K1 98.92(7) 12_556 16 ?
O2 Ir2 K1 53.82(7) 2 17_445 ?
O2 Ir2 K1 133.91(7) 11_556 4_445 ?
O2 Ir2 K1 81.08(7) . 17_445 ?
O2 Ir2 K1 126.18(7) . 4_445 ?
O2 Ir2 K1 98.92(7) 10_556 17_445 ?
O2 Ir2 K1 81.08(7) 12_556 4_445 ?
O2 Ir2 K1 46.09(7) 12_556 17_445 ?
O2 Ir2 K1 133.91(7) 3 17_445 ?
O2 Ir2 K1 133.91(7) 2 16 ?
O2 Ir2 O2 81.56(10) 2 . ?
O2 Ir2 O2 98.44(9) 10_556 3 ?
O2 Ir2 O2 98.44(10) . 12_556 ?
O2 Ir2 O2 81.56(10) 11_556 10_556 ?
O2 Ir2 O2 81.56(10) 11_556 12_556 ?
O2 Ir2 O2 98.44(10) 2 10_556 ?
O2 Ir2 O2 180.0 11_556 2 ?
O2 Ir2 O2 180.00(10) . 10_556 ?
O2 Ir2 O2 180.0 12_556 3 ?
O2 Ir2 O2 98.44(10) 11_556 . ?
O2 Ir2 O2 98.44(10) 2 12_556 ?
O2 Ir2 O2 81.56(10) 2 3 ?
O2 Ir2 O2 81.56(10) 10_556 12_556 ?
O2 Ir2 O2 98.44(10) 11_556 3 ?
O2 Ir2 O2 81.56(10) . 3 ?
Ir1 Ir3 Ir2 180.0 . . ?
Ir1 Ir3 K1 76.167(16) . 3 ?
Ir1 Ir3 K1 76.167(16) . . ?
Ir1 Ir3 K1 76.167(16) . 2 ?
Ir2 Ir3 K1 103.833(16) . . ?
Ir2 Ir3 K1 103.833(16) . 3 ?
Ir2 Ir3 K1 103.833(16) . 2 ?
K1 Ir3 K1 114.472(13) 2 . ?
K1 Ir3 K1 114.472(13) 2 3 ?
K1 Ir3 K1 114.472(13) 3 . ?
O1 Ir3 Ir1 48.96(6) 2 . ?
O1 Ir3 Ir1 48.96(6) 3 . ?
O1 Ir3 Ir1 48.96(6) . . ?
O1 Ir3 Ir2 131.04(6) 3 . ?
O1 Ir3 Ir2 131.04(6) . . ?
O1 Ir3 Ir2 131.04(6) 2 . ?
O1 Ir3 K1 57.60(7) 3 2 ?
O1 Ir3 K1 125.11(7) . 2 ?
O1 Ir3 K1 59.32(7) . . ?
O1 Ir3 K1 125.11(7) 3 . ?
O1 Ir3 K1 57.60(7) 2 . ?
O1 Ir3 K1 59.32(7) 2 2 ?
O1 Ir3 K1 125.11(7) 2 3 ?
O1 Ir3 K1 57.60(7) . 3 ?
O1 Ir3 K1 59.32(7) 3 3 ?
O1 Ir3 O1 81.56(10) 3 2 ?
O1 Ir3 O1 81.56(10) . 2 ?
O1 Ir3 O1 81.56(10) 3 . ?
O2 Ir3 Ir1 130.92(6) . . ?
O2 Ir3 Ir1 130.92(6) 3 . ?
O2 Ir3 Ir1 130.92(6) 2 . ?
O2 Ir3 Ir2 49.08(6) . . ?
O2 Ir3 Ir2 49.08(6) 3 . ?
O2 Ir3 Ir2 49.08(6) 2 . ?
O2 Ir3 K1 124.33(7) 2 3 ?
O2 Ir3 K1 118.78(7) 2 . ?
O2 Ir3 K1 118.78(7) 3 2 ?
O2 Ir3 K1 118.78(7) . 3 ?
O2 Ir3 K1 124.33(7) . 2 ?
O2 Ir3 K1 54.86(7) . . ?
O2 Ir3 K1 54.86(7) 2 2 ?
O2 Ir3 K1 54.86(7) 3 3 ?
O2 Ir3 K1 124.33(7) 3 . ?
O2 Ir3 O1 178.06(9) 2 . ?
O2 Ir3 O1 97.08(10) . . ?
O2 Ir3 O1 178.06(9) . 3 ?
O2 Ir3 O1 178.06(9) 3 2 ?
O2 Ir3 O1 99.65(9) . 2 ?
O2 Ir3 O1 97.08(10) 2 2 ?
O2 Ir3 O1 99.65(9) 3 . ?
O2 Ir3 O1 99.65(9) 2 3 ?
O2 Ir3 O1 97.08(9) 3 3 ?
O2 Ir3 O2 81.75(10) . 2 ?
O2 Ir3 O2 81.75(10) 3 2 ?
O2 Ir3 O2 81.75(10) . 3 ?
Ir2 K1 K1 98.98(3) 7_554 6_455 ?
Ir2 K1 K1 80.17(3) 7_554 8_554 ?
Ir2 K1 K1 59.964(1) 7_554 15 ?
Ir2 K1 K1 59.966(1) 7_554 14_455 ?
Ir3 K1 Ir2 134.55(3) . 7_554 ?
Ir3 K1 K1 76.93(3) . 15 ?
Ir3 K1 K1 81.04(3) . 6_455 ?
Ir3 K1 K1 161.06(3) . 14_455 ?
Ir3 K1 K1 119.35(3) . 8_554 ?
K1 K1 K1 109.06(4) 15 6_455 ?
K1 K1 K1 84.57(4) 14_455 6_455 ?
K1 K1 K1 70.94(4) 14_455 8_554 ?
K1 K1 K1 152.30(4) 8_554 6_455 ?
K1 K1 K1 94.58(3) 15 8_554 ?
K1 K1 K1 119.724(5) 15 14_455 ?
O1 K1 Ir2 159.88(5) 2 7_554 ?
O1 K1 Ir2 110.26(6) 14_455 7_554 ?
O1 K1 Ir2 106.33(5) . 7_554 ?
O1 K1 Ir3 38.06(5) 2 . ?
O1 K1 Ir3 37.92(5) . . ?
O1 K1 Ir3 111.07(6) 14_455 . ?
O1 K1 K1 103.55(6) 2 15 ?
O1 K1 K1 133.47(6) 2 14_455 ?
O1 K1 K1 97.49(5) 2 6_455 ?
O1 K1 K1 47.26(5) . 15 ?
O1 K1 K1 90.52(5) 2 8_554 ?
O1 K1 K1 160.79(6) . 14_455 ?
O1 K1 K1 112.15(6) . 6_455 ?
O1 K1 K1 87.75(6) 14_455 8_554 ?
O1 K1 K1 169.20(6) 14_455 15 ?
O1 K1 K1 51.26(6) 14_455 14_455 ?
O1 K1 K1 66.39(6) 14_455 6_455 ?
O1 K1 K1 94.37(5) . 8_554 ?
O1 K1 O1 86.94(8) 14_455 2 ?
O1 K1 O1 56.30(9) 2 . ?
O1 K1 O1 143.16(8) 14_455 . ?
O1 K1 O2 100.21(8) 14_455 . ?
O1 K1 O2 90.12(7) . 16 ?
O1 K1 O2 141.85(7) 2 16 ?
O1 K1 O2 123.21(8) 14_455 16 ?
O2 K1 Ir2 115.94(6) . 7_554 ?
O2 K1 Ir2 34.21(4) 16 7_554 ?
O2 K1 Ir2 33.60(5) 8_554 7_554 ?
O2 K1 Ir3 38.01(5) . . ?
O2 K1 Ir3 104.49(5) 16 . ?
O2 K1 Ir3 146.05(6) 8_554 . ?
O2 K1 K1 130.21(7) . 14_455 ?
O2 K1 K1 81.58(7) . 15 ?
O2 K1 K1 46.25(5) 16 15 ?
O2 K1 K1 52.82(5) 8_554 14_455 ?
O2 K1 K1 77.56(5) 16 6_455 ?
O2 K1 K1 74.31(6) 8_554 15 ?
O2 K1 K1 157.35(6) . 8_554 ?
O2 K1 K1 111.49(6) 16 8_554 ?
O2 K1 K1 45.76(5) . 6_455 ?
O2 K1 K1 125.41(6) 8_554 6_455 ?
O2 K1 K1 46.85(5) 8_554 8_554 ?
O2 K1 K1 84.20(5) 16 14_455 ?
O2 K1 O1 100.01(7) 8_554 14_455 ?
O2 K1 O1 135.83(7) 8_554 2 ?
O2 K1 O1 66.60(8) . . ?
O2 K1 O1 68.98(8) . 2 ?
O2 K1 O1 108.13(7) 8_554 . ?
O2 K1 O2 81.94(8) . 16 ?
O2 K1 O2 148.67(6) 8_554 . ?
O2 K1 O2 66.97(10) 8_554 16 ?
Ir1 O1 Ir3 81.61(8) . . ?
Ir1 O1 K1 99.21(9) . 3 ?
Ir1 O1 K1 97.29(9) . . ?
Ir1 O1 K1 146.56(12) . 15 ?
Ir3 O1 K1 130.79(11) . 15 ?
Ir3 O1 K1 84.34(8) . 3 ?
Ir3 O1 K1 82.76(8) . . ?
K1 O1 K1 81.48(7) 15 . ?
K1 O1 K1 157.31(9) 3 . ?
K1 O1 K1 93.06(8) 15 3 ?
Ir2 O2 K1 100.31(9) . 6_455 ?
Ir2 O2 K1 91.98(8) . 16 ?
Ir2 O2 K1 168.24(11) . . ?
Ir3 O2 Ir2 81.96(8) . . ?
Ir3 O2 K1 152.72(12) . 6_455 ?
Ir3 O2 K1 87.13(8) . . ?
Ir3 O2 K1 126.31(11) . 16 ?
K1 O2 K1 87.39(7) 6_455 . ?
K1 O2 K1 98.06(8) . 16 ?
K1 O2 K1 80.94(6) 6_455 16 ?
loop_
_geom_bond_atom_site_label_1
_geom_bond_atom_site_label_2
_geom_bond_distance
_geom_bond_site_symmetry_2
_geom_bond_publ_flag
Ir1 Ir3 2.6221(3) . ?
Ir1 Ir3 2.6221(3) 10 ?
Ir1 K1 3.6556(8) 10 ?
Ir1 K1 3.6556(8) . ?
Ir1 K1 3.6556(8) 12 ?
Ir1 K1 3.6556(8) 3 ?
Ir1 O1 1.999(2) 11 ?
Ir1 O1 1.999(2) 3 ?
Ir1 O1 1.999(2) 12 ?
Ir1 O1 1.999(2) 2 ?
Ir1 O1 1.999(2) . ?
Ir1 O1 1.999(2) 10 ?
Ir2 Ir3 2.6306(3) . ?
Ir2 Ir3 2.6306(3) 10_556 ?
Ir2 K1 3.5688(8) 5 ?
Ir2 K1 3.5688(8) 16 ?
Ir2 K1 3.5688(8) 17_445 ?
Ir2 K1 3.5688(8) 4_445 ?
Ir2 O2 2.007(2) 11_556 ?
Ir2 O2 2.007(2) 2 ?
Ir2 O2 2.007(2) 12_556 ?
Ir2 O2 2.007(2) . ?
Ir2 O2 2.007(2) 10_556 ?
Ir2 O2 2.007(2) 3 ?
Ir3 K1 3.2500(8) 3 ?
Ir3 K1 3.2500(8) 2 ?
Ir3 K1 3.2500(8) . ?
Ir3 O1 2.014(2) 2 ?
Ir3 O1 2.014(2) 3 ?
Ir3 O1 2.014(2) . ?
Ir3 O2 2.004(2) . ?
Ir3 O2 2.004(2) 3 ?
Ir3 O2 2.004(2) 2 ?
K1 Ir2 3.5688(8) 7_554 ?
K1 K1 3.5726(8) 14_455 ?
K1 K1 3.6438(4) 8_554 ?
K1 K1 3.6438(4) 6_455 ?
K1 K1 3.5725(8) 15 ?
K1 O1 2.817(3) . ?
K1 O1 2.757(2) 2 ?
K1 O1 2.653(2) 14_455 ?
K1 O2 2.882(2) 16 ?
K1 O2 2.613(2) 8_554 ?
K1 O2 2.661(2) . ?
O1 K1 2.757(2) 3 ?
O1 K1 2.653(2) 15 ?
O2 K1 2.613(2) 6_455 ?
O2 K1 2.882(2) 16 ?
loop_
_twin_individual_id
_twin_individual_mass_fraction_refined
1 0.5956(19)
2 0.4044(19)
