#------------------------------------------------------------------------------
#$Date: 2020-09-02 19:55:10 +0300 (Wed, 02 Sep 2020) $
#$Revision: 255805 $
#$URL: file:///home/coder/svn-repositories/cod/cif/4/13/44/4134476.cif $
#------------------------------------------------------------------------------
#
# This file is available in the Crystallography Open Database (COD),
# http://www.crystallography.net/
#
# All data on this site have been placed in the public domain by the
# contributors.
#
data_4134476
loop_
_publ_author_name
'Pan, Chun-Ya'
'Yang, Xin-Rui'
'Xiong, Lin'
'Lu, Zhong-Wei'
'Zhen, Bo-Yu'
'Sui, Xin'
'Deng, Xue-Bin'
'Chen, Ling'
'Wu, Li-Ming'
_publ_section_title
;
 Solid-State Nonlinear Optical Switch with the Widest Switching
 Temperature Range Owing to Its Continuously Tunable <i>T</i><sub>c</sub>.
;
_journal_issue                   13
_journal_name_full               'Journal of the American Chemical Society'
_journal_page_first              6423
_journal_page_last               6431
_journal_paper_doi               10.1021/jacs.0c01741
_journal_volume                  142
_journal_year                    2020
_chemical_formula_sum            'F H8 N2 O3 P'
_chemical_formula_weight         134.05
_space_group_IT_number           14
_space_group_name_Hall           '-P 2yn'
_space_group_name_H-M_alt        'P 1 21/n 1'
_symmetry_cell_setting           monoclinic
_symmetry_space_group_name_H-M   'P 1 21/n 1'
_atom_sites_solution_hydrogens   none
_atom_sites_solution_primary     direct
_atom_sites_solution_secondary   difmap
_audit_creation_method           SHELXL-97
_cell_angle_alpha                90.00
_cell_angle_beta                 92.255(2)
_cell_angle_gamma                90.00
_cell_formula_units_Z            4
_cell_length_a                   6.0577(4)
_cell_length_b                   7.8714(5)
_cell_length_c                   11.2223(7)
_cell_measurement_reflns_used    9310
_cell_measurement_temperature    220(2)
_cell_measurement_theta_max      27.55
_cell_measurement_theta_min      3.16
_cell_volume                     534.69(6)
_computing_structure_refinement  'SHELXL-97 (Sheldrick, 1997)'
_computing_structure_solution    'SHELXS-97 (Sheldrick, 1990)'
_diffrn_ambient_temperature      220(2)
_diffrn_measured_fraction_theta_full 0.990
_diffrn_measured_fraction_theta_max 0.990
_diffrn_measurement_device_type  'CCD area detector'
_diffrn_measurement_method       'phi and omega scans'
_diffrn_radiation_monochromator  graphite
_diffrn_radiation_source         'fine-focus sealed tube'
_diffrn_radiation_type           MoK\a
_diffrn_radiation_wavelength     0.71073
_diffrn_reflns_av_R_equivalents  0.0788
_diffrn_reflns_av_sigmaI/netI    0.0439
_diffrn_reflns_limit_h_max       7
_diffrn_reflns_limit_h_min       -7
_diffrn_reflns_limit_k_max       10
_diffrn_reflns_limit_k_min       -10
_diffrn_reflns_limit_l_max       14
_diffrn_reflns_limit_l_min       -14
_diffrn_reflns_number            10032
_diffrn_reflns_theta_full        27.61
_diffrn_reflns_theta_max         27.61
_diffrn_reflns_theta_min         3.16
_exptl_absorpt_coefficient_mu    0.451
_exptl_absorpt_correction_T_max  0.7457
_exptl_absorpt_correction_T_min  0.6603
_exptl_absorpt_correction_type   multi-scan
_exptl_crystal_colour            colorless
_exptl_crystal_density_diffrn    1.665
_exptl_crystal_density_method    'not measured'
_exptl_crystal_description       block
_exptl_crystal_F_000             280
_exptl_crystal_size_max          0.05
_exptl_crystal_size_mid          0.03
_exptl_crystal_size_min          0.02
_refine_diff_density_max         1.272
_refine_diff_density_min         -0.573
_refine_diff_density_rms         0.156
_refine_ls_extinction_method     none
_refine_ls_goodness_of_fit_ref   1.289
_refine_ls_hydrogen_treatment    none
_refine_ls_matrix_type           full
_refine_ls_number_parameters     96
_refine_ls_number_reflns         1225
_refine_ls_number_restraints     38
_refine_ls_restrained_S_all      1.269
_refine_ls_R_factor_all          0.1077
_refine_ls_R_factor_gt           0.0970
_refine_ls_shift/su_max          0.000
_refine_ls_shift/su_mean         0.000
_refine_ls_structure_factor_coef Fsqd
_refine_ls_weighting_details
'calc w=1/[\s^2^(Fo^2^)+(0.0319P)^2^+6.0693P] where P=(Fo^2^+2Fc^2^)/3'
_refine_ls_weighting_scheme      calc
_refine_ls_wR_factor_gt          0.2070
_refine_ls_wR_factor_ref         0.2120
_reflns_number_gt                1094
_reflns_number_total             1225
_reflns_threshold_expression     >2sigma(I)
_cod_data_source_file            (NH4)2PO3F.cif
_cod_data_source_block           (NH4)2PO3F-LTP-220K
_cod_depositor_comments
;
The following automatic conversions were performed:

data item '_symmetry_cell_setting' value 'Monoclinic' was changed to
'monoclinic' in accordance with the
/home/data/users/saulius/crontab/automatic-downloads/rss-feeds/ACS/lib/dictionaries/cif_core.dic
dictionary named 'cif_core.dic' version 2.4.2 last updated on
2011-04-26.

Automatic conversion script
Id: cif_fix_values 7556 2019-12-06 15:28:31Z antanas 

 Adding full bibliography for 4134470--4134505.cif.

2020-09-02
Z value and formula fixed to values more according to usual
chemical conventions.                 miguel
;
_cod_original_formula_weight         107.24
_cod_original_formula_units_Z            5
_cod_original_sg_symbol_H-M      P2(1)/n
_cod_original_formula_sum        'H6.40 F0.80 K0 N1.60 O2.40 P0.80'
_cod_database_code               4134476
loop_
_symmetry_equiv_pos_as_xyz
'x, y, z'
'-x+1/2, y+1/2, -z+1/2'
'-x, -y, -z'
'x-1/2, -y-1/2, z-1/2'
loop_
_atom_site_label
_atom_site_type_symbol
_atom_site_fract_x
_atom_site_fract_y
_atom_site_fract_z
_atom_site_U_iso_or_equiv
_atom_site_adp_type
_atom_site_occupancy
_atom_site_symmetry_multiplicity
_atom_site_calc_flag
_atom_site_refinement_flags
_atom_site_disorder_assembly
_atom_site_disorder_group
P P 0.2485(2) 0.68171(18) 0.13144(13) 0.0131(4) Uani 1 1 d . . .
N1 N 0.2426(8) 1.1347(6) 0.0318(5) 0.0184(11) Uani 1 1 d D . .
H4 H 0.203(7) 1.159(6) 0.100(2) 0.003(14) Uiso 1 1 d D . .
H2 H 0.370(4) 1.171(6) 0.022(4) 0.012(16) Uiso 1 1 d D . .
H3 H 0.155(7) 1.180(7) -0.019(4) 0.05(3) Uiso 1 1 d D . .
H1 H 0.240(9) 1.030(3) 0.022(5) 0.03(2) Uiso 1 1 d D . .
O2 O 0.4093(7) 0.6810(6) 0.2364(4) 0.0277(11) Uani 1 1 d . . .
F F 0.2459(7) 0.4898(4) 0.0858(3) 0.0278(9) Uani 1 1 d . . .
N2 N 0.2344(9) 0.5900(7) -0.1894(5) 0.0206(11) Uani 1 1 d D . .
H6 H 0.141(7) 0.653(6) -0.224(4) 0.03(2) Uiso 1 1 d D . .
H8 H 0.266(9) 0.631(7) -0.122(3) 0.05(3) Uiso 1 1 d D . .
H7 H 0.349(6) 0.588(8) -0.229(4) 0.04(2) Uiso 1 1 d D . .
H5 H 0.184(9) 0.493(4) -0.183(5) 0.05(3) Uiso 1 1 d D . .
O1 O 0.3221(7) 0.7789(5) 0.0240(4) 0.0213(10) Uani 1 1 d . . .
O3 O 0.0122(7) 0.7167(6) 0.1594(4) 0.0233(10) Uani 1 1 d . . .
loop_
_atom_site_aniso_label
_atom_site_aniso_U_11
_atom_site_aniso_U_22
_atom_site_aniso_U_33
_atom_site_aniso_U_23
_atom_site_aniso_U_13
_atom_site_aniso_U_12
P 0.0157(7) 0.0108(7) 0.0130(7) -0.0006(5) 0.0021(5) -0.0004(6)
N1 0.020(3) 0.014(2) 0.021(3) 0.000(2) 0.002(2) 0.000(2)
O2 0.022(2) 0.033(3) 0.028(2) -0.002(2) -0.0063(18) -0.002(2)
F 0.042(2) 0.0110(17) 0.030(2) -0.0038(15) 0.0026(17) 0.0009(16)
N2 0.023(3) 0.021(3) 0.018(3) 0.001(2) 0.004(2) -0.001(2)
O1 0.023(2) 0.017(2) 0.025(2) 0.0024(17) 0.0072(17) -0.0005(17)
O3 0.016(2) 0.022(2) 0.032(2) 0.0014(18) 0.0010(17) -0.0019(17)
loop_
_atom_type_symbol
_atom_type_description
_atom_type_scat_dispersion_real
_atom_type_scat_dispersion_imag
_atom_type_scat_source
N N 0.0061 0.0033 'International Tables Vol C Tables 4.2.6.8 and 6.1.1.4'
H H 0.0000 0.0000 'International Tables Vol C Tables 4.2.6.8 and 6.1.1.4'
O O 0.0106 0.0060 'International Tables Vol C Tables 4.2.6.8 and 6.1.1.4'
F F 0.0171 0.0103 'International Tables Vol C Tables 4.2.6.8 and 6.1.1.4'
P P 0.1023 0.0942 'International Tables Vol C Tables 4.2.6.8 and 6.1.1.4'
K K 0.2009 0.2494 'International Tables Vol C Tables 4.2.6.8 and 6.1.1.4'
loop_
_geom_angle_atom_site_label_1
_geom_angle_atom_site_label_2
_geom_angle_atom_site_label_3
_geom_angle
_geom_angle_site_symmetry_1
_geom_angle_site_symmetry_3
_geom_angle_publ_flag
O2 P O3 115.6(3) . . ?
O2 P O1 115.2(3) . . ?
O3 P O1 112.8(3) . . ?
O2 P F 104.3(3) . . ?
O3 P F 104.1(2) . . ?
O1 P F 102.9(2) . . ?
H4 N1 H2 110(2) . . ?
H4 N1 H3 109(2) . . ?
H2 N1 H3 109(2) . . ?
H4 N1 H1 110(2) . . ?
H2 N1 H1 110(2) . . ?
H3 N1 H1 109(2) . . ?
H6 N2 H8 108(2) . . ?
H6 N2 H7 109(2) . . ?
H8 N2 H7 108(2) . . ?
H6 N2 H5 110(2) . . ?
H8 N2 H5 110(2) . . ?
H7 N2 H5 110(2) . . ?
loop_
_geom_bond_atom_site_label_1
_geom_bond_atom_site_label_2
_geom_bond_distance
_geom_bond_site_symmetry_2
_geom_bond_publ_flag
P O2 1.498(5) . ?
P O3 1.503(4) . ?
P O1 1.510(4) . ?
P F 1.595(4) . ?
N1 H4 0.830(19) . ?
N1 H2 0.834(19) . ?
N1 H3 0.840(19) . ?
N1 H1 0.832(19) . ?
N2 H6 0.839(19) . ?
N2 H8 0.837(19) . ?
N2 H7 0.836(19) . ?
N2 H5 0.824(19) . ?
loop_
_geom_hbond_atom_site_label_D
_geom_hbond_atom_site_label_H
_geom_hbond_atom_site_label_A
_geom_hbond_distance_DH
_geom_hbond_distance_HA
_geom_hbond_distance_DA
_geom_hbond_angle_DHA
_geom_hbond_site_symmetry_A
N1 H1 O1 0.832(19) 2.04(3) 2.844(7) 163(5) .
N2 H8 O1 0.837(19) 2.03(2) 2.851(7) 168(6) .
N2 H8 F 0.837(19) 2.59(5) 3.186(6) 129(5) .
N1 H4 O2 0.830(19) 1.99(2) 2.817(7) 171(4) 2
N1 H2 O1 0.834(19) 2.00(2) 2.818(7) 169(4) 3_675
N1 H3 O3 0.840(19) 2.01(2) 2.845(7) 170(5) 3_575
N2 H6 O2 0.839(19) 1.95(2) 2.773(7) 165(5) 4_575
N2 H7 O3 0.836(19) 2.24(5) 2.872(7) 133(5) 4_675
N2 H7 O2 0.836(19) 2.58(5) 3.095(7) 121(5) 3_665
N2 H5 O3 0.824(19) 2.06(2) 2.866(7) 166(6) 3_565
