#------------------------------------------------------------------------------
#$Date: 2016-03-22 23:13:32 +0200 (Tue, 22 Mar 2016) $
#$Revision: 179051 $
#$URL: svn://www.crystallography.net/cod/cif/4/30/13/4301375.cif $
#------------------------------------------------------------------------------
#
# This file is available in the Crystallography Open Database (COD),
# http://www.crystallography.net/
#
# All data on this site have been placed in the public domain by the
# contributors.
#
data_4301375
loop_
_publ_author_name
'Susan E. Latturner'
'Daniel Bilc'
'S. D. Mahanti'
'Mercouri G. Kanatzidis'
_publ_section_title
;
R3Au6+xAl26T (R = Ca, Sr, Eu, Yb; T = Early Transition Metal): a Large
Family of Compounds with a Stuffed BaHg11 Structure Type Grown from Aluminum
Flux
;
_journal_name_full               'Inorganic Chemistry'
_journal_page_first              1346
_journal_page_last               1355
_journal_paper_doi               10.1021/ic801095v
_journal_volume                  48
_journal_year                    2009
_chemical_formula_sum            'Al25.66 Au7.08 Ca3 Nb'
_chemical_formula_weight         2299.72
_chemical_name_systematic
; 
 ? 
;
_space_group_IT_number           221
_symmetry_cell_setting           cubic
_symmetry_space_group_name_Hall  '-P 4 2 3'
_symmetry_space_group_name_H-M   'P m -3 m'
_atom_sites_solution_primary     direct
_atom_sites_solution_secondary   difmap
_audit_creation_method           SHELXL-97
_cell_angle_alpha                90.00
_cell_angle_beta                 90.00
_cell_angle_gamma                90.00
_cell_formula_units_Z            1
_cell_length_a                   8.6606(3)
_cell_length_b                   8.6606(3)
_cell_length_c                   8.6606(3)
_cell_measurement_reflns_used    6133
_cell_measurement_temperature    293(2)
_cell_measurement_theta_max      28.13
_cell_measurement_theta_min      2.35
_cell_volume                     649.60(4)
_computing_cell_refinement       'Bruker SAINT software (Bruker, 1999)'
_computing_data_collection       'Bruker SMART software (Bruker, 1997)'
_computing_data_reduction        'Bruker SAINT software (Bruker, 1999)'
_computing_structure_refinement  'SHELXL-97 (Sheldrick, 1997)'
_computing_structure_solution    'SHELXS-97 (Sheldrick, 1990)'
_diffrn_ambient_temperature      293(2)
_diffrn_measured_fraction_theta_full 0.985
_diffrn_measured_fraction_theta_max 0.985
_diffrn_measurement_device_type  'CCD area detector (Bruker AXS)'
_diffrn_measurement_method       'phi and omega scans'
_diffrn_radiation_monochromator  graphite
_diffrn_radiation_source         'fine-focus sealed tube'
_diffrn_radiation_type           MoK\a
_diffrn_radiation_wavelength     0.71073
_diffrn_reflns_av_R_equivalents  0.0580
_diffrn_reflns_av_sigmaI/netI    0.0215
_diffrn_reflns_limit_h_max       11
_diffrn_reflns_limit_h_min       -11
_diffrn_reflns_limit_k_max       11
_diffrn_reflns_limit_k_min       -10
_diffrn_reflns_limit_l_max       11
_diffrn_reflns_limit_l_min       -11
_diffrn_reflns_number            6133
_diffrn_reflns_theta_full        28.13
_diffrn_reflns_theta_max         28.13
_diffrn_reflns_theta_min         2.35
_exptl_absorpt_coefficient_mu    38.455
_exptl_absorpt_correction_type   multi-scan
_exptl_absorpt_process_details   SADABS
_exptl_crystal_colour            silver
_exptl_crystal_density_diffrn    5.879
_exptl_crystal_density_method    'not measured'
_exptl_crystal_description       chunk
_exptl_crystal_F_000             953
_exptl_crystal_size_max          0.08
_exptl_crystal_size_mid          0.06
_exptl_crystal_size_min          0.05
_refine_diff_density_max         1.334
_refine_diff_density_min         -1.707
_refine_diff_density_rms         0.251
_refine_ls_extinction_coef       0.0050(3)
_refine_ls_extinction_expression Fc^*^=kFc[1+0.001xFc^2^\l^3^/sin(2\q)]^-1/4^
_refine_ls_extinction_method     SHELXL
_refine_ls_goodness_of_fit_ref   1.369
_refine_ls_matrix_type           full
_refine_ls_number_parameters     21
_refine_ls_number_reflns         202
_refine_ls_number_restraints     0
_refine_ls_restrained_S_all      1.369
_refine_ls_R_factor_all          0.0272
_refine_ls_R_factor_gt           0.0257
_refine_ls_shift/su_max          0.000
_refine_ls_shift/su_mean         0.000
_refine_ls_structure_factor_coef Fsqd
_refine_ls_weighting_details
'calc w=1/[\s^2^(Fo^2^)+(0.0000P)^2^+10.8064P] where P=(Fo^2^+2Fc^2^)/3'
_refine_ls_weighting_scheme      calc
_refine_ls_wR_factor_gt          0.0557
_refine_ls_wR_factor_ref         0.0561
_reflns_number_gt                197
_reflns_number_total             202
_reflns_threshold_expression     >2sigma(I)
_cod_data_source_file            ic801095v_si_001_04.cif
_cod_data_source_block           4sl141ab
_cod_database_code               4301375
loop_
_symmetry_equiv_pos_as_xyz
'x, y, z'
'-x, -y, z'
'-x, y, -z'
'x, -y, -z'
'z, x, y'
'z, -x, -y'
'-z, -x, y'
'-z, x, -y'
'y, z, x'
'-y, z, -x'
'y, -z, -x'
'-y, -z, x'
'y, x, -z'
'-y, -x, -z'
'y, -x, z'
'-y, x, z'
'x, z, -y'
'-x, z, y'
'-x, -z, -y'
'x, -z, y'
'z, y, -x'
'z, -y, x'
'-z, y, x'
'-z, -y, -x'
'-x, -y, -z'
'x, y, -z'
'x, -y, z'
'-x, y, z'
'-z, -x, -y'
'-z, x, y'
'z, x, -y'
'z, -x, y'
'-y, -z, -x'
'y, -z, x'
'-y, z, x'
'y, z, -x'
'-y, -x, z'
'y, x, z'
'-y, x, -z'
'y, -x, -z'
'-x, -z, y'
'x, -z, -y'
'x, z, y'
'-x, z, -y'
'-z, -y, x'
'-z, y, -x'
'z, -y, -x'
'z, y, x'
loop_
_atom_site_label
_atom_site_type_symbol
_atom_site_fract_x
_atom_site_fract_y
_atom_site_fract_z
_atom_site_U_iso_or_equiv
_atom_site_adp_type
_atom_site_occupancy
_atom_site_symmetry_multiplicity
_atom_site_calc_flag
_atom_site_refinement_flags
_atom_site_disorder_assembly
_atom_site_disorder_group
Au1 Au 0.0000 0.0000 0.0000 0.0124(7) Uani 0.742(11) 48 d SP . .
Au2 Au 0.0000 0.33534(14) 0.33534(14) 0.0084(4) Uani 0.528(7) 4 d SP . .
Al2 Al 0.0000 0.3675(9) 0.3675(9) 0.004(3) Uiso 0.472(7) 4 d SP . .
Ca1 Ca 0.5000 0.0000 0.0000 0.0154(12) Uani 1 16 d S . .
Nb1 Nb 0.5000 0.5000 0.5000 0.0026(8) Uani 1 48 d S . .
Al1 Al 0.5000 0.2704(3) 0.2704(3) 0.0063(8) Uani 1 4 d S . .
Al3 Al 0.1728(3) 0.1728(3) 0.1728(3) 0.0115(11) Uani 1 6 d S . .
loop_
_atom_site_aniso_label
_atom_site_aniso_U_11
_atom_site_aniso_U_22
_atom_site_aniso_U_33
_atom_site_aniso_U_23
_atom_site_aniso_U_13
_atom_site_aniso_U_12
Au1 0.0124(7) 0.0124(7) 0.0124(7) 0.000 0.000 0.000
Au2 0.0103(4) 0.0103(4) 0.0047(5) 0.000 0.000 -0.0055(5)
Ca1 0.034(3) 0.0061(14) 0.0061(14) 0.000 0.000 0.000
Nb1 0.0026(8) 0.0026(8) 0.0026(8) 0.000 0.000 0.000
Al1 0.0086(16) 0.0052(11) 0.0052(11) -0.0012(12) 0.000 0.000
Al3 0.0115(11) 0.0115(11) 0.0115(11) 0.0007(9) 0.0007(9) 0.0007(9)
loop_
_atom_type_symbol
_atom_type_description
_atom_type_scat_dispersion_real
_atom_type_scat_dispersion_imag
_atom_type_scat_source
Al Al 0.0645 0.0514 'International Tables Vol C Tables 4.2.6.8 and 6.1.1.4'
Ca Ca 0.2262 0.3064 'International Tables Vol C Tables 4.2.6.8 and 6.1.1.4'
Nb Nb -2.0727 0.6215 'International Tables Vol C Tables 4.2.6.8 and 6.1.1.4'
Au Au -2.0133 8.8022 'International Tables Vol C Tables 4.2.6.8 and 6.1.1.4'
loop_
_geom_angle_atom_site_label_1
_geom_angle_atom_site_label_2
_geom_angle_atom_site_label_3
_geom_angle
_geom_angle_site_symmetry_1
_geom_angle_site_symmetry_3
_geom_angle_publ_flag
Al3 Au1 Al3 180.00(19) 25 . ?
Al3 Au1 Al3 109.5 25 28 ?
Al3 Au1 Al3 70.5 . 28 ?
Al3 Au1 Al3 70.5 25 2 ?
Al3 Au1 Al3 109.5 . 2 ?
Al3 Au1 Al3 70.5 28 2 ?
Al3 Au1 Al3 109.5 25 26 ?
Al3 Au1 Al3 70.5 . 26 ?
Al3 Au1 Al3 109.5 28 26 ?
Al3 Au1 Al3 180.0(3) 2 26 ?
Al3 Au1 Al3 70.5 25 3 ?
Al3 Au1 Al3 109.5 . 3 ?
Al3 Au1 Al3 70.5 28 3 ?
Al3 Au1 Al3 109.5 2 3 ?
Al3 Au1 Al3 70.5 26 3 ?
Al3 Au1 Al3 109.5 25 27 ?
Al3 Au1 Al3 70.5 . 27 ?
Al3 Au1 Al3 109.5 28 27 ?
Al3 Au1 Al3 70.5 2 27 ?
Al3 Au1 Al3 109.5 26 27 ?
Al3 Au1 Al3 180.0(3) 3 27 ?
Al3 Au1 Al3 70.5 25 4 ?
Al3 Au1 Al3 109.5 . 4 ?
Al3 Au1 Al3 180.00(19) 28 4 ?
Al3 Au1 Al3 109.5 2 4 ?
Al3 Au1 Al3 70.5 26 4 ?
Al3 Au1 Al3 109.5 3 4 ?
Al3 Au1 Al3 70.5 27 4 ?
Al3 Au2 Al3 73.9(2) 26 . ?
Al3 Au2 Al2 128.51(14) 26 27_565 ?
Al3 Au2 Al2 128.51(14) . 27_565 ?
Al3 Au2 Al2 128.51(14) 26 3_655 ?
Al3 Au2 Al2 128.51(14) . 3_655 ?
Al2 Au2 Al2 77.7(4) 27_565 3_655 ?
Al3 Au2 Al1 132.63(10) 26 5 ?
Al3 Au2 Al1 70.83(9) . 5 ?
Al2 Au2 Al1 60.99(7) 27_565 5 ?
Al2 Au2 Al1 98.33(10) 3_655 5 ?
Al3 Au2 Al1 132.63(10) 26 . ?
Al3 Au2 Al1 70.83(9) . . ?
Al2 Au2 Al1 98.33(10) 27_565 . ?
Al2 Au2 Al1 60.99(7) 3_655 . ?
Al1 Au2 Al1 60.29(11) 5 . ?
Al3 Au2 Al1 70.83(9) 26 6_565 ?
Al3 Au2 Al1 132.63(10) . 6_565 ?
Al2 Au2 Al1 60.99(7) 27_565 6_565 ?
Al2 Au2 Al1 98.33(10) 3_655 6_565 ?
Al1 Au2 Al1 113.60(8) 5 6_565 ?
Al1 Au2 Al1 154.79(8) . 6_565 ?
Al3 Au2 Al1 70.83(9) 26 26 ?
Al3 Au2 Al1 132.63(10) . 26 ?
Al2 Au2 Al1 98.33(10) 27_565 26 ?
Al2 Au2 Al1 60.99(7) 3_655 26 ?
Al1 Au2 Al1 154.79(8) 5 26 ?
Al1 Au2 Al1 113.60(8) . 26 ?
Al1 Au2 Al1 60.29(11) 6_565 26 ?
Al3 Au2 Au2 124.41(5) 26 3_655 ?
Al3 Au2 Au2 124.41(5) . 3_655 ?
Al2 Au2 Au2 83.83(18) 27_565 3_655 ?
Al2 Au2 Au2 6.17(18) 3_655 3_655 ?
Al1 Au2 Au2 101.58(6) 5 3_655 ?
Al1 Au2 Au2 59.37(3) . 3_655 ?
Al1 Au2 Au2 101.58(6) 6_565 3_655 ?
Al1 Au2 Au2 59.37(3) 26 3_655 ?
Al3 Au2 Au2 124.41(5) 26 27_565 ?
Al3 Au2 Au2 124.41(5) . 27_565 ?
Al2 Au2 Au2 6.17(18) 27_565 27_565 ?
Al2 Au2 Au2 83.83(18) 3_655 27_565 ?
Al1 Au2 Au2 59.37(3) 5 27_565 ?
Al1 Au2 Au2 101.58(6) . 27_565 ?
Al1 Au2 Au2 59.37(3) 6_565 27_565 ?
Al1 Au2 Au2 101.58(6) 26 27_565 ?
Au2 Au2 Au2 90.0 3_655 27_565 ?
Al3 Au2 Ca1 75.04(3) 26 . ?
Al3 Au2 Ca1 75.04(3) . . ?
Al2 Au2 Ca1 147.67(17) 27_565 . ?
Al2 Au2 Ca1 70.02(19) 3_655 . ?
Al1 Au2 Ca1 123.08(4) 5 . ?
Al1 Au2 Ca1 66.12(6) . . ?
Al1 Au2 Ca1 123.08(4) 6_565 . ?
Al1 Au2 Ca1 66.12(6) 26 . ?
Au2 Au2 Ca1 63.85(3) 3_655 . ?
Au2 Au2 Ca1 153.85(3) 27_565 . ?
Al3 Au2 Ca1 75.04(3) 26 5 ?
Al3 Au2 Ca1 75.04(3) . 5 ?
Al2 Au2 Ca1 70.02(19) 27_565 5 ?
Al2 Au2 Ca1 147.67(17) 3_655 5 ?
Al1 Au2 Ca1 66.12(6) 5 5 ?
Al1 Au2 Ca1 123.08(4) . 5 ?
Al1 Au2 Ca1 66.12(6) 6_565 5 ?
Al1 Au2 Ca1 123.08(4) 26 5 ?
Au2 Au2 Ca1 153.85(3) 3_655 5 ?
Au2 Au2 Ca1 63.85(3) 27_565 5 ?
Ca1 Au2 Ca1 142.31(6) . 5 ?
Al2 Al2 Al2 90.0 27_565 3_655 ?
Al2 Al2 Au2 6.17(18) 27_565 27_565 ?
Al2 Al2 Au2 96.17(18) 3_655 27_565 ?
Al2 Al2 Au2 96.17(18) 27_565 3_655 ?
Al2 Al2 Au2 6.17(18) 3_655 3_655 ?
Au2 Al2 Au2 102.3(4) 27_565 3_655 ?
Al2 Al2 Al1 65.24(17) 27_565 5 ?
Al2 Al2 Al1 107.86(19) 3_655 5 ?
Au2 Al2 Al1 63.30(10) 27_565 5 ?
Au2 Al2 Al1 110.5(2) 3_655 5 ?
Al2 Al2 Al1 107.86(19) 27_565 . ?
Al2 Al2 Al1 65.24(17) 3_655 . ?
Au2 Al2 Al1 110.5(2) 27_565 . ?
Au2 Al2 Al1 63.30(10) 3_655 . ?
Al1 Al2 Al1 61.73(11) 5 . ?
Al2 Al2 Al1 65.24(17) 27_565 6_565 ?
Al2 Al2 Al1 107.86(19) 3_655 6_565 ?
Au2 Al2 Al1 63.30(10) 27_565 6_565 ?
Au2 Al2 Al1 110.5(2) 3_655 6_565 ?
Al1 Al2 Al1 117.46(11) 5 6_565 ?
Al1 Al2 Al1 170.9(5) . 6_565 ?
Al2 Al2 Al1 107.86(19) 27_565 26 ?
Al2 Al2 Al1 65.24(17) 3_655 26 ?
Au2 Al2 Al1 110.5(2) 27_565 26 ?
Au2 Al2 Al1 63.30(10) 3_655 26 ?
Al1 Al2 Al1 170.9(5) 5 26 ?
Al1 Al2 Al1 117.46(11) . 26 ?
Al1 Al2 Al1 61.73(11) 6_565 26 ?
Al2 Al2 Al3 126.79(7) 27_565 26 ?
Al2 Al2 Al3 126.79(7) 3_655 26 ?
Au2 Al2 Al3 122.07(10) 27_565 26 ?
Au2 Al2 Al3 122.07(10) 3_655 26 ?
Al1 Al2 Al3 121.4(3) 5 26 ?
Al1 Al2 Al3 121.4(3) . 26 ?
Al1 Al2 Al3 67.22(14) 6_565 26 ?
Al1 Al2 Al3 67.22(14) 26 26 ?
Al2 Al2 Al3 126.79(7) 27_565 . ?
Al2 Al2 Al3 126.79(7) 3_655 . ?
Au2 Al2 Al3 122.07(10) 27_565 . ?
Au2 Al2 Al3 122.07(10) 3_655 . ?
Al1 Al2 Al3 67.22(14) 5 . ?
Al1 Al2 Al3 67.22(14) . . ?
Al1 Al2 Al3 121.4(3) 6_565 . ?
Al1 Al2 Al3 121.4(3) 26 . ?
Al3 Al2 Al3 64.2(3) 26 . ?
Al2 Al2 Ca1 70.17(17) 27_565 5 ?
Al2 Al2 Ca1 160.17(17) 3_655 5 ?
Au2 Al2 Ca1 64.00(2) 27_565 5 ?
Au2 Al2 Ca1 166.3(4) 3_655 5 ?
Al1 Al2 Ca1 64.50(9) 5 5 ?
Al1 Al2 Ca1 119.87(14) . 5 ?
Al1 Al2 Ca1 64.50(9) 6_565 5 ?
Al1 Al2 Ca1 119.87(14) 26 5 ?
Al3 Al2 Ca1 68.88(17) 26 5 ?
Al3 Al2 Ca1 68.88(17) . 5 ?
Al2 Al2 Ca1 160.17(17) 27_565 . ?
Al2 Al2 Ca1 70.17(17) 3_655 . ?
Au2 Al2 Ca1 166.3(4) 27_565 . ?
Au2 Al2 Ca1 64.00(2) 3_655 . ?
Al1 Al2 Ca1 119.87(14) 5 . ?
Al1 Al2 Ca1 64.50(9) . . ?
Al1 Al2 Ca1 119.87(14) 6_565 . ?
Al1 Al2 Ca1 64.50(9) 26 . ?
Al3 Al2 Ca1 68.88(17) 26 . ?
Al3 Al2 Ca1 68.88(17) . . ?
Ca1 Al2 Ca1 129.7(3) 5 . ?
Au2 Ca1 Au2 78.80(2) 11 27 ?
Au2 Ca1 Au2 180.00(6) 11 35_655 ?
Au2 Ca1 Au2 101.20(2) 27 35_655 ?
Au2 Ca1 Au2 101.20(2) 11 3_655 ?
Au2 Ca1 Au2 180.00(6) 27 3_655 ?
Au2 Ca1 Au2 78.80(2) 35_655 3_655 ?
Au2 Ca1 Au2 52.31(6) 11 33_655 ?
Au2 Ca1 Au2 101.20(2) 27 33_655 ?
Au2 Ca1 Au2 127.69(6) 35_655 33_655 ?
Au2 Ca1 Au2 78.80(2) 3_655 33_655 ?
Au2 Ca1 Au2 101.20(2) 11 25_655 ?
Au2 Ca1 Au2 52.31(6) 27 25_655 ?
Au2 Ca1 Au2 78.80(2) 35_655 25_655 ?
Au2 Ca1 Au2 127.69(6) 3_655 25_655 ?
Au2 Ca1 Au2 78.80(2) 33_655 25_655 ?
Au2 Ca1 Au2 78.80(2) 11 . ?
Au2 Ca1 Au2 127.69(6) 27 . ?
Au2 Ca1 Au2 101.20(2) 35_655 . ?
Au2 Ca1 Au2 52.31(6) 3_655 . ?
Au2 Ca1 Au2 101.20(2) 33_655 . ?
Au2 Ca1 Au2 180.00(6) 25_655 . ?
Au2 Ca1 Au2 127.69(6) 11 9 ?
Au2 Ca1 Au2 78.80(2) 27 9 ?
Au2 Ca1 Au2 52.31(6) 35_655 9 ?
Au2 Ca1 Au2 101.20(2) 3_655 9 ?
Au2 Ca1 Au2 180.00(6) 33_655 9 ?
Au2 Ca1 Au2 101.20(2) 25_655 9 ?
Au2 Ca1 Au2 78.80(2) . 9 ?
Au2 Ca1 Al1 50.601(11) 11 25_655 ?
Au2 Ca1 Al1 50.601(11) 27 25_655 ?
Au2 Ca1 Al1 129.399(11) 35_655 25_655 ?
Au2 Ca1 Al1 129.399(11) 3_655 25_655 ?
Au2 Ca1 Al1 50.601(11) 33_655 25_655 ?
Au2 Ca1 Al1 50.601(11) 25_655 25_655 ?
Au2 Ca1 Al1 129.399(11) . 25_655 ?
Au2 Ca1 Al1 129.399(11) 9 25_655 ?
Au2 Ca1 Al1 129.399(11) 11 . ?
Au2 Ca1 Al1 129.399(11) 27 . ?
Au2 Ca1 Al1 50.601(11) 35_655 . ?
Au2 Ca1 Al1 50.601(11) 3_655 . ?
Au2 Ca1 Al1 129.399(11) 33_655 . ?
Au2 Ca1 Al1 129.399(11) 25_655 . ?
Au2 Ca1 Al1 50.601(11) . . ?
Au2 Ca1 Al1 50.601(11) 9 . ?
Al1 Ca1 Al1 180.00(5) 25_655 . ?
Au2 Ca1 Al1 50.601(11) 11 26 ?
Au2 Ca1 Al1 129.399(11) 27 26 ?
Au2 Ca1 Al1 129.399(11) 35_655 26 ?
Au2 Ca1 Al1 50.601(11) 3_655 26 ?
Au2 Ca1 Al1 50.601(11) 33_655 26 ?
Au2 Ca1 Al1 129.399(11) 25_655 26 ?
Au2 Ca1 Al1 50.601(11) . 26 ?
Au2 Ca1 Al1 129.399(11) 9 26 ?
Al1 Ca1 Al1 90.0 25_655 26 ?
Al1 Ca1 Al1 90.0 . 26 ?
Au2 Ca1 Al1 129.399(11) 11 2_655 ?
Au2 Ca1 Al1 50.601(11) 27 2_655 ?
Au2 Ca1 Al1 50.601(11) 35_655 2_655 ?
Au2 Ca1 Al1 129.399(11) 3_655 2_655 ?
Au2 Ca1 Al1 129.399(11) 33_655 2_655 ?
Au2 Ca1 Al1 50.601(11) 25_655 2_655 ?
Au2 Ca1 Al1 129.399(11) . 2_655 ?
Au2 Ca1 Al1 50.601(11) 9 2_655 ?
Al1 Ca1 Al1 90.0 25_655 2_655 ?
Al1 Ca1 Al1 90.0 . 2_655 ?
Al1 Ca1 Al1 180.00(5) 26 2_655 ?
Al1 Nb1 Al1 120.0 33_666 . ?
Al1 Nb1 Al1 60.0 33_666 25_666 ?
Al1 Nb1 Al1 180.0 . 25_666 ?
Al1 Nb1 Al1 180.0 33_666 9 ?
Al1 Nb1 Al1 60.0 . 9 ?
Al1 Nb1 Al1 120.0 25_666 9 ?
Al1 Nb1 Al1 60.0 33_666 29_666 ?
Al1 Nb1 Al1 120.0 . 29_666 ?
Al1 Nb1 Al1 60.0 25_666 29_666 ?
Al1 Nb1 Al1 120.0 9 29_666 ?
Al1 Nb1 Al1 120.0 33_666 5 ?
Al1 Nb1 Al1 60.0 . 5 ?
Al1 Nb1 Al1 120.0 25_666 5 ?
Al1 Nb1 Al1 60.0 9 5 ?
Al1 Nb1 Al1 180.0 29_666 5 ?
Al1 Nb1 Al1 90.0 33_666 34_565 ?
Al1 Nb1 Al1 120.0 . 34_565 ?
Al1 Nb1 Al1 60.0 25_666 34_565 ?
Al1 Nb1 Al1 90.0 9 34_565 ?
Al1 Nb1 Al1 120.0 29_666 34_565 ?
Al1 Nb1 Al1 60.0 5 34_565 ?
Al1 Nb1 Al1 120.0 33_666 6_566 ?
Al1 Nb1 Al1 120.0 . 6_566 ?
Al1 Nb1 Al1 60.0 25_666 6_566 ?
Al1 Nb1 Al1 60.0 9 6_566 ?
Al1 Nb1 Al1 90.0 29_666 6_566 ?
Al1 Nb1 Al1 90.0 5 6_566 ?
Al1 Nb1 Al1 60.0 34_565 6_566 ?
Al1 Nb1 Al1 60.0 33_666 30_655 ?
Al1 Nb1 Al1 60.0 . 30_655 ?
Al1 Nb1 Al1 120.0 25_666 30_655 ?
Al1 Nb1 Al1 120.0 9 30_655 ?
Al1 Nb1 Al1 90.0 29_666 30_655 ?
Al1 Nb1 Al1 90.0 5 30_655 ?
Al1 Nb1 Al1 120.0 34_565 30_655 ?
Al1 Nb1 Al1 180.0 6_566 30_655 ?
Al1 Nb1 Al1 120.0 33_666 26_556 ?
Al1 Nb1 Al1 90.0 . 26_556 ?
Al1 Nb1 Al1 90.0 25_666 26_556 ?
Al1 Nb1 Al1 60.0 9 26_556 ?
Al1 Nb1 Al1 60.0 29_666 26_556 ?
Al1 Nb1 Al1 120.0 5 26_556 ?
Al1 Nb1 Al1 120.0 34_565 26_556 ?
Al1 Nb1 Al1 60.0 6_566 26_556 ?
Al1 Nb1 Al1 120.0 30_655 26_556 ?
Al1 Nb1 Al1 60.0 33_666 2_665 ?
Al1 Nb1 Al1 90.0 . 2_665 ?
Al1 Nb1 Al1 90.0 25_666 2_665 ?
Al1 Nb1 Al1 120.0 9 2_665 ?
Al1 Nb1 Al1 120.0 29_666 2_665 ?
Al1 Nb1 Al1 60.0 5 2_665 ?
Al1 Nb1 Al1 60.0 34_565 2_665 ?
Al1 Nb1 Al1 120.0 6_566 2_665 ?
Al1 Nb1 Al1 60.0 30_655 2_665 ?
Al1 Nb1 Al1 180.0 26_556 2_665 ?
Al1 Nb1 Al1 90.0 33_666 10_656 ?
Al1 Nb1 Al1 60.0 . 10_656 ?
Al1 Nb1 Al1 120.0 25_666 10_656 ?
Al1 Nb1 Al1 90.0 9 10_656 ?
Al1 Nb1 Al1 60.0 29_666 10_656 ?
Al1 Nb1 Al1 120.0 5 10_656 ?
Al1 Nb1 Al1 180.0 34_565 10_656 ?
Al1 Nb1 Al1 120.0 6_566 10_656 ?
Al1 Nb1 Al1 60.0 30_655 10_656 ?
Al1 Nb1 Al1 60.0 26_556 10_656 ?
Al1 Nb1 Al1 120.0 2_665 10_656 ?
Al2 Al1 Al2 110.4(5) . 9 ?
Al2 Al1 Al2 134.4(3) . 35_655 ?
Al2 Al1 Al2 49.5(3) 9 35_655 ?
Al2 Al1 Al2 49.5(3) . 3_655 ?
Al2 Al1 Al2 134.4(3) 9 3_655 ?
Al2 Al1 Al2 110.4(5) 35_655 3_655 ?
Al2 Al1 Au2 102.4(3) . 9 ?
Al2 Al1 Au2 8.1(2) 9 9 ?
Al2 Al1 Au2 55.71(17) 35_655 9 ?
Al2 Al1 Au2 129.91(15) 3_655 9 ?
Al2 Al1 Au2 8.1(2) . . ?
Al2 Al1 Au2 102.4(3) 9 . ?
Al2 Al1 Au2 129.91(15) 35_655 . ?
Al2 Al1 Au2 55.71(17) 3_655 . ?
Au2 Al1 Au2 94.38(9) 9 . ?
Al2 Al1 Au2 55.71(17) . 3_655 ?
Al2 Al1 Au2 129.91(15) 9 3_655 ?
Al2 Al1 Au2 102.4(3) 35_655 3_655 ?
Al2 Al1 Au2 8.1(2) 3_655 3_655 ?
Au2 Al1 Au2 126.55(12) 9 3_655 ?
Au2 Al1 Au2 61.26(6) . 3_655 ?
Al2 Al1 Au2 129.91(15) . 35_655 ?
Al2 Al1 Au2 55.71(17) 9 35_655 ?
Al2 Al1 Au2 8.1(2) 35_655 35_655 ?
Al2 Al1 Au2 102.4(3) 3_655 35_655 ?
Au2 Al1 Au2 61.26(6) 9 35_655 ?
Au2 Al1 Au2 126.55(12) . 35_655 ?
Au2 Al1 Au2 94.38(9) 3_655 35_655 ?
Al2 Al1 Al1 154.2(2) . 10_656 ?
Al2 Al1 Al1 94.5(2) 9 10_656 ?
Al2 Al1 Al1 59.14(5) 35_655 10_656 ?
Al2 Al1 Al1 107.95(13) 3_655 10_656 ?
Au2 Al1 Al1 102.61(4) 9 10_656 ?
Au2 Al1 Al1 162.16(4) . 10_656 ?
Au2 Al1 Al1 103.38(3) 3_655 10_656 ?
Au2 Al1 Al1 59.85(5) 35_655 10_656 ?
Al2 Al1 Nb1 112.80(13) . . ?
Al2 Al1 Nb1 112.80(13) 9 . ?
Al2 Al1 Nb1 112.80(13) 35_655 . ?
Al2 Al1 Nb1 112.80(13) 3_655 . ?
Au2 Al1 Nb1 116.72(6) 9 . ?
Au2 Al1 Nb1 116.72(6) . . ?
Au2 Al1 Nb1 116.72(6) 3_655 . ?
Au2 Al1 Nb1 116.72(6) 35_655 . ?
Al1 Al1 Nb1 60.0 10_656 . ?
Al2 Al1 Al1 94.5(2) . 30_655 ?
Al2 Al1 Al1 154.2(2) 9 30_655 ?
Al2 Al1 Al1 107.95(13) 35_655 30_655 ?
Al2 Al1 Al1 59.14(5) 3_655 30_655 ?
Au2 Al1 Al1 162.16(4) 9 30_655 ?
Au2 Al1 Al1 102.61(4) . 30_655 ?
Au2 Al1 Al1 59.85(5) 3_655 30_655 ?
Au2 Al1 Al1 103.38(3) 35_655 30_655 ?
Al1 Al1 Al1 60.0 10_656 30_655 ?
Nb1 Al1 Al1 60.0 . 30_655 ?
Al2 Al1 Al1 107.95(13) . 9 ?
Al2 Al1 Al1 59.14(5) 9 9 ?
Al2 Al1 Al1 94.5(2) 35_655 9 ?
Al2 Al1 Al1 154.2(2) 3_655 9 ?
Au2 Al1 Al1 59.85(5) 9 9 ?
Au2 Al1 Al1 103.38(3) . 9 ?
Au2 Al1 Al1 162.16(4) 3_655 9 ?
Au2 Al1 Al1 102.61(4) 35_655 9 ?
Al1 Al1 Al1 90.0 10_656 9 ?
Nb1 Al1 Al1 60.0 . 9 ?
Al1 Al1 Al1 120.0 30_655 9 ?
Au2 Al3 Au2 111.09(10) . 9 ?
Au2 Al3 Au2 111.09(10) . 5 ?
Au2 Al3 Au2 111.09(10) 9 5 ?
Au2 Al3 Au1 107.80(10) . . ?
Au2 Al3 Au1 107.80(10) 9 . ?
Au2 Al3 Au1 107.80(10) 5 . ?
Au2 Al3 Al2 108.78(12) . 9 ?
Au2 Al3 Al2 4.82(11) 9 9 ?
Au2 Al3 Al2 108.78(12) 5 9 ?
Au1 Al3 Al2 112.62(15) . 9 ?
Au2 Al3 Al2 108.78(12) . 5 ?
Au2 Al3 Al2 108.78(12) 9 5 ?
Au2 Al3 Al2 4.82(11) 5 5 ?
Au1 Al3 Al2 112.62(15) . 5 ?
Al2 Al3 Al2 106.15(16) 9 5 ?
Au2 Al3 Al2 4.82(11) . . ?
Au2 Al3 Al2 108.78(12) 9 . ?
Au2 Al3 Al2 108.78(12) 5 . ?
Au1 Al3 Al2 112.62(15) . . ?
Al2 Al3 Al2 106.15(16) 9 . ?
Al2 Al3 Al2 106.15(16) 5 . ?
Au2 Al3 Al3 124.41(5) . 28 ?
Au2 Al3 Al3 124.41(5) 9 28 ?
Au2 Al3 Al3 53.06(10) 5 28 ?
Au1 Al3 Al3 54.7 . 28 ?
Al2 Al3 Al3 126.79(7) 9 28 ?
Al2 Al3 Al3 57.88(15) 5 28 ?
Al2 Al3 Al3 126.79(7) . 28 ?
Au2 Al3 Al3 124.41(5) . 27 ?
Au2 Al3 Al3 53.06(10) 9 27 ?
Au2 Al3 Al3 124.41(5) 5 27 ?
Au1 Al3 Al3 54.7 . 27 ?
Al2 Al3 Al3 57.88(15) 9 27 ?
Al2 Al3 Al3 126.79(7) 5 27 ?
Al2 Al3 Al3 126.79(7) . 27 ?
Al3 Al3 Al3 90.0 28 27 ?
Au2 Al3 Al3 53.06(10) . 26 ?
Au2 Al3 Al3 124.41(5) 9 26 ?
Au2 Al3 Al3 124.41(5) 5 26 ?
Au1 Al3 Al3 54.7 . 26 ?
Al2 Al3 Al3 126.79(7) 9 26 ?
Al2 Al3 Al3 126.79(7) 5 26 ?
Al2 Al3 Al3 57.88(15) . 26 ?
Al3 Al3 Al3 90.0 28 26 ?
Al3 Al3 Al3 90.0 27 26 ?
Au2 Al3 Ca1 62.099(8) . . ?
Au2 Al3 Ca1 62.099(8) 9 . ?
Au2 Al3 Ca1 163.70(17) 5 . ?
Au1 Al3 Ca1 88.51(7) . . ?
Al2 Al3 Ca1 63.17(3) 9 . ?
Al2 Al3 Ca1 158.9(2) 5 . ?
Al2 Al3 Ca1 63.17(3) . . ?
Al3 Al3 Ca1 143.24(7) 28 . ?
Al3 Al3 Ca1 64.97(5) 27 . ?
Al3 Al3 Ca1 64.97(5) 26 . ?
Au2 Al3 Ca1 163.70(17) . 9 ?
Au2 Al3 Ca1 62.099(8) 9 9 ?
Au2 Al3 Ca1 62.099(8) 5 9 ?
Au1 Al3 Ca1 88.51(7) . 9 ?
Al2 Al3 Ca1 63.17(3) 9 9 ?
Al2 Al3 Ca1 63.17(3) 5 9 ?
Al2 Al3 Ca1 158.9(2) . 9 ?
Al3 Al3 Ca1 64.97(5) 28 9 ?
Al3 Al3 Ca1 64.97(5) 27 9 ?
Al3 Al3 Ca1 143.24(7) 26 9 ?
Ca1 Al3 Ca1 119.933(7) . 9 ?
loop_
_geom_bond_atom_site_label_1
_geom_bond_atom_site_label_2
_geom_bond_distance
_geom_bond_site_symmetry_2
_geom_bond_publ_flag
Au1 Al3 2.592(5) 25 ?
Au1 Al3 2.592(5) . ?
Au1 Al3 2.592(5) 28 ?
Au1 Al3 2.592(5) 2 ?
Au1 Al3 2.592(5) 26 ?
Au1 Al3 2.592(5) 3 ?
Au1 Al3 2.592(5) 27 ?
Au1 Al3 2.592(5) 4 ?
Au2 Al3 2.4905(19) 26 ?
Au2 Al3 2.4905(19) . ?
Au2 Al2 2.589(8) 27_565 ?
Au2 Al2 2.589(8) 3_655 ?
Au2 Al1 2.7992(14) 5 ?
Au2 Al1 2.7992(14) . ?
Au2 Al1 2.7992(14) 6_565 ?
Au2 Al1 2.7992(14) 26 ?
Au2 Au2 2.852(2) 3_655 ?
Au2 Au2 2.852(2) 27_565 ?
Au2 Ca1 3.2355(6) . ?
Au2 Ca1 3.2355(6) 5 ?
Al2 Al2 2.295(16) 27_565 ?
Al2 Al2 2.295(16) 3_655 ?
Al2 Au2 2.589(8) 27_565 ?
Al2 Au2 2.589(8) 3_655 ?
Al2 Al1 2.7403(15) 5 ?
Al2 Al1 2.7403(15) . ?
Al2 Al1 2.7403(15) 6_565 ?
Al2 Al1 2.7403(15) 26 ?
Al2 Al3 2.815(10) 26 ?
Al2 Al3 2.815(10) . ?
Al2 Ca1 3.383(5) 5 ?
Al2 Ca1 3.383(5) . ?
Ca1 Au2 3.2355(6) 11 ?
Ca1 Au2 3.2355(6) 27 ?
Ca1 Au2 3.2355(6) 35_655 ?
Ca1 Au2 3.2355(6) 3_655 ?
Ca1 Au2 3.2355(6) 33_655 ?
Ca1 Au2 3.2355(6) 25_655 ?
Ca1 Au2 3.2355(6) 9 ?
Ca1 Al1 3.312(3) 25_655 ?
Ca1 Al1 3.312(3) . ?
Ca1 Al1 3.312(3) 26 ?
Ca1 Al1 3.312(3) 2_655 ?
Nb1 Al1 2.812(3) 33_666 ?
Nb1 Al1 2.812(3) . ?
Nb1 Al1 2.812(3) 25_666 ?
Nb1 Al1 2.812(3) 9 ?
Nb1 Al1 2.812(3) 29_666 ?
Nb1 Al1 2.812(3) 5 ?
Nb1 Al1 2.812(3) 34_565 ?
Nb1 Al1 2.812(3) 6_566 ?
Nb1 Al1 2.812(3) 30_655 ?
Nb1 Al1 2.812(3) 26_556 ?
Nb1 Al1 2.812(3) 2_665 ?
Nb1 Al1 2.812(3) 10_656 ?
Al1 Al2 2.7403(15) 9 ?
Al1 Al2 2.7403(15) 35_655 ?
Al1 Al2 2.7403(15) 3_655 ?
Al1 Au2 2.7992(14) 9 ?
Al1 Au2 2.7992(14) 3_655 ?
Al1 Au2 2.7992(14) 35_655 ?
Al1 Al1 2.812(3) 10_656 ?
Al1 Al1 2.812(3) 30_655 ?
Al1 Al1 2.812(3) 9 ?
Al3 Au2 2.4905(19) 9 ?
Al3 Au2 2.4905(19) 5 ?
Al3 Al2 2.815(10) 9 ?
Al3 Al2 2.815(10) 5 ?
Al3 Al3 2.993(5) 28 ?
Al3 Al3 2.993(5) 27 ?
Al3 Al3 2.993(5) 26 ?
Al3 Ca1 3.53688(17) 9 ?
