#------------------------------------------------------------------------------
#$Date: 2016-03-22 23:13:32 +0200 (Tue, 22 Mar 2016) $
#$Revision: 179051 $
#$URL: svn://www.crystallography.net/cod/cif/4/30/13/4301386.cif $
#------------------------------------------------------------------------------
#
# This file is available in the Crystallography Open Database (COD),
# http://www.crystallography.net/
#
# All data on this site have been placed in the public domain by the
# contributors.
#
data_4301386
loop_
_publ_author_name
'Susan E. Latturner'
'Daniel Bilc'
'S. D. Mahanti'
'Mercouri G. Kanatzidis'
_publ_section_title
;
R3Au6+xAl26T (R = Ca, Sr, Eu, Yb; T = Early Transition Metal): a Large
Family of Compounds with a Stuffed BaHg11 Structure Type Grown from Aluminum
Flux
;
_journal_name_full               'Inorganic Chemistry'
_journal_page_first              1346
_journal_page_last               1355
_journal_paper_doi               10.1021/ic801095v
_journal_volume                  48
_journal_year                    2009
_chemical_formula_sum            'Al25.64 Au7.38 Eu3 Zr'
_chemical_formula_weight         2691.74
_chemical_name_systematic
; 
 ? 
;
_space_group_IT_number           221
_symmetry_cell_setting           cubic
_symmetry_space_group_name_Hall  '-P 4 2 3'
_symmetry_space_group_name_H-M   'P m -3 m'
_atom_sites_solution_primary     direct
_atom_sites_solution_secondary   difmap
_audit_creation_method           SHELXL-97
_cell_angle_alpha                90.00
_cell_angle_beta                 90.00
_cell_angle_gamma                90.00
_cell_formula_units_Z            1
_cell_length_a                   8.7289(14)
_cell_length_b                   8.7289(14)
_cell_length_c                   8.7289(14)
_cell_measurement_reflns_used    10841
_cell_measurement_temperature    293(2)
_cell_measurement_theta_max      37.83
_cell_measurement_theta_min      11.50
_cell_volume                     665.09(18)
_computing_cell_refinement       'Bruker SAINT software (Bruker, 1999)'
_computing_data_collection       'Bruker SMART software (Bruker, 1997)'
_computing_data_reduction        'Bruker SAINT software (Bruker, 1999)'
_computing_structure_refinement  'SHELXL-97 (Sheldrick, 1997)'
_computing_structure_solution    'SHELXS-97 (Sheldrick, 1990)'
_diffrn_ambient_temperature      293(2)
_diffrn_measured_fraction_theta_full 0.935
_diffrn_measured_fraction_theta_max 0.935
_diffrn_measurement_device_type  'CCD area detector (Bruker AXS)'
_diffrn_measurement_method       'phi and omega scans'
_diffrn_radiation_monochromator  graphite
_diffrn_radiation_source         'fine-focus sealed tube'
_diffrn_radiation_type           MoK\a
_diffrn_radiation_wavelength     0.71073
_diffrn_reflns_av_R_equivalents  0.2823
_diffrn_reflns_av_sigmaI/netI    0.0983
_diffrn_reflns_limit_h_max       14
_diffrn_reflns_limit_h_min       -14
_diffrn_reflns_limit_k_max       14
_diffrn_reflns_limit_k_min       -14
_diffrn_reflns_limit_l_max       14
_diffrn_reflns_limit_l_min       -14
_diffrn_reflns_number            10841
_diffrn_reflns_theta_full        37.83
_diffrn_reflns_theta_max         37.83
_diffrn_reflns_theta_min         11.50
_exptl_absorpt_coefficient_mu    46.629
_exptl_absorpt_correction_type   multi-scan
_exptl_absorpt_process_details   SADABS
_exptl_crystal_colour            silver
_exptl_crystal_density_diffrn    6.721
_exptl_crystal_density_method    'not measured'
_exptl_crystal_description       block
_exptl_crystal_F_000             1120
_exptl_crystal_size_max          0.07
_exptl_crystal_size_mid          0.06
_exptl_crystal_size_min          0.05
_refine_diff_density_max         3.428
_refine_diff_density_min         -2.949
_refine_diff_density_rms         0.502
_refine_ls_extinction_coef       0.0043(2)
_refine_ls_extinction_expression Fc^*^=kFc[1+0.001xFc^2^\l^3^/sin(2\q)]^-1/4^
_refine_ls_extinction_method     SHELXL
_refine_ls_goodness_of_fit_ref   0.836
_refine_ls_matrix_type           full
_refine_ls_number_parameters     21
_refine_ls_number_reflns         391
_refine_ls_number_restraints     0
_refine_ls_restrained_S_all      0.836
_refine_ls_R_factor_all          0.0925
_refine_ls_R_factor_gt           0.0334
_refine_ls_shift/su_max          0.001
_refine_ls_shift/su_mean         0.000
_refine_ls_structure_factor_coef Fsqd
_refine_ls_weighting_details
'calc w=1/[\s^2^(Fo^2^)+(0.0099P)^2^+0.0000P] where P=(Fo^2^+2Fc^2^)/3'
_refine_ls_weighting_scheme      calc
_refine_ls_wR_factor_gt          0.0393
_refine_ls_wR_factor_ref         0.0473
_reflns_number_gt                224
_reflns_number_total             391
_reflns_threshold_expression     >2sigma(I)
_cod_data_source_file            ic801095v_si_001_15.cif
_cod_data_source_block           3sl239aa
_cod_database_code               4301386
loop_
_symmetry_equiv_pos_as_xyz
'x, y, z'
'-x, -y, z'
'-x, y, -z'
'x, -y, -z'
'z, x, y'
'z, -x, -y'
'-z, -x, y'
'-z, x, -y'
'y, z, x'
'-y, z, -x'
'y, -z, -x'
'-y, -z, x'
'y, x, -z'
'-y, -x, -z'
'y, -x, z'
'-y, x, z'
'x, z, -y'
'-x, z, y'
'-x, -z, -y'
'x, -z, y'
'z, y, -x'
'z, -y, x'
'-z, y, x'
'-z, -y, -x'
'-x, -y, -z'
'x, y, -z'
'x, -y, z'
'-x, y, z'
'-z, -x, -y'
'-z, x, y'
'z, x, -y'
'z, -x, y'
'-y, -z, -x'
'y, -z, x'
'-y, z, x'
'y, z, -x'
'-y, -x, z'
'y, x, z'
'-y, x, -z'
'y, -x, -z'
'-x, -z, y'
'x, -z, -y'
'x, z, y'
'-x, z, -y'
'-z, -y, x'
'-z, y, -x'
'z, -y, -x'
'z, y, x'
loop_
_atom_site_label
_atom_site_type_symbol
_atom_site_fract_x
_atom_site_fract_y
_atom_site_fract_z
_atom_site_U_iso_or_equiv
_atom_site_adp_type
_atom_site_occupancy
_atom_site_symmetry_multiplicity
_atom_site_calc_flag
_atom_site_refinement_flags
_atom_site_disorder_assembly
_atom_site_disorder_group
Au1 Au 0.0000 0.0000 0.0000 0.0189(7) Uani 1.016(14) 48 d SP . .
Au2 Au 0.0000 0.33784(14) 0.33784(14) 0.0064(2) Uani 0.530(5) 4 d SP . .
Al2 Al 0.0000 0.3665(9) 0.3665(9) 0.006(4) Uiso 0.470(5) 4 d SP . .
Eu1 Eu 0.5000 0.0000 0.0000 0.0064(3) Uani 1 16 d S . .
Al1 Al 0.5000 0.2687(2) 0.2687(2) 0.0063(6) Uani 1 4 d S . .
Zr1 Zr 0.5000 0.5000 0.5000 0.0025(6) Uani 1 48 d S . .
Al3 Al 0.1743(3) 0.1743(3) 0.1743(3) 0.0104(7) Uani 1 6 d S . .
loop_
_atom_site_aniso_label
_atom_site_aniso_U_11
_atom_site_aniso_U_22
_atom_site_aniso_U_33
_atom_site_aniso_U_23
_atom_site_aniso_U_13
_atom_site_aniso_U_12
Au1 0.0189(7) 0.0189(7) 0.0189(7) 0.000 0.000 0.000
Au2 0.0066(4) 0.0066(4) 0.0060(4) 0.000 0.000 -0.0008(4)
Eu1 0.0104(6) 0.0044(4) 0.0044(4) 0.000 0.000 0.000
Al1 0.0070(13) 0.0059(9) 0.0059(9) -0.0014(11) 0.000 0.000
Zr1 0.0025(6) 0.0025(6) 0.0025(6) 0.000 0.000 0.000
Al3 0.0104(7) 0.0104(7) 0.0104(7) 0.0020(9) 0.0020(9) 0.0020(9)
loop_
_atom_type_symbol
_atom_type_description
_atom_type_scat_dispersion_real
_atom_type_scat_dispersion_imag
_atom_type_scat_source
Al Al 0.0645 0.0514 'International Tables Vol C Tables 4.2.6.8 and 6.1.1.4'
Zr Zr -2.9673 0.5597 'International Tables Vol C Tables 4.2.6.8 and 6.1.1.4'
Eu Eu -0.1578 3.6682 'International Tables Vol C Tables 4.2.6.8 and 6.1.1.4'
Au Au -2.0133 8.8022 'International Tables Vol C Tables 4.2.6.8 and 6.1.1.4'
loop_
_geom_angle_atom_site_label_1
_geom_angle_atom_site_label_2
_geom_angle_atom_site_label_3
_geom_angle
_geom_angle_site_symmetry_1
_geom_angle_site_symmetry_3
_geom_angle_publ_flag
Al3 Au1 Al3 180.00(19) . 25 ?
Al3 Au1 Al3 70.5 . 28 ?
Al3 Au1 Al3 109.5 25 28 ?
Al3 Au1 Al3 70.5 . 27 ?
Al3 Au1 Al3 109.5 25 27 ?
Al3 Au1 Al3 109.5 28 27 ?
Al3 Au1 Al3 70.5 . 26 ?
Al3 Au1 Al3 109.5 25 26 ?
Al3 Au1 Al3 109.5 28 26 ?
Al3 Au1 Al3 109.5 27 26 ?
Al3 Au1 Al3 109.5 . 2 ?
Al3 Au1 Al3 70.5 25 2 ?
Al3 Au1 Al3 70.5 28 2 ?
Al3 Au1 Al3 70.5 27 2 ?
Al3 Au1 Al3 180.00(19) 26 2 ?
Al3 Au1 Al3 109.5 . 3 ?
Al3 Au1 Al3 70.5 25 3 ?
Al3 Au1 Al3 70.5 28 3 ?
Al3 Au1 Al3 180.0(3) 27 3 ?
Al3 Au1 Al3 70.5 26 3 ?
Al3 Au1 Al3 109.5 2 3 ?
Al3 Au1 Al3 109.5 . 4 ?
Al3 Au1 Al3 70.5 25 4 ?
Al3 Au1 Al3 180.00(19) 28 4 ?
Al3 Au1 Al3 70.5 27 4 ?
Al3 Au1 Al3 70.5 26 4 ?
Al3 Au1 Al3 109.5 2 4 ?
Al3 Au1 Al3 109.5 3 4 ?
Al3 Au2 Al3 74.0(2) 26 . ?
Al3 Au2 Al2 128.07(14) 26 27_565 ?
Al3 Au2 Al2 128.07(14) . 27_565 ?
Al3 Au2 Al2 128.07(14) 26 3_655 ?
Al3 Au2 Al2 128.07(14) . 3_655 ?
Al2 Au2 Al2 78.9(4) 27_565 3_655 ?
Al3 Au2 Al1 131.80(9) 26 5 ?
Al3 Au2 Al1 70.14(9) . 5 ?
Al2 Au2 Al1 61.22(7) 27_565 5 ?
Al2 Au2 Al1 99.53(10) 3_655 5 ?
Al3 Au2 Al1 131.80(9) 26 . ?
Al3 Au2 Al1 70.14(9) . . ?
Al2 Au2 Al1 99.53(10) 27_565 . ?
Al2 Au2 Al1 61.22(7) 3_655 . ?
Al1 Au2 Al1 61.21(10) 5 . ?
Al3 Au2 Al1 70.14(9) 26 6_565 ?
Al3 Au2 Al1 131.80(9) . 6_565 ?
Al2 Au2 Al1 61.22(7) 27_565 6_565 ?
Al2 Au2 Al1 99.53(10) 3_655 6_565 ?
Al1 Au2 Al1 113.45(8) 5 6_565 ?
Al1 Au2 Al1 156.39(8) . 6_565 ?
Al3 Au2 Al1 70.14(9) 26 26 ?
Al3 Au2 Al1 131.80(9) . 26 ?
Al2 Au2 Al1 99.53(10) 27_565 26 ?
Al2 Au2 Al1 61.22(7) 3_655 26 ?
Al1 Au2 Al1 156.39(8) 5 26 ?
Al1 Au2 Al1 113.45(8) . 26 ?
Al1 Au2 Al1 61.21(10) 6_565 26 ?
Al3 Au2 Au2 124.39(5) 26 3_655 ?
Al3 Au2 Au2 124.39(5) . 3_655 ?
Al2 Au2 Au2 84.46(18) 27_565 3_655 ?
Al2 Au2 Au2 5.54(18) 3_655 3_655 ?
Al1 Au2 Au2 102.43(5) 5 3_655 ?
Al1 Au2 Au2 59.69(3) . 3_655 ?
Al1 Au2 Au2 102.43(5) 6_565 3_655 ?
Al1 Au2 Au2 59.69(3) 26 3_655 ?
Al3 Au2 Au2 124.39(5) 26 27_565 ?
Al3 Au2 Au2 124.39(5) . 27_565 ?
Al2 Au2 Au2 5.54(19) 27_565 27_565 ?
Al2 Au2 Au2 84.46(18) 3_655 27_565 ?
Al1 Au2 Au2 59.69(3) 5 27_565 ?
Al1 Au2 Au2 102.43(5) . 27_565 ?
Al1 Au2 Au2 59.69(3) 6_565 27_565 ?
Al1 Au2 Au2 102.43(5) 26 27_565 ?
Au2 Au2 Au2 90.0 3_655 27_565 ?
Al3 Au2 Eu1 74.65(3) 26 . ?
Al3 Au2 Eu1 74.65(3) . . ?
Al2 Au2 Eu1 148.81(18) 27_565 . ?
Al2 Au2 Eu1 69.90(19) 3_655 . ?
Al1 Au2 Eu1 123.24(4) 5 . ?
Al1 Au2 Eu1 65.64(5) . . ?
Al1 Au2 Eu1 123.24(4) 6_565 . ?
Al1 Au2 Eu1 65.64(5) 26 . ?
Au2 Au2 Eu1 64.36(3) 3_655 . ?
Au2 Au2 Eu1 154.36(3) 27_565 . ?
Al3 Au2 Eu1 74.65(3) 26 5 ?
Al3 Au2 Eu1 74.65(3) . 5 ?
Al2 Au2 Eu1 69.90(19) 27_565 5 ?
Al2 Au2 Eu1 148.81(18) 3_655 5 ?
Al1 Au2 Eu1 65.64(5) 5 5 ?
Al1 Au2 Eu1 123.24(4) . 5 ?
Al1 Au2 Eu1 65.64(5) 6_565 5 ?
Al1 Au2 Eu1 123.24(4) 26 5 ?
Au2 Au2 Eu1 154.36(3) 3_655 5 ?
Au2 Au2 Eu1 64.36(3) 27_565 5 ?
Eu1 Au2 Eu1 141.28(6) . 5 ?
Al2 Al2 Al2 90.0 27_565 3_655 ?
Al2 Al2 Au2 5.54(18) 27_565 27_565 ?
Al2 Al2 Au2 95.54(18) 3_655 27_565 ?
Al2 Al2 Au2 95.54(18) 27_565 3_655 ?
Al2 Al2 Au2 5.54(18) 3_655 3_655 ?
Au2 Al2 Au2 101.1(4) 27_565 3_655 ?
Al2 Al2 Al1 64.98(17) 27_565 5 ?
Al2 Al2 Al1 108.07(19) 3_655 5 ?
Au2 Al2 Al1 63.19(10) 27_565 5 ?
Au2 Al2 Al1 110.5(2) 3_655 5 ?
Al2 Al2 Al1 108.07(19) 27_565 . ?
Al2 Al2 Al1 64.98(17) 3_655 . ?
Au2 Al2 Al1 110.5(2) 27_565 . ?
Au2 Al2 Al1 63.19(10) 3_655 . ?
Al1 Al2 Al1 62.45(10) 5 . ?
Al2 Al2 Al1 64.98(17) 27_565 6_565 ?
Al2 Al2 Al1 108.07(19) 3_655 6_565 ?
Au2 Al2 Al1 63.19(10) 27_565 6_565 ?
Au2 Al2 Al1 110.5(2) 3_655 6_565 ?
Al1 Al2 Al1 116.73(11) 5 6_565 ?
Al1 Al2 Al1 170.9(5) . 6_565 ?
Al2 Al2 Al1 108.07(19) 27_565 26 ?
Al2 Al2 Al1 64.98(17) 3_655 26 ?
Au2 Al2 Al1 110.5(2) 27_565 26 ?
Au2 Al2 Al1 63.19(10) 3_655 26 ?
Al1 Al2 Al1 170.9(5) 5 26 ?
Al1 Al2 Al1 116.73(11) . 26 ?
Al1 Al2 Al1 62.45(10) 6_565 26 ?
Al2 Al2 Al3 126.54(7) 27_565 26 ?
Al2 Al2 Al3 126.54(7) 3_655 26 ?
Au2 Al2 Al3 122.35(10) 27_565 26 ?
Au2 Al2 Al3 122.35(10) 3_655 26 ?
Al1 Al2 Al3 121.8(3) 5 26 ?
Al1 Al2 Al3 121.8(3) . 26 ?
Al1 Al2 Al3 66.90(14) 6_565 26 ?
Al1 Al2 Al3 66.90(14) 26 26 ?
Al2 Al2 Al3 126.54(7) 27_565 . ?
Al2 Al2 Al3 126.54(7) 3_655 . ?
Au2 Al2 Al3 122.35(10) 27_565 . ?
Au2 Al2 Al3 122.35(10) 3_655 . ?
Al1 Al2 Al3 66.90(14) 5 . ?
Al1 Al2 Al3 66.90(14) . . ?
Al1 Al2 Al3 121.8(3) 6_565 . ?
Al1 Al2 Al3 121.8(3) 26 . ?
Al3 Al2 Al3 65.3(3) 26 . ?
Al2 Al2 Eu1 69.99(17) 27_565 5 ?
Al2 Al2 Eu1 159.99(17) 3_655 5 ?
Au2 Al2 Eu1 64.45(3) 27_565 5 ?
Au2 Al2 Eu1 165.5(4) 3_655 5 ?
Al1 Al2 Eu1 64.14(8) 5 5 ?
Al1 Al2 Eu1 120.24(14) . 5 ?
Al1 Al2 Eu1 64.14(8) 6_565 5 ?
Al1 Al2 Eu1 120.24(14) 26 5 ?
Al3 Al2 Eu1 69.16(17) 26 5 ?
Al3 Al2 Eu1 69.16(17) . 5 ?
Al2 Al2 Eu1 159.99(17) 27_565 . ?
Al2 Al2 Eu1 69.99(17) 3_655 . ?
Au2 Al2 Eu1 165.5(4) 27_565 . ?
Au2 Al2 Eu1 64.45(3) 3_655 . ?
Al1 Al2 Eu1 120.24(14) 5 . ?
Al1 Al2 Eu1 64.14(8) . . ?
Al1 Al2 Eu1 120.24(14) 6_565 . ?
Al1 Al2 Eu1 64.14(8) 26 . ?
Al3 Al2 Eu1 69.16(17) 26 . ?
Al3 Al2 Eu1 69.16(17) . . ?
Eu1 Al2 Eu1 130.0(3) 5 . ?
Au2 Eu1 Au2 180.000(19) 35_655 11 ?
Au2 Eu1 Au2 100.79(2) 35_655 27 ?
Au2 Eu1 Au2 79.21(2) 11 27 ?
Au2 Eu1 Au2 79.21(2) 35_655 3_655 ?
Au2 Eu1 Au2 100.79(2) 11 3_655 ?
Au2 Eu1 Au2 180.000(19) 27 3_655 ?
Au2 Eu1 Au2 128.72(6) 35_655 33_655 ?
Au2 Eu1 Au2 51.28(6) 11 33_655 ?
Au2 Eu1 Au2 100.79(2) 27 33_655 ?
Au2 Eu1 Au2 79.21(2) 3_655 33_655 ?
Au2 Eu1 Au2 79.21(2) 35_655 25_655 ?
Au2 Eu1 Au2 100.79(2) 11 25_655 ?
Au2 Eu1 Au2 51.28(6) 27 25_655 ?
Au2 Eu1 Au2 128.72(6) 3_655 25_655 ?
Au2 Eu1 Au2 79.21(2) 33_655 25_655 ?
Au2 Eu1 Au2 51.28(6) 35_655 9 ?
Au2 Eu1 Au2 128.72(6) 11 9 ?
Au2 Eu1 Au2 79.21(2) 27 9 ?
Au2 Eu1 Au2 100.79(2) 3_655 9 ?
Au2 Eu1 Au2 180.00(4) 33_655 9 ?
Au2 Eu1 Au2 100.79(2) 25_655 9 ?
Au2 Eu1 Au2 100.79(2) 35_655 . ?
Au2 Eu1 Au2 79.21(2) 11 . ?
Au2 Eu1 Au2 128.72(6) 27 . ?
Au2 Eu1 Au2 51.28(6) 3_655 . ?
Au2 Eu1 Au2 100.79(2) 33_655 . ?
Au2 Eu1 Au2 180.00(4) 25_655 . ?
Au2 Eu1 Au2 79.21(2) 9 . ?
Au2 Eu1 Al1 129.604(11) 35_655 25_655 ?
Au2 Eu1 Al1 50.396(11) 11 25_655 ?
Au2 Eu1 Al1 50.396(11) 27 25_655 ?
Au2 Eu1 Al1 129.604(11) 3_655 25_655 ?
Au2 Eu1 Al1 50.396(11) 33_655 25_655 ?
Au2 Eu1 Al1 50.396(11) 25_655 25_655 ?
Au2 Eu1 Al1 129.604(11) 9 25_655 ?
Au2 Eu1 Al1 129.604(11) . 25_655 ?
Au2 Eu1 Al1 50.396(11) 35_655 . ?
Au2 Eu1 Al1 129.604(11) 11 . ?
Au2 Eu1 Al1 129.604(11) 27 . ?
Au2 Eu1 Al1 50.396(11) 3_655 . ?
Au2 Eu1 Al1 129.604(11) 33_655 . ?
Au2 Eu1 Al1 129.604(11) 25_655 . ?
Au2 Eu1 Al1 50.396(11) 9 . ?
Au2 Eu1 Al1 50.396(11) . . ?
Al1 Eu1 Al1 180.00(5) 25_655 . ?
Au2 Eu1 Al1 129.604(11) 35_655 26 ?
Au2 Eu1 Al1 50.396(11) 11 26 ?
Au2 Eu1 Al1 129.604(11) 27 26 ?
Au2 Eu1 Al1 50.396(11) 3_655 26 ?
Au2 Eu1 Al1 50.396(11) 33_655 26 ?
Au2 Eu1 Al1 129.604(11) 25_655 26 ?
Au2 Eu1 Al1 129.604(11) 9 26 ?
Au2 Eu1 Al1 50.396(11) . 26 ?
Al1 Eu1 Al1 90.0 25_655 26 ?
Al1 Eu1 Al1 90.0 . 26 ?
Au2 Eu1 Al1 50.396(11) 35_655 2_655 ?
Au2 Eu1 Al1 129.604(11) 11 2_655 ?
Au2 Eu1 Al1 50.396(11) 27 2_655 ?
Au2 Eu1 Al1 129.604(11) 3_655 2_655 ?
Au2 Eu1 Al1 129.604(11) 33_655 2_655 ?
Au2 Eu1 Al1 50.396(11) 25_655 2_655 ?
Au2 Eu1 Al1 50.396(11) 9 2_655 ?
Au2 Eu1 Al1 129.604(11) . 2_655 ?
Al1 Eu1 Al1 90.0 25_655 2_655 ?
Al1 Eu1 Al1 90.0 . 2_655 ?
Al1 Eu1 Al1 180.00(5) 26 2_655 ?
Al2 Al1 Al2 110.4(5) . 9 ?
Al2 Al1 Al2 135.0(3) . 35_655 ?
Al2 Al1 Al2 50.0(3) 9 35_655 ?
Al2 Al1 Al2 50.0(3) . 3_655 ?
Al2 Al1 Al2 135.0(3) 9 3_655 ?
Al2 Al1 Al2 110.4(5) 35_655 3_655 ?
Al2 Al1 Au2 7.2(2) . . ?
Al2 Al1 Au2 103.2(3) 9 . ?
Al2 Al1 Au2 131.00(14) 35_655 . ?
Al2 Al1 Au2 55.59(17) 3_655 . ?
Al2 Al1 Au2 103.2(3) . 9 ?
Al2 Al1 Au2 7.2(2) 9 9 ?
Al2 Al1 Au2 55.59(17) 35_655 9 ?
Al2 Al1 Au2 131.00(14) 3_655 9 ?
Au2 Al1 Au2 96.05(9) . 9 ?
Al2 Al1 Au2 55.59(17) . 3_655 ?
Al2 Al1 Au2 131.00(14) 9 3_655 ?
Al2 Al1 Au2 103.2(3) 35_655 3_655 ?
Al2 Al1 Au2 7.2(2) 3_655 3_655 ?
Au2 Al1 Au2 60.62(6) . 3_655 ?
Au2 Al1 Au2 127.93(11) 9 3_655 ?
Al2 Al1 Au2 131.00(14) . 35_655 ?
Al2 Al1 Au2 55.59(17) 9 35_655 ?
Al2 Al1 Au2 7.2(2) 35_655 35_655 ?
Al2 Al1 Au2 103.2(3) 3_655 35_655 ?
Au2 Al1 Au2 127.93(11) . 35_655 ?
Au2 Al1 Au2 60.62(6) 9 35_655 ?
Au2 Al1 Au2 96.05(9) 3_655 35_655 ?
Al2 Al1 Al1 154.3(2) . 10_656 ?
Al2 Al1 Al1 94.6(2) 9 10_656 ?
Al2 Al1 Al1 58.77(5) 35_655 10_656 ?
Al2 Al1 Al1 107.63(13) 3_655 10_656 ?
Au2 Al1 Al1 161.44(4) . 10_656 ?
Au2 Al1 Al1 101.81(4) 9 10_656 ?
Au2 Al1 Al1 103.55(3) 3_655 10_656 ?
Au2 Al1 Al1 59.40(5) 35_655 10_656 ?
Al2 Al1 Zr1 112.50(13) . . ?
Al2 Al1 Zr1 112.50(13) 9 . ?
Al2 Al1 Zr1 112.50(13) 35_655 . ?
Al2 Al1 Zr1 112.50(13) 3_655 . ?
Au2 Al1 Zr1 116.04(5) . . ?
Au2 Al1 Zr1 116.04(5) 9 . ?
Au2 Al1 Zr1 116.04(5) 3_655 . ?
Au2 Al1 Zr1 116.04(5) 35_655 . ?
Al1 Al1 Zr1 60.0 10_656 . ?
Al2 Al1 Al1 94.6(2) . 30_655 ?
Al2 Al1 Al1 154.3(2) 9 30_655 ?
Al2 Al1 Al1 107.63(13) 35_655 30_655 ?
Al2 Al1 Al1 58.77(5) 3_655 30_655 ?
Au2 Al1 Al1 101.81(4) . 30_655 ?
Au2 Al1 Al1 161.44(4) 9 30_655 ?
Au2 Al1 Al1 59.40(5) 3_655 30_655 ?
Au2 Al1 Al1 103.55(3) 35_655 30_655 ?
Al1 Al1 Al1 60.0 10_656 30_655 ?
Zr1 Al1 Al1 60.0 . 30_655 ?
Al2 Al1 Al1 107.63(13) . 9 ?
Al2 Al1 Al1 58.77(5) 9 9 ?
Al2 Al1 Al1 94.6(2) 35_655 9 ?
Al2 Al1 Al1 154.3(2) 3_655 9 ?
Au2 Al1 Al1 103.55(3) . 9 ?
Au2 Al1 Al1 59.40(5) 9 9 ?
Au2 Al1 Al1 161.44(4) 3_655 9 ?
Au2 Al1 Al1 101.81(4) 35_655 9 ?
Al1 Al1 Al1 90.0 10_656 9 ?
Zr1 Al1 Al1 60.0 . 9 ?
Al1 Al1 Al1 120.0 30_655 9 ?
Al1 Zr1 Al1 120.0 33_666 . ?
Al1 Zr1 Al1 60.0 33_666 25_666 ?
Al1 Zr1 Al1 180.0 . 25_666 ?
Al1 Zr1 Al1 180.0 33_666 9 ?
Al1 Zr1 Al1 60.0 . 9 ?
Al1 Zr1 Al1 120.0 25_666 9 ?
Al1 Zr1 Al1 60.0 33_666 29_666 ?
Al1 Zr1 Al1 120.0 . 29_666 ?
Al1 Zr1 Al1 60.0 25_666 29_666 ?
Al1 Zr1 Al1 120.0 9 29_666 ?
Al1 Zr1 Al1 120.0 33_666 5 ?
Al1 Zr1 Al1 60.0 . 5 ?
Al1 Zr1 Al1 120.0 25_666 5 ?
Al1 Zr1 Al1 60.0 9 5 ?
Al1 Zr1 Al1 180.0 29_666 5 ?
Al1 Zr1 Al1 90.0 33_666 34_565 ?
Al1 Zr1 Al1 120.0 . 34_565 ?
Al1 Zr1 Al1 60.0 25_666 34_565 ?
Al1 Zr1 Al1 90.0 9 34_565 ?
Al1 Zr1 Al1 120.0 29_666 34_565 ?
Al1 Zr1 Al1 60.0 5 34_565 ?
Al1 Zr1 Al1 120.0 33_666 6_566 ?
Al1 Zr1 Al1 120.0 . 6_566 ?
Al1 Zr1 Al1 60.0 25_666 6_566 ?
Al1 Zr1 Al1 60.0 9 6_566 ?
Al1 Zr1 Al1 90.0 29_666 6_566 ?
Al1 Zr1 Al1 90.0 5 6_566 ?
Al1 Zr1 Al1 60.0 34_565 6_566 ?
Al1 Zr1 Al1 60.0 33_666 30_655 ?
Al1 Zr1 Al1 60.0 . 30_655 ?
Al1 Zr1 Al1 120.0 25_666 30_655 ?
Al1 Zr1 Al1 120.0 9 30_655 ?
Al1 Zr1 Al1 90.0 29_666 30_655 ?
Al1 Zr1 Al1 90.0 5 30_655 ?
Al1 Zr1 Al1 120.0 34_565 30_655 ?
Al1 Zr1 Al1 180.0 6_566 30_655 ?
Al1 Zr1 Al1 120.0 33_666 26_556 ?
Al1 Zr1 Al1 90.0 . 26_556 ?
Al1 Zr1 Al1 90.0 25_666 26_556 ?
Al1 Zr1 Al1 60.0 9 26_556 ?
Al1 Zr1 Al1 60.0 29_666 26_556 ?
Al1 Zr1 Al1 120.0 5 26_556 ?
Al1 Zr1 Al1 120.0 34_565 26_556 ?
Al1 Zr1 Al1 60.0 6_566 26_556 ?
Al1 Zr1 Al1 120.0 30_655 26_556 ?
Al1 Zr1 Al1 60.0 33_666 2_665 ?
Al1 Zr1 Al1 90.0 . 2_665 ?
Al1 Zr1 Al1 90.0 25_666 2_665 ?
Al1 Zr1 Al1 120.0 9 2_665 ?
Al1 Zr1 Al1 120.0 29_666 2_665 ?
Al1 Zr1 Al1 60.0 5 2_665 ?
Al1 Zr1 Al1 60.0 34_565 2_665 ?
Al1 Zr1 Al1 120.0 6_566 2_665 ?
Al1 Zr1 Al1 60.0 30_655 2_665 ?
Al1 Zr1 Al1 180.0 26_556 2_665 ?
Al1 Zr1 Al1 90.0 33_666 10_656 ?
Al1 Zr1 Al1 60.0 . 10_656 ?
Al1 Zr1 Al1 120.0 25_666 10_656 ?
Al1 Zr1 Al1 90.0 9 10_656 ?
Al1 Zr1 Al1 60.0 29_666 10_656 ?
Al1 Zr1 Al1 120.0 5 10_656 ?
Al1 Zr1 Al1 180.0 34_565 10_656 ?
Al1 Zr1 Al1 120.0 6_566 10_656 ?
Al1 Zr1 Al1 60.0 30_655 10_656 ?
Al1 Zr1 Al1 60.0 26_556 10_656 ?
Al1 Zr1 Al1 120.0 2_665 10_656 ?
Au2 Al3 Au2 111.14(10) 9 5 ?
Au2 Al3 Au2 111.14(10) 9 . ?
Au2 Al3 Au2 111.14(10) 5 . ?
Au2 Al3 Au1 107.74(10) 9 . ?
Au2 Al3 Au1 107.74(10) 5 . ?
Au2 Al3 Au1 107.74(10) . . ?
Au2 Al3 Al2 4.34(12) 9 9 ?
Au2 Al3 Al2 109.07(12) 5 9 ?
Au2 Al3 Al2 109.07(12) . 9 ?
Au1 Al3 Al2 112.08(15) . 9 ?
Au2 Al3 Al2 109.07(12) 9 5 ?
Au2 Al3 Al2 4.34(12) 5 5 ?
Au2 Al3 Al2 109.07(12) . 5 ?
Au1 Al3 Al2 112.08(15) . 5 ?
Al2 Al3 Al2 106.74(16) 9 5 ?
Au2 Al3 Al2 109.07(12) 9 . ?
Au2 Al3 Al2 109.07(12) 5 . ?
Au2 Al3 Al2 4.34(12) . . ?
Au1 Al3 Al2 112.08(15) . . ?
Al2 Al3 Al2 106.74(16) 9 . ?
Al2 Al3 Al2 106.74(16) 5 . ?
Au2 Al3 Eu1 62.216(8) 9 9 ?
Au2 Al3 Eu1 62.216(8) 5 9 ?
Au2 Al3 Eu1 164.11(18) . 9 ?
Au1 Al3 Eu1 88.15(7) . 9 ?
Al2 Al3 Eu1 63.19(3) 9 9 ?
Al2 Al3 Eu1 63.19(3) 5 9 ?
Al2 Al3 Eu1 159.8(2) . 9 ?
Au2 Al3 Eu1 62.216(8) 9 . ?
Au2 Al3 Eu1 164.11(18) 5 . ?
Au2 Al3 Eu1 62.216(8) . . ?
Au1 Al3 Eu1 88.15(7) . . ?
Al2 Al3 Eu1 63.19(3) 9 . ?
Al2 Al3 Eu1 159.8(2) 5 . ?
Al2 Al3 Eu1 63.19(3) . . ?
Eu1 Al3 Eu1 119.897(8) 9 . ?
Au2 Al3 Eu1 164.11(18) 9 5 ?
Au2 Al3 Eu1 62.216(8) 5 5 ?
Au2 Al3 Eu1 62.216(8) . 5 ?
Au1 Al3 Eu1 88.15(7) . 5 ?
Al2 Al3 Eu1 159.8(2) 9 5 ?
Al2 Al3 Eu1 63.19(3) 5 5 ?
Al2 Al3 Eu1 63.19(3) . 5 ?
Eu1 Al3 Eu1 119.897(8) 9 5 ?
Eu1 Al3 Eu1 119.897(8) . 5 ?
loop_
_geom_bond_atom_site_label_1
_geom_bond_atom_site_label_2
_geom_bond_distance
_geom_bond_site_symmetry_2
_geom_bond_publ_flag
Au1 Al3 2.635(5) . ?
Au1 Al3 2.635(5) 25 ?
Au1 Al3 2.635(5) 28 ?
Au1 Al3 2.635(5) 27 ?
Au1 Al3 2.635(5) 26 ?
Au1 Al3 2.635(5) 2 ?
Au1 Al3 2.635(5) 3 ?
Au1 Al3 2.635(5) 4 ?
Au2 Al3 2.528(2) 26 ?
Au2 Al3 2.528(2) . ?
Au2 Al2 2.593(8) 27_565 ?
Au2 Al2 2.593(8) 3_655 ?
Au2 Al1 2.8049(13) 5 ?
Au2 Al1 2.8049(13) . ?
Au2 Al1 2.8049(13) 6_565 ?
Au2 Al1 2.8049(13) 26 ?
Au2 Au2 2.831(2) 3_655 ?
Au2 Au2 2.831(2) 27_565 ?
Au2 Eu1 3.2711(8) . ?
Au2 Eu1 3.2711(8) 5 ?
Al2 Al2 2.330(16) 27_565 ?
Al2 Al2 2.330(16) 3_655 ?
Al2 Au2 2.593(8) 27_565 ?
Al2 Au2 2.593(8) 3_655 ?
Al2 Al1 2.7544(15) 5 ?
Al2 Al1 2.7544(15) . ?
Al2 Al1 2.7544(15) 6_565 ?
Al2 Al1 2.7544(15) 26 ?
Al2 Al3 2.819(10) 26 ?
Al2 Al3 2.819(10) . ?
Al2 Eu1 3.405(5) 5 ?
Al2 Eu1 3.405(5) . ?
Eu1 Au2 3.2711(8) 35_655 ?
Eu1 Au2 3.2711(8) 11 ?
Eu1 Au2 3.2711(8) 27 ?
Eu1 Au2 3.2711(8) 3_655 ?
Eu1 Au2 3.2711(8) 33_655 ?
Eu1 Au2 3.2711(8) 25_655 ?
Eu1 Au2 3.2711(8) 9 ?
Eu1 Al1 3.316(3) 25_655 ?
Eu1 Al1 3.316(3) . ?
Eu1 Al1 3.316(3) 26 ?
Eu1 Al1 3.316(3) 2_655 ?
Al1 Al2 2.7544(15) 9 ?
Al1 Al2 2.7544(15) 35_655 ?
Al1 Al2 2.7544(15) 3_655 ?
Al1 Au2 2.8049(13) 9 ?
Al1 Au2 2.8049(13) 3_655 ?
Al1 Au2 2.8049(13) 35_655 ?
Al1 Al1 2.856(3) 10_656 ?
Al1 Zr1 2.856(3) . ?
Al1 Al1 2.856(3) 30_655 ?
Al1 Al1 2.856(3) 9 ?
Zr1 Al1 2.856(3) 33_666 ?
Zr1 Al1 2.856(3) 25_666 ?
Zr1 Al1 2.856(3) 9 ?
Zr1 Al1 2.856(3) 29_666 ?
Zr1 Al1 2.856(3) 5 ?
Zr1 Al1 2.856(3) 34_565 ?
Zr1 Al1 2.856(3) 6_566 ?
Zr1 Al1 2.856(3) 30_655 ?
Zr1 Al1 2.856(3) 26_556 ?
Zr1 Al1 2.856(3) 2_665 ?
Zr1 Al1 2.856(3) 10_656 ?
Al3 Au2 2.528(2) 9 ?
Al3 Au2 2.528(2) 5 ?
Al3 Al2 2.819(10) 9 ?
Al3 Al2 2.819(10) 5 ?
Al3 Eu1 3.5654(6) 9 ?
Al3 Eu1 3.5654(6) 5 ?
