#------------------------------------------------------------------------------
#$Date: 2016-02-16 22:30:59 +0200 (Tue, 16 Feb 2016) $
#$Revision: 176467 $
#$URL: svn://www.crystallography.net/cod/cif/4/30/13/4301394.cif $
#------------------------------------------------------------------------------
#
# This file is available in the Crystallography Open Database (COD),
# http://www.crystallography.net/
#
# All data on this site have been placed in the public domain by the
# contributors.
#
data_4301394
loop_
_publ_author_name
'Susan E. Latturner'
'Daniel Bilc'
'S. D. Mahanti'
'Mercouri G. Kanatzidis'
_publ_section_title
;
R3Au6+xAl26T (R = Ca, Sr, Eu, Yb; T = Early Transition Metal): a Large
Family of Compounds with a Stuffed BaHg11 Structure Type Grown from Aluminum
Flux
;
_journal_name_full               'Inorganic Chemistry'
_journal_page_first              1346
_journal_page_last               1355
_journal_paper_doi               10.1021/ic801095v
_journal_volume                  48
_journal_year                    2009
_chemical_formula_sum            'Al25.8 Au6.8 V Yb3'
_chemical_formula_weight         2605.52
_chemical_name_systematic
; 
 ? 
;
_space_group_IT_number           221
_symmetry_cell_setting           cubic
_symmetry_space_group_name_Hall  '-P 4 2 3'
_symmetry_space_group_name_H-M   'P m -3 m'
_atom_sites_solution_primary     direct
_atom_sites_solution_secondary   difmap
_audit_creation_method           SHELXL-97
_cell_angle_alpha                90.00
_cell_angle_beta                 90.00
_cell_angle_gamma                90.00
_cell_formula_units_Z            1
_cell_length_a                   8.6145(10)
_cell_length_b                   8.6145(10)
_cell_length_c                   8.6145(10)
_cell_measurement_reflns_used    10293
_cell_measurement_temperature    293(2)
_cell_measurement_theta_max      37.42
_cell_measurement_theta_min      11.16
_cell_volume                     639.28(13)
_computing_cell_refinement       'Bruker SAINT software (Bruker, 1999)'
_computing_data_collection       'Bruker SMART software (Bruker, 1997)'
_computing_data_reduction        'Bruker SAINT software (Bruker, 1999)'
_computing_structure_refinement  'SHELXL-97 (Sheldrick, 1997)'
_computing_structure_solution    'SHELXS-97 (Sheldrick, 1990)'
_diffrn_ambient_temperature      293(2)
_diffrn_measured_fraction_theta_full 0.944
_diffrn_measured_fraction_theta_max 0.944
_diffrn_measurement_device_type  'CCD area detector (Bruker AXS)'
_diffrn_measurement_method       'phi and omega scans'
_diffrn_radiation_monochromator  graphite
_diffrn_radiation_source         'fine-focus sealed tube'
_diffrn_radiation_type           MoK\a
_diffrn_radiation_wavelength     0.71073
_diffrn_reflns_av_R_equivalents  0.0980
_diffrn_reflns_av_sigmaI/netI    0.0349
_diffrn_reflns_limit_h_max       14
_diffrn_reflns_limit_h_min       -14
_diffrn_reflns_limit_k_max       14
_diffrn_reflns_limit_k_min       -14
_diffrn_reflns_limit_l_max       14
_diffrn_reflns_limit_l_min       -14
_diffrn_reflns_number            10293
_diffrn_reflns_theta_full        37.42
_diffrn_reflns_theta_max         37.42
_diffrn_reflns_theta_min         11.16
_exptl_absorpt_coefficient_mu    50.934
_exptl_absorpt_correction_type   multi-scan
_exptl_absorpt_process_details   SADABS
_exptl_crystal_colour            silver
_exptl_crystal_density_diffrn    6.768
_exptl_crystal_density_method    'not measured'
_exptl_crystal_description       chunk
_exptl_crystal_F_000             1106
_exptl_crystal_size_max          0.08
_exptl_crystal_size_mid          0.06
_exptl_crystal_size_min          0.05
_refine_diff_density_max         1.812
_refine_diff_density_min         -2.400
_refine_diff_density_rms         0.327
_refine_ls_extinction_coef       0.0044(3)
_refine_ls_extinction_expression Fc^*^=kFc[1+0.001xFc^2^\l^3^/sin(2\q)]^-1/4^
_refine_ls_extinction_method     SHELXL
_refine_ls_goodness_of_fit_ref   1.051
_refine_ls_matrix_type           full
_refine_ls_number_parameters     21
_refine_ls_number_reflns         370
_refine_ls_number_restraints     0
_refine_ls_restrained_S_all      1.051
_refine_ls_R_factor_all          0.0443
_refine_ls_R_factor_gt           0.0258
_refine_ls_shift/su_max          0.000
_refine_ls_shift/su_mean         0.000
_refine_ls_structure_factor_coef Fsqd
_refine_ls_weighting_details
'calc w=1/[\s^2^(Fo^2^)+(0.0129P)^2^+4.8349P] where P=(Fo^2^+2Fc^2^)/3'
_refine_ls_weighting_scheme      calc
_refine_ls_wR_factor_gt          0.0447
_refine_ls_wR_factor_ref         0.0490
_reflns_number_gt                286
_reflns_number_total             370
_reflns_threshold_expression     >2sigma(I)
_cod_data_source_file            ic801095v_si_001_23.cif
_cod_data_source_block           3sl108af
_cod_original_formula_sum        'Al25.80 Au6.80 V Yb3'
_cod_database_code               4301394
loop_
_symmetry_equiv_pos_as_xyz
'x, y, z'
'-x, -y, z'
'-x, y, -z'
'x, -y, -z'
'z, x, y'
'z, -x, -y'
'-z, -x, y'
'-z, x, -y'
'y, z, x'
'-y, z, -x'
'y, -z, -x'
'-y, -z, x'
'y, x, -z'
'-y, -x, -z'
'y, -x, z'
'-y, x, z'
'x, z, -y'
'-x, z, y'
'-x, -z, -y'
'x, -z, y'
'z, y, -x'
'z, -y, x'
'-z, y, x'
'-z, -y, -x'
'-x, -y, -z'
'x, y, -z'
'x, -y, z'
'-x, y, z'
'-z, -x, -y'
'-z, x, y'
'z, x, -y'
'z, -x, y'
'-y, -z, -x'
'y, -z, x'
'-y, z, x'
'y, z, -x'
'-y, -x, z'
'y, x, z'
'-y, x, -z'
'y, -x, -z'
'-x, -z, y'
'x, -z, -y'
'x, z, y'
'-x, z, -y'
'-z, -y, x'
'-z, y, -x'
'z, -y, -x'
'z, y, x'
loop_
_atom_site_label
_atom_site_type_symbol
_atom_site_fract_x
_atom_site_fract_y
_atom_site_fract_z
_atom_site_U_iso_or_equiv
_atom_site_adp_type
_atom_site_occupancy
_atom_site_symmetry_multiplicity
_atom_site_calc_flag
_atom_site_refinement_flags
_atom_site_disorder_assembly
_atom_site_disorder_group
Au1 Au 0.0000 0.0000 0.0000 0.0164(7) Uani 0.560(9) 48 d SP . .
Au2 Au 0.0000 0.33643(10) 0.33643(10) 0.00766(18) Uani 0.519(4) 4 d SP . .
Al2 Al 0.0000 0.3647(7) 0.3647(7) 0.007(2) Uiso 0.481(4) 4 d SP . .
Yb1 Yb 0.5000 0.0000 0.0000 0.0107(2) Uani 1 16 d S . .
Al1 Al 0.5000 0.27206(17) 0.27206(17) 0.0076(4) Uani 1 4 d S . .
V1 V 0.5000 0.5000 0.5000 0.0043(6) Uani 1 48 d S . .
Al3 Al 0.1702(2) 0.1702(2) 0.1702(2) 0.0071(5) Uani 1 6 d S . .
loop_
_atom_site_aniso_label
_atom_site_aniso_U_11
_atom_site_aniso_U_22
_atom_site_aniso_U_33
_atom_site_aniso_U_23
_atom_site_aniso_U_13
_atom_site_aniso_U_12
Au1 0.0164(7) 0.0164(7) 0.0164(7) 0.000 0.000 0.000
Au2 0.0083(2) 0.0083(2) 0.0064(3) 0.000 0.000 -0.0024(3)
Yb1 0.0190(4) 0.0066(2) 0.0066(2) 0.000 0.000 0.000
Al1 0.0080(10) 0.0074(6) 0.0074(6) -0.0008(7) 0.000 0.000
V1 0.0043(6) 0.0043(6) 0.0043(6) 0.000 0.000 0.000
Al3 0.0071(5) 0.0071(5) 0.0071(5) 0.0022(5) 0.0022(5) 0.0022(5)
loop_
_atom_type_symbol
_atom_type_description
_atom_type_scat_dispersion_real
_atom_type_scat_dispersion_imag
_atom_type_scat_source
Al Al 0.0645 0.0514 'International Tables Vol C Tables 4.2.6.8 and 6.1.1.4'
V V 0.3005 0.5294 'International Tables Vol C Tables 4.2.6.8 and 6.1.1.4'
Yb Yb -0.3850 5.5486 'International Tables Vol C Tables 4.2.6.8 and 6.1.1.4'
Au Au -2.0133 8.8022 'International Tables Vol C Tables 4.2.6.8 and 6.1.1.4'
loop_
_geom_angle_atom_site_label_1
_geom_angle_atom_site_label_2
_geom_angle_atom_site_label_3
_geom_angle
_geom_angle_site_symmetry_1
_geom_angle_site_symmetry_3
_geom_angle_publ_flag
Al3 Au1 Al3 180.00(12) 25 . ?
Al3 Au1 Al3 109.5 25 28 ?
Al3 Au1 Al3 70.5 . 28 ?
Al3 Au1 Al3 70.5 25 2 ?
Al3 Au1 Al3 109.5 . 2 ?
Al3 Au1 Al3 70.5 28 2 ?
Al3 Au1 Al3 109.5 25 26 ?
Al3 Au1 Al3 70.5 . 26 ?
Al3 Au1 Al3 109.5 28 26 ?
Al3 Au1 Al3 180.00(19) 2 26 ?
Al3 Au1 Al3 70.5 25 3 ?
Al3 Au1 Al3 109.5 . 3 ?
Al3 Au1 Al3 70.5 28 3 ?
Al3 Au1 Al3 109.5 2 3 ?
Al3 Au1 Al3 70.5 26 3 ?
Al3 Au1 Al3 109.5 25 27 ?
Al3 Au1 Al3 70.5 . 27 ?
Al3 Au1 Al3 109.5 28 27 ?
Al3 Au1 Al3 70.5 2 27 ?
Al3 Au1 Al3 109.5 26 27 ?
Al3 Au1 Al3 180.00(19) 3 27 ?
Al3 Au1 Al3 70.5 25 4 ?
Al3 Au1 Al3 109.5 . 4 ?
Al3 Au1 Al3 180.00(12) 28 4 ?
Al3 Au1 Al3 109.5 2 4 ?
Al3 Au1 Al3 70.5 26 4 ?
Al3 Au1 Al3 109.5 3 4 ?
Al3 Au1 Al3 70.5 27 4 ?
Al3 Au2 Al3 71.78(13) 26 . ?
Al3 Au2 Al2 128.63(11) 26 27_565 ?
Al3 Au2 Al2 128.63(11) . 27_565 ?
Al3 Au2 Al2 128.63(11) 26 3_655 ?
Al3 Au2 Al2 128.63(11) . 3_655 ?
Al2 Au2 Al2 79.2(3) 27_565 3_655 ?
Al3 Au2 Al1 131.90(7) 26 5 ?
Al3 Au2 Al1 71.52(5) . 5 ?
Al2 Au2 Al1 61.05(5) 27_565 5 ?
Al2 Au2 Al1 98.64(8) 3_655 5 ?
Al3 Au2 Al1 131.90(7) 26 . ?
Al3 Au2 Al1 71.52(5) . . ?
Al2 Au2 Al1 98.64(8) 27_565 . ?
Al2 Au2 Al1 61.05(5) 3_655 . ?
Al1 Au2 Al1 59.68(7) 5 . ?
Al3 Au2 Al1 71.52(5) 26 6_565 ?
Al3 Au2 Al1 131.90(7) . 6_565 ?
Al2 Au2 Al1 61.05(5) 27_565 6_565 ?
Al2 Au2 Al1 98.64(8) 3_655 6_565 ?
Al1 Au2 Al1 114.27(6) 5 6_565 ?
Al1 Au2 Al1 154.99(6) . 6_565 ?
Al3 Au2 Al1 71.52(5) 26 26 ?
Al3 Au2 Al1 131.90(7) . 26 ?
Al2 Au2 Al1 98.64(8) 27_565 26 ?
Al2 Au2 Al1 61.05(5) 3_655 26 ?
Al1 Au2 Al1 154.99(6) 5 26 ?
Al1 Au2 Al1 114.27(6) . 26 ?
Al1 Au2 Al1 59.68(7) 6_565 26 ?
Al3 Au2 Au2 124.95(3) 26 3_655 ?
Al3 Au2 Au2 124.95(3) . 3_655 ?
Al2 Au2 Au2 84.59(14) 27_565 3_655 ?
Al2 Au2 Au2 5.41(14) 3_655 3_655 ?
Al1 Au2 Au2 101.46(4) 5 3_655 ?
Al1 Au2 Au2 59.67(2) . 3_655 ?
Al1 Au2 Au2 101.46(4) 6_565 3_655 ?
Al1 Au2 Au2 59.67(2) 26 3_655 ?
Al3 Au2 Au2 124.95(3) 26 27_565 ?
Al3 Au2 Au2 124.95(3) . 27_565 ?
Al2 Au2 Au2 5.41(14) 27_565 27_565 ?
Al2 Au2 Au2 84.59(14) 3_655 27_565 ?
Al1 Au2 Au2 59.67(2) 5 27_565 ?
Al1 Au2 Au2 101.46(4) . 27_565 ?
Al1 Au2 Au2 59.67(2) 6_565 27_565 ?
Al1 Au2 Au2 101.46(4) 26 27_565 ?
Au2 Au2 Au2 90.0 3_655 27_565 ?
Al3 Au2 Yb1 74.65(2) 26 . ?
Al3 Au2 Yb1 74.65(2) . . ?
Al2 Au2 Yb1 148.66(13) 27_565 . ?
Al2 Au2 Yb1 69.48(15) 3_655 . ?
Al1 Au2 Yb1 122.76(3) 5 . ?
Al1 Au2 Yb1 66.45(4) . . ?
Al1 Au2 Yb1 122.76(3) 6_565 . ?
Al1 Au2 Yb1 66.45(4) 26 . ?
Au2 Au2 Yb1 64.07(2) 3_655 . ?
Au2 Au2 Yb1 154.07(2) 27_565 . ?
Al3 Au2 Yb1 74.65(2) 26 5 ?
Al3 Au2 Yb1 74.65(2) . 5 ?
Al2 Au2 Yb1 69.48(16) 27_565 5 ?
Al2 Au2 Yb1 148.66(13) 3_655 5 ?
Al1 Au2 Yb1 66.45(4) 5 5 ?
Al1 Au2 Yb1 122.76(3) . 5 ?
Al1 Au2 Yb1 66.45(4) 6_565 5 ?
Al1 Au2 Yb1 122.76(3) 26 5 ?
Au2 Au2 Yb1 154.07(2) 3_655 5 ?
Au2 Au2 Yb1 64.07(2) 27_565 5 ?
Yb1 Au2 Yb1 141.86(4) . 5 ?
Al2 Al2 Al2 90.0 27_565 3_655 ?
Al2 Al2 Au2 5.41(14) 27_565 27_565 ?
Al2 Al2 Au2 95.41(14) 3_655 27_565 ?
Al2 Al2 Au2 95.41(14) 27_565 3_655 ?
Al2 Al2 Au2 5.41(14) 3_655 3_655 ?
Au2 Al2 Au2 100.8(3) 27_565 3_655 ?
Al2 Al2 Al1 64.80(14) 27_565 5 ?
Al2 Al2 Al1 106.96(15) 3_655 5 ?
Au2 Al2 Al1 63.16(9) 27_565 5 ?
Au2 Al2 Al1 109.3(2) 3_655 5 ?
Al2 Al2 Al1 106.96(15) 27_565 . ?
Al2 Al2 Al1 64.80(14) 3_655 . ?
Au2 Al2 Al1 109.3(2) 27_565 . ?
Au2 Al2 Al1 63.16(9) 3_655 . ?
Al1 Al2 Al1 60.98(8) 5 . ?
Al2 Al2 Al1 64.80(14) 27_565 6_565 ?
Al2 Al2 Al1 106.96(15) 3_655 6_565 ?
Au2 Al2 Al1 63.16(9) 27_565 6_565 ?
Au2 Al2 Al1 109.3(2) 3_655 6_565 ?
Al1 Al2 Al1 117.85(9) 5 6_565 ?
Al1 Al2 Al1 169.1(4) . 6_565 ?
Al2 Al2 Al1 106.96(15) 27_565 26 ?
Al2 Al2 Al1 64.80(14) 3_655 26 ?
Au2 Al2 Al1 109.3(2) 27_565 26 ?
Au2 Al2 Al1 63.16(9) 3_655 26 ?
Al1 Al2 Al1 169.1(4) 5 26 ?
Al1 Al2 Al1 117.85(9) . 26 ?
Al1 Al2 Al1 60.98(8) 6_565 26 ?
Al2 Al2 Al3 126.97(5) 27_565 26 ?
Al2 Al2 Al3 126.97(5) 3_655 26 ?
Au2 Al2 Al3 122.82(8) 27_565 26 ?
Au2 Al2 Al3 122.82(8) 3_655 26 ?
Al1 Al2 Al3 122.1(3) 5 26 ?
Al1 Al2 Al3 122.1(3) . 26 ?
Al1 Al2 Al3 68.29(11) 6_565 26 ?
Al1 Al2 Al3 68.29(11) 26 26 ?
Al2 Al2 Al3 126.97(5) 27_565 . ?
Al2 Al2 Al3 126.97(5) 3_655 . ?
Au2 Al2 Al3 122.82(8) 27_565 . ?
Au2 Al2 Al3 122.82(8) 3_655 . ?
Al1 Al2 Al3 68.29(11) 5 . ?
Al1 Al2 Al3 68.29(11) . . ?
Al1 Al2 Al3 122.1(3) 6_565 . ?
Al1 Al2 Al3 122.1(3) 26 . ?
Al3 Al2 Al3 63.5(2) 26 . ?
Al2 Al2 Yb1 69.65(14) 27_565 5 ?
Al2 Al2 Yb1 159.65(14) 3_655 5 ?
Au2 Al2 Yb1 64.242(14) 27_565 5 ?
Au2 Al2 Yb1 165.1(3) 3_655 5 ?
Al1 Al2 Yb1 65.06(6) 5 5 ?
Al1 Al2 Yb1 120.05(10) . 5 ?
Al1 Al2 Yb1 65.06(6) 6_565 5 ?
Al1 Al2 Yb1 120.05(10) 26 5 ?
Al3 Al2 Yb1 69.22(14) 26 5 ?
Al3 Al2 Yb1 69.22(14) . 5 ?
Al2 Al2 Yb1 159.65(14) 27_565 . ?
Al2 Al2 Yb1 69.65(14) 3_655 . ?
Au2 Al2 Yb1 165.1(3) 27_565 . ?
Au2 Al2 Yb1 64.242(14) 3_655 . ?
Al1 Al2 Yb1 120.05(10) 5 . ?
Al1 Al2 Yb1 65.06(6) . . ?
Al1 Al2 Yb1 120.05(10) 6_565 . ?
Al1 Al2 Yb1 65.06(6) 26 . ?
Al3 Al2 Yb1 69.22(14) 26 . ?
Al3 Al2 Yb1 69.22(14) . . ?
Yb1 Al2 Yb1 130.7(3) 5 . ?
Au2 Yb1 Au2 180.000(14) 35_655 11 ?
Au2 Yb1 Au2 101.022(17) 35_655 27 ?
Au2 Yb1 Au2 78.978(17) 11 27 ?
Au2 Yb1 Au2 78.978(17) 35_655 3_655 ?
Au2 Yb1 Au2 101.022(17) 11 3_655 ?
Au2 Yb1 Au2 180.000(14) 27 3_655 ?
Au2 Yb1 Au2 101.022(17) 35_655 . ?
Au2 Yb1 Au2 78.978(17) 11 . ?
Au2 Yb1 Au2 128.14(4) 27 . ?
Au2 Yb1 Au2 51.86(4) 3_655 . ?
Au2 Yb1 Au2 78.978(17) 35_655 25_655 ?
Au2 Yb1 Au2 101.022(17) 11 25_655 ?
Au2 Yb1 Au2 51.86(4) 27 25_655 ?
Au2 Yb1 Au2 128.14(4) 3_655 25_655 ?
Au2 Yb1 Au2 180.00(3) . 25_655 ?
Au2 Yb1 Au2 128.14(4) 35_655 33_655 ?
Au2 Yb1 Au2 51.86(4) 11 33_655 ?
Au2 Yb1 Au2 101.022(17) 27 33_655 ?
Au2 Yb1 Au2 78.978(17) 3_655 33_655 ?
Au2 Yb1 Au2 101.022(17) . 33_655 ?
Au2 Yb1 Au2 78.978(17) 25_655 33_655 ?
Au2 Yb1 Au2 51.86(4) 35_655 9 ?
Au2 Yb1 Au2 128.14(4) 11 9 ?
Au2 Yb1 Au2 78.978(17) 27 9 ?
Au2 Yb1 Au2 101.022(17) 3_655 9 ?
Au2 Yb1 Au2 78.978(17) . 9 ?
Au2 Yb1 Au2 101.022(17) 25_655 9 ?
Au2 Yb1 Au2 180.00(3) 33_655 9 ?
Au2 Yb1 Al1 50.511(8) 35_655 . ?
Au2 Yb1 Al1 129.489(8) 11 . ?
Au2 Yb1 Al1 129.489(8) 27 . ?
Au2 Yb1 Al1 50.511(8) 3_655 . ?
Au2 Yb1 Al1 50.511(8) . . ?
Au2 Yb1 Al1 129.489(8) 25_655 . ?
Au2 Yb1 Al1 129.489(8) 33_655 . ?
Au2 Yb1 Al1 50.511(8) 9 . ?
Au2 Yb1 Al1 129.489(8) 35_655 25_655 ?
Au2 Yb1 Al1 50.511(8) 11 25_655 ?
Au2 Yb1 Al1 50.511(8) 27 25_655 ?
Au2 Yb1 Al1 129.489(8) 3_655 25_655 ?
Au2 Yb1 Al1 129.489(8) . 25_655 ?
Au2 Yb1 Al1 50.511(8) 25_655 25_655 ?
Au2 Yb1 Al1 50.511(8) 33_655 25_655 ?
Au2 Yb1 Al1 129.489(8) 9 25_655 ?
Al1 Yb1 Al1 180.00(4) . 25_655 ?
Au2 Yb1 Al1 129.489(8) 35_655 26 ?
Au2 Yb1 Al1 50.511(8) 11 26 ?
Au2 Yb1 Al1 129.489(8) 27 26 ?
Au2 Yb1 Al1 50.511(8) 3_655 26 ?
Au2 Yb1 Al1 50.511(8) . 26 ?
Au2 Yb1 Al1 129.489(8) 25_655 26 ?
Au2 Yb1 Al1 50.511(8) 33_655 26 ?
Au2 Yb1 Al1 129.489(8) 9 26 ?
Al1 Yb1 Al1 90.0 . 26 ?
Al1 Yb1 Al1 90.0 25_655 26 ?
Au2 Yb1 Al1 50.511(8) 35_655 2_655 ?
Au2 Yb1 Al1 129.489(8) 11 2_655 ?
Au2 Yb1 Al1 50.511(8) 27 2_655 ?
Au2 Yb1 Al1 129.489(8) 3_655 2_655 ?
Au2 Yb1 Al1 129.489(8) . 2_655 ?
Au2 Yb1 Al1 50.511(8) 25_655 2_655 ?
Au2 Yb1 Al1 129.489(8) 33_655 2_655 ?
Au2 Yb1 Al1 50.511(8) 9 2_655 ?
Al1 Yb1 Al1 90.0 . 2_655 ?
Al1 Yb1 Al1 90.0 25_655 2_655 ?
Al1 Yb1 Al1 180.0 26 2_655 ?
Al2 Al1 Al2 108.6(4) 9 . ?
Al2 Al1 Al2 50.4(3) 9 35_655 ?
Al2 Al1 Al2 132.9(2) . 35_655 ?
Al2 Al1 Al2 132.9(2) 9 3_655 ?
Al2 Al1 Al2 50.4(3) . 3_655 ?
Al2 Al1 Al2 108.6(4) 35_655 3_655 ?
Al2 Al1 Al1 95.44(19) 9 10_656 ?
Al2 Al1 Al1 155.06(18) . 10_656 ?
Al2 Al1 Al1 59.51(4) 35_655 10_656 ?
Al2 Al1 Al1 107.73(11) 3_655 10_656 ?
Al2 Al1 Al1 155.06(18) 9 30_655 ?
Al2 Al1 Al1 95.44(19) . 30_655 ?
Al2 Al1 Al1 107.73(11) 35_655 30_655 ?
Al2 Al1 Al1 59.51(4) 3_655 30_655 ?
Al1 Al1 Al1 60.0 10_656 30_655 ?
Al2 Al1 V1 113.54(10) 9 . ?
Al2 Al1 V1 113.54(10) . . ?
Al2 Al1 V1 113.54(10) 35_655 . ?
Al2 Al1 V1 113.54(10) 3_655 . ?
Al1 Al1 V1 60.0 10_656 . ?
Al1 Al1 V1 60.0 30_655 . ?
Al2 Al1 Al1 59.51(4) 9 9 ?
Al2 Al1 Al1 107.73(11) . 9 ?
Al2 Al1 Al1 95.44(19) 35_655 9 ?
Al2 Al1 Al1 155.06(18) 3_655 9 ?
Al1 Al1 Al1 90.0 10_656 9 ?
Al1 Al1 Al1 120.0 30_655 9 ?
V1 Al1 Al1 60.0 . 9 ?
Al2 Al1 Al1 107.73(11) 9 5 ?
Al2 Al1 Al1 59.51(4) . 5 ?
Al2 Al1 Al1 155.06(18) 35_655 5 ?
Al2 Al1 Al1 95.44(19) 3_655 5 ?
Al1 Al1 Al1 120.0 10_656 5 ?
Al1 Al1 Al1 90.0 30_655 5 ?
V1 Al1 Al1 60.0 . 5 ?
Al1 Al1 Al1 60.0 9 5 ?
Al2 Al1 Au2 7.07(17) 9 9 ?
Al2 Al1 Au2 101.6(2) . 9 ?
Al2 Al1 Au2 55.78(14) 35_655 9 ?
Al2 Al1 Au2 129.07(11) 3_655 9 ?
Al1 Al1 Au2 102.51(3) 10_656 9 ?
Al1 Al1 Au2 161.99(3) 30_655 9 ?
V1 Al1 Au2 116.96(4) . 9 ?
Al1 Al1 Au2 60.16(4) 9 9 ?
Al1 Al1 Au2 103.70(2) 5 9 ?
Al2 Al1 Au2 101.6(2) 9 . ?
Al2 Al1 Au2 7.07(17) . . ?
Al2 Al1 Au2 129.07(11) 35_655 . ?
Al2 Al1 Au2 55.78(14) 3_655 . ?
Al1 Al1 Au2 161.99(3) 10_656 . ?
Al1 Al1 Au2 102.51(3) 30_655 . ?
V1 Al1 Au2 116.96(4) . . ?
Al1 Al1 Au2 103.70(2) 9 . ?
Al1 Al1 Au2 60.16(4) 5 . ?
Au2 Al1 Au2 94.52(6) 9 . ?
Al2 Al1 Au2 129.07(11) 9 3_655 ?
Al2 Al1 Au2 55.78(14) . 3_655 ?
Al2 Al1 Au2 101.6(2) 35_655 3_655 ?
Al2 Al1 Au2 7.07(17) 3_655 3_655 ?
Al1 Al1 Au2 103.70(2) 10_656 3_655 ?
Al1 Al1 Au2 60.16(4) 30_655 3_655 ?
V1 Al1 Au2 116.96(4) . 3_655 ?
Al1 Al1 Au2 161.99(3) 9 3_655 ?
Al1 Al1 Au2 102.51(3) 5 3_655 ?
Au2 Al1 Au2 126.08(8) 9 3_655 ?
Au2 Al1 Au2 60.66(4) . 3_655 ?
Al1 V1 Al1 60.0 33_666 29_666 ?
Al1 V1 Al1 60.0 33_666 25_666 ?
Al1 V1 Al1 60.0 29_666 25_666 ?
Al1 V1 Al1 120.0 33_666 . ?
Al1 V1 Al1 120.0 29_666 . ?
Al1 V1 Al1 180.0 25_666 . ?
Al1 V1 Al1 180.0 33_666 9 ?
Al1 V1 Al1 120.0 29_666 9 ?
Al1 V1 Al1 120.0 25_666 9 ?
Al1 V1 Al1 60.0 . 9 ?
Al1 V1 Al1 120.0 33_666 5 ?
Al1 V1 Al1 180.0 29_666 5 ?
Al1 V1 Al1 120.0 25_666 5 ?
Al1 V1 Al1 60.0 . 5 ?
Al1 V1 Al1 60.0 9 5 ?
Al1 V1 Al1 90.0 33_666 34_565 ?
Al1 V1 Al1 120.0 29_666 34_565 ?
Al1 V1 Al1 60.0 25_666 34_565 ?
Al1 V1 Al1 120.0 . 34_565 ?
Al1 V1 Al1 90.0 9 34_565 ?
Al1 V1 Al1 60.0 5 34_565 ?
Al1 V1 Al1 120.0 33_666 6_566 ?
Al1 V1 Al1 90.0 29_666 6_566 ?
Al1 V1 Al1 60.0 25_666 6_566 ?
Al1 V1 Al1 120.0 . 6_566 ?
Al1 V1 Al1 60.0 9 6_566 ?
Al1 V1 Al1 90.0 5 6_566 ?
Al1 V1 Al1 60.0 34_565 6_566 ?
Al1 V1 Al1 60.0 33_666 30_655 ?
Al1 V1 Al1 90.0 29_666 30_655 ?
Al1 V1 Al1 120.0 25_666 30_655 ?
Al1 V1 Al1 60.0 . 30_655 ?
Al1 V1 Al1 120.0 9 30_655 ?
Al1 V1 Al1 90.0 5 30_655 ?
Al1 V1 Al1 120.0 34_565 30_655 ?
Al1 V1 Al1 180.0 6_566 30_655 ?
Al1 V1 Al1 60.0 33_666 2_665 ?
Al1 V1 Al1 120.0 29_666 2_665 ?
Al1 V1 Al1 90.0 25_666 2_665 ?
Al1 V1 Al1 90.0 . 2_665 ?
Al1 V1 Al1 120.0 9 2_665 ?
Al1 V1 Al1 60.0 5 2_665 ?
Al1 V1 Al1 60.0 34_565 2_665 ?
Al1 V1 Al1 120.0 6_566 2_665 ?
Al1 V1 Al1 60.0 30_655 2_665 ?
Al1 V1 Al1 120.0 33_666 26_556 ?
Al1 V1 Al1 60.0 29_666 26_556 ?
Al1 V1 Al1 90.0 25_666 26_556 ?
Al1 V1 Al1 90.0 . 26_556 ?
Al1 V1 Al1 60.0 9 26_556 ?
Al1 V1 Al1 120.0 5 26_556 ?
Al1 V1 Al1 120.0 34_565 26_556 ?
Al1 V1 Al1 60.0 6_566 26_556 ?
Al1 V1 Al1 120.0 30_655 26_556 ?
Al1 V1 Al1 180.00(4) 2_665 26_556 ?
Al1 V1 Al1 90.0 33_666 10_656 ?
Al1 V1 Al1 60.0 29_666 10_656 ?
Al1 V1 Al1 120.0 25_666 10_656 ?
Al1 V1 Al1 60.0 . 10_656 ?
Al1 V1 Al1 90.0 9 10_656 ?
Al1 V1 Al1 120.0 5 10_656 ?
Al1 V1 Al1 180.0 34_565 10_656 ?
Al1 V1 Al1 120.0 6_566 10_656 ?
Al1 V1 Al1 60.0 30_655 10_656 ?
Al1 V1 Al1 120.0 2_665 10_656 ?
Al1 V1 Al1 60.0 26_556 10_656 ?
Au2 Al3 Au2 110.09(7) . 9 ?
Au2 Al3 Au2 110.09(7) . 5 ?
Au2 Al3 Au2 110.09(7) 9 5 ?
Au2 Al3 Au1 108.84(7) . . ?
Au2 Al3 Au1 108.84(7) 9 . ?
Au2 Al3 Au1 108.84(7) 5 . ?
Au2 Al3 Al2 108.02(9) . 9 ?
Au2 Al3 Al2 4.16(9) 9 9 ?
Au2 Al3 Al2 108.02(9) 5 9 ?
Au1 Al3 Al2 113.00(11) . 9 ?
Au2 Al3 Al2 108.02(9) . 5 ?
Au2 Al3 Al2 108.02(9) 9 5 ?
Au2 Al3 Al2 4.16(9) 5 5 ?
Au1 Al3 Al2 113.00(11) . 5 ?
Al2 Al3 Al2 105.72(13) 9 5 ?
Au2 Al3 Al2 4.16(9) . . ?
Au2 Al3 Al2 108.02(9) 9 . ?
Au2 Al3 Al2 108.02(9) 5 . ?
Au1 Al3 Al2 113.00(11) . . ?
Al2 Al3 Al2 105.72(13) 9 . ?
Al2 Al3 Al2 105.72(13) 5 . ?
Au2 Al3 Al3 124.95(3) . 28 ?
Au2 Al3 Al3 124.95(3) 9 28 ?
Au2 Al3 Al3 54.11(7) 5 28 ?
Au1 Al3 Al3 54.7 . 28 ?
Al2 Al3 Al3 126.97(5) 9 28 ?
Al2 Al3 Al3 58.27(11) 5 28 ?
Al2 Al3 Al3 126.97(5) . 28 ?
Au2 Al3 Al3 124.95(3) . 27 ?
Au2 Al3 Al3 54.11(7) 9 27 ?
Au2 Al3 Al3 124.95(3) 5 27 ?
Au1 Al3 Al3 54.7 . 27 ?
Al2 Al3 Al3 58.27(11) 9 27 ?
Al2 Al3 Al3 126.97(5) 5 27 ?
Al2 Al3 Al3 126.97(5) . 27 ?
Al3 Al3 Al3 90.0 28 27 ?
Au2 Al3 Al3 54.11(7) . 26 ?
Au2 Al3 Al3 124.95(3) 9 26 ?
Au2 Al3 Al3 124.95(3) 5 26 ?
Au1 Al3 Al3 54.7 . 26 ?
Al2 Al3 Al3 126.97(5) 9 26 ?
Al2 Al3 Al3 126.97(5) 5 26 ?
Al2 Al3 Al3 58.27(11) . 26 ?
Al3 Al3 Al3 90.0 28 26 ?
Al3 Al3 Al3 90.0 27 26 ?
Au2 Al3 Yb1 62.072(6) . . ?
Au2 Al3 Yb1 62.072(6) 9 . ?
Au2 Al3 Yb1 162.01(11) 5 . ?
Au1 Al3 Yb1 89.15(5) . . ?
Al2 Al3 Yb1 62.97(2) 9 . ?
Al2 Al3 Yb1 157.85(15) 5 . ?
Al2 Al3 Yb1 62.97(2) . . ?
Al3 Al3 Yb1 143.89(5) 28 . ?
Al3 Al3 Yb1 65.37(3) 27 . ?
Al3 Al3 Yb1 65.37(3) 26 . ?
Au2 Al3 Yb1 162.01(11) . 9 ?
Au2 Al3 Yb1 62.072(6) 9 9 ?
Au2 Al3 Yb1 62.072(6) 5 9 ?
Au1 Al3 Yb1 89.15(5) . 9 ?
Al2 Al3 Yb1 62.97(2) 9 9 ?
Al2 Al3 Yb1 62.97(2) 5 9 ?
Al2 Al3 Yb1 157.85(14) . 9 ?
Al3 Al3 Yb1 65.37(3) 28 9 ?
Al3 Al3 Yb1 65.37(3) 27 9 ?
Al3 Al3 Yb1 143.89(5) 26 9 ?
Yb1 Al3 Yb1 119.978(2) . 9 ?
loop_
_geom_bond_atom_site_label_1
_geom_bond_atom_site_label_2
_geom_bond_distance
_geom_bond_site_symmetry_2
_geom_bond_publ_flag
Au1 Al3 2.539(3) 25 ?
Au1 Al3 2.539(3) . ?
Au1 Al3 2.539(3) 28 ?
Au1 Al3 2.539(3) 2 ?
Au1 Al3 2.539(3) 26 ?
Au1 Al3 2.539(3) 3 ?
Au1 Al3 2.539(3) 27 ?
Au1 Al3 2.539(3) 4 ?
Au2 Al3 2.5004(14) 26 ?
Au2 Al3 2.5004(14) . ?
Au2 Al2 2.586(6) 27_565 ?
Au2 Al2 2.586(6) 3_655 ?
Au2 Al1 2.7903(10) 5 ?
Au2 Al1 2.7903(10) . ?
Au2 Al1 2.7903(10) 6_565 ?
Au2 Al1 2.7903(10) 26 ?
Au2 Au2 2.8181(18) 3_655 ?
Au2 Au2 2.8181(18) 27_565 ?
Au2 Yb1 3.2226(6) . ?
Au2 Yb1 3.2226(6) 5 ?
Al2 Al2 2.330(13) 27_565 ?
Al2 Al2 2.330(13) 3_655 ?
Al2 Au2 2.586(6) 27_565 ?
Al2 Au2 2.586(6) 3_655 ?
Al2 Al1 2.7364(12) 5 ?
Al2 Al1 2.7364(12) . ?
Al2 Al1 2.7364(12) 6_565 ?
Al2 Al1 2.7364(12) 26 ?
Al2 Al3 2.787(8) 26 ?
Al2 Al3 2.787(8) . ?
Al2 Yb1 3.351(4) 5 ?
Al2 Yb1 3.351(4) . ?
Yb1 Au2 3.2226(6) 35_655 ?
Yb1 Au2 3.2226(5) 11 ?
Yb1 Au2 3.2226(5) 27 ?
Yb1 Au2 3.2226(6) 3_655 ?
Yb1 Au2 3.2226(6) 25_655 ?
Yb1 Au2 3.2226(6) 33_655 ?
Yb1 Au2 3.2226(5) 9 ?
Yb1 Al1 3.314(2) . ?
Yb1 Al1 3.314(2) 25_655 ?
Yb1 Al1 3.314(2) 26 ?
Yb1 Al1 3.314(2) 2_655 ?
Al1 Al2 2.7364(12) 9 ?
Al1 Al2 2.7364(12) 35_655 ?
Al1 Al2 2.7364(12) 3_655 ?
Al1 Al1 2.777(2) 10_656 ?
Al1 Al1 2.777(2) 30_655 ?
Al1 V1 2.777(2) . ?
Al1 Al1 2.777(2) 9 ?
Al1 Al1 2.777(2) 5 ?
Al1 Au2 2.7903(10) 9 ?
Al1 Au2 2.7903(10) 3_655 ?
V1 Al1 2.777(2) 33_666 ?
V1 Al1 2.777(2) 29_666 ?
V1 Al1 2.777(2) 25_666 ?
V1 Al1 2.777(2) 9 ?
V1 Al1 2.777(2) 5 ?
V1 Al1 2.777(2) 34_565 ?
V1 Al1 2.777(2) 6_566 ?
V1 Al1 2.777(2) 30_655 ?
V1 Al1 2.777(2) 2_665 ?
V1 Al1 2.777(2) 26_556 ?
V1 Al1 2.777(2) 10_656 ?
Al3 Au2 2.5004(14) 9 ?
Al3 Au2 2.5004(14) 5 ?
Al3 Al2 2.787(8) 9 ?
Al3 Al2 2.787(8) 5 ?
Al3 Al3 2.932(3) 28 ?
Al3 Al3 2.932(3) 27 ?
Al3 Al3 2.932(3) 26 ?
Al3 Yb1 3.5172(4) 9 ?
