#------------------------------------------------------------------------------
#$Date: 2016-03-22 23:18:03 +0200 (Tue, 22 Mar 2016) $
#$Revision: 179054 $
#$URL: svn://www.crystallography.net/cod/cif/4/30/16/4301695.cif $
#------------------------------------------------------------------------------
#
# This file is available in the Crystallography Open Database (COD),
# http://www.crystallography.net/
#
# All data on this site have been placed in the public domain by the
# contributors.
#
data_4301695
loop_
_publ_author_name
'Xiao-Wu Lei'
'Guo-Hua Zhong'
'Long-Hua Li'
'Chun-Li Hu'
'Min-Jie Li'
'Jiang-Gao Mao'
_publ_section_title
;
Eu3Co2In15 and KM2In9 (M = Co, Ni): 3D Frameworks Based on Transition Metal
Centered In9 Clusters
;
_journal_name_full               'Inorganic Chemistry'
_journal_page_first              2526
_journal_page_last               2533
_journal_paper_doi               10.1021/ic8019765
_journal_volume                  48
_journal_year                    2009
_chemical_formula_sum            'In9 K Ni2'
_chemical_formula_weight         1189.90
_chemical_name_systematic
; 
 ? 
;
_space_group_IT_number           191
_symmetry_cell_setting           hexagonal
_symmetry_space_group_name_Hall  '-P 6 2'
_symmetry_space_group_name_H-M   'P 6/m m m'
_atom_sites_solution_primary     direct
_atom_sites_solution_secondary   difmap
_audit_creation_method           SHELXL-97
_cell_angle_alpha                90.00
_cell_angle_beta                 90.00
_cell_angle_gamma                120.00
_cell_formula_units_Z            1
_cell_length_a                   8.7915(7)
_cell_length_b                   8.7915(7)
_cell_length_c                   4.2380(5)
_cell_measurement_temperature    293(2)
_cell_volume                     283.67(5)
_computing_cell_refinement       'CrystalClear (Rigaku Corp., 2000)'
_computing_data_collection       'CrystalClear (Rigaku Corp., 2000)'
_computing_data_reduction        'CrystalClear (Rigaku Corp., 2000)'
_computing_structure_refinement  'SHELXL-97 (Sheldrick, 1997)'
_computing_structure_solution    'SHELXS-97 (Sheldrick, 1990)'
_diffrn_ambient_temperature      293(2)
_diffrn_detector_area_resol_mean 28.5714
_diffrn_measured_fraction_theta_full 0.982
_diffrn_measured_fraction_theta_max 0.982
_diffrn_measurement_device_type  'Mercury70 (2x2 bin mode)'
_diffrn_measurement_method       CCD_Profile_fitting
_diffrn_radiation_monochromator  graphite
_diffrn_radiation_source         'fine-focus sealed tube'
_diffrn_radiation_type           MoK\a
_diffrn_radiation_wavelength     0.71073
_diffrn_reflns_av_R_equivalents  0.0261
_diffrn_reflns_av_sigmaI/netI    0.0120
_diffrn_reflns_limit_h_max       11
_diffrn_reflns_limit_h_min       -11
_diffrn_reflns_limit_k_max       11
_diffrn_reflns_limit_k_min       -11
_diffrn_reflns_limit_l_max       5
_diffrn_reflns_limit_l_min       -5
_diffrn_reflns_number            2092
_diffrn_reflns_theta_full        27.37
_diffrn_reflns_theta_max         27.37
_diffrn_reflns_theta_min         2.68
_diffrn_standards_decay_%        <1.0%
_exptl_absorpt_coefficient_mu    21.454
_exptl_absorpt_correction_T_max  1.0000
_exptl_absorpt_correction_T_min  0.6784
_exptl_absorpt_correction_type   multi-scan
_exptl_crystal_colour            'silver gray'
_exptl_crystal_density_diffrn    6.965
_exptl_crystal_density_method    'not measured'
_exptl_crystal_description       Prism
_exptl_crystal_F_000             516
_exptl_crystal_size_max          0.1200
_exptl_crystal_size_mid          0.0400
_exptl_crystal_size_min          0.0400
_refine_diff_density_max         0.519
_refine_diff_density_min         -0.978
_refine_diff_density_rms         0.153
_refine_ls_extinction_coef       0.0095(6)
_refine_ls_extinction_expression Fc^*^=kFc[1+0.001xFc^2^\l^3^/sin(2\q)]^-1/4^
_refine_ls_extinction_method     SHELXL
_refine_ls_goodness_of_fit_ref   1.259
_refine_ls_hydrogen_treatment    none
_refine_ls_matrix_type           full
_refine_ls_number_parameters     13
_refine_ls_number_reflns         161
_refine_ls_number_restraints     0
_refine_ls_restrained_S_all      1.259
_refine_ls_R_factor_all          0.0118
_refine_ls_R_factor_gt           0.0118
_refine_ls_shift/su_max          0.000
_refine_ls_shift/su_mean         0.000
_refine_ls_structure_factor_coef Fsqd
_refine_ls_weighting_details
'calc w=1/[\s^2^(Fo^2^)+(0.0104P)^2^+0.8099P] where P=(Fo^2^+2Fc^2^)/3'
_refine_ls_weighting_scheme      calc
_refine_ls_wR_factor_gt          0.0285
_refine_ls_wR_factor_ref         0.0285
_reflns_number_gt                163
_reflns_number_total             164
_reflns_threshold_expression     >2sigma(I)
_cod_data_source_file            ic8019765_si_001_3.cif
_cod_data_source_block           KNi2In9
_cod_depositor_comments
;
The following automatic conversions were performed:
'_exptl_absorpt_correction_type' value 'Multi-scan' changed to
'multi-scan' according to
'/home/saulius/struct/CIF-dictionaries/cif_core.dic' dictionary named
'cif_core.dic' version 2.4.1 from 2010-06-29.

Automatic conversion script
Id: cif_fix_enum 1527 2010-12-29 10:47:43Z saulius 
;
_cod_database_code               4301695
loop_
_symmetry_equiv_pos_as_xyz
'x, y, z'
'-y, x-y, z'
'-x+y, -x, z'
'-x, -y, z'
'y, -x+y, z'
'x-y, x, z'
'y, x, -z'
'x-y, -y, -z'
'-x, -x+y, -z'
'-y, -x, -z'
'-x+y, y, -z'
'x, x-y, -z'
'-x, -y, -z'
'y, -x+y, -z'
'x-y, x, -z'
'x, y, -z'
'-y, x-y, -z'
'-x+y, -x, -z'
'-y, -x, z'
'-x+y, y, z'
'x, x-y, z'
'y, x, z'
'x-y, -y, z'
'-x, -x+y, z'
loop_
_atom_site_label
_atom_site_type_symbol
_atom_site_fract_x
_atom_site_fract_y
_atom_site_fract_z
_atom_site_U_iso_or_equiv
_atom_site_adp_type
_atom_site_occupancy
_atom_site_symmetry_multiplicity
_atom_site_calc_flag
_atom_site_refinement_flags
_atom_site_disorder_assembly
_atom_site_disorder_group
K1 K 0.0000 0.0000 0.0000 0.0249(8) Uani 1 24 d S . .
Ni1 Ni 0.3333 0.6667 0.0000 0.0108(3) Uani 1 12 d S . .
In1 In 0.20837(3) 0.41674(5) 0.5000 0.01170(17) Uani 1 4 d S . .
In2 In 0.0000 0.5000 0.0000 0.01381(19) Uani 1 8 d S . .
loop_
_atom_site_aniso_label
_atom_site_aniso_U_11
_atom_site_aniso_U_22
_atom_site_aniso_U_33
_atom_site_aniso_U_23
_atom_site_aniso_U_13
_atom_site_aniso_U_12
K1 0.0272(11) 0.0272(11) 0.0204(18) 0.000 0.000 0.0136(6)
Ni1 0.0094(4) 0.0094(4) 0.0138(6) 0.000 0.000 0.00468(18)
In1 0.0108(2) 0.0124(2) 0.0124(3) 0.000 0.000 0.00619(12)
In2 0.0062(3) 0.0194(3) 0.0115(3) 0.000 0.000 0.00309(14)
loop_
_atom_type_symbol
_atom_type_description
_atom_type_scat_dispersion_real
_atom_type_scat_dispersion_imag
_atom_type_scat_source
K K 0.2009 0.2494 'International Tables Vol C Tables 4.2.6.8 and 6.1.1.4'
Ni Ni 0.3393 1.1124 'International Tables Vol C Tables 4.2.6.8 and 6.1.1.4'
In In -0.7276 1.3100 'International Tables Vol C Tables 4.2.6.8 and 6.1.1.4'
loop_
_geom_angle_atom_site_label_1
_geom_angle_atom_site_label_2
_geom_angle_atom_site_label_3
_geom_angle
_geom_angle_site_symmetry_1
_geom_angle_site_symmetry_3
_geom_angle_publ_flag
In1 K1 In1 49.140(3) 14_556 . ?
In1 K1 In1 180.000(7) 14_556 2_554 ?
In1 K1 In1 130.860(3) . 2_554 ?
In1 K1 In1 130.860(3) 14_556 13 ?
In1 K1 In1 180.000(10) . 13 ?
In1 K1 In1 49.140(3) 2_554 13 ?
In1 K1 In1 49.140(3) 14_556 3 ?
In1 K1 In1 92.140(7) . 3 ?
In1 K1 In1 130.860(3) 2_554 3 ?
In1 K1 In1 87.860(7) 13 3 ?
In1 K1 In1 87.860(7) 14_556 3_554 ?
In1 K1 In1 130.860(3) . 3_554 ?
In1 K1 In1 92.140(7) 2_554 3_554 ?
In1 K1 In1 49.140(3) 13 3_554 ?
In1 K1 In1 67.473(10) 3 3_554 ?
In1 K1 In1 87.860(7) 14_556 1_554 ?
In1 K1 In1 67.473(10) . 1_554 ?
In1 K1 In1 92.140(7) 2_554 1_554 ?
In1 K1 In1 112.528(10) 13 1_554 ?
In1 K1 In1 130.860(3) 3 1_554 ?
In1 K1 In1 92.140(7) 3_554 1_554 ?
In1 K1 In1 67.473(10) 14_556 14 ?
In1 K1 In1 87.860(7) . 14 ?
In1 K1 In1 112.528(10) 2_554 14 ?
In1 K1 In1 92.140(7) 13 14 ?
In1 K1 In1 87.860(7) 3 14 ?
In1 K1 In1 49.140(3) 3_554 14 ?
In1 K1 In1 49.140(3) 1_554 14 ?
In1 K1 In1 92.140(7) 14_556 15_556 ?
In1 K1 In1 49.140(3) . 15_556 ?
In1 K1 In1 87.860(7) 2_554 15_556 ?
In1 K1 In1 130.860(3) 13 15_556 ?
In1 K1 In1 112.527(10) 3 15_556 ?
In1 K1 In1 180.000(5) 3_554 15_556 ?
In1 K1 In1 87.860(7) 1_554 15_556 ?
In1 K1 In1 130.860(3) 14 15_556 ?
In1 K1 In1 130.860(3) 14_556 15 ?
In1 K1 In1 87.860(7) . 15 ?
In1 K1 In1 49.140(3) 2_554 15 ?
In1 K1 In1 92.140(7) 13 15 ?
In1 K1 In1 180.000(5) 3 15 ?
In1 K1 In1 112.527(10) 3_554 15 ?
In1 K1 In1 49.140(3) 1_554 15 ?
In1 K1 In1 92.140(7) 14 15 ?
In1 K1 In1 67.472(10) 15_556 15 ?
In1 K1 In1 112.528(10) 14_556 2 ?
In1 K1 In1 92.140(7) . 2 ?
In1 K1 In1 67.472(10) 2_554 2 ?
In1 K1 In1 87.860(7) 13 2 ?
In1 K1 In1 92.140(7) 3 2 ?
In1 K1 In1 130.860(3) 3_554 2 ?
In1 K1 In1 130.860(3) 1_554 2 ?
In1 K1 In1 180.0 14 2 ?
In1 K1 In1 49.140(3) 15_556 2 ?
In1 K1 In1 87.860(7) 15 2 ?
In1 K1 In1 92.140(7) 14_556 13_556 ?
In1 K1 In1 112.528(10) . 13_556 ?
In1 K1 In1 87.860(7) 2_554 13_556 ?
In1 K1 In1 67.472(10) 13 13_556 ?
In1 K1 In1 49.140(3) 3 13_556 ?
In1 K1 In1 87.860(7) 3_554 13_556 ?
In1 K1 In1 180.000(10) 1_554 13_556 ?
In1 K1 In1 130.860(3) 14 13_556 ?
In1 K1 In1 92.140(7) 15_556 13_556 ?
In1 K1 In1 130.860(3) 15 13_556 ?
In1 K1 In1 49.140(3) 2 13_556 ?
In2 Ni1 In2 120.0 3_565 . ?
In2 Ni1 In2 120.0 3_565 2_665 ?
In2 Ni1 In2 120.0 . 2_665 ?
In2 Ni1 In1 70.484(3) 3_565 3_565 ?
In2 Ni1 In1 70.484(3) . 3_565 ?
In2 Ni1 In1 131.923(7) 2_665 3_565 ?
In2 Ni1 In1 70.484(3) 3_565 3_564 ?
In2 Ni1 In1 70.484(3) . 3_564 ?
In2 Ni1 In1 131.923(7) 2_665 3_564 ?
In1 Ni1 In1 96.154(15) 3_565 3_564 ?
In2 Ni1 In1 70.484(3) 3_565 2_665 ?
In2 Ni1 In1 131.923(7) . 2_665 ?
In2 Ni1 In1 70.484(3) 2_665 2_665 ?
In1 Ni1 In1 70.707(11) 3_565 2_665 ?
In1 Ni1 In1 140.968(6) 3_564 2_665 ?
In2 Ni1 In1 131.923(7) 3_565 1_554 ?
In2 Ni1 In1 70.484(3) . 1_554 ?
In2 Ni1 In1 70.484(3) 2_665 1_554 ?
In1 Ni1 In1 140.968(6) 3_565 1_554 ?
In1 Ni1 In1 70.707(11) 3_564 1_554 ?
In1 Ni1 In1 140.968(6) 2_665 1_554 ?
In2 Ni1 In1 70.484(3) 3_565 2_664 ?
In2 Ni1 In1 131.923(7) . 2_664 ?
In2 Ni1 In1 70.484(3) 2_665 2_664 ?
In1 Ni1 In1 140.968(6) 3_565 2_664 ?
In1 Ni1 In1 70.707(11) 3_564 2_664 ?
In1 Ni1 In1 96.154(15) 2_665 2_664 ?
In1 Ni1 In1 70.707(11) 1_554 2_664 ?
In2 Ni1 In1 131.923(7) 3_565 . ?
In2 Ni1 In1 70.484(3) . . ?
In2 Ni1 In1 70.484(3) 2_665 . ?
In1 Ni1 In1 70.707(11) 3_565 . ?
In1 Ni1 In1 140.968(6) 3_564 . ?
In1 Ni1 In1 70.707(11) 2_665 . ?
In1 Ni1 In1 96.154(15) 1_554 . ?
In1 Ni1 In1 140.968(6) 2_664 . ?
Ni1 In1 Ni1 96.154(14) 1_556 . ?
Ni1 In1 In2 50.099(5) 1_556 2_666 ?
Ni1 In1 In2 111.704(11) . 2_666 ?
Ni1 In1 In2 111.704(11) 1_556 2_665 ?
Ni1 In1 In2 50.099(5) . 2_665 ?
In2 In1 In2 85.621(9) 2_666 2_665 ?
Ni1 In1 In2 111.704(11) 1_556 . ?
Ni1 In1 In2 50.099(5) . . ?
In2 In1 In2 156.541(14) 2_666 . ?
In2 In1 In2 89.639(8) 2_665 . ?
Ni1 In1 In2 50.099(5) 1_556 1_556 ?
Ni1 In1 In2 111.704(11) . 1_556 ?
In2 In1 In2 89.639(8) 2_666 1_556 ?
In2 In1 In2 156.541(14) 2_665 1_556 ?
In2 In1 In2 85.621(9) . 1_556 ?
Ni1 In1 In1 109.516(3) 1_556 15_556 ?
Ni1 In1 In1 109.516(3) . 15_556 ?
In2 In1 In1 135.405(5) 2_666 15_556 ?
In2 In1 In1 135.405(5) 2_665 15_556 ?
In2 In1 In1 59.416(6) . 15_556 ?
In2 In1 In1 59.416(6) 1_556 15_556 ?
Ni1 In1 In1 109.516(3) 1_556 14_556 ?
Ni1 In1 In1 109.516(3) . 14_556 ?
In2 In1 In1 59.416(6) 2_666 14_556 ?
In2 In1 In1 59.416(6) 2_665 14_556 ?
In2 In1 In1 135.405(5) . 14_556 ?
In2 In1 In1 135.405(5) 1_556 14_556 ?
In1 In1 In1 120.0 15_556 14_556 ?
Ni1 In1 In1 54.646(6) 1_556 2_665 ?
Ni1 In1 In1 54.646(6) . 2_665 ?
In2 In1 In1 58.097(7) 2_666 2_665 ?
In2 In1 In1 58.097(7) 2_665 2_665 ?
In2 In1 In1 100.159(7) . 2_665 ?
In2 In1 In1 100.159(7) 1_556 2_665 ?
In1 In1 In1 150.0 15_556 2_665 ?
In1 In1 In1 90.0 14_556 2_665 ?
Ni1 In1 In1 54.646(6) 1_556 3_565 ?
Ni1 In1 In1 54.646(6) . 3_565 ?
In2 In1 In1 100.159(7) 2_666 3_565 ?
In2 In1 In1 100.159(7) 2_665 3_565 ?
In2 In1 In1 58.097(7) . 3_565 ?
In2 In1 In1 58.097(7) 1_556 3_565 ?
In1 In1 In1 90.0 15_556 3_565 ?
In1 In1 In1 150.0 14_556 3_565 ?
In1 In1 In1 60.0 2_665 3_565 ?
Ni1 In1 K1 165.659(9) 1_556 . ?
Ni1 In1 K1 98.187(8) . . ?
In2 In1 K1 123.125(9) 2_666 . ?
In2 In1 K1 77.974(7) 2_665 . ?
In2 In1 K1 77.974(7) . . ?
In2 In1 K1 123.125(9) 1_556 . ?
In1 In1 K1 65.430(2) 15_556 . ?
In1 In1 K1 65.430(2) 14_556 . ?
In1 In1 K1 136.070(4) 2_665 . ?
In1 In1 K1 136.070(3) 3_565 . ?
Ni1 In1 K1 98.187(8) 1_556 1_556 ?
Ni1 In1 K1 165.659(9) . 1_556 ?
In2 In1 K1 77.974(7) 2_666 1_556 ?
In2 In1 K1 123.125(9) 2_665 1_556 ?
In2 In1 K1 123.125(9) . 1_556 ?
In2 In1 K1 77.974(7) 1_556 1_556 ?
In1 In1 K1 65.430(2) 15_556 1_556 ?
In1 In1 K1 65.430(2) 14_556 1_556 ?
In1 In1 K1 136.070(4) 2_665 1_556 ?
In1 In1 K1 136.070(3) 3_565 1_556 ?
K1 In1 K1 67.472(10) . 1_556 ?
Ni1 In2 Ni1 180.0 13_565 . ?
Ni1 In2 In1 120.584(6) 13_565 3_565 ?
Ni1 In2 In1 59.416(6) . 3_565 ?
Ni1 In2 In1 59.416(6) 13_565 15 ?
Ni1 In2 In1 120.584(6) . 15 ?
In1 In2 In1 180.0 3_565 15 ?
Ni1 In2 In1 120.584(6) 13_565 3_564 ?
Ni1 In2 In1 59.416(6) . 3_564 ?
In1 In2 In1 85.621(9) 3_565 3_564 ?
In1 In2 In1 94.379(9) 15 3_564 ?
Ni1 In2 In1 59.416(6) 13_565 15_556 ?
Ni1 In2 In1 120.584(6) . 15_556 ?
In1 In2 In1 94.379(9) 3_565 15_556 ?
In1 In2 In1 85.621(9) 15 15_556 ?
In1 In2 In1 180.0 3_564 15_556 ?
Ni1 In2 In1 59.416(6) 13_565 13_565 ?
Ni1 In2 In1 120.584(6) . 13_565 ?
In1 In2 In1 116.193(14) 3_565 13_565 ?
In1 In2 In1 63.807(14) 15 13_565 ?
In1 In2 In1 61.167(11) 3_564 13_565 ?
In1 In2 In1 118.833(11) 15_556 13_565 ?
Ni1 In2 In1 120.584(6) 13_565 . ?
Ni1 In2 In1 59.416(6) . . ?
In1 In2 In1 63.807(14) 3_565 . ?
In1 In2 In1 116.193(14) 15 . ?
In1 In2 In1 118.833(11) 3_564 . ?
In1 In2 In1 61.167(11) 15_556 . ?
In1 In2 In1 180.000(14) 13_565 . ?
Ni1 In2 In1 59.416(6) 13_565 13_566 ?
Ni1 In2 In1 120.584(6) . 13_566 ?
In1 In2 In1 61.167(11) 3_565 13_566 ?
In1 In2 In1 118.833(11) 15 13_566 ?
In1 In2 In1 116.193(14) 3_564 13_566 ?
In1 In2 In1 63.807(14) 15_556 13_566 ?
In1 In2 In1 85.621(9) 13_565 13_566 ?
In1 In2 In1 94.379(9) . 13_566 ?
Ni1 In2 In1 120.584(6) 13_565 1_554 ?
Ni1 In2 In1 59.416(6) . 1_554 ?
In1 In2 In1 118.833(11) 3_565 1_554 ?
In1 In2 In1 61.167(11) 15 1_554 ?
In1 In2 In1 63.807(14) 3_564 1_554 ?
In1 In2 In1 116.193(14) 15_556 1_554 ?
In1 In2 In1 94.379(9) 13_565 1_554 ?
In1 In2 In1 85.621(9) . 1_554 ?
In1 In2 In1 180.0 13_566 1_554 ?
loop_
_geom_bond_atom_site_label_1
_geom_bond_atom_site_label_2
_geom_bond_distance
_geom_bond_site_symmetry_2
_geom_bond_publ_flag
K1 In1 3.8155(4) 14_556 ?
K1 In1 3.8155(4) . ?
K1 In1 3.8155(4) 2_554 ?
K1 In1 3.8155(4) 13 ?
K1 In1 3.8155(4) 3 ?
K1 In1 3.8155(4) 3_554 ?
K1 In1 3.8155(4) 1_554 ?
K1 In1 3.8155(4) 14 ?
K1 In1 3.8155(4) 15_556 ?
K1 In1 3.8155(4) 15 ?
K1 In1 3.8155(4) 2 ?
K1 In1 3.8155(4) 13_556 ?
Ni1 In2 2.5379(2) 3_565 ?
Ni1 In2 2.5379(2) . ?
Ni1 In2 2.5379(2) 2_665 ?
Ni1 In1 2.8480(3) 3_565 ?
Ni1 In1 2.8480(3) 3_564 ?
Ni1 In1 2.8480(3) 2_665 ?
Ni1 In1 2.8480(3) 1_554 ?
Ni1 In1 2.8480(3) 2_664 ?
Ni1 In1 2.8480(3) . ?
In1 Ni1 2.8480(3) 1_556 ?
In1 In2 3.1181(2) 2_666 ?
In1 In2 3.1181(2) 2_665 ?
In1 In2 3.1181(2) . ?
In1 In2 3.1181(2) 1_556 ?
In1 In1 3.1730(5) 15_556 ?
In1 In1 3.1730(5) 14_556 ?
In1 In1 3.2958(7) 2_665 ?
In1 In1 3.2958(7) 3_565 ?
In1 K1 3.8155(4) 1_556 ?
In2 Ni1 2.5379(2) 13_565 ?
In2 In1 3.1181(2) 3_565 ?
In2 In1 3.1181(2) 15 ?
In2 In1 3.1181(2) 3_564 ?
In2 In1 3.1181(2) 15_556 ?
In2 In1 3.1181(2) 13_565 ?
In2 In1 3.1181(2) 13_566 ?
In2 In1 3.1181(2) 1_554 ?
