#------------------------------------------------------------------------------
#$Date: 2016-03-22 23:13:32 +0200 (Tue, 22 Mar 2016) $
#$Revision: 179051 $
#$URL: svn://www.crystallography.net/cod/cif/4/30/13/4301395.cif $
#------------------------------------------------------------------------------
#
# This file is available in the Crystallography Open Database (COD),
# http://www.crystallography.net/
#
# All data on this site have been placed in the public domain by the
# contributors.
#
data_4301395
loop_
_publ_author_name
'Susan E. Latturner'
'Daniel Bilc'
'S. D. Mahanti'
'Mercouri G. Kanatzidis'
_publ_section_title
;
R3Au6+xAl26T (R = Ca, Sr, Eu, Yb; T = Early Transition Metal): a Large
Family of Compounds with a Stuffed BaHg11 Structure Type Grown from Aluminum
Flux
;
_journal_name_full               'Inorganic Chemistry'
_journal_page_first              1346
_journal_page_last               1355
_journal_paper_doi               10.1021/ic801095v
_journal_volume                  48
_journal_year                    2009
_chemical_formula_sum            'Al25.11 Au7.87 Yb3 Zr'
_chemical_formula_weight         2837.62
_chemical_name_systematic
; 
 ? 
;
_space_group_IT_number           221
_symmetry_cell_setting           cubic
_symmetry_space_group_name_Hall  '-P 4 2 3'
_symmetry_space_group_name_H-M   'P m -3 m'
_atom_sites_solution_primary     direct
_atom_sites_solution_secondary   difmap
_audit_creation_method           SHELXL-97
_cell_angle_alpha                90.00
_cell_angle_beta                 90.00
_cell_angle_gamma                90.00
_cell_formula_units_Z            1
_cell_length_a                   8.6903(5)
_cell_length_b                   8.6903(5)
_cell_length_c                   8.6903(5)
_cell_measurement_reflns_used    10478
_cell_measurement_temperature    293(2)
_cell_measurement_theta_max      37.24
_cell_measurement_theta_min      11.56
_cell_volume                     656.30(7)
_computing_cell_refinement       'Bruker SAINT software (Bruker, 1999)'
_computing_data_collection       'Bruker SMART software (Bruker, 1997)'
_computing_data_reduction        'Bruker SAINT software (Bruker, 1999)'
_computing_structure_refinement  'SHELXL-97 (Sheldrick, 1997)'
_computing_structure_solution    'SHELXS-97 (Sheldrick, 1990)'
_diffrn_ambient_temperature      293(2)
_diffrn_measured_fraction_theta_full 0.942
_diffrn_measured_fraction_theta_max 0.942
_diffrn_measurement_device_type  'CCD area detector (Bruker AXS)'
_diffrn_measurement_method       'phi and omega scans'
_diffrn_radiation_monochromator  graphite
_diffrn_radiation_source         'fine-focus sealed tube'
_diffrn_radiation_type           MoK\a
_diffrn_radiation_wavelength     0.71073
_diffrn_reflns_av_R_equivalents  0.0851
_diffrn_reflns_av_sigmaI/netI    0.0246
_diffrn_reflns_limit_h_max       14
_diffrn_reflns_limit_h_min       -14
_diffrn_reflns_limit_k_max       14
_diffrn_reflns_limit_k_min       -14
_diffrn_reflns_limit_l_max       14
_diffrn_reflns_limit_l_min       -14
_diffrn_reflns_number            10478
_diffrn_reflns_theta_full        37.24
_diffrn_reflns_theta_max         37.24
_diffrn_reflns_theta_min         11.56
_exptl_absorpt_coefficient_mu    54.089
_exptl_absorpt_correction_type   multi-scan
_exptl_absorpt_process_details   SADABS
_exptl_crystal_colour            silver
_exptl_crystal_density_diffrn    7.180
_exptl_crystal_density_method    'not measured'
_exptl_crystal_description       spheroid
_exptl_crystal_F_000             1181
_exptl_crystal_size_max          0.08
_exptl_crystal_size_mid          0.08
_exptl_crystal_size_min          0.07
_refine_diff_density_max         2.323
_refine_diff_density_min         -1.944
_refine_diff_density_rms         0.348
_refine_ls_extinction_coef       0.0078(4)
_refine_ls_extinction_expression Fc^*^=kFc[1+0.001xFc^2^\l^3^/sin(2\q)]^-1/4^
_refine_ls_extinction_method     SHELXL
_refine_ls_goodness_of_fit_ref   1.089
_refine_ls_matrix_type           full
_refine_ls_number_parameters     23
_refine_ls_number_reflns         375
_refine_ls_number_restraints     0
_refine_ls_restrained_S_all      1.089
_refine_ls_R_factor_all          0.0335
_refine_ls_R_factor_gt           0.0213
_refine_ls_shift/su_max          0.000
_refine_ls_shift/su_mean         0.000
_refine_ls_structure_factor_coef Fsqd
_refine_ls_weighting_details
'calc w=1/[\s^2^(Fo^2^)+(0.0237P)^2^+0.0000P] where P=(Fo^2^+2Fc^2^)/3'
_refine_ls_weighting_scheme      calc
_refine_ls_wR_factor_gt          0.0443
_refine_ls_wR_factor_ref         0.0469
_reflns_number_gt                308
_reflns_number_total             375
_reflns_threshold_expression     >2sigma(I)
_cod_data_source_file            ic801095v_si_001_24.cif
_cod_data_source_block           3sl100af
_cod_database_code               4301395
loop_
_symmetry_equiv_pos_as_xyz
'x, y, z'
'-x, -y, z'
'-x, y, -z'
'x, -y, -z'
'z, x, y'
'z, -x, -y'
'-z, -x, y'
'-z, x, -y'
'y, z, x'
'-y, z, -x'
'y, -z, -x'
'-y, -z, x'
'y, x, -z'
'-y, -x, -z'
'y, -x, z'
'-y, x, z'
'x, z, -y'
'-x, z, y'
'-x, -z, -y'
'x, -z, y'
'z, y, -x'
'z, -y, x'
'-z, y, x'
'-z, -y, -x'
'-x, -y, -z'
'x, y, -z'
'x, -y, z'
'-x, y, z'
'-z, -x, -y'
'-z, x, y'
'z, x, -y'
'z, -x, y'
'-y, -z, -x'
'y, -z, x'
'-y, z, x'
'y, z, -x'
'-y, -x, z'
'y, x, z'
'-y, x, -z'
'y, -x, -z'
'-x, -z, y'
'x, -z, -y'
'x, z, y'
'-x, z, -y'
'-z, -y, x'
'-z, y, -x'
'z, -y, -x'
'z, y, x'
loop_
_atom_site_label
_atom_site_type_symbol
_atom_site_fract_x
_atom_site_fract_y
_atom_site_fract_z
_atom_site_U_iso_or_equiv
_atom_site_adp_type
_atom_site_occupancy
_atom_site_symmetry_multiplicity
_atom_site_calc_flag
_atom_site_refinement_flags
_atom_site_disorder_assembly
_atom_site_disorder_group
Au1 Au 0.0000 0.0000 0.0000 0.0164(3) Uani 0.980(7) 48 d SP . .
Au2 Au 0.0000 0.33646(6) 0.33646(6) 0.00875(16) Uani 0.574(4) 4 d SP . .
Al2 Al 0.0000 0.3664(8) 0.3664(8) 0.0097(18) Uani 0.426(4) 4 d SP . .
Yb1 Yb 0.5000 0.0000 0.0000 0.01212(17) Uani 1 16 d S . .
Al1 Al 0.5000 0.26687(14) 0.26687(14) 0.0082(3) Uani 1 4 d S . .
Zr1 Zr 0.5000 0.5000 0.5000 0.0023(3) Uani 1 48 d S . .
Al3 Al 0.17390(15) 0.17390(15) 0.17390(15) 0.0125(5) Uani 1 6 d S . .
loop_
_atom_site_aniso_label
_atom_site_aniso_U_11
_atom_site_aniso_U_22
_atom_site_aniso_U_33
_atom_site_aniso_U_23
_atom_site_aniso_U_13
_atom_site_aniso_U_12
Au1 0.0164(3) 0.0164(3) 0.0164(3) 0.000 0.000 0.000
Au2 0.0099(2) 0.0099(2) 0.0065(2) 0.000 0.000 -0.00344(17)
Al2 0.013(2) 0.013(2) 0.004(2) 0.000 0.000 -0.002(2)
Yb1 0.0232(3) 0.00657(18) 0.00657(18) 0.000 0.000 0.000
Al1 0.0104(8) 0.0071(5) 0.0071(5) -0.0017(5) 0.000 0.000
Zr1 0.0023(3) 0.0023(3) 0.0023(3) 0.000 0.000 0.000
Al3 0.0125(5) 0.0125(5) 0.0125(5) 0.0004(4) 0.0004(4) 0.0004(4)
loop_
_atom_type_symbol
_atom_type_description
_atom_type_scat_dispersion_real
_atom_type_scat_dispersion_imag
_atom_type_scat_source
Al Al 0.0645 0.0514 'International Tables Vol C Tables 4.2.6.8 and 6.1.1.4'
Zr Zr -2.9673 0.5597 'International Tables Vol C Tables 4.2.6.8 and 6.1.1.4'
Yb Yb -0.3850 5.5486 'International Tables Vol C Tables 4.2.6.8 and 6.1.1.4'
Au Au -2.0133 8.8022 'International Tables Vol C Tables 4.2.6.8 and 6.1.1.4'
loop_
_geom_angle_atom_site_label_1
_geom_angle_atom_site_label_2
_geom_angle_atom_site_label_3
_geom_angle
_geom_angle_site_symmetry_1
_geom_angle_site_symmetry_3
_geom_angle_publ_flag
Al3 Au1 Al3 180.00(10) 25 . ?
Al3 Au1 Al3 109.5 25 28 ?
Al3 Au1 Al3 70.5 . 28 ?
Al3 Au1 Al3 70.5 25 2 ?
Al3 Au1 Al3 109.5 . 2 ?
Al3 Au1 Al3 70.5 28 2 ?
Al3 Au1 Al3 109.5 25 26 ?
Al3 Au1 Al3 70.5 . 26 ?
Al3 Au1 Al3 109.5 28 26 ?
Al3 Au1 Al3 180.00(14) 2 26 ?
Al3 Au1 Al3 70.5 25 3 ?
Al3 Au1 Al3 109.5 . 3 ?
Al3 Au1 Al3 70.5 28 3 ?
Al3 Au1 Al3 109.5 2 3 ?
Al3 Au1 Al3 70.5 26 3 ?
Al3 Au1 Al3 109.5 25 27 ?
Al3 Au1 Al3 70.5 . 27 ?
Al3 Au1 Al3 109.5 28 27 ?
Al3 Au1 Al3 70.5 2 27 ?
Al3 Au1 Al3 109.5 26 27 ?
Al3 Au1 Al3 180.00(14) 3 27 ?
Al3 Au1 Al3 70.5 25 4 ?
Al3 Au1 Al3 109.5 . 4 ?
Al3 Au1 Al3 180.00(10) 28 4 ?
Al3 Au1 Al3 109.5 2 4 ?
Al3 Au1 Al3 70.5 26 4 ?
Al3 Au1 Al3 109.5 3 4 ?
Al3 Au1 Al3 70.5 27 4 ?
Al3 Au2 Al3 74.21(10) 26 . ?
Al3 Au2 Al2 128.14(11) 26 27_565 ?
Al3 Au2 Al2 128.14(11) . 27_565 ?
Al3 Au2 Al2 128.14(11) 26 3_655 ?
Al3 Au2 Al2 128.14(11) . 3_655 ?
Al2 Au2 Al2 78.5(3) 27_565 3_655 ?
Al3 Au2 Al1 131.87(5) 26 5 ?
Al3 Au2 Al1 70.31(4) . 5 ?
Al2 Au2 Al1 60.94(6) 27_565 5 ?
Al2 Au2 Al1 99.49(8) 3_655 5 ?
Al3 Au2 Al1 131.87(5) 26 . ?
Al3 Au2 Al1 70.31(4) . . ?
Al2 Au2 Al1 99.49(8) 27_565 . ?
Al2 Au2 Al1 60.94(5) 3_655 . ?
Al1 Au2 Al1 61.88(6) 5 . ?
Al3 Au2 Al1 70.31(4) 26 6_565 ?
Al3 Au2 Al1 131.87(5) . 6_565 ?
Al2 Au2 Al1 60.94(5) 27_565 6_565 ?
Al2 Au2 Al1 99.49(8) 3_655 6_565 ?
Al1 Au2 Al1 112.67(4) 5 6_565 ?
Al1 Au2 Al1 156.08(4) . 6_565 ?
Al3 Au2 Al1 70.31(4) 26 26 ?
Al3 Au2 Al1 131.87(5) . 26 ?
Al2 Au2 Al1 99.49(8) 27_565 26 ?
Al2 Au2 Al1 60.94(5) 3_655 26 ?
Al1 Au2 Al1 156.08(4) 5 26 ?
Al1 Au2 Al1 112.67(4) . 26 ?
Al1 Au2 Al1 61.88(6) 6_565 26 ?
Al3 Au2 Au2 124.33(3) 26 3_655 ?
Al3 Au2 Au2 124.33(3) . 3_655 ?
Al2 Au2 Au2 84.26(15) 27_565 3_655 ?
Al2 Au2 Au2 5.74(15) 3_655 3_655 ?
Al1 Au2 Au2 102.53(3) 5 3_655 ?
Al1 Au2 Au2 59.332(14) . 3_655 ?
Al1 Au2 Au2 102.53(3) 6_565 3_655 ?
Al1 Au2 Au2 59.332(14) 26 3_655 ?
Al3 Au2 Au2 124.33(3) 26 27_565 ?
Al3 Au2 Au2 124.33(3) . 27_565 ?
Al2 Au2 Au2 5.74(15) 27_565 27_565 ?
Al2 Au2 Au2 84.26(15) 3_655 27_565 ?
Al1 Au2 Au2 59.332(14) 5 27_565 ?
Al1 Au2 Au2 102.53(3) . 27_565 ?
Al1 Au2 Au2 59.332(14) 6_565 27_565 ?
Al1 Au2 Au2 102.53(3) 26 27_565 ?
Au2 Au2 Au2 90.0 3_655 27_565 ?
Al3 Au2 Yb1 74.891(16) 26 . ?
Al3 Au2 Yb1 74.891(16) . . ?
Al2 Au2 Yb1 148.33(15) 27_565 . ?
Al2 Au2 Yb1 69.82(16) 3_655 . ?
Al1 Au2 Yb1 123.62(2) 5 . ?
Al1 Au2 Yb1 65.28(3) . . ?
Al1 Au2 Yb1 123.62(2) 6_565 . ?
Al1 Au2 Yb1 65.28(3) 26 . ?
Au2 Au2 Yb1 64.077(13) 3_655 . ?
Au2 Au2 Yb1 154.077(13) 27_565 . ?
Al3 Au2 Yb1 74.891(16) 26 5 ?
Al3 Au2 Yb1 74.891(16) . 5 ?
Al2 Au2 Yb1 69.82(16) 27_565 5 ?
Al2 Au2 Yb1 148.33(15) 3_655 5 ?
Al1 Au2 Yb1 65.28(3) 5 5 ?
Al1 Au2 Yb1 123.62(2) . 5 ?
Al1 Au2 Yb1 65.28(3) 6_565 5 ?
Al1 Au2 Yb1 123.62(2) 26 5 ?
Au2 Au2 Yb1 154.077(13) 3_655 5 ?
Au2 Au2 Yb1 64.077(13) 27_565 5 ?
Yb1 Au2 Yb1 141.85(3) . 5 ?
Al2 Al2 Al2 90.0 27_565 3_655 ?
Al2 Al2 Au2 5.74(15) 27_565 27_565 ?
Al2 Al2 Au2 95.74(15) 3_655 27_565 ?
Al2 Al2 Au2 95.74(15) 27_565 3_655 ?
Al2 Al2 Au2 5.74(15) 3_655 3_655 ?
Au2 Al2 Au2 101.5(3) 27_565 3_655 ?
Al2 Al2 Al1 64.86(15) 27_565 5 ?
Al2 Al2 Al1 108.43(15) 3_655 5 ?
Au2 Al2 Al1 62.98(9) 27_565 5 ?
Au2 Al2 Al1 110.9(2) 3_655 5 ?
Al2 Al2 Al1 108.43(15) 27_565 . ?
Al2 Al2 Al1 64.86(15) 3_655 . ?
Au2 Al2 Al1 110.9(2) 27_565 . ?
Au2 Al2 Al1 62.98(9) 3_655 . ?
Al1 Al2 Al1 63.20(6) 5 . ?
Al2 Al2 Al1 64.86(15) 27_565 6_565 ?
Al2 Al2 Al1 108.43(15) 3_655 6_565 ?
Au2 Al2 Al1 62.98(9) 27_565 6_565 ?
Au2 Al2 Al1 110.9(2) 3_655 6_565 ?
Al1 Al2 Al1 116.05(7) 5 6_565 ?
Al1 Al2 Al1 171.2(4) . 6_565 ?
Al2 Al2 Al1 108.43(15) 27_565 26 ?
Al2 Al2 Al1 64.86(15) 3_655 26 ?
Au2 Al2 Al1 110.9(2) 27_565 26 ?
Au2 Al2 Al1 62.98(9) 3_655 26 ?
Al1 Al2 Al1 171.2(4) 5 26 ?
Al1 Al2 Al1 116.05(7) . 26 ?
Al1 Al2 Al1 63.20(6) 6_565 26 ?
Al2 Al2 Al3 126.57(5) 27_565 26 ?
Al2 Al2 Al3 126.57(5) 3_655 26 ?
Au2 Al2 Al3 122.22(8) 27_565 26 ?
Au2 Al2 Al3 122.22(8) 3_655 26 ?
Al1 Al2 Al3 121.4(3) 5 26 ?
Al1 Al2 Al3 121.4(3) . 26 ?
Al1 Al2 Al3 66.92(11) 6_565 26 ?
Al1 Al2 Al3 66.92(11) 26 26 ?
Al2 Al2 Al3 126.57(5) 27_565 . ?
Al2 Al2 Al3 126.57(5) 3_655 . ?
Au2 Al2 Al3 122.22(8) 27_565 . ?
Au2 Al2 Al3 122.22(8) 3_655 . ?
Al1 Al2 Al3 66.92(11) 5 . ?
Al1 Al2 Al3 66.92(11) . . ?
Al1 Al2 Al3 121.4(3) 6_565 . ?
Al1 Al2 Al3 121.4(3) 26 . ?
Al3 Al2 Al3 65.2(2) 26 . ?
Al2 Al2 Yb1 69.96(14) 27_565 5 ?
Al2 Al2 Yb1 159.96(14) 3_655 5 ?
Au2 Al2 Yb1 64.213(14) 27_565 5 ?
Au2 Al2 Yb1 165.7(3) 3_655 5 ?
Al1 Al2 Yb1 63.73(6) 5 5 ?
Al1 Al2 Yb1 120.49(11) . 5 ?
Al1 Al2 Yb1 63.73(6) 6_565 5 ?
Al1 Al2 Yb1 120.49(11) 26 5 ?
Al3 Al2 Yb1 69.17(14) 26 5 ?
Al3 Al2 Yb1 69.17(14) . 5 ?
Al2 Al2 Yb1 159.96(14) 27_565 . ?
Al2 Al2 Yb1 69.96(14) 3_655 . ?
Au2 Al2 Yb1 165.7(3) 27_565 . ?
Au2 Al2 Yb1 64.213(14) 3_655 . ?
Al1 Al2 Yb1 120.49(11) 5 . ?
Al1 Al2 Yb1 63.73(6) . . ?
Al1 Al2 Yb1 120.49(11) 6_565 . ?
Al1 Al2 Yb1 63.73(6) 26 . ?
Al3 Al2 Yb1 69.17(14) 26 . ?
Al3 Al2 Yb1 69.17(14) . . ?
Yb1 Al2 Yb1 130.1(3) 5 . ?
Au2 Yb1 Au2 180.000(9) 35_655 11 ?
Au2 Yb1 Au2 101.018(11) 35_655 27 ?
Au2 Yb1 Au2 78.982(11) 11 27 ?
Au2 Yb1 Au2 78.982(11) 35_655 3_655 ?
Au2 Yb1 Au2 101.018(11) 11 3_655 ?
Au2 Yb1 Au2 180.00(3) 27 3_655 ?
Au2 Yb1 Au2 101.018(11) 35_655 . ?
Au2 Yb1 Au2 78.982(11) 11 . ?
Au2 Yb1 Au2 128.15(3) 27 . ?
Au2 Yb1 Au2 51.85(3) 3_655 . ?
Au2 Yb1 Au2 78.982(11) 35_655 25_655 ?
Au2 Yb1 Au2 101.018(11) 11 25_655 ?
Au2 Yb1 Au2 51.85(3) 27 25_655 ?
Au2 Yb1 Au2 128.15(3) 3_655 25_655 ?
Au2 Yb1 Au2 180.000(18) . 25_655 ?
Au2 Yb1 Au2 128.15(3) 35_655 33_655 ?
Au2 Yb1 Au2 51.85(3) 11 33_655 ?
Au2 Yb1 Au2 101.018(11) 27 33_655 ?
Au2 Yb1 Au2 78.982(11) 3_655 33_655 ?
Au2 Yb1 Au2 101.018(11) . 33_655 ?
Au2 Yb1 Au2 78.982(11) 25_655 33_655 ?
Au2 Yb1 Au2 51.85(3) 35_655 9 ?
Au2 Yb1 Au2 128.15(3) 11 9 ?
Au2 Yb1 Au2 78.982(11) 27 9 ?
Au2 Yb1 Au2 101.018(11) 3_655 9 ?
Au2 Yb1 Au2 78.982(11) . 9 ?
Au2 Yb1 Au2 101.018(11) 25_655 9 ?
Au2 Yb1 Au2 180.00(3) 33_655 9 ?
Au2 Yb1 Al1 50.509(5) 35_655 . ?
Au2 Yb1 Al1 129.491(5) 11 . ?
Au2 Yb1 Al1 129.491(5) 27 . ?
Au2 Yb1 Al1 50.509(5) 3_655 . ?
Au2 Yb1 Al1 50.509(5) . . ?
Au2 Yb1 Al1 129.491(5) 25_655 . ?
Au2 Yb1 Al1 129.491(5) 33_655 . ?
Au2 Yb1 Al1 50.509(5) 9 . ?
Au2 Yb1 Al1 129.491(5) 35_655 25_655 ?
Au2 Yb1 Al1 50.509(5) 11 25_655 ?
Au2 Yb1 Al1 50.509(5) 27 25_655 ?
Au2 Yb1 Al1 129.491(5) 3_655 25_655 ?
Au2 Yb1 Al1 129.491(5) . 25_655 ?
Au2 Yb1 Al1 50.509(5) 25_655 25_655 ?
Au2 Yb1 Al1 50.509(5) 33_655 25_655 ?
Au2 Yb1 Al1 129.491(5) 9 25_655 ?
Al1 Yb1 Al1 180.00(3) . 25_655 ?
Au2 Yb1 Al1 129.491(5) 35_655 26 ?
Au2 Yb1 Al1 50.509(5) 11 26 ?
Au2 Yb1 Al1 129.491(5) 27 26 ?
Au2 Yb1 Al1 50.509(5) 3_655 26 ?
Au2 Yb1 Al1 50.509(5) . 26 ?
Au2 Yb1 Al1 129.491(5) 25_655 26 ?
Au2 Yb1 Al1 50.509(5) 33_655 26 ?
Au2 Yb1 Al1 129.491(5) 9 26 ?
Al1 Yb1 Al1 90.0 . 26 ?
Al1 Yb1 Al1 90.0 25_655 26 ?
Au2 Yb1 Al1 50.509(5) 35_655 2_655 ?
Au2 Yb1 Al1 129.491(5) 11 2_655 ?
Au2 Yb1 Al1 50.509(5) 27 2_655 ?
Au2 Yb1 Al1 129.491(5) 3_655 2_655 ?
Au2 Yb1 Al1 129.491(5) . 2_655 ?
Au2 Yb1 Al1 50.509(5) 25_655 2_655 ?
Au2 Yb1 Al1 129.491(5) 33_655 2_655 ?
Au2 Yb1 Al1 50.509(5) 9 2_655 ?
Al1 Yb1 Al1 90.0 . 2_655 ?
Al1 Yb1 Al1 90.0 25_655 2_655 ?
Al1 Yb1 Al1 180.0 26 2_655 ?
Al2 Al1 Al2 110.9(4) 9 . ?
Al2 Al1 Al2 50.3(3) 9 35_655 ?
Al2 Al1 Al2 135.8(2) . 35_655 ?
Al2 Al1 Al2 135.8(2) 9 3_655 ?
Al2 Al1 Al2 50.3(3) . 3_655 ?
Al2 Al1 Al2 110.9(4) 35_655 3_655 ?
Al2 Al1 Au2 7.56(19) 9 9 ?
Al2 Al1 Au2 103.3(2) . 9 ?
Al2 Al1 Au2 56.08(14) 35_655 9 ?
Al2 Al1 Au2 131.60(10) 3_655 9 ?
Al2 Al1 Au2 103.3(2) 9 . ?
Al2 Al1 Au2 7.56(19) . . ?
Al2 Al1 Au2 131.60(10) 35_655 . ?
Al2 Al1 Au2 56.08(14) 3_655 . ?
Au2 Al1 Au2 95.80(5) 9 . ?
Al2 Al1 Au2 131.60(10) 9 3_655 ?
Al2 Al1 Au2 56.08(14) . 3_655 ?
Al2 Al1 Au2 103.3(2) 35_655 3_655 ?
Al2 Al1 Au2 7.56(19) 3_655 3_655 ?
Au2 Al1 Au2 128.42(6) 9 3_655 ?
Au2 Al1 Au2 61.34(3) . 3_655 ?
Al2 Al1 Au2 56.08(14) 9 35_655 ?
Al2 Al1 Au2 131.60(10) . 35_655 ?
Al2 Al1 Au2 7.56(19) 35_655 35_655 ?
Al2 Al1 Au2 103.3(2) 3_655 35_655 ?
Au2 Al1 Au2 61.34(3) 9 35_655 ?
Au2 Al1 Au2 128.42(6) . 35_655 ?
Au2 Al1 Au2 95.80(5) 3_655 35_655 ?
Al2 Al1 Al1 94.4(2) 9 10_656 ?
Al2 Al1 Al1 154.18(19) . 10_656 ?
Al2 Al1 Al1 58.40(3) 35_655 10_656 ?
Al2 Al1 Al1 107.42(11) 3_655 10_656 ?
Au2 Al1 Al1 101.96(2) 9 10_656 ?
Au2 Al1 Al1 161.658(19) . 10_656 ?
Au2 Al1 Al1 103.171(17) 3_655 10_656 ?
Au2 Al1 Al1 59.06(3) 35_655 10_656 ?
Al2 Al1 Al1 154.18(19) 9 30_655 ?
Al2 Al1 Al1 94.4(2) . 30_655 ?
Al2 Al1 Al1 107.42(11) 35_655 30_655 ?
Al2 Al1 Al1 58.40(3) 3_655 30_655 ?
Au2 Al1 Al1 161.658(19) 9 30_655 ?
Au2 Al1 Al1 101.96(2) . 30_655 ?
Au2 Al1 Al1 59.06(3) 3_655 30_655 ?
Au2 Al1 Al1 103.171(17) 35_655 30_655 ?
Al1 Al1 Al1 60.0 10_656 30_655 ?
Al2 Al1 Zr1 112.10(10) 9 . ?
Al2 Al1 Zr1 112.10(10) . . ?
Al2 Al1 Zr1 112.10(10) 35_655 . ?
Al2 Al1 Zr1 112.10(10) 3_655 . ?
Au2 Al1 Zr1 115.79(3) 9 . ?
Au2 Al1 Zr1 115.79(3) . . ?
Au2 Al1 Zr1 115.79(3) 3_655 . ?
Au2 Al1 Zr1 115.79(3) 35_655 . ?
Al1 Al1 Zr1 60.0 10_656 . ?
Al1 Al1 Zr1 60.0 30_655 . ?
Al2 Al1 Al1 107.42(11) 9 5 ?
Al2 Al1 Al1 58.40(3) . 5 ?
Al2 Al1 Al1 154.18(19) 35_655 5 ?
Al2 Al1 Al1 94.4(2) 3_655 5 ?
Au2 Al1 Al1 103.171(17) 9 5 ?
Au2 Al1 Al1 59.06(3) . 5 ?
Au2 Al1 Al1 101.96(2) 3_655 5 ?
Au2 Al1 Al1 161.658(19) 35_655 5 ?
Al1 Al1 Al1 120.0 10_656 5 ?
Al1 Al1 Al1 90.0 30_655 5 ?
Zr1 Al1 Al1 60.0 . 5 ?
Al1 Zr1 Al1 60.0 33_666 29_666 ?
Al1 Zr1 Al1 60.0 33_666 25_666 ?
Al1 Zr1 Al1 60.0 29_666 25_666 ?
Al1 Zr1 Al1 120.0 33_666 . ?
Al1 Zr1 Al1 120.0 29_666 . ?
Al1 Zr1 Al1 180.0 25_666 . ?
Al1 Zr1 Al1 180.0 33_666 9 ?
Al1 Zr1 Al1 120.0 29_666 9 ?
Al1 Zr1 Al1 120.0 25_666 9 ?
Al1 Zr1 Al1 60.0 . 9 ?
Al1 Zr1 Al1 120.0 33_666 5 ?
Al1 Zr1 Al1 180.0 29_666 5 ?
Al1 Zr1 Al1 120.0 25_666 5 ?
Al1 Zr1 Al1 60.0 . 5 ?
Al1 Zr1 Al1 60.0 9 5 ?
Al1 Zr1 Al1 90.0 33_666 34_565 ?
Al1 Zr1 Al1 120.0 29_666 34_565 ?
Al1 Zr1 Al1 60.0 25_666 34_565 ?
Al1 Zr1 Al1 120.0 . 34_565 ?
Al1 Zr1 Al1 90.0 9 34_565 ?
Al1 Zr1 Al1 60.0 5 34_565 ?
Al1 Zr1 Al1 120.0 33_666 6_566 ?
Al1 Zr1 Al1 90.0 29_666 6_566 ?
Al1 Zr1 Al1 60.0 25_666 6_566 ?
Al1 Zr1 Al1 120.0 . 6_566 ?
Al1 Zr1 Al1 60.0 9 6_566 ?
Al1 Zr1 Al1 90.0 5 6_566 ?
Al1 Zr1 Al1 60.0 34_565 6_566 ?
Al1 Zr1 Al1 60.0 33_666 30_655 ?
Al1 Zr1 Al1 90.0 29_666 30_655 ?
Al1 Zr1 Al1 120.0 25_666 30_655 ?
Al1 Zr1 Al1 60.0 . 30_655 ?
Al1 Zr1 Al1 120.0 9 30_655 ?
Al1 Zr1 Al1 90.0 5 30_655 ?
Al1 Zr1 Al1 120.0 34_565 30_655 ?
Al1 Zr1 Al1 180.0 6_566 30_655 ?
Al1 Zr1 Al1 60.0 33_666 2_665 ?
Al1 Zr1 Al1 120.0 29_666 2_665 ?
Al1 Zr1 Al1 90.0 25_666 2_665 ?
Al1 Zr1 Al1 90.0 . 2_665 ?
Al1 Zr1 Al1 120.0 9 2_665 ?
Al1 Zr1 Al1 60.0 5 2_665 ?
Al1 Zr1 Al1 60.0 34_565 2_665 ?
Al1 Zr1 Al1 120.0 6_566 2_665 ?
Al1 Zr1 Al1 60.0 30_655 2_665 ?
Al1 Zr1 Al1 120.0 33_666 26_556 ?
Al1 Zr1 Al1 60.0 29_666 26_556 ?
Al1 Zr1 Al1 90.0 25_666 26_556 ?
Al1 Zr1 Al1 90.0 . 26_556 ?
Al1 Zr1 Al1 60.0 9 26_556 ?
Al1 Zr1 Al1 120.0 5 26_556 ?
Al1 Zr1 Al1 120.0 34_565 26_556 ?
Al1 Zr1 Al1 60.0 6_566 26_556 ?
Al1 Zr1 Al1 120.0 30_655 26_556 ?
Al1 Zr1 Al1 180.00(3) 2_665 26_556 ?
Al1 Zr1 Al1 90.0 33_666 10_656 ?
Al1 Zr1 Al1 60.0 29_666 10_656 ?
Al1 Zr1 Al1 120.0 25_666 10_656 ?
Al1 Zr1 Al1 60.0 . 10_656 ?
Al1 Zr1 Al1 90.0 9 10_656 ?
Al1 Zr1 Al1 120.0 5 10_656 ?
Al1 Zr1 Al1 180.0 34_565 10_656 ?
Al1 Zr1 Al1 120.0 6_566 10_656 ?
Al1 Zr1 Al1 60.0 30_655 10_656 ?
Al1 Zr1 Al1 120.0 2_665 10_656 ?
Al1 Zr1 Al1 60.0 26_556 10_656 ?
Au2 Al3 Au2 111.25(5) . 9 ?
Au2 Al3 Au2 111.25(5) . 5 ?
Au2 Al3 Au2 111.25(5) 9 5 ?
Au2 Al3 Au1 107.63(5) . . ?
Au2 Al3 Au1 107.63(5) 9 . ?
Au2 Al3 Au1 107.63(5) 5 . ?
Au2 Al3 Al2 4.53(10) . . ?
Au2 Al3 Al2 109.09(7) 9 . ?
Au2 Al3 Al2 109.09(7) 5 . ?
Au1 Al3 Al2 112.16(11) . . ?
Au2 Al3 Al2 109.09(7) . 9 ?
Au2 Al3 Al2 4.53(10) 9 9 ?
Au2 Al3 Al2 109.09(7) 5 9 ?
Au1 Al3 Al2 112.16(11) . 9 ?
Al2 Al3 Al2 106.66(12) . 9 ?
Au2 Al3 Al2 109.09(7) . 5 ?
Au2 Al3 Al2 109.09(7) 9 5 ?
Au2 Al3 Al2 4.53(10) 5 5 ?
Au1 Al3 Al2 112.16(11) . 5 ?
Al2 Al3 Al2 106.66(12) . 5 ?
Al2 Al3 Al2 106.66(12) 9 5 ?
Au2 Al3 Yb1 164.13(9) . 9 ?
Au2 Al3 Yb1 62.160(4) 9 9 ?
Au2 Al3 Yb1 62.160(4) 5 9 ?
Au1 Al3 Yb1 88.24(4) . 9 ?
Al2 Al3 Yb1 159.60(13) . 9 ?
Al2 Al3 Yb1 63.17(3) 9 9 ?
Al2 Al3 Yb1 63.17(3) 5 9 ?
Au2 Al3 Yb1 62.160(4) . . ?
Au2 Al3 Yb1 62.160(4) 9 . ?
Au2 Al3 Yb1 164.13(9) 5 . ?
Au1 Al3 Yb1 88.24(4) . . ?
Al2 Al3 Yb1 63.17(3) . . ?
Al2 Al3 Yb1 63.17(3) 9 . ?
Al2 Al3 Yb1 159.60(13) 5 . ?
Yb1 Al3 Yb1 119.907(4) 9 . ?
Au2 Al3 Yb1 62.160(4) . 5 ?
Au2 Al3 Yb1 164.13(9) 9 5 ?
Au2 Al3 Yb1 62.160(4) 5 5 ?
Au1 Al3 Yb1 88.24(4) . 5 ?
Al2 Al3 Yb1 63.17(3) . 5 ?
Al2 Al3 Yb1 159.60(13) 9 5 ?
Al2 Al3 Yb1 63.17(3) 5 5 ?
Yb1 Al3 Yb1 119.907(4) 9 5 ?
Yb1 Al3 Yb1 119.907(4) . 5 ?
loop_
_geom_bond_atom_site_label_1
_geom_bond_atom_site_label_2
_geom_bond_distance
_geom_bond_site_symmetry_2
_geom_bond_publ_flag
Au1 Al3 2.618(2) 25 ?
Au1 Al3 2.618(2) . ?
Au1 Al3 2.618(2) 28 ?
Au1 Al3 2.618(2) 2 ?
Au1 Al3 2.618(2) 26 ?
Au1 Al3 2.618(2) 3 ?
Au1 Al3 2.618(2) 27 ?
Au1 Al3 2.618(2) 4 ?
Au2 Al3 2.5050(10) 26 ?
Au2 Al3 2.5050(10) . ?
Au2 Al2 2.596(6) 27_565 ?
Au2 Al2 2.596(6) 3_655 ?
Au2 Al1 2.7864(8) 5 ?
Au2 Al1 2.7864(8) . ?
Au2 Al1 2.7864(8) 6_565 ?
Au2 Al1 2.7864(8) 26 ?
Au2 Au2 2.8425(11) 3_655 ?
Au2 Au2 2.8425(11) 27_565 ?
Au2 Yb1 3.2510(3) . ?
Au2 Yb1 3.2510(3) 5 ?
Al2 Al2 2.323(13) 27_565 ?
Al2 Al2 2.323(13) 3_655 ?
Al2 Au2 2.596(6) 27_565 ?
Al2 Au2 2.596(6) 3_655 ?
Al2 Al1 2.7340(10) 5 ?
Al2 Al1 2.7340(10) . ?
Al2 Al1 2.7340(10) 6_565 ?
Al2 Al1 2.7340(10) 26 ?
Al2 Al3 2.807(8) 26 ?
Al2 Al3 2.807(8) . ?
Al2 Yb1 3.389(4) 5 ?
Al2 Yb1 3.389(4) . ?
Yb1 Au2 3.2510(3) 35_655 ?
Yb1 Au2 3.2510(3) 11 ?
Yb1 Au2 3.2510(3) 27 ?
Yb1 Au2 3.2510(3) 3_655 ?
Yb1 Au2 3.2510(3) 25_655 ?
Yb1 Au2 3.2510(3) 33_655 ?
Yb1 Au2 3.2510(3) 9 ?
Yb1 Al1 3.2798(17) . ?
Yb1 Al1 3.2798(17) 25_655 ?
Yb1 Al1 3.2798(17) 26 ?
Yb1 Al1 3.2798(17) 2_655 ?
Al1 Al2 2.7340(10) 9 ?
Al1 Al2 2.7340(10) 35_655 ?
Al1 Al2 2.7340(10) 3_655 ?
Al1 Au2 2.7864(8) 9 ?
Al1 Au2 2.7864(8) 3_655 ?
Al1 Au2 2.7864(8) 35_655 ?
Al1 Al1 2.8652(17) 10_656 ?
Al1 Al1 2.8652(17) 30_655 ?
Al1 Zr1 2.8652(17) . ?
Al1 Al1 2.8652(17) 5 ?
Zr1 Al1 2.8652(17) 33_666 ?
Zr1 Al1 2.8652(17) 29_666 ?
Zr1 Al1 2.8652(17) 25_666 ?
Zr1 Al1 2.8652(17) 9 ?
Zr1 Al1 2.8652(17) 5 ?
Zr1 Al1 2.8652(17) 34_565 ?
Zr1 Al1 2.8652(17) 6_566 ?
Zr1 Al1 2.8652(17) 30_655 ?
Zr1 Al1 2.8652(17) 2_665 ?
Zr1 Al1 2.8652(17) 26_556 ?
Zr1 Al1 2.8652(17) 10_656 ?
Al3 Au2 2.5050(10) 9 ?
Al3 Au2 2.5050(10) 5 ?
Al3 Al2 2.807(8) 9 ?
Al3 Al2 2.807(8) 5 ?
Al3 Yb1 3.5495(2) 9 ?
Al3 Yb1 3.5495(2) 5 ?
