#------------------------------------------------------------------------------
#$Date: 2016-03-22 23:30:56 +0200 (Tue, 22 Mar 2016) $
#$Revision: 179064 $
#$URL: svn://www.crystallography.net/cod/cif/4/30/26/4302644.cif $
#------------------------------------------------------------------------------
#
# This file is available in the Crystallography Open Database (COD),
# http://www.crystallography.net/
#
# All data on this site have been placed in the public domain by the
# contributors.
#
data_4302644
loop_
_publ_author_name
'Bin Li'
'Sung-Jin Kim'
'Gordon J. Miller'
'John D. Corbett'
_publ_section_title
;
Gold Tetrahedra as Building Blocks in K3Au5Tr (Tr = In, Tl) and Rb2Au3Tl
and in Other Compounds: A Broad Group of Electron-Poor Intermetallic Phases
;
_journal_name_full               'Inorganic Chemistry'
_journal_page_first              6573
_journal_page_last               6583
_journal_paper_doi               10.1021/ic9004856
_journal_volume                  48
_journal_year                    2009
_chemical_formula_sum            'Au5 K3 Tl'
_chemical_formula_weight         1306.50
_chemical_name_systematic
; 
 ? 
;
_space_group_IT_number           74
_symmetry_cell_setting           orthorhombic
_symmetry_space_group_name_Hall  '-I 2b 2'
_symmetry_space_group_name_H-M   'I m m a'
_atom_sites_solution_hydrogens   geom
_atom_sites_solution_primary     direct
_atom_sites_solution_secondary   difmap
_audit_creation_method           SHELXL-97
_cell_angle_alpha                90.00
_cell_angle_beta                 90.00
_cell_angle_gamma                90.00
_cell_formula_units_Z            4
_cell_length_a                   5.5950(11)
_cell_length_b                   19.706(4)
_cell_length_c                   8.4300(17)
_cell_measurement_reflns_used    2545
_cell_measurement_temperature    293(2)
_cell_measurement_theta_max      28.17
_cell_measurement_theta_min      2.61
_cell_volume                     929.5(3)
_computing_cell_refinement       'Bruker XSCANS'
_computing_data_collection       'Bruker XSCANS'
_computing_data_reduction        'Bruker SHELXTL'
_computing_molecular_graphics    'Bruker SHELXTL'
_computing_publication_material  'Bruker SHELXTL'
_computing_structure_refinement  'SHELXL-97 (Sheldrick, 1997)'
_computing_structure_solution    'SHELXS-97 (Sheldrick, 1990)'
_diffrn_ambient_temperature      293(2)
_diffrn_measured_fraction_theta_full 0.968
_diffrn_measured_fraction_theta_max 0.968
_diffrn_measurement_device_type  'CCD area detector'
_diffrn_measurement_method       'phi and omega scans'
_diffrn_radiation_monochromator  graphite
_diffrn_radiation_source         'fine-focus sealed tube'
_diffrn_radiation_type           MoK\a
_diffrn_radiation_wavelength     0.71073
_diffrn_reflns_av_R_equivalents  0.1546
_diffrn_reflns_av_sigmaI/netI    0.0706
_diffrn_reflns_limit_h_max       7
_diffrn_reflns_limit_h_min       -7
_diffrn_reflns_limit_k_max       25
_diffrn_reflns_limit_k_min       -25
_diffrn_reflns_limit_l_max       10
_diffrn_reflns_limit_l_min       -10
_diffrn_reflns_number            3948
_diffrn_reflns_theta_full        28.24
_diffrn_reflns_theta_max         28.24
_diffrn_reflns_theta_min         2.07
_exptl_absorpt_coefficient_mu    97.154
_exptl_absorpt_correction_type   empirical
_exptl_crystal_colour            silver
_exptl_crystal_density_diffrn    9.337
_exptl_crystal_density_method    'not measured'
_exptl_crystal_description       irregular
_exptl_crystal_F_000             2132
_exptl_crystal_size_max          0.21
_exptl_crystal_size_mid          0.19
_exptl_crystal_size_min          0.15
_refine_diff_density_max         4.435
_refine_diff_density_min         -2.766
_refine_diff_density_rms         0.841
_refine_ls_extinction_coef       0.00042(5)
_refine_ls_extinction_expression Fc^*^=kFc[1+0.001xFc^2^\l^3^/sin(2\q)]^-1/4^
_refine_ls_extinction_method     SHELXL
_refine_ls_goodness_of_fit_ref   1.264
_refine_ls_hydrogen_treatment    mixed
_refine_ls_matrix_type           full
_refine_ls_number_parameters     31
_refine_ls_number_reflns         636
_refine_ls_number_restraints     0
_refine_ls_restrained_S_all      1.264
_refine_ls_R_factor_all          0.0464
_refine_ls_R_factor_gt           0.0433
_refine_ls_shift/su_max          0.000
_refine_ls_shift/su_mean         0.000
_refine_ls_structure_factor_coef Fsqd
_refine_ls_weighting_details
'calc w=1/[\s^2^(Fo^2^)+(0.0061P)^2^+100.0000P] where P=(Fo^2^+2Fc^2^)/3'
_refine_ls_weighting_scheme      calc
_refine_ls_wR_factor_gt          0.1059
_refine_ls_wR_factor_ref         0.1074
_reflns_number_gt                586
_reflns_number_total             636
_reflns_threshold_expression     >2sigma(I)
_cod_data_source_file            ic9004856_si_002_2.cif
_cod_data_source_block           K3Au5Tl
_cod_depositor_comments
;
The following automatic conversions were performed:
'_symmetry_cell_setting' value 'Orthorhombic' changed to 'orthorhombic'
according to '/home/saulius/struct/CIF-dictionaries/cif_core.dic'
dictionary named 'cif_core.dic' version 2.4.1 from 2010-06-29.

Automatic conversion script
Id: cif_fix_enum 1527 2010-12-29 10:47:43Z saulius 
;
_cod_database_code               4302644
loop_
_symmetry_equiv_pos_as_xyz
'x, y, z'
'-x, -y+1/2, z'
'-x, y+1/2, -z'
'x, -y, -z'
'x+1/2, y+1/2, z+1/2'
'-x+1/2, -y+1, z+1/2'
'-x+1/2, y+1, -z+1/2'
'x+1/2, -y+1/2, -z+1/2'
'-x, -y, -z'
'x, y-1/2, -z'
'x, -y-1/2, z'
'-x, y, z'
'-x+1/2, -y+1/2, -z+1/2'
'x+1/2, y, -z+1/2'
'x+1/2, -y, z+1/2'
'-x+1/2, y+1/2, z+1/2'
loop_
_atom_site_label
_atom_site_type_symbol
_atom_site_fract_x
_atom_site_fract_y
_atom_site_fract_z
_atom_site_U_iso_or_equiv
_atom_site_adp_type
_atom_site_occupancy
_atom_site_symmetry_multiplicity
_atom_site_calc_flag
_atom_site_refinement_flags
_atom_site_disorder_assembly
_atom_site_disorder_group
Au1 Au 0.0000 0.14381(5) 0.04153(13) 0.0211(3) Uani 1 2 d S . .
Au2 Au 0.2500 0.06181(5) 0.2500 0.0183(3) Uani 1 2 d S . .
Au3 Au 0.0000 0.0000 0.0000 0.0167(4) Uani 1 4 d S . .
Tl Tl 0.0000 0.2500 0.83638(18) 0.0220(4) Uani 1 4 d S . .
K1 K 0.0000 0.0879(3) 0.6223(8) 0.0245(12) Uani 1 2 d S . .
K2 K 0.0000 0.2500 0.3798(12) 0.031(2) Uani 1 4 d S . .
loop_
_atom_site_aniso_label
_atom_site_aniso_U_11
_atom_site_aniso_U_22
_atom_site_aniso_U_33
_atom_site_aniso_U_23
_atom_site_aniso_U_13
_atom_site_aniso_U_12
Au1 0.0164(5) 0.0171(5) 0.0298(6) 0.0034(4) 0.000 0.000
Au2 0.0102(5) 0.0217(5) 0.0230(6) 0.000 -0.0028(3) 0.000
Au3 0.0124(6) 0.0164(6) 0.0212(7) -0.0022(5) 0.000 0.000
Tl 0.0224(7) 0.0172(6) 0.0264(8) 0.000 0.000 0.000
K1 0.016(3) 0.028(3) 0.029(3) 0.001(3) 0.000 0.000
K2 0.021(4) 0.041(5) 0.031(5) 0.000 0.000 0.000
loop_
_atom_type_symbol
_atom_type_description
_atom_type_scat_dispersion_real
_atom_type_scat_dispersion_imag
_atom_type_scat_source
K K 0.2009 0.2494 'International Tables Vol C Tables 4.2.6.8 and 6.1.1.4'
Au Au -2.0133 8.8022 'International Tables Vol C Tables 4.2.6.8 and 6.1.1.4'
Tl Tl -2.8358 9.6688 'International Tables Vol C Tables 4.2.6.8 and 6.1.1.4'
loop_
_geom_bond_atom_site_label_1
_geom_bond_atom_site_label_2
_geom_bond_distance
_geom_bond_site_symmetry_2
_geom_bond_publ_flag
Au1 Tl 2.7147(14) 1_554 ?
Au1 Au2 2.7670(11) . ?
Au1 Au2 2.7670(11) 14_455 ?
Au1 Au3 2.8555(11) . ?
Au1 K1 3.309(3) 14_455 ?
Au1 K1 3.309(3) 14 ?
Au1 K2 3.537(8) . ?
Au1 K2 3.556(2) 13 ?
Au1 K2 3.556(2) 13_455 ?
Au1 K1 3.702(7) 1_554 ?
Au2 Au1 2.7670(11) 14 ?
Au2 Au2 2.7975(5) 14 ?
Au2 Au2 2.7975(5) 14_455 ?
Au2 Au3 2.8075(6) . ?
Au2 Au3 2.8075(6) 6_545 ?
Au2 K1 3.438(6) 9_556 ?
Au2 K1 3.438(6) 6_544 ?
Au2 K1 3.474(6) . ?
Au2 K1 3.474(6) 14 ?
Au2 K2 4.112(3) 13 ?
Au2 K2 4.112(3) . ?
Au3 Au2 2.8075(6) 9 ?
Au3 Au2 2.8075(6) 14_455 ?
Au3 Au2 2.8075(6) 6_544 ?
Au3 Au1 2.8555(11) 9 ?
Au3 K1 3.448(4) 14 ?
Au3 K1 3.448(4) 6_444 ?
Au3 K1 3.448(4) 14_455 ?
Au3 K1 3.448(4) 6_544 ?
Au3 K1 3.625(6) 1_554 ?
Au3 K1 3.625(6) 9_556 ?
Tl Au1 2.7147(14) 2_556 ?
Tl Au1 2.7147(14) 1_556 ?
Tl Tl 3.1539(15) 13_456 ?
Tl Tl 3.1539(15) 13_556 ?
Tl K1 3.669(6) . ?
Tl K1 3.669(6) 2 ?
Tl K2 3.681(6) 13_556 ?
Tl K2 3.681(6) 13_456 ?
Tl K2 3.849(10) . ?
Tl K1 4.260(5) 13_556 ?
Tl K1 4.260(5) 14_456 ?
Tl K1 4.260(5) 14_556 ?
K1 Au1 3.309(3) 14_455 ?
K1 Au1 3.309(3) 14 ?
K1 Au2 3.438(6) 9_556 ?
K1 Au2 3.438(6) 6_545 ?
K1 Au3 3.448(4) 6_445 ?
K1 Au3 3.448(4) 6_545 ?
K1 Au2 3.474(6) 14_455 ?
K1 K1 3.530(8) 14_556 ?
K1 K1 3.530(8) 14_456 ?
K1 Au3 3.625(6) 1_556 ?
K2 Au1 3.537(8) 2 ?
K2 K2 3.552(12) 13_455 ?
K2 K2 3.552(12) 13 ?
K2 Au1 3.556(2) 13 ?
K2 Au1 3.556(2) 14_455 ?
K2 Au1 3.556(2) 14 ?
K2 Au1 3.556(2) 13_455 ?
K2 Tl 3.681(6) 13_556 ?
K2 Tl 3.681(6) 13_456 ?
K2 K1 3.792(8) 2 ?
