#------------------------------------------------------------------------------
#$Date: 2016-03-22 23:48:09 +0200 (Tue, 22 Mar 2016) $
#$Revision: 179078 $
#$URL: svn://www.crystallography.net/cod/cif/4/30/40/4304072.cif $
#------------------------------------------------------------------------------
#
# This file is available in the Crystallography Open Database (COD),
# http://www.crystallography.net/
#
# All data on this site have been placed in the public domain by the
# contributors.
#
data_4304072
loop_
_publ_author_name
'Oksana Ya. Zelinska'
'Arthur Mar'
_publ_contact_author_address
; Department of Chemistry
  University of Alberta
  Edmonton, AB
  Canada  T6G 2G2
;
_publ_contact_author_email       arthur.mar@ualberta.ca
_publ_contact_author_fax         '(780) 492-8231'
_publ_contact_author_name        'Dr. Arthur Mar'
_publ_contact_author_phone       '(780) 492-5592'
_publ_section_title
;
Ternary Rare-Earth Manganese Bismuthides: Structures and Physical
Properties of RE3MnBi5 (RE = La-Nd) and Sm2Mn3Bi6
;
_journal_name_full               'Inorganic Chemistry'
_journal_page_first              297
_journal_page_last               305
_journal_paper_doi               10.1021/ic701428p
_journal_volume                  47
_journal_year                    2008
_chemical_formula_structural     'La3 Mn Bi5'
_chemical_formula_sum            'Bi5 La3 Mn'
_chemical_formula_weight         1516.57
_chemical_name_common            'lanthanum manganese bismuthide (3/1/5)'
_chemical_name_systematic        'trilanthanum manganese pentabismuthide'
_space_group_IT_number           193
_symmetry_cell_setting           hexagonal
_symmetry_space_group_name_Hall  '-P 6c 2'
_symmetry_space_group_name_H-M   'P 63/m c m'
_atom_sites_solution_primary     direct
_atom_sites_solution_secondary   difmap
_audit_creation_date             'June 3, 2007'
_audit_creation_method           'SHELXL-97; manual editing of .cif file'
_cell_angle_alpha                90.00
_cell_angle_beta                 90.00
_cell_angle_gamma                120.00
_cell_formula_units_Z            2
_cell_length_a                   9.7139(11)
_cell_length_b                   9.7139(11)
_cell_length_c                   6.4883(7)
_cell_measurement_reflns_used    1339
_cell_measurement_temperature    193(2)
_cell_measurement_theta_max      30.46
_cell_measurement_theta_min      4.85
_cell_volume                     530.21(10)
_computing_cell_refinement       'Bruker SAINT 6.45 (Bruker, 2003)'
_computing_data_collection       'Bruker SMART 5.054 (Bruker, 1999)'
_computing_data_reduction        'Bruker SAINT 6.45'
_computing_molecular_graphics    'ATOMS 5.1 (Dowty, 1999)'
_computing_publication_material  'Bruker SHELXTL 6.12'
_computing_structure_refinement  'Bruker SHELXTL 6.12'
_computing_structure_solution    'Bruker SHELXTL 6.12'
_diffrn_ambient_temperature      193(2)
_diffrn_measured_fraction_theta_full 1.000
_diffrn_measured_fraction_theta_max 1.000
_diffrn_measurement_device_type  'Bruker Platform/SMART 1000 CCD'
_diffrn_measurement_method       '\w scans'
_diffrn_radiation_monochromator  graphite
_diffrn_radiation_source         'fine-focus sealed tube'
_diffrn_radiation_type           MoK\a
_diffrn_radiation_wavelength     0.71073
_diffrn_reflns_av_R_equivalents  0.0738
_diffrn_reflns_av_sigmaI/netI    0.0321
_diffrn_reflns_limit_h_max       14
_diffrn_reflns_limit_h_min       -14
_diffrn_reflns_limit_k_max       14
_diffrn_reflns_limit_k_min       -14
_diffrn_reflns_limit_l_max       9
_diffrn_reflns_limit_l_min       -9
_diffrn_reflns_number            5813
_diffrn_reflns_theta_full        33.10
_diffrn_reflns_theta_max         33.10
_diffrn_reflns_theta_min         2.42
_diffrn_standards_number         0
_exptl_absorpt_coefficient_mu    95.517
_exptl_absorpt_correction_T_max  0.0855
_exptl_absorpt_correction_T_min  0.0087
_exptl_absorpt_correction_type   numerical
_exptl_absorpt_process_details   'Bruker SHELXTL 6.12 (Sheldrick, 2001)'
_exptl_crystal_colour            black
_exptl_crystal_density_diffrn    9.499
_exptl_crystal_density_method    'not measured'
_exptl_crystal_description       rod
_exptl_crystal_F_000             1222
_exptl_crystal_size_max          0.32
_exptl_crystal_size_mid          0.04
_exptl_crystal_size_min          0.04
_refine_diff_density_max         1.927
_refine_diff_density_min         -2.530
_refine_diff_density_rms         0.483
_refine_ls_extinction_coef       0.00280(18)
_refine_ls_extinction_expression Fc^*^=kFc[1+0.001xFc^2^\l^3^/sin(2\q)]^-1/4^
_refine_ls_extinction_method     SHELXL
_refine_ls_goodness_of_fit_ref   1.183
_refine_ls_matrix_type           full
_refine_ls_number_parameters     14
_refine_ls_number_reflns         393
_refine_ls_number_restraints     0
_refine_ls_restrained_S_all      1.183
_refine_ls_R_factor_all          0.0285
_refine_ls_R_factor_gt           0.0219
_refine_ls_shift/su_max          0.000
_refine_ls_shift/su_mean         0.000
_refine_ls_structure_factor_coef Fsqd
_refine_ls_weighting_details
'calc w=1/[\s^2^(Fo^2^)+(0.0164P)^2^+4.3849P] where P=(Fo^2^+2Fc^2^)/3'
_refine_ls_weighting_scheme      calc
_refine_ls_wR_factor_gt          0.0474
_refine_ls_wR_factor_ref         0.0488
_reflns_number_gt                344
_reflns_number_total             393
_reflns_threshold_expression     I>2\s(I)
_cod_data_source_file            ic701428p-file003.cif
_cod_data_source_block           La3MnBi5
_cod_database_code               4304072
loop_
_symmetry_equiv_pos_as_xyz
'x, y, z'
'-y, x-y, z'
'-x+y, -x, z'
'-x, -y, z+1/2'
'y, -x+y, z+1/2'
'x-y, x, z+1/2'
'y, x, -z+1/2'
'x-y, -y, -z+1/2'
'-x, -x+y, -z+1/2'
'-y, -x, -z'
'-x+y, y, -z'
'x, x-y, -z'
'-x, -y, -z'
'y, -x+y, -z'
'x-y, x, -z'
'x, y, -z-1/2'
'-y, x-y, -z-1/2'
'-x+y, -x, -z-1/2'
'-y, -x, z-1/2'
'-x+y, y, z-1/2'
'x, x-y, z-1/2'
'y, x, z'
'x-y, -y, z'
'-x, -x+y, z'
loop_
_atom_site_label
_atom_site_type_symbol
_atom_site_fract_x
_atom_site_fract_y
_atom_site_fract_z
_atom_site_U_iso_or_equiv
_atom_site_adp_type
_atom_site_occupancy
_atom_site_symmetry_multiplicity
_atom_site_calc_flag
_atom_site_refinement_flags
_atom_site_disorder_assembly
_atom_site_disorder_group
La La 0.61926(7) 0.0000 0.2500 0.01011(17) Uani 1 4 d S . .
Mn Mn 0.0000 0.0000 0.0000 0.0133(6) Uani 1 12 d S . .
Bi1 Bi 0.25769(5) 0.0000 0.2500 0.01029(14) Uani 1 4 d S . .
Bi2 Bi 0.3333 0.6667 0.0000 0.00926(15) Uani 1 6 d S . .
loop_
_atom_site_aniso_label
_atom_site_aniso_U_11
_atom_site_aniso_U_22
_atom_site_aniso_U_33
_atom_site_aniso_U_23
_atom_site_aniso_U_13
_atom_site_aniso_U_12
La 0.0101(2) 0.0109(3) 0.0096(3) 0.000 0.000 0.00545(17)
Mn 0.0139(9) 0.0139(9) 0.0120(17) 0.000 0.000 0.0070(4)
Bi1 0.01024(17) 0.0102(2) 0.0104(2) 0.000 0.000 0.00510(11)
Bi2 0.00949(17) 0.00949(17) 0.0088(3) 0.000 0.000 0.00474(9)
loop_
_atom_type_symbol
_atom_type_description
_atom_type_scat_dispersion_real
_atom_type_scat_dispersion_imag
_atom_type_scat_source
Mn Mn 0.3368 0.7283 'International Tables Vol C Tables 4.2.6.8 and 6.1.1.4'
La La -0.2871 2.4523 'International Tables Vol C Tables 4.2.6.8 and 6.1.1.4'
Bi Bi -4.1077 10.2566 'International Tables Vol C Tables 4.2.6.8 and 6.1.1.4'
loop_
_geom_angle_atom_site_label_1
_geom_angle_atom_site_label_2
_geom_angle_atom_site_label_3
_geom_angle
_geom_angle_site_symmetry_1
_geom_angle_site_symmetry_3
_geom_angle_publ_flag
Bi1 La Bi1 83.08(2) 2_655 3_655 ?
Bi1 La Bi2 142.423(16) 2_655 1_545 ?
Bi1 La Bi2 73.234(7) 3_655 1_545 ?
Bi1 La Bi2 142.423(16) 2_655 16_546 ?
Bi1 La Bi2 73.234(7) 3_655 16_546 ?
Bi2 La Bi2 56.260(8) 1_545 16_546 ?
Bi1 La Bi2 73.235(7) 2_655 4_665 ?
Bi1 La Bi2 142.424(16) 3_655 4_665 ?
Bi2 La Bi2 140.64(2) 1_545 4_665 ?
Bi2 La Bi2 109.187(13) 16_546 4_665 ?
Bi1 La Bi2 73.235(7) 2_655 13_665 ?
Bi1 La Bi2 142.424(16) 3_655 13_665 ?
Bi2 La Bi2 109.187(13) 1_545 13_665 ?
Bi2 La Bi2 140.64(2) 16_546 13_665 ?
Bi2 La Bi2 56.259(8) 4_665 13_665 ?
Bi1 La Bi1 75.003(13) 2_655 13_656 ?
Bi1 La Bi1 75.003(13) 3_655 13_656 ?
Bi2 La Bi1 123.974(3) 1_545 13_656 ?
Bi2 La Bi1 70.974(6) 16_546 13_656 ?
Bi2 La Bi1 70.975(6) 4_665 13_656 ?
Bi2 La Bi1 123.974(4) 13_665 13_656 ?
Bi1 La Bi1 75.003(13) 2_655 13_655 ?
Bi1 La Bi1 75.003(13) 3_655 13_655 ?
Bi2 La Bi1 70.974(6) 1_545 13_655 ?
Bi2 La Bi1 123.974(3) 16_546 13_655 ?
Bi2 La Bi1 123.974(3) 4_665 13_655 ?
Bi2 La Bi1 70.975(6) 13_665 13_655 ?
Bi1 La Bi1 139.55(3) 13_656 13_655 ?
Bi1 La Bi1 138.460(12) 2_655 . ?
Bi1 La Bi1 138.460(12) 3_655 . ?
Bi2 La Bi1 70.323(11) 1_545 . ?
Bi2 La Bi1 70.323(11) 16_546 . ?
Bi2 La Bi1 70.322(11) 4_665 . ?
Bi2 La Bi1 70.322(11) 13_665 . ?
Bi1 La Bi1 110.226(14) 13_656 . ?
Bi1 La Bi1 110.226(14) 13_655 . ?
Bi1 La La 115.787(9) 2_655 13_655 ?
Bi1 La La 115.787(9) 3_655 13_655 ?
Bi2 La La 54.594(6) 1_545 13_655 ?
Bi2 La La 100.834(18) 16_546 13_655 ?
Bi2 La La 100.833(18) 4_665 13_655 ?
Bi2 La La 54.593(6) 13_665 13_655 ?
Bi1 La La 164.69(3) 13_656 13_655 ?
Bi1 La La 55.761(12) 13_655 13_655 ?
Bi1 La La 54.465(17) . 13_655 ?
Bi1 La La 115.787(9) 2_655 13_656 ?
Bi1 La La 115.787(9) 3_655 13_656 ?
Bi2 La La 100.834(18) 1_545 13_656 ?
Bi2 La La 54.594(6) 16_546 13_656 ?
Bi2 La La 54.593(6) 4_665 13_656 ?
Bi2 La La 100.833(18) 13_665 13_656 ?
Bi1 La La 55.761(11) 13_656 13_656 ?
Bi1 La La 164.69(3) 13_655 13_656 ?
Bi1 La La 54.465(17) . 13_656 ?
La La La 108.93(3) 13_655 13_656 ?
Bi1 Mn Bi1 86.767(9) . 14 ?
Bi1 Mn Bi1 180.0 . 13 ?
Bi1 Mn Bi1 93.233(9) 14 13 ?
Bi1 Mn Bi1 93.233(9) . 2 ?
Bi1 Mn Bi1 180.0 14 2 ?
Bi1 Mn Bi1 86.767(9) 13 2 ?
Bi1 Mn Bi1 86.767(9) . 15 ?
Bi1 Mn Bi1 93.233(9) 14 15 ?
Bi1 Mn Bi1 93.233(9) 13 15 ?
Bi1 Mn Bi1 86.767(9) 2 15 ?
Bi1 Mn Bi1 93.233(9) . 3 ?
Bi1 Mn Bi1 86.767(9) 14 3 ?
Bi1 Mn Bi1 86.767(9) 13 3 ?
Bi1 Mn Bi1 93.233(9) 2 3 ?
Bi1 Mn Bi1 180.000(16) 15 3 ?
Mn Bi1 Mn 65.887(13) . 4 ?
Mn Bi1 La 80.336(10) . 2_545 ?
Mn Bi1 La 80.336(10) 4 2_545 ?
Mn Bi1 La 80.336(10) . 3_665 ?
Mn Bi1 La 80.336(10) 4 3_665 ?
La Bi1 La 156.92(2) 2_545 3_665 ?
Mn Bi1 La 143.170(17) . 13_656 ?
Mn Bi1 La 77.282(13) 4 13_656 ?
La Bi1 La 93.966(2) 2_545 13_656 ?
La Bi1 La 93.966(2) 3_665 13_656 ?
Mn Bi1 La 77.282(13) . 13_655 ?
Mn Bi1 La 143.170(17) 4 13_655 ?
La Bi1 La 93.966(2) 2_545 13_655 ?
La Bi1 La 93.966(2) 3_665 13_655 ?
La Bi1 La 139.55(3) 13_656 13_655 ?
Mn Bi1 La 147.056(6) . . ?
Mn Bi1 La 147.056(6) 4 . ?
La Bi1 La 101.539(12) 2_545 . ?
La Bi1 La 101.539(12) 3_665 . ?
La Bi1 La 69.774(14) 13_656 . ?
La Bi1 La 69.774(14) 13_655 . ?
Bi2 Bi2 Bi2 180.0 16_556 16 ?
Bi2 Bi2 La 118.130(4) 16_556 14_565 ?
Bi2 Bi2 La 61.870(4) 16 14_565 ?
Bi2 Bi2 La 61.870(4) 16_556 1_565 ?
Bi2 Bi2 La 118.130(4) 16 1_565 ?
La Bi2 La 166.69(2) 14_565 1_565 ?
Bi2 Bi2 La 61.871(5) 16_556 2 ?
Bi2 Bi2 La 118.131(5) 16 2 ?
La Bi2 La 70.813(13) 14_565 2 ?
La Bi2 La 99.588(6) 1_565 2 ?
Bi2 Bi2 La 118.131(5) 16_556 13_665 ?
Bi2 Bi2 La 61.871(5) 16 13_665 ?
La Bi2 La 99.588(6) 14_565 13_665 ?
La Bi2 La 70.813(13) 1_565 13_665 ?
La Bi2 La 91.28(2) 2 13_665 ?
Bi2 Bi2 La 118.129(4) 16_556 15 ?
Bi2 Bi2 La 61.869(5) 16 15 ?
La Bi2 La 99.588(6) 14_565 15 ?
La Bi2 La 91.28(2) 1_565 15 ?
La Bi2 La 166.69(2) 2 15 ?
La Bi2 La 99.588(6) 13_665 15 ?
Bi2 Bi2 La 61.869(5) 16_556 3_665 ?
Bi2 Bi2 La 118.129(5) 16 3_665 ?
La Bi2 La 91.28(2) 14_565 3_665 ?
La Bi2 La 99.588(6) 1_565 3_665 ?
La Bi2 La 99.588(6) 2 3_665 ?
La Bi2 La 166.69(2) 13_665 3_665 ?
La Bi2 La 70.813(13) 15 3_665 ?
loop_
_geom_bond_atom_site_label_1
_geom_bond_atom_site_label_2
_geom_bond_distance
_geom_bond_site_symmetry_2
_geom_bond_publ_flag
La Bi1 3.2690(7) 2_655 ?
La Bi1 3.2690(7) 3_655 ?
La Bi2 3.4404(4) 1_545 ?
La Bi2 3.4404(4) 16_546 ?
La Bi2 3.4405(4) 4_665 ?
La Bi2 3.4405(4) 13_665 ?
La Bi1 3.4573(4) 13_656 ?
La Bi1 3.4573(4) 13_655 ?
La Bi1 3.5123(9) . ?
La La 3.9866(9) 13_655 ?
La La 3.9866(9) 13_656 ?
Mn Bi1 2.9828(5) . ?
Mn Bi1 2.9828(5) 14 ?
Mn Bi1 2.9828(5) 13 ?
Mn Bi1 2.9828(5) 2 ?
Mn Bi1 2.9828(5) 15 ?
Mn Bi1 2.9828(5) 3 ?
Bi1 Mn 2.9828(5) 4 ?
Bi1 La 3.2690(7) 2_545 ?
Bi1 La 3.2690(7) 3_665 ?
Bi1 La 3.4573(4) 13_656 ?
Bi1 La 3.4573(4) 13_655 ?
Bi2 Bi2 3.2441(4) 16_556 ?
Bi2 Bi2 3.2441(4) 16 ?
Bi2 La 3.4404(4) 14_565 ?
Bi2 La 3.4404(4) 1_565 ?
Bi2 La 3.4404(4) 2 ?
Bi2 La 3.4404(4) 13_665 ?
Bi2 La 3.4404(4) 15 ?
Bi2 La 3.4404(4) 3_665 ?
