#------------------------------------------------------------------------------
#$Date: 2016-03-22 23:48:09 +0200 (Tue, 22 Mar 2016) $
#$Revision: 179078 $
#$URL: svn://www.crystallography.net/cod/cif/4/30/40/4304074.cif $
#------------------------------------------------------------------------------
#
# This file is available in the Crystallography Open Database (COD),
# http://www.crystallography.net/
#
# All data on this site have been placed in the public domain by the
# contributors.
#
data_4304074
loop_
_publ_author_name
'Oksana Ya. Zelinska'
'Arthur Mar'
_publ_contact_author_address
; Department of Chemistry
  University of Alberta
  Edmonton, AB
  Canada  T6G 2G2
;
_publ_contact_author_email       arthur.mar@ualberta.ca
_publ_contact_author_fax         '(780) 492-8231'
_publ_contact_author_name        'Dr. Arthur Mar'
_publ_contact_author_phone       '(780) 492-5592'
_publ_section_title
;
Ternary Rare-Earth Manganese Bismuthides: Structures and Physical
Properties of RE3MnBi5 (RE = La-Nd) and Sm2Mn3Bi6
;
_journal_name_full               'Inorganic Chemistry'
_journal_page_first              297
_journal_page_last               305
_journal_paper_doi               10.1021/ic701428p
_journal_volume                  47
_journal_year                    2008
_chemical_formula_structural     'Pr3 Mn Bi5'
_chemical_formula_sum            'Bi5 Mn Pr3'
_chemical_formula_weight         1522.57
_chemical_name_common            'praseodymium manganese bismuthide (3/1/5)'
_chemical_name_systematic        'tripraseodymium manganese pentabismuthide'
_space_group_IT_number           193
_symmetry_cell_setting           hexagonal
_symmetry_space_group_name_Hall  '-P 6c 2'
_symmetry_space_group_name_H-M   'P 63/m c m'
_atom_sites_solution_primary     direct
_atom_sites_solution_secondary   difmap
_audit_creation_date             'June 3, 2007'
_audit_creation_method           'SHELXL-97; manual editing of .cif file'
_cell_angle_alpha                90.00
_cell_angle_beta                 90.00
_cell_angle_gamma                120.00
_cell_formula_units_Z            2
_cell_length_a                   9.5849(11)
_cell_length_b                   9.5849(11)
_cell_length_c                   6.4311(8)
_cell_measurement_reflns_used    2219
_cell_measurement_temperature    193(2)
_cell_measurement_theta_max      32.44
_cell_measurement_theta_min      4.91
_cell_volume                     511.67(10)
_computing_cell_refinement       'Bruker SAINT 6.45 (Bruker, 2003)'
_computing_data_collection       'Bruker SMART 5.054 (Bruker, 1999)'
_computing_data_reduction        'Bruker SAINT 6.45'
_computing_molecular_graphics    'ATOMS 5.1 (Dowty, 1999)'
_computing_publication_material  'Bruker SHELXTL 6.12'
_computing_structure_refinement  'Bruker SHELXTL 6.12'
_computing_structure_solution    'Bruker SHELXTL 6.12'
_diffrn_ambient_temperature      193(2)
_diffrn_measured_fraction_theta_full 0.995
_diffrn_measured_fraction_theta_max 0.995
_diffrn_measurement_device_type  'Bruker Platform/SMART 1000 CCD'
_diffrn_measurement_method       '\w scans'
_diffrn_radiation_monochromator  graphite
_diffrn_radiation_source         'fine-focus sealed tube'
_diffrn_radiation_type           MoK\a
_diffrn_radiation_wavelength     0.71073
_diffrn_reflns_av_R_equivalents  0.0773
_diffrn_reflns_av_sigmaI/netI    0.0312
_diffrn_reflns_limit_h_max       14
_diffrn_reflns_limit_h_min       -14
_diffrn_reflns_limit_k_max       14
_diffrn_reflns_limit_k_min       -14
_diffrn_reflns_limit_l_max       9
_diffrn_reflns_limit_l_min       -9
_diffrn_reflns_number            6447
_diffrn_reflns_theta_full        33.13
_diffrn_reflns_theta_max         33.13
_diffrn_reflns_theta_min         2.45
_diffrn_standards_number         0
_exptl_absorpt_coefficient_mu    100.737
_exptl_absorpt_correction_T_max  0.0434
_exptl_absorpt_correction_T_min  0.0023
_exptl_absorpt_correction_type   numerical
_exptl_absorpt_process_details   'Bruker SHELXTL 6.12 (Sheldrick, 2001)'
_exptl_crystal_colour            black
_exptl_crystal_density_diffrn    9.882
_exptl_crystal_density_method    'not measured'
_exptl_crystal_description       rod
_exptl_crystal_F_000             1234
_exptl_crystal_size_max          0.44
_exptl_crystal_size_mid          0.07
_exptl_crystal_size_min          0.06
_refine_diff_density_max         2.569
_refine_diff_density_min         -2.586
_refine_diff_density_rms         0.609
_refine_ls_extinction_coef       0.0044(3)
_refine_ls_extinction_expression Fc^*^=kFc[1+0.001xFc^2^\l^3^/sin(2\q)]^-1/4^
_refine_ls_extinction_method     SHELXL
_refine_ls_goodness_of_fit_ref   1.128
_refine_ls_matrix_type           full
_refine_ls_number_parameters     14
_refine_ls_number_reflns         380
_refine_ls_number_restraints     0
_refine_ls_restrained_S_all      1.128
_refine_ls_R_factor_all          0.0270
_refine_ls_R_factor_gt           0.0253
_refine_ls_shift/su_max          0.000
_refine_ls_shift/su_mean         0.000
_refine_ls_structure_factor_coef Fsqd
_refine_ls_weighting_details
'calc w=1/[\s^2^(Fo^2^)+(0.0200P)^2^+13.5928P] where P=(Fo^2^+2Fc^2^)/3'
_refine_ls_weighting_scheme      calc
_refine_ls_wR_factor_gt          0.0562
_refine_ls_wR_factor_ref         0.0569
_reflns_number_gt                360
_reflns_number_total             380
_reflns_threshold_expression     I>2\s(I)
_cod_data_source_file            ic701428p-file005.cif
_cod_data_source_block           absfac1
_cod_database_code               4304074
loop_
_symmetry_equiv_pos_as_xyz
'x, y, z'
'-y, x-y, z'
'-x+y, -x, z'
'-x, -y, z+1/2'
'y, -x+y, z+1/2'
'x-y, x, z+1/2'
'y, x, -z+1/2'
'x-y, -y, -z+1/2'
'-x, -x+y, -z+1/2'
'-y, -x, -z'
'-x+y, y, -z'
'x, x-y, -z'
'-x, -y, -z'
'y, -x+y, -z'
'x-y, x, -z'
'x, y, -z-1/2'
'-y, x-y, -z-1/2'
'-x+y, -x, -z-1/2'
'-y, -x, z-1/2'
'-x+y, y, z-1/2'
'x, x-y, z-1/2'
'y, x, z'
'x-y, -y, z'
'-x, -x+y, z'
loop_
_atom_site_label
_atom_site_type_symbol
_atom_site_fract_x
_atom_site_fract_y
_atom_site_fract_z
_atom_site_U_iso_or_equiv
_atom_site_adp_type
_atom_site_occupancy
_atom_site_symmetry_multiplicity
_atom_site_calc_flag
_atom_site_refinement_flags
_atom_site_disorder_assembly
_atom_site_disorder_group
Pr Pr 0.61880(8) 0.0000 0.2500 0.00947(19) Uani 1 4 d S . .
Mn Mn 0.0000 0.0000 0.0000 0.0123(7) Uani 1 12 d S . .
Bi1 Bi 0.26017(5) 0.0000 0.2500 0.00935(16) Uani 1 4 d S . .
Bi2 Bi 0.3333 0.6667 0.0000 0.00833(17) Uani 1 6 d S . .
loop_
_atom_site_aniso_label
_atom_site_aniso_U_11
_atom_site_aniso_U_22
_atom_site_aniso_U_33
_atom_site_aniso_U_23
_atom_site_aniso_U_13
_atom_site_aniso_U_12
Pr 0.0090(2) 0.0099(4) 0.0098(3) 0.000 0.000 0.00494(18)
Mn 0.0123(10) 0.0123(10) 0.0123(17) 0.000 0.000 0.0062(5)
Bi1 0.0091(2) 0.0096(2) 0.0095(3) 0.000 0.000 0.00478(12)
Bi2 0.0087(2) 0.0087(2) 0.0075(3) 0.000 0.000 0.00437(10)
loop_
_atom_type_symbol
_atom_type_description
_atom_type_scat_dispersion_real
_atom_type_scat_dispersion_imag
_atom_type_scat_source
Mn Mn 0.3368 0.7283 'International Tables Vol C Tables 4.2.6.8 and 6.1.1.4'
Pr Pr -0.2180 2.8214 'International Tables Vol C Tables 4.2.6.8 and 6.1.1.4'
Bi Bi -4.1077 10.2566 'International Tables Vol C Tables 4.2.6.8 and 6.1.1.4'
loop_
_geom_angle_atom_site_label_1
_geom_angle_atom_site_label_2
_geom_angle_atom_site_label_3
_geom_angle
_geom_angle_site_symmetry_1
_geom_angle_site_symmetry_3
_geom_angle_publ_flag
Bi1 Pr Bi1 83.80(2) 2_655 3_655 ?
Bi1 Pr Bi2 142.516(17) 2_655 1_545 ?
Bi1 Pr Bi2 72.872(8) 3_655 1_545 ?
Bi1 Pr Bi2 142.516(17) 2_655 16_546 ?
Bi1 Pr Bi2 72.872(8) 3_655 16_546 ?
Bi2 Pr Bi2 56.503(9) 1_545 16_546 ?
Bi1 Pr Bi2 72.873(8) 2_655 4_665 ?
Bi1 Pr Bi2 142.517(17) 3_655 4_665 ?
Bi2 Pr Bi2 140.83(2) 1_545 4_665 ?
Bi2 Pr Bi2 109.096(13) 16_546 4_665 ?
Bi1 Pr Bi2 72.873(8) 2_655 13_665 ?
Bi1 Pr Bi2 142.517(17) 3_655 13_665 ?
Bi2 Pr Bi2 109.096(13) 1_545 13_665 ?
Bi2 Pr Bi2 140.83(2) 16_546 13_665 ?
Bi2 Pr Bi2 56.502(9) 4_665 13_665 ?
Bi1 Pr Bi1 75.369(13) 2_655 13_656 ?
Bi1 Pr Bi1 75.369(13) 3_655 13_656 ?
Bi2 Pr Bi1 123.987(4) 1_545 13_656 ?
Bi2 Pr Bi1 70.641(6) 16_546 13_656 ?
Bi2 Pr Bi1 70.642(7) 4_665 13_656 ?
Bi2 Pr Bi1 123.987(3) 13_665 13_656 ?
Bi1 Pr Bi1 75.369(13) 2_655 13_655 ?
Bi1 Pr Bi1 75.369(13) 3_655 13_655 ?
Bi2 Pr Bi1 70.641(7) 1_545 13_655 ?
Bi2 Pr Bi1 123.987(3) 16_546 13_655 ?
Bi2 Pr Bi1 123.987(4) 4_665 13_655 ?
Bi2 Pr Bi1 70.642(7) 13_665 13_655 ?
Bi1 Pr Bi1 140.32(3) 13_656 13_655 ?
Bi1 Pr Bi1 138.100(12) 2_655 . ?
Bi1 Pr Bi1 138.100(12) 3_655 . ?
Bi2 Pr Bi1 70.414(12) 1_545 . ?
Bi2 Pr Bi1 70.414(12) 16_546 . ?
Bi2 Pr Bi1 70.413(12) 4_665 . ?
Bi2 Pr Bi1 70.413(12) 13_665 . ?
Bi1 Pr Bi1 109.838(15) 13_656 . ?
Bi1 Pr Bi1 109.838(15) 13_655 . ?
Bi1 Pr Pr 115.479(9) 2_655 13_655 ?
Bi1 Pr Pr 115.479(9) 3_655 13_655 ?
Bi2 Pr Pr 54.548(7) 1_545 13_655 ?
Bi2 Pr Pr 101.101(19) 16_546 13_655 ?
Bi2 Pr Pr 101.100(19) 4_665 13_655 ?
Bi2 Pr Pr 54.548(7) 13_665 13_655 ?
Bi1 Pr Pr 164.53(3) 13_656 13_655 ?
Bi1 Pr Pr 55.145(12) 13_655 13_655 ?
Bi1 Pr Pr 54.693(18) . 13_655 ?
Bi1 Pr Pr 115.479(9) 2_655 13_656 ?
Bi1 Pr Pr 115.479(9) 3_655 13_656 ?
Bi2 Pr Pr 101.101(19) 1_545 13_656 ?
Bi2 Pr Pr 54.548(7) 16_546 13_656 ?
Bi2 Pr Pr 54.548(7) 4_665 13_656 ?
Bi2 Pr Pr 101.100(19) 13_665 13_656 ?
Bi1 Pr Pr 55.145(12) 13_656 13_656 ?
Bi1 Pr Pr 164.53(3) 13_655 13_656 ?
Bi1 Pr Pr 54.693(18) . 13_656 ?
Pr Pr Pr 109.39(4) 13_655 13_656 ?
Bi1 Mn Bi1 180.0 14 2 ?
Bi1 Mn Bi1 93.415(9) 14 13 ?
Bi1 Mn Bi1 86.585(9) 2 13 ?
Bi1 Mn Bi1 93.415(9) 14 15 ?
Bi1 Mn Bi1 86.585(9) 2 15 ?
Bi1 Mn Bi1 93.415(9) 13 15 ?
Bi1 Mn Bi1 86.585(9) 14 3 ?
Bi1 Mn Bi1 93.415(9) 2 3 ?
Bi1 Mn Bi1 86.585(9) 13 3 ?
Bi1 Mn Bi1 180.000(17) 15 3 ?
Bi1 Mn Bi1 86.585(9) 14 . ?
Bi1 Mn Bi1 93.415(9) 2 . ?
Bi1 Mn Bi1 180.0 13 . ?
Bi1 Mn Bi1 86.585(9) 15 . ?
Bi1 Mn Bi1 93.415(9) 3 . ?
Bi1 Mn Mn 122.811(7) 14 4 ?
Bi1 Mn Mn 57.189(7) 2 4 ?
Bi1 Mn Mn 122.811(7) 13 4 ?
Bi1 Mn Mn 122.811(7) 15 4 ?
Bi1 Mn Mn 57.189(7) 3 4 ?
Bi1 Mn Mn 57.189(7) . 4 ?
Bi1 Mn Mn 57.189(7) 14 4_554 ?
Bi1 Mn Mn 122.811(7) 2 4_554 ?
Bi1 Mn Mn 57.189(7) 13 4_554 ?
Bi1 Mn Mn 57.189(7) 15 4_554 ?
Bi1 Mn Mn 122.811(7) 3 4_554 ?
Bi1 Mn Mn 122.811(7) . 4_554 ?
Mn Mn Mn 180.0 4 4_554 ?
Mn Bi1 Mn 65.622(13) . 4 ?
Mn Bi1 Pr 80.020(11) . 2_545 ?
Mn Bi1 Pr 80.020(11) 4 2_545 ?
Mn Bi1 Pr 80.020(11) . 3_665 ?
Mn Bi1 Pr 80.020(11) 4 3_665 ?
Pr Bi1 Pr 156.20(2) 2_545 3_665 ?
Mn Bi1 Pr 142.649(18) . 13_656 ?
Mn Bi1 Pr 77.027(14) 4 13_656 ?
Pr Bi1 Pr 94.013(2) 2_545 13_656 ?
Pr Bi1 Pr 94.013(1) 3_665 13_656 ?
Mn Bi1 Pr 77.027(14) . 13_655 ?
Mn Bi1 Pr 142.649(18) 4 13_655 ?
Pr Bi1 Pr 94.013(1) 2_545 13_655 ?
Pr Bi1 Pr 94.013(2) 3_665 13_655 ?
Pr Bi1 Pr 140.32(3) 13_656 13_655 ?
Mn Bi1 Pr 147.189(7) . . ?
Mn Bi1 Pr 147.189(7) 4 . ?
Pr Bi1 Pr 101.900(12) 2_545 . ?
Pr Bi1 Pr 101.900(12) 3_665 . ?
Pr Bi1 Pr 70.162(15) 13_656 . ?
Pr Bi1 Pr 70.162(15) 13_655 . ?
Bi2 Bi2 Bi2 180.0 16_556 16 ?
Bi2 Bi2 Pr 61.749(5) 16_556 1_565 ?
Bi2 Bi2 Pr 118.251(5) 16 1_565 ?
Bi2 Bi2 Pr 118.251(5) 16_556 14_565 ?
Bi2 Bi2 Pr 61.749(5) 16 14_565 ?
Pr Bi2 Pr 166.56(2) 1_565 14_565 ?
Bi2 Bi2 Pr 61.749(5) 16_556 2 ?
Bi2 Bi2 Pr 118.252(5) 16 2 ?
Pr Bi2 Pr 99.435(6) 1_565 2 ?
Pr Bi2 Pr 70.905(13) 14_565 2 ?
Bi2 Bi2 Pr 118.252(4) 16_556 13_665 ?
Bi2 Bi2 Pr 61.749(4) 16 13_665 ?
Pr Bi2 Pr 70.905(13) 1_565 13_665 ?
Pr Bi2 Pr 99.435(6) 14_565 13_665 ?
Pr Bi2 Pr 91.53(2) 2 13_665 ?
Bi2 Bi2 Pr 118.250(5) 16_556 15 ?
Bi2 Bi2 Pr 61.748(5) 16 15 ?
Pr Bi2 Pr 91.53(2) 1_565 15 ?
Pr Bi2 Pr 99.435(6) 14_565 15 ?
Pr Bi2 Pr 166.56(2) 2 15 ?
Pr Bi2 Pr 99.435(6) 13_665 15 ?
Bi2 Bi2 Pr 61.748(5) 16_556 3_665 ?
Bi2 Bi2 Pr 118.250(5) 16 3_665 ?
Pr Bi2 Pr 99.435(6) 1_565 3_665 ?
Pr Bi2 Pr 91.53(2) 14_565 3_665 ?
Pr Bi2 Pr 99.435(6) 2 3_665 ?
Pr Bi2 Pr 166.56(2) 13_665 3_665 ?
Pr Bi2 Pr 70.905(13) 15 3_665 ?
loop_
_geom_bond_atom_site_label_1
_geom_bond_atom_site_label_2
_geom_bond_distance
_geom_bond_site_symmetry_2
_geom_bond_publ_flag
Pr Bi1 3.2338(7) 2_655 ?
Pr Bi1 3.2338(7) 3_655 ?
Pr Bi2 3.3967(4) 1_545 ?
Pr Bi2 3.3967(4) 16_546 ?
Pr Bi2 3.3967(4) 4_665 ?
Pr Bi2 3.3967(4) 13_665 ?
Pr Bi1 3.4184(5) 13_656 ?
Pr Bi1 3.4184(5) 13_655 ?
Pr Bi1 3.4374(10) . ?
Pr Pr 3.9403(9) 13_655 ?
Pr Pr 3.9403(9) 13_656 ?
Mn Bi1 2.9671(5) 14 ?
Mn Bi1 2.9671(5) 2 ?
Mn Bi1 2.9671(5) 13 ?
Mn Bi1 2.9671(5) 15 ?
Mn Bi1 2.9671(5) 3 ?
Mn Bi1 2.9671(5) . ?
Mn Mn 3.2156(4) 4 ?
Mn Mn 3.2156(4) 4_554 ?
Bi1 Mn 2.9671(5) 4 ?
Bi1 Pr 3.2338(7) 2_545 ?
Bi1 Pr 3.2338(7) 3_665 ?
Bi1 Pr 3.4184(5) 13_656 ?
Bi1 Pr 3.4184(5) 13_655 ?
Bi2 Bi2 3.2156(4) 16_556 ?
Bi2 Bi2 3.2156(4) 16 ?
Bi2 Pr 3.3967(4) 1_565 ?
Bi2 Pr 3.3967(4) 14_565 ?
Bi2 Pr 3.3967(4) 2 ?
Bi2 Pr 3.3967(4) 13_665 ?
Bi2 Pr 3.3967(4) 15 ?
Bi2 Pr 3.3967(4) 3_665 ?
