#------------------------------------------------------------------------------
#$Date: 2016-02-14 06:40:26 +0200 (Sun, 14 Feb 2016) $
#$Revision: 176432 $
#$URL: svn://www.crystallography.net/cod/cif/4/30/42/4304259.cif $
#------------------------------------------------------------------------------
#
# This file is available in the Crystallography Open Database (COD),
# http://www.crystallography.net/
#
# All data on this site have been placed in the public domain by the
# contributors.
#
data_4304259
loop_
_publ_author_name
'Nobuo Ishizawa'
'Kenji Tateishi'
'Saki Kondo'
'Tsuyoshi Suwa'
_publ_contact_author_address
;
Ceramics Research Laboratory
Nagoya Institute of Technology
Asahigaoka
Tajimi 507-0071
Japan
;
_publ_contact_author_email       ishizawa@nitech.ac.jp
_publ_contact_author_fax         '+81 572 27 6812'
_publ_contact_author_name        'Nobuo Ishizawa'
_publ_contact_author_phone       '+81 572 27 6811'
_publ_section_title
;
Structural Phase Transition of Gd3RuO7
;
_journal_name_full               'Inorganic Chemistry'
_journal_page_first              558
_journal_page_last               566
_journal_paper_doi               10.1021/ic701732d
_journal_volume                  47
_journal_year                    2008
_chemical_formula_sum            'Gd3 O7 Ru'
_chemical_formula_weight         684.82
_space_group_IT_number           63
_symmetry_cell_setting           orthorhombic
_symmetry_space_group_name_Hall  '-C 2c 2'
_symmetry_space_group_name_H-M   'C m c m'
_cell_angle_alpha                90.00000
_cell_angle_beta                 90.00000
_cell_angle_gamma                90.00000
_cell_formula_units_Z            4
_cell_length_a                   10.6847(2)
_cell_length_b                   7.36940(10)
_cell_length_c                   7.41360(10)
_cell_measurement_reflns_used    6299
_cell_measurement_temperature    773
_cell_measurement_theta_max      44.98
_cell_measurement_theta_min      1
_cell_volume                     583.746(16)
_computing_cell_refinement       APEX2-W2K/NT
_computing_data_collection       APEX2-W2K/NT
_computing_data_reduction        'xtal DIFDAT SORTRF ADDREF'
_computing_molecular_graphics    xtal
_computing_publication_material  'xtal BONDLA CIFIO'
_computing_structure_refinement  'xtal CRYLSQ'
_computing_structure_solution    xtal
_diffrn_detector_area_resol_mean 67
_diffrn_measured_fraction_theta_max 0.89
_diffrn_measurement_device_type  'Smart Apex II'
_diffrn_measurement_method       'omega and phi scans'
_diffrn_radiation_type           'Mo K\a'
_diffrn_radiation_wavelength     .71073
_diffrn_reflns_av_R_equivalents  .028
_diffrn_reflns_limit_h_max       16
_diffrn_reflns_limit_h_min       -19
_diffrn_reflns_limit_k_max       11
_diffrn_reflns_limit_k_min       -14
_diffrn_reflns_limit_l_max       13
_diffrn_reflns_limit_l_min       -9
_diffrn_reflns_number            6299
_diffrn_reflns_theta_full        44.98
_diffrn_reflns_theta_max         44.98
_exptl_absorpt_coefficient_mu    36.158
_exptl_absorpt_correction_T_max  0.3158
_exptl_absorpt_correction_T_min  0.0781
_exptl_absorpt_correction_type   numerical
_exptl_absorpt_process_details   APEX2-W2K/NT
_exptl_crystal_colour            black
_exptl_crystal_density_diffrn    7.792
_exptl_crystal_description       prism
_exptl_crystal_size_max          0.12
_exptl_crystal_size_mid          0.07
_exptl_crystal_size_min          0.04
_refine_diff_density_max         3.374
_refine_diff_density_min         -2.831
_refine_ls_extinction_coef       691(26)
_refine_ls_extinction_method     Becker-Coppens
_refine_ls_goodness_of_fit_ref   2.043
_refine_ls_number_parameters     37
_refine_ls_number_reflns         933
_refine_ls_R_factor_gt           .028
_refine_ls_shift/su_max          0.0
_refine_ls_structure_factor_coef F
_refine_ls_weighting_details     'calc w=1/[\s^2^(Fo)] '
_refine_ls_weighting_scheme      sigma
_refine_ls_wR_factor_ref         .029
_reflns_Friedel_coverage         0
_reflns_number_gt                936
_reflns_number_total             1163
_reflns_threshold_expression     'Fsqrd    > 2.00 sig(Fsqrd   )'
_cod_data_source_file            ic701732d-file001_1.cif
_cod_data_source_block           "'Gd3RuO7_773K'"
_cod_original_sg_symbol_Hall     -c_2c_2
_cod_original_formula_sum        'Gd3 O7 Ru1'
_cod_database_code               4304259
loop_
_symmetry_equiv_pos_as_xyz
+x,+y,+z
-x,-y,1/2+z
+x,-y,-z
-x,+y,1/2-z
-x,-y,-z
+x,+y,1/2-z
-x,+y,+z
+x,-y,1/2+z
1/2+x,1/2+y,+z
1/2-x,1/2-y,1/2+z
1/2+x,1/2-y,-z
1/2-x,1/2+y,1/2-z
1/2-x,1/2-y,-z
1/2+x,1/2+y,1/2-z
1/2-x,1/2+y,+z
1/2+x,1/2-y,1/2+z
loop_
_atom_site_label
_atom_site_fract_x
_atom_site_fract_y
_atom_site_fract_z
_atom_site_U_iso_or_equiv
_atom_site_adp_type
_atom_site_calc_flag
_atom_site_calc_attached_atom
_atom_site_occupancy
_atom_site_disorder_assembly
_atom_site_disorder_group
Gd1 .00000 .0204(3) -.0019(7) .0182(5) Uani ? ? .50000 ? ?
Gd2 .22442(3) .30159(4) .25000 .01399(13) Uani ? ? 1.00000 ? ?
Ru1 .00000 .50000 .00000 .0089(2) Uani ? ? 1.00000 ? ?
O1 .1274(4) .3146(6) -.0390(5) .0312(19) Uani ? ? 1.00000 ? ?
O2 .1331(4) .0261(6) .25000 .0165(18) Uani ? ? 1.00000 ? ?
O3 .00000 .4140(9) .25000 .017(2) Uani ? ? 1.00000 ? ?
loop_
_atom_site_aniso_label
_atom_site_aniso_U_11
_atom_site_aniso_U_22
_atom_site_aniso_U_33
_atom_site_aniso_U_12
_atom_site_aniso_U_13
_atom_site_aniso_U_23
Gd1 .0157(2) .0277(9) .0112(3) .00000 .00000 -.0031(10)
Gd2 .01392(14) .01388(10) .01416(14) -.00193(8) .00000 .00000
Ru1 .0088(2) .01063(18) .0074(2) .00000 .00000 .00013(18)
O1 .032(2) .045(2) .0172(14) .0252(18) -.0010(14) -.0054(15)
O2 .016(2) .0149(14) .0184(19) .0004(13) .00000 .00000
O3 .024(3) .021(2) .006(2) .00000 .00000 .00000
loop_
_atom_type_symbol
_atom_type_description
_atom_type_oxidation_number
_atom_type_number_in_cell
_atom_type_scat_dispersion_real
_atom_type_scat_dispersion_imag
_atom_type_scat_source
Gd ? 0 12 -.564 3.904 'IT Vol C. Table 6.1.1.4  Table 6.1.1.5'
Ru ? 0 4 -1.42 .836 'IT Vol C. Table 6.1.1.4  Table 6.1.1.5'
O ? 0 28 .008 .006 'IT Vol C. Table 6.1.1.4  Table 6.1.1.5'
loop_
_geom_angle_atom_site_label_1
_geom_angle_atom_site_label_2
_geom_angle_atom_site_label_3
_geom_angle_site_symmetry_1
_geom_angle_site_symmetry_2
_geom_angle_site_symmetry_3
_geom_angle
_geom_angle_publ_flag
O1 Ru1 O1 7 . '5 565' 91.48(19) ?
O1 Ru1 O1 7 . '3 565' 180.0000 ?
O1 Ru1 O1 7 . . 88.52(19) ?
O1 Ru1 O3 7 . '2 564' 94.96(17) ?
O1 Ru1 O3 7 . . 85.04(17) ?
O1 Ru1 O1 '5 565' . '3 565' 88.52(19) ?
O1 Ru1 O1 '5 565' . . 180.0000 ?
O1 Ru1 O3 '5 565' . '2 564' 85.04(17) ?
O1 Ru1 O3 '5 565' . . 94.96(17) ?
O1 Ru1 O1 '3 565' . . 91.48(19) ?
O1 Ru1 O3 '3 565' . '2 564' 85.04(17) ?
O1 Ru1 O3 '3 565' . . 94.96(17) ?
O1 Ru1 O3 . . '2 564' 94.96(17) ?
O1 Ru1 O3 . . . 85.04(17) ?
O3 Ru1 O3 '2 564' . . 180.0000 ?
Ru1 O3 Ru1 '2 565' . . 142.2(4) ?
loop_
_geom_bond_atom_site_label_1
_geom_bond_atom_site_label_2
_geom_bond_site_symmetry_1
_geom_bond_site_symmetry_2
_geom_bond_distance
_geom_bond_publ_flag
Gd1 Gd1 . 3 .302(3) ?
Gd1 O2 . 4 2.348(5) ?
Gd1 O2 . . 2.348(5) ?
Gd1 O2 . 3 2.350(5) ?
Gd1 O2 . '2 554' 2.350(5) ?
Gd1 O1 . 7 2.575(5) ?
Gd1 O1 . . 2.575(5) ?
Gd1 O1 . 5 2.835(5) ?
Gd1 O1 . 3 2.835(5) ?
Gd1 O3 . . 3.450(7) ?
Gd2 O2 . 12 2.248(4) ?
Gd2 O2 . . 2.252(4) ?
Gd2 O1 . . 2.382(4) ?
Gd2 O1 . 6 2.382(4) ?
Gd2 O1 . 13 2.385(4) ?
Gd2 O1 . 10 2.385(4) ?
Gd2 O3 . . 2.537(2) ?
Ru1 O1 . 7 1.950(5) ?
Ru1 O1 . '5 565' 1.950(5) ?
Ru1 O1 . '3 565' 1.950(5) ?
Ru1 O1 . . 1.950(5) ?
Ru1 O3 . '2 564' 1.959(2) ?
Ru1 O3 . . 1.959(2) ?
