#------------------------------------------------------------------------------
#$Date: 2016-03-23 00:29:17 +0200 (Wed, 23 Mar 2016) $
#$Revision: 179113 $
#$URL: svn://www.crystallography.net/cod/cif/4/30/75/4307548.cif $
#------------------------------------------------------------------------------
#
# This file is available in the Crystallography Open Database (COD),
# http://www.crystallography.net/
#
# All data on this site have been placed in the public domain by the
# contributors.
#
data_4307548
loop_
_publ_author_name
'Manuel Krott'
'Xiaohui Liu'
'Boniface P. T. Fokwa'
'Manfred Speldrich'
'Heiko Lueken'
'Richard Dronskowski'
_publ_contact_author_address
;    
Institute of Inorganic Chemistry
RWTH Aachen University     
D-52056 Aachen
Germany
;
_publ_contact_author_email       drons@HAL9000.ac.rwth-aachen.de
_publ_contact_author_fax         00492418092642
_publ_contact_author_name        'Prof. Richard Dronskowski '
_publ_contact_author_phone       00492418093642
_publ_section_title
;
Synthesis, Crystal-Structure Determination and Magnetic Properties of Two
New Transition-Metal Carbodiimides: CoNCN and NiNCN
;
_journal_name_full               'Inorganic Chemistry'
_journal_page_first              2204
_journal_page_last               2207
_journal_paper_doi               10.1021/ic062051o
_journal_volume                  46
_journal_year                    2007
_chemical_formula_sum            'C Co N2'
_chemical_formula_weight         98.96
_chemical_name_systematic
;
 ?
;
_space_group_IT_number           194
_symmetry_cell_setting           hexagonal
_symmetry_Int_Tables_number      194
_symmetry_space_group_name_Hall  '-P 6c 2c'
_symmetry_space_group_name_H-M   'P 63/m m c'
_atom_sites_solution_hydrogens   geom
_atom_sites_solution_primary     direct
_atom_sites_solution_secondary   difmap
_audit_creation_method           SHELXL-97
_cell_angle_alpha                90.00
_cell_angle_beta                 90.00
_cell_angle_gamma                120.00
_cell_formula_units_Z            2
_cell_length_a                   3.2129(4)
_cell_length_b                   3.2129(4)
_cell_length_c                   9.3901(16)
_cell_measurement_temperature    293(2)
_cell_volume                     83.95(2)
_computing_cell_refinement       'SMART (Bruker, 1998)'
_computing_data_collection       'SMART (Bruker, 1998)'
_computing_data_reduction        'SAINT (Bruker, 2000)'
_computing_molecular_graphics    'Diamond 2.1c (K. Brandenburg, 1999)'
_computing_publication_material  'WinGX publication routines (Farrugia, 1999)'
_computing_structure_refinement  'SHELXL-97 (Sheldrick, 1997)'
_computing_structure_solution    'SHELXS-97 (Sheldrick, 1997)'
_diffrn_ambient_temperature      293(2)
_diffrn_measured_fraction_theta_full 0.930
_diffrn_measured_fraction_theta_max 0.930
_diffrn_measurement_device_type  'Brucker APEX CCD area detector'
_diffrn_measurement_method       'integretion method'
_diffrn_radiation_monochromator  graphite
_diffrn_radiation_source         'fine-focus sealed tube'
_diffrn_radiation_type           MoK\a
_diffrn_radiation_wavelength     0.71073
_diffrn_reflns_av_R_equivalents  0.0290
_diffrn_reflns_av_sigmaI/netI    0.0146
_diffrn_reflns_limit_h_max       5
_diffrn_reflns_limit_h_min       -5
_diffrn_reflns_limit_k_max       5
_diffrn_reflns_limit_k_min       -5
_diffrn_reflns_limit_l_max       15
_diffrn_reflns_limit_l_min       -15
_diffrn_reflns_number            1547
_diffrn_reflns_theta_full        35.82
_diffrn_reflns_theta_max         35.82
_diffrn_reflns_theta_min         7.34
_exptl_absorpt_coefficient_mu    9.675
_exptl_absorpt_correction_T_max  0.761
_exptl_absorpt_correction_T_min  0.512
_exptl_absorpt_correction_type   empirical
_exptl_absorpt_process_details   'SADABS(Bruker, 2001)'
_exptl_crystal_colour            auburn
_exptl_crystal_density_diffrn    3.915
_exptl_crystal_density_method    'not measured'
_exptl_crystal_description       plate
_exptl_crystal_F_000             94
_exptl_crystal_size_max          0.08
_exptl_crystal_size_mid          0.06
_exptl_crystal_size_min          0.03
_refine_diff_density_max         0.357
_refine_diff_density_min         -0.369
_refine_diff_density_rms         0.098
_refine_ls_extinction_method     none
_refine_ls_goodness_of_fit_ref   1.231
_refine_ls_hydrogen_treatment    refall
_refine_ls_matrix_type           full
_refine_ls_number_parameters     8
_refine_ls_number_reflns         99
_refine_ls_number_restraints     0
_refine_ls_restrained_S_all      1.231
_refine_ls_R_factor_all          0.0214
_refine_ls_R_factor_gt           0.0158
_refine_ls_shift/su_max          0.000
_refine_ls_shift/su_mean         0.000
_refine_ls_structure_factor_coef Fsqd
_refine_ls_weighting_details
'calc w=1/[\s^2^(Fo^2^)+(0.0169P)^2^+0.0594P] where P=(Fo^2^+2Fc^2^)/3'
_refine_ls_weighting_scheme      calc
_refine_ls_wR_factor_gt          0.0374
_refine_ls_wR_factor_ref         0.0389
_reflns_number_gt                85
_reflns_number_total             99
_reflns_threshold_expression     >2sigma(I)
_cod_data_source_file            ic062051osi20061026_062217.cif
_cod_data_source_block           CoNCN
_cod_database_code               4307548
loop_
_symmetry_equiv_pos_as_xyz
'x, y, z'
'-y, x-y, z'
'-x+y, -x, z'
'-x, -y, z+1/2'
'y, -x+y, z+1/2'
'x-y, x, z+1/2'
'y, x, -z'
'x-y, -y, -z'
'-x, -x+y, -z'
'-y, -x, -z+1/2'
'-x+y, y, -z+1/2'
'x, x-y, -z+1/2'
'-x, -y, -z'
'y, -x+y, -z'
'x-y, x, -z'
'x, y, -z-1/2'
'-y, x-y, -z-1/2'
'-x+y, -x, -z-1/2'
'-y, -x, z'
'-x+y, y, z'
'x, x-y, z'
'y, x, z-1/2'
'x-y, -y, z-1/2'
'-x, -x+y, z-1/2'
loop_
_atom_site_label
_atom_site_type_symbol
_atom_site_fract_x
_atom_site_fract_y
_atom_site_fract_z
_atom_site_U_iso_or_equiv
_atom_site_adp_type
_atom_site_occupancy
_atom_site_symmetry_multiplicity
_atom_site_calc_flag
_atom_site_refinement_flags
_atom_site_disorder_assembly
_atom_site_disorder_group
Co Co 0.0000 0.0000 0.5000 0.00878(15) Uani 1 12 d S . .
N N 0.6667 0.3333 0.3805(2) 0.0108(4) Uani 1 6 d S . .
C C 0.6667 0.3333 0.2500 0.0090(6) Uani 1 12 d S . .
loop_
_atom_site_aniso_label
_atom_site_aniso_U_11
_atom_site_aniso_U_22
_atom_site_aniso_U_33
_atom_site_aniso_U_23
_atom_site_aniso_U_13
_atom_site_aniso_U_12
Co 0.00947(17) 0.00947(17) 0.0074(2) 0.000 0.000 0.00473(9)
N 0.0117(6) 0.0117(6) 0.0088(9) 0.000 0.000 0.0059(3)
C 0.0085(9) 0.0085(9) 0.0101(14) 0.000 0.000 0.0042(5)
loop_
_atom_type_symbol
_atom_type_description
_atom_type_scat_dispersion_real
_atom_type_scat_dispersion_imag
_atom_type_scat_source
C C 0.0033 0.0016 'International Tables Vol C Tables 4.2.6.8 and 6.1.1.4'
N N 0.0061 0.0033 'International Tables Vol C Tables 4.2.6.8 and 6.1.1.4'
Co Co 0.3494 0.9721 'International Tables Vol C Tables 4.2.6.8 and 6.1.1.4'
loop_
_geom_angle_atom_site_label_1
_geom_angle_atom_site_label_2
_geom_angle_atom_site_label_3
_geom_angle
_geom_angle_site_symmetry_1
_geom_angle_site_symmetry_3
_geom_angle_publ_flag
N Co N 84.37(7) . 13_766 ?
N Co N 95.63(7) . 1_545 ?
N Co N 180.0 13_766 1_545 ?
N Co N 180.00(11) . 13_756 ?
N Co N 95.63(7) 13_766 13_756 ?
N Co N 84.37(7) 1_545 13_756 ?
N Co N 95.63(7) . 1_655 ?
N Co N 84.37(7) 13_766 1_655 ?
N Co N 95.63(7) 1_545 1_655 ?
N Co N 84.37(7) 13_756 1_655 ?
N Co N 84.37(7) . 13_656 ?
N Co N 95.63(7) 13_766 13_656 ?
N Co N 84.37(7) 1_545 13_656 ?
N Co N 95.63(7) 13_756 13_656 ?
N Co N 180.0 1_655 13_656 ?
C N Co 121.17(5) . . ?
C N Co 121.17(5) . 1_565 ?
Co N Co 95.63(7) . 1_565 ?
C N Co 121.17(5) . 1_455 ?
Co N Co 95.63(7) . 1_455 ?
Co N Co 95.63(7) 1_565 1_455 ?
N C N 180.0 16_556 . ?
loop_
_geom_bond_atom_site_label_1
_geom_bond_atom_site_label_2
_geom_bond_distance
_geom_bond_site_symmetry_2
_geom_bond_publ_flag
Co N 2.1679(12) . ?
Co N 2.1679(12) 13_766 ?
Co N 2.1679(12) 1_545 ?
Co N 2.1679(12) 13_756 ?
Co N 2.1679(12) 1_655 ?
Co N 2.1679(12) 13_656 ?
N C 1.225(2) . ?
N Co 2.1679(12) 1_565 ?
N Co 2.1679(12) 1_455 ?
C N 1.225(2) 16_556 ?
