#------------------------------------------------------------------------------
#$Date: 2016-02-14 06:40:26 +0200 (Sun, 14 Feb 2016) $
#$Revision: 176432 $
#$URL: svn://www.crystallography.net/cod/cif/4/30/77/4307798.cif $
#------------------------------------------------------------------------------
#
# This file is available in the Crystallography Open Database (COD),
# http://www.crystallography.net/
#
# All data on this site have been placed in the public domain by the
# contributors.
#
data_4307798
loop_
_publ_author_name
'Andriy V. Tkachuk'
'Davin G. Piercey'
'Arthur Mar'
_publ_contact_author_address
; Department of Chemistry
  University of Alberta
  Edmonton, AB
  Canada  T6G 2G2
;
_publ_contact_author_email       arthur.mar@ualberta.ca
_publ_contact_author_fax         '(780) 492-8231'
_publ_contact_author_name        'Dr. Arthur Mar'
_publ_contact_author_phone       '(780) 492-5592'
_publ_section_title
;
Ternary Zirconium Tin Antimonide ZrSn2-xSbx (0.2 < x < 0.8), Different
from the Parent Binaries ZrSn2 and ZrSb2
;
_journal_name_full               'Inorganic Chemistry'
_journal_page_first              2877
_journal_page_last               2882
_journal_paper_doi               10.1021/ic062277r
_journal_volume                  46
_journal_year                    2007
_chemical_formula_structural     'Zr Sn1.20 Sb0.80'
_chemical_formula_sum            'Sb0.8 Sn1.2 Zr'
_chemical_formula_weight         331.05
_chemical_name_common            'Zirconium tin antimony (1/1.2/0.8)'
_chemical_name_systematic        'Zirconium tin antimony (1/1.2/0.8)'
_space_group_IT_number           181
_symmetry_cell_setting           hexagonal
_symmetry_space_group_name_Hall  'P 64 2 (0 0 2)'
_symmetry_space_group_name_H-M   'P 64 2 2'
_atom_sites_solution_hydrogens   none
_atom_sites_solution_primary     direct
_atom_sites_solution_secondary   difmap
_cell_angle_alpha                90.00
_cell_angle_beta                 90.00
_cell_angle_gamma                120.00
_cell_formula_units_Z            3
_cell_length_a                   5.5156(6)
_cell_length_b                   5.5156(6)
_cell_length_c                   7.6259(9)
_cell_measurement_reflns_used    2939
_cell_measurement_temperature    295(2)
_cell_measurement_theta_max      32.84
_cell_measurement_theta_min      2.67
_cell_volume                     200.91(4)
_computing_cell_refinement       'Bruker SAINT 7.06 (Bruker, 2004)'
_computing_data_collection       'Bruker SMART 5.054 (Bruker, 1999)'
_computing_data_reduction        'Bruker SAINT 7.06'
_computing_molecular_graphics    'ATOMS 5.1 (Dowty, 1999)'
_computing_publication_material  'Bruker SHELXTL 6.12'
_computing_structure_refinement  'Bruker SHELXTL 6.12'
_computing_structure_solution    'Bruker SHELXTL 6.12'
_diffrn_ambient_temperature      295(2)
_diffrn_measured_fraction_theta_full 0.995
_diffrn_measured_fraction_theta_max 0.995
_diffrn_measurement_device_type  'Bruker Platform/SMART 1000 CCD'
_diffrn_measurement_method       \w-scans
_diffrn_radiation_monochromator  graphite
_diffrn_radiation_source         'fine-focus sealed tube'
_diffrn_radiation_type           MoK\a
_diffrn_radiation_wavelength     0.71073
_diffrn_reflns_av_R_equivalents  0.0553
_diffrn_reflns_av_sigmaI/netI    0.0314
_diffrn_reflns_limit_h_max       8
_diffrn_reflns_limit_h_min       -8
_diffrn_reflns_limit_k_max       8
_diffrn_reflns_limit_k_min       -8
_diffrn_reflns_limit_l_max       11
_diffrn_reflns_limit_l_min       -11
_diffrn_reflns_number            2662
_diffrn_reflns_theta_full        32.99
_diffrn_reflns_theta_max         32.99
_diffrn_reflns_theta_min         4.27
_diffrn_standards_number         0
_exptl_absorpt_coefficient_mu    22.544
_exptl_absorpt_correction_T_max  0.05930
_exptl_absorpt_correction_T_min  0.00755
_exptl_absorpt_correction_type   numerical
_exptl_absorpt_process_details   'Bruker SHELXTL 6.12 (Sheldrick, 2001)'
_exptl_crystal_colour            grey
_exptl_crystal_density_diffrn    8.208
_exptl_crystal_density_method    'not measured'
_exptl_crystal_description       prism
_exptl_crystal_F_000             422
_exptl_crystal_size_max          0.424
_exptl_crystal_size_mid          0.324
_exptl_crystal_size_min          0.311
_refine_diff_density_max         1.530
_refine_diff_density_min         -1.459
_refine_diff_density_rms         0.445
_refine_ls_abs_structure_details 'Flack H D (1983), Acta Cryst. A39, 876-881'
_refine_ls_abs_structure_Flack   0.3(6)
_refine_ls_extinction_coef       0.063(5)
_refine_ls_extinction_expression Fc^*^=kFc[1+0.001xFc^2^\l^3^/sin(2\q)]^-1/4^
_refine_ls_extinction_method     SHELXL
_refine_ls_goodness_of_fit_ref   1.737
_refine_ls_hydrogen_treatment    none
_refine_ls_matrix_type           full
_refine_ls_number_parameters     11
_refine_ls_number_reflns         264
_refine_ls_number_restraints     0
_refine_ls_restrained_S_all      1.737
_refine_ls_R_factor_all          0.0266
_refine_ls_R_factor_gt           0.0261
_refine_ls_shift/su_max          0.000
_refine_ls_shift/su_mean         0.000
_refine_ls_structure_factor_coef Fsqd
_refine_ls_weighting_details
'calc w=1/[\s^2^(Fo^2^)+(0.0247P)^2^+0.4943P] where P=(Fo^2^+2Fc^2^)/3'
_refine_ls_weighting_scheme      calc
_refine_ls_wR_factor_gt          0.0934
_refine_ls_wR_factor_ref         0.0938
_reflns_number_gt                258
_reflns_number_total             264
_reflns_threshold_expression     I>2\s(I)
_cod_data_source_file            ic062277rsi20061129_040851_1.cif
_cod_data_source_block           ZrSn1.2Sb0.8
_cod_original_sg_symbol_Hall     'P 64 2c (0 0 -1)'
_cod_original_formula_sum        'Sb0.80 Sn1.20 Zr'
_cod_database_code               4307798
loop_
_symmetry_equiv_pos_as_xyz
'x, y, z'
'-y, x-y, z+1/3'
'-x+y, -x, z+2/3'
'-x, -y, z'
'y, -x+y, z+1/3'
'x-y, x, z+2/3'
'y, x, -z+1/3'
'x-y, -y, -z'
'-x, -x+y, -z+2/3'
'-y, -x, -z+1/3'
'-x+y, y, -z'
'x, x-y, -z+2/3'
loop_
_atom_site_label
_atom_site_type_symbol
_atom_site_fract_x
_atom_site_fract_y
_atom_site_fract_z
_atom_site_U_iso_or_equiv
_atom_site_adp_type
_atom_site_occupancy
_atom_site_symmetry_multiplicity
_atom_site_calc_flag
_atom_site_refinement_flags
_atom_site_disorder_assembly
_atom_site_disorder_group
Zr Zr 0.5000 0.0000 0.0000 0.0046(3) Uani 1 4 d S . .
Sn Sn 0.16706(3) 0.33411(6) 0.0000 0.0054(3) Uani 0.60 2 d SP . .
Sb Sb 0.16706(3) 0.33411(6) 0.0000 0.0054(3) Uani 0.40 2 d SP . .
loop_
_atom_site_aniso_label
_atom_site_aniso_U_11
_atom_site_aniso_U_22
_atom_site_aniso_U_33
_atom_site_aniso_U_23
_atom_site_aniso_U_13
_atom_site_aniso_U_12
Zr 0.0035(4) 0.0077(5) 0.0039(5) 0.000 0.000 0.0039(2)
Sn 0.0051(3) 0.0081(4) 0.0039(4) 0.000 0.00020(8) 0.00406(19)
Sb 0.0051(3) 0.0081(4) 0.0039(4) 0.000 0.00020(8) 0.00406(19)
loop_
_atom_type_symbol
_atom_type_description
_atom_type_scat_dispersion_real
_atom_type_scat_dispersion_imag
_atom_type_scat_source
Zr Zr -2.9673 0.5597 'International Tables Vol C Tables 4.2.6.8 and 6.1.1.4'
Sn Sn -0.6537 1.4246 'International Tables Vol C Tables 4.2.6.8 and 6.1.1.4'
Sb Sb -0.5866 1.5461 'International Tables Vol C Tables 4.2.6.8 and 6.1.1.4'
loop_
_geom_angle_atom_site_label_1
_geom_angle_atom_site_label_2
_geom_angle_atom_site_label_3
_geom_angle
_geom_angle_site_symmetry_1
_geom_angle_site_symmetry_3
_geom_angle_publ_flag
Sb Zr Sn 0.000(12) 5 5 ?
Sb Zr Sb 125.381(12) 5 3_554 ?
Sn Zr Sb 125.381(12) 5 3_554 ?
Sb Zr Sn 125.381(12) 5 3_554 ?
Sn Zr Sn 125.381(12) 5 3_554 ?
Sb Zr Sn 0.0 3_554 3_554 ?
Sb Zr Sb 64.064(10) 5 2_655 ?
Sn Zr Sb 64.064(10) 5 2_655 ?
Sb Zr Sb 149.132(8) 3_554 2_655 ?
Sn Zr Sb 149.132(8) 3_554 2_655 ?
Sb Zr Sn 64.064(10) 5 2_655 ?
Sn Zr Sn 64.064(10) 5 2_655 ?
Sb Zr Sn 149.132(8) 3_554 2_655 ?
Sn Zr Sn 149.132(8) 3_554 2_655 ?
Sb Zr Sn 0.000(6) 2_655 2_655 ?
Sb Zr Sb 149.132(8) 5 6_654 ?
Sn Zr Sb 149.132(8) 5 6_654 ?
Sb Zr Sb 64.064(10) 3_554 6_654 ?
Sn Zr Sb 64.064(10) 3_554 6_654 ?
Sb Zr Sb 125.381(12) 2_655 6_654 ?
Sn Zr Sb 125.381(12) 2_655 6_654 ?
Sb Zr Sn 149.132(8) 5 6_654 ?
Sn Zr Sn 149.132(8) 5 6_654 ?
Sb Zr Sn 64.064(10) 3_554 6_654 ?
Sn Zr Sn 64.064(10) 3_554 6_654 ?
Sb Zr Sn 125.381(12) 2_655 6_654 ?
Sn Zr Sn 125.381(12) 2_655 6_654 ?
Sb Zr Sn 0.000(1) 6_654 6_654 ?
Sb Zr Sb 74.566(4) 5 4_665 ?
Sn Zr Sb 74.566(4) 5 4_665 ?
Sb Zr Sb 105.434(4) 3_554 4_665 ?
Sn Zr Sb 105.434(4) 3_554 4_665 ?
Sb Zr Sb 105.434(4) 2_655 4_665 ?
Sn Zr Sb 105.434(4) 2_655 4_665 ?
Sb Zr Sb 74.566(4) 6_654 4_665 ?
Sn Zr Sb 74.566(4) 6_654 4_665 ?
Sb Zr Sn 74.566(4) 5 4_665 ?
Sn Zr Sn 74.566(4) 5 4_665 ?
Sb Zr Sn 105.434(4) 3_554 4_665 ?
Sn Zr Sn 105.434(4) 3_554 4_665 ?
Sb Zr Sn 105.434(4) 2_655 4_665 ?
Sn Zr Sn 105.434(4) 2_655 4_665 ?
Sb Zr Sn 74.566(4) 6_654 4_665 ?
Sn Zr Sn 74.566(4) 6_654 4_665 ?
Sb Zr Sn 0.0 4_665 4_665 ?
Sb Zr Sn 105.434(4) 5 1_545 ?
Sn Zr Sn 105.434(4) 5 1_545 ?
Sb Zr Sn 74.566(4) 3_554 1_545 ?
Sn Zr Sn 74.566(4) 3_554 1_545 ?
Sb Zr Sn 74.566(4) 2_655 1_545 ?
Sn Zr Sn 74.566(4) 2_655 1_545 ?
Sb Zr Sn 105.434(4) 6_654 1_545 ?
Sn Zr Sn 105.434(4) 6_654 1_545 ?
Sb Zr Sn 180.0 4_665 1_545 ?
Sn Zr Sn 180.0 4_665 1_545 ?
Sb Zr Sb 105.434(4) 5 1_545 ?
Sn Zr Sb 105.434(4) 5 1_545 ?
Sb Zr Sb 74.566(4) 3_554 1_545 ?
Sn Zr Sb 74.566(4) 3_554 1_545 ?
Sb Zr Sb 74.566(4) 2_655 1_545 ?
Sn Zr Sb 74.566(4) 2_655 1_545 ?
Sb Zr Sb 105.434(4) 6_654 1_545 ?
Sn Zr Sb 105.434(4) 6_654 1_545 ?
Sb Zr Sb 180.0 4_665 1_545 ?
Sn Zr Sb 180.0 4_665 1_545 ?
Sn Zr Sb 0.000(6) 1_545 1_545 ?
Zr Sn Zr 149.353(12) 3_664 2 ?
Zr Sn Sb 64.154(9) 3_664 6_554 ?
Zr Sn Sb 125.203(9) 2 6_554 ?
Zr Sn Sn 64.154(9) 3_664 6_554 ?
Zr Sn Sn 125.203(9) 2 6_554 ?
Sb Sn Sn 0.0 6_554 6_554 ?
Zr Sn Sb 125.203(8) 3_664 5 ?
Zr Sn Sb 64.154(9) 2 5 ?
Sb Sn Sb 149.164(6) 6_554 5 ?
Sn Sn Sb 149.164(6) 6_554 5 ?
Zr Sn Sn 125.203(8) 3_664 5 ?
Zr Sn Sn 64.154(9) 2 5 ?
Sb Sn Sn 149.164(6) 6_554 5 ?
Sn Sn Sn 149.164(6) 6_554 5 ?
Sb Sn Sn 0.000(6) 5 5 ?
Zr Sn Zr 74.677(6) 3_664 1_565 ?
Zr Sn Zr 74.677(6) 2 1_565 ?
Sb Sn Zr 105.418(3) 6_554 1_565 ?
Sn Sn Zr 105.418(3) 6_554 1_565 ?
Sb Sn Zr 105.418(3) 5 1_565 ?
Sn Sn Zr 105.418(3) 5 1_565 ?
Zr Sn Sb 57.968(5) 3_664 4_665 ?
Zr Sn Sb 105.489(8) 2 4_665 ?
Sb Sn Sb 122.122(6) 6_554 4_665 ?
Sn Sn Sb 122.122(6) 6_554 4_665 ?
Sb Sn Sb 74.526(7) 5 4_665 ?
Sn Sn Sb 74.526(7) 5 4_665 ?
Zr Sn Sb 60.116(9) 1_565 4_665 ?
Zr Sn Sn 57.968(5) 3_664 4_665 ?
Zr Sn Sn 105.489(8) 2 4_665 ?
Sb Sn Sn 122.122(6) 6_554 4_665 ?
Sn Sn Sn 122.122(6) 6_554 4_665 ?
Sb Sn Sn 74.526(7) 5 4_665 ?
Sn Sn Sn 74.526(7) 5 4_665 ?
Zr Sn Sn 60.116(9) 1_565 4_665 ?
Sb Sn Sn 0.000(3) 4_665 4_665 ?
Zr Sn Sn 105.489(8) 3_664 4_565 ?
Zr Sn Sn 57.968(5) 2 4_565 ?
Sb Sn Sn 74.527(7) 6_554 4_565 ?
Sn Sn Sn 74.527(7) 6_554 4_565 ?
Sb Sn Sn 122.122(6) 5 4_565 ?
Sn Sn Sn 122.122(6) 5 4_565 ?
Zr Sn Sn 60.116(9) 1_565 4_565 ?
Sb Sn Sn 120.232(19) 4_665 4_565 ?
Sn Sn Sn 120.232(19) 4_665 4_565 ?
Zr Sn Sb 105.489(8) 3_664 4_565 ?
Zr Sn Sb 57.968(5) 2 4_565 ?
Sb Sn Sb 74.527(7) 6_554 4_565 ?
Sn Sn Sb 74.527(7) 6_554 4_565 ?
Sb Sn Sb 122.122(6) 5 4_565 ?
Sn Sn Sb 122.122(6) 5 4_565 ?
Zr Sn Sb 60.116(9) 1_565 4_565 ?
Sb Sn Sb 120.232(19) 4_665 4_565 ?
Sn Sn Sb 120.232(19) 4_665 4_565 ?
Sn Sn Sb 0.000(3) 4_565 4_565 ?
Zr Sn Zr 74.594(2) 3_664 . ?
Zr Sn Zr 122.032(5) 2 . ?
Sb Sn Zr 105.391(2) 6_554 . ?
Sn Sn Zr 105.391(2) 6_554 . ?
Sb Sn Zr 57.878(6) 5 . ?
Sn Sn Zr 57.878(6) 5 . ?
Zr Sn Zr 120.058(5) 1_565 . ?
Sb Sn Zr 59.942(5) 4_665 . ?
Sn Sn Zr 59.942(5) 4_665 . ?
Sn Sn Zr 179.826(14) 4_565 . ?
Sb Sn Zr 179.826(14) 4_565 . ?
loop_
_geom_bond_atom_site_label_1
_geom_bond_atom_site_label_2
_geom_bond_distance
_geom_bond_site_symmetry_2
_geom_bond_publ_flag
Zr Sb 2.9985(3) 5 ?
Zr Sn 2.9985(3) 5 ?
Zr Sb 2.9985(3) 3_554 ?
Zr Sn 2.9985(3) 3_554 ?
Zr Sb 2.9985(3) 2_655 ?
Zr Sn 2.9985(3) 2_655 ?
Zr Sb 2.9985(3) 6_654 ?
Zr Sn 2.9985(3) 6_654 ?
Zr Sb 3.1807(5) 4_665 ?
Zr Sn 3.1807(5) 4_665 ?
Zr Sn 3.1807(5) 1_545 ?
Zr Sb 3.1807(5) 1_545 ?
Sn Zr 2.9985(3) 3_664 ?
Sn Zr 2.9985(3) 2 ?
Sn Sb 3.0014(3) 6_554 ?
Sn Sn 3.0014(3) 6_554 ?
Sn Sb 3.0014(3) 5 ?
Sn Sn 3.0014(3) 5 ?
Sn Zr 3.1807(5) 1_565 ?
Sn Sb 3.1807(5) 4_665 ?
Sn Sn 3.1807(5) 4_665 ?
Sn Sn 3.1807(5) 4_565 ?
Sn Sb 3.1807(5) 4_565 ?
