#------------------------------------------------------------------------------
#$Date: 2016-02-16 22:30:59 +0200 (Tue, 16 Feb 2016) $
#$Revision: 176467 $
#$URL: svn://www.crystallography.net/cod/cif/4/31/09/4310980.cif $
#------------------------------------------------------------------------------
#
# This file is available in the Crystallography Open Database (COD),
# http://www.crystallography.net/
#
# All data on this site have been placed in the public domain by the
# contributors.
#
data_4310980
loop_
_publ_author_name
'Kirill A. Kovnir'
'Julia V. Zaikina'
'Lyudmila N. Reshetova'
'Andrei V. Olenev'
'Evgeny V. Dikarev'
'Andrei V. Shevelkov'
_publ_contact_author
;
        Andrei V. Shevelkov
        Inorganic Synthesis Laboratory
        Moscow State University
        Leninskie Gory 1/3
        119992 Moscow
        Russia
;
_publ_section_title
;
 Unusually High Chemical Compressibility of Normally Rigid Type-I
 Clathrate Framework: Synthesis and Structural Study of Sn24P19.3BrxI8-x
 Solid Solution, the Prospective Thermoelectric Material
;
_journal_name_full               'Inorganic Chemistry'
_journal_page_first              3230
_journal_page_last               3236
_journal_paper_doi               10.1021/ic035097f
_journal_volume                  43
_journal_year                    2004
_chemical_formula_moiety         '(Sn24P19.6), (Br8)'
_chemical_formula_sum            'Br0.5 P1.23 Sn1.5'
_chemical_formula_weight         255.93
_chemical_melting_point          ?
_chemical_name_systematic        'tin phosphide bromide'
_space_group_IT_number           223
_symmetry_cell_setting           cubic
_symmetry_space_group_name_Hall  '-P 4n 2 3'
_symmetry_space_group_name_H-M   'P m -3 n'
_atom_sites_solution_hydrogens   geom
_atom_sites_solution_primary     direct
_atom_sites_solution_secondary   difmap
_audit_creation_method           SHELXL-97
_cell_angle_alpha                90.00
_cell_angle_beta                 90.00
_cell_angle_gamma                90.00
_cell_formula_units_Z            16
_cell_length_a                   10.8098(7)
_cell_length_b                   10.8098(7)
_cell_length_c                   10.8098(7)
_cell_measurement_reflns_used    8931
_cell_measurement_temperature    243(2)
_cell_measurement_theta_max      28.15
_cell_measurement_theta_min      2.67
_cell_volume                     1263.14(14)
_computing_cell_refinement       'SMART, SAINT'
_computing_data_collection       SMART
_computing_data_reduction        SAINT
_computing_molecular_graphics    'SHELXP-93 (Sheldrick, 1993)'
_computing_publication_material  'SHELXCIF-93 (Sheldrick, 1993)'
_computing_structure_refinement  'SHELXL-97 (Sheldrick, 1997)'
_computing_structure_solution    'SHELXS-97 (Sheldrick, 1990)'
_diffrn_ambient_temperature      243(2)
_diffrn_measured_fraction_theta_full 0.987
_diffrn_measured_fraction_theta_max 0.987
_diffrn_measurement_device_type  'Bruker SMART APEX CCD'
_diffrn_measurement_method       '0.3 deg wide \w exposures'
_diffrn_radiation_monochromator  graphite
_diffrn_radiation_source         'fine-focus sealed tube'
_diffrn_radiation_type           MoK\a
_diffrn_radiation_wavelength     0.71073
_diffrn_reflns_av_R_equivalents  0.0190
_diffrn_reflns_av_sigmaI/netI    0.0059
_diffrn_reflns_limit_h_max       14
_diffrn_reflns_limit_h_min       -13
_diffrn_reflns_limit_k_max       14
_diffrn_reflns_limit_k_min       -13
_diffrn_reflns_limit_l_max       13
_diffrn_reflns_limit_l_min       -13
_diffrn_reflns_number            9783
_diffrn_reflns_theta_full        28.15
_diffrn_reflns_theta_max         28.15
_diffrn_reflns_theta_min         2.66
_diffrn_standards_decay_%        0
_diffrn_standards_interval_count na
_diffrn_standards_interval_time  na
_diffrn_standards_number         'none (area detector data)'
_exptl_absorpt_coefficient_mu    18.579
_exptl_absorpt_correction_T_max  0.4569
_exptl_absorpt_correction_T_min  0.2856
_exptl_absorpt_correction_type   'multi-scan (SADABS)'
_exptl_crystal_colour            black
_exptl_crystal_density_diffrn    5.383
_exptl_crystal_density_meas      ?
_exptl_crystal_density_method    .
_exptl_crystal_description       block
_exptl_crystal_F_000             1774
_exptl_crystal_size_max          0.09
_exptl_crystal_size_mid          0.07
_exptl_crystal_size_min          0.05
_refine_diff_density_max         1.165
_refine_diff_density_min         -1.240
_refine_diff_density_rms         0.247
_refine_ls_extinction_coef       0.00142(15)
_refine_ls_extinction_expression Fc^*^=kFc[1+0.001xFc^2^\l^3^/sin(2\q)]^-1/4^
_refine_ls_extinction_method     SHELXL
_refine_ls_goodness_of_fit_ref   1.597
_refine_ls_hydrogen_treatment    mixed
_refine_ls_matrix_type           full
_refine_ls_number_parameters     23
_refine_ls_number_reflns         306
_refine_ls_number_restraints     0
_refine_ls_restrained_S_all      1.597
_refine_ls_R_factor_all          0.0374
_refine_ls_R_factor_gt           0.0374
_refine_ls_shift/su_max          0.002
_refine_ls_shift/su_mean         0.001
_refine_ls_structure_factor_coef Fsqd
_refine_ls_weighting_details
'calc w=1/[\s^2^(Fo^2^)+(0.0000P)^2^+35.0373P] where P=(Fo^2^+2Fc^2^)/3'
_refine_ls_weighting_scheme      calc
_refine_ls_wR_factor_gt          0.0833
_refine_ls_wR_factor_ref         0.0833
_reflns_number_gt                306
_reflns_number_total             306
_reflns_threshold_expression     >2sigma(I)
_cod_data_source_file            ic035097fsi20030917_071526_07.cif
_cod_data_source_block           xl7
_cod_depositor_comments
;
The following automatic conversions were performed:
'_publ_contact_autor' tag replaced with
'_publ_contact_author'.

'_atom_site_symetry_multiplicity' tag
replaced with '_atom_site_symmetry_multiplicity'.

Automatic conversion script
Id: cif_correct_tags 1440 2010-10-19 06:21:57Z saulius 

The following automatic conversions were performed:

'_chemical_melting_point' value 'not measured' was changed to '?' -
the value is undefined or not given.

Automatic conversion script
Id: cif_fix_values 1569 2011-02-09 13:29:24Z adriana 
;
_cod_original_formula_sum        'Br0.50 P1.23 Sn1.50'
_cod_database_code               4310980
loop_
_symmetry_equiv_pos_as_xyz
'x, y, z'
'-x, -y, z'
'-x, y, -z'
'x, -y, -z'
'z, x, y'
'z, -x, -y'
'-z, -x, y'
'-z, x, -y'
'y, z, x'
'-y, z, -x'
'y, -z, -x'
'-y, -z, x'
'y+1/2, x+1/2, -z+1/2'
'-y+1/2, -x+1/2, -z+1/2'
'y+1/2, -x+1/2, z+1/2'
'-y+1/2, x+1/2, z+1/2'
'x+1/2, z+1/2, -y+1/2'
'-x+1/2, z+1/2, y+1/2'
'-x+1/2, -z+1/2, -y+1/2'
'x+1/2, -z+1/2, y+1/2'
'z+1/2, y+1/2, -x+1/2'
'z+1/2, -y+1/2, x+1/2'
'-z+1/2, y+1/2, x+1/2'
'-z+1/2, -y+1/2, -x+1/2'
'-x, -y, -z'
'x, y, -z'
'x, -y, z'
'-x, y, z'
'-z, -x, -y'
'-z, x, y'
'z, x, -y'
'z, -x, y'
'-y, -z, -x'
'y, -z, x'
'-y, z, x'
'y, z, -x'
'-y-1/2, -x-1/2, z-1/2'
'y-1/2, x-1/2, z-1/2'
'-y-1/2, x-1/2, -z-1/2'
'y-1/2, -x-1/2, -z-1/2'
'-x-1/2, -z-1/2, y-1/2'
'x-1/2, -z-1/2, -y-1/2'
'x-1/2, z-1/2, y-1/2'
'-x-1/2, z-1/2, -y-1/2'
'-z-1/2, -y-1/2, x-1/2'
'-z-1/2, y-1/2, -x-1/2'
'z-1/2, -y-1/2, -x-1/2'
'z-1/2, y-1/2, x-1/2'
loop_
_atom_site_label
_atom_site_type_symbol
_atom_site_fract_x
_atom_site_fract_y
_atom_site_fract_z
_atom_site_U_iso_or_equiv
_atom_site_adp_type
_atom_site_occupancy
_atom_site_symmetry_multiplicity
_atom_site_calc_flag
_atom_site_refinement_flags
_atom_site_disorder_assembly
_atom_site_disorder_group
Br1 Br 0.0000 0.0000 0.0000 0.0175(9) Uani 1 24 d S . .
Br2 Br 0.5000 0.0000 0.2500 0.0248(6) Uani 1 8 d S . .
Sn1 Sn 0.3087(5) 0.1148(6) 0.0000 0.0156(8) Uani 0.594(16) 2 d SP . .
Sn2 Sn 0.3461(8) 0.1519(6) 0.0000 0.0123(12) Uani 0.406(16) 2 d SP . .
P1 P 0.19166(17) 0.19166(17) 0.19166(17) 0.0087(6) Uani 1 3 d S . .
P2 P 0.5000 0.2500 0.0000 0.013(2) Uani 0.594(16) 8 d SP . .
loop_
_atom_site_aniso_label
_atom_site_aniso_U_11
_atom_site_aniso_U_22
_atom_site_aniso_U_33
_atom_site_aniso_U_23
_atom_site_aniso_U_13
_atom_site_aniso_U_12
Br1 0.0175(9) 0.0175(9) 0.0175(9) 0.000 0.000 0.000
Br2 0.0289(9) 0.0289(9) 0.0164(13) 0.000 0.000 0.000
Sn1 0.0139(12) 0.0217(16) 0.0114(7) 0.000 0.000 -0.0025(12)
Sn2 0.016(2) 0.0100(18) 0.0107(11) 0.000 0.000 -0.0040(16)
P1 0.0087(6) 0.0087(6) 0.0087(6) -0.0011(7) -0.0011(7) -0.0011(7)
P2 0.012(3) 0.013(5) 0.012(3) 0.000 0.000 0.000
loop_
_atom_type_symbol
_atom_type_description
_atom_type_scat_dispersion_real
_atom_type_scat_dispersion_imag
_atom_type_scat_source
Sn Sn -0.6537 1.4246 'International Tables Vol C Tables 4.2.6.8 and 6.1.1.4'
P P 0.1023 0.0942 'International Tables Vol C Tables 4.2.6.8 and 6.1.1.4'
Br Br -0.2901 2.4595 'International Tables Vol C Tables 4.2.6.8 and 6.1.1.4'
loop_
_geom_angle_atom_site_label_1
_geom_angle_atom_site_label_2
_geom_angle_atom_site_label_3
_geom_angle
_geom_angle_site_symmetry_1
_geom_angle_site_symmetry_3
_geom_angle_publ_flag
Sn2 Sn1 Sn1 134.9(5) . 27 ?
Sn2 Sn1 P2 9.6(4) . . ?
Sn1 Sn1 P2 125.26(7) 27 . ?
Sn2 Sn1 P1 97.0(4) . . ?
Sn1 Sn1 P1 108.90(15) 27 . ?
P2 Sn1 P1 102.5(2) . . ?
Sn2 Sn1 P1 97.0(4) . 26 ?
Sn1 Sn1 P1 108.90(15) 27 26 ?
P2 Sn1 P1 102.5(2) . 26 ?
P1 Sn1 P1 107.68(10) . 26 ?
Sn2 Sn1 Sn2 126.9(5) . 27 ?
Sn1 Sn1 Sn2 7.98(7) 27 27 ?
P2 Sn1 Sn2 117.29(13) . 27 ?
P1 Sn1 Sn2 112.91(12) . 27 ?
P1 Sn1 Sn2 112.91(12) 26 27 ?
Sn1 Sn2 P2 167.6(5) . . ?
Sn1 Sn2 P1 70.9(4) . 26 ?
P2 Sn2 P1 115.9(2) . 26 ?
Sn1 Sn2 P1 70.9(4) . . ?
P2 Sn2 P1 115.9(2) . . ?
P1 Sn2 P1 100.5(2) 26 . ?
Sn1 Sn2 Sn1 37.2(4) . 27 ?
P2 Sn2 Sn1 130.48(14) . 27 ?
P1 Sn2 Sn1 94.12(19) 26 27 ?
P1 Sn2 Sn1 94.12(19) . 27 ?
Sn1 Sn2 Sn2 147.62(8) . 47_666 ?
P2 Sn2 Sn2 36.61(4) . 47_666 ?
P1 Sn2 Sn2 128.5(2) 26 47_666 ?
P1 Sn2 Sn2 79.3(2) . 47_666 ?
Sn1 Sn2 Sn2 137.38(13) 27 47_666 ?
Sn1 Sn2 Sn2 147.62(8) . 45_665 ?
P2 Sn2 Sn2 36.61(4) . 45_665 ?
P1 Sn2 Sn2 79.3(2) 26 45_665 ?
P1 Sn2 Sn2 128.5(2) . 45_665 ?
Sn1 Sn2 Sn2 137.38(13) 27 45_665 ?
Sn2 Sn2 Sn2 63.38(10) 47_666 45_665 ?
Sn1 Sn2 Sn2 45.1(5) . 27 ?
P2 Sn2 Sn2 122.50(9) . 27 ?
P1 Sn2 Sn2 99.17(16) 26 27 ?
P1 Sn2 Sn2 99.17(16) . 27 ?
Sn1 Sn2 Sn2 7.98(7) 27 27 ?
Sn2 Sn2 Sn2 132.02(9) 47_666 27 ?
Sn2 Sn2 Sn2 132.02(9) 45_665 27 ?
P1 P1 Sn1 111.62(17) 14 9 ?
P1 P1 Sn1 111.62(17) 14 5 ?
Sn1 P1 Sn1 107.24(18) 9 5 ?
P1 P1 Sn1 111.62(17) 14 . ?
Sn1 P1 Sn1 107.24(18) 9 . ?
Sn1 P1 Sn1 107.24(18) 5 . ?
P1 P1 Sn2 100.3(2) 14 . ?
Sn1 P1 Sn2 116.82(16) 9 . ?
Sn1 P1 Sn2 109.25(19) 5 . ?
Sn1 P1 Sn2 12.12(5) . . ?
P1 P1 Sn2 100.3(2) 14 5 ?
Sn1 P1 Sn2 109.25(19) 9 5 ?
Sn1 P1 Sn2 12.12(5) 5 5 ?
Sn1 P1 Sn2 116.82(16) . 5 ?
Sn2 P1 Sn2 116.90(12) . 5 ?
P1 P1 Sn2 100.3(2) 14 9 ?
Sn1 P1 Sn2 12.12(5) 9 9 ?
Sn1 P1 Sn2 116.82(16) 5 9 ?
Sn1 P1 Sn2 109.25(19) . 9 ?
Sn2 P1 Sn2 116.90(12) . 9 ?
Sn2 P1 Sn2 116.90(12) 5 9 ?
Sn2 P2 Sn2 106.78(8) 47_666 . ?
Sn2 P2 Sn2 114.99(17) 47_666 45_665 ?
Sn2 P2 Sn2 106.78(8) . 45_665 ?
Sn2 P2 Sn2 106.78(8) 47_666 3_655 ?
Sn2 P2 Sn2 114.99(17) . 3_655 ?
Sn2 P2 Sn2 106.78(8) 45_665 3_655 ?
Sn2 P2 Sn1 108.07(5) 47_666 . ?
Sn2 P2 Sn1 2.76(11) . . ?
Sn2 P2 Sn1 108.07(5) 45_665 . ?
Sn2 P2 Sn1 112.23(10) 3_655 . ?
Sn2 P2 Sn1 2.76(11) 47_666 47_666 ?
Sn2 P2 Sn1 108.07(5) . 47_666 ?
Sn2 P2 Sn1 112.23(10) 45_665 47_666 ?
Sn2 P2 Sn1 108.07(5) 3_655 47_666 ?
Sn1 P2 Sn1 109.47(7) . 47_666 ?
Sn2 P2 Sn1 112.23(10) 47_666 45_665 ?
Sn2 P2 Sn1 108.07(5) . 45_665 ?
Sn2 P2 Sn1 2.76(11) 45_665 45_665 ?
Sn2 P2 Sn1 108.07(5) 3_655 45_665 ?
Sn1 P2 Sn1 109.47(7) . 45_665 ?
Sn1 P2 Sn1 109.47(13) 47_666 45_665 ?
Sn2 P2 Sn1 108.07(5) 47_666 3_655 ?
Sn2 P2 Sn1 112.23(10) . 3_655 ?
Sn2 P2 Sn1 108.07(5) 45_665 3_655 ?
Sn2 P2 Sn1 2.76(11) 3_655 3_655 ?
Sn1 P2 Sn1 109.47(13) . 3_655 ?
Sn1 P2 Sn1 109.47(7) 47_666 3_655 ?
Sn1 P2 Sn1 109.47(7) 45_665 3_655 ?
loop_
_geom_bond_atom_site_label_1
_geom_bond_atom_site_label_2
_geom_bond_distance
_geom_bond_site_symmetry_2
_geom_bond_publ_flag
Sn1 Sn2 0.570(3) . n
Sn1 Sn1 2.481(12) 27 ?
Sn1 P2 2.532(7) . y
Sn1 P1 2.5661(17) . y
Sn1 P1 2.5661(17) 26 y
Sn1 Sn2 2.911(13) 27 n
Sn2 P2 1.973(10) . n
Sn2 P1 2.695(4) 26 y
Sn2 P1 2.695(4) . y
Sn2 Sn1 2.911(13) 27 y
Sn2 Sn2 3.167(17) 47_666 y
Sn2 Sn2 3.167(17) 45_665 y
Sn2 Sn2 3.285(13) 27 y
P1 P1 2.185(6) 14 y
P1 Sn1 2.5661(17) 9 y
P1 Sn1 2.5661(17) 5 y
P1 Sn2 2.695(4) 5 y
P1 Sn2 2.695(4) 9 y
P2 Sn2 1.973(10) 47_666 n
P2 Sn2 1.973(10) 45_665 n
P2 Sn2 1.973(10) 3_655 n
P2 Sn1 2.532(7) 47_666 y
P2 Sn1 2.532(7) 45_665 y
P2 Sn1 2.532(7) 3_655 y
