#------------------------------------------------------------------------------
#$Date: 2016-02-16 22:30:59 +0200 (Tue, 16 Feb 2016) $
#$Revision: 176467 $
#$URL: svn://www.crystallography.net/cod/cif/4/31/09/4310979.cif $
#------------------------------------------------------------------------------
#
# This file is available in the Crystallography Open Database (COD),
# http://www.crystallography.net/
#
# All data on this site have been placed in the public domain by the
# contributors.
#
data_4310979
loop_
_publ_author_name
'Kirill A. Kovnir'
'Julia V. Zaikina'
'Lyudmila N. Reshetova'
'Andrei V. Olenev'
'Evgeny V. Dikarev'
'Andrei V. Shevelkov'
_publ_contact_author
;
        Andrei V. Shevelkov
        Inorganic Synthesis Laboratory
        Moscow State University
        Leninskie Gory 1/3
        119992 Moscow
        Russia
;
_publ_section_title
;
 Unusually High Chemical Compressibility of Normally Rigid Type-I
 Clathrate Framework: Synthesis and Structural Study of Sn24P19.3BrxI8-x
 Solid Solution, the Prospective Thermoelectric Material
;
_journal_name_full               'Inorganic Chemistry'
_journal_page_first              3230
_journal_page_last               3236
_journal_paper_doi               10.1021/ic035097f
_journal_volume                  43
_journal_year                    2004
_chemical_formula_moiety         '(Sn24P19.6), (Br8)'
_chemical_formula_sum            'Br8 P19.6 Sn24'
_chemical_formula_weight         4094.85
_chemical_melting_point          ?
_chemical_name_systematic        'tin phosphide bromide'
_space_group_IT_number           223
_symmetry_cell_setting           cubic
_symmetry_space_group_name_Hall  '-P 4n 2 3'
_symmetry_space_group_name_H-M   'P m -3 n'
_atom_sites_solution_hydrogens   geom
_atom_sites_solution_primary     direct
_atom_sites_solution_secondary   difmap
_audit_creation_method           SHELXL-97
_cell_angle_alpha                90.00
_cell_angle_beta                 90.00
_cell_angle_gamma                90.00
_cell_formula_units_Z            1
_cell_length_a                   10.8108(2)
_cell_length_b                   10.8108(2)
_cell_length_c                   10.8108(2)
_cell_measurement_reflns_used    8964
_cell_measurement_temperature    253(2)
_cell_measurement_theta_max      28.15
_cell_measurement_theta_min      2.67
_cell_volume                     1263.49(4)
_computing_cell_refinement       'SMART, SAINT'
_computing_data_collection       SMART
_computing_data_reduction        SAINT
_computing_molecular_graphics    'SHELXP-93 (Sheldrick, 1993)'
_computing_publication_material  'SHELXCIF-93 (Sheldrick, 1993)'
_computing_structure_refinement  'SHELXL-97 (Sheldrick, 1997)'
_computing_structure_solution    'SHELXS-97 (Sheldrick, 1990)'
_diffrn_ambient_temperature      253(2)
_diffrn_measured_fraction_theta_full 1.000
_diffrn_measured_fraction_theta_max 1.000
_diffrn_measurement_device_type  'Bruker SMART APEX CCD'
_diffrn_measurement_method       '0.3 deg wide \w exposures'
_diffrn_radiation_monochromator  graphite
_diffrn_radiation_source         'fine-focus sealed tube'
_diffrn_radiation_type           MoK\a
_diffrn_radiation_wavelength     0.71073
_diffrn_reflns_av_R_equivalents  0.0198
_diffrn_reflns_av_sigmaI/netI    0.0061
_diffrn_reflns_limit_h_max       14
_diffrn_reflns_limit_h_min       -13
_diffrn_reflns_limit_k_max       13
_diffrn_reflns_limit_k_min       -14
_diffrn_reflns_limit_l_max       14
_diffrn_reflns_limit_l_min       -14
_diffrn_reflns_number            9849
_diffrn_reflns_theta_full        28.15
_diffrn_reflns_theta_max         28.15
_diffrn_reflns_theta_min         2.66
_diffrn_standards_decay_%        0
_diffrn_standards_interval_count na
_diffrn_standards_interval_time  na
_diffrn_standards_number         'none (area detector data)'
_exptl_absorpt_coefficient_mu    18.574
_exptl_absorpt_correction_T_max  0.4569
_exptl_absorpt_correction_T_min  0.2857
_exptl_absorpt_correction_type   'multi-scan (SADABS)'
_exptl_crystal_colour            black
_exptl_crystal_density_diffrn    5.382
_exptl_crystal_density_meas      ?
_exptl_crystal_density_method    .
_exptl_crystal_description       block
_exptl_crystal_F_000             1774
_exptl_crystal_size_max          0.09
_exptl_crystal_size_mid          0.07
_exptl_crystal_size_min          0.05
_refine_diff_density_max         1.197
_refine_diff_density_min         -1.160
_refine_diff_density_rms         0.243
_refine_ls_extinction_coef       0.00148(16)
_refine_ls_extinction_expression Fc^*^=kFc[1+0.001xFc^2^\l^3^/sin(2\q)]^-1/4^
_refine_ls_extinction_method     SHELXL
_refine_ls_goodness_of_fit_ref   1.582
_refine_ls_hydrogen_treatment    mixed
_refine_ls_matrix_type           full
_refine_ls_number_parameters     23
_refine_ls_number_reflns         310
_refine_ls_number_restraints     0
_refine_ls_restrained_S_all      1.582
_refine_ls_R_factor_all          0.0366
_refine_ls_R_factor_gt           0.0366
_refine_ls_shift/su_max          0.000
_refine_ls_shift/su_mean         0.000
_refine_ls_structure_factor_coef Fsqd
_refine_ls_weighting_details
'calc w=1/[\s^2^(Fo^2^)+(0.0000P)^2^+33.7296P] where P=(Fo^2^+2Fc^2^)/3'
_refine_ls_weighting_scheme      calc
_refine_ls_wR_factor_gt          0.0821
_refine_ls_wR_factor_ref         0.0821
_reflns_number_gt                310
_reflns_number_total             310
_reflns_threshold_expression     >2sigma(I)
_cod_data_source_file            ic035097fsi20030917_071526_06.cif
_cod_data_source_block           xl6
_cod_depositor_comments
;
The following automatic conversions were performed:
'_publ_contact_autor' tag replaced with
'_publ_contact_author'.

'_atom_site_symetry_multiplicity' tag
replaced with '_atom_site_symmetry_multiplicity'.

Automatic conversion script
Id: cif_correct_tags 1440 2010-10-19 06:21:57Z saulius 

The following automatic conversions were performed:

'_chemical_melting_point' value 'not measured' was changed to '?' -
the value is undefined or not given.

Automatic conversion script
Id: cif_fix_values 1569 2011-02-09 13:29:24Z adriana 
;
_cod_original_cell_volume        1263.50(4)
_cod_original_formula_sum        'Br8 P19.60 Sn24'
_cod_database_code               4310979
loop_
_symmetry_equiv_pos_as_xyz
'x, y, z'
'-x, -y, z'
'-x, y, -z'
'x, -y, -z'
'z, x, y'
'z, -x, -y'
'-z, -x, y'
'-z, x, -y'
'y, z, x'
'-y, z, -x'
'y, -z, -x'
'-y, -z, x'
'y+1/2, x+1/2, -z+1/2'
'-y+1/2, -x+1/2, -z+1/2'
'y+1/2, -x+1/2, z+1/2'
'-y+1/2, x+1/2, z+1/2'
'x+1/2, z+1/2, -y+1/2'
'-x+1/2, z+1/2, y+1/2'
'-x+1/2, -z+1/2, -y+1/2'
'x+1/2, -z+1/2, y+1/2'
'z+1/2, y+1/2, -x+1/2'
'z+1/2, -y+1/2, x+1/2'
'-z+1/2, y+1/2, x+1/2'
'-z+1/2, -y+1/2, -x+1/2'
'-x, -y, -z'
'x, y, -z'
'x, -y, z'
'-x, y, z'
'-z, -x, -y'
'-z, x, y'
'z, x, -y'
'z, -x, y'
'-y, -z, -x'
'y, -z, x'
'-y, z, x'
'y, z, -x'
'-y-1/2, -x-1/2, z-1/2'
'y-1/2, x-1/2, z-1/2'
'-y-1/2, x-1/2, -z-1/2'
'y-1/2, -x-1/2, -z-1/2'
'-x-1/2, -z-1/2, y-1/2'
'x-1/2, -z-1/2, -y-1/2'
'x-1/2, z-1/2, y-1/2'
'-x-1/2, z-1/2, -y-1/2'
'-z-1/2, -y-1/2, x-1/2'
'-z-1/2, y-1/2, -x-1/2'
'z-1/2, -y-1/2, -x-1/2'
'z-1/2, y-1/2, x-1/2'
loop_
_atom_site_label
_atom_site_type_symbol
_atom_site_fract_x
_atom_site_fract_y
_atom_site_fract_z
_atom_site_U_iso_or_equiv
_atom_site_adp_type
_atom_site_occupancy
_atom_site_symmetry_multiplicity
_atom_site_calc_flag
_atom_site_refinement_flags
_atom_site_disorder_assembly
_atom_site_disorder_group
Br1 Br 0.0000 0.0000 0.0000 0.0181(8) Uani 1 24 d S . .
Br2 Br 0.5000 0.0000 0.2500 0.0256(6) Uani 1 8 d S . .
Sn1 Sn 0.3087(5) 0.1148(7) 0.0000 0.0162(8) Uani 0.60(2) 2 d SP . .
Sn2 Sn 0.3461(9) 0.1520(7) 0.0000 0.0128(14) Uani 0.40(2) 2 d SP . .
P1 P 0.19167(16) 0.19167(16) 0.19167(16) 0.0091(6) Uani 1 3 d S . .
P2 P 0.5000 0.2500 0.0000 0.012(2) Uani 0.60(2) 8 d SP . .
loop_
_atom_site_aniso_label
_atom_site_aniso_U_11
_atom_site_aniso_U_22
_atom_site_aniso_U_33
_atom_site_aniso_U_23
_atom_site_aniso_U_13
_atom_site_aniso_U_12
Br1 0.0181(8) 0.0181(8) 0.0181(8) 0.000 0.000 0.000
Br2 0.0300(9) 0.0300(9) 0.0170(12) 0.000 0.000 0.000
Sn1 0.0144(13) 0.0226(17) 0.0116(7) 0.000 0.000 -0.0025(14)
Sn2 0.017(2) 0.011(2) 0.0111(10) 0.000 0.000 -0.0040(18)
P1 0.0091(6) 0.0091(6) 0.0091(6) -0.0012(6) -0.0012(6) -0.0012(6)
P2 0.012(3) 0.013(5) 0.012(3) 0.000 0.000 0.000
loop_
_atom_type_symbol
_atom_type_description
_atom_type_scat_dispersion_real
_atom_type_scat_dispersion_imag
_atom_type_scat_source
P P 0.1023 0.0942 'International Tables Vol C Tables 4.2.6.8 and 6.1.1.4'
Br Br -0.2901 2.4595 'International Tables Vol C Tables 4.2.6.8 and 6.1.1.4'
Sn Sn -0.6537 1.4246 'International Tables Vol C Tables 4.2.6.8 and 6.1.1.4'
loop_
_geom_angle_atom_site_label_1
_geom_angle_atom_site_label_2
_geom_angle_atom_site_label_3
_geom_angle
_geom_angle_site_symmetry_1
_geom_angle_site_symmetry_3
_geom_angle_publ_flag
Sn2 Sn1 Sn1 134.8(5) . 27 ?
Sn2 Sn1 P2 9.5(4) . . ?
Sn1 Sn1 P2 125.25(7) 27 . ?
Sn2 Sn1 P1 97.0(4) . . ?
Sn1 Sn1 P1 108.89(18) 27 . ?
P2 Sn1 P1 102.5(2) . . ?
Sn2 Sn1 P1 97.0(4) . 26 ?
Sn1 Sn1 P1 108.89(18) 27 26 ?
P2 Sn1 P1 102.5(2) . 26 ?
P1 Sn1 P1 107.70(10) . 26 ?
Sn2 Sn1 Sn2 126.8(5) . 27 ?
Sn1 Sn1 Sn2 7.98(7) 27 27 ?
P2 Sn1 Sn2 117.27(13) . 27 ?
P1 Sn1 Sn2 112.90(15) . 27 ?
P1 Sn1 Sn2 112.90(15) 26 27 ?
Sn1 Sn2 P2 167.7(5) . . ?
Sn1 Sn2 P1 70.9(4) . 26 ?
P2 Sn2 P1 115.9(3) . 26 ?
Sn1 Sn2 P1 70.9(4) . . ?
P2 Sn2 P1 115.9(3) . . ?
P1 Sn2 P1 100.5(3) 26 . ?
Sn1 Sn2 Sn1 37.2(4) . 27 ?
P2 Sn2 Sn1 130.49(13) . 27 ?
P1 Sn2 Sn1 94.1(2) 26 27 ?
P1 Sn2 Sn1 94.1(2) . 27 ?
Sn1 Sn2 Sn2 147.61(8) . 47_666 ?
P2 Sn2 Sn2 36.61(4) . 47_666 ?
P1 Sn2 Sn2 128.5(3) 26 47_666 ?
P1 Sn2 Sn2 79.3(2) . 47_666 ?
Sn1 Sn2 Sn2 137.39(12) 27 47_666 ?
Sn1 Sn2 Sn2 147.61(8) . 45_665 ?
P2 Sn2 Sn2 36.61(4) . 45_665 ?
P1 Sn2 Sn2 79.3(2) 26 45_665 ?
P1 Sn2 Sn2 128.5(3) . 45_665 ?
Sn1 Sn2 Sn2 137.39(12) 27 45_665 ?
Sn2 Sn2 Sn2 63.37(10) 47_666 45_665 ?
Sn1 Sn2 Sn2 45.2(5) . 27 ?
P2 Sn2 Sn2 122.51(8) . 27 ?
P1 Sn2 Sn2 99.17(18) 26 27 ?
P1 Sn2 Sn2 99.17(18) . 27 ?
Sn1 Sn2 Sn2 7.98(7) 27 27 ?
Sn2 Sn2 Sn2 132.03(9) 47_666 27 ?
Sn2 Sn2 Sn2 132.03(9) 45_665 27 ?
P1 P1 Sn1 111.62(19) 14 9 ?
P1 P1 Sn1 111.62(19) 14 5 ?
Sn1 P1 Sn1 107.2(2) 9 5 ?
P1 P1 Sn1 111.62(19) 14 . ?
Sn1 P1 Sn1 107.2(2) 9 . ?
Sn1 P1 Sn1 107.2(2) 5 . ?
P1 P1 Sn2 100.3(2) 14 . ?
Sn1 P1 Sn2 116.81(18) 9 . ?
Sn1 P1 Sn2 109.3(2) 5 . ?
Sn1 P1 Sn2 12.11(5) . . ?
P1 P1 Sn2 100.3(2) 14 5 ?
Sn1 P1 Sn2 109.3(2) 9 5 ?
Sn1 P1 Sn2 12.11(5) 5 5 ?
Sn1 P1 Sn2 116.81(18) . 5 ?
Sn2 P1 Sn2 116.90(14) . 5 ?
P1 P1 Sn2 100.3(2) 14 9 ?
Sn1 P1 Sn2 12.11(5) 9 9 ?
Sn1 P1 Sn2 116.81(18) 5 9 ?
Sn1 P1 Sn2 109.3(2) . 9 ?
Sn2 P1 Sn2 116.90(14) . 9 ?
Sn2 P1 Sn2 116.90(14) 5 9 ?
Sn2 P2 Sn2 106.79(8) 47_666 . ?
Sn2 P2 Sn2 114.98(16) 47_666 45_665 ?
Sn2 P2 Sn2 106.79(8) . 45_665 ?
Sn2 P2 Sn2 106.79(8) 47_666 3_655 ?
Sn2 P2 Sn2 114.98(16) . 3_655 ?
Sn2 P2 Sn2 106.79(8) 45_665 3_655 ?
Sn2 P2 Sn1 108.07(5) 47_666 . ?
Sn2 P2 Sn1 2.74(11) . . ?
Sn2 P2 Sn1 108.07(5) 45_665 . ?
Sn2 P2 Sn1 112.24(11) 3_655 . ?
Sn2 P2 Sn1 2.74(11) 47_666 47_666 ?
Sn2 P2 Sn1 108.07(5) . 47_666 ?
Sn2 P2 Sn1 112.24(11) 45_665 47_666 ?
Sn2 P2 Sn1 108.07(5) 3_655 47_666 ?
Sn1 P2 Sn1 109.46(7) . 47_666 ?
Sn2 P2 Sn1 112.24(11) 47_666 45_665 ?
Sn2 P2 Sn1 108.07(5) . 45_665 ?
Sn2 P2 Sn1 2.74(11) 45_665 45_665 ?
Sn2 P2 Sn1 108.07(5) 3_655 45_665 ?
Sn1 P2 Sn1 109.46(7) . 45_665 ?
Sn1 P2 Sn1 109.50(14) 47_666 45_665 ?
Sn2 P2 Sn1 108.07(5) 47_666 3_655 ?
Sn2 P2 Sn1 112.24(11) . 3_655 ?
Sn2 P2 Sn1 108.07(5) 45_665 3_655 ?
Sn2 P2 Sn1 2.74(11) 3_655 3_655 ?
Sn1 P2 Sn1 109.50(14) . 3_655 ?
Sn1 P2 Sn1 109.46(7) 47_666 3_655 ?
Sn1 P2 Sn1 109.46(7) 45_665 3_655 ?
loop_
_geom_bond_atom_site_label_1
_geom_bond_atom_site_label_2
_geom_bond_distance
_geom_bond_site_symmetry_2
_geom_bond_publ_flag
Sn1 Sn2 0.570(3) . n
Sn1 Sn1 2.483(14) 27 n
Sn1 P2 2.532(9) . y
Sn1 P1 2.5662(17) . y
Sn1 P1 2.5662(17) 26 y
Sn1 Sn2 2.912(15) 27 n
Sn2 P2 1.972(12) . n
Sn2 P1 2.696(5) 26 y
Sn2 P1 2.696(5) . y
Sn2 Sn1 2.912(15) 27 y
Sn2 Sn2 3.17(2) 47_666 y
Sn2 Sn2 3.17(2) 45_665 y
Sn2 Sn2 3.285(15) 27 y
P1 P1 2.184(6) 14 y
P1 Sn1 2.5662(17) 9 y
P1 Sn1 2.5662(17) 5 y
P1 Sn2 2.696(5) 5 y
P1 Sn2 2.696(5) 9 y
P2 Sn2 1.972(12) 47_666 n
P2 Sn2 1.972(12) 45_665 n
P2 Sn2 1.972(12) 3_655 n
P2 Sn1 2.532(9) 47_666 y
P2 Sn1 2.532(9) 45_665 y
P2 Sn1 2.532(9) 3_655 y
