#------------------------------------------------------------------------------
#$Date: 2016-03-23 01:52:49 +0200 (Wed, 23 Mar 2016) $
#$Revision: 179159 $
#$URL: svn://www.crystallography.net/cod/cif/4/31/20/4312031.cif $
#------------------------------------------------------------------------------
#
# This file is available in the Crystallography Open Database (COD),
# http://www.crystallography.net/
#
# All data on this site have been placed in the public domain by the
# contributors.
#
data_4312031
loop_
_publ_author_name
'Jiyong Yao'
'Bin Deng'
'Leif J. Sherry'
'Adam D. McFarland'
'Donald E. Ellis'
'Richard P. Van Duyne'
'James A. Ibers'
_publ_section_title
;
 Syntheses, Structure, Some Band Gaps, and Electronic Structures of
 CsLnZnTe3 (Ln = La, Pr, Nd, Sm, Gd, Tb, Dy, Ho, Er, Tm, Y)
;
_journal_name_full               'Inorganic Chemistry'
_journal_page_first              7735
_journal_page_last               7740
_journal_paper_doi               10.1021/ic040071p
_journal_volume                  43
_journal_year                    2004
_chemical_formula_sum            'Cs Sm Te3 Zn'
_chemical_formula_weight         731.43
_chemical_name_systematic
;

  ?

;
_space_group_IT_number           63
_symmetry_cell_setting           orthorhombic
_symmetry_space_group_name_Hall  '-C 2c 2'
_symmetry_space_group_name_H-M   'C m c m'
_atom_sites_solution_hydrogens   none
_atom_sites_solution_primary     direct
_atom_sites_solution_secondary   difmap
_audit_creation_method           SHELXL-97
_cell_angle_alpha                90.00
_cell_angle_beta                 90.00
_cell_angle_gamma                90.00
_cell_formula_units_Z            4
_cell_length_a                   4.4368(5)
_cell_length_b                   16.6840(17)
_cell_length_c                   11.7724(12)
_cell_measurement_temperature    153(2)
_cell_volume                     871.44(16)
_computing_cell_refinement       'SMART version 5.054 (Bruker 2000)'
_computing_data_collection       'SMART version 5.054 (Bruker 2000)'
_computing_data_reduction        'SAINT-Plus version 6.22 (Bruker 2000)'
_computing_molecular_graphics    'SHELXL-97 (Sheldrick, 1997)'
_computing_publication_material  'SHELXL-97 (Sheldrick, 1997)'
_computing_structure_refinement  'SHELXL-97 (Sheldrick, 1997)'
_computing_structure_solution    'SHELXS-97 (Sheldrick, 1990)'
_diffrn_ambient_temperature      153(2)
_diffrn_measured_fraction_theta_full 0.970
_diffrn_measured_fraction_theta_max 0.970
_diffrn_measurement_device_type  'Bruker 1000-CCD'
_diffrn_measurement_method       \w
_diffrn_radiation_monochromator  graphite
_diffrn_radiation_source         'fine-focus sealed tube'
_diffrn_radiation_type           MoK\a
_diffrn_radiation_wavelength     0.71073
_diffrn_reflns_av_R_equivalents  0.0273
_diffrn_reflns_av_sigmaI/netI    0.0156
_diffrn_reflns_limit_h_max       5
_diffrn_reflns_limit_h_min       -5
_diffrn_reflns_limit_k_max       22
_diffrn_reflns_limit_k_min       -22
_diffrn_reflns_limit_l_max       15
_diffrn_reflns_limit_l_min       -15
_diffrn_reflns_number            5145
_diffrn_reflns_theta_full        28.65
_diffrn_reflns_theta_max         28.65
_diffrn_reflns_theta_min         2.44
_diffrn_standards_interval_count 0
_diffrn_standards_interval_time  .
_diffrn_standards_number         0
_exptl_absorpt_coefficient_mu    23.281
_exptl_absorpt_correction_T_max  0.75384
_exptl_absorpt_correction_T_min  0.13230
_exptl_absorpt_correction_type   numerical
_exptl_absorpt_process_details   face-indexed
_exptl_crystal_colour            'dark red'
_exptl_crystal_density_diffrn    5.575
_exptl_crystal_density_method    'not measured'
_exptl_crystal_description       needle
_exptl_crystal_F_000             1212
_exptl_crystal_size_max          0.314
_exptl_crystal_size_mid          0.032
_exptl_crystal_size_min          0.012
_refine_diff_density_max         4.763
_refine_diff_density_min         -2.205
_refine_diff_density_rms         0.470
_refine_ls_extinction_method     none
_refine_ls_goodness_of_fit_ref   1.376
_refine_ls_hydrogen_treatment    none
_refine_ls_matrix_type           full
_refine_ls_number_parameters     23
_refine_ls_number_reflns         638
_refine_ls_number_restraints     0
_refine_ls_restrained_S_all      1.376
_refine_ls_R_factor_all          0.0306
_refine_ls_R_factor_gt           0.0282
_refine_ls_shift/su_max          0.000
_refine_ls_shift/su_mean         0.000
_refine_ls_structure_factor_coef Fsqd
_refine_ls_weighting_details
'calc w=1/[\s^2^(Fo^2^)+(0.0400P)^2^+0.0000P] where P=(Fo^2^+2Fc^2^)/3'
_refine_ls_weighting_scheme      calc
_refine_ls_wR_factor_gt          0.0678
_refine_ls_wR_factor_ref         0.0696
_reflns_number_gt                591
_reflns_number_total             638
_reflns_threshold_expression     >2sigma(I)
_cod_data_source_file            ic040071p_04.cif
_cod_data_source_block           CsSmZnTe3
_cod_database_code               4312031
loop_
_symmetry_equiv_pos_as_xyz
'x, y, z'
'-x, -y, z+1/2'
'-x, y, -z+1/2'
'x, -y, -z'
'x+1/2, y+1/2, z'
'-x+1/2, -y+1/2, z+1/2'
'-x+1/2, y+1/2, -z+1/2'
'x+1/2, -y+1/2, -z'
'-x, -y, -z'
'x, y, -z-1/2'
'x, -y, z-1/2'
'-x, y, z'
'-x+1/2, -y+1/2, -z'
'x+1/2, y+1/2, -z-1/2'
'x+1/2, -y+1/2, z-1/2'
'-x+1/2, y+1/2, z'
loop_
_atom_site_label
_atom_site_type_symbol
_atom_site_fract_x
_atom_site_fract_y
_atom_site_fract_z
_atom_site_U_iso_or_equiv
_atom_site_adp_type
_atom_site_occupancy
_atom_site_symmetry_multiplicity
_atom_site_calc_flag
_atom_site_refinement_flags
_atom_site_disorder_assembly
_atom_site_disorder_group
Cs Cs 0.0000 0.74339(4) 0.2500 0.01756(19) Uani 1 4 d S . .
Sm Sm 0.0000 0.0000 0.0000 0.01092(17) Uani 1 4 d S . .
Zn Zn 0.0000 0.46023(7) 0.2500 0.0130(3) Uani 1 4 d S . .
Te1 Te 0.0000 0.37560(3) 0.05994(4) 0.01140(17) Uani 1 2 d S . .
Te2 Te 0.0000 0.05897(4) 0.2500 0.01053(18) Uani 1 4 d S . .
loop_
_atom_site_aniso_label
_atom_site_aniso_U_11
_atom_site_aniso_U_22
_atom_site_aniso_U_33
_atom_site_aniso_U_23
_atom_site_aniso_U_13
_atom_site_aniso_U_12
Cs 0.0154(4) 0.0167(3) 0.0206(4) 0.000 0.000 0.000
Sm 0.0099(3) 0.0161(3) 0.0068(3) 0.00022(16) 0.000 0.000
Zn 0.0127(6) 0.0179(6) 0.0084(5) 0.000 0.000 0.000
Te1 0.0111(3) 0.0145(3) 0.0087(3) -0.00030(15) 0.000 0.000
Te2 0.0111(3) 0.0146(3) 0.0060(3) 0.000 0.000 0.000
loop_
_atom_type_symbol
_atom_type_description
_atom_type_scat_dispersion_real
_atom_type_scat_dispersion_imag
_atom_type_scat_source
Zn Zn 0.2839 1.4301 'International Tables Vol C Tables 4.2.6.8 and 6.1.1.4'
Te Te -0.5308 1.6751 'International Tables Vol C Tables 4.2.6.8 and 6.1.1.4'
Cs Cs -0.3680 2.1192 'International Tables Vol C Tables 4.2.6.8 and 6.1.1.4'
Sm Sm -0.1638 3.4418 'International Tables Vol C Tables 4.2.6.8 and 6.1.1.4'
loop_
_geom_angle_atom_site_label_1
_geom_angle_atom_site_label_2
_geom_angle_atom_site_label_3
_geom_angle
_geom_angle_site_symmetry_1
_geom_angle_site_symmetry_3
_geom_angle_publ_flag
Te2 Cs Te2 71.581(18) 5_455 5 ?
Te2 Cs Te1 143.371(10) 5_455 14_556 ?
Te2 Cs Te1 97.346(10) 5 14_556 ?
Te2 Cs Te1 97.346(10) 5_455 14_456 ?
Te2 Cs Te1 143.371(10) 5 14_456 ?
Te1 Cs Te1 70.451(13) 14_556 14_456 ?
Te2 Cs Te1 143.371(10) 5_455 5 ?
Te2 Cs Te1 97.346(10) 5 5 ?
Te1 Cs Te1 71.145(16) 14_556 5 ?
Te1 Cs Te1 110.01(2) 14_456 5 ?
Te2 Cs Te1 97.346(10) 5_455 5_455 ?
Te2 Cs Te1 143.371(10) 5 5_455 ?
Te1 Cs Te1 110.01(2) 14_556 5_455 ?
Te1 Cs Te1 71.145(16) 14_456 5_455 ?
Te1 Cs Te1 70.451(13) 5 5_455 ?
Te2 Cs Te1 67.190(10) 5_455 9_565 ?
Te2 Cs Te1 67.190(10) 5 9_565 ?
Te1 Cs Te1 141.728(7) 14_556 9_565 ?
Te1 Cs Te1 141.728(7) 14_456 9_565 ?
Te1 Cs Te1 76.296(11) 5 9_565 ?
Te1 Cs Te1 76.296(11) 5_455 9_565 ?
Te2 Cs Te1 67.190(10) 5_455 2_565 ?
Te2 Cs Te1 67.190(10) 5 2_565 ?
Te1 Cs Te1 76.296(11) 14_556 2_565 ?
Te1 Cs Te1 76.296(11) 14_456 2_565 ?
Te1 Cs Te1 141.728(7) 5 2_565 ?
Te1 Cs Te1 141.728(7) 5_455 2_565 ?
Te1 Cs Te1 122.90(2) 9_565 2_565 ?
Te2 Cs Zn 175.726(15) 5_455 5 ?
Te2 Cs Zn 112.693(13) 5 5 ?
Te1 Cs Zn 37.776(9) 14_556 5 ?
Te1 Cs Zn 79.200(16) 14_456 5 ?
Te1 Cs Zn 37.776(9) 5 5 ?
Te1 Cs Zn 79.200(16) 5_455 5 ?
Te1 Cs Zn 114.043(8) 9_565 5 ?
Te1 Cs Zn 114.043(8) 2_565 5 ?
Te2 Cs Zn 112.693(13) 5_455 5_455 ?
Te2 Cs Zn 175.726(15) 5 5_455 ?
Te1 Cs Zn 79.200(16) 14_556 5_455 ?
Te1 Cs Zn 37.776(9) 14_456 5_455 ?
Te1 Cs Zn 79.200(16) 5 5_455 ?
Te1 Cs Zn 37.776(9) 5_455 5_455 ?
Te1 Cs Zn 114.043(8) 9_565 5_455 ?
Te1 Cs Zn 114.043(8) 2_565 5_455 ?
Zn Cs Zn 63.03(2) 5 5_455 ?
Te2 Cs Cs 125.791(9) 5_455 1_655 ?
Te2 Cs Cs 54.209(9) 5 1_655 ?
Te1 Cs Cs 54.775(7) 14_556 1_655 ?
Te1 Cs Cs 125.225(7) 14_456 1_655 ?
Te1 Cs Cs 54.775(7) 5 1_655 ?
Te1 Cs Cs 125.225(7) 5_455 1_655 ?
Te1 Cs Cs 90.0 9_565 1_655 ?
Te1 Cs Cs 90.0 2_565 1_655 ?
Zn Cs Cs 58.483(10) 5 1_655 ?
Zn Cs Cs 121.517(10) 5_455 1_655 ?
Te2 Cs Cs 54.209(9) 5_455 1_455 ?
Te2 Cs Cs 125.791(9) 5 1_455 ?
Te1 Cs Cs 125.225(7) 14_556 1_455 ?
Te1 Cs Cs 54.775(7) 14_456 1_455 ?
Te1 Cs Cs 125.225(7) 5 1_455 ?
Te1 Cs Cs 54.775(7) 5_455 1_455 ?
Te1 Cs Cs 90.0 9_565 1_455 ?
Te1 Cs Cs 90.0 2_565 1_455 ?
Zn Cs Cs 121.517(10) 5 1_455 ?
Zn Cs Cs 58.483(10) 5_455 1_455 ?
Cs Cs Cs 180.0 1_655 1_455 ?
Te2 Sm Te2 180.0 9 . ?
Te2 Sm Te1 90.207(12) 9 5_445 ?
Te2 Sm Te1 89.793(12) . 5_445 ?
Te2 Sm Te1 89.793(12) 9 13 ?
Te2 Sm Te1 90.207(12) . 13 ?
Te1 Sm Te1 180.00(2) 5_445 13 ?
Te2 Sm Te1 90.207(12) 9 5_545 ?
Te2 Sm Te1 89.793(12) . 5_545 ?
Te1 Sm Te1 90.680(14) 5_445 5_545 ?
Te1 Sm Te1 89.320(14) 13 5_545 ?
Te2 Sm Te1 89.793(12) 9 13_455 ?
Te2 Sm Te1 90.207(12) . 13_455 ?
Te1 Sm Te1 89.320(14) 5_445 13_455 ?
Te1 Sm Te1 90.680(14) 13 13_455 ?
Te1 Sm Te1 180.00(2) 5_545 13_455 ?
Te1 Zn Te1 115.49(5) . 10_556 ?
Te1 Zn Te2 108.553(8) . 5 ?
Te1 Zn Te2 108.553(8) 10_556 5 ?
Te1 Zn Te2 108.553(8) . 5_455 ?
Te1 Zn Te2 108.553(8) 10_556 5_455 ?
Te2 Zn Te2 106.81(4) 5 5_455 ?
Te1 Zn Cs 62.94(2) . 5_445 ?
Te1 Zn Cs 62.94(2) 10_556 5_445 ?
Te2 Zn Cs 158.11(3) 5 5_445 ?
Te2 Zn Cs 95.080(17) 5_455 5_445 ?
Te1 Zn Cs 62.94(2) . 5_545 ?
Te1 Zn Cs 62.94(2) 10_556 5_545 ?
Te2 Zn Cs 95.080(17) 5 5_545 ?
Te2 Zn Cs 158.11(3) 5_455 5_545 ?
Cs Zn Cs 63.03(2) 5_445 5_545 ?
Zn Te1 Sm 80.571(18) . 5 ?
Zn Te1 Sm 80.571(18) . 5_455 ?
Sm Te1 Sm 90.680(14) 5 5_455 ?
Zn Te1 Cs 79.29(2) . 5_445 ?
Sm Te1 Cs 157.450(14) 5 5_445 ?
Sm Te1 Cs 95.912(10) 5_455 5_445 ?
Zn Te1 Cs 79.29(2) . 5_545 ?
Sm Te1 Cs 95.912(10) 5 5_545 ?
Sm Te1 Cs 157.450(14) 5_455 5_545 ?
Cs Te1 Cs 70.451(13) 5_445 5_545 ?
Zn Te1 Cs 176.29(3) . 9_565 ?
Sm Te1 Cs 96.851(12) 5 9_565 ?
Sm Te1 Cs 96.851(12) 5_455 9_565 ?
Cs Te1 Cs 103.704(11) 5_445 9_565 ?
Cs Te1 Cs 103.704(11) 5_545 9_565 ?
Zn Te2 Zn 106.81(4) 5_445 5_545 ?
Zn Te2 Sm 79.105(10) 5_445 . ?
Zn Te2 Sm 79.105(10) 5_545 . ?
Zn Te2 Sm 79.105(10) 5_445 2 ?
Zn Te2 Sm 79.105(10) 5_545 2 ?
Sm Te2 Sm 143.03(2) . 2 ?
Zn Te2 Cs 162.39(3) 5_445 5_545 ?
Zn Te2 Cs 90.81(2) 5_545 5_545 ?
Sm Te2 Cs 104.902(8) . 5_545 ?
Sm Te2 Cs 104.902(8) 2 5_545 ?
Zn Te2 Cs 90.81(2) 5_445 5_445 ?
Zn Te2 Cs 162.39(3) 5_545 5_445 ?
Sm Te2 Cs 104.902(8) . 5_445 ?
Sm Te2 Cs 104.902(8) 2 5_445 ?
Cs Te2 Cs 71.582(18) 5_545 5_445 ?
loop_
_geom_bond_atom_site_label_1
_geom_bond_atom_site_label_2
_geom_bond_distance
_geom_bond_site_symmetry_2
_geom_bond_publ_flag
Cs Te2 3.7933(8) 5_455 ?
Cs Te2 3.7933(8) 5 ?
Cs Te1 3.8461(6) 14_556 ?
Cs Te1 3.8461(6) 14_456 ?
Cs Te1 3.8461(6) 5 ?
Cs Te1 3.8461(6) 5_455 ?
Cs Te1 4.1539(6) 9_565 ?
Cs Te1 4.1539(6) 2_565 ?
Cs Zn 4.2437(12) 5 ?
Cs Zn 4.2437(12) 5_455 ?
Cs Cs 4.4368(5) 1_655 ?
Cs Cs 4.4368(5) 1_455 ?
Sm Te2 3.1032(3) 9 ?
Sm Te2 3.1032(3) . ?
Sm Te1 3.1188(4) 5_445 ?
Sm Te1 3.1188(4) 13 ?
Sm Te1 3.1188(4) 5_545 ?
Sm Te1 3.1188(4) 13_455 ?
Zn Te1 2.6457(8) . ?
Zn Te1 2.6457(8) 10_556 ?
Zn Te2 2.7631(8) 5 ?
Zn Te2 2.7631(8) 5_455 ?
Zn Cs 4.2437(12) 5_445 ?
Zn Cs 4.2437(12) 5_545 ?
Te1 Sm 3.1188(4) 5 ?
Te1 Sm 3.1188(4) 5_455 ?
Te1 Cs 3.8461(6) 5_445 ?
Te1 Cs 3.8461(6) 5_545 ?
Te1 Cs 4.1539(6) 9_565 ?
Te2 Zn 2.7631(8) 5_445 ?
Te2 Zn 2.7631(8) 5_545 ?
Te2 Sm 3.1032(3) 2 ?
Te2 Cs 3.7933(8) 5_545 ?
Te2 Cs 3.7933(8) 5_445 ?
