#------------------------------------------------------------------------------
#$Date: 2016-03-23 01:52:49 +0200 (Wed, 23 Mar 2016) $
#$Revision: 179159 $
#$URL: svn://www.crystallography.net/cod/cif/4/31/20/4312036.cif $
#------------------------------------------------------------------------------
#
# This file is available in the Crystallography Open Database (COD),
# http://www.crystallography.net/
#
# All data on this site have been placed in the public domain by the
# contributors.
#
data_4312036
loop_
_publ_author_name
'Jiyong Yao'
'Bin Deng'
'Leif J. Sherry'
'Adam D. McFarland'
'Donald E. Ellis'
'Richard P. Van Duyne'
'James A. Ibers'
_publ_section_title
;
 Syntheses, Structure, Some Band Gaps, and Electronic Structures of
 CsLnZnTe3 (Ln = La, Pr, Nd, Sm, Gd, Tb, Dy, Ho, Er, Tm, Y)
;
_journal_name_full               'Inorganic Chemistry'
_journal_page_first              7735
_journal_page_last               7740
_journal_paper_doi               10.1021/ic040071p
_journal_volume                  43
_journal_year                    2004
_chemical_formula_sum            'Cs Er Te3 Zn'
_chemical_formula_weight         748.34
_chemical_name_systematic
;

  ?

;
_space_group_IT_number           63
_symmetry_cell_setting           orthorhombic
_symmetry_space_group_name_Hall  '-C 2c 2'
_symmetry_space_group_name_H-M   'C m c m'
_atom_sites_solution_hydrogens   none
_atom_sites_solution_primary     direct
_atom_sites_solution_secondary   difmap
_audit_creation_method           SHELXL-97
_cell_angle_alpha                90.00
_cell_angle_beta                 90.00
_cell_angle_gamma                90.00
_cell_formula_units_Z            4
_cell_length_a                   4.3604(8)
_cell_length_b                   16.706(3)
_cell_length_c                   11.534(2)
_cell_measurement_temperature    153(2)
_cell_volume                     840.2(3)
_computing_cell_refinement       'SMART version 5.054 (Bruker 2000)'
_computing_data_collection       'SMART version 5.054 (Bruker 2000)'
_computing_data_reduction        'SAINT-Plus version 6.22 (Bruker 2000)'
_computing_molecular_graphics    'SHELXL-97 (Sheldrick, 1997)'
_computing_publication_material  'SHELXL-97 (Sheldrick, 1997)'
_computing_structure_refinement  'SHELXL-97 (Sheldrick, 1997)'
_computing_structure_solution    'SHELXS-97 (Sheldrick, 1990)'
_diffrn_ambient_temperature      153(2)
_diffrn_measured_fraction_theta_full 0.959
_diffrn_measured_fraction_theta_max 0.959
_diffrn_measurement_device_type  'Bruker 1000-CCD'
_diffrn_measurement_method       \w
_diffrn_radiation_monochromator  graphite
_diffrn_radiation_source         'fine-focus sealed tube'
_diffrn_radiation_type           MoK\a
_diffrn_radiation_wavelength     0.71073
_diffrn_reflns_av_R_equivalents  0.0275
_diffrn_reflns_av_sigmaI/netI    0.0187
_diffrn_reflns_limit_h_max       5
_diffrn_reflns_limit_h_min       -5
_diffrn_reflns_limit_k_max       22
_diffrn_reflns_limit_k_min       -22
_diffrn_reflns_limit_l_max       15
_diffrn_reflns_limit_l_min       -15
_diffrn_reflns_number            4752
_diffrn_reflns_theta_full        28.65
_diffrn_reflns_theta_max         28.65
_diffrn_reflns_theta_min         2.44
_diffrn_standards_interval_count 0
_diffrn_standards_interval_time  .
_diffrn_standards_number         0
_exptl_absorpt_coefficient_mu    27.146
_exptl_absorpt_correction_T_max  0.57597
_exptl_absorpt_correction_T_min  0.11842
_exptl_absorpt_correction_type   numerical
_exptl_absorpt_process_details   'face indexed'
_exptl_crystal_colour            'dark red'
_exptl_crystal_density_diffrn    5.916
_exptl_crystal_density_method    'not measured'
_exptl_crystal_description       needle
_exptl_crystal_F_000             1236
_exptl_crystal_size_max          0.120
_exptl_crystal_size_mid          0.090
_exptl_crystal_size_min          0.020
_refine_diff_density_max         4.381
_refine_diff_density_min         -2.824
_refine_diff_density_rms         0.484
_refine_ls_extinction_method     none
_refine_ls_goodness_of_fit_ref   1.353
_refine_ls_hydrogen_treatment    none
_refine_ls_matrix_type           full
_refine_ls_number_parameters     23
_refine_ls_number_reflns         612
_refine_ls_number_restraints     0
_refine_ls_restrained_S_all      1.353
_refine_ls_R_factor_all          0.0334
_refine_ls_R_factor_gt           0.0319
_refine_ls_shift/su_max          0.000
_refine_ls_shift/su_mean         0.000
_refine_ls_structure_factor_coef Fsqd
_refine_ls_weighting_details
'calc w=1/[\s^2^(Fo^2^)+(0.0500P)^2^+0.0000P] where P=(Fo^2^+2Fc^2^)/3'
_refine_ls_weighting_scheme      calc
_refine_ls_wR_factor_gt          0.0812
_refine_ls_wR_factor_ref         0.0822
_reflns_number_gt                588
_reflns_number_total             612
_reflns_threshold_expression     >2sigma(I)
_cod_data_source_file            ic040071p_09.cif
_cod_data_source_block           CsErZnTe3
_cod_database_code               4312036
loop_
_symmetry_equiv_pos_as_xyz
'x, y, z'
'-x, -y, z+1/2'
'-x, y, -z+1/2'
'x, -y, -z'
'x+1/2, y+1/2, z'
'-x+1/2, -y+1/2, z+1/2'
'-x+1/2, y+1/2, -z+1/2'
'x+1/2, -y+1/2, -z'
'-x, -y, -z'
'x, y, -z-1/2'
'x, -y, z-1/2'
'-x, y, z'
'-x+1/2, -y+1/2, -z'
'x+1/2, y+1/2, -z-1/2'
'x+1/2, -y+1/2, z-1/2'
'-x+1/2, y+1/2, z'
loop_
_atom_site_label
_atom_site_type_symbol
_atom_site_fract_x
_atom_site_fract_y
_atom_site_fract_z
_atom_site_U_iso_or_equiv
_atom_site_adp_type
_atom_site_occupancy
_atom_site_symmetry_multiplicity
_atom_site_calc_flag
_atom_site_refinement_flags
_atom_site_disorder_assembly
_atom_site_disorder_group
Cs Cs 0.0000 0.74476(4) 0.2500 0.0173(2) Uani 1 4 d S . .
Er Er 0.0000 0.0000 0.0000 0.0113(2) Uani 1 4 d S . .
Zn Zn 0.0000 0.46023(8) 0.2500 0.0134(3) Uani 1 4 d S . .
Te1 Te 0.0000 0.37794(3) 0.05525(4) 0.0115(2) Uani 1 2 d S . .
Te2 Te 0.0000 0.05881(4) 0.2500 0.0111(2) Uani 1 4 d S . .
loop_
_atom_site_aniso_label
_atom_site_aniso_U_11
_atom_site_aniso_U_22
_atom_site_aniso_U_33
_atom_site_aniso_U_23
_atom_site_aniso_U_13
_atom_site_aniso_U_12
Cs 0.0150(4) 0.0192(4) 0.0176(4) 0.000 0.000 0.000
Er 0.0113(3) 0.0171(3) 0.0055(3) 0.00013(16) 0.000 0.000
Zn 0.0128(7) 0.0198(7) 0.0076(6) 0.000 0.000 0.000
Te1 0.0116(3) 0.0158(3) 0.0072(3) -0.00023(17) 0.000 0.000
Te2 0.0115(4) 0.0170(4) 0.0048(3) 0.000 0.000 0.000
loop_
_atom_type_symbol
_atom_type_description
_atom_type_scat_dispersion_real
_atom_type_scat_dispersion_imag
_atom_type_scat_source
Zn Zn 0.2839 1.4301 'International Tables Vol C Tables 4.2.6.8 and 6.1.1.4'
Te Te -0.5308 1.6751 'International Tables Vol C Tables 4.2.6.8 and 6.1.1.4'
Cs Cs -0.3680 2.1192 'International Tables Vol C Tables 4.2.6.8 and 6.1.1.4'
Er Er -0.2586 4.9576 'International Tables Vol C Tables 4.2.6.8 and 6.1.1.4'
loop_
_geom_angle_atom_site_label_1
_geom_angle_atom_site_label_2
_geom_angle_atom_site_label_3
_geom_angle
_geom_angle_site_symmetry_1
_geom_angle_site_symmetry_3
_geom_angle_publ_flag
Te2 Cs Te2 70.12(2) 5_455 5 ?
Te2 Cs Te1 143.162(12) 5_455 14_556 ?
Te2 Cs Te1 98.517(14) 5 14_556 ?
Te2 Cs Te1 98.517(14) 5_455 14_456 ?
Te2 Cs Te1 143.162(12) 5 14_456 ?
Te1 Cs Te1 69.178(17) 14_556 14_456 ?
Te2 Cs Te1 143.162(12) 5_455 5 ?
Te2 Cs Te1 98.517(14) 5 5 ?
Te1 Cs Te1 71.59(2) 14_556 5 ?
Te1 Cs Te1 109.19(3) 14_456 5 ?
Te2 Cs Te1 98.517(14) 5_455 5_455 ?
Te2 Cs Te1 143.162(12) 5 5_455 ?
Te1 Cs Te1 109.19(3) 14_556 5_455 ?
Te1 Cs Te1 71.59(2) 14_456 5_455 ?
Te1 Cs Te1 69.178(17) 5 5_455 ?
Te2 Cs Te1 65.680(12) 5_455 9_565 ?
Te2 Cs Te1 65.680(12) 5 9_565 ?
Te1 Cs Te1 142.840(9) 14_556 9_565 ?
Te1 Cs Te1 142.840(9) 14_456 9_565 ?
Te1 Cs Te1 77.645(15) 5 9_565 ?
Te1 Cs Te1 77.645(15) 5_455 9_565 ?
Te2 Cs Te1 65.680(12) 5_455 2_565 ?
Te2 Cs Te1 65.680(12) 5 2_565 ?
Te1 Cs Te1 77.645(15) 14_556 2_565 ?
Te1 Cs Te1 77.645(15) 14_456 2_565 ?
Te1 Cs Te1 142.840(9) 5 2_565 ?
Te1 Cs Te1 142.840(9) 5_455 2_565 ?
Te1 Cs Te1 119.58(3) 9_565 2_565 ?
Te2 Cs Zn 176.138(16) 5_455 5 ?
Te2 Cs Zn 113.737(18) 5 5 ?
Te1 Cs Zn 37.849(11) 14_556 5 ?
Te1 Cs Zn 78.38(2) 14_456 5 ?
Te1 Cs Zn 37.849(11) 5 5 ?
Te1 Cs Zn 78.38(2) 5_455 5 ?
Te1 Cs Zn 115.491(11) 9_565 5 ?
Te1 Cs Zn 115.491(11) 2_565 5 ?
Te2 Cs Zn 113.737(18) 5_455 5_455 ?
Te2 Cs Zn 176.138(16) 5 5_455 ?
Te1 Cs Zn 78.38(2) 14_556 5_455 ?
Te1 Cs Zn 37.849(11) 14_456 5_455 ?
Te1 Cs Zn 78.38(2) 5 5_455 ?
Te1 Cs Zn 37.849(11) 5_455 5_455 ?
Te1 Cs Zn 115.491(11) 9_565 5_455 ?
Te1 Cs Zn 115.491(11) 2_565 5_455 ?
Zn Cs Zn 62.40(3) 5 5_455 ?
Te2 Cs Cs 125.062(11) 5_455 1_655 ?
Te2 Cs Cs 54.938(11) 5 1_655 ?
Te1 Cs Cs 55.411(8) 14_556 1_655 ?
Te1 Cs Cs 124.589(8) 14_456 1_655 ?
Te1 Cs Cs 55.411(9) 5 1_655 ?
Te1 Cs Cs 124.589(8) 5_455 1_655 ?
Te1 Cs Cs 90.0 9_565 1_655 ?
Te1 Cs Cs 90.0 2_565 1_655 ?
Zn Cs Cs 58.800(13) 5 1_655 ?
Zn Cs Cs 121.200(13) 5_455 1_655 ?
Te2 Cs Cs 54.938(11) 5_455 1_455 ?
Te2 Cs Cs 125.062(11) 5 1_455 ?
Te1 Cs Cs 124.589(8) 14_556 1_455 ?
Te1 Cs Cs 55.411(8) 14_456 1_455 ?
Te1 Cs Cs 124.589(9) 5 1_455 ?
Te1 Cs Cs 55.411(8) 5_455 1_455 ?
Te1 Cs Cs 90.0 9_565 1_455 ?
Te1 Cs Cs 90.0 2_565 1_455 ?
Zn Cs Cs 121.200(13) 5 1_455 ?
Zn Cs Cs 58.800(13) 5_455 1_455 ?
Cs Cs Cs 180.00(4) 1_655 1_455 ?
Te2 Er Te2 180.0 9 . ?
Te2 Er Te1 88.976(14) 9 5_445 ?
Te2 Er Te1 91.024(14) . 5_445 ?
Te2 Er Te1 91.024(14) 9 13 ?
Te2 Er Te1 88.976(14) . 13 ?
Te1 Er Te1 180.00(2) 5_445 13 ?
Te2 Er Te1 88.976(14) 9 5_545 ?
Te2 Er Te1 91.024(14) . 5_545 ?
Te1 Er Te1 91.16(2) 5_445 5_545 ?
Te1 Er Te1 88.84(2) 13 5_545 ?
Te2 Er Te1 91.024(14) 9 13_455 ?
Te2 Er Te1 88.976(14) . 13_455 ?
Te1 Er Te1 88.84(2) 5_445 13_455 ?
Te1 Er Te1 91.16(2) 13 13_455 ?
Te1 Er Te1 180.00(2) 5_545 13_455 ?
Te1 Zn Te1 117.06(6) . 10_556 ?
Te1 Zn Te2 108.341(10) . 5 ?
Te1 Zn Te2 108.341(10) 10_556 5 ?
Te1 Zn Te2 108.341(10) . 5_455 ?
Te1 Zn Te2 108.341(10) 10_556 5_455 ?
Te2 Zn Te2 105.87(6) 5 5_455 ?
Te1 Zn Cs 63.48(3) . 5_445 ?
Te1 Zn Cs 63.48(3) 10_556 5_445 ?
Te2 Zn Cs 158.27(4) 5 5_445 ?
Te2 Zn Cs 95.87(2) 5_455 5_445 ?
Te1 Zn Cs 63.48(3) . 5_545 ?
Te1 Zn Cs 63.48(3) 10_556 5_545 ?
Te2 Zn Cs 95.87(2) 5 5_545 ?
Te2 Zn Cs 158.27(4) 5_455 5_545 ?
Cs Zn Cs 62.40(3) 5_445 5_545 ?
Zn Te1 Er 80.17(2) . 5 ?
Zn Te1 Er 80.17(2) . 5_455 ?
Er Te1 Er 91.16(2) 5 5_455 ?
Zn Te1 Cs 78.67(3) . 5_445 ?
Er Te1 Cs 156.148(15) 5 5_445 ?
Er Te1 Cs 95.951(14) 5_455 5_445 ?
Zn Te1 Cs 78.67(3) . 5_545 ?
Er Te1 Cs 95.951(14) 5 5_545 ?
Er Te1 Cs 156.148(15) 5_455 5_545 ?
Cs Te1 Cs 69.178(17) 5_445 5_545 ?
Zn Te1 Cs 178.74(3) . 9_565 ?
Er Te1 Cs 98.958(14) 5 9_565 ?
Er Te1 Cs 98.958(14) 5_455 9_565 ?
Cs Te1 Cs 102.355(15) 5_445 9_565 ?
Cs Te1 Cs 102.355(15) 5_545 9_565 ?
Zn Te2 Zn 105.87(6) 5_445 5_545 ?
Zn Te2 Er 78.790(13) 5_445 . ?
Zn Te2 Er 78.790(13) 5_545 . ?
Zn Te2 Er 78.790(13) 5_445 2 ?
Zn Te2 Er 78.790(13) 5_545 2 ?
Er Te2 Er 142.37(3) . 2 ?
Zn Te2 Cs 162.13(3) 5_445 5_545 ?
Zn Te2 Cs 92.00(3) 5_545 5_545 ?
Er Te2 Cs 105.308(10) . 5_545 ?
Er Te2 Cs 105.308(10) 2 5_545 ?
Zn Te2 Cs 92.00(3) 5_445 5_445 ?
Zn Te2 Cs 162.13(3) 5_545 5_445 ?
Er Te2 Cs 105.308(10) . 5_445 ?
Er Te2 Cs 105.308(10) 2 5_445 ?
Cs Te2 Cs 70.12(2) 5_545 5_445 ?
loop_
_geom_bond_atom_site_label_1
_geom_bond_atom_site_label_2
_geom_bond_distance
_geom_bond_site_symmetry_2
_geom_bond_publ_flag
Cs Te2 3.7952(10) 5_455 ?
Cs Te2 3.7952(10) 5 ?
Cs Te1 3.8405(7) 14_556 ?
Cs Te1 3.8405(7) 14_456 ?
Cs Te1 3.8405(7) 5 ?
Cs Te1 3.8405(7) 5_455 ?
Cs Te1 4.0739(8) 9_565 ?
Cs Te1 4.0739(8) 2_565 ?
Cs Zn 4.2086(15) 5 ?
Cs Zn 4.2086(15) 5_455 ?
Cs Cs 4.3604(8) 1_655 ?
Cs Cs 4.3604(8) 1_455 ?
Er Te2 3.0462(5) 9 ?
Er Te2 3.0462(5) . ?
Er Te1 3.0525(5) 5_445 ?
Er Te1 3.0525(5) 13 ?
Er Te1 3.0525(5) 5_545 ?
Er Te1 3.0525(5) 13_455 ?
Zn Te1 2.6336(9) . ?
Zn Te1 2.6336(9) 10_556 ?
Zn Te2 2.7323(10) 5 ?
Zn Te2 2.7323(10) 5_455 ?
Zn Cs 4.2086(15) 5_445 ?
Zn Cs 4.2086(15) 5_545 ?
Te1 Er 3.0525(5) 5 ?
Te1 Er 3.0525(5) 5_455 ?
Te1 Cs 3.8405(7) 5_445 ?
Te1 Cs 3.8405(7) 5_545 ?
Te1 Cs 4.0739(8) 9_565 ?
Te2 Zn 2.7323(10) 5_445 ?
Te2 Zn 2.7323(10) 5_545 ?
Te2 Er 3.0462(5) 2 ?
Te2 Cs 3.7952(10) 5_545 ?
Te2 Cs 3.7952(10) 5_445 ?
