#------------------------------------------------------------------------------
#$Date: 2016-03-23 01:52:49 +0200 (Wed, 23 Mar 2016) $
#$Revision: 179159 $
#$URL: svn://www.crystallography.net/cod/cif/4/31/20/4312029.cif $
#------------------------------------------------------------------------------
#
# This file is available in the Crystallography Open Database (COD),
# http://www.crystallography.net/
#
# All data on this site have been placed in the public domain by the
# contributors.
#
data_4312029
loop_
_publ_author_name
'Jiyong Yao'
'Bin Deng'
'Leif J. Sherry'
'Adam D. McFarland'
'Donald E. Ellis'
'Richard P. Van Duyne'
'James A. Ibers'
_publ_section_title
;
 Syntheses, Structure, Some Band Gaps, and Electronic Structures of
 CsLnZnTe3 (Ln = La, Pr, Nd, Sm, Gd, Tb, Dy, Ho, Er, Tm, Y)
;
_journal_name_full               'Inorganic Chemistry'
_journal_page_first              7735
_journal_page_last               7740
_journal_paper_doi               10.1021/ic040071p
_journal_volume                  43
_journal_year                    2004
_chemical_formula_sum            'Cs Pr Te3 Zn'
_chemical_formula_weight         721.99
_chemical_name_systematic
;

  ?

;
_space_group_IT_number           63
_symmetry_cell_setting           orthorhombic
_symmetry_space_group_name_Hall  '-C 2c 2'
_symmetry_space_group_name_H-M   'C m c m'
_atom_sites_solution_hydrogens   none
_atom_sites_solution_primary     direct
_atom_sites_solution_secondary   difmap
_audit_creation_method           SHELXL-97
_cell_angle_alpha                90.00
_cell_angle_beta                 90.00
_cell_angle_gamma                90.00
_cell_formula_units_Z            4
_cell_length_a                   4.4896(5)
_cell_length_b                   16.647(2)
_cell_length_c                   11.9294(15)
_cell_measurement_temperature    153(2)
_cell_volume                     891.58(18)
_computing_cell_refinement       'SMART version 5.054 (Bruker 2000)'
_computing_data_collection       'SMART version 5.054 (Bruker 2000)'
_computing_data_reduction        'SAINT-Plus version 6.22 (Bruker 2000)'
_computing_molecular_graphics    'SHELXL-97 (Sheldrick, 1997)'
_computing_publication_material  'SHELXL-97 (Sheldrick, 1997)'
_computing_structure_refinement  'SHELXL-97 (Sheldrick, 1997)'
_computing_structure_solution    'SHELXS-97 (Sheldrick, 1990)'
_diffrn_ambient_temperature      153(2)
_diffrn_measured_fraction_theta_full 0.962
_diffrn_measured_fraction_theta_max 0.962
_diffrn_measurement_device_type  'Bruker 1000-CCD'
_diffrn_measurement_method       \w
_diffrn_radiation_monochromator  graphite
_diffrn_radiation_source         'fine-focus sealed tube'
_diffrn_radiation_type           MoK\a
_diffrn_radiation_wavelength     0.71073
_diffrn_reflns_av_R_equivalents  0.0351
_diffrn_reflns_av_sigmaI/netI    0.0217
_diffrn_reflns_limit_h_max       5
_diffrn_reflns_limit_h_min       -5
_diffrn_reflns_limit_k_max       21
_diffrn_reflns_limit_k_min       -21
_diffrn_reflns_limit_l_max       15
_diffrn_reflns_limit_l_min       -15
_diffrn_reflns_number            3928
_diffrn_reflns_theta_full        28.49
_diffrn_reflns_theta_max         28.49
_diffrn_reflns_theta_min         2.45
_diffrn_standards_interval_count 0
_diffrn_standards_interval_time  .
_diffrn_standards_number         0
_exptl_absorpt_coefficient_mu    21.633
_exptl_absorpt_correction_T_max  0.51805
_exptl_absorpt_correction_T_min  0.13394
_exptl_absorpt_correction_type   numerical
_exptl_absorpt_process_details   'face indexed'
_exptl_crystal_colour            'dark red'
_exptl_crystal_density_diffrn    5.379
_exptl_crystal_density_meas      ?
_exptl_crystal_density_method    .
_exptl_crystal_description       needle
_exptl_crystal_F_000             1200
_exptl_crystal_size_max          0.490
_exptl_crystal_size_mid          0.034
_exptl_crystal_size_min          0.034
_refine_diff_density_max         3.623
_refine_diff_density_min         -3.223
_refine_diff_density_rms         0.619
_refine_ls_extinction_method     none
_refine_ls_goodness_of_fit_ref   1.436
_refine_ls_hydrogen_treatment    none
_refine_ls_matrix_type           full
_refine_ls_number_parameters     23
_refine_ls_number_reflns         635
_refine_ls_number_restraints     0
_refine_ls_restrained_S_all      1.436
_refine_ls_R_factor_all          0.0359
_refine_ls_R_factor_gt           0.0354
_refine_ls_shift/su_max          0.000
_refine_ls_shift/su_mean         0.000
_refine_ls_structure_factor_coef Fsqd
_refine_ls_weighting_details
'calc w=1/[\s^2^(Fo^2^)+(0.0500P)^2^+0.0000P] where P=(Fo^2^+2Fc^2^)/3'
_refine_ls_weighting_scheme      calc
_refine_ls_wR_factor_gt          0.0871
_refine_ls_wR_factor_ref         0.0873
_reflns_number_gt                619
_reflns_number_total             635
_reflns_threshold_expression     >2sigma(I)
_cod_data_source_file            ic040071p_02.cif
_cod_data_source_block           CsPrZnTe3
_cod_original_cell_volume        891.61(18)
_cod_database_code               4312029
loop_
_symmetry_equiv_pos_as_xyz
'x, y, z'
'-x, -y, z+1/2'
'-x, y, -z+1/2'
'x, -y, -z'
'x+1/2, y+1/2, z'
'-x+1/2, -y+1/2, z+1/2'
'-x+1/2, y+1/2, -z+1/2'
'x+1/2, -y+1/2, -z'
'-x, -y, -z'
'x, y, -z-1/2'
'x, -y, z-1/2'
'-x, y, z'
'-x+1/2, -y+1/2, -z'
'x+1/2, y+1/2, -z-1/2'
'x+1/2, -y+1/2, z-1/2'
'-x+1/2, y+1/2, z'
loop_
_atom_site_label
_atom_site_type_symbol
_atom_site_fract_x
_atom_site_fract_y
_atom_site_fract_z
_atom_site_U_iso_or_equiv
_atom_site_adp_type
_atom_site_occupancy
_atom_site_symmetry_multiplicity
_atom_site_calc_flag
_atom_site_refinement_flags
_atom_site_disorder_assembly
_atom_site_disorder_group
Cs Cs 0.0000 0.74268(4) 0.2500 0.0192(2) Uani 1 4 d S . .
Pr Pr 0.0000 0.0000 0.0000 0.0120(2) Uani 1 4 d S . .
Zn Zn 0.0000 0.45997(7) 0.2500 0.0141(3) Uani 1 4 d S . .
Te1 Te 0.0000 0.37414(3) 0.06310(4) 0.0127(2) Uani 1 2 d S . .
Te2 Te 0.0000 0.05890(4) 0.2500 0.0116(2) Uani 1 4 d S . .
loop_
_atom_site_aniso_label
_atom_site_aniso_U_11
_atom_site_aniso_U_22
_atom_site_aniso_U_33
_atom_site_aniso_U_23
_atom_site_aniso_U_13
_atom_site_aniso_U_12
Cs 0.0172(4) 0.0187(4) 0.0216(4) 0.000 0.000 0.000
Pr 0.0122(3) 0.0186(3) 0.0051(3) 0.00031(17) 0.000 0.000
Zn 0.0162(6) 0.0193(6) 0.0067(6) 0.000 0.000 0.000
Te1 0.0138(3) 0.0167(3) 0.0075(3) -0.00024(15) 0.000 0.000
Te2 0.0137(4) 0.0164(4) 0.0047(3) 0.000 0.000 0.000
loop_
_atom_type_symbol
_atom_type_description
_atom_type_scat_dispersion_real
_atom_type_scat_dispersion_imag
_atom_type_scat_source
Zn Zn 0.2839 1.4301 'International Tables Vol C Tables 4.2.6.8 and 6.1.1.4'
Te Te -0.5308 1.6751 'International Tables Vol C Tables 4.2.6.8 and 6.1.1.4'
Cs Cs -0.3680 2.1192 'International Tables Vol C Tables 4.2.6.8 and 6.1.1.4'
Pr Pr -0.2180 2.8214 'International Tables Vol C Tables 4.2.6.8 and 6.1.1.4'
loop_
_geom_angle_atom_site_label_1
_geom_angle_atom_site_label_2
_geom_angle_atom_site_label_3
_geom_angle
_geom_angle_site_symmetry_1
_geom_angle_site_symmetry_3
_geom_angle_publ_flag
Te2 Cs Te2 72.536(19) 5_455 5 ?
Te2 Cs Te1 143.499(10) 5_455 14_556 ?
Te2 Cs Te1 96.516(10) 5 14_556 ?
Te2 Cs Te1 96.516(10) 5_455 14_456 ?
Te2 Cs Te1 143.499(10) 5 14_456 ?
Te1 Cs Te1 71.397(13) 14_556 14_456 ?
Te2 Cs Te1 143.499(10) 5_455 5 ?
Te2 Cs Te1 96.516(10) 5 5 ?
Te1 Cs Te1 70.839(17) 14_556 5 ?
Te1 Cs Te1 110.66(2) 14_456 5 ?
Te2 Cs Te1 96.516(10) 5_455 5_455 ?
Te2 Cs Te1 143.499(10) 5 5_455 ?
Te1 Cs Te1 110.66(2) 14_556 5_455 ?
Te1 Cs Te1 70.839(17) 14_456 5_455 ?
Te1 Cs Te1 71.397(13) 5 5_455 ?
Te2 Cs Te1 68.139(10) 5_455 9_565 ?
Te2 Cs Te1 68.139(10) 5 9_565 ?
Te1 Cs Te1 140.966(8) 14_556 9_565 ?
Te1 Cs Te1 140.966(7) 14_456 9_565 ?
Te1 Cs Te1 75.444(11) 5 9_565 ?
Te1 Cs Te1 75.444(12) 5_455 9_565 ?
Te2 Cs Te1 68.139(10) 5_455 2_565 ?
Te2 Cs Te1 68.139(10) 5 2_565 ?
Te1 Cs Te1 75.444(11) 14_556 2_565 ?
Te1 Cs Te1 75.444(11) 14_456 2_565 ?
Te1 Cs Te1 140.966(7) 5 2_565 ?
Te1 Cs Te1 140.966(8) 5_455 2_565 ?
Te1 Cs Te1 124.99(2) 9_565 2_565 ?
Te2 Cs Zn 175.555(15) 5_455 5 ?
Te2 Cs Zn 111.909(13) 5 5 ?
Te1 Cs Zn 37.716(9) 14_556 5 ?
Te1 Cs Zn 79.882(16) 14_456 5 ?
Te1 Cs Zn 37.716(9) 5 5 ?
Te1 Cs Zn 79.882(16) 5_455 5 ?
Te1 Cs Zn 113.105(8) 9_565 5 ?
Te1 Cs Zn 113.105(8) 2_565 5 ?
Te2 Cs Zn 111.909(13) 5_455 5_455 ?
Te2 Cs Zn 175.555(15) 5 5_455 ?
Te1 Cs Zn 79.882(16) 14_556 5_455 ?
Te1 Cs Zn 37.716(9) 14_456 5_455 ?
Te1 Cs Zn 79.882(16) 5 5_455 ?
Te1 Cs Zn 37.716(9) 5_455 5_455 ?
Te1 Cs Zn 113.105(8) 9_565 5_455 ?
Te1 Cs Zn 113.105(8) 2_565 5_455 ?
Zn Cs Zn 63.65(2) 5 5_455 ?
Te2 Cs Cs 126.268(9) 5_455 1_655 ?
Te2 Cs Cs 53.732(9) 5 1_655 ?
Te1 Cs Cs 54.302(7) 14_556 1_655 ?
Te1 Cs Cs 125.698(7) 14_456 1_655 ?
Te1 Cs Cs 54.302(7) 5 1_655 ?
Te1 Cs Cs 125.698(7) 5_455 1_655 ?
Te1 Cs Cs 90.0 9_565 1_655 ?
Te1 Cs Cs 90.0 2_565 1_655 ?
Zn Cs Cs 58.177(11) 5 1_655 ?
Zn Cs Cs 121.823(11) 5_455 1_655 ?
Te2 Cs Cs 53.732(9) 5_455 1_455 ?
Te2 Cs Cs 126.268(9) 5 1_455 ?
Te1 Cs Cs 125.698(7) 14_556 1_455 ?
Te1 Cs Cs 54.302(7) 14_456 1_455 ?
Te1 Cs Cs 125.698(7) 5 1_455 ?
Te1 Cs Cs 54.302(7) 5_455 1_455 ?
Te1 Cs Cs 90.0 9_565 1_455 ?
Te1 Cs Cs 90.0 2_565 1_455 ?
Zn Cs Cs 121.823(11) 5 1_455 ?
Zn Cs Cs 58.177(11) 5_455 1_455 ?
Cs Cs Cs 180.00(3) 1_655 1_455 ?
Te2 Pr Te2 180.0 9 . ?
Te2 Pr Te1 91.100(12) 9 5_445 ?
Te2 Pr Te1 88.900(12) . 5_445 ?
Te2 Pr Te1 88.900(12) 9 13 ?
Te2 Pr Te1 91.100(12) . 13 ?
Te1 Pr Te1 180.00(2) 5_445 13 ?
Te2 Pr Te1 91.100(12) 9 5_545 ?
Te2 Pr Te1 88.900(12) . 5_545 ?
Te1 Pr Te1 90.473(14) 5_445 5_545 ?
Te1 Pr Te1 89.527(14) 13 5_545 ?
Te2 Pr Te1 88.900(12) 9 13_455 ?
Te2 Pr Te1 91.100(12) . 13_455 ?
Te1 Pr Te1 89.527(14) 5_445 13_455 ?
Te1 Pr Te1 90.473(14) 13 13_455 ?
Te1 Pr Te1 180.000(12) 5_545 13_455 ?
Te1 Zn Te1 114.69(5) . 10_556 ?
Te1 Zn Te2 108.613(8) . 5 ?
Te1 Zn Te2 108.613(8) 10_556 5 ?
Te1 Zn Te2 108.613(8) . 5_455 ?
Te1 Zn Te2 108.613(8) 10_556 5_455 ?
Te2 Zn Te2 107.47(4) 5 5_455 ?
Te1 Zn Cs 62.71(2) . 5_445 ?
Te1 Zn Cs 62.71(2) 10_556 5_445 ?
Te2 Zn Cs 158.09(3) 5 5_445 ?
Te2 Zn Cs 94.444(18) 5_455 5_445 ?
Te1 Zn Cs 62.71(2) . 5_545 ?
Te1 Zn Cs 62.71(2) 10_556 5_545 ?
Te2 Zn Cs 94.444(18) 5 5_545 ?
Te2 Zn Cs 158.09(3) 5_455 5_545 ?
Cs Zn Cs 63.65(2) 5_445 5_545 ?
Zn Te1 Pr 80.962(19) . 5 ?
Zn Te1 Pr 80.962(19) . 5_455 ?
Pr Te1 Pr 90.473(14) 5 5_455 ?
Zn Te1 Cs 79.57(2) . 5_445 ?
Pr Te1 Cs 158.326(14) 5 5_445 ?
Pr Te1 Cs 95.778(10) 5_455 5_445 ?
Zn Te1 Cs 79.57(2) . 5_545 ?
Pr Te1 Cs 95.778(10) 5 5_545 ?
Pr Te1 Cs 158.326(14) 5_455 5_545 ?
Cs Te1 Cs 71.397(13) 5_445 5_545 ?
Zn Te1 Cs 174.85(3) . 9_565 ?
Pr Te1 Cs 95.444(12) 5 9_565 ?
Pr Te1 Cs 95.444(12) 5_455 9_565 ?
Cs Te1 Cs 104.556(12) 5_445 9_565 ?
Cs Te1 Cs 104.556(12) 5_545 9_565 ?
Zn Te2 Zn 107.47(4) 5_445 5_545 ?
Zn Te2 Pr 79.353(10) 5_445 . ?
Zn Te2 Pr 79.353(10) 5_545 . ?
Zn Te2 Pr 79.353(10) 5_445 2 ?
Zn Te2 Pr 79.353(10) 5_545 2 ?
Pr Te2 Pr 143.60(2) . 2 ?
Zn Te2 Cs 162.53(2) 5_445 5_545 ?
Zn Te2 Cs 90.00(2) 5_545 5_545 ?
Pr Te2 Cs 104.585(8) . 5_545 ?
Pr Te2 Cs 104.585(8) 2 5_545 ?
Zn Te2 Cs 90.00(2) 5_445 5_445 ?
Zn Te2 Cs 162.53(2) 5_545 5_445 ?
Pr Te2 Cs 104.585(8) . 5_445 ?
Pr Te2 Cs 104.585(8) 2 5_445 ?
Cs Te2 Cs 72.536(19) 5_545 5_445 ?
loop_
_geom_bond_atom_site_label_1
_geom_bond_atom_site_label_2
_geom_bond_distance
_geom_bond_site_symmetry_2
_geom_bond_publ_flag
Cs Te2 3.7947(8) 5_455 ?
Cs Te2 3.7947(8) 5 ?
Cs Te1 3.8470(6) 14_556 ?
Cs Te1 3.8470(6) 14_456 ?
Cs Te1 3.8470(6) 5 ?
Cs Te1 3.8470(6) 5_455 ?
Cs Te1 4.2111(7) 9_565 ?
Cs Te1 4.2111(7) 2_565 ?
Cs Zn 4.2572(12) 5 ?
Cs Zn 4.2572(12) 5_455 ?
Cs Cs 4.4896(5) 1_655 ?
Cs Cs 4.4896(5) 1_455 ?
Pr Te2 3.1394(4) 9 ?
Pr Te2 3.1394(4) . ?
Pr Te1 3.1616(4) 5_445 ?
Pr Te1 3.1616(4) 13 ?
Pr Te1 3.1616(4) 5_545 ?
Pr Te1 3.1616(4) 13_455 ?
Zn Te1 2.6481(8) . ?
Zn Te1 2.6481(8) 10_556 ?
Zn Te2 2.7842(8) 5 ?
Zn Te2 2.7842(8) 5_455 ?
Zn Cs 4.2572(12) 5_445 ?
Zn Cs 4.2572(12) 5_545 ?
Te1 Pr 3.1616(4) 5 ?
Te1 Pr 3.1616(4) 5_455 ?
Te1 Cs 3.8470(6) 5_445 ?
Te1 Cs 3.8470(6) 5_545 ?
Te1 Cs 4.2111(7) 9_565 ?
Te2 Zn 2.7842(8) 5_445 ?
Te2 Zn 2.7842(8) 5_545 ?
Te2 Pr 3.1394(4) 2 ?
Te2 Cs 3.7947(8) 5_545 ?
Te2 Cs 3.7947(8) 5_445 ?
