#------------------------------------------------------------------------------
#$Date: 2016-03-23 02:46:51 +0200 (Wed, 23 Mar 2016) $
#$Revision: 179204 $
#$URL: svn://www.crystallography.net/cod/cif/4/31/38/4313802.cif $
#------------------------------------------------------------------------------
#
# This file is available in the Crystallography Open Database (COD),
# http://www.crystallography.net/
#
# All data on this site have been placed in the public domain by the
# contributors.
#
data_4313802
loop_
_publ_author_name
'Kwasi Mitchell'
'Fu Qiang Huang'
'Adam D. McFarland'
'Christy L. Haynes'
'Rebecca C. Somers'
'Richard P. Van Duyne'
'James A. Ibers'
_publ_section_title
;
 The CsLnMSe3 Semiconductors (Ln = Rare-Earth Element, Y; M = Zn, Cd, Hg)
;
_journal_name_full               'Inorganic Chemistry'
_journal_page_first              4109
_journal_page_last               4116
_journal_paper_doi               10.1021/ic020733f
_journal_volume                  42
_journal_year                    2003
_chemical_formula_sum            'Cs Hg Se3 Sm'
_chemical_formula_weight         720.73
_chemical_name_systematic
;
  ?
;
_space_group_IT_number           63
_symmetry_cell_setting           orthorhombic
_symmetry_space_group_name_Hall  '-C 2c 2'
_symmetry_space_group_name_H-M   'C m c m'
_atom_sites_solution_hydrogens   geom
_atom_sites_solution_primary     direct
_atom_sites_solution_secondary   difmap
_audit_creation_method           SHELXL-97
_cell_angle_alpha                90.00
_cell_angle_beta                 90.00
_cell_angle_gamma                90.00
_cell_formula_units_Z            4
_cell_length_a                   4.309(2)
_cell_length_b                   15.922(8)
_cell_length_c                   11.176(6)
_cell_measurement_temperature    153(2)
_cell_volume                     766.8(7)
_computing_cell_refinement       'SMART version 5.054 (Bruker, 2000)'
_computing_data_collection       'SMART version 5.054 (Bruker, 2000)'
_computing_data_reduction        'SAINT-Plus version 6.22 (Bruker, 2000)'
_computing_molecular_graphics    'SHELXTL-97 (Sheldrick, 1997)'
_computing_publication_material  'SHELXTL-97 (Sheldrick, 1997)'
_computing_structure_refinement  'SHELXL-97 (Sheldrick, 1997)'
_computing_structure_solution    'SHELXS-97 (Sheldrick, 1990)'
_diffrn_ambient_temperature      153(2)
_diffrn_measured_fraction_theta_full 0.954
_diffrn_measured_fraction_theta_max 0.954
_diffrn_measurement_device_type  'Bruker Smart 1000 CCD'
_diffrn_measurement_method       \w
_diffrn_radiation_monochromator  graphite
_diffrn_radiation_source         'fine-focus sealed tube'
_diffrn_radiation_type           MoK\a
_diffrn_radiation_wavelength     0.71073
_diffrn_reflns_av_R_equivalents  0.0413
_diffrn_reflns_av_sigmaI/netI    0.0255
_diffrn_reflns_limit_h_max       5
_diffrn_reflns_limit_h_min       -5
_diffrn_reflns_limit_k_max       21
_diffrn_reflns_limit_k_min       -21
_diffrn_reflns_limit_l_max       15
_diffrn_reflns_limit_l_min       -15
_diffrn_reflns_number            4345
_diffrn_reflns_theta_full        28.78
_diffrn_reflns_theta_max         28.78
_diffrn_reflns_theta_min         2.56
_diffrn_standards_decay_%        <2
_diffrn_standards_interval_count none
_diffrn_standards_interval_time  none
_diffrn_standards_number         none
_exptl_absorpt_coefficient_mu    46.388
_exptl_absorpt_correction_T_max  0.57536
_exptl_absorpt_correction_T_min  0.12449
_exptl_absorpt_correction_type   numerical
_exptl_absorpt_process_details   'faces indexed'
_exptl_crystal_colour            yellow/orange
_exptl_crystal_density_diffrn    6.244
_exptl_crystal_density_meas      ?
_exptl_crystal_density_method    'not measured'
_exptl_crystal_description       needle
_exptl_crystal_F_000             1196
_exptl_crystal_size_max          0.204
_exptl_crystal_size_mid          0.020
_exptl_crystal_size_min          0.012
_refine_diff_density_max         3.121
_refine_diff_density_min         -1.970
_refine_diff_density_rms         0.570
_refine_ls_extinction_coef       0.00204(16)
_refine_ls_extinction_expression Fc^*^=kFc[1+0.001xFc^2^\l^3^/sin(2\q)]^-1/4^
_refine_ls_extinction_method     SHELXL
_refine_ls_goodness_of_fit_ref   1.256
_refine_ls_hydrogen_treatment    mixed
_refine_ls_matrix_type           full
_refine_ls_number_parameters     24
_refine_ls_number_reflns         563
_refine_ls_number_restraints     0
_refine_ls_restrained_S_all      1.256
_refine_ls_R_factor_all          0.0322
_refine_ls_R_factor_gt           0.0287
_refine_ls_shift/su_max          0.000
_refine_ls_shift/su_mean         0.000
_refine_ls_structure_factor_coef Fsqd
_refine_ls_weighting_details
; calc
  [1.00000+0.00000exp(0.00(sin\q/\l)^2^)]/
    [\s^2^(Fo^2^)+0.0000+0.0000*P+(0.0400P)^2^+0.0000sin\q/\l]
  where P = 1.00000Fo^2^ + 0.00000Fc^2^
;
_refine_ls_weighting_scheme      calc
_refine_ls_wR_factor_gt          0.0673
_refine_ls_wR_factor_ref         0.0694
_reflns_number_gt                512
_reflns_number_total             563
_reflns_threshold_expression     >2sigma(I)
_cod_data_source_file            ic020733f_15.cif
_cod_data_source_block           CsSmHgSe3
_cod_depositor_comments
;
The following automatic conversions were performed:

'_exptl_crystal_density_meas' value 'not measured' was changed to '?'
- the value is perceived as not measured.

Automatic conversion script
Id: cif_fix_values 3008 2015-01-20 13:52:24Z robertas 
;
_cod_original_cell_volume        766.7(7)
_cod_database_code               4313802
loop_
_symmetry_equiv_pos_as_xyz
'x, y, z'
'-x, -y, z+1/2'
'-x, y, -z+1/2'
'x, -y, -z'
'x+1/2, y+1/2, z'
'-x+1/2, -y+1/2, z+1/2'
'-x+1/2, y+1/2, -z+1/2'
'x+1/2, -y+1/2, -z'
'-x, -y, -z'
'x, y, -z-1/2'
'x, -y, z-1/2'
'-x, y, z'
'-x+1/2, -y+1/2, -z'
'x+1/2, y+1/2, -z-1/2'
'x+1/2, -y+1/2, z-1/2'
'-x+1/2, y+1/2, z'
loop_
_atom_site_label
_atom_site_type_symbol
_atom_site_fract_x
_atom_site_fract_y
_atom_site_fract_z
_atom_site_U_iso_or_equiv
_atom_site_adp_type
_atom_site_occupancy
_atom_site_symmetry_multiplicity
_atom_site_calc_flag
_atom_site_refinement_flags
_atom_site_disorder_assembly
_atom_site_disorder_group
Hg1 Hg 0.0000 0.45454(3) 0.2500 0.0211(2) Uani 1 4 d S . .
Sm1 Sm 0.0000 0.0000 0.0000 0.0144(2) Uani 1 4 d S . .
Cs1 Cs 0.0000 0.74311(5) 0.2500 0.0269(3) Uani 1 4 d S . .
Se1 Se 0.0000 0.37732(5) 0.04566(7) 0.0163(2) Uani 1 2 d S . .
Se2 Se 0.0000 0.06084(7) 0.2500 0.0142(3) Uani 1 4 d S . .
loop_
_atom_site_aniso_label
_atom_site_aniso_U_11
_atom_site_aniso_U_22
_atom_site_aniso_U_33
_atom_site_aniso_U_23
_atom_site_aniso_U_13
_atom_site_aniso_U_12
Hg1 0.0210(3) 0.0277(3) 0.0145(3) 0.000 0.000 0.000
Sm1 0.0118(3) 0.0189(3) 0.0126(3) 0.00034(19) 0.000 0.000
Cs1 0.0225(4) 0.0205(4) 0.0376(6) 0.000 0.000 0.000
Se1 0.0153(4) 0.0170(4) 0.0167(4) -0.0008(3) 0.000 0.000
Se2 0.0134(5) 0.0169(6) 0.0123(6) 0.000 0.000 0.000
loop_
_atom_type_symbol
_atom_type_description
_atom_type_scat_dispersion_real
_atom_type_scat_dispersion_imag
_atom_type_scat_source
Se Se -0.0929 2.2259 'International Tables Vol C Tables 4.2.6.8 and 6.1.1.4'
Cs Cs -0.3680 2.1192 'International Tables Vol C Tables 4.2.6.8 and 6.1.1.4'
Sm Sm -0.1638 3.4418 'International Tables Vol C Tables 4.2.6.8 and 6.1.1.4'
Hg Hg -2.3894 9.2266 'International Tables Vol C Tables 4.2.6.8 and 6.1.1.4'
loop_
_geom_angle_atom_site_label_1
_geom_angle_atom_site_label_2
_geom_angle_atom_site_label_3
_geom_angle
_geom_angle_site_symmetry_1
_geom_angle_site_symmetry_3
_geom_angle_publ_flag
Se1 Hg1 Se1 123.40(5) . 10_556 ?
Se1 Hg1 Se2 107.029(19) . 5 ?
Se1 Hg1 Se2 107.029(19) 10_556 5 ?
Se1 Hg1 Se2 107.029(19) . 5_455 ?
Se1 Hg1 Se2 107.029(19) 10_556 5_455 ?
Se2 Hg1 Se2 103.70(6) 5 5_455 ?
Se1 Hg1 Sm1 141.11(2) . 6 ?
Se1 Hg1 Sm1 54.00(3) 10_556 6 ?
Se2 Hg1 Sm1 53.520(19) 5 6 ?
Se2 Hg1 Sm1 110.26(3) 5_455 6 ?
Se1 Hg1 Sm1 54.00(3) . 5_455 ?
Se1 Hg1 Sm1 141.11(2) 10_556 5_455 ?
Se2 Hg1 Sm1 110.26(3) 5 5_455 ?
Se2 Hg1 Sm1 53.521(19) 5_455 5_455 ?
Sm1 Hg1 Sm1 156.81(2) 6 5_455 ?
Se1 Hg1 Sm1 141.11(2) . 6_455 ?
Se1 Hg1 Sm1 54.00(3) 10_556 6_455 ?
Se2 Hg1 Sm1 110.26(3) 5 6_455 ?
Se2 Hg1 Sm1 53.521(19) 5_455 6_455 ?
Sm1 Hg1 Sm1 73.48(4) 6 6_455 ?
Sm1 Hg1 Sm1 101.75(4) 5_455 6_455 ?
Se1 Hg1 Sm1 54.00(3) . 5 ?
Se1 Hg1 Sm1 141.11(2) 10_556 5 ?
Se2 Hg1 Sm1 53.521(19) 5 5 ?
Se2 Hg1 Sm1 110.26(3) 5_455 5 ?
Sm1 Hg1 Sm1 101.75(4) 6 5 ?
Sm1 Hg1 Sm1 73.48(4) 5_455 5 ?
Sm1 Hg1 Sm1 156.81(2) 6_455 5 ?
Se1 Hg1 Cs1 66.47(2) . 5_445 ?
Se1 Hg1 Cs1 66.47(2) 10_556 5_445 ?
Se2 Hg1 Cs1 160.77(2) 5 5_445 ?
Se2 Hg1 Cs1 95.53(4) 5_455 5_445 ?
Sm1 Hg1 Cs1 119.452(17) 6 5_445 ?
Sm1 Hg1 Cs1 81.19(2) 5_455 5_445 ?
Sm1 Hg1 Cs1 81.19(2) 6_455 5_445 ?
Sm1 Hg1 Cs1 119.452(17) 5 5_445 ?
Se1 Hg1 Cs1 66.47(2) . 5_545 ?
Se1 Hg1 Cs1 66.47(2) 10_556 5_545 ?
Se2 Hg1 Cs1 95.53(4) 5 5_545 ?
Se2 Hg1 Cs1 160.77(2) 5_455 5_545 ?
Sm1 Hg1 Cs1 81.19(2) 6 5_545 ?
Sm1 Hg1 Cs1 119.452(17) 5_455 5_545 ?
Sm1 Hg1 Cs1 119.452(17) 6_455 5_545 ?
Sm1 Hg1 Cs1 81.19(2) 5 5_545 ?
Cs1 Hg1 Cs1 65.24(4) 5_445 5_545 ?
Se1 Hg1 Cs1 118.30(3) . . ?
Se1 Hg1 Cs1 118.30(3) 10_556 . ?
Se2 Hg1 Cs1 51.85(3) 5 . ?
Se2 Hg1 Cs1 51.85(3) 5_455 . ?
Sm1 Hg1 Cs1 78.407(10) 6 . ?
Sm1 Hg1 Cs1 78.407(10) 5_455 . ?
Sm1 Hg1 Cs1 78.407(10) 6_455 . ?
Sm1 Hg1 Cs1 78.407(10) 5 . ?
Cs1 Hg1 Cs1 147.38(2) 5_445 . ?
Cs1 Hg1 Cs1 147.38(2) 5_545 . ?
Se1 Sm1 Se1 180.00(4) 13 5_445 ?
Se1 Sm1 Se1 93.72(5) 13 13_455 ?
Se1 Sm1 Se1 86.28(5) 5_445 13_455 ?
Se1 Sm1 Se1 86.28(5) 13 5_545 ?
Se1 Sm1 Se1 93.72(5) 5_445 5_545 ?
Se1 Sm1 Se1 180.00(4) 13_455 5_545 ?
Se1 Sm1 Se2 93.06(3) 13 9 ?
Se1 Sm1 Se2 86.94(3) 5_445 9 ?
Se1 Sm1 Se2 93.06(3) 13_455 9 ?
Se1 Sm1 Se2 86.94(3) 5_545 9 ?
Se1 Sm1 Se2 86.94(3) 13 . ?
Se1 Sm1 Se2 93.06(3) 5_445 . ?
Se1 Sm1 Se2 86.94(3) 13_455 . ?
Se1 Sm1 Se2 93.06(3) 5_545 . ?
Se2 Sm1 Se2 180.0 9 . ?
Se1 Sm1 Hg1 80.24(3) 13 5_545 ?
Se1 Sm1 Hg1 99.76(3) 5_445 5_545 ?
Se1 Sm1 Hg1 134.71(2) 13_455 5_545 ?
Se1 Sm1 Hg1 45.29(2) 5_545 5_545 ?
Se2 Sm1 Hg1 131.85(3) 9 5_545 ?
Se2 Sm1 Hg1 48.15(3) . 5_545 ?
Se1 Sm1 Hg1 99.76(3) 13 13_455 ?
Se1 Sm1 Hg1 80.24(3) 5_445 13_455 ?
Se1 Sm1 Hg1 45.29(2) 13_455 13_455 ?
Se1 Sm1 Hg1 134.71(2) 5_545 13_455 ?
Se2 Sm1 Hg1 48.15(3) 9 13_455 ?
Se2 Sm1 Hg1 131.85(3) . 13_455 ?
Hg1 Sm1 Hg1 180.000(15) 5_545 13_455 ?
Se1 Sm1 Hg1 45.29(2) 13 13 ?
Se1 Sm1 Hg1 134.71(2) 5_445 13 ?
Se1 Sm1 Hg1 99.76(3) 13_455 13 ?
Se1 Sm1 Hg1 80.24(3) 5_545 13 ?
Se2 Sm1 Hg1 48.15(3) 9 13 ?
Se2 Sm1 Hg1 131.85(3) . 13 ?
Hg1 Sm1 Hg1 106.52(4) 5_545 13 ?
Hg1 Sm1 Hg1 73.48(4) 13_455 13 ?
Se1 Sm1 Hg1 134.71(2) 13 5_445 ?
Se1 Sm1 Hg1 45.29(2) 5_445 5_445 ?
Se1 Sm1 Hg1 80.24(3) 13_455 5_445 ?
Se1 Sm1 Hg1 99.76(3) 5_545 5_445 ?
Se2 Sm1 Hg1 131.85(3) 9 5_445 ?
Se2 Sm1 Hg1 48.15(3) . 5_445 ?
Hg1 Sm1 Hg1 73.48(4) 5_545 5_445 ?
Hg1 Sm1 Hg1 106.52(4) 13_455 5_445 ?
Hg1 Sm1 Hg1 180.000(15) 13 5_445 ?
Se2 Cs1 Se2 73.18(5) 5_455 5 ?
Se2 Cs1 Se1 142.18(2) 5_455 14_556 ?
Se2 Cs1 Se1 96.53(3) 5 14_556 ?
Se2 Cs1 Se1 96.53(3) 5_455 14_456 ?
Se2 Cs1 Se1 142.18(2) 5 14_456 ?
Se1 Cs1 Se1 69.12(4) 14_556 14_456 ?
Se2 Cs1 Se1 96.53(3) 5_455 5_455 ?
Se2 Cs1 Se1 142.18(2) 5 5_455 ?
Se1 Cs1 Se1 111.52(4) 14_556 5_455 ?
Se1 Cs1 Se1 73.93(4) 14_456 5_455 ?
Se2 Cs1 Se1 142.18(2) 5_455 5 ?
Se2 Cs1 Se1 96.53(3) 5 5 ?
Se1 Cs1 Se1 73.93(4) 14_556 5 ?
Se1 Cs1 Se1 111.52(4) 14_456 5 ?
Se1 Cs1 Se1 69.12(4) 5_455 5 ?
Se2 Cs1 Se1 66.23(2) 5_455 9_565 ?
Se2 Cs1 Se1 66.23(2) 5 9_565 ?
Se1 Cs1 Se1 143.370(19) 14_556 9_565 ?
Se1 Cs1 Se1 143.370(19) 14_456 9_565 ?
Se1 Cs1 Se1 76.25(3) 5_455 9_565 ?
Se1 Cs1 Se1 76.25(3) 5 9_565 ?
Se2 Cs1 Se1 66.23(2) 5_455 2_565 ?
Se2 Cs1 Se1 66.23(2) 5 2_565 ?
Se1 Cs1 Se1 76.25(3) 14_556 2_565 ?
Se1 Cs1 Se1 76.25(3) 14_456 2_565 ?
Se1 Cs1 Se1 143.370(19) 5_455 2_565 ?
Se1 Cs1 Se1 143.370(19) 5 2_565 ?
Se1 Cs1 Se1 119.75(5) 9_565 2_565 ?
Se2 Cs1 Hg1 176.030(19) 5_455 5 ?
Se2 Cs1 Hg1 110.79(4) 5 5 ?
Se1 Cs1 Hg1 38.76(2) 14_556 5 ?
Se1 Cs1 Hg1 80.32(4) 14_456 5 ?
Se1 Cs1 Hg1 80.32(4) 5_455 5 ?
Se1 Cs1 Hg1 38.76(2) 5 5 ?
Se1 Cs1 Hg1 115.01(2) 9_565 5 ?
Se1 Cs1 Hg1 115.01(2) 2_565 5 ?
Se2 Cs1 Hg1 110.79(4) 5_455 5_455 ?
Se2 Cs1 Hg1 176.030(19) 5 5_455 ?
Se1 Cs1 Hg1 80.32(4) 14_556 5_455 ?
Se1 Cs1 Hg1 38.76(2) 14_456 5_455 ?
Se1 Cs1 Hg1 38.76(2) 5_455 5_455 ?
Se1 Cs1 Hg1 80.32(4) 5 5_455 ?
Se1 Cs1 Hg1 115.01(2) 9_565 5_455 ?
Se1 Cs1 Hg1 115.01(2) 2_565 5_455 ?
Hg1 Cs1 Hg1 65.24(4) 5 5_455 ?
Se2 Cs1 Cs1 53.41(2) 5_455 1_455 ?
Se2 Cs1 Cs1 126.59(2) 5 1_455 ?
Se1 Cs1 Cs1 124.561(19) 14_556 1_455 ?
Se1 Cs1 Cs1 55.439(19) 14_456 1_455 ?
Se1 Cs1 Cs1 55.439(19) 5_455 1_455 ?
Se1 Cs1 Cs1 124.561(19) 5 1_455 ?
Se1 Cs1 Cs1 90.0 9_565 1_455 ?
Se1 Cs1 Cs1 90.0 2_565 1_455 ?
Hg1 Cs1 Cs1 122.62(2) 5 1_455 ?
Hg1 Cs1 Cs1 57.38(2) 5_455 1_455 ?
Se2 Cs1 Cs1 126.59(2) 5_455 1_655 ?
Se2 Cs1 Cs1 53.41(2) 5 1_655 ?
Se1 Cs1 Cs1 55.439(19) 14_556 1_655 ?
Se1 Cs1 Cs1 124.561(19) 14_456 1_655 ?
Se1 Cs1 Cs1 124.561(19) 5_455 1_655 ?
Se1 Cs1 Cs1 55.439(19) 5 1_655 ?
Se1 Cs1 Cs1 90.0 9_565 1_655 ?
Se1 Cs1 Cs1 90.0 2_565 1_655 ?
Hg1 Cs1 Cs1 57.38(2) 5 1_655 ?
Hg1 Cs1 Cs1 122.62(2) 5_455 1_655 ?
Cs1 Cs1 Cs1 180.00(4) 1_455 1_655 ?
Hg1 Se1 Sm1 80.71(3) . 5 ?
Hg1 Se1 Sm1 80.71(3) . 5_455 ?
Sm1 Se1 Sm1 93.72(5) 5 5_455 ?
Hg1 Se1 Cs1 74.77(4) . 5_545 ?
Sm1 Se1 Cs1 93.57(3) 5 5_545 ?
Sm1 Se1 Cs1 152.89(3) 5_455 5_545 ?
Hg1 Se1 Cs1 74.77(4) . 5_445 ?
Sm1 Se1 Cs1 152.89(3) 5 5_445 ?
Sm1 Se1 Cs1 93.57(3) 5_455 5_445 ?
Cs1 Se1 Cs1 69.12(4) 5_545 5_445 ?
Hg1 Se1 Cs1 178.17(3) . 9_565 ?
Sm1 Se1 Cs1 100.52(3) 5 9_565 ?
Sm1 Se1 Cs1 100.52(3) 5_455 9_565 ?
Cs1 Se1 Cs1 103.75(4) 5_545 9_565 ?
Cs1 Se1 Cs1 103.75(4) 5_445 9_565 ?
Hg1 Se2 Hg1 103.70(6) 5_445 5_545 ?
Hg1 Se2 Sm1 78.33(2) 5_445 . ?
Hg1 Se2 Sm1 78.33(2) 5_545 . ?
Hg1 Se2 Sm1 78.33(2) 5_445 2 ?
Hg1 Se2 Sm1 78.33(2) 5_545 2 ?
Sm1 Se2 Sm1 141.76(5) . 2 ?
Hg1 Se2 Cs1 164.74(3) 5_445 5_545 ?
Hg1 Se2 Cs1 91.56(4) 5_545 5_545 ?
Sm1 Se2 Cs1 105.249(19) . 5_545 ?
Sm1 Se2 Cs1 105.249(19) 2 5_545 ?
Hg1 Se2 Cs1 91.56(4) 5_445 5_445 ?
Hg1 Se2 Cs1 164.74(3) 5_545 5_445 ?
Sm1 Se2 Cs1 105.249(19) . 5_445 ?
Sm1 Se2 Cs1 105.249(19) 2 5_445 ?
Cs1 Se2 Cs1 73.18(5) 5_545 5_445 ?
loop_
_geom_bond_atom_site_label_1
_geom_bond_atom_site_label_2
_geom_bond_distance
_geom_bond_site_symmetry_2
_geom_bond_publ_flag
Hg1 Se1 2.5935(13) . ?
Hg1 Se1 2.5935(13) 10_556 ?
Hg1 Se2 2.7396(13) 5 ?
Hg1 Se2 2.7396(13) 5_455 ?
Hg1 Sm1 3.6015(13) 6 ?
Hg1 Sm1 3.6015(13) 5_455 ?
Hg1 Sm1 3.6015(13) 6_455 ?
Hg1 Sm1 3.6015(13) 5 ?
Hg1 Cs1 3.9967(17) 5_445 ?
Hg1 Cs1 3.9967(17) 5_545 ?
Hg1 Cs1 4.595(2) . ?
Sm1 Se1 2.9524(12) 13 ?
Sm1 Se1 2.9524(12) 5_445 ?
Sm1 Se1 2.9524(12) 13_455 ?
Sm1 Se1 2.9524(12) 5_545 ?
Sm1 Se2 2.9570(14) 9 ?
Sm1 Se2 2.9570(14) . ?
Sm1 Hg1 3.6015(13) 5_545 ?
Sm1 Hg1 3.6015(13) 13_455 ?
Sm1 Hg1 3.6015(13) 13 ?
Sm1 Hg1 3.6015(13) 5_445 ?
Cs1 Se2 3.6144(18) 5_455 ?
Cs1 Se2 3.6144(18) 5 ?
Cs1 Se1 3.7976(14) 14_556 ?
Cs1 Se1 3.7976(14) 14_456 ?
Cs1 Se1 3.7976(14) 5_455 ?
Cs1 Se1 3.7976(14) 5 ?
Cs1 Se1 3.8203(18) 9_565 ?
Cs1 Se1 3.8203(18) 2_565 ?
Cs1 Hg1 3.9967(17) 5 ?
Cs1 Hg1 3.9967(17) 5_455 ?
Cs1 Cs1 4.309(2) 1_455 ?
Cs1 Cs1 4.309(2) 1_655 ?
Se1 Sm1 2.9524(12) 5 ?
Se1 Sm1 2.9524(12) 5_455 ?
Se1 Cs1 3.7976(14) 5_545 ?
Se1 Cs1 3.7976(14) 5_445 ?
Se1 Cs1 3.8203(18) 9_565 ?
Se2 Hg1 2.7396(13) 5_445 ?
Se2 Hg1 2.7396(13) 5_545 ?
Se2 Sm1 2.9570(14) 2 ?
Se2 Cs1 3.6144(18) 5_545 ?
Se2 Cs1 3.6144(18) 5_445 ?
