#------------------------------------------------------------------------------
#$Date: 2016-02-16 22:30:59 +0200 (Tue, 16 Feb 2016) $
#$Revision: 176467 $
#$URL: svn://www.crystallography.net/cod/cif/4/31/32/4313232.cif $
#------------------------------------------------------------------------------
#
# This file is available in the Crystallography Open Database (COD),
# http://www.crystallography.net/
#
# All data on this site have been placed in the public domain by the
# contributors.
#
data_4313232
loop_
_publ_author_name
'Robert E. Dinnebier'
'Sascha Vensky'
'Martin Panth\"ofer'
'Martin Jansen'
_publ_contact_author
;
    Martin Jansen
    Max-Planck f\"ur Festk\"orperforschung
    Heisenbergstrasse 1
    70569 Stuttgart
    Deutschland
;
_publ_contact_author_email       m.jansen@fkf.mpg.de
_publ_contact_author_fax         '049 711 689-1502'
_publ_contact_author_phone       '049 711 689-1500'
_publ_section_title
;
 Crystal and Molecular Structures of Alkali Oxalates: First Proof of a
 Staggered Oxalate Anion in the Solid State
;
_journal_name_full               'Inorganic Chemistry'
_journal_page_first              1499
_journal_page_last               1507
_journal_paper_doi               10.1021/ic0205536
_journal_volume                  42
_journal_year                    2003
_chemical_formula_sum            'C2 O4 Rb2'
_space_group_IT_number           14
_symmetry_cell_setting           monoclinic
_symmetry_space_group_name_Hall  '-P 2ybc'
_symmetry_space_group_name_H-M   'P 1 21/c 1'
_cell_angle_alpha                90.0
_cell_angle_beta                 98.0158(11)
_cell_angle_gamma                90.0
_cell_formula_units_Z            4
_cell_length_a                   6.32761(13)
_cell_length_b                   10.45477(20)
_cell_length_c                   8.21743(15)
_cell_volume                     538.302(18)
_computing_structure_refinement  GSAS
_diffrn_radiation_polarisn_ratio 0.79
_diffrn_radiation_wavelength     1.54056
_pd_block_id                     'Aug 19 09:32:55 |PHASE_1||'
_pd_calc_method                  'Rietveld Refinement'
_pd_meas_2theta_range_inc        0.01
_pd_meas_2theta_range_max        89.953
_pd_meas_2theta_range_min        10.003
_pd_phase_name                   \a-Rb~2~C~2~O~4~
_pd_proc_2theta_range_inc        0.01
_pd_proc_2theta_range_max        89.953
_pd_proc_2theta_range_min        10.003
_pd_proc_info_datetime           'Aug 19 09:32:55 2002'
_pd_proc_ls_prof_R_factor        0.0438
_pd_proc_ls_prof_wR_expected     0.0418
_pd_proc_ls_prof_wR_factor       0.0582
_refine_ls_goodness_of_fit_all   1.42
_refine_ls_number_parameters     52
_refine_ls_number_restraints     6
_refine_ls_shift/esd_max         0.64
_refine_ls_shift/esd_mean        0.14
_cod_data_source_file            ic0205536_2.cif
_cod_data_source_block           \a-Rb~2~C~2~O~4~
_cod_original_sg_symbol_H-M      'P 21/c'
_cod_original_formula_sum        'Rb2 C2 O4'
_cod_database_code               4313232
_cod_database_fobs_code          4313232
#BEGIN Tags that were not found in dictionaries:
_pd_instr_radiation_probe        x-ray
#END Tags that were not found in dictionaries
loop_
_symmetry_equiv_pos_as_xyz
+x,+y,+z
-x,+y+1/2,-z+1/2
-x,-y,-z
+x,-y+1/2,+z+1/2
loop_
_atom_site_label
_atom_site_fract_x
_atom_site_fract_y
_atom_site_fract_z
_atom_site_occupancy
_atom_site_thermal_displace_type
_atom_site_U_iso_or_equiv
_atom_site_symmetry_multiplicity
C1 0.6904(6) 0.0459(5) 0.7802(5) 1.0 Uiso 0.0557(12) 4
C2 0.8215(6) 0.10353(31) 0.6544(7) 1.0 Uiso 0.0557(12) 4
O3 0.5518(9) 0.1255(6) 0.8050(8) 1.0 Uiso 0.0557(12) 4
O4 0.7124(7) -0.0583(5) 0.8369(8) 1.0 Uiso 0.0557(12) 4
O5 0.7949(7) 0.1047(5) 0.5090(8) 1.0 Uiso 0.0557(12) 4
O6 0.9909(8) 0.1570(5) 0.7155(8) 1.0 Uiso 0.0557(12) 4
Rb7 0.28273(24) 0.29380(13) 0.97901(18) 1.0 Uiso 0.0533(5) 4
Rb8 0.23058(24) 0.58509(14) 0.33496(20) 1.0 Uiso 0.0484(5) 4
loop_
_atom_type_symbol
_atom_type_number_in_cell
C 8.0
O 16.0
RB 8.0
