#------------------------------------------------------------------------------
#$Date: 2016-03-23 02:44:31 +0200 (Wed, 23 Mar 2016) $
#$Revision: 179202 $
#$URL: svn://www.crystallography.net/cod/cif/4/31/37/4313796.cif $
#------------------------------------------------------------------------------
#
# This file is available in the Crystallography Open Database (COD),
# http://www.crystallography.net/
#
# All data on this site have been placed in the public domain by the
# contributors.
#
data_4313796
loop_
_publ_author_name
'Kwasi Mitchell'
'Fu Qiang Huang'
'Adam D. McFarland'
'Christy L. Haynes'
'Rebecca C. Somers'
'Richard P. Van Duyne'
'James A. Ibers'
_publ_section_title
;
 The CsLnMSe3 Semiconductors (Ln = Rare-Earth Element, Y; M = Zn, Cd, Hg)
;
_journal_name_full               'Inorganic Chemistry'
_journal_page_first              4109
_journal_page_last               4116
_journal_paper_doi               10.1021/ic020733f
_journal_volume                  42
_journal_year                    2003
_chemical_formula_sum            'Cs Hg La Se3'
_chemical_formula_weight         709.29
_chemical_name_systematic
;
  ?
;
_space_group_IT_number           63
_symmetry_cell_setting           orthorhombic
_symmetry_space_group_name_Hall  '-C 2c 2'
_symmetry_space_group_name_H-M   'C m c m'
_atom_sites_solution_hydrogens   geom
_atom_sites_solution_primary     direct
_atom_sites_solution_secondary   difmap
_audit_creation_method           SHELXL-97
_cell_angle_alpha                90.00
_cell_angle_beta                 90.00
_cell_angle_gamma                90.00
_cell_formula_units_Z            4
_cell_length_a                   4.4002(4)
_cell_length_b                   15.7279(14)
_cell_length_c                   11.4052(10)
_cell_measurement_temperature    273(2)
_cell_volume                     789.31(12)
_computing_cell_refinement       'SMART version 5.054 (Bruker, 2000)'
_computing_data_collection       'SMART version 5.054 (Bruker, 2000)'
_computing_data_reduction        'SAINT-Plus version 6.22 (Bruker, 2000)'
_computing_molecular_graphics    'SHELXTL-97 (Sheldrick, 1997)'
_computing_publication_material  'SHELXTL-97 (Sheldrick, 1997)'
_computing_structure_refinement  'SHELXL-97 (Sheldrick, 1997)'
_computing_structure_solution    'SHELXS-97 (Sheldrick, 1990)'
_diffrn_ambient_temperature      273(2)
_diffrn_measured_fraction_theta_full 0.944
_diffrn_measured_fraction_theta_max 0.944
_diffrn_measurement_device_type  'Bruker Smart 1000 CCD'
_diffrn_measurement_method       \w
_diffrn_radiation_monochromator  graphite
_diffrn_radiation_source         'fine-focus sealed tube'
_diffrn_radiation_type           MoK\a
_diffrn_radiation_wavelength     0.71073
_diffrn_reflns_av_R_equivalents  0.0311
_diffrn_reflns_av_sigmaI/netI    0.0175
_diffrn_reflns_limit_h_max       5
_diffrn_reflns_limit_h_min       -5
_diffrn_reflns_limit_k_max       21
_diffrn_reflns_limit_k_min       -21
_diffrn_reflns_limit_l_max       15
_diffrn_reflns_limit_l_min       -15
_diffrn_reflns_number            4610
_diffrn_reflns_theta_full        28.93
_diffrn_reflns_theta_max         28.93
_diffrn_reflns_theta_min         3.15
_diffrn_standards_decay_%        <2
_diffrn_standards_interval_count none
_diffrn_standards_interval_time  none
_diffrn_standards_number         none
_exptl_absorpt_coefficient_mu    43.030
_exptl_absorpt_correction_T_max  0.43634
_exptl_absorpt_correction_T_min  0.06461
_exptl_absorpt_correction_type   numerical
_exptl_absorpt_process_details   'faces indexed'
_exptl_crystal_colour            yellow
_exptl_crystal_density_diffrn    5.969
_exptl_crystal_density_meas      ?
_exptl_crystal_density_method    'not measured'
_exptl_crystal_description       needle
_exptl_crystal_F_000             1176
_exptl_crystal_size_max          0.280
_exptl_crystal_size_mid          0.028
_exptl_crystal_size_min          0.020
_refine_diff_density_max         2.474
_refine_diff_density_min         -1.606
_refine_diff_density_rms         0.425
_refine_ls_extinction_coef       0.00072(8)
_refine_ls_extinction_expression Fc^*^=kFc[1+0.001xFc^2^\l^3^/sin(2\q)]^-1/4^
_refine_ls_extinction_method     SHELXL
_refine_ls_goodness_of_fit_ref   1.143
_refine_ls_hydrogen_treatment    mixed
_refine_ls_matrix_type           full
_refine_ls_number_parameters     24
_refine_ls_number_reflns         572
_refine_ls_number_restraints     0
_refine_ls_restrained_S_all      1.143
_refine_ls_R_factor_all          0.0204
_refine_ls_R_factor_gt           0.0192
_refine_ls_shift/su_max          0.001
_refine_ls_shift/su_mean         0.000
_refine_ls_structure_factor_coef Fsqd
_refine_ls_weighting_details
; calc
  [1.00000+0.00000exp(0.00(sin\q/\l)^2^)]/
    [\s^2^(Fo^2^)+0.0000+0.0000*P+(0.0300P)^2^+0.0000sin\q/\l]
  where P = 1.00000Fo^2^ + 0.00000Fc^2^
;
_refine_ls_weighting_scheme      calc
_refine_ls_wR_factor_gt          0.0469
_refine_ls_wR_factor_ref         0.0473
_reflns_number_gt                550
_reflns_number_total             572
_reflns_threshold_expression     >2sigma(I)
_cod_data_source_file            ic020733f_09.cif
_cod_data_source_block           CsLaHgSe3
_cod_depositor_comments
;
The following automatic conversions were performed:

'_exptl_crystal_density_meas' value 'not measured' was changed to '?'
- the value is perceived as not measured.

Automatic conversion script
Id: cif_fix_values 3008 2015-01-20 13:52:24Z robertas 
;
_cod_database_code               4313796
loop_
_symmetry_equiv_pos_as_xyz
'x, y, z'
'-x, -y, z+1/2'
'-x, y, -z+1/2'
'x, -y, -z'
'x+1/2, y+1/2, z'
'-x+1/2, -y+1/2, z+1/2'
'-x+1/2, y+1/2, -z+1/2'
'x+1/2, -y+1/2, -z'
'-x, -y, -z'
'x, y, -z-1/2'
'x, -y, z-1/2'
'-x, y, z'
'-x+1/2, -y+1/2, -z'
'x+1/2, y+1/2, -z-1/2'
'x+1/2, -y+1/2, z-1/2'
'-x+1/2, y+1/2, z'
loop_
_atom_site_label
_atom_site_type_symbol
_atom_site_fract_x
_atom_site_fract_y
_atom_site_fract_z
_atom_site_U_iso_or_equiv
_atom_site_adp_type
_atom_site_occupancy
_atom_site_symmetry_multiplicity
_atom_site_calc_flag
_atom_site_refinement_flags
_atom_site_disorder_assembly
_atom_site_disorder_group
Hg1 Hg 0.0000 0.45581(2) 0.2500 0.01243(13) Uani 1 4 d S . .
La1 La 0.0000 0.0000 0.0000 0.00928(14) Uani 1 4 d S . .
Cs1 Cs 0.0000 0.74254(3) 0.2500 0.01578(16) Uani 1 4 d S . .
Se1 Se 0.0000 0.37349(3) 0.05260(5) 0.01050(16) Uani 1 2 d S . .
Se2 Se 0.0000 0.06187(5) 0.2500 0.00906(18) Uani 1 4 d S . .
loop_
_atom_site_aniso_label
_atom_site_aniso_U_11
_atom_site_aniso_U_22
_atom_site_aniso_U_33
_atom_site_aniso_U_23
_atom_site_aniso_U_13
_atom_site_aniso_U_12
Hg1 0.0132(2) 0.0162(2) 0.00789(18) 0.000 0.000 0.000
La1 0.0078(2) 0.0134(2) 0.0066(2) 0.00015(15) 0.000 0.000
Cs1 0.0131(3) 0.0127(3) 0.0216(3) 0.000 0.000 0.000
Se1 0.0106(3) 0.0114(3) 0.0095(3) -0.0006(2) 0.000 0.000
Se2 0.0087(4) 0.0121(4) 0.0064(4) 0.000 0.000 0.000
loop_
_atom_type_symbol
_atom_type_description
_atom_type_scat_dispersion_real
_atom_type_scat_dispersion_imag
_atom_type_scat_source
Se Se -0.0929 2.2259 'International Tables Vol C Tables 4.2.6.8 and 6.1.1.4'
Cs Cs -0.3680 2.1192 'International Tables Vol C Tables 4.2.6.8 and 6.1.1.4'
La La -0.2871 2.4523 'International Tables Vol C Tables 4.2.6.8 and 6.1.1.4'
Hg Hg -2.3894 9.2266 'International Tables Vol C Tables 4.2.6.8 and 6.1.1.4'
loop_
_geom_angle_atom_site_label_1
_geom_angle_atom_site_label_2
_geom_angle_atom_site_label_3
_geom_angle
_geom_angle_site_symmetry_1
_geom_angle_site_symmetry_3
_geom_angle_publ_flag
Se1 Hg1 Se1 120.20(3) . 10_556 ?
Se1 Hg1 Se2 107.529(9) . 5 ?
Se1 Hg1 Se2 107.529(9) 10_556 5 ?
Se1 Hg1 Se2 107.529(9) . 5_455 ?
Se1 Hg1 Se2 107.529(9) 10_556 5_455 ?
Se2 Hg1 Se2 105.66(3) 5 5_455 ?
Se1 Hg1 La1 140.207(7) . 6 ?
Se1 Hg1 La1 54.590(9) 10_556 6 ?
Se2 Hg1 La1 53.668(5) 5 6 ?
Se2 Hg1 La1 111.314(11) 5_455 6 ?
Se1 Hg1 La1 54.590(9) . 5_455 ?
Se1 Hg1 La1 140.207(7) 10_556 5_455 ?
Se2 Hg1 La1 111.314(11) 5 5_455 ?
Se2 Hg1 La1 53.668(5) 5_455 5_455 ?
La1 Hg1 La1 158.153(10) 6 5_455 ?
Se1 Hg1 La1 140.207(7) . 6_455 ?
Se1 Hg1 La1 54.590(9) 10_556 6_455 ?
Se2 Hg1 La1 111.314(11) 5 6_455 ?
Se2 Hg1 La1 53.668(5) 5_455 6_455 ?
La1 Hg1 La1 73.715(7) 6 6_455 ?
La1 Hg1 La1 102.040(7) 5_455 6_455 ?
Se1 Hg1 La1 54.590(9) . 5 ?
Se1 Hg1 La1 140.207(7) 10_556 5 ?
Se2 Hg1 La1 53.668(5) 5 5 ?
Se2 Hg1 La1 111.314(11) 5_455 5 ?
La1 Hg1 La1 102.040(7) 6 5 ?
La1 Hg1 La1 73.715(7) 5_455 5 ?
La1 Hg1 La1 158.153(10) 6_455 5 ?
Se1 Hg1 Cs1 65.365(11) . 5_445 ?
Se1 Hg1 Cs1 65.365(11) 10_556 5_445 ?
Se2 Hg1 Cs1 160.432(16) 5 5_445 ?
Se2 Hg1 Cs1 93.909(17) 5_455 5_445 ?
La1 Hg1 Cs1 119.172(6) 6 5_445 ?
La1 Hg1 Cs1 80.182(5) 5_455 5_445 ?
La1 Hg1 Cs1 80.182(5) 6_455 5_445 ?
La1 Hg1 Cs1 119.172(6) 5 5_445 ?
Se1 Hg1 Cs1 65.365(11) . 5_545 ?
Se1 Hg1 Cs1 65.365(11) 10_556 5_545 ?
Se2 Hg1 Cs1 93.909(17) 5 5_545 ?
Se2 Hg1 Cs1 160.432(16) 5_455 5_545 ?
La1 Hg1 Cs1 80.182(5) 6 5_545 ?
La1 Hg1 Cs1 119.172(6) 5_455 5_545 ?
La1 Hg1 Cs1 119.172(6) 6_455 5_545 ?
La1 Hg1 Cs1 80.182(5) 5 5_545 ?
Cs1 Hg1 Cs1 66.522(12) 5_445 5_545 ?
Se1 Hg1 Cs1 119.900(14) . . ?
Se1 Hg1 Cs1 119.900(14) 10_556 . ?
Se2 Hg1 Cs1 52.829(15) 5 . ?
Se2 Hg1 Cs1 52.829(15) 5_455 . ?
La1 Hg1 Cs1 79.077(5) 6 . ?
La1 Hg1 Cs1 79.077(5) 5_455 . ?
La1 Hg1 Cs1 79.077(5) 6_455 . ?
La1 Hg1 Cs1 79.077(5) 5 . ?
Cs1 Hg1 Cs1 146.739(6) 5_445 . ?
Cs1 Hg1 Cs1 146.739(6) 5_545 . ?
Se2 La1 Se2 180.0 9 . ?
Se2 La1 Se1 91.418(15) 9 13 ?
Se2 La1 Se1 88.582(15) . 13 ?
Se2 La1 Se1 88.582(15) 9 5_445 ?
Se2 La1 Se1 91.418(15) . 5_445 ?
Se1 La1 Se1 180.00(3) 13 5_445 ?
Se2 La1 Se1 91.418(15) 9 13_455 ?
Se2 La1 Se1 88.582(15) . 13_455 ?
Se1 La1 Se1 93.265(17) 13 13_455 ?
Se1 La1 Se1 86.735(17) 5_445 13_455 ?
Se2 La1 Se1 88.582(15) 9 5_545 ?
Se2 La1 Se1 91.418(15) . 5_545 ?
Se1 La1 Se1 86.735(17) 13 5_545 ?
Se1 La1 Se1 93.265(17) 5_445 5_545 ?
Se1 La1 Se1 180.00(3) 13_455 5_545 ?
Se2 La1 Hg1 132.415(10) 9 5_545 ?
Se2 La1 Hg1 47.585(10) . 5_545 ?
Se1 La1 Hg1 80.945(11) 13 5_545 ?
Se1 La1 Hg1 99.055(11) 5_445 5_545 ?
Se1 La1 Hg1 135.621(11) 13_455 5_545 ?
Se1 La1 Hg1 44.379(11) 5_545 5_545 ?
Se2 La1 Hg1 47.585(10) 9 13_455 ?
Se2 La1 Hg1 132.415(10) . 13_455 ?
Se1 La1 Hg1 99.055(11) 13 13_455 ?
Se1 La1 Hg1 80.945(11) 5_445 13_455 ?
Se1 La1 Hg1 44.379(11) 13_455 13_455 ?
Se1 La1 Hg1 135.621(11) 5_545 13_455 ?
Hg1 La1 Hg1 180.000(9) 5_545 13_455 ?
Se2 La1 Hg1 132.415(10) 9 5_445 ?
Se2 La1 Hg1 47.585(10) . 5_445 ?
Se1 La1 Hg1 135.621(11) 13 5_445 ?
Se1 La1 Hg1 44.379(11) 5_445 5_445 ?
Se1 La1 Hg1 80.945(11) 13_455 5_445 ?
Se1 La1 Hg1 99.055(11) 5_545 5_445 ?
Hg1 La1 Hg1 73.715(7) 5_545 5_445 ?
Hg1 La1 Hg1 106.285(7) 13_455 5_445 ?
Se2 La1 Hg1 47.585(10) 9 13 ?
Se2 La1 Hg1 132.415(10) . 13 ?
Se1 La1 Hg1 44.379(11) 13 13 ?
Se1 La1 Hg1 135.621(11) 5_445 13 ?
Se1 La1 Hg1 99.055(11) 13_455 13 ?
Se1 La1 Hg1 80.945(11) 5_545 13 ?
Hg1 La1 Hg1 106.285(7) 5_545 13 ?
Hg1 La1 Hg1 73.715(7) 13_455 13 ?
Hg1 La1 Hg1 180.000(9) 5_445 13 ?
Se2 La1 Cs1 106.307(17) 9 1_545 ?
Se2 La1 Cs1 73.693(17) . 1_545 ?
Se1 La1 Cs1 130.668(9) 13 1_545 ?
Se1 La1 Cs1 49.332(9) 5_445 1_545 ?
Se1 La1 Cs1 130.668(9) 13_455 1_545 ?
Se1 La1 Cs1 49.332(9) 5_545 1_545 ?
Hg1 La1 Cs1 52.951(6) 5_545 1_545 ?
Hg1 La1 Cs1 127.049(6) 13_455 1_545 ?
Hg1 La1 Cs1 52.951(6) 5_445 1_545 ?
Hg1 La1 Cs1 127.049(6) 13 1_545 ?
Se2 La1 Cs1 73.693(17) 9 9_565 ?
Se2 La1 Cs1 106.307(17) . 9_565 ?
Se1 La1 Cs1 49.332(9) 13 9_565 ?
Se1 La1 Cs1 130.668(9) 5_445 9_565 ?
Se1 La1 Cs1 49.332(9) 13_455 9_565 ?
Se1 La1 Cs1 130.668(9) 5_545 9_565 ?
Hg1 La1 Cs1 127.049(6) 5_545 9_565 ?
Hg1 La1 Cs1 52.951(6) 13_455 9_565 ?
Hg1 La1 Cs1 127.049(6) 5_445 9_565 ?
Hg1 La1 Cs1 52.951(6) 13 9_565 ?
Cs1 La1 Cs1 180.000(7) 1_545 9_565 ?
Se2 Cs1 Se2 75.50(2) 5_455 5 ?
Se2 Cs1 Se1 142.276(10) 5_455 14_556 ?
Se2 Cs1 Se1 94.293(10) 5 14_556 ?
Se2 Cs1 Se1 94.293(10) 5_455 14_456 ?
Se2 Cs1 Se1 142.276(10) 5 14_456 ?
Se1 Cs1 Se1 71.585(13) 14_556 14_456 ?
Se2 Cs1 Se1 94.293(10) 5_455 5_455 ?
Se2 Cs1 Se1 142.276(10) 5 5_455 ?
Se1 Cs1 Se1 113.61(2) 14_556 5_455 ?
Se1 Cs1 Se1 73.523(17) 14_456 5_455 ?
Se2 Cs1 Se1 142.276(10) 5_455 5 ?
Se2 Cs1 Se1 94.293(10) 5 5 ?
Se1 Cs1 Se1 73.523(17) 14_556 5 ?
Se1 Cs1 Se1 113.61(2) 14_456 5 ?
Se1 Cs1 Se1 71.585(13) 5_455 5 ?
Se2 Cs1 Se1 68.308(10) 5_455 9_565 ?
Se2 Cs1 Se1 68.308(10) 5 9_565 ?
Se1 Cs1 Se1 141.721(8) 14_556 9_565 ?
Se1 Cs1 Se1 141.721(8) 14_456 9_565 ?
Se1 Cs1 Se1 74.149(13) 5_455 9_565 ?
Se1 Cs1 Se1 74.149(13) 5 9_565 ?
Se2 Cs1 Se1 68.308(10) 5_455 2_565 ?
Se2 Cs1 Se1 68.308(10) 5 2_565 ?
Se1 Cs1 Se1 74.149(13) 14_556 2_565 ?
Se1 Cs1 Se1 74.149(13) 14_456 2_565 ?
Se1 Cs1 Se1 141.721(8) 5_455 2_565 ?
Se1 Cs1 Se1 141.721(8) 5 2_565 ?
Se1 Cs1 Se1 124.26(2) 9_565 2_565 ?
Se2 Cs1 Hg1 175.511(14) 5_455 5 ?
Se2 Cs1 Hg1 108.989(11) 5 5 ?
Se1 Cs1 Hg1 38.869(9) 14_556 5 ?
Se1 Cs1 Hg1 82.123(13) 14_456 5 ?
Se1 Cs1 Hg1 82.123(13) 5_455 5 ?
Se1 Cs1 Hg1 38.869(9) 5 5 ?
Se1 Cs1 Hg1 113.009(8) 9_565 5 ?
Se1 Cs1 Hg1 113.009(8) 2_565 5 ?
Se2 Cs1 Hg1 108.989(11) 5_455 5_455 ?
Se2 Cs1 Hg1 175.511(14) 5 5_455 ?
Se1 Cs1 Hg1 82.123(13) 14_556 5_455 ?
Se1 Cs1 Hg1 38.869(9) 14_456 5_455 ?
Se1 Cs1 Hg1 38.869(9) 5_455 5_455 ?
Se1 Cs1 Hg1 82.123(13) 5 5_455 ?
Se1 Cs1 Hg1 113.009(8) 9_565 5_455 ?
Se1 Cs1 Hg1 113.009(8) 2_565 5_455 ?
Hg1 Cs1 Hg1 66.522(12) 5 5_455 ?
Se2 Cs1 Cs1 127.750(11) 5_455 1_655 ?
Se2 Cs1 Cs1 52.250(11) 5 1_655 ?
Se1 Cs1 Cs1 54.208(7) 14_556 1_655 ?
Se1 Cs1 Cs1 125.792(7) 14_456 1_655 ?
Se1 Cs1 Cs1 125.792(7) 5_455 1_655 ?
Se1 Cs1 Cs1 54.208(7) 5 1_655 ?
Se1 Cs1 Cs1 90.0 9_565 1_655 ?
Se1 Cs1 Cs1 90.0 2_565 1_655 ?
Hg1 Cs1 Cs1 56.739(6) 5 1_655 ?
Hg1 Cs1 Cs1 123.261(6) 5_455 1_655 ?
Se2 Cs1 Cs1 52.250(11) 5_455 1_455 ?
Se2 Cs1 Cs1 127.750(11) 5 1_455 ?
Se1 Cs1 Cs1 125.792(7) 14_556 1_455 ?
Se1 Cs1 Cs1 54.208(7) 14_456 1_455 ?
Se1 Cs1 Cs1 54.208(7) 5_455 1_455 ?
Se1 Cs1 Cs1 125.792(7) 5 1_455 ?
Se1 Cs1 Cs1 90.0 9_565 1_455 ?
Se1 Cs1 Cs1 90.0 2_565 1_455 ?
Hg1 Cs1 Cs1 123.261(6) 5 1_455 ?
Hg1 Cs1 Cs1 56.739(6) 5_455 1_455 ?
Cs1 Cs1 Cs1 180.00(3) 1_655 1_455 ?
Hg1 Se1 La1 81.031(13) . 5 ?
Hg1 Se1 La1 81.031(13) . 5_455 ?
La1 Se1 La1 93.265(17) 5 5_455 ?
Hg1 Se1 Cs1 75.766(14) . 5_545 ?
La1 Se1 Cs1 93.063(9) 5 5_545 ?
La1 Se1 Cs1 154.656(17) 5_455 5_545 ?
Hg1 Se1 Cs1 75.766(14) . 5_445 ?
La1 Se1 Cs1 154.656(17) 5 5_445 ?
La1 Se1 Cs1 93.063(9) 5_455 5_445 ?
Cs1 Se1 Cs1 71.585(13) 5_545 5_445 ?
Hg1 Se1 Cs1 177.97(2) . 9_565 ?
La1 Se1 Cs1 97.590(13) 5 9_565 ?
La1 Se1 Cs1 97.590(13) 5_455 9_565 ?
Cs1 Se1 Cs1 105.851(13) 5_545 9_565 ?
Cs1 Se1 Cs1 105.851(13) 5_445 9_565 ?
Hg1 Se2 Hg1 105.66(3) 5_445 5_545 ?
Hg1 Se2 La1 78.746(13) 5_445 . ?
Hg1 Se2 La1 78.746(13) 5_545 . ?
Hg1 Se2 La1 78.746(13) 5_445 2 ?
Hg1 Se2 La1 78.746(13) 5_545 2 ?
La1 Se2 La1 142.31(3) . 2 ?
Hg1 Se2 Cs1 164.92(2) 5_445 5_545 ?
Hg1 Se2 Cs1 89.421(11) 5_545 5_545 ?
La1 Se2 Cs1 104.797(10) . 5_545 ?
La1 Se2 Cs1 104.797(10) 2 5_545 ?
Hg1 Se2 Cs1 89.421(11) 5_445 5_445 ?
Hg1 Se2 Cs1 164.92(2) 5_545 5_445 ?
La1 Se2 Cs1 104.797(10) . 5_445 ?
La1 Se2 Cs1 104.797(10) 2 5_445 ?
Cs1 Se2 Cs1 75.50(2) 5_545 5_445 ?
loop_
_geom_bond_atom_site_label_1
_geom_bond_atom_site_label_2
_geom_bond_distance
_geom_bond_site_symmetry_2
_geom_bond_publ_flag
Hg1 Se1 2.5971(6) . ?
Hg1 Se1 2.5971(6) 10_556 ?
Hg1 Se2 2.7610(6) 5 ?
Hg1 Se2 2.7610(6) 5_455 ?
Hg1 La1 3.6679(2) 6 ?
Hg1 La1 3.6679(2) 5_455 ?
Hg1 La1 3.6679(2) 6_455 ?
Hg1 La1 3.6679(2) 5 ?
Hg1 Cs1 4.0114(6) 5_445 ?
Hg1 Cs1 4.0114(6) 5_545 ?
Hg1 Cs1 4.5097(7) . ?
La1 Se2 3.0128(4) 9 ?
La1 Se2 3.0128(4) . ?
La1 Se1 3.0264(4) 13 ?
La1 Se1 3.0264(4) 5_445 ?
La1 Se1 3.0264(4) 13_455 ?
La1 Se1 3.0264(4) 5_545 ?
La1 Hg1 3.6679(2) 5_545 ?
La1 Hg1 3.6679(2) 13_455 ?
La1 Hg1 3.6679(2) 5_445 ?
La1 Hg1 3.6679(2) 13 ?
La1 Cs1 4.9525(5) 1_545 ?
La1 Cs1 4.9525(5) 9_565 ?
Cs1 Se2 3.5937(9) 5_455 ?
Cs1 Se2 3.5937(9) 5 ?
Cs1 Se1 3.7618(6) 14_556 ?
Cs1 Se1 3.7618(6) 14_456 ?
Cs1 Se1 3.7618(6) 5_455 ?
Cs1 Se1 3.7618(6) 5 ?
Cs1 Se1 3.9040(7) 9_565 ?
Cs1 Se1 3.9040(7) 2_565 ?
Cs1 Hg1 4.0114(6) 5 ?
Cs1 Hg1 4.0114(6) 5_455 ?
Cs1 Cs1 4.4002(4) 1_655 ?
Cs1 Cs1 4.4002(4) 1_455 ?
Se1 La1 3.0264(4) 5 ?
Se1 La1 3.0264(4) 5_455 ?
Se1 Cs1 3.7618(6) 5_545 ?
Se1 Cs1 3.7618(6) 5_445 ?
Se1 Cs1 3.9040(7) 9_565 ?
Se2 Hg1 2.7610(6) 5_445 ?
Se2 Hg1 2.7610(6) 5_545 ?
Se2 La1 3.0128(4) 2 ?
Se2 Cs1 3.5937(9) 5_545 ?
Se2 Cs1 3.5937(9) 5_445 ?
