#------------------------------------------------------------------------------
#$Date: 2016-03-23 02:57:22 +0200 (Wed, 23 Mar 2016) $
#$Revision: 179221 $
#$URL: svn://www.crystallography.net/cod/cif/4/31/45/4314514.cif $
#------------------------------------------------------------------------------
#
# This file is available in the Crystallography Open Database (COD),
# http://www.crystallography.net/
#
# All data on this site have been placed in the public domain by the
# contributors.
#
data_4314514
loop_
_publ_author_name
'Brenton L. Drake'
'Fernande Grandjean'
'Michael J. Kangas'
'Edem K. Okudzeto'
'Amar B. Karki'
'Moulay T. Sougrati'
'David P. Young'
'Gary J. Long'
'Julia Y. Chan'
_publ_section_title
;
 Crystal Growth, Transport, and the Structural and Magnetic Properties of
 Ln4FeGa12 with Ln = Y, Tb, Dy, Ho, and Er
;
_journal_name_full               'Inorganic Chemistry'
_journal_page_first              445
_journal_page_last               456
_journal_paper_doi               10.1021/ic9013202
_journal_volume                  49
_journal_year                    2010
_chemical_formula_sum            'Fe Ga12 Ho4'
_chemical_formula_weight         1552.21
_chemical_name_systematic
; 
 ? 
;
_space_group_IT_number           229
_symmetry_cell_setting           cubic
_symmetry_space_group_name_Hall  '-I 4 2 3'
_symmetry_space_group_name_H-M   'I m -3 m'
_atom_sites_solution_primary     direct
_atom_sites_solution_secondary   difmap
_audit_creation_method           SHELXL-97
_cell_angle_alpha                90.00
_cell_angle_beta                 90.00
_cell_angle_gamma                90.00
_cell_formula_units_Z            2
_cell_length_a                   8.5080(3)
_cell_length_b                   8.5080(3)
_cell_length_c                   8.5080(3)
_cell_measurement_reflns_used    172
_cell_measurement_temperature    298(2)
_cell_measurement_theta_max      30.034
_cell_measurement_theta_min      0.998
_cell_volume                     615.86(4)
_computing_cell_refinement
'Denzo and Scalepack (Otwinowski & Minor, 1997)'
_computing_data_collection       'COLLECT (Nonius, 2000)'
_computing_data_reduction
'Denzo and Scalepack (Otwinowski & Minor, 1997)'
_computing_publication_material  'SHELXS-97 (Sheldrick, 1990)'
_computing_structure_refinement  'SHELXL-97 (Sheldrick, 1997)'
_computing_structure_solution    'SHELXS-97 (Sheldrick, 1990)'
_diffrn_ambient_temperature      298(2)
_diffrn_measured_fraction_theta_full 1.000
_diffrn_measured_fraction_theta_max 1.000
_diffrn_measurement_device_type  'KappaCCD (with Oxford Cryostram)'
_diffrn_measurement_method       ' \w scans \k offsets'
_diffrn_radiation_monochromator  graphite
_diffrn_radiation_source         'fine-focus sealed tube'
_diffrn_radiation_type           MoK\a
_diffrn_radiation_wavelength     0.71073
_diffrn_reflns_av_R_equivalents  0.0231
_diffrn_reflns_av_sigmaI/netI    0.0394
_diffrn_reflns_limit_h_max       11
_diffrn_reflns_limit_h_min       -11
_diffrn_reflns_limit_k_max       8
_diffrn_reflns_limit_k_min       -8
_diffrn_reflns_limit_l_max       7
_diffrn_reflns_limit_l_min       -7
_diffrn_reflns_number            278
_diffrn_reflns_theta_full        29.85
_diffrn_reflns_theta_max         29.85
_diffrn_reflns_theta_min         3.39
_exptl_absorpt_coefficient_mu    52.184
_exptl_absorpt_correction_T_max  0.1801
_exptl_absorpt_correction_T_min  0.1801
_exptl_absorpt_correction_type   multi-scan
_exptl_absorpt_process_details   'HKL Scalepack (Otwinowski & Minor 1997)'
_exptl_crystal_colour            silver
_exptl_crystal_density_diffrn    8.370
_exptl_crystal_density_method    'not measured'
_exptl_crystal_description       'cubic fragment'
_exptl_crystal_F_000             1332
_exptl_crystal_size_max          0.05
_exptl_crystal_size_mid          0.05
_exptl_crystal_size_min          0.05
_refine_diff_density_max         1.513
_refine_diff_density_min         -3.902
_refine_diff_density_rms         0.351
_refine_ls_extinction_coef       0.0057(6)
_refine_ls_extinction_expression Fc^*^=kFc[1+0.001xFc^2^\l^3^/sin(2\q)]^-1/4^
_refine_ls_extinction_method     SHELXL
_refine_ls_goodness_of_fit_ref   1.230
_refine_ls_hydrogen_treatment    none
_refine_ls_matrix_type           full
_refine_ls_number_parameters     10
_refine_ls_number_reflns         112
_refine_ls_number_restraints     0
_refine_ls_restrained_S_all      1.230
_refine_ls_R_factor_all          0.0262
_refine_ls_R_factor_gt           0.0256
_refine_ls_shift/su_max          0.000
_refine_ls_shift/su_mean         0.000
_refine_ls_structure_factor_coef Fsqd
_refine_ls_weighting_details
'calc w=1/[\s^2^(Fo^2^)+(0.0138P)^2^+20.5004P] where P=(Fo^2^+2Fc^2^)/3'
_refine_ls_weighting_scheme      calc
_refine_ls_wR_factor_gt          0.0721
_refine_ls_wR_factor_ref         0.0730
_reflns_number_gt                107
_reflns_number_total             112
_reflns_threshold_expression     >2sigma(I)
_cod_data_source_file            ic9013202_si_002_4.cif
_cod_data_source_block           Ho4FeGa12
_cod_database_code               4314514
loop_
_symmetry_equiv_pos_as_xyz
'x, y, z'
'x, z, y'
'y, -z, x'
'y, x, -z'
'x, -z, y'
'-z, y, x'
'z, x, -y'
'y, z, -x'
'z, y, -x'
'-z, x, -y'
'x, z, -y'
'y, -z, -x'
'x, -z, -y'
'-z, y, -x'
'x, -y, z'
'y, -x, z'
'x, -y, -z'
'y, -x, -z'
'-y, -z, -x'
'-x, -y, z'
'-y, -x, -z'
'-z, -x, -y'
'-z, -y, -x'
'z, -x, -y'
'x+1/2, y+1/2, z+1/2'
'x+1/2, z+1/2, y+1/2'
'y+1/2, -z+1/2, x+1/2'
'y+1/2, x+1/2, -z+1/2'
'x+1/2, -z+1/2, y+1/2'
'-z+1/2, y+1/2, x+1/2'
'z+1/2, x+1/2, -y+1/2'
'y+1/2, z+1/2, -x+1/2'
'z+1/2, y+1/2, -x+1/2'
'-z+1/2, x+1/2, -y+1/2'
'x+1/2, z+1/2, -y+1/2'
'y+1/2, -z+1/2, -x+1/2'
'x+1/2, -z+1/2, -y+1/2'
'-z+1/2, y+1/2, -x+1/2'
'x+1/2, -y+1/2, z+1/2'
'y+1/2, -x+1/2, z+1/2'
'x+1/2, -y+1/2, -z+1/2'
'y+1/2, -x+1/2, -z+1/2'
'-y+1/2, -z+1/2, -x+1/2'
'-x+1/2, -y+1/2, z+1/2'
'-y+1/2, -x+1/2, -z+1/2'
'-z+1/2, -x+1/2, -y+1/2'
'-z+1/2, -y+1/2, -x+1/2'
'z+1/2, -x+1/2, -y+1/2'
'-x, -y, -z'
'-x, -z, -y'
'-y, z, -x'
'-y, -x, z'
'-x, z, -y'
'z, -y, -x'
'-z, -x, y'
'-y, -z, x'
'-z, -y, x'
'z, -x, y'
'-x, -z, y'
'-y, z, x'
'-x, z, y'
'z, -y, x'
'-x, y, -z'
'-y, x, -z'
'-x, y, z'
'-y, x, z'
'y, z, x'
'x, y, -z'
'y, x, z'
'z, x, y'
'z, y, x'
'-z, x, y'
'-x+1/2, -y+1/2, -z+1/2'
'-x+1/2, -z+1/2, -y+1/2'
'-y+1/2, z+1/2, -x+1/2'
'-y+1/2, -x+1/2, z+1/2'
'-x+1/2, z+1/2, -y+1/2'
'z+1/2, -y+1/2, -x+1/2'
'-z+1/2, -x+1/2, y+1/2'
'-y+1/2, -z+1/2, x+1/2'
'-z+1/2, -y+1/2, x+1/2'
'z+1/2, -x+1/2, y+1/2'
'-x+1/2, -z+1/2, y+1/2'
'-y+1/2, z+1/2, x+1/2'
'-x+1/2, z+1/2, y+1/2'
'z+1/2, -y+1/2, x+1/2'
'-x+1/2, y+1/2, -z+1/2'
'-y+1/2, x+1/2, -z+1/2'
'-x+1/2, y+1/2, z+1/2'
'-y+1/2, x+1/2, z+1/2'
'y+1/2, z+1/2, x+1/2'
'x+1/2, y+1/2, -z+1/2'
'y+1/2, x+1/2, z+1/2'
'z+1/2, x+1/2, y+1/2'
'z+1/2, y+1/2, x+1/2'
'-z+1/2, x+1/2, y+1/2'
loop_
_atom_site_label
_atom_site_type_symbol
_atom_site_fract_x
_atom_site_fract_y
_atom_site_fract_z
_atom_site_U_iso_or_equiv
_atom_site_adp_type
_atom_site_occupancy
_atom_site_symmetry_multiplicity
_atom_site_calc_flag
_atom_site_refinement_flags
_atom_site_disorder_assembly
_atom_site_disorder_group
Ho1 Ho 0.2500 0.2500 0.2500 0.0082(5) Uani 1 12 d S . .
Fe1 Fe 0.0000 0.0000 0.0000 0.0208(14) Uani 1 48 d S . .
Ga1 Ga 0.2500 0.0000 0.5000 0.0102(6) Uani 1 8 d S . .
Ga2 Ga 0.2814(4) 0.0000 0.0000 0.0151(5) Uani 1 8 d S . .
loop_
_atom_site_aniso_label
_atom_site_aniso_U_11
_atom_site_aniso_U_22
_atom_site_aniso_U_33
_atom_site_aniso_U_23
_atom_site_aniso_U_13
_atom_site_aniso_U_12
Ho1 0.0082(5) 0.0082(5) 0.0082(5) 0.00157(15) 0.00157(15) 0.00157(15)
Fe1 0.0208(14) 0.0208(14) 0.0208(14) 0.000 0.000 0.000
Ga1 0.0128(9) 0.0089(6) 0.0089(6) 0.000 0.000 0.000
Ga2 0.0237(12) 0.0108(7) 0.0108(7) 0.000 0.000 0.000
loop_
_atom_type_symbol
_atom_type_description
_atom_type_scat_dispersion_real
_atom_type_scat_dispersion_imag
_atom_type_scat_source
Ho Ho -0.2175 4.6783 'International Tables Vol C Tables 4.2.6.8 and 6.1.1.4'
Fe Fe 0.3463 0.8444 'International Tables Vol C Tables 4.2.6.8 and 6.1.1.4'
Ga Ga 0.2307 1.6083 'International Tables Vol C Tables 4.2.6.8 and 6.1.1.4'
loop_
_geom_angle_atom_site_label_1
_geom_angle_atom_site_label_2
_geom_angle_atom_site_label_3
_geom_angle
_geom_angle_site_symmetry_1
_geom_angle_site_symmetry_3
_geom_angle_publ_flag
Ga1 Ho1 Ga1 120.0 76_554 . ?
Ga1 Ho1 Ga1 180.0 76_554 4_556 ?
Ga1 Ho1 Ga1 60.0 . 4_556 ?
Ga1 Ho1 Ga1 60.0 76_554 73 ?
Ga1 Ho1 Ga1 180.0 . 73 ?
Ga1 Ho1 Ga1 120.0 4_556 73 ?
Ga1 Ho1 Ga1 120.0 76_554 3_565 ?
Ga1 Ho1 Ga1 120.0 . 3_565 ?
Ga1 Ho1 Ga1 60.0 4_556 3_565 ?
Ga1 Ho1 Ga1 60.0 73 3_565 ?
Ga1 Ho1 Ga1 60.0 76_554 75_545 ?
Ga1 Ho1 Ga1 60.0 . 75_545 ?
Ga1 Ho1 Ga1 120.0 4_556 75_545 ?
Ga1 Ho1 Ga1 120.0 73 75_545 ?
Ga1 Ho1 Ga1 180.0 3_565 75_545 ?
Ga1 Ho1 Ga2 55.90(6) 76_554 . ?
Ga1 Ho1 Ga2 90.0 . . ?
Ga1 Ho1 Ga2 124.10(6) 4_556 . ?
Ga1 Ho1 Ga2 90.0 73 . ?
Ga1 Ho1 Ga2 124.10(6) 3_565 . ?
Ga1 Ho1 Ga2 55.90(6) 75_545 . ?
Ga1 Ho1 Ga2 90.0 76_554 76 ?
Ga1 Ho1 Ga2 55.90(6) . 76 ?
Ga1 Ho1 Ga2 90.0 4_556 76 ?
Ga1 Ho1 Ga2 124.10(6) 73 76 ?
Ga1 Ho1 Ga2 124.10(6) 3_565 76 ?
Ga1 Ho1 Ga2 55.90(6) 75_545 76 ?
Ga2 Ho1 Ga2 111.81(11) . 76 ?
Ga1 Ho1 Ga2 124.10(6) 76_554 73 ?
Ga1 Ho1 Ga2 90.0 . 73 ?
Ga1 Ho1 Ga2 55.90(6) 4_556 73 ?
Ga1 Ho1 Ga2 90.0 73 73 ?
Ga1 Ho1 Ga2 55.90(6) 3_565 73 ?
Ga1 Ho1 Ga2 124.10(6) 75_545 73 ?
Ga2 Ho1 Ga2 180.0 . 73 ?
Ga2 Ho1 Ga2 68.19(11) 76 73 ?
Ga1 Ho1 Ga2 124.10(6) 76_554 3 ?
Ga1 Ho1 Ga2 55.90(6) . 3 ?
Ga1 Ho1 Ga2 55.90(6) 4_556 3 ?
Ga1 Ho1 Ga2 124.10(6) 73 3 ?
Ga1 Ho1 Ga2 90.0 3_565 3 ?
Ga1 Ho1 Ga2 90.0 75_545 3 ?
Ga2 Ho1 Ga2 68.19(11) . 3 ?
Ga2 Ho1 Ga2 111.81(11) 76 3 ?
Ga2 Ho1 Ga2 111.81(11) 73 3 ?
Ga1 Ho1 Ga2 55.90(6) 76_554 75 ?
Ga1 Ho1 Ga2 124.10(6) . 75 ?
Ga1 Ho1 Ga2 124.10(6) 4_556 75 ?
Ga1 Ho1 Ga2 55.90(6) 73 75 ?
Ga1 Ho1 Ga2 90.0 3_565 75 ?
Ga1 Ho1 Ga2 90.0 75_545 75 ?
Ga2 Ho1 Ga2 111.81(11) . 75 ?
Ga2 Ho1 Ga2 68.19(11) 76 75 ?
Ga2 Ho1 Ga2 68.19(11) 73 75 ?
Ga2 Ho1 Ga2 180.0 3 75 ?
Ga1 Ho1 Ga2 90.0 76_554 4 ?
Ga1 Ho1 Ga2 124.10(6) . 4 ?
Ga1 Ho1 Ga2 90.0 4_556 4 ?
Ga1 Ho1 Ga2 55.90(6) 73 4 ?
Ga1 Ho1 Ga2 55.90(6) 3_565 4 ?
Ga1 Ho1 Ga2 124.10(6) 75_545 4 ?
Ga2 Ho1 Ga2 68.19(11) . 4 ?
Ga2 Ho1 Ga2 180.0 76 4 ?
Ga2 Ho1 Ga2 111.81(11) 73 4 ?
Ga2 Ho1 Ga2 68.19(11) 3 4 ?
Ga2 Ho1 Ga2 111.81(11) 75 4 ?
Ga2 Fe1 Ga2 90.0 . 52 ?
Ga2 Fe1 Ga2 180.0 . 49 ?
Ga2 Fe1 Ga2 90.0 52 49 ?
Ga2 Fe1 Ga2 90.0 . 3 ?
Ga2 Fe1 Ga2 90.0 52 3 ?
Ga2 Fe1 Ga2 90.0 49 3 ?
Ga2 Fe1 Ga2 90.0 . 51 ?
Ga2 Fe1 Ga2 90.0 52 51 ?
Ga2 Fe1 Ga2 90.0 49 51 ?
Ga2 Fe1 Ga2 180.0 3 51 ?
Ga2 Fe1 Ga2 90.0 . 4 ?
Ga2 Fe1 Ga2 180.0 52 4 ?
Ga2 Fe1 Ga2 90.0 49 4 ?
Ga2 Fe1 Ga2 90.0 3 4 ?
Ga2 Fe1 Ga2 90.0 51 4 ?
Ga2 Ga1 Ga2 124.52(7) 76 3 ?
Ga2 Ga1 Ga2 82.33(11) 76 28_545 ?
Ga2 Ga1 Ga2 124.52(7) 3 28_545 ?
Ga2 Ga1 Ga2 124.52(7) 76 51_556 ?
Ga2 Ga1 Ga2 82.33(11) 3 51_556 ?
Ga2 Ga1 Ga2 124.52(7) 28_545 51_556 ?
Ga2 Ga1 Ho1 62.26(3) 76 4_556 ?
Ga2 Ga1 Ho1 117.74(3) 3 4_556 ?
Ga2 Ga1 Ho1 117.74(3) 28_545 4_556 ?
Ga2 Ga1 Ho1 62.26(3) 51_556 4_556 ?
Ga2 Ga1 Ga1 57.84(3) 76 27 ?
Ga2 Ga1 Ga1 176.17(6) 3 27 ?
Ga2 Ga1 Ga1 57.84(3) 28_545 27 ?
Ga2 Ga1 Ga1 93.83(6) 51_556 27 ?
Ho1 Ga1 Ga1 60.0 4_556 27 ?
Ga2 Ga1 Ho1 117.74(3) 76 3 ?
Ga2 Ga1 Ho1 62.26(3) 3 3 ?
Ga2 Ga1 Ho1 62.26(3) 28_545 3 ?
Ga2 Ga1 Ho1 117.74(3) 51_556 3 ?
Ho1 Ga1 Ho1 180.0 4_556 3 ?
Ga1 Ga1 Ho1 120.0 27 3 ?
Ga2 Ga1 Ga1 176.17(6) 76 52 ?
Ga2 Ga1 Ga1 57.84(3) 3 52 ?
Ga2 Ga1 Ga1 93.83(6) 28_545 52 ?
Ga2 Ga1 Ga1 57.84(3) 51_556 52 ?
Ho1 Ga1 Ga1 120.0 4_556 52 ?
Ga1 Ga1 Ga1 120.0 27 52 ?
Ho1 Ga1 Ga1 60.0 3 52 ?
Ga2 Ga1 Ho1 62.26(3) 76 . ?
Ga2 Ga1 Ho1 62.26(3) 3 . ?
Ga2 Ga1 Ho1 117.74(3) 28_545 . ?
Ga2 Ga1 Ho1 117.74(3) 51_556 . ?
Ho1 Ga1 Ho1 90.0 4_556 . ?
Ga1 Ga1 Ho1 120.0 27 . ?
Ho1 Ga1 Ho1 90.0 3 . ?
Ga1 Ga1 Ho1 120.0 52 . ?
Ga2 Ga1 Ga1 93.83(6) 76 4_556 ?
Ga2 Ga1 Ga1 57.84(3) 3 4_556 ?
Ga2 Ga1 Ga1 176.17(6) 28_545 4_556 ?
Ga2 Ga1 Ga1 57.84(3) 51_556 4_556 ?
Ho1 Ga1 Ga1 60.0 4_556 4_556 ?
Ga1 Ga1 Ga1 120.0 27 4_556 ?
Ho1 Ga1 Ga1 120.0 3 4_556 ?
Ga1 Ga1 Ga1 90.0 52 4_556 ?
Ho1 Ga1 Ga1 60.0 . 4_556 ?
Ga2 Ga1 Ho1 117.74(3) 76 30_545 ?
Ga2 Ga1 Ho1 117.74(3) 3 30_545 ?
Ga2 Ga1 Ho1 62.26(3) 28_545 30_545 ?
Ga2 Ga1 Ho1 62.26(3) 51_556 30_545 ?
Ho1 Ga1 Ho1 90.0 4_556 30_545 ?
Ga1 Ga1 Ho1 60.0 27 30_545 ?
Ho1 Ga1 Ho1 90.0 3 30_545 ?
Ga1 Ga1 Ho1 60.0 52 30_545 ?
Ho1 Ga1 Ho1 180.0 . 30_545 ?
Ga1 Ga1 Ho1 120.0 4_556 30_545 ?
Ga2 Ga1 Ga1 57.84(3) 76 75_545 ?
Ga2 Ga1 Ga1 93.83(6) 3 75_545 ?
Ga2 Ga1 Ga1 57.84(3) 28_545 75_545 ?
Ga2 Ga1 Ga1 176.17(6) 51_556 75_545 ?
Ho1 Ga1 Ga1 120.0 4_556 75_545 ?
Ga1 Ga1 Ga1 90.0 27 75_545 ?
Ho1 Ga1 Ga1 60.0 3 75_545 ?
Ga1 Ga1 Ga1 120.0 52 75_545 ?
Ho1 Ga1 Ga1 60.0 . 75_545 ?
Ga1 Ga1 Ga1 120.0 4_556 75_545 ?
Ho1 Ga1 Ga1 120.0 30_545 75_545 ?
Fe1 Ga2 Ga1 131.17(6) . 76_554 ?
Fe1 Ga2 Ga1 131.17(6) . 75_545 ?
Ga1 Ga2 Ga1 64.32(6) 76_554 75_545 ?
Fe1 Ga2 Ga1 131.17(6) . 28_545 ?
Ga1 Ga2 Ga1 97.67(11) 76_554 28_545 ?
Ga1 Ga2 Ga1 64.32(6) 75_545 28_545 ?
Fe1 Ga2 Ga1 131.17(6) . 27_554 ?
Ga1 Ga2 Ga1 64.32(6) 76_554 27_554 ?
Ga1 Ga2 Ga1 97.67(11) 75_545 27_554 ?
Ga1 Ga2 Ga1 64.32(6) 28_545 27_554 ?
Fe1 Ga2 Ho1 84.93(7) . 30_544 ?
Ga1 Ga2 Ho1 126.05(8) 76_554 30_544 ?
Ga1 Ga2 Ho1 126.05(8) 75_545 30_544 ?
Ga1 Ga2 Ho1 61.84(2) 28_545 30_544 ?
Ga1 Ga2 Ho1 61.84(2) 27_554 30_544 ?
Fe1 Ga2 Ho1 84.93(7) . . ?
Ga1 Ga2 Ho1 61.84(2) 76_554 . ?
Ga1 Ga2 Ho1 61.84(2) 75_545 . ?
Ga1 Ga2 Ho1 126.05(8) 28_545 . ?
Ga1 Ga2 Ho1 126.05(8) 27_554 . ?
Ho1 Ga2 Ho1 169.85(14) 30_544 . ?
Fe1 Ga2 Ho1 84.93(7) . 3 ?
Ga1 Ga2 Ho1 126.05(8) 76_554 3 ?
Ga1 Ga2 Ho1 61.84(2) 75_545 3 ?
Ga1 Ga2 Ho1 61.84(2) 28_545 3 ?
Ga1 Ga2 Ho1 126.05(8) 27_554 3 ?
Ho1 Ga2 Ho1 89.552(13) 30_544 3 ?
Ho1 Ga2 Ho1 89.552(13) . 3 ?
Fe1 Ga2 Ho1 84.93(7) . 4 ?
Ga1 Ga2 Ho1 61.84(2) 76_554 4 ?
Ga1 Ga2 Ho1 126.05(8) 75_545 4 ?
Ga1 Ga2 Ho1 126.05(8) 28_545 4 ?
Ga1 Ga2 Ho1 61.84(2) 27_554 4 ?
Ho1 Ga2 Ho1 89.552(13) 30_544 4 ?
Ho1 Ga2 Ho1 89.552(13) . 4 ?
Ho1 Ga2 Ho1 169.85(14) 3 4 ?
loop_
_geom_bond_atom_site_label_1
_geom_bond_atom_site_label_2
_geom_bond_distance
_geom_bond_site_symmetry_2
_geom_bond_publ_flag
Ho1 Ga1 3.00803(11) 76_554 ?
Ho1 Ga1 3.00803(11) . ?
Ho1 Ga1 3.00803(11) 4_556 ?
Ho1 Ga1 3.00803(11) 73 ?
Ho1 Ga1 3.00803(11) 3_565 ?
Ho1 Ga1 3.00803(11) 75_545 ?
Ho1 Ga2 3.0199(3) . ?
Ho1 Ga2 3.0199(4) 76 ?
Ho1 Ga2 3.0199(4) 73 ?
Ho1 Ga2 3.0199(4) 3 ?
Ho1 Ga2 3.0199(4) 75 ?
Ho1 Ga2 3.0199(4) 4 ?
Fe1 Ga2 2.394(4) . ?
Fe1 Ga2 2.394(4) 52 ?
Fe1 Ga2 2.394(4) 49 ?
Fe1 Ga2 2.394(4) 3 ?
Fe1 Ga2 2.394(4) 51 ?
Fe1 Ga2 2.394(4) 4 ?
Ga1 Ga2 2.825(2) 76 ?
Ga1 Ga2 2.825(2) 3 ?
Ga1 Ga2 2.825(2) 28_545 ?
Ga1 Ga2 2.825(2) 51_556 ?
Ga1 Ho1 3.00803(11) 4_556 ?
Ga1 Ga1 3.00803(11) 27 ?
Ga1 Ho1 3.00803(11) 3 ?
Ga1 Ga1 3.00803(11) 52 ?
Ga1 Ga1 3.00803(11) 4_556 ?
Ga1 Ho1 3.00803(11) 30_545 ?
Ga1 Ga1 3.00803(11) 75_545 ?
Ga2 Ga1 2.825(2) 76_554 ?
Ga2 Ga1 2.825(2) 75_545 ?
Ga2 Ga1 2.825(2) 28_545 ?
Ga2 Ga1 2.825(2) 27_554 ?
Ga2 Ho1 3.0199(4) 30_544 ?
Ga2 Ho1 3.0199(4) 3 ?
Ga2 Ho1 3.0199(4) 4 ?
