#------------------------------------------------------------------------------
#$Date: 2016-02-16 22:30:59 +0200 (Tue, 16 Feb 2016) $
#$Revision: 176467 $
#$URL: svn://www.crystallography.net/cod/cif/4/31/56/4315696.cif $
#------------------------------------------------------------------------------
#
# This file is available in the Crystallography Open Database (COD),
# http://www.crystallography.net/
#
# All data on this site have been placed in the public domain by the
# contributors.
#
data_4315696
loop_
_publ_author_name
'Ralph A. Zehnder'
'David L. Clark'
'Brian L. Scott'
'Robert J. Donohoe'
'Phillip D. Palmer'
'Wolfgang H. Runde'
'David E. Hobart'
_publ_section_title
;
 Investigation of the Structural Properties of an Extended Series of
 Lanthanide Bis-hydroxychlorides Ln(OH)2Cl (Ln = Nd-Lu, except Pm and Sm)
;
_journal_name_full               'Inorganic Chemistry'
_journal_page_first              4781
_journal_page_last               4790
_journal_paper_doi               10.1021/ic901617c
_journal_volume                  49
_journal_year                    2010
_chemical_formula_sum            'Cl Er H2 O2'
_chemical_formula_weight         236.73
_chemical_name_systematic
; 
 ? 
;
_space_group_IT_number           11
_symmetry_cell_setting           monoclinic
_symmetry_space_group_name_Hall  '-P 2yb'
_symmetry_space_group_name_H-M   'P 1 21/m 1'
_atom_sites_solution_hydrogens   geom
_atom_sites_solution_primary     direct
_atom_sites_solution_secondary   difmap
_audit_creation_method           SHELXL-97
_cell_angle_alpha                90.00
_cell_angle_beta                 106.277(4)
_cell_angle_gamma                90.00
_cell_formula_units_Z            2
_cell_length_a                   6.239(3)
_cell_length_b                   3.6085(15)
_cell_length_c                   6.620(3)
_cell_measurement_temperature    140(1)
_cell_volume                     143.07(11)
_computing_cell_refinement       'SAINT+, v. 7.06 (Bruker AXS, 2001)'
_computing_data_collection       'APEX II, v. 1.08 (Bruker AXS, 2003)'
_computing_data_reduction        'SAINT+, v. 7.06 (Bruker AXS, 2001)'
_computing_molecular_graphics    'SHELXTL, v. 6.10, (Bruker AXS, 2000)'
_computing_publication_material  'SHELXTL, v. 6.10, (Bruker AXS, 2000)'
_computing_structure_refinement  'SHELXL-97 (Sheldrick, 1997)'
_computing_structure_solution    'SHELXS-97 (Sheldrick, 1990)'
_diffrn_ambient_temperature      140(1)
_diffrn_measured_fraction_theta_full 0.990
_diffrn_measured_fraction_theta_max 0.958
_diffrn_measurement_device_type  'Bruker D8 with APEXII CCD'
_diffrn_measurement_method       '\w scans'
_diffrn_radiation_monochromator  graphite
_diffrn_radiation_source         'fine-focus sealed tube'
_diffrn_radiation_type           MoK\a
_diffrn_radiation_wavelength     0.71073
_diffrn_reflns_av_R_equivalents  0.0366
_diffrn_reflns_av_sigmaI/netI    0.0347
_diffrn_reflns_limit_h_max       8
_diffrn_reflns_limit_h_min       -8
_diffrn_reflns_limit_k_max       4
_diffrn_reflns_limit_k_min       -4
_diffrn_reflns_limit_l_max       8
_diffrn_reflns_limit_l_min       -8
_diffrn_reflns_number            1335
_diffrn_reflns_theta_full        25.00
_diffrn_reflns_theta_max         28.14
_diffrn_reflns_theta_min         3.21
_diffrn_standards_decay_%        0
_diffrn_standards_interval_count 0
_diffrn_standards_interval_time  0
_diffrn_standards_number         0
_exptl_absorpt_coefficient_mu    29.977
_exptl_absorpt_correction_T_max  0.5855
_exptl_absorpt_correction_T_min  0.1234
_exptl_absorpt_correction_type   multi-scan
_exptl_absorpt_process_details   'SADABS 2.03 (Sheldrick, 2001)'
_exptl_crystal_colour            pink
_exptl_crystal_density_diffrn    5.495
_exptl_crystal_density_method    'not measured'
_exptl_crystal_description       needle
_exptl_crystal_F_000             206
_exptl_crystal_size_max          0.12
_exptl_crystal_size_mid          0.02
_exptl_crystal_size_min          0.02
_refine_diff_density_max         2.116
_refine_diff_density_min         -2.304
_refine_diff_density_rms         0.394
_refine_ls_extinction_method     none
_refine_ls_goodness_of_fit_ref   1.032
_refine_ls_hydrogen_treatment    constr
_refine_ls_matrix_type           full
_refine_ls_number_parameters     25
_refine_ls_number_reflns         386
_refine_ls_number_restraints     0
_refine_ls_restrained_S_all      1.032
_refine_ls_R_factor_all          0.0269
_refine_ls_R_factor_gt           0.0242
_refine_ls_shift/su_max          0.000
_refine_ls_shift/su_mean         0.000
_refine_ls_structure_factor_coef Fsqd
_refine_ls_weighting_details
'calc w=1/[\s^2^(Fo^2^)+(0.0358P)^2^+0.0000P] where P=(Fo^2^+2Fc^2^)/3'
_refine_ls_weighting_scheme      calc
_refine_ls_wR_factor_gt          0.0557
_refine_ls_wR_factor_ref         0.0562
_reflns_number_gt                347
_reflns_number_total             386
_reflns_threshold_expression     >2sigma(I)
_cod_data_source_file            ic901617c_si_007_07.cif
_cod_data_source_block           apx204
_cod_original_cell_volume        143.07(10)
_cod_original_sg_symbol_H-M      'P 21/m'
_cod_original_formula_sum        'H2 Cl Er O2'
_cod_database_code               4315696
loop_
_symmetry_equiv_pos_as_xyz
'x, y, z'
'-x, y+1/2, -z'
'-x, -y, -z'
'x, -y-1/2, z'
loop_
_atom_site_label
_atom_site_type_symbol
_atom_site_fract_x
_atom_site_fract_y
_atom_site_fract_z
_atom_site_U_iso_or_equiv
_atom_site_adp_type
_atom_site_occupancy
_atom_site_symmetry_multiplicity
_atom_site_calc_flag
_atom_site_refinement_flags
_atom_site_disorder_assembly
_atom_site_disorder_group
Er1 Er 0.28392(6) 0.2500 0.11139(6) 0.00632(17) Uani 1 2 d S . .
Cl1 Cl 0.2312(3) 0.7500 0.4264(4) 0.0092(5) Uani 1 2 d S . .
O1 O 0.1063(10) 0.7500 -0.0913(11) 0.0089(14) Uani 1 2 d S . .
H1 H 0.1304 0.7500 -0.2314 0.011 Uiso 1 2 calc SR . .
O2 O 0.5479(10) 0.7500 0.1612(10) 0.0075(14) Uani 1 2 d S . .
H2 H 0.6557 0.7500 0.3010 0.009 Uiso 1 2 calc SR . .
loop_
_atom_site_aniso_label
_atom_site_aniso_U_11
_atom_site_aniso_U_22
_atom_site_aniso_U_33
_atom_site_aniso_U_23
_atom_site_aniso_U_13
_atom_site_aniso_U_12
Er1 0.0047(2) 0.0071(3) 0.0086(3) 0.000 0.00437(17) 0.000
Cl1 0.0102(11) 0.0095(12) 0.0097(11) 0.000 0.0056(9) 0.000
O1 0.007(3) 0.012(4) 0.008(3) 0.000 0.002(3) 0.000
O2 0.006(3) 0.009(4) 0.010(3) 0.000 0.007(3) 0.000
loop_
_atom_type_symbol
_atom_type_description
_atom_type_scat_dispersion_real
_atom_type_scat_dispersion_imag
_atom_type_scat_source
O O 0.0106 0.0060 'International Tables Vol C Tables 4.2.6.8 and 6.1.1.4'
H H 0.0000 0.0000 'International Tables Vol C Tables 4.2.6.8 and 6.1.1.4'
Cl Cl 0.1484 0.1585 'International Tables Vol C Tables 4.2.6.8 and 6.1.1.4'
Er Er -0.2586 4.9576 'International Tables Vol C Tables 4.2.6.8 and 6.1.1.4'
loop_
_geom_angle_atom_site_label_1
_geom_angle_atom_site_label_2
_geom_angle_atom_site_label_3
_geom_angle
_geom_angle_site_symmetry_1
_geom_angle_site_symmetry_3
_geom_angle_publ_flag
O2 Er1 O1 78.40(18) 3_665 1_545 ?
O2 Er1 O1 78.40(18) 3_665 . ?
O1 Er1 O1 101.2(3) 1_545 . ?
O2 Er1 O2 70.5(2) 3_665 . ?
O1 Er1 O2 148.9(2) 1_545 . ?
O1 Er1 O2 72.25(18) . . ?
O2 Er1 O2 70.5(2) 3_665 1_545 ?
O1 Er1 O2 72.25(18) 1_545 1_545 ?
O1 Er1 O2 148.9(2) . 1_545 ?
O2 Er1 O2 97.4(2) . 1_545 ?
O2 Er1 O1 128.9(2) 3_665 3_565 ?
O1 Er1 O1 69.98(19) 1_545 3_565 ?
O1 Er1 O1 69.98(19) . 3_565 ?
O2 Er1 O1 130.77(11) . 3_565 ?
O2 Er1 O1 130.77(11) 1_545 3_565 ?
O2 Er1 Cl1 137.56(6) 3_665 . ?
O1 Er1 Cl1 141.03(16) 1_545 . ?
O1 Er1 Cl1 78.32(15) . . ?
O2 Er1 Cl1 68.82(14) . . ?
O2 Er1 Cl1 126.24(16) 1_545 . ?
O1 Er1 Cl1 73.55(13) 3_565 . ?
O2 Er1 Cl1 137.56(6) 3_665 1_545 ?
O1 Er1 Cl1 78.32(15) 1_545 1_545 ?
O1 Er1 Cl1 141.03(16) . 1_545 ?
O2 Er1 Cl1 126.24(16) . 1_545 ?
O2 Er1 Cl1 68.82(14) 1_545 1_545 ?
O1 Er1 Cl1 73.55(13) 3_565 1_545 ?
Cl1 Er1 Cl1 78.70(7) . 1_545 ?
O2 Er1 Er1 90.0 3_665 1_565 ?
O1 Er1 Er1 140.61(13) 1_545 1_565 ?
O1 Er1 Er1 39.39(13) . 1_565 ?
O2 Er1 Er1 41.32(11) . 1_565 ?
O2 Er1 Er1 138.68(11) 1_545 1_565 ?
O1 Er1 Er1 90.000(1) 3_565 1_565 ?
Cl1 Er1 Er1 50.65(3) . 1_565 ?
Cl1 Er1 Er1 129.35(3) 1_545 1_565 ?
O2 Er1 Er1 90.0 3_665 1_545 ?
O1 Er1 Er1 39.39(13) 1_545 1_545 ?
O1 Er1 Er1 140.61(13) . 1_545 ?
O2 Er1 Er1 138.68(11) . 1_545 ?
O2 Er1 Er1 41.32(11) 1_545 1_545 ?
O1 Er1 Er1 90.0 3_565 1_545 ?
Cl1 Er1 Er1 129.35(3) . 1_545 ?
Cl1 Er1 Er1 50.65(3) 1_545 1_545 ?
Er1 Er1 Er1 180.0 1_565 1_545 ?
O2 Er1 Er1 35.87(10) 3_665 3_665 ?
O1 Er1 Er1 114.27(16) 1_545 3_665 ?
O1 Er1 Er1 71.90(15) . 3_665 ?
O2 Er1 Er1 34.61(15) . 3_665 ?
O2 Er1 Er1 83.01(12) 1_545 3_665 ?
O1 Er1 Er1 141.65(11) 3_565 3_665 ?
Cl1 Er1 Er1 102.71(4) . 3_665 ?
Cl1 Er1 Er1 144.31(5) 1_545 3_665 ?
Er1 Er1 Er1 62.164(13) 1_565 3_665 ?
Er1 Er1 Er1 117.836(13) 1_545 3_665 ?
O2 Er1 Er1 35.87(10) 3_665 3_655 ?
O1 Er1 Er1 71.90(15) 1_545 3_655 ?
O1 Er1 Er1 114.27(16) . 3_655 ?
O2 Er1 Er1 83.01(12) . 3_655 ?
O2 Er1 Er1 34.60(15) 1_545 3_655 ?
O1 Er1 Er1 141.65(11) 3_565 3_655 ?
Cl1 Er1 Er1 144.31(5) . 3_655 ?
Cl1 Er1 Er1 102.71(4) 1_545 3_655 ?
Er1 Er1 Er1 117.836(13) 1_565 3_655 ?
Er1 Er1 Er1 62.164(13) 1_545 3_655 ?
Er1 Er1 Er1 55.67(3) 3_665 3_655 ?
Er1 Cl1 Er1 78.70(7) 1_565 . ?
Er1 O1 Er1 101.2(3) . 1_565 ?
Er1 O1 Er1 110.02(19) . 3_565 ?
Er1 O1 Er1 110.02(19) 1_565 3_565 ?
Er1 O2 Er1 109.5(2) 3_665 1_565 ?
Er1 O2 Er1 109.5(2) 3_665 . ?
Er1 O2 Er1 97.4(2) 1_565 . ?
loop_
_geom_bond_atom_site_label_1
_geom_bond_atom_site_label_2
_geom_bond_distance
_geom_bond_site_symmetry_2
_geom_bond_publ_flag
Er1 O2 2.328(6) 3_665 ?
Er1 O1 2.335(4) 1_545 ?
Er1 O1 2.335(4) . ?
Er1 O2 2.402(4) . ?
Er1 O2 2.402(4) 1_545 ?
Er1 O1 2.401(6) 3_565 ?
Er1 Cl1 2.8455(19) . ?
Er1 Cl1 2.8455(19) 1_545 ?
Er1 Er1 3.6085(15) 1_565 ?
Er1 Er1 3.6085(15) 1_545 ?
Er1 Er1 3.8640(12) 3_665 ?
Er1 Er1 3.8640(12) 3_655 ?
Cl1 Er1 2.8455(19) 1_565 ?
O1 Er1 2.335(4) 1_565 ?
O1 Er1 2.401(6) 3_565 ?
O2 Er1 2.328(6) 3_665 ?
O2 Er1 2.402(4) 1_565 ?
