#------------------------------------------------------------------------------
#$Date: 2016-03-23 03:13:37 +0200 (Wed, 23 Mar 2016) $
#$Revision: 179236 $
#$URL: svn://www.crystallography.net/cod/cif/4/31/56/4315654.cif $
#------------------------------------------------------------------------------
#
# This file is available in the Crystallography Open Database (COD),
# http://www.crystallography.net/
#
# All data on this site have been placed in the public domain by the
# contributors.
#
data_4315654
loop_
_publ_author_name
'Yaroslav Filinchuk'
'Alexandr V. Talyzin'
'Hans Hagemann'
'Vladimir Dmitriev'
'Dmitry Chernyshov'
'Bertil Sundqvist'
_publ_section_title
;
 Cation Size and Anion Anisotropy in Structural Chemistry of Metal
 Borohydrides. The Peculiar Pressure Evolution of RbBH4
;
_journal_name_full               'Inorganic Chemistry'
_journal_page_first              5285
_journal_page_last               5292
_journal_paper_doi               10.1021/ic100359v
_journal_volume                  49
_journal_year                    2010
_chemical_formula_sum            'B H4 Rb'
_chemical_formula_weight         100.3094
_chemical_name_systematic        ' ?'
_space_group_IT_number           21
_symmetry_cell_setting           orthorhombic
_symmetry_space_group_name_Hall  'C 2 2'
_symmetry_space_group_name_H-M   'C 2 2 2'
_cell_angle_alpha                90.00000
_cell_angle_beta                 90.00000
_cell_angle_gamma                90.00000
_cell_formula_units_Z            2
_cell_length_a                   5.3679(6)
_cell_length_b                   5.1343(14)
_cell_length_c                   3.9098(3)
_cell_volume                     107.76(3)
_computing_structure_refinement  FULLPROF
_diffrn_ambient_temperature      295
_diffrn_detector_area_resol_mean 6.67
_diffrn_measurement_device_type  'MAR345 Image plate'
_diffrn_measurement_method       \f-scan
_diffrn_radiation_monochromator  'Si (111)'
_diffrn_radiation_source         'Beamline BM1A, SNBL, ESRF, Grenoble, France'
_diffrn_radiation_type           synchrotron
_diffrn_radiation_wavelength     0.722870
_pd_char_colour                  white
_pd_instr_location               ' ?'
_pd_meas_2theta_range_inc        0.031050
_pd_meas_2theta_range_max        41.34095
_pd_meas_2theta_range_min        3.18007
_pd_meas_number_of_points        1231
_pd_proc_2theta_range_inc        0.031050
_pd_proc_2theta_range_max        41.3663
_pd_proc_2theta_range_min        3.2055
_pd_proc_ls_pref_orient_corr     ' ?'
_pd_proc_ls_prof_R_factor        0.6664
_pd_proc_ls_prof_wR_expected     0.0369
_pd_proc_ls_prof_wR_factor       1.0530
_pd_proc_wavelength              0.722870
_pd_spec_mounting                ' ?'
_refine_ls_hydrogen_treatment    constr
_refine_ls_number_parameters     12
_refine_ls_number_reflns         72
_refine_ls_number_restraints     4
_refine_ls_R_I_factor            5.8354
_cod_data_source_file            ic100359v_si_001_3.cif
_cod_data_source_block           3_HP2
_cod_depositor_comments
;
The following automatic conversions were performed:

'_symmetry_cell_setting' value 'Orthorhombic' changed to
'orthorhombic' according to the built-in table from CIF Core
dictionary named 'cif_core.dic' version 2.4.1 from 2010-06-29.

Automatic conversion script
Id: cif_fix_values 1646 2011-03-28 12:23:43Z adriana 
;
_cod_database_code               4315654
#BEGIN Tags that were not found in dictionaries:
_pd_proc_ls_prof_cr_factor       13.7428
_pd_proc_ls_prof_cwr_factor      10.9178
_pd_proc_ls_prof_cwr_expected    0.3824
_pd_proc_ls_prof_chi2            815.2296
_pd_proc_ls_prof_echi2           878.8807
#END Tags that were not found in dictionaries
loop_
_symmetry_equiv_pos_as_xyz
x,y,z
x,-y,-z
-x,y,-z
-x,-y,z
x+1/2,y+1/2,z
x+1/2,-y+1/2,-z
-x+1/2,y+1/2,-z
-x+1/2,-y+1/2,z
loop_
_atom_site_label
_atom_site_fract_x
_atom_site_fract_y
_atom_site_fract_z
_atom_site_U_iso_or_equiv
_atom_site_occupancy
_atom_site_adp_type
_atom_site_type_symbol
Rb 0.00000 0.00000 0.00000 0.037(3) 1.00000 Uani Rb
B 0.50000 0.00000 0.50000 0.051(6) 1.00000 Uiso B
H 0.38000 0.12100 0.32700 0.076(6) 1.00000 Uiso H
loop_
_atom_site_aniso_label
_atom_site_aniso_U_11
_atom_site_aniso_U_22
_atom_site_aniso_U_33
_atom_site_aniso_U_12
_atom_site_aniso_U_13
_atom_site_aniso_U_23
_atom_site_aniso_type_symbol
Rb 0.0306(15) 0.059(6) 0.0225(14) 0.00000 0.00000 0.00000 Rb
loop_
_atom_type_symbol
_atom_type_scat_Cromer_Mann_a1
_atom_type_scat_Cromer_Mann_b1
_atom_type_scat_Cromer_Mann_a2
_atom_type_scat_Cromer_Mann_b2
_atom_type_scat_Cromer_Mann_a3
_atom_type_scat_Cromer_Mann_b3
_atom_type_scat_Cromer_Mann_a4
_atom_type_scat_Cromer_Mann_b4
_atom_type_scat_Cromer_Mann_c
_atom_type_scat_dispersion_real
_atom_type_scat_dispersion_imag
_atom_type_scat_source
Rb 17.17840 1.78880 9.64350 17.31510 5.13990 0.27480 1.52920 164.93399 3.48730
-1.04400 2.97300
International_Tables_for_Crystallography_Vol.C(1991)_Tables_6.1.1.4_and_6.1.1.5
B 2.05450 23.21850 1.33260 1.02100 1.09790 60.34980 0.70680 0.14030 -0.19320
0.00000 0.00100
International_Tables_for_Crystallography_Vol.C(1991)_Tables_6.1.1.4_and_6.1.1.5
H 0.49300 10.51090 0.32291 26.12570 0.14019 3.14236 0.04081 57.79970 0.00304
0.00000 0.00000
International_Tables_for_Crystallography_Vol.C(1991)_Tables_6.1.1.4_and_6.1.1.5
loop_
_geom_angle_atom_site_label_1
_geom_angle_atom_site_label_2
_geom_angle_atom_site_label_3
_geom_angle_site_symmetry_1
_geom_angle_site_symmetry_2
_geom_angle_site_symmetry_3
_geom_angle
_geom_angle_publ_flag
? ? ? ? ? ? ? ?
loop_
_geom_bond_atom_site_label_1
_geom_bond_atom_site_label_2
_geom_bond_site_symmetry_1
_geom_bond_site_symmetry_2
_geom_bond_distance
_geom_bond_publ_flag
? ? ? ? ? ?
loop_
_geom_contact_atom_site_label_1
_geom_contact_atom_site_label_2
_geom_contact_distance
_geom_contact_site_symmetry_1
_geom_contact_site_symmetry_2
_geom_contact_publ_flag
? ? ? ? ? ?
loop_
_geom_hbond_atom_site_label_D
_geom_hbond_atom_site_label_H
_geom_hbond_atom_site_label_A
_geom_hbond_site_symmetry_D
_geom_hbond_site_symmetry_H
_geom_hbond_site_symmetry_A
_geom_hbond_distance_DH
_geom_hbond_distance_HA
_geom_hbond_distance_DA
_geom_hbond_angle_DHA
_geom_hbond_publ_flag
? ? ? ? ? ? ? ? ? ? ?
loop_
_geom_torsion_atom_site_label_1
_geom_torsion_atom_site_label_2
_geom_torsion_atom_site_label_3
_geom_torsion_atom_site_label_4
_geom_torsion_site_symmetry_1
_geom_torsion_site_symmetry_2
_geom_torsion_site_symmetry_3
_geom_torsion_site_symmetry_4
_geom_torsion
_geom_torsion_publ_flag
? ? ? ? ? ? ? ? ? ?
