#------------------------------------------------------------------------------
#$Date: 2016-03-23 03:36:24 +0200 (Wed, 23 Mar 2016) $
#$Revision: 179253 $
#$URL: svn://www.crystallography.net/cod/cif/4/31/73/4317323.cif $
#------------------------------------------------------------------------------
#
# This file is available in the Crystallography Open Database (COD),
# http://www.crystallography.net/
#
# All data on this site have been placed in the public domain by the
# contributors.
#
data_4317323
loop_
_publ_author_name
'Hyunjin Ko'
'Olivier Gourdon'
'Delphine Gout'
'Eun-Deok Mun'
'Srinivasa Thimmaiah'
'Gordon J. Miller'
_publ_section_title
;
 Rhombohedrally Distorted \g-Brasses Cr1-xFexGa
;
_journal_name_full               'Inorganic Chemistry'
_journal_page_first              11505
_journal_page_last               11515
_journal_paper_doi               10.1021/ic101671k
_journal_volume                  49
_journal_year                    2010
_chemical_formula_sum            'Cr0.63 Fe0.37 Ga'
_chemical_formula_weight         123.15
_chemical_melting_point          ?
_chemical_name_systematic
; 
 ? 
;
_space_group_IT_number           166
_symmetry_cell_setting           hexagonal
_symmetry_space_group_name_Hall  '-R 3 2"'
_symmetry_space_group_name_H-M   'R -3 m :H'
_atom_sites_solution_hydrogens   none
_atom_sites_solution_primary     direct
_atom_sites_solution_secondary   difmap
_audit_creation_method           SHELXL-97
_cell_angle_alpha                90.00
_cell_angle_beta                 90.00
_cell_angle_gamma                120.00
_cell_formula_units_Z            39
_cell_length_a                   12.5595(18)
_cell_length_b                   12.5595(18)
_cell_length_c                   7.8550(16)
_cell_measurement_reflns_used    2250
_cell_measurement_temperature    293(2)
_cell_measurement_theta_max      28.20
_cell_measurement_theta_min      3.20
_cell_volume                     1073.1(3)
_computing_cell_refinement       'Bruker SMART'
_computing_data_collection       'Bruker SMART'
_computing_data_reduction        'Bruker SAINT'
_computing_molecular_graphics    'Bruker SHELXTL'
_computing_publication_material  'Bruker SHELXTL'
_computing_structure_refinement  'SHELXL-97 (Sheldrick, 2008)'
_computing_structure_solution    'SHELXS-97 (Sheldrick, 2008)'
_diffrn_ambient_temperature      293(2)
_diffrn_detector_area_resol_mean 8.33
_diffrn_measured_fraction_theta_full 1.000
_diffrn_measured_fraction_theta_max 0.979
_diffrn_measurement_device_type  'CCD area detector'
_diffrn_measurement_method       'phi and omega scans'
_diffrn_radiation_monochromator  graphite
_diffrn_radiation_source         'fine-focus sealed tube'
_diffrn_radiation_type           MoK\a
_diffrn_radiation_wavelength     0.71073
_diffrn_reflns_av_R_equivalents  0.0903
_diffrn_reflns_av_sigmaI/netI    0.0432
_diffrn_reflns_limit_h_max       16
_diffrn_reflns_limit_h_min       -10
_diffrn_reflns_limit_k_max       10
_diffrn_reflns_limit_k_min       -16
_diffrn_reflns_limit_l_max       10
_diffrn_reflns_limit_l_min       -10
_diffrn_reflns_number            2250
_diffrn_reflns_theta_full        25.00
_diffrn_reflns_theta_max         28.20
_diffrn_reflns_theta_min         3.20
_exptl_absorpt_coefficient_mu    34.594
_exptl_absorpt_correction_T_max  0.0734
_exptl_absorpt_correction_T_min  0.0117
_exptl_absorpt_correction_type   numerical
_exptl_absorpt_process_details
'X-RED 1.31 and X-SHAPE 2.07, STOE & CIE GmbH 2005'
_exptl_crystal_colour            Silver
_exptl_crystal_density_diffrn    7.432
_exptl_crystal_density_meas      ?
_exptl_crystal_density_method    'not measured'
_exptl_crystal_description       Irregular
_exptl_crystal_F_000             2174
_exptl_crystal_size_max          0.13
_exptl_crystal_size_mid          0.05
_exptl_crystal_size_min          0.03
_refine_diff_density_max         1.339
_refine_diff_density_min         -1.278
_refine_diff_density_rms         0.324
_refine_ls_extinction_coef       0.0027(2)
_refine_ls_extinction_expression Fc^*^=kFc[1+0.001xFc^2^\l^3^/sin(2\q)]^-1/4^
_refine_ls_extinction_method     SHELXL
_refine_ls_goodness_of_fit_ref   1.102
_refine_ls_hydrogen_treatment    none
_refine_ls_matrix_type           full
_refine_ls_number_parameters     29
_refine_ls_number_reflns         330
_refine_ls_number_restraints     0
_refine_ls_restrained_S_all      1.102
_refine_ls_R_factor_all          0.0460
_refine_ls_R_factor_gt           0.0460
_refine_ls_shift/su_max          0.000
_refine_ls_shift/su_mean         0.000
_refine_ls_structure_factor_coef Fsqd
_refine_ls_weighting_details
'calc w=1/[\s^2^(Fo^2^)+(0.0000P)^2^+190.6540P] where P=(Fo^2^+2Fc^2^)/3'
_refine_ls_weighting_scheme      calc
_refine_ls_wR_factor_gt          0.1008
_refine_ls_wR_factor_ref         0.1008
_reflns_number_gt                329
_reflns_number_total             330
_reflns_threshold_expression     >2sigma(I)
_cod_data_source_file            ic101671k_si_001_4.cif
_cod_data_source_block           Cr0.63Fe0.37Ga#4
_cod_depositor_comments
;
The following automatic conversions were performed:

'_chemical_melting_point' value 'not measured' was changed to '?' -
the value is undefined or not given.

Automatic conversion script
Id: cif_fix_values 1569 2011-02-09 13:29:24Z adriana 

The following automatic conversions were performed:

'_symmetry_cell_setting' value 'Hexagonal' changed to 'hexagonal'
according to the built-in table from CIF Core dictionary named
'cif_core.dic' version 2.4.1 from
2010-06-29.

'_exptl_absorpt_correction_type' value 'Numerical'
changed to 'numerical' according to the built-in table from CIF Core
dictionary named 'cif_core.dic' version 2.4.1 from 2010-06-29.

Automatic conversion script
Id: cif_fix_values 1646 2011-03-28 12:23:43Z adriana 

The following automatic conversions were performed:

'_exptl_crystal_density_meas' value 'not measured' was changed to '?'
- the value is perceived as not measured.

Automatic conversion script
Id: cif_fix_values 3008 2015-01-20 13:52:24Z robertas 
;
_cod_original_sg_symbol_H-M      'R -3 m'
_cod_database_code               4317323
loop_
_symmetry_equiv_pos_as_xyz
'x, y, z'
'-y, x-y, z'
'-x+y, -x, z'
'y, x, -z'
'x-y, -y, -z'
'-x, -x+y, -z'
'x+2/3, y+1/3, z+1/3'
'-y+2/3, x-y+1/3, z+1/3'
'-x+y+2/3, -x+1/3, z+1/3'
'y+2/3, x+1/3, -z+1/3'
'x-y+2/3, -y+1/3, -z+1/3'
'-x+2/3, -x+y+1/3, -z+1/3'
'x+1/3, y+2/3, z+2/3'
'-y+1/3, x-y+2/3, z+2/3'
'-x+y+1/3, -x+2/3, z+2/3'
'y+1/3, x+2/3, -z+2/3'
'x-y+1/3, -y+2/3, -z+2/3'
'-x+1/3, -x+y+2/3, -z+2/3'
'-x, -y, -z'
'y, -x+y, -z'
'x-y, x, -z'
'-y, -x, z'
'-x+y, y, z'
'x, x-y, z'
'-x+2/3, -y+1/3, -z+1/3'
'y+2/3, -x+y+1/3, -z+1/3'
'x-y+2/3, x+1/3, -z+1/3'
'-y+2/3, -x+1/3, z+1/3'
'-x+y+2/3, y+1/3, z+1/3'
'x+2/3, x-y+1/3, z+1/3'
'-x+1/3, -y+2/3, -z+2/3'
'y+1/3, -x+y+2/3, -z+2/3'
'x-y+1/3, x+2/3, -z+2/3'
'-y+1/3, -x+2/3, z+2/3'
'-x+y+1/3, y+2/3, z+2/3'
'x+1/3, x-y+2/3, z+2/3'
loop_
_atom_site_label
_atom_site_type_symbol
_atom_site_fract_x
_atom_site_fract_y
_atom_site_fract_z
_atom_site_U_iso_or_equiv
_atom_site_adp_type
_atom_site_occupancy
_atom_site_symmetry_multiplicity
_atom_site_calc_flag
_atom_site_refinement_flags
_atom_site_disorder_assembly
_atom_site_disorder_group
Ga1 Ga 0.0000 0.0000 0.0000 0.0149(9) Uani 1 12 d S . .
Ga2 Ga 0.23367(16) 0.11684(8) 0.5736(2) 0.0142(5) Uani 1 2 d S . .
Ga3 Ga 0.38560(13) 0.38560(13) 0.5000 0.0129(5) Uani 1 2 d S . .
Fe1 Fe 0.0000 0.0000 0.5000 0.0101(11) Uani 0.41 12 d SP . .
Cr1 Cr 0.0000 0.0000 0.5000 0.0101(11) Uani 0.59 12 d SP . .
Fe2 Fe 0.4358(2) 0.21790(11) 0.4112(3) 0.0121(6) Uani 0.40 2 d SP . .
Cr2 Cr 0.4358(2) 0.21790(11) 0.4112(3) 0.0121(6) Uani 0.60 2 d SP . .
Fe3 Fe -0.07133(10) 0.07133(10) 0.2494(3) 0.0101(6) Uani 0.34 2 d SP . .
Cr3 Cr -0.07133(10) 0.07133(10) 0.2494(3) 0.0101(6) Uani 0.66 2 d SP . .
loop_
_atom_site_aniso_label
_atom_site_aniso_U_11
_atom_site_aniso_U_22
_atom_site_aniso_U_33
_atom_site_aniso_U_23
_atom_site_aniso_U_13
_atom_site_aniso_U_12
Ga1 0.0156(13) 0.0156(13) 0.0134(19) 0.000 0.000 0.0078(6)
Ga2 0.0108(8) 0.0177(7) 0.0120(8) 0.0001(3) 0.0001(6) 0.0054(4)
Ga3 0.0129(7) 0.0129(7) 0.0140(8) -0.0010(3) 0.0010(3) 0.0072(7)
Fe1 0.0100(15) 0.0100(15) 0.010(2) 0.000 0.000 0.0050(8)
Cr1 0.0100(15) 0.0100(15) 0.010(2) 0.000 0.000 0.0050(8)
Fe2 0.0135(11) 0.0119(8) 0.0115(10) 0.0004(4) 0.0007(8) 0.0067(6)
Cr2 0.0135(11) 0.0119(8) 0.0115(10) 0.0004(4) 0.0007(8) 0.0067(6)
Fe3 0.0098(8) 0.0098(8) 0.0099(10) -0.0003(4) 0.0003(4) 0.0042(8)
Cr3 0.0098(8) 0.0098(8) 0.0099(10) -0.0003(4) 0.0003(4) 0.0042(8)
loop_
_atom_type_symbol
_atom_type_description
_atom_type_scat_dispersion_real
_atom_type_scat_dispersion_imag
_atom_type_scat_source
Cr Cr 0.3209 0.6236 'International Tables Vol C Tables 4.2.6.8 and 6.1.1.4'
Fe Fe 0.3463 0.8444 'International Tables Vol C Tables 4.2.6.8 and 6.1.1.4'
Ga Ga 0.2307 1.6083 'International Tables Vol C Tables 4.2.6.8 and 6.1.1.4'
loop_
_geom_angle_atom_site_label_1
_geom_angle_atom_site_label_2
_geom_angle_atom_site_label_3
_geom_angle
_geom_angle_site_symmetry_1
_geom_angle_site_symmetry_3
_geom_angle_publ_flag
Cr3 Ga1 Cr3 180.00(7) 21 3 ?
Cr3 Ga1 Fe3 0.00(11) 21 21 ?
Cr3 Ga1 Fe3 180.00(6) 3 21 ?
Cr3 Ga1 Fe3 180.00(7) 21 3 ?
Cr3 Ga1 Fe3 0.00(7) 3 3 ?
Fe3 Ga1 Fe3 180.00(7) 21 3 ?
Cr3 Ga1 Cr3 65.06(8) 21 20 ?
Cr3 Ga1 Cr3 114.94(8) 3 20 ?
Fe3 Ga1 Cr3 65.06(8) 21 20 ?
Fe3 Ga1 Cr3 114.94(8) 3 20 ?
Cr3 Ga1 Cr3 114.94(8) 21 2 ?
Cr3 Ga1 Cr3 65.06(8) 3 2 ?
Fe3 Ga1 Cr3 114.94(8) 21 2 ?
Fe3 Ga1 Cr3 65.06(8) 3 2 ?
Cr3 Ga1 Cr3 180.00(16) 20 2 ?
Cr3 Ga1 Fe3 65.06(8) 21 20 ?
Cr3 Ga1 Fe3 114.94(8) 3 20 ?
Fe3 Ga1 Fe3 65.06(8) 21 20 ?
Fe3 Ga1 Fe3 114.94(8) 3 20 ?
Cr3 Ga1 Fe3 0.00(4) 20 20 ?
Cr3 Ga1 Fe3 180.00(10) 2 20 ?
Cr3 Ga1 Fe3 114.94(8) 21 2 ?
Cr3 Ga1 Fe3 65.06(8) 3 2 ?
Fe3 Ga1 Fe3 114.94(8) 21 2 ?
Fe3 Ga1 Fe3 65.06(8) 3 2 ?
Cr3 Ga1 Fe3 180.00(16) 20 2 ?
Cr3 Ga1 Fe3 0.00(16) 2 2 ?
Fe3 Ga1 Fe3 180.00(16) 20 2 ?
Cr3 Ga1 Fe3 114.95(8) 21 . ?
Cr3 Ga1 Fe3 65.05(8) 3 . ?
Fe3 Ga1 Fe3 114.95(8) 21 . ?
Fe3 Ga1 Fe3 65.05(8) 3 . ?
Cr3 Ga1 Fe3 114.95(8) 20 . ?
Cr3 Ga1 Fe3 65.05(8) 2 . ?
Fe3 Ga1 Fe3 114.95(8) 20 . ?
Fe3 Ga1 Fe3 65.05(8) 2 . ?
Cr3 Ga1 Cr3 65.06(8) 21 19 ?
Cr3 Ga1 Cr3 114.94(8) 3 19 ?
Fe3 Ga1 Cr3 65.06(8) 21 19 ?
Fe3 Ga1 Cr3 114.94(8) 3 19 ?
Cr3 Ga1 Cr3 65.06(8) 20 19 ?
Cr3 Ga1 Cr3 114.94(8) 2 19 ?
Fe3 Ga1 Cr3 65.06(8) 20 19 ?
Fe3 Ga1 Cr3 114.94(8) 2 19 ?
Fe3 Ga1 Cr3 180.0 . 19 ?
Cr3 Ga1 Fe3 65.06(8) 21 19 ?
Cr3 Ga1 Fe3 114.94(8) 3 19 ?
Fe3 Ga1 Fe3 65.06(8) 21 19 ?
Fe3 Ga1 Fe3 114.94(8) 3 19 ?
Cr3 Ga1 Fe3 65.06(8) 20 19 ?
Cr3 Ga1 Fe3 114.94(8) 2 19 ?
Fe3 Ga1 Fe3 65.06(8) 20 19 ?
Fe3 Ga1 Fe3 114.94(8) 2 19 ?
Fe3 Ga1 Fe3 180.0 . 19 ?
Cr3 Ga1 Fe3 0.00(8) 19 19 ?
Fe2 Ga2 Fe1 137.06(8) . . ?
Fe2 Ga2 Ga2 64.12(8) . 25_556 ?
Fe1 Ga2 Ga2 158.82(10) . 25_556 ?
Fe2 Ga2 Cr3 148.18(6) . 20_556 ?
Fe1 Ga2 Cr3 57.33(5) . 20_556 ?
Ga2 Ga2 Cr3 105.20(8) 25_556 20_556 ?
Fe2 Ga2 Fe3 148.18(6) . 20_556 ?
Fe1 Ga2 Fe3 57.33(5) . 20_556 ?
Ga2 Ga2 Fe3 105.20(8) 25_556 20_556 ?
Cr3 Ga2 Fe3 0.00(3) 20_556 20_556 ?
Fe2 Ga2 Cr3 148.18(6) . 19_556 ?
Fe1 Ga2 Cr3 57.33(5) . 19_556 ?
Ga2 Ga2 Cr3 105.20(8) 25_556 19_556 ?
Cr3 Ga2 Cr3 61.75(10) 20_556 19_556 ?
Fe3 Ga2 Cr3 61.75(10) 20_556 19_556 ?
Fe2 Ga2 Fe3 148.18(6) . 19_556 ?
Fe1 Ga2 Fe3 57.33(5) . 19_556 ?
Ga2 Ga2 Fe3 105.20(8) 25_556 19_556 ?
Cr3 Ga2 Fe3 61.75(10) 20_556 19_556 ?
Fe3 Ga2 Fe3 61.75(10) 20_556 19_556 ?
Cr3 Ga2 Fe3 0.000(5) 19_556 19_556 ?
Fe2 Ga2 Cr3 81.12(8) . 3 ?
Fe1 Ga2 Cr3 55.94(6) . 3 ?
Ga2 Ga2 Cr3 145.24(11) 25_556 3 ?
Cr3 Ga2 Cr3 104.51(9) 20_556 3 ?
Fe3 Ga2 Cr3 104.51(9) 20_556 3 ?
Cr3 Ga2 Cr3 104.51(9) 19_556 3 ?
Fe3 Ga2 Cr3 104.51(9) 19_556 3 ?
Fe2 Ga2 Fe3 81.12(8) . 3 ?
Fe1 Ga2 Fe3 55.94(6) . 3 ?
Ga2 Ga2 Fe3 145.24(11) 25_556 3 ?
Cr3 Ga2 Fe3 104.51(9) 20_556 3 ?
Fe3 Ga2 Fe3 104.51(9) 20_556 3 ?
Cr3 Ga2 Fe3 104.51(9) 19_556 3 ?
Fe3 Ga2 Fe3 104.51(9) 19_556 3 ?
Cr3 Ga2 Fe3 0.00(15) 3 3 ?
Fe2 Ga2 Fe2 120.76(8) . 25_556 ?
Fe1 Ga2 Fe2 102.17(7) . 25_556 ?
Ga2 Ga2 Fe2 56.64(8) 25_556 25_556 ?
Cr3 Ga2 Fe2 57.42(6) 20_556 25_556 ?
Fe3 Ga2 Fe2 57.42(6) 20_556 25_556 ?
Cr3 Ga2 Fe2 57.42(6) 19_556 25_556 ?
Fe3 Ga2 Fe2 57.42(6) 19_556 25_556 ?
Cr3 Ga2 Fe2 158.12(9) 3 25_556 ?
Fe3 Ga2 Fe2 158.12(9) 3 25_556 ?
Cr2 Ga3 Fe2 0.00(2) 21_556 21_556 ?
Cr2 Ga3 Fe2 146.74(12) 21_556 . ?
Fe2 Ga3 Fe2 146.74(12) 21_556 . ?
Cr2 Ga3 Cr3 145.29(7) 21_556 7 ?
Fe2 Ga3 Cr3 145.29(7) 21_556 7 ?
Fe2 Ga3 Cr3 59.58(6) . 7 ?
Cr2 Ga3 Fe3 145.29(7) 21_556 7 ?
Fe2 Ga3 Fe3 145.29(7) 21_556 7 ?
Fe2 Ga3 Fe3 59.58(6) . 7 ?
Cr3 Ga3 Fe3 0.00(11) 7 7 ?
Cr2 Ga3 Cr3 59.58(6) 21_556 31 ?
Fe2 Ga3 Cr3 59.58(6) 21_556 31 ?
Fe2 Ga3 Cr3 145.29(7) . 31 ?
Cr3 Ga3 Cr3 113.07(8) 7 31 ?
Fe3 Ga3 Cr3 113.07(8) 7 31 ?
Cr2 Ga3 Fe3 59.58(6) 21_556 31 ?
Fe2 Ga3 Fe3 59.58(6) 21_556 31 ?
Fe2 Ga3 Fe3 145.29(7) . 31 ?
Cr3 Ga3 Fe3 113.07(8) 7 31 ?
Fe3 Ga3 Fe3 113.07(8) 7 31 ?
Cr3 Ga3 Fe3 0.00(11) 31 31 ?
Cr2 Ga3 Fe2 64.64(8) 21_556 8 ?
Fe2 Ga3 Fe2 64.64(8) 21_556 8 ?
Fe2 Ga3 Fe2 137.67(6) . 8 ?
Cr3 Ga3 Fe2 81.65(7) 7 8 ?
Fe3 Ga3 Fe2 81.65(7) 7 8 ?
Cr3 Ga3 Fe2 63.01(7) 31 8 ?
Fe3 Ga3 Fe2 63.01(7) 31 8 ?
Cr2 Ga3 Cr2 64.64(8) 21_556 8 ?
Fe2 Ga3 Cr2 64.64(8) 21_556 8 ?
Fe2 Ga3 Cr2 137.67(6) . 8 ?
Cr3 Ga3 Cr2 81.65(7) 7 8 ?
Fe3 Ga3 Cr2 81.65(7) 7 8 ?
Cr3 Ga3 Cr2 63.01(7) 31 8 ?
Fe3 Ga3 Cr2 63.01(7) 31 8 ?
Fe2 Ga3 Cr2 0.00(13) 8 8 ?
Cr2 Ga3 Fe2 137.67(6) 21_556 32 ?
Fe2 Ga3 Fe2 137.67(6) 21_556 32 ?
Fe2 Ga3 Fe2 64.64(8) . 32 ?
Cr3 Ga3 Fe2 63.01(7) 7 32 ?
Fe3 Ga3 Fe2 63.01(7) 7 32 ?
Cr3 Ga3 Fe2 81.65(7) 31 32 ?
Fe3 Ga3 Fe2 81.65(7) 31 32 ?
Fe2 Ga3 Fe2 114.20(8) 8 32 ?
Cr2 Ga3 Fe2 114.20(8) 8 32 ?
Cr2 Ga3 Cr2 137.67(6) 21_556 32 ?
Fe2 Ga3 Cr2 137.67(6) 21_556 32 ?
Fe2 Ga3 Cr2 64.64(8) . 32 ?
Cr3 Ga3 Cr2 63.01(7) 7 32 ?
Fe3 Ga3 Cr2 63.01(7) 7 32 ?
Cr3 Ga3 Cr2 81.65(7) 31 32 ?
Fe3 Ga3 Cr2 81.65(7) 31 32 ?
Fe2 Ga3 Cr2 114.20(8) 8 32 ?
Cr2 Ga3 Cr2 114.20(8) 8 32 ?
Fe2 Ga3 Cr2 0.00(9) 32 32 ?
Fe3 Fe1 Cr3 115.16(8) . 20_556 ?
Fe3 Fe1 Cr3 64.84(8) . 2 ?
Cr3 Fe1 Cr3 180.0 20_556 2 ?
Fe3 Fe1 Fe3 115.16(8) . 20_556 ?
Cr3 Fe1 Fe3 0.00(8) 20_556 20_556 ?
Cr3 Fe1 Fe3 180.0 2 20_556 ?
Fe3 Fe1 Fe3 64.84(8) . 2 ?
Cr3 Fe1 Fe3 180.0 20_556 2 ?
Cr3 Fe1 Fe3 0.00(16) 2 2 ?
Fe3 Fe1 Fe3 180.0 20_556 2 ?
Fe3 Fe1 Cr3 115.16(8) . 21_556 ?
Cr3 Fe1 Cr3 64.84(8) 20_556 21_556 ?
Cr3 Fe1 Cr3 115.16(8) 2 21_556 ?
Fe3 Fe1 Cr3 64.84(8) 20_556 21_556 ?
Fe3 Fe1 Cr3 115.16(8) 2 21_556 ?
Fe3 Fe1 Cr3 64.84(8) . 3 ?
Cr3 Fe1 Cr3 115.16(8) 20_556 3 ?
Cr3 Fe1 Cr3 64.84(8) 2 3 ?
Fe3 Fe1 Cr3 115.16(8) 20_556 3 ?
Fe3 Fe1 Cr3 64.84(8) 2 3 ?
Cr3 Fe1 Cr3 180.0 21_556 3 ?
Fe3 Fe1 Fe3 115.16(8) . 21_556 ?
Cr3 Fe1 Fe3 64.84(8) 20_556 21_556 ?
Cr3 Fe1 Fe3 115.16(8) 2 21_556 ?
Fe3 Fe1 Fe3 64.84(8) 20_556 21_556 ?
Fe3 Fe1 Fe3 115.16(8) 2 21_556 ?
Cr3 Fe1 Fe3 0.00(16) 21_556 21_556 ?
Cr3 Fe1 Fe3 180.00(10) 3 21_556 ?
Fe3 Fe1 Fe3 64.84(8) . 3 ?
Cr3 Fe1 Fe3 115.16(8) 20_556 3 ?
Cr3 Fe1 Fe3 64.84(8) 2 3 ?
Fe3 Fe1 Fe3 115.16(8) 20_556 3 ?
Fe3 Fe1 Fe3 64.84(8) 2 3 ?
Cr3 Fe1 Fe3 180.0 21_556 3 ?
Cr3 Fe1 Fe3 0.00(7) 3 3 ?
Fe3 Fe1 Fe3 180.0 21_556 3 ?
Fe3 Fe1 Cr3 180.0 . 19_556 ?
Cr3 Fe1 Cr3 64.84(8) 20_556 19_556 ?
Cr3 Fe1 Cr3 115.16(8) 2 19_556 ?
Fe3 Fe1 Cr3 64.84(8) 20_556 19_556 ?
Fe3 Fe1 Cr3 115.16(8) 2 19_556 ?
Cr3 Fe1 Cr3 64.84(8) 21_556 19_556 ?
Cr3 Fe1 Cr3 115.16(8) 3 19_556 ?
Fe3 Fe1 Cr3 64.84(8) 21_556 19_556 ?
Fe3 Fe1 Cr3 115.16(8) 3 19_556 ?
Fe3 Fe1 Fe3 180.0 . 19_556 ?
Cr3 Fe1 Fe3 64.84(8) 20_556 19_556 ?
Cr3 Fe1 Fe3 115.16(8) 2 19_556 ?
Fe3 Fe1 Fe3 64.84(8) 20_556 19_556 ?
Fe3 Fe1 Fe3 115.16(8) 2 19_556 ?
Cr3 Fe1 Fe3 64.84(8) 21_556 19_556 ?
Cr3 Fe1 Fe3 115.16(8) 3 19_556 ?
Fe3 Fe1 Fe3 64.84(8) 21_556 19_556 ?
Fe3 Fe1 Fe3 115.16(8) 3 19_556 ?
Cr3 Fe1 Fe3 0.00(8) 19_556 19_556 ?
Ga2 Fe2 Cr3 108.67(9) . 8 ?
Ga2 Fe2 Fe3 108.67(9) . 8 ?
Cr3 Fe2 Fe3 0.00(12) 8 8 ?
Ga2 Fe2 Cr3 108.67(9) . 7 ?
Cr3 Fe2 Cr3 62.91(11) 8 7 ?
Fe3 Fe2 Cr3 62.91(11) 8 7 ?
Ga2 Fe2 Fe3 108.67(9) . 7 ?
Cr3 Fe2 Fe3 62.91(11) 8 7 ?
Fe3 Fe2 Fe3 62.91(11) 8 7 ?
Cr3 Fe2 Fe3 0.00(9) 7 7 ?
Ga2 Fe2 Ga3 71.40(6) . 20_556 ?
Cr3 Fe2 Ga3 60.73(6) 8 20_556 ?
Fe3 Fe2 Ga3 60.73(6) 8 20_556 ?
Cr3 Fe2 Ga3 119.42(9) 7 20_556 ?
Fe3 Fe2 Ga3 119.42(9) 7 20_556 ?
Ga2 Fe2 Ga3 71.40(6) . . ?
Cr3 Fe2 Ga3 119.42(9) 8 . ?
Fe3 Fe2 Ga3 119.42(9) 8 . ?
Cr3 Fe2 Ga3 60.73(6) 7 . ?
Fe3 Fe2 Ga3 60.73(6) 7 . ?
Ga3 Fe2 Ga3 139.81(11) 20_556 . ?
Ga2 Fe2 Ga1 163.57(11) . 7 ?
Cr3 Fe2 Ga1 57.94(6) 8 7 ?
Fe3 Fe2 Ga1 57.94(6) 8 7 ?
Cr3 Fe2 Ga1 57.94(6) 7 7 ?
Fe3 Fe2 Ga1 57.94(6) 7 7 ?
Ga3 Fe2 Ga1 105.65(6) 20_556 7 ?
Ga3 Fe2 Ga1 105.65(6) . 7 ?
Ga2 Fe2 Ga3 90.00(8) . 15_554 ?
Cr3 Fe2 Ga3 161.32(11) 8 15_554 ?
Fe3 Fe2 Ga3 161.32(11) 8 15_554 ?
Cr3 Fe2 Ga3 112.36(6) 7 15_554 ?
Fe3 Fe2 Ga3 112.36(6) 7 15_554 ?
Ga3 Fe2 Ga3 128.12(8) 20_556 15_554 ?
Ga3 Fe2 Ga3 66.24(5) . 15_554 ?
Ga1 Fe2 Ga3 103.74(7) 7 15_554 ?
Ga2 Fe2 Ga3 90.00(8) . 33_545 ?
Cr3 Fe2 Ga3 112.36(6) 8 33_545 ?
Fe3 Fe2 Ga3 112.36(6) 8 33_545 ?
Cr3 Fe2 Ga3 161.32(11) 7 33_545 ?
Fe3 Fe2 Ga3 161.32(11) 7 33_545 ?
Ga3 Fe2 Ga3 66.24(5) 20_556 33_545 ?
Ga3 Fe2 Ga3 128.12(8) . 33_545 ?
Ga1 Fe2 Ga3 103.74(7) 7 33_545 ?
Ga3 Fe2 Ga3 65.80(8) 15_554 33_545 ?
Ga2 Fe2 Ga2 59.24(8) . 25_556 ?
Cr3 Fe2 Ga2 58.96(7) 8 25_556 ?
Fe3 Fe2 Ga2 58.96(7) 8 25_556 ?
Cr3 Fe2 Ga2 58.96(7) 7 25_556 ?
Fe3 Fe2 Ga2 58.96(7) 7 25_556 ?
Ga3 Fe2 Ga2 74.16(5) 20_556 25_556 ?
Ga3 Fe2 Ga2 74.16(5) . 25_556 ?
Ga1 Fe2 Ga2 104.33(9) 7 25_556 ?
Ga3 Fe2 Ga2 136.17(7) 15_554 25_556 ?
Ga3 Fe2 Ga2 136.17(7) 33_545 25_556 ?
Ga2 Fe2 Cr3 140.59(11) . 27 ?
Cr3 Fe2 Cr3 104.75(10) 8 27 ?
Fe3 Fe2 Cr3 104.75(10) 8 27 ?
Cr3 Fe2 Cr3 104.75(10) 7 27 ?
Fe3 Fe2 Cr3 104.75(10) 7 27 ?
Ga3 Fe2 Cr3 109.12(5) 20_556 27 ?
Ga3 Fe2 Cr3 109.12(5) . 27 ?
Ga1 Fe2 Cr3 55.85(6) 7 27 ?
Ga3 Fe2 Cr3 57.79(6) 15_554 27 ?
Ga3 Fe2 Cr3 57.79(6) 33_545 27 ?
Ga2 Fe2 Cr3 160.18(11) 25_556 27 ?
Ga1 Fe3 Fe1 103.37(8) . . ?
Ga1 Fe3 Cr2 61.21(6) . 13_444 ?
Fe1 Fe3 Cr2 109.86(6) . 13_444 ?
Ga1 Fe3 Fe2 61.21(6) . 13_444 ?
Fe1 Fe3 Fe2 109.86(6) . 13_444 ?
Cr2 Fe3 Fe2 0.00(19) 13_444 13_444 ?
Ga1 Fe3 Cr2 61.21(6) . 15_554 ?
Fe1 Fe3 Cr2 109.86(6) . 15_554 ?
Cr2 Fe3 Cr2 115.21(13) 13_444 15_554 ?
Fe2 Fe3 Cr2 115.21(13) 13_444 15_554 ?
Ga1 Fe3 Fe2 61.21(6) . 15_554 ?
Fe1 Fe3 Fe2 109.86(6) . 15_554 ?
Cr2 Fe3 Fe2 115.21(13) 13_444 15_554 ?
Fe2 Fe3 Fe2 115.21(13) 13_444 15_554 ?
Cr2 Fe3 Fe2 0.00(19) 15_554 15_554 ?
Ga1 Fe3 Ga3 107.38(7) . 13_444 ?
Fe1 Fe3 Ga3 133.53(6) . 13_444 ?
Cr2 Fe3 Ga3 59.69(5) 13_444 13_444 ?
Fe2 Fe3 Ga3 59.69(5) 13_444 13_444 ?
Cr2 Fe3 Ga3 115.26(9) 15_554 13_444 ?
Fe2 Fe3 Ga3 115.26(9) 15_554 13_444 ?
Ga1 Fe3 Ga3 107.38(7) . 31 ?
Fe1 Fe3 Ga3 133.53(6) . 31 ?
Cr2 Fe3 Ga3 115.26(9) 13_444 31 ?
Fe2 Fe3 Ga3 115.26(9) 13_444 31 ?
Cr2 Fe3 Ga3 59.69(5) 15_554 31 ?
Fe2 Fe3 Ga3 59.69(5) 15_554 31 ?
Ga3 Fe3 Ga3 66.94(8) 13_444 31 ?
Ga1 Fe3 Ga2 110.46(6) . 21_556 ?
Fe1 Fe3 Ga2 61.09(5) . 21_556 ?
Cr2 Fe3 Ga2 167.23(10) 13_444 21_556 ?
Fe2 Fe3 Ga2 167.23(10) 13_444 21_556 ?
Cr2 Fe3 Ga2 63.62(6) 15_554 21_556 ?
Fe2 Fe3 Ga2 63.62(6) 15_554 21_556 ?
Ga3 Fe3 Ga2 132.95(9) 13_444 21_556 ?
Ga3 Fe3 Ga2 75.78(5) 31 21_556 ?
Ga1 Fe3 Ga2 110.46(6) . 19_556 ?
Fe1 Fe3 Ga2 61.09(5) . 19_556 ?
Cr2 Fe3 Ga2 63.62(6) 13_444 19_556 ?
Fe2 Fe3 Ga2 63.62(6) 13_444 19_556 ?
Cr2 Fe3 Ga2 167.23(10) 15_554 19_556 ?
Fe2 Fe3 Ga2 167.23(10) 15_554 19_556 ?
Ga3 Fe3 Ga2 75.78(5) 13_444 19_556 ?
Ga3 Fe3 Ga2 132.95(9) 31 19_556 ?
Ga2 Fe3 Ga2 114.40(10) 21_556 19_556 ?
Ga1 Fe3 Cr3 57.47(4) . 3 ?
Fe1 Fe3 Cr3 57.58(4) . 3 ?
Cr2 Fe3 Cr3 108.82(6) 13_444 3 ?
Fe2 Fe3 Cr3 108.82(6) 13_444 3 ?
Cr2 Fe3 Cr3 58.54(6) 15_554 3 ?
Fe2 Fe3 Cr3 58.54(6) 15_554 3 ?
Ga3 Fe3 Cr3 164.82(5) 13_444 3 ?
Ga3 Fe3 Cr3 114.43(4) 31 3 ?
Ga2 Fe3 Cr3 59.12(5) 21_556 3 ?
Ga2 Fe3 Cr3 109.11(5) 19_556 3 ?
loop_
_geom_bond_atom_site_label_1
_geom_bond_atom_site_label_2
_geom_bond_distance
_geom_bond_site_symmetry_2
_geom_bond_publ_flag
Ga1 Cr3 2.499(2) 21 ?
Ga1 Cr3 2.499(2) 3 ?
Ga1 Fe3 2.499(2) 21 ?
Ga1 Fe3 2.499(2) 3 ?
Ga1 Cr3 2.499(2) 20 ?
Ga1 Cr3 2.499(2) 2 ?
Ga1 Fe3 2.499(2) 20 ?
Ga1 Fe3 2.499(2) 2 ?
Ga1 Fe3 2.499(2) . ?
Ga1 Cr3 2.499(2) 19 ?
Ga1 Fe3 2.499(2) 19 ?
Ga2 Fe2 2.542(3) . ?
Ga2 Fe1 2.6066(17) . ?
Ga2 Ga2 2.615(3) 25_556 ?
Ga2 Cr3 2.6185(18) 20_556 ?
Ga2 Fe3 2.6185(18) 20_556 ?
Ga2 Cr3 2.6186(18) 19_556 ?
Ga2 Fe3 2.6186(18) 19_556 ?
Ga2 Cr3 2.732(3) 3 ?
Ga2 Fe3 2.732(3) 3 ?
Ga2 Fe2 2.738(3) 25_556 ?
Ga3 Cr2 2.5785(10) 21_556 ?
Ga3 Fe2 2.5785(10) 21_556 ?
Ga3 Fe2 2.5785(10) . ?
Ga3 Cr3 2.605(2) 7 ?
Ga3 Fe3 2.605(2) 7 ?
Ga3 Cr3 2.605(2) 31 ?
Ga3 Fe3 2.605(2) 31 ?
Ga3 Fe2 2.645(2) 8 ?
Ga3 Cr2 2.645(2) 8 ?
Ga3 Fe2 2.645(2) 32 ?
Ga3 Cr2 2.645(2) 32 ?
Fe1 Fe3 2.506(2) . ?
Fe1 Cr3 2.506(2) 20_556 ?
Fe1 Cr3 2.506(2) 2 ?
Fe1 Fe3 2.506(2) 20_556 ?
Fe1 Fe3 2.506(2) 2 ?
Fe1 Cr3 2.506(2) 21_556 ?
Fe1 Cr3 2.506(2) 3 ?
Fe1 Fe3 2.506(2) 21_556 ?
Fe1 Fe3 2.506(2) 3 ?
Fe1 Cr3 2.507(2) 19_556 ?
Fe1 Fe3 2.507(2) 19_556 ?
Fe2 Cr3 2.575(2) 8 ?
Fe2 Fe3 2.575(2) 8 ?
Fe2 Cr3 2.575(2) 7 ?
Fe2 Fe3 2.575(2) 7 ?
Fe2 Ga3 2.5785(10) 20_556 ?
Fe2 Ga1 2.584(2) 7 ?
Fe2 Ga3 2.645(2) 15_554 ?
Fe2 Ga3 2.645(2) 33_545 ?
Fe2 Ga2 2.738(3) 25_556 ?
Fe2 Cr3 2.744(3) 27 ?
Fe3 Cr2 2.575(2) 13_444 ?
Fe3 Fe2 2.575(2) 13_444 ?
Fe3 Cr2 2.575(2) 15_554 ?
Fe3 Fe2 2.575(2) 15_554 ?
Fe3 Ga3 2.605(2) 13_444 ?
Fe3 Ga3 2.605(2) 31 ?
Fe3 Ga2 2.6185(18) 21_556 ?
Fe3 Ga2 2.6186(18) 19_556 ?
Fe3 Cr3 2.688(4) 3 ?
