#------------------------------------------------------------------------------
#$Date: 2016-03-23 03:40:25 +0200 (Wed, 23 Mar 2016) $
#$Revision: 179256 $
#$URL: svn://www.crystallography.net/cod/cif/4/31/76/4317670.cif $
#------------------------------------------------------------------------------
#
# This file is available in the Crystallography Open Database (COD),
# http://www.crystallography.net/
#
# All data on this site have been placed in the public domain by the
# contributors.
#
data_4317670
loop_
_publ_author_name
'Kwasi Mitchell'
'Christy L. Haynes'
'Adam D. McFarland'
'Richard P. Van Duyne'
'James A. Ibers'
_publ_section_title
;
 Tuning of Optical Band Gaps: Syntheses, Structures, Magnetic Properties,
 and Optical Properties of CsLnZnSe3 (Ln = Sm, Tb, Dy, Ho, Er, Tm, Yb, and
 Y)
;
_journal_name_full               'Inorganic Chemistry'
_journal_page_first              1199
_journal_page_last               1204
_journal_paper_doi               10.1021/ic011200u
_journal_volume                  41
_journal_year                    2002
_chemical_formula_sum            'Cs Se3 Sm Zn'
_chemical_formula_weight         585.51
_chemical_name_systematic
; 
 ? 
;
_space_group_IT_number           63
_symmetry_cell_setting           orthorhombic
_symmetry_space_group_name_Hall  '-C 2c 2'
_symmetry_space_group_name_H-M   'C m c m'
_atom_sites_solution_hydrogens   geom
_atom_sites_solution_primary     direct
_atom_sites_solution_secondary   difmap
_audit_creation_method           SHELXL-97
_cell_angle_alpha                90.00
_cell_angle_beta                 90.00
_cell_angle_gamma                90.00
_cell_formula_units_Z            4
_cell_length_a                   4.1935(14)
_cell_length_b                   15.753(5)
_cell_length_c                   11.102(4)
_cell_measurement_temperature    153(2)
_cell_volume                     733.4(4)
_computing_cell_refinement       'SMART version 5.054 (Bruker, 2000)'
_computing_data_collection       'SMART version 5.054 (Bruker, 2000)'
_computing_data_reduction        'SAINT-Plus version 6.02A (Bruker, 2000)'
_computing_molecular_graphics    'SHELXTL-97 (Sheldrick, 1997)'
_computing_publication_material  'SHELXTL-97 (Sheldrick, 1997)'
_computing_structure_refinement  'SHELXL-97 (Sheldrick, 1997)'
_computing_structure_solution    'SHELXS-97 (Sheldrick, 1990)'
_diffrn_ambient_temperature      153(2)
_diffrn_measured_fraction_theta_full 0.938
_diffrn_measured_fraction_theta_max 0.938
_diffrn_measurement_device_type  'Bruker Smart 1000 CCD'
_diffrn_measurement_method       \w
_diffrn_radiation_monochromator  graphite
_diffrn_radiation_source         'fine-focus sealed tube'
_diffrn_radiation_type           MoK\a
_diffrn_radiation_wavelength     0.71073
_diffrn_reflns_av_R_equivalents  0.0536
_diffrn_reflns_av_sigmaI/netI    0.0382
_diffrn_reflns_limit_h_max       5
_diffrn_reflns_limit_h_min       -5
_diffrn_reflns_limit_k_max       20
_diffrn_reflns_limit_k_min       -20
_diffrn_reflns_limit_l_max       14
_diffrn_reflns_limit_l_min       -14
_diffrn_reflns_number            3874
_diffrn_reflns_theta_full        29.04
_diffrn_reflns_theta_max         29.04
_diffrn_reflns_theta_min         3.17
_diffrn_standards_decay_%        <2
_diffrn_standards_interval_count none
_diffrn_standards_interval_time  none
_diffrn_standards_number         none
_exptl_absorpt_coefficient_mu    30.852
_exptl_absorpt_correction_T_max  0.28532
_exptl_absorpt_correction_T_min  0.02524
_exptl_absorpt_correction_type   numerical
_exptl_absorpt_process_details   'faces indexed'
_exptl_crystal_colour            yellow
_exptl_crystal_density_diffrn    5.303
_exptl_crystal_density_meas      ?
_exptl_crystal_density_method    'not measured'
_exptl_crystal_description       needle
_exptl_crystal_F_000             996
_exptl_crystal_size_max          0.110
_exptl_crystal_size_mid          0.032
_exptl_crystal_size_min          0.016
_refine_diff_density_max         1.616
_refine_diff_density_min         -2.629
_refine_diff_density_rms         0.598
_refine_ls_extinction_coef       0.0071(4)
_refine_ls_extinction_expression Fc^*^=kFc[1+0.001xFc^2^\l^3^/sin(2\q)]^-1/4^
_refine_ls_extinction_method     SHELXL
_refine_ls_goodness_of_fit_ref   1.057
_refine_ls_hydrogen_treatment    mixed
_refine_ls_matrix_type           full
_refine_ls_number_parameters     24
_refine_ls_number_reflns         544
_refine_ls_number_restraints     0
_refine_ls_restrained_S_all      1.057
_refine_ls_R_factor_all          0.0344
_refine_ls_R_factor_gt           0.0275
_refine_ls_shift/su_max          0.000
_refine_ls_shift/su_mean         0.000
_refine_ls_structure_factor_coef Fsqd
_refine_ls_weighting_details
; calc 
 [1.00000+0.00000exp(0.00(sin\q/\l)^2^)]/ 
   [\s^2^(Fo^2^)+0.0000+0.0000*P+(0.0400P)^2^+0.0000sin\q/\l] 
 where P = 1.00000Fo^2^ + 0.00000Fc^2^ 
;
_refine_ls_weighting_scheme      calc
_refine_ls_wR_factor_gt          0.0618
_refine_ls_wR_factor_ref         0.0663
_reflns_number_gt                475
_reflns_number_total             544
_reflns_threshold_expression     >2sigma(I)
_cod_data_source_file            ic011200u_1.cif
_cod_data_source_block           CsSmZnSe3
_cod_depositor_comments
;
The following automatic conversions were performed:

'_exptl_crystal_density_meas' value 'not measured' was changed to '?'
- the value is perceived as not measured.

Automatic conversion script
Id: cif_fix_values 3008 2015-01-20 13:52:24Z robertas 
;
_cod_database_code               4317670
loop_
_symmetry_equiv_pos_as_xyz
'x, y, z'
'-x, -y, z+1/2'
'-x, y, -z+1/2'
'x, -y, -z'
'x+1/2, y+1/2, z'
'-x+1/2, -y+1/2, z+1/2'
'-x+1/2, y+1/2, -z+1/2'
'x+1/2, -y+1/2, -z'
'-x, -y, -z'
'x, y, -z-1/2'
'x, -y, z-1/2'
'-x, y, z'
'-x+1/2, -y+1/2, -z'
'x+1/2, y+1/2, -z-1/2'
'x+1/2, -y+1/2, z-1/2'
'-x+1/2, y+1/2, z'
loop_
_atom_site_label
_atom_site_type_symbol
_atom_site_fract_x
_atom_site_fract_y
_atom_site_fract_z
_atom_site_U_iso_or_equiv
_atom_site_adp_type
_atom_site_occupancy
_atom_site_symmetry_multiplicity
_atom_site_calc_flag
_atom_site_refinement_flags
_atom_site_disorder_assembly
_atom_site_disorder_group
Sm1 Sm 0.0000 0.0000 0.0000 0.0080(2) Uani 1 4 d S . .
Cs1 Cs 0.0000 0.74053(4) 0.2500 0.0145(2) Uani 1 4 d S . .
Se1 Se 0.0000 0.37981(4) 0.06205(6) 0.0086(2) Uani 1 2 d S . .
Se2 Se 0.0000 0.05473(6) 0.2500 0.0077(3) Uani 1 4 d S . .
Zn1 Zn 0.0000 0.45985(7) 0.2500 0.0096(3) Uani 1 4 d S . .
loop_
_atom_site_aniso_label
_atom_site_aniso_U_11
_atom_site_aniso_U_22
_atom_site_aniso_U_33
_atom_site_aniso_U_23
_atom_site_aniso_U_13
_atom_site_aniso_U_12
Sm1 0.0062(3) 0.0111(3) 0.0065(3) 0.00008(17) 0.000 0.000
Cs1 0.0109(4) 0.0121(3) 0.0206(4) 0.000 0.000 0.000
Se1 0.0078(4) 0.0098(4) 0.0083(4) -0.0003(2) 0.000 0.000
Se2 0.0073(5) 0.0105(5) 0.0054(5) 0.000 0.000 0.000
Zn1 0.0089(6) 0.0121(6) 0.0077(6) 0.000 0.000 0.000
loop_
_atom_type_symbol
_atom_type_description
_atom_type_scat_dispersion_real
_atom_type_scat_dispersion_imag
_atom_type_scat_source
Zn Zn 0.2839 1.4301 'International Tables Vol C Tables 4.2.6.8 and 6.1.1.4'
Se Se -0.0929 2.2259 'International Tables Vol C Tables 4.2.6.8 and 6.1.1.4'
Cs Cs -0.3680 2.1192 'International Tables Vol C Tables 4.2.6.8 and 6.1.1.4'
Sm Sm -0.1638 3.4418 'International Tables Vol C Tables 4.2.6.8 and 6.1.1.4'
loop_
_geom_angle_atom_site_label_1
_geom_angle_atom_site_label_2
_geom_angle_atom_site_label_3
_geom_angle
_geom_angle_site_symmetry_1
_geom_angle_site_symmetry_3
_geom_angle_publ_flag
Se2 Sm1 Se2 180.0 9 . ?
Se2 Sm1 Se1 88.10(2) 9 13 ?
Se2 Sm1 Se1 91.90(2) . 13 ?
Se2 Sm1 Se1 91.90(2) 9 5_445 ?
Se2 Sm1 Se1 88.10(2) . 5_445 ?
Se1 Sm1 Se1 180.00(3) 13 5_445 ?
Se2 Sm1 Se1 88.10(2) 9 13_455 ?
Se2 Sm1 Se1 91.90(2) . 13_455 ?
Se1 Sm1 Se1 92.28(3) 13 13_455 ?
Se1 Sm1 Se1 87.72(3) 5_445 13_455 ?
Se2 Sm1 Se1 91.90(2) 9 5_545 ?
Se2 Sm1 Se1 88.10(2) . 5_545 ?
Se1 Sm1 Se1 87.72(3) 13 5_545 ?
Se1 Sm1 Se1 92.28(3) 5_445 5_545 ?
Se1 Sm1 Se1 180.00(3) 13_455 5_545 ?
Se2 Sm1 Zn1 45.84(2) 9 13_455 ?
Se2 Sm1 Zn1 134.16(2) . 13_455 ?
Se1 Sm1 Zn1 97.19(3) 13 13_455 ?
Se1 Sm1 Zn1 82.81(3) 5_445 13_455 ?
Se1 Sm1 Zn1 43.11(2) 13_455 13_455 ?
Se1 Sm1 Zn1 136.89(2) 5_545 13_455 ?
Se2 Sm1 Zn1 134.16(2) 9 5_545 ?
Se2 Sm1 Zn1 45.84(2) . 5_545 ?
Se1 Sm1 Zn1 82.81(3) 13 5_545 ?
Se1 Sm1 Zn1 97.19(3) 5_445 5_545 ?
Se1 Sm1 Zn1 136.89(2) 13_455 5_545 ?
Se1 Sm1 Zn1 43.11(2) 5_545 5_545 ?
Zn1 Sm1 Zn1 180.00(4) 13_455 5_545 ?
Se2 Sm1 Zn1 45.84(2) 9 13 ?
Se2 Sm1 Zn1 134.16(2) . 13 ?
Se1 Sm1 Zn1 43.11(2) 13 13 ?
Se1 Sm1 Zn1 136.89(2) 5_445 13 ?
Se1 Sm1 Zn1 97.19(3) 13_455 13 ?
Se1 Sm1 Zn1 82.81(3) 5_545 13 ?
Zn1 Sm1 Zn1 72.75(3) 13_455 13 ?
Zn1 Sm1 Zn1 107.25(3) 5_545 13 ?
Se2 Sm1 Zn1 134.16(2) 9 5_445 ?
Se2 Sm1 Zn1 45.84(2) . 5_445 ?
Se1 Sm1 Zn1 136.89(2) 13 5_445 ?
Se1 Sm1 Zn1 43.11(2) 5_445 5_445 ?
Se1 Sm1 Zn1 82.81(3) 13_455 5_445 ?
Se1 Sm1 Zn1 97.19(3) 5_545 5_445 ?
Zn1 Sm1 Zn1 107.25(3) 13_455 5_445 ?
Zn1 Sm1 Zn1 72.75(3) 5_545 5_445 ?
Zn1 Sm1 Zn1 180.00(4) 13 5_445 ?
Se2 Sm1 Cs1 106.92(3) 9 1_545 ?
Se2 Sm1 Cs1 73.08(3) . 1_545 ?
Se1 Sm1 Cs1 132.203(16) 13 1_545 ?
Se1 Sm1 Cs1 47.797(16) 5_445 1_545 ?
Se1 Sm1 Cs1 132.203(16) 13_455 1_545 ?
Se1 Sm1 Cs1 47.797(16) 5_545 1_545 ?
Zn1 Sm1 Cs1 126.09(2) 13_455 1_545 ?
Zn1 Sm1 Cs1 53.91(2) 5_545 1_545 ?
Zn1 Sm1 Cs1 126.09(2) 13 1_545 ?
Zn1 Sm1 Cs1 53.91(2) 5_445 1_545 ?
Se2 Sm1 Cs1 73.08(3) 9 9_565 ?
Se2 Sm1 Cs1 106.92(3) . 9_565 ?
Se1 Sm1 Cs1 47.797(16) 13 9_565 ?
Se1 Sm1 Cs1 132.203(16) 5_445 9_565 ?
Se1 Sm1 Cs1 47.797(16) 13_455 9_565 ?
Se1 Sm1 Cs1 132.203(16) 5_545 9_565 ?
Zn1 Sm1 Cs1 53.91(2) 13_455 9_565 ?
Zn1 Sm1 Cs1 126.09(2) 5_545 9_565 ?
Zn1 Sm1 Cs1 53.91(2) 13 9_565 ?
Zn1 Sm1 Cs1 126.09(2) 5_445 9_565 ?
Cs1 Sm1 Cs1 180.000(8) 1_545 9_565 ?
Se2 Cs1 Se2 71.23(3) 5_455 5 ?
Se2 Cs1 Se1 144.668(16) 5_455 14_556 ?
Se2 Cs1 Se1 98.78(2) 5 14_556 ?
Se2 Cs1 Se1 98.78(2) 5_455 14_456 ?
Se2 Cs1 Se1 144.668(16) 5 14_456 ?
Se1 Cs1 Se1 69.40(3) 14_556 14_456 ?
Se2 Cs1 Se1 144.668(16) 5_455 5 ?
Se2 Cs1 Se1 98.78(2) 5 5 ?
Se1 Cs1 Se1 69.02(3) 14_556 5 ?
Se1 Cs1 Se1 106.87(3) 14_456 5 ?
Se2 Cs1 Se1 98.78(2) 5_455 5_455 ?
Se2 Cs1 Se1 144.668(16) 5 5_455 ?
Se1 Cs1 Se1 106.87(3) 14_556 5_455 ?
Se1 Cs1 Se1 69.02(3) 14_456 5_455 ?
Se1 Cs1 Se1 69.40(3) 5 5_455 ?
Se2 Cs1 Se1 67.033(16) 5_455 9_565 ?
Se2 Cs1 Se1 67.033(16) 5 9_565 ?
Se1 Cs1 Se1 141.535(14) 14_556 9_565 ?
Se1 Cs1 Se1 141.535(14) 14_456 9_565 ?
Se1 Cs1 Se1 77.81(2) 5 9_565 ?
Se1 Cs1 Se1 77.81(2) 5_455 9_565 ?
Se2 Cs1 Se1 67.033(16) 5_455 2_565 ?
Se2 Cs1 Se1 67.033(16) 5 2_565 ?
Se1 Cs1 Se1 77.81(2) 14_556 2_565 ?
Se1 Cs1 Se1 77.81(2) 14_456 2_565 ?
Se1 Cs1 Se1 141.535(14) 5 2_565 ?
Se1 Cs1 Se1 141.535(14) 5_455 2_565 ?
Se1 Cs1 Se1 122.63(3) 9_565 2_565 ?
Se2 Cs1 Zn1 175.637(16) 5_455 5 ?
Se2 Cs1 Zn1 113.13(3) 5 5 ?
Se1 Cs1 Zn1 36.425(15) 14_556 5 ?
Se1 Cs1 Zn1 77.65(3) 14_456 5 ?
Se1 Cs1 Zn1 36.425(15) 5 5 ?
Se1 Cs1 Zn1 77.65(3) 5_455 5 ?
Se1 Cs1 Zn1 114.227(15) 9_565 5 ?
Se1 Cs1 Zn1 114.227(15) 2_565 5 ?
Se2 Cs1 Zn1 113.13(3) 5_455 5_455 ?
Se2 Cs1 Zn1 175.637(16) 5 5_455 ?
Se1 Cs1 Zn1 77.65(3) 14_556 5_455 ?
Se1 Cs1 Zn1 36.425(15) 14_456 5_455 ?
Se1 Cs1 Zn1 77.65(3) 5 5_455 ?
Se1 Cs1 Zn1 36.425(15) 5_455 5_455 ?
Se1 Cs1 Zn1 114.227(15) 9_565 5_455 ?
Se1 Cs1 Zn1 114.227(15) 2_565 5_455 ?
Zn1 Cs1 Zn1 62.51(3) 5 5_455 ?
Se2 Cs1 Cs1 125.617(17) 5_455 1_655 ?
Se2 Cs1 Cs1 54.383(17) 5 1_655 ?
Se1 Cs1 Cs1 55.298(13) 14_556 1_655 ?
Se1 Cs1 Cs1 124.702(13) 14_456 1_655 ?
Se1 Cs1 Cs1 55.298(13) 5 1_655 ?
Se1 Cs1 Cs1 124.702(13) 5_455 1_655 ?
Se1 Cs1 Cs1 90.0 9_565 1_655 ?
Se1 Cs1 Cs1 90.0 2_565 1_655 ?
Zn1 Cs1 Cs1 58.746(15) 5 1_655 ?
Zn1 Cs1 Cs1 121.254(15) 5_455 1_655 ?
Se2 Cs1 Cs1 54.383(17) 5_455 1_455 ?
Se2 Cs1 Cs1 125.617(17) 5 1_455 ?
Se1 Cs1 Cs1 124.702(13) 14_556 1_455 ?
Se1 Cs1 Cs1 55.298(13) 14_456 1_455 ?
Se1 Cs1 Cs1 124.702(13) 5 1_455 ?
Se1 Cs1 Cs1 55.298(13) 5_455 1_455 ?
Se1 Cs1 Cs1 90.0 9_565 1_455 ?
Se1 Cs1 Cs1 90.0 2_565 1_455 ?
Zn1 Cs1 Cs1 121.254(15) 5 1_455 ?
Zn1 Cs1 Cs1 58.746(15) 5_455 1_455 ?
Cs1 Cs1 Cs1 180.00(3) 1_655 1_455 ?
Zn1 Se1 Sm1 82.30(3) . 5 ?
Zn1 Se1 Sm1 82.30(3) . 5_455 ?
Sm1 Se1 Sm1 92.28(3) 5 5_455 ?
Zn1 Se1 Cs1 79.81(3) . 5_445 ?
Sm1 Se1 Cs1 158.85(2) 5 5_445 ?
Sm1 Se1 Cs1 96.41(2) 5_455 5_445 ?
Zn1 Se1 Cs1 79.81(3) . 5_545 ?
Sm1 Se1 Cs1 96.41(2) 5 5_545 ?
Sm1 Se1 Cs1 158.85(2) 5_455 5_545 ?
Cs1 Se1 Cs1 69.40(3) 5_445 5_545 ?
Zn1 Se1 Cs1 177.54(3) . 9_565 ?
Sm1 Se1 Cs1 96.01(2) 5 9_565 ?
Sm1 Se1 Cs1 96.01(2) 5_455 9_565 ?
Cs1 Se1 Cs1 102.19(2) 5_445 9_565 ?
Cs1 Se1 Cs1 102.19(2) 5_545 9_565 ?
Zn1 Se2 Zn1 109.03(6) 5_445 5_545 ?
Zn1 Se2 Sm1 80.084(17) 5_445 . ?
Zn1 Se2 Sm1 80.084(17) 5_545 . ?
Zn1 Se2 Sm1 80.084(17) 5_445 2 ?
Zn1 Se2 Sm1 80.084(17) 5_545 2 ?
Sm1 Se2 Sm1 145.49(4) . 2 ?
Zn1 Se2 Cs1 161.10(3) 5_445 5_545 ?
Zn1 Se2 Cs1 89.87(3) 5_545 5_545 ?
Sm1 Se2 Cs1 103.955(15) . 5_545 ?
Sm1 Se2 Cs1 103.955(15) 2 5_545 ?
Zn1 Se2 Cs1 89.87(3) 5_445 5_445 ?
Zn1 Se2 Cs1 161.10(3) 5_545 5_445 ?
Sm1 Se2 Cs1 103.955(15) . 5_445 ?
Sm1 Se2 Cs1 103.955(15) 2 5_445 ?
Cs1 Se2 Cs1 71.23(3) 5_545 5_445 ?
Se1 Zn1 Se1 117.72(6) . 10_556 ?
Se1 Zn1 Se2 107.470(15) . 5 ?
Se1 Zn1 Se2 107.470(15) 10_556 5 ?
Se1 Zn1 Se2 107.470(15) . 5_455 ?
Se1 Zn1 Se2 107.470(15) 10_556 5_455 ?
Se2 Zn1 Se2 109.03(6) 5 5_455 ?
Se1 Zn1 Sm1 139.86(2) . 6 ?
Se1 Zn1 Sm1 54.592(19) 10_556 6 ?
Se2 Zn1 Sm1 54.073(14) 5 6 ?
Se2 Zn1 Sm1 112.27(3) 5_455 6 ?
Se1 Zn1 Sm1 54.592(19) . 5_455 ?
Se1 Zn1 Sm1 139.86(2) 10_556 5_455 ?
Se2 Zn1 Sm1 112.27(3) 5 5_455 ?
Se2 Zn1 Sm1 54.074(14) 5_455 5_455 ?
Sm1 Zn1 Sm1 159.39(4) 6 5_455 ?
Se1 Zn1 Sm1 139.86(2) . 6_455 ?
Se1 Zn1 Sm1 54.592(19) 10_556 6_455 ?
Se2 Zn1 Sm1 112.27(3) 5 6_455 ?
Se2 Zn1 Sm1 54.074(14) 5_455 6_455 ?
Sm1 Zn1 Sm1 72.75(3) 6 6_455 ?
Sm1 Zn1 Sm1 103.45(3) 5_455 6_455 ?
Se1 Zn1 Sm1 54.592(19) . 5 ?
Se1 Zn1 Sm1 139.86(2) 10_556 5 ?
Se2 Zn1 Sm1 54.074(14) 5 5 ?
Se2 Zn1 Sm1 112.27(3) 5_455 5 ?
Sm1 Zn1 Sm1 103.45(3) 6 5 ?
Sm1 Zn1 Sm1 72.75(3) 5_455 5 ?
Sm1 Zn1 Sm1 159.39(4) 6_455 5 ?
Se1 Zn1 Cs1 63.76(3) . 5_445 ?
Se1 Zn1 Cs1 63.76(3) 10_556 5_445 ?
Se2 Zn1 Cs1 156.74(4) 5 5_445 ?
Se2 Zn1 Cs1 94.23(3) 5_455 5_445 ?
Sm1 Zn1 Cs1 117.43(2) 6 5_445 ?
Sm1 Zn1 Cs1 81.098(18) 5_455 5_445 ?
Sm1 Zn1 Cs1 81.098(18) 6_455 5_445 ?
Sm1 Zn1 Cs1 117.43(2) 5 5_445 ?
Se1 Zn1 Cs1 63.76(3) . 5_545 ?
Se1 Zn1 Cs1 63.76(3) 10_556 5_545 ?
Se2 Zn1 Cs1 94.23(3) 5 5_545 ?
Se2 Zn1 Cs1 156.74(4) 5_455 5_545 ?
Sm1 Zn1 Cs1 81.098(18) 6 5_545 ?
Sm1 Zn1 Cs1 117.43(2) 5_455 5_545 ?
Sm1 Zn1 Cs1 117.43(2) 6_455 5_545 ?
Sm1 Zn1 Cs1 81.098(18) 5 5_545 ?
Cs1 Zn1 Cs1 62.51(3) 5_445 5_545 ?
Se1 Zn1 Cs1 121.14(3) . . ?
Se1 Zn1 Cs1 121.14(3) 10_556 . ?
Se2 Zn1 Cs1 54.52(3) 5 . ?
Se2 Zn1 Cs1 54.52(3) 5_455 . ?
Sm1 Zn1 Cs1 79.694(19) 6 . ?
Sm1 Zn1 Cs1 79.694(19) 5_455 . ?
Sm1 Zn1 Cs1 79.694(19) 6_455 . ?
Sm1 Zn1 Cs1 79.694(19) 5 . ?
Cs1 Zn1 Cs1 148.746(15) 5_445 . ?
Cs1 Zn1 Cs1 148.746(15) 5_545 . ?
loop_
_geom_bond_atom_site_label_1
_geom_bond_atom_site_label_2
_geom_bond_distance
_geom_bond_site_symmetry_2
_geom_bond_publ_flag
Sm1 Se2 2.9065(9) 9 ?
Sm1 Se2 2.9065(9) . ?
Sm1 Se1 2.9079(8) 13 ?
Sm1 Se1 2.9079(8) 5_445 ?
Sm1 Se1 2.9079(8) 13_455 ?
Sm1 Se1 2.9079(8) 5_545 ?
Sm1 Zn1 3.5356(8) 13_455 ?
Sm1 Zn1 3.5356(8) 5_545 ?
Sm1 Zn1 3.5356(8) 13 ?
Sm1 Zn1 3.5356(8) 5_445 ?
Sm1 Cs1 4.9407(13) 1_545 ?
Sm1 Cs1 4.9407(13) 9_565 ?
Cs1 Se2 3.6004(13) 5_455 ?
Cs1 Se2 3.6004(13) 5 ?
Cs1 Se1 3.6830(10) 14_556 ?
Cs1 Se1 3.6830(10) 14_456 ?
Cs1 Se1 3.6830(10) 5 ?
Cs1 Se1 3.6830(10) 5_455 ?
Cs1 Se1 3.9493(13) 9_565 ?
Cs1 Se1 3.9493(13) 2_565 ?
Cs1 Zn1 4.0413(15) 5 ?
Cs1 Zn1 4.0413(15) 5_455 ?
Cs1 Cs1 4.1935(14) 1_655 ?
Cs1 Cs1 4.1935(14) 1_455 ?
Se1 Zn1 2.4380(11) . ?
Se1 Sm1 2.9079(8) 5 ?
Se1 Sm1 2.9079(8) 5_455 ?
Se1 Cs1 3.6830(10) 5_445 ?
Se1 Cs1 3.6830(10) 5_545 ?
Se1 Cs1 3.9493(13) 9_565 ?
Se2 Zn1 2.5750(11) 5_445 ?
Se2 Zn1 2.5750(11) 5_545 ?
Se2 Sm1 2.9065(9) 2 ?
Se2 Cs1 3.6004(13) 5_545 ?
Se2 Cs1 3.6004(13) 5_445 ?
Zn1 Se1 2.4380(11) 10_556 ?
Zn1 Se2 2.5750(11) 5 ?
Zn1 Se2 2.5750(11) 5_455 ?
Zn1 Sm1 3.5356(8) 6 ?
Zn1 Sm1 3.5356(8) 5_455 ?
Zn1 Sm1 3.5356(8) 6_455 ?
Zn1 Sm1 3.5356(8) 5 ?
Zn1 Cs1 4.0413(15) 5_445 ?
Zn1 Cs1 4.0413(15) 5_545 ?
