#------------------------------------------------------------------------------
#$Date: 2016-03-23 03:40:25 +0200 (Wed, 23 Mar 2016) $
#$Revision: 179256 $
#$URL: svn://www.crystallography.net/cod/cif/4/31/76/4317672.cif $
#------------------------------------------------------------------------------
#
# This file is available in the Crystallography Open Database (COD),
# http://www.crystallography.net/
#
# All data on this site have been placed in the public domain by the
# contributors.
#
data_4317672
loop_
_publ_author_name
'Kwasi Mitchell'
'Christy L. Haynes'
'Adam D. McFarland'
'Richard P. Van Duyne'
'James A. Ibers'
_publ_section_title
;
 Tuning of Optical Band Gaps: Syntheses, Structures, Magnetic Properties,
 and Optical Properties of CsLnZnSe3 (Ln = Sm, Tb, Dy, Ho, Er, Tm, Yb, and
 Y)
;
_journal_name_full               'Inorganic Chemistry'
_journal_page_first              1199
_journal_page_last               1204
_journal_paper_doi               10.1021/ic011200u
_journal_volume                  41
_journal_year                    2002
_chemical_formula_sum            'Cs Dy Se3 Zn'
_chemical_formula_weight         597.66
_chemical_name_systematic
; 
 ? 
;
_space_group_IT_number           63
_symmetry_cell_setting           orthorhombic
_symmetry_space_group_name_Hall  '-C 2c 2'
_symmetry_space_group_name_H-M   'C m c m'
_atom_sites_solution_hydrogens   geom
_atom_sites_solution_primary     direct
_atom_sites_solution_secondary   difmap
_audit_creation_method           SHELXL-97
_cell_angle_alpha                90.00
_cell_angle_beta                 90.00
_cell_angle_gamma                90.00
_cell_formula_units_Z            4
_cell_length_a                   4.1282(9)
_cell_length_b                   15.767(4)
_cell_length_c                   10.910(3)
_cell_measurement_temperature    153(2)
_cell_volume                     710.1(3)
_computing_cell_refinement       'SMART version 5.054 (Bruker, 2000)'
_computing_data_collection       'SMART version 5.054 (Bruker, 2000)'
_computing_data_reduction        'SAINT-Plus version 6.02A (Bruker, 2000)'
_computing_molecular_graphics    'SHELXTL-97 (Sheldrick, 1997)'
_computing_publication_material  'SHELXTL-97 (Sheldrick, 1997)'
_computing_structure_refinement  'SHELXL-97 (Sheldrick, 1997)'
_computing_structure_solution    'SHELXS-97 (Sheldrick, 1990)'
_diffrn_ambient_temperature      153(2)
_diffrn_measured_fraction_theta_full 0.959
_diffrn_measured_fraction_theta_max 0.959
_diffrn_measurement_device_type  'Bruker Smart 1000 CCD'
_diffrn_measurement_method       \w
_diffrn_radiation_monochromator  graphite
_diffrn_radiation_source         'fine-focus sealed tube'
_diffrn_radiation_type           MoK\a
_diffrn_radiation_wavelength     0.71073
_diffrn_reflns_av_R_equivalents  0.0486
_diffrn_reflns_av_sigmaI/netI    0.0359
_diffrn_reflns_limit_h_max       5
_diffrn_reflns_limit_h_min       -5
_diffrn_reflns_limit_k_max       20
_diffrn_reflns_limit_k_min       -20
_diffrn_reflns_limit_l_max       14
_diffrn_reflns_limit_l_min       -14
_diffrn_reflns_number            3094
_diffrn_reflns_theta_full        28.86
_diffrn_reflns_theta_max         28.86
_diffrn_reflns_theta_min         2.58
_diffrn_standards_decay_%        <2
_diffrn_standards_interval_count none
_diffrn_standards_interval_time  none
_diffrn_standards_number         none
_exptl_absorpt_coefficient_mu    34.117
_exptl_absorpt_correction_T_max  0.26680
_exptl_absorpt_correction_T_min  0.10541
_exptl_absorpt_correction_type   numerical
_exptl_absorpt_process_details   'faces indexed'
_exptl_crystal_colour            gray
_exptl_crystal_density_diffrn    5.590
_exptl_crystal_density_meas      ?
_exptl_crystal_density_method    'not measured'
_exptl_crystal_description       plate
_exptl_crystal_F_000             1012
_exptl_crystal_size_max          0.096
_exptl_crystal_size_mid          0.046
_exptl_crystal_size_min          0.014
_refine_diff_density_max         1.828
_refine_diff_density_min         -2.466
_refine_diff_density_rms         0.657
_refine_ls_extinction_coef       0.0017(2)
_refine_ls_extinction_expression Fc^*^=kFc[1+0.001xFc^2^\l^3^/sin(2\q)]^-1/4^
_refine_ls_extinction_method     SHELXL
_refine_ls_goodness_of_fit_ref   1.083
_refine_ls_hydrogen_treatment    mixed
_refine_ls_matrix_type           full
_refine_ls_number_parameters     24
_refine_ls_number_reflns         535
_refine_ls_number_restraints     0
_refine_ls_restrained_S_all      1.083
_refine_ls_R_factor_all          0.0311
_refine_ls_R_factor_gt           0.0270
_refine_ls_shift/su_max          0.000
_refine_ls_shift/su_mean         0.000
_refine_ls_structure_factor_coef Fsqd
_refine_ls_weighting_details
; calc 
 [1.00000+0.00000exp(0.00(sin\q/\l)^2^)]/ 
   [\s^2^(Fo^2^)+0.0000+0.0000*P+(0.0400P)^2^+0.0000sin\q/\l] 
 where P = 1.00000Fo^2^ + 0.00000Fc^2^ 
;
_refine_ls_weighting_scheme      calc
_refine_ls_wR_factor_gt          0.0657
_refine_ls_wR_factor_ref         0.0675
_reflns_number_gt                477
_reflns_number_total             535
_reflns_threshold_expression     >2sigma(I)
_cod_data_source_file            ic011200u_3.cif
_cod_data_source_block           CsDyZnSe3
_cod_depositor_comments
;
The following automatic conversions were performed:

'_exptl_crystal_density_meas' value 'not measured' was changed to '?'
- the value is perceived as not measured.

Automatic conversion script
Id: cif_fix_values 3008 2015-01-20 13:52:24Z robertas 
;
_cod_database_code               4317672
loop_
_symmetry_equiv_pos_as_xyz
'x, y, z'
'-x, -y, z+1/2'
'-x, y, -z+1/2'
'x, -y, -z'
'x+1/2, y+1/2, z'
'-x+1/2, -y+1/2, z+1/2'
'-x+1/2, y+1/2, -z+1/2'
'x+1/2, -y+1/2, -z'
'-x, -y, -z'
'x, y, -z-1/2'
'x, -y, z-1/2'
'-x, y, z'
'-x+1/2, -y+1/2, -z'
'x+1/2, y+1/2, -z-1/2'
'x+1/2, -y+1/2, z-1/2'
'-x+1/2, y+1/2, z'
loop_
_atom_site_label
_atom_site_type_symbol
_atom_site_fract_x
_atom_site_fract_y
_atom_site_fract_z
_atom_site_U_iso_or_equiv
_atom_site_adp_type
_atom_site_occupancy
_atom_site_symmetry_multiplicity
_atom_site_calc_flag
_atom_site_refinement_flags
_atom_site_disorder_assembly
_atom_site_disorder_group
Dy1 Dy 0.0000 0.0000 0.0000 0.0079(2) Uani 1 4 d S . .
Cs1 Cs 0.0000 0.74096(4) 0.2500 0.0141(2) Uani 1 4 d S . .
Se1 Se 0.0000 0.38134(5) 0.05822(6) 0.0085(2) Uani 1 2 d S . .
Se2 Se 0.0000 0.05468(6) 0.2500 0.0079(2) Uani 1 4 d S . .
Zn1 Zn 0.0000 0.46010(8) 0.2500 0.0095(3) Uani 1 4 d S . .
loop_
_atom_site_aniso_label
_atom_site_aniso_U_11
_atom_site_aniso_U_22
_atom_site_aniso_U_33
_atom_site_aniso_U_23
_atom_site_aniso_U_13
_atom_site_aniso_U_12
Dy1 0.0068(3) 0.0094(3) 0.0075(3) 0.00028(16) 0.000 0.000
Cs1 0.0115(4) 0.0105(4) 0.0203(4) 0.000 0.000 0.000
Se1 0.0081(4) 0.0081(4) 0.0093(4) -0.0004(2) 0.000 0.000
Se2 0.0079(5) 0.0085(5) 0.0073(5) 0.000 0.000 0.000
Zn1 0.0096(6) 0.0108(6) 0.0081(6) 0.000 0.000 0.000
loop_
_atom_type_symbol
_atom_type_description
_atom_type_scat_dispersion_real
_atom_type_scat_dispersion_imag
_atom_type_scat_source
Zn Zn 0.2839 1.4301 'International Tables Vol C Tables 4.2.6.8 and 6.1.1.4'
Se Se -0.0929 2.2259 'International Tables Vol C Tables 4.2.6.8 and 6.1.1.4'
Cs Cs -0.3680 2.1192 'International Tables Vol C Tables 4.2.6.8 and 6.1.1.4'
Dy Dy -0.1892 4.4098 'International Tables Vol C Tables 4.2.6.8 and 6.1.1.4'
loop_
_geom_angle_atom_site_label_1
_geom_angle_atom_site_label_2
_geom_angle_atom_site_label_3
_geom_angle
_geom_angle_site_symmetry_1
_geom_angle_site_symmetry_3
_geom_angle_publ_flag
Se1 Dy1 Se1 180.00(4) 13 5_445 ?
Se1 Dy1 Se1 92.51(3) 13 13_455 ?
Se1 Dy1 Se1 87.49(3) 5_445 13_455 ?
Se1 Dy1 Se1 87.49(3) 13 5_545 ?
Se1 Dy1 Se1 92.51(3) 5_445 5_545 ?
Se1 Dy1 Se1 180.00(4) 13_455 5_545 ?
Se1 Dy1 Se2 89.16(2) 13 9 ?
Se1 Dy1 Se2 90.84(2) 5_445 9 ?
Se1 Dy1 Se2 89.16(2) 13_455 9 ?
Se1 Dy1 Se2 90.84(2) 5_545 9 ?
Se1 Dy1 Se2 90.84(2) 13 . ?
Se1 Dy1 Se2 89.16(2) 5_445 . ?
Se1 Dy1 Se2 90.84(2) 13_455 . ?
Se1 Dy1 Se2 89.16(2) 5_545 . ?
Se2 Dy1 Se2 180.0 9 . ?
Se1 Dy1 Zn1 97.81(2) 13 13_455 ?
Se1 Dy1 Zn1 82.19(2) 5_445 13_455 ?
Se1 Dy1 Zn1 43.82(2) 13_455 13_455 ?
Se1 Dy1 Zn1 136.18(2) 5_545 13_455 ?
Se2 Dy1 Zn1 46.11(2) 9 13_455 ?
Se2 Dy1 Zn1 133.89(2) . 13_455 ?
Se1 Dy1 Zn1 82.19(2) 13 5_545 ?
Se1 Dy1 Zn1 97.81(2) 5_445 5_545 ?
Se1 Dy1 Zn1 136.18(2) 13_455 5_545 ?
Se1 Dy1 Zn1 43.82(2) 5_545 5_545 ?
Se2 Dy1 Zn1 133.89(2) 9 5_545 ?
Se2 Dy1 Zn1 46.11(2) . 5_545 ?
Zn1 Dy1 Zn1 180.00(4) 13_455 5_545 ?
Se1 Dy1 Zn1 43.82(2) 13 13 ?
Se1 Dy1 Zn1 136.18(2) 5_445 13 ?
Se1 Dy1 Zn1 97.81(2) 13_455 13 ?
Se1 Dy1 Zn1 82.19(2) 5_545 13 ?
Se2 Dy1 Zn1 46.11(2) 9 13 ?
Se2 Dy1 Zn1 133.89(2) . 13 ?
Zn1 Dy1 Zn1 72.809(18) 13_455 13 ?
Zn1 Dy1 Zn1 107.191(18) 5_545 13 ?
Se1 Dy1 Zn1 136.18(2) 13 5_445 ?
Se1 Dy1 Zn1 43.82(2) 5_445 5_445 ?
Se1 Dy1 Zn1 82.19(2) 13_455 5_445 ?
Se1 Dy1 Zn1 97.81(2) 5_545 5_445 ?
Se2 Dy1 Zn1 133.89(2) 9 5_445 ?
Se2 Dy1 Zn1 46.11(2) . 5_445 ?
Zn1 Dy1 Zn1 107.191(18) 13_455 5_445 ?
Zn1 Dy1 Zn1 72.809(18) 5_545 5_445 ?
Zn1 Dy1 Zn1 180.00(4) 13 5_445 ?
Se2 Cs1 Se2 70.20(3) 5_455 5 ?
Se2 Cs1 Se1 144.562(15) 5_455 14_556 ?
Se2 Cs1 Se1 99.764(18) 5 14_556 ?
Se2 Cs1 Se1 99.764(18) 5_455 14_456 ?
Se2 Cs1 Se1 144.562(15) 5 14_456 ?
Se1 Cs1 Se1 68.25(2) 14_556 14_456 ?
Se2 Cs1 Se1 99.764(18) 5_455 5_455 ?
Se2 Cs1 Se1 144.562(15) 5 5_455 ?
Se1 Cs1 Se1 106.04(3) 14_556 5_455 ?
Se1 Cs1 Se1 69.32(3) 14_456 5_455 ?
Se2 Cs1 Se1 144.562(15) 5_455 5 ?
Se2 Cs1 Se1 99.764(18) 5 5 ?
Se1 Cs1 Se1 69.32(3) 14_556 5 ?
Se1 Cs1 Se1 106.04(3) 14_456 5 ?
Se1 Cs1 Se1 68.25(2) 5_455 5 ?
Se2 Cs1 Se1 65.985(14) 5_455 9_565 ?
Se2 Cs1 Se1 65.985(14) 5 9_565 ?
Se1 Cs1 Se1 142.426(13) 14_556 9_565 ?
Se1 Cs1 Se1 142.426(13) 14_456 9_565 ?
Se1 Cs1 Se1 78.81(2) 5_455 9_565 ?
Se1 Cs1 Se1 78.81(2) 5 9_565 ?
Se2 Cs1 Se1 65.985(14) 5_455 2_565 ?
Se2 Cs1 Se1 65.985(14) 5 2_565 ?
Se1 Cs1 Se1 78.81(2) 14_556 2_565 ?
Se1 Cs1 Se1 78.81(2) 14_456 2_565 ?
Se1 Cs1 Se1 142.426(13) 5_455 2_565 ?
Se1 Cs1 Se1 142.426(13) 5 2_565 ?
Se1 Cs1 Se1 120.34(3) 9_565 2_565 ?
Se2 Cs1 Zn1 175.754(17) 5_455 5 ?
Se2 Cs1 Zn1 114.05(2) 5 5 ?
Se1 Cs1 Zn1 36.473(14) 14_556 5 ?
Se1 Cs1 Zn1 76.78(2) 14_456 5 ?
Se1 Cs1 Zn1 76.78(2) 5_455 5 ?
Se1 Cs1 Zn1 36.473(14) 5 5 ?
Se1 Cs1 Zn1 115.279(13) 9_565 5 ?
Se1 Cs1 Zn1 115.279(13) 2_565 5 ?
Se2 Cs1 Zn1 114.05(2) 5_455 5_455 ?
Se2 Cs1 Zn1 175.754(17) 5 5_455 ?
Se1 Cs1 Zn1 76.78(2) 14_556 5_455 ?
Se1 Cs1 Zn1 36.473(14) 14_456 5_455 ?
Se1 Cs1 Zn1 36.473(14) 5_455 5_455 ?
Se1 Cs1 Zn1 76.78(2) 5 5_455 ?
Se1 Cs1 Zn1 115.279(13) 9_565 5_455 ?
Se1 Cs1 Zn1 115.279(13) 2_565 5_455 ?
Zn1 Cs1 Zn1 61.71(3) 5 5_455 ?
Se2 Cs1 Cs1 125.100(14) 5_455 1_655 ?
Se2 Cs1 Cs1 54.900(14) 5 1_655 ?
Se1 Cs1 Cs1 55.875(11) 14_556 1_655 ?
Se1 Cs1 Cs1 124.125(10) 14_456 1_655 ?
Se1 Cs1 Cs1 124.125(10) 5_455 1_655 ?
Se1 Cs1 Cs1 55.875(11) 5 1_655 ?
Se1 Cs1 Cs1 90.0 9_565 1_655 ?
Se1 Cs1 Cs1 90.0 2_565 1_655 ?
Zn1 Cs1 Cs1 59.146(13) 5 1_655 ?
Zn1 Cs1 Cs1 120.854(13) 5_455 1_655 ?
Se2 Cs1 Cs1 54.900(14) 5_455 1_455 ?
Se2 Cs1 Cs1 125.100(14) 5 1_455 ?
Se1 Cs1 Cs1 124.125(10) 14_556 1_455 ?
Se1 Cs1 Cs1 55.875(11) 14_456 1_455 ?
Se1 Cs1 Cs1 55.875(11) 5_455 1_455 ?
Se1 Cs1 Cs1 124.125(10) 5 1_455 ?
Se1 Cs1 Cs1 90.0 9_565 1_455 ?
Se1 Cs1 Cs1 90.0 2_565 1_455 ?
Zn1 Cs1 Cs1 120.854(13) 5 1_455 ?
Zn1 Cs1 Cs1 59.146(13) 5_455 1_455 ?
Cs1 Cs1 Cs1 180.00(4) 1_655 1_455 ?
Zn1 Se1 Dy1 81.78(3) . 5 ?
Zn1 Se1 Dy1 81.78(3) . 5_455 ?
Dy1 Se1 Dy1 92.51(3) 5 5_455 ?
Zn1 Se1 Cs1 79.51(3) . 5_545 ?
Dy1 Se1 Cs1 96.606(17) 5 5_545 ?
Dy1 Se1 Cs1 157.76(2) 5_455 5_545 ?
Zn1 Se1 Cs1 79.51(3) . 5_445 ?
Dy1 Se1 Cs1 157.76(2) 5 5_445 ?
Dy1 Se1 Cs1 96.606(17) 5_455 5_445 ?
Cs1 Se1 Cs1 68.25(2) 5_545 5_445 ?
Zn1 Se1 Cs1 179.14(4) . 9_565 ?
Dy1 Se1 Cs1 97.63(2) 5 9_565 ?
Dy1 Se1 Cs1 97.63(2) 5_455 9_565 ?
Cs1 Se1 Cs1 101.19(2) 5_545 9_565 ?
Cs1 Se1 Cs1 101.19(2) 5_445 9_565 ?
Zn1 Se2 Zn1 108.31(6) 5_445 5_545 ?
Zn1 Se2 Dy1 79.834(18) 5_445 . ?
Zn1 Se2 Dy1 79.834(18) 5_545 . ?
Zn1 Se2 Dy1 79.834(18) 5_445 2 ?
Zn1 Se2 Dy1 79.834(18) 5_545 2 ?
Dy1 Se2 Dy1 144.92(4) . 2 ?
Zn1 Se2 Cs1 160.95(4) 5_445 5_545 ?
Zn1 Se2 Cs1 90.75(3) 5_545 5_545 ?
Dy1 Se2 Cs1 104.276(15) . 5_545 ?
Dy1 Se2 Cs1 104.276(15) 2 5_545 ?
Zn1 Se2 Cs1 90.75(3) 5_445 5_445 ?
Zn1 Se2 Cs1 160.95(4) 5_545 5_445 ?
Dy1 Se2 Cs1 104.276(15) . 5_445 ?
Dy1 Se2 Cs1 104.276(15) 2 5_445 ?
Cs1 Se2 Cs1 70.20(3) 5_545 5_445 ?
Se1 Zn1 Se1 118.62(6) . 10_556 ?
Se1 Zn1 Se2 107.391(14) . 5 ?
Se1 Zn1 Se2 107.391(14) 10_556 5 ?
Se1 Zn1 Se2 107.391(14) . 5_455 ?
Se1 Zn1 Se2 107.391(14) 10_556 5_455 ?
Se2 Zn1 Se2 108.31(6) 5 5_455 ?
Se1 Zn1 Dy1 140.06(2) . 6 ?
Se1 Zn1 Dy1 54.400(16) 10_556 6 ?
Se2 Zn1 Dy1 54.057(11) 5 6 ?
Se2 Zn1 Dy1 112.03(3) 5_455 6 ?
Se1 Zn1 Dy1 54.400(16) . 5_455 ?
Se1 Zn1 Dy1 140.06(2) 10_556 5_455 ?
Se2 Zn1 Dy1 112.03(3) 5 5_455 ?
Se2 Zn1 Dy1 54.057(11) 5_455 5_455 ?
Dy1 Zn1 Dy1 159.16(4) 6 5_455 ?
Se1 Zn1 Dy1 140.06(2) . 6_455 ?
Se1 Zn1 Dy1 54.400(16) 10_556 6_455 ?
Se2 Zn1 Dy1 112.03(3) 5 6_455 ?
Se2 Zn1 Dy1 54.057(11) 5_455 6_455 ?
Dy1 Zn1 Dy1 72.809(18) 6 6_455 ?
Dy1 Zn1 Dy1 103.305(19) 5_455 6_455 ?
Se1 Zn1 Dy1 54.400(16) . 5 ?
Se1 Zn1 Dy1 140.06(2) 10_556 5 ?
Se2 Zn1 Dy1 54.057(11) 5 5 ?
Se2 Zn1 Dy1 112.03(3) 5_455 5 ?
Dy1 Zn1 Dy1 103.305(19) 6 5 ?
Dy1 Zn1 Dy1 72.809(18) 5_455 5 ?
Dy1 Zn1 Dy1 159.16(4) 6_455 5 ?
Se1 Zn1 Cs1 64.01(3) . 5_445 ?
Se1 Zn1 Cs1 64.01(3) 10_556 5_445 ?
Se2 Zn1 Cs1 156.70(4) 5 5_445 ?
Se2 Zn1 Cs1 94.99(3) 5_455 5_445 ?
Dy1 Zn1 Cs1 117.36(2) 6 5_445 ?
Dy1 Zn1 Cs1 81.425(16) 5_455 5_445 ?
Dy1 Zn1 Cs1 81.425(16) 6_455 5_445 ?
Dy1 Zn1 Cs1 117.36(2) 5 5_445 ?
Se1 Zn1 Cs1 64.01(3) . 5_545 ?
Se1 Zn1 Cs1 64.01(3) 10_556 5_545 ?
Se2 Zn1 Cs1 94.99(3) 5 5_545 ?
Se2 Zn1 Cs1 156.70(4) 5_455 5_545 ?
Dy1 Zn1 Cs1 81.425(16) 6 5_545 ?
Dy1 Zn1 Cs1 117.36(2) 5_455 5_545 ?
Dy1 Zn1 Cs1 117.36(2) 6_455 5_545 ?
Dy1 Zn1 Cs1 81.425(16) 5 5_545 ?
Cs1 Zn1 Cs1 61.71(3) 5_445 5_545 ?
Se1 Zn1 Cs1 120.69(3) . . ?
Se1 Zn1 Cs1 120.69(3) 10_556 . ?
Se2 Zn1 Cs1 54.15(3) 5 . ?
Se2 Zn1 Cs1 54.15(3) 5_455 . ?
Dy1 Zn1 Cs1 79.58(2) 6 . ?
Dy1 Zn1 Cs1 79.58(2) 5_455 . ?
Dy1 Zn1 Cs1 79.58(2) 6_455 . ?
Dy1 Zn1 Cs1 79.58(2) 5 . ?
Cs1 Zn1 Cs1 149.146(13) 5_445 . ?
Cs1 Zn1 Cs1 149.146(13) 5_545 . ?
loop_
_geom_bond_atom_site_label_1
_geom_bond_atom_site_label_2
_geom_bond_distance
_geom_bond_site_symmetry_2
_geom_bond_publ_flag
Dy1 Se1 2.8573(7) 13 ?
Dy1 Se1 2.8573(7) 5_445 ?
Dy1 Se1 2.8573(7) 13_455 ?
Dy1 Se1 2.8573(7) 5_545 ?
Dy1 Se2 2.8606(7) 9 ?
Dy1 Se2 2.8606(7) . ?
Dy1 Zn1 3.4779(6) 13_455 ?
Dy1 Zn1 3.4779(6) 5_545 ?
Dy1 Zn1 3.4779(6) 13 ?
Dy1 Zn1 3.4779(6) 5_445 ?
Cs1 Se2 3.5897(12) 5_455 ?
Cs1 Se2 3.5897(12) 5 ?
Cs1 Se1 3.6793(9) 14_556 ?
Cs1 Se1 3.6793(9) 14_456 ?
Cs1 Se1 3.6793(9) 5_455 ?
Cs1 Se1 3.6793(9) 5 ?
Cs1 Se1 3.8765(10) 9_565 ?
Cs1 Se1 3.8765(10) 2_565 ?
Cs1 Zn1 4.0247(14) 5 ?
Cs1 Zn1 4.0247(14) 5_455 ?
Cs1 Cs1 4.1282(9) 1_655 ?
Cs1 Cs1 4.1282(9) 1_455 ?
Se1 Zn1 2.4331(10) . ?
Se1 Dy1 2.8573(7) 5 ?
Se1 Dy1 2.8573(7) 5_455 ?
Se1 Cs1 3.6793(9) 5_545 ?
Se1 Cs1 3.6793(9) 5_445 ?
Se1 Cs1 3.8765(10) 9_565 ?
Se2 Zn1 2.5464(11) 5_445 ?
Se2 Zn1 2.5464(11) 5_545 ?
Se2 Dy1 2.8606(7) 2 ?
Se2 Cs1 3.5897(12) 5_545 ?
Se2 Cs1 3.5897(12) 5_445 ?
Zn1 Se1 2.4331(10) 10_556 ?
Zn1 Se2 2.5464(11) 5 ?
Zn1 Se2 2.5464(11) 5_455 ?
Zn1 Dy1 3.4779(6) 6 ?
Zn1 Dy1 3.4779(6) 5_455 ?
Zn1 Dy1 3.4779(6) 6_455 ?
Zn1 Dy1 3.4779(6) 5 ?
Zn1 Cs1 4.0247(14) 5_445 ?
Zn1 Cs1 4.0247(14) 5_545 ?
