#------------------------------------------------------------------------------
#$Date: 2016-03-23 03:40:25 +0200 (Wed, 23 Mar 2016) $
#$Revision: 179256 $
#$URL: svn://www.crystallography.net/cod/cif/4/31/76/4317676.cif $
#------------------------------------------------------------------------------
#
# This file is available in the Crystallography Open Database (COD),
# http://www.crystallography.net/
#
# All data on this site have been placed in the public domain by the
# contributors.
#
data_4317676
loop_
_publ_author_name
'Kwasi Mitchell'
'Christy L. Haynes'
'Adam D. McFarland'
'Richard P. Van Duyne'
'James A. Ibers'
_publ_section_title
;
 Tuning of Optical Band Gaps: Syntheses, Structures, Magnetic Properties,
 and Optical Properties of CsLnZnSe3 (Ln = Sm, Tb, Dy, Ho, Er, Tm, Yb, and
 Y)
;
_journal_name_full               'Inorganic Chemistry'
_journal_page_first              1199
_journal_page_last               1204
_journal_paper_doi               10.1021/ic011200u
_journal_volume                  41
_journal_year                    2002
_chemical_formula_sum            'Cs Se3 Yb Zn'
_chemical_formula_weight         608.20
_chemical_name_systematic
; 
 ? 
;
_space_group_IT_number           63
_symmetry_cell_setting           orthorhombic
_symmetry_space_group_name_Hall  '-C 2c 2'
_symmetry_space_group_name_H-M   'C m c m'
_atom_sites_solution_hydrogens   geom
_atom_sites_solution_primary     direct
_atom_sites_solution_secondary   difmap
_audit_creation_method           SHELXL-97
_cell_angle_alpha                90.00
_cell_angle_beta                 90.00
_cell_angle_gamma                90.00
_cell_formula_units_Z            4
_cell_length_a                   4.0853(4)
_cell_length_b                   15.7864(15)
_cell_length_c                   10.8068(10)
_cell_measurement_temperature    153(2)
_cell_volume                     696.95(11)
_computing_cell_refinement       'SMART version 5.054 (Bruker, 2000)'
_computing_data_collection       'SMART version 5.054 (Bruker, 2000)'
_computing_data_reduction        'SAINT-Plus version 6.02A (Bruker, 2000)'
_computing_molecular_graphics    'SHELXTL-97 (Sheldrick, 1997)'
_computing_publication_material  'SHELXTL-97 (Sheldrick, 1997)'
_computing_structure_refinement  'SHELXL-97 (Sheldrick, 1997)'
_computing_structure_solution    'SHELXS-97 (Sheldrick, 1990)'
_diffrn_ambient_temperature      153(2)
_diffrn_measured_fraction_theta_full 0.953
_diffrn_measured_fraction_theta_max 0.953
_diffrn_measurement_device_type  'Bruker Smart 1000 CCD'
_diffrn_measurement_method       \w
_diffrn_radiation_monochromator  graphite
_diffrn_radiation_source         'fine-focus sealed tube'
_diffrn_radiation_type           MoK\a
_diffrn_radiation_wavelength     0.71073
_diffrn_reflns_av_R_equivalents  0.0424
_diffrn_reflns_av_sigmaI/netI    0.0330
_diffrn_reflns_limit_h_max       5
_diffrn_reflns_limit_h_min       -5
_diffrn_reflns_limit_k_max       20
_diffrn_reflns_limit_k_min       -20
_diffrn_reflns_limit_l_max       14
_diffrn_reflns_limit_l_min       -14
_diffrn_reflns_number            3092
_diffrn_reflns_theta_full        28.86
_diffrn_reflns_theta_max         28.86
_diffrn_reflns_theta_min         3.20
_diffrn_standards_decay_%        <2
_diffrn_standards_interval_count none
_diffrn_standards_interval_time  none
_diffrn_standards_number         none
_exptl_absorpt_coefficient_mu    37.460
_exptl_absorpt_correction_T_max  0.55147
_exptl_absorpt_correction_T_min  0.14387
_exptl_absorpt_correction_type   numerical
_exptl_absorpt_process_details   'faces indexed'
_exptl_crystal_colour            red
_exptl_crystal_density_diffrn    5.796
_exptl_crystal_density_meas      ?
_exptl_crystal_density_method    'not measured'
_exptl_crystal_description       plate
_exptl_crystal_F_000             1028
_exptl_crystal_size_max          0.100
_exptl_crystal_size_mid          0.044
_exptl_crystal_size_min          0.016
_refine_diff_density_max         2.557
_refine_diff_density_min         -1.756
_refine_diff_density_rms         0.451
_refine_ls_extinction_coef       0.00050(15)
_refine_ls_extinction_expression Fc^*^=kFc[1+0.001xFc^2^\l^3^/sin(2\q)]^-1/4^
_refine_ls_extinction_method     SHELXL
_refine_ls_goodness_of_fit_ref   1.249
_refine_ls_hydrogen_treatment    mixed
_refine_ls_matrix_type           full
_refine_ls_number_parameters     24
_refine_ls_number_reflns         523
_refine_ls_number_restraints     0
_refine_ls_restrained_S_all      1.249
_refine_ls_R_factor_all          0.0317
_refine_ls_R_factor_gt           0.0288
_refine_ls_shift/su_max          0.000
_refine_ls_shift/su_mean         0.000
_refine_ls_structure_factor_coef Fsqd
_refine_ls_weighting_details
; calc 
 [1.00000+0.00000exp(0.00(sin\q/\l)^2^)]/ 
   [\s^2^(Fo^2^)+0.0000+0.0000*P+(0.0400P)^2^+0.0000sin\q/\l] 
 where P = 1.00000Fo^2^ + 0.00000Fc^2^ 
;
_refine_ls_weighting_scheme      calc
_refine_ls_wR_factor_gt          0.0739
_refine_ls_wR_factor_ref         0.0751
_reflns_number_gt                479
_reflns_number_total             523
_reflns_threshold_expression     >2sigma(I)
_cod_data_source_file            ic011200u_7.cif
_cod_data_source_block           CsYbZnSe3
_cod_depositor_comments
;
The following automatic conversions were performed:

'_exptl_crystal_density_meas' value 'not measured' was changed to '?'
- the value is perceived as not measured.

Automatic conversion script
Id: cif_fix_values 3008 2015-01-20 13:52:24Z robertas 
;
_cod_database_code               4317676
loop_
_symmetry_equiv_pos_as_xyz
'x, y, z'
'-x, -y, z+1/2'
'-x, y, -z+1/2'
'x, -y, -z'
'x+1/2, y+1/2, z'
'-x+1/2, -y+1/2, z+1/2'
'-x+1/2, y+1/2, -z+1/2'
'x+1/2, -y+1/2, -z'
'-x, -y, -z'
'x, y, -z-1/2'
'x, -y, z-1/2'
'-x, y, z'
'-x+1/2, -y+1/2, -z'
'x+1/2, y+1/2, -z-1/2'
'x+1/2, -y+1/2, z-1/2'
'-x+1/2, y+1/2, z'
loop_
_atom_site_label
_atom_site_type_symbol
_atom_site_fract_x
_atom_site_fract_y
_atom_site_fract_z
_atom_site_U_iso_or_equiv
_atom_site_adp_type
_atom_site_occupancy
_atom_site_symmetry_multiplicity
_atom_site_calc_flag
_atom_site_refinement_flags
_atom_site_disorder_assembly
_atom_site_disorder_group
Yb1 Yb 0.0000 0.0000 0.0000 0.0073(2) Uani 1 4 d S . .
Cs1 Cs 0.0000 0.74146(5) 0.2500 0.0131(2) Uani 1 4 d S . .
Se1 Se 0.0000 0.38274(5) 0.05539(7) 0.0075(2) Uani 1 2 d S . .
Se2 Se 0.0000 0.05479(7) 0.2500 0.0073(3) Uani 1 4 d S . .
Zn1 Zn 0.0000 0.46031(9) 0.2500 0.0083(3) Uani 1 4 d S . .
loop_
_atom_site_aniso_label
_atom_site_aniso_U_11
_atom_site_aniso_U_22
_atom_site_aniso_U_33
_atom_site_aniso_U_23
_atom_site_aniso_U_13
_atom_site_aniso_U_12
Yb1 0.0070(3) 0.0089(3) 0.0059(3) -0.00002(16) 0.000 0.000
Cs1 0.0113(4) 0.0098(4) 0.0182(4) 0.000 0.000 0.000
Se1 0.0081(4) 0.0077(5) 0.0067(4) -0.0004(3) 0.000 0.000
Se2 0.0072(5) 0.0093(6) 0.0055(5) 0.000 0.000 0.000
Zn1 0.0088(6) 0.0097(7) 0.0063(7) 0.000 0.000 0.000
loop_
_atom_type_symbol
_atom_type_description
_atom_type_scat_dispersion_real
_atom_type_scat_dispersion_imag
_atom_type_scat_source
Zn Zn 0.2839 1.4301 'International Tables Vol C Tables 4.2.6.8 and 6.1.1.4'
Se Se -0.0929 2.2259 'International Tables Vol C Tables 4.2.6.8 and 6.1.1.4'
Cs Cs -0.3680 2.1192 'International Tables Vol C Tables 4.2.6.8 and 6.1.1.4'
Yb Yb -0.3850 5.5486 'International Tables Vol C Tables 4.2.6.8 and 6.1.1.4'
loop_
_geom_angle_atom_site_label_1
_geom_angle_atom_site_label_2
_geom_angle_atom_site_label_3
_geom_angle
_geom_angle_site_symmetry_1
_geom_angle_site_symmetry_3
_geom_angle_publ_flag
Se1 Yb1 Se1 180.00(4) 13 5_445 ?
Se1 Yb1 Se1 92.79(3) 13 13_455 ?
Se1 Yb1 Se1 87.21(3) 5_445 13_455 ?
Se1 Yb1 Se1 87.21(3) 13 5_545 ?
Se1 Yb1 Se1 92.79(3) 5_445 5_545 ?
Se1 Yb1 Se1 180.00(4) 13_455 5_545 ?
Se1 Yb1 Se2 89.88(2) 13 9 ?
Se1 Yb1 Se2 90.12(2) 5_445 9 ?
Se1 Yb1 Se2 89.88(2) 13_455 9 ?
Se1 Yb1 Se2 90.12(2) 5_545 9 ?
Se1 Yb1 Se2 90.12(2) 13 . ?
Se1 Yb1 Se2 89.88(2) 5_445 . ?
Se1 Yb1 Se2 90.12(2) 13_455 . ?
Se1 Yb1 Se2 89.88(2) 5_545 . ?
Se2 Yb1 Se2 180.0 9 . ?
Se1 Yb1 Zn1 98.26(2) 13 13_455 ?
Se1 Yb1 Zn1 81.74(2) 5_445 13_455 ?
Se1 Yb1 Zn1 44.34(2) 13_455 13_455 ?
Se1 Yb1 Zn1 135.66(2) 5_545 13_455 ?
Se2 Yb1 Zn1 46.246(19) 9 13_455 ?
Se2 Yb1 Zn1 133.754(19) . 13_455 ?
Se1 Yb1 Zn1 81.74(2) 13 5_545 ?
Se1 Yb1 Zn1 98.26(2) 5_445 5_545 ?
Se1 Yb1 Zn1 135.66(2) 13_455 5_545 ?
Se1 Yb1 Zn1 44.34(2) 5_545 5_545 ?
Se2 Yb1 Zn1 133.754(19) 9 5_545 ?
Se2 Yb1 Zn1 46.246(19) . 5_545 ?
Zn1 Yb1 Zn1 180.00(5) 13_455 5_545 ?
Se1 Yb1 Zn1 44.34(2) 13 13 ?
Se1 Yb1 Zn1 135.66(2) 5_445 13 ?
Se1 Yb1 Zn1 98.26(2) 13_455 13 ?
Se1 Yb1 Zn1 81.74(2) 5_545 13 ?
Se2 Yb1 Zn1 46.246(19) 9 13 ?
Se2 Yb1 Zn1 133.754(19) . 13 ?
Zn1 Yb1 Zn1 72.745(9) 13_455 13 ?
Zn1 Yb1 Zn1 107.255(9) 5_545 13 ?
Se1 Yb1 Zn1 135.66(2) 13 5_445 ?
Se1 Yb1 Zn1 44.34(2) 5_445 5_445 ?
Se1 Yb1 Zn1 81.74(2) 13_455 5_445 ?
Se1 Yb1 Zn1 98.26(2) 5_545 5_445 ?
Se2 Yb1 Zn1 133.754(19) 9 5_445 ?
Se2 Yb1 Zn1 46.246(19) . 5_445 ?
Zn1 Yb1 Zn1 107.255(9) 13_455 5_445 ?
Zn1 Yb1 Zn1 72.745(9) 5_545 5_445 ?
Zn1 Yb1 Zn1 180.00(5) 13 5_445 ?
Se1 Yb1 Yb1 136.395(13) 13 1_455 ?
Se1 Yb1 Yb1 43.605(13) 5_445 1_455 ?
Se1 Yb1 Yb1 43.605(13) 13_455 1_455 ?
Se1 Yb1 Yb1 136.395(13) 5_545 1_455 ?
Se2 Yb1 Yb1 90.0 9 1_455 ?
Se2 Yb1 Yb1 90.0 . 1_455 ?
Zn1 Yb1 Yb1 53.628(5) 13_455 1_455 ?
Zn1 Yb1 Yb1 126.372(5) 5_545 1_455 ?
Zn1 Yb1 Yb1 126.372(5) 13 1_455 ?
Zn1 Yb1 Yb1 53.628(5) 5_445 1_455 ?
Se1 Yb1 Yb1 43.605(13) 13 1_655 ?
Se1 Yb1 Yb1 136.395(13) 5_445 1_655 ?
Se1 Yb1 Yb1 136.395(13) 13_455 1_655 ?
Se1 Yb1 Yb1 43.605(13) 5_545 1_655 ?
Se2 Yb1 Yb1 90.0 9 1_655 ?
Se2 Yb1 Yb1 90.0 . 1_655 ?
Zn1 Yb1 Yb1 126.372(5) 13_455 1_655 ?
Zn1 Yb1 Yb1 53.628(5) 5_545 1_655 ?
Zn1 Yb1 Yb1 53.628(5) 13 1_655 ?
Zn1 Yb1 Yb1 126.372(5) 5_445 1_655 ?
Yb1 Yb1 Yb1 180.0 1_455 1_655 ?
Se2 Cs1 Se2 69.46(3) 5_455 5 ?
Se2 Cs1 Se1 144.438(15) 5_455 14_556 ?
Se2 Cs1 Se1 100.469(14) 5 14_556 ?
Se2 Cs1 Se1 100.469(14) 5_455 14_456 ?
Se2 Cs1 Se1 144.438(15) 5 14_456 ?
Se1 Cs1 Se1 67.354(18) 14_556 14_456 ?
Se2 Cs1 Se1 144.438(15) 5_455 5 ?
Se2 Cs1 Se1 100.469(15) 5 5 ?
Se1 Cs1 Se1 69.63(3) 14_556 5 ?
Se1 Cs1 Se1 105.48(3) 14_456 5 ?
Se2 Cs1 Se1 100.469(15) 5_455 5_455 ?
Se2 Cs1 Se1 144.438(15) 5 5_455 ?
Se1 Cs1 Se1 105.48(3) 14_556 5_455 ?
Se1 Cs1 Se1 69.63(3) 14_456 5_455 ?
Se1 Cs1 Se1 67.354(18) 5 5_455 ?
Se2 Cs1 Se1 65.180(14) 5_455 9_565 ?
Se2 Cs1 Se1 65.180(14) 5 9_565 ?
Se1 Cs1 Se1 143.137(12) 14_556 9_565 ?
Se1 Cs1 Se1 143.137(12) 14_456 9_565 ?
Se1 Cs1 Se1 79.536(19) 5 9_565 ?
Se1 Cs1 Se1 79.536(19) 5_455 9_565 ?
Se2 Cs1 Se1 65.180(14) 5_455 2_565 ?
Se2 Cs1 Se1 65.180(14) 5 2_565 ?
Se1 Cs1 Se1 79.536(19) 14_556 2_565 ?
Se1 Cs1 Se1 79.536(19) 14_456 2_565 ?
Se1 Cs1 Se1 143.137(12) 5 2_565 ?
Se1 Cs1 Se1 143.137(12) 5_455 2_565 ?
Se1 Cs1 Se1 118.57(3) 9_565 2_565 ?
Se2 Cs1 Zn1 175.86(2) 5_455 5 ?
Se2 Cs1 Zn1 114.679(16) 5 5 ?
Se1 Cs1 Zn1 36.546(14) 14_556 5 ?
Se1 Cs1 Zn1 76.17(2) 14_456 5 ?
Se1 Cs1 Zn1 36.546(14) 5 5 ?
Se1 Cs1 Zn1 76.17(2) 5_455 5 ?
Se1 Cs1 Zn1 116.082(13) 9_565 5 ?
Se1 Cs1 Zn1 116.082(13) 2_565 5 ?
Se2 Cs1 Zn1 114.679(16) 5_455 5_455 ?
Se2 Cs1 Zn1 175.86(2) 5 5_455 ?
Se1 Cs1 Zn1 76.17(2) 14_556 5_455 ?
Se1 Cs1 Zn1 36.546(14) 14_456 5_455 ?
Se1 Cs1 Zn1 76.17(2) 5 5_455 ?
Se1 Cs1 Zn1 36.546(14) 5_455 5_455 ?
Se1 Cs1 Zn1 116.082(13) 9_565 5_455 ?
Se1 Cs1 Zn1 116.082(13) 2_565 5_455 ?
Zn1 Cs1 Zn1 61.19(2) 5 5_455 ?
Se2 Cs1 Cs1 55.272(13) 5_455 1_455 ?
Se2 Cs1 Cs1 124.728(13) 5 1_455 ?
Se1 Cs1 Cs1 123.677(9) 14_556 1_455 ?
Se1 Cs1 Cs1 56.323(9) 14_456 1_455 ?
Se1 Cs1 Cs1 123.677(9) 5 1_455 ?
Se1 Cs1 Cs1 56.323(9) 5_455 1_455 ?
Se1 Cs1 Cs1 90.0 9_565 1_455 ?
Se1 Cs1 Cs1 90.0 2_565 1_455 ?
Zn1 Cs1 Cs1 120.593(12) 5 1_455 ?
Zn1 Cs1 Cs1 59.407(12) 5_455 1_455 ?
Se2 Cs1 Cs1 124.728(13) 5_455 1_655 ?
Se2 Cs1 Cs1 55.272(13) 5 1_655 ?
Se1 Cs1 Cs1 56.323(9) 14_556 1_655 ?
Se1 Cs1 Cs1 123.677(9) 14_456 1_655 ?
Se1 Cs1 Cs1 56.323(9) 5 1_655 ?
Se1 Cs1 Cs1 123.677(9) 5_455 1_655 ?
Se1 Cs1 Cs1 90.0 9_565 1_655 ?
Se1 Cs1 Cs1 90.0 2_565 1_655 ?
Zn1 Cs1 Cs1 59.407(12) 5 1_655 ?
Zn1 Cs1 Cs1 120.593(12) 5_455 1_655 ?
Cs1 Cs1 Cs1 180.0 1_455 1_655 ?
Zn1 Se1 Yb1 81.56(3) . 5 ?
Zn1 Se1 Yb1 81.56(3) . 5_455 ?
Yb1 Se1 Yb1 92.79(3) 5 5_455 ?
Zn1 Se1 Cs1 79.12(3) . 5_545 ?
Yb1 Se1 Cs1 96.715(12) 5 5_545 ?
Yb1 Se1 Cs1 156.92(3) 5_455 5_545 ?
Zn1 Se1 Cs1 79.12(3) . 5_445 ?
Yb1 Se1 Cs1 156.92(3) 5 5_445 ?
Yb1 Se1 Cs1 96.715(12) 5_455 5_445 ?
Cs1 Se1 Cs1 67.354(18) 5_545 5_445 ?
Zn1 Se1 Cs1 179.50(4) . 9_565 ?
Yb1 Se1 Cs1 98.79(2) 5 9_565 ?
Yb1 Se1 Cs1 98.79(2) 5_455 9_565 ?
Cs1 Se1 Cs1 100.464(19) 5_545 9_565 ?
Cs1 Se1 Cs1 100.464(19) 5_445 9_565 ?
Zn1 Se2 Zn1 107.73(7) 5_445 5_545 ?
Zn1 Se2 Yb1 79.64(2) 5_445 . ?
Zn1 Se2 Yb1 79.643(19) 5_545 . ?
Zn1 Se2 Yb1 79.643(19) 5_445 2 ?
Zn1 Se2 Yb1 79.643(19) 5_545 2 ?
Yb1 Se2 Yb1 144.50(5) . 2 ?
Zn1 Se2 Cs1 160.86(4) 5_445 5_545 ?
Zn1 Se2 Cs1 91.41(3) 5_545 5_545 ?
Yb1 Se2 Cs1 104.512(17) . 5_545 ?
Yb1 Se2 Cs1 104.512(17) 2 5_545 ?
Zn1 Se2 Cs1 91.41(3) 5_445 5_445 ?
Zn1 Se2 Cs1 160.86(4) 5_545 5_445 ?
Yb1 Se2 Cs1 104.512(17) . 5_445 ?
Yb1 Se2 Cs1 104.512(17) 2 5_445 ?
Cs1 Se2 Cs1 69.46(3) 5_545 5_445 ?
Se1 Zn1 Se1 119.58(7) . 10_556 ?
Se1 Zn1 Se2 107.261(14) . 5 ?
Se1 Zn1 Se2 107.261(14) 10_556 5 ?
Se1 Zn1 Se2 107.261(14) . 5_455 ?
Se1 Zn1 Se2 107.261(14) 10_556 5_455 ?
Se2 Zn1 Se2 107.73(7) 5 5_455 ?
Se1 Zn1 Yb1 140.30(2) . 6 ?
Se1 Zn1 Yb1 54.105(14) 10_556 6 ?
Se2 Zn1 Yb1 54.111(10) 5 6 ?
Se2 Zn1 Yb1 111.82(3) 5_455 6 ?
Se1 Zn1 Yb1 54.105(14) . 5_455 ?
Se1 Zn1 Yb1 140.30(2) 10_556 5_455 ?
Se2 Zn1 Yb1 111.82(3) 5 5_455 ?
Se2 Zn1 Yb1 54.111(10) 5_455 5_455 ?
Yb1 Zn1 Yb1 159.04(5) 6 5_455 ?
Se1 Zn1 Yb1 140.30(2) . 6_455 ?
Se1 Zn1 Yb1 54.105(14) 10_556 6_455 ?
Se2 Zn1 Yb1 111.82(3) 5 6_455 ?
Se2 Zn1 Yb1 54.111(10) 5_455 6_455 ?
Yb1 Zn1 Yb1 72.745(9) 6 6_455 ?
Yb1 Zn1 Yb1 103.324(13) 5_455 6_455 ?
Se1 Zn1 Yb1 54.105(14) . 5 ?
Se1 Zn1 Yb1 140.30(2) 10_556 5 ?
Se2 Zn1 Yb1 54.111(10) 5 5 ?
Se2 Zn1 Yb1 111.82(3) 5_455 5 ?
Yb1 Zn1 Yb1 103.324(13) 6 5 ?
Yb1 Zn1 Yb1 72.745(9) 5_455 5 ?
Yb1 Zn1 Yb1 159.04(5) 6_455 5 ?
Se1 Zn1 Cs1 64.33(3) . 5_445 ?
Se1 Zn1 Cs1 64.33(3) 10_556 5_445 ?
Se2 Zn1 Cs1 156.73(4) 5 5_445 ?
Se2 Zn1 Cs1 95.54(3) 5_455 5_445 ?
Yb1 Zn1 Cs1 117.28(3) 6 5_445 ?
Yb1 Zn1 Cs1 81.649(15) 5_455 5_445 ?
Yb1 Zn1 Cs1 81.649(15) 6_455 5_445 ?
Yb1 Zn1 Cs1 117.28(3) 5 5_445 ?
Se1 Zn1 Cs1 64.33(3) . 5_545 ?
Se1 Zn1 Cs1 64.33(3) 10_556 5_545 ?
Se2 Zn1 Cs1 95.54(3) 5 5_545 ?
Se2 Zn1 Cs1 156.73(4) 5_455 5_545 ?
Yb1 Zn1 Cs1 81.649(15) 6 5_545 ?
Yb1 Zn1 Cs1 117.28(3) 5_455 5_545 ?
Yb1 Zn1 Cs1 117.28(3) 6_455 5_545 ?
Yb1 Zn1 Cs1 81.649(15) 5 5_545 ?
Cs1 Zn1 Cs1 61.19(2) 5_445 5_545 ?
Se1 Zn1 Cs1 120.21(3) . . ?
Se1 Zn1 Cs1 120.21(3) 10_556 . ?
Se2 Zn1 Cs1 53.87(3) 5 . ?
Se2 Zn1 Cs1 53.87(3) 5_455 . ?
Yb1 Zn1 Cs1 79.52(2) 6 . ?
Yb1 Zn1 Cs1 79.52(2) 5_455 . ?
Yb1 Zn1 Cs1 79.52(2) 6_455 . ?
Yb1 Zn1 Cs1 79.52(2) 5 . ?
Cs1 Zn1 Cs1 149.407(12) 5_445 . ?
Cs1 Zn1 Cs1 149.407(12) 5_545 . ?
loop_
_geom_bond_atom_site_label_1
_geom_bond_atom_site_label_2
_geom_bond_distance
_geom_bond_site_symmetry_2
_geom_bond_publ_flag
Yb1 Se1 2.8209(6) 13 ?
Yb1 Se1 2.8209(6) 5_445 ?
Yb1 Se1 2.8209(6) 13_455 ?
Yb1 Se1 2.8209(6) 5_545 ?
Yb1 Se2 2.8368(4) 9 ?
Yb1 Se2 2.8368(4) . ?
Yb1 Zn1 3.4444(3) 13_455 ?
Yb1 Zn1 3.4444(3) 5_545 ?
Yb1 Zn1 3.4444(3) 13 ?
Yb1 Zn1 3.4444(3) 5_445 ?
Yb1 Yb1 4.0853(4) 1_455 ?
Yb1 Yb1 4.0853(4) 1_655 ?
Cs1 Se2 3.5856(12) 5_455 ?
Cs1 Se2 3.5856(12) 5 ?
Cs1 Se1 3.6837(8) 14_556 ?
Cs1 Se1 3.6837(8) 14_456 ?
Cs1 Se1 3.6837(8) 5 ?
Cs1 Se1 3.6837(8) 5_455 ?
Cs1 Se1 3.8387(9) 9_565 ?
Cs1 Se1 3.8387(9) 2_565 ?
Cs1 Zn1 4.0136(14) 5 ?
Cs1 Zn1 4.0136(14) 5_455 ?
Cs1 Cs1 4.0853(4) 1_455 ?
Cs1 Cs1 4.0853(4) 1_655 ?
Se1 Zn1 2.4337(10) . ?
Se1 Yb1 2.8209(6) 5 ?
Se1 Yb1 2.8209(6) 5_455 ?
Se1 Cs1 3.6837(8) 5_545 ?
Se1 Cs1 3.6837(8) 5_445 ?
Se1 Cs1 3.8387(9) 9_565 ?
Se2 Zn1 2.5292(11) 5_445 ?
Se2 Zn1 2.5292(11) 5_545 ?
Se2 Yb1 2.8368(4) 2 ?
Se2 Cs1 3.5856(12) 5_545 ?
Se2 Cs1 3.5856(12) 5_445 ?
Zn1 Se1 2.4337(10) 10_556 ?
Zn1 Se2 2.5292(11) 5 ?
Zn1 Se2 2.5292(11) 5_455 ?
Zn1 Yb1 3.4444(3) 6 ?
Zn1 Yb1 3.4444(3) 5_455 ?
Zn1 Yb1 3.4444(3) 6_455 ?
Zn1 Yb1 3.4444(3) 5 ?
Zn1 Cs1 4.0136(14) 5_445 ?
Zn1 Cs1 4.0136(14) 5_545 ?
