#------------------------------------------------------------------------------
#$Date: 2016-03-23 03:54:14 +0200 (Wed, 23 Mar 2016) $
#$Revision: 179268 $
#$URL: svn://www.crystallography.net/cod/cif/4/31/88/4318855.cif $
#------------------------------------------------------------------------------
#
# This file is available in the Crystallography Open Database (COD),
# http://www.crystallography.net/
#
# All data on this site have been placed in the public domain by the
# contributors.
#
data_4318855
loop_
_publ_author_name
'Marina A. Zhuravleva'
'Xiaoping Wang'
'Arthur J. Schultz'
'Thomas Bakas'
'Mercouri G. Kanatzidis'
_publ_section_title
;
 Isolation of the New Cubic Phases RE4FeGa12-xGex (RE = Sm, Tb; x= 2.5)
 from Molten Gallium: Single-Crystal Neutron Diffraction Study of the
 Ga/Ge Distribution
;
_journal_name_full               'Inorganic Chemistry'
_journal_page_first              6056
_journal_page_last               6061
_journal_paper_doi               10.1021/ic025544b
_journal_volume                  41
_journal_year                    2002
_chemical_formula_sum            'Fe Ga6 Ge6 Tb4'
_chemical_formula_weight         1545.39
_chemical_name_systematic
;
 ?
;
_space_group_IT_number           229
_symmetry_cell_setting           cubic
_symmetry_space_group_name_Hall  '-I 4 2 3'
_symmetry_space_group_name_H-M   'I m -3 m'
_atom_sites_solution_hydrogens   geom
_atom_sites_solution_primary     direct
_atom_sites_solution_secondary   difmap
_audit_creation_method           SHELXL-97
_cell_angle_alpha                90.00
_cell_angle_beta                 90.00
_cell_angle_gamma                90.00
_cell_formula_units_Z            2
_cell_length_a                   8.5620(9)
_cell_length_b                   8.5620(9)
_cell_length_c                   8.5620(9)
_cell_measurement_temperature    571(2)
_cell_volume                     627.66(11)
_computing_structure_refinement  'SHELXL-97 (Sheldrick, 1997)'
_computing_structure_solution    'SHELXS-97 (Sheldrick, 1990)'
_diffrn_ambient_temperature      571(2)
_diffrn_measured_fraction_theta_full 0.981
_diffrn_measured_fraction_theta_max 0.981
_diffrn_radiation_monochromator  graphite
_diffrn_radiation_source         'fine-focus sealed tube'
_diffrn_radiation_type           MoK\a
_diffrn_radiation_wavelength     0.71073
_diffrn_reflns_av_R_equivalents  0.0645
_diffrn_reflns_av_sigmaI/netI    0.0194
_diffrn_reflns_limit_h_max       11
_diffrn_reflns_limit_h_min       -11
_diffrn_reflns_limit_k_max       10
_diffrn_reflns_limit_k_min       -11
_diffrn_reflns_limit_l_max       6
_diffrn_reflns_limit_l_min       -10
_diffrn_reflns_number            2000
_diffrn_reflns_theta_full        28.72
_diffrn_reflns_theta_max         28.72
_diffrn_reflns_theta_min         3.37
_exptl_absorpt_coefficient_mu    50.017
_exptl_crystal_density_diffrn    8.177
_exptl_crystal_density_method    'not measured'
_exptl_crystal_F_000             1328
_refine_diff_density_max         0.914
_refine_diff_density_min         -1.686
_refine_diff_density_rms         0.302
_refine_ls_extinction_coef       0.0024(3)
_refine_ls_extinction_expression Fc^*^=kFc[1+0.001xFc^2^\l^3^/sin(2\q)]^-1/4^
_refine_ls_extinction_method     SHELXL
_refine_ls_goodness_of_fit_ref   1.481
_refine_ls_hydrogen_treatment    mixed
_refine_ls_matrix_type           full
_refine_ls_number_parameters     12
_refine_ls_number_reflns         104
_refine_ls_number_restraints     0
_refine_ls_restrained_S_all      1.481
_refine_ls_R_factor_all          0.0234
_refine_ls_R_factor_gt           0.0229
_refine_ls_shift/su_max          0.000
_refine_ls_shift/su_mean         0.000
_refine_ls_structure_factor_coef Fsqd
_refine_ls_weighting_details
'calc w=1/[\s^2^(Fo^2^)+(0.0241P)^2^+14.6305P] where P=(Fo^2^+2Fc^2^)/3'
_refine_ls_weighting_scheme      calc
_refine_ls_wR_factor_gt          0.0712
_refine_ls_wR_factor_ref         0.0713
_reflns_number_gt                100
_reflns_number_total             104
_reflns_threshold_expression     >2sigma(I)
_cod_data_source_file            ic025544b_s1_2.cif
_cod_data_source_block           2
_cod_database_code               4318855
loop_
_symmetry_equiv_pos_as_xyz
'x, y, z'
'-x, -y, z'
'-x, y, -z'
'x, -y, -z'
'z, x, y'
'z, -x, -y'
'-z, -x, y'
'-z, x, -y'
'y, z, x'
'-y, z, -x'
'y, -z, -x'
'-y, -z, x'
'y, x, -z'
'-y, -x, -z'
'y, -x, z'
'-y, x, z'
'x, z, -y'
'-x, z, y'
'-x, -z, -y'
'x, -z, y'
'z, y, -x'
'z, -y, x'
'-z, y, x'
'-z, -y, -x'
'x+1/2, y+1/2, z+1/2'
'-x+1/2, -y+1/2, z+1/2'
'-x+1/2, y+1/2, -z+1/2'
'x+1/2, -y+1/2, -z+1/2'
'z+1/2, x+1/2, y+1/2'
'z+1/2, -x+1/2, -y+1/2'
'-z+1/2, -x+1/2, y+1/2'
'-z+1/2, x+1/2, -y+1/2'
'y+1/2, z+1/2, x+1/2'
'-y+1/2, z+1/2, -x+1/2'
'y+1/2, -z+1/2, -x+1/2'
'-y+1/2, -z+1/2, x+1/2'
'y+1/2, x+1/2, -z+1/2'
'-y+1/2, -x+1/2, -z+1/2'
'y+1/2, -x+1/2, z+1/2'
'-y+1/2, x+1/2, z+1/2'
'x+1/2, z+1/2, -y+1/2'
'-x+1/2, z+1/2, y+1/2'
'-x+1/2, -z+1/2, -y+1/2'
'x+1/2, -z+1/2, y+1/2'
'z+1/2, y+1/2, -x+1/2'
'z+1/2, -y+1/2, x+1/2'
'-z+1/2, y+1/2, x+1/2'
'-z+1/2, -y+1/2, -x+1/2'
'-x, -y, -z'
'x, y, -z'
'x, -y, z'
'-x, y, z'
'-z, -x, -y'
'-z, x, y'
'z, x, -y'
'z, -x, y'
'-y, -z, -x'
'y, -z, x'
'-y, z, x'
'y, z, -x'
'-y, -x, z'
'y, x, z'
'-y, x, -z'
'y, -x, -z'
'-x, -z, y'
'x, -z, -y'
'x, z, y'
'-x, z, -y'
'-z, -y, x'
'-z, y, -x'
'z, -y, -x'
'z, y, x'
'-x+1/2, -y+1/2, -z+1/2'
'x+1/2, y+1/2, -z+1/2'
'x+1/2, -y+1/2, z+1/2'
'-x+1/2, y+1/2, z+1/2'
'-z+1/2, -x+1/2, -y+1/2'
'-z+1/2, x+1/2, y+1/2'
'z+1/2, x+1/2, -y+1/2'
'z+1/2, -x+1/2, y+1/2'
'-y+1/2, -z+1/2, -x+1/2'
'y+1/2, -z+1/2, x+1/2'
'-y+1/2, z+1/2, x+1/2'
'y+1/2, z+1/2, -x+1/2'
'-y+1/2, -x+1/2, z+1/2'
'y+1/2, x+1/2, z+1/2'
'-y+1/2, x+1/2, -z+1/2'
'y+1/2, -x+1/2, -z+1/2'
'-x+1/2, -z+1/2, y+1/2'
'x+1/2, -z+1/2, -y+1/2'
'x+1/2, z+1/2, y+1/2'
'-x+1/2, z+1/2, -y+1/2'
'-z+1/2, -y+1/2, x+1/2'
'-z+1/2, y+1/2, -x+1/2'
'z+1/2, -y+1/2, -x+1/2'
'z+1/2, y+1/2, x+1/2'
loop_
_atom_site_label
_atom_site_type_symbol
_atom_site_fract_x
_atom_site_fract_y
_atom_site_fract_z
_atom_site_U_iso_or_equiv
_atom_site_adp_type
_atom_site_occupancy
_atom_site_symmetry_multiplicity
_atom_site_calc_flag
_atom_site_refinement_flags
_atom_site_disorder_assembly
_atom_site_disorder_group
Tb1 Tb 0.2500 0.2500 0.2500 0.0079(5) Uani 1 12 d S . .
Fe1 Fe 0.0000 0.0000 0.0000 0.0098(12) Uani 1 48 d S . .
Ge1 Ge 0.2869(3) 0.0000 0.0000 0.0104(5) Uani 1 8 d S . .
Ga1 Ga 0.2500 0.0000 0.5000 0.0086(6) Uani 1 8 d S . .
loop_
_atom_site_aniso_label
_atom_site_aniso_U_11
_atom_site_aniso_U_22
_atom_site_aniso_U_33
_atom_site_aniso_U_23
_atom_site_aniso_U_13
_atom_site_aniso_U_12
Tb1 0.0079(5) 0.0079(5) 0.0079(5) 0.00200(18) 0.00200(18) 0.00200(18)
Fe1 0.0098(12) 0.0098(12) 0.0098(12) 0.000 0.000 0.000
Ge1 0.0093(11) 0.0110(6) 0.0110(6) 0.000 0.000 0.000
Ga1 0.0123(9) 0.0068(6) 0.0068(6) 0.000 0.000 0.000
loop_
_atom_type_symbol
_atom_type_description
_atom_type_scat_dispersion_real
_atom_type_scat_dispersion_imag
_atom_type_scat_source
Fe Fe 0.3463 0.8444 'International Tables Vol C Tables 4.2.6.8 and 6.1.1.4'
Ga Ga 0.2307 1.6083 'International Tables Vol C Tables 4.2.6.8 and 6.1.1.4'
Ge Ge 0.1547 1.8001 'International Tables Vol C Tables 4.2.6.8 and 6.1.1.4'
Tb Tb -0.1723 4.1537 'International Tables Vol C Tables 4.2.6.8 and 6.1.1.4'
loop_
_geom_angle_atom_site_label_1
_geom_angle_atom_site_label_2
_geom_angle_atom_site_label_3
_geom_angle
_geom_angle_site_symmetry_1
_geom_angle_site_symmetry_3
_geom_angle_publ_flag
Ga1 Tb1 Ga1 180.0 81 9 ?
Ga1 Tb1 Ga1 60.0 81 . ?
Ga1 Tb1 Ga1 120.0 9 . ?
Ga1 Tb1 Ga1 120.0 81 77 ?
Ga1 Tb1 Ga1 60.0 9 77 ?
Ga1 Tb1 Ga1 60.0 . 77 ?
Ga1 Tb1 Ga1 60.0 81 5 ?
Ga1 Tb1 Ga1 120.0 9 5 ?
Ga1 Tb1 Ga1 120.0 . 5 ?
Ga1 Tb1 Ga1 180.0 77 5 ?
Ga1 Tb1 Ga1 120.0 81 73 ?
Ga1 Tb1 Ga1 60.0 9 73 ?
Ga1 Tb1 Ga1 180.0 . 73 ?
Ga1 Tb1 Ga1 120.0 77 73 ?
Ga1 Tb1 Ga1 60.0 5 73 ?
Ga1 Tb1 Ge1 55.20(4) 81 . ?
Ga1 Tb1 Ge1 124.80(4) 9 . ?
Ga1 Tb1 Ge1 90.0 . . ?
Ga1 Tb1 Ge1 124.80(4) 77 . ?
Ga1 Tb1 Ge1 55.20(4) 5 . ?
Ga1 Tb1 Ge1 90.0 73 . ?
Ga1 Tb1 Ge1 90.0 81 81 ?
Ga1 Tb1 Ge1 90.0 9 81 ?
Ga1 Tb1 Ge1 124.80(4) . 81 ?
Ga1 Tb1 Ge1 124.80(4) 77 81 ?
Ga1 Tb1 Ge1 55.20(4) 5 81 ?
Ga1 Tb1 Ge1 55.20(4) 73 81 ?
Ge1 Tb1 Ge1 110.40(8) . 81 ?
Ga1 Tb1 Ge1 90.0 81 9 ?
Ga1 Tb1 Ge1 90.0 9 9 ?
Ga1 Tb1 Ge1 55.20(4) . 9 ?
Ga1 Tb1 Ge1 55.20(4) 77 9 ?
Ga1 Tb1 Ge1 124.80(4) 5 9 ?
Ga1 Tb1 Ge1 124.80(4) 73 9 ?
Ge1 Tb1 Ge1 69.60(8) . 9 ?
Ge1 Tb1 Ge1 180.0 81 9 ?
Ga1 Tb1 Ge1 55.20(4) 81 77 ?
Ga1 Tb1 Ge1 124.80(4) 9 77 ?
Ga1 Tb1 Ge1 55.20(4) . 77 ?
Ga1 Tb1 Ge1 90.0 77 77 ?
Ga1 Tb1 Ge1 90.0 5 77 ?
Ga1 Tb1 Ge1 124.80(4) 73 77 ?
Ge1 Tb1 Ge1 110.40(8) . 77 ?
Ge1 Tb1 Ge1 69.60(8) 81 77 ?
Ge1 Tb1 Ge1 110.40(8) 9 77 ?
Ga1 Tb1 Ge1 124.80(4) 81 5 ?
Ga1 Tb1 Ge1 55.20(4) 9 5 ?
Ga1 Tb1 Ge1 124.80(4) . 5 ?
Ga1 Tb1 Ge1 90.0 77 5 ?
Ga1 Tb1 Ge1 90.0 5 5 ?
Ga1 Tb1 Ge1 55.20(4) 73 5 ?
Ge1 Tb1 Ge1 69.60(8) . 5 ?
Ge1 Tb1 Ge1 110.40(8) 81 5 ?
Ge1 Tb1 Ge1 69.60(8) 9 5 ?
Ge1 Tb1 Ge1 180.0 77 5 ?
Ga1 Tb1 Ge1 124.80(4) 81 73 ?
Ga1 Tb1 Ge1 55.20(4) 9 73 ?
Ga1 Tb1 Ge1 90.0 . 73 ?
Ga1 Tb1 Ge1 55.20(4) 77 73 ?
Ga1 Tb1 Ge1 124.80(4) 5 73 ?
Ga1 Tb1 Ge1 90.0 73 73 ?
Ge1 Tb1 Ge1 180.00(10) . 73 ?
Ge1 Tb1 Ge1 69.60(8) 81 73 ?
Ge1 Tb1 Ge1 110.40(8) 9 73 ?
Ge1 Tb1 Ge1 69.60(8) 77 73 ?
Ge1 Tb1 Ge1 110.40(8) 5 73 ?
Ge1 Fe1 Ge1 90.0 . 57 ?
Ge1 Fe1 Ge1 180.0 . 49 ?
Ge1 Fe1 Ge1 90.0 57 49 ?
Ge1 Fe1 Ge1 90.0 . 5 ?
Ge1 Fe1 Ge1 90.0 57 5 ?
Ge1 Fe1 Ge1 90.0 49 5 ?
Ge1 Fe1 Ge1 90.0 . 53 ?
Ge1 Fe1 Ge1 90.0 57 53 ?
Ge1 Fe1 Ge1 90.0 49 53 ?
Ge1 Fe1 Ge1 180.0 5 53 ?
Ge1 Fe1 Ge1 90.0 . 9 ?
Ge1 Fe1 Ge1 180.0 57 9 ?
Ge1 Fe1 Ge1 90.0 49 9 ?
Ge1 Fe1 Ge1 90.0 5 9 ?
Ge1 Fe1 Ge1 90.0 53 9 ?
Fe1 Ge1 Ga1 130.44(4) . 81 ?
Fe1 Ge1 Ga1 130.44(4) . 5 ?
Ga1 Ge1 Ga1 65.12(4) 81 5 ?
Fe1 Ge1 Ga1 130.44(4) . 33_544 ?
Ga1 Ge1 Ga1 99.12(8) 81 33_544 ?
Ga1 Ge1 Ga1 65.12(4) 5 33_544 ?
Fe1 Ge1 Ga1 130.44(4) . 53_655 ?
Ga1 Ge1 Ga1 65.12(4) 81 53_655 ?
Ga1 Ge1 Ga1 99.12(8) 5 53_655 ?
Ga1 Ge1 Ga1 65.12(4) 33_544 53_655 ?
Fe1 Ge1 Tb1 84.04(5) . 4 ?
Ga1 Ge1 Tb1 127.06(6) 81 4 ?
Ga1 Ge1 Tb1 127.06(6) 5 4 ?
Ga1 Ge1 Tb1 62.104(14) 33_544 4 ?
Ga1 Ge1 Tb1 62.104(14) 53_655 4 ?
Fe1 Ge1 Tb1 84.04(5) . . ?
Ga1 Ge1 Tb1 62.104(14) 81 . ?
Ga1 Ge1 Tb1 62.104(14) 5 . ?
Ga1 Ge1 Tb1 127.06(6) 33_544 . ?
Ga1 Ge1 Tb1 127.06(6) 53_655 . ?
Tb1 Ge1 Tb1 168.08(10) 4 . ?
Fe1 Ge1 Tb1 84.04(5) . 26_554 ?
Ga1 Ge1 Tb1 127.06(6) 81 26_554 ?
Ga1 Ge1 Tb1 62.104(14) 5 26_554 ?
Ga1 Ge1 Tb1 62.104(14) 33_544 26_554 ?
Ga1 Ge1 Tb1 127.06(6) 53_655 26_554 ?
Tb1 Ge1 Tb1 89.382(10) 4 26_554 ?
Tb1 Ge1 Tb1 89.382(10) . 26_554 ?
Fe1 Ge1 Tb1 84.04(5) . 27_545 ?
Ga1 Ge1 Tb1 62.104(14) 81 27_545 ?
Ga1 Ge1 Tb1 127.06(6) 5 27_545 ?
Ga1 Ge1 Tb1 127.06(6) 33_544 27_545 ?
Ga1 Ge1 Tb1 62.104(14) 53_655 27_545 ?
Tb1 Ge1 Tb1 89.382(10) 4 27_545 ?
Tb1 Ge1 Tb1 89.382(10) . 27_545 ?
Tb1 Ge1 Tb1 168.08(10) 26_554 27_545 ?
Ge1 Ga1 Ge1 125.40(5) 9 77 ?
Ge1 Ga1 Ge1 80.88(8) 9 57_556 ?
Ge1 Ga1 Ge1 125.40(5) 77 57_556 ?
Ge1 Ga1 Ge1 125.40(5) 9 29_545 ?
Ge1 Ga1 Ge1 80.88(8) 77 29_545 ?
Ge1 Ga1 Ge1 125.40(5) 57_556 29_545 ?
Ge1 Ga1 Tb1 62.70(2) 9 27_545 ?
Ge1 Ga1 Tb1 117.30(2) 77 27_545 ?
Ge1 Ga1 Tb1 117.30(2) 57_556 27_545 ?
Ge1 Ga1 Tb1 62.70(2) 29_545 27_545 ?
Ge1 Ga1 Tb1 117.30(2) 9 26 ?
Ge1 Ga1 Tb1 62.70(2) 77 26 ?
Ge1 Ga1 Tb1 62.70(2) 57_556 26 ?
Ge1 Ga1 Tb1 117.30(2) 29_545 26 ?
Tb1 Ga1 Tb1 180.0 27_545 26 ?
Ge1 Ga1 Tb1 117.30(2) 9 4_556 ?
Ge1 Ga1 Tb1 117.30(2) 77 4_556 ?
Ge1 Ga1 Tb1 62.70(2) 57_556 4_556 ?
Ge1 Ga1 Tb1 62.70(2) 29_545 4_556 ?
Tb1 Ga1 Tb1 90.0 27_545 4_556 ?
Tb1 Ga1 Tb1 90.0 26 4_556 ?
Ge1 Ga1 Tb1 62.70(2) 9 . ?
Ge1 Ga1 Tb1 62.70(2) 77 . ?
Ge1 Ga1 Tb1 117.30(2) 57_556 . ?
Ge1 Ga1 Tb1 117.30(2) 29_545 . ?
Tb1 Ga1 Tb1 90.0 27_545 . ?
Tb1 Ga1 Tb1 90.0 26 . ?
Tb1 Ga1 Tb1 180.0 4_556 . ?
loop_
_geom_bond_atom_site_label_1
_geom_bond_atom_site_label_2
_geom_bond_distance
_geom_bond_site_symmetry_2
_geom_bond_publ_flag
Tb1 Ga1 3.0271(3) 81 ?
Tb1 Ga1 3.0271(3) 9 ?
Tb1 Ga1 3.0271(3) . ?
Tb1 Ga1 3.0271(3) 77 ?
Tb1 Ga1 3.0271(3) 5 ?
Tb1 Ga1 3.0271(3) 73 ?
Tb1 Ge1 3.0436(4) . ?
Tb1 Ge1 3.0436(4) 81 ?
Tb1 Ge1 3.0436(4) 9 ?
Tb1 Ge1 3.0436(4) 77 ?
Tb1 Ge1 3.0436(4) 5 ?
Tb1 Ge1 3.0436(4) 73 ?
Fe1 Ge1 2.457(3) . ?
Fe1 Ge1 2.457(3) 57 ?
Fe1 Ge1 2.457(3) 49 ?
Fe1 Ge1 2.457(3) 5 ?
Fe1 Ge1 2.457(3) 53 ?
Fe1 Ge1 2.457(3) 9 ?
Ge1 Ga1 2.8125(17) 81 ?
Ge1 Ga1 2.8125(17) 5 ?
Ge1 Ga1 2.8125(17) 33_544 ?
Ge1 Ga1 2.8125(17) 53_655 ?
Ge1 Tb1 3.0436(4) 4 ?
Ge1 Tb1 3.0436(4) 26_554 ?
Ge1 Tb1 3.0436(4) 27_545 ?
Ga1 Ge1 2.8125(17) 9 ?
Ga1 Ge1 2.8125(17) 77 ?
Ga1 Ge1 2.8125(17) 57_556 ?
Ga1 Ge1 2.8125(17) 29_545 ?
Ga1 Tb1 3.0271(3) 27_545 ?
Ga1 Tb1 3.0271(3) 26 ?
Ga1 Tb1 3.0271(3) 4_556 ?
