#------------------------------------------------------------------------------
#$Date: 2016-02-16 22:30:59 +0200 (Tue, 16 Feb 2016) $
#$Revision: 176467 $
#$URL: svn://www.crystallography.net/cod/cif/4/32/00/4320068.cif $
#------------------------------------------------------------------------------
#
# This file is available in the Crystallography Open Database (COD),
# http://www.crystallography.net/
#
# All data on this site have been placed in the public domain by the
# contributors.
#
data_4320068
loop_
_publ_author_name
'Miguel A. Salvad\'o'
'Pilar Pertierra'
'Santiago Garc\'ia-Granda'
'Sergei A. Khainakov'
'Jos\'e R. Garc\'ia'
'Anatoly I. Bortun'
'Abraham Clearfield'
_publ_contact_author_address
;
Dpto. Qu\'imica F\'isica y Anal\'itica
Universidad de Oviedo
33006 - Oviedo
Spain
;
_publ_contact_author_email       mass@sauron.quimica.uniovi.es
_publ_contact_author_name        'Dr Miguel A. Salvad\'o'
_publ_section_title
;
 Novel Silicate Anion: Si8O2212-. Hydrothermal Synthesis and X-ray Powder
 Structure of Three New Niobium Silicates
;
_journal_name_full               'Inorganic Chemistry'
_journal_page_first              4368
_journal_page_last               4373
_journal_paper_doi               10.1021/ic0101174
_journal_volume                  40
_journal_year                    2001
_chemical_formula_moiety         'H3 Nb1 O12 Si4, (H2 O)'
_chemical_formula_structural     'H Nb (H2 O) Si4 O11 (H2 O)'
_chemical_formula_sum            'H5 Nb O13 Si4'
_chemical_formula_weight         418.28
_chemical_name_systematic
;
niobium(V)tetrasilicate monohydrate
;
_space_group_IT_number           11
_symmetry_cell_setting           monoclinic
_symmetry_space_group_name_Hall  '-P 2yb'
_symmetry_space_group_name_H-M   'P 1 21/m 1'
_cell_angle_alpha                90.0
_cell_angle_beta                 107.293(3)
_cell_angle_gamma                90.0
_cell_formula_units_Z            2
_cell_length_a                   7.3639(4)
_cell_length_b                   9.0086(7)
_cell_length_c                   9.6355(5)
_cell_measurement_temperature    295
_cell_volume                     610.31(7)
_computing_molecular_graphics    'EUCLID (Spek, 1982)'
_computing_structure_refinement  'FULLPROF (Rodriguez-Carvajal, 1990)'
_diffrn_measurement_device_type  Bragg-Brentano
_diffrn_radiation_wavelength     1.5418
_exptl_crystal_density_diffrn    2.28
_exptl_crystal_density_method    'not measured'
_exptl_crystal_F_000             412
_pd_char_colour                  white
_pd_meas_2theta_range_inc        0.02
_pd_meas_2theta_range_max        110
_pd_meas_2theta_range_min        11
_pd_meas_number_of_points        4951
_pd_proc_ls_background_function  'fourth degree polynomial'
_pd_proc_ls_pref_orient_corr     ' ?'
_pd_proc_ls_prof_R_factor        0.0110
_pd_proc_ls_prof_wR_expected     0.0033
_pd_proc_ls_prof_wR_factor       0.0134
_refine_ls_extinction_method     none
_refine_ls_goodness_of_fit_all   4.02
_refine_ls_hydrogen_treatment    noref
_refine_ls_number_constraints    13
_refine_ls_number_parameters     54
_refine_ls_structure_factor_coef Inet
_cod_data_source_file            ic0101174_3.cif
_cod_data_source_block           ns91data
_cod_original_cell_volume        610.31
_cod_original_formula_sum        'H5 Nb1 O13 Si4'
_cod_database_code               4320068
loop_
_symmetry_equiv_pos_site_id
_symmetry_equiv_pos_as_xyz
1 x,y,z
2 -x,1/2+y,-z
3 -x,-y,-z
4 x,1/2-y,z
loop_
_atom_site_label
_atom_site_fract_x
_atom_site_fract_y
_atom_site_fract_z
_atom_site_U_iso_or_equiv
_atom_site_thermal_displace_type
_atom_site_occupancy
_atom_site_type_symbol
Nb .9109(4) .25 .0867(4) .040(8) Uiso 1 Nb
Si1 .572(1) .25 .5845(9) .041(1) Uiso 1 Si
Si2 .564(1) .25 .258(1) .041(1) Uiso 1 Si
Si3 .7281(8) .5045(8) .8117(6) .041(1) Uiso 1 Si
O1 .233(2) .907(2) .042(1) .040(1) Uiso 1 O
O2 .746(2) .25 .203(2) .040(1) Uiso 1 O
O3 .065(2) .25 .922(2) .040(1) Uiso 1 O
O4 .910(2) .606(2) .825(1) .040(1) Uiso 1 O
O5 .359(2) .25 .561(2) .040(1) Uiso 1 O
O6 .633(2) .25 .429(1) .040(1) Uiso 1 O
O7 .673(1) .105(1) .675(1) .040(1) Uiso 1 O
O8 .549(2) .905(1) .802(1) .040(1) Uiso 1 O
O9 .0 .0 .5 .152(1) Uiso 1 O
loop_
_atom_type_symbol
_atom_type_description
_atom_type_scat_source
H H 'International Tables for Crystallography (Vol. C)'
O O 'International Tables for Crystallography (Vol. C)'
NB NB 'International Tables for Crystallography (Vol. C)'
SI SI 'International Tables for Crystallography (Vol. C)'
loop_
_diffrn_radiation_type
CuK\a
loop_
_geom_angle_atom_site_label_1
_geom_angle_atom_site_label_2
_geom_angle_atom_site_label_3
_geom_angle
_geom_angle_publ_flag
O1 Nb O1 91.(1) yes
O1 Nb O4 164.(5) yes
O2 Nb O4 103.(1) yes
O5 Si1 O6 114.(2) yes
O6 Si1 O7 106.(1) yes
O2 Si2 O8 106.(2) yes
O1 Si3 O4 108.(1) yes
O4 Si3 O7 115.(1) yes
O1 Nb O2 93.(1) yes
O1 Nb O4 87.8(9) yes
O3 Nb O4 83.3(9) yes
O5 Si1 O7 112.(1) yes
O7 Si1 O7 108.(1) yes
O6 Si2 O8 110.(1) yes
O1 Si3 O7 109.(2) yes
O4 Si3 O8 113.(2) yes
O1 Nb O3 80.9(9) yes
O2 Nb O3 171.(1) yes
O4 Nb O4 88.(1) yes
O1 Si2 O2 106.4(9) yes
O2 Si2 O6 108.(2) yes
O8 Si2 O8 117.(1) yes
O1 Si3 O8 106.(1) yes
O7 Si3 O8 106.(1) yes
loop_
_geom_bond_atom_site_label_1
_geom_bond_atom_site_label_2
_geom_bond_distance
_geom_bond_publ_flag
Nb O1 1.97(1) yes
Nb O2 1.88(2) yes
Nb O3 2.20(2) yes
Nb O4 1.86(1) yes
Si1 O5 1.52(2) yes
Si1 O6 1.68(1) yes
Si1 O7 1.62(1) yes
Si2 O2 1.59(2) yes
Si2 O6 1.58(1) yes
Si2 O8 1.63(1) yes
Si3 O1 1.61(1) yes
Si3 O4 1.60(1) yes
Si3 O7 1.60(1) yes
Si3 O8 1.53(1) yes
