#------------------------------------------------------------------------------
#$Date: 2016-03-23 15:08:04 +0200 (Wed, 23 Mar 2016) $
#$Revision: 179314 $
#$URL: svn://www.crystallography.net/cod/cif/4/32/11/4321153.cif $
#------------------------------------------------------------------------------
#
# This file is available in the Crystallography Open Database (COD),
# http://www.crystallography.net/
#
# All data on this site have been placed in the public domain by the
# contributors.
#
data_4321153
loop_
_publ_author_name
'Fu Qiang Huang'
'Paul Brazis'
'Carl R. Kannewurf'
'James A. Ibers'
_publ_section_title
;
 Syntheses, Structures, and Physical Properties of LnAsTe (Ln = La, Pr,
 Sm, Gd, Dy, Er)
;
_journal_name_full               'Inorganic Chemistry'
_journal_page_first              3176
_journal_page_last               3180
_journal_paper_doi               10.1021/ic000187v
_journal_volume                  39
_journal_year                    2000
_chemical_formula_sum            'As Dy Te'
_chemical_formula_weight         365.02
_chemical_name_systematic
; 
Dysprosium Asernic Telluride
;
_space_group_IT_number           62
_symmetry_cell_setting           orthorhombic
_symmetry_space_group_name_Hall  '-P 2ac 2n'
_symmetry_space_group_name_H-M   'P n m a'
_atom_sites_solution_hydrogens   geom
_atom_sites_solution_primary     direct
_atom_sites_solution_secondary   difmap
_audit_creation_method           SHELXL-97
_cell_angle_alpha                90.00
_cell_angle_beta                 90.00
_cell_angle_gamma                90.00
_cell_formula_units_Z            4
_cell_length_a                   7.4951(13)
_cell_length_b                   4.0246(7)
_cell_length_c                   9.8288(17)
_cell_measurement_temperature    153(2)
_cell_volume                     296.48(9)
_computing_cell_refinement       'SMART version 5.054 (Bruker, 1999)'
_computing_data_collection       'SMART version 5.054 (Bruker, 1999)'
_computing_data_reduction        'SAINT-Plus version 6.0 (Bruker, 1999)'
_computing_molecular_graphics    'SHELXTL-97 (Sheldrick, 1997)'
_computing_publication_material  'SHELXTL-97 (Sheldrick, 1997)'
_computing_structure_refinement  'SHELXL-97 (Sheldrick, 1997)'
_computing_structure_solution    'SHELXS-97 (Sheldrick, 1990)'
_diffrn_ambient_temperature      153(2)
_diffrn_measured_fraction_theta_full 0.983
_diffrn_measured_fraction_theta_max 0.983
_diffrn_measurement_device_type  'Bruker Smart 1000 CCD'
_diffrn_measurement_method       \w
_diffrn_radiation_monochromator  graphite
_diffrn_radiation_source         'standard-focus sealed tube'
_diffrn_radiation_type           MoK\a
_diffrn_radiation_wavelength     0.71073
_diffrn_reflns_av_R_equivalents  0.0387
_diffrn_reflns_av_sigmaI/netI    0.0192
_diffrn_reflns_limit_h_max       9
_diffrn_reflns_limit_h_min       -9
_diffrn_reflns_limit_k_max       5
_diffrn_reflns_limit_k_min       -5
_diffrn_reflns_limit_l_max       12
_diffrn_reflns_limit_l_min       -12
_diffrn_reflns_number            2491
_diffrn_reflns_theta_full        28.15
_diffrn_reflns_theta_max         28.15
_diffrn_reflns_theta_min         3.42
_diffrn_standards_decay_%        <2
_exptl_absorpt_coefficient_mu    45.574
_exptl_absorpt_correction_T_max  0.391
_exptl_absorpt_correction_T_min  0.073
_exptl_absorpt_process_details   'face indexed (Sheldrick, 1997)'
_exptl_crystal_colour            black
_exptl_crystal_density_diffrn    8.178
_exptl_crystal_density_method    'not measured'
_exptl_crystal_description       needle
_exptl_crystal_F_000             604
_exptl_crystal_size_max          0.592
_exptl_crystal_size_mid          0.056
_exptl_crystal_size_min          0.054
_refine_diff_density_max         1.624
_refine_diff_density_min         -2.188
_refine_diff_density_rms         0.494
_refine_ls_extinction_coef       0.0145(8)
_refine_ls_extinction_expression Fc^*^=kFc[1+0.001xFc^2^\l^3^/sin(2\q)]^-1/4^
_refine_ls_extinction_method     SHELXL
_refine_ls_goodness_of_fit_ref   1.232
_refine_ls_hydrogen_treatment    mixed
_refine_ls_matrix_type           full
_refine_ls_number_parameters     20
_refine_ls_number_reflns         406
_refine_ls_number_restraints     0
_refine_ls_restrained_S_all      1.232
_refine_ls_R_factor_all          0.0238
_refine_ls_R_factor_gt           0.0237
_refine_ls_shift/su_max          0.001
_refine_ls_shift/su_mean         0.000
_refine_ls_structure_factor_coef Fsqd
_refine_ls_weighting_details
; calc 
 [1.00000+0.00000exp(0.00(sin\q/\l)^2^)]/ 
   [\s^2^(Fo^2^)+0.0000+0.0000*P+(0.0400P)^2^+0.0000sin\q/\l] 
 where P = 1.00000Fo^2^ + 0.00000Fc^2^ 
;
_refine_ls_weighting_scheme      calc
_refine_ls_wR_factor_gt          0.0620
_refine_ls_wR_factor_ref         0.0620
_reflns_number_gt                402
_reflns_number_total             406
_reflns_threshold_expression     >2sigma(I)
_cod_data_source_file            ic000187v_5.cif
_cod_data_source_block           dy
_cod_depositor_comments
;
The following automatic conversions were performed:

'_symmetry_cell_setting' value 'Orthorhombic' changed to
'orthorhombic' according to the built-in table from CIF Core
dictionary named 'cif_core.dic' version 2.4.1 from 2010-06-29.

Automatic conversion script
Id: cif_fix_values 1646 2011-03-28 12:23:43Z adriana 
;
_cod_database_code               4321153
loop_
_symmetry_equiv_pos_as_xyz
'x, y, z'
'-x+1/2, -y, z+1/2'
'-x, y+1/2, -z'
'x+1/2, -y+1/2, -z+1/2'
'-x, -y, -z'
'x-1/2, y, -z-1/2'
'x, -y-1/2, z'
'-x-1/2, y-1/2, z-1/2'
loop_
_atom_site_label
_atom_site_type_symbol
_atom_site_fract_x
_atom_site_fract_y
_atom_site_fract_z
_atom_site_U_iso_or_equiv
_atom_site_adp_type
_atom_site_occupancy
_atom_site_symmetry_multiplicity
_atom_site_calc_flag
_atom_site_refinement_flags
_atom_site_disorder_assembly
_atom_site_disorder_group
Dy Dy 0.22995(4) 0.2500 0.34109(3) 0.0062(2) Uani 1 2 d S . .
As As 0.09664(8) 0.2500 0.03949(6) 0.0063(2) Uani 1 2 d S . .
Te Te 0.08512(6) 0.2500 0.64832(4) 0.0061(2) Uani 1 2 d S . .
loop_
_atom_site_aniso_label
_atom_site_aniso_U_11
_atom_site_aniso_U_22
_atom_site_aniso_U_33
_atom_site_aniso_U_23
_atom_site_aniso_U_13
_atom_site_aniso_U_12
Dy 0.0064(3) 0.0069(3) 0.0054(3) 0.000 -0.00001(8) 0.000
As 0.0068(3) 0.0071(3) 0.0050(4) 0.000 0.0002(2) 0.000
Te 0.0062(3) 0.0068(3) 0.0054(3) 0.000 -0.00017(12) 0.000
loop_
_atom_type_symbol
_atom_type_description
_atom_type_scat_dispersion_real
_atom_type_scat_dispersion_imag
_atom_type_scat_source
As As 0.0499 2.0058 'International Tables Vol C Tables 4.2.6.8 and 6.1.1.4'
Te Te -0.5308 1.6751 'International Tables Vol C Tables 4.2.6.8 and 6.1.1.4'
Dy Dy -0.1892 4.4098 'International Tables Vol C Tables 4.2.6.8 and 6.1.1.4'
loop_
_geom_angle_atom_site_label_1
_geom_angle_atom_site_label_2
_geom_angle_atom_site_label_3
_geom_angle
_geom_angle_site_symmetry_1
_geom_angle_site_symmetry_3
_geom_angle_publ_flag
As Dy As 50.587(14) 6_656 2_565 ?
As Dy As 50.587(14) 6_656 2 ?
As Dy As 81.304(19) 2_565 2 ?
As Dy Te 80.120(15) 6_656 2_554 ?
As Dy Te 128.48(2) 2_565 2_554 ?
As Dy Te 76.954(18) 2 2_554 ?
As Dy Te 80.120(15) 6_656 2_564 ?
As Dy Te 76.954(18) 2_565 2_564 ?
As Dy Te 128.48(2) 2 2_564 ?
Te Dy Te 81.205(17) 2_554 2_564 ?
As Dy Te 133.348(12) 6_656 5_556 ?
As Dy Te 136.155(17) 2_565 5_556 ?
As Dy Te 82.913(15) 2 5_556 ?
Te Dy Te 86.542(12) 2_554 5_556 ?
Te Dy Te 141.574(13) 2_564 5_556 ?
As Dy Te 133.348(12) 6_656 5_566 ?
As Dy Te 82.913(15) 2_565 5_566 ?
As Dy Te 136.155(17) 2 5_566 ?
Te Dy Te 141.574(13) 2_554 5_566 ?
Te Dy Te 86.542(12) 2_564 5_566 ?
Te Dy Te 80.815(19) 5_556 5_566 ?
As Dy As 131.75(2) 6_656 . ?
As Dy As 137.108(11) 2_565 . ?
As Dy As 137.108(11) 2 . ?
Te Dy As 64.055(14) 2_554 . ?
Te Dy As 64.055(14) 2_564 . ?
Te Dy As 77.807(13) 5_556 . ?
Te Dy As 77.807(13) 5_566 . ?
As Dy Te 86.648(19) 6_656 . ?
As Dy Te 63.144(15) 2_565 . ?
As Dy Te 63.144(15) 2 . ?
Te Dy Te 136.744(9) 2_554 . ?
Te Dy Te 136.744(9) 2_564 . ?
Te Dy Te 73.209(12) 5_556 . ?
Te Dy Te 73.209(12) 5_566 . ?
As Dy Te 141.60(2) . . ?
As As As 101.52(4) 5 5_565 ?
As As Dy 66.71(2) 5 6_556 ?
As As Dy 66.71(2) 5_565 6_556 ?
As As Dy 62.70(2) 5 2_554 ?
As As Dy 123.40(4) 5_565 2_554 ?
Dy As Dy 129.413(14) 6_556 2_554 ?
As As Dy 123.40(4) 5 2_564 ?
As As Dy 62.70(2) 5_565 2_564 ?
Dy As Dy 129.413(14) 6_556 2_564 ?
Dy As Dy 81.304(19) 2_554 2_564 ?
As As Dy 117.47(3) 5 . ?
As As Dy 117.47(3) 5_565 . ?
Dy As Dy 85.502(19) 6_556 . ?
Dy As Dy 117.635(17) 2_554 . ?
Dy As Dy 117.635(17) 2_564 . ?
Dy Te Dy 81.205(17) 2_565 2 ?
Dy Te Dy 137.930(15) 2_565 5_556 ?
Dy Te Dy 84.180(12) 2 5_556 ?
Dy Te Dy 84.180(12) 2_565 5_566 ?
Dy Te Dy 137.930(15) 2 5_566 ?
Dy Te Dy 80.815(19) 5_556 5_566 ?
Dy Te Dy 115.152(14) 2_565 . ?
Dy Te Dy 115.152(14) 2 . ?
Dy Te Dy 106.791(12) 5_556 . ?
Dy Te Dy 106.791(12) 5_566 . ?
loop_
_geom_bond_atom_site_label_1
_geom_bond_atom_site_label_2
_geom_bond_distance
_geom_bond_site_symmetry_2
_geom_bond_publ_flag
Dy As 2.9885(8) 6_656 ?
Dy As 3.0889(6) 2_565 ?
Dy As 3.0889(6) 2 ?
Dy Te 3.0920(5) 2_554 ?
Dy Te 3.0920(5) 2_564 ?
Dy Te 3.1043(6) 5_556 ?
Dy Te 3.1043(6) 5_566 ?
Dy As 3.1282(8) . ?
Dy Te 3.2088(7) . ?
As As 2.5982(8) 5 ?
As As 2.5982(8) 5_565 ?
As Dy 2.9885(8) 6_556 ?
As Dy 3.0889(6) 2_554 ?
As Dy 3.0889(6) 2_564 ?
Te Dy 3.0920(5) 2_565 ?
Te Dy 3.0920(5) 2 ?
Te Dy 3.1043(6) 5_556 ?
Te Dy 3.1043(6) 5_566 ?
