#------------------------------------------------------------------------------
#$Date: 2016-03-23 15:08:04 +0200 (Wed, 23 Mar 2016) $
#$Revision: 179314 $
#$URL: svn://www.crystallography.net/cod/cif/4/32/11/4321154.cif $
#------------------------------------------------------------------------------
#
# This file is available in the Crystallography Open Database (COD),
# http://www.crystallography.net/
#
# All data on this site have been placed in the public domain by the
# contributors.
#
data_4321154
loop_
_publ_author_name
'Fu Qiang Huang'
'Paul Brazis'
'Carl R. Kannewurf'
'James A. Ibers'
_publ_section_title
;
 Syntheses, Structures, and Physical Properties of LnAsTe (Ln = La, Pr,
 Sm, Gd, Dy, Er)
;
_journal_name_full               'Inorganic Chemistry'
_journal_page_first              3176
_journal_page_last               3180
_journal_paper_doi               10.1021/ic000187v
_journal_volume                  39
_journal_year                    2000
_chemical_formula_sum            'As Er Te'
_chemical_formula_weight         369.78
_chemical_name_systematic
; 
Erbium Asernic Telluride
;
_space_group_IT_number           62
_symmetry_cell_setting           orthorhombic
_symmetry_space_group_name_Hall  '-P 2ac 2n'
_symmetry_space_group_name_H-M   'P n m a'
_atom_sites_solution_hydrogens   geom
_atom_sites_solution_primary     direct
_atom_sites_solution_secondary   difmap
_audit_creation_method           SHELXL-97
_cell_angle_alpha                90.00
_cell_angle_beta                 90.00
_cell_angle_gamma                90.00
_cell_formula_units_Z            4
_cell_length_a                   7.44780(10)
_cell_length_b                   4.00780(10)
_cell_length_c                   9.7552(2)
_cell_measurement_temperature    153(2)
_cell_volume                     291.186(10)
_computing_cell_refinement       'SMART version 5.054 (Bruker, 1999)'
_computing_data_collection       'SMART version 5.054 (Bruker, 1999)'
_computing_data_reduction        'SAINT-Plus version 6.0 (Bruker, 1999)'
_computing_molecular_graphics    'SHELXTL-97 (Sheldrick, 1997)'
_computing_publication_material  'SHELXTL-97 (Sheldrick, 1997)'
_computing_structure_refinement  'SHELXL-97 (Sheldrick, 1997)'
_computing_structure_solution    'SHELXS-97 (Sheldrick, 1990)'
_diffrn_ambient_temperature      153(2)
_diffrn_measured_fraction_theta_full 0.953
_diffrn_measured_fraction_theta_max 0.953
_diffrn_measurement_device_type  'Bruker Smart 1000 CCD'
_diffrn_measurement_method       \w
_diffrn_radiation_monochromator  graphite
_diffrn_radiation_source         'standard-focus sealed tube'
_diffrn_radiation_type           MoK\a
_diffrn_radiation_wavelength     0.71073
_diffrn_reflns_av_R_equivalents  0.0297
_diffrn_reflns_av_sigmaI/netI    0.0262
_diffrn_reflns_limit_h_max       16
_diffrn_reflns_limit_h_min       -15
_diffrn_reflns_limit_k_max       7
_diffrn_reflns_limit_k_min       -8
_diffrn_reflns_limit_l_max       10
_diffrn_reflns_limit_l_min       -21
_diffrn_reflns_number            5223
_diffrn_reflns_theta_full        50.15
_diffrn_reflns_theta_max         50.15
_diffrn_reflns_theta_min         3.44
_diffrn_standards_decay_%        <2
_exptl_absorpt_coefficient_mu    49.563
_exptl_absorpt_correction_T_max  0.204
_exptl_absorpt_correction_T_min  0.031
_exptl_absorpt_process_details   'face indexed (Sheldrick, 1997)'
_exptl_crystal_colour            black
_exptl_crystal_density_diffrn    8.435
_exptl_crystal_density_method    'not measured'
_exptl_crystal_description       needle
_exptl_crystal_F_000             612
_exptl_crystal_size_max          0.308
_exptl_crystal_size_mid          0.050
_exptl_crystal_size_min          0.050
_refine_diff_density_max         5.015
_refine_diff_density_min         -5.427
_refine_diff_density_rms         0.701
_refine_ls_extinction_coef       0.0074(4)
_refine_ls_extinction_expression Fc^*^=kFc[1+0.001xFc^2^\l^3^/sin(2\q)]^-1/4^
_refine_ls_extinction_method     SHELXL
_refine_ls_goodness_of_fit_ref   1.063
_refine_ls_hydrogen_treatment    mixed
_refine_ls_matrix_type           full
_refine_ls_number_parameters     20
_refine_ls_number_reflns         1595
_refine_ls_number_restraints     0
_refine_ls_restrained_S_all      1.063
_refine_ls_R_factor_all          0.0338
_refine_ls_R_factor_gt           0.0279
_refine_ls_shift/su_max          0.001
_refine_ls_shift/su_mean         0.000
_refine_ls_structure_factor_coef Fsqd
_refine_ls_weighting_details
; calc 
 [1.00000+0.00000exp(0.00(sin\q/\l)^2^)]/ 
   [\s^2^(Fo^2^)+0.0000+0.0000*P+(0.0400P)^2^+0.0000sin\q/\l] 
 where P = 1.00000Fo^2^ + 0.00000Fc^2^ 
;
_refine_ls_weighting_scheme      calc
_refine_ls_wR_factor_gt          0.0687
_refine_ls_wR_factor_ref         0.0706
_reflns_number_gt                1390
_reflns_number_total             1595
_reflns_threshold_expression     >2sigma(I)
_cod_data_source_file            ic000187v_6.cif
_cod_data_source_block           er
_cod_depositor_comments
;
The following automatic conversions were performed:

'_symmetry_cell_setting' value 'Orthorhombic' changed to
'orthorhombic' according to the built-in table from CIF Core
dictionary named 'cif_core.dic' version 2.4.1 from 2010-06-29.

Automatic conversion script
Id: cif_fix_values 1646 2011-03-28 12:23:43Z adriana 
;
_cod_database_code               4321154
loop_
_symmetry_equiv_pos_as_xyz
'x, y, z'
'-x+1/2, -y, z+1/2'
'-x, y+1/2, -z'
'x+1/2, -y+1/2, -z+1/2'
'-x, -y, -z'
'x-1/2, y, -z-1/2'
'x, -y-1/2, z'
'-x-1/2, y-1/2, z-1/2'
loop_
_atom_site_label
_atom_site_type_symbol
_atom_site_fract_x
_atom_site_fract_y
_atom_site_fract_z
_atom_site_U_iso_or_equiv
_atom_site_adp_type
_atom_site_occupancy
_atom_site_symmetry_multiplicity
_atom_site_calc_flag
_atom_site_refinement_flags
_atom_site_disorder_assembly
_atom_site_disorder_group
Er Er 0.23099(2) 0.2500 0.340944(17) 0.00459(4) Uani 1 2 d S . .
As As 0.09734(5) 0.2500 0.03964(4) 0.00477(6) Uani 1 2 d S . .
Te Te 0.08404(3) 0.2500 0.64834(2) 0.00456(5) Uani 1 2 d S . .
loop_
_atom_site_aniso_label
_atom_site_aniso_U_11
_atom_site_aniso_U_22
_atom_site_aniso_U_33
_atom_site_aniso_U_23
_atom_site_aniso_U_13
_atom_site_aniso_U_12
Er 0.00402(6) 0.00488(7) 0.00486(6) 0.000 -0.00002(4) 0.000
As 0.00453(11) 0.00563(15) 0.00415(13) 0.000 0.00019(10) 0.000
Te 0.00414(7) 0.00463(9) 0.00490(8) 0.000 -0.00010(5) 0.000
loop_
_atom_type_symbol
_atom_type_description
_atom_type_scat_dispersion_real
_atom_type_scat_dispersion_imag
_atom_type_scat_source
As As 0.0499 2.0058 'International Tables Vol C Tables 4.2.6.8 and 6.1.1.4'
Te Te -0.5308 1.6751 'International Tables Vol C Tables 4.2.6.8 and 6.1.1.4'
Er Er -0.2586 4.9576 'International Tables Vol C Tables 4.2.6.8 and 6.1.1.4'
loop_
_geom_angle_atom_site_label_1
_geom_angle_atom_site_label_2
_geom_angle_atom_site_label_3
_geom_angle
_geom_angle_site_symmetry_1
_geom_angle_site_symmetry_3
_geom_angle_publ_flag
As Er As 50.838(9) 6_656 2_565 ?
As Er As 50.838(9) 6_656 2 ?
As Er As 81.589(11) 2_565 2 ?
As Er Te 80.083(8) 6_656 2_554 ?
As Er Te 128.722(10) 2_565 2_554 ?
As Er Te 76.907(8) 2 2_554 ?
As Er Te 80.083(8) 6_656 2_564 ?
As Er Te 76.907(8) 2_565 2_564 ?
As Er Te 128.722(10) 2 2_564 ?
Te Er Te 81.398(7) 2_554 2_564 ?
As Er Te 133.285(6) 6_656 5_556 ?
As Er Te 136.011(11) 2_565 5_556 ?
As Er Te 82.607(7) 2 5_556 ?
Te Er Te 86.453(4) 2_554 5_556 ?
Te Er Te 141.688(7) 2_564 5_556 ?
As Er Te 133.285(6) 6_656 5_566 ?
As Er Te 82.607(7) 2_565 5_566 ?
As Er Te 136.011(11) 2 5_566 ?
Te Er Te 141.688(7) 2_554 5_566 ?
Te Er Te 86.453(4) 2_564 5_566 ?
Te Er Te 80.944(7) 5_556 5_566 ?
As Er As 131.829(12) 6_656 . ?
As Er As 137.077(7) 2_565 . ?
As Er As 137.077(7) 2 . ?
Te Er As 64.195(7) 2_554 . ?
Te Er As 64.195(7) 2_564 . ?
Te Er As 77.778(8) 5_556 . ?
Te Er As 77.778(8) 5_566 . ?
As Er Te 86.931(10) 6_656 . ?
As Er Te 63.210(8) 2_565 . ?
As Er Te 63.210(8) 2 . ?
Te Er Te 136.723(5) 2_554 . ?
Te Er Te 136.723(5) 2_564 . ?
Te Er Te 73.000(7) 5_556 . ?
Te Er Te 73.000(7) 5_566 . ?
As Er Te 141.240(10) . . ?
As As As 101.29(3) 5 5_565 ?
As As Er 66.585(15) 5 6_556 ?
As As Er 66.585(15) 5_565 6_556 ?
As As Er 62.577(13) 5 2_554 ?
As As Er 123.36(2) 5_565 2_554 ?
Er As Er 129.162(9) 6_556 2_554 ?
As As Er 123.36(2) 5 2_564 ?
As As Er 62.577(13) 5_565 2_564 ?
Er As Er 129.162(9) 6_556 2_564 ?
Er As Er 81.589(10) 2_554 2_564 ?
As As Er 117.523(18) 5 . ?
As As Er 117.523(18) 5_565 . ?
Er As Er 85.588(11) 6_556 . ?
Er As Er 117.701(10) 2_554 . ?
Er As Er 117.701(10) 2_564 . ?
Er Te Er 81.398(7) 2_565 2 ?
Er Te Er 138.008(9) 2_565 5_556 ?
Er Te Er 84.073(4) 2 5_556 ?
Er Te Er 84.073(4) 2_565 5_566 ?
Er Te Er 138.008(8) 2 5_566 ?
Er Te Er 80.944(7) 5_556 5_566 ?
Er Te Er 114.875(6) 2_565 . ?
Er Te Er 114.875(6) 2 . ?
Er Te Er 107.000(7) 5_556 . ?
Er Te Er 107.000(7) 5_566 . ?
loop_
_geom_bond_atom_site_label_1
_geom_bond_atom_site_label_2
_geom_bond_distance
_geom_bond_site_symmetry_2
_geom_bond_publ_flag
Er As 2.9668(4) 6_656 ?
Er As 3.0671(3) 2_565 ?
Er As 3.0671(3) 2 ?
Er Te 3.0731(2) 2_554 ?
Er Te 3.0731(2) 2_564 ?
Er Te 3.0873(2) 5_556 ?
Er Te 3.0873(2) 5_566 ?
Er As 3.1033(4) . ?
Er Te 3.1922(3) . ?
As As 2.5915(5) 5 ?
As As 2.5915(5) 5_565 ?
As Er 2.9668(4) 6_556 ?
As Er 3.0671(3) 2_554 ?
As Er 3.0671(3) 2_564 ?
Te Er 3.0731(2) 2_565 ?
Te Er 3.0731(2) 2 ?
Te Er 3.0873(2) 5_556 ?
Te Er 3.0873(2) 5_566 ?
