#------------------------------------------------------------------------------
#$Date: 2016-03-23 15:44:37 +0200 (Wed, 23 Mar 2016) $
#$Revision: 179345 $
#$URL: svn://www.crystallography.net/cod/cif/4/32/42/4324279.cif $
#------------------------------------------------------------------------------
#
# This file is available in the Crystallography Open Database (COD),
# http://www.crystallography.net/
#
# All data on this site have been placed in the public domain by the
# contributors.
#
data_4324279
loop_
_publ_author_name
'Ralph A. Zehnder'
'Christopher S. Wilson'
'Hunter T. Christy'
'Kenneth S. Harris'
'Varun Chauhan'
'Victor Schutz'
'Matthew Sullivan'
'Matthias Zeller'
'Frank R. Fronczek'
'Jacob A. Myers'
'Kyle Dammann'
'James Duck'
'Peter M. Smith'
'Antony Okuma'
'Kristin Johnson'
'Robert Sovesky'
'Cameron Stroudt'
'Robert A. Renn'
_publ_section_title
;
 Effect of Inclining Strain on the Crystal Lattice along an Extended
 Series of Lanthanide Hydroxysulfates Ln(OH)SO4 (Ln = Pr-Yb, except Pm)
;
_journal_name_full               'Inorganic Chemistry'
_journal_page_first              836
_journal_page_last               846
_journal_paper_doi               10.1021/ic101350f
_journal_volume                  50
_journal_year                    2011
_chemical_formula_sum            'H Nd O5 S'
_chemical_formula_weight         257.31
_chemical_name_systematic
; 
 ? 
;
_space_group_IT_number           14
_symmetry_cell_setting           monoclinic
_symmetry_space_group_name_Hall  '-P 2yn'
_symmetry_space_group_name_H-M   'P 1 21/n 1'
_atom_sites_solution_hydrogens   geom
_atom_sites_solution_primary     direct
_atom_sites_solution_secondary   difmap
_audit_creation_method           SHELXL-97
_cell_angle_alpha                90
_cell_angle_beta                 106.396(9)
_cell_angle_gamma                90
_cell_formula_units_Z            4
_cell_length_a                   4.4733(10)
_cell_length_b                   12.432(2)
_cell_length_c                   6.8346(12)
_cell_measurement_reflns_used    2359
_cell_measurement_temperature    90.0(5)
_cell_measurement_theta_max      40.8
_cell_measurement_theta_min      2.5
_cell_volume                     364.63(12)
_computing_cell_refinement
'Denzo and Scalepack (Otwinowski & Minor, 1997)'
_computing_data_collection       'COLLECT (Nonius 1999)'
_computing_data_reduction
'Denzo and Scalepack (Otwinowski & Minor, 1997)'
_computing_molecular_graphics    'ORTEP-3 for Windows (Farrugia, 1997)'
_computing_publication_material  'SHELXL-97 (Sheldrick, 2008)'
_computing_structure_refinement  'SHELXL-97 (Sheldrick, 2008)'
_computing_structure_solution
'Direct_methods (SIR, Altomare, et al., 1994)'
_diffrn_ambient_temperature      90.0(5)
_diffrn_measured_fraction_theta_full 1.000
_diffrn_measured_fraction_theta_max 0.983
_diffrn_measurement_device       'Nonius KappaCCD (with Oxford Cryostream)'
_diffrn_measurement_method       '\w and \f scans '
_diffrn_radiation_monochromator  graphite
_diffrn_radiation_source         'fine-focus sealed tube'
_diffrn_radiation_type           MoK\a
_diffrn_radiation_wavelength     0.71073
_diffrn_reflns_av_R_equivalents  0.030
_diffrn_reflns_av_sigmaI/netI    0.0356
_diffrn_reflns_limit_h_max       8
_diffrn_reflns_limit_h_min       -8
_diffrn_reflns_limit_k_max       22
_diffrn_reflns_limit_k_min       -22
_diffrn_reflns_limit_l_max       12
_diffrn_reflns_limit_l_min       -12
_diffrn_reflns_number            12197
_diffrn_reflns_theta_full        25.0
_diffrn_reflns_theta_max         40.8
_diffrn_reflns_theta_min         3.2
_exptl_absorpt_coefficient_mu    14.695
_exptl_absorpt_correction_T_max  0.643
_exptl_absorpt_correction_T_min  0.189
_exptl_absorpt_correction_type   multi-scan
_exptl_absorpt_process_details   'HKL Scalepack (Otwinowski & Minor 1997)'
_exptl_crystal_colour            colorless
_exptl_crystal_density_diffrn    4.687
_exptl_crystal_description       lath
_exptl_crystal_F_000             468
_exptl_crystal_size_max          0.17
_exptl_crystal_size_mid          0.08
_exptl_crystal_size_min          0.03
_refine_diff_density_max         5.04
_refine_diff_density_min         -5.08
_refine_diff_density_rms         0.616
_refine_ls_extinction_coef       0.0183(15)
_refine_ls_extinction_expression Fc^*^=kFc[1+0.001xFc^2^\l^3^/sin(2\q)]^-1/4^
_refine_ls_extinction_method     SHELXL
_refine_ls_goodness_of_fit_ref   1.043
_refine_ls_hydrogen_treatment    constr
_refine_ls_matrix_type           full
_refine_ls_number_parameters     65
_refine_ls_number_reflns         2337
_refine_ls_number_restraints     6
_refine_ls_restrained_S_all      1.044
_refine_ls_R_factor_all          0.041
_refine_ls_R_factor_gt           0.037
_refine_ls_shift/su_max          0.002
_refine_ls_shift/su_mean         0.000
_refine_ls_structure_factor_coef Fsqd
_refine_ls_weighting_details
'calc w=1/[\s^2^(Fo^2^)+(0.0693P)^2^+1.5615P] where P=(Fo^2^+2Fc^2^)/3'
_refine_ls_weighting_scheme      calc
_refine_ls_wR_factor_gt          0.095
_refine_ls_wR_factor_ref         0.102
_reflns_number_gt                2121
_reflns_number_total             2337
_reflns_threshold_expression     I>2\s(I)
_cod_data_source_file            ic101350f_si_009_02.cif
_cod_data_source_block           NdOHSO4
_cod_original_sg_symbol_H-M      'P 21/n '
_cod_database_code               4324279
loop_
_symmetry_equiv_pos_as_xyz
'x, y, z'
'-x+1/2, y+1/2, -z+1/2'
'-x, -y, -z'
'x-1/2, -y-1/2, z-1/2'
loop_
_atom_site_label
_atom_site_type_symbol
_atom_site_fract_x
_atom_site_fract_y
_atom_site_fract_z
_atom_site_U_iso_or_equiv
_atom_site_adp_type
_atom_site_occupancy
_atom_site_symmetry_multiplicity
_atom_site_calc_flag
_atom_site_refinement_flags
Nd1 Nd 0.14006(4) 0.564368(13) 0.80191(3) 0.00218(7) Uani 1 1 d .
S1 S 0.48289(17) 0.64565(6) 0.38778(12) 0.00255(13) Uani 1 1 d .
O1 O 0.3641(6) 0.6664(2) 0.5631(4) 0.0050(4) Uani 1 1 d U
O2 O 0.7530(6) 0.56911(19) 0.4506(5) 0.0045(4) Uani 1 1 d .
O3 O 0.5912(6) 0.7459(2) 0.3178(4) 0.0056(4) Uani 1 1 d .
O4 O 0.2453(6) 0.5956(2) 0.2179(4) 0.0054(4) Uani 1 1 d .
O5 O 0.3043(6) 0.4146(2) 1.0400(4) 0.0046(4) Uani 1 1 d .
H5 H 0.2712 0.3463 0.9595 0.006 Uiso 1 1 calc R
loop_
_atom_site_aniso_label
_atom_site_aniso_U_11
_atom_site_aniso_U_22
_atom_site_aniso_U_33
_atom_site_aniso_U_23
_atom_site_aniso_U_13
_atom_site_aniso_U_12
Nd1 0.00274(9) 0.00223(9) 0.00180(10) 0.00022(4) 0.00100(6) 0.00006(4)
S1 0.0034(3) 0.0024(3) 0.0020(3) 0.0001(2) 0.0010(2) -0.00052(19)
O1 0.0067(7) 0.0053(7) 0.0045(7) -0.0005(6) 0.0040(6) 0.0002(6)
O2 0.0038(8) 0.0050(9) 0.0038(10) 0.0001(7) -0.0001(7) 0.0025(6)
O3 0.0093(9) 0.0033(8) 0.0056(10) 0.0005(7) 0.0045(8) -0.0004(7)
O4 0.0045(8) 0.0068(10) 0.0040(9) -0.0015(8) -0.0003(7) -0.0016(7)
O5 0.0042(8) 0.0047(8) 0.0053(10) -0.0012(8) 0.0018(7) -0.0010(7)
loop_
_atom_type_symbol
_atom_type_description
_atom_type_scat_dispersion_real
_atom_type_scat_dispersion_imag
_atom_type_scat_source
H H 0.0000 0.0000 'International Tables Vol C Tables 4.2.6.8 and 6.1.1.4'
Nd Nd -0.1943 3.0179 'International Tables Vol C Tables 4.2.6.8 and 6.1.1.4'
O O 0.0106 0.0060 'International Tables Vol C Tables 4.2.6.8 and 6.1.1.4'
S S 0.1246 0.1234 'International Tables Vol C Tables 4.2.6.8 and 6.1.1.4'
loop_
_geom_angle_atom_site_label_1
_geom_angle_atom_site_label_2
_geom_angle_atom_site_label_3
_geom_angle
_geom_angle_site_symmetry_1
_geom_angle_site_symmetry_3
O3 Nd1 O5 88.19(9) 4_576 3_667
O3 Nd1 O5 137.75(9) 4_576 .
O5 Nd1 O5 73.06(10) 3_667 .
O3 Nd1 O1 65.38(9) 4_576 .
O5 Nd1 O1 71.69(9) 3_667 .
O5 Nd1 O1 136.31(9) . .
O3 Nd1 O5 77.53(9) 4_576 3_567
O5 Nd1 O5 128.89(12) 3_667 3_567
O5 Nd1 O5 85.37(9) . 3_567
O1 Nd1 O5 137.51(9) . 3_567
O3 Nd1 O2 88.47(9) 4_576 1_455
O5 Nd1 O2 139.36(10) 3_667 1_455
O5 Nd1 O2 130.16(8) . 1_455
O1 Nd1 O2 70.16(9) . 1_455
O5 Nd1 O2 89.61(9) 3_567 1_455
O3 Nd1 O2 135.98(9) 4_576 3_666
O5 Nd1 O2 90.42(9) 3_667 3_666
O5 Nd1 O2 82.85(9) . 3_666
O1 Nd1 O2 72.48(9) . 3_666
O5 Nd1 O2 132.88(9) 3_567 3_666
O2 Nd1 O2 65.15(9) 1_455 3_666
O3 Nd1 O4 133.74(9) 4_576 3_566
O5 Nd1 O4 133.10(9) 3_667 3_566
O5 Nd1 O4 61.60(8) . 3_566
O1 Nd1 O4 137.40(9) . 3_566
O5 Nd1 O4 60.92(9) 3_567 3_566
O2 Nd1 O4 72.78(9) 1_455 3_566
O2 Nd1 O4 73.42(9) 3_666 3_566
O3 Nd1 O4 78.76(9) 4_576 1_556
O5 Nd1 O4 70.90(8) 3_667 1_556
O5 Nd1 O4 59.51(9) . 1_556
O1 Nd1 O4 128.10(8) . 1_556
O5 Nd1 O4 58.30(8) 3_567 1_556
O2 Nd1 O4 147.21(8) 1_455 1_556
O2 Nd1 O4 141.17(8) 3_666 1_556
O4 Nd1 O4 94.50(7) 3_566 1_556
O3 Nd1 Nd1 110.22(7) 4_576 3_567
O5 Nd1 Nd1 103.85(7) 3_667 3_567
O5 Nd1 Nd1 43.58(6) . 3_567
O1 Nd1 Nd1 173.45(6) . 3_567
O5 Nd1 Nd1 41.79(6) 3_567 3_567
O2 Nd1 Nd1 115.25(7) 1_455 3_567
O2 Nd1 Nd1 112.79(6) 3_666 3_567
O4 Nd1 Nd1 49.14(6) 3_566 3_567
O4 Nd1 Nd1 45.36(6) 1_556 3_567
O3 Nd1 Nd1 116.27(7) 4_576 3_667
O5 Nd1 Nd1 36.68(7) 3_667 3_667
O5 Nd1 Nd1 36.38(6) . 3_667
O1 Nd1 Nd1 104.88(6) . 3_667
O5 Nd1 Nd1 109.81(6) 3_567 3_667
O2 Nd1 Nd1 150.83(6) 1_455 3_667
O2 Nd1 Nd1 85.80(6) 3_666 3_667
O4 Nd1 Nd1 97.27(6) 3_566 3_667
O4 Nd1 Nd1 58.69(6) 1_556 3_667
Nd1 Nd1 Nd1 72.304(15) 3_567 3_667
O1 S1 O3 110.31(16) . .
O1 S1 O4 111.82(16) . .
O3 S1 O4 109.49(16) . .
O1 S1 O2 109.03(16) . .
O3 S1 O2 108.58(16) . .
O4 S1 O2 107.52(16) . .
S1 O1 Nd1 138.86(16) . .
S1 O2 Nd1 124.38(16) . 1_655
S1 O2 Nd1 120.75(16) . 3_666
Nd1 O2 Nd1 114.85(9) 1_655 3_666
S1 O3 Nd1 154.58(18) . 4_675
S1 O4 Nd1 132.99(16) . 3_566
S1 O4 Nd1 137.99(15) . 1_554
Nd1 O4 Nd1 85.50(7) 3_566 1_554
Nd1 O5 Nd1 106.95(10) 3_667 .
Nd1 O5 Nd1 128.89(12) 3_667 3_567
Nd1 O5 Nd1 94.63(9) . 3_567
Nd1 O5 H5 108.1 3_667 .
Nd1 O5 H5 108.1 . .
Nd1 O5 H5 108.1 3_567 .
loop_
_geom_bond_atom_site_label_1
_geom_bond_atom_site_label_2
_geom_bond_distance
_geom_bond_site_symmetry_2
Nd1 O3 2.374(3) 4_576
Nd1 O5 2.428(3) 3_667
Nd1 O5 2.446(3) .
Nd1 O1 2.490(3) .
Nd1 O5 2.530(3) 3_567
Nd1 O2 2.534(3) 1_455
Nd1 O2 2.535(3) 3_666
Nd1 O4 2.611(3) 3_566
Nd1 O4 2.775(3) 1_556
Nd1 Nd1 3.6578(6) 3_567
Nd1 Nd1 3.9167(7) 3_667
S1 O1 1.464(3) .
S1 O3 1.466(3) .
S1 O4 1.472(3) .
S1 O2 1.502(3) .
O2 Nd1 2.534(3) 1_655
O2 Nd1 2.535(3) 3_666
O3 Nd1 2.374(3) 4_675
O4 Nd1 2.611(3) 3_566
O4 Nd1 2.775(3) 1_554
O5 Nd1 2.428(3) 3_667
O5 Nd1 2.530(3) 3_567
O5 H5 1.0000 .
loop_
_geom_hbond_atom_site_label_D
_geom_hbond_atom_site_label_H
_geom_hbond_atom_site_label_A
_geom_hbond_distance_DH
_geom_hbond_distance_HA
_geom_hbond_distance_DA
_geom_hbond_angle_DHA
_geom_hbond_site_symmetry_A
O5 H5 O1 1.00 2.31 3.207(4) 148.7 2_546
O5 H5 O3 1.00 2.44 3.291(4) 142.8 3_666
