#------------------------------------------------------------------------------
#$Date: 2016-02-16 22:30:59 +0200 (Tue, 16 Feb 2016) $
#$Revision: 176467 $
#$URL: svn://www.crystallography.net/cod/cif/4/32/40/4324097.cif $
#------------------------------------------------------------------------------
#
# This file is available in the Crystallography Open Database (COD),
# http://www.crystallography.net/
#
# All data on this site have been placed in the public domain by the
# contributors.
#
data_4324097
loop_
_publ_author_name
'Li-Hui Jia'
'Ru-Yin Li'
'Zhi-Ming Duan'
'Shang-Da Jiang'
'Bing-Wu Wang'
'Zhe-Ming Wang'
'Song Gao'
_publ_section_title
;
 Hydrothermal Synthesis, Structures and Magnetic Studies of Transition
 Metal Sulfates Containing Hydrazine
;
_journal_name_full               'Inorganic Chemistry'
_journal_page_first              144
_journal_page_last               154
_journal_paper_doi               10.1021/ic101488k
_journal_volume                  50
_journal_year                    2011
_chemical_formula_sum            'H5 N2 Ni0.5 O4 S'
_chemical_formula_weight         158.47
_chemical_name_systematic
; 
 ? 
;
_space_group_IT_number           2
_symmetry_cell_setting           triclinic
_symmetry_space_group_name_Hall  '-P 1'
_symmetry_space_group_name_H-M   'P -1'
_atom_sites_solution_hydrogens   geom
_atom_sites_solution_primary     direct
_atom_sites_solution_secondary   difmap
_audit_creation_method           SHELXL-97
_cell_angle_alpha                90.57(3)
_cell_angle_beta                 105.73(3)
_cell_angle_gamma                98.93(3)
_cell_formula_units_Z            2
_cell_length_a                   5.2667(11)
_cell_length_b                   5.8284(12)
_cell_length_c                   7.3005(15)
_cell_measurement_reflns_used    1169
_cell_measurement_temperature    293(2)
_cell_measurement_theta_max      27.485
_cell_measurement_theta_min      3.395
_cell_volume                     212.77(9)
_computing_cell_refinement       'HKL Scalepack (Otwinowski & Minor, 1997)'
_computing_data_collection       'KappaCCD (Nonius B. V., 1998)'
_computing_data_reduction
'HKL Denzo (Otwinowski & Minor, 1997) & maXus (Mackay et al., 1998)'
_computing_molecular_graphics    'Bruker SHELXTL V5.1 (Sheldrick, 1998)'
_computing_publication_material  'SHELXL-97 (Sheldrick, 1997)'
_computing_structure_refinement  'SHELXL-97 (Sheldrick, 1997)'
_computing_structure_solution    'SHELXS-97 (Sheldrick, 1990)'
_diffrn_ambient_temperature      293(2)
_diffrn_detector_area_resol_mean 9
_diffrn_measured_fraction_theta_full 0.993
_diffrn_measured_fraction_theta_max 0.993
_diffrn_measurement_device_type  'Bruker SMART Apex'
_diffrn_measurement_method       'CCD area detector'
_diffrn_radiation_monochromator  graphite
_diffrn_radiation_source         'fine-focus sealed tube'
_diffrn_radiation_type           MoK\a
_diffrn_radiation_wavelength     0.71073
_diffrn_reflns_av_R_equivalents  0.0162
_diffrn_reflns_av_sigmaI/netI    0.0311
_diffrn_reflns_limit_h_max       6
_diffrn_reflns_limit_h_min       -6
_diffrn_reflns_limit_k_max       7
_diffrn_reflns_limit_k_min       -7
_diffrn_reflns_limit_l_max       9
_diffrn_reflns_limit_l_min       -9
_diffrn_reflns_number            3856
_diffrn_reflns_theta_full        27.47
_diffrn_reflns_theta_max         27.47
_diffrn_reflns_theta_min         3.54
_exptl_absorpt_coefficient_mu    2.810
_exptl_absorpt_correction_T_max  0.7664
_exptl_absorpt_correction_T_min  0.6173
_exptl_absorpt_correction_type   multi-scan
_exptl_absorpt_process_details   'SADABS 2.10 (Bruker AXS Inc., 2005)'
_exptl_crystal_colour            Blue-Green
_exptl_crystal_density_diffrn    2.474
_exptl_crystal_density_method    'not measured'
_exptl_crystal_description       plate
_exptl_crystal_F_000             162
_exptl_crystal_size_max          0.19
_exptl_crystal_size_mid          0.12
_exptl_crystal_size_min          0.10
_refine_diff_density_max         0.546
_refine_diff_density_min         -0.940
_refine_diff_density_rms         0.158
_refine_ls_extinction_coef       0.098(11)
_refine_ls_extinction_expression Fc^*^=kFc[1+0.001xFc^2^\l^3^/sin(2\q)]^-1/4^
_refine_ls_extinction_method     SHELXL
_refine_ls_goodness_of_fit_ref   1.132
_refine_ls_hydrogen_treatment    mixed
_refine_ls_matrix_type           full
_refine_ls_number_parameters     91
_refine_ls_number_reflns         966
_refine_ls_number_restraints     0
_refine_ls_restrained_S_all      1.132
_refine_ls_R_factor_all          0.0338
_refine_ls_R_factor_gt           0.0281
_refine_ls_shift/su_max          0.001
_refine_ls_shift/su_mean         0.000
_refine_ls_structure_factor_coef Fsqd
_refine_ls_weighting_details
'calc w=1/[\s^2^(Fo^2^)+(0.0448P)^2^+0.0000P] where P=(Fo^2^+2Fc^2^)/3'
_refine_ls_weighting_scheme      calc
_refine_ls_wR_factor_gt          0.0716
_refine_ls_wR_factor_ref         0.0737
_reflns_number_gt                842
_reflns_number_total             966
_reflns_threshold_expression     >2sigma(I)
_cod_data_source_file            ic101488k_si_002.cif
_cod_data_source_block           last
_cod_original_cell_volume        212.78(8)
_cod_original_formula_sum        'H5 N2 Ni0.50 O4 S'
_cod_database_code               4324097
loop_
_symmetry_equiv_pos_as_xyz
'x, y, z'
'-x, -y, -z'
loop_
_atom_site_label
_atom_site_type_symbol
_atom_site_fract_x
_atom_site_fract_y
_atom_site_fract_z
_atom_site_U_iso_or_equiv
_atom_site_adp_type
_atom_site_occupancy
_atom_site_symmetry_multiplicity
_atom_site_calc_flag
_atom_site_refinement_flags
_atom_site_disorder_assembly
_atom_site_disorder_group
Ni1 Ni 0.5000 0.0000 1.0000 0.01266(19) Uani 1 2 d S . .
N1 N 0.4334(4) 0.1672(4) 0.7454(3) 0.0160(4) Uani 1 1 d . . .
H1A H 0.559(6) 0.229(5) 0.737(4) 0.013(7) Uiso 1 1 d . . .
H1B H 0.383(7) 0.057(6) 0.635(5) 0.034(8) Uiso 1 1 d . . .
N2 N 0.2592(5) 0.3390(4) 0.7204(3) 0.0207(5) Uani 1 1 d . . .
H2A H 0.070(8) 0.259(6) 0.741(5) 0.056(11) Uiso 1 1 d . . .
H2B H 0.235(5) 0.402(4) 0.613(4) 0.015(7) Uiso 1 1 d . . .
H2C H 0.323(8) 0.455(7) 0.790(6) 0.052(12) Uiso 1 1 d . . .
O2 O 0.3432(3) 0.2581(3) 1.1105(2) 0.0170(4) Uani 1 1 d . . .
O3 O 0.1506(3) 0.0340(3) 1.3322(2) 0.0196(4) Uani 1 1 d . . .
O4 O -0.1302(3) 0.2226(3) 1.0793(2) 0.0209(4) Uani 1 1 d . . .
O5 O 0.1897(3) 0.4516(3) 1.3399(2) 0.0183(4) Uani 1 1 d . . .
S1 S 0.13552(10) 0.23842(9) 1.21630(7) 0.0126(2) Uani 1 1 d . . .
loop_
_atom_site_aniso_label
_atom_site_aniso_U_11
_atom_site_aniso_U_22
_atom_site_aniso_U_33
_atom_site_aniso_U_23
_atom_site_aniso_U_13
_atom_site_aniso_U_12
Ni1 0.0097(3) 0.0151(3) 0.0126(3) 0.00119(15) 0.00189(17) 0.00226(17)
N1 0.0096(11) 0.0205(11) 0.0181(11) 0.0027(8) 0.0036(8) 0.0032(9)
N2 0.0231(12) 0.0204(11) 0.0184(11) 0.0036(9) 0.0028(9) 0.0085(9)
O2 0.0145(8) 0.0180(8) 0.0205(9) 0.0003(6) 0.0087(7) 0.0018(7)
O3 0.0187(9) 0.0189(9) 0.0215(9) 0.0047(7) 0.0054(7) 0.0036(7)
O4 0.0111(9) 0.0238(9) 0.0230(9) 0.0034(7) -0.0016(7) -0.0004(7)
O5 0.0195(9) 0.0193(8) 0.0166(8) -0.0017(7) 0.0060(7) 0.0027(7)
S1 0.0093(3) 0.0147(3) 0.0133(3) 0.0002(2) 0.0025(2) 0.0013(2)
loop_
_atom_type_symbol
_atom_type_description
_atom_type_scat_dispersion_real
_atom_type_scat_dispersion_imag
_atom_type_scat_source
H H 0.0000 0.0000 'International Tables Vol C Tables 4.2.6.8 and 6.1.1.4'
N N 0.0061 0.0033 'International Tables Vol C Tables 4.2.6.8 and 6.1.1.4'
O O 0.0106 0.0060 'International Tables Vol C Tables 4.2.6.8 and 6.1.1.4'
S S 0.1246 0.1234 'International Tables Vol C Tables 4.2.6.8 and 6.1.1.4'
Ni Ni 0.3393 1.1124 'International Tables Vol C Tables 4.2.6.8 and 6.1.1.4'
loop_
_geom_angle_atom_site_label_1
_geom_angle_atom_site_label_2
_geom_angle_atom_site_label_3
_geom_angle
_geom_angle_site_symmetry_1
_geom_angle_site_symmetry_3
_geom_angle_publ_flag
N1 Ni1 N1 180.0 2_657 . ?
N1 Ni1 O2 88.10(7) 2_657 2_657 ?
N1 Ni1 O2 91.90(7) . 2_657 ?
N1 Ni1 O2 91.90(7) 2_657 . ?
N1 Ni1 O2 88.10(7) . . ?
O2 Ni1 O2 180.000(1) 2_657 . ?
N1 Ni1 O4 94.42(8) 2_657 1_655 ?
N1 Ni1 O4 85.58(8) . 1_655 ?
O2 Ni1 O4 92.72(7) 2_657 1_655 ?
O2 Ni1 O4 87.28(7) . 1_655 ?
N1 Ni1 O4 85.58(8) 2_657 2_557 ?
N1 Ni1 O4 94.42(8) . 2_557 ?
O2 Ni1 O4 87.28(7) 2_657 2_557 ?
O2 Ni1 O4 92.72(7) . 2_557 ?
O4 Ni1 O4 180.0 1_655 2_557 ?
N2 N1 Ni1 117.28(14) . . ?
N2 N1 H1A 105(2) . . ?
Ni1 N1 H1A 109(2) . . ?
N2 N1 H1B 111(2) . . ?
Ni1 N1 H1B 112(2) . . ?
H1A N1 H1B 101(3) . . ?
N1 N2 H2A 109(2) . . ?
N1 N2 H2B 114.1(17) . . ?
H2A N2 H2B 111(3) . . ?
N1 N2 H2C 113(3) . . ?
H2A N2 H2C 111(4) . . ?
H2B N2 H2C 99(3) . . ?
S1 O2 Ni1 130.07(9) . . ?
S1 O4 Ni1 139.64(10) . 1_455 ?
O3 S1 O4 111.00(10) . . ?
O3 S1 O5 110.05(10) . . ?
O4 S1 O5 109.12(11) . . ?
O3 S1 O2 109.93(9) . . ?
O4 S1 O2 109.25(10) . . ?
O5 S1 O2 107.41(10) . . ?
loop_
_geom_bond_atom_site_label_1
_geom_bond_atom_site_label_2
_geom_bond_distance
_geom_bond_site_symmetry_2
_geom_bond_publ_flag
Ni1 N1 2.077(2) 2_657 ?
Ni1 N1 2.077(2) . ?
Ni1 O2 2.0782(16) 2_657 ?
Ni1 O2 2.0782(16) . ?
Ni1 O4 2.0980(18) 1_655 ?
Ni1 O4 2.0980(18) 2_557 ?
N1 N2 1.441(3) . ?
N1 H1A 0.72(3) . ?
N1 H1B 0.97(3) . ?
N2 H2A 1.08(4) . ?
N2 H2B 0.86(3) . ?
N2 H2C 0.81(4) . ?
O2 S1 1.4922(16) . ?
O3 S1 1.4682(17) . ?
O4 S1 1.4720(18) . ?
O4 Ni1 2.0980(18) 1_455 ?
O5 S1 1.4725(17) . ?
loop_
_geom_hbond_atom_site_label_D
_geom_hbond_atom_site_label_H
_geom_hbond_atom_site_label_A
_geom_hbond_distance_DH
_geom_hbond_distance_HA
_geom_hbond_distance_DA
_geom_hbond_angle_DHA
_geom_hbond_site_symmetry_A
N2 H2C O4 0.81(4) 2.56(4) 3.183(3) 135(4) 2_567
N2 H2A O5 1.08(4) 2.31(4) 2.760(3) 103(2) 2_567
N2 H2A O3 1.08(4) 1.90(4) 2.759(3) 134(3) 2_557
N2 H2B O5 0.86(3) 1.97(3) 2.800(3) 163(2) 1_554
N1 H1B O3 0.97(3) 2.21(3) 3.013(3) 139(3) 1_554
N2 H2C O2 0.81(4) 2.19(4) 2.905(3) 148(4) 2_667
N1 H1A O5 0.72(3) 2.28(3) 2.932(3) 151(3) 2_667
N1 H1A O3 0.72(3) 2.47(3) 2.820(3) 113(2) 2_657
loop_
_geom_torsion_atom_site_label_1
_geom_torsion_atom_site_label_2
_geom_torsion_atom_site_label_3
_geom_torsion_atom_site_label_4
_geom_torsion
_geom_torsion_site_symmetry_1
_geom_torsion_site_symmetry_2
_geom_torsion_site_symmetry_3
_geom_torsion_site_symmetry_4
_geom_torsion_publ_flag
N1 Ni1 N1 N2 37(100) 2_657 . . . ?
O2 Ni1 N1 N2 164.90(17) 2_657 . . . ?
O2 Ni1 N1 N2 -15.10(17) . . . . ?
O4 Ni1 N1 N2 -102.52(17) 1_655 . . . ?
O4 Ni1 N1 N2 77.48(17) 2_557 . . . ?
N1 Ni1 O2 S1 -48.94(14) 2_657 . . . ?
N1 Ni1 O2 S1 131.06(14) . . . . ?
O2 Ni1 O2 S1 40(100) 2_657 . . . ?
O4 Ni1 O2 S1 -143.28(13) 1_655 . . . ?
O4 Ni1 O2 S1 36.72(13) 2_557 . . . ?
Ni1 O4 S1 O3 1.4(2) 1_455 . . . ?
Ni1 O4 S1 O5 -120.05(16) 1_455 . . . ?
Ni1 O4 S1 O2 122.79(16) 1_455 . . . ?
Ni1 O2 S1 O3 32.72(16) . . . . ?
Ni1 O2 S1 O4 -89.31(14) . . . . ?
Ni1 O2 S1 O5 152.45(12) . . . . ?
