#------------------------------------------------------------------------------
#$Date: 2016-03-23 15:44:37 +0200 (Wed, 23 Mar 2016) $
#$Revision: 179345 $
#$URL: svn://www.crystallography.net/cod/cif/4/32/42/4324281.cif $
#------------------------------------------------------------------------------
#
# This file is available in the Crystallography Open Database (COD),
# http://www.crystallography.net/
#
# All data on this site have been placed in the public domain by the
# contributors.
#
data_4324281
loop_
_publ_author_name
'Ralph A. Zehnder'
'Christopher S. Wilson'
'Hunter T. Christy'
'Kenneth S. Harris'
'Varun Chauhan'
'Victor Schutz'
'Matthew Sullivan'
'Matthias Zeller'
'Frank R. Fronczek'
'Jacob A. Myers'
'Kyle Dammann'
'James Duck'
'Peter M. Smith'
'Antony Okuma'
'Kristin Johnson'
'Robert Sovesky'
'Cameron Stroudt'
'Robert A. Renn'
_publ_section_title
;
 Effect of Inclining Strain on the Crystal Lattice along an Extended
 Series of Lanthanide Hydroxysulfates Ln(OH)SO4 (Ln = Pr-Yb, except Pm)
;
_journal_name_full               'Inorganic Chemistry'
_journal_page_first              836
_journal_page_last               846
_journal_paper_doi               10.1021/ic101350f
_journal_volume                  50
_journal_year                    2011
_chemical_formula_moiety         'Eu H O5 S'
_chemical_formula_sum            'Eu H O5 S'
_chemical_formula_weight         265.03
_chemical_name_systematic
;
 ?
;
_space_group_IT_number           14
_symmetry_cell_setting           monoclinic
_symmetry_space_group_name_Hall  '-P 2yn'
_symmetry_space_group_name_H-M   'P 1 21/n 1'
_atom_sites_solution_hydrogens   geom
_atom_sites_solution_primary     direct
_atom_sites_solution_secondary   difmap
_audit_creation_method           SHELXL-97
_cell_angle_alpha                90
_cell_angle_beta                 106.477(11)
_cell_angle_gamma                90
_cell_formula_units_Z            4
_cell_length_a                   4.4238(10)
_cell_length_b                   12.279(3)
_cell_length_c                   6.7609(15)
_cell_measurement_reflns_used    2205
_cell_measurement_temperature    90.0(5)
_cell_measurement_theta_max      40.2
_cell_measurement_theta_min      2.5
_cell_volume                     352.17(14)
_computing_cell_refinement
'Denzo and Scalepack (Otwinowski & Minor, 1997)'
_computing_data_collection       'COLLECT (Nonius 1999)'
_computing_data_reduction
'Denzo and Scalepack (Otwinowski & Minor, 1997)'
_computing_molecular_graphics    'ORTEP-3 for Windows (Farrugia, 1997)'
_computing_publication_material  'SHELXL-97 (Sheldrick, 2008)'
_computing_structure_refinement  'SHELXL-97 (Sheldrick, 2008)'
_computing_structure_solution
'Direct_methods (SIR, Altomare, et al., 1994)'
_diffrn_ambient_temperature      90.0(5)
_diffrn_measured_fraction_theta_full 0.998
_diffrn_measured_fraction_theta_max 0.989
_diffrn_measurement_device       'Nonius KappaCCD (with Oxford Cryostream)'
_diffrn_measurement_method       '\w and \f scans '
_diffrn_radiation_monochromator  graphite
_diffrn_radiation_source         'fine-focus sealed tube'
_diffrn_radiation_type           MoK\a
_diffrn_radiation_wavelength     0.71073
_diffrn_reflns_av_R_equivalents  0.038
_diffrn_reflns_av_sigmaI/netI    0.0408
_diffrn_reflns_limit_h_max       7
_diffrn_reflns_limit_h_min       -7
_diffrn_reflns_limit_k_max       21
_diffrn_reflns_limit_k_min       -22
_diffrn_reflns_limit_l_max       12
_diffrn_reflns_limit_l_min       -12
_diffrn_reflns_number            9409
_diffrn_reflns_theta_full        25.0
_diffrn_reflns_theta_max         40.2
_diffrn_reflns_theta_min         3.3
_exptl_absorpt_coefficient_mu    18.281
_exptl_absorpt_correction_T_max  0.401
_exptl_absorpt_correction_T_min  0.148
_exptl_absorpt_correction_type   multi-scan
_exptl_absorpt_process_details   'HKL Scalepack (Otwinowski & Minor 1997)'
_exptl_crystal_colour            colorless
_exptl_crystal_density_diffrn    4.999
_exptl_crystal_description       plate
_exptl_crystal_F_000             480
_exptl_crystal_size_max          0.15
_exptl_crystal_size_mid          0.12
_exptl_crystal_size_min          0.05
_refine_diff_density_max         8.62
_refine_diff_density_min         -6.48
_refine_diff_density_rms         0.638
_refine_ls_extinction_coef       0.0168(15)
_refine_ls_extinction_expression Fc^*^=kFc[1+0.001xFc^2^\l^3^/sin(2\q)]^-1/4^
_refine_ls_extinction_method     SHELXL
_refine_ls_goodness_of_fit_ref   1.133
_refine_ls_hydrogen_treatment    constr
_refine_ls_matrix_type           full
_refine_ls_number_parameters     65
_refine_ls_number_reflns         2192
_refine_ls_number_restraints     0
_refine_ls_restrained_S_all      1.133
_refine_ls_R_factor_all          0.041
_refine_ls_R_factor_gt           0.038
_refine_ls_shift/su_max          0.001
_refine_ls_shift/su_mean         0.000
_refine_ls_structure_factor_coef Fsqd
_refine_ls_weighting_details
'calc w=1/[\s^2^(Fo^2^)+(0.0668P)^2^+1.9389P] where P=(Fo^2^+2Fc^2^)/3'
_refine_ls_weighting_scheme      calc
_refine_ls_wR_factor_gt          0.107
_refine_ls_wR_factor_ref         0.109
_reflns_number_gt                2065
_reflns_number_total             2192
_reflns_threshold_expression     I>2\s(I)
_cod_data_source_file            ic101350f_si_009_04.cif
_cod_data_source_block           EuOHSO4
_cod_original_sg_symbol_H-M      'P 21/n '
_cod_database_code               4324281
loop_
_symmetry_equiv_pos_as_xyz
'x, y, z'
'-x+1/2, y+1/2, -z+1/2'
'-x, -y, -z'
'x-1/2, -y-1/2, z-1/2'
loop_
_atom_site_label
_atom_site_type_symbol
_atom_site_fract_x
_atom_site_fract_y
_atom_site_fract_z
_atom_site_U_iso_or_equiv
_atom_site_adp_type
_atom_site_occupancy
_atom_site_symmetry_multiplicity
_atom_site_calc_flag
_atom_site_refinement_flags
Eu1 Eu 0.13879(4) 0.562639(14) 0.80169(3) 0.00255(8) Uani 1 1 d .
S1 S 0.4807(2) 0.64711(7) 0.39012(13) 0.00287(14) Uani 1 1 d .
O1 O 0.3617(7) 0.6660(2) 0.5674(4) 0.0054(4) Uani 1 1 d .
O2 O 0.7529(7) 0.5689(2) 0.4517(5) 0.0049(4) Uani 1 1 d .
O3 O 0.5913(7) 0.7489(2) 0.3228(5) 0.0056(4) Uani 1 1 d .
O4 O 0.2401(7) 0.5972(3) 0.2166(4) 0.0055(4) Uani 1 1 d .
O5 O 0.3067(7) 0.4164(3) 1.0416(5) 0.0048(4) Uani 1 1 d .
H5 H 0.2737 0.3468 0.9616 0.006 Uiso 1 1 calc R
loop_
_atom_site_aniso_label
_atom_site_aniso_U_11
_atom_site_aniso_U_22
_atom_site_aniso_U_33
_atom_site_aniso_U_23
_atom_site_aniso_U_13
_atom_site_aniso_U_12
Eu1 0.00239(11) 0.00206(10) 0.00363(11) 0.00031(4) 0.00155(7) 0.00000(4)
S1 0.0031(3) 0.0022(3) 0.0038(3) 0.0006(2) 0.0017(2) -0.0001(2)
O1 0.0064(10) 0.0051(10) 0.0062(9) 0.0001(8) 0.0041(8) -0.0008(8)
O2 0.0037(10) 0.0032(10) 0.0081(11) 0.0005(7) 0.0022(9) 0.0008(7)
O3 0.0075(10) 0.0016(9) 0.0095(10) -0.0005(8) 0.0054(8) -0.0006(8)
O4 0.0043(9) 0.0069(11) 0.0050(9) -0.0016(8) 0.0007(7) -0.0007(8)
O5 0.0032(9) 0.0046(10) 0.0067(10) -0.0018(8) 0.0015(8) -0.0001(8)
loop_
_atom_type_symbol
_atom_type_description
_atom_type_scat_dispersion_real
_atom_type_scat_dispersion_imag
_atom_type_scat_source
H H 0.0000 0.0000 'International Tables Vol C Tables 4.2.6.8 and 6.1.1.4'
Eu Eu -0.1578 3.6682 'International Tables Vol C Tables 4.2.6.8 and 6.1.1.4'
O O 0.0106 0.0060 'International Tables Vol C Tables 4.2.6.8 and 6.1.1.4'
S S 0.1246 0.1234 'International Tables Vol C Tables 4.2.6.8 and 6.1.1.4'
loop_
_geom_angle_atom_site_label_1
_geom_angle_atom_site_label_2
_geom_angle_atom_site_label_3
_geom_angle
_geom_angle_site_symmetry_1
_geom_angle_site_symmetry_3
O3 Eu1 O5 136.00(10) 4_576 .
O3 Eu1 O5 88.00(11) 4_576 3_667
O5 Eu1 O5 72.44(12) . 3_667
O3 Eu1 O1 65.46(11) 4_576 .
O5 Eu1 O1 136.39(10) . .
O5 Eu1 O1 71.35(10) 3_667 .
O3 Eu1 O2 88.76(10) 4_576 1_455
O5 Eu1 O2 131.55(10) . 1_455
O5 Eu1 O2 139.10(11) 3_667 1_455
O1 Eu1 O2 70.30(10) . 1_455
O3 Eu1 O2 136.21(11) 4_576 3_666
O5 Eu1 O2 84.08(10) . 3_666
O5 Eu1 O2 90.06(10) 3_667 3_666
O1 Eu1 O2 72.53(10) . 3_666
O2 Eu1 O2 65.30(12) 1_455 3_666
O3 Eu1 O5 77.09(11) 4_576 3_567
O5 Eu1 O5 85.44(10) . 3_567
O5 Eu1 O5 129.28(13) 3_667 3_567
O1 Eu1 O5 137.06(10) . 3_567
O2 Eu1 O5 89.37(10) 1_455 3_567
O2 Eu1 O5 133.20(10) 3_666 3_567
O3 Eu1 O4 133.99(11) 4_576 3_566
O5 Eu1 O4 62.02(10) . 3_566
O5 Eu1 O4 132.69(10) 3_667 3_566
O1 Eu1 O4 138.16(10) . 3_566
O2 Eu1 O4 73.46(10) 1_455 3_566
O2 Eu1 O4 73.84(10) 3_666 3_566
O5 Eu1 O4 61.04(10) 3_567 3_566
O3 Eu1 O4 77.01(10) 4_576 1_556
O5 Eu1 O4 59.60(10) . 1_556
O5 Eu1 O4 71.42(10) 3_667 1_556
O1 Eu1 O4 127.08(10) . 1_556
O2 Eu1 O4 146.47(10) 1_455 1_556
O2 Eu1 O4 142.51(10) 3_666 1_556
O5 Eu1 O4 58.08(9) 3_567 1_556
O4 Eu1 O4 94.76(8) 3_566 1_556
O1 S1 O3 110.55(18) . .
O1 S1 O4 111.84(18) . .
O3 S1 O4 109.72(18) . .
O1 S1 O2 108.75(18) . .
O3 S1 O2 108.69(18) . .
O4 S1 O2 107.17(18) . .
S1 O1 Eu1 139.15(18) . .
S1 O2 Eu1 124.10(18) . 1_655
S1 O2 Eu1 121.16(18) . 3_666
Eu1 O2 Eu1 114.70(12) 1_655 3_666
S1 O3 Eu1 155.8(2) . 4_675
S1 O4 Eu1 132.18(17) . 3_566
S1 O4 Eu1 138.47(17) . 1_554
Eu1 O4 Eu1 85.24(8) 3_566 1_554
Eu1 O5 Eu1 107.56(12) . 3_667
Eu1 O5 Eu1 94.56(10) . 3_567
Eu1 O5 Eu1 129.28(13) 3_667 3_567
Eu1 O5 H5 107.8 . .
Eu1 O5 H5 107.8 3_667 .
Eu1 O5 H5 107.8 3_567 .
loop_
_geom_bond_atom_site_label_1
_geom_bond_atom_site_label_2
_geom_bond_distance
_geom_bond_site_symmetry_2
Eu1 O3 2.331(3) 4_576
Eu1 O5 2.392(3) .
Eu1 O5 2.394(3) 3_667
Eu1 O1 2.445(3) .
Eu1 O2 2.496(3) 1_455
Eu1 O2 2.498(3) 3_666
Eu1 O5 2.501(3) 3_567
Eu1 O4 2.561(3) 3_566
Eu1 O4 2.746(3) 1_556
Eu1 Eu1 3.5962(7) 3_567
Eu1 Eu1 3.8612(8) 3_667
S1 O1 1.458(3) .
S1 O3 1.462(3) .
S1 O4 1.475(3) .
S1 O2 1.504(3) .
S1 Eu1 3.5194(11) 3_666
O2 Eu1 2.496(3) 1_655
O2 Eu1 2.498(3) 3_666
O3 Eu1 2.331(3) 4_675
O4 Eu1 2.561(3) 3_566
O4 Eu1 2.746(3) 1_554
O5 Eu1 2.394(3) 3_667
O5 Eu1 2.501(3) 3_567
O5 H5 1.0000 .
loop_
_geom_hbond_atom_site_label_D
_geom_hbond_atom_site_label_H
_geom_hbond_atom_site_label_A
_geom_hbond_distance_DH
_geom_hbond_distance_HA
_geom_hbond_distance_DA
_geom_hbond_angle_DHA
_geom_hbond_site_symmetry_A
O5 H5 O1 1.00 2.29 3.201(4) 150.3 2_546
O5 H5 O3 1.00 2.47 3.321(4) 143.0 3_666
