#------------------------------------------------------------------------------
#$Date: 2016-03-23 15:59:39 +0200 (Wed, 23 Mar 2016) $
#$Revision: 179357 $
#$URL: svn://www.crystallography.net/cod/cif/4/32/54/4325435.cif $
#------------------------------------------------------------------------------
#
# This file is available in the Crystallography Open Database (COD),
# http://www.crystallography.net/
#
# All data on this site have been placed in the public domain by the
# contributors.
#
data_4325435
loop_
_publ_author_name
'Jun Li'
'Theeranun Siritanon'
'Judith K. Stalick'
'Arthur W. Sleight'
'M. A. Subramanian'
_publ_section_title
;
 Structural Studies and Electrical Properties of Cs/Al/Te/O Phases with
 the Pyrochlore Structure
;
_journal_name_full               'Inorganic Chemistry'
_journal_page_first              5747
_journal_page_last               5754
_journal_paper_doi               10.1021/ic200574v
_journal_volume                  50
_journal_year                    2011
_chemical_formula_sum            'Cs In0.33 O6 Te1.67'
_chemical_formula_weight         479.73
_chemical_name_systematic
;
Nominal composition is CsIn0.33Te1.67O6
;
_space_group_IT_number           227
_symmetry_cell_setting           cubic
_symmetry_space_group_name_Hall  '-F 4vw 2vw 3'
_symmetry_space_group_name_H-M   'F d -3 m :2'
_atom_sites_solution_hydrogens   geom
_atom_sites_solution_primary     direct
_atom_sites_solution_secondary   difmap
_audit_creation_method           SHELXLTL
_cell_angle_alpha                90.00
_cell_angle_beta                 90.00
_cell_angle_gamma                90.00
_cell_formula_units_Z            8
_cell_length_a                   10.2697(7)
_cell_length_b                   10.2697(7)
_cell_length_c                   10.2697(7)
_cell_measurement_reflns_used    1906
_cell_measurement_temperature    173(2)
_cell_measurement_theta_max      28.24
_cell_measurement_theta_min      3.44
_cell_volume                     1083.11(13)
_computing_cell_refinement       'Bruker SAINT'
_computing_data_collection       'Bruker SMART'
_computing_data_reduction        'Bruker SAINT'
_computing_molecular_graphics    'Bruker SHELXTL'
_computing_publication_material  'Bruker SHELXTL'
_computing_structure_refinement  'Bruker SHELXTL'
_computing_structure_solution    'Bruker SHELXTL'
_diffrn_ambient_temperature      173(2)
_diffrn_measured_fraction_theta_full 1.000
_diffrn_measured_fraction_theta_max 1.000
_diffrn_measurement_device_type  'Bruker Apex CCD area detector'
_diffrn_measurement_method       'phi and omega scans'
_diffrn_radiation_monochromator  graphite
_diffrn_radiation_source         'fine-focus sealed tube'
_diffrn_radiation_type           MoK\a
_diffrn_radiation_wavelength     0.71073
_diffrn_reflns_av_R_equivalents  0.0140
_diffrn_reflns_av_sigmaI/netI    0.0045
_diffrn_reflns_limit_h_max       13
_diffrn_reflns_limit_h_min       -13
_diffrn_reflns_limit_k_max       13
_diffrn_reflns_limit_k_min       -13
_diffrn_reflns_limit_l_max       13
_diffrn_reflns_limit_l_min       -13
_diffrn_reflns_number            2825
_diffrn_reflns_theta_full        26.99
_diffrn_reflns_theta_max         26.99
_diffrn_reflns_theta_min         3.44
_exptl_absorpt_coefficient_mu    16.974
_exptl_absorpt_correction_T_max  0.7277
_exptl_absorpt_correction_T_min  0.4291
_exptl_absorpt_correction_type   multi-scan
_exptl_absorpt_process_details   SADABS
_exptl_crystal_colour            dark-blue
_exptl_crystal_density_diffrn    5.884
_exptl_crystal_density_meas      0
_exptl_crystal_description       block
_exptl_crystal_F_000             1648
_exptl_crystal_size_max          0.06
_exptl_crystal_size_mid          0.04
_exptl_crystal_size_min          0.02
_refine_diff_density_max         0.522
_refine_diff_density_min         -0.355
_refine_diff_density_rms         0.072
_refine_ls_extinction_coef       0.00068(4)
_refine_ls_extinction_expression Fc^*^=kFc[1+0.001xFc^2^\l^3^/sin(2\q)]^-1/4^
_refine_ls_extinction_method     SHELXL
_refine_ls_goodness_of_fit_ref   1.277
_refine_ls_hydrogen_treatment    mixed
_refine_ls_matrix_type           full
_refine_ls_number_parameters     9
_refine_ls_number_reflns         79
_refine_ls_number_restraints     0
_refine_ls_restrained_S_all      1.277
_refine_ls_R_factor_all          0.0093
_refine_ls_R_factor_gt           0.0087
_refine_ls_shift/su_max          0.000
_refine_ls_shift/su_mean         0.000
_refine_ls_structure_factor_coef Fsqd
_refine_ls_weighting_details
'calc w=1/[\s^2^(Fo^2^)+(0.0000P)^2^+15.7721P] where P=(Fo^2^+2Fc^2^)/3'
_refine_ls_weighting_scheme      calc
_refine_ls_wR_factor_gt          0.0173
_refine_ls_wR_factor_ref         0.0178
_reflns_number_gt                77
_reflns_number_total             79
_reflns_threshold_expression     >2sigma(I)
_cod_data_source_file            ic200574v_si_002_6.cif
_cod_data_source_block           masr35_Nominal_CsIn0.33Te1.67O6
_cod_original_sg_symbol_H-M      'F d -3 m'
_cod_database_code               4325435
loop_
_symmetry_equiv_pos_as_xyz
'x, y, z'
'-x+3/4, -y+1/4, z+1/2'
'-x+1/4, y+1/2, -z+3/4'
'x+1/2, -y+3/4, -z+1/4'
'z, x, y'
'z+1/2, -x+3/4, -y+1/4'
'-z+3/4, -x+1/4, y+1/2'
'-z+1/4, x+1/2, -y+3/4'
'y, z, x'
'-y+1/4, z+1/2, -x+3/4'
'y+1/2, -z+3/4, -x+1/4'
'-y+3/4, -z+1/4, x+1/2'
'y+3/4, x+1/4, -z+1/2'
'-y, -x, -z'
'y+1/4, -x+1/2, z+3/4'
'-y+1/2, x+3/4, z+1/4'
'x+3/4, z+1/4, -y+1/2'
'-x+1/2, z+3/4, y+1/4'
'-x, -z, -y'
'x+1/4, -z+1/2, y+3/4'
'z+3/4, y+1/4, -x+1/2'
'z+1/4, -y+1/2, x+3/4'
'-z+1/2, y+3/4, x+1/4'
'-z, -y, -x'
'x, y+1/2, z+1/2'
'-x+3/4, -y+3/4, z+1'
'-x+1/4, y+1, -z+5/4'
'x+1/2, -y+5/4, -z+3/4'
'z, x+1/2, y+1/2'
'z+1/2, -x+5/4, -y+3/4'
'-z+3/4, -x+3/4, y+1'
'-z+1/4, x+1, -y+5/4'
'y, z+1/2, x+1/2'
'-y+1/4, z+1, -x+5/4'
'y+1/2, -z+5/4, -x+3/4'
'-y+3/4, -z+3/4, x+1'
'y+3/4, x+3/4, -z+1'
'-y, -x+1/2, -z+1/2'
'y+1/4, -x+1, z+5/4'
'-y+1/2, x+5/4, z+3/4'
'x+3/4, z+3/4, -y+1'
'-x+1/2, z+5/4, y+3/4'
'-x, -z+1/2, -y+1/2'
'x+1/4, -z+1, y+5/4'
'z+3/4, y+3/4, -x+1'
'z+1/4, -y+1, x+5/4'
'-z+1/2, y+5/4, x+3/4'
'-z, -y+1/2, -x+1/2'
'x+1/2, y, z+1/2'
'-x+5/4, -y+1/4, z+1'
'-x+3/4, y+1/2, -z+5/4'
'x+1, -y+3/4, -z+3/4'
'z+1/2, x, y+1/2'
'z+1, -x+3/4, -y+3/4'
'-z+5/4, -x+1/4, y+1'
'-z+3/4, x+1/2, -y+5/4'
'y+1/2, z, x+1/2'
'-y+3/4, z+1/2, -x+5/4'
'y+1, -z+3/4, -x+3/4'
'-y+5/4, -z+1/4, x+1'
'y+5/4, x+1/4, -z+1'
'-y+1/2, -x, -z+1/2'
'y+3/4, -x+1/2, z+5/4'
'-y+1, x+3/4, z+3/4'
'x+5/4, z+1/4, -y+1'
'-x+1, z+3/4, y+3/4'
'-x+1/2, -z, -y+1/2'
'x+3/4, -z+1/2, y+5/4'
'z+5/4, y+1/4, -x+1'
'z+3/4, -y+1/2, x+5/4'
'-z+1, y+3/4, x+3/4'
'-z+1/2, -y, -x+1/2'
'x+1/2, y+1/2, z'
'-x+5/4, -y+3/4, z+1/2'
'-x+3/4, y+1, -z+3/4'
'x+1, -y+5/4, -z+1/4'
'z+1/2, x+1/2, y'
'z+1, -x+5/4, -y+1/4'
'-z+5/4, -x+3/4, y+1/2'
'-z+3/4, x+1, -y+3/4'
'y+1/2, z+1/2, x'
'-y+3/4, z+1, -x+3/4'
'y+1, -z+5/4, -x+1/4'
'-y+5/4, -z+3/4, x+1/2'
'y+5/4, x+3/4, -z+1/2'
'-y+1/2, -x+1/2, -z'
'y+3/4, -x+1, z+3/4'
'-y+1, x+5/4, z+1/4'
'x+5/4, z+3/4, -y+1/2'
'-x+1, z+5/4, y+1/4'
'-x+1/2, -z+1/2, -y'
'x+3/4, -z+1, y+3/4'
'z+5/4, y+3/4, -x+1/2'
'z+3/4, -y+1, x+3/4'
'-z+1, y+5/4, x+1/4'
'-z+1/2, -y+1/2, -x'
'-x, -y, -z'
'x-3/4, y-1/4, -z-1/2'
'x-1/4, -y-1/2, z-3/4'
'-x-1/2, y-3/4, z-1/4'
'-z, -x, -y'
'-z-1/2, x-3/4, y-1/4'
'z-3/4, x-1/4, -y-1/2'
'z-1/4, -x-1/2, y-3/4'
'-y, -z, -x'
'y-1/4, -z-1/2, x-3/4'
'-y-1/2, z-3/4, x-1/4'
'y-3/4, z-1/4, -x-1/2'
'-y-3/4, -x-1/4, z-1/2'
'y, x, z'
'-y-1/4, x-1/2, -z-3/4'
'y-1/2, -x-3/4, -z-1/4'
'-x-3/4, -z-1/4, y-1/2'
'x-1/2, -z-3/4, -y-1/4'
'x, z, y'
'-x-1/4, z-1/2, -y-3/4'
'-z-3/4, -y-1/4, x-1/2'
'-z-1/4, y-1/2, -x-3/4'
'z-1/2, -y-3/4, -x-1/4'
'z, y, x'
'-x, -y+1/2, -z+1/2'
'x-3/4, y+1/4, -z'
'x-1/4, -y, z-1/4'
'-x-1/2, y-1/4, z+1/4'
'-z, -x+1/2, -y+1/2'
'-z-1/2, x-1/4, y+1/4'
'z-3/4, x+1/4, -y'
'z-1/4, -x, y-1/4'
'-y, -z+1/2, -x+1/2'
'y-1/4, -z, x-1/4'
'-y-1/2, z-1/4, x+1/4'
'y-3/4, z+1/4, -x'
'-y-3/4, -x+1/4, z'
'y, x+1/2, z+1/2'
'-y-1/4, x, -z-1/4'
'y-1/2, -x-1/4, -z+1/4'
'-x-3/4, -z+1/4, y'
'x-1/2, -z-1/4, -y+1/4'
'x, z+1/2, y+1/2'
'-x-1/4, z, -y-1/4'
'-z-3/4, -y+1/4, x'
'-z-1/4, y, -x-1/4'
'z-1/2, -y-1/4, -x+1/4'
'z, y+1/2, x+1/2'
'-x+1/2, -y, -z+1/2'
'x-1/4, y-1/4, -z'
'x+1/4, -y-1/2, z-1/4'
'-x, y-3/4, z+1/4'
'-z+1/2, -x, -y+1/2'
'-z, x-3/4, y+1/4'
'z-1/4, x-1/4, -y'
'z+1/4, -x-1/2, y-1/4'
'-y+1/2, -z, -x+1/2'
'y+1/4, -z-1/2, x-1/4'
'-y, z-3/4, x+1/4'
'y-1/4, z-1/4, -x'
'-y-1/4, -x-1/4, z'
'y+1/2, x, z+1/2'
'-y+1/4, x-1/2, -z-1/4'
'y, -x-3/4, -z+1/4'
'-x-1/4, -z-1/4, y'
'x, -z-3/4, -y+1/4'
'x+1/2, z, y+1/2'
'-x+1/4, z-1/2, -y-1/4'
'-z-1/4, -y-1/4, x'
'-z+1/4, y-1/2, -x-1/4'
'z, -y-3/4, -x+1/4'
'z+1/2, y, x+1/2'
'-x+1/2, -y+1/2, -z'
'x-1/4, y+1/4, -z-1/2'
'x+1/4, -y, z-3/4'
'-x, y-1/4, z-1/4'
'-z+1/2, -x+1/2, -y'
'-z, x-1/4, y-1/4'
'z-1/4, x+1/4, -y-1/2'
'z+1/4, -x, y-3/4'
'-y+1/2, -z+1/2, -x'
'y+1/4, -z, x-3/4'
'-y, z-1/4, x-1/4'
'y-1/4, z+1/4, -x-1/2'
'-y-1/4, -x+1/4, z-1/2'
'y+1/2, x+1/2, z'
'-y+1/4, x, -z-3/4'
'y, -x-1/4, -z-1/4'
'-x-1/4, -z+1/4, y-1/2'
'x, -z-1/4, -y-1/4'
'x+1/2, z+1/2, y'
'-x+1/4, z, -y-3/4'
'-z-1/4, -y+1/4, x-1/2'
'-z+1/4, y, -x-3/4'
'z, -y-1/4, -x-1/4'
'z+1/2, y+1/2, x'
loop_
_atom_site_label
_atom_site_type_symbol
_atom_site_fract_x
_atom_site_fract_y
_atom_site_fract_z
_atom_site_U_iso_or_equiv
_atom_site_adp_type
_atom_site_occupancy
_atom_site_symmetry_multiplicity
_atom_site_calc_flag
_atom_site_refinement_flags
Te1 Te 0.0000 0.5000 0.0000 0.00685(19) Uani 0.83 12 d SP
In1 In 0.0000 0.5000 0.0000 0.00685(19) Uani 0.17 12 d SP
Cs1 Cs 0.1250 0.1250 0.1250 0.0173(2) Uani 1 24 d S
O1 O 0.1250 0.6250 -0.0703(3) 0.0245(8) Uani 1 4 d S
loop_
_atom_site_aniso_label
_atom_site_aniso_U_11
_atom_site_aniso_U_22
_atom_site_aniso_U_33
_atom_site_aniso_U_23
_atom_site_aniso_U_13
_atom_site_aniso_U_12
Te1 0.00685(19) 0.00685(19) 0.00685(19) -0.00072(11) -0.00072(11) -0.00072(11)
In1 0.00685(19) 0.00685(19) 0.00685(19) -0.00072(11) -0.00072(11) -0.00072(11)
Cs1 0.0173(2) 0.0173(2) 0.0173(2) 0.000 0.000 0.000
O1 0.0284(11) 0.0284(11) 0.0168(17) 0.000 0.000 -0.0080(17)
loop_
_atom_type_symbol
_atom_type_description
_atom_type_scat_dispersion_real
_atom_type_scat_dispersion_imag
_atom_type_scat_source
O O 0.0106 0.0060 'International Tables Vol C Tables 4.2.6.8 and 6.1.1.4'
Te Te -0.5308 1.6751 'International Tables Vol C Tables 4.2.6.8 and 6.1.1.4'
Cs Cs -0.3680 2.1192 'International Tables Vol C Tables 4.2.6.8 and 6.1.1.4'
In In -0.7276 1.3100 'International Tables Vol C Tables 4.2.6.8 and 6.1.1.4'
loop_
_geom_angle_atom_site_label_1
_geom_angle_atom_site_label_2
_geom_angle_atom_site_label_3
_geom_angle
_geom_angle_site_symmetry_1
_geom_angle_site_symmetry_3
O1 Te1 O1 93.07(13) 125 177
O1 Te1 O1 86.93(13) 125 .
O1 Te1 O1 86.93(13) 177 .
O1 Te1 O1 93.07(13) 125 97_565
O1 Te1 O1 93.07(13) 177 97_565
O1 Te1 O1 180.0 . 97_565
O1 Te1 O1 180.0 125 29_554
O1 Te1 O1 86.93(13) 177 29_554
O1 Te1 O1 93.07(13) . 29_554
O1 Te1 O1 86.93(13) 97_565 29_554
O1 Te1 O1 86.93(13) 125 81_455
O1 Te1 O1 180.0(2) 177 81_455
O1 Te1 O1 93.07(13) . 81_455
O1 Te1 O1 86.93(13) 97_565 81_455
O1 Te1 O1 93.07(13) 29_554 81_455
O1 Te1 Cs1 59.495(14) 125 25_554
O1 Te1 Cs1 59.495(14) 177 25_554
O1 Te1 Cs1 43.08(10) . 25_554
O1 Te1 Cs1 136.92(10) 97_565 25_554
O1 Te1 Cs1 120.505(14) 29_554 25_554
O1 Te1 Cs1 120.505(14) 81_455 25_554
O1 Te1 Cs1 43.08(10) 125 169
O1 Te1 Cs1 120.505(14) 177 169
O1 Te1 Cs1 59.495(14) . 169
O1 Te1 Cs1 120.505(14) 97_565 169
O1 Te1 Cs1 136.92(10) 29_554 169
O1 Te1 Cs1 59.495(14) 81_455 169
Cs1 Te1 Cs1 63.0 25_554 169
O1 Te1 Cs1 120.505(14) 125 97_565
O1 Te1 Cs1 43.08(10) 177 97_565
O1 Te1 Cs1 59.495(14) . 97_565
O1 Te1 Cs1 120.505(14) 97_565 97_565
O1 Te1 Cs1 59.495(14) 29_554 97_565
O1 Te1 Cs1 136.92(10) 81_455 97_565
Cs1 Te1 Cs1 63.0 25_554 97_565
Cs1 Te1 Cs1 117.0 169 97_565
O1 Te1 Cs1 59.495(14) 125 .
O1 Te1 Cs1 136.92(10) 177 .
O1 Te1 Cs1 120.505(14) . .
O1 Te1 Cs1 59.495(14) 97_565 .
O1 Te1 Cs1 120.505(14) 29_554 .
O1 Te1 Cs1 43.08(10) 81_455 .
Cs1 Te1 Cs1 117.0 25_554 .
Cs1 Te1 Cs1 63.0 169 .
Cs1 Te1 Cs1 180.0 97_565 .
O1 Te1 Cs1 136.92(10) 125 73_455
O1 Te1 Cs1 59.495(14) 177 73_455
O1 Te1 Cs1 120.505(14) . 73_455
O1 Te1 Cs1 59.495(14) 97_565 73_455
O1 Te1 Cs1 43.08(10) 29_554 73_455
O1 Te1 Cs1 120.505(14) 81_455 73_455
Cs1 Te1 Cs1 117.0 25_554 73_455
Cs1 Te1 Cs1 180.0 169 73_455
Cs1 Te1 Cs1 63.0 97_565 73_455
Cs1 Te1 Cs1 117.0 . 73_455
O1 Te1 Cs1 120.505(14) 125 121
O1 Te1 Cs1 120.505(14) 177 121
O1 Te1 Cs1 136.92(10) . 121
O1 Te1 Cs1 43.08(10) 97_565 121
O1 Te1 Cs1 59.495(14) 29_554 121
O1 Te1 Cs1 59.495(14) 81_455 121
Cs1 Te1 Cs1 180.0 25_554 121
Cs1 Te1 Cs1 117.0 169 121
Cs1 Te1 Cs1 117.0 97_565 121
Cs1 Te1 Cs1 63.0 . 121
Cs1 Te1 Cs1 63.0 73_455 121
O1 Cs1 O1 90.0 3_544 11_445
O1 Cs1 O1 90.0 3_544 81_455
O1 Cs1 O1 180.0 11_445 81_455
O1 Cs1 O1 90.0 3_544 7_454
O1 Cs1 O1 90.0 11_445 7_454
O1 Cs1 O1 90.0 81_455 7_454
O1 Cs1 O1 90.0 3_544 53_554
O1 Cs1 O1 90.0 11_445 53_554
O1 Cs1 O1 90.0 81_455 53_554
O1 Cs1 O1 180.0 7_454 53_554
O1 Cs1 O1 180.0 3_544 25_545
O1 Cs1 O1 90.0 11_445 25_545
O1 Cs1 O1 90.0 81_455 25_545
O1 Cs1 O1 90.0 7_454 25_545
O1 Cs1 O1 90.0 53_554 25_545
O1 Cs1 O1 98.80(6) 3_544 171_566
O1 Cs1 O1 134.329(8) 11_445 171_566
O1 Cs1 O1 45.671(8) 81_455 171_566
O1 Cs1 O1 134.329(8) 7_454 171_566
O1 Cs1 O1 45.671(8) 53_554 171_566
O1 Cs1 O1 81.20(6) 25_545 171_566
O1 Cs1 O1 134.329(8) 3_544 155_665
O1 Cs1 O1 98.80(6) 11_445 155_665
O1 Cs1 O1 81.20(6) 81_455 155_665
O1 Cs1 O1 134.329(8) 7_454 155_665
O1 Cs1 O1 45.671(8) 53_554 155_665
O1 Cs1 O1 45.671(8) 25_545 155_665
O1 Cs1 O1 45.40(9) 171_566 155_665
O1 Cs1 O1 45.671(8) 3_544 107_665
O1 Cs1 O1 98.80(6) 11_445 107_665
O1 Cs1 O1 81.20(6) 81_455 107_665
O1 Cs1 O1 45.671(8) 7_454 107_665
O1 Cs1 O1 134.329(8) 53_554 107_665
O1 Cs1 O1 134.329(8) 25_545 107_665
O1 Cs1 O1 119.229(10) 171_566 107_665
O1 Cs1 O1 162.40(11) 155_665 107_665
O1 Cs1 O1 134.329(8) 3_544 127_656
O1 Cs1 O1 134.329(8) 11_445 127_656
O1 Cs1 O1 45.671(8) 81_455 127_656
O1 Cs1 O1 98.80(6) 7_454 127_656
O1 Cs1 O1 81.20(6) 53_554 127_656
O1 Cs1 O1 45.671(8) 25_545 127_656
O1 Cs1 O1 45.40(9) 171_566 127_656
O1 Cs1 O1 45.40(9) 155_665 127_656
O1 Cs1 O1 119.229(10) 107_665 127_656
O1 Cs1 O1 45.671(8) 3_544 103_656
O1 Cs1 O1 45.671(8) 11_445 103_656
O1 Cs1 O1 134.329(8) 81_455 103_656
O1 Cs1 O1 98.80(6) 7_454 103_656
O1 Cs1 O1 81.20(6) 53_554 103_656
O1 Cs1 O1 134.329(8) 25_545 103_656
O1 Cs1 O1 119.229(9) 171_566 103_656
O1 Cs1 O1 119.229(9) 155_665 103_656
O1 Cs1 O1 74.07(9) 107_665 103_656
O1 Cs1 O1 162.40(11) 127_656 103_656
O1 Cs1 O1 98.80(6) 3_544 99_566
O1 Cs1 O1 45.671(8) 11_445 99_566
O1 Cs1 O1 134.329(8) 81_455 99_566
O1 Cs1 O1 45.671(8) 7_454 99_566
O1 Cs1 O1 134.329(8) 53_554 99_566
O1 Cs1 O1 81.20(6) 25_545 99_566
O1 Cs1 O1 162.40(11) 171_566 99_566
O1 Cs1 O1 119.229(10) 155_665 99_566
O1 Cs1 O1 74.07(9) 107_665 99_566
O1 Cs1 O1 119.229(10) 127_656 99_566
O1 Cs1 O1 74.07(9) 103_656 99_566
In1 O1 Te1 0.0 50_464 50_464
In1 O1 Te1 136.6(2) 50_464 .
Te1 O1 Te1 136.6(2) 50_464 .
In1 O1 Cs1 111.68(10) 50_464 25_554
Te1 O1 Cs1 111.68(10) 50_464 25_554
Te1 O1 Cs1 111.68(10) . 25_554
In1 O1 Cs1 93.240(6) 50_464 169
Te1 O1 Cs1 93.240(6) 50_464 169
Te1 O1 Cs1 93.240(6) . 169
Cs1 O1 Cs1 81.20(6) 25_554 169
In1 O1 Cs1 93.240(6) 50_464 97_565
Te1 O1 Cs1 93.240(6) 50_464 97_565
Te1 O1 Cs1 93.240(6) . 97_565
Cs1 O1 Cs1 81.20(6) 25_554 97_565
Cs1 O1 Cs1 162.40(11) 169 97_565
loop_
_geom_bond_atom_site_label_1
_geom_bond_atom_site_label_2
_geom_bond_distance
_geom_bond_site_symmetry_2
Te1 O1 1.9536(13) 125
Te1 O1 1.9536(13) 177
Te1 O1 1.9536(13) .
Te1 O1 1.9536(13) 97_565
Te1 O1 1.9536(13) 29_554
Te1 O1 1.9536(13) 81_455
Te1 Cs1 4.2576(3) 25_554
Te1 Cs1 4.2576(3) 169
Te1 Cs1 4.2576(3) 97_565
Te1 Cs1 4.2576(3) .
Te1 Cs1 4.2576(3) 73_455
Te1 Cs1 4.2576(3) 121
Cs1 O1 3.130(4) 3_544
Cs1 O1 3.130(4) 11_445
Cs1 O1 3.130(4) 81_455
Cs1 O1 3.130(4) 7_454
Cs1 O1 3.130(4) 53_554
Cs1 O1 3.130(4) 25_545
Cs1 O1 3.6741(6) 171_566
Cs1 O1 3.6741(6) 155_665
Cs1 O1 3.6741(6) 107_665
Cs1 O1 3.6741(6) 127_656
Cs1 O1 3.6741(6) 103_656
Cs1 O1 3.6741(6) 99_566
O1 In1 1.9536(13) 50_464
O1 Te1 1.9536(13) 50_464
O1 Cs1 3.130(4) 25_554
O1 Cs1 3.6741(6) 169
O1 Cs1 3.6741(6) 97_565
loop_
_geom_torsion_atom_site_label_1
_geom_torsion_atom_site_label_2
_geom_torsion_atom_site_label_3
_geom_torsion_atom_site_label_4
_geom_torsion
_geom_torsion_site_symmetry_1
_geom_torsion_site_symmetry_4
O1 Te1 O1 In1 -133.38(7) 125 50_464
O1 Te1 O1 In1 133.38(8) 177 50_464
O1 Te1 O1 In1 0(100) 97_565 50_464
O1 Te1 O1 In1 46.62(7) 29_554 50_464
O1 Te1 O1 In1 -46.62(8) 81_455 50_464
Cs1 Te1 O1 In1 180.0 25_554 50_464
Cs1 Te1 O1 In1 -98.19(6) 169 50_464
Cs1 Te1 O1 In1 98.19(6) 97_565 50_464
Cs1 Te1 O1 In1 -81.81(6) . 50_464
Cs1 Te1 O1 In1 81.81(6) 73_455 50_464
Cs1 Te1 O1 In1 0.0 121 50_464
O1 Te1 O1 Te1 -133.38(7) 125 50_464
O1 Te1 O1 Te1 133.38(8) 177 50_464
O1 Te1 O1 Te1 0(100) 97_565 50_464
O1 Te1 O1 Te1 46.62(7) 29_554 50_464
O1 Te1 O1 Te1 -46.62(8) 81_455 50_464
Cs1 Te1 O1 Te1 180.0 25_554 50_464
Cs1 Te1 O1 Te1 -98.19(6) 169 50_464
Cs1 Te1 O1 Te1 98.19(6) 97_565 50_464
Cs1 Te1 O1 Te1 -81.81(6) . 50_464
Cs1 Te1 O1 Te1 81.81(6) 73_455 50_464
Cs1 Te1 O1 Te1 0.0 121 50_464
O1 Te1 O1 Cs1 46.62(7) 125 25_554
O1 Te1 O1 Cs1 -46.62(7) 177 25_554
O1 Te1 O1 Cs1 180(100) 97_565 25_554
O1 Te1 O1 Cs1 -133.38(7) 29_554 25_554
O1 Te1 O1 Cs1 133.38(7) 81_455 25_554
Cs1 Te1 O1 Cs1 81.81(6) 169 25_554
Cs1 Te1 O1 Cs1 -81.81(6) 97_565 25_554
Cs1 Te1 O1 Cs1 98.19(6) . 25_554
Cs1 Te1 O1 Cs1 -98.19(6) 73_455 25_554
Cs1 Te1 O1 Cs1 180.0 121 25_554
O1 Te1 O1 Cs1 -35.189(18) 125 169
O1 Te1 O1 Cs1 -128.44(13) 177 169
O1 Te1 O1 Cs1 98(100) 97_565 169
O1 Te1 O1 Cs1 144.811(18) 29_554 169
O1 Te1 O1 Cs1 51.56(13) 81_455 169
Cs1 Te1 O1 Cs1 -81.81(6) 25_554 169
Cs1 Te1 O1 Cs1 -163.63(11) 97_565 169
Cs1 Te1 O1 Cs1 16.37(11) . 169
Cs1 Te1 O1 Cs1 180.0 73_455 169
Cs1 Te1 O1 Cs1 98.19(6) 121 169
O1 Te1 O1 Cs1 128.44(13) 125 97_565
O1 Te1 O1 Cs1 35.189(18) 177 97_565
O1 Te1 O1 Cs1 -98(100) 97_565 97_565
O1 Te1 O1 Cs1 -51.56(13) 29_554 97_565
O1 Te1 O1 Cs1 -144.811(18) 81_455 97_565
Cs1 Te1 O1 Cs1 81.81(6) 25_554 97_565
Cs1 Te1 O1 Cs1 163.63(11) 169 97_565
Cs1 Te1 O1 Cs1 180.0 . 97_565
Cs1 Te1 O1 Cs1 -16.37(11) 73_455 97_565
Cs1 Te1 O1 Cs1 -98.19(6) 121 97_565
