#------------------------------------------------------------------------------
#$Date: 2016-03-23 16:08:07 +0200 (Wed, 23 Mar 2016) $
#$Revision: 179363 $
#$URL: svn://www.crystallography.net/cod/cif/4/32/60/4326066.cif $
#------------------------------------------------------------------------------
#
# This file is available in the Crystallography Open Database (COD),
# http://www.crystallography.net/
#
# All data on this site have been placed in the public domain by the
# contributors.
#
data_4326066
loop_
_publ_author_name
'Hua He'
'Chauntae Tyson'
'Svilen Bobev'
_publ_section_title
;
 Eight-Coordinated Arsenic in the Zintl Phases RbCd4As3 and RbZn4As3:
 Synthesis and Structural Characterization
;
_journal_name_full               'Inorganic Chemistry'
_journal_page_first              8375
_journal_page_last               8383
_journal_paper_doi               10.1021/ic2009418
_journal_volume                  50
_journal_year                    2011
_chemical_formula_moiety         'As3 Zn4, Cs'
_chemical_formula_sum            'As3 Cs Zn4'
_chemical_formula_weight         619.15
_chemical_name_systematic
; 
 ? 
;
_space_group_IT_number           123
_symmetry_cell_setting           tetragonal
_symmetry_space_group_name_Hall  '-P 4 2'
_symmetry_space_group_name_H-M   'P 4/m m m'
_atom_sites_solution_primary     direct
_atom_sites_solution_secondary   difmap
_audit_creation_method           SHELXL-97
_cell_angle_alpha                90.00
_cell_angle_beta                 90.00
_cell_angle_gamma                90.00
_cell_formula_units_Z            1
_cell_length_a                   4.1789(10)
_cell_length_b                   4.1789(10)
_cell_length_c                   10.571(5)
_cell_measurement_reflns_used    213
_cell_measurement_temperature    200(2)
_cell_measurement_theta_max      30.44
_cell_measurement_theta_min      1.93
_cell_volume                     184.60(11)
_computing_cell_refinement       'Bruker SMART'
_computing_data_collection       'Bruker SMART'
_computing_data_reduction        'Bruker SAINT'
_computing_molecular_graphics    'Bruker SHELXTL'
_computing_publication_material  'Bruker SHELXTL'
_computing_structure_refinement  'SHELXL-97 (Sheldrick, 1997)'
_computing_structure_solution    'SHELXS-97 (Sheldrick, 1990)'
_diffrn_ambient_temperature      200(2)
_diffrn_measured_fraction_theta_full 0.995
_diffrn_measured_fraction_theta_max 0.995
_diffrn_measurement_device_type  'CCD area detector'
_diffrn_measurement_method       'phi and omega scans'
_diffrn_radiation_monochromator  graphite
_diffrn_radiation_source         'fine-focus sealed tube'
_diffrn_radiation_type           MoK\a
_diffrn_radiation_wavelength     0.71073
_diffrn_reflns_av_R_equivalents  0.0700
_diffrn_reflns_av_sigmaI/netI    0.0398
_diffrn_reflns_limit_h_max       5
_diffrn_reflns_limit_h_min       -5
_diffrn_reflns_limit_k_max       5
_diffrn_reflns_limit_k_min       -5
_diffrn_reflns_limit_l_max       15
_diffrn_reflns_limit_l_min       -14
_diffrn_reflns_number            1732
_diffrn_reflns_theta_full        30.44
_diffrn_reflns_theta_max         30.44
_diffrn_reflns_theta_min         1.93
_exptl_absorpt_coefficient_mu    30.921
_exptl_absorpt_correction_T_max  0.734
_exptl_absorpt_correction_T_min  0.342
_exptl_absorpt_correction_type   multi-scan
_exptl_absorpt_process_details
; 
SADABS (Sheldrick, 2003) 
;
_exptl_crystal_colour            black
_exptl_crystal_density_diffrn    5.570
_exptl_crystal_description       plate
_exptl_crystal_F_000             274
_exptl_crystal_size_max          0.06
_exptl_crystal_size_mid          0.03
_exptl_crystal_size_min          0.01
_refine_diff_density_max         2.629
_refine_diff_density_min         -0.928
_refine_diff_density_rms         0.373
_refine_ls_extinction_method     none
_refine_ls_goodness_of_fit_ref   1.070
_refine_ls_matrix_type           full
_refine_ls_number_parameters     12
_refine_ls_number_reflns         213
_refine_ls_number_restraints     0
_refine_ls_restrained_S_all      1.070
_refine_ls_R_factor_all          0.0375
_refine_ls_R_factor_gt           0.0298
_refine_ls_shift/su_max          0.000
_refine_ls_shift/su_mean         0.000
_refine_ls_structure_factor_coef Fsqd
_refine_ls_weighting_details
'calc w=1/[\s^2^(Fo^2^)+(0.0314P)^2^+0.0000P] where P=(Fo^2^+2Fc^2^)/3'
_refine_ls_weighting_scheme      calc
_refine_ls_wR_factor_gt          0.0641
_refine_ls_wR_factor_ref         0.0683
_reflns_number_gt                182
_reflns_number_total             213
_reflns_threshold_expression     >2sigma(I)
_cod_data_source_file            ic2009418_si_002_CsZn4As3.cif
_cod_data_source_block           CsZn4As3
_cod_database_code               4326066
loop_
_symmetry_equiv_pos_as_xyz
'x, y, z'
'-x, -y, z'
'-y, x, z'
'y, -x, z'
'-x, y, -z'
'x, -y, -z'
'y, x, -z'
'-y, -x, -z'
'-x, -y, -z'
'x, y, -z'
'y, -x, -z'
'-y, x, -z'
'x, -y, z'
'-x, y, z'
'-y, -x, z'
'y, x, z'
loop_
_atom_site_label
_atom_site_type_symbol
_atom_site_fract_x
_atom_site_fract_y
_atom_site_fract_z
_atom_site_U_iso_or_equiv
_atom_site_adp_type
_atom_site_occupancy
_atom_site_symmetry_multiplicity
_atom_site_calc_flag
_atom_site_refinement_flags
Cs1 Cs 0.0000 0.0000 0.5000 0.0175(3) Uani 1 16 d S
Zn1 Zn 0.0000 0.5000 0.15487(10) 0.0141(3) Uani 1 4 d S
As1 As 0.5000 0.5000 0.28373(12) 0.0116(3) Uani 1 8 d S
As2 As 0.0000 0.0000 0.0000 0.0111(4) Uani 1 16 d S
loop_
_atom_site_aniso_label
_atom_site_aniso_U_11
_atom_site_aniso_U_22
_atom_site_aniso_U_33
_atom_site_aniso_U_23
_atom_site_aniso_U_13
_atom_site_aniso_U_12
Cs1 0.0154(4) 0.0154(4) 0.0217(6) 0.000 0.000 0.000
Zn1 0.0090(5) 0.0124(6) 0.0208(6) 0.000 0.000 0.000
As1 0.0098(4) 0.0098(4) 0.0151(6) 0.000 0.000 0.000
As2 0.0095(6) 0.0095(6) 0.0144(8) 0.000 0.000 0.000
loop_
_atom_type_symbol
_atom_type_description
_atom_type_scat_dispersion_real
_atom_type_scat_dispersion_imag
_atom_type_scat_source
Zn Zn 0.2839 1.4301 'International Tables Vol C Tables 4.2.6.8 and 6.1.1.4'
As As 0.0499 2.0058 'International Tables Vol C Tables 4.2.6.8 and 6.1.1.4'
Cs Cs -0.3680 2.1192 'International Tables Vol C Tables 4.2.6.8 and 6.1.1.4'
loop_
_geom_angle_atom_site_label_1
_geom_angle_atom_site_label_2
_geom_angle_atom_site_label_3
_geom_angle
_geom_angle_site_symmetry_1
_geom_angle_site_symmetry_3
As1 Cs1 As1 180.0 9_666 1_445
As1 Cs1 As1 75.46(4) 9_666 .
As1 Cs1 As1 104.54(4) 1_445 .
As1 Cs1 As1 68.01(2) 9_666 9_566
As1 Cs1 As1 111.99(2) 1_445 9_566
As1 Cs1 As1 111.99(2) . 9_566
As1 Cs1 As1 68.01(2) 9_666 9_656
As1 Cs1 As1 111.99(2) 1_445 9_656
As1 Cs1 As1 111.99(2) . 9_656
As1 Cs1 As1 104.54(4) 9_566 9_656
As1 Cs1 As1 111.99(2) 9_666 1_455
As1 Cs1 As1 68.01(2) 1_445 1_455
As1 Cs1 As1 68.01(2) . 1_455
As1 Cs1 As1 75.46(4) 9_566 1_455
As1 Cs1 As1 180.0 9_656 1_455
As1 Cs1 As1 111.99(2) 9_666 1_545
As1 Cs1 As1 68.01(2) 1_445 1_545
As1 Cs1 As1 68.01(2) . 1_545
As1 Cs1 As1 180.0 9_566 1_545
As1 Cs1 As1 75.46(4) 9_656 1_545
As1 Cs1 As1 104.54(4) 1_455 1_545
As1 Cs1 As1 104.54(4) 9_666 9_556
As1 Cs1 As1 75.46(4) 1_445 9_556
As1 Cs1 As1 180.0 . 9_556
As1 Cs1 As1 68.01(2) 9_566 9_556
As1 Cs1 As1 68.01(2) 9_656 9_556
As1 Cs1 As1 111.99(2) 1_455 9_556
As1 Cs1 As1 111.99(2) 1_545 9_556
As1 Cs1 Cs1 124.005(11) 9_666 1_455
As1 Cs1 Cs1 55.995(11) 1_445 1_455
As1 Cs1 Cs1 124.005(12) . 1_455
As1 Cs1 Cs1 55.995(11) 9_566 1_455
As1 Cs1 Cs1 124.005(11) 9_656 1_455
As1 Cs1 Cs1 55.995(11) 1_455 1_455
As1 Cs1 Cs1 124.005(11) 1_545 1_455
As1 Cs1 Cs1 55.995(11) 9_556 1_455
As1 Cs1 Cs1 55.995(11) 9_666 1_655
As1 Cs1 Cs1 124.005(11) 1_445 1_655
As1 Cs1 Cs1 55.995(12) . 1_655
As1 Cs1 Cs1 124.005(11) 9_566 1_655
As1 Cs1 Cs1 55.995(11) 9_656 1_655
As1 Cs1 Cs1 124.005(11) 1_455 1_655
As1 Cs1 Cs1 55.995(11) 1_545 1_655
As1 Cs1 Cs1 124.005(11) 9_556 1_655
Cs1 Cs1 Cs1 180.0 1_455 1_655
As1 Cs1 Cs1 55.995(11) 9_666 1_565
As1 Cs1 Cs1 124.005(11) 1_445 1_565
As1 Cs1 Cs1 55.995(12) . 1_565
As1 Cs1 Cs1 55.995(11) 9_566 1_565
As1 Cs1 Cs1 124.005(11) 9_656 1_565
As1 Cs1 Cs1 55.995(11) 1_455 1_565
As1 Cs1 Cs1 124.005(11) 1_545 1_565
As1 Cs1 Cs1 124.005(11) 9_556 1_565
Cs1 Cs1 Cs1 90.0 1_455 1_565
Cs1 Cs1 Cs1 90.0 1_655 1_565
As1 Cs1 Cs1 124.005(11) 9_666 1_545
As1 Cs1 Cs1 55.995(11) 1_445 1_545
As1 Cs1 Cs1 124.005(12) . 1_545
As1 Cs1 Cs1 124.005(11) 9_566 1_545
As1 Cs1 Cs1 55.995(11) 9_656 1_545
As1 Cs1 Cs1 124.005(11) 1_455 1_545
As1 Cs1 Cs1 55.995(11) 1_545 1_545
As1 Cs1 Cs1 55.995(11) 9_556 1_545
Cs1 Cs1 Cs1 90.0 1_455 1_545
Cs1 Cs1 Cs1 90.0 1_655 1_545
Cs1 Cs1 Cs1 180.0 1_565 1_545
As1 Zn1 As1 113.80(7) 1_455 .
As1 Zn1 As2 109.68(2) 1_455 .
As1 Zn1 As2 109.68(2) . .
As1 Zn1 As2 109.68(2) 1_455 1_565
As1 Zn1 As2 109.68(2) . 1_565
As2 Zn1 As2 103.84(5) . 1_565
As1 Zn1 Zn1 126.324(16) 1_455 3_665
As1 Zn1 Zn1 53.677(16) . 3_665
As2 Zn1 Zn1 123.822(12) . 3_665
As2 Zn1 Zn1 56.177(13) 1_565 3_665
As1 Zn1 Zn1 53.677(16) 1_455 3
As1 Zn1 Zn1 126.324(16) . 3
As2 Zn1 Zn1 56.177(13) . 3
As2 Zn1 Zn1 123.822(13) 1_565 3
Zn1 Zn1 Zn1 180.0 3_665 3
As1 Zn1 Zn1 126.324(16) 1_455 3_655
As1 Zn1 Zn1 53.677(16) . 3_655
As2 Zn1 Zn1 56.177(13) . 3_655
As2 Zn1 Zn1 123.822(13) 1_565 3_655
Zn1 Zn1 Zn1 90.0 3_665 3_655
Zn1 Zn1 Zn1 90.0 3 3_655
As1 Zn1 Zn1 53.677(16) 1_455 3_565
As1 Zn1 Zn1 126.324(16) . 3_565
As2 Zn1 Zn1 123.822(13) . 3_565
As2 Zn1 Zn1 56.177(13) 1_565 3_565
Zn1 Zn1 Zn1 90.0 3_665 3_565
Zn1 Zn1 Zn1 90.0 3 3_565
Zn1 Zn1 Zn1 180.0 3_655 3_565
As1 Zn1 Cs1 61.71(3) 1_455 1_565
As1 Zn1 Cs1 61.71(3) . 1_565
As2 Zn1 Cs1 157.88(2) . 1_565
As2 Zn1 Cs1 98.28(3) 1_565 1_565
Zn1 Zn1 Cs1 69.426(10) 3_665 1_565
Zn1 Zn1 Cs1 110.575(10) 3 1_565
Zn1 Zn1 Cs1 110.575(10) 3_655 1_565
Zn1 Zn1 Cs1 69.426(10) 3_565 1_565
As1 Zn1 Cs1 61.71(3) 1_455 .
As1 Zn1 Cs1 61.71(3) . .
As2 Zn1 Cs1 98.28(3) . .
As2 Zn1 Cs1 157.88(2) 1_565 .
Zn1 Zn1 Cs1 110.575(11) 3_665 .
Zn1 Zn1 Cs1 69.426(10) 3 .
Zn1 Zn1 Cs1 69.426(10) 3_655 .
Zn1 Zn1 Cs1 110.575(10) 3_565 .
Cs1 Zn1 Cs1 59.60(3) 1_565 .
Zn1 As1 Zn1 72.65(3) . 3_655
Zn1 As1 Zn1 72.65(3) . 3_665
Zn1 As1 Zn1 113.80(7) 3_655 3_665
Zn1 As1 Zn1 113.80(7) . 1_655
Zn1 As1 Zn1 72.65(3) 3_655 1_655
Zn1 As1 Zn1 72.65(3) 3_665 1_655
Zn1 As1 Cs1 143.387(11) . 1_665
Zn1 As1 Cs1 143.387(11) 3_655 1_665
Zn1 As1 Cs1 82.28(3) 3_665 1_665
Zn1 As1 Cs1 82.28(3) 1_655 1_665
Zn1 As1 Cs1 143.387(11) . 1_655
Zn1 As1 Cs1 82.28(3) 3_655 1_655
Zn1 As1 Cs1 143.387(12) 3_665 1_655
Zn1 As1 Cs1 82.28(3) 1_655 1_655
Cs1 As1 Cs1 68.01(2) 1_665 1_655
Zn1 As1 Cs1 82.28(3) . 1_565
Zn1 As1 Cs1 143.387(11) 3_655 1_565
Zn1 As1 Cs1 82.28(3) 3_665 1_565
Zn1 As1 Cs1 143.387(12) 1_655 1_565
Cs1 As1 Cs1 68.01(2) 1_665 1_565
Cs1 As1 Cs1 104.54(4) 1_655 1_565
Zn1 As1 Cs1 82.28(3) . .
Zn1 As1 Cs1 82.28(3) 3_655 .
Zn1 As1 Cs1 143.387(12) 3_665 .
Zn1 As1 Cs1 143.387(11) 1_655 .
Cs1 As1 Cs1 104.54(4) 1_665 .
Cs1 As1 Cs1 68.01(2) 1_655 .
Cs1 As1 Cs1 68.01(2) 1_565 .
Zn1 As2 Zn1 180.00(4) 11_455 3_655
Zn1 As2 Zn1 67.65(2) 11_455 9
Zn1 As2 Zn1 112.35(3) 3_655 9
Zn1 As2 Zn1 103.85(5) 11_455 11
Zn1 As2 Zn1 76.15(5) 3_655 11
Zn1 As2 Zn1 67.65(2) 9 11
Zn1 As2 Zn1 67.65(2) 11_455 9_565
Zn1 As2 Zn1 112.35(2) 3_655 9_565
Zn1 As2 Zn1 103.85(5) 9 9_565
Zn1 As2 Zn1 67.65(2) 11 9_565
Zn1 As2 Zn1 76.15(5) 11_455 3
Zn1 As2 Zn1 103.85(5) 3_655 3
Zn1 As2 Zn1 112.35(2) 9 3
Zn1 As2 Zn1 180.00(4) 11 3
Zn1 As2 Zn1 112.35(2) 9_565 3
Zn1 As2 Zn1 112.35(2) 11_455 1_545
Zn1 As2 Zn1 67.65(2) 3_655 1_545
Zn1 As2 Zn1 76.15(5) 9 1_545
Zn1 As2 Zn1 112.35(2) 11 1_545
Zn1 As2 Zn1 180.00(4) 9_565 1_545
Zn1 As2 Zn1 67.65(2) 3 1_545
Zn1 As2 Zn1 112.36(3) 11_455 .
Zn1 As2 Zn1 67.64(3) 3_655 .
Zn1 As2 Zn1 180.0 9 .
Zn1 As2 Zn1 112.36(2) 11 .
Zn1 As2 Zn1 76.15(5) 9_565 .
Zn1 As2 Zn1 67.64(2) 3 .
Zn1 As2 Zn1 103.85(5) 1_545 .
loop_
_geom_bond_atom_site_label_1
_geom_bond_atom_site_label_2
_geom_bond_distance
_geom_bond_site_symmetry_2
Cs1 As1 3.7360(12) 9_666
Cs1 As1 3.7360(12) 1_445
Cs1 As1 3.7360(12) .
Cs1 As1 3.7360(12) 9_566
Cs1 As1 3.7360(12) 9_656
Cs1 As1 3.7360(12) 1_455
Cs1 As1 3.7360(12) 1_545
Cs1 As1 3.7360(12) 9_556
Cs1 Cs1 4.1789(10) 1_455
Cs1 Cs1 4.1789(10) 1_655
Cs1 Cs1 4.1789(10) 1_565
Cs1 Cs1 4.1789(10) 1_545
Zn1 As1 2.4943(10) 1_455
Zn1 As1 2.4943(10) .
Zn1 As2 2.6544(9) .
Zn1 As2 2.6544(9) 1_565
Zn1 Zn1 2.9549(7) 3_665
Zn1 Zn1 2.9549(7) 3
Zn1 Zn1 2.9549(7) 3_655
Zn1 Zn1 2.9549(7) 3_565
Zn1 Cs1 4.2043(19) 1_565
As1 Zn1 2.4943(10) 3_655
As1 Zn1 2.4943(10) 3_665
As1 Zn1 2.4943(10) 1_655
As1 Cs1 3.7360(12) 1_665
As1 Cs1 3.7360(12) 1_655
As1 Cs1 3.7360(12) 1_565
As2 Zn1 2.6543(9) 11_455
As2 Zn1 2.6543(9) 3_655
As2 Zn1 2.6543(9) 9
As2 Zn1 2.6543(9) 11
As2 Zn1 2.6543(9) 9_565
As2 Zn1 2.6543(9) 3
As2 Zn1 2.6543(9) 1_545
