#------------------------------------------------------------------------------
#$Date: 2016-03-23 16:17:38 +0200 (Wed, 23 Mar 2016) $
#$Revision: 179370 $
#$URL: svn://www.crystallography.net/cod/cif/4/32/67/4326723.cif $
#------------------------------------------------------------------------------
#
# This file is available in the Crystallography Open Database (COD),
# http://www.crystallography.net/
#
# All data on this site have been placed in the public domain by the
# contributors.
#
data_4326723
loop_
_publ_author_name
'Stanislav S. Stoyko'
'Arthur Mar'
_publ_contact_author_address
; Department of Chemistry
  University of Alberta
  Edmonton, AB
  Canada  T6G 2G2
;
_publ_contact_author_email       arthur.mar@ualberta.ca
_publ_contact_author_fax         '(780) 492-8231'
_publ_contact_author_name        'Dr. Arthur Mar'
_publ_contact_author_phone       '(780) 492-5592'
_publ_section_title
;
 Ternary Rare-Earth Arsenides REZn3As3 (RE = La-Nd, Sm) and RECd3As3 (RE =
 La-Pr)
;
_journal_name_full               'Inorganic Chemistry'
_journal_page_first              11152
_journal_page_last               11161
_journal_paper_doi               10.1021/ic201708x
_journal_volume                  50
_journal_year                    2011
_chemical_formula_structural     'Pr Zn3 As3'
_chemical_formula_sum            'As3 Pr Zn3'
_chemical_formula_weight         561.78
_chemical_name_common            'praseodymium zinc arsenide (1/3/3)'
_chemical_name_systematic        'praseodymium zinc arsenide (1/3/3)'
_space_group_IT_number           194
_symmetry_cell_setting           hexagonal
_symmetry_space_group_name_Hall  '-P 6c 2c'
_symmetry_space_group_name_H-M   'P 63/m m c'
_atom_sites_solution_primary     direct
_atom_sites_solution_secondary   difmap
_audit_creation_method           SHELXL-97
_cell_angle_alpha                90.00
_cell_angle_beta                 90.00
_cell_angle_gamma                120.00
_cell_formula_units_Z            2
_cell_length_a                   4.1709(2)
_cell_length_b                   4.1709(2)
_cell_length_c                   20.4429(10)
_cell_measurement_reflns_used    6788
_cell_measurement_temperature    293(2)
_cell_measurement_theta_max      32.93
_cell_measurement_theta_min      3.99
_cell_volume                     307.99(3)
_computing_cell_refinement       'Bruker SAINT 7.68A (Bruker, 2009)'
_computing_data_collection       'Bruker SMART 5.054 (Bruker, 1999)'
_computing_data_reduction        'Bruker SAINT 7.68A'
_computing_molecular_graphics    'ATOMS 5.1 (Dowty, 1999)'
_computing_publication_material  'Bruker SHELXTL 6.12'
_computing_structure_refinement  'Bruker SHELXTL 6.12'
_computing_structure_solution    'Bruker SHELXTL 6.12'
_diffrn_ambient_temperature      293(2)
_diffrn_measured_fraction_theta_full 1.000
_diffrn_measured_fraction_theta_max 1.000
_diffrn_measurement_device_type  'Bruker D8/SMART APEX II CCD'
_diffrn_measurement_method       '\w scans'
_diffrn_radiation_monochromator  graphite
_diffrn_radiation_source         'fine-focus sealed tube'
_diffrn_radiation_type           MoK\a
_diffrn_radiation_wavelength     0.71073
_diffrn_reflns_av_R_equivalents  0.0550
_diffrn_reflns_av_sigmaI/netI    0.0217
_diffrn_reflns_limit_h_max       6
_diffrn_reflns_limit_h_min       -6
_diffrn_reflns_limit_k_max       6
_diffrn_reflns_limit_k_min       -6
_diffrn_reflns_limit_l_max       30
_diffrn_reflns_limit_l_min       -31
_diffrn_reflns_number            3720
_diffrn_reflns_theta_full        32.93
_diffrn_reflns_theta_max         32.93
_diffrn_reflns_theta_min         1.99
_exptl_absorpt_coefficient_mu    35.157
_exptl_absorpt_correction_T_max  0.3557
_exptl_absorpt_correction_T_min  0.0476
_exptl_absorpt_correction_type   numerical
_exptl_absorpt_process_details   'Bruker SHELXTL 6.12 (Sheldrick, 2001)'
_exptl_crystal_colour            grey
_exptl_crystal_density_diffrn    6.058
_exptl_crystal_description       plate
_exptl_crystal_F_000             496
_exptl_crystal_size_max          0.16
_exptl_crystal_size_mid          0.14
_exptl_crystal_size_min          0.04
_refine_diff_density_max         4.460
_refine_diff_density_min         -3.978
_refine_diff_density_rms         0.732
_refine_ls_extinction_coef       0.022(4)
_refine_ls_extinction_expression Fc^*^=kFc[1+0.001xFc^2^\l^3^/sin(2\q)]^-1/4^
_refine_ls_extinction_method     SHELXL
_refine_ls_goodness_of_fit_ref   1.393
_refine_ls_matrix_type           full
_refine_ls_number_parameters     18
_refine_ls_number_reflns         273
_refine_ls_number_restraints     0
_refine_ls_restrained_S_all      1.393
_refine_ls_R_factor_all          0.0748
_refine_ls_R_factor_gt           0.0748
_refine_ls_shift/su_max          0.000
_refine_ls_shift/su_mean         0.000
_refine_ls_structure_factor_coef Fsqd
_refine_ls_weighting_details
'calc w=1/[\s^2^(Fo^2^)+(0.0000P)^2^+65.1933P] where P=(Fo^2^+2Fc^2^)/3'
_refine_ls_weighting_scheme      calc
_refine_ls_wR_factor_gt          0.1915
_refine_ls_wR_factor_ref         0.1915
_reflns_number_gt                273
_reflns_number_total             273
_reflns_threshold_expression     I>2\s(I)
_cod_data_source_file            ic201708x_si_002_3.cif
_cod_data_source_block           PrZn3As3
_cod_database_code               4326723
loop_
_symmetry_equiv_pos_as_xyz
'x, y, z'
'-y, x-y, z'
'-x+y, -x, z'
'-x, -y, z+1/2'
'y, -x+y, z+1/2'
'x-y, x, z+1/2'
'y, x, -z'
'x-y, -y, -z'
'-x, -x+y, -z'
'-y, -x, -z+1/2'
'-x+y, y, -z+1/2'
'x, x-y, -z+1/2'
'-x, -y, -z'
'y, -x+y, -z'
'x-y, x, -z'
'x, y, -z-1/2'
'-y, x-y, -z-1/2'
'-x+y, -x, -z-1/2'
'-y, -x, z'
'-x+y, y, z'
'x, x-y, z'
'y, x, z-1/2'
'x-y, -y, z-1/2'
'-x, -x+y, z-1/2'
loop_
_atom_site_label
_atom_site_type_symbol
_atom_site_fract_x
_atom_site_fract_y
_atom_site_fract_z
_atom_site_U_iso_or_equiv
_atom_site_adp_type
_atom_site_occupancy
_atom_site_symmetry_multiplicity
_atom_site_calc_flag
_atom_site_refinement_flags
Pr Pr 0.0000 0.0000 0.0000 0.0111(8) Uani 1 12 d S
Zn1 Zn 0.3333 0.6667 0.6308(2) 0.0160(11) Uani 1 6 d S
Zn2 Zn 0.269(2) 0.538(4) 0.2500 0.027(3) Uani 0.33 4 d SP
As1 As 0.3333 0.6667 0.08711(18) 0.0111(9) Uani 1 6 d S
As2 As 0.6009(15) 0.202(3) 0.2500 0.0122(16) Uani 0.33 4 d SP
loop_
_atom_site_aniso_label
_atom_site_aniso_U_11
_atom_site_aniso_U_22
_atom_site_aniso_U_33
_atom_site_aniso_U_23
_atom_site_aniso_U_13
_atom_site_aniso_U_12
Pr 0.0105(9) 0.0105(9) 0.0123(12) 0.000 0.000 0.0052(4)
Zn1 0.0157(14) 0.0157(14) 0.017(2) 0.000 0.000 0.0078(7)
Zn2 0.009(3) 0.015(5) 0.059(8) 0.000 0.000 0.007(2)
As1 0.0104(11) 0.0104(11) 0.0125(15) 0.000 0.000 0.0052(6)
As2 0.010(3) 0.016(4) 0.013(3) 0.000 0.000 0.0080(18)
loop_
_atom_type_symbol
_atom_type_description
_atom_type_scat_dispersion_real
_atom_type_scat_dispersion_imag
_atom_type_scat_source
Zn Zn 0.2839 1.4301 'International Tables Vol C Tables 4.2.6.8 and 6.1.1.4'
As As 0.0499 2.0058 'International Tables Vol C Tables 4.2.6.8 and 6.1.1.4'
Pr Pr -0.2180 2.8214 'International Tables Vol C Tables 4.2.6.8 and 6.1.1.4'
loop_
_geom_angle_atom_site_label_1
_geom_angle_atom_site_label_2
_geom_angle_atom_site_label_3
_geom_angle
_geom_angle_site_symmetry_1
_geom_angle_site_symmetry_3
As1 Pr As1 88.26(8) 13 13_665
As1 Pr As1 91.74(8) 13 1_445
As1 Pr As1 180.00(11) 13_665 1_445
As1 Pr As1 88.26(8) 13 13_565
As1 Pr As1 88.26(8) 13_665 13_565
As1 Pr As1 91.74(8) 1_445 13_565
As1 Pr As1 91.74(8) 13 1_545
As1 Pr As1 91.74(8) 13_665 1_545
As1 Pr As1 88.26(8) 1_445 1_545
As1 Pr As1 180.00(11) 13_565 1_545
As1 Pr As1 180.0 13 .
As1 Pr As1 91.74(8) 13_665 .
As1 Pr As1 88.26(8) 1_445 .
As1 Pr As1 91.74(8) 13_565 .
As1 Pr As1 88.26(8) 1_545 .
As1 Pr Zn1 135.31(3) 13 4_664
As1 Pr Zn1 84.49(7) 13_665 4_664
As1 Pr Zn1 95.51(7) 1_445 4_664
As1 Pr Zn1 135.31(3) 13_565 4_664
As1 Pr Zn1 44.69(3) 1_545 4_664
As1 Pr Zn1 44.69(3) . 4_664
As1 Pr Zn1 44.69(3) 13 16_446
As1 Pr Zn1 95.51(7) 13_665 16_446
As1 Pr Zn1 84.49(7) 1_445 16_446
As1 Pr Zn1 44.69(3) 13_565 16_446
As1 Pr Zn1 135.31(3) 1_545 16_446
As1 Pr Zn1 135.31(3) . 16_446
Zn1 Pr Zn1 180.00(10) 4_664 16_446
As1 Pr Zn1 84.49(7) 13 4_554
As1 Pr Zn1 135.31(3) 13_665 4_554
As1 Pr Zn1 44.69(3) 1_445 4_554
As1 Pr Zn1 135.31(3) 13_565 4_554
As1 Pr Zn1 44.69(3) 1_545 4_554
As1 Pr Zn1 95.51(7) . 4_554
Zn1 Pr Zn1 70.83(8) 4_664 4_554
Zn1 Pr Zn1 109.17(8) 16_446 4_554
As1 Pr Zn1 95.51(7) 13 16_556
As1 Pr Zn1 44.69(3) 13_665 16_556
As1 Pr Zn1 135.31(3) 1_445 16_556
As1 Pr Zn1 44.69(3) 13_565 16_556
As1 Pr Zn1 135.31(3) 1_545 16_556
As1 Pr Zn1 84.49(7) . 16_556
Zn1 Pr Zn1 109.17(8) 4_664 16_556
Zn1 Pr Zn1 70.83(8) 16_446 16_556
Zn1 Pr Zn1 180.00(10) 4_554 16_556
As1 Pr Zn1 135.31(3) 13 4_564
As1 Pr Zn1 135.31(3) 13_665 4_564
As1 Pr Zn1 44.69(3) 1_445 4_564
As1 Pr Zn1 84.48(7) 13_565 4_564
As1 Pr Zn1 95.52(7) 1_545 4_564
As1 Pr Zn1 44.69(3) . 4_564
Zn1 Pr Zn1 70.83(8) 4_664 4_564
Zn1 Pr Zn1 109.17(8) 16_446 4_564
Zn1 Pr Zn1 70.83(8) 4_554 4_564
Zn1 Pr Zn1 109.17(8) 16_556 4_564
As1 Pr Zn1 44.69(3) 13 16_546
As1 Pr Zn1 44.69(3) 13_665 16_546
As1 Pr Zn1 135.31(3) 1_445 16_546
As1 Pr Zn1 95.52(7) 13_565 16_546
As1 Pr Zn1 84.48(7) 1_545 16_546
As1 Pr Zn1 135.31(3) . 16_546
Zn1 Pr Zn1 109.17(8) 4_664 16_546
Zn1 Pr Zn1 70.83(8) 16_446 16_546
Zn1 Pr Zn1 109.17(8) 4_554 16_546
Zn1 Pr Zn1 70.83(8) 16_556 16_546
Zn1 Pr Zn1 180.00(10) 4_564 16_546
As2 Zn1 As2 19.1(4) 13_666 14_566
As2 Zn1 As2 19.1(4) 13_666 15_556
As2 Zn1 As2 19.1(4) 14_566 15_556
As2 Zn1 As1 115.55(17) 13_666 4_665
As2 Zn1 As1 115.55(17) 14_566 4_665
As2 Zn1 As1 99.3(3) 15_556 4_665
As2 Zn1 As1 115.55(16) 13_666 4_565
As2 Zn1 As1 99.3(3) 14_566 4_565
As2 Zn1 As1 115.55(17) 15_556 4_565
As1 Zn1 As1 108.57(13) 4_665 4_565
As2 Zn1 As1 99.3(3) 13_666 4_675
As2 Zn1 As1 115.55(16) 14_566 4_675
As2 Zn1 As1 115.55(17) 15_556 4_675
As1 Zn1 As1 108.57(13) 4_665 4_675
As1 Zn1 As1 108.57(13) 4_565 4_675
As2 Zn1 Pr 149.0(3) 13_666 4
As2 Zn1 Pr 131.71(16) 14_566 4
As2 Zn1 Pr 131.71(16) 15_556 4
As1 Zn1 Pr 55.09(8) 4_665 4
As1 Zn1 Pr 55.09(8) 4_565 4
As1 Zn1 Pr 111.64(16) 4_675 4
As2 Zn1 Pr 131.71(15) 13_666 4_565
As2 Zn1 Pr 131.71(15) 14_566 4_565
As2 Zn1 Pr 149.0(2) 15_556 4_565
As1 Zn1 Pr 111.64(16) 4_665 4_565
As1 Zn1 Pr 55.09(8) 4_565 4_565
As1 Zn1 Pr 55.09(8) 4_675 4_565
Pr Zn1 Pr 70.83(8) 4 4_565
As2 Zn1 Pr 131.71(16) 13_666 4_665
As2 Zn1 Pr 149.0(3) 14_566 4_665
As2 Zn1 Pr 131.71(16) 15_556 4_665
As1 Zn1 Pr 55.09(8) 4_665 4_665
As1 Zn1 Pr 111.64(16) 4_565 4_665
As1 Zn1 Pr 55.09(8) 4_675 4_665
Pr Zn1 Pr 70.83(8) 4 4_665
Pr Zn1 Pr 70.83(8) 4_565 4_665
Zn2 Zn2 Zn2 60.0 2_665 3_565
Zn2 Zn2 As2 76.7(4) 2_665 3_665
Zn2 Zn2 As2 136.7(4) 3_565 3_665
Zn2 Zn2 As2 136.7(4) 2_665 2
Zn2 Zn2 As2 76.7(4) 3_565 2
As2 Zn2 As2 146.6(9) 3_665 2
Zn2 Zn2 As2 30.0 2_665 1_565
Zn2 Zn2 As2 30.000(3) 3_565 1_565
As2 Zn2 As2 106.7(4) 3_665 1_565
As2 Zn2 As2 106.7(4) 2 1_565
Zn2 Zn2 As2 90.2(4) 2_665 .
Zn2 Zn2 As2 150.2(4) 3_565 .
As2 Zn2 As2 13.5(3) 3_665 .
As2 Zn2 As2 133.1(8) 2 .
As2 Zn2 As2 120.2(4) 1_565 .
Zn2 Zn2 As2 150.2(4) 2_665 1_455
Zn2 Zn2 As2 90.2(4) 3_565 1_455
As2 Zn2 As2 133.1(8) 3_665 1_455
As2 Zn2 As2 13.5(3) 2 1_455
As2 Zn2 As2 120.2(4) 1_565 1_455
As2 Zn2 As2 119.5(8) . 1_455
Zn2 Zn2 As2 71.4(3) 2_665 2_655
Zn2 Zn2 As2 131.4(3) 3_565 2_655
As2 Zn2 As2 5.33(16) 3_665 2_655
As2 Zn2 As2 151.9(8) 2 2_655
As2 Zn2 As2 101.4(3) 1_565 2_655
As2 Zn2 As2 18.9(4) . 2_655
As2 Zn2 As2 138.4(6) 1_455 2_655
Zn2 Zn2 As2 131.4(3) 2_665 3_565
Zn2 Zn2 As2 71.4(3) 3_565 3_565
As2 Zn2 As2 151.9(8) 3_665 3_565
As2 Zn2 As2 5.33(16) 2 3_565
As2 Zn2 As2 101.4(3) 1_565 3_565
As2 Zn2 As2 138.4(6) . 3_565
As2 Zn2 As2 18.9(4) 1_455 3_565
As2 Zn2 As2 157.3(7) 2_655 3_565
Zn1 As1 Zn1 108.57(13) 4_664 4_674
Zn1 As1 Zn1 108.57(13) 4_664 4_564
Zn1 As1 Zn1 108.57(13) 4_674 4_564
Zn1 As1 Pr 80.21(7) 4_664 .
Zn1 As1 Pr 163.88(16) 4_674 .
Zn1 As1 Pr 80.21(7) 4_564 .
Zn1 As1 Pr 163.88(16) 4_664 1_565
Zn1 As1 Pr 80.21(7) 4_674 1_565
Zn1 As1 Pr 80.21(7) 4_564 1_565
Pr As1 Pr 88.26(8) . 1_565
Zn1 As1 Pr 80.21(7) 4_664 1_665
Zn1 As1 Pr 80.21(7) 4_674 1_665
Zn1 As1 Pr 163.88(16) 4_564 1_665
Pr As1 Pr 88.26(8) . 1_665
Pr As1 Pr 88.26(8) 1_565 1_665
As2 As2 As2 60.0 2_655 3_665
As2 As2 Zn2 136.7(4) 2_655 2_655
As2 As2 Zn2 163.3(4) 3_665 2_655
As2 As2 Zn2 163.3(4) 2_655 3
As2 As2 Zn2 136.7(5) 3_665 3
Zn2 As2 Zn2 26.6(9) 2_655 3
As2 As2 Zn2 150.001(1) 2_655 1_545
As2 As2 Zn2 150.000(5) 3_665 1_545
Zn2 As2 Zn2 13.3(4) 2_655 1_545
Zn2 As2 Zn2 13.3(4) 3 1_545
As2 As2 Zn2 29.8(4) 2_655 1_655
As2 As2 Zn2 89.8(4) 3_665 1_655
Zn2 As2 Zn2 106.9(8) 2_655 1_655
Zn2 As2 Zn2 133.5(3) 3 1_655
Zn2 As2 Zn2 120.2(4) 1_545 1_655
As2 As2 Zn2 89.8(4) 2_655 .
As2 As2 Zn2 29.8(4) 3_665 .
Zn2 As2 Zn2 133.5(3) 2_655 .
Zn2 As2 Zn2 106.9(8) 3 .
Zn2 As2 Zn2 120.2(4) 1_545 .
Zn2 As2 Zn2 119.5(8) 1_655 .
As2 As2 Zn1 80.5(2) 2_655 13_666
As2 As2 Zn1 80.5(2) 3_665 13_666
Zn2 As2 Zn1 100.7(2) 2_655 13_666
Zn2 As2 Zn1 100.7(2) 3 13_666
Zn2 As2 Zn1 101.0(2) 1_545 13_666
Zn2 As2 Zn1 84.47(17) 1_655 13_666
Zn2 As2 Zn1 84.47(17) . 13_666
As2 As2 Zn1 80.5(2) 2_655 4_664
As2 As2 Zn1 80.5(2) 3_665 4_664
Zn2 As2 Zn1 100.7(2) 2_655 4_664
Zn2 As2 Zn1 100.7(2) 3 4_664
Zn2 As2 Zn1 101.0(2) 1_545 4_664
Zn2 As2 Zn1 84.47(17) 1_655 4_664
Zn2 As2 Zn1 84.47(17) . 4_664
Zn1 As2 Zn1 157.9(5) 13_666 4_664
As2 As2 Zn2 11.4(3) 2_655 3_665
As2 As2 Zn2 71.4(3) 3_665 3_665
Zn2 As2 Zn2 125.33(16) 2_655 3_665
Zn2 As2 Zn2 151.9(8) 3 3_665
Zn2 As2 Zn2 138.6(3) 1_545 3_665
Zn2 As2 Zn2 18.4(6) 1_655 3_665
Zn2 As2 Zn2 101.1(4) . 3_665
Zn1 As2 Zn2 81.7(2) 13_666 3_665
Zn1 As2 Zn2 81.7(2) 4_664 3_665
As2 As2 Zn2 71.4(3) 2_655 2_665
As2 As2 Zn2 11.4(3) 3_665 2_665
Zn2 As2 Zn2 151.9(8) 2_655 2_665
Zn2 As2 Zn2 125.33(15) 3 2_665
Zn2 As2 Zn2 138.6(3) 1_545 2_665
Zn2 As2 Zn2 101.1(4) 1_655 2_665
Zn2 As2 Zn2 18.4(6) . 2_665
Zn1 As2 Zn2 81.7(2) 13_666 2_665
Zn1 As2 Zn2 81.7(2) 4_664 2_665
Zn2 As2 Zn2 82.7(7) 3_665 2_665
loop_
_geom_bond_atom_site_label_1
_geom_bond_atom_site_label_2
_geom_bond_distance
_geom_bond_site_symmetry_2
Pr As1 2.995(2) 13
Pr As1 2.995(2) 13_665
Pr As1 2.995(2) 1_445
Pr As1 2.995(2) 13_565
Pr As1 2.995(2) 1_545
Pr As1 2.995(2) .
Pr Zn1 3.599(3) 4_664
Pr Zn1 3.599(3) 16_446
Pr Zn1 3.599(3) 4_554
Pr Zn1 3.599(3) 16_556
Pr Zn1 3.599(3) 4_564
Pr Zn1 3.599(3) 16_546
Zn1 As2 2.482(5) 13_666
Zn1 As2 2.482(5) 14_566
Zn1 As2 2.482(5) 15_556
Zn1 As1 2.569(2) 4_665
Zn1 As1 2.569(2) 4_565
Zn1 As1 2.569(2) 4_675
Zn1 Pr 3.599(3) 4
Zn1 Pr 3.599(3) 4_565
Zn1 Pr 3.599(3) 4_665
Zn2 Zn2 0.80(2) 2_665
Zn2 Zn2 0.80(2) 3_565
Zn2 As2 1.747(11) 3_665
Zn2 As2 1.747(11) 2
Zn2 As2 2.397(19) 1_565
Zn2 As2 2.414(9) .
Zn2 As2 2.414(9) 1_455
Zn2 As2 2.547(9) 2_655
Zn2 As2 2.547(9) 3_565
As1 Zn1 2.569(2) 4_664
As1 Zn1 2.569(2) 4_674
As1 Zn1 2.569(2) 4_564
As1 Pr 2.995(2) 1_565
As1 Pr 2.995(2) 1_665
As2 As2 0.824(18) 2_655
As2 As2 0.824(18) 3_665
As2 Zn2 1.747(11) 2_655
As2 Zn2 1.747(11) 3
As2 Zn2 2.397(19) 1_545
As2 Zn2 2.414(9) 1_655
As2 Zn1 2.482(5) 13_666
As2 Zn1 2.482(5) 4_664
As2 Zn2 2.547(9) 3_665
As2 Zn2 2.547(9) 2_665
