#------------------------------------------------------------------------------
#$Date: 2016-03-23 16:08:07 +0200 (Wed, 23 Mar 2016) $
#$Revision: 179363 $
#$URL: svn://www.crystallography.net/cod/cif/4/32/60/4326075.cif $
#------------------------------------------------------------------------------
#
# This file is available in the Crystallography Open Database (COD),
# http://www.crystallography.net/
#
# All data on this site have been placed in the public domain by the
# contributors.
#
data_4326075
loop_
_publ_author_name
'Hua He'
'Chauntae Tyson'
'Svilen Bobev'
_publ_section_title
;
 Eight-Coordinated Arsenic in the Zintl Phases RbCd4As3 and RbZn4As3:
 Synthesis and Structural Characterization
;
_journal_name_full               'Inorganic Chemistry'
_journal_page_first              8375
_journal_page_last               8383
_journal_paper_doi               10.1021/ic2009418
_journal_volume                  50
_journal_year                    2011
_chemical_formula_moiety         'P3 Zn4, Rb'
_chemical_formula_sum            'P3 Rb Zn4'
_chemical_formula_weight         439.86
_chemical_name_systematic
; 
 ? 
;
_space_group_IT_number           123
_symmetry_cell_setting           tetragonal
_symmetry_space_group_name_Hall  '-P 4 2'
_symmetry_space_group_name_H-M   'P 4/m m m'
_atom_sites_solution_primary     direct
_atom_sites_solution_secondary   difmap
_audit_creation_method           SHELXL-97
_cell_angle_alpha                90.00
_cell_angle_beta                 90.00
_cell_angle_gamma                90.00
_cell_formula_units_Z            1
_cell_length_a                   4.0593(9)
_cell_length_b                   4.0593(9)
_cell_length_c                   10.069(3)
_cell_measurement_reflns_used    167
_cell_measurement_temperature    200(2)
_cell_measurement_theta_max      28.26
_cell_measurement_theta_min      2.02
_cell_volume                     165.92(7)
_computing_cell_refinement       'Bruker SMART'
_computing_data_collection       'Bruker SMART'
_computing_data_reduction        'Bruker SAINT'
_computing_molecular_graphics    'Bruker SHELXTL'
_computing_publication_material  'Bruker SHELXTL'
_computing_structure_refinement  'SHELXL-97 (Sheldrick, 1997)'
_computing_structure_solution    'SHELXS-97 (Sheldrick, 1990)'
_diffrn_ambient_temperature      200(2)
_diffrn_measured_fraction_theta_full 1.000
_diffrn_measured_fraction_theta_max 1.000
_diffrn_measurement_device_type  'CCD area detector'
_diffrn_measurement_method       'phi and omega scans'
_diffrn_radiation_monochromator  graphite
_diffrn_radiation_source         'fine-focus sealed tube'
_diffrn_radiation_type           MoK\a
_diffrn_radiation_wavelength     0.71073
_diffrn_reflns_av_R_equivalents  0.0574
_diffrn_reflns_av_sigmaI/netI    0.0283
_diffrn_reflns_limit_h_max       5
_diffrn_reflns_limit_h_min       -5
_diffrn_reflns_limit_k_max       5
_diffrn_reflns_limit_k_min       -5
_diffrn_reflns_limit_l_max       13
_diffrn_reflns_limit_l_min       -13
_diffrn_reflns_number            1722
_diffrn_reflns_theta_full        28.26
_diffrn_reflns_theta_max         28.26
_diffrn_reflns_theta_min         2.02
_exptl_absorpt_coefficient_mu    22.162
_exptl_absorpt_correction_T_max  0.801
_exptl_absorpt_correction_T_min  0.275
_exptl_absorpt_correction_type   multi-scan
_exptl_absorpt_process_details
; 
SADABS (Sheldrick, 2003) 
;
_exptl_crystal_colour            black
_exptl_crystal_density_diffrn    4.402
_exptl_crystal_description       plate
_exptl_crystal_F_000             202
_exptl_crystal_size_max          0.06
_exptl_crystal_size_mid          0.05
_exptl_crystal_size_min          0.01
_refine_diff_density_max         0.791
_refine_diff_density_min         -0.709
_refine_diff_density_rms         0.174
_refine_ls_extinction_method     none
_refine_ls_goodness_of_fit_ref   1.051
_refine_ls_matrix_type           full
_refine_ls_number_parameters     12
_refine_ls_number_reflns         167
_refine_ls_number_restraints     0
_refine_ls_restrained_S_all      1.051
_refine_ls_R_factor_all          0.0258
_refine_ls_R_factor_gt           0.0222
_refine_ls_shift/su_max          0.000
_refine_ls_shift/su_mean         0.000
_refine_ls_structure_factor_coef Fsqd
_refine_ls_weighting_details
'calc w=1/[\s^2^(Fo^2^)+(0.0215P)^2^+0.0000P] where P=(Fo^2^+2Fc^2^)/3'
_refine_ls_weighting_scheme      calc
_refine_ls_wR_factor_gt          0.0445
_refine_ls_wR_factor_ref         0.0463
_reflns_number_gt                152
_reflns_number_total             167
_reflns_threshold_expression     >2sigma(I)
_cod_data_source_file            ic2009418_si_002_RbZn4P3.cif
_cod_data_source_block           RbZn4P3
_cod_database_code               4326075
loop_
_symmetry_equiv_pos_as_xyz
'x, y, z'
'-x, -y, z'
'-y, x, z'
'y, -x, z'
'-x, y, -z'
'x, -y, -z'
'y, x, -z'
'-y, -x, -z'
'-x, -y, -z'
'x, y, -z'
'y, -x, -z'
'-y, x, -z'
'x, -y, z'
'-x, y, z'
'-y, -x, z'
'y, x, z'
loop_
_atom_site_label
_atom_site_type_symbol
_atom_site_fract_x
_atom_site_fract_y
_atom_site_fract_z
_atom_site_U_iso_or_equiv
_atom_site_adp_type
_atom_site_occupancy
_atom_site_symmetry_multiplicity
_atom_site_calc_flag
_atom_site_refinement_flags
Rb1 Rb 0.0000 0.0000 0.5000 0.0179(3) Uani 1 16 d S
Zn1 Zn 0.0000 0.5000 0.15773(6) 0.0128(2) Uani 1 4 d S
P1 P 0.5000 0.5000 0.28642(19) 0.0104(4) Uani 1 8 d S
P2 P 0.0000 0.0000 0.0000 0.0096(5) Uani 1 16 d S
loop_
_atom_site_aniso_label
_atom_site_aniso_U_11
_atom_site_aniso_U_22
_atom_site_aniso_U_33
_atom_site_aniso_U_23
_atom_site_aniso_U_13
_atom_site_aniso_U_12
Rb1 0.0193(4) 0.0193(4) 0.0152(6) 0.000 0.000 0.000
Zn1 0.0107(3) 0.0137(3) 0.0139(4) 0.000 0.000 0.000
P1 0.0103(6) 0.0103(6) 0.0106(10) 0.000 0.000 0.000
P2 0.0103(8) 0.0103(8) 0.0081(13) 0.000 0.000 0.000
loop_
_atom_type_symbol
_atom_type_description
_atom_type_scat_dispersion_real
_atom_type_scat_dispersion_imag
_atom_type_scat_source
P P 0.1023 0.0942 'International Tables Vol C Tables 4.2.6.8 and 6.1.1.4'
Zn Zn 0.2839 1.4301 'International Tables Vol C Tables 4.2.6.8 and 6.1.1.4'
Rb Rb -0.9393 2.9676 'International Tables Vol C Tables 4.2.6.8 and 6.1.1.4'
loop_
_geom_angle_atom_site_label_1
_geom_angle_atom_site_label_2
_geom_angle_atom_site_label_3
_geom_angle
_geom_angle_site_symmetry_1
_geom_angle_site_symmetry_3
P1 Rb1 P1 180.0 9_666 1_445
P1 Rb1 P1 68.93(3) 9_666 9_566
P1 Rb1 P1 111.07(3) 1_445 9_566
P1 Rb1 P1 68.93(3) 9_666 9_656
P1 Rb1 P1 111.07(3) 1_445 9_656
P1 Rb1 P1 106.32(5) 9_566 9_656
P1 Rb1 P1 111.07(3) 9_666 1_455
P1 Rb1 P1 68.93(3) 1_445 1_455
P1 Rb1 P1 73.68(5) 9_566 1_455
P1 Rb1 P1 180.0 9_656 1_455
P1 Rb1 P1 111.07(3) 9_666 1_545
P1 Rb1 P1 68.93(3) 1_445 1_545
P1 Rb1 P1 180.0 9_566 1_545
P1 Rb1 P1 73.68(5) 9_656 1_545
P1 Rb1 P1 106.32(5) 1_455 1_545
P1 Rb1 P1 106.32(5) 9_666 9_556
P1 Rb1 P1 73.68(5) 1_445 9_556
P1 Rb1 P1 68.93(3) 9_566 9_556
P1 Rb1 P1 68.93(3) 9_656 9_556
P1 Rb1 P1 111.07(3) 1_455 9_556
P1 Rb1 P1 111.07(3) 1_545 9_556
P1 Rb1 P1 73.68(5) 9_666 .
P1 Rb1 P1 106.32(5) 1_445 .
P1 Rb1 P1 111.07(3) 9_566 .
P1 Rb1 P1 111.07(3) 9_656 .
P1 Rb1 P1 68.93(3) 1_455 .
P1 Rb1 P1 68.93(3) 1_545 .
P1 Rb1 P1 180.0 9_556 .
P1 Rb1 Zn1 143.50(2) 9_666 1_545
P1 Rb1 Zn1 36.50(2) 1_445 1_545
P1 Rb1 Zn1 143.50(2) 9_566 1_545
P1 Rb1 Zn1 103.27(3) 9_656 1_545
P1 Rb1 Zn1 76.73(3) 1_455 1_545
P1 Rb1 Zn1 36.50(2) 1_545 1_545
P1 Rb1 Zn1 103.27(3) 9_556 1_545
P1 Rb1 Zn1 76.73(3) . 1_545
P1 Rb1 Zn1 36.50(2) 9_666 9_566
P1 Rb1 Zn1 143.50(2) 1_445 9_566
P1 Rb1 Zn1 36.50(2) 9_566 9_566
P1 Rb1 Zn1 76.73(3) 9_656 9_566
P1 Rb1 Zn1 103.27(3) 1_455 9_566
P1 Rb1 Zn1 143.50(2) 1_545 9_566
P1 Rb1 Zn1 76.73(3) 9_556 9_566
P1 Rb1 Zn1 103.27(3) . 9_566
Zn1 Rb1 Zn1 180.000(9) 1_545 9_566
P1 Rb1 Zn1 143.50(2) 9_666 3
P1 Rb1 Zn1 36.50(2) 1_445 3
P1 Rb1 Zn1 103.27(3) 9_566 3
P1 Rb1 Zn1 143.50(2) 9_656 3
P1 Rb1 Zn1 36.50(2) 1_455 3
P1 Rb1 Zn1 76.73(3) 1_545 3
P1 Rb1 Zn1 103.27(3) 9_556 3
P1 Rb1 Zn1 76.73(3) . 3
Zn1 Rb1 Zn1 42.057(14) 1_545 3
Zn1 Rb1 Zn1 137.943(14) 9_566 3
P1 Rb1 Zn1 36.50(2) 9_666 11_556
P1 Rb1 Zn1 143.50(2) 1_445 11_556
P1 Rb1 Zn1 76.73(3) 9_566 11_556
P1 Rb1 Zn1 36.50(2) 9_656 11_556
P1 Rb1 Zn1 143.50(2) 1_455 11_556
P1 Rb1 Zn1 103.27(3) 1_545 11_556
P1 Rb1 Zn1 76.73(3) 9_556 11_556
P1 Rb1 Zn1 103.27(3) . 11_556
Zn1 Rb1 Zn1 137.943(14) 1_545 11_556
Zn1 Rb1 Zn1 42.057(14) 9_566 11_556
Zn1 Rb1 Zn1 180.000(9) 3 11_556
P1 Zn1 P1 114.89(8) . 1_455
P1 Zn1 P2 109.37(2) . .
P1 Zn1 P2 109.37(2) 1_455 .
P1 Zn1 P2 109.37(2) . 1_565
P1 Zn1 P2 109.37(2) 1_455 1_565
P2 Zn1 P2 103.91(3) . 1_565
P1 Zn1 Zn1 53.416(19) . 3_665
P1 Zn1 Zn1 126.584(19) 1_455 3_665
P2 Zn1 Zn1 123.840(8) . 3_665
P2 Zn1 Zn1 56.160(8) 1_565 3_665
P1 Zn1 Zn1 126.584(19) . 3
P1 Zn1 Zn1 53.416(19) 1_455 3
P2 Zn1 Zn1 56.160(8) . 3
P2 Zn1 Zn1 123.840(8) 1_565 3
Zn1 Zn1 Zn1 180.00(5) 3_665 3
P1 Zn1 Zn1 53.416(19) . 3_655
P1 Zn1 Zn1 126.584(19) 1_455 3_655
P2 Zn1 Zn1 56.160(8) . 3_655
P2 Zn1 Zn1 123.840(8) 1_565 3_655
Zn1 Zn1 Zn1 90.0 3_665 3_655
Zn1 Zn1 Zn1 90.0 3 3_655
P1 Zn1 Zn1 126.584(19) . 3_565
P1 Zn1 Zn1 53.416(19) 1_455 3_565
P2 Zn1 Zn1 123.840(8) . 3_565
P2 Zn1 Zn1 56.160(8) 1_565 3_565
Zn1 Zn1 Zn1 90.0 3_665 3_565
Zn1 Zn1 Zn1 90.0 3 3_565
Zn1 Zn1 Zn1 180.00(5) 3_655 3_565
P1 Zn1 Rb1 62.38(3) . 1_565
P1 Zn1 Rb1 62.37(3) 1_455 1_565
P2 Zn1 Rb1 158.538(15) . 1_565
P2 Zn1 Rb1 97.55(2) 1_565 1_565
Zn1 Zn1 Rb1 68.971(7) 3_665 1_565
Zn1 Zn1 Rb1 111.029(7) 3 1_565
Zn1 Zn1 Rb1 111.029(7) 3_655 1_565
Zn1 Zn1 Rb1 68.971(7) 3_565 1_565
P1 Zn1 Rb1 62.38(3) . .
P1 Zn1 Rb1 62.37(3) 1_455 .
P2 Zn1 Rb1 97.55(2) . .
P2 Zn1 Rb1 158.538(15) 1_565 .
Zn1 Zn1 Rb1 111.029(7) 3_665 .
Zn1 Zn1 Rb1 68.971(7) 3 .
Zn1 Zn1 Rb1 68.971(7) 3_655 .
Zn1 Zn1 Rb1 111.029(7) 3_565 .
Rb1 Zn1 Rb1 60.99(2) 1_565 .
Zn1 P1 Zn1 73.17(4) 3_655 .
Zn1 P1 Zn1 114.89(8) 3_655 3_665
Zn1 P1 Zn1 73.17(4) . 3_665
Zn1 P1 Zn1 73.17(4) 3_655 1_655
Zn1 P1 Zn1 114.89(8) . 1_655
Zn1 P1 Zn1 73.17(4) 3_665 1_655
Zn1 P1 Rb1 143.095(12) 3_655 1_665
Zn1 P1 Rb1 143.095(11) . 1_665
Zn1 P1 Rb1 81.12(2) 3_665 1_665
Zn1 P1 Rb1 81.12(2) 1_655 1_665
Zn1 P1 Rb1 81.12(2) 3_655 1_655
Zn1 P1 Rb1 143.095(11) . 1_655
Zn1 P1 Rb1 143.095(11) 3_665 1_655
Zn1 P1 Rb1 81.12(2) 1_655 1_655
Rb1 P1 Rb1 68.93(3) 1_665 1_655
Zn1 P1 Rb1 143.095(11) 3_655 1_565
Zn1 P1 Rb1 81.12(2) . 1_565
Zn1 P1 Rb1 81.12(2) 3_665 1_565
Zn1 P1 Rb1 143.095(11) 1_655 1_565
Rb1 P1 Rb1 68.93(3) 1_665 1_565
Rb1 P1 Rb1 106.32(5) 1_655 1_565
Zn1 P1 Rb1 81.12(2) 3_655 .
Zn1 P1 Rb1 81.12(2) . .
Zn1 P1 Rb1 143.095(11) 3_665 .
Zn1 P1 Rb1 143.095(11) 1_655 .
Rb1 P1 Rb1 106.32(5) 1_665 .
Rb1 P1 Rb1 68.93(3) 1_655 .
Rb1 P1 Rb1 68.93(3) 1_565 .
Zn1 P2 Zn1 112.319(16) 11_455 .
Zn1 P2 Zn1 180.00(2) 11_455 3_655
Zn1 P2 Zn1 67.681(16) . 3_655
Zn1 P2 Zn1 67.681(16) 11_455 9
Zn1 P2 Zn1 180.00(2) . 9
Zn1 P2 Zn1 112.319(16) 3_655 9
Zn1 P2 Zn1 103.91(3) 11_455 11
Zn1 P2 Zn1 112.319(16) . 11
Zn1 P2 Zn1 76.09(3) 3_655 11
Zn1 P2 Zn1 67.681(16) 9 11
Zn1 P2 Zn1 76.09(3) 11_455 3
Zn1 P2 Zn1 67.681(16) . 3
Zn1 P2 Zn1 103.91(3) 3_655 3
Zn1 P2 Zn1 112.319(16) 9 3
Zn1 P2 Zn1 180.00(2) 11 3
Zn1 P2 Zn1 67.681(16) 11_455 9_565
Zn1 P2 Zn1 76.09(3) . 9_565
Zn1 P2 Zn1 112.319(16) 3_655 9_565
Zn1 P2 Zn1 103.91(3) 9 9_565
Zn1 P2 Zn1 67.681(16) 11 9_565
Zn1 P2 Zn1 112.319(16) 3 9_565
Zn1 P2 Zn1 112.319(16) 11_455 1_545
Zn1 P2 Zn1 103.91(3) . 1_545
Zn1 P2 Zn1 67.681(16) 3_655 1_545
Zn1 P2 Zn1 76.09(3) 9 1_545
Zn1 P2 Zn1 112.319(16) 11 1_545
Zn1 P2 Zn1 67.681(16) 3 1_545
Zn1 P2 Zn1 180.00(2) 9_565 1_545
loop_
_geom_bond_atom_site_label_1
_geom_bond_atom_site_label_2
_geom_bond_distance
_geom_bond_site_symmetry_2
Rb1 P1 3.5866(13) 9_666
Rb1 P1 3.5866(13) 1_445
Rb1 P1 3.5866(13) 9_566
Rb1 P1 3.5866(13) 9_656
Rb1 P1 3.5866(13) 1_455
Rb1 P1 3.5866(13) 1_545
Rb1 P1 3.5866(13) 9_556
Rb1 P1 3.5866(13) .
Rb1 Zn1 3.9996(11) 1_545
Rb1 Zn1 3.9996(11) 9_566
Rb1 Zn1 3.9996(11) 3
Rb1 Zn1 3.9996(11) 11_556
Zn1 P1 2.4080(12) .
Zn1 P1 2.4080(12) 1_455
Zn1 P2 2.5772(6) .
Zn1 P2 2.5772(6) 1_565
Zn1 Zn1 2.8704(6) 3_665
Zn1 Zn1 2.8704(6) 3
Zn1 Zn1 2.8704(6) 3_655
Zn1 Zn1 2.8704(6) 3_565
Zn1 Rb1 3.9996(11) 1_565
P1 Zn1 2.4080(12) 3_655
P1 Zn1 2.4080(12) 3_665
P1 Zn1 2.4080(12) 1_655
P1 Rb1 3.5866(13) 1_665
P1 Rb1 3.5866(13) 1_655
P1 Rb1 3.5866(13) 1_565
P2 Zn1 2.5772(6) 11_455
P2 Zn1 2.5772(6) 3_655
P2 Zn1 2.5772(6) 9
P2 Zn1 2.5772(6) 11
P2 Zn1 2.5772(6) 3
P2 Zn1 2.5772(6) 9_565
P2 Zn1 2.5772(6) 1_545
