#------------------------------------------------------------------------------
#$Date: 2016-03-23 16:22:53 +0200 (Wed, 23 Mar 2016) $
#$Revision: 179374 $
#$URL: svn://www.crystallography.net/cod/cif/4/32/71/4327130.cif $
#------------------------------------------------------------------------------
#
# This file is available in the Crystallography Open Database (COD),
# http://www.crystallography.net/
#
# All data on this site have been placed in the public domain by the
# contributors.
#
data_4327130
loop_
_publ_author_name
'Yanan Fang'
'Clemens Ritter'
'Tim White'
_publ_contact_author_address
;    
      School of Materials Science and Engineering
      Nanyang Technological University
      50 Nanyang Avenue, 639798
      Singapore
;
_publ_contact_author_email       fang0027@e.ntu.edu.sg
_publ_contact_author_name        'Yanan Fang'
_publ_contact_author_phone       06598659194
_publ_section_title
;
 The Crystal Chemistry of Ca10-y(SiO4)3(SO4)3Cl2-x-2yFx Ellestadite
;
_journal_name_full               'Inorganic Chemistry'
_journal_page_first              12641
_journal_page_last               12650
_journal_paper_doi               10.1021/ic201673r
_journal_volume                  50
_journal_year                    2011
_chemical_formula_sum            'Ca10 Cl0.4 F1.6 O24 S3 Si3'
_chemical_formula_weight         1009.79
_chemical_name_common            ellestadite
_chemical_name_systematic
;
ellestadite
;
_space_group_IT_number           176
_symmetry_cell_setting           hexagonal
_symmetry_Int_Tables_number      176
_symmetry_space_group_name_Hall  '-P 6c'
_symmetry_space_group_name_H-M   'P 63/m'
_cell_angle_alpha                90
_cell_angle_beta                 90
_cell_angle_gamma                120
_cell_formula_units_Z            1
_cell_length_a                   9.5064(2)
_cell_length_b                   9.5064(2)
_cell_length_c                   6.9263(1)
_cell_measurement_reflns_used    553
_cell_measurement_temperature    298
_cell_volume                     542.081(18)
_computing_cell_refinement       'TOPAS (Bruker, 2005)'
_computing_molecular_graphics    'Diamond 3.2 (K. Brandenburg, 2011)'
_computing_publication_material  'TOPAS (Bruker, 2005)'
_computing_structure_refinement  'TOPAS (Bruker, 2005)'
_computing_structure_solution    'TOPAS (Bruker, 2005)'
_diffrn_ambient_temperature      298
_diffrn_detector                 '3He detector'
_diffrn_measurement_device_type  'ILL high resolution D1A diffractometer'
_diffrn_radiation_monochromator  Ge
_diffrn_radiation_probe          neutron
_diffrn_radiation_type           neutron
_diffrn_radiation_wavelength     1.38994
_diffrn_reflns_limit_h_max       10
_diffrn_reflns_limit_h_min       0
_diffrn_reflns_limit_k_max       11
_diffrn_reflns_limit_k_min       0
_diffrn_reflns_limit_l_max       9
_diffrn_reflns_limit_l_min       0
_exptl_crystal_colour            blue
_exptl_crystal_density_diffrn    3.074
_pd_meas_2theta_range_inc        0.05
_pd_meas_2theta_range_max        150
_pd_meas_2theta_range_min        0
_pd_meas_number_of_points        3667
_pd_meas_scan_method             fixed
_pd_prep_pressure                101.325
_pd_prep_temperature             1223
_pd_proc_info_excluded_regions
'0.0 to 8 degrees unreliable due to background'
_pd_proc_ls_prof_R_factor        0.0505
_pd_proc_ls_prof_wR_factor       0.0674
_pd_proc_wavelength              1.38994
_pd_spec_mounting                ' packed powder in vanadium can'
_pd_spec_mount_mode              reflection
_pd_spec_shape                   cylinder
_refine_ls_goodness_of_fit_all   0.74
_refine_ls_matrix_type           full
_refine_ls_number_constraints    2
_refine_ls_number_parameters     35
_refine_ls_number_restraints     1
_refine_ls_weighting_scheme      sigma
_cod_data_source_file            ic201673r_si_001_6.cif
_cod_data_source_block           Ca10(SiO4)3(SO4)3Cl0.4F1.6
_cod_original_cell_volume        542.09(2)
_cod_database_code               4327130
loop_
_symmetry_equiv_pos_site_id
_symmetry_equiv_pos_as_xyz
1 x,y,z
2 -y,x-y,z
3 -x+y,-x,z
4 -x,-y,z+1/2
5 y,-x+y,z+1/2
6 x-y,x,z+1/2
7 -x,-y,-z
8 y,-x+y,-z
9 x-y,x,-z
10 x,y,-z+1/2
11 -y,x-y,-z+1/2
12 -x+y,-x,-z+1/2
loop_
_atom_site_label
_atom_site_type_symbol
_atom_site_symmetry_multiplicity
_atom_site_Wyckoff_symbol
_atom_site_fract_x
_atom_site_fract_y
_atom_site_fract_z
_atom_site_occupancy
_atom_site_attached_hydrogens
_atom_site_B_iso_or_equiv
Ca1 Ca 4 f 0.3333 0.6667 0.0028(4) 1.0 0 1.52(7)
Ca2 Ca 6 h 0.2420(3) -0.0094(3) 0.25 1.0 0 1.52(7)
S1 S 6 h 0.3996(1) 0.3706(1) 0.25 0.5 0 1.52(4)
Si1 Si 6 h 0.3996(1) 0.3706(1) 0.25 0.5 0 1.52(4)
O1 O 6 h 0.3302(4) 0.4870(3) 0.25 1. 0 1.52(4)
O2 O 6 h 0.58724(8) 0.4660(3) 0.25 1. 0 1.52(4)
O3 O 12 i 0.3426(3) 0.2587(2) 0.0712(2) 1. 0 1.52(4)
Cl1 Cl 4 e 0 0 0.336(3) 0.10 0 1.52(7)
F1 F 2 a 0 0 0.25 0.80 0 1.52(7)
loop_
_atom_type_symbol
_atom_type_scat_length_neutron
_atom_type_scat_source
Ca 4.700 International_Tables_Vol_C
Cl 9.577 International_Tables_Vol_C
F 5.654 International_Tables_Vol_C
O 5.803 International_Tables_Vol_C
S 2.847 International_Tables_Vol_C
Si 4.149 International_Tables_Vol_C
loop_
_geom_angle_atom_site_label_1
_geom_angle_atom_site_label_2
_geom_angle_atom_site_label_3
_geom_angle
_geom_angle_site_symmetry_3
O1 S1 O2 111.13(15) .
O1 S1 O3 111.43(12) .
O2 S1 O3 107.99(12) .
O3 S1 O3 106.67(9) 10_555
O1 Si1 O2 111.13(15) .
O1 Si1 O3 111.43(12) .
O2 Si1 O3 107.99(12) .
O3 Si1 O3 106.67(9) 10_555
loop_
_geom_bond_atom_site_label_1
_geom_bond_atom_site_label_2
_geom_bond_distance
_geom_bond_site_symmetry_2
Ca1 O1 2.408(2) .
Ca1 O1 2.4081(18) 2_665
Ca1 O1 2.408(3) 3_565
Ca1 O2 2.484(4) 4_664
Ca1 O2 2.484(4) 5_564
Ca1 O2 2.484(3) 6_554
Ca1 O3 2.841(3) 7_665
Ca1 O3 2.841(4) 8_565
Ca1 O3 2.841(2) 9_555
Ca2 O1 2.736(3) 3_555
Ca2 O2 2.408(3) 2_655
Ca2 O3 2.5501(19) .
Ca2 O3 2.3644(18) 5_555
Ca2 O3 2.3644(18) 8_555
Ca2 O3 2.5501(19) 10_555
S1 O1 1.546(4) .
S1 O2 1.5451(7) .
S1 O3 1.5435(16) .
S1 O3 1.5435(16) 10_555
Si1 O1 1.546(4) .
Si1 O2 1.5451(7) .
Si1 O3 1.5435(16) .
Si1 O3 1.5435(16) 10_555
F1 Ca2 2.346(4) .
F1 Ca2 2.346(4) 2_555
F1 Ca2 2.346(4) 3_555
Cl1 Ca2 2.421(4) .
Cl1 Ca2 2.4211(4) 2_555
Cl1 Ca2 2.4211(4) 3_555
