#------------------------------------------------------------------------------
#$Date: 2016-02-14 06:40:26 +0200 (Sun, 14 Feb 2016) $
#$Revision: 176432 $
#$URL: svn://www.crystallography.net/cod/cif/4/32/87/4328786.cif $
#------------------------------------------------------------------------------
#
# This file is available in the Crystallography Open Database (COD),
# http://www.crystallography.net/
#
# All data on this site have been placed in the public domain by the
# contributors.
#
data_4328786
loop_
_publ_author_name
'John H. Roudebush'
'Naohito Tsujii'
'Antonio Hurtando'
'H\%akon Hope'
'Yuri Grin'
'Susan M. Kauzlarich'
_publ_section_title
;
 Phase Range of the Type-I Clathrate Sr8AlxSi46-x and Crystal Structure of
 Sr8Al10Si36
;
_journal_name_full               'Inorganic Chemistry'
_journal_page_first              4161
_journal_page_last               4169
_journal_paper_doi               10.1021/ic2024814
_journal_volume                  51
_journal_year                    2012
_chemical_formula_sum            'Al9.98 Ba7.96 Si35.95'
_chemical_formula_weight         2377.06
_chemical_name_systematic
; 
 ? 
;
_space_group_IT_number           223
_symmetry_cell_setting           cubic
_symmetry_space_group_name_Hall  '-P 4n 2 3'
_symmetry_space_group_name_H-M   'P m -3 n'
_atom_sites_solution_primary     direct
_atom_sites_solution_secondary   difmap
_audit_creation_method           SHELXL-97
_cell_angle_alpha                90.00
_cell_angle_beta                 90.00
_cell_angle_gamma                90.00
_cell_formula_units_Z            1
_cell_length_a                   10.51480(10)
_cell_length_b                   10.51480(10)
_cell_length_c                   10.51480(10)
_cell_measurement_reflns_used    15519
_cell_measurement_temperature    90
_cell_measurement_theta_max      52.01
_cell_measurement_theta_min      2.74
_cell_volume                     1162.527(19)
_computing_structure_refinement  'SHELXL-97 (Sheldrick, 2008)'
_computing_structure_solution    'SHELXS-97 (Sheldrick, 2008)'
_diffrn_ambient_temperature      90
_diffrn_measured_fraction_theta_full 1.000
_diffrn_measured_fraction_theta_max 1.000
_diffrn_measurement_device_type  'Bruker Apex II'
_diffrn_radiation_monochromator  graphite
_diffrn_radiation_source         'fine-focus sealed tube'
_diffrn_radiation_type           MoK\a
_diffrn_radiation_wavelength     0.71073
_diffrn_reflns_av_R_equivalents  0.0000
_diffrn_reflns_av_sigmaI/netI    0.0321
_diffrn_reflns_limit_h_max       22
_diffrn_reflns_limit_h_min       -20
_diffrn_reflns_limit_k_max       18
_diffrn_reflns_limit_k_min       -20
_diffrn_reflns_limit_l_max       20
_diffrn_reflns_limit_l_min       -22
_diffrn_reflns_number            30266
_diffrn_reflns_theta_full        49.09
_diffrn_reflns_theta_max         49.09
_diffrn_reflns_theta_min         2.74
_exptl_absorpt_coefficient_mu    7.796
_exptl_absorpt_correction_T_max  0.4522
_exptl_absorpt_correction_T_min  0.3595
_exptl_absorpt_correction_type   empirical
_exptl_absorpt_process_details   '(Sheldrick, G. M. SADABS; 1999.)'
_exptl_crystal_colour            Silver
_exptl_crystal_density_diffrn    3.395
_exptl_crystal_description       Block
_exptl_crystal_F_000             1081
_exptl_crystal_size_max          0.165
_exptl_crystal_size_mid          0.127
_exptl_crystal_size_min          0.121
_refine_diff_density_max         0.495
_refine_diff_density_min         -0.942
_refine_diff_density_rms         0.173
_refine_ls_extinction_method     none
_refine_ls_goodness_of_fit_ref   1.067
_refine_ls_matrix_type           full
_refine_ls_number_parameters     19
_refine_ls_number_reflns         30266
_refine_ls_number_restraints     1
_refine_ls_restrained_S_all      1.067
_refine_ls_R_factor_all          0.0309
_refine_ls_R_factor_gt           0.0234
_refine_ls_shift/su_max          0.013
_refine_ls_shift/su_mean         0.003
_refine_ls_structure_factor_coef Fsqd
_refine_ls_weighting_details
'calc w=1/[\s^2^(Fo^2^)+(0.0094P)^2^+0.0000P] where P=(Fo^2^+2Fc^2^)/3'
_refine_ls_weighting_scheme      calc
_refine_ls_wR_factor_gt          0.0463
_refine_ls_wR_factor_ref         0.0484
_reflns_number_gt                25315
_reflns_number_total             30266
_reflns_threshold_expression     >2sigma(I)
_cod_data_source_file            ic2024814_si_002_2.cif
_cod_data_source_block           jhr214
_cod_original_sg_symbol_Hall     -P4n23
_cod_database_code               4328786
loop_
_symmetry_equiv_pos_as_xyz
'x, y, z'
'-x, -y, z'
'-x, y, -z'
'x, -y, -z'
'z, x, y'
'z, -x, -y'
'-z, -x, y'
'-z, x, -y'
'y, z, x'
'-y, z, -x'
'y, -z, -x'
'-y, -z, x'
'y+1/2, x+1/2, -z+1/2'
'-y+1/2, -x+1/2, -z+1/2'
'y+1/2, -x+1/2, z+1/2'
'-y+1/2, x+1/2, z+1/2'
'x+1/2, z+1/2, -y+1/2'
'-x+1/2, z+1/2, y+1/2'
'-x+1/2, -z+1/2, -y+1/2'
'x+1/2, -z+1/2, y+1/2'
'z+1/2, y+1/2, -x+1/2'
'z+1/2, -y+1/2, x+1/2'
'-z+1/2, y+1/2, x+1/2'
'-z+1/2, -y+1/2, -x+1/2'
'-x, -y, -z'
'x, y, -z'
'x, -y, z'
'-x, y, z'
'-z, -x, -y'
'-z, x, y'
'z, x, -y'
'z, -x, y'
'-y, -z, -x'
'y, -z, x'
'-y, z, x'
'y, z, -x'
'-y-1/2, -x-1/2, z-1/2'
'y-1/2, x-1/2, z-1/2'
'-y-1/2, x-1/2, -z-1/2'
'y-1/2, -x-1/2, -z-1/2'
'-x-1/2, -z-1/2, y-1/2'
'x-1/2, -z-1/2, -y-1/2'
'x-1/2, z-1/2, y-1/2'
'-x-1/2, z-1/2, -y-1/2'
'-z-1/2, -y-1/2, x-1/2'
'-z-1/2, y-1/2, -x-1/2'
'z-1/2, -y-1/2, -x-1/2'
'z-1/2, y-1/2, x-1/2'
loop_
_atom_site_label
_atom_site_type_symbol
_atom_site_fract_x
_atom_site_fract_y
_atom_site_fract_z
_atom_site_U_iso_or_equiv
_atom_site_adp_type
_atom_site_occupancy
_atom_site_symmetry_multiplicity
_atom_site_calc_flag
_atom_site_refinement_flags
Ba1 Ba 0.0000 0.0000 0.0000 0.00420(1) Uiso 0.9868(7) 24 d SP
Ba2 Ba 0.2500 0.5000 0.0000 0.00875(1) Uani 0.9982(6) 8 d SP
Si3 Si 0.0000 0.303638(9) 0.116016(9) 0.00583(2) Uani 0.941(5) 2 d SP
Al3 Al 0.0000 0.303638(9) 0.116016(9) 0.00583(2) Uani 0.059(5) 2 d SP
Si4 Si 0.184739(6) 0.184739(6) 0.184739(6) 0.00570(3) Uiso 0.836(8) 3 d SP
Al4 Al 0.184739(6) 0.184739(6) 0.184739(6) 0.00570(3) Uiso 0.164(8) 3 d SP
Al5 Al 0.2500 0.0000 0.5000 0.00487(5) Uani 0.9889(17) 8 d SP
loop_
_atom_site_aniso_label
_atom_site_aniso_U_11
_atom_site_aniso_U_22
_atom_site_aniso_U_33
_atom_site_aniso_U_23
_atom_site_aniso_U_13
_atom_site_aniso_U_12
Ba2 0.00569(1) 0.01028(1) 0.01028(1) 0.000 0.000 0.000
Si3 0.00651(4) 0.00497(4) 0.00601(4) -0.00061(2) 0.000 0.000
Al3 0.00651(4) 0.00497(4) 0.00601(4) -0.00061(2) 0.000 0.000
Al5 0.00484(8) 0.00489(6) 0.00489(6) 0.000 0.000 0.000
loop_
_atom_type_symbol
_atom_type_description
_atom_type_scat_dispersion_real
_atom_type_scat_dispersion_imag
_atom_type_scat_source
Al Al 0.0645 0.0514 'International Tables Vol C Tables 4.2.6.8 and 6.1.1.4'
Si Si 0.0817 0.0704 'International Tables Vol C Tables 4.2.6.8 and 6.1.1.4'
Ba Ba -0.3244 2.2819 'International Tables Vol C Tables 4.2.6.8 and 6.1.1.4'
loop_
_geom_angle_atom_site_label_1
_geom_angle_atom_site_label_2
_geom_angle_atom_site_label_3
_geom_angle
_geom_angle_site_symmetry_1
_geom_angle_site_symmetry_3
Al4 Ba1 Al4 109.5 25 28
Si4 Ba1 Al4 109.5 25 28
Al4 Ba1 Al4 70.5 25 4
Si4 Ba1 Al4 70.5 25 4
Al4 Ba1 Al4 180.000(4) 28 4
Al4 Ba1 Al4 109.5 25 27
Si4 Ba1 Al4 109.5 25 27
Al4 Ba1 Al4 109.5 28 27
Al4 Ba1 Al4 70.5 4 27
Al4 Ba1 Al4 70.5 25 3
Si4 Ba1 Al4 70.5 25 3
Al4 Ba1 Al4 70.5 28 3
Al4 Ba1 Al4 109.5 4 3
Al4 Ba1 Al4 180.000(6) 27 3
Al4 Ba1 Si4 109.5 25 28
Si4 Ba1 Si4 109.5 25 28
Al4 Ba1 Si4 180.000(4) 4 28
Al4 Ba1 Si4 109.5 27 28
Al4 Ba1 Si4 70.5 3 28
Al4 Ba1 Si4 70.5 25 4
Si4 Ba1 Si4 70.5 25 4
Al4 Ba1 Si4 180.000(4) 28 4
Al4 Ba1 Si4 70.5 27 4
Al4 Ba1 Si4 109.5 3 4
Si4 Ba1 Si4 180.000(4) 28 4
Al4 Ba1 Si4 109.5 25 27
Si4 Ba1 Si4 109.5 25 27
Al4 Ba1 Si4 109.5 28 27
Al4 Ba1 Si4 70.5 4 27
Al4 Ba1 Si4 180.000(6) 3 27
Si4 Ba1 Si4 109.5 28 27
Si4 Ba1 Si4 70.5 4 27
Al4 Ba1 Si4 70.5 25 3
Si4 Ba1 Si4 70.5 25 3
Al4 Ba1 Si4 70.5 28 3
Al4 Ba1 Si4 109.5 4 3
Al4 Ba1 Si4 180.000(6) 27 3
Si4 Ba1 Si4 70.5 28 3
Si4 Ba1 Si4 109.5 4 3
Si4 Ba1 Si4 180.000(6) 27 3
Al4 Ba1 Al4 109.5 25 26
Si4 Ba1 Al4 109.5 25 26
Al4 Ba1 Al4 109.5 28 26
Al4 Ba1 Al4 70.5 4 26
Al4 Ba1 Al4 109.5 27 26
Al4 Ba1 Al4 70.5 3 26
Si4 Ba1 Al4 109.5 28 26
Si4 Ba1 Al4 70.5 4 26
Si4 Ba1 Al4 109.5 27 26
Si4 Ba1 Al4 70.5 3 26
Al4 Ba1 Al4 70.5 25 2
Si4 Ba1 Al4 70.5 25 2
Al4 Ba1 Al4 70.5 28 2
Al4 Ba1 Al4 109.5 4 2
Al4 Ba1 Al4 70.5 27 2
Al4 Ba1 Al4 109.5 3 2
Si4 Ba1 Al4 70.5 28 2
Si4 Ba1 Al4 109.5 4 2
Si4 Ba1 Al4 70.5 27 2
Si4 Ba1 Al4 109.5 3 2
Al4 Ba1 Al4 180.000(6) 26 2
Si3 Ba2 Al3 123.076(1) . 17
Si3 Ba2 Si3 123.076(1) . 17
Si3 Ba2 Al3 40.098(3) . 26
Al3 Ba2 Al3 160.669(3) 17 26
Si3 Ba2 Al3 160.669(3) 17 26
Si3 Ba2 Si3 40.098(3) . 26
Al3 Ba2 Si3 160.669(3) 17 26
Si3 Ba2 Si3 160.669(3) 17 26
Si3 Ba2 Al3 98.506(2) . 42_666
Al3 Ba2 Al3 40.098(3) 17 42_666
Si3 Ba2 Al3 40.098(3) 17 42_666
Al3 Ba2 Al3 123.077(1) 26 42_666
Si3 Ba2 Al3 123.077(1) 26 42_666
Si3 Ba2 Si3 98.506(2) . 42_666
Al3 Ba2 Si3 40.098(3) 17 42_666
Si3 Ba2 Si3 40.098(3) 17 42_666
Al3 Ba2 Si3 123.077(1) 26 42_666
Si3 Ba2 Si3 123.077(1) 26 42_666
Si3 Ba2 Al3 160.669(3) . 18_554
Al3 Ba2 Al3 70.939(3) 17 18_554
Si3 Ba2 Al3 70.939(3) 17 18_554
Al3 Ba2 Al3 123.077(1) 26 18_554
Si3 Ba2 Al3 123.077(1) 26 18_554
Al3 Ba2 Al3 84.748(2) 42_666 18_554
Si3 Ba2 Al3 84.748(2) 42_666 18_554
Si3 Ba2 Si3 160.669(3) . 18_554
Al3 Ba2 Si3 70.939(3) 17 18_554
Si3 Ba2 Si3 70.939(3) 17 18_554
Al3 Ba2 Si3 123.077(1) 26 18_554
Si3 Ba2 Si3 123.077(1) 26 18_554
Al3 Ba2 Si3 84.748(2) 42_666 18_554
Si3 Ba2 Si3 84.748(2) 42_666 18_554
Si3 Ba2 Si3 84.748(2) . 25_565
Al3 Ba2 Si3 123.077(1) 17 25_565
Si3 Ba2 Si3 123.077(1) 17 25_565
Al3 Ba2 Si3 70.939(3) 26 25_565
Si3 Ba2 Si3 70.939(3) 26 25_565
Al3 Ba2 Si3 160.668(3) 42_666 25_565
Si3 Ba2 Si3 160.668(3) 42_666 25_565
Al3 Ba2 Si3 98.506(2) 18_554 25_565
Si3 Ba2 Si3 98.506(2) 18_554 25_565
Si3 Ba2 Al3 84.748(2) . 25_565
Al3 Ba2 Al3 123.077(1) 17 25_565
Si3 Ba2 Al3 123.077(1) 17 25_565
Al3 Ba2 Al3 70.939(3) 26 25_565
Si3 Ba2 Al3 70.939(3) 26 25_565
Al3 Ba2 Al3 160.668(3) 42_666 25_565
Si3 Ba2 Al3 160.668(3) 42_666 25_565
Al3 Ba2 Al3 98.506(2) 18_554 25_565
Si3 Ba2 Al3 98.506(2) 18_554 25_565
Al4 Si3 Si4 106.747(5) 28 .
Si4 Si3 Si4 106.747(5) 28 .
Al4 Si3 Al3 107.370(3) 28 26
Si4 Si3 Al3 107.370(3) 28 26
Si4 Si3 Al3 107.370(3) . 26
Al4 Si3 Si3 107.370(3) 28 26
Si4 Si3 Si3 107.370(3) 28 26
Si4 Si3 Si3 107.370(3) . 26
Al4 Si3 Al5 104.975(4) 28 9
Si4 Si3 Al5 104.975(4) 28 9
Si4 Si3 Al5 104.975(4) . 9
Al3 Si3 Al5 124.308(2) 26 9
Si3 Si3 Al5 124.308(2) 26 9
Al4 Si3 Ba1 67.917(3) 28 .
Si4 Si3 Ba1 67.917(3) 28 .
Si4 Si3 Ba1 67.918(3) . .
Al3 Si3 Ba1 69.088(2) 26 .
Si3 Si3 Ba1 69.088(2) 26 .
Al5 Si3 Ba1 166.604(4) 9 .
Al4 Si3 Ba2 174.242(3) 28 .
Si4 Si3 Ba2 174.242(3) 28 .
Si4 Si3 Ba2 78.999(2) . .
Al3 Si3 Ba2 69.951(1) 26 .
Si3 Si3 Ba2 69.951(1) 26 .
Al5 Si3 Ba2 73.376(2) 9 .
Ba1 Si3 Ba2 114.814(2) . .
Al4 Si3 Ba2 79.000(2) 28 25_565
Si4 Si3 Ba2 79.000(2) 28 25_565
Si4 Si3 Ba2 174.242(3) . 25_565
Al3 Si3 Ba2 69.951(1) 26 25_565
Si3 Si3 Ba2 69.951(1) 26 25_565
Al5 Si3 Ba2 73.377(2) 9 25_565
Ba1 Si3 Ba2 114.814(2) . 25_565
Ba2 Si3 Ba2 95.252(2) . 25_565
Al4 Si4 Al3 109.726(3) 14 5
Si4 Si4 Al3 109.726(3) 14 5
Al4 Si4 Si3 109.726(3) 14 5
Si4 Si4 Si3 109.726(3) 14 5
Al4 Si4 Al3 109.726(3) 14 9
Si4 Si4 Al3 109.726(3) 14 9
Al3 Si4 Al3 109.215(3) 5 9
Si3 Si4 Al3 109.215(3) 5 9
Al4 Si4 Si3 109.726(3) 14 9
Si4 Si4 Si3 109.726(3) 14 9
Al3 Si4 Si3 109.215(3) 5 9
Si3 Si4 Si3 109.215(3) 5 9
Al4 Si4 Si3 109.725(3) 14 .
Si4 Si4 Si3 109.725(3) 14 .
Al3 Si4 Si3 109.216(3) 5 .
Si3 Si4 Si3 109.216(3) 5 .
Al3 Si4 Si3 109.216(3) 9 .
Si3 Si4 Si3 109.216(3) 9 .
Al4 Si4 Ba1 180.000(8) 14 .
Si4 Si4 Ba1 180.000(8) 14 .
Al3 Si4 Ba1 70.274(3) 5 .
Si3 Si4 Ba1 70.274(3) 5 .
Al3 Si4 Ba1 70.274(3) 9 .
Si3 Si4 Ba1 70.274(3) 9 .
Si3 Si4 Ba1 70.275(3) . .
Al3 Al5 Al3 108.523(2) 45_666 5
Al3 Al5 Si3 108.523(2) 5 45_666
Al3 Al5 Si3 108.523(2) 45_666 5
Si3 Al5 Si3 108.523(2) 45_666 5
Al3 Al5 Al3 108.523(2) 45_666 6_556
Al3 Al5 Al3 111.386(4) 5 6_556
Si3 Al5 Al3 108.523(2) 45_666 6_556
Si3 Al5 Al3 111.386(4) 5 6_556
Al3 Al5 Si3 108.523(2) 45_666 6_556
Al3 Al5 Si3 111.386(4) 5 6_556
Si3 Al5 Si3 108.523(2) 45_666 6_556
Si3 Al5 Si3 111.386(4) 5 6_556
Al3 Al5 Al3 111.386(4) 45_666 46_656
Al3 Al5 Al3 108.523(2) 5 46_656
Si3 Al5 Al3 111.386(4) 45_666 46_656
Si3 Al5 Al3 108.523(2) 5 46_656
Al3 Al5 Al3 108.523(2) 6_556 46_656
Si3 Al5 Al3 108.523(2) 6_556 46_656
Al3 Al5 Si3 111.386(4) 45_666 46_656
Al3 Al5 Si3 108.523(2) 5 46_656
Si3 Al5 Si3 111.386(4) 45_666 46_656
Si3 Al5 Si3 108.523(2) 5 46_656
Al3 Al5 Si3 108.523(2) 6_556 46_656
Si3 Al5 Si3 108.523(2) 6_556 46_656
Al3 Al5 Ba2 66.513(1) 45_666 33_656
Al3 Al5 Ba2 169.307(2) 5 33_656
Si3 Al5 Ba2 66.513(1) 45_666 33_656
Si3 Al5 Ba2 169.307(2) 5 33_656
Al3 Al5 Ba2 79.307(2) 6_556 33_656
Si3 Al5 Ba2 79.307(2) 6_556 33_656
Al3 Al5 Ba2 66.513(1) 46_656 33_656
Si3 Al5 Ba2 66.513(1) 46_656 33_656
Al3 Al5 Ba2 169.307(2) 45_666 29_556
Al3 Al5 Ba2 66.513(1) 5 29_556
Si3 Al5 Ba2 169.307(2) 45_666 29_556
Si3 Al5 Ba2 66.513(1) 5 29_556
Al3 Al5 Ba2 66.513(1) 6_556 29_556
Si3 Al5 Ba2 66.513(1) 6_556 29_556
Al3 Al5 Ba2 79.307(2) 46_656 29_556
Si3 Al5 Ba2 79.307(2) 46_656 29_556
Ba2 Al5 Ba2 120.0 33_656 29_556
Al3 Al5 Ba2 66.513(1) 45_666 9
Al3 Al5 Ba2 79.307(2) 5 9
Si3 Al5 Ba2 66.513(1) 45_666 9
Si3 Al5 Ba2 79.307(2) 5 9
Al3 Al5 Ba2 169.307(2) 6_556 9
Si3 Al5 Ba2 169.307(2) 6_556 9
Al3 Al5 Ba2 66.513(1) 46_656 9
Si3 Al5 Ba2 66.513(1) 46_656 9
Ba2 Al5 Ba2 90.0 33_656 9
Ba2 Al5 Ba2 120.0 29_556 9
Al3 Al5 Ba2 79.307(2) 45_666 5
Al3 Al5 Ba2 66.513(1) 5 5
Si3 Al5 Ba2 79.307(2) 45_666 5
Si3 Al5 Ba2 66.513(1) 5 5
Al3 Al5 Ba2 66.513(1) 6_556 5
Si3 Al5 Ba2 66.513(1) 6_556 5
Al3 Al5 Ba2 169.307(2) 46_656 5
Si3 Al5 Ba2 169.307(2) 46_656 5
Ba2 Al5 Ba2 120.0 33_656 5
Ba2 Al5 Ba2 90.0 29_556 5
Ba2 Al5 Ba2 120.0 9 5
loop_
_geom_bond_atom_site_label_1
_geom_bond_atom_site_label_2
_geom_bond_distance
_geom_bond_site_symmetry_2
Ba1 Al4 3.36448(12) 25
Ba1 Si4 3.36448(12) 25
Ba1 Al4 3.36448(12) 28
Ba1 Al4 3.36448(12) 4
Ba1 Al4 3.36448(12) 27
Ba1 Al4 3.36448(12) 3
Ba1 Si4 3.36448(12) 28
Ba1 Si4 3.36448(12) 4
Ba1 Si4 3.36448(12) 27
Ba1 Si4 3.36448(12) 3
Ba1 Al4 3.36448(12) 26
Ba1 Al4 3.36448(12) 2
Ba2 Si3 3.5583 .
Ba2 Al3 3.5583 17
Ba2 Si3 3.5583 17
Ba2 Al3 3.5583 26
Ba2 Si3 3.5583 26
Ba2 Al3 3.5583 42_666
Ba2 Si3 3.5583 42_666
Ba2 Al3 3.5583 18_554
Ba2 Si3 3.5583 18_554
Ba2 Si3 3.5583 25_565
Ba2 Al3 3.5583 25_565
Si3 Al4 2.4204 28
Si3 Si4 2.4204 28
Si3 Si4 2.4204 .
Si3 Al3 2.43973(19) 26
Si3 Si3 2.43973(19) 26
Si3 Al5 2.4996 9
Si3 Ba2 3.5583 25_565
Si4 Al4 2.3771(2) 14
Si4 Si4 2.3771(2) 14
Si4 Al3 2.4204 5
Si4 Si3 2.4204 5
Si4 Al3 2.4204 9
Si4 Si3 2.4204 9
Al5 Al3 2.4996 45_666
Al5 Al3 2.4996 5
Al5 Si3 2.4996 45_666
Al5 Si3 2.4996 5
Al5 Al3 2.4996 6_556
Al5 Si3 2.4996 6_556
Al5 Al3 2.4996 46_656
Al5 Si3 2.4996 46_656
Al5 Ba2 3.7175 33_656
Al5 Ba2 3.7175 29_556
Al5 Ba2 3.7175 9
Al5 Ba2 3.7175 5
