#------------------------------------------------------------------------------
#$Date: 2016-02-16 22:30:59 +0200 (Tue, 16 Feb 2016) $
#$Revision: 176467 $
#$URL: svn://www.crystallography.net/cod/cif/4/32/86/4328659.cif $
#------------------------------------------------------------------------------
#
# This file is available in the Crystallography Open Database (COD),
# http://www.crystallography.net/
#
# All data on this site have been placed in the public domain by the
# contributors.
#
data_4328659
loop_
_publ_author_name
'L. Choubrac'
'A. Lafond'
'C. Guillot-Deudon'
'Y. Mo\"elo'
'S. Jobic'
_publ_section_title
;
 Structure Flexibility of the Cu2ZnSnS4 Absorber in Low-Cost Photovoltaic
 Cells: From the Stoichiometric to the Copper-Poor Compounds
;
_journal_name_full               'Inorganic Chemistry'
_journal_page_first              3346
_journal_page_last               3348
_journal_paper_doi               10.1021/ic202569q
_journal_volume                  51
_journal_year                    2012
_chemical_formula_sum            'Cu1.885 S4 Sn Zn1.058'
_chemical_formula_weight         435.9
_space_group_IT_number           82
_symmetry_cell_setting           tetragonal
_symmetry_Int_Tables_number      82
_symmetry_space_group_name_Hall  'I -4'
_symmetry_space_group_name_H-M   'I -4'
_cell_angle_alpha                90
_cell_angle_beta                 90
_cell_angle_gamma                90
_cell_formula_units_Z            2
_cell_length_a                   5.43440(10)
_cell_length_b                   5.43440(10)
_cell_length_c                   10.8337(2)
_cell_measurement_temperature    293
_cell_volume                     319.948(10)
_computing_cell_refinement       unknown
_computing_data_collection       unknown
_computing_data_reduction        unknown
_computing_molecular_graphics    unknown
_computing_structure_solution    unknown
_diffrn_ambient_temperature      293
_diffrn_measured_fraction_theta_full 0.99
_diffrn_measured_fraction_theta_max 0.99
_diffrn_measurement_device       'four-cycle diffractometer'
_diffrn_measurement_device_type  'Nonius CCD'
_diffrn_measurement_method       'phi, omega'
_diffrn_radiation_monochromator  graphite
_diffrn_radiation_source         'X-ray tube'
_diffrn_radiation_type           'Mo K\a'
_diffrn_radiation_wavelength     0.71069
_diffrn_reflns_av_R_equivalents  0.0446
_diffrn_reflns_av_sigmaI/netI    0.0175
_diffrn_reflns_limit_h_max       8
_diffrn_reflns_limit_h_min       -8
_diffrn_reflns_limit_k_max       7
_diffrn_reflns_limit_k_min       -8
_diffrn_reflns_limit_l_max       15
_diffrn_reflns_limit_l_min       -17
_diffrn_reflns_number            2071
_diffrn_reflns_theta_full        34.81
_diffrn_reflns_theta_max         34.81
_diffrn_reflns_theta_min         6.51
_exptl_absorpt_coefficient_mu    15.113
_exptl_absorpt_correction_T_max  0.7117
_exptl_absorpt_correction_T_min  0.4105
_exptl_absorpt_correction_type   gaussian
_exptl_absorpt_process_details
'Jana2006  (Petricek, Dusek & Palatinus, 2000)'
_exptl_crystal_colour            black
_exptl_crystal_density_diffrn    4.524
_exptl_crystal_description       block
_exptl_crystal_F_000             401
_exptl_crystal_size_max          0.052
_exptl_crystal_size_mid          0.051
_exptl_crystal_size_min          0.033
_refine_diff_density_max         0.78
_refine_diff_density_min         -0.64
_refine_ls_extinction_coef       3460(190)
_refine_ls_extinction_method
'B-C type 1 gaussian isotropic (Becker & Coppens, 1974)'
_refine_ls_goodness_of_fit_gt    1.14
_refine_ls_goodness_of_fit_ref   1.16
_refine_ls_number_constraints    2
_refine_ls_number_parameters     20
_refine_ls_number_reflns         687
_refine_ls_number_restraints     0
_refine_ls_R_factor_all          0.0312
_refine_ls_R_factor_gt           0.0284
_refine_ls_shift/su_max          0.0051
_refine_ls_shift/su_mean         0.0009
_refine_ls_structure_factor_coef Fsqd
_refine_ls_weighting_details     w=1/(\s^2^(I)+0.001936I^2^)
_refine_ls_weighting_scheme      sigma
_refine_ls_wR_factor_gt          0.0734
_refine_ls_wR_factor_ref         0.0762
_reflns_number_gt                668
_reflns_number_total             687
_reflns_threshold_expression     I>2\s(I)
_cod_data_source_file            ic202569q_si_003.cif
_cod_data_source_block           I
_cod_depositor_comments          'Adding Fobs data.'
_cod_original_formula_sum        'Cu1.885 S4 Sn1 Zn1.058'
_cod_database_code               4328659
_cod_database_fobs_code          4328659
loop_
_symmetry_equiv_pos_site_id
_symmetry_equiv_pos_as_xyz
1 x,y,z
2 -x,-y,z
3 y,-x,-z
4 -y,x,-z
5 x+1/2,y+1/2,z+1/2
6 -x+1/2,-y+1/2,z+1/2
7 y+1/2,-x+1/2,-z+1/2
8 -y+1/2,x+1/2,-z+1/2
loop_
_atom_site_label
_atom_site_type_symbol
_atom_site_fract_x
_atom_site_fract_y
_atom_site_fract_z
_atom_site_adp_type
_atom_site_U_iso_or_equiv
_atom_site_symmetry_multiplicity
_atom_site_occupancy
_atom_site_calc_flag
Cu_2a Cu 0 0 0 Uani 0.01876(19) 2 0.942(4) d
Cu_2c Cu 0 0.5 0.25 Uani 0.0159(5) 2 0.942(4) d
Zn_2c Zn 0 0.5 0.25 Uani 0.0159(5) 2 0.058(4) d
Zn_2d Zn 0 0.5 0.75 Uani 0.0177(5) 2 1 d
Sn_2b Sn 0 0 0.5 Uani 0.01132(9) 2 1 d
S S 0.2438(2) 0.2437(2) 0.12773(7) Uani 0.0109(2) 8 1 d
loop_
_atom_site_aniso_label
_atom_site_aniso_type_symbol
_atom_site_aniso_U_11
_atom_site_aniso_U_22
_atom_site_aniso_U_33
_atom_site_aniso_U_12
_atom_site_aniso_U_13
_atom_site_aniso_U_23
Cu_2a Cu 0.0192(3) 0.0192(3) 0.0180(4) 0 0 0
Cu_2c Cu 0.0154(8) 0.0154(8) 0.0167(11) 0 0 0
Zn_2c Zn 0.0154(8) 0.0154(8) 0.0167(11) 0 0 0
Zn_2d Zn 0.0183(8) 0.0183(8) 0.0166(11) 0 0 0
Sn_2b Sn 0.01166(15) 0.01166(15) 0.01064(17) 0 0 0
S S 0.0106(4) 0.0112(3) 0.0110(4) -0.0004(2) 0.0006(2) 0.0009(2)
loop_
_atom_type_symbol
_atom_type_scat_dispersion_real
_atom_type_scat_dispersion_imag
_atom_type_scat_source
Cu 0.3201 1.2651 'International Tables Vol C tables 4.2.6.8 and 6.1.1.1'
Zn 0.2839 1.4301 'International Tables Vol C tables 4.2.6.8 and 6.1.1.1'
Sn -0.6537 1.4246 'International Tables Vol C tables 4.2.6.8 and 6.1.1.1'
S 0.1246 0.1234 'International Tables Vol C tables 4.2.6.8 and 6.1.1.1'
loop_
_geom_angle_atom_site_label_1
_geom_angle_atom_site_label_2
_geom_angle_atom_site_label_3
_geom_angle_site_symmetry_1
_geom_angle_site_symmetry_3
_geom_angle
S Cu_2a S . 2_555 107.10(3)
S Cu_2a S . 3_555 110.67(4)
S Cu_2a S . 4_555 110.67(4)
S Cu_2a S 2_555 3_555 110.67(4)
S Cu_2a S 2_555 4_555 110.67(4)
S Cu_2a S 3_555 4_555 107.10(3)
S Cu_2c S . 2_565 110.86(3)
S Cu_2c S . 7_455 108.78(4)
S Cu_2c S . 8_555 108.78(4)
S Cu_2c S 2_565 7_455 108.78(4)
S Cu_2c S 2_565 8_555 108.78(4)
S Cu_2c S 7_455 8_555 110.86(3)
S Zn_2c S . 2_565 110.86(3)
S Zn_2c S . 7_455 108.78(4)
S Zn_2c S . 8_555 108.78(4)
S Zn_2c S 2_565 7_455 108.78(4)
S Zn_2c S 2_565 8_555 108.78(4)
S Zn_2c S 7_455 8_555 110.86(3)
S Zn_2d S 5_455 6_555 110.84(3)
S Zn_2d S 5_455 3_566 108.79(4)
S Zn_2d S 5_455 4_556 108.79(4)
S Zn_2d S 6_555 3_566 108.79(4)
S Zn_2d S 6_555 4_556 108.79(4)
S Zn_2d S 3_566 4_556 110.84(3)
S Sn_2b S 5_445 6_555 109.82(3)
S Sn_2b S 5_445 7_455 109.30(4)
S Sn_2b S 5_445 8_545 109.30(4)
S Sn_2b S 6_555 7_455 109.30(4)
S Sn_2b S 6_555 8_545 109.30(4)
S Sn_2b S 7_455 8_545 109.82(3)
loop_
_geom_bond_atom_site_label_1
_geom_bond_atom_site_label_2
_geom_bond_site_symmetry_2
_geom_bond_distance
Cu_2a S . 2.3289(10)
Cu_2a S 2_555 2.3289(10)
Cu_2a S 3_555 2.3289(10)
Cu_2a S 4_555 2.3289(10)
Cu_2c S . 2.3346(11)
Cu_2c S 2_565 2.3346(11)
Cu_2c S 7_455 2.3346(11)
Cu_2c S 8_555 2.3346(11)
Zn_2c S . 2.3346(11)
Zn_2c S 2_565 2.3346(11)
Zn_2c S 7_455 2.3346(11)
Zn_2c S 8_555 2.3346(11)
Zn_2d S 5_455 2.3339(11)
Zn_2d S 6_555 2.3339(11)
Zn_2d S 3_566 2.3339(11)
Zn_2d S 4_556 2.3339(11)
Sn_2b S 5_445 2.4069(11)
Sn_2b S 6_555 2.4069(11)
Sn_2b S 7_455 2.4069(11)
Sn_2b S 8_545 2.4069(11)
