#------------------------------------------------------------------------------
#$Date: 2016-03-23 16:57:32 +0200 (Wed, 23 Mar 2016) $
#$Revision: 179401 $
#$URL: svn://www.crystallography.net/cod/cif/4/32/98/4329800.cif $
#------------------------------------------------------------------------------
#
# This file is available in the Crystallography Open Database (COD),
# http://www.crystallography.net/
#
# All data on this site have been placed in the public domain by the
# contributors.
#
data_4329800
loop_
_publ_author_name
'Lukasz A. Koscielski'
'Emilie Ringe'
'Richard P. Van Duyne'
'Donald E. Ellis'
'James A. Ibers'
_publ_contact_author_address
;
Department of Chemistry
Northwestern University
Evanston, IL 60208-3113
;
_publ_contact_author_email       ibers@chem.northwestern.edu
_publ_contact_author_fax         '1 847 491 2976'
_publ_contact_author_name        'James A. Ibers'
_publ_contact_author_phone       '1 847 491 5449'
_publ_section_title
;
 Single-Crystal Structures, Optical Absorptions, and Electronic
 Distributions of Thorium Oxychalcogenides ThOQ (Q = S, Se, Te)
;
_journal_name_full               'Inorganic Chemistry'
_journal_page_first              8112
_journal_page_last               8118
_journal_paper_doi               10.1021/ic300510x
_journal_volume                  51
_journal_year                    2012
_chemical_formula_moiety         'O Se Th'
_chemical_formula_sum            'O Se Th'
_chemical_formula_weight         327.00
_chemical_name_common            'thorium oxyselenide'
_chemical_name_systematic
; 
 thorium(IV) oxide selenide
;
_space_group_IT_number           129
_symmetry_cell_setting           tetragonal
_symmetry_space_group_name_Hall  '-P 4a 2a'
_symmetry_space_group_name_H-M   'P 4/n m m :2'
_atom_sites_solution_primary     direct
_atom_sites_solution_secondary   difmap
_audit_creation_method           SHELXL-97
_cell_angle_alpha                90.00
_cell_angle_beta                 90.00
_cell_angle_gamma                90.00
_cell_formula_units_Z            2
_cell_length_a                   4.0176(4)
_cell_length_b                   4.0176(4)
_cell_length_c                   7.0198(6)
_cell_measurement_reflns_used    1067
_cell_measurement_temperature    100(2)
_cell_measurement_theta_max      28.42
_cell_measurement_theta_min      2.90
_cell_volume                     113.307(19)
_computing_cell_refinement       'Bruker SAINT'
_computing_data_collection       'Bruker APEX2'
_computing_data_reduction        'Bruker SAINT'
_computing_molecular_graphics    'Bruker SHELXTL'
_computing_publication_material  'Bruker SHELXTL'
_computing_structure_refinement  'SHELXL-97 (Sheldrick, 2008a)'
_computing_structure_solution    'SHELXS-97 (Sheldrick, 2008a)'
_diffrn_ambient_temperature      100(2)
_diffrn_measured_fraction_theta_full 0.982
_diffrn_measured_fraction_theta_max 0.982
_diffrn_measurement_device_type  'Bruker APEX-II CCD'
_diffrn_measurement_method       '\f and \w scans'
_diffrn_radiation_monochromator  graphite
_diffrn_radiation_source         'fine-focus sealed tube'
_diffrn_radiation_type           MoK\a
_diffrn_radiation_wavelength     0.71073
_diffrn_reflns_av_R_equivalents  0.0336
_diffrn_reflns_av_sigmaI/netI    0.0166
_diffrn_reflns_limit_h_max       5
_diffrn_reflns_limit_h_min       -5
_diffrn_reflns_limit_k_max       5
_diffrn_reflns_limit_k_min       -5
_diffrn_reflns_limit_l_max       9
_diffrn_reflns_limit_l_min       -9
_diffrn_reflns_number            1267
_diffrn_reflns_theta_full        28.47
_diffrn_reflns_theta_max         28.47
_diffrn_reflns_theta_min         2.90
_exptl_absorpt_coefficient_mu    81.447
_exptl_absorpt_correction_T_max  0.2747
_exptl_absorpt_correction_T_min  0.0220
_exptl_absorpt_correction_type   numerical
_exptl_absorpt_process_details   'face indexed, SADABS (Sheldrick, 2008b)'
_exptl_crystal_colour            orange
_exptl_crystal_density_diffrn    9.584
_exptl_crystal_description       'square plate'
_exptl_crystal_F_000             264
_exptl_crystal_size_max          0.152
_exptl_crystal_size_mid          0.109
_exptl_crystal_size_min          0.019
_refine_diff_density_max         2.904
_refine_diff_density_min         -2.255
_refine_diff_density_rms         0.546
_refine_ls_extinction_coef       0.013(2)
_refine_ls_extinction_expression Fc^*^=kFc[1+0.001xFc^2^\l^3^/sin(2\q)]^-1/4^
_refine_ls_extinction_method     SHELXL
_refine_ls_goodness_of_fit_ref   1.419
_refine_ls_matrix_type           full
_refine_ls_number_parameters     10
_refine_ls_number_reflns         109
_refine_ls_number_restraints     0
_refine_ls_restrained_S_all      1.419
_refine_ls_R_factor_all          0.0182
_refine_ls_R_factor_gt           0.0177
_refine_ls_shift/su_max          0.000
_refine_ls_shift/su_mean         0.000
_refine_ls_structure_factor_coef Fsqd
_refine_ls_weighting_details
; calc 
 [1.00000+0.00000exp(0.00(sin\q/\l)^2^)]/ 
   [\s^2^(Fo^2^)+0.0000+0.0000*P+(0.0249P)^2^+0.0000sin\q/\l] 
 where P = 1.00000Fo^2^ + 0.00000Fc^2^ 
;
_refine_ls_weighting_scheme      calc
_refine_ls_wR_factor_gt          0.0443
_refine_ls_wR_factor_ref         0.0445
_reflns_number_gt                107
_reflns_number_total             109
_reflns_threshold_expression     >2sigma(I)
_cod_data_source_file            ic300510x_si_005_2.cif
_cod_data_source_block           ThOSe
_cod_original_sg_symbol_H-M      'P 4/n m m'
_cod_database_code               4329800
loop_
_symmetry_equiv_pos_as_xyz
'x, y, z'
'-x+1/2, -y+1/2, z'
'-y+1/2, x, z'
'y, -x+1/2, z'
'-x, y+1/2, -z'
'x+1/2, -y, -z'
'y+1/2, x+1/2, -z'
'-y, -x, -z'
'-x, -y, -z'
'x-1/2, y-1/2, -z'
'y-1/2, -x, -z'
'-y, x-1/2, -z'
'x, -y-1/2, z'
'-x-1/2, y, z'
'-y-1/2, -x-1/2, z'
'y, x, z'
loop_
_atom_site_label
_atom_site_type_symbol
_atom_site_fract_x
_atom_site_fract_y
_atom_site_fract_z
_atom_site_U_iso_or_equiv
_atom_site_adp_type
_atom_site_occupancy
_atom_site_symmetry_multiplicity
_atom_site_calc_flag
_atom_site_refinement_flags
Th1 Th 0.2500 0.2500 0.18955(8) 0.0046(3) Uani 1 8 d S
Se1 Se 0.2500 0.2500 0.6367(3) 0.0059(4) Uani 1 8 d S
O1 O 0.7500 0.2500 0.0000 0.0080(18) Uani 1 8 d S
loop_
_atom_site_aniso_label
_atom_site_aniso_U_11
_atom_site_aniso_U_22
_atom_site_aniso_U_33
_atom_site_aniso_U_23
_atom_site_aniso_U_13
_atom_site_aniso_U_12
Th1 0.0027(3) 0.0027(3) 0.0084(4) 0.000 0.000 0.000
Se1 0.0050(5) 0.0050(5) 0.0078(8) 0.000 0.000 0.000
O1 0.008(2) 0.008(2) 0.009(5) 0.000 0.000 0.000
loop_
_atom_type_symbol
_atom_type_description
_atom_type_scat_dispersion_real
_atom_type_scat_dispersion_imag
_atom_type_scat_source
O O 0.0106 0.0060 'International Tables Vol C Tables 4.2.6.8 and 6.1.1.4'
Se Se -0.0929 2.2259 'International Tables Vol C Tables 4.2.6.8 and 6.1.1.4'
Th Th -7.2400 8.8979 'International Tables Vol C Tables 4.2.6.8 and 6.1.1.4'
loop_
_geom_angle_atom_site_label_1
_geom_angle_atom_site_label_2
_geom_angle_atom_site_label_3
_geom_angle
_geom_angle_site_symmetry_1
_geom_angle_site_symmetry_3
O1 Th1 O1 72.244(11) 9_655 1_455
O1 Th1 O1 112.96(2) 9_655 9_665
O1 Th1 O1 72.244(11) 1_455 9_665
O1 Th1 O1 72.244(11) 9_655 .
O1 Th1 O1 112.96(2) 1_455 .
O1 Th1 O1 72.244(11) 9_665 .
O1 Th1 Se1 139.425(15) 9_655 9_666
O1 Th1 Se1 139.425(15) 1_455 9_666
O1 Th1 Se1 71.10(3) 9_665 9_666
O1 Th1 Se1 71.10(3) . 9_666
O1 Th1 Se1 71.10(3) 9_655 9_556
O1 Th1 Se1 71.10(3) 1_455 9_556
O1 Th1 Se1 139.425(15) 9_665 9_556
O1 Th1 Se1 139.425(15) . 9_556
Se1 Th1 Se1 133.53(7) 9_666 9_556
O1 Th1 Se1 139.425(15) 9_655 9_566
O1 Th1 Se1 71.10(3) 1_455 9_566
O1 Th1 Se1 71.10(3) 9_665 9_566
O1 Th1 Se1 139.425(15) . 9_566
Se1 Th1 Se1 81.05(3) 9_666 9_566
Se1 Th1 Se1 81.05(3) 9_556 9_566
O1 Th1 Se1 71.10(3) 9_655 9_656
O1 Th1 Se1 139.425(15) 1_455 9_656
O1 Th1 Se1 139.425(15) 9_665 9_656
O1 Th1 Se1 71.10(3) . 9_656
Se1 Th1 Se1 81.05(3) 9_666 9_656
Se1 Th1 Se1 81.05(3) 9_556 9_656
Se1 Th1 Se1 133.53(7) 9_566 9_656
O1 Th1 Se1 123.521(12) 9_655 .
O1 Th1 Se1 123.521(12) 1_455 .
O1 Th1 Se1 123.520(12) 9_665 .
O1 Th1 Se1 123.520(12) . .
Se1 Th1 Se1 66.77(3) 9_666 .
Se1 Th1 Se1 66.77(3) 9_556 .
Se1 Th1 Se1 66.77(3) 9_566 .
Se1 Th1 Se1 66.77(3) 9_656 .
O1 Th1 Th1 36.122(6) 9_655 9
O1 Th1 Th1 36.122(6) 1_455 9
O1 Th1 Th1 93.02(2) 9_665 9
O1 Th1 Th1 93.02(2) . 9
Se1 Th1 Th1 160.10(4) 9_666 9
Se1 Th1 Th1 66.36(3) 9_556 9
Se1 Th1 Th1 105.65(2) 9_566 9
Se1 Th1 Th1 105.65(2) 9_656 9
Se1 Th1 Th1 133.130(13) . 9
O1 Th1 Th1 93.02(2) 9_655 9_565
O1 Th1 Th1 36.122(6) 1_455 9_565
O1 Th1 Th1 36.122(6) 9_665 9_565
O1 Th1 Th1 93.02(2) . 9_565
Se1 Th1 Th1 105.65(2) 9_666 9_565
Se1 Th1 Th1 105.65(2) 9_556 9_565
Se1 Th1 Th1 66.36(3) 9_566 9_565
Se1 Th1 Th1 160.10(4) 9_656 9_565
Se1 Th1 Th1 133.130(13) . 9_565
Th1 Th1 Th1 62.135(14) 9 9_565
O1 Th1 Th1 36.122(6) 9_655 9_655
O1 Th1 Th1 93.02(2) 1_455 9_655
O1 Th1 Th1 93.02(2) 9_665 9_655
O1 Th1 Th1 36.122(6) . 9_655
Se1 Th1 Th1 105.65(2) 9_666 9_655
Se1 Th1 Th1 105.65(2) 9_556 9_655
Se1 Th1 Th1 160.10(4) 9_566 9_655
Se1 Th1 Th1 66.36(3) 9_656 9_655
Se1 Th1 Th1 133.130(13) . 9_655
Th1 Th1 Th1 62.135(14) 9 9_655
Th1 Th1 Th1 93.74(3) 9_565 9_655
Th1 Se1 Th1 133.53(7) 9_666 9_556
Th1 Se1 Th1 81.05(3) 9_666 9_566
Th1 Se1 Th1 81.05(3) 9_556 9_566
Th1 Se1 Th1 81.05(3) 9_666 9_656
Th1 Se1 Th1 81.05(3) 9_556 9_656
Th1 Se1 Th1 133.53(7) 9_566 9_656
Th1 Se1 Th1 113.23(3) 9_666 .
Th1 Se1 Th1 113.23(3) 9_556 .
Th1 Se1 Th1 113.23(3) 9_566 .
Th1 Se1 Th1 113.23(3) 9_656 .
Th1 O1 Th1 107.756(11) . 9_655
Th1 O1 Th1 112.96(2) . 1_655
Th1 O1 Th1 107.756(11) 9_655 1_655
Th1 O1 Th1 107.756(11) . 9_665
Th1 O1 Th1 112.96(2) 9_655 9_665
Th1 O1 Th1 107.756(11) 1_655 9_665
loop_
_geom_bond_atom_site_label_1
_geom_bond_atom_site_label_2
_geom_bond_distance
_geom_bond_site_symmetry_2
Th1 O1 2.4095(4) 9_655
Th1 O1 2.4095(4) 1_455
Th1 O1 2.4095(4) 9_665
Th1 O1 2.4095(4) .
Th1 Se1 3.0916(8) 9_666
Th1 Se1 3.0916(8) 9_556
Th1 Se1 3.0916(8) 9_566
Th1 Se1 3.0916(8) 9_656
Th1 Se1 3.139(2) .
Th1 Th1 3.8927(8) 9
Th1 Th1 3.8927(8) 9_565
Th1 Th1 3.8927(8) 9_655
Se1 Th1 3.0916(8) 9_666
Se1 Th1 3.0916(8) 9_556
Se1 Th1 3.0916(8) 9_566
Se1 Th1 3.0916(8) 9_656
O1 Th1 2.4095(4) 9_655
O1 Th1 2.4095(4) 1_655
O1 Th1 2.4095(4) 9_665
