#------------------------------------------------------------------------------
#$Date: 2016-03-23 16:50:47 +0200 (Wed, 23 Mar 2016) $
#$Revision: 179396 $
#$URL: svn://www.crystallography.net/cod/cif/4/32/93/4329326.cif $
#------------------------------------------------------------------------------
#
# This file is available in the Crystallography Open Database (COD),
# http://www.crystallography.net/
#
# All data on this site have been placed in the public domain by the
# contributors.
#
data_4329326
loop_
_publ_author_name
'Xiaowei Ma'
'Banghao Chen'
'Susan E. Latturner'
_publ_contact_author_address
;
 Department of Chemistry and Biochemistry
 Florida State University
 Tallahassee, FL  32306
;
_publ_contact_author_email       latturne@chem.fsu.edu
_publ_contact_author_fax         8506448281
_publ_contact_author_name        'Prof. Susan E. Latturner'
_publ_contact_author_phone       8506444047
_publ_section_title
;
 Synthesis and Properties of New Multinary Silicides R5Mg5Fe4AlxSi18-x (R
 = Gd, Dy, Y, x~ 12) Grown in Mg/Al Flux
;
_journal_name_full               'Inorganic Chemistry'
_journal_page_first              6089
_journal_page_last               6095
_journal_paper_doi               10.1021/ic202735b
_journal_volume                  51
_journal_year                    2012
_chemical_formula_sum            'Al12 Dy5 Fe4 Mg5 Si6'
_chemical_formula_weight         1649.75
_chemical_name_systematic
; 
 ? 
;
_space_group_IT_number           123
_symmetry_cell_setting           tetragonal
_symmetry_space_group_name_Hall  '-P 4 2'
_symmetry_space_group_name_H-M   'P 4/m m m'
_atom_sites_solution_hydrogens   none
_atom_sites_solution_primary     direct
_atom_sites_solution_secondary   difmap
_audit_creation_method           SHELXL-97
_cell_angle_alpha                90.00
_cell_angle_beta                 90.00
_cell_angle_gamma                90.00
_cell_formula_units_Z            1
_cell_length_a                   11.655(2)
_cell_length_b                   11.655(2)
_cell_length_c                   4.0668(8)
_cell_measurement_temperature    296(2)
_cell_volume                     552.43(17)
_computing_cell_refinement       'Saint (Bruker, 2008)'
_computing_data_collection       'APEX2 (Bruker, 2008)'
_computing_data_reduction        'Saint (Bruker, 2008)'
_computing_structure_refinement  'SHELXL-97 (Sheldrick, 2008)'
_computing_structure_solution    'SHELXS-97 (Sheldrick, 2008)'
_diffrn_ambient_temperature      296(2)
_diffrn_measured_fraction_theta_full 0.951
_diffrn_measured_fraction_theta_max 0.951
_diffrn_measurement_device_type  'Bruker APEX-II CCD area-detector'
_diffrn_radiation_monochromator  graphite
_diffrn_radiation_source         'fine-focus sealed tube'
_diffrn_radiation_type           MoK\a
_diffrn_radiation_wavelength     0.71073
_diffrn_reflns_av_R_equivalents  0.0289
_diffrn_reflns_av_sigmaI/netI    0.0123
_diffrn_reflns_limit_h_max       15
_diffrn_reflns_limit_h_min       -15
_diffrn_reflns_limit_k_max       15
_diffrn_reflns_limit_k_min       -15
_diffrn_reflns_limit_l_max       5
_diffrn_reflns_limit_l_min       -5
_diffrn_reflns_number            6204
_diffrn_reflns_theta_full        28.05
_diffrn_reflns_theta_max         28.05
_diffrn_reflns_theta_min         1.75
_exptl_absorpt_coefficient_mu    20.163
_exptl_absorpt_correction_T_max  0.817
_exptl_absorpt_correction_T_min  0.489
_exptl_absorpt_correction_type   multi-scan
_exptl_absorpt_process_details   'SADABS (Bruker, 2008)'
_exptl_crystal_colour            silver
_exptl_crystal_density_diffrn    4.959
_exptl_crystal_description       rod
_exptl_crystal_F_000             734
_exptl_crystal_size_max          0.04
_exptl_crystal_size_mid          0.03
_exptl_crystal_size_min          0.01
_refine_diff_density_max         1.487
_refine_diff_density_min         -0.867
_refine_diff_density_rms         0.201
_refine_ls_extinction_coef       0.0109(4)
_refine_ls_extinction_expression Fc^*^=kFc[1+0.001xFc^2^\l^3^/sin(2\q)]^-1/4^
_refine_ls_extinction_method     SHELXL
_refine_ls_goodness_of_fit_ref   1.300
_refine_ls_hydrogen_treatment    none
_refine_ls_matrix_type           full
_refine_ls_number_parameters     35
_refine_ls_number_reflns         428
_refine_ls_number_restraints     0
_refine_ls_restrained_S_all      1.300
_refine_ls_R_factor_all          0.0158
_refine_ls_R_factor_gt           0.0155
_refine_ls_shift/su_max          0.000
_refine_ls_shift/su_mean         0.000
_refine_ls_structure_factor_coef Fsqd
_refine_ls_weighting_details
'calc w=1/[\s^2^(Fo^2^)+(0.0140P)^2^+2.1401P] where P=(Fo^2^+2Fc^2^)/3'
_refine_ls_weighting_scheme      calc
_refine_ls_wR_factor_gt          0.0385
_refine_ls_wR_factor_ref         0.0386
_reflns_number_gt                420
_reflns_number_total             428
_reflns_threshold_expression     >2sigma(I)
_cod_data_source_file            ic202735b_si_002_1.cif
_cod_data_source_block           Dy
_cod_original_cell_volume        552.45(18)
_cod_database_code               4329326
loop_
_symmetry_equiv_pos_as_xyz
'x, y, z'
'-x, -y, z'
'-y, x, z'
'y, -x, z'
'-x, y, -z'
'x, -y, -z'
'y, x, -z'
'-y, -x, -z'
'-x, -y, -z'
'x, y, -z'
'y, -x, -z'
'-y, x, -z'
'x, -y, z'
'-x, y, z'
'-y, -x, z'
'y, x, z'
loop_
_atom_site_label
_atom_site_type_symbol
_atom_site_fract_x
_atom_site_fract_y
_atom_site_fract_z
_atom_site_U_iso_or_equiv
_atom_site_adp_type
_atom_site_occupancy
_atom_site_symmetry_multiplicity
_atom_site_calc_flag
_atom_site_refinement_flags
Dy1 Dy 0.26556(3) 0.5000 0.0000 0.00734(14) Uani 1 4 d S
Dy2 Dy 0.0000 0.0000 0.0000 0.01299(19) Uani 1 16 d S
Fe1 Fe 0.29640(9) 0.0000 0.0000 0.0103(2) Uani 1 4 d S
Mg1 Mg 0.20225(15) 0.20225(15) 0.0000 0.0086(5) Uani 1 4 d S
Mg2 Mg 0.5000 0.5000 0.5000 0.0111(10) Uani 1 16 d S
Al1 Al 0.11565(12) 0.37029(13) 0.5000 0.0085(3) Uani 1 2 d S
Al2 Al 0.33148(12) 0.33148(12) 0.5000 0.0030(4) Uani 1 4 d S
Si1 Si 0.17931(18) 0.0000 0.5000 0.0118(4) Uani 1 4 d S
Si2 Si 0.0000 0.5000 0.0000 0.0128(6) Uani 1 8 d S
loop_
_atom_site_aniso_label
_atom_site_aniso_U_11
_atom_site_aniso_U_22
_atom_site_aniso_U_33
_atom_site_aniso_U_23
_atom_site_aniso_U_13
_atom_site_aniso_U_12
Dy1 0.0079(2) 0.00726(19) 0.00688(19) 0.000 0.000 0.000
Dy2 0.0141(2) 0.0141(2) 0.0109(3) 0.000 0.000 0.000
Fe1 0.0081(5) 0.0156(5) 0.0073(5) 0.000 0.000 0.000
Mg1 0.0080(7) 0.0080(7) 0.0099(11) 0.000 0.000 0.0023(9)
Mg2 0.0078(14) 0.0078(14) 0.018(3) 0.000 0.000 0.000
Al1 0.0071(7) 0.0092(7) 0.0092(8) 0.000 0.000 -0.0007(5)
Al2 0.0027(5) 0.0027(5) 0.0036(8) 0.000 0.000 0.0017(7)
Si1 0.0111(10) 0.0141(10) 0.0101(9) 0.000 0.000 0.000
Si2 0.0126(13) 0.0108(13) 0.0151(14) 0.000 0.000 0.000
loop_
_atom_type_symbol
_atom_type_description
_atom_type_scat_dispersion_real
_atom_type_scat_dispersion_imag
_atom_type_scat_source
Mg Mg 0.0486 0.0363 'International Tables Vol C Tables 4.2.6.8 and 6.1.1.4'
Al Al 0.0645 0.0514 'International Tables Vol C Tables 4.2.6.8 and 6.1.1.4'
Si Si 0.0817 0.0704 'International Tables Vol C Tables 4.2.6.8 and 6.1.1.4'
Fe Fe 0.3463 0.8444 'International Tables Vol C Tables 4.2.6.8 and 6.1.1.4'
Dy Dy -0.1892 4.4098 'International Tables Vol C Tables 4.2.6.8 and 6.1.1.4'
loop_
_geom_angle_atom_site_label_1
_geom_angle_atom_site_label_2
_geom_angle_atom_site_label_3
_geom_angle
_geom_angle_site_symmetry_1
_geom_angle_site_symmetry_3
Al2 Dy1 Al2 149.59(6) 11_566 1_554
Al2 Dy1 Al2 87.91(3) 11_566 11_565
Al2 Dy1 Al2 84.20(5) 1_554 11_565
Al2 Dy1 Al2 84.20(5) 11_566 .
Al2 Dy1 Al2 87.91(3) 1_554 .
Al2 Dy1 Al2 149.59(6) 11_565 .
Al2 Dy1 Al1 91.13(2) 11_566 .
Al2 Dy1 Al1 106.15(4) 1_554 .
Al2 Dy1 Al1 159.51(5) 11_565 .
Al2 Dy1 Al1 50.28(4) . .
Al2 Dy1 Al1 159.51(5) 11_566 1_554
Al2 Dy1 Al1 50.28(4) 1_554 1_554
Al2 Dy1 Al1 91.13(2) 11_565 1_554
Al2 Dy1 Al1 106.15(4) . 1_554
Al1 Dy1 Al1 82.70(4) . 1_554
Al2 Dy1 Al1 106.15(4) 11_566 13_564
Al2 Dy1 Al1 91.13(2) 1_554 13_564
Al2 Dy1 Al1 50.28(4) 11_565 13_564
Al2 Dy1 Al1 159.51(5) . 13_564
Al1 Dy1 Al1 110.82(5) . 13_564
Al1 Dy1 Al1 58.84(5) 1_554 13_564
Al2 Dy1 Al1 50.28(4) 11_566 13_565
Al2 Dy1 Al1 159.51(5) 1_554 13_565
Al2 Dy1 Al1 106.15(4) 11_565 13_565
Al2 Dy1 Al1 91.13(2) . 13_565
Al1 Dy1 Al1 58.84(5) . 13_565
Al1 Dy1 Al1 110.82(5) 1_554 13_565
Al1 Dy1 Al1 82.70(4) 13_564 13_565
Al2 Dy1 Si2 105.20(3) 11_566 .
Al2 Dy1 Si2 105.20(3) 1_554 .
Al2 Dy1 Si2 105.20(3) 11_565 .
Al2 Dy1 Si2 105.20(3) . .
Al1 Dy1 Si2 55.41(3) . .
Al1 Dy1 Si2 55.41(3) 1_554 .
Al1 Dy1 Si2 55.41(3) 13_564 .
Al1 Dy1 Si2 55.41(3) 13_565 .
Al2 Dy1 Mg2 51.34(4) 11_566 .
Al2 Dy1 Mg2 101.77(2) 1_554 .
Al2 Dy1 Mg2 101.77(2) 11_565 .
Al2 Dy1 Mg2 51.34(4) . .
Al1 Dy1 Mg2 93.50(2) . .
Al1 Dy1 Mg2 148.19(3) 1_554 .
Al1 Dy1 Mg2 148.19(3) 13_564 .
Al1 Dy1 Mg2 93.50(2) 13_565 .
Si2 Dy1 Mg2 143.344(8) . .
Al2 Dy1 Mg2 101.77(2) 11_566 1_554
Al2 Dy1 Mg2 51.34(4) 1_554 1_554
Al2 Dy1 Mg2 51.34(4) 11_565 1_554
Al2 Dy1 Mg2 101.77(2) . 1_554
Al1 Dy1 Mg2 148.19(3) . 1_554
Al1 Dy1 Mg2 93.50(2) 1_554 1_554
Al1 Dy1 Mg2 93.50(2) 13_564 1_554
Al1 Dy1 Mg2 148.19(3) 13_565 1_554
Si2 Dy1 Mg2 143.344(8) . 1_554
Mg2 Dy1 Mg2 73.311(16) . 1_554
Al2 Dy1 Mg1 53.04(3) 11_566 11_565
Al2 Dy1 Mg1 135.26(2) 1_554 11_565
Al2 Dy1 Mg1 53.04(3) 11_565 11_565
Al2 Dy1 Mg1 135.26(2) . 11_565
Al1 Dy1 Mg1 111.25(3) . 11_565
Al1 Dy1 Mg1 111.25(3) 1_554 11_565
Al1 Dy1 Mg1 53.24(3) 13_564 11_565
Al1 Dy1 Mg1 53.24(3) 13_565 11_565
Si2 Dy1 Mg1 78.00(2) . 11_565
Mg2 Dy1 Mg1 99.605(17) . 11_565
Mg2 Dy1 Mg1 99.605(17) 1_554 11_565
Si1 Dy2 Si1 180.00(6) 11 3
Si1 Dy2 Si1 60.90(3) 11 9
Si1 Dy2 Si1 119.10(3) 3 9
Si1 Dy2 Si1 88.43(6) 11 11_556
Si1 Dy2 Si1 91.57(6) 3 11_556
Si1 Dy2 Si1 119.10(3) 9 11_556
Si1 Dy2 Si1 91.57(6) 11 3_554
Si1 Dy2 Si1 88.43(6) 3 3_554
Si1 Dy2 Si1 60.90(3) 9 3_554
Si1 Dy2 Si1 180.00(6) 11_556 3_554
Si1 Dy2 Si1 119.10(3) 11 9_556
Si1 Dy2 Si1 60.90(3) 3 9_556
Si1 Dy2 Si1 88.43(6) 9 9_556
Si1 Dy2 Si1 60.90(3) 11_556 9_556
Si1 Dy2 Si1 119.10(3) 3_554 9_556
Si1 Dy2 Si1 60.90(3) 11 1_554
Si1 Dy2 Si1 119.10(3) 3 1_554
Si1 Dy2 Si1 91.57(6) 9 1_554
Si1 Dy2 Si1 119.10(3) 11_556 1_554
Si1 Dy2 Si1 60.90(3) 3_554 1_554
Si1 Dy2 Si1 180.00(6) 9_556 1_554
Si1 Dy2 Si1 119.10(3) 11 .
Si1 Dy2 Si1 60.90(3) 3 .
Si1 Dy2 Si1 180.0 9 .
Si1 Dy2 Si1 60.90(3) 11_556 .
Si1 Dy2 Si1 119.10(3) 3_554 .
Si1 Dy2 Si1 91.57(6) 9_556 .
Si1 Dy2 Si1 88.43(6) 1_554 .
Si1 Dy2 Mg1 120.451(17) 11 .
Si1 Dy2 Mg1 59.549(17) 3 .
Si1 Dy2 Mg1 120.451(17) 9 .
Si1 Dy2 Mg1 120.451(17) 11_556 .
Si1 Dy2 Mg1 59.549(17) 3_554 .
Si1 Dy2 Mg1 120.451(17) 9_556 .
Si1 Dy2 Mg1 59.549(17) 1_554 .
Si1 Dy2 Mg1 59.549(17) . .
Si1 Dy2 Mg1 59.549(17) 11 9
Si1 Dy2 Mg1 120.451(17) 3 9
Si1 Dy2 Mg1 59.549(17) 9 9
Si1 Dy2 Mg1 59.549(17) 11_556 9
Si1 Dy2 Mg1 120.451(17) 3_554 9
Si1 Dy2 Mg1 59.549(17) 9_556 9
Si1 Dy2 Mg1 120.451(17) 1_554 9
Si1 Dy2 Mg1 120.451(17) . 9
Mg1 Dy2 Mg1 180.00(4) . 9
Si1 Dy2 Mg1 59.549(17) 11 11
Si1 Dy2 Mg1 120.451(17) 3 11
Si1 Dy2 Mg1 120.451(17) 9 11
Si1 Dy2 Mg1 59.549(17) 11_556 11
Si1 Dy2 Mg1 120.451(17) 3_554 11
Si1 Dy2 Mg1 120.451(17) 9_556 11
Si1 Dy2 Mg1 59.549(17) 1_554 11
Si1 Dy2 Mg1 59.549(17) . 11
Mg1 Dy2 Mg1 90.0 . 11
Mg1 Dy2 Mg1 90.0 9 11
Si1 Dy2 Mg1 120.451(17) 11 3
Si1 Dy2 Mg1 59.549(17) 3 3
Si1 Dy2 Mg1 59.549(17) 9 3
Si1 Dy2 Mg1 120.451(17) 11_556 3
Si1 Dy2 Mg1 59.549(17) 3_554 3
Si1 Dy2 Mg1 59.549(17) 9_556 3
Si1 Dy2 Mg1 120.451(17) 1_554 3
Si1 Dy2 Mg1 120.451(17) . 3
Mg1 Dy2 Mg1 90.0 . 3
Mg1 Dy2 Mg1 90.0 9 3
Mg1 Dy2 Mg1 180.00(8) 11 3
Si2 Fe1 Si1 123.87(5) 3_655 .
Si2 Fe1 Si1 123.87(5) 3_655 1_554
Si1 Fe1 Si1 112.26(9) . 1_554
Si2 Fe1 Al1 70.56(4) 3_655 7_556
Si1 Fe1 Al1 62.15(4) . 7_556
Si1 Fe1 Al1 146.94(4) 1_554 7_556
Si2 Fe1 Al1 70.56(4) 3_655 11
Si1 Fe1 Al1 146.94(4) . 11
Si1 Fe1 Al1 62.15(4) 1_554 11
Al1 Fe1 Al1 141.12(8) 7_556 11
Si2 Fe1 Al1 70.56(4) 3_655 11_556
Si1 Fe1 Al1 62.15(4) . 11_556
Si1 Fe1 Al1 146.94(4) 1_554 11_556
Al1 Fe1 Al1 62.80(6) 7_556 11_556
Al1 Fe1 Al1 103.62(6) 11 11_556
Si2 Fe1 Al1 70.56(4) 3_655 7
Si1 Fe1 Al1 146.94(4) . 7
Si1 Fe1 Al1 62.15(4) 1_554 7
Al1 Fe1 Al1 103.62(6) 7_556 7
Al1 Fe1 Al1 62.80(6) 11 7
Al1 Fe1 Al1 141.12(8) 11_556 7
Si2 Fe1 Mg1 114.96(6) 3_655 .
Si1 Fe1 Mg1 76.40(4) . .
Si1 Fe1 Mg1 76.40(4) 1_554 .
Al1 Fe1 Mg1 70.62(4) 7_556 .
Al1 Fe1 Mg1 127.79(3) 11 .
Al1 Fe1 Mg1 127.79(3) 11_556 .
Al1 Fe1 Mg1 70.62(4) 7 .
Si2 Fe1 Mg1 114.96(6) 3_655 11
Si1 Fe1 Mg1 76.40(4) . 11
Si1 Fe1 Mg1 76.40(4) 1_554 11
Al1 Fe1 Mg1 127.79(3) 7_556 11
Al1 Fe1 Mg1 70.62(4) 11 11
Al1 Fe1 Mg1 70.62(4) 11_556 11
Al1 Fe1 Mg1 127.79(3) 7 11
Mg1 Fe1 Mg1 130.07(11) . 11
Si2 Fe1 Dy2 180.0 3_655 .
Si1 Fe1 Dy2 56.13(5) . .
Si1 Fe1 Dy2 56.13(5) 1_554 .
Al1 Fe1 Dy2 109.44(4) 7_556 .
Al1 Fe1 Dy2 109.44(4) 11 .
Al1 Fe1 Dy2 109.44(4) 11_556 .
Al1 Fe1 Dy2 109.44(4) 7 .
Mg1 Fe1 Dy2 65.04(6) . .
Mg1 Fe1 Dy2 65.04(6) 11 .
Fe1 Mg1 Fe1 139.93(11) 3 .
Fe1 Mg1 Al2 104.35(3) 3 .
Fe1 Mg1 Al2 104.35(3) . .
Fe1 Mg1 Al2 104.35(3) 3 1_554
Fe1 Mg1 Al2 104.35(3) . 1_554
Al2 Mg1 Al2 87.34(8) . 1_554
Fe1 Mg1 Al1 137.25(2) 3 7_556
Fe1 Mg1 Al1 54.49(3) . 7_556
Al2 Mg1 Al1 50.93(3) . 7_556
Al2 Mg1 Al1 107.84(7) 1_554 7_556
Fe1 Mg1 Al1 137.25(2) 3 7
Fe1 Mg1 Al1 54.49(3) . 7
Al2 Mg1 Al1 107.84(7) . 7
Al2 Mg1 Al1 50.93(3) 1_554 7
Al1 Mg1 Al1 85.41(4) 7_556 7
Fe1 Mg1 Al1 54.49(3) 3 1_554
Fe1 Mg1 Al1 137.25(2) . 1_554
Al2 Mg1 Al1 107.84(7) . 1_554
Al2 Mg1 Al1 50.93(3) 1_554 1_554
Al1 Mg1 Al1 154.13(10) 7_556 1_554
Al1 Mg1 Al1 88.85(5) 7 1_554
Fe1 Mg1 Al1 54.49(3) 3 .
Fe1 Mg1 Al1 137.25(2) . .
Al2 Mg1 Al1 50.93(3) . .
Al2 Mg1 Al1 107.84(7) 1_554 .
Al1 Mg1 Al1 88.85(5) 7_556 .
Al1 Mg1 Al1 154.13(10) 7 .
Al1 Mg1 Al1 85.41(4) 1_554 .
Fe1 Mg1 Si1 49.62(4) 3 3_554
Fe1 Mg1 Si1 103.94(7) . 3_554
Al2 Mg1 Si1 151.52(4) . 3_554
Al2 Mg1 Si1 88.87(3) 1_554 3_554
Al1 Mg1 Si1 154.87(9) 7_556 3_554
Al1 Mg1 Si1 91.30(3) 7 3_554
Al1 Mg1 Si1 50.25(4) 1_554 3_554
Al1 Mg1 Si1 104.08(4) . 3_554
Fe1 Mg1 Si1 103.94(7) 3 1_554
Fe1 Mg1 Si1 49.62(4) . 1_554
Al2 Mg1 Si1 151.52(4) . 1_554
Al2 Mg1 Si1 88.87(3) 1_554 1_554
Al1 Mg1 Si1 104.08(4) 7_556 1_554
Al1 Mg1 Si1 50.25(4) 7 1_554
Al1 Mg1 Si1 91.30(3) 1_554 1_554
Al1 Mg1 Si1 154.87(9) . 1_554
Si1 Mg1 Si1 56.45(7) 3_554 1_554
Fe1 Mg1 Si1 103.94(7) 3 .
Fe1 Mg1 Si1 49.62(4) . .
Al2 Mg1 Si1 88.87(3) . .
Al2 Mg1 Si1 151.52(4) 1_554 .
Al1 Mg1 Si1 50.25(4) 7_556 .
Al1 Mg1 Si1 104.08(4) 7 .
Al1 Mg1 Si1 154.87(9) 1_554 .
Al1 Mg1 Si1 91.30(3) . .
Si1 Mg1 Si1 107.12(10) 3_554 .
Si1 Mg1 Si1 81.20(5) 1_554 .
Fe1 Mg1 Si1 49.62(4) 3 3
Fe1 Mg1 Si1 103.94(7) . 3
Al2 Mg1 Si1 88.87(3) . 3
Al2 Mg1 Si1 151.52(4) 1_554 3
Al1 Mg1 Si1 91.30(3) 7_556 3
Al1 Mg1 Si1 154.87(9) 7 3
Al1 Mg1 Si1 104.08(4) 1_554 3
Al1 Mg1 Si1 50.25(4) . 3
Si1 Mg1 Si1 81.20(5) 3_554 3
Si1 Mg1 Si1 107.12(10) 1_554 3
Si1 Mg1 Si1 56.45(7) . 3
Al2 Mg2 Al2 90.0 9_666 11_566
Al2 Mg2 Al2 90.0 9_666 3_655
Al2 Mg2 Al2 180.0 11_566 3_655
Al2 Mg2 Al2 180.0 9_666 .
Al2 Mg2 Al2 90.0 11_566 .
Al2 Mg2 Al2 90.0 3_655 .
Al2 Mg2 Dy1 55.440(4) 9_666 11_566
Al2 Mg2 Dy1 55.440(4) 11_566 11_566
Al2 Mg2 Dy1 124.560(4) 3_655 11_566
Al2 Mg2 Dy1 124.560(4) . 11_566
Al2 Mg2 Dy1 55.440(4) 9_666 9_666
Al2 Mg2 Dy1 124.560(4) 11_566 9_666
Al2 Mg2 Dy1 55.440(4) 3_655 9_666
Al2 Mg2 Dy1 124.560(4) . 9_666
Dy1 Mg2 Dy1 69.120(8) 11_566 9_666
Al2 Mg2 Dy1 124.560(4) 9_666 3_655
Al2 Mg2 Dy1 124.560(4) 11_566 3_655
Al2 Mg2 Dy1 55.440(4) 3_655 3_655
Al2 Mg2 Dy1 55.440(4) . 3_655
Dy1 Mg2 Dy1 180.0 11_566 3_655
Dy1 Mg2 Dy1 110.880(8) 9_666 3_655
Al2 Mg2 Dy1 55.440(4) 9_666 9_665
Al2 Mg2 Dy1 124.560(4) 11_566 9_665
Al2 Mg2 Dy1 55.440(4) 3_655 9_665
Al2 Mg2 Dy1 124.560(4) . 9_665
Dy1 Mg2 Dy1 110.880(8) 11_566 9_665
Dy1 Mg2 Dy1 73.312(16) 9_666 9_665
Dy1 Mg2 Dy1 69.120(8) 3_655 9_665
Al2 Mg2 Dy1 55.440(4) 9_666 11_565
Al2 Mg2 Dy1 55.440(4) 11_566 11_565
Al2 Mg2 Dy1 124.560(4) 3_655 11_565
Al2 Mg2 Dy1 124.560(4) . 11_565
Dy1 Mg2 Dy1 73.312(16) 11_566 11_565
Dy1 Mg2 Dy1 110.880(8) 9_666 11_565
Dy1 Mg2 Dy1 106.688(16) 3_655 11_565
Dy1 Mg2 Dy1 69.120(8) 9_665 11_565
Al2 Mg2 Dy1 124.560(4) 9_666 3_656
Al2 Mg2 Dy1 124.560(4) 11_566 3_656
Al2 Mg2 Dy1 55.440(4) 3_655 3_656
Al2 Mg2 Dy1 55.440(4) . 3_656
Dy1 Mg2 Dy1 106.688(16) 11_566 3_656
Dy1 Mg2 Dy1 69.120(8) 9_666 3_656
Dy1 Mg2 Dy1 73.312(16) 3_655 3_656
Dy1 Mg2 Dy1 110.880(8) 9_665 3_656
Dy1 Mg2 Dy1 180.000(6) 11_565 3_656
Al2 Mg2 Dy1 124.560(4) 9_666 1_556
Al2 Mg2 Dy1 55.440(4) 11_566 1_556
Al2 Mg2 Dy1 124.560(4) 3_655 1_556
Al2 Mg2 Dy1 55.440(4) . 1_556
Dy1 Mg2 Dy1 69.120(8) 11_566 1_556
Dy1 Mg2 Dy1 106.688(16) 9_666 1_556
Dy1 Mg2 Dy1 110.880(8) 3_655 1_556
Dy1 Mg2 Dy1 180.0 9_665 1_556
Dy1 Mg2 Dy1 110.880(8) 11_565 1_556
Dy1 Mg2 Dy1 69.120(8) 3_656 1_556
Al2 Mg2 Dy1 124.560(4) 9_666 .
Al2 Mg2 Dy1 55.440(4) 11_566 .
Al2 Mg2 Dy1 124.560(4) 3_655 .
Al2 Mg2 Dy1 55.440(4) . .
Dy1 Mg2 Dy1 110.880(8) 11_566 .
Dy1 Mg2 Dy1 180.0 9_666 .
Dy1 Mg2 Dy1 69.120(8) 3_655 .
Dy1 Mg2 Dy1 106.689(16) 9_665 .
Dy1 Mg2 Dy1 69.120(8) 11_565 .
Dy1 Mg2 Dy1 110.880(8) 3_656 .
Dy1 Mg2 Dy1 73.311(16) 1_556 .
Al2 Al1 Fe1 116.99(4) . 3
Al2 Al1 Fe1 116.99(4) . 3_556
Fe1 Al1 Fe1 103.62(6) 3 3_556
Al2 Al1 Si1 111.00(7) . 3
Fe1 Al1 Si1 56.32(4) 3 3
Fe1 Al1 Si1 56.32(4) 3_556 3
Al2 Al1 Al1 169.81(5) . 5_556
Fe1 Al1 Al1 58.60(3) 3 5_556
Fe1 Al1 Al1 58.60(3) 3_556 5_556
Si1 Al1 Al1 58.80(4) 3 5_556
Al2 Al1 Si2 123.74(4) . 1_556
Fe1 Al1 Si2 119.18(5) 3 1_556
Fe1 Al1 Si2 51.23(3) 3_556 1_556
Si1 Al1 Si2 101.96(4) 3 1_556
Al1 Al1 Si2 61.99(3) 5_556 1_556
Al2 Al1 Si2 123.74(4) . .
Fe1 Al1 Si2 51.23(3) 3 .
Fe1 Al1 Si2 119.18(5) 3_556 .
Si1 Al1 Si2 101.96(4) 3 .
Al1 Al1 Si2 61.99(3) 5_556 .
Si2 Al1 Si2 90.22(4) 1_556 .
Al2 Al1 Mg1 63.45(5) . 1_556
Fe1 Al1 Mg1 119.41(7) 3 1_556
Fe1 Al1 Mg1 54.89(3) 3_556 1_556
Si1 Al1 Mg1 67.39(5) 3 1_556
Al1 Al1 Mg1 109.67(5) 5_556 1_556
Si2 Al1 Mg1 91.243(16) 1_556 1_556
Si2 Al1 Mg1 169.33(7) . 1_556
Al2 Al1 Mg1 63.45(5) . .
Fe1 Al1 Mg1 54.89(3) 3 .
Fe1 Al1 Mg1 119.41(7) 3_556 .
Si1 Al1 Mg1 67.39(5) 3 .
Al1 Al1 Mg1 109.67(5) 5_556 .
Si2 Al1 Mg1 169.33(7) 1_556 .
Si2 Al1 Mg1 91.243(16) . .
Mg1 Al1 Mg1 85.41(4) 1_556 .
Al2 Al1 Dy1 61.85(3) . .
Fe1 Al1 Dy1 86.56(2) 3 .
Fe1 Al1 Dy1 168.10(5) 3_556 .
Si1 Al1 Dy1 135.58(3) 3 .
Al1 Al1 Dy1 124.59(2) 5_556 .
Si2 Al1 Dy1 118.42(5) 1_556 .
Si2 Al1 Dy1 62.60(2) . .
Mg1 Al1 Dy1 125.30(6) 1_556 .
Mg1 Al1 Dy1 71.44(5) . .
Al2 Al1 Dy1 61.85(3) . 1_556
Fe1 Al1 Dy1 168.10(5) 3 1_556
Fe1 Al1 Dy1 86.56(2) 3_556 1_556
Si1 Al1 Dy1 135.58(3) 3 1_556
Al1 Al1 Dy1 124.59(2) 5_556 1_556
Si2 Al1 Dy1 62.60(2) 1_556 1_556
Si2 Al1 Dy1 118.42(5) . 1_556
Mg1 Al1 Dy1 71.44(5) 1_556 1_556
Mg1 Al1 Dy1 125.30(6) . 1_556
Dy1 Al1 Dy1 82.70(4) . 1_556
Al1 Al2 Al1 110.38(9) . 7_556
Al1 Al2 Mg2 124.81(5) . .
Al1 Al2 Mg2 124.81(5) 7_556 .
Al1 Al2 Dy1 134.93(3) . 3_656
Al1 Al2 Dy1 67.87(2) 7_556 3_656
Mg2 Al2 Dy1 73.22(4) . 3_656
Al1 Al2 Dy1 67.87(2) . 1_556
Al1 Al2 Dy1 134.93(3) 7_556 1_556
Mg2 Al2 Dy1 73.22(4) . 1_556
Dy1 Al2 Dy1 82.52(2) 3_656 1_556
Al1 Al2 Dy1 134.93(3) . 3_655
Al1 Al2 Dy1 67.87(2) 7_556 3_655
Mg2 Al2 Dy1 73.22(4) . 3_655
Dy1 Al2 Dy1 87.91(3) 3_656 3_655
Dy1 Al2 Dy1 146.45(7) 1_556 3_655
Al1 Al2 Dy1 67.87(2) . .
Al1 Al2 Dy1 134.93(3) 7_556 .
Mg2 Al2 Dy1 73.22(4) . .
Dy1 Al2 Dy1 146.45(7) 3_656 .
Dy1 Al2 Dy1 87.91(3) 1_556 .
Dy1 Al2 Dy1 82.52(2) 3_655 .
Al1 Al2 Mg1 65.61(4) . 1_556
Al1 Al2 Mg1 65.61(4) 7_556 1_556
Mg2 Al2 Mg1 136.33(4) . 1_556
Dy1 Al2 Mg1 74.31(3) 3_656 1_556
Dy1 Al2 Mg1 74.31(3) 1_556 1_556
Dy1 Al2 Mg1 133.47(4) 3_655 1_556
Dy1 Al2 Mg1 133.47(4) . 1_556
Al1 Al2 Mg1 65.61(4) . .
Al1 Al2 Mg1 65.61(4) 7_556 .
Mg2 Al2 Mg1 136.33(4) . .
Dy1 Al2 Mg1 133.47(4) 3_656 .
Dy1 Al2 Mg1 133.47(4) 1_556 .
Dy1 Al2 Mg1 74.31(3) 3_655 .
Dy1 Al2 Mg1 74.31(3) . .
Mg1 Al2 Mg1 87.34(8) 1_556 .
Fe1 Si1 Fe1 112.26(9) 1_556 .
Fe1 Si1 Al1 61.53(5) 1_556 7_556
Fe1 Si1 Al1 61.53(5) . 7_556
Fe1 Si1 Al1 61.53(5) 1_556 11_556
Fe1 Si1 Al1 61.53(5) . 11_556
Al1 Si1 Al1 62.39(8) 7_556 11_556
Fe1 Si1 Dy2 168.08(7) 1_556 .
Fe1 Si1 Dy2 79.65(3) . .
Al1 Si1 Dy2 127.812(19) 7_556 .
Al1 Si1 Dy2 127.812(19) 11_556 .
Fe1 Si1 Dy2 79.65(3) 1_556 1_556
Fe1 Si1 Dy2 168.08(7) . 1_556
Al1 Si1 Dy2 127.812(19) 7_556 1_556
Al1 Si1 Dy2 127.812(19) 11_556 1_556
Dy2 Si1 Dy2 88.43(6) . 1_556
Fe1 Si1 Mg1 119.52(6) 1_556 .
Fe1 Si1 Mg1 53.982(15) . .
Al1 Si1 Mg1 62.36(5) 7_556 .
Al1 Si1 Mg1 108.52(6) 11_556 .
Dy2 Si1 Mg1 66.89(4) . .
Dy2 Si1 Mg1 121.01(5) 1_556 .
Fe1 Si1 Mg1 53.981(15) 1_556 1_556
Fe1 Si1 Mg1 119.52(6) . 1_556
Al1 Si1 Mg1 62.36(5) 7_556 1_556
Al1 Si1 Mg1 108.52(6) 11_556 1_556
Dy2 Si1 Mg1 121.01(5) . 1_556
Dy2 Si1 Mg1 66.89(4) 1_556 1_556
Mg1 Si1 Mg1 81.20(5) . 1_556
Fe1 Si1 Mg1 119.52(6) 1_556 11
Fe1 Si1 Mg1 53.982(15) . 11
Al1 Si1 Mg1 108.52(6) 7_556 11
Al1 Si1 Mg1 62.36(5) 11_556 11
Dy2 Si1 Mg1 66.89(4) . 11
Dy2 Si1 Mg1 121.01(5) 1_556 11
Mg1 Si1 Mg1 97.95(4) . 11
Mg1 Si1 Mg1 170.18(10) 1_556 11
Fe1 Si1 Mg1 53.981(15) 1_556 11_556
Fe1 Si1 Mg1 119.52(6) . 11_556
Al1 Si1 Mg1 108.52(6) 7_556 11_556
Al1 Si1 Mg1 62.36(5) 11_556 11_556
Dy2 Si1 Mg1 121.01(5) . 11_556
Dy2 Si1 Mg1 66.89(4) 1_556 11_556
Mg1 Si1 Mg1 170.18(10) . 11_556
Mg1 Si1 Mg1 97.95(4) 1_556 11_556
Mg1 Si1 Mg1 81.20(5) 11 11_556
Fe1 Si2 Fe1 180.0 11_565 3
Fe1 Si2 Al1 58.21(3) 11_565 13_565
Fe1 Si2 Al1 121.79(3) 3 13_565
Fe1 Si2 Al1 121.79(3) 11_565 5
Fe1 Si2 Al1 58.21(3) 3 5
Al1 Si2 Al1 180.0 13_565 5
Fe1 Si2 Al1 58.21(3) 11_565 9_566
Fe1 Si2 Al1 121.79(3) 3 9_566
Al1 Si2 Al1 56.02(5) 13_565 9_566
Al1 Si2 Al1 123.98(5) 5 9_566
Fe1 Si2 Al1 121.79(3) 11_565 1_554
Fe1 Si2 Al1 58.21(3) 3 1_554
Al1 Si2 Al1 123.98(5) 13_565 1_554
Al1 Si2 Al1 56.02(5) 5 1_554
Al1 Si2 Al1 180.0 9_566 1_554
Fe1 Si2 Al1 58.21(3) 11_565 9_565
Fe1 Si2 Al1 121.79(3) 3 9_565
Al1 Si2 Al1 116.43(5) 13_565 9_565
Al1 Si2 Al1 63.57(5) 5 9_565
Al1 Si2 Al1 90.22(4) 9_566 9_565
Al1 Si2 Al1 89.78(4) 1_554 9_565
Fe1 Si2 Al1 58.21(3) 11_565 13_564
Fe1 Si2 Al1 121.79(3) 3 13_564
Al1 Si2 Al1 90.22(4) 13_565 13_564
Al1 Si2 Al1 89.78(4) 5 13_564
Al1 Si2 Al1 116.43(5) 9_566 13_564
Al1 Si2 Al1 63.57(5) 1_554 13_564
Al1 Si2 Al1 56.02(5) 9_565 13_564
Fe1 Si2 Al1 121.79(3) 11_565 5_556
Fe1 Si2 Al1 58.21(3) 3 5_556
Al1 Si2 Al1 89.78(4) 13_565 5_556
Al1 Si2 Al1 90.22(4) 5 5_556
Al1 Si2 Al1 63.57(5) 9_566 5_556
Al1 Si2 Al1 116.43(5) 1_554 5_556
Al1 Si2 Al1 123.98(5) 9_565 5_556
Al1 Si2 Al1 180.0 13_564 5_556
Fe1 Si2 Al1 121.79(3) 11_565 .
Fe1 Si2 Al1 58.21(3) 3 .
Al1 Si2 Al1 63.57(5) 13_565 .
Al1 Si2 Al1 116.43(5) 5 .
Al1 Si2 Al1 89.78(4) 9_566 .
Al1 Si2 Al1 90.22(4) 1_554 .
Al1 Si2 Al1 180.0 9_565 .
Al1 Si2 Al1 123.98(5) 13_564 .
Al1 Si2 Al1 56.02(5) 5_556 .
Fe1 Si2 Dy1 90.0 11_565 .
Fe1 Si2 Dy1 90.0 3 .
Al1 Si2 Dy1 61.99(3) 13_565 .
Al1 Si2 Dy1 118.01(3) 5 .
Al1 Si2 Dy1 118.01(3) 9_566 .
Al1 Si2 Dy1 61.99(3) 1_554 .
Al1 Si2 Dy1 118.01(3) 9_565 .
Al1 Si2 Dy1 61.99(3) 13_564 .
Al1 Si2 Dy1 118.01(3) 5_556 .
Al1 Si2 Dy1 61.99(3) . .
Fe1 Si2 Dy1 90.0 11_565 9_565
Fe1 Si2 Dy1 90.0 3 9_565
Al1 Si2 Dy1 118.01(3) 13_565 9_565
Al1 Si2 Dy1 61.99(3) 5 9_565
Al1 Si2 Dy1 61.99(3) 9_566 9_565
Al1 Si2 Dy1 118.01(3) 1_554 9_565
Al1 Si2 Dy1 61.99(3) 9_565 9_565
Al1 Si2 Dy1 118.01(3) 13_564 9_565
Al1 Si2 Dy1 61.99(3) 5_556 9_565
Al1 Si2 Dy1 118.01(3) . 9_565
Dy1 Si2 Dy1 180.0 . 9_565
loop_
_geom_bond_atom_site_label_1
_geom_bond_atom_site_label_2
_geom_bond_distance
_geom_bond_site_symmetry_2
Dy1 Al2 2.9296(7) 11_566
Dy1 Al2 2.9296(7) 1_554
Dy1 Al2 2.9296(7) 11_565
Dy1 Al2 2.9296(7) .
Dy1 Al1 3.0778(12) .
Dy1 Al1 3.0779(12) 1_554
Dy1 Al1 3.0779(12) 13_564
Dy1 Al1 3.0779(12) 13_565
Dy1 Si2 3.0952(7) .
Dy1 Mg2 3.4060(5) .
Dy1 Mg2 3.4060(5) 1_554
Dy1 Mg1 3.548(2) 11_565
Dy2 Si1 2.9159(15) 11
Dy2 Si1 2.9159(15) 3
Dy2 Si1 2.9159(15) 9
Dy2 Si1 2.9159(15) 11_556
Dy2 Si1 2.9159(15) 3_554
Dy2 Si1 2.9159(15) 9_556
Dy2 Si1 2.9159(15) 1_554
Dy2 Si1 2.9159(15) .
Dy2 Mg1 3.334(3) .
Dy2 Mg1 3.334(3) 9
Dy2 Mg1 3.334(3) 11
Dy2 Mg1 3.334(3) 3
Fe1 Si2 2.3729(11) 3_655
Fe1 Si1 2.4490(14) .
Fe1 Si1 2.4490(14) 1_554
Fe1 Al1 2.5871(10) 7_556
Fe1 Al1 2.5871(10) 11
Fe1 Al1 2.5871(10) 11_556
Fe1 Al1 2.5871(10) 7
Fe1 Mg1 2.6002(10) .
Fe1 Mg1 2.6002(10) 11
Mg1 Fe1 2.6002(10) 3
Mg1 Al2 2.945(2) .
Mg1 Al2 2.945(2) 1_554
Mg1 Al1 2.9982(13) 7_556
Mg1 Al1 2.9982(12) 7
Mg1 Al1 2.9982(13) 1_554
Mg1 Al1 2.9982(13) .
Mg1 Si1 3.1245(15) 3_554
Mg1 Si1 3.1245(15) 1_554
Mg1 Si1 3.1245(15) .
Mg1 Si1 3.1245(15) 3
Mg2 Al2 2.778(2) 9_666
Mg2 Al2 2.778(2) 11_566
Mg2 Al2 2.778(2) 3_655
Mg2 Al2 2.778(2) .
Mg2 Dy1 3.4060(5) 11_566
Mg2 Dy1 3.4060(5) 9_666
Mg2 Dy1 3.4060(5) 3_655
Mg2 Dy1 3.4060(5) 9_665
Mg2 Dy1 3.4060(5) 11_565
Mg2 Dy1 3.4060(5) 3_656
Mg2 Dy1 3.4060(5) 1_556
Al1 Al2 2.5559(18) .
Al1 Fe1 2.5871(10) 3
Al1 Fe1 2.5871(10) 3_556
Al1 Si1 2.602(2) 3
Al1 Al1 2.696(3) 5_556
Al1 Si2 2.8701(11) 1_556
Al1 Si2 2.8701(11) .
Al1 Mg1 2.9982(13) 1_556
Al1 Dy1 3.0779(12) 1_556
Al2 Al1 2.5559(18) 7_556
Al2 Dy1 2.9296(7) 3_656
Al2 Dy1 2.9296(7) 1_556
Al2 Dy1 2.9296(7) 3_655
Al2 Mg1 2.945(2) 1_556
Si1 Fe1 2.4489(14) 1_556
Si1 Al1 2.602(2) 7_556
Si1 Al1 2.602(2) 11_556
Si1 Dy2 2.9159(15) 1_556
Si1 Mg1 3.1245(15) 1_556
Si1 Mg1 3.1245(15) 11
Si1 Mg1 3.1245(15) 11_556
Si2 Fe1 2.3730(11) 11_565
Si2 Fe1 2.3730(11) 3
Si2 Al1 2.8701(11) 13_565
Si2 Al1 2.8701(11) 5
Si2 Al1 2.8701(11) 9_566
Si2 Al1 2.8701(11) 1_554
Si2 Al1 2.8701(11) 9_565
Si2 Al1 2.8701(11) 13_564
Si2 Al1 2.8701(11) 5_556
Si2 Dy1 3.0952(7) 9_565
