#------------------------------------------------------------------------------
#$Date: 2016-02-16 22:30:59 +0200 (Tue, 16 Feb 2016) $
#$Revision: 176467 $
#$URL: svn://www.crystallography.net/cod/cif/4/33/08/4330810.cif $
#------------------------------------------------------------------------------
#
# This file is available in the Crystallography Open Database (COD),
# http://www.crystallography.net/
#
# All data on this site have been placed in the public domain by the
# contributors.
#
data_4330810
loop_
_publ_author_name
'Nikolay S. Abramchuk'
'Wilder Carrillo-Cabrera'
'Igor Veremchuk'
'Niels Oeschler'
'Andrei V. Olenev'
'Yurii Prots'
'Ulrich Burkhardt'
'Evgeny V. Dikarev'
'Yuri Grin'
'Andrei V. Shevelkov'
_publ_contact_author_address
;
Max-Planck-Institut f\"ur Chemische Physik fester Stoffe
N\"othnitzer Str. 40
01187 Dresden
Germany
;
_publ_contact_author_email       Nikolay.Abramchuk@cpfs.mpg.de
_publ_contact_author_fax         49(351)46464002
_publ_contact_author_name        'Abramchuk, Nikolay'
_publ_contact_author_phone       49(351)46462236
_publ_section_title
;
 Homo- and Heterovalent Substitutions in the New Clathrates I
 Si30P16Te8-xSex and Si30+xP16-xTe8-xBrx: Synthesis, Crystal Structure,
 and Thermoelectric Properties
;
_journal_name_full               'Inorganic Chemistry'
_journal_page_first              11396
_journal_page_last               11405
_journal_paper_doi               10.1021/ic3010097
_journal_volume                  51
_journal_year                    2012
_chemical_formula_sum            'Br5.01 P9.61 Si36.39 Te2.3'
_chemical_formula_weight         2013.65
_space_group_IT_number           223
_space_group_name_Hall           '-P 4n 2 3'
_symmetry_cell_setting           cubic
_symmetry_space_group_name_Hall  '-P 4n 2 3'
_symmetry_space_group_name_H-M   'P m -3 n'
_atom_sites_solution_hydrogens   none
_atom_sites_solution_primary     direct
_atom_sites_solution_secondary   difmap
_audit_creation_method           SHELXL-97
_cell_angle_alpha                90.00
_cell_angle_beta                 90.00
_cell_angle_gamma                90.00
_cell_formula_units_Z            1
_cell_length_a                   10.0340(4)
_cell_length_b                   10.0340(4)
_cell_length_c                   10.0340(4)
_cell_measurement_temperature    298
_cell_volume                     1010.23(7)
_computing_cell_refinement       WinGX
_computing_data_collection       'CrystalClear (Rigaku Inc., 2008)'
_computing_data_reduction        'CrystalClear (Rigaku Inc., 2008)'
_computing_structure_refinement  WinGX
_diffrn_ambient_temperature      298
_diffrn_measured_fraction_theta_full 1.000
_diffrn_measured_fraction_theta_max 1.000
_diffrn_measurement_device_type  'Rigaku AFC7'
_diffrn_measurement_method       dtprofit.ref
_diffrn_radiation_monochromator  graphite
_diffrn_radiation_source         'fine-focus sealed tube'
_diffrn_radiation_type           MoK\a
_diffrn_radiation_wavelength     0.71073
_diffrn_reflns_av_R_equivalents  0.0366
_diffrn_reflns_av_sigmaI/netI    0.0115
_diffrn_reflns_limit_h_max       14
_diffrn_reflns_limit_h_min       -14
_diffrn_reflns_limit_k_max       14
_diffrn_reflns_limit_k_min       -14
_diffrn_reflns_limit_l_max       12
_diffrn_reflns_limit_l_min       -12
_diffrn_reflns_number            7998
_diffrn_reflns_theta_full        29.89
_diffrn_reflns_theta_max         29.89
_diffrn_reflns_theta_min         2.87
_exptl_absorpt_coefficient_mu    8.096
_exptl_absorpt_correction_T_max  1.0000
_exptl_absorpt_correction_T_min  0.6725
_exptl_absorpt_correction_type   multi-scan
_exptl_crystal_colour            'gray metallic'
_exptl_crystal_density_diffrn    3.310
_exptl_crystal_description       cube
_exptl_crystal_F_000             949
_exptl_crystal_size_max          0.1
_exptl_crystal_size_mid          0.1
_exptl_crystal_size_min          0.1
_refine_ls_extinction_coef       0.0017(6)
_refine_ls_extinction_expression Fc^*^=kFc[1+0.001xFc^2^\l^3^/sin(2\q)]^-1/4^
_refine_ls_extinction_method     SHELXL
_refine_ls_goodness_of_fit_ref   1.618
_refine_ls_matrix_type           full
_refine_ls_number_parameters     19
_refine_ls_number_reflns         291
_refine_ls_number_restraints     0
_refine_ls_restrained_S_all      1.618
_refine_ls_R_factor_all          0.0232
_refine_ls_R_factor_gt           0.0232
_refine_ls_shift/su_max          0.000
_refine_ls_shift/su_mean         0.000
_refine_ls_structure_factor_coef Fsqd
_refine_ls_weighting_details
'calc w=1/[\s^2^(Fo^2^)+(0.0218P)^2^+1.3194P] where P=(Fo^2^+2Fc^2^)/3'
_refine_ls_weighting_scheme      calc
_refine_ls_wR_factor_gt          0.0614
_refine_ls_wR_factor_ref         0.0614
_reflns_number_gt                291
_reflns_number_total             291
_reflns_threshold_expression     >2sigma(I)
_cod_data_source_file            ic3010097_si_002_13.cif
_cod_data_source_block           '[Si,P]46Te2.30Br5.01_crystal_VI'
_cod_original_formula_sum        'Br5.01 P9.61 Si36.39 Te2.30'
_cod_database_code               4330810
loop_
_symmetry_equiv_pos_as_xyz
'x, y, z'
'x, -y, -z'
'-x, -y, z'
'-x, y, -z'
'-y+1/2, x+1/2, z+1/2'
'y+1/2, x+1/2, -z+1/2'
'y+1/2, -x+1/2, z+1/2'
'-y+1/2, -x+1/2, -z+1/2'
'y, z, x'
'-y, -z, x'
'y, -z, -x'
'-y, z, -x'
'-z+1/2, y+1/2, x+1/2'
'-z+1/2, -y+1/2, -x+1/2'
'z+1/2, -y+1/2, x+1/2'
'z+1/2, y+1/2, -x+1/2'
'z, x, y'
'-z, x, -y'
'-z, -x, y'
'z, -x, -y'
'-x+1/2, -z+1/2, -y+1/2'
'-x+1/2, z+1/2, y+1/2'
'x+1/2, -z+1/2, y+1/2'
'x+1/2, z+1/2, -y+1/2'
'-x, -y, -z'
'-x, y, z'
'x, y, -z'
'x, -y, z'
'y-1/2, -x-1/2, -z-1/2'
'-y-1/2, -x-1/2, z-1/2'
'-y-1/2, x-1/2, -z-1/2'
'y-1/2, x-1/2, z-1/2'
'-y, -z, -x'
'y, z, -x'
'-y, z, x'
'y, -z, x'
'z-1/2, -y-1/2, -x-1/2'
'z-1/2, y-1/2, x-1/2'
'-z-1/2, y-1/2, -x-1/2'
'-z-1/2, -y-1/2, x-1/2'
'-z, -x, -y'
'z, -x, y'
'z, x, -y'
'-z, x, y'
'x-1/2, z-1/2, y-1/2'
'x-1/2, -z-1/2, -y-1/2'
'-x-1/2, z-1/2, -y-1/2'
'-x-1/2, -z-1/2, y-1/2'
loop_
_atom_site_label
_atom_site_type_symbol
_atom_site_fract_x
_atom_site_fract_y
_atom_site_fract_z
_atom_site_U_iso_or_equiv
_atom_site_adp_type
_atom_site_occupancy
_atom_site_symmetry_multiplicity
_atom_site_calc_flag
_atom_site_refinement_flags
Br1 Br 0.0000 0.7500 0.5000 0.0214(2) Uani 0.619(12) 8 d SP
Te1 Te 0.0000 0.7500 0.5000 0.0214(2) Uani 0.381(12) 8 d SP
Br2 Br 0.0000 0.0000 0.0000 0.0103(5) Uani 0.653(6) 24 d SP
P3 P 0.81598(6) 0.81598(6) 0.81598(6) 0.0101(3) Uani 1 3 d S
Si4 Si 0.69149(9) 0.88253(9) 0.0000 0.0092(3) Uani 1 2 d S
Si5 Si 0.5000 0.7500 0.0000 0.0080(4) Uani 1 8 d S
loop_
_atom_site_aniso_label
_atom_site_aniso_U_11
_atom_site_aniso_U_22
_atom_site_aniso_U_33
_atom_site_aniso_U_23
_atom_site_aniso_U_13
_atom_site_aniso_U_12
Br1 0.0234(3) 0.0175(3) 0.0234(3) 0.000 0.000 0.000
Te1 0.0234(3) 0.0175(3) 0.0234(3) 0.000 0.000 0.000
Br2 0.0103(5) 0.0103(5) 0.0103(5) 0.000 0.000 0.000
P3 0.0101(3) 0.0101(3) 0.0101(3) 0.00003(19) 0.00003(19) 0.00003(19)
Si4 0.0098(4) 0.0082(4) 0.0096(4) 0.000 0.000 -0.0010(3)
Si5 0.0076(5) 0.0088(8) 0.0076(5) 0.000 0.000 0.000
loop_
_atom_type_symbol
_atom_type_description
_atom_type_scat_dispersion_real
_atom_type_scat_dispersion_imag
_atom_type_scat_source
Br Br -0.2901 2.4595 'International Tables Vol C Tables 4.2.6.8 and 6.1.1.4'
P P 0.1023 0.0942 'International Tables Vol C Tables 4.2.6.8 and 6.1.1.4'
Si Si 0.0817 0.0704 'International Tables Vol C Tables 4.2.6.8 and 6.1.1.4'
Te Te -0.5308 1.6751 'International Tables Vol C Tables 4.2.6.8 and 6.1.1.4'
loop_
_geom_angle_atom_site_label_1
_geom_angle_atom_site_label_2
_geom_angle_atom_site_label_3
_geom_angle
_geom_angle_site_symmetry_1
_geom_angle_site_symmetry_3
P3 P3 Si4 108.29(3) 8_666 17_655
P3 P3 Si4 108.29(3) 8_666 1_556
Si4 P3 Si4 110.63(3) 17_655 1_556
P3 P3 Si4 108.29(3) 8_666 9_565
Si4 P3 Si4 110.63(3) 17_655 9_565
Si4 P3 Si4 110.63(3) 1_556 9_565
P3 Si4 P3 105.01(4) 27_556 1_554
P3 Si4 Si5 106.15(4) 27_556 .
P3 Si4 Si5 106.15(4) 1_554 .
P3 Si4 Si4 106.67(2) 27_556 2_575
P3 Si4 Si4 106.67(2) 1_554 2_575
Si5 Si4 Si4 124.69(2) . 2_575
Si4 Si5 Si4 108.90(2) . 37_676
Si4 Si5 Si4 108.90(2) . 15_564
Si4 Si5 Si4 110.63(4) 37_676 15_564
Si4 Si5 Si4 110.63(4) . 26_655
Si4 Si5 Si4 108.90(2) 37_676 26_655
Si4 Si5 Si4 108.90(2) 15_564 26_655
loop_
_geom_bond_atom_site_label_1
_geom_bond_atom_site_label_2
_geom_bond_distance
_geom_bond_site_symmetry_2
P3 P3 2.294(2) 8_666
P3 Si4 2.3271(6) 17_655
P3 Si4 2.3271(6) 1_556
P3 Si4 2.3271(6) 9_565
Si4 P3 2.3271(6) 27_556
Si4 P3 2.3271(6) 1_554
Si4 Si5 2.3367(9) .
Si4 Si4 2.3574(18) 2_575
Si5 Si4 2.3367(9) 37_676
Si5 Si4 2.3367(9) 15_564
Si5 Si4 2.3367(9) 26_655
