#------------------------------------------------------------------------------
#$Date: 2016-03-23 20:25:45 +0200 (Wed, 23 Mar 2016) $
#$Revision: 179411 $
#$URL: svn://www.crystallography.net/cod/cif/4/33/08/4330812.cif $
#------------------------------------------------------------------------------
#
# This file is available in the Crystallography Open Database (COD),
# http://www.crystallography.net/
#
# All data on this site have been placed in the public domain by the
# contributors.
#
data_4330812
loop_
_publ_author_name
'W. Adam Phelan'
'Giang V. Nguyen'
'Jiakui K. Wang'
'Gregory T. McCandless'
'Emilia Morosan'
'John F. DiTusa'
'Julia Y. Chan'
_publ_section_title
;
 Discovery of Spin Glass Behavior in Ln2Fe4Sb5 (Ln = La-Nd and Sm)
;
_journal_name_full               'Inorganic Chemistry'
_journal_page_first              11412
_journal_page_last               11421
_journal_paper_doi               10.1021/ic301030f
_journal_volume                  51
_journal_year                    2012
_chemical_formula_moiety         'Ce2 Fe3.98 Sb4.93'
_chemical_formula_sum            'Ce2 Fe3.98 Sb4.93'
_chemical_formula_weight         1101.86
_chemical_name_systematic
;
 ?
;
_space_group_IT_number           139
_symmetry_cell_setting           tetragonal
_symmetry_space_group_name_Hall  '-I 4 2'
_symmetry_space_group_name_H-M   'I 4/m m m'
_atom_sites_solution_primary     direct
_atom_sites_solution_secondary   difmap
_audit_creation_method           SHELXL-97
_cell_angle_alpha                90
_cell_angle_beta                 90
_cell_angle_gamma                90
_cell_formula_units_Z            2
_cell_length_a                   4.3237(15)
_cell_length_b                   4.3237(15)
_cell_length_c                   25.998(2)
_cell_measurement_reflns_used    585
_cell_measurement_temperature    298(2)
_cell_measurement_theta_max      37.0
_cell_measurement_theta_min      2.6
_cell_volume                     486.0(2)
_computing_structure_refinement  'SHELXL-97 (Sheldrick, 2008)'
_diffrn_ambient_temperature      298(2)
_diffrn_measured_fraction_theta_full 0.970
_diffrn_measured_fraction_theta_max 0.970
_diffrn_measurement_device_type  'Nonius KappaCCD'
_diffrn_measurement_method       '\w and \f scans'
_diffrn_radiation_monochromator  graphite
_diffrn_radiation_source         'fine-focus sealed tube'
_diffrn_radiation_type           MoK\a
_diffrn_radiation_wavelength     0.71073
_diffrn_reflns_av_R_equivalents  0.0245
_diffrn_reflns_av_sigmaI/netI    0.0225
_diffrn_reflns_limit_h_max       7
_diffrn_reflns_limit_h_min       0
_diffrn_reflns_limit_k_max       5
_diffrn_reflns_limit_k_min       -4
_diffrn_reflns_limit_l_max       43
_diffrn_reflns_limit_l_min       0
_diffrn_reflns_number            6745
_diffrn_reflns_theta_full        36.83
_diffrn_reflns_theta_max         36.83
_diffrn_reflns_theta_min         3.13
_exptl_absorpt_coefficient_mu    28.261
_exptl_absorpt_correction_T_max  0.5385
_exptl_absorpt_correction_T_min  0.2257
_exptl_absorpt_correction_type   multi-scan
_exptl_absorpt_process_details   'HKL Scalepack (Otwinowski & Minor 1997)'
_exptl_crystal_colour            black
_exptl_crystal_density_diffrn    7.529
_exptl_crystal_description       plate
_exptl_crystal_F_000             941
_exptl_crystal_size_max          0.08
_exptl_crystal_size_mid          0.05
_exptl_crystal_size_min          0.03
_refine_diff_density_max         5.448
_refine_diff_density_min         -3.993
_refine_diff_density_rms         0.695
_refine_ls_extinction_coef       0.0021(4)
_refine_ls_extinction_expression Fc^*^=kFc[1+0.001xFc^2^\l^3^/sin(2\q)]^-1/4^
_refine_ls_extinction_method     SHELXL
_refine_ls_goodness_of_fit_ref   1.159
_refine_ls_matrix_type           full
_refine_ls_number_parameters     21
_refine_ls_number_reflns         418
_refine_ls_number_restraints     0
_refine_ls_restrained_S_all      1.159
_refine_ls_R_factor_all          0.0455
_refine_ls_R_factor_gt           0.0376
_refine_ls_shift/su_max          0.000
_refine_ls_shift/su_mean         0.000
_refine_ls_structure_factor_coef Fsqd
_refine_ls_weighting_details
'calc w=1/[\s^2^(Fo^2^)+(0.0491P)^2^+25.9981P] where P=(Fo^2^+2Fc^2^)/3'
_refine_ls_weighting_scheme      calc
_refine_ls_wR_factor_gt          0.0981
_refine_ls_wR_factor_ref         0.1037
_reflns_number_gt                375
_reflns_number_total             418
_reflns_threshold_expression     I>2\s(I)
_cod_data_source_file            ic301030f_si_001_2.cif
_cod_data_source_block           shelxl
_cod_original_sg_symbol_H-M      'I 4/m m m '
_cod_database_code               4330812
loop_
_symmetry_equiv_pos_as_xyz
'x, y, z'
'-x, -y, z'
'x, -y, -z'
'-x, y, -z'
'-y, -x, -z'
'y, x, -z'
'y, -x, z'
'-y, x, z'
'x+1/2, y+1/2, z+1/2'
'-x+1/2, -y+1/2, z+1/2'
'x+1/2, -y+1/2, -z+1/2'
'-x+1/2, y+1/2, -z+1/2'
'-y+1/2, -x+1/2, -z+1/2'
'y+1/2, x+1/2, -z+1/2'
'y+1/2, -x+1/2, z+1/2'
'-y+1/2, x+1/2, z+1/2'
'-x, -y, -z'
'x, y, -z'
'-x, y, z'
'x, -y, z'
'y, x, z'
'-y, -x, z'
'-y, x, -z'
'y, -x, -z'
'-x+1/2, -y+1/2, -z+1/2'
'x+1/2, y+1/2, -z+1/2'
'-x+1/2, y+1/2, z+1/2'
'x+1/2, -y+1/2, z+1/2'
'y+1/2, x+1/2, z+1/2'
'-y+1/2, -x+1/2, z+1/2'
'-y+1/2, x+1/2, -z+1/2'
'y+1/2, -x+1/2, -z+1/2'
loop_
_atom_site_label
_atom_site_type_symbol
_atom_site_fract_x
_atom_site_fract_y
_atom_site_fract_z
_atom_site_U_iso_or_equiv
_atom_site_adp_type
_atom_site_occupancy
_atom_site_symmetry_multiplicity
_atom_site_calc_flag
_atom_site_refinement_flags
Ce1 Ce 0.0000 0.0000 0.34751(3) 0.0090(2) Uani 1 8 d S
Fe1 Fe 0.0000 0.0000 0.0000 0.0129(6) Uani 1 16 d S
Fe2 Fe 0.0000 0.5000 0.44922(10) 0.0316(12) Uani 0.744(12) 4 d SP
Sb1 Sb 0.0000 0.5000 0.2500 0.0070(2) Uani 1 8 d S
Sb2 Sb 0.0000 0.0000 0.10983(4) 0.0091(2) Uani 1 8 d S
Sb3 Sb 0.0000 0.0000 0.48595(15) 0.0412(13) Uani 0.462(8) 8 d SP
loop_
_atom_site_aniso_label
_atom_site_aniso_U_11
_atom_site_aniso_U_22
_atom_site_aniso_U_33
_atom_site_aniso_U_23
_atom_site_aniso_U_13
_atom_site_aniso_U_12
Ce1 0.0079(3) 0.0079(3) 0.0112(4) 0.000 0.000 0.000
Fe1 0.0135(9) 0.0135(9) 0.0115(12) 0.000 0.000 0.000
Fe2 0.0087(12) 0.076(3) 0.0101(11) 0.000 0.000 0.000
Sb1 0.0067(3) 0.0067(3) 0.0075(4) 0.000 0.000 0.000
Sb2 0.0082(3) 0.0082(3) 0.0109(4) 0.000 0.000 0.000
Sb3 0.0461(18) 0.0461(18) 0.0315(18) 0.000 0.000 0.000
loop_
_atom_type_symbol
_atom_type_description
_atom_type_scat_dispersion_real
_atom_type_scat_dispersion_imag
_atom_type_scat_source
Ce Ce -0.2486 2.6331 'International Tables Vol C Tables 4.2.6.8 and 6.1.1.4'
Fe Fe 0.3463 0.8444 'International Tables Vol C Tables 4.2.6.8 and 6.1.1.4'
Sb Sb -0.5866 1.5461 'International Tables Vol C Tables 4.2.6.8 and 6.1.1.4'
loop_
_geom_angle_atom_site_label_1
_geom_angle_atom_site_label_2
_geom_angle_atom_site_label_3
_geom_angle
_geom_angle_site_symmetry_1
_geom_angle_site_symmetry_3
Sb2 Ce1 Sb2 140.13(5) 25 25_445
Sb2 Ce1 Sb2 83.323(15) 25 25_455
Sb2 Ce1 Sb2 83.323(15) 25_445 25_455
Sb2 Ce1 Sb2 83.323(15) 25 25_545
Sb2 Ce1 Sb2 83.323(15) 25_445 25_545
Sb2 Ce1 Sb2 140.13(5) 25_455 25_545
Sb2 Ce1 Sb1 133.692(19) 25 25_455
Sb2 Ce1 Sb1 80.10(2) 25_445 25_455
Sb2 Ce1 Sb1 80.10(2) 25_455 25_455
Sb2 Ce1 Sb1 133.692(19) 25_545 25_455
Sb2 Ce1 Sb1 133.692(19) 25 1_545
Sb2 Ce1 Sb1 80.10(2) 25_445 1_545
Sb2 Ce1 Sb1 133.692(19) 25_455 1_545
Sb2 Ce1 Sb1 80.10(2) 25_545 1_545
Sb1 Ce1 Sb1 54.621(17) 25_455 1_545
Sb2 Ce1 Sb1 80.10(2) 25 .
Sb2 Ce1 Sb1 133.692(19) 25_445 .
Sb2 Ce1 Sb1 80.10(2) 25_455 .
Sb2 Ce1 Sb1 133.692(19) 25_545 .
Sb1 Ce1 Sb1 54.621(17) 25_455 .
Sb1 Ce1 Sb1 80.91(3) 1_545 .
Sb2 Ce1 Sb1 80.10(2) 25 25
Sb2 Ce1 Sb1 133.692(19) 25_445 25
Sb2 Ce1 Sb1 133.692(19) 25_455 25
Sb2 Ce1 Sb1 80.10(2) 25_545 25
Sb1 Ce1 Sb1 80.91(3) 25_455 25
Sb1 Ce1 Sb1 54.621(17) 1_545 25
Sb1 Ce1 Sb1 54.621(17) . 25
Sb2 Ce1 Fe2 46.78(2) 25 .
Sb2 Ce1 Fe2 99.02(3) 25_445 .
Sb2 Ce1 Fe2 46.78(2) 25_455 .
Sb2 Ce1 Fe2 99.02(3) 25_545 .
Sb1 Ce1 Fe2 126.09(2) 25_455 .
Sb1 Ce1 Fe2 178.82(3) 1_545 .
Sb1 Ce1 Fe2 100.27(3) . .
Sb1 Ce1 Fe2 126.09(2) 25 .
Sb2 Ce1 Fe2 46.78(2) 25 21
Sb2 Ce1 Fe2 99.02(3) 25_445 21
Sb2 Ce1 Fe2 99.02(3) 25_455 21
Sb2 Ce1 Fe2 46.78(2) 25_545 21
Sb1 Ce1 Fe2 178.82(3) 25_455 21
Sb1 Ce1 Fe2 126.09(2) 1_545 21
Sb1 Ce1 Fe2 126.09(2) . 21
Sb1 Ce1 Fe2 100.27(3) 25 21
Fe2 Ce1 Fe2 53.18(4) . 21
Sb2 Ce1 Fe2 99.02(3) 25 21_455
Sb2 Ce1 Fe2 46.78(2) 25_445 21_455
Sb2 Ce1 Fe2 46.78(2) 25_455 21_455
Sb2 Ce1 Fe2 99.02(3) 25_545 21_455
Sb1 Ce1 Fe2 100.27(3) 25_455 21_455
Sb1 Ce1 Fe2 126.09(2) 1_545 21_455
Sb1 Ce1 Fe2 126.09(2) . 21_455
Sb1 Ce1 Fe2 178.82(3) 25 21_455
Fe2 Ce1 Fe2 53.18(4) . 21_455
Fe2 Ce1 Fe2 78.54(6) 21 21_455
Sb2 Ce1 Fe2 99.02(3) 25 1_545
Sb2 Ce1 Fe2 46.78(2) 25_445 1_545
Sb2 Ce1 Fe2 99.02(3) 25_455 1_545
Sb2 Ce1 Fe2 46.78(2) 25_545 1_545
Sb1 Ce1 Fe2 126.09(2) 25_455 1_545
Sb1 Ce1 Fe2 100.27(3) 1_545 1_545
Sb1 Ce1 Fe2 178.82(3) . 1_545
Sb1 Ce1 Fe2 126.09(2) 25 1_545
Fe2 Ce1 Fe2 78.54(6) . 1_545
Fe2 Ce1 Fe2 53.18(4) 21 1_545
Fe2 Ce1 Fe2 53.18(4) 21_455 1_545
Fe2 Fe1 Fe2 74.24(5) 13 25
Fe2 Fe1 Fe2 117.17(10) 13 13_545
Fe2 Fe1 Fe2 74.24(5) 25 13_545
Fe2 Fe1 Fe2 74.24(5) 13 25_455
Fe2 Fe1 Fe2 117.17(10) 25 25_455
Fe2 Fe1 Fe2 74.24(5) 13_545 25_455
Fe2 Fe1 Fe2 180.00(10) 13 29_444
Fe2 Fe1 Fe2 105.76(5) 25 29_444
Fe2 Fe1 Fe2 62.83(10) 13_545 29_444
Fe2 Fe1 Fe2 105.76(5) 25_455 29_444
Fe2 Fe1 Fe2 105.76(5) 13 9_444
Fe2 Fe1 Fe2 180.00(10) 25 9_444
Fe2 Fe1 Fe2 105.76(5) 13_545 9_444
Fe2 Fe1 Fe2 62.83(10) 25_455 9_444
Fe2 Fe1 Fe2 74.24(5) 29_444 9_444
Fe2 Fe1 Fe2 62.83(10) 13 29_454
Fe2 Fe1 Fe2 105.76(5) 25 29_454
Fe2 Fe1 Fe2 180.00(10) 13_545 29_454
Fe2 Fe1 Fe2 105.76(5) 25_455 29_454
Fe2 Fe1 Fe2 117.17(10) 29_444 29_454
Fe2 Fe1 Fe2 74.24(5) 9_444 29_454
Fe2 Fe1 Fe2 105.76(5) 13 9_544
Fe2 Fe1 Fe2 62.83(10) 25 9_544
Fe2 Fe1 Fe2 105.76(5) 13_545 9_544
Fe2 Fe1 Fe2 180.00(10) 25_455 9_544
Fe2 Fe1 Fe2 74.24(5) 29_444 9_544
Fe2 Fe1 Fe2 117.17(10) 9_444 9_544
Fe2 Fe1 Fe2 74.24(5) 29_454 9_544
Fe2 Fe1 Sb2 121.41(5) 13 17
Fe2 Fe1 Sb2 121.41(5) 25 17
Fe2 Fe1 Sb2 121.41(5) 13_545 17
Fe2 Fe1 Sb2 121.41(5) 25_455 17
Fe2 Fe1 Sb2 58.59(5) 29_444 17
Fe2 Fe1 Sb2 58.59(5) 9_444 17
Fe2 Fe1 Sb2 58.59(5) 29_454 17
Fe2 Fe1 Sb2 58.59(5) 9_544 17
Fe2 Fe1 Sb2 58.59(5) 13 .
Fe2 Fe1 Sb2 58.59(5) 25 .
Fe2 Fe1 Sb2 58.59(5) 13_545 .
Fe2 Fe1 Sb2 58.59(5) 25_455 .
Fe2 Fe1 Sb2 121.41(5) 29_444 .
Fe2 Fe1 Sb2 121.41(5) 9_444 .
Fe2 Fe1 Sb2 121.41(5) 29_454 .
Fe2 Fe1 Sb2 121.41(5) 9_544 .
Sb2 Fe1 Sb2 180.0 17 .
Fe2 Fe1 Sb3 131.38(5) 13 9_444
Fe2 Fe1 Sb3 131.38(5) 25 9_444
Fe2 Fe1 Sb3 57.50(6) 13_545 9_444
Fe2 Fe1 Sb3 57.50(6) 25_455 9_444
Fe2 Fe1 Sb3 48.62(5) 29_444 9_444
Fe2 Fe1 Sb3 48.62(5) 9_444 9_444
Fe2 Fe1 Sb3 122.50(6) 29_454 9_444
Fe2 Fe1 Sb3 122.50(6) 9_544 9_444
Sb2 Fe1 Sb3 83.19(7) 17 9_444
Sb2 Fe1 Sb3 96.81(7) . 9_444
Fe2 Fe1 Sb3 48.62(5) 13 25
Fe2 Fe1 Sb3 48.62(5) 25 25
Fe2 Fe1 Sb3 122.50(6) 13_545 25
Fe2 Fe1 Sb3 122.50(6) 25_455 25
Fe2 Fe1 Sb3 131.38(5) 29_444 25
Fe2 Fe1 Sb3 131.38(5) 9_444 25
Fe2 Fe1 Sb3 57.50(6) 29_454 25
Fe2 Fe1 Sb3 57.50(6) 9_544 25
Sb2 Fe1 Sb3 96.81(7) 17 25
Sb2 Fe1 Sb3 83.19(7) . 25
Sb3 Fe1 Sb3 180.0 9_444 25
Sb3 Fe2 Sb3 132.3(2) 1_565 .
Sb3 Fe2 Fe1 77.84(6) 1_565 9
Sb3 Fe2 Fe1 77.84(6) . 9
Sb3 Fe2 Fe1 77.84(6) 1_565 9_455
Sb3 Fe2 Fe1 77.84(6) . 9_455
Fe1 Fe2 Fe1 117.17(10) 9 9_455
Sb3 Fe2 Fe2 66.17(10) 1_565 17_566
Sb3 Fe2 Fe2 66.17(10) . 17_566
Fe1 Fe2 Fe2 58.59(5) 9 17_566
Fe1 Fe2 Fe2 58.59(5) 9_455 17_566
Sb3 Fe2 Sb2 103.53(5) 1_565 25_455
Sb3 Fe2 Sb2 103.53(5) . 25_455
Fe1 Fe2 Sb2 176.04(10) 9 25_455
Fe1 Fe2 Sb2 66.79(3) 9_455 25_455
Fe2 Fe2 Sb2 125.38(5) 17_566 25_455
Sb3 Fe2 Sb2 103.53(5) 1_565 25
Sb3 Fe2 Sb2 103.53(5) . 25
Fe1 Fe2 Sb2 66.79(3) 9 25
Fe1 Fe2 Sb2 176.04(10) 9_455 25
Fe2 Fe2 Sb2 125.38(5) 17_566 25
Sb2 Fe2 Sb2 109.25(10) 25_455 25
Sb3 Fe2 Sb3 14.11(15) 1_565 17_566
Sb3 Fe2 Sb3 118.22(10) . 17_566
Fe1 Fe2 Sb3 71.31(6) 9 17_566
Fe1 Fe2 Sb3 71.31(6) 9_455 17_566
Fe2 Fe2 Sb3 52.06(8) 17_566 17_566
Sb2 Fe2 Sb3 110.85(4) 25_455 17_566
Sb2 Fe2 Sb3 110.85(4) 25 17_566
Sb3 Fe2 Sb3 118.22(10) 1_565 17_556
Sb3 Fe2 Sb3 14.11(15) . 17_556
Fe1 Fe2 Sb3 71.31(6) 9 17_556
Fe1 Fe2 Sb3 71.31(6) 9_455 17_556
Fe2 Fe2 Sb3 52.06(8) 17_566 17_556
Sb2 Fe2 Sb3 110.85(4) 25_455 17_556
Sb2 Fe2 Sb3 110.85(4) 25 17_556
Sb3 Fe2 Sb3 104.11(17) 17_566 17_556
Sb3 Fe2 Ce1 153.10(12) 1_565 .
Sb3 Fe2 Ce1 74.56(9) . .
Fe1 Fe2 Ce1 113.80(3) 9 .
Fe1 Fe2 Ce1 113.80(3) 9_455 .
Fe2 Fe2 Ce1 140.73(3) 17_566 .
Sb2 Fe2 Ce1 63.37(5) 25_455 .
Sb2 Fe2 Ce1 63.37(5) 25 .
Sb3 Fe2 Ce1 167.22(10) 17_566 .
Sb3 Fe2 Ce1 88.67(7) 17_556 .
Sb3 Fe2 Ce1 74.56(9) 1_565 1_565
Sb3 Fe2 Ce1 153.10(11) . 1_565
Fe1 Fe2 Ce1 113.80(3) 9 1_565
Fe1 Fe2 Ce1 113.80(3) 9_455 1_565
Fe2 Fe2 Ce1 140.73(3) 17_566 1_565
Sb2 Fe2 Ce1 63.37(5) 25_455 1_565
Sb2 Fe2 Ce1 63.37(5) 25 1_565
Sb3 Fe2 Ce1 88.67(7) 17_566 1_565
Sb3 Fe2 Ce1 167.22(10) 17_556 1_565
Ce1 Fe2 Ce1 78.54(6) . 1_565
Sb1 Sb1 Sb1 180.0 25_565 25_455
Sb1 Sb1 Sb1 90.0 25_565 25_465
Sb1 Sb1 Sb1 90.0 25_455 25_465
Sb1 Sb1 Sb1 90.0 25_565 25
Sb1 Sb1 Sb1 90.0 25_455 25
Sb1 Sb1 Sb1 180.0 25_465 25
Sb1 Sb1 Ce1 117.310(8) 25_565 25_455
Sb1 Sb1 Ce1 62.690(8) 25_455 25_455
Sb1 Sb1 Ce1 62.690(8) 25_465 25_455
Sb1 Sb1 Ce1 117.310(8) 25 25_455
Sb1 Sb1 Ce1 62.690(8) 25_565 1_565
Sb1 Sb1 Ce1 117.310(9) 25_455 1_565
Sb1 Sb1 Ce1 62.690(8) 25_465 1_565
Sb1 Sb1 Ce1 117.310(8) 25 1_565
Ce1 Sb1 Ce1 125.379(17) 25_455 1_565
Sb1 Sb1 Ce1 62.690(8) 25_565 25
Sb1 Sb1 Ce1 117.310(8) 25_455 25
Sb1 Sb1 Ce1 117.310(8) 25_465 25
Sb1 Sb1 Ce1 62.690(8) 25 25
Ce1 Sb1 Ce1 80.91(3) 25_455 25
Ce1 Sb1 Ce1 125.379(17) 1_565 25
Sb1 Sb1 Ce1 117.310(8) 25_565 .
Sb1 Sb1 Ce1 62.690(8) 25_455 .
Sb1 Sb1 Ce1 117.310(9) 25_465 .
Sb1 Sb1 Ce1 62.690(8) 25 .
Ce1 Sb1 Ce1 125.379(17) 25_455 .
Ce1 Sb1 Ce1 80.91(3) 1_565 .
Ce1 Sb1 Ce1 125.379(17) 25 .
Fe2 Sb2 Fe2 70.42(5) 13_545 25_455
Fe2 Sb2 Fe2 109.25(10) 13_545 13
Fe2 Sb2 Fe2 70.42(5) 25_455 13
Fe2 Sb2 Fe2 70.42(5) 13_545 25
Fe2 Sb2 Fe2 109.25(10) 25_455 25
Fe2 Sb2 Fe2 70.42(5) 13 25
Fe2 Sb2 Fe1 54.62(5) 13_545 .
Fe2 Sb2 Fe1 54.62(5) 25_455 .
Fe2 Sb2 Fe1 54.62(5) 13 .
Fe2 Sb2 Fe1 54.62(5) 25 .
Fe2 Sb2 Ce1 137.681(16) 13_545 25
Fe2 Sb2 Ce1 137.681(16) 25_455 25
Fe2 Sb2 Ce1 69.84(4) 13 25
Fe2 Sb2 Ce1 69.84(4) 25 25
Fe1 Sb2 Ce1 109.94(2) . 25
Fe2 Sb2 Ce1 69.84(4) 13_545 25_445
Fe2 Sb2 Ce1 69.84(4) 25_455 25_445
Fe2 Sb2 Ce1 137.681(16) 13 25_445
Fe2 Sb2 Ce1 137.681(16) 25 25_445
Fe1 Sb2 Ce1 109.94(2) . 25_445
Ce1 Sb2 Ce1 140.13(5) 25 25_445
Fe2 Sb2 Ce1 69.84(4) 13_545 25_545
Fe2 Sb2 Ce1 137.681(16) 25_455 25_545
Fe2 Sb2 Ce1 137.681(16) 13 25_545
Fe2 Sb2 Ce1 69.84(4) 25 25_545
Fe1 Sb2 Ce1 109.94(2) . 25_545
Ce1 Sb2 Ce1 83.323(15) 25 25_545
Ce1 Sb2 Ce1 83.323(15) 25_445 25_545
Fe2 Sb2 Ce1 137.681(16) 13_545 25_455
Fe2 Sb2 Ce1 69.84(4) 25_455 25_455
Fe2 Sb2 Ce1 69.84(4) 13 25_455
Fe2 Sb2 Ce1 137.681(16) 25 25_455
Fe1 Sb2 Ce1 109.94(2) . 25_455
Ce1 Sb2 Ce1 83.323(15) 25 25_455
Ce1 Sb2 Ce1 83.323(15) 25_445 25_455
Ce1 Sb2 Ce1 140.13(5) 25_545 25_455
Sb3 Sb3 Fe2 113.83(10) 17_556 21_455
Sb3 Sb3 Fe2 113.83(10) 17_556 1_545
Fe2 Sb3 Fe2 80.60(8) 21_455 1_545
Sb3 Sb3 Fe2 113.83(10) 17_556 21
Fe2 Sb3 Fe2 132.3(2) 21_455 21
Fe2 Sb3 Fe2 80.60(7) 1_545 21
Sb3 Sb3 Fe2 113.83(10) 17_556 .
Fe2 Sb3 Fe2 80.60(7) 21_455 .
Fe2 Sb3 Fe2 132.3(2) 1_545 .
Fe2 Sb3 Fe2 80.60(7) 21 .
Sb3 Sb3 Fe2 52.06(8) 17_556 5_656
Fe2 Sb3 Fe2 165.89(15) 21_455 5_656
Fe2 Sb3 Fe2 104.39(5) 1_545 5_656
Fe2 Sb3 Fe2 61.78(10) 21 5_656
Fe2 Sb3 Fe2 104.39(5) . 5_656
Sb3 Sb3 Fe2 52.06(8) 17_556 17_566
Fe2 Sb3 Fe2 104.39(5) 21_455 17_566
Fe2 Sb3 Fe2 165.89(15) 1_545 17_566
Fe2 Sb3 Fe2 104.39(5) 21 17_566
Fe2 Sb3 Fe2 61.78(10) . 17_566
Fe2 Sb3 Fe2 67.78(9) 5_656 17_566
Sb3 Sb3 Fe2 52.06(8) 17_556 5_556
Fe2 Sb3 Fe2 61.78(10) 21_455 5_556
Fe2 Sb3 Fe2 104.39(5) 1_545 5_556
Fe2 Sb3 Fe2 165.89(15) 21 5_556
Fe2 Sb3 Fe2 104.39(5) . 5_556
Fe2 Sb3 Fe2 104.11(17) 5_656 5_556
Fe2 Sb3 Fe2 67.78(9) 17_566 5_556
Sb3 Sb3 Fe2 52.06(8) 17_556 17_556
Fe2 Sb3 Fe2 104.39(5) 21_455 17_556
Fe2 Sb3 Fe2 61.78(10) 1_545 17_556
Fe2 Sb3 Fe2 104.39(5) 21 17_556
Fe2 Sb3 Fe2 165.89(15) . 17_556
Fe2 Sb3 Fe2 67.78(9) 5_656 17_556
Fe2 Sb3 Fe2 104.11(17) 17_566 17_556
Fe2 Sb3 Fe2 67.78(9) 5_556 17_556
Sb3 Sb3 Fe1 83.19(7) 17_556 9
Fe2 Sb3 Fe1 133.64(5) 21_455 9
Fe2 Sb3 Fe1 133.64(5) 1_545 9
Fe2 Sb3 Fe1 53.54(3) 21 9
Fe2 Sb3 Fe1 53.54(3) . 9
Fe2 Sb3 Fe1 51.20(3) 5_656 9
Fe2 Sb3 Fe1 51.20(3) 17_566 9
Fe2 Sb3 Fe1 118.73(10) 5_556 9
Fe2 Sb3 Fe1 118.73(10) 17_556 9
Sb3 Sb3 Fe1 83.19(7) 17_556 9_445
Fe2 Sb3 Fe1 53.54(3) 21_455 9_445
Fe2 Sb3 Fe1 53.54(3) 1_545 9_445
Fe2 Sb3 Fe1 133.64(5) 21 9_445
Fe2 Sb3 Fe1 133.64(5) . 9_445
Fe2 Sb3 Fe1 118.73(10) 5_656 9_445
Fe2 Sb3 Fe1 118.73(10) 17_566 9_445
Fe2 Sb3 Fe1 51.20(3) 5_556 9_445
Fe2 Sb3 Fe1 51.20(3) 17_556 9_445
Fe1 Sb3 Fe1 166.37(15) 9 9_445
Sb3 Sb3 Fe1 83.19(7) 17_556 9_545
Fe2 Sb3 Fe1 133.64(5) 21_455 9_545
Fe2 Sb3 Fe1 53.54(3) 1_545 9_545
Fe2 Sb3 Fe1 53.54(3) 21 9_545
Fe2 Sb3 Fe1 133.64(5) . 9_545
Fe2 Sb3 Fe1 51.20(3) 5_656 9_545
Fe2 Sb3 Fe1 118.73(10) 17_566 9_545
Fe2 Sb3 Fe1 118.73(10) 5_556 9_545
Fe2 Sb3 Fe1 51.20(3) 17_556 9_545
Fe1 Sb3 Fe1 89.193(18) 9 9_545
Fe1 Sb3 Fe1 89.193(18) 9_445 9_545
loop_
_geom_bond_atom_site_label_1
_geom_bond_atom_site_label_2
_geom_bond_distance
_geom_bond_site_symmetry_2
Ce1 Sb2 3.2522(11) 25
Ce1 Sb2 3.2522(11) 25_445
Ce1 Sb2 3.2522(11) 25_455
Ce1 Sb2 3.2522(11) 25_545
Ce1 Sb1 3.3318(8) 25_455
Ce1 Sb1 3.3318(8) 1_545
Ce1 Sb1 3.3318(8) .
Ce1 Sb1 3.3318(8) 25
Ce1 Fe2 3.415(2) .
Ce1 Fe2 3.415(2) 21
Ce1 Fe2 3.415(2) 21_455
Ce1 Fe2 3.415(2) 1_545
Fe1 Fe2 2.5331(15) 13
Fe1 Fe2 2.5331(15) 25
Fe1 Fe2 2.5331(15) 13_545
Fe1 Fe2 2.5331(15) 25_455
Fe1 Fe2 2.5331(15) 29_444
Fe1 Fe2 2.5331(15) 9_444
Fe1 Fe2 2.5331(15) 29_454
Fe1 Fe2 2.5331(15) 9_544
Fe1 Sb2 2.8553(11) 17
Fe1 Sb2 2.8553(11) .
Fe1 Sb3 3.0791(12) 9_444
Fe1 Sb3 3.0791(12) 25
Fe2 Sb3 2.3634(19) 1_565
Fe2 Sb3 2.3634(19) .
Fe2 Fe1 2.5331(15) 9
Fe2 Fe1 2.5331(15) 9_455
Fe2 Fe2 2.641(5) 17_566
Fe2 Sb2 2.6514(18) 25_455
Fe2 Sb2 2.6514(18) 25
Fe2 Sb3 2.741(3) 17_566
Fe2 Sb3 2.741(3) 17_556
Fe2 Ce1 3.415(2) 1_565
Sb1 Sb1 3.0573(11) 25_565
Sb1 Sb1 3.0573(11) 25_455
Sb1 Sb1 3.0573(11) 25_465
Sb1 Sb1 3.0573(11) 25
Sb1 Ce1 3.3318(8) 25_455
Sb1 Ce1 3.3318(8) 1_565
Sb1 Ce1 3.3318(8) 25
Sb2 Fe2 2.6514(18) 13_545
Sb2 Fe2 2.6514(18) 25_455
Sb2 Fe2 2.6514(18) 13
Sb2 Fe2 2.6514(18) 25
Sb2 Ce1 3.2522(11) 25
Sb2 Ce1 3.2522(11) 25_445
Sb2 Ce1 3.2522(11) 25_545
Sb2 Ce1 3.2522(11) 25_455
Sb3 Sb3 0.731(8) 17_556
Sb3 Fe2 2.3634(19) 21_455
Sb3 Fe2 2.3634(19) 1_545
Sb3 Fe2 2.3634(19) 21
Sb3 Fe2 2.741(3) 5_656
Sb3 Fe2 2.741(3) 17_566
Sb3 Fe2 2.741(3) 5_556
Sb3 Fe2 2.741(3) 17_556
Sb3 Fe1 3.0791(12) 9
Sb3 Fe1 3.0791(12) 9_445
Sb3 Fe1 3.0791(12) 9_545
