#------------------------------------------------------------------------------
#$Date: 2016-03-23 20:26:43 +0200 (Wed, 23 Mar 2016) $
#$Revision: 179412 $
#$URL: svn://www.crystallography.net/cod/cif/4/33/09/4330901.cif $
#------------------------------------------------------------------------------
#
# This file is available in the Crystallography Open Database (COD),
# http://www.crystallography.net/
#
# All data on this site have been placed in the public domain by the
# contributors.
#
data_4330901
loop_
_publ_author_name
'Wenlong Yin'
'Wendong Wang'
'Lei Bai'
'Kai Feng'
'Youguo Shi'
'Wenyu Hao'
'Jiyong Yao'
'Yicheng Wu'
_publ_contact_author_address
;
Center for Crystal Research and Development, 
Technical Institute of Physics and Chemistry, Chinese Academy of Sciences, 
Beijing 100190, P.R. China
;
_publ_contact_author_email       jyao@mail.ipc.ac.cn
_publ_contact_author_name        'Jiyong Yao'
_publ_section_title
;
 Syntheses, Structures, Physical Properties, and Electronic Structures of
 Ba2MLnTe5 (M = Ga and Ln = Sm, Gd, Dy, Er, Y; M = In and Ln = Ce, Nd, Sm,
 Gd, Dy, Er, Y)
;
_journal_name_full               'Inorganic Chemistry'
_journal_page_first              11736
_journal_page_last               11744
_journal_paper_doi               10.1021/ic301655e
_journal_volume                  51
_journal_year                    2012
_chemical_formula_sum            'Ba2 In Nd Te5'
_chemical_formula_weight         1171.74
_space_group_IT_number           36
_symmetry_cell_setting           orthorhombic
_symmetry_space_group_name_Hall  'C 2c -2'
_symmetry_space_group_name_H-M   'C m c 21'
_atom_sites_solution_primary     direct
_atom_sites_solution_secondary   difmap
_audit_creation_method           SHELXL-97
_audit_update_record
;
2012-07-24 # Formatted by publCIF
;
_cell_angle_alpha                90.00
_cell_angle_beta                 90.00
_cell_angle_gamma                90.00
_cell_formula_units_Z            4
_cell_length_a                   4.5579(9)
_cell_length_b                   20.194(4)
_cell_length_c                   14.104(3)
_cell_measurement_reflns_used    2599
_cell_measurement_temperature    153(2)
_cell_measurement_theta_max      29.9991
_cell_measurement_theta_min      2.4809
_cell_volume                     1298.2(5)
_computing_cell_refinement       'CrystalClear (Rigaku Inc., 2008)'
_computing_data_collection       'CrystalClear (Rigaku Inc., 2008)'
_computing_data_reduction        'CrystalClear (Rigaku Inc., 2008)'
_computing_molecular_graphics    'SHELXL-97 (Sheldrick, 1997)'
_computing_publication_material  Diamond
_computing_structure_refinement  'SHELXL-97 (Sheldrick, 1997)'
_computing_structure_solution    'SHELXS-97 (Sheldrick, 1990)'
_diffrn_ambient_temperature      153(2)
_diffrn_detector_area_resol_mean 28.5714
_diffrn_measured_fraction_theta_full 0.996
_diffrn_measured_fraction_theta_max 0.996
_diffrn_measurement_device_type  'Rigaku AFC10 diffractometer'
_diffrn_measurement_method       dtprofit.ref
_diffrn_radiation_monochromator  'Graphite Monochromator'
_diffrn_radiation_source         'Rotating Anode'
_diffrn_radiation_type           MoK\a
_diffrn_radiation_wavelength     0.71073
_diffrn_reflns_av_R_equivalents  0.0517
_diffrn_reflns_av_sigmaI/netI    0.0769
_diffrn_reflns_limit_h_max       5
_diffrn_reflns_limit_h_min       -6
_diffrn_reflns_limit_k_max       16
_diffrn_reflns_limit_k_min       -28
_diffrn_reflns_limit_l_max       19
_diffrn_reflns_limit_l_min       -19
_diffrn_reflns_number            4468
_diffrn_reflns_theta_full        30.03
_diffrn_reflns_theta_max         30.03
_diffrn_reflns_theta_min         2.89
_exptl_absorpt_coefficient_mu    22.626
_exptl_absorpt_correction_T_max  0.239
_exptl_absorpt_correction_T_min  0.042
_exptl_absorpt_correction_type   numerical
_exptl_absorpt_process_details   'face indexed'
_exptl_crystal_colour            Black
_exptl_crystal_density_diffrn    5.995
_exptl_crystal_description       Chip
_exptl_crystal_F_000             1924
_exptl_crystal_size_max          0.1800
_exptl_crystal_size_mid          0.1350
_exptl_crystal_size_min          0.0600
_refine_diff_density_max         3.123
_refine_diff_density_min         -2.554
_refine_diff_density_rms         0.528
_refine_ls_abs_structure_details 'Flack H D (1983), Acta Cryst. A39, 876-881'
_refine_ls_abs_structure_Flack   -0.01(4)
_refine_ls_extinction_coef       0.00052(3)
_refine_ls_extinction_expression Fc^*^=kFc[1+0.001xFc^2^\l^3^/sin(2\q)]^-1/4^
_refine_ls_extinction_method     SHELXL
_refine_ls_goodness_of_fit_ref   1.005
_refine_ls_matrix_type           full
_refine_ls_number_parameters     56
_refine_ls_number_reflns         2074
_refine_ls_number_restraints     1
_refine_ls_restrained_S_all      1.005
_refine_ls_R_factor_all          0.0384
_refine_ls_R_factor_gt           0.0356
_refine_ls_shift/su_max          0.000
_refine_ls_shift/su_mean         0.000
_refine_ls_structure_factor_coef Fsqd
_refine_ls_weighting_details
'calc w=1/[\s^2^(Fo^2^)+(0.0100P)^2^+0.0000P] where P=(Fo^2^+2Fc^2^)/3'
_refine_ls_weighting_scheme      calc
_refine_ls_wR_factor_gt          0.0677
_refine_ls_wR_factor_ref         0.0687
_reflns_number_gt                1958
_reflns_number_total             2074
_reflns_threshold_expression     >2sigma(I)
_cod_data_source_file            ic301655e_si_002_08.cif
_cod_data_source_block           Ba2InNdTe5
_cod_original_cell_volume        1298.1(4)
_cod_database_code               4330901
loop_
_symmetry_equiv_pos_as_xyz
'x, y, z'
'-x, -y, z+1/2'
'x, -y, z+1/2'
'-x, y, z'
'x+1/2, y+1/2, z'
'-x+1/2, -y+1/2, z+1/2'
'x+1/2, -y+1/2, z+1/2'
'-x+1/2, y+1/2, z'
loop_
_atom_site_label
_atom_site_type_symbol
_atom_site_fract_x
_atom_site_fract_y
_atom_site_fract_z
_atom_site_U_iso_or_equiv
_atom_site_adp_type
_atom_site_occupancy
_atom_site_symmetry_multiplicity
_atom_site_calc_flag
_atom_site_refinement_flags
Ba1 Ba 0.0000 0.12857(5) 0.31688(7) 0.00659(19) Uani 1 2 d S
Ba2 Ba 0.0000 0.11791(5) 0.68199(6) 0.0064(2) Uani 1 2 d S
In In 0.0000 0.44394(6) 0.43481(8) 0.0081(2) Uani 1 2 d S
Nd Nd 0.0000 0.20899(4) 0.01749(6) 0.00712(18) Uani 1 2 d S
Te1 Te 0.0000 0.35934(5) 0.00120(8) 0.0064(2) Uani 1 2 d S
Te2 Te 0.0000 0.29237(5) 0.66608(7) 0.0062(2) Uani 1 2 d S
Te3 Te 0.0000 0.31153(5) 0.36022(7) 0.0073(2) Uani 1 2 d S
Te4 Te 0.0000 0.50388(5) 0.26232(8) 0.0066(2) Uani 1 2 d S
Te5 Te 0.0000 0.04677(5) 0.05101(8) 0.0068(2) Uani 1 2 d S
loop_
_atom_site_aniso_label
_atom_site_aniso_U_11
_atom_site_aniso_U_22
_atom_site_aniso_U_33
_atom_site_aniso_U_23
_atom_site_aniso_U_13
_atom_site_aniso_U_12
Ba1 0.0047(4) 0.0078(4) 0.0073(4) 0.0002(4) 0.000 0.000
Ba2 0.0060(5) 0.0057(4) 0.0076(4) 0.0008(3) 0.000 0.000
In 0.0085(6) 0.0088(6) 0.0069(5) 0.0006(4) 0.000 0.000
Nd 0.0065(4) 0.0068(4) 0.0081(4) 0.0009(3) 0.000 0.000
Te1 0.0069(4) 0.0061(4) 0.0061(5) -0.0002(4) 0.000 0.000
Te2 0.0061(5) 0.0061(5) 0.0065(5) -0.0004(4) 0.000 0.000
Te3 0.0093(5) 0.0049(5) 0.0077(5) -0.0002(4) 0.000 0.000
Te4 0.0081(4) 0.0044(4) 0.0075(4) -0.0002(4) 0.000 0.000
Te5 0.0062(5) 0.0069(5) 0.0075(5) 0.0008(4) 0.000 0.000
loop_
_atom_type_symbol
_atom_type_description
_atom_type_scat_dispersion_real
_atom_type_scat_dispersion_imag
_atom_type_scat_source
In In -0.7276 1.3100 'International Tables Vol C Tables 4.2.6.8 and 6.1.1.4'
Te Te -0.5308 1.6751 'International Tables Vol C Tables 4.2.6.8 and 6.1.1.4'
Ba Ba -0.3244 2.2819 'International Tables Vol C Tables 4.2.6.8 and 6.1.1.4'
Nd Nd -0.1943 3.0179 'International Tables Vol C Tables 4.2.6.8 and 6.1.1.4'
loop_
_geom_angle_atom_site_label_1
_geom_angle_atom_site_label_2
_geom_angle_atom_site_label_3
_geom_angle
_geom_angle_site_symmetry_1
_geom_angle_site_symmetry_3
Te1 Ba1 Te1 82.23(3) 6 6_455
Te1 Ba1 Te4 130.32(4) 6 5_445
Te1 Ba1 Te4 77.66(3) 6_455 5_445
Te1 Ba1 Te4 77.66(3) 6 5_545
Te1 Ba1 Te4 130.32(4) 6_455 5_545
Te4 Ba1 Te4 81.75(3) 5_445 5_545
Te1 Ba1 Te2 148.36(4) 6 6_454
Te1 Ba1 Te2 89.74(2) 6_455 6_454
Te4 Ba1 Te2 76.68(3) 5_445 6_454
Te4 Ba1 Te2 128.41(4) 5_545 6_454
Te1 Ba1 Te2 89.74(2) 6 6_554
Te1 Ba1 Te2 148.36(4) 6_455 6_554
Te4 Ba1 Te2 128.41(4) 5_445 6_554
Te4 Ba1 Te2 76.68(3) 5_545 6_554
Te2 Ba1 Te2 81.19(3) 6_454 6_554
Te1 Ba1 Te3 78.94(3) 6 .
Te1 Ba1 Te3 78.94(3) 6_455 .
Te4 Ba1 Te3 138.546(18) 5_445 .
Te4 Ba1 Te3 138.546(18) 5_545 .
Te2 Ba1 Te3 69.48(3) 6_454 .
Te2 Ba1 Te3 69.48(3) 6_554 .
Te1 Ba1 Ba1 131.116(17) 6 1_455
Te1 Ba1 Ba1 48.885(17) 6_455 1_455
Te4 Ba1 Ba1 49.123(17) 5_445 1_455
Te4 Ba1 Ba1 130.876(17) 5_545 1_455
Te2 Ba1 Ba1 49.405(17) 6_454 1_455
Te2 Ba1 Ba1 130.595(17) 6_554 1_455
Te3 Ba1 Ba1 90.0 . 1_455
Te1 Ba1 Ba1 48.885(17) 6 1_655
Te1 Ba1 Ba1 131.116(17) 6_455 1_655
Te4 Ba1 Ba1 130.876(17) 5_445 1_655
Te4 Ba1 Ba1 49.123(17) 5_545 1_655
Te2 Ba1 Ba1 130.595(17) 6_454 1_655
Te2 Ba1 Ba1 49.405(17) 6_554 1_655
Te3 Ba1 Ba1 90.0 . 1_655
Ba1 Ba1 Ba1 180.0 1_455 1_655
Te1 Ba2 Te1 82.67(3) 6_455 6
Te1 Ba2 Te2 79.64(3) 6_455 .
Te1 Ba2 Te2 79.64(3) 6 .
Te1 Ba2 Te4 84.48(2) 6_455 6_455
Te1 Ba2 Te4 138.97(4) 6 6_455
Te2 Ba2 Te4 135.55(2) . 6_455
Te1 Ba2 Te4 138.97(4) 6_455 6
Te1 Ba2 Te4 84.48(2) 6 6
Te2 Ba2 Te4 135.55(2) . 6
Te4 Ba2 Te4 80.17(3) 6_455 6
Te1 Ba2 Te3 149.57(4) 6_455 6
Te1 Ba2 Te3 92.53(2) 6 6
Te2 Ba2 Te3 69.94(3) . 6
Te4 Ba2 Te3 116.69(3) 6_455 6
Te4 Ba2 Te3 69.61(3) 6 6
Te1 Ba2 Te3 92.53(2) 6_455 6_455
Te1 Ba2 Te3 149.57(4) 6 6_455
Te2 Ba2 Te3 69.94(3) . 6_455
Te4 Ba2 Te3 69.61(3) 6_455 6_455
Te4 Ba2 Te3 116.69(3) 6 6_455
Te3 Ba2 Te3 76.53(3) 6 6_455
Te1 Ba2 Te5 75.97(3) 6_455 2
Te1 Ba2 Te5 75.97(3) 6 2
Te2 Ba2 Te5 147.31(4) . 2
Te4 Ba2 Te5 63.13(3) 6_455 2
Te4 Ba2 Te5 63.13(3) 6 2
Te3 Ba2 Te5 132.08(2) 6 2
Te3 Ba2 Te5 132.08(2) 6_455 2
Te1 Ba2 Ba2 131.335(17) 6_455 1_655
Te1 Ba2 Ba2 48.664(17) 6 1_655
Te2 Ba2 Ba2 90.0 . 1_655
Te4 Ba2 Ba2 130.085(17) 6_455 1_655
Te4 Ba2 Ba2 49.916(17) 6 1_655
Te3 Ba2 Ba2 51.737(15) 6 1_655
Te3 Ba2 Ba2 128.264(15) 6_455 1_655
Te5 Ba2 Ba2 90.0 2 1_655
Te1 Ba2 Ba2 48.664(17) 6_455 1_455
Te1 Ba2 Ba2 131.335(17) 6 1_455
Te2 Ba2 Ba2 90.0 . 1_455
Te4 Ba2 Ba2 49.916(17) 6_455 1_455
Te4 Ba2 Ba2 130.085(17) 6 1_455
Te3 Ba2 Ba2 128.264(15) 6 1_455
Te3 Ba2 Ba2 51.737(15) 6_455 1_455
Te5 Ba2 Ba2 90.0 2 1_455
Ba2 Ba2 Ba2 180.0 1_655 1_455
Te4 In Te5 119.46(3) . 6
Te4 In Te5 119.46(3) . 6_455
Te5 In Te5 108.21(5) 6 6_455
Te4 In Te3 94.97(5) . .
Te5 In Te3 105.98(4) 6 .
Te5 In Te3 105.98(4) 6_455 .
Te1 Nd Te2 93.44(3) . 6_554
Te1 Nd Te2 93.44(3) . 6_454
Te2 Nd Te2 94.79(4) 6_554 6_454
Te1 Nd Te3 94.39(3) . 6_454
Te2 Nd Te3 171.90(4) 6_554 6_454
Te2 Nd Te3 86.79(2) 6_454 6_454
Te1 Nd Te3 94.39(3) . 6_554
Te2 Nd Te3 86.79(2) 6_554 6_554
Te2 Nd Te3 171.90(4) 6_454 6_554
Te3 Nd Te3 90.57(4) 6_454 6_554
Te1 Nd Te5 176.12(5) . .
Te2 Nd Te5 83.95(3) 6_554 .
Te2 Nd Te5 83.95(3) 6_454 .
Te3 Nd Te5 88.33(3) 6_454 .
Te3 Nd Te5 88.33(3) 6_554 .
Nd Te1 Ba2 94.41(3) . 6_554
Nd Te1 Ba2 94.41(3) . 6_454
Ba2 Te1 Ba2 82.67(3) 6_554 6_454
Nd Te1 Ba1 97.29(3) . 6_454
Ba2 Te1 Ba1 168.30(4) 6_554 6_454
Ba2 Te1 Ba1 96.35(2) 6_454 6_454
Nd Te1 Ba1 97.29(3) . 6_554
Ba2 Te1 Ba1 96.35(2) 6_554 6_554
Ba2 Te1 Ba1 168.30(4) 6_454 6_554
Ba1 Te1 Ba1 82.23(3) 6_454 6_554
Nd Te2 Nd 94.79(4) 6_455 6
Nd Te2 Ba1 153.38(4) 6_455 6
Nd Te2 Ba1 86.34(2) 6 6
Nd Te2 Ba1 86.34(2) 6_455 6_455
Nd Te2 Ba1 153.38(4) 6 6_455
Ba1 Te2 Ba1 81.19(3) 6 6_455
Nd Te2 Ba2 91.96(3) 6_455 .
Nd Te2 Ba2 91.96(3) 6 .
Ba1 Te2 Ba2 114.60(3) 6 .
Ba1 Te2 Ba2 114.60(3) 6_455 .
In Te3 Nd 82.36(3) . 6
In Te3 Nd 82.36(3) . 6_455
Nd Te3 Nd 90.57(4) 6 6_455
In Te3 Ba2 83.68(3) . 6_454
Nd Te3 Ba2 164.26(4) 6 6_454
Nd Te3 Ba2 94.73(2) 6_455 6_454
In Te3 Ba2 83.68(3) . 6_554
Nd Te3 Ba2 94.73(2) 6 6_554
Nd Te3 Ba2 164.26(4) 6_455 6_554
Ba2 Te3 Ba2 76.53(3) 6_454 6_554
In Te3 Ba1 167.91(4) . .
Nd Te3 Ba1 89.16(3) 6 .
Nd Te3 Ba1 89.16(3) 6_455 .
Ba2 Te3 Ba1 105.69(3) 6_454 .
Ba2 Te3 Ba1 105.69(3) 6_554 .
In Te4 Ba1 97.14(4) . 5
In Te4 Ba1 97.14(4) . 5_455
Ba1 Te4 Ba1 81.76(3) 5 5_455
In Te4 Ba2 88.69(4) . 6_454
Ba1 Te4 Ba2 174.06(4) 5 6_454
Ba1 Te4 Ba2 98.73(2) 5_455 6_454
In Te4 Ba2 88.69(4) . 6_554
Ba1 Te4 Ba2 98.73(2) 5 6_554
Ba1 Te4 Ba2 174.06(4) 5_455 6_554
Ba2 Te4 Ba2 80.17(3) 6_454 6_554
In Te5 In 108.21(5) 6_454 6_554
In Te5 Nd 81.42(3) 6_454 .
In Te5 Nd 81.42(3) 6_554 .
In Te5 Ba2 109.95(3) 6_454 2_554
In Te5 Ba2 109.95(3) 6_554 2_554
Nd Te5 Ba2 159.16(4) . 2_554
loop_
_geom_bond_atom_site_label_1
_geom_bond_atom_site_label_2
_geom_bond_distance
_geom_bond_site_symmetry_2
Ba1 Te1 3.4657(12) 6
Ba1 Te1 3.4657(12) 6_455
Ba1 Te4 3.4823(12) 5_445
Ba1 Te4 3.4823(12) 5_545
Ba1 Te2 3.5023(12) 6_454
Ba1 Te2 3.5023(12) 6_554
Ba1 Te3 3.7449(16) .
Ba1 Ba1 4.5579(9) 1_455
Ba1 Ba1 4.5579(9) 1_655
Ba2 Te1 3.4505(11) 6_455
Ba2 Te1 3.4505(11) 6
Ba2 Te2 3.5301(16) .
Ba2 Te4 3.5392(12) 6_455
Ba2 Te4 3.5392(12) 6
Ba2 Te3 3.6800(12) 6
Ba2 Te3 3.6800(11) 6_455
Ba2 Te5 3.8043(15) 2
Ba2 Ba2 4.5579(9) 1_655
Ba2 Ba2 4.5579(9) 1_455
In Te4 2.7173(16) .
In Te5 2.8133(9) 6
In Te5 2.8133(9) 6_455
In Te3 2.8733(17) .
Nd Te1 3.0449(14) .
Nd Te2 3.0961(10) 6_554
Nd Te2 3.0961(9) 6_454
Nd Te3 3.2071(10) 6_454
Nd Te3 3.2071(10) 6_554
Nd Te5 3.3097(15) .
Te1 Ba2 3.4505(11) 6_554
Te1 Ba2 3.4505(11) 6_454
Te1 Ba1 3.4657(12) 6_454
Te1 Ba1 3.4657(12) 6_554
Te2 Nd 3.0962(10) 6_455
Te2 Nd 3.0962(10) 6
Te2 Ba1 3.5023(12) 6
Te2 Ba1 3.5023(12) 6_455
Te3 Nd 3.2070(10) 6
Te3 Nd 3.2070(10) 6_455
Te3 Ba2 3.6800(12) 6_454
Te3 Ba2 3.6800(12) 6_554
Te4 Ba1 3.4823(12) 5
Te4 Ba1 3.4823(12) 5_455
Te4 Ba2 3.5392(12) 6_454
Te4 Ba2 3.5392(12) 6_554
Te5 In 2.8133(9) 6_454
Te5 In 2.8133(9) 6_554
Te5 Ba2 3.8042(15) 2_554
