#------------------------------------------------------------------------------
#$Date: 2016-02-16 22:30:59 +0200 (Tue, 16 Feb 2016) $
#$Revision: 176467 $
#$URL: svn://www.crystallography.net/cod/cif/4/33/29/4332943.cif $
#------------------------------------------------------------------------------
#
# This file is available in the Crystallography Open Database (COD),
# http://www.crystallography.net/. The original data for this entry
# were provided the Crystal Eye server at
# http://wwmm.ch.cam.ac.uk/crystaleye/, created by Nick Day at the
# Peter Murray-Rust laboratory.
#
# The file may be used within the scientific community so long as
# proper attribution is given to the journal article from which the
# data were obtained.
#
data_4332943
loop_
_publ_author_name
'Han, Mi-Kyung'
'Wu, Ya-Qiao'
'Kramer, Matthew'
'Vatovez, Benjamin'
'Grandjean, Fernande'
'Long, Gary J.'
'Miller, Gordon J.'
_publ_section_title
;
 Superstructure in RE2-xFe4Si14-y(RE = Y, Gd&#x2212;Lu) Characterized by
 Diffraction, Electron Microscopy, and M\"ossbauer Spectroscopy
;
_journal_issue                   26
_journal_name_full               'Inorganic Chemistry'
_journal_page_first              10503
_journal_page_last               10519
_journal_paper_doi               10.1021/ic061117c
_journal_volume                  45
_journal_year                    2006
_chemical_formula_sum            'Fe4 Gd1.2 Si9.9'
_chemical_formula_weight         690.19
_chemical_name_systematic
; 
 ? 
;
_space_group_IT_number           194
_symmetry_cell_setting           hexagonal
_symmetry_space_group_name_Hall  '-P 6c 2c'
_symmetry_space_group_name_H-M   'P 63/m m c'
_atom_sites_solution_hydrogens   geom
_atom_sites_solution_primary     direct
_atom_sites_solution_secondary   difmap
_audit_creation_method           SHELXL-97
_cell_angle_alpha                90.00
_cell_angle_beta                 90.00
_cell_angle_gamma                120.00
_cell_formula_units_Z            1
_cell_length_a                   3.9516(6)
_cell_length_b                   3.9516(6)
_cell_length_c                   15.342(3)
_cell_measurement_temperature    293(2)
_cell_volume                     207.47(6)
_computing_cell_refinement       'Bruker XSCANS'
_computing_data_collection       'Bruker XSCANS'
_computing_data_reduction        'Bruker SHELXTL'
_computing_molecular_graphics    'Bruker SHELXTL'
_computing_publication_material  'Bruker SHELXTL'
_computing_structure_refinement  'SHELXL-97 (Sheldrick, 1997)'
_computing_structure_solution    'SHELXS-97 (Sheldrick, 1990)'
_diffrn_ambient_temperature      293(2)
_diffrn_measured_fraction_theta_full 1.000
_diffrn_measured_fraction_theta_max 1.000
_diffrn_measurement_device_type  'Bruker P4'
_diffrn_measurement_method       '\w scans'
_diffrn_radiation_monochromator  graphite
_diffrn_radiation_source         'fine-focus sealed tube'
_diffrn_radiation_type           MoK\a
_diffrn_radiation_wavelength     0.71073
_diffrn_reflns_av_R_equivalents  0.0178
_diffrn_reflns_av_sigmaI/netI    0.0116
_diffrn_reflns_limit_h_max       4
_diffrn_reflns_limit_h_min       -5
_diffrn_reflns_limit_k_max       3
_diffrn_reflns_limit_k_min       -4
_diffrn_reflns_limit_l_max       20
_diffrn_reflns_limit_l_min       -19
_diffrn_reflns_number            1118
_diffrn_reflns_theta_full        25.00
_diffrn_reflns_theta_max         27.85
_diffrn_reflns_theta_min         2.66
_exptl_absorpt_coefficient_mu    17.636
_exptl_absorpt_correction_type   none
_exptl_crystal_colour            metallic
_exptl_crystal_density_diffrn    5.524
_exptl_crystal_density_method    'not measured'
_exptl_crystal_F_000             319
_exptl_crystal_size_max          0.050
_exptl_crystal_size_mid          0.045
_exptl_crystal_size_min          0.035
_refine_diff_density_max         1.879
_refine_diff_density_min         -0.519
_refine_diff_density_rms         0.130
_refine_ls_extinction_coef       0.0114(18)
_refine_ls_extinction_expression Fc^*^=kFc[1+0.001xFc^2^\l^3^/sin(2\q)]^-1/4^
_refine_ls_extinction_method     SHELXL
_refine_ls_goodness_of_fit_ref   1.215
_refine_ls_hydrogen_treatment    mixed
_refine_ls_matrix_type           full
_refine_ls_number_parameters     20
_refine_ls_number_reflns         128
_refine_ls_number_restraints     0
_refine_ls_restrained_S_all      1.215
_refine_ls_R_factor_all          0.0187
_refine_ls_R_factor_gt           0.0185
_refine_ls_shift/su_max          0.000
_refine_ls_shift/su_mean         0.000
_refine_ls_structure_factor_coef Fsqd
_refine_ls_weighting_details
'calc w=1/[\s^2^(Fo^2^)+(0.0146P)^2^+1.2510P] where P=(Fo^2^+2Fc^2^)/3'
_refine_ls_weighting_scheme      calc
_refine_ls_wR_factor_gt          0.0415
_refine_ls_wR_factor_ref         0.0416
_reflns_number_gt                126
_reflns_number_total             128
_reflns_threshold_expression     >2sigma(I)
_cod_data_source_file            ic061117csup3.cif
_cod_data_source_block           p63mmc
_cod_depositor_comments
;
The following automatic conversions were performed:

'_symmetry_cell_setting' value 'Hexagonal' changed to 'hexagonal'
according to /home/saulius/struct/CIF-dictionaries/cif_core.dic
dictionary named 'cif_core.dic' version 2.4.2 from 2011-04-26.

Automatic conversion script
Id: cif_fix_values 1891 2012-01-12 08:04:46Z andrius 
;
_cod_original_sg_symbol_H-M      P6(3)/mmc
_cod_original_formula_sum        'Fe4 Gd1.20 Si9.90'
_cod_database_code               4332943
loop_
_symmetry_equiv_pos_as_xyz
'x, y, z'
'-y, x-y, z'
'-x+y, -x, z'
'-x, -y, z+1/2'
'y, -x+y, z+1/2'
'x-y, x, z+1/2'
'y, x, -z'
'x-y, -y, -z'
'-x, -x+y, -z'
'-y, -x, -z+1/2'
'-x+y, y, -z+1/2'
'x, x-y, -z+1/2'
'-x, -y, -z'
'y, -x+y, -z'
'x-y, x, -z'
'x, y, -z-1/2'
'-y, x-y, -z-1/2'
'-x+y, -x, -z-1/2'
'-y, -x, z'
'-x+y, y, z'
'x, x-y, z'
'y, x, z-1/2'
'x-y, -y, z-1/2'
'-x, -x+y, z-1/2'
loop_
_atom_site_label
_atom_site_type_symbol
_atom_site_fract_x
_atom_site_fract_y
_atom_site_fract_z
_atom_site_U_iso_or_equiv
_atom_site_adp_type
_atom_site_occupancy
_atom_site_symmetry_multiplicity
_atom_site_calc_flag
_atom_site_refinement_flags
Gd1 Gd 0.6667 0.3333 0.2500 0.0066(3) Uani 0.598(3) 12 d SP
Fe2 Fe 0.3333 0.6667 0.39280(6) 0.0067(3) Uani 1 6 d S
Si3 Si 0.6667 0.3333 0.45458(12) 0.0074(5) Uani 1 6 d S
Si4 Si 0.0000 0.0000 0.63203(12) 0.0087(5) Uani 1 6 d S
Si5 Si 0.0626(17) 0.5313(9) 0.2500 0.0148(17) Uani 0.314(7) 4 d SP
loop_
_atom_site_aniso_label
_atom_site_aniso_U_11
_atom_site_aniso_U_22
_atom_site_aniso_U_33
_atom_site_aniso_U_23
_atom_site_aniso_U_13
_atom_site_aniso_U_12
Gd1 0.0067(4) 0.0067(4) 0.0064(4) 0.000 0.000 0.00336(18)
Fe2 0.0066(4) 0.0066(4) 0.0070(5) 0.000 0.000 0.0033(2)
Si3 0.0075(6) 0.0075(6) 0.0071(8) 0.000 0.000 0.0037(3)
Si4 0.0083(6) 0.0083(6) 0.0096(9) 0.000 0.000 0.0041(3)
Si5 0.022(4) 0.018(2) 0.005(2) 0.000 0.000 0.0112(18)
loop_
_atom_type_symbol
_atom_type_description
_atom_type_scat_dispersion_real
_atom_type_scat_dispersion_imag
_atom_type_scat_source
Si Si 0.0817 0.0704 'International Tables Vol C Tables 4.2.6.8 and 6.1.1.4'
Fe Fe 0.3463 0.8444 'International Tables Vol C Tables 4.2.6.8 and 6.1.1.4'
Gd Gd -0.1653 3.9035 'International Tables Vol C Tables 4.2.6.8 and 6.1.1.4'
loop_
_geom_angle_atom_site_label_1
_geom_angle_atom_site_label_2
_geom_angle_atom_site_label_3
_geom_angle
_geom_angle_site_symmetry_1
_geom_angle_site_symmetry_3
Si5 Gd1 Si5 120.000(1) 3 1_655
Si5 Gd1 Si5 120.0 3 2_665
Si5 Gd1 Si5 120.000(1) 1_655 2_665
Si5 Gd1 Si5 136.30(8) 3 3_665
Si5 Gd1 Si5 16.30(8) 1_655 3_665
Si5 Gd1 Si5 103.70(8) 2_665 3_665
Si5 Gd1 Si5 16.30(8) 3 2_655
Si5 Gd1 Si5 103.70(8) 1_655 2_655
Si5 Gd1 Si5 136.30(9) 2_665 2_655
Si5 Gd1 Si5 120.000(1) 3_665 2_655
Si5 Gd1 Si5 16.30(8) 3 1_545
Si5 Gd1 Si5 136.30(8) 1_655 1_545
Si5 Gd1 Si5 103.70(8) 2_665 1_545
Si5 Gd1 Si5 152.59(17) 3_665 1_545
Si5 Gd1 Si5 32.59(17) 2_655 1_545
Si5 Gd1 Si5 103.70(8) 3 2_765
Si5 Gd1 Si5 16.30(8) 1_655 2_765
Si5 Gd1 Si5 136.30(9) 2_665 2_765
Si5 Gd1 Si5 32.59(17) 3_665 2_765
Si5 Gd1 Si5 87.41(17) 2_655 2_765
Si5 Gd1 Si5 120.0 1_545 2_765
Si5 Gd1 Si5 103.70(9) 3 .
Si5 Gd1 Si5 136.30(8) 1_655 .
Si5 Gd1 Si5 16.30(8) 2_665 .
Si5 Gd1 Si5 120.000(2) 3_665 .
Si5 Gd1 Si5 120.000(2) 2_655 .
Si5 Gd1 Si5 87.41(17) 1_545 .
Si5 Gd1 Si5 152.59(17) 2_765 .
Si5 Gd1 Si5 136.30(9) 3 3_565
Si5 Gd1 Si5 103.70(9) 1_655 3_565
Si5 Gd1 Si5 16.30(8) 2_665 3_565
Si5 Gd1 Si5 87.41(17) 3_665 3_565
Si5 Gd1 Si5 152.59(17) 2_655 3_565
Si5 Gd1 Si5 120.000(2) 1_545 3_565
Si5 Gd1 Si5 120.000(2) 2_765 3_565
Si5 Gd1 Si5 32.59(17) . 3_565
Si5 Gd1 Si4 66.939(10) 3 4_554
Si5 Gd1 Si4 141.57(3) 1_655 4_554
Si5 Gd1 Si4 66.939(10) 2_665 4_554
Si5 Gd1 Si4 138.76(4) 3_665 4_554
Si5 Gd1 Si4 79.30(6) 2_655 4_554
Si5 Gd1 Si4 55.50(6) 1_545 4_554
Si5 Gd1 Si4 138.76(4) 2_765 4_554
Si5 Gd1 Si4 55.50(6) . 4_554
Si5 Gd1 Si4 79.30(6) 3_565 4_554
Si5 Gd1 Si4 141.57(3) 3 13_666
Si5 Gd1 Si4 66.939(10) 1_655 13_666
Si5 Gd1 Si4 66.939(10) 2_665 13_666
Si5 Gd1 Si4 55.50(6) 3_665 13_666
Si5 Gd1 Si4 138.76(4) 2_655 13_666
Si5 Gd1 Si4 138.76(4) 1_545 13_666
Si5 Gd1 Si4 79.30(6) 2_765 13_666
Si5 Gd1 Si4 79.30(7) . 13_666
Si5 Gd1 Si4 55.50(6) 3_565 13_666
Si4 Gd1 Si4 133.88(2) 4_554 13_666
Si5 Gd1 Si4 66.939(10) 3 4_654
Si5 Gd1 Si4 66.939(10) 1_655 4_654
Si5 Gd1 Si4 141.57(3) 2_665 4_654
Si5 Gd1 Si4 79.30(6) 3_665 4_654
Si5 Gd1 Si4 55.50(6) 2_655 4_654
Si5 Gd1 Si4 79.30(6) 1_545 4_654
Si5 Gd1 Si4 55.50(6) 2_765 4_654
Si5 Gd1 Si4 138.76(4) . 4_654
Si5 Gd1 Si4 138.76(4) 3_565 4_654
Si4 Gd1 Si4 85.45(4) 4_554 4_654
Si4 Gd1 Si4 133.88(2) 13_666 4_654
Si4 Fe2 Si4 117.34(3) 13_566 13_556
Si4 Fe2 Si4 117.34(3) 13_566 13_666
Si4 Fe2 Si4 117.34(3) 13_556 13_666
Si4 Fe2 Si3 99.48(5) 13_566 13_666
Si4 Fe2 Si3 99.48(5) 13_556 13_666
Si4 Fe2 Si3 99.48(5) 13_666 13_666
Si4 Fe2 Si5 69.89(7) 13_566 .
Si4 Fe2 Si5 69.89(7) 13_556 .
Si4 Fe2 Si5 103.45(15) 13_666 .
Si3 Fe2 Si5 157.08(14) 13_666 .
Si4 Fe2 Si5 69.89(7) 13_566 3_565
Si4 Fe2 Si5 103.45(15) 13_556 3_565
Si4 Fe2 Si5 69.89(7) 13_666 3_565
Si3 Fe2 Si5 157.08(14) 13_666 3_565
Si5 Fe2 Si5 39.4(2) . 3_565
Si4 Fe2 Si5 103.45(14) 13_566 2_665
Si4 Fe2 Si5 69.89(7) 13_556 2_665
Si4 Fe2 Si5 69.89(7) 13_666 2_665
Si3 Fe2 Si5 157.08(13) 13_666 2_665
Si5 Fe2 Si5 39.4(2) . 2_665
Si5 Fe2 Si5 39.4(2) 3_565 2_665
Si4 Fe2 Si3 66.90(3) 13_566 1_565
Si4 Fe2 Si3 166.92(8) 13_556 1_565
Si4 Fe2 Si3 66.90(3) 13_666 1_565
Si3 Fe2 Si3 67.44(5) 13_666 1_565
Si5 Fe2 Si3 122.22(6) . 1_565
Si5 Fe2 Si3 89.64(14) 3_565 1_565
Si5 Fe2 Si3 122.22(6) 2_665 1_565
Si4 Fe2 Si3 66.90(3) 13_566 1_455
Si4 Fe2 Si3 66.90(3) 13_556 1_455
Si4 Fe2 Si3 166.92(8) 13_666 1_455
Si3 Fe2 Si3 67.44(5) 13_666 1_455
Si5 Fe2 Si3 89.64(14) . 1_455
Si5 Fe2 Si3 122.22(6) 3_565 1_455
Si5 Fe2 Si3 122.22(6) 2_665 1_455
Si3 Fe2 Si3 106.21(5) 1_565 1_455
Si4 Fe2 Si3 166.92(8) 13_566 .
Si4 Fe2 Si3 66.90(3) 13_556 .
Si4 Fe2 Si3 66.90(3) 13_666 .
Si3 Fe2 Si3 67.44(5) 13_666 .
Si5 Fe2 Si3 122.22(6) . .
Si5 Fe2 Si3 122.22(6) 3_565 .
Si5 Fe2 Si3 89.64(14) 2_665 .
Si3 Fe2 Si3 106.21(5) 1_565 .
Si3 Fe2 Si3 106.21(5) 1_455 .
Si4 Fe2 Gd1 61.98(3) 13_566 1_455
Si4 Fe2 Gd1 61.98(3) 13_556 1_455
Si4 Fe2 Gd1 126.68(6) 13_666 1_455
Si3 Fe2 Gd1 133.838(15) 13_666 1_455
Si5 Fe2 Gd1 23.24(13) . 1_455
Si5 Fe2 Gd1 60.17(10) 3_565 1_455
Si5 Fe2 Gd1 60.17(10) 2_665 1_455
Si3 Fe2 Gd1 126.78(3) 1_565 1_455
Si3 Fe2 Gd1 66.40(4) 1_455 1_455
Si3 Fe2 Gd1 126.78(3) . 1_455
Si4 Fe2 Gd1 61.98(3) 13_566 1_565
Si4 Fe2 Gd1 126.68(6) 13_556 1_565
Si4 Fe2 Gd1 61.98(3) 13_666 1_565
Si3 Fe2 Gd1 133.838(15) 13_666 1_565
Si5 Fe2 Gd1 60.17(10) . 1_565
Si5 Fe2 Gd1 23.24(13) 3_565 1_565
Si5 Fe2 Gd1 60.17(10) 2_665 1_565
Si3 Fe2 Gd1 66.40(4) 1_565 1_565
Si3 Fe2 Gd1 126.78(3) 1_455 1_565
Si3 Fe2 Gd1 126.78(3) . 1_565
Gd1 Fe2 Gd1 77.31(2) 1_455 1_565
Fe2 Si3 Fe2 112.56(5) 13_666 1_545
Fe2 Si3 Fe2 112.56(5) 13_666 1_655
Fe2 Si3 Fe2 106.21(5) 1_545 1_655
Fe2 Si3 Fe2 112.56(5) 13_666 .
Fe2 Si3 Fe2 106.21(5) 1_545 .
Fe2 Si3 Fe2 106.21(5) 1_655 .
Fe2 Si3 Si4 120.22(5) 13_666 13_656
Fe2 Si3 Si4 53.69(2) 1_545 13_656
Fe2 Si3 Si4 53.69(2) 1_655 13_656
Fe2 Si3 Si4 127.22(9) . 13_656
Fe2 Si3 Si4 120.22(5) 13_666 13_556
Fe2 Si3 Si4 53.69(2) 1_545 13_556
Fe2 Si3 Si4 127.22(9) 1_655 13_556
Fe2 Si3 Si4 53.69(2) . 13_556
Si4 Si3 Si4 96.90(7) 13_656 13_556
Fe2 Si3 Si4 120.22(5) 13_666 13_666
Fe2 Si3 Si4 127.22(9) 1_545 13_666
Fe2 Si3 Si4 53.69(2) 1_655 13_666
Fe2 Si3 Si4 53.69(2) . 13_666
Si4 Si3 Si4 96.90(7) 13_656 13_666
Si4 Si3 Si4 96.90(7) 13_556 13_666
Fe2 Si3 Si3 58.58(7) 13_666 13_766
Fe2 Si3 Si3 126.444(13) 1_545 13_766
Fe2 Si3 Si3 53.98(4) 1_655 13_766
Fe2 Si3 Si3 126.444(13) . 13_766
Si4 Si3 Si3 83.89(3) 13_656 13_766
Si4 Si3 Si3 178.80(11) 13_556 13_766
Si4 Si3 Si3 83.89(3) 13_666 13_766
Fe2 Si3 Si3 58.58(7) 13_666 13_656
Fe2 Si3 Si3 53.98(4) 1_545 13_656
Fe2 Si3 Si3 126.444(13) 1_655 13_656
Fe2 Si3 Si3 126.444(12) . 13_656
Si4 Si3 Si3 83.89(3) 13_656 13_656
Si4 Si3 Si3 83.89(3) 13_556 13_656
Si4 Si3 Si3 178.80(11) 13_666 13_656
Si3 Si3 Si3 95.30(9) 13_766 13_656
Fe2 Si3 Si3 58.58(7) 13_666 13_666
Fe2 Si3 Si3 126.444(12) 1_545 13_666
Fe2 Si3 Si3 126.444(12) 1_655 13_666
Fe2 Si3 Si3 53.98(4) . 13_666
Si4 Si3 Si3 178.80(11) 13_656 13_666
Si4 Si3 Si3 83.89(3) 13_556 13_666
Si4 Si3 Si3 83.89(3) 13_666 13_666
Si3 Si3 Si3 95.30(9) 13_766 13_666
Si3 Si3 Si3 95.30(9) 13_656 13_666
Fe2 Si3 Gd1 180.0 13_666 .
Fe2 Si3 Gd1 67.44(5) 1_545 .
Fe2 Si3 Gd1 67.44(5) 1_655 .
Fe2 Si3 Gd1 67.44(5) . .
Si4 Si3 Gd1 59.78(5) 13_656 .
Si4 Si3 Gd1 59.78(5) 13_556 .
Si4 Si3 Gd1 59.78(5) 13_666 .
Si3 Si3 Gd1 121.42(7) 13_766 .
Si3 Si3 Gd1 121.42(7) 13_656 .
Si3 Si3 Gd1 121.42(7) 13_666 .
Fe2 Si4 Fe2 117.34(3) 13_566 13_556
Fe2 Si4 Fe2 117.34(3) 13_566 13_666
Fe2 Si4 Fe2 117.34(3) 13_556 13_666
Fe2 Si4 Si3 140.31(9) 13_566 13_656
Fe2 Si4 Si3 59.40(2) 13_556 13_656
Fe2 Si4 Si3 59.40(2) 13_666 13_656
Fe2 Si4 Si3 59.40(2) 13_566 13_556
Fe2 Si4 Si3 59.40(2) 13_556 13_556
Fe2 Si4 Si3 140.31(9) 13_666 13_556
Si3 Si4 Si3 96.90(7) 13_656 13_556
Fe2 Si4 Si3 59.40(2) 13_566 13_666
Fe2 Si4 Si3 140.31(9) 13_556 13_666
Fe2 Si4 Si3 59.40(2) 13_666 13_666
Si3 Si4 Si3 96.90(7) 13_656 13_666
Si3 Si4 Si3 96.90(7) 13_556 13_666
Fe2 Si4 Si5 100.92(13) 13_566 14_556
Fe2 Si4 Si5 134.38(11) 13_556 14_556
Fe2 Si4 Si5 56.20(8) 13_666 14_556
Si3 Si4 Si5 105.66(12) 13_656 14_556
Si3 Si4 Si5 157.42(13) 13_556 14_556
Si3 Si4 Si5 79.82(7) 13_666 14_556
Fe2 Si4 Si5 56.20(7) 13_566 15_556
Fe2 Si4 Si5 100.92(14) 13_556 15_556
Fe2 Si4 Si5 134.38(12) 13_666 15_556
Si3 Si4 Si5 157.42(13) 13_656 15_556
Si3 Si4 Si5 79.82(7) 13_556 15_556
Si3 Si4 Si5 105.66(12) 13_666 15_556
Si5 Si4 Si5 79.63(5) 14_556 15_556
Fe2 Si4 Si5 134.38(11) 13_566 13_556
Fe2 Si4 Si5 56.20(8) 13_556 13_556
Fe2 Si4 Si5 100.92(13) 13_666 13_556
Si3 Si4 Si5 79.82(7) 13_656 13_556
Si3 Si4 Si5 105.66(12) 13_556 13_556
Si3 Si4 Si5 157.42(13) 13_666 13_556
Si5 Si4 Si5 79.63(5) 14_556 13_556
Si5 Si4 Si5 79.63(5) 15_556 13_556
Fe2 Si4 Si5 134.38(11) 13_566 15_656
Fe2 Si4 Si5 100.92(13) 13_556 15_656
Fe2 Si4 Si5 56.20(8) 13_666 15_656
Si3 Si4 Si5 79.82(7) 13_656 15_656
Si3 Si4 Si5 157.42(13) 13_556 15_656
Si3 Si4 Si5 105.66(12) 13_666 15_656
Si5 Si4 Si5 34.7(2) 14_556 15_656
Si5 Si4 Si5 94.62(6) 15_556 15_656
Si5 Si4 Si5 51.8(2) 13_556 15_656
Fe2 Si4 Si5 56.20(7) 13_566 13_566
Fe2 Si4 Si5 134.38(12) 13_556 13_566
Fe2 Si4 Si5 100.92(14) 13_666 13_566
Si3 Si4 Si5 157.42(13) 13_656 13_566
Si3 Si4 Si5 105.66(12) 13_556 13_566
Si3 Si4 Si5 79.82(7) 13_666 13_566
Si5 Si4 Si5 51.8(2) 14_556 13_566
Si5 Si4 Si5 34.7(2) 15_556 13_566
Si5 Si4 Si5 94.62(6) 13_556 13_566
Si5 Si4 Si5 79.63(5) 15_656 13_566
Fe2 Si4 Si5 100.92(13) 13_566 14_446
Fe2 Si4 Si5 56.20(8) 13_556 14_446
Fe2 Si4 Si5 134.38(11) 13_666 14_446
Si3 Si4 Si5 105.66(12) 13_656 14_446
Si3 Si4 Si5 79.82(7) 13_556 14_446
Si3 Si4 Si5 157.42(13) 13_666 14_446
Si5 Si4 Si5 94.62(6) 14_556 14_446
Si5 Si4 Si5 51.8(2) 15_556 14_446
Si5 Si4 Si5 34.7(2) 13_556 14_446
Si5 Si4 Si5 79.63(5) 15_656 14_446
Si5 Si4 Si5 79.63(5) 13_566 14_446
Gd1 Si5 Si5 150.0 1_455 3_565
Gd1 Si5 Si5 150.0 1_455 2_665
Si5 Si5 Si5 60.0 3_565 2_665
Gd1 Si5 Si5 30.0 1_455 3_455
Si5 Si5 Si5 180.0(7) 3_565 3_455
Si5 Si5 Si5 120.000(1) 2_665 3_455
Gd1 Si5 Si5 30.0 1_455 2_565
Si5 Si5 Si5 120.0 3_565 2_565
Si5 Si5 Si5 180.0(4) 2_665 2_565
Si5 Si5 Si5 60.0 3_455 2_565
Gd1 Si5 Fe2 112.93(13) 1_455 .
Si5 Si5 Fe2 70.29(11) 3_565 .
Si5 Si5 Fe2 70.29(11) 2_665 .
Si5 Si5 Fe2 109.71(11) 3_455 .
Si5 Si5 Fe2 109.71(11) 2_565 .
Gd1 Si5 Fe2 112.92(13) 1_455 16_556
Si5 Si5 Fe2 70.29(11) 3_565 16_556
Si5 Si5 Fe2 70.29(11) 2_665 16_556
Si5 Si5 Fe2 109.71(11) 3_455 16_556
Si5 Si5 Fe2 109.71(11) 2_565 16_556
Fe2 Si5 Fe2 134.2(3) . 16_556
Gd1 Si5 Si4 85.43(13) 1_455 4_554
Si5 Si5 Si4 115.88(12) 3_565 4_554
Si5 Si5 Si4 72.63(12) 2_665 4_554
Si5 Si5 Si4 64.12(12) 3_455 4_554
Si5 Si5 Si4 107.37(12) 2_565 4_554
Fe2 Si5 Si4 130.63(9) . 4_554
Fe2 Si5 Si4 53.91(3) 16_556 4_554
Gd1 Si5 Si4 85.43(13) 1_455 13_556
Si5 Si5 Si4 115.88(12) 3_565 13_556
Si5 Si5 Si4 72.63(12) 2_665 13_556
Si5 Si5 Si4 64.12(12) 3_455 13_556
Si5 Si5 Si4 107.37(12) 2_565 13_556
Fe2 Si5 Si4 53.91(3) . 13_556
Fe2 Si5 Si4 130.63(9) 16_556 13_556
Si4 Si5 Si4 84.65(6) 4_554 13_556
Gd1 Si5 Si4 85.43(13) 1_455 13_566
Si5 Si5 Si4 72.63(12) 3_565 13_566
Si5 Si5 Si4 115.88(12) 2_665 13_566
Si5 Si5 Si4 107.37(12) 3_455 13_566
Si5 Si5 Si4 64.12(12) 2_565 13_566
Fe2 Si5 Si4 53.91(3) . 13_566
Fe2 Si5 Si4 130.63(9) 16_556 13_566
Si4 Si5 Si4 170.9(3) 4_554 13_566
Si4 Si5 Si4 94.62(6) 13_556 13_566
Gd1 Si5 Si4 85.43(13) 1_455 4_564
Si5 Si5 Si4 72.63(12) 3_565 4_564
Si5 Si5 Si4 115.88(12) 2_665 4_564
Si5 Si5 Si4 107.37(12) 3_455 4_564
Si5 Si5 Si4 64.12(12) 2_565 4_564
Fe2 Si5 Si4 130.63(9) . 4_564
Fe2 Si5 Si4 53.91(3) 16_556 4_564
Si4 Si5 Si4 94.62(6) 4_554 4_564
Si4 Si5 Si4 170.9(3) 13_556 4_564
Si4 Si5 Si4 84.65(6) 13_566 4_564
Gd1 Si5 Gd1 136.30(8) 1_455 1_565
Si5 Si5 Gd1 13.70(8) 3_565 1_565
Si5 Si5 Gd1 73.70(8) 2_665 1_565
Si5 Si5 Gd1 166.30(8) 3_455 1_565
Si5 Si5 Gd1 106.30(8) 2_565 1_565
Fe2 Si5 Gd1 73.64(12) . 1_565
Fe2 Si5 Gd1 73.64(12) 16_556 1_565
Si4 Si5 Gd1 124.43(15) 4_554 1_565
Si4 Si5 Gd1 124.43(15) 13_556 1_565
Si4 Si5 Gd1 63.24(6) 13_566 1_565
Si4 Si5 Gd1 63.24(6) 4_564 1_565
loop_
_geom_bond_atom_site_label_1
_geom_bond_atom_site_label_2
_geom_bond_distance
_geom_bond_site_symmetry_2
Gd1 Si5 1.355(6) 3
Gd1 Si5 1.355(6) 1_655
Gd1 Si5 1.355(6) 2_665
Gd1 Si5 2.860(4) 3_665
Gd1 Si5 2.860(4) 2_655
Gd1 Si5 2.860(4) 1_545
Gd1 Si5 2.860(4) 2_765
Gd1 Si5 2.860(4) .
Gd1 Si5 2.860(4) 3_565
Gd1 Si4 2.9122(12) 4_554
Gd1 Si4 2.9122(12) 13_666
Gd1 Si4 2.9122(12) 4_654
Fe2 Si4 2.3130(5) 13_566
Fe2 Si4 2.3130(5) 13_556
Fe2 Si4 2.3130(5) 13_666
Fe2 Si3 2.342(2) 13_666
Fe2 Si5 2.379(3) .
Fe2 Si5 2.379(3) 3_565
Fe2 Si5 2.379(3) 2_665
Fe2 Si3 2.4705(9) 1_565
Fe2 Si3 2.4705(9) 1_455
Fe2 Si3 2.4705(9) .
Fe2 Gd1 3.1630(8) 1_455
Fe2 Gd1 3.1630(8) 1_565
Si3 Fe2 2.342(2) 13_666
Si3 Fe2 2.4705(9) 1_545
Si3 Fe2 2.4705(9) 1_655
Si3 Si4 2.6402(14) 13_656
Si3 Si4 2.6402(14) 13_556
Si3 Si4 2.6402(14) 13_666
Si3 Si3 2.673(2) 13_766
Si3 Si3 2.673(2) 13_656
Si3 Si3 2.673(2) 13_666
Si4 Fe2 2.3130(5) 13_566
Si4 Fe2 2.3130(5) 13_556
Si4 Fe2 2.3130(5) 13_666
Si4 Si3 2.6402(14) 13_656
Si4 Si3 2.6402(14) 13_556
Si4 Si3 2.6402(14) 13_666
Si4 Si5 2.6880(14) 14_556
Si4 Si5 2.6880(14) 15_556
Si4 Si5 2.6880(14) 13_556
Si4 Si5 2.6880(14) 15_656
Si4 Si5 2.6880(14) 13_566
Si4 Si5 2.6880(14) 14_446
Si5 Gd1 1.355(6) 1_455
Si5 Si5 1.605(10) 3_565
Si5 Si5 1.605(10) 2_665
Si5 Si5 2.347(10) 3_455
Si5 Si5 2.347(10) 2_565
Si5 Fe2 2.379(3) 16_556
Si5 Si4 2.6880(14) 4_554
Si5 Si4 2.6880(14) 13_556
Si5 Si4 2.6880(14) 13_566
Si5 Si4 2.6880(14) 4_564
Si5 Gd1 2.860(4) 1_565
