#------------------------------------------------------------------------------
#$Date: 2016-02-16 22:30:59 +0200 (Tue, 16 Feb 2016) $
#$Revision: 176467 $
#$URL: svn://www.crystallography.net/cod/cif/4/33/29/4332941.cif $
#------------------------------------------------------------------------------
#
# This file is available in the Crystallography Open Database (COD),
# http://www.crystallography.net/. The original data for this entry
# were provided the Crystal Eye server at
# http://wwmm.ch.cam.ac.uk/crystaleye/, created by Nick Day at the
# Peter Murray-Rust laboratory.
#
# The file may be used within the scientific community so long as
# proper attribution is given to the journal article from which the
# data were obtained.
#
data_4332941
loop_
_publ_author_name
'Han, Mi-Kyung'
'Wu, Ya-Qiao'
'Kramer, Matthew'
'Vatovez, Benjamin'
'Grandjean, Fernande'
'Long, Gary J.'
'Miller, Gordon J.'
_publ_section_title
;
 Superstructure in RE2-xFe4Si14-y(RE = Y, Gd&#x2212;Lu) Characterized by
 Diffraction, Electron Microscopy, and M\"ossbauer Spectroscopy
;
_journal_issue                   26
_journal_name_full               'Inorganic Chemistry'
_journal_page_first              10503
_journal_page_last               10519
_journal_paper_doi               10.1021/ic061117c
_journal_volume                  45
_journal_year                    2006
_chemical_formula_sum            'Dy1.2 Fe4 Si9.9'
_chemical_formula_weight         696.49
_chemical_name_systematic
; 
 ? 
;
_space_group_IT_number           194
_symmetry_cell_setting           hexagonal
_symmetry_space_group_name_Hall  '-P 6c 2c'
_symmetry_space_group_name_H-M   'P 63/m m c'
_atom_sites_solution_hydrogens   geom
_atom_sites_solution_primary     direct
_atom_sites_solution_secondary   difmap
_audit_creation_method           SHELXL-97
_cell_angle_alpha                90.00
_cell_angle_beta                 90.00
_cell_angle_gamma                120.00
_cell_formula_units_Z            1
_cell_length_a                   3.9348(6)
_cell_length_b                   3.9348(6)
_cell_length_c                   15.268(3)
_cell_measurement_temperature    293(2)
_cell_volume                     204.72(6)
_computing_cell_refinement       'Bruker XSCANS'
_computing_data_collection       'Bruker XSCANS'
_computing_data_reduction        'Bruker SHELXTL'
_computing_molecular_graphics    'Bruker SHELXTL'
_computing_publication_material  'Bruker SHELXTL'
_computing_structure_refinement  'SHELXL-97 (Sheldrick, 1997)'
_computing_structure_solution    'SHELXS-97 (Sheldrick, 1990)'
_diffrn_ambient_temperature      293(2)
_diffrn_measured_fraction_theta_full 1.000
_diffrn_measured_fraction_theta_max 0.977
_diffrn_measurement_device_type  'Bruker P4'
_diffrn_measurement_method       '\w scans'
_diffrn_radiation_monochromator  graphite
_diffrn_radiation_source         'fine-focus sealed tube'
_diffrn_radiation_type           MoK\a
_diffrn_radiation_wavelength     0.71073
_diffrn_reflns_av_R_equivalents  0.0240
_diffrn_reflns_av_sigmaI/netI    0.0129
_diffrn_reflns_limit_h_max       5
_diffrn_reflns_limit_h_min       -5
_diffrn_reflns_limit_k_max       4
_diffrn_reflns_limit_k_min       -5
_diffrn_reflns_limit_l_max       19
_diffrn_reflns_limit_l_min       -19
_diffrn_reflns_number            1536
_diffrn_reflns_theta_full        25.00
_diffrn_reflns_theta_max         27.98
_diffrn_reflns_theta_min         2.67
_exptl_absorpt_coefficient_mu    19.104
_exptl_absorpt_correction_type   none
_exptl_crystal_colour            metallic
_exptl_crystal_density_diffrn    5.650
_exptl_crystal_density_method    'not measured'
_exptl_crystal_F_000             322
_exptl_crystal_size_max          0.045
_exptl_crystal_size_mid          0.040
_exptl_crystal_size_min          0.035
_refine_diff_density_max         1.745
_refine_diff_density_min         -0.344
_refine_diff_density_rms         0.106
_refine_ls_extinction_coef       0.0145(14)
_refine_ls_extinction_expression Fc^*^=kFc[1+0.001xFc^2^\l^3^/sin(2\q)]^-1/4^
_refine_ls_extinction_method     SHELXL
_refine_ls_goodness_of_fit_ref   1.182
_refine_ls_hydrogen_treatment    mixed
_refine_ls_matrix_type           full
_refine_ls_number_parameters     19
_refine_ls_number_reflns         125
_refine_ls_number_restraints     0
_refine_ls_restrained_S_all      1.182
_refine_ls_R_factor_all          0.0165
_refine_ls_R_factor_gt           0.0156
_refine_ls_shift/su_max          0.000
_refine_ls_shift/su_mean         0.000
_refine_ls_structure_factor_coef Fsqd
_refine_ls_weighting_details
'calc w=1/[\s^2^(Fo^2^)+(0.0000P)^2^+1.1632P] where P=(Fo^2^+2Fc^2^)/3'
_refine_ls_weighting_scheme      calc
_refine_ls_wR_factor_gt          0.0317
_refine_ls_wR_factor_ref         0.0322
_reflns_number_gt                123
_reflns_number_total             125
_reflns_threshold_expression     >2sigma(I)
_cod_data_source_file            ic061117csup1.cif
_cod_data_source_block           p63mmc
_cod_depositor_comments
;
The following automatic conversions were performed:

'_symmetry_cell_setting' value 'Hexagonal' changed to 'hexagonal'
according to /home/saulius/struct/CIF-dictionaries/cif_core.dic
dictionary named 'cif_core.dic' version 2.4.2 from 2011-04-26.

Automatic conversion script
Id: cif_fix_values 1891 2012-01-12 08:04:46Z andrius 
;
_cod_original_sg_symbol_H-M      P6(3)/mmc
_cod_original_formula_sum        'Dy1.20 Fe4 Si9.90'
_cod_database_code               4332941
loop_
_symmetry_equiv_pos_as_xyz
'x, y, z'
'-y, x-y, z'
'-x+y, -x, z'
'-x, -y, z+1/2'
'y, -x+y, z+1/2'
'x-y, x, z+1/2'
'y, x, -z'
'x-y, -y, -z'
'-x, -x+y, -z'
'-y, -x, -z+1/2'
'-x+y, y, -z+1/2'
'x, x-y, -z+1/2'
'-x, -y, -z'
'y, -x+y, -z'
'x-y, x, -z'
'x, y, -z-1/2'
'-y, x-y, -z-1/2'
'-x+y, -x, -z-1/2'
'-y, -x, z'
'-x+y, y, z'
'x, x-y, z'
'y, x, z-1/2'
'x-y, -y, z-1/2'
'-x, -x+y, z-1/2'
loop_
_atom_site_label
_atom_site_type_symbol
_atom_site_fract_x
_atom_site_fract_y
_atom_site_fract_z
_atom_site_U_iso_or_equiv
_atom_site_adp_type
_atom_site_occupancy
_atom_site_symmetry_multiplicity
_atom_site_calc_flag
_atom_site_refinement_flags
Dy1 Dy 0.6667 0.3333 0.7500 0.0060(3) Uani 0.583(3) 12 d SP
Fe2 Fe 0.3333 0.6667 0.60752(6) 0.0064(3) Uani 1 6 d S
Si3 Si 0.6667 0.3333 0.54558(11) 0.0069(4) Uani 1 6 d S
Si4 Si 1.0000 0.0000 0.63299(11) 0.0078(4) Uani 1 6 d S
Si5 Si 0.0652(16) 0.5326(8) 0.7500 0.0156(15) Uani 0.323(6) 4 d SP
loop_
_atom_site_aniso_label
_atom_site_aniso_U_11
_atom_site_aniso_U_22
_atom_site_aniso_U_33
_atom_site_aniso_U_23
_atom_site_aniso_U_13
_atom_site_aniso_U_12
Dy1 0.0062(3) 0.0062(3) 0.0058(3) 0.000 0.000 0.00308(15)
Fe2 0.0063(3) 0.0063(3) 0.0067(5) 0.000 0.000 0.00313(17)
Si3 0.0072(5) 0.0072(5) 0.0063(8) 0.000 0.000 0.0036(3)
Si4 0.0072(5) 0.0072(5) 0.0089(8) 0.000 0.000 0.0036(3)
Si5 0.027(3) 0.019(2) 0.004(2) 0.000 0.000 0.0134(16)
loop_
_atom_type_symbol
_atom_type_description
_atom_type_scat_dispersion_real
_atom_type_scat_dispersion_imag
_atom_type_scat_source
Si Si 0.0817 0.0704 'International Tables Vol C Tables 4.2.6.8 and 6.1.1.4'
Fe Fe 0.3463 0.8444 'International Tables Vol C Tables 4.2.6.8 and 6.1.1.4'
Dy Dy -0.1892 4.4098 'International Tables Vol C Tables 4.2.6.8 and 6.1.1.4'
loop_
_geom_angle_atom_site_label_1
_geom_angle_atom_site_label_2
_geom_angle_atom_site_label_3
_geom_angle
_geom_angle_site_symmetry_1
_geom_angle_site_symmetry_3
Si5 Dy1 Si5 120.000(2) 3 1_655
Si5 Dy1 Si5 120.000(1) 3 2_665
Si5 Dy1 Si5 120.000(1) 1_655 2_665
Si5 Dy1 Si5 16.17(7) 3 1_545
Si5 Dy1 Si5 136.17(8) 1_655 1_545
Si5 Dy1 Si5 103.83(8) 2_665 1_545
Si5 Dy1 Si5 136.17(8) 3 3_665
Si5 Dy1 Si5 16.17(7) 1_655 3_665
Si5 Dy1 Si5 103.83(8) 2_665 3_665
Si5 Dy1 Si5 152.35(15) 1_545 3_665
Si5 Dy1 Si5 16.17(8) 3 2_655
Si5 Dy1 Si5 103.83(7) 1_655 2_655
Si5 Dy1 Si5 136.17(8) 2_665 2_655
Si5 Dy1 Si5 32.35(15) 1_545 2_655
Si5 Dy1 Si5 120.000(1) 3_665 2_655
Si5 Dy1 Si5 103.83(7) 3 2_765
Si5 Dy1 Si5 16.17(8) 1_655 2_765
Si5 Dy1 Si5 136.17(8) 2_665 2_765
Si5 Dy1 Si5 120.000(1) 1_545 2_765
Si5 Dy1 Si5 32.35(15) 3_665 2_765
Si5 Dy1 Si5 87.65(15) 2_655 2_765
Si5 Dy1 Si5 136.17(8) 3 3_565
Si5 Dy1 Si5 103.83(8) 1_655 3_565
Si5 Dy1 Si5 16.17(8) 2_665 3_565
Si5 Dy1 Si5 120.000(5) 1_545 3_565
Si5 Dy1 Si5 87.65(15) 3_665 3_565
Si5 Dy1 Si5 152.35(16) 2_655 3_565
Si5 Dy1 Si5 120.000(5) 2_765 3_565
Si5 Dy1 Si5 103.83(8) 3 .
Si5 Dy1 Si5 136.17(8) 1_655 .
Si5 Dy1 Si5 16.17(8) 2_665 .
Si5 Dy1 Si5 87.65(15) 1_545 .
Si5 Dy1 Si5 120.000(4) 3_665 .
Si5 Dy1 Si5 120.000(5) 2_655 .
Si5 Dy1 Si5 152.35(16) 2_765 .
Si5 Dy1 Si5 32.35(15) 3_565 .
Si5 Dy1 Si4 141.82(3) 3 16_567
Si5 Dy1 Si4 66.856(10) 1_655 16_567
Si5 Dy1 Si4 66.856(10) 2_665 16_567
Si5 Dy1 Si4 139.02(4) 1_545 16_567
Si5 Dy1 Si4 55.45(5) 3_665 16_567
Si5 Dy1 Si4 139.02(4) 2_655 16_567
Si5 Dy1 Si4 79.17(6) 2_765 16_567
Si5 Dy1 Si4 55.45(5) 3_565 16_567
Si5 Dy1 Si4 79.17(6) . 16_567
Si5 Dy1 Si4 66.856(9) 3 16_557
Si5 Dy1 Si4 66.856(9) 1_655 16_557
Si5 Dy1 Si4 141.82(3) 2_665 16_557
Si5 Dy1 Si4 79.17(6) 1_545 16_557
Si5 Dy1 Si4 79.17(6) 3_665 16_557
Si5 Dy1 Si4 55.45(5) 2_655 16_557
Si5 Dy1 Si4 55.45(5) 2_765 16_557
Si5 Dy1 Si4 139.02(4) 3_565 16_557
Si5 Dy1 Si4 139.02(4) . 16_557
Si4 Dy1 Si4 85.81(4) 16_567 16_557
Si5 Dy1 Si4 66.856(9) 3 .
Si5 Dy1 Si4 66.856(9) 1_655 .
Si5 Dy1 Si4 141.82(3) 2_665 .
Si5 Dy1 Si4 79.17(6) 1_545 .
Si5 Dy1 Si4 79.17(6) 3_665 .
Si5 Dy1 Si4 55.45(5) 2_655 .
Si5 Dy1 Si4 55.45(5) 2_765 .
Si5 Dy1 Si4 139.02(4) 3_565 .
Si5 Dy1 Si4 139.02(4) . .
Si4 Dy1 Si4 133.713(19) 16_567 .
Si4 Dy1 Si4 76.36(6) 16_557 .
Si4 Fe2 Si4 117.21(3) 1_465 1_565
Si4 Fe2 Si4 117.21(3) 1_465 1_455
Si4 Fe2 Si4 117.21(3) 1_565 1_455
Si4 Fe2 Si3 99.72(5) 1_465 13_666
Si4 Fe2 Si3 99.72(5) 1_565 13_666
Si4 Fe2 Si3 99.72(5) 1_455 13_666
Si4 Fe2 Si5 69.73(6) 1_465 3_565
Si4 Fe2 Si5 69.73(6) 1_565 3_565
Si4 Fe2 Si5 103.07(13) 1_455 3_565
Si3 Fe2 Si5 157.21(13) 13_666 3_565
Si4 Fe2 Si5 103.07(13) 1_465 2_665
Si4 Fe2 Si5 69.73(6) 1_565 2_665
Si4 Fe2 Si5 69.73(6) 1_455 2_665
Si3 Fe2 Si5 157.21(12) 13_666 2_665
Si5 Fe2 Si5 39.2(2) 3_565 2_665
Si4 Fe2 Si5 69.73(7) 1_465 .
Si4 Fe2 Si5 103.07(13) 1_565 .
Si4 Fe2 Si5 69.73(6) 1_455 .
Si3 Fe2 Si5 157.21(13) 13_666 .
Si5 Fe2 Si5 39.2(2) 3_565 .
Si5 Fe2 Si5 39.2(2) 2_665 .
Si4 Fe2 Si3 67.04(2) 1_465 1_455
Si4 Fe2 Si3 167.12(7) 1_565 1_455
Si4 Fe2 Si3 67.04(2) 1_455 1_455
Si3 Fe2 Si3 67.40(4) 13_666 1_455
Si5 Fe2 Si3 122.21(6) 3_565 1_455
Si5 Fe2 Si3 122.21(6) 2_665 1_455
Si5 Fe2 Si3 89.82(13) . 1_455
Si4 Fe2 Si3 67.04(2) 1_465 1_565
Si4 Fe2 Si3 67.04(2) 1_565 1_565
Si4 Fe2 Si3 167.12(7) 1_455 1_565
Si3 Fe2 Si3 67.40(4) 13_666 1_565
Si5 Fe2 Si3 89.82(13) 3_565 1_565
Si5 Fe2 Si3 122.21(6) 2_665 1_565
Si5 Fe2 Si3 122.21(6) . 1_565
Si3 Fe2 Si3 106.17(5) 1_455 1_565
Si4 Fe2 Si3 167.12(7) 1_465 .
Si4 Fe2 Si3 67.04(2) 1_565 .
Si4 Fe2 Si3 67.04(2) 1_455 .
Si3 Fe2 Si3 67.40(4) 13_666 .
Si5 Fe2 Si3 122.21(6) 3_565 .
Si5 Fe2 Si3 89.82(13) 2_665 .
Si5 Fe2 Si3 122.21(6) . .
Si3 Fe2 Si3 106.17(5) 1_455 .
Si3 Fe2 Si3 106.17(5) 1_565 .
Si4 Fe2 Dy1 61.79(3) 1_465 1_565
Si4 Fe2 Dy1 61.79(3) 1_565 1_565
Si4 Fe2 Dy1 126.52(5) 1_455 1_565
Si3 Fe2 Dy1 133.759(14) 13_666 1_565
Si5 Fe2 Dy1 23.46(12) 3_565 1_565
Si5 Fe2 Dy1 60.15(9) 2_665 1_565
Si5 Fe2 Dy1 60.15(9) . 1_565
Si3 Fe2 Dy1 126.81(3) 1_455 1_565
Si3 Fe2 Dy1 66.36(4) 1_565 1_565
Si3 Fe2 Dy1 126.81(3) . 1_565
Si4 Fe2 Dy1 61.79(3) 1_465 1_455
Si4 Fe2 Dy1 126.52(5) 1_565 1_455
Si4 Fe2 Dy1 61.79(3) 1_455 1_455
Si3 Fe2 Dy1 133.759(14) 13_666 1_455
Si5 Fe2 Dy1 60.15(9) 3_565 1_455
Si5 Fe2 Dy1 60.15(9) 2_665 1_455
Si5 Fe2 Dy1 23.46(12) . 1_455
Si3 Fe2 Dy1 66.36(4) 1_455 1_455
Si3 Fe2 Dy1 126.81(3) 1_565 1_455
Si3 Fe2 Dy1 126.81(3) . 1_455
Dy1 Fe2 Dy1 77.44(2) 1_565 1_455
Fe2 Si3 Fe2 112.60(4) 13_666 1_655
Fe2 Si3 Fe2 112.60(4) 13_666 1_545
Fe2 Si3 Fe2 106.17(5) 1_655 1_545
Fe2 Si3 Fe2 112.60(4) 13_666 .
Fe2 Si3 Fe2 106.17(5) 1_655 .
Fe2 Si3 Fe2 106.17(5) 1_545 .
Fe2 Si3 Si4 120.43(4) 13_666 1_565
Fe2 Si3 Si4 53.65(2) 1_655 1_565
Fe2 Si3 Si4 126.97(8) 1_545 1_565
Fe2 Si3 Si4 53.65(2) . 1_565
Fe2 Si3 Si4 120.43(4) 13_666 .
Fe2 Si3 Si4 53.65(2) 1_655 .
Fe2 Si3 Si4 53.65(2) 1_545 .
Fe2 Si3 Si4 126.97(8) . .
Si4 Si3 Si4 96.61(6) 1_565 .
Fe2 Si3 Si4 120.43(4) 13_666 1_455
Fe2 Si3 Si4 126.97(8) 1_655 1_455
Fe2 Si3 Si4 53.65(2) 1_545 1_455
Fe2 Si3 Si4 53.65(2) . 1_455
Si4 Si3 Si4 96.61(6) 1_565 1_455
Si4 Si3 Si4 96.61(6) . 1_455
Fe2 Si3 Si3 58.51(6) 13_666 13_656
Fe2 Si3 Si3 126.468(12) 1_655 13_656
Fe2 Si3 Si3 54.09(3) 1_545 13_656
Fe2 Si3 Si3 126.468(12) . 13_656
Si4 Si3 Si3 178.94(10) 1_565 13_656
Si4 Si3 Si3 84.09(3) . 13_656
Si4 Si3 Si3 84.09(3) 1_455 13_656
Fe2 Si3 Si3 58.51(6) 13_666 13_766
Fe2 Si3 Si3 54.09(3) 1_655 13_766
Fe2 Si3 Si3 126.468(12) 1_545 13_766
Fe2 Si3 Si3 126.468(12) . 13_766
Si4 Si3 Si3 84.09(3) 1_565 13_766
Si4 Si3 Si3 84.09(3) . 13_766
Si4 Si3 Si3 178.94(10) 1_455 13_766
Si3 Si3 Si3 95.20(8) 13_656 13_766
Fe2 Si3 Si3 58.51(6) 13_666 13_666
Fe2 Si3 Si3 126.468(12) 1_655 13_666
Fe2 Si3 Si3 126.468(12) 1_545 13_666
Fe2 Si3 Si3 54.09(3) . 13_666
Si4 Si3 Si3 84.09(3) 1_565 13_666
Si4 Si3 Si3 178.94(10) . 13_666
Si4 Si3 Si3 84.09(3) 1_455 13_666
Si3 Si3 Si3 95.20(8) 13_656 13_666
Si3 Si3 Si3 95.20(8) 13_766 13_666
Fe2 Si3 Dy1 180.0 13_666 .
Fe2 Si3 Dy1 67.40(4) 1_655 .
Fe2 Si3 Dy1 67.40(4) 1_545 .
Fe2 Si3 Dy1 67.40(4) . .
Si4 Si3 Dy1 59.57(4) 1_565 .
Si4 Si3 Dy1 59.57(4) . .
Si4 Si3 Dy1 59.57(4) 1_455 .
Si3 Si3 Dy1 121.49(6) 13_656 .
Si3 Si3 Dy1 121.49(6) 13_766 .
Si3 Si3 Dy1 121.49(6) 13_666 .
Fe2 Si4 Fe2 117.21(3) 1_645 1_545
Fe2 Si4 Fe2 117.21(3) 1_645 1_655
Fe2 Si4 Fe2 117.21(3) 1_545 1_655
Fe2 Si4 Si3 139.85(8) 1_645 .
Fe2 Si4 Si3 59.31(2) 1_545 .
Fe2 Si4 Si3 59.31(2) 1_655 .
Fe2 Si4 Si3 59.31(2) 1_645 1_545
Fe2 Si4 Si3 59.31(2) 1_545 1_545
Fe2 Si4 Si3 139.85(8) 1_655 1_545
Si3 Si4 Si3 96.61(6) . 1_545
Fe2 Si4 Si3 59.31(2) 1_645 1_655
Fe2 Si4 Si3 139.85(8) 1_545 1_655
Fe2 Si4 Si3 59.31(2) 1_655 1_655
Si3 Si4 Si3 96.61(6) . 1_655
Si3 Si4 Si3 96.61(6) 1_545 1_655
Fe2 Si4 Si5 101.25(12) 1_645 2_765
Fe2 Si4 Si5 134.57(10) 1_545 2_765
Fe2 Si4 Si5 56.10(7) 1_655 2_765
Si3 Si4 Si5 105.52(11) . 2_765
Si3 Si4 Si5 157.84(11) 1_545 2_765
Si3 Si4 Si5 79.88(6) 1_655 2_765
Fe2 Si4 Si5 134.57(10) 1_645 1_655
Fe2 Si4 Si5 101.25(12) 1_545 1_655
Fe2 Si4 Si5 56.10(7) 1_655 1_655
Si3 Si4 Si5 79.88(6) . 1_655
Si3 Si4 Si5 157.84(12) 1_545 1_655
Si3 Si4 Si5 105.52(11) 1_655 1_655
Si5 Si4 Si5 34.5(2) 2_765 1_655
Fe2 Si4 Si5 56.10(7) 1_645 3_655
Fe2 Si4 Si5 134.57(11) 1_545 3_655
Fe2 Si4 Si5 101.25(12) 1_655 3_655
Si3 Si4 Si5 157.84(12) . 3_655
Si3 Si4 Si5 105.52(11) 1_545 3_655
Si3 Si4 Si5 79.88(6) 1_655 3_655
Si5 Si4 Si5 52.3(2) 2_765 3_655
Si5 Si4 Si5 80.03(5) 1_655 3_655
Fe2 Si4 Si5 134.57(10) 1_645 3
Fe2 Si4 Si5 56.10(7) 1_545 3
Fe2 Si4 Si5 101.25(12) 1_655 3
Si3 Si4 Si5 79.88(6) . 3
Si3 Si4 Si5 105.52(11) 1_545 3
Si3 Si4 Si5 157.84(12) 1_655 3
Si5 Si4 Si5 80.03(4) 2_765 3
Si5 Si4 Si5 52.3(2) 1_655 3
Si5 Si4 Si5 95.08(6) 3_655 3
Fe2 Si4 Si5 101.25(12) 1_645 2_655
Fe2 Si4 Si5 56.10(7) 1_545 2_655
Fe2 Si4 Si5 134.57(10) 1_655 2_655
Si3 Si4 Si5 105.52(11) . 2_655
Si3 Si4 Si5 79.88(6) 1_545 2_655
Si3 Si4 Si5 157.84(11) 1_655 2_655
Si5 Si4 Si5 95.08(6) 2_765 2_655
Si5 Si4 Si5 80.03(5) 1_655 2_655
Si5 Si4 Si5 80.03(4) 3_655 2_655
Si5 Si4 Si5 34.5(2) 3 2_655
Fe2 Si4 Si5 56.10(7) 1_645 1_645
Fe2 Si4 Si5 101.25(12) 1_545 1_645
Fe2 Si4 Si5 134.57(11) 1_655 1_645
Si3 Si4 Si5 157.84(12) . 1_645
Si3 Si4 Si5 79.88(6) 1_545 1_645
Si3 Si4 Si5 105.52(11) 1_655 1_645
Si5 Si4 Si5 80.03(4) 2_765 1_645
Si5 Si4 Si5 95.08(6) 1_655 1_645
Si5 Si4 Si5 34.5(2) 3_655 1_645
Si5 Si4 Si5 80.03(5) 3 1_645
Si5 Si4 Si5 52.3(2) 2_655 1_645
Dy1 Si5 Si5 150.000(1) 1_455 3_565
Dy1 Si5 Si5 150.0 1_455 2_665
Si5 Si5 Si5 60.0 3_565 2_665
Dy1 Si5 Si5 30.000(1) 1_455 3_455
Si5 Si5 Si5 180.0 3_565 3_455
Si5 Si5 Si5 120.000(2) 2_665 3_455
Dy1 Si5 Si5 30.0 1_455 2_565
Si5 Si5 Si5 120.0 3_565 2_565
Si5 Si5 Si5 180.0 2_665 2_565
Si5 Si5 Si5 60.0 3_455 2_565
Dy1 Si5 Fe2 112.79(12) 1_455 16_557
Si5 Si5 Fe2 70.40(10) 3_565 16_557
Si5 Si5 Fe2 70.40(10) 2_665 16_557
Si5 Si5 Fe2 109.60(10) 3_455 16_557
Si5 Si5 Fe2 109.60(10) 2_565 16_557
Dy1 Si5 Fe2 112.79(12) 1_455 .
Si5 Si5 Fe2 70.40(10) 3_565 .
Si5 Si5 Fe2 70.40(10) 2_665 .
Si5 Si5 Fe2 109.60(10) 3_455 .
Si5 Si5 Fe2 109.60(10) 2_565 .
Fe2 Si5 Fe2 134.4(2) 16_557 .
Dy1 Si5 Si4 85.22(11) 1_455 16_467
Si5 Si5 Si4 72.74(11) 3_565 16_467
Si5 Si5 Si4 116.17(11) 2_665 16_467
Si5 Si5 Si4 107.26(11) 3_455 16_467
Si5 Si5 Si4 63.83(11) 2_565 16_467
Fe2 Si5 Si4 54.17(3) 16_557 16_467
Fe2 Si5 Si4 130.53(8) . 16_467
Dy1 Si5 Si4 85.22(11) 1_455 1_455
Si5 Si5 Si4 116.17(11) 3_565 1_455
Si5 Si5 Si4 72.74(11) 2_665 1_455
Si5 Si5 Si4 63.83(11) 3_455 1_455
Si5 Si5 Si4 107.26(11) 2_565 1_455
Fe2 Si5 Si4 130.53(8) 16_557 1_455
Fe2 Si5 Si4 54.17(3) . 1_455
Si4 Si5 Si4 170.4(2) 16_467 1_455
Dy1 Si5 Si4 85.22(11) 1_455 16_457
Si5 Si5 Si4 116.17(11) 3_565 16_457
Si5 Si5 Si4 72.74(11) 2_665 16_457
Si5 Si5 Si4 63.83(11) 3_455 16_457
Si5 Si5 Si4 107.26(11) 2_565 16_457
Fe2 Si5 Si4 54.17(3) 16_557 16_457
Fe2 Si5 Si4 130.53(8) . 16_457
Si4 Si5 Si4 95.08(6) 16_467 16_457
Si4 Si5 Si4 84.12(6) 1_455 16_457
Dy1 Si5 Si4 85.22(11) 1_455 1_465
Si5 Si5 Si4 72.74(11) 3_565 1_465
Si5 Si5 Si4 116.17(11) 2_665 1_465
Si5 Si5 Si4 107.26(11) 3_455 1_465
Si5 Si5 Si4 63.83(11) 2_565 1_465
Fe2 Si5 Si4 130.53(8) 16_557 1_465
Fe2 Si5 Si4 54.17(3) . 1_465
Si4 Si5 Si4 84.12(6) 16_467 1_465
Si4 Si5 Si4 95.08(6) 1_455 1_465
Si4 Si5 Si4 170.4(2) 16_457 1_465
Dy1 Si5 Dy1 136.17(7) 1_455 1_565
Si5 Si5 Dy1 13.83(7) 3_565 1_565
Si5 Si5 Dy1 73.83(7) 2_665 1_565
Si5 Si5 Dy1 166.17(7) 3_455 1_565
Si5 Si5 Dy1 106.17(7) 2_565 1_565
Fe2 Si5 Dy1 73.78(10) 16_557 1_565
Fe2 Si5 Dy1 73.78(10) . 1_565
Si4 Si5 Dy1 63.20(5) 16_467 1_565
Si4 Si5 Dy1 124.82(14) 1_455 1_565
Si4 Si5 Dy1 124.82(14) 16_457 1_565
Si4 Si5 Dy1 63.20(5) 1_465 1_565
loop_
_geom_bond_atom_site_label_1
_geom_bond_atom_site_label_2
_geom_bond_distance
_geom_bond_site_symmetry_2
Dy1 Si5 1.358(6) 3
Dy1 Si5 1.358(5) 1_655
Dy1 Si5 1.358(5) 2_665
Dy1 Si5 2.841(4) 1_545
Dy1 Si5 2.841(4) 3_665
Dy1 Si5 2.841(4) 2_655
Dy1 Si5 2.841(4) 2_765
Dy1 Si5 2.841(4) 3_565
Dy1 Si5 2.841(4) .
Dy1 Si4 2.8900(11) 16_567
Dy1 Si4 2.8900(11) 16_557
Dy1 Si4 2.8900(11) .
Fe2 Si4 2.3048(5) 1_465
Fe2 Si4 2.3048(5) 1_565
Fe2 Si4 2.3048(5) 1_455
Fe2 Si3 2.3374(18) 13_666
Fe2 Si5 2.360(2) 3_565
Fe2 Si5 2.360(2) 2_665
Fe2 Si5 2.360(2) .
Fe2 Si3 2.4607(8) 1_455
Fe2 Si3 2.4607(8) 1_565
Fe2 Si3 2.4607(8) .
Fe2 Dy1 3.1454(7) 1_565
Fe2 Dy1 3.1454(7) 1_455
Si3 Fe2 2.3374(18) 13_666
Si3 Fe2 2.4607(8) 1_655
Si3 Fe2 2.4607(8) 1_545
Si3 Si4 2.6348(12) 1_565
Si3 Si4 2.6348(12) .
Si3 Si4 2.6348(12) 1_455
Si3 Si3 2.6642(18) 13_656
Si3 Si3 2.6642(18) 13_766
Si3 Si3 2.6642(18) 13_666
Si4 Fe2 2.3048(5) 1_645
Si4 Fe2 2.3048(5) 1_545
Si4 Fe2 2.3048(5) 1_655
Si4 Si3 2.6348(12) 1_545
Si4 Si3 2.6348(12) 1_655
Si4 Si5 2.6667(13) 2_765
Si4 Si5 2.6667(13) 1_655
Si4 Si5 2.6667(13) 3_655
Si4 Si5 2.6667(13) 3
Si4 Si5 2.6667(13) 2_655
Si4 Si5 2.6667(13) 1_645
Si5 Dy1 1.358(5) 1_455
Si5 Si5 1.583(9) 3_565
Si5 Si5 1.583(9) 2_665
Si5 Si5 2.352(9) 3_455
Si5 Si5 2.352(9) 2_565
Si5 Fe2 2.360(2) 16_557
Si5 Si4 2.6667(13) 16_467
Si5 Si4 2.6667(13) 1_455
Si5 Si4 2.6667(13) 16_457
Si5 Si4 2.6667(13) 1_465
Si5 Dy1 2.841(4) 1_565
