#------------------------------------------------------------------------------
#$Date: 2016-03-23 21:08:37 +0200 (Wed, 23 Mar 2016) $
#$Revision: 179441 $
#$URL: svn://www.crystallography.net/cod/cif/4/33/38/4333896.cif $
#------------------------------------------------------------------------------
#
# This file is available in the Crystallography Open Database (COD),
# http://www.crystallography.net/
#
# All data on this site have been placed in the public domain by the
# contributors.
#
data_4333896
loop_
_publ_author_name
'Timo Bartsch'
'Thomas Wiegand'
'Jinjun Ren'
'Hellmut Eckert'
'Dirk Johrendt'
'Oliver Niehaus'
'Matthias Eul'
'Rainer P\"ottgen'
_publ_section_title
;
 Phosphide Oxides RE2AuP2O (RE= La, Ce, Pr, Nd): Synthesis, Structure,
 Chemical Bonding, Magnetism, and 31P and 139La Solid State NMR
;
_journal_name_full               'Inorganic Chemistry'
_journal_page_first              2094
_journal_page_last               2102
_journal_paper_doi               10.1021/ic302475u
_journal_volume                  52
_journal_year                    2013
_chemical_formula_sum            'Au O P2 Pr2'
_chemical_formula_weight         556.73
_chemical_name_systematic
; 
 ? 
;
_space_group_IT_number           12
_symmetry_cell_setting           monoclinic
_symmetry_space_group_name_Hall  '-C 2y'
_symmetry_space_group_name_H-M   'C 1 2/m 1'
_atom_sites_solution_hydrogens   geom
_atom_sites_solution_primary     direct
_atom_sites_solution_secondary   difmap
_audit_creation_method           SHELXL-97
_cell_angle_alpha                90.00
_cell_angle_beta                 130.88(2)
_cell_angle_gamma                90.00
_cell_formula_units_Z            4
_cell_length_a                   15.036(4)
_cell_length_b                   4.2277(8)
_cell_length_c                   9.930(2)
_cell_measurement_temperature    293(2)
_cell_volume                     477.3(2)
_computing_structure_refinement  'SHELXL-97 (Sheldrick, 1997)'
_computing_structure_solution    'SHELXS-97 (Sheldrick, 1990)'
_diffrn_ambient_temperature      293(2)
_diffrn_measured_fraction_theta_full 0.998
_diffrn_measured_fraction_theta_max 0.998
_diffrn_radiation_monochromator  graphite
_diffrn_radiation_source         'fine-focus sealed tube'
_diffrn_radiation_type           MoK\a
_diffrn_radiation_wavelength     0.71073
_diffrn_reflns_av_R_equivalents  0.0542
_diffrn_reflns_av_sigmaI/netI    0.0662
_diffrn_reflns_limit_h_max       22
_diffrn_reflns_limit_h_min       -22
_diffrn_reflns_limit_k_max       6
_diffrn_reflns_limit_k_min       -5
_diffrn_reflns_limit_l_max       15
_diffrn_reflns_limit_l_min       -15
_diffrn_reflns_number            3457
_diffrn_reflns_theta_full        33.42
_diffrn_reflns_theta_max         33.42
_diffrn_reflns_theta_min         2.71
_exptl_absorpt_coefficient_mu    51.253
_exptl_crystal_density_diffrn    7.748
_exptl_crystal_F_000             940
_refine_diff_density_max         2.551
_refine_diff_density_min         -3.152
_refine_diff_density_rms         0.465
_refine_ls_extinction_method     none
_refine_ls_goodness_of_fit_ref   0.811
_refine_ls_hydrogen_treatment    mixed
_refine_ls_matrix_type           full
_refine_ls_number_parameters     37
_refine_ls_number_reflns         1037
_refine_ls_number_restraints     0
_refine_ls_restrained_S_all      0.811
_refine_ls_R_factor_all          0.0500
_refine_ls_R_factor_gt           0.0257
_refine_ls_shift/su_max          0.000
_refine_ls_shift/su_mean         0.000
_refine_ls_structure_factor_coef Fsqd
_refine_ls_weighting_details
'calc w=1/[\s^2^(Fo^2^)+(0.0092P)^2^+0.0000P] where P=(Fo^2^+2Fc^2^)/3'
_refine_ls_weighting_scheme      calc
_refine_ls_wR_factor_gt          0.0372
_refine_ls_wR_factor_ref         0.0401
_reflns_number_gt                750
_reflns_number_total             1037
_reflns_threshold_expression     >2sigma(I)
_cod_data_source_file            ic302475u_si_001_2.cif
_cod_data_source_block           pr2aup2o
_cod_original_cell_volume        477.26(18)
_cod_database_code               4333896
loop_
_symmetry_equiv_pos_as_xyz
'x, y, z'
'-x, y, -z'
'x+1/2, y+1/2, z'
'-x+1/2, y+1/2, -z'
'-x, -y, -z'
'x, -y, z'
'-x+1/2, -y+1/2, -z'
'x+1/2, -y+1/2, z'
loop_
_atom_site_label
_atom_site_type_symbol
_atom_site_fract_x
_atom_site_fract_y
_atom_site_fract_z
_atom_site_U_iso_or_equiv
_atom_site_adp_type
_atom_site_occupancy
_atom_site_symmetry_multiplicity
_atom_site_calc_flag
_atom_site_refinement_flags
Pr1 Pr 0.13209(5) 0.0000 0.31171(7) 0.00698(11) Uani 1 2 d S
Pr2 Pr 0.17322(5) 0.0000 0.73176(7) 0.00720(11) Uani 1 2 d S
Au Au 0.41170(4) 0.0000 0.12524(5) 0.00952(9) Uani 1 2 d S
P1 P 0.1487(2) 0.0000 0.0285(3) 0.0095(4) Uani 1 2 d S
P2 P 0.5495(3) 0.0000 0.4530(4) 0.0121(5) Uani 1 2 d S
O O 0.2770(6) 0.0000 0.6299(9) 0.0061(12) Uani 1 2 d S
loop_
_atom_site_aniso_label
_atom_site_aniso_U_11
_atom_site_aniso_U_22
_atom_site_aniso_U_33
_atom_site_aniso_U_23
_atom_site_aniso_U_13
_atom_site_aniso_U_12
Pr1 0.0075(2) 0.0062(3) 0.0070(2) 0.000 0.0046(2) 0.000
Pr2 0.0076(2) 0.0075(3) 0.0062(2) 0.000 0.0044(2) 0.000
Au 0.00962(18) 0.00843(19) 0.00788(17) 0.000 0.00458(15) 0.000
P1 0.0117(11) 0.0079(11) 0.0054(10) 0.000 0.0041(9) 0.000
P2 0.0132(13) 0.0149(14) 0.0092(11) 0.000 0.0078(11) 0.000
O 0.008(3) 0.006(3) 0.008(3) 0.000 0.006(3) 0.000
loop_
_atom_type_symbol
_atom_type_description
_atom_type_scat_dispersion_real
_atom_type_scat_dispersion_imag
_atom_type_scat_source
O O 0.0106 0.0060 'International Tables Vol C Tables 4.2.6.8 and 6.1.1.4'
P P 0.1023 0.0942 'International Tables Vol C Tables 4.2.6.8 and 6.1.1.4'
Pr Pr -0.2180 2.8214 'International Tables Vol C Tables 4.2.6.8 and 6.1.1.4'
Au Au -2.0133 8.8022 'International Tables Vol C Tables 4.2.6.8 and 6.1.1.4'
loop_
_geom_angle_atom_site_label_1
_geom_angle_atom_site_label_2
_geom_angle_atom_site_label_3
_geom_angle
_geom_angle_site_symmetry_1
_geom_angle_site_symmetry_3
O Pr1 O 125.8(3) 7_556 7_546
O Pr1 O 78.23(17) 7_556 .
O Pr1 O 78.23(17) 7_546 .
O Pr1 P1 80.80(15) 7_556 .
O Pr1 P1 80.80(15) 7_546 .
O Pr1 P1 132.83(16) . .
O Pr1 P2 68.39(14) 7_556 3_455
O Pr1 P2 143.80(17) 7_546 3_455
O Pr1 P2 72.57(13) . 3_455
P1 Pr1 P2 135.15(5) . 3_455
O Pr1 P2 143.80(17) 7_556 3_445
O Pr1 P2 68.39(14) 7_546 3_445
O Pr1 P2 72.57(13) . 3_445
P1 Pr1 P2 135.15(5) . 3_445
P2 Pr1 P2 82.60(8) 3_455 3_445
O Pr1 P1 113.74(16) 7_556 5
O Pr1 P1 113.74(16) 7_546 5
O Pr1 P1 144.44(16) . 5
P1 Pr1 P1 82.73(8) . 5
P2 Pr1 P1 80.96(7) 3_455 5
P2 Pr1 P1 80.96(7) 3_445 5
O Pr1 Au 156.28(16) 7_556 3_445
O Pr1 Au 76.85(15) 7_546 3_445
O Pr1 Au 117.02(11) . 3_445
P1 Pr1 Au 98.30(5) . 3_445
P2 Pr1 Au 97.70(6) 3_455 3_445
P2 Pr1 Au 44.50(6) 3_445 3_445
P1 Pr1 Au 43.21(2) 5 3_445
O Pr1 Au 76.85(15) 7_556 3_455
O Pr1 Au 156.28(16) 7_546 3_455
O Pr1 Au 117.02(11) . 3_455
P1 Pr1 Au 98.30(5) . 3_455
P2 Pr1 Au 44.50(5) 3_455 3_455
P2 Pr1 Au 97.70(6) 3_445 3_455
P1 Pr1 Au 43.21(2) 5 3_455
Au Pr1 Au 79.86(3) 3_445 3_455
O Pr1 Pr1 39.28(16) 7_556 7_556
O Pr1 Pr1 104.13(16) 7_546 7_556
O Pr1 Pr1 38.95(7) . 7_556
P1 Pr1 Pr1 109.70(5) . 7_556
P2 Pr1 Pr1 64.52(6) 3_455 7_556
P2 Pr1 Pr1 108.94(6) 3_445 7_556
P1 Pr1 Pr1 141.69(3) 5 7_556
Au Pr1 Pr1 151.84(3) 3_445 7_556
Au Pr1 Pr1 98.49(3) 3_455 7_556
O Pr1 Pr1 104.13(16) 7_556 7_546
O Pr1 Pr1 39.28(16) 7_546 7_546
O Pr1 Pr1 38.95(7) . 7_546
P1 Pr1 Pr1 109.70(5) . 7_546
P2 Pr1 Pr1 108.94(6) 3_455 7_546
P2 Pr1 Pr1 64.52(6) 3_445 7_546
P1 Pr1 Pr1 141.69(3) 5 7_546
Au Pr1 Pr1 98.49(3) 3_445 7_546
Au Pr1 Pr1 151.84(3) 3_455 7_546
Pr1 Pr1 Pr1 69.75(3) 7_556 7_546
O Pr1 P2 63.02(15) 7_556 5_656
O Pr1 P2 63.02(15) 7_546 5_656
O Pr1 P2 58.87(16) . 5_656
P1 Pr1 P2 73.96(7) . 5_656
P2 Pr1 P2 115.79(6) 3_455 5_656
P2 Pr1 P2 115.79(6) 3_445 5_656
P1 Pr1 P2 156.69(6) 5 5_656
Au Pr1 P2 139.790(15) 3_445 5_656
Au Pr1 P2 139.790(15) 3_455 5_656
Pr1 Pr1 P2 51.27(4) 7_556 5_656
Pr1 Pr1 P2 51.27(4) 7_546 5_656
O Pr1 Pr2 94.46(15) 7_556 .
O Pr1 Pr2 94.46(15) 7_546 .
O Pr1 Pr2 36.46(16) . .
P1 Pr1 Pr2 169.29(6) . .
P2 Pr1 Pr2 49.43(5) 3_455 .
P2 Pr1 Pr2 49.43(5) 3_445 .
P1 Pr1 Pr2 107.98(5) 5 .
Au Pr1 Pr2 89.89(3) 3_445 .
Au Pr1 Pr2 89.89(3) 3_455 .
Pr1 Pr1 Pr2 61.95(2) 7_556 .
Pr1 Pr1 Pr2 61.95(2) 7_546 .
P2 Pr1 Pr2 95.33(5) 5_656 .
O Pr1 Pr2 35.07(14) 7_556 7_556
O Pr1 Pr2 99.06(15) 7_546 7_556
O Pr1 Pr2 92.63(13) . 7_556
P1 Pr1 Pr2 49.93(4) . 7_556
P2 Pr1 Pr2 103.15(4) 3_455 7_556
P2 Pr1 Pr2 161.97(6) 3_445 7_556
P1 Pr1 Pr2 116.64(4) 5 7_556
Au Pr1 Pr2 147.88(2) 3_445 7_556
Au Pr1 Pr2 98.24(2) 3_455 7_556
Pr1 Pr1 Pr2 60.27(2) 7_556 7_556
Pr1 Pr1 Pr2 97.52(3) 7_546 7_556
P2 Pr1 Pr2 46.27(3) 5_656 7_556
Pr2 Pr1 Pr2 122.23(2) . 7_556
O Pr1 Pr2 99.06(15) 7_556 7_546
O Pr1 Pr2 35.07(14) 7_546 7_546
O Pr1 Pr2 92.63(13) . 7_546
P1 Pr1 Pr2 49.93(4) . 7_546
P2 Pr1 Pr2 161.97(6) 3_455 7_546
P2 Pr1 Pr2 103.15(4) 3_445 7_546
P1 Pr1 Pr2 116.64(4) 5 7_546
Au Pr1 Pr2 98.24(2) 3_445 7_546
Au Pr1 Pr2 147.88(2) 3_455 7_546
Pr1 Pr1 Pr2 97.52(3) 7_556 7_546
Pr1 Pr1 Pr2 60.27(2) 7_546 7_546
P2 Pr1 Pr2 46.27(3) 5_656 7_546
Pr2 Pr1 Pr2 122.23(2) . 7_546
Pr2 Pr1 Pr2 66.46(2) 7_556 7_546
O Pr1 Pr1 152.92(15) 7_556 1_545
O Pr1 Pr1 27.08(15) 7_546 1_545
O Pr1 Pr1 90.000(1) . 1_545
P1 Pr1 Pr1 90.0 . 1_545
P2 Pr1 Pr1 131.30(4) 3_455 1_545
P2 Pr1 Pr1 48.70(4) 3_445 1_545
P1 Pr1 Pr1 90.0 5 1_545
Au Pr1 Pr1 50.070(15) 3_445 1_545
Au Pr1 Pr1 129.930(15) 3_455 1_545
Pr1 Pr1 Pr1 124.873(16) 7_556 1_545
Pr1 Pr1 Pr1 55.127(15) 7_546 1_545
P2 Pr1 Pr1 90.0 5_656 1_545
Pr2 Pr1 Pr1 90.0 . 1_545
Pr2 Pr1 Pr1 123.232(10) 7_556 1_545
Pr2 Pr1 Pr1 56.768(10) 7_546 1_545
O Pr1 Pr1 27.08(15) 7_556 1_565
O Pr1 Pr1 152.92(15) 7_546 1_565
O Pr1 Pr1 90.000(1) . 1_565
P1 Pr1 Pr1 90.0 . 1_565
P2 Pr1 Pr1 48.70(4) 3_455 1_565
P2 Pr1 Pr1 131.30(4) 3_445 1_565
P1 Pr1 Pr1 90.0 5 1_565
Au Pr1 Pr1 129.930(15) 3_445 1_565
Au Pr1 Pr1 50.070(15) 3_455 1_565
Pr1 Pr1 Pr1 55.127(16) 7_556 1_565
Pr1 Pr1 Pr1 124.873(15) 7_546 1_565
P2 Pr1 Pr1 90.0 5_656 1_565
Pr2 Pr1 Pr1 90.0 . 1_565
Pr2 Pr1 Pr1 56.768(10) 7_556 1_565
Pr2 Pr1 Pr1 123.232(10) 7_546 1_565
Pr1 Pr1 Pr1 180.0 1_545 1_565
O Pr1 Pr2 115.39(15) 7_556 5_556
O Pr1 Pr2 115.39(15) 7_546 5_556
O Pr1 Pr2 96.99(16) . 5_556
P1 Pr1 Pr2 130.18(6) . 5_556
P2 Pr1 Pr2 49.65(5) 3_455 5_556
P2 Pr1 Pr2 49.65(5) 3_445 5_556
P1 Pr1 Pr2 47.45(5) 5 5_556
Au Pr1 Pr2 48.047(17) 3_445 5_556
Au Pr1 Pr2 48.047(17) 3_455 5_556
Pr1 Pr1 Pr2 110.73(3) 7_556 5_556
Pr1 Pr1 Pr2 110.73(3) 7_546 5_556
P2 Pr1 Pr2 155.86(5) 5_656 5_556
Pr2 Pr1 Pr2 60.53(3) . 5_556
Pr2 Pr1 Pr2 145.427(11) 7_556 5_556
Pr2 Pr1 Pr2 145.427(11) 7_546 5_556
Pr1 Pr1 Pr2 90.0 1_545 5_556
Pr1 Pr1 Pr2 90.0 1_565 5_556
O Pr1 Au 110.71(15) 7_556 7_545
O Pr1 Au 60.77(16) 7_546 7_545
O Pr1 Au 135.26(11) . 7_545
P1 Pr1 Au 30.085(19) . 7_545
P2 Pr1 Au 152.13(6) 3_455 7_545
P2 Pr1 Au 105.07(4) 3_445 7_545
P1 Pr1 Au 74.06(5) 5 7_545
Au Pr1 Au 72.30(2) 3_445 7_545
Au Pr1 Au 107.63(3) 3_455 7_545
Pr1 Pr1 Au 133.36(3) 7_556 7_545
Pr1 Pr1 Au 98.39(3) 7_546 7_545
P2 Pr1 Au 85.46(5) 5_656 7_545
Pr2 Pr1 Au 151.783(8) . 7_545
Pr2 Pr1 Au 77.938(18) 7_556 7_545
Pr2 Pr1 Au 43.35(2) 7_546 7_545
Pr1 Pr1 Au 61.783(8) 1_545 7_545
Pr1 Pr1 Au 118.217(8) 1_565 7_545
Pr2 Pr1 Au 115.54(2) 5_556 7_545
O Pr1 Au 60.77(16) 7_556 7
O Pr1 Au 110.71(15) 7_546 7
O Pr1 Au 135.26(12) . 7
P1 Pr1 Au 30.085(19) . 7
P2 Pr1 Au 105.07(4) 3_455 7
P2 Pr1 Au 152.13(6) 3_445 7
P1 Pr1 Au 74.06(5) 5 7
Au Pr1 Au 107.63(3) 3_445 7
Au Pr1 Au 72.30(2) 3_455 7
Pr1 Pr1 Au 98.39(2) 7_556 7
Pr1 Pr1 Au 133.36(3) 7_546 7
P2 Pr1 Au 85.46(5) 5_656 7
Pr2 Pr1 Au 151.783(8) . 7
Pr2 Pr1 Au 43.35(2) 7_556 7
Pr2 Pr1 Au 77.938(18) 7_546 7
Pr1 Pr1 Au 118.217(8) 1_545 7
Pr1 Pr1 Au 61.783(8) 1_565 7
Pr2 Pr1 Au 115.54(2) 5_556 7
Au Pr1 Au 56.434(16) 7_545 7
O Pr1 Pr1 100.24(16) 7_556 5
O Pr1 Pr1 100.24(16) 7_546 5
O Pr1 Pr1 176.37(15) . 5
P1 Pr1 Pr1 43.54(5) . 5
P2 Pr1 Pr1 110.03(6) 3_455 5
P2 Pr1 Pr1 110.03(6) 3_445 5
P1 Pr1 Pr1 39.19(5) 5 5
Au Pr1 Pr1 65.53(2) 3_445 5
Au Pr1 Pr1 65.53(2) 3_455 5
Pr1 Pr1 Pr1 139.43(2) 7_556 5
Pr1 Pr1 Pr1 139.43(2) 7_546 5
P2 Pr1 Pr1 117.50(5) 5_656 5
Pr2 Pr1 Pr1 147.17(3) . 5
Pr2 Pr1 Pr1 84.34(3) 7_556 5
Pr2 Pr1 Pr1 84.34(3) 7_546 5
Pr1 Pr1 Pr1 90.0 1_545 5
Pr1 Pr1 Pr1 90.0 1_565 5
Pr2 Pr1 Pr1 86.64(3) 5_556 5
Au Pr1 Pr1 42.104(15) 7_545 5
Au Pr1 Pr1 42.104(15) 7 5
O Pr1 O 28.9(2) 7_556 1_565
O Pr1 O 132.43(9) 7_546 1_565
O Pr1 O 60.51(7) . 1_565
P1 Pr1 O 109.55(7) . 1_565
P2 Pr1 O 43.79(10) 3_455 1_565
P2 Pr1 O 115.28(8) 3_445 1_565
P1 Pr1 O 113.61(8) 5 1_565
Au Pr1 O 141.47(8) 3_445 1_565
Au Pr1 O 70.42(8) 3_455 1_565
Pr1 Pr1 O 28.29(8) 7_556 1_565
Pr1 Pr1 O 96.59(7) 7_546 1_565
P2 Pr1 O 75.26(8) 5_656 1_565
Pr2 Pr1 O 66.67(7) . 1_565
Pr2 Pr1 O 62.97(7) 7_556 1_565
Pr2 Pr1 O 119.98(8) 7_546 1_565
Pr1 Pr1 O 150.51(7) 1_545 1_565
Pr1 Pr1 O 29.49(7) 1_565 1_565
Pr2 Pr1 O 93.43(8) 5_556 1_565
Au Pr1 O 139.58(7) 7_545 1_565
Au Pr1 O 86.46(7) 7 1_565
Pr1 Pr1 O 119.43(7) 5 1_565
O Pr1 O 132.43(9) 7_556 1_545
O Pr1 O 28.9(2) 7_546 1_545
O Pr1 O 60.51(7) . 1_545
P1 Pr1 O 109.55(7) . 1_545
P2 Pr1 O 115.28(8) 3_455 1_545
P2 Pr1 O 43.79(10) 3_445 1_545
P1 Pr1 O 113.61(8) 5 1_545
Au Pr1 O 70.42(8) 3_445 1_545
Au Pr1 O 141.47(8) 3_455 1_545
Pr1 Pr1 O 96.59(7) 7_556 1_545
Pr1 Pr1 O 28.29(8) 7_546 1_545
P2 Pr1 O 75.26(8) 5_656 1_545
Pr2 Pr1 O 66.67(7) . 1_545
Pr2 Pr1 O 119.98(8) 7_556 1_545
Pr2 Pr1 O 62.97(7) 7_546 1_545
Pr1 Pr1 O 29.49(7) 1_545 1_545
Pr1 Pr1 O 150.51(7) 1_565 1_545
Pr2 Pr1 O 93.43(8) 5_556 1_545
Au Pr1 O 86.46(7) 7_545 1_545
Au Pr1 O 139.58(7) 7 1_545
Pr1 Pr1 O 119.43(7) 5 1_545
O Pr1 O 121.02(14) 1_565 1_545
O Pr1 P2 130.99(15) 7_556 7_546
O Pr1 P2 85.06(15) 7_546 7_546
O Pr1 P2 72.00(14) . 7_546
P1 Pr1 P2 146.83(4) . 7_546
P2 Pr1 P2 66.01(3) 3_455 7_546
P2 Pr1 P2 16.94(5) 3_445 7_546
P1 Pr1 P2 75.77(6) 5 7_546
Au Pr1 P2 49.06(4) 3_445 7_546
Au Pr1 P2 83.09(3) 3_455 7_546
Pr1 Pr1 P2 102.79(4) 7_556 7_546
Pr1 Pr1 P2 75.22(4) 7_546 7_546
P2 Pr1 P2 124.90(6) 5_656 7_546
Pr2 Pr1 P2 40.84(3) . 7_546
Pr2 Pr1 P2 163.05(3) 7_556 7_546
Pr2 Pr1 P2 119.99(2) 7_546 7_546
Pr1 Pr1 P2 65.374(15) 1_545 7_546
Pr1 Pr1 P2 114.626(15) 1_565 7_546
Pr2 Pr1 P2 35.81(3) 5_556 7_546
Au Pr1 P2 117.92(3) 7_545 7_546
Au Pr1 P2 149.57(4) 7 7_546
Pr1 Pr1 P2 111.25(4) 5 7_546
O Pr1 P2 102.16(8) 1_565 7_546
O Pr1 P2 59.01(8) 1_545 7_546
O Pr1 P2 85.06(15) 7_556 7_556
O Pr1 P2 130.99(15) 7_546 7_556
O Pr1 P2 72.00(14) . 7_556
P1 Pr1 P2 146.83(4) . 7_556
P2 Pr1 P2 16.94(5) 3_455 7_556
P2 Pr1 P2 66.01(3) 3_445 7_556
P1 Pr1 P2 75.77(6) 5 7_556
Au Pr1 P2 83.09(3) 3_445 7_556
Au Pr1 P2 49.06(4) 3_455 7_556
Pr1 Pr1 P2 75.22(4) 7_556 7_556
Pr1 Pr1 P2 102.79(4) 7_546 7_556
P2 Pr1 P2 124.90(6) 5_656 7_556
Pr2 Pr1 P2 40.84(3) . 7_556
Pr2 Pr1 P2 119.99(2) 7_556 7_556
Pr2 Pr1 P2 163.05(3) 7_546 7_556
Pr1 Pr1 P2 114.626(15) 1_545 7_556
Pr1 Pr1 P2 65.374(15) 1_565 7_556
Pr2 Pr1 P2 35.81(3) 5_556 7_556
Au Pr1 P2 149.57(4) 7_545 7_556
Au Pr1 P2 117.92(3) 7 7_556
Pr1 Pr1 P2 111.25(4) 5 7_556
O Pr1 P2 59.01(8) 1_565 7_556
O Pr1 P2 102.16(8) 1_545 7_556
P2 Pr1 P2 49.25(3) 7_546 7_556
O Pr1 P1 129.46(15) 7_556 1_545
O Pr1 P1 34.94(16) 7_546 1_545
O Pr1 P1 113.07(8) . 1_545
P1 Pr1 P1 54.80(2) . 1_545
P2 Pr1 P1 161.43(6) 3_455 1_545
P2 Pr1 P1 82.49(5) 3_445 1_545
P1 Pr1 P1 85.82(4) 5 1_545
Au Pr1 P1 63.81(3) 3_445 1_545
Au Pr1 P1 127.42(4) 3_455 1_545
Pr1 Pr1 P1 131.41(4) 7_556 1_545
Pr1 Pr1 P1 74.16(3) 7_546 1_545
P2 Pr1 P1 80.83(4) 5_656 1_545
Pr2 Pr1 P1 124.50(2) . 1_545
Pr2 Pr1 P1 94.40(3) 7_556 1_545
Pr2 Pr1 P1 35.03(3) 7_546 1_545
Pr1 Pr1 P1 35.20(2) 1_545 1_545
Pr1 Pr1 P1 144.80(2) 1_565 1_545
Pr2 Pr1 P1 111.83(3) 5_556 1_545
Au Pr1 P1 27.74(2) 7_545 1_545
Au Pr1 P1 83.55(3) 7 1_545
Pr1 Pr1 P1 65.30(3) 5 1_545
O Pr1 P1 154.71(8) 1_565 1_545
O Pr1 P1 58.78(7) 1_545 1_545
P2 Pr1 P1 98.16(3) 7_546 1_545
P2 Pr1 P1 145.38(3) 7_556 1_545
O Pr1 P1 34.94(16) 7_556 1_565
O Pr1 P1 129.46(15) 7_546 1_565
O Pr1 P1 113.07(8) . 1_565
P1 Pr1 P1 54.80(2) . 1_565
P2 Pr1 P1 82.49(5) 3_455 1_565
P2 Pr1 P1 161.43(6) 3_445 1_565
P1 Pr1 P1 85.82(4) 5 1_565
Au Pr1 P1 127.42(4) 3_445 1_565
Au Pr1 P1 63.81(3) 3_455 1_565
Pr1 Pr1 P1 74.16(3) 7_556 1_565
Pr1 Pr1 P1 131.41(4) 7_546 1_565
P2 Pr1 P1 80.83(4) 5_656 1_565
Pr2 Pr1 P1 124.50(2) . 1_565
Pr2 Pr1 P1 35.03(3) 7_556 1_565
Pr2 Pr1 P1 94.40(3) 7_546 1_565
Pr1 Pr1 P1 144.80(2) 1_545 1_565
Pr1 Pr1 P1 35.20(2) 1_565 1_565
Pr2 Pr1 P1 111.83(3) 5_556 1_565
Au Pr1 P1 83.55(3) 7_545 1_565
Au Pr1 P1 27.74(2) 7 1_565
Pr1 Pr1 P1 65.30(3) 5 1_565
O Pr1 P1 58.78(7) 1_565 1_565
O Pr1 P1 154.71(8) 1_545 1_565
P2 Pr1 P1 145.38(3) 7_546 1_565
P2 Pr1 P1 98.16(3) 7_556 1_565
P1 Pr1 P1 109.61(5) 1_545 1_565
O Pr1 Au 66.52(16) 7_556 5_656
O Pr1 Au 66.52(16) 7_546 5_656
O Pr1 Au 34.47(16) . 5_656
P1 Pr1 Au 98.36(6) . 5_656
P2 Pr1 Au 98.23(6) 3_455 5_656
P2 Pr1 Au 98.23(6) 3_445 5_656
P1 Pr1 Au 178.91(5) 5 5_656
Au Pr1 Au 136.398(17) 3_445 5_656
Au Pr1 Au 136.398(17) 3_455 5_656
Pr1 Pr1 Au 37.903(17) 7_556 5_656
Pr1 Pr1 Au 37.904(17) 7_546 5_656
P2 Pr1 Au 24.40(4) 5_656 5_656
Pr2 Pr1 Au 70.93(3) . 5_656
Pr2 Pr1 Au 64.23(2) 7_556 5_656
Pr2 Pr1 Au 64.23(2) 7_546 5_656
Pr1 Pr1 Au 90.0 1_545 5_656
Pr1 Pr1 Au 90.0 1_565 5_656
Pr2 Pr1 Au 131.46(2) 5_556 5_656
Au Pr1 Au 106.89(2) 7_545 5_656
Au Pr1 Au 106.89(2) 7 5_656
Pr1 Pr1 Au 141.90(2) 5 5_656
O Pr1 Au 66.05(8) 1_565 5_656
O Pr1 Au 66.05(8) 1_545 5_656
P2 Pr1 Au 103.25(4) 7_546 5_656
P2 Pr1 Au 103.25(4) 7_556 5_656
P1 Pr1 Au 94.81(3) 1_545 5_656
P1 Pr1 Au 94.81(3) 1_565 5_656
O Pr1 P1 162.03(16) 7_556 5_545
O Pr1 P1 62.58(16) 7_546 5_545
O Pr1 P1 119.73(7) . 5_545
P1 Pr1 P1 85.58(5) . 5_545
P2 Pr1 P1 115.30(6) 3_455 5_545
P2 Pr1 P1 51.76(6) 3_445 5_545
P1 Pr1 P1 52.44(3) 5 5_545
Au Pr1 P1 17.62(3) 3_445 5_545
Au Pr1 P1 93.70(4) 3_455 5_545
Pr1 Pr1 P1 158.68(3) 7_556 5_545
Pr1 Pr1 P1 91.44(3) 7_546 5_545
P2 Pr1 P1 124.04(3) 5_656 5_545
Pr2 Pr1 P1 100.85(3) . 5_545
Pr2 Pr1 P1 135.05(3) 7_556 5_545
Pr2 Pr1 P1 80.73(3) 7_546 5_545
Pr1 Pr1 P1 37.56(3) 1_545 5_545
Pr1 Pr1 P1 142.44(3) 1_565 5_545
Pr2 Pr1 P1 65.66(3) 5_556 5_545
Au Pr1 P1 57.16(3) 7_545 5_545
Au Pr1 P1 101.97(3) 7 5_545
Pr1 Pr1 P1 61.81(3) 5 5_545
O Pr1 P1 159.09(8) 1_565 5_545
O Pr1 P1 63.52(8) 1_545 5_545
P2 Pr1 P1 61.30(4) 7_546 5_545
P2 Pr1 P1 100.40(4) 7_556 5_545
P1 Pr1 P1 46.19(6) 1_545 5_545
P1 Pr1 P1 127.11(2) 1_565 5_545
Au Pr1 P1 127.55(3) 5_656 5_545
O Pr1 P1 62.58(16) 7_556 5_565
O Pr1 P1 162.03(16) 7_546 5_565
O Pr1 P1 119.73(7) . 5_565
P1 Pr1 P1 85.58(5) . 5_565
P2 Pr1 P1 51.76(6) 3_455 5_565
P2 Pr1 P1 115.30(6) 3_445 5_565
P1 Pr1 P1 52.44(3) 5 5_565
Au Pr1 P1 93.70(4) 3_445 5_565
Au Pr1 P1 17.62(3) 3_455 5_565
Pr1 Pr1 P1 91.44(3) 7_556 5_565
Pr1 Pr1 P1 158.68(3) 7_546 5_565
P2 Pr1 P1 124.04(3) 5_656 5_565
Pr2 Pr1 P1 100.85(3) . 5_565
Pr2 Pr1 P1 80.73(3) 7_556 5_565
Pr2 Pr1 P1 135.05(3) 7_546 5_565
Pr1 Pr1 P1 142.44(3) 1_545 5_565
Pr1 Pr1 P1 37.56(3) 1_565 5_565
Pr2 Pr1 P1 65.66(3) 5_556 5_565
Au Pr1 P1 101.97(3) 7_545 5_565
Au Pr1 P1 57.16(3) 7 5_565
Pr1 Pr1 P1 61.81(3) 5 5_565
O Pr1 P1 63.52(8) 1_565 5_565
O Pr1 P1 159.09(8) 1_545 5_565
P2 Pr1 P1 100.40(4) 7_546 5_565
P2 Pr1 P1 61.30(4) 7_556 5_565
P1 Pr1 P1 127.11(2) 1_545 5_565
P1 Pr1 P1 46.19(6) 1_565 5_565
Au Pr1 P1 127.55(3) 5_656 5_565
P1 Pr1 P1 104.88(5) 5_545 5_565
O Pr2 P2 77.67(13) . 3_445
O Pr2 P2 77.67(13) . 3_455
P2 Pr2 P2 90.55(8) 3_445 3_455
O Pr2 P1 80.92(13) . 7_556
P2 Pr2 P1 158.57(8) 3_445 7_556
P2 Pr2 P1 85.84(6) 3_455 7_556
O Pr2 P1 80.92(13) . 7_546
P2 Pr2 P1 85.84(6) 3_445 7_546
P2 Pr2 P1 158.57(8) 3_455 7_546
P1 Pr2 P1 89.84(8) 7_556 7_546
O Pr2 Au 89.80(17) . 1_556
P2 Pr2 Au 132.05(5) 3_445 1_556
P2 Pr2 Au 132.05(5) 3_455 1_556
P1 Pr2 Au 46.31(4) 7_556 1_556
P1 Pr2 Au 46.31(4) 7_546 1_556
O Pr2 P1 154.87(18) . 1_556
P2 Pr2 P1 118.56(6) 3_445 1_556
P2 Pr2 P1 118.56(6) 3_455 1_556
P1 Pr2 P1 81.36(7) 7_556 1_556
P1 Pr2 P1 81.36(7) 7_546 1_556
Au Pr2 P1 65.07(5) 1_556 1_556
O Pr2 Au 138.77(3) . 7_556
P2 Pr2 Au 133.30(6) 3_445 7_556
P2 Pr2 Au 76.02(5) 3_455 7_556
P1 Pr2 Au 66.07(5) 7_556 7_556
P1 Pr2 Au 121.08(5) 7_546 7_556
Au Pr2 Au 84.89(2) 1_556 7_556
P1 Pr2 Au 43.96(2) 1_556 7_556
O Pr2 Au 138.77(3) . 7_546
P2 Pr2 Au 76.02(5) 3_445 7_546
P2 Pr2 Au 133.30(6) 3_455 7_546
P1 Pr2 Au 121.08(5) 7_556 7_546
P1 Pr2 Au 66.07(5) 7_546 7_546
Au Pr2 Au 84.89(2) 1_556 7_546
P1 Pr2 Au 43.96(2) 1_556 7_546
Au Pr2 Au 81.49(2) 7_556 7_546
O Pr2 P2 118.44(13) . 7_546
P2 Pr2 P2 40.77(10) 3_445 7_546
P2 Pr2 P2 98.51(4) 3_455 7_546
P1 Pr2 P2 160.63(8) 7_556 7_546
P1 Pr2 P2 92.49(6) 7_546 7_546
Au Pr2 P2 127.42(5) 1_556 7_546
P1 Pr2 P2 79.99(7) 1_556 7_546
Au Pr2 P2 96.51(5) 7_556 7_546
Au Pr2 P2 44.08(5) 7_546 7_546
O Pr2 P2 118.44(13) . 7_556
P2 Pr2 P2 98.51(4) 3_445 7_556
P2 Pr2 P2 40.77(10) 3_455 7_556
P1 Pr2 P2 92.49(6) 7_556 7_556
P1 Pr2 P2 160.63(8) 7_546 7_556
Au Pr2 P2 127.42(5) 1_556 7_556
P1 Pr2 P2 79.99(7) 1_556 7_556
Au Pr2 P2 44.08(5) 7_556 7_556
Au Pr2 P2 96.51(5) 7_546 7_556
P2 Pr2 P2 79.16(8) 7_546 7_556
O Pr2 Pr1 37.20(17) . .
P2 Pr2 Pr1 54.86(5) 3_445 .
P2 Pr2 Pr1 54.86(5) 3_455 .
P1 Pr2 Pr1 106.96(5) 7_556 .
P1 Pr2 Pr1 106.96(5) 7_546 .
Au Pr2 Pr1 127.00(3) 1_556 .
P1 Pr2 Pr1 167.93(5) 1_556 .
Au Pr2 Pr1 130.879(16) 7_556 .
Au Pr2 Pr1 130.879(16) 7_546 .
P2 Pr2 Pr1 90.74(6) 7_546 .
P2 Pr2 Pr1 90.74(6) 7_556 .
O Pr2 Pr1 35.47(6) . 7_556
P2 Pr2 Pr1 110.09(6) 3_445 7_556
P2 Pr2 Pr1 64.20(6) 3_455 7_556
P1 Pr2 Pr1 49.67(5) 7_556 7_556
P1 Pr2 Pr1 97.28(5) 7_546 7_556
Au Pr2 Pr1 78.83(2) 1_556 7_556
P1 Pr2 Pr1 131.02(4) 1_556 7_556
Au Pr2 Pr1 103.724(17) 7_556 7_556
Au Pr2 Pr1 162.299(19) 7_546 7_556
P2 Pr2 Pr1 148.50(6) 7_546 7_556
P2 Pr2 Pr1 98.88(5) 7_556 7_556
Pr1 Pr2 Pr1 57.77(2) . 7_556
O Pr2 Pr1 35.47(6) . 7_546
P2 Pr2 Pr1 64.20(6) 3_445 7_546
P2 Pr2 Pr1 110.09(6) 3_455 7_546
P1 Pr2 Pr1 97.28(5) 7_556 7_546
P1 Pr2 Pr1 49.67(5) 7_546 7_546
Au Pr2 Pr1 78.83(3) 1_556 7_546
P1 Pr2 Pr1 131.02(4) 1_556 7_546
Au Pr2 Pr1 162.299(19) 7_556 7_546
Au Pr2 Pr1 103.724(17) 7_546 7_546
P2 Pr2 Pr1 98.88(5) 7_546 7_546
P2 Pr2 Pr1 148.50(6) 7_556 7_546
Pr1 Pr2 Pr1 57.77(2) . 7_546
Pr1 Pr2 Pr1 66.46(2) 7_556 7_546
O Pr2 Pr2 103.26(17) . 5_556
P2 Pr2 Pr2 52.87(5) 3_445 5_556
P2 Pr2 Pr2 52.87(5) 3_455 5_556
P1 Pr2 Pr2 135.08(4) 7_556 5_556
P1 Pr2 Pr2 135.08(4) 7_546 5_556
Au Pr2 Pr2 166.93(3) 1_556 5_556
P1 Pr2 Pr2 101.86(6) 1_556 5_556
Au Pr2 Pr2 85.22(3) 7_556 5_556
Au Pr2 Pr2 85.22(2) 7_546 5_556
P2 Pr2 Pr2 45.64(5) 7_546 5_556
P2 Pr2 Pr2 45.64(5) 7_556 5_556
Pr1 Pr2 Pr2 66.06(3) . 5_556
Pr1 Pr2 Pr2 111.88(3) 7_556 5_556
Pr1 Pr2 Pr2 111.88(3) 7_546 5_556
O Pr2 Pr2 89.999(1) . 1_565
P2 Pr2 Pr2 135.27(4) 3_445 1_565
P2 Pr2 Pr2 44.73(4) 3_455 1_565
P1 Pr2 Pr2 45.08(4) 7_556 1_565
P1 Pr2 Pr2 134.92(4) 7_546 1_565
Au Pr2 Pr2 90.0 1_556 1_565
P1 Pr2 Pr2 90.0 1_556 1_565
Au Pr2 Pr2 49.256(11) 7_556 1_565
Au Pr2 Pr2 130.746(11) 7_546 1_565
P2 Pr2 Pr2 129.58(4) 7_546 1_565
P2 Pr2 Pr2 50.42(4) 7_556 1_565
Pr1 Pr2 Pr2 90.0 . 1_565
Pr1 Pr2 Pr2 56.766(10) 7_556 1_565
Pr1 Pr2 Pr2 123.231(10) 7_546 1_565
Pr2 Pr2 Pr2 90.0 5_556 1_565
O Pr2 Pr2 89.999(1) . 1_545
P2 Pr2 Pr2 44.73(4) 3_445 1_545
P2 Pr2 Pr2 135.27(4) 3_455 1_545
P1 Pr2 Pr2 134.92(4) 7_556 1_545
P1 Pr2 Pr2 45.08(4) 7_546 1_545
Au Pr2 Pr2 90.0 1_556 1_545
P1 Pr2 Pr2 90.0 1_556 1_545
Au Pr2 Pr2 130.746(11) 7_556 1_545
Au Pr2 Pr2 49.256(11) 7_546 1_545
P2 Pr2 Pr2 50.42(4) 7_546 1_545
P2 Pr2 Pr2 129.58(4) 7_556 1_545
Pr1 Pr2 Pr2 90.0 . 1_545
Pr1 Pr2 Pr2 123.231(10) 7_556 1_545
Pr1 Pr2 Pr2 56.766(10) 7_546 1_545
Pr2 Pr2 Pr2 90.0 5_556 1_545
Pr2 Pr2 Pr2 180.0 1_565 1_545
O Pr2 Pr1 156.67(17) . 5_556
P2 Pr2 Pr1 86.02(6) 3_445 5_556
P2 Pr2 Pr1 86.02(6) 3_455 5_556
P1 Pr2 Pr1 114.72(5) 7_556 5_556
P1 Pr2 Pr1 114.72(5) 7_546 5_556
Au Pr2 Pr1 113.53(3) 1_556 5_556
P1 Pr2 Pr1 48.46(5) 1_556 5_556
Au Pr2 Pr1 49.137(15) 7_556 5_556
Au Pr2 Pr1 49.137(14) 7_546 5_556
P2 Pr2 Pr1 47.37(5) 7_546 5_556
P2 Pr2 Pr1 47.37(5) 7_556 5_556
Pr1 Pr2 Pr1 119.47(3) . 5_556
Pr1 Pr2 Pr1 145.426(11) 7_556 5_556
Pr1 Pr2 Pr1 145.426(11) 7_546 5_556
Pr2 Pr2 Pr1 53.41(2) 5_556 5_556
Pr2 Pr2 Pr1 90.0 1_565 5_556
Pr2 Pr2 Pr1 90.0 1_545 5_556
O Pr2 O 34.55(15) . 7_546
P2 Pr2 O 43.46(8) 3_445 7_546
P2 Pr2 O 85.57(8) 3_455 7_546
P1 Pr2 O 115.13(9) 7_556 7_546
P1 Pr2 O 77.29(8) 7_546 7_546
Au Pr2 O 109.49(9) 1_556 7_546
P1 Pr2 O 152.70(4) 1_556 7_546
Au Pr2 O 161.48(6) 7_556 7_546
Au Pr2 O 110.63(4) 7_546 7_546
P2 Pr2 O 84.11(9) 7_546 7_546
P2 Pr2 O 118.63(9) 7_556 7_546
Pr1 Pr2 O 30.74(5) . 7_546
Pr1 Pr2 O 69.13(6) 7_556 7_546
Pr1 Pr2 O 31.05(8) 7_546 7_546
Pr2 Pr2 O 82.04(9) 5_556 7_546
Pr2 Pr2 O 117.16(4) 1_565 7_546
Pr2 Pr2 O 62.84(4) 1_545 7_546
Pr1 Pr2 O 128.54(8) 5_556 7_546
O Pr2 O 34.55(15) . 7_556
P2 Pr2 O 85.57(8) 3_445 7_556
P2 Pr2 O 43.46(8) 3_455 7_556
P1 Pr2 O 77.29(8) 7_556 7_556
P1 Pr2 O 115.13(9) 7_546 7_556
Au Pr2 O 109.49(9) 1_556 7_556
P1 Pr2 O 152.70(4) 1_556 7_556
Au Pr2 O 110.63(4) 7_556 7_556
Au Pr2 O 161.48(6) 7_546 7_556
P2 Pr2 O 118.63(9) 7_546 7_556
P2 Pr2 O 84.11(9) 7_556 7_556
Pr1 Pr2 O 30.74(5) . 7_556
Pr1 Pr2 O 31.05(8) 7_556 7_556
Pr1 Pr2 O 69.13(6) 7_546 7_556
Pr2 Pr2 O 82.04(9) 5_556 7_556
Pr2 Pr2 O 62.84(4) 1_565 7_556
Pr2 Pr2 O 117.16(4) 1_545 7_556
Pr1 Pr2 O 128.54(8) 5_556 7_556
O Pr2 O 54.32(7) 7_546 7_556
O Pr2 Pr2 121.07(15) . 7_557
P2 Pr2 Pr2 156.72(5) 3_445 7_557
P2 Pr2 Pr2 106.22(5) 3_455 7_557
P1 Pr2 Pr2 42.32(5) 7_556 7_557
P1 Pr2 Pr2 84.03(5) 7_546 7_557
Au Pr2 Pr2 43.353(18) 1_556 7_557
P1 Pr2 Pr2 39.04(4) 1_556 7_557
Au Pr2 Pr2 41.535(18) 7_556 7_557
Au Pr2 Pr2 80.72(2) 7_546 7_557
P2 Pr2 Pr2 118.86(6) 7_546 7_557
P2 Pr2 Pr2 84.80(6) 7_556 7_557
Pr1 Pr2 Pr2 148.402(16) . 7_557
Pr1 Pr2 Pr2 91.98(2) 7_556 7_557
Pr1 Pr2 Pr2 121.85(3) 7_546 7_557
Pr2 Pr2 Pr2 126.23(3) 5_556 7_557
Pr2 Pr2 Pr2 63.265(10) 1_565 7_557
Pr2 Pr2 Pr2 116.736(9) 1_545 7_557
Pr1 Pr2 Pr2 79.33(3) 5_556 7_557
O Pr2 Pr2 151.13(9) 7_546 7_557
O Pr2 Pr2 117.71(6) 7_556 7_557
O Pr2 Pr2 121.07(15) . 7_547
P2 Pr2 Pr2 106.22(5) 3_445 7_547
P2 Pr2 Pr2 156.72(5) 3_455 7_547
P1 Pr2 Pr2 84.03(5) 7_556 7_547
P1 Pr2 Pr2 42.32(5) 7_546 7_547
Au Pr2 Pr2 43.353(18) 1_556 7_547
P1 Pr2 Pr2 39.04(4) 1_556 7_547
Au Pr2 Pr2 80.72(2) 7_556 7_547
Au Pr2 Pr2 41.535(18) 7_546 7_547
P2 Pr2 Pr2 84.80(6) 7_546 7_547
P2 Pr2 Pr2 118.86(6) 7_556 7_547
Pr1 Pr2 Pr2 148.402(16) . 7_547
Pr1 Pr2 Pr2 121.85(3) 7_556 7_547
Pr1 Pr2 Pr2 91.98(2) 7_546 7_547
Pr2 Pr2 Pr2 126.23(3) 5_556 7_547
Pr2 Pr2 Pr2 116.736(10) 1_565 7_547
Pr2 Pr2 Pr2 63.265(10) 1_545 7_547
Pr1 Pr2 Pr2 79.33(3) 5_556 7_547
O Pr2 Pr2 117.71(6) 7_546 7_547
O Pr2 Pr2 151.13(9) 7_556 7_547
Pr2 Pr2 Pr2 53.47(2) 7_557 7_547
O Pr2 O 60.93(7) . 1_565
P2 Pr2 O 121.14(8) 3_445 1_565
P2 Pr2 O 43.55(11) 3_455 1_565
P1 Pr2 O 46.07(9) 7_556 1_565
P1 Pr2 O 122.72(9) 7_546 1_565
Au Pr2 O 89.90(8) 1_556 1_565
P1 Pr2 O 116.10(7) 1_556 1_565
Au Pr2 O 78.17(7) 7_556 1_565
Au Pr2 O 159.37(7) 7_546 1_565
P2 Pr2 O 142.02(10) 7_546 1_565
P2 Pr2 O 71.00(8) 7_556 1_565
Pr1 Pr2 O 67.23(7) . 1_565
Pr1 Pr2 O 28.99(7) 7_556 1_565
Pr1 Pr2 O 94.78(7) 7_546 1_565
Pr2 Pr2 O 96.40(8) 5_556 1_565
Pr2 Pr2 O 29.07(7) 1_565 1_565
Pr2 Pr2 O 150.93(7) 1_545 1_565
Pr1 Pr2 O 116.50(7) 5_556 1_565
O Pr2 O 89.93(4) 7_546 1_565
O Pr2 O 36.95(11) 7_556 1_565
Pr2 Pr2 O 81.81(7) 7_557 1_565
Pr2 Pr2 O 130.09(8) 7_547 1_565
O Pr2 O 60.93(7) . 1_545
P2 Pr2 O 43.55(11) 3_445 1_545
P2 Pr2 O 121.14(8) 3_455 1_545
P1 Pr2 O 122.72(9) 7_556 1_545
P1 Pr2 O 46.07(9) 7_546 1_545
Au Pr2 O 89.90(8) 1_556 1_545
P1 Pr2 O 116.10(7) 1_556 1_545
Au Pr2 O 159.37(7) 7_556 1_545
Au Pr2 O 78.17(7) 7_546 1_545
P2 Pr2 O 71.00(8) 7_546 1_545
P2 Pr2 O 142.02(11) 7_556 1_545
Pr1 Pr2 O 67.23(7) . 1_545
Pr1 Pr2 O 94.78(7) 7_556 1_545
Pr1 Pr2 O 28.99(7) 7_546 1_545
Pr2 Pr2 O 96.40(8) 5_556 1_545
Pr2 Pr2 O 150.93(7) 1_565 1_545
Pr2 Pr2 O 29.07(7) 1_545 1_545
Pr1 Pr2 O 116.50(7) 5_556 1_545
O Pr2 O 36.95(11) 7_546 1_545
O Pr2 O 89.93(4) 7_556 1_545
Pr2 Pr2 O 130.09(8) 7_557 1_545
Pr2 Pr2 O 81.81(7) 7_547 1_545
O Pr2 O 121.86(13) 1_565 1_545
O Pr2 Au 72.72(15) . 3_445
P2 Pr2 Au 20.41(4) 3_445 3_445
P2 Pr2 Au 70.19(4) 3_455 3_445
P1 Pr2 Au 147.36(5) 7_556 3_445
P1 Pr2 Au 104.32(4) 7_546 3_445
Au Pr2 Au 148.869(16) 1_556 3_445
P1 Pr2 Au 129.26(5) 1_556 3_445
Au Pr2 Au 125.23(2) 7_556 3_445
Au Pr2 Au 91.56(2) 7_546 3_445
P2 Pr2 Au 49.74(6) 7_546 3_445
P2 Pr2 Au 83.70(5) 7_556 3_445
Pr1 Pr2 Au 40.996(17) . 3_445
Pr1 Pr2 Au 98.77(2) 7_556 3_445
Pr1 Pr2 Au 72.00(3) 7_546 3_445
Pr2 Pr2 Au 40.004(18) 5_556 3_445
Pr2 Pr2 Au 114.901(9) 1_565 3_445
Pr2 Pr2 Au 65.099(9) 1_545 3_445
Pr1 Pr2 Au 86.18(3) 5_556 3_445
O Pr2 Au 43.51(9) 7_546 3_445
O Pr2 Au 70.07(7) 7_556 3_445
Pr2 Pr2 Au 165.33(2) 7_557 3_445
Pr2 Pr2 Au 126.055(18) 7_547 3_445
O Pr2 Au 102.93(8) 1_565 3_445
O Pr2 Au 59.18(8) 1_545 3_445
O Pr2 Au 72.72(15) . 3_455
P2 Pr2 Au 70.19(4) 3_445 3_455
P2 Pr2 Au 20.41(4) 3_455 3_455
P1 Pr2 Au 104.32(4) 7_556 3_455
P1 Pr2 Au 147.36(5) 7_546 3_455
Au Pr2 Au 148.869(16) 1_556 3_455
P1 Pr2 Au 129.26(4) 1_556 3_455
Au Pr2 Au 91.56(2) 7_556 3_455
Au Pr2 Au 125.23(2) 7_546 3_455
P2 Pr2 Au 83.70(5) 7_546 3_455
P2 Pr2 Au 49.74(6) 7_556 3_455
Pr1 Pr2 Au 40.996(17) . 3_455
Pr1 Pr2 Au 72.00(3) 7_556 3_455
Pr1 Pr2 Au 98.77(2) 7_546 3_455
Pr2 Pr2 Au 40.004(17) 5_556 3_455
Pr2 Pr2 Au 65.099(9) 1_565 3_455
Pr2 Pr2 Au 114.901(9) 1_545 3_455
Pr1 Pr2 Au 86.18(3) 5_556 3_455
O Pr2 Au 70.07(7) 7_546 3_455
O Pr2 Au 43.51(9) 7_556 3_455
Pr2 Pr2 Au 126.055(19) 7_557 3_455
Pr2 Pr2 Au 165.33(2) 7_547 3_455
O Pr2 Au 59.18(8) 1_565 3_455
O Pr2 Au 102.93(8) 1_545 3_455
Au Pr2 Au 49.802(18) 3_445 3_455
O Pr2 O 129.44(14) . 5_556
P2 Pr2 O 67.53(7) 3_445 5_556
P2 Pr2 O 67.53(7) 3_455 5_556
P1 Pr2 O 129.30(5) 7_556 5_556
P1 Pr2 O 129.30(5) 7_546 5_556
Au Pr2 O 140.76(7) 1_556 5_556
P1 Pr2 O 75.69(9) 1_556 5_556
Au Pr2 O 65.99(5) 7_556 5_556
Au Pr2 O 65.99(5) 7_546 5_556
P2 Pr2 O 39.60(4) 7_546 5_556
P2 Pr2 O 39.60(4) 7_556 5_556
Pr1 Pr2 O 92.24(7) . 5_556
Pr1 Pr2 O 131.66(5) 7_556 5_556
Pr1 Pr2 O 131.66(5) 7_546 5_556
Pr2 Pr2 O 26.17(7) 5_556 5_556
Pr2 Pr2 O 90.0 1_565 5_556
Pr2 Pr2 O 90.001(1) 1_545 5_556
Pr1 Pr2 O 27.23(7) 5_556 5_556
O Pr2 O 105.27(12) 7_546 5_556
O Pr2 O 105.27(12) 7_556 5_556
Pr2 Pr2 O 103.60(7) 7_557 5_556
Pr2 Pr2 O 103.60(7) 7_547 5_556
O Pr2 O 107.98(8) 1_565 5_556
O Pr2 O 107.98(8) 1_545 5_556
Au Pr2 O 61.76(6) 3_445 5_556
Au Pr2 O 61.76(6) 3_455 5_556
O Pr2 Au 89.88(10) . 1_566
P2 Pr2 Au 165.82(5) 3_445 1_566
P2 Pr2 Au 80.05(5) 3_455 1_566
P1 Pr2 Au 11.89(4) 7_556 1_566
P1 Pr2 Au 99.02(4) 7_546 1_566
Au Pr2 Au 53.502(14) 1_556 1_566
P1 Pr2 Au 75.48(3) 1_556 1_566
Au Pr2 Au 54.71(2) 7_556 1_566
Au Pr2 Au 118.14(2) 7_546 1_566
P2 Pr2 Au 150.89(5) 7_546 1_566
P2 Pr2 Au 81.33(5) 7_556 1_566
Pr1 Pr2 Au 110.976(17) . 1_566
Pr1 Pr2 Au 56.236(15) 7_556 1_566
Pr1 Pr2 Au 108.99(2) 7_546 1_566
Pr2 Pr2 Au 125.408(14) 5_556 1_566
Pr2 Pr2 Au 36.498(14) 1_565 1_566
Pr2 Pr2 Au 143.502(14) 1_545 1_566
Pr1 Pr2 Au 103.735(18) 5_556 1_566
O Pr2 Au 124.43(6) 7_546 1_566
O Pr2 Au 80.30(6) 7_556 1_566
Pr2 Pr2 Au 37.426(10) 7_557 1_566
Pr2 Pr2 Au 85.94(2) 7_547 1_566
O Pr2 Au 45.28(8) 1_565 1_566
O Pr2 Au 134.56(8) 1_545 1_566
Au Pr2 Au 147.953(11) 3_445 1_566
Au Pr2 Au 99.83(2) 3_455 1_566
O Pr2 Au 117.43(3) 5_556 1_566
O Pr2 Au 89.88(10) . 1_546
P2 Pr2 Au 80.05(5) 3_445 1_546
P2 Pr2 Au 165.82(5) 3_455 1_546
P1 Pr2 Au 99.02(4) 7_556 1_546
P1 Pr2 Au 11.89(4) 7_546 1_546
Au Pr2 Au 53.502(13) 1_556 1_546
P1 Pr2 Au 75.48(3) 1_556 1_546
Au Pr2 Au 118.14(2) 7_556 1_546
Au Pr2 Au 54.71(2) 7_546 1_546
P2 Pr2 Au 81.33(5) 7_546 1_546
P2 Pr2 Au 150.89(5) 7_556 1_546
Pr1 Pr2 Au 110.976(18) . 1_546
Pr1 Pr2 Au 108.99(2) 7_556 1_546
Pr1 Pr2 Au 56.236(15) 7_546 1_546
Pr2 Pr2 Au 125.408(14) 5_556 1_546
Pr2 Pr2 Au 143.502(13) 1_565 1_546
Pr2 Pr2 Au 36.498(14) 1_545 1_546
Pr1 Pr2 Au 103.735(18) 5_556 1_546
O Pr2 Au 80.30(6) 7_546 1_546
O Pr2 Au 124.43(6) 7_556 1_546
Pr2 Pr2 Au 85.94(2) 7_557 1_546
Pr2 Pr2 Au 37.426(10) 7_547 1_546
O Pr2 Au 134.56(8) 1_565 1_546
O Pr2 Au 45.28(8) 1_545 1_546
Au Pr2 Au 99.83(2) 3_445 1_546
Au Pr2 Au 147.953(11) 3_455 1_546
O Pr2 Au 117.43(3) 5_556 1_546
Au Pr2 Au 107.00(3) 1_566 1_546
O Pr2 P1 123.12(6) . 1_566
P2 Pr2 P1 148.76(6) 3_445 1_566
P2 Pr2 P1 73.86(5) 3_455 1_566
P1 Pr2 P1 49.18(7) 7_556 1_566
P1 Pr2 P1 118.19(3) 7_546 1_566
Au Pr2 P1 75.26(3) 1_556 1_566
P1 Pr2 P1 52.88(2) 1_556 1_566
Au Pr2 P1 17.28(3) 7_556 1_566
Au Pr2 P1 94.93(3) 7_546 1_566
P2 Pr2 P1 113.78(6) 7_546 1_566
P2 Pr2 P1 52.20(6) 7_556 1_566
Pr1 Pr2 P1 126.17(2) . 1_566
Pr1 Pr2 P1 87.65(3) 7_556 1_566
Pr1 Pr2 P1 146.41(3) 7_546 1_566
Pr2 Pr2 P1 97.13(3) 5_556 1_566
Pr2 Pr2 P1 37.12(2) 1_565 1_566
Pr2 Pr2 P1 142.88(2) 1_545 1_566
Pr1 Pr2 P1 66.41(3) 5_556 1_566
O Pr2 P1 154.19(4) 7_546 1_566
O Pr2 P1 99.92(4) 7_556 1_566
Pr2 Pr2 P1 34.16(3) 7_557 1_566
Pr2 Pr2 P1 83.68(3) 7_547 1_566
O Pr2 P1 64.44(7) 1_565 1_566
O Pr2 P1 164.24(8) 1_545 1_566
Au Pr2 P1 135.86(3) 3_445 1_566
Au Pr2 P1 92.65(3) 3_455 1_566
O Pr2 P1 81.42(5) 5_556 1_566
Au Pr2 P1 37.60(3) 1_566 1_566
Au Pr2 P1 119.32(3) 1_546 1_566
P1 Au P1 122.58(10) 7_545 7
P1 Au P2 118.66(5) 7_545 .
P1 Au P2 118.66(5) 7 .
P1 Au Pr2 63.90(6) 7_545 1_554
P1 Au Pr2 63.90(6) 7 1_554
P2 Au Pr2 159.45(7) . 1_554
P1 Au Pr2 139.19(7) 7_545 7_556
P1 Au Pr2 67.16(6) 7 7_556
P2 Au Pr2 69.67(6) . 7_556
Pr2 Au Pr2 95.11(2) 1_554 7_556
P1 Au Pr2 67.16(6) 7_545 7_546
P1 Au Pr2 139.19(7) 7 7_546
P2 Au Pr2 69.67(6) . 7_546
Pr2 Au Pr2 95.11(2) 1_554 7_546
Pr2 Au Pr2 81.49(2) 7_556 7_546
P1 Au Pr1 137.94(7) 7_545 3
P1 Au Pr1 67.46(6) 7 3
P2 Au Pr1 65.80(6) . 3
Pr2 Au Pr1 127.68(2) 1_554 3
Pr2 Au Pr1 82.81(2) 7_556 3
Pr2 Au Pr1 135.46(3) 7_546 3
P1 Au Pr1 67.46(6) 7_545 3_545
P1 Au Pr1 137.94(7) 7 3_545
P2 Au Pr1 65.80(6) . 3_545
Pr2 Au Pr1 127.68(2) 1_554 3_545
Pr2 Au Pr1 135.46(3) 7_556 3_545
Pr2 Au Pr1 82.81(2) 7_546 3_545
Pr1 Au Pr1 79.86(3) 3 3_545
P1 Au P1 86.25(7) 7_545 .
P1 Au P1 86.25(7) 7 .
P2 Au P1 100.97(8) . .
Pr2 Au P1 58.48(5) 1_554 .
Pr2 Au P1 53.50(3) 7_556 .
Pr2 Au P1 53.50(3) 7_546 .
Pr1 Au P1 135.58(2) 3 .
Pr1 Au P1 135.58(2) 3_545 .
P1 Au O 102.27(8) 7_545 5_656
P1 Au O 102.27(8) 7 5_656
P2 Au O 60.59(12) . 5_656
Pr2 Au O 139.95(10) 1_554 5_656
Pr2 Au O 114.57(7) 7_556 5_656
Pr2 Au O 114.57(7) 7_546 5_656
Pr1 Au O 40.017(15) 3 5_656
Pr1 Au O 40.017(16) 3_545 5_656
P1 Au O 161.56(11) . 5_656
P1 Au P2 114.64(6) 7_545 5_656
P1 Au P2 114.64(6) 7 5_656
P2 Au P2 32.91(12) . 5_656
Pr2 Au P2 126.54(6) 1_554 5_656
Pr2 Au P2 48.89(3) 7_556 5_656
Pr2 Au P2 48.89(3) 7_546 5_656
Pr1 Au P2 90.46(4) 3 5_656
Pr1 Au P2 90.46(4) 3_545 5_656
P1 Au P2 68.06(7) . 5_656
O Au P2 93.51(11) 5_656 5_656
P1 Au O 62.13(5) 7_545 1_554
P1 Au O 62.13(5) 7 1_554
P2 Au O 163.56(11) . 1_554
Pr2 Au O 36.99(10) 1_554 1_554
Pr2 Au O 121.59(7) 7_556 1_554
Pr2 Au O 121.59(7) 7_546 1_554
Pr1 Au O 102.10(8) 3 1_554
Pr1 Au O 102.10(8) 3_545 1_554
P1 Au O 95.47(11) . 1_554
O Au O 102.96(13) 5_656 1_554
P2 Au O 163.53(12) 5_656 1_554
P1 Au Au 151.29(5) 7_545 1_565
P1 Au Au 28.71(5) 7 1_565
P2 Au Au 90.0 . 1_565
Pr2 Au Au 90.0 1_554 1_565
Pr2 Au Au 49.254(11) 7_556 1_565
Pr2 Au Au 130.747(11) 7_546 1_565
Pr1 Au Au 50.070(14) 3 1_565
Pr1 Au Au 129.929(15) 3_545 1_565
P1 Au Au 90.000(1) . 1_565
O Au Au 90.0 5_656 1_565
P2 Au Au 90.0 5_656 1_565
O Au Au 90.0 1_554 1_565
P1 Au Au 28.71(5) 7_545 1_545
P1 Au Au 151.29(5) 7 1_545
P2 Au Au 90.0 . 1_545
Pr2 Au Au 90.0 1_554 1_545
Pr2 Au Au 130.747(11) 7_556 1_545
Pr2 Au Au 49.254(11) 7_546 1_545
Pr1 Au Au 129.929(15) 3 1_545
Pr1 Au Au 50.070(15) 3_545 1_545
P1 Au Au 90.0 . 1_545
O Au Au 90.0 5_656 1_545
P2 Au Au 90.0 5_656 1_545
O Au Au 90.0 1_554 1_545
Au Au Au 179.999(1) 1_565 1_545
P1 Au Au 52.22(6) 7_545 7_545
P1 Au Au 104.49(7) 7 7_545
P2 Au Au 114.82(6) . 7_545
Pr2 Au Au 48.64(2) 1_554 7_545
Pr2 Au Au 87.33(2) 7_556 7_545
Pr2 Au Au 46.47(2) 7_546 7_545
Pr1 Au Au 169.150(13) 3 7_545
Pr1 Au Au 110.53(2) 3_545 7_545
P1 Au Au 34.03(2) . 7_545
O Au Au 150.531(12) 5_656 7_545
P2 Au Au 86.44(5) 5_656 7_545
O Au Au 79.24(9) 1_554 7_545
Au Au Au 119.464(12) 1_565 7_545
Au Au Au 60.536(12) 1_545 7_545
P1 Au Au 104.49(7) 7_545 7
P1 Au Au 52.22(6) 7 7
P2 Au Au 114.82(6) . 7
Pr2 Au Au 48.64(2) 1_554 7
Pr2 Au Au 46.469(19) 7_556 7
Pr2 Au Au 87.33(2) 7_546 7
Pr1 Au Au 110.53(2) 3 7
Pr1 Au Au 169.150(13) 3_545 7
P1 Au Au 34.03(2) . 7
O Au Au 150.531(12) 5_656 7
P2 Au Au 86.44(5) 5_656 7
O Au Au 79.24(9) 1_554 7
Au Au Au 60.536(11) 1_565 7
Au Au Au 119.464(11) 1_545 7
Au Au Au 58.93(2) 7_545 7
P1 Au Pr1 38.33(6) 7_545 7_545
P1 Au Pr1 92.58(6) 7 7_545
P2 Au Pr1 138.17(5) . 7_545
Pr2 Au Pr1 57.82(2) 1_554 7_545
Pr2 Au Pr1 152.156(18) 7_556 7_545
Pr2 Au Pr1 105.486(16) 7_546 7_545
Pr1 Au Pr1 107.70(2) 3 7_545
Pr1 Au Pr1 72.37(3) 3_545 7_545
P1 Au Pr1 108.67(4) . 7_545
O Au Pr1 87.48(9) 5_656 7_545
P2 Au Pr1 151.777(8) 5_656 7_545
O Au Pr1 32.03(5) 1_554 7_545
Au Au Pr1 118.217(8) 1_565 7_545
Au Au Pr1 61.783(8) 1_545 7_545
Au Au Pr1 79.26(2) 7_545 7_545
Au Au Pr1 106.18(3) 7 7_545
P1 Au Pr1 92.58(6) 7_545 7
P1 Au Pr1 38.33(6) 7 7
P2 Au Pr1 138.17(5) . 7
Pr2 Au Pr1 57.82(2) 1_554 7
Pr2 Au Pr1 105.486(17) 7_556 7
Pr2 Au Pr1 152.156(18) 7_546 7
Pr1 Au Pr1 72.37(3) 3 7
Pr1 Au Pr1 107.70(2) 3_545 7
P1 Au Pr1 108.67(4) . 7
O Au Pr1 87.48(9) 5_656 7
P2 Au Pr1 151.777(8) 5_656 7
O Au Pr1 32.03(5) 1_554 7
Au Au Pr1 61.783(8) 1_565 7
Au Au Pr1 118.217(8) 1_545 7
Au Au Pr1 106.18(3) 7_545 7
Au Au Pr1 79.26(2) 7 7
Pr1 Au Pr1 56.433(16) 7_545 7
P1 Au Au 76.88(6) 7_545 5_655
P1 Au Au 76.88(6) 7 5_655
P2 Au Au 115.06(7) . 5_655
Pr2 Au Au 85.49(3) 1_554 5_655
Pr2 Au Au 139.203(11) 7_556 5_655
Pr2 Au Au 139.203(11) 7_546 5_655
Pr1 Au Au 65.58(2) 3 5_655
Pr1 Au Au 65.58(2) 3_545 5_655
P1 Au Au 143.97(5) . 5_655
O Au Au 54.46(10) 5_656 5_655
P2 Au Au 147.97(6) 5_656 5_655
O Au Au 48.50(10) 1_554 5_655
Au Au Au 90.0 1_565 5_655
Au Au Au 90.0 1_545 5_655
Au Au Au 120.88(2) 7_545 5_655
Au Au Au 120.88(2) 7 5_655
Pr1 Au Au 42.122(14) 7_545 5_655
Pr1 Au Au 42.122(14) 7 5_655
P1 Au P1 106.49(5) 7_545 3
P1 Au P1 60.22(8) 7 3
P2 Au P1 100.00(7) . 3
Pr2 Au P1 98.38(4) 1_554 3
Pr2 Au P1 111.19(2) 7_556 3
Pr2 Au P1 160.43(3) 7_546 3
Pr1 Au P1 38.39(3) 3 3
Pr1 Au P1 77.72(3) 3_545 3
P1 Au P1 146.04(4) . 3
O Au P1 47.15(8) 5_656 3
P2 Au P1 128.55(5) 5_656 3
O Au P1 65.46(9) 1_554 3
Au Au P1 63.582(16) 1_565 3
Au Au P1 116.418(16) 1_545 3
Au Au P1 144.70(3) 7_545 3
Au Au P1 112.24(3) 7 3
Pr1 Au P1 70.59(3) 7_545 3
Pr1 Au P1 41.14(3) 7 3
Au Au P1 29.61(2) 5_655 3
P1 Au P1 60.22(8) 7_545 3_545
P1 Au P1 106.49(5) 7 3_545
P2 Au P1 100.00(7) . 3_545
Pr2 Au P1 98.38(4) 1_554 3_545
Pr2 Au P1 160.43(3) 7_556 3_545
Pr2 Au P1 111.19(2) 7_546 3_545
Pr1 Au P1 77.72(3) 3 3_545
Pr1 Au P1 38.39(3) 3_545 3_545
P1 Au P1 146.04(4) . 3_545
O Au P1 47.15(9) 5_656 3_545
P2 Au P1 128.55(5) 5_656 3_545
O Au P1 65.46(9) 1_554 3_545
Au Au P1 116.418(16) 1_565 3_545
Au Au P1 63.582(16) 1_545 3_545
Au Au P1 112.24(3) 7_545 3_545
Au Au P1 144.70(3) 7 3_545
Pr1 Au P1 41.14(3) 7_545 3_545
Pr1 Au P1 70.59(3) 7 3_545
Au Au P1 29.61(2) 5_655 3_545
P1 Au P1 52.84(3) 3 3_545
P1 Au O 137.40(8) 7_545 3
P1 Au O 88.55(7) 7 3
P2 Au O 39.92(9) . 3
Pr2 Au O 152.14(4) 1_554 3
Pr2 Au O 76.61(7) 7_556 3
Pr2 Au O 109.57(7) 7_546 3
Pr1 Au O 25.94(6) 3 3
Pr1 Au O 70.00(5) 3_545 3
P1 Au O 127.58(8) . 3
O Au O 37.97(12) 5_656 3
P2 Au O 67.23(8) 5_656 3
O Au O 127.00(13) 1_554 3
Au Au O 64.28(4) 1_565 3
Au Au O 115.72(4) 1_545 3
Au Au O 153.63(7) 7_545 3
Au Au O 117.96(5) 7 3
Pr1 Au O 123.67(7) 7_545 3
Pr1 Au O 98.27(7) 7 3
Au Au O 84.07(8) 5_655 3
P1 Au O 61.63(8) 3 3
P1 Au O 84.90(7) 3_545 3
P1 Au O 88.55(7) 7_545 3_545
P1 Au O 137.40(8) 7 3_545
P2 Au O 39.92(9) . 3_545
Pr2 Au O 152.14(4) 1_554 3_545
Pr2 Au O 109.57(7) 7_556 3_545
Pr2 Au O 76.61(7) 7_546 3_545
Pr1 Au O 70.00(5) 3 3_545
Pr1 Au O 25.94(6) 3_545 3_545
P1 Au O 127.58(8) . 3_545
O Au O 37.97(12) 5_656 3_545
P2 Au O 67.23(8) 5_656 3_545
O Au O 127.00(13) 1_554 3_545
Au Au O 115.72(4) 1_565 3_545
Au Au O 64.28(4) 1_545 3_545
Au Au O 117.96(5) 7_545 3_545
Au Au O 153.63(7) 7 3_545
Pr1 Au O 98.27(7) 7_545 3_545
Pr1 Au O 123.67(7) 7 3_545
Au Au O 84.07(8) 5_655 3_545
P1 Au O 84.90(7) 3 3_545
P1 Au O 61.63(8) 3_545 3_545
O Au O 51.45(7) 3 3_545
P1 Au P2 177.85(7) 7_545 1_565
P1 Au P2 58.89(6) 7 1_565
P2 Au P2 59.79(3) . 1_565
Pr2 Au P2 118.11(3) 1_554 1_565
Pr2 Au P2 42.36(4) 7_556 1_565
Pr2 Au P2 112.91(3) 7_546 1_565
Pr1 Au P2 40.45(4) 3 1_565
Pr1 Au P2 110.39(4) 3_545 1_565
P1 Au P2 95.49(4) . 1_565
O Au P2 75.70(6) 5_656 1_565
P2 Au P2 65.02(4) 5_656 1_565
O Au P2 118.85(4) 1_554 1_565
Au Au P2 30.21(3) 1_565 1_565
Au Au P2 149.79(3) 1_545 1_565
Au Au P2 129.51(4) 7_545 1_565
Au Au P2 77.65(4) 7 1_565
Pr1 Au P2 141.58(3) 7_545 1_565
Pr1 Au P2 88.07(3) 7 1_565
Au Au P2 102.30(4) 5_655 1_565
P1 Au P2 72.72(4) 3 1_565
P1 Au P2 118.16(4) 3_545 1_565
O Au P2 40.45(6) 3 1_565
O Au P2 89.38(5) 3_545 1_565
P1 Au P2 58.89(6) 7_545 1_545
P1 Au P2 177.85(7) 7 1_545
P2 Au P2 59.79(3) . 1_545
Pr2 Au P2 118.11(3) 1_554 1_545
Pr2 Au P2 112.91(3) 7_556 1_545
Pr2 Au P2 42.36(4) 7_546 1_545
Pr1 Au P2 110.39(4) 3 1_545
Pr1 Au P2 40.45(4) 3_545 1_545
P1 Au P2 95.49(4) . 1_545
O Au P2 75.70(6) 5_656 1_545
P2 Au P2 65.02(4) 5_656 1_545
O Au P2 118.85(4) 1_554 1_545
Au Au P2 149.79(3) 1_565 1_545
Au Au P2 30.21(3) 1_545 1_545
Au Au P2 77.65(4) 7_545 1_545
Au Au P2 129.51(4) 7 1_545
Pr1 Au P2 88.07(3) 7_545 1_545
Pr1 Au P2 141.58(3) 7 1_545
Au Au P2 102.30(4) 5_655 1_545
P1 Au P2 118.16(4) 3 1_545
P1 Au P2 72.72(4) 3_545 1_545
O Au P2 89.38(5) 3 1_545
O Au P2 40.45(6) 3_545 1_545
P2 Au P2 119.59(6) 1_565 1_545
P1 Au Pr2 143.49(5) 7_545 3
P1 Au Pr2 93.73(5) 7 3
P2 Au Pr2 24.930(10) . 3
Pr2 Au Pr2 148.871(16) 1_554 3
Pr2 Au Pr2 54.78(2) 7_556 3
Pr2 Au Pr2 88.45(2) 7_546 3
Pr1 Au Pr2 49.108(19) 3 3
Pr1 Au Pr2 83.45(3) 3_545 3
P1 Au Pr2 101.05(5) . 3
O Au Pr2 62.46(9) 5_656 3
P2 Au Pr2 41.35(4) 5_656 3
O Au Pr2 149.79(6) 1_554 3
Au Au Pr2 65.099(9) 1_565 3
Au Au Pr2 114.901(9) 1_545 3
Au Au Pr2 127.06(2) 7_545 3
Au Au Pr2 100.86(3) 7 3
Pr1 Au Pr2 149.944(18) 7_545 3
Pr1 Au Pr2 117.864(18) 7 3
Au Au Pr2 111.49(2) 5_655 3
P1 Au Pr2 87.31(3) 3 3
P1 Au Pr2 109.13(4) 3_545 3
O Au Pr2 27.44(7) 3 3
O Au Pr2 58.53(5) 3_545 3
P2 Au Pr2 34.90(3) 1_565 3
P2 Au Pr2 84.70(4) 1_545 3
P1 Au Pr2 93.73(5) 7_545 3_545
P1 Au Pr2 143.49(5) 7 3_545
P2 Au Pr2 24.930(10) . 3_545
Pr2 Au Pr2 148.871(16) 1_554 3_545
Pr2 Au Pr2 88.45(2) 7_556 3_545
Pr2 Au Pr2 54.78(2) 7_546 3_545
Pr1 Au Pr2 83.45(3) 3 3_545
Pr1 Au Pr2 49.108(19) 3_545 3_545
P1 Au Pr2 101.05(5) . 3_545
O Au Pr2 62.46(9) 5_656 3_545
P2 Au Pr2 41.35(4) 5_656 3_545
O Au Pr2 149.79(6) 1_554 3_545
Au Au Pr2 114.901(10) 1_565 3_545
Au Au Pr2 65.099(9) 1_545 3_545
Au Au Pr2 100.86(3) 7_545 3_545
Au Au Pr2 127.06(2) 7 3_545
Pr1 Au Pr2 117.864(18) 7_545 3_545
Pr1 Au Pr2 149.944(17) 7 3_545
Au Au Pr2 111.49(2) 5_655 3_545
P1 Au Pr2 109.13(4) 3 3_545
P1 Au Pr2 87.31(3) 3_545 3_545
O Au Pr2 58.53(5) 3 3_545
O Au Pr2 27.44(7) 3_545 3_545
P2 Au Pr2 84.70(4) 1_565 3_545
P2 Au Pr2 34.90(3) 1_545 3_545
Pr2 Au Pr2 49.802(18) 3 3_545
P1 Au O 81.14(7) 7_545 7_546
P1 Au O 123.62(8) 7 7_546
P2 Au O 68.24(9) . 7_546
Pr2 Au O 93.07(8) 1_554 7_546
Pr2 Au O 64.61(3) 7_556 7_546
Pr2 Au O 17.20(3) 7_546 7_546
Pr1 Au O 130.47(7) 3 7_546
Pr1 Au O 97.54(6) 3_545 7_546
P1 Au O 41.35(8) . 7_546
O Au O 123.14(14) 5_656 7_546
P2 Au O 40.02(8) 5_656 7_546
O Au O 126.33(7) 1_554 7_546
Au Au O 113.79(3) 1_565 7_546
Au Au O 66.21(3) 1_545 7_546
Au Au O 47.08(7) 7_545 7_546
Au Au O 73.49(6) 7 7_546
Pr1 Au O 118.62(5) 7_545 7_546
Pr1 Au O 149.37(8) 7 7_546
Au Au O 156.18(3) 5_655 7_546
P1 Au O 168.19(8) 3 7_546
P1 Au O 128.31(4) 3_545 7_546
O Au O 106.63(8) 3 7_546
O Au O 86.33(11) 3_545 7_546
P2 Au O 99.33(6) 1_565 7_546
P2 Au O 57.65(6) 1_545 7_546
Pr2 Au O 81.37(7) 3 7_546
Pr2 Au O 60.68(8) 3_545 7_546
P1 Au O 123.62(8) 7_545 7_556
P1 Au O 81.14(7) 7 7_556
P2 Au O 68.24(9) . 7_556
Pr2 Au O 93.07(8) 1_554 7_556
Pr2 Au O 17.20(3) 7_556 7_556
Pr2 Au O 64.61(3) 7_546 7_556
Pr1 Au O 97.54(6) 3 7_556
Pr1 Au O 130.47(7) 3_545 7_556
P1 Au O 41.35(8) . 7_556
O Au O 123.14(14) 5_656 7_556
P2 Au O 40.02(8) 5_656 7_556
O Au O 126.33(7) 1_554 7_556
Au Au O 66.21(3) 1_565 7_556
Au Au O 113.79(3) 1_545 7_556
Au Au O 73.49(6) 7_545 7_556
Au Au O 47.08(7) 7 7_556
Pr1 Au O 149.37(8) 7_545 7_556
Pr1 Au O 118.62(5) 7 7_556
Au Au O 156.18(3) 5_655 7_556
P1 Au O 128.31(4) 3 7_556
P1 Au O 168.19(8) 3_545 7_556
O Au O 86.33(11) 3 7_556
O Au O 106.63(8) 3_545 7_556
P2 Au O 57.65(6) 1_565 7_556
P2 Au O 99.33(6) 1_545 7_556
Pr2 Au O 60.68(8) 3 7_556
Pr2 Au O 81.37(7) 3_545 7_556
O Au O 47.58(6) 7_546 7_556
P1 Au Pr2 14.83(6) 7_545 1_544
P1 Au Pr2 116.32(6) 7 1_544
P2 Au Pr2 123.85(2) . 1_544
Pr2 Au Pr2 53.502(13) 1_554 1_544
Pr2 Au Pr2 125.29(2) 7_556 1_544
Pr2 Au Pr2 61.86(2) 7_546 1_544
Pr1 Au Pr2 151.588(16) 3 1_544
Pr1 Au Pr2 81.24(3) 3_545 1_544
P1 Au Pr2 71.89(3) . 1_544
O Au Pr2 117.09(5) 5_656 1_544
P2 Au Pr2 110.74(3) 5_656 1_544
O Au Pr2 61.63(4) 1_554 1_544
Au Au Pr2 143.502(14) 1_565 1_544
Au Au Pr2 36.498(13) 1_545 1_544
Au Au Pr2 37.963(11) 7_545 1_544
Au Au Pr2 90.14(3) 7 1_544
Pr1 Au Pr2 45.825(13) 7_545 1_544
Pr1 Au Pr2 93.63(2) 7 1_544
Au Au Pr2 87.319(18) 5_655 1_544
P1 Au Pr2 116.38(3) 3 1_544
P1 Au Pr2 74.28(3) 3_545 1_544
O Au Pr2 151.02(4) 3 1_544
O Au Pr2 100.19(4) 3_545 1_544
P2 Au Pr2 167.15(4) 1_565 1_544
P2 Au Pr2 65.51(4) 1_545 1_544
Pr2 Au Pr2 147.954(11) 3 1_544
Pr2 Au Pr2 99.83(2) 3_545 1_544
O Au Pr2 73.00(5) 7_546 1_544
O Au Pr2 110.86(6) 7_556 1_544
Au P1 Au 122.58(10) 7_545 7
Au P1 Pr1 111.58(6) 7_545 .
Au P1 Pr1 111.58(6) 7 .
Au P1 Pr2 153.28(11) 7_545 7_556
Au P1 Pr2 69.79(3) 7 7_556
Pr1 P1 Pr2 80.41(6) . 7_556
Au P1 Pr2 69.79(4) 7_545 7_546
Au P1 Pr2 153.28(11) 7 7_546
Pr1 P1 Pr2 80.41(6) . 7_546
Pr2 P1 Pr2 89.84(7) 7_556 7_546
Au P1 Pr2 68.87(6) 7_545 1_554
Au P1 Pr2 68.87(6) 7 1_554
Pr1 P1 Pr2 178.64(10) . 1_554
Pr2 P1 Pr2 98.64(7) 7_556 1_554
Pr2 P1 Pr2 98.64(7) 7_546 1_554
Au P1 Pr1 69.33(6) 7_545 5
Au P1 Pr1 69.33(6) 7 5
Pr1 P1 Pr1 97.27(8) . 5
Pr2 P1 Pr1 134.73(4) 7_556 5
Pr2 P1 Pr1 134.73(4) 7_546 5
Pr2 P1 Pr1 84.09(6) 1_554 5
Au P1 Au 93.75(7) 7_545 .
Au P1 Au 93.75(7) 7 .
Pr1 P1 Au 122.19(8) . .
Pr2 P1 Au 60.42(5) 7_556 .
Pr2 P1 Au 60.42(5) 7_546 .
Pr2 P1 Au 56.45(5) 1_554 .
Pr1 P1 Au 140.54(8) 5 .
Au P1 O 153.12(10) 7_545 7_556
Au P1 O 80.40(7) 7 7_556
Pr1 P1 O 42.00(8) . 7_556
Pr2 P1 O 41.51(10) 7_556 7_556
Pr2 P1 O 95.94(11) 7_546 7_556
Pr2 P1 O 137.39(9) 1_554 7_556
Pr1 P1 O 112.37(13) 5 7_556
Au P1 O 98.71(13) . 7_556
Au P1 O 80.40(7) 7_545 7_546
Au P1 O 153.12(10) 7 7_546
Pr1 P1 O 42.00(8) . 7_546
Pr2 P1 O 95.94(11) 7_556 7_546
Pr2 P1 O 41.51(10) 7_546 7_546
Pr2 P1 O 137.39(9) 1_554 7_546
Pr1 P1 O 112.37(13) 5 7_546
Au P1 O 98.71(13) . 7_546
O P1 O 74.25(13) 7_556 7_546
Au P1 P1 112.11(10) 7_545 7
Au P1 P1 57.22(4) 7 7
Pr1 P1 P1 131.94(9) . 7
Pr2 P1 P1 51.54(4) 7_556 7
Pr2 P1 P1 96.72(10) 7_546 7
Pr2 P1 P1 47.10(5) 1_554 7
Pr1 P1 P1 116.10(9) 5 7
Au P1 P1 36.53(5) . 7
O P1 P1 91.61(10) 7_556 7
O P1 P1 131.28(15) 7_546 7
Au P1 P1 57.22(4) 7_545 7_545
Au P1 P1 112.11(10) 7 7_545
Pr1 P1 P1 131.94(9) . 7_545
Pr2 P1 P1 96.72(10) 7_556 7_545
Pr2 P1 P1 51.54(4) 7_546 7_545
Pr2 P1 P1 47.10(5) 1_554 7_545
Pr1 P1 P1 116.10(9) 5 7_545
Au P1 P1 36.53(5) . 7_545
O P1 P1 131.28(15) 7_556 7_545
O P1 P1 91.61(10) 7_546 7_545
P1 P1 P1 63.10(8) 7 7_545
Au P1 P2 116.61(6) 7_545 5_656
Au P1 P2 116.61(6) 7 5_656
Pr1 P1 P2 61.21(6) . 5_656
Pr2 P1 P2 46.89(4) 7_556 5_656
Pr2 P1 P2 46.89(4) 7_546 5_656
Pr2 P1 P2 117.43(9) 1_554 5_656
Pr1 P1 P2 158.48(9) 5 5_656
Au P1 P2 60.98(6) . 5_656
O P1 P2 52.33(11) 7_556 5_656
O P1 P2 52.33(11) 7_546 5_656
P1 P1 P2 81.86(9) 7 5_656
P1 P1 P2 81.86(9) 7_545 5_656
Au P1 P1 89.30(7) 7_545 5
Au P1 P1 89.30(7) 7 5
Pr1 P1 P1 51.44(6) . 5
Pr2 P1 P1 115.74(7) 7_556 5
Pr2 P1 P1 115.74(7) 7_546 5
Pr2 P1 P1 129.92(11) 1_554 5
Pr1 P1 P1 45.83(6) 5 5
Au P1 P1 173.63(11) . 5
O P1 P1 76.27(13) 7_556 5
O P1 P1 76.27(13) 7_546 5
P1 P1 P1 146.10(6) 7 5
P1 P1 P1 146.10(6) 7_545 5
P2 P1 P1 112.65(10) 5_656 5
Au P1 P2 31.02(4) 7_545 7_545
Au P1 P2 91.61(7) 7 7_545
Pr1 P1 P2 129.80(8) . 7_545
Pr2 P1 P2 149.51(8) 7_556 7_545
Pr2 P1 P2 98.58(4) 7_546 7_545
Pr2 P1 P2 51.24(5) 1_554 7_545
Pr1 P1 P2 49.02(5) 5 7_545
Au P1 P2 98.59(7) . 7_545
O P1 P2 161.36(13) 7_556 7_545
O P1 P2 109.79(8) 7_546 7_545
P1 P1 P2 98.20(9) 7 7_545
P1 P1 P2 67.33(7) 7_545 7_545
P2 P1 P2 144.70(6) 5_656 7_545
P1 P1 P2 86.90(8) 5 7_545
Au P1 P2 91.61(7) 7_545 7
Au P1 P2 31.02(4) 7 7
Pr1 P1 P2 129.80(8) . 7
Pr2 P1 P2 98.58(4) 7_556 7
Pr2 P1 P2 149.51(8) 7_546 7
Pr2 P1 P2 51.24(5) 1_554 7
Pr1 P1 P2 49.02(5) 5 7
Au P1 P2 98.59(7) . 7
O P1 P2 109.79(8) 7_556 7
O P1 P2 161.36(13) 7_546 7
P1 P1 P2 67.33(7) 7 7
P1 P1 P2 98.20(9) 7_545 7
P2 P1 P2 144.70(6) 5_656 7
P1 P1 P2 86.90(8) 5 7
P2 P1 P2 60.60(6) 7_545 7
Au P1 P1 151.29(5) 7_545 1_565
Au P1 P1 28.71(5) 7 1_565
Pr1 P1 P1 90.0 . 1_565
Pr2 P1 P1 45.08(4) 7_556 1_565
Pr2 P1 P1 134.92(4) 7_546 1_565
Pr2 P1 P1 90.0 1_554 1_565
Pr1 P1 P1 90.0 5 1_565
Au P1 P1 90.0 . 1_565
O P1 P1 52.87(7) 7_556 1_565
O P1 P1 127.13(7) 7_546 1_565
P1 P1 P1 58.45(4) 7 1_565
P1 P1 P1 121.55(4) 7_545 1_565
P2 P1 P1 90.0 5_656 1_565
P1 P1 P1 90.0 5 1_565
P2 P1 P1 120.30(3) 7_545 1_565
P2 P1 P1 59.70(3) 7 1_565
Au P1 P1 28.71(5) 7_545 1_545
Au P1 P1 151.29(5) 7 1_545
Pr1 P1 P1 90.0 . 1_545
Pr2 P1 P1 134.92(4) 7_556 1_545
Pr2 P1 P1 45.08(4) 7_546 1_545
Pr2 P1 P1 90.0 1_554 1_545
Pr1 P1 P1 90.0 5 1_545
Au P1 P1 90.0 . 1_545
O P1 P1 127.13(7) 7_556 1_545
O P1 P1 52.87(7) 7_546 1_545
P1 P1 P1 121.55(4) 7 1_545
P1 P1 P1 58.45(4) 7_545 1_545
P2 P1 P1 90.0 5_656 1_545
P1 P1 P1 90.0 5 1_545
P2 P1 P1 59.70(3) 7_545 1_545
P2 P1 P1 120.30(3) 7 1_545
P1 P1 P1 180.0 1_565 1_545
Au P1 P2 107.90(7) 7_545 .
Au P1 P2 107.90(7) 7 .
Pr1 P1 P2 90.23(7) . .
Pr2 P1 P2 46.57(4) 7_556 .
Pr2 P1 P2 46.57(4) 7_546 .
Pr2 P1 P2 88.41(7) 1_554 .
Pr1 P1 P2 172.50(9) 5 .
Au P1 P2 31.96(5) . .
O P1 P2 73.39(12) 7_556 .
O P1 P2 73.39(12) 7_546 .
P1 P1 P2 57.90(7) 7 .
P1 P1 P2 57.90(7) 7_545 .
P2 P1 P2 29.02(8) 5_656 .
P1 P1 P2 141.67(10) 5 .
P2 P1 P2 125.23(7) 7_545 .
P2 P1 P2 125.23(7) 7 .
P1 P1 P2 90.0 1_565 .
P1 P1 P2 90.0 1_545 .
Au P1 O 47.90(7) 7_545 3_444
Au P1 O 96.47(9) 7 3_444
Pr1 P1 O 90.39(10) . 3_444
Pr2 P1 O 158.77(8) 7_556 3_444
Pr2 P1 O 107.56(5) 7_546 3_444
Pr2 P1 O 90.83(9) 1_554 3_444
Pr1 P1 O 27.32(5) 5 3_444
Au P1 O 138.91(8) . 3_444
O P1 O 122.21(11) 7_556 3_444
O P1 O 89.66(15) 7_546 3_444
P1 P1 O 134.60(12) 7 3_444
P1 P1 O 103.59(8) 7_545 3_444
P2 P1 O 141.95(9) 5_656 3_444
P1 P1 O 45.93(8) 5 3_444
P2 P1 O 41.58(8) 7_545 3_444
P2 P1 O 72.69(8) 7 3_444
P1 P1 O 116.52(4) 1_565 3_444
P1 P1 O 63.48(4) 1_545 3_444
P2 P1 O 153.48(4) . 3_444
Au P1 O 96.47(9) 7_545 3_454
Au P1 O 47.90(7) 7 3_454
Pr1 P1 O 90.39(10) . 3_454
Pr2 P1 O 107.56(5) 7_556 3_454
Pr2 P1 O 158.77(8) 7_546 3_454
Pr2 P1 O 90.83(9) 1_554 3_454
Pr1 P1 O 27.32(5) 5 3_454
Au P1 O 138.91(8) . 3_454
O P1 O 89.66(15) 7_556 3_454
O P1 O 122.21(11) 7_546 3_454
P1 P1 O 103.59(8) 7 3_454
P1 P1 O 134.60(12) 7_545 3_454
P2 P1 O 141.95(9) 5_656 3_454
P1 P1 O 45.93(8) 5 3_454
P2 P1 O 72.69(8) 7_545 3_454
P2 P1 O 41.58(8) 7 3_454
P1 P1 O 63.48(4) 1_565 3_454
P1 P1 O 116.52(4) 1_545 3_454
P2 P1 O 153.48(4) . 3_454
O P1 O 53.03(8) 3_444 3_454
Au P1 Au 73.51(5) 7_545 3_445
Au P1 Au 119.78(8) 7 3_445
Pr1 P1 Au 43.31(3) . 3_445
Pr2 P1 Au 123.52(7) 7_556 3_445
Pr2 P1 Au 85.63(4) 7_546 3_445
Pr2 P1 Au 137.72(6) 1_554 3_445
Pr1 P1 Au 64.80(5) 5 3_445
Au P1 Au 146.04(4) . 3_445
O P1 Au 83.03(10) 7_556 3_445
O P1 Au 48.82(12) 7_546 3_445
P1 P1 Au 174.35(6) 7 3_445
P1 P1 Au 121.98(3) 7_545 3_445
P2 P1 Au 96.15(6) 5_656 3_445
P1 P1 Au 30.48(3) 5 3_445
P2 P1 Au 86.49(6) 7_545 3_445
P2 P1 Au 112.81(7) 7 3_445
P1 P1 Au 116.418(16) 1_565 3_445
P1 P1 Au 63.582(16) 1_545 3_445
P2 P1 Au 121.66(6) . 3_445
O P1 Au 48.63(8) 3_444 3_445
O P1 Au 74.72(8) 3_454 3_445
Au P1 Au 119.78(8) 7_545 3_455
Au P1 Au 73.51(5) 7 3_455
Pr1 P1 Au 43.31(3) . 3_455
Pr2 P1 Au 85.63(5) 7_556 3_455
Pr2 P1 Au 123.52(7) 7_546 3_455
Pr2 P1 Au 137.72(6) 1_554 3_455
Pr1 P1 Au 64.80(5) 5 3_455
Au P1 Au 146.04(4) . 3_455
O P1 Au 48.82(12) 7_556 3_455
O P1 Au 83.03(10) 7_546 3_455
P1 P1 Au 121.98(3) 7 3_455
P1 P1 Au 174.35(6) 7_545 3_455
P2 P1 Au 96.15(6) 5_656 3_455
P1 P1 Au 30.48(3) 5 3_455
P2 P1 Au 112.81(7) 7_545 3_455
P2 P1 Au 86.49(6) 7 3_455
P1 P1 Au 63.582(16) 1_565 3_455
P1 P1 Au 116.418(16) 1_545 3_455
P2 P1 Au 121.66(6) . 3_455
O P1 Au 74.72(8) 3_444 3_455
O P1 Au 48.63(8) 3_454 3_455
Au P1 Au 52.84(3) 3_445 3_455
Au P1 O 116.98(6) 7_545 .
Au P1 O 116.98(6) 7 .
Pr1 P1 O 20.84(8) . .
Pr2 P1 O 66.39(7) 7_556 .
Pr2 P1 O 66.39(7) 7_546 .
Pr2 P1 O 157.80(11) 1_554 .
Pr1 P1 O 118.11(11) 5 .
Au P1 O 101.35(10) . .
O P1 O 37.13(7) 7_556 .
O P1 O 37.13(7) 7_546 .
P1 P1 O 115.88(10) 7 .
P1 P1 O 115.88(10) 7_545 .
P2 P1 O 40.37(9) 5_656 .
P1 P1 O 72.28(10) 5 .
P2 P1 O 143.55(7) 7_545 .
P2 P1 O 143.55(7) 7 .
P1 P1 O 90.0 1_565 .
P1 P1 O 90.0 1_545 .
P2 P1 O 69.39(10) . .
O P1 O 108.94(12) 3_444 .
O P1 O 108.94(12) 3_454 .
Au P1 O 60.37(8) 3_445 .
Au P1 O 60.37(8) 3_455 .
Au P1 Pr1 158.24(9) 7_545 1_565
Au P1 Pr1 59.69(4) 7 1_565
Pr1 P1 Pr1 54.80(2) . 1_565
Pr2 P1 Pr1 47.69(3) 7_556 1_565
Pr2 P1 Pr1 118.75(7) 7_546 1_565
Pr2 P1 Pr1 125.19(2) 1_554 1_565
Pr1 P1 Pr1 94.18(4) 5 1_565
Au P1 Pr1 107.88(4) . 1_565
O P1 Pr1 22.84(8) 7_556 1_565
O P1 Pr1 93.72(8) 7_546 1_565
P1 P1 Pr1 87.57(3) 7 1_565
P1 P1 Pr1 144.37(8) 7_545 1_565
P2 P1 Pr1 73.88(4) 5_656 1_565
P1 P1 Pr1 68.94(4) 5 1_565
P2 P1 Pr1 141.37(6) 7_545 1_565
P2 P1 Pr1 87.52(3) 7 1_565
P1 P1 Pr1 35.20(2) 1_565 1_565
P1 P1 Pr1 144.80(2) 1_545 1_565
P2 P1 Pr1 90.13(4) . 1_565
O P1 Pr1 111.64(8) 3_444 1_565
O P1 Pr1 68.84(6) 3_454 1_565
Au P1 Pr1 86.80(4) 3_445 1_565
Au P1 Pr1 38.464(17) 3_455 1_565
O P1 Pr1 57.41(3) . 1_565
Au P1 Pr1 59.69(4) 7_545 1_545
Au P1 Pr1 158.24(9) 7 1_545
Pr1 P1 Pr1 54.80(2) . 1_545
Pr2 P1 Pr1 118.75(7) 7_556 1_545
Pr2 P1 Pr1 47.69(3) 7_546 1_545
Pr2 P1 Pr1 125.19(2) 1_554 1_545
Pr1 P1 Pr1 94.18(4) 5 1_545
Au P1 Pr1 107.88(4) . 1_545
O P1 Pr1 93.72(8) 7_556 1_545
O P1 Pr1 22.84(8) 7_546 1_545
P1 P1 Pr1 144.37(8) 7 1_545
P1 P1 Pr1 87.57(3) 7_545 1_545
P2 P1 Pr1 73.88(4) 5_656 1_545
P1 P1 Pr1 68.94(4) 5 1_545
P2 P1 Pr1 87.52(3) 7_545 1_545
P2 P1 Pr1 141.37(6) 7 1_545
P1 P1 Pr1 144.80(2) 1_565 1_545
P1 P1 Pr1 35.20(2) 1_545 1_545
P2 P1 Pr1 90.13(4) . 1_545
O P1 Pr1 68.84(6) 3_444 1_545
O P1 Pr1 111.64(7) 3_454 1_545
Au P1 Pr1 38.464(17) 3_445 1_545
Au P1 Pr1 86.80(4) 3_455 1_545
O P1 Pr1 57.41(3) . 1_545
Pr1 P1 Pr1 109.61(5) 1_565 1_545
Au P1 Pr2 23.53(4) 7_545 1_544
Au P1 Pr2 118.80(8) 7 1_544
Pr1 P1 Pr2 127.11(2) . 1_544
Pr2 P1 Pr2 130.82(7) 7_556 1_544
Pr2 P1 Pr2 61.81(3) 7_546 1_544
Pr2 P1 Pr2 52.88(2) 1_554 1_544
Pr1 P1 Pr2 86.44(4) 5 1_544
Au P1 Pr2 70.51(3) . 1_544
O P1 Pr2 157.74(11) 7_556 1_544
O P1 Pr2 87.88(7) 7_546 1_544
P1 P1 Pr2 90.37(7) 7 1_544
P1 P1 Pr2 34.10(3) 7_545 1_544
P2 P1 Pr2 106.14(5) 5_656 1_544
P1 P1 Pr2 112.79(5) 5 1_544
P2 P1 Pr2 38.73(4) 7_545 1_544
P2 P1 Pr2 91.40(5) 7 1_544
P1 P1 Pr2 142.88(2) 1_565 1_544
P1 P1 Pr2 37.12(2) 1_545 1_544
P2 P1 Pr2 89.04(5) . 1_544
O P1 Pr2 69.68(6) 3_444 1_544
O P1 Pr2 111.39(7) 3_454 1_544
Au P1 Pr2 95.27(2) 3_445 1_544
Au P1 Pr2 143.25(5) 3_455 1_544
O P1 Pr2 123.97(3) . 1_544
Pr1 P1 Pr2 177.91(5) 1_565 1_544
Pr1 P1 Pr2 72.313(16) 1_545 1_544
Au P1 Pr2 118.80(8) 7_545 1_564
Au P1 Pr2 23.53(4) 7 1_564
Pr1 P1 Pr2 127.11(2) . 1_564
Pr2 P1 Pr2 61.81(3) 7_556 1_564
Pr2 P1 Pr2 130.82(7) 7_546 1_564
Pr2 P1 Pr2 52.88(2) 1_554 1_564
Pr1 P1 Pr2 86.44(4) 5 1_564
Au P1 Pr2 70.51(3) . 1_564
O P1 Pr2 87.88(7) 7_556 1_564
O P1 Pr2 157.74(11) 7_546 1_564
P1 P1 Pr2 34.10(3) 7 1_564
P1 P1 Pr2 90.37(7) 7_545 1_564
P2 P1 Pr2 106.14(5) 5_656 1_564
P1 P1 Pr2 112.79(5) 5 1_564
P2 P1 Pr2 91.40(5) 7_545 1_564
P2 P1 Pr2 38.73(4) 7 1_564
P1 P1 Pr2 37.12(2) 1_565 1_564
P1 P1 Pr2 142.88(2) 1_545 1_564
P2 P1 Pr2 89.04(5) . 1_564
O P1 Pr2 111.39(7) 3_444 1_564
O P1 Pr2 69.68(6) 3_454 1_564
Au P1 Pr2 143.25(5) 3_445 1_564
Au P1 Pr2 95.27(2) 3_455 1_564
O P1 Pr2 123.97(3) . 1_564
Pr1 P1 Pr2 72.313(16) 1_565 1_564
Pr1 P1 Pr2 177.91(5) 1_545 1_564
Pr2 P1 Pr2 105.76(5) 1_544 1_564
Au P1 P2 40.99(5) 7_545 3_444
Au P1 P2 86.76(7) 7 3_444
Pr1 P1 P2 151.30(5) . 3_444
Pr2 P1 P2 127.74(8) 7_556 3_444
Pr2 P1 P2 92.86(5) 7_546 3_444
Pr2 P1 P2 29.48(3) 1_554 3_444
Pr1 P1 P2 67.83(6) 5 3_444
Au P1 P2 76.11(6) . 3_444
O P1 P2 165.86(8) 7_556 3_444
O P1 P2 119.28(6) 7_546 3_444
P1 P1 P2 76.36(7) 7 3_444
P1 P1 P2 49.27(7) 7_545 3_444
P2 P1 P2 131.13(6) 5_656 3_444
P1 P1 P2 109.68(8) 5 3_444
P2 P1 P2 23.38(7) 7_545 3_444
P2 P1 P2 58.92(4) 7 3_444
P1 P1 P2 113.459(18) 1_565 3_444
P1 P1 P2 66.541(18) 1_545 3_444
P2 P1 P2 105.37(8) . 3_444
O P1 P2 64.92(9) 3_444 3_444
O P1 P2 86.07(9) 3_454 3_444
Au P1 P2 108.72(5) 3_445 3_444
Au P1 P2 132.47(7) 3_455 3_444
O P1 P2 156.25(2) . 3_444
Pr1 P1 P2 146.19(4) 1_565 3_444
Pr1 P1 P2 100.38(2) 1_545 3_444
Pr2 P1 P2 32.56(2) 1_544 3_444
Pr2 P1 P2 78.00(4) 1_564 3_444
Au P1 P2 86.76(7) 7_545 3_454
Au P1 P2 40.99(5) 7 3_454
Pr1 P1 P2 151.30(5) . 3_454
Pr2 P1 P2 92.86(5) 7_556 3_454
Pr2 P1 P2 127.74(8) 7_546 3_454
Pr2 P1 P2 29.48(3) 1_554 3_454
Pr1 P1 P2 67.83(6) 5 3_454
Au P1 P2 76.11(6) . 3_454
O P1 P2 119.28(6) 7_556 3_454
O P1 P2 165.86(8) 7_546 3_454
P1 P1 P2 49.27(7) 7 3_454
P1 P1 P2 76.36(7) 7_545 3_454
P2 P1 P2 131.13(6) 5_656 3_454
P1 P1 P2 109.68(8) 5 3_454
P2 P1 P2 58.92(4) 7_545 3_454
P2 P1 P2 23.38(7) 7 3_454
P1 P1 P2 66.541(18) 1_565 3_454
P1 P1 P2 113.459(18) 1_545 3_454
P2 P1 P2 105.37(8) . 3_454
O P1 P2 86.07(9) 3_444 3_454
O P1 P2 64.92(9) 3_454 3_454
Au P1 P2 132.47(7) 3_445 3_454
Au P1 P2 108.72(5) 3_455 3_454
O P1 P2 156.25(2) . 3_454
Pr1 P1 P2 100.38(2) 1_565 3_454
Pr1 P1 P2 146.19(4) 1_545 3_454
Pr2 P1 P2 78.00(4) 1_544 3_454
Pr2 P1 P2 32.56(2) 1_564 3_454
P2 P1 P2 46.92(4) 3_444 3_454
P2 P2 Au 110.0(2) 5_656 .
P2 P2 Pr2 77.95(11) 5_656 3
Au P2 Pr2 134.66(4) . 3
P2 P2 Pr2 77.95(11) 5_656 3_545
Au P2 Pr2 134.66(4) . 3_545
Pr2 P2 Pr2 90.55(8) 3 3_545
P2 P2 Pr1 138.14(5) 5_656 3_545
Au P2 Pr1 69.70(7) . 3_545
Pr2 P2 Pr1 133.69(11) 3 3_545
Pr2 P2 Pr1 75.70(4) 3_545 3_545
P2 P2 Pr1 138.14(5) 5_656 3
Au P2 Pr1 69.70(7) . 3
Pr2 P2 Pr1 75.70(4) 3 3
Pr2 P2 Pr1 133.69(11) 3_545 3
Pr1 P2 Pr1 82.60(8) 3_545 3
P2 P2 O 172.6(2) 5_656 5_656
Au P2 O 77.47(14) . 5_656
Pr2 P2 O 96.91(10) 3 5_656
Pr2 P2 O 96.91(10) 3_545 5_656
Pr1 P2 O 43.47(5) 3_545 5_656
Pr1 P2 O 43.47(5) 3 5_656
P2 P2 Pr2 61.29(11) 5_656 7_546
Au P2 Pr2 66.26(7) . 7_546
Pr2 P2 Pr2 139.24(10) 3 7_546
Pr2 P2 Pr2 81.49(4) 3_545 7_546
Pr1 P2 Pr2 82.98(4) 3_545 7_546
Pr1 P2 Pr2 135.95(11) 3 7_546
O P2 Pr2 123.66(10) 5_656 7_546
P2 P2 Pr2 61.29(11) 5_656 7_556
Au P2 Pr2 66.26(7) . 7_556
Pr2 P2 Pr2 81.49(4) 3 7_556
Pr2 P2 Pr2 139.24(10) 3_545 7_556
Pr1 P2 Pr2 135.95(11) 3_545 7_556
Pr1 P2 Pr2 82.98(4) 3 7_556
O P2 Pr2 123.66(10) 5_656 7_556
Pr2 P2 Pr2 79.16(8) 7_546 7_556
P2 P2 O 120.81(18) 5_656 3
Au P2 O 112.18(14) . 3
Pr2 P2 O 42.87(10) 3 3
Pr2 P2 O 99.04(14) 3_545 3
Pr1 P2 O 95.16(13) 3_545 3
Pr1 P2 O 42.53(11) 3 3
O P2 O 54.27(15) 5_656 3
Pr2 P2 O 177.88(16) 7_546 3
Pr2 P2 O 101.60(8) 7_556 3
P2 P2 O 120.81(18) 5_656 3_545
Au P2 O 112.18(14) . 3_545
Pr2 P2 O 99.04(14) 3 3_545
Pr2 P2 O 42.87(10) 3_545 3_545
Pr1 P2 O 42.53(11) 3_545 3_545
Pr1 P2 O 95.16(13) 3 3_545
O P2 O 54.27(15) 5_656 3_545
Pr2 P2 O 101.60(8) 7_546 3_545
Pr2 P2 O 177.88(16) 7_556 3_545
O P2 O 77.56(18) 3 3_545
P2 P2 Pr1 132.93(19) 5_656 5_656
Au P2 Pr1 117.12(10) . 5_656
Pr2 P2 Pr1 69.53(6) 3 5_656
Pr2 P2 Pr1 69.53(6) 3_545 5_656
Pr1 P2 Pr1 64.21(6) 3_545 5_656
Pr1 P2 Pr1 64.21(6) 3 5_656
O P2 Pr1 39.64(12) 5_656 5_656
Pr2 P2 Pr1 140.22(4) 7_546 5_656
Pr2 P2 Pr1 140.22(4) 7_556 5_656
O P2 Pr1 38.82(9) 3 5_656
O P2 Pr1 38.82(9) 3_545 5_656
P2 P2 Au 37.14(12) 5_656 5_656
Au P2 Au 147.09(12) . 5_656
Pr2 P2 Au 55.10(5) 3 5_656
Pr2 P2 Au 55.10(5) 3_545 5_656
Pr1 P2 Au 130.79(6) 3_545 5_656
Pr1 P2 Au 130.79(6) 3 5_656
O P2 Au 135.44(14) 5_656 5_656
Pr2 P2 Au 88.91(7) 7_546 5_656
Pr2 P2 Au 88.91(7) 7_556 5_656
O P2 Au 93.08(14) 3 5_656
O P2 Au 93.08(14) 3_545 5_656
Pr1 P2 Au 95.80(7) 5_656 5_656
P2 P2 P1 88.10(17) 5_656 5_656
Au P2 P1 161.95(12) . 5_656
Pr2 P2 P1 47.27(4) 3 5_656
Pr2 P2 P1 47.27(4) 3_545 5_656
Pr1 P2 P1 97.09(8) 3_545 5_656
Pr1 P2 P1 97.09(8) 3 5_656
O P2 P1 84.48(13) 5_656 5_656
Pr2 P2 P1 125.91(7) 7_546 5_656
Pr2 P2 P1 125.91(7) 7_556 5_656
O P2 P1 55.23(12) 3 5_656
O P2 P1 55.23(12) 3_545 5_656
Pr1 P2 P1 44.83(5) 5_656 5_656
Au P2 P1 50.96(6) 5_656 5_656
P2 P2 P1 107.99(16) 5_656 7_545
Au P2 P1 30.31(3) . 7_545
Pr2 P2 P1 164.75(6) 3 7_545
Pr2 P2 P1 104.35(3) 3_545 7_545
Pr1 P2 P1 50.02(5) 3_545 7_545
Pr1 P2 P1 91.34(8) 3 7_545
O P2 P1 78.35(12) 5_656 7_545
Pr2 P2 P1 48.77(5) 7_546 7_545
Pr2 P2 P1 89.07(8) 7_556 7_545
O P2 P1 129.17(15) 3 7_545
O P2 P1 89.98(12) 3_545 7_545
Pr1 P2 P1 112.33(8) 5_656 7_545
Au P2 P1 137.13(7) 5_656 7_545
P1 P2 P1 144.70(6) 5_656 7_545
P2 P2 P1 107.99(16) 5_656 7
Au P2 P1 30.31(3) . 7
Pr2 P2 P1 104.35(3) 3 7
Pr2 P2 P1 164.75(6) 3_545 7
Pr1 P2 P1 91.34(8) 3_545 7
Pr1 P2 P1 50.02(5) 3 7
O P2 P1 78.35(12) 5_656 7
Pr2 P2 P1 89.07(8) 7_546 7
Pr2 P2 P1 48.77(5) 7_556 7
O P2 P1 89.98(12) 3 7
O P2 P1 129.17(15) 3_545 7
Pr1 P2 P1 112.33(8) 5_656 7
Au P2 P1 137.13(7) 5_656 7
P1 P2 P1 144.70(6) 5_656 7
P1 P2 P1 60.60(6) 7_545 7
P2 P2 P2 90.0 5_656 1_565
Au P2 P2 90.0 . 1_565
Pr2 P2 P2 44.73(4) 3 1_565
Pr2 P2 P2 135.27(4) 3_545 1_565
Pr1 P2 P2 131.30(4) 3_545 1_565
Pr1 P2 P2 48.70(4) 3 1_565
O P2 P2 90.0 5_656 1_565
Pr2 P2 P2 129.58(4) 7_546 1_565
Pr2 P2 P2 50.42(4) 7_556 1_565
O P2 P2 51.22(9) 3 1_565
O P2 P2 128.78(9) 3_545 1_565
Pr1 P2 P2 90.0 5_656 1_565
Au P2 P2 90.0 5_656 1_565
P1 P2 P2 90.0 5_656 1_565
P1 P2 P2 120.30(3) 7_545 1_565
P1 P2 P2 59.70(3) 7 1_565
P2 P2 P2 90.000(1) 5_656 1_545
Au P2 P2 90.0 . 1_545
Pr2 P2 P2 135.27(4) 3 1_545
Pr2 P2 P2 44.73(4) 3_545 1_545
Pr1 P2 P2 48.70(4) 3_545 1_545
Pr1 P2 P2 131.30(4) 3 1_545
O P2 P2 90.0 5_656 1_545
Pr2 P2 P2 50.42(4) 7_546 1_545
Pr2 P2 P2 129.58(4) 7_556 1_545
O P2 P2 128.78(9) 3 1_545
O P2 P2 51.22(9) 3_545 1_545
Pr1 P2 P2 90.0 5_656 1_545
Au P2 P2 90.0 5_656 1_545
P1 P2 P2 90.0 5_656 1_545
P1 P2 P2 59.70(3) 7_545 1_545
P1 P2 P2 120.30(3) 7 1_545
P2 P2 P2 180.0(3) 1_565 1_545
P2 P2 P1 62.88(15) 5_656 .
Au P2 P1 47.07(6) . .
Pr2 P2 P1 120.20(7) 3 .
Pr2 P2 P1 120.20(7) 3_545 .
Pr1 P2 P1 104.57(7) 3_545 .
Pr1 P2 P1 104.57(7) 3 .
O P2 P1 124.54(13) 5_656 .
Pr2 P2 P1 40.94(4) 7_546 .
Pr2 P2 P1 40.94(4) 7_556 .
O P2 P1 139.16(10) 3 .
O P2 P1 139.16(10) 3_545 .
Pr1 P2 P1 164.18(9) 5_656 .
Au P2 P1 100.02(8) 5_656 .
P1 P2 P1 150.98(8) 5_656 .
P1 P2 P1 54.77(7) 7_545 .
P1 P2 P1 54.77(7) 7 .
P2 P2 P1 90.0 1_565 .
P2 P2 P1 90.0 1_545 .
P2 P2 P2 62.35(7) 5_656 5_646
Au P2 P2 99.11(8) . 5_646
Pr2 P2 P2 122.17(11) 3 5_646
Pr2 P2 P2 43.43(4) 3_545 5_646
Pr1 P2 P2 76.18(3) 3_545 5_646
Pr1 P2 P2 158.47(10) 3 5_646
O P2 P2 117.40(7) 5_656 5_646
Pr2 P2 P2 38.06(4) 7_546 5_646
Pr2 P2 P2 109.97(11) 7_556 5_646
O P2 P2 142.43(16) 3 5_646
O P2 P2 71.51(8) 3_545 5_646
Pr1 P2 P2 108.43(8) 5_656 5_646
Au P2 P2 68.28(7) 5_656 5_646
P1 P2 P2 89.12(8) 5_656 5_646
P1 P2 P2 72.33(6) 7_545 5_646
P1 P2 P2 126.17(10) 7 5_646
P2 P2 P2 152.35(7) 1_565 5_646
P2 P2 P2 27.65(7) 1_545 5_646
P1 P2 P2 77.79(8) . 5_646
P2 P2 P2 62.35(7) 5_656 5_666
Au P2 P2 99.11(8) . 5_666
Pr2 P2 P2 43.43(4) 3 5_666
Pr2 P2 P2 122.17(11) 3_545 5_666
Pr1 P2 P2 158.47(10) 3_545 5_666
Pr1 P2 P2 76.18(3) 3 5_666
O P2 P2 117.40(7) 5_656 5_666
Pr2 P2 P2 109.97(11) 7_546 5_666
Pr2 P2 P2 38.06(4) 7_556 5_666
O P2 P2 71.51(8) 3 5_666
O P2 P2 142.43(16) 3_545 5_666
Pr1 P2 P2 108.43(8) 5_656 5_666
Au P2 P2 68.28(7) 5_656 5_666
P1 P2 P2 89.12(8) 5_656 5_666
P1 P2 P2 126.17(10) 7_545 5_666
P1 P2 P2 72.33(6) 7 5_666
P2 P2 P2 27.65(7) 1_565 5_666
P2 P2 P2 152.35(7) 1_545 5_666
P1 P2 P2 77.79(8) . 5_666
P2 P2 P2 124.69(13) 5_646 5_666
P2 P2 Au 99.88(9) 5_656 1_545
Au P2 Au 59.79(3) . 1_545
Pr2 P2 Au 165.39(7) 3 1_545
Pr2 P2 Au 74.91(2) 3_545 1_545
Pr1 P2 Au 41.85(3) 3_545 1_545
Pr1 P2 Au 113.32(7) 3 1_545
O P2 Au 83.74(7) 5_656 1_545
Pr2 P2 Au 41.13(2) 7_546 1_545
Pr2 P2 Au 110.37(8) 7_556 1_545
O P2 Au 136.99(12) 3 1_545
O P2 Au 69.43(9) 3_545 1_545
Pr1 P2 Au 103.26(4) 5_656 1_545
Au P2 Au 114.98(4) 5_656 1_545
P1 P2 Au 118.58(4) 5_656 1_545
P1 P2 Au 29.504(19) 7_545 1_545
P1 P2 Au 90.10(6) 7 1_545
P2 P2 Au 149.79(3) 1_565 1_545
P2 P2 Au 30.21(3) 1_545 1_545
P1 P2 Au 69.96(4) . 1_545
P2 P2 Au 46.70(4) 5_646 1_545
P2 P2 Au 147.69(11) 5_666 1_545
P2 P2 Au 99.88(9) 5_656 1_565
Au P2 Au 59.79(3) . 1_565
Pr2 P2 Au 74.91(2) 3 1_565
Pr2 P2 Au 165.39(7) 3_545 1_565
Pr1 P2 Au 113.32(7) 3_545 1_565
Pr1 P2 Au 41.85(3) 3 1_565
O P2 Au 83.74(7) 5_656 1_565
Pr2 P2 Au 110.37(8) 7_546 1_565
Pr2 P2 Au 41.13(2) 7_556 1_565
O P2 Au 69.43(9) 3 1_565
O P2 Au 136.99(12) 3_545 1_565
Pr1 P2 Au 103.26(4) 5_656 1_565
Au P2 Au 114.98(4) 5_656 1_565
P1 P2 Au 118.58(4) 5_656 1_565
P1 P2 Au 90.10(6) 7_545 1_565
P1 P2 Au 29.504(19) 7 1_565
P2 P2 Au 30.21(3) 1_565 1_565
P2 P2 Au 149.79(3) 1_545 1_565
P1 P2 Au 69.96(4) . 1_565
P2 P2 Au 147.69(11) 5_646 1_565
P2 P2 Au 46.70(4) 5_666 1_565
Au P2 Au 119.59(6) 1_545 1_565
P2 P2 O 36.31(12) 5_656 7_546
Au P2 O 83.92(10) . 7_546
Pr2 P2 O 114.26(9) 3 7_546
Pr2 P2 O 78.30(8) 3_545 7_546
Pr1 P2 O 105.97(6) 3_545 7_546
Pr1 P2 O 147.69(9) 3 7_546
O P2 O 148.36(11) 5_656 7_546
Pr2 P2 O 24.98(7) 7_546 7_546
Pr2 P2 O 69.14(7) 7_556 7_546
O P2 O 157.13(9) 3 7_546
O P2 O 112.35(12) 3_545 7_546
Pr1 P2 O 147.73(7) 5_656 7_546
Au P2 O 66.56(9) 5_656 7_546
P1 P2 O 112.22(9) 5_656 7_546
P1 P2 O 72.80(8) 7_545 7_546
P1 P2 O 98.05(9) 7 7_546
P2 P2 O 115.59(3) 1_565 7_546
P2 P2 O 64.41(3) 1_545 7_546
P1 P2 O 43.29(8) . 7_546
P2 P2 O 40.84(7) 5_646 7_546
P2 P2 O 90.49(9) 5_666 7_546
Au P2 O 64.75(6) 1_545 7_546
Au P2 O 108.66(7) 1_565 7_546
P2 P2 O 36.31(12) 5_656 7_556
Au P2 O 83.92(10) . 7_556
Pr2 P2 O 78.30(8) 3 7_556
Pr2 P2 O 114.26(9) 3_545 7_556
Pr1 P2 O 147.69(9) 3_545 7_556
Pr1 P2 O 105.97(6) 3 7_556
O P2 O 148.36(11) 5_656 7_556
Pr2 P2 O 69.14(7) 7_546 7_556
Pr2 P2 O 24.98(7) 7_556 7_556
O P2 O 112.35(12) 3 7_556
O P2 O 157.13(9) 3_545 7_556
Pr1 P2 O 147.73(7) 5_656 7_556
Au P2 O 66.56(9) 5_656 7_556
P1 P2 O 112.22(9) 5_656 7_556
P1 P2 O 98.05(9) 7_545 7_556
P1 P2 O 72.80(8) 7 7_556
P2 P2 O 64.41(3) 1_565 7_556
P2 P2 O 115.59(4) 1_545 7_556
P1 P2 O 43.29(8) . 7_556
P2 P2 O 90.49(9) 5_646 7_556
P2 P2 O 40.84(7) 5_666 7_556
Au P2 O 108.66(7) 1_545 7_556
Au P2 O 64.75(5) 1_565 7_556
O P2 O 51.17(7) 7_546 7_556
P2 P2 Pr1 24.92(2) 5_656 7_546
Au P2 Pr1 111.59(8) . 7_546
Pr2 P2 Pr1 93.71(7) 3 7_546
Pr2 P2 Pr1 58.17(5) 3_545 7_546
Pr1 P2 Pr1 113.99(3) 3_545 7_546
Pr1 P2 Pr1 163.06(5) 3 7_546
O P2 Pr1 153.03(5) 5_656 7_546
Pr2 P2 Pr1 48.43(4) 7_546 7_546
Pr2 P2 Pr1 82.38(6) 7_556 7_546
O P2 Pr1 133.55(14) 3 7_546
O P2 Pr1 99.61(11) 3_545 7_546
Pr1 P2 Pr1 124.90(6) 5_656 7_546
Au P2 Pr1 40.48(3) 5_656 7_546
P1 P2 Pr1 84.70(6) 5_656 7_546
P1 P2 Pr1 96.90(6) 7_545 7_546
P1 P2 Pr1 122.72(8) 7 7_546
P2 P2 Pr1 114.626(15) 1_565 7_546
P2 P2 Pr1 65.374(15) 1_545 7_546
P1 P2 Pr1 69.03(5) . 7_546
P2 P2 Pr1 37.81(5) 5_646 7_546
P2 P2 Pr1 87.03(8) 5_666 7_546
Au P2 Pr1 79.92(3) 1_545 7_546
Au P2 Pr1 123.04(6) 1_565 7_546
O P2 Pr1 27.69(8) 7_546 7_546
O P2 Pr1 58.29(6) 7_556 7_546
P2 P2 Pr1 24.92(2) 5_656 7_556
Au P2 Pr1 111.59(8) . 7_556
Pr2 P2 Pr1 58.17(5) 3 7_556
Pr2 P2 Pr1 93.71(7) 3_545 7_556
Pr1 P2 Pr1 163.06(5) 3_545 7_556
Pr1 P2 Pr1 113.99(3) 3 7_556
O P2 Pr1 153.03(5) 5_656 7_556
Pr2 P2 Pr1 82.38(6) 7_546 7_556
Pr2 P2 Pr1 48.43(4) 7_556 7_556
O P2 Pr1 99.61(11) 3 7_556
O P2 Pr1 133.55(14) 3_545 7_556
Pr1 P2 Pr1 124.90(6) 5_656 7_556
Au P2 Pr1 40.48(3) 5_656 7_556
P1 P2 Pr1 84.70(6) 5_656 7_556
P1 P2 Pr1 122.72(8) 7_545 7_556
P1 P2 Pr1 96.90(6) 7 7_556
P2 P2 Pr1 65.374(15) 1_565 7_556
P2 P2 Pr1 114.626(15) 1_545 7_556
P1 P2 Pr1 69.03(5) . 7_556
P2 P2 Pr1 87.03(8) 5_646 7_556
P2 P2 Pr1 37.81(5) 5_666 7_556
Au P2 Pr1 123.04(6) 1_545 7_556
Au P2 Pr1 79.92(3) 1_565 7_556
O P2 Pr1 58.29(6) 7_546 7_556
O P2 Pr1 27.69(8) 7_556 7_556
Pr1 P2 Pr1 49.25(3) 7_546 7_556
P2 P2 O 126.83(6) 5_656 5_666
Au P2 O 82.47(8) . 5_666
Pr2 P2 O 60.44(7) 3 5_666
Pr2 P2 O 129.69(10) 3_545 5_666
Pr1 P2 O 94.99(8) 3_545 5_666
Pr1 P2 O 15.32(7) 3 5_666
O P2 O 52.81(6) 5_656 5_666
Pr2 P2 O 147.42(9) 7_546 5_666
Pr2 P2 O 80.07(7) 7_556 5_666
O P2 O 31.58(17) 3 5_666
O P2 O 98.39(8) 3_545 5_666
Pr1 P2 O 62.26(7) 5_656 5_666
Au P2 O 115.51(7) 5_656 5_666
P1 P2 O 86.66(8) 5_656 5_666
P1 P2 O 106.25(8) 7_545 5_666
P1 P2 O 58.40(8) 7 5_666
P2 P2 O 37.19(6) 1_565 5_666
P2 P2 O 142.81(6) 1_545 5_666
P1 P2 O 110.05(8) . 5_666
P2 P2 O 169.68(10) 5_646 5_666
P2 P2 O 64.70(7) 5_666 5_666
Au P2 O 128.50(8) 1_545 5_666
Au P2 O 41.03(7) 1_565 5_666
O P2 O 149.17(11) 7_546 5_666
O P2 O 99.83(4) 7_556 5_666
Pr1 P2 O 150.54(6) 7_546 5_666
Pr1 P2 O 101.94(6) 7_556 5_666
P2 P2 O 126.83(6) 5_656 5_646
Au P2 O 82.47(8) . 5_646
Pr2 P2 O 129.69(10) 3 5_646
Pr2 P2 O 60.44(7) 3_545 5_646
Pr1 P2 O 15.32(7) 3_545 5_646
Pr1 P2 O 94.99(8) 3 5_646
O P2 O 52.81(6) 5_656 5_646
Pr2 P2 O 80.07(7) 7_546 5_646
Pr2 P2 O 147.42(9) 7_556 5_646
O P2 O 98.39(8) 3 5_646
O P2 O 31.58(17) 3_545 5_646
Pr1 P2 O 62.26(7) 5_656 5_646
Au P2 O 115.51(7) 5_656 5_646
P1 P2 O 86.66(8) 5_656 5_646
P1 P2 O 58.40(8) 7_545 5_646
P1 P2 O 106.25(8) 7 5_646
P2 P2 O 142.81(6) 1_565 5_646
P2 P2 O 37.19(6) 1_545 5_646
P1 P2 O 110.05(8) . 5_646
P2 P2 O 64.70(7) 5_646 5_646
P2 P2 O 169.68(10) 5_666 5_646
Au P2 O 41.03(7) 1_545 5_646
Au P2 O 128.50(8) 1_565 5_646
O P2 O 99.83(4) 7_546 5_646
O P2 O 149.17(11) 7_556 5_646
Pr1 P2 O 101.94(6) 7_546 5_646
Pr1 P2 O 150.54(6) 7_556 5_646
O P2 O 105.61(11) 5_666 5_646
P2 P2 P1 48.64(12) 5_656 3_556
Au P2 P1 145.44(8) . 3_556
Pr2 P2 P1 31.96(4) 3 3_556
Pr2 P2 P1 73.58(6) 3_545 3_556
Pr1 P2 P1 144.86(9) 3_545 3_556
Pr1 P2 P1 106.99(5) 3 3_556
O P2 P1 124.97(12) 5_656 3_556
Pr2 P2 P1 108.64(8) 7_546 3_556
Pr2 P2 P1 79.18(6) 7_556 3_556
O P2 P1 73.46(12) 3 3_556
O P2 P1 102.36(14) 3_545 3_556
Pr1 P2 P1 89.10(6) 5_656 3_556
Au P2 P1 24.37(2) 5_656 3_556
P1 P2 P1 48.87(6) 5_656 3_556
P1 P2 P1 156.62(7) 7_545 3_556
P1 P2 P1 121.08(4) 7 3_556
P2 P2 P1 66.541(18) 1_565 3_556
P2 P2 P1 113.459(18) 1_545 3_556
P1 P2 P1 105.37(8) . 3_556
P2 P2 P1 92.63(8) 5_646 3_556
P2 P2 P1 48.75(6) 5_666 3_556
Au P2 P1 139.32(5) 1_545 3_556
Au P2 P1 94.03(3) 1_565 3_556
O P2 P1 84.10(8) 7_546 3_556
O P2 P1 63.47(9) 7_556 3_556
Pr1 P2 P1 61.77(4) 7_546 3_556
Pr1 P2 P1 36.40(4) 7_556 3_556
O P2 P1 91.68(6) 5_666 3_556
O P2 P1 131.57(8) 5_646 3_556
Pr2 O Pr1 109.46(16) . 7_556
Pr2 O Pr1 109.46(16) . 7_546
Pr1 O Pr1 125.8(3) 7_556 7_546
Pr2 O Pr1 106.3(3) . .
Pr1 O Pr1 101.77(17) 7_556 .
Pr1 O Pr1 101.77(17) 7_546 .
Pr2 O O 119.1(3) . 7_546
Pr1 O O 128.7(3) 7_556 7_546
Pr1 O O 51.14(9) 7_546 7_546
Pr1 O O 50.6(2) . 7_546
Pr2 O O 119.1(3) . 7_556
Pr1 O O 51.14(9) 7_556 7_556
Pr1 O O 128.7(3) 7_546 7_556
Pr1 O O 50.6(2) . 7_556
O O O 89.4(3) 7_546 7_556
Pr2 O P2 172.2(3) . 5_656
Pr1 O P2 68.15(15) 7_556 5_656
Pr1 O P2 68.15(15) 7_546 5_656
Pr1 O P2 81.49(17) . 5_656
O O P2 65.7(2) 7_546 5_656
O O P2 65.7(2) 7_556 5_656
Pr2 O P2 59.46(14) . 3_445
Pr1 O P2 155.6(2) 7_556 3_445
Pr1 O P2 78.17(8) 7_546 3_445
Pr1 O P2 64.89(15) . 3_445
O O P2 60.04(18) 7_546 3_445
O O P2 112.4(3) 7_556 3_445
P2 O P2 125.73(15) 5_656 3_445
Pr2 O P2 59.46(14) . 3_455
Pr1 O P2 78.17(8) 7_556 3_455
Pr1 O P2 155.6(2) 7_546 3_455
Pr1 O P2 64.89(15) . 3_455
O O P2 112.4(3) 7_546 3_455
O O P2 60.04(18) 7_556 3_455
P2 O P2 125.73(15) 5_656 3_455
P2 O P2 77.56(18) 3_445 3_455
Pr2 O P1 57.57(12) . 7_556
Pr1 O P1 57.19(10) 7_556 7_556
Pr1 O P1 122.2(2) 7_546 7_556
Pr1 O P1 135.81(15) . 7_556
O O P1 172.4(2) 7_546 7_556
O O P1 98.19(11) 7_556 7_556
P2 O P1 116.80(17) 5_656 7_556
P2 O P1 117.0(2) 3_445 7_556
P2 O P1 72.44(11) 3_455 7_556
Pr2 O P1 57.57(12) . 7_546
Pr1 O P1 122.2(2) 7_556 7_546
Pr1 O P1 57.19(10) 7_546 7_546
Pr1 O P1 135.81(15) . 7_546
O O P1 98.19(11) 7_546 7_546
O O P1 172.4(2) 7_556 7_546
P2 O P1 116.80(17) 5_656 7_546
P2 O P1 72.44(11) 3_445 7_546
P2 O P1 117.0(2) 3_455 7_546
P1 O P1 74.25(13) 7_556 7_546
Pr2 O Au 130.2(2) . 5_656
Pr1 O Au 63.13(15) 7_556 5_656
Pr1 O Au 63.13(15) 7_546 5_656
Pr1 O Au 123.4(2) . 5_656
O O Au 94.7(3) 7_546 5_656
O O Au 94.7(3) 7_556 5_656
P2 O Au 41.93(9) 5_656 5_656
P2 O Au 141.22(9) 3_445 5_656
P2 O Au 141.22(9) 3_455 5_656
P1 O Au 84.03(14) 7_556 5_656
P1 O Au 84.03(14) 7_546 5_656
Pr2 O Au 53.21(13) . 1_556
Pr1 O Au 87.20(17) 7_556 1_556
Pr1 O Au 87.20(17) 7_546 1_556
Pr1 O Au 159.5(2) . 1_556
O O Au 134.96(18) 7_546 1_556
O O Au 134.96(18) 7_556 1_556
P2 O Au 118.97(19) 5_656 1_556
P2 O Au 99.73(15) 3_445 1_556
P2 O Au 99.73(15) 3_455 1_556
P1 O Au 37.47(7) 7_556 1_556
P1 O Au 37.47(7) 7_546 1_556
Au O Au 77.03(13) 5_656 1_556
Pr2 O O 90.0 . 1_565
Pr1 O O 27.08(15) 7_556 1_565
Pr1 O O 152.92(15) 7_546 1_565
Pr1 O O 90.000(1) . 1_565
O O O 134.68(17) 7_546 1_565
O O O 45.32(17) 7_556 1_565
P2 O O 90.000(1) 5_656 1_565
P2 O O 128.78(9) 3_445 1_565
P2 O O 51.22(9) 3_455 1_565
P1 O O 52.87(7) 7_556 1_565
P1 O O 127.13(7) 7_546 1_565
Au O O 90.000(1) 5_656 1_565
Au O O 90.0 1_556 1_565
Pr2 O O 90.000(1) . 1_545
Pr1 O O 152.92(15) 7_556 1_545
Pr1 O O 27.08(15) 7_546 1_545
Pr1 O O 90.000(2) . 1_545
O O O 45.32(17) 7_546 1_545
O O O 134.68(17) 7_556 1_545
P2 O O 90.0 5_656 1_545
P2 O O 51.22(9) 3_445 1_545
P2 O O 128.78(9) 3_455 1_545
P1 O O 127.13(7) 7_556 1_545
P1 O O 52.87(7) 7_546 1_545
Au O O 90.0 5_656 1_545
Au O O 90.0 1_556 1_545
O O O 180.0(5) 1_565 1_545
Pr2 O Pr2 145.45(15) . 7_546
Pr1 O Pr2 103.68(19) 7_556 7_546
Pr1 O Pr2 54.80(12) 7_546 7_546
Pr1 O Pr2 56.31(11) . 7_546
O O Pr2 26.32(17) 7_546 7_546
O O Pr2 75.3(2) 7_556 7_546
P2 O Pr2 39.63(7) 5_656 7_546
P2 O Pr2 86.20(11) 3_445 7_546
P2 O Pr2 120.37(18) 3_455 7_546
P1 O Pr2 156.31(18) 7_556 7_546
P1 O Pr2 111.39(7) 7_546 7_546
Au O Pr2 74.03(11) 5_656 7_546
Au O Pr2 139.71(13) 1_556 7_546
O O Pr2 117.16(4) 1_565 7_546
O O Pr2 62.84(4) 1_545 7_546
Pr2 O Pr2 145.45(15) . 7_556
Pr1 O Pr2 54.80(12) 7_556 7_556
Pr1 O Pr2 103.68(19) 7_546 7_556
Pr1 O Pr2 56.31(11) . 7_556
O O Pr2 75.3(2) 7_546 7_556
O O Pr2 26.32(17) 7_556 7_556
P2 O Pr2 39.63(7) 5_656 7_556
P2 O Pr2 120.37(18) 3_445 7_556
P2 O Pr2 86.20(11) 3_455 7_556
P1 O Pr2 111.39(7) 7_556 7_556
P1 O Pr2 156.31(18) 7_546 7_556
Au O Pr2 74.03(11) 5_656 7_556
Au O Pr2 139.71(13) 1_556 7_556
O O Pr2 62.84(4) 1_565 7_556
O O Pr2 117.16(4) 1_545 7_556
Pr2 O Pr2 54.32(7) 7_546 7_556
Pr2 O P1 113.15(19) . 3_556
Pr1 O P1 38.94(12) 7_556 3_556
Pr1 O P1 90.99(19) 7_546 3_556
Pr1 O P1 131.36(17) . 3_556
O O P1 122.6(3) 7_546 3_556
O O P1 84.9(2) 7_556 3_556
P2 O P1 60.08(11) 5_656 3_556
P2 O P1 162.66(17) 3_445 3_556
P2 O P1 113.28(7) 3_455 3_556
P1 O P1 57.79(11) 7_556 3_556
P1 O P1 90.34(15) 7_546 3_556
Au O P1 29.83(5) 5_656 3_556
Au O P1 65.90(10) 1_556 3_556
O O P1 63.48(4) 1_565 3_556
O O P1 116.52(4) 1_545 3_556
Pr2 O P1 98.66(13) 7_546 3_556
Pr2 O P1 75.11(9) 7_556 3_556
Pr2 O P1 113.15(19) . 3_546
Pr1 O P1 90.99(19) 7_556 3_546
Pr1 O P1 38.94(12) 7_546 3_546
Pr1 O P1 131.36(17) . 3_546
O O P1 84.9(2) 7_546 3_546
O O P1 122.6(3) 7_556 3_546
P2 O P1 60.08(11) 5_656 3_546
P2 O P1 113.28(7) 3_445 3_546
P2 O P1 162.66(17) 3_455 3_546
P1 O P1 90.34(15) 7_556 3_546
P1 O P1 57.79(11) 7_546 3_546
Au O P1 29.83(5) 5_656 3_546
Au O P1 65.90(10) 1_556 3_546
O O P1 116.52(4) 1_565 3_546
O O P1 63.48(4) 1_545 3_546
Pr2 O P1 75.11(9) 7_546 3_546
Pr2 O P1 98.66(13) 7_556 3_546
P1 O P1 53.03(8) 3_556 3_546
Pr2 O Pr2 60.93(7) . 1_545
Pr1 O Pr2 160.1(2) 7_556 1_545
Pr1 O Pr2 51.95(8) 7_546 1_545
Pr1 O Pr2 97.86(12) . 1_545
O O Pr2 67.79(12) 7_546 1_545
O O Pr2 148.3(3) 7_556 1_545
P2 O Pr2 118.77(7) 5_656 1_545
P2 O Pr2 37.41(5) 3_445 1_545
P2 O Pr2 107.49(16) 3_455 1_545
P1 O Pr2 105.49(14) 7_556 1_545
P1 O Pr2 37.99(5) 7_546 1_545
Au O Pr2 108.29(9) 5_656 1_545
Au O Pr2 73.08(8) 1_556 1_545
O O Pr2 150.93(7) 1_565 1_545
O O Pr2 29.07(7) 1_545 1_545
Pr2 O Pr2 90.07(4) 7_546 1_545
Pr2 O Pr2 143.05(11) 7_556 1_545
P1 O Pr2 125.53(13) 3_556 1_545
P1 O Pr2 78.51(6) 3_546 1_545
Pr2 O Pr2 60.93(7) . 1_565
Pr1 O Pr2 51.95(8) 7_556 1_565
Pr1 O Pr2 160.1(2) 7_546 1_565
Pr1 O Pr2 97.86(12) . 1_565
O O Pr2 148.3(3) 7_546 1_565
O O Pr2 67.79(12) 7_556 1_565
P2 O Pr2 118.77(7) 5_656 1_565
P2 O Pr2 107.49(16) 3_445 1_565
P2 O Pr2 37.41(5) 3_455 1_565
P1 O Pr2 37.99(5) 7_556 1_565
P1 O Pr2 105.49(14) 7_546 1_565
Au O Pr2 108.29(9) 5_656 1_565
Au O Pr2 73.08(8) 1_556 1_565
O O Pr2 29.07(7) 1_565 1_565
O O Pr2 150.93(7) 1_545 1_565
Pr2 O Pr2 143.05(11) 7_546 1_565
Pr2 O Pr2 90.07(4) 7_556 1_565
P1 O Pr2 78.51(6) 3_556 1_565
P1 O Pr2 125.53(13) 3_546 1_565
Pr2 O Pr2 121.86(13) 1_545 1_565
Pr2 O Pr1 97.96(12) . 1_545
Pr1 O Pr1 151.1(2) 7_556 1_545
Pr1 O Pr1 47.57(9) 7_546 1_545
Pr1 O Pr1 60.51(7) . 1_545
O O Pr1 22.44(13) 7_546 1_545
O O Pr1 107.4(2) 7_556 1_545
P2 O Pr1 85.82(9) 5_656 1_545
P2 O Pr1 41.05(6) 3_445 1_545
P2 O Pr1 109.65(17) 3_455 1_545
P1 O Pr1 151.45(14) 7_556 1_545
P1 O Pr1 80.07(4) 7_546 1_545
Au O Pr1 105.73(9) 5_656 1_545
Au O Pr1 117.47(7) 1_556 1_545
O O Pr1 150.51(7) 1_565 1_545
O O Pr1 29.49(7) 1_545 1_545
Pr2 O Pr1 47.90(4) 7_546 1_545
Pr2 O Pr1 97.14(11) 7_556 1_545
P1 O Pr1 135.55(12) 3_556 1_545
P1 O Pr1 86.37(5) 3_546 1_545
Pr2 O Pr1 46.09(3) 1_545 1_545
Pr2 O Pr1 145.90(16) 1_565 1_545
Pr2 O Pr1 97.96(12) . 1_565
Pr1 O Pr1 47.57(9) 7_556 1_565
Pr1 O Pr1 151.1(2) 7_546 1_565
Pr1 O Pr1 60.51(7) . 1_565
O O Pr1 107.4(2) 7_546 1_565
O O Pr1 22.44(13) 7_556 1_565
P2 O Pr1 85.82(9) 5_656 1_565
P2 O Pr1 109.65(17) 3_445 1_565
P2 O Pr1 41.05(6) 3_455 1_565
P1 O Pr1 80.07(4) 7_556 1_565
P1 O Pr1 151.45(14) 7_546 1_565
Au O Pr1 105.73(9) 5_656 1_565
Au O Pr1 117.47(7) 1_556 1_565
O O Pr1 29.49(7) 1_565 1_565
O O Pr1 150.51(7) 1_545 1_565
Pr2 O Pr1 97.14(11) 7_546 1_565
Pr2 O Pr1 47.90(4) 7_556 1_565
P1 O Pr1 86.37(5) 3_556 1_565
P1 O Pr1 135.55(12) 3_546 1_565
Pr2 O Pr1 145.90(16) 1_545 1_565
Pr2 O Pr1 46.09(3) 1_565 1_565
Pr1 O Pr1 121.02(14) 1_545 1_565
Pr2 O Au 79.84(16) . 3_445
Pr1 O Au 136.0(2) 7_556 3_445
Pr1 O Au 86.92(12) 7_546 3_445
Pr1 O Au 37.05(9) . 3_445
O O Au 47.4(2) 7_546 3_445
O O Au 86.2(3) 7_556 3_445
P2 O Au 107.16(14) 5_656 3_445
P2 O Au 27.90(8) 3_445 3_445
P2 O Au 70.12(13) 3_455 3_445
P1 O Au 133.52(17) 7_556 3_445
P1 O Au 99.48(10) 7_546 3_445
Au O Au 142.03(12) 5_656 3_445
Au O Au 127.00(13) 1_556 3_445
O O Au 115.72(4) 1_565 3_445
O O Au 64.28(4) 1_545 3_445
Pr2 O Au 69.50(8) 7_546 3_445
Pr2 O Au 92.64(12) 7_556 3_445
P1 O Au 166.72(15) 3_556 3_445
P1 O Au 125.85(4) 3_546 3_445
Pr2 O Au 62.29(6) 1_545 3_445
Pr2 O Au 107.08(12) 1_565 3_445
Pr1 O Au 39.58(4) 1_545 3_445
Pr1 O Au 89.13(11) 1_565 3_445
Pr2 O Au 79.84(16) . 3_455
Pr1 O Au 86.92(12) 7_556 3_455
Pr1 O Au 136.0(2) 7_546 3_455
Pr1 O Au 37.05(9) . 3_455
O O Au 86.2(3) 7_546 3_455
O O Au 47.4(2) 7_556 3_455
P2 O Au 107.16(14) 5_656 3_455
P2 O Au 70.12(13) 3_445 3_455
P2 O Au 27.90(8) 3_455 3_455
P1 O Au 99.48(10) 7_556 3_455
P1 O Au 133.52(17) 7_546 3_455
Au O Au 142.03(12) 5_656 3_455
Au O Au 127.00(13) 1_556 3_455
O O Au 64.28(4) 1_565 3_455
O O Au 115.72(4) 1_545 3_455
Pr2 O Au 92.64(12) 7_546 3_455
Pr2 O Au 69.50(8) 7_556 3_455
P1 O Au 125.85(4) 3_556 3_455
P1 O Au 166.72(15) 3_546 3_455
Pr2 O Au 107.08(12) 1_545 3_455
Pr2 O Au 62.29(6) 1_565 3_455
Pr1 O Au 89.13(11) 1_545 3_455
Pr1 O Au 39.58(4) 1_565 3_455
Au O Au 51.45(7) 3_445 3_455
Pr2 O P2 36.59(9) . 7_546
Pr1 O P2 141.21(18) 7_556 7_546
Pr1 O P2 90.59(12) 7_546 7_546
Pr1 O P2 80.31(16) . 7_546
O O P2 82.8(2) 7_546 7_546
O O P2 118.8(3) 7_556 7_546
P2 O P2 148.36(11) 5_656 7_546
P2 O P2 22.87(9) 3_445 7_546
P2 O P2 67.65(12) 3_455 7_546
P1 O P2 94.16(14) 7_556 7_546
P1 O P2 63.33(10) 7_546 7_546
Au O P2 146.33(11) 5_656 7_546
Au O P2 81.26(11) 1_556 7_546
O O P2 115.59(3) 1_565 7_546
O O P2 64.41(3) 1_545 7_546
Pr2 O P2 109.02(9) 7_546 7_546
Pr2 O P2 136.08(15) 7_556 7_546
P1 O P2 147.00(14) 3_556 7_546
P1 O P2 116.94(8) 3_546 7_546
Pr2 O P2 39.86(5) 1_545 7_546
Pr2 O P2 89.27(10) 1_565 7_546
Pr1 O P2 62.69(6) 1_545 7_546
Pr1 O P2 107.04(12) 1_565 7_546
Au O P2 46.21(6) 3_445 7_546
Au O P2 71.51(10) 3_455 7_546
Pr2 O P2 36.59(9) . 7_556
Pr1 O P2 90.59(12) 7_556 7_556
Pr1 O P2 141.21(18) 7_546 7_556
Pr1 O P2 80.31(16) . 7_556
O O P2 118.8(3) 7_546 7_556
O O P2 82.8(2) 7_556 7_556
P2 O P2 148.36(11) 5_656 7_556
P2 O P2 67.65(12) 3_445 7_556
P2 O P2 22.87(9) 3_455 7_556
P1 O P2 63.33(10) 7_556 7_556
P1 O P2 94.16(14) 7_546 7_556
Au O P2 146.33(11) 5_656 7_556
Au O P2 81.26(11) 1_556 7_556
O O P2 64.41(3) 1_565 7_556
O O P2 115.59(3) 1_545 7_556
Pr2 O P2 136.08(15) 7_546 7_556
Pr2 O P2 109.02(9) 7_556 7_556
P1 O P2 116.94(8) 3_556 7_556
P1 O P2 147.00(14) 3_546 7_556
Pr2 O P2 89.27(10) 1_545 7_556
Pr2 O P2 39.86(5) 1_565 7_556
Pr1 O P2 107.04(12) 1_545 7_556
Pr1 O P2 62.69(6) 1_565 7_556
Au O P2 71.51(10) 3_445 7_556
Au O P2 46.21(6) 3_455 7_556
P2 O P2 51.17(7) 7_546 7_556
Pr2 O P1 132.7(2) . .
Pr1 O P1 90.13(16) 7_556 .
Pr1 O P1 90.13(16) 7_546 .
Pr1 O P1 26.33(10) . .
O O P1 44.68(17) 7_546 .
O O P1 44.68(17) 7_556 .
P2 O P1 55.15(10) 5_656 .
P2 O P1 84.83(15) 3_445 .
P2 O P1 84.83(15) 3_455 .
P1 O P1 142.87(7) 7_556 .
P1 O P1 142.87(7) 7_546 .
Au O P1 97.08(14) 5_656 .
Au O P1 174.12(18) 1_556 .
O O P1 90.0 1_565 .
O O P1 90.0 1_545 .
Pr2 O P1 36.32(5) 7_546 .
Pr2 O P1 36.32(5) 7_556 .
P1 O P1 108.94(12) 3_556 .
P1 O P1 108.94(12) 3_546 .
Pr2 O P1 109.23(9) 1_545 .
Pr2 O P1 109.23(9) 1_565 .
Pr1 O P1 63.82(7) 1_545 .
Pr1 O P1 63.82(7) 1_565 .
Au O P1 58.00(8) 3_445 .
Au O P1 58.00(8) 3_455 .
P2 O P1 104.02(12) 7_546 .
P2 O P1 104.02(12) 7_556 .
Pr2 O Pr2 50.56(14) . 5_556
Pr1 O Pr2 116.82(15) 7_556 5_556
Pr1 O Pr2 116.82(15) 7_546 5_556
Pr1 O Pr2 55.78(14) . 5_556
O O Pr2 84.8(3) 7_546 5_556
O O Pr2 84.8(3) 7_556 5_556
P2 O Pr2 137.26(17) 5_656 5_556
P2 O Pr2 38.80(9) 3_445 5_556
P2 O Pr2 38.80(9) 3_455 5_556
P1 O Pr2 96.61(13) 7_556 5_556
P1 O Pr2 96.61(13) 7_546 5_556
Au O Pr2 179.19(17) 5_656 5_556
Au O Pr2 103.77(13) 1_556 5_556
O O Pr2 90.0 1_565 5_556
O O Pr2 90.0 1_545 5_556
Pr2 O Pr2 105.27(12) 7_546 5_556
Pr2 O Pr2 105.27(12) 7_556 5_556
P1 O Pr2 150.52(7) 3_556 5_556
P1 O Pr2 150.52(7) 3_546 5_556
Pr2 O Pr2 72.02(8) 1_545 5_556
Pr2 O Pr2 72.02(8) 1_565 5_556
Pr1 O Pr2 73.93(8) 1_545 5_556
Pr1 O Pr2 73.93(8) 1_565 5_556
Au O Pr2 37.41(5) 3_445 5_556
Au O Pr2 37.41(5) 3_455 5_556
P2 O Pr2 34.18(5) 7_546 5_556
P2 O Pr2 34.18(5) 7_556 5_556
P1 O Pr2 82.11(11) . 5_556
Pr2 O Au 24.04(3) . 7_546
Pr1 O Au 130.23(18) 7_556 7_546
Pr1 O Au 85.84(12) 7_546 7_546
Pr1 O Au 108.14(18) . 7_546
O O Au 100.97(19) 7_546 7_546
O O Au 139.3(3) 7_556 7_546
P2 O Au 153.77(8) 5_656 7_546
P2 O Au 46.90(10) 3_445 7_546
P2 O Au 79.75(13) 3_455 7_546
P1 O Au 73.76(11) 7_556 7_546
P1 O Au 39.95(8) 7_546 7_546
Au O Au 123.14(14) 5_656 7_546
Au O Au 53.68(7) 1_556 7_546
O O Au 113.79(3) 1_565 7_546
O O Au 66.21(3) 1_545 7_546
Pr2 O Au 125.95(5) 7_546 7_546
Pr2 O Au 162.83(16) 7_556 7_546
P1 O Au 119.57(13) 3_556 7_546
P1 O Au 97.66(9) 3_546 7_546
Pr2 O Au 37.22(4) 1_545 7_546
Pr2 O Au 84.77(9) 1_565 7_546
Pr1 O Au 78.59(6) 1_545 7_546
Pr1 O Au 120.29(12) 1_565 7_546
Au O Au 73.38(8) 3_445 7_546
Au O Au 93.67(11) 3_455 7_546
P2 O Au 27.84(5) 7_546 7_546
P2 O Au 57.60(7) 7_556 7_546
P1 O Au 131.35(13) . 7_546
Pr2 O Au 57.56(7) 5_556 7_546
loop_
_geom_bond_atom_site_label_1
_geom_bond_atom_site_label_2
_geom_bond_distance
_geom_bond_site_symmetry_2
Pr1 O 2.374(3) 7_556
Pr1 O 2.374(3) 7_546
Pr1 O 2.391(7) .
Pr1 P1 2.982(3) .
Pr1 P2 3.203(2) 3_455
Pr1 P2 3.203(2) 3_445
Pr1 P1 3.251(3) 5
Pr1 Au 3.2934(10) 3_445
Pr1 Au 3.2934(10) 3_455
Pr1 Pr1 3.6971(14) 7_556
Pr1 Pr1 3.6971(14) 7_546
Pr1 P2 3.707(3) 5_656
Pr1 Pr2 3.7952(12) .
Pr1 Pr2 3.8572(9) 7_556
Pr1 Pr2 3.8572(9) 7_546
Pr1 Pr1 4.2277(8) 1_545
Pr1 Pr1 4.2277(8) 1_565
Pr1 Pr2 4.3205(14) 5_556
Pr1 Au 4.4708(10) 7_545
Pr1 Au 4.4708(10) 7
Pr1 Pr1 4.681(2) 5
Pr1 O 4.857(3) 1_565
Pr1 O 4.857(3) 1_545
Pr1 P2 5.073(3) 7_546
Pr1 P2 5.073(3) 7_556
Pr1 P1 5.1735(16) 1_545
Pr1 P1 5.1735(16) 1_565
Pr1 Au 5.302(2) 5_656
Pr1 P1 5.3331(19) 5_545
Pr1 P1 5.3331(19) 5_565
Pr2 O 2.350(6) .
Pr2 P2 2.975(2) 3_445
Pr2 P2 2.975(2) 3_455
Pr2 P1 2.994(2) 7_556
Pr2 P1 2.994(2) 7_546
Pr2 Au 3.1281(14) 1_556
Pr2 P1 3.200(3) 1_556
Pr2 Au 3.2387(7) 7_556
Pr2 Au 3.2387(7) 7_546
Pr2 P2 3.318(3) 7_546
Pr2 P2 3.318(3) 7_556
Pr2 Pr1 3.8571(9) 7_556
Pr2 Pr1 3.8571(9) 7_546
Pr2 Pr2 4.115(2) 5_556
Pr2 Pr2 4.2277(8) 1_565
Pr2 Pr2 4.2277(8) 1_545
Pr2 Pr1 4.3206(14) 5_556
Pr2 O 4.631(6) 7_546
Pr2 O 4.631(6) 7_556
Pr2 Pr2 4.6988(15) 7_557
Pr2 Pr2 4.6988(15) 7_547
Pr2 O 4.837(3) 1_565
Pr2 O 4.837(3) 1_545
Pr2 Au 5.0204(16) 3_445
Pr2 Au 5.0204(16) 3_455
Pr2 O 5.186(7) 5_556
Pr2 Au 5.2592(11) 1_566
Pr2 Au 5.2592(11) 1_546
Pr2 P1 5.3022(17) 1_566
Au P1 2.4101(12) 7_545
Au P1 2.4101(12) 7
Au P2 2.461(3) .
Au Pr2 3.1281(14) 1_554
Au Pr2 3.2386(7) 7_556
Au Pr2 3.2386(7) 7_546
Au Pr1 3.2934(10) 3
Au Pr1 3.2934(10) 3_545
Au P1 3.404(3) .
Au O 3.595(7) 5_656
Au P2 3.832(3) 5_656
Au O 3.906(6) 1_554
Au Au 4.2277(8) 1_565
Au Au 4.2277(8) 1_545
Au Au 4.2975(14) 7_545
Au Au 4.2975(14) 7
Au Pr1 4.4708(10) 7_545
Au Pr1 4.4708(10) 7
Au Au 4.6779(12) 5_655
Au P1 4.751(3) 3
Au P1 4.751(3) 3_545
Au O 4.870(6) 3
Au O 4.870(6) 3_545
Au P2 4.8919(17) 1_565
Au P2 4.8919(17) 1_545
Au Pr2 5.0204(16) 3
Au Pr2 5.0204(16) 3_545
Au O 5.240(6) 7_546
Au O 5.240(6) 7_556
Au Pr2 5.2591(11) 1_544
P1 Au 2.4101(12) 7_545
P1 Au 2.4101(12) 7
P1 Pr2 2.994(2) 7_556
P1 Pr2 2.994(2) 7_546
P1 Pr2 3.200(3) 1_554
P1 Pr1 3.251(3) 5
P1 O 3.502(5) 7_556
P1 O 3.502(5) 7_546
P1 P1 4.040(5) 7
P1 P1 4.040(5) 7_545
P1 P2 4.065(4) 5_656
P1 P1 4.124(5) 5
P1 P2 4.190(4) 7_545
P1 P2 4.190(4) 7
P1 P1 4.2277(8) 1_565
P1 P1 4.2277(8) 1_545
P1 P2 4.564(4) .
P1 O 4.735(7) 3_444
P1 O 4.735(7) 3_454
P1 Au 4.751(3) 3_445
P1 Au 4.751(3) 3_455
P1 O 4.930(7) .
P1 Pr1 5.1735(16) 1_565
P1 Pr1 5.1735(16) 1_545
P1 Pr2 5.3022(17) 1_544
P1 Pr2 5.3022(17) 1_564
P1 P2 5.310(4) 3_444
P1 P2 5.310(4) 3_454
P2 P2 2.215(6) 5_656
P2 Pr2 2.975(2) 3
P2 Pr2 2.975(2) 3_545
P2 Pr1 3.203(2) 3_545
P2 Pr1 3.203(2) 3
P2 O 3.208(7) 5_656
P2 Pr2 3.318(3) 7_546
P2 Pr2 3.318(3) 7_556
P2 O 3.375(6) 3
P2 O 3.375(6) 3_545
P2 Pr1 3.707(3) 5_656
P2 Au 3.832(3) 5_656
P2 P1 4.065(4) 5_656
P2 P1 4.190(4) 7_545
P2 P1 4.190(4) 7
P2 P2 4.2277(8) 1_565
P2 P2 4.2277(8) 1_545
P2 P2 4.773(3) 5_646
P2 P2 4.773(3) 5_666
P2 Au 4.8919(17) 1_545
P2 Au 4.8919(17) 1_565
P2 O 4.894(6) 7_546
P2 O 4.894(6) 7_556
P2 Pr1 5.073(3) 7_546
P2 Pr1 5.073(3) 7_556
P2 O 5.307(4) 5_666
P2 O 5.307(4) 5_646
P2 P1 5.310(4) 3_556
O Pr1 2.374(3) 7_556
O Pr1 2.374(3) 7_546
O O 3.006(9) 7_546
O O 3.006(9) 7_556
O P2 3.208(7) 5_656
O P2 3.375(6) 3_445
O P2 3.375(6) 3_455
O P1 3.502(5) 7_556
O P1 3.502(5) 7_546
O Au 3.595(7) 5_656
O Au 3.906(6) 1_556
O O 4.2277(8) 1_565
O O 4.2277(8) 1_545
O Pr2 4.631(6) 7_546
O Pr2 4.631(6) 7_556
O P1 4.735(7) 3_556
O P1 4.735(7) 3_546
O Pr2 4.837(3) 1_545
O Pr2 4.837(3) 1_565
O Pr1 4.857(3) 1_545
O Pr1 4.857(3) 1_565
O Au 4.870(6) 3_445
O Au 4.870(6) 3_455
O P2 4.894(6) 7_546
O P2 4.894(6) 7_556
O Pr2 5.186(7) 5_556
O Au 5.240(6) 7_546
