#------------------------------------------------------------------------------
#$Date: 2016-03-23 21:07:05 +0200 (Wed, 23 Mar 2016) $
#$Revision: 179440 $
#$URL: svn://www.crystallography.net/cod/cif/4/33/37/4333789.cif $
#------------------------------------------------------------------------------
#
# This file is available in the Crystallography Open Database (COD),
# http://www.crystallography.net/
#
# All data on this site have been placed in the public domain by the
# contributors.
#
data_4333789
loop_
_publ_author_name
'A. Demont'
'S. H\'ebert'
'J. H\"owing'
'Y. Br\'eard'
'D. Pelloquin'
_publ_contact_author_address
;
      Laboratoire CRISMAT
      6 Boulevard du Mar\'echal Juin
      14050 CAEN CEDEX 
      FRANCE
;
_publ_contact_author_email       antoine.demont@univ-rennes1.fr
_publ_contact_author_name        'Antoine Demont'
_publ_contact_author_phone       +33(0)223235875
_publ_section_title
;
 Large Oxygen Nonstoichiometry in La0.77Sr3.23Co2.75C0.25O8.40+\d Oxide
 (\d = 0, 1.3) Related to n= 3 RP Series
;
_journal_name_full               'Inorganic Chemistry'
_journal_page_first              1265
_journal_page_last               1274
_journal_paper_doi               10.1021/ic3017694
_journal_volume                  52
_journal_year                    2013
_chemical_formula_iupac          'Sr3.24 La0.76 Co2.81 C0.19 O18.14'
_chemical_formula_sum            'C0.36 Co5.64 La1.52 O19.14 Sr6.48'
_chemical_formula_weight         1421.85
_space_group_crystal_system      tetragonal
_space_group_IT_number           139
_space_group_name_Hall           '-I 4 2'
_space_group_name_H-M_alt        'I 4/m m m'
_symmetry_space_group_name_Hall  '-I 4 2'
_symmetry_space_group_name_H-M   'I 4/m m m'
_cell_angle_alpha                90.00000
_cell_angle_beta                 90.00000
_cell_angle_gamma                90.00000
_cell_formula_units_Z            1
_cell_length_a                   3.83187(7)
_cell_length_b                   3.83187(7)
_cell_length_c                   28.0582(7)
_cell_measurement_temperature    295
_cell_volume                     411.985(15)
_computing_structure_refinement  FULLPROF
_diffrn_ambient_temperature      295
_diffrn_radiation_probe          neutron
_diffrn_radiation_type           neutron
_diffrn_radiation_wavelength     1.558
_diffrn_source                   'nuclear reactor'
_exptl_absorpt_correction_type   cylinder
_exptl_absorpt_process_details
'D. Schmitt and B. Ouladdiaf, J. Appl. Cryst.31 (1998)620'
_exptl_crystal_density_diffrn    5.731
_pd_block_diffractogram_id       rp3srlaPo2
_pd_calc_method                  '   Rietveld Refinement'
_pd_char_colour                  black
_pd_meas_2theta_range_inc        0.050021
_pd_meas_2theta_range_max        129.95000
_pd_meas_2theta_range_min        10.30000
_pd_meas_number_of_points        2394
_pd_prep_temperature             295
_pd_proc_2theta_range_inc        0.050021
_pd_proc_2theta_range_max        129.9423
_pd_proc_2theta_range_min        10.2923
_pd_proc_ls_background_function  '   FullProf Background function number  '
_pd_proc_ls_peak_cutoff          0.00500
_pd_proc_ls_prof_R_factor        3.4024
_pd_proc_ls_prof_wR_expected     3.2324
_pd_proc_ls_prof_wR_factor       4.4345
_pd_proc_wavelength              1.558000
_refine_ls_number_parameters     33
_refine_ls_number_reflns         152
_refine_ls_number_restraints     0
_refine_ls_R_I_factor            3.8181
_refine_ls_shift/su_max          .01
_cod_data_source_file            ic3017694_si_002.cif
_cod_data_source_block           rp3srlaPo2
_cod_depositor_comments          'Adding Fobs data.'
_cod_original_cell_volume        411.986(14)
_cod_database_code               4333789
_cod_database_fobs_code          4333789
#BEGIN Tags that were not found in dictionaries:
_pd_proc_ls_prof_cr_factor       12.1258
_pd_proc_ls_prof_cwr_factor      10.8838
_pd_proc_ls_prof_cwr_expected    7.9336
_pd_proc_ls_prof_chi2            1.8820
_pd_proc_ls_prof_echi2           1.8820
#END Tags that were not found in dictionaries
loop_
_symmetry_equiv_pos_site_id
_symmetry_equiv_pos_as_xyz
1 x,y,z
2 -y,x,z
3 -x,-y,z
4 y,-x,z
5 -x,y,z
6 y,x,z
7 x,-y,z
8 -y,-x,z
9 -x,-y,-z
10 y,-x,-z
11 x,y,-z
12 -y,x,-z
13 x,-y,-z
14 -y,-x,-z
15 -x,y,-z
16 y,x,-z
17 x+1/2,y+1/2,z+1/2
18 -y+1/2,x+1/2,z+1/2
19 -x+1/2,-y+1/2,z+1/2
20 y+1/2,-x+1/2,z+1/2
21 -x+1/2,y+1/2,z+1/2
22 y+1/2,x+1/2,z+1/2
23 x+1/2,-y+1/2,z+1/2
24 -y+1/2,-x+1/2,z+1/2
25 -x+1/2,-y+1/2,-z+1/2
26 y+1/2,-x+1/2,-z+1/2
27 x+1/2,y+1/2,-z+1/2
28 -y+1/2,x+1/2,-z+1/2
29 x+1/2,-y+1/2,-z+1/2
30 -y+1/2,-x+1/2,-z+1/2
31 -x+1/2,y+1/2,-z+1/2
32 y+1/2,x+1/2,-z+1/2
loop_
_atom_site_label
_atom_site_fract_x
_atom_site_fract_y
_atom_site_fract_z
_atom_site_U_iso_or_equiv
_atom_site_occupancy
_atom_site_adp_type
_atom_site_type_symbol
O1 0.00000 0.00000 0.21138(12) 0.0146(9) 1.00000 Uiso O
Sr1 0.00000 0.00000 0.57026(11) 0.0106(10) 0.78(6) Uiso Sr
La1 0.00000 0.00000 0.57026(11) 0.0106(10) 0.22(6) Uiso La
Co1 0.00000 0.00000 0.00000 0.008(2) 0.822(9) Uiso Co
Co2 0.00000 0.00000 0.1412(2) 0.0057(13) 1.00000 Uiso Co
O2 0.00000 0.50000 0.13797(10) 0.0077(5) 1.00000 Uiso O
O3 0.00000 0.00000 0.0675(2) 0.0124(17) 0.792(17) Uiso O
C 0.00000 0.00000 0.00000 0.008(2) 0.178(9) Uiso C
Sr2 0.00000 0.00000 0.70078(9) 0.0039(9) 0.84(6) Uiso Sr
La2 0.00000 0.00000 0.70078(9) 0.0039(9) 0.16(6) Uiso La
O4 0.00000 0.50000 0.00000 0.043(2) 0.726(12) Uiso O
O23 0.068(7) 0.068(7) 0.0463(15) 0.020(9) 0.0444(12) Uiso O
O24 0.260(12) 0.260(12) 0.00000 0.020(9) 0.045(2) Uiso O
loop_
_atom_type_symbol
_atom_type_scat_length_neutron
_atom_type_scat_source
O 0.58030 V.F._Sears_Neutron_News_3_26_(1992)
Sr 0.70200 V.F._Sears_Neutron_News_3_26_(1992)
La 0.82400 V.F._Sears_Neutron_News_3_26_(1992)
Co 0.24900 V.F._Sears_Neutron_News_3_26_(1992)
C 0.66460 V.F._Sears_Neutron_News_3_26_(1992)
loop_
_geom_angle_atom_site_label_1
_geom_angle_atom_site_label_2
_geom_angle_atom_site_label_3
_geom_angle
_geom_angle_site_symmetry_1
_geom_angle_site_symmetry_3
O3 Co1 O3 180.0(5) . 2_555
O3 Co1 O4 90.0(2) . 3_545
O3 Co1 O4 90.0(2) . 4_555
O3 Co1 O4 90.0(2) . 5_555
O3 Co1 O4 90.0(2) . 6_655
O1 Co2 O2 92.7(2) . 3_555
O1 Co2 O2 92.7(2) . 4_555
O2 Co2 O2 89.872(13) 3_555 4_555
Co2 O2 Co2 174.584(13) . 2_565
loop_
_geom_bond_atom_site_label_1
_geom_bond_atom_site_label_2
_geom_bond_distance
_geom_bond_site_symmetry_2
Co1 O3 1.894(6) .
Co1 O3 1.894(6) 9_555
Co1 O4 1.91593(4) 1_545
Co1 O4 1.91593(4) .
Co1 O4 1.91593(4) 2_555
Co1 O4 1.91593(4) 2_655
Co2 O1 1.969(7) .
Co2 O2 1.9181(3) 1_545
Co2 O2 1.9181(3) .
Co2 O2 1.9181(3) 2_555
Co2 O2 1.9181(3) 2_655
C O23 1.35(4) .
C O23 1.35(4) 2_555
C O23 1.35(4) 3_555
C O23 1.35(4) 4_555
C O23 1.35(4) 9_555
C O23 1.35(4) 10_555
C O23 1.35(4) 11_555
C O23 1.35(4) 12_555
C O24 1.41(5) .
C O24 1.41(5) 2_555
C O24 1.41(5) 3_555
C O24 1.41(5) 4_555
