#------------------------------------------------------------------------------
#$Date: 2016-03-23 21:05:52 +0200 (Wed, 23 Mar 2016) $
#$Revision: 179439 $
#$URL: svn://www.crystallography.net/cod/cif/4/33/36/4333600.cif $
#------------------------------------------------------------------------------
#
# This file is available in the Crystallography Open Database (COD),
# http://www.crystallography.net/
#
# All data on this site have been placed in the public domain by the
# contributors.
#
data_4333600
loop_
_publ_author_name
'M. Falmbigl'
'F. Kneidinger'
'M. Chen'
'A. Grytsiv'
'H. Michor'
'E. Royanian'
'E. Bauer'
'H. Effenberger'
'R. Podloucky'
'P. Rogl'
_publ_section_title
;
 Cage-Forming Compounds in the Ba-Rh-Ge System: From Thermoelectrics to
 Superconductivity
;
_journal_name_full               'Inorganic Chemistry'
_journal_page_first              931
_journal_page_last               943
_journal_paper_doi               10.1021/ic302139r
_journal_volume                  52
_journal_year                    2013
_chemical_formula_sum            'Ba8 Ge45 Rh'
_chemical_formula_weight         4468.18
_chemical_name_systematic
; 
 ? 
;
_space_group_IT_number           223
_symmetry_cell_setting           cubic
_symmetry_space_group_name_Hall  '-P 4n 2 3'
_symmetry_space_group_name_H-M   'P m -3 n'
_atom_sites_solution_hydrogens   geom
_atom_sites_solution_primary     direct
_atom_sites_solution_secondary   difmap
_audit_creation_method           SHELXL-97
_cell_angle_alpha                90.00
_cell_angle_beta                 90.00
_cell_angle_gamma                90.00
_cell_formula_units_Z            1
_cell_length_a                   10.708(2)
_cell_length_b                   10.708(2)
_cell_length_c                   10.708(2)
_cell_measurement_temperature    573(2)
_cell_volume                     1227.8(4)
_computing_structure_refinement  'SHELXL-97 (Sheldrick, 1997)'
_computing_structure_solution    'SHELXS-97 (Sheldrick, 1990)'
_diffrn_ambient_temperature      573(2)
_diffrn_measured_fraction_theta_full 1.000
_diffrn_measured_fraction_theta_max 1.000
_diffrn_radiation_monochromator  graphite
_diffrn_radiation_source         'fine-focus sealed tube'
_diffrn_radiation_type           MoK\a
_diffrn_radiation_wavelength     0.71069
_diffrn_reflns_av_R_equivalents  0.0472
_diffrn_reflns_av_sigmaI/netI    0.0336
_diffrn_reflns_limit_h_max       17
_diffrn_reflns_limit_h_min       -17
_diffrn_reflns_limit_k_max       12
_diffrn_reflns_limit_k_min       -12
_diffrn_reflns_limit_l_max       11
_diffrn_reflns_limit_l_min       -11
_diffrn_reflns_number            1652
_diffrn_reflns_theta_full        34.95
_diffrn_reflns_theta_max         34.95
_diffrn_reflns_theta_min         2.69
_exptl_absorpt_coefficient_mu    33.660
_exptl_absorpt_correction_T_max  0.4317
_exptl_absorpt_correction_T_min  0.2839
_exptl_crystal_density_diffrn    6.043
_exptl_crystal_F_000             1933
_exptl_crystal_size_max          0.05
_exptl_crystal_size_mid          0.04
_exptl_crystal_size_min          0.03
_refine_diff_density_max         1.148
_refine_diff_density_min         -0.846
_refine_diff_density_rms         0.182
_refine_ls_extinction_coef       0.00023(6)
_refine_ls_extinction_expression Fc^*^=kFc[1+0.001xFc^2^\l^3^/sin(2\q)]^-1/4^
_refine_ls_extinction_method     SHELXL
_refine_ls_goodness_of_fit_ref   1.170
_refine_ls_hydrogen_treatment    mixed
_refine_ls_matrix_type           full
_refine_ls_number_parameters     24
_refine_ls_number_reflns         516
_refine_ls_number_restraints     0
_refine_ls_restrained_S_all      1.170
_refine_ls_R_factor_all          0.0654
_refine_ls_R_factor_gt           0.0279
_refine_ls_shift/su_max          0.000
_refine_ls_shift/su_mean         0.000
_refine_ls_structure_factor_coef Fsqd
_refine_ls_weighting_details
'calc w=1/[\s^2^(Fo^2^)+(0.0000P)^2^+6.9168P] where P=(Fo^2^+2Fc^2^)/3'
_refine_ls_weighting_scheme      calc
_refine_ls_wR_factor_gt          0.0402
_refine_ls_wR_factor_ref         0.0447
_reflns_number_gt                341
_reflns_number_total             516
_reflns_threshold_expression     >2sigma(I)
_cod_data_source_file            ic302139r_si_002_3.cif
_cod_data_source_block           k1_300K
_cod_database_code               4333600
loop_
_symmetry_equiv_pos_as_xyz
'x, y, z'
'-x, -y, z'
'-x, y, -z'
'x, -y, -z'
'z, x, y'
'z, -x, -y'
'-z, -x, y'
'-z, x, -y'
'y, z, x'
'-y, z, -x'
'y, -z, -x'
'-y, -z, x'
'y+1/2, x+1/2, -z+1/2'
'-y+1/2, -x+1/2, -z+1/2'
'y+1/2, -x+1/2, z+1/2'
'-y+1/2, x+1/2, z+1/2'
'x+1/2, z+1/2, -y+1/2'
'-x+1/2, z+1/2, y+1/2'
'-x+1/2, -z+1/2, -y+1/2'
'x+1/2, -z+1/2, y+1/2'
'z+1/2, y+1/2, -x+1/2'
'z+1/2, -y+1/2, x+1/2'
'-z+1/2, y+1/2, x+1/2'
'-z+1/2, -y+1/2, -x+1/2'
'-x, -y, -z'
'x, y, -z'
'x, -y, z'
'-x, y, z'
'-z, -x, -y'
'-z, x, y'
'z, x, -y'
'z, -x, y'
'-y, -z, -x'
'y, -z, x'
'-y, z, x'
'y, z, -x'
'-y-1/2, -x-1/2, z-1/2'
'y-1/2, x-1/2, z-1/2'
'-y-1/2, x-1/2, -z-1/2'
'y-1/2, -x-1/2, -z-1/2'
'-x-1/2, -z-1/2, y-1/2'
'x-1/2, -z-1/2, -y-1/2'
'x-1/2, z-1/2, y-1/2'
'-x-1/2, z-1/2, -y-1/2'
'-z-1/2, -y-1/2, x-1/2'
'-z-1/2, y-1/2, -x-1/2'
'z-1/2, -y-1/2, -x-1/2'
'z-1/2, y-1/2, x-1/2'
loop_
_atom_site_label
_atom_site_type_symbol
_atom_site_fract_x
_atom_site_fract_y
_atom_site_fract_z
_atom_site_U_iso_or_equiv
_atom_site_adp_type
_atom_site_occupancy
_atom_site_symmetry_multiplicity
_atom_site_calc_flag
_atom_site_refinement_flags
Ba1 Ba 0.0000 0.0000 0.0000 0.0151(2) Uani 1 24 d S
Ba2 Ba 0.2500 0.0000 0.5000 0.0422(3) Uani 1 8 d S
Rh1 Rh 0.2500 0.5000 0.0000 0.0151(6) Uani 0.20 8 d SP
Ge2 Ge 0.2500 0.5000 0.0000 0.0151(6) Uani 0.457(6) 8 d SP
Ge1 Ge 0.18364(4) 0.18364(4) 0.18364(4) 0.01769(18) Uani 1 3 d S
Ge3 Ge 0.0000 0.1156(12) 0.3092(12) 0.0174(10) Uani 0.64(7) 2 d SP
Ge4 Ge 0.0000 0.1334(19) 0.335(3) 0.0223(18) Uani 0.36(7) 2 d SP
loop_
_atom_site_aniso_label
_atom_site_aniso_U_11
_atom_site_aniso_U_22
_atom_site_aniso_U_33
_atom_site_aniso_U_23
_atom_site_aniso_U_13
_atom_site_aniso_U_12
Ba1 0.0151(2) 0.0151(2) 0.0151(2) 0.000 0.000 0.000
Ba2 0.0269(5) 0.0499(4) 0.0499(4) 0.000 0.000 0.000
Rh1 0.0184(10) 0.0134(7) 0.0134(7) 0.000 0.000 0.000
Ge2 0.0184(10) 0.0134(7) 0.0134(7) 0.000 0.000 0.000
Ge1 0.01769(18) 0.01769(18) 0.01769(18) -0.00286(16) -0.00286(16) -0.00286(16)
Ge3 0.0163(8) 0.0191(19) 0.017(2) 0.0004(12) 0.000 0.000
Ge4 0.0192(15) 0.022(3) 0.025(5) -0.003(3) 0.000 0.000
loop_
_atom_type_symbol
_atom_type_description
_atom_type_scat_dispersion_real
_atom_type_scat_dispersion_imag
_atom_type_scat_source
Ba Ba -0.3244 2.2819 'International Tables Vol C Tables 4.2.6.8 and 6.1.1.4'
Rh Rh -1.1178 0.9187 'International Tables Vol C Tables 4.2.6.8 and 6.1.1.4'
Ge Ge 0.1547 1.8001 'International Tables Vol C Tables 4.2.6.8 and 6.1.1.4'
loop_
_geom_angle_atom_site_label_1
_geom_angle_atom_site_label_2
_geom_angle_atom_site_label_3
_geom_angle
_geom_angle_site_symmetry_1
_geom_angle_site_symmetry_3
Ge1 Ba1 Ge1 180.00(2) 25 .
Ge1 Ba1 Ge1 109.5 25 28
Ge1 Ba1 Ge1 70.5 . 28
Ge1 Ba1 Ge1 70.5 25 4
Ge1 Ba1 Ge1 109.5 . 4
Ge1 Ba1 Ge1 180.00(2) 28 4
Ge1 Ba1 Ge1 109.5 25 27
Ge1 Ba1 Ge1 70.5 . 27
Ge1 Ba1 Ge1 109.5 28 27
Ge1 Ba1 Ge1 70.5 4 27
Ge1 Ba1 Ge1 70.5 25 3
Ge1 Ba1 Ge1 109.5 . 3
Ge1 Ba1 Ge1 70.5 28 3
Ge1 Ba1 Ge1 109.5 4 3
Ge1 Ba1 Ge1 180.00(3) 27 3
Ge1 Ba1 Ge1 109.5 25 26
Ge1 Ba1 Ge1 70.5 . 26
Ge1 Ba1 Ge1 109.5 28 26
Ge1 Ba1 Ge1 70.5 4 26
Ge1 Ba1 Ge1 109.5 27 26
Ge1 Ba1 Ge1 70.5 3 26
Ge1 Ba1 Ge1 70.5 25 2
Ge1 Ba1 Ge1 109.5 . 2
Ge1 Ba1 Ge1 70.5 28 2
Ge1 Ba1 Ge1 109.5 4 2
Ge1 Ba1 Ge1 70.5 27 2
Ge1 Ba1 Ge1 109.5 3 2
Ge1 Ba1 Ge1 180.00(3) 26 2
Ge1 Ba1 Ge3 42.01(8) 25 33
Ge1 Ba1 Ge3 137.99(8) . 33
Ge1 Ba1 Ge3 109.79(12) 28 33
Ge1 Ba1 Ge3 70.21(12) 4 33
Ge1 Ba1 Ge3 70.21(12) 27 33
Ge1 Ba1 Ge3 109.79(12) 3 33
Ge1 Ba1 Ge3 137.99(8) 26 33
Ge1 Ba1 Ge3 42.01(8) 2 33
Ge1 Ba1 Ge3 137.99(8) 25 9
Ge1 Ba1 Ge3 42.01(8) . 9
Ge1 Ba1 Ge3 70.21(12) 28 9
Ge1 Ba1 Ge3 109.79(12) 4 9
Ge1 Ba1 Ge3 109.79(12) 27 9
Ge1 Ba1 Ge3 70.21(12) 3 9
Ge1 Ba1 Ge3 42.01(8) 26 9
Ge1 Ba1 Ge3 137.99(8) 2 9
Ge3 Ba1 Ge3 180.00(15) 33 9
Ge1 Ba1 Ge3 42.01(8) 25 29
Ge1 Ba1 Ge3 137.99(8) . 29
Ge1 Ba1 Ge3 70.21(12) 28 29
Ge1 Ba1 Ge3 109.79(12) 4 29
Ge1 Ba1 Ge3 137.99(8) 27 29
Ge1 Ba1 Ge3 42.01(8) 3 29
Ge1 Ba1 Ge3 109.79(12) 26 29
Ge1 Ba1 Ge3 70.21(12) 2 29
Ge3 Ba1 Ge3 70.85(12) 33 29
Ge3 Ba1 Ge3 109.15(12) 9 29
Ge1 Ba1 Ge3 137.99(8) 25 5
Ge1 Ba1 Ge3 42.01(8) . 5
Ge1 Ba1 Ge3 109.79(12) 28 5
Ge1 Ba1 Ge3 70.21(12) 4 5
Ge1 Ba1 Ge3 42.01(8) 27 5
Ge1 Ba1 Ge3 137.99(8) 3 5
Ge1 Ba1 Ge3 70.21(12) 26 5
Ge1 Ba1 Ge3 109.79(12) 2 5
Ge3 Ba1 Ge3 109.15(12) 33 5
Ge3 Ba1 Ge3 70.85(12) 9 5
Ge3 Ba1 Ge3 180.0(5) 29 5
Ge4 Ba2 Ge4 172.1(11) 41_666 2
Ge4 Ba2 Ge4 48.0(8) 41_666 42_666
Ge4 Ba2 Ge4 125.5(3) 2 42_666
Ge4 Ba2 Ge4 125.5(3) 41_666 .
Ge4 Ba2 Ge4 48.0(8) 2 .
Ge4 Ba2 Ge4 99.8(4) 42_666 .
Ge4 Ba2 Ge4 60.5(10) 41_666 18_545
Ge4 Ba2 Ge4 125.5(3) 2 18_545
Ge4 Ba2 Ge4 80.7(5) 42_666 18_545
Ge4 Ba2 Ge4 172.1(11) . 18_545
Ge4 Ba2 Ge4 125.5(3) 41_666 25_556
Ge4 Ba2 Ge4 60.5(10) 2 25_556
Ge4 Ba2 Ge4 172.1(11) 42_666 25_556
Ge4 Ba2 Ge4 80.7(5) . 25_556
Ge4 Ba2 Ge4 99.8(4) 18_545 25_556
Ge4 Ba2 Ge4 80.7(5) 41_666 17_545
Ge4 Ba2 Ge4 99.8(4) 2 17_545
Ge4 Ba2 Ge4 60.5(10) 42_666 17_545
Ge4 Ba2 Ge4 125.5(3) . 17_545
Ge4 Ba2 Ge4 48.0(8) 18_545 17_545
Ge4 Ba2 Ge4 125.5(3) 25_556 17_545
Ge4 Ba2 Ge4 99.8(4) 41_666 26_556
Ge4 Ba2 Ge4 80.7(5) 2 26_556
Ge4 Ba2 Ge4 125.5(3) 42_666 26_556
Ge4 Ba2 Ge4 60.5(10) . 26_556
Ge4 Ba2 Ge4 125.5(3) 18_545 26_556
Ge4 Ba2 Ge4 48.0(8) 25_556 26_556
Ge4 Ba2 Ge4 172.1(11) 17_545 26_556
Ge4 Ba2 Ge3 5.2(3) 41_666 41_666
Ge4 Ba2 Ge3 166.9(8) 2 41_666
Ge4 Ba2 Ge3 44.3(6) 42_666 41_666
Ge4 Ba2 Ge3 120.72(19) . 41_666
Ge4 Ba2 Ge3 65.1(7) 18_545 41_666
Ge4 Ba2 Ge3 128.8(4) 25_556 41_666
Ge4 Ba2 Ge3 81.9(3) 17_545 41_666
Ge4 Ba2 Ge3 99.38(10) 26_556 41_666
Ge4 Ba2 Ge3 166.9(8) 41_666 2
Ge4 Ba2 Ge3 5.2(3) 2 2
Ge4 Ba2 Ge3 120.72(19) 42_666 2
Ge4 Ba2 Ge3 44.3(6) . 2
Ge4 Ba2 Ge3 128.8(4) 18_545 2
Ge4 Ba2 Ge3 65.1(7) 25_556 2
Ge4 Ba2 Ge3 99.38(10) 17_545 2
Ge4 Ba2 Ge3 81.9(3) 26_556 2
Ge3 Ba2 Ge3 161.7(5) 41_666 2
Ge4 Ba2 Ge3 128.8(4) 41_666 .
Ge4 Ba2 Ge3 44.3(6) 2 .
Ge4 Ba2 Ge3 99.38(10) 42_666 .
Ge4 Ba2 Ge3 5.2(3) . .
Ge4 Ba2 Ge3 166.9(8) 18_545 .
Ge4 Ba2 Ge3 81.9(3) 25_556 .
Ge4 Ba2 Ge3 120.72(19) 17_545 .
Ge4 Ba2 Ge3 65.1(7) 26_556 .
Ge3 Ba2 Ge3 123.83(12) 41_666 .
Ge3 Ba2 Ge3 40.4(4) 2 .
Ge4 Ba2 Ge3 44.3(6) 41_666 42_666
Ge4 Ba2 Ge3 128.8(4) 2 42_666
Ge4 Ba2 Ge3 5.2(3) 42_666 42_666
Ge4 Ba2 Ge3 99.38(10) . 42_666
Ge4 Ba2 Ge3 81.9(3) 18_545 42_666
Ge4 Ba2 Ge3 166.9(8) 25_556 42_666
Ge4 Ba2 Ge3 65.1(7) 17_545 42_666
Ge4 Ba2 Ge3 120.72(19) 26_556 42_666
Ge3 Ba2 Ge3 40.4(4) 41_666 42_666
Ge3 Ba2 Ge3 123.83(12) 2 42_666
Ge3 Ba2 Ge3 99.42(19) . 42_666
Ge4 Ba2 Ge3 65.1(7) 41_666 18_545
Ge4 Ba2 Ge3 120.72(19) 2 18_545
Ge4 Ba2 Ge3 81.9(3) 42_666 18_545
Ge4 Ba2 Ge3 166.9(8) . 18_545
Ge4 Ba2 Ge3 5.2(3) 18_545 18_545
Ge4 Ba2 Ge3 99.38(10) 25_556 18_545
Ge4 Ba2 Ge3 44.3(6) 17_545 18_545
Ge4 Ba2 Ge3 128.8(4) 26_556 18_545
Ge3 Ba2 Ge3 69.4(4) 41_666 18_545
Ge3 Ba2 Ge3 123.83(12) 2 18_545
Ge3 Ba2 Ge3 161.7(5) . 18_545
Ge3 Ba2 Ge3 83.5(2) 42_666 18_545
Ge4 Ba2 Ge3 120.72(19) 41_666 25_556
Ge4 Ba2 Ge3 65.1(7) 2 25_556
Ge4 Ba2 Ge3 166.9(8) 42_666 25_556
Ge4 Ba2 Ge3 81.9(3) . 25_556
Ge4 Ba2 Ge3 99.38(10) 18_545 25_556
Ge4 Ba2 Ge3 5.2(3) 25_556 25_556
Ge4 Ba2 Ge3 128.8(4) 17_545 25_556
Ge4 Ba2 Ge3 44.3(6) 26_556 25_556
Ge3 Ba2 Ge3 123.83(12) 41_666 25_556
Ge3 Ba2 Ge3 69.4(4) 2 25_556
Ge3 Ba2 Ge3 83.5(2) . 25_556
Ge3 Ba2 Ge3 161.7(5) 42_666 25_556
Ge3 Ba2 Ge3 99.42(19) 18_545 25_556
Ge4 Ba2 Ge3 81.9(3) 41_666 17_545
Ge4 Ba2 Ge3 99.38(10) 2 17_545
Ge4 Ba2 Ge3 65.1(7) 42_666 17_545
Ge4 Ba2 Ge3 128.8(4) . 17_545
Ge4 Ba2 Ge3 44.3(6) 18_545 17_545
Ge4 Ba2 Ge3 120.72(19) 25_556 17_545
Ge4 Ba2 Ge3 5.2(3) 17_545 17_545
Ge4 Ba2 Ge3 166.9(8) 26_556 17_545
Ge3 Ba2 Ge3 83.5(2) 41_666 17_545
Ge3 Ba2 Ge3 99.42(19) 2 17_545
Ge3 Ba2 Ge3 123.83(12) . 17_545
Ge3 Ba2 Ge3 69.4(4) 42_666 17_545
Ge3 Ba2 Ge3 40.4(4) 18_545 17_545
Ge3 Ba2 Ge3 123.83(12) 25_556 17_545
Ge4 Ba2 Ge3 99.38(10) 41_666 26_556
Ge4 Ba2 Ge3 81.9(3) 2 26_556
Ge4 Ba2 Ge3 128.8(4) 42_666 26_556
Ge4 Ba2 Ge3 65.1(7) . 26_556
Ge4 Ba2 Ge3 120.72(19) 18_545 26_556
Ge4 Ba2 Ge3 44.3(6) 25_556 26_556
Ge4 Ba2 Ge3 166.9(8) 17_545 26_556
Ge4 Ba2 Ge3 5.2(3) 26_556 26_556
Ge3 Ba2 Ge3 99.42(19) 41_666 26_556
Ge3 Ba2 Ge3 83.5(2) 2 26_556
Ge3 Ba2 Ge3 69.4(4) . 26_556
Ge3 Ba2 Ge3 123.83(12) 42_666 26_556
Ge3 Ba2 Ge3 123.83(12) 18_545 26_556
Ge3 Ba2 Ge3 40.4(4) 25_556 26_556
Ge3 Ba2 Ge3 161.7(5) 17_545 26_556
Ge4 Ba2 Ge2 34.3(6) 41_666 33_656
Ge4 Ba2 Ge2 153.5(5) 2 33_656
Ge4 Ba2 Ge2 75.4(2) 42_666 33_656
Ge4 Ba2 Ge2 153.5(5) . 33_656
Ge4 Ba2 Ge2 34.3(6) 18_545 33_656
Ge4 Ba2 Ge2 100.5(4) 25_556 33_656
Ge4 Ba2 Ge2 75.4(2) 17_545 33_656
Ge4 Ba2 Ge2 100.5(4) 26_556 33_656
Ge3 Ba2 Ge2 39.5(3) 41_666 33_656
Ge3 Ba2 Ge2 158.5(3) 2 33_656
Ge3 Ba2 Ge2 158.5(3) . 33_656
Ge3 Ba2 Ge2 73.53(15) 42_666 33_656
Ge3 Ba2 Ge2 39.5(3) 18_545 33_656
Ge3 Ba2 Ge2 97.18(16) 25_556 33_656
Ge3 Ba2 Ge2 73.53(15) 17_545 33_656
Ge3 Ba2 Ge2 97.18(16) 26_556 33_656
Ge4 Ba2 Ge2 153.5(5) 41_666 29_556
Ge4 Ba2 Ge2 34.3(6) 2 29_556
Ge4 Ba2 Ge2 153.5(5) 42_666 29_556
Ge4 Ba2 Ge2 75.4(2) . 29_556
Ge4 Ba2 Ge2 100.5(4) 18_545 29_556
Ge4 Ba2 Ge2 34.3(6) 25_556 29_556
Ge4 Ba2 Ge2 100.5(4) 17_545 29_556
Ge4 Ba2 Ge2 75.4(2) 26_556 29_556
Ge3 Ba2 Ge2 158.5(3) 41_666 29_556
Ge3 Ba2 Ge2 39.5(3) 2 29_556
Ge3 Ba2 Ge2 73.53(15) . 29_556
Ge3 Ba2 Ge2 158.5(3) 42_666 29_556
Ge3 Ba2 Ge2 97.18(16) 18_545 29_556
Ge3 Ba2 Ge2 39.5(3) 25_556 29_556
Ge3 Ba2 Ge2 97.18(16) 17_545 29_556
Ge3 Ba2 Ge2 73.53(15) 26_556 29_556
Ge2 Ba2 Ge2 120.0 33_656 29_556
Ge4 Ba2 Rh1 34.3(6) 41_666 33_656
Ge4 Ba2 Rh1 153.5(5) 2 33_656
Ge4 Ba2 Rh1 75.4(2) 42_666 33_656
Ge4 Ba2 Rh1 153.5(5) . 33_656
Ge4 Ba2 Rh1 34.3(6) 18_545 33_656
Ge4 Ba2 Rh1 100.5(4) 25_556 33_656
Ge4 Ba2 Rh1 75.4(2) 17_545 33_656
Ge4 Ba2 Rh1 100.5(4) 26_556 33_656
Ge3 Ba2 Rh1 39.5(3) 41_666 33_656
Ge3 Ba2 Rh1 158.5(3) 2 33_656
Ge3 Ba2 Rh1 158.5(3) . 33_656
Ge3 Ba2 Rh1 73.53(15) 42_666 33_656
Ge3 Ba2 Rh1 39.5(3) 18_545 33_656
Ge3 Ba2 Rh1 97.18(16) 25_556 33_656
Ge3 Ba2 Rh1 73.53(15) 17_545 33_656
Ge3 Ba2 Rh1 97.18(16) 26_556 33_656
Ge2 Ba2 Rh1 0.0 33_656 33_656
Ge2 Ba2 Rh1 120.0 29_556 33_656
Ge4 Ba2 Rh1 153.5(5) 41_666 29_556
Ge4 Ba2 Rh1 34.3(6) 2 29_556
Ge4 Ba2 Rh1 153.5(5) 42_666 29_556
Ge4 Ba2 Rh1 75.4(2) . 29_556
Ge4 Ba2 Rh1 100.5(4) 18_545 29_556
Ge4 Ba2 Rh1 34.3(6) 25_556 29_556
Ge4 Ba2 Rh1 100.5(4) 17_545 29_556
Ge4 Ba2 Rh1 75.4(2) 26_556 29_556
Ge3 Ba2 Rh1 158.5(3) 41_666 29_556
Ge3 Ba2 Rh1 39.5(3) 2 29_556
Ge3 Ba2 Rh1 73.53(15) . 29_556
Ge3 Ba2 Rh1 158.5(3) 42_666 29_556
Ge3 Ba2 Rh1 97.18(16) 18_545 29_556
Ge3 Ba2 Rh1 39.5(3) 25_556 29_556
Ge3 Ba2 Rh1 97.18(16) 17_545 29_556
Ge3 Ba2 Rh1 73.53(15) 26_556 29_556
Ge2 Ba2 Rh1 120.0 33_656 29_556
Ge2 Ba2 Rh1 0.0 29_556 29_556
Rh1 Ba2 Rh1 120.0 33_656 29_556
Ge4 Ba2 Ge2 75.4(2) 41_666 9
Ge4 Ba2 Ge2 100.5(4) 2 9
Ge4 Ba2 Ge2 34.3(6) 42_666 9
Ge4 Ba2 Ge2 100.5(4) . 9
Ge4 Ba2 Ge2 75.4(2) 18_545 9
Ge4 Ba2 Ge2 153.5(5) 25_556 9
Ge4 Ba2 Ge2 34.3(6) 17_545 9
Ge4 Ba2 Ge2 153.5(5) 26_556 9
Ge3 Ba2 Ge2 73.53(15) 41_666 9
Ge3 Ba2 Ge2 97.18(16) 2 9
Ge3 Ba2 Ge2 97.18(16) . 9
Ge3 Ba2 Ge2 39.5(3) 42_666 9
Ge3 Ba2 Ge2 73.53(15) 18_545 9
Ge3 Ba2 Ge2 158.5(3) 25_556 9
Ge3 Ba2 Ge2 39.5(3) 17_545 9
Ge3 Ba2 Ge2 158.5(3) 26_556 9
Ge2 Ba2 Ge2 90.0 33_656 9
Ge2 Ba2 Ge2 120.0 29_556 9
Rh1 Ba2 Ge2 90.0 33_656 9
Rh1 Ba2 Ge2 120.0 29_556 9
Ge4 Ba2 Rh1 75.4(2) 41_666 9
Ge4 Ba2 Rh1 100.5(4) 2 9
Ge4 Ba2 Rh1 34.3(6) 42_666 9
Ge4 Ba2 Rh1 100.5(4) . 9
Ge4 Ba2 Rh1 75.4(2) 18_545 9
Ge4 Ba2 Rh1 153.5(5) 25_556 9
Ge4 Ba2 Rh1 34.3(6) 17_545 9
Ge4 Ba2 Rh1 153.5(5) 26_556 9
Ge3 Ba2 Rh1 73.53(15) 41_666 9
Ge3 Ba2 Rh1 97.18(16) 2 9
Ge3 Ba2 Rh1 97.18(16) . 9
Ge3 Ba2 Rh1 39.5(3) 42_666 9
Ge3 Ba2 Rh1 73.53(15) 18_545 9
Ge3 Ba2 Rh1 158.5(3) 25_556 9
Ge3 Ba2 Rh1 39.5(3) 17_545 9
Ge3 Ba2 Rh1 158.5(3) 26_556 9
Ge2 Ba2 Rh1 90.0 33_656 9
Ge2 Ba2 Rh1 120.0 29_556 9
Rh1 Ba2 Rh1 90.0 33_656 9
Rh1 Ba2 Rh1 120.0 29_556 9
Ge2 Ba2 Rh1 0.0 9 9
Ge4 Ba2 Ge2 100.5(4) 41_666 5
Ge4 Ba2 Ge2 75.4(2) 2 5
Ge4 Ba2 Ge2 100.5(4) 42_666 5
Ge4 Ba2 Ge2 34.3(6) . 5
Ge4 Ba2 Ge2 153.5(5) 18_545 5
Ge4 Ba2 Ge2 75.4(2) 25_556 5
Ge4 Ba2 Ge2 153.5(5) 17_545 5
Ge4 Ba2 Ge2 34.3(6) 26_556 5
Ge3 Ba2 Ge2 97.18(16) 41_666 5
Ge3 Ba2 Ge2 73.53(15) 2 5
Ge3 Ba2 Ge2 39.5(3) . 5
Ge3 Ba2 Ge2 97.18(16) 42_666 5
Ge3 Ba2 Ge2 158.5(3) 18_545 5
Ge3 Ba2 Ge2 73.53(15) 25_556 5
Ge3 Ba2 Ge2 158.5(3) 17_545 5
Ge3 Ba2 Ge2 39.5(3) 26_556 5
Ge2 Ba2 Ge2 120.0 33_656 5
Ge2 Ba2 Ge2 90.0 29_556 5
Rh1 Ba2 Ge2 120.0 33_656 5
Rh1 Ba2 Ge2 90.0 29_556 5
Ge2 Ba2 Ge2 120.0 9 5
Rh1 Ba2 Ge2 120.0 9 5
Ge4 Ba2 Rh1 100.5(4) 41_666 5
Ge4 Ba2 Rh1 75.4(2) 2 5
Ge4 Ba2 Rh1 100.5(4) 42_666 5
Ge4 Ba2 Rh1 34.3(6) . 5
Ge4 Ba2 Rh1 153.5(5) 18_545 5
Ge4 Ba2 Rh1 75.4(2) 25_556 5
Ge4 Ba2 Rh1 153.5(5) 17_545 5
Ge4 Ba2 Rh1 34.3(6) 26_556 5
Ge3 Ba2 Rh1 97.18(16) 41_666 5
Ge3 Ba2 Rh1 73.53(15) 2 5
Ge3 Ba2 Rh1 39.5(3) . 5
Ge3 Ba2 Rh1 97.18(16) 42_666 5
Ge3 Ba2 Rh1 158.5(3) 18_545 5
Ge3 Ba2 Rh1 73.53(15) 25_556 5
Ge3 Ba2 Rh1 158.5(3) 17_545 5
Ge3 Ba2 Rh1 39.5(3) 26_556 5
Ge2 Ba2 Rh1 120.0 33_656 5
Ge2 Ba2 Rh1 90.0 29_556 5
Rh1 Ba2 Rh1 120.0 33_656 5
Rh1 Ba2 Rh1 90.0 29_556 5
Ge2 Ba2 Rh1 120.0 9 5
Rh1 Ba2 Rh1 120.0 9 5
Ge2 Ba2 Rh1 0.0 5 5
Ge4 Ba2 Ge1 40.0(3) 41_666 37_666
Ge4 Ba2 Ge1 137.0(2) 2 37_666
Ge4 Ba2 Ge1 68.6(5) 42_666 37_666
Ge4 Ba2 Ge1 92.2(5) . 37_666
Ge4 Ba2 Ge1 95.3(6) 18_545 37_666
Ge4 Ba2 Ge1 103.5(5) 25_556 37_666
Ge4 Ba2 Ge1 119.6(3) 17_545 37_666
Ge4 Ba2 Ge1 62.68(19) 26_556 37_666
Ge3 Ba2 Ge1 37.98(10) 41_666 37_666
Ge3 Ba2 Ge1 135.08(15) 2 37_666
Ge3 Ba2 Ge1 96.9(2) . 37_666
Ge3 Ba2 Ge1 63.4(3) 42_666 37_666
Ge3 Ba2 Ge1 100.4(2) 18_545 37_666
Ge3 Ba2 Ge1 98.4(3) 25_556 37_666
Ge3 Ba2 Ge1 121.46(10) 17_545 37_666
Ge3 Ba2 Ge1 63.78(12) 26_556 37_666
Ge2 Ba2 Ge1 61.608(2) 33_656 37_666
Ge2 Ba2 Ge1 136.715(9) 29_556 37_666
Rh1 Ba2 Ge1 61.608(2) 33_656 37_666
Rh1 Ba2 Ge1 136.715(9) 29_556 37_666
Ge2 Ba2 Ge1 102.888(9) 9 37_666
Rh1 Ba2 Ge1 102.888(9) 9 37_666
Ge2 Ba2 Ge1 61.608(2) 5 37_666
Rh1 Ba2 Ge1 61.608(2) 5 37_666
Ge4 Ba2 Ge1 137.0(2) 41_666 27
Ge4 Ba2 Ge1 40.0(3) 2 27
Ge4 Ba2 Ge1 92.2(5) 42_666 27
Ge4 Ba2 Ge1 68.6(5) . 27
Ge4 Ba2 Ge1 103.5(5) 18_545 27
Ge4 Ba2 Ge1 95.3(6) 25_556 27
Ge4 Ba2 Ge1 62.68(19) 17_545 27
Ge4 Ba2 Ge1 119.6(3) 26_556 27
Ge3 Ba2 Ge1 135.08(15) 41_666 27
Ge3 Ba2 Ge1 37.98(10) 2 27
Ge3 Ba2 Ge1 63.4(3) . 27
Ge3 Ba2 Ge1 96.9(2) 42_666 27
Ge3 Ba2 Ge1 98.4(3) 18_545 27
Ge3 Ba2 Ge1 100.4(2) 25_556 27
Ge3 Ba2 Ge1 63.78(12) 17_545 27
Ge3 Ba2 Ge1 121.46(10) 26_556 27
Ge2 Ba2 Ge1 136.715(9) 33_656 27
Ge2 Ba2 Ge1 61.608(2) 29_556 27
Rh1 Ba2 Ge1 136.715(9) 33_656 27
Rh1 Ba2 Ge1 61.608(2) 29_556 27
Ge2 Ba2 Ge1 61.608(2) 9 27
Rh1 Ba2 Ge1 61.608(2) 9 27
Ge2 Ba2 Ge1 102.888(9) 5 27
Rh1 Ba2 Ge1 102.888(9) 5 27
Ge1 Ba2 Ge1 150.755(15) 37_666 27
Ge4 Ba2 Ge1 119.6(3) 41_666 39_656
Ge4 Ba2 Ge1 62.68(19) 2 39_656
Ge4 Ba2 Ge1 95.3(6) 42_666 39_656
Ge4 Ba2 Ge1 103.5(5) . 39_656
Ge4 Ba2 Ge1 68.6(5) 18_545 39_656
Ge4 Ba2 Ge1 92.2(5) 25_556 39_656
Ge4 Ba2 Ge1 40.0(3) 17_545 39_656
Ge4 Ba2 Ge1 137.0(2) 26_556 39_656
Ge3 Ba2 Ge1 121.46(10) 41_666 39_656
Ge3 Ba2 Ge1 63.78(12) 2 39_656
Ge3 Ba2 Ge1 98.4(3) . 39_656
Ge3 Ba2 Ge1 100.4(2) 42_666 39_656
Ge3 Ba2 Ge1 63.4(3) 18_545 39_656
Ge3 Ba2 Ge1 96.9(2) 25_556 39_656
Ge3 Ba2 Ge1 37.98(10) 17_545 39_656
Ge3 Ba2 Ge1 135.08(15) 26_556 39_656
Ge2 Ba2 Ge1 102.888(9) 33_656 39_656
Ge2 Ba2 Ge1 61.608(2) 29_556 39_656
Rh1 Ba2 Ge1 102.888(9) 33_656 39_656
Rh1 Ba2 Ge1 61.608(2) 29_556 39_656
Ge2 Ba2 Ge1 61.608(2) 9 39_656
Rh1 Ba2 Ge1 61.608(2) 9 39_656
Ge2 Ba2 Ge1 136.715(9) 5 39_656
Rh1 Ba2 Ge1 136.715(9) 5 39_656
Ge1 Ba2 Ge1 159.434(11) 37_666 39_656
Ge1 Ba2 Ge1 36.021(19) 27 39_656
Ge4 Ba2 Ge1 62.68(19) 41_666 26_556
Ge4 Ba2 Ge1 119.6(3) 2 26_556
Ge4 Ba2 Ge1 103.5(5) 42_666 26_556
Ge4 Ba2 Ge1 95.3(6) . 26_556
Ge4 Ba2 Ge1 92.2(5) 18_545 26_556
Ge4 Ba2 Ge1 68.6(6) 25_556 26_556
Ge4 Ba2 Ge1 137.0(2) 17_545 26_556
Ge4 Ba2 Ge1 40.0(3) 26_556 26_556
Ge3 Ba2 Ge1 63.78(12) 41_666 26_556
Ge3 Ba2 Ge1 121.46(10) 2 26_556
Ge3 Ba2 Ge1 100.4(2) . 26_556
Ge3 Ba2 Ge1 98.4(3) 42_666 26_556
Ge3 Ba2 Ge1 96.9(2) 18_545 26_556
Ge3 Ba2 Ge1 63.4(3) 25_556 26_556
Ge3 Ba2 Ge1 135.08(15) 17_545 26_556
Ge3 Ba2 Ge1 37.98(10) 26_556 26_556
Ge2 Ba2 Ge1 61.608(2) 33_656 26_556
Ge2 Ba2 Ge1 102.888(9) 29_556 26_556
Rh1 Ba2 Ge1 61.608(2) 33_656 26_556
Rh1 Ba2 Ge1 102.888(9) 29_556 26_556
Ge2 Ba2 Ge1 136.715(9) 9 26_556
Rh1 Ba2 Ge1 136.715(9) 9 26_556
Ge2 Ba2 Ge1 61.608(2) 5 26_556
Rh1 Ba2 Ge1 61.608(2) 5 26_556
Ge1 Ba2 Ge1 36.021(19) 37_666 26_556
Ge1 Ba2 Ge1 159.434(11) 27 26_556
Ge1 Ba2 Ge1 150.755(15) 39_656 26_556
Ge4 Ba2 Ge1 103.5(5) 41_666 .
Ge4 Ba2 Ge1 68.6(5) 2 .
Ge4 Ba2 Ge1 62.68(19) 42_666 .
Ge4 Ba2 Ge1 40.0(3) . .
Ge4 Ba2 Ge1 137.0(2) 18_545 .
Ge4 Ba2 Ge1 119.6(3) 25_556 .
Ge4 Ba2 Ge1 92.2(5) 17_545 .
Ge4 Ba2 Ge1 95.3(6) 26_556 .
Ge3 Ba2 Ge1 98.4(3) 41_666 .
Ge3 Ba2 Ge1 63.4(3) 2 .
Ge3 Ba2 Ge1 37.98(10) . .
Ge3 Ba2 Ge1 63.78(12) 42_666 .
Ge3 Ba2 Ge1 135.08(15) 18_545 .
Ge3 Ba2 Ge1 121.46(10) 25_556 .
Ge3 Ba2 Ge1 96.9(2) 17_545 .
Ge3 Ba2 Ge1 100.4(2) 26_556 .
Ge2 Ba2 Ge1 136.715(9) 33_656 .
Ge2 Ba2 Ge1 102.888(9) 29_556 .
Rh1 Ba2 Ge1 136.715(9) 33_656 .
Rh1 Ba2 Ge1 102.888(9) 29_556 .
Ge2 Ba2 Ge1 61.608(2) 9 .
Rh1 Ba2 Ge1 61.608(2) 9 .
Ge2 Ba2 Ge1 61.608(2) 5 .
Rh1 Ba2 Ge1 61.608(2) 5 .
Ge1 Ba2 Ge1 91.826(2) 37_666 .
Ge1 Ba2 Ge1 59.201(17) 27 .
Ge1 Ba2 Ge1 91.826(2) 39_656 .
Ge1 Ba2 Ge1 116.634(12) 26_556 .
Ge4 Ba2 Ge1 68.6(5) 41_666 14
Ge4 Ba2 Ge1 103.5(5) 2 14
Ge4 Ba2 Ge1 40.0(3) 42_666 14
Ge4 Ba2 Ge1 62.68(19) . 14
Ge4 Ba2 Ge1 119.6(3) 18_545 14
Ge4 Ba2 Ge1 137.0(2) 25_556 14
Ge4 Ba2 Ge1 95.3(6) 17_545 14
Ge4 Ba2 Ge1 92.2(5) 26_556 14
Ge3 Ba2 Ge1 63.4(3) 41_666 14
Ge3 Ba2 Ge1 98.4(3) 2 14
Ge3 Ba2 Ge1 63.78(12) . 14
Ge3 Ba2 Ge1 37.98(10) 42_666 14
Ge3 Ba2 Ge1 121.46(10) 18_545 14
Ge3 Ba2 Ge1 135.08(15) 25_556 14
Ge3 Ba2 Ge1 100.4(2) 17_545 14
Ge3 Ba2 Ge1 96.9(2) 26_556 14
Ge2 Ba2 Ge1 102.888(9) 33_656 14
Ge2 Ba2 Ge1 136.715(9) 29_556 14
Rh1 Ba2 Ge1 102.888(9) 33_656 14
Rh1 Ba2 Ge1 136.715(9) 29_556 14
Ge2 Ba2 Ge1 61.608(2) 9 14
Rh1 Ba2 Ge1 61.608(2) 9 14
Ge2 Ba2 Ge1 61.608(2) 5 14
Rh1 Ba2 Ge1 61.608(2) 5 14
Ge1 Ba2 Ge1 59.201(17) 37_666 14
Ge1 Ba2 Ge1 91.826(2) 27 14
Ge1 Ba2 Ge1 116.634(12) 39_656 14
Ge1 Ba2 Ge1 91.826(2) 26_556 14
Ge1 Ba2 Ge1 36.021(19) . 14
Ge4 Ba2 Ge1 95.3(6) 41_666 16_545
Ge4 Ba2 Ge1 92.2(5) 2 16_545
Ge4 Ba2 Ge1 119.6(3) 42_666 16_545
Ge4 Ba2 Ge1 137.0(2) . 16_545
Ge4 Ba2 Ge1 40.0(3) 18_545 16_545
Ge4 Ba2 Ge1 62.68(19) 25_556 16_545
Ge4 Ba2 Ge1 68.6(5) 17_545 16_545
Ge4 Ba2 Ge1 103.5(5) 26_556 16_545
Ge3 Ba2 Ge1 100.4(2) 41_666 16_545
Ge3 Ba2 Ge1 96.9(2) 2 16_545
Ge3 Ba2 Ge1 135.08(15) . 16_545
Ge3 Ba2 Ge1 121.46(10) 42_666 16_545
Ge3 Ba2 Ge1 37.98(10) 18_545 16_545
Ge3 Ba2 Ge1 63.78(12) 25_556 16_545
Ge3 Ba2 Ge1 63.4(3) 17_545 16_545
Ge3 Ba2 Ge1 98.4(3) 26_556 16_545
Ge2 Ba2 Ge1 61.608(2) 33_656 16_545
Ge2 Ba2 Ge1 61.608(2) 29_556 16_545
Rh1 Ba2 Ge1 61.608(2) 33_656 16_545
Rh1 Ba2 Ge1 61.608(2) 29_556 16_545
Ge2 Ba2 Ge1 102.888(9) 9 16_545
Rh1 Ba2 Ge1 102.888(9) 9 16_545
Ge2 Ba2 Ge1 136.715(9) 5 16_545
Rh1 Ba2 Ge1 136.715(9) 5 16_545
Ge1 Ba2 Ge1 116.634(12) 37_666 16_545
Ge1 Ba2 Ge1 91.826(2) 27 16_545
Ge1 Ba2 Ge1 59.201(17) 39_656 16_545
Ge1 Ba2 Ge1 91.826(2) 26_556 16_545
Ge1 Ba2 Ge1 150.755(15) . 16_545
Ge1 Ba2 Ge1 159.434(11) 14 16_545
Ge4 Ba2 Ge1 92.2(5) 41_666 4_556
Ge4 Ba2 Ge1 95.3(6) 2 4_556
Ge4 Ba2 Ge1 137.0(2) 42_666 4_556
Ge4 Ba2 Ge1 119.6(3) . 4_556
Ge4 Ba2 Ge1 62.68(19) 18_545 4_556
Ge4 Ba2 Ge1 40.0(3) 25_556 4_556
Ge4 Ba2 Ge1 103.5(5) 17_545 4_556
Ge4 Ba2 Ge1 68.6(5) 26_556 4_556
Ge3 Ba2 Ge1 96.9(2) 41_666 4_556
Ge3 Ba2 Ge1 100.4(2) 2 4_556
Ge3 Ba2 Ge1 121.46(10) . 4_556
Ge3 Ba2 Ge1 135.08(15) 42_666 4_556
Ge3 Ba2 Ge1 63.78(12) 18_545 4_556
Ge3 Ba2 Ge1 37.98(10) 25_556 4_556
Ge3 Ba2 Ge1 98.4(3) 17_545 4_556
Ge3 Ba2 Ge1 63.4(3) 26_556 4_556
Ge2 Ba2 Ge1 61.608(2) 33_656 4_556
Ge2 Ba2 Ge1 61.608(2) 29_556 4_556
Rh1 Ba2 Ge1 61.608(2) 33_656 4_556
Rh1 Ba2 Ge1 61.608(2) 29_556 4_556
Ge2 Ba2 Ge1 136.715(9) 9 4_556
Rh1 Ba2 Ge1 136.715(9) 9 4_556
Ge2 Ba2 Ge1 102.888(9) 5 4_556
Rh1 Ba2 Ge1 102.888(9) 5 4_556
Ge1 Ba2 Ge1 91.826(2) 37_666 4_556
Ge1 Ba2 Ge1 116.634(12) 27 4_556
Ge1 Ba2 Ge1 91.826(2) 39_656 4_556
Ge1 Ba2 Ge1 59.201(17) 26_556 4_556
Ge1 Ba2 Ge1 159.434(11) . 4_556
Ge1 Ba2 Ge1 150.755(15) 14 4_556
Ge1 Ba2 Ge1 36.021(19) 16_545 4_556
Ge4 Ba2 Ge4 131.49(13) 41_666 46_656
Ge4 Ba2 Ge4 55.4(8) 2 46_656
Ge4 Ba2 Ge4 131.49(13) 42_666 46_656
Ge4 Ba2 Ge4 103.0(2) . 46_656
Ge4 Ba2 Ge4 71.4(9) 18_545 46_656
Ge4 Ba2 Ge4 55.4(8) 25_556 46_656
Ge4 Ba2 Ge4 71.4(9) 17_545 46_656
Ge4 Ba2 Ge4 103.0(2) 26_556 46_656
Ge3 Ba2 Ge4 136.3(2) 41_666 46_656
Ge3 Ba2 Ge4 59.7(6) 2 46_656
Ge3 Ba2 Ge4 99.7(2) . 46_656
Ge3 Ba2 Ge4 136.3(2) 42_666 46_656
Ge3 Ba2 Ge4 67.2(6) 18_545 46_656
Ge3 Ba2 Ge4 59.7(6) 25_556 46_656
Ge3 Ba2 Ge4 67.2(6) 17_545 46_656
Ge3 Ba2 Ge4 99.7(2) 26_556 46_656
Ge2 Ba2 Ge4 99.2(3) 33_656 46_656
Ge2 Ba2 Ge4 32.0(5) 29_556 46_656
Rh1 Ba2 Ge4 99.2(3) 33_656 46_656
Rh1 Ba2 Ge4 32.0(5) 29_556 46_656
Ge2 Ba2 Ge4 99.2(3) 9 46_656
Rh1 Ba2 Ge4 99.2(3) 9 46_656
Ge2 Ba2 Ge4 122.0(5) 5 46_656
Rh1 Ba2 Ge4 122.0(5) 5 46_656
Ge1 Ba2 Ge4 150.38(2) 37_666 46_656
Ge1 Ba2 Ge4 58.57(4) 27 46_656
Ge1 Ba2 Ge4 37.9(3) 39_656 46_656
Ge1 Ba2 Ge4 116.18(16) 26_556 46_656
Ge1 Ba2 Ge4 116.18(16) . 46_656
Ge1 Ba2 Ge4 150.379(19) 14 46_656
Ge1 Ba2 Ge4 37.9(3) 16_545 46_656
Ge1 Ba2 Ge4 58.57(4) 4_556 46_656
Ge4 Ba2 Ge4 55.4(8) 41_666 6_556
Ge4 Ba2 Ge4 131.49(12) 2 6_556
Ge4 Ba2 Ge4 103.0(2) 42_666 6_556
Ge4 Ba2 Ge4 131.49(13) . 6_556
Ge4 Ba2 Ge4 55.4(8) 18_545 6_556
Ge4 Ba2 Ge4 71.4(9) 25_556 6_556
Ge4 Ba2 Ge4 103.0(2) 17_545 6_556
Ge4 Ba2 Ge4 71.4(9) 26_556 6_556
Ge3 Ba2 Ge4 59.7(6) 41_666 6_556
Ge3 Ba2 Ge4 136.3(2) 2 6_556
Ge3 Ba2 Ge4 136.3(2) . 6_556
Ge3 Ba2 Ge4 99.7(2) 42_666 6_556
Ge3 Ba2 Ge4 59.7(6) 18_545 6_556
Ge3 Ba2 Ge4 67.2(6) 25_556 6_556
Ge3 Ba2 Ge4 99.7(2) 17_545 6_556
Ge3 Ba2 Ge4 67.2(6) 26_556 6_556
Ge2 Ba2 Ge4 32.0(5) 33_656 6_556
Ge2 Ba2 Ge4 99.2(3) 29_556 6_556
Rh1 Ba2 Ge4 32.0(5) 33_656 6_556
Rh1 Ba2 Ge4 99.2(3) 29_556 6_556
Ge2 Ba2 Ge4 122.0(5) 9 6_556
Rh1 Ba2 Ge4 122.0(5) 9 6_556
Ge2 Ba2 Ge4 99.2(3) 5 6_556
Rh1 Ba2 Ge4 99.2(3) 5 6_556
Ge1 Ba2 Ge4 58.57(4) 37_666 6_556
Ge1 Ba2 Ge4 150.38(2) 27 6_556
Ge1 Ba2 Ge4 116.18(15) 39_656 6_556
Ge1 Ba2 Ge4 37.9(3) 26_556 6_556
Ge1 Ba2 Ge4 150.38(2) . 6_556
Ge1 Ba2 Ge4 116.18(16) 14 6_556
Ge1 Ba2 Ge4 58.57(4) 16_545 6_556
Ge1 Ba2 Ge4 37.9(3) 4_556 6_556
Ge4 Ba2 Ge4 92.9(2) 46_656 6_556
Ge4 Ba2 Ge4 71.4(9) 41_666 45_666
Ge4 Ba2 Ge4 103.0(2) 2 45_666
Ge4 Ba2 Ge4 71.4(9) 42_666 45_666
Ge4 Ba2 Ge4 55.4(8) . 45_666
Ge4 Ba2 Ge4 131.49(12) 18_545 45_666
Ge4 Ba2 Ge4 103.0(2) 25_556 45_666
Ge4 Ba2 Ge4 131.49(12) 17_545 45_666
Ge4 Ba2 Ge4 55.4(8) 26_556 45_666
Ge3 Ba2 Ge4 67.2(6) 41_666 45_666
Ge3 Ba2 Ge4 99.7(2) 2 45_666
Ge3 Ba2 Ge4 59.7(6) . 45_666
Ge3 Ba2 Ge4 67.2(6) 42_666 45_666
Ge3 Ba2 Ge4 136.3(2) 18_545 45_666
Ge3 Ba2 Ge4 99.7(2) 25_556 45_666
Ge3 Ba2 Ge4 136.3(2) 17_545 45_666
Ge3 Ba2 Ge4 59.7(6) 26_556 45_666
Ge2 Ba2 Ge4 99.2(3) 33_656 45_666
Ge2 Ba2 Ge4 122.0(5) 29_556 45_666
Rh1 Ba2 Ge4 99.2(3) 33_656 45_666
Rh1 Ba2 Ge4 122.0(5) 29_556 45_666
Ge2 Ba2 Ge4 99.2(3) 9 45_666
Rh1 Ba2 Ge4 99.2(3) 9 45_666
Ge2 Ba2 Ge4 32.0(5) 5 45_666
Rh1 Ba2 Ge4 32.0(5) 5 45_666
Ge1 Ba2 Ge4 37.9(3) 37_666 45_666
Ge1 Ba2 Ge4 116.18(15) 27 45_666
Ge1 Ba2 Ge4 150.379(19) 39_656 45_666
Ge1 Ba2 Ge4 58.57(4) 26_556 45_666
Ge1 Ba2 Ge4 58.57(4) . 45_666
Ge1 Ba2 Ge4 37.9(3) 14 45_666
Ge1 Ba2 Ge4 150.38(2) 16_545 45_666
Ge1 Ba2 Ge4 116.18(15) 4_556 45_666
Ge4 Ba2 Ge4 154.0(10) 46_656 45_666
Ge4 Ba2 Ge4 92.9(2) 6_556 45_666
Ge4 Ba2 Ge4 103.0(2) 41_666 5
Ge4 Ba2 Ge4 71.4(9) 2 5
Ge4 Ba2 Ge4 55.4(8) 42_666 5
Ge4 Ba2 Ge4 71.4(9) . 5
Ge4 Ba2 Ge4 103.0(2) 18_545 5
Ge4 Ba2 Ge4 131.49(12) 25_556 5
Ge4 Ba2 Ge4 55.4(8) 17_545 5
Ge4 Ba2 Ge4 131.49(13) 26_556 5
Ge3 Ba2 Ge4 99.7(2) 41_666 5
Ge3 Ba2 Ge4 67.2(6) 2 5
Ge3 Ba2 Ge4 67.2(6) . 5
Ge3 Ba2 Ge4 59.7(6) 42_666 5
Ge3 Ba2 Ge4 99.7(2) 18_545 5
Ge3 Ba2 Ge4 136.3(2) 25_556 5
Ge3 Ba2 Ge4 59.7(6) 17_545 5
Ge3 Ba2 Ge4 136.3(2) 26_556 5
Ge2 Ba2 Ge4 122.0(5) 33_656 5
Ge2 Ba2 Ge4 99.2(3) 29_556 5
Rh1 Ba2 Ge4 122.0(5) 33_656 5
Rh1 Ba2 Ge4 99.2(3) 29_556 5
Ge2 Ba2 Ge4 32.0(5) 9 5
Rh1 Ba2 Ge4 32.0(5) 9 5
Ge2 Ba2 Ge4 99.2(3) 5 5
Rh1 Ba2 Ge4 99.2(3) 5 5
Ge1 Ba2 Ge4 116.18(16) 37_666 5
Ge1 Ba2 Ge4 37.9(3) 27 5
Ge1 Ba2 Ge4 58.57(4) 39_656 5
Ge1 Ba2 Ge4 150.38(2) 26_556 5
Ge1 Ba2 Ge4 37.9(3) . 5
Ge1 Ba2 Ge4 58.57(4) 14 5
Ge1 Ba2 Ge4 116.18(15) 16_545 5
Ge1 Ba2 Ge4 150.38(2) 4_556 5
Ge4 Ba2 Ge4 92.9(2) 46_656 5
Ge4 Ba2 Ge4 154.0(10) 6_556 5
Ge4 Ba2 Ge4 92.9(2) 45_666 5
Ge4 Ba2 Ge3 127.9(4) 41_666 46_656
Ge4 Ba2 Ge3 58.8(6) 2 46_656
Ge4 Ba2 Ge3 127.9(4) 42_666 46_656
Ge4 Ba2 Ge3 106.6(2) . 46_656
Ge4 Ba2 Ge3 67.5(6) 18_545 46_656
Ge4 Ba2 Ge3 58.8(6) 25_556 46_656
Ge4 Ba2 Ge3 67.5(6) 17_545 46_656
Ge4 Ba2 Ge3 106.6(2) 26_556 46_656
Ge3 Ba2 Ge3 132.56(5) 41_666 46_656
Ge3 Ba2 Ge3 63.0(4) 2 46_656
Ge3 Ba2 Ge3 103.15(12) . 46_656
Ge3 Ba2 Ge3 132.56(5) 42_666 46_656
Ge3 Ba2 Ge3 63.3(4) 18_545 46_656
Ge3 Ba2 Ge3 63.0(4) 25_556 46_656
Ge3 Ba2 Ge3 63.3(4) 17_545 46_656
Ge3 Ba2 Ge3 103.15(12) 26_556 46_656
Ge2 Ba2 Ge3 96.18(14) 33_656 46_656
Ge2 Ba2 Ge3 36.2(2) 29_556 46_656
Rh1 Ba2 Ge3 96.18(14) 33_656 46_656
Rh1 Ba2 Ge3 36.2(2) 29_556 46_656
Ge2 Ba2 Ge3 96.18(14) 9 46_656
Rh1 Ba2 Ge3 96.18(14) 9 46_656
Ge2 Ba2 Ge3 126.2(2) 5 46_656
Rh1 Ba2 Ge3 126.2(2) 5 46_656
Ge1 Ba2 Ge3 150.25(2) 37_666 46_656
Ge1 Ba2 Ge3 58.98(2) 27 46_656
Ge1 Ba2 Ge3 35.52(10) 39_656 46_656
Ge1 Ba2 Ge3 117.45(6) 26_556 46_656
Ge1 Ba2 Ge3 117.45(6) . 46_656
Ge1 Ba2 Ge3 150.25(2) 14 46_656
Ge1 Ba2 Ge3 35.52(10) 16_545 46_656
Ge1 Ba2 Ge3 58.98(2) 4_556 46_656
Ge4 Ba2 Ge3 4.2(3) 46_656 46_656
Ge4 Ba2 Ge3 91.96(11) 6_556 46_656
Ge4 Ba2 Ge3 158.2(7) 45_666 46_656
Ge4 Ba2 Ge3 91.96(11) 5 46_656
Ge4 Ba2 Ge3 58.8(6) 41_666 6_556
Ge4 Ba2 Ge3 127.9(4) 2 6_556
Ge4 Ba2 Ge3 106.6(2) 42_666 6_556
Ge4 Ba2 Ge3 127.9(4) . 6_556
Ge4 Ba2 Ge3 58.8(6) 18_545 6_556
Ge4 Ba2 Ge3 67.5(6) 25_556 6_556
Ge4 Ba2 Ge3 106.6(2) 17_545 6_556
Ge4 Ba2 Ge3 67.5(6) 26_556 6_556
Ge3 Ba2 Ge3 63.0(4) 41_666 6_556
Ge3 Ba2 Ge3 132.56(5) 2 6_556
Ge3 Ba2 Ge3 132.56(5) . 6_556
Ge3 Ba2 Ge3 103.15(12) 42_666 6_556
Ge3 Ba2 Ge3 63.0(4) 18_545 6_556
Ge3 Ba2 Ge3 63.3(4) 25_556 6_556
Ge3 Ba2 Ge3 103.15(12) 17_545 6_556
Ge3 Ba2 Ge3 63.3(4) 26_556 6_556
Ge2 Ba2 Ge3 36.2(2) 33_656 6_556
Ge2 Ba2 Ge3 96.18(14) 29_556 6_556
Rh1 Ba2 Ge3 36.2(2) 33_656 6_556
Rh1 Ba2 Ge3 96.18(14) 29_556 6_556
Ge2 Ba2 Ge3 126.2(2) 9 6_556
Rh1 Ba2 Ge3 126.2(2) 9 6_556
Ge2 Ba2 Ge3 96.18(14) 5 6_556
Rh1 Ba2 Ge3 96.18(14) 5 6_556
Ge1 Ba2 Ge3 58.98(2) 37_666 6_556
Ge1 Ba2 Ge3 150.25(2) 27 6_556
Ge1 Ba2 Ge3 117.45(6) 39_656 6_556
Ge1 Ba2 Ge3 35.52(10) 26_556 6_556
Ge1 Ba2 Ge3 150.25(2) . 6_556
Ge1 Ba2 Ge3 117.45(6) 14 6_556
Ge1 Ba2 Ge3 58.98(2) 16_545 6_556
Ge1 Ba2 Ge3 35.52(10) 4_556 6_556
Ge4 Ba2 Ge3 91.96(11) 46_656 6_556
Ge4 Ba2 Ge3 4.2(3) 6_556 6_556
Ge4 Ba2 Ge3 91.96(11) 45_666 6_556
Ge4 Ba2 Ge3 158.2(7) 5 6_556
Ge3 Ba2 Ge3 91.33(6) 46_656 6_556
Ge4 Ba2 Ge3 67.5(6) 41_666 45_666
Ge4 Ba2 Ge3 106.6(2) 2 45_666
Ge4 Ba2 Ge3 67.5(6) 42_666 45_666
Ge4 Ba2 Ge3 58.8(6) . 45_666
Ge4 Ba2 Ge3 127.9(4) 18_545 45_666
Ge4 Ba2 Ge3 106.6(2) 25_556 45_666
Ge4 Ba2 Ge3 127.9(4) 17_545 45_666
Ge4 Ba2 Ge3 58.8(6) 26_556 45_666
Ge3 Ba2 Ge3 63.3(4) 41_666 45_666
Ge3 Ba2 Ge3 103.15(12) 2 45_666
Ge3 Ba2 Ge3 63.0(4) . 45_666
Ge3 Ba2 Ge3 63.3(4) 42_666 45_666
Ge3 Ba2 Ge3 132.56(5) 18_545 45_666
Ge3 Ba2 Ge3 103.15(12) 25_556 45_666
Ge3 Ba2 Ge3 132.56(5) 17_545 45_666
Ge3 Ba2 Ge3 63.0(4) 26_556 45_666
Ge2 Ba2 Ge3 96.18(14) 33_656 45_666
Ge2 Ba2 Ge3 126.2(2) 29_556 45_666
Rh1 Ba2 Ge3 96.18(14) 33_656 45_666
Rh1 Ba2 Ge3 126.2(2) 29_556 45_666
Ge2 Ba2 Ge3 96.18(14) 9 45_666
Rh1 Ba2 Ge3 96.18(14) 9 45_666
Ge2 Ba2 Ge3 36.2(2) 5 45_666
Rh1 Ba2 Ge3 36.2(2) 5 45_666
Ge1 Ba2 Ge3 35.52(10) 37_666 45_666
Ge1 Ba2 Ge3 117.45(6) 27 45_666
Ge1 Ba2 Ge3 150.25(2) 39_656 45_666
Ge1 Ba2 Ge3 58.98(2) 26_556 45_666
Ge1 Ba2 Ge3 58.98(2) . 45_666
Ge1 Ba2 Ge3 35.52(10) 14 45_666
Ge1 Ba2 Ge3 150.25(2) 16_545 45_666
Ge1 Ba2 Ge3 117.45(6) 4_556 45_666
Ge4 Ba2 Ge3 158.2(7) 46_656 45_666
Ge4 Ba2 Ge3 91.96(11) 6_556 45_666
Ge4 Ba2 Ge3 4.2(3) 45_666 45_666
Ge4 Ba2 Ge3 91.96(11) 5 45_666
Ge3 Ba2 Ge3 162.5(4) 46_656 45_666
Ge3 Ba2 Ge3 91.33(6) 6_556 45_666
Ge4 Ba2 Ge3 106.6(2) 41_666 5
Ge4 Ba2 Ge3 67.5(6) 2 5
Ge4 Ba2 Ge3 58.8(6) 42_666 5
Ge4 Ba2 Ge3 67.5(6) . 5
Ge4 Ba2 Ge3 106.6(2) 18_545 5
Ge4 Ba2 Ge3 127.9(4) 25_556 5
Ge4 Ba2 Ge3 58.8(6) 17_545 5
Ge4 Ba2 Ge3 127.9(4) 26_556 5
Ge3 Ba2 Ge3 103.15(12) 41_666 5
Ge3 Ba2 Ge3 63.3(4) 2 5
Ge3 Ba2 Ge3 63.3(4) . 5
Ge3 Ba2 Ge3 63.0(4) 42_666 5
Ge3 Ba2 Ge3 103.15(12) 18_545 5
Ge3 Ba2 Ge3 132.56(5) 25_556 5
Ge3 Ba2 Ge3 63.0(4) 17_545 5
Ge3 Ba2 Ge3 132.56(5) 26_556 5
Ge2 Ba2 Ge3 126.2(2) 33_656 5
Ge2 Ba2 Ge3 96.18(14) 29_556 5
Rh1 Ba2 Ge3 126.2(2) 33_656 5
Rh1 Ba2 Ge3 96.18(14) 29_556 5
Ge2 Ba2 Ge3 36.2(2) 9 5
Rh1 Ba2 Ge3 36.2(2) 9 5
Ge2 Ba2 Ge3 96.18(14) 5 5
Rh1 Ba2 Ge3 96.18(14) 5 5
Ge1 Ba2 Ge3 117.45(6) 37_666 5
Ge1 Ba2 Ge3 35.52(10) 27 5
Ge1 Ba2 Ge3 58.98(2) 39_656 5
Ge1 Ba2 Ge3 150.25(2) 26_556 5
Ge1 Ba2 Ge3 35.52(10) . 5
Ge1 Ba2 Ge3 58.98(2) 14 5
Ge1 Ba2 Ge3 117.45(6) 16_545 5
Ge1 Ba2 Ge3 150.25(2) 4_556 5
Ge4 Ba2 Ge3 91.96(11) 46_656 5
Ge4 Ba2 Ge3 158.2(7) 6_556 5
Ge4 Ba2 Ge3 91.96(11) 45_666 5
Ge4 Ba2 Ge3 4.2(3) 5 5
Ge3 Ba2 Ge3 91.33(6) 46_656 5
Ge3 Ba2 Ge3 162.5(4) 6_556 5
Ge3 Ba2 Ge3 91.33(6) 45_666 5
Ge4 Rh1 Ge4 109.4(4) 14 9
Ge4 Rh1 Ge4 109.6(8) 14 37_665
Ge4 Rh1 Ge4 109.4(4) 9 37_665
Ge4 Rh1 Ge4 109.4(4) 14 34_565
Ge4 Rh1 Ge4 109.6(8) 9 34_565
Ge4 Rh1 Ge4 109.4(4) 37_665 34_565
Ge4 Rh1 Ge3 0.0(6) 14 14
Ge4 Rh1 Ge3 109.37(11) 9 14
Ge4 Rh1 Ge3 109.7(2) 37_665 14
Ge4 Rh1 Ge3 109.37(11) 34_565 14
Ge4 Rh1 Ge3 109.37(11) 14 9
Ge4 Rh1 Ge3 0.0(6) 9 9
Ge4 Rh1 Ge3 109.37(11) 37_665 9
Ge4 Rh1 Ge3 109.7(2) 34_565 9
Ge3 Rh1 Ge3 109.36(17) 14 9
Ge4 Rh1 Ge3 109.37(11) 14 34_565
Ge4 Rh1 Ge3 109.7(2) 9 34_565
Ge4 Rh1 Ge3 109.37(11) 37_665 34_565
Ge4 Rh1 Ge3 0.0(6) 34_565 34_565
Ge3 Rh1 Ge3 109.36(17) 14 34_565
Ge3 Rh1 Ge3 109.7(3) 9 34_565
Ge4 Rh1 Ge3 109.7(2) 14 37_665
Ge4 Rh1 Ge3 109.37(11) 9 37_665
Ge4 Rh1 Ge3 0.0(6) 37_665 37_665
Ge4 Rh1 Ge3 109.37(11) 34_565 37_665
Ge3 Rh1 Ge3 109.7(3) 14 37_665
Ge3 Rh1 Ge3 109.36(17) 9 37_665
Ge3 Rh1 Ge3 109.36(17) 34_565 37_665
Ge4 Rh1 Ba2 170.2(4) 14 33_565
Ge4 Rh1 Ba2 66.0(2) 9 33_565
Ge4 Rh1 Ba2 80.2(4) 37_665 33_565
Ge4 Rh1 Ba2 66.0(2) 34_565 33_565
Ge3 Rh1 Ba2 170.15(17) 14 33_565
Ge3 Rh1 Ba2 65.98(11) 9 33_565
Ge3 Rh1 Ba2 65.98(11) 34_565 33_565
Ge3 Rh1 Ba2 80.15(17) 37_665 33_565
Ge4 Rh1 Ba2 66.0(2) 14 29_665
Ge4 Rh1 Ba2 170.2(4) 9 29_665
Ge4 Rh1 Ba2 66.0(2) 37_665 29_665
Ge4 Rh1 Ba2 80.2(4) 34_565 29_665
Ge3 Rh1 Ba2 65.98(11) 14 29_665
Ge3 Rh1 Ba2 170.15(17) 9 29_665
Ge3 Rh1 Ba2 80.15(17) 34_565 29_665
Ge3 Rh1 Ba2 65.98(11) 37_665 29_665
Ba2 Rh1 Ba2 120.0 33_565 29_665
Ge4 Rh1 Ba2 66.0(2) 14 5
Ge4 Rh1 Ba2 80.2(4) 9 5
Ge4 Rh1 Ba2 66.0(2) 37_665 5
Ge4 Rh1 Ba2 170.2(4) 34_565 5
Ge3 Rh1 Ba2 65.98(11) 14 5
Ge3 Rh1 Ba2 80.15(17) 9 5
Ge3 Rh1 Ba2 170.15(17) 34_565 5
Ge3 Rh1 Ba2 65.98(11) 37_665 5
Ba2 Rh1 Ba2 120.0 33_565 5
Ba2 Rh1 Ba2 90.0 29_665 5
Ge4 Rh1 Ba2 80.2(4) 14 9
Ge4 Rh1 Ba2 66.0(2) 9 9
Ge4 Rh1 Ba2 170.2(4) 37_665 9
Ge4 Rh1 Ba2 66.0(2) 34_565 9
Ge3 Rh1 Ba2 80.15(17) 14 9
Ge3 Rh1 Ba2 65.98(11) 9 9
Ge3 Rh1 Ba2 65.98(11) 34_565 9
Ge3 Rh1 Ba2 170.15(17) 37_665 9
Ba2 Rh1 Ba2 90.0 33_565 9
Ba2 Rh1 Ba2 120.0 29_665 9
Ba2 Rh1 Ba2 120.0 5 9
Ge4 Ge2 Ge4 109.4(4) 14 9
Ge4 Ge2 Ge4 109.6(8) 14 37_665
Ge4 Ge2 Ge4 109.4(4) 9 37_665
Ge4 Ge2 Ge4 109.4(4) 14 34_565
Ge4 Ge2 Ge4 109.6(8) 9 34_565
Ge4 Ge2 Ge4 109.4(4) 37_665 34_565
Ge4 Ge2 Ge3 0.0(6) 14 14
Ge4 Ge2 Ge3 109.37(11) 9 14
Ge4 Ge2 Ge3 109.7(2) 37_665 14
Ge4 Ge2 Ge3 109.37(11) 34_565 14
Ge4 Ge2 Ge3 109.37(11) 14 9
Ge4 Ge2 Ge3 0.0(6) 9 9
Ge4 Ge2 Ge3 109.37(11) 37_665 9
Ge4 Ge2 Ge3 109.7(2) 34_565 9
Ge3 Ge2 Ge3 109.36(17) 14 9
Ge4 Ge2 Ge3 109.37(11) 14 34_565
Ge4 Ge2 Ge3 109.7(2) 9 34_565
Ge4 Ge2 Ge3 109.37(11) 37_665 34_565
Ge4 Ge2 Ge3 0.0(6) 34_565 34_565
Ge3 Ge2 Ge3 109.36(17) 14 34_565
Ge3 Ge2 Ge3 109.7(3) 9 34_565
Ge4 Ge2 Ge3 109.7(2) 14 37_665
Ge4 Ge2 Ge3 109.37(11) 9 37_665
Ge4 Ge2 Ge3 0.0(6) 37_665 37_665
Ge4 Ge2 Ge3 109.37(11) 34_565 37_665
Ge3 Ge2 Ge3 109.7(3) 14 37_665
Ge3 Ge2 Ge3 109.36(17) 9 37_665
Ge3 Ge2 Ge3 109.36(17) 34_565 37_665
Ge4 Ge2 Ba2 170.2(4) 14 33_565
Ge4 Ge2 Ba2 66.0(2) 9 33_565
Ge4 Ge2 Ba2 80.2(4) 37_665 33_565
Ge4 Ge2 Ba2 66.0(2) 34_565 33_565
Ge3 Ge2 Ba2 170.15(17) 14 33_565
Ge3 Ge2 Ba2 65.98(11) 9 33_565
Ge3 Ge2 Ba2 65.98(11) 34_565 33_565
Ge3 Ge2 Ba2 80.15(17) 37_665 33_565
Ge4 Ge2 Ba2 66.0(2) 14 29_665
Ge4 Ge2 Ba2 170.2(4) 9 29_665
Ge4 Ge2 Ba2 66.0(2) 37_665 29_665
Ge4 Ge2 Ba2 80.2(4) 34_565 29_665
Ge3 Ge2 Ba2 65.98(11) 14 29_665
Ge3 Ge2 Ba2 170.15(17) 9 29_665
Ge3 Ge2 Ba2 80.15(17) 34_565 29_665
Ge3 Ge2 Ba2 65.98(11) 37_665 29_665
Ba2 Ge2 Ba2 120.0 33_565 29_665
Ge4 Ge2 Ba2 66.0(2) 14 5
Ge4 Ge2 Ba2 80.2(4) 9 5
Ge4 Ge2 Ba2 66.0(2) 37_665 5
Ge4 Ge2 Ba2 170.2(4) 34_565 5
Ge3 Ge2 Ba2 65.98(11) 14 5
Ge3 Ge2 Ba2 80.15(17) 9 5
Ge3 Ge2 Ba2 170.15(17) 34_565 5
Ge3 Ge2 Ba2 65.98(11) 37_665 5
Ba2 Ge2 Ba2 120.0 33_565 5
Ba2 Ge2 Ba2 90.0 29_665 5
Ge4 Ge2 Ba2 80.2(4) 14 9
Ge4 Ge2 Ba2 66.0(2) 9 9
Ge4 Ge2 Ba2 170.2(4) 37_665 9
Ge4 Ge2 Ba2 66.0(2) 34_565 9
Ge3 Ge2 Ba2 80.15(17) 14 9
Ge3 Ge2 Ba2 65.98(11) 9 9
Ge3 Ge2 Ba2 65.98(11) 34_565 9
Ge3 Ge2 Ba2 170.15(17) 37_665 9
Ba2 Ge2 Ba2 90.0 33_565 9
Ba2 Ge2 Ba2 120.0 29_665 9
Ba2 Ge2 Ba2 120.0 5 9
Ge1 Ge1 Ge3 108.2(4) 14 9
Ge1 Ge1 Ge3 108.2(4) 14 5
Ge3 Ge1 Ge3 110.7(3) 9 5
Ge1 Ge1 Ge3 108.2(4) 14 .
Ge3 Ge1 Ge3 110.7(3) 9 .
Ge3 Ge1 Ge3 110.7(3) 5 .
Ge1 Ge1 Ge4 101.4(7) 14 .
Ge3 Ge1 Ge4 112.4(6) 9 .
Ge3 Ge1 Ge4 115.2(5) 5 .
Ge3 Ge1 Ge4 7.1(4) . .
Ge1 Ge1 Ge4 101.4(7) 14 9
Ge3 Ge1 Ge4 7.1(4) 9 9
Ge3 Ge1 Ge4 112.4(6) 5 9
Ge3 Ge1 Ge4 115.2(5) . 9
Ge4 Ge1 Ge4 116.2(4) . 9
Ge1 Ge1 Ge4 101.4(7) 14 5
Ge3 Ge1 Ge4 115.2(5) 9 5
Ge3 Ge1 Ge4 7.1(4) 5 5
Ge3 Ge1 Ge4 112.4(6) . 5
Ge4 Ge1 Ge4 116.2(4) . 5
Ge4 Ge1 Ge4 116.2(4) 9 5
Ge1 Ge1 Ba1 180.00(5) 14 .
Ge3 Ge1 Ba1 71.8(4) 9 .
Ge3 Ge1 Ba1 71.8(4) 5 .
Ge3 Ge1 Ba1 71.8(4) . .
Ge4 Ge1 Ba1 78.6(7) . .
Ge4 Ge1 Ba1 78.6(7) 9 .
Ge4 Ge1 Ba1 78.6(7) 5 .
Ge1 Ge1 Ba2 71.990(9) 14 5
Ge3 Ge1 Ba2 76.3(3) 9 5
Ge3 Ge1 Ba2 62.43(15) 5 5
Ge3 Ge1 Ba2 172.13(18) . 5
Ge4 Ge1 Ba2 170.7(5) . 5
Ge4 Ge1 Ba2 72.0(4) 9 5
Ge4 Ge1 Ba2 60.3(3) 5 5
Ba1 Ge1 Ba2 108.010(9) . 5
Ge1 Ge1 Ba2 71.990(9) 14 .
Ge3 Ge1 Ba2 172.13(18) 9 .
Ge3 Ge1 Ba2 76.3(3) 5 .
Ge3 Ge1 Ba2 62.43(15) . .
Ge4 Ge1 Ba2 60.3(3) . .
Ge4 Ge1 Ba2 170.7(5) 9 .
Ge4 Ge1 Ba2 72.0(4) 5 .
Ba1 Ge1 Ba2 108.010(9) . .
Ba2 Ge1 Ba2 110.892(9) 5 .
Ge1 Ge1 Ba2 71.990(9) 14 9
Ge3 Ge1 Ba2 62.43(15) 9 9
Ge3 Ge1 Ba2 172.13(18) 5 9
Ge3 Ge1 Ba2 76.3(3) . 9
Ge4 Ge1 Ba2 72.0(4) . 9
Ge4 Ge1 Ba2 60.3(3) 9 9
Ge4 Ge1 Ba2 170.7(5) 5 9
Ba1 Ge1 Ba2 108.010(9) . 9
Ba2 Ge1 Ba2 110.892(9) 5 9
Ba2 Ge1 Ba2 110.892(9) . 9
Ge1 Ge1 Ba2 107.832(6) 14 33_565
Ge3 Ge1 Ba2 2.52(15) 9 33_565
Ge3 Ge1 Ba2 113.0(3) 5 33_565
Ge3 Ge1 Ba2 108.67(14) . 33_565
Ge4 Ge1 Ba2 110.2(3) . 33_565
Ge4 Ge1 Ba2 7.7(6) 9 33_565
Ge4 Ge1 Ba2 117.7(5) 5 33_565
Ba1 Ge1 Ba2 72.168(6) . 33_565
Ba2 Ge1 Ba2 78.366(1) 5 33_565
Ba2 Ge1 Ba2 169.6 . 33_565
Ba2 Ge1 Ba2 60.133(2) 9 33_565
Ge4 Ge3 Ge3 125(4) . 2
Ge4 Ge3 Ge1 106(2) . 28
Ge3 Ge3 Ge1 107.0(3) 2 28
Ge4 Ge3 Ge1 106(2) . .
Ge3 Ge3 Ge1 107.0(3) 2 .
Ge1 Ge3 Ge1 104.3(3) 28 .
Ge4 Ge3 Ge2 0(4) . 5
Ge3 Ge3 Ge2 125.15(17) 2 5
Ge1 Ge3 Ge2 105.8(4) 28 5
Ge1 Ge3 Ge2 105.8(4) . 5
Ge4 Ge3 Rh1 0(4) . 5
Ge3 Ge3 Rh1 125.15(17) 2 5
Ge1 Ge3 Rh1 105.8(4) 28 5
Ge1 Ge3 Rh1 105.8(4) . 5
Ge2 Ge3 Rh1 0.0 5 5
Ge4 Ge3 Ge4 119(4) . 2
Ge3 Ge3 Ge4 5.8(5) 2 2
Ge1 Ge3 Ge4 110.22(17) 28 2
Ge1 Ge3 Ge4 110.22(17) . 2
Ge2 Ge3 Ge4 119.3(6) 5 2
Rh1 Ge3 Ge4 119.3(6) 5 2
Ge4 Ge3 Ba1 166(4) . .
Ge3 Ge3 Ba1 69.49(15) 2 .
Ge1 Ge3 Ba1 66.2(3) 28 .
Ge1 Ge3 Ba1 66.2(3) . .
Ge2 Ge3 Ba1 165.4(3) 5 .
Rh1 Ge3 Ba1 165.4(3) 5 .
Ge4 Ge3 Ba1 75.3(3) 2 .
Ge4 Ge3 Ba2 74(2) . .
Ge3 Ge3 Ba2 69.8(2) 2 .
Ge1 Ge3 Ba2 175.7(3) 28 .
Ge1 Ge3 Ba2 79.59(5) . .
Ge2 Ge3 Ba2 74.5(2) 5 .
Rh1 Ge3 Ba2 74.5(2) 5 .
Ge4 Ge3 Ba2 66.4(4) 2 .
Ba1 Ge3 Ba2 114.4(3) . .
Ge4 Ge3 Ba2 74(2) . 25_556
Ge3 Ge3 Ba2 69.8(2) 2 25_556
Ge1 Ge3 Ba2 79.59(5) 28 25_556
Ge1 Ge3 Ba2 175.7(3) . 25_556
Ge2 Ge3 Ba2 74.5(2) 5 25_556
Rh1 Ge3 Ba2 74.5(2) 5 25_556
Ge4 Ge3 Ba2 66.4(4) 2 25_556
Ba1 Ge3 Ba2 114.4(3) . 25_556
Ba2 Ge3 Ba2 96.5(2) . 25_556
Ge4 Ge3 Ba2 64(4) . 9
Ge3 Ge3 Ba2 171.2(2) 2 9
Ge1 Ge3 Ba2 68.2(2) 28 9
Ge1 Ge3 Ba2 68.2(2) . 9
Ge2 Ge3 Ba2 63.6(3) 5 9
Rh1 Ge3 Ba2 63.6(3) 5 9
Ge4 Ge3 Ba2 177.1(4) 2 9
Ba1 Ge3 Ba2 101.75(18) . 9
Ba2 Ge3 Ba2 115.3(3) . 9
Ba2 Ge3 Ba2 115.3(3) 25_556 9
Ge3 Ge4 Ge2 180(4) . 5
Ge3 Ge4 Rh1 180(4) . 5
Ge2 Ge4 Rh1 0.0 5 5
Ge3 Ge4 Ge1 67(2) . 28
Ge2 Ge4 Ge1 112.9(7) 5 28
Rh1 Ge4 Ge1 112.9(7) 5 28
Ge3 Ge4 Ge1 67(2) . .
Ge2 Ge4 Ge1 112.9(7) 5 .
Rh1 Ge4 Ge1 112.9(7) 5 .
Ge1 Ge4 Ge1 98.2(9) 28 .
Ge3 Ge4 Ge3 49(3) . 2
Ge2 Ge4 Ge3 131.0(8) 5 2
Rh1 Ge4 Ge3 131.0(8) 5 2
Ge1 Ge4 Ge3 98.2(7) 28 2
Ge1 Ge4 Ge3 98.2(7) . 2
Ge3 Ge4 Ge4 55(4) . 2
Ge2 Ge4 Ge4 125.2(4) 5 2
Rh1 Ge4 Ge4 125.2(4) 5 2
Ge1 Ge4 Ge4 101.9(5) 28 2
Ge1 Ge4 Ge4 101.9(5) . 2
Ge3 Ge4 Ge4 5.8(5) 2 2
Ge3 Ge4 Ba2 100(2) . .
Ge2 Ge4 Ba2 79.8(6) 5 .
Rh1 Ge4 Ba2 79.8(6) 5 .
Ge1 Ge4 Ba2 166.7(12) 28 .
Ge1 Ge4 Ba2 79.71(8) . .
Ge3 Ge4 Ba2 69.3(4) 2 .
Ge4 Ge4 Ba2 66.0(4) 2 .
Ge3 Ge4 Ba2 100(2) . 25_556
Ge2 Ge4 Ba2 79.8(6) 5 25_556
Rh1 Ge4 Ba2 79.8(6) 5 25_556
Ge1 Ge4 Ba2 79.71(8) 28 25_556
Ge1 Ge4 Ba2 166.7(12) . 25_556
Ge3 Ge4 Ba2 69.3(4) 2 25_556
Ge4 Ge4 Ba2 66.0(4) 2 25_556
Ba2 Ge4 Ba2 99.3(5) . 25_556
Ge3 Ge4 Ba1 13(4) . .
Ge2 Ge4 Ba1 166.6(6) 5 .
Rh1 Ge4 Ba1 166.6(6) 5 .
Ge1 Ge4 Ba1 60.0(7) 28 .
Ge1 Ge4 Ba1 60.0(7) . .
Ge3 Ge4 Ba1 62.4(4) 2 .
Ge4 Ge4 Ba1 68.3(2) 2 .
Ba2 Ge4 Ba1 108.5(6) . .
Ba2 Ge4 Ba1 108.5(6) 25_556 .
Ge3 Ge4 Ba2 112(4) . 9
Ge2 Ge4 Ba2 67.8(5) 5 9
Rh1 Ge4 Ba2 67.8(5) 5 9
Ge1 Ge4 Ba2 70.1(3) 28 9
Ge1 Ge4 Ba2 70.1(3) . 9
Ge3 Ge4 Ba2 161.2(9) 2 9
Ge4 Ge4 Ba2 167.0(5) 2 9
Ba2 Ge4 Ba2 120.6(5) . 9
Ba2 Ge4 Ba2 120.6(5) 25_556 9
Ba1 Ge4 Ba2 98.7(5) . 9
Ge3 Ge4 Ba2 174(4) . 33_566
Ge2 Ge4 Ba2 6.2(2) 5 33_566
Rh1 Ge4 Ba2 6.2(2) 5 33_566
Ge1 Ge4 Ba2 109.2(7) 28 33_566
Ge1 Ge4 Ba2 109.2(7) . 33_566
Ge3 Ge4 Ba2 137.3(6) 2 33_566
Ge4 Ge4 Ba2 131.43(15) 2 33_566
Ba2 Ge4 Ba2 83.8(6) . 33_566
Ba2 Ge4 Ba2 83.8(6) 25_556 33_566
Ba1 Ge4 Ba2 160.3(3) . 33_566
Ba2 Ge4 Ba2 61.6(4) 9 33_566
loop_
_geom_bond_atom_site_label_1
_geom_bond_atom_site_label_2
_geom_bond_distance
_geom_bond_site_symmetry_2
Ba1 Ge1 3.4059(9) 25
Ba1 Ge1 3.4059(9) .
Ba1 Ge1 3.4059(9) 28
Ba1 Ge1 3.4059(9) 4
Ba1 Ge1 3.4059(9) 27
Ba1 Ge1 3.4059(9) 3
Ba1 Ge1 3.4059(9) 26
Ba1 Ge1 3.4059(9) 2
Ba1 Ge3 3.535(15) 33
Ba1 Ge3 3.535(15) 9
Ba1 Ge3 3.535(15) 29
Ba1 Ge3 3.535(15) 5
Ba2 Ge4 3.513(12) 41_666
Ba2 Ge4 3.513(12) 2
Ba2 Ge4 3.513(12) 42_666
Ba2 Ge4 3.513(12) .
Ba2 Ge4 3.513(12) 18_545
Ba2 Ge4 3.513(12) 25_556
Ba2 Ge4 3.513(12) 17_545
Ba2 Ge4 3.513(12) 26_556
Ba2 Ge3 3.588(6) 41_666
Ba2 Ge3 3.588(6) 2
Ba2 Ge3 3.588(6) .
Ba2 Ge3 3.588(6) 42_666
Ba2 Ge3 3.588(6) 18_545
Ba2 Ge3 3.588(6) 25_556
Ba2 Ge3 3.588(6) 17_545
Ba2 Ge3 3.588(6) 26_556
Ba2 Ge2 3.7859(7) 33_656
Ba2 Ge2 3.7859(7) 29_556
Ba2 Rh1 3.7859(7) 33_656
Ba2 Rh1 3.7859(7) 29_556
Ba2 Ge2 3.7859(7) 9
Ba2 Rh1 3.7859(7) 9
Ba2 Ge2 3.7859(7) 5
Ba2 Rh1 3.7859(7) 5
Ba2 Ge1 3.9809(8) 37_666
Ba2 Ge1 3.9809(8) 27
Ba2 Ge1 3.9809(8) 39_656
Ba2 Ge1 3.9809(8) 26_556
Ba2 Ge1 3.9809(8) .
Ba2 Ge1 3.9809(8) 14
Ba2 Ge1 3.9809(8) 16_545
Ba2 Ge1 3.9809(8) 4_556
Ba2 Ge4 4.029(16) 46_656
Ba2 Ge4 4.029(16) 6_556
Ba2 Ge4 4.029(16) 45_666
Ba2 Ge4 4.029(16) 5
Ba2 Ge3 4.164(11) 46_656
Ba2 Ge3 4.164(11) 6_556
Ba2 Ge3 4.164(11) 45_666
Ba2 Ge3 4.164(11) 5
Rh1 Ge4 2.17(3) 14
Rh1 Ge4 2.17(3) 9
Rh1 Ge4 2.17(3) 37_665
Rh1 Ge4 2.17(3) 34_565
Rh1 Ge3 2.499(16) 14
Rh1 Ge3 2.499(16) 9
Rh1 Ge3 2.499(16) 34_565
Rh1 Ge3 2.499(16) 37_665
Rh1 Ba2 3.7859(7) 33_565
Rh1 Ba2 3.7859(7) 29_665
Rh1 Ba2 3.7859(7) 5
Rh1 Ba2 3.7859(7) 9
Ge2 Ge4 2.17(3) 14
Ge2 Ge4 2.17(3) 9
Ge2 Ge4 2.17(3) 37_665
Ge2 Ge4 2.17(3) 34_565
Ge2 Ge3 2.499(16) 14
Ge2 Ge3 2.499(16) 9
Ge2 Ge3 2.499(16) 34_565
Ge2 Ge3 2.499(16) 37_665
Ge2 Ba2 3.7859(7) 33_565
Ge2 Ba2 3.7859(7) 29_665
Ge2 Ba2 3.7859(7) 5
Ge2 Ba2 3.7859(7) 9
Ge1 Ge1 2.4617(15) 14
Ge1 Ge3 2.491(5) 9
Ge1 Ge3 2.491(5) 5
Ge1 Ge3 2.491(5) .
Ge1 Ge4 2.602(17) .
Ge1 Ge4 2.602(17) 9
Ge1 Ge4 2.602(17) 5
Ge1 Ba2 3.9809(8) 5
Ge1 Ba2 3.9809(8) 9
Ge1 Ba2 6.0749(11) 33_565
Ge3 Ge4 0.33(2) .
Ge3 Ge3 2.48(2) 2
Ge3 Ge1 2.491(5) 28
Ge3 Ge2 2.499(16) 5
Ge3 Rh1 2.499(16) 5
Ge3 Ge4 2.68(3) 2
Ge3 Ba2 3.588(6) 25_556
Ge3 Ba2 4.164(11) 9
Ge4 Ge2 2.17(3) 5
Ge4 Rh1 2.17(3) 5
Ge4 Ge1 2.602(17) 28
Ge4 Ge3 2.68(3) 2
Ge4 Ge4 2.86(4) 2
Ge4 Ba2 3.513(12) 25_556
Ge4 Ba2 4.029(16) 9
Ge4 Ba2 5.93(3) 33_566
