#------------------------------------------------------------------------------
#$Date: 2016-02-16 22:30:59 +0200 (Tue, 16 Feb 2016) $
#$Revision: 176467 $
#$URL: svn://www.crystallography.net/cod/cif/4/33/59/4335959.cif $
#------------------------------------------------------------------------------
#
# This file is available in the Crystallography Open Database (COD),
# http://www.crystallography.net/
#
# All data on this site have been placed in the public domain by the
# contributors.
#
data_4335959
loop_
_publ_author_name
'Charles J. Simmons'
'Horst Stratemeier'
'Michael A. Hitchman'
'Mark J. Riley'
_publ_section_title
;
 Influence of Lattice Interactions on the Jahn-Teller Distortion of the
 [Cu(H2O)6]2+ Ion: Dependence of the Crystal Structure of
 K2xRb2-2x[Cu(H2O)6](SeO4)2 upon the K/Rb Ratio
;
_journal_name_full               'Inorganic Chemistry'
_journal_page_first              10481
_journal_page_last               10499
_journal_paper_doi               10.1021/ic401385f
_journal_volume                  52
_journal_year                    2013
_chemical_formula_moiety         'Cu H12 O14 Rb2 Se2 '
_chemical_formula_sum            'Cu H12 O14 Rb2 Se2'
_chemical_formula_weight         628.49
_space_group_IT_number           14
_symmetry_cell_setting           monoclinic
_symmetry_Int_Tables_number      14
_symmetry_space_group_name_Hall  '-P 2yab'
_symmetry_space_group_name_H-M   'P 1 21/a 1'
_cell_angle_alpha                90
_cell_angle_beta                 104.566(2)
_cell_angle_gamma                90
_cell_formula_units_Z            2
_cell_length_a                   9.3811(2)
_cell_length_b                   12.4639(4)
_cell_length_c                   6.3211(2)
_cell_measurement_reflns_used    9001
_cell_measurement_temperature    90
_cell_measurement_theta_max      40.9
_cell_measurement_theta_min      1.6
_cell_volume                     715.34(4)
_computing_cell_refinement       'HKL Scalepack'
_computing_data_collection       'KappaCCD Server Control'
_computing_data_reduction        'HKL Denzo and Scalepack'
_computing_publication_material  'teXsan for Windows v. 1.06 MSC'
_computing_structure_refinement  'teXsan for Windows v. 1.06 MSC'
_computing_structure_solution
;
SIR92 (Altomare, et. al. 1994)
;
_diffrn_ambient_temperature      90
_diffrn_measured_fraction_theta_full 0.984
_diffrn_measured_fraction_theta_max 0.984
_diffrn_measurement_device       'Nonius CCD camera'
_diffrn_measurement_method       '\f scans \w scans \k offsets'
_diffrn_radiation_detector       'Nonius Kappa CCD'
_diffrn_radiation_monochromator  graphite
_diffrn_radiation_source         'fine-focus sealed x-ray tube'
_diffrn_radiation_type           'Mo K\a'
_diffrn_radiation_wavelength     0.7107
_diffrn_reflns_av_R_equivalents  0.02790
_diffrn_reflns_av_sigmaI/netI    0.060
_diffrn_reflns_limit_h_max       17
_diffrn_reflns_limit_h_min       -17
_diffrn_reflns_limit_k_max       22
_diffrn_reflns_limit_k_min       -22
_diffrn_reflns_limit_l_max       11
_diffrn_reflns_limit_l_min       -11
_diffrn_reflns_number            9001
_diffrn_reflns_theta_full        40.84
_diffrn_reflns_theta_max         40.84
_diffrn_reflns_theta_min         1.63
_diffrn_standards_decay_%        0.00
_diffrn_standards_interval_count 0
_diffrn_standards_number         0
_exptl_absorpt_coefficient_mu    13.426
_exptl_absorpt_correction_T_max  0.891
_exptl_absorpt_correction_T_min  0.743
_exptl_absorpt_correction_type   multi-scan
_exptl_absorpt_process_details   '(Denzo-SMN; Otwinowski & Minor, 1997)'
_exptl_crystal_colour            blue
_exptl_crystal_density_diffrn    2.918
_exptl_crystal_description       sphere
_exptl_crystal_F_000             590.00
_exptl_crystal_size_rad          0.30
_refine_diff_density_max         0.66
_refine_diff_density_min         -1.24
_refine_ls_extinction_coef       0.00000117(3)
_refine_ls_extinction_expression 'equ(3) Acta Cryst.(1968) A24, p213.'
_refine_ls_extinction_method     'Zachariasen (1967)'
_refine_ls_goodness_of_fit_all   1.278
_refine_ls_goodness_of_fit_ref   1.280
_refine_ls_hydrogen_treatment    refall
_refine_ls_matrix_type           full
_refine_ls_number_constraints    0
_refine_ls_number_parameters     113
_refine_ls_number_reflns         3004
_refine_ls_number_restraints     0
_refine_ls_R_factor_all          0.0217
_refine_ls_R_factor_gt           0.0220
_refine_ls_shift/su_max          0.0000
_refine_ls_shift/su_mean         0.0001
_refine_ls_structure_factor_coef F
_refine_ls_weighting_details     'w = 1/[\s^2^(Fo)]'
_refine_ls_weighting_scheme      sigma
_refine_ls_wR_factor_all         0.0230
_refine_ls_wR_factor_ref         0.0230
_reflns_number_gt                3004
_reflns_number_total             4594
_reflns_threshold_expression     I>5.00\s(I)
_cod_data_source_file            ic401385f_si_003_01.cif
_cod_data_source_block           '_Template_texray.inf'
_cod_original_cell_volume        715.34(3)
_cod_original_sg_symbol_H-M      'P 21/a '
_cod_original_formula_sum        'Cu H12 O14 Rb2 Se2 '
_cod_database_code               4335959
loop_
_symmetry_equiv_pos_as_xyz
'   +x,   +y,   +z'
'1/2-x,1/2+y,   -z'
'   -x,   -y,   -z'
'1/2+x,1/2-y,   +z'
loop_
_atom_site_label
_atom_site_fract_x
_atom_site_fract_y
_atom_site_fract_z
_atom_site_U_iso_or_equiv
_atom_site_occupancy
_atom_site_refinement_flags
_atom_site_adp_type
_atom_site_calc_flag
Rb(10) 0.12175(2) 0.345416(13) 0.34281(3) 0.00827(4) 1.000 . Uani d
Se(2) 0.39344(2) 0.137048(13) 0.72513(3) 0.00532(3) 1.000 . Uani d
Cu(1) 0.0000 0.0000 0.0000 0.00513(6) 1.000 S Uani d
O(3) 0.40151(12) 0.24406(9) 0.5768(2) 0.0094(3) 1.000 . Uani d
O(4) 0.54448(12) 0.06701(10) 0.7564(2) 0.0111(3) 1.000 . Uani d
O(5) 0.25409(12) 0.06300(9) 0.5917(2) 0.0077(3) 1.000 . Uani d
O(6) 0.36739(12) 0.17298(10) 0.9625(2) 0.0088(3) 1.000 . Uani d
O(7) 0.14936(13) 0.10891(10) 0.1573(2) 0.0086(3) 1.000 . Uani d
O(8) -0.1876(1) 0.11367(10) 0.0312(2) 0.0099(3) 1.000 . Uani d
O(9) -0.00219(13) -0.06130(10) 0.2825(2) 0.0078(3) 1.000 . Uani d
H(15) 0.189(3) 0.092(3) 0.272(5) 0.067(10) 1.000 . Uiso d
H(16) 0.209(2) 0.120(2) 0.097(4) 0.015(6) 1.000 . Uiso d
H(17) -0.246(2) 0.096(2) -0.052(4) 0.018(6) 1.000 . Uiso d
H(18) -0.160(2) 0.172(2) 0.005(3) 0.015(6) 1.000 . Uiso d
H(19) -0.063(3) -0.057(2) 0.339(4) 0.026(7) 1.000 . Uiso d
H(20) 0.034(3) -0.124(2) 0.325(5) 0.053(8) 1.000 . Uiso d
loop_
_atom_site_aniso_label
_atom_site_aniso_U_11
_atom_site_aniso_U_22
_atom_site_aniso_U_33
_atom_site_aniso_U_12
_atom_site_aniso_U_13
_atom_site_aniso_U_23
Rb(10) 0.00851(7) 0.00999(7) 0.00690(7) 0.00012(5) 0.00305(5) 0.00015(5)
Se(2) 0.00518(7) 0.00700(6) 0.00377(7) -0.00061(5) 0.00114(5) -0.00027(5)
Cu(1) 0.00560(12) 0.00689(12) 0.00294(12) -0.00121(8) 0.00114(9) 0.00034(9)
O(3) 0.0132(6) 0.0087(5) 0.0070(5) -0.0015(4) 0.0037(4) 0.0021(4)
O(4) 0.0055(5) 0.0130(6) 0.0137(6) 0.0027(4) 0.0001(4) -0.0008(5)
O(5) 0.0060(5) 0.0117(5) 0.0054(5) -0.0029(4) 0.0010(4) -0.0019(4)
O(6) 0.0123(6) 0.0110(5) 0.0041(5) -0.0011(4) 0.0037(4) -0.0012(4)
O(7) 0.0086(6) 0.0122(5) 0.0054(5) -0.0023(4) 0.0026(4) 0.0003(4)
O(8) 0.0096(6) 0.0103(6) 0.0092(6) -0.0007(4) 0.0011(4) -0.0002(5)
O(9) 0.0080(5) 0.0100(5) 0.0064(5) 0.0009(4) 0.0038(4) 0.0014(4)
loop_
_atom_type_symbol
_atom_type_oxidation_number
_atom_type_number_in_cell
_atom_type_scat_dispersion_real
_atom_type_scat_dispersion_imag
_atom_type_scat_source
H 0 24 0.000 0.000
;International Tables for Crystallography
(1992, Vol. C, Table 6.1.1.2)
;
O 0 28 0.008 0.006
;International Tables for Crystallography
(1992, Vol. C, Table 6.1.1.2)
;
Cu 0 2 0.263 1.266
;International Tables for Crystallography
(1992, Vol. C, Tables 4.2.6.8 and 6.1.1.1)
;
Se 0 4 -0.178 2.223
;International Tables for Crystallography
(1992, Vol. C, Tables 4.2.6.8 and 6.1.1.1)
;
Rb 0 4 -1.044 2.973
;International Tables for Crystallography
(1992, Vol. C, Tables 4.2.6.8 and 6.1.1.1)
;
loop_
_diffrn_standard_refln_index_h
_diffrn_standard_refln_index_k
_diffrn_standard_refln_index_l
0 0 0
loop_
_geom_angle_atom_site_label_1
_geom_angle_atom_site_label_2
_geom_angle_atom_site_label_3
_geom_angle
_geom_angle_publ_flag
O3 SE2 O4 109.87(7) ?
O3 SE2 O5 107.88(6) ?
O3 SE2 O6 109.81(7) ?
O4 SE2 O5 108.35(7) ?
O4 SE2 O6 111.04(7) ?
O5 SE2 O6 109.82(6) ?
O7 CU1 O7 180.00 ?
O7 CU1 O8 89.71(6) ?
O7 CU1 O9 88.76(6) ?
O8 CU1 O8 180.00 ?
O8 CU1 O9 88.76(6) ?
O9 CU1 O9 180.00 ?
CU1 O7 H15 113.7(28) no
CU1 O7 H16 112.3(19) no
H15 O7 H16 106.5(29) no
CU1 O8 H17 102.2(22) no
CU1 O8 H18 104.4(17) no
H17 O8 H18 111.7(26) no
CU1 O9 H19 126.7(21) no
CU1 O9 H20 122.9(21) no
H19 O9 H20 101.7(27) no
loop_
_geom_bond_atom_site_label_1
_geom_bond_atom_site_label_2
_geom_bond_distance
_geom_bond_publ_flag
SE2 O3 1.6431(13) ?
SE2 O4 1.6334(13) ?
SE2 O5 1.6484(12) ?
SE2 O6 1.6422(13) ?
CU1 O7 2.023(1) ?
CU1 O7 2.023(1) ?
CU1 O8 2.306(1) ?
CU1 O8 2.306(1) ?
CU1 O9 1.9474(13) ?
CU1 O9 1.9474(13) ?
O7 H15 0.76(3) no
O7 H16 0.76(2) no
O8 H17 0.69(2) no
O8 H18 0.81(3) no
O9 H19 0.75(3) no
O9 H20 0.87(3) no
