#------------------------------------------------------------------------------
#$Date: 2016-02-16 22:30:59 +0200 (Tue, 16 Feb 2016) $
#$Revision: 176467 $
#$URL: svn://www.crystallography.net/cod/cif/4/33/59/4335963.cif $
#------------------------------------------------------------------------------
#
# This file is available in the Crystallography Open Database (COD),
# http://www.crystallography.net/
#
# All data on this site have been placed in the public domain by the
# contributors.
#
data_4335963
loop_
_publ_author_name
'Charles J. Simmons'
'Horst Stratemeier'
'Michael A. Hitchman'
'Mark J. Riley'
_publ_section_title
;
 Influence of Lattice Interactions on the Jahn-Teller Distortion of the
 [Cu(H2O)6]2+ Ion: Dependence of the Crystal Structure of
 K2xRb2-2x[Cu(H2O)6](SeO4)2 upon the K/Rb Ratio
;
_journal_name_full               'Inorganic Chemistry'
_journal_page_first              10481
_journal_page_last               10499
_journal_paper_doi               10.1021/ic401385f
_journal_volume                  52
_journal_year                    2013
_chemical_formula_moiety         'Cu H12 O14 Rb2 Se2 '
_chemical_formula_sum            'Cu H12 O14 Rb2 Se2'
_chemical_formula_weight         628.49
_space_group_IT_number           14
_symmetry_cell_setting           monoclinic
_symmetry_Int_Tables_number      14
_symmetry_space_group_name_Hall  '-P 2yab'
_symmetry_space_group_name_H-M   'P 1 21/a 1'
_cell_angle_alpha                90
_cell_angle_beta                 104.657(2)
_cell_angle_gamma                90
_cell_formula_units_Z            2
_cell_length_a                   9.3982(2)
_cell_length_b                   12.5275(4)
_cell_length_c                   6.3404(2)
_cell_measurement_reflns_used    8718
_cell_measurement_temperature    240
_cell_measurement_theta_max      40.2
_cell_measurement_theta_min      1.6
_cell_volume                     722.20(4)
_computing_cell_refinement       'HKL Scalepack'
_computing_data_collection       'KappaCCD Server Control'
_computing_data_reduction        'HKL Denzo and Scalepack'
_computing_publication_material  'teXsan for Windows v. 1.06 MSC'
_computing_structure_refinement  'teXsan for Windows v. 1.06 MSC'
_computing_structure_solution
;
SIR92 (Altomare, et. al. 1994)
;
_diffrn_ambient_temperature      240
_diffrn_measured_fraction_theta_full 0.982
_diffrn_measured_fraction_theta_max 0.982
_diffrn_measurement_device       'Nonius CCD camera'
_diffrn_measurement_method       '\f scans \w scans \k offsets'
_diffrn_radiation_detector       'Nonius Kappa CCD'
_diffrn_radiation_monochromator  graphite
_diffrn_radiation_source         'fine-focus sealed x-ray tube'
_diffrn_radiation_type           'Mo K\a'
_diffrn_radiation_wavelength     0.7107
_diffrn_reflns_av_R_equivalents  0.03603
_diffrn_reflns_av_sigmaI/netI    0.074
_diffrn_reflns_limit_h_max       16
_diffrn_reflns_limit_h_min       -16
_diffrn_reflns_limit_k_max       22
_diffrn_reflns_limit_k_min       -22
_diffrn_reflns_limit_l_max       11
_diffrn_reflns_limit_l_min       -11
_diffrn_reflns_number            8718
_diffrn_reflns_theta_full        40.19
_diffrn_reflns_theta_max         40.19
_diffrn_reflns_theta_min         1.63
_diffrn_standards_decay_%        0.00
_diffrn_standards_interval_count 0
_diffrn_standards_number         0
_exptl_absorpt_coefficient_mu    13.298
_exptl_absorpt_correction_T_max  0.878
_exptl_absorpt_correction_T_min  0.721
_exptl_absorpt_correction_type   multi-scan
_exptl_absorpt_process_details   '(Denzo-SMN; Otwinowski & Minor, 1997)'
_exptl_crystal_colour            blue
_exptl_crystal_density_diffrn    2.890
_exptl_crystal_description       sphere
_exptl_crystal_F_000             590.00
_exptl_crystal_size_rad          0.30
_refine_diff_density_max         0.47
_refine_diff_density_min         -0.52
_refine_ls_extinction_coef       0.00000120(3)
_refine_ls_extinction_expression 'equ(3) Acta Cryst.(1968) A24, p213.'
_refine_ls_extinction_method     'Zachariasen (1967)'
_refine_ls_goodness_of_fit_all   1.261
_refine_ls_goodness_of_fit_ref   1.260
_refine_ls_hydrogen_treatment    refall
_refine_ls_matrix_type           full
_refine_ls_number_constraints    0
_refine_ls_number_parameters     113
_refine_ls_number_reflns         2188
_refine_ls_number_restraints     0
_refine_ls_R_factor_all          0.0205
_refine_ls_R_factor_gt           0.0210
_refine_ls_shift/su_max          0.0000
_refine_ls_shift/su_mean         0.0006
_refine_ls_structure_factor_coef F
_refine_ls_weighting_details     'w = 1/[\s^2^(Fo)]'
_refine_ls_weighting_scheme      sigma
_refine_ls_wR_factor_all         0.0210
_refine_ls_wR_factor_ref         0.0210
_reflns_number_gt                2188
_reflns_number_total             4442
_reflns_threshold_expression     I>5.00\s(I)
_cod_data_source_file            ic401385f_si_003_05.cif
_cod_data_source_block           '_Template_texray.inf4'
_cod_original_cell_volume        722.20(3)
_cod_original_sg_symbol_H-M      'P 21/a '
_cod_original_formula_sum        'Cu H12 O14 Rb2 Se2 '
_cod_database_code               4335963
loop_
_symmetry_equiv_pos_as_xyz
'   +x,   +y,   +z'
'1/2-x,1/2+y,   -z'
'   -x,   -y,   -z'
'1/2+x,1/2-y,   +z'
loop_
_atom_site_label
_atom_site_fract_x
_atom_site_fract_y
_atom_site_fract_z
_atom_site_U_iso_or_equiv
_atom_site_occupancy
_atom_site_refinement_flags
_atom_site_adp_type
_atom_site_calc_flag
Rb(10) 0.12299(2) 0.34638(2) 0.34385(3) 0.02295(5) 1.000 . Uani d
Se(2) 0.39438(2) 0.13858(2) 0.72830(3) 0.01481(5) 1.000 . Uani d
Cu(1) 0.0000 0.0000 0.0000 0.01368(8) 1.000 S Uani d
O(3) 0.4028(1) 0.24435(12) 0.5800(2) 0.0235(4) 1.000 . Uani d
O(4) 0.5443(1) 0.06892(12) 0.7604(3) 0.0285(4) 1.000 . Uani d
O(5) 0.25591(13) 0.06501(11) 0.5951(2) 0.0191(4) 1.000 . Uani d
O(6) 0.3678(1) 0.17476(12) 0.9638(2) 0.0223(4) 1.000 . Uani d
O(7) 0.1508(2) 0.10951(13) 0.1593(3) 0.0215(4) 1.000 . Uani d
O(8) -0.1851(2) 0.1123(1) 0.0303(3) 0.0239(4) 1.000 . Uani d
O(9) -0.0027(2) -0.06148(13) 0.2806(2) 0.0182(4) 1.000 . Uani d
H(15) 0.201(3) 0.089(3) 0.293(5) 0.074(10) 1.000 . Uiso d
H(16) 0.208(3) 0.119(2) 0.103(4) 0.034(8) 1.000 . Uiso d
H(17) -0.249(3) 0.104(2) -0.060(4) 0.036(8) 1.000 . Uiso d
H(18) -0.160(2) 0.171(2) 0.001(4) 0.016(6) 1.000 . Uiso d
H(19) -0.064(3) -0.057(2) 0.319(5) 0.050(9) 1.000 . Uiso d
H(20) 0.024(3) -0.118(3) 0.325(5) 0.056(9) 1.000 . Uiso d
loop_
_atom_site_aniso_label
_atom_site_aniso_U_11
_atom_site_aniso_U_22
_atom_site_aniso_U_33
_atom_site_aniso_U_12
_atom_site_aniso_U_13
_atom_site_aniso_U_23
Rb(10) 0.02366(10) 0.02454(12) 0.02198(10) 0.00010(8) 0.00825(7) 0.00028(9)
Se(2) 0.01408(9) 0.01656(10) 0.01356(9) -0.00184(7) 0.00307(6) -0.00054(8)
Cu(1) 0.0140(2) 0.0157(2) 0.0112(2) -0.00266(11) 0.00302(12) 0.00078(12)
O(3) 0.0330(8) 0.0201(8) 0.0184(8) -0.0044(6) 0.0083(6) 0.0032(6)
O(4) 0.0169(7) 0.0287(9) 0.0376(10) 0.0044(6) 0.0027(6) -0.0024(8)
O(5) 0.0156(6) 0.0244(9) 0.0171(7) -0.0055(5) 0.0036(5) -0.0034(6)
O(6) 0.0307(7) 0.0246(8) 0.0126(7) -0.0021(6) 0.0075(6) -0.0024(6)
O(7) 0.0203(7) 0.0290(9) 0.0147(7) -0.0048(6) 0.0038(6) 0.0010(7)
O(8) 0.0219(8) 0.0230(9) 0.0252(9) -0.0025(7) 0.0031(7) 0.0020(7)
O(9) 0.0195(7) 0.0198(9) 0.0168(7) 0.0010(6) 0.0071(6) 0.0033(6)
loop_
_atom_type_symbol
_atom_type_oxidation_number
_atom_type_number_in_cell
_atom_type_scat_dispersion_real
_atom_type_scat_dispersion_imag
_atom_type_scat_source
H 0 24 0.000 0.000
;International Tables for Crystallography
(1992, Vol. C, Table 6.1.1.2)
;
O 0 28 0.008 0.006
;International Tables for Crystallography
(1992, Vol. C, Table 6.1.1.2)
;
Cu 0 2 0.263 1.266
;International Tables for Crystallography
(1992, Vol. C, Tables 4.2.6.8 and 6.1.1.1)
;
Se 0 4 -0.178 2.223
;International Tables for Crystallography
(1992, Vol. C, Tables 4.2.6.8 and 6.1.1.1)
;
Rb 0 4 -1.044 2.973
;International Tables for Crystallography
(1992, Vol. C, Tables 4.2.6.8 and 6.1.1.1)
;
loop_
_diffrn_standard_refln_index_h
_diffrn_standard_refln_index_k
_diffrn_standard_refln_index_l
0 0 0
loop_
_geom_angle_atom_site_label_1
_geom_angle_atom_site_label_2
_geom_angle_atom_site_label_3
_geom_angle
_geom_angle_publ_flag
O3 SE2 O4 109.85(8) ?
O3 SE2 O5 107.79(8) ?
O3 SE2 O6 109.87(8) ?
O4 SE2 O5 108.17(8) ?
O4 SE2 O6 111.19(9) ?
O5 SE2 O6 109.89(8) ?
O7 CU1 O7 180.00 ?
O7 CU1 O8 89.57(7) ?
O7 CU1 O9 88.95(7) ?
O8 CU1 O8 180.00 ?
O8 CU1 O9 88.87(7) ?
O9 CU1 O9 180.00 ?
CU1 O7 H15 113.7(22) no
CU1 O7 H16 112.1(23) no
H15 O7 H16 103.8(28) no
CU1 O8 H17 109.6(24) no
CU1 O8 H18 105.6(17) no
H17 O8 H18 100.8(28) no
CU1 O9 H19 120.2(29) no
CU1 O9 H20 127.8(25) no
H19 O9 H20 99.8(33) no
loop_
_geom_bond_atom_site_label_1
_geom_bond_atom_site_label_2
_geom_bond_distance
_geom_bond_publ_flag
SE2 O3 1.638(2) ?
SE2 O4 1.626(2) ?
SE2 O5 1.643(1) ?
SE2 O6 1.639(2) ?
CU1 O7 2.046(2) ?
CU1 O7 2.046(2) ?
CU1 O8 2.283(2) ?
CU1 O8 2.283(2) ?
CU1 O9 1.945(2) ?
CU1 O9 1.945(2) ?
O7 H15 0.90(4) no
O7 H16 0.73(3) no
O8 H17 0.72(3) no
O8 H18 0.81(2) no
O9 H19 0.68(3) no
O9 H20 0.78(4) no
