#------------------------------------------------------------------------------
#$Date: 2016-02-16 22:30:59 +0200 (Tue, 16 Feb 2016) $
#$Revision: 176467 $
#$URL: svn://www.crystallography.net/cod/cif/4/33/59/4335961.cif $
#------------------------------------------------------------------------------
#
# This file is available in the Crystallography Open Database (COD),
# http://www.crystallography.net/
#
# All data on this site have been placed in the public domain by the
# contributors.
#
data_4335961
loop_
_publ_author_name
'Charles J. Simmons'
'Horst Stratemeier'
'Michael A. Hitchman'
'Mark J. Riley'
_publ_section_title
;
 Influence of Lattice Interactions on the Jahn-Teller Distortion of the
 [Cu(H2O)6]2+ Ion: Dependence of the Crystal Structure of
 K2xRb2-2x[Cu(H2O)6](SeO4)2 upon the K/Rb Ratio
;
_journal_name_full               'Inorganic Chemistry'
_journal_page_first              10481
_journal_page_last               10499
_journal_paper_doi               10.1021/ic401385f
_journal_volume                  52
_journal_year                    2013
_chemical_formula_moiety         'Cu H12 O14 Rb2 Se2 '
_chemical_formula_sum            'Cu H12 O14 Rb2 Se2'
_chemical_formula_weight         628.49
_space_group_IT_number           14
_symmetry_cell_setting           monoclinic
_symmetry_Int_Tables_number      14
_symmetry_space_group_name_Hall  '-P 2yab'
_symmetry_space_group_name_H-M   'P 1 21/a 1'
_cell_angle_alpha                90
_cell_angle_beta                 104.598(2)
_cell_angle_gamma                90
_cell_formula_units_Z            2
_cell_length_a                   9.3926(2)
_cell_length_b                   12.4986(4)
_cell_length_c                   6.3290(2)
_cell_measurement_reflns_used    6886
_cell_measurement_temperature    170
_cell_measurement_theta_max      37.0
_cell_measurement_theta_min      1.6
_cell_volume                     719.00(4)
_computing_cell_refinement       'HKL Scalepack'
_computing_data_collection       'KappaCCD Server Control'
_computing_data_reduction        'HKL Denzo and Scalepack'
_computing_publication_material  'teXsan for Windows v. 1.06 MSC'
_computing_structure_refinement  'teXsan for Windows v. 1.06 MSC'
_computing_structure_solution
;
SIR92 (Altomare, et. al. 1994)
;
_diffrn_ambient_temperature      170
_diffrn_measured_fraction_theta_full 0.991
_diffrn_measured_fraction_theta_max 0.991
_diffrn_measurement_device       'Nonius CCD camera'
_diffrn_measurement_method       '\f scans \w scans \k offsets'
_diffrn_radiation_detector       'Nonius Kappa CCD'
_diffrn_radiation_monochromator  graphite
_diffrn_radiation_source         'fine-focus sealed x-ray tube'
_diffrn_radiation_type           'Mo K\a'
_diffrn_radiation_wavelength     0.7107
_diffrn_reflns_av_R_equivalents  0.02865
_diffrn_reflns_av_sigmaI/netI    0.059
_diffrn_reflns_limit_h_max       15
_diffrn_reflns_limit_h_min       -15
_diffrn_reflns_limit_k_max       20
_diffrn_reflns_limit_k_min       -21
_diffrn_reflns_limit_l_max       10
_diffrn_reflns_limit_l_min       -10
_diffrn_reflns_number            6886
_diffrn_reflns_theta_full        37.01
_diffrn_reflns_theta_max         37.01
_diffrn_reflns_theta_min         1.63
_diffrn_standards_decay_%        0.00
_diffrn_standards_interval_count 0
_diffrn_standards_number         0
_exptl_absorpt_coefficient_mu    13.357
_exptl_absorpt_correction_T_max  0.866
_exptl_absorpt_correction_T_min  0.702
_exptl_absorpt_correction_type   multi-scan
_exptl_absorpt_process_details   '(Denzo-SMN; Otwinowski & Minor, 1997)'
_exptl_crystal_colour            blue
_exptl_crystal_density_diffrn    2.903
_exptl_crystal_description       sphere
_exptl_crystal_F_000             590.00
_exptl_crystal_size_rad          0.30
_refine_diff_density_max         0.62
_refine_diff_density_min         -0.76
_refine_ls_extinction_coef       0.00000100(3)
_refine_ls_extinction_expression 'equ(3) Acta Cryst.(1968) A24, p213.'
_refine_ls_extinction_method     'Zachariasen (1967)'
_refine_ls_goodness_of_fit_all   1.287
_refine_ls_goodness_of_fit_ref   1.290
_refine_ls_hydrogen_treatment    refall
_refine_ls_matrix_type           full
_refine_ls_number_constraints    0
_refine_ls_number_parameters     113
_refine_ls_number_reflns         2183
_refine_ls_number_restraints     0
_refine_ls_R_factor_all          0.0211
_refine_ls_R_factor_gt           0.0210
_refine_ls_shift/su_max          0.0000
_refine_ls_shift/su_mean         0.0000
_refine_ls_structure_factor_coef F
_refine_ls_weighting_details     'w = 1/[\s^2^(Fo)]'
_refine_ls_weighting_scheme      sigma
_refine_ls_wR_factor_all         0.0200
_refine_ls_wR_factor_ref         0.0200
_reflns_number_gt                2183
_reflns_number_total             3614
_reflns_threshold_expression     I>5.00\s(I)
_cod_data_source_file            ic401385f_si_003_03.cif
_cod_data_source_block           '_Template_texray.inf2'
_cod_original_cell_volume        719.00(3)
_cod_original_sg_symbol_H-M      'P 21/a '
_cod_original_formula_sum        'Cu H12 O14 Rb2 Se2 '
_cod_database_code               4335961
loop_
_symmetry_equiv_pos_as_xyz
'   +x,   +y,   +z'
'1/2-x,1/2+y,   -z'
'   -x,   -y,   -z'
'1/2+x,1/2-y,   +z'
loop_
_atom_site_label
_atom_site_fract_x
_atom_site_fract_y
_atom_site_fract_z
_atom_site_U_iso_or_equiv
_atom_site_occupancy
_atom_site_refinement_flags
_atom_site_adp_type
_atom_site_calc_flag
Rb(10) 0.12218(2) 0.34592(2) 0.34319(3) 0.01583(5) 1.000 . Uani d
Se(2) 0.39358(2) 0.13781(2) 0.72654(3) 0.01017(5) 1.000 . Uani d
Cu(1) 0.0000 0.0000 0.0000 0.00957(8) 1.000 S Uani d
O(3) 0.4021(1) 0.24436(11) 0.5779(2) 0.0164(4) 1.000 . Uani d
O(4) 0.5441(2) 0.06789(12) 0.7580(3) 0.0200(4) 1.000 . Uani d
O(5) 0.2546(1) 0.06386(11) 0.5929(2) 0.0134(4) 1.000 . Uani d
O(6) 0.3670(2) 0.17390(12) 0.9634(2) 0.0157(4) 1.000 . Uani d
O(7) 0.1496(2) 0.10905(13) 0.1582(3) 0.0151(4) 1.000 . Uani d
O(8) -0.1868(2) 0.11317(13) 0.0306(3) 0.0163(4) 1.000 . Uani d
O(9) -0.0026(2) -0.06109(13) 0.2814(2) 0.0126(4) 1.000 . Uani d
H(15) 0.185(3) 0.093(2) 0.286(4) 0.054(9) 1.000 . Uiso d
H(16) 0.209(2) 0.122(2) 0.104(4) 0.014(6) 1.000 . Uiso d
H(17) -0.254(3) 0.100(2) -0.053(4) 0.032(8) 1.000 . Uiso d
H(18) -0.162(3) 0.170(2) 0.002(4) 0.030(8) 1.000 . Uiso d
H(19) -0.079(3) -0.062(2) 0.330(5) 0.055(9) 1.000 . Uiso d
H(20) 0.017(3) -0.114(2) 0.318(4) 0.026(8) 1.000 . Uiso d
loop_
_atom_site_aniso_label
_atom_site_aniso_U_11
_atom_site_aniso_U_22
_atom_site_aniso_U_33
_atom_site_aniso_U_12
_atom_site_aniso_U_13
_atom_site_aniso_U_23
Rb(10) 0.01665(10) 0.01761(10) 0.01448(10) 0.00020(8) 0.00627(7) 0.00028(8)
Se(2) 0.01004(9) 0.01210(10) 0.00852(9) -0.00120(7) 0.00263(7) -0.00045(8)
Cu(1) 0.0103(2) 0.0115(2) 0.0072(2) -0.00193(12) 0.00283(13) 0.00055(12)
O(3) 0.0237(8) 0.0138(7) 0.0125(7) -0.0041(6) 0.0060(6) 0.0021(6)
O(4) 0.0100(7) 0.0216(8) 0.0269(9) 0.0034(6) 0.0020(6) -0.0019(7)
O(5) 0.0101(7) 0.0181(8) 0.0115(7) -0.0051(6) 0.0021(5) -0.0034(6)
O(6) 0.0218(8) 0.0188(8) 0.0075(6) -0.0012(6) 0.0058(6) -0.0018(6)
O(7) 0.0157(8) 0.0203(8) 0.0093(7) -0.0039(6) 0.0033(6) 0.0005(6)
O(8) 0.0136(8) 0.0167(9) 0.0183(8) -0.0005(6) 0.0034(6) 0.0016(7)
O(9) 0.0146(8) 0.0138(8) 0.0108(7) 0.0010(6) 0.0055(6) 0.0031(6)
loop_
_atom_type_symbol
_atom_type_oxidation_number
_atom_type_number_in_cell
_atom_type_scat_dispersion_real
_atom_type_scat_dispersion_imag
_atom_type_scat_source
H 0 24 0.000 0.000
;International Tables for Crystallography
(1992, Vol. C, Table 6.1.1.2)
;
O 0 28 0.008 0.006
;International Tables for Crystallography
(1992, Vol. C, Table 6.1.1.2)
;
Cu 0 2 0.263 1.266
;International Tables for Crystallography
(1992, Vol. C, Tables 4.2.6.8 and 6.1.1.1)
;
Se 0 4 -0.178 2.223
;International Tables for Crystallography
(1992, Vol. C, Tables 4.2.6.8 and 6.1.1.1)
;
Rb 0 4 -1.044 2.973
;International Tables for Crystallography
(1992, Vol. C, Tables 4.2.6.8 and 6.1.1.1)
;
loop_
_diffrn_standard_refln_index_h
_diffrn_standard_refln_index_k
_diffrn_standard_refln_index_l
0 0 0
loop_
_geom_angle_atom_site_label_1
_geom_angle_atom_site_label_2
_geom_angle_atom_site_label_3
_geom_angle
_geom_angle_publ_flag
O3 SE2 O4 109.74(8) ?
O3 SE2 O5 107.88(8) ?
O3 SE2 O6 109.88(8) ?
O4 SE2 O5 108.20(8) ?
O4 SE2 O6 111.23(8) ?
O5 SE2 O6 109.82(8) ?
O7 CU1 O7 180.00 ?
O7 CU1 O8 89.64(7) ?
O7 CU1 O9 88.79(7) ?
O8 CU1 O8 180.00 ?
O8 CU1 O9 88.77(7) ?
O9 CU1 O9 180.00 ?
CU1 O7 H15 112.4(23) no
CU1 O7 H16 115.1(20) no
H15 O7 H16 110.1(29) no
CU1 O8 H17 109.9(24) no
CU1 O8 H18 105.2(21) no
H17 O8 H18 106.8(28) no
CU1 O9 H19 122.7(22) no
CU1 O9 H20 127.0(24) no
H19 O9 H20 92.8(29) no
loop_
_geom_bond_atom_site_label_1
_geom_bond_atom_site_label_2
_geom_bond_distance
_geom_bond_publ_flag
SE2 O3 1.644(2) ?
SE2 O4 1.631(2) ?
SE2 O5 1.649(1) ?
SE2 O6 1.644(2) ?
CU1 O7 2.031(2) ?
CU1 O7 2.031(2) ?
CU1 O8 2.300(2) ?
CU1 O8 2.300(2) ?
CU1 O9 1.944(2) ?
CU1 O9 1.944(2) ?
O7 H15 0.82(3) no
O7 H16 0.74(3) no
O8 H17 0.74(3) no
O8 H18 0.79(3) no
O9 H19 0.85(3) no
O9 H20 0.71(3) no
