#------------------------------------------------------------------------------
#$Date: 2016-03-23 22:01:52 +0200 (Wed, 23 Mar 2016) $
#$Revision: 179463 $
#$URL: svn://www.crystallography.net/cod/cif/4/33/60/4336038.cif $
#------------------------------------------------------------------------------
#
# This file is available in the Crystallography Open Database (COD),
# http://www.crystallography.net/
#
# All data on this site have been placed in the public domain by the
# contributors.
#
data_4336038
loop_
_publ_author_name
'Charles J. Simmons'
'Horst Stratemeier'
'Michael A. Hitchman'
'Mark J. Riley'
_publ_section_title
;
 Influence of Lattice Interactions on the Jahn-Teller Distortion of the
 [Cu(H2O)6]2+ Ion: Dependence of the Crystal Structure of
 K2xRb2-2x[Cu(H2O)6](SeO4)2 upon the K/Rb Ratio
;
_journal_name_full               'Inorganic Chemistry'
_journal_page_first              10481
_journal_page_last               10499
_journal_paper_doi               10.1021/ic401385f
_journal_volume                  52
_journal_year                    2013
_chemical_formula_moiety         'H12 O14 Rb2 Se2 Zn'
_chemical_formula_sum            'H12 O14 Rb2 Se2 Zn'
_chemical_formula_weight         630.32
_space_group_IT_number           14
_symmetry_cell_setting           monoclinic
_symmetry_Int_Tables_number      14
_symmetry_space_group_name_Hall  '-P 2yab'
_symmetry_space_group_name_H-M   'P 1 21/a 1'
_cell_angle_alpha                90
_cell_angle_beta                 105.0255(13)
_cell_angle_gamma                90
_cell_formula_units_Z            2
_cell_length_a                   9.3149(2)
_cell_length_b                   12.5466(3)
_cell_length_c                   6.34330(10)
_cell_measurement_reflns_used    6265
_cell_measurement_temperature    100
_cell_measurement_theta_max      35.6
_cell_measurement_theta_min      1.6
_cell_volume                     716.00(3)
_computing_cell_refinement       'HKL Scalepack'
_computing_data_collection       'Kappa CCD Server Control'
_computing_data_reduction        'HKL Denzo and Scalepack'
_computing_publication_material  'teXsan for Windows v. 1.06 MSC'
_computing_structure_refinement  'teXsan for Windows v. 1.06 MSC'
_computing_structure_solution
;
SIR92 (Altomare, et. al. 1994)
;
_diffrn_ambient_temperature      100
_diffrn_measured_fraction_theta_full 0.987
_diffrn_measured_fraction_theta_max 0.987
_diffrn_measurement_device       'Nonius CCD camera'
_diffrn_measurement_method       '\f scans \w scans \k offsets'
_diffrn_radiation_detector       'Nonius Kappa CCD'
_diffrn_radiation_monochromator  graphite
_diffrn_radiation_source         'fine-focus sealed x-ray tube'
_diffrn_radiation_type           'Mo K\a'
_diffrn_radiation_wavelength     0.7107
_diffrn_reflns_av_R_equivalents  0.02253
_diffrn_reflns_av_sigmaI/netI    0.040
_diffrn_reflns_limit_h_max       15
_diffrn_reflns_limit_h_min       -15
_diffrn_reflns_limit_k_max       18
_diffrn_reflns_limit_k_min       -20
_diffrn_reflns_limit_l_max       10
_diffrn_reflns_limit_l_min       -10
_diffrn_reflns_number            6265
_diffrn_reflns_theta_full        35.63
_diffrn_reflns_theta_max         35.63
_diffrn_reflns_theta_min         1.63
_diffrn_standards_decay_%        0.00
_diffrn_standards_interval_count 0
_diffrn_standards_number         0
_exptl_absorpt_coefficient_mu    13.604
_exptl_absorpt_correction_T_max  0.887
_exptl_absorpt_correction_T_min  0.721
_exptl_absorpt_correction_type   multi-scan
_exptl_absorpt_process_details   '(Denzo-SMN; Otwinowski & Minor, 1997)'
_exptl_crystal_colour            white
_exptl_crystal_density_diffrn    2.923
_exptl_crystal_description       sphere
_exptl_crystal_F_000             592.00
_exptl_crystal_size_rad          0.30
_refine_diff_density_max         0.76
_refine_diff_density_min         -0.66
_refine_ls_extinction_coef       0.00000379(6)
_refine_ls_extinction_expression 'equ(3) Acta Cryst.(1968) A24, p213.'
_refine_ls_extinction_method     'Zachariasen (1967)'
_refine_ls_goodness_of_fit_all   1.421
_refine_ls_goodness_of_fit_ref   1.420
_refine_ls_hydrogen_treatment    refall
_refine_ls_matrix_type           full
_refine_ls_number_constraints    0
_refine_ls_number_parameters     113
_refine_ls_number_reflns         2507
_refine_ls_number_restraints     0
_refine_ls_R_factor_all          0.0191
_refine_ls_R_factor_gt           0.0190
_refine_ls_shift/su_max          0.0000
_refine_ls_shift/su_mean         0.0000
_refine_ls_structure_factor_coef F
_refine_ls_weighting_details     'w = 1/[\s^2^(Fo)]'
_refine_ls_weighting_scheme      sigma
_refine_ls_wR_factor_all         0.0210
_refine_ls_wR_factor_ref         0.0210
_reflns_number_gt                2507
_reflns_number_total             3278
_reflns_threshold_expression     I>5.00\s(I)
_cod_data_source_file            ic401385f_si_003_80.cif
_cod_data_source_block           '_Template_texray.inf79'
_cod_original_cell_volume        716.00(2)
_cod_original_sg_symbol_H-M      'P 21/a '
_cod_database_code               4336038
loop_
_symmetry_equiv_pos_as_xyz
'   +x,   +y,   +z'
'1/2-x,1/2+y,   -z'
'   -x,   -y,   -z'
'1/2+x,1/2-y,   +z'
loop_
_atom_site_label
_atom_site_fract_x
_atom_site_fract_y
_atom_site_fract_z
_atom_site_U_iso_or_equiv
_atom_site_occupancy
_atom_site_refinement_flags
_atom_site_adp_type
_atom_site_calc_flag
Rb(10) 0.13448(2) 0.343586(12) 0.34294(2) 0.00746(4) 1.000 . Uani d
Se(2) 0.40653(2) 0.136381(12) 0.73004(2) 0.00355(4) 1.000 . Uani d
Zn(1) 0.0000 0.0000 0.0000 0.00364(6) 1.000 S Uani d
O(3) 0.41509(12) 0.23866(9) 0.5725(2) 0.0083(3) 1.000 . Uani d
O(4) 0.55924(12) 0.06628(10) 0.7715(2) 0.0118(3) 1.000 . Uani d
O(5) 0.26665(11) 0.06088(9) 0.6014(2) 0.0066(3) 1.000 . Uani d
O(6) 0.37954(12) 0.17896(9) 0.9624(2) 0.0082(3) 1.000 . Uani d
O(7) 0.16278(13) 0.11082(10) 0.1643(2) 0.0070(3) 1.000 . Uani d
O(8) -0.16780(13) 0.10991(10) 0.0282(2) 0.0070(3) 1.000 . Uani d
O(9) -0.00204(13) -0.06416(10) 0.2945(2) 0.0069(3) 1.000 . Uani d
H(15) 0.207(3) 0.091(2) 0.288(4) 0.029(6) 1.000 . Uiso d
H(16) 0.223(2) 0.123(2) 0.114(3) 0.009(5) 1.000 . Uiso d
H(17) -0.245(2) 0.103(2) -0.060(3) 0.017(5) 1.000 . Uiso d
H(18) -0.146(2) 0.171(2) -0.006(3) 0.013(5) 1.000 . Uiso d
H(19) -0.058(3) -0.049(2) 0.333(5) 0.054(9) 1.000 . Uiso d
H(20) 0.026(3) -0.130(2) 0.326(4) 0.039(7) 1.000 . Uiso d
loop_
_atom_site_aniso_label
_atom_site_aniso_U_11
_atom_site_aniso_U_22
_atom_site_aniso_U_33
_atom_site_aniso_U_12
_atom_site_aniso_U_13
_atom_site_aniso_U_23
Rb(10) 0.00757(7) 0.00795(8) 0.00729(7) -0.00039(5) 0.00267(5) 0.00010(5)
Se(2) 0.00263(7) 0.00435(8) 0.00333(7) -0.00065(5) 0.00018(5) -0.00053(5)
Zn(1) 0.00297(11) 0.00452(12) 0.00318(10) -0.00056(9) 0.00036(9) -0.00002(9)
O(3) 0.0130(5) 0.0055(5) 0.0068(5) -0.0025(4) 0.0031(4) 0.0020(4)
O(4) 0.0054(5) 0.0136(6) 0.0153(6) 0.0034(5) 0.0006(5) -0.0021(5)
O(5) 0.0039(5) 0.0082(6) 0.0070(5) -0.0039(4) -0.0000(4) -0.0031(4)
O(6) 0.0122(5) 0.0089(6) 0.0038(5) -0.0012(4) 0.0026(4) -0.0012(4)
O(7) 0.0060(5) 0.0100(6) 0.0042(5) -0.0025(4) 0.0001(4) -0.0000(5)
O(8) 0.0052(5) 0.0074(6) 0.0078(5) 0.0004(4) 0.0003(4) 0.0004(5)
O(9) 0.0072(5) 0.0084(6) 0.0056(5) 0.0020(4) 0.0026(4) 0.0014(4)
loop_
_atom_type_symbol
_atom_type_oxidation_number
_atom_type_number_in_cell
_atom_type_scat_dispersion_real
_atom_type_scat_dispersion_imag
_atom_type_scat_source
H 0 24 0.000 0.000
;International Tables for Crystallography
(1992, Vol. C, Table 6.1.1.2)
;
O 0 28 0.008 0.006
;International Tables for Crystallography
(1992, Vol. C, Table 6.1.1.2)
;
Zn 0 2 0.222 1.431
;International Tables for Crystallography
(1992, Vol. C, Tables 4.2.6.8 and 6.1.1.1)
;
Se 0 4 -0.178 2.223
;International Tables for Crystallography
(1992, Vol. C, Tables 4.2.6.8 and 6.1.1.1)
;
Rb 0 4 -1.044 2.973
;International Tables for Crystallography
(1992, Vol. C, Tables 4.2.6.8 and 6.1.1.1)
;
loop_
_diffrn_standard_refln_index_h
_diffrn_standard_refln_index_k
_diffrn_standard_refln_index_l
0 0 0
loop_
_geom_angle_atom_site_label_1
_geom_angle_atom_site_label_2
_geom_angle_atom_site_label_3
_geom_angle
_geom_angle_publ_flag
O3 SE2 O4 109.95(6) ?
O3 SE2 O5 107.78(7) ?
O3 SE2 O6 109.53(6) ?
O4 SE2 O5 108.31(7) ?
O4 SE2 O6 111.02(7) ?
O5 SE2 O6 110.20(6) ?
O7 ZN1 O7 180.00 ?
O7 ZN1 O8 88.91(5) ?
O7 ZN1 O9 89.08(6) ?
O8 ZN1 O8 180.00 ?
O8 ZN1 O9 89.85(5) ?
O9 ZN1 O9 180.00 ?
ZN1 O7 H15 112.3(20) no
ZN1 O7 H16 117.4(18) no
H15 O7 H16 103.4(25) no
ZN1 O8 H17 114.6(18) no
ZN1 O8 H18 110.1(15) no
H17 O8 H18 99.1(24) no
ZN1 O9 H19 114.8(32) no
ZN1 O9 H20 120.5(18) no
H19 O9 H20 114.4(34) no
loop_
_geom_bond_atom_site_label_1
_geom_bond_atom_site_label_2
_geom_bond_distance
_geom_bond_publ_flag
SE2 O3 1.6412(12) ?
SE2 O4 1.6347(13) ?
SE2 O5 1.6460(13) ?
SE2 O6 1.6474(12) ?
ZN1 O7 2.121(1) ?
ZN1 O7 2.121(1) ?
ZN1 O8 2.126(1) ?
ZN1 O8 2.126(1) ?
ZN1 O9 2.0386(13) ?
ZN1 O9 2.0386(13) ?
O7 H15 0.82(3) no
O7 H16 0.73(2) no
O8 H17 0.80(3) no
O8 H18 0.84(2) no
O9 H19 0.66(3) no
O9 H20 0.87(3) no
