#------------------------------------------------------------------------------
#$Date: 2016-03-23 22:01:52 +0200 (Wed, 23 Mar 2016) $
#$Revision: 179463 $
#$URL: svn://www.crystallography.net/cod/cif/4/33/60/4336035.cif $
#------------------------------------------------------------------------------
#
# This file is available in the Crystallography Open Database (COD),
# http://www.crystallography.net/
#
# All data on this site have been placed in the public domain by the
# contributors.
#
data_4336035
loop_
_publ_author_name
'Charles J. Simmons'
'Horst Stratemeier'
'Michael A. Hitchman'
'Mark J. Riley'
_publ_section_title
;
 Influence of Lattice Interactions on the Jahn-Teller Distortion of the
 [Cu(H2O)6]2+ Ion: Dependence of the Crystal Structure of
 K2xRb2-2x[Cu(H2O)6](SeO4)2 upon the K/Rb Ratio
;
_journal_name_full               'Inorganic Chemistry'
_journal_page_first              10481
_journal_page_last               10499
_journal_paper_doi               10.1021/ic401385f
_journal_volume                  52
_journal_year                    2013
_chemical_formula_moiety         'Cu H12 K2 O14 Se2'
_chemical_formula_sum            'Cu H12 K2 O14 Se2'
_chemical_formula_weight         535.75
_space_group_IT_number           14
_symmetry_cell_setting           monoclinic
_symmetry_Int_Tables_number      14
_symmetry_space_group_name_Hall  '-P 2yab'
_symmetry_space_group_name_H-M   'P 1 21/a 1'
_cell_angle_alpha                90
_cell_angle_beta                 103.3209(8)
_cell_angle_gamma                90
_cell_formula_units_Z            2
_cell_length_a                   9.17710(10)
_cell_length_b                   12.2753(2)
_cell_length_c                   6.34050(10)
_cell_measurement_reflns_used    8358
_cell_measurement_temperature    298
_cell_measurement_theta_max      40.3
_cell_measurement_theta_min      1.6
_cell_volume                     695.050(18)
_computing_cell_refinement       'HKL Scalepack'
_computing_data_collection       'Kappa CCD Server Control'
_computing_data_reduction        'HKL Denzo and Scalepack'
_computing_publication_material  'teXsan for Windows v. 1.06 MSC'
_computing_structure_refinement  'teXsan for Windows v. 1.06 MSC'
_computing_structure_solution
;
SIR92 (Altomare, et. al. 1994)
;
_diffrn_ambient_temperature      298
_diffrn_measured_fraction_theta_full 0.994
_diffrn_measured_fraction_theta_max 0.994
_diffrn_measurement_device       'Nonius CCD camera'
_diffrn_measurement_method       '\f scans \w scans \k offsets'
_diffrn_radiation_detector       'Nonius Kappa CCD'
_diffrn_radiation_monochromator  graphite
_diffrn_radiation_source         'fine-focus sealed x-ray tube'
_diffrn_radiation_type           'Mo K\a'
_diffrn_radiation_wavelength     0.7107
_diffrn_reflns_av_R_equivalents  0.02166
_diffrn_reflns_av_sigmaI/netI    0.055
_diffrn_reflns_limit_h_max       16
_diffrn_reflns_limit_h_min       -16
_diffrn_reflns_limit_k_max       22
_diffrn_reflns_limit_k_min       -21
_diffrn_reflns_limit_l_max       11
_diffrn_reflns_limit_l_min       -11
_diffrn_reflns_number            8358
_diffrn_reflns_theta_full        40.28
_diffrn_reflns_theta_max         40.28
_diffrn_reflns_theta_min         1.66
_diffrn_standards_decay_%        0.00
_diffrn_standards_interval_count 0
_diffrn_standards_number         0
_exptl_absorpt_coefficient_mu    7.473
_exptl_absorpt_correction_T_max  0.890
_exptl_absorpt_correction_T_min  0.699
_exptl_absorpt_correction_type   multi-scan
_exptl_absorpt_process_details   '(Denzo-SMN; Otwinowski & Minor, 1997)'
_exptl_crystal_colour            blue
_exptl_crystal_density_diffrn    2.560
_exptl_crystal_description       sphere
_exptl_crystal_F_000             518.00
_exptl_crystal_size_rad          0.30
_refine_diff_density_max         0.47
_refine_diff_density_min         -0.59
_refine_ls_extinction_coef       0.00000295(8)
_refine_ls_extinction_expression 'equ(3) Acta Cryst.(1968) A24, p213.'
_refine_ls_extinction_method     'Zachariasen (1967)'
_refine_ls_goodness_of_fit_all   1.389
_refine_ls_goodness_of_fit_ref   1.390
_refine_ls_hydrogen_treatment    refall
_refine_ls_matrix_type           full
_refine_ls_number_constraints    0
_refine_ls_number_parameters     113
_refine_ls_number_reflns         2896
_refine_ls_number_restraints     0
_refine_ls_R_factor_all          0.0209
_refine_ls_R_factor_gt           0.0210
_refine_ls_shift/su_max          0.0000
_refine_ls_shift/su_mean         0.0001
_refine_ls_structure_factor_coef F
_refine_ls_weighting_details     'w = 1/[\s^2^(Fo)]'
_refine_ls_weighting_scheme      sigma
_refine_ls_wR_factor_all         0.0230
_refine_ls_wR_factor_ref         0.0230
_reflns_number_gt                2896
_reflns_number_total             4361
_reflns_threshold_expression     I>5.00\s(I)
_cod_data_source_file            ic401385f_si_003_77.cif
_cod_data_source_block           '_Template_texray.inf76'
_cod_original_cell_volume        695.05(2)
_cod_original_sg_symbol_H-M      'P 21/a '
_cod_database_code               4336035
loop_
_symmetry_equiv_pos_as_xyz
'   +x,   +y,   +z'
'1/2-x,1/2+y,   -z'
'   -x,   -y,   -z'
'1/2+x,1/2-y,   +z'
loop_
_atom_site_label
_atom_site_fract_x
_atom_site_fract_y
_atom_site_fract_z
_atom_site_U_iso_or_equiv
_atom_site_occupancy
_atom_site_refinement_flags
_atom_site_adp_type
_atom_site_calc_flag
Se(2) 0.421859(11) 0.137324(8) 0.73559(2) 0.01870(3) 1.000 . Uani d
Cu(1) 0.0000 0.0000 0.0000 0.01734(4) 1.000 S Uani d
K(10) 0.14321(3) 0.33868(2) 0.34392(5) 0.02995(6) 1.000 . Uani d
O(3) 0.41507(11) 0.24273(7) 0.5754(1) 0.0329(2) 1.000 . Uani d
O(4) 0.57875(9) 0.07310(10) 0.7487(2) 0.0426(3) 1.000 . Uani d
O(5) 0.28289(8) 0.05609(7) 0.62904(13) 0.0264(2) 1.000 . Uani d
O(6) 0.40834(10) 0.17874(7) 0.97633(13) 0.0292(2) 1.000 . Uani d
O(7) 0.17750(12) 0.11935(9) 0.1831(2) 0.0283(2) 1.000 . Uani d
O(8) -0.16207(10) 0.10963(7) 0.0320(1) 0.0245(2) 1.000 . Uani d
O(9) -0.01215(10) -0.06175(7) 0.27730(13) 0.0244(2) 1.000 . Uani d
H(15) 0.211(2) 0.091(2) 0.298(3) 0.047(5) 1.000 . Uiso d
H(16) 0.221(2) 0.129(2) 0.138(3) 0.034(6) 1.000 . Uiso d
H(17) -0.238(2) 0.1024(13) -0.050(3) 0.031(4) 1.000 . Uiso d
H(18) -0.137(2) 0.170(2) 0.011(3) 0.043(5) 1.000 . Uiso d
H(19) -0.080(2) -0.058(2) 0.298(4) 0.060(6) 1.000 . Uiso d
H(20) 0.030(2) -0.133(2) 0.331(3) 0.061(6) 1.000 . Uiso d
loop_
_atom_site_aniso_label
_atom_site_aniso_U_11
_atom_site_aniso_U_22
_atom_site_aniso_U_33
_atom_site_aniso_U_12
_atom_site_aniso_U_13
_atom_site_aniso_U_23
Se(2) 0.01739(5) 0.01952(6) 0.01912(6) -0.00144(4) 0.00410(4) -0.00157(4)
Cu(1) 0.01701(8) 0.01793(8) 0.01749(8) 0.00056(6) 0.00481(6) 0.00183(7)
K(10) 0.03324(13) 0.02978(12) 0.02752(13) -0.00112(11) 0.00842(10) -0.00094(10)
O(3) 0.0463(5) 0.0264(4) 0.0244(4) -0.0118(4) 0.0054(4) 0.0029(4)
O(4) 0.0232(4) 0.0552(6) 0.0460(6) 0.0133(4) 0.0012(4) -0.0113(5)
O(5) 0.0242(4) 0.0262(4) 0.0300(4) -0.0089(3) 0.0087(3) -0.0056(4)
O(6) 0.0406(5) 0.0281(4) 0.0203(4) -0.0027(4) 0.0098(3) -0.0042(4)
O(7) 0.0265(5) 0.0339(5) 0.0239(5) -0.0028(4) 0.0045(4) 0.0011(4)
O(8) 0.0225(4) 0.0236(4) 0.0268(4) -0.0004(3) 0.0041(3) 0.0025(4)
O(9) 0.0259(4) 0.0253(4) 0.0242(4) 0.0039(4) 0.0101(3) 0.0047(3)
loop_
_atom_type_symbol
_atom_type_oxidation_number
_atom_type_number_in_cell
_atom_type_scat_dispersion_real
_atom_type_scat_dispersion_imag
_atom_type_scat_source
H 0 24 0.000 0.000
;International Tables for Crystallography
(1992, Vol. C, Table 6.1.1.2)
;
O 0 28 0.008 0.006
;International Tables for Crystallography
(1992, Vol. C, Table 6.1.1.2)
;
K 0 4 0.179 0.250
;International Tables for Crystallography
(1992, Vol. C, Table 6.1.1.2)
;
Cu 0 2 0.263 1.266
;International Tables for Crystallography
(1992, Vol. C, Tables 4.2.6.8 and 6.1.1.1)
;
Se 0 4 -0.178 2.223
;International Tables for Crystallography
(1992, Vol. C, Tables 4.2.6.8 and 6.1.1.1)
;
loop_
_diffrn_standard_refln_index_h
_diffrn_standard_refln_index_k
_diffrn_standard_refln_index_l
0 0 0
loop_
_geom_angle_atom_site_label_1
_geom_angle_atom_site_label_2
_geom_angle_atom_site_label_3
_geom_angle
_geom_angle_publ_flag
O3 SE2 O4 108.74(7) ?
O3 SE2 O5 108.10(5) ?
O3 SE2 O6 109.40(5) ?
O4 SE2 O5 108.78(6) ?
O4 SE2 O6 111.01(6) ?
O5 SE2 O6 110.73(5) ?
O7 CU1 O7 180.00 ?
O7 CU1 O8 88.71(4) ?
O7 CU1 O9 88.47(5) ?
O8 CU1 O8 180.00 ?
O8 CU1 O9 88.41(4) ?
O9 CU1 O9 180.00 ?
CU1 O7 H15 105.0(15) no
CU1 O7 H16 112.9(24) no
H15 O7 H16 112.8(28) no
CU1 O8 H17 114.9(14) no
CU1 O8 H18 110.2(15) no
H17 O8 H18 104.4(20) no
CU1 O9 H19 113.7(22) no
CU1 O9 H20 124.2(14) no
H19 O9 H20 107.7(25) no
loop_
_geom_bond_atom_site_label_1
_geom_bond_atom_site_label_2
_geom_bond_distance
_geom_bond_publ_flag
SE2 O3 1.6373(10) ?
SE2 O4 1.6268(10) ?
SE2 O5 1.6372(9) ?
SE2 O6 1.6405(10) ?
CU1 O7 2.2970(12) ?
CU1 O7 2.2970(12) ?
CU1 O8 2.0503(10) ?
CU1 O8 2.0503(10) ?
CU1 O9 1.9413(10) ?
CU1 O9 1.9413(10) ?
O7 H15 0.80(3) no
O7 H16 0.56(2) no
O8 H17 0.77(2) no
O8 H18 0.80(2) no
O9 H19 0.67(3) no
O9 H20 0.99(2) no
