#------------------------------------------------------------------------------
#$Date: 2016-03-23 22:01:52 +0200 (Wed, 23 Mar 2016) $
#$Revision: 179463 $
#$URL: svn://www.crystallography.net/cod/cif/4/33/60/4336033.cif $
#------------------------------------------------------------------------------
#
# This file is available in the Crystallography Open Database (COD),
# http://www.crystallography.net/
#
# All data on this site have been placed in the public domain by the
# contributors.
#
data_4336033
loop_
_publ_author_name
'Charles J. Simmons'
'Horst Stratemeier'
'Michael A. Hitchman'
'Mark J. Riley'
_publ_section_title
;
 Influence of Lattice Interactions on the Jahn-Teller Distortion of the
 [Cu(H2O)6]2+ Ion: Dependence of the Crystal Structure of
 K2xRb2-2x[Cu(H2O)6](SeO4)2 upon the K/Rb Ratio
;
_journal_name_full               'Inorganic Chemistry'
_journal_page_first              10481
_journal_page_last               10499
_journal_paper_doi               10.1021/ic401385f
_journal_volume                  52
_journal_year                    2013
_chemical_formula_moiety         'Cu H12 K2 O14 Se2'
_chemical_formula_sum            'Cu H12 K2 O14 Se2'
_chemical_formula_weight         535.75
_space_group_IT_number           14
_symmetry_cell_setting           monoclinic
_symmetry_Int_Tables_number      14
_symmetry_space_group_name_Hall  '-P 2yab'
_symmetry_space_group_name_H-M   'P 1 21/a 1'
_cell_angle_alpha                90
_cell_angle_beta                 103.154(1)
_cell_angle_gamma                90
_cell_formula_units_Z            2
_cell_length_a                   9.1496(2)
_cell_length_b                   12.2443(3)
_cell_length_c                   6.32700(10)
_cell_measurement_reflns_used    5382
_cell_measurement_temperature    210
_cell_measurement_theta_max      35.0
_cell_measurement_theta_min      1.6
_cell_volume                     690.22(3)
_computing_cell_refinement       'HKL Scalepack'
_computing_data_collection       'Kappa CCD Server Control'
_computing_data_reduction        'HKL Denzo and Scalepack'
_computing_publication_material  'teXsan for Windows v. 1.06 MSC'
_computing_structure_refinement  'teXsan for Windows v. 1.06 MSC'
_computing_structure_solution
;
SIR92 (Altomare, et. al. 1994)
;
_diffrn_ambient_temperature      210
_diffrn_measured_fraction_theta_full 0.998
_diffrn_measured_fraction_theta_max 0.998
_diffrn_measurement_device       'Nonius CCD camera'
_diffrn_measurement_method       '\f scans \w scans \k offsets'
_diffrn_radiation_detector       'Nonius Kappa CCD'
_diffrn_radiation_monochromator  graphite
_diffrn_radiation_source         'fine-focus sealed x-ray tube'
_diffrn_radiation_type           'Mo K\a'
_diffrn_radiation_wavelength     0.7107
_diffrn_reflns_av_R_equivalents  0.01482
_diffrn_reflns_av_sigmaI/netI    0.040
_diffrn_reflns_limit_h_max       14
_diffrn_reflns_limit_h_min       -14
_diffrn_reflns_limit_k_max       19
_diffrn_reflns_limit_k_min       -16
_diffrn_reflns_limit_l_max       10
_diffrn_reflns_limit_l_min       -10
_diffrn_reflns_number            5382
_diffrn_reflns_theta_full        34.95
_diffrn_reflns_theta_max         34.95
_diffrn_reflns_theta_min         1.66
_diffrn_standards_decay_%        0.00
_diffrn_standards_interval_count 0
_diffrn_standards_number         0
_exptl_absorpt_coefficient_mu    7.525
_exptl_absorpt_correction_T_max  0.888
_exptl_absorpt_correction_T_min  0.715
_exptl_absorpt_correction_type   multi-scan
_exptl_absorpt_process_details   '(Denzo-SMN; Otwinowski & Minor, 1997)'
_exptl_crystal_colour            blue
_exptl_crystal_density_diffrn    2.578
_exptl_crystal_description       sphere
_exptl_crystal_F_000             518.00
_exptl_crystal_size_rad          0.30
_refine_diff_density_max         0.60
_refine_diff_density_min         -0.53
_refine_ls_extinction_coef       0.00000358(9)
_refine_ls_extinction_expression 'equ(3) Acta Cryst.(1968) A24, p213.'
_refine_ls_extinction_method     'Zachariasen (1967)'
_refine_ls_goodness_of_fit_all   1.437
_refine_ls_goodness_of_fit_ref   1.440
_refine_ls_hydrogen_treatment    refall
_refine_ls_matrix_type           full
_refine_ls_number_constraints    0
_refine_ls_number_parameters     113
_refine_ls_number_reflns         2378
_refine_ls_number_restraints     0
_refine_ls_R_factor_all          0.0177
_refine_ls_R_factor_gt           0.0180
_refine_ls_shift/su_max          0.0000
_refine_ls_shift/su_mean         0.0001
_refine_ls_structure_factor_coef F
_refine_ls_weighting_details     'w = 1/[\s^2^(Fo)]'
_refine_ls_weighting_scheme      sigma
_refine_ls_wR_factor_all         0.0210
_refine_ls_wR_factor_ref         0.0210
_reflns_number_gt                2378
_reflns_number_total             3020
_reflns_threshold_expression     I>5.00\s(I)
_cod_data_source_file            ic401385f_si_003_75.cif
_cod_data_source_block           '_Template_texray.inf74'
_cod_original_cell_volume        690.22(2)
_cod_original_sg_symbol_H-M      'P 21/a '
_cod_database_code               4336033
loop_
_symmetry_equiv_pos_as_xyz
'   +x,   +y,   +z'
'1/2-x,1/2+y,   -z'
'   -x,   -y,   -z'
'1/2+x,1/2-y,   +z'
loop_
_atom_site_label
_atom_site_fract_x
_atom_site_fract_y
_atom_site_fract_z
_atom_site_U_iso_or_equiv
_atom_site_occupancy
_atom_site_refinement_flags
_atom_site_adp_type
_atom_site_calc_flag
Se(2) 0.423565(13) 0.136825(10) 0.73515(2) 0.01179(3) 1.000 . Uani d
Cu(1) 0.0000 0.0000 0.0000 0.01088(5) 1.000 S Uani d
K(10) 0.14489(3) 0.33749(2) 0.34464(4) 0.01919(7) 1.000 . Uani d
O(3) 0.41554(11) 0.24277(7) 0.5748(1) 0.0213(2) 1.000 . Uani d
O(4) 0.58133(10) 0.07305(9) 0.7472(1) 0.0273(3) 1.000 . Uani d
O(5) 0.28416(10) 0.05533(7) 0.63002(13) 0.0169(2) 1.000 . Uani d
O(6) 0.41103(11) 0.17830(7) 0.97730(13) 0.0178(2) 1.000 . Uani d
O(7) 0.17892(12) 0.11994(9) 0.1835(2) 0.0185(2) 1.000 . Uani d
O(8) -0.16080(11) 0.10959(9) 0.0321(2) 0.0156(2) 1.000 . Uani d
O(9) -0.01237(11) -0.06148(8) 0.27812(13) 0.0156(2) 1.000 . Uani d
H(15) 0.204(2) 0.096(2) 0.281(3) 0.037(6) 1.000 . Uiso d
H(16) 0.232(2) 0.1294(13) 0.127(3) 0.029(5) 1.000 . Uiso d
H(17) -0.244(2) 0.103(2) -0.056(3) 0.035(5) 1.000 . Uiso d
H(18) -0.143(2) 0.164(2) 0.013(3) 0.051(7) 1.000 . Uiso d
H(19) -0.083(2) -0.054(2) 0.298(3) 0.042(6) 1.000 . Uiso d
H(20) 0.025(2) -0.133(1) 0.331(3) 0.033(5) 1.000 . Uiso d
loop_
_atom_site_aniso_label
_atom_site_aniso_U_11
_atom_site_aniso_U_22
_atom_site_aniso_U_33
_atom_site_aniso_U_12
_atom_site_aniso_U_13
_atom_site_aniso_U_23
Se(2) 0.01086(6) 0.01167(7) 0.01273(6) -0.00078(4) 0.00248(4) -0.00098(4)
Cu(1) 0.01072(10) 0.01066(10) 0.01158(9) 0.00057(8) 0.00319(7) 0.00130(7)
K(10) 0.0216(1) 0.01817(13) 0.01811(12) -0.00081(11) 0.00515(11) -0.00089(10)
O(3) 0.0308(5) 0.0158(5) 0.0162(4) -0.0074(4) 0.0029(4) 0.0034(4)
O(4) 0.0147(5) 0.0344(6) 0.0305(5) 0.0091(4) 0.0006(4) -0.0072(4)
O(5) 0.0154(4) 0.0162(4) 0.0202(4) -0.0058(4) 0.0062(4) -0.0038(4)
O(6) 0.0257(5) 0.0155(4) 0.0127(4) -0.0015(4) 0.0056(4) -0.0030(3)
O(7) 0.0177(5) 0.0213(5) 0.0159(4) -0.0032(4) 0.0025(4) 0.0003(4)
O(8) 0.0142(5) 0.0134(5) 0.0187(4) 0.0003(4) 0.0029(4) 0.0016(4)
O(9) 0.0167(5) 0.0155(5) 0.0160(4) 0.0027(4) 0.0066(4) 0.0038(3)
loop_
_atom_type_symbol
_atom_type_oxidation_number
_atom_type_number_in_cell
_atom_type_scat_dispersion_real
_atom_type_scat_dispersion_imag
_atom_type_scat_source
H 0 24 0.000 0.000
;International Tables for Crystallography
(1992, Vol. C, Table 6.1.1.2)
;
O 0 28 0.008 0.006
;International Tables for Crystallography
(1992, Vol. C, Table 6.1.1.2)
;
K 0 4 0.179 0.250
;International Tables for Crystallography
(1992, Vol. C, Table 6.1.1.2)
;
Cu 0 2 0.263 1.266
;International Tables for Crystallography
(1992, Vol. C, Tables 4.2.6.8 and 6.1.1.1)
;
Se 0 4 -0.178 2.223
;International Tables for Crystallography
(1992, Vol. C, Tables 4.2.6.8 and 6.1.1.1)
;
loop_
_diffrn_standard_refln_index_h
_diffrn_standard_refln_index_k
_diffrn_standard_refln_index_l
0 0 0
loop_
_geom_angle_atom_site_label_1
_geom_angle_atom_site_label_2
_geom_angle_atom_site_label_3
_geom_angle
_geom_angle_publ_flag
O3 SE2 O4 108.85(6) ?
O3 SE2 O5 108.07(5) ?
O3 SE2 O6 109.27(5) ?
O4 SE2 O5 109.11(6) ?
O4 SE2 O6 110.74(6) ?
O5 SE2 O6 110.74(5) ?
O7 CU1 O7 180.00 ?
O7 CU1 O8 88.64(5) ?
O7 CU1 O9 88.39(5) ?
O8 CU1 O8 180.00 ?
O8 CU1 O9 88.42(5) ?
O9 CU1 O9 180.00 ?
CU1 O7 H15 103.7(20) no
CU1 O7 H16 110.9(17) no
H15 O7 H16 115.3(26) no
CU1 O8 H17 115.8(15) no
CU1 O8 H18 113.6(20) no
H17 O8 H18 101.3(23) no
CU1 O9 H19 111.0(18) no
CU1 O9 H20 124.7(11) no
H19 O9 H20 109.7(22) no
loop_
_geom_bond_atom_site_label_1
_geom_bond_atom_site_label_2
_geom_bond_distance
_geom_bond_publ_flag
SE2 O3 1.6381(10) ?
SE2 O4 1.6276(11) ?
SE2 O5 1.6368(10) ?
SE2 O6 1.6427(9) ?
CU1 O7 2.3063(12) ?
CU1 O7 2.3063(12) ?
CU1 O8 2.0353(11) ?
CU1 O8 2.0353(11) ?
CU1 O9 1.9408(10) ?
CU1 O9 1.9408(10) ?
O7 H15 0.67(2) no
O7 H16 0.68(2) no
O8 H17 0.84(2) no
O8 H18 0.70(3) no
O9 H19 0.69(2) no
O9 H20 0.97(2) no
