#------------------------------------------------------------------------------
#$Date: 2016-03-23 22:01:52 +0200 (Wed, 23 Mar 2016) $
#$Revision: 179463 $
#$URL: svn://www.crystallography.net/cod/cif/4/33/60/4336036.cif $
#------------------------------------------------------------------------------
#
# This file is available in the Crystallography Open Database (COD),
# http://www.crystallography.net/
#
# All data on this site have been placed in the public domain by the
# contributors.
#
data_4336036
loop_
_publ_author_name
'Charles J. Simmons'
'Horst Stratemeier'
'Michael A. Hitchman'
'Mark J. Riley'
_publ_section_title
;
 Influence of Lattice Interactions on the Jahn-Teller Distortion of the
 [Cu(H2O)6]2+ Ion: Dependence of the Crystal Structure of
 K2xRb2-2x[Cu(H2O)6](SeO4)2 upon the K/Rb Ratio
;
_journal_name_full               'Inorganic Chemistry'
_journal_page_first              10481
_journal_page_last               10499
_journal_paper_doi               10.1021/ic401385f
_journal_volume                  52
_journal_year                    2013
_chemical_formula_moiety         'Cu H12 K2 O14 Se2'
_chemical_formula_sum            'Cu H12 K2 O14 Se2'
_chemical_formula_weight         535.75
_space_group_IT_number           14
_symmetry_cell_setting           monoclinic
_symmetry_Int_Tables_number      14
_symmetry_space_group_name_Hall  '-P 2yab'
_symmetry_space_group_name_H-M   'P 1 21/a 1'
_cell_angle_alpha                90
_cell_angle_beta                 103.368(4)
_cell_angle_gamma                90
_cell_formula_units_Z            2
_cell_length_a                   9.1826(5)
_cell_length_b                   12.2882(9)
_cell_length_c                   6.3449(5)
_cell_measurement_reflns_used    4736
_cell_measurement_temperature    320
_cell_measurement_theta_max      37.8
_cell_measurement_theta_min      1.6
_cell_volume                     696.55(8)
_computing_cell_refinement       'HKL Scalepack'
_computing_data_collection       'Kappa CCD Server Control'
_computing_data_reduction        'HKL Denzo and Scalepack'
_computing_publication_material  'teXsan for Windows v. 1.06 MSC'
_computing_structure_refinement  'teXsan for Windows v. 1.06 MSC'
_computing_structure_solution
;
SIR92 (Altomare, et. al. 1994)
;
_diffrn_ambient_temperature      320
_diffrn_measured_fraction_theta_full 0.771
_diffrn_measured_fraction_theta_max 0.771
_diffrn_measurement_device       'Nonius CCD camera'
_diffrn_measurement_method       '\f scans \w scans \k offsets'
_diffrn_radiation_detector       'Nonius Kappa CCD'
_diffrn_radiation_monochromator  graphite
_diffrn_radiation_source         'fine-focus sealed x-ray tube'
_diffrn_radiation_type           'Mo K\a'
_diffrn_radiation_wavelength     0.7107
_diffrn_reflns_av_R_equivalents  0.02038
_diffrn_reflns_av_sigmaI/netI    0.066
_diffrn_reflns_limit_h_max       10
_diffrn_reflns_limit_h_min       -10
_diffrn_reflns_limit_k_max       17
_diffrn_reflns_limit_k_min       -21
_diffrn_reflns_limit_l_max       10
_diffrn_reflns_limit_l_min       -10
_diffrn_reflns_number            4736
_diffrn_reflns_theta_full        37.78
_diffrn_reflns_theta_max         37.78
_diffrn_reflns_theta_min         1.65
_diffrn_standards_decay_%        0.00
_diffrn_standards_interval_count 0
_diffrn_standards_number         0
_exptl_absorpt_coefficient_mu    7.457
_exptl_absorpt_correction_T_max  0.901
_exptl_absorpt_correction_T_min  0.715
_exptl_absorpt_correction_type   multi-scan
_exptl_absorpt_process_details   '(Denzo-SMN; Otwinowski & Minor, 1997)'
_exptl_crystal_colour            blue
_exptl_crystal_density_diffrn    2.554
_exptl_crystal_description       sphere
_exptl_crystal_F_000             518.00
_exptl_crystal_size_rad          0.30
_refine_diff_density_max         0.36
_refine_diff_density_min         -0.41
_refine_ls_extinction_coef       0.0000022(1)
_refine_ls_extinction_expression 'equ(3) Acta Cryst.(1968) A24, p213.'
_refine_ls_extinction_method     'Zachariasen (1967)'
_refine_ls_goodness_of_fit_all   1.294
_refine_ls_goodness_of_fit_ref   1.290
_refine_ls_hydrogen_treatment    refall
_refine_ls_matrix_type           full
_refine_ls_number_constraints    0
_refine_ls_number_parameters     113
_refine_ls_number_reflns         1991
_refine_ls_number_restraints     0
_refine_ls_R_factor_all          0.0211
_refine_ls_R_factor_gt           0.0210
_refine_ls_shift/su_max          0.0000
_refine_ls_shift/su_mean         0.0000
_refine_ls_structure_factor_coef F
_refine_ls_weighting_details     'w = 1/[\s^2^(Fo)]'
_refine_ls_weighting_scheme      sigma
_refine_ls_wR_factor_all         0.0270
_refine_ls_wR_factor_ref         0.0270
_reflns_number_gt                1991
_reflns_number_total             2869
_reflns_threshold_expression     I>5.00\s(I)
_cod_data_source_file            ic401385f_si_003_78.cif
_cod_data_source_block           '_Template_texray.inf77'
_cod_original_sg_symbol_H-M      'P 21/a '
_cod_database_code               4336036
loop_
_symmetry_equiv_pos_as_xyz
'   +x,   +y,   +z'
'1/2-x,1/2+y,   -z'
'   -x,   -y,   -z'
'1/2+x,1/2-y,   +z'
loop_
_atom_site_label
_atom_site_fract_x
_atom_site_fract_y
_atom_site_fract_z
_atom_site_U_iso_or_equiv
_atom_site_occupancy
_atom_site_refinement_flags
_atom_site_adp_type
_atom_site_calc_flag
Se(2) 0.42142(2) 0.137451(11) 0.73565(3) 0.01931(4) 1.000 . Uani d
Cu(1) 0.0000 0.0000 0.0000 0.01785(6) 1.000 S Uani d
K(10) 0.14276(5) 0.33902(3) 0.34381(8) 0.03164(10) 1.000 . Uani d
O(3) 0.4145(1) 0.24269(10) 0.5755(2) 0.0342(3) 1.000 . Uani d
O(4) 0.57760(13) 0.07256(13) 0.7496(3) 0.0444(5) 1.000 . Uani d
O(5) 0.28256(12) 0.05612(9) 0.6285(2) 0.0274(3) 1.000 . Uani d
O(6) 0.4079(1) 0.17859(10) 0.9765(2) 0.0299(3) 1.000 . Uani d
O(7) 0.1771(2) 0.11928(11) 0.1822(3) 0.0299(3) 1.000 . Uani d
O(8) -0.1622(1) 0.10959(10) 0.0316(2) 0.0258(3) 1.000 . Uani d
O(9) -0.0122(2) -0.06169(9) 0.2768(2) 0.0253(3) 1.000 . Uani d
H(15) 0.206(3) 0.090(2) 0.281(5) 0.051(8) 1.000 . Uiso d
H(16) 0.233(3) 0.134(2) 0.133(5) 0.045(8) 1.000 . Uiso d
H(17) -0.233(3) 0.103(2) -0.060(4) 0.039(7) 1.000 . Uiso d
H(18) -0.139(2) 0.164(2) 0.020(4) 0.037(6) 1.000 . Uiso d
H(19) -0.081(2) -0.050(2) 0.295(4) 0.031(7) 1.000 . Uiso d
H(20) 0.018(3) -0.120(2) 0.321(4) 0.039(6) 1.000 . Uiso d
loop_
_atom_site_aniso_label
_atom_site_aniso_U_11
_atom_site_aniso_U_22
_atom_site_aniso_U_33
_atom_site_aniso_U_12
_atom_site_aniso_U_13
_atom_site_aniso_U_23
Se(2) 0.01618(10) 0.02200(6) 0.01992(8) -0.00157(4) 0.00450(6) -0.00178(6)
Cu(1) 0.0162(1) 0.02038(10) 0.01758(13) 0.00054(8) 0.00509(10) 0.00202(10)
K(10) 0.0338(2) 0.0333(2) 0.0288(2) -0.0019(1) 0.0093(2) -0.0011(2)
O(3) 0.0468(7) 0.0282(5) 0.0265(7) -0.0128(5) 0.0060(6) 0.0033(6)
O(4) 0.0211(8) 0.0599(9) 0.0499(10) 0.0134(5) 0.0032(7) -0.0115(8)
O(5) 0.0229(6) 0.0292(5) 0.0319(7) -0.0095(4) 0.0098(6) -0.0067(5)
O(6) 0.0403(7) 0.0314(5) 0.0189(6) -0.0023(5) 0.0090(5) -0.0038(5)
O(7) 0.0274(7) 0.0362(6) 0.0261(7) -0.0037(5) 0.0061(6) 0.0020(6)
O(8) 0.0212(6) 0.0257(5) 0.0294(7) -0.0001(4) 0.0038(6) 0.0026(5)
O(9) 0.0256(7) 0.0271(5) 0.0262(7) 0.0048(4) 0.0119(6) 0.0064(5)
loop_
_atom_type_symbol
_atom_type_oxidation_number
_atom_type_number_in_cell
_atom_type_scat_dispersion_real
_atom_type_scat_dispersion_imag
_atom_type_scat_source
H 0 24 0.000 0.000
;International Tables for Crystallography
(1992, Vol. C, Table 6.1.1.2)
;
O 0 28 0.008 0.006
;International Tables for Crystallography
(1992, Vol. C, Table 6.1.1.2)
;
K 0 4 0.179 0.250
;International Tables for Crystallography
(1992, Vol. C, Table 6.1.1.2)
;
Cu 0 2 0.263 1.266
;International Tables for Crystallography
(1992, Vol. C, Tables 4.2.6.8 and 6.1.1.1)
;
Se 0 4 -0.178 2.223
;International Tables for Crystallography
(1992, Vol. C, Tables 4.2.6.8 and 6.1.1.1)
;
loop_
_diffrn_standard_refln_index_h
_diffrn_standard_refln_index_k
_diffrn_standard_refln_index_l
0 0 0
loop_
_geom_angle_atom_site_label_1
_geom_angle_atom_site_label_2
_geom_angle_atom_site_label_3
_geom_angle
_geom_angle_publ_flag
O3 SE2 O4 109.19(9) ?
O3 SE2 O5 108.03(7) ?
O3 SE2 O6 109.51(8) ?
O4 SE2 O5 108.39(8) ?
O4 SE2 O6 110.86(9) ?
O5 SE2 O6 110.80(7) ?
O7 CU1 O7 180.00 ?
O7 CU1 O8 88.70(6) ?
O7 CU1 O9 88.62(7) ?
O8 CU1 O8 180.00 ?
O8 CU1 O9 88.45(6) ?
O9 CU1 O9 180.00 ?
CU1 O7 H15 101.5(23) no
CU1 O7 H16 117.3(26) no
H15 O7 H16 111.8(33) no
CU1 O8 H17 110.8(20) no
CU1 O8 H18 111.7(20) no
H17 O8 H18 104.0(28) no
CU1 O9 H19 108.6(23) no
CU1 O9 H20 125.8(20) no
H19 O9 H20 112.8(27) no
loop_
_geom_bond_atom_site_label_1
_geom_bond_atom_site_label_2
_geom_bond_distance
_geom_bond_publ_flag
SE2 O3 1.637(1) ?
SE2 O4 1.625(1) ?
SE2 O5 1.6389(12) ?
SE2 O6 1.641(2) ?
CU1 O7 2.293(2) ?
CU1 O7 2.293(2) ?
CU1 O8 2.052(1) ?
CU1 O8 2.052(1) ?
CU1 O9 1.940(2) ?
CU1 O9 1.940(2) ?
O7 H15 0.72(3) no
O7 H16 0.68(3) no
O8 H17 0.77(3) no
O8 H18 0.71(3) no
O9 H19 0.69(2) no
O9 H20 0.80(3) no
