#------------------------------------------------------------------------------
#$Date: 2016-03-23 22:01:52 +0200 (Wed, 23 Mar 2016) $
#$Revision: 179463 $
#$URL: svn://www.crystallography.net/cod/cif/4/33/60/4336034.cif $
#------------------------------------------------------------------------------
#
# This file is available in the Crystallography Open Database (COD),
# http://www.crystallography.net/
#
# All data on this site have been placed in the public domain by the
# contributors.
#
data_4336034
loop_
_publ_author_name
'Charles J. Simmons'
'Horst Stratemeier'
'Michael A. Hitchman'
'Mark J. Riley'
_publ_section_title
;
 Influence of Lattice Interactions on the Jahn-Teller Distortion of the
 [Cu(H2O)6]2+ Ion: Dependence of the Crystal Structure of
 K2xRb2-2x[Cu(H2O)6](SeO4)2 upon the K/Rb Ratio
;
_journal_name_full               'Inorganic Chemistry'
_journal_page_first              10481
_journal_page_last               10499
_journal_paper_doi               10.1021/ic401385f
_journal_volume                  52
_journal_year                    2013
_chemical_formula_moiety         'Cu H12 K2 O14 Se2'
_chemical_formula_sum            'Cu H12 K2 O14 Se2'
_chemical_formula_weight         535.75
_space_group_IT_number           14
_symmetry_cell_setting           monoclinic
_symmetry_Int_Tables_number      14
_symmetry_space_group_name_Hall  '-P 2yab'
_symmetry_space_group_name_H-M   'P 1 21/a 1'
_cell_angle_alpha                90
_cell_angle_beta                 103.1828(8)
_cell_angle_gamma                90
_cell_formula_units_Z            2
_cell_length_a                   9.1617(2)
_cell_length_b                   12.2559(3)
_cell_length_c                   6.3327(2)
_cell_measurement_reflns_used    5066
_cell_measurement_temperature    240
_cell_measurement_theta_max      34.3
_cell_measurement_theta_min      1.6
_cell_volume                     692.33(3)
_computing_cell_refinement       'HKL Scalepack'
_computing_data_collection       'Kappa CCD Server Control'
_computing_data_reduction        'HKL Denzo and Scalepack'
_computing_publication_material  'teXsan for Windows v. 1.06 MSC'
_computing_structure_refinement  'teXsan for Windows v. 1.06 MSC''
_computing_structure_solution
;
SIR92 (Altomare, et. al. 1994)
;
_diffrn_ambient_temperature      240
_diffrn_measured_fraction_theta_full 0.998
_diffrn_measured_fraction_theta_max 0.998
_diffrn_measurement_device       'Nonius CCD camera'
_diffrn_measurement_method       '\f scans \w scans \k offsets'
_diffrn_radiation_detector       'Nonius Kappa CCD'
_diffrn_radiation_monochromator  graphite
_diffrn_radiation_source         'fine-focus sealed x-ray tube'
_diffrn_radiation_type           'Mo K\a'
_diffrn_radiation_wavelength     0.7107
_diffrn_reflns_av_R_equivalents  0.01640
_diffrn_reflns_av_sigmaI/netI    0.045
_diffrn_reflns_limit_h_max       14
_diffrn_reflns_limit_h_min       -14
_diffrn_reflns_limit_k_max       19
_diffrn_reflns_limit_k_min       -15
_diffrn_reflns_limit_l_max       10
_diffrn_reflns_limit_l_min       -10
_diffrn_reflns_number            5066
_diffrn_reflns_theta_full        34.32
_diffrn_reflns_theta_max         34.32
_diffrn_reflns_theta_min         1.66
_diffrn_standards_decay_%        0.00
_diffrn_standards_interval_count 0
_diffrn_standards_number         0
_exptl_absorpt_coefficient_mu    7.502
_exptl_absorpt_correction_T_max  0.875
_exptl_absorpt_correction_T_min  0.720
_exptl_absorpt_correction_type   multi-scan
_exptl_absorpt_process_details   '(Denzo-SMN; Otwinowski & Minor, 1997)'
_exptl_crystal_colour            blue
_exptl_crystal_density_diffrn    2.570
_exptl_crystal_description       sphere
_exptl_crystal_F_000             518.00
_exptl_crystal_size_rad          0.30
_refine_diff_density_max         0.63
_refine_diff_density_min         -0.44
_refine_ls_extinction_coef       0.00000352(9)
_refine_ls_extinction_expression 'equ(3) Acta Cryst.(1968) A24, p213.'
_refine_ls_extinction_method     'Zachariasen (1967)'
_refine_ls_goodness_of_fit_all   1.392
_refine_ls_goodness_of_fit_ref   1.390
_refine_ls_hydrogen_treatment    refall
_refine_ls_matrix_type           full
_refine_ls_number_constraints    0
_refine_ls_number_parameters     113
_refine_ls_number_reflns         2212
_refine_ls_number_restraints     0
_refine_ls_R_factor_all          0.0188
_refine_ls_R_factor_gt           0.0190
_refine_ls_shift/su_max          0.0000
_refine_ls_shift/su_mean         0.0000
_refine_ls_structure_factor_coef F
_refine_ls_weighting_details     'w = 1/[\s^2^(Fo)]'
_refine_ls_weighting_scheme      sigma
_refine_ls_wR_factor_all         0.0220
_refine_ls_wR_factor_ref         0.0220
_reflns_number_gt                2212
_reflns_number_total             2878
_reflns_threshold_expression     I>5.00\s(I)
_cod_data_source_file            ic401385f_si_003_76.cif
_cod_data_source_block           '_Template_texray.inf75'
_cod_original_sg_symbol_H-M      'P 21/a '
_cod_database_code               4336034
loop_
_symmetry_equiv_pos_as_xyz
'   +x,   +y,   +z'
'1/2-x,1/2+y,   -z'
'   -x,   -y,   -z'
'1/2+x,1/2-y,   +z'
loop_
_atom_site_label
_atom_site_fract_x
_atom_site_fract_y
_atom_site_fract_z
_atom_site_U_iso_or_equiv
_atom_site_occupancy
_atom_site_refinement_flags
_atom_site_adp_type
_atom_site_calc_flag
Se(2) 0.42296(2) 0.136968(11) 0.73527(2) 0.01373(4) 1.000 . Uani d
Cu(1) 0.0000 0.0000 0.0000 0.01257(5) 1.000 S Uani d
K(10) 0.14427(4) 0.33792(3) 0.34443(5) 0.02243(8) 1.000 . Uani d
O(3) 0.41554(13) 0.24277(9) 0.5751(2) 0.0245(3) 1.000 . Uani d
O(4) 0.58036(12) 0.07320(11) 0.7478(2) 0.0317(3) 1.000 . Uani d
O(5) 0.28358(11) 0.05564(8) 0.6293(2) 0.0196(3) 1.000 . Uani d
O(6) 0.41021(12) 0.17836(9) 0.9769(2) 0.0214(3) 1.000 . Uani d
O(7) 0.17831(13) 0.11958(10) 0.1831(2) 0.0214(3) 1.000 . Uani d
O(8) -0.16095(13) 0.10967(10) 0.0319(2) 0.0182(3) 1.000 . Uani d
O(9) -0.01217(13) -0.06169(9) 0.2777(2) 0.0179(3) 1.000 . Uani d
H(15) 0.202(3) 0.096(2) 0.287(4) 0.045(7) 1.000 . Uiso d
H(16) 0.230(2) 0.129(2) 0.132(3) 0.031(6) 1.000 . Uiso d
H(17) -0.241(2) 0.103(2) -0.051(3) 0.033(5) 1.000 . Uiso d
H(18) -0.142(3) 0.170(2) 0.024(4) 0.075(9) 1.000 . Uiso d
H(19) -0.078(2) -0.057(2) 0.300(3) 0.042(7) 1.000 . Uiso d
H(20) 0.026(3) -0.134(2) 0.329(3) 0.045(6) 1.000 . Uiso d
loop_
_atom_site_aniso_label
_atom_site_aniso_U_11
_atom_site_aniso_U_22
_atom_site_aniso_U_33
_atom_site_aniso_U_12
_atom_site_aniso_U_13
_atom_site_aniso_U_23
Se(2) 0.01278(7) 0.01365(7) 0.01462(7) -0.00097(5) 0.00285(5) -0.00117(5)
Cu(1) 0.01256(11) 0.01225(11) 0.01323(10) 0.00056(8) 0.00362(9) 0.00135(8)
K(10) 0.0254(2) 0.0214(2) 0.0211(2) -0.00092(13) 0.00632(13) -0.00073(13)
O(3) 0.0353(6) 0.0187(5) 0.0182(5) -0.0093(5) 0.0030(5) 0.0032(4)
O(4) 0.0168(5) 0.0398(7) 0.0359(7) 0.0111(5) 0.0009(5) -0.0080(6)
O(5) 0.0180(5) 0.0183(5) 0.0234(5) -0.0072(4) 0.0069(4) -0.0045(4)
O(6) 0.0309(6) 0.0190(5) 0.0150(5) -0.0018(5) 0.0069(4) -0.0026(4)
O(7) 0.0196(6) 0.0258(6) 0.0185(5) -0.0025(5) 0.0039(5) 0.0011(5)
O(8) 0.0168(5) 0.0160(5) 0.0215(5) 0.0002(4) 0.0036(4) 0.0011(4)
O(9) 0.0185(5) 0.0186(5) 0.0184(5) 0.0029(4) 0.0076(4) 0.0045(4)
loop_
_atom_type_symbol
_atom_type_oxidation_number
_atom_type_number_in_cell
_atom_type_scat_dispersion_real
_atom_type_scat_dispersion_imag
_atom_type_scat_source
H 0 24 0.000 0.000
;International Tables for Crystallography
(1992, Vol. C, Table 6.1.1.2)
;
O 0 28 0.008 0.006
;International Tables for Crystallography
(1992, Vol. C, Table 6.1.1.2)
;
K 0 4 0.179 0.250
;International Tables for Crystallography
(1992, Vol. C, Table 6.1.1.2)
;
Cu 0 2 0.263 1.266
;International Tables for Crystallography
(1992, Vol. C, Tables 4.2.6.8 and 6.1.1.1)
;
Se 0 4 -0.178 2.223
;International Tables for Crystallography
(1992, Vol. C, Tables 4.2.6.8 and 6.1.1.1)
;
loop_
_diffrn_standard_refln_index_h
_diffrn_standard_refln_index_k
_diffrn_standard_refln_index_l
0 0 0
loop_
_geom_angle_atom_site_label_1
_geom_angle_atom_site_label_2
_geom_angle_atom_site_label_3
_geom_angle
_geom_angle_publ_flag
O3 SE2 O4 108.76(7) ?
O3 SE2 O5 108.04(6) ?
O3 SE2 O6 109.32(6) ?
O4 SE2 O5 109.11(7) ?
O4 SE2 O6 110.73(7) ?
O5 SE2 O6 110.81(6) ?
O7 CU1 O7 180.00 ?
O7 CU1 O8 88.66(6) ?
O7 CU1 O9 88.42(6) ?
O8 CU1 O8 180.00 ?
O8 CU1 O9 88.55(5) ?
O9 CU1 O9 180.00 ?
CU1 O7 H15 103.6(22) no
CU1 O7 H16 112.8(22) no
H15 O7 H16 115.9(30) no
CU1 O8 H17 116.0(16) no
CU1 O8 H18 116.6(22) no
H17 O8 H18 104.4(26) no
CU1 O9 H19 114.0(23) no
CU1 O9 H20 124.4(13) no
H19 O9 H20 106.6(26) no
loop_
_geom_bond_atom_site_label_1
_geom_bond_atom_site_label_2
_geom_bond_distance
_geom_bond_publ_flag
SE2 O3 1.6381(12) ?
SE2 O4 1.6262(12) ?
SE2 O5 1.6381(11) ?
SE2 O6 1.6412(11) ?
CU1 O7 2.302(1) ?
CU1 O7 2.302(1) ?
CU1 O8 2.0391(13) ?
CU1 O8 2.0391(13) ?
CU1 O9 1.9405(12) ?
CU1 O9 1.9405(12) ?
O7 H15 0.71(3) no
O7 H16 0.64(2) no
O8 H17 0.81(3) no
O8 H18 0.76(3) no
O9 H19 0.65(2) no
O9 H20 0.98(3) no
