#------------------------------------------------------------------------------
#$Date: 2016-03-23 22:01:52 +0200 (Wed, 23 Mar 2016) $
#$Revision: 179463 $
#$URL: svn://www.crystallography.net/cod/cif/4/33/60/4336037.cif $
#------------------------------------------------------------------------------
#
# This file is available in the Crystallography Open Database (COD),
# http://www.crystallography.net/
#
# All data on this site have been placed in the public domain by the
# contributors.
#
data_4336037
loop_
_publ_author_name
'Charles J. Simmons'
'Horst Stratemeier'
'Michael A. Hitchman'
'Mark J. Riley'
_publ_section_title
;
 Influence of Lattice Interactions on the Jahn-Teller Distortion of the
 [Cu(H2O)6]2+ Ion: Dependence of the Crystal Structure of
 K2xRb2-2x[Cu(H2O)6](SeO4)2 upon the K/Rb Ratio
;
_journal_name_full               'Inorganic Chemistry'
_journal_page_first              10481
_journal_page_last               10499
_journal_paper_doi               10.1021/ic401385f
_journal_volume                  52
_journal_year                    2013
_chemical_formula_moiety         'H12 K2 O14 Se2 Zn'
_chemical_formula_sum            'H12 K2 O14 Se2 Zn'
_chemical_formula_weight         537.58
_space_group_IT_number           14
_symmetry_cell_setting           monoclinic
_symmetry_Int_Tables_number      14
_symmetry_space_group_name_Hall  '-P 2yab'
_symmetry_space_group_name_H-M   'P 1 21/a 1'
_cell_angle_alpha                90
_cell_angle_beta                 104.2005(12)
_cell_angle_gamma                90
_cell_formula_units_Z            2
_cell_length_a                   9.2140(2)
_cell_length_b                   12.3957(3)
_cell_length_c                   6.27850(10)
_cell_measurement_reflns_used    7048
_cell_measurement_temperature    298
_cell_measurement_theta_max      37.8
_cell_measurement_theta_min      1.6
_cell_volume                     695.18(3)
_computing_cell_refinement       'HKL Scalepack'
_computing_data_collection       'Kappa CCD Server Control'
_computing_data_reduction        'HKL Denzo and Scalepack'
_computing_publication_material  'teXsan for Windows v. 1.06 MSC'
_computing_structure_refinement  'teXsan for Windows v. 1.06 MSC'
_computing_structure_solution
;
SIR92 (Altomare, et. al. 1994)
;
_diffrn_ambient_temperature      298
_diffrn_measured_fraction_theta_full 0.999
_diffrn_measured_fraction_theta_max 0.999
_diffrn_measurement_device       'Nonius CCD camera'
_diffrn_measurement_method       '\f scans \w scans \k offsets'
_diffrn_radiation_detector       'Nonius Kappa CCD'
_diffrn_radiation_monochromator  graphite
_diffrn_radiation_source         'fine-focus sealed x-ray tube'
_diffrn_radiation_type           'Mo K\a'
_diffrn_radiation_wavelength     0.7107
_diffrn_reflns_av_R_equivalents  0.01772
_diffrn_reflns_av_sigmaI/netI    0.044
_diffrn_reflns_limit_h_max       15
_diffrn_reflns_limit_h_min       -15
_diffrn_reflns_limit_k_max       20
_diffrn_reflns_limit_k_min       -21
_diffrn_reflns_limit_l_max       10
_diffrn_reflns_limit_l_min       -10
_diffrn_reflns_number            7048
_diffrn_reflns_theta_full        37.78
_diffrn_reflns_theta_max         37.78
_diffrn_reflns_theta_min         1.64
_diffrn_standards_decay_%        0.00
_diffrn_standards_interval_count 0
_diffrn_standards_number         0
_exptl_absorpt_coefficient_mu    7.667
_exptl_absorpt_correction_T_max  0.954
_exptl_absorpt_correction_T_min  0.756
_exptl_absorpt_correction_type   multi-scan
_exptl_absorpt_process_details   '(Denzo-SMN; Otwinowski & Minor, 1997)'
_exptl_crystal_colour            white
_exptl_crystal_density_diffrn    2.568
_exptl_crystal_description       sphere
_exptl_crystal_F_000             520.00
_exptl_crystal_size_rad          0.30
_refine_diff_density_max         0.42
_refine_diff_density_min         -0.40
_refine_ls_extinction_coef       0.00000274(6)
_refine_ls_extinction_expression 'equ(3) Acta Cryst.(1968) A24, p213.'
_refine_ls_extinction_method     'Zachariasen (1967)'
_refine_ls_goodness_of_fit_all   1.426
_refine_ls_goodness_of_fit_ref   1.430
_refine_ls_hydrogen_treatment    refall
_refine_ls_matrix_type           full
_refine_ls_number_constraints    0
_refine_ls_number_parameters     113
_refine_ls_number_reflns         2570
_refine_ls_number_restraints     0
_refine_ls_R_factor_all          0.0173
_refine_ls_R_factor_gt           0.0170
_refine_ls_shift/su_max          0.0000
_refine_ls_shift/su_mean         0.0000
_refine_ls_structure_factor_coef F
_refine_ls_weighting_details     'w = 1/[\s^2^(Fo)]'
_refine_ls_weighting_scheme      sigma
_refine_ls_wR_factor_all         0.0190
_refine_ls_wR_factor_ref         0.0190
_reflns_number_gt                2570
_reflns_number_total             3718
_reflns_threshold_expression     I>5.00\s(I)
_cod_data_source_file            ic401385f_si_003_79.cif
_cod_data_source_block           '_Template_texray.inf78'
_cod_original_cell_volume        695.18(2)
_cod_original_sg_symbol_H-M      'P 21/a '
_cod_database_code               4336037
loop_
_symmetry_equiv_pos_as_xyz
'   +x,   +y,   +z'
'1/2-x,1/2+y,   -z'
'   -x,   -y,   -z'
'1/2+x,1/2-y,   +z'
loop_
_atom_site_label
_atom_site_fract_x
_atom_site_fract_y
_atom_site_fract_z
_atom_site_U_iso_or_equiv
_atom_site_occupancy
_atom_site_refinement_flags
_atom_site_adp_type
_atom_site_calc_flag
Se(2) 0.414155(11) 0.134632(9) 0.72748(2) 0.01814(3) 1.000 . Uani d
Zn(1) 0.0000 0.0000 0.0000 0.01800(4) 1.000 S Uani d
K(10) 0.13826(3) 0.33997(3) 0.33932(5) 0.03101(7) 1.000 . Uani d
O(3) 0.40883(10) 0.23802(7) 0.5634(1) 0.0343(2) 1.000 . Uani d
O(4) 0.57154(9) 0.07098(9) 0.7525(2) 0.0443(3) 1.000 . Uani d
O(5) 0.27722(8) 0.05337(7) 0.61306(13) 0.0251(2) 1.000 . Uani d
O(6) 0.39540(9) 0.17583(7) 0.96782(13) 0.0274(2) 1.000 . Uani d
O(7) 0.16739(10) 0.10997(8) 0.1690(2) 0.0245(2) 1.000 . Uani d
O(8) -0.16665(10) 0.11251(8) 0.0363(2) 0.0241(2) 1.000 . Uani d
O(9) -0.00581(10) -0.06546(8) 0.2936(1) 0.0245(2) 1.000 . Uani d
H(15) 0.194(2) 0.0836(13) 0.282(3) 0.039(5) 1.000 . Uiso d
H(16) 0.226(2) 0.120(1) 0.125(3) 0.043(5) 1.000 . Uiso d
H(17) -0.245(2) 0.1039(12) -0.050(2) 0.032(4) 1.000 . Uiso d
H(18) -0.147(2) 0.1684(13) 0.019(3) 0.035(5) 1.000 . Uiso d
H(19) -0.078(2) -0.061(1) 0.327(3) 0.043(5) 1.000 . Uiso d
H(20) 0.024(2) -0.122(1) 0.338(3) 0.048(5) 1.000 . Uiso d
loop_
_atom_site_aniso_label
_atom_site_aniso_U_11
_atom_site_aniso_U_22
_atom_site_aniso_U_33
_atom_site_aniso_U_12
_atom_site_aniso_U_13
_atom_site_aniso_U_23
Se(2) 0.01602(5) 0.01998(6) 0.01827(6) -0.00211(4) 0.00393(4) -0.00213(4)
Zn(1) 0.01750(8) 0.01882(9) 0.01762(9) -0.00091(6) 0.00421(6) 0.00081(7)
K(10) 0.03325(13) 0.0319(1) 0.0293(1) -0.00187(11) 0.01037(11) 0.00018(12)
O(3) 0.0504(5) 0.0258(5) 0.0263(4) -0.0131(4) 0.0088(4) 0.0033(4)
O(4) 0.0207(4) 0.0572(7) 0.0508(6) 0.0129(4) 0.0007(4) -0.0153(5)
O(5) 0.0213(4) 0.0268(4) 0.0274(4) -0.0086(3) 0.0064(3) -0.0062(4)
O(6) 0.0388(5) 0.0263(4) 0.0187(4) -0.0036(4) 0.0104(3) -0.0044(4)
O(7) 0.0227(4) 0.0287(5) 0.0214(4) -0.0058(3) 0.0038(4) -0.0006(4)
O(8) 0.0211(4) 0.0221(4) 0.0291(5) 0.0015(3) 0.0059(3) 0.0005(4)
O(9) 0.0272(4) 0.0247(5) 0.0243(4) 0.0040(4) 0.0113(4) 0.0051(4)
loop_
_atom_type_symbol
_atom_type_oxidation_number
_atom_type_number_in_cell
_atom_type_scat_dispersion_real
_atom_type_scat_dispersion_imag
_atom_type_scat_source
H 0 24 0.000 0.000
;International Tables for Crystallography
(1992, Vol. C, Table 6.1.1.2)
;
O 0 28 0.008 0.006
;International Tables for Crystallography
(1992, Vol. C, Table 6.1.1.2)
;
K 0 4 0.179 0.250
;International Tables for Crystallography
(1992, Vol. C, Table 6.1.1.2)
;
Se 0 4 -0.178 2.223
;International Tables for Crystallography
(1992, Vol. C, Tables 4.2.6.8 and 6.1.1.1)
;
Zn 0 2 0.222 1.431
;International Tables for Crystallography
(1992, Vol. C, Tables 4.2.6.8 and 6.1.1.1)
;
loop_
_diffrn_standard_refln_index_h
_diffrn_standard_refln_index_k
_diffrn_standard_refln_index_l
0 0 0
loop_
_geom_angle_atom_site_label_1
_geom_angle_atom_site_label_2
_geom_angle_atom_site_label_3
_geom_angle
_geom_angle_publ_flag
O3 SE2 O4 109.23(6) ?
O3 SE2 O5 107.74(5) ?
O3 SE2 O6 109.94(5) ?
O4 SE2 O5 108.50(6) ?
O4 SE2 O6 110.79(5) ?
O5 SE2 O6 110.57(5) ?
O7 ZN1 O7 180.00 ?
O7 ZN1 O8 88.89(4) ?
O7 ZN1 O9 88.89(5) ?
O8 ZN1 O8 180.00 ?
O8 ZN1 O9 89.09(5) ?
O9 ZN1 O9 180.00 ?
ZN1 O7 H15 102.5(14) no
ZN1 O7 H16 117.8(18) no
H15 O7 H16 110.5(21) no
ZN1 O8 H17 113.3(13) no
ZN1 O8 H18 113.3(14) no
H17 O8 H18 104.0(18) no
ZN1 O9 H19 116.6(15) no
ZN1 O9 H20 127.2(15) no
H19 O9 H20 103.0(20) no
loop_
_geom_bond_atom_site_label_1
_geom_bond_atom_site_label_2
_geom_bond_distance
_geom_bond_publ_flag
SE2 O3 1.6373(10) ?
SE2 O4 1.6243(10) ?
SE2 O5 1.6364(9) ?
SE2 O6 1.6419(9) ?
ZN1 O7 2.1354(10) ?
ZN1 O7 2.1354(10) ?
ZN1 O8 2.1276(10) ?
ZN1 O8 2.1276(10) ?
ZN1 O9 2.0268(10) ?
ZN1 O9 2.0268(10) ?
O7 H15 0.76(2) no
O7 H16 0.67(2) no
O8 H17 0.80(2) no
O8 H18 0.73(2) no
O9 H19 0.75(2) no
O9 H20 0.78(2) no
