#------------------------------------------------------------------------------
#$Date: 2016-03-23 22:13:21 +0200 (Wed, 23 Mar 2016) $
#$Revision: 179472 $
#$URL: svn://www.crystallography.net/cod/cif/4/33/69/4336916.cif $
#------------------------------------------------------------------------------
#
# This file is available in the Crystallography Open Database (COD),
# http://www.crystallography.net/
#
# All data on this site have been placed in the public domain by the
# contributors.
#
data_4336916
loop_
_publ_author_name
'Ikuya Yamada'
'Hidenobu Etani'
'Kazuki Tsuchida'
'Shohei Marukawa'
'Naoaki Hayashi'
'Takateru Kawakami'
'Masaichiro Mizumaki'
'Kenya Ohgushi'
'Yoshihiro Kusano'
'Jungeun Kim'
'Naruki Tsuji'
'Ryoji Takahashi'
'Norimasa Nishiyama'
'Toru Inoue'
'Tetsuo Irifune'
'Mikio Takano'
_publ_section_title
;
 Control of Bond-Strain-Induced Electronic Phase Transitions in Iron
 Perovskites
;
_journal_name_full               'Inorganic Chemistry'
_journal_page_first              13751
_journal_page_last               13761
_journal_paper_doi               10.1021/ic402344m
_journal_volume                  52
_journal_year                    2013
_chemical_formula_sum            'Cu3 Dy Fe4 O12'
_chemical_formula_weight         768.511
_space_group_IT_number           201
_symmetry_cell_setting           cubic
_symmetry_Int_Tables_number      201
_symmetry_space_group_name_Hall  '-P 2ab 2bc 3'
_symmetry_space_group_name_H-M   'P n -3 :2'
_cell_angle_alpha                90
_cell_angle_beta                 90
_cell_angle_gamma                90
_cell_formula_units_Z            2
_cell_length_a                   7.29665(5)
_cell_length_b                   7.29665(5)
_cell_length_c                   7.29665(5)
_cell_measurement_temperature    100
_cell_volume                     388.482(5)
_computing_cell_refinement       'RIETAN-FP (Izumi and Momma, 2007)'
_computing_molecular_graphics    'VESTA (Momma and Izumi, 2008)'
_computing_structure_refinement  'RIETAN-FP (Izumi and Momma, 2007)'
_diffrn_ambient_temperature      100
_diffrn_radiation_wavelength     0.420550
_diffrn_source                   synchrotron
_exptl_crystal_density_diffrn    6.5699
_exptl_crystal_F_000             706.00
_pd_calc_method                  'Rietveld Refinement'
_pd_char_colour                  grey
_pd_meas_2theta_range_inc        0.0100
_pd_meas_2theta_range_max        79.0800
_pd_meas_2theta_range_min        0.0000
_pd_meas_number_of_points        7909
_pd_meas_scan_method             step
_pd_proc_2theta_range_inc        0.0100
_pd_proc_2theta_range_max        40.0000
_pd_proc_2theta_range_min        4.0000
_pd_proc_ls_background_function  'Legendre polynomials'
_pd_proc_ls_pref_orient_corr     ' ?'
_pd_proc_ls_profile_function     'split pseudo-Voigt function'
_pd_proc_ls_prof_R_factor        0.04462
_pd_proc_ls_prof_wR_expected     0.06235
_pd_proc_ls_prof_wR_factor       0.05934
_pd_spec_mount_mode              reflection
_pd_spec_shape                   flat_sheet
_refine_diff_density_max         0.1
_refine_diff_density_min         -0.1
_refine_ls_extinction_method     none
_refine_ls_goodness_of_fit_all   0.9518
_refine_ls_matrix_type           full
_refine_ls_number_constraints    9
_refine_ls_number_parameters     40
_refine_ls_number_restraints     0
_refine_ls_R_factor_all          0.00624
_refine_ls_R_Fsqd_factor         0.00624
_refine_ls_R_I_factor            0.00957
_refine_ls_shift/su_max          0.0
_refine_ls_weighting_details     1/<i>y</i>~i~
_refine_ls_weighting_scheme      sigma
_cod_data_source_file            ic402344m_si_002_08.cif
_cod_data_source_block           phase_1
_cod_original_sg_symbol_H-M      'P n -3'
_cod_database_code               4336916
loop_
_symmetry_equiv_pos_site_id
_symmetry_equiv_pos_as_xyz
1 x,y,z
2 -x+1/2,-y+1/2,z
3 -x+1/2,y,-z+1/2
4 x,-y+1/2,-z+1/2
5 z,x,y
6 z,-x+1/2,-y+1/2
7 -z+1/2,-x+1/2,y
8 -z+1/2,x,-y+1/2
9 y,z,x
10 -y+1/2,z,-x+1/2
11 y,-z+1/2,-x+1/2
12 -y+1/2,-z+1/2,x
13 -x,-y,-z
14 x+1/2,y+1/2,-z
15 x+1/2,-y,z+1/2
16 -x,y+1/2,z+1/2
17 -z,-x,-y
18 -z,x+1/2,y+1/2
19 z+1/2,x+1/2,-y
20 z+1/2,-x,y+1/2
21 -y,-z,-x
22 y+1/2,-z,x+1/2
23 -y,z+1/2,x+1/2
24 y+1/2,z+1/2,-x
loop_
_atom_site_label
_atom_site_fract_x
_atom_site_fract_y
_atom_site_fract_z
_atom_site_occupancy
_atom_site_symmetry_multiplicity
_atom_site_Wyckoff_symbol
_atom_site_adp_type
_atom_site_U_iso_or_equiv
_atom_site_type_symbol
Dy1 0.25 0.25 0.25 1 2 a Uiso 0.00124(3) Dy
Cu1 0.25 0.75 0.75 1 6 d Uiso 0.00307(4) Cu
Fe11 0.5 0.5 0.5 1 4 c Uiso 0.00144(3) Fe
Fe12 0 0 0 1 4 b Uiso 0.00144(3) Fe
O1 0.247(2) 0.4257(3) 0.5511(3) 1 24 h Uiso 0.0036(1) O
loop_
_atom_type_symbol
_atom_type_description
_atom_type_scat_dispersion_real
_atom_type_scat_dispersion_imag
_atom_type_scat_source
Dy Dy3+ -1.1501 1.7844 'International Tables for Crystallography, Vol. C'
Cu Cu2+ 0.1908 0.4852 'International Tables for Crystallography, Vol. C'
Fe Fe3+ 0.1554 0.3160 'International Tables for Crystallography, Vol. C'
O O- -0.0011 0.0019 'International Tables for Crystallography, Vol. C'
loop_
_geom_angle_atom_site_label_1
_geom_angle_atom_site_label_2
_geom_angle_atom_site_label_3
_geom_angle
_geom_angle_site_symmetry_1
_geom_angle_site_symmetry_3
O1 Dy1 O1 60.5(1) 1_555 2_555
O1 Dy1 O1 119.5(1) 1_555 3_555
O1 Dy1 O1 179.1(8) 1_555 4_555
O1 Dy1 O1 64.9(6) 1_555 5_555
O1 Dy1 O1 116.0(2) 1_555 6_555
O1 Dy1 O1 63.5(6) 1_555 7_555
O1 Dy1 O1 115.6(2) 1_555 8_555
O1 Dy1 O1 64.9(6) 1_555 9_555
O1 Dy1 O1 63.5(6) 1_555 10_555
O1 Dy1 O1 115.6(2) 1_555 11_555
O1 Dy1 O1 116.0(2) 1_555 12_555
O1 Dy1 O1 179.1(8) 2_555 3_555
O1 Dy1 O1 119.5(1) 2_555 4_555
O1 Dy1 O1 63.5(6) 2_555 5_555
O1 Dy1 O1 115.6(2) 2_555 6_555
O1 Dy1 O1 64.9(6) 2_555 7_555
O1 Dy1 O1 116.0(2) 2_555 8_555
O1 Dy1 O1 116.0(2) 2_555 9_555
O1 Dy1 O1 115.6(2) 2_555 10_555
O1 Dy1 O1 63.5(6) 2_555 11_555
O1 Dy1 O1 64.9(6) 2_555 12_555
O1 Dy1 O1 60.5(1) 3_555 4_555
O1 Dy1 O1 115.6(2) 3_555 5_555
O1 Dy1 O1 63.5(6) 3_555 6_555
O1 Dy1 O1 116.0(2) 3_555 7_555
O1 Dy1 O1 64.9(6) 3_555 8_555
O1 Dy1 O1 63.5(6) 3_555 9_555
O1 Dy1 O1 64.9(6) 3_555 10_555
O1 Dy1 O1 116.0(2) 3_555 11_555
O1 Dy1 O1 115.6(2) 3_555 12_555
O1 Dy1 O1 116.0(2) 4_555 5_555
O1 Dy1 O1 64.9(6) 4_555 6_555
O1 Dy1 O1 115.6(2) 4_555 7_555
O1 Dy1 O1 63.5(6) 4_555 8_555
O1 Dy1 O1 115.6(2) 4_555 9_555
O1 Dy1 O1 116.0(2) 4_555 10_555
O1 Dy1 O1 64.9(6) 4_555 11_555
O1 Dy1 O1 63.5(6) 4_555 12_555
O1 Dy1 O1 60.5(1) 5_555 6_555
O1 Dy1 O1 119.5(1) 5_555 7_555
O1 Dy1 O1 179.1(8) 5_555 8_555
O1 Dy1 O1 64.9(6) 5_555 9_555
O1 Dy1 O1 116.0(2) 5_555 10_555
O1 Dy1 O1 63.5(6) 5_555 11_555
O1 Dy1 O1 115.6(2) 5_555 12_555
O1 Dy1 O1 179.1(8) 6_555 7_555
O1 Dy1 O1 119.5(1) 6_555 8_555
O1 Dy1 O1 63.5(6) 6_555 9_555
O1 Dy1 O1 115.6(2) 6_555 10_555
O1 Dy1 O1 64.9(6) 6_555 11_555
O1 Dy1 O1 116.0(2) 6_555 12_555
O1 Dy1 O1 60.5(1) 7_555 8_555
O1 Dy1 O1 115.6(2) 7_555 9_555
O1 Dy1 O1 63.5(6) 7_555 10_555
O1 Dy1 O1 116.0(2) 7_555 11_555
O1 Dy1 O1 64.9(6) 7_555 12_555
O1 Dy1 O1 116.0(2) 8_555 9_555
O1 Dy1 O1 64.9(6) 8_555 10_555
O1 Dy1 O1 115.6(2) 8_555 11_555
O1 Dy1 O1 63.5(6) 8_555 12_555
O1 Dy1 O1 60.5(1) 9_555 10_555
O1 Dy1 O1 119.5(1) 9_555 11_555
O1 Dy1 O1 179.1(8) 9_555 12_555
O1 Dy1 O1 179.1(8) 10_555 11_555
O1 Dy1 O1 119.5(1) 10_555 12_555
O1 Dy1 O1 60.5(1) 11_555 12_555
O1 Cu1 O1 82.9(1) 20_465 19_456
O1 Cu1 O1 97.1(1) 20_465 18_655
O1 Cu1 O1 179(1) 20_465 17_666
O1 Cu1 O1 110.4(2) 20_465 1_555
O1 Cu1 O1 110.0(2) 20_465 2_565
O1 Cu1 O1 70.6(8) 20_465 3_556
O1 Cu1 O1 68.9(8) 20_465 4_566
O1 Cu1 O1 179(1) 19_456 18_655
O1 Cu1 O1 97.1(1) 19_456 17_666
O1 Cu1 O1 68.9(8) 19_456 1_555
O1 Cu1 O1 70.6(8) 19_456 2_565
O1 Cu1 O1 110.0(2) 19_456 3_556
O1 Cu1 O1 110.4(2) 19_456 4_566
O1 Cu1 O1 82.9(1) 18_655 17_666
O1 Cu1 O1 110.0(2) 18_655 1_555
O1 Cu1 O1 110.4(2) 18_655 2_565
O1 Cu1 O1 68.9(8) 18_655 3_556
O1 Cu1 O1 70.6(8) 18_655 4_566
O1 Cu1 O1 70.6(8) 17_666 1_555
O1 Cu1 O1 68.9(8) 17_666 2_565
O1 Cu1 O1 110.4(2) 17_666 3_556
O1 Cu1 O1 110.0(2) 17_666 4_566
O1 Cu1 O1 116.97(9) 1_555 2_565
O1 Cu1 O1 63.04(9) 1_555 3_556
O1 Cu1 O1 179.2(7) 1_555 4_566
O1 Cu1 O1 179.2(7) 2_565 3_556
O1 Cu1 O1 63.04(9) 2_565 4_566
O1 Cu1 O1 116.97(9) 3_556 4_566
O1 Fe11 O1 88.37(9) 1_555 5_555
O1 Fe11 O1 88.37(9) 1_555 9_555
O1 Fe11 O1 91.63(9) 1_555 17_666
O1 Fe11 O1 91.63(9) 1_555 21_666
O1 Fe11 O1 88.37(9) 5_555 9_555
O1 Fe11 O1 91.63(9) 5_555 13_666
O1 Fe11 O1 180 5_555 17_666
O1 Fe11 O1 91.63(9) 5_555 21_666
O1 Fe11 O1 91.63(9) 9_555 13_666
O1 Fe11 O1 91.63(9) 9_555 17_666
O1 Fe11 O1 180.0000(2) 9_555 21_666
O1 Fe11 O1 88.37(9) 13_666 17_666
O1 Fe11 O1 88.37(9) 13_666 21_666
O1 Fe11 O1 88.37(9) 17_666 21_666
O1 Fe12 O1 88.4(1) 4_555 8_555
O1 Fe12 O1 88.4(1) 4_555 12_555
O1 Fe12 O1 91.6(1) 4_555 24_445
O1 Fe12 O1 91.6(1) 4_555 20_454
O1 Fe12 O1 88.4(1) 8_555 12_555
O1 Fe12 O1 91.6(1) 8_555 24_445
O1 Fe12 O1 91.6(1) 8_555 16_544
O1 Fe12 O1 180.0000(1) 12_555 24_445
O1 Fe12 O1 91.6(1) 12_555 20_454
O1 Fe12 O1 91.6(1) 12_555 16_544
O1 Fe12 O1 88.4(1) 24_445 20_454
O1 Fe12 O1 88.4(1) 24_445 16_544
O1 Fe12 O1 88.4(1) 20_454 16_544
Fe12 O1 Cu1 110.0(7) 4_555 21_666
Fe12 O1 Fe11 140.3(1) 4_555 1_555
Fe12 O1 Dy1 88.9(4) 4_555 1_555
Fe12 O1 O1 107.2(9) 4_555 2_555
Fe12 O1 O1 45.80(5) 4_555 7_555
Fe12 O1 O1 45.80(5) 4_555 10_555
Fe12 O1 O1 146.4(1) 4_555 5_555
Fe12 O1 O1 101.3(1) 4_555 9_555
Fe12 O1 O1 44.20(5) 4_555 22_465
Fe12 O1 O1 44.20(5) 4_555 19_456
Fe12 O1 Cu1 82.4(3) 4_555 1_555
Fe12 O1 O1 105.3(1) 4_555 17_666
Fe12 O1 O1 152.0(1) 4_555 21_666
Fe12 O1 O1 101.9(8) 4_555 3_556
Cu1 O1 Fe11 108.5(7) 21_666 1_555
Cu1 O1 Dy1 108.3(1) 21_666 1_555
Cu1 O1 O1 48.54(7) 21_666 2_555
Cu1 O1 O1 87.2(6) 21_666 7_555
Cu1 O1 O1 147.2(7) 21_666 10_555
Cu1 O1 O1 85.9(7) 21_666 5_555
Cu1 O1 O1 145.7(7) 21_666 9_555
Cu1 O1 O1 70.1(6) 21_666 22_465
Cu1 O1 O1 121.6(4) 21_666 19_456
Cu1 O1 Cu1 99.94(8) 21_666 1_555
Cu1 O1 O1 120.8(4) 21_666 17_666
Cu1 O1 O1 68.8(6) 21_666 21_666
Cu1 O1 O1 41.46(7) 21_666 3_556
Fe11 O1 Dy1 88.2(4) 1_555 1_555
Fe11 O1 O1 105.2(9) 1_555 2_555
Fe11 O1 O1 146.2(1) 1_555 7_555
Fe11 O1 O1 101.2(1) 1_555 10_555
Fe11 O1 O1 45.82(5) 1_555 5_555
Fe11 O1 O1 45.82(5) 1_555 9_555
Fe11 O1 O1 152.2(2) 1_555 22_465
Fe11 O1 O1 105.4(1) 1_555 19_456
Fe11 O1 Cu1 81.8(3) 1_555 1_555
Fe11 O1 O1 44.18(5) 1_555 17_666
Fe11 O1 O1 44.18(5) 1_555 21_666
Fe11 O1 O1 100.3(8) 1_555 3_556
Dy1 O1 O1 59.74(5) 1_555 2_555
Dy1 O1 O1 58.2(3) 1_555 7_555
Dy1 O1 O1 58.2(3) 1_555 10_555
Dy1 O1 O1 57.6(3) 1_555 5_555
Dy1 O1 O1 57.6(3) 1_555 9_555
Dy1 O1 O1 119.1(3) 1_555 22_465
Dy1 O1 O1 119.1(3) 1_555 19_456
Dy1 O1 Cu1 151.76(9) 1_555 1_555
Dy1 O1 O1 118.4(3) 1_555 17_666
Dy1 O1 O1 118.4(3) 1_555 21_666
Dy1 O1 O1 149.72(7) 1_555 3_556
O1 O1 O1 62.7(9) 2_555 7_555
O1 O1 O1 110.4(6) 2_555 10_555
O1 O1 O1 60.7(9) 2_555 5_555
O1 O1 O1 109.2(6) 2_555 9_555
O1 O1 O1 94.2(7) 2_555 22_465
O1 O1 O1 149.3(9) 2_555 19_456
O1 O1 Cu1 148.46(6) 2_555 1_555
O1 O1 O1 147.3(9) 2_555 17_666
O1 O1 O1 92.7(7) 2_555 21_666
O1 O1 O1 89.99(2) 2_555 3_556
O1 O1 O1 60 7_555 10_555
O1 O1 O1 108.73(2) 7_555 5_555
O1 O1 O1 105.6(2) 7_555 9_555
O1 O1 O1 60.91(5) 7_555 22_465
O1 O1 O1 90 7_555 19_456
O1 O1 Cu1 125.9(3) 7_555 1_555
O1 O1 O1 147.9(2) 7_555 17_666
O1 O1 O1 153.9(2) 7_555 21_666
O1 O1 O1 110.6(8) 7_555 3_556
O1 O1 O1 105.8(2) 10_555 5_555
O1 O1 O1 56.6(1) 10_555 9_555
O1 O1 O1 90 10_555 22_465
O1 O1 O1 60.91(5) 10_555 19_456
O1 O1 Cu1 97.87(9) 10_555 1_555
O1 O1 O1 90.3(2) 10_555 17_666
O1 O1 O1 143.7(2) 10_555 21_666
O1 O1 O1 145.0(6) 10_555 3_556
O1 O1 O1 60 5_555 9_555
O1 O1 O1 153.6(2) 5_555 22_465
O1 O1 O1 148.1(1) 5_555 19_456
O1 O1 Cu1 125.2(3) 5_555 1_555
O1 O1 O1 90 5_555 17_666
O1 O1 O1 60.93(5) 5_555 21_666
O1 O1 O1 109.0(8) 5_555 3_556
O1 O1 O1 143.9(2) 9_555 22_465
O1 O1 O1 90.7(2) 9_555 19_456
O1 O1 Cu1 97.78(9) 9_555 1_555
O1 O1 O1 60.93(5) 9_555 17_666
O1 O1 O1 90 9_555 21_666
O1 O1 O1 143.7(6) 9_555 3_556
O1 O1 O1 58.2(1) 22_465 19_456
O1 O1 Cu1 71.4(4) 22_465 1_555
O1 O1 O1 111.3(2) 22_465 17_666
O1 O1 O1 116.63(9) 22_465 21_666
O1 O1 O1 59.4(8) 22_465 3_556
O1 O1 Cu1 41.0(2) 19_456 1_555
O1 O1 O1 62.90(9) 19_456 17_666
O1 O1 O1 111.0(2) 19_456 21_666
O1 O1 O1 86.9(3) 19_456 3_556
Cu1 O1 O1 40.6(2) 1_555 17_666
Cu1 O1 O1 70.7(4) 1_555 21_666
Cu1 O1 O1 58.48(4) 1_555 3_556
O1 O1 O1 58.1(1) 17_666 21_666
O1 O1 O1 86.2(3) 17_666 3_556
O1 O1 O1 57.7(8) 21_666 3_556
loop_
_geom_bond_atom_site_label_1
_geom_bond_atom_site_label_2
_geom_bond_distance
_geom_bond_site_symmetry_2
Dy1 O1 2.544(2) 1_555
Dy1 O1 2.544(2) 2_555
Dy1 O1 2.544(2) 3_555
Dy1 O1 2.544(2) 4_555
Dy1 O1 2.544(2) 5_555
Dy1 O1 2.544(2) 6_555
Dy1 O1 2.544(2) 7_555
Dy1 O1 2.544(2) 8_555
Dy1 O1 2.544(2) 9_555
Dy1 O1 2.544(2) 10_555
Dy1 O1 2.544(2) 11_555
Dy1 O1 2.544(2) 12_555
Cu1 O1 1.936(2) 20_465
Cu1 O1 1.936(2) 19_456
Cu1 O1 1.936(2) 18_655
Cu1 O1 1.936(2) 17_666
Cu1 O1 2.776(2) 1_555
Cu1 O1 2.776(2) 2_565
Cu1 O1 2.776(2) 3_556
Cu1 O1 2.776(2) 4_566
Fe11 O1 1.96(2) 1_555
Fe11 O1 1.96(2) 5_555
Fe11 O1 1.96(2) 9_555
Fe11 O1 1.96(2) 13_666
Fe11 O1 1.96(2) 17_666
Fe11 O1 1.96(2) 21_666
Fe12 O1 1.92(2) 4_555
Fe12 O1 1.92(2) 8_555
Fe12 O1 1.92(2) 12_555
Fe12 O1 1.92(2) 24_445
Fe12 O1 1.92(2) 20_454
Fe12 O1 1.92(2) 16_544
O1 Fe12 1.92(2) 4_555
O1 Cu1 1.936(2) 21_666
O1 Fe11 1.96(2) 1_555
O1 Dy1 2.544(2) 1_555
O1 O1 2.564(5) 2_555
O1 O1 2.68(2) 7_555
O1 O1 2.68(2) 10_555
O1 O1 2.73(2) 5_555
O1 O1 2.73(2) 9_555
O1 O1 2.75(2) 22_465
O1 O1 2.75(2) 19_456
O1 Cu1 2.776(2) 1_555
O1 O1 2.81(2) 17_666
O1 O1 2.81(2) 21_666
O1 O1 2.902(4) 3_556
loop_
_pd_phase_id
_pd_phase_block_id
_pd_phase_mass_%
1 2013-08-27_phase_1 96.57
2 2013-08-27_phase_2 3.43
