#------------------------------------------------------------------------------
#$Date: 2016-03-23 22:45:38 +0200 (Wed, 23 Mar 2016) $
#$Revision: 179490 $
#$URL: svn://www.crystallography.net/cod/cif/4/33/87/4338730.cif $
#------------------------------------------------------------------------------
#
# This file is available in the Crystallography Open Database (COD),
# http://www.crystallography.net/
#
# All data on this site have been placed in the public domain by the
# contributors.
#
data_4338730
loop_
_publ_author_name
'Zhou, Sixuan'
'Mishra, Trinath'
'Wang, Man'
'Shatruk, Michael'
'Cao, Huibo'
'Latturner, Susan E.'
_publ_section_title
;
 Synthesis, Crystal Structure, and Magnetic Properties of Novel
 Intermetallic Compounds R2Co2SiC (R = Pr, Nd).
;
_journal_issue                   12
_journal_name_full               'Inorganic chemistry'
_journal_page_first              6141
_journal_page_last               6148
_journal_paper_doi               10.1021/ic5005984
_journal_volume                  53
_journal_year                    2014
_chemical_formula_sum            'C Co2 Pr2 Si'
_chemical_formula_weight         439.78
_chemical_name_systematic
; 
 ? 
;
_space_group_IT_number           71
_symmetry_cell_setting           orthorhombic
_symmetry_space_group_name_Hall  '-I 2 2'
_symmetry_space_group_name_H-M   'I m m m'
_atom_sites_solution_hydrogens   none
_atom_sites_solution_primary     direct
_atom_sites_solution_secondary   difmap
_audit_creation_method           SHELXL-97
_cell_angle_alpha                90.00
_cell_angle_beta                 90.00
_cell_angle_gamma                90.00
_cell_formula_units_Z            2
_cell_length_a                   4.0027(11)
_cell_length_b                   6.1063(17)
_cell_length_c                   8.989(3)
_cell_measurement_temperature    296(2)
_cell_volume                     219.71(11)
_computing_cell_refinement       'Saint (Bruker, 2008)'
_computing_data_collection       'APEX2 (Bruker, 2008)'
_computing_data_reduction        'Saint (Bruker, 2008)'
_computing_structure_refinement  'SHELXL-97 (Sheldrick, 2008)'
_computing_structure_solution    'SHELXS-97 (Sheldrick, 2008)'
_diffrn_ambient_temperature      296(2)
_diffrn_measured_fraction_theta_full 0.983
_diffrn_measured_fraction_theta_max 0.983
_diffrn_measurement_device_type  'Bruker APEX-II CCD area-detector'
_diffrn_radiation_monochromator  graphite
_diffrn_radiation_source         'fine-focus sealed tube'
_diffrn_radiation_type           MoK\a
_diffrn_radiation_wavelength     0.71073
_diffrn_reflns_av_R_equivalents  0.0302
_diffrn_reflns_av_sigmaI/netI    0.0196
_diffrn_reflns_limit_h_max       5
_diffrn_reflns_limit_h_min       -5
_diffrn_reflns_limit_k_max       7
_diffrn_reflns_limit_k_min       -7
_diffrn_reflns_limit_l_max       11
_diffrn_reflns_limit_l_min       -11
_diffrn_reflns_number            1210
_diffrn_reflns_theta_full        27.44
_diffrn_reflns_theta_max         27.44
_diffrn_reflns_theta_min         4.03
_exptl_absorpt_coefficient_mu    29.257
_exptl_absorpt_correction_T_max  0.557
_exptl_absorpt_correction_T_min  0.363
_exptl_absorpt_correction_type   multi-scan
_exptl_absorpt_process_details   'SADABS (Bruker, 2008)'
_exptl_crystal_colour            silver
_exptl_crystal_density_diffrn    6.647
_exptl_crystal_density_method    'not measured'
_exptl_crystal_description       rod
_exptl_crystal_F_000             384
_exptl_crystal_size_max          0.05
_exptl_crystal_size_mid          0.03
_exptl_crystal_size_min          0.02
_refine_diff_density_max         2.132
_refine_diff_density_min         -0.968
_refine_diff_density_rms         0.320
_refine_ls_extinction_coef       0.0005(8)
_refine_ls_extinction_expression Fc^*^=kFc[1+0.001xFc^2^\l^3^/sin(2\q)]^-1/4^
_refine_ls_extinction_method     SHELXL
_refine_ls_goodness_of_fit_ref   1.122
_refine_ls_hydrogen_treatment    none
_refine_ls_matrix_type           full
_refine_ls_number_parameters     16
_refine_ls_number_reflns         169
_refine_ls_number_restraints     0
_refine_ls_restrained_S_all      1.122
_refine_ls_R_factor_all          0.0237
_refine_ls_R_factor_gt           0.0220
_refine_ls_shift/su_max          0.000
_refine_ls_shift/su_mean         0.000
_refine_ls_structure_factor_coef Fsqd
_refine_ls_weighting_details
'calc w=1/[\s^2^(Fo^2^)+(0.0373P)^2^+0.6708P] where P=(Fo^2^+2Fc^2^)/3'
_refine_ls_weighting_scheme      calc
_refine_ls_wR_factor_gt          0.0540
_refine_ls_wR_factor_ref         0.0546
_reflns_number_gt                163
_reflns_number_total             169
_reflns_threshold_expression     >2sigma(I)
_cod_data_source_file            ic5005984_si_002.cif
_cod_data_source_block           sz277b
_cod_depositor_comments
;
The following automatic conversions were performed:

'_exptl_absorpt_correction_type' value 'Multi-scan' changed to
'multi-scan' according to
/usr/data/users/saulius/crontab/automatic-downloads/rss-feeds/ACS/lib/dictionaries/cif_core.dic
dictionary named 'cif_core.dic' version 2.4.2 from 2011-04-26.

Automatic conversion script
Id: cif_fix_values 2281 2013-09-26 08:29:07Z andrius 

 Adding full bibliography for 4338729--4338730.cif.
;
_cod_original_cell_volume        219.72(11)
_cod_original_sg_symbol_H-M      Immm
_cod_database_code               4338730
loop_
_symmetry_equiv_pos_as_xyz
'x, y, z'
'-x, -y, z'
'-x, y, -z'
'x, -y, -z'
'x+1/2, y+1/2, z+1/2'
'-x+1/2, -y+1/2, z+1/2'
'-x+1/2, y+1/2, -z+1/2'
'x+1/2, -y+1/2, -z+1/2'
'-x, -y, -z'
'x, y, -z'
'x, -y, z'
'-x, y, z'
'-x+1/2, -y+1/2, -z+1/2'
'x+1/2, y+1/2, -z+1/2'
'x+1/2, -y+1/2, z+1/2'
'-x+1/2, y+1/2, z+1/2'
loop_
_atom_site_label
_atom_site_type_symbol
_atom_site_fract_x
_atom_site_fract_y
_atom_site_fract_z
_atom_site_U_iso_or_equiv
_atom_site_adp_type
_atom_site_occupancy
_atom_site_symmetry_multiplicity
_atom_site_calc_flag
_atom_site_refinement_flags
Pr1 Pr 0.5000 0.0000 0.30991(6) 0.0114(3) Uani 1 4 d S
Co1 Co 0.0000 0.2956(2) 0.5000 0.0117(4) Uani 1 4 d S
Si1 Si 0.0000 0.0000 0.0000 0.0123(8) Uani 1 8 d S
C1 C 0.5000 0.5000 0.0000 0.014(3) Uani 1 8 d S
loop_
_atom_site_aniso_label
_atom_site_aniso_U_11
_atom_site_aniso_U_22
_atom_site_aniso_U_33
_atom_site_aniso_U_23
_atom_site_aniso_U_13
_atom_site_aniso_U_12
Pr1 0.0098(4) 0.0105(4) 0.0138(4) 0.000 0.000 0.000
Co1 0.0109(7) 0.0059(7) 0.0182(8) 0.000 0.000 0.000
Si1 0.0093(19) 0.0082(18) 0.019(2) 0.000 0.000 0.000
C1 0.006(7) 0.014(7) 0.022(8) 0.000 0.000 0.000
loop_
_atom_type_symbol
_atom_type_description
_atom_type_scat_dispersion_real
_atom_type_scat_dispersion_imag
_atom_type_scat_source
C C 0.0033 0.0016 'International Tables Vol C Tables 4.2.6.8 and 6.1.1.4'
Si Si 0.0817 0.0704 'International Tables Vol C Tables 4.2.6.8 and 6.1.1.4'
Co Co 0.3494 0.9721 'International Tables Vol C Tables 4.2.6.8 and 6.1.1.4'
Pr Pr -0.2180 2.8214 'International Tables Vol C Tables 4.2.6.8 and 6.1.1.4'
loop_
_geom_angle_atom_site_label_1
_geom_angle_atom_site_label_2
_geom_angle_atom_site_label_3
_geom_angle
_geom_angle_site_symmetry_1
_geom_angle_site_symmetry_3
C1 Pr1 C1 99.02(3) 5_545 5_445
C1 Pr1 Co1 126.340(15) 5_545 5_544
C1 Pr1 Co1 126.339(15) 5_445 5_544
C1 Pr1 Co1 126.339(15) 5_545 13
C1 Pr1 Co1 126.339(15) 5_445 13
Co1 Pr1 Co1 48.27(5) 5_544 13
C1 Pr1 Co1 97.43(2) 5_545 .
C1 Pr1 Co1 34.44(2) 5_445 .
Co1 Pr1 Co1 136.050(15) 5_544 .
Co1 Pr1 Co1 104.917(16) 13 .
C1 Pr1 Co1 34.44(2) 5_545 1_655
C1 Pr1 Co1 97.43(2) 5_445 1_655
Co1 Pr1 Co1 136.050(15) 5_544 1_655
Co1 Pr1 Co1 104.916(16) 13 1_655
Co1 Pr1 Co1 77.68(3) . 1_655
C1 Pr1 Co1 97.43(2) 5_545 9_556
C1 Pr1 Co1 34.44(2) 5_445 9_556
Co1 Pr1 Co1 104.916(16) 5_544 9_556
Co1 Pr1 Co1 136.050(15) 13 9_556
Co1 Pr1 Co1 68.89(4) . 9_556
Co1 Pr1 Co1 115.25(3) 1_655 9_556
C1 Pr1 Co1 34.44(2) 5_545 9_656
C1 Pr1 Co1 97.43(2) 5_445 9_656
Co1 Pr1 Co1 104.916(16) 5_544 9_656
Co1 Pr1 Co1 136.050(15) 13 9_656
Co1 Pr1 Co1 115.25(3) . 9_656
Co1 Pr1 Co1 68.89(4) 1_655 9_656
Co1 Pr1 Co1 77.68(3) 9_556 9_656
C1 Pr1 Pr1 49.509(14) 5_545 9_656
C1 Pr1 Pr1 49.509(14) 5_445 9_656
Co1 Pr1 Pr1 155.87(2) 5_544 9_656
Co1 Pr1 Pr1 155.87(2) 13 9_656
Co1 Pr1 Pr1 57.623(15) . 9_656
Co1 Pr1 Pr1 57.623(15) 1_655 9_656
Co1 Pr1 Pr1 57.623(15) 9_556 9_656
Co1 Pr1 Pr1 57.623(15) 9_656 9_656
C1 Pr1 Si1 166.183(13) 5_545 .
C1 Pr1 Si1 94.80(2) 5_445 .
Co1 Pr1 Si1 42.169(17) 5_544 .
Co1 Pr1 Si1 42.169(17) 13 .
Co1 Pr1 Si1 93.956(18) . .
Co1 Pr1 Si1 143.21(2) 1_655 .
Co1 Pr1 Si1 93.956(18) 9_556 .
Co1 Pr1 Si1 143.21(2) 9_656 .
Pr1 Pr1 Si1 144.308(12) 9_656 .
C1 Pr1 Si1 94.80(2) 5_545 1_655
C1 Pr1 Si1 166.183(13) 5_445 1_655
Co1 Pr1 Si1 42.169(17) 5_544 1_655
Co1 Pr1 Si1 42.169(17) 13 1_655
Co1 Pr1 Si1 143.21(2) . 1_655
Co1 Pr1 Si1 93.956(18) 1_655 1_655
Co1 Pr1 Si1 143.21(2) 9_556 1_655
Co1 Pr1 Si1 93.956(18) 9_656 1_655
Pr1 Pr1 Si1 144.308(12) 9_656 1_655
Si1 Pr1 Si1 71.38(2) . 1_655
C1 Pr1 Pr1 125.707(14) 5_545 13_545
C1 Pr1 Pr1 77.519(14) 5_445 13_545
Co1 Pr1 Pr1 54.11(2) 5_544 13_545
Co1 Pr1 Pr1 94.00(3) 13 13_545
Co1 Pr1 Pr1 105.99(2) . 13_545
Co1 Pr1 Pr1 159.23(3) 1_655 13_545
Co1 Pr1 Pr1 50.81(2) 9_556 13_545
Co1 Pr1 Pr1 91.58(3) 9_656 13_545
Pr1 Pr1 Pr1 106.440(16) 9_656 13_545
Si1 Pr1 Pr1 57.546(14) . 13_545
Si1 Pr1 Pr1 94.41(2) 1_655 13_545
C1 Co1 Si1 121.95(3) 5_445 5
C1 Co1 Si1 121.95(3) 5_445 5_455
Si1 Co1 Si1 116.09(6) 5 5_455
C1 Co1 Co1 180.0 5_445 9_566
Si1 Co1 Co1 58.05(3) 5 9_566
Si1 Co1 Co1 58.05(3) 5_455 9_566
C1 Co1 Pr1 114.14(2) 5_445 5_455
Si1 Co1 Pr1 77.50(2) 5 5_455
Si1 Co1 Pr1 77.50(2) 5_455 5_455
Co1 Co1 Pr1 65.86(2) 9_566 5_455
C1 Co1 Pr1 114.14(2) 5_445 13
Si1 Co1 Pr1 77.50(2) 5 13
Si1 Co1 Pr1 77.50(2) 5_455 13
Co1 Co1 Pr1 65.86(2) 9_566 13
Pr1 Co1 Pr1 131.73(5) 5_455 13
C1 Co1 Pr1 55.56(2) 5_445 1_455
Si1 Co1 Pr1 146.251(12) 5 1_455
Si1 Co1 Pr1 76.537(19) 5_455 1_455
Co1 Co1 Pr1 124.44(2) 9_566 1_455
Pr1 Co1 Pr1 136.050(15) 5_455 1_455
Pr1 Co1 Pr1 75.084(16) 13 1_455
C1 Co1 Pr1 55.56(2) 5_445 .
Si1 Co1 Pr1 76.537(19) 5 .
Si1 Co1 Pr1 146.251(12) 5_455 .
Co1 Co1 Pr1 124.44(2) 9_566 .
Pr1 Co1 Pr1 136.050(15) 5_455 .
Pr1 Co1 Pr1 75.084(16) 13 .
Pr1 Co1 Pr1 77.68(3) 1_455 .
C1 Co1 Pr1 55.56(2) 5_445 9_556
Si1 Co1 Pr1 146.250(12) 5 9_556
Si1 Co1 Pr1 76.537(19) 5_455 9_556
Co1 Co1 Pr1 124.44(2) 9_566 9_556
Pr1 Co1 Pr1 75.084(16) 5_455 9_556
Pr1 Co1 Pr1 136.050(15) 13 9_556
Pr1 Co1 Pr1 64.75(3) 1_455 9_556
Pr1 Co1 Pr1 111.11(4) . 9_556
C1 Co1 Pr1 55.56(2) 5_445 9_656
Si1 Co1 Pr1 76.537(19) 5 9_656
Si1 Co1 Pr1 146.250(12) 5_455 9_656
Co1 Co1 Pr1 124.44(2) 9_566 9_656
Pr1 Co1 Pr1 75.084(16) 5_455 9_656
Pr1 Co1 Pr1 136.050(15) 13 9_656
Pr1 Co1 Pr1 111.11(4) 1_455 9_656
Pr1 Co1 Pr1 64.75(3) . 9_656
Pr1 Co1 Pr1 77.68(3) 9_556 9_656
Co1 Si1 Co1 180.00(5) 13 5_444
Co1 Si1 Co1 116.10(6) 13 13_455
Co1 Si1 Co1 63.90(6) 5_444 13_455
Co1 Si1 Co1 63.90(6) 13 5_544
Co1 Si1 Co1 116.10(6) 5_444 5_544
Co1 Si1 Co1 180.0 13_455 5_544
Co1 Si1 Pr1 119.672(15) 13 9
Co1 Si1 Pr1 60.328(15) 5_444 9
Co1 Si1 Pr1 60.328(15) 13_455 9
Co1 Si1 Pr1 119.672(15) 5_544 9
Co1 Si1 Pr1 119.672(15) 13 1_455
Co1 Si1 Pr1 60.328(15) 5_444 1_455
Co1 Si1 Pr1 60.328(15) 13_455 1_455
Co1 Si1 Pr1 119.672(15) 5_544 1_455
Pr1 Si1 Pr1 108.62(2) 9 1_455
Co1 Si1 Pr1 60.328(15) 13 9_655
Co1 Si1 Pr1 119.672(15) 5_444 9_655
Co1 Si1 Pr1 119.672(15) 13_455 9_655
Co1 Si1 Pr1 60.328(15) 5_544 9_655
Pr1 Si1 Pr1 71.38(2) 9 9_655
Pr1 Si1 Pr1 180.0 1_455 9_655
Co1 Si1 Pr1 60.328(15) 13 .
Co1 Si1 Pr1 119.672(15) 5_444 .
Co1 Si1 Pr1 119.672(15) 13_455 .
Co1 Si1 Pr1 60.328(15) 5_544 .
Pr1 Si1 Pr1 180.0 9 .
Pr1 Si1 Pr1 71.38(2) 1_455 .
Pr1 Si1 Pr1 108.62(2) 9_655 .
Co1 C1 Co1 180.0 13 5_554
Co1 C1 Pr1 90.0 13 5_454
Co1 C1 Pr1 90.0 5_554 5_454
Co1 C1 Pr1 90.0 13 13_655
Co1 C1 Pr1 90.0 5_554 13_655
Pr1 C1 Pr1 180.000(17) 5_454 13_655
Co1 C1 Pr1 90.0 13 13
Co1 C1 Pr1 90.0 5_554 13
Pr1 C1 Pr1 80.98(3) 5_454 13
Pr1 C1 Pr1 99.02(3) 13_655 13
Co1 C1 Pr1 90.0 13 5_554
Co1 C1 Pr1 90.0 5_554 5_554
Pr1 C1 Pr1 99.02(3) 5_454 5_554
Pr1 C1 Pr1 80.98(3) 13_655 5_554
Pr1 C1 Pr1 180.0 13 5_554
loop_
_geom_bond_atom_site_label_1
_geom_bond_atom_site_label_2
_geom_bond_distance
_geom_bond_site_symmetry_2
Pr1 C1 2.6316(6) 5_545
Pr1 C1 2.6316(6) 5_445
Pr1 Co1 3.0528(10) 5_544
Pr1 Co1 3.0528(10) 13
Pr1 Co1 3.1911(9) .
Pr1 Co1 3.1911(9) 1_655
Pr1 Co1 3.1911(9) 9_556
Pr1 Co1 3.1911(9) 9_656
Pr1 Pr1 3.4176(14) 9_656
Pr1 Si1 3.4303(8) .
Pr1 Si1 3.4303(8) 1_655
Pr1 Pr1 3.8062(8) 13_545
Co1 C1 1.8049(14) 5_445
Co1 Si1 2.3587(9) 5
Co1 Si1 2.3587(9) 5_455
Co1 Co1 2.497(3) 9_566
Co1 Pr1 3.0528(10) 5_455
Co1 Pr1 3.0528(10) 13
Co1 Pr1 3.1911(9) 1_455
Co1 Pr1 3.1911(9) 9_556
Co1 Pr1 3.1911(9) 9_656
Si1 Co1 2.3587(9) 13
Si1 Co1 2.3587(9) 5_444
Si1 Co1 2.3587(9) 13_455
Si1 Co1 2.3587(9) 5_544
Si1 Pr1 3.4303(8) 9
Si1 Pr1 3.4303(8) 1_455
Si1 Pr1 3.4303(8) 9_655
C1 Co1 1.8049(14) 13
C1 Co1 1.8049(14) 5_554
C1 Pr1 2.6316(6) 5_454
C1 Pr1 2.6316(6) 13_655
C1 Pr1 2.6316(6) 13
C1 Pr1 2.6316(6) 5_554
