#------------------------------------------------------------------------------
#$Date: 2016-02-14 06:40:26 +0200 (Sun, 14 Feb 2016) $
#$Revision: 176432 $
#$URL: svn://www.crystallography.net/cod/cif/4/33/82/4338215.cif $
#------------------------------------------------------------------------------
#
# This file is available in the Crystallography Open Database (COD),
# http://www.crystallography.net/
#
# All data on this site have been placed in the public domain by the
# contributors.
#
data_4338215
loop_
_publ_author_name
'Mayence, Arnaud'
'Navarro, Julien R. G.'
'Ma, Yanhang'
'Terasaki, Osamu'
'Bergstr\"om, Lennart'
'Oleynikov, Peter'
_publ_section_title
;
 Phase identification and structure solution by three-dimensional electron
 diffraction tomography: gd-phosphate nanorods.
;
_journal_issue                   10
_journal_name_full               'Inorganic chemistry'
_journal_page_first              5067
_journal_page_last               5072
_journal_paper_doi               10.1021/ic500056r
_journal_volume                  53
_journal_year                    2014
_chemical_formula_sum            'Gd0.25 O4.25 P1.25'
_chemical_formula_weight         146
_chemical_name_systematic        ' ?'
_space_group_IT_number           180
_symmetry_cell_setting           hexagonal
_symmetry_Int_Tables_number      180
_symmetry_space_group_name_Hall  'P 62 2 (0 0 4)'
_symmetry_space_group_name_H-M   'P 62 2 2'
_cell_angle_alpha                90
_cell_angle_beta                 90
_cell_angle_gamma                120
_cell_formula_units_Z            12
_cell_length_a                   6.9
_cell_length_b                   6.9
_cell_length_c                   6.3096
_cell_measurement_temperature    293
_cell_volume                     260.154
_diffrn_ambient_temperature      293
_diffrn_measured_fraction_theta_full 0.86
_diffrn_measured_fraction_theta_max 0.86
_diffrn_radiation_probe          electron
_diffrn_radiation_type           electron
_diffrn_radiation_wavelength     0.02508
_diffrn_reflns_av_R_equivalents  0.2422
_diffrn_reflns_av_sigmaI/netI    0.0142
_diffrn_reflns_limit_h_max       8
_diffrn_reflns_limit_h_min       -7
_diffrn_reflns_limit_k_max       9
_diffrn_reflns_limit_k_min       -9
_diffrn_reflns_limit_l_max       8
_diffrn_reflns_limit_l_min       -8
_diffrn_reflns_number            1402
_diffrn_reflns_theta_full        0.98
_diffrn_reflns_theta_max         0.98
_diffrn_reflns_theta_min         0.17
_exptl_absorpt_coefficient_mu    0
_exptl_crystal_density_diffrn    11.1812
_exptl_crystal_F_000             333
_refine_ls_abs_structure_details
'  66 of Friedel pairs used in the refinement'
_refine_ls_extinction_method     none
_refine_ls_goodness_of_fit_gt    20.70
_refine_ls_goodness_of_fit_ref   20.70
_refine_ls_number_constraints    0
_refine_ls_number_parameters     7
_refine_ls_number_reflns         213
_refine_ls_number_restraints     0
_refine_ls_R_factor_all          0.1540
_refine_ls_R_factor_gt           0.1540
_refine_ls_shift/su_max          0.0267
_refine_ls_shift/su_mean         0.0085
_refine_ls_structure_factor_coef F
_refine_ls_weighting_details     w=1/(\s^2^(F)+0.0001F^2^)
_refine_ls_weighting_scheme      sigma
_refine_ls_wR_factor_gt          0.2523
_refine_ls_wR_factor_ref         0.2523
_reflns_number_gt                213
_reflns_number_total             213
_reflns_threshold_expression     I>3\s(I)
_cod_data_source_file            ic500056r_si_006.cif
_cod_data_source_block           I
_cod_depositor_comments          'Adding full bibliography for 4338215.cif.'
_cod_original_cell_volume        260.1541
_cod_original_sg_symbol_Hall     'P 62;2'
_cod_database_code               4338215
loop_
_symmetry_equiv_pos_site_id
_symmetry_equiv_pos_as_xyz
1 x,y,z
2 -y,x-y,z+2/3
3 -x+y,-x,z+1/3
4 -x,-y,z
5 y,-x+y,z+2/3
6 x-y,x,z+1/3
7 y,x,-z+2/3
8 x-y,-y,-z
9 -x,-x+y,-z+1/3
10 -y,-x,-z+2/3
11 -x+y,y,-z
12 x,x-y,-z+1/3
loop_
_atom_site_label
_atom_site_type_symbol
_atom_site_fract_x
_atom_site_fract_y
_atom_site_fract_z
_atom_site_adp_type
_atom_site_U_iso_or_equiv
_atom_site_symmetry_multiplicity
_atom_site_occupancy
_atom_site_calc_flag
Gd1 Gd 0.5 0 0.5 Uiso 0.020(2) 3 1 d
P1 P 0.5 0 0 Uiso 0.025(4) 3 1 d
O1 O 0.3036(19) -0.140(2) 0.1525(15) Uiso 0.012(3) 12 1 d
loop_
_refln_index_h
_refln_index_k
_refln_index_l
_refln_F_squared_calc
_refln_F_squared_meas
_refln_F_squared_sigma
_refln_observed_status
-1 2 0 205.23 334.23 7.09 o
-1 3 0 6.89 7.28 0.17 o
-2 4 0 187.96 441.23 9.41 o
-2 5 0 19.92 11.45 0.23 o
-3 6 0 26.70 49.89 1.06 o
-3 7 0 7.26 10.65 0.19 o
-4 8 0 23.76 33.35 0.71 o
-3 8 0 0.00 2.67 0.08 o
-4 9 0 4.55 5.49 0.09 o
-3 9 0 0.43 3.74 0.11 o
0 1 1 91.16 122.92 1.08 o
-1 2 1 5.45 18.47 0.32 o
0 2 1 32.36 34.53 0.38 o
-1 3 1 87.10 83.76 1.28 o
-2 3 1 87.10 104.88 1.59 o
0 3 1 167.42 142.72 2.29 o
-2 4 1 23.33 23.77 0.36 o
-1 4 1 29.57 40.90 0.69 o
-3 4 1 29.57 17.21 0.29 o
0 4 1 4.96 5.07 0.15 o
-2 5 1 22.96 8.64 0.14 o
-3 5 1 22.96 38.07 0.60 o
-1 5 1 15.37 10.16 0.22 o
-4 5 1 15.37 21.96 0.49 o
-3 6 1 17.43 20.37 0.31 o
-2 6 1 2.87 5.38 0.10 o
-4 6 1 2.87 6.07 0.13 o
-1 6 1 15.12 6.04 0.18 o
-5 6 1 15.12 12.68 0.38 o
-3 7 1 3.97 9.89 0.16 o
-4 7 1 3.97 9.63 0.18 o
-2 7 1 8.05 2.13 0.05 o
-5 7 1 8.05 13.50 0.30 o
-6 7 1 5.36 1.72 0.05 o
-4 8 1 1.02 4.11 0.07 o
-3 8 1 1.95 3.01 0.05 o
-5 8 1 1.95 3.59 0.09 o
-2 8 1 0.86 2.74 0.08 o
-6 8 1 0.86 3.12 0.09 o
-4 9 1 6.10 9.34 0.14 o
-5 9 1 6.10 6.80 0.13 o
-3 9 1 1.79 2.42 0.06 o
-6 9 1 1.79 2.82 0.07 o
0 1 2 414.34 494.42 4.38 o
-1 2 2 111.64 152.21 1.34 o
0 2 2 34.84 44.75 0.41 o
-1 3 2 212.07 238.02 2.14 o
-2 3 2 212.07 262.49 2.41 o
0 3 2 285.53 307.44 3.37 o
-2 4 2 14.71 11.48 0.16 o
-1 4 2 73.01 61.32 0.77 o
-3 4 2 73.01 66.45 0.76 o
0 4 2 1.60 3.43 0.05 o
-2 5 2 48.82 71.33 1.08 o
-3 5 2 48.82 30.86 0.50 o
-1 5 2 46.49 41.38 0.58 o
-4 5 2 46.49 46.13 0.69 o
0 5 2 13.65 21.41 0.34 o
-3 6 2 44.75 53.33 0.81 o
-2 6 2 2.50 2.46 0.04 o
-4 6 2 2.50 4.30 0.08 o
-1 6 2 35.59 33.74 0.52 o
-5 6 2 35.59 27.47 0.43 o
-3 7 2 11.60 16.08 0.25 o
-4 7 2 11.60 18.66 0.31 o
-2 7 2 16.68 31.79 0.54 o
-5 7 2 16.68 17.27 0.28 o
-1 7 2 13.16 13.58 0.29 o
-6 7 2 13.16 8.92 0.21 o
0 7 2 7.72 7.87 0.24 o
-4 8 2 0.28 2.38 0.04 o
-3 8 2 6.41 8.85 0.13 o
-5 8 2 6.41 8.75 0.14 o
-2 8 2 0.92 2.80 0.05 o
-6 8 2 0.92 2.15 0.05 o
-1 8 2 4.82 4.02 0.12 o
-7 8 2 4.82 7.12 0.21 o
-4 9 2 9.14 6.41 0.12 o
-5 9 2 9.14 5.39 0.12 o
0 0 3 573.13 501.31 10.67 o
0 1 3 35.54 34.88 0.31 o
-1 2 3 19.29 18.46 0.16 o
0 2 3 58.10 64.08 0.56 o
-1 3 3 4.01 8.13 0.08 o
-2 3 3 4.01 3.54 0.03 o
0 3 3 15.37 14.77 0.13 o
-2 4 3 13.74 17.06 0.15 o
-1 4 3 9.19 8.51 0.08 o
-3 4 3 9.19 10.20 0.09 o
0 4 3 18.31 16.80 0.16 o
-2 5 3 3.68 5.05 0.05 o
-3 5 3 3.68 6.07 0.09 o
-1 5 3 2.57 4.32 0.06 o
-4 5 3 2.57 4.63 0.05 o
0 5 3 11.54 9.88 0.11 o
-3 6 3 8.65 8.53 0.12 o
-2 6 3 31.56 21.64 0.28 o
-4 6 3 31.56 20.80 0.28 o
-1 6 3 5.69 6.06 0.08 o
-5 6 3 5.69 4.77 0.05 o
0 6 3 14.64 14.39 0.17 o
-3 7 3 2.11 2.17 0.04 o
-4 7 3 2.11 3.51 0.06 o
-2 7 3 3.30 2.32 0.05 o
-5 7 3 3.30 3.11 0.09 o
-1 7 3 1.33 2.95 0.06 o
-6 7 3 1.33 1.62 0.03 o
0 7 3 2.59 2.23 0.05 o
-4 8 3 5.72 8.22 0.13 o
-5 8 3 0.33 1.27 0.03 o
-2 8 3 4.28 8.08 0.12 o
-6 8 3 4.28 6.12 0.10 o
-1 8 3 2.29 2.44 0.05 o
-7 8 3 2.29 2.74 0.08 o
0 1 4 58.32 55.35 0.51 o
-1 2 4 38.21 40.74 0.42 o
0 2 4 4.72 16.85 0.17 o
-1 3 4 83.21 74.90 0.66 o
-2 3 4 83.21 81.40 0.73 o
0 3 4 119.11 108.78 0.97 o
-2 4 4 8.96 6.08 0.06 o
-1 4 4 45.73 45.77 0.41 o
-3 4 4 45.73 42.09 0.38 o
0 4 4 3.24 3.37 0.04 o
-2 5 4 26.35 17.88 0.16 o
-3 5 4 26.35 32.07 0.29 o
-1 5 4 18.24 18.46 0.17 o
-4 5 4 18.24 16.09 0.15 o
0 5 4 9.32 14.25 0.15 o
-3 6 4 17.07 16.26 0.15 o
-2 6 4 1.37 3.66 0.04 o
-4 6 4 1.37 4.38 0.05 o
-1 6 4 14.18 12.59 0.13 o
-5 6 4 14.18 11.18 0.12 o
0 6 4 0.01 1.92 0.03 o
-3 7 4 5.99 8.82 0.11 o
-4 7 4 5.99 6.68 0.08 o
-2 7 4 8.02 4.40 0.06 o
-5 7 4 8.02 12.39 0.14 o
-1 7 4 7.27 8.83 0.10 o
-6 7 4 7.27 7.57 0.10 o
0 7 4 4.33 5.03 0.07 o
-4 8 4 1.05 1.95 0.03 o
-3 8 4 3.67 4.08 0.06 o
-5 8 4 3.67 4.71 0.07 o
0 1 5 23.74 18.73 0.17 o
-1 2 5 0.57 7.41 0.07 o
0 2 5 8.92 9.52 0.08 o
-1 3 5 15.49 12.98 0.12 o
-2 3 5 15.49 10.07 0.09 o
0 3 5 29.16 19.77 0.18 o
-2 4 5 2.62 2.79 0.03 o
-1 4 5 3.78 3.50 0.04 o
-3 4 5 3.78 3.25 0.04 o
0 4 5 0.06 1.84 0.03 o
-2 5 5 4.72 6.40 0.06 o
-3 5 5 4.72 5.13 0.07 o
-1 5 5 6.39 6.08 0.06 o
-4 5 5 6.39 5.04 0.05 o
0 5 5 0.48 4.75 0.06 o
-3 6 5 8.34 6.24 0.06 o
-2 6 5 0.99 1.53 0.02 o
-4 6 5 0.99 1.62 0.02 o
-1 6 5 7.75 7.23 0.07 o
-5 6 5 7.75 3.38 0.04 o
0 6 5 0.59 1.42 0.02 o
-3 7 5 1.61 2.89 0.03 o
-4 7 5 1.61 1.78 0.03 o
-2 7 5 3.59 6.07 0.07 o
-5 7 5 3.59 2.18 0.03 o
-1 7 5 2.50 1.88 0.06 o
-6 7 5 2.50 1.46 0.04 o
0 0 6 158.91 112.93 2.42 o
0 1 6 12.19 11.08 0.10 o
-1 2 6 8.39 6.88 0.07 o
0 2 6 42.76 40.57 0.37 o
-1 3 6 2.55 7.20 0.08 o
-2 3 6 2.55 3.63 0.05 o
0 3 6 6.89 7.43 0.08 o
-2 4 6 18.79 15.45 0.14 o
-1 4 6 4.90 3.51 0.04 o
-3 4 6 4.90 6.17 0.06 o
0 4 6 18.77 16.72 0.15 o
-2 5 6 2.62 2.46 0.04 o
-3 5 6 2.62 4.73 0.06 o
-1 5 6 0.48 1.51 0.03 o
-4 5 6 0.48 2.83 0.03 o
0 5 6 5.12 4.63 0.05 o
-3 6 6 4.12 5.10 0.06 o
-2 6 6 20.57 17.69 0.16 o
-4 6 6 20.57 18.94 0.17 o
-1 6 6 3.00 3.37 0.05 o
-5 6 6 3.00 2.02 0.03 o
0 1 7 0.75 2.21 0.03 o
-1 2 7 1.47 3.05 0.04 o
0 2 7 0.24 1.02 0.02 o
-1 3 7 6.34 4.64 0.05 o
-2 3 7 6.34 4.76 0.05 o
0 3 7 11.18 8.35 0.08 o
-2 4 7 1.71 2.28 0.05 o
-1 4 7 5.01 4.23 0.04 o
-3 4 7 5.01 4.13 0.05 o
0 4 7 0.96 3.50 0.06 o
-2 5 7 2.88 1.82 0.03 o
-3 5 7 2.88 4.45 0.06 o
-1 5 7 1.16 1.27 0.03 o
-4 5 7 1.16 3.10 0.07 o
0 1 8 10.86 9.77 0.09 o
-1 2 8 1.89 3.94 0.05 o
0 2 8 1.50 2.47 0.04 o
-1 3 8 5.80 2.96 0.06 o
-2 3 8 5.80 4.13 0.07 o
0 3 8 8.45 3.50 0.11 o
