#------------------------------------------------------------------------------
#$Date: 2016-02-16 22:30:59 +0200 (Tue, 16 Feb 2016) $
#$Revision: 176467 $
#$URL: svn://www.crystallography.net/cod/cif/4/33/99/4339986.cif $
#------------------------------------------------------------------------------
#
# This file is available in the Crystallography Open Database (COD),
# http://www.crystallography.net/
#
# All data on this site have been placed in the public domain by the
# contributors.
#
data_4339986
loop_
_publ_author_name
'L\"u, Minfeng'
'Colmont, Marie'
'Kabbour, Houria'
'Colis, Silviu'
'Mentr\'e, Olivier'
_publ_section_title
;
 Revised bi/m layered oxo-sulfate (m = co, cu): a structural and magnetic
 study.
;
_journal_issue                   13
_journal_name_full               'Inorganic chemistry'
_journal_page_first              6969
_journal_page_last               6978
_journal_paper_doi               10.1021/ic500877z
_journal_volume                  53
_journal_year                    2014
_chemical_formula_sum            'Bi6 Co O16 S2'
_chemical_formula_weight         1632.9
_chemical_name_systematic        ' ?'
_space_group_IT_number           5
_symmetry_cell_setting           monoclinic
_symmetry_Int_Tables_number      5
_symmetry_space_group_name_Hall  'C 2y'
_symmetry_space_group_name_H-M   'C 1 2 1'
_cell_angle_alpha                90
_cell_angle_beta                 131.481(4)
_cell_angle_gamma                90
_cell_formula_units_Z            2
_cell_length_a                   15.2834(14)
_cell_length_b                   5.5468(5)
_cell_length_c                   11.2272(10)
_cell_measurement_temperature    293
_cell_volume                     713.05(12)
_diffrn_ambient_temperature      293
_diffrn_measured_fraction_theta_full 0.99
_diffrn_measured_fraction_theta_max 0.99
_diffrn_measurement_device       'four-cycle diffractometer'
_diffrn_measurement_device_type  'Bruker CCD'
_diffrn_radiation_monochromator  graphite
_diffrn_radiation_source         'X-ray tube'
_diffrn_radiation_type           'Mo K\a'
_diffrn_radiation_wavelength     0.71073
_diffrn_reflns_av_R_equivalents  0.0456
_diffrn_reflns_av_sigmaI/netI    0.057
_diffrn_reflns_limit_h_max       20
_diffrn_reflns_limit_h_min       -23
_diffrn_reflns_limit_k_max       8
_diffrn_reflns_limit_k_min       -7
_diffrn_reflns_limit_l_max       17
_diffrn_reflns_limit_l_min       -17
_diffrn_reflns_number            9457
_diffrn_reflns_theta_full        33.18
_diffrn_reflns_theta_max         33.18
_diffrn_reflns_theta_min         2.42
_exptl_absorpt_coefficient_mu    75.281
_exptl_absorpt_correction_T_max  0.7465
_exptl_absorpt_correction_T_min  0.4655
_exptl_absorpt_correction_type   multi-scan
_exptl_absorpt_process_details   Bruker
_exptl_crystal_colour            pink
_exptl_crystal_density_diffrn    7.603
_exptl_crystal_description       transparent
_exptl_crystal_F_000             1370
_exptl_crystal_size_max          0.042
_exptl_crystal_size_mid          0.035
_exptl_crystal_size_min          0.004
_refine_diff_density_max         4.40
_refine_diff_density_min         -2.59
_refine_ls_extinction_method     none
_refine_ls_goodness_of_fit_gt    1.41
_refine_ls_goodness_of_fit_ref   1.36
_refine_ls_number_constraints    1
_refine_ls_number_parameters     73
_refine_ls_number_reflns         2616
_refine_ls_number_restraints     0
_refine_ls_R_factor_all          0.0460
_refine_ls_R_factor_gt           0.0380
_refine_ls_shift/su_max          0.0067
_refine_ls_shift/su_mean         0.0011
_refine_ls_structure_factor_coef F
_refine_ls_weighting_details     w=1/(\s^2^(F)+0.0001F^2^)
_refine_ls_weighting_scheme      sigma
_refine_ls_wR_factor_gt          0.0364
_refine_ls_wR_factor_ref         0.0374
_reflns_number_gt                2312
_reflns_number_total             2616
_reflns_threshold_expression     I>3\s(I)
_cod_data_source_file            ic500877z_si_003.cif
_cod_data_source_block           I
_cod_depositor_comments
'Adding full bibliography for 4339984--4339986.cif.'
_cod_original_formula_sum        'Bi6 Co1 O16 S2'
_cod_database_code               4339986
loop_
_symmetry_equiv_pos_site_id
_symmetry_equiv_pos_as_xyz
1 x,y,z
2 -x,y,-z
3 x+1/2,y+1/2,z
4 -x+1/2,y+1/2,-z
loop_
_atom_site_label
_atom_site_type_symbol
_atom_site_fract_x
_atom_site_fract_y
_atom_site_fract_z
_atom_site_adp_type
_atom_site_U_iso_or_equiv
_atom_site_symmetry_multiplicity
_atom_site_occupancy
_atom_site_calc_flag
Bi1 Bi 0.84534(4) 0.366633 0.35377(6) Uani 0.0091(2) 4 1 d
Bi2 Bi 0.97973(4) -0.13896(15) 0.30629(5) Uani 0.0089(2) 4 1 d
Bi3 Bi 0.66070(4) -0.05893(16) -0.00714(6) Uani 0.0100(2) 4 1 d
Co1 Co 0.5 0.3680(7) 0 Uani 0.0154(14) 2 1 d
S1 S 0.1464(3) 0.3390(10) 0.2834(4) Uani 0.0155(17) 4 1 d
O1 O 1 0.628(3) 0.5 Uiso 0.014(3) 2 1 d
O2 O 0.1129(10) 0.111(2) 0.1899(13) Uiso 0.029(3) 4 1 d
O3 O 0.1243(9) 0.539(2) 0.1832(13) Uiso 0.027(3) 4 1 d
O4 O 0.2693(9) 0.323(2) 0.4230(12) Uiso 0.026(3) 4 1 d
O5 O 0.0725(8) 0.362(2) 0.3228(11) Uiso 0.024(2) 4 1 d
O6 O 0.4032(8) 0.3079(19) 0.0493(11) Uiso 0.016(2) 4 1 d
O7 O 0.8378(8) 0.597(2) 0.1881(11) Uiso 0.013(2) 4 1 d
O8 O 0.8280(7) 0.0955(18) 0.1855(10) Uiso 0.010(2) 4 1 d
O9 O 1 0.139(3) 0.5 Uiso 0.009(3) 2 1 d
loop_
_atom_site_aniso_label
_atom_site_aniso_type_symbol
_atom_site_aniso_U_11
_atom_site_aniso_U_22
_atom_site_aniso_U_33
_atom_site_aniso_U_12
_atom_site_aniso_U_13
_atom_site_aniso_U_23
Bi1 Bi 0.00850(17) 0.0097(2) 0.0095(2) 0.0002(2) 0.00611(16) 0.0005(2)
Bi2 Bi 0.00746(18) 0.0089(2) 0.0090(2) 0.0007(3) 0.00482(16) 0.0010(3)
Bi3 Bi 0.00956(19) 0.0091(3) 0.0085(2) -0.0004(2) 0.00484(17) 0.0008(2)
Co1 Co 0.0159(11) 0.0212(17) 0.0151(12) 0 0.0129(10) 0
S1 S 0.0084(13) 0.026(3) 0.0096(14) -0.0014(16) 0.0049(11) -0.0004(17)
loop_
_atom_type_symbol
_atom_type_scat_dispersion_real
_atom_type_scat_dispersion_imag
_atom_type_scat_source
Bi -4.1077 10.2566 'International Tables Vol C tables 4.2.6.8 and 6.1.1.1'
Co 0.3494 0.9721 'International Tables Vol C tables 4.2.6.8 and 6.1.1.1'
O 0.0106 0.0060 'International Tables Vol C tables 4.2.6.8 and 6.1.1.1'
S 0.1246 0.1234 'International Tables Vol C tables 4.2.6.8 and 6.1.1.1'
loop_
_geom_angle_atom_site_label_1
_geom_angle_atom_site_label_2
_geom_angle_atom_site_label_3
_geom_angle_site_symmetry_1
_geom_angle_site_symmetry_3
_geom_angle
O1 Bi1 O7 . . 71.9(3)
O1 Bi1 O8 . . 120.5(3)
O1 Bi1 O9 . . 74.7(4)
O7 Bi1 O8 . . 76.7(4)
O7 Bi1 O9 . . 113.5(3)
O8 Bi1 O9 . . 73.5(3)
O1 Bi2 O6 1_545 3_545 136.8(4)
O1 Bi2 O7 1_545 1_545 70.5(4)
O1 Bi2 O8 1_545 . 109.6(4)
O6 Bi2 O7 3_545 1_545 71.2(5)
O6 Bi2 O8 3_545 . 81.3(4)
O7 Bi2 O8 1_545 . 78.7(4)
O6 Bi3 O7 2_655 4_645 73.2(5)
O6 Bi3 O8 2_655 . 84.8(3)
O7 Bi3 O8 4_645 . 92.2(4)
O2 Co1 O2 3_555 4_555 100.8(5)
O2 Co1 O6 3_555 . 95.2(6)
O2 Co1 O6 3_555 2_655 97.5(6)
O2 Co1 O6 4_555 . 97.5(6)
O2 Co1 O6 4_555 2_655 95.2(6)
O6 Co1 O6 . 2_655 160.0(5)
O2 S1 O3 . . 107.9(8)
O2 S1 O4 . . 107.6(7)
O2 S1 O5 . . 108.1(9)
O3 S1 O4 . . 110.9(8)
O3 S1 O5 . . 109.6(8)
O4 S1 O5 . . 112.6(8)
loop_
_geom_bond_atom_site_label_1
_geom_bond_atom_site_label_2
_geom_bond_site_symmetry_2
_geom_bond_distance
Bi1 O1 . 2.290(10)
Bi1 O7 . 2.196(13)
Bi1 O8 . 2.288(12)
Bi1 O9 . 2.176(8)
Bi2 O1 1_545 2.367(8)
Bi2 O6 3_545 2.304(12)
Bi2 O7 1_545 2.191(10)
Bi2 O8 . 2.178(10)
Bi3 O6 2_655 2.169(11)
Bi3 O7 4_645 2.222(14)
Bi3 O8 . 2.150(8)
Co1 O2 3_555 2.112(11)
Co1 O2 4_555 2.112(11)
Co1 O6 . 1.921(15)
Co1 O6 2_655 1.921(15)
S1 O2 . 1.502(14)
S1 O3 . 1.452(14)
S1 O4 . 1.447(9)
S1 O5 . 1.467(17)
loop_
_refln_index_h
_refln_index_k
_refln_index_l
_refln_F_squared_calc
_refln_F_squared_meas
_refln_F_squared_sigma
_refln_observed_status
5 -7 0 15818.30 17652.10 2586.43 o
7 -7 0 3462.79 1824.20 1695.32 <
9 -7 0 1940.43 2617.36 1913.31 <
2 -6 0 27024.60 29594.50 2567.28 o
4 -6 0 14023.70 13968.30 2185.06 o
6 -6 0 9331.41 10220.50 1988.43 o
8 -6 0 12988.50 13988.20 2464.92 o
10 -6 0 911.72 205.47 1440.51 <
12 -6 0 1156.06 -324.04 1799.16 <
1 -5 0 24881.30 25487.20 1355.81 o
3 -5 0 59040.00 53985.10 3414.94 o
5 -5 0 30331.90 34771.00 2378.75 o
7 -5 0 6022.25 6707.63 1402.21 o
9 -5 0 13586.50 16149.70 1915.52 o
11 -5 0 6790.87 7401.37 1506.05 o
13 -5 0 5750.69 5605.16 2018.62 <
0 -4 0 216281.00 195675.00 5692.06 o
2 -4 0 33974.50 36426.50 1158.44 o
4 -4 0 13825.70 16335.30 1053.87 o
6 -4 0 96794.70 93504.80 4336.98 o
8 -4 0 18649.30 16065.00 2319.10 o
10 -4 0 12118.90 12600.00 1647.45 o
12 -4 0 17287.70 13964.70 1800.63 o
14 -4 0 2495.77 2734.46 1251.24 <
1 -3 0 33878.90 33815.80 864.60 o
3 -3 0 289940.00 283785.00 4471.76 o
5 -3 0 27445.20 31183.00 1301.32 o
7 -3 0 16761.90 15636.40 1063.44 o
9 -3 0 88857.90 85864.80 3150.56 o
11 -3 0 8542.69 8022.94 1307.21 o
13 -3 0 31545.50 28516.30 2182.12 o
15 -3 0 10283.00 10470.20 1553.18 o
0 -2 0 574468.00 518791.00 7167.92 o
2 -2 0 24970.00 24761.10 659.13 o
4 -2 0 20840.10 20771.70 748.97 o
6 -2 0 240518.00 243194.00 3658.71 o
8 -2 0 14573.60 16366.20 871.23 o
10 -2 0 47065.80 45560.10 1336.67 o
12 -2 0 41855.50 42609.10 1583.38 o
14 -2 0 4698.40 5006.42 831.46 o
16 -2 0 47716.10 45837.70 2082.70 o
1 -1 0 6956.92 5783.38 291.64 o
3 -1 0 729968.00 687957.00 7438.20 o
5 -1 0 21001.90 21581.10 727.62 o
7 -1 0 43268.00 43374.30 950.03 o
9 -1 0 192455.00 195164.00 2647.56 o
11 -1 0 9442.64 9987.80 625.25 o
13 -1 0 66381.50 64873.60 1891.95 o
15 -1 0 10047.80 10733.10 1078.17 o
17 -1 0 1876.71 4266.28 1416.20 o
2 0 0 8250.25 7978.76 383.69 o
4 0 0 30215.00 29544.40 718.78 o
6 0 0 461391.00 453290.00 5720.05 o
8 0 0 19730.70 19565.40 757.08 o
10 0 0 60609.20 62158.30 1128.25 o
12 0 0 73079.00 74577.10 1307.21 o
14 0 0 4522.38 4322.99 520.67 o
16 0 0 62938.80 67971.90 3713.94 o
1 1 0 6697.16 5489.54 187.80 o
3 1 0 725815.00 688232.00 7969.18 o
5 1 0 22335.90 22343.30 935.30 o
7 1 0 42435.30 45131.40 1161.39 o
9 1 0 188782.00 191781.00 3510.68 o
11 1 0 9938.06 9903.11 636.30 o
13 1 0 66720.60 64218.90 1956.02 o
15 1 0 10495.70 10719.10 1056.08 o
17 1 0 1775.72 1556.13 773.28 <
0 2 0 565271.00 540272.00 6281.23 o
2 2 0 26021.10 26634.60 501.53 o
4 2 0 22999.70 20066.90 585.48 o
6 2 0 246343.00 242102.00 5619.89 o
8 2 0 14681.40 18995.40 1945.71 o
14 2 0 4318.57 3686.69 528.04 o
16 2 0 46017.60 42785.10 1687.96 o
1 3 0 34361.90 33595.60 645.14 o
3 3 0 285970.00 283384.00 2904.58 o
5 3 0 29747.70 29189.40 772.54 o
7 3 0 16373.00 15084.80 991.27 o
9 3 0 81027.90 83980.90 4466.60 o
0 4 0 191368.00 199444.00 3263.23 o
2 4 0 37441.20 38487.10 972.86 o
4 4 0 15222.90 14693.80 628.20 o
6 4 0 92423.50 88591.90 1604.74 o
8 4 0 18621.90 19829.80 1040.61 o
10 4 0 11462.60 10883.30 744.56 o
1 5 0 25649.90 27792.30 1262.28 o
3 5 0 54782.30 59573.30 1525.93 o
5 5 0 30832.10 31001.80 1172.44 o
7 5 0 6760.29 7249.66 631.88 o
9 5 0 12276.70 12826.80 829.98 o
11 5 0 6481.46 6725.31 824.09 o
13 5 0 5529.30 5900.48 705.52 o
0 6 0 23467.40 20511.00 3481.22 o
2 6 0 27105.90 25845.90 1673.96 o
4 6 0 14211.80 14174.60 1282.17 o
6 6 0 9634.86 10076.20 1113.52 o
8 6 0 11966.70 10437.00 1147.40 o
10 6 0 816.36 921.30 768.12 <
12 6 0 1297.99 344.66 702.58 <
1 7 0 13973.40 12759.80 2218.94 o
3 7 0 16793.30 16493.70 2456.81 o
5 7 0 16456.50 15467.80 1850.71 o
7 7 0 4047.82 6369.60 1332.98 o
9 7 0 1774.04 1718.15 1358.02 <
0 8 0 25876.30 31518.10 4926.15 o
2 8 0 11587.10 6114.05 2045.87 <
4 8 0 5733.54 4874.60 1883.85 <
6 8 0 13313.10 15343.30 2523.10 o
-9 -7 1 37415.70 34322.50 4276.60 o
-7 -7 1 7766.46 7916.89 2223.36 o
-5 -7 1 14922.30 18682.40 2695.43 o
3 -7 1 34528.40 33716.40 3178.54 o
5 -7 1 26015.80 31057.80 3339.09 o
7 -7 1 21861.00 22372.00 3085.75 o
9 -7 1 11168.10 10750.00 2434.72 o
-12 -6 1 29831.50 26049.20 4016.63 o
-10 -6 1 4147.24 3238.19 1821.99 <
-8 -6 1 26469.10 31816.30 3294.16 o
-6 -6 1 73527.20 67885.00 4464.39 o
-4 -6 1 15190.50 18968.90 2231.46 o
-2 -6 1 2703.15 5287.01 1346.98 o
0 -6 1 74636.90 73960.00 3474.60 o
2 -6 1 28201.40 30488.50 2844.93 o
4 -6 1 15947.10 17895.90 1841.87 o
6 -6 1 25283.90 23737.40 2228.51 o
8 -6 1 30014.50 31305.20 2636.51 o
10 -6 1 47868.30 52088.00 3498.90 o
-15 -5 1 13163.60 17887.80 3172.65 o
-13 -5 1 5066.80 6695.85 2237.35 <
-11 -5 1 41377.40 48560.40 4130.78 o
-9 -5 1 67473.10 73761.90 4318.57 o
-7 -5 1 9926.36 12038.80 2084.90 o
-5 -5 1 30732.30 31770.70 2770.54 o
-3 -5 1 107789.00 102921.00 3283.12 o
-1 -5 1 23846.40 27202.40 1591.48 o
1 -5 1 7106.34 6891.01 1061.23 o
3 -5 1 50057.20 52782.50 2643.87 o
5 -5 1 42471.30 47107.40 3725.73 o
7 -5 1 36206.10 43585.60 3757.39 o
9 -5 1 11900.70 11910.00 1788.85 o
11 -5 1 28309.80 30477.50 2643.14 o
13 -5 1 48527.50 48968.40 3429.67 o
-16 -4 1 6378.71 12957.90 2643.87 o
-14 -4 1 46393.30 45783.20 4515.21 o
-12 -4 1 34287.10 38820.80 2678.49 o
-10 -4 1 10748.80 11708.20 1539.93 o
-8 -4 1 77105.80 81891.60 3230.83 o
-6 -4 1 101789.00 101387.00 3434.09 o
-4 -4 1 15362.40 17607.20 997.16 o
-2 -4 1 33373.00 36548.10 1240.93 o
0 -4 1 88919.40 91810.20 1973.70 o
2 -4 1 40429.30 40109.60 1627.57 o
4 -4 1 13393.90 13474.20 1184.96 o
6 -4 1 25272.80 27145.00 2811.79 o
8 -4 1 46757.90 50892.00 3859.76 o
10 -4 1 48124.70 47324.60 3864.92 o
12 -4 1 5039.44 4645.56 1317.52 o
14 -4 1 19148.90 20561.80 2257.97 o
-17 -3 1 24077.30 18781.80 2912.68 o
-15 -3 1 12520.10 13426.30 2431.77 o
-13 -3 1 8414.70 9705.01 1220.31 o
-11 -3 1 67596.30 75360.00 2027.46 o
-9 -3 1 52109.10 55244.40 1645.98 o
-7 -3 1 9836.06 10834.00 772.54 o
-5 -3 1 107517.00 103826.00 2009.05 o
-3 -3 1 94972.00 97041.20 1614.31 o
-1 -3 1 27235.20 28646.60 640.72 o
1 -3 1 24162.40 30280.10 984.64 o
3 -3 1 56929.70 52332.50 1441.24 o
5 -3 1 47449.90 49755.60 1591.48 o
7 -3 1 34463.70 35604.70 1847.03 o
9 -3 1 15638.40 13075.00 1271.12 o
11 -3 1 36530.70 38758.20 3291.95 o
13 -3 1 38199.60 33740.70 3236.72 o
15 -3 1 6844.67 5208.21 1358.76 o
-18 -2 1 7773.03 6844.61 1971.49 o
-16 -2 1 7625.14 7539.09 1316.78 o
-14 -2 1 48028.80 46274.40 1581.17 o
-12 -2 1 16796.40 17072.50 973.59 o
-10 -2 1 16314.30 16734.50 930.14 o
-8 -2 1 99129.50 104237.00 1919.20 o
-6 -2 1 48625.30 45364.90 972.12 o
-4 -2 1 5981.45 5826.83 448.50 o
-2 -2 1 56403.10 62606.80 1057.55 o
0 -2 1 62225.70 57188.70 873.44 o
2 -2 1 43730.00 45068.10 1131.93 o
4 -2 1 13580.20 18513.70 761.49 o
6 -2 1 29614.40 25543.20 1054.60 o
8 -2 1 44339.10 47164.10 1496.48 o
10 -2 1 38626.50 43608.50 1693.85 o
12 -2 1 17401.80 15401.50 1159.18 o
14 -2 1 25308.10 26674.40 2111.42 o
16 -2 1 19454.80 20299.60 1997.27 o
-17 -1 1 27031.90 30601.20 2123.20 o
-15 -1 1 5165.84 6603.79 897.00 o
-13 -1 1 14662.20 15768.20 720.99 o
-11 -1 1 93402.30 97796.80 1701.95 o
-9 -1 1 10145.60 10255.90 623.78 o
-7 -1 1 14516.60 16627.70 622.30 o
-5 -1 1 203644.00 202492.00 2702.79 o
-3 -1 1 25593.40 23550.40 531.72 o
-1 -1 1 4272.39 3817.05 173.80 o
1 -1 1 26859.70 30680.00 662.81 o
3 -1 1 26418.60 22437.60 548.66 o
5 -1 1 38312.50 40980.00 889.64 o
7 -1 1 4888.80 4897.43 438.19 o
9 -1 1 23120.50 21169.40 829.25 o
11 -1 1 46683.30 49215.80 1312.36 o
13 -1 1 13834.40 11627.20 1084.80 o
15 -1 1 13620.80 14322.60 1523.73 o
-18 0 1 8713.37 7616.42 1637.88 o
-16 0 1 9700.17 8648.19 1159.18 o
-14 0 1 76845.40 77868.40 1331.51 o
-12 0 1 405.76 429.35 283.54 <
-10 0 1 14838.40 16051.00 601.68 o
-8 0 1 189613.00 189976.00 2793.37 o
-6 0 1 3483.07 3005.47 264.39 o
-4 0 1 8374.49 9023.05 306.36 o
-2 0 1 134661.00 133379.00 1241.66 o
0 0 1 3546.30 3861.97 97.95 o
2 0 1 12099.60 12497.60 301.95 o
4 0 1 43218.90 47449.80 916.89 o
6 0 1 29099.80 29968.60 853.55 o
8 0 1 55565.50 56168.00 1266.70 o
10 0 1 4185.31 4496.06 410.94 o
12 0 1 21279.60 22182.80 884.48 o
14 0 1 30904.40 29928.10 1877.96 o
16 0 1 5367.69 4693.43 1457.44 o
-17 1 1 27281.90 26337.10 1700.47 o
-15 1 1 5861.04 5422.52 600.95 o
-13 1 1 16044.50 14409.50 998.63 o
-11 1 1 94497.50 96788.60 1568.65 o
-9 1 1 10518.30 10602.70 575.17 o
-7 1 1 17213.50 15685.80 609.78 o
-5 1 1 201717.00 207482.00 2830.93 o
-3 1 1 25991.50 24459.10 406.52 o
-1 1 1 4109.56 4039.46 155.39 o
1 1 1 35502.50 29190.90 502.26 o
3 1 1 21713.90 22391.90 495.63 o
5 1 1 39542.40 41444.00 1067.12 o
7 1 1 5762.66 4884.91 481.64 o
9 1 1 21267.40 21768.10 663.55 o
11 1 1 47282.90 49297.60 1606.95 o
13 1 1 13747.80 13980.10 1091.43 o
15 1 1 12179.90 14036.10 1249.03 o
-18 2 1 8218.59 8459.66 927.93 o
-16 2 1 9288.80 5970.44 710.68 o
-14 2 1 48254.90 44710.20 1731.41 o
-8 2 1 103594.00 104120.00 2765.39 o
-6 2 1 43935.50 44482.60 922.04 o
-4 2 1 6547.78 5808.42 318.15 o
-2 2 1 65490.80 60982.20 774.75 o
0 2 1 60928.90 56774.80 706.26 o
2 2 1 43849.20 46899.70 777.70 o
4 2 1 19841.30 16069.50 815.26 o
6 2 1 27220.80 27292.30 2369.18 o
12 2 1 14346.20 17426.00 2756.55 o
14 2 1 26614.30 23236.60 1147.40 o
16 2 1 20184.40 19582.30 1305.73 o
-9 3 1 51676.00 51746.30 1563.49 o
-7 3 1 11240.20 10529.80 543.50 o
-5 3 1 104294.00 105466.00 1470.70 o
-3 3 1 94747.50 98029.50 1346.24 o
-1 3 1 28068.20 29160.70 617.15 o
1 3 1 31698.40 28170.90 645.87 o
3 3 1 52325.40 53598.50 910.99 o
5 3 1 50517.00 47491.00 1150.34 o
7 3 1 36216.30 35515.60 1947.92 o
-12 4 1 34452.50 33708.30 1216.62 o
-10 4 1 11766.20 10437.80 892.58 o
-8 4 1 79369.00 76427.10 1516.36 o
-6 4 1 98852.20 100612.00 1706.37 o
-4 4 1 17327.70 16878.10 636.30 o
-2 4 1 37803.90 37163.70 838.09 o
0 4 1 90220.30 94997.60 1374.96 o
2 4 1 39785.50 41284.20 923.52 o
4 4 1 12690.00 13500.70 702.58 o
6 4 1 24185.60 25709.70 1191.58 o
8 4 1 48141.60 46313.50 1780.01 o
-15 5 1 12086.20 12822.40 958.86 o
-13 5 1 5478.33 6278.28 799.79 o
-11 5 1 43014.30 41178.20 1425.78 o
-9 5 1 63845.70 66825.90 1528.88 o
-7 5 1 9681.98 10776.50 762.23 o
-5 5 1 32304.50 31773.60 1218.10 o
-3 5 1 103712.00 110398.00 2409.68 o
-1 5 1 26386.10 27873.40 1173.91 o
1 5 1 9050.67 8992.12 812.31 o
3 5 1 50332.50 51142.40 1467.76 o
5 5 1 46637.40 44458.30 1368.33 o
7 5 1 38011.80 39545.40 1251.24 o
9 5 1 12235.90 11878.30 831.46 o
11 5 1 28387.00 23948.80 1337.40 o
-12 6 1 28004.70 33475.60 1904.47 o
-10 6 1 4306.69 4411.37 965.49 o
-8 6 1 28546.40 27915.30 1625.36 o
-6 6 1 69111.30 67625.00 2309.52 o
-4 6 1 17218.30 17898.80 1441.98 o
-2 6 1 4354.65 3294.16 1398.53 <
0 6 1 71678.90 69272.40 4087.33 o
2 6 1 30061.40 29297.70 1782.96 o
4 6 1 16205.10 17602.00 1403.68 o
6 6 1 24427.00 26378.40 1405.89 o
8 6 1 33606.90 32168.40 2018.62 o
10 6 1 46739.90 43224.00 2071.65 o
-9 7 1 36682.60 35725.40 2478.17 o
-7 7 1 7648.25 7810.11 1455.24 o
-5 7 1 14501.00 11935.70 2171.07 o
-3 7 1 58162.70 50964.20 4010.73 o
-1 7 1 16909.20 14327.00 2348.56 o
1 7 1 163.08 123.72 1372.02 <
3 7 1 33979.50 34190.70 3315.52 o
5 7 1 27497.00 26539.60 2242.51 o
7 7 1 20851.70 21391.80 2006.84 o
9 7 1 11753.40 13194.30 2456.81 o
-6 8 1 30222.10 27469.00 3141.72 o
-4 8 1 9017.51 7097.22 2006.84 o
-2 8 1 5898.24 6709.84 1991.37 o
0 8 1 33312.20 29105.40 3397.27 o
2 8 1 13689.80 11161.70 2383.17 o
4 8 1 4580.68 3185.17 1694.58 <
-11 -7 2 22318.50 30024.50 4211.79 o
-9 -7 2 23390.70 18700.10 3150.56 o
-7 -7 2 3580.68 3893.64 1682.80 <
1 -7 2 10286.00 10251.50 3410.52 o
3 -7 2 47971.80 41786.50 3669.02 o
5 -7 2 27453.20 25496.80 3129.20 o
7 -7 2 4215.54 1006.00 1696.06 <
-14 -6 2 21528.90 25388.60 3996.74 o
-12 -6 2 11911.70 11951.20 2853.03 o
-10 -6 2 19179.30 16341.20 3047.45 o
-8 -6 2 32410.90 28972.10 3509.95 o
-6 -6 2 47251.40 49077.40 3540.88 o
-4 -6 2 1176.40 30.19 897.74 <
0 -6 2 77516.00 77872.80 3024.62 o
2 -6 2 32031.30 32025.50 2320.57 o
4 -6 2 7921.90 5793.69 1363.91 o
6 -6 2 43597.00 41689.20 3101.21 o
8 -6 2 38680.70 38191.80 3036.40 o
10 -6 2 3533.57 4919.52 1617.99 o
-15 -5 2 4795.50 4108.68 1951.61 <
-13 -5 2 38883.10 37814.00 4584.43 o
-11 -5 2 32630.10 35401.40 4230.94 o
-9 -5 2 31002.50 37076.80 3426.73 o
-7 -5 2 10510.40 12904.90 2115.84 o
-5 -5 2 33761.00 35674.60 2731.51 o
-3 -5 2 98337.90 91492.00 2788.22 o
-1 -5 2 18530.50 21427.20 1267.44 o
1 -5 2 15713.70 19270.10 2350.76 o
3 -5 2 87431.20 100870.00 4608.00 o
5 -5 2 58116.10 53711.10 3917.21 o
7 -5 2 5049.99 5799.58 1915.52 o
9 -5 2 26040.10 31517.30 3434.09 o
11 -5 2 31259.90 29509.80 2725.62 o
-16 -4 2 40512.70 37856.70 4213.26 o
-14 -4 2 31970.70 39157.30 4232.41 o
-12 -4 2 15687.00 15534.80 1933.93 o
-10 -4 2 37785.50 45392.20 2914.15 o
-8 -4 2 43419.00 45734.60 2598.95 o
-6 -4 2 73157.60 72827.30 1920.67 o
-4 -4 2 11703.90 16383.20 852.08 o
-2 -4 2 20969.70 25733.20 1440.51 o
0 -4 2 119463.00 120915.00 2721.94 o
2 -4 2 56855.80 60948.30 1953.82 o
4 -4 2 11746.80 15288.10 2193.90 o
6 -4 2 65682.70 63061.90 4103.53 o
8 -4 2 54303.60 61675.90 4095.43 o
10 -4 2 7053.67 8740.99 1930.99 o
12 -4 2 10901.50 8210.74 2130.56 o
-17 -3 2 24389.60 25209.60 3235.98 o
-15 -3 2 8636.20 9322.79 1492.06 o
-13 -3 2 33725.60 39876.80 2743.30 o
-11 -3 2 44856.40 47512.40 1977.38 o
-9 -3 2 26125.90 25818.60 1274.80 o
-7 -3 2 16289.90 16611.50 1020.73 o
-5 -3 2 34863.70 39393.00 1123.83 o
-3 -3 2 87637.30 80460.70 1478.80 o
-1 -3 2 61306.20 66264.80 1223.25 o
1 -3 2 11953.90 13409.40 670.91 o
3 -3 2 79706.30 79176.30 1873.54 o
5 -3 2 112493.00 120683.00 3001.05 o
7 -3 2 13964.60 13586.90 1515.62 o
9 -3 2 26168.70 29928.10 2946.56 o
11 -3 2 45335.50 47630.20 3649.87 o
13 -3 2 9496.97 9615.16 2136.46 o
-18 -2 2 8801.66 9266.82 1997.27 o
-16 -2 2 18127.30 15960.50 1393.37 o
-14 -2 2 36578.40 37754.40 1765.28 o
-12 -2 2 15830.70 13947.70 950.76 o
-10 -2 2 14003.80 15554.70 835.14 o
-8 -2 2 52071.60 51563.60 1257.87 o
-6 -2 2 32413.00 29414.80 849.87 o
-4 -2 2 108762.00 107499.00 1617.99 o
-2 -2 2 7090.49 5403.37 270.28 o
0 -2 2 42785.10 36928.10 731.30 o
2 -2 2 179891.00 187505.00 2886.90 o
4 -2 2 15635.40 17924.60 931.62 o
6 -2 2 35074.80 35702.60 1383.80 o
8 -2 2 110386.00 114242.00 2185.80 o
10 -2 2 15514.60 18222.10 1225.46 o
12 -2 2 10766.70 9766.87 1181.27 o
14 -2 2 28018.30 28864.60 2241.03 o
-19 -1 2 10587.60 8039.88 1810.21 o
-17 -1 2 30596.70 32652.20 2154.87 o
-15 -1 2 16351.90 17152.80 1028.09 o
-13 -1 2 6953.64 6728.25 558.97 o
-11 -1 2 42084.00 41282.00 907.31 o
-9 -1 2 18347.10 16582.80 703.32 o
-7 -1 2 21465.90 23539.30 625.99 o
-5 -1 2 18537.40 18171.30 460.28 o
-3 -1 2 24704.10 24599.10 424.93 o
-1 -1 2 124019.00 127528.00 1330.04 o
1 -1 2 5842.22 7618.63 398.42 o
3 -1 2 13325.80 13273.90 574.43 o
5 -1 2 203327.00 209748.00 3140.24 o
7 -1 2 24124.00 25055.70 944.14 o
9 -1 2 7812.14 7625.99 602.42 o
11 -1 2 55580.30 54924.10 1606.95 o
13 -1 2 9894.41 9493.64 1344.77 o
15 -1 2 13520.90 10940.80 2025.25 o
-18 0 2 12354.60 14522.90 2028.20 o
-16 0 2 7102.64 7563.39 869.02 o
-14 0 2 40774.30 43096.60 1044.29 o
-12 0 2 19145.80 21427.90 754.87 o
-10 0 2 2797.14 3110.79 337.30 o
-8 0 2 36439.20 37353.00 704.79 o
-6 0 2 2655.80 3056.29 222.41 o
-4 0 2 45122.00 44470.80 515.52 o
-2 0 2 417.35 424.93 79.54 o
0 0 2 1377.04 1453.76 125.20 o
2 0 2 188229.00 188097.00 2145.29 o
4 0 2 8378.16 8785.17 408.73 o
6 0 2 640.02 97.95 290.16 <
8 0 2 104138.00 101450.00 1671.02 o
10 0 2 21556.00 21933.80 865.34 o
12 0 2 10668.00 10689.60 723.93 o
14 0 2 19349.20 19348.90 2301.42 o
-19 1 2 10706.50 8068.60 1150.34 o
-17 1 2 29849.20 28045.70 1628.30 o
-15 1 2 15910.20 15570.10 779.17 o
-13 1 2 8371.50 7369.71 561.18 o
-11 1 2 41251.30 39047.60 966.97 o
-9 1 2 16009.30 18481.30 743.08 o
-7 1 2 23303.70 23642.40 489.01 o
-5 1 2 19539.80 19043.30 423.46 o
-3 1 2 26971.00 23432.50 359.39 o
-1 1 2 133464.00 124786.00 1241.66 o
1 1 2 8485.88 6394.64 301.95 o
3 1 2 13814.00 12426.20 479.43 o
5 1 2 202371.00 207789.00 3272.07 o
7 1 2 24306.30 23940.70 687.85 o
9 1 2 7778.24 7279.12 606.10 o
11 1 2 56409.90 57046.60 1863.23 o
13 1 2 11317.20 8762.34 1021.46 o
15 1 2 13613.40 12849.70 1276.28 o
-18 2 2 7078.40 7045.67 865.34 o
-16 2 2 17655.20 15598.10 1064.18 o
-14 2 2 37146.20 34094.90 1451.55 o
-12 2 2 14677.40 14178.20 739.40 o
-10 2 2 15921.50 16460.50 807.16 o
-8 2 2 51717.40 50774.90 893.32 o
-6 2 2 28896.30 28799.80 576.64 o
-4 2 2 102767.00 109923.00 1317.52 o
-2 2 2 5305.75 5171.39 250.40 o
0 2 2 39825.90 36509.80 610.52 o
2 2 2 185227.00 185694.00 2028.93 o
4 2 2 19045.00 17199.90 756.34 o
6 2 2 37025.00 34930.10 1700.47 o
8 2 2 110846.00 113085.00 3610.84 o
12 2 2 10390.30 9342.67 760.02 o
14 2 2 27143.70 28850.60 1383.06 o
-17 3 2 26348.50 23630.60 1089.22 o
-15 3 2 7348.30 7597.27 650.29 o
-13 3 2 34955.30 32876.80 1125.30 o
-11 3 2 46929.80 46439.40 1186.43 o
-9 3 2 24496.90 26066.10 765.18 o
-7 3 2 18083.10 16824.30 540.56 o
-5 3 2 36602.20 36883.10 719.52 o
-3 3 2 83122.00 83969.10 1104.68 o
-1 3 2 70772.50 69487.50 1034.72 o
1 3 2 13414.10 12558.80 475.75 o
3 3 2 79208.00 78358.80 1294.69 o
5 3 2 112762.00 121304.00 2321.31 o
7 3 2 16405.80 13991.20 2141.61 o
-16 4 2 42275.90 40803.30 1422.09 o
-14 4 2 34915.10 32549.80 1274.07 o
-12 4 2 14065.20 14548.70 964.76 o
-10 4 2 40163.10 41637.70 1105.42 o
-8 4 2 46548.20 46030.70 1109.84 o
-6 4 2 68348.00 75541.20 1279.22 o
-4 4 2 17502.40 15527.40 653.97 o
-2 4 2 22508.30 23290.40 707.73 o
0 4 2 117189.00 121656.00 1727.72 o
2 4 2 60510.30 59008.50 1151.82 o
4 4 2 14349.60 13543.40 701.84 o
6 4 2 61763.80 65906.80 1787.38 o
8 4 2 54629.80 53908.50 1687.22 o
-15 5 2 4139.90 3597.58 729.83 o
-13 5 2 39562.60 43724.80 1806.52 o
-11 5 2 34735.70 33614.80 1450.82 o
-9 5 2 31920.70 33270.80 1156.97 o
-7 5 2 11044.20 13065.50 799.79 o
-5 5 2 35109.90 33851.20 1204.10 o
-3 5 2 90283.80 100431.00 2291.85 o
-1 5 2 22162.80 23051.80 1203.37 o
1 5 2 15109.80 15698.30 935.30 o
3 5 2 86732.50 89661.90 1938.35 o
5 5 2 56004.60 55150.20 1436.82 o
7 5 2 5791.19 5442.40 600.95 o
9 5 2 25817.30 27658.30 1507.52 o
11 5 2 31572.60 31160.20 1396.32 o
-14 6 2 22331.10 23397.90 1698.27 o
-12 6 2 12602.70 11955.60 1339.61 o
-10 6 2 18144.20 18400.30 1709.31 o
-8 6 2 32522.50 31768.50 1761.60 o
-6 6 2 47814.00 46312.70 2143.82 o
-4 6 2 1210.59 1891.22 786.53 <
-2 6 2 18550.30 22710.80 2505.42 o
0 6 2 79096.80 80604.30 2610.73 o
2 6 2 32743.10 31448.80 1825.67 o
4 6 2 7044.35 6452.82 1003.05 o
6 6 2 41272.10 46216.20 2136.46 o
8 6 2 38292.80 39595.50 2216.73 o
10 6 2 2992.79 3194.74 835.14 o
-11 7 2 23500.60 17897.30 2208.63 o
-9 7 2 23710.80 22003.10 2062.81 o
-7 7 2 3458.70 2917.84 1163.60 <
-5 7 2 22461.00 21223.20 2684.38 o
-3 7 2 45693.60 40145.60 3660.18 o
-1 7 2 7938.69 6407.16 1836.72 o
1 7 2 10391.50 8872.81 1983.27 o
3 7 2 45994.70 40551.40 2788.22 o
5 7 2 27787.80 26142.70 2239.56 o
7 7 2 3611.73 4309.00 1485.43 <
-6 8 2 21131.90 19026.30 2825.04 o
-4 8 2 1194.27 -164.97 1372.02 <
-2 8 2 11732.80 9031.15 2193.16 o
0 8 2 31868.00 31889.20 3484.17 o
2 8 2 16159.70 14343.20 2530.46 o
-11 -7 3 7178.35 9651.98 2519.41 o
-9 -7 3 10222.00 7587.70 2135.72 o
-7 -7 3 11501.30 11463.70 2232.93 o
1 -7 3 4525.60 3881.85 1718.89 <
3 -7 3 4230.00 3867.13 1366.12 <
5 -7 3 10045.10 11309.70 1914.78 o
-14 -6 3 4024.72 4240.51 2316.89 <
-12 -6 3 7856.66 4883.43 2203.47 <
-10 -6 3 6801.34 7983.17 2263.13 o
-8 -6 3 13728.80 15860.30 2506.16 o
-6 -6 3 27648.80 26843.10 2866.28 o
-4 -6 3 27625.00 27033.10 2632.83 o
-2 -6 3 13997.50 14137.00 1467.76 o
0 -6 3 22559.00 20057.40 1861.02 o
2 -6 3 25152.50 25750.90 2979.70 o
4 -6 3 1478.74 -265.12 1437.56 <
6 -6 3 1683.56 2281.54 1768.97 <
8 -6 3 5300.00 4524.78 1527.41 <
-15 -5 3 6438.68 3941.51 2091.53 <
-13 -5 3 2343.67 1101.00 1693.11 <
-11 -5 3 11852.70 11912.90 1818.31 o
-9 -5 3 39822.50 33829.10 2567.28 o
-7 -5 3 25273.80 29925.90 2174.75 o
-5 -5 3 20173.00 22775.60 1981.80 o
-3 -5 3 66026.00 63050.90 2293.32 o
-1 -5 3 39415.70 40803.30 2859.66 o
1 -5 3 13509.80 15942.80 2136.46 o
3 -5 3 24629.30 22009.70 2624.73 o
5 -5 3 18445.30 15889.80 2570.23 o
7 -5 3 3763.27 3122.57 1768.23 <
9 -5 3 6266.98 5532.99 2044.40 <
11 -5 3 1604.39 644.40 1518.57 <
-16 -4 3 11392.90 9325.00 1729.20 o
-14 -4 3 6808.09 7313.00 1520.78 o
-12 -4 3 42565.30 31245.60 2637.25 o
-10 -4 3 12509.20 12161.80 1693.11 o
-8 -4 3 23818.50 23534.20 1958.23 o
-6 -4 3 120872.00 117316.00 3752.24 o
-4 -4 3 39015.00 40949.90 1202.63 o
-2 -4 3 21651.20 21297.50 1067.12 o
0 -4 3 108198.00 110498.00 3248.50 o
2 -4 3 42006.40 45523.20 3168.97 o
4 -4 3 15088.10 14922.80 2202.74 o
6 -4 3 25911.20 28452.90 2983.38 o
8 -4 3 6653.29 8601.06 2033.35 o
10 -4 3 17714.80 22646.00 2964.97 o
12 -4 3 10161.00 14039.80 2673.33 o
-17 -3 3 2249.24 1925.09 1142.24 <
-15 -3 3 34183.40 35566.40 2637.98 o
-13 -3 3 20489.60 20050.70 1989.90 o
-11 -3 3 12216.40 12753.20 1070.07 o
-9 -3 3 184682.00 176248.00 3162.34 o
-7 -3 3 26993.40 26362.20 1090.69 o
-5 -3 3 19959.40 21486.10 742.35 o
-3 -3 3 323245.00 316687.00 4404.74 o
-1 -3 3 30019.20 31800.10 852.82 o
1 -3 3 22988.50 19642.00 954.45 o
3 -3 3 140104.00 137928.00 2797.79 o
5 -3 3 25321.50 27198.00 1662.92 o
7 -3 3 32635.60 29894.20 1860.29 o
9 -3 3 21408.10 19147.80 2565.07 o
11 -3 3 3935.49 6371.81 1925.83 o
13 -3 3 31014.90 29760.20 3314.05 o
-18 -2 3 18797.40 14718.10 2374.33 o
-16 -2 3 35239.40 35349.80 1768.23 o
-14 -2 3 3762.10 5227.36 809.36 o
-12 -2 3 170822.00 163841.00 3482.70 o
-10 -2 3 15135.50 15760.90 841.03 o
-8 -2 3 17655.90 18177.90 779.17 o
-6 -2 3 483793.00 466758.00 5764.23 o
-4 -2 3 12993.50 13550.80 426.41 o
-2 -2 3 10220.40 8974.44 348.34 o
0 -2 3 555622.00 531461.00 6374.75 o
2 -2 3 45021.60 46471.10 1159.18 o
4 -2 3 47901.40 45484.90 1240.19 o
6 -2 3 109249.00 112086.00 2481.12 o
8 -2 3 10836.10 11035.00 1177.59 o
10 -2 3 54327.30 52106.40 2260.92 o
12 -2 3 8995.69 7930.15 1397.06 o
14 -2 3 2027.83 560.44 1475.12 <
-19 -1 3 47231.50 49549.40 2504.68 o
-17 -1 3 3543.18 4351.71 884.48 o
-15 -1 3 70165.30 71051.70 1840.40 o
-13 -1 3 45172.50 44033.40 1061.97 o
-11 -1 3 9052.57 8573.07 571.49 o
-9 -1 3 426026.00 430235.00 5052.82 o
-7 -1 3 2831.36 3608.63 293.11 o
-5 -1 3 2446.60 1808.73 196.63 o
-3 -1 3 770313.00 701702.00 7631.89 o
-1 -1 3 17309.30 16824.30 373.38 o
1 -1 3 23170.30 22416.20 517.73 o
3 -1 3 306660.00 312144.00 4032.09 o
5 -1 3 22736.10 23541.50 859.44 o
7 -1 3 71150.40 70970.70 1516.36 o
9 -1 3 38600.90 39465.90 1221.78 o
11 -1 3 5340.48 5207.47 785.80 o
13 -1 3 59977.80 60390.80 2889.11 o
-20 0 3 1827.52 2064.28 1297.63 <
-18 0 3 16625.90 16310.30 2122.46 o
-16 0 3 56884.00 57435.40 1407.37 o
-14 0 3 6243.84 7869.76 544.98 o
-12 0 3 208173.00 200616.00 2713.84 o
-10 0 3 28497.90 28824.10 707.00 o
-8 0 3 5649.68 6209.79 328.46 o
-6 0 3 613254.00 572931.00 4988.75 o
-4 0 3 3059.21 3188.85 173.80 o
-2 0 3 8340.24 8933.94 254.81 o
0 0 3 554405.00 537072.00 4641.14 o
2 0 3 39131.30 40644.20 593.58 o
4 0 3 47852.80 51110.00 808.63 o
6 0 3 112516.00 113838.00 1794.00 o
8 0 3 5713.97 4857.66 473.54 o
10 0 3 74192.40 76964.00 1592.95 o
12 0 3 4478.48 5008.63 1027.35 o
14 0 3 2183.12 3047.45 1227.67 <
-19 1 3 46470.20 48233.40 2171.07 o
-17 1 3 3337.86 3769.91 639.98 o
-15 1 3 69927.80 71448.70 1428.72 o
-13 1 3 42304.20 43111.30 973.59 o
-11 1 3 8614.42 9551.82 562.65 o
-9 1 3 416896.00 423310.00 5707.53 o
-7 1 3 4960.44 3683.01 205.47 o
-5 1 3 1890.27 1989.90 165.70 o
-3 1 3 760299.00 706231.00 5845.98 o
-1 1 3 17822.40 17005.50 354.97 o
1 1 3 23994.70 22486.20 513.31 o
3 1 3 305905.00 309920.00 3847.24 o
5 1 3 22954.10 23733.70 620.09 o
7 1 3 68867.00 70587.00 1486.90 o
9 1 3 38455.90 40598.60 1341.82 o
11 1 3 4799.97 5719.31 647.34 o
13 1 3 59644.70 56886.70 2323.52 o
-18 2 3 16752.30 16095.20 1210.73 o
-16 2 3 34688.50 31502.60 1417.68 o
-14 2 3 4385.88 4531.41 636.30 o
-12 2 3 163703.00 166220.00 3164.55 o
-10 2 3 16259.50 14874.90 585.48 o
-8 2 3 18215.30 17944.50 536.14 o
-6 2 3 475835.00 469772.00 4456.29 o
-4 2 3 14462.10 13644.30 386.64 o
-2 2 3 9871.67 8624.63 324.78 o
0 2 3 527329.00 534407.00 5323.83 o
2 2 3 47146.60 45851.70 790.22 o
4 2 3 41908.90 45245.60 1218.10 o
6 2 3 106044.00 107668.00 2390.53 o
8 2 3 10863.50 10093.90 528.04 o
10 2 3 53831.80 52144.00 1717.41 o
12 2 3 8628.06 8336.67 844.71 o
14 2 3 1541.26 1638.61 660.60 <
-17 3 3 2184.73 1483.96 537.61 <
-15 3 3 32928.10 32971.10 1302.79 o
-13 3 3 18882.60 18014.40 978.01 o
-11 3 3 13181.60 12944.70 679.01 o
-9 3 3 178199.00 179200.00 2072.38 o
-7 3 3 28501.30 27630.30 610.52 o
-5 3 3 22034.80 21893.30 591.37 o
-3 3 3 313340.00 316702.00 3003.26 o
-1 3 3 31650.80 32425.40 700.37 o
1 3 3 22143.10 21606.10 611.26 o
3 3 3 135030.00 139651.00 2363.28 o
5 3 3 25560.70 27459.50 1025.88 o
7 3 3 30082.30 33397.50 1549.50 o
9 3 3 21612.00 18569.00 1075.96 o
13 3 3 32117.50 34078.70 1933.19 o
-16 4 3 10529.30 8114.26 834.40 o
-14 4 3 6984.04 6197.27 739.40 o
-12 4 3 39626.30 38626.30 1062.70 o
-10 4 3 11668.60 12209.00 653.24 o
-8 4 3 23479.20 24487.10 913.94 o
-6 4 3 119380.00 120755.00 1676.17 o
-4 4 3 39082.30 41894.00 916.89 o
-2 4 3 22853.20 22092.90 724.67 o
0 4 3 107773.00 108547.00 1671.02 o
2 4 3 40223.40 43429.50 1229.14 o
4 4 3 15481.90 15405.90 733.51 o
6 4 3 28025.10 26364.40 1186.43 o
8 4 3 6546.86 6119.94 655.45 o
10 4 3 18658.40 15651.10 846.19 o
-15 5 3 5709.40 4528.46 815.99 o
-13 5 3 2440.56 2793.37 637.77 o
-11 5 3 11747.50 11495.30 729.83 o
-9 5 3 34895.90 36268.20 1229.14 o
-7 5 3 26534.30 25465.90 1092.90 o
-5 5 3 23879.10 22928.80 1337.40 o
-3 5 3 62830.60 63384.50 1590.01 o
-1 5 3 39344.00 43582.70 1863.23 o
1 5 3 13157.20 14080.30 908.05 o
3 5 3 24604.50 24761.80 1089.95 o
5 5 3 18107.50 18629.40 942.66 o
7 5 3 4076.78 4129.30 629.67 o
9 5 3 5718.92 4977.70 821.15 o
11 5 3 1171.87 956.66 547.92 <
-14 6 3 4768.50 3698.48 982.43 o
-12 6 3 6558.69 7349.09 1515.62 o
-10 6 3 7829.18 5588.22 1179.06 o
-8 6 3 14488.40 12678.80 1240.19 o
-6 6 3 25959.30 27435.90 1697.53 o
-4 6 3 29803.80 27167.10 2783.80 o
-2 6 3 16805.70 14402.90 2140.88 o
0 6 3 20353.10 22326.40 1585.59 o
2 6 3 24669.40 22002.30 1607.68 o
4 6 3 2302.16 1995.79 762.23 <
6 6 3 1242.16 2175.49 972.86 <
8 6 3 5234.26 5427.67 1082.59 o
-11 7 3 7310.82 7688.59 1430.93 o
-9 7 3 10084.80 11074.10 1639.35 o
-7 7 3 11508.40 10208.70 2055.45 o
-5 7 3 14941.10 11624.90 2154.87 o
-3 7 3 18434.00 17614.50 2568.02 o
-1 7 3 20124.00 18090.30 2586.43 o
1 7 3 4974.36 4655.87 1782.22 <
3 7 3 3946.01 3857.55 1235.04 o
5 7 3 9203.16 9954.66 1524.46 o
-6 8 3 18237.80 17639.60 2838.30 o
-4 8 3 10318.10 11734.70 2379.49 o
-2 8 3 6632.52 6260.60 2127.62 <
0 8 3 14869.20 14826.30 2619.57 o
2 8 3 8700.33 6941.83 2050.29 o
-11 -7 4 15649.80 16931.10 3071.02 o
-9 -7 4 48519.60 49285.80 4506.37 o
1 -7 4 14679.20 15638.60 1935.40 o
3 -7 4 18739.00 22074.50 2411.15 o
5 -7 4 21533.40 26385.70 2719.73 o
-14 -6 4 27611.70 31568.90 4454.82 o
-12 -6 4 53099.60 46500.50 4924.68 o
-10 -6 4 8435.43 7307.11 2028.93 o
-8 -6 4 14612.10 15515.60 2385.38 o
-6 -6 4 72032.50 62782.80 3796.43 o
-4 -6 4 26950.10 25808.30 4328.88 o
-2 -6 4 3274.51 1551.71 1361.71 <
0 -6 4 41547.80 42659.20 3708.79 o
2 -6 4 32879.20 31518.80 3238.93 o
4 -6 4 34112.10 37818.40 3903.21 o
6 -6 4 9599.29 10322.90 2431.04 o
8 -6 4 21293.00 20019.80 3132.88 o
-17 -5 4 28005.50 30149.70 4065.97 o
-15 -5 4 36987.70 41497.80 4888.59 o
-13 -5 4 4286.83 3026.09 1343.29 <
-11 -5 4 29437.40 32528.50 2627.67 o
-9 -5 4 78885.60 77694.50 3367.07 o
-7 -5 4 13640.10 17340.60 1623.88 o
-5 -5 4 5781.54 6715.73 1386.75 o
-3 -5 4 74110.50 72909.10 2581.28 o
-1 -5 4 38679.70 38349.40 3028.30 o
1 -5 4 24159.60 23663.80 2667.44 o
3 -5 4 20870.80 22710.80 2908.26 o
5 -5 4 35947.70 33203.10 3668.28 o
7 -5 4 57044.80 60757.60 4946.03 o
9 -5 4 4392.61 6848.30 2309.52 <
-18 -4 4 14435.00 14647.40 2797.06 o
-16 -4 4 3824.91 4681.65 1434.61 o
-14 -4 4 39943.10 43431.70 3166.02 o
-12 -4 4 68811.90 66784.70 3354.55 o
-10 -4 4 5948.14 4954.13 1184.22 o
-8 -4 4 25589.90 30328.70 2081.22 o
-6 -4 4 77013.10 76637.70 1866.18 o
-4 -4 4 20789.20 24493.80 1255.66 o
-2 -4 4 10280.10 13455.00 969.17 o
0 -4 4 44780.40 41915.30 3220.52 o
2 -4 4 44257.20 49034.70 3565.92 o
4 -4 4 53311.60 52626.30 3863.44 o
6 -4 4 12967.30 12958.70 2336.77 o
8 -4 4 28235.50 27956.60 3360.44 o
10 -4 4 55069.30 58920.10 4954.13 o
-19 -3 4 5997.37 3786.85 1754.97 <
-17 -3 4 42057.10 44001.70 2990.01 o
-15 -3 4 28850.70 35997.90 2693.22 o
-13 -3 4 6542.98 6146.45 1300.58 o
-11 -3 4 64282.10 68763.60 2419.99 o
-9 -3 4 67715.60 65518.00 1799.90 o
-7 -3 4 14501.10 14489.80 673.86 o
-5 -3 4 30040.50 33930.00 907.31 o
-3 -3 4 82113.40 78552.50 1330.04 o
-1 -3 4 35703.80 36154.10 1092.16 o
1 -3 4 26173.60 27890.30 1159.18 o
3 -3 4 19052.70 13924.20 1459.65 o
5 -3 4 43443.80 43995.10 2611.47 o
7 -3 4 42470.40 46109.50 3883.33 o
9 -3 4 9370.21 8037.67 2092.27 o
11 -3 4 21141.00 22202.70 3046.72 o
-20 -2 4 24618.00 29572.40 3324.36 o
-18 -2 4 6286.26 5103.63 1247.55 o
-16 -2 4 9390.86 8687.22 1029.56 o
-14 -2 4 85406.30 85126.90 2378.75 o
-12 -2 4 35082.40 39401.10 1391.16 o
-10 -2 4 10689.30 12393.80 807.89 o
-8 -2 4 109329.00 111580.00 2017.15 o
-6 -2 4 49084.50 49882.30 1014.10 o
-4 -2 4 14488.50 16578.30 500.05 o
-2 -2 4 24370.20 26064.60 579.59 o
0 -2 4 27244.80 23491.40 650.29 o
2 -2 4 44065.20 41862.30 1354.34 o
4 -2 4 19294.40 18538.80 997.16 o
6 -2 4 20056.00 17319.20 1291.74 o
8 -2 4 41556.70 41396.90 2132.77 o
10 -2 4 22677.30 21979.50 2045.87 o
12 -2 4 9880.11 9235.15 2045.87 o
-19 -1 4 6452.81 6144.25 1178.33 o
-17 -1 4 51560.20 52698.50 1841.87 o
-15 -1 4 4273.96 5270.07 673.12 o
-13 -1 4 15300.20 14955.20 770.33 o
-11 -1 4 97253.50 96722.30 1687.96 o
-9 -1 4 12008.40 10118.90 510.36 o
-7 -1 4 3181.77 2998.11 272.49 o
-5 -1 4 78628.90 83449.90 1109.10 o
-3 -1 4 13956.60 12997.00 382.22 o
-1 -1 4 27127.20 28454.40 593.58 o
1 -1 4 4820.35 5861.45 370.44 o
3 -1 4 36868.70 35488.30 849.13 o
5 -1 4 47477.30 48517.70 1182.75 o
7 -1 4 14440.20 13890.30 820.41 o
9 -1 4 19256.80 18673.60 1256.39 o
11 -1 4 26771.60 27665.70 2141.61 o
13 -1 4 10992.40 10053.30 1453.76 o
-20 0 4 21208.60 15993.60 2308.79 o
-18 0 4 1437.00 417.57 716.57 <
-16 0 4 12610.00 13215.70 734.25 o
-14 0 4 71297.40 66891.50 1357.29 o
-12 0 4 2200.00 2028.93 333.61 o
-10 0 4 15689.50 15870.60 528.78 o
-8 0 4 80611.10 79633.60 1201.89 o
-6 0 4 9737.15 10548.20 312.26 o
-4 0 4 95.93 137.72 136.24 <
-2 0 4 16963.80 17762.60 385.90 o
0 0 4 21221.00 22383.80 481.64 o
2 0 4 50095.80 51956.20 743.82 o
4 0 4 6530.50 6572.86 396.21 o
6 0 4 25132.60 25750.20 821.15 o
8 0 4 39377.50 41167.80 1168.75 o
10 0 4 14492.00 14782.90 1057.55 o
12 0 4 17664.70 23471.60 2541.51 o
-19 1 4 7262.74 5769.39 993.48 o
-17 1 4 50488.30 53874.60 1486.17 o
-15 1 4 4943.62 4255.97 466.18 o
-13 1 4 15296.30 14293.90 654.71 o
-11 1 4 99420.30 100927.00 1565.70 o
-9 1 4 9562.93 10202.10 383.69 o
-7 1 4 2836.14 2895.01 215.04 o
-5 1 4 81550.90 82988.90 925.72 o
-3 1 4 14385.90 13273.90 365.28 o
-1 1 4 27829.60 28791.70 522.88 o
1 1 4 6432.84 6186.22 266.60 o
3 1 4 32003.70 35459.60 654.71 o
5 1 4 48349.30 46546.90 1010.42 o
7 1 4 14332.10 14203.30 585.48 o
9 1 4 18600.70 18588.90 815.99 o
11 1 4 26508.80 26904.90 1716.68 o
13 1 4 10825.40 8282.91 1156.23 o
-20 2 4 24972.40 26730.40 1705.63 o
-18 2 4 6546.96 6038.93 863.12 o
-16 2 4 10595.30 7793.91 605.37 o
-14 2 4 85102.10 80485.70 1502.37 o
-12 2 4 36619.30 35787.30 829.25 o
-10 2 4 13348.30 11890.80 466.18 o
-8 2 4 111385.00 110440.00 1333.72 o
-6 2 4 47854.20 47306.90 732.77 o
-4 2 4 15918.50 15317.50 410.94 o
-2 2 4 27437.90 24722.10 585.48 o
0 2 4 24618.00 24994.60 530.98 o
2 2 4 43957.40 45658.70 1017.04 o
4 2 4 17447.50 19592.70 713.62 o
6 2 4 16951.70 17548.30 631.88 o
8 2 4 41707.70 42648.90 1217.36 o
10 2 4 22002.20 20856.40 1196.74 o
12 2 4 8300.13 7820.42 944.87 o
-19 3 4 7137.67 5891.64 839.56 o
-17 3 4 43915.40 40651.60 1668.07 o
-15 3 4 28007.00 25359.80 858.71 o
-13 3 4 7341.32 7115.63 463.23 o
-11 3 4 66921.60 66539.50 1218.10 o
-9 3 4 65363.30 67210.40 1087.01 o
-7 3 4 14743.10 15238.00 522.88 o
-5 3 4 34494.40 31981.30 672.38 o
-3 3 4 78986.10 79362.60 1142.24 o
-1 3 4 37358.40 36580.50 832.19 o
1 3 4 29137.60 28370.50 812.31 o
3 3 4 13327.10 14455.10 595.06 o
5 3 4 46222.20 45143.20 1275.54 o
7 3 4 44213.00 43646.00 1170.96 o
9 3 4 7774.12 7380.02 551.60 o
11 3 4 20666.10 19184.70 1009.68 o
-18 4 4 13452.20 16062.80 1208.52 o
-16 4 4 4660.48 4211.79 743.82 o
-14 4 4 42800.40 40398.20 1390.43 o
-12 4 4 65930.60 70456.70 1386.01 o
-10 4 4 6362.50 6929.31 564.86 o
-8 4 4 30472.40 27747.40 1005.26 o
-6 4 4 74129.50 79993.80 1332.98 o
-4 4 4 25237.30 24370.80 877.12 o
-2 4 4 14382.70 12893.10 601.68 o
0 4 4 41320.80 41323.20 1249.03 o
2 4 4 45372.20 45308.90 1234.30 o
4 4 4 55053.90 55161.20 1296.90 o
6 4 4 10710.50 11502.00 715.10 o
8 4 4 30401.80 26928.50 1226.93 o
10 4 4 56915.10 56613.50 1800.63 o
-17 5 4 28612.40 27558.90 1699.00 o
-15 5 4 35853.60 36925.90 1831.56 o
-13 5 4 5137.43 4658.08 777.70 o
-11 5 4 32550.20 30322.80 1253.45 o
-9 5 4 79801.70 79881.80 1876.49 o
-7 5 4 15313.90 15357.30 1137.82 o
-5 5 4 6570.44 5899.74 832.93 o
-3 5 4 73226.70 72235.90 2114.36 o
-1 5 4 39379.90 38560.10 1774.86 o
1 5 4 25140.90 26122.10 1184.22 o
3 5 4 21075.10 22984.00 1100.26 o
5 5 4 37486.40 37090.10 1395.58 o
7 5 4 57460.70 60093.30 2277.12 o
9 5 4 3990.05 3320.68 767.39 o
-14 6 4 28210.70 25842.90 2745.50 o
-12 6 4 51131.40 54565.40 2768.33 o
-10 6 4 7594.93 7649.56 959.60 o
-8 6 4 15332.20 14563.40 1211.47 o
-6 6 4 73238.60 75572.80 4071.12 o
-4 6 4 27950.90 29834.50 2973.81 o
-2 6 4 3259.83 3072.49 1388.22 <
0 6 4 43426.50 47247.30 2185.80 o
2 6 4 32477.10 31039.40 1841.14 o
4 6 4 34519.10 37098.20 2382.43 o
6 6 4 10561.80 12529.30 2145.29 o
8 6 4 21033.70 21173.10 1715.20 o
-11 7 4 16059.80 13630.30 1701.21 o
-9 7 4 47320.70 43369.80 3646.93 o
-7 7 4 11688.50 10252.20 2134.25 o
-5 7 4 942.94 1171.70 1457.44 <
-3 7 4 42441.00 34616.30 3475.33 o
-1 7 4 24364.50 21009.60 2839.77 o
1 7 4 14294.90 14950.80 2406.74 o
3 7 4 21172.20 19318.70 2037.04 o
5 7 4 23240.00 21732.80 2512.05 o
-8 8 4 7052.98 4918.78 1816.10 <
-6 8 4 31818.80 21980.20 3065.86 o
-4 8 4 14979.50 13789.40 2627.67 o
-2 8 4 1815.52 1760.86 1652.61 <
0 8 4 21761.30 19648.60 2922.25 o
-13 -7 5 7341.54 9211.58 2623.99 o
-11 -7 5 18772.90 17074.00 2942.87 o
-9 -7 5 33297.40 41206.90 3978.33 o
-1 -7 5 23002.70 21615.00 2764.65 o
1 -7 5 4066.01 1038.40 1539.93 <
3 -7 5 23921.80 21737.20 3283.85 o
-14 -6 5 26534.10 31665.40 4314.15 o
-12 -6 5 27640.10 29193.10 2706.47 o
-10 -6 5 2111.39 2998.85 1656.29 <
-8 -6 5 23419.70 21381.50 2676.28 o
-6 -6 5 64742.80 63699.70 3627.78 o
-4 -6 5 12820.80 11175.70 3358.24 o
-2 -6 5 8842.39 9957.61 1897.84 o
0 -6 5 58765.20 54182.50 4012.21 o
2 -6 5 34966.50 37072.40 3763.29 o
4 -6 5 4042.22 4788.43 2077.54 <
6 -6 5 15716.10 13832.10 2822.10 o
-17 -5 5 25642.20 26575.70 4010.73 o
-15 -5 5 14325.20 10662.40 1981.80 o
-13 -5 5 15383.50 15315.30 2066.49 o
-11 -5 5 31477.10 38136.60 2808.84 o
-9 -5 5 56663.50 57939.90 2799.27 o
-7 -5 5 9015.49 10628.50 1341.08 o
-5 -5 5 17886.70 22277.80 1334.46 o
-3 -5 5 77358.70 76218.70 4385.59 o
-1 -5 5 44856.10 49536.90 3450.29 o
1 -5 5 6698.16 7592.12 1790.32 o
3 -5 5 41755.00 41547.10 3916.47 o
5 -5 5 42884.20 36829.40 3937.09 o
7 -5 5 4282.14 9935.52 2369.18 o
-18 -4 5 4657.94 3219.78 1799.90 <
-16 -4 5 24204.20 25253.00 2546.66 o
-14 -4 5 28925.20 26585.30 2532.67 o
-12 -4 5 30296.70 28329.20 2417.05 o
-10 -4 5 8941.09 11637.50 1479.54 o
-8 -4 5 32475.00 33016.00 2136.46 o
-6 -4 5 74735.70 79646.10 1863.97 o
-4 -4 5 60905.10 58693.30 1590.01 o
-2 -4 5 7205.37 6927.83 1746.87 o
0 -4 5 61118.10 64380.90 4309.00 o
2 -4 5 84777.20 96648.70 4470.28 o
4 -4 5 9734.17 8238.72 1891.95 o
6 -4 5 19399.30 18951.90 2813.26 o
8 -4 5 37455.90 37510.60 4118.26 o
10 -4 5 7462.76 8360.24 2396.43 o
-19 -3 5 23263.60 26375.40 3395.79 o
-17 -3 5 34349.90 37403.80 2803.68 o
-15 -3 5 15336.50 14993.50 1808.00 o
-13 -3 5 11607.40 13768.80 1671.75 o
-11 -3 5 27801.00 26806.20 1673.96 o
-9 -3 5 43766.50 42447.80 1485.43 o
-7 -3 5 40351.20 44656.40 1149.61 o
-5 -3 5 12216.60 14805.00 700.37 o
-3 -3 5 85103.40 85494.30 1666.60 o
-1 -3 5 110162.00 113273.00 2208.63 o
1 -3 5 14845.60 18851.00 1710.05 o
3 -3 5 37256.90 40736.30 2407.47 o
5 -3 5 78776.60 72052.60 4484.28 o
7 -3 5 11329.10 13276.80 2414.84 o
9 -3 5 11535.80 11235.40 2424.41 o
11 -3 5 15629.60 14683.40 2537.09 o
-20 -2 5 27755.60 28123.80 3308.89 o
-18 -2 5 8206.90 6075.02 1271.86 o
-16 -2 5 12437.90 15514.20 1405.16 o
-14 -2 5 35664.20 38502.60 1756.45 o
-12 -2 5 19596.20 15425.10 944.14 o
-10 -2 5 15985.00 19622.80 904.37 o
-8 -2 5 25611.40 26634.60 817.47 o
-6 -2 5 53243.50 50786.70 956.66 o
-4 -2 5 88866.10 95155.20 1315.31 o
-2 -2 5 8977.88 10016.50 489.01 o
0 -2 5 44552.00 46728.80 1011.15 o
2 -2 5 122394.00 119597.00 2544.45 o
4 -2 5 14133.30 18474.70 1321.20 o
6 -2 5 16918.50 19763.50 1564.23 o
8 -2 5 43582.00 41476.40 2711.63 o
10 -2 5 10930.70 8654.08 2005.37 o
-21 -1 5 7513.93 10160.90 2077.54 o
-19 -1 5 7547.96 8635.67 1341.82 o
-17 -1 5 38673.20 36446.40 1522.99 o
-15 -1 5 9698.18 9906.79 841.77 o
-13 -1 5 4833.69 6631.78 610.52 o
-11 -1 5 22998.70 25589.60 807.89 o
-9 -1 5 11403.40 11351.00 494.16 o
-7 -1 5 93392.50 100127.00 1415.47 o
-5 -1 5 2630.63 3302.26 259.97 o
-3 -1 5 16221.60 15801.40 463.23 o
-1 -1 5 202071.00 197771.00 2408.94 o
1 -1 5 15616.00 18292.80 595.79 o
3 -1 5 9523.31 9834.62 617.15 o
5 -1 5 102430.00 102210.00 1915.52 o
7 -1 5 22879.10 23015.00 1342.56 o
9 -1 5 16746.20 17574.80 1260.81 o
11 -1 5 16308.80 18206.60 1835.98 o
-20 0 5 25756.70 29957.50 2132.04 o
-18 0 5 11956.20 13152.40 1079.64 o
-16 0 5 279.24 61.86 369.70 <
-14 0 5 26912.10 28678.30 1019.99 o
-12 0 5 5508.55 6421.15 453.66 o
-10 0 5 42639.40 42709.20 810.10 o
-8 0 5 21090.30 21851.40 466.18 o
-6 0 5 1913.98 2282.27 212.84 o
-4 0 5 268932.00 269494.00 2990.74 o
-2 0 5 29511.80 32161.70 525.83 o
0 0 5 4342.25 4853.24 306.36 o
2 0 5 189873.00 194012.00 2080.49 o
4 0 5 27801.50 28597.30 785.06 o
6 0 5 10402.40 11159.50 664.28 o
8 0 5 57405.70 57807.30 1657.76 o
10 0 5 14461.70 18041.70 1634.93 o
12 0 5 21951.00 23153.40 2657.87 o
-21 1 5 6747.06 4991.69 1524.46 o
-19 1 5 8269.99 5971.92 1392.64 o
-17 1 5 40154.00 39700.10 1147.40 o
-15 1 5 9136.65 8686.49 611.26 o
-13 1 5 7438.49 6186.22 442.61 o
-11 1 5 24970.70 25100.60 685.64 o
-9 1 5 11615.90 11121.20 418.31 o
-7 1 5 98856.90 98161.40 1155.50 o
-5 1 5 4055.23 3009.89 226.09 o
-3 1 5 15983.90 16073.90 414.62 o
-1 1 5 199733.00 203478.00 2118.05 o
1 1 5 19615.30 17309.60 490.48 o
3 1 5 9676.88 9459.03 437.45 o
5 1 5 101918.00 102749.00 1559.81 o
7 1 5 24293.80 23606.30 827.04 o
9 1 5 16437.70 18163.20 1076.70 o
11 1 5 15632.90 18345.80 1572.33 o
-20 2 5 28234.20 26299.60 1732.14 o
-18 2 5 7609.21 5838.62 891.11 o
-16 2 5 15018.40 13445.50 648.82 o
-14 2 5 37803.40 37786.80 1017.04 o
-12 2 5 19019.20 18513.70 671.65 o
-10 2 5 22420.60 18689.00 559.71 o
-8 2 5 27840.10 26411.50 597.27 o
-6 2 5 54542.40 51150.50 804.95 o
-4 2 5 98323.80 92526.00 1248.29 o
-2 2 5 10855.10 9743.30 366.76 o
0 2 5 47616.10 47783.40 846.92 o
2 2 5 122825.00 119613.00 1654.81 o
4 2 5 20916.30 16147.50 547.19 o
6 2 5 16446.10 15221.80 549.40 o
8 2 5 41593.80 39733.20 1370.54 o
10 2 5 12517.60 12488.80 1106.16 o
-19 3 5 23912.10 24134.40 1529.62 o
-17 3 5 33327.40 33497.70 1287.32 o
-15 3 5 13854.30 14184.10 681.96 o
-13 3 5 14548.50 12345.90 625.99 o
-11 3 5 28250.90 28140.70 885.96 o
-9 3 5 44195.60 44984.20 917.62 o
-7 3 5 46055.10 44035.60 830.72 o
-5 3 5 13783.80 14027.30 488.27 o
-3 3 5 83228.30 87627.90 1255.66 o
-1 3 5 110323.00 111089.00 1601.05 o
1 3 5 20164.60 18980.70 710.68 o
3 3 5 37545.00 37708.00 980.22 o
5 3 5 77630.10 79831.00 1306.47 o
7 3 5 12709.30 11708.20 914.68 o
9 3 5 10428.40 12048.40 964.76 o
11 3 5 15238.70 17271.30 1203.37 o
-18 4 5 4071.82 4841.46 863.12 o
-16 4 5 23417.40 22837.50 1178.33 o
-14 4 5 30278.30 30009.80 1006.00 o
-12 4 5 29003.60 30406.00 1037.67 o
-10 4 5 10242.60 9153.40 649.55 o
-8 4 5 30752.90 31201.40 1117.20 o
-6 4 5 74095.40 75748.80 1406.63 o
-4 4 5 59855.80 61943.20 1346.98 o
-2 4 5 7696.42 9213.79 780.64 o
0 4 5 61558.40 62275.40 1481.75 o
2 4 5 84786.60 85863.30 1729.20 o
4 4 5 11446.10 9823.58 653.24 o
6 4 5 18200.80 19372.50 943.40 o
8 4 5 35581.40 35834.40 1550.97 o
10 4 5 8143.01 8122.36 882.27 o
-17 5 5 27096.80 29101.80 1833.04 o
-15 5 5 13255.00 11499.70 1237.98 o
-13 5 5 15661.60 16035.60 975.07 o
-11 5 5 32983.70 31559.30 1501.63 o
-9 5 5 55322.30 55611.20 1919.20 o
-7 5 5 10092.00 12453.50 1081.12 o
-5 5 5 17941.80 18917.30 1841.87 o
-3 5 5 74231.70 76136.90 2285.96 o
-1 5 5 43335.00 48519.90 1946.45 o
1 5 5 7168.72 7254.82 856.50 o
3 5 5 40935.90 46289.20 1612.10 o
5 5 5 42979.40 42144.40 2014.21 o
7 5 5 4774.51 4711.10 882.27 o
-14 6 5 28587.00 28572.20 2093.74 o
-12 6 5 25241.00 26256.10 1780.75 o
-10 6 5 2399.11 3529.83 793.16 o
-8 6 5 22963.90 21788.80 2147.50 o
-6 6 5 59230.60 53469.60 3301.53 o
-4 6 5 14049.90 13539.70 1819.78 o
-2 6 5 9090.89 11406.20 2000.21 o
0 6 5 55026.40 60898.90 2509.10 o
2 6 5 34930.90 35883.00 2357.39 o
4 6 5 3723.67 2989.27 1075.96 <
6 6 5 14089.10 15595.90 2321.31 o
-13 7 5 6980.38 6476.39 1354.34 o
-11 7 5 19583.50 16412.60 2465.65 o
-9 7 5 32777.80 25423.90 2934.77 o
-7 7 5 3186.67 4328.15 1701.95 <
-5 7 5 10993.10 5496.16 1835.98 <
-3 7 5 39652.90 36090.70 3548.98 o
-1 7 5 22885.30 19169.20 2699.84 o
1 7 5 3100.84 2300.69 1468.49 <
3 7 5 22977.80 21466.90 2019.36 o
-6 8 5 24789.80 18543.90 2900.90 o
-4 8 5 13398.50 8651.14 2341.19 o
-2 8 5 5414.81 3660.92 1886.80 <
-13 -7 6 6366.58 12001.30 2884.69 o
-11 -7 6 7855.17 8186.44 2195.37 o
-1 -7 6 15780.60 12408.50 2454.60 o
1 -7 6 507.17 -963.28 1679.12 <
-16 -6 6 2118.71 -648.08 1627.57 <
-14 -6 6 8380.40 3158.66 1945.71 <
-12 -6 6 14419.90 17966.60 2176.96 o
-10 -6 6 18596.20 20100.80 2106.26 o
-8 -6 6 13189.70 12949.80 2111.42 o
-4 -6 6 26965.90 28657.70 2756.55 o
-2 -6 6 6240.43 5657.45 1681.33 o
0 -6 6 2701.17 4440.09 1792.53 <
2 -6 6 12097.70 8753.51 2328.67 o
4 -6 6 916.72 3336.14 2062.07 <
-17 -5 6 3052.97 1793.27 1911.84 <
-15 -5 6 19285.30 18960.00 2335.30 o
-13 -5 6 10828.00 11490.20 1847.77 o
-11 -5 6 11471.40 12069.80 1682.06 o
-9 -5 6 48220.10 44710.20 2568.02 o
-7 -5 6 40526.90 41050.00 2283.01 o
-5 -5 6 13598.60 15131.20 1497.95 o
-3 -5 6 32735.90 34953.60 3571.81 o
-1 -5 6 26751.50 24458.40 3342.77 o
1 -5 6 5020.28 4985.80 1772.65 <
3 -5 6 5601.45 6699.53 2098.16 o
5 -5 6 6072.19 6337.20 2229.25 <
7 -5 6 5242.01 4525.52 2196.11 <
-18 -4 6 21380.60 20730.50 3336.88 o
-16 -4 6 7161.93 7572.97 1659.97 o
-14 -4 6 5801.24 9109.21 1580.43 o
-12 -4 6 94973.70 87211.00 3705.11 o
-10 -4 6 31612.20 35137.00 2396.43 o
-8 -4 6 11433.70 13279.00 1086.27 o
-6 -4 6 116878.00 111795.00 2836.09 o
-4 -4 6 42388.00 48513.20 1694.58 o
-2 -4 6 9730.94 8846.30 1946.45 o
0 -4 6 51446.20 46603.60 4370.12 o
2 -4 6 23338.10 22417.70 2720.47 o
4 -4 6 15330.80 9942.14 2121.73 o
6 -4 6 11882.50 6958.77 2339.72 <
8 -4 6 2341.69 2917.10 2042.19 <
-19 -3 6 13486.00 13660.50 1925.83 o
-17 -3 6 3710.45 4081.43 1320.46 o
-15 -3 6 87928.90 83376.30 3664.60 o
-13 -3 6 8901.26 8159.19 1413.26 o
-11 -3 6 10100.30 9080.49 1335.93 o
-9 -3 6 218573.00 211015.00 3459.87 o
-7 -3 6 45053.90 45960.00 1369.07 o
-5 -3 6 11456.00 10642.50 766.65 o
-3 -3 6 164219.00 160795.00 2714.57 o
-1 -3 6 36304.80 40609.60 1575.28 o
1 -3 6 26577.60 28721.80 3182.22 o
3 -3 6 37035.10 40058.00 3763.29 o
5 -3 6 8733.96 7054.50 1824.20 o
7 -3 6 30141.30 28719.50 3410.52 o
9 -3 6 11335.60 9273.44 2363.28 o
-20 -2 6 1505.35 1157.71 1117.20 <
-18 -2 6 52567.80 52317.80 3070.28 o
-16 -2 6 16953.20 14017.70 1734.35 o
-14 -2 6 6971.09 7207.69 872.70 o
-12 -2 6 223442.00 224103.00 4960.76 o
-10 -2 6 11565.00 11214.70 609.05 o
-8 -2 6 7587.71 7272.49 485.32 o
-6 -2 6 340080.00 329148.00 3949.61 o
-4 -2 6 28411.00 27503.70 733.51 o
-2 -2 6 24193.70 23376.60 677.54 o
0 -2 6 124138.00 127933.00 2520.89 o
2 -2 6 25273.20 26628.00 1545.08 o
4 -2 6 45667.20 53856.20 2059.13 o
6 -2 6 14142.90 11063.00 1546.56 o
8 -2 6 1685.59 2819.15 1615.05 <
10 -2 6 40913.40 34089.80 3446.61 o
-21 -1 6 24722.30 30372.90 3362.65 o
-19 -1 6 28306.30 29215.20 1880.17 o
-17 -1 6 2450.32 2411.15 658.39 o
-15 -1 6 176779.00 178189.00 3330.99 o
-13 -1 6 9841.53 9892.80 670.17 o
-11 -1 6 1298.61 1040.61 293.11 o
-9 -1 6 443919.00 430733.00 5150.77 o
-7 -1 6 26725.30 27324.70 629.67 o
-5 -1 6 7846.36 7313.00 339.51 o
-3 -1 6 356016.00 362846.00 3772.86 o
-1 -1 6 22919.10 24698.50 779.91 o
1 -1 6 57968.00 60791.40 1205.58 o
3 -1 6 79342.60 84148.10 1547.29 o
5 -1 6 10032.30 10132.20 942.66 o
7 -1 6 64369.90 63547.20 2187.27 o
9 -1 6 2376.16 2866.28 1177.59 <
11 -1 6 1556.44 1182.75 1067.12 <
-20 0 6 1172.76 550.87 780.64 <
-18 0 6 92222.20 93443.60 2259.44 o
-16 0 6 16328.40 17300.10 1011.89 o
-14 0 6 1118.88 1064.91 377.80 <
-12 0 6 363768.00 369731.00 4199.27 o
-10 0 6 3771.78 4149.92 334.35 o
-8 0 6 946.07 752.66 185.59 o
-6 0 6 569487.00 550318.00 5216.31 o
-4 0 6 18492.70 17655.80 486.06 o
-2 0 6 30205.50 32507.90 652.50 o
0 0 6 255037.00 259594.00 2881.75 o
2 0 6 27687.00 28310.80 768.86 o
4 0 6 79997.70 85685.80 1520.78 o
6 0 6 23733.00 26468.20 1176.86 o
8 0 6 4417.87 3689.64 874.91 o
10 0 6 61362.50 58196.20 3821.47 o
-21 1 6 24809.60 31751.50 2978.22 o
-19 1 6 28584.30 26763.50 1867.65 o
-17 1 6 2493.60 2347.08 527.30 o
-15 1 6 172914.00 177603.00 2783.80 o
-13 1 6 9163.62 9818.42 475.75 o
-11 1 6 1541.85 1077.43 267.33 o
-9 1 6 441097.00 446720.00 4118.26 o
-7 1 6 28255.00 27891.80 527.30 o
-5 1 6 7923.55 7480.91 321.09 o
-3 1 6 359019.00 356945.00 3801.58 o
-1 1 6 23566.10 24005.50 660.60 o
1 1 6 57312.00 60709.70 1073.02 o
3 1 6 78147.20 80603.50 1444.93 o
5 1 6 10062.70 9486.28 552.34 o
7 1 6 64969.80 65638.80 1436.82 o
9 1 6 3094.27 1989.90 801.26 <
11 1 6 1458.76 1609.15 1123.09 <
-20 2 6 1371.77 212.84 898.47 <
-18 2 6 50919.50 52809.70 1806.52 o
-16 2 6 16195.70 16316.20 693.74 o
-14 2 6 7477.08 6767.29 496.37 o
-12 2 6 220440.00 225216.00 3216.10 o
-10 2 6 11461.60 11971.80 543.50 o
-8 2 6 7311.80 7130.36 355.71 o
-6 2 6 330166.00 328420.00 3098.27 o
-4 2 6 28389.30 28259.30 748.24 o
-2 2 6 23583.80 22436.80 600.95 o
0 2 6 131369.00 127277.00 1688.69 o
2 2 6 24537.20 24560.80 725.41 o
4 2 6 48969.90 48803.40 1032.51 o
6 2 6 17156.50 13749.60 679.75 o
8 2 6 1733.94 1740.24 681.96 <
10 2 6 42971.10 40494.70 1937.61 o
-19 3 6 13486.80 12435.80 1249.76 o
-17 3 6 3870.78 3734.56 704.05 o
-15 3 6 82661.30 83056.70 1632.72 o
-13 3 6 8419.03 8595.17 580.33 o
-11 3 6 10002.20 9769.81 617.15 o
-9 3 6 209054.00 217409.00 2514.26 o
-7 3 6 48125.80 46867.30 888.16 o
-5 3 6 11289.80 11019.60 514.78 o
-3 3 6 162933.00 164601.00 2029.67 o
-1 3 6 36664.50 37340.50 1073.75 o
1 3 6 25676.40 25518.20 916.15 o
3 3 6 37693.40 36018.50 929.41 o
5 3 6 8240.04 8956.03 504.47 o
7 3 6 31970.40 31891.50 1531.09 o
9 3 6 11436.90 11307.50 1082.59 o
-18 4 6 18122.20 17596.10 1454.50 o
-16 4 6 7747.22 8727.73 985.38 o
-14 4 6 7183.84 5969.71 640.72 o
-12 4 6 90236.00 90743.10 1911.84 o
-10 4 6 33842.50 33442.40 1444.93 o
-8 4 6 11454.60 13136.90 993.48 o
-6 4 6 110340.00 111295.00 2072.38 o
-4 4 6 45326.10 46778.20 1692.37 o
-2 4 6 9972.30 10536.50 726.88 o
0 4 6 48697.00 50312.40 1393.37 o
2 4 6 22621.70 22369.80 970.65 o
4 4 6 14295.00 12394.50 715.10 o
6 4 6 11123.90 10746.40 1061.23 o
8 4 6 2038.30 2821.36 754.87 o
-17 5 6 3378.96 4978.44 1385.27 o
-15 5 6 17094.30 14364.60 1729.20 o
-13 5 6 11176.70 12116.20 1014.84 o
-11 5 6 12781.60 12470.40 1042.08 o
-9 5 6 47249.40 45160.90 1887.53 o
-7 5 6 38787.20 40830.50 2618.83 o
-5 5 6 14429.20 14302.70 1692.37 o
-3 5 6 32372.00 31658.70 1626.09 o
-1 5 6 27346.20 29923.60 1626.09 o
1 5 6 4809.75 5858.50 863.12 o
3 5 6 5689.78 7110.47 888.16 o
5 5 6 5554.32 5270.81 967.70 o
7 5 6 5524.91 5852.61 1008.94 o
-16 6 6 2192.69 685.64 1279.22 <
-14 6 6 8475.43 8455.24 1220.31 o
-12 6 6 13943.50 13093.40 1390.43 o
-10 6 6 18358.40 15705.60 1914.05 o
-8 6 6 13352.70 12955.70 1792.53 o
-6 6 6 14593.30 12762.80 1791.80 o
-4 6 6 26447.30 25136.70 2404.53 o
-2 6 6 6597.12 8148.14 1840.40 o
0 6 6 3095.25 2360.34 868.28 <
2 6 6 10505.70 11843.70 1517.83 o
4 6 6 1164.52 785.80 1421.36 <
-13 7 6 7315.86 5803.27 1478.07 o
-11 7 6 8372.06 6368.13 1565.70 o
-9 7 6 14923.30 15028.10 2081.22 o
-7 7 6 19335.00 19458.60 2766.86 o
-5 7 6 7852.28 4816.42 1825.67 <
-3 7 6 8228.16 7048.61 2034.09 o
-1 7 6 14661.40 11732.50 2274.91 o
1 7 6 634.54 -982.43 1119.41 <
-13 -7 7 7661.04 5006.42 2093.01 <
-3 -7 7 24891.90 27472.00 5479.96 o
-1 -7 7 20339.50 18038.70 2936.98 o
-16 -6 7 4213.83 3210.94 2209.37 <
-14 -6 7 11994.10 5569.07 2076.07 <
-12 -6 7 54338.60 53271.50 3280.91 o
-10 -6 7 11975.90 14335.80 1737.30 o
-8 -6 7 514.49 1620.94 1380.12 <
-4 -6 7 25241.30 27843.90 3350.13 o
-2 -6 7 28148.40 33575.00 3311.84 o
0 -6 7 13615.10 16957.60 2736.67 o
2 -6 7 20502.60 20606.00 3386.22 o
4 -6 7 50471.30 40807.00 5083.01 o
-17 -5 7 24975.00 28277.70 4259.66 o
-15 -5 7 50228.00 52243.40 3752.24 o
-13 -5 7 7686.66 5830.52 1492.79 o
-11 -5 7 8393.83 7812.32 1408.84 o
-9 -5 7 60784.00 57885.40 2730.04 o
-7 -5 7 24251.60 24069.60 1481.01 o
-5 -5 7 10522.40 12494.70 1475.86 o
-3 -5 7 35305.90 35858.00 3897.32 o
-1 -5 7 33709.90 35051.60 4194.85 o
1 -5 7 50388.10 48796.00 4322.99 o
3 -5 7 5678.88 8092.17 2302.90 o
5 -5 7 19506.00 22321.20 3386.22 o
-20 -4 7 27703.60 28008.90 4071.86 o
-18 -4 7 29617.00 25494.60 3789.06 o
-16 -4 7 4767.90 4247.87 1400.00 o
-14 -4 7 32196.70 33555.80 2782.33 o
-12 -4 7 68752.20 68891.70 3213.89 o
-10 -4 7 13822.00 13757.70 1559.08 o
-8 -4 7 10373.00 10292.70 1022.94 o
-6 -4 7 52275.60 52965.10 1839.67 o
-4 -4 7 43777.90 42581.10 2321.31 o
-2 -4 7 24909.00 24072.50 3181.49 o
0 -4 7 16555.20 15806.50 2705.74 o
2 -4 7 34708.50 30129.90 3277.96 o
4 -4 7 51365.80 42777.70 4063.02 o
6 -4 7 4508.36 2732.25 1908.89 <
-21 -3 7 10621.70 14576.70 2823.57 o
-19 -3 7 4306.60 3968.02 1356.55 <
-17 -3 7 39725.10 42169.40 3131.41 o
-15 -3 7 41543.00 40352.60 2966.44 o
-13 -3 7 5582.22 5273.76 1190.11 o
-11 -3 7 27854.20 27356.40 2095.95 o
-9 -3 7 44453.30 40743.60 1772.65 o
-7 -3 7 16683.10 16193.90 827.78 o
-5 -3 7 12809.50 12819.50 881.54 o
-3 -3 7 27119.40 25223.60 1337.40 o
-1 -3 7 39907.40 38985.70 3768.44 o
1 -3 7 36323.80 36402.20 3744.14 o
3 -3 7 12786.80 8989.17 2070.18 o
5 -3 7 30577.60 28441.90 3157.92 o
7 -3 7 37218.70 39131.50 4056.40 o
-20 -2 7 33336.00 31700.00 2635.04 o
-18 -2 7 12408.60 13546.40 1796.95 o
-16 -2 7 6080.58 3037.88 1108.36 <
-14 -2 7 45647.10 48932.30 2808.10 o
-12 -2 7 33231.00 31350.20 1718.15 o
-10 -2 7 3103.12 1414.73 382.22 o
-8 -2 7 14251.00 18462.20 735.72 o
-6 -2 7 23931.90 17388.40 735.72 o
-4 -2 7 25380.40 25191.20 807.16 o
-2 -2 7 10307.70 11771.50 570.75 o
0 -2 7 25359.10 20036.00 1178.33 o
2 -2 7 38543.40 39655.90 1907.42 o
4 -2 7 33519.10 36257.20 3157.92 o
6 -2 7 14745.00 12549.90 2196.11 o
8 -2 7 17371.20 13977.20 2519.41 o
-21 -1 7 2431.16 3915.00 1291.01 o
-19 -1 7 8905.84 11806.80 1308.68 o
-17 -1 7 53543.90 58698.40 1807.26 o
-15 -1 7 9166.81 9510.58 890.37 o
-13 -1 7 4534.16 4037.25 614.20 o
-11 -1 7 61348.10 65055.50 1341.82 o
-9 -1 7 8634.09 5838.62 419.04 o
-7 -1 7 7518.79 8106.16 454.39 o
-5 -1 7 7318.98 7549.40 419.04 o
-3 -1 7 14215.10 13561.80 582.54 o
-1 -1 7 33644.40 35542.10 872.70 o
1 -1 7 10935.60 11113.10 659.86 o
3 -1 7 28055.50 28604.70 1231.35 o
5 -1 7 36025.70 35783.60 1668.07 o
7 -1 7 12811.90 11899.60 1612.84 o
9 -1 7 10620.90 8968.55 1477.33 o
-22 0 7 5790.13 5465.23 1204.10 o
-20 0 7 41947.30 45999.00 2190.22 o
-18 0 7 407.23 380.01 550.87 <
-16 0 7 8534.47 7586.22 829.25 o
-14 0 7 82423.60 84849.20 1860.29 o
-12 0 7 2679.68 2869.97 346.87 o
-10 0 7 144.49 449.97 219.46 <
-8 0 7 48540.50 48175.20 920.57 o
-6 0 7 1455.48 1430.20 242.29 o
-4 0 7 33413.30 33951.30 718.78 o
-2 0 7 339.49 994.21 256.29 o
0 0 7 19254.60 20664.20 724.67 o
2 0 7 37485.40 38124.10 954.45 o
4 0 7 8145.57 9056.93 726.88 o
6 0 7 18565.40 18705.20 1401.47 o
8 0 7 22618.90 21324.10 1849.98 o
-21 1 7 2604.39 1617.26 915.41 <
-19 1 7 9043.18 8582.65 1198.95 o
-17 1 7 57544.90 58177.00 1803.58 o
-15 1 7 8407.49 9478.91 647.34 o
-13 1 7 4090.05 4350.24 379.27 o
-11 1 7 62229.80 63287.30 1024.41 o
-9 1 7 5261.78 6946.98 332.88 o
-7 1 7 7513.60 6836.51 340.98 o
-5 1 7 8496.19 7907.32 374.86 o
-3 1 7 13120.00 14019.90 547.92 o
-1 1 7 33818.40 35297.60 844.71 o
1 1 7 11332.00 11626.40 562.65 o
3 1 7 25183.90 27684.80 843.24 o
5 1 7 35765.80 36600.30 1217.36 o
7 1 7 12917.80 14173.80 1198.95 o
9 1 7 10130.70 7796.85 1668.81 o
-20 2 7 33785.10 30983.40 2834.62 o
-18 2 7 10725.50 12018.20 897.74 o
-16 2 7 6110.22 5827.57 578.85 o
-14 2 7 49239.20 48486.00 1129.72 o
-12 2 7 30952.50 34008.00 899.95 o
-10 2 7 1732.45 2317.62 342.45 o
-8 2 7 19692.40 17398.00 543.50 o
-6 2 7 15604.80 17117.40 575.17 o
-4 2 7 26886.20 26381.30 691.53 o
-2 2 7 12048.50 11015.90 499.32 o
0 2 7 19437.70 22918.50 786.53 o
2 2 7 39059.20 37131.30 967.70 o
4 2 7 34397.10 34938.20 1033.98 o
6 2 7 13455.30 11281.80 1042.82 o
8 2 7 17574.90 17034.90 1446.40 o
-21 3 7 11140.40 8820.52 1819.78 o
-19 3 7 4501.35 4862.81 936.03 o
-17 3 7 41449.60 41366.70 1329.30 o
-15 3 7 41734.50 43847.80 1272.59 o
-13 3 7 5594.81 4900.37 512.57 o
-11 3 7 28937.10 27939.60 1008.21 o
-9 3 7 40686.30 43619.50 1222.52 o
-7 3 7 17643.70 17916.50 735.72 o
-5 3 7 13780.90 11474.70 639.98 o
-3 3 7 24464.00 25465.10 1089.95 o
-1 3 7 41665.20 41381.40 1182.75 o
1 3 7 37337.10 37579.80 1014.84 o
3 3 7 9986.72 10791.30 659.86 o
5 3 7 29850.10 27567.00 1245.35 o
7 3 7 37478.00 38473.20 1848.50 o
-20 4 7 28613.00 30023.10 2935.51 o
-18 4 7 30432.30 30252.10 2827.99 o
-16 4 7 5030.80 3821.47 955.92 o
-14 4 7 33183.80 33375.40 1468.49 o
-12 4 7 67884.60 68515.40 1894.90 o
-10 4 7 13747.00 12687.60 1006.00 o
-8 4 7 10613.30 11373.80 972.12 o
-6 4 7 51821.10 49756.40 1785.17 o
-4 4 7 43737.50 41776.20 1476.59 o
-2 4 7 25669.50 26176.60 1223.25 o
0 4 7 16055.40 17280.90 1032.51 o
2 4 7 34670.10 33038.90 1183.48 o
4 4 7 50340.10 55080.20 2209.37 o
6 4 7 4257.56 3965.81 700.37 o
-17 5 7 27842.60 28511.90 2361.81 o
-15 5 7 48861.00 49581.80 2282.27 o
-13 5 7 8656.61 9541.51 990.53 o
-11 5 7 8385.28 8609.90 958.13 o
-9 5 7 60848.30 64338.20 3045.98 o
-7 5 7 24668.70 23268.30 2129.83 o
-5 5 7 10630.80 8957.50 1483.96 o
-3 5 7 33603.60 34833.60 1770.44 o
-1 5 7 35851.10 36621.00 1787.38 o
1 5 7 51554.40 48659.80 1967.81 o
3 5 7 6025.33 5994.01 1172.44 o
5 5 7 19457.60 23255.00 2503.21 o
-16 6 7 4999.57 4556.45 1449.34 o
-14 6 7 13037.20 13358.60 1427.25 o
-12 6 7 52806.70 54000.60 3271.33 o
-10 6 7 14630.50 12918.90 1863.23 o
-8 6 7 850.60 -25.04 1000.11 <
-6 6 7 44041.10 41927.90 3036.40 o
-4 6 7 27953.30 25965.90 2451.66 o
-2 6 7 30286.10 25215.50 2802.21 o
0 6 7 14648.50 14556.00 1690.90 o
2 6 7 22114.10 18365.00 1785.17 o
4 6 7 51113.30 44849.40 3984.96 o
-13 7 7 7953.18 3500.37 1409.58 <
-11 7 7 3068.69 728.35 1249.76 <
-9 7 7 44298.50 37755.80 3096.79 o
-7 7 7 16711.50 13606.70 2101.11 o
-5 7 7 4734.52 3082.06 1596.63 <
-3 7 7 26558.90 21623.10 2923.73 o
-1 7 7 20927.00 19028.50 2663.02 o
-3 -7 8 23493.60 18261.10 4851.77 o
-16 -6 8 3193.16 2632.83 2109.94 <
-14 -6 8 15499.40 18474.70 3166.02 o
-12 -6 8 31332.90 31811.90 2691.01 o
-10 -6 8 6095.96 8113.53 1446.40 o
-8 -6 8 8335.09 6194.32 1866.18 o
-4 -6 8 33971.20 33944.00 4057.13 o
-2 -6 8 2272.90 4189.69 1830.83 <
0 -6 8 18973.30 15354.40 2916.36 o
2 -6 8 28144.60 25220.60 3710.26 o
-17 -5 8 23634.70 18993.90 3661.66 o
-15 -5 8 23247.30 24476.80 2607.05 o
-13 -5 8 1639.60 1313.84 1056.08 <
-11 -5 8 15711.20 16695.40 1858.81 o
-9 -5 8 56278.20 55899.90 2625.46 o
-7 -5 8 29567.10 31455.50 2277.86 o
-5 -5 8 5268.54 7757.08 2207.89 o
-3 -5 8 43897.40 46482.10 4809.05 o
-1 -5 8 44519.70 46007.10 4946.03 o
1 -5 8 4474.26 3244.08 1818.31 <
3 -5 8 10761.70 11693.40 2776.44 o
-20 -4 8 25483.90 29614.30 4261.13 o
-18 -4 8 14180.10 16104.80 3315.52 o
-16 -4 8 7884.83 8879.44 1777.80 o
-14 -4 8 25206.90 25977.70 2428.09 o
-12 -4 8 46863.00 47910.10 2788.22 o
-10 -4 8 20199.50 19707.50 1794.00 o
-8 -4 8 12931.80 16790.40 1268.91 o
-6 -4 8 59614.40 60130.10 2039.24 o
-4 -4 8 59156.70 57702.00 4226.52 o
-2 -4 8 6909.09 12547.70 2523.83 o
0 -4 8 34383.00 32231.00 3923.83 o
2 -4 8 40569.80 41897.70 3873.75 o
4 -4 8 7440.89 11563.80 2610.73 o
6 -4 8 6883.30 2406.00 1894.90 <
-21 -3 8 5489.23 3367.07 1902.26 <
-19 -3 8 11165.30 13957.30 2052.50 o
-17 -3 8 27634.50 29489.90 2699.84 o
-15 -3 8 18915.10 19932.90 2075.33 o
-13 -3 8 16396.50 15426.50 1746.14 o
-11 -3 8 14381.70 17116.70 1277.75 o
-9 -3 8 54912.90 54183.20 1975.17 o
-7 -3 8 79980.40 82985.20 2433.25 o
-5 -3 8 9256.83 10605.00 998.63 o
-3 -3 8 36013.60 33345.20 2048.08 o
-1 -3 8 88531.30 89820.30 5216.31 o
1 -3 8 12515.60 14358.70 2543.72 o
3 -3 8 13853.20 11045.40 2122.46 o
5 -3 8 26961.70 22109.90 3027.57 o
7 -3 8 9378.78 11172.00 2537.09 o
-22 -2 8 7385.92 9195.38 2378.75 o
-20 -2 8 24500.70 26377.60 2503.21 o
-18 -2 8 8234.66 9009.06 1562.76 o
-16 -2 8 9517.34 10694.80 1592.22 o
-14 -2 8 13178.10 10830.30 1437.56 o
-12 -2 8 22251.70 22578.20 1617.99 o
-10 -2 8 74860.80 74546.90 1657.02 o
-8 -2 8 6770.25 8273.34 638.51 o
-6 -2 8 24504.60 23956.90 1011.89 o
-4 -2 8 157200.00 159505.00 2888.38 o
-2 -2 8 20305.70 18532.90 1392.64 o
0 -2 8 17395.40 17897.30 1736.56 o
2 -2 8 72957.10 75828.40 4605.79 o
4 -2 8 18680.90 16591.60 2411.15 o
6 -2 8 19133.60 14203.30 2599.69 o
-21 -1 8 4774.13 5945.40 1497.95 o
-19 -1 8 1471.61 2200.53 1074.49 <
-17 -1 8 28999.50 29817.60 2367.70 o
-15 -1 8 8300.45 7831.46 978.75 o
-13 -1 8 36592.10 36434.60 1250.50 o
-11 -1 8 5456.44 5426.20 500.05 o
-9 -1 8 8323.93 9811.79 590.64 o
-7 -1 8 132665.00 137819.00 2193.16 o
-5 -1 8 9859.68 11192.60 534.67 o
-3 -1 8 9962.96 8522.26 614.20 o
-1 -1 8 132898.00 137166.00 2957.60 o
1 -1 8 20935.10 22309.40 1247.55 o
3 -1 8 16654.70 14401.40 1299.84 o
5 -1 8 34031.70 31345.00 2301.42 o
7 -1 8 14121.10 14604.60 2464.92 o
-22 0 8 2311.57 1569.39 1381.59 <
-20 0 8 33418.90 31926.80 1984.75 o
-18 0 8 3711.92 3580.65 732.04 o
-16 0 8 5534.69 6044.09 746.03 o
-14 0 8 18383.30 20238.50 969.91 o
-12 0 8 1259.52 1248.29 352.76 o
-10 0 8 88092.50 88647.10 1545.82 o
-8 0 8 158.37 401.37 246.71 <
-6 0 8 1995.74 1988.43 284.27 o
-4 0 8 142937.00 147516.00 2061.34 o
-2 0 8 18847.20 20022.00 690.06 o
0 0 8 3507.34 3071.75 491.95 o
2 0 8 71344.90 72752.20 1955.29 o
4 0 8 15961.10 17147.60 1317.52 o
6 0 8 24262.90 27858.60 2156.34 o
8 0 8 8636.98 10021.70 1503.10 o
-21 1 8 5106.01 5544.03 1172.44 o
-19 1 8 2535.51 2595.27 718.04 o
-17 1 8 28208.20 30828.00 1483.96 o
-15 1 8 8086.67 7822.63 667.97 o
-13 1 8 36007.40 38122.60 929.41 o
-11 1 8 5699.94 5496.90 445.55 o
-9 1 8 9884.75 9199.06 416.10 o
-7 1 8 132419.00 132742.00 1557.60 o
-5 1 8 11435.50 9428.84 547.19 o
-3 1 8 9187.33 9684.39 564.13 o
-1 1 8 131541.00 136918.00 2012.00 o
1 1 8 22786.30 22163.60 828.51 o
3 1 8 15794.00 15832.30 1006.00 o
5 1 8 34047.00 31749.30 2095.95 o
7 1 8 14213.00 15859.60 2145.29 o
-22 2 8 7835.05 7324.05 1734.35 o
-20 2 8 25145.10 22643.80 1592.95 o
-18 2 8 7838.95 8430.20 788.74 o
-16 2 8 12016.60 10440.70 807.16 o
-14 2 8 12926.20 13080.20 883.01 o
-12 2 8 23022.30 23547.40 927.93 o
-10 2 8 74438.70 72600.50 1298.37 o
-8 2 8 9279.92 7723.21 469.86 o
-6 2 8 22394.30 21645.20 728.35 o
-4 2 8 153200.00 155991.00 2282.27 o
-2 2 8 21482.00 19296.60 731.30 o
0 2 8 15925.50 16400.90 723.93 o
2 2 8 72289.20 74021.80 1879.43 o
4 2 8 19394.60 18099.90 1212.94 o
6 2 8 16474.60 14478.70 1938.35 o
-21 3 8 5399.49 3119.62 1429.46 <
-19 3 8 12601.50 12354.00 1089.22 o
-17 3 8 28571.70 28475.80 1489.85 o
-15 3 8 18651.80 18516.00 1076.70 o
-13 3 8 19039.20 16655.70 1021.46 o
-11 3 8 16086.30 17817.10 1073.75 o
-9 3 8 55333.60 56265.90 1509.00 o
-7 3 8 83225.60 81007.10 2331.62 o
-5 3 8 12164.30 10744.10 874.17 o
-3 3 8 33542.00 36537.80 1453.03 o
-1 3 8 83496.90 83475.70 1722.57 o
1 3 8 15110.50 12245.80 883.75 o
3 3 8 12279.40 12843.00 1050.92 o
5 3 8 26313.90 24838.40 2402.32 o
7 3 8 9948.02 4504.90 1295.42 o
-20 4 8 25856.90 24166.80 2845.66 o
-18 4 8 13915.60 13041.90 1402.21 o
-16 4 8 9781.23 8003.79 876.38 o
-14 4 8 26075.80 26177.30 1379.38 o
-12 4 8 45340.90 50391.90 1740.98 o
-10 4 8 21315.50 19583.80 1740.98 o
-8 4 8 14775.70 14672.40 1565.70 o
-6 4 8 57440.50 55019.10 2827.99 o
-4 4 8 59555.10 59711.80 1884.59 o
-2 4 8 9142.25 7603.90 878.59 o
0 4 8 33185.20 35810.90 1638.61 o
2 4 8 39522.60 38317.00 2039.98 o
4 4 8 9514.23 6192.11 1500.90 o
6 4 8 5916.40 4973.28 1387.48 o
-17 5 8 22598.30 21444.80 1838.93 o
-15 5 8 22326.40 21791.00 1636.40 o
-13 5 8 2156.83 2528.25 871.96 <
-11 5 8 15490.70 13352.70 1691.64 o
-9 5 8 54790.30 60155.90 3315.52 o
-7 5 8 31194.60 36710.10 2623.99 o
-5 5 8 5537.62 7784.33 1444.93 o
-3 5 8 42027.80 49116.40 2433.98 o
-1 5 8 42511.10 40960.20 1693.85 o
1 5 8 5154.84 5595.59 1128.99 o
3 5 8 10432.90 10712.50 2028.20 o
-16 6 8 2624.46 4870.18 1369.81 o
-14 6 8 15642.20 16104.80 1961.92 o
-12 6 8 30557.00 29166.60 2531.93 o
-10 6 8 6058.74 6885.86 1562.02 o
-8 6 8 7474.15 7491.96 1539.93 o
-6 6 8 42959.00 39927.70 3029.78 o
-4 6 8 32841.40 33320.20 2744.03 o
-2 6 8 2041.25 4081.43 1505.31 <
0 6 8 19137.50 18084.40 1861.76 o
2 6 8 27320.80 26079.30 3295.64 o
-13 7 8 122.37 1135.61 1245.35 <
-11 7 8 11290.90 13466.80 2112.15 o
-9 7 8 29034.40 20576.60 2524.57 o
-7 7 8 15825.60 16321.30 2247.66 o
-5 7 8 3633.76 3783.91 1743.93 <
-3 7 8 23392.30 19453.50 2780.85 o
-5 -7 9 1488.21 2671.12 3230.83 <
-16 -6 9 10627.60 14694.50 3213.15 o
-14 -6 9 5611.85 4309.00 1916.26 <
-12 -6 9 18578.40 23232.20 2300.69 o
-10 -6 9 29368.60 29668.10 3415.68 o
-4 -6 9 19812.00 17298.60 3247.77 o
-2 -6 9 392.86 739.40 1688.69 <
0 -6 9 2684.87 -1054.60 1900.05 <
-19 -5 9 4687.97 5564.65 2540.03 <
-17 -5 9 4933.87 4480.59 2178.43 <
-15 -5 9 27871.50 27868.90 2661.55 o
-13 -5 9 22818.10 26587.50 2441.35 o
-11 -5 9 7271.10 10370.00 1509.73 o
-9 -5 9 29826.50 26670.00 2082.70 o
-7 -5 9 33117.40 32464.40 3609.37 o
-5 -5 9 5547.87 3426.73 1947.19 <
-3 -5 9 8967.19 8743.93 2637.25 o
-1 -5 9 12838.00 11884.90 3054.08 o
1 -5 9 4286.90 4553.50 2089.32 <
-20 -4 9 1619.94 -86.90 1578.22 <
-18 -4 9 35714.40 34747.40 4507.11 o
-16 -4 9 12097.80 9118.79 1756.45 o
-14 -4 9 9816.94 11859.10 1799.90 o
-12 -4 9 69332.30 72781.70 3220.52 o
-10 -4 9 31223.50 33860.70 1863.97 o
-8 -4 9 9425.74 9355.93 1045.03 o
-6 -4 9 40842.90 38623.40 2387.59 o
-4 -4 9 23189.70 21161.30 3175.59 o
-2 -4 9 10977.50 13655.40 2717.52 o
0 -4 9 14010.10 18177.20 3110.79 o
2 -4 9 4480.29 4592.53 1927.30 <
4 -4 9 13450.50 11481.30 2626.20 o
-21 -3 9 35898.40 31241.90 4132.99 o
-19 -3 9 6505.09 6239.25 1626.09 o
-17 -3 9 3398.82 4954.87 1320.46 o
-15 -3 9 110899.00 103838.00 4204.42 o
-13 -3 9 21789.20 22254.90 2010.52 o
-11 -3 9 4704.56 3780.22 803.47 o
-9 -3 9 128197.00 127024.00 3277.23 o
-7 -3 9 38735.30 41827.70 1844.08 o
-5 -3 9 14599.90 15621.00 1236.51 o
-3 -3 9 49785.80 47226.70 4451.14 o
-1 -3 9 13455.10 12604.40 2512.05 o
1 -3 9 27776.20 27311.40 3475.33 o
3 -3 9 10383.70 8620.21 2194.64 o
5 -3 9 1764.76 -35.35 1751.29 <
-22 -2 9 10583.60 12950.60 2750.66 o
-20 -2 9 427.54 523.62 1115.73 <
-18 -2 9 113092.00 108104.00 4458.50 o
-16 -2 9 6829.00 6333.51 1307.94 o
-14 -2 9 2258.08 1744.66 1194.53 <
-12 -2 9 222774.00 217110.00 5915.94 o
-10 -2 9 34783.80 35405.80 1643.77 o
-8 -2 9 12051.40 10718.40 1049.45 o
-6 -2 9 152406.00 146110.00 3152.76 o
-4 -2 9 29613.60 31518.80 1745.40 o
-2 -2 9 33799.60 32376.00 2406.74 o
0 -2 9 34662.90 32563.10 3595.37 o
2 -2 9 7670.15 6663.45 1925.83 o
4 -2 9 40959.90 38563.00 6009.47 o
6 -2 9 5598.79 5880.59 1996.53 <
-23 -1 9 437.10 -1638.61 1252.71 <
-21 -1 9 63775.70 66483.50 3438.51 o
-19 -1 9 6011.11 4879.02 1293.95 o
-17 -1 9 1034.89 1074.49 1204.10 <
-15 -1 9 214450.00 224794.00 8825.68 o
-13 -1 9 5147.64 5133.83 748.97 o
-11 -1 9 4680.70 3513.63 707.00 o
-9 -1 9 272413.00 274501.00 3904.69 o
-7 -1 9 26301.90 29768.30 952.24 o
-5 -1 9 20737.90 24309.60 1131.20 o
-3 -1 9 98603.60 99545.90 2177.70 o
-1 -1 9 14222.90 15257.10 1075.22 o
1 -1 9 58035.00 62257.00 2789.69 o
3 -1 9 7970.24 10185.90 2094.48 o
5 -1 9 2539.04 2176.23 1431.67 <
-22 0 9 18499.40 22939.10 3124.04 o
-20 0 9 358.42 -407.26 792.43 <
-18 0 9 133869.00 137980.00 3704.37 o
-16 0 9 965.51 597.27 490.48 <
-14 0 9 790.71 692.27 394.00 <
-12 0 9 271832.00 282140.00 4982.86 o
-10 0 9 7065.21 6553.71 528.78 o
-8 0 9 10551.00 10384.00 565.60 o
-6 0 9 211838.00 216385.00 2994.43 o
-4 0 9 16899.00 17992.30 894.79 o
-2 0 9 50089.30 53904.80 1506.79 o
0 0 9 32845.70 37355.20 1716.68 o
2 0 9 5963.28 5191.27 900.68 o
4 0 9 50257.00 49734.30 2178.43 o
6 0 9 46.34 103.10 897.00 <
-23 1 9 486.09 907.31 1266.70 <
-21 1 9 60941.80 59922.40 2847.14 o
-19 1 9 6364.88 6987.49 874.17 o
-17 1 9 1244.68 1074.49 541.29 <
-15 1 9 211276.00 219028.00 3721.31 o
-13 1 9 5868.49 5284.80 475.75 o
-11 1 9 3857.98 5006.42 501.53 o
-9 1 9 271500.00 276599.00 3219.05 o
-7 1 9 27916.30 27966.10 826.30 o
-5 1 9 22565.40 23405.30 919.83 o
-3 1 9 99364.00 102297.00 2009.05 o
-1 1 9 14322.00 13367.40 869.75 o
1 1 9 57905.90 60640.40 2079.01 o
3 1 9 8606.28 10703.60 1080.38 o
5 1 9 2330.50 2437.67 951.50 <
-22 2 9 10581.40 9438.41 1469.96 o
-20 2 9 617.33 18.41 713.62 <
-18 2 9 107546.00 111496.00 2481.12 o
-16 2 9 8809.26 8342.56 663.55 o
-14 2 9 2181.47 2203.47 431.56 o
-12 2 9 222423.00 227603.00 3336.88 o
-10 2 9 37822.00 37490.70 1401.47 o
-8 2 9 10559.90 10130.70 860.92 o
-6 2 9 152010.00 148120.00 2650.50 o
-4 2 9 30494.80 30907.50 1223.25 o
-2 2 9 33700.00 34575.80 1251.97 o
0 2 9 34738.30 34843.20 1527.41 o
2 2 9 7666.97 7701.11 924.25 o
4 2 9 42480.00 40790.80 2126.88 o
6 2 9 5344.32 4394.43 1395.58 o
-21 3 9 34859.60 34952.20 2494.37 o
-19 3 9 7132.60 7322.57 952.24 o
-17 3 9 3386.54 2261.65 668.70 o
-15 3 9 106630.00 106132.00 2455.34 o
-13 3 9 22783.30 23775.00 1274.07 o
-11 3 9 4173.71 3200.63 888.16 o
-9 3 9 128571.00 117513.00 3628.51 o
-7 3 9 38547.60 37635.80 2281.54 o
-5 3 9 17139.30 14851.40 1050.19 o
-3 3 9 52586.40 47502.80 1719.62 o
-1 3 9 13561.30 13019.10 999.37 o
1 3 9 28044.60 22838.90 1422.83 o
3 3 9 10853.80 7846.93 1148.87 o
5 3 9 1574.65 1088.48 1167.28 <
-20 4 9 1729.36 1505.31 1131.20 <
-18 4 9 33648.10 35002.20 2233.67 o
-16 4 9 12222.70 12699.40 1257.87 o
-14 4 9 9991.54 10952.60 1191.58 o
-12 4 9 69656.10 72836.10 2957.60 o
-10 4 9 31664.90 32387.80 2301.42 o
-8 4 9 10016.70 11197.80 1463.34 o
-6 4 9 40694.60 38259.60 2527.51 o
-4 4 9 21796.30 25952.70 1474.38 o
-2 4 9 11953.60 11854.70 1052.39 o
0 4 9 15214.80 13088.30 1141.51 o
2 4 9 4144.21 3798.64 1018.52 o
4 4 9 16533.20 16092.30 2255.03 o
-19 5 9 5317.50 4130.04 1368.33 o
-17 5 9 5325.62 4705.95 1626.09 <
-15 5 9 26287.70 23373.60 2131.30 o
-13 5 9 23491.10 25613.90 2234.40 o
-11 5 9 8096.02 9948.77 1571.60 o
-9 5 9 28463.20 29414.80 2413.36 o
-7 5 9 33185.10 32989.50 2574.65 o
-5 5 9 6024.79 4431.99 1257.87 o
-3 5 9 9127.97 8690.91 1431.67 o
-1 5 9 11979.90 11895.20 1453.03 o
1 5 9 4511.08 3034.20 1079.64 <
-16 6 9 10611.80 9195.38 1692.37 o
-14 6 9 6726.57 5838.62 1509.73 o
-12 6 9 18680.80 19671.50 2209.37 o
-10 6 9 28747.30 27829.20 2642.40 o
-8 6 9 4415.78 2914.15 1301.32 <
-6 6 9 5050.04 2098.16 1225.46 <
-4 6 9 18794.90 19652.30 2249.13 o
-2 6 9 594.31 556.02 1236.51 <
0 6 9 2024.19 1609.15 1542.87 <
-11 7 9 5769.13 4603.58 1583.38 <
-9 7 9 8773.51 7278.39 1803.58 o
-7 7 9 15855.20 13619.30 2148.24 o
-5 7 9 1355.81 679.01 1515.62 <
-16 -6 10 7040.57 3354.55 1918.47 <
-14 -6 10 1565.61 2157.81 1637.14 <
-12 -6 10 41082.70 37182.90 4289.12 o
-6 -6 10 21448.00 17912.10 3343.51 o
-4 -6 10 23703.70 24317.80 3933.41 o
-2 -6 10 37911.70 46411.40 4489.43 o
-19 -5 10 2844.38 1136.35 2190.95 <
-17 -5 10 10621.90 16626.20 3288.27 o
-15 -5 10 45871.60 46680.20 3376.65 o
-13 -5 10 11578.20 11019.60 1729.20 o
-11 -5 10 1742.27 3327.30 1116.47 <
-9 -5 10 32448.60 33525.60 3361.18 o
-7 -5 10 24745.30 26167.70 3442.93 o
-5 -5 10 27582.40 27248.10 3909.84 o
-3 -5 10 9742.35 11744.20 2978.96 o
-1 -5 10 20611.00 17734.60 3643.24 o
-20 -4 10 19074.90 19571.30 3836.20 o
-18 -4 10 32390.50 32286.90 4319.31 o
-16 -4 10 5426.87 5091.11 1556.13 o
-14 -4 10 7040.62 6217.15 1455.97 o
-12 -4 10 37488.40 36859.60 2612.94 o
-10 -4 10 14156.30 18449.70 1480.27 o
-8 -4 10 12569.20 11710.40 1601.79 o
-6 -4 10 15897.60 15567.90 2851.55 o
-4 -4 10 29048.60 32683.90 4105.74 o
-2 -4 10 43359.20 41837.30 4744.24 o
0 -4 10 6691.80 3925.31 1973.70 <
2 -4 10 14983.70 15652.60 2962.76 o
-21 -3 10 19069.80 14255.60 3126.99 o
-19 -3 10 2683.11 1371.28 1352.87 <
-17 -3 10 23844.50 25386.30 2491.43 o
-15 -3 10 31117.00 27544.20 2396.43 o
-13 -3 10 7428.25 6271.65 1266.70 o
-11 -3 10 6146.18 6510.26 993.48 o
-9 -3 10 24209.00 24246.30 1416.94 o
-7 -3 10 30088.50 32387.10 1422.83 o
-5 -3 10 21154.30 20031.60 3029.78 o
-3 -3 10 12162.20 11271.40 2526.04 o
-1 -3 10 26048.90 28600.20 3654.29 o
1 -3 10 39163.80 32962.30 4016.63 o
3 -3 10 7271.98 6024.94 2171.81 <
-22 -2 10 3833.54 4144.03 1989.90 <
-20 -2 10 32715.20 32704.50 2903.84 o
-18 -2 10 17024.10 13228.20 1844.82 o
-16 -2 10 3326.11 3898.06 1116.47 o
-14 -2 10 24453.40 23493.70 2753.61 o
-12 -2 10 17451.40 13383.60 1431.67 o
-10 -2 10 10120.60 10225.70 1075.22 o
-8 -2 10 6511.88 5081.54 739.40 o
-6 -2 10 13412.30 8796.96 874.17 o
-4 -2 10 40292.00 40705.40 2779.38 o
-2 -2 10 21106.70 17436.30 2808.84 o
0 -2 10 11398.40 8496.48 2081.22 o
2 -2 10 21731.00 24808.20 3350.13 o
4 -2 10 20883.70 13916.10 2570.23 o
-23 -1 10 26617.10 22995.10 3393.59 o
-21 -1 10 3265.61 5753.19 1547.29 o
-19 -1 10 5423.20 5182.44 1984.75 <
-17 -1 10 36452.20 36392.70 3691.11 o
-15 -1 10 4957.11 2574.65 1307.21 <
-13 -1 10 1749.73 1330.77 624.51 <
-11 -1 10 11411.40 10610.10 1090.69 o
-9 -1 10 8569.90 7326.26 813.78 o
-7 -1 10 19918.80 21556.80 1290.27 o
-5 -1 10 4562.91 3702.16 690.79 o
-3 -1 10 18214.00 16508.40 1723.31 o
-1 -1 10 26793.00 28516.30 3202.11 o
1 -1 10 14093.20 11739.80 2309.52 o
3 -1 10 14072.10 12110.30 2398.63 o
5 -1 10 15200.30 11764.10 2313.94 o
-22 0 10 6546.68 7620.10 2122.46 o
-20 0 10 36136.50 33015.30 3720.57 o
-18 0 10 589.66 750.45 1189.38 <
-16 0 10 966.52 1056.81 1154.76 <
-14 0 10 25321.30 25250.80 1935.40 o
-12 0 10 590.04 328.46 491.22 <
-10 0 10 1162.13 1388.95 539.82 <
-8 0 10 287.21 717.31 537.61 <
-6 0 10 19301.20 22213.00 1304.26 o
-4 0 10 27614.90 27608.20 1303.53 o
-2 0 10 7039.93 7290.91 942.66 o
0 0 10 23239.10 23449.50 1916.26 o
2 0 10 23139.40 22299.10 1978.86 o
4 0 10 9433.52 10557.10 2262.39 o
-23 1 10 26349.00 20524.30 3031.99 o
-21 1 10 3256.88 5398.22 1761.60 o
-19 1 10 4716.49 1438.30 1474.38 <
-17 1 10 35442.60 34027.90 2547.40 o
-15 1 10 4185.22 2478.91 796.11 o
-13 1 10 1599.94 2091.53 626.72 o
-11 1 10 10932.40 13082.40 1067.86 o
-9 1 10 6358.83 6903.53 838.82 o
-7 1 10 20066.30 20078.00 1140.03 o
-5 1 10 4234.75 4134.46 570.75 o
-3 1 10 16278.30 18211.80 1091.43 o
-1 1 10 27532.30 26961.60 1615.78 o
1 1 10 13944.50 13836.50 1248.29 o
3 1 10 13742.50 15184.20 1678.38 o
5 1 10 14900.70 13387.30 1664.39 o
-22 2 10 3514.12 2182.85 1193.06 <
-20 2 10 33665.30 33935.90 2103.32 o
-18 2 10 16938.00 15537.00 1221.78 o
-16 2 10 3651.23 3099.74 660.60 o
-14 2 10 24433.70 22329.30 1450.82 o
-12 2 10 16043.60 14886.70 1193.79 o
-10 2 10 10076.80 9495.85 1019.99 o
-8 2 10 5455.46 5713.42 841.03 o
-6 2 10 12084.60 12329.00 983.17 o
-4 2 10 39717.50 40850.40 1571.60 o
-2 2 10 20665.00 20135.40 1275.54 o
0 2 10 11729.20 10933.40 1102.47 o
2 2 10 21357.00 23342.70 1891.22 o
4 2 10 20175.70 19791.50 1779.28 o
-21 3 10 17427.10 17041.60 1608.42 o
-19 3 10 2185.53 1838.19 742.35 <
-17 3 10 26611.50 25115.30 1606.95 o
-15 3 10 28997.40 29995.10 2058.39 o
-13 3 10 8274.05 8118.68 1249.76 o
-11 3 10 6359.72 6006.53 1159.92 o
-9 3 10 21006.50 23266.80 1900.05 o
-7 3 10 30240.30 31966.60 2201.26 o
-5 3 10 21541.70 21847.70 1514.89 o
-3 3 10 10394.80 7371.18 858.71 o
-1 3 10 26520.80 25184.60 1517.83 o
1 3 10 40266.50 39831.20 2288.90 o
3 3 10 6478.70 6673.76 1697.53 o
-20 4 10 19370.80 19929.20 2399.37 o
-18 4 10 29992.90 29252.70 2780.85 o
-16 4 10 5885.85 6050.72 1256.39 o
-14 4 10 7888.06 6312.89 1273.33 o
-12 4 10 35475.60 37968.70 2536.35 o
-10 4 10 17104.30 13902.10 1685.01 o
-8 4 10 13786.10 14073.70 1671.02 o
-6 4 10 14112.80 17436.30 1792.53 o
-4 4 10 29968.10 31334.70 2314.68 o
-2 4 10 46688.30 44325.00 2180.64 o
0 4 10 4960.47 5324.57 1135.61 o
2 4 10 15113.20 13144.30 2199.79 o
-19 5 10 3326.31 5519.73 2456.81 <
-17 5 10 11021.70 7016.94 1452.29 o
-15 5 10 47075.00 47456.40 3718.36 o
-13 5 10 12154.30 8815.37 1567.18 o
-11 5 10 2343.75 1998.74 1171.70 <
-9 5 10 32001.40 29332.30 2517.94 o
-7 5 10 25489.60 21480.20 2196.85 o
-5 5 10 28215.00 27377.70 2410.42 o
-3 5 10 10614.20 7305.64 1460.39 o
-1 5 10 21236.40 20665.70 2036.30 o
1 5 10 49658.40 51344.20 3942.98 o
-16 6 10 6700.94 8773.39 1685.75 o
-14 6 10 1673.01 818.20 1214.41 <
-12 6 10 42401.20 41340.20 3163.81 o
-10 6 10 17066.70 14545.70 2145.29 o
-8 6 10 8992.96 7265.13 1620.94 o
-6 6 10 22380.00 23019.40 2456.08 o
-4 6 10 22062.10 23029.70 2406.74 o
-2 6 10 39449.70 39001.20 3450.29 o
-6 -6 11 20649.30 16814.00 3389.17 o
-17 -5 11 13347.70 14453.70 2870.70 o
-15 -5 11 25405.80 28041.30 2734.46 o
-13 -5 11 12501.60 13203.90 1825.67 o
-11 -5 11 5451.68 4572.65 1833.77 <
-9 -5 11 35401.90 30684.40 3772.12 o
-7 -5 11 36658.80 34495.60 4210.31 o
-5 -5 11 3265.62 10936.40 2842.72 o
-3 -5 11 12667.40 14791.70 3202.84 o
-20 -4 11 15291.40 17490.80 3559.29 o
-18 -4 11 15585.60 16564.30 3145.40 o
-16 -4 11 10840.90 9112.90 1704.16 o
-14 -4 11 7423.95 7187.80 1542.14 o
-12 -4 11 33948.20 35560.50 2621.04 o
-10 -4 11 41716.20 41206.90 2149.71 o
-8 -4 11 4213.62 6445.46 2146.03 o
-6 -4 11 20758.60 22959.00 3577.70 o
-4 -4 11 47954.90 37460.50 4636.72 o
-2 -4 11 6872.78 5535.93 2152.66 <
0 -4 11 7395.56 4867.97 2070.18 <
-21 -3 11 8442.20 4506.37 2152.66 <
-19 -3 11 5781.89 10574.80 2680.70 o
-17 -3 11 13625.30 15498.70 2057.66 o
-15 -3 11 20264.90 20259.90 2178.43 o
-13 -3 11 39730.00 34553.00 2553.29 o
-11 -3 11 4760.29 4093.95 896.27 o
-9 -3 11 28059.00 30570.30 1645.98 o
-7 -3 11 72599.70 68348.90 3451.77 o
-5 -3 11 10084.40 16710.90 2938.46 o
-3 -3 11 14913.80 17722.10 3229.36 o
-1 -3 11 34707.00 36086.30 4280.28 o
1 -3 11 9635.89 9649.77 2460.50 o
-22 -2 11 2604.32 2235.88 2005.37 <
-20 -2 11 20106.90 20264.30 2443.56 o
-18 -2 11 9329.52 13205.40 1858.08 o
-16 -2 11 25991.70 27697.30 3354.55 o
-14 -2 11 7429.04 10948.90 1378.64 o
-12 -2 11 17629.10 16612.20 1694.58 o
-10 -2 11 84198.40 83544.90 2362.55 o
-8 -2 11 5622.35 7015.47 877.12 o
-6 -2 11 15903.80 12373.20 1676.91 o
-4 -2 11 67702.40 67390.80 4767.07 o
-2 -2 11 14490.20 14411.70 2690.27 o
0 -2 11 13687.70 14290.90 2617.36 o
2 -2 11 16216.90 20349.70 3164.55 o
-23 -1 11 20294.40 17524.00 3157.92 o
-21 -1 11 2821.64 3476.07 1841.14 <
-19 -1 11 10705.20 9369.92 2366.23 o
-17 -1 11 8835.54 9112.16 2041.45 o
-15 -1 11 4750.20 3666.07 980.96 o
-13 -1 11 71097.70 68312.80 2970.86 o
-11 -1 11 1415.03 2297.74 657.65 o
-9 -1 11 6415.26 6845.35 865.34 o
-7 -1 11 115293.00 113730.00 2881.01 o
-5 -1 11 16076.00 15965.60 1752.03 o
-3 -1 11 14139.50 12589.70 2386.11 o
-1 -1 11 47522.90 45181.50 4286.17 o
1 -1 11 19590.10 18732.50 2902.37 o
3 -1 11 22891.70 22973.70 2995.16 o
-22 0 11 1528.06 288.69 1422.09 <
-20 0 11 13112.60 12619.20 2543.72 o
-18 0 11 2360.89 594.32 1330.04 <
-16 0 11 41073.90 44162.30 2387.59 o
-14 0 11 161.44 -750.45 570.02 <
-12 0 11 754.14 681.22 565.60 <
-10 0 11 115820.00 117705.00 2927.41 o
-8 0 11 13231.50 12595.60 1091.43 o
-6 0 11 8858.67 9302.17 970.65 o
-4 0 11 99152.40 101875.00 3896.58 o
-2 0 11 27148.60 25452.60 3191.80 o
0 0 11 19413.60 20633.30 2864.81 o
2 0 11 21080.50 14941.90 2582.01 o
-23 1 11 20237.60 15598.90 2039.24 o
-21 1 11 3644.19 3743.40 1309.42 <
-19 1 11 11454.90 10709.50 1708.58 o
-17 1 11 9233.51 8134.88 1500.90 o
-15 1 11 4133.16 3484.17 908.05 o
-13 1 11 72320.30 72557.00 2247.66 o
-11 1 11 2025.43 2019.36 674.59 <
-9 1 11 6845.59 4756.76 835.14 o
-7 1 11 116121.00 114130.00 2951.71 o
-5 1 11 18134.20 19619.20 1598.84 o
-3 1 11 12887.90 15788.90 2421.46 o
-1 1 11 46586.10 42233.50 3321.41 o
1 1 11 19723.90 19995.50 2738.88 o
3 1 11 21466.00 23728.60 3060.71 o
-22 2 11 4083.64 2582.01 1255.66 <
-20 2 11 20360.00 19851.10 2206.42 o
-18 2 11 10299.90 7606.11 1489.11 o
-16 2 11 26568.10 28224.60 1972.96 o
-14 2 11 9125.16 7455.87 996.42 o
-12 2 11 18335.80 18217.00 1399.26 o
-10 2 11 82469.70 77788.10 2517.20 o
-8 2 11 7956.04 5541.09 905.84 o
-6 2 11 13539.00 15525.20 1538.45 o
-4 2 11 67215.80 68843.80 2696.16 o
-2 2 11 16811.20 16539.30 1640.09 o
0 2 11 13878.80 11627.20 1458.92 o
2 2 11 15506.20 15313.80 1707.84 o
-21 3 11 9136.16 9873.65 1800.63 o
-19 3 11 6671.08 7522.15 1640.09 o
-17 3 11 13545.20 13936.70 1584.12 o
-15 3 11 19203.00 20533.10 1879.43 o
-13 3 11 38550.40 38005.50 2440.61 o
-11 3 11 5987.51 4657.34 1100.26 o
-9 3 11 27468.00 26700.90 2112.15 o
-7 3 11 70034.60 73162.40 2972.33 o
-5 3 11 12072.80 10568.10 1423.57 o
-3 3 11 13356.30 12253.90 1505.31 o
-1 3 11 33775.80 31914.30 2297.74 o
1 3 11 9967.67 5943.19 1203.37 o
-20 4 11 15839.20 19776.80 2526.04 o
-18 4 11 15121.50 17523.20 2375.07 o
-16 4 11 11434.50 11219.90 1558.34 o
-14 4 11 6838.88 6071.34 1321.20 o
-12 4 11 32725.20 32547.60 2459.02 o
-10 4 11 40849.60 37770.60 2687.32 o
-8 4 11 4792.89 3241.88 1156.97 <
-6 4 11 20131.60 22601.10 2099.63 o
-4 4 11 46049.70 51231.50 3005.47 o
-2 4 11 7010.91 6047.03 1522.99 o
0 4 11 6264.71 6564.76 1310.89 o
-17 5 11 13628.10 10280.20 1707.84 o
-15 5 11 24929.60 26842.30 3057.03 o
-13 5 11 13034.10 12404.90 1836.72 o
-11 5 11 5850.38 7662.82 1607.68 o
-9 5 11 33307.90 35869.80 2813.26 o
-7 5 11 35240.40 32573.40 2680.70 o
-5 5 11 3711.55 3091.64 1202.63 <
-3 5 11 12231.20 14482.40 1897.84 o
-14 6 11 8547.74 9692.49 1847.03 o
-12 6 11 28578.10 27949.90 2775.70 o
-10 6 11 16164.80 14461.00 2140.88 o
-8 6 11 3458.73 2461.97 1367.60 <
-6 6 11 19952.90 19559.50 2286.69 o
-17 -5 12 4224.30 2266.07 1799.90 <
-15 -5 12 20539.10 22348.50 3023.15 o
-13 -5 12 25514.90 23158.60 3481.96 o
-9 -5 12 9244.31 10544.60 2730.78 o
-7 -5 12 16298.90 20989.00 3471.65 o
-5 -5 12 3645.31 4392.96 2382.43 <
-20 -4 12 1455.42 1506.05 1916.99 <
-18 -4 12 40395.40 41538.30 4704.48 o
-16 -4 12 23866.80 24211.00 2498.06 o
-14 -4 12 4052.15 2094.48 1197.48 <
-12 -4 12 41829.20 41874.10 2898.69 o
-10 -4 12 29471.30 35195.90 4043.14 o
-8 -4 12 6378.10 4627.15 2085.64 <
-6 -4 12 14236.00 11940.10 2917.84 o
-4 -4 12 11331.30 11745.70 3031.99 o
-2 -4 12 10145.80 9804.43 2766.13 o
-21 -3 12 47873.00 43816.10 5224.41 o
-19 -3 12 8894.42 13754.00 2924.46 o
-17 -3 12 2894.13 3350.87 1359.50 <
-15 -3 12 76983.30 75411.50 3537.19 o
-13 -3 12 25758.90 25673.60 1867.65 o
-11 -3 12 6978.66 7255.56 1155.50 o
-9 -3 12 47938.40 49003.70 2308.79 o
-7 -3 12 17702.80 18510.10 3221.99 o
-5 -3 12 15847.70 18722.90 3207.26 o
-3 -3 12 11886.70 9587.91 2580.54 o
-1 -3 12 3339.21 1131.20 1549.50 <
-22 -2 12 3538.88 -417.57 1645.98 <
-20 -2 12 804.29 949.29 1586.32 <
-18 -2 12 95599.60 96052.20 5749.51 o
-16 -2 12 11372.50 11231.70 2257.24 o
-14 -2 12 3828.89 3982.01 1075.22 o
-12 -2 12 104586.00 108422.00 4087.33 o
-10 -2 12 14716.40 14775.50 1227.67 o
-8 -2 12 14514.80 16073.10 1543.61 o
-6 -2 12 34350.10 35980.30 4130.04 o
-4 -2 12 7357.17 9383.91 2438.40 o
-2 -2 12 30508.80 30126.20 3827.36 o
0 -2 12 5918.88 6155.29 2068.70 <
-23 -1 12 212.05 -465.44 1427.99 <
-21 -1 12 89165.80 90751.90 6035.99 o
-19 -1 12 1500.93 488.27 1374.96 <
-17 -1 12 883.22 855.02 1257.87 <
-15 -1 12 150014.00 161326.00 5111.00 o
-13 -1 12 15525.90 16420.00 1464.81 o
-11 -1 12 10817.80 9196.12 1016.31 o
-9 -1 12 90506.50 89731.20 2639.46 o
-7 -1 12 15276.40 15273.30 1784.43 o
-5 -1 12 27342.20 28972.90 3554.87 o
-3 -1 12 16600.90 17187.40 2873.65 o
-1 -1 12 3026.00 2864.81 1708.58 <
1 -1 12 39449.40 42474.30 4432.72 o
-22 0 12 774.66 2411.15 1714.47 <
-20 0 12 23.06 136.24 1338.88 <
-18 0 12 140457.00 137552.00 7153.93 o
-16 0 12 7727.66 8064.18 1179.80 o
-14 0 12 2568.41 2362.55 828.51 <
-12 0 12 161236.00 163665.00 3771.39 o
-10 0 12 21775.50 22417.00 1483.22 o
-8 0 12 22810.80 25373.10 1570.86 o
-6 0 12 48165.20 51442.90 3007.68 o
-4 0 12 12357.40 10233.80 2272.70 o
-2 0 12 42097.70 39704.50 3982.01 o
0 0 12 2605.70 1070.07 1481.01 <
-23 1 12 177.37 218.73 1126.78 <
-21 1 12 90931.00 92260.20 4200.00 o
-19 1 12 2068.08 1749.82 1180.54 <
-17 1 12 946.53 2095.21 894.79 <
-15 1 12 150865.00 155572.00 5348.14 o
-13 1 12 16365.20 16213.80 1332.25 o
-11 1 12 10270.30 10445.10 1109.84 o
-9 1 12 91913.70 98253.40 3233.04 o
-7 1 12 15236.90 13516.90 1429.46 o
-5 1 12 28645.90 25186.00 2327.93 o
-3 1 12 17136.70 14544.30 2439.14 o
-1 1 12 3034.91 2143.08 1516.36 <
1 1 12 40150.80 39751.60 4054.19 o
-22 2 12 3787.84 3275.75 1302.05 <
-20 2 12 595.68 163.49 1089.22 <
-18 2 12 96390.50 90144.30 4191.90 o
-16 2 12 11885.40 12945.40 1521.52 o
-14 2 12 4737.30 5130.15 930.14 o
-12 2 12 104845.00 111778.00 3191.06 o
-10 2 12 15273.30 17101.20 1687.22 o
-8 2 12 16182.40 17304.50 1657.02 o
-6 2 12 35863.60 36973.70 2370.65 o
-4 2 12 6909.16 9494.38 1643.03 o
-2 2 12 32341.40 26613.30 3135.83 o
0 2 12 6558.46 3289.01 1708.58 <
-21 3 12 45433.20 40420.30 3326.57 o
-19 3 12 10301.60 6457.24 1665.86 o
-17 3 12 3417.22 2431.04 1055.34 <
-15 3 12 76693.60 73777.30 3157.92 o
-13 3 12 25750.20 23543.70 2080.49 o
-11 3 12 7015.62 5170.65 1220.31 o
-9 3 12 49496.90 48662.80 2922.25 o
-7 3 12 18304.40 19087.40 1872.81 o
-5 3 12 18155.10 15958.20 1774.12 o
-3 3 12 11928.30 12158.10 2309.52 o
-1 3 12 3349.10 1381.59 1422.83 <
-20 4 12 1935.79 1313.84 1443.45 <
-18 4 12 39999.10 38276.50 2741.82 o
-16 4 12 24186.90 24862.00 2271.96 o
-14 4 12 4457.53 5905.63 1343.29 o
-12 4 12 41556.00 40556.60 2909.00 o
-10 4 12 29978.70 31800.10 2554.03 o
-8 4 12 6529.84 4815.68 1324.88 o
-6 4 12 15279.00 14123.70 1761.60 o
-4 4 12 10648.90 12392.30 1939.09 o
-2 4 12 10945.60 8944.98 2033.35 o
-17 5 12 4377.03 5047.66 1520.04 o
-15 5 12 20512.40 18703.80 2185.80 o
-13 5 12 23998.60 23076.80 2385.38 o
-11 5 12 3625.21 4163.18 1380.12 o
-9 5 12 10065.60 10301.50 1796.21 o
-7 5 12 15537.30 12617.70 1942.77 o
-5 5 12 4538.24 4960.03 1440.51 o
-12 6 12 5507.24 5796.64 1623.88 o
-10 6 12 17108.90 14335.80 2206.42 o
-17 -5 13 1197.39 1441.24 1763.81 <
-9 -5 13 12152.30 9462.71 2687.32 o
-7 -5 13 19053.90 22666.60 3968.76 o
-18 -4 13 29226.90 29453.10 3923.83 o
-16 -4 13 9796.18 8721.84 2323.52 o
-14 -4 13 2990.21 4375.28 1436.82 o
-10 -4 13 19856.40 24378.10 3753.71 o
-8 -4 13 21356.10 17011.40 3377.38 o
-6 -4 13 7574.90 6984.54 2479.64 <
-4 -4 13 18511.60 21062.60 3675.65 o
-21 -3 13 17418.10 10797.90 2977.49 o
-19 -3 13 2799.43 5677.33 2193.90 <
-17 -3 13 6118.97 7000.01 1626.09 o
-15 -3 13 16207.50 14724.70 1964.13 o
-13 -3 13 13078.20 11819.40 1454.50 o
-11 -3 13 8190.57 7606.85 1231.35 o
-9 -3 13 11800.00 7782.12 2380.22 o
-7 -3 13 21140.10 21067.80 3512.89 o
-5 -3 13 28277.30 27118.50 3927.52 o
-3 -3 13 6322.30 4473.96 1950.87 <
-22 -2 13 1989.35 944.14 1708.58 <
-20 -2 13 15621.00 14468.40 2992.95 o
-18 -2 13 10815.40 9994.43 2436.93 o
-16 -2 13 4253.59 3200.63 1646.71 <
-14 -2 13 2960.89 2710.16 911.73 <
-12 -2 13 9437.74 6945.51 1137.09 o
-10 -2 13 13954.90 12904.20 1439.03 o
-8 -2 13 10990.70 9055.45 2473.75 o
-6 -2 13 12215.50 6401.27 2269.02 <
-4 -2 13 18127.90 15517.10 3030.51 o
-2 -2 13 22337.10 15967.10 3015.78 o
-21 -1 13 4487.84 5069.02 2211.57 <
-19 -1 13 981.73 291.64 1534.77 <
-17 -1 13 13248.60 16456.80 2844.93 o
-15 -1 13 3812.31 2872.18 917.62 o
-13 -1 13 5838.01 6684.07 1105.42 o
-11 -1 13 1724.14 1097.32 691.53 <
-9 -1 13 7672.70 7631.15 1177.59 o
-7 -1 13 20581.30 21086.20 3315.52 o
-5 -1 13 10319.80 8196.01 2247.66 o
-3 -1 13 11817.50 11663.20 2491.43 o
-1 -1 13 13654.50 15798.40 3003.26 o
-22 0 13 2121.95 3908.37 1478.07 <
-20 0 13 20509.60 16610.00 2213.78 o
-18 0 13 1262.71 748.97 1062.70 <
-16 0 13 653.23 150.24 732.77 <
-14 0 13 3671.94 3741.93 985.38 o
-12 0 13 1569.00 1352.13 676.80 <
-10 0 13 12221.10 10415.70 1372.75 o
-8 0 13 1019.20 564.86 781.38 <
-6 0 13 9188.75 10487.90 2329.41 o
-4 0 13 22816.40 22028.80 3146.14 o
-2 0 13 9923.91 6365.18 2051.76 o
-23 1 13 19476.10 17132.90 2355.18 o
-21 1 13 3552.19 2118.78 1327.83 <
-19 1 13 803.30 1467.02 1166.54 <
-17 1 13 13732.30 14337.30 1581.17 o
-15 1 13 2074.00 3371.49 962.55 o
-13 1 13 6347.32 5641.25 947.08 o
-11 1 13 1671.36 1886.80 905.84 <
-9 1 13 6706.09 8763.82 1289.53 o
-7 1 13 20928.80 20333.50 1810.21 o
-5 1 13 10350.00 8138.57 2104.79 o
-3 1 13 11351.40 16199.80 2668.18 o
-1 1 13 13261.70 12060.90 2439.88 o
-22 2 13 1509.06 1411.05 1382.33 <
-20 2 13 15189.90 11601.40 2032.62 o
-18 2 13 7928.45 9304.38 1424.30 o
-16 2 13 4706.97 3872.28 1089.95 o
-14 2 13 3307.57 2081.96 980.96 <
-12 2 13 6490.40 8657.77 1369.81 o
-10 2 13 14795.40 13170.00 1592.22 o
-8 2 13 11400.20 10699.20 1500.90 o
-6 2 13 9547.40 10060.00 1776.33 o
-2 2 13 23187.50 23213.80 3108.58 o
-21 3 13 16865.20 11670.60 3135.09 o
-19 3 13 2968.16 4575.60 1583.38 <
-17 3 13 5284.71 5228.83 1298.37 o
-15 3 13 15774.30 15366.10 1819.78 o
-13 3 13 12993.80 13673.00 1805.05 o
-11 3 13 9049.83 7416.84 1444.93 o
-9 3 13 10179.10 9497.33 1524.46 o
-7 3 13 21215.90 18948.30 1953.08 o
-5 3 13 28376.90 22140.80 2445.77 o
-3 3 13 5716.24 7802.01 1988.43 o
-18 4 13 29194.90 23601.20 2324.25 o
-16 4 13 9973.08 11862.80 1821.25 o
-14 4 13 3140.57 3301.53 1297.63 <
-12 4 13 19784.30 20454.30 2253.55 o
-10 4 13 19381.90 18965.20 2124.67 o
-8 4 13 22310.70 17415.70 1958.23 o
-6 4 13 7565.34 7984.65 1503.84 o
-4 4 13 17250.10 12268.60 2386.85 o
-17 5 13 1185.91 -1147.40 1441.98 <
-15 5 13 25921.80 21457.40 2378.01 o
-13 5 13 14769.90 9347.09 1891.22 o
-11 5 13 12576.20 10834.00 1908.89 o
-9 5 13 11426.70 11216.20 1897.11 o
-7 5 13 18585.90 19382.80 2201.26 o
-18 -4 14 16750.70 15081.90 3060.71 o
-16 -4 14 20039.20 17643.30 3066.60 o
-12 -4 14 17754.90 16871.50 3130.67 o
-10 -4 14 33711.80 31686.70 4343.61 o
-8 -4 14 2848.72 7245.25 2594.53 <
-19 -3 14 17131.60 17347.20 3310.37 o
-17 -3 14 2787.89 2932.56 1866.18 <
-15 -3 14 14167.10 12463.80 1985.48 o
-13 -3 14 40869.50 41243.70 2518.68 o
-11 -3 14 4294.00 7001.48 2428.83 <
-9 -3 14 12471.80 8936.88 2718.26 o
-7 -3 14 37311.60 33684.00 4526.99 o
-5 -3 14 8825.04 6821.78 2456.08 <
-22 -2 14 8930.91 4648.50 2218.20 <
-20 -2 14 3437.75 1146.66 1723.31 <
-18 -2 14 7234.46 9537.83 2431.04 o
-16 -2 14 47426.50 50794.80 3517.31 o
-14 -2 14 3835.08 4206.63 1046.50 o
-12 -2 14 9682.91 8802.85 1313.10 o
-10 -2 14 58632.10 50668.90 5270.81 o
-8 -2 14 14707.00 17242.60 3194.74 o
-6 -2 14 11477.90 12123.50 2962.02 o
-4 -2 14 22495.70 21632.60 3456.92 o
-21 -1 14 1812.27 3210.94 1981.06 <
-19 -1 14 33529.80 34665.70 3076.17 o
-17 -1 14 335.71 2019.36 1194.53 <
-15 -1 14 4649.16 3208.74 1007.47 o
-13 -1 14 66979.90 67728.10 2766.86 o
-11 -1 14 9915.93 9932.57 1366.12 o
-9 -1 14 8372.71 5533.72 2260.18 <
-7 -1 14 53359.60 43291.80 4719.94 o
-5 -1 14 17635.60 21638.50 3404.63 o
-3 -1 14 17110.30 15224.70 2929.62 o
-22 0 14 11094.90 11988.80 2097.42 o
-20 0 14 4749.86 1992.85 1260.07 <
-18 0 14 992.30 1363.91 1188.64 <
-16 0 14 60354.20 65355.20 2833.14 o
-14 0 14 1054.94 2908.26 975.07 <
-12 0 14 3747.33 4976.23 1162.86 o
-10 0 14 73974.60 75653.80 3025.36 o
-8 0 14 14676.60 11331.80 2656.39 o
-6 0 14 13195.90 14427.90 2833.88 o
-4 0 14 22971.50 21510.40 3324.36 o
-21 1 14 1974.96 1587.80 1371.28 <
-19 1 14 32661.00 34779.80 3196.22 o
-17 1 14 840.91 1117.94 953.71 <
-15 1 14 4072.12 3861.23 1119.41 o
-13 1 14 66529.40 63896.30 2891.32 o
-11 1 14 10957.60 9454.61 1444.19 o
-9 1 14 7484.66 7488.28 1341.08 o
-7 1 14 51460.00 46720.70 4610.21 o
-5 1 14 18063.80 16761.00 2830.20 o
-3 1 14 15871.50 17818.50 2989.27 o
-22 2 14 9561.36 5724.47 1791.80 o
-20 2 14 3681.75 1645.24 1363.91 <
-18 2 14 6687.53 8831.57 1466.28 o
-16 2 14 46949.20 49654.80 3033.46 o
-14 2 14 4301.67 3152.03 1182.01 <
-12 2 14 8416.52 7671.65 1439.03 o
-10 2 14 57717.00 63922.80 3948.14 o
-8 2 14 14644.70 13705.40 1693.11 o
-6 2 14 9642.46 9995.91 2291.11 o
-4 2 14 22359.80 19054.30 2976.02 o
-19 3 14 16515.70 12245.00 1825.67 o
-17 3 14 3439.98 4116.05 1296.90 o
-15 3 14 13152.20 11384.90 1703.42 o
-13 3 14 41559.80 40132.40 2898.69 o
-11 3 14 5215.13 5021.89 1328.57 o
-9 3 14 11240.40 10378.90 1616.52 o
-7 3 14 35834.50 34843.20 3160.87 o
-5 3 14 9689.04 7905.11 2119.52 o
-18 4 14 15684.30 17146.10 2135.72 o
-16 4 14 18438.50 16273.40 2125.41 o
-14 4 14 4409.03 5528.57 1537.72 o
-12 4 14 17227.30 13615.60 1989.90 o
-10 4 14 31237.20 28894.10 2601.16 o
-8 4 14 4229.78 2168.12 1285.85 <
-13 5 14 19451.40 19725.20 3049.66 o
-16 -4 15 16297.20 12127.20 2995.16 o
-12 -4 15 10913.30 12345.20 2993.69 o
-19 -3 15 12858.10 16399.40 3375.17 o
-17 -3 15 3041.97 3017.26 1386.75 <
-15 -3 15 35885.70 34550.80 2389.06 o
-13 -3 15 15261.50 19256.80 3503.32 o
-11 -3 15 8175.00 9020.10 2844.19 o
-9 -3 15 11689.30 8687.22 2760.23 o
-20 -2 15 954.99 959.60 1753.50 <
-18 -2 15 59203.90 67270.00 3982.75 o
-16 -2 15 15909.10 14673.10 1989.17 o
-14 -2 15 5295.48 4022.52 1160.65 o
-12 -2 15 37634.00 40798.10 3277.96 o
-10 -2 15 12120.00 12031.50 2966.44 o
-8 -2 15 17483.70 13475.70 3162.34 o
-6 -2 15 6806.03 6692.90 2484.80 <
-21 -1 15 72938.70 66912.80 4597.69 o
-19 -1 15 6411.21 8059.77 1808.00 o
-17 -1 15 1867.37 1434.61 1229.88 <
-15 -1 15 66955.40 71356.60 3008.42 o
-13 -1 15 11271.90 11643.40 1554.66 o
-11 -1 15 12613.20 13262.80 2031.88 o
-9 -1 15 18856.60 21894.10 3621.15 o
-7 -1 15 4343.02 3509.21 1920.67 <
-22 0 15 737.27 916.15 1400.00 <
-20 0 15 402.92 1435.35 1265.97 <
-18 0 15 77279.90 68507.30 4120.47 o
-16 0 15 7503.32 5689.12 1263.76 o
-14 0 15 5618.30 5834.93 1267.44 o
-12 0 15 48747.30 58135.00 3231.57 o
-10 0 15 5182.10 4517.42 1565.70 <
-8 0 15 22526.60 26533.70 3968.02 o
-6 0 15 5644.22 1964.86 1687.22 <
-21 1 15 70865.30 85911.20 6442.51 o
-19 1 15 7042.62 2349.29 1511.94 <
-17 1 15 1760.33 2936.98 1126.04 <
-15 1 15 66503.40 70511.90 3450.29 o
-13 1 15 11106.90 11878.30 1671.75 o
-11 1 15 13501.60 13873.30 1746.14 o
-9 1 15 19976.10 15098.10 2198.32 o
-7 1 15 4481.01 2656.39 1685.75 <
-20 2 15 1061.29 -1014.84 1221.04 <
-18 2 15 61472.70 63481.00 3456.18 o
-16 2 15 16662.60 15717.40 1951.61 o
-14 2 15 5816.61 6061.03 1383.06 o
-12 2 15 37670.90 36552.50 2704.26 o
-10 2 15 12372.40 12855.60 1788.11 o
-8 2 15 18141.20 16673.30 2971.60 o
-6 2 15 7540.61 3594.64 1790.32 <
-19 3 15 13457.30 14874.90 1969.28 o
-17 3 15 3323.37 2084.90 1299.84 <
-15 3 15 36830.80 33530.10 2787.48 o
-13 3 15 15299.60 16075.30 2059.87 o
-11 3 15 9322.03 5446.82 1435.35 o
-9 3 15 13013.20 7396.22 1550.97 o
-16 4 15 15999.00 12432.80 1988.43 o
-14 4 15 5095.58 4077.02 1498.69 <
-12 4 15 10961.60 9528.99 1769.70 o
-13 -3 16 12626.00 13736.40 3168.23 o
-18 -2 16 6158.87 3625.57 1494.27 <
-16 -2 16 6462.05 6454.29 1587.80 o
-14 -2 16 5069.52 5983.70 1671.75 o
-12 -2 16 4408.94 5228.83 2498.06 <
-10 -2 16 12462.50 7047.14 2764.65 <
-19 -1 16 1411.91 427.14 1293.22 <
-17 -1 16 958.85 2590.85 1098.79 <
-15 -1 16 2150.76 3111.52 1137.09 <
-13 -1 16 10073.30 10228.60 1964.86 o
-11 -1 16 5754.73 6153.08 2545.19 <
-9 -1 16 7027.55 4127.83 2126.15 <
-20 0 16 4744.45 2772.75 1522.99 <
-18 0 16 463.62 1410.31 1388.95 <
-16 0 16 4335.06 6774.65 1385.27 o
-14 0 16 794.90 1496.48 1092.16 <
-12 0 16 5699.72 9726.36 1964.13 o
-10 0 16 11459.30 9700.59 2776.44 o
-8 0 16 6654.40 4480.59 2035.56 <
-19 1 16 1594.68 1536.25 1523.73 <
-17 1 16 606.31 -219.46 986.85 <
-15 1 16 1595.83 3173.39 1261.55 <
-13 1 16 9970.86 8881.65 1581.91 o
-11 1 16 6223.79 3672.70 1590.74 <
-9 1 16 6944.53 5552.87 2148.24 <
-18 2 16 5898.94 5011.58 1465.55 o
-16 2 16 6831.35 7043.46 1553.18 o
-14 2 16 5215.44 1848.50 1236.51 <
-12 2 16 4454.07 3566.65 1344.77 <
-10 2 16 12126.30 12781.90 2174.02 o
-15 3 16 6957.16 6611.16 1603.26 o
-13 3 16 12793.30 11233.90 1842.61 o
-17 -1 17 3299.29 3796.43 1270.39 <
-15 -1 17 4889.07 2496.58 1522.25 <
-18 0 17 2048.54 2003.89 1205.58 <
-16 0 17 45477.20 49962.60 3278.70 o
-14 0 17 12467.30 8981.07 2073.86 o
-17 1 17 3704.10 4912.16 1431.67 o
-15 1 17 4125.72 4763.39 1416.94 o
-13 1 17 35386.00 36984.00 5097.01 o
