#------------------------------------------------------------------------------
#$Date: 2016-02-16 22:30:59 +0200 (Tue, 16 Feb 2016) $
#$Revision: 176467 $
#$URL: svn://www.crystallography.net/cod/cif/4/34/00/4340035.cif $
#------------------------------------------------------------------------------
#
# This file is available in the Crystallography Open Database (COD),
# http://www.crystallography.net/
#
# All data on this site have been placed in the public domain by the
# contributors.
#
data_4340035
loop_
_publ_author_name
'Meng, Chang-Yu'
'Chen, Hong'
'Wang, Peng'
_publ_section_title
;
 Syntheses, Structures, and Physical Properties of CsRE2Ag3Te5 (RE = Pr,
 Nd, Sm, Gd-Er) and RbRE2Ag3Te5 (RE = Sm, Gd-Dy).
;
_journal_issue                   13
_journal_name_full               'Inorganic chemistry'
_journal_page_first              6893
_journal_page_last               6903
_journal_paper_doi               10.1021/ic5007132
_journal_volume                  53
_journal_year                    2014
_chemical_formula_sum            'Ag1.2 Cs0.4 Sm0.8 Te2'
_chemical_formula_weight         558.09
_chemical_name_systematic
; 
 ? 
;
_space_group_IT_number           63
_symmetry_cell_setting           orthorhombic
_symmetry_space_group_name_Hall  '-C 2c 2'
_symmetry_space_group_name_H-M   'C m c m'
_atom_sites_solution_primary     direct
_atom_sites_solution_secondary   difmap
_audit_creation_method           SHELXL-97
_cell_angle_alpha                90.00
_cell_angle_beta                 90.00
_cell_angle_gamma                90.00
_cell_formula_units_Z            10
_cell_length_a                   4.5795(6)
_cell_length_b                   16.2514(16)
_cell_length_c                   18.648(2)
_cell_measurement_reflns_used    856
_cell_measurement_temperature    293(2)
_cell_measurement_theta_max      27.3028
_cell_measurement_theta_min      2.1841
_cell_volume                     1387.8(3)
_computing_cell_refinement       'Bruker XSCANS'
_computing_data_collection       'Bruker XSCANS'
_computing_data_reduction        'Bruker SHELXTL'
_computing_molecular_graphics    'Bruker SHELXTL'
_computing_publication_material  'Bruker SHELXTL'
_computing_structure_refinement  'SHELXL-97 (Sheldrick, 1997)'
_computing_structure_solution    'SHELXS-97 (Sheldrick, 1990)'
_diffrn_ambient_temperature      293(2)
_diffrn_detector_area_resol_mean 13.6612
_diffrn_measured_fraction_theta_full 0.998
_diffrn_measured_fraction_theta_max 0.998
_diffrn_measurement_device_type  'Bruker P4'
_diffrn_measurement_method       CCD_Profile_fitting
_diffrn_radiation_monochromator  graphite
_diffrn_radiation_source         'fine-focus sealed tube'
_diffrn_radiation_type           MoK\a
_diffrn_radiation_wavelength     0.71073
_diffrn_reflns_av_R_equivalents  0.0257
_diffrn_reflns_av_sigmaI/netI    0.0170
_diffrn_reflns_limit_h_max       4
_diffrn_reflns_limit_h_min       -5
_diffrn_reflns_limit_k_max       19
_diffrn_reflns_limit_k_min       -20
_diffrn_reflns_limit_l_max       24
_diffrn_reflns_limit_l_min       -23
_diffrn_reflns_number            5331
_diffrn_reflns_theta_full        27.39
_diffrn_reflns_theta_max         27.39
_diffrn_reflns_theta_min         2.51
_exptl_absorpt_coefficient_mu    25.322
_exptl_absorpt_correction_T_max  1.0000
_exptl_absorpt_correction_T_min  0.5570
_exptl_absorpt_correction_type   multi-scan
_exptl_crystal_colour            gray
_exptl_crystal_density_diffrn    6.677
_exptl_crystal_density_method    'not measured'
_exptl_crystal_description       chunk
_exptl_crystal_F_000             2320
_exptl_crystal_size_max          0.11
_exptl_crystal_size_mid          0.10
_exptl_crystal_size_min          0.08
_refine_diff_density_max         1.070
_refine_diff_density_min         -1.549
_refine_diff_density_rms         0.287
_refine_ls_extinction_coef       0.000205(18)
_refine_ls_extinction_expression Fc^*^=kFc[1+0.001xFc^2^\l^3^/sin(2\q)]^-1/4^
_refine_ls_extinction_method     SHELXL
_refine_ls_goodness_of_fit_ref   1.221
_refine_ls_matrix_type           full
_refine_ls_number_parameters     38
_refine_ls_number_reflns         910
_refine_ls_number_restraints     0
_refine_ls_restrained_S_all      1.221
_refine_ls_R_factor_all          0.0235
_refine_ls_R_factor_gt           0.0208
_refine_ls_shift/su_max          0.001
_refine_ls_shift/su_mean         0.000
_refine_ls_structure_factor_coef Fsqd
_refine_ls_weighting_details
'calc w=1/[\s^2^(Fo^2^)+(0.0173P)^2^+4.3166P] where P=(Fo^2^+2Fc^2^)/3'
_refine_ls_weighting_scheme      calc
_refine_ls_wR_factor_gt          0.0410
_refine_ls_wR_factor_ref         0.0418
_reflns_number_gt                859
_reflns_number_total             910
_reflns_threshold_expression     >2sigma(I)
_cod_data_source_file            ic5007132_si_002.cif
_cod_data_source_block           CsSm2Ag3Te5
_cod_depositor_comments
;
The following automatic conversions were performed:

'_symmetry_cell_setting' value 'Orthorhombic' changed to
'orthorhombic' according to
/usr/data/users/saulius/crontab/automatic-downloads/rss-feeds/ACS/lib/dictionaries/cif_core.dic
dictionary named 'cif_core.dic' version 2.4.2 from
2011-04-26.

'_exptl_absorpt_correction_type' value 'Multi-scan'
changed to 'multi-scan' according to
/usr/data/users/saulius/crontab/automatic-downloads/rss-feeds/ACS/lib/dictionaries/cif_core.dic
dictionary named 'cif_core.dic' version 2.4.2 from 2011-04-26.

Automatic conversion script
Id: cif_fix_values 2281 2013-09-26 08:29:07Z andrius 

 Adding full bibliography for 4340029--4340040.cif.
;
_cod_original_cell_volume        1387.9(3)
_cod_original_sg_symbol_H-M      Cmcm
_cod_original_formula_sum        'Ag1.20 Cs0.40 Sm0.80 Te2'
_cod_database_code               4340035
loop_
_symmetry_equiv_pos_as_xyz
'x, y, z'
'-x, -y, z+1/2'
'-x, y, -z+1/2'
'x, -y, -z'
'x+1/2, y+1/2, z'
'-x+1/2, -y+1/2, z+1/2'
'-x+1/2, y+1/2, -z+1/2'
'x+1/2, -y+1/2, -z'
'-x, -y, -z'
'x, y, -z-1/2'
'x, -y, z-1/2'
'-x, y, z'
'-x+1/2, -y+1/2, -z'
'x+1/2, y+1/2, -z-1/2'
'x+1/2, -y+1/2, z-1/2'
'-x+1/2, y+1/2, z'
loop_
_atom_site_label
_atom_site_type_symbol
_atom_site_fract_x
_atom_site_fract_y
_atom_site_fract_z
_atom_site_U_iso_or_equiv
_atom_site_adp_type
_atom_site_occupancy
_atom_site_symmetry_multiplicity
_atom_site_calc_flag
_atom_site_refinement_flags
Cs Cs 0.0000 0.44120(4) 0.2500 0.02163(16) Uani 1 4 d S
Sm Sm 0.0000 0.30889(2) 0.59385(2) 0.01375(11) Uani 1 2 d S
Te1 Te 0.0000 0.93832(3) 0.61911(3) 0.01458(12) Uani 1 2 d S
Te2 Te 0.0000 0.32471(3) 0.07267(3) 0.01312(12) Uani 1 2 d S
Te3 Te 0.0000 0.75412(4) 0.2500 0.01502(16) Uani 1 4 d S
Ag1 Ag 0.0000 0.15856(5) 0.2500 0.0261(2) Uani 1 4 d S
Ag2 Ag 0.0000 0.91516(4) 0.03236(3) 0.02392(15) Uani 1 2 d S
loop_
_atom_site_aniso_label
_atom_site_aniso_U_11
_atom_site_aniso_U_22
_atom_site_aniso_U_33
_atom_site_aniso_U_23
_atom_site_aniso_U_13
_atom_site_aniso_U_12
Cs 0.0234(4) 0.0216(3) 0.0199(4) 0.000 0.000 0.000
Sm 0.01263(19) 0.01612(18) 0.0125(2) 0.00006(13) 0.000 0.000
Te1 0.0160(2) 0.0127(2) 0.0151(3) 0.00009(16) 0.000 0.000
Te2 0.0118(2) 0.0147(2) 0.0129(2) 0.00033(16) 0.000 0.000
Te3 0.0152(3) 0.0190(3) 0.0109(3) 0.000 0.000 0.000
Ag1 0.0211(4) 0.0292(4) 0.0280(5) 0.000 0.000 0.000
Ag2 0.0238(3) 0.0222(3) 0.0258(4) 0.0014(2) 0.000 0.000
loop_
_atom_type_symbol
_atom_type_description
_atom_type_scat_dispersion_real
_atom_type_scat_dispersion_imag
_atom_type_scat_source
Ag Ag -0.8971 1.1015 'International Tables Vol C Tables 4.2.6.8 and 6.1.1.4'
Te Te -0.5308 1.6751 'International Tables Vol C Tables 4.2.6.8 and 6.1.1.4'
Cs Cs -0.3680 2.1192 'International Tables Vol C Tables 4.2.6.8 and 6.1.1.4'
Sm Sm -0.1638 3.4418 'International Tables Vol C Tables 4.2.6.8 and 6.1.1.4'
loop_
_geom_angle_atom_site_label_1
_geom_angle_atom_site_label_2
_geom_angle_atom_site_label_3
_geom_angle
_geom_angle_site_symmetry_1
_geom_angle_site_symmetry_3
Te3 Cs Te3 73.969(18) 5_445 5_545
Te3 Cs Te2 66.618(10) 5_445 .
Te3 Cs Te2 66.618(10) 5_545 .
Te3 Cs Te2 66.618(10) 5_445 10_556
Te3 Cs Te2 66.618(11) 5_545 10_556
Te2 Cs Te2 120.42(2) . 10_556
Te3 Cs Te1 139.344(11) 5_445 13_566
Te3 Cs Te1 92.757(10) 5_545 13_566
Te2 Cs Te1 142.863(6) . 13_566
Te2 Cs Te1 72.817(11) 10_556 13_566
Te3 Cs Te1 92.757(10) 5_445 6_464
Te3 Cs Te1 139.344(11) 5_545 6_464
Te2 Cs Te1 72.817(11) . 6_464
Te2 Cs Te1 142.863(6) 10_556 6_464
Te1 Cs Te1 119.34(2) 13_566 6_464
Te3 Cs Te1 139.344(11) 5_445 6_564
Te3 Cs Te1 92.757(10) 5_545 6_564
Te2 Cs Te1 72.817(11) . 6_564
Te2 Cs Te1 142.863(6) 10_556 6_564
Te1 Cs Te1 78.026(17) 13_566 6_564
Te1 Cs Te1 72.390(14) 6_464 6_564
Te3 Cs Te1 92.757(10) 5_445 13_466
Te3 Cs Te1 139.344(11) 5_545 13_466
Te2 Cs Te1 142.863(6) . 13_466
Te2 Cs Te1 72.817(11) 10_556 13_466
Te1 Cs Te1 72.390(14) 13_566 13_466
Te1 Cs Te1 78.026(16) 6_464 13_466
Te1 Cs Te1 119.34(2) 6_564 13_466
Te3 Cs Ag1 175.967(14) 5_445 5
Te3 Cs Ag1 110.064(12) 5_545 5
Te2 Cs Ag1 114.639(9) . 5
Te2 Cs Ag1 114.639(9) 10_556 5
Te1 Cs Ag1 41.845(9) 13_566 5
Te1 Cs Ag1 84.115(15) 6_464 5
Te1 Cs Ag1 41.845(9) 6_564 5
Te1 Cs Ag1 84.115(15) 13_466 5
Te3 Cs Ag1 110.064(12) 5_445 5_455
Te3 Cs Ag1 175.967(14) 5_545 5_455
Te2 Cs Ag1 114.639(9) . 5_455
Te2 Cs Ag1 114.639(9) 10_556 5_455
Te1 Cs Ag1 84.115(15) 13_566 5_455
Te1 Cs Ag1 41.845(9) 6_464 5_455
Te1 Cs Ag1 84.115(15) 6_564 5_455
Te1 Cs Ag1 41.845(9) 13_466 5_455
Ag1 Cs Ag1 65.903(18) 5 5_455
Te3 Cs Cs 126.984(9) 5_445 1_655
Te3 Cs Cs 53.016(9) 5_545 1_655
Te2 Cs Cs 90.0 . 1_655
Te2 Cs Cs 90.0 10_556 1_655
Te1 Cs Cs 53.805(7) 13_566 1_655
Te1 Cs Cs 126.195(7) 6_464 1_655
Te1 Cs Cs 53.805(7) 6_564 1_655
Te1 Cs Cs 126.195(7) 13_466 1_655
Ag1 Cs Cs 57.048(9) 5 1_655
Ag1 Cs Cs 122.951(9) 5_455 1_655
Te3 Cs Cs 53.016(9) 5_445 1_455
Te3 Cs Cs 126.984(9) 5_545 1_455
Te2 Cs Cs 90.0 . 1_455
Te2 Cs Cs 90.0 10_556 1_455
Te1 Cs Cs 126.195(7) 13_566 1_455
Te1 Cs Cs 53.805(7) 6_464 1_455
Te1 Cs Cs 126.195(7) 6_564 1_455
Te1 Cs Cs 53.805(7) 13_466 1_455
Ag1 Cs Cs 122.951(9) 5 1_455
Ag1 Cs Cs 57.049(9) 5_455 1_455
Cs Cs Cs 180.0 1_655 1_455
Te3 Sm Te2 165.357(19) 9_566 10_556
Te3 Sm Te1 94.621(14) 9_566 5_545
Te2 Sm Te1 95.401(13) 10_556 5_545
Te3 Sm Te1 94.621(14) 9_566 5_445
Te2 Sm Te1 95.401(13) 10_556 5_445
Te1 Sm Te1 93.459(17) 5_545 5_445
Te3 Sm Te2 83.725(14) 9_566 6_455
Te2 Sm Te2 86.130(13) 10_556 6_455
Te1 Sm Te2 178.270(17) 5_545 6_455
Te1 Sm Te2 87.191(12) 5_445 6_455
Te3 Sm Te2 83.725(14) 9_566 6
Te2 Sm Te2 86.130(13) 10_556 6
Te1 Sm Te2 87.191(12) 5_545 6
Te1 Sm Te2 178.270(17) 5_445 6
Te2 Sm Te2 92.114(17) 6_455 6
Te3 Sm Ag2 138.840(10) 9_566 14_446
Te2 Sm Ag2 47.886(11) 10_556 14_446
Te1 Sm Ag2 103.476(15) 5_545 14_446
Te1 Sm Ag2 48.265(13) 5_445 14_446
Te2 Sm Ag2 78.149(13) 6_455 14_446
Te2 Sm Ag2 133.108(17) 6 14_446
Te3 Sm Ag2 138.840(10) 9_566 14_546
Te2 Sm Ag2 47.886(11) 10_556 14_546
Te1 Sm Ag2 48.265(13) 5_545 14_546
Te1 Sm Ag2 103.476(15) 5_445 14_546
Te2 Sm Ag2 133.108(17) 6_455 14_546
Te2 Sm Ag2 78.149(13) 6 14_546
Ag2 Sm Ag2 76.217(16) 14_446 14_546
Ag2 Te1 Ag2 63.39(2) 10_556 2_575
Ag2 Te1 Ag1 139.59(3) 10_556 9_566
Ag2 Te1 Ag1 157.02(3) 2_575 9_566
Ag2 Te1 Sm 76.300(14) 10_556 5_455
Ag2 Te1 Sm 117.973(15) 2_575 5_455
Ag1 Te1 Sm 76.309(15) 9_566 5_455
Ag2 Te1 Sm 76.300(14) 10_556 5
Ag2 Te1 Sm 117.973(15) 2_575 5
Ag1 Te1 Sm 76.309(15) 9_566 5
Sm Te1 Sm 93.459(17) 5_455 5
Ag2 Te1 Cs 133.683(12) 10_556 13_566
Ag2 Te1 Cs 86.336(17) 2_575 13_566
Ag1 Te1 Cs 75.211(18) 9_566 13_566
Sm Te1 Cs 149.548(17) 5_455 13_566
Sm Te1 Cs 90.119(12) 5 13_566
Ag2 Te1 Cs 133.683(12) 10_556 13_466
Ag2 Te1 Cs 86.336(16) 2_575 13_466
Ag1 Te1 Cs 75.211(17) 9_566 13_466
Sm Te1 Cs 90.119(12) 5_455 13_466
Sm Te1 Cs 149.548(17) 5 13_466
Cs Te1 Cs 72.390(14) 13_566 13_466
Ag2 Te2 Ag2 108.41(3) 5_545 5_445
Ag2 Te2 Sm 77.150(17) 5_545 10_556
Ag2 Te2 Sm 77.150(17) 5_445 10_556
Ag2 Te2 Sm 166.57(2) 5_545 6_454
Ag2 Te2 Sm 78.731(14) 5_445 6_454
Sm Te2 Sm 93.870(13) 10_556 6_454
Ag2 Te2 Sm 78.731(14) 5_545 6_554
Ag2 Te2 Sm 166.57(2) 5_445 6_554
Sm Te2 Sm 93.870(13) 10_556 6_554
Sm Te2 Sm 92.114(17) 6_454 6_554
Ag2 Te2 Cs 88.416(17) 5_545 .
Ag2 Te2 Cs 88.416(17) 5_445 .
Sm Te2 Cs 154.941(18) 10_556 .
Sm Te2 Cs 103.379(14) 6_454 .
Sm Te2 Cs 103.379(14) 6_554 .
Ag1 Te3 Ag1 111.71(4) 5_455 5
Ag1 Te3 Sm 79.269(10) 5_455 2_564
Ag1 Te3 Sm 79.269(10) 5 2_564
Ag1 Te3 Sm 79.269(10) 5_455 9_566
Ag1 Te3 Sm 79.269(10) 5 9_566
Sm Te3 Sm 141.25(3) 2_564 9_566
Ag1 Te3 Cs 161.13(2) 5_455 5
Ag1 Te3 Cs 87.161(19) 5 5
Sm Te3 Cs 105.366(9) 2_564 5
Sm Te3 Cs 105.366(9) 9_566 5
Ag1 Te3 Cs 87.161(19) 5_455 5_455
Ag1 Te3 Cs 161.13(2) 5 5_455
Sm Te3 Cs 105.366(9) 2_564 5_455
Sm Te3 Cs 105.366(9) 9_566 5_455
Cs Te3 Cs 73.969(18) 5 5_455
Te3 Ag1 Te3 111.71(4) 5_545 5_445
Te3 Ag1 Te1 107.714(7) 5_545 2_564
Te3 Ag1 Te1 107.714(7) 5_445 2_564
Te3 Ag1 Te1 107.714(7) 5_545 9_566
Te3 Ag1 Te1 107.714(7) 5_445 9_566
Te1 Ag1 Te1 114.35(3) 2_564 9_566
Te3 Ag1 Cs 157.10(2) 5_545 5_445
Te3 Ag1 Cs 91.194(17) 5_445 5_445
Te1 Ag1 Cs 62.944(16) 2_564 5_445
Te1 Ag1 Cs 62.944(16) 9_566 5_445
Te3 Ag1 Cs 91.194(17) 5_545 5_545
Te3 Ag1 Cs 157.10(2) 5_445 5_545
Te1 Ag1 Cs 62.944(16) 2_564 5_545
Te1 Ag1 Cs 62.944(16) 9_566 5_545
Cs Ag1 Cs 65.903(18) 5_445 5_545
Te2 Ag2 Te2 108.41(3) 5_455 5
Te2 Ag2 Te1 109.433(18) 5_455 10_556
Te2 Ag2 Te1 109.433(18) 5 10_556
Te2 Ag2 Te1 106.326(19) 5_455 2_574
Te2 Ag2 Te1 106.326(19) 5 2_574
Te1 Ag2 Te1 116.61(2) 10_556 2_574
Te2 Ag2 Ag2 125.720(13) 5_455 9_575
Te2 Ag2 Ag2 125.720(13) 5 9_575
Te1 Ag2 Ag2 58.77(2) 10_556 9_575
Te1 Ag2 Ag2 57.83(2) 2_574 9_575
Te2 Ag2 Sm 54.964(14) 5_455 14_456
Te2 Ag2 Sm 115.28(2) 5 14_456
Te1 Ag2 Sm 55.435(13) 10_556 14_456
Te1 Ag2 Sm 137.864(11) 2_574 14_456
Ag2 Ag2 Sm 99.91(2) 9_575 14_456
Te2 Ag2 Sm 115.28(2) 5_455 14_556
Te2 Ag2 Sm 54.964(14) 5 14_556
Te1 Ag2 Sm 55.435(13) 10_556 14_556
Te1 Ag2 Sm 137.864(11) 2_574 14_556
Ag2 Ag2 Sm 99.91(2) 9_575 14_556
Sm Ag2 Sm 76.217(16) 14_456 14_556
loop_
_geom_bond_atom_site_label_1
_geom_bond_atom_site_label_2
_geom_bond_distance
_geom_bond_site_symmetry_2
Sm Te3 3.0867(5) 9_566
Sm Te2 3.1159(7) 10_556
Sm Te1 3.1447(5) 5_545
Sm Te1 3.1447(5) 5_445
Sm Te2 3.1801(5) 6_455
Sm Te2 3.1801(5) 6
Te1 Ag2 2.8497(8) 10_556
Te1 Ag2 2.8787(8) 2_575
Te1 Ag1 2.9046(7) 9_566
Te1 Sm 3.1447(5) 5_455
Te1 Sm 3.1447(5) 5
Te2 Ag2 2.8230(5) 5_545
Te2 Ag2 2.8230(5) 5_445
Te2 Sm 3.1159(7) 10_556
Te2 Sm 3.1801(4) 6_454
Te2 Sm 3.1801(5) 6_554
Te3 Ag1 2.7667(7) 5_455
Te3 Ag1 2.7667(6) 5
Te3 Sm 3.0867(5) 2_564
Te3 Sm 3.0867(5) 9_566
Ag1 Te3 2.7667(6) 5_545
Ag1 Te3 2.7667(6) 5_445
Ag1 Te1 2.9046(7) 2_564
Ag1 Te1 2.9046(7) 9_566
Ag2 Te2 2.8230(5) 5_455
Ag2 Te2 2.8230(5) 5
Ag2 Te1 2.8497(8) 10_556
Ag2 Te1 2.8787(8) 2_574
Ag2 Ag2 3.0100(12) 9_575
