#------------------------------------------------------------------------------
#$Date: 2016-03-23 23:36:17 +0200 (Wed, 23 Mar 2016) $
#$Revision: 179508 $
#$URL: svn://www.crystallography.net/cod/cif/4/34/05/4340522.cif $
#------------------------------------------------------------------------------
#
# This file is available in the Crystallography Open Database (COD),
# http://www.crystallography.net/
#
# All data on this site have been placed in the public domain by the
# contributors.
#
data_4340522
loop_
_publ_author_name
'Lin, Xinsong'
'Tabassum, Danisa'
'Rudyk, Brent W.'
'Mar, Arthur'
_publ_section_title
;
 Manganese-Substituted Rare-Earth Zinc Arsenides RE1-yMnxZn2-xAs2 (RE =
 Eu-Lu) and RE2-yMnxZn4-xAs4 (RE = La-Nd, Sm, Gd).
;
_journal_issue                   16
_journal_name_full               'Inorganic chemistry'
_journal_page_first              8431
_journal_page_last               8441
_journal_paper_doi               10.1021/ic501053v
_journal_volume                  53
_journal_year                    2014
_chemical_formula_structural     'Nd1.25 Mn0.95 Zn3.05 As4'
_chemical_formula_sum            'As4 Mn0.95 Nd1.25 Zn3.05'
_chemical_formula_weight         731.55
_chemical_name_common
'neodymium manganese zinc arsenide (1.3/1.0/3.0/4)'
_chemical_name_systematic
'neodymium manganese zinc arsenide (1.3/1.0/3.0/4)'
_space_group_crystal_system      trigonal
_space_group_IT_number           164
_space_group_name_Hall           '-P 3 2"'
_space_group_name_H-M_alt        'P -3 m 1'
_symmetry_space_group_name_Hall  '-P 3 2"'
_symmetry_space_group_name_H-M   'P -3 m 1'
_atom_sites_solution_primary     direct
_atom_sites_solution_secondary   difmap
_audit_creation_method           SHELXL-2013
_cell_angle_alpha                90
_cell_angle_beta                 90
_cell_angle_gamma                120
_cell_formula_units_Z            1
_cell_length_a                   4.1283(17)
_cell_length_b                   4.1283(17)
_cell_length_c                   13.513(6)
_cell_measurement_reflns_used    1660
_cell_measurement_temperature    296(2)
_cell_measurement_theta_max      31.10
_cell_measurement_theta_min      5.70
_cell_volume                     199.45(15)
_computing_cell_refinement       'Bruker SAINT 8.32B (Bruker, 2011)'
_computing_data_collection       'Bruker APEX 2 (Bruker, 2008)'
_computing_data_reduction        'Bruker SAINT 8.32B'
_computing_molecular_graphics    'ATOMS 5.1 (Dowty, 1999)'
_computing_publication_material  'Bruker SHELXTL'
_computing_structure_refinement  'Bruker SHELXTL'
_computing_structure_solution    'Bruker SHELXTL'
_diffrn_ambient_temperature      296(2)
_diffrn_measured_fraction_theta_full 1.000
_diffrn_measured_fraction_theta_max 1.000
_diffrn_measurement_device_type  'Bruker PLATFORM/SMART APEX II CCD'
_diffrn_measurement_method       '\w scans'
_diffrn_radiation_type           MoK\a
_diffrn_radiation_wavelength     0.71073
_diffrn_reflns_av_R_equivalents  0.1022
_diffrn_reflns_av_unetI/netI     0.0454
_diffrn_reflns_Laue_measured_fraction_full 1.000
_diffrn_reflns_Laue_measured_fraction_max 1.000
_diffrn_reflns_limit_h_max       6
_diffrn_reflns_limit_h_min       -6
_diffrn_reflns_limit_k_max       6
_diffrn_reflns_limit_k_min       -6
_diffrn_reflns_limit_l_max       20
_diffrn_reflns_limit_l_min       -20
_diffrn_reflns_number            2589
_diffrn_reflns_point_group_measured_fraction_full 1.000
_diffrn_reflns_point_group_measured_fraction_max 1.000
_diffrn_reflns_theta_full        25.242
_diffrn_reflns_theta_max         32.656
_diffrn_reflns_theta_min         1.507
_diffrn_source                   'fine-focus sealed tube'
_exptl_absorpt_coefficient_mu    34.845
_exptl_absorpt_correction_T_max  0.4586
_exptl_absorpt_correction_T_min  0.1954
_exptl_absorpt_correction_type   numerical
_exptl_absorpt_process_details   'Bruker SHELXTL 6.12 (Sheldrick, 2001)'
_exptl_crystal_colour            black
_exptl_crystal_density_diffrn    6.091
_exptl_crystal_description       irregular
_exptl_crystal_F_000             322
_exptl_crystal_size_max          0.073
_exptl_crystal_size_mid          0.063
_exptl_crystal_size_min          0.028
_refine_diff_density_max         5.675
_refine_diff_density_min         -4.595
_refine_diff_density_rms         0.690
_refine_ls_extinction_method     none
_refine_ls_goodness_of_fit_ref   1.236
_refine_ls_hydrogen_treatment    undef
_refine_ls_matrix_type           full
_refine_ls_number_parameters     22
_refine_ls_number_reflns         342
_refine_ls_number_restraints     0
_refine_ls_restrained_S_all      1.236
_refine_ls_R_factor_all          0.0755
_refine_ls_R_factor_gt           0.0667
_refine_ls_shift/su_max          0.002
_refine_ls_shift/su_mean         0.001
_refine_ls_structure_factor_coef Fsqd
_refine_ls_weighting_details
'w=1/[\s^2^(Fo^2^)+20.3443P] where P=(Fo^2^+2Fc^2^)/3'
_refine_ls_weighting_scheme      calc
_refine_ls_wR_factor_gt          0.1398
_refine_ls_wR_factor_ref         0.1436
_reflns_Friedel_coverage         0.000
_reflns_number_gt                304
_reflns_number_total             342
_reflns_threshold_expression     'I > 2\s(I)'
_cod_data_source_file            ic501053v_si_003.cif
_cod_data_source_block           Nd(Mn,Zn)4As4
_cod_depositor_comments
'Adding full bibliography for 4340510--4340524.cif.'
_cod_original_cell_volume        199.45(18)
_cod_database_code               4340522
#BEGIN Tags that were not found in dictionaries:
_shelx_space_group_comment
;
The symmetry employed for this shelxl refinement is uniquely defined
by the following loop, which should always be used as a source of
symmetry information in preference to the above space-group names.
They are only intended as comments.
;
_shelx_estimated_absorpt_t_min   0.185
_shelx_estimated_absorpt_t_max   0.442
_shelxl_version_number           2013-4
_shelx_res_file
;
TITL Nd1.3Mn1.0Zn3.04As4 P-3m1 lsf final refinement
CELL 0.71073   4.1283   4.1283  13.5130  90.000  90.000 120.000
ZERR    1.00   0.0017   0.0017   0.0055   0.000   0.000   0.000
LATT  1
SYMM -Y, X-Y, Z
SYMM -X+Y, -X, Z
SYMM Y, X, -Z
SYMM X-Y, -Y, -Z
SYMM -X, -X+Y, -Z
SFAC MN ZN AS ND
UNIT 0.95 3.05 4 1.25
TEMP 23
SIZE 0.028 0.063 0.073

L.S. 4
ACTA

WGHT    0.000000   20.344299
FVAR       0.13956   0.52398
ND1   4    0.000000    0.000000    0.500000     0.02075    0.05274    0.05274 =
         0.02783    0.00000    0.00000    0.02637
ND2   4    0.000000    0.000000    0.000000    10.08333    0.01280    0.01280 =
         0.01393    0.00000    0.00000    0.00640
ZN1   2    0.333333    0.666667    0.333888    20.16667    0.01228    0.01228 =
         0.03495    0.00000    0.00000    0.00614
ZN2   2    0.333333    0.666667    0.802022    10.16667    0.01766    0.01766 =
         0.01190    0.00000    0.00000    0.00883
MN    1    0.333333    0.666667    0.409736   -20.16667    0.02049    0.02049 =
         0.05305    0.00000    0.00000    0.01025
AS1   3    0.333333    0.666667    0.129207    10.16667    0.00964    0.00964 =
         0.00815    0.00000    0.00000    0.00482
AS2   3    0.333333    0.666667    0.617557    10.16667    0.01774    0.01774 =
         0.01042    0.00000    0.00000    0.00887
HKLF 4

REM  Nd1.3Mn1.0Zn3.04As4 P-3m1 lsf final refinement
REM R1 =  0.0667 for     304 Fo > 4sig(Fo)  and  0.0755 for all     342 data
REM     22 parameters refined using      0 restraints

END

WGHT      0.0000     21.0980

REM Highest difference peak  5.675,  deepest hole -4.595,  1-sigma level  0.690
Q1    1   0.2456  0.4912  0.6237  10.50000  0.05    5.67
Q2    1   0.2443  0.4886  0.7895  10.50000  0.05    3.34
Q3    1   0.4125  0.5875  0.3278  10.50000  0.05    2.34
Q4    1   0.3333  0.6667 -0.0268  10.16667  0.05    1.79
Q5    1   0.0962  0.1924  0.7038  10.50000  0.05    1.72
Q6    1   0.1034  0.2068  0.7699  10.50000  0.05    1.64
Q7    1   0.0000  0.0000  0.3949  10.16667  0.05    1.57
Q8    1   0.1124  0.2247  0.6209  10.50000  0.05    1.48
Q9    1   0.0989  0.1979  0.1913  10.50000  0.05    1.48
Q10   1   0.4724  0.5276  0.4719  10.50000  0.05    1.42
Q11   1  -0.1044 -0.2089  0.4827  10.50000  0.05    1.35
Q12   1   0.0928  0.1857  0.3429  10.50000  0.05    1.31
Q13   1   0.1820  0.8180  0.2425  10.50000  0.05    1.18
Q14   1   0.0000  0.0000  0.1073  10.16667  0.05    1.15
Q15   1   0.2344  0.7656  0.7185  10.50000  0.05    1.13
Q16   1   0.4245  0.5755  0.0235  10.50000  0.05    1.13
Q17   1   0.0910  0.1821  0.0682  10.50000  0.05    1.10
Q18   1   0.1864  0.5932  0.2001  10.50000  0.05    1.10
Q19   1   0.4213  0.5787  0.2462  10.50000  0.05    1.10
Q20   1   0.2778  0.7222  0.8994  10.50000  0.05    1.07
;
_shelx_res_checksum              12986
_shelx_hkl_file
;
   1  -1 -20    6.20    3.04
  -1   0 -20    4.65    2.82
   0   0 -20    0.60    1.46
  -1   1 -20   14.20    3.94
   1  -2 -19    0.14    2.42
  -1  -1 -19   -0.06    1.14
   0  -1 -19   11.52    2.81
   1  -1 -19    6.65    2.28
   2  -1 -19    0.17    2.52
  -2   0 -19   11.03    4.21
  -1   0 -19    6.88    2.13
   0   0 -19    0.32    1.31
   1   0 -19   10.28    2.58
  -2   1 -19    1.67    1.62
  -1   1 -19   10.69    2.54
   0   1 -19    7.60    3.47
   1   1 -19    0.30    2.40
  -1   2 -19    0.58    2.36
   0  -2 -18    1.13    1.60
   1  -2 -18    4.67    2.08
   2  -2 -18   33.18    7.05
  -1  -1 -18    4.83    1.62
   0  -1 -18   50.14    4.73
   1  -1 -18    0.97    1.52
   2  -1 -18    3.43    2.97
  -2   0 -18   31.81    3.21
  -1   0 -18    0.55    1.29
   0   0 -18    4.93    1.94
   1   0 -18   55.08    4.80
   2   0 -18   -0.91    2.04
  -2   1 -18    3.13    1.43
  -1   1 -18   53.09    4.61
   0   1 -18    0.99    1.39
   1   1 -18    1.95    2.33
  -2   2 -18   -0.41    1.27
  -1   2 -18    3.38    2.52
   0   2 -18   38.75    6.11
   0  -3 -17    0.26    1.95
   1  -3 -17   21.28    6.23
   2  -3 -17    4.93    3.95
  -1  -2 -17   16.81    3.16
   0  -2 -17    5.00    1.96
   1  -2 -17    1.15    1.52
   2  -2 -17   21.43    5.67
   3  -2 -17    5.96    3.79
  -2  -1 -17    1.70    1.54
  -1  -1 -17    1.50    1.12
   0  -1 -17   26.72    3.83
   1  -1 -17    8.13    2.41
   2  -1 -17    2.25    2.58
   3  -1 -17    7.77    3.92
  -3   0 -17   -0.86    2.37
  -2   0 -17   18.27    2.58
  -1   0 -17    9.54    1.91
   0   0 -17    2.93    1.64
   1   0 -17   20.62    3.29
   2   0 -17    9.63    3.79
  -3   1 -17    3.46    1.85
  -2   1 -17    1.83    1.17
  -1   1 -17   19.09    3.12
   0   1 -17   14.97    2.76
   1   1 -17    1.03    2.11
   2   1 -17    5.29    3.12
  -3   2 -17   14.71    3.14
  -2   2 -17   10.74    2.62
  -1   2 -17   -0.59    2.13
   0   2 -17    8.54    3.60
   1   2 -17    4.42    2.75
  -2   3 -17    7.00    3.75
  -1   3 -17   10.33    3.99
   0  -3 -16   35.93    6.67
   1  -3 -16    0.40    2.69
   2  -3 -16    4.91    3.76
   3  -3 -16   37.11    7.99
  -1  -2 -16    0.66    1.44
   0  -2 -16    7.08    1.82
   1  -2 -16   67.02    5.52
   2  -2 -16    0.29    2.27
   3  -2 -16    2.15    3.08
  -2  -1 -16    2.80    1.74
  -1  -1 -16   61.72    4.21
   0  -1 -16    3.82    1.75
   1  -1 -16    7.06    2.24
   2  -1 -16   72.66    8.32
   3  -1 -16    0.57    2.28
  -3   0 -16   26.44    4.14
  -2   0 -16    1.38    1.13
  -1   0 -16    6.20    1.56
   0   0 -16   90.21    5.84
   1   0 -16    3.10    1.69
   2   0 -16    3.11    2.55
  -3   1 -16    4.27    1.60
  -2   1 -16   67.09    4.27
  -1   1 -16    2.45    1.49
   0   1 -16    3.54    1.58
   1   1 -16   85.24    8.02
   2   1 -16    0.55    2.09
  -3   2 -16    1.09    1.58
  -2   2 -16    4.35    1.94
  -1   2 -16   73.58    8.04
   0   2 -16    1.44    2.06
   1   2 -16    1.57    2.22
  -3   3 -16   44.10    4.80
  -2   3 -16   -0.43    2.43
  -1   3 -16    1.86    2.71
   2  -4 -15   38.62    8.06
  -1  -3 -15    2.16    1.85
   0  -3 -15   50.35    7.33
   1  -3 -15    1.57    2.90
   2  -3 -15    4.13    3.45
   3  -3 -15   43.55    7.33
   4  -3 -15    1.00    2.97
  -2  -2 -15   33.19    7.36
  -1  -2 -15    1.02    1.29
   0  -2 -15    5.98    1.72
   1  -2 -15   68.96    5.43
   2  -2 -15    1.20    2.42
   3  -2 -15    1.18    2.54
   4  -2 -15   27.77    6.19
  -3  -1 -15   -0.33    1.59
  -2  -1 -15    4.97    1.96
  -1  -1 -15   71.53    4.27
   0  -1 -15    3.08    1.30
   1  -1 -15    9.98    2.42
   2  -1 -15   67.32    7.82
   3  -1 -15    2.33    2.48
  -3   0 -15   44.47    4.78
  -2   0 -15    2.00    1.20
  -1   0 -15    9.34    1.80
   0   0 -15   86.76    5.51
   1   0 -15    4.31    1.70
   2   0 -15    3.83    2.67
  -4   1 -15   -0.50    2.15
  -3   1 -15    3.24    1.50
  -2   1 -15   69.40    4.23
  -1   1 -15    1.50    1.33
   0   1 -15   10.18    2.21
   1   1 -15   60.18    6.93
   2   1 -15    1.43    2.29
  -4   2 -15   32.27    6.24
  -3   2 -15    2.36    1.67
  -2   2 -15    3.65    1.68
  -1   2 -15   59.68    4.74
   0   2 -15    1.03    2.12
   1   2 -15    1.69    2.05
  -4   3 -15    2.41    1.84
  -3   3 -15   39.15    4.32
  -2   3 -15    3.47    2.95
  -1   3 -15    2.00    2.54
   0   3 -15   29.15    5.99
  -2   4 -15   25.78    6.27
  -1   4 -15   -0.30    2.50
   2  -4 -14    4.76    3.46
   3  -4 -14    0.94    2.88
  -1  -3 -14   12.02    2.88
   0  -3 -14    2.72    1.69
   1  -3 -14    2.19    2.64
   2  -3 -14   39.89    7.63
   3  -3 -14    3.85    3.22
   4  -3 -14    1.03    2.69
  -2  -2 -14    2.59    1.62
  -1  -2 -14   -0.09    0.97
   0  -2 -14   49.42    3.77
   1  -2 -14    6.98    2.13
   2  -2 -14    0.34    1.91
   3  -2 -14   34.61    5.98
   4  -2 -14    3.50    2.72
  -3  -1 -14    0.68    1.36
  -2  -1 -14   29.97    3.90
  -1  -1 -14    7.15    1.60
   0  -1 -14    0.14    0.82
   1  -1 -14   67.70    5.10
   2  -1 -14    9.63    3.72
   3  -1 -14    0.51    2.00
  -3   0 -14    3.21    1.79
  -2   0 -14    0.04    0.82
  -1   0 -14   67.54    3.98
   0   0 -14    9.98    2.11
   1   0 -14    0.58    1.04
   2   0 -14   52.78    6.55
  -4   1 -14    0.22    1.34
  -3   1 -14   38.10    3.20
  -2   1 -14    7.15    1.66
  -1   1 -14   -0.21    0.69
   0   1 -14   72.19    4.69
   1   1 -14    8.89    3.26
   2   1 -14    0.02    1.82
  -4   2 -14    2.63    2.13
  -3   2 -14    0.35    1.22
  -2   2 -14   51.84    4.43
  -1   2 -14    7.94    2.02
   0   2 -14   -0.23    1.72
   1   2 -14   44.67    5.73
  -4   3 -14   23.07    3.54
  -3   3 -14    4.21    1.84
  -2   3 -14    0.07    2.06
  -1   3 -14   44.99    6.37
   0   3 -14    5.24    2.85
  -3   4 -14   23.83    5.42
  -2   4 -14    3.96    3.09
  -1   4 -14   -0.07    2.51
   0  -4 -13   -0.38    2.21
   2  -4 -13    1.76    2.76
   3  -4 -13    2.89    3.05
   4  -4 -13    7.20    3.78
  -1  -3 -13   10.48    2.34
   0  -3 -13    1.34    1.41
   1  -3 -13    4.81    2.90
   2  -3 -13   17.29    4.80
   3  -3 -13    1.57    2.50
   4  -3 -13    3.92    1.95
  -2  -2 -13    0.62    1.08
  -1  -2 -13    1.14    1.22
   0  -2 -13   17.33    2.39
   1  -2 -13    1.62    1.32
   2  -2 -13    8.28    3.26
   3  -2 -13    9.66    3.64
   4  -2 -13    0.26    1.49
  -3  -1 -13    1.56    1.29
  -2  -1 -13   12.16    2.60
  -1  -1 -13    2.18    1.04
   0  -1 -13   11.74    1.93
   1  -1 -13   15.71    2.72
   2  -1 -13    1.39    1.98
   3  -1 -13   10.34    2.38
   4  -1 -13    4.62    3.07
  -4   0 -13    8.21    2.42
  -3   0 -13    0.45    1.25
  -2   0 -13    6.94    1.58
  -1   0 -13   17.49    2.20
   0   0 -13    1.25    1.02
   1   0 -13   19.78    2.92
   2   0 -13    9.20    3.35
   3   0 -13    1.12    2.04
   4   0 -13    5.59    3.80
  -4   1 -13    2.01    1.40
  -3   1 -13   15.25    2.28
  -2   1 -13    2.42    1.13
  -1   1 -13   17.74    2.21
   0   1 -13   13.80    2.29
   1   1 -13    0.15    0.94
   2   1 -13   16.03    3.89
   3   1 -13    5.10    3.54
  -4   2 -13    0.91    1.26
  -3   2 -13    8.03    2.07
  -2   2 -13   14.07    2.63
  -1   2 -13    1.58    1.18
   1   2 -13    7.26    2.82
  -4   3 -13    7.03    2.02
  -3   3 -13    1.84    1.31
  -2   3 -13   14.27    3.96
  -1   3 -13    9.51    3.55
   0   3 -13    0.93    2.19
  -4   4 -13    5.27    2.64
  -3   4 -13    5.41    2.90
  -2   4 -13   -0.31    2.03
  -1   4 -13    9.80    3.79
   0  -4 -12   19.62    6.27
   2  -4 -12    1.95    2.31
   3  -4 -12   24.92    5.88
   4  -4 -12   21.46    3.77
  -2  -3 -12   12.35    4.61
   0  -3 -12    1.04    1.34
   2  -3 -12   51.05    6.25
   3  -3 -12    5.64    1.95
   4  -3 -12   18.80    3.59
   5  -3 -12   17.93    5.45
  -2  -2 -12    1.78    1.21
  -1  -2 -12   36.23    3.19
   0  -2 -12   64.89    5.15
   1  -2 -12    9.22    2.20
   2  -2 -12   34.36    4.89
   3  -2 -12   57.26    4.55
   4  -2 -12    4.40    1.94
   5  -2 -12   10.94    4.78
  -3  -1 -12   16.58    2.68
  -2  -1 -12   38.43    3.46
  -1  -1 -12    9.16    1.70
   0  -1 -12   56.27    3.36
   1  -1 -12  102.47    6.26
   2  -1 -12   16.40    2.65
   3  -1 -12   21.33    3.30
   4  -1 -12   50.83    7.49
  -4   0 -12   19.46    3.32
  -3   0 -12    4.77    1.78
  -2   0 -12   39.70    2.85
  -1   0 -12   97.39    4.91
   0   0 -12   21.12    2.62
   1   0 -12   43.44    3.64
   2   0 -12   95.33    5.87
   3   0 -12    3.56    2.55
   4   0 -12   11.28    4.58
  -4   1 -12   20.70    3.21
  -3   1 -12   47.36    3.28
  -2   1 -12   12.86    1.96
  -1   1 -12   46.29    3.06
   0   1 -12  122.72    9.18
   1   1 -12   18.87    2.54
   2   1 -12   22.94    5.32
   3   1 -12   51.57    8.09
  -4   2 -12    4.79    1.76
  -3   2 -12   26.53    2.89
  -2   2 -12   90.24    5.40
  -1   2 -12   17.35    2.67
   0   2 -12   22.71    4.89
   2   2 -12    8.60    4.08
   3   2 -12    6.42    4.18
  -4   3 -12   40.16    3.80
  -3   3 -12    7.55    1.85
  -2   3 -12   24.73    4.99
   0   3 -12    8.10    3.16
   2   3 -12   31.65    7.11
  -4   4 -12    7.11    2.01
  -3   4 -12   46.60    5.93
  -2   4 -12    6.13    2.93
  -1   4 -12    9.85    3.72
  -2   5 -12   23.46    5.43
   0  -4 -11    0.95    1.86
   2  -4 -11    0.84    1.94
   3  -4 -11   -0.50    1.20
   4  -4 -11   33.68    4.54
  -2  -3 -11   -0.21    1.61
   0  -3 -11    0.82    1.04
   1  -3 -11    0.73    1.55
   2  -3 -11   74.10    5.14
   3  -3 -11   -0.48    0.99
   4  -3 -11    0.17    1.25
   5  -3 -11   18.89    3.56
  -3  -2 -11   36.42    4.76
  -2  -2 -11    0.36    0.96
  -1  -2 -11    0.78    0.95
   0  -2 -11  104.13    9.10
   1  -2 -11    1.05    1.09
   2  -2 -11    1.45    1.06
   3  -2 -11   63.19    5.02
   4  -2 -11    1.29    1.40
   5  -2 -11    1.13    2.71
  -3  -1 -11    0.32    0.89
  -2  -1 -11   81.11    4.71
  -1  -1 -11    0.50    0.75
   0  -1 -11    2.84    1.04
   1  -1 -11  124.27    6.67
   2  -1 -11    1.29    1.00
   3  -1 -11    0.25    0.95
   4  -1 -11   34.52    7.18
  -4   0 -11   38.86    3.47
  -3   0 -11    0.37    0.75
  -2   0 -11    1.32    0.82
  -1   0 -11  126.52    5.32
   0   0 -11    0.59    0.68
   1   0 -11    2.70    0.92
   2   0 -11   73.74    5.29
   3   0 -11    1.57    2.39
   4   0 -11    3.37    3.12
  -5   1 -11    0.70    1.86
  -4   1 -11    0.28    0.95
  -3   1 -11   73.39    3.93
  -2   1 -11    0.17    0.66
  -1   1 -11    2.50    0.97
   0   1 -11  102.24    5.82
   1   1 -11    2.68    1.27
   2   1 -11   -0.07    1.10
   3   1 -11   29.24    7.13
  -5   2 -11   26.40    5.06
  -4   2 -11   -0.05    0.93
  -3   2 -11   -0.40    0.63
  -2   2 -11   81.33    4.01
  -1   2 -11    2.19    1.23
   0   2 -11    0.50    0.96
   2   2 -11    1.59    2.66
   3   2 -11   -1.18    2.77
  -5   3 -11   -0.37    1.55
  -4   3 -11   35.54    3.32
  -3   3 -11    1.14    1.10
  -2   3 -11    0.45    0.92
   0   3 -11    4.20    1.67
   1   3 -11    2.53    2.70
  -4   4 -11   -0.41    1.04
  -3   4 -11   26.29    4.57
  -2   4 -11    3.46    2.23
  -1   4 -11    0.78    2.09
  -3   5 -11    0.74    2.14
   3  -5 -10    3.21    3.12
   4  -5 -10   12.74    4.71
  -1  -4 -10   20.49    6.90
   0  -4 -10   43.14    7.26
   1  -4 -10    8.90    2.99
   2  -4 -10   33.00    3.61
   3  -4 -10   45.52    4.55
   4  -4 -10    9.44    2.52
   5  -4 -10   10.39    4.61
  -2  -3 -10   32.14    7.97
  -1  -3 -10   10.76    4.71
   0  -3 -10   47.18    3.94
   1  -3 -10   90.72    4.86
   2  -3 -10   25.73    3.00
   3  -3 -10   46.01    4.12
   4  -3 -10   57.14    4.90
   5  -3 -10    7.10    3.86
  -3  -2 -10    4.43    2.10
  -2  -2 -10   33.19    3.06
  -1  -2 -10   79.44    4.92
   0  -2 -10   38.30    2.91
   1  -2 -10   84.58    4.03
   2  -2 -10  121.69    6.69
   3  -2 -10   29.57    3.18
   4  -2 -10   29.12    3.60
   5  -2 -10   38.36    8.56
  -4  -1 -10   15.75    3.50
  -3  -1 -10   47.08    3.76
  -2  -1 -10   25.67    2.56
  -1  -1 -10   83.91    3.78
   0  -1 -10  167.20    6.93
   1  -1 -10   63.46    3.37
   2  -1 -10   76.81    5.03
   3  -1 -10   99.40    5.98
   4  -1 -10   22.49    5.92
   5  -1 -10   14.87    5.58
  -4   0 -10    7.76    1.81
  -3   0 -10   43.05    3.15
  -2   0 -10  113.11    5.19
  -1   0 -10   63.18    3.51
   0   0 -10  130.12    5.38
   1   0 -10  175.89    6.66
   2   0 -10   49.74    3.90
   3   0 -10   40.82    6.48
   4   0 -10   59.42    8.88
  -5   1 -10   15.44    2.77
  -4   1 -10   45.98    4.03
  -3   1 -10   31.77    2.40
  -2   1 -10   83.97    3.99
  -1   1 -10  184.32    6.84
   0   1 -10   69.95    3.25
   1   1 -10   79.91    5.08
   2   1 -10  108.46    6.41
   3   1 -10   23.18    6.46
   4   1 -10   10.97    4.90
  -5   2 -10    7.65    2.74
  -4   2 -10   30.73    2.51
  -3   2 -10   95.38    4.41
  -2   2 -10   45.87    2.70
  -1   2 -10   78.04    4.66
   0   2 -10  133.22    6.75
   1   2 -10   32.62    3.27
   2   2 -10   28.59    6.13
   3   2 -10   55.82    8.96
  -5   3 -10   35.66    4.90
  -4   3 -10   16.00    2.53
  -3   3 -10   38.93    3.22
  -2   3 -10  102.19    5.22
  -1   3 -10   27.78    2.81
   0   3 -10   37.19    3.81
   1   3 -10   66.01    8.07
   2   3 -10    5.10    3.64
  -5   4 -10   13.34    2.54
  -4   4 -10   43.30    3.72
  -3   4 -10   17.88    4.02
  -2   4 -10   26.42    4.39
  -1   4 -10   65.40    4.79
   0   4 -10   11.65    4.23
   1   4 -10    8.13    4.30
  -4   5 -10    9.18    3.41
  -3   5 -10   35.85    5.58
  -2   5 -10    5.65    2.88
  -1   5 -10    4.84    3.33
   2  -5  -9   23.99    6.37
   3  -5  -9    1.98    2.71
   4  -5  -9    4.96    3.45
  -1  -4  -9    6.08    2.62
   1  -4  -9    6.32    1.61
   2  -4  -9    8.55    2.17
   3  -4  -9   35.12    3.89
   4  -4  -9    0.62    2.23
   5  -4  -9    0.32    2.55
  -2  -3  -9   30.21    4.89
  -1  -3  -9    6.15    2.21
   0  -3  -9    8.55    1.25
   2  -3  -9    4.90    1.61
   3  -3  -9   10.82    2.39
   4  -3  -9   28.70    3.44
   5  -3  -9   -0.18    2.33
  -3  -2  -9    4.87    2.31
  -2  -2  -9    7.46    1.69
   0  -2  -9    8.18    1.33
   1  -2  -9   15.86    1.76
   2  -2  -9   58.39    4.06
   3  -2  -9    1.13    1.03
   4  -2  -9    8.83    2.23
   5  -2  -9   17.37    6.11
  -4  -1  -9    5.87    2.19
  -3  -1  -9   37.46    3.03
  -2  -1  -9    4.92    1.34
  -1  -1  -9   16.15    1.81
   0  -1  -9   86.21    4.01
   1  -1  -9    5.62    1.07
   2  -1  -9   17.38    2.47
   3  -1  -9   39.55    3.45
   4  -1  -9    0.58    2.07
   5  -1  -9    5.93    3.81
  -4   0  -9    1.87    1.03
  -3   0  -9   10.83    1.76
  -2   0  -9   64.77    2.91
  -1   0  -9    6.58    1.25
   0   0  -9   19.43    1.78
   1   0  -9   68.89    3.48
   2   0  -9    1.00    0.98
   3   0  -9   12.63    4.31
   4   0  -9   22.81    6.74
  -5   1  -9    4.35    1.66
  -4   1  -9   32.60    2.74
  -3   1  -9    2.89    0.93
  -2   1  -9   17.33    1.69
  -1   1  -9   75.99    3.61
   0   1  -9    3.04    0.81
   1   1  -9   16.93    2.42
   2   1  -9   37.17    3.59
   3   1  -9   -0.48    1.95
   4   1  -9    7.94    4.79
  -5   2  -9    1.25    1.13
  -4   2  -9    9.89    1.56
  -3   2  -9   44.20    2.58
  -2   2  -9    1.99    0.77
  -1   2  -9   16.43    1.59
   0   2  -9   50.32    3.90
   1   2  -9    0.76    1.11
   2   2  -9   11.27    4.04
   3   2  -9   16.77    6.08
  -5   3  -9   20.52    4.11
  -4   3  -9    0.18    0.85
  -3   3  -9   10.83    1.92
  -2   3  -9   35.26    2.85
  -1   3  -9    0.23    0.77
   0   3  -9   12.28    2.42
   2   3  -9    0.76    2.55
  -5   4  -9    6.07    1.83
  -4   4  -9   17.37    2.58
  -3   4  -9    0.02    1.22
  -2   4  -9   11.02    2.25
   0   4  -9    0.54    2.35
   1   4  -9    6.88    3.85
  -4   5  -9    3.67    2.47
  -3   5  -9   10.06    3.24
  -2   5  -9    0.53    1.45
  -1   5  -9    6.78    3.88
   2  -5  -8    0.61    2.51
   3  -5  -8    1.39    2.93
   4  -5  -8   18.69    5.64
  -1  -4  -8   22.79    4.40
   0  -4  -8    0.75    1.50
   1  -4  -8    8.40    2.41
   2  -4  -8   42.09    3.96
   3  -4  -8    3.37    1.62
   4  -4  -8    2.52    2.73
   5  -4  -8   12.68    5.30
  -2  -3  -8    2.13    1.58
  -1  -3  -8    7.10    2.12
   0  -3  -8   51.71    2.95
   1  -3  -8    5.67    1.03
   2  -3  -8    7.63    1.79
   3  -3  -8   52.56    4.34
   4  -3  -8    3.70    1.57
   5  -3  -8    2.98    2.89
  -3  -2  -8    5.26    2.11
  -2  -2  -8   39.14    4.00
  -1  -2  -8    5.35    1.67
   1  -2  -8   95.46    3.83
   2  -2  -8   10.34    1.90
   3  -2  -8    2.71    1.19
   4  -2  -8   44.76    3.91
   5  -2  -8   -0.68    2.51
  -4  -1  -8   22.63    3.89
  -3  -1  -8    2.02    1.01
  -2  -1  -8    7.58    1.45
  -1  -1  -8   94.50    3.94
   0  -1  -8   17.09    1.84
   1  -1  -8    7.58    1.17
   2  -1  -8  101.57    5.56
   3  -1  -8    9.58    1.93
   4  -1  -8    0.28    2.46
   5  -1  -8   35.54    8.84
  -4   0  -8    2.90    1.17
  -3   0  -8   51.96    3.29
  -2   0  -8    9.36    1.24
  -1   0  -8    9.56    1.37
   0   0  -8  144.69    5.49
   1   0  -8   21.10    1.62
   2   0  -8    1.57    1.02
   3   0  -8   64.31    7.83
   4   0  -8    4.01    3.47
  -5   1  -8   17.89    2.90
  -4   1  -8    2.25    0.98
  -3   1  -8    5.37    0.99
  -2   1  -8   98.90    4.11
  -1   1  -8   20.33    1.60
   0   1  -8    4.34    0.89
   1   1  -8  104.81    5.57
   2   1  -8   10.92    2.07
   3   1  -8    0.76    2.53
   4   1  -8   19.89    6.83
  -5   2  -8    2.47    1.30
  -4   2  -8   41.64    2.67
  -3   2  -8    8.38    1.29
  -2   2  -8    2.76    0.81
  -1   2  -8  104.03    4.00
   0   2  -8   17.36    2.23
   1   2  -8    0.35    0.99
   2   2  -8   51.38    6.92
   3   2  -8    4.84    4.18
  -5   3  -8    1.94    1.17
  -4   3  -8    1.59    0.97
  -3   3  -8   57.89    3.65
  -2   3  -8   12.77    1.77
  -1   3  -8    0.77    0.84
   0   3  -8   65.35    4.44
   1   3  -8    8.24    3.43
   2   3  -8   -0.07    2.32
  -5   4  -8   21.06    2.96
  -4   4  -8    4.59    1.49
  -3   4  -8    2.10    1.70
  -2   4  -8   46.99    3.81
  -1   4  -8    8.08    1.86
   0   4  -8    0.18    2.10
   1   4  -8   22.78    6.12
  -4   5  -8   24.02    4.90
  -3   5  -8    3.28    2.25
  -2   5  -8    0.54    1.38
  -1   5  -8   22.88    5.47
   1  -5  -7   10.54    4.21
   2  -5  -7    5.56    3.96
   3  -5  -7    0.91    2.53
   4  -5  -7    5.66    3.78
   5  -5  -7    0.66    3.15
   0  -4  -7   10.03    2.82
   2  -4  -7   11.53    4.04
   3  -4  -7    5.53    3.11
   4  -4  -7    6.07    3.40
   5  -4  -7    3.91    3.44
  -2  -3  -7    6.68    1.90
   0  -3  -7   14.11    1.61
   1  -3  -7   14.61    1.53
   2  -3  -7   10.97    1.96
   3  -3  -7    7.49    1.88
   4  -3  -7    6.43    1.94
   5  -3  -7    6.77    3.83
  -3  -2  -7    2.56    2.00
  -2  -2  -7   11.78    1.83
  -1  -2  -7   12.90    1.57
   1  -2  -7    9.18    1.12
   2  -2  -7   15.99    2.03
   3  -2  -7   17.70    2.25
   4  -2  -7    2.83    1.24
   5  -2  -7    4.31    3.68
  -4  -1  -7    9.27    2.49
  -3  -1  -7   10.98    1.76
  -2  -1  -7    7.67    2.90
   0  -1  -7   22.42    1.41
   1  -1  -7   29.02    1.79
   2  -1  -7    3.45    1.12
   3  -1  -7    9.87    1.88
   4  -1  -7   23.29    6.43
   5  -1  -7    1.05    2.77
  -5   0  -7    5.51    2.72
  -4   0  -7    4.46    1.34
  -3   0  -7   11.18    1.66
  -2   0  -7   16.01    1.29
  -1   0  -7   24.53    1.75
   0   0  -7    4.64    0.96
   1   0  -7   17.84    1.47
   2   0  -7   39.82    3.04
   4   0  -7    3.74    3.55
   5   0  -7   12.06    5.75
  -5   1  -7    5.47    1.64
  -4   1  -7    8.65    1.52
  -3   1  -7   12.76    1.36
  -2   1  -7    5.48    0.91
  -1   1  -7   18.81    1.43
   1   1  -7    1.18    0.86
   2   1  -7    7.42    1.64
   3   1  -7   31.83    7.09
   4   1  -7    2.00    3.37
  -5   2  -7    4.70    1.57
  -4   2  -7    5.63    1.11
  -3   2  -7   10.90    1.35
  -2   2  -7   29.80    1.89
  -1   2  -7    1.90    0.60
   0   2  -7   10.89    1.82
   2   2  -7    1.86    2.37
   3   2  -7    1.46    2.98
  -5   3  -7    3.44    1.34
  -4   3  -7   14.45    2.26
  -2   3  -7    7.90    1.43
   1   3  -7    2.66    2.63
  -5   4  -7    2.87    1.36
  -4   4  -7    2.56    1.20
  -3   4  -7   21.68    3.62
  -2   4  -7    2.28    1.69
  -1   4  -7    3.58    1.44
   1   4  -7    0.96    2.43
  -5   5  -7    7.52    2.12
  -4   5  -7    1.23    1.98
  -3   5  -7    2.38    2.32
  -2   5  -7   16.09    2.81
  -1   5  -7    0.44    2.04
   0   5  -7   -0.59    2.55
   0  -5  -6   39.08    6.60
   1  -5  -6    9.60    4.00
   2  -5  -6    3.11    3.22
   3  -5  -6   60.62    9.23
   4  -5  -6    6.85    4.01
   5  -5  -6    3.89    3.42
  -1  -4  -6   10.50    4.13
   0  -4  -6    9.10    3.56
   1  -4  -6  118.30    5.79
   2  -4  -6   18.92    4.84
   3  -4  -6   12.75    4.42
   4  -4  -6   79.56   10.22
   5  -4  -6   11.38    5.08
  -2  -3  -6    5.89    1.99
  -1  -3  -6  113.67    5.59
   1  -3  -6   37.41    2.68
   2  -3  -6  197.13    9.16
   3  -3  -6   28.21    2.89
   4  -3  -6   20.29    5.59
   5  -3  -6   68.27   10.04
  -3  -2  -6   68.55    5.20
  -2  -2  -6   12.35    1.98
  -1  -2  -6   33.40    2.69
   0  -2  -6  302.16    7.14
   1  -2  -6   53.49    2.95
   2  -2  -6   58.72    3.85
   3  -2  -6  190.71    9.13
   4  -2  -6   33.59    7.20
   5  -2  -6    9.65    4.85
  -4  -1  -6    7.65    2.20
  -3  -1  -6   17.40    2.04
  -2  -1  -6  204.00    7.33
  -1  -1  -6   49.69    2.39
   0  -1  -6   86.73    3.05
   1  -1  -6  426.11   12.97
   2  -1  -6   68.53    3.73
   3  -1  -6   50.05    3.43
   4  -1  -6  103.09   11.54
   5  -1  -6   24.05    7.52
  -5   0  -6    7.05    3.07
  -4   0  -6   85.66    4.33
  -3   0  -6   20.26    1.82
  -2   0  -6   55.75    2.49
  -1   0  -6  420.40   11.62
   0   0  -6  105.54    4.10
   1   0  -6  100.72    3.77
   2   0  -6  273.83   12.06
   3   0  -6   54.99    7.37
   4   0  -6   28.14    7.26
   5   0  -6   40.30   10.25
  -5   1  -6   10.33    2.17
  -4   1  -6   20.08    1.91
  -3   1  -6  198.00    6.00
  -2   1  -6   59.61    2.59
  -1   1  -6   99.74    3.63
   0   1  -6  416.36   12.87
   2   1  -6   50.06    6.10
   3   1  -6   88.80   11.11
   4   1  -6   31.41    8.92
  -5   2  -6   58.85    4.18
  -4   2  -6   20.01    1.68
  -3   2  -6   45.40    2.41
  -2   2  -6  274.13    9.01
   0   2  -6   69.84    3.74
   1   2  -6  181.04    9.05
   3   2  -6   22.16    7.22
  -5   3  -6   11.05    2.08
  -4   3  -6   98.07    5.34
  -3   3  -6   40.71    2.95
  -2   3  -6   50.90    2.91
  -1   3  -6  174.22    8.60
   1   3  -6   34.28    5.83
   2   3  -6   50.20    8.33
  -5   4  -6   15.92    2.57
  -4   4  -6   20.23    2.62
  -3   4  -6   95.19    5.28
  -1   4  -6   24.40    2.67
   0   4  -6   65.46    8.59
  -5   5  -6   29.79    3.42
  -4   5  -6   15.57    3.82
  -3   5  -6   12.95    3.61
  -2   5  -6   50.07    4.67
   0   5  -6    4.76    3.54
   3  -6  -5    2.68    4.03
   0  -5  -5   11.35    5.02
   1  -5  -5   22.39    5.53
   2  -5  -5    2.53    3.26
   3  -5  -5   10.33    4.53
   4  -5  -5    9.55    4.78
   5  -5  -5   -0.04    2.90
  -1  -4  -5   23.48    4.15
   0  -4  -5    6.43    2.08
   1  -4  -5   16.42    2.40
   2  -4  -5   51.03    4.25
   3  -4  -5    4.14    3.09
   4  -4  -5   10.72    4.38
   5  -4  -5   11.64    5.36
  -3  -3  -5   13.31    3.02
  -2  -3  -5    4.07    1.52
  -1  -3  -5   16.23    2.73
   0  -3  -5   61.80    3.46
   1  -3  -5    9.82    2.58
   2  -3  -5   13.55    2.15
   3  -3  -5   58.70    4.36
   4  -3  -5    3.54    3.15
   5  -3  -5    7.58    4.57
   6  -3  -5    4.47    4.64
  -3  -2  -5   13.03    2.81
  -2  -2  -5   48.90    3.20
  -1  -2  -5    9.05    2.21
   0  -2  -5   15.65    1.13
   1  -2  -5  128.34    4.26
   2  -2  -5    9.23    1.68
   3  -2  -5   10.50    1.90
   4  -2  -5   40.46    7.19
   5  -2  -5   -0.16    2.62
  -4  -1  -5   24.50    3.02
  -3  -1  -5    5.14    1.15
  -2  -1  -5   13.77    1.38
  -1  -1  -5  126.42    4.17
   1  -1  -5   12.09    1.03
   2  -1  -5  114.94    5.67
   3  -1  -5    1.26    0.80
   4  -1  -5    9.59    4.25
   5  -1  -5   18.80    7.22
  -5   0  -5    0.29    1.58
  -4   0  -5   13.66    1.92
  -3   0  -5   65.97    3.27
  -2   0  -5   11.00    1.10
  -1   0  -5   13.41    0.96
   0   0  -5  195.35    6.52
   1   0  -5    6.92    1.29
   2   0  -5    9.31    1.42
   3   0  -5   50.07    7.39
   4   0  -5    1.75    2.72
   5   0  -5    4.02    4.02
  -5   1  -5   22.18    2.63
  -4   1  -5    1.84    0.76
  -3   1  -5   11.64    1.04
  -2   1  -5  124.05    3.79
  -1   1  -5    8.96    0.87
   0   1  -5   10.33    1.01
   1   1  -5   96.58    5.62
   2   1  -5    0.81    1.62
   3   1  -5   10.03    4.38
   4   1  -5   11.67    6.10
  -5   2  -5    9.14    1.96
  -4   2  -5   44.67    2.50
  -3   2  -5    2.50    0.68
  -2   2  -5   10.20    1.02
  -1   2  -5  101.98    4.77
   1   2  -5    7.44    2.92
   2   2  -5   32.16    6.87
   3   2  -5    2.82    3.10
  -6   3  -5   11.65    3.69
  -5   3  -5   -0.11    0.85
  -4   3  -5    8.65    1.69
  -3   3  -5   50.27    3.21
  -2   3  -5    0.69    1.03
  -1   3  -5   10.77    1.85
   1   3  -5    1.26    2.14
   2   3  -5   11.17    5.06
  -5   4  -5   17.19    2.53
  -4   4  -5    1.66    1.00
  -3   4  -5    6.98    1.46
  -1   4  -5    1.93    1.17
   0   4  -5    7.76    3.32
  -5   5  -5    4.55    1.68
  -4   5  -5    6.91    2.81
  -3   5  -5    3.24    2.15
  -2   5  -5    4.74    1.87
   0   5  -5    2.07    2.69
  -3   6  -5    3.59    2.15
   3  -6  -4    0.51    3.47
   0  -5  -4    6.16    3.69
   1  -5  -4    1.05    2.26
   2  -5  -4   63.27   10.02
   3  -5  -4    3.44    3.34
   4  -5  -4    3.04    2.97
  -1  -4  -4    2.01    1.60
   0  -4  -4   86.05    6.03
   1  -4  -4   13.21    2.18
   3  -4  -4   85.41   10.61
   4  -4  -4    8.75    4.11
   5  -4  -4    6.30    4.26
  -3  -3  -4    0.36    1.10
  -2  -3  -4   61.80    4.19
  -1  -3  -4   15.05    2.83
   1  -3  -4  213.22    8.49
   2  -3  -4   27.83    2.68
   3  -3  -4   18.10    4.73
   4  -3  -4  101.73   11.58
   5  -3  -4    7.93    5.01
   6  -3  -4    4.56    4.59
  -4  -2  -4   28.60    5.14
  -3  -2  -4    7.80    1.76
  -2  -2  -4   12.05    2.60
  -1  -2  -4  203.97    8.26
   0  -2  -4   40.12    1.64
   1  -2  -4   45.10    1.95
   2  -2  -4  303.68   12.78
   3  -2  -4   31.43    2.66
   4  -2  -4   22.54    6.12
   5  -2  -4   74.24   10.96
  -4  -1  -4    3.20    1.46
  -3  -1  -4  108.98    4.91
  -2  -1  -4   23.98    1.63
  -1  -1  -4   40.33    2.96
   0  -1  -4  497.89   11.35
   1  -1  -4   69.72    3.70
   2  -1  -4   53.12    3.16
   3  -1  -4  212.95    9.53
   4  -1  -4   26.62    6.65
   5  -1  -4    6.47    4.86
  -5   0  -4   41.93    5.81
  -4   0  -4   13.31    1.84
  -3   0  -4   18.13    1.58
  -2   0  -4  297.35   10.06
  -1   0  -4   71.30    2.51
   0   0  -4   98.83    3.64
   1   0  -4  519.68   19.35
   2   0  -4   52.43    2.93
   3   0  -4   42.87    6.66
   4   0  -4   88.58   11.11
   5   0  -4   11.53    6.28
  -5   1  -4    5.34    1.51
  -4   1  -4  108.58    4.83
  -3   1  -4   29.11    1.55
  -2   1  -4   53.31    2.03
  -1   1  -4  524.50   14.83
   0   1  -4   80.09    3.57
   1   1  -4   61.79    3.42
   2   1  -4  218.78   15.50
   3   1  -4   29.68    7.02
   4   1  -4   10.09    5.64
  -6   2  -4   29.00    3.23
  -5   2  -4   10.25    1.99
  -4   2  -4   17.99    1.57
  -3   2  -4  207.06    6.98
  -2   2  -4   49.20    2.07
  -1   2  -4   59.58    2.59
   0   2  -4  312.96   12.27
   1   2  -4   42.37    5.45
   2   2  -4   31.19    6.51
   3   2  -4   69.96    9.69
  -6   3  -4    4.10    2.25
  -5   3  -4   64.04    4.20
  -4   3  -4   16.88    1.93
  -3   3  -4   29.74    2.35
  -2   3  -4  210.53    8.31
   0   3  -4   30.85    4.32
   1   3  -4  119.71   11.36
   2   3  -4   23.02    7.16
   3   3  -4    2.37    3.45
  -5   4  -4    6.51    1.65
  -4   4  -4   81.26    4.69
  -3   4  -4   20.92    2.09
  -2   4  -4   23.87    3.35
  -1   4  -4  112.23    6.23
   0   4  -4   21.42    5.39
   1   4  -4    7.96    4.37
  -5   5  -4    9.07    2.13
  -4   5  -4    7.71    2.69
  -3   5  -4   66.81    6.71
  -2   5  -4   14.06    2.66
  -1   5  -4    8.86    3.74
   0   5  -4   26.31    6.83
  -3   6  -4    2.12    2.26
  -2   6  -4   23.22    6.65
   2  -6  -3    1.30    3.98
   3  -6  -3    0.98    3.68
   4  -6  -3    4.53    3.96
   0  -5  -3   11.79    4.80
   1  -5  -3    1.82    2.34
   2  -5  -3   24.34    3.64
   3  -5  -3    1.72    2.83
   4  -5  -3    0.87    2.74
   5  -5  -3    6.87    3.96
  -2  -4  -3    6.79    2.74
  -1  -4  -3    2.46    1.75
   0  -4  -3   30.69    3.34
   1  -4  -3   10.40    3.92
   2  -4  -3    2.05    1.17
   3  -4  -3   34.76    6.32
   4  -4  -3    4.22    3.36
   5  -4  -3    1.56    3.02
   6  -4  -3    5.91    4.46
  -3  -3  -3    0.60    1.18
  -2  -3  -3   24.14    2.51
   0  -3  -3    3.49    1.19
   1  -3  -3   63.78    3.25
   2  -3  -3    8.33    2.89
   3  -3  -3    2.18    1.95
   4  -3  -3   33.81    7.23
   5  -3  -3    0.25    2.35
   6  -3  -3    0.74    3.20
  -4  -2  -3   16.02    3.26
  -3  -2  -3    8.48    1.80
  -2  -2  -3    1.96    0.91
  -1  -2  -3   63.72    3.17
   1  -2  -3    2.19    1.43
   2  -2  -3   77.73    4.27
   3  -2  -3    2.91    2.12
   4  -2  -3    5.02    3.37
   5  -2  -3   15.11    5.89
   6  -2  -3    0.43    3.55
  -4  -1  -3   -0.25    0.87
  -3  -1  -3   39.72    2.18
  -2  -1  -3    9.12    1.09
   0  -1  -3  130.39    3.15
   1  -1  -3    2.84    0.73
   2  -1  -3    4.78    0.96
   3  -1  -3   54.17    3.51
   4  -1  -3    3.25    3.02
   5  -1  -3    4.82    4.76
  -5   0  -3   22.24    5.18
  -4   0  -3    4.93    1.08
  -3   0  -3    0.00    0.38
  -2   0  -3   82.21    3.72
  -1   0  -3    3.83    0.49
   0   0  -3    4.62    0.71
   1   0  -3  120.79    5.45
   2   0  -3    0.42    1.36
   3   0  -3    7.01    3.34
   4   0  -3   24.75    7.17
   5   0  -3   -0.30    3.14
  -5   1  -3    0.30    0.78
  -4   1  -3   35.77    2.31
  -3   1  -3    4.77    0.72
  -2   1  -3    3.79    0.55
  -1   1  -3  123.00    3.98
   2   1  -3   48.26    6.25
   3   1  -3   -0.31    2.00
   4   1  -3    3.70    3.98
  -6   2  -3   11.14    2.29
  -5   2  -3    2.57    1.11
  -4   2  -3    1.35    0.63
  -3   2  -3   55.78    2.55
  -2   2  -3    1.47    0.59
   0   2  -3   70.56    3.90
   3   2  -3   17.51    6.41
   4   2  -3    0.39    3.47
  -6   3  -3    1.23    1.71
  -5   3  -3   23.75    2.40
  -4   3  -3    2.65    1.02
  -3   3  -3    6.76    1.34
  -2   3  -3   48.91    2.96
  -1   3  -3    1.81    1.11
   1   3  -3   25.90    5.98
   2   3  -3    1.03    2.31
   3   3  -3    4.65    3.97
  -6   4  -3    0.71    1.61
  -5   4  -3    2.95    1.34
  -4   4  -3   23.42    2.47
  -3   4  -3    0.98    0.73
  -1   4  -3   24.72    2.84
   1   4  -3    7.49    4.51
   2   4  -3    7.57    5.07
  -5   5  -3    1.43    1.19
  -4   5  -3    4.10    2.39
  -3   5  -3   17.71    3.96
  -2   5  -3    0.20    1.56
  -1   5  -3    8.80    3.68
   0   5  -3    9.90    4.23
  -4   6  -3    1.06    2.29
  -3   6  -3    2.04    2.32
  -2   6  -3    5.52    3.42
   2  -6  -2    3.18    3.89
   3  -6  -2    0.83    3.35
   4  -6  -2    6.25    4.21
   0  -5  -2    0.16    2.27
   1  -5  -2   13.00    4.53
   2  -5  -2   33.56    4.23
   3  -5  -2    0.90    2.39
   4  -5  -2    3.12    3.12
   5  -5  -2   10.18    4.54
  -2  -4  -2    0.24    1.52
  -1  -4  -2   12.24    3.07
   0  -4  -2   42.98    4.14
   2  -4  -2   12.87    4.17
   3  -4  -2   54.62    7.90
   4  -4  -2    1.17    2.16
   5  -4  -2   -0.18    2.43
   6  -4  -2   13.88    5.67
  -3  -3  -2    5.61    1.79
  -2  -3  -2   30.85    2.89
   1  -3  -2  105.26    4.94
   2  -3  -2   10.49    1.65
   3  -3  -2    5.66    2.93
   4  -3  -2   63.26    8.46
   5  -3  -2    2.82    3.07
   6  -3  -2    1.41    3.41
  -4  -2  -2   17.22    3.38
  -3  -2  -2    0.52    0.84
  -1  -2  -2   93.19    4.63
   2  -2  -2  138.24   11.23
   3  -2  -2   13.71    3.76
   4  -2  -2    0.76    2.24
   5  -2  -2   41.85    9.42
   6  -2  -2    3.78    4.21
  -4  -1  -2    6.42    1.94
  -3  -1  -2   53.28    2.76
  -2  -1  -2    6.85    0.93
   0  -1  -2  252.72    5.90
   1  -1  -2   39.03    2.24
   2  -1  -2    2.58    1.62
   3  -1  -2  111.82   10.70
   4  -1  -2   14.02    5.17
   5  -1  -2   -0.50    2.41
  -5   0  -2   22.17    4.87
  -4   0  -2    1.72    0.77
  -3   0  -2    8.21    1.19
  -2   0  -2  144.96    5.33
  -1   0  -2   38.78    1.67
   0   0  -2    6.23    0.61
   1   0  -2  263.59   10.14
   2   0  -2   37.13    5.12
   4   0  -2   53.47    8.83
   5   0  -2    2.56    4.07
  -5   1  -2    4.28    1.45
  -4   1  -2   57.89    3.16
  -3   1  -2   10.32    0.92
  -2   1  -2    5.12    0.57
  -1   1  -2  265.48    7.71
   2   1  -2  118.65   10.04
   3   1  -2   16.83    5.39
   4   1  -2    1.10    3.02
  -6   2  -2   17.50    2.82
  -5   2  -2    2.22    1.14
  -4   2  -2    2.09    0.71
  -3   2  -2  102.67    3.99
  -2   2  -2   32.07    1.57
   0   2  -2  165.40    6.63
   2   2  -2    4.94    2.99
   3   2  -2   47.52    8.09
   4   2  -2    1.95    3.74
  -6   3  -2    0.52    1.54
  -5   3  -2   34.12    3.02
  -4   3  -2    7.73    1.54
  -2   3  -2  118.63    4.91
   0   3  -2    3.40    1.07
   2   3  -2    9.81    4.55
   3   3  -2    0.34    3.05
  -6   4  -2    1.37    1.73
  -5   4  -2    0.98    1.06
  -4   4  -2   50.73    3.51
  -3   4  -2   10.16    1.67
  -2   4  -2    2.89    1.61
  -1   4  -2   76.57    5.58
   0   4  -2   12.22    4.17
   1   4  -2    1.43    2.55
   2   4  -2   19.28    6.93
  -5   5  -2    2.89    1.46
  -4   5  -2    3.52    2.22
  -3   5  -2   49.81    5.61
  -2   5  -2    8.00    2.63
  -1   5  -2   -0.03    1.90
   0   5  -2   26.60    7.29
  -4   6  -2    1.87    2.31
  -3   6  -2    1.00    2.08
  -2   6  -2   17.49    5.47
   2  -6  -1    4.90    3.57
   3  -6  -1    4.41    3.90
   4  -6  -1    2.45    3.12
   0  -5  -1    2.34    2.80
   2  -5  -1    8.23    4.15
   3  -5  -1    3.17    2.90
   4  -5  -1    2.52    2.83
   5  -5  -1    6.40    3.70
  -2  -4  -1    4.41    2.39
   1  -4  -1   14.07    1.93
   2  -4  -1    4.04    2.56
   3  -4  -1   10.29    3.87
   4  -4  -1    6.93    3.57
   5  -4  -1    5.00    3.55
   6  -4  -1    2.65    3.15
  -3  -3  -1   -0.27    1.25
  -2  -3  -1   15.52    4.42
  -1  -3  -1   15.82    1.78
   2  -3  -1   30.79    2.68
   3  -3  -1    6.51    2.67
   4  -3  -1    7.19    3.58
   5  -3  -1    3.77    2.88
   6  -3  -1    5.62    4.22
  -4  -2  -1    9.58    2.59
  -3  -2  -1   10.70    1.98
   2  -2  -1   23.45    3.66
   3  -2  -1   24.24    4.47
   4  -2  -1   10.30    3.91
   5  -2  -1    2.41    3.13
   6  -2  -1    4.06    3.92
  -4  -1  -1    1.17    1.71
  -3  -1  -1   17.68    1.83
  -2  -1  -1   28.52    1.97
   1  -1  -1   57.79    2.73
   2  -1  -1   10.48    2.71
   3  -1  -1    9.17    3.26
   4  -1  -1   10.82    4.68
   5  -1  -1   14.06    6.15
  -5   0  -1   10.18    3.40
  -4   0  -1   14.73    1.86
  -3   0  -1    0.89    0.82
  -2   0  -1   25.57    1.27
  -1   0  -1   61.22    1.84
   0   0  -1    2.61    0.31
   1   0  -1   20.77    2.84
   2   0  -1   21.94    4.24
   3   0  -1   23.25    6.00
   4   0  -1    5.10    3.88
   5   0  -1    0.81    3.43
  -5   1  -1    1.25    1.00
  -4   1  -1   15.10    1.57
  -3   1  -1   28.19    1.40
  -2   1  -1    5.49    0.69
  -1   1  -1   22.67    0.98
   0   1  -1   48.79    2.52
   2   1  -1    5.38    2.53
   3   1  -1    9.17    4.48
   4   1  -1   22.72    4.49
  -6   2  -1    7.22    1.94
  -5   2  -1    8.54    1.74
  -4   2  -1    5.24    1.00
  -3   2  -1   14.28    1.39
  -2   2  -1   27.39    1.36
   3   2  -1    0.49    2.34
   4   2  -1    3.20    4.36
  -6   3  -1    1.90    1.81
  -5   3  -1    6.89    1.62
  -4   3  -1   12.11    1.85
  -3   3  -1   15.42    1.85
  -2   3  -1    6.38    1.10
   3   3  -1   13.64    5.78
  -6   4  -1    3.67    2.11
  -5   4  -1    9.05    1.95
  -4   4  -1    4.67    1.32
  -3   4  -1    5.67    1.32
   2   4  -1    0.53    2.70
  -5   5  -1    2.03    1.37
  -4   5  -1   13.39    2.23
  -3   5  -1    1.42    1.69
  -4   6  -1    1.69    2.50
  -3   6  -1   12.04    3.56
  -2   6  -1   -0.07    2.15
   2  -6   0    0.40    2.49
   4  -6   0   -0.64    2.48
   0  -5   0   -0.26    2.04
   1  -5   0  126.81   11.66
   2  -5   0    2.70    1.78
   3  -5   0    0.56    2.31
   4  -5   0  118.15   12.87
   5  -5   0    2.00    2.66
  -2  -4   0    0.64    1.55
  -1  -4   0  122.97    8.35
   0  -4   0    2.65    1.42
   1  -4   0    5.16    1.76
   2  -4   0  320.77   15.43
   3  -4   0   10.60    2.31
   4  -4   0    5.08    3.11
   5  -4   0  121.99   13.20
   6  -4   0    0.59    2.72
  -3  -3   0   73.32    6.39
  -2  -3   0    3.23    1.22
  -1  -3   0    3.95    2.22
   0  -3   0  423.94   19.46
   1  -3   0   18.80    1.68
   2  -3   0   14.69    2.05
   3  -3   0  432.98   27.96
   4  -3   0    6.81    3.29
   5  -3   0    1.85    2.55
   6  -3   0   76.96   10.88
  -4  -2   0    1.49    1.23
  -3  -2   0    1.77    0.97
  -2  -2   0  303.16   11.90
  -1  -2   0   17.55    1.47
   0  -2   0   21.25    1.32
   1  -2   0  976.35   38.75
   2  -2   0   25.16    3.70
   3  -2   0   18.68    4.21
   4  -2   0  317.13   22.84
   5  -2   0    3.36    3.12
   6  -2   0    0.92    3.03
  -4  -1   0  128.55    7.79
  -3  -1   0   10.17    1.69
  -2  -1   0   14.66    1.71
  -1  -1   0  970.59   31.65
   0  -1   0   51.58    1.81
   1  -1   0   50.83    4.25
   2  -1   0  838.34   53.63
   3  -1   0   18.06    4.31
   4  -1   0   14.26    4.74
   5  -1   0  127.61   14.18
  -5   0   0    1.63    1.59
  -4   0   0    3.75    1.02
  -3   0   0  419.73   14.03
  -2   0   0   29.38    1.33
  -1   0   0   51.22    2.09
   2   0   0   26.67    4.49
   3   0   0  441.96   20.11
   4   0   0    5.76    2.45
   5   0   0    0.23    3.36
  -5   1   0  133.01    6.94
  -4   1   0   10.17    1.41
  -3   1   0   18.21    1.09
  -2   1   0  975.12   24.71
  -1   1   0   50.02    1.77
   1   1   0  959.59   53.88
   2   1   0   14.64    3.79
   3   1   0    9.86    4.34
   4   1   0  133.40    9.42
  -6   2   0    2.14    1.28
  -5   2   0    3.20    1.26
  -4   2   0  323.77   10.31
  -3   2   0   17.57    1.28
  -2   2   0   27.57    1.36
  -1   2   0  982.80   32.47
   0   2   0   23.16    1.80
   1   2   0   19.01    3.98
   2   2   0  311.89   22.78
   3   2   0    1.73    2.71
   4   2   0    0.05    2.05
  -6   3   0   78.62    7.13
  -5   3   0    4.70    1.13
  -4   3   0    9.69    1.35
  -3   3   0  449.36   13.33
  -2   3   0   16.02    1.53
  -1   3   0   17.21    2.30
   0   3   0  437.74   17.27
   1   3   0    2.87    2.53
   2   3   0    3.30    3.32
   3   3   0   68.58   11.09
  -6   4   0    2.55    2.25
  -5   4   0  133.33    6.71
  -4   4   0    4.07    1.26
  -3   4   0    7.98    1.55
  -2   4   0  326.40   18.17
  -1   4   0    4.76    1.77
   0   4   0    3.67    2.66
   1   4   0  124.95   13.65
   2   4   0   -0.21    2.54
  -5   5   0    2.22    1.40
  -4   5   0  121.26    8.89
  -3   5   0    2.08    1.83
  -2   5   0    3.64    2.08
  -1   5   0  109.35   12.06
   0   5   0   -1.01    1.77
  -4   6   0    0.21    2.08
  -3   6   0   69.94    7.59
  -2   6   0    1.27    2.55
   2  -6   1   -1.25    2.08
   4  -6   1    1.17    3.27
   0  -5   1    1.70    2.46
   2  -5   1    3.00    1.94
   3  -5   1    2.10    1.56
   4  -5   1   12.70    4.42
   5  -5   1    1.73    2.76
  -2  -4   1    0.68    1.54
   3  -4   1    7.26    1.98
   4  -4   1    4.85    2.83
   5  -4   1    6.34    3.46
   6  -4   1    2.00    3.20
   2  -3   1    7.01    1.44
   3  -3   1   15.17    2.14
   4  -3   1   11.80    3.89
   5  -3   1    4.28    2.91
   6  -3   1    3.02    3.30
  -4  -2   1    1.48    1.43
  -3  -2   1    2.39    1.45
   2  -2   1   30.06    2.32
   3  -2   1   14.80    3.70
   4  -2   1    4.76    2.80
   5  -2   1    8.74    4.08
   6  -2   1    3.75    3.69
  -4  -1   1   19.23    3.08
  -3  -1   1    6.54    1.41
  -2  -1   1    7.35    1.20
   0  -1   1   45.89    1.87
   1  -1   1   23.99    1.67
   2  -1   1    5.47    1.43
   3  -1   1   27.07    3.22
   4  -1   1   15.03    4.77
   5  -1   1    1.39    2.79
  -5   0   1    3.60    2.40
  -4   0   1    3.48    0.94
  -3   0   1   19.98    1.35
  -2   0   1   24.68    1.27
  -1   0   1   21.89    0.92
   1   0   1   60.78    4.69
   2   0   1   25.86    2.39
   3   0   1    1.02    1.24
   4   0   1   18.14    3.81
   5   0   1    5.08    4.10
  -5   1   1   13.99    2.32
  -4   1   1   10.20    1.42
  -3   1   1   10.16    0.84
  -2   1   1    9.00    0.64
  -1   1   1   55.12    2.32
   2   1   1   31.36    5.06
   3   1   1   25.77    6.31
   4   1   1    1.11    1.91
  -6   2   1    1.94    1.30
  -5   2   1    4.59    1.43
  -4   2   1   11.52    1.25
  -3   2   1   23.44    1.57
  -2   2   1   21.45    1.24
   3   2   1   10.43    4.56
   4   2   1    9.03    3.22
  -6   3   1   10.06    3.15
  -5   3   1    9.23    1.49
  -4   3   1   12.59    1.54
  -3   3   1    3.55    1.44
  -2   3   1   27.39    1.95
   1   3   1   18.69    5.03
   2   3   1   16.36    5.91
   3   3   1   -0.74    2.88
  -6   4   1    2.35    2.04
  -5   4   1    5.02    1.47
  -4   4   1   12.33    2.08
  -3   4   1   17.09    2.22
  -1   4   1   15.49    2.98
   0   4   1   12.01    4.07
   2   4   1    4.44    3.75
  -5   5   1    7.11    1.93
  -4   5   1    1.43    1.09
  -3   5   1    9.68    3.16
  -2   5   1   12.29    3.10
   0   5   1    3.05    2.91
  -4   6   1    6.08    2.83
  -3   6   1    2.66    2.26
  -2   6   1    0.78    2.77
   3  -6   2    1.03    2.83
   4  -6   2    1.33    3.09
   0  -5   2   32.05    5.87
   1  -5   2    0.64    1.83
   2  -5   2    6.77    2.31
   3  -5   2   45.11    4.50
   4  -5   2   -0.10    2.11
   5  -5   2    1.52    3.02
  -2  -4   2   25.25    4.40
  -1  -4   2    0.34    1.25
   1  -4   2   73.62    6.09
   2  -4   2    2.44    1.43
   3  -4   2   12.03    2.35
   4  -4   2   46.12    6.90
   5  -4   2    0.42    2.12
   6  -4   2    0.15    2.61
  -3  -3   2    0.00    1.32
  -2  -3   2   10.58    2.66
  -1  -3   2   74.42    4.89
   0  -3   2    3.92    1.39
   2  -3   2  116.83    6.25
   3  -3   2    2.31    1.73
   4  -3   2    6.73    2.96
   5  -3   2   40.51    6.70
   6  -3   2    1.91    2.77
  -4  -2   2    4.26    1.88
  -3  -2   2   47.07    3.27
  -2  -2   2    1.97    0.89
   0  -2   2  163.32    7.42
   1  -2   2    2.37    0.78
   2  -2   2   30.73    2.59
   3  -2   2  107.15    6.36
   4  -2   2    3.02    2.12
   5  -2   2    2.86    2.63
   6  -2   2   13.63    4.96
  -4  -1   2    0.85    1.12
  -3  -1   2   14.86    1.96
  -2  -1   2  120.37    4.83
   1  -1   2  266.56    9.10
   2  -1   2    5.81    1.46
   3  -1   2   10.90    2.50
   4  -1   2   56.99    5.57
   5  -1   2    5.68    3.91
  -5   0   2    5.99    2.78
  -4   0   2   54.60    2.97
  -2   0   2   35.58    1.55
  -1   0   2  265.23    8.15
   0   0   2    6.06    0.88
   1   0   2   38.33    2.52
   2   0   2  141.55    7.71
   3   0   2   10.40    2.49
   4   0   2    1.90    1.83
   5   0   2   25.31    7.62
  -5   1   2    0.39    0.87
  -4   1   2    9.79    1.44
  -3   1   2  112.56    3.59
  -2   1   2    2.57    0.79
  -1   1   2   41.82    1.93
   2   1   2    6.36    2.71
   3   1   2   54.52    8.10
   4   1   2    3.73    2.32
  -6   2   2    2.16    1.32
  -5   2   2   40.77    3.37
  -4   2   2    0.63    0.53
  -3   2   2   13.65    1.42
  -2   2   2  144.40    4.98
   1   2   2   92.42    9.15
   2   2   2   14.81    4.73
   3   2   2    0.63    2.37
   4   2   2   12.60    3.71
  -6   3   2    0.24    1.06
  -5   3   2    2.20    0.87
  -4   3   2   60.75    3.02
  -3   3   2    6.01    0.93
  -2   3   2    6.62    1.12
  -1   3   2  102.33    4.58
   0   3   2   14.36    3.71
   1   3   2    3.09    2.49
   2   3   2   34.28    8.53
   3   3   2    4.43    4.25
  -6   4   2   15.06    3.62
  -5   4   2    1.60    1.20
  -4   4   2    2.50    1.09
  -3   4   2   59.04    3.67
   0   4   2   36.58    6.38
   1   4   2    5.79    3.87
   2   4   2    0.29    2.87
  -5   5   2   19.48    2.86
  -4   5   2    5.20    1.60
  -3   5   2    0.88    1.63
  -2   5   2   29.36    4.31
  -1   5   2    7.87    3.72
   0   5   2    1.07    2.21
  -4   6   2   14.83    3.83
  -3   6   2    3.90    2.47
  -2   6   2    1.61    2.87
   2  -6   3    7.50    3.90
   3  -6   3    3.27    2.18
   4  -6   3    0.02    2.92
   0  -5   3    8.28    2.67
   1  -5   3    7.07    3.55
   2  -5   3    1.21    1.47
   3  -5   3   17.99    3.45
   4  -5   3    1.52    2.33
   5  -5   3    0.81    2.46
  -2  -4   3    7.55    2.58
  -1  -4   3    5.70    3.28
   0  -4   3    0.80    1.56
   1  -4   3   27.69    2.73
   3  -4   3    1.75    1.08
   4  -4   3   19.80    4.83
   5  -4   3    3.95    2.69
   6  -4   3    3.33    3.13
  -3  -3   3    5.18    2.27
  -2  -3   3    0.19    1.04
  -1  -3   3   26.78    3.14
   2  -3   3   50.81    3.91
   3  -3   3    7.68    1.85
   4  -3   3    2.89    1.47
   5  -3   3   19.88    5.18
   6  -3   3    0.50    2.47
  -4  -2   3    0.48    1.17
  -3  -2   3   18.79    2.58
   0  -2   3   67.27    3.22
   2  -2   3    1.86    0.87
   3  -2   3   56.35    4.22
   4  -2   3    2.37    1.52
   5  -2   3    2.25    2.53
  -4  -1   3    5.48    1.85
  -3  -1   3    0.80    0.95
  -2  -1   3   48.28    2.88
   1  -1   3  124.87    4.85
   2  -1   3    3.25    1.15
   3  -1   3    5.67    1.81
   4  -1   3   37.43    4.38
   5  -1   3    0.26    1.99
  -5   0   3    0.15    1.44
  -4   0   3   23.39    2.66
  -3   0   3   10.30    1.32
  -2   0   3    0.36    0.33
  -1   0   3  115.25    5.01
   0   0   3    5.28    1.13
   1   0   3    4.18    0.96
   2   0   3   89.33    5.01
   3   0   3    0.96    1.25
   4   0   3    8.65    2.81
   5   0   3   19.94    6.31
  -5   1   3    4.88    1.51
  -4   1   3    0.94    0.84
  -3   1   3   54.40    2.22
  -2   1   3    4.63    0.61
  -1   1   3    2.54    0.50
   1   1   3    0.92    1.08
   2   1   3    6.83    2.74
   3   1   3   35.88    3.85
   4   1   3    1.89    2.07
  -6   2   3    1.09    1.19
  -5   2   3   20.54    2.49
  -4   2   3    3.32    0.86
  -3   2   3    2.64    0.67
  -2   2   3   79.30    3.60
  -1   2   3    2.89    1.13
   1   2   3   65.27    6.81
   2   2   3    0.18    1.96
   3   2   3    8.80    4.10
   4   2   3   12.23    3.72
  -6   3   3    0.80    1.12
  -5   3   3    1.79    0.87
  -4   3   3   33.21    2.19
  -3   3   3    0.97    0.49
  -2   3   3    7.62    0.93
  -1   3   3   62.31    2.92
   1   3   3    9.26    3.65
   2   3   3   29.49    7.15
   3   3   3   -0.55    2.74
  -6   4   3   13.77    2.69
  -5   4   3    0.64    0.99
  -4   4   3    4.66    1.36
  -3   4   3   36.00    2.70
  -2   4   3    1.81    0.80
   0   4   3   27.12    6.16
   1   4   3    2.17    3.00
   2   4   3    9.00    5.14
  -5   5   3   17.91    2.81
  -4   5   3   -0.34    0.88
  -3   5   3    8.83    2.81
  -2   5   3   24.11    3.63
  -1   5   3    4.58    3.36
   0   5   3    6.15    3.55
  -4   6   3   14.79    4.29
  -3   6   3    1.95    1.98
  -2   6   3    4.28    3.63
   2  -6   4   25.18    6.44
   3  -6   4    1.82    2.27
   4  -6   4    5.88    4.01
   0  -5   4   37.07    6.51
   1  -5   4    8.42    3.93
   2  -5   4   13.18    3.08
   3  -5   4   72.51    6.09
   4  -5   4    5.74    3.19
   5  -5   4    4.33    3.10
  -2  -4   4   34.82    6.89
  -1  -4   4    9.21    2.56
   0  -4   4   21.43    2.94
   1  -4   4  109.96    6.64
   2  -4   4   21.84    3.40
   3  -4   4   24.98    2.99
   4  -4   4   79.83    5.86
   5  -4   4    7.17    3.36
  -3  -3   4    1.78    1.73
  -2  -3   4   20.33    3.63
  -1  -3   4  120.92    7.09
   1  -3   4   39.30    3.11
   2  -3   4  216.23   10.38
   3  -3   4   30.90    3.16
   4  -3   4   19.17    2.88
   5  -3   4   64.59    8.14
  -4  -2   4    7.15    2.28
  -3  -2   4   64.94    4.13
  -2  -2   4   23.76    2.05
   0  -2   4  312.67   13.87
   1  -2   4   59.83    3.30
   2  -2   4   51.51    2.65
   3  -2   4  218.49   10.70
   4  -2   4   16.36    3.18
   5  -2   4    8.62    3.46
  -4  -1   4   11.95    2.53
  -3  -1   4   23.49    2.61
  -2  -1   4  211.92    8.09
  -1  -1   4   58.83    2.99
   0  -1   4   82.84    3.08
   1  -1   4  531.36   17.36
   2  -1   4   47.26    3.54
   3  -1   4   28.61    3.24
   4  -1   4  109.12    7.76
   5  -1   4    3.98    3.04
  -5   0   4   15.62    4.08
  -4   0   4   81.60    5.42
  -3   0   4   34.97    2.12
  -2   0   4   50.25    2.19
  -1   0   4  493.02   15.60
   0   0   4   94.28    5.19
   1   0   4   72.36    3.95
   2   0   4  308.21   13.95
   3   0   4   21.80    3.14
   4   0   4   12.30    3.15
  -5   1   4   11.12    2.15
  -4   1   4   20.31    3.33
  -3   1   4  209.37    7.37
  -2   1   4   57.32    2.37
  -1   1   4   74.87    4.00
   1   1   4   41.76    4.67
   2   1   4   24.06    4.18
   3   1   4  111.32    7.49
   4   1   4    3.84    2.50
  -6   2   4    5.46    1.83
  -5   2   4   65.64    4.51
  -4   2   4   20.23    1.64
  -3   2   4   31.46    2.21
  -2   2   4  304.19   11.65
  -1   2   4   45.21    4.56
   1   2   4  198.14   14.92
   2   2   4   12.34    4.02
   3   2   4    5.95    2.30
   4   2   4   20.93    6.04
  -6   3   4    3.89    1.57
  -5   3   4   11.52    1.65
  -4   3   4  106.41    4.52
  -3   3   4   20.67    1.54
  -2   3   4   28.48    1.73
  -1   3   4  206.76    8.16
   1   3   4   13.93    4.28
   2   3   4   62.17    8.64
   3   3   4    0.30    1.81
  -6   4   4   29.68    4.62
  -5   4   4    6.83    1.78
  -4   4   4   12.48    2.06
  -3   4   4  102.71    5.35
  -1   4   4   10.81    2.42
   0   4   4   75.23    9.05
   1   4   4    0.52    2.64
   2   4   4    2.94    3.48
  -5   5   4   40.30    3.72
  -4   5   4    2.75    1.35
  -3   5   4    8.22    2.77
  -2   5   4   61.65    5.95
  -1   5   4    1.95    2.49
   0   5   4    2.73    2.79
  -4   6   4   31.32    6.21
  -3   6   4    0.15    2.03
  -2   6   4    4.17    4.12
   3  -6   5    3.59    2.36
   0  -5   5    1.96    1.84
   2  -5   5    4.21    2.04
   3  -5   5    1.23    1.68
   4  -5   5    9.33    2.67
   5  -5   5    6.14    3.35
   0  -4   5    7.15    2.26
   1  -4   5    2.21    1.35
   2  -4   5   30.64    5.56
   3  -4   5    7.80    2.08
   4  -4   5    0.90    1.21
   5  -4   5   12.07    3.84
  -2  -3   5    7.65    2.37
  -1  -3   5    1.80    1.33
   1  -3   5    8.46    1.45
   2  -3   5    0.59    0.82
   3  -3   5   51.93    4.22
   4  -3   5    7.26    2.08
   5  -3   5    0.64    1.80
  -3  -2   5    2.11    1.18
  -2  -2   5   31.47    5.05
  -1  -2   5    9.73    1.43
   1  -2   5  107.15    4.87
   2  -2   5   10.01    1.42
   3  -2   5    3.42    1.15
   4  -2   5   42.97    4.37
  -4  -1   5   11.09    2.31
  -3  -1   5    8.61    1.66
  -2  -1   5    0.31    1.27
  -1  -1   5   98.59    4.62
   0  -1   5   10.63    1.00
   1  -1   5   10.57    1.11
   2  -1   5  125.75    5.18
   3  -1   5   15.27    2.64
   4  -1   5    3.51    1.71
  -5   0   5    6.22    2.88
  -4   0   5    1.07    1.00
  -3   0   5   47.64    2.73
  -2   0   5    9.71    1.07
  -1   0   5    7.65    1.26
   0   0   5  190.19    9.40
   1   0   5   14.06    2.55
   2   0   5   14.09    2.21
   3   0   5   67.36    5.05
   4   0   5   15.96    3.44
   5   0   5    2.73    4.21
  -5   1   5   13.80    2.38
  -4   1   5    9.13    1.70
  -3   1   5    1.21    0.72
  -2   1   5  114.02    4.33
  -1   1   5   12.47    1.52
   1   1   5  124.93    6.12
   2   1   5   14.69    2.17
   3   1   5    5.90    2.12
   4   1   5   24.26    6.50
  -5   2   5    0.08    0.85
  -4   2   5   38.73    2.40
  -3   2   5   11.50    1.65
  -2   2   5    9.49    1.33
  -1   2   5  129.41    8.92
   2   2   5   51.07    6.46
   3   2   5   13.38    3.15
  -6   3   5    9.14    2.24
  -5   3   5    7.46    1.44
  -4   3   5    1.09    0.67
  -3   3   5   59.05    2.95
  -2   3   5   12.57    1.48
   0   3   5   60.99    3.50
   1   3   5   13.59    4.15
   2   3   5    2.41    2.73
   3   3   5   12.14    5.01
  -5   4   5   20.63    2.92
  -4   4   5    9.96    1.92
  -3   4   5    5.18    1.33
  -2   4   5   41.66    2.85
  -1   4   5   13.76    2.73
   0   4   5    8.66    3.69
   1   4   5   24.14    6.40
  -5   5   5    0.51    1.15
  -4   5   5   20.03    2.93
  -3   5   5    8.68    2.77
  -2   5   5    3.54    1.92
  -1   5   5   21.20    5.89
   0   5   5   11.86    4.75
  -3   6   5   10.69    3.61
   0  -5   6    7.36    2.64
   2  -5   6   52.85    7.38
   3  -5   6   13.99    3.09
   4  -5   6   16.78    3.31
   0  -4   6   66.20    5.75
   1  -4   6   28.58    4.05
   3  -4   6   94.99    6.77
   4  -4   6   17.11    2.98
  -2  -3   6   49.77    5.00
  -1  -3   6   29.80    4.63
   1  -3   6  178.52    7.82
   2  -3   6   51.93    2.97
   3  -3   6   45.05    4.00
   4  -3   6  103.39    6.90
  -3  -2   6   19.81    3.21
  -1  -2   6  169.13    7.43
   0  -2   6   70.00    3.04
   2  -2   6  289.43   10.81
   3  -2   6   47.17    3.19
   4  -2   6   21.50    3.12
  -4  -1   6   23.98    3.31
  -3  -1   6   93.51    6.24
  -2  -1   6   53.28    2.88
   0  -1   6  424.84   14.57
   1  -1   6  100.38    5.90
   2  -1   6   60.20    3.19
   3  -1   6  199.05    9.99
   4  -1   6   22.46    6.35
   5  -1   6    7.12    4.69
  -5   0   6   30.86    5.40
  -4   0   6   20.72    2.61
  -3   0   6   49.73    2.67
  -2   0   6  268.85    9.53
  -1   0   6  101.11    5.05
   0   0   6   97.92    5.81
   1   0   6  418.65   26.91
   2   0   6   56.43    4.00
   3   0   6   23.17    3.16
   4   0   6   85.16    9.97
   5   0   6    3.06    4.47
  -5   1   6   20.11    2.88
  -4   1   6  102.79    5.67
  -3   1   6   47.26    2.50
  -2   1   6   66.65    2.76
  -1   1   6  419.29   18.07
   0   1   6   87.61    7.21
   1   1   6   49.28    3.58
   2   1   6  198.31    9.74
   3   1   6   18.40    3.44
   4   1   6    6.49    4.39
  -5   2   6   16.57    2.51
  -4   2   6   26.03    2.38
  -3   2   6  188.44    8.22
  -2   2   6   59.07    2.87
  -1   2   6   55.47    3.96
   2   2   6   12.81    2.63
   3   2   6   61.62    7.96
  -5   3   6   59.24    3.46
  -4   3   6   20.54    1.78
  -3   3   6   28.35    2.29
  -2   3   6  191.95    8.14
   1   3   6  117.20   10.23
   2   3   6    9.20    3.80
  -5   4   6   11.95    2.27
  -4   4   6   76.26    4.64
  -3   4   6   15.47    2.23
  -2   4   6   16.71    1.93
  -1   4   6  106.57    7.32
   0   4   6   10.62    3.86
  -5   5   6    4.44    1.84
  -4   5   6    7.11    1.76
  -3   5   6   61.75    6.14
  -2   5   6    5.25    2.22
   0   5   6   30.43    7.08
   0  -5   7    0.01    2.26
   1  -5   7    0.25    2.23
   2  -5   7   16.14    5.06
   3  -5   7    2.47    1.84
   4  -5   7    1.99    2.76
  -1  -4   7    1.45    1.47
   1  -4   7    3.29    1.56
   2  -4   7    1.35    1.21
   3  -4   7   23.16    3.42
   4  -4   7    3.58    2.86
  -1  -3   7    3.15    1.70
   2  -3   7    7.70    1.43
   4  -3   7   13.65    4.59
  -3  -2   7    2.03    1.42
   0  -2   7    9.93    1.47
   1  -2   7    1.31    0.72
   2  -2   7   32.64    2.46
   3  -2   7   13.80    2.05
   4  -2   7    6.11    4.03
   5  -2   7    2.32    3.92
  -4  -1   7    0.43    1.19
  -3  -1   7   22.84    2.72
  -2  -1   7    6.63    1.23
  -1  -1   7    1.17    0.75
   1  -1   7   20.77    2.82
   2  -1   7    7.83    2.15
   3  -1   7   17.19    5.02
   4  -1   7    7.91    4.17
   5  -1   7    5.58    4.52
  -5   0   7    8.34    3.44
  -4   0   7    3.74    1.50
  -2   0   7   37.23    2.09
  -1   0   7   17.14    1.92
   0   0   7    4.55    1.49
   1   0   7   21.91    2.59
   2   0   7   17.45    2.06
   3   0   7   12.67    4.47
   4   0   7    3.72    3.50
   5   0   7    4.07    4.34
  -5   1   7    1.23    1.85
  -4   1   7   19.17    2.40
  -3   1   7    9.69    1.34
  -2   1   7    3.33    0.78
  -1   1   7   27.10    2.59
   0   1   7   22.47    2.32
   2   1   7    7.28    2.96
   3   1   7   12.85    4.49
   4   1   7    7.07    4.24
  -5   2   7    3.36    1.39
  -4   2   7    2.44    1.03
  -3   2   7   18.23    1.89
  -2   2   7   14.83    1.43
  -1   2   7   10.78    2.11
   1   2   7   15.38    3.20
   2   2   7   13.83    3.99
   3   2   7    1.43    2.67
  -5   3   7    6.88    1.42
  -4   3   7    7.32    1.33
  -3   3   7    8.54    1.63
  -2   3   7    8.18    1.52
   0   3   7   13.08    3.36
   2   3   7    4.96    3.26
  -5   4   7    5.53    1.80
  -4   4   7    5.08    1.41
  -3   4   7    7.94    1.72
  -2   4   7   11.66    1.90
   0   4   7    6.08    3.14
  -5   5   7    3.20    1.68
  -4   5   7    6.85    1.94
  -3   5   7    1.29    1.71
  -2   5   7    6.01    2.39
  -1   5   7    8.48    3.91
   1  -5   8   23.97    6.22
   2  -5   8   -0.37    2.18
   3  -5   8    2.21    2.63
   4  -5   8   13.89    4.62
  -1  -4   8   25.55    3.94
   0  -4   8    0.17    1.39
   1  -4   8    6.64    2.14
   2  -4   8   52.14    4.65
   3  -4   8    0.13    2.04
   4  -4   8    3.44    3.20
  -2  -3   8   -0.56    1.23
  -1  -3   8    8.22    2.41
   0  -3   8   64.13    4.83
   1  -3   8    0.59    1.00
   2  -3   8    9.92    1.67
   3  -3   8   60.56    7.87
   4  -3   8    1.17    2.80
   5  -3   8    0.41    3.38
  -3  -2   8    4.49    1.85
  -2  -2   8   50.63    3.26
  -1  -2   8    0.81    0.94
   0  -2   8   16.65    1.60
   1  -2   8  111.20    4.86
   2  -2   8    3.00    1.02
   3  -2   8    8.03    2.51
   4  -2   8   38.30    7.36
   5  -2   8    1.09    3.74
  -4  -1   8   24.30    3.50
  -3  -1   8    0.12    0.94
  -2  -1   8   12.38    1.69
  -1  -1   8  104.83    4.59
   0  -1   8    3.88    1.23
   1  -1   8   19.10    2.64
   2  -1   8  102.82    6.83
   3  -1   8    6.26    2.22
   4  -1   8    3.12    3.08
   5  -1   8   13.80    5.71
  -4   0   8    3.67    1.61
  -3   0   8   59.03    3.48
  -2   0   8    1.61    0.67
  -1   0   8   21.69    2.26
   0   0   8  134.66    7.85
   1   0   8    9.99    2.33
   2   0   8    9.70    3.62
   3   0   8   50.99    7.32
   4   0   8    2.72    3.32
  -5   1   8   26.31    4.67
  -4   1   8    0.61    0.85
  -3   1   8    9.43    1.40
  -2   1   8   98.48    4.33
  -1   1   8    8.08    1.87
   0   1   8   16.64    2.25
   1   1   8   90.36    8.77
   2   1   8    8.75    3.26
   3   1   8    2.63    3.06
   4   1   8   12.94    5.55
  -5   2   8    2.87    1.47
  -4   2   8   43.10    3.35
  -3   2   8    2.83    1.05
  -2   2   8    9.99    1.48
  -1   2   8   94.30    6.22
   1   2   8    6.02    2.56
   2   2   8   32.73    5.71
   3   2   8    5.86    3.78
  -5   3   8    1.16    0.93
  -4   3   8    3.69    1.30
  -3   3   8   57.12    3.83
  -2   3   8    7.90    1.69
  -1   3   8    5.69    2.85
   0   3   8   52.11    5.88
   2   3   8    1.47    2.60
  -5   4   8   20.79    3.04
  -4   4   8    2.23    1.30
  -3   4   8    2.94    1.25
  -2   4   8   36.46    3.11
   0   4   8    2.30    2.17
  -4   5   8   16.47    2.77
  -3   5   8    5.23    1.69
  -2   5   8    1.06    1.73
  -1   5   8   13.20    4.62
   1  -5   9    4.47    3.43
   2  -5   9   -0.17    2.46
   4  -5   9    4.87    3.71
  -1  -4   9    6.26    2.72
   0  -4   9   -0.43    1.39
   2  -4   9    8.81    3.65
   3  -4   9    0.17    1.94
   4  -4   9   16.12    5.29
   5  -4   9    4.03    4.17
  -2  -3   9   -0.48    1.44
   0  -3   9    8.75    2.28
   1  -3   9   -0.45    1.07
   2  -3   9   34.65    3.75
   3  -3   9    7.66    4.01
   4  -3   9    1.43    3.06
   5  -3   9   11.14    5.18
  -3  -2   9   10.97    2.66
  -2  -2   9   10.09    1.87
  -1  -2   9   -0.02    0.98
   0  -2   9   47.27    3.65
   1  -2   9   15.33    1.93
   2  -2   9    1.11    1.64
   3  -2   9   48.63    4.56
   4  -2   9    4.33    3.63
   5  -2   9    1.13    3.82
  -4  -1   9    4.24    1.83
  -3  -1   9   -0.31    0.94
  -2  -1   9   33.92    2.64
  -1  -1   9   15.96    1.68
   0  -1   9    2.09    0.99
   1  -1   9   74.61    5.54
   2  -1   9   22.27    3.77
   3  -1   9    4.20    2.01
   4  -1   9   36.20    4.38
   5  -1   9    2.15    3.89
  -4   0   9   17.79    2.97
  -3   0   9   10.51    1.49
  -2   0   9    0.70    0.61
  -1   0   9   72.91    4.98
   0   0   9   18.10    2.03
   1   0   9    9.67    2.45
   2   0   9   67.53    7.48
   3   0   9   10.94    4.40
   4   0   9    2.96    3.48
  -5   1   9    6.43    2.95
  -4   1   9   -0.05    0.74
  -3   1   9   39.71    2.62
  -2   1   9   15.47    1.70
  -1   1   9    4.56    1.54
   0   1   9   80.93    5.44
   1   1   9   20.22    4.71
   2   1   9    7.62    3.48
   3   1   9   38.45    6.71
   4   1   9    3.06    3.87
  -5   2   9   19.00    3.06
  -4   2   9    8.96    1.91
  -3   2   9    1.58    0.98
  -2   2   9   60.46    3.37
  -1   2   9   17.71    2.96
   2   2   9   10.88    4.03
   3   2   9    2.76    3.26
  -5   3   9   -0.19    0.85
  -4   3   9   29.73    3.16
  -3   3   9    8.91    1.86
  -2   3   9    5.65    1.59
  -1   3   9   53.75    6.22
   0   3   9   10.15    3.27
   1   3   9    6.97    3.46
   2   3   9   32.37    7.17
  -5   4   9    6.48    1.95
  -4   4   9    1.21    1.19
  -3   4   9   35.18    3.29
  -2   4   9    7.95    2.45
   1   4   9    4.25    3.17
  -4   5   9    5.39    1.76
  -3   5   9    2.49    1.41
  -2   5   9   26.03    4.06
   1  -5  10    4.18    3.15
   2  -5  10    4.43    3.54
   3  -5  10   22.25    5.89
   4  -5  10    8.95    4.61
  -1  -4  10    7.87    3.04
   0  -4  10    6.53    2.31
   1  -4  10   59.32    5.25
   2  -4  10   23.78    6.09
   3  -4  10   13.09    4.60
   4  -4  10   43.86    8.31
   5  -4  10    9.59    5.31
  -2  -3  10    5.43    2.41
  -1  -3  10   68.53    5.71
   0  -3  10   33.36    3.93
   1  -3  10   31.31    3.66
   2  -3  10  102.09    7.04
   3  -3  10   41.41    7.37
   4  -3  10    9.36    4.45
   5  -3  10   20.77    6.44
  -3  -2  10   40.17    6.76
  -2  -2  10   27.19    2.78
  -1  -2  10   32.89    2.63
   0  -2  10  138.62    6.95
   1  -2  10   80.61    4.57
   2  -2  10   47.09    4.68
   3  -2  10  102.57    7.24
   4  -2  10   36.91    7.02
   5  -2  10    3.92    4.12
  -4  -1  10    8.70    2.53
  -3  -1  10   17.19    3.04
  -2  -1  10  103.57    6.29
  -1  -1  10   76.41    4.25
   0  -1  10   68.90    4.08
   1  -1  10  179.20   10.18
   2  -1  10   88.45    6.37
   3  -1  10   27.93    4.01
   4  -1  10   47.12    5.33
   5  -1  10   12.35    5.30
  -4   0  10   48.35    4.59
  -3   0  10   38.70    2.72
  -2   0  10   51.33    2.89
  -1   0  10  191.30    9.70
   0   0  10  122.95    6.07
   1   0  10   64.03    5.20
   2   0  10  111.74    7.89
   3   0  10   40.23    6.93
   4   0  10    8.65    4.56
  -5   1  10   15.39    4.44
  -4   1  10   19.75    2.73
  -3   1  10   96.99    4.71
  -2   1  10   79.86    4.14
  -1   1  10   62.60    4.90
   0   1  10  164.90    9.79
   1   1  10   84.72    6.05
   2   1  10   29.76    6.64
   3   1  10   45.24    7.57
   4   1  10   14.98    5.62
  -5   2  10   36.81    3.80
  -4   2  10   30.06    3.15
  -3   2  10   31.77    2.93
  -2   2  10  120.10    5.63
  -1   2  10   86.36    5.92
   0   2  10   38.66    4.06
   1   2  10   84.61    9.47
   2   2  10   34.24    6.32
   3   2  10    2.37    3.46
  -5   3  10    7.66    1.66
  -4   3  10   55.72    4.39
  -3   3  10   40.32    3.54
  -2   3  10   24.00    2.88
  -1   3  10   86.89    6.49
   0   3  10   50.59    6.30
   1   3  10   10.37    4.24
   2   3  10   31.56    7.60
  -5   4  10   12.10    2.59
  -4   4  10   10.64    2.40
  -3   4  10   48.51    5.68
  -2   4  10   31.47    4.41
  -1   4  10    8.56    2.90
   0   4  10   33.53    5.81
   1   4  10   20.56    6.48
  -4   5  10   12.05    2.52
  -3   5  10    3.09    1.62
  -2   5  10   28.61    4.55
   3  -5  11   -1.21    2.63
   1  -4  11    1.12    1.66
   2  -4  11    4.39    3.37
   4  -4  11    1.20    3.57
  -1  -3  11    0.90    1.67
   0  -3  11    3.75    1.90
   2  -3  11    0.46    1.58
   3  -3  11    1.00    2.89
   4  -3  11   36.36    7.22
   5  -3  11    0.00    3.75
  -3  -2  11   -1.17    1.87
  -2  -2  11    3.58    1.63
   0  -2  11    0.84    0.83
   1  -2  11    1.56    1.06
   2  -2  11   81.41    6.46
   3  -2  11    0.80    1.70
   4  -2  11    0.62    2.66
   5  -2  11   16.53    5.92
  -4  -1  11    0.21    2.03
  -3  -1  11   26.81    3.87
  -2  -1  11   -0.10    0.94
  -1  -1  11    2.01    1.04
   0  -1  11  102.92    5.80
   1  -1  11    3.42    1.85
   2  -1  11   -0.35    1.29
   3  -1  11   73.96    6.33
   4  -1  11   -0.78    1.83
  -4   0  11    0.76    1.33
  -3   0  11    1.53    1.33
  -2   0  11   75.09    4.09
  -1   0  11    2.29    1.45
   0   0  11    1.02    0.99
   1   0  11  128.83    7.91
   2   0  11    1.65    1.65
   3   0  11   -0.44    1.58
   4   0  11   27.16    6.83
  -4   1  11   30.26    3.13
  -3   1  11   -0.37    0.71
  -2   1  11    0.17    0.76
  -1   1  11  116.09    7.36
   0   1  11    4.06    1.88
   1   1  11    0.69    1.34
   2   1  11   78.60    9.04
   3   1  11   -0.74    2.60
  -5   2  11    0.72    1.33
  -4   2  11    1.97    1.27
  -3   2  11   60.83    4.61
  -2   2  11    1.06    1.23
  -1   2  11    1.46    1.26
   0   2  11   96.77    9.55
   1   2  11    0.23    2.34
   2   2  11   -0.75    2.42
   3   2  11   26.06    6.91
  -5   3  11   22.23    2.79
  -4   3  11   -0.07    0.97
  -3   3  11    0.15    0.98
  -2   3  11   70.48    5.07
  -1   3  11    0.46    1.25
   0   3  11    2.41    1.83
   2   3  11    0.85    3.21
  -4   4  11   40.11    4.04
  -3   4  11    0.06    1.08
  -2   4  11    1.06    1.33
   0   4  11    1.56    2.76
  -3   5  11   31.22    4.01
   2  -4  12    5.01    3.75
   3  -4  12   40.88    7.82
   4  -4  12    5.28    4.38
   0  -3  12    8.40    2.67
   2  -3  12   16.84    3.40
   3  -3  12    5.16    3.76
   5  -3  12    4.47    4.27
  -2  -2  12    4.22    2.90
   0  -2  12   25.39    2.80
   1  -2  12   13.51    2.28
   2  -2  12   85.60    6.81
   3  -2  12   26.81    3.82
   4  -2  12    1.82    2.82
   5  -2  12   12.49    4.97
  -3  -1  12   53.97    5.06
  -2  -1  12   17.77    3.29
  -1  -1  12   16.90    2.35
   0  -1  12  121.82    6.06
   1  -1  12   44.75    4.60
   2  -1  12   13.89    3.27
   3  -1  12   50.70    5.25
   4  -1  12   21.63    4.33
  -4   0  12    6.23    2.28
  -3   0  12    8.51    2.23
  -2   0  12   97.24    4.72
  -1   0  12   41.19    3.39
   0   0  12   21.09    2.77
   1   0  12   97.36    7.25
   2   0  12   40.10    4.47
   3   0  12    3.50    2.29
   4   0  12   21.61    4.47
  -4   1  12   44.66    3.99
  -3   1  12   25.64    2.57
  -2   1  12   12.53    2.62
  -1   1  12  106.98    7.15
   0   1  12   53.39    4.70
   1   1  12   14.58    3.51
   2   1  12   42.53    5.02
   3   1  12   21.33    6.20
  -5   2  12    8.18    3.33
  -4   2  12    4.78    1.78
  -3   2  12   58.76    4.40
  -2   2  12   35.01    3.87
  -1   2  12   13.95    2.92
   0   2  12   63.15    8.29
   1   2  12   29.43    5.67
   2   2  12    2.80    3.58
  -5   3  12   21.95    2.81
  -4   3  12   17.02    3.07
  -3   3  12    6.18    2.00
  -2   3  12   47.23    4.25
  -1   3  12   33.14    3.89
   0   3  12    3.16    2.18
  -4   4  12   26.26    5.22
  -3   4  12   18.71    3.19
  -2   4  12    1.15    1.38
   0   4  12   12.12    4.94
  -3   5  12   13.88    2.98
   0  -4  13    1.78    2.45
   1  -4  13    5.51    2.52
   2  -4  13   -0.49    2.86
   3  -4  13    1.72    3.01
   4  -4  13    3.67    4.41
  -1  -3  13    6.56    2.59
   0  -3  13    0.14    1.72
   1  -3  13    4.55    2.42
   2  -3  13    8.48    2.86
   3  -3  13    0.43    3.24
   4  -3  13    4.31    3.81
  -2  -2  13   -0.26    2.10
  -1  -2  13    5.08    2.26
   0  -2  13   16.11    3.44
   1  -2  13    0.39    1.78
   2  -2  13    8.06    2.55
   3  -2  13    8.93    2.80
   4  -2  13    0.21    2.83
  -3  -1  13    3.79    2.02
  -2  -1  13   13.49    2.87
  -1  -1  13    0.45    1.07
   0  -1  13    9.05    1.98
   1  -1  13   20.36    2.75
   2  -1  13    2.85    1.97
   3  -1  13   13.11    3.22
   4  -1  13    2.92    2.37
  -4   0  13    3.41    2.10
  -3   0  13   -0.40    1.24
  -2   0  13    7.78    1.70
  -1   0  13   16.81    3.02
   0   0  13    1.49    1.10
   1   0  13   19.45    3.62
   2   0  13    7.51    2.65
   3   0  13    2.00    2.21
   4   0  13    8.78    3.37
  -4   1  13    6.85    2.06
  -3   1  13    9.81    1.87
  -2   1  13    0.92    1.38
  -1   1  13   13.58    2.89
   0   1  13   14.28    3.19
   1   1  13    2.16    1.97
   2   1  13   16.70    4.02
   3   1  13    0.85    2.15
  -4   2  13    0.70    1.36
  -3   2  13    9.67    2.34
  -2   2  13    7.20    2.26
  -1   2  13    1.33    1.43
   0   2  13   15.36    5.09
   1   2  13    4.14    2.37
   2   2  13    1.99    2.35
  -4   3  13    3.29    1.79
  -3   3  13    0.48    1.30
  -2   3  13   13.62    2.83
  -1   3  13    4.18    1.94
   0   3  13    0.87    1.94
   1   3  13   15.40    4.02
  -4   4  13    7.82    2.50
  -3   4  13    2.39    1.71
  -2   4  13    0.38    1.31
  -1   4  13   12.68    4.19
   0   4  13    1.21    3.04
   1  -4  14    0.45    2.25
   2  -4  14    2.07    3.72
   3  -4  14    6.44    3.91
  -1  -3  14   -0.01    1.86
   0  -3  14    2.51    2.22
   1  -3  14   41.48    5.32
   2  -3  14   -0.34    2.07
   3  -3  14    1.42    3.02
   4  -3  14   11.16    4.38
  -2  -2  14   -1.48    1.95
  -1  -2  14   46.10    5.16
   0  -2  14    1.82    1.94
   1  -2  14    4.30    2.36
   2  -2  14   53.21    5.45
   3  -2  14    0.28    1.88
   4  -2  14    0.85    2.81
  -3  -1  14   13.21    4.25
  -2  -1  14   -0.62    1.34
  -1  -1  14    5.57    2.21
   0  -1  14   67.54    4.70
   1  -1  14   -0.92    0.91
   2  -1  14    6.61    2.52
   3  -1  14   40.70    5.00
   4  -1  14   -0.43    2.02
  -3   0  14    3.00    1.96
  -2   0  14   50.62    3.76
  -1   0  14   -0.33    1.21
   0   0  14   11.72    2.19
   1   0  14   68.69    5.98
   2   0  14    1.35    1.92
   3   0  14    4.00    2.61
  -4   1  14   24.91    6.05
  -3   1  14   -0.03    1.00
  -2   1  14    6.95    2.39
  -1   1  14   67.83    5.74
   0   1  14    0.83    1.11
   1   1  14    9.46    3.22
   2   1  14   39.31    6.26
   3   1  14    1.00    2.41
  -4   2  14    3.85    1.92
  -3   2  14   38.55    4.13
  -2   2  14   -0.31    1.26
  -1   2  14    9.24    2.67
   0   2  14   48.09    5.26
   1   2  14    0.34    2.06
   2   2  14    4.44    2.94
  -4   3  14    0.44    1.44
  -3   3  14    3.81    1.85
  -2   3  14   36.99    4.15
  -1   3  14    0.64    1.52
   0   3  14    4.42    4.09
   1   3  14   20.32    4.60
  -3   4  14    0.77    1.60
  -2   4  14    3.57    1.82
  -1   4  14   19.35    5.00
   1  -4  15    0.91    2.62
  -1  -3  15    1.60    3.32
   1  -3  15    0.67    2.10
   2  -3  15    1.09    2.20
   4  -3  15   -0.45    2.86
  -1  -2  15   -0.65    2.56
   0  -2  15    1.49    2.03
   1  -2  15   60.23    6.34
   2  -2  15    4.75    2.43
   3  -2  15    1.32    1.96
   4  -2  15   38.74    7.38
  -3  -1  15    0.65    1.86
  -2  -1  15    1.79    1.87
  -1  -1  15   56.06    5.75
   0  -1  15    5.90    1.74
   1  -1  15    2.43    1.49
   2  -1  15   67.28    6.09
   3  -1  15    4.81    2.69
   4  -1  15    1.25    3.64
  -3   0  15   38.61    7.12
  -2   0  15    3.19    1.42
  -1   0  15    2.22    1.75
   0   0  15   84.68    5.30
   1   0  15   13.85    3.39
   2   0  15    2.33    2.27
   3   0  15   47.61    5.81
  -4   1  15   -0.88    2.46
  -3   1  15    1.17    1.27
  -2   1  15   56.55    5.78
  -1   1  15    8.15    2.47
   0   1  15    2.34    1.42
   1   1  15   67.19    6.31
   2   1  15    4.94    2.89
   3   1  15   -0.36    3.56
  -4   2  15   29.88    4.48
  -3   2  15    4.57    2.01
  -2   2  15    1.60    1.59
  -1   2  15   70.40    5.89
   0   2  15    5.24    3.66
   1   2  15   -0.30    2.14
   2   2  15   42.92    6.32
  -4   3  15    1.09    1.97
  -3   3  15   39.17    4.54
  -2   3  15    3.77    1.82
  -1   3  15    1.19    1.57
   0   3  15   48.01    8.25
   1   3  15    5.94    3.17
  -3   4  15    2.09    1.91
  -2   4  15   41.47    4.59
  -1   4  15    1.80    2.38
   1  -3  16    1.57    2.29
   2  -3  16    0.40    2.04
  -1  -2  16    0.42    2.72
   0  -2  16   -0.02    1.96
   1  -2  16   66.65    6.70
   2  -2  16    2.41    2.23
   3  -2  16    1.38    2.05
  -2  -1  16    0.78    1.86
  -1  -1  16   73.39    6.55
   0  -1  16    2.60    1.53
   1  -1  16    2.00    1.51
   2  -1  16   65.03    6.22
   3  -1  16    4.41    2.57
  -3   0  16   55.43    8.47
  -2   0  16    1.36    1.23
  -1   0  16    2.82    1.89
   0   0  16   91.33    5.64
   1   0  16    8.25    2.98
   2   0  16    3.34    2.48
   3   0  16   39.13    5.52
  -3   1  16    0.32    1.35
  -2   1  16   60.54    6.10
  -1   1  16    6.16    2.37
   0   1  16    2.60    1.80
   1   1  16   63.62    6.50
   2   1  16    8.38    3.45
  -3   2  16    1.84    1.73
  -2   2  16    0.99    1.71
  -1   2  16   61.32    5.80
   0   2  16    6.35    2.59
   1   2  16    1.90    2.58
  -3   3  16   27.25    4.34
  -2   3  16    4.93    2.10
  -1   3  16    0.27    1.54
   0   3  16   35.85    5.14
   1  -3  17    2.51    2.50
   2  -3  17    3.25    2.53
  -1  -2  17    2.79    3.50
   1  -2  17   -1.39    1.74
   2  -2  17    7.35    2.89
   3  -2  17    9.49    2.94
  -2  -1  17    3.27    2.40
  -1  -1  17    0.84    1.69
   0  -1  17    9.05    2.12
   1  -1  17   16.40    2.75
   2  -1  17    2.25    2.18
   3  -1  17    4.71    2.56
  -3   0  17   -0.82    2.70
  -2   0  17    6.85    1.99
  -1   0  17   14.65    3.47
   0   0  17    3.15    1.92
   1   0  17    9.35    2.30
   2   0  17   20.45    4.31
  -3   1  17    5.65    2.02
  -2   1  17    0.84    1.70
  -1   1  17    8.66    2.65
   0   1  17   23.19    4.03
   1   1  17    1.95    2.44
   2   1  17    2.93    2.98
  -3   2  17    7.27    2.43
  -2   2  17   13.96    3.39
  -1   2  17    0.96    1.72
   0   2  17    5.88    2.52
   1   2  17   25.86    7.95
  -2   3  17    5.82    2.22
  -1   3  17   19.86    4.05
   1  -2  18    1.03    2.25
   2  -2  18    1.25    2.40
  -1  -1  18    1.48    1.98
   0  -1  18    0.77    1.73
   1  -1  18   54.26    4.48
   2  -1  18    1.69    1.76
  -2   0  18    0.40    1.90
  -1   0  18   54.07    5.75
   0   0  18    2.54    1.83
   1   0  18    0.66    1.40
   2   0  18   34.95    5.77
  -2   1  18    2.06    1.53
  -1   1  18    0.79    1.60
   0   1  18   45.96    5.27
   1   1  18    4.10    2.93
  -2   2  18   37.60    5.03
  -1   2  18    4.01    2.32
   0   2  18   -0.71    1.44
   1  -2  19    0.68    2.23
  -1  -1  19   -1.16    1.67
   0  -1  19    3.64    2.30
   1  -1  19    6.70    2.07
   2  -1  19    0.75    1.59
  -2   0  19    5.00    3.57
  -1   0  19    8.57    2.85
   0   0  19   -0.12    1.68
   1   0  19    5.96    2.15
  -2   1  19   -0.43    1.28
  -1   1  19    4.26    2.32
   0   1  19    9.67    3.02
   1   1  19    0.24    1.72
  -1   2  19   -0.48    1.71
   1  -1  20    6.81    2.92
  -1   0  20    9.85    3.07
   0   0  20   -0.02    1.60
   1   0  20    7.00    3.49
  -1   1  20    3.70    4.11
   0   1  20    8.22    4.90
   0   0   0    0.00    0.00
;
_shelx_hkl_checksum              99113
#END Tags that were not found in dictionaries
loop_
_space_group_symop_operation_xyz
'x, y, z'
'-y, x-y, z'
'-x+y, -x, z'
'y, x, -z'
'x-y, -y, -z'
'-x, -x+y, -z'
'-x, -y, -z'
'y, -x+y, -z'
'x-y, x, -z'
'-y, -x, z'
'-x+y, y, z'
'x, x-y, z'
loop_
_atom_site_label
_atom_site_type_symbol
_atom_site_fract_x
_atom_site_fract_y
_atom_site_fract_z
_atom_site_U_iso_or_equiv
_atom_site_adp_type
_atom_site_occupancy
_atom_site_site_symmetry_order
_atom_site_calc_flag
_atom_site_refinement_flags_posn
_atom_site_refinement_flags_adp
_atom_site_refinement_flags_occupancy
Nd1 Nd 0.0000 0.0000 0.5000 0.044(5) Uani 0.249(14) 12 d S T .
Nd2 Nd 0.0000 0.0000 0.0000 0.0132(5) Uani 1 12 d S T P
Zn1 Zn 0.3333 0.6667 0.3339(7) 0.020(2) Uani 0.524(17) 6 d S T P
Zn2 Zn 0.3333 0.6667 0.8020(2) 0.0157(7) Uani 1 6 d S T P
Mn Mn 0.3333 0.6667 0.4097(12) 0.031(4) Uani 0.476(17) 6 d S T P
As1 As 0.3333 0.6667 0.12921(18) 0.0091(5) Uani 1 6 d S T P
As2 As 0.3333 0.6667 0.6176(2) 0.0153(6) Uani 1 6 d S T P
loop_
_atom_site_aniso_label
_atom_site_aniso_U_11
_atom_site_aniso_U_22
_atom_site_aniso_U_33
_atom_site_aniso_U_23
_atom_site_aniso_U_13
_atom_site_aniso_U_12
Nd1 0.053(7) 0.053(7) 0.028(6) 0.000 0.000 0.026(3)
Nd2 0.0128(6) 0.0128(6) 0.0139(9) 0.000 0.000 0.0064(3)
Zn1 0.012(2) 0.012(2) 0.035(5) 0.000 0.000 0.0061(11)
Zn2 0.0177(10) 0.0177(10) 0.0119(13) 0.000 0.000 0.0088(5)
Mn 0.020(4) 0.020(4) 0.053(10) 0.000 0.000 0.0102(18)
As1 0.0096(7) 0.0096(7) 0.0081(10) 0.000 0.000 0.0048(4)
As2 0.0177(9) 0.0177(9) 0.0104(11) 0.000 0.000 0.0089(4)
loop_
_atom_type_symbol
_atom_type_description
_atom_type_scat_dispersion_real
_atom_type_scat_dispersion_imag
_atom_type_scat_source
Mn Mn 0.3368 0.7283 'International Tables Vol C Tables 4.2.6.8 and 6.1.1.4'
Zn Zn 0.2839 1.4301 'International Tables Vol C Tables 4.2.6.8 and 6.1.1.4'
As As 0.0499 2.0058 'International Tables Vol C Tables 4.2.6.8 and 6.1.1.4'
Nd Nd -0.1943 3.0179 'International Tables Vol C Tables 4.2.6.8 and 6.1.1.4'
loop_
_geom_angle_atom_site_label_1
_geom_angle_atom_site_label_2
_geom_angle_atom_site_label_3
_geom_angle
_geom_angle_site_symmetry_1
_geom_angle_site_symmetry_3
Mn Nd1 Mn 180.0 7_666 1_445
Mn Nd1 Mn 100.9(4) 7_666 7_556
Mn Nd1 Mn 79.1(4) 1_445 7_556
Mn Nd1 Mn 79.1(4) 7_666 .
Mn Nd1 Mn 100.9(4) 1_445 .
Mn Nd1 Mn 180.0 7_556 .
Mn Nd1 Mn 100.9(4) 7_666 7_566
Mn Nd1 Mn 79.1(4) 1_445 7_566
Mn Nd1 Mn 100.9(4) 7_556 7_566
Mn Nd1 Mn 79.1(4) . 7_566
Mn Nd1 Mn 79.1(4) 7_666 1_545
Mn Nd1 Mn 100.9(4) 1_445 1_545
Mn Nd1 Mn 79.1(4) 7_556 1_545
Mn Nd1 Mn 100.9(4) . 1_545
Mn Nd1 Mn 180.0(6) 7_566 1_545
Mn Nd1 As2 128.54(12) 7_666 7_556
Mn Nd1 As2 51.46(12) 1_445 7_556
Mn Nd1 As2 60.8(3) 7_556 7_556
Mn Nd1 As2 119.2(3) . 7_556
Mn Nd1 As2 128.54(12) 7_566 7_556
Mn Nd1 As2 51.46(12) 1_545 7_556
Mn Nd1 As2 60.8(3) 7_666 7_666
Mn Nd1 As2 119.2(3) 1_445 7_666
Mn Nd1 As2 128.54(12) 7_556 7_666
Mn Nd1 As2 51.46(12) . 7_666
Mn Nd1 As2 128.54(12) 7_566 7_666
Mn Nd1 As2 51.46(12) 1_545 7_666
As2 Nd1 As2 92.22(7) 7_556 7_666
Mn Nd1 As2 119.2(3) 7_666 1_445
Mn Nd1 As2 60.8(3) 1_445 1_445
Mn Nd1 As2 51.46(12) 7_556 1_445
Mn Nd1 As2 128.54(12) . 1_445
Mn Nd1 As2 51.46(12) 7_566 1_445
Mn Nd1 As2 128.54(12) 1_545 1_445
As2 Nd1 As2 87.78(7) 7_556 1_445
As2 Nd1 As2 180.0 7_666 1_445
Mn Nd1 As2 128.54(12) 7_666 7_566
Mn Nd1 As2 51.46(12) 1_445 7_566
Mn Nd1 As2 128.54(12) 7_556 7_566
Mn Nd1 As2 51.46(12) . 7_566
Mn Nd1 As2 60.8(3) 7_566 7_566
Mn Nd1 As2 119.2(3) 1_545 7_566
As2 Nd1 As2 92.22(7) 7_556 7_566
As2 Nd1 As2 92.22(7) 7_666 7_566
As2 Nd1 As2 87.78(7) 1_445 7_566
Mn Nd1 As2 51.46(12) 7_666 1_545
Mn Nd1 As2 128.54(12) 1_445 1_545
Mn Nd1 As2 51.46(12) 7_556 1_545
Mn Nd1 As2 128.54(12) . 1_545
Mn Nd1 As2 119.2(3) 7_566 1_545
Mn Nd1 As2 60.8(3) 1_545 1_545
As2 Nd1 As2 87.78(7) 7_556 1_545
As2 Nd1 As2 87.78(7) 7_666 1_545
As2 Nd1 As2 92.22(7) 1_445 1_545
As2 Nd1 As2 180.00(9) 7_566 1_545
Mn Nd1 As2 51.46(12) 7_666 .
Mn Nd1 As2 128.54(12) 1_445 .
Mn Nd1 As2 119.2(3) 7_556 .
Mn Nd1 As2 60.8(3) . .
Mn Nd1 As2 51.46(12) 7_566 .
Mn Nd1 As2 128.54(12) 1_545 .
As2 Nd1 As2 180.0 7_556 .
As2 Nd1 As2 87.79(7) 7_666 .
As2 Nd1 As2 92.21(7) 1_445 .
As2 Nd1 As2 87.79(7) 7_566 .
As2 Nd1 As2 92.21(7) 1_545 .
As1 Nd2 As1 180.0 7 .
As1 Nd2 As1 88.63(6) 7 7_665
As1 Nd2 As1 91.37(6) . 7_665
As1 Nd2 As1 91.37(6) 7 1_445
As1 Nd2 As1 88.63(6) . 1_445
As1 Nd2 As1 180.00(8) 7_665 1_445
As1 Nd2 As1 88.63(6) 7 7_565
As1 Nd2 As1 91.37(6) . 7_565
As1 Nd2 As1 88.63(6) 7_665 7_565
As1 Nd2 As1 91.37(6) 1_445 7_565
As1 Nd2 As1 91.37(6) 7 1_545
As1 Nd2 As1 88.63(6) . 1_545
As1 Nd2 As1 91.37(6) 7_665 1_545
As1 Nd2 As1 88.63(6) 1_445 1_545
As1 Nd2 As1 180.00(8) 7_565 1_545
As1 Nd2 Zn2 44.80(3) 7 1_444
As1 Nd2 Zn2 135.20(3) . 1_444
As1 Nd2 Zn2 95.47(6) 7_665 1_444
As1 Nd2 Zn2 84.53(6) 1_445 1_444
As1 Nd2 Zn2 44.80(3) 7_565 1_444
As1 Nd2 Zn2 135.20(3) 1_545 1_444
As1 Nd2 Zn2 135.20(3) 7 7_666
As1 Nd2 Zn2 44.80(3) . 7_666
As1 Nd2 Zn2 84.53(6) 7_665 7_666
As1 Nd2 Zn2 95.47(6) 1_445 7_666
As1 Nd2 Zn2 135.20(3) 7_565 7_666
As1 Nd2 Zn2 44.80(3) 1_545 7_666
Zn2 Nd2 Zn2 180.00(7) 1_444 7_666
As1 Nd2 Zn2 84.53(6) 7 7_556
As1 Nd2 Zn2 95.47(6) . 7_556
As1 Nd2 Zn2 135.20(3) 7_665 7_556
As1 Nd2 Zn2 44.80(3) 1_445 7_556
As1 Nd2 Zn2 135.20(3) 7_565 7_556
As1 Nd2 Zn2 44.80(3) 1_545 7_556
Zn2 Nd2 Zn2 109.65(6) 1_444 7_556
Zn2 Nd2 Zn2 70.35(6) 7_666 7_556
As1 Nd2 Zn2 95.47(6) 7 1_554
As1 Nd2 Zn2 84.53(6) . 1_554
As1 Nd2 Zn2 44.80(3) 7_665 1_554
As1 Nd2 Zn2 135.20(3) 1_445 1_554
As1 Nd2 Zn2 44.80(3) 7_565 1_554
As1 Nd2 Zn2 135.20(3) 1_545 1_554
Zn2 Nd2 Zn2 70.35(6) 1_444 1_554
Zn2 Nd2 Zn2 109.65(6) 7_666 1_554
Zn2 Nd2 Zn2 180.0 7_556 1_554
As1 Nd2 Zn2 44.80(3) 7 1_544
As1 Nd2 Zn2 135.20(3) . 1_544
As1 Nd2 Zn2 44.80(3) 7_665 1_544
As1 Nd2 Zn2 135.20(3) 1_445 1_544
As1 Nd2 Zn2 95.47(6) 7_565 1_544
As1 Nd2 Zn2 84.53(6) 1_545 1_544
Zn2 Nd2 Zn2 70.35(6) 1_444 1_544
Zn2 Nd2 Zn2 109.65(6) 7_666 1_544
Zn2 Nd2 Zn2 109.65(6) 7_556 1_544
Zn2 Nd2 Zn2 70.35(6) 1_554 1_544
As1 Nd2 Zn2 135.20(3) 7 7_566
As1 Nd2 Zn2 44.80(3) . 7_566
As1 Nd2 Zn2 135.20(3) 7_665 7_566
As1 Nd2 Zn2 44.80(3) 1_445 7_566
As1 Nd2 Zn2 84.53(6) 7_565 7_566
As1 Nd2 Zn2 95.47(6) 1_545 7_566
Zn2 Nd2 Zn2 109.65(6) 1_444 7_566
Zn2 Nd2 Zn2 70.35(6) 7_666 7_566
Zn2 Nd2 Zn2 70.35(6) 7_556 7_566
Zn2 Nd2 Zn2 109.65(6) 1_554 7_566
Zn2 Nd2 Zn2 180.00(7) 1_544 7_566
Mn Zn1 As2 74.6(2) . 7_666
Mn Zn1 As2 74.6(2) . 7_676
As2 Zn1 As2 113.22(18) 7_666 7_676
Mn Zn1 As2 74.6(2) . 7_566
As2 Zn1 As2 113.22(18) 7_666 7_566
As2 Zn1 As2 113.22(18) 7_676 7_566
Mn Zn1 As1 180.0 . .
As2 Zn1 As1 105.4(2) 7_666 .
As2 Zn1 As1 105.4(2) 7_676 .
As2 Zn1 As1 105.4(2) 7_566 .
Mn Zn1 Zn2 127.62(15) . 7_666
As2 Zn1 Zn2 53.01(11) 7_666 7_666
As2 Zn1 Zn2 122.95(14) 7_676 7_666
As2 Zn1 Zn2 122.95(14) 7_566 7_666
As1 Zn1 Zn2 52.38(15) . 7_666
Mn Zn1 Zn2 127.62(15) . 7_566
As2 Zn1 Zn2 122.95(14) 7_666 7_566
As2 Zn1 Zn2 122.95(14) 7_676 7_566
As2 Zn1 Zn2 53.01(11) 7_566 7_566
As1 Zn1 Zn2 52.38(15) . 7_566
Zn2 Zn1 Zn2 86.6(2) 7_666 7_566
Mn Zn1 Zn2 127.62(14) . 7_676
As2 Zn1 Zn2 122.95(14) 7_666 7_676
As2 Zn1 Zn2 53.01(11) 7_676 7_676
As2 Zn1 Zn2 122.95(14) 7_566 7_676
As1 Zn1 Zn2 52.38(15) . 7_676
Zn2 Zn1 Zn2 86.6(2) 7_666 7_676
Zn2 Zn1 Zn2 86.6(2) 7_566 7_676
Mn Zn1 Nd1 46.72(11) . 1_665
As2 Zn1 Nd1 57.80(12) 7_666 1_665
As2 Zn1 Nd1 57.80(12) 7_676 1_665
As2 Zn1 Nd1 121.3(3) 7_566 1_665
As1 Zn1 Nd1 133.28(12) . 1_665
Zn2 Zn1 Nd1 97.48(5) 7_666 1_665
Zn2 Zn1 Nd1 174.3(3) 7_566 1_665
Zn2 Zn1 Nd1 97.48(5) 7_676 1_665
Mn Zn1 Nd1 46.72(12) . 1_565
As2 Zn1 Nd1 121.3(3) 7_666 1_565
As2 Zn1 Nd1 57.80(12) 7_676 1_565
As2 Zn1 Nd1 57.80(12) 7_566 1_565
As1 Zn1 Nd1 133.28(12) . 1_565
Zn2 Zn1 Nd1 174.3(3) 7_666 1_565
Zn2 Zn1 Nd1 97.48(5) 7_566 1_565
Zn2 Zn1 Nd1 97.48(5) 7_676 1_565
Nd1 Zn1 Nd1 78.17(18) 1_665 1_565
Mn Zn1 Nd1 46.72(12) . .
As2 Zn1 Nd1 57.80(12) 7_666 .
As2 Zn1 Nd1 121.3(3) 7_676 .
As2 Zn1 Nd1 57.80(12) 7_566 .
As1 Zn1 Nd1 133.28(12) . .
Zn2 Zn1 Nd1 97.48(5) 7_666 .
Zn2 Zn1 Nd1 97.48(5) 7_566 .
Zn2 Zn1 Nd1 174.3(3) 7_676 .
Nd1 Zn1 Nd1 78.17(18) 1_665 .
Nd1 Zn1 Nd1 78.17(18) 1_565 .
As2 Zn2 As1 111.30(8) . 7_666
As2 Zn2 As1 111.30(8) . 7_676
As1 Zn2 As1 107.58(9) 7_666 7_676
As2 Zn2 As1 111.30(8) . 7_566
As1 Zn2 As1 107.58(9) 7_666 7_566
As1 Zn2 As1 107.58(9) 7_676 7_566
As2 Zn2 Zn1 52.38(15) . 7_666
As1 Zn2 Zn1 58.92(15) 7_666 7_666
As1 Zn2 Zn1 126.21(4) 7_676 7_666
As1 Zn2 Zn1 126.21(4) 7_566 7_666
As2 Zn2 Zn1 52.39(15) . 7_566
As1 Zn2 Zn1 126.21(4) 7_666 7_566
As1 Zn2 Zn1 126.21(4) 7_676 7_566
As1 Zn2 Zn1 58.91(15) 7_566 7_566
Zn1 Zn2 Zn1 86.6(2) 7_666 7_566
As2 Zn2 Zn1 52.39(15) . 7_676
As1 Zn2 Zn1 126.21(4) 7_666 7_676
As1 Zn2 Zn1 58.92(15) 7_676 7_676
As1 Zn2 Zn1 126.21(4) 7_566 7_676
Zn1 Zn2 Zn1 86.6(2) 7_666 7_676
Zn1 Zn2 Zn1 86.6(2) 7_566 7_676
As2 Zn2 Nd2 138.30(4) . 1_666
As1 Zn2 Nd2 54.47(6) 7_666 1_666
As1 Zn2 Nd2 54.47(6) 7_676 1_666
As1 Zn2 Nd2 110.40(12) 7_566 1_666
Zn1 Zn2 Nd2 101.08(11) 7_666 1_666
Zn1 Zn2 Nd2 169.31(16) 7_566 1_666
Zn1 Zn2 Nd2 101.08(11) 7_676 1_666
As2 Zn2 Nd2 138.30(4) . 1_566
As1 Zn2 Nd2 110.40(12) 7_666 1_566
As1 Zn2 Nd2 54.47(6) 7_676 1_566
As1 Zn2 Nd2 54.47(6) 7_566 1_566
Zn1 Zn2 Nd2 169.31(16) 7_666 1_566
Zn1 Zn2 Nd2 101.08(11) 7_566 1_566
Zn1 Zn2 Nd2 101.08(11) 7_676 1_566
Nd2 Zn2 Nd2 70.35(6) 1_666 1_566
As2 Zn2 Nd2 138.30(4) . 1_556
As1 Zn2 Nd2 54.47(6) 7_666 1_556
As1 Zn2 Nd2 110.40(12) 7_676 1_556
As1 Zn2 Nd2 54.47(6) 7_566 1_556
Zn1 Zn2 Nd2 101.08(11) 7_666 1_556
Zn1 Zn2 Nd2 101.08(11) 7_566 1_556
Zn1 Zn2 Nd2 169.31(16) 7_676 1_556
Nd2 Zn2 Nd2 70.35(6) 1_666 1_556
Nd2 Zn2 Nd2 70.35(6) 1_566 1_556
Zn1 Mn As2 81.2(4) . 7_666
Zn1 Mn As2 81.2(4) . 7_566
As2 Mn As2 117.7(2) 7_666 7_566
Zn1 Mn As2 81.2(4) . 7_676
As2 Mn As2 117.7(2) 7_666 7_676
As2 Mn As2 117.7(2) 7_566 7_676
Zn1 Mn Nd1 117.1(3) . 1_565
As2 Mn Nd1 161.7(7) 7_666 1_565
As2 Mn Nd1 68.27(10) 7_566 1_565
As2 Mn Nd1 68.27(10) 7_676 1_565
Zn1 Mn Nd1 117.1(3) . 1_665
As2 Mn Nd1 68.27(10) 7_666 1_665
As2 Mn Nd1 161.7(7) 7_566 1_665
As2 Mn Nd1 68.27(10) 7_676 1_665
Nd1 Mn Nd1 100.9(4) 1_565 1_665
Zn1 Mn Nd1 117.1(3) . .
As2 Mn Nd1 68.27(10) 7_666 .
As2 Mn Nd1 68.27(10) 7_566 .
As2 Mn Nd1 161.7(7) 7_676 .
Nd1 Mn Nd1 100.9(4) 1_565 .
Nd1 Mn Nd1 100.9(4) 1_665 .
Zn1 Mn As2 180.0 . .
As2 Mn As2 98.8(4) 7_666 .
As2 Mn As2 98.8(4) 7_566 .
As2 Mn As2 98.8(4) 7_676 .
Nd1 Mn As2 62.9(3) 1_565 .
Nd1 Mn As2 62.9(3) 1_665 .
Nd1 Mn As2 62.9(3) . .
Zn2 As1 Zn2 107.58(9) 7_666 7_676
Zn2 As1 Zn2 107.58(9) 7_666 7_566
Zn2 As1 Zn2 107.58(9) 7_676 7_566
Zn2 As1 Zn1 68.70(8) 7_666 .
Zn2 As1 Zn1 68.70(8) 7_676 .
Zn2 As1 Zn1 68.70(8) 7_566 .
Zn2 As1 Nd2 80.73(5) 7_666 .
Zn2 As1 Nd2 165.08(11) 7_676 .
Zn2 As1 Nd2 80.73(5) 7_566 .
Zn1 As1 Nd2 126.22(4) . .
Zn2 As1 Nd2 165.08(11) 7_666 1_565
Zn2 As1 Nd2 80.73(5) 7_676 1_565
Zn2 As1 Nd2 80.73(5) 7_566 1_565
Zn1 As1 Nd2 126.22(4) . 1_565
Nd2 As1 Nd2 88.63(6) . 1_565
Zn2 As1 Nd2 80.73(5) 7_666 1_665
Zn2 As1 Nd2 80.73(5) 7_676 1_665
Zn2 As1 Nd2 165.08(11) 7_566 1_665
Zn1 As1 Nd2 126.22(4) . 1_665
Nd2 As1 Nd2 88.63(6) . 1_665
Nd2 As1 Nd2 88.63(6) 1_565 1_665
Mn As2 Mn 117.7(2) 7_666 7_566
Mn As2 Mn 117.7(2) 7_666 7_676
Mn As2 Mn 117.7(2) 7_566 7_676
Mn As2 Zn1 24.2(4) 7_666 7_666
Mn As2 Zn1 121.13(8) 7_566 7_666
Mn As2 Zn1 121.13(8) 7_676 7_666
Mn As2 Zn1 121.13(8) 7_666 7_676
Mn As2 Zn1 121.13(8) 7_566 7_676
Mn As2 Zn1 24.2(4) 7_676 7_676
Zn1 As2 Zn1 113.22(18) 7_666 7_676
Mn As2 Zn1 121.13(8) 7_666 7_566
Mn As2 Zn1 24.2(4) 7_566 7_566
Mn As2 Zn1 121.13(8) 7_676 7_566
Zn1 As2 Zn1 113.22(18) 7_666 7_566
Zn1 As2 Zn1 113.22(18) 7_676 7_566
Mn As2 Zn2 98.8(4) 7_666 .
Mn As2 Zn2 98.8(4) 7_566 .
Mn As2 Zn2 98.8(4) 7_676 .
Zn1 As2 Zn2 74.6(2) 7_666 .
Zn1 As2 Zn2 74.6(2) 7_676 .
Zn1 As2 Zn2 74.6(2) 7_566 .
Mn As2 Mn 81.2(4) 7_666 .
Mn As2 Mn 81.2(4) 7_566 .
Mn As2 Mn 81.2(4) 7_676 .
Zn1 As2 Mn 105.4(2) 7_666 .
Zn1 As2 Mn 105.4(2) 7_676 .
Zn1 As2 Mn 105.4(2) 7_566 .
Zn2 As2 Mn 180.0 . .
Mn As2 Nd1 60.3(2) 7_666 .
Mn As2 Nd1 60.3(2) 7_566 .
Mn As2 Nd1 137.5(4) 7_676 .
Zn1 As2 Nd1 75.29(14) 7_666 .
Zn1 As2 Nd1 161.7(2) 7_676 .
Zn1 As2 Nd1 75.29(14) 7_566 .
Zn2 As2 Nd1 123.68(5) . .
Mn As2 Nd1 56.32(5) . .
Mn As2 Nd1 137.5(4) 7_666 1_565
Mn As2 Nd1 60.3(2) 7_566 1_565
Mn As2 Nd1 60.3(2) 7_676 1_565
Zn1 As2 Nd1 161.7(2) 7_666 1_565
Zn1 As2 Nd1 75.29(14) 7_676 1_565
Zn1 As2 Nd1 75.29(14) 7_566 1_565
Zn2 As2 Nd1 123.68(5) . 1_565
Mn As2 Nd1 56.32(5) . 1_565
Nd1 As2 Nd1 92.21(7) . 1_565
Mn As2 Nd1 60.3(2) 7_666 1_665
Mn As2 Nd1 137.5(4) 7_566 1_665
Mn As2 Nd1 60.3(2) 7_676 1_665
Zn1 As2 Nd1 75.29(14) 7_666 1_665
Zn1 As2 Nd1 75.29(14) 7_676 1_665
Zn1 As2 Nd1 161.7(2) 7_566 1_665
Zn2 As2 Nd1 123.68(5) . 1_665
Mn As2 Nd1 56.32(5) . 1_665
Nd1 As2 Nd1 92.21(7) . 1_665
Nd1 As2 Nd1 92.21(7) 1_565 1_665
loop_
_geom_bond_atom_site_label_1
_geom_bond_atom_site_label_2
_geom_bond_distance
_geom_bond_site_symmetry_2
Nd1 Mn 2.677(7) 7_666
Nd1 Mn 2.677(7) 1_445
Nd1 Mn 2.677(7) 7_556
Nd1 Mn 2.677(7) .
Nd1 Mn 2.677(7) 7_566
Nd1 Mn 2.677(7) 1_545
Nd1 As2 2.8643(18) 7_556
Nd1 As2 2.8643(18) 7_666
Nd1 As2 2.8643(18) 1_445
Nd1 As2 2.8643(18) 7_566
Nd1 As2 2.8643(18) 1_545
Nd1 As2 2.8643(18) .
Nd2 As1 2.9546(17) 7
Nd2 As1 2.9546(17) .
Nd2 As1 2.9546(17) 7_665
Nd2 As1 2.9546(17) 1_445
Nd2 As1 2.9546(17) 7_565
Nd2 As1 2.9546(17) 1_545
Nd2 Zn2 3.583(3) 1_444
Nd2 Zn2 3.583(3) 7_666
Nd2 Zn2 3.583(3) 7_556
Nd2 Zn2 3.583(3) 1_554
Nd2 Zn2 3.583(3) 1_544
Nd2 Zn2 3.583(3) 7_566
Zn1 Mn 1.025(16) .
Zn1 As2 2.472(3) 7_666
Zn1 As2 2.472(3) 7_676
Zn1 As2 2.472(3) 7_566
Zn1 As1 2.766(9) .
Zn1 Zn2 3.009(6) 7_666
Zn1 Zn2 3.009(6) 7_566
Zn1 Zn2 3.009(6) 7_676
Zn1 Nd1 3.274(6) 1_665
Zn1 Nd1 3.274(6) 1_565
Zn2 As2 2.493(4) .
Zn2 As1 2.5582(17) 7_666
Zn2 As1 2.5582(17) 7_676
Zn2 As1 2.5582(17) 7_566
Zn2 Zn1 3.009(6) 7_666
Zn2 Zn1 3.009(6) 7_566
Zn2 Zn1 3.009(6) 7_676
Zn2 Nd2 3.583(3) 1_666
Zn2 Nd2 3.583(3) 1_566
Zn2 Nd2 3.583(3) 1_556
Mn As2 2.412(3) 7_666
Mn As2 2.412(3) 7_566
Mn As2 2.412(3) 7_676
Mn Nd1 2.677(7) 1_565
Mn Nd1 2.677(7) 1_665
Mn As2 2.808(16) .
As1 Zn2 2.5582(17) 7_666
As1 Zn2 2.5582(17) 7_676
As1 Zn2 2.5582(17) 7_566
As1 Nd2 2.9546(17) 1_565
As1 Nd2 2.9546(17) 1_665
As2 Mn 2.412(3) 7_666
As2 Mn 2.412(3) 7_566
As2 Mn 2.412(3) 7_676
As2 Zn1 2.472(3) 7_666
As2 Zn1 2.472(3) 7_676
As2 Zn1 2.472(3) 7_566
As2 Nd1 2.8643(18) 1_565
As2 Nd1 2.8643(18) 1_665
