#------------------------------------------------------------------------------
#$Date: 2016-02-16 22:30:59 +0200 (Tue, 16 Feb 2016) $
#$Revision: 176467 $
#$URL: svn://www.crystallography.net/cod/cif/4/34/05/4340520.cif $
#------------------------------------------------------------------------------
#
# This file is available in the Crystallography Open Database (COD),
# http://www.crystallography.net/
#
# All data on this site have been placed in the public domain by the
# contributors.
#
data_4340520
loop_
_publ_author_name
'Lin, Xinsong'
'Tabassum, Danisa'
'Rudyk, Brent W.'
'Mar, Arthur'
_publ_section_title
;
 Manganese-Substituted Rare-Earth Zinc Arsenides RE1-yMnxZn2-xAs2 (RE =
 Eu-Lu) and RE2-yMnxZn4-xAs4 (RE = La-Nd, Sm, Gd).
;
_journal_issue                   16
_journal_name_full               'Inorganic chemistry'
_journal_page_first              8431
_journal_page_last               8441
_journal_paper_doi               10.1021/ic501053v
_journal_volume                  53
_journal_year                    2014
_chemical_formula_structural     'Ce1.30 Mn0.83 Zn3.17 As4'
_chemical_formula_sum            'As4 Ce1.3 Mn0.83 Zn3.17'
_chemical_formula_weight         734.66
_chemical_name_common
'cerium manganese zinc arsenide (1.3/0.8/3.2/4)'
_chemical_name_systematic
'cerium manganese zinc arsenide (1.3/0.8/3.2/4)'
_space_group_crystal_system      trigonal
_space_group_IT_number           164
_space_group_name_Hall           '-P 3 2"'
_space_group_name_H-M_alt        'P -3 m 1'
_symmetry_space_group_name_Hall  '-P 3 2"'
_symmetry_space_group_name_H-M   'P -3 m 1'
_atom_sites_solution_primary     direct
_atom_sites_solution_secondary   difmap
_audit_creation_method           SHELXL-2013
_cell_angle_alpha                90
_cell_angle_beta                 90
_cell_angle_gamma                120
_cell_formula_units_Z            1
_cell_length_a                   4.156(5)
_cell_length_b                   4.156(5)
_cell_length_c                   13.569(16)
_cell_measurement_reflns_used    719
_cell_measurement_temperature    296(2)
_cell_measurement_theta_max      26.90
_cell_measurement_theta_min      5.67
_cell_volume                     203.0(4)
_computing_cell_refinement       'Bruker SAINT 8.32B (Bruker, 2011)'
_computing_data_collection       'Bruker APEX 2 (Bruker, 2008)'
_computing_data_reduction        'Bruker SAINT 8.32B'
_computing_molecular_graphics    'ATOMS 5.1 (Dowty, 1999)'
_computing_publication_material  'Bruker SHELXTL'
_computing_structure_refinement  'Bruker SHELXTL'
_computing_structure_solution    'Bruker SHELXTL'
_diffrn_ambient_temperature      296(2)
_diffrn_measured_fraction_theta_full 1.000
_diffrn_measured_fraction_theta_max 1.000
_diffrn_measurement_device_type  'Bruker PLATFORM/SMART APEX II CCD'
_diffrn_measurement_method       '\w scans'
_diffrn_radiation_type           MoK\a
_diffrn_radiation_wavelength     0.71073
_diffrn_reflns_av_R_equivalents  0.0598
_diffrn_reflns_av_unetI/netI     0.0266
_diffrn_reflns_Laue_measured_fraction_full 1.000
_diffrn_reflns_Laue_measured_fraction_max 1.000
_diffrn_reflns_limit_h_max       5
_diffrn_reflns_limit_h_min       -6
_diffrn_reflns_limit_k_max       6
_diffrn_reflns_limit_k_min       -6
_diffrn_reflns_limit_l_max       19
_diffrn_reflns_limit_l_min       -19
_diffrn_reflns_number            2484
_diffrn_reflns_point_group_measured_fraction_full 1.000
_diffrn_reflns_point_group_measured_fraction_max 1.000
_diffrn_reflns_theta_full        25.242
_diffrn_reflns_theta_max         30.873
_diffrn_reflns_theta_min         1.501
_diffrn_source                   'fine-focus sealed tube'
_exptl_absorpt_coefficient_mu    33.693
_exptl_absorpt_correction_T_max  0.5830
_exptl_absorpt_correction_T_min  0.3529
_exptl_absorpt_correction_type   numerical
_exptl_absorpt_process_details   'Bruker SHELXTL 6.12 (Sheldrick, 2001)'
_exptl_crystal_colour            black
_exptl_crystal_density_diffrn    6.010
_exptl_crystal_description       irregular
_exptl_crystal_F_000             323
_exptl_crystal_size_max          0.046
_exptl_crystal_size_mid          0.032
_exptl_crystal_size_min          0.024
_refine_diff_density_max         2.170
_refine_diff_density_min         -4.009
_refine_diff_density_rms         0.478
_refine_ls_extinction_method     none
_refine_ls_goodness_of_fit_ref   1.192
_refine_ls_hydrogen_treatment    undef
_refine_ls_matrix_type           full
_refine_ls_number_parameters     22
_refine_ls_number_reflns         301
_refine_ls_number_restraints     0
_refine_ls_restrained_S_all      1.192
_refine_ls_R_factor_all          0.0495
_refine_ls_R_factor_gt           0.0445
_refine_ls_shift/su_max          0.000
_refine_ls_shift/su_mean         0.000
_refine_ls_structure_factor_coef Fsqd
_refine_ls_weighting_details
'w=1/[\s^2^(Fo^2^)+(0.0449P)^2^+7.7064P] where P=(Fo^2^+2Fc^2^)/3'
_refine_ls_weighting_scheme      calc
_refine_ls_wR_factor_gt          0.1230
_refine_ls_wR_factor_ref         0.1250
_reflns_Friedel_coverage         0.000
_reflns_number_gt                274
_reflns_number_total             301
_reflns_threshold_expression     'I > 2\s(I)'
_cod_data_source_file            ic501053v_si_003.cif
_cod_data_source_block           Ce(Mn,Zn)4As4
_cod_depositor_comments
'Adding full bibliography for 4340510--4340524.cif.'
_cod_original_cell_volume        203.0(5)
_cod_original_formula_sum        'As4 Ce1.30 Mn0.83 Zn3.17'
_cod_database_code               4340520
#BEGIN Tags that were not found in dictionaries:
_shelx_space_group_comment
;
The symmetry employed for this shelxl refinement is uniquely defined
by the following loop, which should always be used as a source of
symmetry information in preference to the above space-group names.
They are only intended as comments.
;
_shelx_estimated_absorpt_t_min   0.306
_shelx_estimated_absorpt_t_max   0.499
_shelxl_version_number           2013-4
_shelx_res_file
;
TITL Ce1.3Mn0.8Zn3.24As4 P-3m1 lsf final refinement
CELL 0.71073   4.1562   4.1562  13.5690  90.000  90.000 120.000
ZERR    1.00   0.0050   0.0050   0.0163   0.000   0.000   0.000
LATT  1
SYMM -Y, X-Y, Z
SYMM -X+Y, -X, Z
SYMM Y, X, -Z
SYMM X-Y, -Y, -Z
SYMM -X, -X+Y, -Z
SFAC MN ZN AS CE
UNIT 0.83 3.17 4 1.30
TEMP 23
SIZE 0.024 0.032 0.046

L.S. 4
ACTA

WGHT    0.044900    7.706400
FVAR       0.13732   0.58560
CE1   4    0.000000    0.000000    0.500000     0.02498    0.03775    0.03775 =
         0.03272    0.00000    0.00000    0.01887
CE2   4    0.000000    0.000000    0.000000    10.08333    0.01776    0.01776 =
         0.01997    0.00000    0.00000    0.00888
ZN1   2    0.333333    0.666667    0.332370    20.16667    0.01658    0.01658 =
         0.03429    0.00000    0.00000    0.00829
ZN2   2    0.333333    0.666667    0.801596    10.16667    0.01760    0.01760 =
         0.01709    0.00000    0.00000    0.00880
MN    1    0.333333    0.666667    0.409900   -20.16667    0.02700    0.02700 =
         0.05564    0.00000    0.00000    0.01350
AS1   3    0.333333    0.666667    0.131965    10.16667    0.01098    0.01098 =
         0.01228    0.00000    0.00000    0.00549
AS2   3    0.333333    0.666667    0.615679    10.16667    0.01699    0.01699 =
         0.01475    0.00000    0.00000    0.00849
HKLF 4

REM  Ce1.3Mn0.8Zn3.24As4 P-3m1 lsf final refinement
REM R1 =  0.0445 for     274 Fo > 4sig(Fo)  and  0.0495 for all     301 data
REM     22 parameters refined using      0 restraints

END

WGHT      0.0447      7.6904

REM Highest difference peak  2.170,  deepest hole -4.009,  1-sigma level  0.478
Q1    1   0.3333  0.6667  0.1780  10.16667  0.05    2.17
Q2    1   0.2762  0.5524  0.3731  10.50000  0.05    1.40
Q3    1   0.3333  0.6667  0.0639  10.16667  0.05    1.19
Q4    1   0.0000  1.0000  0.8112  10.16667  0.05    1.02
Q5    1   0.4833  0.5167  0.8406  10.50000  0.05    0.95
Q6    1   0.0636  0.1272  0.1274  10.50000  0.05    0.91
Q7    1   0.1513  0.3025  0.4179  10.50000  0.05    0.88
Q8    1   0.1538  0.3075  0.6089  10.50000  0.05    0.84
Q9    1   0.4784  0.5216  0.0865  10.50000  0.05    0.81
Q10   1   0.3333  0.6667 -0.0118  10.16667  0.05    0.80
Q11   1   0.3333  0.6667  0.6917  10.16667  0.05    0.77
Q12   1   0.3881  0.4268  0.4801  11.00000  0.05    0.76
Q13   1   0.0198  0.4164  0.4085  11.00000  0.05    0.75
Q14   1  -0.1388 -0.2776  0.4866  10.50000  0.05    0.74
Q15   1  -0.0381  0.5782  0.3111  11.00000  0.05    0.69
Q16   1   0.2663  0.5327  0.8954  10.50000  0.05    0.64
Q17   1   0.1580  0.3160  0.8365  10.50000  0.05    0.63
Q18   1   0.2850  0.5701  0.5114  10.50000  0.05    0.62
Q19   1   0.0516  0.1032  0.0690  10.50000  0.05    0.60
Q20   1   0.1227  0.2454  0.7062  10.50000  0.05    0.57
;
_shelx_res_checksum              43038
_shelx_hkl_file
;
   0  -1 -19    5.90    2.63
   1  -1 -19    5.26    2.44
  -1   0 -19    5.88    2.55
   0   0 -19    0.89    1.93
   1   0 -19    8.76    2.86
  -1   1 -19    1.09    1.89
   0   1 -19    2.62    2.42
   0  -2 -18    2.99    2.25
   1  -2 -18    2.67    2.16
  -1  -1 -18    2.26    2.20
   0  -1 -18   25.84    4.17
   1  -1 -18   -0.34    1.70
  -2   0 -18   18.47    4.18
  -1   0 -18    0.80    1.73
   0   0 -18    1.49    1.69
   1   0 -18   24.46    3.80
   2   0 -18    0.91    3.59
  -2   1 -18    1.49    2.26
  -1   1 -18   34.99    4.92
   0   1 -18    4.33    2.25
   1   1 -18   -0.27    1.64
  -2   2 -18   -1.16    1.88
  -1   2 -18   -1.13    1.94
   0   2 -18   18.49    3.88
   0  -2 -17    5.47    2.49
   1  -2 -17    1.50    1.85
  -1  -1 -17    4.87    2.35
   0  -1 -17   16.98    3.24
   1  -1 -17    6.56    2.45
  -2   0 -17   17.10    3.89
  -1   0 -17    4.20    2.13
   0   0 -17    5.45    2.00
   1   0 -17   25.78    3.84
   2   0 -17    4.00    3.40
  -2   1 -17    4.11    2.34
  -1   1 -17   25.08    4.09
   0   1 -17    6.63    2.56
   1   1 -17    3.48    1.74
  -2   2 -17    7.00    2.94
  -1   2 -17    0.99    2.03
   0   2 -17   19.26    3.78
   0  -3 -16   26.81    4.66
   1  -3 -16   -0.94    1.84
  -1  -2 -16    0.07    2.20
   0  -2 -16    1.10    1.83
   1  -2 -16   44.82    5.02
   3  -2 -16    1.52    3.32
  -2  -1 -16    2.49    2.50
  -1  -1 -16   35.74    5.00
   0  -1 -16    0.53    1.52
   1  -1 -16    5.61    2.02
   2  -1 -16   41.50    7.03
   3  -1 -16    0.99    3.10
  -3   0 -16   24.31    4.82
  -2   0 -16   -0.21    1.72
  -1   0 -16    2.95    1.85
   0   0 -16   50.36    5.24
   1   0 -16    0.99    1.23
   2   0 -16   -0.76    2.50
   3   0 -16   27.24    6.96
  -3   1 -16    2.54    2.55
  -2   1 -16   40.04    5.32
  -1   1 -16   -0.42    1.39
   0   1 -16    5.45    2.10
   1   1 -16   37.54    3.83
   2   1 -16   -0.07    2.74
  -3   2 -16    0.60    2.13
  -2   2 -16    1.90    1.99
  -1   2 -16   51.09    5.75
   0   2 -16    3.05    2.14
   1   2 -16    3.78    2.36
  -3   3 -16   19.19    4.27
  -2   3 -16   -0.03    2.06
  -1   3 -16    0.13    1.96
   0   3 -16   22.89    4.41
   0  -3 -15   33.89    5.05
   1  -3 -15    1.73    1.92
   3  -3 -15   35.54    7.41
  -1  -2 -15   -1.14    1.71
   0  -2 -15    9.67    2.75
   1  -2 -15   50.37    5.22
   2  -2 -15    1.01    1.53
   3  -2 -15   10.65    4.22
  -2  -1 -15    4.83    1.63
  -1  -1 -15   60.34    6.34
   0  -1 -15    1.20    1.58
   1  -1 -15   14.26    2.85
   2  -1 -15   63.28    4.21
   3  -1 -15   -1.29    2.55
  -3   0 -15   37.34    3.43
  -2   0 -15    1.72    1.84
  -1   0 -15   16.07    3.24
   0   0 -15   71.02    5.18
   1   0 -15    1.14    1.28
   2   0 -15   11.12    2.21
   3   0 -15   30.24    6.59
  -3   1 -15    7.85    3.10
  -2   1 -15   61.93    6.16
  -1   1 -15    4.08    2.06
   0   1 -15   14.30    2.94
   1   1 -15   63.44    4.69
   2   1 -15    2.42    1.63
  -3   2 -15    0.63    1.77
  -2   2 -15   11.45    2.92
  -1   2 -15   55.71    6.03
   0   2 -15    0.29    1.62
   1   2 -15    4.81    2.47
  -3   3 -15   43.86    5.74
  -2   3 -15    1.66    1.94
  -1   3 -15    6.91    2.60
   0   3 -15   39.62    5.12
   1  -4 -14   19.87    3.93
  -1  -3 -14   19.50    4.46
   0  -3 -14    4.46    2.48
   1  -3 -14   -0.79    1.47
   2  -3 -14   23.78    3.57
   3  -3 -14    8.07    4.21
   4  -3 -14    0.07    3.63
  -2  -2 -14    2.49    2.81
  -1  -2 -14    1.84    2.09
   0  -2 -14   20.76    3.62
   1  -2 -14    5.22    1.95
   2  -2 -14    0.96    1.27
   3  -2 -14   19.32    5.33
   4  -2 -14    2.22    1.95
  -3  -1 -14    0.33    1.57
  -2  -1 -14   18.33    2.33
  -1  -1 -14    6.81    2.53
   0  -1 -14   -0.73    1.02
   1  -1 -14   43.56    3.54
   2  -1 -14    3.68    1.41
   3  -1 -14   -0.25    2.75
   4  -1 -14    6.53    4.67
  -3   0 -14    3.85    1.50
  -2   0 -14    0.58    1.00
  -1   0 -14   44.80    4.95
   0   0 -14    7.21    2.15
   1   0 -14    0.54    1.07
   2   0 -14   33.38    3.33
   3   0 -14    4.88    3.15
  -4   1 -14    0.38    1.91
  -3   1 -14   27.01    4.68
  -2   1 -14    6.92    2.17
  -1   1 -14    0.29    1.31
   0   1 -14   40.08    4.48
   1   1 -14    6.51    2.22
   2   1 -14    0.32    1.76
   3   1 -14    8.87    4.34
  -3   2 -14   -1.48    1.59
  -2   2 -14   27.86    4.40
  -1   2 -14    6.93    2.29
   0   2 -14    0.29    1.54
   1   2 -14   18.35    3.51
   2   2 -14    2.43    2.28
  -3   3 -14    5.64    2.66
  -2   3 -14   -1.29    1.67
  -1   3 -14   23.15    3.96
   0   3 -14    3.86    2.15
   1   3 -14    1.25    2.08
  -3   4 -14   18.43    3.91
  -2   4 -14    2.36    2.23
  -1   4 -14    0.64    1.81
   1  -4 -13    6.40    2.47
   2  -4 -13    1.94    1.88
  -1  -3 -13    2.69    2.38
   0  -3 -13    3.73    2.36
   1  -3 -13    0.06    1.51
   2  -3 -13    8.63    2.39
   3  -3 -13    1.72    3.31
   4  -3 -13    2.84    3.64
  -2  -2 -13    2.51    2.78
  -1  -2 -13    2.97    2.01
   0  -2 -13    8.79    2.46
   1  -2 -13    0.28    1.25
   2  -2 -13    1.89    1.27
   3  -2 -13    4.25    3.22
   4  -2 -13    0.60    1.53
  -3  -1 -13    3.12    1.68
  -2  -1 -13    8.10    1.73
  -1  -1 -13   -0.54    1.38
   0  -1 -13    5.84    2.04
   1  -1 -13   11.03    1.87
   2  -1 -13    2.18    1.19
   3  -1 -13    0.12    2.48
   4  -1 -13    5.58    4.00
  -3   0 -13    1.50    1.31
  -2   0 -13    3.05    1.16
  -1   0 -13   15.15    2.87
   0   0 -13    3.98    1.27
   1   0 -13    1.61    1.21
   2   0 -13    7.22    1.77
   3   0 -13    3.20    2.82
  -4   1 -13    0.20    1.50
  -3   1 -13    9.54    1.78
  -2   1 -13    0.47    1.39
  -1   1 -13    4.21    1.79
   0   1 -13    7.51    1.95
   1   1 -13    3.18    1.69
   2   1 -13    1.82    1.34
   3   1 -13    4.75    3.53
  -4   2 -13    0.94    1.61
  -3   2 -13    3.59    2.09
  -2   2 -13    9.66    2.70
  -1   2 -13    1.43    1.53
   0   2 -13    3.19    1.70
   1   2 -13    5.50    2.20
   2   2 -13    0.56    2.00
  -3   3 -13    1.93    1.90
  -2   3 -13    1.75    1.89
  -1   3 -13    8.51    2.58
   0   3 -13    3.77    2.04
   1   3 -13    2.56    1.87
  -3   4 -13    3.54    2.51
  -2   4 -13    1.64    1.96
  -1   4 -13    1.79    2.00
   0  -4 -12    5.57    2.69
   1  -4 -12   34.00    4.66
   2  -4 -12    5.01    2.02
   3  -4 -12   15.72    5.47
   4  -4 -12   22.67    6.74
  -1  -3 -12   27.39    4.77
   0  -3 -12    2.22    1.96
   1  -3 -12   17.38    3.14
   2  -3 -12   53.18    4.16
   3  -3 -12    2.22    3.20
   4  -3 -12   13.33    4.89
  -2  -2 -12    4.40    2.64
  -1  -2 -12   17.20    3.60
   0  -2 -12   62.00    5.69
   1  -2 -12    9.35    2.17
   2  -2 -12   25.03    2.67
   3  -2 -12   24.25    5.51
   4  -2 -12    1.96    1.74
  -3  -1 -12    8.66    1.90
  -2  -1 -12   48.28    3.48
  -1  -1 -12    5.07    1.21
   0  -1 -12   24.56    3.40
   1  -1 -12   78.22    3.88
   2  -1 -12    8.41    1.62
   3  -1 -12   22.21    5.23
   4  -1 -12   22.36    5.75
  -4   0 -12   21.14    3.66
  -3   0 -12    4.44    1.46
  -2   0 -12   26.40    2.42
  -1   0 -12   83.20    3.18
   0   0 -12   12.20    1.74
   1   0 -12   26.37    2.65
   2   0 -12   71.97    4.08
   3   0 -12    4.28    2.95
   4   0 -12    9.59    4.80
  -4   1 -12    7.90    2.30
  -3   1 -12   46.62    3.34
  -2   1 -12    7.95    1.34
  -1   1 -12   32.97    3.88
   0   1 -12   78.05    5.18
   1   1 -12    9.58    2.29
   2   1 -12   18.07    3.09
   3   1 -12   20.58    5.53
  -4   2 -12    0.60    1.54
  -3   2 -12   16.95    2.02
  -2   2 -12   51.86    5.46
  -1   2 -12    8.32    2.34
   0   2 -12   30.89    3.92
   1   2 -12   40.17    4.55
   2   2 -12    0.41    1.67
  -3   3 -12    2.72    1.98
  -2   3 -12   13.51    3.12
  -1   3 -12   37.65    4.67
   0   3 -12    4.02    1.81
   1   3 -12    7.83    2.69
  -3   4 -12   24.16    4.18
  -2   4 -12    0.84    1.77
  -1   4 -12    9.62    2.62
   0   4 -12   25.35    4.29
   0  -4 -11    2.14    2.02
   1  -4 -11   34.02    4.55
   2  -4 -11    1.61    1.55
   3  -4 -11    0.20    3.40
   4  -4 -11   39.10    8.03
  -1  -3 -11   33.99    5.03
   0  -3 -11   -0.87    1.31
   1  -3 -11    2.96    1.56
   2  -3 -11   62.86    4.03
   3  -3 -11    1.12    2.84
   4  -3 -11   -0.03    2.88
  -2  -2 -11    0.81    2.04
  -1  -2 -11   -0.04    1.43
   0  -2 -11   93.66    5.86
   1  -2 -11   -0.10    0.91
   2  -2 -11    1.78    1.06
   3  -2 -11   78.53    7.68
   4  -2 -11    1.28    1.25
  -3  -1 -11    0.89    1.15
  -2  -1 -11   59.64    3.46
  -1  -1 -11    0.44    0.78
   0  -1 -11    7.68    1.97
   1  -1 -11  118.85    4.67
   2  -1 -11    1.02    0.89
   3  -1 -11    0.81    2.32
   4  -1 -11   44.20    7.98
  -4   0 -11   21.74    3.57
  -3   0 -11   -0.55    0.91
  -2   0 -11    3.75    1.11
  -1   0 -11  122.93    3.83
   0   0 -11    3.41    1.05
   1   0 -11    7.60    1.43
   2   0 -11   95.41    4.40
   3   0 -11    0.10    2.21
   4   0 -11   -0.05    3.05
  -4   1 -11   -0.85    1.26
  -3   1 -11   72.96    3.47
  -2   1 -11    0.80    0.78
  -1   1 -11    2.63    1.37
   0   1 -11  117.14    6.23
   1   1 -11    0.16    1.09
   2   1 -11    0.95    1.38
   3   1 -11   25.68    5.88
  -4   2 -11    1.22    1.32
  -3   2 -11    1.48    1.06
  -2   2 -11   81.81    5.54
  -1   2 -11    2.34    1.43
   0   2 -11    0.78    1.13
   1   2 -11   56.74    5.25
   2   2 -11    0.52    1.45
  -4   3 -11   42.87    4.21
  -3   3 -11    0.37    1.51
  -2   3 -11   -0.43    1.31
  -1   3 -11   59.49    5.42
   0   3 -11    0.16    1.27
   1   3 -11   -0.72    1.30
  -3   4 -11   36.88    4.78
  -2   4 -11    1.36    1.58
  -1   4 -11   -0.32    1.35
   0   4 -11   20.42    3.69
   2  -5 -10   25.85    4.04
   3  -5 -10    2.68    4.30
   1  -4 -10   10.82    2.62
   2  -4 -10   24.81    2.91
   3  -4 -10   34.09    7.05
   4  -4 -10    5.13    4.18
  -2  -3 -10   36.19    5.46
  -1  -3 -10    7.28    2.66
   0  -3 -10   43.64    5.00
   1  -3 -10   70.45    5.11
   2  -3 -10   25.79    2.74
   3  -3 -10   26.03    5.88
   4  -3 -10   38.24    3.61
   5  -3 -10    2.10    1.78
  -3  -2 -10    5.73    1.78
  -2  -2 -10   21.79    2.48
  -1  -2 -10   82.59    5.91
   0  -2 -10   38.10    4.20
   1  -2 -10   64.22    3.52
   2  -2 -10  104.93    4.83
   3  -2 -10   22.79    2.41
   4  -2 -10   18.96    2.66
   5  -2 -10   22.06    3.36
  -3  -1 -10   43.07    3.46
  -2  -1 -10   22.24    2.23
  -1  -1 -10   63.67    2.94
   0  -1 -10  140.52    5.00
   1  -1 -10   55.13    2.95
   2  -1 -10   64.43    3.21
   3  -1 -10   84.48    7.77
   4  -1 -10   15.71    5.08
  -4   0 -10    4.54    2.05
  -3   0 -10   28.32    2.61
  -2   0 -10   99.26    3.84
  -1   0 -10   53.09    2.33
   0   0 -10   94.16    3.75
   1   0 -10  140.51    5.03
   2   0 -10   40.80    3.15
   3   0 -10   31.35    5.73
   4   0 -10   28.02    6.38
  -4   1 -10   32.93    3.93
  -3   1 -10   17.78    1.94
  -2   1 -10   63.98    2.78
  -1   1 -10  141.84    3.86
   0   1 -10   43.93    4.14
   1   1 -10   67.91    4.34
   2   1 -10   85.95    5.03
   3   1 -10   13.97    4.52
  -5   2 -10    6.90    2.32
  -4   2 -10   18.95    3.00
  -3   2 -10   77.92    3.45
  -2   2 -10   33.60    2.09
  -1   2 -10   68.36    4.68
   0   2 -10  109.99    5.79
   1   2 -10   22.54    3.16
   2   2 -10   26.81    3.66
   3   2 -10   29.66    6.59
  -5   3 -10   24.39    3.69
  -4   3 -10   13.25    2.62
  -3   3 -10   37.35    2.80
  -2   3 -10   69.94    5.21
  -1   3 -10   20.92    3.16
   0   3 -10   35.02    4.04
   1   3 -10   44.47    4.86
   2   3 -10    6.56    2.54
  -3   4 -10    7.57    2.53
  -2   4 -10   24.47    3.84
  -1   4 -10   42.73    4.90
   0   4 -10    6.24    2.36
  -3   5 -10   21.25    3.94
  -2   5 -10    4.66    2.55
   1  -5  -9    2.57    2.30
   2  -5  -9   15.60    3.28
   3  -5  -9    1.18    3.93
   4  -5  -9    1.27    3.92
  -1  -4  -9    2.38    2.20
   0  -4  -9   16.41    3.36
   1  -4  -9    0.68    1.51
   2  -4  -9    3.24    1.44
   3  -4  -9   19.66    5.53
   4  -4  -9   -0.03    3.23
   5  -4  -9   -0.92    3.39
  -2  -3  -9   18.69    4.13
  -1  -3  -9    1.21    1.69
   0  -3  -9    9.10    2.45
   1  -3  -9   44.38    3.48
   2  -3  -9    3.44    1.31
   3  -3  -9    5.33    3.41
   4  -3  -9   27.57    2.94
   5  -3  -9    0.11    1.45
  -3  -2  -9    0.95    1.45
  -2  -2  -9    2.74    1.20
  -1  -2  -9   51.39    4.74
   0  -2  -9    2.01    1.26
   1  -2  -9    5.23    1.29
   2  -2  -9   50.64    2.95
   3  -2  -9    3.11    1.19
   4  -2  -9    1.86    1.26
   5  -2  -9   16.94    3.00
  -4  -1  -9    2.01    1.94
  -3  -1  -9   23.53    2.56
  -2  -1  -9    3.38    1.12
  -1  -1  -9    7.62    1.18
   0  -1  -9   73.22    3.31
   1  -1  -9   10.77    1.55
   2  -1  -9    7.98    1.35
   3  -1  -9   55.96    7.65
   4  -1  -9    1.38    1.14
   5  -1  -9    1.42    1.75
  -4   0  -9    1.00    1.70
  -3   0  -9    5.54    1.26
  -2   0  -9   55.70    2.83
  -1   0  -9    8.78    1.14
   0   0  -9   12.15    2.04
   1   0  -9   73.04    3.27
   2   0  -9    3.25    1.10
   3   0  -9    1.45    2.09
   4   0  -9   22.99    5.88
  -5   1  -9   -0.10    1.65
  -4   1  -9   21.74    3.15
  -3   1  -9    2.41    0.99
  -2   1  -9    7.49    1.17
  -1   1  -9   76.14    2.50
   0   1  -9    6.69    1.65
   1   1  -9    7.90    1.67
   2   1  -9   45.06    4.05
   3   1  -9    0.33    2.34
   4   1  -9    2.77    3.23
  -5   2  -9    0.36    1.10
  -4   2  -9    3.18    1.13
  -3   2  -9   47.70    2.74
  -2   2  -9    4.99    0.97
  -1   2  -9    9.02    1.98
   0   2  -9   58.21    4.11
   1   2  -9    3.22    1.49
   2   2  -9    3.18    1.71
   3   2  -9   15.41    4.80
  -5   3  -9   13.61    2.74
  -4   3  -9    0.81    1.33
  -3   3  -9    5.34    1.29
  -2   3  -9   35.07    3.95
  -1   3  -9    2.51    1.42
   0   3  -9    3.80    1.75
   1   3  -9   21.99    3.45
   2   3  -9   -1.16    1.56
  -5   4  -9    2.68    1.90
  -4   4  -9   27.79    3.66
  -3   4  -9    0.34    1.55
  -2   4  -9    3.06    1.79
  -1   4  -9   17.32    3.18
   0   4  -9    1.17    1.62
   1   4  -9    5.20    2.49
  -3   5  -9   15.34    3.24
  -2   5  -9    3.61    2.07
  -1   5  -9    2.77    2.01
   1  -5  -8   14.65    3.42
   2  -5  -8    3.13    1.92
   3  -5  -8    0.79    3.31
   4  -5  -8   11.52    5.03
  -1  -4  -8   15.74    3.90
   0  -4  -8    0.68    1.48
   1  -4  -8    1.46    1.39
   2  -4  -8   31.82    3.11
   3  -4  -8    3.24    3.41
   4  -4  -8    0.26    3.37
   5  -4  -8    5.72    4.23
  -2  -3  -8    6.66    2.62
  -1  -3  -8    4.74    2.11
   0  -3  -8   44.88    4.61
   1  -3  -8    6.98    1.55
   2  -3  -8    2.16    1.07
   3  -3  -8   40.71    3.19
   4  -3  -8    3.59    1.38
   5  -3  -8    0.41    1.42
  -3  -2  -8    1.41    1.32
  -2  -2  -8   33.88    2.81
  -1  -2  -8    7.63    1.98
   0  -2  -8    1.47    0.87
   1  -2  -8   79.35    3.55
   2  -2  -8    9.98    1.05
   3  -2  -8    2.31    1.15
   4  -2  -8   28.40    2.93
   5  -2  -8    0.44    1.51
  -4  -1  -8   15.31    3.17
  -3  -1  -8    4.03    1.26
  -2  -1  -8    3.98    1.09
  -1  -1  -8   75.73    3.03
   0  -1  -8   19.26    1.97
   1  -1  -8    5.94    1.17
   2  -1  -8   75.15    3.23
   3  -1  -8    8.40    3.07
   4  -1  -8    0.86    1.13
   5  -1  -8   13.29    2.65
  -4   0  -8    0.63    1.40
  -3   0  -8   40.85    2.90
  -2   0  -8   10.83    1.43
  -1   0  -8    6.93    0.76
   0   0  -8  104.46    4.94
   1   0  -8   18.36    2.27
   2   0  -8    5.34    1.18
   3   0  -8   32.90    5.47
   4   0  -8   -0.13    2.37
  -5   1  -8   12.05    2.10
  -4   1  -8    5.41    1.29
  -3   1  -8    4.29    0.94
  -2   1  -8   73.07    2.90
  -1   1  -8   17.04    1.31
   0   1  -8    4.16    1.20
   1   1  -8   80.11    4.29
   2   1  -8    4.48    1.39
   3   1  -8    0.96    1.98
   4   1  -8   15.74    5.07
  -5   2  -8    2.28    1.17
  -4   2  -8   30.98    2.52
  -3   2  -8    8.46    1.02
  -2   2  -8    4.62    0.93
  -1   2  -8   79.59    2.50
   0   2  -8    7.14    1.72
   1   2  -8    1.52    1.17
   2   2  -8   46.27    4.55
  -5   3  -8    1.50    1.72
  -4   3  -8    0.18    1.17
  -3   3  -8   40.18    2.76
  -2   3  -8    7.87    1.19
  -1   3  -8    3.08    1.40
   0   3  -8   40.47    4.26
   1   3  -8    6.54    1.98
   2   3  -8   -0.40    1.55
  -5   4  -8   10.16    2.52
  -4   4  -8    1.59    1.57
  -3   4  -8    1.02    1.53
  -2   4  -8   35.31    4.09
  -1   4  -8    2.05    1.52
   0   4  -8    2.75    1.81
   1   4  -8   18.42    3.47
  -3   5  -8    0.25    1.72
  -2   5  -8    2.50    2.09
  -1   5  -8    8.15    2.80
   1  -5  -7    3.94    2.18
   2  -5  -7    4.15    1.68
   3  -5  -7    4.29    3.75
   4  -5  -7    0.94    3.32
  -1  -4  -7    4.44    2.44
   0  -4  -7    4.91    2.14
   1  -4  -7    3.80    1.49
   2  -4  -7    4.01    1.38
   3  -4  -7   10.59    4.05
   4  -4  -7   -0.15    2.96
   5  -4  -7    0.60    1.60
  -2  -3  -7    1.89    2.01
  -1  -3  -7    1.66    1.59
   0  -3  -7    1.33    1.38
   1  -3  -7   10.08    1.61
   2  -3  -7    3.70    1.17
   3  -3  -7    4.33    1.29
   4  -3  -7    4.60    1.52
   5  -3  -7    3.91    1.71
  -3  -2  -7    3.07    1.40
  -2  -2  -7    3.08    1.13
  -1  -2  -7   12.79    2.37
   0  -2  -7    7.11    1.23
   1  -2  -7    4.93    0.67
   2  -2  -7   13.71    1.16
   3  -2  -7    4.00    1.13
   4  -2  -7    1.52    1.22
   5  -2  -7    3.99    1.76
  -4  -1  -7    2.31    1.78
  -3  -1  -7    6.92    1.40
  -2  -1  -7    2.51    1.00
  -1  -1  -7    2.67    0.79
   0  -1  -7   24.42    1.91
   1  -1  -7   12.66    1.44
   2  -1  -7    3.53    0.86
   3  -1  -7   12.05    3.39
   4  -1  -7    4.79    1.58
   5  -1  -7    2.66    1.96
  -4   0  -7    1.82    1.06
  -3   0  -7    3.81    0.86
  -2   0  -7   15.03    1.51
  -1   0  -7    9.89    1.08
   0   0  -7    3.07    1.07
   1   0  -7   22.50    2.27
   2   0  -7    7.99    1.25
   3   0  -7    4.16    2.52
   4   0  -7    2.78    3.05
  -5   1  -7    3.72    1.43
  -4   1  -7    5.81    1.28
  -3   1  -7    6.09    0.91
  -2   1  -7    3.22    0.84
  -1   1  -7   20.92    1.25
   0   1  -7    9.20    1.57
   1   1  -7    3.89    1.15
   2   1  -7   11.54    1.99
   3   1  -7    2.36    2.36
   4   1  -7    3.31    3.22
  -5   2  -7    2.44    1.19
  -4   2  -7    3.55    1.08
  -3   2  -7   10.92    1.14
  -2   2  -7    6.64    1.03
  -1   2  -7    4.28    0.74
   0   2  -7   16.80    2.38
   1   2  -7    6.70    1.81
   2   2  -7    5.28    1.82
  -5   3  -7    3.73    1.87
  -4   3  -7    2.72    1.52
  -3   3  -7    2.94    0.98
  -2   3  -7   12.91    1.47
  -1   3  -7    4.98    1.63
   0   3  -7    1.27    1.26
   1   3  -7    5.26    1.93
   2   3  -7    2.56    2.07
  -5   4  -7    1.20    1.86
  -4   4  -7    5.03    1.84
  -3   4  -7    2.92    1.15
  -2   4  -7    3.59    1.71
  -1   4  -7    6.73    2.15
   0   4  -7    3.28    1.69
   1   4  -7    1.77    1.83
  -4   5  -7    2.99    2.03
  -3   5  -7    0.49    1.66
  -2   5  -7   -0.18    1.61
  -1   5  -7   -0.18    1.66
   1  -5  -6   16.69    3.46
   2  -5  -6    9.72    2.18
   3  -5  -6   42.54    7.70
   4  -5  -6    9.52    4.61
  -1  -4  -6   13.56    3.20
   0  -4  -6   19.35    3.46
   1  -4  -6   91.39    4.52
   2  -4  -6   25.10    2.71
   3  -4  -6   16.60    4.89
   4  -4  -6   46.96    7.94
   5  -4  -6   12.36    2.35
  -2  -3  -6   14.47    3.37
  -1  -3  -6   85.88    5.83
   0  -3  -6   37.69    3.07
   1  -3  -6   49.19    3.01
   2  -3  -6  165.10    6.61
   3  -3  -6   35.77    2.91
   4  -3  -6   23.83    2.66
   5  -3  -6   52.48    4.33
  -3  -2  -6   51.42    3.80
  -2  -2  -6   28.03    2.57
  -1  -2  -6   49.36    2.62
   0  -2  -6  252.17    7.00
   1  -2  -6   68.37    1.97
   2  -2  -6   70.66    2.28
   3  -2  -6  176.35    5.67
   4  -2  -6   21.04    2.49
   5  -2  -6    9.21    2.02
  -4  -1  -6   12.98    3.05
  -3  -1  -6   21.37    2.19
  -2  -1  -6  179.30    5.18
  -1  -1  -6   66.27    2.57
   0  -1  -6  101.37    3.49
   1  -1  -6  375.44    8.92
   2  -1  -6   68.60    2.78
   3  -1  -6   55.91    6.90
   4  -1  -6   82.89    4.43
   5  -1  -6   11.99    2.47
  -4   0  -6   61.91    3.61
  -3   0  -6   32.49    1.97
  -2   0  -6   68.05    2.19
  -1   0  -6  375.19    7.66
   0   0  -6  103.32    2.54
   1   0  -6  104.00    4.28
   2   0  -6  261.51    6.77
   3   0  -6   22.98    4.50
   4   0  -6   15.66    2.38
  -5   1  -6   15.18    2.12
  -4   1  -6   26.66    2.47
  -3   1  -6  167.96    3.97
  -2   1  -6   63.43    2.01
  -1   1  -6  103.95    2.80
   0   1  -6  365.24   11.29
   1   1  -6   68.38    1.83
   2   1  -6   56.12    3.41
   3   1  -6   79.29    7.48
   4   1  -6   15.66    4.74
  -5   2  -6   50.32    3.59
  -4   2  -6   25.48    2.25
  -3   2  -6   46.09    2.01
  -2   2  -6  255.34    4.75
  -1   2  -6   64.92    2.39
   0   2  -6   69.88    2.29
   1   2  -6  175.50    7.26
   2   2  -6   21.80    3.01
  -5   3  -6   13.75    1.91
  -4   3  -6   90.89    3.54
  -3   3  -6   33.21    2.42
  -2   3  -6   45.01    2.26
  -1   3  -6  176.90    4.78
   0   3  -6   34.26    3.74
   1   3  -6   20.99    3.10
   2   3  -6   55.80    5.36
  -5   4  -6   16.80    3.21
  -4   4  -6   17.29    2.91
  -3   4  -6   91.94    3.68
  -2   4  -6   21.98    2.12
  -1   4  -6   22.56    3.29
   0   4  -6   60.89    5.68
   1   4  -6   11.89    2.87
  -4   5  -6   11.00    2.69
  -3   5  -6   10.38    2.62
  -2   5  -6   66.28    6.09
  -1   5  -6   11.27    2.89
   0  -5  -5    6.99    2.80
   1  -5  -5   17.69    3.42
   2  -5  -5   -0.62    1.17
   3  -5  -5    5.14    3.63
   4  -5  -5   10.48    5.01
   5  -5  -5    1.75    3.46
  -1  -4  -5    6.65    2.73
   0  -4  -5    2.52    1.76
   1  -4  -5    6.20    1.56
   2  -4  -5   31.45    2.95
   3  -4  -5    0.85    2.70
   4  -4  -5    5.64    1.74
   5  -4  -5   11.99    2.44
  -2  -3  -5    0.83    1.73
  -1  -3  -5   10.64    2.49
   0  -3  -5   45.12    3.01
   1  -3  -5    5.29    1.27
   2  -3  -5    9.10    1.04
   3  -3  -5   45.61    2.94
   4  -3  -5    0.88    1.10
   5  -3  -5    5.65    1.60
  -3  -2  -5    3.63    1.43
  -2  -2  -5   35.66    2.67
  -1  -2  -5    5.06    0.99
   0  -2  -5   10.67    1.39
   1  -2  -5  102.43    2.47
   2  -2  -5   11.85    0.99
   3  -2  -5   12.68    1.96
   4  -2  -5   33.04    3.18
   5  -2  -5   -1.37    1.09
  -4  -1  -5   13.25    3.09
  -3  -1  -5    1.73    0.77
  -2  -1  -5    9.98    1.35
  -1  -1  -5  105.52    3.23
   0  -1  -5   22.29    1.63
   1  -1  -5   11.02    1.16
   2  -1  -5  103.78    3.17
   3  -1  -5    6.87    1.27
   4  -1  -5    5.80    1.56
   5  -1  -5   14.85    2.62
  -5   0  -5    0.67    1.22
  -4   0  -5    6.95    1.45
  -3   0  -5   48.67    2.02
  -2   0  -5   11.40    1.00
  -1   0  -5   11.20    1.04
   0   0  -5  162.47    3.53
   1   0  -5   20.45    1.82
   2   0  -5    9.69    1.20
   3   0  -5   55.85    6.74
   4   0  -5    1.26    1.19
   5   0  -5    2.32    1.82
  -5   1  -5   12.37    2.03
  -4   1  -5   -0.05    0.70
  -3   1  -5    9.37    1.01
  -2   1  -5  102.94    2.53
  -1   1  -5   21.43    1.18
   0   1  -5   10.64    0.58
   1   1  -5  103.00    2.59
   2   1  -5    4.03    1.29
   3   1  -5    9.35    3.28
   4   1  -5   15.19    2.49
  -5   2  -5    4.76    1.32
  -4   2  -5   33.39    2.54
  -3   2  -5    8.10    0.96
  -2   2  -5    9.82    0.85
  -1   2  -5   99.01    2.95
   0   2  -5   14.16    1.20
   1   2  -5   10.10    1.88
   2   2  -5   35.37    3.64
  -5   3  -5    2.78    1.11
  -4   3  -5    9.01    1.41
  -3   3  -5   49.10    2.66
  -2   3  -5    7.94    1.16
  -1   3  -5    7.87    1.17
   0   3  -5   45.47    4.21
   1   3  -5    1.27    1.24
   2   3  -5    5.04    1.99
  -5   4  -5   16.70    3.23
  -4   4  -5    1.59    1.49
  -3   4  -5    7.92    1.38
  -2   4  -5   34.33    2.55
  -1   4  -5    1.23    1.27
   0   4  -5    7.05    2.26
   1   4  -5   15.94    3.13
  -5   5  -5    5.36    2.30
  -4   5  -5   15.34    2.95
  -3   5  -5    0.46    1.05
  -2   5  -5    7.68    2.50
  -1   5  -5   11.36    2.91
   0   5  -5    2.35    1.93
   0  -5  -4    4.50    2.36
   1  -5  -4    8.07    2.15
   2  -5  -4   55.65    4.36
   3  -5  -4    4.82    3.82
   4  -5  -4    2.27    3.31
   5  -5  -4   19.67    5.96
  -1  -4  -4    7.38    2.54
   0  -4  -4   76.14    5.48
   1  -4  -4   11.05    1.87
   2  -4  -4   16.14    2.16
   3  -4  -4   58.31    8.34
   4  -4  -4    8.13    1.95
   5  -4  -4    2.36    1.60
  -2  -3  -4   62.56    6.03
  -1  -3  -4   12.23    2.51
   0  -3  -4   24.36    2.26
   1  -3  -4  194.87    6.11
   2  -3  -4   28.89    1.72
   3  -3  -4   27.58    2.50
   4  -3  -4   94.83    4.51
   5  -3  -4    9.59    2.05
  -3  -2  -4    9.95    1.91
  -2  -2  -4   18.47    2.01
  -1  -2  -4  198.91    4.56
   0  -2  -4   35.88    2.21
   1  -2  -4   49.44    1.58
   2  -2  -4  300.89    5.67
   3  -2  -4   24.99    2.26
   4  -2  -4   18.18    2.29
   5  -2  -4   46.47    4.04
  -4  -1  -4    5.01    1.52
  -3  -1  -4  104.37    3.23
  -2  -1  -4   26.85    1.68
  -1  -1  -4   51.73    1.61
   0  -1  -4  484.12   10.47
   1  -1  -4   60.65    2.22
   2  -1  -4   51.48    1.84
   3  -1  -4  184.43    5.94
   4  -1  -4   16.56    2.27
   5  -1  -4    3.48    1.56
  -5   0  -4   34.43    3.32
  -4   0  -4   11.79    1.76
  -3   0  -4   25.51    1.66
  -2   0  -4  301.60    5.48
  -1   0  -4   57.62    1.60
   0   0  -4   88.20    2.09
   1   0  -4  480.49   12.74
   2   0  -4   39.62    1.89
   3   0  -4   26.55    4.45
   4   0  -4   66.12    4.71
   5   0  -4    7.11    2.50
  -5   1  -4    7.32    1.58
  -4   1  -4  101.40    3.94
  -3   1  -4   26.70    1.54
  -2   1  -4   50.07    1.62
  -1   1  -4  476.96    7.27
   0   1  -4   56.92    1.59
   1   1  -4   50.77    2.79
   3   1  -4   16.94    4.21
   4   1  -4    2.57    1.51
  -5   2  -4    5.57    1.46
  -4   2  -4   12.41    1.60
  -3   2  -4  196.67    4.22
  -2   2  -4   38.61    1.38
  -1   2  -4   48.48    1.94
   0   2  -4  296.71    6.41
   1   2  -4   26.86    1.81
   2   2  -4   13.61    2.38
  -5   3  -4   55.19    3.77
  -4   3  -4   12.84    1.60
  -3   3  -4   23.80    1.49
  -2   3  -4  198.68    5.15
  -1   3  -4   25.65    1.97
   0   3  -4   23.23    1.93
   1   3  -4  103.71    5.81
   2   3  -4    6.83    2.10
  -5   4  -4    3.26    1.90
  -4   4  -4   72.04    5.01
  -3   4  -4   18.16    1.88
  -2   4  -4   16.66    1.85
  -1   4  -4   98.49    3.95
   0   4  -4    8.08    2.38
   1   4  -4    2.25    1.72
  -5   5  -4    4.98    2.36
  -4   5  -4    4.72    2.19
  -3   5  -4   61.36    3.81
  -2   5  -4    8.24    1.61
  -1   5  -4    5.00    2.14
   0   5  -4   29.55    4.32
   0  -5  -3    3.67    2.23
   1  -5  -3    1.34    1.43
   2  -5  -3   13.07    2.22
   3  -5  -3    4.00    3.50
   4  -5  -3    3.90    3.26
   5  -5  -3    6.73    4.07
  -1  -4  -3   -0.31    1.58
   0  -4  -3   13.77    2.22
   1  -4  -3    3.76    1.33
   2  -4  -3    0.61    0.94
   3  -4  -3   21.27    2.45
   4  -4  -3   -0.24    1.15
   5  -4  -3    0.66    1.40
  -2  -3  -3   12.18    2.83
  -1  -3  -3    3.09    1.52
   0  -3  -3    1.67    0.87
   1  -3  -3   36.47    2.78
   2  -3  -3    2.16    0.62
   3  -3  -3    0.86    0.93
   4  -3  -3   23.45    2.56
   5  -3  -3    1.27    1.14
  -3  -2  -3    1.44    1.08
  -2  -2  -3   -1.36    0.74
  -1  -2  -3   39.09    1.88
   0  -2  -3    2.01    0.61
   1  -2  -3   -0.15    0.31
   2  -2  -3   55.24    1.77
   3  -2  -3    2.79    1.00
   4  -2  -3   -1.30    0.72
   5  -2  -3   10.76    2.07
  -4  -1  -3    0.89    1.07
  -3  -1  -3   24.19    1.78
  -2  -1  -3    2.70    0.56
  -1  -1  -3    0.79    0.37
   0  -1  -3   87.58    2.69
   1  -1  -3    2.46    0.54
   2  -1  -3    0.59    0.52
   3  -1  -3   43.02    2.63
   4  -1  -3    2.72    1.14
   5  -1  -3   -0.09    1.34
  -5   0  -3    9.75    2.01
  -4   0  -3    3.97    1.21
  -3   0  -3    0.28    0.46
  -2   0  -3   55.18    1.73
  -1   0  -3    2.70    0.42
   0   0  -3    1.25    0.29
   1   0  -3   90.51    3.12
   2   0  -3    4.04    0.70
   3   0  -3    1.15    1.65
   4   0  -3   25.41    2.74
   5   0  -3    3.83    1.97
  -5   1  -3    0.99    1.02
  -4   1  -3   22.24    2.17
  -3   1  -3    3.17    0.59
  -2   1  -3    0.57    0.35
  -1   1  -3   88.54    1.83
   0   1  -3    2.35    0.44
   1   1  -3    1.51    0.68
   2   1  -3   40.33    2.73
   3   1  -3    4.31    2.32
   4   1  -3   -0.85    1.39
  -5   2  -3    0.87    1.01
  -4   2  -3    0.77    0.79
  -3   2  -3   38.33    1.68
  -2   2  -3    2.64    0.49
  -1   2  -3    0.03    0.42
   0   2  -3   54.72    1.44
   1   2  -3    7.05    1.27
   2   2  -3    0.79    0.98
  -5   3  -3   10.63    1.81
  -4   3  -3    2.63    0.96
  -3   3  -3    0.57    0.50
  -2   3  -3   38.84    1.99
  -1   3  -3    2.08    0.75
   0   3  -3    0.94    1.00
   1   3  -3   23.30    2.81
   2   3  -3    2.49    1.63
  -5   4  -3    0.29    1.57
  -4   4  -3   17.14    2.89
  -3   4  -3    3.96    1.05
  -2   4  -3    0.46    0.79
  -1   4  -3   21.61    2.13
   0   4  -3    1.75    1.37
   1   4  -3    0.30    1.42
  -5   5  -3    2.64    2.12
  -4   5  -3    3.15    1.91
  -3   5  -3   11.80    1.81
  -2   5  -3   -0.47    0.98
  -1   5  -3    0.99    1.57
   0   5  -3    4.78    2.44
   0  -5  -2    0.44    1.71
   1  -5  -2    0.96    1.37
   2  -5  -2   31.86    3.31
   3  -5  -2    0.70    3.05
   4  -5  -2    2.59    3.11
   5  -5  -2   22.01    3.22
  -1  -4  -2    0.81    1.59
   0  -4  -2   42.63    3.73
   1  -4  -2    3.43    1.31
   2  -4  -2    1.64    1.02
   3  -4  -2   60.57    3.71
   4  -4  -2    2.79    1.36
   5  -4  -2   -2.29    1.13
  -2  -3  -2   32.68    4.26
  -1  -3  -2    3.74    1.25
   0  -3  -2    0.79    0.81
   1  -3  -2  111.19    2.93
   2  -3  -2   10.80    1.09
   3  -3  -2   -0.57    0.78
   4  -3  -2   61.70    3.77
   5  -3  -2    2.46    1.36
  -3  -2  -2    5.48    1.38
  -2  -2  -2   -0.17    0.71
  -1  -2  -2  109.61    3.06
   0  -2  -2   21.95    0.97
   1  -2  -2    0.97    0.39
   2  -2  -2  159.02    3.38
   3  -2  -2   13.26    1.66
   4  -2  -2   -0.03    0.84
   5  -2  -2   34.67    3.42
  -4  -1  -2   -0.98    0.92
  -3  -1  -2   62.08    2.39
  -2  -1  -2   11.75    0.94
  -1  -1  -2    1.77    0.33
   0  -1  -2  259.39    5.57
   1  -1  -2   40.47    1.20
   2  -1  -2    0.13    0.50
   3  -1  -2  105.52    4.07
   4  -1  -2    4.81    1.39
   5  -1  -2    0.85    1.26
  -5   0  -2   21.45    2.65
  -4   0  -2    1.27    0.87
  -3   0  -2    0.60    0.42
  -2   0  -2  155.86    2.82
  -1   0  -2   39.40    1.42
   0   0  -2    1.65    0.50
   1   0  -2  259.34    7.02
   2   0  -2   22.33    1.37
   3   0  -2    1.41    0.84
   4   0  -2   55.49    4.14
   5   0  -2    1.62    1.18
  -5   1  -2   -0.33    0.97
  -4   1  -2   60.79    2.95
  -3   1  -2   11.18    0.81
  -2   1  -2    1.08    0.34
  -1   1  -2  263.93    4.17
   0   1  -2   42.35    1.36
   3   1  -2    7.59    2.76
   4   1  -2    1.45    1.48
  -5   2  -2    1.49    1.05
  -4   2  -2    1.60    0.83
  -3   2  -2  107.17    3.57
  -2   2  -2   22.57    1.10
  -1   2  -2    1.15    0.31
   0   2  -2  155.14    3.54
   1   2  -2   10.42    1.57
   2   2  -2    1.12    1.04
  -5   3  -2   38.11    3.16
  -4   3  -2    3.60    1.09
  -3   3  -2    0.12    0.45
  -2   3  -2  107.62    2.69
  -1   3  -2   11.72    1.95
   0   3  -2   -0.42    0.95
   1   3  -2   53.13    3.79
  -5   4  -2    0.40    1.58
  -4   4  -2   40.88    4.34
  -3   4  -2    4.66    1.08
  -2   4  -2    0.22    0.79
  -1   4  -2   57.90    4.19
   0   4  -2   -0.70    1.44
  -5   5  -2    4.96    2.36
  -4   5  -2   -1.01    1.42
  -3   5  -2   34.48    2.74
  -2   5  -2    1.46    1.14
  -1   5  -2   -0.08    1.09
   0   5  -2   20.93    3.64
   0  -5  -1    4.49    2.28
   1  -5  -1    3.44    1.68
   2  -5  -1    2.39    1.48
   3  -5  -1    2.64    3.27
   4  -5  -1    2.07    3.10
   5  -5  -1    2.72    1.80
  -1  -4  -1    2.73    2.05
   0  -4  -1    4.10    1.49
   1  -4  -1    6.92    1.62
   2  -4  -1    5.09    1.39
   3  -4  -1    5.72    1.46
   4  -4  -1    5.47    1.65
   5  -4  -1    3.70    1.69
  -2  -3  -1    3.43    1.84
  -1  -3  -1    6.86    1.49
   0  -3  -1    4.35    1.16
   1  -3  -1    9.38    1.00
   2  -3  -1   17.40    1.00
   3  -3  -1    5.32    1.34
   4  -3  -1    7.36    1.59
   5  -3  -1    3.42    1.17
  -3  -2  -1    2.95    0.98
  -2  -2  -1    4.31    0.75
  -1  -2  -1    8.40    0.77
   0  -2  -1   23.96    1.10
   1  -2  -1    4.92    0.61
   2  -2  -1   11.66    0.89
   3  -2  -1   16.71    1.86
   4  -2  -1    1.89    1.05
   5  -2  -1    1.50    1.19
  -4  -1  -1    4.97    1.35
  -3  -1  -1    7.31    0.93
  -2  -1  -1   18.31    0.94
  -1  -1  -1    3.22    0.36
   0  -1  -1   20.53    0.73
   1  -1  -1   42.73    1.18
   2  -1  -1    2.95    0.81
   3  -1  -1    9.45    1.38
   4  -1  -1    7.01    1.56
   5  -1  -1    2.93    1.17
  -5   0  -1    2.96    1.49
  -4   0  -1    5.55    1.03
  -3   0  -1    2.78    0.57
  -2   0  -1   14.60    0.84
  -1   0  -1   43.62    0.99
   1   0  -1   20.77    1.85
   2   0  -1   31.45    3.57
   3   0  -1    6.24    1.24
   4   0  -1    4.91    1.57
   5   0  -1    2.38    1.24
  -5   1  -1    1.89    1.27
  -4   1  -1    6.55    1.09
  -3   1  -1   16.86    1.30
  -2   1  -1    3.69    0.39
  -1   1  -1   21.36    0.77
   0   1  -1   41.07    1.16
   3   1  -1   11.82    1.73
   4   1  -1    1.04    1.06
  -5   2  -1    2.40    1.15
  -4   2  -1    3.00    0.78
  -3   2  -1   11.29    1.15
  -2   2  -1   25.48    1.13
  -1   2  -1    3.43    0.60
   0   2  -1   11.12    0.93
   1   2  -1   17.04    1.34
  -5   3  -1    4.31    1.33
  -4   3  -1    9.68    1.53
  -3   3  -1    2.26    0.62
  -2   3  -1   10.33    0.95
  -1   3  -1   19.07    1.45
   0   3  -1    3.44    1.34
   1   3  -1   12.31    2.16
   2   3  -1    3.45    1.66
  -5   4  -1    2.79    1.30
  -4   4  -1    6.89    2.03
  -3   4  -1    8.66    1.31
  -2   4  -1    4.77    1.13
  -1   4  -1    5.23    1.81
   0   4  -1    7.70    2.18
  -5   5  -1    2.60    2.06
  -4   5  -1    4.44    1.84
  -3   5  -1    3.60    1.22
  -2   5  -1    2.60    1.25
  -1   5  -1    2.22    1.96
   3  -6   0   38.28    7.38
   0  -5   0    1.51    1.67
   1  -5   0  120.73    5.89
   2  -5   0    1.87    1.33
   3  -5   0    1.80    2.58
   4  -5   0  116.47    7.13
   5  -5   0    3.95    1.89
  -1  -4   0  111.45    5.55
   0  -4   0    2.42    1.23
   1  -4   0    8.11    1.68
   2  -4   0  298.92    6.70
   3  -4   0    5.68    1.48
   4  -4   0    4.99    1.53
   5  -4   0  115.62    5.64
  -2  -3   0    1.04    1.50
  -1  -3   0   10.99    1.73
   0  -3   0  432.58    8.20
   1  -3   0   20.01    1.42
   2  -3   0   17.78    0.94
   3  -3   0  438.41    8.31
   4  -3   0    5.09    1.14
   5  -3   0    1.67    1.00
  -3  -2   0    4.17    1.03
  -2  -2   0  302.42    4.88
  -1  -2   0   19.99    1.14
   0  -2   0   26.88    1.31
   1  -2   0  958.62   15.15
   2  -2   0   30.23    2.16
   3  -2   0   21.86    2.07
   4  -2   0  303.98    8.72
   5  -2   0    1.43    0.97
  -4  -1   0  113.08    4.70
  -3  -1   0    8.66    0.95
  -2  -1   0   18.94    1.05
  -1  -1   0  956.07   11.27
   0  -1   0   57.78    1.12
   1  -1   0   58.71    1.41
   2  -1   0  970.02   19.32
   3  -1   0   22.63    2.06
   4  -1   0    6.01    1.48
   5  -1   0  104.99    4.70
  -5   0   0    1.69    1.33
  -4   0   0    7.27    1.20
  -3   0   0  431.78    6.65
  -2   0   0   28.80    0.93
  -1   0   0   56.91    1.06
   1   0   0   58.26    3.04
   2   0   0   31.27    1.88
   3   0   0  428.80   10.53
   4   0   0    3.52    1.55
   5   0   0    2.75    1.34
  -5   1   0  115.58    4.02
  -4   1   0    7.88    1.11
  -3   1   0   21.34    1.49
  -2   1   0  971.27   14.29
  -1   1   0   56.79    1.34
   0   1   0   57.08    1.53
   3   1   0    7.41    1.38
   4   1   0  119.14    4.74
  -5   2   0    2.47    0.90
  -4   2   0  298.16    6.40
  -3   2   0   20.19    1.42
  -2   2   0   31.79    1.01
  -1   2   0  950.02   17.37
   0   2   0   30.55    0.94
   1   2   0   18.24    1.46
   2   2   0  300.63    7.38
   3   2   0    0.51    1.40
  -6   3   0   61.47    6.45
  -5   3   0    4.20    1.35
  -4   3   0    8.72    1.14
  -3   3   0  431.94    9.68
  -2   3   0   19.17    1.62
  -1   3   0   20.21    1.60
   0   3   0  433.02   13.04
   1   3   0    4.31    1.56
   2   3   0    1.95    1.56
  -5   4   0  118.49    4.94
  -4   4   0    4.08    1.05
  -3   4   0    6.88    1.17
  -2   4   0  292.42   10.83
  -1   4   0    6.06    1.90
   0   4   0    5.02    1.95
   1   4   0  113.33    6.63
  -5   5   0    1.33    1.88
  -4   5   0  120.51    6.95
  -3   5   0    4.13    1.95
  -2   5   0   -1.10    1.53
  -1   5   0  107.03    6.71
   0   5   0    3.74    2.26
  -3   6   0   55.38    5.76
   0  -5   1    0.84    1.57
   1  -5   1    2.48    1.58
   2  -5   1    2.46    1.42
   3  -5   1    0.08    2.43
   4  -5   1    5.37    1.89
   5  -5   1    0.13    1.70
  -1  -4   1    2.77    1.57
   0  -4   1    4.85    1.59
   1  -4   1    6.80    1.60
   2  -4   1    4.84    1.02
   3  -4   1    8.93    1.78
   4  -4   1    3.06    1.40
   5  -4   1    1.81    1.44
  -2  -3   1    5.55    1.50
  -1  -3   1    7.52    1.52
   0  -3   1    3.78    0.82
   1  -3   1   16.66    1.34
   2  -3   1    9.58    0.79
   3  -3   1    2.71    0.76
   4  -3   1    9.54    1.36
   5  -3   1    2.46    1.07
  -3  -2   1    2.11    0.77
  -2  -2   1    4.35    0.62
  -1  -2   1   19.25    1.02
   0  -2   1   13.47    0.73
   1  -2   1    4.17    0.44
   2  -2   1   26.22    1.32
   3  -2   1   10.02    1.13
   4  -2   1    2.69    0.87
   5  -2   1    2.84    1.17
  -4  -1   1    4.95    1.18
  -3  -1   1    6.95    0.80
  -2  -1   1    9.44    0.69
  -1  -1   1    4.59    0.40
   0  -1   1   42.55    0.98
   1  -1   1   20.96    0.87
   2  -1   1    2.96    0.74
   3  -1   1   16.79    1.79
   4  -1   1    3.64    0.94
   5  -1   1    3.62    1.35
  -5   0   1    1.69    1.06
  -4   0   1    2.91    0.93
  -3   0   1    4.63    0.81
  -2   0   1   23.93    1.03
  -1   0   1   19.72    0.56
   0   0   1    2.34    0.30
   1   0   1   42.52    1.51
   2   0   1   14.72    1.35
   3   0   1    4.64    1.11
   4   0   1    7.54    1.40
   5   0   1    0.51    1.10
  -5   1   1    2.85    1.08
  -4   1   1    6.21    1.05
  -3   1   1   10.50    1.08
  -2   1   1    3.85    0.58
  -1   1   1   44.41    1.20
   0   1   1   20.17    0.66
   2   1   1   20.53    2.10
   3   1   1    7.51    1.33
   4   1   1    2.12    1.64
  -5   2   1    3.18    0.96
  -4   2   1    4.69    0.96
  -3   2   1   16.68    1.30
  -2   2   1   12.27    0.95
  -1   2   1    2.65    0.65
   0   2   1   25.94    0.90
   1   2   1    8.56    0.83
   2   2   1    3.99    1.00
   3   2   1    3.11    1.58
  -5   3   1    3.28    1.00
  -4   3   1    4.65    0.93
  -3   3   1    4.84    0.78
  -2   3   1   15.70    1.52
  -1   3   1   10.00    1.23
   0   3   1    3.38    0.88
   1   3   1    8.71    1.35
   2   3   1    3.66    1.90
  -5   4   1    4.80    1.48
  -4   4   1    5.17    1.29
  -3   4   1    3.43    1.03
  -2   4   1    3.97    1.75
  -1   4   1    8.34    2.11
   0   4   1    5.48    2.03
   1   4   1    1.00    1.78
  -5   5   1    1.48    1.70
  -4   5   1    2.25    1.80
  -3   5   1    2.73    1.85
  -2   5   1    2.18    1.74
  -1   5   1    0.57    1.90
   0   5   1    4.65    2.19
   0  -5   2   26.17    3.34
   1  -5   2   -0.21    1.28
   2  -5   2    2.83    3.05
   3  -5   2   32.85    3.44
   4  -5   2    0.90    1.48
   5  -5   2    0.45    1.68
  -1  -4   2   -0.26    1.06
   0  -4   2    5.75    1.62
   1  -4   2   62.11    2.82
   2  -4   2    0.51    0.90
   3  -4   2    4.15    1.43
   4  -4   2   39.43    3.60
   5  -4   2   -1.21    1.34
  -2  -3   2    1.83    1.17
  -1  -3   2   62.64    2.59
   0  -3   2    1.34    0.63
   1  -3   2   10.76    1.15
   2  -3   2  111.85    2.92
   3  -3   2    0.60    0.58
   4  -3   2    3.75    0.94
   5  -3   2   27.88    2.45
  -3  -2   2   41.33    2.74
  -2  -2   2    0.97    0.43
  -1  -2   2   13.60    0.87
   0  -2   2  156.86    2.88
   1  -2   2    1.16    0.34
   2  -2   2   22.75    1.24
   3  -2   2  105.60    3.34
   4  -2   2    1.03    0.74
   5  -2   2    1.05    1.04
  -4  -1   2    0.89    0.86
  -3  -1   2    5.01    0.77
  -2  -1   2  110.87    2.06
  -1  -1   2    1.58    0.28
   0  -1   2   42.86    1.07
   1  -1   2  261.23    4.55
   2  -1   2    1.16    0.44
   3  -1   2    9.32    1.05
   4  -1   2   61.57    3.30
   5  -1   2    2.31    1.19
  -5   0   2    0.17    1.01
  -4   0   2   50.20    2.87
  -3   0   2    0.89    0.48
  -2   0   2   21.53    0.87
  -1   0   2  258.88    3.42
   0   0   2    2.21    0.23
   1   0   2   42.32    1.19
   2   0   2  155.20    3.47
   3   0   2    0.91    0.55
   4   0   2    2.55    1.03
   5   0   2   17.82    2.40
  -5   1   2   -0.02    0.86
  -4   1   2    5.35    1.03
  -3   1   2  111.30    2.98
  -2   1   2    0.66    0.37
  -1   1   2   41.90    1.27
   0   1   2  255.88    4.16
   1   1   2    0.97    0.32
   2   1   2   13.94    1.33
   3   1   2   62.58    2.90
   4   1   2   -1.12    1.19
  -5   2   2   28.96    2.48
  -4   2   2    0.23    0.63
  -3   2   2   13.39    1.21
  -2   2   2  156.74    3.39
  -1   2   2    0.29    0.27
   0   2   2   22.41    0.91
   1   2   2  108.81    2.69
   2   2   2    1.49    0.74
   3   2   2    1.99    1.65
  -5   3   2    2.21    0.91
  -4   3   2   62.45    2.49
  -3   3   2    1.28    0.55
  -2   3   2   11.08    1.45
  -1   3   2  110.98    3.59
   0   3   2    0.52    0.66
   1   3   2    4.17    1.09
   2   3   2   28.86    3.77
  -5   4   2    0.44    1.07
  -4   4   2    4.32    1.28
  -3   4   2   64.05    3.11
  -2   4   2    0.79    1.21
  -1   4   2    3.31    1.69
   0   4   2   40.19    4.46
   1   4   2   -1.37    1.55
  -5   5   2   24.30    4.22
  -4   5   2   -0.30    1.57
  -3   5   2    2.93    1.73
  -2   5   2   31.38    4.28
  -1   5   2    0.33    1.69
   0   5   2    3.73    2.38
   0  -5   3   13.99    4.42
   1  -5   3    0.81    2.52
   2  -5   3    5.11    3.16
   3  -5   3   13.52    2.35
   4  -5   3   -0.59    1.35
   5  -5   3    0.48    1.83
  -1  -4   3   -0.14    1.14
   0  -4   3    1.54    1.09
   1  -4   3   20.82    1.91
   2  -4   3    0.80    0.97
   3  -4   3    4.04    1.46
   4  -4   3   13.46    2.26
   5  -4   3   -0.90    1.28
  -2  -3   3    1.89    1.33
  -1  -3   3   20.70    1.79
   0  -3   3    0.28    0.58
   1  -3   3    2.08    0.69
   2  -3   3   41.30    1.84
   3  -3   3    0.61    0.59
   4  -3   3    2.60    0.88
   5  -3   3   12.66    1.75
  -3  -2   3   11.88    1.67
  -2  -2   3    0.47    0.43
  -1  -2   3    3.45    0.48
   0  -2   3   59.33    1.59
   1  -2   3    0.73    0.40
   2  -2   3    2.62    0.58
   3  -2   3   39.49    2.04
   4  -2   3    1.36    0.80
   5  -2   3    1.70    1.05
  -4  -1   3    0.32    1.05
  -3  -1   3    2.28    0.62
  -2  -1   3   40.47    1.20
  -1  -1   3    0.15    0.22
   0  -1   3    2.45    0.28
   1  -1   3   88.23    2.13
   2  -1   3   -0.14    0.36
   3  -1   3    2.59    0.74
   4  -1   3   22.08    2.20
   5  -1   3    0.52    1.04
  -5   0   3    1.68    1.36
  -4   0   3   18.70    1.79
  -3   0   3    0.62    0.49
  -2   0   3    2.18    0.44
  -1   0   3   88.77    1.54
   0   0   3    0.73    0.25
   1   0   3    2.61    0.50
   2   0   3   54.86    1.79
   3   0   3    1.35    0.62
   4   0   3    0.20    0.81
   5   0   3    6.91    2.46
  -5   1   3    1.36    0.97
  -4   1   3    3.34    0.89
  -3   1   3   36.50    1.99
  -2   1   3    0.32    0.32
  -1   1   3    2.21    0.39
   0   1   3   91.13    1.91
   1   1   3    0.77    0.31
   2   1   3    2.49    0.58
   3   1   3   25.22    2.16
   4   1   3   -0.04    1.33
  -5   2   3   12.67    1.64
  -4   2   3    0.87    0.69
  -3   2   3    2.99    0.70
  -2   2   3   54.08    1.82
  -1   2   3    0.50    0.32
   0   2   3    2.45    0.44
   1   2   3   41.03    1.57
   2   2   3   -0.16    0.60
   3   2   3    0.85    1.25
  -5   3   3    2.43    0.95
  -4   3   3   23.11    1.84
  -3   3   3    0.85    0.56
  -2   3   3    2.06    0.82
  -1   3   3   40.39    2.34
   0   3   3    0.99    0.73
   1   3   3    3.94    1.06
   2   3   3   15.89    2.10
  -5   4   3    1.14    1.10
  -4   4   3    2.25    1.07
  -3   4   3   18.73    2.10
  -2   4   3    0.37    0.80
  -1   4   3    1.80    1.51
   0   4   3   19.84    3.27
   1   4   3   -0.67    1.56
  -5   5   3   12.76    3.39
  -4   5   3    2.26    1.80
  -3   5   3    0.95    1.77
  -2   5   3   15.98    3.08
  -1   5   3   -0.99    1.54
   0   5   3    3.52    2.16
   0  -5   4   33.43    6.74
   1  -5   4    4.49    3.54
   2  -5   4    5.63    3.25
   3  -5   4   52.47    4.52
   4  -5   4    4.49    1.87
   5  -5   4    7.73    2.37
  -1  -4   4    3.07    2.82
   0  -4   4   13.37    2.16
   1  -4   4   90.10    4.49
   2  -4   4   15.54    2.18
   3  -4   4   17.62    2.48
   4  -4   4   80.48    4.40
   5  -4   4    5.56    2.07
  -2  -3   4    7.01    1.84
  -1  -3   4  102.81    3.51
   0  -3   4   26.32    2.47
   1  -3   4   29.41    2.44
   2  -3   4  202.56    4.56
   3  -3   4   21.21    1.70
   4  -3   4   16.03    1.65
   5  -3   4   62.39    4.08
  -3  -2   4   57.64    3.27
  -2  -2   4   17.23    1.35
  -1  -2   4   25.51    1.15
   0  -2   4  302.55    5.85
   1  -2   4   51.12    1.75
   2  -2   4   36.75    1.68
   3  -2   4  194.53    4.64
   4  -2   4   18.51    1.75
   5  -2   4    8.34    1.67
  -4  -1   4    4.59    1.21
  -3  -1   4   14.75    1.18
  -2  -1   4  198.78    3.36
  -1  -1   4   50.72    1.18
   0  -1   4   58.20    1.32
   1  -1   4  476.39    7.95
   2  -1   4   52.78    1.76
   3  -1   4   27.02    2.05
   4  -1   4  109.10    4.14
   5  -1   4    4.06    1.37
  -5   0   4   10.37    2.12
  -4   0   4   74.74    2.96
  -3   0   4   26.80    1.53
  -2   0   4   38.64    1.26
  -1   0   4  471.99    5.92
   0   0   4   86.87    1.67
   1   0   4   59.05    1.51
   2   0   4  298.83    5.61
   3   0   4   21.92    1.92
   4   0   4   10.53    1.64
   5   0   4   27.86    4.33
  -5   1   4    4.82    1.24
  -4   1   4   14.84    1.56
  -3   1   4  200.53    3.82
  -2   1   4   49.88    1.48
  -1   1   4   58.80    1.38
   0   1   4  466.61    7.41
   1   1   4   49.76    1.41
   2   1   4   28.58    1.68
   3   1   4  101.94    4.14
   4   1   4    3.78    1.35
  -5   2   4   53.83    3.23
  -4   2   4   13.06    1.45
  -3   2   4   24.53    1.68
  -2   2   4  298.59    5.68
  -1   2   4   51.58    1.60
   0   2   4   38.03    1.36
   1   2   4  194.96    4.15
   2   2   4   17.92    1.88
   3   2   4    6.00    2.29
  -5   3   4    7.73    1.37
  -4   3   4  101.94    3.40
  -3   3   4   26.62    1.78
  -2   3   4   25.62    2.16
  -1   3   4  195.24    5.55
   0   3   4   26.85    2.21
   1   3   4   13.28    1.80
   2   3   4   52.20    3.79
  -5   4   4    5.51    1.48
  -4   4   4    7.95    1.60
  -3   4   4  103.74    4.20
  -2   4   4   17.86    2.03
  -1   4   4   13.84    1.82
   0   4   4   65.39    5.82
   1   4   4    6.85    2.41
  -5   5   4   39.53    5.26
  -4   5   4    3.72    2.09
  -3   5   4    6.43    2.38
  -2   5   4   47.60    5.27
  -1   5   4    5.92    2.21
   0   5   4    2.89    2.39
   0  -5   5    2.22    3.14
   1  -5   5   12.24    4.61
   2  -5   5    4.38    1.75
   3  -5   5    0.92    1.50
   4  -5   5    9.54    2.34
   5  -5   5    1.73    1.99
  -1  -4   5   11.00    3.64
   0  -4   5    5.72    1.63
   1  -4   5    0.52    1.14
   2  -4   5   28.70    2.83
   3  -4   5    6.41    1.57
   4  -4   5    0.95    1.45
   5  -4   5   12.74    2.54
  -2  -3   5    7.55    1.88
  -1  -3   5    1.17    0.97
   0  -3   5   51.23    3.09
   1  -3   5    9.33    1.51
   2  -3   5    7.18    0.98
   3  -3   5   48.01    2.36
   4  -3   5    7.77    1.26
   5  -3   5    0.75    1.03
  -3  -2   5    0.77    1.01
  -2  -2   5   34.59    2.36
  -1  -2   5    9.90    1.13
   0  -2   5   12.67    1.16
   1  -2   5  101.73    2.78
   2  -2   5   10.63    1.09
   3  -2   5    7.40    1.06
   4  -2   5   34.00    2.68
   5  -2   5    5.11    1.42
  -4  -1   5   14.36    1.78
  -3  -1   5    7.09    1.06
  -2  -1   5    7.73    0.73
  -1  -1   5  102.60    1.84
   0  -1   5   12.66    0.77
   1  -1   5   23.42    0.96
   2  -1   5  108.36    2.93
   3  -1   5    8.71    1.25
   4  -1   5    4.04    1.07
   5  -1   5   12.36    2.12
  -5   0   5    4.58    1.75
  -4   0   5    1.22    0.82
  -3   0   5   45.06    1.90
  -2   0   5   11.61    0.81
  -1   0   5   21.44    0.80
   0   0   5  166.76    2.81
   1   0   5   13.76    0.87
   2   0   5   10.16    1.13
   3   0   5   46.72    2.58
   4   0   5    6.23    1.36
   5   0   5   -0.34    1.10
  -5   1   5    9.34    1.89
  -4   1   5    5.96    1.10
  -3   1   5    5.54    0.76
  -2   1   5  101.38    2.28
  -1   1   5   12.75    0.76
   0   1   5   20.32    0.71
   1   1   5  102.57    2.26
   2   1   5    9.70    0.96
   3   1   5    4.18    1.12
   4   1   5   12.23    2.07
  -5   2   5    1.11    0.90
  -4   2   5   31.43    2.28
  -3   2   5    8.30    1.07
  -2   2   5   12.45    1.13
  -1   2   5   97.51    2.53
   0   2   5   11.85    0.98
   1   2   5    5.97    0.85
   2   2   5   35.78    2.60
   3   2   5    3.08    1.74
  -5   3   5    5.24    1.20
  -4   3   5    1.96    0.78
  -3   3   5   48.34    2.24
  -2   3   5   12.62    1.64
  -1   3   5    8.49    1.42
   0   3   5   51.96    2.65
   1   3   5    9.91    1.59
   2   3   5    0.06    1.04
  -5   4   5   13.33    2.16
  -4   4   5    7.47    1.70
  -3   4   5    0.43    0.89
  -2   4   5   29.00    2.61
  -1   4   5    6.22    1.40
   0   4   5   -0.65    1.49
   1   4   5   13.75    3.05
  -5   5   5   -1.03    1.23
  -4   5   5   21.16    3.59
  -3   5   5    6.34    2.52
  -2   5   5   -0.78    1.51
  -1   5   5   13.96    3.14
   0   5   5    3.33    2.53
   1  -5   6    6.35    3.80
   2  -5   6   35.57    3.79
   3  -5   6    7.31    2.12
   4  -5   6    9.47    2.34
  -1  -4   6   14.90    4.35
   0  -4   6   65.18    4.61
   1  -4   6   19.00    2.59
   2  -4   6   27.96    2.88
   3  -4   6   86.35    4.62
   4  -4   6   11.41    2.27
   5  -4   6    9.12    2.74
  -2  -3   6   43.58    3.97
  -1  -3   6   21.48    2.51
   0  -3   6   34.96    2.99
   1  -3   6  164.10    4.32
   2  -3   6   44.81    2.29
   3  -3   6   31.35    2.17
   4  -3   6   93.27    3.44
   5  -3   6   12.53    2.04
  -3  -2   6   12.27    1.77
  -2  -2   6   27.03    2.13
  -1  -2   6  174.73    4.45
   0  -2   6   66.99    2.37
   1  -2   6   68.32    2.27
   2  -2   6  253.55    5.42
   3  -2   6   48.31    2.23
   4  -2   6   30.60    2.57
   5  -2   6   49.77    3.70
  -4  -1   6    9.32    1.56
  -3  -1   6   85.94    2.87
  -2  -1   6   45.78    1.94
  -1  -1   6   67.19    1.86
   0  -1   6  370.50    5.78
   1  -1   6  102.70    2.17
   2  -1   6   66.49    2.13
   3  -1   6  167.14    4.92
   4  -1   6   18.51    2.11
   5  -1   6   12.74    2.00
  -4   0   6   16.07    1.81
  -3   0   6   37.18    1.73
  -2   0   6  250.98    3.98
  -1   0   6  102.58    1.86
   0   0   6  100.61    1.73
   1   0   6  377.79    6.25
   2   0   6   69.13    2.10
   3   0   6   33.86    2.44
   4   0   6   70.56    3.06
  -5   1   6    9.31    1.90
  -4   1   6   92.34    3.23
  -3   1   6   49.30    1.90
  -2   1   6   68.13    1.83
  -1   1   6  374.82    5.43
   0   1   6  105.59    1.92
   1   1   6   67.92    1.77
   2   1   6  172.53    5.11
   3   1   6   26.34    2.53
   4   1   6    8.16    1.74
  -5   2   6   13.32    1.77
  -4   2   6   23.26    2.01
  -3   2   6  166.18    4.28
  -2   2   6   69.27    2.28
  -1   2   6   70.21    2.14
   0   2   6  250.51    4.92
   1   2   6   50.43    1.93
   2   2   6   24.88    2.32
   3   2   6   58.62    6.16
  -5   3   6   47.89    3.05
  -4   3   6   25.86    2.12
  -3   3   6   36.49    2.22
  -2   3   6  178.58    5.44
  -1   3   6   46.37    3.07
   0   3   6   33.91    2.61
   1   3   6   83.94    3.78
   2   3   6   11.57    1.99
  -5   4   6   14.36    2.33
  -4   4   6   59.80    4.12
  -3   4   6   21.10    2.40
  -2   4   6   27.09    2.61
  -1   4   6   96.11    4.17
   0   4   6   14.64    2.16
   1   4   6    9.09    2.74
  -4   5   6   11.27    1.97
  -3   5   6   48.55    5.45
  -2   5   6   13.90    3.25
  -1   5   6    8.44    2.75
   1  -5   7    7.18    3.89
   2  -5   7    1.30    1.57
   3  -5   7    3.83    1.79
   4  -5   7    2.55    1.83
  -1  -4   7    2.46    3.00
   0  -4   7    0.94    1.37
   1  -4   7    7.22    1.76
   2  -4   7    3.31    1.36
   3  -4   7    2.98    1.42
   4  -4   7    6.14    1.83
   5  -4   7    2.97    2.15
  -2  -3   7    3.17    1.66
  -1  -3   7    4.72    1.47
   0  -3   7    3.67    1.20
   1  -3   7    4.87    1.03
   2  -3   7   11.26    1.37
   3  -3   7    3.74    1.01
   4  -3   7    2.66    1.11
   5  -3   7    3.54    1.36
  -3  -2   7    4.97    1.46
  -2  -2   7    4.56    1.05
  -1  -2   7    6.49    1.05
   0  -2   7   13.18    1.28
   1  -2   7    4.58    0.85
   2  -2   7    7.63    0.79
   3  -2   7   11.12    1.31
   4  -2   7    4.94    1.22
   5  -2   7    3.07    1.25
  -4  -1   7    3.13    1.54
  -3  -1   7    2.35    0.80
  -2  -1   7   12.31    1.16
  -1  -1   7    4.87    0.66
   0  -1   7   11.19    0.88
   1  -1   7   20.54    1.02
   2  -1   7    4.35    0.61
   3  -1   7    4.84    1.03
   4  -1   7    7.35    1.43
   5  -1   7    3.00    1.37
  -4   0   7    5.76    1.34
  -3   0   7    2.71    0.86
  -2   0   7    7.96    0.70
  -1   0   7   21.13    0.85
   0   0   7    4.41    0.44
   1   0   7   10.59    0.88
   2   0   7   14.03    1.15
   3   0   7    5.50    0.97
   4   0   7    1.42    1.02
  -5   1   7    2.64    1.41
  -4   1   7    1.95    0.84
  -3   1   7   10.23    1.03
  -2   1   7    3.94    0.61
  -1   1   7   12.16    0.84
   0   1   7   19.81    0.87
   1   1   7    4.41    0.59
   2   1   7    4.99    1.08
   3   1   7    4.73    1.26
   4   1   7    0.91    1.25
  -5   2   7    1.78    1.24
  -4   2   7    4.43    1.06
  -3   2   7    6.83    1.06
  -2   2   7   15.82    1.35
  -1   2   7    2.63    0.65
   0   2   7    8.10    0.92
   1   2   7   10.79    1.15
   2   2   7    4.78    1.21
   3   2   7    0.94    1.68
  -5   3   7    3.70    1.19
  -4   3   7    3.03    0.96
  -3   3   7    2.61    0.82
  -2   3   7    6.03    1.28
  -1   3   7    8.15    1.42
   0   3   7    5.24    1.21
   1   3   7    4.25    1.23
   2   3   7    4.07    1.46
  -5   4   7    1.10    1.48
  -4   4   7    2.16    1.27
  -3   4   7    4.71    1.45
  -2   4   7    1.44    1.06
  -1   4   7    2.37    1.23
   0   4   7    4.54    1.44
   1   4   7    3.16    2.27
  -4   5   7    2.25    1.47
  -3   5   7    0.03    1.83
  -2   5   7    3.81    2.20
  -1   5   7   -0.02    1.84
   1  -5   8   12.74    2.64
   2  -5   8    0.38    1.42
   3  -5   8    0.01    1.54
   4  -5   8    9.79    2.58
  -1  -4   8   18.51    3.00
   0  -4   8    1.45    1.47
   1  -4   8    1.07    1.26
   2  -4   8   27.55    3.10
   3  -4   8    0.17    1.29
   4  -4   8    2.46    1.51
   5  -4   8   17.34    3.69
  -2  -3   8    1.33    1.54
  -1  -3   8    2.84    1.36
   0  -3   8   44.18    3.53
   1  -3   8    1.56    0.80
   2  -3   8    7.47    1.17
   3  -3   8   41.95    2.59
   4  -3   8    0.52    0.91
   5  -3   8    0.13    1.14
  -3  -2   8    2.15    1.30
  -2  -2   8   30.55    2.49
  -1  -2   8    2.81    0.88
   0  -2   8    9.30    1.19
   1  -2   8   73.75    2.63
   2  -2   8    4.98    0.70
   3  -2   8    5.23    0.89
   4  -2   8   30.04    2.73
   5  -2   8    2.87    1.26
  -4  -1   8   15.55    2.60
  -3  -1   8    2.30    0.84
  -2  -1   8    5.66    0.88
  -1  -1   8   74.20    2.16
   0  -1   8    5.86    0.70
   1  -1   8   17.35    1.04
   2  -1   8   75.78    2.40
   3  -1   8    3.13    0.76
   4  -1   8    2.94    0.88
   5  -1   8   11.45    2.12
  -4   0   8    4.75    1.24
  -3   0   8   42.09    2.57
  -2   0   8    3.02    0.71
  -1   0   8   19.43    0.83
   0   0   8  105.48    1.96
   1   0   8    7.64    0.81
   2   0   8   10.73    1.06
   3   0   8   45.74    2.29
   4   0   8    0.58    0.94
  -5   1   8   13.02    2.34
  -4   1   8    2.44    0.90
  -3   1   8    7.82    0.93
  -2   1   8   76.53    2.11
  -1   1   8    6.37    0.68
   0   1   8   19.02    0.90
   1   1   8   73.53    2.93
   2   1   8    2.94    0.87
   3   1   8    2.53    1.08
   4   1   8   12.65    2.20
  -5   2   8    1.54    1.13
  -4   2   8   29.93    2.31
  -3   2   8    3.02    0.85
  -2   2   8   13.32    1.05
  -1   2   8   78.61    2.50
   0   2   8    3.35    0.72
   1   2   8    6.94    1.01
   2   2   8   31.05    2.22
   3   2   8    2.86    2.04
  -5   3   8    1.09    0.98
  -4   3   8    4.25    1.08
  -3   3   8   44.14    2.59
  -2   3   8    3.11    1.11
  -1   3   8    9.76    1.63
   0   3   8   44.90    3.17
   1   3   8    2.78    1.14
   2   3   8    1.99    1.34
  -5   4   8   16.57    2.63
  -4   4   8    0.70    1.11
  -3   4   8    1.48    1.14
  -2   4   8   28.67    2.90
  -1   4   8    1.81    1.16
   0   4   8    4.08    1.57
   1   4   8   15.67    2.49
  -4   5   8   19.00    2.64
  -3   5   8    1.70    1.41
  -2   5   8    0.10    1.93
  -1   5   8   13.86    3.38
   1  -5   9    0.00    1.66
   2  -5   9    2.47    1.87
   3  -5   9   13.15    2.71
   4  -5   9    1.36    1.81
  -1  -4   9    2.29    1.86
   0  -4   9    1.52    1.46
   1  -4   9   24.74    3.06
   2  -4   9    5.67    1.68
   3  -4   9    1.23    1.29
   4  -4   9   22.18    3.76
   5  -4   9    1.66    2.08
  -2  -3   9    1.57    1.57
  -1  -3   9   27.46    3.11
   0  -3   9    5.74    1.47
   1  -3   9    3.05    0.96
   2  -3   9   41.75    2.70
   3  -3   9    3.66    1.05
   4  -3   9    0.75    1.04
   5  -3   9   14.76    2.22
  -3  -2   9   17.19    2.31
  -2  -2   9    4.14    1.15
  -1  -2   9    3.55    0.95
   0  -2   9   60.37    2.55
   1  -2   9    8.47    1.13
   2  -2   9    5.70    0.81
   3  -2   9   40.66    2.15
   4  -2   9    3.69    0.97
   5  -2   9   -0.06    0.87
  -4  -1   9    2.55    1.65
  -3  -1   9    1.49    1.00
  -2  -1   9   45.80    2.18
  -1  -1   9    7.82    0.92
   0  -1   9   10.58    0.95
   1  -1   9   75.88    2.06
   2  -1   9    7.98    1.00
   3  -1   9    3.55    0.83
   4  -1   9   23.00    1.98
   5  -1   9    1.77    1.31
  -4   0   9   18.62    2.07
  -3   0   9    4.55    1.06
  -2   0   9    4.42    0.88
  -1   0   9   74.24    2.22
   0   0   9    8.58    0.64
   1   0   9    9.84    0.96
   2   0   9   57.41    2.14
   3   0   9    6.12    1.34
   4   0   9    0.61    1.00
  -5   1   9    1.51    1.48
  -4   1   9    0.45    0.75
  -3   1   9   43.16    2.57
  -2   1   9    7.29    0.83
  -1   1   9    8.23    0.79
   0   1   9   73.40    1.79
   1   1   9    6.94    1.18
   2   1   9    4.13    1.14
   3   1   9   25.76    2.61
   4   1   9    1.01    1.30
  -5   2   9   16.00    2.36
  -4   2   9    3.51    1.22
  -3   2   9    2.66    0.79
  -2   2   9   55.88    1.88
  -1   2   9    9.76    1.13
   0   2   9    6.64    0.98
   1   2   9   45.18    2.28
   2   2   9    3.25    0.97
   3   2   9    1.61    1.39
  -5   3   9    0.70    1.20
  -4   3   9   22.90    2.08
  -3   3   9    3.36    0.97
  -2   3   9    1.78    1.04
  -1   3   9   42.36    3.20
   0   3   9    5.12    1.37
   1   3   9    0.41    1.10
   2   3   9   15.59    2.37
  -5   4   9    1.97    1.59
  -4   4   9    0.35    1.18
  -3   4   9   27.15    2.92
  -2   4   9    6.06    1.63
  -1   4   9    1.06    1.17
   0   4   9   24.89    2.91
   1   4   9    1.04    1.51
  -4   5   9    3.65    1.58
  -3   5   9    1.18    1.49
  -2   5   9   13.60    2.48
  -1   5   9    5.45    2.62
   2  -5  10    4.55    2.14
   3  -5  10   25.00    3.47
   0  -4  10    6.36    2.08
   1  -4  10   43.99    3.98
   2  -4  10   22.30    2.98
   3  -4  10   12.97    2.36
   4  -4  10   31.21    4.52
  -2  -3  10    8.22    2.26
  -1  -3  10   41.48    3.94
   0  -3  10   28.93    3.00
   1  -3  10   22.22    2.02
   2  -3  10   76.83    3.35
   3  -3  10   28.99    2.74
   4  -3  10   11.19    1.93
   5  -3  10   26.84    3.08
  -3  -2  10   31.84    3.04
  -2  -2  10   22.76    2.33
  -1  -2  10   20.73    2.04
   0  -2  10  100.01    3.49
   1  -2  10   64.33    2.58
   2  -2  10   31.23    2.15
   3  -2  10   78.44    2.84
   4  -2  10   23.85    2.02
   5  -2  10    4.79    1.25
  -3  -1  10   11.24    1.99
  -2  -1  10   78.97    3.27
  -1  -1  10   63.56    2.19
   0  -1  10   46.49    1.93
   1  -1  10  142.30    3.15
   2  -1  10   67.03    2.38
   3  -1  10   22.03    1.82
   4  -1  10   37.24    2.54
  -4   0  10   31.17    2.72
  -3   0  10   35.63    2.52
  -2   0  10   34.33    2.20
  -1   0  10  136.09    3.34
   0   0  10   91.25    1.95
   1   0  10   52.87    1.94
   2   0  10  100.29    3.02
   3   0  10   29.28    2.72
   4   0  10    7.92    1.79
  -4   1  10   10.32    1.58
  -3   1  10   78.94    3.06
  -2   1  10   62.36    2.48
  -1   1  10   53.62    1.72
   0   1  10  143.22    2.82
   1   1  10   63.00    2.99
   2   1  10   20.94    2.26
   3   1  10   44.40    3.62
  -5   2  10   20.65    2.96
  -4   2  10   27.21    2.94
  -3   2  10   23.80    1.66
  -2   2  10  107.47    2.71
  -1   2  10   63.69    2.41
   0   2  10   35.28    2.13
   1   2  10   80.21    3.63
   2   2  10   22.82    2.02
   3   2  10    5.25    1.76
  -5   3  10    2.58    1.40
  -4   3  10   45.09    2.93
  -3   3  10   34.11    2.57
  -2   3  10   22.37    2.41
  -1   3  10   80.34    3.81
   0   3  10   29.54    2.75
   1   3  10   13.77    2.09
   2   3  10   37.49    5.50
  -4   4  10    6.80    1.83
  -3   4  10   44.13    3.75
  -2   4  10   24.28    2.75
  -1   4  10   10.86    2.01
   0   4  10   29.15    3.17
  -3   5  10    5.10    1.90
  -2   5  10   25.34    3.07
   0  -4  11   29.93    3.67
   1  -4  11    0.12    1.31
   2  -4  11    0.07    1.29
   3  -4  11   36.22    3.76
   4  -4  11   -2.03    1.64
  -1  -3  11    0.37    1.32
   0  -3  11    0.11    1.04
   1  -3  11   69.71    3.33
   2  -3  11    1.89    0.97
   3  -3  11    0.75    1.05
   4  -3  11   36.45    3.26
  -2  -2  11   -1.46    0.87
  -1  -2  11   68.40    3.34
   0  -2  11    2.28    0.92
   1  -2  11    1.71    0.77
   2  -2  11   90.27    3.80
   3  -2  11    1.69    0.77
   4  -2  11   -0.05    0.80
  -3  -1  11   42.49    3.73
  -2  -1  11    0.16    0.81
  -1  -1  11    0.45    0.58
   0  -1  11  120.74    3.08
   1  -1  11    6.85    0.85
   2  -1  11    1.24    0.68
   3  -1  11   66.86    2.86
   4  -1  11    0.81    1.05
  -4   0  11    0.09    1.00
  -3   0  11    0.40    0.83
  -2   0  11   82.00    3.09
  -1   0  11    5.63    0.89
   0   0  11    2.27    0.62
   1   0  11  123.42    3.25
   2   0  11    3.50    0.82
   3   0  11    0.31    0.84
   4   0  11   27.53    3.07
  -4   1  11   37.58    2.84
  -3   1  11    0.56    0.72
  -2   1  11    1.51    0.70
  -1   1  11  117.25    2.73
   0   1  11    8.46    1.02
   1   1  11    1.04    0.63
   2   1  11   69.83    3.50
   3   1  11   -1.26    0.89
  -4   2  11   -1.32    0.84
  -3   2  11   64.93    2.90
  -2   2  11    3.34    0.91
  -1   2  11    1.39    0.68
   0   2  11   91.19    3.00
   1   2  11    2.65    0.88
   2   2  11    2.49    1.23
  -4   3  11   -0.43    0.95
  -3   3  11    0.28    0.73
  -2   3  11   65.27    3.75
  -1   3  11    2.07    1.17
   0   3  11    2.24    1.07
   1   3  11   35.38    4.95
  -4   4  11   25.88    3.04
  -3   4  11    1.13    1.28
  -2   4  11   -0.57    1.08
  -1   4  11   39.85    3.52
   0   4  11   -0.34    1.34
   0  -4  12   23.05    3.45
   1  -4  12   12.59    2.60
   2  -4  12    1.94    1.53
   3  -4  12   25.01    4.13
   4  -4  12    9.01    3.02
  -1  -3  12   10.22    2.42
   0  -3  12    3.38    1.59
   1  -3  12   42.35    3.02
   2  -3  12   15.95    1.87
   3  -3  12    3.59    1.38
   4  -3  12   23.62    2.76
  -2  -2  12    2.21    1.21
  -1  -2  12   46.53    3.18
   0  -2  12   25.04    2.23
   1  -2  12    8.79    1.33
   2  -2  12   63.45    3.54
   3  -2  12   13.16    1.97
   4  -2  12    3.24    1.31
  -3  -1  12   26.57    3.18
  -2  -1  12   14.81    1.84
  -1  -1  12    7.71    1.35
   0  -1  12   81.83    2.56
   1  -1  12   32.51    2.01
   2  -1  12    7.81    1.12
   3  -1  12   44.18    2.63
   4  -1  12    9.10    1.93
  -4   0  12    7.02    1.89
  -3   0  12    4.07    1.15
  -2   0  12   62.21    3.03
  -1   0  12   27.21    1.94
   0   0  12    9.02    1.09
   1   0  12   82.57    2.71
   2   0  12   24.42    2.46
   3   0  12    2.42    1.23
   4   0  12   19.49    2.66
  -4   1  12   27.49    2.50
  -3   1  12   17.28    1.78
  -2   1  12    8.27    1.28
  -1   1  12   83.09    2.77
   0   1  12   29.17    1.91
   1   1  12    7.45    1.12
   2   1  12   47.12    3.60
   3   1  12    8.40    1.85
  -4   2  12    2.19    1.14
  -3   2  12   48.37    2.86
  -2   2  12   23.30    1.94
  -1   2  12    6.88    1.12
   0   2  12   63.15    2.68
   1   2  12   19.51    1.81
   2   2  12    2.50    1.27
  -4   3  12    8.58    1.89
  -3   3  12    1.36    0.93
  -2   3  12   45.58    3.54
  -1   3  12   19.56    2.35
   0   3  12    3.42    1.33
   1   3  12   36.49    5.17
  -4   4  12   28.50    4.84
  -3   4  12   11.68    2.31
  -2   4  12    1.90    1.51
  -1   4  12   26.26    2.98
   0   4  12    9.05    2.17
   1  -4  13    2.44    1.85
   2  -4  13    0.69    1.50
   3  -4  13    3.69    2.36
  -1  -3  13    2.35    1.70
   0  -3  13    2.86    1.50
   1  -3  13    6.92    1.40
   2  -3  13    1.39    1.04
   3  -3  13    2.46    1.37
   4  -3  13    3.84    1.65
  -2  -2  13    2.84    1.36
  -1  -2  13    7.27    1.52
   0  -2  13    4.73    1.21
   1  -2  13    1.49    0.90
   2  -2  13    9.78    1.74
   3  -2  13    1.35    1.18
   4  -2  13    0.83    1.15
  -3  -1  13    6.06    1.85
  -2  -1  13    1.29    1.04
  -1  -1  13    0.11    0.79
   0  -1  13    8.70    1.31
   1  -1  13    3.72    0.90
   2  -1  13    1.99    0.84
   3  -1  13    9.44    1.41
   4  -1  13    0.22    1.16
  -3   0  13    1.62    1.07
  -2   0  13    6.21    1.19
  -1   0  13    2.42    0.81
   0   0  13    2.90    0.77
   1   0  13    9.85    1.20
   2   0  13    4.21    1.30
   3   0  13    0.80    0.96
  -4   1  13    4.47    1.33
  -3   1  13    2.22    0.98
  -2   1  13    2.91    0.94
  -1   1  13   10.70    1.26
   0   1  13    5.07    1.00
   1   1  13    3.82    0.94
   2   1  13    5.58    1.39
   3   1  13    0.74    1.25
  -4   2  13    1.93    1.05
  -3   2  13    5.21    1.45
  -2   2  13    2.39    1.08
  -1   2  13    1.41    0.83
   0   2  13    7.38    1.19
   1   2  13    1.82    0.90
   2   2  13    1.45    1.44
  -4   3  13    0.81    1.26
  -3   3  13    2.77    1.26
  -2   3  13    8.60    1.83
  -1   3  13    0.28    0.96
   0   3  13    1.76    1.39
   1   3  13    3.65    1.65
  -3   4  13    0.18    1.37
  -2   4  13    2.23    1.59
  -1   4  13    1.17    1.50
   1  -4  14   -0.63    1.72
   2  -4  14    1.83    1.61
   3  -4  14   13.62    3.38
  -1  -3  14   -0.65    1.38
   0  -3  14    3.36    1.62
   1  -3  14   20.91    2.25
   2  -3  14   -0.79    1.11
   3  -3  14    2.44    1.40
   4  -3  14    9.54    2.10
  -2  -2  14    1.51    1.39
  -1  -2  14   27.02    2.65
   0  -2  14   -0.17    0.81
   1  -2  14    5.88    1.32
   2  -2  14   31.12    2.93
   3  -2  14    0.56    1.17
   4  -2  14    2.67    1.51
  -3  -1  14   11.18    2.35
  -2  -1  14    0.48    1.03
  -1  -1  14    6.26    1.34
   0  -1  14   48.73    2.93
   1  -1  14   -0.05    0.82
   2  -1  14    4.48    1.05
   3  -1  14   24.80    2.74
   4  -1  14    1.41    1.29
  -3   0  14    2.17    1.23
  -2   0  14   31.44    2.46
  -1   0  14    0.50    0.71
   0   0  14    9.06    1.20
   1   0  14   39.01    3.24
   2   0  14   -0.16    0.85
   3   0  14    1.59    1.14
  -4   1  14   15.83    2.03
  -3   1  14   -0.11    0.79
  -2   1  14    3.93    1.03
  -1   1  14   42.34    3.71
   0   1  14    0.39    0.92
   1   1  14    6.99    1.24
   2   1  14   22.58    2.60
   3   1  14   -0.86    1.16
  -4   2  14    3.19    1.26
  -3   2  14   21.23    2.61
  -2   2  14   -0.14    0.88
  -1   2  14    6.26    1.43
   0   2  14   33.30    2.43
   1   2  14    0.30    0.87
   2   2  14    3.86    1.60
  -4   3  14   -0.92    1.13
  -3   3  14    3.46    2.29
  -2   3  14   30.72    4.72
  -1   3  14    0.19    1.11
   0   3  14    2.78    1.52
   1   3  14   17.26    2.57
  -3   4  14    1.96    2.13
  -2   4  14    3.59    1.74
  -1   4  14   14.95    2.54
   0  -3  15   42.06    4.26
   1  -3  15    6.58    1.62
   2  -3  15   -0.54    1.26
   3  -3  15   42.95    3.87
  -1  -2  15    5.32    1.56
   0  -2  15    0.89    1.02
   1  -2  15   63.58    4.32
   2  -2  15   14.58    2.22
   3  -2  15   -0.25    1.14
  -2  -1  15    1.00    1.31
  -1  -1  15   65.35    3.82
   0  -1  15   15.07    2.01
   1  -1  15    2.31    1.14
   2  -1  15   66.57    3.12
   3  -1  15    4.97    1.63
  -3   0  15   42.62    3.85
  -2   0  15    6.92    1.38
  -1   0  15    0.87    0.75
   0   0  15   77.92    2.92
   1   0  15   10.14    1.83
   2   0  15   -0.12    0.99
   3   0  15   32.58    3.41
  -3   1  15   -0.46    0.88
  -2   1  15   60.79    3.37
  -1   1  15   13.12    2.04
   0   1  15    1.08    1.02
   1   1  15   65.33    3.16
   2   1  15    4.53    1.25
  -3   2  15   10.39    2.04
  -2   2  15   -0.64    0.91
  -1   2  15   54.90    4.04
   0   2  15    7.40    1.40
   1   2  15    1.67    1.05
  -3   3  15   29.10    4.93
  -2   3  15    9.39    2.93
  -1   3  15    1.61    1.40
   0   3  15   41.89    6.06
   0  -3  16   20.77    4.01
   1  -3  16    3.08    1.67
   2  -3  16    1.37    1.42
  -1  -2  16    3.47    1.47
   0  -2  16    0.68    1.04
   1  -2  16   53.91    4.44
   2  -2  16    3.01    1.46
   3  -2  16   -0.03    1.26
  -2  -1  16    1.23    1.44
  -1  -1  16   43.30    3.20
   0  -1  16    3.38    1.21
   1  -1  16   -1.10    0.88
   2  -1  16   42.30    5.66
   3  -1  16    4.00    2.15
  -3   0  16   28.53    4.45
  -2   0  16    2.07    1.23
  -1   0  16    1.11    0.81
   0   0  16   57.39    4.05
   1   0  16    3.64    1.37
   2   0  16   -0.42    0.96
  -3   1  16    0.09    0.95
  -2   1  16   39.09    3.63
  -1   1  16    2.45    1.18
   0   1  16    1.10    1.07
   1   1  16   37.49    3.54
   2   1  16    0.48    1.04
  -3   2  16    1.07    1.23
  -2   2  16   -0.45    0.97
  -1   2  16   46.57    3.86
   0   2  16    0.64    1.26
   1   2  16    0.57    1.06
  -2   3  16    2.21    2.24
  -1   3  16   -0.38    1.78
   0  -2  17   14.90    2.41
   1  -2  17    5.07    1.73
   2  -2  17    1.50    1.45
  -1  -1  17    3.35    1.43
   0  -1  17    9.55    1.81
   1  -1  17   24.22    2.72
   2  -1  17    3.45    2.13
  -2   0  17    4.26    1.44
  -1   0  17   22.63    2.51
   0   0  17    2.19    1.26
   1   0  17    3.75    1.48
   2   0  17   18.54    2.76
  -2   1  17    1.78    1.30
  -1   1  17    5.82    1.65
   0   1  17   22.05    2.71
   1   1  17    2.87    1.51
  -2   2  17   13.98    2.28
  -1   2  17    2.34    1.33
   0   2  17    6.77    1.82
   0  -2  18   22.85    3.04
   1  -2  18    0.02    1.40
   2  -2  18   -1.92    1.35
  -1  -1  18    1.14    1.30
   0  -1  18   -0.49    1.08
   1  -1  18   24.68    4.43
   2  -1  18    1.15    1.84
  -2   0  18   -0.66    1.15
  -1   0  18   21.72    4.12
   0   0  18    0.77    1.47
   1   0  18   -0.26    1.17
   2   0  18   26.96    3.34
  -2   1  18    2.69    1.52
  -1   1  18   -0.61    0.98
   0   1  18   27.88    3.15
   1   1  18    0.96    1.38
  -2   2  18   16.31    2.62
  -1   2  18    0.22    1.20
   0   2  18    0.36    1.26
   0  -1  19    7.54    1.85
   1  -1  19    2.47    2.25
  -1   0  19    2.34    1.97
   0   0  19   -1.76    1.37
   1   0  19   12.09    3.30
  -1   1  19    1.90    1.33
   0   1  19    6.30    1.77
   0   0   0    0.00    0.00
;
_shelx_hkl_checksum              6035
#END Tags that were not found in dictionaries
loop_
_space_group_symop_operation_xyz
'x, y, z'
'-y, x-y, z'
'-x+y, -x, z'
'y, x, -z'
'x-y, -y, -z'
'-x, -x+y, -z'
'-x, -y, -z'
'y, -x+y, -z'
'x-y, x, -z'
'-y, -x, z'
'-x+y, y, z'
'x, x-y, z'
loop_
_atom_site_label
_atom_site_type_symbol
_atom_site_fract_x
_atom_site_fract_y
_atom_site_fract_z
_atom_site_U_iso_or_equiv
_atom_site_adp_type
_atom_site_occupancy
_atom_site_site_symmetry_order
_atom_site_calc_flag
_atom_site_refinement_flags_posn
_atom_site_refinement_flags_adp
_atom_site_refinement_flags_occupancy
Ce1 Ce 0.0000 0.0000 0.5000 0.036(2) Uani 0.300(10) 12 d S T .
Ce2 Ce 0.0000 0.0000 0.0000 0.0185(4) Uani 1 12 d S T P
Zn1 Zn 0.3333 0.6667 0.3324(4) 0.0225(15) Uani 0.586(13) 6 d S T P
Zn2 Zn 0.3333 0.6667 0.80160(18) 0.0174(6) Uani 1 6 d S T P
Mn Mn 0.3333 0.6667 0.4099(10) 0.037(3) Uani 0.414(13) 6 d S T P
As1 As 0.3333 0.6667 0.13196(14) 0.0114(4) Uani 1 6 d S T P
As2 As 0.3333 0.6667 0.61568(16) 0.0162(5) Uani 1 6 d S T P
loop_
_atom_site_aniso_label
_atom_site_aniso_U_11
_atom_site_aniso_U_22
_atom_site_aniso_U_33
_atom_site_aniso_U_23
_atom_site_aniso_U_13
_atom_site_aniso_U_12
Ce1 0.038(3) 0.038(3) 0.033(4) 0.000 0.000 0.0189(16)
Ce2 0.0178(6) 0.0178(6) 0.0200(8) 0.000 0.000 0.0089(3)
Zn1 0.0166(16) 0.0166(16) 0.034(3) 0.000 0.000 0.0083(8)
Zn2 0.0176(8) 0.0176(8) 0.0171(11) 0.000 0.000 0.0088(4)
Mn 0.027(3) 0.027(3) 0.056(9) 0.000 0.000 0.0135(17)
As1 0.0110(6) 0.0110(6) 0.0123(9) 0.000 0.000 0.0055(3)
As2 0.0170(7) 0.0170(7) 0.0147(9) 0.000 0.000 0.0085(3)
loop_
_atom_type_symbol
_atom_type_description
_atom_type_scat_dispersion_real
_atom_type_scat_dispersion_imag
_atom_type_scat_source
Mn Mn 0.3368 0.7283 'International Tables Vol C Tables 4.2.6.8 and 6.1.1.4'
Zn Zn 0.2839 1.4301 'International Tables Vol C Tables 4.2.6.8 and 6.1.1.4'
As As 0.0499 2.0058 'International Tables Vol C Tables 4.2.6.8 and 6.1.1.4'
Ce Ce -0.2486 2.6331 'International Tables Vol C Tables 4.2.6.8 and 6.1.1.4'
loop_
_geom_angle_atom_site_label_1
_geom_angle_atom_site_label_2
_geom_angle_atom_site_label_3
_geom_angle
_geom_angle_site_symmetry_1
_geom_angle_site_symmetry_3
Mn Ce1 Mn 180.0 7_666 1_445
Mn Ce1 Mn 101.0(3) 7_666 7_556
Mn Ce1 Mn 79.0(3) 1_445 7_556
Mn Ce1 Mn 79.0(3) 7_666 .
Mn Ce1 Mn 101.0(3) 1_445 .
Mn Ce1 Mn 180.0 7_556 .
Mn Ce1 Mn 101.0(3) 7_666 7_566
Mn Ce1 Mn 79.0(3) 1_445 7_566
Mn Ce1 Mn 101.0(3) 7_556 7_566
Mn Ce1 Mn 79.0(3) . 7_566
Mn Ce1 Mn 79.0(3) 7_666 1_545
Mn Ce1 Mn 101.0(3) 1_445 1_545
Mn Ce1 Mn 79.0(3) 7_556 1_545
Mn Ce1 Mn 101.0(3) . 1_545
Mn Ce1 Mn 180.0(5) 7_566 1_545
Mn Ce1 As2 128.41(10) 7_666 7_556
Mn Ce1 As2 51.59(10) 1_445 7_556
Mn Ce1 As2 60.2(3) 7_556 7_556
Mn Ce1 As2 119.8(3) . 7_556
Mn Ce1 As2 128.41(10) 7_566 7_556
Mn Ce1 As2 51.59(10) 1_545 7_556
Mn Ce1 As2 60.2(3) 7_666 7_666
Mn Ce1 As2 119.8(3) 1_445 7_666
Mn Ce1 As2 128.41(10) 7_556 7_666
Mn Ce1 As2 51.59(10) . 7_666
Mn Ce1 As2 128.41(10) 7_566 7_666
Mn Ce1 As2 51.59(10) 1_545 7_666
As2 Ce1 As2 92.90(8) 7_556 7_666
Mn Ce1 As2 119.8(3) 7_666 1_445
Mn Ce1 As2 60.2(3) 1_445 1_445
Mn Ce1 As2 51.59(10) 7_556 1_445
Mn Ce1 As2 128.41(10) . 1_445
Mn Ce1 As2 51.59(10) 7_566 1_445
Mn Ce1 As2 128.41(10) 1_545 1_445
As2 Ce1 As2 87.10(8) 7_556 1_445
As2 Ce1 As2 180.0 7_666 1_445
Mn Ce1 As2 51.59(10) 7_666 .
Mn Ce1 As2 128.41(10) 1_445 .
Mn Ce1 As2 119.8(3) 7_556 .
Mn Ce1 As2 60.2(3) . .
Mn Ce1 As2 51.59(10) 7_566 .
Mn Ce1 As2 128.41(10) 1_545 .
As2 Ce1 As2 180.0 7_556 .
As2 Ce1 As2 87.10(8) 7_666 .
As2 Ce1 As2 92.90(8) 1_445 .
Mn Ce1 As2 128.41(10) 7_666 7_566
Mn Ce1 As2 51.59(10) 1_445 7_566
Mn Ce1 As2 128.41(10) 7_556 7_566
Mn Ce1 As2 51.59(10) . 7_566
Mn Ce1 As2 60.2(3) 7_566 7_566
Mn Ce1 As2 119.8(3) 1_545 7_566
As2 Ce1 As2 92.89(8) 7_556 7_566
As2 Ce1 As2 92.89(8) 7_666 7_566
As2 Ce1 As2 87.11(8) 1_445 7_566
As2 Ce1 As2 87.11(8) . 7_566
Mn Ce1 As2 51.59(10) 7_666 1_545
Mn Ce1 As2 128.41(10) 1_445 1_545
Mn Ce1 As2 51.59(10) 7_556 1_545
Mn Ce1 As2 128.41(10) . 1_545
Mn Ce1 As2 119.8(3) 7_566 1_545
Mn Ce1 As2 60.2(3) 1_545 1_545
As2 Ce1 As2 87.11(8) 7_556 1_545
As2 Ce1 As2 87.11(8) 7_666 1_545
As2 Ce1 As2 92.89(8) 1_445 1_545
As2 Ce1 As2 92.89(8) . 1_545
As2 Ce1 As2 180.00(7) 7_566 1_545
As1 Ce2 As1 180.0 . 7
As1 Ce2 As1 92.09(8) . 7_665
As1 Ce2 As1 87.91(8) 7 7_665
As1 Ce2 As1 87.91(8) . 1_445
As1 Ce2 As1 92.09(8) 7 1_445
As1 Ce2 As1 180.00(6) 7_665 1_445
As1 Ce2 As1 92.09(8) . 7_565
As1 Ce2 As1 87.91(8) 7 7_565
As1 Ce2 As1 87.91(8) 7_665 7_565
As1 Ce2 As1 92.09(8) 1_445 7_565
As1 Ce2 As1 87.91(8) . 1_545
As1 Ce2 As1 92.09(8) 7 1_545
As1 Ce2 As1 92.09(8) 7_665 1_545
As1 Ce2 As1 87.91(8) 1_445 1_545
As1 Ce2 As1 180.00(6) 7_565 1_545
As1 Ce2 Zn2 44.51(4) . 7_666
As1 Ce2 Zn2 135.49(4) 7 7_666
As1 Ce2 Zn2 85.02(10) 7_665 7_666
As1 Ce2 Zn2 94.98(10) 1_445 7_666
As1 Ce2 Zn2 135.49(4) 7_565 7_666
As1 Ce2 Zn2 44.51(4) 1_545 7_666
As1 Ce2 Zn2 135.49(4) . 1_444
As1 Ce2 Zn2 44.51(4) 7 1_444
As1 Ce2 Zn2 94.98(10) 7_665 1_444
As1 Ce2 Zn2 85.02(10) 1_445 1_444
As1 Ce2 Zn2 44.51(4) 7_565 1_444
As1 Ce2 Zn2 135.49(4) 1_545 1_444
Zn2 Ce2 Zn2 180.00(5) 7_666 1_444
As1 Ce2 Zn2 94.98(10) . 7_556
As1 Ce2 Zn2 85.02(10) 7 7_556
As1 Ce2 Zn2 135.49(4) 7_665 7_556
As1 Ce2 Zn2 44.51(4) 1_445 7_556
As1 Ce2 Zn2 135.49(4) 7_565 7_556
As1 Ce2 Zn2 44.51(4) 1_545 7_556
Zn2 Ce2 Zn2 70.37(9) 7_666 7_556
Zn2 Ce2 Zn2 109.63(9) 1_444 7_556
As1 Ce2 Zn2 85.02(10) . 1_554
As1 Ce2 Zn2 94.98(10) 7 1_554
As1 Ce2 Zn2 44.51(4) 7_665 1_554
As1 Ce2 Zn2 135.49(4) 1_445 1_554
As1 Ce2 Zn2 44.51(4) 7_565 1_554
As1 Ce2 Zn2 135.49(4) 1_545 1_554
Zn2 Ce2 Zn2 109.63(9) 7_666 1_554
Zn2 Ce2 Zn2 70.37(9) 1_444 1_554
Zn2 Ce2 Zn2 180.0 7_556 1_554
As1 Ce2 Zn2 44.51(4) . 7_566
As1 Ce2 Zn2 135.49(4) 7 7_566
As1 Ce2 Zn2 135.49(4) 7_665 7_566
As1 Ce2 Zn2 44.51(4) 1_445 7_566
As1 Ce2 Zn2 85.02(10) 7_565 7_566
As1 Ce2 Zn2 94.98(10) 1_545 7_566
Zn2 Ce2 Zn2 70.37(9) 7_666 7_566
Zn2 Ce2 Zn2 109.63(9) 1_444 7_566
Zn2 Ce2 Zn2 70.37(9) 7_556 7_566
Zn2 Ce2 Zn2 109.63(9) 1_554 7_566
As1 Ce2 Zn2 135.49(4) . 1_544
As1 Ce2 Zn2 44.51(4) 7 1_544
As1 Ce2 Zn2 44.51(4) 7_665 1_544
As1 Ce2 Zn2 135.49(4) 1_445 1_544
As1 Ce2 Zn2 94.98(10) 7_565 1_544
As1 Ce2 Zn2 85.02(10) 1_545 1_544
Zn2 Ce2 Zn2 109.63(9) 7_666 1_544
Zn2 Ce2 Zn2 70.37(9) 1_444 1_544
Zn2 Ce2 Zn2 109.63(9) 7_556 1_544
Zn2 Ce2 Zn2 70.37(9) 1_554 1_544
Zn2 Ce2 Zn2 180.00(5) 7_566 1_544
Mn Zn1 As2 73.63(14) . 7_666
Mn Zn1 As2 73.63(14) . 7_676
As2 Zn1 As2 112.39(12) 7_666 7_676
Mn Zn1 As2 73.63(14) . 7_566
As2 Zn1 As2 112.39(12) 7_666 7_566
As2 Zn1 As2 112.38(12) 7_676 7_566
Mn Zn1 As1 180.0 . .
As2 Zn1 As1 106.37(14) 7_666 .
As2 Zn1 As1 106.37(14) 7_676 .
As2 Zn1 As1 106.37(14) 7_566 .
Mn Zn1 Zn2 127.15(10) . 7_666
As2 Zn1 Zn2 53.52(10) 7_666 7_666
As2 Zn1 Zn2 123.55(8) 7_676 7_666
As2 Zn1 Zn2 123.55(8) 7_566 7_666
As1 Zn1 Zn2 52.85(10) . 7_666
Mn Zn1 Zn2 127.15(11) . 7_566
As2 Zn1 Zn2 123.55(8) 7_666 7_566
As2 Zn1 Zn2 123.54(8) 7_676 7_566
As2 Zn1 Zn2 53.52(10) 7_566 7_566
As1 Zn1 Zn2 52.85(10) . 7_566
Zn2 Zn1 Zn2 87.31(15) 7_666 7_566
Mn Zn1 Zn2 127.15(10) . 7_676
As2 Zn1 Zn2 123.55(8) 7_666 7_676
As2 Zn1 Zn2 53.52(10) 7_676 7_676
As2 Zn1 Zn2 123.54(8) 7_566 7_676
As1 Zn1 Zn2 52.85(10) . 7_676
Zn2 Zn1 Zn2 87.31(15) 7_666 7_676
Zn2 Zn1 Zn2 87.31(15) 7_566 7_676
Mn Zn1 Ce1 46.53(9) . 1_665
As2 Zn1 Ce1 57.17(8) 7_666 1_665
As2 Zn1 Ce1 57.18(8) 7_676 1_665
As2 Zn1 Ce1 120.2(2) 7_566 1_665
As1 Zn1 Ce1 133.47(9) . 1_665
Zn2 Zn1 Ce1 97.25(8) 7_666 1_665
Zn2 Zn1 Ce1 173.68(16) 7_566 1_665
Zn2 Zn1 Ce1 97.25(8) 7_676 1_665
Mn Zn1 Ce1 46.53(9) . 1_565
As2 Zn1 Ce1 120.2(2) 7_666 1_565
As2 Zn1 Ce1 57.17(8) 7_676 1_565
As2 Zn1 Ce1 57.17(8) 7_566 1_565
As1 Zn1 Ce1 133.47(9) . 1_565
Zn2 Zn1 Ce1 173.68(16) 7_666 1_565
Zn2 Zn1 Ce1 97.25(8) 7_566 1_565
Zn2 Zn1 Ce1 97.25(8) 7_676 1_565
Ce1 Zn1 Ce1 77.88(13) 1_665 1_565
Mn Zn1 Ce1 46.53(9) . .
As2 Zn1 Ce1 57.17(8) 7_666 .
As2 Zn1 Ce1 120.2(2) 7_676 .
As2 Zn1 Ce1 57.18(8) 7_566 .
As1 Zn1 Ce1 133.47(9) . .
Zn2 Zn1 Ce1 97.25(8) 7_666 .
Zn2 Zn1 Ce1 97.25(8) 7_566 .
Zn2 Zn1 Ce1 173.68(16) 7_676 .
Ce1 Zn1 Ce1 77.88(13) 1_665 .
Ce1 Zn1 Ce1 77.88(13) 1_565 .
As2 Zn2 As1 110.59(7) . 7_666
As2 Zn2 As1 110.59(7) . 7_676
As1 Zn2 As1 108.33(8) 7_666 7_676
As2 Zn2 As1 110.59(7) . 7_566
As1 Zn2 As1 108.33(8) 7_666 7_566
As1 Zn2 As1 108.33(8) 7_676 7_566
As2 Zn2 Zn1 52.85(10) . 7_666
As1 Zn2 Zn1 57.74(12) 7_666 7_666
As1 Zn2 Zn1 125.84(4) 7_676 7_666
As1 Zn2 Zn1 125.84(4) 7_566 7_666
As2 Zn2 Zn1 52.85(10) . 7_566
As1 Zn2 Zn1 125.84(4) 7_666 7_566
As1 Zn2 Zn1 125.83(4) 7_676 7_566
As1 Zn2 Zn1 57.74(12) 7_566 7_566
Zn1 Zn2 Zn1 87.31(15) 7_666 7_566
As2 Zn2 Zn1 52.85(10) . 7_676
As1 Zn2 Zn1 125.84(4) 7_666 7_676
As1 Zn2 Zn1 57.74(12) 7_676 7_676
As1 Zn2 Zn1 125.83(4) 7_566 7_676
Zn1 Zn2 Zn1 87.31(15) 7_666 7_676
Zn1 Zn2 Zn1 87.31(15) 7_566 7_676
As2 Zn2 Ce2 138.29(5) . 1_666
As1 Zn2 Ce2 54.97(5) 7_666 1_666
As1 Zn2 Ce2 54.97(5) 7_676 1_666
As1 Zn2 Ce2 111.12(12) 7_566 1_666
Zn1 Zn2 Ce2 100.70(10) 7_666 1_666
Zn1 Zn2 Ce2 168.86(11) 7_566 1_666
Zn1 Zn2 Ce2 100.70(10) 7_676 1_666
As2 Zn2 Ce2 138.29(5) . 1_566
As1 Zn2 Ce2 111.12(12) 7_666 1_566
As1 Zn2 Ce2 54.97(5) 7_676 1_566
As1 Zn2 Ce2 54.97(5) 7_566 1_566
Zn1 Zn2 Ce2 168.86(11) 7_666 1_566
Zn1 Zn2 Ce2 100.69(10) 7_566 1_566
Zn1 Zn2 Ce2 100.69(10) 7_676 1_566
Ce2 Zn2 Ce2 70.37(9) 1_666 1_566
As2 Zn2 Ce2 138.29(5) . 1_556
As1 Zn2 Ce2 54.97(5) 7_666 1_556
As1 Zn2 Ce2 111.12(12) 7_676 1_556
As1 Zn2 Ce2 54.97(5) 7_566 1_556
Zn1 Zn2 Ce2 100.70(10) 7_666 1_556
Zn1 Zn2 Ce2 100.70(10) 7_566 1_556
Zn1 Zn2 Ce2 168.86(11) 7_676 1_556
Ce2 Zn2 Ce2 70.37(9) 1_666 1_556
Ce2 Zn2 Ce2 70.37(9) 1_566 1_556
Zn1 Mn As2 81.8(3) . 7_666
Zn1 Mn As2 81.8(3) . 7_566
As2 Mn As2 117.99(16) 7_666 7_566
Zn1 Mn As2 81.8(3) . 7_676
As2 Mn As2 117.99(16) 7_666 7_676
As2 Mn As2 117.99(16) 7_566 7_676
Zn1 Mn Ce1 117.0(3) . 1_565
As2 Mn Ce1 161.2(6) 7_666 1_565
As2 Mn Ce1 67.92(9) 7_566 1_565
As2 Mn Ce1 67.92(9) 7_676 1_565
Zn1 Mn Ce1 117.0(3) . 1_665
As2 Mn Ce1 67.92(9) 7_666 1_665
As2 Mn Ce1 161.2(6) 7_566 1_665
As2 Mn Ce1 67.92(9) 7_676 1_665
Ce1 Mn Ce1 101.0(3) 1_565 1_665
Zn1 Mn Ce1 117.0(3) . .
As2 Mn Ce1 67.92(9) 7_666 .
As2 Mn Ce1 67.92(9) 7_566 .
As2 Mn Ce1 161.2(6) 7_676 .
Ce1 Mn Ce1 101.0(3) 1_565 .
Ce1 Mn Ce1 101.0(3) 1_665 .
Zn1 Mn As2 180.0 . .
As2 Mn As2 98.2(3) 7_666 .
As2 Mn As2 98.2(3) 7_566 .
As2 Mn As2 98.2(3) 7_676 .
Ce1 Mn As2 63.0(3) 1_565 .
Ce1 Mn As2 63.0(3) 1_665 .
Ce1 Mn As2 63.0(3) . .
Zn2 As1 Zn2 108.33(8) 7_666 7_676
Zn2 As1 Zn2 108.33(8) 7_666 7_566
Zn2 As1 Zn2 108.33(8) 7_676 7_566
Zn2 As1 Zn1 69.41(7) 7_666 .
Zn2 As1 Zn1 69.41(7) 7_676 .
Zn2 As1 Zn1 69.41(7) 7_566 .
Zn2 As1 Ce2 80.51(6) 7_666 .
Zn2 As1 Ce2 163.86(9) 7_676 .
Zn2 As1 Ce2 80.51(6) 7_566 .
Zn1 As1 Ce2 126.73(6) . .
Zn2 As1 Ce2 163.86(9) 7_666 1_565
Zn2 As1 Ce2 80.51(6) 7_676 1_565
Zn2 As1 Ce2 80.51(6) 7_566 1_565
Zn1 As1 Ce2 126.73(6) . 1_565
Ce2 As1 Ce2 87.91(8) . 1_565
Zn2 As1 Ce2 80.51(6) 7_666 1_665
Zn2 As1 Ce2 80.51(6) 7_676 1_665
Zn2 As1 Ce2 163.86(9) 7_566 1_665
Zn1 As1 Ce2 126.73(6) . 1_665
Ce2 As1 Ce2 87.91(8) . 1_665
Ce2 As1 Ce2 87.91(8) 1_565 1_665
Mn As2 Mn 117.99(16) 7_666 7_566
Mn As2 Mn 117.99(16) 7_666 7_676
Mn As2 Mn 117.99(16) 7_566 7_676
Mn As2 Zn1 24.6(3) 7_666 7_666
Mn As2 Zn1 121.01(8) 7_566 7_666
Mn As2 Zn1 121.01(8) 7_676 7_666
Mn As2 Zn1 121.01(8) 7_666 7_676
Mn As2 Zn1 121.01(8) 7_566 7_676
Mn As2 Zn1 24.6(3) 7_676 7_676
Zn1 As2 Zn1 112.39(12) 7_666 7_676
Mn As2 Zn1 121.01(8) 7_666 7_566
Mn As2 Zn1 24.6(3) 7_566 7_566
Mn As2 Zn1 121.01(8) 7_676 7_566
Zn1 As2 Zn1 112.39(12) 7_666 7_566
Zn1 As2 Zn1 112.39(12) 7_676 7_566
Mn As2 Zn2 98.2(3) 7_666 .
Mn As2 Zn2 98.2(3) 7_566 .
Mn As2 Zn2 98.2(3) 7_676 .
Zn1 As2 Zn2 73.63(14) 7_666 .
Zn1 As2 Zn2 73.63(14) 7_676 .
Zn1 As2 Zn2 73.63(14) 7_566 .
Mn As2 Mn 81.8(3) 7_666 .
Mn As2 Mn 81.8(3) 7_566 .
Mn As2 Mn 81.8(3) 7_676 .
Zn1 As2 Mn 106.37(14) 7_666 .
Zn1 As2 Mn 106.37(14) 7_676 .
Zn1 As2 Mn 106.37(14) 7_566 .
Zn2 As2 Mn 180.0 . .
Mn As2 Ce1 138.6(3) 7_666 1_565
Mn As2 Ce1 60.50(18) 7_566 1_565
Mn As2 Ce1 60.50(18) 7_676 1_565
Zn1 As2 Ce1 163.18(15) 7_666 1_565
Zn1 As2 Ce1 75.69(9) 7_676 1_565
Zn1 As2 Ce1 75.69(9) 7_566 1_565
Zn2 As2 Ce1 123.19(6) . 1_565
Mn As2 Ce1 56.81(6) . 1_565
Mn As2 Ce1 60.50(18) 7_666 .
Mn As2 Ce1 60.50(18) 7_566 .
Mn As2 Ce1 138.6(3) 7_676 .
Zn1 As2 Ce1 75.69(9) 7_666 .
Zn1 As2 Ce1 163.18(15) 7_676 .
Zn1 As2 Ce1 75.69(9) 7_566 .
Zn2 As2 Ce1 123.19(6) . .
Mn As2 Ce1 56.81(6) . .
Ce1 As2 Ce1 92.89(8) 1_565 .
Mn As2 Ce1 60.50(18) 7_666 1_665
Mn As2 Ce1 138.6(3) 7_566 1_665
Mn As2 Ce1 60.50(18) 7_676 1_665
Zn1 As2 Ce1 75.69(9) 7_666 1_665
Zn1 As2 Ce1 75.69(9) 7_676 1_665
Zn1 As2 Ce1 163.18(15) 7_566 1_665
Zn2 As2 Ce1 123.19(6) . 1_665
Mn As2 Ce1 56.81(6) . 1_665
Ce1 As2 Ce1 92.89(8) 1_565 1_665
Ce1 As2 Ce1 92.89(8) . 1_665
loop_
_geom_bond_atom_site_label_1
_geom_bond_atom_site_label_2
_geom_bond_distance
_geom_bond_site_symmetry_2
Ce1 Mn 2.693(7) 7_666
Ce1 Mn 2.693(7) 1_445
Ce1 Mn 2.693(7) 7_556
Ce1 Mn 2.693(7) .
Ce1 Mn 2.693(7) 7_566
Ce1 Mn 2.693(7) 1_545
Ce1 As2 2.867(3) 7_556
Ce1 As2 2.867(3) 7_666
Ce1 As2 2.867(3) 1_445
Ce1 As2 2.867(3) .
Ce1 As2 2.867(3) 7_566
Ce1 As2 2.867(3) 1_545
Ce2 As1 2.994(3) .
Ce2 As1 2.994(3) 7
Ce2 As1 2.994(3) 7_665
Ce2 As1 2.994(3) 1_445
Ce2 As1 2.994(3) 7_565
Ce2 As1 2.994(3) 1_545
Ce2 Zn2 3.606(4) 7_666
Ce2 Zn2 3.606(4) 1_444
Ce2 Zn2 3.606(4) 7_556
Ce2 Zn2 3.606(4) 1_554
Ce2 Zn2 3.606(4) 7_566
Ce2 Zn2 3.606(4) 1_544
Zn1 Mn 1.052(14) .
Zn1 As2 2.501(3) 7_666
Zn1 As2 2.501(3) 7_676
Zn1 As2 2.501(3) 7_566
Zn1 As1 2.719(7) .
Zn1 Zn2 3.010(5) 7_666
Zn1 Zn2 3.010(5) 7_566
Zn1 Zn2 3.010(5) 7_676
Zn1 Ce1 3.306(5) 1_665
Zn1 Ce1 3.306(5) 1_565
Zn2 As2 2.523(4) .
Zn2 As1 2.563(3) 7_666
Zn2 As1 2.563(3) 7_676
Zn2 As1 2.563(3) 7_566
Zn2 Zn1 3.010(5) 7_666
Zn2 Zn1 3.010(5) 7_566
Zn2 Zn1 3.010(5) 7_676
Zn2 Ce2 3.606(4) 1_666
Zn2 Ce2 3.606(4) 1_566
Zn2 Ce2 3.606(4) 1_556
Mn As2 2.425(4) 7_666
Mn As2 2.425(4) 7_566
Mn As2 2.425(4) 7_676
Mn Ce1 2.693(7) 1_565
Mn Ce1 2.693(7) 1_665
Mn As2 2.792(14) .
As1 Zn2 2.563(3) 7_666
As1 Zn2 2.563(3) 7_676
As1 Zn2 2.563(3) 7_566
As1 Ce2 2.994(3) 1_565
As1 Ce2 2.994(3) 1_665
As2 Mn 2.425(4) 7_666
As2 Mn 2.425(4) 7_566
As2 Mn 2.425(4) 7_676
As2 Zn1 2.501(3) 7_666
As2 Zn1 2.501(3) 7_676
As2 Zn1 2.501(3) 7_566
As2 Ce1 2.867(3) 1_565
As2 Ce1 2.867(3) 1_665
