#------------------------------------------------------------------------------
#$Date: 2016-02-16 22:30:59 +0200 (Tue, 16 Feb 2016) $
#$Revision: 176467 $
#$URL: svn://www.crystallography.net/cod/cif/4/34/00/4340036.cif $
#------------------------------------------------------------------------------
#
# This file is available in the Crystallography Open Database (COD),
# http://www.crystallography.net/
#
# All data on this site have been placed in the public domain by the
# contributors.
#
data_4340036
loop_
_publ_author_name
'Meng, Chang-Yu'
'Chen, Hong'
'Wang, Peng'
_publ_section_title
;
 Syntheses, Structures, and Physical Properties of CsRE2Ag3Te5 (RE = Pr,
 Nd, Sm, Gd-Er) and RbRE2Ag3Te5 (RE = Sm, Gd-Dy).
;
_journal_issue                   13
_journal_name_full               'Inorganic chemistry'
_journal_page_first              6893
_journal_page_last               6903
_journal_paper_doi               10.1021/ic5007132
_journal_volume                  53
_journal_year                    2014
_chemical_formula_moiety         'Ag1.20 Cs0.40 Gd0.80 Te2'
_chemical_formula_sum            'Ag1.2 Cs0.4 Gd0.8 Te2'
_chemical_formula_weight         563.61
_chemical_name_systematic
; 
 ? 
;
_space_group_IT_number           63
_symmetry_cell_setting           orthorhombic
_symmetry_space_group_name_Hall  '-C 2c 2'
_symmetry_space_group_name_H-M   'C m c m'
_atom_sites_solution_primary     direct
_atom_sites_solution_secondary   difmap
_audit_creation_method           SHELXL-97
_cell_angle_alpha                90.00
_cell_angle_beta                 90.00
_cell_angle_gamma                90.00
_cell_formula_units_Z            10
_cell_length_a                   4.552(3)
_cell_length_b                   16.255(11)
_cell_length_c                   18.552(13)
_cell_measurement_reflns_used    791
_cell_measurement_temperature    293(2)
_cell_measurement_theta_max      27.4410
_cell_measurement_theta_min      2.7354
_cell_volume                     1372.7(16)
_computing_cell_refinement       'CrystalClear (Rigaku Inc., 2007)'
_computing_data_collection       'CrystalClear (Rigaku Inc., 2007)'
_computing_data_reduction        'CrystalClear (Rigaku Inc., 2007)'
_computing_molecular_graphics    'Bruker SHELXTL'
_computing_publication_material  'Bruker SHELXTL'
_computing_structure_refinement  'SHELXL-97 (Sheldrick, 1997)'
_computing_structure_solution    'SHELXS-97 (Sheldrick, 1990)'
_diffrn_ambient_temperature      293(2)
_diffrn_detector_area_resol_mean 13.6612
_diffrn_measured_fraction_theta_full 0.998
_diffrn_measured_fraction_theta_max 0.998
_diffrn_measurement_device_type  SCXMini
_diffrn_measurement_method       CCD_Profile_fitting
_diffrn_radiation_monochromator  graphite
_diffrn_radiation_source         'fine-focus sealed tube'
_diffrn_radiation_type           MoK\a
_diffrn_radiation_wavelength     0.71073
_diffrn_reflns_av_R_equivalents  0.0337
_diffrn_reflns_av_sigmaI/netI    0.0223
_diffrn_reflns_limit_h_max       5
_diffrn_reflns_limit_h_min       -5
_diffrn_reflns_limit_k_max       18
_diffrn_reflns_limit_k_min       -20
_diffrn_reflns_limit_l_max       24
_diffrn_reflns_limit_l_min       -24
_diffrn_reflns_number            5230
_diffrn_reflns_theta_full        27.43
_diffrn_reflns_theta_max         27.43
_diffrn_reflns_theta_min         2.51
_exptl_absorpt_coefficient_mu    26.712
_exptl_absorpt_correction_T_max  1.0000
_exptl_absorpt_correction_T_min  0.6339
_exptl_absorpt_correction_type   multi-scan
_exptl_crystal_colour            'silvery white'
_exptl_crystal_density_diffrn    6.819
_exptl_crystal_density_method    'not measured'
_exptl_crystal_description       chunk
_exptl_crystal_F_000             2336
_exptl_crystal_size_max          0.12
_exptl_crystal_size_mid          0.10
_exptl_crystal_size_min          0.09
_refine_diff_density_max         1.921
_refine_diff_density_min         -2.439
_refine_diff_density_rms         0.585
_refine_ls_extinction_coef       0.00010(2)
_refine_ls_extinction_expression Fc^*^=kFc[1+0.001xFc^2^\l^3^/sin(2\q)]^-1/4^
_refine_ls_extinction_method     SHELXL
_refine_ls_goodness_of_fit_ref   1.336
_refine_ls_matrix_type           full
_refine_ls_number_parameters     38
_refine_ls_number_reflns         904
_refine_ls_number_restraints     0
_refine_ls_restrained_S_all      1.336
_refine_ls_R_factor_all          0.0282
_refine_ls_R_factor_gt           0.0243
_refine_ls_shift/su_max          0.000
_refine_ls_shift/su_mean         0.000
_refine_ls_structure_factor_coef Fsqd
_refine_ls_weighting_details
'calc w=1/[\s^2^(Fo^2^)+(0.0174P)^2^+79.4290P] where P=(Fo^2^+2Fc^2^)/3'
_refine_ls_weighting_scheme      calc
_refine_ls_wR_factor_gt          0.0492
_refine_ls_wR_factor_ref         0.0754
_reflns_number_gt                864
_reflns_number_total             904
_reflns_threshold_expression     >2sigma(I)
_cod_data_source_file            ic5007132_si_002.cif
_cod_data_source_block           CsGd2Ag3Te5
_cod_depositor_comments
;
The following automatic conversions were performed:

'_symmetry_cell_setting' value 'Orthorhombic' changed to
'orthorhombic' according to
/usr/data/users/saulius/crontab/automatic-downloads/rss-feeds/ACS/lib/dictionaries/cif_core.dic
dictionary named 'cif_core.dic' version 2.4.2 from
2011-04-26.

'_exptl_absorpt_correction_type' value 'Multi-scan'
changed to 'multi-scan' according to
/usr/data/users/saulius/crontab/automatic-downloads/rss-feeds/ACS/lib/dictionaries/cif_core.dic
dictionary named 'cif_core.dic' version 2.4.2 from 2011-04-26.

Automatic conversion script
Id: cif_fix_values 2281 2013-09-26 08:29:07Z andrius 

 Adding full bibliography for 4340029--4340040.cif.
;
_cod_original_cell_volume        1372.5(16)
_cod_original_sg_symbol_H-M      Cmcm
_cod_original_formula_sum        'Ag1.20 Cs0.40 Gd0.80 Te2'
_cod_database_code               4340036
loop_
_symmetry_equiv_pos_as_xyz
'x, y, z'
'-x, -y, z+1/2'
'-x, y, -z+1/2'
'x, -y, -z'
'x+1/2, y+1/2, z'
'-x+1/2, -y+1/2, z+1/2'
'-x+1/2, y+1/2, -z+1/2'
'x+1/2, -y+1/2, -z'
'-x, -y, -z'
'x, y, -z-1/2'
'x, -y, z-1/2'
'-x, y, z'
'-x+1/2, -y+1/2, -z'
'x+1/2, y+1/2, -z-1/2'
'x+1/2, -y+1/2, z-1/2'
'-x+1/2, y+1/2, z'
loop_
_atom_site_label
_atom_site_type_symbol
_atom_site_fract_x
_atom_site_fract_y
_atom_site_fract_z
_atom_site_U_iso_or_equiv
_atom_site_adp_type
_atom_site_occupancy
_atom_site_symmetry_multiplicity
_atom_site_calc_flag
_atom_site_refinement_flags
Cs Cs 0.0000 0.44149(8) 0.2500 0.0210(3) Uani 1 4 d S
Gd Gd 0.0000 0.30854(4) 0.59401(4) 0.0135(2) Uani 1 2 d S
Te1 Te 0.0000 0.93712(6) 0.61884(5) 0.0141(2) Uani 1 2 d S
Te2 Te 0.0000 0.32372(6) 0.07236(5) 0.0127(2) Uani 1 2 d S
Te3 Te 0.0000 0.75469(8) 0.2500 0.0146(3) Uani 1 4 d S
Ag1 Ag 0.0000 0.15863(12) 0.2500 0.0253(4) Uani 1 4 d S
Ag2 Ag 0.0000 0.91613(8) 0.03354(7) 0.0242(3) Uani 1 2 d S
loop_
_atom_site_aniso_label
_atom_site_aniso_U_11
_atom_site_aniso_U_22
_atom_site_aniso_U_33
_atom_site_aniso_U_23
_atom_site_aniso_U_13
_atom_site_aniso_U_12
Cs 0.0240(7) 0.0202(7) 0.0189(6) 0.000 0.000 0.000
Gd 0.0139(4) 0.0154(4) 0.0111(3) -0.0001(2) 0.000 0.000
Te1 0.0172(5) 0.0114(4) 0.0137(4) -0.0001(3) 0.000 0.000
Te2 0.0132(4) 0.0133(4) 0.0115(4) 0.0004(3) 0.000 0.000
Te3 0.0173(7) 0.0169(7) 0.0097(6) 0.000 0.000 0.000
Ag1 0.0221(9) 0.0281(9) 0.0257(9) 0.000 0.000 0.000
Ag2 0.0263(6) 0.0215(6) 0.0248(6) 0.0016(5) 0.000 0.000
loop_
_atom_type_symbol
_atom_type_description
_atom_type_scat_dispersion_real
_atom_type_scat_dispersion_imag
_atom_type_scat_source
Ag Ag -0.8971 1.1015 'International Tables Vol C Tables 4.2.6.8 and 6.1.1.4'
Te Te -0.5308 1.6751 'International Tables Vol C Tables 4.2.6.8 and 6.1.1.4'
Cs Cs -0.3680 2.1192 'International Tables Vol C Tables 4.2.6.8 and 6.1.1.4'
Gd Gd -0.1653 3.9035 'International Tables Vol C Tables 4.2.6.8 and 6.1.1.4'
loop_
_geom_angle_atom_site_label_1
_geom_angle_atom_site_label_2
_geom_angle_atom_site_label_3
_geom_angle
_geom_angle_site_symmetry_1
_geom_angle_site_symmetry_3
Te3 Cs Te3 73.70(6) 5_445 5_545
Te3 Cs Te2 66.30(3) 5_445 .
Te3 Cs Te2 66.30(3) 5_545 .
Te3 Cs Te2 66.30(3) 5_445 10_556
Te3 Cs Te2 66.30(3) 5_545 10_556
Te2 Cs Te2 119.70(7) . 10_556
Te3 Cs Te1 139.49(3) 5_445 13_566
Te3 Cs Te1 93.17(4) 5_545 13_566
Te2 Cs Te1 143.07(2) . 13_566
Te2 Cs Te1 73.30(5) 10_556 13_566
Te3 Cs Te1 93.17(4) 5_445 6_464
Te3 Cs Te1 139.49(3) 5_545 6_464
Te2 Cs Te1 73.30(5) . 6_464
Te2 Cs Te1 143.07(2) 10_556 6_464
Te1 Cs Te1 118.73(6) 13_566 6_464
Te3 Cs Te1 93.17(4) 5_445 13_466
Te3 Cs Te1 139.49(3) 5_545 13_466
Te2 Cs Te1 143.07(2) . 13_466
Te2 Cs Te1 73.30(5) 10_556 13_466
Te1 Cs Te1 71.99(5) 13_566 13_466
Te1 Cs Te1 77.86(6) 6_464 13_466
Te3 Cs Te1 139.49(3) 5_445 6_564
Te3 Cs Te1 93.17(4) 5_545 6_564
Te2 Cs Te1 73.30(5) . 6_564
Te2 Cs Te1 143.07(2) 10_556 6_564
Te1 Cs Te1 77.86(6) 13_566 6_564
Te1 Cs Te1 71.99(5) 6_464 6_564
Te1 Cs Te1 118.73(6) 13_466 6_564
Te3 Cs Ag1 175.96(3) 5_445 5
Te3 Cs Ag1 110.34(6) 5_545 5
Te2 Cs Ag1 114.97(3) . 5
Te2 Cs Ag1 114.97(3) 10_556 5
Te1 Cs Ag1 41.69(3) 13_566 5
Te1 Cs Ag1 83.70(5) 6_464 5
Te1 Cs Ag1 83.70(5) 13_466 5
Te1 Cs Ag1 41.69(3) 6_564 5
Te3 Cs Ag1 110.34(6) 5_445 5_455
Te3 Cs Ag1 175.96(3) 5_545 5_455
Te2 Cs Ag1 114.97(3) . 5_455
Te2 Cs Ag1 114.97(3) 10_556 5_455
Te1 Cs Ag1 83.70(5) 13_566 5_455
Te1 Cs Ag1 41.69(3) 6_464 5_455
Te1 Cs Ag1 41.69(3) 13_466 5_455
Te1 Cs Ag1 83.70(5) 6_564 5_455
Ag1 Cs Ag1 65.63(6) 5 5_455
Te3 Cs Cs 126.85(3) 5_445 1_655
Te3 Cs Cs 53.15(3) 5_545 1_655
Te2 Cs Cs 90.0 . 1_655
Te2 Cs Cs 90.0 10_556 1_655
Te1 Cs Cs 54.00(3) 13_566 1_655
Te1 Cs Cs 126.00(3) 6_464 1_655
Te1 Cs Cs 126.00(3) 13_466 1_655
Te1 Cs Cs 54.00(3) 6_564 1_655
Ag1 Cs Cs 57.19(3) 5 1_655
Ag1 Cs Cs 122.81(3) 5_455 1_655
Te3 Cs Cs 53.15(3) 5_445 1_455
Te3 Cs Cs 126.85(3) 5_545 1_455
Te2 Cs Cs 90.0 . 1_455
Te2 Cs Cs 90.0 10_556 1_455
Te1 Cs Cs 126.00(3) 13_566 1_455
Te1 Cs Cs 54.00(3) 6_464 1_455
Te1 Cs Cs 54.00(3) 13_466 1_455
Te1 Cs Cs 126.00(3) 6_564 1_455
Ag1 Cs Cs 122.81(3) 5 1_455
Ag1 Cs Cs 57.19(3) 5_455 1_455
Cs Cs Cs 180.00(7) 1_655 1_455
Te3 Gd Te2 165.02(4) 9_566 10_556
Te3 Gd Te1 94.87(3) 9_566 5_545
Te2 Gd Te1 95.38(3) 10_556 5_545
Te3 Gd Te1 94.87(3) 9_566 5_445
Te2 Gd Te1 95.38(3) 10_556 5_445
Te1 Gd Te1 93.52(6) 5_545 5_445
Te3 Gd Te2 83.79(3) 9_566 6_455
Te2 Gd Te2 85.84(3) 10_556 6_455
Te1 Gd Te2 178.58(3) 5_545 6_455
Te1 Gd Te2 87.09(6) 5_445 6_455
Te3 Gd Te2 83.79(3) 9_566 6
Te2 Gd Te2 85.84(3) 10_556 6
Te1 Gd Te2 87.09(6) 5_545 6
Te1 Gd Te2 178.58(3) 5_445 6
Te2 Gd Te2 92.27(6) 6_455 6
Te3 Gd Ag2 139.18(3) 9_566 14_446
Te2 Gd Ag2 47.81(3) 10_556 14_446
Te1 Gd Ag2 103.00(5) 5_545 14_446
Te1 Gd Ag2 48.21(4) 5_445 14_446
Te2 Gd Ag2 78.36(5) 6_455 14_446
Te2 Gd Ag2 132.88(4) 6 14_446
Te3 Gd Ag2 139.18(3) 9_566 14_546
Te2 Gd Ag2 47.81(3) 10_556 14_546
Te1 Gd Ag2 48.21(4) 5_545 14_546
Te1 Gd Ag2 103.00(5) 5_445 14_546
Te2 Gd Ag2 132.88(4) 6_455 14_546
Te2 Gd Ag2 78.36(5) 6 14_546
Ag2 Gd Ag2 75.44(5) 14_446 14_546
Te3 Gd Ag1 46.76(4) 9_566 13_556
Te2 Gd Ag1 139.82(3) 10_556 13_556
Te1 Gd Ag1 48.98(3) 5_545 13_556
Te1 Gd Ag1 103.59(5) 5_445 13_556
Te2 Gd Ag1 129.63(4) 6_455 13_556
Te2 Gd Ag1 75.85(4) 6 13_556
Ag2 Gd Ag1 143.29(5) 14_446 13_556
Ag2 Gd Ag1 93.05(5) 14_546 13_556
Te3 Gd Ag1 46.76(4) 9_566 13_456
Te2 Gd Ag1 139.82(3) 10_556 13_456
Te1 Gd Ag1 103.59(5) 5_545 13_456
Te1 Gd Ag1 48.98(3) 5_445 13_456
Te2 Gd Ag1 75.85(4) 6_455 13_456
Te2 Gd Ag1 129.63(4) 6 13_456
Ag2 Gd Ag1 93.05(5) 14_446 13_456
Ag2 Gd Ag1 143.29(5) 14_546 13_456
Ag1 Gd Ag1 75.43(5) 13_556 13_456
Ag2 Te1 Ag2 63.32(6) 10_556 2_575
Ag2 Te1 Ag1 140.51(6) 10_556 9_566
Ag2 Te1 Ag1 156.17(5) 2_575 9_566
Ag2 Te1 Gd 76.90(3) 10_556 5_455
Ag2 Te1 Gd 118.42(4) 2_575 5_455
Ag1 Te1 Gd 76.33(4) 9_566 5_455
Ag2 Te1 Gd 76.90(3) 10_556 5
Ag2 Te1 Gd 118.42(4) 2_575 5
Ag1 Te1 Gd 76.33(4) 9_566 5
Gd Te1 Gd 93.52(6) 5_455 5
Ag2 Te1 Cs 133.23(3) 10_556 13_566
Ag2 Te1 Cs 85.57(5) 2_575 13_566
Ag1 Te1 Cs 75.24(5) 9_566 13_566
Gd Te1 Cs 149.51(4) 5_455 13_566
Gd Te1 Cs 90.31(5) 5 13_566
Ag2 Te1 Cs 133.23(3) 10_556 13_466
Ag2 Te1 Cs 85.57(5) 2_575 13_466
Ag1 Te1 Cs 75.24(5) 9_566 13_466
Gd Te1 Cs 90.31(5) 5_455 13_466
Gd Te1 Cs 149.51(4) 5 13_466
Cs Te1 Cs 71.99(5) 13_566 13_466
Ag2 Te2 Ag2 107.59(7) 5_545 5_445
Ag2 Te2 Gd 77.75(3) 5_545 10_556
Ag2 Te2 Gd 77.75(3) 5_445 10_556
Ag2 Te2 Gd 167.71(4) 5_545 6_454
Ag2 Te2 Gd 79.25(6) 5_445 6_454
Gd Te2 Gd 94.16(3) 10_556 6_454
Ag2 Te2 Gd 79.25(6) 5_545 6_554
Ag2 Te2 Gd 167.71(4) 5_445 6_554
Gd Te2 Gd 94.16(3) 10_556 6_554
Gd Te2 Gd 92.27(6) 6_454 6_554
Ag2 Te2 Cs 87.32(4) 5_545 .
Ag2 Te2 Cs 87.32(4) 5_445 .
Gd Te2 Cs 154.42(4) 10_556 .
Gd Te2 Cs 103.42(4) 6_454 .
Gd Te2 Cs 103.42(4) 6_554 .
Ag1 Te3 Ag1 111.09(9) 5_455 5
Ag1 Te3 Gd 79.08(3) 5_455 2_564
Ag1 Te3 Gd 79.08(3) 5 2_564
Ag1 Te3 Gd 79.08(3) 5_455 9_566
Ag1 Te3 Gd 79.08(3) 5 9_566
Gd Te3 Gd 140.89(6) 2_564 9_566
Ag1 Te3 Cs 161.31(5) 5_455 5
Ag1 Te3 Cs 87.61(6) 5 5
Gd Te3 Cs 105.54(3) 2_564 5
Gd Te3 Cs 105.54(3) 9_566 5
Ag1 Te3 Cs 87.61(6) 5_455 5_455
Ag1 Te3 Cs 161.31(5) 5 5_455
Gd Te3 Cs 105.54(3) 2_564 5_455
Gd Te3 Cs 105.54(3) 9_566 5_455
Cs Te3 Cs 73.70(6) 5 5_455
Te3 Ag1 Te3 111.09(9) 5_545 5_445
Te3 Ag1 Te1 107.75(3) 5_545 2_564
Te3 Ag1 Te1 107.75(3) 5_445 2_564
Te3 Ag1 Te1 107.75(3) 5_545 9_566
Te3 Ag1 Te1 107.75(3) 5_445 9_566
Te1 Ag1 Te1 114.79(9) 2_564 9_566
Te3 Ag1 Gd 54.16(3) 5_545 13_556
Te3 Ag1 Gd 115.04(5) 5_445 13_556
Te1 Ag1 Gd 137.11(4) 2_564 13_556
Te1 Ag1 Gd 54.69(4) 9_566 13_556
Te3 Ag1 Gd 115.04(5) 5_545 6_454
Te3 Ag1 Gd 54.16(3) 5_445 6_454
Te1 Ag1 Gd 54.69(4) 2_564 6_454
Te1 Ag1 Gd 137.11(4) 9_566 6_454
Gd Ag1 Gd 163.50(6) 13_556 6_454
Te3 Ag1 Gd 115.04(5) 5_545 13_456
Te3 Ag1 Gd 54.16(3) 5_445 13_456
Te1 Ag1 Gd 137.11(4) 2_564 13_456
Te1 Ag1 Gd 54.69(4) 9_566 13_456
Gd Ag1 Gd 75.43(5) 13_556 13_456
Gd Ag1 Gd 102.14(6) 6_454 13_456
Te3 Ag1 Gd 54.16(3) 5_545 6_554
Te3 Ag1 Gd 115.04(5) 5_445 6_554
Te1 Ag1 Gd 54.69(4) 2_564 6_554
Te1 Ag1 Gd 137.11(4) 9_566 6_554
Gd Ag1 Gd 102.14(6) 13_556 6_554
Gd Ag1 Gd 75.43(5) 6_454 6_554
Gd Ag1 Gd 163.50(6) 13_456 6_554
Te3 Ag1 Cs 157.27(5) 5_545 5_445
Te3 Ag1 Cs 91.64(6) 5_445 5_445
Te1 Ag1 Cs 63.07(4) 2_564 5_445
Te1 Ag1 Cs 63.07(4) 9_566 5_445
Gd Ag1 Cs 116.88(4) 13_556 5_445
Gd Ag1 Cs 77.82(3) 6_454 5_445
Gd Ag1 Cs 77.82(3) 13_456 5_445
Gd Ag1 Cs 116.88(4) 6_554 5_445
Te3 Ag1 Cs 91.64(6) 5_545 5_545
Te3 Ag1 Cs 157.27(5) 5_445 5_545
Te1 Ag1 Cs 63.07(4) 2_564 5_545
Te1 Ag1 Cs 63.07(4) 9_566 5_545
Gd Ag1 Cs 77.82(3) 13_556 5_545
Gd Ag1 Cs 116.88(4) 6_454 5_545
Gd Ag1 Cs 116.88(4) 13_456 5_545
Gd Ag1 Cs 77.82(3) 6_554 5_545
Cs Ag1 Cs 65.63(6) 5_445 5_545
Te2 Ag2 Te2 107.59(7) 5_455 5
Te2 Ag2 Te1 108.50(4) 5_455 10_556
Te2 Ag2 Te1 108.50(4) 5 10_556
Te2 Ag2 Te1 107.62(5) 5_455 2_574
Te2 Ag2 Te1 107.62(5) 5 2_574
Te1 Ag2 Te1 116.68(6) 10_556 2_574
Te2 Ag2 Ag2 126.20(4) 5_455 9_575
Te2 Ag2 Ag2 126.20(4) 5 9_575
Te1 Ag2 Ag2 58.59(5) 10_556 9_575
Te1 Ag2 Ag2 58.09(6) 2_574 9_575
Te2 Ag2 Gd 54.43(4) 5_455 14_456
Te2 Ag2 Gd 113.94(6) 5 14_456
Te1 Ag2 Gd 54.89(4) 10_556 14_456
Te1 Ag2 Gd 138.03(3) 2_574 14_456
Ag2 Ag2 Gd 99.42(6) 9_575 14_456
Te2 Ag2 Gd 113.94(6) 5_455 14_556
Te2 Ag2 Gd 54.43(4) 5 14_556
Te1 Ag2 Gd 54.89(4) 10_556 14_556
Te1 Ag2 Gd 138.03(3) 2_574 14_556
Ag2 Ag2 Gd 99.42(6) 9_575 14_556
Gd Ag2 Gd 75.44(5) 14_456 14_556
loop_
_geom_bond_atom_site_label_1
_geom_bond_atom_site_label_2
_geom_bond_distance
_geom_bond_site_symmetry_2
Gd Te3 3.071(2) 9_566
Gd Te2 3.096(2) 10_556
Gd Te1 3.1240(17) 5_545
Gd Te1 3.1240(17) 5_445
Gd Te2 3.1564(17) 6_455
Gd Te2 3.1564(17) 6
Te1 Ag2 2.847(2) 10_556
Te1 Ag2 2.863(2) 2_575
Te1 Ag1 2.888(2) 9_566
Te1 Gd 3.1241(17) 5_455
Te1 Gd 3.1241(17) 5
Te2 Ag2 2.8204(17) 5_545
Te2 Ag2 2.8204(16) 5_445
Te2 Gd 3.096(2) 10_556
Te2 Gd 3.1564(17) 6_454
Te2 Gd 3.1564(17) 6_554
Te3 Ag1 2.7600(19) 5_455
Te3 Ag1 2.7600(19) 5
Te3 Gd 3.071(2) 2_564
Te3 Gd 3.071(2) 9_566
Ag1 Te3 2.7600(19) 5_545
Ag1 Te3 2.7600(19) 5_445
Ag1 Te1 2.888(2) 2_564
Ag1 Te1 2.888(2) 9_566
Ag1 Gd 3.7200(19) 13_556
Ag1 Gd 3.7200(19) 6_454
Ag1 Gd 3.7200(19) 13_456
Ag1 Gd 3.7200(19) 6_554
Ag2 Te2 2.8204(16) 5_455
Ag2 Te2 2.8204(16) 5
Ag2 Te1 2.847(2) 10_556
Ag2 Te1 2.863(2) 2_574
Ag2 Ag2 2.997(3) 9_575
