#------------------------------------------------------------------------------
#$Date: 2016-02-16 22:30:59 +0200 (Tue, 16 Feb 2016) $
#$Revision: 176467 $
#$URL: svn://www.crystallography.net/cod/cif/4/34/00/4340038.cif $
#------------------------------------------------------------------------------
#
# This file is available in the Crystallography Open Database (COD),
# http://www.crystallography.net/
#
# All data on this site have been placed in the public domain by the
# contributors.
#
data_4340038
loop_
_publ_author_name
'Meng, Chang-Yu'
'Chen, Hong'
'Wang, Peng'
_publ_section_title
;
 Syntheses, Structures, and Physical Properties of CsRE2Ag3Te5 (RE = Pr,
 Nd, Sm, Gd-Er) and RbRE2Ag3Te5 (RE = Sm, Gd-Dy).
;
_journal_issue                   13
_journal_name_full               'Inorganic chemistry'
_journal_page_first              6893
_journal_page_last               6903
_journal_paper_doi               10.1021/ic5007132
_journal_volume                  53
_journal_year                    2014
_chemical_formula_moiety         'Ag1.20 Cs0.40 Dy0.80 Te2'
_chemical_formula_sum            'Ag1.2 Cs0.4 Dy0.8 Te2'
_chemical_formula_weight         567.81
_chemical_name_systematic
; 
 ? 
;
_space_group_IT_number           63
_symmetry_cell_setting           orthorhombic
_symmetry_space_group_name_Hall  '-C 2c 2'
_symmetry_space_group_name_H-M   'C m c m'
_atom_sites_solution_primary     direct
_atom_sites_solution_secondary   difmap
_audit_creation_method           SHELXL-97
_cell_angle_alpha                90.00
_cell_angle_beta                 90.00
_cell_angle_gamma                90.00
_cell_formula_units_Z            10
_cell_length_a                   4.523(3)
_cell_length_b                   16.286(12)
_cell_length_c                   18.471(14)
_cell_measurement_reflns_used    783
_cell_measurement_temperature    293(2)
_cell_measurement_theta_max      27.3641
_cell_measurement_theta_min      2.5011
_cell_volume                     1360.6(17)
_computing_cell_refinement       'CrystalClear (Rigaku Inc., 2007)'
_computing_data_collection       'CrystalClear (Rigaku Inc., 2007)'
_computing_data_reduction        'CrystalClear (Rigaku Inc., 2007)'
_computing_molecular_graphics    'Bruker SHELXTL'
_computing_structure_refinement  'SHELXL-97 (Sheldrick, 1997)'
_computing_structure_solution    'SHELXS-97 (Sheldrick, 1990)'
_diffrn_ambient_temperature      293(2)
_diffrn_detector_area_resol_mean 13.6612
_diffrn_measured_fraction_theta_full 0.999
_diffrn_measured_fraction_theta_max 0.999
_diffrn_measurement_device_type  SCXMini
_diffrn_measurement_method       CCD_Profile_fitting
_diffrn_radiation_monochromator  graphite
_diffrn_radiation_source         'fine-focus sealed tube'
_diffrn_radiation_type           MoK\a
_diffrn_radiation_wavelength     0.71073
_diffrn_reflns_av_R_equivalents  0.0411
_diffrn_reflns_av_sigmaI/netI    0.0296
_diffrn_reflns_limit_h_max       5
_diffrn_reflns_limit_h_min       -5
_diffrn_reflns_limit_k_max       20
_diffrn_reflns_limit_k_min       -17
_diffrn_reflns_limit_l_max       23
_diffrn_reflns_limit_l_min       -23
_diffrn_reflns_number            5242
_diffrn_reflns_theta_full        27.44
_diffrn_reflns_theta_max         27.44
_diffrn_reflns_theta_min         2.50
_exptl_absorpt_coefficient_mu    28.182
_exptl_absorpt_correction_T_max  1.0000
_exptl_absorpt_correction_T_min  0.5051
_exptl_absorpt_correction_type   multi-scan
_exptl_crystal_colour            'silvery white'
_exptl_crystal_density_diffrn    6.930
_exptl_crystal_density_method    'not measured'
_exptl_crystal_description       chunk
_exptl_crystal_F_000             2352
_exptl_crystal_size_max          0.13
_exptl_crystal_size_mid          0.11
_exptl_crystal_size_min          0.10
_refine_diff_density_max         2.660
_refine_diff_density_min         -1.960
_refine_diff_density_rms         0.375
_refine_ls_extinction_coef       0.00015(2)
_refine_ls_extinction_expression Fc^*^=kFc[1+0.001xFc^2^\l^3^/sin(2\q)]^-1/4^
_refine_ls_extinction_method     SHELXL
_refine_ls_goodness_of_fit_ref   1.174
_refine_ls_matrix_type           full
_refine_ls_number_parameters     38
_refine_ls_number_reflns         896
_refine_ls_number_restraints     0
_refine_ls_restrained_S_all      1.174
_refine_ls_R_factor_all          0.0345
_refine_ls_R_factor_gt           0.0303
_refine_ls_shift/su_max          0.000
_refine_ls_shift/su_mean         0.000
_refine_ls_structure_factor_coef Fsqd
_refine_ls_weighting_details
'calc w=1/[\s^2^(Fo^2^)+(0.0220P)^2^+38.3421P] where P=(Fo^2^+2Fc^2^)/3'
_refine_ls_weighting_scheme      calc
_refine_ls_wR_factor_gt          0.0651
_refine_ls_wR_factor_ref         0.0668
_reflns_number_gt                830
_reflns_number_total             896
_reflns_threshold_expression     >2sigma(I)
_cod_data_source_file            ic5007132_si_002.cif
_cod_data_source_block           CsDy2Ag3Te5
_cod_depositor_comments
;
The following automatic conversions were performed:

'_symmetry_cell_setting' value 'Orthorhombic' changed to
'orthorhombic' according to
/usr/data/users/saulius/crontab/automatic-downloads/rss-feeds/ACS/lib/dictionaries/cif_core.dic
dictionary named 'cif_core.dic' version 2.4.2 from
2011-04-26.

'_exptl_absorpt_correction_type' value 'Multi-scan'
changed to 'multi-scan' according to
/usr/data/users/saulius/crontab/automatic-downloads/rss-feeds/ACS/lib/dictionaries/cif_core.dic
dictionary named 'cif_core.dic' version 2.4.2 from 2011-04-26.

Automatic conversion script
Id: cif_fix_values 2281 2013-09-26 08:29:07Z andrius 

 Adding full bibliography for 4340029--4340040.cif.
;
_cod_original_cell_volume        1360.6(18)
_cod_original_sg_symbol_H-M      Cmcm
_cod_original_formula_sum        'Ag1.20 Cs0.40 Dy0.80 Te2'
_cod_database_code               4340038
loop_
_symmetry_equiv_pos_as_xyz
'x, y, z'
'-x, -y, z+1/2'
'-x, y, -z+1/2'
'x, -y, -z'
'x+1/2, y+1/2, z'
'-x+1/2, -y+1/2, z+1/2'
'-x+1/2, y+1/2, -z+1/2'
'x+1/2, -y+1/2, -z'
'-x, -y, -z'
'x, y, -z-1/2'
'x, -y, z-1/2'
'-x, y, z'
'-x+1/2, -y+1/2, -z'
'x+1/2, y+1/2, -z-1/2'
'x+1/2, -y+1/2, z-1/2'
'-x+1/2, y+1/2, z'
loop_
_atom_site_label
_atom_site_type_symbol
_atom_site_fract_x
_atom_site_fract_y
_atom_site_fract_z
_atom_site_U_iso_or_equiv
_atom_site_adp_type
_atom_site_occupancy
_atom_site_symmetry_multiplicity
_atom_site_calc_flag
_atom_site_refinement_flags
Cs Cs 0.0000 0.44236(7) 0.2500 0.0221(3) Uani 1 4 d S
Dy Dy 0.0000 0.30772(3) 0.59426(3) 0.01477(17) Uani 1 2 d S
Te1 Te 0.0000 0.93517(5) 0.61822(4) 0.0152(2) Uani 1 2 d S
Te2 Te 0.0000 0.32273(5) 0.07156(4) 0.01371(19) Uani 1 2 d S
Te3 Te 0.0000 0.75506(7) 0.2500 0.0157(3) Uani 1 4 d S
Ag1 Ag 0.0000 0.15838(9) 0.2500 0.0267(3) Uani 1 4 d S
Ag2 Ag 0.0000 0.91735(6) 0.03541(6) 0.0268(3) Uani 1 2 d S
loop_
_atom_site_aniso_label
_atom_site_aniso_U_11
_atom_site_aniso_U_22
_atom_site_aniso_U_33
_atom_site_aniso_U_23
_atom_site_aniso_U_13
_atom_site_aniso_U_12
Cs 0.0219(6) 0.0226(5) 0.0220(6) 0.000 0.000 0.000
Dy 0.0117(3) 0.0183(3) 0.0144(3) -0.0003(2) 0.000 0.000
Te1 0.0140(4) 0.0137(4) 0.0180(4) 0.0001(3) 0.000 0.000
Te2 0.0104(4) 0.0154(4) 0.0154(4) 0.0002(3) 0.000 0.000
Te3 0.0142(6) 0.0199(6) 0.0129(5) 0.000 0.000 0.000
Ag1 0.0204(8) 0.0307(8) 0.0288(8) 0.000 0.000 0.000
Ag2 0.0248(6) 0.0240(5) 0.0315(6) 0.0007(4) 0.000 0.000
loop_
_atom_type_symbol
_atom_type_description
_atom_type_scat_dispersion_real
_atom_type_scat_dispersion_imag
_atom_type_scat_source
Ag Ag -0.8971 1.1015 'International Tables Vol C Tables 4.2.6.8 and 6.1.1.4'
Te Te -0.5308 1.6751 'International Tables Vol C Tables 4.2.6.8 and 6.1.1.4'
Cs Cs -0.3680 2.1192 'International Tables Vol C Tables 4.2.6.8 and 6.1.1.4'
Dy Dy -0.1892 4.4098 'International Tables Vol C Tables 4.2.6.8 and 6.1.1.4'
loop_
_geom_angle_atom_site_label_1
_geom_angle_atom_site_label_2
_geom_angle_atom_site_label_3
_geom_angle
_geom_angle_site_symmetry_1
_geom_angle_site_symmetry_3
Te3 Cs Te3 73.10(6) 5_445 5_545
Te3 Cs Te2 65.87(3) 5_445 10_556
Te3 Cs Te2 65.87(3) 5_545 10_556
Te3 Cs Te2 65.87(3) 5_445 .
Te3 Cs Te2 65.87(3) 5_545 .
Te2 Cs Te2 118.83(6) 10_556 .
Te3 Cs Te1 139.55(3) 5_445 13_566
Te3 Cs Te1 93.78(5) 5_545 13_566
Te2 Cs Te1 73.81(5) 10_556 13_566
Te2 Cs Te1 143.38(3) . 13_566
Te3 Cs Te1 93.78(5) 5_445 13_466
Te3 Cs Te1 139.55(3) 5_545 13_466
Te2 Cs Te1 73.81(5) 10_556 13_466
Te2 Cs Te1 143.38(3) . 13_466
Te1 Cs Te1 71.41(5) 13_566 13_466
Te3 Cs Te1 93.78(5) 5_445 6_464
Te3 Cs Te1 139.55(3) 5_545 6_464
Te2 Cs Te1 143.38(3) 10_556 6_464
Te2 Cs Te1 73.81(5) . 6_464
Te1 Cs Te1 118.05(6) 13_566 6_464
Te1 Cs Te1 77.82(6) 13_466 6_464
Te3 Cs Te1 139.55(3) 5_445 6_564
Te3 Cs Te1 93.78(5) 5_545 6_564
Te2 Cs Te1 143.38(3) 10_556 6_564
Te2 Cs Te1 73.81(5) . 6_564
Te1 Cs Te1 77.82(6) 13_566 6_564
Te1 Cs Te1 118.05(6) 13_466 6_564
Te1 Cs Te1 71.41(5) 6_464 6_564
Te3 Cs Ag1 176.18(2) 5_445 5
Te3 Cs Ag1 110.71(6) 5_545 5
Te2 Cs Ag1 115.34(3) 10_556 5
Te2 Cs Ag1 115.34(3) . 5
Te1 Cs Ag1 41.54(3) 13_566 5
Te1 Cs Ag1 83.26(5) 13_466 5
Te1 Cs Ag1 83.26(5) 6_464 5
Te1 Cs Ag1 41.54(3) 6_564 5
Te3 Cs Ag1 110.71(6) 5_445 5_455
Te3 Cs Ag1 176.18(2) 5_545 5_455
Te2 Cs Ag1 115.34(3) 10_556 5_455
Te2 Cs Ag1 115.34(3) . 5_455
Te1 Cs Ag1 83.26(5) 13_566 5_455
Te1 Cs Ag1 41.54(3) 13_466 5_455
Te1 Cs Ag1 41.54(3) 6_464 5_455
Te1 Cs Ag1 83.26(5) 6_564 5_455
Ag1 Cs Ag1 65.47(6) 5 5_455
Te3 Cs Cs 126.55(3) 5_445 1_655
Te3 Cs Cs 53.45(3) 5_545 1_655
Te2 Cs Cs 90.0 10_556 1_655
Te2 Cs Cs 90.0 . 1_655
Te1 Cs Cs 54.30(3) 13_566 1_655
Te1 Cs Cs 125.70(3) 13_466 1_655
Te1 Cs Cs 125.70(3) 6_464 1_655
Te1 Cs Cs 54.30(3) 6_564 1_655
Ag1 Cs Cs 57.27(3) 5 1_655
Ag1 Cs Cs 122.73(3) 5_455 1_655
Te3 Cs Cs 53.45(3) 5_445 1_455
Te3 Cs Cs 126.55(3) 5_545 1_455
Te2 Cs Cs 90.0 10_556 1_455
Te2 Cs Cs 90.0 . 1_455
Te1 Cs Cs 125.70(3) 13_566 1_455
Te1 Cs Cs 54.30(3) 13_466 1_455
Te1 Cs Cs 54.30(3) 6_464 1_455
Te1 Cs Cs 125.70(3) 6_564 1_455
Ag1 Cs Cs 122.73(3) 5 1_455
Ag1 Cs Cs 57.27(3) 5_455 1_455
Cs Cs Cs 180.0 1_655 1_455
Te3 Dy Te2 165.00(3) 9_566 10_556
Te3 Dy Te1 95.14(3) 9_566 5_545
Te2 Dy Te1 95.11(2) 10_556 5_545
Te3 Dy Te1 95.14(3) 9_566 5_445
Te2 Dy Te1 95.11(2) 10_556 5_445
Te1 Dy Te1 93.63(6) 5_545 5_445
Te3 Dy Te2 84.20(3) 9_566 6_455
Te2 Dy Te2 85.44(2) 10_556 6_455
Te1 Dy Te2 179.17(3) 5_545 6_455
Te1 Dy Te2 86.94(6) 5_445 6_455
Te3 Dy Te2 84.20(3) 9_566 6
Te2 Dy Te2 85.44(2) 10_556 6
Te1 Dy Te2 86.94(6) 5_545 6
Te1 Dy Te2 179.17(3) 5_445 6
Te2 Dy Te2 92.48(6) 6_455 6
Ag2 Te1 Ag2 63.35(5) 2_575 10_556
Ag2 Te1 Ag1 154.54(5) 2_575 9_566
Ag2 Te1 Ag1 142.12(5) 10_556 9_566
Ag2 Te1 Dy 119.20(4) 2_575 5_455
Ag2 Te1 Dy 77.87(2) 10_556 5_455
Ag1 Te1 Dy 76.46(4) 9_566 5_455
Ag2 Te1 Dy 119.20(4) 2_575 5
Ag2 Te1 Dy 77.87(2) 10_556 5
Ag1 Te1 Dy 76.46(4) 9_566 5
Dy Te1 Dy 93.63(6) 5_455 5
Ag2 Te1 Cs 84.45(5) 2_575 13_566
Ag2 Te1 Cs 132.63(3) 10_556 13_566
Ag1 Te1 Cs 74.97(5) 9_566 13_566
Dy Te1 Cs 149.28(3) 5_455 13_566
Dy Te1 Cs 90.49(5) 5 13_566
Ag2 Te1 Cs 84.45(5) 2_575 13_466
Ag2 Te1 Cs 132.63(3) 10_556 13_466
Ag1 Te1 Cs 74.97(5) 9_566 13_466
Dy Te1 Cs 90.49(5) 5_455 13_466
Dy Te1 Cs 149.28(3) 5 13_466
Cs Te1 Cs 71.41(5) 13_566 13_466
Ag2 Te2 Ag2 106.80(7) 5_545 5_445
Ag2 Te2 Dy 78.89(3) 5_545 10_556
Ag2 Te2 Dy 78.89(3) 5_445 10_556
Ag2 Te2 Dy 169.36(3) 5_545 6_454
Ag2 Te2 Dy 79.81(6) 5_445 6_454
Dy Te2 Dy 94.56(2) 10_556 6_454
Ag2 Te2 Dy 79.81(6) 5_545 6_554
Ag2 Te2 Dy 169.36(3) 5_445 6_554
Dy Te2 Dy 94.56(2) 10_556 6_554
Dy Te2 Dy 92.48(6) 6_454 6_554
Ag2 Te2 Cs 85.74(4) 5_545 .
Ag2 Te2 Cs 85.74(4) 5_445 .
Dy Te2 Cs 153.98(4) 10_556 .
Dy Te2 Cs 103.30(4) 6_454 .
Dy Te2 Cs 103.30(4) 6_554 .
Ag1 Te3 Ag1 110.30(9) 5_455 5
Ag1 Te3 Dy 78.97(2) 5_455 9_566
Ag1 Te3 Dy 78.97(2) 5 9_566
Ag1 Te3 Dy 78.97(2) 5_455 2_564
Ag1 Te3 Dy 78.97(2) 5 2_564
Dy Te3 Dy 140.87(6) 9_566 2_564
Ag1 Te3 Cs 161.40(4) 5_455 5
Ag1 Te3 Cs 88.30(6) 5 5
Dy Te3 Cs 105.61(2) 9_566 5
Dy Te3 Cs 105.61(2) 2_564 5
Ag1 Te3 Cs 88.30(6) 5_455 5_455
Ag1 Te3 Cs 161.40(4) 5 5_455
Dy Te3 Cs 105.61(2) 9_566 5_455
Dy Te3 Cs 105.61(2) 2_564 5_455
Cs Te3 Cs 73.10(6) 5 5_455
Te3 Ag1 Te3 110.30(9) 5_545 5_445
Te3 Ag1 Te1 107.65(3) 5_545 9_566
Te3 Ag1 Te1 107.65(3) 5_445 9_566
Te3 Ag1 Te1 107.65(3) 5_545 2_564
Te3 Ag1 Te1 107.65(3) 5_445 2_564
Te1 Ag1 Te1 115.91(8) 9_566 2_564
Te3 Ag1 Cs 157.58(4) 5_545 5_445
Te3 Ag1 Cs 92.11(6) 5_445 5_445
Te1 Ag1 Cs 63.49(4) 9_566 5_445
Te1 Ag1 Cs 63.49(4) 2_564 5_445
Te3 Ag1 Cs 92.11(6) 5_545 5_545
Te3 Ag1 Cs 157.58(4) 5_445 5_545
Te1 Ag1 Cs 63.49(4) 9_566 5_545
Te1 Ag1 Cs 63.49(4) 2_564 5_545
Cs Ag1 Cs 65.47(6) 5_445 5_545
Te2 Ag2 Te2 106.80(7) 5_455 5
Te2 Ag2 Te1 109.52(5) 5_455 2_574
Te2 Ag2 Te1 109.52(5) 5 2_574
Te2 Ag2 Te1 106.95(3) 5_455 10_556
Te2 Ag2 Te1 106.95(3) 5 10_556
Te1 Ag2 Te1 116.65(5) 2_574 10_556
Te2 Ag2 Ag2 126.56(3) 5_455 9_575
Te2 Ag2 Ag2 126.56(3) 5 9_575
Te1 Ag2 Ag2 58.41(6) 2_574 9_575
Te1 Ag2 Ag2 58.24(4) 10_556 9_575
Te2 Ag2 Cs 103.88(5) 5_455 5
Te2 Ag2 Cs 56.45(3) 5 5
Te1 Ag2 Cs 57.34(3) 2_574 5
Te1 Ag2 Cs 148.39(3) 10_556 5
Ag2 Ag2 Cs 107.35(5) 9_575 5
Te2 Ag2 Cs 56.45(3) 5_455 5_455
Te2 Ag2 Cs 103.88(5) 5 5_455
Te1 Ag2 Cs 57.34(3) 2_574 5_455
Te1 Ag2 Cs 148.39(3) 10_556 5_455
Ag2 Ag2 Cs 107.35(5) 9_575 5_455
Cs Ag2 Cs 59.15(5) 5 5_455
loop_
_geom_bond_atom_site_label_1
_geom_bond_atom_site_label_2
_geom_bond_distance
_geom_bond_site_symmetry_2
Dy Te3 3.053(2) 9_566
Dy Te2 3.073(3) 10_556
Dy Te1 3.1014(17) 5_545
Dy Te1 3.1014(17) 5_445
Dy Te2 3.1311(17) 6_455
Dy Te2 3.1311(17) 6
Te1 Ag2 2.847(2) 2_575
Te1 Ag2 2.853(3) 10_556
Te1 Ag1 2.872(2) 9_566
Te1 Dy 3.1014(17) 5_455
Te1 Dy 3.1014(17) 5
Te2 Ag2 2.8169(17) 5_545
Te2 Ag2 2.8169(17) 5_445
Te2 Dy 3.073(3) 10_556
Te2 Dy 3.1311(17) 6_454
Te2 Dy 3.1311(17) 6_554
Te3 Ag1 2.7556(19) 5_455
Te3 Ag1 2.7556(19) 5
Te3 Dy 3.053(2) 9_566
Te3 Dy 3.053(2) 2_564
Ag1 Te3 2.7556(19) 5_545
Ag1 Te3 2.7556(19) 5_445
Ag1 Te1 2.872(2) 9_566
Ag1 Te1 2.872(2) 2_564
Ag2 Te2 2.8169(17) 5_455
Ag2 Te2 2.8169(17) 5
Ag2 Te1 2.847(2) 2_574
Ag2 Te1 2.853(3) 10_556
Ag2 Ag2 2.993(3) 9_575
