#------------------------------------------------------------------------------
#$Date: 2016-02-16 22:30:59 +0200 (Tue, 16 Feb 2016) $
#$Revision: 176467 $
#$URL: svn://www.crystallography.net/cod/cif/4/34/00/4340037.cif $
#------------------------------------------------------------------------------
#
# This file is available in the Crystallography Open Database (COD),
# http://www.crystallography.net/
#
# All data on this site have been placed in the public domain by the
# contributors.
#
data_4340037
loop_
_publ_author_name
'Meng, Chang-Yu'
'Chen, Hong'
'Wang, Peng'
_publ_section_title
;
 Syntheses, Structures, and Physical Properties of CsRE2Ag3Te5 (RE = Pr,
 Nd, Sm, Gd-Er) and RbRE2Ag3Te5 (RE = Sm, Gd-Dy).
;
_journal_issue                   13
_journal_name_full               'Inorganic chemistry'
_journal_page_first              6893
_journal_page_last               6903
_journal_paper_doi               10.1021/ic5007132
_journal_volume                  53
_journal_year                    2014
_chemical_formula_moiety         'Ag1.20 Cs0.40 Tb0.80 Te2'
_chemical_formula_sum            'Ag1.2 Cs0.4 Tb0.8 Te2'
_chemical_formula_weight         564.94
_chemical_name_systematic
; 
 ? 
;
_space_group_IT_number           63
_symmetry_cell_setting           orthorhombic
_symmetry_space_group_name_Hall  '-C 2c 2'
_symmetry_space_group_name_H-M   'C m c m'
_atom_sites_solution_primary     direct
_atom_sites_solution_secondary   difmap
_audit_creation_method           SHELXL-97
_cell_angle_alpha                90.00
_cell_angle_beta                 90.00
_cell_angle_gamma                90.00
_cell_formula_units_Z            10
_cell_length_a                   4.5415(6)
_cell_length_b                   16.304(3)
_cell_length_c                   18.502(2)
_cell_measurement_reflns_used    1893
_cell_measurement_temperature    293(2)
_cell_measurement_theta_max      27.4758
_cell_measurement_theta_min      3.3032
_cell_volume                     1370.0(3)
_computing_cell_refinement       'Bruker XSCANS'
_computing_data_collection       'Bruker XSCANS'
_computing_data_reduction        'Bruker SHELXTL'
_computing_molecular_graphics    'Bruker SHELXTL'
_computing_publication_material  'Bruker SHELXTL'
_computing_structure_refinement  'SHELXL-97 (Sheldrick, 1997)'
_computing_structure_solution    'SHELXS-97 (Sheldrick, 1990)'
_diffrn_ambient_temperature      293(2)
_diffrn_detector_area_resol_mean 14.6306
_diffrn_measured_fraction_theta_full 0.998
_diffrn_measured_fraction_theta_max 0.998
_diffrn_measurement_device_type  Mercury70
_diffrn_measurement_method       CCD_Profile_fitting
_diffrn_radiation_monochromator  graphite
_diffrn_radiation_source         'fine-focus sealed tube'
_diffrn_radiation_type           MoK\a
_diffrn_radiation_wavelength     0.71073
_diffrn_reflns_av_R_equivalents  0.0288
_diffrn_reflns_av_sigmaI/netI    0.0197
_diffrn_reflns_limit_h_max       5
_diffrn_reflns_limit_h_min       -5
_diffrn_reflns_limit_k_max       19
_diffrn_reflns_limit_k_min       -20
_diffrn_reflns_limit_l_max       24
_diffrn_reflns_limit_l_min       -23
_diffrn_reflns_number            5178
_diffrn_reflns_theta_full        27.46
_diffrn_reflns_theta_max         27.46
_diffrn_reflns_theta_min         2.50
_exptl_absorpt_coefficient_mu    27.405
_exptl_absorpt_correction_T_max  1.0000
_exptl_absorpt_correction_T_min  0.5556
_exptl_absorpt_correction_type   multi-scan
_exptl_crystal_colour            'silvery white'
_exptl_crystal_density_diffrn    6.848
_exptl_crystal_density_method    'not measured'
_exptl_crystal_description       chunk
_exptl_crystal_F_000             2344
_exptl_crystal_size_max          0.13
_exptl_crystal_size_mid          0.12
_exptl_crystal_size_min          0.10
_refine_diff_density_max         1.297
_refine_diff_density_min         -1.451
_refine_diff_density_rms         0.208
_refine_ls_extinction_coef       0.000139(14)
_refine_ls_extinction_expression Fc^*^=kFc[1+0.001xFc^2^\l^3^/sin(2\q)]^-1/4^
_refine_ls_extinction_method     SHELXL
_refine_ls_goodness_of_fit_ref   1.146
_refine_ls_matrix_type           full
_refine_ls_number_parameters     38
_refine_ls_number_reflns         904
_refine_ls_number_restraints     0
_refine_ls_restrained_S_all      1.146
_refine_ls_R_factor_all          0.0210
_refine_ls_R_factor_gt           0.0191
_refine_ls_shift/su_max          0.001
_refine_ls_shift/su_mean         0.000
_refine_ls_structure_factor_coef Fsqd
_refine_ls_weighting_details
'calc w=1/[\s^2^(Fo^2^)+(0.0031P)^2^+18.2131P] where P=(Fo^2^+2Fc^2^)/3'
_refine_ls_weighting_scheme      calc
_refine_ls_wR_factor_gt          0.0350
_refine_ls_wR_factor_ref         0.0356
_reflns_number_gt                864
_reflns_number_total             904
_reflns_threshold_expression     >2sigma(I)
_cod_data_source_file            ic5007132_si_002.cif
_cod_data_source_block           CsTb2Ag3Te5
_cod_depositor_comments
;
The following automatic conversions were performed:

'_symmetry_cell_setting' value 'Orthorhombic' changed to
'orthorhombic' according to
/usr/data/users/saulius/crontab/automatic-downloads/rss-feeds/ACS/lib/dictionaries/cif_core.dic
dictionary named 'cif_core.dic' version 2.4.2 from
2011-04-26.

'_exptl_absorpt_correction_type' value 'Multi-scan'
changed to 'multi-scan' according to
/usr/data/users/saulius/crontab/automatic-downloads/rss-feeds/ACS/lib/dictionaries/cif_core.dic
dictionary named 'cif_core.dic' version 2.4.2 from 2011-04-26.

Automatic conversion script
Id: cif_fix_values 2281 2013-09-26 08:29:07Z andrius 

 Adding full bibliography for 4340029--4340040.cif.
;
_cod_original_sg_symbol_H-M      Cmcm
_cod_original_formula_sum        'Ag1.20 Cs0.40 Tb0.80 Te2'
_cod_database_code               4340037
loop_
_symmetry_equiv_pos_as_xyz
'x, y, z'
'-x, -y, z+1/2'
'-x, y, -z+1/2'
'x, -y, -z'
'x+1/2, y+1/2, z'
'-x+1/2, -y+1/2, z+1/2'
'-x+1/2, y+1/2, -z+1/2'
'x+1/2, -y+1/2, -z'
'-x, -y, -z'
'x, y, -z-1/2'
'x, -y, z-1/2'
'-x, y, z'
'-x+1/2, -y+1/2, -z'
'x+1/2, y+1/2, -z-1/2'
'x+1/2, -y+1/2, z-1/2'
'-x+1/2, y+1/2, z'
loop_
_atom_site_label
_atom_site_type_symbol
_atom_site_fract_x
_atom_site_fract_y
_atom_site_fract_z
_atom_site_U_iso_or_equiv
_atom_site_adp_type
_atom_site_occupancy
_atom_site_symmetry_multiplicity
_atom_site_calc_flag
_atom_site_refinement_flags
Cs Cs 0.0000 0.44198(4) 0.2500 0.02065(16) Uani 1 4 d S
Tb Tb 0.0000 0.30811(2) 0.594128(17) 0.01320(10) Uani 1 2 d S
Te1 Te 0.0000 0.93611(3) 0.61846(2) 0.01378(12) Uani 1 2 d S
Te2 Te 0.0000 0.32314(3) 0.07193(2) 0.01207(11) Uani 1 2 d S
Te3 Te 0.0000 0.75485(4) 0.2500 0.01411(15) Uani 1 4 d S
Ag1 Ag 0.0000 0.15845(5) 0.2500 0.0250(2) Uani 1 4 d S
Ag2 Ag 0.0000 0.91672(4) 0.03449(3) 0.02461(15) Uani 1 2 d S
loop_
_atom_site_aniso_label
_atom_site_aniso_U_11
_atom_site_aniso_U_22
_atom_site_aniso_U_33
_atom_site_aniso_U_23
_atom_site_aniso_U_13
_atom_site_aniso_U_12
Cs 0.0231(4) 0.0207(3) 0.0181(3) 0.000 0.000 0.000
Tb 0.01335(19) 0.01600(17) 0.01026(16) -0.00021(12) 0.000 0.000
Te1 0.0163(3) 0.0120(2) 0.0131(2) 0.00020(16) 0.000 0.000
Te2 0.0121(2) 0.0135(2) 0.0106(2) 0.00028(16) 0.000 0.000
Te3 0.0154(4) 0.0179(3) 0.0091(3) 0.000 0.000 0.000
Ag1 0.0218(5) 0.0284(4) 0.0248(4) 0.000 0.000 0.000
Ag2 0.0259(4) 0.0222(3) 0.0257(3) 0.0014(2) 0.000 0.000
loop_
_atom_type_symbol
_atom_type_description
_atom_type_scat_dispersion_real
_atom_type_scat_dispersion_imag
_atom_type_scat_source
Ag Ag -0.8971 1.1015 'International Tables Vol C Tables 4.2.6.8 and 6.1.1.4'
Te Te -0.5308 1.6751 'International Tables Vol C Tables 4.2.6.8 and 6.1.1.4'
Cs Cs -0.3680 2.1192 'International Tables Vol C Tables 4.2.6.8 and 6.1.1.4'
Tb Tb -0.1723 4.1537 'International Tables Vol C Tables 4.2.6.8 and 6.1.1.4'
loop_
_geom_angle_atom_site_label_1
_geom_angle_atom_site_label_2
_geom_angle_atom_site_label_3
_geom_angle
_geom_angle_site_symmetry_1
_geom_angle_site_symmetry_3
Te3 Cs Te3 73.32(2) 5_445 5_545
Te3 Cs Te2 66.002(11) 5_445 .
Te3 Cs Te2 66.002(11) 5_545 .
Te3 Cs Te2 66.002(11) 5_445 10_556
Te3 Cs Te2 66.002(11) 5_545 10_556
Te2 Cs Te2 119.07(2) . 10_556
Te3 Cs Te1 139.550(11) 5_445 13_566
Te3 Cs Te1 93.530(12) 5_545 13_566
Te2 Cs Te1 143.228(6) . 13_566
Te2 Cs Te1 73.668(12) 10_556 13_566
Te3 Cs Te1 93.530(12) 5_445 6_464
Te3 Cs Te1 139.550(11) 5_545 6_464
Te2 Cs Te1 73.668(12) . 6_464
Te2 Cs Te1 143.228(6) 10_556 6_464
Te1 Cs Te1 118.32(2) 13_566 6_464
Te3 Cs Te1 139.550(11) 5_445 6_564
Te3 Cs Te1 93.530(12) 5_545 6_564
Te2 Cs Te1 73.668(12) . 6_564
Te2 Cs Te1 143.228(6) 10_556 6_564
Te1 Cs Te1 77.772(17) 13_566 6_564
Te1 Cs Te1 71.708(14) 6_464 6_564
Te3 Cs Te1 93.530(12) 5_445 13_466
Te3 Cs Te1 139.550(11) 5_545 13_466
Te2 Cs Te1 143.228(6) . 13_466
Te2 Cs Te1 73.668(12) 10_556 13_466
Te1 Cs Te1 71.708(14) 13_566 13_466
Te1 Cs Te1 77.772(17) 6_464 13_466
Te1 Cs Te1 118.32(2) 6_564 13_466
Te3 Cs Ag1 176.099(14) 5_445 5
Te3 Cs Ag1 110.585(14) 5_545 5
Te2 Cs Ag1 115.236(9) . 5
Te2 Cs Ag1 115.236(9) 10_556 5
Te1 Cs Ag1 41.577(9) 13_566 5
Te1 Cs Ag1 83.441(16) 6_464 5
Te1 Cs Ag1 41.577(9) 6_564 5
Te1 Cs Ag1 83.441(16) 13_466 5
Te3 Cs Ag1 110.585(14) 5_445 5_455
Te3 Cs Ag1 176.099(14) 5_545 5_455
Te2 Cs Ag1 115.236(9) . 5_455
Te2 Cs Ag1 115.236(9) 10_556 5_455
Te1 Cs Ag1 83.441(16) 13_566 5_455
Te1 Cs Ag1 41.577(9) 6_464 5_455
Te1 Cs Ag1 83.441(16) 6_564 5_455
Te1 Cs Ag1 41.577(9) 13_466 5_455
Ag1 Cs Ag1 65.51(2) 5 5_455
Te3 Cs Cs 126.658(10) 5_445 1_655
Te3 Cs Cs 53.342(10) 5_545 1_655
Te2 Cs Cs 90.0 . 1_655
Te2 Cs Cs 90.0 10_556 1_655
Te1 Cs Cs 54.146(7) 13_566 1_655
Te1 Cs Cs 125.854(7) 6_464 1_655
Te1 Cs Cs 54.146(7) 6_564 1_655
Te1 Cs Cs 125.854(7) 13_466 1_655
Ag1 Cs Cs 57.243(10) 5 1_655
Ag1 Cs Cs 122.757(10) 5_455 1_655
Te3 Cs Cs 53.342(10) 5_445 1_455
Te3 Cs Cs 126.658(10) 5_545 1_455
Te2 Cs Cs 90.0 . 1_455
Te2 Cs Cs 90.0 10_556 1_455
Te1 Cs Cs 125.854(7) 13_566 1_455
Te1 Cs Cs 54.146(7) 6_464 1_455
Te1 Cs Cs 125.854(7) 6_564 1_455
Te1 Cs Cs 54.146(7) 13_466 1_455
Ag1 Cs Cs 122.757(10) 5 1_455
Ag1 Cs Cs 57.243(10) 5_455 1_455
Cs Cs Cs 180.0 1_655 1_455
Te3 Tb Te2 164.963(19) 9_566 10_556
Te3 Tb Te1 95.076(14) 9_566 5_545
Te2 Tb Te1 95.208(12) 10_556 5_545
Te3 Tb Te1 95.076(14) 9_566 5_445
Te2 Tb Te1 95.208(12) 10_556 5_445
Te1 Tb Te1 93.531(19) 5_545 5_445
Te3 Tb Te2 83.967(14) 9_566 6_455
Te2 Tb Te2 85.639(12) 10_556 6_455
Te1 Tb Te2 178.926(16) 5_545 6_455
Te1 Tb Te2 87.046(14) 5_445 6_455
Te3 Tb Te2 83.967(14) 9_566 6
Te2 Tb Te2 85.639(12) 10_556 6
Te1 Tb Te2 87.046(14) 5_545 6
Te1 Tb Te2 178.926(16) 5_445 6
Te2 Tb Te2 92.363(18) 6_455 6
Ag2 Te1 Ag2 63.45(2) 10_556 2_575
Ag2 Te1 Ag1 141.27(3) 10_556 9_566
Ag2 Te1 Ag1 155.28(3) 2_575 9_566
Ag2 Te1 Tb 77.416(14) 10_556 5_455
Ag2 Te1 Tb 118.918(15) 2_575 5_455
Ag1 Te1 Tb 76.331(16) 9_566 5_455
Ag2 Te1 Tb 77.416(13) 10_556 5
Ag2 Te1 Tb 118.918(15) 2_575 5
Ag1 Te1 Tb 76.331(16) 9_566 5
Tb Te1 Tb 93.531(19) 5_455 5
Ag2 Te1 Cs 132.907(13) 10_556 13_566
Ag2 Te1 Cs 84.885(18) 2_575 13_566
Ag1 Te1 Cs 75.169(18) 9_566 13_566
Tb Te1 Cs 149.393(16) 5_455 13_566
Tb Te1 Cs 90.414(13) 5 13_566
Ag2 Te1 Cs 132.907(13) 10_556 13_466
Ag2 Te1 Cs 84.885(18) 2_575 13_466
Ag1 Te1 Cs 75.169(18) 9_566 13_466
Tb Te1 Cs 90.414(13) 5_455 13_466
Tb Te1 Cs 149.393(16) 5 13_466
Cs Te1 Cs 71.708(14) 13_566 13_466
Ag2 Te2 Ag2 107.15(3) 5_545 5_445
Ag2 Te2 Tb 78.362(16) 5_545 10_556
Ag2 Te2 Tb 78.362(16) 5_445 10_556
Ag2 Te2 Tb 168.59(2) 5_545 6_454
Ag2 Te2 Tb 79.579(16) 5_445 6_454
Tb Te2 Tb 94.361(12) 10_556 6_454
Ag2 Te2 Tb 79.579(16) 5_545 6_554
Ag2 Te2 Tb 168.59(2) 5_445 6_554
Tb Te2 Tb 94.361(12) 10_556 6_554
Tb Te2 Tb 92.363(18) 6_454 6_554
Ag2 Te2 Cs 86.415(17) 5_545 .
Ag2 Te2 Cs 86.415(17) 5_445 .
Tb Te2 Cs 154.095(18) 10_556 .
Tb Te2 Cs 103.430(14) 6_454 .
Tb Te2 Cs 103.430(14) 6_554 .
Ag1 Te3 Ag1 110.62(4) 5_455 5
Ag1 Te3 Tb 78.997(11) 5_455 2_564
Ag1 Te3 Tb 78.997(11) 5 2_564
Ag1 Te3 Tb 78.997(11) 5_455 9_566
Ag1 Te3 Tb 78.997(11) 5 9_566
Tb Te3 Tb 140.81(3) 2_564 9_566
Ag1 Te3 Cs 161.35(2) 5_455 5
Ag1 Te3 Cs 88.03(2) 5 5
Tb Te3 Cs 105.606(10) 2_564 5
Tb Te3 Cs 105.606(10) 9_566 5
Ag1 Te3 Cs 88.03(2) 5_455 5_455
Ag1 Te3 Cs 161.35(2) 5 5_455
Tb Te3 Cs 105.606(10) 2_564 5_455
Tb Te3 Cs 105.606(10) 9_566 5_455
Cs Te3 Cs 73.32(2) 5 5_455
Te3 Ag1 Te3 110.62(4) 5_545 5_445
Te3 Ag1 Te1 107.733(8) 5_545 2_564
Te3 Ag1 Te1 107.733(8) 5_445 2_564
Te3 Ag1 Te1 107.733(8) 5_545 9_566
Te3 Ag1 Te1 107.733(8) 5_445 9_566
Te1 Ag1 Te1 115.29(4) 2_564 9_566
Te3 Ag1 Cs 157.45(2) 5_545 5_445
Te3 Ag1 Cs 91.934(18) 5_445 5_445
Te1 Ag1 Cs 63.254(17) 2_564 5_445
Te1 Ag1 Cs 63.254(17) 9_566 5_445
Te3 Ag1 Cs 91.934(18) 5_545 5_545
Te3 Ag1 Cs 157.45(2) 5_445 5_545
Te1 Ag1 Cs 63.254(17) 2_564 5_545
Te1 Ag1 Cs 63.254(17) 9_566 5_545
Cs Ag1 Cs 65.51(2) 5_445 5_545
Te2 Ag2 Te2 107.15(3) 5_455 5
Te2 Ag2 Te1 107.697(18) 5_455 10_556
Te2 Ag2 Te1 107.697(18) 5 10_556
Te2 Ag2 Te1 108.690(19) 5_455 2_574
Te2 Ag2 Te1 108.690(19) 5 2_574
Te1 Ag2 Te1 116.55(2) 10_556 2_574
Te2 Ag2 Ag2 126.424(13) 5_455 9_575
Te2 Ag2 Ag2 126.424(13) 5 9_575
Te1 Ag2 Ag2 58.45(2) 10_556 9_575
Te1 Ag2 Ag2 58.10(2) 2_574 9_575
loop_
_geom_bond_atom_site_label_1
_geom_bond_atom_site_label_2
_geom_bond_distance
_geom_bond_site_symmetry_2
Tb Te3 3.0612(5) 9_566
Tb Te2 3.0822(6) 10_556
Tb Te1 3.1168(5) 5_545
Tb Te1 3.1168(5) 5_445
Tb Te2 3.1471(5) 6_455
Tb Te2 3.1471(5) 6
Te1 Ag2 2.8474(8) 10_556
Te1 Ag2 2.8584(8) 2_575
Te1 Ag1 2.8810(7) 9_566
Te1 Tb 3.1168(5) 5_455
Te1 Tb 3.1168(5) 5
Te2 Ag2 2.8222(5) 5_545
Te2 Ag2 2.8222(5) 5_445
Te2 Tb 3.0822(6) 10_556
Te2 Tb 3.1471(5) 6_454
Te2 Tb 3.1471(5) 6_554
Te3 Ag1 2.7617(7) 5_455
Te3 Ag1 2.7617(7) 5
Te3 Tb 3.0612(5) 2_564
Te3 Tb 3.0612(5) 9_566
Ag1 Te3 2.7617(7) 5_545
Ag1 Te3 2.7617(7) 5_445
Ag1 Te1 2.8810(7) 2_564
Ag1 Te1 2.8810(7) 9_566
Ag2 Te2 2.8222(5) 5_455
Ag2 Te2 2.8222(5) 5
Ag2 Te1 2.8474(8) 10_556
Ag2 Te1 2.8584(8) 2_574
Ag2 Ag2 3.0005(13) 9_575
