#------------------------------------------------------------------------------
#$Date: 2016-03-23 23:28:34 +0200 (Wed, 23 Mar 2016) $
#$Revision: 179503 $
#$URL: svn://www.crystallography.net/cod/cif/4/34/00/4340057.cif $
#------------------------------------------------------------------------------
#
# This file is available in the Crystallography Open Database (COD),
# http://www.crystallography.net/
#
# All data on this site have been placed in the public domain by the
# contributors.
#
data_4340057
loop_
_publ_author_name
'Zhang, Jiliang'
'Wang, Yingmin'
'Bobev, Svilen'
_publ_section_title
;
 Structural Modulations in the Rare-Earth Metal Digermanides REAl1-xGe2
 (RE = Gd-Tm, Lu, Y; 0.8 &lt; x &lt; 0.9). Correlations between Long- and
 Short-Range Vacancy Ordering.
;
_journal_issue                   3
_journal_name_full               'Inorganic chemistry'
_journal_page_first              722
_journal_page_last               732
_journal_paper_doi               10.1021/ic501002j
_journal_volume                  54
_journal_year                    2015
_chemical_formula_sum            'Al0.22 Gd Ge2'
_chemical_formula_weight         308.37
_chemical_name_systematic
; 
 ? 
;
_space_group_IT_number           63
_symmetry_cell_setting           orthorhombic
_symmetry_space_group_name_Hall  '-C 2c 2'
_symmetry_space_group_name_H-M   'C m c m'
_atom_sites_solution_primary     direct
_atom_sites_solution_secondary   difmap
_audit_creation_method           SHELXL-97
_cell_angle_alpha                90.00
_cell_angle_beta                 90.00
_cell_angle_gamma                90.00
_cell_formula_units_Z            4
_cell_length_a                   4.1471(16)
_cell_length_b                   16.460(6)
_cell_length_c                   3.9711(15)
_cell_measurement_reflns_used    626
_cell_measurement_temperature    200(2)
_cell_measurement_theta_max      27.87
_cell_measurement_theta_min      4.95
_cell_volume                     271.07(18)
_computing_cell_refinement       'Bruker SAINT'
_computing_data_collection       'Bruker APEX2'
_computing_data_reduction        'Bruker SAINT'
_computing_molecular_graphics    'Bruker SHELXTL'
_computing_publication_material  'Bruker SHELXTL'
_computing_structure_refinement  'SHELXL-97 (Sheldrick, 1997)'
_computing_structure_solution    'SHELXS-97 (Sheldrick, 1990)'
_diffrn_ambient_temperature      200(2)
_diffrn_measured_fraction_theta_full 1.000
_diffrn_measured_fraction_theta_max 0.959
_diffrn_measurement_device_type  'Bruker APEX-II CCD'
_diffrn_measurement_method       '\f and \w scans'
_diffrn_radiation_monochromator  graphite
_diffrn_radiation_source         'fine-focus sealed tube'
_diffrn_radiation_type           MoK\a
_diffrn_radiation_wavelength     0.71073
_diffrn_reflns_av_R_equivalents  0.0415
_diffrn_reflns_av_sigmaI/netI    0.0220
_diffrn_reflns_limit_h_max       5
_diffrn_reflns_limit_h_min       -5
_diffrn_reflns_limit_k_max       22
_diffrn_reflns_limit_k_min       -22
_diffrn_reflns_limit_l_max       5
_diffrn_reflns_limit_l_min       -5
_diffrn_reflns_number            2060
_diffrn_reflns_theta_full        29.00
_diffrn_reflns_theta_max         30.85
_diffrn_reflns_theta_min         2.47
_diffrn_standards_number         0
_exptl_absorpt_coefficient_mu    45.907
_exptl_absorpt_correction_T_max  0.5459
_exptl_absorpt_correction_T_min  0.3597
_exptl_absorpt_correction_type   multi-scan
_exptl_absorpt_process_details   SADABS
_exptl_crystal_colour            silver
_exptl_crystal_density_diffrn    7.556
_exptl_crystal_density_method    'not measured'
_exptl_crystal_description       irregular
_exptl_crystal_F_000             523
_exptl_crystal_size_max          0.03
_exptl_crystal_size_mid          0.02
_exptl_crystal_size_min          0.02
_refine_diff_density_max         3.360
_refine_diff_density_min         -3.092
_refine_diff_density_rms         0.411
_refine_ls_extinction_method     none
_refine_ls_goodness_of_fit_ref   1.094
_refine_ls_matrix_type           full
_refine_ls_number_parameters     16
_refine_ls_number_reflns         258
_refine_ls_number_restraints     0
_refine_ls_restrained_S_all      1.094
_refine_ls_R_factor_all          0.0300
_refine_ls_R_factor_gt           0.0246
_refine_ls_shift/su_max          0.000
_refine_ls_shift/su_mean         0.000
_refine_ls_structure_factor_coef Fsqd
_refine_ls_weighting_details
'calc w=1/[\s^2^(Fo^2^)+(0.0171P)^2^+12.1489P] where P=(Fo^2^+2Fc^2^)/3'
_refine_ls_weighting_scheme      calc
_refine_ls_wR_factor_gt          0.0516
_refine_ls_wR_factor_ref         0.0531
_reflns_number_gt                227
_reflns_number_total             258
_reflns_threshold_expression     >2sigma(I)
_cod_data_source_file            ic501002j_si_002.cif
_cod_data_source_block           GdAlGe
_cod_depositor_comments
;
The following automatic conversions were performed:

'_symmetry_cell_setting' value 'Orthorhombic' changed to
'orthorhombic' according to
/usr/data/users/saulius/crontab/automatic-downloads/rss-feeds/ACS/lib/dictionaries/cif_core.dic
dictionary named 'cif_core.dic' version 2.4.2 from 2011-04-26.

Automatic conversion script
Id: cif_fix_values 2281 2013-09-26 08:29:07Z andrius 

 Adding full bibliography for 4340057--4340064.cif.
;
_cod_original_cell_volume        271.08(18)
_cod_original_sg_symbol_H-M      Cmcm
_cod_database_code               4340057
loop_
_symmetry_equiv_pos_as_xyz
'x, y, z'
'-x, -y, z+1/2'
'-x, y, -z+1/2'
'x, -y, -z'
'x+1/2, y+1/2, z'
'-x+1/2, -y+1/2, z+1/2'
'-x+1/2, y+1/2, -z+1/2'
'x+1/2, -y+1/2, -z'
'-x, -y, -z'
'x, y, -z-1/2'
'x, -y, z-1/2'
'-x, y, z'
'-x+1/2, -y+1/2, -z'
'x+1/2, y+1/2, -z-1/2'
'x+1/2, -y+1/2, z-1/2'
'-x+1/2, y+1/2, z'
loop_
_atom_site_label
_atom_site_type_symbol
_atom_site_fract_x
_atom_site_fract_y
_atom_site_fract_z
_atom_site_U_iso_or_equiv
_atom_site_adp_type
_atom_site_occupancy
_atom_site_symmetry_multiplicity
_atom_site_calc_flag
_atom_site_refinement_flags
Gd Gd 0.0000 0.39566(4) 0.2500 0.00666(17) Uani 1 4 d S
Ge1 Ge 0.0000 0.04858(9) 0.2500 0.0113(3) Uani 1 4 d S
Ge2 Ge 0.0000 0.75188(11) 0.2500 0.0324(5) Uani 1 4 d S
Al Al 0.0000 0.1906(12) 0.2500 0.015(6) Uiso 0.22(2) 4 d SP
loop_
_atom_site_aniso_label
_atom_site_aniso_U_11
_atom_site_aniso_U_22
_atom_site_aniso_U_33
_atom_site_aniso_U_23
_atom_site_aniso_U_13
_atom_site_aniso_U_12
Gd 0.0060(3) 0.0084(3) 0.0056(3) 0.000 0.000 0.000
Ge1 0.0061(6) 0.0222(7) 0.0055(6) 0.000 0.000 0.000
Ge2 0.0388(11) 0.0151(9) 0.0434(11) 0.000 0.000 0.000
loop_
_atom_type_symbol
_atom_type_description
_atom_type_scat_dispersion_real
_atom_type_scat_dispersion_imag
_atom_type_scat_source
Al Al 0.0645 0.0514 'International Tables Vol C Tables 4.2.6.8 and 6.1.1.4'
Ge Ge 0.1547 1.8001 'International Tables Vol C Tables 4.2.6.8 and 6.1.1.4'
Gd Gd -0.1653 3.9035 'International Tables Vol C Tables 4.2.6.8 and 6.1.1.4'
loop_
_geom_angle_atom_site_label_1
_geom_angle_atom_site_label_2
_geom_angle_atom_site_label_3
_geom_angle
_geom_angle_site_symmetry_1
_geom_angle_site_symmetry_3
Ge1 Gd Ge1 144.54(6) 13_556 13_455
Ge1 Gd Ge1 82.41(3) 13_556 13
Ge1 Gd Ge1 86.94(3) 13_455 13
Ge1 Gd Ge1 86.94(3) 13_556 13_456
Ge1 Gd Ge1 82.41(3) 13_455 13_456
Ge1 Gd Ge1 144.54(6) 13 13_456
Ge1 Gd Ge2 130.75(3) 13_556 9_565
Ge1 Gd Ge2 79.56(4) 13_455 9_565
Ge1 Gd Ge2 79.56(4) 13 9_565
Ge1 Gd Ge2 130.75(3) 13_456 9_565
Ge1 Gd Ge2 79.56(4) 13_556 9_566
Ge1 Gd Ge2 130.75(3) 13_455 9_566
Ge1 Gd Ge2 130.75(3) 13 9_566
Ge1 Gd Ge2 79.56(4) 13_456 9_566
Ge2 Gd Ge2 78.54(5) 9_565 9_566
Ge1 Gd Ge2 133.03(3) 13_556 5_445
Ge1 Gd Ge2 77.04(4) 13_455 5_445
Ge1 Gd Ge2 133.03(3) 13 5_445
Ge1 Gd Ge2 77.04(4) 13_456 5_445
Ge2 Gd Ge2 54.387(19) 9_565 5_445
Ge2 Gd Ge2 54.387(18) 9_566 5_445
Ge1 Gd Ge2 77.04(4) 13_556 5_545
Ge1 Gd Ge2 133.03(3) 13_455 5_545
Ge1 Gd Ge2 77.04(4) 13 5_545
Ge1 Gd Ge2 133.03(3) 13_456 5_545
Ge2 Gd Ge2 54.387(18) 9_565 5_545
Ge2 Gd Ge2 54.387(18) 9_566 5_545
Ge2 Gd Ge2 82.45(5) 5_445 5_545
Ge1 Gd Al 171.4(3) 13_556 13_455
Ge1 Gd Al 44.1(3) 13_455 13_455
Ge1 Gd Al 99.91(9) 13 13_455
Ge1 Gd Al 95.63(10) 13_456 13_455
Ge2 Gd Al 42.6(2) 9_565 13_455
Ge2 Gd Al 92.8(3) 9_566 13_455
Ge2 Gd Al 40.5(2) 5_445 13_455
Ge2 Gd Al 95.3(3) 5_545 13_455
Ge1 Gd Al 44.1(3) 13_556 13_556
Ge1 Gd Al 171.4(3) 13_455 13_556
Ge1 Gd Al 95.63(10) 13 13_556
Ge1 Gd Al 99.91(9) 13_456 13_556
Ge2 Gd Al 92.8(3) 9_565 13_556
Ge2 Gd Al 42.6(2) 9_566 13_556
Ge2 Gd Al 95.3(3) 5_445 13_556
Ge2 Gd Al 40.5(2) 5_545 13_556
Al Gd Al 127.3(6) 13_455 13_556
Ge1 Gd Al 99.91(9) 13_556 13_456
Ge1 Gd Al 95.63(10) 13_455 13_456
Ge1 Gd Al 171.4(3) 13 13_456
Ge1 Gd Al 44.1(3) 13_456 13_456
Ge2 Gd Al 92.8(3) 9_565 13_456
Ge2 Gd Al 42.6(2) 9_566 13_456
Ge2 Gd Al 40.5(2) 5_445 13_456
Ge2 Gd Al 95.3(3) 5_545 13_456
Al Gd Al 76.6(2) 13_455 13_456
Al Gd Al 80.7(3) 13_556 13_456
Ge1 Gd Al 95.63(10) 13_556 13
Ge1 Gd Al 99.91(9) 13_455 13
Ge1 Gd Al 44.1(3) 13 13
Ge1 Gd Al 171.4(3) 13_456 13
Ge2 Gd Al 42.6(2) 9_565 13
Ge2 Gd Al 92.8(3) 9_566 13
Ge2 Gd Al 95.3(3) 5_445 13
Ge2 Gd Al 40.5(2) 5_545 13
Al Gd Al 80.7(3) 13_455 13
Al Gd Al 76.6(2) 13_556 13
Al Gd Al 127.3(6) 13_456 13
Al Ge1 Ge1 128.85(6) . 9
Al Ge1 Ge1 128.85(6) . 9_556
Ge1 Ge1 Ge1 102.31(11) 9 9_556
Al Ge1 Gd 72.27(3) . 13_556
Ge1 Ge1 Gd 134.75(3) 9 13_556
Ge1 Ge1 Gd 71.21(3) 9_556 13_556
Al Ge1 Gd 72.27(3) . 13_455
Ge1 Ge1 Gd 71.21(3) 9 13_455
Ge1 Ge1 Gd 134.75(3) 9_556 13_455
Gd Ge1 Gd 144.54(6) 13_556 13_455
Al Ge1 Gd 72.27(3) . 13
Ge1 Ge1 Gd 71.21(3) 9 13
Ge1 Ge1 Gd 134.75(3) 9_556 13
Gd Ge1 Gd 82.41(3) 13_556 13
Gd Ge1 Gd 86.94(3) 13_455 13
Al Ge1 Gd 72.27(3) . 13_456
Ge1 Ge1 Gd 134.75(3) 9 13_456
Ge1 Ge1 Gd 71.21(3) 9_556 13_456
Gd Ge1 Gd 86.94(3) 13_556 13_456
Gd Ge1 Gd 82.41(3) 13_455 13_456
Gd Ge1 Gd 144.54(6) 13 13_456
Al Ge1 Gd 140.52(2) . 5_445
Ge1 Ge1 Gd 61.05(5) 9 5_445
Ge1 Ge1 Gd 61.05(5) 9_556 5_445
Gd Ge1 Gd 132.26(3) 13_556 5_445
Gd Ge1 Gd 78.32(3) 13_455 5_445
Gd Ge1 Gd 132.26(3) 13 5_445
Gd Ge1 Gd 78.32(3) 13_456 5_445
Al Ge1 Gd 140.52(2) . 5_545
Ge1 Ge1 Gd 61.05(5) 9 5_545
Ge1 Ge1 Gd 61.05(5) 9_556 5_545
Gd Ge1 Gd 78.32(3) 13_556 5_545
Gd Ge1 Gd 132.26(3) 13_455 5_545
Gd Ge1 Gd 78.32(3) 13 5_545
Gd Ge1 Gd 132.26(3) 13_456 5_545
Gd Ge1 Gd 78.97(5) 5_445 5_545
Al Ge2 Al 129.0(9) 9_566 9_565
Al Ge2 Al 100.8(4) 9_566 5_455
Al Ge2 Al 100.8(4) 9_565 5_455
Al Ge2 Al 100.8(4) 9_566 5
Al Ge2 Al 100.8(4) 9_565 5
Al Ge2 Al 128.1(9) 5_455 5
Al Ge2 Ge2 129.31(17) 9_566 13_465
Al Ge2 Ge2 52.05(19) 9_565 13_465
Al Ge2 Ge2 48.79(17) 5_455 13_465
Al Ge2 Ge2 129.8(2) 5 13_465
Al Ge2 Ge2 52.05(19) 9_566 13_566
Al Ge2 Ge2 129.31(17) 9_565 13_566
Al Ge2 Ge2 129.8(2) 5_455 13_566
Al Ge2 Ge2 48.79(17) 5 13_566
Ge2 Ge2 Ge2 177.53(14) 13_465 13_566
Al Ge2 Ge2 129.31(17) 9_566 13_565
Al Ge2 Ge2 52.05(19) 9_565 13_565
Al Ge2 Ge2 129.8(2) 5_455 13_565
Al Ge2 Ge2 48.79(17) 5 13_565
Ge2 Ge2 Ge2 92.46(3) 13_465 13_565
Ge2 Ge2 Ge2 87.49(3) 13_566 13_565
Al Ge2 Ge2 52.05(19) 9_566 13_466
Al Ge2 Ge2 129.31(17) 9_565 13_466
Al Ge2 Ge2 48.79(17) 5_455 13_466
Al Ge2 Ge2 129.8(2) 5 13_466
Ge2 Ge2 Ge2 87.49(3) 13_465 13_466
Ge2 Ge2 Ge2 92.46(3) 13_566 13_466
Ge2 Ge2 Ge2 177.53(14) 13_565 13_466
Al Ge2 Gd 154.7(5) 9_566 9_565
Al Ge2 Gd 76.2(5) 9_565 9_565
Al Ge2 Gd 70.2(3) 5_455 9_565
Al Ge2 Gd 70.2(3) 5 9_565
Ge2 Ge2 Gd 62.98(5) 13_465 9_565
Ge2 Ge2 Gd 114.90(7) 13_566 9_565
Ge2 Ge2 Gd 62.98(5) 13_565 9_565
Ge2 Ge2 Gd 114.90(7) 13_466 9_565
Al Ge2 Gd 76.2(5) 9_566 9_566
Al Ge2 Gd 154.7(5) 9_565 9_566
Al Ge2 Gd 70.2(3) 5_455 9_566
Al Ge2 Gd 70.2(3) 5 9_566
Ge2 Ge2 Gd 114.90(7) 13_465 9_566
Ge2 Ge2 Gd 62.98(5) 13_566 9_566
Ge2 Ge2 Gd 114.90(7) 13_565 9_566
Ge2 Ge2 Gd 62.98(5) 13_466 9_566
Gd Ge2 Gd 78.54(5) 9_565 9_566
Al Ge2 Gd 71.1(3) 9_566 5
Al Ge2 Gd 71.1(3) 9_565 5
Al Ge2 Gd 157.1(4) 5_455 5
Al Ge2 Gd 74.7(4) 5 5
Ge2 Ge2 Gd 119.47(7) 13_465 5
Ge2 Ge2 Gd 62.64(5) 13_566 5
Ge2 Ge2 Gd 62.64(5) 13_565 5
Ge2 Ge2 Gd 119.47(7) 13_466 5
Gd Ge2 Gd 125.614(18) 9_565 5
Gd Ge2 Gd 125.614(19) 9_566 5
Al Ge2 Gd 71.1(3) 9_566 5_455
Al Ge2 Gd 71.1(3) 9_565 5_455
Al Ge2 Gd 74.7(4) 5_455 5_455
Al Ge2 Gd 157.1(4) 5 5_455
Ge2 Ge2 Gd 62.64(5) 13_465 5_455
Ge2 Ge2 Gd 119.47(7) 13_566 5_455
Ge2 Ge2 Gd 119.47(7) 13_565 5_455
Ge2 Ge2 Gd 62.64(5) 13_466 5_455
Gd Ge2 Gd 125.614(19) 9_565 5_455
Gd Ge2 Gd 125.614(18) 9_566 5_455
Gd Ge2 Gd 82.44(5) 5 5_455
Ge2 Al Ge2 129.0(9) 9_566 9_565
Ge2 Al Ge2 79.2(4) 9_566 5_545
Ge2 Al Ge2 79.2(4) 9_565 5_545
Ge2 Al Ge2 79.2(4) 9_566 5_445
Ge2 Al Ge2 79.2(4) 9_565 5_445
Ge2 Al Ge2 128.1(9) 5_545 5_445
Ge2 Al Ge1 115.5(5) 9_566 .
Ge2 Al Ge1 115.5(5) 9_565 .
Ge2 Al Ge1 115.9(4) 5_545 .
Ge2 Al Ge1 115.9(4) 5_445 .
Ge2 Al Gd 138.62(5) 9_566 13_455
Ge2 Al Gd 68.36(11) 9_565 13_455
Ge2 Al Gd 140.91(3) 5_545 13_455
Ge2 Al Gd 67.15(10) 5_445 13_455
Ge1 Al Gd 63.7(3) . 13_455
Ge2 Al Gd 68.36(11) 9_566 13_556
Ge2 Al Gd 138.62(5) 9_565 13_556
Ge2 Al Gd 67.15(10) 5_545 13_556
Ge2 Al Gd 140.91(3) 5_445 13_556
Ge1 Al Gd 63.7(3) . 13_556
Gd Al Gd 127.3(6) 13_455 13_556
Ge2 Al Gd 68.36(11) 9_566 13_456
Ge2 Al Gd 138.62(5) 9_565 13_456
Ge2 Al Gd 140.91(3) 5_545 13_456
Ge2 Al Gd 67.15(10) 5_445 13_456
Ge1 Al Gd 63.7(3) . 13_456
Gd Al Gd 76.6(2) 13_455 13_456
Gd Al Gd 80.7(3) 13_556 13_456
Ge2 Al Gd 138.62(5) 9_566 13
Ge2 Al Gd 68.36(11) 9_565 13
Ge2 Al Gd 67.15(10) 5_545 13
Ge2 Al Gd 140.91(3) 5_445 13
Ge1 Al Gd 63.7(3) . 13
Gd Al Gd 80.7(3) 13_455 13
Gd Al Gd 76.6(2) 13_556 13
Gd Al Gd 127.3(6) 13_456 13
Ge2 Al Gd 64.5(5) 9_566 .
Ge2 Al Gd 64.5(5) 9_565 .
Ge2 Al Gd 64.1(4) 5_545 .
Ge2 Al Gd 64.1(4) 5_445 .
Ge1 Al Gd 180.0 . .
Gd Al Gd 116.3(3) 13_455 .
Gd Al Gd 116.3(3) 13_556 .
Gd Al Gd 116.3(3) 13_456 .
Gd Al Gd 116.3(3) 13 .
loop_
_geom_bond_atom_site_label_1
_geom_bond_atom_site_label_2
_geom_bond_distance
_geom_bond_site_symmetry_2
Gd Ge1 3.0140(9) 13_556
Gd Ge1 3.0140(9) 13_455
Gd Ge1 3.0140(9) 13
Gd Ge1 3.0140(9) 13_456
Gd Ge2 3.1370(17) 9_565
Gd Ge2 3.1370(17) 9_566
Gd Ge2 3.1466(16) 5_445
Gd Ge2 3.1466(16) 5_545
Gd Al 3.203(9) 13_455
Gd Al 3.203(9) 13_556
Gd Al 3.203(9) 13_456
Gd Al 3.203(9) 13
Ge1 Al 2.34(2) .
Ge1 Ge1 2.549(2) 9
Ge1 Ge1 2.549(2) 9_556
Ge1 Gd 3.0140(9) 13_556
Ge1 Gd 3.0140(9) 13_455
Ge1 Gd 3.0140(9) 13
Ge1 Gd 3.0140(9) 13_456
Ge1 Gd 3.2611(16) 5_445
Ge1 Gd 3.2611(16) 5_545
Ge2 Al 2.199(9) 9_566
Ge2 Al 2.199(9) 9_565
Ge2 Al 2.306(9) 5_455
Ge2 Al 2.306(9) 5
Ge2 Ge2 2.8716(8) 13_465
Ge2 Ge2 2.8716(8) 13_566
Ge2 Ge2 2.8716(8) 13_565
Ge2 Ge2 2.8716(8) 13_466
Ge2 Gd 3.1369(17) 9_565
Ge2 Gd 3.1369(17) 9_566
Ge2 Gd 3.1466(16) 5
Ge2 Gd 3.1466(16) 5_455
Al Ge2 2.199(9) 9_566
Al Ge2 2.199(9) 9_565
Al Ge2 2.306(9) 5_545
Al Ge2 2.306(9) 5_445
Al Gd 3.203(9) 13_455
Al Gd 3.203(9) 13_556
Al Gd 3.203(9) 13_456
Al Gd 3.203(9) 13
