#------------------------------------------------------------------------------
#$Date: 2016-03-23 23:57:12 +0200 (Wed, 23 Mar 2016) $
#$Revision: 179519 $
#$URL: svn://www.crystallography.net/cod/cif/4/34/16/4341664.cif $
#------------------------------------------------------------------------------
#
# This file is available in the Crystallography Open Database (COD),
# http://www.crystallography.net/
#
# All data on this site have been placed in the public domain by the
# contributors.
#
data_4341664
loop_
_publ_author_name
'Treadwell, LaRico J'
'Watkins-Curry, Pilanda'
'McAlpin, Jacob D.'
'Rebar, Drew J.'
'Hebert, Jessica K.'
'DiTusa, John F.'
'Chan, Julia Y.'
_publ_section_title
;
 Investigation of Mn, Fe, and Ni Incorporation in CeCo2Al8.
;
_journal_issue                   3
_journal_name_full               'Inorganic chemistry'
_journal_page_first              963
_journal_page_last               968
_journal_paper_doi               10.1021/ic502356t
_journal_volume                  54
_journal_year                    2015
_chemical_formula_moiety         'Al8 Ce Co1.33 Fe0.67'
_chemical_formula_sum            'Al8 Ce Co1.33 Fe0.67'
_chemical_formula_weight         470.74
_chemical_name_systematic
; 
 ? 
;
_space_group_IT_number           55
_symmetry_cell_setting           orthorhombic
_symmetry_space_group_name_Hall  '-P 2 2ab'
_symmetry_space_group_name_H-M   'P b a m'
_atom_sites_solution_primary     direct
_atom_sites_solution_secondary   difmap
_audit_creation_method           SHELXL-97
_audit_update_record
;
2014-10-27 # Formatted by publCIF
;
_cell_angle_alpha                90.00
_cell_angle_beta                 90.00
_cell_angle_gamma                90.00
_cell_formula_units_Z            4
_cell_length_a                   12.4820(5)
_cell_length_b                   14.401(3)
_cell_length_c                   4.029(3)
_cell_measurement_temperature    293(2)
_cell_volume                     724.2(6)
_computing_cell_refinement       'Denzo and Scalepack (Otwinski & Minor 1997)'
_computing_data_collection       'Collect (Nonius 1999)'
_computing_data_reduction        'Denzo and Scalepack (Otwinski & Minor 1997)'
_computing_molecular_graphics    'Crystal Maker'
_computing_publication_material  Publcif
_computing_structure_refinement  'SHELXL-97 (Sheldrick, 1997)'
_computing_structure_solution    'SHELXS-97 (Sheldrick, 1990)'
_diffrn_ambient_temperature      293(2)
_diffrn_measured_fraction_theta_full 0.998
_diffrn_measured_fraction_theta_max 0.998
_diffrn_measurement_device_type  'Nonius Kappa CCD'
_diffrn_measurement_method       '\f and \w scans'
_diffrn_radiation_monochromator  graphite
_diffrn_radiation_source         'fine-focus sealed tube'
_diffrn_radiation_type           MoK\a
_diffrn_radiation_wavelength     0.71073
_diffrn_reflns_av_R_equivalents  0.0263
_diffrn_reflns_av_sigmaI/netI    0.0325
_diffrn_reflns_limit_h_max       18
_diffrn_reflns_limit_h_min       -17
_diffrn_reflns_limit_k_max       20
_diffrn_reflns_limit_k_min       -20
_diffrn_reflns_limit_l_max       5
_diffrn_reflns_limit_l_min       -5
_diffrn_reflns_number            2143
_diffrn_reflns_theta_full        30.99
_diffrn_reflns_theta_max         30.99
_diffrn_reflns_theta_min         3.26
_exptl_absorpt_coefficient_mu    11.285
_exptl_absorpt_correction_T_max  0.713
_exptl_absorpt_correction_T_min  0.673
_exptl_absorpt_correction_type   multi-scan
_exptl_absorpt_process_details   'HKL scalepack (Otwinski & Minor, 1997)'
_exptl_crystal_colour            silver
_exptl_crystal_density_diffrn    4.317
_exptl_crystal_density_method    'not measured'
_exptl_crystal_description       Fragment
_exptl_crystal_F_000             860
_exptl_crystal_size_max          0.05
_exptl_crystal_size_mid          0.03
_exptl_crystal_size_min          0.03
_refine_diff_density_max         1.442
_refine_diff_density_min         -2.187
_refine_diff_density_rms         0.295
_refine_ls_extinction_coef       0.0299(9)
_refine_ls_extinction_expression Fc^*^=kFc[1+0.001xFc^2^\l^3^/sin(2\q)]^-1/4^
_refine_ls_extinction_method     SHELXL
_refine_ls_goodness_of_fit_ref   0.973
_refine_ls_matrix_type           full
_refine_ls_number_parameters     74
_refine_ls_number_reflns         1299
_refine_ls_number_restraints     1
_refine_ls_restrained_S_all      0.973
_refine_ls_R_factor_all          0.0374
_refine_ls_R_factor_gt           0.0288
_refine_ls_shift/su_max          0.008
_refine_ls_shift/su_mean         0.000
_refine_ls_structure_factor_coef Fsqd
_refine_ls_weighting_details
'calc w=1/[\s^2^(Fo^2^)+(0.0388P)^2^+3.0837P] where P=(Fo^2^+2Fc^2^)/3'
_refine_ls_weighting_scheme      calc
_refine_ls_wR_factor_gt          0.0678
_refine_ls_wR_factor_ref         0.0725
_reflns_number_gt                1092
_reflns_number_total             1299
_reflns_threshold_expression     >2sigma(I)
_cod_data_source_file            ic502356t_si_004.cif
_cod_data_source_block           shelx
_cod_depositor_comments
;
The following automatic conversions were performed:

'_symmetry_cell_setting' value 'Orthorhombic' changed to
'orthorhombic' according to
/home/saulius/struct/COD-crude-data--automatic-downloads/rss-feeds/ACS/lib/dictionaries/cif_core.dic
dictionary named 'cif_core.dic' version 2.4.2 from
2011-04-26.

'_exptl_absorpt_correction_type' value 'Multi-scan'
changed to 'multi-scan' according to
/home/saulius/struct/COD-crude-data--automatic-downloads/rss-feeds/ACS/lib/dictionaries/cif_core.dic
dictionary named 'cif_core.dic' version 2.4.2 from 2011-04-26.

Automatic conversion script
Id: cif_fix_values 2935 2014-11-11 08:27:57Z andrius 

 Adding full bibliography for 4341656--4341665.cif.
;
_cod_original_cell_volume        724.2(5)
_cod_original_sg_symbol_H-M      Pbam
_cod_database_code               4341664
loop_
_symmetry_equiv_pos_as_xyz
'x, y, z'
'-x, -y, z'
'x+1/2, -y+1/2, -z'
'-x+1/2, y+1/2, -z'
'-x, -y, -z'
'x, y, -z'
'-x-1/2, y-1/2, z'
'x-1/2, -y-1/2, z'
loop_
_atom_site_label
_atom_site_type_symbol
_atom_site_fract_x
_atom_site_fract_y
_atom_site_fract_z
_atom_site_U_iso_or_equiv
_atom_site_adp_type
_atom_site_occupancy
_atom_site_symmetry_multiplicity
_atom_site_calc_flag
_atom_site_refinement_flags
Ce1 Ce 0.34100(2) 0.31860(2) 0.0000 0.01089(12) Uani 1 2 d S
Co2 Co 0.15081(5) 0.09686(5) 0.0000 0.0081(3) Uani 0.56(6) 2 d SP
Fe2 Fe 0.15081(5) 0.09686(5) 0.0000 0.0081(3) Uani 0.44(7) 2 d SP
Co1 Co 0.03429(6) 0.40652(5) 0.0000 0.0094(2) Uani 0.77(6) 2 d SP
Fe1 Fe 0.03429(6) 0.40652(5) 0.0000 0.0094(2) Uani 0.21(7) 2 d SP
Al8 Al 0.0000 0.5000 0.5000 0.0104(4) Uani 1 4 d S
Al9 Al 0.0000 0.0000 0.0000 0.0116(4) Uani 1 4 d S
Al2 Al 0.15973(12) 0.37907(12) 0.5000 0.0102(3) Uani 1 2 d S
Al5 Al 0.45244(13) 0.17980(11) 0.5000 0.0106(3) Uani 1 2 d S
Al3 Al 0.23576(13) 0.17268(11) 0.5000 0.0104(3) Uani 1 2 d S
Al4 Al 0.33143(13) 0.49209(11) 0.5000 0.0103(3) Uani 1 2 d S
Al1 Al 0.02565(13) 0.13191(11) 0.5000 0.0102(3) Uani 1 2 d S
Al7 Al 0.33857(12) 0.04450(12) 0.0000 0.0120(3) Uani 1 2 d S
Al6 Al 0.09556(12) 0.25325(10) 0.0000 0.0105(3) Uani 1 2 d S
loop_
_atom_site_aniso_label
_atom_site_aniso_U_11
_atom_site_aniso_U_22
_atom_site_aniso_U_33
_atom_site_aniso_U_23
_atom_site_aniso_U_13
_atom_site_aniso_U_12
Ce1 0.01055(17) 0.01421(18) 0.00791(17) 0.000 0.000 -0.00091(10)
Co2 0.0082(4) 0.0091(4) 0.0070(4) 0.000 0.000 0.0000(2)
Fe2 0.0082(4) 0.0091(4) 0.0070(4) 0.000 0.000 0.0000(2)
Co1 0.0106(4) 0.0096(4) 0.0079(4) 0.000 0.000 0.0005(2)
Fe1 0.0106(4) 0.0096(4) 0.0079(4) 0.000 0.000 0.0005(2)
Al8 0.0132(10) 0.0084(9) 0.0098(10) 0.000 0.000 0.0007(7)
Al9 0.0104(10) 0.0117(10) 0.0127(10) 0.000 0.000 -0.0010(8)
Al2 0.0088(7) 0.0121(7) 0.0098(7) 0.000 0.000 0.0000(5)
Al5 0.0096(7) 0.0118(7) 0.0103(7) 0.000 0.000 0.0011(5)
Al3 0.0107(7) 0.0125(8) 0.0081(7) 0.000 0.000 -0.0016(5)
Al4 0.0114(7) 0.0096(7) 0.0099(7) 0.000 0.000 -0.0019(5)
Al1 0.0099(7) 0.0109(7) 0.0097(7) 0.000 0.000 0.0005(5)
Al7 0.0087(7) 0.0170(8) 0.0103(8) 0.000 0.000 0.0016(6)
Al6 0.0110(8) 0.0089(7) 0.0115(7) 0.000 0.000 -0.0004(5)
loop_
_atom_type_symbol
_atom_type_description
_atom_type_scat_dispersion_real
_atom_type_scat_dispersion_imag
_atom_type_scat_source
Ce Ce -0.2486 2.6331 'International Tables Vol C Tables 4.2.6.8 and 6.1.1.4'
Fe Fe 0.3463 0.8444 'International Tables Vol C Tables 4.2.6.8 and 6.1.1.4'
Co Co 0.3494 0.9721 'International Tables Vol C Tables 4.2.6.8 and 6.1.1.4'
Al Al 0.0645 0.0514 'International Tables Vol C Tables 4.2.6.8 and 6.1.1.4'
loop_
_geom_angle_atom_site_label_1
_geom_angle_atom_site_label_2
_geom_angle_atom_site_label_3
_geom_angle
_geom_angle_site_symmetry_1
_geom_angle_site_symmetry_3
Al1 Ce1 Al1 79.72(5) 3_556 3
Al1 Ce1 Al2 93.10(4) 3_556 .
Al1 Ce1 Al2 150.85(5) 3 .
Al1 Ce1 Al2 150.85(5) 3_556 1_554
Al1 Ce1 Al2 93.10(4) 3 1_554
Al2 Ce1 Al2 79.45(5) . 1_554
Al1 Ce1 Al5 53.99(4) 3_556 .
Al1 Ce1 Al5 103.25(4) 3 .
Al2 Ce1 Al5 94.78(4) . .
Al2 Ce1 Al5 153.90(4) 1_554 .
Al1 Ce1 Al5 103.25(4) 3_556 1_554
Al1 Ce1 Al5 53.99(4) 3 1_554
Al2 Ce1 Al5 153.90(4) . 1_554
Al2 Ce1 Al5 94.78(4) 1_554 1_554
Al5 Ce1 Al5 79.20(5) . 1_554
Al1 Ce1 Al3 148.77(4) 3_556 1_554
Al1 Ce1 Al3 92.67(4) 3 1_554
Al2 Ce1 Al3 106.84(4) . 1_554
Al2 Ce1 Al3 58.90(4) 1_554 1_554
Al5 Ce1 Al3 99.61(4) . 1_554
Al5 Ce1 Al3 50.42(4) 1_554 1_554
Al1 Ce1 Al3 92.67(4) 3_556 .
Al1 Ce1 Al3 148.77(4) 3 .
Al2 Ce1 Al3 58.90(4) . .
Al2 Ce1 Al3 106.84(4) 1_554 .
Al5 Ce1 Al3 50.42(4) . .
Al5 Ce1 Al3 99.61(4) 1_554 .
Al3 Ce1 Al3 78.22(5) 1_554 .
Al1 Ce1 Al6 140.14(3) 3_556 .
Al1 Ce1 Al6 140.14(3) 3 .
Al2 Ce1 Al6 52.77(3) . .
Al2 Ce1 Al6 52.77(3) 1_554 .
Al5 Ce1 Al6 103.59(4) . .
Al5 Ce1 Al6 103.59(4) 1_554 .
Al3 Ce1 Al6 54.10(3) 1_554 .
Al3 Ce1 Al6 54.10(3) . .
Al1 Ce1 Al4 104.65(4) 3_556 1_554
Al1 Ce1 Al4 56.55(4) 3 1_554
Al2 Ce1 Al4 99.17(4) . 1_554
Al2 Ce1 Al4 50.02(4) 1_554 1_554
Al5 Ce1 Al4 155.25(4) . 1_554
Al5 Ce1 Al4 96.23(4) 1_554 1_554
Al3 Ce1 Al4 95.79(4) 1_554 1_554
Al3 Ce1 Al4 153.16(4) . 1_554
Al6 Ce1 Al4 101.12(4) . 1_554
Al1 Ce1 Al4 56.55(4) 3_556 .
Al1 Ce1 Al4 104.65(4) 3 .
Al2 Ce1 Al4 50.02(4) . .
Al2 Ce1 Al4 99.17(4) 1_554 .
Al5 Ce1 Al4 96.23(4) . .
Al5 Ce1 Al4 155.25(4) 1_554 .
Al3 Ce1 Al4 153.16(4) 1_554 .
Al3 Ce1 Al4 95.79(4) . .
Al6 Ce1 Al4 101.12(4) . .
Al4 Ce1 Al4 77.70(5) 1_554 .
Al1 Ce1 Al9 51.38(3) 3_556 3
Al1 Ce1 Al9 51.38(3) 3 3
Al2 Ce1 Al9 102.37(3) . 3
Al2 Ce1 Al9 102.37(3) 1_554 3
Al5 Ce1 Al9 103.73(3) . 3
Al5 Ce1 Al9 103.73(3) 1_554 3
Al3 Ce1 Al9 140.60(2) 1_554 3
Al3 Ce1 Al9 140.60(3) . 3
Al6 Ce1 Al9 144.30(3) . 3
Al4 Ce1 Al9 53.35(3) 1_554 3
Al4 Ce1 Al9 53.35(3) . 3
Al9 Co2 Al6 109.51(5) . .
Al9 Co2 Al7 125.62(5) . .
Al6 Co2 Al7 124.86(6) . .
Al9 Co2 Al3 126.50(4) . .
Al6 Co2 Al3 73.11(4) . .
Al7 Co2 Al3 74.49(5) . .
Al9 Co2 Al3 126.50(4) . 1_554
Al6 Co2 Al3 73.11(4) . 1_554
Al7 Co2 Al3 74.49(5) . 1_554
Al3 Co2 Al3 105.86(7) . 1_554
Al9 Co2 Al4 73.44(4) . 7_654
Al6 Co2 Al4 126.63(4) . 7_654
Al7 Co2 Al4 74.55(5) . 7_654
Al3 Co2 Al4 149.04(6) . 7_654
Al3 Co2 Al4 65.50(5) 1_554 7_654
Al9 Co2 Al4 73.44(4) . 7_655
Al6 Co2 Al4 126.63(4) . 7_655
Al7 Co2 Al4 74.55(5) . 7_655
Al3 Co2 Al4 65.50(5) . 7_655
Al3 Co2 Al4 149.04(6) 1_554 7_655
Al4 Co2 Al4 105.74(7) 7_654 7_655
Al9 Co2 Al1 68.45(4) . 1_554
Al6 Co2 Al1 68.79(4) . 1_554
Al7 Co2 Al1 129.18(3) . 1_554
Al3 Co2 Al1 141.91(6) . 1_554
Al3 Co2 Al1 63.25(5) 1_554 1_554
Al4 Co2 Al1 63.30(5) 7_654 1_554
Al4 Co2 Al1 141.88(6) 7_655 1_554
Al9 Co2 Al1 68.45(4) . .
Al6 Co2 Al1 68.79(4) . .
Al7 Co2 Al1 129.18(3) . .
Al3 Co2 Al1 63.25(5) . .
Al3 Co2 Al1 141.90(6) 1_554 .
Al4 Co2 Al1 141.88(6) 7_654 .
Al4 Co2 Al1 63.30(5) 7_655 .
Al1 Co2 Al1 101.64(7) 1_554 .
Al6 Co1 Al8 125.03(2) . .
Al6 Co1 Al8 125.03(2) . 1_554
Al8 Co1 Al8 109.92(4) . 1_554
Al6 Co1 Al7 122.28(6) . 7_665
Al8 Co1 Al7 71.40(3) . 7_665
Al8 Co1 Al7 71.40(3) 1_554 7_665
Al6 Co1 Al7 125.22(6) . 3_455
Al8 Co1 Al7 71.40(3) . 3_455
Al8 Co1 Al7 71.40(3) 1_554 3_455
Al7 Co1 Al7 112.50(5) 7_665 3_455
Al6 Co1 Al5 70.99(4) . 3_455
Al8 Co1 Al5 146.58(5) . 3_455
Al8 Co1 Al5 63.59(4) 1_554 3_455
Al7 Co1 Al5 128.61(3) 7_665 3_455
Al7 Co1 Al5 75.70(4) 3_455 3_455
Al6 Co1 Al5 70.99(4) . 3_456
Al8 Co1 Al5 63.59(4) . 3_456
Al8 Co1 Al5 146.58(5) 1_554 3_456
Al7 Co1 Al5 128.61(3) 7_665 3_456
Al7 Co1 Al5 75.70(5) 3_455 3_456
Al5 Co1 Al5 102.77(7) 3_455 3_456
Al6 Co1 Al2 69.93(5) . 1_554
Al8 Co1 Al2 145.90(5) . 1_554
Al8 Co1 Al2 63.28(4) 1_554 1_554
Al7 Co1 Al2 75.00(5) 7_665 1_554
Al7 Co1 Al2 128.69(3) 3_455 1_554
Al5 Co1 Al2 63.69(5) 3_455 1_554
Al5 Co1 Al2 140.91(6) 3_456 1_554
Al6 Co1 Al2 69.93(5) . .
Al8 Co1 Al2 63.28(4) . .
Al8 Co1 Al2 145.90(5) 1_554 .
Al7 Co1 Al2 75.00(5) 7_665 .
Al7 Co1 Al2 128.69(3) 3_455 .
Al5 Co1 Al2 140.91(6) 3_455 .
Al5 Co1 Al2 63.69(5) 3_456 .
Al2 Co1 Al2 102.57(7) 1_554 .
Al6 Co1 Co1 178.52(6) . 5_565
Al8 Co1 Co1 54.96(2) . 5_565
Al8 Co1 Co1 54.96(2) 1_554 5_565
Al7 Co1 Co1 56.25(4) 7_665 5_565
Al7 Co1 Co1 56.26(5) 3_455 5_565
Al5 Co1 Co1 109.84(4) 3_455 5_565
Al5 Co1 Co1 109.84(4) 3_456 5_565
Al2 Co1 Co1 109.25(4) 1_554 5_565
Al2 Co1 Co1 109.25(4) . 5_565
Al6 Co1 Fe1 178.52(6) . 5_565
Al8 Co1 Fe1 54.96(2) . 5_565
Al8 Co1 Fe1 54.96(2) 1_554 5_565
Al7 Co1 Fe1 56.25(4) 7_665 5_565
Al7 Co1 Fe1 56.26(5) 3_455 5_565
Al5 Co1 Fe1 109.84(4) 3_455 5_565
Al5 Co1 Fe1 109.84(4) 3_456 5_565
Al2 Co1 Fe1 109.25(4) 1_554 5_565
Al2 Co1 Fe1 109.25(4) . 5_565
Co1 Co1 Fe1 0.00(3) 5_565 5_565
Fe1 Al8 Co1 0.00(3) 5_566 5_566
Fe1 Al8 Fe1 109.92(4) 5_566 5_565
Co1 Al8 Fe1 109.92(4) 5_566 5_565
Fe1 Al8 Fe1 70.08(4) 5_566 1_556
Co1 Al8 Fe1 70.08(4) 5_566 1_556
Fe1 Al8 Fe1 180.00(3) 5_565 1_556
Fe1 Al8 Co1 70.08(4) 5_566 1_556
Co1 Al8 Co1 70.08(4) 5_566 1_556
Fe1 Al8 Co1 180.00(3) 5_565 1_556
Fe1 Al8 Co1 0.00(4) 1_556 1_556
Fe1 Al8 Co1 109.92(4) 5_566 5_565
Co1 Al8 Co1 109.92(4) 5_566 5_565
Fe1 Al8 Co1 0.00(4) 5_565 5_565
Fe1 Al8 Co1 180.0 1_556 5_565
Co1 Al8 Co1 180.0 1_556 5_565
Fe1 Al8 Co1 180.0 5_566 .
Co1 Al8 Co1 180.0 5_566 .
Fe1 Al8 Co1 70.08(4) 5_565 .
Fe1 Al8 Co1 109.92(4) 1_556 .
Co1 Al8 Co1 109.92(4) 1_556 .
Co1 Al8 Co1 70.08(4) 5_565 .
Fe1 Al8 Al2 119.40(2) 5_566 .
Co1 Al8 Al2 119.40(2) 5_566 .
Fe1 Al8 Al2 119.40(2) 5_565 .
Fe1 Al8 Al2 60.60(2) 1_556 .
Co1 Al8 Al2 60.60(2) 1_556 .
Co1 Al8 Al2 119.40(2) 5_565 .
Co1 Al8 Al2 60.60(2) . .
Fe1 Al8 Al2 60.60(2) 5_566 5_566
Co1 Al8 Al2 60.60(2) 5_566 5_566
Fe1 Al8 Al2 60.60(2) 5_565 5_566
Fe1 Al8 Al2 119.40(2) 1_556 5_566
Co1 Al8 Al2 119.40(2) 1_556 5_566
Co1 Al8 Al2 60.60(2) 5_565 5_566
Co1 Al8 Al2 119.40(2) . 5_566
Al2 Al8 Al2 180.0 . 5_566
Fe1 Al8 Al5 60.37(2) 5_566 7_665
Co1 Al8 Al5 60.37(2) 5_566 7_665
Fe1 Al8 Al5 60.37(2) 5_565 7_665
Fe1 Al8 Al5 119.63(2) 1_556 7_665
Co1 Al8 Al5 119.63(2) 1_556 7_665
Co1 Al8 Al5 60.37(2) 5_565 7_665
Co1 Al8 Al5 119.63(2) . 7_665
Al2 Al8 Al5 118.23(5) . 7_665
Al2 Al8 Al5 61.77(5) 5_566 7_665
Fe1 Al8 Al5 119.63(2) 5_566 3_456
Co1 Al8 Al5 119.63(2) 5_566 3_456
Fe1 Al8 Al5 119.63(2) 5_565 3_456
Fe1 Al8 Al5 60.37(2) 1_556 3_456
Co1 Al8 Al5 60.37(2) 1_556 3_456
Co1 Al8 Al5 119.63(2) 5_565 3_456
Co1 Al8 Al5 60.37(2) . 3_456
Al2 Al8 Al5 61.77(5) . 3_456
Al2 Al8 Al5 118.23(5) 5_566 3_456
Al5 Al8 Al5 180.0 7_665 3_456
Co2 Al9 Fe2 180.0 . 5
Co2 Al9 Co2 180.0 . 5
Fe2 Al9 Co2 0.00(3) 5 5
Co2 Al9 Al1 119.87(3) . 5
Fe2 Al9 Al1 60.13(3) 5 5
Co2 Al9 Al1 60.13(3) 5 5
Co2 Al9 Al1 119.87(3) . 5_556
Fe2 Al9 Al1 60.13(3) 5 5_556
Co2 Al9 Al1 60.13(3) 5 5_556
Al1 Al9 Al1 92.56(6) 5 5_556
Co2 Al9 Al1 60.13(3) . 1_554
Fe2 Al9 Al1 119.87(3) 5 1_554
Co2 Al9 Al1 119.87(3) 5 1_554
Al1 Al9 Al1 87.44(6) 5 1_554
Al1 Al9 Al1 180.00(8) 5_556 1_554
Co2 Al9 Al1 60.13(3) . .
Fe2 Al9 Al1 119.87(3) 5 .
Co2 Al9 Al1 119.87(3) 5 .
Al1 Al9 Al1 180.0 5 .
Al1 Al9 Al1 87.44(6) 5_556 .
Al1 Al9 Al1 92.56(6) 1_554 .
Co2 Al9 Al4 123.82(3) . 3_455
Fe2 Al9 Al4 56.18(3) 5 3_455
Co2 Al9 Al4 56.18(3) 5 3_455
Al1 Al9 Al4 56.24(5) 5 3_455
Al1 Al9 Al4 116.31(5) 5_556 3_455
Al1 Al9 Al4 63.69(5) 1_554 3_455
Al1 Al9 Al4 123.76(5) . 3_455
Co2 Al9 Al4 56.18(3) . 7_655
Fe2 Al9 Al4 123.82(3) 5 7_655
Co2 Al9 Al4 123.82(3) 5 7_655
Al1 Al9 Al4 123.76(5) 5 7_655
Al1 Al9 Al4 63.69(5) 5_556 7_655
Al1 Al9 Al4 116.31(5) 1_554 7_655
Al1 Al9 Al4 56.24(5) . 7_655
Al4 Al9 Al4 180.00(7) 3_455 7_655
Co2 Al9 Al4 123.82(3) . 3_456
Fe2 Al9 Al4 56.18(3) 5 3_456
Co2 Al9 Al4 56.18(3) 5 3_456
Al1 Al9 Al4 116.31(5) 5 3_456
Al1 Al9 Al4 56.24(5) 5_556 3_456
Al1 Al9 Al4 123.76(5) 1_554 3_456
Al1 Al9 Al4 63.70(5) . 3_456
Al4 Al9 Al4 87.42(6) 3_455 3_456
Al4 Al9 Al4 92.58(6) 7_655 3_456
Co2 Al9 Al4 56.18(3) . 7_654
Fe2 Al9 Al4 123.82(3) 5 7_654
Co2 Al9 Al4 123.82(3) 5 7_654
Al1 Al9 Al4 63.69(5) 5 7_654
Al1 Al9 Al4 123.76(5) 5_556 7_654
Al1 Al9 Al4 56.24(5) 1_554 7_654
Al1 Al9 Al4 116.30(5) . 7_654
Al4 Al9 Al4 92.58(6) 3_455 7_654
Al4 Al9 Al4 87.42(6) 7_655 7_654
Al4 Al9 Al4 180.00(4) 3_456 7_654
Co1 Al2 Fe1 102.57(7) . 1_556
Co1 Al2 Co1 102.57(7) . 1_556
Fe1 Al2 Co1 0.00(4) 1_556 1_556
Co1 Al2 Al8 56.12(4) . .
Fe1 Al2 Al8 56.12(4) 1_556 .
Co1 Al2 Al8 56.12(4) 1_556 .
Co1 Al2 Al4 112.98(5) . .
Fe1 Al2 Al4 112.98(5) 1_556 .
Co1 Al2 Al4 112.98(5) 1_556 .
Al8 Al2 Al4 101.65(7) . .
Co1 Al2 Al5 58.09(4) . 3_456
Fe1 Al2 Al5 58.09(4) 1_556 3_456
Co1 Al2 Al5 58.09(4) 1_556 3_456
Al8 Al2 Al5 59.28(5) . 3_456
Al4 Al2 Al5 160.93(8) . 3_456
Co1 Al2 Al6 50.94(4) . .
Fe1 Al2 Al6 118.85(7) 1_556 .
Co1 Al2 Al6 118.85(7) 1_556 .
Al8 Al2 Al6 102.03(5) . .
Al4 Al2 Al6 127.85(5) . .
Al5 Al2 Al6 62.03(5) 3_456 .
Co1 Al2 Al6 118.85(7) . 1_556
Fe1 Al2 Al6 50.95(4) 1_556 1_556
Co1 Al2 Al6 50.95(4) 1_556 1_556
Al8 Al2 Al6 102.03(5) . 1_556
Al4 Al2 Al6 127.85(5) . 1_556
Al5 Al2 Al6 62.03(5) 3_456 1_556
Al6 Al2 Al6 90.96(7) . 1_556
Co1 Al2 Ce1 167.49(5) . 1_556
Fe1 Al2 Ce1 88.79(4) 1_556 1_556
Co1 Al2 Ce1 88.79(4) 1_556 1_556
Al8 Al2 Ce1 136.25(4) . 1_556
Al4 Al2 Ce1 66.14(4) . 1_556
Al5 Al2 Ce1 126.59(5) 3_456 1_556
Al6 Al2 Ce1 118.82(6) . 1_556
Al6 Al2 Ce1 64.57(4) 1_556 1_556
Co1 Al2 Ce1 88.79(4) . .
Fe1 Al2 Ce1 167.49(5) 1_556 .
Co1 Al2 Ce1 167.49(5) 1_556 .
Al8 Al2 Ce1 136.25(4) . .
Al4 Al2 Ce1 66.14(4) . .
Al5 Al2 Ce1 126.59(5) 3_456 .
Al6 Al2 Ce1 64.57(4) . .
Al6 Al2 Ce1 118.82(6) 1_556 .
Ce1 Al2 Ce1 79.45(5) 1_556 .
Fe1 Al5 Co1 0.00(3) 3 3
Fe1 Al5 Fe1 102.77(7) 3 3_556
Co1 Al5 Fe1 102.77(7) 3 3_556
Fe1 Al5 Co1 102.77(7) 3 3_556
Co1 Al5 Co1 102.77(7) 3 3_556
Fe1 Al5 Co1 0.00(3) 3_556 3_556
Fe1 Al5 Al8 56.05(4) 3 3_556
Co1 Al5 Al8 56.05(4) 3 3_556
Fe1 Al5 Al8 56.05(4) 3_556 3_556
Co1 Al5 Al8 56.05(4) 3_556 3_556
Fe1 Al5 Al3 112.19(5) 3 .
Co1 Al5 Al3 112.19(5) 3 .
Fe1 Al5 Al3 112.19(5) 3_556 .
Co1 Al5 Al3 112.19(5) 3_556 .
Al8 Al5 Al3 100.74(6) 3_556 .
Fe1 Al5 Al2 58.22(4) 3 3_556
Co1 Al5 Al2 58.22(4) 3 3_556
Fe1 Al5 Al2 58.22(4) 3_556 3_556
Co1 Al5 Al2 58.22(4) 3_556 3_556
Al8 Al5 Al2 58.95(5) 3_556 3_556
Al3 Al5 Al2 159.69(8) . 3_556
Fe1 Al5 Al6 117.74(7) 3 3_556
Co1 Al5 Al6 117.74(7) 3 3_556
Fe1 Al5 Al6 50.55(4) 3_556 3_556
Co1 Al5 Al6 50.55(4) 3_556 3_556
Al8 Al5 Al6 100.89(5) 3_556 3_556
Al3 Al5 Al6 129.57(5) . 3_556
Al2 Al5 Al6 60.75(5) 3_556 3_556
Fe1 Al5 Al6 50.55(4) 3 3
Co1 Al5 Al6 50.55(4) 3 3
Fe1 Al5 Al6 117.74(7) 3_556 3
Co1 Al5 Al6 117.74(7) 3_556 3
Al8 Al5 Al6 100.89(5) 3_556 3
Al3 Al5 Al6 129.57(5) . 3
Al2 Al5 Al6 60.75(5) 3_556 3
Al6 Al5 Al6 89.56(7) 3_556 3
Fe1 Al5 Al1 109.29(5) 3 3_556
Co1 Al5 Al1 109.29(5) 3 3_556
Fe1 Al5 Al1 109.29(5) 3_556 3_556
Co1 Al5 Al1 109.29(5) 3_556 3_556
Al8 Al5 Al1 148.46(7) 3_556 3_556
Al3 Al5 Al1 110.80(7) . 3_556
Al2 Al5 Al1 89.52(7) 3_556 3_556
Al6 Al5 Al1 58.74(5) 3_556 3_556
Al6 Al5 Al1 58.74(5) 3 3_556
Fe1 Al5 Ce1 88.93(4) 3 .
Co1 Al5 Ce1 88.93(4) 3 .
Fe1 Al5 Ce1 167.79(5) 3_556 .
Co1 Al5 Ce1 167.79(5) 3_556 .
Al8 Al5 Ce1 135.63(3) 3_556 .
Al3 Al5 Ce1 65.43(4) . .
Al2 Al5 Ce1 127.96(4) 3_556 .
Al6 Al5 Ce1 120.71(6) 3_556 .
Al6 Al5 Ce1 67.22(4) 3 .
Al1 Al5 Ce1 62.69(4) 3_556 .
Fe1 Al5 Ce1 167.79(5) 3 1_556
Co1 Al5 Ce1 167.79(5) 3 1_556
Fe1 Al5 Ce1 88.93(4) 3_556 1_556
Co1 Al5 Ce1 88.93(4) 3_556 1_556
Al8 Al5 Ce1 135.63(3) 3_556 1_556
Al3 Al5 Ce1 65.43(4) . 1_556
Al2 Al5 Ce1 127.96(4) 3_556 1_556
Al6 Al5 Ce1 67.22(4) 3_556 1_556
Al6 Al5 Ce1 120.71(6) 3 1_556
Al1 Al5 Ce1 62.69(4) 3_556 1_556
Ce1 Al5 Ce1 79.20(5) . 1_556
Fe2 Al3 Co2 0.00(4) 1_556 1_556
Fe2 Al3 Co2 105.86(7) 1_556 .
Co2 Al3 Co2 105.86(7) 1_556 .
Fe2 Al3 Al1 59.72(4) 1_556 .
Co2 Al3 Al1 59.72(4) 1_556 .
Co2 Al3 Al1 59.72(4) . .
Fe2 Al3 Al5 115.85(5) 1_556 .
Co2 Al3 Al5 115.85(5) 1_556 .
Co2 Al3 Al5 115.85(5) . .
Al1 Al3 Al5 169.56(8) . .
Fe2 Al3 Al4 57.29(4) 1_556 7_655
Co2 Al3 Al4 57.29(4) 1_556 7_655
Co2 Al3 Al4 57.29(4) . 7_655
Al1 Al3 Al4 59.51(6) . 7_655
Al5 Al3 Al4 110.05(7) . 7_655
Fe2 Al3 Al6 50.76(4) 1_556 1_556
Co2 Al3 Al6 50.76(4) 1_556 1_556
Co2 Al3 Al6 118.18(7) . 1_556
Al1 Al3 Al6 60.01(5) . 1_556
Al5 Al3 Al6 125.86(5) . 1_556
Al4 Al3 Al6 101.24(6) 7_655 1_556
Fe2 Al3 Al6 118.18(7) 1_556 .
Co2 Al3 Al6 118.18(7) 1_556 .
Co2 Al3 Al6 50.76(4) . .
Al1 Al3 Al6 60.01(5) . .
Al5 Al3 Al6 125.86(5) . .
Al4 Al3 Al6 101.24(6) 7_655 .
Al6 Al3 Al6 87.63(7) 1_556 .
Fe2 Al3 Ce1 163.85(5) 1_556 .
Co2 Al3 Ce1 163.85(5) 1_556 .
Co2 Al3 Ce1 87.36(4) . .
Al1 Al3 Ce1 123.03(5) . .
Al5 Al3 Ce1 64.15(4) . .
Al4 Al3 Ce1 138.81(3) 7_655 .
Al6 Al3 Ce1 114.94(6) 1_556 .
Al6 Al3 Ce1 63.15(4) . .
Fe2 Al3 Ce1 87.36(4) 1_556 1_556
Co2 Al3 Ce1 87.36(4) 1_556 1_556
Co2 Al3 Ce1 163.85(5) . 1_556
Al1 Al3 Ce1 123.03(5) . 1_556
Al5 Al3 Ce1 64.16(4) . 1_556
Al4 Al3 Ce1 138.81(3) 7_655 1_556
Al6 Al3 Ce1 63.14(4) 1_556 1_556
Al6 Al3 Ce1 114.94(6) . 1_556
Ce1 Al3 Ce1 78.21(5) . 1_556
Fe2 Al4 Co2 0.00(3) 7_666 7_666
Fe2 Al4 Fe2 105.75(7) 7_666 7_665
Co2 Al4 Fe2 105.75(7) 7_666 7_665
Fe2 Al4 Co2 105.75(7) 7_666 7_665
Co2 Al4 Co2 105.75(7) 7_666 7_665
Fe2 Al4 Co2 0.00(4) 7_665 7_665
Fe2 Al4 Al1 59.66(4) 7_666 7_665
Co2 Al4 Al1 59.66(4) 7_666 7_665
Fe2 Al4 Al1 59.66(4) 7_665 7_665
Co2 Al4 Al1 59.66(4) 7_665 7_665
Fe2 Al4 Al2 115.53(5) 7_666 .
Co2 Al4 Al2 115.53(5) 7_666 .
Fe2 Al4 Al2 115.53(5) 7_665 .
Co2 Al4 Al2 115.53(5) 7_665 .
Al1 Al4 Al2 168.75(8) 7_665 .
Fe2 Al4 Al3 57.22(4) 7_666 7_665
Co2 Al4 Al3 57.22(4) 7_666 7_665
Fe2 Al4 Al3 57.22(4) 7_665 7_665
Co2 Al4 Al3 57.22(4) 7_665 7_665
Al1 Al4 Al3 59.41(6) 7_665 7_665
Al2 Al4 Al3 109.34(7) . 7_665
Fe2 Al4 Al9 50.39(3) 7_666 3_556
Co2 Al4 Al9 50.39(3) 7_666 3_556
Fe2 Al4 Al9 117.67(6) 7_665 3_556
Co2 Al4 Al9 117.67(6) 7_665 3_556
Al1 Al4 Al9 59.48(4) 7_665 3_556
Al2 Al4 Al9 126.76(4) . 3_556
Al3 Al4 Al9 100.62(5) 7_665 3_556
Fe2 Al4 Al9 117.67(6) 7_666 3
Co2 Al4 Al9 117.67(6) 7_666 3
Fe2 Al4 Al9 50.39(3) 7_665 3
Co2 Al4 Al9 50.39(3) 7_665 3
Al1 Al4 Al9 59.48(4) 7_665 3
Al2 Al4 Al9 126.76(4) . 3
Al3 Al4 Al9 100.62(5) 7_665 3
Al9 Al4 Al9 87.42(6) 3_556 3
Fe2 Al4 Ce1 87.78(4) 7_666 1_556
Co2 Al4 Ce1 87.78(4) 7_666 1_556
Fe2 Al4 Ce1 164.03(6) 7_665 1_556
Co2 Al4 Ce1 164.03(6) 7_665 1_556
Al1 Al4 Ce1 123.89(5) 7_665 1_556
Al2 Al4 Ce1 63.84(4) . 1_556
Al3 Al4 Ce1 138.75(3) 7_665 1_556
Al9 Al4 Ce1 64.54(3) 3_556 1_556
Al9 Al4 Ce1 115.91(6) 3 1_556
Fe2 Al4 Ce1 164.03(6) 7_666 .
Co2 Al4 Ce1 164.03(6) 7_666 .
Fe2 Al4 Ce1 87.78(4) 7_665 .
Co2 Al4 Ce1 87.78(4) 7_665 .
Al1 Al4 Ce1 123.89(5) 7_665 .
Al2 Al4 Ce1 63.84(4) . .
Al3 Al4 Ce1 138.75(3) 7_665 .
Al9 Al4 Ce1 115.91(6) 3_556 .
Al9 Al4 Ce1 64.54(3) 3 .
Ce1 Al4 Ce1 77.70(5) 1_556 .
Co2 Al1 Fe2 101.64(7) . 1_556
Co2 Al1 Co2 101.64(7) . 1_556
Fe2 Al1 Co2 0.00(3) 1_556 1_556
Co2 Al1 Al3 57.03(4) . .
Fe2 Al1 Al3 57.03(4) 1_556 .
Co2 Al1 Al3 57.03(4) 1_556 .
Co2 Al1 Al4 57.04(4) . 7_655
Fe2 Al1 Al4 57.04(4) 1_556 7_655
Co2 Al1 Al4 57.04(4) 1_556 7_655
Al3 Al1 Al4 61.08(6) . 7_655
Co2 Al1 Al9 51.42(3) . .
Fe2 Al1 Al9 119.80(6) 1_556 .
Co2 Al1 Al9 119.80(6) 1_556 .
Al3 Al1 Al9 105.13(5) . .
Al4 Al1 Al9 64.28(4) 7_655 .
Co2 Al1 Al9 119.80(6) . 1_556
Fe2 Al1 Al9 51.43(3) 1_556 1_556
Co2 Al1 Al9 51.43(3) 1_556 1_556
Al3 Al1 Al9 105.13(5) . 1_556
Al4 Al1 Al9 64.28(4) 7_655 1_556
Al9 Al1 Al9 92.56(6) . 1_556
Co2 Al1 Al6 119.38(7) . 1_556
Fe2 Al1 Al6 51.50(4) 1_556 1_556
Co2 Al1 Al6 51.50(4) 1_556 1_556
Al3 Al1 Al6 63.93(5) . 1_556
Al4 Al1 Al6 105.07(6) 7_655 1_556
Al9 Al1 Al6 168.25(7) . 1_556
Al9 Al1 Al6 86.63(4) 1_556 1_556
Co2 Al1 Al6 51.50(4) . .
Fe2 Al1 Al6 119.38(7) 1_556 .
Co2 Al1 Al6 119.38(7) 1_556 .
Al3 Al1 Al6 63.93(5) . .
Al4 Al1 Al6 105.07(6) 7_655 .
Al9 Al1 Al6 86.63(4) . .
Al9 Al1 Al6 168.25(7) 1_556 .
Al6 Al1 Al6 91.77(7) 1_556 .
Co2 Al1 Al5 112.09(5) . 3_456
Fe2 Al1 Al5 112.09(5) 1_556 3_456
Co2 Al1 Al5 112.09(5) 1_556 3_456
Al3 Al1 Al5 96.01(7) . 3_456
Al4 Al1 Al5 157.09(8) 7_655 3_456
Al9 Al1 Al5 127.53(4) . 3_456
Al9 Al1 Al5 127.53(4) 1_556 3_456
Al6 Al1 Al5 60.60(4) 1_556 3_456
Al6 Al1 Al5 60.60(4) . 3_456
Co2 Al1 Ce1 89.31(4) . 3_455
Fe2 Al1 Ce1 169.03(5) 1_556 3_455
Co2 Al1 Ce1 169.03(5) 1_556 3_455
Al3 Al1 Ce1 131.77(4) . 3_455
Al4 Al1 Ce1 131.00(4) 7_655 3_455
Al9 Al1 Ce1 66.86(3) . 3_455
Al9 Al1 Ce1 122.24(6) 1_556 3_455
Al6 Al1 Ce1 123.16(6) 1_556 3_455
Al6 Al1 Ce1 68.08(4) . 3_455
Al5 Al1 Ce1 63.32(4) 3_456 3_455
Co2 Al7 Fe1 146.45(8) . 7_655
Co2 Al7 Co1 146.45(8) . 7_655
Fe1 Al7 Co1 0.00(3) 7_655 7_655
Co2 Al7 Co1 146.06(8) . 3
Fe1 Al7 Co1 67.49(5) 7_655 3
Co1 Al7 Co1 67.49(5) 7_655 3
Co2 Al7 Fe1 146.06(8) . 3
Fe1 Al7 Fe1 67.49(5) 7_655 3
Co1 Al7 Fe1 67.49(5) 7_655 3
Co1 Al7 Fe1 0.00(3) 3 3
Co2 Al7 Al8 136.39(3) . 3_556
Fe1 Al7 Al8 52.98(3) 7_655 3_556
Co1 Al7 Al8 52.98(3) 7_655 3_556
Co1 Al7 Al8 52.99(3) 3 3_556
Fe1 Al7 Al8 52.99(3) 3 3_556
Co2 Al7 Al8 136.39(3) . 3
Fe1 Al7 Al8 52.98(3) 7_655 3
Co1 Al7 Al8 52.98(3) 7_655 3
Co1 Al7 Al8 52.99(3) 3 3
Fe1 Al7 Al8 52.99(3) 3 3
Al8 Al7 Al8 87.23(5) 3_556 3
Co1 Al6 Co2 177.91(8) . .
Co1 Al6 Al1 119.12(5) . .
Co2 Al6 Al1 59.71(4) . .
Co1 Al6 Al1 119.12(5) . 1_554
Co2 Al6 Al1 59.71(4) . 1_554
Al1 Al6 Al1 91.77(7) . 1_554
Co1 Al6 Al2 59.13(4) . 1_554
Co2 Al6 Al2 122.02(5) . 1_554
Al1 Al6 Al2 178.08(7) . 1_554
Al1 Al6 Al2 88.60(5) 1_554 1_554
Co1 Al6 Al2 59.13(4) . .
Co2 Al6 Al2 122.02(5) . .
Al1 Al6 Al2 88.60(5) . .
Al1 Al6 Al2 178.08(7) 1_554 .
Al2 Al6 Al2 90.96(7) 1_554 .
Co1 Al6 Al5 58.46(4) . 3_455
Co2 Al6 Al5 120.35(5) . 3_455
Al1 Al6 Al5 121.43(7) . 3_455
Al1 Al6 Al5 60.66(5) 1_554 3_455
Al2 Al6 Al5 57.22(5) 1_554 3_455
Al2 Al6 Al5 117.59(7) . 3_455
Co1 Al6 Al5 58.46(4) . 3_456
Co2 Al6 Al5 120.35(5) . 3_456
Al1 Al6 Al5 60.66(5) . 3_456
Al1 Al6 Al5 121.43(7) 1_554 3_456
Al2 Al6 Al5 117.59(7) 1_554 3_456
Al2 Al6 Al5 57.22(5) . 3_456
Al5 Al6 Al5 89.56(7) 3_455 3_456
Co1 Al6 Al3 125.01(5) . 1_554
Co2 Al6 Al3 56.12(4) . 1_554
Al1 Al6 Al3 115.83(7) . 1_554
Al1 Al6 Al3 56.06(5) 1_554 1_554
Al2 Al6 Al3 65.90(5) 1_554 1_554
Al2 Al6 Al3 125.37(7) . 1_554
Al5 Al6 Al3 91.29(5) 3_455 1_554
Al5 Al6 Al3 176.16(7) 3_456 1_554
Co1 Al6 Al3 125.01(5) . .
Co2 Al6 Al3 56.12(4) . .
Al1 Al6 Al3 56.06(5) . .
Al1 Al6 Al3 115.83(7) 1_554 .
Al2 Al6 Al3 125.37(7) 1_554 .
Al2 Al6 Al3 65.90(5) . .
Al5 Al6 Al3 176.16(7) 3_455 .
Al5 Al6 Al3 91.29(5) 3_456 .
Al3 Al6 Al3 87.63(7) 1_554 .
loop_
_geom_bond_atom_site_label_1
_geom_bond_atom_site_label_2
_geom_bond_distance
_geom_bond_site_symmetry_2
Ce1 Al1 3.1430(15) 3_556
Ce1 Al1 3.1430(15) 3
Ce1 Al2 3.1521(15) .
Ce1 Al2 3.1521(15) 1_554
Ce1 Al5 3.1605(15) .
Ce1 Al5 3.1605(15) 1_554
Ce1 Al3 3.1937(15) 1_554
Ce1 Al3 3.1937(15) .
Ce1 Al6 3.2048(16) .
Ce1 Al4 3.2116(15) 1_554
Ce1 Al4 3.2117(15) .
Ce1 Al9 3.2808(5) 3
Co2 Al9 2.3430(7) .
Co2 Al6 2.3554(17) .
Co2 Al7 2.4620(17) .
Co2 Al3 2.5248(14) .
Co2 Al3 2.5248(14) 1_554
Co2 Al4 2.5267(15) 7_654
Co2 Al4 2.5267(15) 7_655
Co2 Al1 2.5987(15) 1_554
Co2 Al1 2.5988(15) .
Co1 Al6 2.3359(17) .
Co1 Al8 2.4604(11) .
Co1 Al8 2.4604(11) 1_554
Co1 Al7 2.5430(18) 7_665
Co1 Al7 2.5427(17) 3_455
Co1 Al5 2.5782(14) 3_455
Co1 Al5 2.5782(14) 3_456
Co1 Al2 2.5819(14) 1_554
Co1 Al2 2.5819(14) .
Co1 Co1 2.8253(15) 5_565
Co1 Fe1 2.8253(15) 5_565
Al8 Fe1 2.4604(11) 5_566
Al8 Co1 2.4604(11) 5_566
Al8 Fe1 2.4604(11) 5_565
Al8 Fe1 2.4604(11) 1_556
Al8 Co1 2.4604(11) 1_556
Al8 Co1 2.4604(11) 5_565
Al8 Al2 2.6473(16) .
Al8 Al2 2.6473(16) 5_566
Al8 Al5 2.6564(16) 7_665
Al8 Al5 2.6564(16) 3_456
Al9 Fe2 2.3430(7) 5
Al9 Co2 2.3430(7) 5
Al9 Al1 2.7874(14) 5
Al9 Al1 2.7874(14) 5_556
Al9 Al1 2.7874(14) 1_554
Al9 Al1 2.7874(14) .
Al9 Al4 2.9152(14) 3_455
Al9 Al4 2.9152(14) 7_655
Al9 Al4 2.9152(14) 3_456
Al9 Al4 2.9152(14) 7_654
Al2 Fe1 2.5819(14) 1_556
Al2 Co1 2.5819(14) 1_556
Al2 Al4 2.691(2) .
Al2 Al5 2.723(2) 3_456
Al2 Al6 2.8253(18) .
Al2 Al6 2.8253(18) 1_556
Al2 Ce1 3.1521(15) 1_556
Al5 Fe1 2.5782(14) 3
Al5 Co1 2.5782(14) 3
Al5 Fe1 2.5782(14) 3_556
Al5 Co1 2.5782(14) 3_556
Al5 Al8 2.6565(16) 3_556
Al5 Al3 2.707(2) .
Al5 Al2 2.723(2) 3_556
Al5 Al6 2.8599(18) 3_556
Al5 Al6 2.8599(18) 3
Al5 Al1 2.861(2) 3_556
Al5 Ce1 3.1605(15) 1_556
Al3 Fe2 2.5247(14) 1_556
Al3 Co2 2.5247(14) 1_556
Al3 Al1 2.687(2) .
Al3 Al4 2.733(2) 7_655
Al3 Al6 2.9098(18) 1_556
Al3 Al6 2.9099(18) .
Al3 Ce1 3.1937(15) 1_556
Al4 Fe2 2.5267(15) 7_666
Al4 Co2 2.5267(15) 7_666
Al4 Fe2 2.5267(15) 7_665
Al4 Co2 2.5267(15) 7_665
Al4 Al1 2.690(2) 7_665
Al4 Al3 2.733(2) 7_665
Al4 Al9 2.9152(14) 3_556
Al4 Al9 2.9152(14) 3
Al4 Ce1 3.2116(15) 1_556
Al1 Fe2 2.5988(15) 1_556
Al1 Co2 2.5988(15) 1_556
Al1 Al4 2.690(2) 7_655
Al1 Al9 2.7874(14) 1_556
Al1 Al6 2.8059(17) 1_556
Al1 Al6 2.8059(17) .
Al1 Al5 2.861(2) 3_456
Al1 Ce1 3.1430(15) 3_455
Al7 Fe1 2.5430(18) 7_655
Al7 Co1 2.5430(18) 7_655
Al7 Co1 2.5426(17) 3
Al7 Fe1 2.5426(17) 3
Al7 Al8 2.9204(14) 3_556
Al7 Al8 2.9204(14) 3
Al6 Al1 2.8059(17) 1_554
Al6 Al2 2.8253(18) 1_554
Al6 Al5 2.8599(18) 3_455
Al6 Al5 2.8599(18) 3_456
Al6 Al3 2.9099(18) 1_554
