#------------------------------------------------------------------------------
#$Date: 2016-02-16 22:30:59 +0200 (Tue, 16 Feb 2016) $
#$Revision: 176467 $
#$URL: svn://www.crystallography.net/cod/cif/4/34/16/4341655.cif $
#------------------------------------------------------------------------------
#
# This file is available in the Crystallography Open Database (COD),
# http://www.crystallography.net/
#
# All data on this site have been placed in the public domain by the
# contributors.
#
data_4341655
loop_
_publ_author_name
'Clemens, Oliver'
'Kruk, Robert'
'Patterson, Eric A.'
'Loho, Christoph'
'Reitz, Christian'
'Wright, Adrian J.'
'Knight, Kevin S.'
'Hahn, Horst'
'Slater, Peter R.'
_publ_section_title
;
 Introducing a Large Polar Tetragonal Distortion into Ba-Doped BiFeO3 by
 Low-Temperature Fluorination.
;
_publ_section_keywords
;
BiFeO3; fluorination; tetragonal distortion; magnetic properties; magnetic structure
;
_journal_name_full               'Inorganic chemistry'
_journal_page_first              141110153840008
_journal_paper_doi               10.1021/ic502183t
_journal_year                    2014
_chemical_formula_iupac          'Ba0.2 Bi0.8 Fe1 O2.9'
_chemical_formula_sum            'Ba0.2 Bi0.8 Fe O2.9'
_chemical_formula_weight         296.09
_chemical_name_mineral           'bismuth barium iron oxide fluoride'
_space_group_IT_number           99
_symmetry_cell_setting           tetragonal
_symmetry_space_group_name_Hall  'P 4 -2'
_symmetry_space_group_name_H-M   'P 4 m m'
_audit_update_record
;
2014-10-20 # Formatted by publCIF

;
_cell_angle_alpha                90
_cell_angle_beta                 90
_cell_angle_gamma                90
_cell_formula_units_Z            1
_cell_length_a                   3.9853(1)
_cell_length_b                   3.9853(1)
_cell_length_c                   3.9865(1)
_cell_measurement_temperature    298
_cell_measurement_theta_max      65
_cell_measurement_theta_min      2.5
_cell_volume                     63.316(3)
_diffrn_ambient_temperature      298
_diffrn_radiation_type           'Cu K\a'
_diffrn_radiation_wavelength     1.54176
_cod_data_source_file            ic502183t_si_004.cif
_cod_data_source_block           Bi0.8Ba0.2FeO2.9
_cod_original_cell_volume        63.316(5)
_cod_original_sg_symbol_H-M      P4mm
_cod_original_formula_sum        'Ba0.2 Bi0.8 Fe1 O2.9'
_cod_database_code               4341655
loop_
_symmetry_equiv_pos_as_xyz
'x, y, z '
'-x, y, z '
'-y, -x, z '
'-y, x, z '
'y, -x, z '
'y, x, z '
'x, -y, z '
'-x, -y, z '
loop_
_atom_site_aniso_label
_atom_site_aniso_U_11
_atom_site_aniso_U_22
_atom_site_aniso_U_33
_atom_site_aniso_U_12
_atom_site_aniso_U_13
_atom_site_aniso_U_23
Bi 0.086(4) 0.086(4) 0.059(3) 0 0 0
Ba 0.086(4) 0.086(4) 0.059(3) 0 0 0
Fe 0.006(1) 0.006(1) 0.031(3) 0 0 0
O1 0.119(6) 0.119(6) 0.050(6) 0 0 0
O2 0.006(1) 0.006(1) 0.149(7) 0 0 0
loop_
_atom_site_label
_atom_site_type_symbol
_atom_site_symmetry_multiplicity
_atom_site_fract_x
_atom_site_fract_y
_atom_site_fract_z
_atom_site_occupancy
Bi Bi+3 1 0 0 -0.03(1) 0.8
Ba Ba+2 1 0 0 0.06(8) 0.2
Fe Fe+3 1 0.5 0.5 0.5 1
O1 O-2 1 0.5 0.5 -0.01(1) 0.9667
O2 O-2 2 0 0.5 0.52(1) 0.9667
