#------------------------------------------------------------------------------
#$Date: 2016-02-16 22:30:59 +0200 (Tue, 16 Feb 2016) $
#$Revision: 176467 $
#$URL: svn://www.crystallography.net/cod/cif/4/34/16/4341659.cif $
#------------------------------------------------------------------------------
#
# This file is available in the Crystallography Open Database (COD),
# http://www.crystallography.net/
#
# All data on this site have been placed in the public domain by the
# contributors.
#
data_4341659
loop_
_publ_author_name
'Treadwell, LaRico J'
'Watkins-Curry, Pilanda'
'McAlpin, Jacob D.'
'Rebar, Drew J.'
'Hebert, Jessica K.'
'DiTusa, John F.'
'Chan, Julia Y.'
_publ_section_title
;
 Investigation of Mn, Fe, and Ni Incorporation in CeCo2Al8.
;
_journal_issue                   3
_journal_name_full               'Inorganic chemistry'
_journal_page_first              963
_journal_page_last               968
_journal_paper_doi               10.1021/ic502356t
_journal_volume                  54
_journal_year                    2015
_chemical_formula_moiety         'Al8 Ce Co1.40 Ni0.60'
_chemical_formula_sum            'Al8 Ce Co1.4 Ni0.6'
_chemical_formula_weight         473.60
_chemical_name_systematic
;
 ?
;
_space_group_IT_number           55
_symmetry_cell_setting           orthorhombic
_symmetry_space_group_name_Hall  '-P 2 2ab'
_symmetry_space_group_name_H-M   'P b a m'
_atom_sites_solution_primary     direct
_atom_sites_solution_secondary   difmap
_audit_creation_method           SHELXL-97
_audit_update_record
;
2014-09-13 # Formatted by publCIF
;
_cell_angle_alpha                90.00
_cell_angle_beta                 90.00
_cell_angle_gamma                90.00
_cell_formula_units_Z            4
_cell_length_a                   12.4710(5)
_cell_length_b                   14.386(2)
_cell_length_c                   4.022(3)
_cell_measurement_temperature    293(2)
_cell_volume                     721.6(5)
_computing_cell_refinement       'Denzo and Scalepack (Otwinski & Minor 1997)'
_computing_data_collection       'Collect (Nonius 1999)'
_computing_data_reduction        'Denzo and Scalepack (Otwinski & Minor 1997)'
_computing_molecular_graphics    'Crystal Maker'
_computing_publication_material  Publcif
_computing_structure_refinement  'SHELXL-97 (Sheldrick, 2008)'
_computing_structure_solution    'Direct Methods, SIR 97'
_diffrn_ambient_temperature      293(2)
_diffrn_measured_fraction_theta_full 0.997
_diffrn_measured_fraction_theta_max 0.997
_diffrn_measurement_device_type  'Nonius Kappa CCD'
_diffrn_measurement_method       '\f and \w scans'
_diffrn_radiation_monochromator  graphite
_diffrn_radiation_source         'fine-focus sealed tube'
_diffrn_radiation_type           MoK\a
_diffrn_radiation_wavelength     0.71073
_diffrn_reflns_av_R_equivalents  0.0299
_diffrn_reflns_av_sigmaI/netI    0.0345
_diffrn_reflns_limit_h_max       17
_diffrn_reflns_limit_h_min       -17
_diffrn_reflns_limit_k_max       20
_diffrn_reflns_limit_k_min       -20
_diffrn_reflns_limit_l_max       5
_diffrn_reflns_limit_l_min       -5
_diffrn_reflns_number            2197
_diffrn_reflns_theta_full        31.01
_diffrn_reflns_theta_max         31.01
_diffrn_reflns_theta_min         2.83
_exptl_absorpt_coefficient_mu    11.737
_exptl_absorpt_correction_T_max  0.385
_exptl_absorpt_correction_T_min  0.249
_exptl_absorpt_correction_type   multi-scan
_exptl_absorpt_process_details   'HKL scalepack (Otwinski & Minor, 1997)'
_exptl_crystal_colour            silver
_exptl_crystal_density_diffrn    4.360
_exptl_crystal_density_method    'not measured'
_exptl_crystal_description       Fragment
_exptl_crystal_F_000             868
_exptl_crystal_size_max          0.19
_exptl_crystal_size_mid          0.1
_exptl_crystal_size_min          0.08
_refine_diff_density_max         1.915
_refine_diff_density_min         -1.416
_refine_diff_density_rms         0.251
_refine_ls_extinction_coef       0.0050(3)
_refine_ls_extinction_expression Fc^*^=kFc[1+0.001xFc^2^\l^3^/sin(2\q)]^-1/4^
_refine_ls_extinction_method     SHELXL
_refine_ls_goodness_of_fit_ref   1.015
_refine_ls_matrix_type           full
_refine_ls_number_parameters     72
_refine_ls_number_reflns         1297
_refine_ls_number_restraints     0
_refine_ls_restrained_S_all      1.015
_refine_ls_R_factor_all          0.0417
_refine_ls_R_factor_gt           0.0290
_refine_ls_shift/su_max          0.001
_refine_ls_shift/su_mean         0.000
_refine_ls_structure_factor_coef Fsqd
_refine_ls_weighting_details
'calc w=1/[\s^2^(Fo^2^)+(0.0382P)^2^+0.7057P] where P=(Fo^2^+2Fc^2^)/3'
_refine_ls_weighting_scheme      calc
_refine_ls_wR_factor_gt          0.0659
_refine_ls_wR_factor_ref         0.0719
_reflns_number_gt                1053
_reflns_number_total             1297
_reflns_threshold_expression     >2\s(I)
_cod_data_source_file            ic502356t_si_010.cif
_cod_data_source_block           shelxl
_cod_depositor_comments
;
The following automatic conversions were performed:

'_symmetry_cell_setting' value 'Orthorhombic' changed to
'orthorhombic' according to
/home/saulius/struct/COD-crude-data--automatic-downloads/rss-feeds/ACS/lib/dictionaries/cif_core.dic
dictionary named 'cif_core.dic' version 2.4.2 from
2011-04-26.

'_exptl_absorpt_correction_type' value 'Multi-scan'
changed to 'multi-scan' according to
/home/saulius/struct/COD-crude-data--automatic-downloads/rss-feeds/ACS/lib/dictionaries/cif_core.dic
dictionary named 'cif_core.dic' version 2.4.2 from 2011-04-26.

Automatic conversion script
Id: cif_fix_values 2935 2014-11-11 08:27:57Z andrius 

 Adding full bibliography for 4341656--4341665.cif.
;
_cod_original_sg_symbol_H-M      Pbam
_cod_original_formula_sum        'Al8 Ce Co1.40 Ni0.60'
_cod_database_code               4341659
loop_
_symmetry_equiv_pos_as_xyz
'x, y, z'
'-x, -y, z'
'x+1/2, -y+1/2, -z'
'-x+1/2, y+1/2, -z'
'-x, -y, -z'
'x, y, -z'
'-x-1/2, y-1/2, z'
'x-1/2, -y-1/2, z'
loop_
_atom_site_label
_atom_site_type_symbol
_atom_site_fract_x
_atom_site_fract_y
_atom_site_fract_z
_atom_site_U_iso_or_equiv
_atom_site_adp_type
_atom_site_occupancy
_atom_site_symmetry_multiplicity
_atom_site_calc_flag
_atom_site_refinement_flags
Ce1 Ce 0.34035(2) 0.31849(2) 0.0000 0.01152(11) Uani 1 2 d S
Co2 Co 0.15185(5) 0.09639(5) 0.0000 0.0089(3) Uani 0.89(8) 2 d SP
Ni2 Ni 0.15185(5) 0.09639(5) 0.0000 0.0089(3) Uani 0.11(8) 2 d SP
Co1 Co 0.03469(5) 0.40569(5) 0.0000 0.0100(2) Uani 0.4858(17) 2 d SP
Ni1 Ni 0.03469(5) 0.40569(5) 0.0000 0.0100(2) Uani 0.4858(17) 2 d SP
Al8 Al 0.0000 0.5000 0.5000 0.0110(4) Uani 1 4 d S
Al9 Al 0.0000 0.0000 0.0000 0.0111(4) Uani 1 4 d S
Al2 Al 0.15972(12) 0.37922(12) 0.5000 0.0107(3) Uani 1 2 d S
Al5 Al 0.45256(13) 0.17966(11) 0.5000 0.0109(3) Uani 1 2 d S
Al3 Al 0.23631(13) 0.17248(11) 0.5000 0.0110(3) Uani 1 2 d S
Al4 Al 0.33148(13) 0.49133(11) 0.5000 0.0109(3) Uani 1 2 d S
Al1 Al 0.02525(13) 0.13192(11) 0.5000 0.0109(3) Uani 1 2 d S
Al7 Al 0.33977(12) 0.04458(12) 0.0000 0.0122(3) Uani 1 2 d S
Al6 Al 0.09608(12) 0.25288(11) 0.0000 0.0110(3) Uani 1 2 d S
loop_
_atom_site_aniso_label
_atom_site_aniso_U_11
_atom_site_aniso_U_22
_atom_site_aniso_U_33
_atom_site_aniso_U_23
_atom_site_aniso_U_13
_atom_site_aniso_U_12
Ce1 0.01072(17) 0.01428(17) 0.00958(16) 0.000 0.000 -0.00112(11)
Co2 0.0094(4) 0.0084(4) 0.0088(4) 0.000 0.000 0.0005(3)
Ni2 0.0094(4) 0.0084(4) 0.0088(4) 0.000 0.000 0.0005(3)
Co1 0.0107(4) 0.0094(4) 0.0100(4) 0.000 0.000 0.0009(3)
Ni1 0.0107(4) 0.0094(4) 0.0100(4) 0.000 0.000 0.0009(3)
Al8 0.0138(11) 0.0091(10) 0.0102(10) 0.000 0.000 0.0013(8)
Al9 0.0106(10) 0.0099(10) 0.0128(10) 0.000 0.000 -0.0011(8)
Al2 0.0086(7) 0.0121(7) 0.0115(7) 0.000 0.000 -0.0008(6)
Al5 0.0107(7) 0.0102(7) 0.0117(7) 0.000 0.000 0.0003(6)
Al3 0.0102(7) 0.0112(8) 0.0117(7) 0.000 0.000 -0.0015(6)
Al4 0.0119(7) 0.0098(7) 0.0109(7) 0.000 0.000 -0.0013(6)
Al1 0.0105(7) 0.0115(7) 0.0106(7) 0.000 0.000 0.0012(6)
Al7 0.0087(7) 0.0139(8) 0.0139(8) 0.000 0.000 0.0022(6)
Al6 0.0126(8) 0.0086(7) 0.0119(7) 0.000 0.000 0.0001(6)
loop_
_atom_type_symbol
_atom_type_description
_atom_type_scat_dispersion_real
_atom_type_scat_dispersion_imag
_atom_type_scat_source
Ce Ce -0.2486 2.6331 'International Tables Vol C Tables 4.2.6.8 and 6.1.1.4'
Co Co 0.3494 0.9721 'International Tables Vol C Tables 4.2.6.8 and 6.1.1.4'
Ni Ni 0.3393 1.1124 'International Tables Vol C Tables 4.2.6.8 and 6.1.1.4'
Al Al 0.0645 0.0514 'International Tables Vol C Tables 4.2.6.8 and 6.1.1.4'
loop_
_geom_angle_atom_site_label_1
_geom_angle_atom_site_label_2
_geom_angle_atom_site_label_3
_geom_angle
_geom_angle_site_symmetry_1
_geom_angle_site_symmetry_3
Al1 Ce1 Al1 79.60(6) 3_556 3
Al1 Ce1 Al2 150.73(5) 3_556 1_554
Al1 Ce1 Al2 93.06(5) 3 1_554
Al1 Ce1 Al2 93.06(5) 3_556 .
Al1 Ce1 Al2 150.73(5) 3 .
Al2 Ce1 Al2 79.54(6) 1_554 .
Al1 Ce1 Al5 53.94(4) 3_556 .
Al1 Ce1 Al5 103.05(5) 3 .
Al2 Ce1 Al5 154.14(4) 1_554 .
Al2 Ce1 Al5 94.92(5) . .
Al1 Ce1 Al5 103.05(5) 3_556 1_554
Al1 Ce1 Al5 53.94(4) 3 1_554
Al2 Ce1 Al5 94.92(5) 1_554 1_554
Al2 Ce1 Al5 154.14(4) . 1_554
Al5 Ce1 Al5 79.02(6) . 1_554
Al1 Ce1 Al3 148.55(4) 3_556 1_554
Al1 Ce1 Al3 92.56(5) 3 1_554
Al2 Ce1 Al3 59.16(4) 1_554 1_554
Al2 Ce1 Al3 107.18(5) . 1_554
Al5 Ce1 Al3 99.52(5) . 1_554
Al5 Ce1 Al3 50.34(4) 1_554 1_554
Al1 Ce1 Al3 92.56(5) 3_556 .
Al1 Ce1 Al3 148.55(4) 3 .
Al2 Ce1 Al3 107.18(5) 1_554 .
Al2 Ce1 Al3 59.16(4) . .
Al5 Ce1 Al3 50.34(4) . .
Al5 Ce1 Al3 99.52(5) 1_554 .
Al3 Ce1 Al3 78.33(6) 1_554 .
Al1 Ce1 Al6 140.20(3) 3_556 .
Al1 Ce1 Al6 140.20(3) 3 .
Al2 Ce1 Al6 52.97(3) 1_554 .
Al2 Ce1 Al6 52.97(3) . .
Al5 Ce1 Al6 103.64(4) . .
Al5 Ce1 Al6 103.64(4) 1_554 .
Al3 Ce1 Al6 54.24(3) 1_554 .
Al3 Ce1 Al6 54.24(3) . .
Al1 Ce1 Al4 56.40(4) 3_556 .
Al1 Ce1 Al4 104.55(5) 3 .
Al2 Ce1 Al4 99.28(5) 1_554 .
Al2 Ce1 Al4 50.00(4) . .
Al5 Ce1 Al4 96.11(5) . .
Al5 Ce1 Al4 154.98(4) 1_554 .
Al3 Ce1 Al4 153.56(4) 1_554 .
Al3 Ce1 Al4 95.83(5) . .
Al6 Ce1 Al4 101.36(4) . .
Al1 Ce1 Al4 104.55(5) 3_556 1_554
Al1 Ce1 Al4 56.40(4) 3 1_554
Al2 Ce1 Al4 50.00(4) 1_554 1_554
Al2 Ce1 Al4 99.28(5) . 1_554
Al5 Ce1 Al4 154.98(4) . 1_554
Al5 Ce1 Al4 96.11(5) 1_554 1_554
Al3 Ce1 Al4 95.83(5) 1_554 1_554
Al3 Ce1 Al4 153.56(4) . 1_554
Al6 Ce1 Al4 101.36(4) . 1_554
Al4 Ce1 Al4 77.88(6) . 1_554
Al1 Ce1 Al9 51.27(3) 3_556 3
Al1 Ce1 Al9 51.27(3) 3 3
Al2 Ce1 Al9 102.33(3) 1_554 3
Al2 Ce1 Al9 102.33(3) . 3
Al5 Ce1 Al9 103.53(3) . 3
Al5 Ce1 Al9 103.53(3) 1_554 3
Al3 Ce1 Al9 140.50(3) 1_554 3
Al3 Ce1 Al9 140.50(3) . 3
Al6 Ce1 Al9 144.54(3) . 3
Al4 Ce1 Al9 53.35(3) . 3
Al4 Ce1 Al9 53.35(3) 1_554 3
Al9 Co2 Al6 109.05(5) . .
Al9 Co2 Al7 126.15(5) . .
Al6 Co2 Al7 124.81(6) . .
Al9 Co2 Al3 126.43(4) . .
Al6 Co2 Al3 73.04(5) . .
Al7 Co2 Al3 74.54(5) . .
Al9 Co2 Al3 126.43(4) . 1_554
Al6 Co2 Al3 73.04(5) . 1_554
Al7 Co2 Al3 74.54(5) . 1_554
Al3 Co2 Al3 105.86(8) . 1_554
Al9 Co2 Al4 73.30(4) . 7_654
Al6 Co2 Al4 126.61(4) . 7_654
Al7 Co2 Al4 74.93(5) . 7_654
Al3 Co2 Al4 149.47(6) . 7_654
Al3 Co2 Al4 65.79(6) 1_554 7_654
Al9 Co2 Al4 73.30(4) . 7_655
Al6 Co2 Al4 126.61(4) . 7_655
Al7 Co2 Al4 74.93(5) . 7_655
Al3 Co2 Al4 65.79(6) . 7_655
Al3 Co2 Al4 149.47(6) 1_554 7_655
Al4 Co2 Al4 105.63(8) 7_654 7_655
Al9 Co2 Al1 68.12(4) . 1_554
Al6 Co2 Al1 68.53(4) . 1_554
Al7 Co2 Al1 129.53(4) . 1_554
Al3 Co2 Al1 141.57(6) . 1_554
Al3 Co2 Al1 63.41(6) 1_554 1_554
Al4 Co2 Al1 63.43(6) 7_654 1_554
Al4 Co2 Al1 141.42(6) 7_655 1_554
Al9 Co2 Al1 68.12(4) . .
Al6 Co2 Al1 68.53(4) . .
Al7 Co2 Al1 129.53(4) . .
Al3 Co2 Al1 63.41(6) . .
Al3 Co2 Al1 141.57(6) 1_554 .
Al4 Co2 Al1 141.42(6) 7_654 .
Al4 Co2 Al1 63.43(6) 7_655 .
Al1 Co2 Al1 100.94(7) 1_554 .
Al6 Co1 Al8 125.29(2) . .
Al6 Co1 Al8 125.29(2) . 1_554
Al8 Co1 Al8 109.39(5) . 1_554
Al6 Co1 Al7 125.60(6) . 3_455
Al8 Co1 Al7 71.10(3) . 3_455
Al8 Co1 Al7 71.10(3) 1_554 3_455
Al6 Co1 Al7 122.72(6) . 7_665
Al8 Co1 Al7 71.03(3) . 7_665
Al8 Co1 Al7 71.03(3) 1_554 7_665
Al7 Co1 Al7 111.68(5) 3_455 7_665
Al6 Co1 Al5 71.32(5) . 3_455
Al8 Co1 Al5 146.30(5) . 3_455
Al8 Co1 Al5 63.53(5) 1_554 3_455
Al7 Co1 Al5 75.67(5) 3_455 3_455
Al7 Co1 Al5 128.47(4) 7_665 3_455
Al6 Co1 Al5 71.32(5) . 3_456
Al8 Co1 Al5 63.53(5) . 3_456
Al8 Co1 Al5 146.30(5) 1_554 3_456
Al7 Co1 Al5 75.67(5) 3_455 3_456
Al7 Co1 Al5 128.47(4) 7_665 3_456
Al5 Co1 Al5 103.02(7) 3_455 3_456
Al6 Co1 Al2 70.18(5) . .
Al8 Co1 Al2 63.26(5) . .
Al8 Co1 Al2 145.67(5) 1_554 .
Al7 Co1 Al2 128.54(4) 3_455 .
Al7 Co1 Al2 75.09(5) 7_665 .
Al5 Co1 Al2 141.50(6) 3_455 .
Al5 Co1 Al2 63.84(6) 3_456 .
Al6 Co1 Al2 70.18(5) . 1_554
Al8 Co1 Al2 145.67(5) . 1_554
Al8 Co1 Al2 63.26(5) 1_554 1_554
Al7 Co1 Al2 128.54(4) 3_455 1_554
Al7 Co1 Al2 75.09(5) 7_665 1_554
Al5 Co1 Al2 63.84(5) 3_455 1_554
Al5 Co1 Al2 141.50(6) 3_456 1_554
Al2 Co1 Al2 102.81(7) . 1_554
Al6 Co1 Ni1 178.49(6) . 5_565
Al8 Co1 Ni1 54.70(2) . 5_565
Al8 Co1 Ni1 54.70(2) 1_554 5_565
Al7 Co1 Ni1 55.91(4) 3_455 5_565
Al7 Co1 Ni1 55.77(4) 7_665 5_565
Al5 Co1 Ni1 109.52(4) 3_455 5_565
Al5 Co1 Ni1 109.52(4) 3_456 5_565
Al2 Co1 Ni1 108.97(5) . 5_565
Al2 Co1 Ni1 108.97(5) 1_554 5_565
Al6 Co1 Co1 178.49(6) . 5_565
Al8 Co1 Co1 54.70(2) . 5_565
Al8 Co1 Co1 54.70(2) 1_554 5_565
Al7 Co1 Co1 55.91(4) 3_455 5_565
Al7 Co1 Co1 55.77(4) 7_665 5_565
Al5 Co1 Co1 109.52(4) 3_455 5_565
Al5 Co1 Co1 109.52(4) 3_456 5_565
Al2 Co1 Co1 108.97(5) . 5_565
Al2 Co1 Co1 108.97(5) 1_554 5_565
Ni1 Co1 Co1 0.00(3) 5_565 5_565
Ni1 Al8 Co1 0.00(3) 5_566 5_566
Ni1 Al8 Co1 180.0 5_566 .
Co1 Al8 Co1 180.0 5_566 .
Ni1 Al8 Ni1 109.39(5) 5_566 5_565
Co1 Al8 Ni1 109.39(5) 5_566 5_565
Co1 Al8 Ni1 70.61(5) . 5_565
Ni1 Al8 Co1 109.39(5) 5_566 5_565
Co1 Al8 Co1 109.39(5) 5_566 5_565
Co1 Al8 Co1 70.61(5) . 5_565
Ni1 Al8 Co1 0.00(4) 5_565 5_565
Ni1 Al8 Co1 70.61(5) 5_566 1_556
Co1 Al8 Co1 70.61(5) 5_566 1_556
Co1 Al8 Co1 109.39(5) . 1_556
Ni1 Al8 Co1 180.00(3) 5_565 1_556
Co1 Al8 Co1 180.00(3) 5_565 1_556
Ni1 Al8 Ni1 70.61(5) 5_566 1_556
Co1 Al8 Ni1 70.61(5) 5_566 1_556
Co1 Al8 Ni1 109.39(5) . 1_556
Ni1 Al8 Ni1 180.00(3) 5_565 1_556
Co1 Al8 Ni1 180.00(3) 5_565 1_556
Co1 Al8 Ni1 0.00(3) 1_556 1_556
Ni1 Al8 Al2 119.62(2) 5_566 .
Co1 Al8 Al2 119.62(2) 5_566 .
Co1 Al8 Al2 60.38(2) . .
Ni1 Al8 Al2 119.62(2) 5_565 .
Co1 Al8 Al2 119.62(2) 5_565 .
Co1 Al8 Al2 60.38(2) 1_556 .
Ni1 Al8 Al2 60.38(2) 1_556 .
Ni1 Al8 Al2 60.38(2) 5_566 5_566
Co1 Al8 Al2 60.38(2) 5_566 5_566
Co1 Al8 Al2 119.62(2) . 5_566
Ni1 Al8 Al2 60.38(2) 5_565 5_566
Co1 Al8 Al2 60.38(2) 5_565 5_566
Co1 Al8 Al2 119.62(2) 1_556 5_566
Ni1 Al8 Al2 119.62(2) 1_556 5_566
Al2 Al8 Al2 180.0 . 5_566
Ni1 Al8 Al5 60.16(3) 5_566 7_665
Co1 Al8 Al5 60.16(3) 5_566 7_665
Co1 Al8 Al5 119.84(3) . 7_665
Ni1 Al8 Al5 60.16(3) 5_565 7_665
Co1 Al8 Al5 60.16(3) 5_565 7_665
Co1 Al8 Al5 119.84(3) 1_556 7_665
Ni1 Al8 Al5 119.84(3) 1_556 7_665
Al2 Al8 Al5 118.20(5) . 7_665
Al2 Al8 Al5 61.80(5) 5_566 7_665
Ni1 Al8 Al5 119.84(3) 5_566 3_456
Co1 Al8 Al5 119.84(3) 5_566 3_456
Co1 Al8 Al5 60.16(3) . 3_456
Ni1 Al8 Al5 119.84(3) 5_565 3_456
Co1 Al8 Al5 119.84(3) 5_565 3_456
Co1 Al8 Al5 60.16(3) 1_556 3_456
Ni1 Al8 Al5 60.16(3) 1_556 3_456
Al2 Al8 Al5 61.80(5) . 3_456
Al2 Al8 Al5 118.20(5) 5_566 3_456
Al5 Al8 Al5 180.0 7_665 3_456
Ni2 Al9 Co2 0.00(3) 5 5
Ni2 Al9 Co2 180.00(3) 5 .
Co2 Al9 Co2 180.00(3) 5 .
Ni2 Al9 Al1 60.39(3) 5 5
Co2 Al9 Al1 60.39(3) 5 5
Co2 Al9 Al1 119.61(3) . 5
Ni2 Al9 Al1 119.61(3) 5 .
Co2 Al9 Al1 119.61(3) 5 .
Co2 Al9 Al1 60.39(3) . .
Al1 Al9 Al1 180.00(8) 5 .
Ni2 Al9 Al1 60.39(3) 5 5_556
Co2 Al9 Al1 60.39(3) 5 5_556
Co2 Al9 Al1 119.61(3) . 5_556
Al1 Al9 Al1 92.54(6) 5 5_556
Al1 Al9 Al1 87.46(6) . 5_556
Ni2 Al9 Al1 119.61(3) 5 1_554
Co2 Al9 Al1 119.61(3) 5 1_554
Co2 Al9 Al1 60.39(3) . 1_554
Al1 Al9 Al1 87.46(6) 5 1_554
Al1 Al9 Al1 92.54(6) . 1_554
Al1 Al9 Al1 180.00(8) 5_556 1_554
Ni2 Al9 Al4 123.85(3) 5 7_655
Co2 Al9 Al4 123.85(3) 5 7_655
Co2 Al9 Al4 56.15(3) . 7_655
Al1 Al9 Al4 123.48(5) 5 7_655
Al1 Al9 Al4 56.52(5) . 7_655
Al1 Al9 Al4 63.47(5) 5_556 7_655
Al1 Al9 Al4 116.53(5) 1_554 7_655
Ni2 Al9 Al4 56.15(3) 5 3_455
Co2 Al9 Al4 56.15(3) 5 3_455
Co2 Al9 Al4 123.85(3) . 3_455
Al1 Al9 Al4 56.52(5) 5 3_455
Al1 Al9 Al4 123.48(5) . 3_455
Al1 Al9 Al4 116.53(5) 5_556 3_455
Al1 Al9 Al4 63.47(5) 1_554 3_455
Al4 Al9 Al4 180.00(8) 7_655 3_455
Ni2 Al9 Al4 123.85(3) 5 7_654
Co2 Al9 Al4 123.85(3) 5 7_654
Co2 Al9 Al4 56.15(3) . 7_654
Al1 Al9 Al4 63.47(5) 5 7_654
Al1 Al9 Al4 116.53(5) . 7_654
Al1 Al9 Al4 123.48(5) 5_556 7_654
Al1 Al9 Al4 56.52(5) 1_554 7_654
Al4 Al9 Al4 87.38(6) 7_655 7_654
Al4 Al9 Al4 92.62(6) 3_455 7_654
Ni2 Al9 Al4 56.15(3) 5 3_456
Co2 Al9 Al4 56.15(3) 5 3_456
Co2 Al9 Al4 123.85(3) . 3_456
Al1 Al9 Al4 116.53(5) 5 3_456
Al1 Al9 Al4 63.47(5) . 3_456
Al1 Al9 Al4 56.52(5) 5_556 3_456
Al1 Al9 Al4 123.48(5) 1_554 3_456
Al4 Al9 Al4 92.62(6) 7_655 3_456
Al4 Al9 Al4 87.38(6) 3_455 3_456
Al4 Al9 Al4 180.00(4) 7_654 3_456
Co1 Al2 Ni1 102.81(7) . 1_556
Co1 Al2 Co1 102.81(7) . 1_556
Ni1 Al2 Co1 0.00(2) 1_556 1_556
Co1 Al2 Al8 56.36(4) . .
Ni1 Al2 Al8 56.36(4) 1_556 .
Co1 Al2 Al8 56.36(4) 1_556 .
Co1 Al2 Al4 113.27(5) . .
Ni1 Al2 Al4 113.27(5) 1_556 .
Co1 Al2 Al4 113.27(5) 1_556 .
Al8 Al2 Al4 101.93(7) . .
Co1 Al2 Al5 58.01(4) . 3_456
Ni1 Al2 Al5 58.01(4) 1_556 3_456
Co1 Al2 Al5 58.01(4) 1_556 3_456
Al8 Al2 Al5 59.25(5) . 3_456
Al4 Al2 Al5 161.18(9) . 3_456
Co1 Al2 Al6 50.84(4) . .
Ni1 Al2 Al6 118.78(7) 1_556 .
Co1 Al2 Al6 118.78(7) 1_556 .
Al8 Al2 Al6 102.20(5) . .
Al4 Al2 Al6 127.70(5) . .
Al5 Al2 Al6 62.13(5) 3_456 .
Co1 Al2 Al6 118.78(7) . 1_556
Ni1 Al2 Al6 50.84(4) 1_556 1_556
Co1 Al2 Al6 50.84(4) 1_556 1_556
Al8 Al2 Al6 102.20(5) . 1_556
Al4 Al2 Al6 127.70(5) . 1_556
Al5 Al2 Al6 62.13(5) 3_456 1_556
Al6 Al2 Al6 90.80(8) . 1_556
Co1 Al2 Ce1 167.26(5) . 1_556
Ni1 Al2 Ce1 88.59(4) 1_556 1_556
Co1 Al2 Ce1 88.59(4) 1_556 1_556
Al8 Al2 Ce1 136.28(4) . 1_556
Al4 Al2 Ce1 66.09(4) . 1_556
Al5 Al2 Ce1 126.47(5) 3_456 1_556
Al6 Al2 Ce1 118.55(7) . 1_556
Al6 Al2 Ce1 64.34(4) 1_556 1_556
Co1 Al2 Ce1 88.59(4) . .
Ni1 Al2 Ce1 167.26(5) 1_556 .
Co1 Al2 Ce1 167.26(5) 1_556 .
Al8 Al2 Ce1 136.28(4) . .
Al4 Al2 Ce1 66.09(4) . .
Al5 Al2 Ce1 126.47(5) 3_456 .
Al6 Al2 Ce1 64.34(4) . .
Al6 Al2 Ce1 118.55(7) 1_556 .
Ce1 Al2 Ce1 79.54(6) 1_556 .
Ni1 Al5 Co1 0.00(4) 3 3
Ni1 Al5 Ni1 103.02(7) 3 3_556
Co1 Al5 Ni1 103.02(7) 3 3_556
Ni1 Al5 Co1 103.02(7) 3 3_556
Co1 Al5 Co1 103.02(7) 3 3_556
Ni1 Al5 Co1 0.00(3) 3_556 3_556
Ni1 Al5 Al8 56.30(4) 3 3_556
Co1 Al5 Al8 56.30(4) 3 3_556
Ni1 Al5 Al8 56.30(4) 3_556 3_556
Co1 Al5 Al8 56.30(4) 3_556 3_556
Ni1 Al5 Al3 112.34(5) 3 .
Co1 Al5 Al3 112.34(5) 3 .
Ni1 Al5 Al3 112.34(5) 3_556 .
Co1 Al5 Al3 112.34(5) 3_556 .
Al8 Al5 Al3 100.70(6) 3_556 .
Ni1 Al5 Al2 58.15(4) 3 3_556
Co1 Al5 Al2 58.15(4) 3 3_556
Ni1 Al5 Al2 58.15(4) 3_556 3_556
Co1 Al5 Al2 58.15(4) 3_556 3_556
Al8 Al5 Al2 58.95(5) 3_556 3_556
Al3 Al5 Al2 159.65(8) . 3_556
Ni1 Al5 Al1 109.07(5) 3 3_556
Co1 Al5 Al1 109.07(5) 3 3_556
Ni1 Al5 Al1 109.07(5) 3_556 3_556
Co1 Al5 Al1 109.07(5) 3_556 3_556
Al8 Al5 Al1 148.61(7) 3_556 3_556
Al3 Al5 Al1 110.69(7) . 3_556
Al2 Al5 Al1 89.66(7) 3_556 3_556
Ni1 Al5 Al6 117.56(7) 3 3_556
Co1 Al5 Al6 117.56(7) 3 3_556
Ni1 Al5 Al6 50.41(4) 3_556 3_556
Co1 Al5 Al6 50.41(4) 3_556 3_556
Al8 Al5 Al6 101.01(5) 3_556 3_556
Al3 Al5 Al6 129.64(5) . 3_556
Al2 Al5 Al6 60.75(5) 3_556 3_556
Al1 Al5 Al6 58.67(5) 3_556 3_556
Ni1 Al5 Al6 50.41(4) 3 3
Co1 Al5 Al6 50.41(4) 3 3
Ni1 Al5 Al6 117.56(7) 3_556 3
Co1 Al5 Al6 117.56(7) 3_556 3
Al8 Al5 Al6 101.01(5) 3_556 3
Al3 Al5 Al6 129.64(5) . 3
Al2 Al5 Al6 60.75(5) 3_556 3
Al1 Al5 Al6 58.67(5) 3_556 3
Al6 Al5 Al6 89.29(8) 3_556 3
Ni1 Al5 Ce1 167.54(5) 3 1_556
Co1 Al5 Ce1 167.54(5) 3 1_556
Ni1 Al5 Ce1 88.88(4) 3_556 1_556
Co1 Al5 Ce1 88.88(4) 3_556 1_556
Al8 Al5 Ce1 135.62(4) 3_556 1_556
Al3 Al5 Ce1 65.28(4) . 1_556
Al2 Al5 Ce1 128.14(5) 3_556 1_556
Al1 Al5 Ce1 62.69(4) 3_556 1_556
Al6 Al5 Ce1 67.39(4) 3_556 1_556
Al6 Al5 Ce1 120.64(6) 3 1_556
Ni1 Al5 Ce1 88.88(4) 3 .
Co1 Al5 Ce1 88.88(4) 3 .
Ni1 Al5 Ce1 167.54(5) 3_556 .
Co1 Al5 Ce1 167.54(5) 3_556 .
Al8 Al5 Ce1 135.62(4) 3_556 .
Al3 Al5 Ce1 65.28(4) . .
Al2 Al5 Ce1 128.14(5) 3_556 .
Al1 Al5 Ce1 62.69(4) 3_556 .
Al6 Al5 Ce1 120.64(6) 3_556 .
Al6 Al5 Ce1 67.39(4) 3 .
Ce1 Al5 Ce1 79.02(6) 1_556 .
Co2 Al3 Ni2 105.86(8) . 1_556
Co2 Al3 Co2 105.86(8) . 1_556
Ni2 Al3 Co2 0.00(4) 1_556 1_556
Co2 Al3 Al1 59.87(4) . .
Ni2 Al3 Al1 59.87(4) 1_556 .
Co2 Al3 Al1 59.87(4) 1_556 .
Co2 Al3 Al5 115.74(5) . .
Ni2 Al3 Al5 115.74(5) 1_556 .
Co2 Al3 Al5 115.74(5) 1_556 .
Al1 Al3 Al5 169.69(8) . .
Co2 Al3 Al4 57.17(4) . 7_655
Ni2 Al3 Al4 57.17(4) 1_556 7_655
Co2 Al3 Al4 57.17(4) 1_556 7_655
Al1 Al3 Al4 59.53(6) . 7_655
Al5 Al3 Al4 110.17(7) . 7_655
Co2 Al3 Al6 50.88(4) . .
Ni2 Al3 Al6 118.27(7) 1_556 .
Co2 Al3 Al6 118.27(7) 1_556 .
Al1 Al3 Al6 59.90(5) . .
Al5 Al3 Al6 125.89(5) . .
Al4 Al3 Al6 101.13(6) 7_655 .
Co2 Al3 Al6 118.27(7) . 1_556
Ni2 Al3 Al6 50.88(4) 1_556 1_556
Co2 Al3 Al6 50.88(4) 1_556 1_556
Al1 Al3 Al6 59.90(5) . 1_556
Al5 Al3 Al6 125.89(5) . 1_556
Al4 Al3 Al6 101.13(6) 7_655 1_556
Al6 Al3 Al6 87.61(7) . 1_556
Co2 Al3 Ce1 163.89(5) . 1_556
Ni2 Al3 Ce1 87.30(4) 1_556 1_556
Co2 Al3 Ce1 87.30(4) 1_556 1_556
Al1 Al3 Ce1 122.72(5) . 1_556
Al5 Al3 Ce1 64.38(4) . 1_556
Al4 Al3 Ce1 138.87(3) 7_655 1_556
Al6 Al3 Ce1 114.82(6) . 1_556
Al6 Al3 Ce1 62.97(4) 1_556 1_556
Co2 Al3 Ce1 87.30(4) . .
Ni2 Al3 Ce1 163.89(5) 1_556 .
Co2 Al3 Ce1 163.89(5) 1_556 .
Al1 Al3 Ce1 122.72(5) . .
Al5 Al3 Ce1 64.38(4) . .
Al4 Al3 Ce1 138.87(3) 7_655 .
Al6 Al3 Ce1 62.97(4) . .
Al6 Al3 Ce1 114.82(6) 1_556 .
Ce1 Al3 Ce1 78.33(6) 1_556 .
Ni2 Al4 Co2 0.0 7_666 7_666
Ni2 Al4 Ni2 105.63(8) 7_666 7_665
Co2 Al4 Ni2 105.63(8) 7_666 7_665
Ni2 Al4 Co2 105.63(8) 7_666 7_665
Co2 Al4 Co2 105.63(8) 7_666 7_665
Ni2 Al4 Co2 0.00(3) 7_665 7_665
Ni2 Al4 Al2 115.21(5) 7_666 .
Co2 Al4 Al2 115.21(5) 7_666 .
Ni2 Al4 Al2 115.21(5) 7_665 .
Co2 Al4 Al2 115.21(5) 7_665 .
Ni2 Al4 Al1 59.78(4) 7_666 7_665
Co2 Al4 Al1 59.78(4) 7_666 7_665
Ni2 Al4 Al1 59.78(4) 7_665 7_665
Co2 Al4 Al1 59.78(4) 7_665 7_665
Al2 Al4 Al1 168.43(9) . 7_665
Ni2 Al4 Al3 57.04(4) 7_666 7_665
Co2 Al4 Al3 57.04(4) 7_666 7_665
Ni2 Al4 Al3 57.04(4) 7_665 7_665
Co2 Al4 Al3 57.04(4) 7_665 7_665
Al2 Al4 Al3 109.00(7) . 7_665
Al1 Al4 Al3 59.43(6) 7_665 7_665
Ni2 Al4 Al9 50.55(3) 7_666 3_556
Co2 Al4 Al9 50.55(3) 7_666 3_556
Ni2 Al4 Al9 117.72(6) 7_665 3_556
Co2 Al4 Al9 117.72(6) 7_665 3_556
Al2 Al4 Al9 127.05(4) . 3_556
Al1 Al4 Al9 59.34(4) 7_665 3_556
Al3 Al4 Al9 100.49(5) 7_665 3_556
Ni2 Al4 Al9 117.72(6) 7_666 3
Co2 Al4 Al9 117.72(6) 7_666 3
Ni2 Al4 Al9 50.55(3) 7_665 3
Co2 Al4 Al9 50.55(3) 7_665 3
Al2 Al4 Al9 127.05(4) . 3
Al1 Al4 Al9 59.34(4) 7_665 3
Al3 Al4 Al9 100.49(5) 7_665 3
Al9 Al4 Al9 87.38(6) 3_556 3
Ni2 Al4 Al1 106.73(5) 7_666 3_556
Co2 Al4 Al1 106.73(5) 7_666 3_556
Ni2 Al4 Al1 106.73(5) 7_665 3_556
Co2 Al4 Al1 106.73(5) 7_665 3_556
Al2 Al4 Al1 106.76(7) . 3_556
Al1 Al4 Al1 84.81(6) 7_665 3_556
Al3 Al4 Al1 144.24(7) 7_665 3_556
Al9 Al4 Al1 56.18(3) 3_556 3_556
Al9 Al4 Al1 56.18(3) 3 3_556
Ni2 Al4 Ce1 164.39(5) 7_666 .
Co2 Al4 Ce1 164.39(5) 7_666 .
Ni2 Al4 Ce1 87.81(5) 7_665 .
Co2 Al4 Ce1 87.81(5) 7_665 .
Al2 Al4 Ce1 63.91(4) . .
Al1 Al4 Ce1 124.02(5) 7_665 .
Al3 Al4 Ce1 138.57(3) 7_665 .
Al9 Al4 Ce1 116.26(6) 3_556 .
Al9 Al4 Ce1 64.80(3) 3 .
Al1 Al4 Ce1 60.82(4) 3_556 .
Ni2 Al4 Ce1 87.81(5) 7_666 1_556
Co2 Al4 Ce1 87.81(5) 7_666 1_556
Ni2 Al4 Ce1 164.39(5) 7_665 1_556
Co2 Al4 Ce1 164.39(5) 7_665 1_556
Al2 Al4 Ce1 63.91(4) . 1_556
Al1 Al4 Ce1 124.02(5) 7_665 1_556
Al3 Al4 Ce1 138.57(3) 7_665 1_556
Al9 Al4 Ce1 64.80(3) 3_556 1_556
Al9 Al4 Ce1 116.26(6) 3 1_556
Al1 Al4 Ce1 60.82(4) 3_556 1_556
Ce1 Al4 Ce1 77.88(6) . 1_556
Ni2 Al1 Co2 0.00(3) 1_556 1_556
Ni2 Al1 Co2 100.94(7) 1_556 .
Co2 Al1 Co2 100.94(7) 1_556 .
Ni2 Al1 Al3 56.72(4) 1_556 .
Co2 Al1 Al3 56.72(4) 1_556 .
Co2 Al1 Al3 56.72(4) . .
Ni2 Al1 Al4 56.78(4) 1_556 7_655
Co2 Al1 Al4 56.78(4) 1_556 7_655
Co2 Al1 Al4 56.78(4) . 7_655
Al3 Al1 Al4 61.04(6) . 7_655
Ni2 Al1 Al9 119.48(7) 1_556 .
Co2 Al1 Al9 119.48(7) 1_556 .
Co2 Al1 Al9 51.50(3) . .
Al3 Al1 Al9 104.95(5) . .
Al4 Al1 Al9 64.14(4) 7_655 .
Ni2 Al1 Al9 51.50(3) 1_556 1_556
Co2 Al1 Al9 51.50(3) 1_556 1_556
Co2 Al1 Al9 119.48(7) . 1_556
Al3 Al1 Al9 104.95(5) . 1_556
Al4 Al1 Al9 64.14(4) 7_655 1_556
Al9 Al1 Al9 92.54(6) . 1_556
Ni2 Al1 Al6 51.49(4) 1_556 1_556
Co2 Al1 Al6 51.49(4) 1_556 1_556
Co2 Al1 Al6 118.97(7) . 1_556
Al3 Al1 Al6 63.76(5) . 1_556
Al4 Al1 Al6 104.87(6) 7_655 1_556
Al9 Al1 Al6 167.88(7) . 1_556
Al9 Al1 Al6 86.59(5) 1_556 1_556
Ni2 Al1 Al6 118.97(7) 1_556 .
Co2 Al1 Al6 118.97(7) 1_556 .
Co2 Al1 Al6 51.49(4) . .
Al3 Al1 Al6 63.76(5) . .
Al4 Al1 Al6 104.87(6) 7_655 .
Al9 Al1 Al6 86.59(5) . .
Al9 Al1 Al6 167.88(7) 1_556 .
Al6 Al1 Al6 91.72(8) 1_556 .
Ni2 Al1 Al5 112.21(5) 1_556 3_456
Co2 Al1 Al5 112.21(5) 1_556 3_456
Co2 Al1 Al5 112.21(5) . 3_456
Al3 Al1 Al5 95.99(7) . 3_456
Al4 Al1 Al5 157.04(8) 7_655 3_456
Al9 Al1 Al5 127.65(4) . 3_456
Al9 Al1 Al5 127.65(4) 1_556 3_456
Al6 Al1 Al5 60.73(5) 1_556 3_456
Al6 Al1 Al5 60.73(5) . 3_456
Ni2 Al1 Al4 111.85(5) 1_556 3_456
Co2 Al1 Al4 111.85(5) 1_556 3_456
Co2 Al1 Al4 111.85(5) . 3_456
Al3 Al1 Al4 156.23(8) . 3_456
Al4 Al1 Al4 95.19(6) 7_655 3_456
Al9 Al1 Al4 60.35(4) . 3_456
Al9 Al1 Al4 60.35(4) 1_556 3_456
Al6 Al1 Al4 128.43(5) 1_556 3_456
Al6 Al1 Al4 128.43(5) . 3_456
Al5 Al1 Al4 107.78(7) 3_456 3_456
Co2 Al7 Ni1 145.96(8) . 3
Co2 Al7 Co1 145.96(8) . 3
Ni1 Al7 Co1 0.00(3) 3 3
Co2 Al7 Ni1 145.72(8) . 7_655
Ni1 Al7 Ni1 68.32(5) 3 7_655
Co1 Al7 Ni1 68.32(5) 3 7_655
Co2 Al7 Co1 145.72(8) . 7_655
Ni1 Al7 Co1 68.32(5) 3 7_655
Co1 Al7 Co1 68.32(5) 3 7_655
Ni1 Al7 Co1 0.00(3) 7_655 7_655
Co2 Al7 Al8 136.22(3) . 3_556
Ni1 Al7 Al8 53.33(3) 3 3_556
Co1 Al7 Al8 53.33(3) 3 3_556
Ni1 Al7 Al8 53.30(3) 7_655 3_556
Co1 Al7 Al8 53.30(3) 7_655 3_556
Co2 Al7 Al8 136.22(3) . 3
Ni1 Al7 Al8 53.33(3) 3 3
Co1 Al7 Al8 53.33(3) 3 3
Ni1 Al7 Al8 53.30(3) 7_655 3
Co1 Al7 Al8 53.30(3) 7_655 3
Al8 Al7 Al8 87.56(6) 3_556 3
Co1 Al6 Co2 177.97(8) . .
Co1 Al6 Al1 118.87(5) . 1_554
Co2 Al6 Al1 59.98(5) . 1_554
Co1 Al6 Al1 118.87(5) . .
Co2 Al6 Al1 59.98(5) . .
Al1 Al6 Al1 91.72(8) 1_554 .
Co1 Al6 Al2 58.98(5) . .
Co2 Al6 Al2 122.13(5) . .
Al1 Al6 Al2 177.63(8) 1_554 .
Al1 Al6 Al2 88.69(6) . .
Co1 Al6 Al2 58.98(5) . 1_554
Co2 Al6 Al2 122.13(5) . 1_554
Al1 Al6 Al2 88.69(6) 1_554 1_554
Al1 Al6 Al2 177.63(8) . 1_554
Al2 Al6 Al2 90.80(8) . 1_554
Co1 Al6 Al5 58.27(4) . 3_455
Co2 Al6 Al5 120.57(5) . 3_455
Al1 Al6 Al5 60.60(5) 1_554 3_455
Al1 Al6 Al5 121.18(7) . 3_455
Al2 Al6 Al5 117.25(7) . 3_455
Al2 Al6 Al5 57.12(5) 1_554 3_455
Co1 Al6 Al5 58.27(4) . 3_456
Co2 Al6 Al5 120.57(5) . 3_456
Al1 Al6 Al5 121.18(7) 1_554 3_456
Al1 Al6 Al5 60.60(5) . 3_456
Al2 Al6 Al5 57.12(5) . 3_456
Al2 Al6 Al5 117.25(7) 1_554 3_456
Al5 Al6 Al5 89.29(8) 3_455 3_456
Co1 Al6 Al3 125.03(5) . .
Co2 Al6 Al3 56.08(4) . .
Al1 Al6 Al3 116.06(7) 1_554 .
Al1 Al6 Al3 56.34(5) . .
Al2 Al6 Al3 66.06(5) . .
Al2 Al6 Al3 125.45(7) 1_554 .
Al5 Al6 Al3 176.31(7) 3_455 .
Al5 Al6 Al3 91.44(5) 3_456 .
Co1 Al6 Al3 125.03(5) . 1_554
Co2 Al6 Al3 56.08(4) . 1_554
Al1 Al6 Al3 56.34(5) 1_554 1_554
Al1 Al6 Al3 116.06(7) . 1_554
Al2 Al6 Al3 125.45(7) . 1_554
Al2 Al6 Al3 66.06(5) 1_554 1_554
Al5 Al6 Al3 91.44(5) 3_455 1_554
Al5 Al6 Al3 176.31(7) 3_456 1_554
Al3 Al6 Al3 87.61(7) . 1_554
loop_
_geom_bond_atom_site_label_1
_geom_bond_atom_site_label_2
_geom_bond_distance
_geom_bond_site_symmetry_2
Ce1 Al1 3.1417(16) 3_556
Ce1 Al1 3.1417(16) 3
Ce1 Al2 3.1436(16) 1_554
Ce1 Al2 3.1436(16) .
Ce1 Al5 3.1609(16) .
Ce1 Al5 3.1609(16) 1_554
Ce1 Al3 3.1843(16) 1_554
Ce1 Al3 3.1843(16) .
Ce1 Al6 3.1891(16) .
Ce1 Al4 3.1998(16) .
Ce1 Al4 3.1998(16) 1_554
Ce1 Al9 3.2837(4) 3
Co2 Al9 2.3471(7) .
Co2 Al6 2.3563(17) .
Co2 Al7 2.4593(17) .
Co2 Al3 2.5203(16) .
Co2 Al3 2.5203(16) 1_554
Co2 Al4 2.5242(16) 7_654
Co2 Al4 2.5242(16) 7_655
Co2 Al1 2.6073(16) 1_554
Co2 Al1 2.6073(16) .
Co1 Al6 2.3278(17) .
Co1 Al8 2.4641(13) .
Co1 Al8 2.4641(13) 1_554
Co1 Al7 2.5339(16) 3_455
Co1 Al7 2.5383(18) 7_665
Co1 Al5 2.5693(16) 3_455
Co1 Al5 2.5693(16) 3_456
Co1 Al2 2.5730(16) .
Co1 Al2 2.5730(16) 1_554
Co1 Ni1 2.8480(15) 5_565
Co1 Co1 2.8480(15) 5_565
Al8 Ni1 2.4641(13) 5_566
Al8 Co1 2.4641(13) 5_566
Al8 Ni1 2.4641(13) 5_565
Al8 Co1 2.4641(13) 5_565
Al8 Co1 2.4641(13) 1_556
Al8 Ni1 2.4641(13) 1_556
Al8 Al2 2.6432(16) .
Al8 Al2 2.6432(16) 5_566
Al8 Al5 2.6514(16) 7_665
Al8 Al5 2.6514(16) 3_456
Al9 Ni2 2.3471(7) 5
Al9 Co2 2.3471(7) 5
Al9 Al1 2.7830(16) 5
Al9 Al1 2.7830(16) .
Al9 Al1 2.7830(16) 5_556
Al9 Al1 2.7830(16) 1_554
Al9 Al4 2.9114(15) 7_655
Al9 Al4 2.9114(15) 3_455
Al9 Al4 2.9114(15) 7_654
Al9 Al4 2.9114(15) 3_456
Al2 Ni1 2.5730(16) 1_556
Al2 Co1 2.5730(16) 1_556
Al2 Al4 2.681(2) .
Al2 Al5 2.719(2) 3_456
Al2 Al6 2.824(2) .
Al2 Al6 2.824(2) 1_556
Al2 Ce1 3.1436(16) 1_556
Al5 Ni1 2.5693(16) 3
Al5 Co1 2.5693(16) 3
Al5 Ni1 2.5693(16) 3_556
Al5 Co1 2.5693(16) 3_556
Al5 Al8 2.6514(16) 3_556
Al5 Al3 2.699(2) .
Al5 Al2 2.719(2) 3_556
Al5 Al1 2.858(2) 3_556
Al5 Al6 2.8618(19) 3_556
Al5 Al6 2.8618(19) 3
Al5 Ce1 3.1609(16) 1_556
Al3 Ni2 2.5203(16) 1_556
Al3 Co2 2.5203(16) 1_556
Al3 Al1 2.696(2) .
Al3 Al4 2.740(2) 7_655
Al3 Al6 2.9052(19) .
Al3 Al6 2.9052(19) 1_556
Al3 Ce1 3.1843(16) 1_556
Al4 Ni2 2.5242(16) 7_666
Al4 Co2 2.5242(16) 7_666
Al4 Ni2 2.5242(16) 7_665
Al4 Co2 2.5242(16) 7_665
Al4 Al1 2.699(2) 7_665
Al4 Al3 2.740(2) 7_665
Al4 Al9 2.9114(15) 3_556
Al4 Al9 2.9114(15) 3
Al4 Al1 2.997(2) 3_556
Al4 Ce1 3.1998(16) 1_556
Al1 Ni2 2.6073(16) 1_556
Al1 Co2 2.6073(16) 1_556
Al1 Al4 2.699(2) 7_655
Al1 Al9 2.7830(16) 1_556
Al1 Al6 2.8022(19) 1_556
Al1 Al6 2.8022(19) .
Al1 Al5 2.858(2) 3_456
Al1 Al4 2.997(2) 3_456
Al7 Ni1 2.5339(16) 3
Al7 Co1 2.5339(16) 3
Al7 Ni1 2.5383(18) 7_655
Al7 Co1 2.5383(18) 7_655
Al7 Al8 2.9066(15) 3_556
Al7 Al8 2.9066(15) 3
Al6 Al1 2.8022(19) 1_554
Al6 Al2 2.824(2) 1_554
Al6 Al5 2.8618(19) 3_455
Al6 Al5 2.8618(19) 3_456
Al6 Al3 2.9052(19) 1_554
