#------------------------------------------------------------------------------
#$Date: 2016-03-23 23:57:12 +0200 (Wed, 23 Mar 2016) $
#$Revision: 179519 $
#$URL: svn://www.crystallography.net/cod/cif/4/34/16/4341661.cif $
#------------------------------------------------------------------------------
#
# This file is available in the Crystallography Open Database (COD),
# http://www.crystallography.net/
#
# All data on this site have been placed in the public domain by the
# contributors.
#
data_4341661
loop_
_publ_author_name
'Treadwell, LaRico J'
'Watkins-Curry, Pilanda'
'McAlpin, Jacob D.'
'Rebar, Drew J.'
'Hebert, Jessica K.'
'DiTusa, John F.'
'Chan, Julia Y.'
_publ_section_title
;
 Investigation of Mn, Fe, and Ni Incorporation in CeCo2Al8.
;
_journal_issue                   3
_journal_name_full               'Inorganic chemistry'
_journal_page_first              963
_journal_page_last               968
_journal_paper_doi               10.1021/ic502356t
_journal_volume                  54
_journal_year                    2015
_chemical_formula_moiety         'Al8 Ce Co1.55 Mn0.45'
_chemical_formula_sum            'Al8 Ce Co1.55 Mn0.45'
_chemical_formula_weight         469.83
_chemical_name_systematic
; 
 ? 
;
_space_group_IT_number           55
_symmetry_cell_setting           orthorhombic
_symmetry_space_group_name_Hall  '-P 2 2ab'
_symmetry_space_group_name_H-M   'P b a m'
_atom_sites_solution_primary     direct
_atom_sites_solution_secondary   difmap
_audit_creation_method           SHELXL-97
_audit_update_record
;
2014-09-15 # Formatted by publCIF
;
_cell_angle_alpha                90.00
_cell_angle_beta                 90.00
_cell_angle_gamma                90.00
_cell_formula_units_Z            4
_cell_length_a                   12.49500(10)
_cell_length_b                   14.4070(10)
_cell_length_c                   4.0320(10)
_cell_measurement_temperature    293(2)
_cell_volume                     725.82(19)
_computing_cell_refinement       'Denzo and Scalepack (Otwinski & Minor 1997)'
_computing_data_collection       'Collect (Nonius 1999)'
_computing_data_reduction        'Denzo and Scalepack (Otwinski & Minor 1997)'
_computing_molecular_graphics    'Crystal Maker'
_computing_publication_material  Publcif
_computing_structure_refinement  'SHELXL-97 (Sheldrick, 2008)'
_computing_structure_solution    'Direct Methods, SIR 97'
_diffrn_ambient_temperature      293(2)
_diffrn_measured_fraction_theta_full 0.998
_diffrn_measured_fraction_theta_max 0.998
_diffrn_measurement_device_type  'Nonius Kappa CCD'
_diffrn_measurement_method       '\f and \w scans'
_diffrn_radiation_monochromator  graphite
_diffrn_radiation_source         'fine-focus sealed tube'
_diffrn_radiation_type           MoK\a
_diffrn_radiation_wavelength     0.71073
_diffrn_reflns_av_R_equivalents  0.0350
_diffrn_reflns_av_sigmaI/netI    0.0407
_diffrn_reflns_limit_h_max       18
_diffrn_reflns_limit_h_min       -17
_diffrn_reflns_limit_k_max       20
_diffrn_reflns_limit_k_min       -20
_diffrn_reflns_limit_l_max       5
_diffrn_reflns_limit_l_min       -5
_diffrn_reflns_number            2227
_diffrn_reflns_theta_full        31.00
_diffrn_reflns_theta_max         31.00
_diffrn_reflns_theta_min         2.83
_exptl_absorpt_coefficient_mu    11.301
_exptl_absorpt_correction_T_max  0.803
_exptl_absorpt_correction_T_min  0.768
_exptl_absorpt_correction_type   multi-scan
_exptl_absorpt_process_details   'HKL scalepack (Otwinski & Minor, 1997)'
_exptl_crystal_colour            silver
_exptl_crystal_density_diffrn    4.320
_exptl_crystal_density_method    'not measured'
_exptl_crystal_description       Fragment
_exptl_crystal_F_000             860.4
_exptl_crystal_size_max          0.03
_exptl_crystal_size_mid          0.02
_exptl_crystal_size_min          0.02
_refine_diff_density_max         2.466
_refine_diff_density_min         -1.137
_refine_diff_density_rms         0.247
_refine_ls_extinction_coef       0.0030(2)
_refine_ls_extinction_expression Fc^*^=kFc[1+0.001xFc^2^\l^3^/sin(2\q)]^-1/4^
_refine_ls_extinction_method     SHELXL
_refine_ls_goodness_of_fit_ref   1.040
_refine_ls_matrix_type           full
_refine_ls_number_parameters     72
_refine_ls_number_reflns         1300
_refine_ls_number_restraints     0
_refine_ls_restrained_S_all      1.040
_refine_ls_R_factor_all          0.0445
_refine_ls_R_factor_gt           0.0276
_refine_ls_shift/su_max          0.001
_refine_ls_shift/su_mean         0.000
_refine_ls_structure_factor_coef Fsqd
_refine_ls_weighting_details
'calc w=1/[\s^2^(Fo^2^)+(0.0222P)^2^+0.3600P] where P=(Fo^2^+2Fc^2^)/3'
_refine_ls_weighting_scheme      calc
_refine_ls_wR_factor_gt          0.0532
_refine_ls_wR_factor_ref         0.0581
_reflns_number_gt                1005
_reflns_number_total             1300
_reflns_threshold_expression     >2sigma(I)
_cod_data_source_file            ic502356t_si_007.cif
_cod_data_source_block           shelx
_cod_depositor_comments
;
The following automatic conversions were performed:

'_symmetry_cell_setting' value 'Orthorhombic' changed to
'orthorhombic' according to
/home/saulius/struct/COD-crude-data--automatic-downloads/rss-feeds/ACS/lib/dictionaries/cif_core.dic
dictionary named 'cif_core.dic' version 2.4.2 from
2011-04-26.

'_exptl_absorpt_correction_type' value 'Multi-scan'
changed to 'multi-scan' according to
/home/saulius/struct/COD-crude-data--automatic-downloads/rss-feeds/ACS/lib/dictionaries/cif_core.dic
dictionary named 'cif_core.dic' version 2.4.2 from 2011-04-26.

Automatic conversion script
Id: cif_fix_values 2935 2014-11-11 08:27:57Z andrius 

 Adding full bibliography for 4341656--4341665.cif.
;
_cod_original_sg_symbol_H-M      Pbam
_cod_database_code               4341661
#BEGIN Tags that were not found in dictionaries:
_exptl_crystal_f_000'            864.10
#END Tags that were not found in dictionaries
loop_
_symmetry_equiv_pos_as_xyz
'x, y, z'
'-x, -y, z'
'x+1/2, -y+1/2, -z'
'-x+1/2, y+1/2, -z'
'-x, -y, -z'
'x, y, -z'
'-x-1/2, y-1/2, z'
'x-1/2, -y-1/2, z'
loop_
_atom_site_label
_atom_site_type_symbol
_atom_site_fract_x
_atom_site_fract_y
_atom_site_fract_z
_atom_site_U_iso_or_equiv
_atom_site_adp_type
_atom_site_occupancy
_atom_site_symmetry_multiplicity
_atom_site_calc_flag
_atom_site_refinement_flags
Ce1 Ce 0.34076(2) 0.318443(19) 0.0000 0.01078(10) Uani 1 2 d S
Co1 Co 0.03436(5) 0.40638(5) 0.0000 0.0091(2) Uani 0.68(3) 2 d SP
Mn1 Mn 0.03436(5) 0.40638(5) 0.0000 0.0091(2) Uani 0.32(3) 2 d SP
Co2 Co 0.15115(5) 0.09683(5) 0.0000 0.0078(2) Uani 0.87(3) 2 d SP
Mn2 Mn 0.15115(5) 0.09683(5) 0.0000 0.0078(2) Uani 0.13(3) 2 d SP
Al1 Al 0.02560(12) 0.13195(11) 0.5000 0.0098(3) Uani 1 2 d S
Al2 Al 0.15979(11) 0.37890(11) 0.5000 0.0103(3) Uani 1 2 d S
Al3 Al 0.23578(12) 0.17277(11) 0.5000 0.0106(3) Uani 1 2 d S
Al4 Al 0.33183(12) 0.49160(10) 0.5000 0.0104(3) Uani 1 2 d S
Al5 Al 0.45268(12) 0.17976(10) 0.5000 0.0100(3) Uani 1 2 d S
Al6 Al 0.09564(12) 0.25300(11) 0.0000 0.0104(3) Uani 1 2 d S
Al7 Al 0.33903(11) 0.04467(11) 0.0000 0.0116(3) Uani 1 2 d S
Al8 Al 0.0000 0.5000 0.5000 0.0095(4) Uani 1 4 d S
Al9 Al 0.0000 0.0000 0.0000 0.0098(4) Uani 1 4 d S
loop_
_atom_site_aniso_label
_atom_site_aniso_U_11
_atom_site_aniso_U_22
_atom_site_aniso_U_33
_atom_site_aniso_U_23
_atom_site_aniso_U_13
_atom_site_aniso_U_12
Ce1 0.01058(16) 0.01310(15) 0.00865(16) 0.000 0.000 -0.00087(12)
Co1 0.0103(4) 0.0085(4) 0.0085(4) 0.000 0.000 0.0006(3)
Mn1 0.0103(4) 0.0085(4) 0.0085(4) 0.000 0.000 0.0006(3)
Co2 0.0087(4) 0.0073(3) 0.0073(4) 0.000 0.000 0.0003(3)
Mn2 0.0087(4) 0.0073(3) 0.0073(4) 0.000 0.000 0.0003(3)
Al1 0.0091(7) 0.0104(7) 0.0100(8) 0.000 0.000 0.0002(6)
Al2 0.0092(7) 0.0119(7) 0.0097(8) 0.000 0.000 0.0005(6)
Al3 0.0094(7) 0.0122(8) 0.0102(8) 0.000 0.000 -0.0020(6)
Al4 0.0105(7) 0.0097(7) 0.0110(8) 0.000 0.000 -0.0019(6)
Al5 0.0105(7) 0.0099(7) 0.0097(8) 0.000 0.000 0.0014(6)
Al6 0.0127(8) 0.0084(7) 0.0101(7) 0.000 0.000 0.0004(6)
Al7 0.0098(7) 0.0142(8) 0.0108(8) 0.000 0.000 0.0026(6)
Al8 0.0120(10) 0.0081(10) 0.0083(11) 0.000 0.000 0.0002(8)
Al9 0.0102(10) 0.0095(10) 0.0095(11) 0.000 0.000 -0.0026(8)
loop_
_atom_type_symbol
_atom_type_description
_atom_type_scat_dispersion_real
_atom_type_scat_dispersion_imag
_atom_type_scat_source
Ce Ce -0.2486 2.6331 'International Tables Vol C Tables 4.2.6.8 and 6.1.1.4'
Co Co 0.3494 0.9721 'International Tables Vol C Tables 4.2.6.8 and 6.1.1.4'
Mn Mn 0.3368 0.7283 'International Tables Vol C Tables 4.2.6.8 and 6.1.1.4'
Al Al 0.0645 0.0514 'International Tables Vol C Tables 4.2.6.8 and 6.1.1.4'
loop_
_geom_angle_atom_site_label_1
_geom_angle_atom_site_label_2
_geom_angle_atom_site_label_3
_geom_angle
_geom_angle_site_symmetry_1
_geom_angle_site_symmetry_3
Al1 Ce1 Al1 79.65(4) 3_556 3
Al1 Ce1 Al2 150.83(4) 3_556 1_554
Al1 Ce1 Al2 93.09(3) 3 1_554
Al1 Ce1 Al2 93.09(3) 3_556 .
Al1 Ce1 Al2 150.83(4) 3 .
Al2 Ce1 Al2 79.52(4) 1_554 .
Al1 Ce1 Al5 103.13(3) 3_556 1_554
Al1 Ce1 Al5 53.92(4) 3 1_554
Al2 Ce1 Al5 94.82(3) 1_554 1_554
Al2 Ce1 Al5 154.03(4) . 1_554
Al1 Ce1 Al5 53.92(4) 3_556 .
Al1 Ce1 Al5 103.13(3) 3 .
Al2 Ce1 Al5 154.03(4) 1_554 .
Al2 Ce1 Al5 94.82(3) . .
Al5 Ce1 Al5 79.16(4) 1_554 .
Al1 Ce1 Al3 92.65(3) 3_556 .
Al1 Ce1 Al3 148.79(4) 3 .
Al2 Ce1 Al3 106.91(4) 1_554 .
Al2 Ce1 Al3 58.87(4) . .
Al5 Ce1 Al3 99.72(3) 1_554 .
Al5 Ce1 Al3 50.51(4) . .
Al1 Ce1 Al3 148.79(4) 3_556 1_554
Al1 Ce1 Al3 92.65(3) 3 1_554
Al2 Ce1 Al3 58.87(4) 1_554 1_554
Al2 Ce1 Al3 106.91(4) . 1_554
Al5 Ce1 Al3 50.51(4) 1_554 1_554
Al5 Ce1 Al3 99.72(3) . 1_554
Al3 Ce1 Al3 78.33(4) . 1_554
Al1 Ce1 Al6 140.176(19) 3_556 .
Al1 Ce1 Al6 140.176(19) 3 .
Al2 Ce1 Al6 52.82(3) 1_554 .
Al2 Ce1 Al6 52.82(3) . .
Al5 Ce1 Al6 103.69(3) 1_554 .
Al5 Ce1 Al6 103.69(3) . .
Al3 Ce1 Al6 54.11(3) . .
Al3 Ce1 Al6 54.11(3) 1_554 .
Al1 Ce1 Al4 104.56(4) 3_556 1_554
Al1 Ce1 Al4 56.41(4) 3 1_554
Al2 Ce1 Al4 50.10(4) 1_554 1_554
Al2 Ce1 Al4 99.32(4) . 1_554
Al5 Ce1 Al4 96.08(3) 1_554 1_554
Al5 Ce1 Al4 155.01(4) . 1_554
Al3 Ce1 Al4 153.32(4) . 1_554
Al3 Ce1 Al4 95.74(3) 1_554 1_554
Al6 Ce1 Al4 101.27(3) . 1_554
Al1 Ce1 Al4 56.41(4) 3_556 .
Al1 Ce1 Al4 104.56(4) 3 .
Al2 Ce1 Al4 99.33(4) 1_554 .
Al2 Ce1 Al4 50.10(4) . .
Al5 Ce1 Al4 155.01(4) 1_554 .
Al5 Ce1 Al4 96.08(3) . .
Al3 Ce1 Al4 95.74(3) . .
Al3 Ce1 Al4 153.32(4) 1_554 .
Al6 Ce1 Al4 101.27(3) . .
Al4 Ce1 Al4 77.83(4) 1_554 .
Al1 Ce1 Al9 51.33(3) 3_556 3
Al1 Ce1 Al9 51.33(3) 3 3
Al2 Ce1 Al9 102.38(3) 1_554 3
Al2 Ce1 Al9 102.38(3) . 3
Al5 Ce1 Al9 103.59(3) 1_554 3
Al5 Ce1 Al9 103.59(3) . 3
Al3 Ce1 Al9 140.540(19) . 3
Al3 Ce1 Al9 140.540(19) 1_554 3
Al6 Ce1 Al9 144.37(3) . 3
Al4 Ce1 Al9 53.30(2) 1_554 3
Al4 Ce1 Al9 53.30(2) . 3
Al6 Co1 Al8 125.061(15) . .
Al6 Co1 Al8 125.061(15) . 1_554
Al8 Co1 Al8 109.85(3) . 1_554
Al6 Co1 Al7 125.23(6) . 3_455
Al8 Co1 Al7 71.37(2) . 3_455
Al8 Co1 Al7 71.37(2) 1_554 3_455
Al6 Co1 Al7 122.44(6) . 7_665
Al8 Co1 Al7 71.31(2) . 7_665
Al8 Co1 Al7 71.31(2) 1_554 7_665
Al7 Co1 Al7 112.33(4) 3_455 7_665
Al6 Co1 Al5 71.02(4) . 3_455
Al8 Co1 Al5 146.58(4) . 3_455
Al8 Co1 Al5 63.55(3) 1_554 3_455
Al7 Co1 Al5 75.72(4) 3_455 3_455
Al7 Co1 Al5 128.55(3) 7_665 3_455
Al6 Co1 Al5 71.02(4) . 3_456
Al8 Co1 Al5 63.55(3) . 3_456
Al8 Co1 Al5 146.58(4) 1_554 3_456
Al7 Co1 Al5 75.72(4) 3_455 3_456
Al7 Co1 Al5 128.55(3) 7_665 3_456
Al5 Co1 Al5 102.89(6) 3_455 3_456
Al6 Co1 Al2 69.92(4) . .
Al8 Co1 Al2 63.33(3) . .
Al8 Co1 Al2 145.90(4) 1_554 .
Al7 Co1 Al2 128.70(3) 3_455 .
Al7 Co1 Al2 75.09(4) 7_665 .
Al5 Co1 Al2 140.94(6) 3_455 .
Al5 Co1 Al2 63.66(4) 3_456 .
Al6 Co1 Al2 69.92(4) . 1_554
Al8 Co1 Al2 145.90(4) . 1_554
Al8 Co1 Al2 63.33(3) 1_554 1_554
Al7 Co1 Al2 128.70(3) 3_455 1_554
Al7 Co1 Al2 75.10(4) 7_665 1_554
Al5 Co1 Al2 63.66(4) 3_455 1_554
Al5 Co1 Al2 140.94(6) 3_456 1_554
Al2 Co1 Al2 102.55(6) . 1_554
Al6 Co1 Co1 178.54(6) . 5_565
Al8 Co1 Co1 54.926(15) . 5_565
Al8 Co1 Co1 54.926(14) 1_554 5_565
Al7 Co1 Co1 56.23(4) 3_455 5_565
Al7 Co1 Co1 56.10(4) 7_665 5_565
Al5 Co1 Co1 109.80(4) 3_455 5_565
Al5 Co1 Co1 109.80(4) 3_456 5_565
Al2 Co1 Co1 109.26(4) . 5_565
Al2 Co1 Co1 109.26(4) 1_554 5_565
Al6 Co1 Mn1 178.54(6) . 5_565
Al8 Co1 Mn1 54.926(15) . 5_565
Al8 Co1 Mn1 54.926(14) 1_554 5_565
Al7 Co1 Mn1 56.23(4) 3_455 5_565
Al7 Co1 Mn1 56.10(4) 7_665 5_565
Al5 Co1 Mn1 109.80(4) 3_455 5_565
Al5 Co1 Mn1 109.80(4) 3_456 5_565
Al2 Co1 Mn1 109.26(4) . 5_565
Al2 Co1 Mn1 109.26(4) 1_554 5_565
Co1 Co1 Mn1 0.00(2) 5_565 5_565
Al9 Co2 Al6 109.32(4) . .
Al9 Co2 Al7 125.80(5) . .
Al6 Co2 Al7 124.88(6) . .
Al9 Co2 Al3 126.45(3) . .
Al6 Co2 Al3 73.10(4) . .
Al7 Co2 Al3 74.54(4) . .
Al9 Co2 Al3 126.45(3) . 1_554
Al6 Co2 Al3 73.10(4) . 1_554
Al7 Co2 Al3 74.53(4) . 1_554
Al3 Co2 Al3 105.91(6) . 1_554
Al9 Co2 Al4 73.25(4) . 7_654
Al6 Co2 Al4 126.66(3) . 7_654
Al7 Co2 Al4 74.78(4) . 7_654
Al3 Co2 Al4 149.31(6) . 7_654
Al3 Co2 Al4 65.71(4) 1_554 7_654
Al9 Co2 Al4 73.25(4) . 7_655
Al6 Co2 Al4 126.66(3) . 7_655
Al7 Co2 Al4 74.78(4) . 7_655
Al3 Co2 Al4 65.71(4) . 7_655
Al3 Co2 Al4 149.31(6) 1_554 7_655
Al4 Co2 Al4 105.58(6) 7_654 7_655
Al9 Co2 Al1 68.34(3) . .
Al6 Co2 Al1 68.71(4) . .
Al7 Co2 Al1 129.27(3) . .
Al3 Co2 Al1 63.26(4) . .
Al3 Co2 Al1 141.81(5) 1_554 .
Al4 Co2 Al1 141.58(5) 7_654 .
Al4 Co2 Al1 63.28(4) 7_655 .
Al9 Co2 Al1 68.34(3) . 1_554
Al6 Co2 Al1 68.71(4) . 1_554
Al7 Co2 Al1 129.27(3) . 1_554
Al3 Co2 Al1 141.81(5) . 1_554
Al3 Co2 Al1 63.26(4) 1_554 1_554
Al4 Co2 Al1 63.28(4) 7_654 1_554
Al4 Co2 Al1 141.58(5) 7_655 1_554
Al1 Co2 Al1 101.46(6) . 1_554
Co2 Al1 Mn2 101.46(6) . 1_556
Co2 Al1 Co2 101.46(6) . 1_556
Mn2 Al1 Co2 0.00(3) 1_556 1_556
Co2 Al1 Al3 56.95(3) . .
Mn2 Al1 Al3 56.95(3) 1_556 .
Co2 Al1 Al3 56.95(3) 1_556 .
Co2 Al1 Al4 57.04(3) . 7_655
Mn2 Al1 Al4 57.04(3) 1_556 7_655
Co2 Al1 Al4 57.04(3) 1_556 7_655
Al3 Al1 Al4 61.24(6) . 7_655
Co2 Al1 Al9 51.47(2) . .
Mn2 Al1 Al9 119.75(6) 1_556 .
Co2 Al1 Al9 119.75(6) 1_556 .
Al3 Al1 Al9 105.12(4) . .
Al4 Al1 Al9 64.18(4) 7_655 .
Co2 Al1 Al9 119.75(6) . 1_556
Mn2 Al1 Al9 51.47(2) 1_556 1_556
Co2 Al1 Al9 51.47(2) 1_556 1_556
Al3 Al1 Al9 105.12(4) . 1_556
Al4 Al1 Al9 64.18(4) 7_655 1_556
Al9 Al1 Al9 92.57(5) . 1_556
Co2 Al1 Al6 51.43(4) . .
Mn2 Al1 Al6 119.28(6) 1_556 .
Co2 Al1 Al6 119.28(6) 1_556 .
Al3 Al1 Al6 63.88(5) . .
Al4 Al1 Al6 105.08(5) 7_655 .
Al9 Al1 Al6 86.56(3) . .
Al9 Al1 Al6 168.16(7) 1_556 .
Co2 Al1 Al6 119.28(6) . 1_556
Mn2 Al1 Al6 51.44(4) 1_556 1_556
Co2 Al1 Al6 51.44(4) 1_556 1_556
Al3 Al1 Al6 63.88(5) . 1_556
Al4 Al1 Al6 105.08(5) 7_655 1_556
Al9 Al1 Al6 168.16(7) . 1_556
Al9 Al1 Al6 86.57(3) 1_556 1_556
Al6 Al1 Al6 91.87(6) . 1_556
Co2 Al1 Al5 112.09(5) . 3_456
Mn2 Al1 Al5 112.09(5) 1_556 3_456
Co2 Al1 Al5 112.09(5) 1_556 3_456
Al3 Al1 Al5 95.94(7) . 3_456
Al4 Al1 Al5 157.18(7) 7_655 3_456
Al9 Al1 Al5 127.56(3) . 3_456
Al9 Al1 Al5 127.56(3) 1_556 3_456
Al6 Al1 Al5 60.66(4) . 3_456
Al6 Al1 Al5 60.66(4) 1_556 3_456
Co2 Al1 Ce1 89.445(19) . 3_455
Mn2 Al1 Ce1 169.09(4) 1_556 3_455
Co2 Al1 Ce1 169.09(4) 1_556 3_455
Al3 Al1 Ce1 131.79(4) . 3_455
Al4 Al1 Ce1 130.95(4) 7_655 3_455
Al9 Al1 Ce1 66.90(2) . 3_455
Al9 Al1 Ce1 122.24(5) 1_556 3_455
Al6 Al1 Ce1 68.13(3) . 3_455
Al6 Al1 Ce1 123.22(6) 1_556 3_455
Al5 Al1 Ce1 63.33(3) 3_456 3_455
Co1 Al2 Mn1 102.55(6) . 1_556
Co1 Al2 Co1 102.55(6) . 1_556
Mn1 Al2 Co1 0.00(2) 1_556 1_556
Co1 Al2 Al8 56.12(3) . .
Mn1 Al2 Al8 56.12(3) 1_556 .
Co1 Al2 Al8 56.12(3) 1_556 .
Co1 Al2 Al4 113.06(5) . .
Mn1 Al2 Al4 113.06(5) 1_556 .
Co1 Al2 Al4 113.06(5) 1_556 .
Al8 Al2 Al4 101.79(6) . .
Co1 Al2 Al5 58.06(3) . 3_456
Mn1 Al2 Al5 58.06(3) 1_556 3_456
Co1 Al2 Al5 58.06(3) 1_556 3_456
Al8 Al2 Al5 59.23(4) . 3_456
Al4 Al2 Al5 161.02(8) . 3_456
Co1 Al2 Al6 118.85(6) . 1_556
Mn1 Al2 Al6 50.96(4) 1_556 1_556
Co1 Al2 Al6 50.96(4) 1_556 1_556
Al8 Al2 Al6 102.04(5) . 1_556
Al4 Al2 Al6 127.79(4) . 1_556
Al5 Al2 Al6 62.06(4) 3_456 1_556
Co1 Al2 Al6 50.96(4) . .
Mn1 Al2 Al6 118.85(6) 1_556 .
Co1 Al2 Al6 118.85(6) 1_556 .
Al8 Al2 Al6 102.04(5) . .
Al4 Al2 Al6 127.79(4) . .
Al5 Al2 Al6 62.06(4) 3_456 .
Al6 Al2 Al6 90.94(6) 1_556 .
Co1 Al2 Ce1 88.77(2) . .
Mn1 Al2 Ce1 167.53(5) 1_556 .
Co1 Al2 Ce1 167.53(5) 1_556 .
Al8 Al2 Ce1 136.22(3) . .
Al4 Al2 Ce1 66.06(4) . .
Al5 Al2 Ce1 126.59(4) 3_456 .
Al6 Al2 Ce1 118.82(6) 1_556 .
Al6 Al2 Ce1 64.54(3) . .
Co1 Al2 Ce1 167.53(5) . 1_556
Mn1 Al2 Ce1 88.77(2) 1_556 1_556
Co1 Al2 Ce1 88.77(2) 1_556 1_556
Al8 Al2 Ce1 136.22(3) . 1_556
Al4 Al2 Ce1 66.05(4) . 1_556
Al5 Al2 Ce1 126.59(4) 3_456 1_556
Al6 Al2 Ce1 64.54(3) 1_556 1_556
Al6 Al2 Ce1 118.82(6) . 1_556
Ce1 Al2 Ce1 79.52(4) . 1_556
Mn2 Al3 Co2 0.00(4) 1_556 1_556
Mn2 Al3 Co2 105.91(6) 1_556 .
Co2 Al3 Co2 105.91(6) 1_556 .
Mn2 Al3 Al1 59.79(4) 1_556 .
Co2 Al3 Al1 59.79(4) 1_556 .
Co2 Al3 Al1 59.79(4) . .
Mn2 Al3 Al5 115.75(4) 1_556 .
Co2 Al3 Al5 115.75(4) 1_556 .
Co2 Al3 Al5 115.75(4) . .
Al1 Al3 Al5 169.51(8) . .
Mn2 Al3 Al4 57.24(3) 1_556 7_655
Co2 Al3 Al4 57.24(3) 1_556 7_655
Co2 Al3 Al4 57.24(3) . 7_655
Al1 Al3 Al4 59.44(6) . 7_655
Al5 Al3 Al4 110.06(7) . 7_655
Mn2 Al3 Al6 118.24(6) 1_556 .
Co2 Al3 Al6 118.24(6) 1_556 .
Co2 Al3 Al6 50.74(4) . .
Al1 Al3 Al6 59.97(4) . .
Al5 Al3 Al6 125.92(5) . .
Al4 Al3 Al6 101.11(5) 7_655 .
Mn2 Al3 Al6 50.74(4) 1_556 1_556
Co2 Al3 Al6 50.74(4) 1_556 1_556
Co2 Al3 Al6 118.24(6) . 1_556
Al1 Al3 Al6 59.97(4) . 1_556
Al5 Al3 Al6 125.92(5) . 1_556
Al4 Al3 Al6 101.11(5) 7_655 1_556
Al6 Al3 Al6 87.71(6) . 1_556
Mn2 Al3 Ce1 163.93(5) 1_556 .
Co2 Al3 Ce1 163.93(5) 1_556 .
Co2 Al3 Ce1 87.29(2) . .
Al1 Al3 Ce1 123.00(5) . .
Al5 Al3 Ce1 64.21(4) . .
Al4 Al3 Ce1 138.77(3) 7_655 .
Al6 Al3 Ce1 63.16(3) . .
Al6 Al3 Ce1 115.07(6) 1_556 .
Mn2 Al3 Ce1 87.29(2) 1_556 1_556
Co2 Al3 Ce1 87.29(2) 1_556 1_556
Co2 Al3 Ce1 163.93(5) . 1_556
Al1 Al3 Ce1 123.00(5) . 1_556
Al5 Al3 Ce1 64.21(4) . 1_556
Al4 Al3 Ce1 138.77(3) 7_655 1_556
Al6 Al3 Ce1 115.07(6) . 1_556
Al6 Al3 Ce1 63.16(3) 1_556 1_556
Ce1 Al3 Ce1 78.33(4) . 1_556
Mn2 Al4 Co2 0.00(3) 7_666 7_666
Mn2 Al4 Mn2 105.58(6) 7_666 7_665
Co2 Al4 Mn2 105.58(6) 7_666 7_665
Mn2 Al4 Co2 105.58(6) 7_666 7_665
Co2 Al4 Co2 105.58(6) 7_666 7_665
Mn2 Al4 Co2 0.00(4) 7_665 7_665
Mn2 Al4 Al2 115.34(4) 7_666 .
Co2 Al4 Al2 115.34(4) 7_666 .
Mn2 Al4 Al2 115.34(4) 7_665 .
Co2 Al4 Al2 115.34(4) 7_665 .
Mn2 Al4 Al1 59.68(3) 7_666 7_665
Co2 Al4 Al1 59.68(3) 7_666 7_665
Mn2 Al4 Al1 59.68(4) 7_665 7_665
Co2 Al4 Al1 59.68(4) 7_665 7_665
Al2 Al4 Al1 168.44(8) . 7_665
Mn2 Al4 Al3 57.05(3) 7_666 7_665
Co2 Al4 Al3 57.05(3) 7_666 7_665
Mn2 Al4 Al3 57.05(3) 7_665 7_665
Co2 Al4 Al3 57.05(3) 7_665 7_665
Al2 Al4 Al3 109.13(7) . 7_665
Al1 Al4 Al3 59.32(5) 7_665 7_665
Mn2 Al4 Al9 50.48(2) 7_666 3_556
Co2 Al4 Al9 50.48(2) 7_666 3_556
Mn2 Al4 Al9 117.74(6) 7_665 3_556
Co2 Al4 Al9 117.74(6) 7_665 3_556
Al2 Al4 Al9 126.89(4) . 3_556
Al1 Al4 Al9 59.49(3) 7_665 3_556
Al3 Al4 Al9 100.52(4) 7_665 3_556
Mn2 Al4 Al9 117.74(6) 7_666 3
Co2 Al4 Al9 117.74(6) 7_666 3
Mn2 Al4 Al9 50.48(2) 7_665 3
Co2 Al4 Al9 50.48(2) 7_665 3
Al2 Al4 Al9 126.89(4) . 3
Al1 Al4 Al9 59.49(3) 7_665 3
Al3 Al4 Al9 100.52(4) 7_665 3
Al9 Al4 Al9 87.53(4) 3_556 3
Mn2 Al4 Ce1 87.84(2) 7_666 1_556
Co2 Al4 Ce1 87.84(2) 7_666 1_556
Mn2 Al4 Ce1 164.34(5) 7_665 1_556
Co2 Al4 Ce1 164.34(5) 7_665 1_556
Al2 Al4 Ce1 63.85(4) . 1_556
Al1 Al4 Ce1 124.07(4) 7_665 1_556
Al3 Al4 Ce1 138.61(3) 7_665 1_556
Al9 Al4 Ce1 64.70(2) 3_556 1_556
Al9 Al4 Ce1 116.21(5) 3 1_556
Mn2 Al4 Ce1 164.34(5) 7_666 .
Co2 Al4 Ce1 164.34(5) 7_666 .
Mn2 Al4 Ce1 87.84(2) 7_665 .
Co2 Al4 Ce1 87.84(2) 7_665 .
Al2 Al4 Ce1 63.85(4) . .
Al1 Al4 Ce1 124.07(4) 7_665 .
Al3 Al4 Ce1 138.61(3) 7_665 .
Al9 Al4 Ce1 116.21(5) 3_556 .
Al9 Al4 Ce1 64.70(2) 3 .
Ce1 Al4 Ce1 77.83(4) 1_556 .
Mn1 Al5 Co1 0.00(3) 3 3
Mn1 Al5 Mn1 102.89(6) 3 3_556
Co1 Al5 Mn1 102.89(6) 3 3_556
Mn1 Al5 Co1 102.89(6) 3 3_556
Co1 Al5 Co1 102.89(6) 3 3_556
Mn1 Al5 Co1 0.00(3) 3_556 3_556
Mn1 Al5 Al8 56.12(3) 3 3_556
Co1 Al5 Al8 56.12(3) 3 3_556
Mn1 Al5 Al8 56.12(3) 3_556 3_556
Co1 Al5 Al8 56.12(3) 3_556 3_556
Mn1 Al5 Al3 112.19(5) 3 .
Co1 Al5 Al3 112.19(5) 3 .
Mn1 Al5 Al3 112.19(5) 3_556 .
Co1 Al5 Al3 112.19(5) 3_556 .
Al8 Al5 Al3 100.73(6) 3_556 .
Mn1 Al5 Al2 58.28(3) 3 3_556
Co1 Al5 Al2 58.28(3) 3 3_556
Mn1 Al5 Al2 58.28(3) 3_556 3_556
Co1 Al5 Al2 58.28(3) 3_556 3_556
Al8 Al5 Al2 59.06(4) 3_556 3_556
Al3 Al5 Al2 159.79(8) . 3_556
Mn1 Al5 Al1 109.29(5) 3 3_556
Co1 Al5 Al1 109.29(5) 3 3_556
Mn1 Al5 Al1 109.29(5) 3_556 3_556
Co1 Al5 Al1 109.29(5) 3_556 3_556
Al8 Al5 Al1 148.58(7) 3_556 3_556
Al3 Al5 Al1 110.69(7) . 3_556
Al2 Al5 Al1 89.52(6) 3_556 3_556
Mn1 Al5 Al6 117.82(6) 3 3_556
Co1 Al5 Al6 117.82(6) 3 3_556
Mn1 Al5 Al6 50.59(4) 3_556 3_556
Co1 Al5 Al6 50.59(4) 3_556 3_556
Al8 Al5 Al6 101.01(5) 3_556 3_556
Al3 Al5 Al6 129.51(4) . 3_556
Al2 Al5 Al6 60.78(4) 3_556 3_556
Al1 Al5 Al6 58.70(4) 3_556 3_556
Mn1 Al5 Al6 50.59(4) 3 3
Co1 Al5 Al6 50.59(4) 3 3
Mn1 Al5 Al6 117.82(6) 3_556 3
Co1 Al5 Al6 117.82(6) 3_556 3
Al8 Al5 Al6 101.01(5) 3_556 3
Al3 Al5 Al6 129.51(4) . 3
Al2 Al5 Al6 60.78(4) 3_556 3
Al1 Al5 Al6 58.70(4) 3_556 3
Al6 Al5 Al6 89.55(6) 3_556 3
Mn1 Al5 Ce1 167.74(5) 3 1_556
Co1 Al5 Ce1 167.74(5) 3 1_556
Mn1 Al5 Ce1 88.89(2) 3_556 1_556
Co1 Al5 Ce1 88.89(2) 3_556 1_556
Al8 Al5 Ce1 135.56(3) 3_556 1_556
Al3 Al5 Ce1 65.28(4) . 1_556
Al2 Al5 Ce1 128.04(4) 3_556 1_556
Al1 Al5 Ce1 62.75(3) 3_556 1_556
Al6 Al5 Ce1 67.26(3) 3_556 1_556
Al6 Al5 Ce1 120.72(6) 3 1_556
Mn1 Al5 Ce1 88.89(2) 3 .
Co1 Al5 Ce1 88.89(2) 3 .
Mn1 Al5 Ce1 167.74(5) 3_556 .
Co1 Al5 Ce1 167.74(5) 3_556 .
Al8 Al5 Ce1 135.56(3) 3_556 .
Al3 Al5 Ce1 65.28(4) . .
Al2 Al5 Ce1 128.04(4) 3_556 .
Al1 Al5 Ce1 62.75(3) 3_556 .
Al6 Al5 Ce1 120.72(6) 3_556 .
Al6 Al5 Ce1 67.26(3) 3 .
Ce1 Al5 Ce1 79.16(4) 1_556 .
Co1 Al6 Co2 178.02(8) . .
Co1 Al6 Al1 119.02(5) . 1_554
Co2 Al6 Al1 59.86(4) . 1_554
Co1 Al6 Al1 119.03(5) . .
Co2 Al6 Al1 59.86(4) . .
Al1 Al6 Al1 91.87(6) 1_554 .
Co1 Al6 Al2 59.12(4) . 1_554
Co2 Al6 Al2 121.97(5) . 1_554
Al1 Al6 Al2 88.56(4) 1_554 1_554
Al1 Al6 Al2 177.99(7) . 1_554
Co1 Al6 Al2 59.12(4) . .
Co2 Al6 Al2 121.97(5) . .
Al1 Al6 Al2 177.99(7) 1_554 .
Al1 Al6 Al2 88.56(4) . .
Al2 Al6 Al2 90.94(6) 1_554 .
Co1 Al6 Al5 58.39(4) . 3_455
Co2 Al6 Al5 120.48(5) . 3_455
Al1 Al6 Al5 60.63(4) 1_554 3_455
Al1 Al6 Al5 121.45(6) . 3_455
Al2 Al6 Al5 57.16(4) 1_554 3_455
Al2 Al6 Al5 117.51(6) . 3_455
Co1 Al6 Al5 58.39(4) . 3_456
Co2 Al6 Al5 120.48(5) . 3_456
Al1 Al6 Al5 121.45(6) 1_554 3_456
Al1 Al6 Al5 60.63(4) . 3_456
Al2 Al6 Al5 117.51(6) 1_554 3_456
Al2 Al6 Al5 57.16(4) . 3_456
Al5 Al6 Al5 89.55(6) 3_455 3_456
Co1 Al6 Al3 124.92(5) . .
Co2 Al6 Al3 56.16(4) . .
Al1 Al6 Al3 116.02(6) 1_554 .
Al1 Al6 Al3 56.15(4) . .
Al2 Al6 Al3 125.32(6) 1_554 .
Al2 Al6 Al3 65.81(4) . .
Al5 Al6 Al3 176.33(7) 3_455 .
Al5 Al6 Al3 91.26(3) 3_456 .
Co1 Al6 Al3 124.92(5) . 1_554
Co2 Al6 Al3 56.16(4) . 1_554
Al1 Al6 Al3 56.15(4) 1_554 1_554
Al1 Al6 Al3 116.02(6) . 1_554
Al2 Al6 Al3 65.81(4) 1_554 1_554
Al2 Al6 Al3 125.32(6) . 1_554
Al5 Al6 Al3 91.26(3) 3_455 1_554
Al5 Al6 Al3 176.33(7) 3_456 1_554
Al3 Al6 Al3 87.71(6) . 1_554
Co2 Al7 Mn1 146.13(7) . 3
Co2 Al7 Co1 146.13(7) . 3
Mn1 Al7 Co1 0.00(3) 3 3
Co2 Al7 Mn1 146.20(7) . 7_655
Mn1 Al7 Mn1 67.67(4) 3 7_655
Co1 Al7 Mn1 67.67(4) 3 7_655
Co2 Al7 Co1 146.20(7) . 7_655
Mn1 Al7 Co1 67.67(4) 3 7_655
Co1 Al7 Co1 67.67(4) 3 7_655
Mn1 Al7 Co1 0.00(3) 7_655 7_655
Co2 Al7 Al8 136.33(2) . 3_556
Mn1 Al7 Al8 53.09(3) 3 3_556
Co1 Al7 Al8 53.09(3) 3 3_556
Mn1 Al7 Al8 53.06(3) 7_655 3_556
Co1 Al7 Al8 53.06(3) 7_655 3_556
Co2 Al7 Al8 136.33(2) . 3
Mn1 Al7 Al8 53.09(3) 3 3
Co1 Al7 Al8 53.09(3) 3 3
Mn1 Al7 Al8 53.06(3) 7_655 3
Co1 Al7 Al8 53.06(3) 7_655 3
Al8 Al7 Al8 87.34(4) 3_556 3
Co1 Al8 Mn1 180.0 . 5_566
Co1 Al8 Co1 180.0 . 5_566
Mn1 Al8 Co1 0.00(3) 5_566 5_566
Co1 Al8 Mn1 70.15(3) . 5_565
Mn1 Al8 Mn1 109.85(3) 5_566 5_565
Co1 Al8 Mn1 109.85(3) 5_566 5_565
Co1 Al8 Co1 70.15(3) . 5_565
Mn1 Al8 Co1 109.85(3) 5_566 5_565
Co1 Al8 Co1 109.85(3) 5_566 5_565
Mn1 Al8 Co1 0.00(4) 5_565 5_565
Co1 Al8 Co1 109.85(3) . 1_556
Mn1 Al8 Co1 70.15(3) 5_566 1_556
Co1 Al8 Co1 70.15(3) 5_566 1_556
Mn1 Al8 Co1 180.00(3) 5_565 1_556
Co1 Al8 Co1 180.00(3) 5_565 1_556
Co1 Al8 Mn1 109.85(3) . 1_556
Mn1 Al8 Mn1 70.15(3) 5_566 1_556
Co1 Al8 Mn1 70.15(3) 5_566 1_556
Mn1 Al8 Mn1 180.00(3) 5_565 1_556
Co1 Al8 Mn1 180.00(3) 5_565 1_556
Co1 Al8 Mn1 0.00(3) 1_556 1_556
Co1 Al8 Al2 60.559(18) . .
Mn1 Al8 Al2 119.441(18) 5_566 .
Co1 Al8 Al2 119.441(18) 5_566 .
Mn1 Al8 Al2 119.441(18) 5_565 .
Co1 Al8 Al2 119.441(18) 5_565 .
Co1 Al8 Al2 60.559(18) 1_556 .
Mn1 Al8 Al2 60.559(18) 1_556 .
Co1 Al8 Al2 119.441(18) . 5_566
Mn1 Al8 Al2 60.558(18) 5_566 5_566
Co1 Al8 Al2 60.558(18) 5_566 5_566
Mn1 Al8 Al2 60.558(18) 5_565 5_566
Co1 Al8 Al2 60.558(18) 5_565 5_566
Co1 Al8 Al2 119.442(18) 1_556 5_566
Mn1 Al8 Al2 119.442(18) 1_556 5_566
Al2 Al8 Al2 180.0 . 5_566
Co1 Al8 Al5 119.673(18) . 7_665
Mn1 Al8 Al5 60.326(18) 5_566 7_665
Co1 Al8 Al5 60.326(18) 5_566 7_665
Mn1 Al8 Al5 60.326(19) 5_565 7_665
Co1 Al8 Al5 60.326(19) 5_565 7_665
Co1 Al8 Al5 119.674(19) 1_556 7_665
Mn1 Al8 Al5 119.674(19) 1_556 7_665
Al2 Al8 Al5 118.29(5) . 7_665
Al2 Al8 Al5 61.71(5) 5_566 7_665
Co1 Al8 Al5 60.327(18) . 3_456
Mn1 Al8 Al5 119.674(18) 5_566 3_456
Co1 Al8 Al5 119.674(18) 5_566 3_456
Mn1 Al8 Al5 119.674(19) 5_565 3_456
Co1 Al8 Al5 119.674(19) 5_565 3_456
Co1 Al8 Al5 60.326(19) 1_556 3_456
Mn1 Al8 Al5 60.326(19) 1_556 3_456
Al2 Al8 Al5 61.71(4) . 3_456
Al2 Al8 Al5 118.29(5) 5_566 3_456
Al5 Al8 Al5 180.0 7_665 3_456
Co2 Al9 Mn2 180.0 . 5
Co2 Al9 Co2 180.0 . 5
Mn2 Al9 Co2 0.00(3) 5 5
Co2 Al9 Al1 60.19(3) . .
Mn2 Al9 Al1 119.81(3) 5 .
Co2 Al9 Al1 119.81(3) 5 .
Co2 Al9 Al1 119.81(3) . 5
Mn2 Al9 Al1 60.19(3) 5 5
Co2 Al9 Al1 60.19(3) 5 5
Al1 Al9 Al1 180.0 . 5
Co2 Al9 Al1 119.81(3) . 5_556
Mn2 Al9 Al1 60.19(3) 5 5_556
Co2 Al9 Al1 60.19(3) 5 5_556
Al1 Al9 Al1 87.44(5) . 5_556
Al1 Al9 Al1 92.56(5) 5 5_556
Co2 Al9 Al1 60.19(3) . 1_554
Mn2 Al9 Al1 119.81(3) 5 1_554
Co2 Al9 Al1 119.81(3) 5 1_554
Al1 Al9 Al1 92.56(5) . 1_554
Al1 Al9 Al1 87.44(5) 5 1_554
Al1 Al9 Al1 180.00(5) 5_556 1_554
Co2 Al9 Al4 56.27(3) . 7_655
Mn2 Al9 Al4 123.73(3) 5 7_655
Co2 Al9 Al4 123.73(3) 5 7_655
Al1 Al9 Al4 56.34(4) . 7_655
Al1 Al9 Al4 123.66(4) 5 7_655
Al1 Al9 Al4 63.54(4) 5_556 7_655
Al1 Al9 Al4 116.46(4) 1_554 7_655
Co2 Al9 Al4 123.73(3) . 3_455
Mn2 Al9 Al4 56.27(3) 5 3_455
Co2 Al9 Al4 56.27(3) 5 3_455
Al1 Al9 Al4 123.66(4) . 3_455
Al1 Al9 Al4 56.34(4) 5 3_455
Al1 Al9 Al4 116.46(4) 5_556 3_455
Al1 Al9 Al4 63.54(4) 1_554 3_455
Al4 Al9 Al4 180.0 7_655 3_455
Co2 Al9 Al4 56.27(3) . 7_654
Mn2 Al9 Al4 123.73(3) 5 7_654
Co2 Al9 Al4 123.73(3) 5 7_654
Al1 Al9 Al4 116.46(4) . 7_654
Al1 Al9 Al4 63.54(4) 5 7_654
Al1 Al9 Al4 123.66(4) 5_556 7_654
Al1 Al9 Al4 56.34(4) 1_554 7_654
Al4 Al9 Al4 87.53(4) 7_655 7_654
Al4 Al9 Al4 92.47(4) 3_455 7_654
Co2 Al9 Al4 123.73(3) . 3_456
Mn2 Al9 Al4 56.27(3) 5 3_456
Co2 Al9 Al4 56.27(3) 5 3_456
Al1 Al9 Al4 63.54(4) . 3_456
Al1 Al9 Al4 116.46(4) 5 3_456
Al1 Al9 Al4 56.34(4) 5_556 3_456
Al1 Al9 Al4 123.66(4) 1_554 3_456
Al4 Al9 Al4 92.47(4) 7_655 3_456
Al4 Al9 Al4 87.53(4) 3_455 3_456
Al4 Al9 Al4 180.00(7) 7_654 3_456
loop_
_geom_bond_atom_site_label_1
_geom_bond_atom_site_label_2
_geom_bond_distance
_geom_bond_site_symmetry_2
Ce1 Al1 3.1479(12) 3_556
Ce1 Al1 3.1479(12) 3
Ce1 Al2 3.1521(12) 1_554
Ce1 Al2 3.1521(12) .
Ce1 Al5 3.1641(12) 1_554
Ce1 Al5 3.1642(12) .
Ce1 Al3 3.1921(12) .
Ce1 Al3 3.1921(12) 1_554
Ce1 Al6 3.2046(15) .
Ce1 Al4 3.2094(12) 1_554
Ce1 Al4 3.2094(12) .
Ce1 Al9 3.2865(3) 3
Co1 Al6 2.3386(16) .
Co1 Al8 2.4633(6) .
Co1 Al8 2.4633(6) 1_554
Co1 Al7 2.5405(16) 3_455
Co1 Al7 2.5440(16) 7_665
Co1 Al5 2.5780(11) 3_455
Co1 Al5 2.5780(11) 3_456
Co1 Al2 2.5841(10) .
Co1 Al2 2.5841(10) 1_554
Co1 Co1 2.8311(14) 5_565
Co1 Mn1 2.8311(14) 5_565
Co2 Al9 2.3480(6) .
Co2 Al6 2.3545(17) .
Co2 Al7 2.4649(16) .
Co2 Al3 2.5257(11) .
Co2 Al3 2.5258(11) 1_554
Co2 Al4 2.5313(11) 7_654
Co2 Al4 2.5313(11) 7_655
Co2 Al1 2.6041(11) .
Co2 Al1 2.6041(11) 1_554
Al1 Mn2 2.6041(11) 1_556
Al1 Co2 2.6041(11) 1_556
Al1 Al3 2.691(2) .
Al1 Al4 2.695(2) 7_655
Al1 Al9 2.7893(11) .
Al1 Al9 2.7893(11) 1_556
Al1 Al6 2.8057(15) .
Al1 Al6 2.8057(15) 1_556
Al1 Al5 2.862(2) 3_456
Al1 Ce1 3.1479(12) 3_455
Al2 Mn1 2.5841(10) 1_556
Al2 Co1 2.5841(10) 1_556
Al2 Al8 2.6515(15) .
Al2 Al4 2.694(2) .
Al2 Al5 2.722(2) 3_456
Al2 Al6 2.8278(15) 1_556
Al2 Al6 2.8279(15) .
Al2 Ce1 3.1521(12) 1_556
Al3 Mn2 2.5257(11) 1_556
Al3 Co2 2.5257(11) 1_556
Al3 Al5 2.712(2) .
Al3 Al4 2.743(2) 7_655
Al3 Al6 2.9097(16) .
Al3 Al6 2.9097(16) 1_556
Al3 Ce1 3.1921(12) 1_556
Al4 Mn2 2.5313(11) 7_666
Al4 Co2 2.5313(11) 7_666
Al4 Mn2 2.5313(11) 7_665
Al4 Co2 2.5313(11) 7_665
Al4 Al1 2.695(2) 7_665
Al4 Al3 2.743(2) 7_665
Al4 Al9 2.9145(11) 3_556
Al4 Al9 2.9145(11) 3
Al4 Ce1 3.2094(12) 1_556
Al5 Mn1 2.5779(11) 3
Al5 Co1 2.5779(11) 3
Al5 Mn1 2.5779(11) 3_556
Al5 Co1 2.5779(11) 3_556
Al5 Al8 2.6564(15) 3_556
Al5 Al2 2.722(2) 3_556
Al5 Al1 2.862(2) 3_556
Al5 Al6 2.8624(15) 3_556
Al5 Al6 2.8624(15) 3
Al5 Ce1 3.1642(12) 1_556
Al6 Al1 2.8057(15) 1_554
Al6 Al2 2.8279(15) 1_554
Al6 Al5 2.8624(15) 3_455
Al6 Al5 2.8624(15) 3_456
Al6 Al3 2.9097(16) 1_554
Al7 Mn1 2.5405(16) 3
Al7 Co1 2.5405(16) 3
Al7 Mn1 2.5441(16) 7_655
Al7 Co1 2.5441(16) 7_655
Al7 Al8 2.9195(11) 3_556
Al7 Al8 2.9195(11) 3
Al8 Mn1 2.4633(6) 5_566
Al8 Co1 2.4633(6) 5_566
Al8 Mn1 2.4633(6) 5_565
Al8 Co1 2.4633(6) 5_565
Al8 Co1 2.4633(6) 1_556
Al8 Mn1 2.4633(6) 1_556
Al8 Al2 2.6515(15) 5_566
Al8 Al5 2.6565(15) 7_665
Al8 Al5 2.6565(15) 3_456
Al9 Mn2 2.3480(6) 5
Al9 Co2 2.3480(6) 5
Al9 Al1 2.7893(11) 5
Al9 Al1 2.7893(11) 5_556
Al9 Al1 2.7893(11) 1_554
Al9 Al4 2.9145(11) 7_655
Al9 Al4 2.9145(11) 3_455
Al9 Al4 2.9145(11) 7_654
Al9 Al4 2.9145(11) 3_456
