#------------------------------------------------------------------------------
#$Date: 2016-03-23 23:52:22 +0200 (Wed, 23 Mar 2016) $
#$Revision: 179516 $
#$URL: svn://www.crystallography.net/cod/cif/4/34/13/4341318.cif $
#------------------------------------------------------------------------------
#
# This file is available in the Crystallography Open Database (COD),
# http://www.crystallography.net/
#
# All data on this site have been placed in the public domain by the
# contributors.
#
data_4341318
loop_
_publ_author_name
'Koppe, Karsten'
'Haner, Jamie'
'Mercier, H\'el\`ene P A'
'Frohn, Hermann-J'
'Schrobilgen, Gary J.'
_publ_section_title
;
 Xenon(IV)-Carbon Bond of [C6F5XeF2](+); Structural Characterization and
 Bonding of [C6F5XeF2][BF4], [C6F5XeF2][BF4]&#x00B7;2HF, and
 [C6F5XeF2][BF4]&#x00B7;nNCCH 3 (n = 1, 2); and the Fluorinating
 Properties of [C6F5XeF2][BF4].
;
_journal_issue                   21
_journal_name_full               'Inorganic chemistry'
_journal_page_first              11640
_journal_page_last               11661
_journal_paper_doi               10.1021/ic501831j
_journal_volume                  53
_journal_year                    2014
_chemical_formula_sum            'C6 B F11 Xe'
_chemical_formula_weight         423.17
_chemical_name_common            '(C6 F7 Xe) (B F4)'
_chemical_name_systematic
; 
 ? 
;
_space_group_IT_number           14
_symmetry_cell_setting           monoclinic
_symmetry_space_group_name_Hall  '-P 2yn'
_symmetry_space_group_name_H-M   'P 1 21/n 1'
_atom_sites_solution_primary     direct
_atom_sites_solution_secondary   difmap
_audit_creation_method           SHELXL-97
_cell_angle_alpha                90.00
_cell_angle_beta                 109.8730(10)
_cell_angle_gamma                90.00
_cell_formula_units_Z            4
_cell_length_a                   7.4707(2)
_cell_length_b                   19.0245(5)
_cell_length_c                   7.7595(2)
_cell_measurement_temperature    100(2)
_cell_measurement_theta_max      87.98
_cell_volume                     1037.15(5)
_computing_cell_refinement       'Bruker SMART'
_computing_data_collection       'Bruker SMART'
_computing_data_reduction        'Bruker SMART'
_computing_molecular_graphics    'SHELXL-97 (Sheldrick, 2008)'
_computing_publication_material  'SHELXL-97 (Sheldrick, 2008)'
_computing_structure_refinement  'SHELXL-97 (Sheldrick, 2008)'
_computing_structure_solution    'SHELXS-97 (Sheldrick, 2008)'
_diffrn_ambient_temperature      100(2)
_diffrn_measured_fraction_theta_full 0.991
_diffrn_measured_fraction_theta_max 0.983
_diffrn_measurement_device_type  'CCD area detector'
_diffrn_measurement_method       'omega scans'
_diffrn_radiation_monochromator  graphite
_diffrn_radiation_source         'fine-focus sealed tube'
_diffrn_radiation_type           MoK\a
_diffrn_radiation_wavelength     0.71073
_diffrn_reflns_av_R_equivalents  0.0000
_diffrn_reflns_av_sigmaI/netI    0.0223
_diffrn_reflns_limit_h_max       13
_diffrn_reflns_limit_h_min       -14
_diffrn_reflns_limit_k_max       37
_diffrn_reflns_limit_k_min       0
_diffrn_reflns_limit_l_max       15
_diffrn_reflns_limit_l_min       0
_diffrn_reflns_number            7971
_diffrn_reflns_theta_full        25.00
_diffrn_reflns_theta_max         43.99
_diffrn_reflns_theta_min         2.14
_exptl_absorpt_coefficient_mu    3.464
_exptl_absorpt_correction_T_max  0.7492
_exptl_absorpt_correction_T_min  0.5921
_exptl_absorpt_correction_type   multi-scan
_exptl_absorpt_process_details   'Apex2 v2.0-2 (Bruker, 2005)'
_exptl_crystal_colour            yellow
_exptl_crystal_density_diffrn    2.710
_exptl_crystal_density_method    'not measured'
_exptl_crystal_description       plates
_exptl_crystal_F_000             776
_exptl_crystal_size_max          0.27
_exptl_crystal_size_mid          0.14
_exptl_crystal_size_min          0.08
_refine_diff_density_max         6.600
_refine_diff_density_min         -1.124
_refine_diff_density_rms         0.223
_refine_ls_extinction_method     none
_refine_ls_goodness_of_fit_ref   1.468
_refine_ls_matrix_type           full
_refine_ls_number_parameters     172
_refine_ls_number_reflns         7971
_refine_ls_number_restraints     0
_refine_ls_restrained_S_all      1.468
_refine_ls_R_factor_all          0.0545
_refine_ls_R_factor_gt           0.0459
_refine_ls_shift/su_max          0.001
_refine_ls_shift/su_mean         0.000
_refine_ls_structure_factor_coef Fsqd
_refine_ls_weighting_details
'calc w=1/[\s^2^(Fo^2^)+(0.0050P)^2^+2.3909P] where P=(Fo^2^+2Fc^2^)/3'
_refine_ls_weighting_scheme      calc
_refine_ls_wR_factor_gt          0.0873
_refine_ls_wR_factor_ref         0.0887
_reflns_number_gt                6904
_reflns_number_total             7971
_reflns_threshold_expression     >2sigma(I)
_cod_data_source_file            ic501831j_si_002.cif
_cod_data_source_block           '[C6F5XeF2][BF4]'
_cod_depositor_comments
'Adding full bibliography for 4341317--4341319.cif.'
_cod_original_sg_symbol_H-M      P2(1)/n
_cod_database_code               4341318
loop_
_symmetry_equiv_pos_as_xyz
'x, y, z'
'-x+1/2, y+1/2, -z+1/2'
'-x, -y, -z'
'x-1/2, -y-1/2, z-1/2'
loop_
_atom_site_label
_atom_site_type_symbol
_atom_site_fract_x
_atom_site_fract_y
_atom_site_fract_z
_atom_site_U_iso_or_equiv
_atom_site_adp_type
_atom_site_occupancy
_atom_site_symmetry_multiplicity
_atom_site_calc_flag
Xe1 Xe 0.714534(19) 0.053688(8) 0.231107(18) 0.01738(3) Uani 1 1 d
F17 F 0.6905(2) -0.01980(8) 0.0499(2) 0.0229(3) Uani 1 1 d
F12 F 0.4028(2) 0.16044(9) 0.0229(3) 0.0272(3) Uani 1 1 d
F16 F 0.9922(2) 0.07824(11) 0.0087(2) 0.0288(3) Uani 1 1 d
F18 F 0.7327(3) 0.13725(9) 0.3760(2) 0.0271(3) Uani 1 1 d
C12 C 0.5388(3) 0.16258(12) -0.0493(3) 0.0194(3) Uani 1 1 d
C11 C 0.6991(3) 0.12035(12) 0.0176(3) 0.0171(3) Uani 1 1 d
F3 F 0.8841(3) -0.11756(11) 0.6228(3) 0.0320(4) Uani 1 1 d
F4 F 0.8374(3) 0.00094(11) 0.5941(3) 0.0317(4) Uani 1 1 d
C16 C 0.8440(3) 0.12012(14) -0.0561(3) 0.0202(4) Uani 1 1 d
F15 F 0.9691(3) 0.16880(13) -0.2683(2) 0.0354(4) Uani 1 1 d
F13 F 0.3709(3) 0.24565(10) -0.2678(3) 0.0339(4) Uani 1 1 d
F1 F 0.6598(3) -0.07034(11) 0.3709(2) 0.0355(4) Uani 1 1 d
C15 C 0.8297(4) 0.16563(16) -0.1996(3) 0.0240(4) Uani 1 1 d
C13 C 0.5252(4) 0.20662(13) -0.1953(4) 0.0229(4) Uani 1 1 d
F2 F 0.6158(3) -0.06891(14) 0.6481(3) 0.0430(5) Uani 1 1 d
F14 F 0.6541(3) 0.25032(11) -0.4082(3) 0.0353(4) Uani 1 1 d
C14 C 0.6702(4) 0.20798(15) -0.2689(4) 0.0248(4) Uani 1 1 d
B1 B 0.7479(4) -0.06524(18) 0.5620(4) 0.0242(5) Uani 1 1 d
loop_
_atom_site_aniso_label
_atom_site_aniso_U_11
_atom_site_aniso_U_22
_atom_site_aniso_U_33
_atom_site_aniso_U_23
_atom_site_aniso_U_13
_atom_site_aniso_U_12
Xe1 0.01535(5) 0.02087(6) 0.01604(5) -0.00123(5) 0.00550(4) -0.00143(4)
F17 0.0232(6) 0.0215(6) 0.0244(7) -0.0055(5) 0.0085(5) 0.0020(5)
F12 0.0213(6) 0.0259(7) 0.0405(9) 0.0036(7) 0.0181(6) 0.0055(6)
F16 0.0173(6) 0.0464(10) 0.0235(7) 0.0042(7) 0.0080(5) 0.0105(6)
F18 0.0319(8) 0.0282(8) 0.0238(7) -0.0110(6) 0.0131(6) -0.0072(6)
C12 0.0175(8) 0.0163(8) 0.0257(9) -0.0006(7) 0.0090(7) 0.0010(6)
C11 0.0153(7) 0.0194(8) 0.0174(7) -0.0007(6) 0.0064(6) 0.0004(6)
F3 0.0256(8) 0.0357(9) 0.0318(8) 0.0025(7) 0.0060(6) 0.0046(7)
F4 0.0326(9) 0.0340(9) 0.0257(8) -0.0023(7) 0.0062(7) -0.0058(7)
C16 0.0156(8) 0.0289(10) 0.0166(8) -0.0006(7) 0.0062(6) 0.0011(7)
F15 0.0246(7) 0.0628(13) 0.0232(7) 0.0036(8) 0.0137(6) -0.0051(8)
F13 0.0299(8) 0.0233(7) 0.0472(11) 0.0128(7) 0.0115(8) 0.0113(6)
F1 0.0439(10) 0.0332(9) 0.0200(7) 0.0018(6) -0.0013(7) -0.0119(8)
C15 0.0197(9) 0.0349(12) 0.0184(8) -0.0010(8) 0.0079(7) -0.0056(8)
C13 0.0221(9) 0.0172(8) 0.0283(10) 0.0035(8) 0.0072(8) 0.0024(7)
F2 0.0317(9) 0.0594(14) 0.0484(12) 0.0177(10) 0.0271(9) 0.0071(9)
F14 0.0402(10) 0.0346(9) 0.0311(9) 0.0124(7) 0.0123(8) -0.0041(8)
C14 0.0258(10) 0.0249(10) 0.0226(10) 0.0036(8) 0.0069(8) -0.0045(8)
B1 0.0176(9) 0.0339(14) 0.0212(10) 0.0033(9) 0.0066(8) -0.0016(9)
loop_
_atom_type_symbol
_atom_type_description
_atom_type_scat_dispersion_real
_atom_type_scat_dispersion_imag
_atom_type_scat_source
C C 0.0033 0.0016 'International Tables Vol C Tables 4.2.6.8 and 6.1.1.4'
B B 0.0013 0.0007 'International Tables Vol C Tables 4.2.6.8 and 6.1.1.4'
F F 0.0171 0.0103 'International Tables Vol C Tables 4.2.6.8 and 6.1.1.4'
Xe Xe -0.4205 1.9578 'International Tables Vol C Tables 4.2.6.8 and 6.1.1.4'
loop_
_geom_angle_atom_site_label_1
_geom_angle_atom_site_label_2
_geom_angle_atom_site_label_3
_geom_angle
F18 Xe1 F17 170.22(7)
F18 Xe1 C11 86.27(8)
F17 Xe1 C11 83.97(8)
F12 C12 C13 121.0(2)
F12 C12 C11 121.0(2)
C13 C12 C11 118.1(2)
C16 C11 C12 122.9(2)
C16 C11 Xe1 119.50(17)
C12 C11 Xe1 117.59(16)
F16 C16 C15 120.7(2)
F16 C16 C11 121.2(2)
C15 C16 C11 118.2(2)
F15 C15 C16 119.7(2)
F15 C15 C14 120.5(2)
C16 C15 C14 119.7(2)
F13 C13 C12 119.8(2)
F13 C13 C14 120.2(2)
C12 C13 C14 119.9(2)
F14 C14 C15 119.9(2)
F14 C14 C13 118.8(3)
C15 C14 C13 121.2(2)
F2 B1 F3 111.4(2)
F2 B1 F4 109.7(3)
F3 B1 F4 109.4(2)
F2 B1 F1 110.8(2)
F3 B1 F1 109.6(3)
F4 B1 F1 105.8(2)
loop_
_geom_bond_atom_site_label_1
_geom_bond_atom_site_label_2
_geom_bond_distance
Xe1 F18 1.9252(16)
Xe1 F17 1.9475(15)
Xe1 C11 2.058(2)
F12 C12 1.317(3)
F16 C16 1.317(3)
C12 C13 1.384(4)
C12 C11 1.388(3)
C11 C16 1.386(3)
F3 B1 1.386(4)
F4 B1 1.407(4)
C16 C15 1.386(4)
F15 C15 1.323(3)
F13 C13 1.325(3)
F1 B1 1.406(3)
C15 C14 1.387(4)
C13 C14 1.386(4)
F2 B1 1.369(3)
F14 C14 1.320(3)
