#------------------------------------------------------------------------------
#$Date: 2016-03-24 00:09:19 +0200 (Thu, 24 Mar 2016) $
#$Revision: 179525 $
#$URL: svn://www.crystallography.net/cod/cif/4/34/22/4342220.cif $
#------------------------------------------------------------------------------
#
# This file is available in the Crystallography Open Database (COD),
# http://www.crystallography.net/
#
# All data on this site have been placed in the public domain by the
# contributors.
#
data_4342220
loop_
_publ_author_name
'Nalbandyan, Vladimir B.'
'Zvereva, Elena A.'
'Nikulin, Alexey Yu'
'Shukaev, Igor L.'
'Whangbo, Myung-Hwan'
'Koo, Hyun-Joo'
'Abdel-Hafiez, Mahmoud'
'Chen, Xiao-Jia'
'Koo, Changhyun'
'Vasiliev, Alexander N.'
'Klingeler, R\"udiger'
_publ_section_title
;
 New Phase of MnSb2O6 Prepared by Ion Exchange: Structural, Magnetic, and
 Thermodynamic Properties.
;
_journal_issue                   4
_journal_name_full               'Inorganic chemistry'
_journal_page_first              1705
_journal_page_last               1711
_journal_paper_doi               10.1021/ic502666c
_journal_volume                  54
_journal_year                    2015
_chemical_formula_sum            'Mn O6 Sb2'
_chemical_formula_weight         394.43
_space_group_IT_number           162
_symmetry_cell_setting           hexagonal
_symmetry_space_group_name_Hall  '-P 3 2'
_symmetry_space_group_name_H-M   'P -3 1 m'
_audit_creation_date             2014-09-19T16:53
_audit_creation_method           'from EXP file using GSAS2CIF'
_audit_update_record
;
2014-09-19T16:53  Initial CIF as created by GSAS2CIF

2015-01-08 # Formatted by publCIF
;
_cell_angle_alpha                90.0
_cell_angle_beta                 90.0
_cell_angle_gamma                120.0
_cell_formula_units_Z            1
_cell_length_a                   5.20649(9)
_cell_length_b                   5.20649
_cell_length_c                   4.66276(15)
_cell_measurement_temperature    298
_cell_volume                     109.462(4)
_computing_data_collection       WinXRD
_computing_structure_refinement  GSAS
_diffrn_ambient_temperature      298
_diffrn_measurement_device_type  ARL'Xtra
_diffrn_radiation_polarisn_ratio 0.716
_diffrn_radiation_probe          x-ray
_exptl_absorpt_correction_T_max  1.00000
_exptl_absorpt_correction_T_min  1.00000
_exptl_absorpt_process_details
;   GSAS Absorption/surface roughness correction: function number 0
 No correction is applied.
;
_exptl_crystal_density_diffrn    5.983
_pd_block_id                     2014-09-19T16:53|MNSB2O6_ILS_VAR5|ILS|ARL
_pd_calc_method                  'Rietveld Refinement'
_pd_char_colour                  pink
_pd_meas_2theta_range_inc        0.02
_pd_meas_2theta_range_max        109.98
_pd_meas_2theta_range_min        16.0
_pd_meas_number_of_points        4700
_pd_meas_scan_method             continues
_pd_phase_name                   MnSb2O6
_pd_prep_pressure                100
_pd_prep_temperature             740
_pd_proc_2theta_range_inc        0.02
_pd_proc_2theta_range_max        109.98066
_pd_proc_2theta_range_min        16.00066
_pd_proc_info_datetime           2014-09-19T16:53:41
_pd_proc_ls_background_function
;
GSAS Background function number 1 with 18 terms.
Shifted Chebyshev function of 1st kind
      1:    172.448     2:   -177.816     3:    118.808     4:   -56.4286    
      5:    35.4543     6:   -16.6645     7:    2.68368     8:    5.73466    
      9:   -10.4706    10:    11.4592    11:   -14.2488    12:    18.0616    
     13:   -16.0721    14:    15.3613    15:   -11.9503    16:    10.0384    
     17:   -5.66191    18:    6.48526
;
_pd_proc_ls_peak_cutoff          0.00040
_pd_proc_ls_pref_orient_corr
;   March-Dollase
 AXIS  1 Ratio=   0.97588  h= 0.000  k= 0.000  l= 1.000
 Prefered orientation correction range: Min=   0.96404, Max=   1.07600
;
_pd_proc_ls_profile_function
;
 CW Profile function number 2 with  18 terms
 Profile coefficients for Simpson's rule integration of pseudovoigt function
 C.J. Howard (1982). J. Appl. Cryst.,15,615-620.
 P. Thompson, D.E. Cox & J.B. Hastings (1987). J. Appl. Cryst.,20,79-83.
 Peak tails are ignored  where the intensity is below 0.0004 times the peak
   Aniso. broadening axis   0.0   0.0   1.0
;
_pd_proc_ls_prof_R_factor        0.0761
_pd_proc_ls_prof_wR_expected     0.0545
_pd_proc_ls_prof_wR_factor       0.0968
_pd_proc_number_of_points        4700
_refine_ls_goodness_of_fit_all   1.79
_refine_ls_matrix_type           full
_refine_ls_number_parameters     46
_refine_ls_number_restraints     0
_refine_ls_R_Fsqd_factor         0.01948
_refine_ls_shift/su_max          0.07
_refine_ls_shift/su_mean         0.01
_reflns_d_resolution_high        0.946
_reflns_d_resolution_low         4.663
_reflns_limit_h_max              5
_reflns_limit_h_min              0
_reflns_limit_k_max              3
_reflns_limit_k_min              0
_reflns_limit_l_max              5
_reflns_limit_l_min              -5
_reflns_number_total             61
_cod_data_source_file            ic502666c_si_002.cif
_cod_data_source_block           MnSb2O6_publ
_cod_depositor_comments          'Adding full bibliography for 4342220.cif.'
_cod_original_cell_volume        109.462(5)
_cod_database_code               4342220
#BEGIN Tags that were not found in dictionaries:
_publcif_datablock.id            {3ee4c039-71da-4f34-92bc-123f9b7a7c7d}
_publcif_info_exptl_table_max_cols 4
_publcif_info_exptl_table_use_headnotes n
#END Tags that were not found in dictionaries
loop_
_symmetry_equiv_pos_site_id
_symmetry_equiv_pos_as_xyz
1 +x,+y,+z
2 -y,x-y,+z
3 y-x,-x,+z
4 +y,+x,+z
5 -x,y-x,+z
6 x-y,-y,+z
-1 -x,-y,-z
-2 +y,y-x,-z
-3 x-y,+x,-z
-4 -y,-x,-z
-5 +x,x-y,-z
-6 y-x,+y,-z
loop_
_atom_site_aniso_label
_atom_site_aniso_U_11
_atom_site_aniso_U_12
_atom_site_aniso_U_13
_atom_site_aniso_U_22
_atom_site_aniso_U_23
_atom_site_aniso_U_33
Sb1 0.01065(20) 0.00533(10) 0.0 0.01065(20) 0.0 0.0087(4)
loop_
_atom_site_type_symbol
_atom_site_label
_atom_site_fract_x
_atom_site_fract_y
_atom_site_fract_z
_atom_site_occupancy
_atom_site_thermal_displace_type
_atom_site_U_iso_or_equiv
_atom_site_symmetry_multiplicity
Mn Mn1 0.0 0.0 0.0 1.0 Uiso 0.0101(7) 1
Sb Sb1 0.33333 0.66667 0.5 1.0 Uani 0.00999 2
O O1 0.3565(10) 0.0 0.2677(8) 1.0 Uiso 0.0219(16) 6
loop_
_atom_type_symbol
_atom_type_number_in_cell
_atom_type_scat_dispersion_real
_atom_type_scat_dispersion_imag
_atom_type_scat_Cromer_Mann_a1
_atom_type_scat_Cromer_Mann_a2
_atom_type_scat_Cromer_Mann_a3
_atom_type_scat_Cromer_Mann_a4
_atom_type_scat_Cromer_Mann_b1
_atom_type_scat_Cromer_Mann_b2
_atom_type_scat_Cromer_Mann_b3
_atom_type_scat_Cromer_Mann_b4
_atom_type_scat_Cromer_Mann_c
_atom_type_scat_source
Mn 1.0 0.000 0.000 11.2819 5.34090 7.35730 0.34320 3.01930 17.8674 2.24410
83.7543 1.08960 International_Tables_Vol_C
Sb 2.0 0.000 0.000 19.6418 5.30340 19.0455 0.46070 5.03710 27.9074 2.68270
75.2825 4.59090 International_Tables_Vol_C
O 6.0 0.000 0.000 3.04850 13.2771 2.28680 5.70110 1.54630 0.32390 0.86700
32.9089 0.25080 International_Tables_Vol_C
loop_
_diffrn_radiation_wavelength
_diffrn_radiation_wavelength_wt
_diffrn_radiation_type
_diffrn_radiation_wavelength_id
1.540560 1.000 'Cu Ka' 1
1.544390 0.500 'Cu Ka' 2
loop_
_geom_angle_atom_site_label_1
_geom_angle_atom_site_label_2
_geom_angle_atom_site_label_3
_geom_angle
_geom_angle_site_symmetry_1
_geom_angle_site_symmetry_3
_geom_angle_publ_flag
Sb1 Sb1 Sb1 119.9999 4_455 4_555 n
Sb1 Sb1 Sb1 120.0002 4_455 4_565 n
Sb1 Sb1 O1 92.99(14) 4_455 1_565 n
Sb1 Sb1 O1 41.20(10) 4_455 2_555 n
Sb1 Sb1 O1 134.44(14) 4_455 3_665 n
Sb1 Sb1 O1 134.44(14) 4_455 -1_666 n
Sb1 Sb1 O1 41.21(10) 4_455 -2_566 n
Sb1 Sb1 O1 92.99(14) 4_455 -3_556 n
Sb1 Sb1 Sb1 119.9999 4_555 4_565 n
Sb1 Sb1 O1 134.44(14) 4_555 1_565 n
Sb1 Sb1 O1 92.99(14) 4_555 2_555 n
Sb1 Sb1 O1 41.20(10) 4_555 3_665 n
Sb1 Sb1 O1 92.99(14) 4_555 -1_666 n
Sb1 Sb1 O1 134.44(14) 4_555 -2_566 n
Sb1 Sb1 O1 41.20(10) 4_555 -3_556 n
Sb1 Sb1 O1 41.21(10) 4_565 1_565 n
Sb1 Sb1 O1 134.44(14) 4_565 2_555 n
Sb1 Sb1 O1 92.99(14) 4_565 3_665 n
Sb1 Sb1 O1 41.20(10) 4_565 -1_666 n
Sb1 Sb1 O1 92.99(14) 4_565 -2_566 n
Sb1 Sb1 O1 134.44(14) 4_565 -3_556 n
O1 Sb1 O1 93.38(14) 1_565 2_555 n
O1 Sb1 O1 93.38(14) 1_565 3_665 n
O1 Sb1 O1 82.41(19) 1_565 -1_666 n
O1 Sb1 O1 91.13(29) 1_565 -2_566 n
O1 Sb1 O1 174.01(27) 1_565 -3_556 n
O1 Sb1 O1 93.38(14) 2_555 3_665 n
O1 Sb1 O1 174.01(27) 2_555 -1_666 n
O1 Sb1 O1 82.41(19) 2_555 -2_566 n
O1 Sb1 O1 91.13(29) 2_555 -3_556 n
O1 Sb1 O1 91.13(29) 3_665 -1_666 n
O1 Sb1 O1 174.01(27) 3_665 -2_566 n
O1 Sb1 O1 82.41(19) 3_665 -3_556 n
O1 Sb1 O1 93.38(14) -1_666 -2_566 n
O1 Sb1 O1 93.38(14) -1_666 -3_556 n
O1 Sb1 O1 93.38(14) -2_566 -3_556 n
Sb1 O1 Sb1 97.59(19) 1_545 4_555 n
loop_
_geom_bond_atom_site_label_1
_geom_bond_atom_site_label_2
_geom_bond_distance
_geom_bond_site_symmetry_2
_geom_bond_publ_flag
Mn1 O1 2.237(5) 1_555 n
Mn1 O1 2.237(5) 2_555 n
Mn1 O1 2.237(5) 3_555 n
Mn1 O1 2.237(5) -1_555 n
Mn1 O1 2.237(5) -2_555 n
Mn1 O1 2.237(5) -3_555 n
Sb1 Sb1 3.00597(5) 4_455 n
Sb1 Sb1 3.00598(5) 4_555 n
Sb1 Sb1 3.00597(5) 4_565 n
Sb1 O1 1.9977(29) 1_565 n
Sb1 O1 1.9977(29) 2_555 n
Sb1 O1 1.9977(29) 3_665 n
Sb1 O1 1.9977(29) -1_666 n
Sb1 O1 1.9977(29) -2_566 n
Sb1 O1 1.9977(29) -3_556 n
O1 Mn1 2.237(5) 1_555 n
O1 Sb1 1.9977(29) 1_545 n
O1 Sb1 1.9977(29) 4_555 n
loop_
_refln_index_h
_refln_index_k
_refln_index_l
_pd_refln_wavelength_id
_refln_observed_status
_refln_F_squared_meas
_refln_F_squared_calc
_refln_phase_calc
_refln_d_spacing
_refln_intensity_meas
0 0 1 1 o 6025.005 5682.630 180.00 4.66275 56.69
0 0 1 2 o 5657.068 5682.630 180.00 4.66275 26.52
1 0 0 1 o 748.623 752.785 180.00 4.50895 18.11
1 0 0 2 o 812.989 752.785 180.00 4.50895 9.75
1 0 1 1 o 4044.660 4036.741 0.00 3.24132 100.00
1 0 1 2 o 4232.937 4036.741 0.00 3.24132 52.06
0 0 2 1 o 4688.425 4424.194 0.00 2.33138 10.49
0 0 2 2 o 4624.612 4424.194 0.00 2.33138 5.15
1 1 0 1 o 6987.171 6916.496 0.00 2.60325 52.58
1 1 0 2 o 6821.306 6916.496 0.00 2.60325 25.54
1 1 1 1 o 6958.285 6703.791 180.00 2.27299 41.05
1 1 -1 1 o 1112.938 1070.582 180.00 2.27299 6.88
1 1 1 2 o 6747.978 6703.791 180.00 2.27299 19.82
1 1 -1 2 o 1077.112 1070.582 180.00 2.27299 3.32
1 0 2 1 o 318.031 325.853 180.00 2.07093 3.44
1 0 2 2 o 322.592 325.853 180.00 2.07093 1.74
2 0 0 1 o 220.608 233.597 180.00 2.25448 1.33
2 0 0 2 o 217.800 233.597 180.00 2.25448 0.66
2 0 1 1 o 2758.913 2767.111 0.00 2.02968 24.98
2 0 1 2 o 2845.957 2767.111 0.00 2.02968 12.81
1 1 2 1 o 9624.896 9534.386 0.00 1.73672 32.94
1 1 2 2 o 9664.561 9534.386 0.00 1.73672 16.45
1 1 -2 1 o 8058.550 7989.998 0.00 1.73672 27.60
1 1 -2 2 o 8095.984 7989.998 0.00 1.73672 13.79
2 0 2 1 o 468.625 471.088 180.00 1.62066 2.90
0 0 3 1 o 1970.947 1921.719 180.00 1.55425 1.95
2 0 2 2 o 471.466 471.088 180.00 1.62066 1.45
0 0 3 2 o 1975.638 1921.719 180.00 1.55425 0.97
2 1 0 1 o 312.845 322.265 180.00 1.70422 2.07
2 1 0 2 o 304.183 322.265 180.00 1.70422 1.00
1 0 3 1 o 1938.548 1913.131 0.00 1.46940 9.76
2 1 1 1 o 2517.453 2542.689 0.00 1.60066 13.81
1 0 3 2 o 1994.990 1913.131 0.00 1.46940 5.00
2 1 1 2 o 2554.695 2542.689 0.00 1.60066 6.97
2 1 -1 1 o 1775.905 1794.168 0.00 1.60066 9.76
2 1 -1 2 o 1803.254 1794.168 0.00 1.60066 4.93
3 0 1 1 o 2491.658 2348.641 180.00 1.43050 11.27
3 0 0 1 o 8856.146 8532.655 0.00 1.50298 21.25
1 1 -3 1 o 3492.738 3599.464 180.00 1.33450 7.41
1 1 3 1 o 1228.340 1266.445 180.00 1.33450 2.67
3 0 1 2 o 2326.476 2348.641 180.00 1.43050 5.25
3 0 0 2 o 8483.190 8532.655 0.00 1.50298 10.13
1 1 -3 2 o 3532.573 3599.464 180.00 1.33450 3.73
1 1 3 2 o 1242.434 1266.445 180.00 1.33450 1.34
2 1 -2 1 o 274.436 261.789 180.00 1.37583 1.22
2 1 2 1 o 325.421 310.320 180.00 1.37583 1.44
2 1 -2 2 o 281.424 261.789 180.00 1.37583 0.62
2 1 2 2 o 333.164 310.320 180.00 1.37583 0.73
2 0 3 1 o 1727.395 1634.586 0.00 1.27963 6.57
2 0 3 2 o 1743.351 1634.586 0.00 1.27963 3.30
3 0 2 1 o 2981.076 2859.412 0.00 1.26323 10.79
3 0 2 2 o 2960.626 2859.412 0.00 1.26323 5.34
0 0 4 1 o 5471.097 5426.655 0.00 1.16569 3.13
0 0 4 2 o 5419.209 5426.655 0.00 1.16569 1.54
1 0 4 1 o 253.720 250.112 180.00 1.12858 0.88
1 0 4 2 o 257.403 250.112 180.00 1.12858 0.44
2 2 0 1 o 3766.852 3706.975 0.00 1.30162 6.93
2 2 1 1 o 941.358 953.467 180.00 1.25369 1.72
2 2 -1 1 o 2743.555 2777.521 180.00 1.25369 4.86
2 2 0 2 o 3472.520 3706.975 0.00 1.30162 3.18
2 2 -1 2 o 2601.532 2777.521 180.00 1.25369 2.30
2 2 1 2 o 891.634 953.467 180.00 1.25369 0.81
2 1 3 1 o 1141.447 1131.146 0.00 1.14839 3.64
2 1 3 2 o 1156.425 1131.146 0.00 1.14839 1.83
2 1 -3 1 o 1471.253 1457.505 0.00 1.14839 4.67
2 1 -3 2 o 1491.106 1457.505 0.00 1.14839 2.36
3 1 1 1 o 1184.360 1174.263 0.00 1.20787 3.85
3 1 1 2 o 1141.885 1174.263 0.00 1.20787 1.85
3 1 0 1 o 306.359 330.679 180.00 1.25056 1.11
3 1 -1 1 o 1674.166 1660.515 0.00 1.20787 5.42
3 1 0 2 o 290.990 330.679 180.00 1.25056 0.53
3 1 -1 2 o 1613.018 1660.515 0.00 1.20787 2.60
1 1 -4 1 o 3183.539 3189.666 0.00 1.06390 4.87
1 1 4 1 o 2397.429 2401.670 0.00 1.06390 3.69
1 1 4 2 o 2539.919 2401.670 0.00 1.06390 1.95
1 1 -4 2 o 3372.973 3189.666 0.00 1.06390 2.57
2 2 -2 1 o 4528.121 4524.580 0.00 1.13649 6.91
2 2 2 1 o 3996.698 3992.935 0.00 1.13649 6.11
2 2 2 2 o 3988.674 3992.935 0.00 1.13649 3.04
2 2 -2 2 o 4518.937 4524.580 0.00 1.13649 3.44
3 0 3 1 o 1158.223 1212.093 180.00 1.08044 3.58
3 0 3 2 o 1162.294 1212.093 180.00 1.08044 1.79
2 0 4 1 o 156.411 151.942 180.00 1.03546 0.50
2 0 4 2 o 156.842 151.942 180.00 1.03546 0.25
3 1 -2 1 o 165.051 158.986 180.00 1.10203 0.52
3 1 2 1 o 134.743 129.720 180.00 1.10203 0.43
3 1 2 2 o 135.312 129.720 180.00 1.10203 0.22
3 1 -2 2 o 165.803 158.986 180.00 1.10203 0.26
4 0 1 1 o 1222.752 1165.787 0.00 1.09567 3.49
4 0 1 2 o 1210.723 1165.787 0.00 1.09567 1.72
4 0 0 1 o 302.410 297.440 180.00 1.12724 0.47
4 0 0 2 o 312.284 297.440 180.00 1.12724 0.24
2 2 3 1 o 1912.991 1878.647 180.00 0.99791 2.77
2 2 3 2 o 1980.230 1878.647 180.00 0.99791 1.43
2 1 4 1 o 152.073 145.675 180.00 0.96215 0.48
2 1 -4 1 o 191.667 183.554 180.00 0.96215 0.59
2 1 4 2 o 150.132 145.675 180.00 0.96215 0.24
2 1 -4 2 o 189.257 183.554 180.00 0.96215 0.29
2 2 -3 1 o 895.726 879.507 180.00 0.99791 1.32
2 2 -3 2 o 928.233 879.507 180.00 0.99791 0.68
4 0 2 1 o 109.567 115.765 180.00 1.01484 0.33
3 1 3 1 o 971.651 994.298 0.00 0.97433 2.72
4 0 2 2 o 113.129 115.765 180.00 1.01484 0.17
3 1 3 2 o 1001.335 994.298 0.00 0.97433 1.40
3 1 -3 1 o 733.172 750.678 0.00 0.97433 2.06
3 1 -3 2 o 756.239 750.678 0.00 0.97433 1.06
3 2 1 1 o 864.630 861.815 0.00 1.00987 2.34
3 2 -1 1 o 1027.134 1023.669 0.00 1.00987 2.78
3 2 -1 2 o 1042.463 1023.669 0.00 1.00987 1.41
3 2 1 2 o 877.507 861.815 0.00 1.00987 1.19
3 2 0 2 o 113.143 107.871 180.00 1.03442 0.17
3 2 0 1 o 112.141 107.871 180.00 1.03442 0.33
3 2 -2 1 o 230.975 220.593 180.00 0.94553 0.68
3 2 2 1 o 215.106 205.597 180.00 0.94553 0.63
3 2 -2 2 o 229.859 220.593 180.00 0.94553 0.34
3 2 2 2 o 214.141 205.597 180.00 0.94553 0.32
4 1 -1 1 o 750.623 709.005 180.00 0.96273 2.14
4 1 1 1 o 1609.006 1522.500 180.00 0.96273 4.49
4 1 -1 2 o 751.644 709.005 180.00 0.96273 1.07
4 1 1 2 o 1610.636 1522.500 180.00 0.96273 2.25
4 1 0 1 o 2222.431 2256.084 0.00 0.98393 6.04
4 1 0 2 o 2139.929 2256.084 0.00 0.98393 2.91
#BEGIN Loops that were not found in dictionaries:
loop_
_publcif_info_datablock.id
_publcif_info_datablock.publ_exptl
_publcif_info_datablock.publ_geom
_publcif_info_datablock.structure
{3ee4c039-71da-4f34-92bc-123f9b7a7c7d} y y y
loop_
_publcif_info_tables.block_id
_publcif_info_tables.reference_item
{3ee4c039-71da-4f34-92bc-123f9b7a7c7d} '_publcif_info_datablock.publ_exptl'
loop_
_publcif_info_cif.paper_type
CE
#END Loops that were not found in dictionaries
