#------------------------------------------------------------------------------
#$Date: 2016-02-13 14:50:18 +0200 (Sat, 13 Feb 2016) $
#$Revision: 176428 $
#$URL: svn://www.crystallography.net/cod/cif/4/34/35/4343597.cif $
#------------------------------------------------------------------------------
#
# This file is available in the Crystallography Open Database (COD),
# http://www.crystallography.net/
#
# All data on this site have been placed in the public domain by the
# contributors.
#
data_4343597
loop_
_publ_author_name
'le Berre, F.'
'Hamard, C.'
'Pena, O.'
'Wojakowski, A.'
_publ_section_title
;
 Structural studies on single crystals of Chevrel phase selenides RE Mo6
 Se8 (RE= La, Ce, Pr, Nd, or Sm) at 298 K
;
_journal_name_full               'Inorganic Chemistry'
_journal_page_first              1100
_journal_page_last               1105
_journal_volume                  39
_journal_year                    2000
_chemical_formula_sum            'Mo6 Se8 Sm0.87'
_chemical_name_systematic        'Sm0.87 Mo6 Se8'
_space_group_IT_number           148
_symmetry_space_group_name_Hall  '-P 3*'
_symmetry_space_group_name_H-M   'R -3 :R'
_cell_angle_alpha                88.956
_cell_angle_beta                 88.956
_cell_angle_gamma                88.956
_cell_formula_units_Z            1
_cell_length_a                   6.7182
_cell_length_b                   6.7182
_cell_length_c                   6.7182
_cell_volume                     303.071
_citation_journal_id_ASTM        INOCAJ
_cod_data_source_file            leBerre_INOCAJ_2000_1116.cif
_cod_data_source_block           Mo6Se8Sm0.87
_cod_original_cell_volume        303.0715
_cod_original_sg_symbol_Hall     '-R 3 (-y+z,x+z,-x+y+z)'
_cod_database_code               4343597
loop_
_symmetry_equiv_pos_as_xyz
x,y,z
z,x,y
y,z,x
-x,-y,-z
-z,-x,-y
-y,-z,-x
loop_
_atom_site_label
_atom_site_type_symbol
_atom_site_fract_x
_atom_site_fract_y
_atom_site_fract_z
_atom_site_occupancy
_atom_site_U_iso_or_equiv
Mo1 Mo+2 0.23259 0.42285 0.55977 1 0.0
Sm1 Sm+3 0 0 0 0.871 0.0
Se1 Se-2 0.37394 0.12178 0.75603 1 0.0
Se2 Se-2 0.76172 0.76172 0.76172 1 0.0
