#------------------------------------------------------------------------------
#$Date: 2015-07-08 23:43:11 +0300 (Wed, 08 Jul 2015) $
#$Revision: 141347 $
#$URL: svn://www.crystallography.net/cod/cif/4/34/33/4343328.cif $
#------------------------------------------------------------------------------
#
# This file is available in the Crystallography Open Database (COD),
# http://www.crystallography.net/
#
# All data on this site have been placed in the public domain by the
# contributors.
#
data_4343328
loop_
_publ_author_name
'Ade, Martin'
'Hillebrecht, Harald'
_publ_section_title
;
 Ternary Borides Cr2AlB2, Cr3AlB4, and Cr4AlB6: The First Members of the
 Series (CrB2)nCrAl with n = 1, 2, 3 and a Unifying Concept for Ternary
 Borides as MAB-Phases.
;
_journal_issue                   13
_journal_name_full               'Inorganic chemistry'
_journal_page_first              6122
_journal_page_last               6135
_journal_paper_doi               10.1021/acs.inorgchem.5b00049
_journal_volume                  54
_journal_year                    2015
_chemical_formula_sum            'Al B4 Cr3'
_chemical_formula_weight         226.22
_chemical_name_systematic
;
 ?
;
_space_group_crystal_system      orthorhombic
_space_group_IT_number           47
_space_group_name_Hall           '-P 2 2'
_space_group_name_H-M_alt        'P m m m'
_symmetry_space_group_name_Hall  '-P 2 2'
_symmetry_space_group_name_H-M   'P m m m'
_audit_creation_method           SHELXL-2013
_cell_angle_alpha                90
_cell_angle_beta                 90
_cell_angle_gamma                90
_cell_formula_units_Z            1
_cell_length_a                   2.9556(4)
_cell_length_b                   2.9778(5)
_cell_length_c                   8.0539(14)
_cell_measurement_reflns_used    1557
_cell_measurement_temperature    293(2)
_cell_measurement_theta_max      70
_cell_measurement_theta_min      6
_cell_volume                     70.88(2)
_computing_cell_refinement       'Software for IPDS-II, Fa. Stoe'
_computing_data_collection       'Software for IPDS-II, Fa. Stoe'
_computing_data_reduction        'Software for IPDS-II, Fa. Stoe'
_computing_molecular_graphics    'Diamond (Crystal impact, 2005)'
_computing_publication_material  'SHELXL-97_(Sheldrick, 2008)'
_computing_structure_refinement  'SHELXL-2013 (Sheldrick, 2013)'
_computing_structure_solution    'SHELXS-97 (Sheldrick, 2008)'
_diffrn_ambient_temperature      293(2)
_diffrn_measured_fraction_theta_full 0.970
_diffrn_measured_fraction_theta_max 0.986
_diffrn_measurement_details
; 
0 degree < omega < 200 degree
psi = 0 degree,
delta omega 2 degree
exposure time 180s 
;
_diffrn_measurement_device       '2-circle goniometer'
_diffrn_measurement_device_type  'STOE IPDS II'
_diffrn_measurement_method       'rotation method'
_diffrn_radiation_collimation    '0.5 mm diameter, multiple pinhole'
_diffrn_radiation_monochromator  'plane graphite'
_diffrn_radiation_polarisn_norm  0
_diffrn_radiation_type           MoK\a
_diffrn_radiation_wavelength     0.71073
_diffrn_reflns_av_unetI/netI     0.0174
_diffrn_reflns_laue_measured_fraction_full 0.970
_diffrn_reflns_laue_measured_fraction_max 0.986
_diffrn_reflns_limit_h_max       4
_diffrn_reflns_limit_h_min       -4
_diffrn_reflns_limit_k_max       4
_diffrn_reflns_limit_k_min       -4
_diffrn_reflns_limit_l_max       12
_diffrn_reflns_limit_l_min       -12
_diffrn_reflns_number            1557
_diffrn_reflns_point_group_measured_fraction_full 0.970
_diffrn_reflns_point_group_measured_fraction_max 0.986
_diffrn_reflns_theta_full        25.242
_diffrn_reflns_theta_max         34.962
_diffrn_reflns_theta_min         6.854
_diffrn_source
'sealed X-ray tube, 12 x 0.4 mm long-fine focus'
_diffrn_source_current           40
_diffrn_source_power             2.00
_diffrn_source_voltage           50
_exptl_absorpt_coefficient_mu    11.280
_exptl_absorpt_correction_type   numerical
_exptl_absorpt_process_details   'X-Red and X-SHAPE  (Stoe & Cie, 1999)'
_exptl_crystal_colour            black
_exptl_crystal_density_diffrn    5.299
_exptl_crystal_description       flat_rod
_exptl_crystal_F_000             105
_exptl_crystal_size_max          0.25
_exptl_crystal_size_mid          0.05
_exptl_crystal_size_min          0.015
_exptl_transmission_factor_max   0.632
_exptl_transmission_factor_min   0.388
_refine_diff_density_max         0.716
_refine_diff_density_min         -0.770
_refine_diff_density_rms         0.179
_refine_ls_extinction_coef       0.029(15)
_refine_ls_extinction_expression Fc^*^=kFc[1+0.001xFc^2^\l^3^/sin(2\q)]^-1/4^
_refine_ls_extinction_method     SHELXL
_refine_ls_goodness_of_fit_ref   0.916
_refine_ls_hydrogen_treatment    undef
_refine_ls_matrix_type           full
_refine_ls_number_parameters     20
_refine_ls_number_reflns         214
_refine_ls_number_restraints     0
_refine_ls_restrained_S_all      0.916
_refine_ls_R_factor_all          0.0242
_refine_ls_R_factor_gt           0.0193
_refine_ls_shift/su_max          0.000
_refine_ls_shift/su_mean         0.000
_refine_ls_structure_factor_coef Fsqd
_refine_ls_weighting_details
'w=1/[\s^2^(Fo^2^)+(0.0375P)^2^] where P=(Fo^2^+2Fc^2^)/3'
_refine_ls_weighting_scheme      calc
_refine_ls_wR_factor_gt          0.0469
_refine_ls_wR_factor_ref         0.0474
_reflns_Friedel_coverage         0.000
_reflns_number_gt                183
_reflns_number_total             214
_reflns_threshold_expression     'I > 2\s(I)'
_cod_data_source_file            Cr3AlB4.cif
_cod_data_source_block           Cr3AlB4
_cod_depositor_comments
'Adding full bibliography for 4343328--4343335.cif.'
_cod_database_code               4343328
_shelx_space_group_comment
;
The symmetry employed for this shelxl refinement is uniquely defined
by the following loop, which should always be used as a source of
symmetry information in preference to the above space-group names.
They are only intended as comments.
;
_shelxl_version_number           2013-4
_shelx_res_file
;
TITL Martin-AFP in Pmmm
CELL 0.71073   2.9556   2.9778   8.0539  90.000  90.000  90.000
ZERR    1.00   0.0004   0.0005   0.0014   0.000   0.000   0.000
LATT  1
SYMM -X, -Y, Z
SYMM -X, Y, -Z
SYMM X, -Y, -Z
SFAC B AL CR
UNIT 4 1 3
L.S. 6
BOND
FMAP 2
PLAN 20
OMIT 0 70
OMIT 0 0 2
OMIT 2 3 10
OMIT 1 0 7
ACTA
WGHT    0.037500
EXTI    0.028724
FVAR       1.82270
CR2   3    0.500000    0.000000    0.000000    10.12500    0.00670    0.00578 =
         0.00676    0.00000    0.00000    0.00000
CR1   3    0.000000    0.000000    0.299226    10.25000    0.00492    0.00398 =
         0.00641    0.00000    0.00000    0.00000
AL1   2   -0.500000   -0.500000    0.500000    10.12500    0.00733    0.00763 =
         0.00543    0.00000    0.00000    0.00000
B1    1    0.000000   -0.500000    0.107698    10.25000    0.00547    0.00543 =
         0.00774    0.00000    0.00000    0.00000
B2    1    0.500000   -0.500000    0.221376    10.25000    0.00580    0.00510 =
         0.00694    0.00000    0.00000    0.00000
HKLF 4

REM  Martin-AFP in Pmmm
REM R1 =  0.0193 for     183 Fo > 4sig(Fo)  and  0.0242 for all     214 data
REM     20 parameters refined using      0 restraints

END

WGHT      0.0375      0.0000

REM Highest difference peak  0.716,  deepest hole -0.770,  1-sigma level  0.179
Q1    1  -0.7407 -1.0000  0.5000  10.25000  0.05    0.72
Q2    1   0.2596  0.0000  0.2997  10.50000  0.05    0.62
Q3    1   0.2530  0.0000  0.0000  10.25000  0.05    0.58
Q4    1   0.2846 -0.5000  0.0000  10.25000  0.05    0.55
Q5    1   0.2380  0.0000  0.2129  10.50000  0.05    0.46
Q6    1   0.0000  0.0000  0.2374  10.25000  0.05    0.46
Q7    1  -0.5000 -0.5000  0.4400  10.25000  0.05    0.45
Q8    1  -0.7442 -0.5000  0.5000  10.25000  0.05    0.43
Q9    1   0.5000 -0.8672  0.3285  10.50000  0.05    0.43
Q10   1   0.2391 -0.5000  0.2985  10.50000  0.05    0.43
Q11   1   0.2753  0.2657  0.0505  11.00000  0.05    0.38
Q12   1  -0.7013 -0.7296  0.4617  11.00000  0.05    0.38
Q13   1  -1.0000 -0.6383  0.5000  10.25000  0.05    0.38
Q14   1   0.1946  0.2060  0.2770  11.00000  0.05    0.36
Q15   1   0.0000 -0.6344  0.0000  10.25000  0.05    0.33
Q16   1   0.0000 -0.8691  0.0412  10.50000  0.05    0.32
Q17   1   0.2344 -0.5000  0.1875  10.50000  0.05    0.32
Q18   1   0.5000  0.0000  0.0652  10.25000  0.05    0.30
Q19   1   0.3071 -0.5000  0.1332  10.50000  0.05    0.30
Q20   1   0.2654 -0.5841  0.1543  11.00000  0.05    0.30
;
_shelx_res_checksum              97951
_shelx_hkl_file
;
   1   0   0  268.93   26.05   0
   2   0   0 9062.58   30.76   0
   3   0   0   87.06   13.22   0
   4   0   0 2620.98   21.39   0
   5   0   0   45.90   22.99   0
   0   1   0 4292.53   35.96   0
   1   1   0 2190.24   23.06   0
   2   1   0 1899.30   20.81   0
   3   1   0  608.92   15.20   0
   4   1   0  551.04   16.59   0
   5   1   0  125.04   27.21   0
   0   2   0 9999.99   30.59   0
   1   2   0  132.99   16.21   0
   2   2   0 5428.75   20.70   0
   3   2   0   66.63   13.25   0
   4   2   0 2026.39   18.84   0
   0   3   0 1120.29   16.09   0
   1   3   0  653.34   12.97   0
   2   3   0  740.55   13.17   0
   3   3   0  346.57   13.71   0
   4   3   0  382.53   20.64   0
   0   4   0 2833.20   20.83   0
   1   4   0   71.46   13.40   0
   2   4   0 2024.26   15.15   0
   3   4   0   57.81   17.06   0
   0   5   0  334.54   23.17   0
   1   5   0  175.99   17.87   0
   1   0   1  901.99   26.42   0
   2   0   1   12.40   14.82   0
   3   0   1  214.37   13.79   0
   4   0   1    9.17   15.09   0
   5   0   1   81.17   24.43   0
   0   1   1  355.54   25.11   0
   1   1   1 4752.73   30.77   0
   2   1   1  202.79   16.62   0
   3   1   1 1296.94   15.77   0
   4   1   1   39.25   16.27   0
   5   1   1  399.29   18.61   0
   0   2   1    9.30   15.94   0
   1   2   1  420.32   15.67   0
   2   2   1    3.31   12.85   0
   3   2   1  172.81   11.70   0
   4   2   1   11.83   15.34   0
   0   3   1  113.40   13.90   0
   1   3   1 1387.53   14.63   0
   2   3   1   66.21   11.71   0
   3   3   1  698.02   15.51   0
   4   3   1   21.84   19.27   0
   0   4   1   11.66   14.30   0
   1   4   1  151.63   13.86   0
   2   4   1   11.58   13.13   0
   3   4   1   93.19   17.40   0
   0   5   1   22.51   20.87   0
   1   5   1  355.11   19.91   0
   0   0   2  602.44   52.61   0
   1   0   2 7627.21   38.25   0
   2   0   2   50.49   16.15   0
   3   0   2 1998.12   16.38   0
   4   0   2   32.66   15.96   0
   5   0   2  576.31   23.93   0
   0   1   2  884.14   24.79   0
   1   1   2 4746.52   28.61   0
   2   1   2  462.75   16.49   0
   3   1   2 1414.29   16.63   0
   4   1   2  129.93   14.76   0
   0   2   2   64.00   16.55   0
   1   2   2 3832.46   22.97   0
   2   2   2   36.06   12.03   0
   3   2   2 1506.03   16.72   0
   4   2   2   43.28   13.98   0
   0   3   2  265.65   13.43   0
   1   3   2 1539.94   17.17   0
   2   3   2  184.16   12.35   0
   3   3   2  914.36   15.64   0
   4   3   2   77.94   18.93   0
   0   4   2   34.42   14.32   0
   1   4   2 1152.42   15.47   0
   2   4   2   38.71   14.05   0
   3   4   2  592.49   17.73   0
   0   5   2   55.57   19.68   0
   1   5   2  473.53   20.10   0
   0   0   3 3909.09   39.24   0
   1   0   3 1113.66   25.13   0
   2   0   3 1540.21   19.72   0
   3   0   3  317.51   12.67   0
   4   0   3  496.99   15.92   0
   0   1   3 9896.92   35.23   0
   1   1   3    8.21   17.32   0
   2   1   3 4682.35   23.28   0
   3   1   3   -0.37   13.93   0
   4   1   3 1522.02   18.20   0
   0   2   3 1651.19   18.67   0
   1   2   3  596.37   17.01   0
   2   2   3  940.62   15.04   0
   3   2   3  272.14   14.72   0
   4   2   3  413.36   15.60   0
   0   3   3 2996.49   18.38   0
   1   3   3    3.38   13.77   0
   2   3   3 2032.04   15.50   0
   3   3   3   12.55   13.08   0
   4   3   3  821.30   19.67   0
   0   4   3  545.41   14.96   0
   1   4   3  187.83   12.92   0
   2   4   3  433.98   15.24   0
   3   4   3   89.44   17.90   0
   0   5   3  622.59   23.66   0
   0   0   4 4374.82   31.05   0
   1   0   4 1189.26   22.50   0
   2   0   4 1776.40   17.32   0
   3   0   4  374.90   14.42   0
   4   0   4  578.59   16.33   0
   0   1   4 1018.23   21.42   0
   1   1   4  230.57   18.55   0
   2   1   4  444.50   15.56   0
   3   1   4  103.04   14.02   0
   4   1   4  201.48   16.22   0
   0   2   4 1987.89   18.41   0
   1   2   4  617.59   15.21   0
   2   2   4 1165.65   16.74   0
   3   2   4  289.51   16.00   0
   4   2   4  442.48   17.38   0
   0   3   4  339.71   13.67   0
   1   3   4  101.88   12.18   0
   2   3   4  252.44   13.58   0
   3   3   4   61.36   14.77   0
   0   4   4  615.36   15.69   0
   1   4   4  205.32   13.38   0
   2   4   4  407.58   15.92   0
   0   0   5 1872.50   27.56   0
   1   0   5 4837.47   28.64   0
   2   0   5  847.32   17.13   0
   3   0   5 1800.27   15.91   0
   4   0   5  318.58   16.59   0
   0   1   5  113.70   18.83   0
   1   1   5 4121.00   24.83   0
   2   1   5   55.97   14.43   0
   3   1   5 1594.85   18.11   0
   4   1   5   46.07   17.16   0
   0   2   5  928.85   15.96   0
   1   2   5 2747.66   19.18   0
   2   2   5  610.05   15.66   0
   3   2   5 1464.97   18.47   0
   4   2   5  253.44   17.14   0
   0   3   5   51.94   13.52   0
   1   3   5 1746.05   16.97   0
   2   3   5   51.58   13.54   0
   3   3   5  976.69   16.51   0
   0   4   5  326.70   16.33   0
   1   4   5 1203.82   18.58   0
   2   4   5  239.29   18.27   0
   0   0   6 1876.05   22.49   0
   1   0   6  439.88   21.53   0
   2   0   6  915.37   16.90   0
   3   0   6  161.80   13.13   0
   4   0   6  304.14   16.20   0
   0   1   6  655.39   17.27   0
   1   1   6   -2.83   15.72   0
   2   1   6  456.60   14.06   0
   3   1   6    5.39   13.21   0
   4   1   6  216.49   17.92   0
   0   2   6  955.68   15.72   0
   1   2   6  263.59   14.12   0
   2   2   6  561.59   14.59   0
   3   2   6  109.28   16.21   0
   4   2   6  229.09   17.17   0
   0   3   6  374.06   14.76   0
   1   3   6    7.03   14.25   0
   2   3   6  294.84   16.94   0
   3   3   6    3.16   16.68   0
   0   4   6  306.98   16.62   0
   1   4   6   81.44   16.65   0
   2   4   6  227.97   17.83   0
   0   0   7 1414.35   20.24   0
   1   0   7  564.35   18.78   0
   2   0   7  812.28   14.21   0
   3   0   7  349.25   14.34   0
   4   0   7  358.48   17.52   0
   0   1   7 3650.63   21.26   0
   1   1   7   -0.94   14.64   0
   2   1   7 2565.46   18.64   0
   3   1   7    5.43   14.46   0
   4   1   7  965.81   21.28   0
   0   2   7  795.95   14.53   0
   1   2   7  473.94   15.13   0
   2   2   7  576.81   14.91   0
   3   2   7  258.06   15.68   0
   0   3   7 1808.28   17.34   0
   1   3   7    1.01   13.79   0
   2   3   7 1417.45   19.09   0
   3   3   7    5.90   17.55   0
   0   4   7  404.16   18.80   0
   1   4   7  177.81   20.10   0
   0   0   8   20.72   15.23   0
   1   0   8 2264.94   18.59   0
   2   0   8   13.91   11.95   0
   3   0   8 1132.94   16.28   0
   4   0   8    5.49   18.50   0
   0   1   8  489.35   15.18   0
   1   1   8 1073.01   16.06   0
   2   1   8  330.78   15.13   0
   3   1   8  660.25   16.35   0
   4   1   8  101.97   19.32   0
   0   2   8    4.81   12.78   0
   1   2   8 1462.47   15.96   0
   2   2   8    4.09   14.23   0
   3   2   8  803.87   18.48   0
   0   3   8  231.62   15.67   0
   1   3   8  647.22   15.98   0
   2   3   8  169.41   16.10   0
   0   4   8    8.58   18.21   0
   1   4   8  506.98   22.23   0
   0   0   9   30.80   12.66   0
   1   0   9  292.34   14.01   0
   2   0   9   22.14   13.12   0
   3   0   9  173.43   15.16   0
   0   1   9   14.26   12.68   0
   1   1   9  907.29   16.25   0
   2   1   9   10.48   12.97   0
   3   1   9  497.08   15.84   0
   0   2   9   32.39   13.83   0
   1   2   9  212.12   15.04   0
   2   2   9   21.36   13.50   0
   3   2   9  143.56   17.29   0
   0   3   9    1.51   14.72   0
   1   3   9  457.11   16.91   0
   2   3   9    3.78   19.66   0
   0   0  10 2725.07   17.76   0
   1   0  10   86.58   13.27   0
   2   0  10 1916.29   17.83   0
   3   0  10   70.30   16.50   0
   0   1  10  805.70   14.40   0
   1   1  10  275.70   15.10   0
   2   1  10  551.99   15.35   0
   3   1  10  128.08   17.31   0
   0   2  10 2008.07   18.39   0
   1   2  10   75.70   15.22   0
   2   2  10 1379.89   18.85   0
   0   3  10  483.86   16.76   0
   1   3  10  133.86   17.11   0
   2   3  10  205.72   22.64   0
   0   0  11   10.65   14.08   0
   1   0  11   61.88   12.87   0
   2   0  11   11.64   14.43   0
   3   0  11   37.33   17.33   0
   0   1  11  173.40   14.47   0
   1   1  11  757.23   15.79   0
   2   1  11  118.22   14.97   0
   0   2  11    5.67   13.57   0
   1   2  11   51.51   15.24   0
   2   2  11    8.69   17.66   0
   0   3  11   76.31   19.69   0
   1   3  11  250.35   18.95   0
   0   0  12   27.04   14.97   0
   1   0  12 1060.75   17.17   0
   2   0  12   26.89   15.15   0
   0   1  12  100.62   13.98   0
   1   1  12  557.62   16.35   0
   2   1  12   65.24   17.44   0
   0   2  12   28.86   16.31   0
   1   2  12  663.29   19.05   0
   0   0  13  382.80   17.35   0
   1   0  13   29.45   17.45   0
   0   1  13  727.05   18.02   0
   1   1  13   25.80   17.45   0
;
_shelx_hkl_checksum              96464
loop_
_space_group_symop_operation_xyz
'x, y, z'
'-x, -y, z'
'-x, y, -z'
'x, -y, -z'
'-x, -y, -z'
'x, y, -z'
'x, -y, z'
'-x, y, z'
loop_
_atom_site_label
_atom_site_type_symbol
_atom_site_fract_x
_atom_site_fract_y
_atom_site_fract_z
_atom_site_U_iso_or_equiv
_atom_site_adp_type
_atom_site_occupancy
_atom_site_site_symmetry_order
_atom_site_calc_flag
_atom_site_refinement_flags_posn
_atom_site_refinement_flags_adp
_atom_site_refinement_flags_occupancy
Cr2 Cr 0.5000 0.0000 0.0000 0.00641(18) Uani 1 8 d S T P
Cr1 Cr 0.0000 0.0000 0.29923(7) 0.00510(16) Uani 1 4 d S T P
Al1 Al -0.5000 -0.5000 0.5000 0.0068(3) Uani 1 8 d S T P
B1 B 0.0000 -0.5000 0.1077(5) 0.0062(6) Uani 1 4 d S T P
B2 B 0.5000 -0.5000 0.2214(5) 0.0059(6) Uani 1 4 d S T P
loop_
_atom_site_aniso_label
_atom_site_aniso_U_11
_atom_site_aniso_U_22
_atom_site_aniso_U_33
_atom_site_aniso_U_23
_atom_site_aniso_U_13
_atom_site_aniso_U_12
Cr2 0.0067(3) 0.0058(3) 0.0068(3) 0.000 0.000 0.000
Cr1 0.0049(2) 0.0040(2) 0.0064(2) 0.000 0.000 0.000
Al1 0.0073(6) 0.0076(6) 0.0054(6) 0.000 0.000 0.000
B1 0.0055(12) 0.0054(12) 0.0077(15) 0.000 0.000 0.000
B2 0.0058(13) 0.0051(12) 0.0069(15) 0.000 0.000 0.000
loop_
_atom_type_symbol
_atom_type_description
_atom_type_scat_dispersion_real
_atom_type_scat_dispersion_imag
_atom_type_scat_source
B B 0.0013 0.0007 'International Tables Vol C Tables 4.2.6.8 and 6.1.1.4'
Al Al 0.0645 0.0514 'International Tables Vol C Tables 4.2.6.8 and 6.1.1.4'
Cr Cr 0.3209 0.6236 'International Tables Vol C Tables 4.2.6.8 and 6.1.1.4'
loop_
_geom_angle_atom_site_label_1
_geom_angle_atom_site_label_2
_geom_angle_atom_site_label_3
_geom_angle
_geom_angle_site_symmetry_1
_geom_angle_site_symmetry_3
B1 Cr2 B1 180.00(18) 5_545 1_665
B1 Cr2 B1 135.07(18) 5_545 5_655
B1 Cr2 B1 44.93(18) 1_665 5_655
B1 Cr2 B1 81.97(7) 5_545 5
B1 Cr2 B1 98.03(7) 1_665 5
B1 Cr2 B1 81.23(6) 5_655 5
B1 Cr2 B1 81.23(6) 5_545 5_645
B1 Cr2 B1 98.77(6) 1_665 5_645
B1 Cr2 B1 81.97(7) 5_655 5_645
B1 Cr2 B1 135.07(18) 5 5_645
B1 Cr2 B1 98.77(6) 5_545 1_565
B1 Cr2 B1 81.23(6) 1_665 1_565
B1 Cr2 B1 98.03(7) 5_655 1_565
B1 Cr2 B1 44.93(18) 5 1_565
B1 Cr2 B1 180.00(18) 5_645 1_565
B1 Cr2 B1 98.03(7) 5_545 1_655
B1 Cr2 B1 81.97(7) 1_665 1_655
B1 Cr2 B1 98.77(6) 5_655 1_655
B1 Cr2 B1 180.00(18) 5 1_655
B1 Cr2 B1 44.93(18) 5_645 1_655
B1 Cr2 B1 135.07(18) 1_565 1_655
B1 Cr2 B1 44.93(18) 5_545 .
B1 Cr2 B1 135.07(18) 1_665 .
B1 Cr2 B1 180.0 5_655 .
B1 Cr2 B1 98.77(6) 5 .
B1 Cr2 B1 98.03(7) 5_645 .
B1 Cr2 B1 81.97(7) 1_565 .
B1 Cr2 B1 81.23(6) 1_655 .
B1 Cr2 B2 44.46(7) 5_545 5_645
B1 Cr2 B2 135.54(7) 1_665 5_645
B1 Cr2 B2 97.30(9) 5_655 5_645
B1 Cr2 B2 97.30(9) 5 5_645
B1 Cr2 B2 44.46(7) 5_645 5_645
B1 Cr2 B2 135.54(7) 1_565 5_645
B1 Cr2 B2 82.70(9) 1_655 5_645
B1 Cr2 B2 82.70(9) . 5_645
B1 Cr2 B2 135.54(7) 5_545 1_565
B1 Cr2 B2 44.46(7) 1_665 1_565
B1 Cr2 B2 82.70(9) 5_655 1_565
B1 Cr2 B2 82.70(9) 5 1_565
B1 Cr2 B2 135.54(7) 5_645 1_565
B1 Cr2 B2 44.46(7) 1_565 1_565
B1 Cr2 B2 97.30(9) 1_655 1_565
B1 Cr2 B2 97.30(9) . 1_565
B2 Cr2 B2 180.00(11) 5_645 1_565
B1 Cr2 B2 97.30(9) 5_545 5_655
B1 Cr2 B2 82.70(9) 1_665 5_655
B1 Cr2 B2 44.46(7) 5_655 5_655
B1 Cr2 B2 44.46(7) 5 5_655
B1 Cr2 B2 97.30(9) 5_645 5_655
B1 Cr2 B2 82.70(9) 1_565 5_655
B1 Cr2 B2 135.54(7) 1_655 5_655
B1 Cr2 B2 135.54(7) . 5_655
B2 Cr2 B2 79.73(12) 5_645 5_655
B2 Cr2 B2 100.27(12) 1_565 5_655
B1 Cr2 B2 82.70(9) 5_545 .
B1 Cr2 B2 97.30(9) 1_665 .
B1 Cr2 B2 135.54(7) 5_655 .
B1 Cr2 B2 135.54(7) 5 .
B1 Cr2 B2 82.70(9) 5_645 .
B1 Cr2 B2 97.30(9) 1_565 .
B1 Cr2 B2 44.46(7) 1_655 .
B1 Cr2 B2 44.46(7) . .
B2 Cr2 B2 100.27(12) 5_645 .
B2 Cr2 B2 79.73(12) 1_565 .
B2 Cr2 B2 180.0 5_655 .
B1 Cr1 B1 87.97(15) . 1_565
B1 Cr1 B2 47.29(7) . .
B1 Cr1 B2 105.44(10) 1_565 .
B1 Cr1 B2 47.29(7) . 1_455
B1 Cr1 B2 105.44(10) 1_565 1_455
B2 Cr1 B2 84.90(5) . 1_455
B1 Cr1 B2 105.44(10) . 1_565
B1 Cr1 B2 47.29(7) 1_565 1_565
B2 Cr1 B2 85.69(5) . 1_565
B2 Cr1 B2 146.72(19) 1_455 1_565
B1 Cr1 B2 105.44(10) . 1_465
B1 Cr1 B2 47.29(7) 1_565 1_465
B2 Cr1 B2 146.72(19) . 1_465
B2 Cr1 B2 85.69(5) 1_455 1_465
B2 Cr1 B2 84.90(5) 1_565 1_465
B1 Cr1 Al1 146.063(7) . 1_665
B1 Cr1 Al1 92.80(6) 1_565 1_665
B2 Cr1 Al1 100.40(6) . 1_665
B2 Cr1 Al1 159.02(10) 1_455 1_665
B2 Cr1 Al1 54.27(9) 1_565 1_665
B2 Cr1 Al1 99.74(6) 1_465 1_665
B1 Cr1 Al1 146.063(7) . 1_565
B1 Cr1 Al1 92.80(6) 1_565 1_565
B2 Cr1 Al1 159.01(10) . 1_565
B2 Cr1 Al1 100.40(6) 1_455 1_565
B2 Cr1 Al1 99.74(6) 1_565 1_565
B2 Cr1 Al1 54.27(9) 1_465 1_565
Al1 Cr1 Al1 67.827(14) 1_665 1_565
B1 Cr1 Al1 92.80(6) . 1_655
B1 Cr1 Al1 146.063(7) 1_565 1_655
B2 Cr1 Al1 54.27(9) . 1_655
B2 Cr1 Al1 99.74(6) 1_455 1_655
B2 Cr1 Al1 100.40(6) 1_565 1_655
B2 Cr1 Al1 159.02(10) 1_465 1_655
Al1 Cr1 Al1 68.407(15) 1_665 1_655
Al1 Cr1 Al1 104.75(2) 1_565 1_655
B1 Cr1 Al1 92.80(6) . .
B1 Cr1 Al1 146.063(7) 1_565 .
B2 Cr1 Al1 99.74(6) . .
B2 Cr1 Al1 54.27(9) 1_455 .
B2 Cr1 Al1 159.02(10) 1_565 .
B2 Cr1 Al1 100.40(6) 1_465 .
Al1 Cr1 Al1 104.75(2) 1_665 .
Al1 Cr1 Al1 68.407(15) 1_565 .
Al1 Cr1 Al1 67.827(14) 1_655 .
B1 Cr1 Cr2 52.17(6) . 1_455
B1 Cr1 Cr2 52.17(6) 1_565 1_455
B2 Cr1 Cr2 96.24(9) . 1_455
B2 Cr1 Cr2 53.35(8) 1_455 1_455
B2 Cr1 Cr2 96.24(9) 1_565 1_455
B2 Cr1 Cr2 53.35(8) 1_465 1_455
Al1 Cr1 Cr2 144.302(10) 1_665 1_455
Al1 Cr1 Cr2 103.225(11) 1_565 1_455
Al1 Cr1 Cr2 144.302(10) 1_655 1_455
Al1 Cr1 Cr2 103.225(11) . 1_455
B1 Cr1 Cr2 52.17(6) . .
B1 Cr1 Cr2 52.17(5) 1_565 .
B2 Cr1 Cr2 53.35(8) . .
B2 Cr1 Cr2 96.24(9) 1_455 .
B2 Cr1 Cr2 53.35(8) 1_565 .
B2 Cr1 Cr2 96.24(9) 1_465 .
Al1 Cr1 Cr2 103.225(11) 1_665 .
Al1 Cr1 Cr2 144.302(10) 1_565 .
Al1 Cr1 Cr2 103.225(11) 1_655 .
Al1 Cr1 Cr2 144.302(10) . .
Cr2 Cr1 Cr2 63.034(16) 1_455 .
B2 Al1 B2 180.0 5_546 1_455
B2 Al1 Cr1 127.626(11) 5_546 .
B2 Al1 Cr1 52.374(11) 1_455 .
B2 Al1 Cr1 127.626(11) 5_546 1_445
B2 Al1 Cr1 52.374(11) 1_455 1_445
Cr1 Al1 Cr1 104.75(2) . 1_445
B2 Al1 Cr1 52.374(11) 5_546 5_556
B2 Al1 Cr1 127.626(11) 1_455 5_556
Cr1 Al1 Cr1 75.25(2) . 5_556
Cr1 Al1 Cr1 180.000(19) 1_445 5_556
B2 Al1 Cr1 127.626(11) 5_546 1_545
B2 Al1 Cr1 52.374(11) 1_455 1_545
Cr1 Al1 Cr1 68.407(15) . 1_545
Cr1 Al1 Cr1 67.827(14) 1_445 1_545
Cr1 Al1 Cr1 112.173(14) 5_556 1_545
B2 Al1 Cr1 52.374(11) 5_546 5_546
B2 Al1 Cr1 127.626(11) 1_455 5_546
Cr1 Al1 Cr1 112.173(14) . 5_546
Cr1 Al1 Cr1 111.593(14) 1_445 5_546
Cr1 Al1 Cr1 68.407(15) 5_556 5_546
Cr1 Al1 Cr1 75.25(2) 1_545 5_546
B2 Al1 Cr1 52.374(11) 5_546 5_456
B2 Al1 Cr1 127.626(11) 1_455 5_456
Cr1 Al1 Cr1 111.593(15) . 5_456
Cr1 Al1 Cr1 112.173(14) 1_445 5_456
Cr1 Al1 Cr1 67.827(14) 5_556 5_456
Cr1 Al1 Cr1 180.000(19) 1_545 5_456
Cr1 Al1 Cr1 104.75(2) 5_546 5_456
B2 Al1 Cr1 127.626(11) 5_546 1_455
B2 Al1 Cr1 52.374(11) 1_455 1_455
Cr1 Al1 Cr1 67.827(14) . 1_455
Cr1 Al1 Cr1 68.407(15) 1_445 1_455
Cr1 Al1 Cr1 111.593(14) 5_556 1_455
Cr1 Al1 Cr1 104.75(2) 1_545 1_455
Cr1 Al1 Cr1 180.0 5_546 1_455
Cr1 Al1 Cr1 75.25(2) 5_456 1_455
B2 Al1 Cr1 52.374(11) 5_546 5_446
B2 Al1 Cr1 127.626(11) 1_455 5_446
Cr1 Al1 Cr1 180.0 . 5_446
Cr1 Al1 Cr1 75.25(2) 1_445 5_446
Cr1 Al1 Cr1 104.75(2) 5_556 5_446
Cr1 Al1 Cr1 111.593(15) 1_545 5_446
Cr1 Al1 Cr1 67.827(14) 5_546 5_446
Cr1 Al1 Cr1 68.407(15) 5_456 5_446
Cr1 Al1 Cr1 112.173(14) 1_455 5_446
B2 Al1 Al1 90.0 5_546 1_455
B2 Al1 Al1 90.0 1_455 1_455
Cr1 Al1 Al1 123.914(7) . 1_455
Cr1 Al1 Al1 56.087(7) 1_445 1_455
Cr1 Al1 Al1 123.913(7) 5_556 1_455
Cr1 Al1 Al1 123.913(7) 1_545 1_455
Cr1 Al1 Al1 123.913(7) 5_546 1_455
Cr1 Al1 Al1 56.087(7) 5_456 1_455
Cr1 Al1 Al1 56.087(7) 1_455 1_455
Cr1 Al1 Al1 56.087(7) 5_446 1_455
B2 Al1 Al1 90.0 5_546 1_655
B2 Al1 Al1 90.0 1_455 1_655
Cr1 Al1 Al1 56.086(7) . 1_655
Cr1 Al1 Al1 123.913(7) 1_445 1_655
Cr1 Al1 Al1 56.087(7) 5_556 1_655
Cr1 Al1 Al1 56.087(7) 1_545 1_655
Cr1 Al1 Al1 56.087(7) 5_546 1_655
Cr1 Al1 Al1 123.913(7) 5_456 1_655
Cr1 Al1 Al1 123.913(7) 1_455 1_655
Cr1 Al1 Al1 123.913(7) 5_446 1_655
Al1 Al1 Al1 180.0 1_455 1_655
B1 B1 B2 121.78(14) 5_545 1_455
B1 B1 B2 121.78(14) 5_545 .
B2 B1 B2 116.4(3) 1_455 .
B1 B1 Cr1 136.01(7) 5_545 1_545
B2 B1 Cr1 67.73(12) 1_455 1_545
B2 B1 Cr1 67.73(12) . 1_545
B1 B1 Cr1 136.01(7) 5_545 .
B2 B1 Cr1 67.73(12) 1_455 .
B2 B1 Cr1 67.73(12) . .
Cr1 B1 Cr1 87.97(15) 1_545 .
B1 B1 Cr2 67.54(9) 5_545 1_445
B2 B1 Cr2 69.38(7) 1_455 1_445
B2 B1 Cr2 138.99(4) . 1_445
Cr1 B1 Cr2 79.60(3) 1_545 1_445
Cr1 B1 Cr2 136.92(8) . 1_445
B1 B1 Cr2 67.54(9) 5_545 .
B2 B1 Cr2 138.99(4) 1_455 .
B2 B1 Cr2 69.38(7) . .
Cr1 B1 Cr2 136.92(8) 1_545 .
Cr1 B1 Cr2 79.60(3) . .
Cr2 B1 Cr2 135.07(18) 1_445 .
B1 B1 Cr2 67.54(9) 5_545 1_545
B2 B1 Cr2 138.99(4) 1_455 1_545
B2 B1 Cr2 69.38(7) . 1_545
Cr1 B1 Cr2 79.60(3) 1_545 1_545
Cr1 B1 Cr2 136.92(8) . 1_545
Cr2 B1 Cr2 81.23(6) 1_445 1_545
Cr2 B1 Cr2 81.97(7) . 1_545
B1 B1 Cr2 67.54(9) 5_545 1_455
B2 B1 Cr2 69.38(7) 1_455 1_455
B2 B1 Cr2 138.99(4) . 1_455
Cr1 B1 Cr2 136.92(8) 1_545 1_455
Cr1 B1 Cr2 79.60(3) . 1_455
Cr2 B1 Cr2 81.97(7) 1_445 1_455
Cr2 B1 Cr2 81.23(6) . 1_455
Cr2 B1 Cr2 135.07(18) 1_545 1_455
B1 B2 B1 116.4(3) . 1_655
B1 B2 Cr1 136.43(6) . 1_655
B1 B2 Cr1 64.98(7) 1_655 1_655
B1 B2 Cr1 64.98(7) . 1_545
B1 B2 Cr1 136.43(6) 1_655 1_545
Cr1 B2 Cr1 146.72(19) 1_655 1_545
B1 B2 Cr1 136.43(6) . 1_645
B1 B2 Cr1 64.98(7) 1_655 1_645
Cr1 B2 Cr1 85.69(5) 1_655 1_645
Cr1 B2 Cr1 84.90(5) 1_545 1_645
B1 B2 Cr1 64.98(7) . .
B1 B2 Cr1 136.43(6) 1_655 .
Cr1 B2 Cr1 84.90(5) 1_655 .
Cr1 B2 Cr1 85.69(5) 1_545 .
Cr1 B2 Cr1 146.72(19) 1_645 .
B1 B2 Al1 121.78(14) . 1_655
B1 B2 Al1 121.78(14) 1_655 1_655
Cr1 B2 Al1 73.36(9) 1_655 1_655
Cr1 B2 Al1 73.36(9) 1_545 1_655
Cr1 B2 Al1 73.36(9) 1_645 1_655
Cr1 B2 Al1 73.36(9) . 1_655
B1 B2 Cr2 66.16(12) . 1_545
B1 B2 Cr2 66.16(12) 1_655 1_545
Cr1 B2 Cr2 130.97(10) 1_655 1_545
Cr1 B2 Cr2 77.52(4) 1_545 1_545
Cr1 B2 Cr2 77.52(4) 1_645 1_545
Cr1 B2 Cr2 130.97(10) . 1_545
Al1 B2 Cr2 140.14(6) 1_655 1_545
B1 B2 Cr2 66.16(12) . .
B1 B2 Cr2 66.16(12) 1_655 .
Cr1 B2 Cr2 77.52(4) 1_655 .
Cr1 B2 Cr2 130.97(10) 1_545 .
Cr1 B2 Cr2 130.97(10) 1_645 .
Cr1 B2 Cr2 77.52(4) . .
Al1 B2 Cr2 140.14(6) 1_655 .
Cr2 B2 Cr2 79.73(12) 1_545 .
loop_
_geom_bond_atom_site_label_1
_geom_bond_atom_site_label_2
_geom_bond_distance
_geom_bond_site_symmetry_2
Cr2 B1 2.2700(15) 5_545
Cr2 B1 2.2700(15) 1_665
Cr2 B1 2.2700(15) 5_655
Cr2 B1 2.2700(15) 5
Cr2 B1 2.2700(15) 5_645
Cr2 B1 2.2700(15) 1_565
Cr2 B1 2.2700(15) 1_655
Cr2 B1 2.2700(15) .
Cr2 B2 2.323(3) 5_645
Cr2 B2 2.323(3) 1_565
Cr2 B2 2.323(3) 5_655
Cr2 B2 2.323(3) .
Cr1 B1 2.144(3) .
Cr1 B1 2.144(3) 1_565
Cr1 B2 2.1895(11) .
Cr1 B2 2.1895(11) 1_455
Cr1 B2 2.1895(11) 1_565
Cr1 B2 2.1895(11) 1_465
Cr1 Al1 2.6487(4) 1_665
Cr1 Al1 2.6487(4) 1_565
Cr1 Al1 2.6487(4) 1_655
Cr1 Al1 2.6487(4) .
Cr1 Cr2 2.8270(6) 1_455
Al1 B2 2.244(4) 5_546
Al1 B2 2.244(4) 1_455
Al1 Cr1 2.6487(4) 1_445
Al1 Cr1 2.6487(4) 5_556
Al1 Cr1 2.6487(4) 1_545
Al1 Cr1 2.6487(4) 5_546
Al1 Cr1 2.6487(4) 5_456
Al1 Cr1 2.6487(4) 1_455
Al1 Cr1 2.6487(4) 5_446
Al1 Al1 2.9556(4) 1_455
Al1 Al1 2.9556(4) 1_655
B1 B1 1.735(8) 5_545
B1 B2 1.738(3) 1_455
B1 B2 1.738(3) .
B1 Cr1 2.144(3) 1_545
B1 Cr2 2.2700(15) 1_445
B1 Cr2 2.2700(15) 1_545
B1 Cr2 2.2700(15) 1_455
B2 B1 1.738(3) 1_655
B2 Cr1 2.1895(11) 1_655
B2 Cr1 2.1895(11) 1_545
B2 Cr1 2.1895(11) 1_645
B2 Al1 2.244(4) 1_655
B2 Cr2 2.323(3) 1_545
