#------------------------------------------------------------------------------
#$Date: 2015-07-08 23:43:11 +0300 (Wed, 08 Jul 2015) $
#$Revision: 141347 $
#$URL: svn://www.crystallography.net/cod/cif/4/34/33/4343330.cif $
#------------------------------------------------------------------------------
#
# This file is available in the Crystallography Open Database (COD),
# http://www.crystallography.net/
#
# All data on this site have been placed in the public domain by the
# contributors.
#
data_4343330
loop_
_publ_author_name
'Ade, Martin'
'Hillebrecht, Harald'
_publ_section_title
;
 Ternary Borides Cr2AlB2, Cr3AlB4, and Cr4AlB6: The First Members of the
 Series (CrB2)nCrAl with n = 1, 2, 3 and a Unifying Concept for Ternary
 Borides as MAB-Phases.
;
_journal_issue                   13
_journal_name_full               'Inorganic chemistry'
_journal_page_first              6122
_journal_page_last               6135
_journal_paper_doi               10.1021/acs.inorgchem.5b00049
_journal_volume                  54
_journal_year                    2015
_chemical_formula_sum            'Al B2 Fe2'
_chemical_formula_weight         160.30
_chemical_name_systematic
;
 ?
;
_space_group_crystal_system      orthorhombic
_space_group_IT_number           65
_space_group_name_Hall           '-C 2 2'
_space_group_name_H-M_alt        'C m m m'
_symmetry_space_group_name_Hall  '-C 2 2'
_symmetry_space_group_name_H-M   'C m m m'
_audit_creation_method           SHELXL-2013
_cell_angle_alpha                90
_cell_angle_beta                 90
_cell_angle_gamma                90
_cell_formula_units_Z            2
_cell_length_a                   2.9217(4)
_cell_length_b                   10.9991(15)
_cell_length_c                   2.8563(5)
_cell_measurement_reflns_used    1345
_cell_measurement_temperature    293(2)
_cell_measurement_theta_max      35
_cell_measurement_theta_min      6
_cell_volume                     91.79(2)
_computing_cell_refinement       'Software for IPDS-II, Fa. Stoe'
_computing_data_collection       'Software for IPDS-II, Fa. Stoe'
_computing_data_reduction        'Software for IPDS-II, Fa. Stoe'
_computing_molecular_graphics    'Diamond (Crystal impact, 2005)'
_computing_publication_material  'SHELXL-97_(Sheldrick, 2008)'
_computing_structure_refinement  'SHELXL-2013 (Sheldrick, 2013)'
_computing_structure_solution    'SHELXS-97 (Sheldrick, 2008)'
_diffrn_ambient_temperature      293(2)
_diffrn_measured_fraction_theta_full 0.992
_diffrn_measured_fraction_theta_max 0.996
_diffrn_measurement_details
; 
0 degree < omega < 180 degree
psi = 0 and 111 degree
delta omega 2 degree
exposure time 180s 
;
_diffrn_measurement_device       '2-circle goniometer'
_diffrn_measurement_device_type  'STOE IPDS 2'
_diffrn_measurement_method       'rotation method'
_diffrn_radiation_collimation    '0.5 mm diameter, multiple pinhole'
_diffrn_radiation_monochromator  'plane graphite'
_diffrn_radiation_polarisn_norm  0
_diffrn_radiation_type           MoK\a
_diffrn_radiation_wavelength     0.71073
_diffrn_reflns_av_R_equivalents  0.065
_diffrn_reflns_av_unetI/netI     0.0269
_diffrn_reflns_laue_measured_fraction_full 0.992
_diffrn_reflns_laue_measured_fraction_max 0.996
_diffrn_reflns_limit_h_max       4
_diffrn_reflns_limit_h_min       -4
_diffrn_reflns_limit_k_max       17
_diffrn_reflns_limit_k_min       -17
_diffrn_reflns_limit_l_max       4
_diffrn_reflns_limit_l_min       -4
_diffrn_reflns_number            1445
_diffrn_reflns_point_group_measured_fraction_full 0.992
_diffrn_reflns_point_group_measured_fraction_max 0.996
_diffrn_reflns_theta_full        25.240
_diffrn_reflns_theta_max         34.840
_diffrn_reflns_theta_min         3.705
_diffrn_source
'sealed X-ray tube, 12 x 0.4 mm long-fine focus'
_diffrn_source_current           40
_diffrn_source_power             2.00
_diffrn_source_voltage           50
_exptl_absorpt_coefficient_mu    15.736
_exptl_absorpt_correction_T_max  0.464
_exptl_absorpt_correction_T_min  0.256
_exptl_absorpt_correction_type   numerical
_exptl_absorpt_process_details   'X-Red and X-SHAPE  (Stoe & Cie, 1999)'
_exptl_crystal_colour            black
_exptl_crystal_density_diffrn    5.800
_exptl_crystal_description       irregular_fragment
_exptl_crystal_F_000             150
_exptl_crystal_size_max          0.2
_exptl_crystal_size_mid          0.15
_exptl_crystal_size_min          0.1
_exptl_transmission_factor_max   0.464
_exptl_transmission_factor_min   0.256
_refine_diff_density_max         0.790
_refine_diff_density_min         -0.734
_refine_diff_density_rms         0.156
_refine_ls_extinction_coef       0.094(8)
_refine_ls_extinction_expression Fc^*^=kFc[1+0.001xFc^2^\l^3^/sin(2\q)]^-1/4^
_refine_ls_extinction_method     SHELXL
_refine_ls_goodness_of_fit_ref   0.972
_refine_ls_hydrogen_treatment    undef
_refine_ls_matrix_type           full
_refine_ls_number_parameters     13
_refine_ls_number_reflns         138
_refine_ls_number_restraints     0
_refine_ls_restrained_S_all      0.972
_refine_ls_R_factor_all          0.0219
_refine_ls_R_factor_gt           0.0162
_refine_ls_shift/su_max          0.001
_refine_ls_shift/su_mean         0.000
_refine_ls_structure_factor_coef Fsqd
_refine_ls_weighting_details
'w=1/[\s^2^(Fo^2^)+(0.0200P)^2^] where P=(Fo^2^+2Fc^2^)/3'
_refine_ls_weighting_scheme      calc
_refine_ls_wR_factor_gt          0.0352
_refine_ls_wR_factor_ref         0.0359
_reflns_Friedel_coverage         0.000
_reflns_number_gt                120
_reflns_number_total             138
_reflns_threshold_expression     'I > 2\s(I)'
_cod_data_source_file            Fe2AlB2.cif
_cod_data_source_block           Fe2AlB2
_cod_depositor_comments
'Adding full bibliography for 4343328--4343335.cif.'
_cod_database_code               4343330
_shelx_space_group_comment
;
The symmetry employed for this shelxl refinement is uniquely defined
by the following loop, which should always be used as a source of
symmetry information in preference to the above space-group names.
They are only intended as comments.
;
_shelxl_version_number           2013-4
_shelx_res_file
;
TITL Fe2AlB2 in Cmmm
CELL 0.71069   2.9217  10.9991   2.8563  90.00  90.00  90.00
ZERR    2.00   0.0004   0.0015   0.0005   0.00   0.00   0.00
LATT  7
SYMM -X, -Y, Z
SYMM -X, Y, -Z
SYMM X, -Y, -Z
SFAC B AL FE
UNIT 4 2 4
L.S. 4
MERG 2
OMIT 0 70
OMIT 0 0 1
OMIT 1 1 1
OMIT 0 2 1
OMIT 1 3 2
OMIT 2 0 2
ACTA
WGHT    0.020000
EXTI    0.093975
FVAR       1.34215
FE    3   10.500000    0.645964   10.000000    10.25000    0.00812    0.00579 =
         0.00605    0.00000    0.00000    0.00000
AL    2   10.000000   10.500000   10.500000    10.12500    0.00793    0.00359 =
         0.00854    0.00000    0.00000    0.00000
B     1    0.000000    0.706833   -0.500000    10.25000    0.00811    0.00756 =
         0.00877    0.00000    0.00000    0.00000
HKLF 4

REM  Fe2AlB2 in Cmmm
REM R1 =  0.0162 for     120 Fo > 4sig(Fo)  and  0.0219 for all     138 data
REM     13 parameters refined using      0 restraints

END

WGHT      0.0201      0.0000

REM Highest difference peak  0.790,  deepest hole -0.734,  1-sigma level  0.156
Q1    1   0.5000  0.7105  0.2738  10.50000  0.05    0.79
Q2    1  -0.2500  0.7500 -0.6862  10.50000  0.05    0.61
Q3    1   0.1339  0.5000  0.5000  10.25000  0.05    0.56
Q4    1   0.5000  0.7650  0.0000  10.25000  0.05    0.41
Q5    1   0.5000  0.5808  0.2772  10.50000  0.05    0.39
Q6    1  -0.3644  0.5000  0.3664  10.50000  0.05    0.39
Q7    1   0.0000  0.7468 -0.5000  10.25000  0.05    0.37
Q8    1   0.1511  0.4368  0.1761  11.00000  0.05    0.31
Q9    1   0.6751  0.5742  0.0000  10.50000  0.05    0.30
Q10   1  -0.2376  0.5747  0.5000  10.50000  0.05    0.30
Q11   1   0.6242  0.5000  0.0000  10.25000  0.05    0.29
Q12   1   0.8021  0.6831 -0.0895  11.00000  0.05    0.27
Q13   1   0.0000  0.5000  0.2996  10.25000  0.05    0.26
Q14   1   0.7556  0.6269 -0.2599  11.00000  0.05    0.24
Q15   1  -0.2915  0.7046 -0.5000  10.50000  0.05    0.23
Q16   1   0.5000  0.6692  0.3969  10.50000  0.05    0.21
Q17   1   0.8123  0.6197  0.0000  10.50000  0.05    0.20
Q18   1   0.0000  0.6518 -0.2571  10.50000  0.05    0.16
Q19   1   0.0814  0.4786  0.0000  10.50000  0.05    0.13
Q20   1   0.0000  0.4112  0.3319  10.50000  0.05    0.08
;
_shelx_res_checksum              10029
_shelx_hkl_file
;
   2   0   0 9292.70   61.57   0
   4   0   0 2336.00   37.02   0
   1   1   0 1279.34   61.66   0
   3   1   0  317.16   33.40   0
   0   2   0  485.57   65.30   0
   2   2   0   91.58   33.82   0
   4   2   0   48.87   28.27   0
   1   3   0 9125.79   72.38   0
   3   3   0 2948.55   44.04   0
   0   4   0 3377.15   64.56   0
   2   4   0 1530.42   38.85   0
   4   4   0  428.00   27.21   0
   1   5   0 1716.92   40.54   0
   3   5   0  569.94   31.49   0
   0   6   0 6515.45   62.24   0
   2   6   0 3537.52   45.17   0
   4   6   0  946.38   41.97   0
   1   7   0 3920.81   50.50   0
   3   7   0 1361.49   32.60   0
   0   8   0 2647.32   48.54   0
   2   8   0 1320.59   35.19   0
   4   8   0  353.63   38.47   0
   1   9   0 1964.02   35.04   0
   3   9   0  814.00   36.14   0
   0  10   0 1433.77   39.11   0
   2  10   0  771.86   30.80   0
   4  10   0  323.90   40.92   0
   1  11   0 2849.33   36.96   0
   3  11   0 1197.96   35.68   0
   0  12   0   92.01   32.34   0
   2  12   0   42.26   27.84   0
   1  13   0  725.31   31.24   0
   3  13   0  379.06   38.54   0
   0  14   0 3051.10   41.89   0
   2  14   0 2194.39   41.26   0
   1  15   0   27.39   31.05   0
   0  16   0  142.39   39.06   0
   2  16   0  136.69   34.73   0
   1  17   0 1233.51   42.88   0
   0  18   0  240.36   38.97   0
   0   0   1 3825.92   86.37   0
   2   0   1 1994.01   38.02   0
   4   0   1  487.29   33.28   0
   1   1   1 5647.03   73.04   0
   3   1   1 1900.47   37.06   0
   0   2   1 1489.22   69.87   0
   2   2   1  781.56   40.76   0
   4   2   1  155.53   35.29   0
   1   3   1 4421.71   57.96   0
   3   3   1 1405.59   35.37   0
   0   4   1 9999.99   71.66   0
   2   4   1 5262.88   52.07   0
   4   4   1 1457.88   40.15   0
   1   5   1  324.76   36.94   0
   3   5   1  132.67   30.53   0
   0   6   1 1482.26   40.59   0
   2   6   1  712.99   32.73   0
   4   6   1  258.45   36.60   0
   1   7   1 5700.78   50.49   0
   3   7   1 2013.03   38.42   0
   0   8   1  475.25   33.42   0
   2   8   1  309.89   30.69   0
   4   8   1  119.93   40.58   0
   1   9   1   44.32   29.07   0
   3   9   1   25.66   33.44   0
   0  10   1 5645.59   42.78   0
   2  10   1 3568.68   40.28   0
   1  11   1  799.34   32.78   0
   3  11   1  396.01   35.61   0
   0  12   1   34.73   28.29   0
   2  12   1   24.06   30.66   0
   1  13   1 1726.04   36.02   0
   3  13   1  818.34   41.23   0
   0  14   1  651.79   28.24   0
   2  14   1  472.79   31.89   0
   1  15   1  692.56   32.05   0
   0  16   1  617.10   34.14   0
   2  16   1  352.50   43.24   0
   1  17   1  819.74   39.97   0
   0   0   2 9643.37   65.59   0
   2   0   2 5138.65   42.37   0
   4   0   2 1675.75   42.02   0
   1   1   2  602.03   47.07   0
   3   1   2  200.59   30.50   0
   0   2   2   69.76   46.12   0
   2   2   2   67.94   35.26   0
   4   2   2   38.20   32.46   0
   1   3   2 4645.62   51.15   0
   3   3   2 1814.31   35.27   0
   0   4   2 1571.61   41.40   0
   2   4   2  887.86   38.43   0
   4   4   2  332.89   35.72   0
   1   5   2  970.58   40.16   0
   3   5   2  370.47   33.59   0
   0   6   2 3687.13   50.70   0
   2   6   2 2161.53   39.93   0
   4   6   2  628.55   39.88   0
   1   7   2 2428.35   37.63   0
   3   7   2 1176.66   37.80   0
   0   8   2 1382.13   36.86   0
   2   8   2  928.02   36.12   0
   1   9   2 1282.49   34.14   0
   3   9   2  552.71   40.17   0
   0  10   2  858.73   30.52   0
   2  10   2  678.97   36.40   0
   1  11   2 1821.44   37.17   0
   3  11   2  860.80   44.12   0
   0  12   2   34.77   30.63   0
   2  12   2   26.17   33.24   0
   1  13   2  566.44   33.17   0
   0  14   2 2157.34   35.63   0
   2  14   2 1489.95   40.05   0
   1  15   2   25.80   35.49   0
   0  16   2  138.40   38.67   0
   0   0   3 1240.03   34.63   0
   2   0   3  800.34   34.03   0
   1   1   3 1967.34   40.06   0
   3   1   3  782.72   33.87   0
   0   2   3  446.07   29.05   0
   2   2   3  226.49   36.16   0
   1   3   3 1433.13   33.45   0
   3   3   3  751.61   38.56   0
   0   4   3 3160.20   43.02   0
   2   4   3 2132.59   41.36   0
   1   5   3  121.06   31.69   0
   3   5   3   47.93   38.02   0
   0   6   3  508.63   34.46   0
   2   6   3  360.43   36.75   0
   1   7   3 2046.27   38.90   0
   3   7   3 1029.07   42.03   0
   0   8   3  276.79   32.18   0
   2   8   3  151.27   35.65   0
   1   9   3   25.93   32.07   0
   0  10   3 2410.98   37.83   0
   2  10   3 1684.26   42.20   0
   1  11   3  409.71   34.70   0
   0  12   3   19.84   32.99   0
   2  12   3   27.17   45.65   0
   1  13   3  759.96   40.02   0
   0  14   3  370.02   40.26   0
   0   0   4 2497.62   37.16   0
   2   0   4 1730.89   40.46   0
   1   1   4  176.97   31.99   0
   0   2   4   50.59   29.04   0
   2   2   4   40.09   39.37   0
   1   3   4 1273.26   36.09   0
   0   4   4  466.90   34.76   0
   2   4   4  339.02   37.00   0
   1   5   4  238.62   36.31   0
   0   6   4  916.54   37.25   0
   2   6   4  605.59   46.04   0
   1   7   4  813.76   39.15   0
   0   8   4  385.67   33.22   0
   1   9   4  307.20   42.75   0
   0  10   4  330.30   38.17   0
;
_shelx_hkl_checksum              44737
loop_
_space_group_symop_operation_xyz
'x, y, z'
'-x, -y, z'
'-x, y, -z'
'x, -y, -z'
'x+1/2, y+1/2, z'
'-x+1/2, -y+1/2, z'
'-x+1/2, y+1/2, -z'
'x+1/2, -y+1/2, -z'
'-x, -y, -z'
'x, y, -z'
'x, -y, z'
'-x, y, z'
'-x+1/2, -y+1/2, -z'
'x+1/2, y+1/2, -z'
'x+1/2, -y+1/2, z'
'-x+1/2, y+1/2, z'
loop_
_atom_site_label
_atom_site_type_symbol
_atom_site_fract_x
_atom_site_fract_y
_atom_site_fract_z
_atom_site_U_iso_or_equiv
_atom_site_adp_type
_atom_site_occupancy
_atom_site_site_symmetry_order
_atom_site_calc_flag
_atom_site_refinement_flags_posn
_atom_site_refinement_flags_adp
_atom_site_refinement_flags_occupancy
Fe Fe 0.5000 0.64596(5) 0.0000 0.00665(18) Uani 1 4 d S T P
Al Al 0.0000 0.5000 0.5000 0.0067(3) Uani 1 8 d S T P
B B 0.0000 0.7068(3) -0.5000 0.0081(6) Uani 1 4 d S T P
loop_
_atom_site_aniso_label
_atom_site_aniso_U_11
_atom_site_aniso_U_22
_atom_site_aniso_U_33
_atom_site_aniso_U_23
_atom_site_aniso_U_13
_atom_site_aniso_U_12
Fe 0.0081(2) 0.0058(2) 0.0060(2) 0.000 0.000 0.000
Al 0.0079(6) 0.0036(5) 0.0085(6) 0.000 0.000 0.000
B 0.0081(14) 0.0076(14) 0.0088(13) 0.000 0.000 0.000
loop_
_atom_type_symbol
_atom_type_description
_atom_type_scat_dispersion_real
_atom_type_scat_dispersion_imag
_atom_type_scat_source
B B 0.0013 0.0007 'International Tables Vol C Tables 4.2.6.8 and 6.1.1.4'
Al Al 0.0645 0.0514 'International Tables Vol C Tables 4.2.6.8 and 6.1.1.4'
Fe Fe 0.3463 0.8444 'International Tables Vol C Tables 4.2.6.8 and 6.1.1.4'
loop_
_geom_angle_atom_site_label_1
_geom_angle_atom_site_label_2
_geom_angle_atom_site_label_3
_geom_angle
_geom_angle_site_symmetry_1
_geom_angle_site_symmetry_3
B Fe B 85.61(6) 1_656 1_556
B Fe B 83.26(6) 1_656 1_655
B Fe B 143.71(18) 1_556 1_655
B Fe B 143.71(18) 1_656 .
B Fe B 83.26(6) 1_556 .
B Fe B 85.61(6) 1_655 .
B Fe B 47.70(9) 1_656 13_565
B Fe B 47.70(9) 1_556 13_565
B Fe B 101.88(4) 1_655 13_565
B Fe B 101.88(4) . 13_565
B Fe B 101.88(4) 1_656 13_564
B Fe B 101.88(4) 1_556 13_564
B Fe B 47.70(9) 1_655 13_564
B Fe B 47.70(9) . 13_564
B Fe B 82.83(12) 13_565 13_564
B Fe Al 159.98(9) 1_656 1_554
B Fe Al 100.11(6) 1_556 1_554
B Fe Al 102.08(6) 1_655 1_554
B Fe Al 56.31(9) . 1_554
B Fe Al 145.789(7) 13_565 1_554
B Fe Al 95.73(5) 13_564 1_554
B Fe Al 102.08(6) 1_656 .
B Fe Al 56.31(9) 1_556 .
B Fe Al 159.98(9) 1_655 .
B Fe Al 100.11(6) . .
B Fe Al 95.73(5) 13_565 .
B Fe Al 145.789(7) 13_564 .
Al Fe Al 66.685(14) 1_554 .
B Fe Al 100.11(6) 1_656 1_654
B Fe Al 159.98(9) 1_556 1_654
B Fe Al 56.31(9) 1_655 1_654
B Fe Al 102.08(6) . 1_654
B Fe Al 145.789(7) 13_565 1_654
B Fe Al 95.73(5) 13_564 1_654
Al Fe Al 68.420(14) 1_554 1_654
Al Fe Al 103.68(2) . 1_654
B Fe Al 56.31(9) 1_656 1_655
B Fe Al 102.08(6) 1_556 1_655
B Fe Al 100.11(6) 1_655 1_655
B Fe Al 159.98(9) . 1_655
B Fe Al 95.73(5) 13_565 1_655
B Fe Al 145.789(7) 13_564 1_655
Al Fe Al 103.68(2) 1_554 1_655
Al Fe Al 68.420(14) . 1_655
Al Fe Al 66.685(14) 1_654 1_655
B Fe Fe 51.09(8) 1_656 13_665
B Fe Fe 95.92(9) 1_556 13_665
B Fe Fe 51.09(8) 1_655 13_665
B Fe Fe 95.92(9) . 13_665
B Fe Fe 50.79(5) 13_565 13_665
B Fe Fe 50.79(5) 13_564 13_665
Al Fe Fe 145.420(11) 1_554 13_665
Al Fe Fe 145.420(11) . 13_665
Al Fe Fe 102.610(9) 1_654 13_665
Al Fe Fe 102.610(9) 1_655 13_665
B Fe Fe 95.92(9) 1_656 13_565
B Fe Fe 51.09(8) 1_556 13_565
B Fe Fe 95.92(9) 1_655 13_565
B Fe Fe 51.09(8) . 13_565
B Fe Fe 50.79(5) 13_565 13_565
B Fe Fe 50.79(5) 13_564 13_565
Al Fe Fe 102.610(9) 1_554 13_565
Al Fe Fe 102.610(9) . 13_565
Al Fe Fe 145.420(11) 1_654 13_565
Al Fe Fe 145.420(11) 1_655 13_565
Fe Fe Fe 65.10(3) 13_665 13_565
B Al B 180.0 9_565 1_556
B Al Fe 128.162(10) 9_565 .
B Al Fe 51.838(11) 1_556 .
B Al Fe 51.837(11) 9_565 9_565
B Al Fe 128.163(11) 1_556 9_565
Fe Al Fe 113.315(14) . 9_565
B Al Fe 128.163(11) 9_565 1_556
B Al Fe 51.837(11) 1_556 1_556
Fe Al Fe 66.685(14) . 1_556
Fe Al Fe 180.0 9_565 1_556
B Al Fe 51.837(11) 9_565 9_566
B Al Fe 128.163(11) 1_556 9_566
Fe Al Fe 180.0 . 9_566
Fe Al Fe 66.685(14) 9_565 9_566
Fe Al Fe 113.315(14) 1_556 9_566
B Al Fe 128.163(11) 9_565 1_456
B Al Fe 51.837(11) 1_556 1_456
Fe Al Fe 103.68(2) . 1_456
Fe Al Fe 111.580(14) 9_565 1_456
Fe Al Fe 68.420(14) 1_556 1_456
Fe Al Fe 76.33(2) 9_566 1_456
B Al Fe 51.837(11) 9_565 9_665
B Al Fe 128.163(11) 1_556 9_665
Fe Al Fe 76.32(2) . 9_665
Fe Al Fe 68.420(14) 9_565 9_665
Fe Al Fe 111.580(14) 1_556 9_665
Fe Al Fe 103.67(2) 9_566 9_665
Fe Al Fe 180.0 1_456 9_665
B Al Fe 51.837(11) 9_565 9_666
B Al Fe 128.163(11) 1_556 9_666
Fe Al Fe 111.580(14) . 9_666
Fe Al Fe 103.67(2) 9_565 9_666
Fe Al Fe 76.33(2) 1_556 9_666
Fe Al Fe 68.420(14) 9_566 9_666
Fe Al Fe 113.315(14) 1_456 9_666
Fe Al Fe 66.685(14) 9_665 9_666
B Al Fe 128.163(11) 9_565 1_455
B Al Fe 51.837(11) 1_556 1_455
Fe Al Fe 68.420(14) . 1_455
Fe Al Fe 76.33(2) 9_565 1_455
Fe Al Fe 103.67(2) 1_556 1_455
Fe Al Fe 111.580(14) 9_566 1_455
Fe Al Fe 66.685(14) 1_456 1_455
Fe Al Fe 113.315(14) 9_665 1_455
Fe Al Fe 180.0 9_666 1_455
B Al Al 90.0 9_565 1_554
B Al Al 90.0 1_556 1_554
Fe Al Al 56.657(7) . 1_554
Fe Al Al 56.658(7) 9_565 1_554
Fe Al Al 123.342(7) 1_556 1_554
Fe Al Al 123.342(7) 9_566 1_554
Fe Al Al 123.342(7) 1_456 1_554
Fe Al Al 56.658(7) 9_665 1_554
Fe Al Al 123.342(7) 9_666 1_554
Fe Al Al 56.658(7) 1_455 1_554
B Al Al 90.0 9_565 1_556
B Al Al 90.0 1_556 1_556
Fe Al Al 123.343(7) . 1_556
Fe Al Al 123.342(7) 9_565 1_556
Fe Al Al 56.658(7) 1_556 1_556
Fe Al Al 56.658(7) 9_566 1_556
Fe Al Al 56.658(7) 1_456 1_556
Fe Al Al 123.342(7) 9_665 1_556
Fe Al Al 56.658(7) 9_666 1_556
Fe Al Al 123.342(7) 1_455 1_556
Al Al Al 180.0 1_554 1_556
B B B 113.9(4) 13_564 13_464
B B Fe 137.68(8) 13_564 1_454
B B Fe 66.42(7) 13_464 1_454
B B Fe 66.42(7) 13_564 1_554
B B Fe 137.68(8) 13_464 1_554
Fe B Fe 85.61(6) 1_454 1_554
B B Fe 137.68(8) 13_564 1_455
B B Fe 66.42(7) 13_464 1_455
Fe B Fe 83.26(5) 1_454 1_455
Fe B Fe 143.71(18) 1_554 1_455
B B Fe 66.42(7) 13_564 .
B B Fe 137.68(8) 13_464 .
Fe B Fe 143.71(18) 1_454 .
Fe B Fe 83.26(5) 1_554 .
Fe B Fe 85.61(6) 1_455 .
B B Fe 65.88(16) 13_564 13_565
B B Fe 65.88(16) 13_464 13_565
Fe B Fe 132.30(9) 1_454 13_565
Fe B Fe 132.30(9) 1_554 13_565
Fe B Fe 78.12(4) 1_455 13_565
Fe B Fe 78.12(4) . 13_565
B B Fe 65.88(16) 13_564 13_564
B B Fe 65.88(16) 13_464 13_564
Fe B Fe 78.12(4) 1_454 13_564
Fe B Fe 78.12(4) 1_554 13_564
Fe B Fe 132.30(9) 1_455 13_564
Fe B Fe 132.30(9) . 13_564
Fe B Fe 82.83(12) 13_565 13_564
B B Al 123.0(2) 13_564 1_554
B B Al 123.0(2) 13_464 1_554
Fe B Al 71.86(9) 1_454 1_554
Fe B Al 71.86(9) 1_554 1_554
Fe B Al 71.86(9) 1_455 1_554
Fe B Al 71.86(9) . 1_554
Fe B Al 138.59(6) 13_565 1_554
Fe B Al 138.59(6) 13_564 1_554
loop_
_geom_bond_atom_site_label_1
_geom_bond_atom_site_label_2
_geom_bond_distance
_geom_bond_site_symmetry_2
Fe B 2.1499(12) 1_656
Fe B 2.1499(12) 1_556
Fe B 2.1499(12) 1_655
Fe B 2.1499(12) .
Fe B 2.159(3) 13_565
Fe B 2.159(3) 13_564
Fe Al 2.5983(4) 1_554
Fe Al 2.5983(4) .
Fe Al 2.5983(4) 1_654
Fe Al 2.5983(4) 1_655
Fe Fe 2.7151(10) 13_665
Fe Fe 2.7151(10) 13_565
Al B 2.275(4) 9_565
Al B 2.275(4) 1_556
Al Fe 2.5983(4) 9_565
Al Fe 2.5983(4) 1_556
Al Fe 2.5983(4) 9_566
Al Fe 2.5983(4) 1_456
Al Fe 2.5983(4) 9_665
Al Fe 2.5983(4) 9_666
Al Fe 2.5983(4) 1_455
Al Al 2.8563(5) 1_554
Al Al 2.8563(5) 1_556
B B 1.742(4) 13_564
B B 1.742(4) 13_464
B Fe 2.1499(12) 1_454
B Fe 2.1499(12) 1_554
B Fe 2.1499(12) 1_455
B Fe 2.159(3) 13_565
B Fe 2.159(3) 13_564
B Al 2.275(4) 1_554
