#------------------------------------------------------------------------------
#$Date: 2016-02-13 21:28:24 +0200 (Sat, 13 Feb 2016) $
#$Revision: 176429 $
#$URL: svn://www.crystallography.net/cod/cif/4/34/33/4343381.cif $
#------------------------------------------------------------------------------
#
# This file is available in the Crystallography Open Database (COD),
# http://www.crystallography.net/
#
# All data on this site have been placed in the public domain by the
# contributors.
#
data_4343381
loop_
_publ_author_name
'Delacotte, Charl\`ene'
'P\'erez, Olivier'
'Pautrat, Alain'
'Berthebaud, David'
'H\'ebert, Sylvie'
'Suard, Emmanuelle'
'Pelloquin, Denis'
'Maignan, Antoine'
_publ_section_title
;
 Magnetodielectric Effect in Crystals of the Noncentrosymmetric CaOFeS at
 Low Temperature.
;
_journal_issue                   13
_journal_name_full               'Inorganic chemistry'
_journal_page_first              6560
_journal_page_last               6565
_journal_paper_doi               10.1021/acs.inorgchem.5b00879
_journal_volume                  54
_journal_year                    2015
_chemical_absolute_configuration ad
_chemical_formula_sum            'Ca Fe O S'
_chemical_formula_weight         144
_chemical_name_systematic
;
 ?
;
_space_group_crystal_system      hexagonal
_space_group_IT_number           186
_space_group_name_Hall           'P 6c -2c'
_space_group_name_H-M_alt        'P 63 m c'
_symmetry_Int_Tables_number      186
_symmetry_space_group_name_Hall  'P 6c -2c'
_symmetry_space_group_name_H-M   'P 63 m c'
_atom_sites_solution_primary     iterative
_audit_creation_date             2014-10-01
_audit_creation_method
;
Olex2 1.2
(compiled 2014.09.19 svn.r3010 for OlexSys, GUI svn.r4874)
;
_cell_angle_alpha                90
_cell_angle_beta                 90
_cell_angle_gamma                120
_cell_formula_units_Z            2
_cell_length_a                   3.7519(2)
_cell_length_b                   3.7519(2)
_cell_length_c                   11.3490(10)
_cell_measurement_temperature    293
_cell_volume                     138.354(16)
_computing_structure_refinement  Jana2006
_computing_structure_solution
;
Superflip (Palatinus & Chapuis, 2007;Palatinus & van der Lee, 2008;
Palatinus et al., 2012)
;
_diffrn_ambient_temperature      293
_diffrn_detector                 'Bruker APEX2 area detector'
_diffrn_detector_area_resol_mean 7.9
_diffrn_detector_type            'CCD area detector'
_diffrn_measured_fraction_theta_full 1
_diffrn_measured_fraction_theta_max 1
_diffrn_measurement_device       'four-circle diffractometer'
_diffrn_measurement_device_type  'Bruker-Nonius APEX2 CCD area detector'
_diffrn_measurement_method       '\w and \f scans'
_diffrn_radiation_monochromator  'mirror optics'
_diffrn_radiation_probe          x-ray
_diffrn_radiation_type           'Mo K\a'
_diffrn_radiation_wavelength     0.71073
_diffrn_reflns_av_R_equivalents  0.036
_diffrn_reflns_av_unetI/netI     0.0199
_diffrn_reflns_limit_h_max       8
_diffrn_reflns_limit_h_min       -6
_diffrn_reflns_limit_k_max       8
_diffrn_reflns_limit_k_min       -8
_diffrn_reflns_limit_l_max       25
_diffrn_reflns_limit_l_min       -25
_diffrn_reflns_number            8166
_diffrn_reflns_reduction_process 'Bruker Apex2 suite'
_diffrn_reflns_theta_full        52.54
_diffrn_reflns_theta_max         52.54
_diffrn_reflns_theta_min         3.59
_diffrn_source                   'microfocus sealed X-ray tube'
_diffrn_source_type              'Incoatec I\ms'
_exptl_absorpt_coefficient_mu    7.726
_exptl_absorpt_correction_T_max  0.7140
_exptl_absorpt_correction_T_min  0.0971
_exptl_absorpt_correction_type   multi-scan
_exptl_absorpt_process_details
;
SADABS-2012/1 (Bruker,2012) was used for absorption correction.
wR2(int) was 0.1044 before and 0.0548 after correction.
The Ratio of minimum to maximum transmission is 0.1360.
The \l/2 correction factor is 0.0015.
;
_exptl_crystal_density_diffrn    3.4563
_exptl_crystal_description       plate
_exptl_crystal_F_000             140
_exptl_crystal_size_max          0.430
_exptl_crystal_size_mid          0.330
_exptl_crystal_size_min          0.016
_refine_diff_density_max         0.44
_refine_diff_density_min         -0.48
_refine_ls_abs_structure_details
;
  331 of Friedel pairs used in the refinement
;
_refine_ls_abs_structure_Flack   0.02(6)
_refine_ls_extinction_coef       1100(400)
_refine_ls_extinction_method
'B-C type 1 Gaussian isotropic (Becker & Coppens, 1974)'
_refine_ls_goodness_of_fit_gt    1.50
_refine_ls_goodness_of_fit_ref   1.72
_refine_ls_hydrogen_treatment    undef
_refine_ls_number_constraints    1
_refine_ls_number_parameters     15
_refine_ls_number_reflns         689
_refine_ls_number_restraints     0
_refine_ls_R_factor_all          0.0289
_refine_ls_R_factor_gt           0.0258
_refine_ls_shift/su_max          0.0001
_refine_ls_shift/su_mean         0.0000
_refine_ls_structure_factor_coef F
_refine_ls_weighting_details     w=1/(\s^2^(F)+0.0035999999F^2^)
_refine_ls_weighting_scheme      sigma
_refine_ls_wR_factor_gt          0.0918
_refine_ls_wR_factor_ref         0.1096
_reflns_number_gt                635
_reflns_number_total             689
_reflns_threshold_expression     I>3\s(I)
_cod_data_source_file            ic5b00879_si_001.cif
_cod_data_source_block           I
_cod_depositor_comments          'Adding full bibliography for 4343381.cif.'
_cod_original_formula_sum        'Ca1 Fe1 O1 S1'
_cod_database_code               4343381
#BEGIN Tags that were not found in dictionaries:
_olex2_refinement_description
;
;
_olex2_submission_special_instructions 'No special instructions were received'
#END Tags that were not found in dictionaries
loop_
_space_group_symop_id
_space_group_symop_operation_xyz
1 x,y,z
2 -y,x-y,z
3 -x+y,-x,z
4 -x,-y,z+1/2
5 y,-x+y,z+1/2
6 x-y,x,z+1/2
7 -y,-x,z
8 -x+y,y,z
9 x,x-y,z
10 y,x,z+1/2
11 x-y,-y,z+1/2
12 -x,-x+y,z+1/2
loop_
_atom_site_label
_atom_site_type_symbol
_atom_site_fract_x
_atom_site_fract_y
_atom_site_fract_z
_atom_site_adp_type
_atom_site_U_iso_or_equiv
_atom_site_site_symmetry_multiplicity
_atom_site_occupancy
_atom_site_calc_flag
_atom_site_refinement_flags_posn
_atom_site_refinement_flags_adp
_atom_site_refinement_flags_occupancy
Fe1 Fe 0 0 0.44016(8) Uani 0.01151(17) 2 1 d S T P
Ca1 Ca -0.666667 0.666667 0.70707(10) Uani 0.00909(17) 2 1 d S T P
S1 S -0.333333 0.333333 0.52821(12) Uani 0.0094(3) 2 1 d S T P
O1 O 0 0 0.2756(4) Uani 0.0089(7) 2 1 d S T P
loop_
_atom_site_aniso_label
_atom_site_aniso_type_symbol
_atom_site_aniso_U_11
_atom_site_aniso_U_22
_atom_site_aniso_U_33
_atom_site_aniso_U_12
_atom_site_aniso_U_13
_atom_site_aniso_U_23
Fe1 Fe 0.0137(2) 0.0137(2) 0.0072(3) 0.00684(11) 0 0
Ca1 Ca 0.0071(2) 0.0071(2) 0.0131(3) 0.00355(10) 0 0
S1 S 0.0082(4) 0.0082(4) 0.0120(5) 0.00408(18) 0 0
O1 O 0.0099(8) 0.0099(8) 0.0070(16) 0.0049(4) 0 0
loop_
_atom_type_symbol
_atom_type_scat_dispersion_real
_atom_type_scat_dispersion_imag
_atom_type_scat_source
Ca 0.2262 0.3064 'International Tables Vol C tables 4.2.6.8 and 6.1.1.1'
Fe 0.3463 0.8444 'International Tables Vol C tables 4.2.6.8 and 6.1.1.1'
O 0.0106 0.0060 'International Tables Vol C tables 4.2.6.8 and 6.1.1.1'
S 0.1246 0.1234 'International Tables Vol C tables 4.2.6.8 and 6.1.1.1'
loop_
_geom_angle_atom_site_label_1
_geom_angle_atom_site_label_2
_geom_angle_atom_site_label_3
_geom_angle_site_symmetry_1
_geom_angle_site_symmetry_3
_geom_angle
S1 Fe1 S1 1_545 . 103.70(3)
S1 Fe1 S1 1_545 1_655 103.70(3)
S1 Fe1 O1 1_545 . 114.76(4)
S1 Fe1 S1 . 1_655 103.70(3)
S1 Fe1 O1 . . 114.76(4)
S1 Fe1 O1 1_655 . 114.76(4)
Ca1 Ca1 Ca1 1_445 1_455 60.000(4)
Ca1 Ca1 Ca1 1_445 1_545 60.000(4)
Ca1 Ca1 Ca1 1_445 1_565 120.000(4)
Ca1 Ca1 Ca1 1_445 1_655 120.000(4)
Ca1 Ca1 Ca1 1_445 1_665 180.0(5)
Ca1 Ca1 S1 1_445 1_455 50.81(2)
Ca1 Ca1 S1 1_445 . 90.000(17)
Ca1 Ca1 S1 1_445 1_565 129.19(3)
Ca1 Ca1 O1 1_445 4_455 35.40(5)
Ca1 Ca1 O1 1_445 4_465 90.000(10)
Ca1 Ca1 O1 1_445 4_565 144.60(6)
Ca1 Ca1 Ca1 1_455 1_545 120.000(4)
Ca1 Ca1 Ca1 1_455 1_565 60.000(4)
Ca1 Ca1 Ca1 1_455 1_655 180.0(5)
Ca1 Ca1 Ca1 1_455 1_665 120.000(4)
Ca1 Ca1 S1 1_455 1_455 50.81(2)
Ca1 Ca1 S1 1_455 . 129.19(3)
Ca1 Ca1 S1 1_455 1_565 90.000(17)
Ca1 Ca1 O1 1_455 4_455 90.000(9)
Ca1 Ca1 O1 1_455 4_465 35.40(5)
Ca1 Ca1 O1 1_455 4_565 144.60(6)
Ca1 Ca1 Ca1 1_545 1_565 180.0(5)
Ca1 Ca1 Ca1 1_545 1_655 60.000(4)
Ca1 Ca1 Ca1 1_545 1_665 120.000(4)
Ca1 Ca1 S1 1_545 1_455 90.000(17)
Ca1 Ca1 S1 1_545 . 50.81(2)
Ca1 Ca1 S1 1_545 1_565 129.19(3)
Ca1 Ca1 O1 1_545 4_455 35.40(5)
Ca1 Ca1 O1 1_545 4_465 144.60(6)
Ca1 Ca1 O1 1_545 4_565 90.000(9)
Ca1 Ca1 Ca1 1_565 1_655 120.000(4)
Ca1 Ca1 Ca1 1_565 1_665 60.000(4)
Ca1 Ca1 S1 1_565 1_455 90.000(17)
Ca1 Ca1 S1 1_565 . 129.19(3)
Ca1 Ca1 S1 1_565 1_565 50.81(2)
Ca1 Ca1 O1 1_565 4_455 144.60(6)
Ca1 Ca1 O1 1_565 4_465 35.40(5)
Ca1 Ca1 O1 1_565 4_565 90.000(9)
Ca1 Ca1 Ca1 1_655 1_665 60.000(4)
Ca1 Ca1 S1 1_655 1_455 129.19(3)
Ca1 Ca1 S1 1_655 . 50.81(2)
Ca1 Ca1 S1 1_655 1_565 90.000(17)
Ca1 Ca1 O1 1_655 4_455 90.000(9)
Ca1 Ca1 O1 1_655 4_465 144.60(6)
Ca1 Ca1 O1 1_655 4_565 35.40(5)
Ca1 Ca1 S1 1_665 1_455 129.19(3)
Ca1 Ca1 S1 1_665 . 90.000(17)
Ca1 Ca1 S1 1_665 1_565 50.81(2)
Ca1 Ca1 O1 1_665 4_455 144.60(6)
Ca1 Ca1 O1 1_665 4_465 90.000(10)
Ca1 Ca1 O1 1_665 4_565 35.40(5)
S1 Ca1 S1 1_455 . 78.38(3)
S1 Ca1 S1 1_455 1_565 78.38(3)
S1 Ca1 O1 1_455 4_455 83.54(8)
S1 Ca1 O1 1_455 4_465 83.54(8)
S1 Ca1 O1 1_455 4_565 156.60(11)
S1 Ca1 S1 . 1_565 78.38(3)
S1 Ca1 O1 . 4_455 83.54(8)
S1 Ca1 O1 . 4_465 156.60(11)
S1 Ca1 O1 . 4_565 83.54(8)
S1 Ca1 O1 1_565 4_455 156.60(11)
S1 Ca1 O1 1_565 4_465 83.54(8)
S1 Ca1 O1 1_565 4_565 83.54(8)
O1 Ca1 O1 4_455 4_465 109.20(8)
O1 Ca1 O1 4_455 4_565 109.20(8)
O1 Ca1 O1 4_465 4_565 109.20(8)
Fe1 S1 Fe1 1_455 . 103.70(4)
Fe1 S1 Fe1 1_455 1_565 103.70(4)
Fe1 S1 Ca1 1_455 1_545 87.43(2)
Fe1 S1 Ca1 1_455 . 87.43(2)
Fe1 S1 Ca1 1_455 1_655 161.62(5)
Fe1 S1 Fe1 . 1_565 103.70(4)
Fe1 S1 Ca1 . 1_545 87.43(2)
Fe1 S1 Ca1 . . 161.62(5)
Fe1 S1 Ca1 . 1_655 87.43(2)
Fe1 S1 Ca1 1_565 1_545 161.62(5)
Fe1 S1 Ca1 1_565 . 87.43(2)
Fe1 S1 Ca1 1_565 1_655 87.43(2)
Ca1 S1 Ca1 1_545 . 78.38(3)
Ca1 S1 Ca1 1_545 1_655 78.38(3)
Ca1 S1 Ca1 . 1_655 78.38(3)
Fe1 O1 Ca1 . 4_454 109.74(11)
Fe1 O1 Ca1 . 4_464 109.74(11)
Fe1 O1 Ca1 . 4_564 109.74(11)
Ca1 O1 Ca1 4_454 4_464 109.20(11)
Ca1 O1 Ca1 4_454 4_564 109.20(11)
Ca1 O1 Ca1 4_464 4_564 109.20(11)
loop_
_geom_bond_atom_site_label_1
_geom_bond_atom_site_label_2
_geom_bond_site_symmetry_2
_geom_bond_distance
Fe1 S1 1_545 2.3855(7)
Fe1 S1 . 2.3855(7)
Fe1 S1 1_655 2.3855(7)
Fe1 O1 . 1.868(5)
Ca1 S1 1_455 2.9686(12)
Ca1 S1 . 2.9686(12)
Ca1 S1 1_565 2.9686(12)
Ca1 O1 4_455 2.3014(16)
Ca1 O1 4_465 2.3014(16)
Ca1 O1 4_565 2.3014(16)
loop_
_refln_index_h
_refln_index_k
_refln_index_l
_refln_F_squared_calc
_refln_F_squared_meas
_refln_F_squared_sigma
_refln_observed_status
0 1 0 759.69 773.14 12.04 o
-1 2 0 7297.09 6383.00 241.09 o
0 2 0 332.34 321.17 5.74 o
-1 3 0 160.14 156.30 2.50 o
0 3 0 2851.74 2680.65 61.42 o
-2 4 0 2065.60 2071.58 28.07 o
-1 4 0 44.49 44.07 0.44 o
0 4 0 25.53 25.71 0.42 o
-2 5 0 15.43 14.93 0.24 o
-1 5 0 980.58 988.91 9.15 o
0 5 0 6.47 6.64 0.24 o
-3 6 0 650.83 651.80 9.35 o
-2 6 0 4.43 4.70 0.18 o
-1 6 0 3.12 3.18 0.14 o
0 6 0 372.07 364.51 5.24 o
-3 7 0 1.63 1.76 0.14 o
-2 7 0 311.58 303.95 3.12 o
-1 7 0 0.87 0.97 0.12 o
0 7 0 0.46 0.52 0.14 o
-4 8 0 186.29 176.64 3.84 o
-3 8 0 0.46 0.78 0.17 o
-2 8 0 0.33 0.44 0.15 <
0 1 1 679.40 723.07 12.08 o
0 1 -1 663.42 686.42 12.13 o
0 2 1 344.43 343.49 5.81 o
0 2 -1 332.82 338.43 6.39 o
-1 3 1 227.62 242.95 4.27 o
-1 3 -1 217.57 223.05 3.35 o
0 3 1 0.00 0.46 0.17 <
0 3 -1 0.00 0.63 0.15 o
-1 4 1 133.20 140.41 1.29 o
-1 4 -1 125.66 130.63 1.10 o
0 4 1 108.14 114.43 1.49 o
0 4 -1 101.75 105.91 1.31 o
-2 5 1 89.37 92.32 0.92 o
-2 5 -1 83.99 86.26 0.81 o
-1 5 1 0.00 0.35 0.09 o
-1 5 -1 0.00 0.50 0.08 o
0 5 1 62.88 65.79 0.97 o
0 5 -1 59.11 59.00 0.85 o
-2 6 1 53.22 53.37 0.68 o
-2 6 -1 50.06 50.43 0.60 o
-1 6 1 45.23 45.07 0.57 o
-1 6 -1 42.58 42.25 0.54 o
0 6 1 0.00 0.32 0.15 <
0 6 -1 0.00 0.24 0.14 <
-3 7 1 32.96 32.87 0.55 o
-3 7 -1 31.08 30.73 0.49 o
-2 7 1 0.00 0.50 0.12 o
-2 7 -1 0.00 0.32 0.11 <
-1 7 1 24.24 24.56 0.42 o
-1 7 -1 22.88 23.66 0.39 o
0 7 1 17.96 18.08 0.45 o
0 7 -1 16.96 17.35 0.42 o
-3 8 1 17.96 17.45 0.45 o
-3 8 -1 16.96 16.45 0.42 o
-2 8 1 15.49 16.06 0.47 o
-2 8 -1 14.63 15.30 0.42 o
0 0 2 432.15 313.05 17.70 o
0 1 2 2285.68 2621.80 141.56 o
0 1 -2 2356.83 2590.39 81.43 o
-1 2 2 208.30 201.46 3.35 o
-1 2 -2 196.62 185.53 3.01 o
0 2 2 1194.09 1206.73 18.80 o
0 2 -2 1254.57 1242.05 21.73 o
-1 3 2 726.36 738.05 11.46 o
-1 3 -2 773.23 768.40 11.29 o
0 3 2 94.16 92.68 1.96 o
0 3 -2 81.30 81.74 2.35 o
-2 4 2 62.67 66.13 1.15 o
-2 4 -2 51.27 50.39 0.64 o
-1 4 2 342.07 351.24 2.97 o
-1 4 -2 372.30 378.24 2.95 o
0 4 2 253.92 258.67 3.11 o
0 4 -2 278.67 282.73 3.35 o
-2 5 2 195.02 199.98 1.86 o
-2 5 -2 215.42 215.89 1.84 o
-1 5 2 18.31 18.11 0.29 o
-1 5 -2 12.05 11.45 0.19 o
0 5 2 123.04 124.39 1.63 o
0 5 -2 137.13 136.34 1.74 o
-3 6 2 8.42 8.23 0.32 o
-3 6 -2 4.51 4.72 0.23 o
-2 6 2 99.92 101.70 1.14 o
-2 6 -2 111.69 109.85 1.12 o
-1 6 2 81.91 82.30 0.90 o
-1 6 -2 91.79 89.96 1.00 o
0 6 2 3.02 3.51 0.25 o
0 6 -2 1.13 1.15 0.17 o
-3 7 2 56.12 56.52 0.78 o
-3 7 -2 63.13 62.17 0.82 o
-2 7 2 2.27 2.64 0.17 o
-2 7 -2 0.79 0.99 0.13 o
-1 7 2 39.07 38.48 0.58 o
-1 7 -2 44.11 43.77 0.60 o
0 7 2 27.46 27.03 0.57 o
0 7 -2 31.11 30.72 0.68 o
-4 8 2 1.22 2.08 0.34 o
-4 8 -2 0.49 0.41 0.21 <
-3 8 2 27.46 26.97 0.54 o
-3 8 -2 31.11 30.77 0.55 o
-2 8 2 23.07 23.33 0.53 o
-2 8 -2 26.20 26.32 0.56 o
0 1 3 1822.55 1908.65 39.12 o
0 1 -3 1825.43 1866.55 36.72 o
0 2 3 1002.04 1021.53 15.97 o
0 2 -3 1004.65 999.81 20.03 o
-1 3 3 689.48 694.85 11.01 o
-1 3 -3 691.83 693.25 9.95 o
0 3 3 0.00 0.70 0.13 o
0 3 -3 0.00 0.17 0.15 <
-1 4 3 412.38 436.94 3.54 o
-1 4 -3 414.16 428.69 3.32 o
0 4 3 334.22 353.50 4.10 o
0 4 -3 335.74 339.33 3.99 o
-2 5 3 274.68 288.54 2.62 o
-2 5 -3 275.96 277.47 2.34 o
-1 5 3 0.00 0.30 0.08 o
-1 5 -3 0.00 0.26 0.06 o
0 5 3 189.83 194.04 2.44 o
0 5 -3 190.73 192.96 2.34 o
-2 6 3 158.93 162.32 1.72 o
-2 6 -3 159.69 159.49 1.56 o
-1 6 3 133.53 135.13 1.40 o
-1 6 -3 134.16 134.05 1.42 o
0 6 3 0.00 0.16 0.12 <
0 6 -3 0.00 0.28 0.13 <
-3 7 3 95.08 95.79 1.21 o
-3 7 -3 95.53 96.29 1.18 o
-2 7 3 0.00 0.16 0.12 <
-2 7 -3 0.00 0.04 0.11 <
-1 7 3 68.42 68.98 0.84 o
-1 7 -3 68.74 71.23 0.94 o
0 7 3 49.70 51.94 0.92 o
0 7 -3 49.94 51.25 0.98 o
-3 8 3 49.70 50.46 0.83 o
-3 8 -3 49.94 49.79 0.79 o
0 1 4 680.93 711.31 12.12 o
0 1 -4 687.70 694.84 10.78 o
-1 2 4 2121.02 2234.30 41.54 o
-1 2 -4 2004.25 1992.20 36.92 o
0 2 4 406.59 419.10 6.08 o
0 2 -4 416.07 421.88 8.70 o
-1 3 4 261.29 265.35 4.74 o
-1 3 -4 271.66 266.49 3.84 o
0 3 4 923.59 943.44 15.02 o
0 3 -4 840.97 858.25 13.45 o
-2 4 4 685.50 738.90 9.77 o
-2 4 -4 616.15 619.29 6.32 o
-1 4 4 119.23 123.80 1.11 o
-1 4 -4 128.42 130.95 1.07 o
0 4 4 83.80 85.47 1.16 o
0 4 -4 91.89 92.89 1.23 o
-2 5 4 60.22 61.39 0.74 o
-2 5 -4 67.20 66.99 0.66 o
-1 5 4 344.29 354.96 3.17 o
-1 5 -4 302.88 298.69 2.57 o
0 5 4 32.78 32.36 0.55 o
0 5 -4 37.79 37.39 0.57 o
-3 6 4 235.35 240.68 3.43 o
-3 6 -4 205.85 205.19 3.00 o
-2 6 4 24.71 24.23 0.38 o
-2 6 -4 28.91 28.35 0.41 o
-1 6 4 18.82 18.46 0.30 o
-1 6 -4 22.34 21.66 0.35 o
0 6 4 139.29 140.99 2.05 o
0 6 -4 121.38 119.92 1.98 o
-3 7 4 11.21 11.05 0.32 o
-3 7 -4 13.66 13.20 0.29 o
-2 7 4 117.74 121.06 1.44 o
-2 7 -4 102.53 101.95 1.32 o
-1 7 4 6.85 6.69 0.22 o
-1 7 -4 8.56 8.66 0.27 o
0 7 4 4.26 4.38 0.27 o
0 7 -4 5.46 5.29 0.28 o
-4 8 4 71.99 74.17 1.47 o
-4 8 -4 62.57 62.35 1.38 o
-3 8 4 4.26 4.28 0.25 o
-3 8 -4 5.46 5.72 0.24 o
0 1 5 158.12 161.91 3.07 o
0 1 -5 166.64 167.24 2.95 o
0 2 5 94.18 93.25 1.62 o
0 2 -5 101.21 104.20 2.15 o
-1 3 5 65.71 64.18 1.33 o
-1 3 -5 71.83 69.89 1.08 o
0 3 5 0.00 0.19 0.11 <
0 3 -5 0.00 0.15 0.06 <
-1 4 5 40.59 41.06 0.47 o
-1 4 -5 45.07 44.58 0.42 o
0 4 5 33.75 34.75 0.57 o
0 4 -5 37.53 37.80 0.54 o
-2 5 5 28.63 29.32 0.43 o
-2 5 -5 31.79 31.70 0.37 o
-1 5 5 0.00 0.12 0.07 <
-1 5 -5 0.00 0.28 0.06 o
0 5 5 21.28 21.87 0.41 o
0 5 -5 23.50 23.75 0.45 o
-2 6 5 18.53 18.68 0.32 o
-2 6 -5 20.39 20.39 0.34 o
-1 6 5 16.17 16.40 0.28 o
-1 6 -5 17.73 17.80 0.30 o
0 6 5 0.00 0.02 0.12 <
0 6 -5 0.00 0.16 0.14 <
-3 7 5 12.38 12.10 0.34 o
-3 7 -5 13.49 14.02 0.32 o
-2 7 5 0.00 0.06 0.11 <
-2 7 -5 0.00 0.04 0.11 <
-1 7 5 9.49 9.66 0.28 o
-1 7 -5 10.29 10.40 0.30 o
0 7 5 7.27 7.54 0.35 o
0 7 -5 7.87 8.15 0.36 o
-3 8 5 7.27 7.39 0.32 o
-3 8 -5 7.87 8.30 0.30 o
0 0 6 301.85 314.97 12.75 o
0 1 6 3241.67 3429.75 63.01 o
0 1 -6 3226.26 3316.69 68.41 o
-1 2 6 163.26 170.42 3.60 o
-1 2 -6 201.21 202.77 4.03 o
0 2 6 1945.39 1902.36 32.34 o
0 2 -6 1931.26 1986.25 38.21 o
-1 3 6 1304.76 1316.20 18.09 o
-1 3 -6 1292.50 1294.01 15.30 o
0 3 6 83.50 89.77 1.40 o
0 3 -6 110.65 119.04 1.46 o
-2 4 6 70.35 75.24 1.11 o
-2 4 -6 93.71 97.62 1.20 o
-1 4 6 703.15 725.38 6.13 o
-1 4 -6 693.92 689.58 5.45 o
0 4 6 544.42 564.42 7.24 o
0 4 -6 536.43 538.08 6.33 o
-2 5 6 430.93 438.09 4.26 o
-2 5 -6 424.05 414.02 3.95 o
-1 5 6 47.35 49.42 0.55 o
-1 5 -6 62.00 62.97 0.66 o
0 5 6 281.76 284.88 3.77 o
0 5 -6 276.72 272.89 3.96 o
-3 6 6 36.20 36.67 0.80 o
-3 6 -6 46.74 46.64 0.88 o
-2 6 6 231.18 234.18 2.42 o
-2 6 -6 226.90 218.98 2.22 o
-1 6 6 190.91 198.41 2.03 o
-1 6 -6 187.27 182.82 1.90 o
0 6 6 23.86 24.22 0.51 o
0 6 -6 30.21 30.31 0.73 o
-3 7 6 132.16 131.82 1.75 o
-3 7 -6 129.56 127.84 1.51 o
-2 7 6 20.77 21.24 0.47 o
-2 7 -6 26.12 26.31 0.50 o
-1 7 6 92.75 90.08 1.31 o
-1 7 -6 90.90 89.88 1.22 o
0 7 6 65.70 61.04 1.49 o
0 7 -6 64.40 63.92 1.35 o
-4 8 6 13.82 13.73 0.58 o
-4 8 -6 17.01 17.03 0.56 o
-3 8 6 65.70 62.70 1.06 o
-3 8 -6 64.40 63.93 1.03 o
0 1 7 476.51 491.06 9.10 o
0 1 -7 465.31 485.70 9.49 o
0 2 7 331.72 337.77 5.83 o
0 2 -7 321.85 322.56 6.42 o
-1 3 7 252.43 262.48 3.11 o
-1 3 -7 243.84 247.24 2.97 o
0 3 7 0.00 0.49 0.10 o
0 3 -7 0.00 0.12 0.06 <
-1 4 7 163.39 172.19 1.58 o
-1 4 -7 157.16 161.06 1.46 o
0 4 7 134.85 142.57 1.75 o
0 4 -7 129.61 128.39 1.68 o
-2 5 7 112.28 115.73 1.32 o
-2 5 -7 107.89 106.28 1.12 o
-1 5 7 0.00 0.18 0.07 <
-1 5 -7 0.00 0.19 0.07 <
0 5 7 79.09 83.48 1.15 o
0 5 -7 76.01 76.78 1.30 o
-2 6 7 66.77 70.19 0.89 o
-2 6 -7 64.19 63.24 0.82 o
-1 6 7 56.54 59.25 0.74 o
-1 6 -7 54.37 54.04 0.72 o
0 6 7 0.00 0.06 0.13 <
0 6 -7 0.00 0.31 0.15 <
-3 7 7 40.87 42.86 0.65 o
-3 7 -7 39.31 39.12 0.65 o
-2 7 7 0.00 0.08 0.12 <
-2 7 -7 0.00 0.12 0.12 <
-1 7 7 29.82 30.67 0.57 o
-1 7 -7 28.68 28.67 0.58 o
0 0 8 1201.82 1222.53 48.67 o
0 0 -8 1262.04 1194.06 63.09 o
0 1 8 434.22 460.92 8.43 o
0 1 -8 451.99 475.30 8.77 o
-1 2 8 753.36 771.91 17.32 o
-1 2 -8 802.27 805.02 12.64 o
0 2 8 270.78 283.44 4.64 o
0 2 -8 281.90 283.96 5.60 o
-1 3 8 177.77 189.75 2.09 o
-1 3 -8 185.73 190.91 2.10 o
0 3 8 368.51 381.60 4.85 o
0 3 -8 400.18 404.28 4.63 o
-2 4 8 277.15 285.43 3.67 o
-2 4 -8 302.49 303.24 4.01 o
-1 4 8 86.07 90.37 0.89 o
-1 4 -8 91.60 90.60 1.00 o
0 4 8 62.71 64.23 0.88 o
0 4 -8 67.67 64.10 0.99 o
-2 5 8 46.79 48.43 0.66 o
-2 5 -8 51.30 50.22 0.63 o
-1 5 8 138.22 138.74 1.46 o
-1 5 -8 151.32 147.30 1.58 o
0 5 8 27.56 27.68 0.50 o
0 5 -8 31.27 30.60 0.64 o
-3 6 8 93.41 95.71 1.67 o
-3 6 -8 102.03 95.54 1.64 o
-2 6 8 21.59 21.48 0.43 o
-2 6 -8 24.93 24.11 0.40 o
-1 6 8 17.10 17.23 0.36 o
-1 6 -8 20.09 19.79 0.37 o
0 6 8 54.31 53.93 1.11 o
0 6 -8 59.13 57.69 1.19 o
-3 7 8 10.98 10.65 0.32 o
-3 7 -8 13.33 13.04 0.32 o
-2 7 8 45.63 45.45 0.74 o
-2 7 -8 49.65 48.42 0.76 o
-1 7 8 7.20 7.61 0.29 o
-1 7 -8 9.01 8.85 0.32 o
0 1 9 558.40 585.11 11.35 o
0 1 -9 564.37 519.46 9.63 o
0 2 9 420.92 431.93 6.10 o
0 2 -9 426.17 414.61 6.78 o
-1 3 9 332.62 352.06 3.41 o
-1 3 -9 337.14 337.28 3.64 o
0 3 9 0.00 0.67 0.11 o
0 3 -9 0.00 0.54 0.08 o
-1 4 9 221.26 228.80 2.25 o
-1 4 -9 224.49 218.29 2.28 o
0 4 9 183.39 188.62 2.45 o
0 4 -9 186.10 183.60 2.65 o
-2 5 9 152.86 160.57 1.95 o
-2 5 -9 155.13 150.68 1.83 o
-1 5 9 0.00 0.14 0.08 <
-1 5 -9 0.00 0.43 0.09 o
0 5 9 107.54 106.49 1.66 o
0 5 -9 109.14 107.21 1.76 o
-2 6 9 90.64 90.86 1.24 o
-2 6 -9 91.99 89.84 1.11 o
-1 6 9 76.60 76.85 1.07 o
-1 6 -9 77.74 77.11 1.00 o
0 6 9 0.00 0.19 0.16 <
0 6 -9 0.00 0.23 0.18 <
-3 7 9 55.14 54.17 0.83 o
-3 7 -9 55.97 56.24 1.05 o
-2 7 9 0.00 0.01 0.11 <
-2 7 -9 0.00 0.06 0.13 <
-1 7 9 40.07 41.66 0.70 o
-1 7 -9 40.68 42.32 0.83 o
0 0 10 812.92 867.54 34.56 o
0 1 10 560.26 601.04 9.28 o
0 1 -10 502.39 416.33 14.58 o
-1 2 10 584.80 626.28 11.68 o
-1 2 -10 624.06 600.64 9.81 o
0 2 10 394.05 399.03 5.57 o
0 2 -10 346.69 339.85 5.26 o
-1 3 10 292.33 308.54 3.02 o
-1 3 -10 252.90 243.56 2.41 o
0 3 10 332.39 355.84 5.15 o
0 3 -10 362.08 362.52 4.93 o
-2 4 10 258.61 270.99 3.75 o
-2 4 -10 284.23 267.50 4.13 o
-1 4 10 178.21 188.71 1.97 o
-1 4 -10 150.24 143.74 1.64 o
0 4 10 143.69 149.82 2.19 o
0 4 -10 120.00 111.94 1.79 o
-2 5 10 117.34 121.62 1.62 o
-2 5 -10 97.25 92.28 1.24 o
-1 5 10 131.42 133.28 1.75 o
-1 5 -10 147.47 143.31 1.66 o
0 5 10 80.37 81.16 1.33 o
0 5 -10 65.87 62.34 1.18 o
-3 6 10 87.31 85.74 1.89 o
-3 6 -10 98.90 98.82 2.18 o
-2 6 10 67.08 67.87 1.01 o
-2 6 -10 54.76 53.11 0.82 o
-1 6 10 56.21 55.09 0.83 o
-1 6 -10 45.72 43.74 0.67 o
0 6 10 49.29 48.44 1.03 o
0 6 -10 56.34 57.57 1.35 o
-3 7 10 39.80 39.83 0.68 o
-3 7 -10 32.18 31.90 0.63 o
-2 7 10 41.09 39.58 0.68 o
-2 7 -10 47.06 46.26 0.90 o
-1 7 10 28.41 28.17 0.58 o
-1 7 -10 22.85 24.63 0.65 o
0 1 11 6.40 6.00 0.25 o
0 1 -11 8.00 6.20 0.23 o
0 2 11 5.19 5.09 0.23 o
0 2 -11 6.55 5.89 0.26 o
-1 3 11 4.68 4.66 0.17 o
-1 3 -11 5.83 5.01 0.15 o
0 3 11 0.00 0.19 0.11 <
0 3 -11 0.00 0.11 0.08 <
-1 4 11 4.39 5.05 0.21 o
-1 4 -11 5.19 5.17 0.17 o
0 4 11 4.31 4.50 0.28 o
0 4 -11 4.99 4.40 0.24 o
-2 5 11 4.22 5.03 0.23 o
-2 5 -11 4.79 4.60 0.22 o
-1 5 11 0.00 0.14 0.11 <
-1 5 -11 0.00 0.38 0.11 o
0 5 11 3.91 4.03 0.25 o
0 5 -11 4.31 4.46 0.28 o
-2 6 11 3.70 4.14 0.23 o
-2 6 -11 4.04 3.96 0.21 o
-1 6 11 3.46 3.38 0.20 o
-1 6 -11 3.75 3.92 0.21 o
0 6 11 0.00 0.19 0.18 <
0 6 -11 0.00 0.25 0.22 <
-3 7 11 2.95 3.26 0.21 o
-3 7 -11 3.16 3.49 0.29 o
-2 7 11 0.00 0.30 0.13 <
-2 7 -11 0.00 0.04 0.15 <
0 0 12 1614.91 1809.99 86.27 o
0 0 -12 1581.16 1522.49 69.41 o
0 1 12 269.15 290.11 4.23 o
0 1 -12 287.63 265.47 5.04 o
-1 2 12 1210.04 1320.88 19.20 o
-1 2 -12 1180.41 988.31 13.95 o
0 2 12 188.63 200.88 2.72 o
0 2 -12 204.71 188.12 3.13 o
-1 3 12 138.69 148.41 1.53 o
-1 3 -12 152.58 142.28 1.76 o
0 3 12 740.47 775.67 12.15 o
0 3 -12 718.09 674.28 11.28 o
-2 4 12 595.21 643.49 8.63 o
-2 4 -12 575.93 544.15 8.69 o
-1 4 12 82.80 86.50 1.16 o
-1 4 -12 92.96 88.24 1.17 o
0 4 12 66.11 70.49 1.36 o
0 4 -12 74.74 68.99 1.34 o
-2 5 12 53.56 55.83 0.91 o
-2 5 -12 60.87 54.66 1.03 o
-1 5 12 327.53 351.24 4.70 o
-1 5 -12 315.56 299.20 3.93 o
0 5 12 36.16 37.33 0.79 o
0 5 -12 41.35 39.97 0.97 o
-3 6 12 226.59 235.95 4.22 o
-3 6 -12 218.04 175.48 4.68 o
-2 6 12 29.99 31.19 0.58 o
-2 6 -12 34.34 32.42 0.59 o
-1 6 12 24.96 25.27 0.55 o
-1 6 -12 28.62 27.38 0.54 o
0 6 12 133.83 135.82 2.79 o
0 6 -12 128.74 129.36 3.07 o
-3 7 12 17.44 17.65 0.40 o
-3 7 -12 20.01 18.21 0.53 o
-2 7 12 112.85 115.81 1.71 o
-2 7 -12 108.59 103.00 1.69 o
0 1 13 223.21 230.85 3.92 o
0 1 -13 217.99 196.38 3.48 o
0 2 13 182.08 194.23 3.06 o
0 2 -13 177.67 160.06 2.91 o
-1 3 13 150.27 156.23 1.58 o
-1 3 -13 146.56 125.80 1.81 o
0 3 13 0.00 0.32 0.13 <
0 3 -13 0.00 0.09 0.10 <
-1 4 13 104.39 107.63 1.38 o
-1 4 -13 101.79 91.85 1.05 o
0 4 13 87.59 89.43 1.60 o
0 4 -13 85.41 78.35 1.42 o
-2 5 13 73.74 75.20 1.16 o
-2 5 -13 71.91 62.41 1.19 o
-1 5 13 0.00 0.20 0.11 <
-1 5 -13 0.00 0.35 0.11 o
0 5 13 52.71 53.51 1.05 o
0 5 -13 51.41 47.38 1.03 o
-2 6 13 44.75 46.22 0.77 o
-2 6 -13 43.64 41.20 0.74 o
-1 6 13 38.08 39.71 0.75 o
-1 6 -13 37.13 35.86 0.62 o
0 6 13 0.00 0.11 0.16 <
0 6 -13 0.00 0.14 0.19 <
-3 7 13 27.77 27.83 0.56 o
-3 7 -13 27.07 25.86 0.60 o
0 0 14 240.71 274.45 13.20 o
0 1 14 195.51 210.54 3.61 o
0 1 -14 211.70 199.60 3.48 o
-1 2 14 179.49 192.49 3.05 o
-1 2 -14 186.92 160.30 2.55 o
0 2 14 145.54 155.96 2.67 o
0 2 -14 158.36 137.01 2.90 o
-1 3 14 111.12 120.18 1.39 o
-1 3 -14 121.34 107.72 1.51 o
0 3 14 108.14 111.91 1.99 o
0 3 -14 115.09 102.12 1.90 o
-2 4 14 86.39 86.81 1.49 o
-2 4 -14 92.99 85.49 1.69 o
-1 4 14 68.32 71.14 1.01 o
-1 4 -14 74.96 71.21 0.89 o
0 4 14 54.58 53.15 1.16 o
0 4 -14 59.99 55.49 1.15 o
-2 5 14 43.98 44.28 0.80 o
-2 5 -14 48.42 42.11 0.99 o
-1 5 14 47.21 43.79 0.76 o
-1 5 -14 52.38 48.08 0.76 o
0 5 14 29.08 30.20 0.77 o
0 5 -14 32.11 29.26 0.79 o
-3 6 14 32.64 31.75 0.84 o
-3 6 -14 36.81 31.42 1.02 o
-2 6 14 23.79 23.96 0.50 o
-2 6 -14 26.33 23.99 0.58 o
-1 6 14 19.52 19.81 0.45 o
-1 6 -14 21.64 20.29 0.42 o
0 6 14 19.24 17.93 0.57 o
0 6 -14 22.11 19.70 0.66 o
0 1 15 142.28 147.69 2.28 o
0 1 -15 146.07 133.65 3.74 o
0 2 15 117.86 124.42 2.57 o
0 2 -15 121.04 106.51 1.90 o
-1 3 15 98.22 105.90 1.22 o
-1 3 -15 100.89 86.82 1.23 o
0 3 15 0.00 0.18 0.10 <
0 3 -15 0.00 0.15 0.11 <
-1 4 15 69.12 73.14 1.04 o
-1 4 -15 70.99 64.60 0.84 o
0 4 15 58.28 57.85 1.25 o
0 4 -15 59.85 52.99 1.06 o
-2 5 15 49.27 50.13 0.92 o
-2 5 -15 50.60 44.23 0.80 o
-1 5 15 0.00 0.06 0.11 <
-1 5 -15 0.00 0.21 0.11 <
0 5 15 35.50 36.53 1.01 o
0 5 -15 36.46 33.45 0.86 o
-2 6 15 30.24 30.41 0.58 o
-2 6 -15 31.07 29.05 0.64 o
-1 6 15 25.82 27.68 0.53 o
-1 6 -15 26.53 25.58 0.50 o
0 0 16 243.20 260.19 9.85 o
0 1 16 220.56 233.76 3.51 o
0 1 -16 228.77 212.04 5.27 o
-1 2 16 200.62 205.86 3.67 o
-1 2 -16 158.47 139.49 2.52 o
0 2 16 172.75 183.60 3.87 o
0 2 -16 179.86 164.11 2.64 o
-1 3 16 137.07 145.45 1.69 o
-1 3 -16 143.16 124.79 1.47 o
0 3 16 140.06 147.22 2.64 o
0 3 -16 109.65 90.70 1.64 o
-2 4 16 117.97 124.35 1.88 o
-2 4 -16 92.13 78.30 1.70 o
-1 4 16 88.76 95.58 1.29 o
-1 4 -16 93.14 83.22 1.19 o
0 4 16 72.18 77.28 1.55 o
0 4 -16 75.87 67.88 1.49 o
-2 5 16 58.99 61.11 0.88 o
-2 5 -16 62.09 54.61 0.95 o
-1 5 16 71.85 77.39 1.05 o
-1 5 -16 55.97 53.04 0.87 o
0 5 16 39.89 42.81 1.08 o
0 5 -16 42.07 38.77 1.04 o
-3 6 16 52.20 54.65 1.42 o
-3 6 -16 40.68 36.11 1.00 o
-2 6 16 32.95 34.21 0.66 o
-2 6 -16 34.78 30.72 0.66 o
-1 6 16 27.29 28.31 0.61 o
-1 6 -16 28.82 25.58 0.52 o
0 1 17 3.91 4.53 0.25 o
0 1 -17 3.20 3.19 0.24 o
0 2 17 3.66 4.00 0.26 o
0 2 -17 3.07 3.10 0.20 o
-1 3 17 3.43 3.89 0.15 o
-1 3 -17 2.93 2.78 0.13 o
0 3 17 0.00 0.19 0.11 <
0 3 -17 0.00 0.36 0.12 <
-1 4 17 2.98 3.31 0.16 o
-1 4 -17 2.63 2.44 0.13 o
0 4 17 2.76 3.25 0.27 o
0 4 -17 2.46 2.41 0.22 o
-2 5 17 2.53 2.99 0.18 o
-2 5 -17 2.28 1.91 0.18 o
-1 5 17 0.00 0.32 0.10 o
-1 5 -17 0.00 0.27 0.10 <
0 5 17 2.10 2.32 0.24 o
0 5 -17 1.92 1.96 0.22 o
-2 6 17 1.90 2.16 0.17 o
-2 6 -17 1.74 1.86 0.18 o
0 0 18 185.87 208.37 6.54 o
0 0 -18 209.07 193.73 8.10 o
0 1 18 231.32 254.82 4.60 o
0 1 -18 219.37 200.66 4.25 o
-1 2 18 153.09 165.34 2.76 o
-1 2 -18 172.67 159.79 2.78 o
0 2 18 186.76 204.63 4.30 o
0 2 -18 176.65 161.30 2.78 o
-1 3 18 152.02 163.26 1.92 o
-1 3 -18 143.47 131.00 1.50 o
0 3 18 106.27 112.49 2.23 o
0 3 -18 120.14 111.87 2.10 o
-2 4 18 89.23 93.82 1.73 o
-2 4 -18 100.88 89.86 1.52 o
-1 4 18 102.63 111.24 1.51 o
-1 4 -18 96.54 88.06 1.05 o
0 4 18 84.88 92.32 1.92 o
0 4 -18 79.75 73.07 1.38 o
-2 5 18 70.45 76.14 1.12 o
-2 5 -18 66.13 60.94 1.04 o
-1 5 18 53.70 56.32 0.83 o
-1 5 -18 60.59 54.71 0.78 o
0 5 18 48.88 53.65 1.33 o
0 5 -18 45.82 43.36 0.95 o
0 1 19 76.29 84.38 1.47 o
0 1 -19 75.24 67.79 1.58 o
0 2 19 64.13 66.54 1.42 o
0 2 -19 63.25 57.15 1.14 o
-1 3 19 54.07 57.31 0.72 o
-1 3 -19 53.32 49.06 0.64 o
0 3 19 0.00 0.25 0.15 <
0 3 -19 0.00 0.28 0.13 <
-1 4 19 38.75 41.22 0.61 o
-1 4 -19 38.21 35.56 0.49 o
0 4 19 32.93 35.81 0.79 o
0 4 -19 32.47 30.47 0.74 o
-2 5 19 28.06 30.79 0.61 o
-2 5 -19 27.66 25.98 0.49 o
-1 5 19 0.00 0.68 0.11 o
-1 5 -19 0.00 0.28 0.10 <
0 0 20 42.12 53.46 1.84 o
0 0 -20 50.08 50.69 2.38 o
0 1 20 103.35 116.43 1.95 o
0 1 -20 109.62 100.28 2.01 o
-1 2 20 32.87 39.50 0.76 o
-1 2 -20 39.29 39.11 0.81 o
0 2 20 84.62 91.32 1.89 o
0 2 -20 90.18 82.22 1.57 o
-1 3 20 69.62 74.37 0.90 o
-1 3 -20 74.53 68.12 0.86 o
0 3 20 20.43 24.24 0.65 o
0 3 -20 24.66 24.44 0.56 o
-2 4 20 16.22 18.89 0.72 o
-2 4 -20 19.68 19.84 0.46 o
-1 4 20 47.65 50.13 0.75 o
-1 4 -20 51.45 46.31 0.59 o
0 4 20 39.57 41.63 0.79 o
0 4 -20 42.89 39.76 0.89 o
-2 5 20 32.92 35.32 0.76 o
-2 5 -20 35.82 32.53 0.53 o
0 1 21 24.44 29.92 0.57 o
0 1 -21 25.51 26.09 0.61 o
0 2 21 20.74 24.75 0.59 o
0 2 -21 21.64 21.18 0.54 o
-1 3 21 17.64 20.69 0.34 o
-1 3 -21 18.41 18.51 0.33 o
0 3 21 0.00 0.62 0.14 o
0 3 -21 0.00 0.61 0.14 o
-1 4 21 12.86 15.88 0.34 o
-1 4 -21 13.42 13.65 0.27 o
0 4 21 11.01 13.25 0.33 o
0 4 -21 11.50 12.14 0.39 o
0 0 22 175.49 199.37 8.05 o
0 0 -22 180.26 162.82 7.08 o
0 1 22 30.87 35.30 0.61 o
0 1 -22 22.26 20.77 0.49 o
-1 2 22 145.39 159.59 2.78 o
-1 2 -22 149.38 135.87 2.44 o
0 2 22 25.39 28.96 0.66 o
0 2 -22 18.07 16.56 0.46 o
-1 3 22 20.95 23.63 0.37 o
-1 3 -22 14.71 13.60 0.26 o
0 3 22 100.75 112.17 1.79 o
0 3 -22 103.52 95.32 1.66 o
-2 4 22 84.18 93.39 2.38 o
-2 4 -22 86.49 80.73 1.34 o
-1 4 22 14.36 16.50 0.46 o
-1 4 -22 9.82 9.44 0.30 o
0 1 23 4.48 5.00 0.20 o
0 1 -23 4.06 3.36 0.24 o
0 2 23 3.88 4.19 0.23 o
0 2 -23 3.52 3.12 0.21 o
-1 3 23 3.37 3.51 0.15 o
-1 3 -23 3.06 2.85 0.14 o
0 3 23 0.00 0.30 0.12 <
0 3 -23 0.00 0.30 0.13 <
0 0 24 75.49 85.12 3.69 o
0 0 -24 68.60 66.63 3.19 o
0 1 24 75.96 83.62 1.40 o
0 1 -24 77.59 71.88 1.27 o
-1 2 24 62.39 72.20 1.13 o
-1 2 -24 56.60 54.42 1.08 o
0 2 24 63.55 70.24 1.23 o
0 2 -24 64.89 59.89 1.17 o
0 1 25 16.72 20.70 0.55 o
0 1 -25 16.65 17.00 0.44 o
#BEGIN Loops that were not found in dictionaries:
loop_
_jana_cell_twin_matrix_id
_jana_cell_twin_volume_fraction
_jana_cell_twin_matrix_1_1
_jana_cell_twin_matrix_1_2
_jana_cell_twin_matrix_1_3
_jana_cell_twin_matrix_2_1
_jana_cell_twin_matrix_2_2
_jana_cell_twin_matrix_2_3
_jana_cell_twin_matrix_3_1
_jana_cell_twin_matrix_3_2
_jana_cell_twin_matrix_3_3
1 0.98(6) 1 0 0 0 1 0 0 0 1
2 0.02(6) -1 0 0 0 -1 0 0 0 -1
#END Loops that were not found in dictionaries
