#------------------------------------------------------------------------------
#$Date: 2015-07-08 23:43:11 +0300 (Wed, 08 Jul 2015) $
#$Revision: 141347 $
#$URL: svn://www.crystallography.net/cod/cif/4/34/33/4343329.cif $
#------------------------------------------------------------------------------
#
# This file is available in the Crystallography Open Database (COD),
# http://www.crystallography.net/
#
# All data on this site have been placed in the public domain by the
# contributors.
#
data_4343329
loop_
_publ_author_name
'Ade, Martin'
'Hillebrecht, Harald'
_publ_section_title
;
 Ternary Borides Cr2AlB2, Cr3AlB4, and Cr4AlB6: The First Members of the
 Series (CrB2)nCrAl with n = 1, 2, 3 and a Unifying Concept for Ternary
 Borides as MAB-Phases.
;
_journal_issue                   13
_journal_name_full               'Inorganic chemistry'
_journal_page_first              6122
_journal_page_last               6135
_journal_paper_doi               10.1021/acs.inorgchem.5b00049
_journal_volume                  54
_journal_year                    2015
_chemical_formula_sum            'Al B W'
_chemical_formula_weight         221.64
_chemical_name_systematic
;
 ?
;
_space_group_crystal_system      orthorhombic
_space_group_IT_number           63
_space_group_name_Hall           '-C 2c 2'
_space_group_name_H-M_alt        'C m c m'
_symmetry_space_group_name_Hall  '-C 2c 2'
_symmetry_space_group_name_H-M   'C m c m'
_audit_creation_method           SHELXL-2013
_cell_angle_alpha                90
_cell_angle_beta                 90
_cell_angle_gamma                90
_cell_formula_units_Z            4
_cell_length_a                   3.2016(3)
_cell_length_b                   13.9059(12)
_cell_length_c                   3.1020(2)
_cell_measurement_reflns_used    1768
_cell_measurement_temperature    293(2)
_cell_measurement_theta_max      33
_cell_measurement_theta_min      4
_cell_volume                     138.10(2)
_computing_cell_refinement       'Software for IPDS-II, Fa. Stoe'
_computing_data_collection       'Software for IPDS-II, Fa. Stoe'
_computing_data_reduction        'Software for IPDS-II, Fa. Stoe'
_computing_molecular_graphics    'Diamond (Crystal impact, 2005)'
_computing_publication_material  'SHELXL-97_(Sheldrick, 2008)'
_computing_structure_refinement  'SHELXL-2013 (Sheldrick, 2013)'
_computing_structure_solution    'SHELXS-97 (Sheldrick, 2008)'
_diffrn_ambient_temperature      293(2)
_diffrn_measured_fraction_theta_full 0.978
_diffrn_measured_fraction_theta_max 0.982
_diffrn_measurement_details
; 
0 degree < omega < 180 degree
psi = 0 and 111 degree
delta omega 2 degree
exposure time 300s 
;
_diffrn_measurement_device       '2-circle goniometer'
_diffrn_measurement_device_type  'STOE IPDS 2'
_diffrn_measurement_method       'rotation method'
_diffrn_radiation_collimation    '0.5 mm diameter, multiple pinhole'
_diffrn_radiation_monochromator  'plane graphite'
_diffrn_radiation_polarisn_norm  0
_diffrn_radiation_type           MoK\a
_diffrn_radiation_wavelength     0.71073
_diffrn_reflns_av_R_equivalents  0.0758
_diffrn_reflns_av_unetI/netI     0.0259
_diffrn_reflns_laue_measured_fraction_full 0.978
_diffrn_reflns_laue_measured_fraction_max 0.982
_diffrn_reflns_limit_h_max       4
_diffrn_reflns_limit_h_min       -4
_diffrn_reflns_limit_k_max       20
_diffrn_reflns_limit_k_min       -20
_diffrn_reflns_limit_l_max       3
_diffrn_reflns_limit_l_min       -4
_diffrn_reflns_number            1761
_diffrn_reflns_point_group_measured_fraction_full 0.978
_diffrn_reflns_point_group_measured_fraction_max 0.982
_diffrn_reflns_theta_full        25.242
_diffrn_reflns_theta_max         32.922
_diffrn_reflns_theta_min         2.930
_diffrn_source
'sealed X-ray tube, 12 x 0.4 mm long-fine focus'
_diffrn_source_current           40
_diffrn_source_power             2.00
_diffrn_source_voltage           50
_exptl_absorpt_coefficient_mu    83.518
_exptl_absorpt_correction_T_max  0.3051
_exptl_absorpt_correction_T_min  0.0659
_exptl_absorpt_correction_type   numerical
_exptl_absorpt_process_details   X-Red_and_X-SHAPE_(Stoe_&_Cie,_1999)
_exptl_crystal_colour            black
_exptl_crystal_density_diffrn    10.660
_exptl_crystal_description       flat_needle
_exptl_crystal_F_000             368
_exptl_crystal_size_max          0.2
_exptl_crystal_size_mid          0.05
_exptl_crystal_size_min          0.02
_exptl_transmission_factor_max   0.3051
_exptl_transmission_factor_min   0.0659
_refine_diff_density_max         1.174
_refine_diff_density_min         -2.175
_refine_diff_density_rms         0.376
_refine_ls_extinction_coef       0.0141(10)
_refine_ls_extinction_expression Fc^*^=kFc[1+0.001xFc^2^\l^3^/sin(2\q)]^-1/4^
_refine_ls_extinction_method     SHELXL
_refine_ls_goodness_of_fit_ref   1.210
_refine_ls_hydrogen_treatment    undef
_refine_ls_matrix_type           full
_refine_ls_number_parameters     12
_refine_ls_number_reflns         167
_refine_ls_number_restraints     0
_refine_ls_restrained_S_all      1.210
_refine_ls_R_factor_all          0.0158
_refine_ls_R_factor_gt           0.0140
_refine_ls_shift/su_max          0.001
_refine_ls_shift/su_mean         0.000
_refine_ls_structure_factor_coef Fsqd
_refine_ls_weighting_details
'w=1/[\s^2^(Fo^2^)+(0.0091P)^2^] where P=(Fo^2^+2Fc^2^)/3'
_refine_ls_weighting_scheme      calc
_refine_ls_wR_factor_gt          0.0294
_refine_ls_wR_factor_ref         0.0296
_reflns_Friedel_coverage         0.000
_reflns_number_gt                160
_reflns_number_total             167
_reflns_threshold_expression     'I > 2\s(I)'
_cod_data_source_file            WAlB.cif
_cod_data_source_block           WAlB
_cod_depositor_comments
'Adding full bibliography for 4343328--4343335.cif.'
_cod_database_code               4343329
_shelx_space_group_comment
;
The symmetry employed for this shelxl refinement is uniquely defined
by the following loop, which should always be used as a source of
symmetry information in preference to the above space-group names.
They are only intended as comments.
;
_shelxl_version_number           2013-4
_shelx_res_file
;
TITL WAlB-2-3b in Cmcm
CELL 0.71073   3.2016  13.9059   3.1020  90.000  90.000  90.000
ZERR    4.00   0.0003   0.0012   0.0002   0.000   0.000   0.000
LATT  7
SYMM -X, -Y, 0.5+Z
SYMM -X, Y, 0.5-Z
SYMM X, -Y, -Z
SFAC B AL W
UNIT 4 4 4
OMIT 0 66
OMIT 0 0 2
OMIT 0 0 4
OMIT 0 14 2
L.S. 4
ACTA
BOND
FMAP 2
PLAN 20
WGHT    0.009100
EXTI    0.014063
FVAR       0.43395
W     3    0.500000    0.410019    0.250000    10.25000    0.00331    0.00402 =
         0.00342    0.00000    0.00000    0.00000
AL    2    0.000000    0.300584   -0.250000    10.25000    0.00534    0.00701 =
         0.00613    0.00000    0.00000    0.00000
B     1    0.000000    0.464519   -0.250000    10.25000    0.00339
HKLF 4

REM  WAlB-2-3b in Cmcm
REM R1 =  0.0140 for     160 Fo > 4sig(Fo)  and  0.0158 for all     167 data
REM     12 parameters refined using      0 restraints

END

WGHT      0.0093      0.0000

REM Highest difference peak  1.174,  deepest hole -2.175,  1-sigma level  0.376
Q1    1   0.0000  0.5438 -0.2500  10.25000  0.05    1.17
Q2    1   0.3617  0.4092  0.2500  10.50000  0.05    1.13
Q3    1   0.1976  0.4128 -0.2500  10.50000  0.05    0.98
Q4    1   0.2890  0.4462  0.0602  11.00000  0.05    0.96
Q5    1   0.3681  0.3626 -0.2500  10.50000  0.05    0.93
Q6    1   0.1061  0.3603  0.2500  10.50000  0.05    0.82
Q7    1   0.1993  0.2899 -0.2500  10.50000  0.05    0.82
Q8    1   0.2988  0.3720  0.0589  11.00000  0.05    0.76
Q9    1   0.0000  0.3762 -0.0687  10.50000  0.05    0.71
Q10   1   0.3153  0.2121 -0.2500  10.50000  0.05    0.70
Q11   1   0.1316  0.4949 -0.2500  10.50000  0.05    0.68
Q12   1   0.5000  0.3690 -0.0714  10.50000  0.05    0.68
Q13   1   0.2767  0.5000  0.0000  10.50000  0.05    0.67
Q14   1   0.1100  0.2532  0.1579  11.00000  0.05    0.65
Q15   1   0.2175  0.3285  0.0055  11.00000  0.05    0.61
Q16   1   0.2604  0.3181  0.2500  10.50000  0.05    0.59
Q17   1   0.0581  0.2769  0.0961  11.00000  0.05    0.55
Q18   1   0.1396  0.3298 -0.2500  10.50000  0.05    0.54
Q19   1   0.0000  0.4296 -0.2500  10.25000  0.05    0.54
Q20   1   0.5000  0.4246 -0.2500  10.25000  0.05    0.49
;
_shelx_res_checksum              61560
_shelx_hkl_file
;
  -2   0   0 9011.53   76.64   0
   2   0   0 7681.34   73.49   0
   2   0   0 7167.99   99.47   0
  -2   0   0 8997.39  105.89   0
  -4   0   0 4740.62   61.24   0
   4   0   0 3339.83   83.54   0
   4   0   0 3685.33   63.45   0
  -4   0   0 4298.11   51.74   0
  -1   1   0 5686.70  134.53   0
   1  -1   0 4917.75   95.49   0
   1   1   0 5126.72  126.53   0
  -1  -1   0 5379.61  104.30   0
   1  -1   0 4419.34  111.92   0
  -1   1   0 5376.75  104.71   0
   1   1   0 5216.86   98.96   0
  -1  -1   0 5356.14   96.09   0
  -3  -1   0 3434.76   63.00   0
  -3   1   0 3243.46   64.23   0
   3   1   0 2544.00   61.35   0
   3  -1   0 2717.93   49.26   0
   3   1   0 2745.14   49.65   0
   3  -1   0 2321.11   62.11   0
  -3  -1   0 3019.60   51.40   0
  -3   1   0 3368.73   80.54   0
   5   1   0  963.96   65.53   0
   5   1   0  990.99   70.53   0
   5  -1   0 1081.81   49.97   0
   5   1   0 1007.87   51.28   0
  -5   1   0 1270.72   50.63   0
  -5   1   0 1352.90   60.21   0
  -5  -1   0 1356.61   60.58   0
   5  -1   0  980.03   64.98   0
   0   2   0 1568.60  229.33   0
   0   2   0 1591.45  121.65   0
   0  -2   0 1668.68  122.34   0
   2   2   0  956.98   58.30   0
   2   2   0  883.05   77.15   0
  -2  -2   0 1015.76   70.05   0
   2  -2   0  811.09   68.64   0
  -2   2   0 1088.81   62.89   0
  -2  -2   0 1094.36   91.94   0
  -2   2   0 1077.47   78.62   0
   2  -2   0  936.65   52.13   0
   4   2   0  396.90   51.20   0
  -4   2   0  502.09   54.80   0
   4   2   0  500.77   58.12   0
  -4  -2   0  553.80   51.43   0
  -4   2   0  810.68   70.27   0
   4  -2   0  386.47   40.34   0
   4  -2   0  467.01   77.56   0
  -1   3   0  160.59   90.93   0
  -1   3   0   55.00   74.51   0
   1  -3   0  120.25   94.56   0
   1   3   0   25.19   65.87   0
   1   3   0   15.19   99.05   0
  -1  -3   0  -34.23   79.99   0
   1   3   0    5.86   77.91   0
   1  -3   0   54.36   66.88   0
   3  -3   0   24.90   56.71   0
  -3  -3   0   56.50   50.43   0
   3  -3   0   21.77   38.76   0
   3   3   0   90.02   67.64   0
  -3   3   0   33.15   48.31   0
  -3   3   0  -31.93   41.72   0
   3   3   0   60.45   59.91   0
   5  -3   0  -13.96   46.32   0
   5   3   0   31.59   69.03   0
  -5   3   0   51.83   80.84   0
   5  -3   0   12.13   62.25   0
  -5  -3   0   21.49   57.78   0
  -5   3   0   48.51   45.74   0
   5   3   0  -48.56   92.11   0
   5   3   0   53.29   49.92   0
   0   4   0 3383.46  145.04   0
   0   4   0 3679.76  153.36   0
   0  -4   0 3287.96  137.13   0
   0  -4   0 3671.59  138.43   0
   2   4   0 2381.04   76.70   0
   2  -4   0 2120.21   77.54   0
   2   4   0 2214.60   62.41   0
  -2   4   0 2435.77   88.42   0
   2  -4   0 2291.40   55.54   0
  -2   4   0 2546.55   62.91   0
   2   4   0 2423.81   59.99   0
  -2  -4   0 2608.45   94.28   0
   4   4   0 1006.65   44.61   0
   4  -4   0  997.05   56.29   0
   4   4   0  915.96   54.19   0
  -4   4   0 1063.40   42.70   0
   4   4   0 1051.83   45.03   0
   4  -4   0  944.84   41.64   0
  -4  -4   0 1473.89   54.45   0
  -4   4   0 1342.03   71.00   0
  -1  -5   0 9845.10   95.37   0
  -1  -5   0 9999.99  125.00   0
   1   5   0 8155.81  122.61   0
   1  -5   0 9010.64  111.22   0
  -1   5   0 9490.17   98.67   0
  -1   5   0 9673.45  105.91   0
  -1   5   0 7751.64  136.58   0
   1   5   0 9062.30  124.30   0
  -3  -5   0 5823.11   80.71   0
   3   5   0 4651.08   71.00   0
  -3   5   0 5577.94   57.50   0
   3  -5   0 4867.13   87.44   0
   3   5   0 5201.86   71.36   0
   3   5   0 4773.69   75.39   0
   3  -5   0 5112.49   53.79   0
  -3   5   0 5786.19   63.64   0
   5   5   0 1849.63   80.90   0
  -5  -5   0 2396.21   66.95   0
   5  -5   0 1801.65   71.70   0
  -5   5   0 1982.09   54.64   0
   5   5   0 1588.38   98.73   0
   5  -5   0 1666.34   68.64   0
  -5   5   0 2339.41   64.64   0
   5   5   0 1491.33   56.33   0
   0   6   0 7042.15  119.53   0
   0  -6   0 6338.37  111.91   0
   0  -6   0 7261.87  111.75   0
   0   6   0 7208.42  131.33   0
  -2   6   0 4978.39   71.64   0
   2   6   0 4987.93   82.48   0
   2   6   0 5213.85   88.95   0
   2  -6   0 4834.61  106.26   0
  -2  -6   0 5855.70   75.39   0
   2  -6   0 5329.83   60.66   0
   2   6   0 4743.36   70.92   0
  -2   6   0 5441.70   69.66   0
  -4   6   0 2927.86   73.64   0
   4  -6   0 2354.49   46.40   0
   4  -6   0 2347.86   60.92   0
   4   6   0 2293.59   67.45   0
   4   6   0 2322.37   50.36   0
   4   6   0 2098.46   77.53   0
  -4   6   0 2562.90   47.50   0
  -4  -6   0 3263.78   79.06   0
  -1   7   0 2390.20  118.61   0
  -1   7   0 2851.51   75.92   0
  -1  -7   0 2905.42   98.33   0
  -1  -7   0 2870.69   87.34   0
   1   7   0 2430.38   78.08   0
  -1   7   0 2814.52   58.92   0
   1  -7   0 2886.60  116.13   0
   1   7   0 2532.34  113.58   0
   3   7   0 1354.35   65.77   0
   3   7   0 1308.68   63.34   0
  -3   7   0 1621.66   48.04   0
   3  -7   0 1449.48   41.23   0
   3  -7   0 1311.85   57.83   0
   3   7   0 1409.65   47.41   0
  -3  -7   0 1787.87   53.52   0
  -3   7   0 1862.42   67.25   0
   0   8   0  978.31   64.67   0
   0   8   0  916.69  139.68   0
   0  -8   0  817.96   58.94   0
   0  -8   0  827.13  111.86   0
  -2  -8   0  604.13   60.65   0
   2   8   0  498.46   59.25   0
  -2   8   0  637.54   73.10   0
   2   8   0  480.50   83.98   0
   2  -8   0  422.48   67.80   0
   2   8   0  531.54   47.49   0
  -2   8   0  386.42   62.28   0
  -2   8   0  407.86   60.74   0
  -4  -8   0  261.99   50.43   0
  -4   8   0  244.83   48.98   0
   4  -8   0  340.21   75.31   0
   4   8   0  308.37   47.54   0
   4   8   0  180.08   50.86   0
   4   8   0  185.73   45.21   0
  -4   8   0  344.23   41.55   0
  -1  -9   0  897.71   85.35   0
   1   9   0  782.24  113.86   0
  -1   9   0 1010.48   84.46   0
   1  -9   0  759.98   76.80   0
  -1   9   0  810.19   53.71   0
  -1   9   0  853.07   71.40   0
   1   9   0  773.79   68.09   0
  -1  -9   0  793.41   82.82   0
  -3  -9   0  576.09   48.17   0
  -3   9   0  365.45   61.88   0
   3   9   0  446.73   48.05   0
  -3   9   0  508.49   62.04   0
   3   9   0  512.37   46.99   0
  -3   9   0  433.69   51.85   0
   3  -9   0  340.52   52.52   0
   3   9   0  491.62   43.20   0
   0 -10   0 5288.98   67.84   0
   0  10   0 5498.52  105.75   0
   0  10   0 5346.39   76.85   0
   0 -10   0 5157.75   85.21   0
  -2  10   0 4013.91   83.29   0
   2  10   0 3795.62   57.08   0
  -2  10   0 4084.18   74.67   0
   2  10   0 3499.45   80.85   0
   2 -10   0 3674.30   90.88   0
  -2  10   0 4121.93   68.64   0
   2  10   0 4016.26   72.72   0
  -2 -10   0 4628.14   77.00   0
  -4  10   0 2161.40   76.19   0
  -4  10   0 2128.60   47.60   0
  -4 -10   0 2495.72   56.13   0
  -4  10   0 1966.66   49.42   0
   4  10   0 1558.97   76.20   0
   4 -10   0 1532.19   58.04   0
   4  10   0 1600.83   52.70   0
   4  10   0 1643.15   78.11   0
  -1 -11   0 5057.73   85.53   0
  -1  11   0 5326.59   62.48   0
   1 -11   0 4864.00   78.65   0
   1  11   0 4567.54   72.69   0
  -1 -11   0 5644.36   65.20   0
  -1  11   0 5145.72   85.89   0
  -1  11   0 5101.20   64.38   0
   1  11   0 5081.09   89.52   0
   3  11   0 2846.36   53.69   0
   3  11   0 3085.00   68.68   0
   3 -11   0 2844.25   79.48   0
  -3 -11   0 3900.36   54.93   0
   3  11   0 3027.06   63.33   0
  -3  11   0 3207.97   53.52   0
  -3  11   0 3472.62   61.23   0
  -3  11   0 3616.88   56.14   0
   0 -12   0 2868.77   68.39   0
   0  12   0 3013.10  113.62   0
   0 -12   0 3063.55   58.19   0
   0  12   0 3006.19   66.63   0
  -2 -12   0 2668.39   50.13   0
   2  12   0 2112.54   48.21   0
   2  12   0 2194.64   55.83   0
   2 -12   0 2279.29   59.49   0
  -2  12   0 2281.06   58.11   0
  -2  12   0 2354.96   52.16   0
  -2  12   0 2444.98   63.36   0
   2  12   0 2300.83   86.71   0
   4  12   0 1091.93   57.60   0
  -4  12   0 1518.28   77.26   0
   4  12   0 1023.14   54.15   0
  -4  12   0 1467.31   64.62   0
   4  12   0 1056.86   83.72   0
  -4  12   0 1405.21   50.79   0
   4 -12   0 1174.29   80.25   0
  -4 -12   0 1589.63   75.08   0
  -1 -13   0 1925.06   49.18   0
  -1  13   0 1686.71   68.20   0
   1 -13   0 1661.88   82.81   0
  -1 -13   0 1725.48   65.63   0
   1  13   0 1824.66   67.46   0
  -1  13   0 1979.96   63.10   0
  -1  13   0 1901.76   69.79   0
   1  13   0 1728.16   75.79   0
  -3 -13   0 1321.87   46.68   0
  -3  13   0 1182.08   67.10   0
  -3  13   0 1127.40   60.57   0
   3  13   0 1099.41   58.00   0
   3  13   0 1124.76   49.03   0
  -3  13   0 1104.54   69.04   0
   3  13   0  830.06   63.72   0
   3 -13   0  948.46   54.24   0
   0  14   0  -35.69   93.11   0
   0  14   0  116.22   47.76   0
   0 -14   0  -93.34   42.28   0
   0 -14   0  -56.58   73.78   0
  -2  14   0   39.54   41.26   0
   2  14   0  -49.34   46.50   0
   2  14   0  -58.17   77.88   0
  -2  14   0   26.01   58.28   0
  -2  14   0  -17.33   53.16   0
  -2 -14   0   69.51   40.73   0
   2 -14   0   35.44   51.37   0
   4  14   0   45.65   88.76   0
  -4 -14   0   99.74   53.64   0
   4  14   0   17.31   79.13   0
   4  14   0   65.79   56.60   0
  -4  14   0   74.22   53.77   0
  -4  14   0   83.96   48.87   0
  -4  14   0   22.88   57.16   0
   4 -14   0  -30.23   61.18   0
  -1  15   0 1712.40   45.48   0
  -1  15   0 1744.45   49.99   0
  -1  15   0 1644.15   64.11   0
  -1 -15   0 1889.82   45.43   0
   1 -15   0 1734.08   56.54   0
   1  15   0 1653.17   63.01   0
   1  15   0 1630.96   54.34   0
  -1 -15   0 1589.38   46.57   0
   3  15   0  994.09   59.74   0
  -3  15   0 1110.72   50.63   0
  -3  15   0 1143.16   64.93   0
   3  15   0 1047.80   51.51   0
  -3 -15   0 1244.77   47.47   0
   3 -15   0  927.91   56.43   0
   3  15   0 1012.01   64.11   0
  -3  15   0 1173.32   52.92   0
   0 -16   0 2888.36   54.52   0
   0  16   0 3018.04   56.69   0
   0  16   0 3036.69   68.55   0
   0 -16   0 3151.67   50.38   0
  -2 -16   0 2722.59   48.42   0
  -2  16   0 2512.51   54.05   0
   2  16   0 2524.86   64.30   0
  -2  16   0 2635.60   70.79   0
   2 -16   0 2187.13   76.31   0
   2  16   0 2434.04   54.31   0
  -2  16   0 2491.93   61.15   0
  -1 -17   0 2462.54   47.46   0
  -1  17   0 2505.55   50.04   0
  -1  17   0 2259.92   64.23   0
   1  17   0 2325.13   82.65   0
   1  17   0 2319.25   72.28   0
   1 -17   0 2205.44   57.71   0
  -1  17   0 2299.48   54.75   0
  -1 -17   0 2273.61   47.84   0
  -3  17   0 1600.28   54.98   0
   3 -17   0 1327.71   60.03   0
   3  17   0 1406.94   63.95   0
  -3  17   0 1613.01   59.01   0
   3  17   0 1639.17   55.66   0
  -3  17   0 1729.23   56.56   0
  -3 -17   0 1866.50   50.68   0
   3  17   0 1458.33   54.07   0
   0 -18   0 2284.24   48.02   0
   0 -18   0 1873.66   49.98   0
   0  18   0 2041.55   54.64   0
   0  18   0 2117.56   63.15   0
  -2 -18   0 2034.85   46.47   0
  -2  18   0 1848.13   74.47   0
  -2  18   0 1775.00   60.36   0
   2 -18   0 1443.01   56.93   0
   2  18   0 1658.62   53.16   0
   2  18   0 1660.49   62.28   0
  -2  18   0 1762.83   54.53   0
   1  19   0  264.84   55.75   0
  -1  19   0  193.58   56.38   0
  -1  19   0  202.24   69.69   0
   1  19   0  157.66   68.31   0
  -1  19   0   96.00   63.77   0
  -1 -19   0  291.96   56.38   0
   1 -19   0  310.92   72.68   0
  -1 -19   0  198.40   42.88   0
   0  20   0  271.22   51.42   0
   0 -20   0  419.77   42.35   0
   0 -20   0  396.54   47.18   0
   0  20   0  316.34   57.06   0
   2 -20   0   89.98   81.82   0
  -2 -20   0  366.92   46.21   0
  -2  20   0  337.85   84.69   0
  -2  20   0  300.74   78.49   0
  -2  20   0  307.12   56.18   0
   2  20   0  250.87   53.70   0
   2  20   0  360.46   60.26   0
   1  21   0 1268.46   85.12   0
   1 -21   0 1019.78   55.74   0
   1  21   0 1126.04   56.21   0
  -1  21   0 1127.88   84.03   0
  -1  21   0 1070.73   77.73   0
  -1 -21   0 1048.27   67.84   0
  -1 -21   0 1273.63   66.43   0
  -1  21   0 1114.73   52.56   0
   0  22   0 1376.65   79.89   0
   0 -22   0 1489.31   54.11   0
   0  22   0 1273.62   86.76   0
   0   0  -1   49.66  104.67   0
   0   0  -1   50.06  106.28   0
   0   0  -1   42.60  111.15   0
   0   0  -1    7.09  105.97   0
   2   0  -1  102.72   72.12   0
  -2   0   1   13.41   69.20   0
  -2   0  -1   -4.71   54.55   0
  -2   0  -1  -15.23   71.20   0
   2   0   1   97.18  175.66   0
  -2   0   1  -15.62   80.33   0
   2   0  -1   82.19   71.13   0
   2   0   1   19.35   52.39   0
   4   0   1   43.23   58.75   0
   4   0  -1   54.38   40.47   0
  -4   0  -1  -29.45   55.94   0
  -4   0   1  -16.51   55.86   0
   4   0  -1   -5.92   46.34   0
  -4   0   1   47.05   62.42   0
  -4   0  -1    3.77   44.90   0
   4   0   1  -32.29   73.05   0
   1   1  -1 3943.91   85.07   0
  -1  -1  -1 3769.00  153.79   0
   1  -1  -1 3848.55   65.07   0
   1  -1  -1 3930.11  103.17   0
   1   1   1 4191.33  165.94   0
  -1   1   1 3966.38  149.33   0
  -1  -1  -1 4329.53   75.27   0
   1   1   1 4024.82   76.02   0
   1   1  -1 3987.72   64.18   0
  -1  -1   1 4169.14  134.71   0
  -1   1  -1 4094.96   71.96   0
  -1   1  -1 4112.55  132.14   0
  -1   1   1 4199.81   68.78   0
   1  -1   1 4679.75  190.83   0
  -1  -1   1 3849.23   83.76   0
   1  -1   1 3956.57   91.23   0
   3   1   1 1860.25   47.07   0
   3  -1   1 1797.73   45.99   0
   3  -1  -1 1814.99   68.57   0
   3   1  -1 1809.68   48.15   0
  -3   1  -1 2075.53   62.14   0
   3  -1  -1 1801.89   46.14   0
  -3   1  -1 2298.86   68.16   0
  -3  -1  -1 2133.75   62.66   0
   3  -1   1 1698.14   84.61   0
  -3  -1   1 2461.33   69.43   0
   3   1  -1 2057.65   46.38   0
  -3  -1  -1 2406.57   51.32   0
  -3   1   1 2478.10   73.42   0
  -3   1   1 2356.70   59.92   0
   3   1   1 1689.46  123.09   0
  -3  -1   1 2228.14   45.61   0
   5   1   1  551.93   77.72   0
   5   1  -1  524.30   60.69   0
  -5   1  -1  740.73   56.67   0
  -5   1   1  836.68  101.68   0
   5  -1   1  494.65  107.11   0
  -5  -1   1  892.56   72.28   0
   5  -1   1  662.42   50.69   0
   5   1   1  357.62  109.96   0
  -5  -1  -1  892.13   55.86   0
   5   1   1  688.77   72.25   0
   5  -1  -1  600.36   86.06   0
   5   1  -1  617.89   72.99   0
   5  -1  -1  701.93   72.00   0
  -5   1   1  784.10   51.58   0
   5   1  -1  599.91   72.05   0
   0   2  -1 5268.16   85.77   0
   0  -2  -1 5096.04  124.30   0
   0  -2   1 5832.26   90.61   0
   0  -2   1 5563.72   97.11   0
   0   2  -1 5335.48  104.87   0
   0  -2  -1 5652.41  136.73   0
   0   2   1 5779.78  133.44   0
   0   2   1 5369.55   97.08   0
  -2  -2   1 4162.09   75.29   0
  -2  -2  -1 5015.92   68.73   0
   2  -2  -1 3665.44   63.13   0
   2  -2   1 4439.61  182.47   0
   2   2   1 3881.81   65.83   0
  -2   2  -1 4124.62   94.44   0
  -2   2   1 4556.18   97.16   0
   2   2  -1 3899.01   58.69   0
  -2   2  -1 4612.21   65.59   0
  -2  -2   1 4815.34  117.99   0
   2   2  -1 4281.81   66.76   0
   2  -2   1 4050.44   78.03   0
  -2  -2  -1 4437.70   89.83   0
  -2   2   1 4618.87   62.62   0
   2   2   1 4170.49  195.73   0
   2  -2  -1 4116.22   64.95   0
   4  -2   1 1885.84   59.68   0
   4   2   1 1401.75  112.29   0
   4  -2  -1 1921.02   62.21   0
  -4   2   1 2703.61   70.00   0
  -4   2  -1 2190.52   62.71   0
   4  -2  -1 1648.85   52.76   0
  -4  -2   1 2858.93   69.26   0
   4   2  -1 1754.21   51.07   0
   4  -2   1 1766.56  105.95   0
   4   2   1 1834.85   47.31   0
   4   2   1 1909.36   67.35   0
  -4   2  -1 2352.05   67.89   0
  -4   2   1 2250.63   46.52   0
  -4  -2  -1 2501.13   67.66   0
   4   2  -1 1916.52   63.15   0
  -1   3  -1 6815.54   72.60   0
  -1   3  -1 6483.09  107.14   0
   1   3  -1 6409.03   92.29   0
  -1   3   1 6270.34  202.45   0
   1  -3  -1 6930.70  135.46   0
  -1  -3  -1 7633.58   82.83   0
   1   3  -1 6851.08   73.94   0
   1   3   1 6610.35   83.95   0
   1  -3   1 7278.49   73.76   0
  -1   3   1 7304.58   80.86   0
   1  -3   1 6945.73  138.18   0
   1  -3  -1 6082.44   75.80   0
  -1  -3   1 6754.23  129.37   0
   1   3  -1 6845.33   89.30   0
   3   3   1 3729.06   68.88   0
  -3   3  -1 4001.53   68.22   0
   3  -3  -1 3217.00   72.31   0
   3  -3  -1 3565.16   66.57   0
   3   3   1 3777.36   76.88   0
   3   3  -1 4039.10   67.20   0
   3   3   1 3345.69  133.80   0
  -3   3  -1 4273.94   67.49   0
  -3  -3   1 4679.19   91.34   0
   3  -3   1 3634.78   47.63   0
  -3   3   1 4839.86  108.55   0
   3  -3   1 3445.61  116.78   0
  -3   3   1 3903.82   66.52   0
   3   3  -1 3676.49   50.50   0
  -3  -3  -1 4494.63   72.37   0
   0   4  -1 6230.54  100.76   0
   0  -4  -1 5434.42  127.19   0
   0   4   1 6318.70   99.87   0
   0   4   1 6725.96  141.13   0
   0  -4   1 6806.99   81.91   0
   0   4  -1 6275.10   78.03   0
   0  -4   1 6935.33   98.14   0
   0  -4  -1 6786.91  136.20   0
   2  -4  -1 4517.35   67.29   0
   2   4   1 4586.41   67.25   0
   2  -4   1 4620.57  121.11   0
   2   4  -1 4784.58   76.69   0
   2   4   1 4721.47  134.51   0
  -2   4  -1 5230.29   62.15   0
  -2   4  -1 4395.77   99.90   0
   2   4   1 4295.71  194.47   0
  -2  -4   1 5367.51   85.43   0
   2  -4  -1 4145.04   67.87   0
  -2   4   1 5444.54   68.50   0
   2  -4   1 4732.49   58.40   0
  -2   4   1 5218.12  127.08   0
   2   4  -1 4692.10   69.17   0
  -2  -4  -1 5438.41   67.35   0
   2   4  -1 4684.58   58.57   0
   4   4   1 1855.99   65.95   0
   4   4   1 1914.23   75.09   0
   4  -4   1 1724.31  100.34   0
   4   4  -1 2015.04   62.67   0
  -4  -4  -1 2335.96   69.61   0
   4   4   1 1090.04  112.30   0
   4   4  -1 1866.72   66.67   0
   4   4  -1 2060.22   62.33   0
  -4  -4   1 2591.51   66.34   0
   4  -4  -1 1918.65   61.62   0
  -4   4  -1 2501.00   66.34   0
   4  -4  -1 1731.24   74.54   0
  -4   4   1 2698.62   95.46   0
  -4   4   1 2245.21   47.69   0
  -4   4  -1 2137.15   48.39   0
   4  -4   1 2016.51   44.39   0
   1   5   1 1085.13   65.10   0
   1  -5   1 1035.26  103.83   0
  -1   5   1 1131.17   70.52   0
   1   5  -1  927.35   58.66   0
   1   5  -1 1112.50   96.07   0
  -1   5  -1  962.49   51.17   0
  -1  -5   1 1150.80   74.32   0
   1   5   1  972.90  205.48   0
   1  -5  -1  851.01   67.77   0
  -1   5  -1 1081.46  113.98   0
  -1   5   1 1227.54  141.59   0
  -1   5  -1  968.02   52.79   0
  -1   5   1 1034.62  104.84   0
  -1  -5  -1 1160.60   84.37   0
  -1  -5  -1 1080.98  109.40   0
  -3   5   1  582.03   61.45   0
   3  -5  -1  427.84   40.64   0
   3  -5  -1  538.98   48.34   0
   3   5   1  463.50  114.73   0
   3   5   1  437.63   47.08   0
  -3  -5   1  710.15   58.41   0
   3   5   1  471.38   73.42   0
  -3   5  -1  536.62   43.11   0
  -3  -5  -1  698.78   47.44   0
   3  -5   1  461.14  102.68   0
  -3   5  -1  506.23   60.17   0
  -3   5   1  571.31   92.61   0
   3   5  -1  419.36   60.90   0
   3   5  -1  485.90   40.98   0
   3  -5   1  555.45   38.65   0
   3   5  -1  479.60   56.47   0
   0  -6  -1 1437.64  104.70   0
   0  -6   1 1733.31   60.21   0
   0   6  -1 1551.07  113.90   0
   0   6   1 1712.66  129.73   0
   0  -6   1 1582.15  107.37   0
   0  -6  -1 1659.86   74.33   0
   0   6   1 1634.82  116.59   0
   0   6  -1 1463.81   57.74   0
   2   6   1  954.74   58.51   0
   2   6  -1  963.96   65.71   0
   2  -6   1 1094.07   97.68   0
   2   6  -1 1033.81   52.38   0
  -2  -6  -1 1131.64   55.25   0
  -2   6  -1  984.97   49.86   0
  -2   6   1 1182.28   59.40   0
  -2  -6   1 1173.28   64.80   0
   2   6   1  998.92   90.08   0
   2  -6  -1  780.28   59.88   0
  -2   6  -1  970.78   91.82   0
  -2   6   1 1284.38  109.48   0
   2   6  -1 1122.79   58.30   0
   2  -6  -1  956.97   65.75   0
   2   6   1 1185.94  186.97   0
   4   6  -1  454.90   58.75   0
   4   6   1  335.07  101.06   0
   4   6   1  424.39   48.23   0
   4   6   1  286.90  109.03   0
   4  -6   1  372.29   38.87   0
   4  -6  -1  332.89   71.92   0
   4   6  -1  297.47   61.21   0
  -4  -6   1  512.04   78.55   0
  -4   6   1  547.03   63.93   0
   4   6  -1  364.90   44.91   0
  -4   6  -1  488.47   63.24   0
   4  -6   1  356.97   92.73   0
  -4   6  -1  437.78   57.49   0
   4  -6  -1  435.47   57.03   0
  -4   6   1  493.26   43.32   0
  -4  -6  -1  570.39   48.23   0
  -1  -7  -1 2978.01   66.74   0
   1  -7   1 2682.44  102.02   0
   1   7  -1 2766.50   71.55   0
  -1   7  -1 2601.61   86.47   0
  -1   7   1 2906.56  123.26   0
  -1  -7   1 2662.75   74.86   0
  -1   7  -1 2738.42   56.55   0
   1   7  -1 2555.06   92.16   0
   1   7   1 2673.25   80.35   0
  -1  -7   1 2777.68   64.72   0
  -1   7   1 2819.65  113.26   0
   1   7   1 3020.83  155.55   0
  -1   7   1 2754.31  110.08   0
  -1   7  -1 2758.05   56.73   0
  -1  -7  -1 2656.53   97.73   0
   1  -7  -1 2718.28   75.83   0
   3   7   1 1480.29  125.21   0
  -3  -7  -1 1812.43   48.90   0
   3  -7   1 1478.97   95.73   0
   3   7   1 1232.11  126.97   0
  -3  -7   1 1910.69   75.52   0
   3   7   1 1486.46   50.51   0
  -3   7  -1 1605.08   62.92   0
  -3   7  -1 1586.69   63.78   0
   3  -7  -1 1212.25   51.38   0
   3   7  -1 1625.64   44.83   0
   3   7  -1 1613.86   65.80   0
  -3   7   1 1642.09   46.75   0
   3   7  -1 1366.29   43.72   0
  -3   7   1 1880.18   96.50   0
   3  -7  -1 1479.97   59.29   0
   3  -7   1 1601.17   41.31   0
   0  -8  -1 6048.18  107.91   0
   0  -8   1 6128.15   70.89   0
   0   8   1 5660.41  126.04   0
   0   8  -1 6019.97   94.44   0
   0   8  -1 6101.35   89.48   0
   0  -8  -1 5570.07   89.29   0
   0   8   1 4985.38  148.70   0
   0  -8   1 5958.27  111.58   0
  -2   8  -1 3843.00   70.15   0
   2  -8  -1 4171.70   63.73   0
  -2   8  -1 4493.17   55.15   0
  -2   8   1 4980.07   83.92   0
   2   8   1 4826.37  180.82   0
  -2   8   1 5421.01  111.91   0
   2   8   1 4443.07   87.59   0
  -2   8   1 4546.66   80.26   0
  -2  -8  -1 5182.73   63.88   0
   2   8   1 4376.46   90.16   0
  -2  -8   1 4784.72   83.52   0
   2   8  -1 4266.02   56.20   0
   2   8  -1 4456.07   75.82   0
   2   8  -1 4299.18   80.81   0
  -2   8  -1 4488.32   67.28   0
   2  -8   1 4392.91   93.08   0
   4   8   1 2012.15   54.68   0
  -4  -8  -1 2853.63   56.30   0
  -4   8   1 2794.23   97.21   0
  -4   8  -1 2676.42   51.59   0
   4  -8   1 2009.46   70.24   0
   4   8   1 1611.82  155.69   0
   4   8   1 1516.99  185.66   0
  -4  -8   1 2779.56   79.99   0
   4   8  -1 2082.53   51.02   0
  -4   8  -1 2413.87   49.57   0
  -4   8   1 2530.39   49.06   0
   4  -8  -1 2038.37   74.92   0
   4   8  -1 2241.31   51.17   0
   4   8  -1 2149.03   51.12   0
  -1   9  -1 6502.75   77.17   0
  -1  -9  -1 7156.32   80.09   0
   1  -9   1 6138.95   95.93   0
  -1   9   1 6313.89  105.79   0
  -1   9  -1 6380.75   76.17   0
  -1  -9   1 6384.88   73.68   0
   1   9  -1 6125.11   77.14   0
   1   9   1 6466.36  212.09   0
   1  -9  -1 6142.62   80.05   0
   1   9  -1 6172.59   74.06   0
  -1   9   1 6094.65  130.44   0
  -1   9  -1 6414.72   89.18   0
  -1  -9   1 6808.03   91.84   0
  -1  -9  -1 5675.50  100.48   0
  -1   9   1 6295.83   91.10   0
   1   9   1 5869.45   95.11   0
   3   9   1 3485.40  131.36   0
  -3   9  -1 3581.53   50.95   0
   3  -9   1 3351.52   94.77   0
   3   9   1 2839.86  104.45   0
  -3   9  -1 3766.00   59.31   0
   3  -9  -1 3294.43   55.48   0
   3   9   1 3054.24   54.78   0
   3   9  -1 3516.86   52.64   0
   3   9  -1 3219.94   63.46   0
  -3   9  -1 3448.13   55.18   0
  -3  -9   1 4007.22   58.59   0
  -3  -9  -1 4262.43   71.51   0
  -3   9   1 3755.78   67.89   0
   3   9  -1 3256.15   53.52   0
  -3   9   1 4209.11   81.28   0
  -3   9   1 4036.41   54.57   0
   0  10  -1 2318.87   57.69   0
   0 -10  -1 2238.31   74.01   0
   0 -10   1 2339.55   69.77   0
   0  10   1 2226.85  112.38   0
   0 -10   1 2547.14   76.63   0
   0  10  -1 2520.80   80.21   0
   0 -10  -1 2536.71   83.32   0
   0  10   1 1836.00  129.31   0
   2  10  -1 1735.06   72.69   0
  -2  10  -1 1694.26   45.07   0
  -2 -10  -1 2017.62   69.95   0
   2 -10   1 1847.02  103.67   0
   2  10   1 1978.01  154.61   0
  -2  10  -1 1349.31   79.93   0
  -2  10  -1 1770.51   44.02   0
  -2  10   1 2044.93   88.01   0
  -2  10   1 1641.02   70.41   0
   2  10   1 1534.04   85.47   0
  -2  10   1 1916.16   56.47   0
   2 -10  -1 1668.69   54.55   0
   2  10   1 1539.04   70.50   0
   2  10  -1 1544.19   48.90   0
  -2 -10   1 1891.14   51.04   0
   2  10  -1 1579.41   52.05   0
   4  10  -1  651.65   50.30   0
   4 -10   1  747.70   62.89   0
   4 -10  -1  735.69   53.56   0
  -4  10   1 1061.01   70.54   0
  -4 -10  -1 1272.21   52.67   0
  -4  10   1 1068.95   63.45   0
   4  10   1  821.37   54.36   0
  -4  10  -1 1065.78   49.04   0
   4  10  -1  739.76   69.68   0
   4  10  -1  783.70   48.71   0
  -4  10  -1 1056.74   64.94   0
  -4  10   1  975.74   47.85   0
  -4 -10   1 1058.64   54.18   0
  -4  10  -1  965.10   60.06   0
  -1 -11   1  -39.24   68.10   0
  -1 -11  -1   10.39   68.99   0
  -1  11   1   50.97   67.06   0
   1  11  -1  -97.34   50.36   0
   1 -11   1  -71.07   68.76   0
  -1  11  -1   60.19   42.58   0
   1  11   1   54.03  116.36   0
  -1 -11   1   67.37   48.03   0
  -1  11   1  134.33   69.90   0
  -1 -11  -1   80.13   50.07   0
   1  11  -1  321.38   81.94   0
   1 -11  -1   -9.87   58.88   0
   1  11   1  -33.57   98.15   0
  -1  11   1   83.79   91.23   0
  -1  11  -1  -16.63   65.86   0
  -1  11  -1   54.02   41.80   0
  -3  11   1   47.92   58.02   0
  -3  11  -1   72.04   52.46   0
   3 -11   1  -30.35   85.71   0
   3  11   1   72.71  137.48   0
   3 -11  -1   58.85   67.71   0
  -3 -11  -1   74.77   45.94   0
  -3  11  -1   25.12   46.96   0
   3  11   1  -15.94   51.81   0
   3  11   1   66.55   75.82   0
  -3  11   1   65.15   64.99   0
   3  11  -1   84.10   62.75   0
  -3  11   1  114.67   84.76   0
   3  11  -1   30.93   58.08   0
  -3 -11   1  228.73   64.71   0
  -3  11  -1  -50.40   60.02   0
   3  11  -1  -86.42   65.17   0
   0  12  -1  707.79   62.40   0
   0 -12   1  772.11   76.63   0
   0 -12  -1  697.28   81.78   0
   0  12   1  884.21  129.26   0
   0  12  -1  764.30   66.10   0
   0 -12  -1  865.55   48.23   0
   0 -12   1  679.02   60.94   0
   0  12   1  676.68   78.58   0
  -2  12   1  557.20   71.41   0
   2 -12  -1  653.86   49.49   0
   2  12  -1  646.72   70.74   0
  -2  12  -1  637.43   41.04   0
   2 -12   1  651.76   88.59   0
  -2  12   1  629.97   76.02   0
   2  12  -1  441.38   46.19   0
  -2 -12  -1  764.60   64.28   0
  -2  12   1  704.75   53.67   0
   2  12   1  627.57   79.70   0
  -2  12  -1  659.12   75.24   0
  -2 -12   1  607.54   62.67   0
  -2  12  -1  654.29   40.59   0
   2  12   1  566.76   63.07   0
   2  12  -1  577.04   60.41   0
   2  12   1  669.01  129.69   0
  -4  12   1  395.77  100.87   0
   4  12  -1  271.46   77.79   0
   4 -12  -1  328.58   57.04   0
  -4  12   1  363.65   69.36   0
  -4  12  -1  397.26   51.42   0
   4  12  -1  334.01   52.30   0
  -4  12  -1  269.22   49.46   0
   4  12  -1  217.87   70.89   0
  -4  12   1  440.31   51.35   0
  -4 -12  -1  430.32   53.92   0
  -4  12  -1  350.78   45.52   0
  -4 -12   1  533.84   52.40   0
   4 -12   1  264.82   91.68   0
   4  12   1  306.32   59.11   0
   1  13   1 3093.25  113.47   0
  -1 -13  -1 2706.96   56.34   0
  -1  13   1 3029.90   75.52   0
   1 -13   1 2892.34   87.42   0
  -1  13  -1 3035.95   64.49   0
   1  13  -1 2930.31   62.71   0
   1  13  -1 2816.13   55.45   0
   1 -13  -1 2716.86   61.10   0
  -1  13   1 2718.60  100.77   0
  -1  13  -1 3209.33   66.10   0
  -1 -13   1 2961.26   50.18   0
  -1  13   1 2940.81  100.67   0
  -1 -13   1 2981.53   50.91   0
   1  13   1 2320.31   73.58   0
  -1  13  -1 3011.84   49.54   0
  -1 -13  -1 3267.05   67.32   0
  -3  13  -1 1970.23   65.78   0
   3  13  -1 1916.99   75.34   0
   3 -13   1 1681.63   85.27   0
   3 -13  -1 1517.43   72.73   0
  -3  13   1 1913.05   74.10   0
   3  13   1 1181.63  118.93   0
  -3 -13   1 2277.94   48.67   0
   3  13   1 1443.26   57.57   0
  -3  13  -1 1762.07   71.04   0
  -3 -13  -1 2418.85   69.97   0
  -3  13  -1 1955.89   59.96   0
  -3  13   1 2027.56   71.32   0
   3  13   1 1550.28   82.64   0
  -3  13   1 2235.28   95.95   0
   3  13  -1 1748.25   49.15   0
   3  13  -1 1730.63   48.59   0
   0 -14   1 4518.86   59.81   0
   0 -14   1 5365.59   69.19   0
   0 -14  -1 5133.65   64.14   0
   0  14  -1 4839.35   68.54   0
   0  14   1 4925.26  100.81   0
   0  14  -1 5028.40   72.44   0
   0 -14  -1 4350.40   83.96   0
   0  14   1 4506.54  107.24   0
   2  14  -1 4127.37   80.69   0
   2 -14   1 3541.27   91.31   0
  -2  14  -1 3852.69   66.21   0
  -2 -14   1 4654.86   53.99   0
   2 -14  -1 3818.59   59.39   0
   2  14   1 4374.07  133.83   0
  -2  14   1 4241.22   93.52   0
  -2  14  -1 3559.29   61.54   0
  -2  14  -1 3905.31   64.20   0
  -2  14   1 4304.08   65.77   0
   2  14   1 3487.69   68.42   0
  -2  14   1 3598.55   92.42   0
  -2 -14  -1 4711.03   70.58   0
   2  14  -1 3804.10   54.80   0
   2  14   1 3776.10   73.76   0
   2  14  -1 3970.31   67.73   0
  -1 -15   1 2367.60   47.80   0
  -1 -15  -1 2169.40   65.80   0
   1 -15  -1 2303.14   57.72   0
  -1  15  -1 2336.89   47.36   0
   1 -15   1 2182.84   57.73   0
   1  15  -1 2264.38   58.24   0
  -1 -15  -1 2564.19   62.82   0
   1  15  -1 2131.02   49.88   0
  -1  15  -1 2280.54   79.61   0
   1  15   1 2521.63  123.23   0
  -1  15   1 2124.72   97.73   0
  -1  15   1 2132.26   71.24   0
  -1  15   1 2514.78   73.16   0
   1  15   1 2283.01   67.72   0
  -1 -15   1 2389.53   47.56   0
  -1  15  -1 2159.71   49.34   0
   3 -15   1 1279.59   83.87   0
   3  15  -1 1276.84   77.22   0
  -3 -15   1 1635.87   67.90   0
   3 -15  -1 1365.40   76.99   0
  -3  15  -1 1703.55   51.35   0
   3  15   1  841.15  133.06   0
   3  15   1 1377.96   60.18   0
  -3  15  -1 1351.49   53.53   0
  -3  15  -1 1513.03   45.91   0
  -3  15   1 1752.98   56.46   0
  -3 -15  -1 1861.79   50.86   0
   3  15   1 1297.18   81.45   0
  -3  15   1 1694.65  100.35   0
   3  15  -1 1261.08   51.17   0
   3  15  -1 1434.17   48.35   0
  -3  15   1 1588.10   84.91   0
   0 -16   1  202.26   46.04   0
   0 -16   1  319.30   41.43   0
   0  16   1  150.52  108.28   0
   0  16  -1  313.89   75.17   0
   0  16  -1  280.18   45.36   0
   0 -16  -1  362.52   59.37   0
   0 -16  -1  180.38   51.17   0
   0  16   1  238.05   86.97   0
   2 -16  -1  198.62   52.50   0
   2 -16   1  289.40   56.06   0
  -2  16  -1  163.24   59.75   0
   2  16  -1  192.16   53.13   0
  -2  16   1  273.52   75.04   0
  -2 -16   1  310.09   41.55   0
  -2  16  -1  198.08   54.26   0
  -2  16   1  138.46   58.17   0
   2  16   1  290.23   57.89   0
  -2 -16  -1  256.17   60.93   0
  -2  16   1  138.48   80.68   0
  -2  16  -1  372.31   60.08   0
   2  16   1  295.74  108.46   0
   2  16  -1  274.46   64.31   0
   2  16   1  192.98   43.72   0
   2  16  -1  234.44   43.24   0
  -1  17  -1   59.31   42.08   0
  -1 -17  -1   32.92   43.69   0
   1  17  -1  -46.62   53.17   0
  -1  17   1   85.14   84.77   0
   1 -17  -1  -46.10   51.72   0
  -1  17   1  106.44   65.13   0
  -1 -17   1  110.44   40.48   0
   1  17  -1   -7.22   63.51   0
   1  17   1 -162.12   75.79   0
  -1  17  -1   76.10   52.60   0
  -1 -17  -1  130.28   41.03   0
  -1  17   1  114.49   66.35   0
  -1 -17   1  191.73   59.27   0
  -1  17  -1  123.58   42.50   0
   1  17   1  168.15   84.25   0
   1 -17   1  159.88   70.51   0
   3 -17  -1  101.27   79.82   0
   3 -17   1  174.26   86.91   0
   3  17  -1   82.30   57.57   0
  -3  17  -1   76.71   47.47   0
  -3 -17   1   -3.54   48.80   0
   3  17   1   51.23  106.21   0
  -3  17   1   77.40   86.69   0
   3  17   1   93.93   61.01   0
  -3  17  -1  252.68   77.03   0
  -3  17   1  -11.72   56.98   0
   3  17   1   12.35   93.95   0
   3  17  -1  -19.25   73.51   0
  -3  17   1   62.44  123.75   0
   3  17  -1  129.01   48.95   0
  -3 -17  -1  134.92   69.52   0
  -3  17  -1  -16.79   52.42   0
   0 -18   1 1056.32   47.41   0
   0 -18  -1  904.59   71.13   0
   0  18  -1 1023.69   56.15   0
   0  18  -1 1082.54   48.67   0
   0 -18   1 1267.86   60.79   0
   0  18   1 1333.24  104.00   0
   0 -18  -1 1062.15   63.85   0
   0  18   1 1027.33   65.85   0
  -2  18  -1  939.88   48.70   0
  -2 -18  -1 1002.66   45.83   0
   2  18  -1  754.27   77.63   0
   2  18   1  776.05  104.04   0
  -2  18   1  877.93   87.12   0
  -2 -18   1  910.61   61.21   0
  -2  18  -1  868.12   77.41   0
  -2  18   1  985.91   61.09   0
   2  18   1  949.87   84.12   0
   2 -18  -1  890.43   55.41   0
  -2  18   1  761.70   90.76   0
  -2  18  -1  858.23   48.41   0
   2  18  -1  837.13   68.25   0
   2  18   1  904.97   49.12   0
   2 -18   1  772.45   59.50   0
   2  18  -1  786.44   63.67   0
   1 -19   1 2463.07   56.43   0
  -1 -19  -1 3034.45   67.17   0
  -1 -19   1 2720.28   50.96   0
   1  19  -1 2574.40   53.64   0
  -1  19   1 2158.24   97.28   0
   1 -19  -1 2600.71   59.05   0
  -1  19  -1 2590.97   58.71   0
  -1  19   1 2967.40   81.76   0
  -1 -19   1 3035.98   50.38   0
   1  19   1 2684.57  105.01   0
  -1  19   1 3294.80   96.92   0
  -1  19  -1 2710.16   53.58   0
   1  19   1 2998.25   89.65   0
   1  19  -1 2763.63   60.83   0
  -1 -19  -1 2729.06   69.31   0
  -1  19  -1 2993.14   50.80   0
   0 -20   1 1988.08   69.52   0
   0  20  -1 1734.86   52.65   0
   0  20  -1 2086.63   57.57   0
   0 -20  -1 1805.71   52.75   0
   0  20   1 2005.78   72.93   0
   0  20   1 1668.48   68.47   0
   0 -20   1 2013.21   49.23   0
   2  20  -1 1482.91   86.02   0
  -2  20  -1 1464.79   78.34   0
   2 -20  -1 1282.35   62.35   0
  -2  20   1 1663.59  104.53   0
   2  20   1 1157.64   80.20   0
  -2  20  -1 1391.48   63.76   0
  -2 -20  -1 1690.19   72.67   0
   2 -20   1 1471.20   63.38   0
  -2  20   1 1749.91   69.48   0
   2  20   1 1536.03   68.09   0
  -2  20   1 1359.32  104.55   0
  -2 -20   1 1645.97   52.12   0
   2  20  -1 1452.13   76.58   0
   2  20   1 1382.87   57.01   0
   2  20  -1 1449.98   54.75   0
  -2  20  -1 1375.06   58.27   0
  -1 -21  -1  655.00   49.99   0
  -1  21  -1  633.75   51.37   0
   1 -21  -1  517.73   83.25   0
  -1 -21   1  755.74   67.35   0
  -1  21   1  666.91   83.07   0
   1  21  -1  626.56   82.44   0
  -1  21  -1  673.42   82.77   0
  -1 -21  -1  727.77   49.15   0
   1  21   1  603.51  101.51   0
  -1  21  -1  533.63   75.17   0
  -1  21   1  764.66   94.18   0
   1 -21   1  683.73   54.34   0
   1  21   1  592.12   90.98   0
  -1  21   1  532.64   97.46   0
  -1 -21   1  654.35   49.91   0
   1  21  -1  751.86   54.15   0
   0   0  -2 5166.00   84.90   0
   0   0  -2 4756.45   87.95   0
   0   0  -2 5061.03   65.10   0
   0   0  -2 5431.07   73.68   0
  -2   0   2 6057.51  100.92   0
   2   0   2 6740.83  117.96   0
  -2   0  -2 7179.26   61.95   0
  -2   0  -2 6295.07  106.78   0
   2   0   2 6539.12   77.31   0
   2   0  -2 6140.59   71.85   0
   2   0  -2 6594.87   72.97   0
  -2   0   2 6733.39   58.94   0
   4   0   2 3008.47   67.23   0
   4   0  -2 2980.77   70.14   0
   4   0  -2 2997.12   68.73   0
  -4   0   2 3688.82  106.21   0
  -4   0  -2 3681.36   67.94   0
   1   1   2 3895.76   83.71   0
  -1  -1  -2 3613.79  122.85   0
  -1   1  -2 3791.42  118.90   0
  -1  -1   2 4035.89   92.14   0
  -1   1  -2 3770.80   60.28   0
  -1  -1  -2 3799.90   61.71   0
  -1   1   2 4049.23   91.87   0
   1  -1  -2 3778.78  105.52   0
   1   1  -2 3728.46   80.91   0
   1  -1  -2 3808.92   76.07   0
   1   1  -2 3723.84   57.70   0
  -1  -1  -2 3728.38   98.71   0
  -1   1   2 3585.42   76.55   0
   1   1  -2 3681.38   59.87   0
   3  -1   2 2424.71  124.64   0
   3  -1   2 2168.29   46.02   0
   3   1   2 2226.74   48.33   0
   3  -1  -2 2163.09   64.25   0
   3   1  -2 2295.61   50.25   0
   3  -1  -2 2036.47   46.14   0
  -3   1  -2 2695.16   47.89   0
   3   1  -2 2196.17   45.87   0
  -3  -1  -2 2683.94   48.23   0
  -3   1   2 1925.27  161.24   0
  -3   1  -2 2380.98   69.98   0
  -3  -1   2 2626.78  125.95   0
  -3   1   2 2634.72   46.65   0
  -3  -1   2 2538.17   44.84   0
   0   2  -2  942.15   58.51   0
   0   2  -2  972.12   72.66   0
   0  -2  -2  864.17   59.24   0
   0  -2  -2  858.46   77.86   0
   0   2  -2  965.81   72.73   0
   0  -2  -2  932.20   72.43   0
   0   2  -2  907.58   73.11   0
   2  -2   2  740.24  106.42   0
  -2   2  -2  780.37   45.32   0
  -2   2  -2  568.36   57.80   0
   2  -2   2  729.99   44.07   0
   2  -2  -2  702.88   64.49   0
  -2   2   2  680.48  103.09   0
   2  -2  -2  686.62   43.75   0
  -2  -2  -2  979.06   64.62   0
   2   2  -2  669.75   58.90   0
  -2   2   2  715.47   44.30   0
   2   2  -2  647.90   51.60   0
  -2  -2   2  561.20  108.57   0
   2   2   2  705.93   51.72   0
   4   2   2  366.52   46.12   0
   4  -2   2  290.58  125.16   0
   4   2  -2  425.84   61.53   0
   4  -2  -2  251.68   47.93   0
   4   2  -2  406.45   63.26   0
   4   2  -2  314.53   45.27   0
  -4   2  -2  426.67   44.03   0
  -4   2   2  452.79  165.43   0
  -4  -2   2  400.93   79.15   0
   4  -2   2  379.94   42.27   0
  -4  -2  -2  384.53   45.65   0
  -4   2  -2  345.40   62.20   0
  -4   2   2  401.50   44.23   0
   4  -2  -2  404.67   63.04   0
   1  -3  -2   11.90   93.29   0
  -1   3  -2   97.95   67.96   0
  -1   3  -2   11.63  104.81   0
  -1  -3  -2   30.47  139.44   0
   1  -3   2  -18.80   91.17   0
   1   3  -2   36.77   50.66   0
  -1  -3  -2   44.24  144.90   0
   1   3  -2  -13.63   62.59   0
  -1  -3  -2   19.82   72.58   0
   1  -3  -2  -30.89   48.54   0
   1   3   2  105.38   55.77   0
   1  -3  -2   36.98   89.33   0
  -1   3  -2    2.52   47.57   0
   1   3  -2   16.57   49.13   0
  -1   3   2   94.74   69.73   0
  -1  -3   2   55.11   57.19   0
   3  -3   2   28.02   38.75   0
   3   3   2  -31.14   64.20   0
   3  -3  -2   -3.52   57.06   0
  -3   3  -2  -17.05   38.90   0
   3  -3  -2   90.78   58.77   0
  -3   3  -2   89.79   57.61   0
   3   3  -2   -1.16   39.11   0
   3   3  -2  -22.05   58.66   0
  -3   3   2  -38.97  116.77   0
  -3  -3  -2   30.06   59.48   0
   3  -3   2   -7.04  170.54   0
  -3  -3   2  -19.46   99.03   0
  -3   3   2   76.69   40.84   0
   3   3  -2  -71.23   38.01   0
   0   4  -2 2344.32   67.45   0
   0   4  -2 2313.48   57.02   0
   0  -4  -2 2048.95   84.86   0
   0  -4  -2 2604.75   85.14   0
   0  -4  -2 2401.34   84.88   0
   0   4   2 2191.64   61.21   0
   2  -4   2 2105.75  143.40   0
  -2  -4   2 1547.65   99.54   0
   2   4   2 1589.92   55.70   0
   2  -4  -2 1541.81   83.18   0
  -2   4  -2 1798.40   47.59   0
  -2   4  -2 1646.96   62.31   0
  -2   4   2 1766.02  113.76   0
   2  -4  -2 1533.82   64.42   0
  -2  -4  -2 1820.47   50.11   0
   2   4  -2 1611.83   44.38   0
  -2   4   2 1769.74   50.40   0
   2   4  -2 1628.67   56.17   0
   2   4  -2 1651.35   62.54   0
   4   4  -2  860.74   45.42   0
   4  -4  -2  878.76   63.89   0
   4   4   2  729.46   51.65   0
   4  -4  -2  724.38   51.13   0
   4   4  -2  901.51   66.51   0
   4   4  -2  599.11   64.51   0
  -4   4  -2 1049.91   46.28   0
  -4   4   2 1089.89  236.59   0
  -4   4  -2  858.67   63.27   0
  -4  -4   2  847.27  102.41   0
  -4   4   2  917.98   47.61   0
  -4  -4  -2  935.93   48.77   0
   4  -4   2  282.51  154.24   0
   4  -4   2  837.61   60.18   0
   1   5  -2 6782.23   66.97   0
   1  -5   2 7751.56   98.88   0
  -1   5  -2 6825.41   77.31   0
   1   5   2 7102.54  106.20   0
  -1   5  -2 6661.28   91.87   0
   1   5  -2 6731.23   99.68   0
   1  -5  -2 6115.53   68.24   0
  -1  -5  -2 7705.88   89.45   0
  -1   5   2 7115.38   73.20   0
   1   5  -2 6776.73   66.83   0
  -1   5  -2 7063.17   77.79   0
  -1  -5   2 6869.46   96.90   0
   3   5  -2 3984.78   49.18   0
   3  -5  -2 3868.39   75.43   0
   3   5   2 3574.35   58.44   0
   3  -5   2 4202.83  248.68   0
  -3   5  -2 4046.43   50.24   0
   3  -5  -2 3428.81   52.75   0
  -3   5  -2 3785.11   71.08   0
   3   5  -2 3731.76   49.00   0
   3   5  -2 3761.80   70.42   0
  -3   5   2 2836.58  173.86   0
  -3   5   2 4495.15   54.79   0
  -3  -5  -2 4475.09   55.79   0
  -3  -5   2 4306.35   74.86   0
   3  -5   2 3854.60   47.41   0
   0   6  -2 4968.88   77.75   0
   0  -6  -2 5634.58  129.08   0
   0   6  -2 4960.05   63.32   0
   0  -6   2 5523.89   80.18   0
   0  -6  -2 4466.51  100.38   0
   0   6   2 5454.11  107.87   0
   0   6   2 5018.82   91.73   0
   0  -6   2 5305.27   73.39   0
   2   6  -2 3591.02   58.49   0
   2   6   2 3572.04   66.74   0
  -2  -6   2 3797.53   97.24   0
  -2   6  -2 3801.09   51.52   0
   2   6  -2 3813.43   50.85   0
   2  -6   2 5393.28  137.53   0
  -2   6  -2 3696.18   85.31   0
   2  -6  -2 3158.87   53.84   0
  -2   6   2 4376.66   60.36   0
   2   6  -2 3565.91   49.84   0
  -2   6  -2 3856.85   63.52   0
  -2  -6  -2 4348.36   56.45   0
  -4  -6  -2 2463.89   54.43   0
   4   6   2 2039.17   78.23   0
   4   6  -2 2035.85   66.42   0
   4  -6  -2 1726.69   55.27   0
   4  -6   2  896.07  113.98   0
   4   6  -2 1920.65   69.54   0
  -4   6  -2 2506.16   67.41   0
   4   6  -2 1935.14   68.11   0
  -4   6   2 2688.19  197.31   0
  -4   6  -2 1900.41   67.91   0
  -4   6   2 2287.25   51.96   0
  -4  -6   2 2438.43   72.81   0
   4  -6  -2 2042.67   72.35   0
  -1   7  -2 1857.02   48.98   0
   1   7  -2 1891.64   56.22   0
  -1  -7  -2 1829.03  130.45   0
  -1   7  -2 1890.63   48.91   0
  -1   7  -2 1945.84   73.94   0
   1   7   2 1994.64   99.13   0
   1  -7  -2 1675.73   59.16   0
   1   7  -2 1981.11   58.20   0
   1  -7   2 2690.98  124.81   0
  -1   7   2 2016.97   61.91   0
   1   7  -2 1824.18   54.93   0
  -1  -7   2 2008.15   82.54   0
  -1  -7  -2 2031.50   56.99   0
   3   7  -2 1206.65   61.04   0
  -3  -7   2 1390.57   82.94   0
   3  -7   2 1223.23  143.01   0
   3   7   2 1321.89   55.79   0
  -3  -7  -2 1351.19   47.06   0
  -3   7  -2 1126.24   43.61   0
   3  -7  -2 1039.17   66.54   0
  -3   7  -2 1111.53   65.10   0
  -3   7   2 1277.91   85.42   0
   3   7  -2 1172.10   60.80   0
   3   7  -2 1145.96   49.17   0
  -3   7   2 1539.98   65.32   0
  -3   7   2  927.88  145.53   0
  -3   7  -2 1190.68   55.17   0
   0  -8   2  617.20   63.49   0
   0   8  -2  452.77   68.26   0
   0   8  -2  653.09   90.35   0
   0   8   2  577.33   93.59   0
   0  -8  -2  505.20   62.88   0
   0   8   2  608.24   84.95   0
   0  -8  -2  617.79   76.65   0
   0  -8   2  613.82   48.66   0
  -2  -8  -2  606.46   62.54   0
   2   8  -2  432.52   49.33   0
  -2   8  -2  290.50   56.97   0
   2   8   2  392.53   83.42   0
  -2  -8   2  349.96   58.10   0
  -2   8  -2  293.56   53.72   0
   2  -8  -2  319.43   66.22   0
   2   8  -2  335.70   43.39   0
   2  -8   2  353.60   94.32   0
  -2   8   2  463.70   70.64   0
   2   8  -2  422.58   58.71   0
  -2   8  -2  415.30   39.50   0
   4   8  -2  231.46   46.50   0
  -4  -8   2  209.34   86.65   0
  -4   8   2  182.20   85.57   0
   4  -8   2  200.25  149.60   0
  -4  -8  -2  268.12   52.24   0
   4   8   2  227.25   59.85   0
  -4   8  -2  260.92   60.95   0
   4  -8  -2  144.96   75.08   0
  -4   8  -2  200.17   47.34   0
   4   8  -2  177.82   50.44   0
   4   8  -2  196.75   66.74   0
  -4   8  -2  182.42   46.32   0
  -4   8   2  245.43   49.92   0
  -4   8   2  213.23  152.62   0
  -1   9  -2  533.43   41.77   0
   1   9  -2  521.01   51.41   0
  -1  -9  -2  585.32   91.98   0
  -1  -9  -2  641.49   70.54   0
  -1   9  -2  540.24   86.79   0
   1   9   2  597.12  101.02   0
   1  -9  -2  706.59   54.31   0
   1   9  -2  596.88   70.43   0
   1  -9   2  722.91   73.72   0
  -1   9  -2  649.89   40.63   0
  -1   9   2  703.79   61.59   0
   1   9   2  626.15   73.78   0
  -1  -9   2  612.12   51.08   0
   3   9  -2  478.11   60.61   0
  -3  -9   2  502.52   54.21   0
  -3  -9  -2  498.58   45.28   0
   3  -9   2  512.19  148.05   0
  -3   9  -2  449.94   40.19   0
   3   9   2  101.44   82.75   0
  -3   9  -2  390.22   60.04   0
   3  -9  -2  353.14   47.40   0
  -3   9  -2  418.75   48.85   0
   3   9  -2  412.48   42.60   0
  -3   9   2  553.26   47.27   0
   3   9  -2  474.17   66.13   0
   0 -10   2 4450.59   69.00   0
   0  10  -2 3882.42   87.99   0
   0  10   2 4425.40  118.39   0
   0 -10  -2 3763.82   88.10   0
   0 -10   2 3920.13   70.70   0
   0 -10  -2 4030.58   95.42   0
   0  10   2 4347.89   85.61   0
   0  10  -2 4108.51   70.42   0
   2  10  -2 2976.74   53.10   0
   2  10  -2 2828.74   51.94   0
   2 -10   2 3016.89   87.46   0
  -2  10  -2 2993.53   47.55   0
  -2 -10  -2 3568.43   69.71   0
  -2  10  -2 2981.60   60.20   0
   2  10   2 2960.36   99.09   0
   2 -10  -2 2736.39   72.39   0
  -2  10  -2 2789.70   59.58   0
  -2 -10   2 3048.10   58.11   0
  -2  10   2 3308.87   63.88   0
   2  10  -2 2715.91   65.21   0
   4  10  -2 1414.46   76.32   0
  -4 -10   2 1639.13   64.83   0
   4 -10   2  971.16   97.89   0
  -4 -10  -2 1812.82   59.29   0
   4  10   2 1232.60   68.33   0
  -4  10  -2 1688.19   67.69   0
   4 -10  -2 1204.87   82.49   0
  -4  10  -2 1726.31   54.98   0
   4  10  -2 1311.06   76.68   0
  -4  10  -2 1531.87   54.06   0
   4  10  -2 1404.41   55.94   0
  -4  10   2 1730.91   58.03   0
  -1  11  -2 3836.11   50.94   0
   1 -11   2 4042.61   95.91   0
  -1 -11  -2 3480.62   85.55   0
  -1 -11   2 3851.66   57.56   0
   1  11  -2 3909.75   60.55   0
  -1  11  -2 4105.84   69.27   0
   1 -11  -2 3814.75   61.13   0
   1  11   2 3884.02   95.95   0
  -1  11  -2 4026.99   49.61   0
   1  11  -2 4104.01   57.04   0
  -1 -11  -2 4566.48   64.17   0
  -1  11   2 4713.26   83.29   0
   1  11   2 4015.35  107.35   0
   3  11  -2 2632.04   52.74   0
   3 -11   2 2229.81  125.30   0
  -3 -11  -2 3201.27   71.26   0
  -3 -11   2 2771.86   58.52   0
   3  11   2 2254.40   70.71   0
  -3  11  -2 2547.63   49.22   0
   3 -11  -2 2399.41   73.41   0
  -3  11  -2 2195.07   55.88   0
  -3  11  -2 2614.34   47.26   0
  -3  11   2 2769.51   57.62   0
   3  11  -2 2290.77   50.39   0
   3  11  -2 2604.34   53.84   0
   0  12  -2 2127.97   80.44   0
   0 -12  -2 2056.32   62.59   0
   0  12   2 2741.44  122.03   0
   0 -12   2 2340.86   57.22   0
   0 -12   2 2512.65   48.94   0
   0 -12  -2 2456.96   94.30   0
   0  12   2 2488.08   91.86   0
   0  12  -2 2305.00   48.70   0
   2  12  -2 1712.92   50.47   0
   2 -12   2 1810.76   76.22   0
   2  12  -2 1747.96   52.94   0
  -2  12  -2 1862.21   45.88   0
   2 -12  -2 1698.89   72.07   0
   2  12   2 1682.59  111.71   0
  -2  12  -2 1798.40   58.55   0
  -2 -12  -2 2274.65   52.57   0
  -2 -12   2 2154.05   53.18   0
  -2  12   2 2331.56   88.49   0
  -2  12  -2 1990.82   59.06   0
   2  12  -2 1723.28   46.99   0
  -1  13  -2 1401.51   43.72   0
  -1 -13  -2 1267.99   69.96   0
  -1  13  -2 1336.22   44.50   0
   1  13  -2 1380.94   52.53   0
   1 -13  -2 1214.45   53.80   0
  -1  13  -2 1327.72   80.15   0
   1  13  -2 1394.17   64.17   0
   1  13   2 1217.67  136.27   0
  -1 -13   2 1531.82   65.74   0
   1  13   2 1419.06  116.22   0
  -1  13   2 1775.51   81.37   0
  -1 -13  -2 1522.62   65.37   0
   1 -13   2 1287.30   59.56   0
  -1 -13   2 1420.95   47.18   0
  -3  13  -2  889.37   43.35   0
   3 -13   2  930.68  107.61   0
   3  13  -2  894.26   71.74   0
   3  13   2  788.79  102.24   0
   3 -13  -2  717.79   74.64   0
  -3  13  -2  915.11   64.76   0
  -3 -13  -2 1055.88   70.83   0
  -3 -13   2  995.16   72.68   0
  -3  13  -2  780.66   52.34   0
  -3  13   2  948.83   59.06   0
   3  13  -2  683.37   47.58   0
   3  13  -2  924.85   69.56   0
   0 -14   2  109.69   47.62   0
   0 -14  -2  102.17   51.09   0
   0  14  -2  200.43   50.81   0
   0 -14  -2   36.01   64.66   0
   0  14   2  124.95  153.27   0
   0 -14   2  167.16   58.28   0
   0  14   2   96.94  111.10   0
   0  14  -2   90.03   40.16   0
   2 -14   2   53.15   65.67   0
   2  14  -2  -17.26   50.02   0
  -2  14  -2   96.87   42.39   0
   2 -14  -2  -47.95   50.66   0
   2  14   2   29.35  119.89   0
  -2  14  -2   61.77   54.17   0
  -2  14  -2  -38.68   40.60   0
  -2 -14  -2  -94.30   62.01   0
  -2  14   2  267.07   87.20   0
  -2 -14   2   44.53   65.01   0
   2  14  -2  125.69   62.31   0
   2  14  -2  -27.85   64.94   0
  -1  15  -2 1330.08   44.94   0
   1 -15   2 1349.05   79.04   0
  -1 -15  -2 1245.64   68.33   0
  -1 -15  -2 1461.13   66.93   0
   1  15  -2 1282.80   54.05   0
   1 -15  -2 1347.36   56.47   0
   1  15  -2 1328.02   47.08   0
  -1  15  -2 1480.74   78.15   0
   1  15   2  696.08  181.84   0
   1  15   2  671.14  106.78   0
  -1  15   2 1747.45  123.50   0
  -1 -15   2 1351.25   47.96   0
  -1  15  -2 1107.43   45.07   0
  -1 -15   2 1294.57   63.60   0
   3 -15   2  904.98  103.73   0
   3  15  -2  857.85   57.74   0
   3 -15  -2  799.70   57.27   0
  -3  15  -2  883.03   51.72   0
   3  15   2  528.13   82.15   0
  -3  15  -2  728.51   58.62   0
  -3 -15  -2 1058.21   75.68   0
  -3  15  -2  776.37   67.98   0
  -3 -15   2  951.49   76.33   0
  -3  15   2 1088.42   89.57   0
   3  15  -2  778.05   50.77   0
   3  15  -2  669.77   53.85   0
   0 -16   2 2491.25   71.51   0
   0 -16  -2 2222.00   78.59   0
   0  16  -2 2622.04   77.64   0
   0  16   2 3078.89  191.85   0
   0  16  -2 2511.48   50.42   0
   0  16   2 3183.03  215.41   0
   0 -16   2 2743.26   50.27   0
   2 -16   2 1804.49   65.89   0
  -2  16  -2 2096.38   50.53   0
  -2  16  -2 1823.66   47.79   0
   2  16  -2 2102.96   77.89   0
   2 -16  -2 1989.68   77.80   0
   2  16   2 1030.23  136.22   0
  -2  16  -2 2108.45   58.41   0
   2  16  -2 1765.30   52.90   0
  -2  16   2 2333.81   74.70   0
  -2 -16  -2 2087.58   53.14   0
   2  16  -2 1915.42   51.02   0
  -2 -16   2 2234.40   51.87   0
  -1  17  -2 2054.00   65.11   0
   1 -17   2 1796.05   79.86   0
  -1 -17  -2 1882.66   71.99   0
   1 -17  -2 1713.37   79.74   0
   1  17  -2 2001.71   51.96   0
   1  17  -2 1864.06   58.31   0
  -1  17  -2 1954.41   58.10   0
   1  17   2  818.64  199.20   0
  -1 -17  -2 2088.35   68.19   0
   1  17   2 1032.68  164.16   0
  -1  17   2 2416.08   98.51   0
  -1  17  -2 1807.16   65.60   0
  -1 -17   2 1976.36   49.23   0
  -1 -17   2 1991.77   68.51   0
   0 -18   2 1721.45   53.05   0
   0 -18  -2 1512.02   78.90   0
   0  18  -2 1708.10   57.37   0
   0  18   2 2095.37  187.62   0
   0  18  -2 1750.37   50.36   0
   0  18   2 2495.42  204.76   0
   0  18   2 1820.16   84.56   0
   2 -18   2 1192.19   66.06   0
  -2  18  -2 1219.49   53.53   0
  -2 -18  -2 1498.15   73.32   0
   2  18  -2 1416.12   82.85   0
   2 -18  -2 1138.57   61.15   0
  -2 -18   2 1511.64   52.82   0
   2  18   2 1298.95  141.64   0
  -2  18  -2 1178.27   61.06   0
  -2  18   2 1508.76   81.94   0
   2  18  -2 1174.72   53.79   0
   2  18  -2 1265.69   53.70   0
  -2  18  -2 1172.02   52.97   0
  -1 -19  -2  164.43   48.90   0
   1 -19   2  215.72   78.36   0
  -1  19  -2  124.01   68.49   0
  -1 -19  -2  116.24   67.90   0
   1  19  -2   78.45   50.30   0
   1 -19  -2  114.88   58.25   0
   1  19  -2  142.07   57.00   0
  -1  19  -2  162.11   57.04   0
  -1 -19   2  187.76   47.79   0
   1  19   2  352.74  202.03   0
   1  19   2   69.86  151.62   0
  -1  19   2  -10.45  137.44   0
  -1  19  -2  166.07   49.01   0
  -1 -19   2  157.67   49.70   0
   0 -20   2  276.64   52.74   0
   0  20   2  281.97  105.00   0
   0 -20  -2  295.61   76.21   0
   0  20  -2  421.87   58.05   0
   0  20   2  303.01  155.69   0
   0  20  -2  304.60   53.05   0
   0  20   2  489.38  117.52   0
   0  20  -2  315.48   50.72   0
   0   0  -3  200.96   68.73   0
   0   0  -3   46.91   44.26   0
   0   0  -3    8.59   65.65   0
   0   0  -3   45.49   40.62   0
  -2   0   3  -35.41   71.45   0
  -2   0  -3   31.02   40.04   0
   2   0  -3  -19.87   58.27   0
   2   0  -3   88.94   62.34   0
   2   0  -3   60.99   41.59   0
   4   0  -3   -4.30   75.75   0
   4   0  -3   50.91   53.24   0
  -4   0  -3   47.52   50.60   0
  -4   0   3  125.80  189.08   0
   4   0   3  -28.20   54.32   0
   4   0  -3  -20.95   52.28   0
   1   1  -3 1993.33   50.24   0
   1  -1  -3 1929.63   54.83   0
  -1  -1  -3 1802.87   94.47   0
  -1   1  -3 1836.51   91.09   0
   1  -1  -3 2105.99   86.56   0
  -1   1  -3 1929.59   49.97   0
  -1  -1  -3 2016.23   64.11   0
   1   1  -3 2054.14   85.44   0
   1  -1  -3 1992.83   59.48   0
  -1  -1  -3 1921.88   68.99   0
   1   1  -3 1834.11   47.62   0
  -1  -1  -3 2063.56   72.53   0
  -1   1  -3 1971.63   51.00   0
  -1   1  -3 2067.63   51.85   0
   1   1  -3 1936.46   53.37   0
   1  -1  -3 1886.73   49.91   0
  -3   1   3 1038.65   99.33   0
   3  -1  -3 1091.29   68.01   0
   3  -1  -3 1096.88   45.46   0
   3   1  -3 1221.43   68.64   0
  -3   1  -3 1436.20   46.94   0
   3   1  -3 1154.25   44.98   0
  -3  -1  -3 1343.10   46.40   0
  -3  -1   3 1162.46   87.43   0
   3  -1   3 1284.87   47.98   0
   3   1   3 1244.34   51.76   0
   3   1  -3 1243.63   63.09   0
   0  -2  -3 2965.53   58.05   0
   0   2  -3 2935.22   61.19   0
   0   2  -3 3002.09   53.21   0
   0   2  -3 3006.19   73.16   0
   0  -2  -3 3093.24   57.25   0
   0  -2  -3 3189.73   79.30   0
   0  -2  -3 2974.36   67.18   0
   0   2  -3 3126.01   65.70   0
  -2   2  -3 2468.28   47.14   0
  -2   2  -3 2288.55   83.26   0
   2  -2  -3 2562.35   78.10   0
  -2   2  -3 2419.07   66.97   0
  -2  -2  -3 2979.04   49.76   0
   2  -2  -3 2400.53   61.89   0
   2   2  -3 2532.30   45.04   0
  -2  -2   3 2636.49   86.74   0
  -2   2  -3 2566.85   75.89   0
   2   2  -3 2483.28   75.78   0
  -2   2   3 2621.17   49.63   0
   2  -2  -3 2631.68   82.94   0
   2   2   3 2646.84   73.86   0
   2   2  -3 2570.69   62.96   0
   4   2   3 1362.32   59.56   0
   4  -2  -3 1100.19   83.04   0
  -4   2   3 1508.72  159.47   0
   4   2  -3 1222.62   80.33   0
   4  -2  -3 1118.69   79.01   0
   4   2  -3 1212.00   54.94   0
  -4  -2   3  612.24  264.25   0
  -4   2  -3 1625.28   54.28   0
  -4  -2  -3 1721.23   76.10   0
   4   2  -3 1216.31   54.70   0
   1   3  -3 3768.25   69.93   0
  -1  -3  -3 3945.24   63.44   0
  -1  -3  -3 3402.64  107.00   0
  -1   3  -3 3739.57   75.17   0
  -1   3  -3 3737.45   66.53   0
   1  -3  -3 3763.33  113.53   0
  -1   3  -3 3942.79   69.69   0
   1   3  -3 3745.35   66.78   0
  -1  -3  -3 3269.14   92.36   0
  -1  -3  -3 4105.46   70.91   0
   1  -3  -3 3557.81   52.72   0
   1   3  -3 3660.60   50.49   0
  -1   3  -3 3948.23   76.08   0
   1  -3  -3 3841.32  113.80   0
   3   3  -3 2646.49   64.60   0
   3   3   3 2314.56   77.65   0
  -3   3   3 2692.26  112.90   0
   3  -3  -3 2346.94   96.84   0
  -3   3  -3 2738.95   50.15   0
   3  -3  -3 2168.37   51.18   0
   3   3  -3 2582.62   64.26   0
   3   3  -3 2550.11   72.60   0
  -3   3  -3 2658.35   80.78   0
  -3  -3   3 2444.66   97.27   0
  -3  -3  -3 2787.75   52.08   0
  -3   3   3 2677.72   53.08   0
   0   4  -3 3428.28   52.10   0
   0   4  -3 3173.04   80.88   0
   0   4  -3 3282.76   55.56   0
   0  -4  -3 3420.91   87.60   0
   0  -4  -3 3045.63   57.14   0
   0  -4  -3 3718.68   79.42   0
   0   4  -3 3347.48   54.13   0
   0  -4  -3 3158.50   58.15   0
   2   4   3 2797.88   60.50   0
   2   4  -3 2459.84   77.35   0
   2   4  -3 2609.03   48.17   0
  -2   4  -3 2603.67   49.06   0
  -2   4  -3 2412.10   82.80   0
  -2   4  -3 2491.72   50.21   0
   2  -4  -3 2242.26   49.05   0
  -2  -4   3 2804.67   88.95   0
  -2  -4  -3 3127.37   65.05   0
   2   4  -3 2704.40   46.51   0
  -2   4   3 2799.82   52.70   0
   2  -4   3 2857.14   85.14   0
   4   4  -3 1310.39   76.76   0
   4   4   3 1201.37   66.22   0
   4  -4  -3 1056.30   60.05   0
   4   4  -3 1239.94   81.26   0
   4   4  -3 1173.78   78.34   0
  -4   4  -3 1527.14   55.27   0
  -4  -4  -3 1403.94   58.15   0
  -4   4  -3 1230.88   55.38   0
  -4   4   3 1551.41   60.56   0
   1   5  -3  518.63   44.78   0
  -1   5  -3  413.21   60.49   0
  -1   5  -3  484.37   83.88   0
   1   5  -3  456.51   71.24   0
   1  -5  -3  517.57   61.75   0
  -1  -5   3  511.62   67.91   0
  -1  -5  -3  474.69   43.04   0
   1   5  -3  523.08   60.18   0
  -1   5   3  593.01   47.50   0
  -1   5  -3  554.08   44.80   0
   3   5  -3  468.55   61.37   0
   3   5   3  415.56   57.67   0
  -3   5  -3  281.64   45.08   0
  -3   5  -3  171.20   43.88   0
   3  -5  -3  226.84   66.18   0
  -3   5  -3  315.62   66.39   0
   3   5  -3  269.51   42.64   0
   3   5  -3  320.43   49.91   0
  -3  -5   3  274.06   91.89   0
  -3  -5  -3  342.46   65.34   0
  -3   5   3  334.13   50.69   0
   3  -5   3  348.53   94.28   0
   0   6  -3  878.57   61.74   0
   0   6  -3  753.60   62.12   0
   0  -6  -3  754.37   88.56   0
   0   6  -3  759.23   77.60   0
   0  -6  -3  700.59   78.63   0
   0  -6  -3  599.77   72.26   0
   0   6  -3  774.10   49.46   0
   2   6  -3  478.75   44.74   0
   2   6   3  636.23   59.86   0
   2   6  -3  439.76   51.72   0
  -2   6  -3  613.98   41.65   0
  -2  -6   3  446.99   64.12   0
  -2   6  -3  514.13   75.37   0
   2  -6  -3  414.66   45.90   0
  -2   6  -3  442.80   44.14   0
   2   6  -3  506.59   41.49   0
  -2  -6  -3  667.87   44.82   0
  -2   6   3  778.66   67.83   0
   2  -6   3  593.46   69.18   0
   1   7  -3 1585.73   68.03   0
  -1   7  -3 1705.55   61.82   0
  -1   7  -3 1704.00   83.79   0
   1   7  -3 1674.74   53.38   0
   1  -7  -3 1304.98   68.32   0
  -1   7  -3 1562.54   62.38   0
  -1  -7   3 1726.53   53.55   0
   1   7  -3 1452.25   48.09   0
  -1   7   3 1669.69   54.38   0
  -1  -7  -3 1674.48   67.62   0
   1  -7   3 1427.73   86.17   0
   1   7   3 1641.34   77.36   0
   3  -7   3 1242.01  131.20   0
   3   7  -3 1014.42   65.63   0
   3   7   3  907.24   68.87   0
  -3   7  -3 1116.61   63.66   0
  -3   7  -3 1091.76   64.31   0
   3  -7  -3 1051.24   71.13   0
  -3   7  -3  817.98   72.27   0
   3   7  -3  958.25   47.57   0
   3   7  -3  904.72   54.51   0
  -3  -7   3  774.36  127.39   0
  -3   7   3 1312.76   56.19   0
  -3  -7  -3 1121.56   50.47   0
   0   8  -3 3406.61   83.70   0
   0  -8  -3 3193.77   66.19   0
   0   8   3 3501.08   62.78   0
   0   8  -3 3439.57   52.67   0
   0   8  -3 3597.66   67.67   0
   2  -8   3 3305.67   96.78   0
   2   8  -3 2832.74   68.05   0
   2   8   3 2978.78   79.61   0
   2   8  -3 2732.40   75.09   0
  -2   8  -3 2670.96   50.30   0
  -2   8  -3 2503.79   64.39   0
  -2  -8   3 2576.73   70.52   0
  -2   8  -3 2769.76   61.99   0
   2  -8  -3 2253.74   53.53   0
   2   8  -3 2790.61   65.08   0
  -2   8   3 3239.72   81.95   0
  -2  -8  -3 3131.85   70.24   0
   1   9   3 3917.30   96.51   0
  -1   9  -3 3519.57   51.03   0
   1   9  -3 3448.81   57.38   0
  -1  -9  -3 3930.68   80.95   0
  -1   9  -3 3539.33   70.09   0
  -1   9  -3 3513.18   51.76   0
   1  -9  -3 3176.49   78.90   0
   1   9  -3 3529.63   57.53   0
  -1   9   3 3884.26   86.06   0
  -1  -9   3 3828.06   77.50   0
   1   9  -3 3729.88   56.88   0
   1  -9   3 4127.06   80.52   0
   3  -9   3 2799.39  148.12   0
   3   9  -3 2288.05   53.92   0
  -3  -9  -3 2569.45   57.22   0
   3   9   3 1954.34   85.54   0
  -3   9  -3 2256.30   52.03   0
   3  -9  -3 1853.31   56.86   0
  -3   9  -3 1976.82   59.84   0
  -3   9  -3 2147.45   51.24   0
   3   9  -3 2200.31   71.37   0
   3   9  -3 2057.43   58.75   0
  -3   9   3 2525.33   67.17   0
  -3  -9   3 2143.25   83.35   0
   0  10  -3 1325.97   57.28   0
   0 -10  -3 1241.33   60.04   0
   0  10   3 1322.81   79.00   0
   0  10  -3 1337.05   65.43   0
   0  10  -3 1312.30   47.65   0
   2 -10   3 1448.23  111.36   0
   2  10  -3 1043.37   50.43   0
   2  10  -3  994.78   51.96   0
   2  10   3 1224.70  125.46   0
  -2 -10  -3 1150.93   69.48   0
  -2  10  -3  987.06   46.81   0
  -2  10  -3 1099.75   57.92   0
   2 -10  -3 1095.42   52.31   0
  -2 -10   3  970.11   90.24   0
   2  10  -3 1176.08   48.90   0
  -2  10   3 1472.35   91.48   0
  -2  10  -3  965.73   44.96   0
   1  11   3  139.19   87.60   0
  -1  11  -3   16.75   61.26   0
   1  11  -3  195.92   50.71   0
  -1  11  -3  -13.17   42.11   0
  -1  11  -3   75.90   81.11   0
   1 -11  -3   42.05   51.33   0
   1  11  -3  -19.31   47.87   0
  -1 -11  -3   38.97   68.75   0
  -1  11   3  131.57   88.40   0
  -1 -11   3   33.50   71.50   0
   1  11  -3   64.73   71.56   0
   1 -11   3   42.18   77.33   0
  -3  11  -3  -21.68   48.26   0
  -3 -11   3  -15.79   70.88   0
   3 -11   3  138.73  188.32   0
   3  11  -3  -40.57   53.19   0
   3  11   3   32.40   99.38   0
  -3 -11  -3   53.41   51.86   0
  -3  11  -3  -12.56   49.63   0
   3 -11  -3   83.14   56.03   0
  -3  11  -3   52.46   56.83   0
   3  11  -3  109.56   51.67   0
  -3  11   3  121.58   95.19   0
   3  11  -3  -93.80   55.47   0
   0  12  -3  675.25   76.93   0
   0 -12  -3  451.82   78.86   0
   0  12  -3  501.24   63.71   0
   0  12   3  535.11   61.77   0
   0  12  -3  545.06   64.45   0
   0 -12   3  549.12   61.58   0
   2 -12   3  549.55  160.22   0
   2  12  -3  414.86   70.21   0
   2  12  -3  284.71   51.78   0
   2  12   3  597.90  159.49   0
  -2  12  -3  331.00   47.05   0
   2 -12  -3  303.12   53.88   0
  -2  12  -3  413.93   57.35   0
  -2 -12  -3  552.69   72.12   0
  -2  12  -3  371.21   46.81   0
  -2 -12   3  488.92   88.14   0
  -2  12   3  686.85   76.90   0
   2  12  -3  363.60   50.24   0
   1 -13   3 1949.82  106.58   0
   1  13   3 2100.46  109.93   0
  -1  13  -3 1919.34   65.93   0
  -1  13  -3 1898.36   48.78   0
   1  13  -3 1858.36   55.86   0
  -1  13  -3 1918.27   83.13   0
   1 -13  -3 1794.88   79.67   0
   1  13  -3 1853.03   51.79   0
  -1  13   3 2092.17   86.37   0
   1  13  -3 1814.61   77.78   0
  -1 -13   3 1841.08   57.08   0
  -1 -13  -3 1916.99   77.94   0
   0 -14  -3 2860.21   67.96   0
   0  14  -3 3043.11   61.96   0
   0  14  -3 3043.06   54.53   0
   0  14   3 2785.61  116.02   0
   0  14  -3 3237.67   55.31   0
   0 -14   3 3372.17   88.55   0
   2 -14   3 2449.16  138.43   0
   2  14  -3 2396.10   58.65   0
   2  14   3 2877.78  163.36   0
   2  14  -3 2470.78   61.14   0
  -2  14  -3 2582.41   73.77   0
   2 -14  -3 2298.01   61.95   0
  -2  14  -3 2417.07   72.74   0
  -2  14  -3 2299.12   87.74   0
  -2 -14  -3 2805.09   63.70   0
  -2 -14   3 2422.09   65.14   0
  -2  14   3 2893.32  101.71   0
   2  14  -3 2155.93   58.42   0
   1 -15   3 1587.71  101.53   0
   1  15   3 1717.31  116.25   0
  -1  15  -3 1482.16   51.17   0
   1  15  -3 1486.56   81.36   0
   1 -15  -3 1630.89   82.52   0
   1  15  -3 1426.19   73.05   0
  -1  15  -3 1533.38   61.44   0
  -1 -15  -3 1635.21   79.10   0
  -1 -15   3 1559.87   58.66   0
  -1  15   3 1770.36  115.82   0
  -1  15  -3 1588.06   50.79   0
   1  15  -3 1408.64   58.51   0
   0 -16  -3  185.70   58.48   0
   0  16  -3  -87.21   80.48   0
   0  16  -3  282.64   50.02   0
   0  16   3  265.45  133.25   0
   0  16  -3  216.54   49.81   0
   0 -16   3  227.43   83.11   0
   1 -17   3  -57.74   71.47   0
   1  17   3   54.81  151.65   0
  -1  17  -3  112.65   74.77   0
  -1 -17   3  -40.90   57.60   0
   1 -17  -3  -51.01   87.33   0
   1  17  -3  167.58   84.65   0
   1  17  -3   96.32   54.08   0
  -1  17  -3  111.55   61.24   0
  -1  17   3   -9.02  236.96   0
  -1  17  -3  116.24   52.92   0
   1  17  -3   70.22   58.92   0
  -1 -17  -3   46.73   98.29   0
   0   0  -4 2961.28   87.00   0
   0   0  -4 3353.64   62.25   0
   0   0  -4 3288.43   70.09   0
   0   0  -4 3409.45   88.49   0
  -2   0  -4 3243.12   66.91   0
   2   0  -4 3101.75   76.30   0
   2   0  -4 3149.63   93.05   0
  -2   0  -4 3398.78   57.24   0
   2   0  -4 2904.26   54.11   0
   2   0  -4 3305.67   90.07   0
   1  -1  -4 1744.50   72.31   0
   1   1  -4 1682.44   53.83   0
   1  -1  -4 1837.00   87.60   0
   1   1  -4 1980.81   59.94   0
  -1   1  -4 1673.62   93.69   0
  -1  -1  -4 1619.33   94.53   0
   1   1  -4 1827.12   91.38   0
   1  -1  -4 1793.39   76.32   0
  -1   1  -4 1773.96   51.96   0
  -1  -1  -4 1956.07   53.10   0
  -1  -1  -4 1631.05   76.03   0
   1  -1  -4 1784.33   65.41   0
   1   1  -4 1860.98   49.92   0
  -1   1  -4 1945.55   57.60   0
  -1   1  -4 1769.81   71.33   0
  -1  -1  -4 1818.63   79.59   0
   3   1  -4  957.42  125.92   0
   3   1  -4 1227.50   60.54   0
  -3  -1  -4 1087.65  103.34   0
   3   1  -4 1036.93  104.95   0
   3  -1  -4 1042.93   58.18   0
   3   1  -4 1086.98   55.98   0
  -3   1  -4  892.41   69.93   0
  -3   1  -4 1403.49   78.63   0
  -3  -1  -4 1308.86   57.88   0
   3  -1  -4 1210.43   85.02   0
   0  -2  -4  409.12   54.65   0
   0   2  -4  455.95   57.82   0
   0   2  -4  429.54   68.28   0
   0  -2  -4  470.62   65.04   0
   0  -2  -4  499.56   63.58   0
   0   2  -4  603.83   63.89   0
   0  -2  -4  462.02   81.29   0
   0   2  -4  448.09   77.07   0
   2   2  -4  463.41   83.55   0
   2   2  -4  367.91   51.21   0
  -2   2  -4  429.45   47.45   0
  -2   2  -4  334.02   96.44   0
  -2  -2  -4  474.87   86.45   0
  -2   2  -4  292.88   57.78   0
   2  -2  -4  289.18   66.96   0
  -2  -2  -4  245.74   49.26   0
   2   2  -4  278.20   47.07   0
  -2   2  -4  350.91   86.09   0
   2   2  -4  453.03   77.28   0
   2  -2  -4  455.95   52.54   0
   1  -3  -4   14.00   50.50   0
   1   3  -4   92.59   49.48   0
   1   3  -4  172.24   51.61   0
  -1  -3  -4   85.31   76.67   0
  -1   3  -4  -16.73   88.12   0
  -1  -3  -4   -5.51  103.03   0
  -1   3  -4  -93.77   67.37   0
   1   3  -4  -41.99   59.78   0
  -1  -3  -4   55.41   76.72   0
   1  -3  -4   44.30   46.35   0
  -1   3  -4   90.14   71.27   0
  -1  -3  -4   30.88   64.14   0
   1   3  -4  -30.56   62.87   0
  -1   3  -4   48.06   66.65   0
   0  -4  -4 1125.79   80.48   0
   0   4  -4 1268.22   83.69   0
   0   4  -4 1069.37   51.57   0
   0  -4  -4 1042.15   72.21   0
   0  -4  -4 1192.79   71.04   0
   0   4  -4 1108.14   49.59   0
   0  -4  -4 1175.50  107.17   0
   0   4  -4  946.67   56.45   0
  -2  -4  -4  823.75   70.25   0
   2   4  -4  847.32   51.85   0
  -2   4  -4  949.86   55.70   0
  -2   4  -4  844.40   67.84   0
  -2   4  -4  756.56   84.16   0
   2  -4  -4  773.41   51.16   0
   2   4  -4  925.71   69.41   0
  -2  -4  -4  880.79   52.79   0
  -2   4  -4  844.30   76.45   0
   2   4  -4  873.26   82.80   0
   2   4  -4  976.66   95.03   0
   2  -4  -4  891.87   55.77   0
   1   5  -4 3372.66   65.36   0
   1   5  -4 2921.46   79.34   0
  -1  -5  -4 3104.40   72.86   0
  -1   5  -4 3058.34   95.43   0
  -1   5  -4 3162.13   56.38   0
   1   5  -4 3210.84   68.26   0
  -1   5  -4 3129.21   59.90   0
   1  -5  -4 2743.46   76.76   0
   1   5  -4 2939.83   72.96   0
  -1  -5  -4 3539.98   78.06   0
  -1   5  -4 3253.08   63.54   0
   1  -5  -4 2861.80   82.40   0
   0  -6  -4 2486.17   67.58   0
   0   6  -4 2435.76   57.59   0
   0   6  -4 2331.96   66.50   0
   0  -6  -4 2131.69   65.73   0
   0   6  -4 2406.69   60.36   0
   0   6  -4 2441.40   59.42   0
   2   6  -4 2173.63   86.62   0
   2   6  -4 1903.81   77.90   0
  -2   6  -4 2140.46   73.99   0
  -2   6  -4 1906.91   89.56   0
   2  -6  -4 1520.02   77.75   0
   2   6  -4 2141.63   73.68   0
  -2   6  -4 1923.53   58.79   0
  -2   6  -4 2166.46   92.08   0
  -2  -6  -4 2197.45   58.18   0
  -2  -6  -4 2075.64   82.86   0
   1   7  -4 1147.23   82.52   0
  -1  -7  -4 1055.92   74.76   0
   1   7  -4 1037.17   78.20   0
  -1   7  -4  978.61   51.73   0
  -1  -7  -4 1001.45   88.84   0
  -1   7  -4  948.60   90.15   0
  -1   7  -4  939.50   71.43   0
   1   7  -4 1078.96   60.13   0
   1  -7  -4  784.82   56.12   0
   1   7  -4 1064.28   53.01   0
  -1   7  -4 1183.84   64.28   0
   1  -7  -4  859.95   62.51   0
   0  -8  -4  243.02   82.01   0
   0   8  -4  159.16   71.99   0
   0   8  -4  232.52   58.55   0
   0  -8  -4  203.76   81.90   0
   0   8  -4  298.88   52.28   0
   0   8  -4  340.07   80.33   0
   2   8  -4  243.59   59.87   0
  -2  -8  -4  178.45   54.11   0
   2   8  -4  327.12   80.14   0
  -2   8  -4  154.24   52.43   0
  -2   8  -4  171.92   61.59   0
   2  -8  -4  112.97   58.31   0
  -2   8  -4   94.57   55.13   0
   2   8  -4  306.93   76.84   0
  -2  -8  -4  207.45   84.25   0
  -2   8  -4  215.03   76.15   0
  -2   8   4  154.65   68.91   0
  -1  -9  -4  273.19  111.58   0
   1   9  -4  271.40   58.81   0
  -1   9  -4  334.71   71.96   0
  -1   9  -4  439.32   70.61   0
  -1   9  -4  313.13   63.25   0
   1   9  -4  343.92   58.79   0
  -1  -9  -4  305.99   82.72   0
   1  -9  -4  342.13   81.49   0
   1   9  -4  277.23   79.27   0
  -1   9  -4  454.55   98.67   0
   1   9  -4  339.99   84.60   0
   0 -10  -4 1931.41   94.40   0
   0  10  -4 1916.62   78.08   0
   0  10  -4 1953.39   88.77   0
   0 -10  -4 1786.35   93.20   0
   0  10  -4 1900.96   59.02   0
   0  10  -4 2062.73   70.23   0
   2  10  -4 1389.22   90.90   0
   2  10  -4 1341.06   64.80   0
  -2 -10  -4 1642.82   88.95   0
  -2  10  -4 1446.92   59.15   0
  -2  10  -4 1267.28   71.92   0
   2 -10  -4 1397.39   65.04   0
  -2  10  -4 1425.56   61.31   0
   2  10  -4 1272.51   63.15   0
  -2  10   4 1667.55  119.75   0
  -2  10  -4 1476.68  107.55   0
  -1  11  -4 1909.21   58.40   0
   1  11  -4 2145.22   88.83   0
  -1  11  -4 2285.60   80.24   0
  -1  11  -4 1974.32   96.74   0
   1  11  -4 2173.78   64.53   0
   1 -11  -4 1845.69   67.56   0
   1  11  -4 2044.21   67.90   0
  -1  11  -4 2225.10   93.52   0
  -1  11   4 2212.80  112.83   0
   1  11  -4 2276.95   71.21   0
   0  12  -4 1405.12   60.77   0
   0  12  -4 1296.63   91.00   0
   0 -12  -4 1143.20   95.31   0
   0  12  -4 1312.56   81.96   0
   0  12  -4 1342.74  109.54   0
   0 -12  -4 1179.29   97.47   0
;
_shelx_hkl_checksum              97864
loop_
_space_group_symop_operation_xyz
'x, y, z'
'-x, -y, z+1/2'
'-x, y, -z+1/2'
'x, -y, -z'
'x+1/2, y+1/2, z'
'-x+1/2, -y+1/2, z+1/2'
'-x+1/2, y+1/2, -z+1/2'
'x+1/2, -y+1/2, -z'
'-x, -y, -z'
'x, y, -z-1/2'
'x, -y, z-1/2'
'-x, y, z'
'-x+1/2, -y+1/2, -z'
'x+1/2, y+1/2, -z-1/2'
'x+1/2, -y+1/2, z-1/2'
'-x+1/2, y+1/2, z'
loop_
_atom_site_label
_atom_site_type_symbol
_atom_site_fract_x
_atom_site_fract_y
_atom_site_fract_z
_atom_site_U_iso_or_equiv
_atom_site_adp_type
_atom_site_occupancy
_atom_site_site_symmetry_order
_atom_site_calc_flag
_atom_site_refinement_flags_posn
_atom_site_refinement_flags_adp
_atom_site_refinement_flags_occupancy
W W 0.5000 0.41002(2) 0.2500 0.00358(15) Uani 1 4 d S T P
Al Al 0.0000 0.30058(19) -0.2500 0.0062(5) Uani 1 4 d S T P
B B 0.0000 0.4645(6) -0.2500 0.0034(14) Uiso 1 4 d S . P
loop_
_atom_site_aniso_label
_atom_site_aniso_U_11
_atom_site_aniso_U_22
_atom_site_aniso_U_33
_atom_site_aniso_U_23
_atom_site_aniso_U_13
_atom_site_aniso_U_12
W 0.0033(2) 0.00402(18) 0.00342(17) 0.000 0.000 0.000
Al 0.0053(13) 0.0070(10) 0.0061(10) 0.000 0.000 0.000
loop_
_atom_type_symbol
_atom_type_description
_atom_type_scat_dispersion_real
_atom_type_scat_dispersion_imag
_atom_type_scat_source
B B 0.0013 0.0007 'International Tables Vol C Tables 4.2.6.8 and 6.1.1.4'
Al Al 0.0645 0.0514 'International Tables Vol C Tables 4.2.6.8 and 6.1.1.4'
W W -0.8490 6.8722 'International Tables Vol C Tables 4.2.6.8 and 6.1.1.4'
loop_
_geom_angle_atom_site_label_1
_geom_angle_atom_site_label_2
_geom_angle_atom_site_label_3
_geom_angle
_geom_angle_site_symmetry_1
_geom_angle_site_symmetry_3
B W B 142.4(4) . 1_656
B W B 82.42(12) . 1_556
B W B 85.68(13) 1_656 1_556
B W B 85.68(13) . 1_655
B W B 82.42(12) 1_656 1_655
B W B 142.4(4) 1_556 1_655
B W B 102.86(7) . 9_665
B W B 45.8(2) 1_656 9_665
B W B 102.86(7) 1_556 9_665
B W B 45.8(2) 1_655 9_665
B W B 45.8(2) . 9_565
B W B 102.86(7) 1_656 9_565
B W B 45.8(2) 1_556 9_565
B W B 102.86(7) 1_655 9_565
B W B 85.1(3) 9_665 9_565
B W Al 53.1(2) . .
B W Al 164.5(2) 1_656 .
B W Al 99.02(11) 1_556 .
B W Al 101.90(11) 1_655 .
B W Al 144.73(3) 9_665 .
B W Al 90.83(13) 9_565 .
B W Al 164.5(2) . 1_656
B W Al 53.1(2) 1_656 1_656
B W Al 101.90(11) 1_556 1_656
B W Al 99.02(11) 1_655 1_656
B W Al 90.83(13) 9_665 1_656
B W Al 144.73(3) 9_565 1_656
Al W Al 111.35(9) . 1_656
B W Al 101.90(11) . 1_655
B W Al 99.02(11) 1_656 1_655
B W Al 164.5(2) 1_556 1_655
B W Al 53.1(2) 1_655 1_655
B W Al 90.83(13) 9_665 1_655
B W Al 144.73(3) 9_565 1_655
Al W Al 72.76(5) . 1_655
Al W Al 70.15(4) 1_656 1_655
B W Al 99.02(11) . 1_556
B W Al 101.90(11) 1_656 1_556
B W Al 53.1(2) 1_556 1_556
B W Al 164.5(2) 1_655 1_556
B W Al 144.73(3) 9_665 1_556
B W Al 90.83(13) 9_565 1_556
Al W Al 70.15(4) . 1_556
Al W Al 72.76(5) 1_656 1_556
Al W Al 111.35(9) 1_655 1_556
B W Al 108.8(2) . 13
B W Al 108.8(2) 1_656 13
B W Al 108.8(2) 1_556 13
B W Al 108.8(2) 1_655 13
B W Al 137.46(14) 9_665 13
B W Al 137.46(14) 9_565 13
Al W Al 55.68(5) . 13
Al W Al 55.68(5) 1_656 13
Al W Al 55.68(5) 1_655 13
Al W Al 55.68(5) 1_556 13
B W W 94.21(19) . 9_666
B W W 51.63(18) 1_656 9_666
B W W 51.63(18) 1_556 9_666
B W W 94.21(19) 1_655 9_666
B W W 51.22(10) 9_665 9_666
B W W 51.22(10) 9_565 9_666
Al W W 141.45(4) . 9_666
Al W W 100.17(4) 1_656 9_666
Al W W 141.45(4) 1_655 9_666
Al W W 100.17(4) 1_556 9_666
Al W W 148.210(7) 13 9_666
B Al Al 122.26(9) . 13_454
B Al Al 122.26(9) . 13
Al Al Al 115.48(19) 13_454 13
B Al Al 122.26(9) . 13_455
Al Al Al 72.09(9) 13_454 13_455
Al Al Al 74.79(9) 13 13_455
B Al Al 122.26(9) . 13_554
Al Al Al 74.79(9) 13_454 13_554
Al Al Al 72.09(9) 13 13_554
Al Al Al 115.48(19) 13_455 13_554
B Al W 55.68(5) . .
Al Al W 177.94(14) 13_454 .
Al Al W 66.58(5) 13 .
Al Al W 108.85(3) 13_455 .
Al Al W 106.19(3) 13_554 .
B Al W 55.68(5) . 1_554
Al Al W 108.85(3) 13_454 1_554
Al Al W 106.19(3) 13 1_554
Al Al W 177.94(14) 13_455 1_554
Al Al W 66.58(5) 13_554 1_554
W Al W 70.15(4) . 1_554
B Al W 55.68(5) . 1_454
Al Al W 66.58(5) 13_454 1_454
Al Al W 177.94(14) 13 1_454
Al Al W 106.19(3) 13_455 1_454
Al Al W 108.85(3) 13_554 1_454
W Al W 111.35(9) . 1_454
W Al W 72.76(5) 1_554 1_454
B Al W 55.68(5) . 1_455
Al Al W 106.19(3) 13_454 1_455
Al Al W 108.85(3) 13 1_455
Al Al W 66.58(5) 13_455 1_455
Al Al W 177.94(14) 13_554 1_455
W Al W 72.76(5) . 1_455
W Al W 111.35(9) 1_554 1_455
W Al W 70.15(4) 1_454 1_455
B Al W 180.0 . 13
Al Al W 57.74(9) 13_454 13
Al Al W 57.74(9) 13 13
Al Al W 57.74(9) 13_455 13
Al Al W 57.74(9) 13_554 13
W Al W 124.32(5) . 13
W Al W 124.32(5) 1_554 13
W Al W 124.32(5) 1_454 13
W Al W 124.32(5) 1_455 13
B B B 115.1(9) 9_565 9_564
B B Al 122.5(5) 9_565 .
B B Al 122.5(5) 9_564 .
B B W 136.77(15) 9_565 1_454
B B W 67.48(16) 9_564 1_454
Al B W 71.2(2) . 1_454
B B W 67.48(16) 9_565 .
B B W 136.77(15) 9_564 .
Al B W 71.2(2) . .
W B W 142.4(4) 1_454 .
B B W 67.48(16) 9_565 1_455
B B W 136.77(15) 9_564 1_455
Al B W 71.2(2) . 1_455
W B W 82.42(12) 1_454 1_455
W B W 85.68(13) . 1_455
B B W 136.77(15) 9_565 1_554
B B W 67.48(16) 9_564 1_554
Al B W 71.2(2) . 1_554
W B W 85.68(13) 1_454 1_554
W B W 82.42(12) . 1_554
W B W 142.4(4) 1_455 1_554
B B W 66.7(4) 9_565 9_665
B B W 66.7(4) 9_564 9_665
Al B W 137.46(14) . 9_665
W B W 134.2(2) 1_454 9_665
W B W 77.14(7) . 9_665
W B W 134.2(2) 1_455 9_665
W B W 77.14(7) 1_554 9_665
B B W 66.7(4) 9_565 9_565
B B W 66.7(4) 9_564 9_565
Al B W 137.46(14) . 9_565
W B W 77.14(7) 1_454 9_565
W B W 134.2(2) . 9_565
W B W 77.14(7) 1_455 9_565
W B W 134.2(2) 1_554 9_565
W B W 85.1(3) 9_665 9_565
loop_
_geom_bond_atom_site_label_1
_geom_bond_atom_site_label_2
_geom_bond_distance
_geom_bond_site_symmetry_2
W B 2.354(3) .
W B 2.354(3) 1_656
W B 2.354(3) 1_556
W B 2.354(3) 1_655
W B 2.368(6) 9_665
W B 2.368(6) 9_565
W Al 2.6989(15) .
W Al 2.6989(15) 1_656
W Al 2.6989(15) 1_655
W Al 2.6989(15) 1_556
W Al 2.929(3) 13
W W 2.9442(6) 9_666
Al B 2.280(9) .
Al Al 2.636(3) 13_454
Al Al 2.636(3) 13
Al Al 2.636(3) 13_455
Al Al 2.636(3) 13_554
Al W 2.6989(15) 1_554
Al W 2.6989(15) 1_454
Al W 2.6989(15) 1_455
Al W 2.929(3) 13
B B 1.838(9) 9_565
B B 1.838(9) 9_564
B W 2.354(3) 1_454
B W 2.354(3) 1_455
B W 2.354(3) 1_554
B W 2.368(6) 9_665
B W 2.368(6) 9_565
