#------------------------------------------------------------------------------
#$Date: 2015-08-05 21:43:43 +0300 (Wed, 05 Aug 2015) $
#$Revision: 152825 $
#$URL: svn://www.crystallography.net/cod/cif/4/34/34/4343450.cif $
#------------------------------------------------------------------------------
#
# This file is available in the Crystallography Open Database (COD),
# http://www.crystallography.net/
#
# All data on this site have been placed in the public domain by the
# contributors.
#
data_4343450
loop_
_publ_author_name
'Huang, Chun-Zuo'
'Liu, Biao'
'Wen, Lei'
'Zhuang, Rong-Chuan'
'Zhao, Jing-Tai'
'Pan, Yuanming'
'Mi, Jin-Xiao'
'Huang, Ya-Xi'
_publ_section_title
;
 Dimensional Reduction From 2D Layer to 1D Band for Germanophosphates
 Induced by the &quot;Tailor Effect&quot; of Fluoride.
;
_journal_issue                   14
_journal_name_full               'Inorganic chemistry'
_journal_page_first              6978
_journal_page_last               6985
_journal_paper_doi               10.1021/acs.inorgchem.5b00973
_journal_volume                  54
_journal_year                    2015
_chemical_formula_sum            'Co Ge H3 K O10 P2'
_chemical_formula_weight         395.58
_space_group_crystal_system      triclinic
_space_group_IT_number           2
_space_group_name_Hall           '-P 1'
_space_group_name_H-M_alt        'P -1'
_symmetry_space_group_name_Hall  '-P 1'
_symmetry_space_group_name_H-M   'P -1'
_atom_sites_solution_hydrogens   difmap
_audit_creation_method           SHELXL-2014/7
_cell_angle_alpha                102.020(3)
_cell_angle_beta                 97.210(3)
_cell_angle_gamma                91.750(3)
_cell_formula_units_Z            1
_cell_length_a                   4.4540(10)
_cell_length_b                   6.1119(14)
_cell_length_c                   7.8383(18)
_cell_measurement_reflns_used    1747
_cell_measurement_temperature    173(2)
_cell_measurement_theta_max      28.133
_cell_measurement_theta_min      2.681
_cell_volume                     206.70(8)
_computing_cell_refinement       'SAINT (Bruker, 2001)'
_computing_data_collection       'SAINT (Bruker, 2001)'
_computing_data_reduction        'SAINT (Bruker, 2001)'
_computing_molecular_graphics    'DIAMOND (Brandenburg, 2005) '
_computing_publication_material
'SHELXL-2014/7 (Sheldrick, 2014) and WinGX (Farrugia, 2014)'
_computing_structure_refinement  'SHELXL-2014/7 (Sheldrick, 2014)'
_computing_structure_solution    'SHELXL-2014/7 (Sheldrick, 2014)'
_diffrn_ambient_temperature      173(2)
_diffrn_measured_fraction_theta_full 0.987
_diffrn_measured_fraction_theta_max 0.916
_diffrn_radiation_type           MoK\a
_diffrn_radiation_wavelength     0.71073
_diffrn_reflns_av_R_equivalents  0.0155
_diffrn_reflns_av_unetI/netI     0.0233
_diffrn_reflns_laue_measured_fraction_full 0.987
_diffrn_reflns_laue_measured_fraction_max 0.916
_diffrn_reflns_limit_h_max       5
_diffrn_reflns_limit_h_min       -5
_diffrn_reflns_limit_k_max       8
_diffrn_reflns_limit_k_min       -7
_diffrn_reflns_limit_l_max       10
_diffrn_reflns_limit_l_min       -10
_diffrn_reflns_number            1747
_diffrn_reflns_point_group_measured_fraction_full 0.987
_diffrn_reflns_point_group_measured_fraction_max 0.916
_diffrn_reflns_theta_full        25.242
_diffrn_reflns_theta_max         28.133
_diffrn_reflns_theta_min         2.681
_exptl_absorpt_coefficient_mu    6.573
_exptl_absorpt_correction_T_max  0.769
_exptl_absorpt_correction_T_min  0.537
_exptl_absorpt_correction_type   multi-scan
_exptl_absorpt_process_details   'SMART (Bruker, 2001)'
_exptl_crystal_colour            purple
_exptl_crystal_density_diffrn    3.178
_exptl_crystal_density_method    'not measured'
_exptl_crystal_description       prism
_exptl_crystal_F_000             191
_exptl_crystal_size_max          0.120
_exptl_crystal_size_mid          0.080
_exptl_crystal_size_min          0.040
_refine_diff_density_max         0.569
_refine_diff_density_min         -0.615
_refine_diff_density_rms         0.124
_refine_ls_extinction_method     none
_refine_ls_goodness_of_fit_ref   1.076
_refine_ls_hydrogen_treatment    refxyz
_refine_ls_matrix_type           full
_refine_ls_number_parameters     79
_refine_ls_number_reflns         921
_refine_ls_number_restraints     2
_refine_ls_restrained_S_all      1.076
_refine_ls_R_factor_all          0.0255
_refine_ls_R_factor_gt           0.0251
_refine_ls_shift/su_max          0.000
_refine_ls_shift/su_mean         0.000
_refine_ls_structure_factor_coef Fsqd
_refine_ls_weighting_details
'w=1/[\s^2^(Fo^2^)+(0.0313P)^2^+0.5296P] where P=(Fo^2^+2Fc^2^)/3'
_refine_ls_weighting_scheme      calc
_refine_ls_wR_factor_gt          0.0640
_refine_ls_wR_factor_ref         0.0643
_reflns_Friedel_coverage         0.000
_reflns_number_gt                898
_reflns_number_total             921
_reflns_threshold_expression     'I > 2\s(I)'
_cod_data_source_file            ic5b00973_si_003.cif
_cod_data_source_block           p-1
_cod_depositor_comments
'Adding full bibliography for 4343450--4343453.cif.'
_cod_database_code               4343450
_shelx_shelxl_version_number     2014/7
_shelx_space_group_comment
;
The symmetry employed for this shelxl refinement is uniquely defined
by the following loop, which should always be used as a source of
symmetry information in preference to the above space-group names.
They are only intended as comments.
;
_shelx_estimated_absorpt_t_min   0.506
_shelx_estimated_absorpt_t_max   0.779
_shelx_res_file
;

    shelx.res created by SHELXL-2014/7


TITL KCoGePO2 in P-1
CELL  0.71073    4.4540    6.1119    7.8383   102.020    97.210    91.750
ZERR        1    0.0010    0.0014    0.0018     0.003     0.003     0.003
LATT   1
SFAC     Co  Ge   K  O    P   H
UNIT     1    1   1  10   2   3
L.S. 8
FMAP 2
TEMP -100
SIZE 0.12 0.08 0.04
PLAN 10
OMIT 3 -1 1
OMIT 0 2 4
REM ACTA 51
BOND $H
HTAB
ACTA
DFIX O2 H2 0.82 0.02
DFIX O5 H5 0.82 0.02
WGHT    0.031300    0.529600
FVAR       1.10714
CO1   1    0.500000    0.500000    0.500000    10.50000    0.00709    0.00659 =
         0.01005    0.00278    0.00116    0.00089
GE1   2    0.500000    0.000000    0.500000    10.50000    0.00592    0.00623 =
         0.00830    0.00251    0.00074    0.00089
P1    5    0.074081    0.298238    0.725166    11.00000    0.00678    0.00669 =
         0.00818    0.00165    0.00101    0.00099
O1    4   -0.234179    0.258039    0.597765    11.00000    0.00786    0.00759 =
         0.01264    0.00268   -0.00060    0.00054
O2    4    0.009788    0.309718    0.913964    11.00000    0.01834    0.01008 =
         0.00862    0.00097    0.00413    0.00175
O3    4    0.236132    0.506657    0.697959    11.00000    0.00902    0.00935 =
         0.01266    0.00199    0.00187    0.00042
O4    4    0.250157    0.081815    0.679306    11.00000    0.00876    0.00709 =
         0.00919    0.00283    0.00116    0.00296
O5    4    0.311494    0.183581    0.364184    11.00000    0.00721    0.00866 =
         0.01019    0.00320    0.00000    0.00077
K1    3    0.500000    0.000000    1.000000    10.50000    0.03475    0.09809 =
         0.03020    0.03907    0.01069    0.03254
H2    6    0.018091    0.439664    0.969770    10.50000   10.05000
H5    6    0.131276    0.159570    0.343713    11.00000   10.05000
HKLF 4

REM  KCoGePO2 in P-1
REM R1 =  0.0251 for     898 Fo > 4sig(Fo)  and  0.0255 for all     921 data
REM     79 parameters refined using      2 restraints

END

WGHT      0.0313      0.5309

REM Instructions for potential hydrogen bonds
EQIV $1 -x, -y+1, -z+2
HTAB O2 O2_$1
EQIV $2 -x, -y, -z+1
HTAB O5 O4_$2

REM Highest difference peak  0.569,  deepest hole -0.615,  1-sigma level  0.124
Q1    1   0.0420  0.2898  0.8235  11.00000  0.05    0.57
Q2    1   0.4518  0.6385  0.5584  11.00000  0.05    0.55
Q3    1   0.3720  0.0575  0.4168  11.00000  0.05    0.51
Q4    1   0.4068  0.0625  0.6105  11.00000  0.05    0.48
Q5    1   0.0000  0.5000  1.0000  10.50000  0.05    0.48
Q6    1   0.2180  0.1816  0.7191  11.00000  0.05    0.44
Q7    1   0.4581  0.1421  0.5578  11.00000  0.05    0.42
Q8    1   0.3729  0.5013  0.4156  11.00000  0.05    0.41
Q9    1  -0.1209  0.3012  0.6047  11.00000  0.05    0.37
Q10   1   0.2661  0.0396  0.7403  11.00000  0.05    0.34
;
_shelx_res_checksum              16723
_shelx_hkl_file
;
   1   0   0 1460.94   30.34   3
  -1   0   0 1454.62   31.56   2
   1   0   0 1419.62   25.13   1
   2   0   0 1914.50   33.97   1
   2   0   0 1936.55   42.40   3
  -2   0   0 1961.29   44.00   2
   3   0   0 1290.88   32.65   3
   3   0   0 1318.28   24.67   1
  -3   0   0 1311.87   34.50   2
   4   0   0 2621.42   60.63   3
  -4   0   0 2560.08   62.81   2
  -5   0   0 1135.23   35.83   2
   5   0   0 1101.15   34.29   3
  -5   1   0   15.40    3.29   2
   5  -1   0   20.03    3.77   3
  -4   1   0  898.17   29.11   2
   4  -1   0  900.42   27.10   3
   3  -1   0   34.01    3.53   3
  -3   1   0   36.86    3.97   2
  -2   1   0  260.36   10.18   2
   2  -1   0  245.56    9.22   3
   1  -1   0  384.52   10.56   3
  -1   1   0  402.38    7.45   1
  -1   1   0  390.99   11.38   2
   0  -1   0  130.66    4.36   2
   0   1   0  135.00    3.56   1
   0  -1   0  136.89    4.76   3
   1   1   0 2897.12   58.83   3
   1   1   0 2911.74   50.57   1
  -1  -1   0 2958.78   60.40   2
  -2  -1   0    7.84    1.68   2
   2   1   0    4.82    1.54   3
   2   1   0    6.32    1.16   1
   3   1   0  824.49   17.70   1
  -3  -1   0  822.89   23.59   2
   3   1   0  779.23   22.88   3
  -4  -1   0  163.23    9.36   2
   4   1   0  161.21    9.44   3
   5   1   0  165.86   10.69   3
  -5   2   0  575.91   25.20   2
   5  -2   0  599.32   22.85   3
   4  -2   0 1144.32   32.63   3
  -4   2   0 1145.32   36.02   2
   3  -2   0 5726.97  116.22   3
  -3   2   0 5479.50  121.73   2
   2  -2   0  672.46   18.98   3
  -2   2   0  674.97   20.75   2
  -1   2   0 5134.64   86.59   1
   1  -2   0 5171.36  103.18   3
   0  -2   0 1267.66   29.36   2
   0  -2   0 1278.63   29.76   3
   0   2   0 1291.32   24.33   1
  -1  -2   0 9404.24  189.90   3
   1   2   0 9999.60  161.29   1
  -1  -2   0 9435.91  192.59   2
   2   2   0 2383.42   51.81   3
  -2  -2   0 2419.56   52.25   2
   2   2   0 2382.38   44.46   1
   3   2   0 1031.36   22.70   1
   3   2   0 1052.47   27.76   3
  -3  -2   0  958.12   26.95   2
   4   2   0 1602.68   42.24   3
   5   2   0  227.87   12.81   3
  -5   3   0   64.70    6.79   2
   5  -3   0   64.17    6.07   3
  -4   3   0   23.47    4.78   2
   4  -3   0   17.69    3.39   3
   3  -3   0  749.90   23.40   3
  -3   3   0  776.86   26.41   2
   2  -3   0 1160.05   30.07   3
  -1   3   0  474.21   11.16   1
   1  -3   0  477.84   15.01   3
   1  -3   0  470.01   15.80   2
   0   3   0  340.53    9.69   1
   0  -3   0  359.57   12.76   3
   0  -3   0  343.44   11.48   2
  -1  -3   0   10.63    2.66   3
  -1  -3   0    8.33    1.21   2
   1   3   0    8.72    1.88   1
  -2  -3   0 1432.11   39.74   3
  -2  -3   0 1563.32   35.39   2
   2   3   0 1502.02   31.39   1
  -3  -3   0  175.92   11.17   3
   3   3   0  185.60    7.96   1
   4   3   0  144.46    7.15   1
  -4  -3   0  152.48   11.53   3
  -5  -3   0   47.83    7.57   3
  -4   4   0 1837.77   55.30   2
   4  -4   0 1958.10   50.99   3
  -3   4   0  719.82   26.42   2
   3  -4   0  677.01   23.18   3
   2  -4   0 2780.93   63.49   3
  -2   4   0 2820.10   67.25   2
   1  -4   0  905.73   26.51   2
   1  -4   0  916.80   25.73   3
  -1   4   0  907.81   20.00   1
   0  -4   0 3978.04   85.03   2
   0  -4   0 3875.45   85.19   3
   0   4   0 3916.64   70.95   1
  -1  -4   0 1689.22   40.47   2
  -1  -4   0 1732.13   44.60   3
   1   4   0 1737.17   35.83   1
  -2  -4   0  252.22   13.49   3
   2   4   0  269.55   10.33   1
   3   4   0 1802.45   39.55   1
  -3  -4   0 1832.19   50.69   3
   4   4   0  416.81   14.68   1
  -4  -4   0  410.88   21.19   3
  -4   5   0    2.66    1.12   2
   4  -5   0    0.74    1.03   3
   3  -5   0   31.97    4.53   3
  -3   5   0   28.94    5.00   2
  -2   5   0    7.11    1.88   2
   2  -5   0    6.11    1.54   3
   1  -5   0 1088.23   30.92   3
  -1   5   0 1091.47   24.37   1
   0  -5   0  397.85   16.30   3
   0   5   0  385.01   12.66   1
   0  -5   0  414.84   14.89   2
  -1  -5   0  376.37   16.78   3
   1   5   0  384.98   13.22   1
   2   5   0    4.54    1.43   1
  -2  -5   0    0.90    1.10   3
  -3  -5   0   78.23    7.26   3
   3   5   0   76.72    5.60   1
   4   5   0   12.30    1.99   1
  -3   6   0 1198.63   39.48   2
   3  -6   0 1101.14   35.05   3
  -2   6   0  484.18   20.48   2
   2  -6   0  497.97   19.48   3
   1  -6   0  625.99   22.38   3
  -1   6   0  632.14   17.44   1
   0   6   0 1139.71   27.95   1
   0  -6   0 1185.39   34.51   3
  -1  -6   0  506.30   21.53   3
   1   6   0  507.27   16.86   1
   2   6   0 1565.54   37.78   1
   3   6   0   24.55    3.61   1
  -3   7   0    6.05    1.42   2
   3  -7   0    6.73    1.70   3
   2  -7   0  378.30   17.32   3
   0   7   0   75.88    5.27   1
   1   7   0    2.10    0.95   1
   0   8  -1  761.66   23.36   1
   2   7  -1  403.17   16.16   1
   1   7  -1    5.60    1.38   1
   0   7  -1    3.57    1.01   1
  -2   7  -1   40.25    4.52   2
  -3   7  -1  360.19   19.15   2
   3   6  -1  492.30   17.78   1
   2   6  -1  579.67   19.01   1
   1   6  -1 1841.11   41.13   1
   0   6  -1   69.11    4.94   1
   1  -6   1 1602.27   40.35   3
   1  -6   1 1564.88   43.36   2
  -1   6  -1 1492.34   33.56   1
  -2   6  -1   95.80    8.18   2
   2  -6   1  103.59    7.22   3
  -3   6  -1  919.43   34.03   2
   3  -6   1  906.89   29.60   3
   4  -6   1  295.84   15.40   3
   4   5  -1   46.53    3.98   1
   3   5  -1   36.62    3.39   1
  -2  -5   1   69.36    6.28   3
   2   5  -1   71.21    5.30   1
  -1  -5   1  218.39   11.13   3
   1   5  -1  219.46    9.44   1
  -1  -5   1  211.80   10.39   2
   0  -5   1   82.17    5.69   3
   0   5  -1   87.15    5.21   1
   0  -5   1   79.49    6.09   2
  -1   5  -1  169.34    7.04   1
   1  -5   1  160.48    9.79   2
   1  -5   1  175.58    8.70   3
   2  -5   1   79.21    6.04   3
  -2   5  -1   76.66    6.89   2
  -3   5  -1  186.16   12.55   2
   3  -5   1  196.24   10.68   3
  -4   5  -1  221.52   15.06   2
   4  -5   1  206.66   12.22   3
  -4  -4   1 1094.33   36.73   3
   4   4  -1 1069.11   27.21   1
  -3  -4   1  356.12   16.72   3
   3   4  -1  362.47   12.79   1
  -2  -4   1  874.03   24.87   2
  -2  -4   1  897.48   27.82   3
   2   4  -1  890.18   22.27   1
   1   4  -1  156.91    7.21   1
  -1  -4   1  174.02    8.82   3
  -1  -4   1  168.96    8.24   2
   0  -4   1 6044.18  122.58   3
   0   4  -1 6030.23  104.90   1
   0  -4   1 5998.03  128.08   2
  -1   4  -1  402.59   11.15   1
   1  -4   1  404.47   15.99   2
   1  -4   1  415.65   13.79   3
   2  -4   1  627.11   19.52   3
  -2   4  -1  611.12   22.15   2
   3  -4   1  584.45   20.33   3
  -3   4  -1  576.24   23.44   2
  -4   4  -1  421.53   21.09   2
   4  -4   1  425.49   17.97   3
   4   3  -1  302.19   10.83   1
  -3  -3   1  195.42   11.27   3
   3   3  -1  203.39    8.27   1
   2   3  -1   37.29    3.14   1
  -2  -3   1   39.82    3.33   2
  -2  -3   1   37.43    3.66   3
  -1  -3   1  406.87   13.79   3
   1   3  -1  413.82   11.51   1
  -1  -3   1  404.31   13.24   2
   0  -3   1  869.62   24.10   2
   0  -3   1  876.96   21.96   3
   0   3  -1  887.69   18.80   1
   1  -3   1   40.92    4.13   2
   1  -3   1   48.99    3.47   3
  -1   3  -1   42.90    2.48   1
  -2   3  -1  400.26    9.13   1
   2  -3   1  399.72   13.76   3
  -3   3  -1  796.38   27.04   2
   3  -3   1  766.96   23.51   3
  -4   3  -1  367.31   18.31   2
   4  -3   1  397.85   16.44   3
  -5   3  -1   22.29    4.85   2
   5  -3   1   12.97    2.99   3
   5   2  -1  235.44   12.94   3
   4   2  -1  385.16   15.44   3
  -4  -2   1  376.78   15.87   2
   3   2  -1 3373.31   72.07   3
  -3  -2   1 3326.69   75.02   2
   3   2  -1 3343.19   60.90   1
   2   2  -1  531.15   14.94   3
   2   2  -1  527.30   13.28   1
  -2  -2   1  524.44   15.98   2
  -1  -2   1 1312.45   30.82   2
  -1  -2   1 1322.92   30.44   3
   1   2  -1 1346.92   25.79   1
   0  -2   1  394.42   10.53   3
   0  -2   1  394.94   12.53   2
   0   2  -1  393.06    9.29   1
  -1   2  -1 3403.84   57.13   1
   1  -2   1 3291.40   72.62   2
   1  -2   1 3330.56   67.81   3
  -2   2  -1 1665.79   29.08   1
   2  -2   1 1685.28   38.27   3
  -2   2  -1 1603.54   41.21   2
  -3   2  -1  141.28    9.03   2
   3  -2   1  142.75    7.92   3
  -4   2  -1 1801.77   49.55   2
   4  -2   1 1760.85   45.37   3
   5  -2   1   75.53    6.51   3
  -5   2  -1   68.29    6.55   2
   5   1  -1   19.32    3.45   3
  -5  -1   1   13.99    2.58   2
  -4  -1   1   30.64    3.50   2
   4   1  -1   36.14    4.03   3
   3   1  -1    2.31    0.56   1
   3   1  -1    4.35    1.18   3
  -3  -1   1    0.60    0.56   2
  -2  -1   1   27.03    2.68   2
   2   1  -1   30.64    1.98   1
   2   1  -1   33.19    2.63   3
  -1  -1   1 1356.22   30.33   2
   1   1  -1 1348.25   24.66   1
   1   1  -1 1335.21   28.18   3
   0   1  -1 1356.53   24.02   1
   0  -1   1 1320.32   28.39   3
   0  -1   1 1369.30   30.16   2
  -1   1  -1 3432.09   58.04   1
   1  -1   1 3444.00   72.58   2
   1  -1   1 3394.34   68.58   3
   2  -1   1   15.41    1.05   1
   2  -1   1   18.17    2.21   3
  -2   1  -1   12.65    2.33   2
  -3   1  -1   94.58    6.58   2
  -4   1  -1  143.93    9.39   2
   4  -1   1  146.77    8.85   3
   5  -1   1    8.67    1.91   3
  -5   1  -1    8.18    1.74   2
  -5   0   1  134.44    9.56   2
   5   0  -1  119.56    8.52   3
  -4   0   1 1482.59   41.06   2
   4   0  -1 1484.58   38.55   3
   3   0  -1  586.29   18.06   3
  -3   0   1  623.10   19.79   2
   2   0  -1  858.75   21.49   3
   2   0  -1  883.07   16.16   1
  -2   0   1  869.84   23.00   2
  -1   0   1 1104.57   25.08   2
   1   0  -1 1083.65   19.28   1
   1   0  -1 1072.59   23.56   3
   0   0   1 5286.70   86.31   1
   0   0   1 4992.46  105.06   2
   1   0   1 5426.00   90.32   1
  -1   0  -1 5254.08  109.02   2
   1   0   1 5459.40  105.70   3
  -2   0  -1  291.33   10.25   2
   2   0   1  293.86   10.28   3
   2   0   1  289.54    7.47   1
   3   0   1 2015.35   36.62   1
   3   0   1 1986.63   46.72   3
  -3   0  -1 1956.40   47.47   2
  -4   0  -1  340.90   15.00   2
   4   0   1  342.75   14.66   3
   5   0   1 1505.23   43.05   3
   5  -1  -1    4.57    1.20   3
  -5   1   1    6.13    1.50   2
   4  -1  -1    2.26    1.06   3
  -4   1   1    1.68    1.02   2
   3  -1  -1   76.48    5.47   3
   2  -1  -1  824.96   21.16   3
  -2   1   1  787.87   22.26   2
  -1   1   1  787.99   19.54   2
  -1   1   1  792.33   14.38   1
   1  -1  -1  782.33   19.11   3
   0   1   1 1552.37   33.19   2
   0   1   1 1641.47   28.29   1
   0  -1  -1 1528.98   35.05   3
  -1  -1  -1  108.85    6.02   3
   1   1   1  110.00    4.16   1
  -1  -1  -1  111.52    3.68   2
  -2  -1  -1   34.37    2.45   2
   2   1   1   33.17    2.33   1
   2   1   1   31.07    2.98   3
   3   1   1   32.23    3.59   3
   3   1   1   27.38    2.24   1
  -3  -1  -1   31.42    2.94   2
   4   1   1    8.92    2.37   3
   5   1   1   26.87    4.38   3
   5  -2  -1  471.90   19.45   3
  -5   2   1  437.60   21.61   2
   4  -2  -1  136.26    8.65   3
  -4   2   1  123.51    9.17   2
  -3   2   1 2643.98   63.94   2
   3  -2  -1 2688.43   60.38   3
   2  -2  -1 1591.58   38.95   3
  -2   2   1 1743.76   41.12   2
   1  -2  -1  213.47    8.60   3
  -1   2   1  195.37    7.85   2
  -1   2   1  202.73    5.49   1
   0  -2  -1 2586.21   56.91   3
   0   2   1 2567.91   45.85   1
  -1  -2  -1 2722.20   55.90   2
   1   2   1 2692.87   49.12   1
  -1  -2  -1 2697.98   60.68   3
  -2  -2  -1 4837.91  106.44   3
  -2  -2  -1 5001.22  101.59   2
   2   2   1 5032.77   87.08   1
   3   2   1   52.96    3.68   1
   3   2   1   65.83    5.32   3
   4   2   1 1025.50   31.17   3
   5   2   1  530.22   22.12   3
   5  -3  -1   17.35    3.61   3
  -5   3   1   16.65    4.15   2
  -4   3   1   11.42    2.93   2
   4  -3  -1   16.12    3.50   3
   3  -3  -1   32.38    4.30   3
  -3   3   1   23.18    4.13   2
  -2   3   1  263.16   11.88   2
   2  -3  -1  256.00   11.22   3
  -1   3   1  739.52   20.49   2
   1  -3  -1  699.70   21.44   3
  -1   3   1  718.29   15.75   1
   0  -3  -1   46.72    3.04   2
   0   3   1   45.72    3.05   1
   0  -3  -1   44.02    4.42   3
  -1  -3  -1    2.31    0.43   2
   1   3   1    2.07    0.84   1
   2   3   1   15.26    2.34   1
  -2  -3  -1   16.49    3.66   3
   3   3   1  242.76    9.70   1
  -3  -3  -1  236.41   14.01   3
  -4  -3  -1  179.68   12.99   3
   4   3   1  185.57    8.50   1
   4  -4  -1  523.86   21.68   3
  -4   4   1  573.14   24.60   2
  -3   4   1  841.67   28.59   2
   3  -4  -1  820.03   26.96   3
   2  -4  -1  926.31   27.74   3
  -2   4   1  921.12   28.21   2
   1  -4  -1 2058.98   50.63   3
  -1   4   1 2109.04   40.02   1
   0  -4  -1   32.79    4.49   3
   0   4   1   32.91    2.83   1
  -1  -4  -1 2224.76   57.00   3
   1   4   1 2290.69   45.17   1
  -2  -4  -1  257.97   14.33   3
   2   4   1  254.35   10.51   1
  -3  -4  -1 1602.95   47.78   3
   3   4   1 1586.71   36.46   1
  -4  -4  -1  398.87   21.46   3
   4   4   1  410.30   14.91   1
  -4   5   1  190.49   13.25   2
   4  -5  -1  206.07   12.46   3
   3  -5  -1    3.51    1.44   3
  -3   5   1    5.61    1.56   2
  -2   5   1    4.10    1.39   2
   2  -5  -1    6.88    1.81   3
  -1   5   1  429.00   16.38   2
   1  -5  -1  503.02   19.05   3
  -1   5   1  489.18   13.94   1
   0   5   1   20.21    2.85   1
   0  -5  -1   18.37    3.85   3
   1   5   1  367.04   13.32   1
  -1  -5  -1  380.09   18.08   3
  -2  -5  -1  446.51   20.69   3
   2   5   1  426.05   15.62   1
   3   5   1   10.80    2.14   1
  -3  -5  -1    7.05    1.79   3
  -4  -5  -1  147.63   11.35   3
   4   5   1  125.11    7.74   1
   3  -6  -1  284.03   15.26   3
  -3   6   1  299.33   15.94   2
   2  -6  -1 1268.35   38.22   3
   1  -6  -1  173.80   10.90   3
  -1   6   1  171.11    8.01   1
   0   6   1 1478.60   34.44   1
   0  -6  -1 1491.19   44.25   3
  -1  -6  -1  448.86   21.09   3
   1   6   1  417.84   15.66   1
  -2  -6  -1  805.88   31.78   3
   2   6   1  800.56   24.42   1
  -3  -6  -1  237.10   14.88   3
   2  -7  -1    1.31    1.18   3
   1  -7  -1   52.06    5.49   3
   0   7   1    3.31    0.88   1
   0  -7  -1    1.55    1.38   3
   1   7   1  142.09    8.48   1
   0   8  -2  728.03   22.90   1
   2   7  -2   11.57    2.20   1
   1   7  -2  209.41   10.57   1
   0   7  -2   76.69    5.43   1
   1  -7   2   63.48    6.02   2
  -2   7  -2   10.65    2.61   2
   3   6  -2 1103.73   29.97   1
   2   6  -2  547.58   18.20   1
   1   6  -2 1230.17   30.39   1
   0   6  -2  528.85   16.77   1
   0  -6   2  566.52   21.81   2
   1  -6   2  790.82   28.49   2
  -1   6  -2  806.85   20.89   1
   2  -6   2 1469.30   45.69   2
  -3   6  -2  189.09   13.22   2
   4   5  -2   12.20    1.88   1
   3   5  -2    6.88    1.73   1
   2   5  -2    1.83    0.80   1
  -1  -5   2   12.64    2.58   2
   1   5  -2   19.26    2.88   1
   0   5  -2 1543.12   32.74   1
   0  -5   2 1451.98   41.10   2
   1  -5   2  153.25    7.55   3
   1  -5   2  158.14   10.22   2
  -1   5  -2  157.11    6.85   1
   2  -5   2    8.40    1.64   3
   2  -5   2   11.32    3.10   2
  -3   5  -2   68.13    7.22   2
   3  -5   2   68.99    5.82   3
   4  -5   2  270.38   14.16   3
  -4   5  -2  271.74   17.26   2
   4   4  -2 1306.13   31.11   1
  -3  -4   2  317.92   13.79   2
   3   4  -2  312.73   11.74   1
   2   4  -2 1222.78   28.18   1
  -2  -4   2 1271.34   33.75   3
  -1  -4   2 2158.85   51.56   2
   1   4  -2 2164.39   42.33   1
  -1  -4   2 2058.54   47.63   3
   0   4  -2 2976.09   54.97   1
   0  -4   2 2904.37   61.70   3
   0  -4   2 3011.59   69.54   2
   1  -4   2 4038.36   82.86   3
  -1   4  -2 3995.48   71.28   1
   1  -4   2 3988.54   91.55   2
   2  -4   2  162.74    8.33   3
   2  -4   2  223.19   12.12   2
   3  -4   2 2383.09   56.42   3
  -3   4  -2 2399.16   63.68   2
   4  -4   2  393.09   16.88   3
  -4   4  -2  403.81   20.73   2
  -4  -3   2  239.64   12.07   2
   4   3  -2  243.46   11.48   3
  -3  -3   2   79.53    5.94   2
   3   3  -2   77.43    4.71   1
  -2  -3   2  146.27    7.74   2
   2   3  -2  132.12    6.20   1
  -2  -3   2  135.46    7.11   3
   1   3  -2  545.03   13.95   1
  -1  -3   2  567.50   15.35   3
  -1  -3   2  532.03   17.14   2
   0  -3   2  209.23    9.99   2
   0   3  -2  208.95    6.95   1
   0  -3   2  205.32    6.61   3
   1  -3   2  689.75   17.62   3
   1  -3   2  695.01   22.54   2
  -1   3  -2  674.43   15.16   1
   2  -3   2  169.35    7.82   3
   2  -3   2  162.36    9.62   2
  -2   3  -2  169.78    5.45   1
   3  -3   2    8.78    1.99   3
  -3   3  -2    8.06    2.28   2
  -4   3  -2  289.35   16.14   2
   4  -3   2  301.29   13.96   3
  -5   3  -2   15.13    2.67   2
   5  -3   2   17.85    3.50   3
   5   2  -2  722.33   25.34   3
  -5  -2   2  738.73   27.47   2
   4   2  -2  386.76   15.17   3
  -4  -2   2  398.73   17.11   2
   3   2  -2 4780.11   98.26   3
  -3  -2   2 4776.83  103.87   2
   3   2  -2 4713.48   83.99   1
  -2  -2   2 3802.45   82.28   2
   2   2  -2 3818.95   76.87   3
   2   2  -2 3764.09   67.12   1
   1   2  -2  176.46    5.89   1
  -1  -2   2  180.10    6.04   3
  -1  -2   2  179.11    7.73   2
   0  -2   2 4071.25   80.88   3
   0   2  -2 4142.14   70.53   1
   0  -2   2 4095.45   87.48   2
  -1   2  -2 6238.59  103.68   1
   1  -2   2 6029.06  129.20   2
   1  -2   2 6164.50  120.67   3
  -2   2  -2 7704.02  127.44   1
   2  -2   2 7584.32  159.85   2
   2  -2   2 7552.41  151.04   3
   3  -2   2  191.94    9.45   3
  -3   2  -2  210.06   11.18   2
  -4   2  -2 1433.37   41.72   2
   4  -2   2 1402.83   38.26   3
  -5   2  -2  972.11   34.32   2
   5  -2   2  972.75   32.12   3
   5   1  -2    8.21    2.28   3
  -5  -1   2    3.42    0.90   2
  -4  -1   2  370.07   16.03   2
   4   1  -2  373.99   14.63   3
   3   1  -2  288.85    8.15   1
   3   1  -2  303.14   11.17   3
  -3  -1   2  271.89   11.98   2
   2   1  -2  348.76    8.71   1
   2   1  -2  340.50   10.43   3
  -2  -1   2  334.60   12.29   2
  -1  -1   2    1.02    1.34   2
   1   1  -2   -1.68    0.67   1
   1   1  -2    0.22    0.55   3
   0   1  -2  754.06   16.97   3
   0   1  -2  750.88   15.18   1
   0  -1   2  811.10   19.85   2
   1  -1   2  875.66   23.24   2
   1  -1   2  924.99   20.62   3
   1  -1   2  891.58   17.63   1
   2  -1   2   76.04    3.24   1
   2  -1   2   72.94    4.59   3
  -2   1  -2   77.24    5.17   2
   3  -1   2 1183.24   30.43   3
  -3   1  -2 1102.81   31.73   2
   4  -1   2    1.31    0.99   3
  -4   1  -2    0.74    0.70   2
  -5   1  -2  301.13   15.73   2
   5  -1   2  322.03   15.90   3
   5   0  -2  198.84   11.14   3
  -5   0   2  183.02   11.75   2
   4   0  -2 1328.72   34.91   3
  -4   0   2 1311.33   38.22   2
   3   0  -2 1873.42   43.63   3
   2   0  -2 5783.41  116.92   3
  -2   0   2 5931.55  122.73   2
   2   0  -2 5907.89   98.25   1
   1   0  -2 7726.49  145.49   3
  -1   0   2 7450.89  150.62   2
   1   0  -2 7187.81  123.86   1
   0   0   2 1441.58   26.57   1
   0   0  -2 1439.90   32.48   3
   0   0   2 1488.32   31.69   2
   1   0   2 5690.93  115.44   2
   1   0   2 5634.21  112.07   3
   1   0   2 5686.00   96.04   1
  -2   0  -2 2743.49   59.34   2
   2   0   2 2680.14   58.46   3
   2   0   2 2720.00   49.04   1
   3   0   2 2177.70   51.37   3
  -3   0  -2 2211.74   52.09   2
   3   0   2 2235.95   41.70   1
  -4   0  -2 1280.57   35.99   2
   4   0   2 1283.79   36.19   3
   5   0   2  512.03   21.24   3
  -5   1   2  287.13   16.11   2
   5  -1  -2  317.59   14.88   3
  -4   1   2   31.06    4.82   2
   4  -1  -2   33.13    4.38   3
   3  -1  -2  182.40    9.03   3
   2  -1  -2  174.80    4.14   1
   2  -1  -2  171.47    7.78   3
  -2   1   2  167.86    8.25   2
   1  -1  -2 1420.24   32.79   3
  -1   1   2 1420.53   32.27   2
  -1   1   2 1425.61   25.78   1
   0  -1  -2  565.14   17.43   3
   0   1   2  592.39   12.82   1
   0   1   2  595.23   13.34   2
  -1  -1  -2   85.09    2.74   2
   1   1   2   74.09    3.73   1
  -1  -1  -2   81.75    5.69   3
   2   1   2 1162.81   29.63   3
  -2  -1  -2 1228.28   27.68   2
   2   1   2 1175.85   24.94   1
   3   1   2   91.35    6.51   3
   4   1   2  337.28   15.24   3
   5   1   2    9.77    1.86   3
  -5   2   2 1273.71   41.78   2
   5  -2  -2 1288.01   38.83   3
  -4   2   2  470.49   20.56   2
   4  -2  -2  493.92   19.19   3
   3  -2  -2 1851.03   45.43   3
  -3   2   2 1854.72   47.66   2
   2  -2  -2 4933.30  103.21   3
  -2   2   2 4876.35   83.38   1
  -2   2   2 5065.57  105.94   2
   1  -2  -2  907.31   25.38   3
  -1   2   2  952.00   23.50   2
  -1   2   2  946.41   18.90   1
   0   2   2 2969.19   60.97   2
   0   2   2 2998.17   53.39   1
   0  -2  -2 2931.16   66.82   3
  -1  -2  -2 4592.74  101.24   3
   1   2   2 4790.21   82.53   1
  -2  -2  -2 2911.31   68.46   3
   2   2   2 2813.73   53.67   1
  -3  -2  -2  810.66   29.69   3
   3   2   2  793.98   20.18   1
  -4  -2  -2   98.44    9.66   3
   5  -3  -2    6.73    1.77   3
   4  -3  -2  835.31   27.84   3
  -4   3   2  795.33   29.56   2
  -3   3   2    2.66    1.37   2
   3  -3  -2    3.23    1.38   3
  -2   3   2   21.92    3.17   2
   2  -3  -2   30.85    4.25   3
  -1   3   2  152.08    5.83   1
  -1   3   2  152.48    7.07   2
   0   3   2   62.40    3.85   1
   0   3   2   60.79    2.98   2
   0  -3  -2   56.00    5.50   3
   1   3   2  446.85   13.13   1
   2   3   2   64.33    4.57   1
  -2  -3  -2   74.16    7.02   3
   3   3   2  507.60   15.94   1
  -3  -3  -2  524.41   23.78   3
   4   3   2    8.54    1.61   1
  -4  -3  -2    8.24    2.21   3
  -4   4   2  485.02   21.95   2
   4  -4  -2  497.03   21.28   3
  -3   4   2 1463.34   42.38   2
   3  -4  -2 1490.22   41.93   3
  -2   4   2 1277.84   35.28   2
   2  -4  -2 1284.29   36.35   3
   1  -4  -2 2984.41   69.49   3
  -1   4   2 2914.49   65.66   2
   0   4   2  461.22   13.69   1
   0  -4  -2  435.74   19.06   3
   1   4   2  655.23   18.49   1
  -1  -4  -2  681.90   25.77   3
  -2  -4  -2 2440.73   64.55   3
   2   4   2 2381.18   49.77   1
   3   4   2  532.83   17.68   1
  -3  -4  -2  575.09   25.86   3
  -4  -4  -2  802.77   33.77   3
   4   4   2  769.41   23.06   1
  -4   5   2   20.36    3.95   2
   4  -5  -2   17.47    3.33   3
  -3   5   2   30.04    4.79   2
   3  -5  -2   24.29    4.58   3
  -2   5   2  121.29    8.06   2
   2  -5  -2  132.06    9.33   3
  -1   5   2   80.77    5.01   1
   1  -5  -2   81.35    7.23   3
   0  -5  -2  141.87   10.44   3
   0   5   2  138.30    7.24   1
  -1  -5  -2  253.31   15.18   3
   1   5   2  233.41   10.55   1
  -2  -5  -2  141.76   10.92   3
   2   5   2  130.80    7.91   1
   3   5   2   64.81    5.08   1
  -3  -5  -2   60.03    6.58   3
   3  -6  -2  167.84   11.69   3
   2  -6  -2 1323.96   40.79   3
   1  -6  -2  589.08   24.21   3
   0   6   2  659.06   20.05   1
   0  -6  -2  685.38   27.67   3
  -1  -6  -2  884.05   34.15   3
   1   6   2  931.29   26.16   1
   2   6   2  122.95    7.93   1
  -2  -6  -2  116.19   10.12   3
   2  -7  -2  148.25   10.68   3
   1  -7  -2  192.95   12.90   3
   0  -7  -2   71.95    7.01   3
   0   7   2   70.94    5.19   1
  -1  -7  -2   34.46    5.80   3
   0   8  -3  382.95   15.51   1
   2   7  -3   61.40    5.18   1
   1   7  -3   55.38    4.83   1
   0  -7   3    5.27    1.62   2
   0   7  -3    9.04    1.49   1
   1  -7   3   64.97    6.28   2
   2  -7   3   11.37    2.24   2
   3   6  -3 1239.47   32.34   1
   2   6  -3  635.63   20.19   1
   1   6  -3  325.03   12.75   1
  -1  -6   3  334.35   16.39   2
   0  -6   3  847.16   29.88   2
   0   6  -3  854.91   23.04   1
  -1   6  -3  388.11   13.23   1
   1  -6   3  391.82   18.96   2
   2  -6   3 1118.13   38.31   2
  -3   6  -3  154.83   11.96   2
   4   5  -3  183.38    9.17   1
   3   5  -3    2.27    0.94   1
   2   5  -3   35.77    3.36   1
  -2  -5   3   34.15    3.95   2
  -1  -5   3  110.84    8.04   2
   1   5  -3  109.66    6.26   1
   0   5  -3  256.78    9.87   1
   0  -5   3  266.18   14.09   2
   1  -5   3   15.40    3.85   2
   2  -5   3  453.63   21.03   2
  -3   5  -3  108.00    9.38   2
  -4   5  -3    0.95    1.25   2
   4   4  -3  737.03   20.92   1
  -3  -4   3  275.20   13.61   2
   3   4  -3  307.82   11.38   1
   2   4  -3  903.60   22.19   1
  -2  -4   3  902.98   27.37   2
  -1  -4   3 2473.04   60.18   2
   1   4  -3 2530.41   48.51   1
   0   4  -3  489.52   13.62   1
   0  -4   3  503.16   19.41   2
   1  -4   3 1184.38   27.92   3
   1  -4   3 1194.54   35.66   2
  -1   4  -3 1161.88   25.31   1
   2  -4   3  480.73   20.74   2
   2  -4   3  489.22   15.80   3
  -3   4  -3  486.12   21.63   2
   3  -4   3  493.48   17.49   3
   4  -4   3  544.93   20.67   3
  -4   4  -3  520.20   24.21   2
  -4  -3   3  162.90   10.10   2
   3   3  -3  325.59   11.15   1
  -3  -3   3  328.16   14.54   2
  -2  -3   3  286.22   10.34   3
   2   3  -3  279.62    9.50   1
  -1  -3   3   88.93    3.40   3
   1   3  -3   91.89    4.66   1
   0   3  -3    4.29    1.10   1
   0  -3   3    4.11    1.79   2
   1  -3   3   28.57    2.26   3
   1  -3   3   33.28    4.79   2
  -1   3  -3   32.57    2.44   1
  -2   3  -3   38.64    2.54   1
   2  -3   3   44.09    4.99   2
   2  -3   3   40.41    3.36   3
  -3   3  -3  787.45   27.52   2
   3  -3   3  748.63   23.05   3
  -4   3  -3   30.55    5.11   2
   4  -3   3   26.54    3.99   3
  -5   3  -3    6.66    1.65   2
   5  -3   3    4.13    1.70   3
  -5  -2   3  587.44   24.29   2
   4   2  -3  465.59   16.42   3
  -4  -2   3  442.69   18.92   2
   3   2  -3 1068.70   27.03   3
  -3  -2   3 1059.90   31.20   2
   2   2  -3 2468.84   51.25   3
   2   2  -3 2463.33   45.69   1
  -2  -2   3 2480.49   57.55   2
  -1  -2   3    9.77    2.40   2
   1   2  -3    8.78    1.67   1
   1   2  -3   10.61    0.75   3
   0  -2   3 1071.90   28.59   2
   0   2  -3 1077.10   21.80   1
   1  -2   3 2813.13   65.49   2
  -1   2  -3 2848.09   50.56   1
   1  -2   3 2828.69   57.63   3
   2  -2   3 1698.71   43.34   2
  -2   2  -3 1687.38   31.85   1
   2  -2   3 1674.06   38.54   3
  -3   2  -3  553.52   20.23   2
   3  -2   3  505.43   17.51   3
  -4   2  -3   11.58    2.72   2
   4  -2   3    8.83    1.84   3
  -5   2  -3 1056.03   36.32   2
   5  -2   3 1072.16   34.47   3
  -5  -1   3  396.28   18.94   2
   5   1  -3  361.41   15.97   3
  -4  -1   3  402.69   17.32   2
   4   1  -3  379.38   14.75   3
   3   1  -3   10.80    1.42   1
  -3  -1   3   10.72    2.58   2
   3   1  -3    9.93    1.80   3
   2   1  -3    1.15    0.56   3
  -2  -1   3    4.47    1.61   2
   2   1  -3    0.61    0.49   1
   1   1  -3 1008.69   20.35   1
  -1  -1   3 1027.29   26.02   2
   1   1  -3 1041.58   22.03   3
   0  -1   3  201.41    8.34   2
   1  -1   3   73.24    3.54   1
   1  -1   3   65.10    3.67   3
   1  -1   3   67.01    4.79   2
   2  -1   3  224.51    9.96   2
   2  -1   3  219.64    9.14   3
   2  -1   3  226.17    7.34   1
   3  -1   3   55.64    4.80   3
   3  -1   3   50.92    3.12   1
  -3   1  -3   58.92    4.91   2
  -4   1  -3    3.38    1.30   2
   4  -1   3    9.18    2.11   3
   5  -1   3   45.54    5.02   3
   5   0  -3  685.23   24.04   3
  -5   0   3  679.62   26.80   2
   4   0  -3   42.45    4.25   3
  -4   0   3   38.44    4.51   2
   3   0  -3  896.84   25.96   3
  -3   0   3 1087.03   29.27   2
  -2   0   3 1754.07   42.55   2
   2   0  -3 1781.39   39.73   3
   2   0  -3 1822.05   32.45   1
  -1   0   3 6271.67  128.95   2
   1   0  -3 6202.22  124.29   3
  -1   0   3 6379.23  106.34   1
   0   0   3  113.91    4.51   1
   0   0   3  117.81    5.07   2
   0   0  -3  114.33    6.06   3
   1   0   3   92.09    4.56   2
   1   0   3   87.03    4.17   1
  -1   0  -3   99.03    6.02   3
   2   0   3 3636.46   66.37   1
   2   0   3 3697.39   78.70   3
  -2   0  -3 3856.18   79.57   2
   3   0   3  907.54   26.84   3
   3   0   3  933.36   21.32   1
   4   0   3  754.96   25.82   3
   5   0   3   19.79    3.75   3
  -5   1   3  114.53    9.23   2
   5  -1  -3   97.59    7.66   3
   4  -1  -3  479.53   18.07   3
  -4   1   3  464.50   19.82   2
  -3   1   3    0.13    0.70   2
   3  -1  -3    1.86    1.00   3
  -2   1   3   66.30    4.97   2
   2  -1  -3   69.73    4.91   3
   1  -1  -3   11.57    2.23   3
  -1   1   3   12.33    1.65   2
   0   1   3   18.33    1.98   1
   0  -1  -3   19.78    3.47   3
   0   1   3   19.74    1.61   2
  -1  -1  -3  384.41   15.38   3
   1   1   3  402.07   11.01   1
   2   1   3   15.13    2.05   1
  -2  -1  -3   13.23    3.18   3
  -3  -1  -3    1.82    1.12   3
   3   1   3    2.44    0.76   1
   4   1   3    2.23    1.16   3
  -5   2   3  222.90   14.21   2
   5  -2  -3  208.71   12.42   3
   4  -2  -3 1050.11   32.11   3
  -4   2   3 1047.91   33.88   2
  -3   2   3   13.96    3.04   2
   3  -2  -3    6.15    2.18   3
  -2   2   3 2474.50   55.94   2
  -2   2   3 2398.51   42.95   1
   2  -2  -3 2356.06   55.74   3
  -1   2   3 1242.44   25.18   1
  -1   2   3 1252.54   29.72   2
   0   2   3 1673.13   33.07   1
   0  -2  -3 1701.18   44.15   3
   0   2   3 1655.12   35.26   2
   1   2   3 1232.12   26.80   1
  -1  -2  -3 1237.96   36.25   3
   2   2   3  384.11   12.23   1
  -2  -2  -3  376.09   17.69   3
   3   2   3 1300.79   29.80   1
  -3  -2  -3 1317.40   42.30   3
  -4  -2  -3  190.07   14.38   3
   5  -3  -3    7.25    2.10   3
  -5   3   3   10.83    2.41   2
   4  -3  -3   81.20    7.23   3
  -4   3   3   83.04    7.45   2
   3  -3  -3    6.54    1.96   3
  -3   3   3    4.83    1.57   2
  -1   3   3  142.93    6.74   2
   1  -3  -3  140.76    9.24   3
   0  -3  -3   39.75    5.60   3
   1   3   3   72.90    4.78   1
  -1  -3  -3   61.58    6.58   3
  -2  -3  -3   64.15    7.04   3
   2   3   3   68.32    4.83   1
   3   3   3    9.73    2.20   1
   4   3   3  193.67    9.13   1
  -4  -3  -3  200.28   15.16   3
  -4   4   3  133.95   10.14   2
   4  -4  -3  112.00    9.14   3
  -3   4   3  796.93   27.31   2
   3  -4  -3  754.52   27.71   3
   2  -4  -3  358.90   17.00   3
  -2   4   3  386.20   15.02   2
   1  -4  -3 1483.07   42.70   3
  -1   4   3 1505.84   32.21   1
   0  -4  -3  831.09   30.34   3
   0   4   3  870.54   21.67   1
   1   4   3  170.34    8.40   1
  -1  -4  -3  186.07   12.57   3
  -2  -4  -3 1739.52   53.46   3
   2   4   3 1836.58   40.25   1
   3   4   3  588.89   19.17   1
  -3  -4  -3  555.25   27.14   3
   4   4   3  260.62   11.68   1
  -4   5   3   72.16    6.99   2
  -3   5   3   24.49    3.94   2
   3  -5  -3   22.70    4.33   3
   2  -5  -3  235.84   13.96   3
   1  -5  -3  223.97   13.55   3
  -1   5   3  203.11    8.94   1
   0   5   3   92.13    5.85   1
   0  -5  -3   95.73    9.00   3
   1   5   3   14.50    2.71   1
  -1  -5  -3   20.35    4.95   3
   2   5   3    3.05    1.09   1
  -2  -5  -3    3.46    1.50   3
  -3  -5  -3  100.11    9.50   3
   3   5   3   94.32    6.63   1
   2  -6  -3  394.53   19.65   3
   1  -6  -3 1019.33   36.29   3
   0  -6  -3  291.94   17.47   3
   0   6   3  297.16   12.33   1
   1   6   3  817.01   24.67   1
  -1  -6  -3  804.42   33.38   3
  -2  -6  -3  139.09   11.68   3
   0   7   3   96.90    6.31   1
   2   7  -4   39.46    4.90   1
   1   7  -4   10.51    1.97   1
  -1  -7   4   12.17    3.01   2
   0   7  -4   39.43    3.71   1
   0  -7   4   50.79    5.49   2
   1  -7   4  123.11    9.99   2
   2  -7   4  142.84   11.60   2
   3   6  -4  401.56   15.72   1
   2   6  -4 1139.77   30.21   1
  -2  -6   4 1189.07   37.29   2
   1   6  -4   79.05    5.51   1
  -1  -6   4   69.70    6.84   2
   0  -6   4 1634.31   48.94   2
   0   6  -4 1781.88   38.47   1
  -1   6  -4  923.53   23.98   1
   1  -6   4  912.59   34.21   2
   2  -6   4  975.84   36.79   2
  -3   6  -4  670.25   28.91   2
   4   5  -4  187.07    9.42   1
   3   5  -4   33.82    3.14   1
  -3  -5   4   35.17    4.05   2
  -2  -5   4  104.59    8.07   2
   2   5  -4  104.54    6.28   1
   1   5  -4   16.58    2.75   1
  -1  -5   4   13.80    3.17   2
   0   5  -4   10.30    2.06   1
   0  -5   4    9.36    2.77   2
   1  -5   4  522.48   22.73   2
  -1   5  -4  529.25   15.39   1
   2  -5   4    3.55    1.75   2
  -3   5  -4  194.82   13.28   2
   4   4  -4   66.78    4.55   1
  -4  -4   4   61.83    5.93   2
  -3  -4   4 1667.58   46.69   2
   3   4  -4 1694.53   37.16   1
   2   4  -4  762.36   20.13   1
  -2  -4   4  785.88   25.84   2
  -1  -4   4 4653.77  105.70   2
   1   4  -4 4789.45   85.25   1
   0   4  -4  577.30   15.67   1
   0  -4   4  586.71   22.22   2
   1  -4   4 1060.16   33.89   2
  -1   4  -4 1017.16   23.48   1
   2  -4   4 2440.89   63.47   2
  -2   4  -4 2273.96   45.26   1
  -3   4  -4  849.77   30.93   2
  -4   4  -4 1164.04   40.49   2
   4  -4   4 1151.53   34.49   3
  -5  -3   4  110.48    8.75   2
  -4  -3   4   88.65    7.46   2
   3   3  -4   83.91    4.97   1
  -3  -3   4   87.90    7.31   2
  -2  -3   4  935.67   28.63   2
   2   3  -4  940.76   21.82   1
   1   3  -4   62.54    3.88   1
  -1  -3   4   52.01    4.98   2
   0   3  -4  478.39   13.13   1
   0  -3   4  483.61   18.24   2
  -1   3  -4  143.32    6.07   1
   1  -3   4  144.36    5.53   3
   2  -3   4  588.05   22.74   2
   2  -3   4  606.26   17.54   3
  -2   3  -4  598.53   15.13   1
  -3   3  -4    5.08    2.08   2
   3  -3   4    5.40    1.52   3
   4  -3   4   13.82    2.81   3
  -4   3  -4   13.68    2.75   2
  -5  -2   4  296.12   16.49   2
  -4  -2   4 2567.67   66.19   2
   3   2  -4  242.14    8.56   1
  -3  -2   4  262.24   12.98   2
   2   2  -4 3276.40   59.85   1
  -2  -2   4 3341.08   75.66   2
   1   2  -4 1970.65   37.22   1
  -1  -2   4 1892.70   46.57   2
   0   2  -4 4384.80   74.88   1
   0  -2   4 4333.26   93.35   2
   0   2  -4 4056.25   84.74   3
  -1   2  -4 3398.95   60.58   1
   1  -2   4 3449.73   68.69   3
   1  -2   4 3252.18   76.98   2
   2  -2   4 1248.02   30.33   3
  -2   2  -4 1211.34   25.99   1
   2  -2   4 1232.93   34.87   2
   3  -2   4 2250.53   53.07   3
  -3   2  -4 2256.29   57.16   2
  -4   2  -4  420.04   19.24   2
   4  -2   4  488.15   18.71   3
  -5  -1   4   72.28    7.18   2
  -4  -1   4   33.68    5.39   2
   4   1  -4   36.71    3.68   3
   3   1  -4  634.53   19.05   3
   3   1  -4  681.04   15.57   1
  -3  -1   4  638.68   22.70   2
  -2  -1   4   69.96    5.70   2
   2   1  -4   75.20    3.82   1
   2   1  -4   92.64    4.50   3
  -1  -1   4 1233.56   31.23   2
   1   1  -4 1187.55   26.50   3
   1   1  -4 1242.33   24.65   1
   0  -1   4   73.08    5.04   2
   0   1  -4   83.97    4.67   3
   0  -1   4   79.38    4.17   1
   1  -1   4  974.46   26.84   2
   1  -1   4  964.49   21.06   1
  -1   1  -4  952.05   26.01   3
   2  -1   4  229.01    9.58   3
   2  -1   4  236.81    8.22   1
   2  -1   4  226.86   10.23   2
   3  -1   4   88.53    4.73   1
   3  -1   4   91.04    6.52   3
  -3   1  -4   95.23    6.43   2
   4  -1   4  147.05    9.60   3
   5   0  -4 1996.40   51.31   3
  -5   0   4 2024.83   56.91   2
  -4   0   4  409.27   17.94   2
   4   0  -4  429.88   16.24   3
  -3   0   4 1730.17   44.72   2
   3   0  -4 1720.87   41.06   3
  -2   0   4 2895.88   64.73   2
   2   0  -4 2830.64   60.41   3
   2   0  -4 2736.87   50.12   1
  -1   0   4 5169.27   89.37   1
   1   0  -4 5251.61  104.89   3
  -1   0   4 5073.46  107.81   2
   0   0  -4 2434.98   55.61   3
   0   0   4 2415.42   53.27   2
   0   0   4 2431.85   45.21   1
  -1   0  -4  283.53   12.38   3
   1   0   4  239.20    8.57   1
   1   0   4  233.66    9.18   2
  -2   0  -4 4697.53  103.19   3
  -2   0  -4 4846.17   98.48   2
   2   0   4 4481.53   83.73   1
   3   0   4 1905.34   46.84   3
   3   0   4 1836.82   38.80   1
   4   0   4  672.28   24.30   3
   5  -1  -4   12.82    2.65   3
  -5   1   4   15.06    3.63   2
  -4   1   4  232.95   12.91   2
   4  -1  -4  236.62   12.09   3
   3  -1  -4   23.31    3.43   3
  -3   1   4   16.67    3.06   2
  -2   1   4 2331.94   42.49   1
   2  -1  -4 2234.75   53.01   3
  -2   1   4 2380.47   54.10   2
   1  -1  -4   74.89    5.74   3
  -1   1   4   76.67    4.66   2
  -1   1   4   90.94    4.32   1
   0   1   4  268.02    8.65   2
   0   1   4  268.86    8.83   1
   0  -1  -4  281.19   13.02   3
  -1  -1  -4   42.68    4.81   3
   1   1   4   29.02    2.82   1
   2   1   4   57.02    4.14   1
  -2  -1  -4   41.16    5.92   3
   3   1   4  232.26    9.46   1
  -3  -1  -4  221.29   14.22   3
  -4  -1  -4    8.84    2.56   3
   5  -2  -4  399.57   18.74   3
  -5   2   4  398.96   20.09   2
   4  -2  -4 1563.65   43.24   3
  -4   2   4 1561.26   45.49   2
   3  -2  -4 1072.32   31.31   3
  -3   2   4 1005.73   31.12   2
   2  -2  -4  487.58   18.16   3
  -2   2   4  474.81   16.59   2
  -2   2   4  493.21   12.29   1
  -1   2   4 4949.85   87.96   1
  -1   2   4 5122.88  104.37   2
   0   2   4 1297.22   27.67   1
   0  -2  -4 1230.46   37.20   3
   1   2   4 1828.21   37.39   1
  -2  -2  -4  102.98    8.87   3
   2   2   4  107.17    6.01   1
   3   2   4 1351.54   31.75   1
  -3  -2  -4 1363.43   45.38   3
  -4  -2  -4 1203.07   45.94   3
  -4   3   4   16.92    3.60   2
   4  -3  -4   14.34    3.10   3
  -3   3   4  398.54   17.00   2
   3  -3  -4  418.43   18.47   3
   2  -3  -4  214.19   12.47   3
  -2   3   4  222.39   10.36   2
  -1   3   4  349.40   11.38   1
   1  -3  -4  375.45   17.56   3
   0  -3  -4  369.20   18.25   3
   0   3   4  369.99   12.25   1
  -1  -3  -4    7.62    2.39   3
   1   3   4    7.37    1.72   1
   2   3   4   55.67    4.47   1
  -2  -3  -4   51.39    7.53   3
  -3  -3  -4   57.19    8.55   3
   3   3   4   50.00    4.04   1
   4   3   4  164.84    8.68   1
  -4   4   4 1308.54   42.10   2
   4  -4  -4 1380.94   43.34   3
  -3   4   4  159.81    9.95   2
   3  -4  -4  161.26   11.45   3
   2  -4  -4 1675.06   48.63   3
  -1   4   4  256.91    9.96   1
   1  -4  -4  261.53   15.11   3
   0  -4  -4 2542.19   68.82   3
   0   4   4 2590.11   51.90   1
   1   4   4  359.48   13.46   1
  -1  -4  -4  332.64   18.92   3
  -2  -4  -4  830.03   34.07   3
   2   4   4  842.55   24.03   1
  -3  -4  -4  572.83   28.50   3
   3   4   4  585.73   19.60   1
   3  -5  -4   69.42    7.44   3
   2  -5  -4   74.85    7.58   3
   1  -5  -4   26.58    5.31   3
  -1   5   4   26.32    3.40   1
   0   5   4   49.35    4.22   1
   0  -5  -4   58.78    8.27   3
   1   5   4  636.44   20.72   1
  -1  -5  -4  618.75   28.53   3
  -2  -5  -4   22.12    5.59   3
   2   5   4   17.58    3.12   1
   2  -6  -4   48.75    7.38   3
   1  -6  -4  956.21   36.42   3
   0  -6  -4  325.25   19.40   3
   0   6   4  301.45   13.13   1
   1   6   4  477.35   18.34   1
  -1  -6  -4  487.09   25.54   3
  -1  -7   5  302.34   17.11   2
   1   7  -5  265.66   12.53   1
   0  -7   5  152.14   11.54   2
   0   7  -5  139.03    8.08   1
   1  -7   5    1.72    1.58   2
  -1   7  -5   -0.08    0.90   1
   3   6  -5  282.05   12.36   1
  -3  -6   5  259.24   15.07   2
  -2  -6   5  467.73   21.36   2
   2   6  -5  470.42   16.61   1
   1   6  -5  288.78   12.23   1
  -1  -6   5  313.74   16.94   2
   0   6  -5  553.16   17.71   1
   0  -6   5  548.40   24.58   2
  -1   6  -5 1507.64   35.02   1
   1  -6   5 1528.14   49.31   2
   2  -6   5   96.18    9.27   2
  -4  -5   5   69.45    6.32   2
   4   5  -5   63.14    4.65   1
   3   5  -5  243.07   10.86   1
  -3  -5   5  274.20   14.82   2
   2   5  -5   68.69    5.01   1
  -2  -5   5   60.49    6.10   2
  -1  -5   5  238.08   13.82   2
   1   5  -5  264.44   10.59   1
   0   5  -5  630.44   18.37   1
   0  -5   5  653.51   26.14   2
  -1   5  -5   31.06    2.91   1
   1  -5   5   27.73    5.16   2
   2  -5   5   90.04    8.77   2
   3  -5   5    1.90    1.99   2
  -4  -4   5  120.71    9.40   2
   3   4  -5  556.71   17.29   1
  -3  -4   5  611.61   23.95   2
   2   4  -5 1566.59   34.31   1
  -2  -4   5 1560.23   43.98   2
   1   4  -5  460.12   14.29   1
  -1  -4   5  475.92   19.64   2
   0  -4   5 1084.38   34.89   2
   0   4  -5 1116.36   25.70   1
   1  -4   5    9.28    3.04   2
  -1   4  -5   10.02    1.73   1
   2  -4   5 1845.59   53.66   2
  -2   4  -5 1836.19   38.16   1
   3  -4   5  319.91   18.02   2
  -4   4  -5  305.81   17.51   2
  -5  -3   5   52.60    5.70   2
  -4  -3   5    5.40    1.62   2
   3   3  -5  375.83   12.54   1
  -3  -3   5  393.84   17.98   2
   2   3  -5  846.66   20.68   1
  -2  -3   5  823.93   27.42   2
  -1  -3   5  126.17    8.38   2
   1   3  -5  119.42    5.97   1
   0   3  -5   67.82    4.39   1
   0  -3   5   77.74    6.69   2
  -1   3  -5   27.88    2.58   1
   1  -3   5   33.37    5.16   2
  -2   3  -5   40.01    3.06   1
   2  -3   5   46.36    5.36   2
  -4   3  -5  145.21   10.18   2
   4  -3   5  145.01    9.07   3
  -5  -2   5  328.03   18.14   2
  -4  -2   5  645.27   25.41   2
  -3  -2   5  788.32   27.06   2
   3   2  -5  788.22   19.34   1
  -2  -2   5   25.16    4.18   2
   2   2  -5   13.42    1.96   1
   1   2  -5 3840.73   69.16   1
  -1  -2   5 3826.67   85.63   2
   0   2  -5  650.08   16.51   1
   0  -2   5  690.57   22.26   2
  -1   2  -5 1430.50   35.20   3
  -1   2  -5 1456.85   29.98   1
   2  -2   5   10.18    2.56   2
   2  -2   5   13.12    2.17   3
   3  -2   5  837.70   25.32   3
  -3   2  -5  811.23   27.14   2
   4  -2   5  782.28   26.78   3
  -5  -1   5  375.92   19.63   2
  -4  -1   5   95.88    8.15   2
   3   1  -5    3.85    0.72   1
  -3  -1   5    5.55    2.10   2
  -2  -1   5  230.62   11.28   2
   2   1  -5  243.64    8.60   3
   1   1  -5   27.97    2.42   1
   1   1  -5   26.78    2.12   3
   0  -1   5   14.78    2.04   1
   0  -1   5   26.55    3.07   2
   0   1  -5   24.32    2.56   3
  -1   1  -5  554.19   19.18   3
   1  -1   5  562.76   15.31   1
   1  -1   5  607.52   20.10   2
  -2   1  -5  259.97   13.13   3
   2  -1   5  255.61    9.46   1
   2  -1   5  265.84   11.72   2
   3  -1   5  138.19    8.45   3
   3  -1   5  144.21    6.92   1
   4  -1   5   13.25    2.36   3
  -5   0   5  279.92   16.66   2
   4   0  -5 1497.81   39.25   3
  -4   0   5 1478.82   44.20   2
  -3   0   5   80.63    6.78   2
   3   0  -5   70.10    5.24   3
  -2   0   5 1856.92   45.21   2
   2   0  -5 1793.87   34.94   1
   2   0  -5 1786.09   41.82   3
   1   0  -5   29.41    2.96   3
  -1   0   5   31.54    3.15   2
   0   0   5 2459.90   49.19   1
   0   0   5 2707.17   58.22   2
   0   0  -5 2610.53   60.92   3
   1   0   5  305.34   10.68   1
  -1   0  -5  282.71   14.06   3
   1   0   5  382.42   12.44   2
   2   0   5  880.43   22.00   1
  -2   0  -5  847.28   29.19   3
   3   0   5 1010.16   25.06   1
  -3   0  -5  955.68   34.84   3
  -4   0  -5  132.61   11.43   3
   5  -1  -5  173.41   10.60   3
  -5   1   5  144.43   10.80   2
  -4   1   5   20.28    3.83   2
   4  -1  -5   24.78    3.81   3
   3  -1  -5   18.58    3.26   3
  -3   1   5   13.63    3.15   2
   2  -1  -5    9.00    2.22   3
  -2   1   5   10.84    2.23   2
  -1   1   5   13.17    1.96   1
   1  -1  -5   15.71    2.95   3
   0   1   5  833.60   21.38   2
   0  -1  -5  819.04   27.90   3
   0   1   5  826.54   20.34   1
   1   1   5  452.06   13.99   1
   2   1   5  186.23    8.47   1
  -2  -1  -5  184.89   12.15   3
   3   1   5  106.69    6.50   1
  -3  -1  -5  116.62   10.23   3
  -4  -1  -5    0.17    1.60   3
   5  -2  -5  391.85   19.03   3
   4  -2  -5  238.51   13.06   3
  -4   2   5  209.78   12.60   2
   3  -2  -5 1977.82   50.77   3
  -3   2   5 1891.49   50.02   2
   2  -2  -5    6.85    2.04   3
  -2   2   5    6.91    1.26   1
  -2   2   5    7.27    1.56   2
  -1   2   5 1767.68   36.11   1
   1  -2  -5 1690.69   47.72   3
   0  -2  -5 1425.22   42.91   3
   0   2   5 1449.67   31.37   1
  -1  -2  -5  463.10   21.30   3
   1   2   5  415.29   14.14   1
  -2  -2  -5  374.30   20.01   3
   2   2   5  376.45   13.76   1
  -3  -2  -5  241.75   16.18   3
   3   2   5  239.98   10.70   1
   4  -3  -5    1.95    1.36   3
  -4   3   5   -0.03    1.04   2
  -3   3   5  148.42    9.36   2
   3  -3  -5  154.43   10.70   3
   2  -3  -5  225.59   13.66   3
  -1   3   5  106.80    5.91   1
   1  -3  -5  127.47   10.10   3
   0  -3  -5  462.20   22.10   3
   0   3   5  463.50   15.16   1
   1   3   5  244.58   10.53   1
  -1  -3  -5  245.57   15.78   3
   2   3   5   94.88    6.29   1
  -2  -3  -5  105.53   10.00   3
   3   3   5    4.34    1.17   1
  -3  -3  -5    5.63    1.88   3
  -4   4   5  871.54   31.65   2
   3  -4  -5  242.70   15.13   3
   2  -4  -5  593.31   25.74   3
  -1   4   5  443.39   15.10   1
   1  -4  -5  454.93   21.95   3
   0   4   5  477.26   15.95   1
   0  -4  -5  486.80   24.07   3
   1   4   5 1782.63   40.76   1
  -1  -4  -5 1795.92   56.32   3
   2   4   5   56.50    4.55   1
  -2  -4  -5   58.23    8.74   3
   2  -5  -5   79.32    8.01   3
   1  -5  -5   44.56    7.03   3
   0   5   5  136.87    7.70   1
   0  -5  -5  134.46   11.51   3
   1   5   5  301.22   13.47   1
  -1  -5  -5  343.31   20.59   3
   0   6   5  918.14   26.87   1
  -1  -7   6   21.28    3.52   2
   0  -7   6   13.94    3.76   2
  -1   7  -6  138.33    7.85   1
  -3  -6   6  799.45   31.86   2
  -2  -6   6   53.29    6.16   2
   2   6  -6   65.71    5.05   1
  -1  -6   6 1442.77   47.07   2
   1   6  -6 1505.34   36.08   1
   0  -6   6  420.12   21.62   2
   0   6  -6  397.28   14.76   1
   1  -6   6 1604.81   51.54   2
  -1   6  -6 1562.68   36.91   1
   2  -6   6  335.18   20.03   2
   4   5  -6    1.87    1.21   1
  -3  -5   6    7.46    2.19   2
  -2  -5   6   64.76    6.57   2
   2   5  -6   67.27    4.98   1
  -1  -5   6   56.82    6.29   2
   1   5  -6   55.65    4.47   1
   0  -5   6  172.74   12.42   2
   0   5  -6  174.27    8.49   1
  -1   5  -6  145.01    7.51   1
   1  -5   6  148.02   11.63   2
   2  -5   6 1094.39   40.00   2
   3  -5   6    9.00    1.71   2
  -4  -4   6  952.17   35.46   2
   3   4  -6  403.41   14.09   1
  -3  -4   6  401.58   19.61   2
   2   4  -6 2642.50   53.03   1
  -2  -4   6 2592.49   67.31   2
   1   4  -6  379.59   13.10   1
  -1  -4   6  395.24   18.31   2
   0   4  -6 1460.42   32.67   1
   0  -4   6 1424.74   43.51   2
   1  -4   6 1264.46   40.27   2
  -1   4  -6 1219.22   29.01   1
   2  -4   6 1103.83   38.44   2
  -2   4  -6 1087.64   26.57   1
   3  -4   6 1457.69   47.48   2
  -4  -3   6   59.11    6.42   2
   3   3  -6   62.06    4.42   1
  -3  -3   6   66.66    6.65   2
  -2  -3   6   11.16    2.97   2
   2   3  -6    9.92    1.94   1
   1   3  -6 1199.38   27.35   1
  -1  -3   6 1150.27   34.82   2
   0   3  -6   93.98    5.52   1
   0  -3   6   88.14    7.46   2
   1  -3   6  495.15   21.06   2
  -1   3  -6  461.93   14.31   1
   2  -3   6   20.70    4.31   2
  -2   3  -6   32.72    2.92   1
   3  -3   6  550.09   23.71   2
  -4  -2   6  509.50   22.73   2
   3   2  -6 1879.52   38.40   1
  -3  -2   6 1836.80   51.38   2
   2   2  -6  452.59   13.51   1
  -2  -2   6  433.98   18.20   2
   1   2  -6 2595.78   49.07   1
  -1  -2   6 2447.61   60.63   2
   0   2  -6 4085.03   74.12   1
   0  -2   6 3965.39   91.44   2
  -1   2  -6  593.94   17.09   1
   1  -2   6  624.45   23.15   2
   2  -2   6 1333.05   38.99   2
   4  -2   6 2251.50   57.63   3
  -4  -1   6  178.46   12.14   2
  -3  -1   6  130.65    9.26   2
  -2  -1   6  383.70   16.14   2
   2   1  -6  389.86   11.82   1
   1   1  -6   48.01    3.49   1
  -1  -1   6   55.50    4.96   2
   0  -1   6 1396.64   37.51   2
   0  -1   6 1411.94   30.76   1
   1  -1   6   70.84    4.78   1
  -1   1  -6   68.62    5.79   3
   2  -1   6  164.78    7.93   1
  -2   1  -6  181.70   11.05   3
  -3   1  -6  128.19   10.01   3
   3  -1   6  136.45    7.12   1
  -4   1  -6   -0.68    1.69   3
  -4   0   6 1571.52   46.68   2
  -3   0   6 1342.31   38.79   2
  -2   0   6 1049.41   29.61   2
   2   0  -6  985.26   22.45   1
   2   0  -6  992.94   27.22   3
  -1   0   6 1128.09   30.32   2
  -1   0   6 1104.13   25.42   1
   0   0   6  978.26   23.43   1
   0   0   6  954.29   26.88   2
   0   0  -6  967.55   30.31   3
   1   0   6 5335.27   96.98   1
  -2   0  -6  210.66   12.83   3
   2   0   6  205.77    9.44   1
   3   0   6 1068.45   27.69   1
  -3   0  -6 1053.18   38.15   3
  -4   0  -6  203.65   15.13   3
  -4   1   6   36.36    5.67   2
   4  -1  -6   35.07    3.74   3
   3  -1  -6  728.73   24.00   3
  -3   1   6  726.57   25.51   2
  -2   1   6   46.73    4.39   2
   2  -1  -6   55.78    5.07   3
  -2   1   6   47.31    3.47   1
  -1   1   6  156.95    7.92   2
  -1   1   6  160.02    7.36   1
   1  -1  -6  177.33   10.57   3
   0  -1  -6    9.25    2.61   3
   0   1   6    8.58    1.96   1
   1   1   6  219.17    9.73   1
  -1  -1  -6  207.74   13.24   3
   2   1   6  170.76    8.86   1
  -2  -1  -6  179.94   12.59   3
  -3  -1  -6   23.58    5.06   3
   3   1   6   18.71    2.66   1
   4  -2  -6  597.66   23.52   3
  -4   2   6  599.79   23.97   2
   3  -2  -6 1434.86   41.63   3
  -3   2   6 1455.25   41.14   2
   2  -2  -6 1623.85   45.92   3
  -2   2   6 1624.87   41.85   2
  -1   2   6  159.96    7.70   1
   1  -2  -6  182.72   12.29   3
   0  -2  -6 2477.24   67.36   3
   0   2   6 2605.02   51.99   1
  -1  -2  -6  259.38   15.90   3
   1   2   6  251.73   10.78   1
  -2  -2  -6 1249.25   43.12   3
   2   2   6 1215.90   30.51   1
  -3  -2  -6  271.94   18.17   3
   3   2   6  255.72   11.67   1
  -4   3   6   58.77    5.58   2
   4  -3  -6   63.05    6.37   3
   3  -3  -6   57.16    5.89   3
   2  -3  -6  393.57   19.78   3
   1  -3  -6  129.27   10.51   3
  -1   3   6  123.43    6.92   1
   0   3   6    9.88    2.10   1
   0  -3  -6    7.31    2.48   3
  -1  -3  -6   71.47    9.30   3
   1   3   6   45.21    4.22   1
  -2  -3  -6   18.89    5.13   3
   2   3   6   12.76    2.27   1
   3  -4  -6 1019.25   37.72   3
   2  -4  -6  374.48   20.56   3
  -1   4   6 1048.40   27.06   1
   1  -4  -6 1013.16   37.90   3
   0   4   6  135.59    7.92   1
   0  -4  -6  142.36   12.09   3
  -1  -4  -6 1444.95   49.83   3
   1   4   6 1394.42   36.09   1
   1  -5  -6    2.00    1.55   3
   0   5   6  183.83    9.93   1
   2   6  -7  196.24   10.18   1
  -2  -6   7  196.59   13.92   2
   1   6  -7  617.31   20.32   1
  -1  -6   7  633.01   28.29   2
   0   6  -7  834.53   24.37   1
   0  -6   7  820.28   33.66   2
  -1   6  -7   39.35    3.29   1
   1  -6   7   45.40    6.97   2
   3   5  -7  158.69    8.55   1
  -3  -5   7  158.51   12.24   2
   2   5  -7   12.37    1.93   1
  -2  -5   7   14.02    3.16   2
  -1  -5   7   14.86    3.76   2
   1   5  -7   12.79    2.18   1
   0  -5   7  118.16   10.08   2
   0   5  -7  126.64    7.32   1
   1  -5   7   97.68    9.21   2
  -1   5  -7   95.23    5.96   1
   2  -5   7   14.33    2.58   2
  -3  -4   7  449.55   22.01   2
   3   4  -7  473.35   15.97   1
   2   4  -7  435.96   15.02   1
  -2  -4   7  458.36   21.07   2
   1   4  -7  425.25   14.52   1
  -1  -4   7  403.11   19.39   2
   0   4  -7   51.93    4.31   1
   0  -4   7   54.83    6.13   2
  -1   4  -7 1711.52   38.57   1
   1  -4   7 1698.31   51.09   2
  -2   4  -7   82.77    5.47   1
   2  -4   7   78.97    7.90   2
   3  -4   7  430.75   21.95   2
  -4  -3   7    8.02    2.43   2
  -3  -3   7  132.93   10.35   2
   3   3  -7  141.21    7.32   1
  -2  -3   7  295.56   15.62   2
   2   3  -7  305.25   11.34   1
  -1  -3   7    4.15    1.67   2
   1   3  -7    6.56    1.51   1
   0   3  -7    7.28    1.59   1
   0  -3   7    5.22    2.08   2
   1  -3   7   95.37    8.21   2
  -1   3  -7   92.92    5.86   1
  -2   3  -7    2.90    0.87   1
   2  -3   7   -0.35    1.04   2
  -4  -2   7  182.95   12.82   2
  -3  -2   7  468.08   21.08   2
   3   2  -7  491.77   15.00   1
   2   2  -7  818.89   21.37   1
  -2  -2   7  821.14   28.36   2
  -1  -2   7  180.98   10.74   2
   1   2  -7  191.04    8.37   1
   0   2  -7 1364.79   31.47   1
   0  -2   7 1360.89   39.18   2
   1  -2   7   57.33    5.73   2
  -1   2  -7   58.47    4.70   1
  -4  -1   7   57.13    6.12   2
  -3  -1   7  165.70   10.96   2
  -2  -1   7    2.14    0.86   2
   2   1  -7    1.50    0.87   1
  -1  -1   7   13.44    2.95   2
   1   1  -7    9.81    2.02   1
   0  -1   7   21.30    3.70   2
   0  -1   7   22.24    3.27   1
   1  -1   7   42.67    3.89   1
   2  -1   7  334.78   12.98   1
   3  -1   7  128.27    7.42   1
  -4   0   7  179.38   12.04   2
  -3   0   7  893.54   29.91   2
   2   0  -7  249.58    9.30   1
  -2   0   7  242.17   12.26   2
  -1   0   7  464.23   16.92   2
  -1   0   7  451.73   14.55   1
   0   0   7  199.94    9.15   1
   1   0   7 1680.52   37.35   1
  -1   0  -7 1561.56   47.08   3
  -2   0  -7  525.86   23.92   3
   2   0   7  581.66   18.73   1
  -3   0  -7   14.20    2.89   3
   3   0   7    7.83    1.70   1
  -4   1   7    4.50    1.53   2
  -3   1   7   97.65    7.49   2
   2  -1  -7   80.18    6.32   3
  -2   1   7   73.22    4.73   1
  -2   1   7   74.70    5.81   2
   1  -1  -7  182.67   11.22   3
  -1   1   7  166.40    8.17   1
   0   1   7  216.14   10.01   1
   0  -1  -7  244.48   14.49   3
   1   1   7   41.73    3.85   1
  -1  -1  -7   44.78    6.83   3
  -2  -1  -7  111.39    9.80   3
   2   1   7  118.49    7.36   1
   3   1   7   87.17    6.12   1
  -3  -1  -7   79.05    8.41   3
   4  -2  -7  394.10   18.27   3
  -4   2   7  368.13   18.59   2
   3  -2  -7  250.04   13.77   3
   2  -2  -7 1143.38   37.28   3
  -1   2   7  165.30    8.40   1
   1  -2  -7  162.63   11.60   3
   0  -2  -7  242.09   15.56   3
   0   2   7  225.71   10.61   1
  -1  -2  -7  647.77   28.47   3
   1   2   7  651.50   20.80   1
   2   2   7  387.89   15.83   1
  -2  -2  -7  443.61   23.39   3
   3  -3  -7    3.63    1.47   3
   2  -3  -7   25.07    4.72   3
  -1   3   7  166.16    8.63   1
   1  -3  -7  170.17   12.66   3
   0   3   7  201.23   10.02   1
   0  -3  -7  172.79   13.29   3
  -1  -3  -7   36.35    6.75   3
   1   3   7   31.01    4.31   1
  -2  -3  -7    1.76    1.78   3
   2  -4  -7  488.82   25.15   3
   1  -4  -7  457.97   24.45   3
  -1   4   7  483.20   17.44   1
   0   4   7  312.60   13.58   1
   0  -4  -7  301.54   19.89   3
   2   5  -8   39.73    3.51   1
  -2  -5   8   37.52    6.37   2
  -1  -5   8   39.35    6.43   2
   1   5  -8   28.64    4.03   1
   0   5  -8  109.56    6.94   1
   0  -5   8  107.94    9.81   2
  -1   5  -8  312.23   13.01   1
   1  -5   8  314.86   18.66   2
   3   4  -8  964.28   26.75   1
  -3  -4   8 1027.21   37.48   2
   2   4  -8  298.12   12.18   1
  -2  -4   8  297.57   17.05   2
   1   4  -8  948.31   25.82   1
  -1  -4   8  938.18   33.86   2
   0  -4   8  659.20   27.63   2
   0   4  -8  675.33   20.85   1
  -1   4  -8 1541.76   37.44   1
   1  -4   8 1582.01   49.68   2
  -2   4  -8  879.38   25.50   1
   2  -4   8  938.34   35.94   2
   3   3  -8  495.75   16.15   1
  -3  -3   8  486.18   23.08   2
   2   3  -8    4.11    0.99   1
  -2  -3   8    6.65    1.85   2
  -1  -3   8    9.37    2.66   2
   1   3  -8    5.52    0.99   1
   0   3  -8  537.27   17.79   1
   0  -3   8  551.40   23.21   2
  -1   3  -8   49.86    4.47   1
   1  -3   8   61.62    6.31   2
  -2   3  -8  161.75    8.88   1
   3   2  -8  355.03   12.69   1
  -3  -2   8  351.17   18.38   2
  -2  -2   8 2158.74   58.14   2
   2   2  -8 2182.75   45.93   1
   1   2  -8  653.58   19.01   1
  -1  -2   8  635.52   23.94   2
   0   2  -8  716.53   21.28   1
   0  -2   8  700.51   25.79   2
  -1   2  -8  954.79   26.59   1
  -2   2  -8  853.28   26.78   1
  -3  -1   8  107.36    8.63   2
  -2  -1   8  142.97    9.72   2
   2   1  -8  137.37    6.98   1
  -1  -1   8  213.32   11.68   2
   1   1  -8  215.54    9.61   1
   0  -1   8    1.69    1.01   1
   1  -1   8  284.05   12.13   1
   2  -1   8   28.70    3.82   1
   3  -1   8    9.56    1.56   1
  -4   0   8   50.42    5.14   2
  -3   0   8 1239.65   38.75   2
  -2   0   8  631.59   23.06   2
   2   0  -8  651.84   18.41   1
  -1   0   8 1089.30   27.73   1
   0   0   8  818.53   23.37   1
   1   0   8  525.06   17.93   1
   2   0   8 1223.42   32.28   1
  -3   1   8    8.78    1.61   2
  -2   1   8   92.46    5.72   1
  -1   1   8   15.75    2.45   1
   0   1   8  401.51   15.12   1
   1   1   8   38.31    4.60   1
  -1  -1  -8   34.21    5.72   3
   2   1   8    1.19    0.90   1
  -2  -1  -8    2.14    1.87   3
   2  -2  -8  951.95   34.18   3
  -1   2   8  825.71   24.15   1
   1  -2  -8  876.65   32.96   3
   0  -2  -8  138.58   11.32   3
   0   2   8  130.05    8.14   1
  -1  -2  -8  644.77   29.44   3
   1   2   8  615.50   21.02   1
  -2  -2  -8  473.27   25.03   3
   2  -3  -8    4.44    1.72   3
  -1   3   8  109.83    7.02   1
   1  -3  -8  112.07    9.95   3
   0  -3  -8   16.01    3.38   3
   0   3   8   18.12    3.01   1
  -2  -4   9   48.20    6.93   2
   2   4  -9   34.54    3.23   1
  -1  -4   9  319.09   17.66   2
   1   4  -9  291.43   12.91   1
   0   4  -9  535.05   19.07   1
   0  -4   9  526.31   24.71   2
  -1   4  -9  228.50   11.51   1
   1  -4   9  240.27   15.40   2
   3   3  -9   17.04    2.31   1
   2   3  -9   62.91    4.75   1
  -2  -3   9   59.91    6.26   2
  -1  -3   9  370.69   18.63   2
   1   3  -9  383.83   14.85   1
   0  -3   9   53.64    5.56   2
   0   3  -9   42.66    3.93   1
  -1   3  -9    0.84    0.88   1
  -2   3  -9    4.14    1.28   1
  -3  -2   9   96.60    8.42   2
   2   2  -9  469.69   16.23   1
  -2  -2   9  469.05   20.95   2
  -1  -2   9  537.58   22.53   2
   1   2  -9  541.25   17.95   1
   0   2  -9   11.73    2.16   1
  -1   2  -9  530.59   19.98   1
  -2   2  -9  347.05   16.15   1
  -3  -1   9  249.06   14.90   2
   2   1  -9   12.20    2.22   1
  -2  -1   9   13.93    2.61   2
   1   1  -9   23.14    3.30   1
   0   1  -9  249.60   12.54   1
   1  -1   9    2.82    0.96   1
  -3   0   9  116.09    8.64   2
   2   0  -9  611.97   18.87   1
   0   0   9  817.55   24.58   1
   1   0   9   17.95    2.98   1
  -1   1   9    1.60    0.99   1
   0   1   9    6.82    1.65   1
  -1   2   9 1124.66   30.92   1
  -1  -3  10  121.02    9.57   2
  -2  -2  10  106.27    8.36   2
   1   2 -10 1425.19   36.44   1
   2   1 -10  286.93   12.20   1
   1   1 -10   10.96    1.76   1
   0   0   0    0.00    0.00   0
;
_shelx_hkl_checksum              82903
loop_
_space_group_symop_operation_xyz
'x, y, z'
'-x, -y, -z'
loop_
_atom_site_label
_atom_site_type_symbol
_atom_site_fract_x
_atom_site_fract_y
_atom_site_fract_z
_atom_site_U_iso_or_equiv
_atom_site_adp_type
_atom_site_occupancy
_atom_site_site_symmetry_order
_atom_site_calc_flag
_atom_site_refinement_flags_posn
_atom_site_refinement_flags_adp
_atom_site_refinement_flags_occupancy
Co1 Co 0.5000 0.5000 0.5000 0.00775(15) Uani 1 2 d S . P
Ge1 Ge 0.5000 0.0000 0.5000 0.00668(14) Uani 1 2 d S . P
P1 P 0.07408(16) 0.29824(12) 0.72517(9) 0.00719(17) Uani 1 1 d . . .
O1 O -0.2342(5) 0.2580(3) 0.5978(3) 0.0095(4) Uani 1 1 d . . .
O2 O 0.0098(5) 0.3097(3) 0.9140(3) 0.0123(4) Uani 1 1 d D . .
O3 O 0.2361(5) 0.5067(3) 0.6980(3) 0.0104(4) Uani 1 1 d . . .
O4 O 0.2502(5) 0.0818(3) 0.6793(3) 0.0081(4) Uani 1 1 d . . .
O5 O 0.3115(5) 0.1836(3) 0.3642(3) 0.0086(4) Uani 1 1 d D . .
K1 K 0.5000 0.0000 1.0000 0.0495(4) Uani 1 2 d S . P
H2 H 0.02(3) 0.440(8) 0.970(16) 0.050 Uiso 0.5 1 d D U P
H5 H 0.131(5) 0.160(9) 0.344(7) 0.050 Uiso 1 1 d D U .
loop_
_atom_site_aniso_label
_atom_site_aniso_U_11
_atom_site_aniso_U_22
_atom_site_aniso_U_33
_atom_site_aniso_U_23
_atom_site_aniso_U_13
_atom_site_aniso_U_12
Co1 0.0071(3) 0.0066(3) 0.0101(3) 0.0028(2) 0.0012(2) 0.00089(19)
Ge1 0.0059(2) 0.0062(2) 0.0083(2) 0.00251(15) 0.00074(15) 0.00089(15)
P1 0.0068(3) 0.0067(3) 0.0082(3) 0.0016(3) 0.0010(3) 0.0010(2)
O1 0.0079(10) 0.0076(9) 0.0126(10) 0.0027(8) -0.0006(8) 0.0005(7)
O2 0.0183(11) 0.0101(10) 0.0086(10) 0.0010(8) 0.0041(8) 0.0017(8)
O3 0.0090(10) 0.0093(9) 0.0127(10) 0.0020(8) 0.0019(8) 0.0004(8)
O4 0.0088(9) 0.0071(9) 0.0092(9) 0.0028(7) 0.0012(8) 0.0030(7)
O5 0.0072(9) 0.0087(9) 0.0102(10) 0.0032(8) 0.0000(8) 0.0008(7)
K1 0.0348(7) 0.0981(13) 0.0302(7) 0.0391(8) 0.0107(6) 0.0325(8)
loop_
_atom_type_symbol
_atom_type_description
_atom_type_scat_dispersion_real
_atom_type_scat_dispersion_imag
_atom_type_scat_source
Co Co 0.3494 0.9721 'International Tables Vol C Tables 4.2.6.8 and 6.1.1.4'
Ge Ge 0.1547 1.8001 'International Tables Vol C Tables 4.2.6.8 and 6.1.1.4'
K K 0.2009 0.2494 'International Tables Vol C Tables 4.2.6.8 and 6.1.1.4'
O O 0.0106 0.0060 'International Tables Vol C Tables 4.2.6.8 and 6.1.1.4'
P P 0.1023 0.0942 'International Tables Vol C Tables 4.2.6.8 and 6.1.1.4'
H H 0.0000 0.0000 'International Tables Vol C Tables 4.2.6.8 and 6.1.1.4'
loop_
_geom_angle_atom_site_label_1
_geom_angle_atom_site_label_2
_geom_angle_atom_site_label_3
_geom_angle
_geom_angle_site_symmetry_1
_geom_angle_site_symmetry_3
O3 Co1 O3 180.0 . 2_666
O3 Co1 O5 92.28(8) . .
O3 Co1 O5 87.72(8) 2_666 .
O3 Co1 O5 87.72(8) . 2_666
O3 Co1 O5 92.28(8) 2_666 2_666
O5 Co1 O5 180.0 . 2_666
O3 Co1 O1 90.48(8) . 2_566
O3 Co1 O1 89.52(8) 2_666 2_566
O5 Co1 O1 106.96(8) . 2_566
O5 Co1 O1 73.04(8) 2_666 2_566
O3 Co1 O1 89.52(8) . 1_655
O3 Co1 O1 90.48(8) 2_666 1_655
O5 Co1 O1 73.04(8) . 1_655
O5 Co1 O1 106.96(8) 2_666 1_655
O1 Co1 O1 180.00(10) 2_566 1_655
O5 Ge1 O5 180.0 . 2_656
O5 Ge1 O4 87.26(9) . 2_656
O5 Ge1 O4 92.74(9) 2_656 2_656
O5 Ge1 O4 92.74(9) . .
O5 Ge1 O4 87.26(9) 2_656 .
O4 Ge1 O4 180.0 2_656 .
O5 Ge1 O1 83.99(9) . 1_655
O5 Ge1 O1 96.01(9) 2_656 1_655
O4 Ge1 O1 89.06(9) 2_656 1_655
O4 Ge1 O1 90.95(9) . 1_655
O5 Ge1 O1 96.01(9) . 2_556
O5 Ge1 O1 83.99(9) 2_656 2_556
O4 Ge1 O1 90.94(9) 2_656 2_556
O4 Ge1 O1 89.05(9) . 2_556
O1 Ge1 O1 180.00(8) 1_655 2_556
O5 Ge1 K1 49.89(6) . 1_554
O5 Ge1 K1 130.11(6) 2_656 1_554
O4 Ge1 K1 40.56(6) 2_656 1_554
O4 Ge1 K1 139.44(6) . 1_554
O1 Ge1 K1 98.73(6) 1_655 1_554
O1 Ge1 K1 81.27(6) 2_556 1_554
O5 Ge1 K1 130.11(6) . .
O5 Ge1 K1 49.89(6) 2_656 .
O4 Ge1 K1 139.44(6) 2_656 .
O4 Ge1 K1 40.56(6) . .
O1 Ge1 K1 81.27(6) 1_655 .
O1 Ge1 K1 98.73(6) 2_556 .
K1 Ge1 K1 180.0 1_554 .
O3 P1 O2 114.37(12) . .
O3 P1 O4 113.87(12) . .
O2 P1 O4 104.77(12) . .
O3 P1 O1 107.73(12) . .
O2 P1 O1 109.20(12) . .
O4 P1 O1 106.57(11) . .
O3 P1 K1 114.94(9) . .
O2 P1 K1 59.26(9) . .
O4 P1 K1 49.32(8) . .
O1 P1 K1 136.71(8) . .
P1 O1 Ge1 133.28(13) . 1_455
P1 O1 Co1 128.16(12) . 1_455
Ge1 O1 Co1 98.37(9) 1_455 1_455
P1 O2 K1 95.07(10) . .
P1 O2 K1 121.70(11) . 1_455
K1 O2 K1 92.32(6) . 1_455
P1 O2 H2 111(10) . .
K1 O2 H2 120(10) . .
K1 O2 H2 114(10) 1_455 .
P1 O3 Co1 122.39(12) . .
P1 O4 Ge1 128.99(12) . .
P1 O4 K1 105.39(10) . .
Ge1 O4 K1 112.98(9) . .
Ge1 O5 Co1 101.24(9) . .
Ge1 O5 K1 102.67(8) . 1_554
Co1 O5 K1 117.13(8) . 1_554
Ge1 O5 H5 113(4) . .
Co1 O5 H5 121(4) . .
K1 O5 H5 101(4) 1_554 .
O4 K1 O4 180.00(11) 2_657 .
O4 K1 O2 49.60(6) 2_657 2_657
O4 K1 O2 130.40(6) . 2_657
O4 K1 O2 130.40(6) 2_657 .
O4 K1 O2 49.60(6) . .
O2 K1 O2 180.0 2_657 .
O4 K1 O5 127.74(6) 2_657 2_656
O4 K1 O5 52.26(6) . 2_656
O2 K1 O5 78.25(5) 2_657 2_656
O2 K1 O5 101.75(5) . 2_656
O4 K1 O5 52.26(6) 2_657 1_556
O4 K1 O5 127.74(6) . 1_556
O2 K1 O5 101.75(5) 2_657 1_556
O2 K1 O5 78.25(5) . 1_556
O5 K1 O5 180.0 2_656 1_556
O4 K1 O2 77.85(6) 2_657 2_557
O4 K1 O2 102.15(6) . 2_557
O2 K1 O2 92.32(6) 2_657 2_557
O2 K1 O2 87.68(6) . 2_557
O5 K1 O2 111.86(5) 2_656 2_557
O5 K1 O2 68.14(5) 1_556 2_557
O4 K1 O2 102.15(6) 2_657 1_655
O4 K1 O2 77.85(6) . 1_655
O2 K1 O2 87.68(6) 2_657 1_655
O2 K1 O2 92.32(6) . 1_655
O5 K1 O2 68.14(5) 2_656 1_655
O5 K1 O2 111.86(5) 1_556 1_655
O2 K1 O2 180.0 2_557 1_655
O4 K1 P1 154.72(4) 2_657 .
O4 K1 P1 25.28(4) . .
O2 K1 P1 154.33(4) 2_657 .
O2 K1 P1 25.67(4) . .
O5 K1 P1 76.48(4) 2_656 .
O5 K1 P1 103.52(4) 1_556 .
O2 K1 P1 101.16(5) 2_557 .
O2 K1 P1 78.84(5) 1_655 .
O4 K1 P1 25.28(4) 2_657 2_657
O4 K1 P1 154.72(4) . 2_657
O2 K1 P1 25.67(4) 2_657 2_657
O2 K1 P1 154.33(4) . 2_657
O5 K1 P1 103.52(4) 2_656 2_657
O5 K1 P1 76.48(4) 1_556 2_657
O2 K1 P1 78.84(5) 2_557 2_657
O2 K1 P1 101.16(5) 1_655 2_657
P1 K1 P1 180.000(17) . 2_657
O4 K1 Ge1 26.46(4) 2_657 1_556
O4 K1 Ge1 153.54(4) . 1_556
O2 K1 Ge1 74.83(4) 2_657 1_556
O2 K1 Ge1 105.17(4) . 1_556
O5 K1 Ge1 152.55(4) 2_656 1_556
O5 K1 Ge1 27.45(4) 1_556 1_556
O2 K1 Ge1 64.45(4) 2_557 1_556
O2 K1 Ge1 115.55(4) 1_655 1_556
P1 K1 Ge1 130.722(14) . 1_556
P1 K1 Ge1 49.278(14) 2_657 1_556
O4 K1 Ge1 153.54(4) 2_657 .
O4 K1 Ge1 26.46(4) . .
O2 K1 Ge1 105.17(4) 2_657 .
O2 K1 Ge1 74.83(4) . .
O5 K1 Ge1 27.45(4) 2_656 .
O5 K1 Ge1 152.55(4) 1_556 .
O2 K1 Ge1 115.55(4) 2_557 .
O2 K1 Ge1 64.45(4) 1_655 .
P1 K1 Ge1 49.278(14) . .
P1 K1 Ge1 130.722(14) 2_657 .
Ge1 K1 Ge1 180.0 1_556 .
loop_
_geom_bond_atom_site_label_1
_geom_bond_atom_site_label_2
_geom_bond_distance
_geom_bond_site_symmetry_2
Co1 O3 2.055(2) .
Co1 O3 2.055(2) 2_666
Co1 O5 2.097(2) .
Co1 O5 2.097(2) 2_666
Co1 O1 2.128(2) 2_566
Co1 O1 2.128(2) 1_655
Ge1 O5 1.851(2) .
Ge1 O5 1.851(2) 2_656
Ge1 O4 1.897(2) 2_656
Ge1 O4 1.897(2) .
Ge1 O1 1.906(2) 1_655
Ge1 O1 1.906(2) 2_556
Ge1 K1 3.9192(9) 1_554
Ge1 K1 3.9192(9) .
P1 O3 1.512(2) .
P1 O2 1.530(2) .
P1 O4 1.559(2) .
P1 O1 1.573(2) .
P1 K1 3.5189(9) .
O1 Ge1 1.906(2) 1_455
O1 Co1 2.128(2) 1_455
O2 K1 3.036(2) .
O2 K1 3.138(2) 1_455
O2 H2 0.82(2) .
O4 K1 2.768(2) .
O5 K1 3.072(2) 1_554
O5 H5 0.80(2) .
K1 O4 2.768(2) 2_657
K1 O2 3.036(2) 2_657
K1 O5 3.072(2) 2_656
K1 O5 3.072(2) 1_556
K1 O2 3.138(2) 2_557
K1 O2 3.138(2) 1_655
K1 P1 3.5190(9) 2_657
K1 Ge1 3.9192(9) 1_556
