#------------------------------------------------------------------------------
#$Date: 2015-07-08 23:43:11 +0300 (Wed, 08 Jul 2015) $
#$Revision: 141347 $
#$URL: svn://www.crystallography.net/cod/cif/4/34/33/4343334.cif $
#------------------------------------------------------------------------------
#
# This file is available in the Crystallography Open Database (COD),
# http://www.crystallography.net/
#
# All data on this site have been placed in the public domain by the
# contributors.
#
data_4343334
loop_
_publ_author_name
'Ade, Martin'
'Hillebrecht, Harald'
_publ_section_title
;
 Ternary Borides Cr2AlB2, Cr3AlB4, and Cr4AlB6: The First Members of the
 Series (CrB2)nCrAl with n = 1, 2, 3 and a Unifying Concept for Ternary
 Borides as MAB-Phases.
;
_journal_issue                   13
_journal_name_full               'Inorganic chemistry'
_journal_page_first              6122
_journal_page_last               6135
_journal_paper_doi               10.1021/acs.inorgchem.5b00049
_journal_volume                  54
_journal_year                    2015
_chemical_formula_sum            'Al B2 Cr2'
_chemical_formula_weight         152.60
_chemical_name_systematic
;
 ?
;
_space_group_crystal_system      orthorhombic
_space_group_IT_number           65
_space_group_name_Hall           '-C 2 2'
_space_group_name_H-M_alt        'C m m m'
_symmetry_space_group_name_Hall  '-C 2 2'
_symmetry_space_group_name_H-M   'C m m m'
_audit_creation_method           SHELXL-2013
_cell_angle_alpha                90
_cell_angle_beta                 90
_cell_angle_gamma                90
_cell_formula_units_Z            2
_cell_length_a                   2.9373(3)
_cell_length_b                   11.0513(12)
_cell_length_c                   2.9675(3)
_cell_measurement_reflns_used    25
_cell_measurement_temperature    293(2)
_cell_measurement_theta_max      30
_cell_measurement_theta_min      20
_cell_volume                     96.328(17)
_computing_cell_refinement       'Software for Cad4, Nonius'
_computing_data_collection       'Software for CAD4, Nonius'
_computing_data_reduction        'Software for Cad4, Nonius'
_computing_molecular_graphics    'Diamond (Crystal impact, 2005)'
_computing_publication_material  'SHELXL-97_(Sheldrick, 2008)'
_computing_structure_refinement  'SHELXL-2013 (Sheldrick, 2013)'
_computing_structure_solution    'SHELXS-97 (Sheldrick, 2008)'
_diffrn_ambient_temperature      293(2)
_diffrn_measured_fraction_theta_full 0.969
_diffrn_measured_fraction_theta_max 0.994
_diffrn_measurement_details
; 
0.80 deggee +/- 0.50 tan theta
exposure time 60s 
;
_diffrn_measurement_device       '4-circle goniometer'
_diffrn_measurement_device_type  CAD4
_diffrn_measurement_method       omega_2theta_scan
_diffrn_radiation_collimation    '0.5 mm diameter, multiple pinhole'
_diffrn_radiation_monochromator  'plane graphite'
_diffrn_radiation_polarisn_norm  0
_diffrn_radiation_type           MoK\a
_diffrn_radiation_wavelength     0.71069
_diffrn_reflns_av_R_equivalents  0.0372
_diffrn_reflns_av_unetI/netI     0.0265
_diffrn_reflns_laue_measured_fraction_full 0.969
_diffrn_reflns_laue_measured_fraction_max 0.994
_diffrn_reflns_limit_h_max       6
_diffrn_reflns_limit_h_min       -6
_diffrn_reflns_limit_k_max       0
_diffrn_reflns_limit_k_min       -23
_diffrn_reflns_limit_l_max       6
_diffrn_reflns_limit_l_min       -6
_diffrn_reflns_number            1037
_diffrn_reflns_point_group_measured_fraction_full 0.969
_diffrn_reflns_point_group_measured_fraction_max 0.994
_diffrn_reflns_theta_full        25.240
_diffrn_reflns_theta_max         49.849
_diffrn_reflns_theta_min         3.687
_diffrn_source
'sealed X-ray tube, 12 x 0.4 mm long-fine focus'
_diffrn_source_current           40
_diffrn_source_power             2.00
_diffrn_source_voltage           50
_exptl_absorpt_coefficient_mu    11.216
_exptl_absorpt_correction_T_max  0.644
_exptl_absorpt_correction_T_min  0.363
_exptl_absorpt_correction_type   numerical
_exptl_absorpt_process_details   'psi-scan_method with 15 reflections'
_exptl_crystal_colour            black
_exptl_crystal_density_diffrn    5.261
_exptl_crystal_description       flat_rod
_exptl_crystal_F_000             142
_exptl_crystal_size_max          0.1
_exptl_crystal_size_mid          0.05
_exptl_crystal_size_min          0.025
_exptl_transmission_factor_max   0.644
_exptl_transmission_factor_min   0.363
_refine_diff_density_max         1.079
_refine_diff_density_min         -0.904
_refine_diff_density_rms         0.201
_refine_ls_extinction_coef       0.400(14)
_refine_ls_extinction_expression Fc^*^=kFc[1+0.001xFc^2^\l^3^/sin(2\q)]^-1/4^
_refine_ls_extinction_method     SHELXL
_refine_ls_goodness_of_fit_ref   1.163
_refine_ls_hydrogen_treatment    undef
_refine_ls_matrix_type           full
_refine_ls_number_parameters     13
_refine_ls_number_reflns         323
_refine_ls_number_restraints     0
_refine_ls_restrained_S_all      1.163
_refine_ls_R_factor_all          0.0150
_refine_ls_R_factor_gt           0.0135
_refine_ls_shift/su_max          0.002
_refine_ls_shift/su_mean         0.000
_refine_ls_structure_factor_coef Fsqd
_refine_ls_weighting_details
'w=1/[\s^2^(Fo^2^)+(0.0118P)^2^] where P=(Fo^2^+2Fc^2^)/3'
_refine_ls_weighting_scheme      calc
_refine_ls_wR_factor_gt          0.0302
_refine_ls_wR_factor_ref         0.0304
_reflns_Friedel_coverage         0.000
_reflns_number_gt                307
_reflns_number_total             323
_reflns_threshold_expression     'I > 2\s(I)'
_cod_data_source_file            Cr2AlB2.cif
_cod_data_source_block           Cr2AlB2
_cod_depositor_comments
'Adding full bibliography for 4343328--4343335.cif.'
_cod_database_code               4343334
_shelx_space_group_comment
;
The symmetry employed for this shelxl refinement is uniquely defined
by the following loop, which should always be used as a source of
symmetry information in preference to the above space-group names.
They are only intended as comments.
;
_shelxl_version_number           2013-4
_shelx_res_file
;
TITL knut2 in Cmmm
CELL 0.71069   2.9373  11.0513   2.9675  90.00  90.00  90.00
ZERR    2.00   0.0003   0.0012   0.0003   0.00   0.00   0.00
LATT  7
SYMM -X, -Y, Z
SYMM -X, Y, -Z
SYMM X, -Y, -Z
SFAC B AL CR
UNIT 4 2 4
L.S. 4
MERG 2
OMIT 0
OMIT 2 2 0
OMIT 0 0 1
ACTA
WGHT    0.011800
EXTI    0.399761
FVAR       1.22591
CR    3   10.500000    0.646856   10.000000    10.25000    0.00275    0.00295 =
         0.00135    0.00000    0.00000    0.00000
AL    2   10.000000   10.500000   10.500000    10.12500    0.00509    0.00321 =
         0.00359    0.00000    0.00000    0.00000
B     1   10.000000    0.294010   10.500000    10.25000    0.00374    0.00484 =
         0.00278    0.00000    0.00000    0.00000
HKLF 4

REM  knut2 in Cmmm
REM R1 =  0.0135 for     307 Fo > 4sig(Fo)  and  0.0150 for all     323 data
REM     13 parameters refined using      0 restraints

END

WGHT      0.0116      0.0000

REM Highest difference peak  1.079,  deepest hole -0.904,  1-sigma level  0.201
Q1    1   0.5000  0.5801  0.0000  10.25000  0.05    1.08
Q2    1   0.5000  0.7479  0.0000  10.25000  0.05    0.96
Q3    1   0.5000  0.6897  0.0596  10.50000  0.05    0.93
Q4    1   0.0000  0.2018  0.5000  10.25000  0.05    0.67
Q5    1   0.6155  0.6453  0.0000  10.50000  0.05    0.63
Q6    1   0.0000  0.4501  0.5000  10.25000  0.05    0.62
Q7    1   0.0000  0.3486  0.2196  10.50000  0.05    0.44
Q8    1   0.0000  0.4792  0.1395  10.50000  0.05    0.43
Q9    1   0.0000  0.3331  0.3963  10.50000  0.05    0.42
Q10   1   0.0000  0.3916  0.4270  10.50000  0.05    0.40
Q11   1   0.0000  0.4276  0.2534  10.50000  0.05    0.38
Q12   1   0.6846  0.5000  0.0000  10.25000  0.05    0.38
Q13   1   0.5000  0.7103  0.2562  10.50000  0.05    0.35
Q14   1   0.9212  0.5652  0.0000  10.50000  0.05    0.35
Q15   1   0.5000  0.5975  0.4408  10.50000  0.05    0.34
Q16   1  -0.5000  0.5302  0.3196  10.50000  0.05    0.34
Q17   1   0.9000  0.6114 -0.1675  11.00000  0.05    0.29
Q18   1   0.5000  0.5665  0.2424  10.50000  0.05    0.29
Q19   1   0.8662  0.6626 -0.1366  11.00000  0.05    0.28
Q20   1   0.0000  0.2795  0.2996  10.50000  0.05    0.28
;
_shelx_res_checksum              92303
_shelx_hkl_file
;
  -6   0  -2  787.68   23.32   1
  -6   0  -1  314.80    8.64   1
  -6  -2  -1   53.18    3.32   1
  -6  -4  -1  582.26   16.43   1
  -6  -6  -1  179.96    5.06   1
  -6  -6   0  446.06   14.43   1
  -6  -4   0  229.07    6.23   1
  -6  -2   0   33.24    2.78   1
  -6   0   0  983.85   25.55   1
  -6   0   1  305.47    7.13   1
  -6  -2   1   59.66    3.32   1
  -6  -4   1  576.67   16.36   1
  -6  -6   1  185.96    5.21   1
  -6   0   2  839.82   24.40   1
  -5  -9   3   21.81    3.37   1
  -5  -7   3  655.56   18.63   1
  -5  -5   3   27.65    2.82   1
  -5  -3   3  510.40   14.58   1
  -5  -1   3  454.60   11.57   1
  -5  -1   2  134.98    4.30   1
  -5  -3   2  775.70   23.84   1
  -5  -5   2  111.70    4.16   1
  -5  -7   2  565.80   17.40   1
  -5  -9   2  309.00    8.58   1
  -5 -11   2  460.85   13.33   1
  -5 -13   1  517.67   15.47   1
  -5 -11   1  225.50    6.80   1
  -5  -9   1   23.98    2.56   1
  -5  -7   1  729.21   22.78   1
  -5  -5   1   33.52    2.76   1
  -5  -3   1  581.29   19.84   1
  -5  -1   1  572.07   19.99   1
  -5  -1   0  131.77    3.82   1
  -5  -3   0  829.54   22.91   1
  -5  -5   0  140.53    4.17   1
  -5  -7   0  599.47   16.68   1
  -5  -9   0  322.89    9.11   1
  -5 -11   0  518.12   13.63   1
  -5 -13   0  290.03    9.39   1
  -5 -13  -1  474.77   11.71   1
  -5 -11  -1  221.19    6.41   1
  -5  -9  -1   30.25    2.55   1
  -5  -7  -1  738.35   22.83   1
  -5  -5  -1   35.80    2.68   1
  -5  -3  -1  565.31   16.02   1
  -5  -1  -1  569.89   16.12   1
  -5  -1  -2  128.07    4.12   1
  -5  -3  -2  679.30   22.25   1
  -5  -5  -2  114.43    4.00   1
  -5  -7  -2  553.00   16.72   1
  -5  -9  -2  287.85    8.64   1
  -5 -11  -2  461.95   11.59   1
  -5  -9  -3   23.36    3.25   1
  -5  -7  -3  578.12   17.35   1
  -5  -5  -3   18.10    2.81   1
  -5  -3  -3  469.63   12.05   1
  -5  -1  -3  427.36   13.13   1
  -4 -10  -4  291.83    8.14   1
  -4  -8  -4  161.57    5.23   1
  -4  -6  -4  495.79   13.12   1
  -4  -4  -4  274.12    7.34   1
  -4  -2  -4   31.98    3.17   1
  -4   0  -4 1210.88   31.82   1
  -4   0  -3  456.57   11.50   1
  -4  -2  -3  106.89    3.72   1
  -4  -4  -3  923.64   25.65   1
  -4  -6  -3  223.27    6.07   1
  -4  -8  -3   95.60    3.79   1
  -4 -10  -3 1038.44   27.69   1
  -4 -12  -3    6.62    8.47   1
  -4 -14  -3  280.84    8.21   1
  -4 -16  -2  126.05    4.63   1
  -4 -14  -2  832.15   24.69   1
  -4 -12  -2   13.67    2.39   1
  -4 -10  -2  333.09   10.15   1
  -4  -8  -2  259.05    7.78   1
  -4  -6  -2  723.63   21.54   1
  -4  -4  -2  331.25    9.20   1
  -4  -2  -2   44.39    2.48   1
  -4   0  -2 1986.99   47.60   1
  -4   0  -1  497.79   16.27   1
  -4  -2  -1  169.93    4.32   1
  -4  -4  -1 1369.61   37.86   1
  -4  -6  -1  237.94    7.71   1
  -4  -8  -1  110.02    3.40   1
  -4 -10  -1 1351.84   29.05   1
  -4 -12  -1   -7.15    6.95   1
  -4 -14  -1  340.21    9.24   1
  -4 -16  -1  328.09    9.97   1
  -4 -18  -1  307.28    8.14   1
  -4 -18   0  140.68    4.69   1
  -4 -16   0  139.29    4.32   1
  -4 -14   0 1000.67   26.31   1
  -4 -12   0   13.62    2.28   1
  -4 -10   0  377.13   10.90   1
  -4  -8   0  306.46    9.63   1
  -4  -6   0  907.77   21.90   1
  -4  -4   0  350.19    9.76   1
  -4  -2   0   39.45    1.99   1
  -4   0   0 2382.32   47.72   1
  -4   0   1  477.13   16.12   1
  -4  -2   1  159.18    4.22   1
  -4  -4   1 1371.62   38.68   1
  -4  -6   1  255.08    8.87   1
  -4  -8   1  109.94    3.64   1
  -4 -10   1 1489.70   43.59   1
  -4 -12   1    0.00    6.43   1
  -4 -14   1  320.80    9.90   1
  -4 -16   1  328.81   10.07   1
  -4 -18   1  319.01    9.75   1
  -4 -16   2  133.34    4.81   1
  -4 -14   2  949.67   26.31   1
  -4 -12   2   14.11    2.43   1
  -4 -10   2  370.51   10.57   1
  -4  -8   2  297.02    9.17   1
  -4  -6   2  773.98   22.67   1
  -4  -4   2  347.64   10.89   1
  -4  -2   2   39.14    2.44   1
  -4   0   2 1953.23   47.72   1
  -4   0   3  448.21   11.90   1
  -4  -2   3  104.58    3.88   1
  -4  -4   3 1072.10   28.36   1
  -4  -6   3  243.17    6.84   1
  -4  -8   3  106.00    4.08   1
  -4 -10   3 1182.63   30.44   1
  -4 -12   3   -8.42    8.65   1
  -4 -14   3  284.99    7.95   1
  -4 -10   4  314.20    9.27   1
  -4  -8   4  191.18    5.84   1
  -4  -6   4  587.69   18.66   1
  -4  -4   4  295.41    9.24   1
  -4  -2   4   44.15    3.47   1
  -4   0   4 1313.46   33.57   1
  -3  -9   5   30.05    3.91   1
  -3  -7   5  678.62   21.30   1
  -3  -5   5   21.98    3.68   1
  -3  -3   5  576.18   15.73   1
  -3  -1   5  508.54   14.63   1
  -3  -1   4  153.69    5.34   1
  -3  -3   4  964.22   28.29   1
  -3  -5   4  159.40    5.07   1
  -3  -7   4  717.95   20.62   1
  -3  -9   4  369.78   10.81   1
  -3 -11   4  593.27   16.47   1
  -3 -13   4  361.96   10.62   1
  -3 -17   3  628.14   18.18   1
  -3 -15   3  215.95    6.82   1
  -3 -13   3  753.54   19.56   1
  -3 -11   3  292.04    8.97   1
  -3  -9   3   27.35    2.52   1
  -3  -7   3 1127.74   27.20   1
  -3  -5   3   79.54    3.08   1
  -3  -3   3  801.19   22.53   1
  -3  -1   3  902.75   23.44   1
  -3  -1   2  175.57    5.06   1
  -3  -3   2 1690.47   39.76   1
  -3  -5   2  315.65    9.11   1
  -3  -7   2  952.95   22.19   1
  -3  -9   2  630.56   18.88   1
  -3 -11   2  880.94   23.28   1
  -3 -13   2  450.03   12.43   1
  -3 -15   2   -6.38    7.10   1
  -3 -17   2  749.00   19.71   1
  -3 -19   2    2.46    2.63   1
  -3 -19   1  182.93    5.61   1
  -3 -17   1  646.40   17.70   1
  -3 -15   1  310.56    9.38   1
  -3 -13   1  971.65   24.01   1
  -3 -11   1  343.08    9.85   1
  -3  -9   1   19.30    1.72   1
  -3  -7   1 1580.60   36.65   1
  -3  -5   1  159.07    4.28   1
  -3  -3   1 1165.74   29.74   1
  -3  -1   1 1538.71   33.68   1
  -3  -1   0  198.81    6.15   1
  -3  -3   0 2184.69   38.67   1
  -3  -5   0  465.28   13.29   1
  -3  -7   0 1101.25   29.87   1
  -3  -9   0  860.44   19.44   1
  -3 -11   0 1070.54   23.05   1
  -3 -13   0  478.17   17.08   1
  -3 -15   0    0.00    7.78   1
  -3 -17   0  826.67   23.78   1
  -3 -19   0    0.00    7.88   1
  -3 -19  -1  178.35    6.13   1
  -3 -17  -1  637.77   21.18   1
  -3 -15  -1  291.43    8.98   1
  -3 -13  -1  969.01   23.59   1
  -3 -11  -1  330.30   11.04   1
  -3  -9  -1   18.07    1.70   1
  -3  -7  -1 1603.92   36.68   1
  -3  -5  -1  149.49    4.68   1
  -3  -3  -1 1130.34   28.96   1
  -3  -1  -1 1575.67   33.64   1
  -3  -1  -2  176.91    5.43   1
  -3  -3  -2 1564.99   37.93   1
  -3  -5  -2  308.60    8.88   1
  -3  -7  -2  966.12   21.91   1
  -3  -9  -2  601.60   18.58   1
  -3 -11  -2  873.78   22.71   1
  -3 -13  -2  485.94   12.60   1
  -3 -15  -2    0.00    6.94   1
  -3 -17  -2  770.22   23.38   1
  -3 -19  -2   -3.71    2.72   1
  -3 -17  -3  558.69   14.59   1
  -3 -15  -3  228.79    6.07   1
  -3 -13  -3  740.91   23.46   1
  -3 -11  -3  278.23    8.60   1
  -3  -9  -3   22.12    2.37   1
  -3  -7  -3 1080.92   25.81   1
  -3  -5  -3   64.88    2.71   1
  -3  -3  -3  735.41   20.77   1
  -3  -1  -3  887.04   22.82   1
  -3  -1  -4  143.90    4.41   1
  -3  -3  -4  817.51   25.19   1
  -3  -5  -4  139.30    4.55   1
  -3  -7  -4  704.22   19.15   1
  -3  -9  -4  385.11   11.37   1
  -3 -11  -4  587.51   18.07   1
  -3 -13  -4  353.08    9.46   1
  -3  -9  -5   21.38    3.87   1
  -3  -7  -5  651.97   20.14   1
  -3  -5  -5   22.23    3.36   1
  -3  -3  -5  456.51   13.44   1
  -3  -1  -5  443.51   12.20   1
  -2  -2  -6   30.36    4.01   1
  -2   0  -6  909.62   31.01   1
  -2   0  -5  390.78   12.54   1
  -2  -2  -5   92.15    4.34   1
  -2  -4  -5  885.74   28.17   1
  -2  -6  -5  249.28    7.60   1
  -2  -8  -5  103.53    4.60   1
  -2 -10  -5 1113.16   31.43   1
  -2 -12  -5   -2.94   10.81   1
  -2 -16  -4  127.01    5.19   1
  -2 -14  -4 1008.81   27.90   1
  -2 -12  -4  -14.96   10.63   1
  -2 -10  -4  451.44   13.25   1
  -2  -8  -4  309.87    8.88   1
  -2  -6  -4  901.09   25.13   1
  -2  -4  -4  350.09   10.09   1
  -2  -2  -4   43.74    2.69   1
  -2   0  -4 1926.97   51.97   1
  -2   0  -3  574.07   16.62   1
  -2  -2  -3  264.39    8.30   1
  -2  -4  -3 1853.96   41.97   1
  -2  -6  -3  334.65    9.26   1
  -2  -8  -3  137.45    3.61   1
  -2 -10  -3 1888.02   45.66   1
  -2 -12  -3    5.60    8.16   1
  -2 -14  -3  361.49   10.59   1
  -2 -16  -3  389.59   11.27   1
  -2 -18  -3  370.08   11.06   1
  -2 -20  -2  865.91   24.66   1
  -2 -18  -2  171.86    4.72   1
  -2 -16  -2  168.13    4.71   1
  -2 -14  -2 1512.09   41.14   1
  -2 -12  -2   33.74    2.19   1
  -2 -10  -2  522.11   15.51   1
  -2  -8  -2  624.51   15.84   1
  -2  -6  -2 1710.50   34.94   1
  -2  -4  -2  659.51   14.92   1
  -2  -2  -2   43.99    1.58   1
  -2   0  -2 4095.87   51.13   1
  -2   0  -1 1317.55   24.83   1
  -2  -2  -1  660.56   17.80   1
  -2  -4  -1 3616.59   42.44   1
  -2  -6  -1  515.81   12.15   1
  -2  -8  -1  164.05    4.91   1
  -2 -10  -1 2807.21   45.14   1
  -2 -12  -1   12.41    1.50   1
  -2 -14  -1  421.07   12.11   1
  -2 -16  -1  532.50   14.65   1
  -2 -18  -1  456.65   12.57   1
  -2 -20  -1  279.44    8.53   1
  -2 -22  -1    4.29    2.73   1
  -2 -22   0   21.11    2.94   1
  -2 -20   0  966.43   26.12   1
  -2 -18   0  187.42    5.20   1
  -2 -16   0  177.90    5.35   1
  -2 -14   0 1910.63   42.56   1
  -2 -12   0   52.80    2.09   1
  -2 -10   0  637.63   14.86   1
  -2  -8   0  881.46   22.86   1
  -2  -6   0 2457.74   35.14   1
  -2  -4   0  953.88   20.96   1
  -2  -2   0   54.08    1.68   1
  -2   0   0 5514.90   46.99   1
  -2   0   1 1257.75   24.19   1
  -2  -2   1  618.35   17.76   1
  -2  -4   1 3586.30   42.76   1
  -2  -6   1  503.65   12.06   1
  -2  -8   1  162.83    4.90   1
  -2 -10   1 2831.42   45.49   1
  -2 -12   1    7.38    1.39   1
  -2 -14   1  422.69   12.24   1
  -2 -16   1  521.59   18.17   1
  -2 -18   1  501.02   13.10   1
  -2 -20   1  298.50    8.13   1
  -2 -22   1   -0.22    2.55   1
  -2 -20   2  914.90   26.03   1
  -2 -18   2  171.03    5.01   1
  -2 -16   2  165.74    5.12   1
  -2 -14   2 1492.45   41.93   1
  -2 -12   2   33.03    2.02   1
  -2 -10   2  552.45   15.84   1
  -2  -8   2  633.68   16.24   1
  -2  -6   2 1734.01   35.83   1
  -2  -4   2  663.56   15.37   1
  -2  -2   2   44.42    1.69   1
  -2   0   2 3836.18   49.49   1
  -2   0   3  629.18   17.58   1
  -2  -2   3  262.88    7.55   1
  -2  -4   3 2026.88   45.20   1
  -2  -6   3  336.34    9.68   1
  -2  -8   3  136.24    4.10   1
  -2 -10   3 1993.38   48.35   1
  -2 -12   3   -5.89    6.96   1
  -2 -14   3  396.44   10.78   1
  -2 -16   3  404.37   12.83   1
  -2 -18   3  400.71   11.43   1
  -2 -16   4  137.60    5.39   1
  -2 -14   4 1084.98   30.46   1
  -2 -12   4    5.82    9.20   1
  -2 -10   4  419.96   11.83   1
  -2  -8   4  332.09    9.43   1
  -2  -6   4  929.44   26.36   1
  -2  -4   4  405.68   10.35   1
  -2  -2   4   50.08    2.93   1
  -2   0   4 2023.77   52.52   1
  -2   0   5  470.64   13.69   1
  -2  -2   5  108.38    4.87   1
  -2  -4   5 1014.05   31.62   1
  -2  -6   5  244.45    6.57   1
  -2  -8   5  110.93    4.86   1
  -2 -10   5 1144.80   32.83   1
  -2 -12   5   -4.80    9.73   1
  -2  -2   6   25.58    4.86   1
  -2   0   6 1046.11   28.13   1
  -1  -1   6  130.84    6.43   1
  -1  -3   6  682.65   18.51   1
  -1  -5   6  102.96    5.60   1
  -1  -7   6  598.87   18.14   1
  -1 -13   5  647.22   20.11   1
  -1 -11   5  286.74    8.42   1
  -1  -9   5   25.76    3.27   1
  -1  -7   5  986.31   29.76   1
  -1  -5   5   43.21    3.50   1
  -1  -3   5  724.37   21.54   1
  -1  -1   5  694.80   18.28   1
  -1  -1   4  161.84    4.29   1
  -1  -3   4 1477.71   30.96   1
  -1  -5   4  256.27    7.65   1
  -1  -7   4 1035.56   25.67   1
  -1  -9   4  604.44   16.42   1
  -1 -11   4  845.15   24.52   1
  -1 -13   4  459.17   12.28   1
  -1 -15   4   -1.43    7.98   1
  -1 -17   4  769.29   20.55   1
  -1 -19   3  188.39    5.40   1
  -1 -17   3  711.00   19.11   1
  -1 -15   3  346.29    9.87   1
  -1 -13   3 1017.08   24.95   1
  -1 -11   3  374.22   11.85   1
  -1  -9   3   20.37    1.68   1
  -1  -7   3 1953.58   40.61   1
  -1  -5   3  180.94    5.16   1
  -1  -3   3 1307.28   32.41   1
  -1  -1   3 1606.19   35.91   1
  -1  -1   2  357.28    9.61   1
  -1  -3   2 3557.57   41.75   1
  -1  -5   2  738.53   19.56   1
  -1  -7   2 1710.58   31.15   1
  -1  -9   2 1163.34   27.65   1
  -1 -11   2 1437.49   33.50   1
  -1 -13   2  594.66   16.87   1
  -1 -15   2    2.99    5.89   1
  -1 -17   2 1016.63   25.40   1
  -1 -19   2    3.09    2.16   1
  -1 -21   2  355.85    9.86   1
  -1 -23   1  186.21    5.31   1
  -1 -21   1  646.05   17.92   1
  -1 -19   1  253.61    7.75   1
  -1 -17   1  817.77   21.57   1
  -1 -15   1  526.37   15.70   1
  -1 -13   1 1500.75   34.15   1
  -1 -11   1  499.53   12.75   1
  -1  -9   1   19.44    1.13   1
  -1  -7   1 3658.42   38.65   1
  -1  -5   1  398.40    8.46   1
  -1  -3   1 2534.22   27.50   1
  -1  -1   1 3200.21   30.10   1
  -1  -1   0  729.54   12.05   1
  -1  -3   0 4185.91   30.60   1
  -1  -5   0 1085.50   17.58   1
  -1  -7   0 2194.26   27.98   1
  -1  -9   0 1633.44   27.41   1
  -1 -11   0 1954.28   33.29   1
  -1 -13   0  652.62   15.67   1
  -1 -15   0    6.18    1.57   1
  -1 -17   0 1136.81   24.46   1
  -1 -19   0    8.96    2.01   1
  -1 -21   0  388.12   10.43   1
  -1 -23   0  434.38   12.55   1
  -1 -23  -1  167.04    5.20   1
  -1 -21  -1  613.44   16.99   1
  -1 -19  -1  248.10    6.65   1
  -1 -17  -1  803.07   21.33   1
  -1 -15  -1  500.65   15.50   1
  -1 -13  -1 1524.06   33.91   1
  -1 -11  -1  480.32   12.49   1
  -1  -9  -1   17.78    1.11   1
  -1  -7  -1 3522.21   37.69   1
  -1  -5  -1  369.77    8.07   1
  -1  -3  -1 2608.70   27.48   1
  -1  -1  -1 3877.53   32.58   1
  -1  -1  -2  389.85    9.75   1
  -1  -3  -2 3280.87   38.79   1
  -1  -5  -2  719.59   18.75   1
  -1  -7  -2 1622.46   30.26   1
  -1  -9  -2 1165.57   27.41   1
  -1 -11  -2 1428.24   32.99   1
  -1 -13  -2  540.64   15.98   1
  -1 -15  -2    0.00    7.00   1
  -1 -17  -2  954.97   24.29   1
  -1 -19  -2    1.40    2.31   1
  -1 -21  -2  343.73    8.83   1
  -1 -19  -3  185.71    5.30   1
  -1 -17  -3  653.74   18.07   1
  -1 -15  -3  309.55    7.93   1
  -1 -13  -3 1013.70   24.26   1
  -1 -11  -3  376.88   10.21   1
  -1  -9  -3   23.26    1.71   1
  -1  -7  -3 1824.52   38.27   1
  -1  -5  -3  167.74    4.45   1
  -1  -3  -3 1111.92   28.61   1
  -1  -1  -3 1802.95   36.85   1
  -1  -1  -4  169.89    4.62   1
  -1  -3  -4 1372.89   38.82   1
  -1  -5  -4  273.41    8.16   1
  -1  -7  -4  982.69   24.05   1
  -1  -9  -4  549.97   18.64   1
  -1 -11  -4  810.84   23.50   1
  -1 -13  -4  437.02   11.82   1
  -1 -15  -4   -1.67    2.75   1
  -1 -17  -4  680.38   19.25   1
  -1 -13  -5  601.56   16.36   1
  -1 -11  -5  287.70    8.93   1
  -1  -9  -5   32.96    3.34   1
  -1  -7  -5  912.41   27.31   1
  -1  -5  -5   41.83    3.36   1
  -1  -3  -5  674.35   19.42   1
  -1  -1  -5  687.31   19.70   1
  -1  -1  -6  114.10    5.46   1
  -1  -3  -6  641.17   21.51   1
  -1  -5  -6  107.53    5.36   1
  -1  -7  -6  619.48   17.74   1
   0  -8  -6  197.72    6.97   1
   0  -6  -6  546.82   16.89   1
   0  -4  -6  326.23    8.50   1
   0  -2  -6   43.12    4.21   1
   0   0  -6 1289.88   35.29   1
   0   0  -5  463.07   13.34   1
   0  -2  -5  123.06    4.09   1
   0  -4  -5 1135.41   29.02   1
   0  -6  -5  283.75    7.86   1
   0  -8  -5  116.57    4.57   1
   0 -10  -5 1218.39   32.06   1
   0 -12  -5    4.38    3.35   1
   0 -14  -5  324.37    8.79   1
   0 -18  -4  156.56    5.54   1
   0 -16  -4  138.79    4.86   1
   0 -14  -4 1171.08   29.33   1
   0 -12  -4   17.23    2.48   1
   0 -10  -4  447.77   13.88   1
   0  -8  -4  369.99   10.84   1
   0  -6  -4 1170.40   34.44   1
   0  -4  -4  422.91   12.03   1
   0  -2  -4   40.34    2.03   1
   0   0  -4 2479.19   47.68   1
   0   0  -3  824.41   21.63   1
   0  -2  -3  386.50   10.76   1
   0  -4  -3 2485.75   39.00   1
   0  -6  -3  411.07   12.15   1
   0  -8  -3  140.85    3.80   1
   0 -10  -3 2237.16   44.22   1
   0 -12  -3   -0.80    1.66   1
   0 -14  -3  383.62   10.82   1
   0 -16  -3  462.83   12.66   1
   0 -18  -3  421.05   12.77   1
   0 -20  -3  275.54    8.84   1
   0 -22  -2   17.59    3.07   1
   0 -20  -2  997.05   26.18   1
   0 -18  -2  181.71    5.19   1
   0 -16  -2  171.30    4.28   1
   0 -14  -2 1879.39   41.27   1
   0 -12  -2   46.79    1.98   1
   0 -10  -2  634.79   14.30   1
   0  -8  -2  936.50   22.02   1
   0  -6  -2 2519.64   32.99   1
   0  -4  -2  955.54   19.09   1
   0  -2  -2   56.84    1.79   1
   0   0  -2 5241.64   40.58   1
   0   0  -1 2053.58   17.08   1
   0  -2  -1  987.38   12.70   1
   0  -4  -1 4625.62   31.31   1
   0  -6  -1  913.78   16.35   1
   0  -8  -1  228.50    6.95   1
   0 -10  -1 3710.92   42.60   1
   0 -12  -1   -1.16    4.42   1
   0 -14  -1  477.73   13.98   1
   0 -16  -1  646.20   17.90   1
   0 -18  -1  569.06   14.91   1
   0 -20  -1  312.83    8.50   1
   0 -22  -1   -8.58    8.22   1
   0 -22   0   22.65    2.76   1
   0 -20   0 1096.07   26.20   1
   0 -18   0  180.15    5.31   1
   0 -16   0  176.58    5.19   1
   0 -14   0 2193.39   40.18   1
   0 -12   0   87.37    2.09   1
   0 -10   0  883.43   19.96   1
   0  -8   0 1463.94   22.32   1
   0  -6   0 3797.84   29.87   1
   0  -4   0 1775.52   16.33   1
   0  -2   0  339.76    5.07   1
   0   0   1 2004.29   16.91   1
   0  -2   1 1023.55   12.92   1
   0  -4   1 5027.53   32.68   1
   0  -6   1  928.74   16.56   1
   0  -8   1  242.63    7.10   1
   0 -10   1 3901.92   43.67   1
   0 -12   1    1.99    1.05   1
   0 -14   1  464.15   14.13   1
   0 -16   1  642.23   17.84   1
   0 -18   1  575.45   15.20   1
   0 -20   1  305.90    8.16   1
   0 -22   1  -11.20    9.56   1
   0 -22   2   20.56    2.89   1
   0 -20   2 1003.88   26.39   1
   0 -18   2  185.19    5.87   1
   0 -16   2  179.03    5.40   1
   0 -14   2 1931.91   42.46   1
   0 -12   2   49.46    1.94   1
   0 -10   2  639.25   14.37   1
   0  -8   2 1007.54   23.12   1
   0  -6   2 2643.91   33.78   1
   0  -4   2  985.03   19.20   1
   0  -2   2   60.89    1.79   1
   0   0   2 5131.24   40.21   1
   0   0   3  847.76   21.85   1
   0  -2   3  394.19   10.62   1
   0  -4   3 2478.40   38.71   1
   0  -6   3  424.97   12.17   1
   0  -8   3  149.68    4.40   1
   0 -10   3 2391.08   45.83   1
   0 -12   3   -1.89    5.50   1
   0 -14   3  404.59   12.93   1
   0 -16   3  522.40   13.55   1
   0 -18   3  445.36   13.41   1
   0 -20   3  281.82    7.86   1
   0 -18   4  181.35    5.56   1
   0 -16   4  171.72    5.96   1
   0 -14   4 1306.93   31.12   1
   0 -12   4   22.31    2.26   1
   0 -10   4  502.42   14.78   1
   0  -8   4  404.64   12.64   1
   0  -6   4 1175.75   24.79   1
   0  -4   4  446.78   12.29   1
   0  -2   4   44.24    2.00   1
   0   0   4 2436.42   47.25   1
   0   0   5  484.00   13.49   1
   0  -2   5  122.12    4.16   1
   0  -4   5 1170.38   29.49   1
   0  -6   5  297.26    7.33   1
   0  -8   5  121.99    4.38   1
   0 -10   5 1293.10   33.11   1
   0 -12   5    6.12   10.60   1
   0 -14   5  335.85    9.61   1
   0  -8   6  215.76    6.51   1
   0  -6   6  607.58   17.04   1
   0  -4   6  319.63    9.84   1
   0  -2   6   28.79    3.85   1
   0   0   6 1178.64   33.62   1
   1  -1   6  142.33    5.58   1
   1  -3   6  705.08   19.53   1
   1  -5   6  103.74    5.19   1
   1  -7   6  662.97   20.88   1
   1 -13   5  610.43   16.78   1
   1 -11   5  301.85    9.13   1
   1  -9   5   44.53    3.10   1
   1  -7   5  923.73   28.44   1
   1  -5   5   50.74    3.32   1
   1  -3   5  709.90   20.53   1
   1  -1   5  646.98   20.25   1
   1  -1   4  155.86    4.77   1
   1  -3   4 1473.43   41.95   1
   1  -5   4  292.31    7.78   1
   1  -7   4 1055.01   24.96   1
   1  -9   4  589.33   15.91   1
   1 -11   4  843.38   23.98   1
   1 -13   4  442.54   13.16   1
   1 -15   4    4.21    9.61   1
   1 -17   4  734.13   20.24   1
   1 -19   3  179.69    5.23   1
   1 -17   3  724.73   18.60   1
   1 -15   3  330.33    9.66   1
   1 -13   3 1042.49   24.76   1
   1 -11   3  378.33   10.06   1
   1  -9   3   22.26    1.56   1
   1  -7   3 1925.67   39.11   1
   1  -5   3  167.04    4.79   1
   1  -3   3 1224.14   30.49   1
   1  -1   3 1744.18   37.16   1
   1  -1   2  363.04    9.57   1
   1  -3   2 3486.32   40.16   1
   1  -5   2  775.98   19.75   1
   1  -7   2 1708.01   30.18   1
   1  -9   2 1218.85   27.66   1
   1 -11   2 1418.16   32.56   1
   1 -13   2  563.74   16.35   1
   1 -15   2    4.09    1.51   1
   1 -17   2 1000.89   24.92   1
   1 -19   2    0.00    8.56   1
   1 -21   2  363.95    9.66   1
   1 -23   1  169.80    5.12   1
   1 -21   1  651.30   17.61   1
   1 -19   1  250.24    7.65   1
   1 -17   1  810.15   21.24   1
   1 -15   1  505.50   15.23   1
   1 -13   1 1459.92   33.00   1
   1 -11   1  491.59   12.34   1
   1  -9   1   17.88    1.06   1
   1  -7   1 3531.97   37.05   1
   1  -5   1  384.50    8.06   1
   1  -3   1 2766.21   27.88   1
   1  -1   1 3607.96   31.40   1
   1  -1   0  754.69   11.99   1
   1  -3   0 4776.93   31.62   1
   1  -5   0 1175.24   17.64   1
   1  -7   0 2323.97   28.21   1
   1  -9   0 1615.94   26.74   1
   1 -11   0 1918.18   32.66   1
   1 -13   0  634.28   15.04   1
   1 -15   0    7.95    1.60   1
   1 -17   0 1106.43   24.30   1
   1 -19   0    5.87    2.00   1
   1 -21   0  380.15   11.89   1
   1 -23   0  426.78   12.51   1
   1 -23  -1  163.23    5.10   1
   1 -21  -1  638.92   21.05   1
   1 -19  -1  239.71    6.48   1
   1 -17  -1  806.31   21.25   1
   1 -15  -1  490.20   15.23   1
   1 -13  -1 1448.30   32.64   1
   1 -11  -1  464.17   12.07   1
   1  -9  -1   19.23    1.11   1
   1  -7  -1 3450.40   36.51   1
   1  -5  -1  372.20    7.80   1
   1  -3  -1 2579.74   26.38   1
   1  -1  -1 3371.65   29.69   1
   1  -1  -2  353.21    9.18   1
   1  -3  -2 3426.86   38.42   1
   1  -5  -2  709.75   18.21   1
   1  -7  -2 1591.01   28.89   1
   1  -9  -2 1094.07   26.45   1
   1 -11  -2 1470.29   32.79   1
   1 -13  -2  583.72   16.36   1
   1 -15  -2    0.00    6.60   1
   1 -17  -2  969.49   24.10   1
   1 -19  -2    4.82    6.82   1
   1 -21  -2  347.86    9.50   1
   1 -19  -3  175.92    5.15   1
   1 -17  -3  710.57   22.67   1
   1 -15  -3  323.68    9.47   1
   1 -13  -3  930.20   23.11   1
   1 -11  -3  350.66    9.72   1
   1  -9  -3   19.95    1.74   1
   1  -7  -3 1693.35   36.32   1
   1  -5  -3  160.10    4.78   1
   1  -3  -3 1185.21   28.66   1
   1  -1  -3 1687.23   34.89   1
   1  -1  -4  175.52    4.31   1
   1  -3  -4 1338.67   38.23   1
   1  -5  -4  261.63    7.22   1
   1  -7  -4  918.24   23.12   1
   1  -9  -4  520.73   15.17   1
   1 -11  -4  793.10   22.87   1
   1 -13  -4  452.98   11.70   1
   1 -15  -4  -12.06    9.19   1
   1 -17  -4  702.63   19.44   1
   1 -13  -5  622.25   16.83   1
   1 -11  -5  270.12    7.44   1
   1  -9  -5   40.16    3.70   1
   1  -7  -5  919.26   27.94   1
   1  -5  -5   43.19    3.71   1
   1  -3  -5  729.51   19.65   1
   1  -1  -5  686.38   19.46   1
   1  -1  -6  137.10    6.29   1
   1  -3  -6  767.52   19.58   1
   1  -5  -6  101.70    5.80   1
   1  -7  -6  637.08   16.05   1
   2  -2  -6   41.62    4.92   1
   2   0  -6 1061.53   28.20   1
   2   0  -5  433.00   12.16   1
   2  -2  -5   88.49    4.54   1
   2  -4  -5 1032.80   30.40   1
   2  -6  -5  262.71    6.43   1
   2  -8  -5  105.39    4.68   1
   2 -10  -5 1077.33   31.00   1
   2 -12  -5   -5.84   12.38   1
   2 -16  -4  134.65    5.20   1
   2 -14  -4 1006.65   27.64   1
   2 -12  -4    5.53    2.79   1
   2 -10  -4  404.44   12.32   1
   2  -8  -4  290.26    8.64   1
   2  -6  -4  881.27   24.53   1
   2  -4  -4  379.57   10.38   1
   2  -2  -4   37.40    2.64   1
   2   0  -4 2083.83   53.53   1
   2   0  -3  636.45   17.83   1
   2  -2  -3  236.55    7.87   1
   2  -4  -3 1889.39   41.62   1
   2  -6  -3  320.26    9.05   1
   2  -8  -3  128.50    3.44   1
   2 -10  -3 1766.35   43.40   1
   2 -12  -3  -15.23    7.99   1
   2 -14  -3  370.86   11.39   1
   2 -16  -3  399.96   12.41   1
   2 -18  -3  377.71   10.90   1
   2 -20  -2  843.96   24.49   1
   2 -18  -2  160.76    4.62   1
   2 -16  -2  157.09    4.32   1
   2 -14  -2 1445.69   40.43   1
   2 -12  -2   24.63    2.00   1
   2 -10  -2  484.51   14.43   1
   2  -8  -2  632.69   15.48   1
   2  -6  -2 1821.94   34.81   1
   2  -4  -2  582.07   13.77   1
   2  -2  -2   40.56    1.58   1
   2   0  -2 4277.05   51.88   1
   2   0  -1 1328.39   24.76   1
   2  -2  -1  607.22   17.23   1
   2  -4  -1 3345.38   39.94   1
   2  -6  -1  535.31   12.01   1
   2  -8  -1  166.65    4.81   1
   2 -10  -1 2900.16   44.42   1
   2 -12  -1   -2.26    5.06   1
   2 -14  -1  421.66   11.85   1
   2 -16  -1  521.94   14.13   1
   2 -18  -1  500.65   12.92   1
   2 -20  -1  285.93    8.48   1
   2 -22  -1    0.00    7.96   1
   2 -22   0   12.98    2.88   1
   2 -20   0  871.27   24.54   1
   2 -18   0  178.15    4.60   1
   2 -16   0  169.54    4.35   1
   2 -14   0 1759.64   40.33   1
   2 -12   0   42.66    1.90   1
   2 -10   0  614.67   14.41   1
   2  -8   0  896.97   22.59   1
   2  -6   0 2619.72   35.39   1
   2  -4   0  967.81   20.49   1
   2  -2   0   56.18    1.53   1
   2   0   0 5907.01   48.50   1
   2   0   1 1388.23   25.43   1
   2  -2   1  684.03   17.97   1
   2  -4   1 3472.58   41.25   1
   2  -6   1  562.40   12.26   1
   2  -8   1  167.55    4.76   1
   2 -10   1 2804.67   44.42   1
   2 -12   1    3.05    4.03   1
   2 -14   1  401.53   11.76   1
   2 -16   1  536.90   14.55   1
   2 -18   1  453.39   14.44   1
   2 -20   1  278.70    7.41   1
   2 -22   1   -1.21    8.34   1
   2 -20   2  845.87   25.17   1
   2 -18   2  160.98    4.59   1
   2 -16   2  164.43    4.50   1
   2 -14   2 1525.29   40.88   1
   2 -12   2   31.54    1.92   1
   2 -10   2  540.36   15.55   1
   2  -8   2  672.81   16.09   1
   2  -6   2 1871.61   35.96   1
   2  -4   2  650.76   14.64   1
   2  -2   2   45.09    1.59   1
   2   0   2 4510.45   53.18   1
   2   0   3  703.80   18.27   1
   2  -2   3  282.64    8.35   1
   2  -4   3 2075.72   44.27   1
   2  -6   3  335.51   10.74   1
   2  -8   3  129.98    4.03   1
   2 -10   3 1995.82   46.80   1
   2 -12   3    3.45    1.61   1
   2 -14   3  378.04   11.75   1
   2 -16   3  403.48   10.22   1
   2 -18   3  392.60   10.10   1
   2 -16   4  142.46    5.31   1
   2 -14   4 1054.37   28.59   1
   2 -12   4   14.87    2.28   1
   2 -10   4  423.17   12.72   1
   2  -8   4  330.58    8.38   1
   2  -6   4  944.30   25.60   1
   2  -4   4  417.46   12.12   1
   2  -2   4   47.76    2.54   1
   2   0   4 2110.56   52.90   1
   2   0   5  465.24   13.51   1
   2  -2   5  100.67    4.37   1
   2  -4   5 1033.77   30.56   1
   2  -6   5  275.49    7.32   1
   2  -8   5  119.26    4.64   1
   2 -10   5 1124.38   31.45   1
   2 -12   5   -4.59    9.32   1
   2  -2   6   35.56    4.01   1
   2   0   6 1098.62   33.84   1
   3  -9   5   30.23    3.49   1
   3  -7   5  781.53   21.89   1
   3  -5   5   23.49    3.15   1
   3  -3   5  584.94   16.83   1
   3  -1   5  517.01   14.23   1
   3  -1   4  154.03    4.75   1
   3  -3   4 1016.78   28.45   1
   3  -5   4  167.05    4.96   1
   3  -7   4  797.20   25.27   1
   3  -9   4  376.19   11.48   1
   3 -11   4  612.66   18.53   1
   3 -13   4  361.21   10.26   1
   3 -17   3  555.73   17.17   1
   3 -15   3  243.14    6.97   1
   3 -13   3  719.46   22.67   1
   3 -11   3  302.31    8.69   1
   3  -9   3   29.98    2.29   1
   3  -7   3 1189.96   27.09   1
   3  -5   3   82.78    2.90   1
   3  -3   3  895.63   22.96   1
   3  -1   3  965.26   24.16   1
   3  -1   2  188.45    5.48   1
   3  -3   2 1821.53   39.75   1
   3  -5   2  353.31   10.64   1
   3  -7   2 1033.36   22.36   1
   3  -9   2  641.88   18.57   1
   3 -11   2  892.73   22.76   1
   3 -13   2  443.57   12.26   1
   3 -15   2  -13.52    7.06   1
   3 -17   2  721.63   22.80   1
   3 -19   2    2.52    8.15   1
   3 -19   1  163.92    4.87   1
   3 -17   1  605.07   20.68   1
   3 -15   1  306.61    8.97   1
   3 -13   1  912.02   22.78   1
   3 -11   1  339.86    9.52   1
   3  -9   1   17.91    1.61   1
   3  -7   1 1763.24   37.90   1
   3  -5   1  163.16    4.20   1
   3  -3   1 1203.93   29.86   1
   3  -1   1 1631.94   33.80   1
   3  -1   0  226.69    6.42   1
   3  -3   0 2404.93   39.89   1
   3  -5   0  485.86   13.20   1
   3  -7   0 1204.56   30.54   1
   3  -9   0  787.41   18.36   1
   3 -11   0 1054.53   22.56   1
   3 -13   0  456.06   12.93   1
   3 -15   0   -9.81    6.44   1
   3 -17   0  753.12   22.46   1
   3 -19   0    4.90    8.13   1
   3 -19  -1  166.86    4.82   1
   3 -17  -1  620.50   16.88   1
   3 -15  -1  287.87    8.05   1
   3 -13  -1  899.37   22.44   1
   3 -11  -1  312.57    9.15   1
   3  -9  -1   22.34    1.69   1
   3  -7  -1 1605.93   35.83   1
   3  -5  -1  155.31    4.42   1
   3  -3  -1 1199.66   29.55   1
   3  -1  -1 1636.25   33.70   1
   3  -1  -2  173.13    5.10   1
   3  -3  -2 1696.92   38.14   1
   3  -5  -2  310.12    8.72   1
   3  -7  -2  924.21   21.28   1
   3  -9  -2  602.83   17.76   1
   3 -11  -2  799.27   21.35   1
   3 -13  -2  418.20   11.52   1
   3 -15  -2    1.20    7.32   1
   3 -17  -2  729.60   18.68   1
   3 -19  -2   -6.16    8.79   1
   3 -17  -3  478.84   15.77   1
   3 -15  -3  204.31    6.00   1
   3 -13  -3  651.20   17.67   1
   3 -11  -3  261.83    7.72   1
   3  -9  -3   22.79    2.35   1
   3  -7  -3 1032.80   25.19   1
   3  -5  -3   68.41    2.91   1
   3  -3  -3  853.01   22.36   1
   3  -1  -3 1004.53   24.30   1
   3  -1  -4  153.16    4.56   1
   3  -3  -4  971.11   27.76   1
   3  -5  -4  136.21    4.62   1
   3  -7  -4  656.17   18.89   1
   3  -9  -4  348.85    9.35   1
   3 -11  -4  520.33   17.00   1
   3 -13  -4  319.61    8.40   1
   3  -9  -5   24.27    3.96   1
   3  -7  -5  653.20   17.64   1
   3  -5  -5   19.95    3.72   1
   3  -3  -5  565.52   19.27   1
   3  -1  -5  509.63   14.74   1
   4 -10  -4  337.55    8.65   1
   4  -8  -4  211.87    6.43   1
   4  -6  -4  593.73   16.00   1
   4  -4  -4  324.00    8.66   1
   4  -2  -4   41.87    3.45   1
   4   0  -4 1368.04   33.82   1
   4   0  -3  449.52   13.20   1
   4  -2  -3  114.61    3.90   1
   4  -4  -3 1153.33   28.57   1
   4  -6  -3  261.36    7.20   1
   4  -8  -3  105.37    4.09   1
   4 -10  -3 1150.23   29.29   1
   4 -12  -3   -9.27    9.27   1
   4 -14  -3  289.02    8.33   1
   4 -16  -2  126.81    4.56   1
   4 -14  -2  880.20   25.53   1
   4 -12  -2   12.56    2.31   1
   4 -10  -2  366.29   11.42   1
   4  -8  -2  298.91    7.69   1
   4  -6  -2  894.32   23.54   1
   4  -4  -2  375.06   10.85   1
   4  -2  -2   52.80    2.61   1
   4   0  -2 2124.18   49.31   1
   4   0  -1  533.03   16.72   1
   4  -2  -1  188.61    5.61   1
   4  -4  -1 1527.52   39.93   1
   4  -6  -1  313.45    9.39   1
   4  -8  -1  119.49    3.82   1
   4 -10  -1 1523.99   43.11   1
   4 -12  -1   -2.34    7.21   1
   4 -14  -1  325.22    8.30   1
   4 -16  -1  324.77    9.89   1
   4 -18  -1  301.20    8.04   1
   4 -18   0  132.76    4.54   1
   4 -16   0  131.24    4.15   1
   4 -14   0 1077.28   26.69   1
   4 -12   0   11.07    2.15   1
   4 -10   0  389.29   11.11   1
   4  -8   0  364.22   10.28   1
   4  -6   0 1087.41   23.67   1
   4  -4   0  423.20   12.11   1
   4  -2   0   43.14    2.06   1
   4   0   0 2463.34   48.42   1
   4   0   1  545.73   16.72   1
   4  -2   1  183.63    5.91   1
   4  -4   1 1569.00   40.57   1
   4  -6   1  305.93    9.54   1
   4  -8   1  125.46    3.65   1
   4 -10   1 1492.66   42.26   1
   4 -12   1   -9.41    7.06   1
   4 -14   1  324.02    9.74   1
   4 -16   1  312.66    8.22   1
   4 -18   1  318.03    8.13   1
   4 -16   2  128.47    4.56   1
   4 -14   2  894.87   25.57   1
   4 -12   2    3.79    8.64   1
   4 -10   2  374.94    9.39   1
   4  -8   2  313.38    9.14   1
   4  -6   2  945.92   24.09   1
   4  -4   2  364.43   10.77   1
   4  -2   2   49.37    2.36   1
   4   0   2 2156.47   49.66   1
   4   0   3  462.18   14.91   1
   4  -2   3  115.86    3.76   1
   4  -4   3 1141.36   28.41   1
   4  -6   3  283.91    7.89   1
   4  -8   3  123.98    4.11   1
   4 -10   3 1180.46   29.71   1
   4 -12   3   -8.07    7.37   1
   4 -14   3  295.70    8.39   1
   4 -10   4  348.39    8.71   1
   4  -8   4  201.13    5.73   1
   4  -6   4  644.52   18.64   1
   4  -4   4  328.01   10.71   1
   4  -2   4   44.81    3.11   1
   4   0   4 1325.42   32.83   1
   5  -9   3   27.19    2.99   1
   5  -7   3  665.21   18.44   1
   5  -5   3   24.88    2.94   1
   5  -3   3  517.17   14.23   1
   5  -1   3  508.61   13.97   1
   5  -1   2  141.18    4.18   1
   5  -3   2  784.07   23.28   1
   5  -5   2  130.08    4.09   1
   5  -7   2  648.41   17.74   1
   5  -9   2  331.73    9.08   1
   5 -11   2  509.29   15.71   1
   5 -13   1  547.11   15.95   1
   5 -11   1  251.71    8.16   1
   5  -9   1   30.63    2.51   1
   5  -7   1  837.59   23.47   1
   5  -5   1   41.66    2.68   1
   5  -3   1  634.48   20.67   1
   5  -1   1  635.96   16.64   1
   5  -1   0  132.33    4.45   1
   5  -3   0  920.78   24.49   1
   5  -5   0  158.86    4.64   1
   5  -7   0  737.01   22.47   1
   5  -9   0  325.85   11.18   1
   5 -11   0  524.42   15.93   1
   5 -13   0  328.46    9.93   1
   5 -13  -1  552.80   16.05   1
   5 -11  -1  252.99    7.59   1
   5  -9  -1   22.34    2.68   1
   5  -7  -1  853.74   24.06   1
   5  -5  -1   39.84    2.64   1
   5  -3  -1  667.04   20.93   1
   5  -1  -1  653.69   20.78   1
   5  -1  -2  146.96    4.38   1
   5  -3  -2  798.79   24.07   1
   5  -5  -2  137.73    4.21   1
   5  -7  -2  676.01   22.13   1
   5  -9  -2  315.90    9.02   1
   5 -11  -2  526.06   16.00   1
   5  -9  -3   37.88    3.22   1
   5  -7  -3  703.41   18.95   1
   5  -5  -3   27.19    2.87   1
   5  -3  -3  540.41   16.90   1
   5  -1  -3  490.18   14.18   1
   6   0  -2  914.07   24.80   1
   6   0  -1  348.09   10.11   1
   6  -2  -1   70.26    3.41   1
   6  -4  -1  689.91   21.34   1
   6  -6  -1  204.09    5.80   1
   6  -6   0  494.96   13.26   1
   6  -4   0  259.79    7.01   1
   6  -2   0   32.58    2.86   1
   6   0   0 1083.92   26.79   1
   6   0   1  350.11    9.07   1
   6  -2   1   64.05    3.48   1
   6  -4   1  658.61   21.18   1
   6  -6   1  200.34    5.28   1
   6   0   2  979.60   25.47   1
   0   0   0    0.00    0.00   0
;
_shelx_hkl_checksum              45196
loop_
_space_group_symop_operation_xyz
'x, y, z'
'-x, -y, z'
'-x, y, -z'
'x, -y, -z'
'x+1/2, y+1/2, z'
'-x+1/2, -y+1/2, z'
'-x+1/2, y+1/2, -z'
'x+1/2, -y+1/2, -z'
'-x, -y, -z'
'x, y, -z'
'x, -y, z'
'-x, y, z'
'-x+1/2, -y+1/2, -z'
'x+1/2, y+1/2, -z'
'x+1/2, -y+1/2, z'
'-x+1/2, y+1/2, z'
loop_
_atom_site_label
_atom_site_type_symbol
_atom_site_fract_x
_atom_site_fract_y
_atom_site_fract_z
_atom_site_U_iso_or_equiv
_atom_site_adp_type
_atom_site_occupancy
_atom_site_site_symmetry_order
_atom_site_calc_flag
_atom_site_refinement_flags_posn
_atom_site_refinement_flags_adp
_atom_site_refinement_flags_occupancy
Cr Cr 0.5000 0.64686(2) 0.0000 0.00235(4) Uani 1 4 d S T P
Al Al 0.0000 0.5000 0.5000 0.00396(7) Uani 1 8 d S T P
B B 0.0000 0.29401(8) 0.5000 0.00379(12) Uani 1 4 d S T P
loop_
_atom_site_aniso_label
_atom_site_aniso_U_11
_atom_site_aniso_U_22
_atom_site_aniso_U_33
_atom_site_aniso_U_23
_atom_site_aniso_U_13
_atom_site_aniso_U_12
Cr 0.00275(6) 0.00295(5) 0.00135(6) 0.000 0.000 0.000
Al 0.00509(15) 0.00321(12) 0.00359(13) 0.000 0.000 0.000
B 0.0037(3) 0.0048(3) 0.0028(2) 0.000 0.000 0.000
loop_
_atom_type_symbol
_atom_type_description
_atom_type_scat_dispersion_real
_atom_type_scat_dispersion_imag
_atom_type_scat_source
B B 0.0013 0.0007 'International Tables Vol C Tables 4.2.6.8 and 6.1.1.4'
Al Al 0.0645 0.0514 'International Tables Vol C Tables 4.2.6.8 and 6.1.1.4'
Cr Cr 0.3209 0.6236 'International Tables Vol C Tables 4.2.6.8 and 6.1.1.4'
loop_
_geom_angle_atom_site_label_1
_geom_angle_atom_site_label_2
_geom_angle_atom_site_label_3
_geom_angle
_geom_angle_site_symmetry_1
_geom_angle_site_symmetry_3
B Cr B 145.23(4) 9_666 9_565
B Cr B 84.343(14) 9_666 9_566
B Cr B 85.415(15) 9_565 9_566
B Cr B 85.415(15) 9_666 9_665
B Cr B 84.343(14) 9_565 9_665
B Cr B 145.23(4) 9_566 9_665
B Cr B 47.32(2) 9_666 5
B Cr B 103.678(10) 9_565 5
B Cr B 47.32(2) 9_566 5
B Cr B 103.678(10) 9_665 5
B Cr B 103.678(10) 9_666 5_554
B Cr B 47.32(2) 9_565 5_554
B Cr B 103.678(10) 9_566 5_554
B Cr B 47.32(2) 9_665 5_554
B Cr B 84.75(3) 5 5_554
B Cr Al 159.52(2) 9_666 1_554
B Cr Al 55.24(2) 9_565 1_554
B Cr Al 101.015(14) 9_566 1_554
B Cr Al 100.117(14) 9_665 1_554
B Cr Al 146.262(4) 5 1_554
B Cr Al 94.313(14) 5_554 1_554
B Cr Al 100.117(14) 9_666 .
B Cr Al 101.015(14) 9_565 .
B Cr Al 55.24(2) 9_566 .
B Cr Al 159.52(2) 9_665 .
B Cr Al 94.313(14) 5 .
B Cr Al 146.262(4) 5_554 .
Al Cr Al 68.265(7) 1_554 .
B Cr Al 101.015(14) 9_666 1_654
B Cr Al 100.117(14) 9_565 1_654
B Cr Al 159.52(2) 9_566 1_654
B Cr Al 55.24(2) 9_665 1_654
B Cr Al 146.262(4) 5 1_654
B Cr Al 94.313(14) 5_554 1_654
Al Cr Al 67.476(7) 1_554 1_654
Al Cr Al 104.278(8) . 1_654
B Cr Al 55.24(2) 9_666 1_655
B Cr Al 159.52(2) 9_565 1_655
B Cr Al 100.117(14) 9_566 1_655
B Cr Al 101.015(14) 9_665 1_655
B Cr Al 94.312(14) 5 1_655
B Cr Al 146.262(4) 5_554 1_655
Al Cr Al 104.278(8) 1_554 1_655
Al Cr Al 67.476(7) . 1_655
Al Cr Al 68.265(7) 1_654 1_655
B Cr Cr 52.068(19) 9_666 13_665
B Cr Cr 96.46(2) 9_565 13_665
B Cr Cr 96.46(2) 9_566 13_665
B Cr Cr 52.068(19) 9_665 13_665
B Cr Cr 51.610(12) 5 13_665
B Cr Cr 51.610(12) 5_554 13_665
Al Cr Cr 144.760(4) 1_554 13_665
Al Cr Cr 144.760(4) . 13_665
Al Cr Cr 102.425(7) 1_654 13_665
Al Cr Cr 102.425(7) 1_655 13_665
B Cr Cr 96.46(2) 9_666 13_565
B Cr Cr 52.068(19) 9_565 13_565
B Cr Cr 52.068(19) 9_566 13_565
B Cr Cr 96.46(2) 9_665 13_565
B Cr Cr 51.610(12) 5 13_565
B Cr Cr 51.610(12) 5_554 13_565
Al Cr Cr 102.425(7) 1_554 13_565
Al Cr Cr 102.425(7) . 13_565
Al Cr Cr 144.760(4) 1_654 13_565
Al Cr Cr 144.760(4) 1_655 13_565
Cr Cr Cr 65.581(9) 13_665 13_565
B Al B 180.0 . 9_566
B Al Cr 127.861(4) . .
B Al Cr 52.139(4) 9_566 .
B Al Cr 52.138(4) . 9_565
B Al Cr 127.862(4) 9_566 9_565
Cr Al Cr 111.735(7) . 9_565
B Al Cr 127.862(4) . 1_556
B Al Cr 52.138(4) 9_566 1_556
Cr Al Cr 68.265(7) . 1_556
Cr Al Cr 180.0 9_565 1_556
B Al Cr 52.138(4) . 9_665
B Al Cr 127.862(4) 9_566 9_665
Cr Al Cr 75.723(8) . 9_665
Cr Al Cr 67.476(7) 9_565 9_665
Cr Al Cr 112.524(7) 1_556 9_665
B Al Cr 127.862(4) . 1_456
B Al Cr 52.138(4) 9_566 1_456
Cr Al Cr 104.277(8) . 1_456
Cr Al Cr 112.524(7) 9_565 1_456
Cr Al Cr 67.476(7) 1_556 1_456
Cr Al Cr 180.0 9_665 1_456
B Al Cr 127.862(4) . 1_455
B Al Cr 52.138(4) 9_566 1_455
Cr Al Cr 67.476(7) . 1_455
Cr Al Cr 75.723(8) 9_565 1_455
Cr Al Cr 104.277(8) 1_556 1_455
Cr Al Cr 111.735(7) 9_665 1_455
Cr Al Cr 68.265(7) 1_456 1_455
B Al Cr 52.138(4) . 9_566
B Al Cr 127.862(4) 9_566 9_566
Cr Al Cr 180.0 . 9_566
Cr Al Cr 68.265(7) 9_565 9_566
Cr Al Cr 111.735(7) 1_556 9_566
Cr Al Cr 104.277(8) 9_665 9_566
Cr Al Cr 75.723(8) 1_456 9_566
Cr Al Cr 112.524(7) 1_455 9_566
B Al Cr 52.138(4) . 9_666
B Al Cr 127.862(4) 9_566 9_666
Cr Al Cr 112.524(7) . 9_666
Cr Al Cr 104.277(8) 9_565 9_666
Cr Al Cr 75.723(8) 1_556 9_666
Cr Al Cr 68.265(7) 9_665 9_666
Cr Al Cr 111.735(7) 1_456 9_666
Cr Al Cr 180.0 1_455 9_666
Cr Al Cr 67.476(7) 9_566 9_666
B Al Al 90.0 . 1_655
B Al Al 90.0 9_566 1_655
Cr Al Al 56.262(3) . 1_655
Cr Al Al 123.738(4) 9_565 1_655
Cr Al Al 56.262(4) 1_556 1_655
Cr Al Al 56.262(4) 9_665 1_655
Cr Al Al 123.738(4) 1_456 1_655
Cr Al Al 123.738(3) 1_455 1_655
Cr Al Al 123.738(3) 9_566 1_655
Cr Al Al 56.262(4) 9_666 1_655
B Al Al 90.0 . 1_455
B Al Al 90.0 9_566 1_455
Cr Al Al 123.738(4) . 1_455
Cr Al Al 56.262(4) 9_565 1_455
Cr Al Al 123.738(4) 1_556 1_455
Cr Al Al 123.738(4) 9_665 1_455
Cr Al Al 56.262(4) 1_456 1_455
Cr Al Al 56.262(4) 1_455 1_455
Cr Al Al 56.262(4) 9_566 1_455
Cr Al Al 123.738(3) 9_666 1_455
Al Al Al 180.0 1_655 1_455
B B B 112.97(9) 13_456 13_556
B B Cr 136.442(19) 13_456 9_666
B B Cr 66.748(16) 13_556 9_666
B B Cr 66.748(16) 13_456 9_565
B B Cr 136.442(19) 13_556 9_565
Cr B Cr 145.24(4) 9_666 9_565
B B Cr 66.748(16) 13_456 9_566
B B Cr 136.442(19) 13_556 9_566
Cr B Cr 84.344(14) 9_666 9_566
Cr B Cr 85.416(15) 9_565 9_566
B B Cr 136.442(19) 13_456 9_665
B B Cr 66.748(16) 13_556 9_665
Cr B Cr 85.416(15) 9_666 9_665
Cr B Cr 84.344(14) 9_565 9_665
Cr B Cr 145.24(4) 9_566 9_665
B B Cr 65.93(4) 13_456 5_445
B B Cr 65.93(4) 13_556 5_445
Cr B Cr 132.67(2) 9_666 5_445
Cr B Cr 76.321(11) 9_565 5_445
Cr B Cr 132.67(2) 9_566 5_445
Cr B Cr 76.321(10) 9_665 5_445
B B Cr 65.93(4) 13_456 5_446
B B Cr 65.93(4) 13_556 5_446
Cr B Cr 76.321(10) 9_666 5_446
Cr B Cr 132.67(2) 9_565 5_446
Cr B Cr 76.321(10) 9_566 5_446
Cr B Cr 132.67(2) 9_665 5_446
Cr B Cr 84.75(3) 5_445 5_446
B B Al 123.52(5) 13_456 .
B B Al 123.52(5) 13_556 .
Cr B Al 72.62(2) 9_666 .
Cr B Al 72.62(2) 9_565 .
Cr B Al 72.62(2) 9_566 .
Cr B Al 72.62(2) 9_665 .
Cr B Al 137.623(15) 5_445 .
Cr B Al 137.623(15) 5_446 .
loop_
_geom_bond_atom_site_label_1
_geom_bond_atom_site_label_2
_geom_bond_distance
_geom_bond_site_symmetry_2
Cr B 2.1876(3) 9_666
Cr B 2.1876(3) 9_565
Cr B 2.1876(3) 9_566
Cr B 2.1876(3) 9_665
Cr B 2.2014(6) 5
Cr B 2.2014(6) 5_554
Cr Al 2.64432(17) 1_554
Cr Al 2.64432(17) .
Cr Al 2.64432(17) 1_654
Cr Al 2.64432(17) 1_655
Cr Cr 2.7118(3) 13_665
Cr Cr 2.7118(3) 13_565
Al B 2.2765(9) .
Al B 2.2765(9) 9_566
Al Cr 2.64433(18) 9_565
Al Cr 2.64433(17) 1_556
Al Cr 2.64433(18) 9_665
Al Cr 2.64433(18) 1_456
Al Cr 2.64433(17) 1_455
Al Cr 2.64433(17) 9_566
Al Cr 2.64433(17) 9_666
Al Al 2.9373(3) 1_655
Al Al 2.9373(3) 1_455
B B 1.7616(9) 13_456
B B 1.7616(9) 13_556
B Cr 2.1876(3) 9_666
B Cr 2.1876(3) 9_565
B Cr 2.1876(3) 9_566
B Cr 2.1876(3) 9_665
B Cr 2.2014(6) 5_445
B Cr 2.2014(6) 5_446
