#------------------------------------------------------------------------------
#$Date: 2015-08-05 21:43:43 +0300 (Wed, 05 Aug 2015) $
#$Revision: 152825 $
#$URL: svn://www.crystallography.net/cod/cif/4/34/34/4343453.cif $
#------------------------------------------------------------------------------
#
# This file is available in the Crystallography Open Database (COD),
# http://www.crystallography.net/
#
# All data on this site have been placed in the public domain by the
# contributors.
#
data_4343453
loop_
_publ_author_name
'Huang, Chun-Zuo'
'Liu, Biao'
'Wen, Lei'
'Zhuang, Rong-Chuan'
'Zhao, Jing-Tai'
'Pan, Yuanming'
'Mi, Jin-Xiao'
'Huang, Ya-Xi'
_publ_section_title
;
 Dimensional Reduction From 2D Layer to 1D Band for Germanophosphates
 Induced by the &quot;Tailor Effect&quot; of Fluoride.
;
_journal_issue                   14
_journal_name_full               'Inorganic chemistry'
_journal_page_first              6978
_journal_page_last               6985
_journal_paper_doi               10.1021/acs.inorgchem.5b00973
_journal_volume                  54
_journal_year                    2015
_chemical_formula_sum            'Fe Ge H3 K O10 P2'
_chemical_formula_weight         392.50
_space_group_crystal_system      triclinic
_space_group_IT_number           2
_space_group_name_Hall           '-P 1'
_space_group_name_H-M_alt        'P -1'
_symmetry_space_group_name_Hall  '-P 1'
_symmetry_space_group_name_H-M   'P -1'
_atom_sites_solution_hydrogens   difmap
_audit_creation_method           SHELXL-2014/7
_cell_angle_alpha                102.384(3)
_cell_angle_beta                 97.350(3)
_cell_angle_gamma                92.227(3)
_cell_formula_units_Z            1
_cell_length_a                   4.4538(9)
_cell_length_b                   6.2232(13)
_cell_length_c                   7.8158(17)
_cell_measurement_reflns_used    2393
_cell_measurement_temperature    173(2)
_cell_measurement_theta_max      28.206
_cell_measurement_theta_min      2.695
_cell_volume                     209.36(8)
_computing_cell_refinement       'SAINT (Bruker, 2001)'
_computing_data_collection       'SAINT (Bruker, 2001)'
_computing_data_reduction        'SAINT (Bruker, 2001)'
_computing_molecular_graphics    'DIAMOND (Brandenburg, 2005) '
_computing_publication_material
'SHELXL-2014/7 (Sheldrick, 2014) and WinGX (Farrugia, 2014)'
_computing_structure_refinement  'SHELXL-2014/7 (Sheldrick, 2014)'
_computing_structure_solution    'SHELXL-2014/7 (Sheldrick, 2014)'
_diffrn_ambient_temperature      173(2)
_diffrn_measured_fraction_theta_full 0.990
_diffrn_measured_fraction_theta_max 0.907
_diffrn_radiation_type           MoK\a
_diffrn_radiation_wavelength     0.71073
_diffrn_reflns_av_R_equivalents  0.0126
_diffrn_reflns_av_unetI/netI     0.0205
_diffrn_reflns_laue_measured_fraction_full 0.990
_diffrn_reflns_laue_measured_fraction_max 0.907
_diffrn_reflns_limit_h_max       5
_diffrn_reflns_limit_h_min       -5
_diffrn_reflns_limit_k_max       7
_diffrn_reflns_limit_k_min       -8
_diffrn_reflns_limit_l_max       10
_diffrn_reflns_limit_l_min       -9
_diffrn_reflns_number            2393
_diffrn_reflns_point_group_measured_fraction_full 0.990
_diffrn_reflns_point_group_measured_fraction_max 0.907
_diffrn_reflns_theta_full        25.242
_diffrn_reflns_theta_max         28.206
_diffrn_reflns_theta_min         2.695
_exptl_absorpt_coefficient_mu    6.241
_exptl_absorpt_correction_type   multi-scan
_exptl_absorpt_process_details   'SMART (Bruker, 2001)'
_exptl_crystal_colour            colorless
_exptl_crystal_density_diffrn    3.113
_exptl_crystal_density_method    'not measured'
_exptl_crystal_description       prism
_exptl_crystal_F_000             190
_exptl_crystal_size_max          0.110
_exptl_crystal_size_mid          0.070
_exptl_crystal_size_min          0.040
_exptl_transmission_factor_max   0.779
_exptl_transmission_factor_min   0.598
_refine_diff_density_max         0.656
_refine_diff_density_min         -0.458
_refine_diff_density_rms         0.136
_refine_ls_extinction_method     none
_refine_ls_goodness_of_fit_ref   1.122
_refine_ls_hydrogen_treatment    refxyz
_refine_ls_matrix_type           full
_refine_ls_number_parameters     83
_refine_ls_number_reflns         935
_refine_ls_number_restraints     2
_refine_ls_restrained_S_all      1.121
_refine_ls_R_factor_all          0.0306
_refine_ls_R_factor_gt           0.0298
_refine_ls_shift/su_max          0.000
_refine_ls_shift/su_mean         0.000
_refine_ls_structure_factor_coef Fsqd
_refine_ls_weighting_details
'w=1/[\s^2^(Fo^2^)+(0.0273P)^2^+0.9706P] where P=(Fo^2^+2Fc^2^)/3'
_refine_ls_weighting_scheme      calc
_refine_ls_wR_factor_gt          0.0701
_refine_ls_wR_factor_ref         0.0706
_reflns_Friedel_coverage         0.000
_reflns_number_gt                908
_reflns_number_total             935
_reflns_threshold_expression     'I > 2\s(I)'
_cod_data_source_file            ic5b00973_si_002.cif
_cod_data_source_block           P-1
_cod_depositor_comments
;
The following automatic conversions were performed:

'_exptl_absorpt_correction_type' value 'multi scan' changed to
'multi-scan' according to
/usr/data/users/saulius/crontab/automatic-downloads/rss-feeds/ACS/lib/dictionaries/cif_core.dic
dictionary named 'cif_core.dic' version 2.4.2 from 2011-04-26.

Automatic conversion script
Id: cif_fix_values 3271 2015-04-21 07:52:19Z andrius 

 Adding full bibliography for 4343450--4343453.cif.
;
_cod_database_code               4343453
_shelx_shelxl_version_number     2014/7
_shelx_space_group_comment
;
The symmetry employed for this shelxl refinement is uniquely defined
by the following loop, which should always be used as a source of
symmetry information in preference to the above space-group names.
They are only intended as comments.
;
_shelx_estimated_absorpt_t_min   0.547
_shelx_estimated_absorpt_t_max   0.788
_shelx_res_file
;

    shelx.res created by SHELXL-2014/7


TITL  kfegepo2 in P -1
CELL   0.71073   4.4538   6.2232   7.8158 102.384  97.350  92.227
ZERR     1       0.0009   0.0013   0.0017   0.003   0.003   0.003
LATT   1
SFAC  H    Fe   K    Ge   O    P
UNIT  3    1    1    1    10   2
OMIT -3 2 1
OMIT 0 -2 6
TEMP -100
SIZE 0.11 0.07 0.04
L.S. 8
BOND $H
HTAB
FMAP 2
PLAN 10
ACTA
DFIX O2 HO2 0.82 0.02
DFIX O5 HO5 0.82 0.02
WGHT    0.027300    0.970600
FVAR       1.11865   0.59963
MOLE   1
GE1   4    0.500000    0.000000    0.500000    10.50000    0.00677    0.00655 =
         0.00879    0.00252    0.00122    0.00100
FE1   2    0.500000    0.500000    0.500000    10.50000    0.00812    0.00686 =
         0.01074    0.00351    0.00233    0.00102
P1    6    0.076281    0.296476    0.726381    11.00000    0.00764    0.00743 =
         0.00760    0.00155    0.00088    0.00081
O1    5    0.769898    0.254600    0.595926    11.00000    0.00881    0.00803 =
         0.01281    0.00332    0.00011   -0.00116
O2    5    0.008975    0.310765    0.915879    11.00000    0.02067    0.01151 =
         0.00889    0.00166    0.00496    0.00160
O3    5    0.242026    0.499907    0.700522    11.00000    0.01129    0.00990 =
         0.01469    0.00238    0.00339    0.00046
O4    5    0.251591    0.084039    0.681880    11.00000    0.00878    0.01028 =
         0.01067    0.00366    0.00212    0.00282
O5    5    0.311329    0.176834    0.362828    11.00000    0.00753    0.01088 =
         0.01193    0.00446    0.00072   -0.00096
K1    3    0.473710   -0.035502    0.992199    10.50000    0.02120    0.05872 =
         0.02587    0.03090    0.00472    0.00765
HO2   1    0.020270    0.439399    0.969673    10.50000   10.05000
HO5   1    0.129744    0.151017    0.341077    11.00000   10.05000

HKLF  4

REM   kfegepo2 in P -1
REM R1 =  0.0298 for     908 Fo > 4sig(Fo)  and  0.0306 for all     935 data
REM     83 parameters refined using      2 restraints

END

WGHT      0.0272      0.9717

REM Instructions for potential hydrogen bonds
EQIV $1 -x, -y+1, -z+2
HTAB O2 O2_$1
EQIV $2 -x, -y, -z+1
HTAB O5 O4_$2

REM Highest difference peak  0.656,  deepest hole -0.458,  1-sigma level  0.136
Q1    1   0.9065  0.2479  0.6417  11.00000  0.05    0.66
Q2    1   0.5137  0.6310  0.5646  11.00000  0.05    0.55
Q3    1   0.1441  0.3243  0.8534  11.00000  0.05    0.52
Q4    1   0.0858  0.0447  0.6407  11.00000  0.05    0.51
Q5    1  -0.0089  0.3369  0.8213  11.00000  0.05    0.50
Q6    1   0.3179 -0.0585  0.4174  11.00000  0.05    0.49
Q7    1   0.3334  0.4567  0.4398  11.00000  0.05    0.45
Q8    1   0.5171  0.1525  0.5623  11.00000  0.05    0.44
Q9    1   0.4191  0.1573  0.7227  11.00000  0.05    0.43
Q10   1   0.3172  0.0449  0.5684  11.00000  0.05    0.42
;
_shelx_res_checksum              47843
_shelx_hkl_file
;
   1   0   0 1343.91   29.94   3
  -1   0   0 1401.28   17.42   4
   1   0   0 1423.88   29.04   2
  -1   0   0 1401.28   17.42   1
  -2   0   0 1664.60   23.36   4
   2   0   0 1644.94   36.36   2
  -2   0   0 1664.60   23.36   1
   2   0   0 1698.82   40.06   3
  -3   0   0  918.80   19.11   1
  -3   0   0  918.80   19.11   4
   3   0   0 1104.31   32.20   3
   3   0   0 1135.25   27.65   2
  -4   0   0 2405.23   37.98   1
  -4   0   0 2405.23   37.98   4
   4   0   0 2306.51   61.85   3
  -5   0   0 1142.43   26.35   1
  -5   0   0 1142.43   26.35   4
   5   0   0 1194.59   44.29   3
  -5   1   0   15.64    3.33   1
  -5   1   0   15.64    3.33   4
  -4   1   0  895.88   20.16   4
  -4   1   0  895.88   20.16   1
   3  -1   0   23.97    4.46   3
   3  -1   0   19.06    3.97   2
  -3   1   0   17.44    2.89   1
  -3   1   0   17.44    2.89   4
   2  -1   0  289.97   11.47   3
  -2   1   0  290.87    7.64   1
  -2   1   0  290.87    7.64   4
   2  -1   0  276.98   12.24   2
  -1   1   0  416.96   10.68   3
  -1   1   0  416.62    7.47   1
  -1   1   0  416.62    7.47   4
   1  -1   0  434.41   13.99   2
   0  -1   0  215.82    4.07   1
   0   1   0  214.34    6.61   3
   0  -1   0  215.82    4.07   4
   0  -1   0  214.94    7.16   2
  -1  -1   0 2957.36   33.30   4
   1   1   0 2894.54   59.51   3
  -1  -1   0 2957.36   33.30   1
  -2  -1   0    1.28    1.03   4
   2   1   0   -0.54    1.28   3
  -2  -1   0    1.28    1.03   1
  -3  -1   0  768.94   16.25   1
  -3  -1   0  768.94   16.25   4
  -4  -1   0  132.88    6.91   1
  -4  -1   0  132.88    6.91   4
   4   1   0  137.51   11.88   3
   5   1   0  172.24   15.38   3
  -5  -1   0  174.95    8.71   4
  -5  -1   0  174.95    8.71   1
  -5   2   0  548.13   16.84   4
  -5   2   0  548.13   16.84   1
  -4   2   0 1193.61   24.60   4
  -4   2   0 1193.61   24.60   1
   4  -2   0 1182.39   38.56   2
   3  -2   0 4774.92  105.46   2
  -3   2   0 4762.39   59.12   4
   3  -2   0 5061.63   98.14   3
  -3   2   0 4762.39   59.12   1
  -2   2   0  555.27   11.84   1
  -2   2   0  565.65   15.54   3
  -2   2   0  555.27   11.84   4
   2  -2   0  544.95   21.05   2
  -1   2   0 5446.76   59.05   1
  -1   2   0 5446.76   59.05   4
  -1   2   0 5570.45  100.26   3
   1  -2   0 5436.52  110.40   2
   0   2   0 1303.98   29.04   3
   0  -2   0 1266.36   17.46   1
   0  -2   0 1266.36   17.46   4
   0  -2   0 1293.51   31.31   2
  -1  -2   0 9907.24  184.44   2
  -1  -2   0 9930.07  102.89   1
  -1  -2   0 9930.08  102.89   4
   1   2   0 9999.57  186.15   3
  -2  -2   0 2289.00   30.56   1
  -2  -2   0 2289.00   30.56   4
   2   2   0 2153.82   54.83   3
  -3  -2   0  822.02   17.71   4
   3   2   0  781.05   30.71   3
  -3  -2   0  822.02   17.71   1
   4   2   0 1446.41   50.58   3
  -4  -2   0 1456.25   28.38   1
  -4  -2   0 1456.25   28.38   4
  -5  -2   0  225.59   10.78   4
  -5  -2   0  225.59   10.78   1
   5   2   0  204.69   17.79   3
  -5   3   0   65.36    6.33   1
  -5   3   0   65.36    6.33   4
   4  -3   0   19.76    5.15   2
  -4   3   0   19.11    3.03   4
  -4   3   0   19.11    3.03   1
  -3   3   0  944.84   19.35   4
   3  -3   0  958.87   35.03   2
  -3   3   0  944.84   19.35   1
  -2   3   0 1186.17   20.04   4
  -2   3   0 1180.90   26.29   3
   2  -3   0 1193.05   37.78   2
  -2   3   0 1186.17   20.04   1
  -1   3   0  569.98   14.12   3
  -1   3   0  515.69   11.09   4
  -1   3   0  515.69   11.09   1
   1  -3   0  551.44   21.49   2
   0   3   0  335.94   13.09   3
   0  -3   0  335.94    8.52   1
   0  -3   0  335.94    8.52   4
   0  -3   0  324.85   14.15   2
   1   3   0   -1.29    1.21   3
  -1  -3   0    0.71    1.06   1
  -1  -3   0    0.71    1.06   4
  -1  -3   0    3.18    1.42   2
  -2  -3   0 1731.91   26.89   4
   2   3   0 1729.20   49.40   3
  -2  -3   0 1731.91   26.89   1
   3   3   0  170.49   14.23   3
  -3  -3   0  184.86    7.89   1
  -3  -3   0  184.86    7.89   4
  -4  -3   0  138.21    7.32   1
   4   3   0  119.97   14.87   3
  -4  -3   0  138.21    7.32   4
  -5  -3   0   44.57    5.63   1
  -5  -3   0   44.57    5.63   4
   5   3   0   31.47    7.07   3
  -5   4   0  202.30   10.18   4
  -5   4   0  202.30   10.18   1
  -4   4   0 1685.81   31.34   4
   4  -4   0 1602.47   54.66   2
  -4   4   0 1685.81   31.34   1
  -3   4   0  683.12   16.79   4
   3  -4   0  678.87   31.05   2
  -3   4   0  683.12   16.79   1
  -2   4   0 2786.87   38.81   1
  -2   4   0 2786.87   38.81   4
   2  -4   0 2757.92   72.88   2
  -1   4   0  841.15   16.05   4
  -1   4   0  841.15   16.05   1
   0  -4   0 3734.36   46.69   1
   0  -4   0 3705.85   83.93   2
   0   4   0 3640.22   77.22   3
   0  -4   0 3734.37   46.69   4
   1   4   0 1460.52   42.22   3
  -1  -4   0 1458.91   38.47   2
  -1  -4   0 1449.97   23.96   1
  -1  -4   0 1449.97   23.96   4
  -2  -4   0  283.21    9.90   4
  -2  -4   0  283.21    9.90   1
   2   4   0  275.87   17.18   3
  -3  -4   0 1736.92   31.10   4
  -3  -4   0 1736.92   31.10   1
   3   4   0 1683.80   55.23   3
  -4  -4   0  347.85   13.07   1
  -4  -4   0  347.85   13.07   4
   4   4   0  376.14   24.47   3
   4  -5   0   10.60    3.99   2
  -4   5   0    9.14    2.00   4
  -4   5   0    9.14    2.00   1
  -3   5   0   41.27    4.37   1
  -3   5   0   41.27    4.37   4
   3  -5   0   33.93    7.69   2
  -2   5   0   16.23    2.71   4
   2  -5   0   14.83    4.12   2
  -2   5   0   16.23    2.71   1
   1  -5   0 1166.18   41.34   2
  -1   5   0 1163.44   21.42   4
  -1   5   0 1163.44   21.42   1
   0  -5   0  378.70   19.45   2
   0  -5   0  394.86   11.25   1
   0  -5   0  394.85   11.25   4
   1   5   0  400.79   20.09   3
  -1  -5   0  392.94   11.90   4
  -1  -5   0  392.94   11.90   1
   2   5   0   14.50    4.49   3
  -2  -5   0    6.68    2.05   4
  -2  -5   0    6.68    2.05   1
  -3  -5   0  113.35    8.32   1
   3   5   0   98.86   13.51   3
  -3  -5   0  113.35    8.32   4
  -4  -5   0    0.78    2.09   1
  -4  -5   0    0.78    2.09   4
   4   5   0    9.05    3.01   3
  -4   6   0  143.15    7.94   1
  -4   6   0  143.15    7.94   4
  -3   6   0 1070.03   24.88   4
   3  -6   0 1072.28   46.85   2
  -3   6   0 1070.03   24.88   1
  -2   6   0  505.70   15.00   1
  -2   6   0  505.70   15.00   4
   2  -6   0  468.68   27.46   2
   1  -6   0  888.74   37.60   2
  -1   6   0  941.32   20.32   1
  -1   6   0  941.32   20.32   4
   0   6   0 1135.49   23.58   4
   0   6   0 1135.49   23.58   1
   0  -6   0 1086.60   40.27   2
  -1  -6   0  444.44   14.24   1
  -1  -6   0  444.44   14.24   4
  -2  -6   0 1443.38   29.70   1
  -2  -6   0 1443.38   29.70   4
   2   6   0 1476.57   51.41   3
   3   6   0   26.69    6.11   3
  -3  -6   0   14.28    2.98   1
  -3  -6   0   14.28    2.98   4
  -3   7   0    2.20    1.92   1
  -3   7   0    2.20    1.92   4
  -2   7   0  365.99   13.20   4
   2  -7   0  399.99   26.66   2
  -2   7   0  365.99   13.20   1
  -1   7   0  175.79    8.57   4
   1  -7   0  186.66   15.79   2
  -1   7   0  175.79    8.57   1
   0   7   0   95.63    7.12   4
   0   7   0   95.63    7.12   1
  -1  -7   0    3.44    1.75   4
  -1  -7   0    3.44    1.75   1
  -2  -7   0  128.54    7.68   1
  -2  -7   0  128.54    7.68   4
   1  -8   0  649.64   34.41   2
   1  -8   1  114.49   11.98   2
  -2  -7   1  514.51   17.22   1
  -2  -7   1  514.51   17.22   4
  -1  -7   1    7.81    1.97   4
  -1  -7   1    7.81    1.97   1
   0   7  -1    8.76    1.78   4
   0   7  -1    8.76    1.78   1
   1  -7   1  125.08   13.02   2
  -1   7  -1  113.43    7.87   1
  -1   7  -1  113.43    7.87   4
  -2   7  -1   21.84    3.03   1
  -2   7  -1   21.84    3.03   4
   2  -7   1   30.88    6.92   2
  -3   7  -1  363.80   13.99   1
  -3   7  -1  363.80   13.99   4
   3   6  -1  455.98   26.55   3
  -3  -6   1  410.43   14.50   4
  -3  -6   1  410.42   14.50   1
   2   6  -1  636.62   30.08   3
  -2  -6   1  618.36   17.70   4
  -2  -6   1  618.36   17.70   1
  -1  -6   1 1837.74   32.99   1
  -1  -6   1 1837.74   32.99   4
   0  -6   1   69.92    9.92   2
   0   6  -1   81.12    6.19   1
   0   6  -1   81.12    6.19   4
   1  -6   1 1890.17   60.48   2
  -1   6  -1 1923.63   32.94   4
  -1   6  -1 1923.63   32.94   1
  -2   6  -1  112.88    6.62   1
   2  -6   1  134.36   13.51   2
  -2   6  -1  112.88    6.62   4
   3  -6   1  706.40   36.60   2
  -3   6  -1  742.81   20.12   1
  -3   6  -1  742.81   20.12   4
  -4   6  -1  340.21   13.57   1
  -4   6  -1  340.21   13.57   4
  -4  -5   1   39.25    4.43   1
  -4  -5   1   39.25    4.43   4
   4   5  -1   36.08    7.68   3
   3   5  -1   71.51   11.45   3
  -3  -5   1   50.06    5.60   1
  -3  -5   1   50.06    5.60   4
  -2  -5   1   63.29    5.51   4
  -2  -5   1   63.29    5.51   1
   2   5  -1   66.99    9.48   3
  -1  -5   1  222.11    8.76   4
  -1  -5   1  222.11    8.76   1
   0   5  -1  164.17    7.37   4
   0   5  -1  164.17    7.37   1
   0  -5   1  179.87   12.87   2
   1  -5   1  188.33   14.34   2
  -1   5  -1  174.66    7.47   4
  -1   5  -1  174.66    7.47   1
   2  -5   1  104.07   11.20   2
  -2   5  -1  117.13    6.35   4
  -2   5  -1  117.13    6.35   1
  -3   5  -1  143.21    7.60   1
   3  -5   1  151.63   14.25   2
  -3   5  -1  143.21    7.60   4
  -4   5  -1  237.84   10.50   4
  -4   5  -1  237.84   10.50   1
   4  -5   1  212.53   17.34   2
   4   4  -1 1121.44   47.59   3
  -4  -4   1 1162.98   25.73   1
  -4  -4   1 1162.98   25.73   4
  -3  -4   1  398.50   12.51   4
   3   4  -1  359.68   22.30   3
  -3  -4   1  398.50   12.51   1
  -2  -4   1  973.90   19.97   4
  -2  -4   1  973.90   19.97   1
   2   4  -1 1035.61   36.19   3
  -1  -4   1  131.90    9.25   2
   1   4  -1  138.89   10.15   3
  -1  -4   1  132.95    6.10   1
  -1  -4   1  132.95    6.10   4
   0   4  -1 5544.61  107.83   3
   0  -4   1 5616.47   64.75   1
   0  -4   1 5616.47   64.75   4
   0  -4   1 5607.65  118.48   2
  -1   4  -1  305.09    9.24   1
  -1   4  -1  305.09    9.24   4
   2  -4   1  711.23   29.86   2
  -2   4  -1  719.01   16.00   4
  -2   4  -1  719.01   16.00   1
  -3   4  -1  584.88   15.90   1
   3  -4   1  611.85   28.78   2
  -3   4  -1  584.88   15.90   4
  -4   4  -1  282.86   11.35   4
  -4   4  -1  282.86   11.35   1
   4  -4   1  301.11   19.78   2
  -5   4  -1  525.40   17.84   1
  -5   4  -1  525.40   17.84   4
  -5  -3   1   33.84    4.14   1
   5   3  -1   17.65    4.84   3
  -5  -3   1   33.84    4.14   4
  -4  -3   1  342.56   11.85   4
  -4  -3   1  342.56   11.85   1
   4   3  -1  291.07   20.60   3
  -3  -3   1  164.11    7.23   1
  -3  -3   1  164.11    7.23   4
   3   3  -1  168.65   13.18   3
   2   3  -1   19.06    4.57   3
  -2  -3   1   20.64    2.74   1
  -2  -3   1   20.64    2.74   4
   1   3  -1  536.20   18.93   3
  -1  -3   1  521.51   11.18   1
  -1  -3   1  521.51   11.18   4
  -1  -3   1  534.95   17.73   2
   0  -3   1  910.61   15.59   4
   0  -3   1  904.27   27.44   2
   0   3  -1  938.27   23.20   3
   0  -3   1  910.61   15.59   1
   1  -3   1   54.79    6.23   2
  -1   3  -1   51.69    3.16   4
  -1   3  -1   51.69    3.16   1
  -2   3  -1  395.48   10.70   1
  -2   3  -1  395.48   10.70   4
   3  -3   1  764.17   30.15   2
  -3   3  -1  774.68   17.49   1
  -3   3  -1  774.68   17.49   4
  -4   3  -1  290.67   11.56   4
   4  -3   1  332.43   19.13   2
  -4   3  -1  290.67   11.56   1
  -5   3  -1   15.63    3.28   1
  -5   3  -1   15.63    3.28   4
  -5  -2   1  218.58    9.94   4
  -5  -2   1  218.58    9.94   1
   5   2  -1  235.74   18.82   3
   4   2  -1  388.89   22.50   3
  -4  -2   1  399.17   12.87   1
  -4  -2   1  399.17   12.87   4
  -3  -2   1 3109.42   41.87   1
  -3  -2   1 3109.42   41.87   4
   3   2  -1 3043.39   74.37   3
  -2  -2   1  484.84   10.80   1
   2   2  -1  513.41   12.33   2
   2   2  -1  488.97   19.94   3
  -2  -2   1  484.84   10.80   4
  -1  -2   1 1337.07   18.49   1
  -1  -2   1 1337.07   18.49   4
   1   2  -1 1299.00   32.54   3
  -1  -2   1 1299.25   29.88   2
   0  -2   1  329.67    7.10   4
   0  -2   1  330.18   12.72   2
   0  -2   1  329.67    7.10   1
   0   2  -1  319.05    9.40   3
  -1   2  -1 3210.20   37.53   4
   1  -2   1 3168.38   69.24   2
  -1   2  -1 3210.20   37.53   1
   2  -2   1 1681.55   35.50   3
  -2   2  -1 1626.60   24.66   4
  -2   2  -1 1626.60   24.66   1
   2  -2   1 1593.41   42.91   2
  -3   2  -1   78.99    5.51   4
  -3   2  -1   78.99    5.51   1
   3  -2   1   85.16    6.61   3
  -4   2  -1 1673.49   31.26   1
  -4   2  -1 1673.49   31.26   4
  -5   2  -1   98.19    7.97   1
  -5   2  -1   98.19    7.97   4
  -5  -1   1   32.60    4.16   1
   5   1  -1   23.50    5.93   3
  -5  -1   1   32.60    4.16   4
  -4  -1   1   43.25    4.66   4
   4   1  -1   31.53    6.29   3
  -4  -1   1   43.25    4.66   1
  -3  -1   1    7.69    1.70   4
   3   1  -1    5.73    2.43   3
  -3  -1   1    7.69    1.70   1
  -2  -1   1   36.79    2.73   4
   2   1  -1   48.82    3.11   2
  -2  -1   1   36.79    2.73   1
   2   1  -1   45.35    5.65   3
  -1  -1   1 1228.70   28.88   3
  -1  -1   1 1196.97   15.64   1
  -1  -1   1 1196.97   15.64   4
   1   1  -1 1269.48   26.79   2
   0   1  -1 1632.57   18.74   4
   0  -1   1 1646.71   32.02   3
   0   1  -1 1632.57   18.74   1
   0  -1   1 1626.19   35.47   2
  -1   1  -1 3427.74   38.40   4
   1  -1   1 3404.13   64.74   3
   1  -1   1 3365.21   69.46   2
  -1   1  -1 3427.74   38.40   1
   2  -1   1    9.59    2.72   2
  -2   1  -1    3.94    1.34   1
  -2   1  -1    3.94    1.34   4
   2  -1   1    9.13    2.51   3
   3  -1   1  206.87   11.74   3
  -3   1  -1  190.14    7.95   4
  -3   1  -1  190.14    7.95   1
   3  -1   1  189.60   10.92   2
   4  -1   1  174.09   12.73   3
  -4   1  -1  180.52    8.58   4
  -4   1  -1  180.52    8.58   1
  -5   1  -1   21.12    3.14   4
  -5   1  -1   21.12    3.14   1
   5   0  -1  111.74   11.06   3
  -5   0   1  120.55    6.82   1
  -5   0   1  120.55    6.82   4
   4   0  -1 1479.26   46.03   3
  -4   0   1 1451.61   26.78   4
  -4   0   1 1451.61   26.78   1
  -3   0   1  561.13   13.09   4
  -3   0   1  561.13   13.09   1
   3   0  -1  575.86   18.96   2
   3   0  -1  573.97   22.97   3
   2   0  -1  689.96   19.60   2
  -2   0   1  703.00   12.39   1
  -2   0   1  703.00   12.39   4
  -2   0   1  695.65   21.74   3
   1   0  -1  970.74   22.81   2
  -1   0   1  956.46   12.31   4
  -1   0   1  956.46   12.31   1
  -1   0   1  966.99   23.14   3
   0   0  -1 4892.04   53.95   4
   0   0  -1 5078.28   94.33   2
   0   0   1 4931.68   91.05   3
   0   0  -1 4892.04   53.95   1
   1   0   1 5276.71   99.89   3
   1   0   1 5240.75   99.96   2
  -1   0  -1 5257.06   56.03   4
  -1   0  -1 5257.06   56.03   1
  -2   0  -1  295.93    8.16   1
  -2   0  -1  295.92    8.16   4
   2   0   1  293.76   10.59   2
   2   0   1  288.21   13.40   3
   3   0   1 1847.80   49.99   3
  -3   0  -1 1886.84   30.11   4
  -3   0  -1 1886.84   30.11   1
  -4   0  -1  284.47   11.11   4
   4   0   1  283.50   17.67   3
  -4   0  -1  284.47   11.11   1
  -5   0  -1 1447.67   31.14   1
  -5   0  -1 1447.67   31.14   4
   5   0   1 1374.79   49.80   3
  -5   1   1   11.53    2.42   1
  -5   1   1   11.53    2.42   4
   4  -1  -1   -1.85    1.40   3
  -4   1   1    1.03    1.25   1
  -4   1   1    1.03    1.25   4
   3  -1  -1   98.71    8.14   2
  -2   1   1  697.35   12.37   4
  -2   1   1  697.35   12.37   1
  -2   1   1  689.04   20.65   3
   2  -1  -1  694.05   22.21   2
  -1   1   1  915.57   21.93   3
   1  -1  -1  930.65   24.56   2
  -1   1   1  904.72   12.33   1
  -1   1   1  904.72   12.33   4
   0  -1  -1 1568.48   17.99   1
   0  -1  -1 1568.48   17.99   4
   0   1   1 1575.34   34.34   3
   0  -1  -1 1619.34   34.43   2
   1   1   1  105.53    7.41   3
  -1  -1  -1  114.97    3.88   1
  -1  -1  -1  114.97    3.88   4
  -1  -1  -1  113.59    4.47   2
  -2  -1  -1   27.63    2.80   4
  -2  -1  -1   27.63    2.80   1
   2   1   1   15.38    3.81   3
  -3  -1  -1   28.23    3.79   1
  -3  -1  -1   28.23    3.79   4
   3   1   1   27.00    5.78   3
  -4  -1  -1   11.04    2.42   4
   4   1   1    1.95    2.20   3
  -4  -1  -1   11.04    2.42   1
  -5  -1  -1   24.29    3.29   4
  -5  -1  -1   24.29    3.29   1
   5   1   1   27.20    6.64   3
  -5   2   1  450.44   14.64   4
  -5   2   1  450.44   14.64   1
   4  -2  -1  114.62   10.22   2
  -4   2   1  131.13    6.86   1
  -4   2   1  131.13    6.86   4
  -3   2   1 1078.04   18.91   1
  -3   2   1 1078.04   18.91   4
   3  -2  -1  829.77   32.08   2
  -2   2   1 1440.21   21.06   4
   2  -2  -1 1387.91   39.63   2
  -2   2   1 1413.50   33.72   3
  -2   2   1 1440.21   21.06   1
  -1   2   1  175.73    4.81   1
  -1   2   1  175.73    4.81   4
  -1   2   1  160.67    7.45   3
   1  -2  -1  164.19    9.75   2
   0  -2  -1 2834.03   32.36   4
   0  -2  -1 2834.03   32.36   1
   0  -2  -1 2758.08   59.69   2
   0   2   1 2705.46   58.36   3
  -1  -2  -1 2572.08   31.61   4
  -1  -2  -1 2549.10   52.04   2
   1   2   1 2557.00   59.02   3
  -1  -2  -1 2572.08   31.61   1
  -2  -2  -1 4884.74   57.78   4
  -2  -2  -1 4884.74   57.78   1
   3   2   1   66.10    9.55   3
  -3  -2  -1   66.70    5.51   1
  -3  -2  -1   66.70    5.51   4
   4   2   1  899.87   37.46   3
  -4  -2  -1  879.87   21.36   1
  -4  -2  -1  879.87   21.36   4
   5   2   1  515.51   29.56   3
  -5  -2  -1  493.58   17.14   1
  -5  -2  -1  493.58   17.14   4
  -5   3   1    4.00    1.97   1
  -5   3   1    4.00    1.97   4
  -4   3   1   11.35    2.10   1
  -4   3   1   11.35    2.10   4
   4  -3  -1    6.01    2.92   2
   3  -3  -1   12.94    4.70   2
  -3   3   1   13.76    2.23   4
  -3   3   1   13.76    2.23   1
  -2   3   1  348.48   12.88   3
   2  -3  -1  310.34   17.83   2
  -2   3   1  339.60    9.03   1
  -2   3   1  339.60    9.03   4
  -1   3   1  742.52   13.19   1
  -1   3   1  742.52   13.19   4
  -1   3   1  752.73   20.96   3
   1  -3  -1  728.22   26.27   2
   0  -3  -1   36.12    5.07   2
   0  -3  -1   33.45    2.97   4
   0   3   1   37.73    5.07   3
   0  -3  -1   33.45    2.97   1
  -1  -3  -1   13.77    2.30   4
  -1  -3  -1   10.80    2.46   2
  -1  -3  -1   13.77    2.30   1
   1   3   1   11.54    3.36   3
   2   3   1   45.22    8.02   3
  -2  -3  -1   36.89    3.83   4
  -2  -3  -1   36.89    3.83   1
  -3  -3  -1  253.35    9.63   1
   3   3   1  287.19   18.74   3
  -3  -3  -1  253.35    9.63   4
   4   3   1  152.87   14.42   3
  -4  -3  -1  193.82    9.17   4
  -4  -3  -1  193.82    9.17   1
  -5   4   1   30.83    3.55   1
   5  -4  -1   14.36    3.77   2
  -5   4   1   30.83    3.55   4
   4  -4  -1  721.15   34.09   2
  -4   4   1  683.94   17.90   1
  -4   4   1  683.94   17.90   4
   3  -4  -1  815.14   34.99   2
  -3   4   1  797.38   18.04   4
  -3   4   1  797.38   18.04   1
  -2   4   1  854.25   17.49   4
   2  -4  -1  885.57   34.48   2
  -2   4   1  854.25   17.49   1
   1  -4  -1 2074.92   56.73   2
  -1   4   1 2049.26   29.18   1
  -1   4   1 2049.26   29.18   4
  -1   4   1 1958.84   46.44   3
   0  -4  -1  104.44    5.23   1
   0   4   1  105.61    8.21   3
   0  -4  -1  104.44    5.23   4
   0  -4  -1   96.49    8.57   2
  -1  -4  -1 2155.67   51.73   2
  -1  -4  -1 2163.01   31.33   4
  -1  -4  -1 2163.01   31.33   1
   2   4   1  245.66   16.58   3
  -2  -4  -1  266.80    9.68   1
  -2  -4  -1  266.80    9.68   4
  -3  -4  -1 1716.34   31.32   1
   3   4   1 1647.18   56.20   3
  -3  -4  -1 1716.34   31.32   4
   4   4   1  387.46   25.66   3
  -4  -4  -1  371.81   13.86   4
  -4  -4  -1  371.81   13.86   1
  -4   5   1  177.07    8.49   1
   4  -5  -1  161.80   15.72   2
  -4   5   1  177.07    8.49   4
  -3   5   1    3.82    1.53   1
  -3   5   1    3.82    1.53   4
   3  -5  -1    9.33    3.55   2
   2  -5  -1   29.77    7.52   2
  -2   5   1   17.31    2.61   4
  -2   5   1   17.31    2.61   1
  -1   5   1  576.68   14.04   1
   1  -5  -1  619.27   28.12   2
  -1   5   1  576.68   14.04   4
   0  -5  -1   22.74    2.89   4
   0  -5  -1   22.74    2.89   1
   0  -5  -1   33.46    6.32   2
   0   5   1   26.52    4.63   3
  -1  -5  -1  341.31   11.17   1
  -1  -5  -1  341.31   11.17   4
   1   5   1  322.72   18.74   3
  -2  -5  -1  509.95   14.81   4
  -2  -5  -1  509.95   14.81   1
   2   5   1  507.93   26.96   3
  -3  -5  -1   13.22    2.64   1
  -3  -5  -1   13.22    2.64   4
  -3   6   1  296.40   11.66   1
   3  -6  -1  318.87   23.32   2
  -3   6   1  296.40   11.66   4
  -2   6   1 1227.45   25.00   1
   2  -6  -1 1210.83   48.64   2
  -2   6   1 1227.45   25.00   4
   1  -6  -1  234.22   17.83   2
  -1   6   1  253.27    9.36   4
  -1   6   1  253.27    9.36   1
   0  -6  -1 1437.85   47.88   2
   0   6   1 1441.97   27.44   1
   0   6   1 1441.97   27.44   4
  -1  -6  -1  352.88   12.40   1
  -1  -6  -1  352.88   12.40   4
  -2  -6  -1  706.85   19.69   4
  -2  -6  -1  706.85   19.69   1
   2   6   1  737.55   34.37   3
   3   6   1  248.65   20.52   3
  -3  -6  -1  243.58   11.09   4
  -3  -6  -1  243.58   11.09   1
  -2   7   1    8.06    2.16   1
  -2   7   1    8.06    2.16   4
   2  -7  -1   10.10    3.27   2
  -1   7   1   74.95    6.03   1
   1  -7  -1   82.91   12.14   2
  -1   7   1   74.95    6.03   4
   0   7   1    8.26    1.78   1
   0   7   1    8.26    1.78   4
  -1  -7  -1  129.01    7.42   4
  -1  -7  -1  129.01    7.42   1
   1  -8   2  271.76   21.55   2
  -2  -7   2   17.81    2.70   4
  -2  -7   2   17.81    2.70   1
  -1  -7   2  265.02   10.72   1
  -1  -7   2  265.02   10.72   4
   0  -7   2   91.03   12.72   2
   0   7  -2   90.94    7.33   4
   0   7  -2   90.93    7.33   1
  -1   7  -2   97.81    7.30   4
   1  -7   2   84.01   13.20   2
  -1   7  -2   97.81    7.30   1
  -2   7  -2   21.87    2.89   1
   2  -7   2   36.77    9.43   2
  -2   7  -2   21.87    2.89   4
   3   6  -2  954.89   41.30   3
  -3  -6   2  930.65   23.62   4
  -3  -6   2  930.65   23.62   1
  -2  -6   2  573.46   16.71   1
  -2  -6   2  573.46   16.71   4
  -1  -6   2 1282.60   25.94   4
  -1  -6   2 1282.60   25.94   1
   0  -6   2  582.62   28.55   2
   0   6  -2  557.00   16.15   1
   0   6  -2  557.00   16.15   4
  -1   6  -2  644.30   17.10   4
   1  -6   2  635.11   31.51   2
  -1   6  -2  644.30   17.10   1
  -2   6  -2 1483.84   29.14   1
   2  -6   2 1486.52   54.73   2
  -2   6  -2 1483.84   29.14   4
  -3   6  -2  219.68   10.08   1
  -3   6  -2  219.68   10.08   4
   3  -6   2  209.76   18.37   2
   4   5  -2   12.11    3.83   3
  -4  -5   2    9.66    2.39   4
  -4  -5   2    9.66    2.39   1
  -3  -5   2    2.93    1.67   4
  -3  -5   2    2.93    1.67   1
   3   5  -2    5.95    2.18   3
  -2  -5   2    9.18    1.90   1
   2   5  -2    2.75    1.84   3
  -2  -5   2    9.18    1.90   4
   1   5  -2   11.59    3.36   3
  -1  -5   2    8.84    2.61   2
  -1  -5   2    9.92    2.12   4
  -1  -5   2    9.92    2.12   1
   0   5  -2 1764.15   29.12   1
   0   5  -2 1764.15   29.12   4
   0  -5   2 1766.72   52.87   2
  -1   5  -2  122.28    6.29   1
   1  -5   2  149.36   12.86   2
  -1   5  -2  122.28    6.29   4
  -2   5  -2   -3.20    1.07   1
  -2   5  -2   -3.20    1.07   4
   2  -5   2    0.41    1.87   2
   3  -5   2   87.50   12.82   2
  -3   5  -2   85.85    6.87   4
  -3   5  -2   85.85    6.87   1
  -4   5  -2  274.40   11.58   1
  -4   5  -2  274.40   11.58   4
   4  -5   2  255.52   19.64   2
   4   4  -2 1316.42   50.01   3
  -4  -4   2 1307.51   27.36   1
  -4  -4   2 1307.51   27.36   4
  -3  -4   2  247.07    9.68   4
  -3  -4   2  247.07    9.68   1
   3   4  -2  309.88   18.87   3
   2   4  -2 1145.58   36.96   3
  -2  -4   2 1128.07   21.16   1
  -2  -4   2 1128.07   21.16   4
   1   4  -2 2109.28   50.92   3
  -1  -4   2 2066.81   30.47   4
  -1  -4   2 2066.81   30.47   1
  -1  -4   2 2150.68   53.67   2
   0  -4   2 2711.16   68.94   2
   0   4  -2 2879.73   58.90   3
  -1   4  -2 3677.91   46.64   1
  -1   4  -2 3677.91   46.64   4
   1  -4   2 3688.14   87.33   2
  -2   4  -2  257.14    9.11   1
   2  -4   2  266.34   17.12   2
  -2   4  -2  257.14    9.11   4
   3  -4   2 2243.61   65.69   2
  -3   4  -2 2294.96   37.32   4
  -3   4  -2 2294.96   37.32   1
  -4   4  -2  292.22   11.86   1
  -4   4  -2  292.22   11.86   4
   4  -4   2  333.93   21.21   2
  -5  -3   2   10.21    2.85   4
  -5  -3   2   10.21    2.85   1
   5   3  -2    9.51    3.04   3
  -4  -3   2  285.92   10.58   1
   4   3  -2  245.75   18.55   3
  -4  -3   2  285.92   10.58   4
  -3  -3   2   74.23    5.37   1
  -3  -3   2   74.23    5.37   4
   3   3  -2   82.09    8.85   3
  -2  -3   2  158.31    6.30   1
   2   3  -2  143.18   10.87   3
  -2  -3   2  158.31    6.30   4
  -1  -3   2  525.17   11.36   4
  -1  -3   2  519.35   18.79   2
   1   3  -2  532.46   18.80   3
  -1  -3   2  525.17   11.36   1
   0   3  -2  229.14    6.78   1
   0   3  -2  229.14    6.78   4
   0  -3   2  223.00   12.59   2
   0   3  -2  225.94    8.72   3
  -1   3  -2  754.32   14.19   4
   1  -3   2  733.16   26.75   2
  -1   3  -2  754.32   14.19   1
  -2   3  -2  210.94    7.65   1
  -2   3  -2  210.94    7.65   4
  -3   3  -2    7.32    2.04   4
   3  -3   2    5.22    2.25   2
  -3   3  -2    7.32    2.04   1
   4  -3   2  405.51   22.24   2
  -4   3  -2  407.06   14.28   1
  -4   3  -2  407.06   14.28   4
  -5   3  -2   18.12    2.45   4
  -5   3  -2   18.12    2.45   1
  -5  -2   2  642.36   17.83   1
   5   2  -2  727.17   35.75   3
  -5  -2   2  642.36   17.83   4
  -4  -2   2  342.30   11.15   1
  -4  -2   2  342.30   11.15   4
   4   2  -2  327.62   21.06   3
  -3  -2   2 4406.47   53.68   4
  -3  -2   2 4406.47   53.68   1
   3   2  -2 4371.50  100.37   3
  -2  -2   2 3734.06   44.35   1
  -2  -2   2 3734.06   44.35   4
   2   2  -2 3770.23   75.50   2
   2   2  -2 3728.21   82.57   3
  -1  -2   2  176.06    5.09   1
  -1  -2   2  176.06    5.09   4
  -1  -2   2  176.58    8.85   2
  -1  -2   2  183.21    9.34   3
   0  -2   2 4210.47   88.87   2
   0   2  -2 4345.42   47.33   1
   0   2  -2 4345.42   47.33   4
   0  -2   2 4288.81   80.62   3
   1  -2   2 6022.80  108.68   3
   1  -2   2 5879.50  120.85   2
  -1   2  -2 5930.12   64.94   4
  -1   2  -2 5930.12   64.94   1
   2  -2   2 7482.29  138.43   3
  -2   2  -2 7401.03   83.09   1
  -2   2  -2 7401.03   83.09   4
   2  -2   2 7469.37  150.36   2
  -3   2  -2  225.16    8.97   4
   3  -2   2  236.80   14.34   2
  -3   2  -2  225.16    8.97   1
  -4   2  -2 1285.90   27.25   4
  -4   2  -2 1285.90   27.25   1
  -5   2  -2  963.45   24.66   1
  -5   2  -2  963.45   24.66   4
   5   1  -2   -0.31    2.20   3
  -5  -1   2   10.06    2.23   4
  -5  -1   2   10.06    2.23   1
  -4  -1   2  341.74   10.73   1
  -4  -1   2  341.74   10.73   4
   4   1  -2  332.29   20.30   3
   3   1  -2  347.84   13.54   2
  -2  -1   2  417.22    8.80   1
  -2  -1   2  396.03   16.95   3
   2   1  -2  407.02   14.24   2
  -2  -1   2  417.22    8.80   4
  -1  -1   2   -1.11    1.67   3
  -1  -1   2    5.01    1.11   1
  -1  -1   2    5.01    1.11   4
   1   1  -2    3.40    1.97   2
   0  -1   2  964.87   22.33   3
   0  -1   2  922.36   25.22   2
   0   1  -2  978.85   12.50   1
   0   1  -2  978.85   12.50   4
  -1   1  -2 1112.23   16.10   4
   1  -1   2 1094.63   29.20   2
  -1   1  -2 1112.23   16.10   1
   1  -1   2 1045.59   25.43   3
  -2   1  -2   95.91    4.86   1
  -2   1  -2   95.91    4.86   4
   2  -1   2   82.71    6.46   3
   2  -1   2   93.22    7.18   2
  -3   1  -2 1285.51   24.13   1
   3  -1   2 1288.18   38.10   3
  -3   1  -2 1285.51   24.13   4
   3  -1   2 1260.95   36.80   2
  -4   1  -2    7.60    1.95   4
   4  -1   2   10.07    3.14   3
  -4   1  -2    7.60    1.95   1
  -5   1  -2  351.37   13.95   1
  -5   1  -2  351.37   13.95   4
  -5   0   2  177.63    8.29   1
   5   0  -2  167.90   14.49   3
  -5   0   2  177.63    8.29   4
  -4   0   2 1395.36   25.10   1
  -4   0   2 1395.36   25.10   4
   4   0  -2 1364.66   45.48   3
   3   0  -2 1942.33   46.65   2
  -3   0   2 1861.52   27.18   4
  -3   0   2 1799.87   49.49   3
  -3   0   2 1861.52   27.18   1
  -2   0   2 5848.22  114.29   3
  -2   0   2 5730.33   61.94   4
   2   0  -2 5747.00  114.78   2
  -2   0   2 5730.33   61.94   1
  -1   0   2 8042.56  147.99   3
  -1   0   2 7900.37   80.11   1
  -1   0   2 7900.37   80.11   4
   1   0  -2 8009.63  152.28   2
   0   0   2 1352.46   30.55   3
   0   0  -2 1381.69   32.11   2
   0   0  -2 1321.65   15.04   1
   0   0  -2 1321.65   15.04   4
  -1   0  -2 5290.99   57.45   1
   1   0   2 5269.98  103.60   3
  -1   0  -2 5290.99   57.45   4
   1   0   2 5436.37  104.40   2
  -2   0  -2 2621.33   34.38   4
   2   0   2 2602.70   55.91   2
  -2   0  -2 2621.33   34.38   1
   2   0   2 2534.29   60.03   3
   3   0   2 2087.69   56.53   3
  -3   0  -2 2173.18   34.00   1
  -3   0  -2 2173.18   34.00   4
  -4   0  -2 1179.40   25.34   4
  -4   0  -2 1179.40   25.34   1
   4   0   2 1157.99   41.51   3
   5   0   2  369.75   22.94   3
  -5   0  -2  409.70   15.21   1
  -5   0  -2  409.70   15.21   4
  -5   1   2  373.10   12.74   1
  -5   1   2  373.10   12.74   4
   5  -1  -2  361.70   21.32   3
   4  -1  -2   33.19    5.96   2
  -4   1   2   32.06    3.74   4
  -4   1   2   32.06    3.74   1
   4  -1  -2   19.92    4.53   3
   3  -1  -2  197.54   12.23   2
  -2   1   2  215.52   11.29   3
   2  -1  -2  220.80   12.14   2
  -2   1   2  220.79    5.94   4
  -2   1   2  220.79    5.94   1
  -1   1   2 1743.88   39.70   3
   1  -1  -2 1750.33   41.99   2
  -1   1   2 1759.48   20.00   4
  -1   1   2 1759.48   20.00   1
   0   1   2  601.12   19.04   3
   0  -1  -2  612.94    8.49   1
   0  -1  -2  612.94    8.49   4
   0  -1  -2  627.30   18.71   2
  -1  -1  -2   92.94    3.55   1
   1   1   2   96.76    7.64   3
  -1  -1  -2   91.08    5.52   2
  -1  -1  -2   92.94    3.55   4
  -2  -1  -2 1142.71   19.44   4
  -2  -1  -2 1142.71   19.44   1
   2   1   2 1178.35   35.81   3
  -2  -1  -2 1125.50   27.24   2
  -3  -1  -2   89.66    6.14   1
  -3  -1  -2   89.66    6.14   4
   3   1   2   90.43    9.21   3
  -4  -1  -2  298.78   11.41   4
   4   1   2  317.45   20.23   3
  -4  -1  -2  298.78   11.41   1
   5   1   2    3.76    3.59   3
  -5  -1  -2    6.51    2.02   4
  -5  -1  -2    6.51    2.02   1
  -5   2   2 1195.21   25.26   4
  -5   2   2 1195.21   25.26   1
  -4   2   2  433.60   12.51   1
  -4   2   2  433.60   12.51   4
   4  -2  -2  414.35   22.34   2
  -4   2   2  415.43   20.17   3
  -3   2   2 1992.22   49.45   3
  -3   2   2 1863.47   28.20   4
   3  -2  -2 1920.43   53.37   2
  -3   2   2 1863.47   28.20   1
  -2   2   2 5157.91   57.98   1
  -2   2   2 5157.91   57.98   4
   2  -2  -2 5242.42  112.38   2
  -2   2   2 5252.89  103.93   3
  -1   2   2 1012.41   27.16   3
  -1   2   2  989.66   14.17   1
   1  -2  -2  979.91   30.10   2
  -1   2   2  989.66   14.17   4
   0   2   2 2801.28   62.74   3
   0  -2  -2 2842.35   62.50   2
   0  -2  -2 2875.47   32.91   1
   0  -2  -2 2875.47   32.91   4
   1   2   2 4559.58   97.18   3
  -1  -2  -2 4439.34   89.89   2
  -1  -2  -2 4522.73   51.36   4
  -1  -2  -2 4522.73   51.36   1
  -2  -2  -2 2247.38   32.81   4
  -2  -2  -2 2247.38   32.81   1
   2   2   2 2475.36   60.91   3
   3   2   2  761.21   31.75   3
  -3  -2  -2  686.54   16.84   1
  -3  -2  -2  686.54   16.84   4
  -4  -2  -2   87.68    7.29   1
  -4  -2  -2   87.68    7.29   4
   4   2   2   71.02   11.07   3
   5   2   2 1371.41   53.48   3
  -4   3   2  773.67   18.36   1
   4  -3  -2  813.93   34.73   2
  -4   3   2  773.67   18.36   4
  -3   3   2    4.85    1.18   1
   3  -3  -2   -0.85    1.75   2
  -3   3   2    4.85    1.18   4
   2  -3  -2   35.20    6.93   2
  -2   3   2   43.94    3.21   4
  -2   3   2   23.45    3.68   3
  -2   3   2   43.94    3.21   1
  -1   3   2  139.90    4.91   4
  -1   3   2  139.90    4.91   1
  -1   3   2  158.34    9.45   3
   1  -3  -2  158.68   11.39   2
   0  -3  -2  106.57    4.38   4
   0  -3  -2  106.57    4.38   1
   0  -3  -2   96.71    7.86   2
   0   3   2   95.80    8.05   3
  -1  -3  -2  445.18   10.73   1
  -1  -3  -2  441.50   16.38   2
  -1  -3  -2  445.18   10.73   4
   1   3   2  451.72   21.23   3
  -2  -3  -2   83.95    4.96   1
   2   3   2   71.31    9.65   3
  -2  -3  -2   83.95    4.96   4
  -3  -3  -2  496.60   14.25   4
   3   3   2  476.04   25.26   3
  -3  -3  -2  496.60   14.25   1
  -4  -3  -2    3.80    1.58   4
  -4  -3  -2    3.80    1.58   1
   4   3   2   -2.70    2.06   3
   5  -4  -2  504.44   29.64   2
   4  -4  -2  610.36   31.73   2
  -3   4   2 1484.71   26.37   1
  -3   4   2 1484.71   26.37   4
   3  -4  -2 1526.34   53.09   2
   2  -4  -2 1079.24   39.02   2
  -2   4   2 1006.48   19.18   4
  -2   4   2 1006.48   19.18   1
  -1   4   2 2611.84   35.25   1
  -1   4   2 2611.84   35.25   4
   1  -4  -2 2698.02   68.86   2
  -1   4   2 2617.30   61.38   3
   0  -4  -2  465.66   11.73   4
   0  -4  -2  465.66   11.73   1
  -1  -4  -2  623.63   14.34   1
   1   4   2  657.09   27.56   3
  -1  -4  -2  623.63   14.34   4
   2   4   2 2275.98   67.68   3
  -2  -4  -2 2219.53   35.20   4
  -2  -4  -2 2219.53   35.20   1
  -3  -4  -2  463.67   14.68   1
  -3  -4  -2  463.67   14.68   4
   3   4   2  501.70   27.95   3
  -4  -4  -2  724.87   20.56   4
   4   4   2  723.85   37.04   3
  -4  -4  -2  724.87   20.56   1
   4  -5  -2   25.16    6.21   2
   3  -5  -2   46.45    9.17   2
  -2   5   2  109.62    5.80   4
   2  -5  -2  114.50   12.18   2
  -2   5   2  109.62    5.80   1
   1  -5  -2  132.65   12.45   2
   0   5   2  137.69   10.77   3
   0  -5  -2  126.95   10.87   2
   0  -5  -2  127.02    6.21   1
   0  -5  -2  127.02    6.21   4
  -1  -5  -2  219.45    8.89   1
   1   5   2  280.78   17.97   3
  -1  -5  -2  219.45    8.89   4
  -2  -5  -2  162.50    7.71   4
   2   5   2  170.26   14.63   3
  -2  -5  -2  162.50    7.71   1
  -3  -5  -2   77.49    6.97   4
   3   5   2   88.00   14.28   3
  -3  -5  -2   77.49    6.97   1
   3  -6  -2  181.26   16.58   2
   2  -6  -2 1352.95   51.95   2
  -1   6   2  479.65   13.17   1
  -1   6   2  479.65   13.17   4
   1  -6  -2  443.92   25.70   2
   0   6   2  591.41   15.97   4
   0   6   2  591.41   15.97   1
  -1  -6  -2  875.72   21.14   1
   1   6   2  903.27   37.38   3
  -1  -6  -2  875.72   21.14   4
  -2  -6  -2  112.56    6.56   4
  -2  -6  -2  112.56    6.56   1
   2   6   2  102.31   10.63   3
   2  -7  -2  122.20   16.75   2
   1  -7  -2  211.66   17.11   2
   0   7   2   58.94    5.72   1
   0   7   2   58.94    5.72   4
  -1  -7  -2   29.30    3.80   1
  -1  -7  -2   29.30    3.80   4
   1  -8   3  556.12   33.56   2
  -2  -7   3   49.19    4.86   4
  -2  -7   3   49.19    4.86   1
   1   7  -3   47.21    5.18   4
   1   7  -3   47.21    5.18   1
   0   7  -3    2.80    1.47   4
   0   7  -3    2.80    1.47   1
   0  -7   3    4.45    2.94   2
  -1   7  -3   69.83    6.00   1
  -1   7  -3   69.83    6.00   4
   1  -7   3   91.07   13.71   2
  -2   7  -3   44.58    4.83   4
  -2   7  -3   44.58    4.83   1
   2  -7   3   21.96    5.76   2
   3   6  -3 1154.65   46.30   3
  -3  -6   3 1153.11   26.48   1
  -3  -6   3 1153.11   26.48   4
  -2  -6   3  708.16   18.95   4
  -2  -6   3  708.16   18.95   1
  -1  -6   3  371.26   12.46   1
  -1  -6   3  371.26   12.46   4
   0   6  -3 1070.15   23.16   1
   0  -6   3 1009.33   41.37   2
   0   6  -3 1070.15   23.16   4
  -1   6  -3  295.95   11.03   1
  -1   6  -3  295.95   11.03   4
   1  -6   3  308.39   21.18   2
   2  -6   3 1038.79   44.72   2
  -2   6  -3 1042.14   23.66   1
  -2   6  -3 1042.14   23.66   4
   3  -6   3  217.86   19.14   2
  -3   6  -3  227.50   10.46   4
  -3   6  -3  227.50   10.46   1
  -4  -5   3  216.80    9.81   1
  -4  -5   3  216.80    9.81   4
   4   5  -3  227.86   18.49   3
   3   5  -3    5.20    2.91   3
  -3  -5   3    6.87    1.73   1
  -3  -5   3    6.87    1.73   4
   2   5  -3   39.10    7.06   3
  -2  -5   3   42.82    4.77   4
  -2  -5   3   42.82    4.77   1
  -1  -5   3   86.35    8.81   2
  -1  -5   3   81.63    6.00   1
  -1  -5   3   81.63    6.00   4
   0  -5   3  317.80   19.56   2
   0   5  -3  314.39   10.65   1
   0   5  -3  314.39   10.65   4
   1  -5   3   36.36    7.63   2
  -1   5  -3   25.65    3.40   1
  -1   5  -3   25.65    3.40   4
  -2   5  -3  462.02   13.72   4
   2  -5   3  491.29   26.84   2
  -2   5  -3  462.02   13.72   1
  -3   5  -3  125.64    7.26   4
  -3   5  -3  125.64    7.26   1
   3  -5   3  130.79   13.32   2
  -4   5  -3    4.84    1.61   1
  -4   5  -3    4.84    1.61   4
   4  -5   3    4.16    2.65   2
   4   4  -3  766.26   36.33   3
  -4  -4   3  744.10   18.95   1
  -4  -4   3  744.10   18.95   4
   3   4  -3  307.28   19.02   3
  -3  -4   3  272.09   10.04   1
  -3  -4   3  272.09   10.04   4
   2   4  -3  805.63   29.98   3
  -2  -4   3  787.44   16.78   1
  -2  -4   3  787.44   16.78   4
   1   4  -3 2493.75   59.66   3
  -1  -4   3 2618.52   36.26   4
  -1  -4   3 2618.52   36.26   1
  -1  -4   3 2636.45   64.38   2
   0  -4   3  504.52   22.85   2
   0   4  -3  437.69   11.53   4
   0   4  -3  437.69   11.53   1
  -1   4  -3  977.22   18.58   4
  -1   4  -3  977.22   18.58   1
   1  -4   3  986.31   35.58   2
  -2   4  -3  478.76   13.28   4
   2  -4   3  468.07   24.19   2
  -2   4  -3  478.76   13.28   1
  -3   4  -3  413.73   13.52   4
   3  -4   3  428.10   23.98   2
  -3   4  -3  413.73   13.52   1
  -4   4  -3  470.40   15.75   1
  -4   4  -3  470.40   15.75   4
   4  -4   3  485.65   26.79   2
   5   3  -3  109.51   15.27   3
  -5  -3   3  117.50    6.74   4
  -5  -3   3  117.50    6.74   1
   4   3  -3  116.38   12.35   3
  -4  -3   3  124.74    6.70   4
  -4  -3   3  124.74    6.70   1
   3   3  -3  388.35   21.71   3
  -3  -3   3  355.67   10.76   4
  -3  -3   3  355.67   10.76   1
  -2  -3   3  227.23    7.51   1
  -2  -3   3  227.23    7.51   4
   2   3  -3  232.81   12.06   2
  -1  -3   3  117.52    4.93   1
  -1  -3   3  107.23    8.34   2
  -1  -3   3  128.83    8.39   3
  -1  -3   3  117.52    4.93   4
   0  -3   3    7.55    1.75   3
   0   3  -3    6.58    1.32   4
   0   3  -3    6.58    1.32   1
   0  -3   3   14.80    4.60   2
  -1   3  -3   61.58    3.65   1
  -1   3  -3   61.58    3.65   4
   1  -3   3   55.75    2.84   3
   1  -3   3   83.77    8.76   2
  -2   3  -3   64.95    4.67   1
  -2   3  -3   64.95    4.67   4
   2  -3   3   60.26    8.56   2
   3  -3   3  742.91   30.78   2
  -3   3  -3  751.68   17.97   1
  -3   3  -3  751.68   17.97   4
  -4   3  -3   28.13    3.90   4
  -4   3  -3   28.13    3.90   1
   5   2  -3  620.82   33.53   3
  -5  -2   3  639.59   17.22   1
  -5  -2   3  639.59   17.22   4
  -4  -2   3  427.76   12.29   4
   4   2  -3  429.04   25.13   3
  -4  -2   3  427.76   12.29   1
  -3  -2   3  954.17   17.53   1
  -3  -2   3  954.17   17.53   4
   2   2  -3 2490.31   57.18   2
  -2  -2   3 2519.96   32.09   1
  -2  -2   3 2603.49   61.47   3
  -2  -2   3 2519.96   32.09   4
  -1  -2   3    4.78    1.39   1
  -1  -2   3    3.98    2.20   3
  -1  -2   3    4.78    1.39   4
  -1  -2   3   13.10    3.94   2
   0   2  -3  965.39   14.34   1
   0   2  -3  965.39   14.34   4
   0  -2   3  955.05   29.57   2
   0  -2   3  977.22   24.41   3
  -1   2  -3 2682.13   34.08   1
   1  -2   3 2685.31   64.33   2
   1  -2   3 2716.43   54.44   3
  -1   2  -3 2682.13   34.08   4
  -2   2  -3 1454.61   23.65   4
   2  -2   3 1456.21   42.03   2
  -2   2  -3 1454.61   23.65   1
   2  -2   3 1423.96   34.61   3
   3  -2   3  587.96   24.78   2
  -3   2  -3  612.84   16.17   1
  -3   2  -3  612.84   16.17   4
  -4   2  -3    9.97    2.07   1
  -4   2  -3    9.97    2.07   4
  -5   2  -3  890.48   24.24   4
  -5   2  -3  890.48   24.24   1
  -5  -1   3  406.05   13.16   1
  -5  -1   3  406.05   13.16   4
   5   1  -3  451.66   27.28   3
   4   1  -3  437.06   24.62   3
  -4  -1   3  429.40   11.96   1
  -4  -1   3  429.40   11.96   4
   3   1  -3   12.45    3.32   2
  -3  -1   3    7.98    3.34   3
  -3  -1   3   16.68    1.99   1
  -3  -1   3   16.68    1.99   4
  -2  -1   3    5.27    1.09   1
  -2  -1   3    4.39    2.30   3
  -2  -1   3    5.27    1.09   4
   2   1  -3    4.92    1.81   2
  -1  -1   3 1030.03   13.32   1
   1   1  -3 1054.16   29.93   2
  -1  -1   3 1030.03   13.32   4
  -1  -1   3 1039.67   28.66   3
   0   1  -3  236.52    4.97   1
   0  -1   3  243.71   12.27   2
   0   1  -3  236.52    4.97   4
   0  -1   3  232.21   10.25   3
   1  -1   3   93.91    6.38   3
  -1   1  -3   89.02    3.74   4
  -1   1  -3   89.02    3.74   1
   1  -1   3  100.40    7.58   2
  -2   1  -3  168.43    6.73   1
   2  -1   3  183.78   11.07   2
  -2   1  -3  168.43    6.73   4
   2  -1   3  175.82   10.36   3
  -3   1  -3   48.28    4.74   4
  -3   1  -3   48.28    4.74   1
   3  -1   3   46.95    6.63   2
  -4   1  -3    5.91    1.85   4
  -4   1  -3    5.91    1.85   1
  -5   1  -3   58.22    6.24   1
  -5   1  -3   58.22    6.24   4
   5   0  -3  691.18   34.05   3
  -4   0   3   52.10    4.37   1
  -4   0   3   39.92    7.72   3
  -4   0   3   52.10    4.37   4
   3   0  -3 1086.54   33.69   2
  -3   0   3 1119.63   35.93   3
  -3   0   3 1104.47   18.14   4
  -3   0   3 1104.47   18.14   1
   2   0  -3 1588.43   41.82   2
  -2   0   3 1603.05   19.99   1
  -2   0   3 1603.04   19.99   4
  -2   0   3 1572.38   42.06   3
   1   0  -3 6215.81  123.43   2
  -1   0   3 6052.28  118.72   3
   0   0   3  125.46    7.82   3
   0   0  -3  141.31    2.95   4
   0   0  -3  141.31    2.95   1
   0   0  -3  132.59    8.75   2
  -1   0  -3   47.76    2.56   1
   1   0   3   49.05    5.16   3
  -1   0  -3   47.76    2.56   4
   1   0   3   46.88    5.89   2
   2   0   3 3543.72   79.92   3
  -2   0  -3 3513.98   44.46   4
   2   0   3 3519.06   75.91   2
  -2   0  -3 3513.98   44.46   1
  -3   0  -3  861.58   19.00   1
   3   0   3  786.31   30.81   3
  -3   0  -3  861.58   19.00   4
  -4   0  -3  689.07   18.92   4
   4   0   3  677.62   30.28   3
  -4   0  -3  689.07   18.92   1
  -5   0  -3   15.18    2.66   4
  -5   0  -3   15.18    2.66   1
   5  -1  -3  152.13   13.64   3
  -4   1   3  417.67   21.92   3
  -4   1   3  429.66   11.68   1
   4  -1  -3  425.69   21.27   2
  -4   1   3  429.66   11.68   4
  -3   1   3    1.58    0.94   4
  -3   1   3    1.58    0.94   1
   3  -1  -3    2.80    2.28   2
  -3   1   3    2.98    1.96   3
  -2   1   3   69.99    6.68   3
   2  -1  -3   77.71    7.74   2
  -2   1   3   76.66    2.93   1
  -2   1   3   76.66    2.93   4
  -1   1   3    7.42    2.67   3
  -1   1   3    4.07    0.50   4
   1  -1  -3    3.39    1.95   2
  -1   1   3    4.07    0.50   1
   0  -1  -3   26.94    1.38   1
   0  -1  -3   26.94    1.38   4
   0   1   3   17.00    4.13   3
   0  -1  -3   14.95    3.86   2
  -1  -1  -3  381.81   15.56   2
   1   1   3  419.95   18.71   3
  -1  -1  -3  400.12    8.53   4
  -1  -1  -3  400.12    8.53   1
  -2  -1  -3   28.21    2.93   4
  -2  -1  -3   29.76    3.25   2
  -2  -1  -3   28.21    2.93   1
   2   1   3   33.55    6.60   3
   3   1   3    1.69    2.20   3
  -3  -1  -3    3.42    1.63   1
  -3  -1  -3    3.42    1.63   4
  -4  -1  -3    2.71    1.69   4
   4   1   3    3.99    2.60   3
  -4  -1  -3    2.71    1.69   1
   5   1   3  140.60   13.66   3
  -4   2   3  952.47   34.51   3
   4  -2  -3  947.51   36.82   2
  -3   2   3   12.35    1.50   1
  -3   2   3   11.84    3.36   3
   3  -2  -3   10.63    4.07   2
  -3   2   3   12.35    1.50   4
  -2   2   3 2678.24   32.04   4
  -2   2   3 2678.23   32.04   1
  -2   2   3 2580.31   61.72   3
   2  -2  -3 2694.79   67.29   2
  -1   2   3 1152.23   33.07   3
   1  -2  -3 1100.41   35.00   2
  -1   2   3 1165.50   15.43   1
  -1   2   3 1165.50   15.43   4
   0  -2  -3 1571.19   20.25   1
   0  -2  -3 1619.69   41.77   2
   0  -2  -3 1571.19   20.25   4
   0   2   3 1597.03   42.88   3
  -1  -2  -3 1156.21   31.80   2
  -1  -2  -3 1132.78   18.06   1
  -1  -2  -3 1132.78   18.06   4
   1   2   3 1174.27   37.69   3
   2   2   3  332.05   19.60   3
  -2  -2  -3  364.69   10.38   4
  -2  -2  -3  364.69   10.38   1
   3   2   3 1335.30   47.47   3
  -3  -2  -3 1309.87   25.29   4
  -3  -2  -3 1309.87   25.29   1
  -4  -2  -3  193.23    9.25   1
  -4  -2  -3  193.23    9.25   4
   4   2   3  209.13   16.90   3
   4  -3  -3  113.14   11.58   2
   3  -3  -3    8.34    3.25   2
  -3   3   3    6.01    2.84   3
  -2   3   3  826.10   14.70   4
  -2   3   3  826.10   14.70   1
   2  -3  -3  783.50   32.10   2
  -1   3   3  234.79    6.32   1
   1  -3  -3  223.64   14.22   2
  -1   3   3  203.82   12.48   3
  -1   3   3  234.79    6.32   4
   0  -3  -3   71.54    7.30   2
   0   3   3   85.48    8.42   3
   0  -3  -3   93.72    3.98   4
   0  -3  -3   93.72    3.98   1
  -1  -3  -3   93.68    4.66   1
  -1  -3  -3   93.68    4.66   4
  -1  -3  -3   91.57    7.33   2
   1   3   3  115.29   10.73   3
  -2  -3  -3   60.26    4.93   1
  -2  -3  -3   60.26    4.93   4
   2   3   3   59.87    9.99   3
  -3  -3  -3    1.20    1.40   4
   3   3   3    3.29    3.04   3
  -3  -3  -3    1.20    1.40   1
   4   3   3  257.85   20.86   3
  -4  -3  -3  232.71   10.23   1
  -4  -3  -3  232.71   10.23   4
   4  -4  -3  122.59   13.21   2
   3  -4  -3  808.60   36.18   2
   2  -4  -3  303.62   19.63   2
  -1   4   3 1447.57   22.80   4
   1  -4  -3 1490.90   46.74   2
  -1   4   3 1441.08   42.36   3
  -1   4   3 1447.57   22.80   1
   0  -4  -3  822.43   16.72   4
   0  -4  -3  822.43   16.72   1
   0  -4  -3  896.71   31.72   2
   0   4   3  920.86   32.74   3
  -1  -4  -3  185.88    7.26   1
  -1  -4  -3  185.88    7.26   4
   1   4   3  204.29   15.46   3
  -2  -4  -3 1722.88   30.17   1
  -2  -4  -3 1722.88   30.17   4
   2   4   3 1742.66   57.14   3
  -3  -4  -3  511.57   15.52   1
   3   4   3  529.25   29.95   3
  -3  -4  -3  511.57   15.52   4
   4  -5  -3  121.39   16.67   2
   3  -5  -3   15.82    5.37   2
   2  -5  -3  222.63   17.46   2
   1  -5  -3  181.46   14.79   2
   0  -5  -3  127.52   11.28   2
   0  -5  -3  137.00    6.47   1
   0  -5  -3  137.00    6.47   4
   0   5   3  138.87   11.70   3
  -1  -5  -3   25.81    3.38   1
  -1  -5  -3   25.81    3.38   4
   1   5   3   28.04    6.73   3
   2   5   3    0.94    2.04   3
  -2  -5  -3    2.43    1.63   4
  -2  -5  -3    2.43    1.63   1
   3   5   3   99.58   14.59   3
  -3  -5  -3  122.86    6.73   4
  -3  -5  -3  122.86    6.73   1
   3  -6  -3  377.64   26.50   2
   2  -6  -3  550.41   31.10   2
   1  -6  -3  803.38   36.91   2
  -1  -6  -3  911.42   21.80   1
   1   6   3  904.40   39.26   3
  -1  -6  -3  911.42   21.80   4
   2   6   3  155.47   14.36   3
  -2  -6  -3  135.76    7.59   1
  -2  -6  -3  135.76    7.59   4
   1  -7  -3  103.76   10.79   2
  -2  -7   4   12.32    3.02   1
  -2  -7   4   12.32    3.02   4
   1   7  -4   16.31    2.41   4
   1   7  -4   16.31    2.41   1
   0   7  -4   31.85    3.53   1
   0   7  -4   31.85    3.53   4
   0  -7   4   43.58    8.87   2
   1  -7   4  120.46   13.13   2
  -1   7  -4  116.67    8.16   1
  -1   7  -4  116.67    8.16   4
  -2   7  -4  225.52   10.67   1
   2  -7   4  220.50   19.72   2
  -2   7  -4  225.52   10.67   4
  -3  -6   4  332.06   12.35   1
  -3  -6   4  332.06   12.35   4
   3   6  -4  330.95   20.95   3
  -2  -6   4 1256.05   26.66   1
  -2  -6   4 1256.05   26.66   4
   1   6  -4   64.61    5.61   4
   1   6  -4   64.61    5.61   1
  -1  -6   4   77.26   10.82   2
   0   6  -4 1761.95   31.50   1
   0   6  -4 1761.95   31.50   4
   0  -6   4 1689.19   58.00   2
   1  -6   4  837.29   38.65   2
  -1   6  -4  872.25   20.57   1
  -1   6  -4  872.25   20.57   4
  -2   6  -4  678.73   18.51   4
  -2   6  -4  678.73   18.51   1
   2  -6   4  703.57   36.34   2
  -3   6  -4  810.55   22.02   1
  -3   6  -4  810.55   22.02   4
   3  -6   4  841.37   41.65   2
  -4  -5   4  170.68    8.28   4
  -4  -5   4  170.68    8.28   1
   4   5  -4  142.69   13.73   3
  -3  -5   4   48.29    4.81   4
   3   5  -4   44.12    8.00   3
  -3  -5   4   48.29    4.81   1
  -2  -5   4  125.15    6.46   4
   2   5  -4   95.77    9.09   3
  -2  -5   4  125.15    6.46   1
  -1  -5   4   47.13    4.43   1
  -1  -5   4   47.13    4.43   4
  -1  -5   4   38.52    7.35   2
   0   5  -4   32.87    3.91   4
   0   5  -4   32.87    3.91   1
   0  -5   4   28.91    6.86   2
   1  -5   4  492.73   26.28   2
  -1   5  -4  474.71   13.41   1
  -1   5  -4  474.71   13.41   4
   2  -5   4    5.87    3.02   2
  -2   5  -4   15.69    2.37   4
  -2   5  -4   15.69    2.37   1
  -3   5  -4  199.78    9.56   4
   3  -5   4  186.68   16.57   2
  -3   5  -4  199.78    9.56   1
   4  -5   4   77.62   12.54   2
  -4  -4   4   62.09    5.70   1
  -4  -4   4   62.09    5.70   4
   4   4  -4   82.82   12.40   3
  -3  -4   4 1564.41   27.31   1
   3   4  -4 1524.75   51.12   3
  -3  -4   4 1564.41   27.31   4
   2   4  -4  692.07   27.79   3
  -2  -4   4  697.53   27.23   2
  -2  -4   4  676.40   15.46   4
  -2  -4   4  676.40   15.46   1
  -1  -4   4 4467.91   54.96   1
  -1  -4   4 4467.91   54.96   4
  -1  -4   4 4554.83   94.08   3
   0  -4   4  695.74   29.44   2
   0   4  -4  690.06   14.55   4
   0   4  -4  690.05   14.55   1
  -1   4  -4  972.11   19.00   4
  -1   4  -4  972.11   19.00   1
   1  -4   4  953.92   36.69   2
  -2   4  -4 2265.82   35.24   4
   2  -4   4 2222.55   64.92   2
  -2   4  -4 2265.82   35.24   1
  -3   4  -4  830.62   20.43   4
  -3   4  -4  830.62   20.43   1
   3  -4   4  858.35   36.44   2
  -4   4  -4 1088.33   26.28   4
   4  -4   4 1047.50   43.45   2
  -4   4  -4 1088.33   26.28   1
   5   3  -4  109.27   15.27   3
   4   3  -4  102.75   13.69   3
  -4  -3   4   95.15    6.65   1
  -4  -3   4   95.15    6.65   4
   3   3  -4   81.91   10.79   3
  -3  -3   4   82.45    4.69   1
  -3  -3   4   82.45    4.69   4
   2   3  -4 1040.26   33.67   2
  -2  -3   4 1048.60   18.19   1
  -2  -3   4 1064.57   35.00   3
  -2  -3   4 1048.60   18.19   4
  -1  -3   4   43.16    6.68   2
  -1  -3   4   66.83    3.61   1
  -1  -3   4   77.41    6.73   3
  -1  -3   4   66.83    3.61   4
   0   3  -4  508.17   11.09   1
   0   3  -4  508.17   11.09   4
   0  -3   4  493.22   16.85   3
  -1   3  -4  205.84    7.14   1
  -1   3  -4  205.84    7.14   4
   1  -3   4  197.69   14.24   2
  -2   3  -4  674.53   15.99   1
  -2   3  -4  674.53   15.99   4
   2  -3   4  704.62   29.48   2
   3  -3   4    7.25    2.85   2
  -3   3  -4    6.40    1.43   4
  -3   3  -4    6.40    1.43   1
  -4   3  -4    3.53    1.81   4
  -4   3  -4    3.53    1.81   1
   5   2  -4  244.12   20.20   3
  -4  -2   4 2428.70   36.06   1
   4   2  -4 2450.53   73.04   3
  -4  -2   4 2428.70   36.06   4
  -3  -2   4  239.14   16.35   3
  -3  -2   4  255.68    7.91   1
  -3  -2   4  255.68    7.91   4
  -2  -2   4 3208.92   37.59   4
   2   2  -4 3274.47   72.66   2
  -2  -2   4 2743.61   71.49   3
  -2  -2   4 3208.92   37.59   1
  -1  -2   4 2096.90   54.24   2
  -1  -2   4 2057.68   49.99   3
  -1  -2   4 2035.71   25.74   4
  -1  -2   4 2035.71   25.74   1
   0  -2   4 4553.96   91.95   3
   0   2  -4 4666.48   51.10   4
   0  -2   4 4517.15  101.34   2
   0   2  -4 4666.48   51.10   1
  -1   2  -4 3547.00   43.09   4
   1  -2   4 3501.00   72.70   3
   1  -2   4 3597.60   83.19   2
  -1   2  -4 3547.00   43.09   1
   2  -2   4  997.08   34.22   2
  -2   2  -4  990.32   18.95   1
  -2   2  -4  990.32   18.95   4
   2  -2   4  985.42   28.49   3
  -3   2  -4 2098.70   34.92   4
  -3   2  -4 2098.70   34.92   1
   3  -2   4 2138.35   59.05   2
  -4   2  -4  492.22   16.14   4
  -4   2  -4  492.22   16.14   1
   5   1  -4   54.46   10.12   3
  -4  -1   4   61.40   10.17   3
  -3  -1   4  752.18   13.76   1
  -3  -1   4  752.18   13.76   4
  -3  -1   4  730.65   29.50   3
  -2  -1   4   67.49    7.20   3
  -2  -1   4   73.13    2.81   1
  -2  -1   4   73.13    2.81   4
   2   1  -4   69.78    6.96   2
  -1  -1   4 1459.17   38.82   3
   1   1  -4 1482.66   41.93   2
   1   1  -4 1440.09   17.20   1
   1   1  -4 1440.09   17.20   4
   0   1  -4   68.12    2.49   1
   0  -1   4   63.41    5.98   3
   0  -1   4   64.53    7.24   2
   0   1  -4   68.12    2.49   4
   1  -1   4  980.35   28.52   3
   1  -1   4 1008.73   32.18   2
  -1   1  -4  961.91   15.72   1
  -1   1  -4  961.91   15.72   4
  -2   1  -4  348.07   10.23   4
   2  -1   4  370.47   17.94   2
  -2   1  -4  348.07   10.23   1
   2  -1   4  338.87   16.47   3
   3  -1   4  107.50    9.56   3
  -3   1  -4  102.95    6.15   1
  -3   1  -4  102.95    6.15   4
  -4   1  -4  149.17    8.19   1
  -4   1  -4  149.17    8.19   4
   5   0  -4 2226.38   71.16   3
  -4   0   4  509.46   25.78   3
   3   0  -4 1767.37   49.92   2
  -3   0   4 1762.59   50.86   3
  -2   0   4 2678.18   29.51   4
  -2   0   4 2689.78   64.67   3
  -2   0   4 2678.18   29.51   1
   1   0  -4 5207.97  109.64   2
  -1   0   4 5041.33  104.70   3
   0   0  -4 2728.89   29.68   1
   0   0  -4 2728.89   29.68   4
   0   0   4 2729.03   62.52   3
   0   0  -4 2738.79   65.35   2
  -1   0  -4  188.82    5.64   1
   1   0   4  187.61   11.88   3
  -1   0  -4  179.44   11.58   2
  -1   0  -4  188.82    5.64   4
  -2   0  -4 4649.58   56.11   4
   2   0   4 4436.17  101.01   3
  -2   0  -4 4649.58   56.11   1
   2   0   4 4581.41   99.43   2
   3   0   4 1797.79   52.92   3
  -3   0  -4 1690.59   29.63   1
  -3   0  -4 1690.59   29.63   4
  -4   0  -4  604.03   17.75   1
   4   0   4  603.39   29.63   3
  -4   0  -4  604.03   17.75   4
  -5   1   4    9.23    3.23   3
  -4   1   4  252.07   16.87   3
   4  -1  -4  274.77   17.66   2
   3  -1  -4   20.01    5.38   2
  -3   1   4   23.62    5.50   3
   1  -1  -4   64.36    7.30   2
  -1   1   4   68.27    7.12   3
   0  -1  -4  301.77    5.56   4
   0  -1  -4  301.77    5.56   1
   0  -1  -4  323.56   16.20   2
   1   1   4   75.63    8.15   3
  -1  -1  -4   66.90    3.32   1
  -1  -1  -4   66.90    3.32   4
  -1  -1  -4   67.46    6.68   2
  -2  -1  -4   68.25    4.00   4
  -2  -1  -4   68.25    4.00   1
   2   1   4   60.74    9.03   3
  -3  -1  -4  274.23    9.75   4
   3   1   4  245.40   17.42   3
  -3  -1  -4  274.23    9.75   1
   4   1   4    5.51    2.75   3
  -4  -1  -4    1.13    1.43   1
  -4  -1  -4    1.13    1.43   4
  -4   2   4 1433.57   46.86   3
   4  -2  -4 1424.65   49.26   2
   3  -2  -4  968.21   36.95   2
  -3   2   4  974.62   34.25   3
   2  -2  -4  484.20   23.12   2
  -2   2   4  475.92   21.00   3
   1  -2  -4 5368.96  116.37   2
  -1   2   4 5276.35  112.21   3
   0  -2  -4 1616.41   20.74   1
   0   2   4 1617.46   46.73   3
   0  -2  -4 1616.41   20.74   4
   0  -2  -4 1606.12   45.55   2
  -1  -2  -4 1919.92   26.84   4
  -1  -2  -4 1919.92   26.84   1
   1   2   4 1929.35   55.72   3
  -1  -2  -4 1960.41   50.50   2
  -2  -2  -4  103.02    5.24   1
  -2  -2  -4  103.02    5.24   4
   2   2   4   90.27   11.80   3
   3   2   4 1194.61   45.57   3
  -3  -2  -4 1217.36   24.52   1
  -3  -2  -4 1217.36   24.52   4
  -4  -2  -4 1125.09   26.00   4
   4   2   4 1189.14   47.74   3
  -4  -2  -4 1125.09   26.00   1
   5  -3  -4  361.07   24.37   2
   4  -3  -4   16.54    4.13   2
   3  -3  -4  521.53   27.64   2
  -3   3   4  514.20   23.58   3
   2  -3  -4  187.83   14.78   2
  -2   3   4  206.32   13.50   3
   1  -3  -4  377.27   20.47   2
  -1   3   4  387.45   19.44   3
   0   3   4  411.68   21.39   3
   0  -3  -4  418.12   20.17   2
  -1  -3  -4    8.10    2.74   2
   1   3   4   13.83    4.53   3
  -1  -3  -4    6.48    1.63   4
  -1  -3  -4    6.48    1.63   1
   2   3   4   58.84   10.76   3
  -2  -3  -4   77.07    5.77   1
  -2  -3  -4   77.07    5.77   4
  -3  -3  -4   65.10    5.85   1
   3   3   4   70.53   11.93   3
  -3  -3  -4   65.10    5.85   4
  -4  -3  -4  164.49    8.33   1
  -4  -3  -4  164.49    8.33   4
   4  -4  -4 1221.73   50.01   2
   3  -4  -4  122.64   12.89   2
  -2   4   4 1469.47   44.55   3
   2  -4  -4 1415.70   50.07   2
  -1   4   4  288.52   16.95   3
   1  -4  -4  265.06   18.02   2
   0  -4  -4 2448.55   66.00   2
   0   4   4 2459.35   68.01   3
   1   4   4  293.81   19.93   3
   2   4   4  828.45   38.70   3
  -2  -4  -4  861.87   19.72   4
  -2  -4  -4  861.87   19.72   1
  -3  -4  -4  497.71   15.50   1
  -3  -4  -4  497.71   15.50   4
   3   4   4  517.60   30.52   3
   3  -5  -4   63.10   11.00   2
   2  -5  -4   81.22   12.82   2
   1  -5  -4   26.79    6.39   2
   0  -5  -4   52.33    8.68   2
   0   5   4   53.09    9.33   3
   1   5   4  708.25   34.61   3
   2   5   4   11.17    3.98   3
   2  -6  -4   55.99   11.04   2
   1  -6  -4  864.56   40.31   2
   1   6   4  472.51   28.02   3
   1   7  -5  223.92   10.54   1
   1   7  -5  223.92   10.54   4
   0   7  -5  145.71    8.11   4
   0   7  -5  145.71    8.11   1
   0  -7   5  186.56   16.89   2
   1  -7   5   16.77    5.37   2
  -1   7  -5    3.41    1.44   1
  -1   7  -5    3.41    1.44   4
  -3  -6   5  399.72   13.96   4
  -3  -6   5  399.72   13.96   1
  -2  -6   5  445.69   14.25   4
  -2  -6   5  445.69   14.25   1
  -1  -6   5  327.56   21.50   2
   1   6  -5  294.57   11.41   4
   1   6  -5  294.57   11.41   1
   0   6  -5  510.77   15.14   1
   0  -6   5  488.55   28.14   2
   0   6  -5  510.77   15.14   4
  -1   6  -5 1533.73   29.71   4
  -1   6  -5 1533.73   29.71   1
   1  -6   5 1579.96   57.80   2
  -2   6  -5   78.82    6.80   4
   2  -6   5   90.98   13.68   2
  -2   6  -5   78.82    6.80   1
   3  -6   5  566.28   33.14   2
  -3   6  -5  562.68   18.47   1
  -3   6  -5  562.68   18.47   4
   4   5  -5   52.91    9.20   3
   3   5  -5  279.45   19.11   3
  -3  -5   5  283.55   10.72   1
  -3  -5   5  283.55   10.72   4
  -2  -5   5   70.40    5.67   4
  -2  -5   5   70.40    5.67   1
  -1  -5   5  319.31   20.46   2
   1   5  -5  344.98   11.09   4
   1   5  -5  344.98   11.09   1
   0   5  -5  635.06   15.75   4
   0  -5   5  639.94   31.12   2
   0   5  -5  635.06   15.75   1
  -1   5  -5    3.32    1.36   4
   1  -5   5   11.89    4.90   2
  -1   5  -5    3.32    1.36   1
  -2   5  -5  139.40    7.41   4
   2  -5   5  156.95   14.92   2
  -2   5  -5  139.40    7.41   1
   3  -5   5    6.73    3.03   2
  -3   5  -5    3.75    1.56   1
  -3   5  -5    3.75    1.56   4
   4  -5   5    5.86    3.39   2
   4   4  -5  108.68   14.06   3
  -3  -4   5  553.25   14.56   1
  -3  -4   5  553.25   14.56   4
   3   4  -5  560.53   28.23   3
  -2  -4   5 1686.44   27.29   4
   2   4  -5 1674.80   51.54   2
  -2  -4   5 1686.44   27.29   1
  -2  -4   5 1649.33   49.37   3
  -1  -4   5  425.76   22.34   2
   1   4  -5  431.60   11.27   4
   1   4  -5  431.60   11.27   1
   0   4  -5 1177.53   20.76   1
   0   4  -5 1177.53   20.76   4
   0  -4   5 1187.34   42.20   2
   1  -4   5   11.01    4.40   2
  -1   4  -5   15.27    2.41   4
  -1   4  -5   15.27    2.41   1
  -2   4  -5 1597.65   28.74   4
  -2   4  -5 1597.65   28.74   1
   2  -4   5 1602.24   54.60   2
  -3   4  -5  285.46   11.27   1
   3  -4   5  281.71   20.23   2
  -3   4  -5  285.46   11.27   4
  -4   4  -5  282.46   12.66   1
  -4   4  -5  282.46   12.66   4
   4   3  -5    3.47    2.23   3
  -3  -3   5  375.57   22.11   3
  -2  -3   5  855.19   15.88   4
  -2  -3   5  883.21   31.92   3
   2   3  -5  847.26   31.89   2
  -2  -3   5  855.19   15.88   1
  -1  -3   5   79.72    7.52   3
  -1  -3   5   63.08    9.31   2
   0  -3   5   86.03   10.84   2
   0   3  -5   74.53    3.87   1
   0  -3   5   88.96    7.10   3
   0   3  -5   74.53    3.87   4
  -1   3  -5   24.74    2.95   4
  -1   3  -5   24.74    2.95   1
   1  -3   5   36.07    7.45   2
  -2   3  -5   69.57    5.64   4
   2  -3   5   74.51   10.82   2
  -2   3  -5   69.57    5.64   1
  -3   3  -5   73.12    6.31   4
   3  -3   5   76.37   11.26   2
  -3   3  -5   73.12    6.31   1
  -4   3  -5  132.06    9.35   4
  -4   3  -5  132.06    9.35   1
   5   2  -5  365.52   26.01   3
  -4  -2   5  647.76   32.40   3
   3   2  -5  730.40   28.88   2
  -3  -2   5  765.34   31.91   3
   2   2  -5   25.02    5.43   2
  -2  -2   5   25.84    6.00   3
  -1  -2   5 3923.38   88.12   3
   1   2  -5 4058.08   44.82   4
   1   2  -5 4058.08   44.82   1
   0  -2   5  650.13   23.24   3
   0   2  -5  683.90   12.02   1
   0   2  -5  683.90   12.02   4
   1  -2   5 1559.68   40.65   3
  -1   2  -5 1563.00   23.90   1
  -1   2  -5 1563.00   23.90   4
   1  -2   5 1605.02   49.07   2
  -2   2  -5   11.79    1.99   4
  -2   2  -5   11.79    1.99   1
   2  -2   5    7.74    2.30   3
   2  -2   5    5.38    3.06   2
  -3   2  -5  615.40   16.88   4
   3  -2   5  636.71   28.68   2
  -3   2  -5  615.40   16.88   1
  -4   2  -5  757.52   20.88   4
  -4   2  -5  757.52   20.88   1
  -4  -1   5   83.32   11.96   3
   3   1  -5    5.54    2.60   2
  -3  -1   5    6.45    2.47   3
   2   1  -5  234.05   14.90   2
  -2  -1   5  252.83   15.40   3
  -1  -1   5   28.02    5.19   3
   1   1  -5   19.07    4.89   2
   0  -1   5   45.76    6.37   3
   0   1  -5   30.00    5.95   2
   0   1  -5   45.85    2.04   1
   0   1  -5   45.85    2.04   4
  -1   1  -5  623.67   12.02   4
   1  -1   5  602.21   22.56   3
   1  -1   5  480.24   24.78   2
  -1   1  -5  623.67   12.02   1
  -2   1  -5  295.49    9.34   4
   2  -1   5  303.28   17.45   2
  -2   1  -5  295.49    9.34   1
   2  -1   5  278.26   15.79   3
  -3   1  -5   99.92    5.78   1
  -3   1  -5   99.92    5.78   4
   3  -1   5  111.57   10.41   3
  -4   1  -5   23.09    3.61   4
  -4   1  -5   23.09    3.61   1
  -5   0   5  348.58   23.33   3
   4   0  -5 1426.81   47.57   2
  -4   0   5 1462.81   49.77   3
   3   0  -5   49.44    7.99   2
  -3   0   5   63.50    9.16   3
  -2   0   5 1718.85   49.12   3
   2   0  -5 1718.43   50.84   2
  -1   0   5   22.89    5.35   3
   1   0  -5   28.58    6.46   2
   0   0  -5 2479.19   63.80   2
   0   0   5 2519.92   61.63   3
   1   0   5  348.11   18.04   3
  -1   0  -5  366.03    8.48   4
  -1   0  -5  345.67   18.30   2
  -1   0  -5  366.03    8.48   1
  -2   0  -5  703.83   15.03   4
   2   0   5  714.31   29.11   3
  -2   0  -5  703.83   15.03   1
  -2   0  -5  625.55   26.00   2
  -3   0  -5  895.90   20.09   1
   3   0   5  925.76   37.06   3
  -3   0  -5  895.90   20.09   4
  -4   0  -5   97.27    7.37   4
  -4   0  -5   97.27    7.37   1
   4   0   5  126.89   12.01   3
  -5   1   5  180.93   15.28   3
   4  -1  -5   27.63    5.80   2
  -4   1   5   26.15    5.76   3
   3  -1  -5   35.16    7.83   2
  -3   1   5   19.49    5.07   3
   2  -1  -5    7.36    3.60   2
  -2   1   5    8.29    3.31   3
   1  -1  -5   19.59    5.29   2
  -1   1   5   25.03    5.53   3
   0  -1  -5  696.80   28.38   2
   0   1   5  788.86   29.08   3
  -1  -1  -5  629.37   12.13   4
  -1  -1  -5  593.34   24.94   2
   1   1   5  596.36   26.43   3
  -1  -1  -5  629.37   12.13   1
  -2  -1  -5  136.35    5.87   4
  -2  -1  -5  136.35    5.87   1
   2   1   5  121.29   12.11   3
  -3  -1  -5  121.05    6.20   1
  -3  -1  -5  121.05    6.20   4
   3   1   5  127.54   12.62   3
  -4  -1  -5    0.78    1.85   1
  -4  -1  -5    0.78    1.85   4
   4   1   5    1.45    2.72   3
  -4   2   5  221.81   16.13   3
   4  -2  -5  208.25   17.01   2
  -3   2   5 1932.68   56.91   3
   3  -2  -5 1953.17   61.07   2
   2  -2  -5    4.32    2.63   2
  -2   2   5    7.41    2.71   3
  -1   2   5 1460.70   44.90   3
   1  -2  -5 1493.71   47.02   2
   0   2   5 1363.32   44.41   3
   0  -2  -5 1403.66   44.02   2
   1   2   5  437.57   24.28   3
  -1  -2  -5  445.66   21.33   2
   2   2   5  387.34   24.38   3
  -2  -2  -5  424.61   11.50   4
  -2  -2  -5  424.61   11.50   1
  -3  -2  -5  193.60    8.30   4
  -3  -2  -5  193.60    8.30   1
   3   2   5  175.27   16.02   3
  -4  -2  -5 1526.09   30.98   1
  -4  -2  -5 1526.09   30.98   4
   4  -3  -5   -1.54    2.41   2
   3  -3  -5   86.56   12.78   2
  -3   3   5   91.58    9.51   3
  -2   3   5  287.46   17.74   3
   2  -3  -5  271.46   19.13   2
   1  -3  -5  124.59   11.78   2
  -1   3   5  122.91   11.19   3
   0   3   5  426.11   23.75   3
   0  -3  -5  491.82   24.13   2
   1   3   5  250.90   18.73   3
   2   3   5  142.98   14.26   3
   3   3   5   12.85    4.39   3
   3  -4  -5  158.10   15.31   2
   2  -4  -5  583.75   31.03   2
  -2   4   5  594.41   27.30   3
   1  -4  -5  494.94   26.58   2
  -1   4   5  500.66   25.56   3
   0   4   5  503.15   26.96   3
   0  -4  -5  497.20   25.39   2
   1   4   5 1650.69   58.03   3
   2   4   5   72.73   12.48   3
   2  -5  -5   56.15   10.52   2
   1  -5  -5   55.69    9.53   2
  -1   5   5   66.32    9.89   3
   0   5   5  124.31   11.64   3
   1   5   5  349.52   23.75   3
   1  -6  -5   65.89   10.82   2
   2   7  -6   66.53    5.93   4
   2   7  -6   66.53    5.93   1
   1   7  -6   16.57    2.77   1
   1   7  -6   16.57    2.77   4
   0   7  -6    1.94    1.41   4
   0   7  -6    1.94    1.41   1
   0  -7   6    3.66    3.94   2
  -1   7  -6  192.65    9.51   4
  -1   7  -6  192.65    9.51   1
   1  -7   6  175.02   16.90   2
   2   6  -6   39.33    4.19   1
   2   6  -6   39.33    4.19   4
   1   6  -6 1423.69   27.75   4
   1   6  -6 1423.69   27.75   1
  -1  -6   6 1392.87   54.10   2
   0   6  -6  353.76   12.11   4
   0  -6   6  379.78   25.10   2
   0   6  -6  353.76   12.11   1
  -1   6  -6 1553.42   30.30   1
   1  -6   6 1508.21   58.27   2
  -1   6  -6 1553.42   30.30   4
   2  -6   6  381.85   26.68   2
  -2   6  -6  418.86   14.52   4
  -2   6  -6  418.86   14.52   1
   3   5  -6    7.81    2.87   3
  -1  -5   6   80.38   11.93   2
   1   5  -6   55.90    4.48   1
   1   5  -6   55.90    4.48   4
   0   5  -6  262.94    9.39   1
   0   5  -6  262.94    9.39   4
   0  -5   6  240.92   19.22   2
   1  -5   6  184.42   16.72   2
  -1   5  -6  185.19    8.16   4
  -1   5  -6  185.19    8.16   1
  -2   5  -6 1005.04   22.91   4
  -2   5  -6 1005.04   22.91   1
   2  -5   6  992.43   43.58   2
   3  -5   6   37.81    8.05   2
  -3   5  -6   29.71    3.28   1
  -3   5  -6   29.71    3.28   4
   4   4  -6  693.62   35.58   3
  -3  -4   6  367.51   22.68   3
  -2  -4   6 2659.03   70.46   3
   2   4  -6 2680.77   75.22   2
   1   4  -6  411.20   10.95   4
   1   4  -6  411.20   10.95   1
  -1  -4   6  430.41   20.02   3
  -1  -4   6  441.44   25.28   2
   0   4  -6 1255.81   22.16   4
   0  -4   6 1284.96   48.02   2
   0   4  -6 1255.81   22.16   1
  -1   4  -6 1298.39   24.27   1
   1  -4   6 1355.02   49.63   2
  -1   4  -6 1298.40   24.27   4
   2  -4   6  975.48   41.23   2
  -2   4  -6  961.55   21.48   1
  -2   4  -6  961.55   21.48   4
  -3   4  -6 1569.66   31.22   1
  -3   4  -6 1569.66   31.22   4
   3  -4   6 1496.16   55.72   2
  -4  -3   6   50.77   10.32   3
  -3  -3   6   83.92   11.75   3
  -2  -3   6    6.21    2.42   3
   2   3  -6   11.23    3.96   2
  -1  -3   6 1280.69   40.17   3
   0  -3   6   54.94    6.99   3
   0  -3   6   50.62    9.11   2
  -1   3  -6  516.53   12.83   4
  -1   3  -6  516.53   12.83   1
   1  -3   6  480.75   26.64   2
   2  -3   6   29.77    6.93   2
  -2   3  -6   27.80    3.51   4
  -2   3  -6   27.80    3.51   1
  -3   3  -6  508.50   16.05   1
   3  -3   6  533.01   28.48   2
  -3   3  -6  508.50   16.05   4
  -4   3  -6  187.43    9.69   4
  -4   3  -6  187.43    9.69   1
  -4  -2   6  476.90   27.96   3
   3   2  -6 1763.07   54.53   2
  -3  -2   6 1827.85   57.50   3
   2   2  -6  457.82   23.52   2
  -2  -2   6  460.80   23.01   3
  -1  -2   6 2443.60   63.31   3
   1   2  -6 2513.40   69.36   2
   0  -2   6 2049.24   53.53   3
  -1   2  -6  563.29   12.42   4
  -1   2  -6  563.29   12.42   1
   1  -2   6  559.43   27.95   2
  -2   2  -6 1397.12   25.05   4
  -2   2  -6 1397.12   25.05   1
   2  -2   6 1367.92   47.69   2
  -3   2  -6  313.36   11.54   4
  -3   2  -6  313.36   11.54   1
  -4   2  -6 2009.67   37.97   1
  -4   2  -6 2009.67   37.97   4
  -4  -1   6  242.90   18.66   3
   3   1  -6  116.82   11.24   2
  -3  -1   6  112.45   11.37   3
  -2  -1   6  406.66   21.58   3
   2   1  -6  388.40   21.69   2
   1   1  -6   56.33    9.36   2
  -1  -1   6   99.35    9.48   3
   0  -1   6 1566.84   45.66   3
   0   1  -6 1575.01   50.18   2
   1  -1   6   35.20    6.21   3
  -1   1  -6   32.13    6.94   2
   2  -1   6  140.79   12.47   2
  -2   1  -6  128.19    5.90   4
  -2   1  -6  128.19    5.90   1
   2  -1   6  137.15   11.24   3
  -3   1  -6  189.69    8.40   1
  -3   1  -6  189.69    8.40   4
  -4   1  -6   -0.33    1.81   4
  -4   1  -6   -0.33    1.81   1
  -5   0   6  207.00   17.61   3
  -4   0   6 1617.09   55.78   3
   4   0  -6 1629.31   54.57   2
   3   0  -6 1273.26   45.36   2
  -3   0   6 1274.31   45.18   3
  -2   0   6 1037.21   37.43   3
   2   0  -6 1041.36   39.57   2
   1   0  -6 1186.76   41.78   2
  -1   0   6 1188.40   39.30   3
   0   0  -6  825.58   32.64   2
   0   0   6  787.70   30.53   3
  -1   0  -6 4929.45  114.55   2
   1   0   6 5126.97  112.75   3
   2   0   6  202.09   15.27   3
  -3   0  -6  839.82   19.40   4
   3   0   6  896.99   37.63   3
  -3   0  -6  839.82   19.40   1
  -4   0  -6  187.02    8.71   4
  -4   0  -6  187.02    8.71   1
  -5   1   6   39.89    8.17   3
   4  -1  -6   40.32    8.60   2
  -4   1   6   32.53    6.95   3
   3  -1  -6  789.87   35.39   2
  -3   1   6  807.40   34.10   3
   2  -1  -6   29.28    7.00   2
  -2   1   6   35.25    7.30   3
  -1   1   6  153.47   12.85   3
   1  -1  -6  162.50   13.84   2
   0   1   6   21.05    5.76   3
   0  -1  -6   23.53    5.95   2
   1   1   6  219.93   16.57   3
  -1  -1  -6  232.87   15.50   2
   2   1   6  248.40   18.51   3
   3   1   6   41.86    9.08   3
   4  -2  -6  577.84   31.08   2
  -4   2   6  552.14   28.90   3
   3  -2  -6 1466.60   52.80   2
  -3   2   6 1402.91   49.19   3
   2  -2  -6 1443.13   51.24   2
  -2   2   6 1451.41   48.08   3
  -1   2   6  110.65   11.21   3
   1  -2  -6  132.74   12.67   2
   0   2   6 2461.00   69.16   3
   0  -2  -6 2409.64   68.31   2
   1   2   6  275.81   19.65   3
  -1  -2  -6  243.51   16.40   2
   2   2   6 1347.03   51.71   3
   3   2   6  227.19   19.22   3
   4  -3  -6   58.04   10.93   2
  -3   3   6   41.78    7.87   3
   3  -3  -6   41.99    9.01   2
   2  -3  -6  438.14   26.32   2
  -2   3   6  426.12   24.13   3
  -1   3   6  142.03   12.88   3
   1  -3  -6  127.73   12.62   2
   0  -3  -6   21.77    6.24   2
   0   3   6   20.00    5.08   3
   1   3   6   48.60    9.30   3
   2   3   6   10.26    4.14   3
   3  -4  -6  772.39   39.74   2
  -2   4   6  372.18   22.43   3
   2  -4  -6  345.10   23.67   2
   1  -4  -6 1046.36   43.21   2
  -1   4   6  994.52   40.97   3
   0   4   6   81.72   12.35   3
   0  -4  -6   95.08   10.09   2
   1   4   6 1198.60   50.32   3
   2  -5  -6    6.99    3.74   2
  -1   5   6    4.29    2.61   3
   1  -5  -6    3.20    3.07   2
   0   5   6  161.04   14.26   3
   0   7  -7   16.47    2.49   1
   0   7  -7   16.47    2.49   4
  -1  -6   7  568.71   33.35   2
   0  -6   7  884.79   44.21   2
   1  -6   7   21.52    5.21   2
  -1   6  -7   31.80    3.73   1
  -1   6  -7   31.80    3.73   4
  -2   6  -7  646.26   18.98   4
  -2   6  -7  646.26   18.98   1
   3   5  -7   65.90    9.62   3
  -1  -5   7   19.43    5.89   2
   0  -5   7  124.37   16.02   2
  -1   5  -7   53.28    5.17   1
   1  -5   7   53.36   10.80   2
  -1   5  -7   53.28    5.17   4
   2  -5   7   24.57    6.00   2
  -2   5  -7   31.88    3.54   4
  -2   5  -7   31.88    3.54   1
  -3  -4   7  495.07   28.13   3
   2   4  -7  468.79   27.02   2
  -2  -4   7  449.70   24.18   3
  -1  -4   7  492.08   28.52   2
   0  -4   7   42.81    9.39   2
   1  -4   7 1693.98   60.71   2
  -2   4  -7   76.29    6.26   1
   2  -4   7   69.89   12.62   2
  -2   4  -7   76.29    6.26   4
  -3   4  -7  389.12   14.27   4
  -3   4  -7  389.12   14.27   1
   3  -4   7  385.44   25.84   2
  -4  -3   7    6.79    4.36   3
  -3  -3   7  163.01   14.76   3
  -2  -3   7  291.27   19.14   3
   2   3  -7  323.09   21.35   2
   1   3  -7    0.92    2.14   2
  -1  -3   7    2.05    1.80   3
   0  -3   7   25.92    7.03   2
   0  -3   7   16.37    3.95   3
   1  -3   7  115.05   14.87   2
   2  -3   7    5.17    2.43   2
  -3   3  -7  105.50    7.78   1
  -3   3  -7  105.50    7.78   4
   3  -3   7   91.19   12.87   2
  -4  -2   7  172.70   16.31   3
   3   2  -7  460.61   25.72   2
  -3  -2   7  451.77   25.88   3
   2   2  -7  773.94   35.34   2
  -2  -2   7  777.61   33.37   3
  -1  -2   7  174.81   13.49   3
   1   2  -7  159.65   15.18   2
   0  -2   7 1246.28   40.80   3
   0   2  -7 1287.77   49.27   2
   1  -2   7   34.23    6.23   3
   1  -2   7   59.67   10.69   2
   2  -2   7  560.71   31.34   2
  -4  -1   7   63.49   10.94   3
   3   1  -7  178.15   15.26   2
  -3  -1   7  187.82   15.65   3
  -2  -1   7    1.50    1.87   3
   2   1  -7   -0.37    2.15   2
  -1  -1   7   19.11    5.17   3
   1   1  -7   23.82    6.75   2
   0   1  -7   21.28    6.60   2
   0  -1   7   20.41    5.04   3
  -1   1  -7   63.88   10.30   2
   1  -1   7   80.22   10.15   3
   2  -1   7  329.13   19.79   3
  -2   1  -7  319.07   20.93   2
   4   0  -7  176.48   15.82   2
  -4   0   7  172.98   15.63   3
  -3   0   7  788.01   35.45   3
   3   0  -7  772.74   36.00   2
   2   0  -7  274.08   19.96   2
  -2   0   7  304.81   19.74   3
   1   0  -7  488.04   26.78   2
  -1   0   7  509.12   25.28   3
   0   0   7  140.77   12.45   3
   0   0  -7  169.07   14.98   2
   1   0   7 1404.35   46.81   3
  -1   0  -7 1361.72   47.20   2
   2   0   7  560.89   28.80   3
   3   0   7    2.54    2.79   3
  -4   1   7    6.30    2.68   3
   4  -1  -7   12.41    4.28   2
   3  -1  -7  104.92   14.62   2
  -3   1   7  108.11   11.53   3
   2  -1  -7   71.18   11.55   2
  -2   1   7   58.93    9.94   3
  -1   1   7  138.09   12.87   3
   1  -1  -7  142.43   13.89   2
   0  -1  -7  260.43   18.66   2
   0   1   7  290.08   19.51   3
  -1  -1  -7   28.91    6.13   2
   1   1   7   31.96    7.42   3
   2   1   7  117.73   12.59   3
   3   1   7   85.23   13.68   3
   4  -2  -7  346.61   24.27   2
  -4   2   7  371.87   23.76   3
  -3   2   7  251.02   18.77   3
   3  -2  -7  226.27   19.01   2
  -2   2   7 1195.53   45.08   3
   2  -2  -7 1113.36   46.57   2
  -1   2   7  172.07   15.05   3
   1  -2  -7  145.09   14.02   2
   0  -2  -7  260.36   18.73   2
   0   2   7  259.68   19.46   3
   1   2   7  683.87   34.77   3
   2   2   7  342.05   24.35   3
   3  -3  -7    8.39    4.12   2
  -3   3   7   12.29    3.59   3
  -2   3   7   37.73    7.40   3
   2  -3  -7   24.21    5.73   2
  -1   3   7  206.92   17.55   3
   1  -3  -7  202.52   17.48   2
   0   3   7  175.57   16.58   3
   0  -3  -7  206.57   16.71   2
   1   3   7   49.29   10.02   3
   2  -4  -7  519.07   31.33   2
  -2   4   7  477.01   27.68   3
   1  -4  -7  507.48   30.15   2
  -1   4   7  510.01   29.80   3
   0   4   7  300.09   22.83   3
  -1  -6   8  733.16   42.68   2
   0  -6   8 1126.05   52.73   2
   2   5  -8   33.03    7.73   2
  -1  -5   8   26.97    7.36   2
   0  -5   8  122.40   17.35   2
   1  -5   8  421.31   29.11   2
  -3  -4   8 1011.02   44.09   3
   2   4  -8  261.04   20.98   2
  -2  -4   8  321.83   20.87   3
   1   4  -8  941.57   45.25   2
   0  -4   8  729.51   40.08   2
   1  -4   8 1479.96   59.26   2
   2  -4   8 1044.99   47.83   2
  -3  -3   8  549.16   30.72   3
   3   3  -8  580.78   30.90   2
  -2  -3   8    7.06    3.09   3
   2   3  -8    3.81    2.62   2
   1   3  -8   21.58    6.45   2
  -1  -3   8    9.47    3.86   3
   0   3  -8  588.37   34.40   2
   1  -3   8  101.40   15.31   2
   2  -3   8  226.36   20.20   2
  -3  -2   8  318.65   22.51   3
   3   2  -8  314.90   22.23   2
   2   2  -8 2198.17   71.83   2
  -2  -2   8 2165.21   66.35   3
   1   2  -8  750.97   37.04   2
  -1  -2   8  740.33   32.62   3
   0   2  -8  659.16   35.40   2
   0  -2   8  695.06   30.17   3
   1  -2   8  873.58   34.30   3
  -1   2  -8  835.63   40.75   2
  -2   2  -8  608.58   33.70   2
   3   1  -8  104.19   14.25   2
  -3  -1   8  109.32   13.91   3
   2   1  -8  153.35   15.46   2
  -2  -1   8  155.70   14.28   3
   1   1  -8  250.49   20.38   2
  -1  -1   8  257.02   18.03   3
   0  -1   8    9.44    3.61   3
   0   1  -8    5.98    2.80   2
  -1   1  -8  321.09   22.51   2
   1  -1   8  307.05   19.50   3
  -2   1  -8   45.49    9.22   2
   2  -1   8   55.40    9.91   3
   4   0  -8   47.58    8.73   2
  -3   0   8 1292.71   50.02   3
   3   0  -8 1224.08   50.56   2
   2   0  -8  696.78   35.71   2
  -2   0   8  698.20   33.57   3
   1   0  -8 1083.40   45.93   2
  -1   0   8 1100.76   42.81   3
   0   0  -8  805.93   37.37   2
   0   0   8  792.19   35.50   3
  -1   0  -8  426.69   25.87   2
   1   0   8  436.90   25.24   3
   2   0   8 1094.71   44.48   3
   3  -1  -8    9.21    3.63   2
  -3   1   8   16.89    5.47   3
  -2   1   8  121.46   14.81   3
   2  -1  -8  125.14   13.65   2
   1  -1  -8   13.90    4.24   2
  -1   1   8   13.11    4.28   3
   0   1   8  406.29   25.09   3
   0  -1  -8  385.83   24.77   2
   1   1   8   50.88    9.81   3
  -1  -1  -8   66.03   10.41   2
   2   1   8    8.27    3.20   3
   3  -2  -8   92.66   14.43   2
  -3   2   8   76.38   12.81   3
  -2   2   8  857.74   39.55   3
   2  -2  -8  799.23   40.50   2
   1  -2  -8  872.44   41.02   2
  -1   2   8  909.91   41.37   3
   0   2   8  123.21   16.03   3
   0  -2  -8  135.75   13.63   2
   1   2   8  632.10   34.38   3
  -2   3   8   11.03    3.71   3
   1  -3  -8  117.58   16.05   2
  -1   3   8  134.72   16.97   3
   0  -3  -8    8.94    3.73   2
   0   3   8    6.49    3.48   3
   2   5  -9   15.89    5.04   2
   1   5  -9   21.48    7.26   2
  -2  -4   9   55.49   10.29   3
   2   4  -9   40.35    8.82   2
   1   4  -9  213.84   20.13   2
   0   4  -9  480.26   33.28   2
   1  -4   9  221.95   20.98   2
   3   3  -9   28.77    7.22   2
  -2  -3   9   89.10   12.60   3
   2   3  -9   69.97   12.99   2
  -1  -3   9  377.24   23.46   3
   1   3  -9  433.72   30.04   2
   0   3  -9   25.68    6.72   2
  -1   3  -9    2.15    2.59   2
   3   2  -9   85.01   14.11   2
  -3  -2   9   70.33   12.49   3
  -2  -2   9  416.54   25.83   3
   2   2  -9  436.06   28.93   2
   1   2  -9  560.41   33.32   2
  -1  -2   9  532.35   28.63   3
   0  -2   9   -2.38    1.99   3
   0   2  -9    9.59    3.94   2
  -1   2  -9  368.92   26.72   2
  -2   2  -9  221.42   19.13   2
  -3  -1   9  235.95   19.93   3
   3   1  -9  222.43   19.69   2
  -2  -1   9   16.65    4.68   3
   2   1  -9   13.68    5.68   2
  -1  -1   9   33.40    6.79   3
   1   1  -9   29.84    7.39   2
   0   1  -9  178.41   17.16   2
   0  -1   9  189.37   15.63   3
  -1   1  -9    3.59    2.23   2
   1  -1   9    1.86    2.44   3
   2   0  -9  627.23   35.81   2
  -2   0   9  596.00   32.74   3
  -1   0   9  160.93   15.19   3
   1   0  -9  165.91   16.65   2
   0   0  -9  807.27   39.52   2
   0   0   9  756.52   36.62   3
   1   0   9   12.26    3.10   3
  -1   0  -9   28.39    6.90   2
  -2   1   9   40.26    8.40   3
   2  -1  -9   51.64   11.01   2
   1  -1  -9    8.94    3.67   2
  -1   1   9    1.70    2.66   3
   0  -1  -9   11.73    3.13   2
   0   1   9   13.38    3.98   3
   1  -2  -9 1055.14   47.82   2
   0  -2  -9  106.41   14.45   2
  -1  -2  10 1188.65   48.18   3
   0  -2  10  168.05   14.81   3
  -1  -1  10    9.57    3.26   3
   0  -1  10  176.32   15.91   3
   0   0   0    0.00    0.00   0
;
_shelx_hkl_checksum              34403
loop_
_space_group_symop_operation_xyz
'x, y, z'
'-x, -y, -z'
loop_
_atom_site_label
_atom_site_type_symbol
_atom_site_fract_x
_atom_site_fract_y
_atom_site_fract_z
_atom_site_U_iso_or_equiv
_atom_site_adp_type
_atom_site_occupancy
_atom_site_site_symmetry_order
_atom_site_calc_flag
_atom_site_refinement_flags_posn
_atom_site_refinement_flags_adp
_atom_site_refinement_flags_occupancy
Ge1 Ge 0.5000 0.0000 0.5000 0.00722(15) Uani 1 2 d S . P
Fe1 Fe 0.5000 0.5000 0.5000 0.00823(18) Uani 1 2 d S . P
P1 P 0.0763(2) 0.29648(14) 0.72638(12) 0.0076(2) Uani 1 1 d . . .
O1 O 0.7699(6) 0.2546(4) 0.5959(3) 0.0099(5) Uani 1 1 d . . .
O2 O 0.0090(6) 0.3108(4) 0.9159(4) 0.0135(5) Uani 1 1 d D . .
O3 O 0.2420(6) 0.4999(4) 0.7005(4) 0.0119(5) Uani 1 1 d . . .
O4 O 0.2516(5) 0.0840(4) 0.6819(3) 0.0096(5) Uani 1 1 d . . .
O5 O 0.3113(5) 0.1768(4) 0.3628(3) 0.0099(5) Uani 1 1 d D . .
K1 K 0.4737(19) -0.0355(11) 0.9922(14) 0.0317(12) Uani 0.5 1 d . . P
HO2 H 0.02(4) 0.439(9) 0.970(19) 0.050 Uiso 0.5 1 d D U P
HO5 H 0.130(5) 0.151(11) 0.341(9) 0.050 Uiso 1 1 d D U .
loop_
_atom_site_aniso_label
_atom_site_aniso_U_11
_atom_site_aniso_U_22
_atom_site_aniso_U_33
_atom_site_aniso_U_23
_atom_site_aniso_U_13
_atom_site_aniso_U_12
Ge1 0.0068(2) 0.0066(2) 0.0088(3) 0.00252(19) 0.00122(19) 0.00100(17)
Fe1 0.0081(3) 0.0069(3) 0.0107(4) 0.0035(3) 0.0023(3) 0.0010(2)
P1 0.0076(4) 0.0074(4) 0.0076(4) 0.0016(3) 0.0009(3) 0.0008(3)
O1 0.0088(11) 0.0080(11) 0.0128(13) 0.0033(10) 0.0001(10) -0.0012(9)
O2 0.0207(14) 0.0115(12) 0.0089(13) 0.0017(10) 0.0050(11) 0.0016(10)
O3 0.0113(12) 0.0099(11) 0.0147(13) 0.0024(10) 0.0034(10) 0.0005(9)
O4 0.0088(11) 0.0103(11) 0.0107(13) 0.0037(10) 0.0021(10) 0.0028(9)
O5 0.0075(11) 0.0109(11) 0.0119(13) 0.0045(10) 0.0007(10) -0.0010(9)
K1 0.021(3) 0.059(4) 0.0259(18) 0.031(3) 0.0047(18) 0.008(2)
loop_
_atom_type_symbol
_atom_type_description
_atom_type_scat_dispersion_real
_atom_type_scat_dispersion_imag
_atom_type_scat_source
H H 0.0000 0.0000 'International Tables Vol C Tables 4.2.6.8 and 6.1.1.4'
Fe Fe 0.3463 0.8444 'International Tables Vol C Tables 4.2.6.8 and 6.1.1.4'
K K 0.2009 0.2494 'International Tables Vol C Tables 4.2.6.8 and 6.1.1.4'
Ge Ge 0.1547 1.8001 'International Tables Vol C Tables 4.2.6.8 and 6.1.1.4'
O O 0.0106 0.0060 'International Tables Vol C Tables 4.2.6.8 and 6.1.1.4'
P P 0.1023 0.0942 'International Tables Vol C Tables 4.2.6.8 and 6.1.1.4'
loop_
_geom_angle_atom_site_label_1
_geom_angle_atom_site_label_2
_geom_angle_atom_site_label_3
_geom_angle
_geom_angle_site_symmetry_1
_geom_angle_site_symmetry_3
O5 Ge1 O5 180.0 2_656 .
O5 Ge1 O1 84.08(11) 2_656 2_656
O5 Ge1 O1 95.92(11) . 2_656
O5 Ge1 O1 95.92(11) 2_656 .
O5 Ge1 O1 84.08(11) . .
O1 Ge1 O1 180.0 2_656 .
O5 Ge1 O4 92.74(11) 2_656 2_656
O5 Ge1 O4 87.26(11) . 2_656
O1 Ge1 O4 91.13(11) 2_656 2_656
O1 Ge1 O4 88.87(11) . 2_656
O5 Ge1 O4 87.26(11) 2_656 .
O5 Ge1 O4 92.74(11) . .
O1 Ge1 O4 88.87(11) 2_656 .
O1 Ge1 O4 91.13(11) . .
O4 Ge1 O4 180.0 2_656 .
O5 Ge1 K1 51.00(17) 2_656 2_657
O5 Ge1 K1 129.00(17) . 2_657
O1 Ge1 K1 101.16(10) 2_656 2_657
O1 Ge1 K1 78.84(10) . 2_657
O4 Ge1 K1 139.26(16) 2_656 2_657
O4 Ge1 K1 40.74(16) . 2_657
O5 Ge1 K1 129.00(17) 2_656 1_554
O5 Ge1 K1 51.00(17) . 1_554
O1 Ge1 K1 78.84(10) 2_656 1_554
O1 Ge1 K1 101.16(10) . 1_554
O4 Ge1 K1 40.74(16) 2_656 1_554
O4 Ge1 K1 139.26(16) . 1_554
K1 Ge1 K1 180.0 2_657 1_554
O5 Ge1 K1 48.10(17) 2_656 .
O5 Ge1 K1 131.90(17) . .
O1 Ge1 K1 94.30(11) 2_656 .
O1 Ge1 K1 85.70(11) . .
O4 Ge1 K1 139.38(16) 2_656 .
O4 Ge1 K1 40.62(16) . .
K1 Ge1 K1 6.97(14) 2_657 .
K1 Ge1 K1 173.03(14) 1_554 .
O5 Ge1 K1 131.90(17) 2_656 2_656
O5 Ge1 K1 48.10(17) . 2_656
O1 Ge1 K1 85.70(11) 2_656 2_656
O1 Ge1 K1 94.30(11) . 2_656
O4 Ge1 K1 40.62(16) 2_656 2_656
O4 Ge1 K1 139.38(16) . 2_656
K1 Ge1 K1 173.03(14) 2_657 2_656
K1 Ge1 K1 6.97(14) 1_554 2_656
K1 Ge1 K1 180.00(19) . 2_656
O3 Fe1 O3 180.0 . 2_666
O3 Fe1 O5 88.49(10) . 2_666
O3 Fe1 O5 91.51(10) 2_666 2_666
O3 Fe1 O5 91.51(10) . .
O3 Fe1 O5 88.49(10) 2_666 .
O5 Fe1 O5 180.0 2_666 .
O3 Fe1 O1 91.40(10) . 2_666
O3 Fe1 O1 88.60(10) 2_666 2_666
O5 Fe1 O1 71.05(9) 2_666 2_666
O5 Fe1 O1 108.95(9) . 2_666
O3 Fe1 O1 88.60(10) . .
O3 Fe1 O1 91.40(10) 2_666 .
O5 Fe1 O1 108.95(9) 2_666 .
O5 Fe1 O1 71.05(9) . .
O1 Fe1 O1 180.0 2_666 .
O3 P1 O2 114.09(15) . .
O3 P1 O4 113.55(15) . .
O2 P1 O4 105.02(15) . .
O3 P1 O1 107.97(14) . 1_455
O2 P1 O1 109.41(15) . 1_455
O4 P1 O1 106.49(14) . 1_455
O3 P1 K1 111.20(13) . 2_657
O2 P1 K1 60.1(2) . 2_657
O4 P1 K1 50.3(2) . 2_657
O1 P1 K1 140.14(12) 1_455 2_657
O3 P1 K1 118.28(14) . .
O2 P1 K1 60.7(2) . .
O4 P1 K1 46.6(2) . .
O1 P1 K1 132.69(13) 1_455 .
K1 P1 K1 7.52(17) 2_657 .
P1 O1 Ge1 133.07(15) 1_655 .
P1 O1 Fe1 127.41(14) 1_655 .
Ge1 O1 Fe1 99.08(11) . .
P1 O2 K1 123.7(2) . 2_557
P1 O2 K1 93.9(2) . 2_657
K1 O2 K1 96.3(2) 2_557 2_657
P1 O2 K1 94.1(2) . .
K1 O2 K1 89.1(3) 2_557 .
K1 O2 K1 8.60(18) 2_657 .
P1 O2 K1 119.6(2) . 1_455
K1 O2 K1 4.8(4) 2_557 1_455
K1 O2 K1 94.2(2) 2_657 1_455
K1 O2 K1 86.65(17) . 1_455
P1 O2 HO2 110(10) . .
K1 O2 HO2 114(10) 2_557 .
K1 O2 HO2 117(10) 2_657 .
K1 O2 HO2 125(10) . .
K1 O2 HO2 118(10) 1_455 .
P1 O3 Fe1 123.56(15) . .
P1 O3 K1 129.2(2) . 1_565
Fe1 O3 K1 104.20(18) . 1_565
P1 O4 Ge1 128.95(15) . .
P1 O4 K1 109.2(3) . .
Ge1 O4 K1 112.6(2) . .
P1 O4 K1 104.0(2) . 2_657
Ge1 O4 K1 112.5(2) . 2_657
K1 O4 K1 9.9(2) . 2_657
Ge1 O5 Fe1 102.03(11) . .
Ge1 O5 K1 104.8(2) . 2_656
Fe1 O5 K1 111.94(12) . 2_656
Ge1 O5 K1 101.4(2) . 1_554
Fe1 O5 K1 120.71(13) . 1_554
K1 O5 K1 8.77(16) 2_656 1_554
Ge1 O5 HO5 113(5) . .
Fe1 O5 HO5 120(5) . .
K1 O5 HO5 104(5) 2_656 .
K1 O5 HO5 98(5) 1_554 .
K1 K1 O4 85(2) 2_657 .
K1 K1 O4 85(2) 2_657 2_657
O4 K1 O4 170.12(19) . 2_657
K1 K1 O2 144(3) 2_657 2_557
O4 K1 O2 107.7(3) . 2_557
O4 K1 O2 80.5(2) 2_657 2_557
K1 K1 O5 96(3) 2_657 2_656
O4 K1 O5 53.1(2) . 2_656
O4 K1 O5 128.2(4) 2_657 2_656
O2 K1 O5 118.8(3) 2_557 2_656
K1 K1 O2 99(2) 2_657 2_657
O4 K1 O2 132.3(4) . 2_657
O4 K1 O2 49.87(17) 2_657 2_657
O2 K1 O2 96.3(2) 2_557 2_657
O5 K1 O2 79.2(3) 2_656 2_657
K1 K1 O5 75(3) 2_657 1_556
O4 K1 O5 124.8(4) . 1_556
O4 K1 O5 52.1(2) 2_657 1_556
O2 K1 O5 69.8(2) 2_557 1_556
O5 K1 O5 171.23(16) 2_656 1_556
O2 K1 O5 101.9(3) 2_657 1_556
K1 K1 O2 72(2) 2_657 .
O4 K1 O2 48.60(17) . .
O4 K1 O2 127.4(4) 2_657 .
O2 K1 O2 90.9(3) 2_557 .
O5 K1 O2 101.4(3) 2_656 .
O2 K1 O2 171.40(18) 2_657 .
O5 K1 O2 76.2(2) 1_556 .
K1 K1 O3 151(3) 2_657 1_545
O4 K1 O3 73.7(2) . 1_545
O4 K1 O3 115.5(2) 2_657 1_545
O2 K1 O3 63.90(12) 2_557 1_545
O5 K1 O3 55.06(18) 2_656 1_545
O2 K1 O3 81.4(2) 2_657 1_545
O5 K1 O3 133.7(2) 1_556 1_545
O2 K1 O3 106.1(3) . 1_545
K1 K1 O2 31(2) 2_657 1_655
O4 K1 O2 73.76(18) . 1_655
O4 K1 O2 97.6(2) 2_657 1_655
O2 K1 O2 175.2(4) 2_557 1_655
O5 K1 O2 65.82(18) 2_656 1_655
O2 K1 O2 85.8(2) 2_657 1_655
O5 K1 O2 105.5(2) 1_556 1_655
O2 K1 O2 86.65(16) . 1_655
O3 K1 O2 120.8(3) 1_545 1_655
K1 K1 P1 99(2) 2_657 2_657
O4 K1 P1 158.2(4) . 2_657
O4 K1 P1 25.73(10) 2_657 2_657
O2 K1 P1 81.44(19) 2_557 2_657
O5 K1 P1 105.1(3) 2_656 2_657
O2 K1 P1 26.03(9) 2_657 2_657
O5 K1 P1 76.8(2) 1_556 2_657
O2 K1 P1 152.9(4) . 2_657
O3 K1 P1 93.9(2) 1_545 2_657
O2 K1 P1 98.8(2) 1_655 2_657
K1 K1 P1 73(2) 2_657 .
O4 K1 P1 24.19(10) . .
O4 K1 P1 149.6(3) 2_657 .
O2 K1 P1 104.5(3) 2_557 .
O5 K1 P1 76.2(2) 2_656 .
O2 K1 P1 153.3(3) 2_657 .
O5 K1 P1 100.8(3) 1_556 .
O2 K1 P1 25.20(9) . .
O3 K1 P1 92.9(2) 1_545 .
O2 K1 P1 74.80(15) 1_655 .
P1 K1 P1 172.48(17) 2_657 .
loop_
_geom_bond_atom_site_label_1
_geom_bond_atom_site_label_2
_geom_bond_distance
_geom_bond_site_symmetry_2
Ge1 O5 1.848(2) 2_656
Ge1 O5 1.848(2) .
Ge1 O1 1.905(2) 2_656
Ge1 O1 1.905(2) .
Ge1 O4 1.910(3) 2_656
Ge1 O4 1.910(3) .
Ge1 K1 3.914(10) 2_657
Ge1 K1 3.914(10) 1_554
Ge1 K1 3.917(10) .
Ge1 K1 3.917(10) 2_656
Fe1 O3 2.058(3) .
Fe1 O3 2.059(3) 2_666
Fe1 O5 2.148(2) 2_666
Fe1 O5 2.148(2) .
Fe1 O1 2.178(2) 2_666
Fe1 O1 2.178(2) .
P1 O3 1.505(3) .
P1 O2 1.533(3) .
P1 O4 1.559(3) .
P1 O1 1.572(3) 1_455
P1 K1 3.486(9) 2_657
P1 K1 3.592(9) .
O1 P1 1.572(3) 1_655
O2 K1 2.951(6) 2_557
O2 K1 3.028(10) 2_657
O2 K1 3.141(10) .
O2 K1 3.346(6) 1_455
O2 HO2 0.82(2) .
O3 K1 3.311(8) 1_565
O4 K1 2.763(10) .
O4 K1 2.764(10) 2_657
O5 K1 3.015(11) 2_656
O5 K1 3.103(11) 1_554
O5 HO5 0.81(2) .
K1 K1 0.476(9) 2_657
K1 O4 2.764(10) 2_657
K1 O2 2.951(6) 2_557
K1 O5 3.015(11) 2_656
K1 O2 3.028(10) 2_657
K1 O5 3.103(11) 1_556
K1 O3 3.311(8) 1_545
K1 O2 3.346(6) 1_655
K1 P1 3.486(9) 2_657
