#------------------------------------------------------------------------------
#$Date: 2015-07-08 23:43:11 +0300 (Wed, 08 Jul 2015) $
#$Revision: 141347 $
#$URL: svn://www.crystallography.net/cod/cif/4/34/33/4343332.cif $
#------------------------------------------------------------------------------
#
# This file is available in the Crystallography Open Database (COD),
# http://www.crystallography.net/
#
# All data on this site have been placed in the public domain by the
# contributors.
#
data_4343332
loop_
_publ_author_name
'Ade, Martin'
'Hillebrecht, Harald'
_publ_section_title
;
 Ternary Borides Cr2AlB2, Cr3AlB4, and Cr4AlB6: The First Members of the
 Series (CrB2)nCrAl with n = 1, 2, 3 and a Unifying Concept for Ternary
 Borides as MAB-Phases.
;
_journal_issue                   13
_journal_name_full               'Inorganic chemistry'
_journal_page_first              6122
_journal_page_last               6135
_journal_paper_doi               10.1021/acs.inorgchem.5b00049
_journal_volume                  54
_journal_year                    2015
_chemical_formula_sum            'Al B6 Cr4'
_chemical_formula_weight         299.84
_chemical_name_systematic
;
 ?
;
_space_group_crystal_system      orthorhombic
_space_group_IT_number           65
_space_group_name_Hall           '-C 2 2'
_space_group_name_H-M_alt        'C m m m'
_symmetry_space_group_name_Hall  '-C 2 2'
_symmetry_space_group_name_H-M   'C m m m'
_audit_creation_method           SHELXL-2013
_cell_angle_alpha                90
_cell_angle_beta                 90
_cell_angle_gamma                90
_cell_formula_units_Z            2
_cell_length_a                   2.9517(4)
_cell_length_b                   21.280(3)
_cell_length_c                   3.0130(3)
_cell_measurement_temperature    293(2)
_cell_measurement_theta_max      35
_cell_measurement_theta_min      4
_cell_volume                     189.25(4)
_computing_cell_refinement       'Software for IPDS-II, Fa. Stoe'
_computing_data_collection       'Software for IPDS-II, Fa. Stoe'
_computing_data_reduction        'Software for IPDS-II, Fa. Stoe'
_computing_molecular_graphics    'Diamond (Crystal impact, 2005)'
_computing_publication_material  'SHELXL-97_(Sheldrick, 2008)'
_computing_structure_refinement  'SHELXL-2013 (Sheldrick, 2013)'
_computing_structure_solution    'SHELXS-97 (Sheldrick, 2008)'
_diffrn_ambient_temperature      293(2)
_diffrn_measured_fraction_theta_full 0.992
_diffrn_measured_fraction_theta_max 0.996
_diffrn_measurement_details
; 
0 degree < omega < 180 degree
psi = 0
delta omega 2 degree
exposure time 360s 
;
_diffrn_measurement_device       '2-circle goniometer'
_diffrn_measurement_device_type  'STOE IPDS 2'
_diffrn_measurement_method       'rotation method'
_diffrn_radiation_collimation    '0.5 mm diameter, multiple pinhole'
_diffrn_radiation_monochromator  'plane graphite'
_diffrn_radiation_polarisn_norm  0
_diffrn_radiation_type           MoK\a
_diffrn_radiation_wavelength     0.71073
_diffrn_reflns_av_unetI/netI     0.0579
_diffrn_reflns_laue_measured_fraction_full 0.992
_diffrn_reflns_laue_measured_fraction_max 0.996
_diffrn_reflns_limit_h_max       4
_diffrn_reflns_limit_h_min       -4
_diffrn_reflns_limit_k_max       34
_diffrn_reflns_limit_k_min       -34
_diffrn_reflns_limit_l_max       4
_diffrn_reflns_limit_l_min       -4
_diffrn_reflns_number            1874
_diffrn_reflns_point_group_measured_fraction_full 0.992
_diffrn_reflns_point_group_measured_fraction_max 0.996
_diffrn_reflns_theta_full        25.240
_diffrn_reflns_theta_max         34.624
_diffrn_reflns_theta_min         3.830
_diffrn_source
'sealed X-ray tube, 12 x 0.4 mm long-fine focus'
_diffrn_source_current           40
_diffrn_source_power             2.00
_diffrn_source_voltage           50
_exptl_absorpt_coefficient_mu    11.190
_exptl_absorpt_correction_T_max  0.299
_exptl_absorpt_correction_T_min  0.184
_exptl_absorpt_correction_type   numerical
_exptl_absorpt_process_details   'X-Red and X-SHAPE  (Stoe & Cie, 1999)'
_exptl_crystal_colour            black
_exptl_crystal_density_diffrn    5.262
_exptl_crystal_description       irregular_fragment
_exptl_crystal_F_000             278
_exptl_crystal_size_max          0.2
_exptl_crystal_size_mid          0.1
_exptl_crystal_size_min          0.05
_exptl_transmission_factor_max   0.299
_exptl_transmission_factor_min   0.184
_refine_diff_density_max         0.769
_refine_diff_density_min         -0.911
_refine_diff_density_rms         0.188
_refine_ls_extinction_coef       0.046(3)
_refine_ls_extinction_expression Fc^*^=kFc[1+0.001xFc^2^\l^3^/sin(2\q)]^-1/4^
_refine_ls_extinction_method     SHELXL
_refine_ls_goodness_of_fit_ref   0.797
_refine_ls_hydrogen_treatment    undef
_refine_ls_matrix_type           full
_refine_ls_number_parameters     26
_refine_ls_number_reflns         278
_refine_ls_number_restraints     0
_refine_ls_restrained_S_all      0.797
_refine_ls_R_factor_all          0.0467
_refine_ls_R_factor_gt           0.0257
_refine_ls_shift/su_max          0.001
_refine_ls_shift/su_mean         0.000
_refine_ls_structure_factor_coef Fsqd
_refine_ls_weighting_details
'w=1/[\s^2^(Fo^2^)+(0.0107P)^2^+1.1470P] where P=(Fo^2^+2Fc^2^)/3'
_refine_ls_weighting_scheme      calc
_refine_ls_wR_factor_gt          0.0382
_refine_ls_wR_factor_ref         0.0413
_reflns_Friedel_coverage         0.000
_reflns_number_gt                208
_reflns_number_total             278
_reflns_threshold_expression     'I > 2\s(I)'
_cod_data_source_file            Cr4AlB6.cif
_cod_data_source_block           Cr4AlB6
_cod_depositor_comments
'Adding full bibliography for 4343328--4343335.cif.'
_cod_original_cell_volume        189.26(4)
_cod_database_code               4343332
_shelx_space_group_comment
;
The symmetry employed for this shelxl refinement is uniquely defined
by the following loop, which should always be used as a source of
symmetry information in preference to the above space-group names.
They are only intended as comments.
;
_shelxl_version_number           2013-4
_shelx_res_file
;
TITL cr4alb6 in Cmmm
CELL 0.71069   2.9517  21.2803   3.0130  90.00  90.00  90.00
ZERR    2.00   0.0004   0.0028   0.0003  0.00   0.00   0.00
LATT  7
SYMM -X, -Y, Z
SYMM -X, Y, -Z
SYMM X, -Y, -Z
SFAC B AL CR
UNIT 12 2 8
L.S. 4
OMIT 0
ACTA
WGHT    0.010700    1.147000
EXTI    0.045972
FVAR       0.78630
CR1   3    0.000000    0.076341    0.000000    10.25000    0.00252    0.00472 =
         0.00406    0.00000    0.00000    0.00000
CR2   3   -0.500000    0.188436    0.000000    10.25000    0.00420    0.00572 =
         0.00546    0.00000    0.00000    0.00000
AL    2   -0.500000    0.000000   -0.500000    10.12500    0.00650    0.00428 =
         0.00811    0.00000    0.00000    0.00000
B1    1   -0.500000    0.105010   -0.500000    10.25000    0.00303    0.00173 =
         0.00730    0.00000    0.00000    0.00000
B2    1    0.000000    0.148147   -0.500000    10.25000    0.00586    0.00120 =
         0.01152    0.00000    0.00000    0.00000
B3    1    0.000000    0.229830   -0.500000     0.26014    0.00952    0.00385 =
         0.00645    0.00000    0.00000    0.00000
HKLF 4

REM  cr4alb6 in Cmmm
REM R1 =  0.0257 for     208 Fo > 4sig(Fo)  and  0.0467 for all     278 data
REM     26 parameters refined using      0 restraints

END

WGHT      0.0107      0.0000

REM Highest difference peak  0.769,  deepest hole -0.911,  1-sigma level  0.188
Q1    1   0.0000  0.0500  0.0000  10.25000  0.05    0.77
Q2    1   0.2868  0.0235  0.0000  10.50000  0.05    0.60
Q3    1  -0.5000  0.1904 -0.2345  10.50000  0.05    0.59
Q4    1   0.0000  0.1127 -0.6989  10.50000  0.05    0.55
Q5    1   0.0000  0.1505 -0.8002  10.50000  0.05    0.54
Q6    1  -0.5000 -0.0390 -0.8284  10.50000  0.05    0.53
Q7    1   0.1838  0.1123 -0.5000  10.50000  0.05    0.53
Q8    1   0.0000  0.2125 -1.0000  10.25000  0.05    0.52
Q9    1  -0.5000  0.1623  0.0000  10.25000  0.05    0.51
Q10   1  -0.5000  0.1520 -0.1379  10.50000  0.05    0.51
Q11   1  -0.8070  0.2421  0.0000  10.50000  0.05    0.41
Q12   1   0.0000  0.2509 -0.6578  10.50000  0.05    0.41
Q13   1   0.0000  0.0410  0.2367  10.50000  0.05    0.41
Q14   1  -0.8180  0.1575  0.0000  10.50000  0.05    0.41
Q15   1   0.3309  0.1921 -0.5000  10.50000  0.05    0.41
Q16   1  -0.2813  0.0000 -0.7750  10.50000  0.05    0.40
Q17   1   0.3074  0.2347 -0.5000  10.50000  0.05    0.39
Q18   1  -0.3128 -0.0329 -0.6323  11.00000  0.05    0.35
Q19   1  -0.6542  0.2266  0.0000  10.50000  0.05    0.35
Q20   1   0.0000  0.1832 -0.6279  10.50000  0.05    0.34
;
_shelx_res_checksum              30874
_shelx_hkl_file
;
   2   0   0 9779.41   87.30   0
   4   0   0 3576.18   51.17   0
   1   1   0  261.99   94.91   0
   3   1   0   99.82   42.55   0
   2   2   0   17.59   59.11   0
   4   2   0  -16.38   47.92   0
   1   3   0 1385.34   81.39   0
   3   3   0  391.20   44.76   0
   0   4   0  193.79   82.67   0
   2   4   0   69.67   66.66   0
   4   4   0   66.60   44.54   0
   1   5   0 7111.18   88.32   0
   3   5   0 2488.73   54.77   0
   0   6   0  139.13   83.38   0
   2   6   0   52.47   54.19   0
   4   6   0   32.43   47.43   0
   1   7   0 1592.10   79.30   0
   3   7   0  533.88   45.76   0
   0   8   0 4379.29   79.53   0
   2   8   0 2494.85   69.03   0
   4   8   0  873.09   47.62   0
   1   9   0  374.70   55.40   0
   3   9   0  163.97   44.75   0
   0  10   0 2557.12   62.73   0
   2  10   0 1507.05   60.71   0
   4  10   0  475.42   51.44   0
   1  11   0 1623.15   61.40   0
   3  11   0  652.30   52.02   0
   0  12   0 2290.52   56.10   0
   2  12   0 1383.84   56.40   0
   4  12   0  501.31   49.52   0
   1  13   0 5945.67   78.51   0
   3  13   0 2834.13   51.28   0
   0  14   0  504.38   49.69   0
   2  14   0  316.66   55.01   0
   4  14   0  131.45   57.01   0
   1  15   0   -4.91   53.02   0
   3  15   0   15.63   44.26   0
   0  16   0 2166.61   51.22   0
   2  16   0 1243.10   49.72   0
   4  16   0  487.89   60.02   0
   1  17   0  910.11   47.53   0
   3  17   0  497.38   45.28   0
   0  18   0 1336.95   46.59   0
   2  18   0  865.80   44.04   0
   4  18   0  432.30   55.27   0
   1  19   0  293.81   40.01   0
   3  19   0  208.83   45.32   0
   0  20   0  211.97   45.28   0
   2  20   0  124.22   45.57   0
   1  21   0 2841.93   50.51   0
   3  21   0 1519.10   50.20   0
   0  22   0  243.06   52.31   0
   2  22   0  159.35   41.87   0
   1  23   0   99.79   51.59   0
   3  23   0   67.71   51.40   0
   0  24   0  278.16   51.80   0
   2  24   0  220.17   46.47   0
   1  25   0  502.02   39.78   0
   3  25   0  337.85   59.52   0
   0  26   0 3160.36   56.96   0
   2  26   0 2326.49   51.81   0
   1  27   0    9.54   52.45   0
   0  28   0  410.00   53.07   0
   2  28   0  356.40   45.29   0
   1  29   0  203.44   43.52   0
   0  30   0  180.80   53.31   0
   2  30   0  169.12   44.69   0
   1  31   0  913.00   51.64   0
   0  32   0   47.65   39.74   0
   1  33   0  541.58   44.64   0
   0  34   0  585.18   51.47   0
   0   0   1 4915.76  113.74   0
   2   0   1 2716.96   67.43   0
   4   0   1  891.41   42.33   0
   1   1   1 1586.47   73.42   0
   3   1   1  544.43   46.04   0
   0   2   1  204.40   90.67   0
   2   2   1  129.94   57.07   0
   4   2   1   59.06   42.19   0
   1   3   1 4622.13   80.57   0
   3   3   1 1656.15   51.52   0
   0   4   1  610.48   83.98   0
   2   4   1  378.72   58.68   0
   4   4   1  131.11   52.95   0
   1   5   1 5479.69   78.78   0
   3   5   1 2166.54   48.72   0
   0   6   1  517.72   80.78   0
   2   6   1  339.88   55.34   0
   4   6   1  132.20   53.69   0
   1   7   1  263.14   64.46   0
   3   7   1  136.44   46.27   0
   0   8   1 9239.84   96.09   0
   2   8   1 5847.67   70.77   0
   4   8   1 2124.89   52.58   0
   1   9   1  188.36   70.19   0
   3   9   1   74.88   43.37   0
   0  10   1  718.04   72.94   0
   2  10   1  425.09   50.52   0
   4  10   1  202.40   50.78   0
   1  11   1   57.14   63.91   0
   3  11   1   50.50   47.53   0
   0  12   1  480.10   63.23   0
   2  12   1  263.48   49.33   0
   4  12   1  175.10   54.50   0
   1  13   1 4484.74   73.18   0
   3  13   1 2026.79   48.92   0
   0  14   1  -14.71   54.71   0
   2  14   1   -8.13   48.50   0
   4  14   1   27.36   53.79   0
   1  15   1  250.85   61.74   0
   3  15   1   92.65   46.22   0
   0  16   1 1496.70   59.83   0
   2  16   1 1020.52   44.70   0
   4  16   1  529.09   58.11   0
   1  17   1  129.77   47.14   0
   3  17   1   68.73   46.88   0
   0  18   1 3448.86   55.12   0
   2  18   1 2394.50   47.78   0
   1  19   1  150.15   42.28   0
   3  19   1   83.54   53.52   0
   0  20   1 1431.04   46.61   0
   2  20   1 1022.37   47.83   0
   1  21   1 1889.48   43.51   0
   3  21   1 1225.78   55.24   0
   0  22   1   86.08   45.91   0
   2  22   1   20.67   43.67   0
   1  23   1  486.69   45.57   0
   3  23   1  288.88   48.36   0
   0  24   1   76.09   45.33   0
   2  24   1   84.05   45.86   0
   1  25   1  902.77   45.36   0
   3  25   1  508.53   52.64   0
   0  26   1  956.57   44.40   0
   2  26   1  781.89   48.78   0
   1  27   1    8.88   43.24   0
   0  28   1   56.67   43.22   0
   2  28   1   22.42   51.63   0
   1  29   1 1258.30   50.77   0
   0  30   1  510.19   49.98   0
   2  30   1  391.73   57.02   0
   1  31   1  387.43   46.62   0
   0  32   1   98.64   51.60   0
   0   0   2 9999.99   90.83   0
   2   0   2 6310.81   66.73   0
   4   0   2 2573.47   64.84   0
   1   1   2  114.75   62.60   0
   3   1   2   53.22   50.38   0
   0   2   2   41.94   67.95   0
   2   2   2    7.83   48.24   0
   4   2   2   21.94   53.06   0
   1   3   2  700.46   61.00   0
   3   3   2  294.75   51.46   0
   0   4   2   69.76   67.31   0
   2   4   2   63.70   44.00   0
   4   4   2   39.10   61.12   0
   1   5   2 3967.93   67.24   0
   3   5   2 1671.78   53.97   0
   0   6   2   18.08   63.41   0
   2   6   2   28.84   48.81   0
   4   6   2   52.19   50.43   0
   1   7   2  901.47   65.64   0
   3   7   2  403.36   50.89   0
   0   8   2 2492.78   74.64   0
   2   8   2 1469.59   48.74   0
   4   8   2  684.91   54.33   0
   1   9   2  195.85   53.27   0
   3   9   2   96.89   45.57   0
   0  10   2 1481.42   63.52   0
   2  10   2  887.99   48.44   0
   4  10   2  377.03   51.99   0
   1  11   2  912.48   51.68   0
   3  11   2  452.97   48.90   0
   0  12   2 1393.97   64.42   0
   2  12   2  925.15   45.31   0
   1  13   2 3783.22   57.45   0
   3  13   2 2202.72   54.71   0
   0  14   2  337.06   50.22   0
   2  14   2  223.74   50.04   0
   1  15   2    9.07   47.70   0
   3  15   2   -4.35   43.52   0
   0  16   2 1218.28   51.36   0
   2  16   2  801.31   44.75   0
   1  17   2  601.06   44.63   0
   3  17   2  330.67   45.39   0
   0  18   2  835.37   48.00   0
   2  18   2  617.20   48.58   0
   1  19   2  218.84   44.03   0
   3  19   2  162.36   47.83   0
   0  20   2  198.73   41.43   0
   2  20   2  117.06   51.24   0
   1  21   2 1893.83   47.81   0
   3  21   2 1182.52   53.07   0
   0  22   2  110.58   50.57   0
   2  22   2  155.65   50.03   0
   1  23   2   47.01   47.91   0
   0  24   2  259.67   52.45   0
   2  24   2  177.20   49.88   0
   1  25   2  407.44   49.12   0
   0  26   2 2188.72   48.75   0
   2  26   2 1734.55   56.53   0
   1  27   2   29.84   49.79   0
   0  28   2  260.26   55.08   0
   1  29   2  152.72   50.27   0
   0  30   2   84.97   48.58   0
   0   0   3 1581.11   60.04   0
   2   0   3 1129.16   42.14   0
   1   1   3  566.27   50.98   0
   3   1   3  287.71   47.66   0
   0   2   3   46.26   58.38   0
   2   2   3   64.30   43.80   0
   1   3   3 1601.65   57.43   0
   3   3   3  847.92   47.11   0
   0   4   3  176.93   56.83   0
   2   4   3  129.17   44.19   0
   1   5   3 2045.66   53.35   0
   3   5   3 1268.06   49.41   0
   0   6   3  220.00   55.42   0
   2   6   3  175.35   43.45   0
   1   7   3  128.49   48.18   0
   3   7   3   78.46   48.48   0
   0   8   3 3692.98   57.24   0
   2   8   3 2730.14   53.63   0
   1   9   3   74.77   45.94   0
   3   9   3   56.03   48.14   0
   0  10   3  303.04   56.00   0
   2  10   3  250.17   45.52   0
   1  11   3   50.33   48.73   0
   3  11   3   17.64   48.08   0
   0  12   3  195.71   46.27   0
   2  12   3  178.66   47.69   0
   1  13   3 1959.27   54.55   0
   3  13   3 1116.05   54.54   0
   0  14   3   19.97   49.34   0
   2  14   3   24.67   44.58   0
   1  15   3  113.83   51.47   0
   3  15   3   69.41   59.28   0
   0  16   3  786.07   56.11   0
   2  16   3  636.85   44.97   0
   1  17   3   50.71   46.42   0
   0  18   3 1808.58   54.93   0
   2  18   3 1310.51   47.96   0
   1  19   3   81.41   45.65   0
   0  20   3  754.26   52.69   0
   2  20   3  553.65   50.68   0
   1  21   3 1108.71   53.63   0
   0  22   3   35.60   54.93   0
   2  22   3   14.69   51.48   0
   1  23   3  225.65   51.36   0
   0  24   3   30.86   49.37   0
   1  25   3  505.16   49.16   0
   0  26   3  559.74   57.76   0
   0   0   4 3396.70   74.85   0
   2   0   4 2556.55   54.19   0
   1   1   4  138.71   53.71   0
   0   2   4   22.88   60.76   0
   2   2   4   54.82   51.33   0
   1   3   4  254.21   54.56   0
   0   4   4   25.98   63.83   0
   2   4   4   25.13   48.37   0
   1   5   4 1293.48   61.06   0
   0   6   4   36.14   54.36   0
   2   6   4   59.15   56.77   0
   1   7   4  262.19   55.55   0
   0   8   4  808.30   50.14   0
   2   8   4  717.05   50.90   0
   1   9   4   89.17   55.24   0
   0  10   4  453.06   56.01   0
   2  10   4  359.25   60.20   0
   1  11   4  384.98   58.87   0
   0  12   4  536.17   50.49   0
   2  12   4  331.40   52.48   0
   1  13   4 1703.57   59.96   0
   0  14   4  104.39   56.41   0
   1  15   4    8.87   50.56   0
   0  16   4  491.41   46.16   0
   1  17   4  255.75   60.48   0
   0  18   4  409.07   47.49   0
;
_shelx_hkl_checksum              42971
loop_
_space_group_symop_operation_xyz
'x, y, z'
'-x, -y, z'
'-x, y, -z'
'x, -y, -z'
'x+1/2, y+1/2, z'
'-x+1/2, -y+1/2, z'
'-x+1/2, y+1/2, -z'
'x+1/2, -y+1/2, -z'
'-x, -y, -z'
'x, y, -z'
'x, -y, z'
'-x, y, z'
'-x+1/2, -y+1/2, -z'
'x+1/2, y+1/2, -z'
'x+1/2, -y+1/2, z'
'-x+1/2, y+1/2, z'
loop_
_atom_site_label
_atom_site_type_symbol
_atom_site_fract_x
_atom_site_fract_y
_atom_site_fract_z
_atom_site_U_iso_or_equiv
_atom_site_adp_type
_atom_site_occupancy
_atom_site_site_symmetry_order
_atom_site_calc_flag
_atom_site_refinement_flags_posn
_atom_site_refinement_flags_adp
_atom_site_refinement_flags_occupancy
Cr1 Cr 0.0000 0.07634(4) 0.0000 0.0038(2) Uani 1 4 d S T P
Cr2 Cr -0.5000 0.18844(4) 0.0000 0.0051(2) Uani 1 4 d S T P
Al Al -0.5000 0.0000 -0.5000 0.0063(4) Uani 1 8 d S T P
B1 B -0.5000 0.1050(2) -0.5000 0.0040(11) Uani 1 4 d S T P
B2 B 0.0000 0.1481(3) -0.5000 0.0062(11) Uani 1 4 d S T P
B3 B 0.0000 0.2298(2) -0.5000 0.0066(19) Uani 1.04(4) 4 d S T .
loop_
_atom_site_aniso_label
_atom_site_aniso_U_11
_atom_site_aniso_U_22
_atom_site_aniso_U_33
_atom_site_aniso_U_23
_atom_site_aniso_U_13
_atom_site_aniso_U_12
Cr1 0.0025(4) 0.0047(4) 0.0041(4) 0.000 0.000 0.000
Cr2 0.0042(4) 0.0057(4) 0.0055(4) 0.000 0.000 0.000
Al 0.0065(10) 0.0043(9) 0.0081(10) 0.000 0.000 0.000
B1 0.003(2) 0.002(2) 0.007(3) 0.000 0.000 0.000
B2 0.006(2) 0.0012(18) 0.012(3) 0.000 0.000 0.000
B3 0.010(4) 0.004(2) 0.006(3) 0.000 0.000 0.000
loop_
_atom_type_symbol
_atom_type_description
_atom_type_scat_dispersion_real
_atom_type_scat_dispersion_imag
_atom_type_scat_source
B B 0.0013 0.0007 'International Tables Vol C Tables 4.2.6.8 and 6.1.1.4'
Al Al 0.0645 0.0514 'International Tables Vol C Tables 4.2.6.8 and 6.1.1.4'
Cr Cr 0.3209 0.6236 'International Tables Vol C Tables 4.2.6.8 and 6.1.1.4'
loop_
_geom_angle_atom_site_label_1
_geom_angle_atom_site_label_2
_geom_angle_atom_site_label_3
_geom_angle
_geom_angle_site_symmetry_1
_geom_angle_site_symmetry_3
B2 Cr1 B2 89.2(2) 1_556 .
B2 Cr1 B1 106.49(14) 1_556 .
B2 Cr1 B1 47.18(10) . .
B2 Cr1 B1 47.18(10) 1_556 1_656
B2 Cr1 B1 106.49(14) . 1_656
B1 Cr1 B1 147.7(3) . 1_656
B2 Cr1 B1 47.18(10) 1_556 1_556
B2 Cr1 B1 106.49(14) . 1_556
B1 Cr1 B1 86.66(7) . 1_556
B1 Cr1 B1 84.48(7) 1_656 1_556
B2 Cr1 B1 106.49(14) 1_556 1_655
B2 Cr1 B1 47.18(10) . 1_655
B1 Cr1 B1 84.48(7) . 1_655
B1 Cr1 B1 86.66(7) 1_656 1_655
B1 Cr1 B1 147.7(3) 1_556 1_655
B2 Cr1 Al 146.291(9) 1_556 .
B2 Cr1 Al 92.14(9) . .
B1 Cr1 Al 53.74(13) . .
B1 Cr1 Al 158.53(13) 1_656 .
B1 Cr1 Al 100.68(7) 1_556 .
B1 Cr1 Al 98.86(8) 1_655 .
B2 Cr1 Al 146.291(9) 1_556 1_655
B2 Cr1 Al 92.14(9) . 1_655
B1 Cr1 Al 98.86(8) . 1_655
B1 Cr1 Al 100.68(7) 1_656 1_655
B1 Cr1 Al 158.53(13) 1_556 1_655
B1 Cr1 Al 53.74(13) 1_655 1_655
Al Cr1 Al 67.337(17) . 1_655
B2 Cr1 Al 92.13(9) 1_556 1_656
B2 Cr1 Al 146.291(9) . 1_656
B1 Cr1 Al 158.53(13) . 1_656
B1 Cr1 Al 53.74(13) 1_656 1_656
B1 Cr1 Al 98.86(8) 1_556 1_656
B1 Cr1 Al 100.68(7) 1_655 1_656
Al Cr1 Al 104.78(3) . 1_656
Al Cr1 Al 68.930(17) 1_655 1_656
B2 Cr1 Al 92.13(9) 1_556 1_556
B2 Cr1 Al 146.291(9) . 1_556
B1 Cr1 Al 100.67(7) . 1_556
B1 Cr1 Al 98.86(8) 1_656 1_556
B1 Cr1 Al 53.74(13) 1_556 1_556
B1 Cr1 Al 158.53(13) 1_655 1_556
Al Cr1 Al 68.930(16) . 1_556
Al Cr1 Al 104.78(3) 1_655 1_556
Al Cr1 Al 67.337(17) 1_656 1_556
B2 Cr1 Cr2 52.73(8) 1_556 1_655
B2 Cr1 Cr2 52.73(8) . 1_655
B1 Cr1 Cr2 96.74(12) . 1_655
B1 Cr1 Cr2 53.84(11) 1_656 1_655
B1 Cr1 Cr2 96.74(12) 1_556 1_655
B1 Cr1 Cr2 53.84(11) 1_655 1_655
Al Cr1 Cr2 144.159(14) . 1_655
Al Cr1 Cr2 103.136(12) 1_655 1_655
Al Cr1 Cr2 103.136(12) 1_656 1_655
Al Cr1 Cr2 144.159(14) 1_556 1_655
B2 Cr1 Cr2 52.73(8) 1_556 .
B2 Cr1 Cr2 52.73(8) . .
B1 Cr1 Cr2 53.84(11) . .
B1 Cr1 Cr2 96.74(12) 1_656 .
B1 Cr1 Cr2 53.84(11) 1_556 .
B1 Cr1 Cr2 96.74(12) 1_655 .
Al Cr1 Cr2 103.136(13) . .
Al Cr1 Cr2 144.159(14) 1_655 .
Al Cr1 Cr2 144.159(14) 1_656 .
Al Cr1 Cr2 103.136(13) 1_556 .
Cr2 Cr1 Cr2 63.49(3) 1_655 .
B2 Cr2 B2 80.82(9) . 1_455
B2 Cr2 B2 82.87(10) . 1_556
B2 Cr2 B2 135.8(3) 1_455 1_556
B2 Cr2 B2 135.8(3) . 1_456
B2 Cr2 B2 82.87(10) 1_455 1_456
B2 Cr2 B2 80.82(9) 1_556 1_456
B2 Cr2 B3 99.36(6) . 1_556
B2 Cr2 B3 179.5(2) 1_455 1_556
B2 Cr2 B3 44.79(16) 1_556 1_556
B2 Cr2 B3 97.33(6) 1_456 1_556
B2 Cr2 B3 97.33(6) . 1_455
B2 Cr2 B3 44.79(16) 1_455 1_455
B2 Cr2 B3 179.5(2) 1_556 1_455
B2 Cr2 B3 99.36(6) 1_456 1_455
B3 Cr2 B3 134.7(2) 1_556 1_455
B2 Cr2 B3 179.5(2) . 1_456
B2 Cr2 B3 99.36(6) 1_455 1_456
B2 Cr2 B3 97.33(6) 1_556 1_456
B2 Cr2 B3 44.79(16) 1_456 1_456
B3 Cr2 B3 80.44(9) 1_556 1_456
B3 Cr2 B3 82.47(9) 1_455 1_456
B2 Cr2 B3 44.79(16) . .
B2 Cr2 B3 97.33(6) 1_455 .
B2 Cr2 B3 99.36(6) 1_556 .
B2 Cr2 B3 179.5(2) 1_456 .
B3 Cr2 B3 82.47(9) 1_556 .
B3 Cr2 B3 80.44(9) 1_455 .
B3 Cr2 B3 134.7(2) 1_456 .
B2 Cr2 B3 135.88(10) . 13_455
B2 Cr2 B3 135.88(10) 1_455 13_455
B2 Cr2 B3 81.46(14) 1_556 13_455
B2 Cr2 B3 81.46(14) 1_456 13_455
B3 Cr2 B3 43.71(12) 1_556 13_455
B3 Cr2 B3 98.06(5) 1_455 13_455
B3 Cr2 B3 43.71(12) 1_456 13_455
B3 Cr2 B3 98.06(5) . 13_455
B2 Cr2 B3 81.46(14) . 13_454
B2 Cr2 B3 81.46(14) 1_455 13_454
B2 Cr2 B3 135.88(10) 1_556 13_454
B2 Cr2 B3 135.88(10) 1_456 13_454
B3 Cr2 B3 98.06(5) 1_556 13_454
B3 Cr2 B3 43.71(12) 1_455 13_454
B3 Cr2 B3 98.06(5) 1_456 13_454
B3 Cr2 B3 43.71(12) . 13_454
B3 Cr2 B3 81.79(17) 13_455 13_454
B2 Cr2 B1 98.11(15) . 1_556
B2 Cr2 B1 98.11(15) 1_455 1_556
B2 Cr2 B1 44.33(10) 1_556 1_556
B2 Cr2 B1 44.33(10) 1_456 1_556
B3 Cr2 B1 82.38(12) 1_556 1_556
B3 Cr2 B1 136.08(10) 1_455 1_556
B3 Cr2 B1 82.38(12) 1_456 1_556
B3 Cr2 B1 136.08(10) . 1_556
B3 Cr2 B1 98.78(12) 13_455 1_556
B3 Cr2 B1 179.42(12) 13_454 1_556
B2 Cr2 B1 44.33(10) . .
B2 Cr2 B1 44.33(10) 1_455 .
B2 Cr2 B1 98.11(15) 1_556 .
B2 Cr2 B1 98.11(15) 1_456 .
B3 Cr2 B1 136.08(10) 1_556 .
B3 Cr2 B1 82.38(12) 1_455 .
B3 Cr2 B1 136.08(10) 1_456 .
B3 Cr2 B1 82.38(12) . .
B3 Cr2 B1 179.42(12) 13_455 .
B3 Cr2 B1 98.79(12) 13_454 .
B1 Cr2 B1 80.64(16) 1_556 .
B1 Al B1 180.0 . 9_454
B1 Al Cr1 52.392(15) . .
B1 Al Cr1 127.608(15) 9_454 .
B1 Al Cr1 127.608(15) . 9_454
B1 Al Cr1 52.392(15) 9_454 9_454
Cr1 Al Cr1 180.0 . 9_454
B1 Al Cr1 52.392(15) . 1_454
B1 Al Cr1 127.608(15) 9_454 1_454
Cr1 Al Cr1 104.78(3) . 1_454
Cr1 Al Cr1 75.22(3) 9_454 1_454
B1 Al Cr1 52.392(15) . 1_455
B1 Al Cr1 127.608(15) 9_454 1_455
Cr1 Al Cr1 67.337(17) . 1_455
Cr1 Al Cr1 112.663(17) 9_454 1_455
Cr1 Al Cr1 68.930(17) 1_454 1_455
B1 Al Cr1 52.392(15) . 1_554
B1 Al Cr1 127.608(15) 9_454 1_554
Cr1 Al Cr1 68.930(16) . 1_554
Cr1 Al Cr1 111.070(16) 9_454 1_554
Cr1 Al Cr1 67.337(17) 1_454 1_554
Cr1 Al Cr1 104.78(3) 1_455 1_554
B1 Al Cr1 127.608(15) . 9_554
B1 Al Cr1 52.392(15) 9_454 9_554
Cr1 Al Cr1 112.663(17) . 9_554
Cr1 Al Cr1 67.337(17) 9_454 9_554
Cr1 Al Cr1 111.070(17) 1_454 9_554
Cr1 Al Cr1 180.00(3) 1_455 9_554
Cr1 Al Cr1 75.22(3) 1_554 9_554
B1 Al Cr1 127.608(15) . 9_455
B1 Al Cr1 52.392(15) 9_454 9_455
Cr1 Al Cr1 111.070(16) . 9_455
Cr1 Al Cr1 68.930(17) 9_454 9_455
Cr1 Al Cr1 112.663(17) 1_454 9_455
Cr1 Al Cr1 75.22(3) 1_455 9_455
Cr1 Al Cr1 180.00(3) 1_554 9_455
Cr1 Al Cr1 104.78(3) 9_554 9_455
B1 Al Cr1 127.608(15) . 9
B1 Al Cr1 52.392(15) 9_454 9
Cr1 Al Cr1 75.22(3) . 9
Cr1 Al Cr1 104.78(3) 9_454 9
Cr1 Al Cr1 180.00(3) 1_454 9
Cr1 Al Cr1 111.070(17) 1_455 9
Cr1 Al Cr1 112.663(17) 1_554 9
Cr1 Al Cr1 68.930(17) 9_554 9
Cr1 Al Cr1 67.337(17) 9_455 9
B1 Al Al 90.0 . 1_455
B1 Al Al 90.0 9_454 1_455
Cr1 Al Al 123.669(8) . 1_455
Cr1 Al Al 56.331(8) 9_454 1_455
Cr1 Al Al 56.331(8) 1_454 1_455
Cr1 Al Al 56.331(8) 1_455 1_455
Cr1 Al Al 123.669(8) 1_554 1_455
Cr1 Al Al 123.669(8) 9_554 1_455
Cr1 Al Al 56.331(8) 9_455 1_455
Cr1 Al Al 123.669(8) 9 1_455
B1 Al Al 90.0 . 1_655
B1 Al Al 90.0 9_454 1_655
Cr1 Al Al 56.331(8) . 1_655
Cr1 Al Al 123.669(8) 9_454 1_655
Cr1 Al Al 123.669(8) 1_454 1_655
Cr1 Al Al 123.669(8) 1_455 1_655
Cr1 Al Al 56.331(8) 1_554 1_655
Cr1 Al Al 56.331(8) 9_554 1_655
Cr1 Al Al 123.669(8) 9_455 1_655
Cr1 Al Al 56.331(8) 9 1_655
Al Al Al 180.0 1_455 1_655
B2 B1 B2 116.2(4) 1_455 .
B2 B1 Cr1 64.91(10) 1_455 1_454
B2 B1 Cr1 135.86(9) . 1_454
B2 B1 Cr1 64.91(10) 1_455 1_455
B2 B1 Cr1 135.86(9) . 1_455
Cr1 B1 Cr1 86.66(7) 1_454 1_455
B2 B1 Cr1 135.86(9) 1_455 1_554
B2 B1 Cr1 64.91(10) . 1_554
Cr1 B1 Cr1 84.48(7) 1_454 1_554
Cr1 B1 Cr1 147.7(3) 1_455 1_554
B2 B1 Cr1 135.86(9) 1_455 .
B2 B1 Cr1 64.91(10) . .
Cr1 B1 Cr1 147.7(3) 1_454 .
Cr1 B1 Cr1 84.48(7) 1_455 .
Cr1 B1 Cr1 86.66(7) 1_554 .
B2 B1 Al 121.88(19) 1_455 .
B2 B1 Al 121.88(19) . .
Cr1 B1 Al 73.87(13) 1_454 .
Cr1 B1 Al 73.87(13) 1_455 .
Cr1 B1 Al 73.87(13) 1_554 .
Cr1 B1 Al 73.87(13) . .
B2 B1 Cr2 66.25(16) 1_455 1_554
B2 B1 Cr2 66.25(16) . 1_554
Cr1 B1 Cr2 76.58(6) 1_454 1_554
Cr1 B1 Cr2 130.99(14) 1_455 1_554
Cr1 B1 Cr2 76.58(6) 1_554 1_554
Cr1 B1 Cr2 130.99(14) . 1_554
Al B1 Cr2 139.68(8) . 1_554
B2 B1 Cr2 66.25(16) 1_455 .
B2 B1 Cr2 66.25(16) . .
Cr1 B1 Cr2 130.99(14) 1_454 .
Cr1 B1 Cr2 76.58(6) 1_455 .
Cr1 B1 Cr2 130.99(14) 1_554 .
Cr1 B1 Cr2 76.58(6) . .
Al B1 Cr2 139.68(8) . .
Cr2 B1 Cr2 80.64(16) 1_554 .
B1 B2 B1 116.2(4) 1_655 .
B1 B2 B3 121.88(19) 1_655 .
B1 B2 B3 121.88(19) . .
B1 B2 Cr1 67.91(16) 1_655 1_554
B1 B2 Cr1 67.91(16) . 1_554
B3 B2 Cr1 135.41(11) . 1_554
B1 B2 Cr1 67.91(16) 1_655 .
B1 B2 Cr1 67.91(16) . .
B3 B2 Cr1 135.41(11) . .
Cr1 B2 Cr1 89.2(2) 1_554 .
B1 B2 Cr2 69.41(10) 1_655 1_655
B1 B2 Cr2 138.54(6) . 1_655
B3 B2 Cr2 67.88(13) . 1_655
Cr1 B2 Cr2 137.12(13) 1_554 1_655
Cr1 B2 Cr2 78.67(4) . 1_655
B1 B2 Cr2 138.54(6) 1_655 1_554
B1 B2 Cr2 69.41(10) . 1_554
B3 B2 Cr2 67.88(13) . 1_554
Cr1 B2 Cr2 78.67(4) 1_554 1_554
Cr1 B2 Cr2 137.12(13) . 1_554
Cr2 B2 Cr2 135.8(3) 1_655 1_554
B1 B2 Cr2 69.41(10) 1_655 1_654
B1 B2 Cr2 138.54(6) . 1_654
B3 B2 Cr2 67.88(13) . 1_654
Cr1 B2 Cr2 78.67(4) 1_554 1_654
Cr1 B2 Cr2 137.12(13) . 1_654
Cr2 B2 Cr2 82.87(10) 1_655 1_654
Cr2 B2 Cr2 80.83(9) 1_554 1_654
B1 B2 Cr2 138.54(6) 1_655 .
B1 B2 Cr2 69.42(10) . .
B3 B2 Cr2 67.88(13) . .
Cr1 B2 Cr2 137.12(13) 1_554 .
Cr1 B2 Cr2 78.67(4) . .
Cr2 B2 Cr2 80.82(9) 1_655 .
Cr2 B2 Cr2 82.87(10) 1_554 .
Cr2 B2 Cr2 135.8(3) 1_654 .
B3 B3 B3 119.6(6) 13_554 13_454
B3 B3 B2 120.2(3) 13_554 .
B3 B3 B2 120.2(3) 13_454 .
B3 B3 Cr2 138.76(4) 13_554 .
B3 B3 Cr2 68.63(12) 13_454 .
B2 B3 Cr2 67.33(12) . .
B3 B3 Cr2 138.76(4) 13_554 1_554
B3 B3 Cr2 68.63(12) 13_454 1_554
B2 B3 Cr2 67.33(12) . 1_554
Cr2 B3 Cr2 82.47(9) . 1_554
B3 B3 Cr2 68.63(12) 13_554 1_655
B3 B3 Cr2 138.76(4) 13_454 1_655
B2 B3 Cr2 67.33(12) . 1_655
Cr2 B3 Cr2 80.44(9) . 1_655
Cr2 B3 Cr2 134.7(2) 1_554 1_655
B3 B3 Cr2 68.63(13) 13_554 1_654
B3 B3 Cr2 138.76(4) 13_454 1_654
B2 B3 Cr2 67.33(12) . 1_654
Cr2 B3 Cr2 134.7(2) . 1_654
Cr2 B3 Cr2 80.44(9) 1_554 1_654
Cr2 B3 Cr2 82.47(9) 1_655 1_654
B3 B3 Cr2 67.7(2) 13_554 13_455
B3 B3 Cr2 67.7(2) 13_454 13_455
B2 B3 Cr2 139.10(9) . 13_455
Cr2 B3 Cr2 81.94(5) . 13_455
Cr2 B3 Cr2 136.29(12) 1_554 13_455
Cr2 B3 Cr2 81.94(5) 1_655 13_455
Cr2 B3 Cr2 136.29(12) 1_654 13_455
B3 B3 Cr2 67.7(2) 13_554 13_454
B3 B3 Cr2 67.7(2) 13_454 13_454
B2 B3 Cr2 139.10(9) . 13_454
Cr2 B3 Cr2 136.29(12) . 13_454
Cr2 B3 Cr2 81.94(5) 1_554 13_454
Cr2 B3 Cr2 136.29(12) 1_655 13_454
Cr2 B3 Cr2 81.94(5) 1_654 13_454
Cr2 B3 Cr2 81.79(17) 13_455 13_454
loop_
_geom_bond_atom_site_label_1
_geom_bond_atom_site_label_2
_geom_bond_distance
_geom_bond_site_symmetry_2
Cr1 B2 2.146(4) 1_556
Cr1 B2 2.146(4) .
Cr1 B1 2.1954(14) .
Cr1 B1 2.1954(14) 1_656
Cr1 B1 2.1954(14) 1_556
Cr1 B1 2.1954(14) 1_655
Cr1 Al 2.6621(5) .
Cr1 Al 2.6621(5) 1_655
Cr1 Al 2.6621(5) 1_656
Cr1 Al 2.6621(5) 1_556
Cr1 Cr2 2.8050(11) 1_655
Cr1 Cr2 2.8051(11) .
Cr2 B2 2.277(2) .
Cr2 B2 2.277(2) 1_455
Cr2 B2 2.277(2) 1_556
Cr2 B2 2.277(2) 1_456
Cr2 B3 2.286(2) 1_556
Cr2 B3 2.286(2) 1_455
Cr2 B3 2.286(2) 1_456
Cr2 B3 2.286(2) .
Cr2 B3 2.301(4) 13_455
Cr2 B3 2.301(4) 13_454
Cr2 B1 2.328(4) 1_556
Cr2 B1 2.328(4) .
Al B1 2.235(5) .
Al B1 2.235(5) 9_454
Al Cr1 2.6621(5) 9_454
Al Cr1 2.6621(5) 1_454
Al Cr1 2.6621(5) 1_455
Al Cr1 2.6621(5) 1_554
Al Cr1 2.6621(5) 9_554
Al Cr1 2.6621(5) 9_455
Al Cr1 2.6621(5) 9
Al Al 2.9517(4) 1_455
Al Al 2.9517(4) 1_655
B1 B2 1.738(4) 1_455
B1 B2 1.738(4) .
B1 Cr1 2.1954(14) 1_454
B1 Cr1 2.1954(14) 1_455
B1 Cr1 2.1954(14) 1_554
B1 Cr2 2.328(4) 1_554
B2 B1 1.738(4) 1_655
B2 B3 1.738(7) .
B2 Cr1 2.146(4) 1_554
B2 Cr2 2.277(2) 1_655
B2 Cr2 2.277(2) 1_554
B2 Cr2 2.277(2) 1_654
B3 B3 1.707(5) 13_554
B3 B3 1.707(5) 13_454
B3 Cr2 2.286(2) 1_554
B3 Cr2 2.286(2) 1_655
B3 Cr2 2.286(2) 1_654
B3 Cr2 2.301(4) 13_455
B3 Cr2 2.301(4) 13_454
