#------------------------------------------------------------------------------
#$Date: 2015-07-08 23:43:11 +0300 (Wed, 08 Jul 2015) $
#$Revision: 141347 $
#$URL: svn://www.crystallography.net/cod/cif/4/34/33/4343331.cif $
#------------------------------------------------------------------------------
#
# This file is available in the Crystallography Open Database (COD),
# http://www.crystallography.net/
#
# All data on this site have been placed in the public domain by the
# contributors.
#
data_4343331
loop_
_publ_author_name
'Ade, Martin'
'Hillebrecht, Harald'
_publ_section_title
;
 Ternary Borides Cr2AlB2, Cr3AlB4, and Cr4AlB6: The First Members of the
 Series (CrB2)nCrAl with n = 1, 2, 3 and a Unifying Concept for Ternary
 Borides as MAB-Phases.
;
_journal_issue                   13
_journal_name_full               'Inorganic chemistry'
_journal_page_first              6122
_journal_page_last               6135
_journal_paper_doi               10.1021/acs.inorgchem.5b00049
_journal_volume                  54
_journal_year                    2015
_chemical_formula_sum            'Al B Mo'
_chemical_formula_weight         133.73
_chemical_name_systematic
;
 ?
;
_space_group_crystal_system      orthorhombic
_space_group_IT_number           63
_space_group_name_Hall           '-C 2c 2'
_space_group_name_H-M_alt        'C m c m'
_symmetry_space_group_name_Hall  '-C 2c 2'
_symmetry_space_group_name_H-M   'C m c m'
_audit_creation_method           SHELXL-2013
_cell_angle_alpha                90
_cell_angle_beta                 90
_cell_angle_gamma                90
_cell_formula_units_Z            4
_cell_length_a                   3.1987(4)
_cell_length_b                   13.9218(14)
_cell_length_c                   3.0937(3)
_cell_measurement_reflns_used    3074
_cell_measurement_temperature    293(2)
_cell_measurement_theta_max      38
_cell_measurement_theta_min      4
_cell_volume                     137.77(3)
_computing_cell_refinement       'Software for IPDS-II, Fa. Stoe'
_computing_data_collection       'Software for IPDS-II, Fa. Stoe'
_computing_data_reduction        'Software for IPDS-II, Fa. Stoe'
_computing_molecular_graphics    'Diamond (Crystal impact, 2005)'
_computing_publication_material  'SHELXL-97_(Sheldrick, 2008)'
_computing_structure_refinement  'SHELXL-2013 (Sheldrick, 2013)'
_computing_structure_solution    'SHELXS-97 (Sheldrick, 2008)'
_diffrn_ambient_temperature      293(2)
_diffrn_measured_fraction_theta_full 0.967
_diffrn_measured_fraction_theta_max 0.986
_diffrn_measurement_details
; 
0 degree < omega < 180 degree
psi = 0 and 111 degree
delta omega 2 degree
exposure time 180s 
;
_diffrn_measurement_device       '2-circle goniometer'
_diffrn_measurement_device_type  'STOE IPDS 2'
_diffrn_measurement_method       'rotation method'
_diffrn_radiation_collimation    '0.5 mm diameter, multiple pinhole'
_diffrn_radiation_monochromator  'plane graphite'
_diffrn_radiation_polarisn_norm  0
_diffrn_radiation_type           MoK\a
_diffrn_radiation_wavelength     0.71073
_diffrn_reflns_av_R_equivalents  0.071
_diffrn_reflns_av_unetI/netI     0.0098
_diffrn_reflns_laue_measured_fraction_full 0.967
_diffrn_reflns_laue_measured_fraction_max 0.986
_diffrn_reflns_limit_h_max       5
_diffrn_reflns_limit_h_min       -5
_diffrn_reflns_limit_k_max       22
_diffrn_reflns_limit_k_min       -22
_diffrn_reflns_limit_l_max       5
_diffrn_reflns_limit_l_min       -5
_diffrn_reflns_number            1574
_diffrn_reflns_point_group_measured_fraction_full 0.967
_diffrn_reflns_point_group_measured_fraction_max 0.986
_diffrn_reflns_theta_full        25.242
_diffrn_reflns_theta_max         35.915
_diffrn_reflns_theta_min         5.860
_diffrn_source
'sealed X-ray tube, 12 x 0.4 mm long-fine focus'
_diffrn_source_current           40
_diffrn_source_power             2.00
_diffrn_source_voltage           50
_exptl_absorpt_coefficient_mu    9.394
_exptl_absorpt_correction_T_max  0.1321
_exptl_absorpt_correction_T_min  0.0886
_exptl_absorpt_correction_type   numerical
_exptl_absorpt_process_details   'X-Red and X-SHAPE (Stoe & Cie, 1999)'
_exptl_crystal_colour            black
_exptl_crystal_density_diffrn    6.447
_exptl_crystal_description       coffin-like_rod
_exptl_crystal_F_000             240
_exptl_crystal_size_max          0.25
_exptl_crystal_size_mid          0.1
_exptl_crystal_size_min          0.03
_exptl_transmission_factor_max   0.1321
_exptl_transmission_factor_min   0.0886
_refine_diff_density_max         0.803
_refine_diff_density_min         -1.442
_refine_diff_density_rms         0.222
_refine_ls_extinction_coef       0.103(6)
_refine_ls_extinction_expression Fc^*^=kFc[1+0.001xFc^2^\l^3^/sin(2\q)]^-1/4^
_refine_ls_extinction_method     SHELXL
_refine_ls_goodness_of_fit_ref   1.124
_refine_ls_hydrogen_treatment    undef
_refine_ls_matrix_type           full
_refine_ls_number_parameters     14
_refine_ls_number_reflns         211
_refine_ls_number_restraints     0
_refine_ls_restrained_S_all      1.124
_refine_ls_R_factor_all          0.0167
_refine_ls_R_factor_gt           0.0145
_refine_ls_shift/su_max          0.000
_refine_ls_shift/su_mean         0.000
_refine_ls_structure_factor_coef Fsqd
_refine_ls_weighting_details
'w=1/[\s^2^(Fo^2^)+(0.0290P)^2^] where P=(Fo^2^+2Fc^2^)/3'
_refine_ls_weighting_scheme      calc
_refine_ls_wR_factor_gt          0.0375
_refine_ls_wR_factor_ref         0.0379
_reflns_Friedel_coverage         0.000
_reflns_number_gt                199
_reflns_number_total             211
_reflns_threshold_expression     'I > 2\s(I)'
_cod_data_source_file            MoAlB.cif
_cod_data_source_block           MoAlB
_cod_depositor_comments
'Adding full bibliography for 4343328--4343335.cif.'
_cod_database_code               4343331
_shelx_space_group_comment
;
The symmetry employed for this shelxl refinement is uniquely defined
by the following loop, which should always be used as a source of
symmetry information in preference to the above space-group names.
They are only intended as comments.
;
_shelxl_version_number           2013-4
_shelx_res_file
;
TITL MoAlB1a in Cmcm
CELL 0.71073   3.1987  13.9218   3.0937  90.000  90.000  90.000
ZERR    4.00   0.0004   0.0014   0.0003   0.000   0.000   0.000
LATT  7
SYMM -X, -Y, 0.5+Z
SYMM -X, Y, 0.5-Z
SYMM X, -Y, -Z
SFAC B AL MO
UNIT 4 4 4

L.S. 4
BOND
FMAP 2
ACTA
OMIT 0 72
OMIT 2 2 5
OMIT 0 14 0
OMIT 5 5 2
OMIT 0 16 4
OMIT 0 24 0
OMIT 2 0 0
OMIT 3 15 3
OMIT 0 22 2
PLAN 20
ACTA
WGHT    0.029000
EXTI    0.103469
FVAR       0.90407
MOLE   1
MO    3    0.000000    0.410521    0.250000    10.25000    0.00400    0.00306 =
         0.00303    0.00000    0.00000    0.00000
AL    2    0.000000    0.198494    0.250000    10.25000    0.00699    0.00459 =
         0.00659    0.00000    0.00000    0.00000
B     1    0.500000    0.466244   -0.250000    10.25000    0.00511    0.00676 =
         0.00387    0.00000    0.00000    0.00000
HKLF 4

REM  MoAlB1a in Cmcm
REM R1 =  0.0145 for     199 Fo > 4sig(Fo)  and  0.0167 for all     211 data
REM     14 parameters refined using      0 restraints

END

WGHT      0.0290      0.0000

REM Highest difference peak  0.803,  deepest hole -1.442,  1-sigma level  0.222
Q1    1   0.1316  0.3765  0.2500  10.50000  0.05    0.80
Q2    1   0.0000  0.1644 -0.2500  10.25000  0.05    0.77
Q3    1   0.1101  0.2225 -0.2500  10.50000  0.05    0.73
Q4    1   0.1391  0.4450  0.1592  11.00000  0.05    0.71
Q5    1   0.5000  0.3935  0.1040  10.50000  0.05    0.66
Q6    1   0.0000  0.3721 -0.2500  10.25000  0.05    0.58
Q7    1   0.5000  0.5000  0.0000  10.25000  0.05    0.58
Q8    1   0.0000  0.3519 -0.0044  10.50000  0.05    0.50
Q9    1   0.3601  0.2023  0.2500  10.50000  0.05    0.47
Q10   1   0.1278  0.3987 -0.0102  11.00000  0.05    0.45
Q11   1   0.3630  0.1167  0.2500  10.50000  0.05    0.44
Q12   1   0.3721  0.4299 -0.0571  11.00000  0.05    0.39
Q13   1   0.3798  0.4003 -0.1123  11.00000  0.05    0.39
Q14   1   0.3168  0.4157  0.2500  10.50000  0.05    0.37
Q15   1   0.5000  0.5120 -0.2500  10.25000  0.05    0.37
Q16   1   0.0000  0.1980 -0.0465  10.50000  0.05    0.37
Q17   1   0.7365  0.5000  0.0000  10.50000  0.05    0.36
Q18   1   0.2164  0.2153  0.0585  11.00000  0.05    0.35
Q19   1   0.1643  0.1635  0.2500  10.50000  0.05    0.34
Q20   1   0.0000  0.4481 -0.2500  10.25000  0.05    0.34
;
_shelx_res_checksum              66181
_shelx_hkl_file
;
   2   0   0 8361.00   31.86   0
   4   0   0 4300.08   23.94   0
   1   1   0 3957.14   32.15   0
   3   1   0 2018.86   16.74   0
   5   1   0  851.78   15.39   0
   2   2   0  554.99   13.27   0
   4   2   0  290.65   13.53   0
   1   3   0   33.87   16.30   0
   3   3   0   21.62   10.85   0
   5   3   0    0.21   17.72   0
   0   4   0 2705.92   30.98   0
   2   4   0 1707.31   17.58   0
   4   4   0  770.13   14.51   0
   1   5   0 9999.99   37.40   0
   3   5   0 5784.56   24.39   0
   5   5   0 2402.10   19.06   0
   0   6   0 5803.76   32.91   0
   2   6   0 4022.90   21.92   0
   4   6   0 1832.80   18.92   0
   1   7   0 1946.98   18.64   0
   3   7   0 1021.00   15.17   0
   5   7   0  506.11   19.29   0
   0   8   0 1909.50   19.56   0
   2   8   0 1190.01   16.06   0
   4   8   0  429.55   14.11   0
   1   9   0  618.61   15.06   0
   3   9   0  345.66   12.73   0
   5   9   0  129.93   19.77   0
   0  10   0 6259.62   28.11   0
   2  10   0 4547.64   21.63   0
   4  10   0 2029.73   20.40   0
   1  11   0 4239.79   22.75   0
   3  11   0 2648.36   18.80   0
   0  12   0 2073.34   18.30   0
   2  12   0 1615.23   15.20   0
   4  12   0 1042.89   17.06   0
   1  13   0 2910.39   18.55   0
   3  13   0 1835.34   17.53   0
   0  14   0   71.31   12.54   0
   2  14   0   14.54   10.94   0
   4  14   0    8.64   17.45   0
   1  15   0 1993.73   16.37   0
   3  15   0 1213.16   16.78   0
   0  16   0 2617.82   17.64   0
   2  16   0 2215.12   19.10   0
   4  16   0 1262.32   23.54   0
   1  17   0 1733.31   16.87   0
   3  17   0 1314.16   19.94   0
   0  18   0 2843.40   19.18   0
   2  18   0 2550.37   19.99   0
   1  19   0  234.19   12.94   0
   3  19   0  149.41   21.10   0
   0  20   0  498.11   18.78   0
   2  20   0  352.27   17.42   0
   1  21   0  868.44   17.08   0
   0  22   0 1230.52   19.92   0
   2  22   0 1092.65   23.30   0
   1  23   0 1890.22   23.34   0
   0  24   0  528.75   21.05   0
   0   0   1   -0.57   18.41   0
   2   0   1   13.97   10.91   0
   4   0   1    3.19   11.95   0
   1   1   1 5234.25   30.42   0
   3   1   1 2592.39   15.94   0
   5   1   1  925.55   18.33   0
   0   2   1 4376.76   33.79   0
   2   2   1 3018.84   21.44   0
   4   2   1 1486.23   15.36   0
   1   3   1 5803.20   29.74   0
   3   3   1 3021.46   17.22   0
   5   3   1 1353.54   20.05   0
   0   4   1 7383.12   34.26   0
   2   4   1 5322.30   25.11   0
   4   4   1 2359.57   17.47   0
   1   5   1 1229.07   16.53   0
   3   5   1  579.48   12.45   0
   5   5   1  249.45   18.62   0
   0   6   1 2807.93   20.68   0
   2   6   1 1764.36   16.67   0
   4   6   1  704.17   13.87   0
   1   7   1 1522.08   16.81   0
   3   7   1  856.54   14.39   0
   5   7   1  429.33   19.08   0
   0   8   1 5089.92   26.63   0
   2   8   1 3779.41   20.83   0
   4   8   1 2144.82   19.61   0
   1   9   1 6649.35   27.77   0
   3   9   1 4005.79   21.18   0
   5   9   1 1456.49   25.81   0
   0  10   1 2379.59   18.88   0
   2  10   1 1835.84   16.15   0
   4  10   1 1027.21   18.23   0
   1  11   1  239.04   11.46   0
   3  11   1  111.95   11.87   0
   0  12   1  232.01   11.83   0
   2  12   1  227.23   12.10   0
   4  12   1  169.60   16.47   0
   1  13   1 2288.66   17.55   0
   3  13   1 1630.81   18.01   0
   0  14   1 5636.71   24.40   0
   2  14   1 4550.33   22.16   0
   4  14   1 2445.56   24.64   0
   1  15   1 2158.96   17.28   0
   3  15   1 1566.39   18.34   0
   0  16   1  150.87   12.21   0
   2  16   1  168.18   13.33   0
   4  16   1   97.77   22.95   0
   1  17   1    6.80   12.24   0
   3  17   1    9.23   16.57   0
   0  18   1  711.57   17.23   0
   2  18   1  595.35   15.54   0
   1  19   1 3568.30   23.18   0
   3  19   1 2020.92   24.32   0
   0  20   1 1720.57   20.35   0
   2  20   1 1326.67   21.27   0
   1  21   1  630.50   17.92   0
   0  22   1  139.27   19.26   0
   2  22   1   97.54   22.04   0
   1  23   1   61.15   22.19   0
   0   0   2 9336.18   32.22   0
   2   0   2 7179.42   24.39   0
   4   0   2 3480.04   19.98   0
   1   1   2 2938.70   20.71   0
   3   1   2 1642.41   14.66   0
   5   1   2  759.67   20.83   0
   0   2   2  539.56   13.70   0
   2   2   2  382.48   11.68   0
   4   2   2  265.30   13.74   0
   1   3   2   43.12   11.36   0
   3   3   2   22.00   10.31   0
   5   3   2   11.64   18.96   0
   0   4   2 1744.75   17.77   0
   2   4   2 1200.39   14.73   0
   4   4   2  668.45   14.49   0
   1   5   2 7573.31   29.34   0
   3   5   2 4631.85   21.11   0
   5   5   2 1542.43   25.33   0
   0   6   2 4076.48   20.83   0
   2   6   2 3070.78   18.80   0
   4   6   2 1690.90   18.59   0
   1   7   2 1294.46   15.76   0
   3   7   2  881.41   14.59   0
   0   8   2 1190.86   14.06   0
   2   8   2  818.38   13.95   0
   4   8   2  365.95   15.28   0
   1   9   2  439.00   11.99   0
   3   9   2  301.65   14.05   0
   0  10   2 4509.22   20.50   0
   2  10   2 3467.58   20.40   0
   4  10   2 1654.93   19.88   0
   1  11   2 3331.18   19.45   0
   3  11   2 2396.98   20.13   0
   0  12   2 1614.60   15.06   0
   2  12   2 1343.76   15.66   0
   4  12   2  854.64   19.76   0
   1  13   2 2158.84   16.68   0
   3  13   2 1369.06   19.09   0
   0  14   2   17.55   11.16   0
   2  14   2   20.55   13.08   0
   4  14   2    8.68   23.17   0
   1  15   2 1456.03   15.24   0
   3  15   2  952.19   18.63   0
   0  16   2 1972.18   16.97   0
   2  16   2 1830.93   18.29   0
   1  17   2 1476.09   17.50   0
   3  17   2  984.48   21.76   0
   0  18   2 2492.26   19.61   0
   2  18   2 1904.81   20.45   0
   1  19   2  201.36   16.10   0
   0  20   2  311.88   16.62   0
   2  20   2  284.06   19.85   0
   1  21   2  671.81   20.51   0
   0  22   2  974.47   21.27   0
   0   0   3    6.46   10.92   0
   2   0   3    6.18   11.14   0
   4   0   3    4.15   16.07   0
   1   1   3 2635.54   18.62   0
   3   1   3 1558.74   15.92   0
   0   2   3 2199.21   17.00   0
   2   2   3 1817.27   17.09   0
   4   2   3 1030.68   18.31   0
   1   3   3 3144.11   20.19   0
   3   3   3 2206.16   17.01   0
   0   4   3 3781.75   21.35   0
   2   4   3 3027.77   20.12   0
   4   4   3 1394.58   20.29   0
   1   5   3  566.25   13.08   0
   3   5   3  403.32   13.94   0
   0   6   3 1215.31   13.92   0
   2   6   3  912.87   15.36   0
   4   6   3  393.58   17.73   0
   1   7   3  853.41   14.90   0
   3   7   3  646.60   15.24   0
   0   8   3 3061.84   17.39   0
   2   8   3 2483.67   19.22   0
   4   8   3 1443.45   22.45   0
   1   9   3 3900.96   19.60   0
   3   9   3 2606.42   21.48   0
   0  10   3 1425.79   14.49   0
   2  10   3 1173.46   17.20   0
   4  10   3  571.83   20.80   0
   1  11   3   99.16   11.66   0
   3  11   3   51.80   15.65   0
   0  12   3  186.45   11.45   0
   2  12   3  172.31   14.94   0
   1  13   3 1588.54   17.05   0
   3  13   3 1095.92   21.71   0
   0  14   3 3714.87   19.82   0
   2  14   3 2954.13   20.57   0
   1  15   3 1500.33   18.08   0
   3  15   3  804.43   23.22   0
   0  16   3  136.45   13.50   0
   2  16   3  130.83   17.88   0
   1  17   3    7.37   16.02   0
   0  18   3  453.56   17.97   0
   2  18   3  349.27   20.94   0
   1  19   3 2089.32   24.66   0
   0  20   3 1031.45   24.30   0
   0   0   4 4653.23   22.73   0
   2   0   4 3830.04   23.92   0
   1   1   4 1362.99   16.64   0
   3   1   4  987.08   20.36   0
   0   2   4  319.03   13.75   0
   2   2   4  275.52   15.46   0
   1   3   4   10.69   12.76   0
   3   3   4   10.26   16.28   0
   0   4   4  794.78   16.13   0
   2   4   4  662.35   18.21   0
   1   5   4 3770.93   22.66   0
   3   5   4 2415.83   24.17   0
   0   6   4 2050.29   17.71   0
   2   6   4 1753.16   20.13   0
   1   7   4  743.67   14.99   0
   3   7   4  520.21   20.26   0
   0   8   4  437.73   14.46   0
   2   8   4  338.96   16.81   0
   1   9   4  249.35   15.24   0
   3   9   4  147.45   20.92   0
   0  10   4 2055.52   18.23   0
   2  10   4 1628.91   20.30   0
   1  11   4 1870.53   19.05   0
   0  12   4  952.53   16.97   0
   2  12   4  796.42   20.52   0
   1  13   4  985.88   19.81   0
   0  14   4   12.75   17.14   0
   1  15   4  663.77   23.00   0
   0  16   4  985.88   22.70   0
   0   0   5    0.72   17.04   0
   2   0   5    1.24   28.84   0
   1   1   5  904.89   22.02   0
   0   2   5 1004.98   20.60   0
   2   2   5  364.76   26.16   0
   1   3   5 1318.29   24.28   0
   0   4   5 1397.45   20.68   0
   1   5   5  228.92   21.99   0
   0   6   5  398.70   22.36   0
   1   7   5  401.29   24.22   0
   0   8   5 1344.95   26.21   0
;
_shelx_hkl_checksum              95716
loop_
_space_group_symop_operation_xyz
'x, y, z'
'-x, -y, z+1/2'
'-x, y, -z+1/2'
'x, -y, -z'
'x+1/2, y+1/2, z'
'-x+1/2, -y+1/2, z+1/2'
'-x+1/2, y+1/2, -z+1/2'
'x+1/2, -y+1/2, -z'
'-x, -y, -z'
'x, y, -z-1/2'
'x, -y, z-1/2'
'-x, y, z'
'-x+1/2, -y+1/2, -z'
'x+1/2, y+1/2, -z-1/2'
'x+1/2, -y+1/2, z-1/2'
'-x+1/2, y+1/2, z'
loop_
_atom_site_label
_atom_site_type_symbol
_atom_site_fract_x
_atom_site_fract_y
_atom_site_fract_z
_atom_site_U_iso_or_equiv
_atom_site_adp_type
_atom_site_occupancy
_atom_site_site_symmetry_order
_atom_site_calc_flag
_atom_site_refinement_flags_posn
_atom_site_refinement_flags_adp
_atom_site_refinement_flags_occupancy
Mo Mo 0.0000 0.41052(2) 0.2500 0.00336(13) Uani 1 4 d S T P
Al Al 0.0000 0.19849(9) 0.2500 0.0061(2) Uani 1 4 d S T P
B B 0.5000 0.4662(3) -0.2500 0.0052(6) Uani 1 4 d S T P
loop_
_atom_site_aniso_label
_atom_site_aniso_U_11
_atom_site_aniso_U_22
_atom_site_aniso_U_33
_atom_site_aniso_U_23
_atom_site_aniso_U_13
_atom_site_aniso_U_12
Mo 0.00400(16) 0.00306(17) 0.00303(16) 0.000 0.000 0.000
Al 0.0070(5) 0.0046(4) 0.0066(5) 0.000 0.000 0.000
B 0.0051(13) 0.0068(14) 0.0039(14) 0.000 0.000 0.000
loop_
_atom_type_symbol
_atom_type_description
_atom_type_scat_dispersion_real
_atom_type_scat_dispersion_imag
_atom_type_scat_source
B B 0.0013 0.0007 'International Tables Vol C Tables 4.2.6.8 and 6.1.1.4'
Al Al 0.0645 0.0514 'International Tables Vol C Tables 4.2.6.8 and 6.1.1.4'
Mo Mo -1.6832 0.6857 'International Tables Vol C Tables 4.2.6.8 and 6.1.1.4'
loop_
_geom_angle_atom_site_label_1
_geom_angle_atom_site_label_2
_geom_angle_atom_site_label_3
_geom_angle
_geom_angle_site_symmetry_1
_geom_angle_site_symmetry_3
B Mo B 85.98(13) 9_665 9_565
B Mo B 45.28(9) 9_665 .
B Mo B 102.83(3) 9_565 .
B Mo B 45.28(9) 9_665 1_556
B Mo B 102.83(3) 9_565 1_556
B Mo B 82.06(6) . 1_556
B Mo B 102.83(3) 9_665 1_455
B Mo B 45.28(9) 9_565 1_455
B Mo B 85.49(6) . 1_455
B Mo B 141.55(18) 1_556 1_455
B Mo B 102.83(3) 9_665 1_456
B Mo B 45.28(9) 9_565 1_456
B Mo B 141.56(18) . 1_456
B Mo B 85.49(6) 1_556 1_456
B Mo B 82.06(6) 1_455 1_456
B Mo Al 144.795(14) 9_665 13_455
B Mo Al 90.42(6) 9_565 13_455
B Mo Al 102.21(5) . 13_455
B Mo Al 164.92(9) 1_556 13_455
B Mo Al 53.52(9) 1_455 13_455
B Mo Al 99.18(5) 1_456 13_455
B Mo Al 90.42(6) 9_665 13_556
B Mo Al 144.795(14) 9_565 13_556
B Mo Al 99.18(5) . 13_556
B Mo Al 53.52(9) 1_556 13_556
B Mo Al 164.92(9) 1_455 13_556
B Mo Al 102.21(5) 1_456 13_556
Al Mo Al 111.40(4) 13_455 13_556
B Mo Al 144.795(14) 9_665 13_456
B Mo Al 90.42(6) 9_565 13_456
B Mo Al 164.92(9) . 13_456
B Mo Al 102.21(5) 1_556 13_456
B Mo Al 99.18(5) 1_455 13_456
B Mo Al 53.52(9) 1_456 13_456
Al Mo Al 70.10(2) 13_455 13_456
Al Mo Al 72.86(2) 13_556 13_456
B Mo Al 90.42(6) 9_665 13
B Mo Al 144.795(14) 9_565 13
B Mo Al 53.52(9) . 13
B Mo Al 99.18(5) 1_556 13
B Mo Al 102.21(5) 1_455 13
B Mo Al 164.92(9) 1_456 13
Al Mo Al 72.86(2) 13_455 13
Al Mo Al 70.10(2) 13_556 13
Al Mo Al 111.40(4) 13_456 13
B Mo Mo 51.58(5) 9_665 9_566
B Mo Mo 51.58(5) 9_565 9_566
B Mo Mo 93.82(8) . 9_566
B Mo Mo 51.25(8) 1_556 9_566
B Mo Mo 93.82(8) 1_455 9_566
B Mo Mo 51.25(8) 1_456 9_566
Al Mo Mo 141.414(18) 13_455 9_566
Al Mo Mo 100.12(2) 13_556 9_566
Al Mo Mo 100.12(2) 13_456 9_566
Al Mo Mo 141.414(18) 13 9_566
B Mo Mo 51.58(5) 9_665 9_565
B Mo Mo 51.58(5) 9_565 9_565
B Mo Mo 51.25(8) . 9_565
B Mo Mo 93.82(8) 1_556 9_565
B Mo Mo 51.25(8) 1_455 9_565
B Mo Mo 93.82(8) 1_456 9_565
Al Mo Mo 100.12(2) 13_455 9_565
Al Mo Mo 141.414(18) 13_556 9_565
Al Mo Mo 141.414(18) 13_456 9_565
Al Mo Mo 100.12(2) 13 9_565
Mo Mo Mo 63.670(13) 9_566 9_565
B Al Al 122.80(4) 13 13_556
B Al Al 122.80(4) 13 13_455
Al Al Al 114.39(9) 13_556 13_455
B Al Al 122.80(4) 13 13_456
Al Al Al 74.34(4) 13_556 13_456
Al Al Al 71.51(4) 13_455 13_456
B Al Al 122.80(4) 13 13
Al Al Al 71.51(4) 13_556 13
Al Al Al 74.34(4) 13_455 13
Al Al Al 114.39(9) 13_456 13
B Al Mo 55.70(2) 13 13_455
Al Al Mo 178.51(6) 13_556 13_455
Al Al Mo 67.10(2) 13_455 13_455
Al Al Mo 106.386(15) 13_456 13_455
Al Al Mo 109.175(14) 13 13_455
B Al Mo 55.70(2) 13 13_456
Al Al Mo 109.175(14) 13_556 13_456
Al Al Mo 106.386(14) 13_455 13_456
Al Al Mo 67.10(2) 13_456 13_456
Al Al Mo 178.51(6) 13 13_456
Mo Al Mo 70.10(2) 13_455 13_456
B Al Mo 55.70(2) 13 13
Al Al Mo 106.386(15) 13_556 13
Al Al Mo 109.175(14) 13_455 13
Al Al Mo 178.51(6) 13_456 13
Al Al Mo 67.10(2) 13 13
Mo Al Mo 72.86(2) 13_455 13
Mo Al Mo 111.40(4) 13_456 13
B Al Mo 55.70(2) 13 13_556
Al Al Mo 67.10(2) 13_556 13_556
Al Al Mo 178.51(6) 13_455 13_556
Al Al Mo 109.175(14) 13_456 13_556
Al Al Mo 106.386(14) 13 13_556
Mo Al Mo 111.40(4) 13_455 13_556
Mo Al Mo 72.86(2) 13_456 13_556
Mo Al Mo 70.10(2) 13 13_556
B Al Mo 180.0 13 .
Al Al Mo 57.20(4) 13_556 .
Al Al Mo 57.20(4) 13_455 .
Al Al Mo 57.20(4) 13_456 .
Al Al Mo 57.20(4) 13 .
Mo Al Mo 124.30(2) 13_455 .
Mo Al Mo 124.30(2) 13_456 .
Mo Al Mo 124.30(2) 13 .
Mo Al Mo 124.30(2) 13_556 .
B B B 117.4(4) 9_665 9_664
B B Al 121.3(2) 9_665 13
B B Al 121.3(2) 9_664 13
B B Mo 67.68(17) 9_665 9_665
B B Mo 67.68(17) 9_664 9_665
Al B Mo 137.01(7) 13 9_665
B B Mo 67.68(17) 9_665 9_565
B B Mo 67.68(17) 9_664 9_565
Al B Mo 137.01(7) 13 9_565
Mo B Mo 85.98(13) 9_665 9_565
B B Mo 137.05(6) 9_665 1_554
B B Mo 67.04(8) 9_664 1_554
Al B Mo 70.78(9) 13 1_554
Mo B Mo 134.72(9) 9_665 1_554
Mo B Mo 77.17(3) 9_565 1_554
B B Mo 67.04(8) 9_665 1_655
B B Mo 137.05(6) 9_664 1_655
Al B Mo 70.78(9) 13 1_655
Mo B Mo 77.17(3) 9_665 1_655
Mo B Mo 134.72(9) 9_565 1_655
Mo B Mo 141.56(18) 1_554 1_655
B B Mo 137.05(6) 9_665 1_654
B B Mo 67.04(8) 9_664 1_654
Al B Mo 70.78(9) 13 1_654
Mo B Mo 77.17(3) 9_665 1_654
Mo B Mo 134.72(9) 9_565 1_654
Mo B Mo 85.49(6) 1_554 1_654
Mo B Mo 82.06(6) 1_655 1_654
B B Mo 67.04(8) 9_665 .
B B Mo 137.05(6) 9_664 .
Al B Mo 70.78(9) 13 .
Mo B Mo 134.72(9) 9_665 .
Mo B Mo 77.17(3) 9_565 .
Mo B Mo 82.06(6) 1_554 .
Mo B Mo 85.49(6) 1_655 .
Mo B Mo 141.56(18) 1_654 .
loop_
_geom_bond_atom_site_label_1
_geom_bond_atom_site_label_2
_geom_bond_distance
_geom_bond_site_symmetry_2
Mo B 2.345(3) 9_665
Mo B 2.345(3) 9_565
Mo B 2.3564(13) .
Mo B 2.3564(13) 1_556
Mo B 2.3564(13) 1_455
Mo B 2.3564(13) 1_456
Mo Al 2.6933(7) 13_455
Mo Al 2.6933(7) 13_556
Mo Al 2.6933(7) 13_456
Mo Al 2.6933(7) 13
Mo Mo 2.9325(5) 9_566
Mo Mo 2.9325(5) 9_565
Al B 2.293(4) 13
Al Al 2.6471(13) 13_556
Al Al 2.6471(13) 13_455
Al Al 2.6471(13) 13_456
Al Al 2.6471(13) 13
Al Mo 2.6933(7) 13_455
Al Mo 2.6933(7) 13_456
Al Mo 2.6933(7) 13
Al Mo 2.6933(7) 13_556
B B 1.810(4) 9_665
B B 1.810(4) 9_664
B Al 2.293(4) 13
B Mo 2.345(3) 9_665
B Mo 2.345(3) 9_565
B Mo 2.3564(13) 1_554
B Mo 2.3564(13) 1_655
B Mo 2.3564(13) 1_654
