#------------------------------------------------------------------------------
#$Date: 2018-09-27 07:13:35 +0300 (Thu, 27 Sep 2018) $
#$Revision: 211196 $
#$URL: file:///home/coder/svn-repositories/cod/cif/4/34/38/4343831.cif $
#------------------------------------------------------------------------------
#
# This file is available in the Crystallography Open Database (COD),
# http://www.crystallography.net/
#
# All data on this site have been placed in the public domain by the
# contributors.
#
data_4343831
loop_
_publ_author_name
'Dai, J.-C.'
'Corbett, J.D.'
_publ_section_title
;
 Substitution of Au or Hg into Ba Tl2 and Ba In2. New ternary examples of
 smaller Ce Cu2-type intermetallic phases
;
_journal_name_full               'Inorganic Chemistry'
_journal_page_first              2104
_journal_page_last               2111
_journal_volume                  45
_journal_year                    2006
_chemical_formula_sum            'Ba Hg0.92 In1.08'
_space_group_IT_number           74
_symmetry_space_group_name_Hall  '-I 2b 2'
_symmetry_space_group_name_H-M   'I m m a'
_cell_angle_alpha                90
_cell_angle_beta                 90
_cell_angle_gamma                90
_cell_formula_units_Z            4
_cell_length_a                   5.145
_cell_length_b                   8.373
_cell_length_c                   8.715
_cell_volume                     375.434
_citation_journal_id_ASTM        INOCAJ
_cod_data_source_file            Dai_INOCAJ_2006_725.cif
_cod_data_source_block           Ba1Hg0.92In1.08
_cod_original_cell_volume        375.4342
_cod_original_formula_sum        'Ba1 Hg0.92 In1.08'
_cod_database_code               4343831
loop_
_symmetry_equiv_pos_as_xyz
x,y,z
-x,-y+1/2,z
x,-y,-z
-x,y+1/2,-z
-x,-y,-z
x,y-1/2,-z
-x,y,z
x,-y-1/2,z
x+1/2,y+1/2,z+1/2
-x+1/2,-y+1,z+1/2
x+1/2,-y+1/2,-z+1/2
-x+1/2,y+1,-z+1/2
-x+1/2,-y+1/2,-z+1/2
x+1/2,y,-z+1/2
-x+1/2,y+1/2,z+1/2
x+1/2,-y,z+1/2
loop_
_atom_site_label
_atom_site_type_symbol
_atom_site_fract_x
_atom_site_fract_y
_atom_site_fract_z
_atom_site_occupancy
_atom_site_U_iso_or_equiv
Hg1 Hg 0 0.5533 0.6649 0.46 0.0
In1 In 0 0.5533 0.6649 0.54 0.0
Ba1 Ba 0 0.25 0.9583 1 0.0
