#------------------------------------------------------------------------------
#$Date: 2016-02-04 01:53:51 +0200 (Thu, 04 Feb 2016) $
#$Revision: 175528 $
#$URL: svn://www.crystallography.net/cod/cif/4/34/46/4344617.cif $
#------------------------------------------------------------------------------
#
# This file is available in the Crystallography Open Database (COD),
# http://www.crystallography.net/
#
# All data on this site have been placed in the public domain by the
# contributors.
#
data_4344617
loop_
_publ_author_name
'Subbarao, Udumula'
'Rayaprol, Sudhindra'
'Dally, Rebecca'
'Graf, Michael J.'
'Peter, Sebastian C.'
_publ_section_title
;
 Swinging Symmetry, Multiple Structural Phase Transitions, and Versatile
 Physical Properties in RECuGa3 (RE = La-Nd, Sm-Gd).
;
_journal_issue                   2
_journal_name_full               'Inorganic chemistry'
_journal_page_first              666
_journal_page_last               675
_journal_paper_doi               10.1021/acs.inorgchem.5b02023
_journal_volume                  55
_journal_year                    2016
_chemical_formula_sum            'Cu Ga3 Gd'
_chemical_formula_weight         429.95
_chemical_name_systematic
;
 ?
;
_space_group_IT_number           107
_symmetry_cell_setting           tetragonal
_symmetry_space_group_name_Hall  'I 4 -2'
_symmetry_space_group_name_H-M   'I 4 m m'
_atom_sites_solution_primary     direct
_atom_sites_solution_secondary   difmap
_audit_creation_method           SHELXL-97
_cell_angle_alpha                90.00
_cell_angle_beta                 90.00
_cell_angle_gamma                90.00
_cell_formula_units_Z            2
_cell_length_a                   4.11900(10)
_cell_length_b                   4.11900(10)
_cell_length_c                   10.5327(4)
_cell_measurement_reflns_used    879
_cell_measurement_temperature    293(2)
_cell_measurement_theta_max      37.76
_cell_measurement_theta_min      3.87
_cell_volume                     178.699(9)
_computing_cell_refinement       'SMART APEX II'
_computing_data_collection       'SMART APEX II (Bruker,2010)'
_computing_data_reduction        'SAINT (Bruker,2000)'
_computing_molecular_graphics    'Ortep-3v2 for windows (Farrugia, 1997)'
_computing_publication_material  'PLATON (Spek, 2008)'
_computing_structure_refinement  'SHELXL-97 (Sheldrick, 2008)'
_computing_structure_solution    'SHELXS-97 (Sheldrick, 2008)'
_diffrn_ambient_temperature      293(2)
_diffrn_measured_fraction_theta_full 0.983
_diffrn_measured_fraction_theta_max 0.983
_diffrn_measurement_device_type  'CCD area detector'
_diffrn_measurement_method       'phi and omega scans'
_diffrn_radiation_monochromator  graphite
_diffrn_radiation_source         'fine-focus sealed tube'
_diffrn_radiation_type           MoK\a
_diffrn_radiation_wavelength     0.71073
_diffrn_reflns_av_R_equivalents  0.0482
_diffrn_reflns_av_sigmaI/netI    0.0387
_diffrn_reflns_limit_h_max       7
_diffrn_reflns_limit_h_min       -5
_diffrn_reflns_limit_k_max       3
_diffrn_reflns_limit_k_min       -7
_diffrn_reflns_limit_l_max       17
_diffrn_reflns_limit_l_min       -17
_diffrn_reflns_number            879
_diffrn_reflns_theta_full        37.76
_diffrn_reflns_theta_max         37.76
_diffrn_reflns_theta_min         3.87
_exptl_absorpt_coefficient_mu    46.200
_exptl_absorpt_correction_T_max  0.2060
_exptl_absorpt_correction_T_min  0.0906
_exptl_absorpt_correction_type   empirical
_exptl_crystal_colour            grey
_exptl_crystal_density_diffrn    7.991
_exptl_crystal_density_method    'not measured'
_exptl_crystal_description       block
_exptl_crystal_F_000             372
_exptl_crystal_size_max          0.10
_exptl_crystal_size_mid          0.05
_exptl_crystal_size_min          0.05
_refine_diff_density_max         3.000
_refine_diff_density_min         -1.588
_refine_diff_density_rms         0.372
_refine_ls_abs_structure_details 'Flack H D (1983), Acta Cryst. A39, 876-881'
_refine_ls_abs_structure_Flack   0.66(15)
_refine_ls_extinction_coef       0.0012(10)
_refine_ls_extinction_expression Fc^*^=kFc[1+0.001xFc^2^\l^3^/sin(2\q)]^-1/4^
_refine_ls_extinction_method     SHELXL
_refine_ls_goodness_of_fit_ref   1.117
_refine_ls_matrix_type           full
_refine_ls_number_parameters     15
_refine_ls_number_reflns         310
_refine_ls_number_restraints     1
_refine_ls_restrained_S_all      1.115
_refine_ls_R_factor_all          0.0261
_refine_ls_R_factor_gt           0.0255
_refine_ls_shift/su_max          0.000
_refine_ls_shift/su_mean         0.000
_refine_ls_structure_factor_coef Fsqd
_refine_ls_weighting_details
'calc w=1/[\s^2^(Fo^2^)+(0.0367P)^2^+0.4657P] where P=(Fo^2^+2Fc^2^)/3'
_refine_ls_weighting_scheme      calc
_refine_ls_wR_factor_gt          0.0649
_refine_ls_wR_factor_ref         0.0650
_reflns_number_gt                304
_reflns_number_total             310
_reflns_threshold_expression     >2\s(I)
_cod_data_source_file            ic5b02023_si_002.cif
_cod_data_source_block           GdCuGa3_300K
_cod_depositor_comments
;
The following automatic conversions were performed:

'_symmetry_cell_setting' value 'Tetragonal' changed to 'tetragonal'
according to
/usr/data/users/saulius/crontab/automatic-downloads/current/ACS/lib/dictionaries/cif_core.dic
dictionary named 'cif_core.dic' version 2.4.2 from 2011-04-26.

Automatic conversion script
Id: cif_fix_values 4268 2015-11-12 08:31:59Z antanas 
;
_cod_original_sg_symbol_H-M      I4mm
_cod_database_code               4344617
loop_
_symmetry_equiv_pos_as_xyz
'x, y, z'
'-x, -y, z'
'-y, x, z'
'y, -x, z'
'x, -y, z'
'-x, y, z'
'-y, -x, z'
'y, x, z'
'x+1/2, y+1/2, z+1/2'
'-x+1/2, -y+1/2, z+1/2'
'-y+1/2, x+1/2, z+1/2'
'y+1/2, -x+1/2, z+1/2'
'x+1/2, -y+1/2, z+1/2'
'-x+1/2, y+1/2, z+1/2'
'-y+1/2, -x+1/2, z+1/2'
'y+1/2, x+1/2, z+1/2'
loop_
_atom_site_label
_atom_site_type_symbol
_atom_site_fract_x
_atom_site_fract_y
_atom_site_fract_z
_atom_site_U_iso_or_equiv
_atom_site_adp_type
_atom_site_occupancy
_atom_site_symmetry_multiplicity
_atom_site_calc_flag
_atom_site_refinement_flags
Gd Gd 0.0000 0.0000 0.116088(7) 0.00872(15) Uani 1 8 d S
Cu Cu 0.5000 0.5000 0.0141(2) 0.0131(5) Uani 1 8 d S
Ga1 Ga 0.5000 0.0000 0.86627(19) 0.0114(2) Uani 1 4 d S
Ga2 Ga 0.5000 0.5000 0.2359(2) 0.0164(4) Uani 1 8 d S
loop_
_atom_site_aniso_label
_atom_site_aniso_U_11
_atom_site_aniso_U_22
_atom_site_aniso_U_33
_atom_site_aniso_U_23
_atom_site_aniso_U_13
_atom_site_aniso_U_12
Gd 0.00726(16) 0.00726(16) 0.0117(2) 0.000 0.000 0.000
Cu 0.0109(7) 0.0109(7) 0.0175(9) 0.000 0.000 0.000
Ga1 0.0107(8) 0.0107(8) 0.0128(4) 0.000 0.000 0.000
Ga2 0.0118(7) 0.0118(7) 0.0255(10) 0.000 0.000 0.000
loop_
_atom_type_symbol
_atom_type_description
_atom_type_scat_dispersion_real
_atom_type_scat_dispersion_imag
_atom_type_scat_source
Cu Cu 0.3201 1.2651 'International Tables Vol C Tables 4.2.6.8 and 6.1.1.4'
Ga Ga 0.2307 1.6083 'International Tables Vol C Tables 4.2.6.8 and 6.1.1.4'
Gd Gd -0.1653 3.9035 'International Tables Vol C Tables 4.2.6.8 and 6.1.1.4'
loop_
_geom_angle_atom_site_label_1
_geom_angle_atom_site_label_2
_geom_angle_atom_site_label_3
_geom_angle
_geom_angle_site_symmetry_1
_geom_angle_site_symmetry_3
Cu Gd Cu 139.52(7) 1_445 .
Cu Gd Cu 83.13(2) 1_445 1_455
Cu Gd Cu 83.13(2) . 1_455
Cu Gd Cu 83.13(2) 1_445 1_545
Cu Gd Cu 83.13(2) . 1_545
Cu Gd Cu 139.52(7) 1_455 1_545
Cu Gd Ga2 176.82(7) 1_445 .
Cu Gd Ga2 43.66(4) . .
Cu Gd Ga2 97.905(13) 1_455 .
Cu Gd Ga2 97.905(13) 1_545 .
Cu Gd Ga2 43.66(4) 1_445 1_445
Cu Gd Ga2 176.82(7) . 1_445
Cu Gd Ga2 97.905(13) 1_455 1_445
Cu Gd Ga2 97.905(13) 1_545 1_445
Ga2 Gd Ga2 133.16(8) . 1_445
Cu Gd Ga2 97.905(13) 1_445 1_455
Cu Gd Ga2 97.905(13) . 1_455
Cu Gd Ga2 43.66(4) 1_455 1_455
Cu Gd Ga2 176.82(7) 1_545 1_455
Ga2 Gd Ga2 80.91(3) . 1_455
Ga2 Gd Ga2 80.91(3) 1_445 1_455
Cu Gd Ga2 97.905(13) 1_445 1_545
Cu Gd Ga2 97.905(13) . 1_545
Cu Gd Ga2 176.82(7) 1_455 1_545
Cu Gd Ga2 43.66(4) 1_545 1_545
Ga2 Gd Ga2 80.91(3) . 1_545
Ga2 Gd Ga2 80.91(3) 1_445 1_545
Ga2 Gd Ga2 133.16(8) 1_455 1_545
Cu Gd Ga1 47.05(3) 1_445 1_454
Cu Gd Ga1 97.84(3) . 1_454
Cu Gd Ga1 47.05(3) 1_455 1_454
Cu Gd Ga1 97.84(3) 1_545 1_454
Ga2 Gd Ga1 135.47(3) . 1_454
Ga2 Gd Ga1 85.02(5) 1_445 1_454
Ga2 Gd Ga1 85.02(5) 1_455 1_454
Ga2 Gd Ga1 135.47(3) 1_545 1_454
Cu Gd Ga1 47.05(3) 1_445 3_544
Cu Gd Ga1 97.84(3) . 3_544
Cu Gd Ga1 97.84(3) 1_455 3_544
Cu Gd Ga1 47.05(3) 1_545 3_544
Ga2 Gd Ga1 135.47(3) . 3_544
Ga2 Gd Ga1 85.02(5) 1_445 3_544
Ga2 Gd Ga1 135.47(3) 1_455 3_544
Ga2 Gd Ga1 85.02(5) 1_545 3_544
Ga1 Gd Ga1 51.68(3) 1_454 3_544
Cu Gd Ga1 97.84(3) 1_445 1_554
Cu Gd Ga1 47.05(3) . 1_554
Cu Gd Ga1 97.84(3) 1_455 1_554
Cu Gd Ga1 47.05(3) 1_545 1_554
Ga2 Gd Ga1 85.02(5) . 1_554
Ga2 Gd Ga1 135.47(3) 1_445 1_554
Ga2 Gd Ga1 135.47(3) 1_455 1_554
Ga2 Gd Ga1 85.02(5) 1_545 1_554
Ga1 Gd Ga1 76.10(4) 1_454 1_554
Ga1 Gd Ga1 51.68(3) 3_544 1_554
Cu Gd Ga1 97.84(3) 1_445 3_554
Cu Gd Ga1 47.05(3) . 3_554
Cu Gd Ga1 47.05(3) 1_455 3_554
Cu Gd Ga1 97.84(3) 1_545 3_554
Ga2 Gd Ga1 85.02(5) . 3_554
Ga2 Gd Ga1 135.47(3) 1_445 3_554
Ga2 Gd Ga1 85.02(5) 1_455 3_554
Ga2 Gd Ga1 135.47(3) 1_545 3_554
Ga1 Gd Ga1 51.68(3) 1_454 3_554
Ga1 Gd Ga1 76.10(4) 3_544 3_554
Ga1 Gd Ga1 51.68(3) 1_554 3_554
Ga2 Cu Ga1 127.09(6) . 3_554
Ga2 Cu Ga1 127.09(6) . 1_554
Ga1 Cu Ga1 68.67(6) 3_554 1_554
Ga2 Cu Ga1 127.09(6) . 3_654
Ga1 Cu Ga1 105.81(12) 3_554 3_654
Ga1 Cu Ga1 68.67(6) 1_554 3_654
Ga2 Cu Ga1 127.09(6) . 1_564
Ga1 Cu Ga1 68.67(6) 3_554 1_564
Ga1 Cu Ga1 105.81(12) 1_554 1_564
Ga1 Cu Ga1 68.67(6) 3_654 1_564
Ga2 Cu Gd 69.76(4) . 1_665
Ga1 Cu Gd 137.55(3) 3_554 1_665
Ga1 Cu Gd 137.55(3) 1_554 1_665
Ga1 Cu Gd 71.31(2) 3_654 1_665
Ga1 Cu Gd 71.31(2) 1_564 1_665
Ga2 Cu Gd 69.76(4) . .
Ga1 Cu Gd 71.31(2) 3_554 .
Ga1 Cu Gd 71.31(2) 1_554 .
Ga1 Cu Gd 137.55(3) 3_654 .
Ga1 Cu Gd 137.55(3) 1_564 .
Gd Cu Gd 139.52(7) 1_665 .
Ga2 Cu Gd 69.76(4) . 1_565
Ga1 Cu Gd 71.31(2) 3_554 1_565
Ga1 Cu Gd 137.55(3) 1_554 1_565
Ga1 Cu Gd 137.55(3) 3_654 1_565
Ga1 Cu Gd 71.31(2) 1_564 1_565
Gd Cu Gd 83.13(2) 1_665 1_565
Gd Cu Gd 83.13(2) . 1_565
Ga2 Cu Gd 69.76(4) . 1_655
Ga1 Cu Gd 137.55(3) 3_554 1_655
Ga1 Cu Gd 71.31(2) 1_554 1_655
Ga1 Cu Gd 71.31(2) 3_654 1_655
Ga1 Cu Gd 137.55(3) 1_564 1_655
Gd Cu Gd 83.13(2) 1_665 1_655
Gd Cu Gd 83.13(2) . 1_655
Gd Cu Gd 139.52(7) 1_565 1_655
Ga2 Ga1 Ga2 112.61(14) 9_445 9_545
Ga2 Ga1 Cu 109.55(2) 9_445 1_556
Ga2 Ga1 Cu 109.55(2) 9_545 1_556
Ga2 Ga1 Cu 109.55(2) 9_445 1_546
Ga2 Ga1 Cu 109.55(2) 9_545 1_546
Cu Ga1 Cu 105.81(12) 1_556 1_546
Ga2 Ga1 Ga1 126.04(4) 9_445 3_655
Ga2 Ga1 Ga1 53.96(4) 9_545 3_655
Cu Ga1 Ga1 55.67(3) 1_556 3_655
Cu Ga1 Ga1 124.33(3) 1_546 3_655
Ga2 Ga1 Ga1 53.96(4) 9_445 3_545
Ga2 Ga1 Ga1 126.04(4) 9_545 3_545
Cu Ga1 Ga1 124.33(3) 1_556 3_545
Cu Ga1 Ga1 55.67(3) 1_546 3_545
Ga1 Ga1 Ga1 180.000(1) 3_655 3_545
Ga2 Ga1 Ga1 53.96(4) 9_445 3
Ga2 Ga1 Ga1 126.04(3) 9_545 3
Cu Ga1 Ga1 55.67(3) 1_556 3
Cu Ga1 Ga1 124.33(3) 1_546 3
Ga1 Ga1 Ga1 90.0 3_655 3
Ga1 Ga1 Ga1 90.0 3_545 3
Ga2 Ga1 Ga1 126.04(4) 9_445 3_645
Ga2 Ga1 Ga1 53.96(4) 9_545 3_645
Cu Ga1 Ga1 124.33(3) 1_556 3_645
Cu Ga1 Ga1 55.67(3) 1_546 3_645
Ga1 Ga1 Ga1 90.0 3_655 3_645
Ga1 Ga1 Ga1 90.0 3_545 3_645
Ga1 Ga1 Ga1 180.000(1) 3 3_645
Ga2 Ga1 Gd 161.75(9) 9_445 1_656
Ga2 Ga1 Gd 85.65(6) 9_545 1_656
Cu Ga1 Gd 61.64(5) 1_556 1_656
Cu Ga1 Gd 61.64(5) 1_546 1_656
Ga1 Ga1 Gd 64.162(13) 3_655 1_656
Ga1 Ga1 Gd 115.838(13) 3_545 1_656
Ga1 Ga1 Gd 115.838(13) 3 1_656
Ga1 Ga1 Gd 64.162(13) 3_645 1_656
Ga2 Ga1 Gd 85.65(6) 9_445 1_556
Ga2 Ga1 Gd 161.75(9) 9_545 1_556
Cu Ga1 Gd 61.64(5) 1_556 1_556
Cu Ga1 Gd 61.64(5) 1_546 1_556
Ga1 Ga1 Gd 115.838(13) 3_655 1_556
Ga1 Ga1 Gd 64.162(13) 3_545 1_556
Ga1 Ga1 Gd 64.162(13) 3 1_556
Ga1 Ga1 Gd 115.838(13) 3_645 1_556
Gd Ga1 Gd 76.10(4) 1_656 1_556
Ga2 Ga1 Gd 64.08(6) 9_445 9_545
Ga2 Ga1 Gd 64.08(6) 9_545 9_545
Cu Ga1 Gd 165.10(8) 1_556 9_545
Cu Ga1 Gd 89.08(5) 1_546 9_545
Ga1 Ga1 Gd 115.813(13) 3_655 9_545
Ga1 Ga1 Gd 64.187(13) 3_545 9_545
Ga1 Ga1 Gd 115.813(13) 3 9_545
Ga1 Ga1 Gd 64.187(13) 3_645 9_545
Gd Ga1 Gd 128.349(2) 1_656 9_545
Gd Ga1 Gd 128.349(1) 1_556 9_545
Ga2 Ga1 Gd 64.08(6) 9_445 9
Ga2 Ga1 Gd 64.08(6) 9_545 9
Cu Ga1 Gd 89.08(5) 1_556 9
Cu Ga1 Gd 165.10(8) 1_546 9
Ga1 Ga1 Gd 64.187(13) 3_655 9
Ga1 Ga1 Gd 115.813(13) 3_545 9
Ga1 Ga1 Gd 64.187(13) 3 9
Ga1 Ga1 Gd 115.813(13) 3_645 9
Gd Ga1 Gd 128.349(2) 1_656 9
Gd Ga1 Gd 128.349(2) 1_556 9
Gd Ga1 Gd 76.02(4) 9_545 9
Cu Ga2 Ga1 123.70(7) . 11_554
Cu Ga2 Ga1 123.70(7) . 9_554
Ga1 Ga2 Ga1 72.07(7) 11_554 9_554
Cu Ga2 Ga1 123.70(7) . 11_544
Ga1 Ga2 Ga1 112.61(14) 11_554 11_544
Ga1 Ga2 Ga1 72.07(7) 9_554 11_544
Cu Ga2 Ga1 123.70(7) . 9_454
Ga1 Ga2 Ga1 72.07(7) 11_554 9_454
Ga1 Ga2 Ga1 112.61(14) 9_554 9_454
Ga1 Ga2 Ga1 72.07(7) 11_544 9_454
Cu Ga2 Gd 66.58(4) . .
Ga1 Ga2 Gd 139.50(2) 11_554 .
Ga1 Ga2 Gd 139.50(2) 9_554 .
Ga1 Ga2 Gd 71.38(3) 11_544 .
Ga1 Ga2 Gd 71.38(3) 9_454 .
Cu Ga2 Gd 66.58(4) . 1_665
Ga1 Ga2 Gd 71.38(3) 11_554 1_665
Ga1 Ga2 Gd 71.38(3) 9_554 1_665
Ga1 Ga2 Gd 139.50(2) 11_544 1_665
Ga1 Ga2 Gd 139.50(2) 9_454 1_665
Gd Ga2 Gd 133.16(8) . 1_665
Cu Ga2 Gd 66.58(4) . 1_655
Ga1 Ga2 Gd 139.50(2) 11_554 1_655
Ga1 Ga2 Gd 71.38(3) 9_554 1_655
Ga1 Ga2 Gd 71.38(3) 11_544 1_655
Ga1 Ga2 Gd 139.50(2) 9_454 1_655
Gd Ga2 Gd 80.91(3) . 1_655
Gd Ga2 Gd 80.91(3) 1_665 1_655
Cu Ga2 Gd 66.58(4) . 1_565
Ga1 Ga2 Gd 71.38(3) 11_554 1_565
Ga1 Ga2 Gd 139.50(2) 9_554 1_565
Ga1 Ga2 Gd 139.50(2) 11_544 1_565
Ga1 Ga2 Gd 71.38(3) 9_454 1_565
Gd Ga2 Gd 80.91(3) . 1_565
Gd Ga2 Gd 80.91(3) 1_665 1_565
Gd Ga2 Gd 133.16(8) 1_655 1_565
loop_
_geom_bond_atom_site_label_1
_geom_bond_atom_site_label_2
_geom_bond_distance
_geom_bond_site_symmetry_2
Gd Cu 3.1043(7) 1_445
Gd Cu 3.1043(7) .
Gd Cu 3.1043(7) 1_455
Gd Cu 3.1043(7) 1_545
Gd Ga2 3.1741(9) .
Gd Ga2 3.1741(9) 1_445
Gd Ga2 3.1741(9) 1_455
Gd Ga2 3.1741(9) 1_545
Gd Ga1 3.3414(15) 1_454
Gd Ga1 3.3414(15) 3_544
Gd Ga1 3.3414(15) 1_554
Gd Ga1 3.3414(15) 3_554
Cu Ga2 2.336(2) .
Cu Ga1 2.582(2) 3_554
Cu Ga1 2.582(2) 1_554
Cu Ga1 2.582(2) 3_654
Cu Ga1 2.582(2) 1_564
Cu Gd 3.1043(7) 1_665
Cu Gd 3.1043(7) 1_565
Cu Gd 3.1043(7) 1_655
Ga1 Ga2 2.475(2) 9_445
Ga1 Ga2 2.475(2) 9_545
Ga1 Cu 2.582(2) 1_556
Ga1 Cu 2.582(2) 1_546
Ga1 Ga1 2.9126 3_655
Ga1 Ga1 2.9126 3_545
Ga1 Ga1 2.9126 3
Ga1 Ga1 2.9126 3_645
Ga1 Gd 3.3414(15) 1_656
Ga1 Gd 3.3414(15) 1_556
Ga1 Gd 3.3444(15) 9_545
Ga1 Gd 3.3444(15) 9
Ga2 Ga1 2.475(2) 11_554
Ga2 Ga1 2.475(2) 9_554
Ga2 Ga1 2.475(2) 11_544
Ga2 Ga1 2.475(2) 9_454
Ga2 Gd 3.1741(9) 1_665
Ga2 Gd 3.1741(9) 1_655
Ga2 Gd 3.1741(9) 1_565
