#------------------------------------------------------------------------------
#$Date: 2016-02-04 01:53:51 +0200 (Thu, 04 Feb 2016) $
#$Revision: 175528 $
#$URL: svn://www.crystallography.net/cod/cif/4/34/46/4344616.cif $
#------------------------------------------------------------------------------
#
# This file is available in the Crystallography Open Database (COD),
# http://www.crystallography.net/
#
# All data on this site have been placed in the public domain by the
# contributors.
#
data_4344616
loop_
_publ_author_name
'Subbarao, Udumula'
'Rayaprol, Sudhindra'
'Dally, Rebecca'
'Graf, Michael J.'
'Peter, Sebastian C.'
_publ_section_title
;
 Swinging Symmetry, Multiple Structural Phase Transitions, and Versatile
 Physical Properties in RECuGa3 (RE = La-Nd, Sm-Gd).
;
_journal_issue                   2
_journal_name_full               'Inorganic chemistry'
_journal_page_first              666
_journal_page_last               675
_journal_paper_doi               10.1021/acs.inorgchem.5b02023
_journal_volume                  55
_journal_year                    2016
_chemical_formula_sum            'Cu Eu Ga3'
_chemical_formula_weight         424.66
_chemical_name_systematic
;
 ?
;
_space_group_IT_number           107
_symmetry_cell_setting           tetragonal
_symmetry_space_group_name_Hall  'I 4 -2'
_symmetry_space_group_name_H-M   'I 4 m m'
_atom_sites_solution_primary     direct
_atom_sites_solution_secondary   difmap
_audit_creation_method           SHELXL-97
_cell_angle_alpha                90.00
_cell_angle_beta                 90.00
_cell_angle_gamma                90.00
_cell_formula_units_Z            2
_cell_length_a                   4.2589(2)
_cell_length_b                   4.2589(2)
_cell_length_c                   10.6898(7)
_cell_measurement_reflns_used    831
_cell_measurement_temperature    293(2)
_cell_measurement_theta_max      35.40
_cell_measurement_theta_min      3.81
_cell_volume                     193.894(18)
_computing_cell_refinement       'SMART APEX II'
_computing_data_collection       'SMART APEX II (Bruker,2010)'
_computing_data_reduction        'SAINT (Bruker,2000)'
_computing_molecular_graphics    'Ortep-3v2 for windows (Farrugia, 1997)'
_computing_publication_material  'PLATON (Spek, 2008)'
_computing_structure_refinement  'SHELXL-97 (Sheldrick, 2008)'
_computing_structure_solution    'SHELXS-97 (Sheldrick, 2008)'
_diffrn_ambient_temperature      293(2)
_diffrn_measured_fraction_theta_full 0.987
_diffrn_measured_fraction_theta_max 0.987
_diffrn_measurement_device_type  'CCD area detector'
_diffrn_measurement_method       'phi and omega scans'
_diffrn_radiation_monochromator  graphite
_diffrn_radiation_source         'fine-focus sealed tube'
_diffrn_radiation_type           MoK\a
_diffrn_radiation_wavelength     0.71073
_diffrn_reflns_av_R_equivalents  0.0670
_diffrn_reflns_av_sigmaI/netI    0.0595
_diffrn_reflns_limit_h_max       6
_diffrn_reflns_limit_h_min       -3
_diffrn_reflns_limit_k_max       4
_diffrn_reflns_limit_k_min       -6
_diffrn_reflns_limit_l_max       16
_diffrn_reflns_limit_l_min       -12
_diffrn_reflns_number            831
_diffrn_reflns_theta_full        35.40
_diffrn_reflns_theta_max         35.40
_diffrn_reflns_theta_min         3.81
_exptl_absorpt_coefficient_mu    41.652
_exptl_absorpt_correction_T_max  0.2299
_exptl_absorpt_correction_T_min  0.1031
_exptl_absorpt_correction_type   empirical
_exptl_crystal_colour            grey
_exptl_crystal_density_diffrn    7.274
_exptl_crystal_density_method    'not measured'
_exptl_crystal_description       block
_exptl_crystal_F_000             370
_exptl_crystal_size_max          0.10
_exptl_crystal_size_mid          0.05
_exptl_crystal_size_min          0.05
_refine_diff_density_max         2.168
_refine_diff_density_min         -2.602
_refine_diff_density_rms         0.503
_refine_ls_abs_structure_details 'Flack H D (1983), Acta Cryst. A39, 876-881'
_refine_ls_abs_structure_Flack   0.4(2)
_refine_ls_extinction_coef       0.0089(15)
_refine_ls_extinction_expression Fc^*^=kFc[1+0.001xFc^2^\l^3^/sin(2\q)]^-1/4^
_refine_ls_extinction_method     SHELXL
_refine_ls_goodness_of_fit_ref   1.094
_refine_ls_matrix_type           full
_refine_ls_number_parameters     15
_refine_ls_number_reflns         273
_refine_ls_number_restraints     1
_refine_ls_restrained_S_all      1.092
_refine_ls_R_factor_all          0.0312
_refine_ls_R_factor_gt           0.0305
_refine_ls_shift/su_max          0.001
_refine_ls_shift/su_mean         0.000
_refine_ls_structure_factor_coef Fsqd
_refine_ls_weighting_details
'calc w=1/[\s^2^(Fo^2^)+(0.0348P)^2^+0.8128P] where P=(Fo^2^+2Fc^2^)/3'
_refine_ls_weighting_scheme      calc
_refine_ls_wR_factor_gt          0.0724
_refine_ls_wR_factor_ref         0.0727
_reflns_number_gt                261
_reflns_number_total             273
_reflns_threshold_expression     >2\s(I)
_cod_data_source_file            ic5b02023_si_002.cif
_cod_data_source_block           EuCuGa3_300K
_cod_depositor_comments
;
The following automatic conversions were performed:

'_symmetry_cell_setting' value 'Tetragonal' changed to 'tetragonal'
according to
/usr/data/users/saulius/crontab/automatic-downloads/current/ACS/lib/dictionaries/cif_core.dic
dictionary named 'cif_core.dic' version 2.4.2 from 2011-04-26.

Automatic conversion script
Id: cif_fix_values 4268 2015-11-12 08:31:59Z antanas 
;
_cod_original_sg_symbol_H-M      I4mm
_cod_database_code               4344616
loop_
_symmetry_equiv_pos_as_xyz
'x, y, z'
'-x, -y, z'
'-y, x, z'
'y, -x, z'
'x, -y, z'
'-x, y, z'
'-y, -x, z'
'y, x, z'
'x+1/2, y+1/2, z+1/2'
'-x+1/2, -y+1/2, z+1/2'
'-y+1/2, x+1/2, z+1/2'
'y+1/2, -x+1/2, z+1/2'
'x+1/2, -y+1/2, z+1/2'
'-x+1/2, y+1/2, z+1/2'
'-y+1/2, -x+1/2, z+1/2'
'y+1/2, x+1/2, z+1/2'
loop_
_atom_site_label
_atom_site_type_symbol
_atom_site_fract_x
_atom_site_fract_y
_atom_site_fract_z
_atom_site_U_iso_or_equiv
_atom_site_adp_type
_atom_site_occupancy
_atom_site_symmetry_multiplicity
_atom_site_calc_flag
_atom_site_refinement_flags
Eu Eu 0.0000 0.0000 0.1352(4) 0.0116(2) Uani 1 8 d S
Cu Cu 0.5000 0.5000 0.02181(19) 0.0141(8) Uani 1 8 d S
Ga1 Ga 0.5000 0.0000 0.8840(6) 0.0155(3) Uani 1 4 d S
Ga2 Ga 0.5000 0.5000 0.25099(18) 0.0197(7) Uani 1 8 d S
loop_
_atom_site_aniso_label
_atom_site_aniso_U_11
_atom_site_aniso_U_22
_atom_site_aniso_U_33
_atom_site_aniso_U_23
_atom_site_aniso_U_13
_atom_site_aniso_U_12
Eu 0.0113(3) 0.0113(3) 0.0122(3) 0.000 0.000 0.000
Cu 0.0082(11) 0.0082(11) 0.026(3) 0.000 0.000 0.000
Ga1 0.018(4) 0.016(3) 0.0134(4) 0.000 0.000 0.000
Ga2 0.0216(12) 0.0216(12) 0.0158(19) 0.000 0.000 0.000
loop_
_atom_type_symbol
_atom_type_description
_atom_type_scat_dispersion_real
_atom_type_scat_dispersion_imag
_atom_type_scat_source
Cu Cu 0.3201 1.2651 'International Tables Vol C Tables 4.2.6.8 and 6.1.1.4'
Ga Ga 0.2307 1.6083 'International Tables Vol C Tables 4.2.6.8 and 6.1.1.4'
Eu Eu -0.1578 3.6682 'International Tables Vol C Tables 4.2.6.8 and 6.1.1.4'
loop_
_geom_angle_atom_site_label_1
_geom_angle_atom_site_label_2
_geom_angle_atom_site_label_3
_geom_angle
_geom_angle_site_symmetry_1
_geom_angle_site_symmetry_3
Cu Eu Cu 136.1(2) 1_445 .
Cu Eu Cu 81.98(7) 1_445 1_455
Cu Eu Cu 81.98(7) . 1_455
Cu Eu Cu 81.98(7) 1_445 1_545
Cu Eu Cu 81.98(7) . 1_545
Cu Eu Cu 136.1(2) 1_455 1_545
Cu Eu Ga2 179.6(2) 1_445 .
Cu Eu Ga2 44.27(3) . .
Cu Eu Ga2 98.161(11) 1_455 .
Cu Eu Ga2 98.161(11) 1_545 .
Cu Eu Ga2 44.27(3) 1_445 1_445
Cu Eu Ga2 179.6(2) . 1_445
Cu Eu Ga2 98.161(11) 1_455 1_445
Cu Eu Ga2 98.161(11) 1_545 1_445
Ga2 Eu Ga2 135.3(2) . 1_445
Cu Eu Ga2 98.161(11) 1_445 1_455
Cu Eu Ga2 98.161(11) . 1_455
Cu Eu Ga2 44.27(3) 1_455 1_455
Cu Eu Ga2 179.6(2) 1_545 1_455
Ga2 Eu Ga2 81.69(7) . 1_455
Ga2 Eu Ga2 81.69(7) 1_445 1_455
Cu Eu Ga2 98.161(11) 1_445 1_545
Cu Eu Ga2 98.161(11) . 1_545
Cu Eu Ga2 179.6(2) 1_455 1_545
Cu Eu Ga2 44.27(3) 1_545 1_545
Ga2 Eu Ga2 81.69(7) . 1_545
Ga2 Eu Ga2 81.69(7) 1_445 1_545
Ga2 Eu Ga2 135.3(2) 1_455 1_545
Cu Eu Ga1 134.55(7) 1_445 11_544
Cu Eu Ga1 83.20(11) . 11_544
Cu Eu Ga1 134.55(7) 1_455 11_544
Cu Eu Ga1 83.20(11) 1_545 11_544
Ga2 Eu Ga1 45.13(8) . 11_544
Ga2 Eu Ga1 96.44(8) 1_445 11_544
Ga2 Eu Ga1 96.44(8) 1_455 11_544
Ga2 Eu Ga1 45.13(8) 1_545 11_544
Cu Eu Ga1 134.55(7) 1_445 9_454
Cu Eu Ga1 83.20(11) . 9_454
Cu Eu Ga1 83.20(11) 1_455 9_454
Cu Eu Ga1 134.55(7) 1_545 9_454
Ga2 Eu Ga1 45.13(8) . 9_454
Ga2 Eu Ga1 96.44(8) 1_445 9_454
Ga2 Eu Ga1 45.13(8) 1_455 9_454
Ga2 Eu Ga1 96.44(8) 1_545 9_454
Ga1 Eu Ga1 52.46(5) 11_544 9_454
Cu Eu Ga1 83.20(11) 1_445 11_444
Cu Eu Ga1 134.55(7) . 11_444
Cu Eu Ga1 83.20(11) 1_455 11_444
Cu Eu Ga1 134.55(7) 1_545 11_444
Ga2 Eu Ga1 96.44(8) . 11_444
Ga2 Eu Ga1 45.13(8) 1_445 11_444
Ga2 Eu Ga1 45.13(8) 1_455 11_444
Ga2 Eu Ga1 96.44(8) 1_545 11_444
Ga1 Eu Ga1 77.37(9) 11_544 11_444
Ga1 Eu Ga1 52.46(5) 9_454 11_444
Cu Eu Ga1 83.20(11) 1_445 9_444
Cu Eu Ga1 134.55(7) . 9_444
Cu Eu Ga1 134.55(7) 1_455 9_444
Cu Eu Ga1 83.20(11) 1_545 9_444
Ga2 Eu Ga1 96.44(8) . 9_444
Ga2 Eu Ga1 45.13(8) 1_445 9_444
Ga2 Eu Ga1 96.44(8) 1_455 9_444
Ga2 Eu Ga1 45.13(8) 1_545 9_444
Ga1 Eu Ga1 52.46(5) 11_544 9_444
Ga1 Eu Ga1 77.37(9) 9_454 9_444
Ga1 Eu Ga1 52.46(5) 11_444 9_444
Ga2 Cu Ga1 124.67(15) . 3_554
Ga2 Cu Ga1 124.67(15) . 1_554
Ga1 Cu Ga1 71.12(15) 3_554 1_554
Ga2 Cu Ga1 124.67(15) . 3_654
Ga1 Cu Ga1 110.7(3) 3_554 3_654
Ga1 Cu Ga1 71.12(15) 1_554 3_654
Ga2 Cu Ga1 124.67(15) . 1_564
Ga1 Cu Ga1 71.12(15) 3_554 1_564
Ga1 Cu Ga1 110.7(3) 1_554 1_564
Ga1 Cu Ga1 71.12(15) 3_654 1_564
Ga2 Cu Eu 68.07(10) . 1_665
Ga1 Cu Eu 138.76(6) 3_554 1_665
Ga1 Cu Eu 138.76(6) 1_554 1_665
Ga1 Cu Eu 70.91(5) 3_654 1_665
Ga1 Cu Eu 70.91(5) 1_564 1_665
Ga2 Cu Eu 68.07(10) . .
Ga1 Cu Eu 70.91(5) 3_554 .
Ga1 Cu Eu 70.91(5) 1_554 .
Ga1 Cu Eu 138.76(6) 3_654 .
Ga1 Cu Eu 138.76(6) 1_564 .
Eu Cu Eu 136.1(2) 1_665 .
Ga2 Cu Eu 68.07(10) . 1_565
Ga1 Cu Eu 70.91(5) 3_554 1_565
Ga1 Cu Eu 138.76(6) 1_554 1_565
Ga1 Cu Eu 138.76(6) 3_654 1_565
Ga1 Cu Eu 70.91(5) 1_564 1_565
Eu Cu Eu 81.98(7) 1_665 1_565
Eu Cu Eu 81.98(7) . 1_565
Ga2 Cu Eu 68.07(10) . 1_655
Ga1 Cu Eu 138.76(6) 3_554 1_655
Ga1 Cu Eu 70.91(5) 1_554 1_655
Ga1 Cu Eu 70.91(5) 3_654 1_655
Ga1 Cu Eu 138.76(6) 1_564 1_655
Eu Cu Eu 81.98(7) 1_665 1_655
Eu Cu Eu 81.98(7) . 1_655
Eu Cu Eu 136.1(2) 1_565 1_655
Ga2 Ga1 Ga2 112.5(3) 9_445 9_545
Ga2 Ga1 Cu 108.416(17) 9_445 1_556
Ga2 Ga1 Cu 108.416(17) 9_545 1_556
Ga2 Ga1 Cu 108.416(17) 9_445 1_546
Ga2 Ga1 Cu 108.416(17) 9_545 1_546
Cu Ga1 Cu 110.7(3) 1_556 1_546
Ga2 Ga1 Ga1 126.02(8) 9_445 3_655
Ga2 Ga1 Ga1 53.98(8) 9_545 3_655
Cu Ga1 Ga1 54.44(8) 1_556 3_655
Cu Ga1 Ga1 125.56(8) 1_546 3_655
Ga2 Ga1 Ga1 53.98(8) 9_445 3_545
Ga2 Ga1 Ga1 126.02(8) 9_545 3_545
Cu Ga1 Ga1 125.56(8) 1_556 3_545
Cu Ga1 Ga1 54.44(8) 1_546 3_545
Ga1 Ga1 Ga1 180.0(5) 3_655 3_545
Ga2 Ga1 Ga1 53.98(8) 9_445 3
Ga2 Ga1 Ga1 126.02(8) 9_545 3
Cu Ga1 Ga1 54.44(8) 1_556 3
Cu Ga1 Ga1 125.56(8) 1_546 3
Ga1 Ga1 Ga1 90.000(1) 3_655 3
Ga1 Ga1 Ga1 90.0 3_545 3
Ga2 Ga1 Ga1 126.02(8) 9_445 3_645
Ga2 Ga1 Ga1 53.98(8) 9_545 3_645
Cu Ga1 Ga1 125.56(8) 1_556 3_645
Cu Ga1 Ga1 54.44(8) 1_546 3_645
Ga1 Ga1 Ga1 90.000(1) 3_655 3_645
Ga1 Ga1 Ga1 90.000(1) 3_545 3_645
Ga1 Ga1 Ga1 180.0(5) 3 3_645
Ga2 Ga1 Eu 64.31(13) 9_445 9_545
Ga2 Ga1 Eu 64.31(13) 9_545 9_545
Cu Ga1 Eu 163.36(19) 1_556 9_545
Cu Ga1 Eu 85.99(13) 1_546 9_545
Ga1 Ga1 Eu 116.23(3) 3_655 9_545
Ga1 Ga1 Eu 63.77(3) 3_545 9_545
Ga1 Ga1 Eu 116.23(3) 3 9_545
Ga1 Ga1 Eu 63.77(3) 3_645 9_545
Ga2 Ga1 Eu 64.31(13) 9_445 9
Ga2 Ga1 Eu 64.31(13) 9_545 9
Cu Ga1 Eu 85.99(13) 1_556 9
Cu Ga1 Eu 163.36(19) 1_546 9
Ga1 Ga1 Eu 63.77(3) 3_655 9
Ga1 Ga1 Eu 116.23(3) 3_545 9
Ga1 Ga1 Eu 63.77(3) 3 9
Ga1 Ga1 Eu 116.23(3) 3_645 9
Eu Ga1 Eu 77.37(9) 9_545 9
Ga2 Ga1 Eu 162.15(19) 9_445 1_656
Ga2 Ga1 Eu 85.32(13) 9_545 1_656
Cu Ga1 Eu 63.53(12) 1_556 1_656
Cu Ga1 Eu 63.53(12) 1_546 1_656
Ga1 Ga1 Eu 63.94(3) 3_655 1_656
Ga1 Ga1 Eu 116.06(3) 3_545 1_656
Ga1 Ga1 Eu 116.06(3) 3 1_656
Ga1 Ga1 Eu 63.94(3) 3_645 1_656
Eu Ga1 Eu 127.708(3) 9_545 1_656
Eu Ga1 Eu 127.708(3) 9 1_656
Ga2 Ga1 Eu 85.32(13) 9_445 1_556
Ga2 Ga1 Eu 162.15(19) 9_545 1_556
Cu Ga1 Eu 63.53(12) 1_556 1_556
Cu Ga1 Eu 63.53(12) 1_546 1_556
Ga1 Ga1 Eu 116.06(3) 3_655 1_556
Ga1 Ga1 Eu 63.94(3) 3_545 1_556
Ga1 Ga1 Eu 63.94(3) 3 1_556
Ga1 Ga1 Eu 116.06(3) 3_645 1_556
Eu Ga1 Eu 127.708(3) 9_545 1_556
Eu Ga1 Eu 127.708(3) 9 1_556
Eu Ga1 Eu 76.83(9) 1_656 1_556
Cu Ga2 Ga1 123.73(16) . 11_554
Cu Ga2 Ga1 123.73(16) . 9_554
Ga1 Ga2 Ga1 72.04(15) 11_554 9_554
Cu Ga2 Ga1 123.73(16) . 11_544
Ga1 Ga2 Ga1 112.5(3) 11_554 11_544
Ga1 Ga2 Ga1 72.04(15) 9_554 11_544
Cu Ga2 Ga1 123.73(16) . 9_454
Ga1 Ga2 Ga1 72.04(15) 11_554 9_454
Ga1 Ga2 Ga1 112.5(3) 9_554 9_454
Ga1 Ga2 Ga1 72.04(15) 11_544 9_454
Cu Ga2 Eu 67.66(10) . .
Ga1 Ga2 Eu 139.02(5) 11_554 .
Ga1 Ga2 Eu 139.02(5) 9_554 .
Ga1 Ga2 Eu 70.56(6) 11_544 .
Ga1 Ga2 Eu 70.56(6) 9_454 .
Cu Ga2 Eu 67.66(10) . 1_665
Ga1 Ga2 Eu 70.56(6) 11_554 1_665
Ga1 Ga2 Eu 70.56(6) 9_554 1_665
Ga1 Ga2 Eu 139.02(5) 11_544 1_665
Ga1 Ga2 Eu 139.02(5) 9_454 1_665
Eu Ga2 Eu 135.3(2) . 1_665
Cu Ga2 Eu 67.66(10) . 1_655
Ga1 Ga2 Eu 139.02(5) 11_554 1_655
Ga1 Ga2 Eu 70.56(6) 9_554 1_655
Ga1 Ga2 Eu 70.56(6) 11_544 1_655
Ga1 Ga2 Eu 139.02(5) 9_454 1_655
Eu Ga2 Eu 81.69(7) . 1_655
Eu Ga2 Eu 81.69(7) 1_665 1_655
Cu Ga2 Eu 67.66(10) . 1_565
Ga1 Ga2 Eu 70.56(6) 11_554 1_565
Ga1 Ga2 Eu 139.02(5) 9_554 1_565
Ga1 Ga2 Eu 139.02(5) 11_544 1_565
Ga1 Ga2 Eu 70.56(6) 9_454 1_565
Eu Ga2 Eu 81.69(7) . 1_565
Eu Ga2 Eu 81.69(7) 1_665 1_565
Eu Ga2 Eu 135.3(2) 1_655 1_565
loop_
_geom_bond_atom_site_label_1
_geom_bond_atom_site_label_2
_geom_bond_distance
_geom_bond_site_symmetry_2
Eu Cu 3.246(2) 1_445
Eu Cu 3.246(2) .
Eu Cu 3.246(2) 1_455
Eu Cu 3.246(2) 1_545
Eu Ga2 3.256(2) .
Eu Ga2 3.256(2) 1_445
Eu Ga2 3.256(2) 1_455
Eu Ga2 3.256(2) 1_545
Eu Ga1 3.407(3) 11_544
Eu Ga1 3.407(3) 9_454
Eu Ga1 3.407(3) 11_444
Eu Ga1 3.407(3) 9_444
Cu Ga2 2.4499(18) .
Cu Ga1 2.589(5) 3_554
Cu Ga1 2.589(5) 1_554
Cu Ga1 2.589(5) 3_654
Cu Ga1 2.589(5) 1_564
Cu Eu 3.246(2) 1_665
Cu Eu 3.246(2) 1_565
Cu Eu 3.246(2) 1_655
Ga1 Ga2 2.561(5) 9_445
Ga1 Ga2 2.561(5) 9_545
Ga1 Cu 2.589(5) 1_556
Ga1 Cu 2.589(5) 1_546
Ga1 Ga1 3.01150(14) 3_655
Ga1 Ga1 3.01150(14) 3_545
Ga1 Ga1 3.01150(14) 3
Ga1 Ga1 3.01150(14) 3_645
Ga1 Eu 3.407(3) 9_545
Ga1 Eu 3.407(3) 9
Ga1 Eu 3.427(3) 1_656
Ga1 Eu 3.427(3) 1_556
Ga2 Ga1 2.561(5) 11_554
Ga2 Ga1 2.561(5) 9_554
Ga2 Ga1 2.561(5) 11_544
Ga2 Ga1 2.561(5) 9_454
Ga2 Eu 3.256(2) 1_665
Ga2 Eu 3.256(2) 1_655
Ga2 Eu 3.256(2) 1_565
