#------------------------------------------------------------------------------
#$Date: 2016-03-04 02:43:10 +0200 (Fri, 04 Mar 2016) $
#$Revision: 177191 $
#$URL: svn://www.crystallography.net/cod/cif/4/34/48/4344870.cif $
#------------------------------------------------------------------------------
#
# This file is available in the Crystallography Open Database (COD),
# http://www.crystallography.net/
#
# All data on this site have been placed in the public domain by the
# contributors.
#
data_4344870
loop_
_publ_author_name
'Yamada, Ikuya'
'Murakami, Makoto'
'Hayashi, Naoaki'
'Mori, Shigeo'
_publ_section_title
;
 Inverse Charge Transfer in the Quadruple Perovskite CaCu3Fe4O12.
;
_journal_issue                   4
_journal_name_full               'Inorganic chemistry'
_journal_page_first              1715
_journal_page_last               1719
_journal_paper_doi               10.1021/acs.inorgchem.5b02623
_journal_volume                  55
_journal_year                    2016
_chemical_formula_sum            'Ca Cu2.79 Fe4.21 O12'
_chemical_formula_weight         644.472
_chemical_name_systematic        ' ?'
_space_group_IT_number           201
_symmetry_cell_setting           cubic
_symmetry_Int_Tables_number      201
_symmetry_space_group_name_Hall  '-P 2ab 2bc 3'
_symmetry_space_group_name_H-M   'P n -3 :2'
_cell_angle_alpha                90
_cell_angle_beta                 90
_cell_angle_gamma                90
_cell_formula_units_Z            2
_cell_length_a                   7.26256(7)
_cell_length_b                   7.26256(7)
_cell_length_c                   7.26256(7)
_cell_measurement_temperature    100
_cell_volume                     383.062(6)
_computing_cell_refinement       'RIETAN-FP (Izumi and Momma, 2007)'
_computing_molecular_graphics    'VESTA (Momma and Izumi, 2008)'
_computing_structure_refinement  'RIETAN-FP (Izumi and Momma, 2007)'
_diffrn_ambient_temperature      100
_diffrn_radiation_wavelength     0.419810
_diffrn_source                   synchrotron
_exptl_crystal_density_diffrn    5.5875
_exptl_crystal_density_method    'not measured'
_exptl_crystal_F_000             612.74
_pd_calc_method                  'Rietveld Refinement'
_pd_char_colour                  black
_pd_instr_location               ' ?'
_pd_meas_2theta_range_inc        0.0100
_pd_meas_2theta_range_max        76.3300
_pd_meas_2theta_range_min        0.0000
_pd_meas_number_of_points        7634
_pd_meas_scan_method             step
_pd_proc_2theta_range_inc        0.0100
_pd_proc_2theta_range_max        50.0000
_pd_proc_2theta_range_min        3.0000
_pd_proc_ls_background_function  'Legendre polynomials'
_pd_proc_ls_pref_orient_corr     ' ?'
_pd_proc_ls_profile_function     'split pseudo-Voigt function'
_pd_proc_ls_prof_R_factor        0.04713
_pd_proc_ls_prof_wR_expected     0.06733
_pd_proc_ls_prof_wR_factor       0.06406
_pd_spec_mounting                ' ?'
_pd_spec_mount_mode              reflection
_pd_spec_shape                   flat_sheet
_refine_diff_density_max         0.1
_refine_diff_density_min         -0.1
_refine_ls_extinction_method     none
_refine_ls_goodness_of_fit_all   0.9513
_refine_ls_matrix_type           full
_refine_ls_number_constraints    3
_refine_ls_number_parameters     30
_refine_ls_number_restraints     0
_refine_ls_R_factor_all          0.01214
_refine_ls_R_Fsqd_factor         0.01214
_refine_ls_R_I_factor            0.01661
_refine_ls_shift/su_max          0.0
_refine_ls_weighting_details     1/<i>y</i>~i~
_refine_ls_weighting_scheme      sigma
_cod_data_source_file            ic5b02623_si_002.cif
_cod_data_source_block           single_phase
_cod_original_sg_symbol_H-M      'P n -3'
_cod_database_code               4344870
loop_
_symmetry_equiv_pos_site_id
_symmetry_equiv_pos_as_xyz
1 x,y,z
2 -x+1/2,-y+1/2,z
3 -x+1/2,y,-z+1/2
4 x,-y+1/2,-z+1/2
5 z,x,y
6 z,-x+1/2,-y+1/2
7 -z+1/2,-x+1/2,y
8 -z+1/2,x,-y+1/2
9 y,z,x
10 -y+1/2,z,-x+1/2
11 y,-z+1/2,-x+1/2
12 -y+1/2,-z+1/2,x
13 -x,-y,-z
14 x+1/2,y+1/2,-z
15 x+1/2,-y,z+1/2
16 -x,y+1/2,z+1/2
17 -z,-x,-y
18 -z,x+1/2,y+1/2
19 z+1/2,x+1/2,-y
20 z+1/2,-x,y+1/2
21 -y,-z,-x
22 y+1/2,-z,x+1/2
23 -y,z+1/2,x+1/2
24 y+1/2,z+1/2,-x
loop_
_atom_site_label
_atom_site_fract_x
_atom_site_fract_y
_atom_site_fract_z
_atom_site_occupancy
_atom_site_symmetry_multiplicity
_atom_site_Wyckoff_symbol
_atom_site_adp_type
_atom_site_U_iso_or_equiv
_atom_site_type_symbol
Ca1 0.25 0.25 0.25 1 2 a Uiso 0.0037(6) Ca
Cu1 0.25 0.75 0.75 0.93 6 d Uiso 0.0020(2) Cu
FeA 0.25 0.75 0.75 0.07 6 d Uiso 0.0020(2) Fe
Fe11 0 0 0 1 4 b Uiso 0.0006(2) Fe
Fe12 0.5 0.5 0.5 1 4 c Uiso 0.0006(2) Fe
O1 0.0723(3) 0.5555(3) 0.2452(8) 1 24 h Uiso 0.0020(4) O
loop_
_atom_type_symbol
_atom_type_description
_atom_type_scat_dispersion_real
_atom_type_scat_dispersion_imag
_atom_type_scat_source
Ca Ca2+ 0.0737 0.1084 'International Tables for Crystallography, Vol. C'
Cu Cu2+ 0.1908 0.4852 'International Tables for Crystallography, Vol. C'
Fe Fe3+ 0.1554 0.3160 'International Tables for Crystallography, Vol. C'
O O- -0.0011 0.0019 'International Tables for Crystallography, Vol. C'
loop_
_geom_angle_atom_site_label_1
_geom_angle_atom_site_label_2
_geom_angle_atom_site_label_3
_geom_angle
_geom_angle_site_symmetry_1
_geom_angle_site_symmetry_3
FeA Fe11 Ca1 22.0017 1_555 1_555
FeA Fe11 Cu1 0 1_555 1_555
loop_
_geom_bond_atom_site_label_1
_geom_bond_atom_site_label_2
_geom_bond_distance
_geom_bond_site_symmetry_2
Ca1 O1 2.567(2) 1_555
Ca1 O1 2.567(2) 2_555
Ca1 O1 2.567(2) 3_555
Ca1 O1 2.567(2) 4_555
Ca1 O1 2.567(2) 5_555
Ca1 O1 2.567(2) 6_555
Ca1 O1 2.567(2) 7_555
Ca1 O1 2.567(2) 8_555
Ca1 O1 2.567(2) 9_555
Ca1 O1 2.567(2) 10_555
Ca1 O1 2.567(2) 11_555
Ca1 O1 2.567(2) 12_555
Cu1 O1 1.914(2) 22_465
Cu1 O1 1.914(2) 24_456
Cu1 O1 1.914(2) 23_655
Cu1 O1 1.914(2) 21_666
Cu1 O1 2.735(2) 7_555
Cu1 O1 2.735(2) 5_565
Cu1 O1 2.735(2) 6_556
Cu1 O1 2.735(2) 8_566
FeA O1 1.914(2) 22_465
FeA O1 1.914(2) 24_456
FeA O1 1.914(2) 23_655
FeA O1 1.914(2) 21_666
FeA O1 2.735(2) 7_555
FeA O1 2.735(2) 5_565
FeA O1 2.735(2) 6_556
FeA O1 2.735(2) 8_566
Fe11 O1 1.965(6) 4_555
Fe11 O1 1.965(6) 8_555
Fe11 O1 1.965(6) 12_555
Fe11 O1 1.965(6) 24_445
Fe11 O1 1.965(6) 20_454
Fe11 O1 1.965(6) 16_544
Fe12 O1 1.900(6) 3_555
Fe12 O1 1.900(6) 7_555
Fe12 O1 1.900(6) 11_555
Fe12 O1 1.900(6) 23_655
Fe12 O1 1.900(6) 15_565
Fe12 O1 1.900(6) 19_556
O1 Fe12 1.900(6) 3_555
O1 Cu1 1.914(2) 17_666
O1 FeA 1.914(2) 17_666
O1 Fe11 1.965(6) 4_555
O1 Ca1 2.567(2) 1_555
O1 O1 2.582(4) 3_555
O1 O1 2.684(8) 6_555
O1 O1 2.684(8) 12_555
O1 O1 2.690(8) 24_455
O1 O1 2.690(8) 18_554
O1 Cu1 2.735(2) 9_455
O1 FeA 2.735(2) 9_455
O1 O1 2.774(8) 7_555
O1 O1 2.774(8) 10_555
O1 O1 2.785(9) 22_465
O1 O1 2.785(9) 19_456
O1 O1 2.827(4) 4_565
