#------------------------------------------------------------------------------
#$Date: 2016-02-04 01:53:51 +0200 (Thu, 04 Feb 2016) $
#$Revision: 175528 $
#$URL: svn://www.crystallography.net/cod/cif/4/34/46/4344614.cif $
#------------------------------------------------------------------------------
#
# This file is available in the Crystallography Open Database (COD),
# http://www.crystallography.net/
#
# All data on this site have been placed in the public domain by the
# contributors.
#
data_4344614
loop_
_publ_author_name
'Subbarao, Udumula'
'Rayaprol, Sudhindra'
'Dally, Rebecca'
'Graf, Michael J.'
'Peter, Sebastian C.'
_publ_section_title
;
 Swinging Symmetry, Multiple Structural Phase Transitions, and Versatile
 Physical Properties in RECuGa3 (RE = La-Nd, Sm-Gd).
;
_journal_issue                   2
_journal_name_full               'Inorganic chemistry'
_journal_page_first              666
_journal_page_last               675
_journal_paper_doi               10.1021/acs.inorgchem.5b02023
_journal_volume                  55
_journal_year                    2016
_chemical_formula_sum            'Cu Ga3 Nd'
_chemical_formula_weight         416.94
_chemical_name_systematic
;
 ?
;
_space_group_IT_number           107
_symmetry_cell_setting           tetragonal
_symmetry_space_group_name_Hall  'I 4 -2'
_symmetry_space_group_name_H-M   'I 4 m m'
_atom_sites_solution_primary     direct
_atom_sites_solution_secondary   difmap
_audit_creation_method           SHELXL-97
_cell_angle_alpha                90.00
_cell_angle_beta                 90.00
_cell_angle_gamma                90.00
_cell_formula_units_Z            2
_cell_length_a                   4.2020(3)
_cell_length_b                   4.2020(3)
_cell_length_c                   10.4151(8)
_cell_measurement_reflns_used    5395
_cell_measurement_temperature    293(2)
_cell_measurement_theta_max      62.73
_cell_measurement_theta_min      3.91
_cell_volume                     183.90(2)
_computing_cell_refinement       'SMART APEX II'
_computing_data_collection       'SMART APEX II (Bruker,2010)'
_computing_data_reduction        'SAINT (Bruker,2000)'
_computing_molecular_graphics    'Ortep-3v2 for windows (Farrugia, 1997)'
_computing_publication_material  'PLATON (Spek, 2008)'
_computing_structure_refinement  'SHELXL-97 (Sheldrick, 2008)'
_computing_structure_solution    'SHELXS-97 (Sheldrick, 2008)'
_diffrn_ambient_temperature      293(2)
_diffrn_measured_fraction_theta_full 0.984
_diffrn_measured_fraction_theta_max 0.984
_diffrn_measurement_device_type  'CCD area detector'
_diffrn_measurement_method       'phi and omega scans'
_diffrn_radiation_monochromator  graphite
_diffrn_radiation_source         'fine-focus sealed tube'
_diffrn_radiation_type           MoK\a
_diffrn_radiation_wavelength     0.71073
_diffrn_reflns_av_R_equivalents  0.0544
_diffrn_reflns_av_sigmaI/netI    0.0375
_diffrn_reflns_limit_h_max       10
_diffrn_reflns_limit_h_min       -8
_diffrn_reflns_limit_k_max       10
_diffrn_reflns_limit_k_min       -10
_diffrn_reflns_limit_l_max       26
_diffrn_reflns_limit_l_min       -26
_diffrn_reflns_number            5395
_diffrn_reflns_theta_full        62.73
_diffrn_reflns_theta_max         62.73
_diffrn_reflns_theta_min         3.91
_exptl_absorpt_coefficient_mu    40.979
_exptl_absorpt_correction_T_max  0.2338
_exptl_absorpt_correction_T_min  0.1052
_exptl_absorpt_correction_type   empirical
_exptl_crystal_colour            grey
_exptl_crystal_density_diffrn    7.541
_exptl_crystal_density_method    'not measured'
_exptl_crystal_description       block
_exptl_crystal_F_000             364
_exptl_crystal_size_max          0.10
_exptl_crystal_size_mid          0.05
_exptl_crystal_size_min          0.05
_refine_diff_density_max         7.407
_refine_diff_density_min         -7.403
_refine_diff_density_rms         1.528
_refine_ls_abs_structure_details 'Flack H D (1983), Acta Cryst. A39, 876-881'
_refine_ls_abs_structure_Flack   0.53(8)
_refine_ls_extinction_coef       0.073(9)
_refine_ls_extinction_expression Fc^*^=kFc[1+0.001xFc^2^\l^3^/sin(2\q)]^-1/4^
_refine_ls_extinction_method     SHELXL
_refine_ls_goodness_of_fit_ref   1.268
_refine_ls_matrix_type           full
_refine_ls_number_parameters     15
_refine_ls_number_reflns         929
_refine_ls_number_restraints     1
_refine_ls_restrained_S_all      1.268
_refine_ls_R_factor_all          0.0504
_refine_ls_R_factor_gt           0.0429
_refine_ls_shift/su_max          0.000
_refine_ls_shift/su_mean         0.000
_refine_ls_structure_factor_coef Fsqd
_refine_ls_weighting_details
'calc w=1/[\s^2^(Fo^2^)+(0.0759P)^2^+1.1070P] where P=(Fo^2^+2Fc^2^)/3'
_refine_ls_weighting_scheme      calc
_refine_ls_wR_factor_gt          0.1129
_refine_ls_wR_factor_ref         0.1334
_reflns_number_gt                900
_reflns_number_total             929
_reflns_threshold_expression     >2\s(I)
_cod_data_source_file            ic5b02023_si_002.cif
_cod_data_source_block           NdCuGa3_300K
_cod_depositor_comments
;
The following automatic conversions were performed:

'_symmetry_cell_setting' value 'Tetragonal' changed to 'tetragonal'
according to
/usr/data/users/saulius/crontab/automatic-downloads/current/ACS/lib/dictionaries/cif_core.dic
dictionary named 'cif_core.dic' version 2.4.2 from 2011-04-26.

Automatic conversion script
Id: cif_fix_values 4268 2015-11-12 08:31:59Z antanas 
;
_cod_original_sg_symbol_H-M      I4mm
_cod_database_code               4344614
loop_
_symmetry_equiv_pos_as_xyz
'x, y, z'
'-x, -y, z'
'-y, x, z'
'y, -x, z'
'x, -y, z'
'-x, y, z'
'-y, -x, z'
'y, x, z'
'x+1/2, y+1/2, z+1/2'
'-x+1/2, -y+1/2, z+1/2'
'-y+1/2, x+1/2, z+1/2'
'y+1/2, -x+1/2, z+1/2'
'x+1/2, -y+1/2, z+1/2'
'-x+1/2, y+1/2, z+1/2'
'-y+1/2, -x+1/2, z+1/2'
'y+1/2, x+1/2, z+1/2'
loop_
_atom_site_label
_atom_site_type_symbol
_atom_site_fract_x
_atom_site_fract_y
_atom_site_fract_z
_atom_site_U_iso_or_equiv
_atom_site_adp_type
_atom_site_occupancy
_atom_site_symmetry_multiplicity
_atom_site_calc_flag
_atom_site_refinement_flags
Nd Nd 0.0000 0.0000 0.1276 0.00821(9) Uani 1 8 d S
Cu Cu 0.5000 0.5000 0.0153(7) 0.0195(4) Uani 1 8 d S
Ga1 Ga 0.5000 0.0000 0.87958(17) 0.01089(11) Uani 1 4 d S
Ga2 Ga 0.5000 0.5000 0.2422(6) 0.0183(4) Uani 1 8 d S
loop_
_atom_site_aniso_label
_atom_site_aniso_U_11
_atom_site_aniso_U_22
_atom_site_aniso_U_33
_atom_site_aniso_U_23
_atom_site_aniso_U_13
_atom_site_aniso_U_12
Nd 0.00785(9) 0.00785(9) 0.00892(12) 0.000 0.000 0.000
Cu 0.0116(6) 0.0116(6) 0.0355(12) 0.000 0.000 0.000
Ga1 0.0126(9) 0.0112(9) 0.0089(2) 0.000 0.000 0.000
Ga2 0.0121(5) 0.0121(5) 0.0308(10) 0.000 0.000 0.000
loop_
_atom_type_symbol
_atom_type_description
_atom_type_scat_dispersion_real
_atom_type_scat_dispersion_imag
_atom_type_scat_source
Cu Cu 0.3201 1.2651 'International Tables Vol C Tables 4.2.6.8 and 6.1.1.4'
Ga Ga 0.2307 1.6083 'International Tables Vol C Tables 4.2.6.8 and 6.1.1.4'
Nd Nd -0.1943 3.0179 'International Tables Vol C Tables 4.2.6.8 and 6.1.1.4'
loop_
_geom_angle_atom_site_label_1
_geom_angle_atom_site_label_2
_geom_angle_atom_site_label_3
_geom_angle
_geom_angle_site_symmetry_1
_geom_angle_site_symmetry_3
Cu Nd Cu 137.0(2) 1_445 .
Cu Nd Cu 82.29(8) 1_445 1_455
Cu Nd Cu 82.29(8) . 1_455
Cu Nd Cu 82.29(8) 1_445 1_545
Cu Nd Cu 82.29(8) . 1_545
Cu Nd Cu 137.0(2) 1_455 1_545
Cu Nd Ga2 179.6(2) 1_445 .
Cu Nd Ga2 43.38(4) . .
Cu Nd Ga2 97.849(15) 1_455 .
Cu Nd Ga2 97.849(15) 1_545 .
Cu Nd Ga2 43.38(4) 1_445 1_445
Cu Nd Ga2 179.6(2) . 1_445
Cu Nd Ga2 97.849(15) 1_455 1_445
Cu Nd Ga2 97.849(15) 1_545 1_445
Ga2 Nd Ga2 136.2(2) . 1_445
Cu Nd Ga2 97.849(15) 1_445 1_455
Cu Nd Ga2 97.849(15) . 1_455
Cu Nd Ga2 43.38(4) 1_455 1_455
Cu Nd Ga2 179.6(2) 1_545 1_455
Ga2 Nd Ga2 82.01(7) . 1_455
Ga2 Nd Ga2 82.01(7) 1_445 1_455
Cu Nd Ga2 97.849(15) 1_445 1_545
Cu Nd Ga2 97.849(15) . 1_545
Cu Nd Ga2 179.6(2) 1_455 1_545
Cu Nd Ga2 43.38(4) 1_545 1_545
Ga2 Nd Ga2 82.01(7) . 1_545
Ga2 Nd Ga2 82.01(7) 1_445 1_545
Ga2 Nd Ga2 136.2(2) 1_455 1_545
Cu Nd Ga1 45.62(10) 1_445 1_454
Cu Nd Ga1 97.53(9) . 1_454
Cu Nd Ga1 45.62(10) 1_455 1_454
Cu Nd Ga1 97.53(9) 1_545 1_454
Ga2 Nd Ga1 134.69(7) . 1_454
Ga2 Nd Ga1 82.83(10) 1_445 1_454
Ga2 Nd Ga1 82.83(10) 1_455 1_454
Ga2 Nd Ga1 134.69(7) 1_545 1_454
Cu Nd Ga1 45.62(10) 1_445 3_544
Cu Nd Ga1 97.53(9) . 3_544
Cu Nd Ga1 97.53(9) 1_455 3_544
Cu Nd Ga1 45.62(10) 1_545 3_544
Ga2 Nd Ga1 134.69(7) . 3_544
Ga2 Nd Ga1 82.83(10) 1_445 3_544
Ga2 Nd Ga1 134.69(7) 1_455 3_544
Ga2 Nd Ga1 82.83(10) 1_545 3_544
Ga1 Nd Ga1 53.00(2) 1_454 3_544
Cu Nd Ga1 97.53(9) 1_445 1_554
Cu Nd Ga1 45.62(10) . 1_554
Cu Nd Ga1 97.53(9) 1_455 1_554
Cu Nd Ga1 45.62(10) 1_545 1_554
Ga2 Nd Ga1 82.83(10) . 1_554
Ga2 Nd Ga1 134.69(7) 1_445 1_554
Ga2 Nd Ga1 134.69(7) 1_455 1_554
Ga2 Nd Ga1 82.83(10) 1_545 1_554
Ga1 Nd Ga1 78.25(4) 1_454 1_554
Ga1 Nd Ga1 53.00(2) 3_544 1_554
Cu Nd Ga1 97.53(9) 1_445 3_554
Cu Nd Ga1 45.62(10) . 3_554
Cu Nd Ga1 45.62(10) 1_455 3_554
Cu Nd Ga1 97.53(9) 1_545 3_554
Ga2 Nd Ga1 82.83(10) . 3_554
Ga2 Nd Ga1 134.69(7) 1_445 3_554
Ga2 Nd Ga1 82.83(10) 1_455 3_554
Ga2 Nd Ga1 134.69(7) 1_545 3_554
Ga1 Nd Ga1 53.00(2) 1_454 3_554
Ga1 Nd Ga1 78.25(4) 3_544 3_554
Ga1 Nd Ga1 53.00(2) 1_554 3_554
Ga2 Cu Ga1 123.93(16) . 3_554
Ga2 Cu Ga1 123.93(16) . 1_554
Ga1 Cu Ga1 71.85(16) 3_554 1_554
Ga2 Cu Ga1 123.93(16) . 3_654
Ga1 Cu Ga1 112.1(3) 3_554 3_654
Ga1 Cu Ga1 71.85(16) 1_554 3_654
Ga2 Cu Ga1 123.93(16) . 1_564
Ga1 Cu Ga1 71.85(16) 3_554 1_564
Ga1 Cu Ga1 112.1(3) 1_554 1_564
Ga1 Cu Ga1 71.85(16) 3_654 1_564
Ga2 Cu Nd 68.51(12) . 1_665
Ga1 Cu Nd 138.63(7) 3_554 1_665
Ga1 Cu Nd 138.63(7) 1_554 1_665
Ga1 Cu Nd 70.03(3) 3_654 1_665
Ga1 Cu Nd 70.03(3) 1_564 1_665
Ga2 Cu Nd 68.51(12) . .
Ga1 Cu Nd 70.03(3) 3_554 .
Ga1 Cu Nd 70.03(3) 1_554 .
Ga1 Cu Nd 138.63(7) 3_654 .
Ga1 Cu Nd 138.63(7) 1_564 .
Nd Cu Nd 137.0(2) 1_665 .
Ga2 Cu Nd 68.51(12) . 1_565
Ga1 Cu Nd 70.03(3) 3_554 1_565
Ga1 Cu Nd 138.63(7) 1_554 1_565
Ga1 Cu Nd 138.63(7) 3_654 1_565
Ga1 Cu Nd 70.03(3) 1_564 1_565
Nd Cu Nd 82.29(8) 1_665 1_565
Nd Cu Nd 82.29(8) . 1_565
Ga2 Cu Nd 68.51(12) . 1_655
Ga1 Cu Nd 138.63(7) 3_554 1_655
Ga1 Cu Nd 70.03(3) 1_554 1_655
Ga1 Cu Nd 70.03(3) 3_654 1_655
Ga1 Cu Nd 138.63(7) 1_564 1_655
Nd Cu Nd 82.29(8) 1_665 1_655
Nd Cu Nd 82.29(8) . 1_655
Nd Cu Nd 137.0(2) 1_565 1_655
Cu Ga1 Cu 112.1(3) 1_556 1_546
Cu Ga1 Ga2 108.31(2) 1_556 9_445
Cu Ga1 Ga2 108.31(2) 1_546 9_445
Cu Ga1 Ga2 108.31(2) 1_556 9_545
Cu Ga1 Ga2 108.31(2) 1_546 9_545
Ga2 Ga1 Ga2 111.5(3) 9_445 9_545
Cu Ga1 Ga1 54.07(8) 1_556 3_655
Cu Ga1 Ga1 125.93(8) 1_546 3_655
Ga2 Ga1 Ga1 125.76(7) 9_445 3_655
Ga2 Ga1 Ga1 54.24(7) 9_545 3_655
Cu Ga1 Ga1 125.93(8) 1_556 3_545
Cu Ga1 Ga1 54.07(8) 1_546 3_545
Ga2 Ga1 Ga1 54.24(7) 9_445 3_545
Ga2 Ga1 Ga1 125.76(7) 9_545 3_545
Ga1 Ga1 Ga1 180.0 3_655 3_545
Cu Ga1 Ga1 54.07(8) 1_556 3
Cu Ga1 Ga1 125.93(8) 1_546 3
Ga2 Ga1 Ga1 54.24(7) 9_445 3
Ga2 Ga1 Ga1 125.76(7) 9_545 3
Ga1 Ga1 Ga1 90.0 3_655 3
Ga1 Ga1 Ga1 90.0 3_545 3
Cu Ga1 Ga1 125.93(8) 1_556 3_645
Cu Ga1 Ga1 54.07(8) 1_546 3_645
Ga2 Ga1 Ga1 125.76(7) 9_445 3_645
Ga2 Ga1 Ga1 54.24(7) 9_545 3_645
Ga1 Ga1 Ga1 90.0 3_655 3_645
Ga1 Ga1 Ga1 90.0 3_545 3_645
Ga1 Ga1 Ga1 180.0 3 3_645
Cu Ga1 Nd 64.34(12) 1_556 1_656
Cu Ga1 Nd 64.34(12) 1_546 1_656
Ga2 Ga1 Nd 163.38(16) 9_445 1_656
Ga2 Ga1 Nd 85.13(13) 9_545 1_656
Ga1 Ga1 Nd 63.500(12) 3_655 1_656
Ga1 Ga1 Nd 116.500(12) 3_545 1_656
Ga1 Ga1 Nd 116.500(12) 3 1_656
Ga1 Ga1 Nd 63.500(12) 3_645 1_656
Cu Ga1 Nd 64.34(12) 1_556 1_556
Cu Ga1 Nd 64.34(12) 1_546 1_556
Ga2 Ga1 Nd 85.13(13) 9_445 1_556
Ga2 Ga1 Nd 163.38(16) 9_545 1_556
Ga1 Ga1 Nd 116.500(12) 3_655 1_556
Ga1 Ga1 Nd 63.500(12) 3_545 1_556
Ga1 Ga1 Nd 63.500(12) 3 1_556
Ga1 Ga1 Nd 116.500(12) 3_645 1_556
Nd Ga1 Nd 78.25(4) 1_656 1_556
Cu Ga1 Nd 162.60(18) 1_556 9_545
Cu Ga1 Nd 85.25(14) 1_546 9_545
Ga2 Ga1 Nd 63.93(11) 9_445 9_545
Ga2 Ga1 Nd 63.93(11) 9_545 9_545
Ga1 Ga1 Nd 116.225(12) 3_655 9_545
Ga1 Ga1 Nd 63.775(12) 3_545 9_545
Ga1 Ga1 Nd 116.225(12) 3 9_545
Ga1 Ga1 Nd 63.775(12) 3_645 9_545
Nd Ga1 Nd 127.274(3) 1_656 9_545
Nd Ga1 Nd 127.274(4) 1_556 9_545
Cu Ga1 Nd 85.25(14) 1_556 9
Cu Ga1 Nd 162.60(18) 1_546 9
Ga2 Ga1 Nd 63.93(11) 9_445 9
Ga2 Ga1 Nd 63.93(11) 9_545 9
Ga1 Ga1 Nd 63.775(12) 3_655 9
Ga1 Ga1 Nd 116.225(12) 3_545 9
Ga1 Ga1 Nd 63.775(12) 3 9
Ga1 Ga1 Nd 116.225(12) 3_645 9
Nd Ga1 Nd 127.274(4) 1_656 9
Nd Ga1 Nd 127.274(4) 1_556 9
Nd Ga1 Nd 77.36(4) 9_545 9
Cu Ga2 Ga1 124.26(14) . 11_554
Cu Ga2 Ga1 124.26(14) . 9_554
Ga1 Ga2 Ga1 71.53(14) 11_554 9_554
Cu Ga2 Ga1 124.26(14) . 11_544
Ga1 Ga2 Ga1 111.5(3) 11_554 11_544
Ga1 Ga2 Ga1 71.53(14) 9_554 11_544
Cu Ga2 Ga1 124.26(14) . 9_454
Ga1 Ga2 Ga1 71.53(14) 11_554 9_454
Ga1 Ga2 Ga1 111.5(3) 9_554 9_454
Ga1 Ga2 Ga1 71.53(14) 11_544 9_454
Cu Ga2 Nd 68.11(10) . .
Ga1 Ga2 Nd 138.78(6) 11_554 .
Ga1 Ga2 Nd 138.78(6) 9_554 .
Ga1 Ga2 Nd 70.58(3) 11_544 .
Ga1 Ga2 Nd 70.58(3) 9_454 .
Cu Ga2 Nd 68.11(10) . 1_665
Ga1 Ga2 Nd 70.58(3) 11_554 1_665
Ga1 Ga2 Nd 70.58(3) 9_554 1_665
Ga1 Ga2 Nd 138.78(6) 11_544 1_665
Ga1 Ga2 Nd 138.78(6) 9_454 1_665
Nd Ga2 Nd 136.2(2) . 1_665
Cu Ga2 Nd 68.11(10) . 1_655
Ga1 Ga2 Nd 138.78(6) 11_554 1_655
Ga1 Ga2 Nd 70.58(3) 9_554 1_655
Ga1 Ga2 Nd 70.58(3) 11_544 1_655
Ga1 Ga2 Nd 138.78(6) 9_454 1_655
Nd Ga2 Nd 82.01(7) . 1_655
Nd Ga2 Nd 82.01(7) 1_665 1_655
Cu Ga2 Nd 68.11(10) . 1_565
Ga1 Ga2 Nd 70.58(3) 11_554 1_565
Ga1 Ga2 Nd 138.78(6) 9_554 1_565
Ga1 Ga2 Nd 138.78(6) 11_544 1_565
Ga1 Ga2 Nd 70.58(3) 9_454 1_565
Nd Ga2 Nd 82.01(7) . 1_565
Nd Ga2 Nd 82.01(7) 1_665 1_565
Nd Ga2 Nd 136.2(2) 1_655 1_565
loop_
_geom_bond_atom_site_label_1
_geom_bond_atom_site_label_2
_geom_bond_distance
_geom_bond_site_symmetry_2
Nd Cu 3.193(3) 1_445
Nd Cu 3.193(3) .
Nd Cu 3.193(3) 1_455
Nd Cu 3.193(3) 1_545
Nd Ga2 3.202(2) .
Nd Ga2 3.202(2) 1_445
Nd Ga2 3.202(2) 1_455
Nd Ga2 3.202(2) 1_545
Nd Ga1 3.3296(14) 1_454
Nd Ga1 3.3296(14) 3_544
Nd Ga1 3.3296(14) 1_554
Nd Ga1 3.3296(14) 3_554
Cu Ga2 2.363(3) .
Cu Ga1 2.532(5) 3_554
Cu Ga1 2.532(5) 1_554
Cu Ga1 2.532(5) 3_654
Cu Ga1 2.532(5) 1_564
Cu Nd 3.193(3) 1_665
Cu Nd 3.193(3) 1_565
Cu Nd 3.193(3) 1_655
Ga1 Cu 2.532(5) 1_556
Ga1 Cu 2.532(5) 1_546
Ga1 Ga2 2.542(4) 9_445
Ga1 Ga2 2.542(4) 9_545
Ga1 Ga1 2.9713(2) 3_655
Ga1 Ga1 2.9713(2) 3_545
Ga1 Ga1 2.9713(2) 3
Ga1 Ga1 2.9713(2) 3_645
Ga1 Nd 3.3296(14) 1_656
Ga1 Nd 3.3296(14) 1_556
Ga1 Nd 3.3619(14) 9_545
Ga1 Nd 3.3619(14) 9
Ga2 Ga1 2.542(4) 11_554
Ga2 Ga1 2.542(4) 9_554
Ga2 Ga1 2.542(4) 11_544
Ga2 Ga1 2.542(4) 9_454
Ga2 Nd 3.202(2) 1_665
Ga2 Nd 3.202(2) 1_655
Ga2 Nd 3.202(2) 1_565
