#------------------------------------------------------------------------------
#$Date: 2015-10-06 14:36:59 +0300 (Tue, 06 Oct 2015) $
#$Revision: 160482 $
#$URL: svn://www.crystallography.net/cod/cif/4/34/41/4344105.cif $
#------------------------------------------------------------------------------
#
# This file is available in the Crystallography Open Database (COD),
# http://www.crystallography.net/
#
# All data on this site have been placed in the public domain by the
# contributors.
#
data_4344105
loop_
_publ_author_name
'Doverbratt, Isa'
'Ponou, Sim\'eon'
'Wang, Fei'
'Lidin, Sven'
_publ_section_title
;
 Synthesis, Crystal Structure, and Bonding Analysis of the Hypoelectronic
 Cubic Phase Ca5Pd6Ge6.
;
_journal_issue                   18
_journal_name_full               'Inorganic chemistry'
_journal_page_first              9098
_journal_page_last               9104
_journal_paper_doi               10.1021/acs.inorgchem.5b01528
_journal_volume                  54
_journal_year                    2015
_chemical_formula_sum            'Ca5 Ge6 Pd6'
_chemical_formula_weight         1274.4
_chemical_name_systematic        ' ?'
_space_group_IT_number           229
_symmetry_cell_setting           cubic
_symmetry_Int_Tables_number      229
_symmetry_space_group_name_Hall  '-I 4 2 3'
_symmetry_space_group_name_H-M   'I m -3 m'
_cell_angle_alpha                90
_cell_angle_beta                 90
_cell_angle_gamma                90
_cell_formula_units_Z            2
_cell_length_a                   8.7764(4)
_cell_length_b                   8.7764(4)
_cell_length_c                   8.7764(4)
_cell_measurement_reflns_used    4757
_cell_measurement_temperature    293
_cell_measurement_theta_max      28.79
_cell_measurement_theta_min      3.28
_cell_volume                     676.00(5)
_computing_cell_refinement
;
CrysAlisPro, Agilent Technologies,
Version 1.171.35.19 (release 27-10-2011 CrysAlis171 .NET)
(compiled Oct 27 2011,15:02:11)
;
_computing_data_collection
;
CrysAlisPro, Agilent Technologies,
Version 1.171.35.19 (release 27-10-2011 CrysAlis171 .NET)
(compiled Oct 27 2011,15:02:11)
;
_computing_data_reduction
;
CrysAlisPro, Agilent Technologies,
Version 1.171.35.19 (release 27-10-2011 CrysAlis171 .NET)
(compiled Oct 27 2011,15:02:11)
;
_diffrn_ambient_temperature      293
_diffrn_detector_area_resol_mean 16.1367
_diffrn_measured_fraction_theta_full 1
_diffrn_measured_fraction_theta_max 1
_diffrn_measurement_device       'four-circle diffractometer'
_diffrn_measurement_device_type  'Xcalibur, Eos'
_diffrn_measurement_method       '\w scans'
_diffrn_radiation_monochromator  graphite
_diffrn_radiation_probe          x-ray
_diffrn_radiation_source         'Enhance (Mo) X-ray Source'
_diffrn_radiation_type           'Mo K\a'
_diffrn_radiation_wavelength     0.7107
_diffrn_reflns_av_R_equivalents  0.0895
_diffrn_reflns_av_unetI/netI     0.0114
_diffrn_reflns_limit_h_max       11
_diffrn_reflns_limit_h_min       -11
_diffrn_reflns_limit_k_max       11
_diffrn_reflns_limit_k_min       -11
_diffrn_reflns_limit_l_max       11
_diffrn_reflns_limit_l_min       -11
_diffrn_reflns_number            7896
_diffrn_reflns_theta_full        28.85
_diffrn_reflns_theta_max         28.85
_diffrn_reflns_theta_min         3.28
_exptl_absorpt_coefficient_mu    22.76
_exptl_absorpt_correction_T_max  0.841
_exptl_absorpt_correction_T_min  0.464
_exptl_absorpt_correction_type   analytical
_exptl_absorpt_process_details
;
CrysAlisPro, Agilent Technologies,
Version 1.171.35.19 (release 27-10-2011 CrysAlis171 .NET)
(compiled Oct 27 2011,15:02:11)
Analytical numeric absorption correction using a multifaceted crystal
            model based on expressions derived by R.C. Clark & J.S. Reid.
(Clark, R. C. & Reid, J. S. (1995). Acta Cryst. A51, 887-897)
;
_exptl_crystal_colour            'Metallic dark grey'
_exptl_crystal_density_diffrn    6.2606
_exptl_crystal_description       Block
_exptl_crystal_F_000             1136
_exptl_crystal_size_max          0.06
_exptl_crystal_size_mid          0.035
_exptl_crystal_size_min          0.011
_refine_diff_density_max         0.95
_refine_diff_density_min         -1.45
_refine_ls_extinction_coef       490(40)
_refine_ls_extinction_method
'B-C type 1 Gaussian isotropic (Becker & Coppens, 1974)'
_refine_ls_goodness_of_fit_gt    1.82
_refine_ls_goodness_of_fit_ref   1.80
_refine_ls_number_constraints    0
_refine_ls_number_parameters     10
_refine_ls_number_reflns         112
_refine_ls_number_restraints     0
_refine_ls_R_factor_all          0.0160
_refine_ls_R_factor_gt           0.0158
_refine_ls_shift/su_max          0.0405
_refine_ls_shift/su_mean         0.0161
_refine_ls_structure_factor_coef Fsqd
_refine_ls_weighting_details     w=1/(\s^2^(I)+0.0004I^2^)
_refine_ls_weighting_scheme      sigma
_refine_ls_wR_factor_gt          0.0476
_refine_ls_wR_factor_ref         0.0478
_reflns_number_gt                110
_reflns_number_total             112
_reflns_threshold_expression     I>3\s(I)
_cod_data_source_file            ic5b01528_si_001.cif
_cod_data_source_block           I
_cod_depositor_comments
;
The following automatic conversions were performed:

'_diffrn_radiation_probe' value 'X-ray' changed to 'x-ray' according
to
/usr/data/users/saulius/crontab/automatic-downloads/rss-feeds/ACS/lib/dictionaries/cif_core.dic
dictionary named 'cif_core.dic' version 2.4.2 from 2011-04-26.

Automatic conversion script
Id: cif_fix_values 3271 2015-04-21 07:52:19Z andrius 

 Adding full bibliography for 4344105.cif.
;
_cod_database_code               4344105
loop_
_space_group_symop_id
_space_group_symop_operation_xyz
1 x,y,z
2 -x,-y,z
3 -x,y,-z
4 x,-y,-z
5 z,x,y
6 z,-x,-y
7 -z,-x,y
8 -z,x,-y
9 y,z,x
10 -y,z,-x
11 y,-z,-x
12 -y,-z,x
13 y,x,-z
14 -y,-x,-z
15 y,-x,z
16 -y,x,z
17 x,z,-y
18 -x,z,y
19 -x,-z,-y
20 x,-z,y
21 z,y,-x
22 z,-y,x
23 -z,y,x
24 -z,-y,-x
25 -x,-y,-z
26 x,y,-z
27 x,-y,z
28 -x,y,z
29 -z,-x,-y
30 -z,x,y
31 z,x,-y
32 z,-x,y
33 -y,-z,-x
34 y,-z,x
35 -y,z,x
36 y,z,-x
37 -y,-x,z
38 y,x,z
39 -y,x,-z
40 y,-x,-z
41 -x,-z,y
42 x,-z,-y
43 x,z,y
44 -x,z,-y
45 -z,-y,x
46 -z,y,-x
47 z,-y,-x
48 z,y,x
49 x+1/2,y+1/2,z+1/2
50 -x+1/2,-y+1/2,z+1/2
51 -x+1/2,y+1/2,-z+1/2
52 x+1/2,-y+1/2,-z+1/2
53 z+1/2,x+1/2,y+1/2
54 z+1/2,-x+1/2,-y+1/2
55 -z+1/2,-x+1/2,y+1/2
56 -z+1/2,x+1/2,-y+1/2
57 y+1/2,z+1/2,x+1/2
58 -y+1/2,z+1/2,-x+1/2
59 y+1/2,-z+1/2,-x+1/2
60 -y+1/2,-z+1/2,x+1/2
61 y+1/2,x+1/2,-z+1/2
62 -y+1/2,-x+1/2,-z+1/2
63 y+1/2,-x+1/2,z+1/2
64 -y+1/2,x+1/2,z+1/2
65 x+1/2,z+1/2,-y+1/2
66 -x+1/2,z+1/2,y+1/2
67 -x+1/2,-z+1/2,-y+1/2
68 x+1/2,-z+1/2,y+1/2
69 z+1/2,y+1/2,-x+1/2
70 z+1/2,-y+1/2,x+1/2
71 -z+1/2,y+1/2,x+1/2
72 -z+1/2,-y+1/2,-x+1/2
73 -x+1/2,-y+1/2,-z+1/2
74 x+1/2,y+1/2,-z+1/2
75 x+1/2,-y+1/2,z+1/2
76 -x+1/2,y+1/2,z+1/2
77 -z+1/2,-x+1/2,-y+1/2
78 -z+1/2,x+1/2,y+1/2
79 z+1/2,x+1/2,-y+1/2
80 z+1/2,-x+1/2,y+1/2
81 -y+1/2,-z+1/2,-x+1/2
82 y+1/2,-z+1/2,x+1/2
83 -y+1/2,z+1/2,x+1/2
84 y+1/2,z+1/2,-x+1/2
85 -y+1/2,-x+1/2,z+1/2
86 y+1/2,x+1/2,z+1/2
87 -y+1/2,x+1/2,-z+1/2
88 y+1/2,-x+1/2,-z+1/2
89 -x+1/2,-z+1/2,y+1/2
90 x+1/2,-z+1/2,-y+1/2
91 x+1/2,z+1/2,y+1/2
92 -x+1/2,z+1/2,-y+1/2
93 -z+1/2,-y+1/2,x+1/2
94 -z+1/2,y+1/2,-x+1/2
95 z+1/2,-y+1/2,-x+1/2
96 z+1/2,y+1/2,x+1/2
loop_
_atom_site_label
_atom_site_type_symbol
_atom_site_fract_x
_atom_site_fract_y
_atom_site_fract_z
_atom_site_adp_type
_atom_site_U_iso_or_equiv
_atom_site_site_symmetry_multiplicity
_atom_site_occupancy
_atom_site_calc_flag
Pd1 Pd 0.5 0.25 0 Uani 0.00884(19) 12 1 d
Ge1 Ge 0.34880(9) 0 0 Uani 0.0085(2) 12 1 d
Ca1 Ca 0 0 0 Uani 0.0102(5) 2 1 d
Ca2 Ca 0.25 0.25 0.25 Uani 0.0106(3) 8 1 d
loop_
_atom_site_aniso_label
_atom_site_aniso_type_symbol
_atom_site_aniso_U_11
_atom_site_aniso_U_22
_atom_site_aniso_U_33
_atom_site_aniso_U_12
_atom_site_aniso_U_13
_atom_site_aniso_U_23
Pd1 Pd 0.0099(3) 0.0067(3) 0.0099(3) 0 0 0
Ge1 Ge 0.0076(5) 0.0090(3) 0.0090(3) 0 0 0
Ca1 Ca 0.0102(8) 0.0102(8) 0.0102(8) 0 0 0
Ca2 Ca 0.0106(4) 0.0106(4) 0.0106(4) 0.0013(4) 0.0013(4) 0.0013(4)
loop_
_atom_type_symbol
_atom_type_scat_dispersion_real
_atom_type_scat_dispersion_imag
_atom_type_scat_source
Ca 0.2262 0.3064 'International Tables Vol C tables 4.2.6.8 and 6.1.1.1'
Ge 0.1547 1.8001 'International Tables Vol C tables 4.2.6.8 and 6.1.1.1'
Pd -0.9988 1.0072 'International Tables Vol C tables 4.2.6.8 and 6.1.1.1'
loop_
_geom_angle_atom_site_label_1
_geom_angle_atom_site_label_2
_geom_angle_atom_site_label_3
_geom_angle_site_symmetry_1
_geom_angle_site_symmetry_3
_geom_angle
Ge1 Pd1 Ge1 . 2_655 62.33(2)
Ge1 Pd1 Ge1 . 57_554 137.070(14)
Ge1 Pd1 Ge1 . 58_555 137.070(14)
Ge1 Pd1 Ca2 . . 68.535(10)
Ge1 Pd1 Ca2 . 50_554 68.535(10)
Ge1 Pd1 Ca2 . 3_655 111.465(10)
Ge1 Pd1 Ca2 . 52_555 111.465(10)
Ge1 Pd1 Ge1 2_655 57_554 137.070(14)
Ge1 Pd1 Ge1 2_655 58_555 137.070(14)
Ge1 Pd1 Ca2 2_655 . 111.465(10)
Ge1 Pd1 Ca2 2_655 50_554 111.465(10)
Ge1 Pd1 Ca2 2_655 3_655 68.535(10)
Ge1 Pd1 Ca2 2_655 52_555 68.535(10)
Ge1 Pd1 Ge1 57_554 58_555 62.33(2)
Ge1 Pd1 Ca2 57_554 . 111.465(10)
Ge1 Pd1 Ca2 57_554 50_554 68.535(10)
Ge1 Pd1 Ca2 57_554 3_655 68.535(10)
Ge1 Pd1 Ca2 57_554 52_555 111.465(10)
Ge1 Pd1 Ca2 58_555 . 68.535(10)
Ge1 Pd1 Ca2 58_555 50_554 111.465(10)
Ge1 Pd1 Ca2 58_555 3_655 111.465(10)
Ge1 Pd1 Ca2 58_555 52_555 68.535(10)
Ca2 Pd1 Ca2 . 50_554 90.000(4)
Ca2 Pd1 Ca2 . 3_655 180.0(5)
Ca2 Pd1 Ca2 . 52_555 90.000(4)
Ca2 Pd1 Ca2 50_554 3_655 90.000(4)
Ca2 Pd1 Ca2 50_554 52_555 180.0(5)
Ca2 Pd1 Ca2 3_655 52_555 90.000(4)
Pd1 Ge1 Pd1 . 2_655 117.67(3)
Pd1 Ge1 Pd1 . 53_544 74.465(14)
Pd1 Ge1 Pd1 . 54_555 74.465(14)
Pd1 Ge1 Ca1 . . 121.166(16)
Pd1 Ge1 Ca2 . . 63.676(2)
Pd1 Ge1 Ca2 . 50_554 63.676(2)
Pd1 Ge1 Ca2 . 51_545 136.221(10)
Pd1 Ge1 Ca2 . 4_555 136.221(10)
Pd1 Ge1 Pd1 2_655 53_544 74.465(14)
Pd1 Ge1 Pd1 2_655 54_555 74.465(14)
Pd1 Ge1 Ca1 2_655 . 121.166(16)
Pd1 Ge1 Ca2 2_655 . 136.221(10)
Pd1 Ge1 Ca2 2_655 50_554 136.221(10)
Pd1 Ge1 Ca2 2_655 51_545 63.676(2)
Pd1 Ge1 Ca2 2_655 4_555 63.676(2)
Pd1 Ge1 Pd1 53_544 54_555 117.67(3)
Pd1 Ge1 Ca1 53_544 . 121.166(16)
Pd1 Ge1 Ca2 53_544 . 136.221(10)
Pd1 Ge1 Ca2 53_544 50_554 63.676(2)
Pd1 Ge1 Ca2 53_544 51_545 136.221(10)
Pd1 Ge1 Ca2 53_544 4_555 63.676(2)
Pd1 Ge1 Ca1 54_555 . 121.166(16)
Pd1 Ge1 Ca2 54_555 . 63.676(2)
Pd1 Ge1 Ca2 54_555 50_554 136.221(10)
Pd1 Ge1 Ca2 54_555 51_545 63.676(2)
Pd1 Ge1 Ca2 54_555 4_555 136.221(10)
Ca1 Ge1 Ca2 . . 74.387(14)
Ca1 Ge1 Ca2 . 50_554 74.387(14)
Ca1 Ge1 Ca2 . 51_545 74.387(14)
Ca1 Ge1 Ca2 . 4_555 74.387(14)
Ca2 Ge1 Ca2 . 50_554 85.846(8)
Ca2 Ge1 Ca2 . 51_545 85.846(8)
Ca2 Ge1 Ca2 . 4_555 148.77(3)
Ca2 Ge1 Ca2 50_554 51_545 148.77(3)
Ca2 Ge1 Ca2 50_554 4_555 85.846(8)
Ca2 Ge1 Ca2 51_545 4_555 85.846(8)
Ge1 Ca1 Ge1 . 2_555 180.0(5)
Ge1 Ca1 Ge1 . 5_555 90
Ge1 Ca1 Ge1 . 6_555 90
Ge1 Ca1 Ge1 . 9_555 90
Ge1 Ca1 Ge1 . 10_555 90
Ge1 Ca1 Ca2 . . 54.7356(15)
Ge1 Ca1 Ca2 . 49_444 125.2644(15)
Ge1 Ca1 Ca2 . 2_555 125.2644(15)
Ge1 Ca1 Ca2 . 50_554 54.7356(15)
Ge1 Ca1 Ca2 . 3_555 125.2644(15)
Ge1 Ca1 Ca2 . 51_545 54.7356(15)
Ge1 Ca1 Ca2 . 4_555 54.7356(15)
Ge1 Ca1 Ca2 . 52_455 125.2644(15)
Ge1 Ca1 Ge1 2_555 5_555 90
Ge1 Ca1 Ge1 2_555 6_555 90
Ge1 Ca1 Ge1 2_555 9_555 90
Ge1 Ca1 Ge1 2_555 10_555 90
Ge1 Ca1 Ca2 2_555 . 125.2644(15)
Ge1 Ca1 Ca2 2_555 49_444 54.7356(15)
Ge1 Ca1 Ca2 2_555 2_555 54.7356(15)
Ge1 Ca1 Ca2 2_555 50_554 125.2644(15)
Ge1 Ca1 Ca2 2_555 3_555 54.7356(15)
Ge1 Ca1 Ca2 2_555 51_545 125.2644(15)
Ge1 Ca1 Ca2 2_555 4_555 125.2644(15)
Ge1 Ca1 Ca2 2_555 52_455 54.7356(15)
Ge1 Ca1 Ge1 5_555 6_555 180.0(5)
Ge1 Ca1 Ge1 5_555 9_555 90
Ge1 Ca1 Ge1 5_555 10_555 90
Ge1 Ca1 Ca2 5_555 . 54.7356(15)
Ge1 Ca1 Ca2 5_555 49_444 125.2644(15)
Ge1 Ca1 Ca2 5_555 2_555 125.2644(15)
Ge1 Ca1 Ca2 5_555 50_554 54.7356(15)
Ge1 Ca1 Ca2 5_555 3_555 54.7356(15)
Ge1 Ca1 Ca2 5_555 51_545 125.2644(15)
Ge1 Ca1 Ca2 5_555 4_555 125.2644(15)
Ge1 Ca1 Ca2 5_555 52_455 54.7356(15)
Ge1 Ca1 Ge1 6_555 9_555 90
Ge1 Ca1 Ge1 6_555 10_555 90
Ge1 Ca1 Ca2 6_555 . 125.2644(15)
Ge1 Ca1 Ca2 6_555 49_444 54.7356(15)
Ge1 Ca1 Ca2 6_555 2_555 54.7356(15)
Ge1 Ca1 Ca2 6_555 50_554 125.2644(15)
Ge1 Ca1 Ca2 6_555 3_555 125.2644(15)
Ge1 Ca1 Ca2 6_555 51_545 54.7356(15)
Ge1 Ca1 Ca2 6_555 4_555 54.7356(15)
Ge1 Ca1 Ca2 6_555 52_455 125.2644(15)
Ge1 Ca1 Ge1 9_555 10_555 180.0(5)
Ge1 Ca1 Ca2 9_555 . 54.7356(15)
Ge1 Ca1 Ca2 9_555 49_444 125.2644(15)
Ge1 Ca1 Ca2 9_555 2_555 54.7356(15)
Ge1 Ca1 Ca2 9_555 50_554 125.2644(15)
Ge1 Ca1 Ca2 9_555 3_555 125.2644(15)
Ge1 Ca1 Ca2 9_555 51_545 54.7356(15)
Ge1 Ca1 Ca2 9_555 4_555 125.2644(15)
Ge1 Ca1 Ca2 9_555 52_455 54.7356(15)
Ge1 Ca1 Ca2 10_555 . 125.2644(15)
Ge1 Ca1 Ca2 10_555 49_444 54.7356(15)
Ge1 Ca1 Ca2 10_555 2_555 125.2644(15)
Ge1 Ca1 Ca2 10_555 50_554 54.7356(15)
Ge1 Ca1 Ca2 10_555 3_555 54.7356(15)
Ge1 Ca1 Ca2 10_555 51_545 125.2644(15)
Ge1 Ca1 Ca2 10_555 4_555 54.7356(15)
Ge1 Ca1 Ca2 10_555 52_455 125.2644(15)
Ca2 Ca1 Ca2 . 49_444 180.0(5)
Ca2 Ca1 Ca2 . 2_555 109.471(3)
Ca2 Ca1 Ca2 . 50_554 70.529(3)
Ca2 Ca1 Ca2 . 3_555 109.471(3)
Ca2 Ca1 Ca2 . 51_545 70.529(3)
Ca2 Ca1 Ca2 . 4_555 109.471(3)
Ca2 Ca1 Ca2 . 52_455 70.529(3)
Ca2 Ca1 Ca2 49_444 2_555 70.529(3)
Ca2 Ca1 Ca2 49_444 50_554 109.471(3)
Ca2 Ca1 Ca2 49_444 3_555 70.529(3)
Ca2 Ca1 Ca2 49_444 51_545 109.471(3)
Ca2 Ca1 Ca2 49_444 4_555 70.529(3)
Ca2 Ca1 Ca2 49_444 52_455 109.471(3)
Ca2 Ca1 Ca2 2_555 50_554 180.0(5)
Ca2 Ca1 Ca2 2_555 3_555 109.471(3)
Ca2 Ca1 Ca2 2_555 51_545 70.529(3)
Ca2 Ca1 Ca2 2_555 4_555 109.471(3)
Ca2 Ca1 Ca2 2_555 52_455 70.529(3)
Ca2 Ca1 Ca2 50_554 3_555 70.529(3)
Ca2 Ca1 Ca2 50_554 51_545 109.471(3)
Ca2 Ca1 Ca2 50_554 4_555 70.529(3)
Ca2 Ca1 Ca2 50_554 52_455 109.471(3)
Ca2 Ca1 Ca2 3_555 51_545 180.0(5)
Ca2 Ca1 Ca2 3_555 4_555 109.471(3)
Ca2 Ca1 Ca2 3_555 52_455 70.529(3)
Ca2 Ca1 Ca2 51_545 4_555 70.529(3)
Ca2 Ca1 Ca2 51_545 52_455 109.471(3)
Ca2 Ca1 Ca2 4_555 52_455 180.0(5)
Pd1 Ca2 Pd1 . 50_555 180.0(5)
Pd1 Ca2 Pd1 . 5_555 120.0000(18)
Pd1 Ca2 Pd1 . 54_555 60.0000(18)
Pd1 Ca2 Pd1 . 9_555 120.0000(18)
Pd1 Ca2 Pd1 . 58_555 60.0000(18)
Pd1 Ca2 Ge1 . . 47.789(10)
Pd1 Ca2 Ge1 . 50_555 132.211(10)
Pd1 Ca2 Ge1 . 5_555 90.000(4)
Pd1 Ca2 Ge1 . 54_555 90.000(4)
Pd1 Ca2 Ge1 . 9_555 132.211(10)
Pd1 Ca2 Ge1 . 58_555 47.789(10)
Pd1 Ca2 Ca1 . . 90.000(3)
Pd1 Ca2 Ca1 . 49_555 90.000(3)
Pd1 Ca2 Pd1 50_555 5_555 60.0000(18)
Pd1 Ca2 Pd1 50_555 54_555 120.0000(18)
Pd1 Ca2 Pd1 50_555 9_555 60.0000(18)
Pd1 Ca2 Pd1 50_555 58_555 120.0000(18)
Pd1 Ca2 Ge1 50_555 . 132.211(10)
Pd1 Ca2 Ge1 50_555 50_555 47.789(10)
Pd1 Ca2 Ge1 50_555 5_555 90.000(4)
Pd1 Ca2 Ge1 50_555 54_555 90.000(4)
Pd1 Ca2 Ge1 50_555 9_555 47.789(10)
Pd1 Ca2 Ge1 50_555 58_555 132.211(10)
Pd1 Ca2 Ca1 50_555 . 90.000(3)
Pd1 Ca2 Ca1 50_555 49_555 90.000(3)
Pd1 Ca2 Pd1 5_555 54_555 180.0(5)
Pd1 Ca2 Pd1 5_555 9_555 120.0000(18)
Pd1 Ca2 Pd1 5_555 58_555 60.0000(18)
Pd1 Ca2 Ge1 5_555 . 132.211(10)
Pd1 Ca2 Ge1 5_555 50_555 47.789(10)
Pd1 Ca2 Ge1 5_555 5_555 47.789(10)
Pd1 Ca2 Ge1 5_555 54_555 132.211(10)
Pd1 Ca2 Ge1 5_555 9_555 90.000(4)
Pd1 Ca2 Ge1 5_555 58_555 90.000(4)
Pd1 Ca2 Ca1 5_555 . 90.000(3)
Pd1 Ca2 Ca1 5_555 49_555 90.000(3)
Pd1 Ca2 Pd1 54_555 9_555 60.0000(18)
Pd1 Ca2 Pd1 54_555 58_555 120.0000(18)
Pd1 Ca2 Ge1 54_555 . 47.789(10)
Pd1 Ca2 Ge1 54_555 50_555 132.211(10)
Pd1 Ca2 Ge1 54_555 5_555 132.211(10)
Pd1 Ca2 Ge1 54_555 54_555 47.789(10)
Pd1 Ca2 Ge1 54_555 9_555 90.000(4)
Pd1 Ca2 Ge1 54_555 58_555 90.000(4)
Pd1 Ca2 Ca1 54_555 . 90.000(3)
Pd1 Ca2 Ca1 54_555 49_555 90.000(3)
Pd1 Ca2 Pd1 9_555 58_555 180.0(5)
Pd1 Ca2 Ge1 9_555 . 90.000(4)
Pd1 Ca2 Ge1 9_555 50_555 90.000(4)
Pd1 Ca2 Ge1 9_555 5_555 132.211(10)
Pd1 Ca2 Ge1 9_555 54_555 47.789(10)
Pd1 Ca2 Ge1 9_555 9_555 47.789(10)
Pd1 Ca2 Ge1 9_555 58_555 132.211(10)
Pd1 Ca2 Ca1 9_555 . 90.000(3)
Pd1 Ca2 Ca1 9_555 49_555 90.000(3)
Pd1 Ca2 Ge1 58_555 . 90.000(4)
Pd1 Ca2 Ge1 58_555 50_555 90.000(4)
Pd1 Ca2 Ge1 58_555 5_555 47.789(10)
Pd1 Ca2 Ge1 58_555 54_555 132.211(10)
Pd1 Ca2 Ge1 58_555 9_555 132.211(10)
Pd1 Ca2 Ge1 58_555 58_555 47.789(10)
Pd1 Ca2 Ca1 58_555 . 90.000(3)
Pd1 Ca2 Ca1 58_555 49_555 90.000(3)
Ge1 Ca2 Ge1 . 50_555 180.0(5)
Ge1 Ca2 Ge1 . 5_555 84.422(15)
Ge1 Ca2 Ge1 . 54_555 95.578(15)
Ge1 Ca2 Ge1 . 9_555 84.422(15)
Ge1 Ca2 Ge1 . 58_555 95.578(15)
Ge1 Ca2 Ca1 . . 50.877(14)
Ge1 Ca2 Ca1 . 49_555 129.123(14)
Ge1 Ca2 Ge1 50_555 5_555 95.578(15)
Ge1 Ca2 Ge1 50_555 54_555 84.422(15)
Ge1 Ca2 Ge1 50_555 9_555 95.578(15)
Ge1 Ca2 Ge1 50_555 58_555 84.422(15)
Ge1 Ca2 Ca1 50_555 . 129.123(14)
Ge1 Ca2 Ca1 50_555 49_555 50.877(14)
Ge1 Ca2 Ge1 5_555 54_555 180.0(5)
Ge1 Ca2 Ge1 5_555 9_555 84.422(15)
Ge1 Ca2 Ge1 5_555 58_555 95.578(15)
Ge1 Ca2 Ca1 5_555 . 50.877(14)
Ge1 Ca2 Ca1 5_555 49_555 129.123(14)
Ge1 Ca2 Ge1 54_555 9_555 95.578(15)
Ge1 Ca2 Ge1 54_555 58_555 84.422(15)
Ge1 Ca2 Ca1 54_555 . 129.123(14)
Ge1 Ca2 Ca1 54_555 49_555 50.877(14)
Ge1 Ca2 Ge1 9_555 58_555 180.0(5)
Ge1 Ca2 Ca1 9_555 . 50.877(14)
Ge1 Ca2 Ca1 9_555 49_555 129.123(14)
Ge1 Ca2 Ca1 58_555 . 129.123(14)
Ge1 Ca2 Ca1 58_555 49_555 50.877(14)
Ca1 Ca2 Ca1 . 49_555 180.0(5)
loop_
_geom_bond_atom_site_label_1
_geom_bond_atom_site_label_2
_geom_bond_site_symmetry_2
_geom_bond_distance
Pd1 Ge1 . 2.5642(5)
Pd1 Ge1 2_655 2.5642(5)
Pd1 Ge1 57_554 2.5642(5)
Pd1 Ge1 58_555 2.5642(5)
Pd1 Ca2 . 3.1029(2)
Pd1 Ca2 50_554 3.1029(2)
Pd1 Ca2 3_655 3.1029(2)
Pd1 Ca2 52_555 3.1029(2)
Ge1 Ca1 . 3.0612(9)
Ge1 Ca2 . 3.2218(3)
Ge1 Ca2 50_554 3.2218(3)
Ge1 Ca2 51_545 3.2218(3)
Ge1 Ca2 4_555 3.2218(3)
Ca1 Ca2 . 3.8003(2)
Ca1 Ca2 49_444 3.8003(2)
Ca1 Ca2 2_555 3.8003(2)
Ca1 Ca2 50_554 3.8003(2)
Ca1 Ca2 3_555 3.8003(2)
Ca1 Ca2 51_545 3.8003(2)
Ca1 Ca2 4_555 3.8003(2)
Ca1 Ca2 52_455 3.8003(2)
loop_
_refln_index_h
_refln_index_k
_refln_index_l
_refln_F_squared_calc
_refln_F_squared_meas
_refln_F_squared_sigma
_refln_observed_status
0 1 1 24027.90 23805.00 196.97 o
0 0 2 65564.10 67306.60 481.89 o
1 1 2 669.72 686.03 11.32 o
0 2 2 1442.01 1739.73 32.21 o
2 2 2 370128.00 383878.00 2925.13 o
0 1 3 693.72 890.39 15.57 o
1 2 3 29040.20 27954.20 113.45 o
0 3 3 28793.60 28824.00 245.82 o
2 3 3 83197.20 78914.60 409.92 o
0 0 4 419198.00 436896.00 4009.12 o
1 1 4 82825.10 78396.30 397.55 o
0 2 4 1744.34 1754.78 28.93 o
2 2 4 16259.60 15435.60 114.81 o
1 3 4 17103.00 16446.90 81.99 o
3 3 4 23.06 69.94 12.53 o
0 4 4 148674.00 149273.00 1151.53 o
2 4 4 10357.00 10301.90 92.53 o
4 4 4 41566.10 42188.60 521.14 o
0 1 5 3693.11 3634.19 44.04 o
1 2 5 3060.34 3032.08 31.43 o
0 3 5 4304.18 4292.24 53.93 o
2 3 5 28228.30 27548.70 131.38 o
1 4 5 33894.70 33719.00 159.34 o
3 4 5 4496.17 4504.16 47.95 o
0 5 5 102.53 183.41 24.96 o
2 5 5 6012.22 6157.51 82.84 o
4 5 5 13851.80 14008.80 154.26 o
0 0 6 68343.20 65109.70 831.75 o
1 1 6 10051.50 10042.20 95.52 o
0 2 6 11171.50 11111.80 100.68 o
2 2 6 110469.00 105711.00 582.48 o
1 3 6 40809.20 39933.10 189.58 o
3 3 6 84169.80 83334.00 515.18 o
0 4 6 11710.30 11780.90 121.02 o
2 4 6 623.66 708.30 20.49 o
4 4 6 91.06 138.09 21.15 o
1 5 6 13127.20 13230.20 97.66 o
3 5 6 39413.50 39655.90 225.80 o
5 5 6 15483.30 15630.50 195.77 o
0 6 6 20797.30 20762.60 278.78 o
2 6 6 38229.50 38513.10 318.51 o
4 6 6 1386.88 1435.22 53.53 o
6 6 6 12983.50 12957.20 335.05 o
0 1 7 12211.10 11891.30 126.06 o
1 2 7 347.76 365.22 16.34 o
0 3 7 26.59 102.61 18.80 o
2 3 7 6144.00 6172.93 64.50 o
1 4 7 42582.60 41825.90 230.58 o
3 4 7 11286.50 11349.40 102.32 o
0 5 7 3885.93 3906.19 78.97 o
2 5 7 332.35 382.65 19.70 o
4 5 7 21704.50 21470.30 169.12 o
1 6 7 2551.27 2630.68 49.76 o
3 6 7 15041.90 15312.10 144.54 o
5 6 7 4817.31 4896.12 82.45 o
0 7 7 8884.28 9062.43 210.04 o
2 7 7 829.70 898.15 50.15 o
4 7 7 26530.10 27175.90 327.21 o
6 7 7 651.59 568.96 88.87 o
0 0 8 214125.00 203439.00 2567.37 o
1 1 8 15408.90 15445.70 171.82 o
0 2 8 8900.98 8889.77 123.80 o
2 2 8 580.23 610.85 32.13 o
1 3 8 918.43 940.37 28.66 o
3 3 8 2905.61 3034.18 74.99 o
0 4 8 100305.00 98796.90 691.25 o
2 4 8 84.02 133.95 17.34 o
4 4 8 40620.90 41222.00 383.45 o
1 5 8 6026.86 5988.35 80.06 o
3 5 8 18.08 120.63 19.47 o
5 5 8 1905.02 1917.78 73.92 o
0 6 8 16598.50 16633.50 213.95 o
2 6 8 1038.74 1084.21 38.18 o
4 6 8 1726.90 1784.88 54.54 o
6 6 8 4672.62 4976.49 339.15 o
1 7 8 11340.70 11330.80 134.38 o
3 7 8 1482.35 1486.43 58.23 o
5 7 8 5425.54 5099.65 853.89 o
0 8 8 80834.40 76380.70 1464.34 o
2 8 8 1395.92 1224.66 132.46 o
0 1 9 14.98 46.10 24.17 <
1 2 9 4992.30 4998.79 72.61 o
0 3 9 5644.14 5682.61 114.39 o
2 3 9 20680.80 20500.00 169.21 o
1 4 9 7718.72 7696.25 98.44 o
3 4 9 249.62 331.82 24.06 o
0 5 9 567.61 597.60 40.63 o
2 5 9 7149.63 7423.14 103.55 o
4 5 9 2836.86 2869.10 74.18 o
1 6 9 11993.00 12205.20 140.83 o
3 6 9 27762.50 28030.30 340.53 o
5 6 9 13183.40 13027.10 1019.19 o
0 7 9 377.11 334.64 65.70 o
2 7 9 1870.86 1977.24 132.94 o
0 0 10 4694.98 4526.98 221.45 o
1 1 10 444.01 434.15 39.96 o
0 2 10 704.74 743.73 47.01 o
2 2 10 90111.10 89082.60 745.73 o
1 3 10 2471.17 2493.14 59.94 o
3 3 10 12432.80 12465.50 200.09 o
0 4 10 166.79 179.16 35.25 o
2 4 10 9379.37 9466.73 122.88 o
4 4 10 6225.00 5854.35 226.61 o
1 5 10 77.07 145.47 33.68 o
3 5 10 4273.47 4113.17 171.67 o
0 6 10 409.12 330.72 87.75 o
2 6 10 44882.80 43804.50 1564.99 o
0 1 11 78.85 93.33 44.31 <
1 2 11 2816.56 2877.77 105.44 o
0 3 11 2780.50 2841.04 218.05 o
2 3 11 11626.00 10457.60 295.73 o
1 4 11 5585.43 5021.50 277.81 o
