#------------------------------------------------------------------------------
#$Date: 2016-02-13 14:50:18 +0200 (Sat, 13 Feb 2016) $
#$Revision: 176428 $
#$URL: svn://www.crystallography.net/cod/cif/4/34/41/4344110.cif $
#------------------------------------------------------------------------------
#
# This file is available in the Crystallography Open Database (COD),
# http://www.crystallography.net/
#
# All data on this site have been placed in the public domain by the
# contributors.
#
data_4344110
loop_
_publ_author_name
'Henriques, Margarida S.'
'Gorbunov, Denis I.'
'Waerenborgh, Jo\~ao C'
'Pasturel, Mathieu'
'Andreev, Alexander V.'
'Du\<sek, Michal'
'Skourski, Yurii'
'Havela, Ladislav'
'Gon\,calves, Ant\'onio P'
_publ_section_title
;
 Synthesis and Structural/Physical Properties of U3Fe2Ge7: A
 Single-Crystal Study.
;
_journal_issue                   19
_journal_name_full               'Inorganic chemistry'
_journal_page_first              9646
_journal_page_last               9655
_journal_paper_doi               10.1021/acs.inorgchem.5b01736
_journal_volume                  54
_journal_year                    2015
_chemical_formula_moiety         'Fe2 Ge7 U3'
_chemical_formula_sum            'Fe2 Ge7 U3'
_chemical_formula_weight         1333.9
_chemical_name_systematic        ' ?'
_space_group_IT_number           65
_symmetry_cell_setting           orthorhombic
_symmetry_Int_Tables_number      65
_symmetry_space_group_name_Hall  '-C 2 2'
_symmetry_space_group_name_H-M   'C m m m'
_cell_angle_alpha                90
_cell_angle_beta                 90
_cell_angle_gamma                90
_cell_formula_units_Z            2
_cell_length_a                   4.1666(4)
_cell_length_b                   24.982(2)
_cell_length_c                   4.1557(3)
_cell_measurement_reflns_used    2083
_cell_measurement_temperature    293
_cell_measurement_theta_max      28.97
_cell_measurement_theta_min      3.21
_cell_volume                     432.57(6)
_computing_cell_refinement
;
CrysAlisPro, Agilent Technologies,
Version 1.171.37.34 (release 22-05-2014 CrysAlis171 .NET)
(compiled May 22 2014,16:03:01)
;
_computing_data_collection
;
CrysAlisPro, Agilent Technologies,
Version 1.171.37.34 (release 22-05-2014 CrysAlis171 .NET)
(compiled May 22 2014,16:03:01)
;
_computing_data_reduction
;
CrysAlisPro, Agilent Technologies,
Version 1.171.37.34 (release 22-05-2014 CrysAlis171 .NET)
(compiled May 22 2014,16:03:01)
;
_diffrn_ambient_temperature      293
_diffrn_detector                 'CCD plate'
_diffrn_detector_area_resol_mean 10.3745
_diffrn_measured_fraction_theta_full 0.98
_diffrn_measured_fraction_theta_max 0.97
_diffrn_measurement_device       'four-circle diffractometer'
_diffrn_measurement_device_type  'Xcalibur, Atlas, Gemini ultra'
_diffrn_measurement_method       '\w scans'
_diffrn_radiation_monochromator  graphite
_diffrn_radiation_probe          x-ray
_diffrn_radiation_source         'X-ray tube'
_diffrn_radiation_type           'Mo K\a'
_diffrn_radiation_wavelength     0.71073
_diffrn_reflns_av_R_equivalents  0.077
_diffrn_reflns_av_unetI/netI     0.028
_diffrn_reflns_limit_h_max       5
_diffrn_reflns_limit_h_min       -5
_diffrn_reflns_limit_k_max       31
_diffrn_reflns_limit_k_min       -31
_diffrn_reflns_limit_l_max       5
_diffrn_reflns_limit_l_min       -5
_diffrn_reflns_number            3811
_diffrn_reflns_reduction_process
;
Integration of the CCD images was done by program CrysAlisPro
(Agilent Technologies, 2010).
;
_diffrn_reflns_theta_full        28.9
_diffrn_reflns_theta_max         29.11
_diffrn_reflns_theta_min         3.26
_diffrn_source                   'Enhance (Mo) X-ray Source'
_exptl_absorpt_coefficient_mu    83.011
_exptl_absorpt_correction_T_max  0.0603
_exptl_absorpt_correction_T_min  0.0131
_exptl_absorpt_correction_type   gaussian
_exptl_absorpt_process_details   Jana2006
_exptl_crystal_colour            grey
_exptl_crystal_density_diffrn    10.2412
_exptl_crystal_description
;
;
_exptl_crystal_F_000             1104
_exptl_crystal_size_max          0.171
_exptl_crystal_size_mid          0.117
_exptl_crystal_size_min          0.068
_refine_diff_density_max         3.99
_refine_diff_density_min         -3.33
_refine_ls_extinction_coef       510(80)
_refine_ls_extinction_method
'B-C type 1 Gaussian isotropic (Becker & Coppens, 1974)'
_refine_ls_goodness_of_fit_gt    1.79
_refine_ls_goodness_of_fit_ref   1.74
_refine_ls_number_constraints    0
_refine_ls_number_parameters     14
_refine_ls_number_reflns         370
_refine_ls_number_restraints     0
_refine_ls_R_factor_all          0.0416
_refine_ls_R_factor_gt           0.0379
_refine_ls_shift/su_max          0.0362
_refine_ls_shift/su_mean         0.0218
_refine_ls_structure_factor_coef Fsqd
_refine_ls_weighting_details     w=1/(\s^2^(I)+0.0016I^2^)
_refine_ls_weighting_scheme      sigma
_refine_ls_wR_factor_gt          0.1106
_refine_ls_wR_factor_ref         0.1123
_reflns_number_gt                343
_reflns_number_total             370
_reflns_threshold_expression     I>3\s(I)
_cod_data_source_file            ic5b01736_si_001.cif
_cod_data_source_block           I
_cod_depositor_comments
;
The following automatic conversions were performed:

'_diffrn_radiation_probe' value 'X-ray' changed to 'x-ray' according
to
/usr/data/users/saulius/crontab/automatic-downloads/rss-feeds/ACS/lib/dictionaries/cif_core.dic
dictionary named 'cif_core.dic' version 2.4.2 from 2011-04-26.

'_exptl_absorpt_correction_type' value 'Gaussian' changed to
'gaussian' according to
/usr/data/users/saulius/crontab/automatic-downloads/rss-feeds/ACS/lib/dictionaries/cif_core.dic
dictionary named 'cif_core.dic' version 2.4.2 from 2011-04-26.

Automatic conversion script
Id: cif_fix_values 3271 2015-04-21 07:52:19Z andrius 

 Adding full bibliography for 4344110.cif.
;
_cod_original_sg_symbol_Hall     '-C -2x;-2y;-2z'
_cod_database_code               4344110
loop_
_space_group_symop_id
_space_group_symop_operation_xyz
1 x,y,z
2 -x,-y,z
3 -x,y,-z
4 x,-y,-z
5 -x,-y,-z
6 x,y,-z
7 x,-y,z
8 -x,y,z
9 x+1/2,y+1/2,z
10 -x+1/2,-y+1/2,z
11 -x+1/2,y+1/2,-z
12 x+1/2,-y+1/2,-z
13 -x+1/2,-y+1/2,-z
14 x+1/2,y+1/2,-z
15 x+1/2,-y+1/2,z
16 -x+1/2,y+1/2,z
loop_
_atom_site_label
_atom_site_type_symbol
_atom_site_fract_x
_atom_site_fract_y
_atom_site_fract_z
_atom_site_adp_type
_atom_site_U_iso_or_equiv
_atom_site_site_symmetry_multiplicity
_atom_site_occupancy
_atom_site_calc_flag
U1 U 0 0 0 Uiso 0.0059(4) 2 1 d
U2 U 0 0.31640(4) 0.5 Uiso 0.0074(4) 4 1 d
Ge1 Ge 0.5 0 0.5 Uiso 0.0092(8) 2 1 d
Ge2 Ge 0 0.22070(11) 0 Uiso 0.0087(6) 4 1 d
Ge3 Ge 0 0.41286(12) 0 Uiso 0.0112(7) 4 1 d
Ge4 Ge 0 0.08727(12) 0.5 Uiso 0.0100(6) 4 1 d
Fe1 Fe 0 0.12817(16) 0 Uiso 0.0105(8) 4 1 d
loop_
_atom_type_symbol
_atom_type_scat_dispersion_real
_atom_type_scat_dispersion_imag
_atom_type_scat_source
Fe 0.3463 0.8444 'International Tables Vol C tables 4.2.6.8 and 6.1.1.1'
Ge 0.1547 1.8001 'International Tables Vol C tables 4.2.6.8 and 6.1.1.1'
U -9.6767 9.6646 'International Tables Vol C tables 4.2.6.8 and 6.1.1.1'
loop_
_exptl_crystal_face_index_h
_exptl_crystal_face_index_k
_exptl_crystal_face_index_l
_exptl_crystal_face_perp_dist
-17 -27 -3 0.041
1 21 6 0.0712
-13 -30 -28 0.0744
1 21 -3 0.0337
-1 18 -1 0.0486
-2 23 1 0.072
10 -13 -10 0.0683
20 30 19 0.041
3 -24 -4 0.0633
-13 -26 2 0.0574
-1 -34 1 0.0296
0 35 0 0.046
2 33 -2 0.0288
-1 -33 -2 0.0432
-4 -27 0 0.036
4 21 10 0.0611
5 -20 4 0.0668
loop_
_geom_angle_atom_site_label_1
_geom_angle_atom_site_label_2
_geom_angle_atom_site_label_3
_geom_angle_site_symmetry_1
_geom_angle_site_symmetry_3
_geom_angle
Ge1 U1 Ge1 1_454 1_455 89.850(7)
Ge1 U1 Ge1 1_454 1_554 90.150(7)
Ge1 U1 Ge1 1_454 . 180.0(5)
Ge1 U1 Ge3 1_454 9_445 60.69(2)
Ge1 U1 Ge3 1_454 9_545 119.31(2)
Ge1 U1 Ge3 1_454 10_455 60.69(2)
Ge1 U1 Ge3 1_454 10_555 119.31(2)
Ge1 U1 Ge4 1_454 1_554 60.84(2)
Ge1 U1 Ge4 1_454 . 119.16(2)
Ge1 U1 Ge4 1_454 2_554 60.84(2)
Ge1 U1 Ge4 1_454 2_555 119.16(2)
Ge1 U1 Fe1 1_454 . 90
Ge1 U1 Fe1 1_454 2_555 90
Ge1 U1 Ge1 1_455 1_554 180.0(5)
Ge1 U1 Ge1 1_455 . 90.150(7)
Ge1 U1 Ge3 1_455 9_445 60.69(2)
Ge1 U1 Ge3 1_455 9_545 119.31(2)
Ge1 U1 Ge3 1_455 10_455 60.69(2)
Ge1 U1 Ge3 1_455 10_555 119.31(2)
Ge1 U1 Ge4 1_455 1_554 119.16(2)
Ge1 U1 Ge4 1_455 . 60.84(2)
Ge1 U1 Ge4 1_455 2_554 119.16(2)
Ge1 U1 Ge4 1_455 2_555 60.84(2)
Ge1 U1 Fe1 1_455 . 90
Ge1 U1 Fe1 1_455 2_555 90
Ge1 U1 Ge1 1_554 . 89.850(7)
Ge1 U1 Ge3 1_554 9_445 119.31(2)
Ge1 U1 Ge3 1_554 9_545 60.69(2)
Ge1 U1 Ge3 1_554 10_455 119.31(2)
Ge1 U1 Ge3 1_554 10_555 60.69(2)
Ge1 U1 Ge4 1_554 1_554 60.84(2)
Ge1 U1 Ge4 1_554 . 119.16(2)
Ge1 U1 Ge4 1_554 2_554 60.84(2)
Ge1 U1 Ge4 1_554 2_555 119.16(2)
Ge1 U1 Fe1 1_554 . 90
Ge1 U1 Fe1 1_554 2_555 90
Ge1 U1 Ge3 . 9_445 119.31(2)
Ge1 U1 Ge3 . 9_545 60.69(2)
Ge1 U1 Ge3 . 10_455 119.31(2)
Ge1 U1 Ge3 . 10_555 60.69(2)
Ge1 U1 Ge4 . 1_554 119.16(2)
Ge1 U1 Ge4 . . 60.84(2)
Ge1 U1 Ge4 . 2_554 119.16(2)
Ge1 U1 Ge4 . 2_555 60.84(2)
Ge1 U1 Fe1 . . 90
Ge1 U1 Fe1 . 2_555 90
Ge3 U1 Ge3 9_445 9_545 87.48(5)
Ge3 U1 Ge3 9_445 10_455 92.52(5)
Ge3 U1 Ge3 9_445 10_555 180.0(5)
Ge3 U1 Ge4 9_445 1_554 121.53(3)
Ge3 U1 Ge4 9_445 . 121.53(3)
Ge3 U1 Ge4 9_445 2_554 58.47(3)
Ge3 U1 Ge4 9_445 2_555 58.47(3)
Ge3 U1 Fe1 9_445 . 136.26(4)
Ge3 U1 Fe1 9_445 2_555 43.74(4)
Ge3 U1 Ge3 9_545 10_455 180.0(5)
Ge3 U1 Ge3 9_545 10_555 92.52(5)
Ge3 U1 Ge4 9_545 1_554 121.53(3)
Ge3 U1 Ge4 9_545 . 121.53(3)
Ge3 U1 Ge4 9_545 2_554 58.47(3)
Ge3 U1 Ge4 9_545 2_555 58.47(3)
Ge3 U1 Fe1 9_545 . 136.26(4)
Ge3 U1 Fe1 9_545 2_555 43.74(4)
Ge3 U1 Ge3 10_455 10_555 87.48(5)
Ge3 U1 Ge4 10_455 1_554 58.47(3)
Ge3 U1 Ge4 10_455 . 58.47(3)
Ge3 U1 Ge4 10_455 2_554 121.53(3)
Ge3 U1 Ge4 10_455 2_555 121.53(3)
Ge3 U1 Fe1 10_455 . 43.74(4)
Ge3 U1 Fe1 10_455 2_555 136.26(4)
Ge3 U1 Ge4 10_555 1_554 58.47(3)
Ge3 U1 Ge4 10_555 . 58.47(3)
Ge3 U1 Ge4 10_555 2_554 121.53(3)
Ge3 U1 Ge4 10_555 2_555 121.53(3)
Ge3 U1 Fe1 10_555 . 43.74(4)
Ge3 U1 Fe1 10_555 2_555 136.26(4)
Ge4 U1 Ge4 1_554 . 87.25(5)
Ge4 U1 Ge4 1_554 2_554 92.75(5)
Ge4 U1 Ge4 1_554 2_555 180.0(5)
Ge4 U1 Fe1 1_554 . 43.62(4)
Ge4 U1 Fe1 1_554 2_555 136.38(4)
Ge4 U1 Ge4 . 2_554 180.0(5)
Ge4 U1 Ge4 . 2_555 92.75(5)
Ge4 U1 Fe1 . . 43.62(4)
Ge4 U1 Fe1 . 2_555 136.38(4)
Ge4 U1 Ge4 2_554 2_555 87.25(5)
Ge4 U1 Fe1 2_554 . 136.38(4)
Ge4 U1 Fe1 2_554 2_555 43.62(4)
Ge4 U1 Fe1 2_555 . 136.38(4)
Ge4 U1 Fe1 2_555 2_555 43.62(4)
Fe1 U1 Fe1 . 2_555 180.0(5)
Ge2 U2 Ge2 . 1_556 81.99(5)
Ge2 U2 Ge2 . 10_455 48.04(4)
Ge2 U2 Ge2 . 10_456 102.42(5)
Ge2 U2 Ge2 . 10_555 48.04(4)
Ge2 U2 Ge2 . 10_556 102.42(5)
Ge2 U2 Ge3 . . 98.24(5)
Ge2 U2 Ge3 . 1_556 179.78(5)
Ge2 U2 Ge4 . 10_455 124.80(3)
Ge2 U2 Ge4 . 10_555 124.80(3)
Ge2 U2 Fe1 . 10_455 84.39(6)
Ge2 U2 Fe1 . 10_456 137.78(5)
Ge2 U2 Fe1 . 10_555 84.39(6)
Ge2 U2 Fe1 . 10_556 137.78(5)
Ge2 U2 Ge2 1_556 10_455 102.42(5)
Ge2 U2 Ge2 1_556 10_456 48.04(4)
Ge2 U2 Ge2 1_556 10_555 102.42(5)
Ge2 U2 Ge2 1_556 10_556 48.04(4)
Ge2 U2 Ge3 1_556 . 179.78(5)
Ge2 U2 Ge3 1_556 1_556 98.24(5)
Ge2 U2 Ge4 1_556 10_455 124.80(3)
Ge2 U2 Ge4 1_556 10_555 124.80(3)
Ge2 U2 Fe1 1_556 10_455 137.78(5)
Ge2 U2 Fe1 1_556 10_456 84.39(6)
Ge2 U2 Fe1 1_556 10_555 137.78(5)
Ge2 U2 Fe1 1_556 10_556 84.39(6)
Ge2 U2 Ge2 10_455 10_456 84.68(2)
Ge2 U2 Ge2 10_455 10_555 84.96(2)
Ge2 U2 Ge2 10_455 10_556 145.03(8)
Ge2 U2 Ge3 10_455 . 77.74(5)
Ge2 U2 Ge3 10_455 1_556 131.87(5)
Ge2 U2 Ge4 10_455 10_455 77.59(5)
Ge2 U2 Ge4 10_455 10_555 132.00(4)
Ge2 U2 Fe1 10_455 10_455 42.69(8)
Ge2 U2 Fe1 10_455 10_456 97.22(3)
Ge2 U2 Fe1 10_455 10_555 97.48(3)
Ge2 U2 Fe1 10_455 10_556 172.28(9)
Ge2 U2 Ge2 10_456 10_555 145.03(8)
Ge2 U2 Ge2 10_456 10_556 84.96(2)
Ge2 U2 Ge3 10_456 . 131.87(5)
Ge2 U2 Ge3 10_456 1_556 77.74(5)
Ge2 U2 Ge4 10_456 10_455 77.59(5)
Ge2 U2 Ge4 10_456 10_555 132.00(4)
Ge2 U2 Fe1 10_456 10_455 97.22(3)
Ge2 U2 Fe1 10_456 10_456 42.69(8)
Ge2 U2 Fe1 10_456 10_555 172.28(9)
Ge2 U2 Fe1 10_456 10_556 97.48(3)
Ge2 U2 Ge2 10_555 10_556 84.68(2)
Ge2 U2 Ge3 10_555 . 77.74(5)
Ge2 U2 Ge3 10_555 1_556 131.87(5)
Ge2 U2 Ge4 10_555 10_455 132.00(4)
Ge2 U2 Ge4 10_555 10_555 77.59(5)
Ge2 U2 Fe1 10_555 10_455 97.48(3)
Ge2 U2 Fe1 10_555 10_456 172.28(9)
Ge2 U2 Fe1 10_555 10_555 42.69(8)
Ge2 U2 Fe1 10_555 10_556 97.22(3)
Ge2 U2 Ge3 10_556 . 131.87(5)
Ge2 U2 Ge3 10_556 1_556 77.74(5)
Ge2 U2 Ge4 10_556 10_455 132.00(4)
Ge2 U2 Ge4 10_556 10_555 77.59(5)
Ge2 U2 Fe1 10_556 10_455 172.28(9)
Ge2 U2 Fe1 10_556 10_456 97.48(3)
Ge2 U2 Fe1 10_556 10_555 97.22(3)
Ge2 U2 Fe1 10_556 10_556 42.69(8)
Ge3 U2 Ge3 . 1_556 81.54(5)
Ge3 U2 Ge4 . 10_455 55.07(3)
Ge3 U2 Ge4 . 10_555 55.07(3)
Ge3 U2 Fe1 . 10_455 42.29(5)
Ge3 U2 Fe1 . 10_456 95.44(6)
Ge3 U2 Fe1 . 10_555 42.29(5)
Ge3 U2 Fe1 . 10_556 95.44(6)
Ge3 U2 Ge4 1_556 10_455 55.07(3)
Ge3 U2 Ge4 1_556 10_555 55.07(3)
Ge3 U2 Fe1 1_556 10_455 95.44(6)
Ge3 U2 Fe1 1_556 10_456 42.29(5)
Ge3 U2 Fe1 1_556 10_555 95.44(6)
Ge3 U2 Fe1 1_556 10_556 42.29(5)
Ge4 U2 Ge4 10_455 10_555 81.77(5)
Ge4 U2 Fe1 10_455 10_455 42.16(5)
Ge4 U2 Fe1 10_455 10_456 42.16(5)
Ge4 U2 Fe1 10_455 10_555 95.59(6)
Ge4 U2 Fe1 10_455 10_556 95.59(6)
Ge4 U2 Fe1 10_555 10_455 95.59(6)
Ge4 U2 Fe1 10_555 10_456 95.59(6)
Ge4 U2 Fe1 10_555 10_555 42.16(5)
Ge4 U2 Fe1 10_555 10_556 42.16(5)
Fe1 U2 Fe1 10_455 10_456 79.43(4)
Fe1 U2 Fe1 10_455 10_555 79.68(4)
Fe1 U2 Fe1 10_455 10_556 129.59(9)
Fe1 U2 Fe1 10_456 10_555 129.59(9)
Fe1 U2 Fe1 10_456 10_556 79.68(4)
Fe1 U2 Fe1 10_555 10_556 79.43(4)
U1 Ge1 U1 . 1_556 89.850(7)
U1 Ge1 U1 . 1_655 90.150(7)
U1 Ge1 U1 . 1_656 180.0(5)
U1 Ge1 Ge3 . 9_545 60.82(2)
U1 Ge1 Ge3 . 9_546 119.18(2)
U1 Ge1 Ge3 . 10_555 60.82(2)
U1 Ge1 Ge3 . 10_556 119.18(2)
U1 Ge1 Ge4 . . 60.72(2)
U1 Ge1 Ge4 . 1_655 119.28(2)
U1 Ge1 Ge4 . 2_555 60.72(2)
U1 Ge1 Ge4 . 2_655 119.28(2)
U1 Ge1 U1 1_556 1_655 180.0(5)
U1 Ge1 U1 1_556 1_656 90.150(7)
U1 Ge1 Ge3 1_556 9_545 119.18(2)
U1 Ge1 Ge3 1_556 9_546 60.82(2)
U1 Ge1 Ge3 1_556 10_555 119.18(2)
U1 Ge1 Ge3 1_556 10_556 60.82(2)
U1 Ge1 Ge4 1_556 . 60.72(2)
U1 Ge1 Ge4 1_556 1_655 119.28(2)
U1 Ge1 Ge4 1_556 2_555 60.72(2)
U1 Ge1 Ge4 1_556 2_655 119.28(2)
U1 Ge1 U1 1_655 1_656 89.850(7)
U1 Ge1 Ge3 1_655 9_545 60.82(2)
U1 Ge1 Ge3 1_655 9_546 119.18(2)
U1 Ge1 Ge3 1_655 10_555 60.82(2)
U1 Ge1 Ge3 1_655 10_556 119.18(2)
U1 Ge1 Ge4 1_655 . 119.28(2)
U1 Ge1 Ge4 1_655 1_655 60.72(2)
U1 Ge1 Ge4 1_655 2_555 119.28(2)
U1 Ge1 Ge4 1_655 2_655 60.72(2)
U1 Ge1 Ge3 1_656 9_545 119.18(2)
U1 Ge1 Ge3 1_656 9_546 60.82(2)
U1 Ge1 Ge3 1_656 10_555 119.18(2)
U1 Ge1 Ge3 1_656 10_556 60.82(2)
U1 Ge1 Ge4 1_656 . 119.28(2)
U1 Ge1 Ge4 1_656 1_655 60.72(2)
U1 Ge1 Ge4 1_656 2_555 119.28(2)
U1 Ge1 Ge4 1_656 2_655 60.72(2)
Ge3 Ge1 Ge3 9_545 9_546 87.33(5)
Ge3 Ge1 Ge3 9_545 10_555 92.67(5)
Ge3 Ge1 Ge3 9_545 10_556 180.0(5)
Ge3 Ge1 Ge4 9_545 . 121.53(3)
Ge3 Ge1 Ge4 9_545 1_655 121.53(3)
Ge3 Ge1 Ge4 9_545 2_555 58.47(3)
Ge3 Ge1 Ge4 9_545 2_655 58.47(3)
Ge3 Ge1 Ge3 9_546 10_555 180.0(5)
Ge3 Ge1 Ge3 9_546 10_556 92.67(5)
Ge3 Ge1 Ge4 9_546 . 121.53(3)
Ge3 Ge1 Ge4 9_546 1_655 121.53(3)
Ge3 Ge1 Ge4 9_546 2_555 58.47(3)
Ge3 Ge1 Ge4 9_546 2_655 58.47(3)
Ge3 Ge1 Ge3 10_555 10_556 87.33(5)
Ge3 Ge1 Ge4 10_555 . 58.47(3)
Ge3 Ge1 Ge4 10_555 1_655 58.47(3)
Ge3 Ge1 Ge4 10_555 2_555 121.53(3)
Ge3 Ge1 Ge4 10_555 2_655 121.53(3)
Ge3 Ge1 Ge4 10_556 . 58.47(3)
Ge3 Ge1 Ge4 10_556 1_655 58.47(3)
Ge3 Ge1 Ge4 10_556 2_555 121.53(3)
Ge3 Ge1 Ge4 10_556 2_655 121.53(3)
Ge4 Ge1 Ge4 . 1_655 87.40(5)
Ge4 Ge1 Ge4 . 2_555 92.60(5)
Ge4 Ge1 Ge4 . 2_655 180.0(5)
Ge4 Ge1 Ge4 1_655 2_555 180.0(5)
Ge4 Ge1 Ge4 1_655 2_655 92.60(5)
Ge4 Ge1 Ge4 2_555 2_655 87.40(5)
U2 Ge2 U2 1_554 . 81.99(7)
U2 Ge2 U2 1_554 10_454 77.58(3)
U2 Ge2 U2 1_554 10_455 131.96(5)
U2 Ge2 U2 1_554 10_554 77.58(3)
U2 Ge2 U2 1_554 10_555 131.96(5)
U2 Ge2 Ge2 1_554 10_455 64.28(6)
U2 Ge2 Ge2 1_554 10_555 64.28(6)
U2 Ge2 Fe1 1_554 . 139.01(4)
U2 Ge2 U2 . 10_454 131.96(5)
U2 Ge2 U2 . 10_455 77.58(3)
U2 Ge2 U2 . 10_554 131.96(5)
U2 Ge2 U2 . 10_555 77.58(3)
U2 Ge2 Ge2 . 10_455 64.28(6)
U2 Ge2 Ge2 . 10_555 64.28(6)
U2 Ge2 Fe1 . . 139.01(4)
U2 Ge2 U2 10_454 10_455 84.68(3)
U2 Ge2 U2 10_454 10_554 84.96(3)
U2 Ge2 U2 10_454 10_555 145.03(10)
U2 Ge2 Ge2 10_454 10_455 67.68(4)
U2 Ge2 Ge2 10_454 10_555 136.49(4)
U2 Ge2 Fe1 10_454 . 72.52(5)
U2 Ge2 U2 10_455 10_554 145.03(10)
U2 Ge2 U2 10_455 10_555 84.96(3)
U2 Ge2 Ge2 10_455 10_455 67.68(4)
U2 Ge2 Ge2 10_455 10_555 136.49(4)
U2 Ge2 Fe1 10_455 . 72.52(5)
U2 Ge2 U2 10_554 10_555 84.68(3)
U2 Ge2 Ge2 10_554 10_455 136.49(4)
U2 Ge2 Ge2 10_554 10_555 67.68(4)
U2 Ge2 Fe1 10_554 . 72.52(5)
U2 Ge2 Ge2 10_555 10_455 136.49(4)
U2 Ge2 Ge2 10_555 10_555 67.68(4)
U2 Ge2 Fe1 10_555 . 72.52(5)
Ge2 Ge2 Ge2 10_455 10_555 109.81(13)
Ge2 Ge2 Fe1 10_455 . 125.10(7)
Ge2 Ge2 Fe1 10_555 . 125.10(7)
U1 Ge3 U1 9_455 9_555 87.48(8)
U1 Ge3 U2 9_455 1_554 123.172(8)
U1 Ge3 U2 9_455 . 123.172(8)
U1 Ge3 Ge1 9_455 9_454 58.49(5)
U1 Ge3 Ge1 9_455 9_455 58.49(5)
U1 Ge3 Ge4 9_455 10_454 60.74(5)
U1 Ge3 Ge4 9_455 10_455 60.74(5)
U1 Ge3 Ge4 9_455 10_554 119.36(8)
U1 Ge3 Ge4 9_455 10_555 119.36(8)
U1 Ge3 Fe1 9_455 10_455 72.45(9)
U1 Ge3 Fe1 9_455 10_555 159.93(13)
U1 Ge3 U2 9_555 1_554 123.172(8)
U1 Ge3 U2 9_555 . 123.172(8)
U1 Ge3 Ge1 9_555 9_454 58.49(5)
U1 Ge3 Ge1 9_555 9_455 58.49(5)
U1 Ge3 Ge4 9_555 10_454 119.36(8)
U1 Ge3 Ge4 9_555 10_455 119.36(8)
U1 Ge3 Ge4 9_555 10_554 60.74(5)
U1 Ge3 Ge4 9_555 10_555 60.74(5)
U1 Ge3 Fe1 9_555 10_455 159.93(13)
U1 Ge3 Fe1 9_555 10_555 72.45(9)
U2 Ge3 U2 1_554 . 81.54(7)
U2 Ge3 Ge1 1_554 9_454 95.564(13)
U2 Ge3 Ge1 1_554 9_455 177.11(7)
U2 Ge3 Ge4 1_554 10_454 62.48(6)
U2 Ge3 Ge4 1_554 10_455 117.41(8)
U2 Ge3 Ge4 1_554 10_554 62.48(6)
U2 Ge3 Ge4 1_554 10_555 117.41(8)
U2 Ge3 Fe1 1_554 10_455 70.47(8)
U2 Ge3 Fe1 1_554 10_555 70.47(8)
U2 Ge3 Ge1 . 9_454 177.11(7)
U2 Ge3 Ge1 . 9_455 95.564(13)
U2 Ge3 Ge4 . 10_454 117.41(8)
U2 Ge3 Ge4 . 10_455 62.48(6)
U2 Ge3 Ge4 . 10_554 117.41(8)
U2 Ge3 Ge4 . 10_555 62.48(6)
U2 Ge3 Fe1 . 10_455 70.47(8)
U2 Ge3 Fe1 . 10_555 70.47(8)
Ge1 Ge3 Ge1 9_454 9_455 87.33(8)
Ge1 Ge3 Ge4 9_454 10_454 60.87(5)
Ge1 Ge3 Ge4 9_454 10_455 119.23(8)
Ge1 Ge3 Ge4 9_454 10_554 60.87(5)
Ge1 Ge3 Ge4 9_454 10_555 119.23(8)
Ge1 Ge3 Fe1 9_454 10_455 108.62(7)
Ge1 Ge3 Fe1 9_454 10_555 108.62(7)
Ge1 Ge3 Ge4 9_455 10_454 119.23(8)
Ge1 Ge3 Ge4 9_455 10_455 60.87(5)
Ge1 Ge3 Ge4 9_455 10_554 119.23(8)
Ge1 Ge3 Ge4 9_455 10_555 60.87(5)
Ge1 Ge3 Fe1 9_455 10_455 108.62(7)
Ge1 Ge3 Fe1 9_455 10_555 108.62(7)
Ge4 Ge3 Ge4 10_454 10_455 89.850(7)
Ge4 Ge3 Ge4 10_454 10_554 90.150(7)
Ge4 Ge3 Ge4 10_454 10_555 179.87(14)
Ge4 Ge3 Fe1 10_454 10_455 50.52(5)
Ge4 Ge3 Fe1 10_454 10_555 129.41(8)
Ge4 Ge3 Ge4 10_455 10_554 179.87(14)
Ge4 Ge3 Ge4 10_455 10_555 90.150(7)
Ge4 Ge3 Fe1 10_455 10_455 50.52(5)
Ge4 Ge3 Fe1 10_455 10_555 129.41(8)
Ge4 Ge3 Ge4 10_554 10_555 89.850(7)
Ge4 Ge3 Fe1 10_554 10_455 129.41(8)
Ge4 Ge3 Fe1 10_554 10_555 50.52(5)
Ge4 Ge3 Fe1 10_555 10_455 129.41(8)
Ge4 Ge3 Fe1 10_555 10_555 50.52(5)
Fe1 Ge3 Fe1 10_455 10_555 127.61(18)
U1 Ge4 U1 . 1_556 87.25(8)
U1 Ge4 U2 . 10_455 123.182(8)
U1 Ge4 U2 . 10_555 123.182(8)
U1 Ge4 Ge1 . 1_455 58.44(4)
U1 Ge4 Ge1 . . 58.44(4)
U1 Ge4 Ge3 . 10_455 60.79(5)
U1 Ge4 Ge3 . 10_456 119.10(8)
U1 Ge4 Ge3 . 10_555 60.79(5)
U1 Ge4 Ge3 . 10_556 119.10(8)
U1 Ge4 Fe1 . . 72.56(9)
U1 Ge4 Fe1 . 1_556 159.80(13)
U1 Ge4 U2 1_556 10_455 123.182(8)
U1 Ge4 U2 1_556 10_555 123.182(8)
U1 Ge4 Ge1 1_556 1_455 58.44(4)
U1 Ge4 Ge1 1_556 . 58.44(4)
U1 Ge4 Ge3 1_556 10_455 119.10(8)
U1 Ge4 Ge3 1_556 10_456 60.79(5)
U1 Ge4 Ge3 1_556 10_555 119.10(8)
U1 Ge4 Ge3 1_556 10_556 60.79(5)
U1 Ge4 Fe1 1_556 . 159.80(13)
U1 Ge4 Fe1 1_556 1_556 72.56(9)
U2 Ge4 U2 10_455 10_555 81.77(7)
U2 Ge4 Ge1 10_455 1_455 95.419(14)
U2 Ge4 Ge1 10_455 . 177.19(7)
U2 Ge4 Ge3 10_455 10_455 62.45(6)
U2 Ge4 Ge3 10_455 10_456 62.45(6)
U2 Ge4 Ge3 10_455 10_555 117.66(8)
U2 Ge4 Ge3 10_455 10_556 117.66(8)
U2 Ge4 Fe1 10_455 . 70.51(8)
U2 Ge4 Fe1 10_455 1_556 70.51(8)
U2 Ge4 Ge1 10_555 1_455 177.19(7)
U2 Ge4 Ge1 10_555 . 95.419(14)
U2 Ge4 Ge3 10_555 10_455 117.66(8)
U2 Ge4 Ge3 10_555 10_456 117.66(8)
U2 Ge4 Ge3 10_555 10_555 62.45(6)
U2 Ge4 Ge3 10_555 10_556 62.45(6)
U2 Ge4 Fe1 10_555 . 70.51(8)
U2 Ge4 Fe1 10_555 1_556 70.51(8)
Ge1 Ge4 Ge1 1_455 . 87.40(8)
Ge1 Ge4 Ge3 1_455 10_455 60.66(5)
Ge1 Ge4 Ge3 1_455 10_456 60.66(5)
Ge1 Ge4 Ge3 1_455 10_555 119.23(8)
Ge1 Ge4 Ge3 1_455 10_556 119.23(8)
Ge1 Ge4 Fe1 1_455 . 108.60(7)
Ge1 Ge4 Fe1 1_455 1_556 108.60(7)
Ge1 Ge4 Ge3 . 10_455 119.23(8)
Ge1 Ge4 Ge3 . 10_456 119.23(8)
Ge1 Ge4 Ge3 . 10_555 60.66(5)
Ge1 Ge4 Ge3 . 10_556 60.66(5)
Ge1 Ge4 Fe1 . . 108.60(7)
Ge1 Ge4 Fe1 . 1_556 108.60(7)
Ge3 Ge4 Ge3 10_455 10_456 89.850(7)
Ge3 Ge4 Ge3 10_455 10_555 90.150(7)
Ge3 Ge4 Ge3 10_455 10_556 179.87(14)
Ge3 Ge4 Fe1 10_455 . 50.71(5)
Ge3 Ge4 Fe1 10_455 1_556 129.36(7)
Ge3 Ge4 Ge3 10_456 10_555 179.87(14)
Ge3 Ge4 Ge3 10_456 10_556 90.150(7)
Ge3 Ge4 Fe1 10_456 . 129.36(7)
Ge3 Ge4 Fe1 10_456 1_556 50.71(5)
Ge3 Ge4 Ge3 10_555 10_556 89.850(7)
Ge3 Ge4 Fe1 10_555 . 50.71(5)
Ge3 Ge4 Fe1 10_555 1_556 129.36(7)
Ge3 Ge4 Fe1 10_556 . 129.36(7)
Ge3 Ge4 Fe1 10_556 1_556 50.71(5)
Fe1 Ge4 Fe1 . 1_556 127.64(18)
U1 Fe1 U2 . 10_454 115.20(6)
U1 Fe1 U2 . 10_455 115.20(6)
U1 Fe1 U2 . 10_554 115.20(6)
U1 Fe1 U2 . 10_555 115.20(6)
U1 Fe1 Ge2 . . 180.0(5)
U1 Fe1 Ge3 . 10_455 63.81(11)
U1 Fe1 Ge3 . 10_555 63.81(11)
U1 Fe1 Ge4 . 1_554 63.82(11)
U1 Fe1 Ge4 . . 63.82(11)
U2 Fe1 U2 10_454 10_455 79.43(5)
U2 Fe1 U2 10_454 10_554 79.68(5)
U2 Fe1 U2 10_454 10_555 129.59(13)
U2 Fe1 Ge2 10_454 . 64.80(6)
U2 Fe1 Ge3 10_454 10_455 67.24(5)
U2 Fe1 Ge3 10_454 10_555 139.713(11)
U2 Fe1 Ge4 10_454 1_554 67.33(5)
U2 Fe1 Ge4 10_454 . 139.578(11)
U2 Fe1 U2 10_455 10_554 129.59(13)
U2 Fe1 U2 10_455 10_555 79.68(5)
U2 Fe1 Ge2 10_455 . 64.80(6)
U2 Fe1 Ge3 10_455 10_455 67.24(5)
U2 Fe1 Ge3 10_455 10_555 139.713(11)
U2 Fe1 Ge4 10_455 1_554 139.578(11)
U2 Fe1 Ge4 10_455 . 67.33(5)
U2 Fe1 U2 10_554 10_555 79.43(5)
U2 Fe1 Ge2 10_554 . 64.80(6)
U2 Fe1 Ge3 10_554 10_455 139.713(11)
U2 Fe1 Ge3 10_554 10_555 67.24(5)
U2 Fe1 Ge4 10_554 1_554 67.33(5)
U2 Fe1 Ge4 10_554 . 139.578(11)
U2 Fe1 Ge2 10_555 . 64.80(6)
U2 Fe1 Ge3 10_555 10_455 139.713(11)
U2 Fe1 Ge3 10_555 10_555 67.24(5)
U2 Fe1 Ge4 10_555 1_554 139.578(11)
U2 Fe1 Ge4 10_555 . 67.33(5)
Ge2 Fe1 Ge3 . 10_455 116.19(11)
Ge2 Fe1 Ge3 . 10_555 116.19(11)
Ge2 Fe1 Ge4 . 1_554 116.18(11)
Ge2 Fe1 Ge4 . . 116.18(11)
Ge3 Fe1 Ge3 10_455 10_555 127.6(2)
Ge3 Fe1 Ge4 10_455 1_554 78.77(8)
Ge3 Fe1 Ge4 10_455 . 78.77(8)
Ge3 Fe1 Ge4 10_555 1_554 78.77(8)
Ge3 Fe1 Ge4 10_555 . 78.77(8)
Ge4 Fe1 Ge4 1_554 . 127.6(2)
loop_
_geom_bond_atom_site_label_1
_geom_bond_atom_site_label_2
_geom_bond_site_symmetry_2
_geom_bond_distance
U1 Ge1 1_454 2.9424(4)
U1 Ge1 1_455 2.9424(4)
U1 Ge1 1_554 2.9424(4)
U1 Ge1 . 2.9424(4)
U1 Ge3 9_445 3.013(2)
U1 Ge3 9_545 3.013(2)
U1 Ge3 10_455 3.013(2)
U1 Ge3 10_555 3.013(2)
U1 Ge4 1_554 3.012(2)
U1 Ge4 . 3.012(2)
U1 Ge4 2_554 3.012(2)
U1 Ge4 2_555 3.012(2)
U1 Fe1 . 3.202(4)
U1 Fe1 2_555 3.202(4)
U2 Ge2 . 3.168(2)
U2 Ge2 1_556 3.168(2)
U2 Ge2 10_455 3.0849(9)
U2 Ge2 10_456 3.0849(9)
U2 Ge2 10_555 3.0849(9)
U2 Ge2 10_556 3.0849(9)
U2 Ge3 . 3.182(2)
U2 Ge3 1_556 3.182(2)
U2 Ge4 10_455 3.183(2)
U2 Ge4 10_555 3.183(2)
U2 Fe1 10_455 3.2520(17)
U2 Fe1 10_456 3.2520(17)
U2 Fe1 10_555 3.2520(17)
U2 Fe1 10_556 3.2520(17)
Ge1 Ge3 9_545 3.009(2)
Ge1 Ge3 9_546 3.009(2)
Ge1 Ge3 10_555 3.009(2)
Ge1 Ge3 10_556 3.009(2)
Ge1 Ge4 . 3.016(2)
Ge1 Ge4 1_655 3.016(2)
Ge1 Ge4 2_555 3.016(2)
Ge1 Ge4 2_655 3.016(2)
Ge2 Ge2 10_455 2.546(2)
Ge2 Ge2 10_555 2.546(2)
Ge2 Fe1 . 2.312(5)
Ge3 Ge4 10_454 2.9424(4)
Ge3 Ge4 10_455 2.9424(4)
Ge3 Ge4 10_554 2.9424(4)
Ge3 Ge4 10_555 2.9424(4)
Ge3 Fe1 10_455 2.322(2)
Ge3 Fe1 10_555 2.322(2)
Ge4 Fe1 . 2.315(2)
Ge4 Fe1 1_556 2.315(2)
#BEGIN Loops that were not found in dictionaries:
loop_
_twin_individual_id
_twin_individual_mass_fraction_refined
_twin_individual_twin_matrix_11
_twin_individual_twin_matrix_12
_twin_individual_twin_matrix_13
_twin_individual_twin_matrix_21
_twin_individual_twin_matrix_22
_twin_individual_twin_matrix_23
_twin_individual_twin_matrix_31
_twin_individual_twin_matrix_32
_twin_individual_twin_matrix_33
1 0.92 1 0 0 0 1 0 0 0 1
2 0.08 0 0 1 0 1 0 -1 0 0
loop_
_twin_refln_datum_id
_twin_refln_individual_id
_twin_refln_index_h
_twin_refln_index_k
_twin_refln_index_l
_twin_refln_f_squared_calc
_twin_refln_f_squared_meas
_twin_refln_f_squared_sigma
_twin_refln_include_status
1 1 0 0 1 139.36 2809.45 169.38 o
2 2 -2 0 0 597478.00 630024.00 4449.69 o
2 1 0 0 2 597478.00 630024.00 4449.69 o
3 1 0 0 3 175.02 716.73 158.07 o
4 2 -4 0 0 241249.00 244568.00 3444.83 o
4 1 0 0 4 241249.00 244568.00 3444.83 o
5 1 0 0 5 225.05 552.78 343.23 <
6 1 0 2 1 30360.00 31645.70 446.64 o
7 2 -2 2 0 9.94 544.18 117.87 o
7 1 0 2 2 9.94 544.18 117.87 o
8 1 0 2 3 16102.00 16290.40 470.87 o
9 2 -4 2 0 10.01 1282.08 285.41 o
9 1 0 2 4 10.01 1282.08 285.41 o
10 1 0 2 5 8698.00 8274.31 665.62 o
11 2 0 4 0 1517.54 2323.08 230.09 o
11 1 0 4 0 1517.54 2323.08 230.09 o
12 1 0 4 1 11690.50 12578.90 278.16 o
13 2 -2 4 0 1438.47 1771.65 128.81 o
13 1 0 4 2 1438.47 1771.65 128.81 o
14 1 0 4 3 7099.03 6999.31 289.83 o
15 2 -4 4 0 1304.01 1458.26 250.72 o
15 1 0 4 4 1304.01 1458.26 250.72 o
16 1 0 4 5 3931.29 4703.96 554.60 o
17 2 0 6 0 32648.20 36991.30 943.68 o
17 1 0 6 0 32648.20 36991.30 943.68 o
18 1 0 6 1 27778.10 27728.30 520.93 o
19 2 -2 6 0 22834.10 22563.00 498.01 o
19 1 0 6 2 22834.10 22563.00 498.01 o
20 1 0 6 3 13066.40 13135.00 453.84 o
21 2 -4 6 0 13352.60 13017.00 572.36 o
21 1 0 6 4 13352.60 13017.00 572.36 o
22 1 0 6 5 4764.66 4983.30 686.71 o
23 2 0 8 0 3228.46 4512.55 361.82 o
23 1 0 8 0 3228.46 4512.55 361.82 o
24 1 0 8 1 171231.00 166658.00 1561.60 o
25 2 -2 8 0 2489.93 2821.29 194.42 o
25 1 0 8 2 2489.93 2821.29 194.42 o
26 1 0 8 3 88297.60 85308.90 1262.10 o
27 2 -4 8 0 1518.68 1514.77 249.83 o
27 1 0 8 4 1518.68 1514.77 249.83 o
28 1 0 8 5 39426.50 41922.10 2001.50 o
29 2 0 10 0 220798.00 237955.00 3474.95 o
29 1 0 10 0 220798.00 237955.00 3474.95 o
30 1 0 10 1 1488.48 1617.37 204.32 o
31 2 -2 10 0 151261.00 158684.00 1878.57 o
31 1 0 10 2 151261.00 158684.00 1878.57 o
32 1 0 10 3 665.34 861.84 135.51 o
33 2 -4 10 0 69555.00 71846.00 1775.96 o
33 1 0 10 4 69555.00 71846.00 1775.96 o
34 1 0 10 5 194.23 469.68 336.00 <
35 2 0 12 0 87778.60 89464.30 2124.79 o
35 1 0 12 0 87778.60 89464.30 2124.79 o
36 1 0 12 1 11795.20 12354.70 534.43 o
37 2 -2 12 0 63440.40 66819.10 1176.83 o
37 1 0 12 2 63440.40 66819.10 1176.83 o
38 1 0 12 3 5306.34 5783.78 391.74 o
39 2 -4 12 0 30982.00 33105.80 1411.41 o
39 1 0 12 4 30982.00 33105.80 1411.41 o
40 1 0 12 5 1553.93 1772.16 590.42 o
41 2 0 14 0 5488.31 5441.37 668.06 o
41 1 0 14 0 5488.31 5441.37 668.06 o
42 1 0 14 1 121615.00 128134.00 2064.74 o
43 2 -2 14 0 3690.70 3584.38 286.23 o
43 1 0 14 2 3690.70 3584.38 286.23 o
44 1 0 14 3 72114.10 73718.90 1830.44 o
45 2 -4 14 0 1283.73 1467.17 319.82 o
45 1 0 14 4 1283.73 1467.17 319.82 o
46 1 0 14 5 34065.70 35089.30 2997.79 o
47 2 0 16 0 42425.70 42272.90 1673.86 o
47 1 0 16 0 42425.70 42272.90 1673.86 o
48 1 0 16 1 19889.80 22318.70 659.03 o
49 2 -2 16 0 33149.60 34896.60 1032.71 o
49 1 0 16 2 33149.60 34896.60 1032.71 o
50 1 0 16 3 11901.50 11329.50 748.78 o
51 2 -4 16 0 20012.90 19591.00 1320.27 o
51 1 0 16 4 20012.90 19591.00 1320.27 o
52 1 0 16 5 5032.50 5687.49 1753.30 o
53 2 0 18 0 55.72 282.70 117.87 <
53 1 0 18 0 55.72 282.70 117.87 <
54 1 0 18 1 31527.70 33264.70 901.81 o
55 2 -2 18 0 19.56 143.16 117.42 <
55 1 0 18 2 19.56 143.16 117.42 <
56 1 0 18 3 20637.40 20596.40 1221.81 o
57 2 -4 18 0 24.52 152.19 180.19 <
57 1 0 18 4 24.52 152.19 180.19 <
58 2 0 20 0 4673.28 4676.34 671.86 o
58 1 0 20 0 4673.28 4676.34 671.86 o
59 1 0 20 1 2315.85 2796.25 324.45 o
60 2 -2 20 0 3298.64 3748.89 468.21 o
60 1 0 20 2 3298.64 3748.89 468.21 o
61 1 0 20 3 2257.69 2358.05 421.10 o
62 2 -4 20 0 1381.25 1460.82 336.97 o
62 1 0 20 4 1381.25 1460.82 336.97 o
63 2 0 22 0 213221.00 193037.00 5844.56 o
63 1 0 22 0 213221.00 193037.00 5844.56 o
64 1 0 22 1 2870.43 2960.07 380.52 o
65 2 -2 22 0 167487.00 175150.00 2916.08 o
65 1 0 22 2 167487.00 175150.00 2916.08 o
66 1 0 22 3 2004.38 2283.78 394.86 o
67 2 -4 22 0 90333.60 84526.80 3470.98 o
67 1 0 22 4 90333.60 84526.80 3470.98 o
68 2 0 24 0 7916.41 7883.02 891.02 o
68 1 0 24 0 7916.41 7883.02 891.02 o
69 1 0 24 1 40371.00 38399.30 1449.09 o
70 2 -2 24 0 5773.91 6596.24 753.16 o
70 1 0 24 2 5773.91 6596.24 753.16 o
71 1 0 24 3 27966.60 33379.50 1963.13 o
72 2 0 26 0 9349.52 8363.26 925.88 o
72 1 0 26 0 9349.52 8363.26 925.88 o
73 1 0 26 1 138.08 394.25 190.13 <
74 2 -2 26 0 7899.55 7495.91 771.93 o
74 1 0 26 2 7899.55 7495.91 771.93 o
75 1 0 26 3 163.26 252.45 97.55 <
76 2 0 28 0 9719.95 8340.70 941.67 o
76 1 0 28 0 9719.95 8340.70 941.67 o
77 1 0 28 1 1834.01 2074.82 363.20 o
78 2 -2 28 0 8678.72 7745.44 798.60 o
78 1 0 28 2 8678.72 7745.44 798.60 o
79 2 0 30 0 14268.80 16421.30 1332.17 o
79 1 0 30 0 14268.80 16421.30 1332.17 o
80 1 0 30 1 25443.50 26016.70 1302.26 o
81 2 -2 30 0 11541.40 11451.10 1704.12 o
81 1 0 30 2 11541.40 11451.10 1704.12 o
82 1 1 1 0 2879.60 2813.82 160.02 o
83 2 -1 1 1 41117.20 43321.80 491.03 o
83 1 1 1 1 41117.20 43321.80 491.03 o
84 1 1 1 2 1715.19 1608.82 79.56 o
85 2 -3 1 1 21310.40 22624.50 465.88 o
85 1 1 1 3 21310.40 22624.50 465.88 o
86 1 1 1 4 742.03 2288.25 231.26 o
87 2 -5 1 1 10559.00 12096.30 728.21 o
87 1 1 1 5 10559.00 12096.30 728.21 o
88 1 1 3 0 54596.80 61161.50 663.77 o
89 2 -1 3 1 29421.90 28669.90 362.11 o
89 1 1 3 1 29421.90 28669.90 362.11 o
90 1 1 3 2 38117.20 39100.70 503.82 o
91 2 -3 3 1 13664.40 14095.00 349.37 o
91 1 1 3 3 13664.40 14095.00 349.37 o
92 1 1 3 4 21186.30 21270.70 650.86 o
93 2 -5 3 1 5320.83 8686.97 697.13 o
93 1 1 3 5 5320.83 8686.97 697.13 o
94 1 1 5 0 14946.50 15896.10 334.36 o
95 2 -1 5 1 398442.00 410127.00 1751.70 o
95 1 1 5 1 398442.00 410127.00 1751.70 o
96 1 1 5 2 9391.30 9172.20 238.70 o
97 2 -3 5 1 204040.00 198205.00 1409.95 o
97 1 1 5 3 204040.00 198205.00 1409.95 o
98 1 1 5 4 3942.19 4585.83 313.29 o
99 2 -5 5 1 83438.40 86036.30 2007.25 o
99 1 1 5 5 83438.40 86036.30 2007.25 o
100 1 1 7 0 11420.40 11113.30 309.89 o
101 2 -1 7 1 55988.80 55363.40 588.25 o
101 1 1 7 1 55988.80 55363.40 588.25 o
102 1 1 7 2 7741.51 7509.46 231.19 o
103 2 -3 7 1 27256.10 26616.20 518.30 o
103 1 1 7 3 27256.10 26616.20 518.30 o
104 1 1 7 4 4092.62 4095.86 310.13 o
105 2 -5 7 1 10280.40 9889.92 1124.02 o
105 1 1 7 5 10280.40 9889.92 1124.02 o
106 1 1 9 0 127493.00 130235.00 1258.13 o
107 2 -1 9 1 14745.40 13784.30 327.84 o
107 1 1 9 1 14745.40 13784.30 327.84 o
108 1 1 9 2 88729.60 83483.80 884.24 o
109 2 -3 9 1 7358.76 6971.29 270.20 o
109 1 1 9 3 7358.76 6971.29 270.20 o
110 1 1 9 4 42613.60 40738.90 920.83 o
111 2 -5 9 1 2744.10 3229.72 694.92 o
111 1 1 9 5 2744.10 3229.72 694.92 o
112 1 1 11 0 86887.30 84695.00 1107.98 o
113 2 -1 11 1 9316.19 9881.54 324.32 o
113 1 1 11 1 9316.19 9881.54 324.32 o
114 1 1 11 2 60017.40 60214.10 781.07 o
115 2 -3 11 1 8001.14 7873.95 308.24 o
115 1 1 11 3 8001.14 7873.95 308.24 o
116 1 1 11 4 26191.70 25304.50 851.60 o
117 2 -5 11 1 6397.43 7001.45 1364.66 o
117 1 1 11 5 6397.43 7001.45 1364.66 o
118 1 1 13 0 69687.30 66859.10 1208.70 o
119 2 -1 13 1 9674.73 9872.58 317.86 o
119 1 1 13 1 9674.73 9872.58 317.86 o
120 1 1 13 2 53156.90 51861.70 775.97 o
121 2 -3 13 1 4999.33 4882.23 285.78 o
121 1 1 13 3 4999.33 4882.23 285.78 o
122 1 1 13 4 29321.30 29353.50 1017.27 o
123 2 -5 13 1 1867.89 1989.95 520.41 o
123 1 1 13 5 1867.89 1989.95 520.41 o
124 1 1 15 0 6935.02 7348.87 382.66 o
125 2 -1 15 1 51100.20 49251.40 635.09 o
125 1 1 15 1 51100.20 49251.40 635.09 o
126 1 1 15 2 5217.30 5627.88 317.13 o
127 2 -3 15 1 29430.10 28150.20 776.72 o
127 1 1 15 3 29430.10 28150.20 776.72 o
128 1 1 15 4 2942.08 3193.91 345.24 o
129 2 -5 15 1 12994.00 13709.90 1995.08 o
129 1 1 15 5 12994.00 13709.90 1995.08 o
130 1 1 17 0 3082.32 3305.23 282.10 o
131 2 -1 17 1 196335.00 182131.00 1496.98 o
131 1 1 17 1 196335.00 182131.00 1496.98 o
132 1 1 17 2 2403.20 2395.12 197.94 o
133 2 -3 17 1 118127.00 115133.00 1752.27 o
133 1 1 17 3 118127.00 115133.00 1752.27 o
134 1 1 17 4 1244.61 1168.13 185.20 o
135 1 1 19 0 50435.90 51012.60 1442.88 o
136 2 -1 19 1 82.35 191.48 58.71 o
136 1 1 19 1 82.35 191.48 58.71 o
137 1 1 19 2 41313.80 42442.20 937.38 o
138 2 -3 19 1 95.07 242.51 126.00 <
138 1 1 19 3 95.07 242.51 126.00 <
139 1 1 19 4 24942.50 23987.40 939.35 o
140 1 1 21 0 10642.30 10393.80 641.23 o
141 2 -1 21 1 12964.30 11831.80 378.27 o
141 1 1 21 1 12964.30 11831.80 378.27 o
142 1 1 21 2 7986.40 8401.01 447.52 o
143 2 -3 21 1 9911.32 10393.50 644.76 o
143 1 1 21 3 9911.32 10393.50 644.76 o
144 1 1 21 4 3790.17 3927.20 464.58 o
145 1 1 23 0 13437.50 12900.50 661.79 o
146 2 -1 23 1 14115.30 12518.10 493.26 o
146 1 1 23 1 14115.30 12518.10 493.26 o
147 1 1 23 2 10723.40 11302.00 582.07 o
148 2 -3 23 1 9974.92 9649.90 627.52 o
148 1 1 23 3 9974.92 9649.90 627.52 o
149 1 1 23 4 6113.04 5916.98 931.55 o
150 1 1 25 0 19324.00 19927.50 995.94 o
151 2 -1 25 1 11736.80 12361.50 584.74 o
151 1 1 25 1 11736.80 12361.50 584.74 o
152 1 1 25 2 16607.70 19316.80 825.54 o
153 2 -3 25 1 7456.34 8263.39 642.98 o
153 1 1 25 3 7456.34 8263.39 642.98 o
154 1 1 27 0 5382.08 5765.05 601.64 o
155 2 -1 27 1 93676.30 94712.00 1745.91 o
155 1 1 27 1 93676.30 94712.00 1745.91 o
156 1 1 27 2 4387.70 4901.90 419.87 o
157 2 -3 27 1 64198.50 71303.60 3255.32 o
157 1 1 27 3 64198.50 71303.60 3255.32 o
158 1 1 29 0 4275.11 4389.70 485.33 o
159 2 -1 29 1 4964.46 5490.49 420.75 o
159 1 1 29 1 4964.46 5490.49 420.75 o
160 1 1 29 2 3826.27 3920.06 491.65 o
161 1 1 31 0 18681.80 17396.50 1627.68 o
162 2 -1 31 1 12055.40 12428.10 1308.13 o
162 1 1 31 1 12055.40 12428.10 1308.13 o
163 1 1 31 2 15785.80 19095.00 1555.14 o
164 2 0 0 2 598775.00 578353.00 4415.26 o
164 1 2 0 0 598775.00 578353.00 4415.26 o
165 1 2 0 1 148.78 1015.73 132.78 o
166 2 -2 0 2 418456.00 415615.00 2983.64 o
166 1 2 0 2 418456.00 415615.00 2983.64 o
167 1 2 0 3 202.64 452.98 124.65 o
168 2 -4 0 2 191352.00 191034.00 3416.40 o
168 1 2 0 4 191352.00 191034.00 3416.40 o
169 1 2 0 5 213.92 98.45 298.07 <
170 2 0 2 2 9.94 705.85 147.22 o
170 1 2 2 0 9.94 705.85 147.22 o
171 1 2 2 1 20817.20 21344.90 400.79 o
172 2 -2 2 2 9.37 2405.66 205.02 o
172 1 2 2 2 9.37 2405.66 205.02 o
173 1 2 2 3 13344.60 13396.10 475.26 o
174 2 -4 2 2 10.62 3088.02 449.34 o
174 1 2 2 4 10.62 3088.02 449.34 o
175 1 2 2 5 7668.22 7641.46 674.41 o
176 2 0 4 2 1438.81 1781.60 126.55 o
176 1 2 4 0 1438.81 1781.60 126.55 o
177 1 2 4 1 8668.01 9197.08 242.27 o
178 2 -2 4 2 1397.21 1663.22 114.77 o
178 1 2 4 2 1397.21 1663.22 114.77 o
179 1 2 4 3 6042.94 6221.08 297.71 o
180 2 -4 4 2 1228.14 1970.87 272.84 o
180 1 2 4 4 1228.14 1970.87 272.84 o
181 1 2 4 5 3434.98 3792.50 468.19 o
182 2 0 6 2 22868.50 23500.60 482.73 o
182 1 2 6 0 22868.50 23500.60 482.73 o
183 1 2 6 1 18115.70 17997.80 347.27 o
184 2 -2 6 2 18051.00 16787.90 394.61 o
184 1 2 6 2 18051.00 16787.90 394.61 o
185 1 2 6 3 9858.69 9284.49 354.66 o
186 2 -4 6 2 11858.60 12102.30 556.51 o
186 1 2 6 4 11858.60 12102.30 556.51 o
187 1 2 6 5 3847.54 4330.64 666.18 o
188 2 0 8 2 2492.67 2904.80 185.82 o
188 1 2 8 0 2492.67 2904.80 185.82 o
189 1 2 8 1 117582.00 114596.00 921.96 o
190 2 -2 8 2 2075.74 2070.22 126.99 o
190 1 2 8 2 2075.74 2070.22 126.99 o
191 1 2 8 3 69781.30 64872.70 1011.60 o
192 2 -4 8 2 1298.30 1135.63 176.62 o
192 1 2 8 4 1298.30 1135.63 176.62 o
193 1 2 8 5 33506.30 34661.90 2388.60 o
194 2 0 10 2 151516.00 148450.00 1394.45 o
194 1 2 10 0 151516.00 148450.00 1394.45 o
195 1 2 10 1 966.02 1009.28 99.84 o
196 2 -2 10 2 112969.00 106428.00 994.58 o
196 1 2 10 2 112969.00 106428.00 994.58 o
197 1 2 10 3 475.49 578.57 93.04 o
198 2 -4 10 2 56330.00 54676.90 1243.29 o
198 1 2 10 4 56330.00 54676.90 1243.29 o
199 1 2 10 5 148.39 1947.80 976.38 <
200 2 0 12 2 63535.40 61173.30 798.93 o
200 1 2 12 0 63535.40 61173.30 798.93 o
201 1 2 12 1 7740.62 7312.90 237.35 o
202 2 -2 12 2 48761.20 45679.90 640.22 o
202 1 2 12 2 48761.20 45679.90 640.22 o
203 1 2 12 3 3768.92 3583.04 230.55 o
204 2 -4 12 2 25312.00 22812.70 884.53 o
204 1 2 12 4 25312.00 22812.70 884.53 o
205 2 0 14 2 3698.05 3471.17 195.78 o
205 1 2 14 0 3698.05 3471.17 195.78 o
206 1 2 14 1 91611.80 87396.80 1033.95 o
207 2 -2 14 2 2550.46 2424.05 155.91 o
207 1 2 14 2 2550.46 2424.05 155.91 o
208 1 2 14 3 58486.90 52218.90 1021.40 o
209 2 -4 14 2 943.57 986.01 185.64 o
209 1 2 14 4 943.57 986.01 185.64 o
210 2 0 16 2 33186.80 31275.20 756.30 o
210 1 2 16 0 33186.80 31275.20 756.30 o
211 1 2 16 1 15225.80 15243.20 415.19 o
212 2 -2 16 2 27348.80 27241.80 591.93 o
212 1 2 16 2 27348.80 27241.80 591.93 o
213 1 2 16 3 9463.10 9139.90 475.71 o
214 2 -4 16 2 17459.40 18552.10 905.24 o
214 1 2 16 4 17459.40 18552.10 905.24 o
215 2 0 18 2 19.65 132.32 92.13 <
215 1 2 18 0 19.65 132.32 92.13 <
216 1 2 18 1 25216.60 23936.50 588.47 o
217 2 -2 18 2 11.34 105.22 60.51 <
217 1 2 18 2 11.34 105.22 60.51 <
218 1 2 18 3 17199.50 16474.40 699.47 o
219 2 -4 18 2 34.19 150.83 186.51 <
219 1 2 18 4 34.19 150.83 186.51 <
220 2 0 20 2 3304.36 3034.48 330.39 o
220 1 2 20 0 3304.36 3034.48 330.39 o
221 1 2 20 1 2304.58 2498.81 193.40 o
222 2 -2 20 2 2410.12 2179.19 218.69 o
222 1 2 20 2 2410.12 2179.19 218.69 o
223 1 2 20 3 2173.77 2333.57 269.28 o
224 2 -4 20 2 1079.50 734.45 335.15 <
224 1 2 20 4 1079.50 734.45 335.15 <
225 2 0 22 2 167689.00 164626.00 2752.35 o
225 1 2 22 0 167689.00 164626.00 2752.35 o
226 1 2 22 1 2390.06 2527.68 241.74 o
227 2 -2 22 2 134459.00 137607.00 1838.28 o
227 1 2 22 2 134459.00 137607.00 1838.28 o
228 1 2 22 3 1693.17 1690.89 266.08 o
229 2 0 24 2 5783.08 6274.72 533.03 o
229 1 2 24 0 5783.08 6274.72 533.03 o
230 1 2 24 1 33366.80 35075.10 931.22 o
231 2 -2 24 2 4320.86 5069.21 397.73 o
231 1 2 24 2 4320.86 5069.21 397.73 o
232 1 2 24 3 23756.20 26972.40 1395.25 o
233 2 0 26 2 7906.28 8018.68 673.80 o
233 1 2 26 0 7906.28 8018.68 673.80 o
234 1 2 26 1 153.75 495.42 134.13 o
235 2 -2 26 2 6741.34 6533.56 555.65 o
235 1 2 26 2 6741.34 6533.56 555.65 o
236 1 2 26 3 167.43 278.64 252.00 <
237 2 0 28 2 8683.87 7476.38 653.44 o
237 1 2 28 0 8683.87 7476.38 653.44 o
238 1 2 28 1 1428.56 1699.76 242.57 o
239 2 -2 28 2 7757.30 5887.95 861.29 o
239 1 2 28 2 7757.30 5887.95 861.29 o
240 2 0 30 2 11553.90 12086.80 1740.26 o
240 1 2 30 0 11553.90 12086.80 1740.26 o
241 1 2 30 1 21934.60 20794.20 2031.24 o
242 1 3 1 0 1208.69 1275.00 168.98 o
243 2 -1 1 3 21363.40 21796.80 479.09 o
243 1 3 1 1 21363.40 21796.80 479.09 o
244 1 3 1 2 921.65 1213.34 146.81 o
245 2 -3 1 3 14393.50 16182.20 548.73 o
245 1 3 1 3 14393.50 16182.20 548.73 o
246 1 3 1 4 537.46 924.98 217.70 o
247 1 3 3 0 29992.50 30070.70 718.50 o
248 2 -1 3 3 13707.20 13760.50 384.77 o
248 1 3 3 1 13707.20 13760.50 384.77 o
249 1 3 3 2 24896.70 24765.40 568.43 o
250 2 -3 3 3 8142.21 8756.75 505.84 o
250 1 3 3 3 8142.21 8756.75 505.84 o
251 1 3 3 4 15926.30 16446.40 748.18 o
252 1 3 5 0 6689.09 6213.40 305.55 o
253 2 -1 5 3 204614.00 195526.00 1341.05 o
253 1 3 5 1 204614.00 195526.00 1341.05 o
254 1 3 5 2 5045.58 4399.03 219.82 o
255 2 -3 5 3 126208.00 128333.00 1761.09 o
255 1 3 5 3 126208.00 128333.00 1761.09 o
256 1 3 5 4 2593.65 3207.69 347.47 o
257 1 3 7 0 5904.58 6150.91 322.16 o
258 2 -1 7 3 27341.20 27669.30 530.43 o
258 1 3 7 1 27341.20 27669.30 530.43 o
259 1 3 7 2 4822.15 4654.99 228.84 o
260 2 -3 7 3 16039.60 16446.00 626.37 o
260 1 3 7 3 16039.60 16446.00 626.37 o
261 1 3 7 4 3135.83 3165.93 327.17 o
262 1 3 9 0 67154.60 66072.10 1065.18 o
263 2 -1 9 3 7381.85 7926.52 303.67 o
263 1 3 9 1 7381.85 7926.52 303.67 o
264 1 3 9 2 52849.70 46952.60 701.99 o
265 2 -3 9 3 4299.78 4391.25 322.73 o
265 1 3 9 3 4299.78 4391.25 322.73 o
266 1 3 9 4 29328.20 30636.10 1026.24 o
267 1 3 11 0 44237.80 45586.50 993.34 o
268 2 -1 11 3 8004.82 7552.54 318.14 o
268 1 3 11 1 8004.82 7552.54 318.14 o
269 1 3 11 2 33663.20 31675.00 617.42 o
270 2 -3 11 3 7284.29 6998.51 414.28 o
270 1 3 11 3 7284.29 6998.51 414.28 o
271 1 3 11 4 16851.70 17335.20 974.82 o
272 1 3 13 0 42698.00 44443.30 1324.26 o
273 2 -1 13 3 5014.46 4659.97 250.95 o
273 1 3 13 1 5014.46 4659.97 250.95 o
274 1 3 13 2 35130.20 30250.70 730.44 o
275 2 -3 13 3 2957.85 2801.11 252.14 o
275 1 3 13 3 2957.85 2801.11 252.14 o
276 1 3 13 4 21184.60 23382.00 1876.91 o
277 1 3 15 0 4179.81 4236.82 405.10 o
278 2 -1 15 3 29504.70 30132.80 708.95 o
278 1 3 15 1 29504.70 30132.80 708.95 o
279 1 3 15 2 3467.96 3581.96 287.46 o
280 2 -3 15 3 18974.50 18881.00 798.66 o
280 1 3 15 3 18974.50 18881.00 798.66 o
281 1 3 15 4 2220.45 3422.08 1002.59 o
282 1 3 17 0 1914.50 1768.43 243.98 o
283 2 -1 17 3 118410.00 115412.00 1568.21 o
283 1 3 17 1 118410.00 115412.00 1568.21 o
284 1 3 17 2 1538.73 1373.33 172.57 o
285 2 -3 17 3 77442.30 71614.40 1585.06 o
285 1 3 17 3 77442.30 71614.40 1585.06 o
286 1 3 19 0 34600.80 33555.70 1324.47 o
287 2 -1 19 3 94.97 275.93 92.58 <
287 1 3 19 1 94.97 275.93 92.58 <
288 1 3 19 2 29277.50 26627.80 840.98 o
289 2 -3 19 3 110.42 62.32 116.51 <
289 1 3 19 3 110.42 62.32 116.51 <
290 1 3 21 0 6141.51 6396.66 597.38 o
291 2 -1 21 3 9924.35 9195.88 486.85 o
291 1 3 21 1 9924.35 9195.88 486.85 o
292 1 3 21 2 4794.02 4395.08 362.98 o
293 2 -3 21 3 7765.23 9079.49 1462.52 o
293 1 3 21 3 7765.23 9079.49 1462.52 o
294 1 3 23 0 8766.49 8232.46 699.88 o
295 2 -1 23 3 9991.42 8387.21 497.22 o
295 1 3 23 1 9991.42 8387.21 497.22 o
296 1 3 23 2 7275.75 6144.10 597.77 o
297 1 3 25 0 14432.40 14534.10 1047.37 o
298 2 -1 25 3 7473.10 6851.73 506.92 o
298 1 3 25 1 7473.10 6851.73 506.92 o
299 1 3 25 2 12604.40 11726.90 951.40 o
300 1 3 27 0 3636.55 3402.65 519.21 o
301 2 -1 27 3 64318.50 66612.00 2656.19 o
301 1 3 27 1 64318.50 66612.00 2656.19 o
302 1 3 29 0 3430.86 3936.55 1024.69 o
303 2 0 0 4 242481.00 233252.00 3882.08 o
303 1 4 0 0 242481.00 233252.00 3882.08 o
304 1 4 0 1 221.55 498.14 192.84 <
305 2 -2 0 4 192023.00 199454.00 2838.58 o
305 1 4 0 2 192023.00 199454.00 2838.58 o
306 1 4 0 3 225.22 1175.11 388.39 o
307 2 0 2 4 9.99 2885.25 362.63 o
307 1 4 2 0 9.99 2885.25 362.63 o
308 1 4 2 1 11443.50 11584.20 444.80 o
309 2 -2 2 4 10.61 2741.65 348.18 o
309 1 4 2 2 10.61 2741.65 348.18 o
310 1 4 2 3 8721.44 9183.27 586.79 o
311 2 -4 2 4 10.47 718.94 408.70 <
311 1 4 2 4 10.47 718.94 408.70 <
312 2 0 4 4 1305.42 1764.02 239.42 o
312 1 4 4 0 1305.42 1764.02 239.42 o
313 1 4 4 1 5222.51 5223.45 327.85 o
314 2 -2 4 4 1229.45 2090.10 276.45 o
314 1 4 4 2 1229.45 2090.10 276.45 o
315 1 4 4 3 3942.57 4491.66 442.02 o
316 2 -4 4 4 962.32 1604.32 565.03 <
316 1 4 4 4 962.32 1604.32 565.03 <
317 2 0 6 4 13387.50 13028.50 732.49 o
317 1 4 6 0 13387.50 13028.50 732.49 o
318 1 4 6 1 7643.01 8923.74 471.48 o
319 2 -2 6 4 11880.00 12035.80 577.66 o
319 1 4 6 2 11880.00 12035.80 577.66 o
320 1 4 6 3 4786.68 5590.88 449.78 o
321 2 0 8 4 1523.63 1216.57 240.33 o
321 1 4 8 0 1523.63 1216.57 240.33 o
322 1 4 8 1 56878.10 54568.50 1120.51 o
323 2 -2 8 4 1301.55 1154.59 205.98 o
323 1 4 8 2 1301.55 1154.59 205.98 o
324 1 4 8 3 39565.70 38886.90 1153.16 o
325 2 0 10 4 69876.00 67689.20 1943.67 o
325 1 4 10 0 69876.00 67689.20 1943.67 o
326 1 4 10 1 348.80 544.22 127.36 o
327 2 -2 10 4 56511.10 56788.40 1534.56 o
327 1 4 10 2 56511.10 56788.40 1534.56 o
328 1 4 10 3 195.35 301.68 214.52 <
329 2 0 12 4 31118.00 29698.80 1291.03 o
329 1 4 12 0 31118.00 29698.80 1291.03 o
330 1 4 12 1 2757.01 2859.48 260.28 o
331 2 -2 12 4 25390.40 25641.50 1083.34 o
331 1 4 12 2 25390.40 25641.50 1083.34 o
332 1 4 12 3 1562.50 2182.31 441.34 o
333 2 0 14 4 1292.39 1730.53 292.26 o
333 1 4 14 0 1292.39 1730.53 292.26 o
334 1 4 14 1 48394.50 49082.20 1151.39 o
335 2 -2 14 4 948.00 1312.11 226.74 o
335 1 4 14 2 948.00 1312.11 226.74 o
336 1 4 14 3 34182.50 42620.60 2854.25 o
337 2 0 16 4 20072.20 17997.40 977.37 o
337 1 4 16 0 20072.20 17997.40 977.37 o
338 1 4 16 1 7624.91 7993.90 477.63 o
339 2 -2 16 4 17496.00 17056.80 841.70 o
339 1 4 16 2 17496.00 17056.80 841.70 o
340 1 4 16 3 5053.27 6199.53 1244.24 o
341 2 0 18 4 24.32 73.61 106.13 <
341 1 4 18 0 24.32 73.61 106.13 <
342 1 4 18 1 14527.40 12742.60 692.02 o
343 2 -2 18 4 34.04 83.09 234.83 <
343 1 4 18 2 34.04 83.09 234.83 <
344 2 0 20 4 1388.68 1167.65 320.26 o
344 1 4 20 0 1388.68 1167.65 320.26 o
345 1 4 20 1 2063.05 1845.09 353.75 o
346 2 -2 20 4 1083.55 961.61 352.30 <
346 1 4 20 2 1083.55 961.61 352.30 <
347 2 0 22 4 90685.90 93733.00 4029.70 o
347 1 4 22 0 90685.90 93733.00 4029.70 o
348 1 4 22 1 1438.43 1074.65 367.70 <
349 2 0 24 4 2583.29 2975.20 1126.83 <
349 1 4 24 0 2583.29 2975.20 1126.83 <
350 1 5 1 0 539.01 756.96 224.02 o
351 2 -1 1 5 10606.40 12320.90 599.12 o
351 1 5 1 1 10606.40 12320.90 599.12 o
352 1 5 1 2 473.40 686.48 312.08 <
353 1 5 3 0 15972.20 15523.00 888.54 o
354 2 -1 3 5 5353.65 7194.92 492.29 o
354 1 5 3 1 5353.65 7194.92 492.29 o
355 1 5 3 2 13947.10 14242.70 1173.95 o
356 1 5 5 0 2604.23 2215.88 458.18 o
357 2 -1 5 5 83945.30 91011.80 1769.48 o
357 1 5 5 1 83945.30 91011.80 1769.48 o
358 1 5 5 2 2156.17 2108.87 523.60 o
359 1 5 7 0 3143.90 3381.48 694.10 o
360 2 -1 7 5 10346.50 11922.50 658.74 o
360 1 5 7 1 10346.50 11922.50 658.74 o
361 1 5 7 2 2787.88 5069.19 1094.26 o
362 1 5 9 0 29435.70 30284.80 1968.50 o
363 2 -1 9 5 2761.77 3618.15 384.04 o
363 1 5 9 1 2761.77 3618.15 384.04 o
364 1 5 9 2 24833.00 28847.60 2193.03 o
365 1 5 11 0 16924.90 20813.40 2555.56 o
366 2 -1 11 5 6412.05 6425.17 932.74 o
366 1 5 11 1 6412.05 6425.17 932.74 o
367 1 5 11 2 13838.50 17706.30 2527.86 o
368 1 5 13 0 21253.60 22281.30 2714.33 o
369 2 -1 13 5 1880.58 1685.03 397.09 o
369 1 5 13 1 1880.58 1685.03 397.09 o
370 2 -1 15 5 13066.00 15852.50 2413.60 o
370 1 5 15 1 13066.00 15852.50 2413.60 o
#END Loops that were not found in dictionaries
