#------------------------------------------------------------------------------
#$Date: 2016-02-13 21:28:24 +0200 (Sat, 13 Feb 2016) $
#$Revision: 176429 $
#$URL: svn://www.crystallography.net/cod/cif/4/34/40/4344078.cif $
#------------------------------------------------------------------------------
#
# This file is available in the Crystallography Open Database (COD),
# http://www.crystallography.net/
#
# All data on this site have been placed in the public domain by the
# contributors.
#
data_4344078
loop_
_publ_author_name
'Blazquez Alcover, Ignacio'
'Daviero-Minaud, Sylvie'
'David, R\'enald'
'Filimonov, Dmitry'
'Huv\'e, Marielle'
'Attfield, J. Paul'
'Kabbour, Houria'
'Mentr\'e, Olivier'
_publ_section_title
;
 Selective Metal Exsolution in BaFe2-yMy(PO4)2 (M = Co(2+), Ni(2+)) Solid
 Solutions.
;
_journal_issue                   17
_journal_name_full               'Inorganic chemistry'
_journal_page_first              8733
_journal_page_last               8743
_journal_paper_doi               10.1021/acs.inorgchem.5b01360
_journal_volume                  54
_journal_year                    2015
_chemical_formula_sum            'Ba Co Fe0.667 O8 P2'
_chemical_formula_weight         423.5
_chemical_name_systematic        ' ?'
_space_group_IT_number           2
_symmetry_cell_setting           triclinic
_symmetry_Int_Tables_number      2
_symmetry_space_group_name_Hall  '-P 1'
_symmetry_space_group_name_H-M   'P -1'
_cell_angle_alpha                70.606(3)
_cell_angle_beta                 99.558(3)
_cell_angle_gamma                120.013(3)
_cell_formula_units_Z            3
_cell_length_a                   8.3313(4)
_cell_length_b                   8.3316(4)
_cell_length_c                   8.3598(4)
_cell_measurement_temperature    293
_cell_volume                     473.96(4)
_diffrn_ambient_temperature      293
_diffrn_measured_fraction_theta_full 0.98
_diffrn_measured_fraction_theta_max 0.83
_diffrn_measurement_device       'four-circle diffractometer'
_diffrn_measurement_device_type  'Bruker CCD'
_diffrn_radiation_monochromator  graphite
_diffrn_radiation_probe          x-ray
_diffrn_radiation_source         'X-ray tube'
_diffrn_radiation_type           'Mo K\a'
_diffrn_radiation_wavelength     0.71073
_diffrn_reflns_av_R_equivalents  0.0194
_diffrn_reflns_av_unetI/netI     0.0775
_diffrn_reflns_limit_h_max       12
_diffrn_reflns_limit_h_min       -12
_diffrn_reflns_limit_k_max       12
_diffrn_reflns_limit_k_min       -12
_diffrn_reflns_limit_l_max       13
_diffrn_reflns_limit_l_min       -11
_diffrn_reflns_number            7624
_diffrn_reflns_theta_full        29.87
_diffrn_reflns_theta_max         34.69
_diffrn_reflns_theta_min         3.31
_exptl_absorpt_coefficient_mu    10.803
_exptl_absorpt_correction_T_max  0.7459
_exptl_absorpt_correction_T_min  0.6019
_exptl_absorpt_correction_type   multi-scan
_exptl_absorpt_process_details   'Bruker SADABS'
_exptl_crystal_colour            'Dark red'
_exptl_crystal_density_diffrn    4.4509
_exptl_crystal_description       Platelet
_exptl_crystal_F_000             583
_exptl_crystal_size_max          0.07
_exptl_crystal_size_mid          0.04
_exptl_crystal_size_min          0.01
_refine_diff_density_max         2.37
_refine_diff_density_min         -2.52
_refine_ls_extinction_method     none
_refine_ls_goodness_of_fit_gt    3.82
_refine_ls_goodness_of_fit_ref   3.93
_refine_ls_number_constraints    12
_refine_ls_number_parameters     93
_refine_ls_number_reflns         1676
_refine_ls_number_restraints     0
_refine_ls_R_factor_all          0.0832
_refine_ls_R_factor_gt           0.0576
_refine_ls_shift/su_max          0.0212
_refine_ls_shift/su_mean         0.0033
_refine_ls_structure_factor_coef F
_refine_ls_weighting_scheme      unit
_refine_ls_wR_factor_gt          0.0505
_refine_ls_wR_factor_ref         0.0626
_reflns_number_gt                1185
_reflns_number_total             1676
_reflns_threshold_expression     I>3\s(I)
_cod_data_source_file            ic5b01360_si_002.cif
_cod_data_source_block           I
_cod_depositor_comments
;
The following automatic conversions were performed:

'_diffrn_radiation_probe' value 'X-ray' changed to 'x-ray' according
to
/usr/data/users/saulius/crontab/automatic-downloads/rss-feeds/ACS/lib/dictionaries/cif_core.dic
dictionary named 'cif_core.dic' version 2.4.2 from 2011-04-26.

Automatic conversion script
Id: cif_fix_values 3271 2015-04-21 07:52:19Z andrius 

 Adding full bibliography for 4344078.cif.
;
_cod_original_formula_sum        'Ba1 Co1 Fe0.667 O8 P2'
_cod_database_code               4344078
loop_
_space_group_symop_id
_space_group_symop_operation_xyz
1 x,y,z
2 -x,-y,-z
loop_
_atom_site_label
_atom_site_type_symbol
_atom_site_fract_x
_atom_site_fract_y
_atom_site_fract_z
_atom_site_adp_type
_atom_site_U_iso_or_equiv
_atom_site_site_symmetry_multiplicity
_atom_site_occupancy
_atom_site_calc_flag
Ba1 Ba 0.5 0.5 0 Uani 0.0290(17) 1 1 d
Ba2 Ba 0.8340(3) 1.1639(3) 0.00576(19) Uani 0.0202(14) 2 1 d
Co1 Co 0.4953(13) -0.3349(14) 0.4943(5) Uani 0.0246(19) 2 0.75 d
Co2 Co 0.1475(11) 0.0028(13) 0.4893(6) Uani 0.0246(19) 2 0.75 d
Fe1 Fe 0.8198(9) 0.3270(11) 0.4912(4) Uani 0.0246(19) 2 1 d
P1 P 0.1678(13) 0.4123(18) 0.2792(7) Uiso 0.0087(12) 2 1 d
P2 P 0.4980(15) 0.074(2) 0.2784(9) Uiso 0.0192(13) 2 1 d
P3 P 0.1674(12) -0.7391(18) 0.7205(7) Uiso 0.0067(11) 2 1 d
O1 O 0.605(4) -0.042(4) 0.338(4) Uiso 0.016(6) 2 1 d
O2 O 0.370(3) -0.611(3) 0.645(3) Uiso 0.017(5) 2 1 d
O3 O 0.271(3) 0.294(4) 0.336(3) Uiso 0.011(6) 2 1 d
O4 O 0.294(3) -0.059(3) 0.361(3) Uiso 0.016(5) 2 1 d
O5 O -0.039(3) 0.279(3) 0.358(3) Uiso 0.020(6) 2 1 d
O6 O 0.142(4) -0.818(5) 0.914(2) Uiso 0.027(5) 2 1 d
O7 O 0.189(3) 0.495(3) 0.0857(17) Uiso 0.006(3) 2 1 d
O8 O 0.060(3) -0.618(4) 0.652(3) Uiso 0.011(5) 2 1 d
O9 O 0.593(3) 0.253(3) 0.341(3) Uiso 0.013(6) 2 1 d
O10 O 0.260(3) 0.589(3) 0.338(3) Uiso 0.011(5) 2 1 d
O11 O 0.075(3) -0.923(3) 0.671(3) Uiso 0.014(6) 2 1 d
O12 O 0.515(4) 0.151(5) 0.087(2) Uiso 0.023(4) 2 1 d
loop_
_atom_site_aniso_label
_atom_site_aniso_type_symbol
_atom_site_aniso_U_11
_atom_site_aniso_U_22
_atom_site_aniso_U_33
_atom_site_aniso_U_12
_atom_site_aniso_U_13
_atom_site_aniso_U_23
Ba1 Ba 0.0112(19) 0.012(2) 0.0678(14) -0.0004(17) 0.0072(18) -0.022(2)
Ba2 Ba 0.0165(18) 0.0098(17) 0.0324(6) 0.0052(15) -0.0077(14) -0.0092(16)
Co1 Co 0.026(3) 0.0107(19) 0.0164(8) -0.001(2) -0.0057(18) 0.002(2)
Co2 Co 0.026(3) 0.0107(19) 0.0164(8) -0.001(2) -0.0057(18) 0.002(2)
Fe1 Fe 0.026(3) 0.0107(19) 0.0164(8) -0.001(2) -0.0057(18) 0.002(2)
loop_
_atom_type_symbol
_atom_type_scat_dispersion_real
_atom_type_scat_dispersion_imag
_atom_type_scat_source
Ba -0.3244 2.2819 'International Tables Vol C tables 4.2.6.8 and 6.1.1.1'
Co 0.3494 0.9721 'International Tables Vol C tables 4.2.6.8 and 6.1.1.1'
Fe 0.3463 0.8444 'International Tables Vol C tables 4.2.6.8 and 6.1.1.1'
O 0.0106 0.0060 'International Tables Vol C tables 4.2.6.8 and 6.1.1.1'
P 0.1023 0.0942 'International Tables Vol C tables 4.2.6.8 and 6.1.1.1'
loop_
_geom_angle_atom_site_label_1
_geom_angle_atom_site_label_2
_geom_angle_atom_site_label_3
_geom_angle_site_symmetry_1
_geom_angle_site_symmetry_3
_geom_angle
O1 Co1 O2 . . 174.8(15)
O1 Co1 O2 . 2_646 90.5(12)
O1 Co1 O3 . 2_656 97.1(10)
O1 Co1 O9 . 2_656 87.3(13)
O1 Co1 O10 . 1_545 89.5(10)
O2 Co1 O2 . 2_646 93.8(12)
O2 Co1 O3 . 2_656 86.2(9)
O2 Co1 O9 . 2_656 89.0(11)
O2 Co1 O10 . 1_545 87.4(9)
O2 Co1 O3 2_646 2_656 85.1(12)
O2 Co1 O9 2_646 2_656 168.8(9)
O2 Co1 O10 2_646 1_545 92.3(11)
O3 Co1 O9 2_656 2_656 84.3(12)
O3 Co1 O10 2_656 1_545 172.9(12)
O9 Co1 O10 2_656 1_545 98.6(12)
O1 Co2 O3 2_656 . 94.8(10)
O1 Co2 O4 2_656 . 79.7(12)
O1 Co2 O5 2_656 2_556 82.9(9)
O1 Co2 O11 2_656 1_565 81.4(12)
O1 Co2 O11 2_656 2_546 169.1(15)
O3 Co2 O4 . . 90.2(11)
O3 Co2 O5 . 2_556 177.4(12)
O3 Co2 O11 . 1_565 91.2(12)
O3 Co2 O11 . 2_546 92.3(9)
O4 Co2 O5 . 2_556 88.2(12)
O4 Co2 O11 . 1_565 161.2(10)
O4 Co2 O11 . 2_546 92.1(11)
O5 Co2 O11 2_556 1_565 89.6(11)
O5 Co2 O11 2_556 2_546 89.7(9)
O11 Co2 O11 1_565 2_546 106.6(12)
O4 Fe1 O5 2_656 1_655 93.2(12)
O4 Fe1 O8 2_656 1_665 87.5(9)
O4 Fe1 O8 2_656 2_656 176.2(13)
O4 Fe1 O9 2_656 . 88.8(9)
O4 Fe1 O10 2_656 2_666 90.0(11)
O5 Fe1 O8 1_655 1_665 82.3(12)
O5 Fe1 O8 1_655 2_656 90.1(12)
O5 Fe1 O9 1_655 . 94.5(12)
O5 Fe1 O10 1_655 2_666 164.7(9)
O8 Fe1 O8 1_665 2_656 91.0(10)
O8 Fe1 O9 1_665 . 175.0(14)
O8 Fe1 O10 1_665 2_666 82.9(12)
O8 Fe1 O9 2_656 . 92.9(10)
O8 Fe1 O10 2_656 2_666 86.4(12)
O9 Fe1 O10 . 2_666 100.5(12)
O3 P1 O5 . . 108.8(15)
O3 P1 O7 . . 105.8(17)
O3 P1 O10 . . 112.5(15)
O5 P1 O7 . . 118.5(12)
O5 P1 O10 . . 107.9(17)
O7 P1 O10 . . 103.3(14)
O1 P2 O4 . . 109.1(15)
O1 P2 O9 . . 110.7(16)
O1 P2 O12 . . 106(2)
O4 P2 O9 . . 106.8(17)
O4 P2 O12 . . 118.7(14)
O9 P2 O12 . . 105.2(17)
O2 P3 O6 . . 119.1(13)
O2 P3 O8 . . 108.6(14)
O2 P3 O11 . . 108.7(17)
O6 P3 O8 . . 107(2)
O6 P3 O11 . . 101.4(17)
O8 P3 O11 . . 112.1(15)
loop_
_geom_bond_atom_site_label_1
_geom_bond_atom_site_label_2
_geom_bond_site_symmetry_2
_geom_bond_distance
Co1 O1 . 2.14(3)
Co1 O2 . 2.02(2)
Co1 O2 2_646 2.03(3)
Co1 O3 2_656 2.16(3)
Co1 O9 2_656 2.09(4)
Co1 O10 1_545 2.10(2)
Co2 O1 2_656 2.26(3)
Co2 O3 . 2.11(2)
Co2 O4 . 2.08(3)
Co2 O5 2_556 2.05(2)
Co2 O11 1_565 2.08(3)
Co2 O11 2_546 2.05(2)
Fe1 O4 2_656 1.96(2)
Fe1 O5 1_655 2.00(3)
Fe1 O8 1_665 2.15(3)
Fe1 O8 2_656 2.09(2)
Fe1 O9 . 2.02(2)
Fe1 O10 2_666 2.10(3)
P1 O3 . 1.53(4)
P1 O5 . 1.62(2)
P1 O7 . 1.535(15)
P1 O10 . 1.49(3)
P2 O1 . 1.54(4)
P2 O4 . 1.61(2)
P2 O9 . 1.53(3)
P2 O12 . 1.518(18)
P3 O2 . 1.58(2)
P3 O6 . 1.534(19)
P3 O8 . 1.58(4)
P3 O11 . 1.50(3)
loop_
_refln_index_h
_refln_index_k
_refln_index_l
_refln_F_squared_calc
_refln_F_squared_meas
_refln_F_squared_sigma
_refln_observed_status
2 0 0 74.91 2.11 3.52 <
3 0 0 68588.80 67824.90 3808.01 o
4 0 0 5.49 -1.41 2.96 <
5 0 0 42.13 24.35 4.64 o
6 0 0 25495.20 26957.00 1514.61 o
7 0 0 12.56 23.85 8.37 <
8 0 0 16.07 16.96 8.94 <
-9 1 0 71.03 197.94 20.69 o
-8 1 0 4206.59 4182.35 275.97 o
-7 1 0 70.70 18.58 7.18 <
-6 1 0 104.51 262.53 20.76 o
-5 1 0 6423.86 6048.01 346.55 o
-4 1 0 31.34 4.78 2.53 <
-3 1 0 59.95 0.84 2.53 <
1 1 0 9937.94 9991.12 1104.52 o
2 1 0 139.64 -2.46 3.94 <
3 1 0 38.87 1.41 3.87 <
4 1 0 10003.10 9617.27 628.50 o
5 1 0 126.84 31.73 7.25 o
6 1 0 24.85 47.78 7.81 o
7 1 0 3342.06 3294.63 218.55 o
8 1 0 68.87 130.10 16.68 o
-9 2 0 11.15 -8.16 7.53 <
-8 2 0 22.49 51.72 10.06 o
-7 2 0 7624.03 7698.49 440.91 o
-6 2 0 46.38 2.39 4.29 <
-5 2 0 35.93 14.21 3.24 o
-4 2 0 7439.65 8239.53 384.97 o
-3 2 0 95.29 0.35 1.90 <
-2 2 0 71.62 197.73 23.43 o
-1 2 0 17895.60 19776.60 1543.24 o
0 2 0 70.80 -0.07 4.57 <
1 2 0 37.06 11.68 5.21 <
2 2 0 7584.53 8266.97 465.32 o
3 2 0 15.39 21.60 4.29 o
4 2 0 62.07 35.96 7.81 o
5 2 0 8406.43 8853.46 499.38 o
6 2 0 7.57 55.80 9.29 o
7 2 0 25.53 16.89 11.96 <
-9 3 0 629.30 631.46 39.33 o
-8 3 0 48.45 2.39 5.63 <
-7 3 0 14.04 0.28 4.78 <
-6 3 0 269.01 270.34 17.87 o
-5 3 0 68.74 20.83 3.59 o
-4 3 0 2.87 2.67 2.32 <
-3 3 0 17884.80 20147.00 1131.82 o
-2 3 0 23.37 2.60 2.67 <
-1 3 0 20.02 25.19 3.31 o
0 3 0 104.33 169.23 25.33 o
1 3 0 10.52 -3.03 3.17 <
2 3 0 30.26 58.26 6.19 o
3 3 0 247.95 352.53 20.41 o
4 3 0 10.43 7.18 5.70 <
5 3 0 3.89 30.61 9.01 o
6 3 0 3030.54 3005.36 239.31 o
-9 4 0 41.36 168.81 14.64 o
-8 4 0 1560.58 1464.44 86.34 o
-7 4 0 2.12 18.29 5.56 o
-6 4 0 84.87 71.49 7.39 o
-5 4 0 604.66 440.41 29.91 o
-4 4 0 15.78 0.28 2.53 <
-3 4 0 21.70 10.20 3.03 o
-2 4 0 1917.71 2259.00 115.33 o
-1 4 0 28.32 17.38 4.22 o
0 4 0 3.52 -1.27 4.93 <
1 4 0 3191.47 3412.28 189.49 o
2 4 0 65.03 94.85 9.29 o
3 4 0 17.02 16.11 8.94 <
4 4 0 1500.43 1622.19 131.23 o
5 4 0 47.21 153.82 21.18 o
-9 5 0 27.09 10.06 6.26 <
-8 5 0 121.55 213.21 18.93 o
-7 5 0 13825.50 13358.30 763.25 o
-6 5 0 68.32 2.04 4.22 <
-5 5 0 267.26 335.71 20.55 o
-4 5 0 34817.80 34921.00 1959.66 o
-3 5 0 153.34 57.49 6.05 o
-1 5 0 23359.50 24245.50 1541.56 o
0 5 0 142.13 243.04 31.95 o
1 5 0 136.05 350.56 26.32 o
2 5 0 17484.30 18321.60 1166.51 o
3 5 0 124.59 219.26 25.61 o
4 5 0 63.36 240.23 28.29 o
-9 6 0 2274.32 2275.88 132.43 o
-8 6 0 84.28 34.34 6.97 o
-7 6 0 19.80 42.43 6.90 o
-6 6 0 14946.30 15149.60 849.66 o
-5 6 0 97.61 20.19 6.76 <
-4 6 0 71.93 65.58 8.44 o
-3 6 0 8415.65 8282.31 528.37 o
-2 6 0 60.62 28.36 6.26 o
-1 6 0 131.68 150.23 17.31 o
0 6 0 5416.80 5382.92 345.00 o
1 6 0 36.71 7.81 7.04 <
2 6 0 97.58 273.09 29.83 o
3 6 0 6798.96 6817.52 537.24 o
-9 7 0 27.08 5.00 6.33 <
-8 7 0 6521.98 6915.54 390.03 o
-7 7 0 33.92 40.46 7.25 o
-6 7 0 12.42 9.43 6.68 <
-5 7 0 13573.20 13178.10 1026.34 o
-4 7 0 47.10 28.15 8.51 o
-3 7 0 36.82 64.88 11.40 o
-2 7 0 14958.90 15205.40 1184.52 o
-1 7 0 25.33 31.52 7.95 o
0 7 0 48.60 91.47 12.10 o
1 7 0 9268.05 9343.55 597.33 o
2 7 0 6.52 5.14 10.34 <
-8 8 0 0.99 7.67 6.47 <
-7 8 0 983.18 860.35 51.58 o
-6 8 0 6.90 -2.74 6.47 <
-5 8 0 0.38 2.81 8.02 <
-4 8 0 177.75 159.87 20.76 o
-3 8 0 6.18 15.97 9.29 <
-2 8 0 9.24 22.52 9.57 <
-1 8 0 494.76 440.41 39.83 o
0 8 0 5.72 15.48 11.19 <
-7 9 0 18.75 11.89 7.39 <
-6 9 0 1615.75 1498.63 101.25 o
-5 9 0 17.24 8.73 7.53 <
-4 9 0 13.10 6.61 9.36 <
-3 9 0 963.29 1047.80 86.83 o
-2 9 0 14.99 15.27 10.55 <
4 -9 1 195.97 324.24 32.58 o
5 -9 1 64.34 13.02 9.78 <
1 -8 1 3109.11 3140.32 249.37 o
2 -8 1 304.52 388.48 35.60 o
3 -8 1 120.67 74.52 13.37 o
4 -8 1 8100.79 7620.17 497.76 o
5 -8 1 238.23 233.89 20.69 o
6 -8 1 67.87 13.51 7.25 <
7 -8 1 3860.40 3979.35 225.59 o
-1 -7 1 2329.18 2235.07 179.36 o
0 -7 1 77.00 21.32 9.99 <
1 -7 1 12.01 30.75 9.78 o
2 -7 1 2090.91 2104.97 167.54 o
3 -7 1 102.70 53.90 9.01 o
4 -7 1 15.45 -3.73 5.42 <
5 -7 1 1382.43 1345.80 90.56 o
6 -7 1 180.43 92.53 8.58 o
7 -7 1 12.41 -1.97 5.00 <
8 -7 1 2211.72 2036.43 117.16 o
-3 -6 1 946.58 943.31 79.44 o
-2 -6 1 1.44 30.40 9.57 o
-1 -6 1 15.20 32.58 8.44 o
0 -6 1 1491.09 1547.68 101.47 o
1 -6 1 3.30 22.38 8.65 <
2 -6 1 15.52 13.93 5.70 <
3 -6 1 7532.51 7698.70 501.77 o
4 -6 1 30.58 3.87 4.22 <
5 -6 1 19.30 12.74 4.57 <
6 -6 1 752.32 630.75 37.72 o
7 -6 1 30.23 28.85 6.19 o
8 -6 1 38.91 4.71 6.33 <
9 -6 1 1408.92 1322.79 89.57 o
-4 -5 1 2.06 -3.94 10.06 <
-3 -5 1 14.07 18.01 9.85 <
-2 -5 1 243.75 237.27 22.52 o
-1 -5 1 2.84 0.35 6.05 <
0 -5 1 10.52 -3.10 4.93 <
1 -5 1 1533.47 1594.61 91.12 o
2 -5 1 12.16 36.45 6.12 o
3 -5 1 23.22 1.55 3.31 <
4 -5 1 434.40 398.69 20.55 o
5 -5 1 6.49 1.34 3.73 <
6 -5 1 20.33 13.37 4.08 o
7 -5 1 697.54 689.44 40.95 o
8 -5 1 5.25 3.38 6.26 <
9 -5 1 13.13 -10.55 6.68 <
-5 -4 1 5.50 4.36 10.13 <
-4 -4 1 14158.80 14218.60 1114.30 o
-3 -4 1 38.79 53.27 11.47 o
-2 -4 1 5.34 4.08 5.28 <
-1 -4 1 17529.60 18294.40 1423.55 o
0 -4 1 30.69 52.35 5.77 o
1 -4 1 11.64 0.63 3.17 <
2 -4 1 21937.60 21419.70 995.17 o
3 -4 1 19.75 2.96 2.88 <
4 -4 1 41.04 20.62 3.66 o
5 -4 1 21854.90 22394.40 1043.72 o
6 -4 1 8.68 3.80 3.17 <
7 -4 1 48.99 35.75 5.14 o
8 -4 1 13681.50 13821.10 899.69 o
9 -4 1 29.58 21.25 8.58 <
-6 -3 1 2395.71 2437.51 195.68 o
-5 -3 1 105.09 189.14 23.50 o
-4 -3 1 20.70 20.41 8.58 <
-3 -3 1 8647.95 8328.12 410.93 o
-2 -3 1 264.03 346.90 24.42 o
-1 -3 1 21.12 -0.49 3.59 <
0 -3 1 56846.30 57174.00 3633.79 o
1 -3 1 226.80 39.69 4.93 o
2 -3 1 61.90 12.88 2.74 o
3 -3 1 12068.60 11446.00 744.67 o
4 -3 1 61.86 7.60 2.39 o
5 -3 1 113.92 1.62 2.88 <
6 -3 1 8276.39 7923.52 453.36 o
7 -3 1 39.84 8.80 4.29 <
8 -3 1 79.61 0.00 5.07 <
9 -3 1 6464.53 6617.47 433.45 o
-7 -2 1 22.98 57.84 14.78 o
-6 -2 1 107.00 296.38 25.26 o
-5 -2 1 13560.90 14672.10 935.22 o
-4 -2 1 77.44 220.24 19.35 o
-2 -2 1 41299.70 41466.20 2327.60 o
1 -2 1 63246.00 63047.40 4187.70 o
2 -2 1 322.60 0.63 6.90 <
3 -2 1 64.02 6.61 2.88 <
4 -2 1 42254.00 40628.30 2085.69 o
5 -2 1 311.08 257.04 18.79 o
6 -2 1 35.05 2.60 3.59 <
7 -2 1 17869.80 17524.70 1139.84 o
8 -2 1 106.63 191.60 14.71 o
9 -2 1 11.88 7.46 7.74 <
-8 -1 1 74.75 199.84 26.11 o
-7 -1 1 2179.26 2126.50 139.32 o
-6 -1 1 15.75 3.80 6.47 <
-5 -1 1 113.42 24.14 7.25 o
-4 -1 1 563.05 551.80 29.69 o
-3 -1 1 3.04 6.76 4.01 <
-2 -1 1 101.55 6.54 4.64 <
-1 -1 1 1328.15 1329.62 148.68 o
0 -1 1 117.53 1.76 3.10 <
1 -1 1 73.05 27.02 6.76 o
2 -1 1 1380.15 1260.73 150.30 o
4 -1 1 16.84 3.94 2.67 <
5 -1 1 3384.12 3053.00 158.04 o
6 -1 1 123.43 98.44 8.87 o
7 -1 1 6.38 -0.49 5.14 <
8 -1 1 906.67 793.86 55.24 o
9 -1 1 95.08 318.33 26.18 o
-8 0 1 11.92 5.56 8.94 <
-7 0 1 7.29 5.42 6.19 <
-6 0 1 634.61 511.48 31.59 o
-5 0 1 40.48 4.93 5.42 <
-4 0 1 8.37 4.57 3.80 <
-3 0 1 17825.50 20781.90 1685.45 o
-1 0 1 67.56 -2.74 3.17 <
2 0 1 101.22 -5.49 2.88 <
3 0 1 98.43 167.40 8.44 o
4 0 1 2.38 6.33 2.60 <
5 0 1 85.48 51.51 6.33 o
6 0 1 5544.96 5464.47 358.44 o
7 0 1 9.02 20.12 7.81 <
8 0 1 35.48 18.22 8.73 <
-9 1 1 18.97 102.73 15.20 o
-8 1 1 4092.76 3862.61 255.64 o
-7 1 1 22.89 -2.81 5.14 <
-6 1 1 14.63 71.91 9.71 o
-5 1 1 6431.12 6329.33 362.24 o
-4 1 1 13.94 5.84 4.29 <
-3 1 1 9.42 0.63 5.35 <
-2 1 1 18031.30 18370.80 2027.71 o
0 1 1 41.96 2.46 2.67 <
1 1 1 17988.20 19310.50 1563.72 o
2 1 1 25.75 1.97 2.67 <
3 1 1 24.11 2.96 2.53 <
4 1 1 8667.59 9132.95 463.92 o
5 1 1 24.26 14.50 5.35 <
6 1 1 6.44 -7.04 6.12 <
7 1 1 2625.34 2480.15 165.22 o
8 1 1 23.21 54.46 11.54 o
-9 2 1 45.10 37.93 10.34 o
-8 2 1 47.19 53.34 10.27 o
-7 2 1 2151.99 2018.35 117.58 o
-6 2 1 98.27 91.97 9.36 o
-5 2 1 93.61 16.75 4.57 o
-4 2 1 11471.10 10916.00 850.85 o
-3 2 1 92.64 5.14 3.52 <
0 2 1 71.78 4.64 3.66 <
1 2 1 25.40 5.56 4.43 <
2 2 1 11153.00 10609.80 857.96 o
3 2 1 92.21 113.15 13.86 o
4 2 1 79.33 92.67 8.80 o
5 2 1 3393.55 3655.95 207.86 o
6 2 1 64.07 152.41 16.54 o
7 2 1 84.39 72.26 12.67 o
-9 3 1 13105.20 13023.40 852.26 o
-8 3 1 34.34 17.31 6.61 <
-7 3 1 8.39 0.42 4.93 <
-6 3 1 64007.60 65648.50 4172.85 o
-5 3 1 75.43 10.91 4.50 <
-4 3 1 45.98 5.42 2.81 <
-3 3 1 68257.20 63766.10 3513.32 o
-2 3 1 54.42 12.31 4.08 o
-1 3 1 145.26 393.27 45.81 o
0 3 1 68680.20 67101.90 5437.17 o
1 3 1 36.09 10.84 4.22 <
2 3 1 96.31 116.38 14.42 o
3 3 1 64605.50 65259.00 4250.96 o
4 3 1 33.51 84.58 8.44 o
5 3 1 26.66 135.10 13.44 o
6 3 1 13032.80 13251.70 867.39 o
-9 4 1 78.91 137.85 13.37 o
-8 4 1 2387.65 1997.59 116.52 o
-7 4 1 29.72 -6.12 5.56 <
-6 4 1 118.50 86.41 16.32 o
-5 4 1 9487.01 9512.01 741.29 o
-4 4 1 6.26 -1.76 2.46 <
-3 4 1 25.37 17.87 3.52 o
-2 4 1 11439.20 11265.20 717.44 o
-1 4 1 42.35 4.01 4.57 <
0 4 1 1.42 4.64 3.31 <
1 4 1 6897.13 6526.14 368.29 o
2 4 1 109.58 99.14 9.78 o
3 4 1 10.12 9.08 7.74 <
4 4 1 2630.29 2020.81 114.34 o
5 4 1 65.95 107.52 14.35 o
-9 5 1 26.65 0.42 6.33 <
-8 5 1 13.13 18.29 6.47 <
-7 5 1 8230.00 8738.56 682.47 o
-6 5 1 79.71 6.47 4.93 <
-5 5 1 28.55 17.80 4.36 o
-4 5 1 6271.65 6415.10 409.31 o
-3 5 1 76.39 0.91 3.87 <
-2 5 1 66.60 60.94 7.32 o
-1 5 1 8761.38 9470.91 738.34 o
0 5 1 27.06 6.05 4.64 <
1 5 1 56.82 29.91 6.12 o
2 5 1 7760.14 8116.04 518.52 o
3 5 1 4.32 5.28 7.11 <
4 5 1 34.24 29.76 11.96 <
-9 6 1 3080.76 3070.09 177.88 o
-8 6 1 26.26 8.02 6.83 <
-7 6 1 14.84 10.48 6.19 <
-6 6 1 645.70 477.78 33.28 o
-5 6 1 18.56 -2.46 5.91 <
-4 6 1 14.75 25.61 5.91 o
-3 6 1 271.67 272.10 20.12 o
-2 6 1 9.80 -3.73 6.33 <
-1 6 1 9.45 69.31 10.55 o
0 6 1 5594.17 5589.72 358.02 o
1 6 1 2.79 -8.23 7.53 <
2 6 1 3.14 52.98 12.31 o
3 6 1 634.18 732.43 62.84 o
-9 7 1 9.08 33.14 9.15 o
-8 7 1 2223.29 1998.58 115.12 o
-7 7 1 10.99 20.83 7.32 <
-6 7 1 28.13 8.58 6.12 <
-5 7 1 2672.79 2696.53 212.99 o
-4 7 1 17.36 0.21 6.61 <
-3 7 1 9.62 -4.29 5.35 <
-2 7 1 1279.56 1412.08 92.95 o
-1 7 1 6.74 9.99 6.54 <
0 7 1 24.04 4.29 6.40 <
1 7 1 834.81 851.14 71.63 o
2 7 1 20.12 115.47 19.00 o
-8 8 1 158.36 175.21 15.34 o
-7 8 1 9514.78 9687.36 619.00 o
-6 8 1 59.68 -0.77 6.90 <
-5 8 1 214.40 179.71 20.19 o
-4 8 1 14040.30 13999.50 1091.22 o
-3 8 1 92.06 52.63 11.40 o
-2 8 1 200.90 347.39 33.85 o
-1 8 1 13687.00 13769.20 878.22 o
0 8 1 103.12 126.52 19.07 o
-7 9 1 8.36 25.26 8.87 <
-6 9 1 2293.16 2200.17 175.84 o
-5 9 1 55.95 30.75 11.05 <
-4 9 1 56.10 113.29 16.61 o
-3 9 1 6516.92 6638.94 520.84 o
-2 9 1 51.16 4.29 8.87 <
2 -8 2 33.22 7.88 9.64 <
3 -8 2 22.90 15.76 9.22 <
4 -8 2 3406.67 3254.03 256.83 o
5 -8 2 37.41 52.77 9.99 o
6 -8 2 36.14 33.92 8.30 o
-1 -7 2 595.63 515.64 46.23 o
0 -7 2 28.19 58.68 13.44 o
1 -7 2 6.35 -0.14 8.16 <
2 -7 2 714.33 692.18 58.05 o
3 -7 2 30.44 41.16 10.13 o
4 -7 2 13.64 18.65 6.90 <
5 -7 2 1492.41 1575.68 105.48 o
6 -7 2 14.70 18.72 6.61 <
7 -7 2 7.43 12.81 7.04 <
8 -7 2 1163.36 1203.66 72.26 o
-2 -6 2 231.96 397.70 38.98 o
-1 -6 2 31.76 22.52 9.92 <
0 -6 2 21517.00 21631.80 1683.69 o
1 -6 2 352.97 350.77 44.40 o
2 -6 2 69.62 47.57 9.99 o
3 -6 2 11911.00 11988.60 684.93 o
4 -6 2 223.34 279.56 18.51 o
5 -6 2 81.40 41.30 7.04 o
6 -6 2 12124.50 12914.10 734.19 o
7 -6 2 86.35 86.90 9.01 o
8 -6 2 74.36 53.13 9.57 o
-4 -5 2 146.50 287.44 32.65 o
-3 -5 2 147.57 188.44 22.59 o
-2 -5 2 8035.69 8258.03 527.95 o
-1 -5 2 250.18 354.08 31.95 o
0 -5 2 120.75 66.07 10.98 o
1 -5 2 12422.30 12535.70 975.96 o
2 -5 2 384.75 535.62 31.52 o
3 -5 2 109.44 45.88 5.35 o
4 -5 2 11019.80 11175.60 572.49 o
5 -5 2 457.96 452.59 25.26 o
6 -5 2 99.16 15.06 4.57 o
7 -5 2 7864.53 7865.47 450.48 o
8 -5 2 173.90 233.12 20.05 o
9 -5 2 27.56 3.94 7.67 <
-5 -4 2 38.68 172.60 33.70 o
-4 -4 2 836.74 822.22 98.09 o
-3 -4 2 47.21 50.52 12.24 o
-2 -4 2 37.08 74.38 9.43 o
-1 -4 2 2458.83 2346.88 151.50 o
0 -4 2 104.63 46.72 6.76 o
1 -4 2 48.45 12.95 3.87 o
2 -4 2 4122.14 4520.10 213.28 o
3 -4 2 227.15 246.00 13.86 o
4 -4 2 15.18 3.59 3.66 <
5 -4 2 3658.38 3322.56 190.55 o
6 -4 2 196.05 203.21 13.23 o
7 -4 2 4.65 9.85 5.77 <
8 -4 2 926.63 797.59 55.45 o
9 -4 2 171.58 394.04 30.75 o
-6 -3 2 1432.95 1485.12 121.52 o
-5 -3 2 8.65 2.96 9.57 <
-4 -3 2 35.49 13.72 7.25 <
-3 -3 2 7320.67 7714.25 493.05 o
-2 -3 2 28.42 3.80 9.22 <
-1 -3 2 13.83 7.95 4.71 <
0 -3 2 19.14 49.40 6.76 o
1 -3 2 39.37 -0.91 3.10 <
2 -3 2 7.71 7.95 3.31 <
3 -3 2 784.79 821.02 43.49 o
4 -3 2 39.19 45.95 5.49 o
5 -3 2 56.04 18.29 4.08 o
6 -3 2 7284.92 7297.41 417.48 o
7 -3 2 53.75 103.93 10.98 o
8 -3 2 77.62 19.91 7.39 <
9 -3 2 964.62 979.34 67.41 o
-7 -2 2 16.30 21.39 12.45 <
-6 -2 2 13.80 24.06 10.70 <
-5 -2 2 725.95 662.49 56.29 o
-4 -2 2 7.73 -8.02 5.91 <
-3 -2 2 18.03 15.34 6.68 <
-2 -2 2 1564.54 2025.24 130.95 o
-1 -2 2 19.67 -2.25 3.80 <
0 -2 2 17.89 -3.52 2.53 <
1 -2 2 709.64 765.64 44.75 o
2 -2 2 14.42 -4.78 2.25 <
3 -2 2 39.47 7.53 2.81 <
4 -2 2 1517.09 1926.31 98.93 o
5 -2 2 10.62 -1.55 4.22 <
6 -2 2 24.83 1.27 4.71 <
7 -2 2 228.78 199.27 18.79 o
8 -2 2 6.53 15.83 7.88 <
9 -2 2 8.99 -3.87 9.29 <
-7 -1 2 6775.23 7031.43 554.05 o
-6 -1 2 17.36 86.69 12.17 o
-5 -1 2 9.79 5.98 6.76 <
-4 -1 2 22376.30 23140.40 1273.39 o
-3 -1 2 56.19 21.95 4.50 o
-2 -1 2 15.90 -2.11 2.88 <
-1 -1 2 40431.50 41256.50 3205.34 o
0 -1 2 51.35 -1.83 3.73 <
1 -1 2 11.76 -0.21 4.43 <
2 -1 2 40295.40 38927.30 3213.01 o
3 -1 2 4.19 7.53 3.87 <
4 -1 2 9.16 -4.29 3.45 <
5 -1 2 16988.70 17467.50 898.28 o
6 -1 2 22.23 24.84 4.50 o
7 -1 2 43.45 2.18 4.08 <
8 -1 2 8919.79 9101.29 594.86 o
-8 0 2 131.84 68.25 15.34 o
-7 0 2 16.27 15.27 8.23 <
-6 0 2 15129.90 16273.90 1036.97 o
-5 0 2 201.74 135.95 14.21 o
-4 0 2 24.45 18.22 4.08 o
-3 0 2 12095.80 11282.20 574.88 o
-2 0 2 222.52 23.57 5.21 o
-1 0 2 12.91 5.07 3.52 <
1 0 2 126.47 30.96 5.42 o
2 0 2 56.82 -0.49 3.03 <
3 0 2 56191.60 55610.30 3167.13 o
4 0 2 31.44 7.11 3.38 <
5 0 2 62.43 14.71 3.80 o
6 0 2 5213.88 5302.70 304.05 o
7 0 2 55.38 18.15 6.83 <
8 0 2 65.88 39.40 9.22 o
-8 1 2 9377.90 10033.60 784.78 o
-7 1 2 30.10 27.23 8.23 o
-6 1 2 111.47 271.54 20.19 o
-5 1 2 34319.90 36194.20 1808.66 o
-4 1 2 20.14 9.36 3.94 <
-3 1 2 83.33 -0.99 3.66 <
-2 1 2 63157.10 61719.20 7314.44 o
-1 1 2 168.94 3.17 3.38 <
0 1 2 48.39 10.98 2.96 o
1 1 2 64034.80 63625.40 4324.35 o
2 1 2 243.24 142.00 13.09 o
3 1 2 9.88 -1.76 2.11 <
4 1 2 23922.90 23231.90 1327.29 o
5 1 2 137.43 84.93 9.99 o
6 1 2 4.70 -3.38 5.84 <
7 1 2 14064.50 13348.50 873.16 o
-9 2 2 17.93 35.67 10.70 o
-8 2 2 87.10 186.40 19.07 o
-7 2 2 2636.17 2779.06 158.60 o
-6 2 2 37.44 11.82 6.19 <
-5 2 2 181.88 48.55 6.90 o
-4 2 2 1878.79 2207.00 142.00 o
-3 2 2 125.81 -3.03 3.31 <
-2 2 2 149.00 15.69 7.11 <
-1 2 2 1397.37 1284.93 85.00 o
0 2 2 302.23 253.74 17.66 o
1 2 2 67.66 52.63 10.20 o
2 2 2 1994.18 2156.83 110.61 o
3 2 2 357.28 641.31 44.89 o
4 2 2 35.30 37.43 5.56 o
5 2 2 1376.73 1259.81 85.07 o
6 2 2 169.02 390.31 29.13 o
7 2 2 25.36 15.20 8.94 <
-9 3 2 3149.97 3103.87 206.45 o
-8 3 2 46.49 11.40 8.30 <
-7 3 2 8.66 -0.99 5.07 <
-6 3 2 257.86 293.77 27.51 o
-5 3 2 133.78 6.40 5.56 <
-4 3 2 31.06 -5.42 4.01 <
-3 3 2 109.77 194.35 28.08 o
-2 3 2 98.87 7.39 3.73 <
-1 3 2 93.02 155.65 14.64 o
0 3 2 17680.80 20944.50 1366.56 o
1 3 2 20.09 -3.38 2.53 <
2 3 2 120.72 40.32 8.16 o
3 3 2 250.61 274.92 20.69 o
4 3 2 6.58 16.11 5.21 o
5 3 2 58.11 138.27 15.62 o
6 3 2 751.28 780.07 55.17 o
-9 4 2 37.33 73.32 10.20 o
-8 4 2 6942.65 6913.29 453.64 o
-7 4 2 14.37 6.68 5.84 <
-6 4 2 31.20 13.58 6.76 <
-5 4 2 8883.83 9054.00 705.76 o
-4 4 2 1.11 0.35 4.71 <
-3 4 2 23.27 12.38 3.73 o
-2 4 2 7633.24 8206.46 536.11 o
-1 4 2 2.28 -1.27 3.10 <
0 4 2 10.23 10.13 4.86 <
1 4 2 6248.04 6324.83 414.17 o
2 4 2 15.07 35.18 7.53 o
3 4 2 7.17 1.83 6.26 <
4 4 2 6843.30 7025.66 570.73 o
5 4 2 27.42 38.84 9.08 o
-9 5 2 86.55 57.63 9.43 o
-8 5 2 17.82 25.54 9.22 <
-7 5 2 3446.74 3341.07 263.31 o
-6 5 2 104.67 66.42 10.84 o
-5 5 2 26.32 19.49 5.21 o
-4 5 2 6542.01 6049.14 386.52 o
-3 5 2 59.82 1.62 5.14 <
-2 5 2 36.29 75.01 6.68 o
-1 5 2 9498.34 9413.85 471.94 o
0 5 2 32.24 20.69 4.71 o
1 5 2 55.23 122.43 11.26 o
2 5 2 2041.28 2073.30 135.03 o
3 5 2 40.17 146.78 15.55 o
4 5 2 84.16 141.08 20.97 o
-9 6 2 12683.20 12582.00 982.22 o
-8 6 2 63.17 42.71 11.12 o
-7 6 2 27.35 45.31 9.64 o
-6 6 2 25370.90 25874.20 1426.51 o
-5 6 2 103.66 58.90 7.81 o
-4 6 2 123.03 379.20 32.72 o
-3 6 2 64330.20 65561.50 5094.14 o
-2 6 2 137.90 125.67 13.93 o
-1 6 2 141.74 504.87 34.41 o
0 6 2 25854.80 26947.30 2105.04 o
1 6 2 90.79 74.73 10.34 o
2 6 2 68.74 278.64 24.35 o
3 6 2 13433.10 13266.80 846.63 o
-9 7 2 64.55 49.04 12.88 o
-8 7 2 3125.49 3198.30 253.24 o
-7 7 2 13.49 10.98 6.90 <
-6 7 2 56.75 20.76 6.76 o
-5 7 2 2075.97 2144.51 120.68 o
-4 7 2 7.62 2.46 5.49 <
-3 7 2 25.94 22.45 6.83 o
-2 7 2 3583.33 3490.03 224.68 o
-1 7 2 21.81 6.76 6.47 <
0 7 2 2.77 15.97 9.01 <
1 7 2 4555.39 4281.57 338.88 o
2 7 2 26.56 87.60 16.40 o
-9 8 2 36.57 10.98 9.85 <
-8 8 2 16.52 -6.54 7.04 <
-7 8 2 4028.08 3844.67 248.11 o
-6 8 2 38.16 2.74 6.19 <
-5 8 2 30.16 12.88 8.37 <
-4 8 2 6860.99 7053.74 451.18 o
-3 8 2 20.57 9.15 6.68 <
-2 8 2 38.59 40.04 9.15 o
-1 8 2 2695.49 2551.50 203.92 o
0 8 2 1.50 8.37 10.34 <
1 8 2 48.79 12.60 11.26 <
-8 9 2 8.06 -6.33 7.88 <
-7 9 2 17.40 -2.11 7.39 <
-6 9 2 3211.27 3196.19 207.29 o
-5 9 2 0.82 -8.30 7.53 <
-4 9 2 14.79 38.56 10.84 o
-3 9 2 787.35 786.12 66.57 o
-2 9 2 2.49 13.02 8.09 <
-1 9 2 13.81 126.66 20.12 o
4 -8 3 3634.73 3538.23 278.86 o
0 -7 3 136.17 107.31 17.38 o
1 -7 3 59.93 73.04 13.86 o
2 -7 3 4238.53 4325.69 339.93 o
3 -7 3 296.13 244.45 24.77 o
4 -7 3 35.26 25.33 7.67 o
5 -7 3 3702.03 3622.74 294.20 o
6 -7 3 266.70 196.81 18.79 o
7 -7 3 13.84 8.65 8.65 <
-2 -6 3 19.43 2.96 9.22 <
-1 -6 3 7.23 -2.96 8.51 <
0 -6 3 1053.58 837.55 69.66 o
1 -6 3 16.78 10.70 7.81 <
2 -6 3 30.56 -2.74 6.47 <
3 -6 3 474.58 394.33 28.50 o
4 -6 3 35.61 3.24 5.14 <
5 -6 3 21.86 2.81 6.47 <
6 -6 3 136.54 109.42 13.93 o
7 -6 3 63.05 75.50 13.37 o
8 -6 3 2.64 -1.55 10.13 <
-3 -5 3 12.18 9.64 10.84 <
-2 -5 3 5058.25 5104.56 401.15 o
-1 -5 3 41.69 13.79 9.15 <
0 -5 3 7.14 5.21 7.32 <
1 -5 3 4681.54 4327.02 338.88 o
2 -5 3 93.30 29.20 6.61 o
3 -5 3 25.68 32.72 6.05 o
4 -5 3 7698.36 7587.10 438.94 o
5 -5 3 25.90 50.59 7.67 o
6 -5 3 74.08 44.61 9.99 o
7 -5 3 3656.61 3358.31 231.64 o
8 -5 3 26.20 22.59 10.91 <
-4 -4 3 1434.28 1343.69 109.98 o
-3 -4 3 55.32 104.70 16.25 o
-2 -4 3 9.73 0.77 7.81 <
-1 -4 3 2803.16 3002.33 236.57 o
0 -4 3 74.16 88.73 12.17 o
1 -4 3 1.12 -0.84 4.01 <
2 -4 3 2273.80 2140.85 123.35 o
3 -4 3 26.57 8.87 4.15 <
4 -4 3 0.98 -0.99 3.80 <
5 -4 3 1024.14 1107.97 78.53 o
6 -4 3 63.16 9.64 7.46 <
7 -4 3 24.57 20.90 9.64 <
8 -4 3 1352.91 1405.54 97.31 o
-5 -3 3 146.24 282.66 31.52 o
-4 -3 3 22.41 53.97 10.06 o
-3 -3 3 11969.10 12223.50 779.57 o
-2 -3 3 321.96 149.38 25.12 o
-1 -3 3 12.34 -6.40 5.28 <
0 -3 3 26825.20 26415.60 2053.11 o
1 -3 3 443.31 323.40 22.80 o
2 -3 3 37.04 18.58 4.08 o
3 -3 3 52159.60 52126.60 3009.93 o
4 -3 3 188.16 90.21 11.47 o
5 -3 3 67.98 17.10 7.53 <
6 -3 3 11778.70 12140.70 702.31 o
7 -3 3 63.45 24.42 7.95 o
8 -3 3 79.59 17.10 8.30 <
-6 -2 3 107.32 255.21 41.59 o
-5 -2 3 7748.13 8255.15 528.23 o
-4 -2 3 160.04 258.87 21.74 o
-2 -2 3 13921.00 13798.60 878.72 o
-1 -2 3 500.04 35.46 7.32 o
1 -2 3 28816.90 29918.30 1702.62 o
2 -2 3 437.51 665.51 57.91 o
3 -2 3 44.65 11.26 5.35 <
4 -2 3 14065.00 13305.40 770.15 o
5 -2 3 377.19 333.81 24.77 o
6 -2 3 19.00 0.21 5.14 <
7 -2 3 8227.60 8307.85 474.96 o
8 -2 3 244.58 376.66 29.34 o
-7 -1 3 2121.45 2161.68 174.29 o
-6 -1 3 31.04 83.17 15.27 o
-5 -1 3 118.58 508.60 43.34 o
-4 -1 3 3408.31 3489.68 274.70 o
-3 -1 3 57.52 82.89 11.33 o
-2 -1 3 74.14 20.12 6.05 o
-1 -1 3 1795.47 1919.20 150.79 o
0 -1 3 212.95 6.68 3.66 <
1 -1 3 22.53 25.47 6.19 o
2 -1 3 1845.01 1939.75 133.20 o
3 -1 3 557.27 778.59 67.48 o
4 -1 3 15.92 29.55 4.22 o
5 -1 3 2691.89 2269.48 149.17 o
6 -1 3 281.51 440.34 27.58 o
7 -1 3 19.59 3.59 6.12 <
8 -1 3 2519.38 2292.98 152.41 o
-8 0 3 18.73 -3.94 11.19 <
-7 0 3 34.10 11.54 10.13 <
-6 0 3 745.35 626.67 53.41 o
-5 0 3 81.74 16.68 6.76 <
-4 0 3 40.68 5.98 4.93 <
-3 0 3 819.04 900.18 52.35 o
-2 0 3 115.93 28.71 5.07 o
-1 0 3 33.53 -4.71 3.73 <
0 0 3 20767.20 21671.90 1685.24 o
1 0 3 125.71 47.43 10.77 o
2 0 3 137.96 28.92 6.83 o
3 0 3 18.58 39.97 5.14 o
4 0 3 102.61 150.37 13.37 o
5 0 3 87.33 32.09 6.40 o
6 0 3 1465.34 1343.41 79.30 o
7 0 3 76.46 212.57 19.14 o
8 0 3 61.07 12.88 9.36 <
-8 1 3 998.15 965.34 80.92 o
-7 1 3 28.61 38.77 9.36 o
-6 1 3 8.55 16.68 7.18 <
-5 1 3 467.29 411.14 25.40 o
-4 1 3 59.79 35.82 5.91 o
-3 1 3 2.91 2.46 3.94 <
-2 1 3 723.01 749.88 50.73 o
-1 1 3 32.33 4.22 3.03 <
0 1 3 31.68 9.08 3.52 <
1 1 3 665.47 690.84 57.56 o
2 1 3 12.26 0.99 2.96 <
3 1 3 35.33 3.66 2.74 <
4 1 3 1508.82 1590.18 92.60 o
5 1 3 7.28 0.14 3.73 <
6 1 3 32.56 13.51 6.12 <
7 1 3 468.05 481.58 34.27 o
-9 2 3 7.15 14.42 11.26 <
-8 2 3 5.56 42.36 9.85 o
-7 2 3 13674.10 13795.80 879.70 o
-6 2 3 36.44 23.36 6.90 o
-5 2 3 18.75 27.72 5.77 o
-4 2 3 22163.20 20834.40 1041.82 o
-3 2 3 96.66 23.78 4.86 o
-2 2 3 20.59 6.83 3.66 <
-1 2 3 40160.70 39845.70 2596.12 o
0 2 3 13.21 2.04 2.39 <
1 2 3 14.91 14.35 2.67 o
2 2 3 21786.90 20984.00 908.97 o
3 2 3 20.49 81.41 6.26 o
4 2 3 33.20 39.62 5.70 o
5 2 3 14734.40 15547.10 1015.01 o
6 2 3 39.71 128.77 14.00 o
7 2 3 36.34 9.71 8.09 <
-9 3 3 2259.78 2225.93 178.66 o
-8 3 3 158.38 52.07 10.20 o
-7 3 3 22.75 10.84 6.61 <
-6 3 3 8277.30 8221.58 525.13 o
-5 3 3 226.17 60.44 7.04 o
-4 3 3 4.45 1.83 3.10 <
-3 3 3 56165.70 57161.90 3726.95 o
-2 3 3 46.66 1.69 2.81 <
-1 3 3 14.11 37.22 4.43 o
0 3 3 12049.90 11339.00 638.21 o
1 3 3 15.74 -0.28 3.17 <
2 3 3 65.00 95.13 8.44 o
3 3 3 8377.10 8049.54 414.10 o
4 3 3 34.55 2.04 5.21 <
5 3 3 47.20 139.39 15.48 o
6 3 3 6402.89 6402.16 420.92 o
-9 4 3 56.97 95.13 16.54 o
-8 4 3 13828.20 14002.40 893.07 o
-7 4 3 9.50 11.19 6.97 <
-6 4 3 62.27 44.54 7.46 o
-5 4 3 23191.80 23007.20 1265.72 o
-4 4 3 15.26 1.62 3.31 <
-3 4 3 22.63 23.08 3.59 o
-2 4 3 41700.80 40840.10 2292.42 o
-1 4 3 46.52 4.64 4.01 <
0 4 3 11.88 11.40 3.80 o
1 4 3 35639.90 36624.20 2055.78 o
2 4 3 79.56 57.21 7.32 o
3 4 3 17.52 14.35 8.51 <
4 4 3 14552.90 14019.30 1133.93 o
5 4 3 63.62 98.44 13.37 o
-9 5 3 33.22 16.18 10.91 <
-8 5 3 91.45 125.67 16.82 o
-7 5 3 1297.25 1306.61 86.27 o
-6 5 3 83.06 37.01 7.11 o
-5 5 3 142.59 129.47 15.41 o
-4 5 3 3251.34 3364.92 167.33 o
-3 5 3 264.25 104.91 7.46 o
-2 5 3 154.54 438.73 23.57 o
-1 5 3 603.05 520.35 28.01 o
0 5 3 246.60 279.91 21.25 o
1 5 3 83.54 87.75 11.12 o
2 5 3 2788.80 2840.92 162.19 o
3 5 3 174.85 405.86 29.91 o
4 5 3 30.81 37.65 10.48 o
-9 6 3 782.16 752.20 64.03 o
-8 6 3 72.90 31.52 10.20 o
-7 6 3 6.86 4.08 5.98 <
-6 6 3 5651.92 5468.13 303.48 o
-5 6 3 75.64 23.92 6.90 o
-4 6 3 58.26 85.49 9.71 o
-3 6 3 256.12 335.64 21.53 o
-2 6 3 71.41 31.66 6.33 o
-1 6 3 99.62 352.53 31.52 o
0 6 3 613.82 517.89 36.52 o
1 6 3 22.28 7.81 6.54 <
2 6 3 67.13 149.10 16.04 o
3 6 3 3094.06 3172.05 252.05 o
-9 7 3 42.86 49.96 12.60 o
-8 7 3 2719.33 2436.11 194.21 o
-7 7 3 2.03 44.26 9.29 o
-6 7 3 34.49 -5.84 4.57 <
-5 7 3 7751.90 7871.03 435.91 o
-4 7 3 3.81 2.53 5.63 <
-3 7 3 20.77 -1.69 5.91 <
-2 7 3 8396.22 8682.12 681.06 o
-1 7 3 4.67 1.55 7.25 <
0 7 3 16.36 22.45 9.78 <
1 7 3 4052.31 3894.98 251.70 o
2 7 3 20.48 6.54 8.58 <
-9 8 3 81.58 84.16 15.90 o
-8 8 3 1.83 12.95 9.57 <
-7 8 3 4193.29 4176.30 269.22 o
-6 8 3 56.71 15.69 6.19 <
-5 8 3 11.35 20.90 6.61 o
-4 8 3 2383.77 1936.51 126.45 o
-3 8 3 20.29 9.15 7.18 <
-2 8 3 29.69 93.02 15.41 o
-1 8 3 3173.47 3267.82 259.86 o
0 8 3 18.92 26.60 11.26 <
1 8 3 41.90 66.07 15.55 o
-8 9 3 81.17 90.00 13.44 o
-7 9 3 46.35 94.78 13.23 o
-6 9 3 13094.30 13036.40 832.35 o
-5 9 3 116.19 49.11 11.68 o
-4 9 3 95.86 194.49 18.93 o
-3 9 3 12990.10 11854.90 1314.56 o
-2 9 3 106.16 67.06 14.71 o
-1 9 3 92.28 382.15 40.04 o
2 -7 4 4218.88 4072.65 319.32 o
3 -7 4 108.19 164.37 19.49 o
4 -7 4 14.87 5.70 9.29 <
5 -7 4 3512.59 3586.85 290.68 o
-1 -6 4 12.32 2.67 9.85 <
0 -6 4 2713.92 2708.84 214.75 o
1 -6 4 241.89 420.71 36.59 o
2 -6 4 17.81 14.07 8.16 <
3 -6 4 6440.37 5966.46 655.31 o
4 -6 4 194.79 251.34 26.11 o
5 -6 4 22.49 41.16 13.09 o
6 -6 4 1149.44 1384.92 120.39 o
7 -6 4 93.40 115.68 17.10 o
-2 -5 4 3740.11 3577.92 282.80 o
-1 -5 4 570.38 525.06 45.53 o
0 -5 4 63.84 74.66 12.60 o
1 -5 4 10519.40 10270.90 800.05 o
2 -5 4 489.23 427.26 36.03 o
3 -5 4 35.22 33.99 8.58 o
4 -5 4 7234.96 7522.93 512.12 o
5 -5 4 380.37 449.77 42.71 o
6 -5 4 43.41 22.38 9.64 <
7 -5 4 5032.74 5179.28 355.27 o
-4 -4 4 3217.57 3020.21 240.37 o
-3 -4 4 82.59 96.26 16.25 o
-2 -4 4 86.40 188.72 22.02 o
-1 -4 4 3234.18 3382.80 266.47 o
0 -4 4 192.44 173.03 19.28 o
1 -4 4 55.86 34.97 7.11 o
2 -4 4 4341.99 4944.12 283.01 o
3 -4 4 528.23 688.59 49.89 o
4 -4 4 22.29 24.56 8.16 o
5 -4 4 5368.89 4925.27 336.91 o
6 -4 4 437.45 485.87 45.53 o
7 -4 4 13.47 5.70 9.01 <
8 -4 4 3426.39 3183.03 220.45 o
-5 -3 4 41.84 19.63 11.61 <
-4 -3 4 9.46 25.47 10.63 <
-3 -3 4 524.43 457.30 40.25 o
-2 -3 4 67.50 25.54 9.15 <
-1 -3 4 15.34 3.24 6.61 <
0 -3 4 66.47 92.88 12.67 o
1 -3 4 85.83 9.78 4.36 <
2 -3 4 4.76 12.95 3.80 o
3 -3 4 4729.05 4491.68 306.65 o
4 -3 4 109.67 105.20 13.02 o
5 -3 4 7.67 5.49 7.39 <
6 -3 4 512.84 492.63 37.93 o
7 -3 4 97.12 187.59 21.25 o
8 -3 4 5.27 -8.65 9.36 <
-6 -2 4 9.21 -0.35 15.48 <
-5 -2 4 3783.57 3544.28 280.40 o
-4 -2 4 107.39 36.94 10.84 o
-3 -2 4 18.62 10.48 8.02 <
-2 -2 4 8032.62 8221.09 641.45 o
-1 -2 4 40.40 -2.96 5.00 <
0 -2 4 8.09 2.18 4.71 <
1 -2 4 8339.62 8376.32 424.09 o
2 -2 4 41.71 19.84 6.68 <
3 -2 4 43.87 20.48 7.11 <
4 -2 4 7932.02 8374.56 569.46 o
5 -2 4 51.64 46.58 9.78 o
6 -2 4 78.83 65.37 11.33 o
7 -2 4 4917.41 5022.93 344.30 o
8 -2 4 21.66 12.38 7.60 <
-7 -1 4 1205.08 1254.33 104.07 o
-6 -1 4 71.34 78.81 15.55 o
-5 -1 4 7.42 15.76 7.39 <
-4 -1 4 1106.10 1082.71 72.05 o
-3 -1 4 142.34 179.78 15.90 o
-2 -1 4 5.63 0.49 5.77 <
-1 -1 4 3507.95 3853.19 301.16 o
0 -1 4 169.42 29.41 5.07 o
1 -1 4 23.67 5.56 4.57 <
2 -1 4 3479.33 3681.50 251.48 o
3 -1 4 29.12 -5.35 5.35 <
4 -1 4 6.37 2.88 7.11 <
5 -1 4 2724.55 2880.25 198.50 o
6 -1 4 36.73 11.68 6.26 <
7 -1 4 14.73 9.01 6.83 <
8 -1 4 541.17 487.07 36.52 o
-7 0 4 9.64 22.17 11.47 <
-6 0 4 12242.50 13120.20 837.41 o
-5 0 4 324.05 250.78 21.67 o
-4 0 4 0.60 -4.86 6.19 <
-3 0 4 52212.10 53279.10 3386.67 o
-2 0 4 304.78 32.86 7.46 o
-1 0 4 19.34 4.43 4.29 <
0 0 4 23503.90 22479.40 1746.88 o
2 0 4 39.30 -14.00 7.81 <
3 0 4 26506.00 25292.80 1462.54 o
4 0 4 88.86 10.13 3.52 <
5 0 4 40.17 0.84 4.64 <
6 0 4 21068.70 21885.90 1120.28 o
7 0 4 39.51 2.11 6.90 <
-8 1 4 3804.60 3887.66 309.11 o
-7 1 4 139.78 75.22 15.06 o
-6 1 4 97.98 474.61 40.53 o
-5 1 4 10739.00 11027.00 621.11 o
-4 1 4 166.73 136.86 16.61 o
-3 1 4 47.33 200.19 26.03 o
-2 1 4 28518.80 29427.60 1917.16 o
-1 1 4 274.02 205.61 18.44 o
0 1 4 5.29 1.13 3.10 <
1 1 4 29278.10 30440.30 1979.93 o
2 1 4 515.43 536.96 47.71 o
3 1 4 22.54 3.45 4.29 <
4 1 4 12704.60 12478.20 710.19 o
5 1 4 359.91 286.32 20.41 o
6 1 4 2.66 1.13 5.84 <
7 1 4 3159.47 3196.96 210.04 o
-8 2 4 75.36 180.63 22.59 o
-7 2 4 1361.53 1424.12 115.75 o
-6 2 4 80.91 114.13 13.16 o
-5 2 4 127.23 77.33 9.08 o
-4 2 4 4077.43 4452.62 292.37 o
-3 2 4 332.73 254.09 23.01 o
-2 2 4 191.84 241.77 30.68 o
-1 2 4 1810.78 1874.80 123.35 o
0 2 4 393.68 378.14 22.17 o
1 2 4 39.35 70.51 9.43 o
2 2 4 4389.85 4445.24 258.17 o
3 2 4 400.42 651.86 35.18 o
4 2 4 31.27 54.04 5.28 o
5 2 4 2264.94 1969.59 94.50 o
6 2 4 321.40 497.20 32.30 o
-9 3 4 1646.17 1570.62 128.42 o
-8 3 4 85.23 72.62 14.50 o
-7 3 4 41.84 10.13 8.80 <
-6 3 4 7631.74 7734.94 427.61 o
-5 3 4 175.21 55.80 6.83 o
-4 3 4 59.17 40.60 6.68 o
-3 3 4 21.04 80.85 8.09 o
-2 3 4 351.69 294.13 20.90 o
-1 3 4 80.08 293.77 26.18 o
0 3 4 779.04 823.55 43.20 o
1 3 4 222.58 283.85 15.83 o
2 3 4 105.27 145.94 9.15 o
3 3 4 7401.47 7732.27 448.58 o
4 3 4 95.96 142.00 11.19 o
5 3 4 86.43 98.44 12.52 o
6 3 4 960.37 992.85 68.61 o
-9 4 4 18.57 6.97 8.23 <
-8 4 4 187.04 117.02 14.71 o
-7 4 4 67.45 128.49 14.07 o
-6 4 4 15.81 5.63 5.98 <
-5 4 4 1548.01 1489.77 84.30 o
-4 4 4 60.27 47.07 5.77 o
-3 4 4 9.12 -0.91 4.22 <
-2 4 4 1617.23 1890.43 96.26 o
-1 4 4 42.19 47.21 5.07 o
0 4 4 56.72 56.22 6.40 o
1 4 4 428.58 382.50 21.39 o
2 4 4 27.73 3.10 4.78 <
3 4 4 51.55 37.01 8.02 o
4 4 4 170.23 124.55 18.22 o
5 4 4 12.58 1.06 8.02 <
-9 5 4 32.37 34.83 13.16 <
-8 5 4 15.87 40.88 9.36 o
-7 5 4 14719.80 15363.20 979.34 o
-6 5 4 46.35 20.27 7.04 <
-5 5 4 16.51 11.12 5.21 <
-4 5 4 17066.50 17489.20 980.96 o
-3 5 4 29.40 4.86 3.59 <
-2 5 4 30.81 96.82 8.87 o
-1 5 4 22127.00 22668.60 1478.51 o
0 5 4 10.06 5.84 4.78 <
1 5 4 23.02 78.67 8.94 o
2 5 4 13608.50 13912.30 908.97 o
3 5 4 31.35 82.61 11.82 o
4 5 4 35.31 69.59 12.31 o
-9 6 4 6277.55 6184.87 486.01 o
-8 6 4 127.32 9.50 7.81 <
-7 6 4 11.72 7.25 6.61 <
-6 6 4 5082.06 5176.40 332.05 o
-5 6 4 67.04 16.61 5.49 o
-4 6 4 7.66 29.48 5.49 o
-3 6 4 8336.87 8113.01 448.72 o
-2 6 4 13.03 5.98 4.86 <
-1 6 4 24.52 171.62 14.28 o
0 6 4 15099.40 16178.50 910.03 o
1 6 4 13.36 0.70 5.77 <
2 6 4 22.37 150.02 17.31 o
3 6 4 2384.18 2263.36 151.92 o
-9 7 4 51.01 51.37 13.44 o
-8 7 4 13504.90 13155.80 1027.26 o
-7 7 4 23.84 71.56 10.84 o
-6 7 4 29.11 8.23 5.84 <
-5 7 4 17600.70 17684.50 976.10 o
-4 7 4 18.20 10.48 5.42 <
-3 7 4 14.95 0.21 6.97 <
-2 7 4 14013.90 14027.50 894.06 o
-1 7 4 28.05 12.88 7.39 <
0 7 4 15.50 9.29 7.25 <
1 7 4 9836.49 10277.90 656.79 o
2 7 4 18.62 7.46 10.98 <
-9 8 4 51.01 -12.17 9.92 <
-8 8 4 84.50 78.88 14.50 o
-7 8 4 858.86 793.51 47.29 o
-6 8 4 86.05 8.73 6.26 <
-5 8 4 106.82 78.39 9.36 o
-4 8 4 1580.45 1614.17 106.60 o
-3 8 4 106.99 92.95 15.27 o
-2 8 4 85.00 105.27 16.32 o
-1 8 4 2284.62 2103.63 169.09 o
0 8 4 130.08 116.74 18.29 o
1 8 4 46.90 43.13 19.91 <
-8 9 4 54.81 26.81 11.40 <
-7 9 4 19.32 39.55 9.64 o
-6 9 4 651.45 662.91 40.39 o
-5 9 4 36.59 20.19 8.80 <
-4 9 4 41.61 82.40 15.41 o
-3 9 4 3046.46 3002.97 239.66 o
-2 9 4 6.63 7.39 10.06 <
-1 9 4 59.12 138.41 20.97 o
1 -6 5 82.02 38.70 10.98 o
2 -6 5 7.37 42.71 13.37 o
3 -6 5 219.17 188.37 23.78 o
4 -6 5 134.11 92.67 23.78 o
5 -6 5 17.28 0.42 14.07 <
-1 -5 5 34.44 0.35 8.87 <
0 -5 5 16.31 6.83 8.16 <
1 -5 5 522.77 334.23 29.76 o
2 -5 5 41.09 7.25 8.23 <
3 -5 5 17.68 -8.73 10.41 <
4 -5 5 465.11 499.10 49.75 o
5 -5 5 62.04 76.98 13.58 o
6 -5 5 3.20 6.83 10.13 <
-3 -4 5 126.06 186.12 24.42 o
-2 -4 5 5.32 11.96 9.15 <
-1 -4 5 7264.21 7323.94 572.28 o
0 -4 5 211.94 236.36 23.78 o
1 -4 5 20.71 28.43 7.46 o
2 -4 5 9822.01 9713.88 646.02 o
3 -4 5 137.84 135.52 19.07 o
4 -4 5 21.59 28.43 9.29 o
5 -4 5 7725.03 8022.52 546.81 o
6 -4 5 44.06 60.44 12.67 o
7 -4 5 16.52 18.72 11.19 <
-4 -3 5 6.57 9.43 10.63 <
-3 -3 5 6478.77 6353.68 498.04 o
-2 -3 5 266.12 343.45 33.28 o
-1 -3 5 12.66 7.81 7.39 <
0 -3 5 2308.37 2419.85 190.34 o
1 -3 5 307.47 405.51 27.65 o
2 -3 5 15.91 4.93 8.16 <
3 -3 5 5192.87 5068.53 604.15 o
4 -3 5 217.04 143.12 16.54 o
5 -3 5 21.08 -3.38 7.81 <
6 -3 5 6361.61 6298.86 430.63 o
7 -3 5 131.95 89.08 15.06 o
-5 -2 5 4880.74 5354.14 421.63 o
-4 -2 5 339.25 350.07 34.48 o
-3 -2 5 18.66 37.93 10.48 o
-2 -2 5 11204.50 10851.10 845.86 o
-1 -2 5 501.93 221.44 29.06 o
0 -2 5 15.17 2.25 5.49 <
1 -2 5 13931.60 12935.90 839.45 o
2 -2 5 715.62 905.53 79.44 o
3 -2 5 63.95 35.75 8.58 o
4 -2 5 11369.00 10568.30 718.08 o
5 -2 5 324.50 393.83 32.58 o
6 -2 5 17.02 3.10 9.01 <
7 -2 5 3737.34 3799.71 262.18 o
-6 -1 5 58.04 109.35 19.77 o
-5 -1 5 118.34 543.36 67.97 o
-4 -1 5 5148.52 5201.73 408.26 o
-3 -1 5 165.46 164.02 19.77 o
-2 -1 5 116.36 47.57 9.29 o
-1 -1 5 6693.59 7031.64 548.21 o
0 -1 5 314.71 223.48 27.72 o
1 -1 5 14.27 44.68 13.37 o
2 -1 5 6979.95 6912.30 820.81 o
3 -1 5 543.17 849.16 60.65 o
4 -1 5 17.15 8.87 7.04 <
5 -1 5 3425.18 3305.04 227.63 o
6 -1 5 639.90 1170.17 83.45 o
7 -1 5 12.51 15.62 9.29 <
-7 0 5 14.48 20.48 12.17 <
-6 0 5 135.43 165.22 19.14 o
-5 0 5 105.75 98.58 12.74 o
-4 0 5 25.80 13.09 8.23 <
-3 0 5 4766.30 4278.89 335.57 o
-2 0 5 270.25 94.71 12.24 o
-1 0 5 17.12 17.94 5.84 o
0 0 5 3438.99 3669.67 286.32 o
1 0 5 285.32 401.99 45.81 o
2 0 5 24.01 54.81 16.68 o
3 0 5 66.09 94.43 23.08 o
4 0 5 198.01 287.37 30.89 o
5 0 5 43.13 48.55 13.93 o
6 0 5 996.02 949.43 66.78 o
7 0 5 147.39 233.47 23.01 o
-7 1 5 49.38 53.41 13.30 o
-6 1 5 19.79 7.81 7.18 <
-5 1 5 7828.43 7564.02 427.19 o
-4 1 5 104.46 67.06 8.23 o
-3 1 5 3.31 5.70 5.21 <
-2 1 5 8588.39 8213.56 536.81 o
-1 1 5 149.72 219.54 19.42 o
0 1 5 32.60 11.26 4.50 <
1 1 5 8299.70 8561.45 479.89 o
2 1 5 34.26 22.66 4.86 o
3 1 5 53.44 21.81 5.21 o
4 1 5 4480.39 4314.71 246.63 o
5 1 5 12.53 2.11 6.19 <
6 1 5 56.06 14.85 7.25 <
-8 2 5 16.33 -2.32 9.71 <
-7 2 5 1503.95 1625.08 131.93 o
-6 2 5 162.34 214.33 20.34 o
-5 2 5 14.88 6.12 5.35 <
-4 2 5 2228.86 2176.39 124.40 o
-3 2 5 163.73 95.91 10.34 o
-2 2 5 2.00 10.06 4.71 <
-1 2 5 3601.98 3683.68 241.00 o
0 2 5 72.61 81.27 7.18 o
1 2 5 6.10 1.83 4.29 <
2 2 5 2216.46 2036.22 117.79 o
3 2 5 84.09 7.60 6.26 <
4 2 5 42.95 8.87 5.14 <
5 2 5 699.15 723.70 44.33 o
6 2 5 32.25 1.69 8.02 <
-8 3 5 134.55 48.83 13.86 o
-7 3 5 20.08 17.66 9.99 <
-6 3 5 11606.70 11860.30 756.71 o
-5 3 5 213.08 180.98 20.90 o
-4 3 5 1.42 3.45 5.21 <
-3 3 5 26362.10 26165.20 1469.85 o
-2 3 5 181.63 65.44 8.09 o
-1 3 5 5.11 33.14 5.56 o
0 3 5 51920.40 51555.90 2941.89 o
1 3 5 16.80 -0.42 4.64 <
2 3 5 23.32 36.59 5.70 o
3 3 5 11894.10 11764.30 612.25 o
4 3 5 36.88 10.06 4.50 <
5 3 5 45.48 59.60 7.95 o
-9 4 5 61.16 145.09 20.41 o
-8 4 5 7969.56 7614.26 599.30 o
-7 4 5 77.06 -9.57 8.23 <
-6 4 5 48.50 77.40 10.98 o
-5 4 5 12345.20 12772.40 718.99 o
-4 4 5 119.58 55.17 8.51 o
-3 4 5 14.64 37.29 5.77 o
-2 4 5 14027.30 13657.30 768.10 o
-1 4 5 181.58 138.20 11.40 o
0 4 5 0.43 3.38 4.36 <
1 4 5 11051.40 11061.40 632.72 o
2 4 5 218.55 293.14 18.86 o
3 4 5 10.66 13.72 5.77 <
4 4 5 8427.33 7602.02 497.27 o
5 4 5 183.42 228.05 24.77 o
-9 5 5 61.52 33.42 13.23 <
-8 5 5 131.69 220.80 24.84 o
-7 5 5 2085.33 1999.35 160.64 o
-6 5 5 136.67 47.43 10.84 o
-5 5 5 129.61 131.02 13.86 o
-4 5 5 2582.53 2263.64 150.23 o
-3 5 5 274.25 202.72 17.87 o
-2 5 5 114.55 318.89 17.52 o
-1 5 5 3599.43 3414.60 172.68 o
0 5 5 431.43 376.31 27.02 o
1 5 5 86.86 163.81 15.62 o
2 5 5 1484.40 1441.64 97.46 o
3 5 5 236.98 395.73 28.50 o
4 5 5 51.61 45.03 10.55 o
-9 6 5 977.78 988.28 82.82 o
-8 6 5 177.75 158.74 22.09 o
-7 6 5 27.08 12.03 8.51 <
-6 6 5 1552.06 1421.44 115.26 o
-5 6 5 220.32 127.36 14.07 o
-4 6 5 42.18 53.69 7.46 o
-3 6 5 7344.17 7465.02 375.61 o
-2 6 5 179.30 110.82 9.43 o
-1 6 5 96.29 288.29 19.21 o
0 6 5 737.54 618.93 43.84 o
1 6 5 170.79 132.64 15.20 o
2 6 5 58.95 132.50 15.76 o
3 6 5 1590.05 1565.97 106.46 o
-9 7 5 16.76 5.28 16.82 <
-8 7 5 501.25 497.34 46.58 o
-7 7 5 91.44 176.19 22.24 o
-6 7 5 22.51 31.59 10.06 o
-5 7 5 251.87 218.27 20.90 o
-4 7 5 78.81 159.80 13.93 o
-3 7 5 41.71 43.42 7.81 o
-2 7 5 688.76 684.02 40.81 o
-1 7 5 30.10 37.36 7.81 o
0 7 5 34.30 55.80 10.70 o
1 7 5 993.32 906.65 63.75 o
2 7 5 14.08 9.36 9.92 <
-8 8 5 19.29 46.58 13.09 o
-7 8 5 8965.29 8818.35 693.31 o
-6 8 5 18.30 10.84 8.02 <
-5 8 5 24.60 46.44 9.22 o
-4 8 5 13744.70 13462.20 1054.98 o
-3 8 5 7.94 2.96 6.76 <
-2 8 5 23.86 104.56 14.07 o
-1 8 5 6639.86 7079.28 557.50 o
0 8 5 17.13 25.19 12.52 <
-7 9 5 5.56 7.74 8.58 <
-6 9 5 6457.11 6450.50 415.29 o
-5 9 5 35.02 -0.35 7.95 <
-4 9 5 8.07 28.36 9.57 <
-3 9 5 2329.33 2370.24 155.44 o
-2 9 5 29.80 0.14 10.84 <
0 -5 6 23.89 61.36 12.88 o
1 -5 6 3793.24 3859.17 425.64 o
2 -5 6 513.24 737.99 82.61 o
4 -5 6 5122.81 5076.76 427.89 o
5 -5 6 274.62 326.56 38.14 o
-2 -4 6 32.20 171.06 21.81 o
-1 -4 6 664.01 507.19 44.12 o
0 -4 6 289.08 258.17 23.08 o
1 -4 6 13.33 46.51 11.61 o
2 -4 6 462.66 483.20 65.93 o
3 -4 6 330.33 401.36 39.19 o
4 -4 6 17.30 8.02 10.77 <
5 -4 6 179.79 200.12 23.99 o
6 -4 6 428.80 663.89 50.17 o
-3 -3 6 296.72 300.95 34.13 o
-2 -3 6 74.52 46.65 12.10 o
-1 -3 6 15.62 25.47 8.73 <
0 -3 6 733.15 762.40 52.98 o
1 -3 6 151.31 209.90 22.80 o
2 -3 6 4.37 15.97 14.14 <
3 -3 6 2785.40 2619.05 223.13 o
4 -3 6 235.31 426.27 41.52 o
5 -3 6 35.39 12.74 9.85 <
6 -3 6 322.36 253.46 26.95 o
-4 -2 6 96.32 46.09 13.09 o
-3 -2 6 17.03 6.19 8.65 <
-2 -2 6 785.31 618.16 52.00 o
-1 -2 6 176.83 143.26 16.61 o
0 -2 6 5.19 4.86 6.33 <
1 -2 6 466.07 490.02 65.93 o
2 -2 6 73.76 28.99 15.90 <
3 -2 6 10.01 9.36 12.95 <
4 -2 6 870.32 680.29 50.66 o
5 -2 6 43.48 48.06 11.75 o
6 -2 6 4.54 -2.74 9.08 <
-5 -1 6 3.96 1.90 10.13 <
-4 -1 6 7765.50 7728.89 604.86 o
-3 -1 6 150.73 157.20 19.70 o
-2 -1 6 5.10 -2.11 6.40 <
-1 -1 6 10585.90 10387.20 808.56 o
0 -1 6 150.35 237.27 19.56 o
1 -1 6 1.18 -12.74 8.87 <
2 -1 6 10350.60 10397.30 1232.58 o
3 -1 6 143.23 87.32 22.59 o
4 -1 6 23.96 15.90 10.63 <
5 -1 6 7175.31 7349.83 613.79 o
6 -1 6 29.41 -3.59 10.55 <
-6 0 6 1136.99 1370.22 112.44 o
-5 0 6 272.43 258.17 29.41 o
-4 0 6 1.78 -0.63 8.58 <
-3 0 6 5187.12 4995.21 391.30 o
-2 0 6 439.80 477.29 40.32 o
-1 0 6 0.91 3.52 5.49 <
0 0 6 16630.40 16625.10 1291.90 o
3 0 6 2323.29 2226.70 189.28 o
4 0 6 209.07 76.77 15.97 o
5 0 6 26.33 43.27 14.07 o
6 0 6 2635.50 2598.72 221.58 o
-7 1 6 217.52 191.60 25.96 o
-6 1 6 32.08 76.13 14.35 o
-5 1 6 7077.73 7308.81 572.07 o
-4 1 6 452.63 337.26 31.95 o
-3 1 6 15.55 71.14 11.82 o
-2 1 6 13596.20 13184.90 1026.41 o
-1 1 6 326.72 272.24 23.78 o
0 1 6 0.85 3.59 4.43 <
1 1 6 13687.60 14122.40 1139.84 o
2 1 6 344.12 424.09 57.49 o
3 1 6 4.93 -4.15 8.65 <
4 1 6 10714.30 10609.90 882.87 o
5 1 6 274.28 208.84 26.39 o
6 1 6 18.65 0.35 12.17 <
-7 2 6 3608.12 3674.25 238.12 o
-6 2 6 74.31 26.88 10.91 <
-5 2 6 54.89 118.64 16.68 o
-4 2 6 4415.05 4941.73 324.73 o
-3 2 6 254.58 268.93 21.04 o
-2 2 6 24.96 73.53 10.63 o
-1 2 6 6799.38 6976.83 543.78 o
0 2 6 702.69 744.04 60.87 o
1 2 6 15.03 69.87 10.98 o
2 2 6 4571.43 4676.25 305.60 o
3 2 6 523.15 894.48 78.67 o
4 2 6 44.06 23.43 8.16 <
5 2 6 4504.24 4260.25 285.47 o
-8 3 6 183.20 270.76 31.95 o
-7 3 6 40.23 92.04 12.88 o
-6 3 6 453.17 418.46 30.68 o
-5 3 6 311.73 357.38 24.28 o
-4 3 6 61.37 65.37 9.22 o
-3 3 6 72.96 91.33 11.47 o
-2 3 6 371.48 443.93 30.68 o
-1 3 6 117.62 486.64 29.34 o
0 3 6 4710.08 4471.98 293.28 o
1 3 6 481.10 621.25 42.64 o
2 3 6 49.73 106.39 15.13 o
3 3 6 467.68 408.96 29.69 o
4 3 6 303.71 537.45 33.21 o
5 3 6 40.98 90.35 15.90 o
-8 4 6 3467.73 3221.03 257.18 o
-7 4 6 123.85 142.84 20.48 o
-6 4 6 33.75 -0.70 6.68 <
-5 4 6 4721.90 4291.28 243.46 o
-4 4 6 106.09 122.08 11.54 o
-3 4 6 4.24 -1.20 5.07 <
-2 4 6 7876.47 8118.08 530.76 o
-1 4 6 64.74 91.19 9.29 o
0 4 6 20.70 14.28 5.42 <
1 4 6 7741.17 7345.68 420.99 o
2 4 6 35.61 14.92 4.93 o
3 4 6 46.53 33.99 5.84 o
4 4 6 3311.29 3200.69 164.02 o
-8 5 6 15.89 9.71 11.05 <
-7 5 6 710.42 751.29 63.96 o
-6 5 6 201.86 243.18 21.95 o
-5 5 6 10.13 2.18 5.28 <
-4 5 6 2710.20 2865.19 163.32 o
-3 5 6 126.60 159.02 15.76 o
-2 5 6 19.22 -1.90 5.14 <
-1 5 6 1052.51 1107.40 75.08 o
0 5 6 36.57 51.79 8.73 o
1 5 6 15.17 18.01 6.54 <
2 5 6 1537.78 1549.93 103.72 o
3 5 6 34.73 -0.14 6.61 <
-8 6 6 126.36 24.77 11.75 <
-7 6 6 1.11 9.78 9.85 <
-6 6 6 20819.10 20939.50 1333.84 o
-5 6 6 45.23 3.31 6.54 <
-4 6 6 7.82 32.37 6.97 o
-3 6 6 11641.70 12082.60 680.78 o
-2 6 6 17.57 6.19 6.90 <
-1 6 6 16.69 171.20 17.03 o
0 6 6 12217.40 13320.20 870.55 o
1 6 6 14.90 0.77 7.39 <
2 6 6 20.62 125.67 15.41 o
-8 7 6 3028.66 3211.32 256.41 o
-7 7 6 53.83 -9.43 8.09 <
-6 7 6 29.72 17.73 9.43 <
-5 7 6 7983.74 7713.34 494.03 o
-4 7 6 53.89 20.12 6.76 <
-3 7 6 5.81 5.07 5.21 <
-2 7 6 8044.55 8239.32 540.19 o
-1 7 6 78.83 90.42 12.88 o
0 7 6 9.05 20.97 8.87 <
1 7 6 4041.40 3973.86 263.17 o
-8 8 6 97.32 74.02 15.48 o
-7 8 6 2379.71 2215.23 178.52 o
-6 8 6 128.00 14.50 10.48 <
-5 8 6 154.30 164.93 17.10 o
-4 8 6 887.30 887.44 52.56 o
-3 8 6 136.62 103.79 12.10 o
-2 8 6 105.58 127.71 19.14 o
-1 8 6 2271.98 2102.79 169.44 o
0 8 6 107.48 92.67 14.50 o
-7 9 6 20.94 36.66 13.93 <
-6 9 6 981.36 981.59 67.34 o
-5 9 6 153.53 125.25 15.48 o
-4 9 6 37.74 64.10 11.40 o
-3 9 6 1441.36 1447.69 118.99 o
-2 9 6 114.80 60.37 15.20 o
0 -4 7 104.42 265.63 30.40 o
1 -4 7 4.19 8.51 10.70 <
2 -4 7 487.32 557.99 85.00 o
3 -4 7 126.55 189.70 38.28 o
4 -4 7 8.45 17.38 21.04 <
-2 -3 7 318.40 455.19 40.32 o
-1 -3 7 3.42 0.99 7.95 <
0 -3 7 7526.80 7045.08 570.66 o
1 -3 7 268.69 550.75 75.29 o
2 -3 7 11.18 -2.25 15.97 <
3 -3 7 2233.90 2410.92 293.35 o
4 -3 7 194.60 197.51 40.39 o
5 -3 7 9.95 -16.04 19.42 <
-3 -2 7 28.32 101.18 16.04 o
-2 -2 7 5674.69 5115.18 401.15 o
-1 -2 7 301.06 383.98 33.42 o
0 -2 7 8.68 31.81 10.48 o
1 -2 7 6259.43 6119.15 729.90 o
2 -2 7 390.25 644.40 84.93 o
3 -2 7 19.57 10.70 17.17 <
4 -2 7 5862.89 5270.76 630.82 o
5 -2 7 399.25 582.76 54.60 o
-4 -1 7 165.66 213.70 27.02 o
-3 -1 7 251.45 283.99 29.69 o
-2 -1 7 24.79 67.76 11.19 o
-1 -1 7 645.07 553.28 45.95 o
0 -1 7 466.49 636.66 55.73 o
1 -1 7 16.46 58.83 20.55 <
2 -1 7 692.97 572.63 76.35 o
3 -1 7 386.11 909.68 116.52 o
4 -1 7 4.05 3.31 15.34 <
5 -1 7 748.88 510.64 49.47 o
-5 0 7 90.02 147.49 21.39 o
-4 0 7 26.72 39.19 11.40 o
-3 0 7 2786.96 2598.23 205.82 o
-2 0 7 166.39 165.43 19.21 o
-1 0 7 15.70 42.50 8.73 o
0 0 7 23.24 50.24 10.84 o
1 0 7 341.01 636.31 83.31 o
2 0 7 7.10 8.51 13.72 <
3 0 7 760.75 723.56 94.08 o
4 0 7 327.20 657.91 61.08 o
5 0 7 34.74 25.12 14.71 <
-6 1 7 16.00 13.72 10.91 <
-5 1 7 463.10 417.90 38.07 o
-4 1 7 169.47 259.23 28.43 o
-3 1 7 7.72 3.38 7.88 <
-2 1 7 454.78 530.06 44.19 o
-1 1 7 194.30 377.65 32.09 o
0 1 7 2.43 16.54 7.04 <
1 1 7 444.33 544.06 72.34 o
2 1 7 159.90 143.47 29.27 o
3 1 7 27.22 10.13 16.11 <
4 1 7 563.42 564.54 59.67 o
5 1 7 75.40 107.59 21.11 o
-7 2 7 3567.52 3393.00 270.06 o
-6 2 7 139.78 215.46 22.31 o
-5 2 7 12.95 31.03 9.36 o
-4 2 7 9734.50 9512.50 622.45 o
-3 2 7 173.28 206.10 18.58 o
-2 2 7 2.16 1.13 6.47 <
-1 2 7 10415.60 10185.90 793.01 o
0 2 7 69.04 37.22 7.11 o
1 2 7 6.79 5.56 7.88 <
2 2 7 9813.01 9180.38 739.18 o
3 2 7 16.75 1.83 13.86 <
4 2 7 7.61 -5.28 15.62 <
5 2 7 4108.09 4020.58 339.51 o
-7 3 7 6.17 4.29 11.12 <
-6 3 7 6305.76 6046.53 397.91 o
-5 3 7 232.84 214.26 21.25 o
-4 3 7 16.67 7.25 7.04 <
-3 3 7 2236.67 2336.05 154.52 o
-2 3 7 257.76 293.84 21.39 o
-1 3 7 7.88 22.31 5.28 o
0 3 7 5198.15 5265.55 344.23 o
1 3 7 187.63 286.81 23.15 o
2 3 7 4.91 31.31 9.64 o
3 3 7 6431.43 5908.12 480.38 o
4 3 7 110.00 39.05 12.10 o
-8 4 7 3459.63 3398.77 384.47 o
-7 4 7 204.03 81.55 17.31 o
-6 4 7 37.75 40.39 9.71 o
-5 4 7 10241.60 10021.40 656.01 o
-4 4 7 183.11 106.67 12.74 o
-3 4 7 17.18 7.25 6.40 <
-2 4 7 11323.60 11038.50 721.38 o
-1 4 7 221.74 133.98 12.03 o
0 4 7 3.47 2.74 5.00 <
1 4 7 7223.47 7420.20 425.00 o
2 4 7 185.06 159.02 20.90 o
3 4 7 5.08 14.71 7.88 <
4 4 7 3609.15 3602.12 230.38 o
-8 5 7 46.80 86.27 16.25 o
-7 5 7 4266.95 4298.95 339.79 o
-6 5 7 183.23 81.98 16.25 o
-5 5 7 68.75 141.65 15.48 o
-4 5 7 3318.80 3422.06 226.22 o
-3 5 7 259.57 211.02 19.14 o
-2 5 7 17.23 52.42 7.88 o
-1 5 7 5463.02 5125.10 294.83 o
0 5 7 372.20 455.89 32.65 o
1 5 7 35.09 40.74 8.09 o
2 5 7 3826.28 3595.79 236.29 o
3 5 7 457.29 702.38 46.86 o
-8 6 7 204.08 292.15 33.14 o
-7 6 7 72.18 155.65 20.69 o
-6 6 7 1004.54 863.10 72.76 o
-5 6 7 446.33 511.48 37.50 o
-4 6 7 97.47 181.82 21.81 o
-3 6 7 499.51 455.47 33.56 o
-2 6 7 441.92 596.91 42.43 o
-1 6 7 128.28 294.48 30.33 o
0 6 7 131.06 141.86 16.61 o
1 6 7 256.84 261.90 22.80 o
2 6 7 83.12 165.50 17.17 o
-7 7 7 86.50 147.84 21.67 o
-6 7 7 8.27 1.97 7.67 <
-5 7 7 5116.38 4675.75 368.50 o
-4 7 7 78.22 92.88 13.72 o
-3 7 7 20.98 -7.11 7.18 <
-2 7 7 3696.80 3684.24 244.24 o
-1 7 7 58.19 64.67 11.54 o
0 7 7 14.36 46.58 10.70 o
-7 8 7 530.20 555.04 51.44 o
-6 8 7 114.96 174.72 23.08 o
-5 8 7 14.75 8.80 11.47 <
-4 8 7 1403.48 1186.99 98.16 o
-3 8 7 46.58 69.87 16.04 o
-2 8 7 10.16 23.99 10.06 <
-1 8 7 1203.03 1307.59 90.07 o
-5 9 7 10.21 3.10 15.27 <
-4 9 7 3.38 82.33 24.98 o
1 -3 8 130.00 152.06 36.45 o
2 -3 8 22.45 -1.62 20.05 <
-2 -2 8 474.89 411.49 40.46 o
-1 -2 8 75.93 140.66 20.97 o
0 -2 8 8.04 -11.19 17.73 <
1 -2 8 293.61 172.11 39.55 o
2 -2 8 111.50 150.51 34.13 o
3 -2 8 14.13 -6.47 16.54 <
4 -2 8 452.96 404.60 68.54 o
-3 -1 8 170.13 218.55 25.47 o
-2 -1 8 3.68 -2.53 7.81 <
-1 -1 8 882.47 758.89 86.27 o
0 -1 8 114.50 220.17 41.09 o
1 -1 8 3.39 7.11 20.34 <
2 -1 8 872.09 828.05 107.73 o
3 -1 8 58.93 23.29 18.58 <
4 -1 8 3.11 1.76 16.75 <
-4 0 8 18.40 9.29 10.13 <
-3 0 8 2163.02 2279.12 180.70 o
-2 0 8 291.64 309.46 29.76 o
-1 0 8 4.29 -1.55 8.16 <
0 0 8 5916.75 5752.41 686.76 o
1 0 8 246.47 335.43 55.94 o
2 0 8 6.23 2.60 15.20 <
3 0 8 7515.70 6751.73 805.68 o
4 0 8 105.24 65.65 23.36 <
-5 1 8 5017.73 4732.82 373.08 o
-4 1 8 256.28 275.83 30.33 o
-3 1 8 6.15 44.40 10.77 o
-2 1 8 6284.57 6110.56 477.64 o
-1 1 8 413.04 435.56 40.11 o
0 1 8 13.34 8.44 7.18 <
1 1 8 6253.19 6125.13 731.02 o
2 1 8 298.66 480.59 66.49 o
3 1 8 7.94 -2.25 16.47 <
4 1 8 3756.76 3555.12 430.07 o
-6 2 8 204.96 192.17 26.53 o
-5 2 8 64.65 158.18 30.47 o
-4 2 8 433.04 511.90 44.61 o
-3 2 8 241.45 270.48 28.36 o
-2 2 8 7.08 62.91 10.55 o
-1 2 8 691.69 578.05 40.18 o
0 2 8 387.64 616.33 54.88 o
1 2 8 3.52 20.34 16.32 <
2 2 8 463.91 464.76 64.95 o
3 2 8 548.56 811.87 106.25 o
4 2 8 4.51 -3.94 18.93 <
-6 3 8 228.93 289.34 28.15 o
-5 3 8 255.25 250.64 23.29 o
-4 3 8 16.21 61.92 9.99 o
-3 3 8 772.87 767.89 53.20 o
-2 3 8 325.15 515.21 35.75 o
-1 3 8 18.22 139.67 13.86 o
0 3 8 2821.17 2611.67 172.89 o
1 3 8 307.94 421.98 42.71 o
2 3 8 66.47 82.61 14.07 o
3 3 8 251.35 251.62 27.23 o
-7 4 8 218.99 491.64 50.10 o
-6 4 8 7.81 24.70 9.92 <
-5 4 8 511.62 422.68 32.58 o
-4 4 8 318.56 521.69 37.86 o
-3 4 8 20.62 46.02 8.51 o
-2 4 8 822.84 614.43 42.50 o
-1 4 8 232.08 448.86 28.22 o
0 4 8 28.18 42.01 9.08 o
1 4 8 512.11 502.90 37.15 o
2 4 8 136.12 150.23 20.41 o
3 4 8 17.23 23.29 11.54 <
-7 5 8 4094.22 3787.25 300.74 o
-6 5 8 80.88 103.58 14.78 o
-5 5 8 11.33 49.82 10.70 o
-4 5 8 7275.40 7205.44 472.85 o
-3 5 8 60.13 59.11 10.13 o
-2 5 8 10.64 47.00 8.09 o
-1 5 8 7674.98 7944.28 455.75 o
0 5 8 43.00 25.75 6.97 o
1 5 8 9.68 21.46 9.01 <
2 5 8 3532.20 3552.02 279.07 o
-7 6 8 11.47 9.92 12.24 <
-6 6 8 2558.95 2441.52 195.68 o
-5 6 8 193.56 182.39 19.91 o
-4 6 8 3.85 18.58 8.87 <
-3 6 8 6311.89 6127.66 402.42 o
-2 6 8 54.64 57.00 10.70 o
-1 6 8 3.28 73.32 10.98 o
0 6 8 1190.39 1334.82 90.07 o
1 6 8 119.74 136.16 15.06 o
-6 7 8 16.73 13.09 11.26 <
-5 7 8 3620.54 3682.97 244.52 o
-4 7 8 86.81 52.35 11.12 o
-3 7 8 11.34 4.22 8.09 <
-2 7 8 4879.10 5215.80 344.15 o
-1 7 8 66.26 45.24 10.48 o
-5 8 8 22.76 23.43 12.67 <
-4 8 8 3374.89 3071.08 244.59 o
-3 8 8 221.48 171.83 19.91 o
0 -1 9 226.39 276.18 50.38 o
1 -1 9 21.86 17.80 23.36 <
-2 0 9 150.81 250.50 32.37 o
-1 0 9 22.04 32.09 12.17 <
0 0 9 182.96 393.97 67.62 o
1 0 9 194.06 337.19 57.98 o
2 0 9 6.75 18.08 20.12 <
-3 1 9 3.85 3.38 9.01 <
-2 1 9 281.48 173.66 20.97 o
-1 1 9 84.31 272.31 30.61 o
0 1 9 14.21 -4.78 14.07 <
1 1 9 272.41 180.70 40.74 o
2 1 9 77.97 139.11 34.20 o
-4 2 9 520.31 439.99 41.23 o
-3 2 9 163.24 274.42 28.92 o
-2 2 9 11.21 12.38 8.23 <
-1 2 9 845.26 785.77 66.92 o
0 2 9 144.54 323.61 34.20 o
1 2 9 9.58 -0.07 18.72 <
2 2 9 482.07 389.47 65.72 o
-5 3 9 267.99 270.76 31.66 o
-4 3 9 7.37 -8.87 8.65 <
-3 3 9 7396.45 6759.75 528.72 o
-2 3 9 105.65 76.21 12.31 o
-1 3 9 9.38 20.19 10.77 <
0 3 9 2218.18 2299.95 188.23 o
1 3 9 121.92 173.10 21.95 o
2 3 9 5.36 59.25 25.33 <
-5 4 9 3631.35 3623.87 240.16 o
-4 4 9 166.02 175.70 18.44 o
-3 4 9 5.77 -5.56 6.40 <
-2 4 9 5635.58 5141.99 337.26 o
-1 4 9 199.02 232.56 21.67 o
0 4 9 14.91 11.96 10.70 <
1 4 9 5230.87 4854.83 396.15 o
-5 5 9 32.97 97.67 13.86 o
-4 5 9 681.91 478.13 35.11 o
-3 5 9 344.22 357.88 28.29 o
-2 5 9 39.57 116.81 11.68 o
-1 5 9 178.38 209.62 16.04 o
0 5 9 275.60 334.58 28.78 o
-5 6 9 188.58 215.53 22.31 o
-4 6 9 30.50 97.46 13.30 o
-3 6 9 316.97 276.25 25.47 o
-2 6 9 366.65 449.35 32.37 o
-1 6 9 16.85 67.27 10.41 o
-4 7 9 241.01 387.78 30.54 o
-3 7 9 18.33 36.31 9.92 o
-2 3 10 331.38 530.20 52.56 o
-1 3 10 18.93 37.86 12.45 o
-2 4 10 502.73 358.93 31.31 o
#BEGIN Loops that were not found in dictionaries:
loop_
_twin_individual_id
_twin_individual_mass_fraction_refined
_twin_individual_twin_matrix_11
_twin_individual_twin_matrix_12
_twin_individual_twin_matrix_13
_twin_individual_twin_matrix_21
_twin_individual_twin_matrix_22
_twin_individual_twin_matrix_23
_twin_individual_twin_matrix_31
_twin_individual_twin_matrix_32
_twin_individual_twin_matrix_33
1 0.365(11) 1 0 0 0 1 0 0 0 1
2 0.324(8) 0 -1 -0.3333 1 -1 -0.6667 0 0 1
3 0.311(7) -1 1 0.3333 -1 0 -0.3333 0 0 1
#END Loops that were not found in dictionaries
