#------------------------------------------------------------------------------
#$Date: 2015-10-10 14:29:12 +0300 (Sat, 10 Oct 2015) $
#$Revision: 165472 $
#$URL: svn://www.crystallography.net/cod/cif/4/34/42/4344299.cif $
#------------------------------------------------------------------------------
#
# This file is available in the Crystallography Open Database (COD),
# http://www.crystallography.net/
#
# All data on this site have been placed in the public domain by the
# contributors.
#
data_4344299
loop_
_publ_author_name
'Guthrie, D.H.'
'Meyer, G.'
'Corbett, J.D.'
_publ_section_title
;
 Metal-Metal Repulsion and Bonding in Confacial Bioctahedra. Crystal
 Structures of Cs3 Y2 I9 and Cs3 Zr2 I9 and Comparison with Related Phases
;
_journal_name_full               'Inorganic Chemistry'
_journal_page_first              1192
_journal_page_last               1196
_journal_volume                  20
_journal_year                    1981
_chemical_formula_sum            'Cs3 I9 Y2'
_chemical_name_systematic        'Cs3 Y2 I9'
_space_group_IT_number           194
_symmetry_space_group_name_Hall  '-P 6c 2c'
_symmetry_space_group_name_H-M   'P 63/m m c'
_cell_angle_alpha                90
_cell_angle_beta                 90
_cell_angle_gamma                120
_cell_formula_units_Z            2
_cell_length_a                   8.406
_cell_length_b                   8.406
_cell_length_c                   21.28
_cell_volume                     1302.210
_citation_journal_id_ASTM        INOCAJ
_cod_data_source_file            Guthrie_INOCAJ_1981_1419.cif
_cod_data_source_block           Cs3I9Y2
_cod_original_cell_volume        1302.21
_cod_database_code               4344299
loop_
_symmetry_equiv_pos_as_xyz
x,y,z
x-y,x,z+1/2
-y,x-y,z
-x,-y,z+1/2
-x+y,-x,z
y,-x+y,z+1/2
-y,-x,-z+1/2
x-y,-y,-z
x,x-y,-z+1/2
y,x,-z
-x+y,y,-z+1/2
-x,-x+y,-z
-x,-y,-z
-x+y,-x,-z-1/2
y,-x+y,-z
x,y,-z-1/2
x-y,x,-z
-y,x-y,-z-1/2
y,x,z-1/2
-x+y,y,z
-x,-x+y,z-1/2
-y,-x,z
x-y,-y,z-1/2
x,x-y,z
loop_
_atom_site_label
_atom_site_type_symbol
_atom_site_fract_x
_atom_site_fract_y
_atom_site_fract_z
_atom_site_occupancy
_atom_site_U_iso_or_equiv
Cs2 Cs+1 0 0 0.25 1 0.0
Y1 Y+3 0.6667 0.3333 0.1548 1 0.0
I2 I-1 0.5032 1.0064 0.25 1 0.0
I1 I-1 0.8371 0.6742 0.08422 1 0.0
Cs1 Cs+1 0.3333 0.6667 0.0715 1 0.0
