#------------------------------------------------------------------------------
#$Date: 2017-04-04 15:57:34 +0300 (Tue, 04 Apr 2017) $
#$Revision: 194799 $
#$URL: file:///home/coder/svn-repositories/cod/cif/4/34/52/4345205.cif $
#------------------------------------------------------------------------------
#
# This file is available in the Crystallography Open Database (COD),
# http://www.crystallography.net/
#
# All data on this site have been placed in the public domain by the
# contributors.
#
data_4345205
loop_
_publ_author_name
'Xiao, Bin'
'Kegler, Philip'
'Bosbach, Dirk'
'Alekseev, Evgeny V.'
_publ_section_title
;
 Thorium Chemistry in Oxo-Tellurium System under Extreme Conditions.
;
_journal_issue                   5
_journal_name_full               'Inorganic chemistry'
_journal_page_first              2926
_journal_page_last               2935
_journal_paper_doi               10.1021/acs.inorgchem.6b03030
_journal_volume                  56
_journal_year                    2017
_chemical_formula_sum            'O7 S Te Th'
_chemical_formula_weight         503.70
_chemical_name_systematic
;
 ?
;
_space_group_IT_number           14
_symmetry_cell_setting           monoclinic
_symmetry_space_group_name_Hall  '-P 2ybc'
_symmetry_space_group_name_H-M   'P 1 21/c 1'
_atom_sites_solution_primary     direct
_atom_sites_solution_secondary   difmap
_audit_creation_method           SHELXL-2014/7
_cell_angle_alpha                90.00
_cell_angle_beta                 103.724(7)
_cell_angle_gamma                90.00
_cell_formula_units_Z            4
_cell_length_a                   7.0324(5)
_cell_length_b                   9.6314(6)
_cell_length_c                   8.8053(6)
_cell_measurement_reflns_used    1249
_cell_measurement_temperature    293(2)
_cell_measurement_theta_max      73.3807
_cell_measurement_theta_min      4.5872
_cell_volume                     579.37(7)
_computing_cell_refinement
;
'Wed Aug 27 10:34:51 2014'
;
_computing_data_collection
;
'Wed Aug 27 10:34:51 2014'
;
_computing_data_reduction
;
'Wed Aug 27 10:34:51 2014'
;
_computing_structure_refinement  'SHELXL-97 (Sheldrick, 1997)'
_computing_structure_solution    'SHELXS-97 (Sheldrick, 1990)'
_diffrn_ambient_temperature      293(2)
_diffrn_detector_area_resol_mean 15.9834
_diffrn_measured_fraction_theta_full 0.979
_diffrn_measured_fraction_theta_max 0.979
_diffrn_measurement_device_type  'SuperNova, Dual, Cu at zero, Eos'
_diffrn_measurement_method       '\w scans'
_diffrn_radiation_monochromator  graphite
_diffrn_radiation_source         'fine-focus sealed tube'
_diffrn_radiation_type           CuK\a
_diffrn_radiation_wavelength     1.54184
_diffrn_reflns_av_R_equivalents  0.0346
_diffrn_reflns_av_sigmaI/netI    0.0432
_diffrn_reflns_limit_h_max       8
_diffrn_reflns_limit_h_min       -7
_diffrn_reflns_limit_k_max       11
_diffrn_reflns_limit_k_min       -9
_diffrn_reflns_limit_l_max       9
_diffrn_reflns_limit_l_min       -10
_diffrn_reflns_number            2390
_diffrn_reflns_theta_full        73.54
_diffrn_reflns_theta_max         73.54
_diffrn_reflns_theta_min         6.48
_exptl_absorpt_coefficient_mu    125.376
_exptl_absorpt_correction_T_max  1.00000
_exptl_absorpt_correction_T_min  0.18979
_exptl_absorpt_correction_type   multi-scan
_exptl_absorpt_process_details
;
'Wed Aug 27 10:34:51 2014'
;
_exptl_crystal_colour
;
'Wed Aug 27 10:34:51 2014'
;
_exptl_crystal_density_diffrn    5.775
_exptl_crystal_density_method    'not measured'
_exptl_crystal_description
;
'Wed Aug 27 10:34:51 2014'
;
_exptl_crystal_F_000             856
_exptl_crystal_size_max          0.08
_exptl_crystal_size_mid          0.07
_exptl_crystal_size_min          0.07
_refine_diff_density_max         6.789
_refine_diff_density_min         -4.708
_refine_diff_density_rms         0.697
_refine_ls_extinction_coef       0.00025(7)
_refine_ls_extinction_expression Fc^*^=kFc[1+0.001xFc^2^\l^3^/sin(2\q)]^-1/4^
_refine_ls_extinction_method     SHELXL
_refine_ls_goodness_of_fit_ref   1.063
_refine_ls_matrix_type           full
_refine_ls_number_parameters     57
_refine_ls_number_reflns         1144
_refine_ls_number_restraints     6
_refine_ls_restrained_S_all      1.060
_refine_ls_R_factor_all          0.0502
_refine_ls_R_factor_gt           0.0483
_refine_ls_shift/su_max          0.000
_refine_ls_shift/su_mean         0.000
_refine_ls_structure_factor_coef Fsqd
_refine_ls_weighting_details
'calc w=1/[\s^2^(Fo^2^)+(0.0805P)^2^+26.9006P] where P=(Fo^2^+2Fc^2^)/3'
_refine_ls_weighting_scheme      calc
_refine_ls_wR_factor_gt          0.1255
_refine_ls_wR_factor_ref         0.1271
_reflns_number_gt                1091
_reflns_number_total             1144
_reflns_threshold_expression     >2sigma(I)
_cod_data_source_file            ic6b03030_si_005.cif
_cod_data_source_block           ThTeSO7
_cod_depositor_comments
'Adding full bibliography for 4345205--4345207.cif.'
_cod_original_sg_symbol_Hall     '-p 2ybc'
_cod_original_sg_symbol_H-M      'P 21/c'
_cod_database_code               4345205
_shelx_shelxl_version_number     2014/7
_shelx_hkl_file
;
   0   0  -1 371.051 106.807   6
   0   0  -1 329.121 98.5687   5
   0   0  -2 48689.4 2005.12   5
   0   0  -2 50872.7 2019.72   6
   0   0  -3-128.123 306.830   6
   0   0  -3 309.749 268.787   5
   0   0   4 124416. 5051.29   7
   0   0  -4 131998. 5240.96   6
   0   0   5 661.729 479.968   7
   0   0  -5 1609.08 596.239   6
   0   0   6 1817.42 636.339   7
   0   0  -6 807.022 486.859   6
   0   0   7 424.674 323.926   7
   0   0  -8 323176. 12919.2  13
   0   0  -8 295503. 11893.4  10
   0   0  -9 313.007 425.015  13
   0   0  -9 27.8114 344.631  10
   0   0 -10 3344.33 508.135  14
   0   1   0 615.585 120.572   3
   0   1   1 148099. 4787.63   4
   0   1  -1 143674. 4915.20   5
   0   1   2 68015.8 2611.30   4
   0   1  -2 64293.7 2760.06   5
   0   1  -2 61750.4 2714.18   6
   0  -1   3 90647.3 3894.32   7
   0   1  -3 94746.6 3967.49   6
   0   1  -3 103094. 4078.13   5
   0  -1  -3 101195. 3793.71   6
   0   1   3 101121. 3891.20   4
   0  -1  -4 16326.4 1299.71   6
   0   1   4 17317.5 1314.12   4
   0  -1   4 14991.2 1281.51   7
   0   1  -4 14856.5 1355.42   5
   0   1  -4 14506.5 1310.49   6
   0   1  -5 354810. 12966.6   6
   0  -1   5 342710. 12793.8   7
   0   1  -5 359825. 13035.0   5
   0   1   6 11448.7 1266.04   7
   0   1  -6 9994.54 1321.83   6
   0  -1   6 8850.17 1181.56   7
   0   1  -7 292583. 11709.7  10
   0   1  -7 290500. 12286.4  13
   0   1   7 293697. 10989.3   7
   0  -1  -8 14828.1 1729.86  10
   0   1  -8 17223.9 1875.97  10
   0   1  -8 15529.3 2042.42  13
   0   1  -9 3336.78 872.402  13
   0  -1  -9 3290.28 712.634  10
   0   1 -10 26995.0 1544.30  14
   0   1 -10 29617.7 1815.50  13
   0   2   0 361574. 11590.8   3
   0   2  -1 41692.3 1731.58   5
   0   2  -2 63439.9 2698.25   5
   0   2   3 116786. 4558.13   4
   0  -2   3 125747. 4768.23   7
   0   2  -3 127063. 4932.73   5
   0   2  -3 123344. 4857.32   6
   0   2  -4 369891. 12932.2   6
   0  -2   4 379425. 12836.5   7
   0   2   4 356920. 12590.2   4
   0   2  -4 398999. 13122.4   5
   0   2  -5 89459.6 4290.78   6
   0  -2   5 90242.2 4219.01   7
   0   2  -5 94125.2 4432.11   5
   0   2  -6 925.495 477.617   5
   0   2  -6 1501.03 514.398   6
   0   2   6 1065.45 418.851   7
   0   2  -7 11617.2 1524.22  10
   0   2  -7 10848.7 1690.76  13
   0   2   7 10935.8 1249.20   7
   0   2  -8 152425. 6809.69  10
   0   2  -8 140204. 7218.75  13
   0   2  -9 13327.4 1308.53  14
   0   2  -9 17824.9 1836.97  13
   0   2 -10 2309.44 511.042  13
   0   2 -10 1419.08 313.167  14
   0   3   0 238.872 242.476   3
   0   3  -1 238585. 7967.74   5
   0   3   1 231438. 7904.80   3
   0  -3   1 240057. 7483.88   1
   0   3  -2 131216. 4926.50   5
   0   3  -3 122529. 4902.52   5
   0   3  -4 76372.1 3636.61   5
   0   3  -4 74601.5 3574.66   6
   0   3  -5 42977.7 2616.17   6
   0   3  -5 43170.9 2667.98   5
   0   3   6 1121.58 450.145   7
   0   3  -6 2181.77 590.949   6
   0   3  -6 1133.76 452.804   5
   0   3  -7 80995.5 4933.77  13
   0   3   7 83848.5 4088.44   7
   0   3  -7 90175.0 4685.16  10
   0  -3  -7 74709.1 4965.53  23
   0   3  -8 29630.3 2689.23  13
   0   3  -8 28402.8 2162.67  14
   0   3  -9 61769.7 3146.96  14
   0   3  -9 72162.6 3866.66  13
   0   3 -10 98130.3 3735.24  13
   0   3 -10 78964.6 3145.61  14
   0   4   0 21385.9 1429.94   3
   0  -4   1 1451.30 277.996   8
   0   4   1 1245.16 340.123   3
   0   4  -1 1277.99 335.332   5
   0   4  -2 42008.5 2145.42   5
   0   4   2 39043.6 1921.13   3
   0  -4   2 40536.5 2051.89   8
   0   4  -3 237072. 8588.28   5
   0   4  -4 223988. 8297.87   6
   0   4  -4 217058. 8337.78   5
   0   4  -5 99621.0 4588.62   6
   0   4  -5 99838.2 4711.04   5
   0   4   6 3121.00 614.168   7
   0   4  -6 3586.88 734.095   6
   0   4  -7 14254.7 1810.77  13
   0   4  -7 13910.4 1469.05  14
   0   4  -7 14881.0 1505.33  15
   0   4  -8 50042.7 2899.50  14
   0   4   8 50223.1 2605.94  17
   0   4  -8 51940.7 3463.53  13
   0   4  -9 65798.2 3433.22  13
   0   4  -9 58820.3 2853.97  14
   0   5   0 1558.05 467.299   3
   0   5   1 48496.7 2461.76   3
   0   5  -1 47388.5 2391.38   5
   0   5   2 208278. 7493.53   3
   0   5  -2 208563. 7708.26   5
   0   5  -3 189815. 7297.64   5
   0   5  -4 2794.30 584.927   6
   0   5  -4 3394.33 684.378   5
   0   5  -5 1937.99 586.346   5
   0   5  -6 103612. 4883.34  14
   0   5  -6 107232. 5055.14  15
   0   5  -6 105718. 5496.50  13
   0   5  -7 7084.51 1005.71  14
   0   5  -7 7274.91 1038.17  15
   0   5  -7 6662.38 1250.81  13
   0   5   8 1343.58 386.477  17
   0   5  -8 1398.50 538.398  13
   0   5  -8 1131.09 445.806  14
   0   5  -9 68859.9 3187.11  13
   0   5  -9 62797.6 2708.82  14
   0   5   9 59395.9 2525.62  17
   0   6   0 15506.3 1214.24   5
   0   6  -1 175353. 6972.00   5
   0   6   1 196708. 7229.30   3
   0   6   2 98567.3 4260.79   3
   0   6  -2 95260.6 4344.25   5
   0   6  -3 19099.8 1620.87   5
   0   6  -4 24494.7 1935.94   5
   0   6  -5 70471.3 3740.88  14
   0   6  -5 78596.0 4037.16  15
   0   6  -5 69631.4 4024.34  13
   0   6  -6 21640.9 2068.59  13
   0   6  -6 21949.8 1815.57  14
   0   6  -6 20959.7 1885.07  15
   0   6  -7 82298.1 4056.16  15
   0   6   7 85847.1 4025.16  17
   0   6  -7 83054.9 3979.19  14
   0   6  -7 83484.3 4434.38  13
   0   6  -8 11955.7 1259.62  13
   0   6  -8 12716.2 1091.08  14
   0   6   8 13510.5 1108.35  17
   0   6   9 31935.5 1438.37  17
   0   7   0 955.716 348.442   5
   0   7  -1 641.176 296.930   5
   0   7  -2 121022. 5305.59   5
   0   7  -3 6022.08 902.693   5
   0   7  -4 18765.0 2142.76  12
   0   7  -4 21118.4 1811.42  14
   0   7  -4 23471.5 2010.30  15
   0   7   4 21577.3 1690.80  22
   0   7  -5 4607.50 916.538  13
   0   7  -5 6380.67 1163.40  12
   0   7  -5 6658.28 1048.15  15
   0   7  -5 6794.00 976.191  14
   0   7  -6 299188. 10937.7  15
   0   7  -6 283844. 10931.8  13
   0   7  -6 289117. 10582.4  14
   0   7   7 10046.0 1062.26  17
   0   7  -7 8633.29 1327.68  20
   0   7   8 40998.6 1992.26  17
   0   7  -8 40327.9 2307.48  20
   0   8   0 31615.1 2632.44  12
   0   8  -1 308144. 12398.2  12
   0   8  -2 7030.06 1328.25  12
   0   8   3 21961.1 1797.90  22
   0   8  -3 22805.9 2372.40  12
   0   8  -4 856.248 602.866  12
   0   8   4 870.036 479.076  22
   0   8   5 37563.4 2341.89  17
   0   8  -5 32919.2 2578.33  12
   0   8   6 5458.70 807.596  17
   0   8  -6 7402.11 1309.72  20
   0   8   7 61427.9 2780.43  17
   0   8  -7 62791.9 3430.58  20
   0   9   0 1028.89 582.832  12
   0   9  -1 20445.1 2182.42  12
   0   9  -2 114745. 6046.59  12
   0   9  -2 113447. 5798.39  20
   0   9   2 114746. 5222.42  22
   0   9  -3 73424.0 4492.43  20
   0   9  -3 72118.1 4398.08  12
   0   9   3 70199.5 3667.74  22
   0   9  -4 10145.3 1553.10  20
   0   9   4 10349.9 1141.67  22
   0   9  -4 11318.4 1468.40  12
   0   9  -5 6439.39 1189.72  20
   0   9  -5 7214.37 1018.44  12
   0   9   5 7298.36 803.930  17
   0   9   6 245289. 8527.11  17
   0   9  -6 256505. 9593.59  20
   0  10   0 764.782 548.279  12
   0  10   1 108938. 5044.03  22
   0  10  -1 113067. 5539.25  12
   0  10  -2 20816.2 2036.27  12
   0  10   2 20434.4 1695.64  22
   0  10   3 31269.0 2035.40  22
   0  10  -3 28488.0 2263.82  20
   0  10  -3 32607.3 2488.46  12
   0  10  -4 131912. 6067.30  20
   0  10  -4 149454. 6079.99  12
   0  10  -5 33237.8 2120.84  20
   0  10  -5 29101.3 1776.29  12
   0  11   0 364.814 342.997  22
   0  11   0 584.940 289.128  12
   0  11  -1 88449.9 3881.85  22
   0  11   1 84042.8 3819.75  22
   0  11  -1 80883.4 3993.89  12
   0  11   2 85992.5 3691.61  22
   0  11  -2 79581.2 3949.56  12
   0  11  -3 79464.0 3683.53  12
   0  11  -4 1425.62 339.168  12
   1   0 -10 240625. 8805.15  10
   1   0  -9 565.319 575.569  10
  -1   0   8 132205. 5796.94   7
   1   0  -8 121988. 6456.38  10
  -1   0   7 769.208 401.611   7
  -1   0   6 140562. 6513.51   4
  -1   0   6 131693. 5763.65   7
  -1   0   5 81.3753 437.406   4
   1   0  -4 5580.17 702.417   6
   1   0  -3 588.472 272.515   6
   1   0  -2 122551. 4138.49   2
   1   0  -1 202.991 108.356   2
   1   0  -1 556.857 113.260   1
   1   0   0 22083.8 976.742   2
   1   0   1 415.997 169.889   2
  -1   0  -1 215.222 150.031   5
  -1   0  -2 973730. 30905.7   5
   1   0   2 999999. 30575.1   2
  -1   0  -2 967292. 31072.4   6
   1   0   2 976123. 31185.7   7
   1   0   3 84.6998 301.021   7
  -1   0  -3 392.772 374.496   6
  -1   0  -3 342.611 259.396   5
   1   0   4 209975. 7851.71   7
  -1   0  -4 210510. 7949.74   6
  -1   0  -4 202822. 7773.89   5
  -1   0  -5 112.108 421.490   6
   1   0   5 554.286 372.866   7
  -1   0  -6 9092.03 1325.89   6
  -1   0  -7-103.752 498.307  16
  -1   0  -7 651.305 490.618  10
  -1   0  -8 4049.09 1224.75  13
  -1   0  -9 930.285 486.387  13
   1  -1 -10 1374.20 444.090  10
   1   1 -10 1064.83 364.566  14
   1   1  -9 42747.6 3079.29  13
   1   1  -9 39375.6 2858.70  10
   1  -1  -9 39376.1 2872.75  10
  -1   1   8 18080.3 1671.32   7
   1   1  -8 19407.4 2266.34  13
   1  -1  -8 15959.1 1964.22  10
   1   1  -8 18751.0 2098.50  10
  -1   1   7 33368.1 2377.08   7
  -1  -1   7 34569.7 2838.56   4
  -1  -1   7 30740.5 2347.88   7
  -1   1   6 47129.8 3082.75   4
  -1  -1   6 46069.1 2833.59   7
  -1   1   5 267714. 9964.45   4
   1   1  -5 261345. 9685.97   6
  -1  -1   5 253773. 9436.80   7
   1   1  -4 5753.97 756.662   5
  -1   1   4 7040.06 914.574   4
   1   1  -4 6901.99 829.005   6
   1   1  -3 638937. 21022.4   6
  -1   1   3 641170. 21358.0   4
   1   1  -3 669742. 20509.6   1
   1   1  -3 666122. 21126.4   5
   1   1  -2 102377. 3662.97   5
   1   1  -2 107805. 3551.68   6
   1  -1  -2 105083. 3494.48   2
   1   1  -2 99477.9 3335.39   1
  -1   1   2 103690. 3887.76   4
  -1   1   1 19641.4 1022.46   4
   1  -1  -1 21754.0 902.086   1
   1   1  -1 19903.1 839.953   5
   1  -1   0 53834.2 1921.08   1
   1   1   0 54419.1 2047.68   2
  -1   1  -1 61824.8 2369.53   5
   1   1   1 57550.4 2207.82   2
  -1  -1  -1 62861.5 2178.26   6
  -1   1  -1 61287.5 2277.62   3
   1   1   2 100528. 3948.19   7
  -1   1  -2 105139. 3954.11   5
   1   1   2 100731. 3364.58   4
  -1  -1  -2 106553. 3718.95   6
   1   1   2 95479.4 3404.12   2
   1   1   3 121093. 4890.50   7
  -1   1  -3 122201. 5009.33   6
  -1   1  -3 122988. 4951.51   5
  -1  -1  -3 128900. 4830.82   6
   1   1   4 39124.8 2285.65   7
  -1  -1  -4 42482.8 2455.23   6
  -1   1  -4 39502.3 2408.74   5
  -1   1  -4 41290.6 2463.10   6
   1   1   5 189320. 7262.47   7
  -1  -1  -5 179038. 7543.79   6
  -1   1  -5 181069. 7429.05   6
  -1   1  -5 184829. 7459.31   5
   1   1   6 1842.90 546.266   7
  -1   1  -6 3489.22 803.165   6
  -1   1  -7 78345.7 5105.89  13
  -1  -1  -7 74628.8 4768.17  16
  -1   1  -7 81030.4 4297.23  10
  -1  -1  -8 2971.10 855.728  16
  -1   1  -8 2634.52 960.345  13
  -1  -1  -8 3820.57 1170.07  13
  -1   1  -9 192827. 7883.87  13
  -1  -1  -9 179617. 7547.76  13
  -1   1 -10 1689.34 375.977  13
   1   2 -10 149628. 5714.82  14
   1   2 -10 153990. 5952.09  13
   1  -2 -10 145394. 5657.87  10
   1  -2  -9 1827.05 653.734  10
   1   2  -9 2074.12 777.957  13
   1   2  -9 2111.81 732.824  10
   1   2  -8 13171.5 1872.39  13
   1   2  -8 13793.4 1710.71  10
   1   2  -7 84454.7 4775.96  10
   1   2  -7 82495.3 5016.76  13
   1  -2  -7 79997.3 5845.87  19
   1  -2  -7 79160.7 5038.15  23
  -1   2   7 85946.1 4198.47   7
   1   2  -6 122920. 5676.94   6
  -1  -2   6 116371. 5260.79   7
  -1   2   6 118511. 5500.44   4
  -1  -2   5 100498. 4444.94   7
   1   2  -5 100306. 4697.81   6
   1   2  -5 100744. 4684.13   5
  -1   2   5 101699. 4696.71   4
  -1   2   4 13924.8 1283.23   4
   1   2  -4 15257.5 1279.72   6
   1   2  -4 16667.4 1372.74   5
  -1  -2   4 15632.0 1210.91   7
   1   2  -3 21923.7 1349.55   6
  -1   2   3 22581.1 1481.83   4
   1   2  -3 23335.4 1484.33   5
  -1  -2   3 22877.3 1324.16   7
   1   2  -2 309455. 10268.8   5
   1   2  -2 309301. 10053.9   6
   1   2  -1 211726. 6974.74   5
  -1   2   0 1159.94 251.158   3
   1  -2   0 654.359 157.776   1
   1  -2   1 2363.70 405.551   8
  -1   2  -1 2171.58 351.252   5
   1   2   1 2583.66 301.349   3
  -1   2  -1 2753.24 383.556   3
   1   2   2 196701. 6918.02   7
  -1   2  -2 207128. 7117.77   5
  -1   2  -3 496.647 319.693   5
   1   2   3 958.215 315.916   7
  -1   2  -4 79256.8 3850.42   6
  -1   2  -4 79412.2 3851.10   5
   1   2   4 86799.6 3689.66   7
  -1   2  -5 111438. 5130.83   5
   1   2   5 119535. 4936.57   7
  -1   2  -5 110067. 5070.46   6
  -1   2  -6 101516. 4883.52   6
   1   2   6 100900. 4611.66   7
  -1   2  -6 100246. 4921.51   5
  -1   2  -7 216543. 9493.77  13
  -1  -2  -7 191379. 9263.61  16
  -1   2  -8 5054.47 1171.84  13
  -1   2  -9 869.158 564.483  13
  -1   2 -10 63631.4 2769.96  13
   1   3 -10 473.058 237.412  14
   1   3 -10 499.856 271.824  13
   1  -3  -9 13034.0 1428.84  10
   1   3  -9 15811.9 1690.64  13
   1   3  -9 13430.0 1362.46  14
   1  -3  -8 120928. 6916.92  23
   1   3  -8 123523. 5834.39  14
   1   3  -8 131456. 6611.64  13
   1   3  -8 141568. 6275.12  10
   1   3  -7 154236. 7579.20  13
   1  -3  -7 145574. 7776.90  23
  -1   3   7 167627. 6723.03   7
   1   3  -7 171636. 7351.11  10
   1   3  -6 54837.4 3311.14   5
   1   3  -5 60131.7 3306.42   6
   1   3  -5 59347.2 3294.85   5
  -1  -3   4 807.165 315.016   7
   1   3  -4 1009.49 427.503   6
   1   3  -4 1887.53 497.367   5
   1   3  -3 64255.4 2909.59   6
   1   3  -3 62265.2 2992.81   5
   1   3  -2 54274.2 2469.62   5
   1   3  -1 24009.5 1235.65   5
  -1   3   0 358741. 12285.5   3
   1  -3   0 385463. 11955.6   1
   1  -3   1 287649. 9511.05   8
   1   3   1 279856. 9310.06   3
  -1   3  -1 280489. 9500.60   3
  -1   3  -1 269770. 9314.94   5
   1  -3   2 24528.9 1648.47   8
  -1   3  -2 23479.7 1476.04   5
   1   3   3 61642.0 2690.56   7
  -1   3  -3 58239.1 2908.24   5
  -1   3  -4 39683.5 2397.51   6
   1   3   4 40997.5 2185.95   7
  -1   3  -4 37744.8 2381.14   5
  -1   3  -5 100986. 4788.07   6
  -1   3  -5 102595. 4883.09   5
   1   3   5 113419. 4645.78   7
   1   3   6 32465.4 2123.03   7
   1   3   7 13212.7 1193.48  17
  -1   3  -7 10851.5 1248.46  14
  -1  -3  -7 10462.1 1753.61  16
  -1   3  -7 10837.1 1691.74  13
  -1   3  -8 18472.2 2022.98  13
  -1   3  -9 51222.2 2987.30  13
   1   4 -10 6602.80 606.178  14
   1   4  -9 10691.1 1099.23  14
  -1   4   9 9054.72 800.923  17
   1   4  -9 11521.9 1348.66  13
   1  -4  -8 10880.0 1794.61  23
   1   4  -8 13520.9 1443.72  14
   1   4  -8 14249.8 1748.52  13
   1   4  -7 96450.3 5364.90  13
   1   4  -7 95755.0 4834.69  14
   1   4  -7 101226. 4940.08  10
  -1   4   7 101590. 4576.09   7
   1  -4  -7 89728.6 5636.60  23
   1   4  -6 141754. 6244.30   5
   1   4  -5 172704. 7112.76   5
   1   4  -4 15165.0 1409.68   5
   1   4  -3 63052.0 3099.07   5
   1   4  -2 177412. 6550.90   5
  -1   4   1 272870. 9446.72   3
   1   4  -1 280746. 9356.51   5
  -1   4   0 42289.9 2144.72   3
   1  -4   0 41325.2 1741.64   1
  -1   4  -1 1540.21 431.010   3
   1  -4   1 1413.82 399.512   8
   1  -4   2 45869.9 2591.67   8
  -1   4  -2 47150.3 2425.84   5
   1  -4   3 81186.7 3994.03   8
  -1   4  -3 78474.5 3657.22   5
  -1   4  -4 10477.2 1167.85   5
  -1   4  -4 9682.45 1105.04   6
   1  -4   4 10500.0 1269.46   8
  -1   4  -5 203342. 8039.48   5
  -1   4  -5 198158. 7878.97   6
   1  -4   6 234640. 9035.90   8
  -1   4  -6 212690. 9357.05  13
  -1   4  -6 212501. 8331.88  14
   1   4   6 214449. 8252.46  17
  -1  -4  -7 165271. 8684.30  16
  -1   4  -7 190021. 7366.90  14
   1   4   7 187123. 7180.28  17
  -1   4  -7 189850. 8356.90  13
   1   4   8 27785.8 1717.09  17
  -1   4  -8 30120.5 2067.06  15
  -1   4  -8 30716.7 2465.46  13
  -1   4  -9 665.930 404.981  13
  -1   5   9 38681.5 1890.89  17
   1   5  -9 41403.8 2456.49  13
   1   5  -9 39044.0 2117.61  14
   1   5  -8 123264. 5378.64  14
   1   5  -8 125198. 5893.25  13
   1  -5  -7 78947.6 5237.62  23
   1   5  -7 80815.9 4740.92  13
   1   5  -7 88109.7 4401.90  14
   1   5  -6 11420.3 1332.93  14
   1   5  -6 11654.6 1529.95  13
   1  -5  -6 10534.1 1682.21  23
   1   5  -5 57154.7 3280.25   5
   1   5  -4 127107. 5527.68   5
   1   5  -3 756.128 400.708   5
  -1   5   2 13837.6 1164.93   3
   1   5  -2 15820.8 1273.76   5
  -1   5   1 195241. 7218.07   3
   1  -5  -1 195498. 6884.43   1
   1   5  -1 196844. 7100.70   5
   1  -5   0 326520. 10582.4   1
  -1   5   0 316690. 11258.1   3
  -1   5  -1 150804. 5808.42   5
  -1   5  -2 28227.2 1854.28   5
   1  -5   2 24382.1 1874.07   8
   1  -5   3 5051.00 888.128   8
  -1   5  -3 5110.78 798.971   5
  -1   5  -4 186171. 7454.74   6
   1  -5   4 190015. 7838.19   8
  -1   5  -4 191412. 7571.16   5
  -1   5  -5 50492.4 3127.39  15
   1  -5   5 43532.1 2950.56   8
   1   5   6 30601.7 2121.46  17
  -1   5  -6 27185.5 1987.80  14
  -1   5  -6 28021.0 2529.24  13
  -1   5  -6 30878.3 2406.73  15
  -1   5  -7 1135.17 663.701  13
   1   5   7 1352.15 484.254  17
  -1   5  -7 1082.05 433.071  14
  -1   5  -7 1163.40 545.538  15
  -1   5  -8 98180.8 4657.19  13
  -1   5  -8 99478.1 4341.95  15
   1   5   8 99580.2 4072.72  17
  -1   5  -9 565.505 261.112  13
  -1   6   9 90059.3 3347.84  17
   1   6  -9 85553.0 3440.88  14
   1   6  -8 10221.9 1072.77  14
  -1   6   8 11545.5 1074.51  17
   1   6  -7 22216.5 1835.72  14
   1   6  -7 27299.8 2756.88  20
   1   6  -7 21911.8 2055.99  13
   1   6  -6 93993.9 5009.70  13
   1   6  -6 97349.6 4739.57  14
   1   6  -5 121033. 5842.82  13
   1   6  -5 121865. 5513.08  15
   1   6  -5 132873. 5718.05  14
  -1   6   3 72102.6 3565.32   3
  -1   6   2 26944.0 1835.47   3
   1  -6  -2 20179.2 1572.77   1
  -1   6   1 106773. 4613.50   3
   1  -6  -1 100035. 4138.62   1
  -1   6   0 39803.4 2441.51   3
  -1   6   0 38829.7 2221.03   5
  -1   6  -1 129216. 5370.83   5
  -1   6  -2 1451.80 454.940   5
  -1   6  -3 257071. 9672.64   5
  -1   6  -4 59291.7 3229.35   6
   1   6   5 5134.58 922.089  17
  -1   6  -5 3638.30 700.326  14
  -1   6  -5 4192.90 894.492  13
  -1   6  -5 4322.77 891.800  15
  -1   6  -6 80081.5 3956.39  14
  -1   6  -6 83163.0 4493.15  13
  -1   6  -6 85750.8 4485.21  15
   1   6   7 77423.8 3562.28  17
  -1   6  -7 66634.3 3739.33  13
  -1   6  -7 76957.8 3794.60  15
  -1   6  -7 72328.5 3366.05  14
  -1   6  -8 35502.6 1946.28  15
  -1   6  -8 32528.5 2001.70  13
   1   6   8 35590.1 1834.83  17
  -1   7   8 71939.1 3097.80  17
   1   7  -8 71697.7 3551.75  20
   1   7  -7 7438.37 956.571  14
   1   7  -7 7617.49 1356.65  20
   1   7  -6 3023.91 1077.91  20
   1   7  -6 2737.68 655.158  14
   1   7  -5 6828.15 1472.07  20
   1   7  -5 6434.02 1257.56  12
   1   7  -5 7105.53 1045.71  14
  -1   7   4 539234. 18679.8  22
   1   7  -4 589382. 19276.8  14
   1   7  -4 562321. 20687.2  12
   1  -7  -3 7677.95 1071.35   1
  -1   7   2 73806.5 3789.76   3
  -1   7   1 9441.62 1168.18   3
  -1   7   0 53503.1 2937.14   5
  -1   7  -1 13876.0 1363.99   5
  -1   7  -2 9785.69 1168.94   5
   1   7   3 498.538 392.312  17
  -1   7  -3 446.521 371.700  15
  -1   7  -3 172.132 431.518  12
   1   7   4 320992. 11840.3  22
   1   7   4 334110. 12013.9  17
  -1   7  -4 338159. 12416.8  15
  -1   7  -4 317225. 12839.1  12
   1   7   5 5778.24 936.107  17
  -1   7  -5 4343.29 951.662  15
   1   7   6 4133.22 752.328  17
  -1   7  -6 4214.32 880.674  15
  -1   7  -7 505.408 246.802  13
   1   7   7 854.007 350.597  17
  -1   7  -7 360.553 333.047  15
   1   7   8 123001. 4430.43  17
  -1   8   8 1968.93 318.187  17
  -1   8   7 8776.83 885.774  17
   1   8  -7 9012.90 1206.70  20
   1   8  -6 14203.7 1873.13  20
   1   8  -5 53501.0 3556.07  12
   1   8  -5 51977.6 3944.03  20
  -1   8   4 3921.17 708.015  22
   1   8  -4 5985.62 1223.36  12
   1   8  -4 4513.87 1237.29  20
   1   8  -3 44139.3 3496.85  20
   1   8  -3 45976.8 3537.86  12
  -1   8   3 40868.8 2529.76  22
   1   8  -2 1240.27 778.715  12
   1   8  -2 1590.67 751.966  20
  -1   8   1 97822.5 5214.52  12
   1   8  -1 107179. 5581.80  12
   1   8   0 2912.40 790.455  12
  -1   8   0 4238.20 999.384  12
  -1   8  -1 164025. 7854.35  12
  -1   8  -2 7458.91 1343.06  12
   1   8   2 8273.57 1095.38  22
  -1   8  -3 342433. 13352.1  12
   1   8   3 325845. 12034.5  22
   1   8   4 1780.97 502.358  17
  -1   8  -4 2216.06 739.916  12
  -1   8  -5 285.126 422.119  12
   1   8   5 45.9196 271.252  17
   1   8   6 933.006 368.410  17
  -1   8  -7 23531.2 1715.58  20
   1   8   7 23490.4 1348.54  17
  -1   9   7 20533.6 1112.89  17
   1   9  -7 20937.1 1447.21  20
  -1   9   6 5028.67 621.447  17
   1   9  -6 5235.42 954.605  20
  -1   9   5 7254.91 818.424  17
   1   9  -5 5014.09 938.319  12
   1   9  -5 4729.38 1085.36  20
   1   9  -4 268309. 11220.0  20
   1   9  -4 277720. 11005.5  12
  -1   9   4 271699. 9842.22  22
  -1   9   3 3762.16 724.619  22
   1   9  -3 4941.34 1145.08  12
   1   9  -3 4000.58 997.279  20
   1   9  -2 102041. 5614.15  12
   1   9  -2 103343. 5380.33  20
   1   9  -1 38655.5 2997.63  12
  -1   9   1 36739.7 2787.53  12
   1   9   0 100091. 5236.83  12
  -1   9   0 104977. 5554.57  12
  -1   9  -1 35034.2 2983.47  12
   1   9   1 36257.1 2480.40  22
   1   9   2 1749.95 562.526  22
  -1   9  -2 1485.45 797.501  12
  -1   9  -3 427.360 450.408  12
   1   9   3 1612.59 529.675  22
  -1   9  -4 126798. 5875.37  12
  -1   9  -5 18414.6 1514.24  12
  -1   9  -5 21638.7 2001.46  20
   1   9   5 21098.2 1364.83  17
  -1   9  -6 16290.8 1431.14  20
   1   9   6 15965.9 1009.51  17
   1  10  -5 49931.6 2648.21  12
   1  10  -5 53486.6 2930.27  20
   1  10  -4 5530.16 960.880  20
   1  10  -4 7833.53 1070.30  12
  -1  10   3 43759.3 2460.13  22
   1  10  -3 43613.8 2968.42  12
   1  10  -3 39756.8 2744.27  20
   1  10  -2 81713.0 4522.08  12
  -1  10   2 82695.0 3984.77  22
   1  10  -1 48634.8 3178.91  12
   1  10   0 21721.4 1808.30  22
   1  10   0 21550.1 1911.66  12
  -1  10   0 24097.6 2107.74  12
   1  10   1 38656.9 2479.45  22
  -1  10  -1 36843.5 2809.70  12
   1  10   2 934.066 452.964  22
  -1  10  -2 1127.86 574.429  12
  -1  10  -3 148203. 6296.42  12
  -1  10  -3 134265. 6028.38  20
  -1  10  -4 12271.6 1200.35  12
  -1  10  -4 9281.69 1125.16  20
  -1  10  -5 7555.99 854.529  20
   1  11  -4 34271.5 1877.35  12
   1  11  -3 580.000 218.807  22
   1  11  -3 479.648 310.063  12
  -1  11   3 309.706 159.179  22
   1  11  -2 511.638 264.722  22
  -1  11   2 510.306 309.303  22
   1  11  -2 835.608 392.653  12
   1  11  -1 61296.3 3173.06  12
   1  11  -1 62287.9 2974.71  22
  -1  11   1 61499.2 3031.26  22
  -1  11   0 76391.6 3695.37  12
   1  11   0 81600.0 3615.85  22
  -1  11   0 78989.6 3673.22  22
   1  11   1 148946. 5691.36  22
  -1  11  -1 140785. 5949.50  12
  -1  11  -2 10850.0 1153.70  12
   1  11   2 11770.0 1021.63  22
  -1  11  -3 5782.66 732.100  12
   2   0 -10 6024.25 922.166  10
   2   0  -9 552.906 622.800  10
  -2   0   8 282398. 10826.9   7
   2   0  -8 312259. 13380.2  19
  -2   0   7 1044.79 375.162   4
  -2   0   7 704.298 451.214   7
  -2   0   6 254972. 10663.1   4
  -2   0   5-157.128 391.424   4
   2   0  -4 10939.7 813.581   1
  -2   0   4 11530.0 1299.39   4
  -2   0   3 90.6387 327.326   4
   2   0  -3 133.771 146.271   1
  -2   0   2 310.443 277.277   4
   2   0  -2 632.611 194.355   1
  -2   0   1 237.850 205.025   4
   2   0  -1 475.848 297.654   2
   2   0   0 380327. 12036.2   2
  -2   0   0 363390. 11574.8   5
   2   0   1 599.729 234.916   2
  -2   0  -1 820.624 216.779   5
  -2   0  -2 102718. 4071.93   6
   2   0   2 98309.9 3652.39   2
  -2   0  -3 136.455 211.818   5
  -2   0  -3 294.623 336.586   6
  -2   0  -4 258145. 9820.02   5
  -2   0  -4 300188. 10353.3   6
  -2   0  -5 736.297 515.914   6
  -2   0  -6 275799. 11719.0  16
  -2   0  -7 1123.39 663.226  16
  -2   0  -8 20274.5 2227.29  13
  -2   0  -9 799.407 436.023  13
   2   1 -10 35444.2 2245.39  10
   2  -1 -10 36768.2 2355.06  10
   2  -1  -9 62875.5 4048.19  10
   2   1  -9 68072.8 4030.78  10
  -2   1   8 1363.50 492.443   7
   2   1  -8 222.727 653.020  10
   2  -1  -8 1877.35 944.282  23
   2  -1  -8 2168.63 1163.13  19
  -2  -1   8 750.140 381.551   7
  -2   1   7 36019.3 2913.47   4
  -2  -1   7 33412.8 2371.99   7
  -2  -1   7 35025.9 3096.10   4
  -2  -1   6 6203.85 904.152   7
  -2   1   6 6021.19 1104.48   4
  -2  -1   6 6821.76 1291.49   4
   2  -1  -5 118433. 4924.70   1
  -2   1   5 125483. 5699.71   4
   2  -1  -4 43403.0 2130.16   1
  -2   1   4 40883.6 2550.64   4
   2  -1  -3 74540.2 2912.33   1
  -2   1   3 65078.3 3256.41   4
   2  -1  -3 73762.9 2837.31   2
   2   1  -2 4345.43 567.866   2
  -2   1   2 3835.37 564.890   4
   2  -1  -2 3959.52 495.077   2
   2  -1  -2 4172.48 447.824   1
   2   1  -1 597987. 19185.3   2
   2  -1  -1 614116. 18972.1   1
   2  -1  -1 581095. 19215.7   2
   2   1   0 79031.2 3235.95   2
  -2  -1   0 86358.3 2843.64   4
   2  -1   0 71858.3 3333.81   2
   2  -1   0 92800.3 3269.99   8
  -2   1  -1 12273.2 733.063   3
  -2   1  -1 13382.3 876.276   5
   2  -1   1 12163.9 997.765   8
  -2  -1  -1 13808.8 838.209   6
   2   1   1 12092.3 886.038   2
  -2  -1  -2 76609.0 3206.71   6
  -2   1  -2 76608.7 3257.01   5
   2   1   2 77676.2 3077.70   2
   2  -1   2 80470.0 3330.57   2
  -2   1  -3 42312.0 2328.18   5
  -2  -1  -3 42404.3 2349.25   6
  -2   1  -3 47063.6 2577.06   6
  -2   1  -4 135757. 5720.15   5
  -2   1  -4 144710. 5983.94   6
  -2  -1  -4 141752. 5978.58   6
  -2  -1  -5 77639.2 4251.40   6
  -2   1  -5 85181.3 4234.50   6
  -2   1  -5 80594.6 4025.66   5
  -2   1  -6 11406.6 1684.86  16
  -2  -1  -6 6390.01 1435.61  16
  -2  -1  -7 233597. 10581.9  16
  -2   1  -7 239618. 10678.7  13
  -2  -1  -8 3050.23 990.061  16
  -2   1  -8 4247.87 1172.91  13
  -2  -1  -8 3084.35 944.925  13
  -2   1  -9 1665.95 540.064  13
  -2  -1  -9 1481.27 491.472  13
   2  -2 -10 10487.4 1174.93  10
   2   2 -10 10097.5 1030.60  14
   2   2  -9 26477.1 2215.05  10
   2  -2  -9 21068.3 2192.26  10
   2   2  -9 25628.5 2329.38  13
   2  -2  -8 175997. 9587.46  19
   2   2  -8 166884. 8038.28  13
   2  -2  -8 159392. 8149.74  23
   2   2  -8 161408. 7513.08  10
   2  -2  -7 3075.28 1309.44  19
   2   2  -7 1114.53 589.124  10
   2   2  -7 473.211 456.509  13
   2  -2  -7 3287.28 1012.73  23
  -2  -2   7 928.106 414.444   7
  -2   2   6 67969.2 3887.23   4
  -2  -2   6 60825.0 3182.36   7
   2  -2  -5 96695.3 4754.32   1
  -2  -2   5 111011. 4527.30   7
  -2   2   5 110355. 5150.36   4
  -2   2   4 120898. 5130.73   4
   2  -2  -4 113136. 4726.09   1
  -2   2   3 188383. 6877.81   4
   2   2  -3 184261. 6326.89   5
   2  -2  -3 177108. 6263.85   2
   2  -2  -3 173976. 6385.05   1
   2  -2  -2 24189.1 1500.98   2
   2  -2  -2 24837.2 1343.14   1
   2   2  -2 27070.8 1171.56   5
   2  -2  -1 58126.7 2369.05   1
   2  -2   0 278464. 9420.11   8
  -2   2  -1 72584.9 2985.30   5
  -2   2  -1 71306.0 2898.88   3
  -2  -2  -1 76874.4 2593.70   6
   2  -2   1 67219.7 3204.83   8
  -2   2  -2 59359.8 2656.28   5
   2  -2   2 59658.7 3048.02   8
  -2  -2  -2 51970.1 2292.32   6
  -2  -2  -3 1197.81 369.117   6
  -2   2  -3 809.987 387.416   5
  -2   2  -4 216046. 8020.03   6
  -2  -2  -4 188676. 7690.49   6
  -2   2  -4 207712. 7857.58   5
  -2   2  -5 1010.52 439.740   5
  -2   2  -5 889.956 483.858   6
   2   2   6 57910.8 2989.63  17
  -2  -2  -6 58183.1 4470.54  16
  -2   2  -6 62139.6 4281.27  13
  -2  -2  -7 28474.2 2948.28  16
  -2   2  -7 28265.2 2790.51  13
  -2  -2  -8 25732.9 2401.46  13
  -2   2  -8 33227.0 2711.50  13
  -2  -2  -8 30421.2 2616.06  16
  -2   2  -9 88952.2 3845.75  15
  -2   2  -9 105286. 4421.61  13
   2  -3 -10 107013. 4508.02  10
   2   3 -10 107359. 4321.55  14
   2   3  -9 57913.8 3230.40  10
   2   3  -9 57089.2 3203.98  14
   2   3  -9 55127.1 3499.91  13
   2  -3  -8 44769.1 4456.45  19
   2   3  -8 42587.5 2943.57  10
   2  -3  -8 37737.2 3412.62  23
   2   3  -8 38151.8 3147.28  13
   2  -3  -7 4146.51 1567.52  19
   2   3  -7 1884.01 718.279  13
   2   3  -7 2920.71 754.023  10
   2  -3  -7 2775.82 968.424  23
   2  -3  -6 85994.6 5123.65   1
   2  -3  -5 112996. 6154.88   1
   2   3  -5 177435. 6476.50   5
   2  -3  -4 46318.2 2704.31   1
   2   3  -4 52242.2 2738.51   5
   2  -3  -3 26647.0 1602.45   1
   2   3  -3 24516.6 1549.14   5
   2  -3  -3 25840.6 1579.93   2
   2  -3  -2 51578.1 2319.32   1
   2  -3  -1 99297.3 3732.38   1
  -2   3   0 8263.08 745.953   3
  -2   3  -1 7706.60 757.318   3
   2  -3   1 7536.15 929.246   8
  -2   3  -1 7410.21 742.037   5
  -2   3  -2 528762. 17295.5   5
   2  -3   2 515811. 17853.7   8
  -2   3  -3 247629. 9197.81   5
   2  -3   3 264359. 9908.38   8
  -2   3  -4 123196. 5355.48   5
   2  -3   4 128782. 5903.91   8
  -2   3  -4 121776. 5394.78   6
  -2   3  -5 3357.73 721.276   6
  -2   3  -5 2893.41 655.893   5
   2  -3   5 1931.16 677.330   8
   2   3   6 4126.15 717.178  17
   2  -3   6 6874.12 1132.29   8
  -2   3  -6 5167.59 1217.21  13
   2   3   7 90360.3 4001.35  17
  -2   3  -7 92191.0 5205.83  13
  -2  -3  -7 89051.0 5666.14  16
  -2  -3  -8 8993.32 1383.16  16
  -2   3  -8 8041.69 1251.13  13
  -2   3  -9 2829.56 444.813  15
  -2   3  -9 3776.24 648.482  13
   2   4 -10 23987.5 1381.33  14
   2   4  -9 834.033 443.105  14
   2  -4  -8 11584.3 1899.54  23
   2   4  -8 12314.1 1395.52  14
   2   4  -8 10241.4 1586.04  13
   2  -4  -7 10634.2 2303.60  19
   2  -4  -7 9201.55 1700.53  23
   2   4  -7 13929.1 1482.32  10
   2   4  -7 11797.1 1457.48  14
   2   4  -7 13200.9 1688.79  13
   2  -4  -6 3164.65 1032.77   1
   2  -4  -5 32774.2 2736.41   1
   2  -4  -4 126357. 5589.01   1
   2  -4  -3 391101. 13341.9   1
   2  -4  -2 95531.7 3861.64   1
  -2   4   1 2855.70 496.864   3
   2  -4  -1 3241.77 468.865   1
  -2   4   0 52334.7 2505.82   3
   2  -4   0 48016.3 2180.45   1
  -2   4  -1 93064.2 3986.08   3
   2  -4   1 90841.5 4274.81   8
  -2   4  -1 92366.9 3901.04   5
  -2   4  -2 30836.8 1950.18   5
   2  -4   2 32297.7 2344.99   8
  -2   4  -3 4337.94 744.192   5
   2  -4   3 4395.38 889.356   8
  -2   4  -4 34761.6 2342.45   5
  -2   4  -4 35363.3 2376.62   6
   2  -4   4 35050.6 2674.60   8
   2   4   5 90297.1 4327.48  17
   2  -4   5 102684. 5125.00   8
   2   4   6 1475.85 483.256  17
   2  -4   6 1595.91 553.459   8
  -2   4  -6 1514.59 720.028  13
   2   4   7 47304.2 2586.49  17
  -2  -4  -7 45148.1 3803.59  16
  -2   4  -7 52877.4 3438.03  13
  -2  -4  -8 114718. 5411.86  16
  -2   4  -8 108977. 4638.01  15
  -2   4  -8 109887. 4922.12  13
   2   4   8 99539.0 4062.47  17
  -2   4  -9 102240. 3996.34  13
  -2   5   9 83471.1 3430.03  17
   2   5  -9 87904.5 3758.30  14
   2   5  -8 40517.2 2531.38  14
   2  -5  -8 34661.6 3187.08  23
   2   5  -7 8082.67 1683.99  20
   2   5  -7 8200.39 1155.27  14
   2   5  -7 7275.29 1264.45  13
   2  -5  -7 7802.71 1673.49  23
   2   5  -6 181456. 9454.65  20
   2   5  -6 182836. 7419.91  14
   2   5  -6 179926. 7859.79  13
   2  -5  -6 161141. 8186.27  23
   2  -5  -5 44946.4 3399.02   1
   2  -5  -4 28035.3 2235.98   1
   2  -5  -3 18693.4 1538.40   1
   2  -5  -2 87991.9 3934.67   1
  -2   5   2 102799. 4246.49   3
   2  -5  -1 2531.49 449.116   1
  -2   5   1 3043.96 580.871   3
  -2   5   0 60391.2 3050.11   3
  -2   5  -1 183107. 6992.18   5
  -2   5  -2 256695. 9447.64   5
   2  -5   2 256015. 10094.7   8
   2  -5   3 260120. 10284.0   8
  -2   5  -3 249365. 9471.86   5
  -2   5  -4 69862.9 3704.55   5
   2  -5   4 70812.3 4149.09   8
   2   5   5 30343.8 2144.31  17
   2  -5   5 29914.4 2444.59   8
  -2   5  -5 27474.3 2391.22  13
   2   5   6 74466.1 3684.81  17
  -2   5  -6 73878.7 4114.63  15
  -2   5  -6 70303.7 4106.56  13
   2   5   7 4031.30 637.911  17
  -2  -5  -7 3847.12 1130.04  16
  -2   5  -7 3453.69 748.441  15
  -2   5  -7 3470.25 777.638  13
   2   5   8 34764.3 1728.24  17
  -2  -5  -8 34379.5 2364.87  16
  -2   5  -8 33223.6 1941.79  15
  -2   5  -8 33003.0 2023.75  13
   2   6  -9 31561.3 1671.79  14
  -2   6   9 32431.0 1582.25  17
   2  -6  -8 6292.47 1218.78  23
   2   6  -8 7669.23 938.205  14
   2   6  -7 288491. 10681.1  14
   2   6  -7 309919. 12632.4  20
   2  -6  -6 11526.9 1770.55  23
   2   6  -6 13433.8 1444.01  14
   2   6  -6 14157.9 2238.06  20
   2   6  -5 8130.38 1104.96  14
   2   6  -5 6368.80 1508.35  20
   2   6  -5 8166.14 1484.34  12
   2  -6  -4 107928. 5666.20   1
  -2   6   4 138295. 5634.15   3
  -2   6   3 124002. 5046.38   3
   2  -6  -3 90803.5 4663.60   1
  -2   6   2 45924.6 2655.86   3
   2  -6  -2 38056.3 2313.60   1
  -2   6   1 40993.6 2501.96   3
   2  -6  -1 39517.0 2200.25   1
  -2   6   0 3505.45 694.647   3
  -2   6   0 3200.42 595.827   5
  -2   6  -1 287794. 10527.6   5
  -2   6  -2 4680.60 800.670   5
   2  -6   3 34900.6 2729.03   8
   2   6   4 1350.16 474.448  17
  -2   6  -4 201.878 380.023  15
   2  -6   4 988.618 441.511   8
   2   6   4 167.705 251.883  21
   2   6   5 222976. 8488.48  17
  -2   6  -5 207494. 8783.70  15
   2   6   6 10828.2 1187.27  17
  -2   6  -6 12205.5 1417.18  15
   2   6   7 1003.86 372.686  17
  -2  -6  -7 1729.58 713.903  16
  -2   6  -7 1045.31 422.479  15
  -2   6  -7 2096.09 515.998  13
  -2   6  -8 47070.4 2180.99  15
   2   6   8 47809.8 2027.15  17
   2   7  -8 7202.69 937.706  20
   2   7  -7 1009.79 680.080  20
   2   7  -7 474.189 351.423  14
   2   7  -6 100659. 4694.72  14
   2   7  -6 102026. 6101.14  20
   2   7  -5 6004.52 918.479  14
   2   7  -5 4810.15 1298.07  20
   2   7  -5 5878.47 1183.38  12
   2   7  -4 52485.5 4082.88  20
   2   7  -4 53220.4 3024.48  14
   2   7  -4 53751.0 4142.57  12
   2   7  -3 549.448 473.132  20
   2   7  -3 401.912 711.616  12
  -2   7   2 394218. 14121.5   3
  -2   7   1 3680.25 747.639   3
  -2   7   1 2350.45 555.695   5
  -2   7   0 118495. 5264.68   5
  -2   7  -1 10207.7 1191.40   5
   2   7   2 11139.1 1205.44  22
  -2   7  -2 9441.30 1237.77  15
  -2   7  -2 11675.0 1739.48  12
  -2   7  -3 26452.6 2562.11  12
   2   7   3 28408.8 2058.31  22
  -2   7  -3 26436.2 2192.05  15
   2   7   3 24280.0 1913.28  17
   2   7   3 25142.1 1989.47  21
   2   7   4 15467.8 1478.55  21
   2   7   4 17228.7 1587.46  17
  -2   7  -4 15107.1 1680.50  15
  -2   7  -4 18213.6 1944.37  12
   2   7   5 5200.37 814.830  17
  -2   7  -5 5030.06 986.610  15
   2   7   6 230146. 8330.96  17
  -2   7  -6 219597. 8591.65  15
   2   7   7 379.190 217.458  17
  -2  -7  -7 739.233 500.920  16
  -2   7  -7 150.482 235.261  15
  -2   8   8 280.348 149.911  17
   2   8  -7 276730. 10547.4  20
   2   8  -6 2034.16 591.068  12
   2   8  -6 1908.76 816.696  20
   2   8  -5 503.657 733.315  20
   2   8  -5 576.738 610.635  12
   2   8  -4 4918.11 1182.58  20
   2   8  -4 8016.03 1507.98  12
   2   8  -3 61181.0 4258.77  12
   2   8  -3 56793.1 4053.90  20
   2   8  -2 833.975 636.320  20
   2   8  -2 672.170 636.836  12
   2   8  -1 53658.8 3634.25  12
  -2   8   1 51157.1 3645.66  12
   2   8   0 3178.19 809.008  12
  -2   8   0 2617.36 979.819  12
   2   8   0 3501.87 712.568  22
  -2   8  -1 273029. 11954.2  12
   2   8   1 294510. 10720.0  22
  -2   8  -2 1003.08 705.560  12
   2   8   2 923.455 391.546  22
  -2   8  -3 39281.6 3047.24  12
   2   8   3 37074.5 2457.12  22
   2   8   3 31258.4 2289.74  21
   2   8   4 865.607 381.211  21
   2   8   4 1677.55 489.729  17
  -2   8  -4 825.240 478.983  12
   2   8   5 263093. 9432.46  17
   2   8   6 3337.21 515.701  17
   2   9  -7 1932.46 445.207  20
   2   9  -6 73853.8 3559.94  12
   2   9  -6 92010.5 4329.39  20
   2   9  -5 9325.00 1405.40  20
   2   9  -5 13077.3 1493.81  12
   2   9  -4 6545.72 1263.21  20
   2   9  -4 6432.42 1195.04  12
   2   9  -3 1863.52 790.206  12
   2   9  -3 2896.43 860.357  20
  -2   9   3 4308.58 702.526  22
   2   9  -2 162442. 7377.28  20
   2   9  -2 169698. 7775.05  12
   2   9  -1 2324.51 751.946  12
  -2   9   1 3227.42 899.162  12
   2   9  -1 4555.48 792.917  22
   2   9   0 202780. 7847.67  22
   2   9   0 184020. 8075.20  12
  -2   9   0 196270. 8732.25  12
  -2   9  -1 17603.1 2069.64  12
   2   9   1 19716.3 1724.54  22
   2   9   2 40191.2 2592.79  22
  -2   9  -2 44153.1 3269.78  12
   2   9   3 56788.1 3113.09  21
  -2   9  -3 66284.0 3858.55  12
  -2   9  -4 1152.04 486.943  12
   2   9   5 4851.78 549.806  17
   2  10  -5 479.256 316.282  20
   2  10  -5 731.197 374.372  12
   2  10  -4 93824.1 4700.90  20
   2  10  -4 111330. 4922.46  12
   2  10  -3 90590.3 4616.36  12
   2  10  -3 82508.5 4298.31  20
  -2  10   3 91896.5 3873.28  22
   2  10  -2 46897.1 3117.94  12
   2  10  -2 49382.4 2615.17  22
  -2  10   2 47386.8 2650.58  22
  -2  10   1 33940.2 2402.43  12
   2  10  -1 32796.0 2446.73  12
   2  10  -1 36122.7 2218.49  22
   2  10   0 9690.19 1082.85  22
   2  10   0 7938.53 1037.54  12
  -2  10   0 9588.16 1340.36  12
  -2  10  -1 76422.1 4308.24  12
   2  10   1 80679.6 3798.75  22
  -2  10  -2 18660.9 1775.32  12
   2  10   2 17423.6 1450.41  21
  -2  10  -3 2412.01 608.413  12
   2  10   3 2907.92 504.655  21
  -2  10  -4 11662.4 1062.13  20
  -2  10  -4 11194.2 985.698  12
   2  11  -3 296.830 229.163  12
   2  11  -2 31948.2 2031.64  12
  -2  11   2 35672.9 1813.43  22
   2  11  -1 6741.73 809.059  12
   2  11  -1 7803.96 748.458  22
  -2  11   1 7573.39 793.144  22
  -2  11   0 3547.61 624.344  12
   2  11   0 4702.60 596.858  22
  -2  11  -1 50585.2 2681.88  12
   2  11   1 51138.7 2523.67  21
  -2  11  -2 69394.7 3035.09  12
   2  11   2 58317.9 2610.49  21
   3   0 -10 111898. 5001.49  10
   3   0  -9-574.133 626.985  10
   3   0  -8 33041.1 3015.45  23
   3   0  -8 37741.9 3737.12  19
   3   0  -7 479.647 616.136  19
   3   0  -7 608.292 581.384  23
  -3   0   6 261813. 11006.7   4
  -3   0   5 1263.43 574.071   4
  -3   0   4 390295. 14053.9   4
   3   0  -3 295.115 272.713   2
  -3   0   3-66.9032 301.200   4
  -3   0   2 2356.09 487.153   4
   3   0  -2 1230.92 403.657   2
   3   0  -1 283.220 325.123   2
   3   0   0 13759.5 991.738   8
   3   0   0 12684.5 1103.62   2
   3   0   1 957.919 383.139   2
   3   0   1 9.79280 225.519   8
   3   0   2 419376. 15446.9   8
  -3   0  -2 450799. 15010.4   6
   3   0   2 455327. 14833.7   2
  -3   0  -3 261.777 292.487   6
  -3   0  -4 217421. 8433.58   6
  -3   0  -5 182.504 265.531   6
  -3   0  -6 33747.3 3198.12  16
   3   0   6 30711.9 2333.28   8
  -3   0  -7 449.329 704.265  16
  -3   0  -8 167648. 7292.68  13
  -3   0  -9 411.710 248.196  13
   3   1 -10 1124.97 474.568  10
   3  -1 -10 842.297 500.945  10
   3   1 -10 1390.88 468.709  14
   3   1  -9 14482.4 1701.85  10
   3   1  -8 59314.9 4577.74  19
   3  -1  -8 60851.1 5059.19  19
   3   1  -8 55805.5 3848.89  10
   3  -1  -8 63032.6 4330.20  23
   3  -1  -7 76684.0 5363.93  19
  -3  -1   7 66762.1 3601.32   7
   3  -1  -7 85185.7 4876.97  23
   3   1  -7 72282.0 5008.51  19
  -3  -1   6 16530.6 2116.38   4
  -3   1   6 17006.5 1946.22   4
   3  -1  -5 38560.4 2271.38   1
  -3   1   5 37606.7 2749.96   4
  -3  -1   5 40180.3 3106.47   4
   3  -1  -4 7424.45 820.529   1
  -3   1   4 8502.15 1125.95   4
  -3  -1   4 6468.20 1091.46   4
   3  -1  -3 536020. 18053.3   1
  -3  -1   3 562712. 18854.0   4
  -3   1   3 562800. 18631.2   4
   3  -1  -3 565349. 18190.5   2
   3  -1  -2 8007.81 868.679   2
   3   1  -2 8963.00 944.855   2
  -3  -1   2 9268.91 931.637   4
  -3   1   2 8757.14 919.874   4
  -3  -1   1 6941.52 631.600   4
   3  -1  -1 5898.54 764.030   2
   3   1  -1 5430.19 729.092   2
   3  -1   0 607.759 389.107   2
   3  -1   0 843.854 333.796   8
  -3   1   0 772.680 205.255   5
   3   1   0 251.233 299.486   2
   3   1   1 595767. 19256.7   2
  -3   1  -1 595971. 18812.1   5
   3  -1   1 578916. 19483.9   8
   3   1   1 577655. 18974.1   8
   3  -1   1 579660. 19372.0   2
   3   1   2 6827.08 886.390   8
   3  -1   2 7477.32 864.818   2
   3  -1   2 6800.89 1063.70   8
   3   1   2 7801.87 840.086   2
  -3   1  -3 38141.1 2341.47   6
   3  -1   3 39478.0 2746.65   8
   3  -1   4 29546.5 2421.98   8
  -3   1  -4 24475.9 1966.93   6
   3  -1   5 126988. 6082.87   8
  -3   1  -6 74957.8 4843.87  16
  -3  -1  -6 61816.1 4718.71  16
   3  -1   6 69063.9 3937.63   8
  -3  -1  -7 35525.8 3124.29  16
  -3   1  -7 28099.8 2812.24  13
  -3   1  -8 5375.20 1004.68  13
  -3  -1  -8 5318.97 1052.27  13
  -3   1  -9 200660. 7119.54  13
   3   2 -10 58203.2 2801.48  10
   3   2 -10 54851.5 2731.97  14
   3  -2 -10 52287.5 3056.96  10
   3   2  -9 7279.13 1105.35  10
   3  -2  -9 7183.06 1464.11  23
   3  -2  -8 65509.4 5484.83  19
   3  -2  -8 69014.1 4681.49  23
   3   2  -8 63817.2 3996.86  10
   3  -2  -7 15902.9 2460.64  19
   3   2  -7 13635.4 1764.93  13
   3  -2  -7 18090.1 2133.64  23
   3   2  -7 14263.8 1682.95  10
  -3  -2   6 111602. 6695.93   4
  -3   2   6 129875. 6251.30   4
   3  -2  -5 3975.30 742.119   1
  -3   2   5 4175.78 857.528   4
   3  -2  -4 183210. 7143.02   1
  -3   2   4 198818. 7758.26   4
   3  -2  -3 148636. 5704.86   2
   3  -2  -3 146259. 5648.10   1
   3  -2  -2 124076. 5137.75   2
   3  -2  -2 127007. 4857.49   1
   3  -2  -1 115815. 4959.38   2
  -3   2   0 84609.4 3312.19   5
   3   2   0 83858.8 3791.47   2
   3  -2   0 77783.8 3944.73   2
  -3   2   0 85138.5 3290.45   3
  -3   2  -1 110520. 4200.94   5
  -3   2  -1 109763. 4034.68   3
   3  -2   1 96739.8 4665.73   2
   3  -2   1 95547.0 4623.98   8
  -3   2  -2 176997. 6322.98   5
   3  -2   2 157633. 6643.71   2
   3  -2   2 161239. 7077.83   8
  -3   2  -3 5291.88 758.119   5
   3  -2   3 4893.68 1012.58   8
   3  -2   4 195376. 8278.08   8
  -3   2  -4 178807. 7453.00   6
   3   2   5 12164.4 1258.05  17
   3  -2   5 14792.1 1725.21   8
   3   2   6 91747.4 4156.16  17
  -3  -2  -6 89548.9 5931.25  16
  -3  -2  -7 11797.9 1864.96  16
  -3   2  -7 10145.4 1593.87  13
  -3   2  -8 52089.5 3122.47  13
  -3  -2  -8 55603.5 3267.16  13
   3  -3 -10 1786.92 519.330  10
   3   3 -10 1605.65 373.654  14
   3   3  -9 4468.81 767.944  10
   3   3  -9 5152.74 834.230  14
   3  -3  -9 4321.26 1136.88  23
   3  -3  -8 126764. 8114.31  19
   3  -3  -8 115900. 6635.29  23
   3   3  -8 117674. 5612.20  10
   3   3  -8 121686. 5555.77  14
   3  -3  -7 129959. 8451.25  19
   3   3  -7 150872. 6748.46  10
   3   3  -7 149916. 7224.99  13
   3  -3  -7 158390. 7688.04  23
   3  -3  -6 117230. 6080.84   1
   3  -3  -5 1032.62 493.040   1
   3  -3  -4 2253.32 561.663   1
   3  -3  -3 155795. 6186.30   2
   3  -3  -3 151992. 5942.77   1
   3  -3  -2 39561.6 2084.03   1
   3  -3  -2 35775.5 2469.92   2
   3  -3  -1 499.193 550.525   2
  -3   3   0 15886.2 1133.08   5
  -3   3   0 16794.2 1196.39   3
  -3   3  -1 207673. 7285.61   5
  -3   3  -1 199570. 7149.36   3
  -3   3  -2 4095.25 654.700   5
   3  -3   2 3114.89 787.059   8
   3  -3   3 2526.66 666.237   2
  -3   3  -3 2193.22 540.421   5
   3  -3   3 3104.03 873.353   8
  -3   3  -4 148215. 6357.52   5
  -3   3  -4 155072. 6617.21   6
   3   3   5 139424. 5906.43  17
  -3   3  -5 126847. 6771.98  13
   3   3   6 134011. 5549.03  17
  -3  -3  -6 125737. 7453.96  16
  -3   3  -6 133345. 6668.92  13
   3   3   7 7590.67 809.097  17
  -3  -3  -7 8517.64 1581.66  16
  -3   3  -7 9461.89 1379.95  13
  -3  -3  -8 5404.24 972.547  16
  -3   3  -8 3114.16 643.842  13
  -3  -3  -8 4432.89 798.523  13
   3  -4 -10 25489.3 1598.15  10
   3   4 -10 25517.9 1365.55  14
   3   4  -9 102028. 4378.87  14
   3  -4  -9 100610. 5594.34  23
   3   4  -8 33823.6 2345.00  14
   3  -4  -8 32423.9 3175.22  23
   3  -4  -7 1804.92 1313.49  19
   3  -4  -7 3889.86 1203.11  23
   3   4  -7 2616.11 646.801  14
   3  -4  -6 23886.1 3007.26  19
   3   4  -6 26826.7 2039.87  14
   3  -4  -6 25728.8 2528.80  23
   3  -4  -5 3554.12 824.460   1
   3  -4  -4 2226.81 591.352   1
   3  -4  -3 12041.7 1182.05   1
   3  -4  -3 14465.1 1490.08   2
   3  -4  -2 204778. 7401.67   1
   3  -4  -2 189860. 8607.00   2
  -3   4   1 385635. 13145.8   3
  -3   4   0 175928. 6558.18   5
  -3   4   0 174967. 6638.46   3
  -3   4  -1 11698.3 1101.59   3
  -3   4  -1 10113.4 1058.63   5
  -3   4  -2 10637.7 1114.70   5
   3  -4   2 10541.3 1473.83   8
  -3   4  -3 10344.9 1154.97   5
   3  -4   3 11958.9 1636.95   8
   3   4   4 25057.0 2019.75  17
   3  -4   4 26994.0 2455.20   8
   3   4   4 27004.1 2115.69  21
   3   4   5 667.514 337.397  17
   3  -4   5 377.609 383.823   8
  -3   4  -5 918.713 571.278  13
   3   4   5-82.6503 312.323  21
   3   4   6 41235.0 2444.60  17
  -3   4  -6 41936.6 3035.43  13
   3   4   7 72502.8 3217.03  17
  -3  -4  -7 75461.1 4696.48  16
  -3   4  -7 69947.5 3771.58  13
  -3  -4  -8 28984.7 2009.59  16
  -3   4  -8 25688.1 1586.26  15
  -3   4  -8 24493.2 1579.95  13
   3   5  -9 31580.1 1793.31  14
   3  -5  -9 31659.9 2591.50  23
   3   5  -8 63196.0 3250.21  14
   3  -5  -8 61272.2 4377.84  23
   3  -5  -7 154543. 9496.66  19
   3   5  -7 144171. 6117.27  14
   3  -5  -7 133845. 7345.16  23
   3   5  -7 138197. 7721.55  20
   3   5  -6 94399.6 4447.48  14
   3  -5  -6 87053.9 5363.70  23
   3   5  -6 90326.4 6232.11  20
   3  -5  -5 34600.5 3507.72  24
   3   5  -5 35578.7 3446.73  20
   3  -5  -4 61804.6 3582.80   1
   3  -5  -3 13876.6 1377.28   1
  -3   5   2 33951.5 2197.53   3
   3  -5  -2 33704.7 2090.52   1
  -3   5   1 418.611 313.458   3
  -3   5   0 30957.6 1994.98   5
  -3   5   0 30198.6 2031.36   3
  -3   5  -1 2290.09 511.397   5
  -3   5  -2 77109.6 3825.67   5
   3  -5   3 24546.7 2385.21   8
   3   5   4 98024.6 4601.42  17
   3   5   4 87809.2 4504.22  21
   3  -5   4 86053.5 4952.53   8
   3   5   5 172729. 7018.48  17
   3   5   5 171239. 7095.27  21
   3   5   6 75520.5 3657.90  17
  -3   5  -6 80230.9 4130.13  15
  -3  -5  -7 34733.8 2837.48  16
  -3   5  -7 35303.6 2148.16  15
  -3   5  -7 31330.2 1971.12  13
   3   5   7 32814.1 1807.81  17
  -3   5  -8 13415.2 922.576  15
   3   6  -8 8628.61 913.107  14
   3  -6  -8 7928.12 1395.00  23
   3  -6  -7 1143.40 746.918  23
   3   6  -7 969.055 398.499  14
   3   6  -7 30.0756 605.868  20
   3   6  -6 1374.76 1049.32  20
   3   6  -6 1178.07 452.767  14
   3  -6  -6 1825.32 841.002  23
   3   6  -5 339485. 11621.2  14
   3   6  -5 292598. 13550.0  12
   3   6  -5 308092. 13773.4  20
   3   6  -4 13077.8 1934.47  20
   3  -6  -4 13364.4 2154.41  24
   3   6  -4 13354.3 2150.58  12
   3  -6  -3 2878.87 649.223   1
  -3   6   3 4228.12 790.968   3
  -3   6   2 102494. 4627.80   3
   3  -6  -2 85933.8 4238.27   1
  -3   6   1 58550.5 3246.28   3
  -3   6   1 56937.4 3080.40   5
  -3   6   0 106114. 4719.93   5
  -3   6   0 97742.2 4723.72   3
  -3   6  -1 3566.26 685.621   5
   3   6   2 1020.34 444.012  17
   3   6   2 2549.50 664.169  21
   3   6   2 2327.95 565.847  22
   3   6   3 307175. 11430.6  17
  -3   6  -3 299090. 11460.3  15
   3   6   3 304167. 11391.7  21
   3   6   4 4386.58 850.924  17
  -3   6  -4 4240.40 852.670  15
   3   6   4 4398.48 841.924  21
   3   6   5 1117.07 477.433  17
  -3   6  -5 1137.18 449.678  15
   3   6   5 2063.04 533.646  21
   3   6   6 5502.57 796.798  17
  -3   6  -6 4850.95 846.465  15
  -3  -6  -7 80339.1 4272.41  16
  -3   6  -7 80623.7 3480.43  15
   3  -7  -8 19518.1 1880.72  23
   3   7  -7 7840.55 1352.65  20
   3  -7  -7 5897.41 1289.88  23
   3   7  -6 4000.64 1145.28  20
   3  -7  -6 2470.91 889.072  23
   3   7  -6 5146.90 1047.54  12
   3   7  -5 4441.54 1252.32  20
   3   7  -5 4431.80 1255.85  12
   3   7  -4 121506. 7019.85  12
   3   7  -4 118750. 6681.42  20
   3   7  -3 5157.25 1222.19  20
   3  -7  -3 7098.63 1584.15  24
   3   7  -3 5178.87 1268.64  12
   3   7  -2 164631. 7861.18  12
   3   7  -2 164624. 7624.98  20
   3   7  -1 2351.59 663.755  20
   3   7  -1 381.728 481.789  12
   3   7   0 183327. 7715.26  12
   3   7   1 5663.55 823.968  22
  -3   7  -2 151547. 6603.60  15
   3   7   2 152683. 6677.15  21
   3   7   3 6084.81 941.533  17
  -3   7  -3 5367.92 953.038  15
   3   7   3 4933.63 906.586  21
  -3   7  -3 7702.05 1363.36  12
   3   7   4 8447.13 1062.22  17
  -3   7  -4 5373.71 933.529  15
  -3   7  -4 7391.55 1158.89  12
   3   7   4 9971.13 1194.51  21
   3   7   5 4727.67 756.607  17
  -3   7  -5 4903.00 815.688  15
   3   7   5 5188.47 746.814  21
   3   7   6 13574.3 1066.83  17
  -3   7  -6 12772.5 1151.63  15
   3   8  -7 5586.32 898.896  20
   3   8  -6 3076.91 937.135  20
   3   8  -6 2471.95 663.656  12
   3   8  -5 289378. 11744.4  12
   3   8  -5 283198. 11922.6  20
   3   8  -4 4992.23 1226.21  20
   3   8  -4 5116.88 1272.10  12
   3   8  -3 28026.1 2690.92  20
   3   8  -3 30286.8 2897.80  12
   3   8  -2 6473.75 1229.20  20
   3   8  -2 5285.03 1214.82  12
  -3   8   2 5109.35 1142.11  12
   3   8  -1 45520.9 3217.56  12
  -3   8   1 40690.4 3372.17  12
   3   8   0 15890.8 1677.31  12
  -3   8   0 16305.8 2144.31  12
   3   8   0 16186.7 1466.72  22
   3   8   1 22640.5 1826.10  22
  -3   8  -1 23962.0 2569.13  12
  -3   8  -2 17200.8 2047.46  12
   3   8   2 15715.8 1637.89  21
  -3   8  -3 316962. 11943.2  12
   3   8   3 293487. 11188.6  21
   3   8   4 801.884 321.406  17
  -3   8  -4 1283.36 491.558  12
   3   8   4 1003.37 376.298  21
   3   8   5 7003.68 739.320  17
  -3  -8  -6 511.424 436.020  16
   3   9  -6 12152.1 1088.80  12
   3   9  -5 3410.13 830.586  20
   3   9  -5 5405.45 960.248  12
   3   9  -4 159331. 7036.25  12
   3   9  -4 139283. 6780.43  20
   3   9  -3 14455.7 1781.35  12
   3   9  -3 14061.4 1701.46  20
   3   9  -2 67003.9 4121.11  12
   3   9  -1 693.124 538.971  12
  -3   9   1 657.007 600.692  12
  -3   9   0 90616.8 5149.34  12
   3   9   0 93429.0 4262.56  22
  -3   9  -1 8986.99 1470.00  12
   3   9   1 10095.9 1127.83  22
  -3   9  -2 171571. 7265.38  12
   3   9   2 148633. 6503.60  21
  -3   9  -3 2204.91 612.501  12
   3   9   3 1568.85 465.844  21
  -3   9  -4 11360.0 1046.03  12
   3   9   4 11885.6 968.217  21
  -3   9  -5 55526.9 2618.07  20
   3  10  -5 86177.7 3680.15  12
   3  10  -4 646.130 411.418  12
   3  10  -3 13635.4 1443.29  12
   3  10  -2 138206. 6046.37  12
  -3  10   1 104394. 4831.24  12
   3  10  -1 104697. 4762.54  12
  -3  10   0 105202. 5005.60  12
   3  10   1 12661.4 1259.80  21
  -3  10  -1 12741.9 1414.78  12
  -3  10  -2 793.495 475.590  12
   3  10   2 352.533 274.544  21
  -3  10  -3 97782.2 4002.72  12
   3  10   3 92969.5 3717.80  21
   3  11  -2 29224.5 1654.30  21
   3  11  -1 1516.94 394.678  21
  -3  11   0 24259.2 1477.72  12
   3  11   0 27673.8 1600.53  21
   4   0 -10 9564.11 1078.73  10
   4   0 -10 9538.21 951.501  14
   4   0  -9 671.381 802.887  19
   4   0  -9 188.302 489.758  10
   4   0  -8 115589. 7172.67  19
   4   0  -8 129141. 6385.80  23
   4   0  -7-673.399 690.014  19
  -4   0   6 174476. 8246.60   4
  -4   0   5 246.385 355.515   4
   4   0  -4 164475. 6536.66   2
  -4   0   4 151082. 6832.23   4
   4   0  -3-232.656 391.319   2
  -4   0   3 1004.90 456.128   4
   4   0  -2 249639. 9315.96   2
   4   0  -1 185.316 356.026   2
   4   0   0 235.862 334.375   2
   4   0   1 122.385 281.228   2
   4   0   1 359.272 328.663   8
   4   0   2 15158.2 1603.17   8
   4   0   2 15258.9 1394.01   2
   4   0   3-14.1486 496.924   8
  -4   0  -4 302274. 12692.2  16
   4   0   4 295397. 11546.7   8
  -4   0  -5 323.816 837.057  16
   4   0   5 611.970 425.849   9
  -4   0  -6 306239. 12187.4  16
   4   0   6 263219. 10505.4   9
  -4   0  -7 428.349 626.576  13
  -4   0  -8 2020.97 519.223  13
   4   1 -10 4469.71 660.450  10
   4  -1 -10 3018.89 682.657  10
   4   1 -10 3147.15 508.677  14
   4  -1  -9 244168. 10893.4  19
   4   1  -9 218745. 8979.53  10
   4  -1  -9 222030. 9537.50  23
   4   1  -8 2754.07 1121.40  19
   4  -1  -8 812.232 1044.69  19
   4  -1  -8 1490.29 754.780  23
   4   1  -7 52062.0 4072.53  19
   4  -1  -7 58907.6 4514.41  19
   4  -1  -7 55471.1 3887.52  23
  -4  -1   5 39105.3 3143.66   4
  -4   1   5 42317.4 3055.43   4
   4  -1  -4 45536.7 2642.32   2
  -4  -1   4 41690.7 2953.13   4
  -4   1   4 45569.1 2961.36   4
   4  -1  -3 529.186 384.502   2
  -4  -1   3 1035.04 485.357   4
   4   1  -2 20812.2 1712.07   2
   4  -1  -2 17261.5 1528.58   2
   4   1  -1 496423. 16667.2   2
   4  -1  -1 468999. 16534.3   2
   4  -1   0 170.561 323.349   2
   4   1   0 831.358 446.338   2
   4   1   1 61722.7 3267.63   2
   4  -1   1 58018.4 3404.76   8
   4  -1   1 59055.9 3242.43   2
   4  -1   2 14578.6 1717.01   8
   4  -1   2 15839.1 1453.09   2
   4  -1   3 127593. 6391.46   8
  -4   1  -4 9658.95 1547.05  16
  -4  -1  -4 6994.22 1481.58  16
   4  -1   4 10568.8 1462.27   9
   4  -1   4 9064.80 1398.11   8
  -4   1  -5 61436.1 4382.46  16
  -4  -1  -5 58304.6 4609.89  16
   4  -1   5 58230.2 3681.10   9
  -4  -1  -6 11713.1 1947.53  16
   4   1   6 11911.7 1446.16   9
  -4   1  -7 45853.1 3095.76  13
  -4   1  -8 19740.9 1429.86  13
  -4  -1  -8 22375.4 1553.85  13
   4  -2 -10 35034.7 2194.06  10
   4   2 -10 28880.2 1605.11  14
   4  -2  -9 18253.7 2584.76  19
   4   2  -9 16572.3 1534.14  10
   4   2  -9 16816.5 1421.35  14
   4  -2  -9 16508.0 1992.97  23
   4   2  -8 65528.6 3859.55  10
   4   2  -8 71826.2 3701.40  14
   4  -2  -8 71129.0 4682.33  23
   4  -2  -7 635.266 895.078  19
   4  -2  -7 2937.11 1028.11  23
   4  -2  -6 126581. 6678.53  24
   4  -2  -6 123726. 6696.05  19
   4  -2  -6 126654. 6313.25  23
  -4  -2   5 2884.23 932.505   4
  -4  -2   4 35879.2 2848.11   4
   4  -2  -3 31736.2 2199.13   2
   4  -2  -2 207073. 8174.14   2
   4  -2  -1 19155.1 1738.65   2
   4   2   0 42361.3 2664.39   2
   4  -2   0 36470.2 2584.34   2
   4  -2   1 129065. 6045.39   8
   4  -2   1 127614. 5786.19   2
   4  -2   2 73123.0 4404.33   8
   4  -2   2 68609.6 3693.26   2
   4  -2   3 102599. 5705.71   8
  -4   2  -3 107843. 4933.28   6
   4   2   4 54123.5 3248.59  17
   4  -2   4 60317.9 3765.80   9
  -4  -2  -5 991.235 1078.67  16
  -4  -2  -6 169159. 8263.69  16
  -4   2  -6 150767. 7395.17  13
  -4  -2  -7 11873.3 1557.77  16
   4   2   7 8554.35 926.881   9
  -4   2  -7 9760.01 1271.32  13
  -4   2  -8 11006.6 870.358  15
  -4   2  -8 8686.27 823.969  13
   4  -3 -10 2176.70 513.193  10
   4   3  -9 51224.9 2651.93  14
   4  -3  -9 53562.7 3704.56  23
   4  -3  -8 498.161 1071.33  19
   4   3  -8 490.509 282.238  14
   4  -3  -8 1526.04 968.096  23
   4  -3  -7 5768.81 1652.57  19
   4  -3  -7 6335.87 1310.21  23
   4  -3  -6 103148. 6220.24  19
   4  -3  -6 104207. 6253.27  24
  -4  -3   5 149511. 8342.49   4
   4  -3  -5 182297. 7581.78   1
   4  -3  -4 229992. 8945.88   1
  -4  -3   4 226854. 9893.12   4
   4  -3  -3 1675.78 616.984   2
   4  -3  -2 4186.93 867.039   2
   4  -3  -1 57475.1 3699.89   2
  -4   3   1 64067.9 2981.04   3
   4  -3   0 18692.4 1939.28   2
   4  -3   1 21472.0 2034.91   2
   4  -3   2 58025.1 3931.16   8
   4  -3   2 56025.7 3454.06   2
   4  -3   3 185247. 8561.28   8
   4   3   4 61504.9 3528.30  17
   4  -3   4 61027.5 3812.85   9
   4  -3   4 68985.2 4269.77   8
   4   3   4 66675.8 3870.29  21
  -4  -3  -5 1800.05 1127.59  16
  -4   3  -5 2726.81 934.539  13
  -4  -3  -6 42240.8 3598.46  16
  -4   3  -6 41970.1 2947.05  13
  -4  -3  -7 56836.9 3490.92  16
   4   3   7 53629.2 2665.83   9
  -4   3  -7 51373.6 2872.55  13
   4   4  -9 36667.2 1932.93  14
   4  -4  -9 39143.2 2954.62  23
   4  -4  -8 4648.46 1715.20  19
   4   4  -8 3451.75 601.901  14
   4  -4  -8 4791.18 1310.45  23
   4  -4  -7 71886.6 5888.47  19
   4  -4  -7 79083.4 5076.63  23
   4  -4  -6 37271.5 3672.94  19
   4   4  -6 36978.2 3663.86  20
   4   4  -5 1758.04 1012.50  20
   4  -4  -5 19.9495 476.389  19
   4  -4  -5 381.351 511.084  24
   4   4  -5-393.804 672.761  12
   4  -4  -4 19184.8 1801.77   1
   4  -4  -3 56772.8 3640.90   2
   4  -4  -2 42648.5 3380.89   2
  -4   4   1 553.069 369.793   3
   4  -4  -1 1136.85 831.373   2
  -4   4   1 819.634 316.954   5
  -4   4   0 78488.9 3592.36   5
  -4   4   0 78269.1 3616.39   3
   4  -4   1 270143. 11146.6   2
   4  -4   2 162723. 7321.29   2
   4   4   3 75144.5 4196.40  17
   4  -4   3 68117.1 4266.60   9
   4  -4   3 76598.8 4759.32   8
   4   4   3 81894.0 4313.29  21
   4   4   4 5468.62 946.473  17
   4   4   4 4981.71 989.709  21
   4   4   5 16426.3 1485.06  17
  -4  -4  -6 8130.57 1589.05  16
  -4   4  -6 8955.13 1089.41  13
  -4  -4  -7 929.341 593.267  16
  -4   4  -7 523.806 316.912  15
   4   4   7 257.088 212.490   9
  -4   4  -7 867.346 289.033  13
   4  -5  -9 3753.22 865.589  23
   4   5  -8 42576.0 2260.11  14
   4  -5  -8 43323.3 3505.56  23
   4  -5  -7 49746.3 4961.14  19
   4  -5  -7 44992.6 3699.31  23
   4  -5  -6 52709.0 4752.20  19
   4   5  -6 51385.4 4426.19  20
   4  -5  -5 118732. 7055.75  19
   4   5  -5 124871. 7524.17  12
   4  -5  -5 136581. 7842.36  24
   4   5  -5 132574. 7440.66  20
   4  -5  -4 176782. 8950.02  24
   4   5  -4 190000. 8675.70  20
  -4   5   3 107927. 5010.81   3
  -4   5   2 45108.1 2765.15   3
   4  -5  -2 42900.4 3842.97   2
  -4   5   1 7902.54 954.738   5
  -4   5   1 8278.51 1058.58   3
   4  -5  -1 5839.27 1509.62   2
  -4   5   0 77525.1 3759.44   5
  -4   5   0 75075.3 3778.03   3
   4  -5   0 78905.1 5367.40   2
  -4   5  -1 30233.3 2078.10   5
   4   5   2 35487.1 2761.78  17
   4   5   2 43290.2 2858.18  21
   4   5   3 37397.9 2689.07  17
   4   5   3 41193.6 2838.93  21
   4   5   4 122652. 5481.96  17
  -4   5  -4 116526. 5483.61  15
   4   5   4 121689. 5663.48  21
  -4   5  -5 1558.99 516.220  15
  -4  -5  -6 24414.5 2492.67  16
  -4   5  -6 31679.1 1997.53  15
  -4  -5  -7 93357.3 4140.36  16
  -4   5  -7 86886.7 3481.48  15
   4   5   7 86537.0 3446.12   9
   4  -6  -8 10214.3 1563.77  23
   4  -6  -7 115766. 6291.25  23
   4   6  -6 4842.43 1458.50  20
   4  -6  -6 4360.71 1197.14  23
   4  -6  -5 16948.6 2698.94  24
   4   6  -5 16541.8 2397.78  12
   4   6  -5 18057.1 2485.35  20
   4   6  -4 3151.22 1114.88  20
   4  -6  -4 3216.19 1242.00  24
   4   6  -4 4071.86 1342.89  12
   4   6  -3 242122. 10924.8  12
   4  -6  -3 223278. 11192.2  24
   4   6  -3 253460. 10562.9  20
   4  -6  -2 676.588 673.474  24
   4   6  -2 744.094 565.362  12
   4   6  -1 34834.9 2662.62  18
   4   6  -1 33621.4 2643.20  12
   4  -6  -1 28774.6 2997.97  24
   4   6   0 29867.3 2345.05  18
   4   6   0 29278.9 2288.71  12
   4   6   1 124774. 5793.71  21
   4   6   2 136329. 6328.84  17
   4   6   2 156094. 6661.04  21
   4   6   3 1404.76 550.268  17
  -4   6  -3 1420.11 508.776  15
   4   6   3 845.146 536.818  21
   4   6   4 14209.2 1404.04  17
  -4   6  -4 11348.2 1276.38  15
   4   6   4 13411.9 1445.88  21
  -4   6  -5 209147. 7910.79  15
  -4  -6  -6 7835.87 1283.68  16
  -4   6  -6 6829.21 748.153  15
   4  -7  -8 182219. 7606.60  23
   4  -7  -7 5323.72 1149.63  23
   4  -7  -6 6058.74 1305.98  23
   4   7  -5 19172.2 2395.69  12
   4   7  -5 16894.6 2257.82  20
   4   7  -4 18192.4 2448.70  12
   4  -7  -4 14232.9 2512.72  24
   4   7  -4 16449.4 2152.44  20
   4  -7  -3 2528.47 1111.22  24
   4   7  -3 4119.63 1193.59  12
   4  -7  -2 111499. 7020.30  24
   4   7  -2 130368. 6523.90  12
   4   7  -1 6727.99 1165.24  18
   4   7  -1 5773.26 1100.59  12
   4   7   0 289564. 11061.7  12
   4   7   1 1515.21 612.259  21
   4   7   2 27327.9 2244.74  21
  -4   7  -3 4817.18 777.005  15
   4   7   3 4845.41 911.376  21
  -4   7  -3 4519.82 992.240  12
  -4   7  -4 113879. 4973.46  15
   4   7   4 129623. 5314.76  21
  -4   7  -5 2720.80 490.335  15
   4   8  -7 158258. 6216.71  18
   4  -8  -6 4006.78 1002.07  23
   4   8  -5 12228.1 1639.54  12
   4  -8  -5 10265.0 1630.43  23
   4   8  -4 2245.69 859.191  12
   4   8  -3 229969. 10069.8  12
   4   8  -2 3168.63 833.737  18
   4   8  -2 2843.18 820.239  12
  -4   8   2 2496.67 812.033  12
   4   8  -1 34151.5 2587.99  18
   4   8  -1 35353.1 2694.04  12
  -4   8   1 36279.3 3091.91  12
   4   8   0 546.642 458.679  21
  -4   8   0 713.537 695.689  12
  -4   8  -1 57687.7 3939.72  12
   4   8   1 57976.0 3460.72  21
  -4   8  -2 14972.1 1761.23  12
   4   8   2 14276.8 1515.88  21
  -4   8  -3 3056.00 700.441  12
   4   8   3 3756.46 720.071  21
   4   8   4 3187.44 542.736  21
  -4  -8  -5 193788. 7835.43  16
   4   9  -6 1523.47 425.190  18
   4   9  -5 33725.4 2344.25  18
   4   9  -4 26841.7 2223.66  18
   4   9  -4 31363.0 2391.91  12
   4   9  -3 16588.7 1759.71  12
   4   9  -3 12605.2 1495.60  18
   4   9  -2 124136. 5680.37  12
   4   9  -2 107166. 5289.97  18
  -4   9   2 124748. 5520.81  12
  -4   9   1 6710.26 1110.99  12
   4   9  -1 6453.76 1011.09  21
  -4   9   0 159837. 7352.97  12
   4   9   0 178467. 7135.78  21
  -4   9  -1 3117.10 860.790  12
   4   9   1 4655.03 812.439  21
   4   9   2 16430.5 1419.31  21
  -4   9  -2 16902.6 1563.36  12
  -4   9  -3 9990.95 988.489  12
   4   9   3 10241.0 951.888  21
   4  10  -4 5574.33 676.957  18
   4  10  -3 65682.0 3058.95  18
   4  10  -3 68620.0 2932.23  21
   4  10  -2 14799.9 1219.43  21
  -4  10   1 19425.2 1501.70  12
   4  10  -1 23557.9 1630.48  21
  -4  10   0 47229.7 2640.90  12
   4  10   0 52698.5 2675.84  21
  -4  10  -1 69013.7 3234.47  12
   4  10   1 69479.8 3162.56  21
  -4  10  -2 102436. 4017.72  12
   5   0  -9-516.747 698.357  19
   5   0  -9 340.564 446.947  10
   5   0  -8 4896.93 1250.02  19
   5   0  -7 635.328 775.636  19
   5   0  -6 91414.8 5304.47  19
   5   0  -5 665.046 498.677  11
   5   0  -4 500237. 17749.1   2
   5   0  -3-153.078 387.758   2
   5   0  -2 7635.45 1189.02   2
   5   0  -1 610.586 502.668   2
   5   0   0 104862. 5202.98   2
   5   0   1 624.786 503.636   2
   5   0   2 831.819 545.761   9
   5   0   3 1765.51 839.449   9
  -5   0  -4 73148.6 4871.62  16
   5   0   4 78926.2 4717.52   9
   5   0   5 445.827 458.686   9
   5   0   6 70325.9 3430.64   9
  -5   0  -7 584.929 367.949  13
   5  -1 -10 572.154 320.122  10
   5   1  -9 38598.1 2889.20  19
   5  -1  -9 41974.2 3491.04  19
   5   1  -9 41409.1 2435.05  10
   5   1  -8-52.5869 632.587  19
   5  -1  -8 65.9831 790.168  19
   5  -1  -8-557.708 641.503  23
   5   1  -7 107921. 6310.58  19
   5  -1  -7 122501. 6937.47  19
   5  -1  -7 121068. 6156.91  23
   5   1  -6 12737.4 1704.92  19
   5  -1  -6 12646.1 1784.53  19
   5  -1  -5 58508.0 3432.76  11
   5   1  -5 55723.8 3519.91  11
   5  -1  -4 26685.2 2219.68   2
   5  -1  -3 25863.1 2208.09   2
   5   1  -2 68830.4 3993.24   2
   5  -1  -2 64009.9 3823.27   2
   5   1  -1 2189.16 725.679   2
   5  -1  -1 2488.94 732.211   2
   5   1   0 22392.8 2027.69   2
   5  -1   0 19743.1 1927.62   2
   5   1   1 327534. 12026.9   2
   5  -1   1 306745. 11936.8   2
   5  -1   2 6431.53 1295.46   9
   5  -1   3 154814. 7529.88   9
   5  -1   4 13316.4 1741.57   9
  -5  -1  -4 11016.4 1887.05  16
   5   1   4 11368.8 1668.23   9
  -5  -1  -5 34559.7 3050.79  16
   5  -1   5 31235.7 2470.49   9
   5   1   5 35513.8 2693.47   9
   5   1   6 24173.3 1763.49   9
  -5   1  -6 22166.9 2043.80  13
  -5   1  -7 20515.6 1423.24  13
  -5  -1  -7 22084.4 1585.10  13
   5  -2  -9 105273. 6179.48  19
   5  -2  -9 108437. 5327.29  23
   5  -2  -8 65412.3 5176.66  19
   5  -2  -8 77627.0 4657.12  23
   5  -2  -7 58833.1 4670.23  19
   5  -2  -7 62773.3 4264.40  23
   5  -2  -6 52144.0 3998.06  19
   5  -2  -6 54989.9 3986.00  24
   5  -2  -6 47639.0 3559.32  23
   5  -2  -5-27.1300 444.076  24
   5  -2  -4 127849. 6002.35   2
   5  -2  -3 7938.82 1226.46   2
   5  -2  -2 888.265 529.522   2
   5  -2  -1 62276.7 3852.17   2
   5  -2   0 151501. 6936.62   2
   5  -2   1 5143.98 971.830   2
   5  -2   2 7951.01 1373.47   9
   5   2   2 7415.78 1245.60  21
   5  -2   3 117090. 6000.42   9
  -5  -2  -3 95315.3 6191.30  16
   5  -2   4 93948.3 5089.11   9
  -5  -2  -4 89543.0 5739.71  16
   5  -2   5 41525.0 2837.31   9
  -5  -2  -5 52202.8 3804.44  16
   5   2   5 52862.1 3319.36   9
  -5  -2  -6 13885.3 1605.57  16
   5   2   6 12272.5 1198.18   9
  -5   2  -6 11250.8 1277.59  13
  -5  -2  -7 1529.11 407.992  13
   5  -3  -9 3184.65 1079.97  19
   5  -3  -9 2711.06 771.000  23
   5  -3  -8 8520.16 1888.91  19
   5  -3  -8 14235.5 1910.20  23
   5  -3  -7 47736.7 4281.12  19
   5  -3  -7 48479.1 3710.35  23
   5  -3  -6 35341.5 3385.33  19
   5  -3  -6 40795.9 3587.91  24
   5   3  -5 45117.8 3797.17  18
   5  -3  -5 47507.8 3799.84  24
   5   3  -4 41128.7 3345.16  18
   5  -3  -4 38020.6 3210.35  24
   5  -3  -3 160314. 7414.72   2
   5  -3  -2 220005. 9541.77   2
   5  -3  -1 14019.0 1797.80   2
   5  -3   0 32269.5 2722.13   2
   5  -3   1 42246.6 3495.55   9
   5   3   1 41138.5 2981.22  21
   5  -3   2 9705.13 1560.32   9
   5   3   2 9584.95 1407.37  21
   5  -3   3 41903.0 3241.94   9
   5  -3   4 39691.3 2884.41   9
  -5  -3  -4 33316.1 3317.95  16
  -5  -3  -5 103638. 5742.51  16
  -5  -3  -6 89970.2 4517.60  16
   5   3   6 89033.5 3949.23   9
  -5   3  -6 87390.3 3866.86  15
   5  -4  -9 128325. 5844.30  23
   5  -4  -8 125370. 7699.81  19
   5  -4  -8 123763. 6392.38  23
   5  -4  -7 77152.1 5825.37  19
   5  -4  -7 78495.4 4963.69  23
   5  -4  -6 1722.50 948.645  19
   5   4  -6 4112.95 1188.34  18
   5  -4  -6 2457.85 1050.72  24
   5   4  -5 38034.1 3582.88  18
   5  -4  -5 37944.6 3625.40  24
   5   4  -4 26996.4 2710.81  18
   5  -4  -4 19592.7 2467.54  24
   5   4  -3 5484.75 1159.64  18
   5  -4  -3 6111.85 1459.53  24
   5   4  -2 37206.3 2918.46  18
   5  -4  -2 32198.2 3217.74  24
   5   4  -1 231345. 9339.79  18
   5  -4  -1 198811. 10107.8  24
   5   4   0 111292. 5540.80  18
   5  -4   0 107731. 6515.80  24
   5   4   0 100269. 5183.70  21
   5   4   1 16174.4 1760.88  21
   5   4   2 23604.7 2188.53  21
   5   4   3 142576. 6593.49  21
  -5  -4  -4 78763.8 5422.49  16
  -5   4  -4 100617. 4484.39  15
  -5  -4  -5 79756.2 4809.48  16
  -5   4  -5 89558.8 3978.43  15
  -5  -4  -6 6133.26 924.823  16
   5   4   6 6004.26 728.907   9
  -5   4  -6 5877.32 652.918  15
   5  -5  -8 21011.4 2857.79  19
   5  -5  -8 16500.6 1903.18  23
   5  -5  -7 36600.8 4194.07  19
   5  -5  -7 39326.5 3256.32  23
   5  -5  -6 129156. 7795.82  19
   5   5  -6 113236. 6928.00  18
   5  -5  -5 5549.61 1415.86  19
   5   5  -5 5342.61 1444.52  18
   5  -5  -5 4745.51 1438.43  24
   5   5  -4 26932.7 2794.63  18
   5  -5  -4 27208.9 3168.96  24
   5   5  -3 115379. 6252.55  18
   5  -5  -3 114751. 7021.66  24
   5   5  -2 236196. 9946.15  18
   5  -5  -2 223341. 11059.2  24
   5   5  -1 192609. 8409.53  18
   5  -5  -1 186048. 9647.67  24
   5   5  -1 188827. 7990.49  21
   5   5   0 7243.66 1197.58  18
   5  -5   0 8328.29 1753.28  24
   5   5   0 6972.79 1126.06  21
   5  -5   1-332.823 547.711  24
   5   5   1 1521.36 630.831  21
   5  -5   2 137734. 7026.44  24
   5   5   2 131550. 6225.42  21
   5  -5   3 25898.5 2352.28  24
   5   5   3 24517.7 2106.73  21
  -5  -5  -4 7264.04 1429.73  16
  -5  -5  -5 49940.6 3378.09  16
  -5   5  -5 55194.9 2593.66  15
   5  -6  -8 35959.6 2638.89  23
   5   6  -7 6350.06 1135.27  18
   5  -6  -7 5045.10 1147.59  23
   5   6  -6 27982.8 2848.63  18
   5  -6  -6 26743.7 2676.34  23
   5   6  -5 188179. 9246.29  18
   5  -6  -5 195763. 10464.5  24
   5   6  -4 218.857 539.736  18
   5  -6  -4 8.41966 856.107  24
   5   6  -3 75090.7 4708.36  18
   5  -6  -3 69428.5 5478.82  24
   5   6  -2 42186.6 3211.53  18
   5  -6  -2 33500.7 3633.22  24
   5   6  -1 103608. 5544.72  18
   5  -6  -1 108836. 6786.05  24
   5   6  -1 110646. 5368.28  21
   5   6   0 9569.41 1356.11  18
   5  -6   0 12025.7 1915.55  24
   5   6   0 9482.90 1312.97  21
   5  -6   1 93159.5 5436.47  24
   5   6   1 87016.1 4632.73  21
   5   6   2 3165.45 761.585  21
  -5   6  -3 105208. 5120.88  12
   5   6   3 107746. 5013.63  21
  -5  -6  -4 48926.5 3511.16  16
  -5  -6  -5 11638.6 1309.97  16
   5   7  -7 2883.47 633.377  18
   5  -7  -7 2138.31 740.739  23
   5   7  -6 176550. 7658.13  18
   5  -7  -6 155689. 7707.23  23
   5   7  -5 346.231 473.411  18
   5   7  -4 3374.05 962.716  18
   5  -7  -4 2453.37 1297.68  24
   5   7  -3 16590.8 1967.58  18
   5  -7  -3 17416.4 2662.31  24
   5   7  -2 60909.0 3986.72  18
   5  -7  -2 69145.2 5192.53  24
   5   7  -2 67730.8 3797.52  21
   5   7  -1 8879.81 1285.07  18
   5  -7  -1 7105.12 1544.03  24
   5   7  -1 7086.88 1115.88  21
   5   7   0 96108.1 4863.03  18
   5   7   0 103288. 5004.55  21
   5   7   1 5448.01 987.085  21
  -5   7  -2 357901. 13262.9  12
   5   7   2 347933. 12772.4  21
   5   7   3 3557.95 694.831  21
  -5   7  -3 3309.43 687.007  12
  -5  -7  -4 1882.56 674.429  16
   5   8  -6 3112.83 651.039  18
   5  -8  -6 3094.37 813.262  23
   5   8  -5 216940. 8624.32  18
   5  -8  -5 201796. 9133.41  23
   5   8  -4 5984.12 1098.12  18
   5   8  -3 107587. 5588.54  18
   5  -8  -3 142149. 7618.83  24
   5   8  -2 2212.50 693.559  18
   5   8  -2 2847.97 662.373  21
  -5   8   2 2952.62 793.779  12
   5   8  -1 84709.5 4341.73  18
  -5   8   1 82950.2 4735.25  12
   5   8  -1 96750.7 4487.15  21
   5   8   0 461.860 331.614  21
  -5   8   0 1393.43 786.730  12
  -5   8  -1 51453.4 3202.08  12
   5   8   1 47940.6 2846.94  21
   5   8   2 3250.83 643.936  21
  -5   8  -2 4157.04 792.045  12
  -5   8  -3 29985.8 1681.62  12
   5   9  -5-54.9261 173.641  18
   5   9  -4 10.3459 240.030  18
   5  -9  -4 449.514 442.053  23
   5   9  -3 19602.7 1573.49  18
   5   9  -2 39265.6 2345.98  18
  -5   9   2 41775.5 2389.19  12
   5   9  -2 45664.2 2368.42  21
  -5   9   1 32367.5 2191.75  12
   5   9  -1 37075.3 2161.92  21
  -5   9   0 61637.4 3258.39  12
   5   9   0 67404.6 3205.79  21
  -5   9  -1 2023.56 498.866  12
   5   9   1 2077.71 449.293  21
   5   9   2 210332. 7337.23  21
   6   0  -9 445.929 461.681  19
   6   0  -8 1019.85 658.271  19
   6   0  -7 420.029 589.323  19
   6   0  -6 33183.8 2949.31  19
   6   0  -5 156.532 376.226  11
   6   0  -4 40340.3 3036.53  11
   6   0  -3 201.901 470.427  11
   6   0  -2 746154. 25835.0  11
   6   0  -1-1105.47 578.190  11
   6   0  -1 1377.31 878.716   9
   6   0   0 21103.0 2532.18   9
   6   0   1-453.553 716.271   9
   6   0   2 91388.5 5546.98   9
   6   0   3 682.503 653.512   9
   6   0   4 2367.49 744.436   9
   6   0   5 1055.09 416.896   9
   6  -1  -9 150400. 7000.77  19
   6   1  -8 1196.90 694.974  19
   6  -1  -8 372.695 705.556  19
   6   1  -7 142198. 7257.54  19
   6  -1  -7 154402. 7844.64  19
   6   1  -6 9067.09 1474.68  19
   6  -1  -6 9790.55 1648.56  19
   6  -1  -5 66915.5 4006.33  11
   6   1  -5 64454.7 4088.80  11
   6   1  -4 7659.95 1257.30  11
   6  -1  -4 8534.86 1340.27  11
   6   1  -3 80043.0 4623.30  11
   6  -1  -3 86886.2 4928.62  11
   6  -1  -3 83444.1 4953.82  24
   6   1  -2-69.8427 485.690  11
   6  -1  -2 1538.11 716.094  11
   6  -1  -2 1834.51 878.398  24
   6   1  -1 75666.6 4241.73  11
   6  -1  -1 60134.7 4500.68   9
   6   1   0 42019.2 2962.02  11
   6  -1   0 45705.8 3801.30   9
   6   1   0 37741.3 3518.84   9
   6   1   1 49739.8 3250.34  11
   6  -1   1 56077.9 4180.24   9
   6   1   1 53446.6 4206.94   9
   6  -1   2 4378.37 1148.68   9
   6   1   2 6525.98 1372.43   9
   6  -1   3 215167. 9570.87   9
   6   1   3 230296. 9773.24   9
   6   1   4 10220.7 1351.06   9
   6  -1   4 7791.19 1176.70   9
   6  -1   5 199126. 7383.67   9
   6   1   5 205901. 7518.67   9
  -6   1  -5 180261. 7469.59  13
   6  -2  -9 2401.77 820.985  19
   6  -2  -8 1093.63 1032.80  19
   6  -2  -7 44319.0 3804.03  19
   6  -2  -6 141938. 7443.78  19
   6  -2  -5 104362. 5269.45  11
   6  -2  -5 110801. 6078.20  24
   6  -2  -4 24300.1 2272.15  11
   6   2  -4 25931.8 2740.69  18
   6  -2  -4 24200.9 2542.23  24
   6   2  -4 25067.7 2290.26  11
   6   2  -3 3153.63 814.759  11
   6  -2  -3 2369.85 763.278  11
   6   2  -3 3796.93 1091.60  18
   6  -2  -3 3901.70 1122.11  24
   6   2  -2 222033. 8863.18  11
   6  -2  -2 191154. 9199.09  11
   6  -2  -2 205823. 9746.39  24
   6   2  -1 13933.9 1568.11  11
   6  -2  -1 10311.7 1729.08   9
   6  -2  -1 12093.2 1997.50  24
   6   2   0 9872.50 1263.31  11
   6  -2   0 12181.4 1891.41   9
   6   2   0 10704.4 1823.91   9
   6  -2   1 62624.3 4442.74   9
   6   2   1 53872.3 4313.93   9
   6  -2   2 166475. 8144.49   9
   6   2   2 176807. 8472.50   9
   6  -2   3 77302.4 4614.57   9
   6   2   3 81190.1 4751.94   9
   6  -2   4 571.129 410.255   9
   6   2   4 596.905 443.746   9
   6   2   5 9733.71 1013.90   9
   6  -3  -9 53588.6 3435.86  19
   6  -3  -8 504.312 797.912  19
   6  -3  -8 1039.45 618.623  23
   6  -3  -7 14832.5 2234.35  19
   6  -3  -7 17757.1 1992.74  23
   6  -3  -6 18461.2 2399.23  19
   6  -3  -6 23018.8 2572.40  24
   6  -3  -6 22996.5 2390.84  23
   6   3  -5 62510.6 4619.16  18
   6  -3  -5 51758.5 4130.82  24
   6  -3  -4 72107.6 4237.82  11
   6   3  -4 81323.8 5248.10  18
   6  -3  -4 80510.6 5195.44  24
   6  -3  -3 91797.2 5243.73  11
   6   3  -3 98562.1 5786.93  18
   6  -3  -3 95065.8 5959.43  24
   6   3  -3 96646.2 5026.98  11
   6   3  -2 2011.20 809.113  18
   6  -3  -2 1126.24 829.863  24
   6   3  -1 114361. 5327.93  11
   6  -3  -1 102583. 6665.63  24
   6  -3   0 96483.2 6356.60  24
   6  -3   1 62635.1 4513.30   9
   6   3   1 71649.9 4862.16   9
   6  -3   2 41019.0 3284.54   9
   6   3   2 42994.4 3464.37   9
   6   3   3 43723.1 3142.70   9
   6   3   4 1272.83 528.611   9
   6   3   5 34113.0 1956.22   9
   6  -3   5 34566.8 2017.31  24
   6  -4  -8 2152.81 1010.50  19
   6  -4  -8 2941.64 822.985  23
   6  -4  -7 96389.5 6268.26  19
   6  -4  -7 93928.6 5285.35  23
   6  -4  -6 126274. 7215.99  19
   6   4  -6 122908. 6963.14  18
   6  -4  -6 125090. 6541.81  23
   6   4  -5 107175. 6406.40  18
   6  -4  -5 99757.3 6223.15  24
   6   4  -4 18832.3 2355.85  18
   6  -4  -4 19719.6 2574.82  24
   6   4  -3 2880.70 950.737  18
   6  -4  -3 689.990 777.720  24
   6   4  -2 23567.1 2424.48  18
   6  -4  -2 22993.6 2842.71  24
   6  -4  -1 17932.1 2554.13  24
   6  -4   0 16403.3 2381.48  24
   6   4   0 15442.0 1718.24  21
   6   4   1 156775. 7857.73   9
   6   4   1 150994. 7026.88  21
   6   4   2 155223. 7366.72   9
   6  -4   2 156127. 7694.74  24
   6   4   3 60320.3 3603.26   9
   6  -4   3 59721.0 3734.28  24
   6   4   4 3454.67 672.604   9
   6  -4   4 2683.06 624.025  24
   6   4   5 9380.82 817.861   9
   6  -5  -8 61044.7 3472.21  23
   6  -5  -7 171.484 838.246  19
   6  -5  -7-186.364 572.475  23
   6  -5  -6-726.560 800.634  19
   6   5  -6 280.527 569.830  18
   6  -5  -6 661.395 706.955  23
   6  -5  -5 59029.7 4647.58  19
   6   5  -5 72295.8 4845.93  18
   6  -5  -5 71047.6 5208.99  24
   6   5  -4 152614. 7629.17  18
   6  -5  -4 138637. 8155.06  24
   6   5  -3 15577.8 1999.56  18
   6  -5  -3 10527.8 1963.20  24
   6   5  -2 1741.85 725.842  18
   6  -5  -2 831.830 960.835  24
   6  -5  -1 43808.3 3982.81  24
   6  -5   0 148669. 7797.21  24
   6   5   0 134948. 6296.78  21
   6  -5   1 96339.7 5544.91  24
   6   5   1 87047.3 4542.17  21
   6   5   2 4409.50 906.877   9
   6  -5   2 3423.24 856.245  24
   6   5   3 3839.25 726.118   9
   6  -5   3 2054.65 525.121  24
   6   5   4 79722.3 3533.72   9
   6  -6  -7 27294.8 2290.29  23
   6   6  -6 27377.5 2393.97  18
   6  -6  -6 24437.8 2386.50  23
   6   6  -5 26481.7 2558.14  18
   6  -6  -5 23115.5 2964.00  24
   6   6  -4 49477.4 3619.72  18
   6  -6  -4 44335.9 4199.56  24
   6   6  -3 140736. 6929.24  18
   6  -6  -3 143686. 8194.32  24
   6   6  -2 5717.88 1117.74  18
   6  -6  -2 5505.63 1453.92  24
   6  -6  -1 113429. 6590.79  24
   6  -6   0 41497.8 3356.98  24
   6   6   0 39048.0 2629.81  21
   6  -6   1 14544.7 1701.35  24
   6   6   1 14846.0 1473.32  21
   6  -6   2 25075.5 1931.22  24
   6   6   3 60960.6 2892.56   9
   6   7  -6 2828.61 612.565  18
   6  -7  -6 2185.85 693.042  23
   6   7  -5 3803.83 840.351  18
   6   7  -4 95094.4 5028.08  18
   6  -7  -4 108088. 6661.74  24
   6   7  -3 170.569 398.159  18
   6  -7  -3 251.631 801.258  24
   6   7  -2 3433.42 830.514  18
   6  -7  -2 3166.18 1033.15  24
   6  -7  -1 965.732 638.903  24
   6   7  -1 837.973 384.151  21
   6  -7   0 125322. 5771.82  24
   6   7   0 121310. 5250.47  21
   6   7   1 4394.89 705.616  21
  -6   7  -1 4997.18 885.807  12
  -6   7  -2 16037.1 1309.93  12
   6   8  -4 2796.03 599.724  18
   6   8  -3 149334. 6141.09  18
   6  -8  -2 14744.9 1549.94  24
  -6   8   2 10851.4 1128.93  12
  -6   8   1 153401. 6204.21  12
   6   8   0 1317.94 364.035  21
  -6   8   0 1746.62 482.318  12
  -6   8  -1 18200.2 1308.29  12
   7   0  -8 86963.8 4674.78  19
   7   0  -7-716.186 709.379  19
   7   0  -6 3156.90 939.493  19
   7   0  -4 94819.6 5281.06  11
   7   0  -3 185.043 456.406  11
   7   0  -2 798.689 611.686  11
   7   0  -1-330.205 470.043  11
   7   0  -1-2.04175 644.267   9
   7   0  -1 357.464 521.779  24
   7   0   0 413602. 15169.5  11
   7   0   0 408979. 16191.7   9
   7   0   0 385487. 16190.5  24
   7   0   1 1282.67 536.466  11
   7   0   1 826.171 726.826   9
   7   0   2 141189. 5861.72  11
   7   0   2 141115. 6707.71   9
   7   0   3 505.306 417.618   9
   7   0   4 21410.6 1419.66   9
   7  -1  -8 23991.2 2377.88  19
   7  -1  -7 107040. 5969.07  19
   7   1  -6 1294.84 620.896  19
   7  -1  -6-15.8922 595.168  19
   7  -1  -5 223332. 9369.98  11
   7  -1  -4 26628.9 2506.56  11
   7   1  -4 22766.4 2246.68  11
   7   1  -3 6216.71 1165.79  11
   7  -1  -3 4897.03 1171.98  11
   7  -1  -3 7865.65 1432.47  24
   7   1  -2 15508.6 1819.98  11
   7  -1  -2 15925.6 2074.26  11
   7  -1  -2 14630.5 2080.18  24
   7   1  -1 48626.7 3304.48  11
   7  -1  -1 51562.6 3809.87  11
   7  -1  -1 42293.2 3889.74  24
   7   1   0 24234.9 2123.99  11
   7  -1   0 23179.9 2385.40  11
   7  -1   0 23949.8 2676.41   9
   7   1   0 25948.3 2718.05   9
   7  -1   0 25067.0 2921.94  24
   7   1   1 61754.8 3434.21  11
   7  -1   1 62257.1 3853.91  11
   7  -1   1 67373.8 4406.34   9
   7   1   1 67218.2 4399.11   9
   7  -1   2 18049.5 1635.72  11
   7  -1   2 20206.1 2052.00   9
   7   1   2 18556.9 1949.68   9
   7  -1   3 71349.6 3226.25  11
   7  -1   3 71356.2 3767.55   9
   7   1   3 78686.7 3858.31   9
   7   1   4 1252.82 335.088   9
   7  -1   4 1029.60 350.221  24
   7  -2  -8 79323.7 4809.62  19
   7  -2  -7 17256.8 2175.94  19
   7  -2  -6 5641.29 1296.07  19
   7  -2  -5 4380.27 870.687  11
   7  -2  -4 131070. 6549.41  11
   7  -2  -4 134854. 6990.96  24
   7  -2  -3 67440.2 4602.01  11
   7  -2  -3 73486.0 4937.56  24
   7   2  -3 78300.8 4340.78  11
   7   2  -2 1627.96 594.542  11
   7  -2  -2 709.492 740.922  11
   7  -2  -2 1909.23 1020.25  24
   7   2  -1 1647.46 541.087  11
   7  -2  -1 1158.12 794.979  11
   7  -2  -1 1096.05 796.452  24
   7   2   0 169625. 6931.55  11
   7  -2   0 161596. 8088.77  11
   7  -2   0 165768. 8795.51  24
   7   2   1 4525.20 1079.64   9
   7  -2   1 4654.69 1302.24  24
   7   2   2 33770.0 2601.70   9
   7  -2   2 40015.6 3094.92  24
   7  -2   3 51577.2 2632.10  11
   7   2   3 53204.1 2931.85   9
   7  -2   3 59971.2 3338.73  24
   7   2   4 50169.2 2309.54   9
   7  -2   4 48902.2 2425.46  24
   7  -3  -7 23414.5 2565.06  19
   7  -3  -6 1121.12 849.599  19
   7  -3  -5 46315.1 3641.44  24
   7  -3  -4 10399.2 1425.64  11
   7  -3  -4 11485.2 1836.98  24
   7  -3  -3 32522.8 2914.82  11
   7  -3  -3 34666.5 3323.83  24
   7  -3  -2 147563. 8019.68  11
   7  -3  -2 162329. 8541.48  24
   7   3  -2 168911. 7012.80  11
   7  -3  -1 99657.0 6173.54  11
   7  -3  -1 103506. 6465.63  24
   7  -3   0 16458.4 2316.71  24
   7   3   1 13966.2 1666.21   9
   7  -3   1 20166.0 2328.37  24
   7   3   2 36473.1 2481.37   9
   7  -3   2 36406.7 2797.17  24
   7  -3   3 86560.8 3723.40  11
   7   3   3 86963.4 3860.00   9
   7  -3   3 90999.5 4210.11  24
   7  -4  -7 86445.2 5497.94  19
   7  -4  -6 3948.32 1223.49  19
   7  -4  -6 3820.14 980.419  23
   7  -4  -5 34621.3 3160.26  19
   7  -4  -5 38257.5 3366.71  24
   7  -4  -4 71126.9 4907.22  24
   7  -4  -3 75616.4 4425.14  11
   7  -4  -3 75095.2 5217.32  24
   7  -4  -2 15887.3 2075.03  11
   7  -4  -2 18730.5 2461.63  24
   7  -4  -1 824.386 815.235  11
   7  -4  -1-141.908 661.939  24
   7  -4   0 16548.4 2092.03  24
   7  -4   1 28548.5 2539.33  24
   7   4   2 5737.97 788.124   9
   7  -4   2 6319.25 1005.19  24
   7  -4   3 101454. 3877.93  11
   7  -4   3 89556.4 3953.44  24
   7  -5  -6 77137.3 4908.46  19
   7  -5  -6 50784.8 3538.31  23
   7  -5  -5-35.0065 539.234  19
   7  -5  -5 254.084 655.458  24
   7  -5  -4 7237.37 1276.70  19
   7  -5  -4 5509.62 1396.64  24
   7  -5  -3 70958.7 4958.48  24
   7  -5  -2 146761. 6849.32  11
   7  -5  -2 159063. 7966.56  24
   7  -5  -1 99157.3 5447.58  11
   7  -5  -1 105184. 5862.89  24
   7  -5   0 11151.7 1523.86  11
   7  -5   0 8127.41 1339.78  24
   7  -5   1 1606.62 549.763  24
   7  -5   2 105357. 4269.09  11
   7  -5   2 91276.4 4132.87  24
   7  -6  -5 23907.4 2219.66  23
   7  -6  -4 17827.1 2221.18  24
   7  -6  -3 80256.0 5001.26  24
   7  -6  -2 18740.5 2077.63  24
   7  -6  -1 85673.4 4620.61  24
   7  -6   0 4816.17 749.505  11
   7  -6   0 4773.67 824.741  24
  -7   6  -1 145165. 5643.60  12
  -7   7   1 3939.42 614.012  12
   8   0  -6 5832.91 1088.66  19
   8   0  -5 323.905 515.317  19
   8   0  -3 309.923 460.768  11
   8   0  -2 134289. 6206.33  11
   8   0  -1 553.968 356.531  11
   8   0   0 15899.4 1379.66  11
   8   0   1 415.456 195.816  11
   8   0   1 643.827 286.379  24
   8  -1  -6 18718.2 2078.39  19
   8  -1  -5 35838.4 2937.74  19
   8  -1  -4 764.902 515.593  11
   8  -1  -3 212462. 9221.48  11
   8   1  -3 223170. 8861.32  11
   8  -1  -2 19678.2 1972.42  11
   8   1  -2 15634.9 1575.35  11
   8   1  -1 4580.30 771.474  11
   8  -1  -1 6459.47 1066.90  11
   8  -1  -1 6857.62 1195.06  24
   8   1   0 22825.8 1537.55  11
   8  -1   0 23703.3 1833.11  11
   8  -1   0 21549.4 2022.73  24
   8  -1   1 40106.4 2124.19  11
   8  -1   1 43140.9 2578.59  24
   8  -2  -6 55818.0 3959.36  19
   8  -2  -5 60153.2 4084.92  19
   8  -2  -4 7182.66 1149.76  11
   8  -2  -3 3280.34 861.710  11
   8  -2  -3 3334.13 971.803  24
   8  -2  -2 67076.7 4162.96  11
   8  -2  -2 66963.2 4313.23  24
   8  -2  -1 36610.9 2750.90  11
   8  -2  -1 35688.4 2935.59  24
   8  -2   0 36968.3 2426.77  11
   8  -2   0 35299.6 2692.44  24
   8  -2   1 370.103 219.014  11
   8  -2   1 487.920 349.978  24
   8  -3  -5 2416.03 852.069  19
   8  -3  -4 5665.44 1127.81  24
   8  -3  -3 59290.9 3588.46  11
   8  -3  -3 57023.9 3957.04  24
   8  -3  -2 2354.47 773.263  11
   8  -3  -2 2545.61 914.661  24
   8  -3  -1 12723.5 1510.03  11
   8  -3  -1 14318.0 1732.99  24
   8  -3   0 186290. 7448.66  11
   8  -3   0 196912. 7904.09  24
   8  -4  -4 34720.6 2666.58  19
   8  -4  -4 37264.6 2933.37  24
   8  -4  -3 4063.45 983.594  24
   8  -4  -2 33972.2 2296.29  11
   8  -4  -2 36098.4 2801.90  24
   8  -4  -1 82047.7 4008.20  11
   8  -4  -1 88059.1 4437.97  24
   8  -4   0 22831.5 1705.02  24
   0   0   0    0.00    0.00   0
TITL exp_9037 in P2(1)/c
REM P2(1)/c (#14 in standard setting)
CELL 1.54184   7.032408   9.631417   8.805274  90.0000 103.7242  90.0000
ZERR    5.00   0.000458   0.000594   0.000594   0.0000   0.0068   0.0000
LATT  1
SYMM -x, y+1/2,-z+1/2
SFAC O Na S Te Th
UNIT 5.00 5.00 5.00 5.00 5.00
TREF
HKLF 4
END
;
loop_
_symmetry_equiv_pos_as_xyz
'x, y, z'
'-x, y+1/2, -z+1/2'
'-x, -y, -z'
'x, -y-1/2, z-1/2'
loop_
_atom_site_label
_atom_site_type_symbol
_atom_site_fract_x
_atom_site_fract_y
_atom_site_fract_z
_atom_site_U_iso_or_equiv
_atom_site_adp_type
_atom_site_occupancy
_atom_site_symmetry_multiplicity
_atom_site_calc_flag
_atom_site_refinement_flags
Th1 Th 0.29180(7) 0.46541(5) 0.12679(5) 0.0040(3) Uani 1 1 d .
Te1 Te 0.15340(14) 0.40544(9) -0.28158(11) 0.0062(3) Uani 1 1 d .
S1 S 0.3932(5) 0.6824(3) 0.4879(4) 0.0021(6) Uiso 1 1 d .
O1 O 0.0380(15) 0.4405(11) -0.1149(12) 0.003(2) Uiso 1 1 d .
O2 O 0.3917(16) 0.4462(11) -0.1362(12) 0.004(2) Uiso 1 1 d .
O3 O 0.1493(17) 0.2154(12) -0.2723(13) 0.011(2) Uiso 1 1 d .
O4 O 0.2662(17) 0.8031(11) 0.5128(13) 0.009(2) Uiso 1 1 d .
O5 O 0.2591(18) 0.5969(13) 0.3594(14) 0.014(2) Uiso 1 1 d .
O6 O 0.4571(19) 0.6014(14) 0.6259(15) 0.018(3) Uiso 1 1 d .
O7 O 0.555(2) 0.7343(13) 0.4176(14) 0.018(3) Uani 1 1 d U
loop_
_atom_site_aniso_label
_atom_site_aniso_U_11
_atom_site_aniso_U_22
_atom_site_aniso_U_33
_atom_site_aniso_U_23
_atom_site_aniso_U_13
_atom_site_aniso_U_12
Th1 0.0021(3) 0.0022(4) 0.0073(4) -0.00009(15) 0.0001(2) -0.00071(15)
Te1 0.0035(5) 0.0084(5) 0.0053(5) -0.0014(3) -0.0015(4) -0.0005(3)
O7 0.024(7) 0.013(6) 0.019(6) -0.003(5) 0.008(5) -0.003(5)
loop_
_atom_type_symbol
_atom_type_description
_atom_type_scat_dispersion_real
_atom_type_scat_dispersion_imag
_atom_type_scat_source
O O 0.0492 0.0322 'International Tables Vol C Tables 4.2.6.8 and 6.1.1.4'
S S 0.3331 0.5567 'International Tables Vol C Tables 4.2.6.8 and 6.1.1.4'
Te Te -0.1759 6.3531 'International Tables Vol C Tables 4.2.6.8 and 6.1.1.4'
Th Th -4.1491 12.3296 'International Tables Vol C Tables 4.2.6.8 and 6.1.1.4'
loop_
_geom_angle_atom_site_label_1
_geom_angle_atom_site_label_2
_geom_angle_atom_site_label_3
_geom_angle
_geom_angle_site_symmetry_1
_geom_angle_site_symmetry_3
O3 Th1 O2 139.0(4) 4_566 3_665
O3 Th1 O4 149.3(4) 4_566 4_575
O2 Th1 O4 70.2(4) 3_665 4_575
O3 Th1 O1 88.1(4) 4_566 .
O2 Th1 O1 123.5(4) 3_665 .
O4 Th1 O1 76.3(4) 4_575 .
O3 Th1 O5 86.1(4) 4_566 .
O2 Th1 O5 93.3(4) 3_665 .
O4 Th1 O5 81.9(4) 4_575 .
O1 Th1 O5 125.5(4) . .
O3 Th1 O1 78.6(4) 4_566 3_565
O2 Th1 O1 137.4(4) 3_665 3_565
O4 Th1 O1 70.7(4) 4_575 3_565
O1 Th1 O1 60.9(4) . 3_565
O5 Th1 O1 64.8(4) . 3_565
O3 Th1 O6 75.8(4) 4_566 3_666
O2 Th1 O6 66.7(4) 3_665 3_666
O4 Th1 O6 123.6(4) 4_575 3_666
O1 Th1 O6 159.7(4) . 3_666
O5 Th1 O6 66.5(4) . 3_666
O1 Th1 O6 125.8(4) 3_565 3_666
O3 Th1 O7 68.6(4) 4_566 2_645
O2 Th1 O7 83.8(4) 3_665 2_645
O4 Th1 O7 137.0(4) 4_575 2_645
O1 Th1 O7 91.6(4) . 2_645
O5 Th1 O7 134.7(4) . 2_645
O1 Th1 O7 137.9(4) 3_565 2_645
O6 Th1 O7 71.1(4) 3_666 2_645
O3 Th1 O2 122.1(4) 4_566 .
O2 Th1 O2 66.6(4) 3_665 .
O4 Th1 O2 72.8(4) 4_575 .
O1 Th1 O2 60.6(4) . .
O5 Th1 O2 151.8(4) . .
O1 Th1 O2 116.2(3) 3_565 .
O6 Th1 O2 118.0(4) 3_666 .
O7 Th1 O2 65.4(4) 2_645 .
O3 Th1 Te1 103.3(3) 4_566 .
O2 Th1 Te1 97.1(3) 3_665 .
O4 Th1 Te1 75.8(3) 4_575 .
O1 Th1 Te1 29.8(2) . .
O5 Th1 Te1 150.4(3) . .
O1 Th1 Te1 89.3(2) 3_565 .
O6 Th1 Te1 142.8(3) 3_666 .
O7 Th1 Te1 74.1(3) 2_645 .
O2 Th1 Te1 31.3(2) . .
O3 Th1 Th1 139.7(3) 4_566 3_665
O2 Th1 Th1 35.0(3) 3_665 3_665
O4 Th1 Th1 67.8(3) 4_575 3_665
O1 Th1 Th1 90.6(2) . 3_665
O5 Th1 Th1 125.7(3) . 3_665
O1 Th1 Th1 134.1(2) 3_565 3_665
O6 Th1 Th1 93.8(3) 3_666 3_665
O7 Th1 Th1 71.2(3) 2_645 3_665
O2 Th1 Th1 31.7(2) . 3_665
Te1 Th1 Th1 62.45(2) . 3_665
O3 Te1 O1 97.5(5) . .
O3 Te1 O2 101.4(5) . .
O1 Te1 O2 84.9(5) . .
O3 Te1 Th1 96.9(3) . .
O1 Te1 Th1 40.5(3) . .
O2 Te1 Th1 45.1(3) . .
O6 S1 O7 114.6(8) . .
O6 S1 O4 112.0(7) . .
O7 S1 O4 109.6(7) . .
O6 S1 O5 110.5(7) . .
O7 S1 O5 105.6(7) . .
O4 S1 O5 103.8(7) . .
Te1 O1 Th1 109.8(5) . .
Te1 O1 Th1 127.7(5) . 3_565
Th1 O1 Th1 119.1(4) . 3_565
Te1 O2 Th1 140.6(5) . 3_665
Te1 O2 Th1 103.6(4) . .
Th1 O2 Th1 113.4(4) 3_665 .
Te1 O3 Th1 136.8(6) . 4_565
S1 O4 Th1 140.8(7) . 4_576
S1 O5 Th1 136.8(7) . .
S1 O6 Th1 152.2(8) . 3_666
S1 O7 Th1 138.0(7) . 2_655
loop_
_geom_bond_atom_site_label_1
_geom_bond_atom_site_label_2
_geom_bond_distance
_geom_bond_site_symmetry_2
Th1 O3 2.291(12) 4_566
Th1 O2 2.365(11) 3_665
Th1 O4 2.434(11) 4_575
Th1 O1 2.443(10) .
Th1 O5 2.465(12) .
Th1 O1 2.469(10) 3_565
Th1 O6 2.540(13) 3_666
Th1 O7 2.543(13) 2_645
Th1 O2 2.582(11) .
Th1 Te1 3.5427(11) .
Th1 Th1 4.1360(10) 3_665
Te1 O3 1.833(12) .
Te1 O1 1.869(11) .
Te1 O2 1.893(10) .
S1 O6 1.424(13) .
S1 O7 1.504(13) .
S1 O4 1.513(12) .
S1 O5 1.530(12) .
O1 Th1 2.469(10) 3_565
O2 Th1 2.366(11) 3_665
O3 Th1 2.291(12) 4_565
O4 Th1 2.434(11) 4_576
O6 Th1 2.540(13) 3_666
O7 Th1 2.543(13) 2_655
loop_
_geom_torsion_atom_site_label_1
_geom_torsion_atom_site_label_2
_geom_torsion_atom_site_label_3
_geom_torsion_atom_site_label_4
_geom_torsion
_geom_torsion_site_symmetry_1
_geom_torsion_site_symmetry_4
O3 Th1 Te1 O3 -32.2(2) 4_566 .
O2 Th1 Te1 O3 111.9(5) 3_665 .
O4 Th1 Te1 O3 179.4(4) 4_575 .
O1 Th1 Te1 O3 -93.5(6) . .
O5 Th1 Te1 O3 -138.3(7) . .
O1 Th1 Te1 O3 -110.4(4) 3_565 .
O6 Th1 Te1 O3 51.6(6) 3_666 .
O7 Th1 Te1 O3 30.5(5) 2_645 .
O2 Th1 Te1 O3 99.2(6) . .
Th1 Th1 Te1 O3 107.3(4) 3_665 .
O3 Th1 Te1 O1 61.2(6) 4_566 .
O2 Th1 Te1 O1 -154.6(5) 3_665 .
O4 Th1 Te1 O1 -87.1(6) 4_575 .
O5 Th1 Te1 O1 -44.8(8) . .
O1 Th1 Te1 O1 -16.9(7) 3_565 .
O6 Th1 Te1 O1 145.1(7) 3_666 .
O7 Th1 Te1 O1 124.0(6) 2_645 .
O2 Th1 Te1 O1 -167.3(7) . .
Th1 Th1 Te1 O1 -159.2(5) 3_665 .
O3 Th1 Te1 O2 -131.5(5) 4_566 .
O2 Th1 Te1 O2 12.7(7) 3_665 .
O4 Th1 Te1 O2 80.2(5) 4_575 .
O1 Th1 Te1 O2 167.3(7) . .
O5 Th1 Te1 O2 122.5(7) . .
O1 Th1 Te1 O2 150.4(5) 3_565 .
O6 Th1 Te1 O2 -47.6(7) 3_666 .
O7 Th1 Te1 O2 -68.7(6) 2_645 .
Th1 Th1 Te1 O2 8.1(5) 3_665 .
O3 Te1 O1 Th1 91.9(5) . .
O2 Te1 O1 Th1 -9.0(5) . .
O3 Te1 O1 Th1 -109.6(7) . 3_565
O2 Te1 O1 Th1 149.5(6) . 3_565
Th1 Te1 O1 Th1 158.5(9) . 3_565
O3 Th1 O1 Te1 -121.4(5) 4_566 .
O2 Th1 O1 Te1 30.7(6) 3_665 .
O4 Th1 O1 Te1 85.3(5) 4_575 .
O5 Th1 O1 Te1 154.7(5) . .
O1 Th1 O1 Te1 160.6(9) 3_565 .
O6 Th1 O1 Te1 -84.3(11) 3_666 .
O7 Th1 O1 Te1 -52.9(5) 2_645 .
O2 Th1 O1 Te1 7.5(4) . .
Th1 Th1 O1 Te1 18.3(4) 3_665 .
O3 Th1 O1 Th1 78.0(5) 4_566 3_565
O2 Th1 O1 Th1 -129.9(5) 3_665 3_565
O4 Th1 O1 Th1 -75.3(5) 4_575 3_565
O5 Th1 O1 Th1 -5.9(7) . 3_565
O1 Th1 O1 Th1 0.0 3_565 3_565
O6 Th1 O1 Th1 115.1(10) 3_666 3_565
O7 Th1 O1 Th1 146.5(5) 2_645 3_565
O2 Th1 O1 Th1 -153.1(6) . 3_565
Te1 Th1 O1 Th1 -160.6(9) . 3_565
Th1 Th1 O1 Th1 -142.3(4) 3_665 3_565
O3 Te1 O2 Th1 111.7(9) . 3_665
O1 Te1 O2 Th1 -151.7(8) . 3_665
Th1 Te1 O2 Th1 -159.9(11) . 3_665
O3 Te1 O2 Th1 -88.4(5) . .
O1 Te1 O2 Th1 8.2(5) . .
O3 Th1 O2 Te1 59.4(6) 4_566 .
O2 Th1 O2 Te1 -166.3(8) 3_665 .
O4 Th1 O2 Te1 -90.9(5) 4_575 .
O1 Th1 O2 Te1 -7.2(4) . .
O5 Th1 O2 Te1 -118.4(7) . .
O1 Th1 O2 Te1 -33.4(5) 3_565 .
O6 Th1 O2 Te1 149.7(4) 3_666 .
O7 Th1 O2 Te1 99.9(5) 2_645 .
Th1 Th1 O2 Te1 -166.3(8) 3_665 .
O3 Th1 O2 Th1 -134.3(4) 4_566 3_665
O2 Th1 O2 Th1 0.0 3_665 3_665
O4 Th1 O2 Th1 75.4(5) 4_575 3_665
O1 Th1 O2 Th1 159.1(5) . 3_665
O5 Th1 O2 Th1 47.8(10) . 3_665
O1 Th1 O2 Th1 132.9(4) 3_565 3_665
O6 Th1 O2 Th1 -44.1(6) 3_666 3_665
O7 Th1 O2 Th1 -93.9(5) 2_645 3_665
Te1 Th1 O2 Th1 166.3(8) . 3_665
O1 Te1 O3 Th1 -165.8(8) . 4_565
O2 Te1 O3 Th1 -79.5(9) . 4_565
Th1 Te1 O3 Th1 -125.0(8) . 4_565
O6 S1 O4 Th1 78.4(12) . 4_576
O7 S1 O4 Th1 -49.9(12) . 4_576
O5 S1 O4 Th1 -162.3(9) . 4_576
O6 S1 O5 Th1 -98.9(11) . .
O7 S1 O5 Th1 25.6(12) . .
O4 S1 O5 Th1 140.8(9) . .
O3 Th1 O5 S1 128.0(10) 4_566 .
O2 Th1 O5 S1 -10.9(10) 3_665 .
O4 Th1 O5 S1 -80.4(10) 4_575 .
O1 Th1 O5 S1 -147.1(9) . .
O1 Th1 O5 S1 -152.8(11) 3_565 .
O6 Th1 O5 S1 51.8(10) 3_666 .
O7 Th1 O5 S1 73.6(12) 2_645 .
O2 Th1 O5 S1 -53.9(14) . .
Te1 Th1 O5 S1 -121.7(8) . .
Th1 Th1 O5 S1 -25.2(12) 3_665 .
O7 S1 O6 Th1 28.6(19) . 3_666
O4 S1 O6 Th1 -97.0(17) . 3_666
O5 S1 O6 Th1 147.7(16) . 3_666
O6 S1 O7 Th1 -113.4(11) . 2_655
O4 S1 O7 Th1 13.5(12) . 2_655
O5 S1 O7 Th1 124.7(10) . 2_655
