#------------------------------------------------------------------------------
#$Date: 2017-06-05 03:11:43 +0300 (Mon, 05 Jun 2017) $
#$Revision: 197405 $
#$URL: file:///home/coder/svn-repositories/cod/cif/4/34/57/4345749.cif $
#------------------------------------------------------------------------------
#
# This file is available in the Crystallography Open Database (COD),
# http://www.crystallography.net/
#
# All data on this site have been placed in the public domain by the
# contributors.
#
data_4345749
loop_
_publ_author_name
'L\"u, Minfeng'
'Jo, Hongil'
'Oh, Seung-Jin'
'Lee, Suheon'
'Choi, Kwang-Yong'
'Yu, Yang'
'Ok, Kang Min'
_publ_section_title
;
 Syntheses, Structures, and Characterization of Quaternary Tellurites,
 Li3MTe4O11 (M = Al, Ga, and Fe).
;
_journal_issue                   10
_journal_name_full               'Inorganic chemistry'
_journal_page_first              5873
_journal_page_last               5879
_journal_paper_doi               10.1021/acs.inorgchem.7b00530
_journal_volume                  56
_journal_year                    2017
_chemical_formula_sum            'Ga2 Li6 O22 Te8'
_chemical_formula_weight         1553.88
_chemical_name_systematic        ' ?'
_space_group_IT_number           15
_symmetry_cell_setting           monoclinic
_symmetry_Int_Tables_number      15
_symmetry_space_group_name_Hall  '-C 2yc'
_symmetry_space_group_name_H-M   'C 1 2/c 1'
_cell_angle_alpha                90
_cell_angle_beta                 109.726(4)
_cell_angle_gamma                90
_cell_formula_units_Z            2
_cell_length_a                   18.7906(10)
_cell_length_b                   5.1841(2)
_cell_length_c                   10.7786(5)
_cell_measurement_reflns_used    5065
_cell_measurement_temperature    298.0
_cell_measurement_theta_max      28.405
_cell_measurement_theta_min      3.893
_cell_volume                     988.35(8)
_diffrn_ambient_temperature      298.0
_diffrn_measured_fraction_theta_full 0.98
_diffrn_measured_fraction_theta_max 0.97
_diffrn_measurement_device       CCD
_diffrn_measurement_device_type  'Bruker SMART BREEZE'
_diffrn_radiation_monochromator  graphite
_diffrn_radiation_probe          x-ray
_diffrn_radiation_source         'X-ray tube'
_diffrn_radiation_type           'Mo K\a'
_diffrn_radiation_wavelength     0.71073
_diffrn_reflns_av_R_equivalents  0.0318
_diffrn_reflns_av_unetI/netI     0.0199
_diffrn_reflns_limit_h_max       25
_diffrn_reflns_limit_h_min       -25
_diffrn_reflns_limit_k_max       6
_diffrn_reflns_limit_k_min       -6
_diffrn_reflns_limit_l_max       14
_diffrn_reflns_limit_l_min       -14
_diffrn_reflns_number            8364
_diffrn_reflns_theta_full        28.61
_diffrn_reflns_theta_max         28.65
_diffrn_reflns_theta_min         2.3
_exptl_absorpt_coefficient_mu    14.41
_exptl_absorpt_correction_T_max  0.7457
_exptl_absorpt_correction_T_min  0.4350
_exptl_absorpt_correction_type   multi-scan
_exptl_absorpt_process_details   Bruker
_exptl_crystal_colour            colorless
_exptl_crystal_density_diffrn    5.2213
_exptl_crystal_description       brick
_exptl_crystal_F_000             1344
_exptl_crystal_size_max          0.80
_exptl_crystal_size_mid          0.22
_exptl_crystal_size_min          0.20
_refine_diff_density_max         1.79
_refine_diff_density_min         -1.20
_refine_ls_extinction_method     none
_refine_ls_goodness_of_fit_gt    1.87
_refine_ls_goodness_of_fit_ref   1.82
_refine_ls_number_constraints    0
_refine_ls_number_parameters     65
_refine_ls_number_reflns         1237
_refine_ls_number_restraints     0
_refine_ls_R_factor_all          0.0257
_refine_ls_R_factor_gt           0.0234
_refine_ls_shift/su_max          0.0234
_refine_ls_shift/su_mean         0.0024
_refine_ls_structure_factor_coef F
_refine_ls_weighting_details     w=1/(\s^2^(F)+0.0001F^2^)
_refine_ls_weighting_scheme      sigma
_refine_ls_wR_factor_gt          0.0305
_refine_ls_wR_factor_ref         0.0311
_reflns_number_gt                1139
_reflns_number_total             1237
_reflns_threshold_expression     I>3\s(I)
_cod_data_source_file            ic7b00530_si_002.cif
_cod_data_source_block           Li3GaTe4O11
_cod_depositor_comments
;
The following automatic conversions were performed:

'_diffrn_radiation_probe' value 'X-ray' changed to 'x-ray' according
to
/home/data/users/saulius/crontab/automatic-downloads/rss-feeds/ACS/lib/dictionaries/cif_core.dic
dictionary named 'cif_core.dic' version 2.4.2 from 2011-04-26.

Automatic conversion script
Id: cif_fix_values 4973 2017-02-22 13:04:09Z antanas 

 Adding full bibliography for 4345748--4345749.cif.
;
_cod_database_code               4345749
loop_
_space_group_symop_id
_space_group_symop_operation_xyz
1 x,y,z
2 -x,y,-z+1/2
3 -x,-y,-z
4 x,-y,z+1/2
5 x+1/2,y+1/2,z
6 -x+1/2,y+1/2,-z+1/2
7 -x+1/2,-y+1/2,-z
8 x+1/2,-y+1/2,z+1/2
loop_
_atom_site_label
_atom_site_type_symbol
_atom_site_fract_x
_atom_site_fract_y
_atom_site_fract_z
_atom_site_adp_type
_atom_site_U_iso_or_equiv
_atom_site_site_symmetry_multiplicity
_atom_site_occupancy
_atom_site_calc_flag
Te1 Te 0.665366(19) 0.33437(6) 0.17008(3) Uani 0.01117(12) 8 1 d
Te2 Te 0.55606(2) 0.76199(6) -0.06245(4) Uani 0.01683(14) 8 1 d
Ga1 Ga 0.75 0.25 0.5 Uani 0.0093(3) 4 1 d
O1 O 0.6461(2) 0.8935(6) -0.0713(4) Uiso 0.0148(7) 8 1 d
O2 O 0.7241(2) 0.4320(6) 0.0694(3) Uiso 0.0116(6) 8 1 d
O3 O 0.7327(2) 0.4382(6) 0.3327(3) Uiso 0.0127(7) 8 1 d
O4 O 0.6103(2) 0.6448(7) 0.1520(4) Uiso 0.0194(8) 8 1 d
O5 O 0.5662(2) 0.4194(7) -0.0996(4) Uiso 0.0175(7) 8 1 d
O6 O 0.5 0.8761(11) -0.25 Uiso 0.0322(14) 4 1 d
Li1 Li 0.6721(7) 1.2531(17) -0.1149(11) Uani 0.024(4) 8 1 d
Li2 Li 0.5210(10) 0.263(3) -0.2704(19) Uani 0.017(6) 8 0.5 d
loop_
_atom_site_aniso_label
_atom_site_aniso_type_symbol
_atom_site_aniso_U_11
_atom_site_aniso_U_22
_atom_site_aniso_U_33
_atom_site_aniso_U_12
_atom_site_aniso_U_13
_atom_site_aniso_U_23
Te1 Te 0.01112(19) 0.01272(18) 0.00942(18) -0.00360(12) 0.00315(14)
-0.00034(11)
Te2 Te 0.0093(2) 0.01303(18) 0.0293(2) -0.00017(12) 0.00802(17) -0.00332(13)
Ga1 Ga 0.0094(4) 0.0092(3) 0.0082(4) 0.0002(3) 0.0018(3) -0.0001(2)
Li1 Li 0.025(6) 0.019(4) 0.030(6) -0.003(4) 0.011(5) 0.001(4)
Li2 Li 0.003(9) 0.014(8) 0.025(11) 0.003(6) -0.006(8) -0.009(7)
loop_
_atom_type_symbol
_atom_type_scat_dispersion_real
_atom_type_scat_dispersion_imag
_atom_type_scat_source
Ga 0.2307 1.6083 'International Tables Vol C tables 4.2.6.8 and 6.1.1.1'
Li -0.0003 0.0001 'International Tables Vol C tables 4.2.6.8 and 6.1.1.1'
O 0.0106 0.0060 'International Tables Vol C tables 4.2.6.8 and 6.1.1.1'
Te -0.5308 1.6751 'International Tables Vol C tables 4.2.6.8 and 6.1.1.1'
loop_
_geom_angle_atom_site_label_1
_geom_angle_atom_site_label_2
_geom_angle_atom_site_label_3
_geom_angle_site_symmetry_3
_geom_angle
O2 Te1 O3 . 96.98(16)
O2 Te1 O4 . 96.92(18)
O3 Te1 O4 . 91.45(15)
O1 Te2 O5 . 100.35(18)
O5 Li2 O5 2_654 120.6(9)
loop_
_geom_bond_atom_site_label_1
_geom_bond_atom_site_label_2
_geom_bond_site_symmetry_2
_geom_bond_distance
Te1 O2 . 1.861(4)
Te1 O3 . 1.862(3)
Te1 O4 . 1.887(4)
Te2 O1 . 1.857(4)
Te2 O5 . 1.844(4)
Li1 O1 . 2.022(10)
Li2 O5 . 1.926(18)
Li2 O5 2_654 1.937(16)
loop_
_refln_index_h
_refln_index_k
_refln_index_l
_refln_F_squared_calc
_refln_F_squared_meas
_refln_F_squared_sigma
_refln_observed_status
2 0 0 4067.02 3046.36 185.16 o
4 0 0 21.71 123.44 66.13 <
6 0 0 41.11 141.08 66.13 <
8 0 0 73487.50 70648.10 1318.18 o
10 0 0 266756.00 251543.00 3936.90 o
12 0 0 46074.10 48834.30 996.35 o
14 0 0 5338.09 5643.03 295.38 o
16 0 0 8734.92 9632.84 410.00 o
18 0 0 106628.00 110956.00 2385.06 o
20 0 0 8383.92 8830.47 432.05 o
22 0 0 11089.40 13080.40 551.08 o
1 1 0 12303.30 13472.70 145.48 o
3 1 0 46247.90 48181.80 723.01 o
5 1 0 5923.59 6295.51 163.12 o
7 1 0 826.11 1653.23 70.54 o
9 1 0 4474.19 4399.80 127.85 o
11 1 0 631.22 740.65 74.95 o
13 1 0 8119.48 6493.90 202.80 o
15 1 0 18592.20 17907.80 387.96 o
17 1 0 3243.74 3637.11 202.80 o
19 1 0 954.22 947.85 154.30 o
21 1 0 7522.98 8958.32 326.24 o
23 1 0 98.19 154.30 105.81 <
0 2 0 258430.00 213942.00 2301.30 o
2 2 0 11796.70 12467.60 123.44 o
4 2 0 482.61 467.31 26.45 o
6 2 0 1816.52 1595.92 57.31 o
8 2 0 55450.30 55799.90 670.11 o
10 2 0 112785.00 112843.00 1410.76 o
12 2 0 5632.17 5475.51 180.75 o
14 2 0 8327.79 8424.87 251.29 o
16 2 0 23549.30 19609.50 467.31 o
18 2 0 33040.90 27628.80 608.39 o
20 2 0 14602.30 13922.40 414.41 o
22 2 0 4413.76 4130.88 290.97 o
1 3 0 6372.65 5964.86 79.36 o
3 3 0 84234.70 84023.90 714.20 o
5 3 0 7612.06 7745.95 110.22 o
7 3 0 29433.30 29780.20 348.28 o
9 3 0 27683.50 27999.10 392.37 o
11 3 0 18727.20 18361.90 357.10 o
13 3 0 6715.15 7194.87 233.66 o
15 3 0 36274.10 35767.10 692.15 o
17 3 0 648.03 1137.42 176.35 o
19 3 0 3945.05 3209.48 277.74 o
21 3 0 20127.50 18820.40 630.43 o
0 4 0 13778.10 12846.70 211.61 o
2 4 0 17071.70 17034.90 198.39 o
4 4 0 33075.40 32143.20 343.87 o
6 4 0 68284.80 67989.70 705.38 o
8 4 0 9530.00 9668.10 176.35 o
10 4 0 23355.90 23207.00 326.24 o
12 4 0 11029.40 11788.70 313.01 o
14 4 0 56.15 282.15 96.99 <
16 4 0 39814.90 40934.00 983.12 o
18 4 0 293.42 282.15 136.67 <
1 5 0 366.88 387.96 44.09 o
3 5 0 13903.40 14103.20 224.84 o
5 5 0 3004.34 3302.06 114.62 o
7 5 0 13884.20 15170.10 251.29 o
9 5 0 541.18 432.05 61.72 o
11 5 0 6948.10 6749.60 185.16 o
13 5 0 1026.13 1225.60 127.85 o
15 5 0 6097.95 6247.02 273.33 o
0 6 0 3974.69 4413.03 180.75 o
2 6 0 11056.10 11925.30 229.25 o
4 6 0 21716.30 21897.60 370.32 o
6 6 0 57244.70 57501.60 780.33 o
8 6 0 295.14 405.59 74.95 o
10 6 0 7359.56 7247.77 211.61 o
12 6 0 14665.20 14702.70 991.94 o
-23 1 1 27001.70 27968.30 714.20 o
-21 1 1 10650.20 10655.60 357.10 o
-19 1 1 6018.23 6101.53 290.97 o
-17 1 1 36794.00 37301.30 723.01 o
-15 1 1 116107.00 102117.00 1591.51 o
-13 1 1 10027.40 8812.83 242.47 o
-11 1 1 19873.30 18489.80 357.10 o
-9 1 1 42727.80 43654.20 603.98 o
-7 1 1 29.29 35.27 26.45 <
-5 1 1 407258.00 362741.00 4611.42 o
-3 1 1 24.94 35.27 13.23 <
-1 1 1 130867.00 129755.00 1124.20 o
1 1 1 19905.90 21033.50 238.07 o
3 1 1 144046.00 140273.00 2609.90 o
5 1 1 106601.00 101001.00 1529.79 o
7 1 1 8333.48 8834.88 149.89 o
9 1 1 149465.00 139264.00 1472.48 o
11 1 1 12733.80 11788.70 233.66 o
13 1 1 98056.60 84023.90 1150.65 o
15 1 1 13469.60 13441.90 326.24 o
17 1 1 1567.40 1684.09 145.48 o
19 1 1 29822.40 32707.60 670.11 o
21 1 1 45232.90 47617.50 903.77 o
-22 2 1 1158.88 1340.22 198.39 o
-20 2 1 16375.10 14530.80 427.64 o
-18 2 1 14321.50 10968.60 396.78 o
-16 2 1 3422.64 3143.35 193.98 o
-14 2 1 14922.00 15320.00 348.28 o
-12 2 1 68572.90 70000.10 952.26 o
-10 2 1 56.73 119.03 39.68 o
-8 2 1 45106.80 45942.20 515.81 o
-6 2 1 24393.80 23423.00 255.70 o
-4 2 1 72.27 180.75 22.04 o
-2 2 1 152631.00 152834.00 1203.55 o
0 2 1 28270.80 26985.20 242.47 o
2 2 1 428.80 533.44 22.04 o
4 2 1 20539.80 20231.20 233.66 o
6 2 1 59490.20 59996.90 700.97 o
8 2 1 2390.43 2336.57 92.58 o
10 2 1 41460.40 42534.40 648.07 o
12 2 1 6795.11 6621.75 185.16 o
14 2 1 67.63 92.58 70.54 <
16 2 1 23657.30 19371.50 467.31 o
18 2 1 7802.00 6767.23 330.65 o
20 2 1 219.22 189.57 123.44 <
22 2 1 4560.10 4448.30 295.38 o
-21 3 1 23924.40 21597.80 767.10 o
-19 3 1 6142.11 5171.31 304.20 o
-17 3 1 3996.25 4064.75 246.88 o
-15 3 1 14436.20 14702.70 410.00 o
-13 3 1 32362.70 31265.90 595.16 o
-11 3 1 50737.20 49835.00 745.06 o
-9 3 1 4426.94 4761.31 110.22 o
-7 3 1 779.07 991.94 52.90 o
-5 3 1 82085.20 80373.60 661.29 o
-3 3 1 36650.80 37028.00 317.42 o
-1 3 1 57111.60 56589.10 440.86 o
1 3 1 5758.53 5638.63 79.36 o
3 3 1 2659.47 2847.97 61.72 o
5 3 1 161961.00 160214.00 1507.75 o
7 3 1 19808.20 20579.40 268.93 o
9 3 1 19875.20 18873.30 352.69 o
11 3 1 22488.60 22347.30 458.50 o
13 3 1 6107.88 6626.16 251.29 o
15 3 1 46301.20 45699.80 934.63 o
17 3 1 3118.09 3068.40 255.70 o
19 3 1 389.26 70.54 132.26 <
-20 4 1 9090.08 9020.04 811.19 o
-18 4 1 5268.32 5100.77 339.46 o
-16 4 1 191.34 48.49 101.40 <
-14 4 1 3841.11 3897.22 185.16 o
-12 4 1 27903.60 28113.80 458.50 o
-10 4 1 697.55 652.48 57.31 o
-8 4 1 26935.30 26315.10 335.05 o
-6 4 1 20287.70 19265.70 251.29 o
-4 4 1 6932.22 7318.31 114.62 o
-2 4 1 24212.50 24190.10 242.47 o
0 4 1 12795.20 12749.70 158.71 o
2 4 1 301.10 374.73 35.27 o
4 4 1 16304.00 16356.00 224.84 o
6 4 1 44713.20 43217.70 480.54 o
8 4 1 625.27 643.66 61.72 o
10 4 1 18208.80 18172.30 343.87 o
12 4 1 11300.00 11806.30 330.65 o
14 4 1 796.81 626.02 110.22 o
16 4 1 17406.10 18555.90 506.99 o
18 4 1 4108.10 4183.78 268.93 o
-17 5 1 192.24 357.10 171.94 <
-15 5 1 377.46 163.12 83.76 <
-13 5 1 9820.77 10448.40 246.88 o
-11 5 1 80504.80 79183.20 934.63 o
-9 5 1 20887.60 20672.00 313.01 o
-7 5 1 1209.51 1243.23 79.36 o
-5 5 1 3180.50 3046.36 114.62 o
-3 5 1 46870.20 45915.80 476.13 o
-1 5 1 18589.60 18401.60 238.07 o
1 5 1 27210.80 28091.70 321.83 o
3 5 1 6352.73 6612.93 163.12 o
5 5 1 39974.20 40140.50 502.58 o
7 5 1 47348.30 46590.30 590.76 o
9 5 1 1106.79 1133.02 83.76 o
11 5 1 7669.42 7847.34 238.07 o
13 5 1 2104.97 2468.83 180.75 o
15 5 1 45404.30 44086.20 943.45 o
-12 6 1 1321.60 1415.17 154.30 o
-10 6 1 2424.50 2565.82 145.48 o
-8 6 1 793.13 855.27 92.58 o
-6 6 1 2509.12 2424.74 127.85 o
-4 6 1 2791.50 2534.96 123.44 o
-2 6 1 3233.44 3160.98 136.67 o
0 6 1 74.74 70.54 52.90 <
2 6 1 24.03 79.36 52.90 <
4 6 1 3809.35 3980.98 158.71 o
6 6 1 3007.19 3526.90 154.30 o
8 6 1 868.27 705.38 83.76 o
10 6 1 201.05 229.25 70.54 o
-24 0 2 33718.60 35485.00 1053.66 o
-22 0 2 35142.40 37918.50 1075.70 o
-20 0 2 46983.50 49984.90 1278.50 o
-18 0 2 4311.79 4338.08 326.24 o
-16 0 2 28625.60 33527.60 903.77 o
-14 0 2 136396.00 136447.00 2786.25 o
-12 0 2 2764.54 3152.16 233.66 o
-10 0 2 89095.10 81405.20 1490.11 o
-8 0 2 720.98 555.49 74.95 o
-6 0 2 449171.00 434977.00 8222.08 o
-4 0 2 93269.60 97183.60 1366.67 o
-2 0 2 43524.10 46400.70 603.98 o
0 0 2 33902.20 32575.30 674.52 o
2 0 2 4457.19 4368.94 154.30 o
4 0 2 442106.00 402675.00 8676.16 o
6 0 2 22655.90 21725.70 700.97 o
8 0 2 26960.80 29542.20 639.25 o
10 0 2 15649.90 18538.20 573.12 o
12 0 2 92518.80 103581.00 2292.48 o
14 0 2 60843.00 66292.40 1873.66 o
16 0 2 65362.70 70114.70 1591.51 o
18 0 2 241.40 193.98 127.85 <
20 0 2 6597.40 7177.23 387.96 o
22 0 2 37542.90 43583.60 2186.68 o
-23 1 2 1468.01 1842.80 189.57 o
-21 1 2 2275.34 2376.25 202.80 o
-19 1 2 204.77 255.70 88.17 <
-17 1 2 13455.90 13252.30 365.92 o
-15 1 2 6068.60 5687.12 211.61 o
-13 1 2 1170.50 947.85 92.58 o
-11 1 2 5555.65 5568.09 154.30 o
-9 1 2 18022.20 18820.40 255.70 o
-7 1 2 1801.79 1595.92 48.49 o
-5 1 2 38823.90 40912.00 396.78 o
-3 1 2 24687.80 26244.50 299.79 o
-1 1 2 10719.70 11136.20 123.44 o
1 1 2 44720.60 45391.20 603.98 o
3 1 2 9199.88 9857.68 176.35 o
5 1 2 25088.90 27412.80 432.05 o
7 1 2 22878.40 23718.40 335.05 o
9 1 2 3763.14 3769.37 105.81 o
11 1 2 3690.42 3848.73 132.26 o
13 1 2 7265.04 7027.34 216.02 o
15 1 2 1466.96 1529.79 123.44 o
17 1 2 4856.77 5387.33 251.29 o
19 1 2 4800.72 5263.89 290.97 o
21 1 2 13.08 -39.68 110.22 <
-22 2 2 18315.70 18533.80 511.40 o
-20 2 2 14553.60 13084.80 401.18 o
-18 2 2 663.16 573.12 114.62 o
-16 2 2 46053.20 42477.10 797.96 o
-14 2 2 40964.60 39659.90 656.88 o
-12 2 2 4373.27 4611.42 154.30 o
-10 2 2 50492.20 49764.50 608.39 o
-8 2 2 1058.27 1075.70 52.90 o
-6 2 2 198535.00 191630.00 1543.02 o
-4 2 2 12018.70 12300.10 136.67 o
-2 2 2 8409.18 9350.68 110.21 o
0 2 2 41451.70 41132.40 374.73 o
2 2 2 10242.90 10757.00 149.89 o
4 2 2 177524.00 176265.00 1816.35 o
6 2 2 7837.07 8464.55 185.16 o
8 2 2 6288.27 6798.09 167.53 o
10 2 2 27014.30 27783.10 467.31 o
12 2 2 24719.60 24688.30 493.77 o
14 2 2 39346.90 36463.70 709.79 o
16 2 2 23530.70 22104.80 559.90 o
18 2 2 349.31 313.01 123.44 <
20 2 2 18412.90 17749.10 520.22 o
-21 3 2 11334.20 10690.90 445.27 o
-19 3 2 1129.78 903.77 149.89 o
-17 3 2 33899.70 32090.30 718.60 o
-15 3 2 4475.37 4095.61 233.66 o
-13 3 2 2650.36 2473.24 136.67 o
-11 3 2 36010.60 36203.60 480.54 o
-9 3 2 31313.10 31662.70 374.73 o
-7 3 2 16544.90 16214.90 198.39 o
-5 3 2 38294.30 37923.00 335.05 o
-3 3 2 41084.80 41767.30 352.69 o
-1 3 2 14286.10 14861.50 163.12 o
1 3 2 112415.00 111362.00 921.40 o
3 3 2 5133.56 5268.30 96.99 o
5 3 2 11628.30 12308.90 171.94 o
7 3 2 40089.50 39086.80 559.90 o
9 3 2 14591.20 15443.40 317.42 o
11 3 2 20402.10 20482.50 401.18 o
13 3 2 19308.40 18683.70 427.64 o
15 3 2 7234.51 7137.56 295.38 o
17 3 2 5800.45 5687.12 339.46 o
19 3 2 22687.80 21161.40 568.71 o
-20 4 2 631.87 546.67 163.12 o
-18 4 2 12096.80 11643.20 405.59 o
-16 4 2 51907.20 51647.00 890.54 o
-14 4 2 23.25 136.67 66.13 <
-12 4 2 20208.40 20623.50 335.05 o
-10 4 2 7313.90 7437.34 158.71 o
-8 4 2 34415.70 33126.40 414.41 o
-6 4 2 32580.80 32359.30 374.73 o
-4 4 2 38.65 171.94 30.86 o
-2 4 2 23919.40 22858.70 251.29 o
0 4 2 68631.20 68342.40 617.21 o
2 4 2 37392.70 38646.00 427.64 o
4 4 2 12433.90 12608.70 202.80 o
6 4 2 393.89 542.26 52.90 o
8 4 2 649.72 723.01 70.54 o
10 4 2 69447.80 65648.80 1102.16 o
12 4 2 1488.53 1318.18 132.26 o
14 4 2 4742.83 4986.15 251.29 o
16 4 2 472.91 471.72 114.62 o
18 4 2 5217.96 4942.06 674.52 o
-17 5 2 8959.85 8579.18 339.46 o
-15 5 2 865.35 987.53 110.22 o
-13 5 2 4.23 79.36 57.31 <
-11 5 2 6511.10 6242.61 163.12 o
-9 5 2 3067.47 3063.99 123.44 o
-7 5 2 11854.70 11577.00 216.02 o
-5 5 2 165.15 167.53 44.09 o
-3 5 2 3030.99 3460.77 96.99 o
-1 5 2 19.95 22.04 30.86 <
1 5 2 16744.80 16876.20 264.52 o
3 5 2 1047.92 1194.74 74.95 o
5 5 2 811.64 890.54 70.54 o
7 5 2 3922.91 3804.64 141.08 o
9 5 2 6495.84 6000.13 176.35 o
11 5 2 5535.71 5797.34 224.84 o
13 5 2 577.03 612.80 123.44 o
15 5 2 2833.25 3187.43 537.85 o
-12 6 2 19446.10 20376.60 498.17 o
-10 6 2 848.62 811.19 92.58 o
-8 6 2 38604.80 38831.10 555.49 o
-6 6 2 5801.84 5726.80 193.98 o
-4 6 2 357.52 313.01 61.72 o
-2 6 2 36348.70 37737.80 498.17 o
0 6 2 45092.30 46907.70 643.66 o
2 6 2 24807.10 24617.70 401.18 o
4 6 2 6.20 74.95 57.31 <
6 6 2 1836.14 1807.53 119.03 o
8 6 2 2768.02 3134.53 149.89 o
10 6 2 63312.30 63700.20 939.04 o
-23 1 3 16574.20 16796.80 467.31 o
-21 1 3 37989.70 41158.90 815.59 o
-19 1 3 49496.60 50315.60 842.05 o
-17 1 3 1692.36 1789.90 145.48 o
-15 1 3 29.80 39.68 61.72 <
-13 1 3 11650.30 12648.30 290.97 o
-11 1 3 356706.00 316711.00 3200.66 o
-9 1 3 20206.80 21209.90 264.52 o
-7 1 3 1196.56 1595.92 44.09 o
-5 1 3 8813.75 9584.34 114.62 o
-3 1 3 19810.70 20733.70 229.25 o
-1 1 3 376183.00 358403.00 3081.63 o
1 1 3 12812.20 12996.60 202.80 o
3 1 3 13107.50 12066.40 202.80 o
5 1 3 53.64 101.40 30.86 o
7 1 3 146542.00 144876.00 1525.38 o
9 1 3 70453.60 65265.20 771.51 o
11 1 3 18552.70 16951.10 282.15 o
13 1 3 20143.50 20103.30 410.00 o
15 1 3 28290.70 28656.00 590.76 o
17 1 3 36838.40 38319.70 797.96 o
19 1 3 1147.15 1296.13 185.16 o
21 1 3 961.83 1000.76 207.21 o
-24 2 3 51.17 119.03 110.22 <
-22 2 3 6582.23 6542.39 335.05 o
-20 2 3 8558.17 7053.79 357.10 o
-18 2 3 2348.19 2482.05 193.98 o
-16 2 3 14210.50 14460.30 348.28 o
-14 2 3 21912.80 21849.10 423.23 o
-12 2 3 103.95 136.67 44.09 o
-10 2 3 16851.60 16871.80 238.07 o
-8 2 3 91387.50 88348.80 775.92 o
-6 2 3 0.96 26.45 17.63 <
-4 2 3 16549.60 16051.80 176.35 o
-2 2 3 17013.30 16351.60 171.94 o
0 2 3 7462.41 7882.61 92.58 o
2 2 3 44316.00 43460.20 476.13 o
4 2 3 70241.30 72530.60 842.05 o
6 2 3 279.34 396.78 52.90 o
8 2 3 22924.30 22113.60 387.96 o
10 2 3 59187.70 61641.30 912.59 o
12 2 3 156.58 154.30 61.72 <
14 2 3 20349.80 20619.10 524.63 o
16 2 3 4081.82 4245.50 260.11 o
18 2 3 104.67 141.08 127.85 <
20 2 3 14081.90 14323.60 454.09 o
-21 3 3 11463.90 10889.30 445.27 o
-19 3 3 15097.00 13305.20 436.45 o
-17 3 3 31380.10 30803.00 696.56 o
-15 3 3 295.61 317.42 79.36 o
-13 3 3 1387.56 1454.84 88.17 o
-11 3 3 45660.70 44240.50 502.58 o
-9 3 3 21516.10 22038.70 273.33 o
-7 3 3 48440.80 47427.90 432.05 o
-5 3 3 15273.20 15029.00 171.94 o
-3 3 3 18363.60 19032.00 193.98 o
-1 3 3 130485.00 130575.00 1071.29 o
1 3 3 5811.03 6299.92 110.22 o
3 3 3 35421.00 35048.50 401.18 o
5 3 3 51299.60 50452.30 586.35 o
7 3 3 12470.30 12934.90 277.74 o
9 3 3 54219.50 53097.40 815.59 o
11 3 3 8.59 52.90 57.31 <
13 3 3 1022.37 1049.25 119.03 o
15 3 3 35388.80 35502.60 780.33 o
17 3 3 9142.28 9637.24 379.14 o
19 3 3 9553.82 10413.20 427.64 o
-20 4 3 3236.29 2989.04 251.29 o
-18 4 3 3767.74 4408.62 282.15 o
-16 4 3 13622.60 13419.80 361.51 o
-14 4 3 23453.90 23850.60 387.96 o
-12 4 3 48.26 88.17 44.09 <
-10 4 3 4744.63 4955.29 136.67 o
-8 4 3 28398.50 27827.20 361.51 o
-6 4 3 401.37 383.55 35.27 o
-4 4 3 44467.90 43998.00 432.05 o
-2 4 3 16130.60 16647.00 220.43 o
0 4 3 4190.04 3985.39 83.76 o
2 4 3 21015.20 19984.30 273.33 o
4 4 3 24026.00 24432.60 321.83 o
6 4 3 483.43 555.49 57.31 o
8 4 3 6496.17 6520.35 198.39 o
10 4 3 16721.30 17524.30 418.82 o
12 4 3 962.56 930.22 119.03 o
14 4 3 16434.50 17264.20 489.36 o
16 4 3 6176.26 6489.49 343.87 o
-17 5 3 49699.70 50350.90 753.87 o
-15 5 3 4178.70 4514.43 171.94 o
-13 5 3 11727.70 11894.50 238.07 o
-11 5 3 2390.41 2420.33 114.62 o
-9 5 3 8506.03 8517.45 189.57 o
-7 5 3 52496.40 51382.50 678.93 o
-5 5 3 44616.30 44394.80 511.40 o
-3 5 3 7172.11 7058.20 136.67 o
-1 5 3 5533.27 6022.18 145.48 o
1 5 3 36784.70 35842.10 480.54 o
3 5 3 1509.67 1534.20 88.17 o
5 5 3 47528.70 45849.70 586.35 o
7 5 3 777.25 934.63 83.76 o
9 5 3 13223.90 12979.00 295.38 o
11 5 3 15607.90 15465.40 467.31 o
13 5 3 6217.02 6445.40 330.65 o
-12 6 3 2979.72 3183.02 220.43 o
-10 6 3 1458.11 1476.89 119.03 o
-8 6 3 2078.85 1917.75 132.26 o
-6 6 3 42.95 101.40 61.72 <
-4 6 3 575.94 546.67 74.95 o
-2 6 3 3861.22 4144.10 158.71 o
0 6 3 1780.86 1992.70 114.62 o
2 6 3 1542.89 1406.35 101.40 o
4 6 3 27.62 141.08 61.72 <
6 6 3 1761.84 1490.11 110.22 o
8 6 3 3324.46 3522.49 163.12 o
-24 0 4 7302.24 8041.32 542.26 o
-22 0 4 3887.81 5374.11 489.36 o
-20 0 4 35654.10 36873.70 1027.21 o
-18 0 4 13874.60 14839.40 458.50 o
-16 0 4 121488.00 116934.00 2089.69 o
-14 0 4 2695.06 2023.56 167.53 o
-12 0 4 37499.60 37261.70 648.07 o
-10 0 4 130388.00 120377.00 1754.63 o
-8 0 4 59011.90 65437.20 842.05 o
-6 0 4 100075.00 96359.20 1265.27 o
-4 0 4 11439.20 11127.40 207.21 o
-2 0 4 279248.00 271716.00 3116.89 o
0 0 4 16756.00 17885.80 374.73 o
2 0 4 239965.00 240406.00 5581.31 o
4 0 4 76404.70 76471.90 1648.82 o
6 0 4 172.53 176.35 61.72 <
8 0 4 204994.00 204895.00 3183.02 o
10 0 4 73595.50 76736.40 1472.48 o
12 0 4 32532.20 33051.40 956.67 o
-25 1 4 3803.37 3628.29 295.38 o
-23 1 4 8295.12 7966.38 321.83 o
-21 1 4 102.02 313.01 105.81 <
-19 1 4 5973.64 5576.90 238.07 o
-17 1 4 355.49 608.39 92.58 o
-15 1 4 2389.96 2676.03 154.30 o
-13 1 4 26182.30 25927.10 405.59 o
-11 1 4 3795.38 4311.63 114.62 o
-9 1 4 4457.03 4748.08 96.99 o
-7 1 4 15224.30 14998.10 163.12 o
-5 1 4 16487.20 17515.40 180.75 o
-3 1 4 226.07 445.27 26.45 o
-1 1 4 15220.00 15513.90 171.94 o
1 1 4 1680.80 2398.29 74.95 o
3 1 4 13167.50 13411.00 233.66 o
5 1 4 25102.40 25362.80 401.18 o
7 1 4 8258.88 8424.87 167.53 o
9 1 4 49.45 26.45 44.09 <
11 1 4 7011.72 7283.04 207.21 o
13 1 4 2601.46 2579.04 149.89 o
15 1 4 1171.94 1212.37 132.26 o
17 1 4 5526.32 5911.96 330.65 o
19 1 4 524.82 568.71 123.44 o
-24 2 4 11271.00 11175.90 392.37 o
-22 2 4 13309.30 12053.20 445.27 o
-20 2 4 11912.60 11603.50 370.32 o
-18 2 4 10448.20 9919.40 326.24 o
-16 2 4 79716.70 74849.60 1128.61 o
-14 2 4 4969.77 5277.12 185.16 o
-12 2 4 51920.20 51118.00 599.57 o
-10 2 4 6403.79 6974.44 127.85 o
-8 2 4 1529.24 1789.90 52.90 o
-6 2 4 166675.00 163873.00 1393.12 o
-4 2 4 194.92 339.46 26.45 o
-2 2 4 113193.00 112548.00 965.49 o
0 2 4 2363.32 2609.90 66.13 o
2 2 4 45873.30 46815.10 520.22 o
4 2 4 55192.20 55301.70 723.01 o
6 2 4 3904.56 4117.65 136.67 o
8 2 4 45243.90 45267.70 696.56 o
10 2 4 26645.70 26729.50 511.40 o
12 2 4 18453.90 17696.20 396.78 o
14 2 4 6938.24 7331.54 282.15 o
16 2 4 7698.91 8274.98 317.42 o
18 2 4 3061.06 2949.37 216.02 o
-21 3 4 4565.99 4329.27 290.97 o
-19 3 4 20776.30 20226.80 559.90 o
-17 3 4 10470.20 10228.00 308.60 o
-15 3 4 910.40 916.99 88.17 o
-13 3 4 50466.80 48159.80 551.08 o
-11 3 4 4694.45 4796.58 114.62 o
-9 3 4 3183.73 3531.30 92.58 o
-7 3 4 35680.10 36049.30 348.28 o
-5 3 4 34245.90 34841.30 330.65 o
-3 3 4 22232.80 21813.90 233.66 o
-1 3 4 61138.70 60517.10 546.67 o
1 3 4 14720.90 14557.30 207.21 o
3 3 4 3042.83 2936.14 88.17 o
5 3 4 54612.60 55244.40 749.47 o
7 3 4 2507.12 2534.96 132.26 o
9 3 4 5359.40 5524.00 198.39 o
11 3 4 22245.80 22581.00 533.44 o
13 3 4 13871.40 14067.90 410.00 o
15 3 4 8945.04 8244.12 339.46 o
17 3 4 15989.70 16558.80 520.22 o
-20 4 4 35.50 70.54 101.40 <
-18 4 4 1842.48 2133.77 171.94 o
-16 4 4 3723.94 3809.05 167.53 o
-14 4 4 25066.40 24996.90 383.55 o
-12 4 4 36072.40 35881.80 471.72 o
-10 4 4 6921.31 7309.49 171.94 o
-8 4 4 5769.35 6000.13 132.26 o
-6 4 4 47984.80 48353.80 489.36 o
-4 4 4 54252.50 54609.60 542.26 o
-2 4 4 7226.91 7212.50 123.44 o
0 4 4 14180.30 13411.00 211.61 o
2 4 4 4424.98 4607.01 119.03 o
4 4 4 64029.80 60808.10 674.52 o
6 4 4 15807.40 14508.80 304.20 o
8 4 4 48.11 154.30 74.95 <
10 4 4 4593.50 4911.20 251.29 o
12 4 4 451.52 330.65 101.40 o
14 4 4 45475.60 46643.20 1049.25 o
-17 5 4 1239.80 1172.69 114.62 o
-15 5 4 277.67 317.42 70.54 o
-13 5 4 11146.60 10832.00 255.70 o
-11 5 4 0.63 57.31 52.90 <
-9 5 4 116.78 52.90 57.31 <
-7 5 4 2499.42 2354.20 114.62 o
-5 5 4 11052.10 11277.30 193.98 o
-3 5 4 11317.40 11876.80 185.16 o
-1 5 4 3345.17 3280.01 123.44 o
1 5 4 3734.57 3839.91 141.08 o
3 5 4 328.42 273.33 57.31 o
5 5 4 16225.30 16100.30 290.97 o
7 5 4 22.18 255.70 66.13 o
9 5 4 1239.50 1410.76 141.08 o
11 5 4 1329.82 965.49 149.89 o
-12 6 4 24215.10 24079.90 775.92 o
-10 6 4 8003.88 8235.30 242.47 o
-8 6 4 4526.29 4871.53 193.98 o
-6 6 4 5573.71 5568.09 171.94 o
-4 6 4 44932.00 46488.90 652.48 o
-2 6 4 980.07 1181.51 96.99 o
0 6 4 7664.99 7864.98 207.21 o
2 6 4 7637.48 7732.72 216.02 o
4 6 4 44908.50 44699.00 740.65 o
6 6 4 9572.42 9399.18 268.93 o
-25 1 5 38650.30 39020.70 824.41 o
-23 1 5 8607.57 10408.80 361.51 o
-21 1 5 19679.40 19226.00 493.77 o
-19 1 5 733.41 1040.43 141.08 o
-17 1 5 80635.00 77344.80 1146.24 o
-15 1 5 54298.90 53035.70 745.06 o
-13 1 5 2914.72 3284.42 114.62 o
-11 1 5 19926.20 20742.60 290.97 o
-9 1 5 1000.42 991.94 39.68 o
-7 1 5 279426.00 268578.00 2186.68 o
-5 1 5 12.21 79.36 22.04 o
-3 1 5 12470.30 12987.80 141.08 o
-1 1 5 13496.30 13913.60 189.57 o
1 1 5 42343.80 44006.90 520.22 o
3 1 5 185333.00 172756.00 2429.15 o
5 1 5 67645.20 64286.50 974.30 o
7 1 5 10.22 35.27 61.72 <
9 1 5 3810.79 3694.42 180.75 o
11 1 5 54953.90 56298.10 1000.76 o
13 1 5 15916.70 16148.80 392.37 o
15 1 5 34539.20 37526.20 952.26 o
17 1 5 2297.19 2080.87 189.57 o
19 1 5 17780.80 17757.90 749.47 o
-24 2 5 2584.53 2363.02 224.84 o
-22 2 5 14432.80 14023.80 427.64 o
-20 2 5 2886.12 2980.23 216.02 o
-18 2 5 8311.81 8270.57 251.29 o
-16 2 5 15010.60 16073.80 387.96 o
-14 2 5 6439.16 5850.24 171.94 o
-12 2 5 42931.00 40876.70 524.63 o
-10 2 5 62928.30 63290.20 643.66 o
-8 2 5 474.12 533.44 35.27 o
-6 2 5 25517.70 25345.20 238.07 o
-4 2 5 43668.80 43645.30 401.18 o
-2 2 5 4.00 52.90 17.63 o
0 2 5 48047.30 48746.10 537.85 o
2 2 5 14712.40 13856.30 216.02 o
4 2 5 2839.53 3302.06 141.08 o
6 2 5 40671.50 39779.00 749.47 o
8 2 5 29945.70 28470.90 590.76 o
10 2 5 1601.34 1701.73 127.85 o
12 2 5 9365.02 9879.72 348.28 o
14 2 5 9305.19 9042.08 343.87 o
16 2 5 17.75 -8.82 96.99 <
18 2 5 10595.20 11550.60 414.41 o
-21 3 5 3476.44 2949.37 242.47 o
-19 3 5 1011.34 969.90 132.26 o
-17 3 5 40355.80 40682.80 612.80 o
-15 3 5 6807.81 7031.75 180.75 o
-13 3 5 13785.30 12952.50 238.07 o
-11 3 5 18865.50 18498.60 277.74 o
-9 3 5 13093.00 13053.90 180.75 o
-7 3 5 65260.10 63325.40 573.12 o
-5 3 5 10067.60 9844.45 136.67 o
-3 3 5 1048.10 1066.89 48.49 o
-1 3 5 33547.70 33408.50 392.37 o
1 3 5 13916.40 14156.10 233.66 o
3 3 5 42556.10 41595.30 533.44 o
5 3 5 194.02 149.89 57.31 <
7 3 5 1867.77 2160.22 141.08 o
9 3 5 47991.90 48221.50 943.45 o
11 3 5 6685.87 7578.42 304.20 o
13 3 5 11896.80 12132.50 392.37 o
15 3 5 2166.25 1551.83 171.94 o
-20 4 5 568.91 427.64 119.03 o
-18 4 5 17531.50 17453.70 396.78 o
-16 4 5 6470.14 6405.73 193.98 o
-14 4 5 4818.46 4858.30 171.94 o
-12 4 5 5651.60 5876.69 167.53 o
-10 4 5 24404.70 23709.60 374.73 o
-8 4 5 3146.24 3421.09 88.17 o
-6 4 5 10254.40 10510.20 167.53 o
-4 4 5 24870.90 24251.80 282.15 o
-2 4 5 3162.32 3200.66 96.99 o
0 4 5 25484.70 25173.20 348.28 o
2 4 5 12024.90 11211.10 202.80 o
4 4 5 2724.72 2755.39 123.44 o
6 4 5 10997.40 10272.10 286.56 o
8 4 5 20612.70 21386.20 608.39 o
10 4 5 787.14 806.78 127.85 o
12 4 5 6959.81 7212.50 308.60 o
14 4 5 10737.00 10964.20 405.59 o
-17 5 5 10351.50 9628.43 304.20 o
-15 5 5 94.00 207.21 74.95 <
-13 5 5 33088.00 33386.50 559.90 o
-11 5 5 19551.80 19389.10 374.73 o
-9 5 5 34044.20 33593.70 546.67 o
-7 5 5 2983.89 3138.94 119.03 o
-5 5 5 647.99 793.55 57.31 o
-3 5 5 20489.90 21046.80 348.28 o
-1 5 5 78427.60 75365.40 1005.17 o
1 5 5 1346.51 1318.18 92.58 o
3 5 5 1307.10 1304.95 96.99 o
5 5 5 7263.49 6604.11 193.98 o
7 5 5 530.79 590.76 92.58 o
9 5 5 60091.20 62016.10 1269.68 o
11 5 5 1694.69 2041.19 202.80 o
-10 6 5 528.15 357.10 83.76 o
-8 6 5 2360.13 2393.88 145.48 o
-6 6 5 4488.45 4902.39 224.84 o
-4 6 5 192.30 176.35 66.13 <
-2 6 5 220.40 145.48 66.13 <
0 6 5 1430.97 1318.18 110.22 o
2 6 5 2327.24 2252.80 136.67 o
4 6 5 1169.61 1097.75 114.62 o
-24 0 6 19820.80 23581.70 855.27 o
-22 0 6 75609.40 79628.50 1953.02 o
-20 0 6 21672.70 21249.60 872.91 o
-18 0 6 42.31 -44.09 114.62 <
-16 0 6 11184.50 10638.00 326.24 o
-14 0 6 4251.39 3734.10 185.16 o
-12 0 6 227341.00 219003.00 3478.40 o
-10 0 6 311.79 246.88 39.68 o
-8 0 6 14901.70 16550.00 246.88 o
-6 0 6 17293.40 18472.10 264.52 o
-4 0 6 87354.00 91606.70 978.71 o
-2 0 6 208207.00 211592.00 3222.70 o
0 0 6 19847.10 21381.80 476.13 o
2 0 6 72652.30 72627.60 1626.78 o
4 0 6 7816.40 7904.66 330.65 o
6 0 6 75346.20 78200.10 1759.04 o
8 0 6 15673.20 15888.70 515.81 o
10 0 6 3572.06 3548.94 273.33 o
12 0 6 33375.40 33170.50 1300.54 o
14 0 6 72316.00 75881.20 2742.16 o
-25 1 6 2368.50 1829.58 432.05 o
-23 1 6 86.66 136.67 101.40 <
-21 1 6 1456.33 1692.91 171.94 o
-19 1 6 6449.68 7005.30 286.56 o
-17 1 6 925.32 687.74 88.17 o
-15 1 6 9049.37 8918.64 189.57 o
-13 1 6 2720.58 2825.93 110.21 o
-11 1 6 57.49 110.22 30.86 o
-9 1 6 11305.70 12383.80 145.48 o
-7 1 6 20338.80 20028.40 202.80 o
-5 1 6 4465.43 4258.73 74.95 o
-3 1 6 19900.30 20024.00 229.25 o
-1 1 6 17738.50 18154.70 224.84 o
1 1 6 2905.19 3055.17 105.81 o
3 1 6 19592.40 18992.30 374.73 o
5 1 6 1819.99 1895.71 132.26 o
7 1 6 3978.10 3910.45 180.75 o
9 1 6 8670.09 8953.91 273.33 o
11 1 6 2614.57 2984.64 193.98 o
13 1 6 3357.38 4267.54 273.33 o
15 1 6 6694.28 7221.32 321.83 o
17 1 6 1245.87 1534.20 193.98 o
-24 2 6 4054.79 4135.29 290.97 o
-22 2 6 36513.10 35163.20 912.58 o
-20 2 6 17469.50 17546.30 498.17 o
-18 2 6 7064.73 7772.40 304.20 o
-16 2 6 687.51 652.48 79.36 o
-14 2 6 957.98 956.67 74.95 o
-12 2 6 125592.00 118865.00 1234.41 o
-10 2 6 2281.78 2389.47 66.13 o
-8 2 6 17993.40 18533.80 193.98 o
-6 2 6 568.59 581.94 35.27 o
-4 2 6 41205.20 41348.50 405.59 o
-2 2 6 104703.00 103563.00 1036.03 o
0 2 6 3045.73 2931.73 92.58 o
2 2 6 20915.10 19825.60 352.69 o
4 2 6 16503.70 15610.90 343.87 o
6 2 6 39952.90 40224.30 775.92 o
8 2 6 14284.50 14905.50 387.96 o
10 2 6 721.48 665.70 123.44 o
12 2 6 5069.92 5325.61 282.15 o
14 2 6 29348.40 29260.00 736.24 o
16 2 6 8298.47 8111.86 348.28 o
-21 3 6 9430.07 8804.01 357.10 o
-19 3 6 19344.40 18882.10 405.59 o
-17 3 6 4390.96 4496.79 189.57 o
-15 3 6 23005.80 22651.50 361.51 o
-13 3 6 8197.79 8129.50 185.16 o
-11 3 6 150.20 193.98 44.09 o
-9 3 6 46159.70 46502.10 502.58 o
-7 3 6 22024.60 21954.90 242.47 o
-5 3 6 6058.31 6335.19 114.62 o
-3 3 6 34167.30 34290.20 401.18 o
-1 3 6 34809.00 33981.60 423.23 o
1 3 6 16737.00 15990.10 242.47 o
3 3 6 41333.80 39752.50 630.43 o
5 3 6 5737.14 5352.07 202.80 o
7 3 6 2008.39 2363.02 176.35 o
9 3 6 32836.90 32227.00 802.37 o
11 3 6 6401.23 6158.84 313.01 o
13 3 6 5496.70 5620.99 304.20 o
15 3 6 10747.10 10038.40 405.59 o
-20 4 6 5136.97 5744.43 273.33 o
-18 4 6 39181.80 40568.10 634.84 o
-16 4 6 6659.08 6502.72 207.21 o
-14 4 6 5513.36 5008.19 185.16 o
-12 4 6 14881.60 14455.90 295.38 o
-10 4 6 19030.70 18278.10 286.56 o
-8 4 6 22231.10 22506.00 277.74 o
-6 4 6 34450.10 34823.70 387.96 o
-4 4 6 159.14 198.39 44.09 o
-2 4 6 24950.90 24441.40 361.51 o
0 4 6 16826.10 15469.80 255.70 o
2 4 6 498.57 440.86 57.31 o
4 4 6 32519.90 33258.60 564.30 o
6 4 6 86.56 229.25 74.95 o
8 4 6 31367.10 33532.00 1018.39 o
10 4 6 550.44 656.88 132.26 o
12 4 6 3481.96 3077.22 255.70 o
-15 5 6 4011.48 3703.24 189.57 o
-13 5 6 55.69 149.89 70.54 <
-11 5 6 85.00 158.71 66.13 <
-9 5 6 12839.80 12714.50 268.93 o
-7 5 6 18.18 52.90 39.68 <
-5 5 6 1957.41 1979.47 105.81 o
-3 5 6 383.16 564.30 74.95 o
-1 5 6 6123.46 5845.83 176.35 o
1 5 6 3251.14 3121.30 145.48 o
3 5 6 3522.78 3839.91 154.30 o
5 5 6 111.72 141.08 66.13 <
7 5 6 1412.68 1648.82 154.30 o
9 5 6 7747.65 8486.59 357.10 o
-10 6 6 16873.90 17973.90 480.54 o
-8 6 6 12266.70 12657.10 454.09 o
-6 6 6 30748.40 31653.90 833.23 o
-4 6 6 1861.40 1917.75 141.08 o
-2 6 6 7088.66 7675.41 216.02 o
0 6 6 27242.00 29224.70 952.26 o
2 6 6 392.33 379.14 171.94 <
-23 1 7 9882.86 10444.00 401.18 o
-21 1 7 33010.80 32610.60 753.87 o
-19 1 7 12.49 30.86 74.95 <
-17 1 7 66041.10 67504.80 903.77 o
-15 1 7 3290.99 3116.89 123.44 o
-13 1 7 80460.40 81043.70 947.85 o
-11 1 7 21412.10 22484.00 255.70 o
-9 1 7 53088.50 50752.00 467.31 o
-7 1 7 72851.80 72270.50 617.21 o
-5 1 7 3623.40 3676.79 74.95 o
-3 1 7 170904.00 165976.00 1684.09 o
-1 1 7 17590.90 17087.80 224.84 o
1 1 7 44188.70 43200.10 643.66 o
3 1 7 4171.75 3791.41 185.16 o
5 1 7 6886.54 6833.36 282.15 o
7 1 7 58966.80 58965.30 1313.77 o
9 1 7 62504.70 66746.50 1353.45 o
11 1 7 4757.90 5400.56 308.60 o
13 1 7 1497.13 1767.86 193.98 o
15 1 7 12605.40 14125.20 480.54 o
-22 2 7 29.06 26.45 105.81 <
-20 2 7 4969.39 5704.75 299.79 o
-18 2 7 18742.00 17996.00 370.32 o
-16 2 7 3719.25 4254.32 163.12 o
-14 2 7 10729.40 11594.70 207.21 o
-12 2 7 17927.30 17273.00 238.07 o
-10 2 7 1050.86 1115.38 52.90 o
-8 2 7 21336.80 21492.00 233.66 o
-6 2 7 37568.70 38134.60 370.32 o
-4 2 7 61.12 83.76 35.27 <
-2 2 7 7059.11 7675.41 163.12 o
0 2 7 41985.90 40775.30 515.81 o
2 2 7 7003.38 6282.28 202.80 o
4 2 7 17891.30 17273.00 432.05 o
6 2 7 16170.60 17061.40 432.05 o
8 2 7 31.74 17.63 83.76 <
10 2 7 17635.80 17546.30 520.22 o
12 2 7 23487.10 25503.90 793.55 o
14 2 7 280.85 489.36 119.03 o
-21 3 7 908.89 890.54 119.03 o
-19 3 7 4838.89 4831.85 193.98 o
-17 3 7 20135.10 19371.50 357.10 o
-15 3 7 11201.70 10942.20 238.07 o
-13 3 7 23263.20 22210.60 352.69 o
-11 3 7 200.57 163.12 39.68 o
-9 3 7 162.86 88.17 30.86 <
-7 3 7 27012.30 28448.80 326.24 o
-5 3 7 17908.70 18031.30 242.47 o
-3 3 7 19367.20 19239.20 286.56 o
-1 3 7 1935.21 1860.44 92.58 o
1 3 7 3361.69 3751.74 136.67 o
3 3 7 34758.10 35520.30 643.66 o
5 3 7 9673.99 10642.40 392.37 o
7 3 7 7943.29 7521.11 339.46 o
9 3 7 9731.10 9183.16 396.78 o
11 3 7 535.08 639.25 132.26 o
13 3 7 20978.90 20623.50 634.84 o
-18 4 7 6827.96 7221.32 251.29 o
-16 4 7 3424.16 3460.77 176.35 o
-14 4 7 24146.30 23348.10 440.86 o
-12 4 7 13497.90 12815.90 299.79 o
-10 4 7 1794.48 2120.55 96.99 o
-8 4 7 5650.78 5647.44 119.03 o
-6 4 7 32090.90 32222.60 449.68 o
-4 4 7 400.62 423.23 70.54 o
-2 4 7 8907.86 8583.58 202.80 o
0 4 7 9845.83 9994.34 211.61 o
2 4 7 1336.73 1357.86 96.99 o
4 4 7 25655.10 25808.10 599.57 o
6 4 7 14477.20 14760.10 502.58 o
8 4 7 695.37 643.66 136.67 o
10 4 7 2884.09 3337.33 268.93 o
-15 5 7 32001.30 32451.90 859.68 o
-13 5 7 9017.01 9042.08 260.11 o
-11 5 7 10221.10 10430.80 273.33 o
-9 5 7 15398.80 15496.30 308.60 o
-7 5 7 32735.30 32368.10 511.40 o
-5 5 7 20238.70 20866.00 379.14 o
-3 5 7 170.09 193.98 61.72 o
-1 5 7 3116.85 3169.80 149.89 o
1 5 7 3614.10 3465.18 158.71 o
3 5 7 68024.10 67751.70 886.13 o
5 5 7 475.57 458.50 96.99 o
7 5 7 1361.46 1221.19 158.71 o
-6 6 7 1752.33 1648.82 154.30 o
-4 6 7 1928.19 2005.92 171.94 o
-2 6 7 64.49 163.12 110.22 <
-24 0 8 447.19 524.63 193.98 <
-22 0 8 7741.15 8446.92 476.13 o
-20 0 8 11269.10 9989.93 383.55 o
-18 0 8 106469.00 113156.00 2041.19 o
-16 0 8 6527.28 7741.54 295.38 o
-14 0 8 1610.74 1454.84 123.44 o
-12 0 8 727.55 855.27 66.13 o
-10 0 8 2381.70 2517.32 96.99 o
-8 0 8 212109.00 209493.00 2380.65 o
-6 0 8 20244.90 20848.40 299.79 o
-4 0 8 87.79 216.02 48.49 o
-2 0 8 10783.50 10012.00 251.29 o
0 0 8 73952.20 75056.80 1476.89 o
2 0 8 66137.30 65838.30 1737.00 o
4 0 8 42508.30 43129.50 1212.37 o
6 0 8 4025.34 3844.32 379.14 o
8 0 8 6689.67 6846.59 498.17 o
10 0 8 63111.80 67041.90 2614.31 o
12 0 8 143.01 268.93 145.48 <
14 0 8 12633.20 12022.30 630.43 o
-23 1 8 7455.84 7406.48 423.23 o
-21 1 8 5763.80 5978.09 264.52 o
-19 1 8 1182.54 1256.46 114.62 o
-17 1 8 6220.93 6820.14 207.21 o
-15 1 8 6488.79 6846.59 167.53 o
-13 1 8 19.09 79.36 39.68 <
-11 1 8 9144.43 8557.13 127.85 o
-9 1 8 11.91 61.72 26.45 <
-7 1 8 2708.44 2944.96 74.95 o
-5 1 8 22859.70 23762.50 295.38 o
-3 1 8 13787.30 13719.60 216.02 o
-1 1 8 1596.85 1494.52 70.54 o
1 1 8 5614.48 6220.56 277.74 o
3 1 8 774.61 771.51 132.26 o
5 1 8 296.32 207.21 88.17 <
7 1 8 6279.68 7344.76 321.83 o
9 1 8 834.53 815.59 149.89 o
11 1 8 992.22 696.56 141.08 o
13 1 8 6022.42 6599.70 321.83 o
-22 2 8 3238.91 3169.80 207.21 o
-20 2 8 85.97 52.90 66.13 <
-18 2 8 49451.50 49195.80 687.74 o
-16 2 8 15877.60 15174.50 286.56 o
-14 2 8 205.70 105.81 48.49 <
-12 2 8 5077.61 4686.36 114.62 o
-10 2 8 6343.44 6295.51 110.22 o
-8 2 8 98862.80 97457.00 859.68 o
-6 2 8 1837.98 1833.99 74.95 o
-4 2 8 38.45 48.49 48.49 <
-2 2 8 11985.00 11665.20 216.02 o
0 2 8 17207.70 16624.90 299.79 o
2 2 8 49699.70 45690.90 894.95 o
4 2 8 21576.90 20601.50 502.58 o
6 2 8 1657.80 1750.22 216.02 o
8 2 8 21720.40 22894.00 758.28 o
10 2 8 12276.30 11431.60 484.95 o
12 2 8 2023.93 2314.53 229.25 o
-21 3 8 10203.50 10589.50 268.93 o
-19 3 8 3098.54 3394.64 167.53 o
-17 3 8 13525.60 12485.20 308.60 o
-15 3 8 14097.90 14063.50 321.83 o
-13 3 8 2874.57 2671.62 127.85 o
-11 3 8 35383.40 33659.80 423.23 o
-9 3 8 8665.90 9024.45 141.08 o
-7 3 8 1.60 13.23 30.86 <
-5 3 8 38357.30 36666.50 515.81 o
-3 3 8 14311.60 14261.90 260.11 o
-1 3 8 10693.90 10602.70 229.25 o
1 3 8 22850.20 22960.10 418.82 o
3 3 8 12455.30 13463.90 467.31 o
5 3 8 3482.96 2967.00 238.07 o
7 3 8 23363.00 23171.70 661.29 o
9 3 8 3708.82 3416.68 255.70 o
11 3 8 421.05 313.01 127.85 <
-18 4 8 9232.72 8455.73 313.01 o
-16 4 8 3194.80 2847.97 163.12 o
-14 4 8 15328.80 15112.80 343.87 o
-12 4 8 26388.10 26888.20 498.17 o
-10 4 8 4477.30 4726.04 127.85 o
-8 4 8 7868.03 8107.45 163.12 o
-6 4 8 8225.20 7953.15 198.39 o
-4 4 8 907.57 1066.89 92.58 o
-2 4 8 62089.80 60777.20 859.68 o
0 4 8 89.17 141.08 61.72 <
2 4 8 8248.37 8248.53 242.47 o
4 4 8 2088.38 2138.18 189.57 o
6 4 8 2604.09 2631.95 242.47 o
8 4 8 23861.30 22550.10 886.13 o
-13 5 8 827.99 568.71 105.81 o
-11 5 8 6357.26 6595.30 216.02 o
-9 5 8 381.92 348.28 70.54 o
-7 5 8 819.08 899.36 92.58 o
-5 5 8 5919.12 5779.70 180.75 o
-3 5 8 2133.81 2217.54 141.08 o
-1 5 8 2900.54 2918.51 149.89 o
1 5 8 919.93 696.56 88.17 o
3 5 8 6410.44 7014.12 229.25 o
5 5 8 1044.41 1177.10 158.71 o
-23 1 9 51770.60 55182.70 886.13 o
-21 1 9 3069.86 3354.96 189.57 o
-19 1 9 3711.37 4197.01 202.80 o
-17 1 9 9066.94 9743.05 242.47 o
-15 1 9 10110.30 9919.40 242.47 o
-13 1 9 98472.20 93947.70 1027.21 o
-11 1 9 2694.63 3041.95 83.76 o
-9 1 9 24968.20 25058.60 273.33 o
-7 1 9 370.23 392.37 39.68 o
-5 1 9 51290.90 50919.60 595.16 o
-3 1 9 28382.90 28321.00 396.78 o
-1 1 9 4214.82 4540.88 185.16 o
1 1 9 43120.10 42710.70 983.12 o
3 1 9 36409.40 36124.20 872.91 o
5 1 9 32207.90 33770.00 828.82 o
7 1 9 58.86 132.26 110.22 <
9 1 9 4.90 70.54 119.03 <
11 1 9 10493.00 11815.10 498.17 o
-22 2 9 3336.25 2975.82 176.35 o
-20 2 9 17529.20 18705.80 392.37 o
-18 2 9 4712.19 4324.86 193.98 o
-16 2 9 4727.09 4673.14 176.35 o
-14 2 9 21400.30 21042.30 401.18 o
-12 2 9 4817.04 4880.34 114.62 o
-10 2 9 23884.50 22655.90 273.33 o
-8 2 9 22795.10 22603.00 268.93 o
-6 2 9 888.23 727.42 70.54 o
-4 2 9 18337.10 17418.50 290.97 o
-2 2 9 30489.00 28797.10 414.41 o
0 2 9 495.35 454.09 74.95 o
2 2 9 11920.90 12211.90 537.85 o
4 2 9 15960.60 15386.10 612.80 o
6 2 9 666.51 599.57 158.71 o
8 2 9 18796.10 20314.90 771.51 o
10 2 9 6731.86 6079.49 361.51 o
-19 3 9 12072.60 12185.40 321.83 o
-17 3 9 1336.88 1300.54 114.62 o
-15 3 9 86.25 127.85 61.72 <
-13 3 9 29570.30 31085.20 546.67 o
-11 3 9 1813.40 2279.26 92.58 o
-9 3 9 14001.50 14385.30 216.02 o
-7 3 9 8710.32 9028.85 211.61 o
-5 3 9 1828.39 1737.00 114.62 o
-3 3 9 34556.00 33333.60 506.99 o
-1 3 9 533.16 731.83 83.76 o
1 3 9 3756.82 3914.85 198.39 o
3 3 9 7710.27 7693.04 379.14 o
5 3 9 1962.44 1781.08 202.80 o
7 3 9 16599.40 17317.10 731.83 o
9 3 9 7.11 -39.68 105.81 <
-16 4 9 7325.40 7516.70 242.47 o
-14 4 9 7770.04 7900.25 273.33 o
-12 4 9 5696.47 5413.79 171.94 o
-10 4 9 14650.40 14839.40 260.11 o
-8 4 9 12044.90 11475.60 260.11 o
-6 4 9 47.25 88.17 52.90 <
-4 4 9 1557.24 1609.15 119.03 o
-2 4 9 19552.80 18088.60 365.92 o
0 4 9 54.75 101.40 70.54 <
2 4 9 10040.40 9910.58 299.79 o
4 4 9 8445.11 8182.40 326.24 o
6 4 9 2928.40 3557.76 290.97 o
-11 5 9 28400.60 27606.80 740.65 o
-9 5 9 1140.21 1133.02 114.62 o
-7 5 9 20997.10 21002.70 458.50 o
-5 5 9 2034.15 2054.42 127.85 o
-3 5 9 21195.20 21086.40 410.00 o
-1 5 9 9627.72 10034.00 260.11 o
1 5 9 4983.47 5193.35 282.15 o
-20 0 10 8524.98 7582.83 383.55 o
-18 0 10 26496.00 27743.40 820.00 o
-16 0 10 7602.28 7609.28 273.33 o
-14 0 10 75984.90 77904.70 1212.37 o
-12 0 10 1150.30 864.09 74.95 o
-10 0 10 27775.90 28863.20 454.09 o
-8 0 10 535.63 894.95 101.40 o
-6 0 10 271.06 683.34 96.99 o
-4 0 10 101751.00 100336.00 1446.03 o
-2 0 10 30699.30 31552.50 749.47 o
0 0 10 11466.80 11823.90 511.40 o
2 0 10 49.50 13.23 158.71 <
4 0 10 21917.30 23586.10 1260.87 o
6 0 10 13168.20 14861.50 908.18 o
8 0 10 34282.50 34845.70 1613.56 o
10 0 10 3139.37 4373.35 427.64 o
-21 1 10 8.26 92.58 70.54 <
-19 1 10 3529.14 4214.64 185.16 o
-17 1 10 5011.60 4523.24 185.16 o
-15 1 10 1059.23 670.11 83.76 o
-13 1 10 2420.42 3059.58 96.99 o
-11 1 10 6078.98 6132.39 114.62 o
-9 1 10 254.83 233.66 39.68 o
-7 1 10 10453.90 10175.10 193.98 o
-5 1 10 4840.28 4981.74 141.08 o
-3 1 10 864.11 837.64 79.36 o
-1 1 10 8019.56 8235.30 251.29 o
1 1 10 6809.56 6890.67 321.83 o
3 1 10 2740.96 3174.21 308.60 o
5 1 10 6978.12 7600.46 440.86 o
7 1 10 2575.49 3354.96 317.42 o
9 1 10 104.66 202.80 123.44 <
-20 2 10 108.29 61.72 74.95 <
-18 2 10 18504.40 17938.70 410.00 o
-16 2 10 126.54 176.35 66.13 <
-14 2 10 43433.10 40947.30 709.79 o
-12 2 10 23.99 52.90 35.27 <
-10 2 10 7474.85 7459.39 149.89 o
-8 2 10 12059.10 11484.50 220.43 o
-6 2 10 3179.01 3121.30 145.48 o
-4 2 10 47917.20 47511.70 665.70 o
-2 2 10 19432.80 18242.90 361.51 o
0 2 10 2939.08 2609.90 185.16 o
2 2 10 7381.78 6079.49 423.23 o
4 2 10 6456.41 7203.69 687.74 o
6 2 10 7423.73 8014.87 462.90 o
8 2 10 21683.80 21029.10 815.59 o
-19 3 10 12451.10 12207.50 462.90 o
-17 3 10 12981.80 12017.90 317.42 o
-15 3 10 3070.85 2755.39 158.71 o
-13 3 10 10303.70 10554.20 238.07 o
-11 3 10 14262.30 14711.60 238.07 o
-9 3 10 200.79 313.01 57.31 o
-7 3 10 30188.60 29956.60 493.77 o
-5 3 10 10873.60 10488.10 264.52 o
-3 3 10 1103.75 1106.56 101.40 o
-1 3 10 24236.10 23581.70 449.68 o
1 3 10 13919.20 13988.60 432.05 o
3 3 10 5431.21 5444.65 436.45 o
5 3 10 11727.80 10827.60 581.94 o
7 3 10 6595.23 6842.18 440.86 o
-16 4 10 14800.10 15791.70 603.98 o
-14 4 10 4714.71 4712.82 198.39 o
-12 4 10 731.11 524.63 101.40 o
-10 4 10 2516.61 2693.67 158.71 o
-8 4 10 34613.20 35079.40 577.53 o
-6 4 10 6387.73 5554.86 176.35 o
-4 4 10 579.84 555.49 92.58 o
-2 4 10 125.91 114.62 74.95 <
0 4 10 59.60 145.48 74.95 <
2 4 10 31857.60 31296.80 723.01 o
4 4 10 17.21 96.99 123.44 <
-21 1 11 70.57 154.30 136.67 <
-19 1 11 66221.50 65811.90 1102.16 o
-17 1 11 47.15 4.41 61.72 <
-15 1 11 495.36 568.71 70.54 o
-13 1 11 2969.03 2693.67 88.17 o
-11 1 11 13648.20 13450.70 224.84 o
-9 1 11 71959.40 69136.00 974.30 o
-7 1 11 18564.30 17577.20 352.69 o
-5 1 11 2032.56 2147.00 132.26 o
-3 1 11 1336.87 1437.21 110.22 o
-1 1 11 39874.50 39267.60 820.00 o
1 1 11 8564.72 8561.54 515.81 o
3 1 11 20808.60 20420.70 855.27 o
5 1 11 14214.40 16347.20 723.01 o
7 1 11 18114.60 18101.80 753.87 o
-20 2 11 340.72 687.74 268.93 <
-18 2 11 3478.71 3381.41 176.35 o
-16 2 11 17203.30 17559.50 387.96 o
-14 2 11 1648.30 1745.81 96.99 o
-12 2 11 8538.72 9205.20 176.35 o
-10 2 11 16646.70 15267.10 304.20 o
-8 2 11 2066.46 2433.56 110.22 o
-6 2 11 6162.26 6392.50 189.57 o
-4 2 11 10055.50 10461.70 264.52 o
-2 2 11 345.61 264.52 92.58 <
0 2 11 6357.29 6507.12 357.10 o
2 2 11 23968.00 26447.30 921.40 o
4 2 11 1367.02 1058.07 229.25 o
6 2 11 6237.19 6551.21 440.86 o
-17 3 11 1620.88 1556.24 207.21 o
-15 3 11 2688.97 2570.23 149.89 o
-13 3 11 14272.80 14266.30 290.97 o
-11 3 11 267.44 211.61 61.72 o
-9 3 11 18565.20 19107.00 330.65 o
-7 3 11 6.81 22.04 52.90 <
-5 3 11 1170.91 1331.40 101.40 o
-3 3 11 12597.50 11590.30 273.33 o
-1 3 11 1133.89 820.00 110.22 o
1 3 11 7239.33 7252.18 392.37 o
3 3 11 95.99 119.03 154.30 <
-12 4 11 8503.62 8006.06 387.96 o
-10 4 11 4575.79 4452.71 193.98 o
-8 4 11 2274.55 2274.85 119.03 o
-6 4 11 11775.00 11603.50 277.74 o
-4 4 11 17568.40 17608.00 361.51 o
-2 4 11 280.93 361.51 79.36 o
0 4 11 951.57 912.58 105.81 o
-20 0 12 4451.75 5316.80 410.00 o
-18 0 12 6862.47 6789.28 295.38 o
-16 0 12 13793.30 14513.20 436.45 o
-14 0 12 22956.50 23378.90 590.76 o
-12 0 12 9075.01 8226.49 313.01 o
-10 0 12 44851.20 45858.50 1062.48 o
-8 0 12 7978.48 7225.73 295.38 o
-6 0 12 26274.40 25838.90 687.74 o
-4 0 12 663.53 1036.03 154.30 o
-2 0 12 2294.96 2460.01 282.15 o
0 0 12 47473.30 50677.10 2398.29 o
2 0 12 35919.30 36437.20 1860.44 o
4 0 12 3324.02 2631.95 480.54 o
6 0 12 1035.10 864.09 299.79 <
-19 1 12 710.48 961.08 141.08 o
-17 1 12 742.98 952.26 92.58 o
-15 1 12 6919.91 7181.64 264.52 o
-13 1 12 7467.65 7622.50 180.75 o
-11 1 12 120.55 8.82 57.31 <
-9 1 12 3400.53 3478.40 149.89 o
-7 1 12 1592.70 1864.85 119.03 o
-5 1 12 59.87 105.81 61.72 <
-3 1 12 8377.65 8843.69 246.88 o
-1 1 12 791.66 784.73 127.85 o
1 1 12 1688.38 1666.46 286.56 o
3 1 12 3734.43 4338.08 427.64 o
5 1 12 3157.59 3421.09 370.32 o
-18 2 12 680.84 568.71 149.89 o
-16 2 12 4248.16 4042.70 207.21 o
-14 2 12 21786.20 21531.70 440.86 o
-12 2 12 40.71 119.03 57.31 <
-10 2 12 13839.20 14085.50 317.42 o
-8 2 12 1841.01 1763.45 119.03 o
-6 2 12 14640.70 13115.60 304.20 o
-4 2 12 4959.04 4430.66 198.39 o
-2 2 12 44.96 149.89 88.17 <
0 2 12 7929.02 8028.10 410.00 o
2 2 12 14791.10 15223.00 767.10 o
4 2 12 3110.61 3302.06 379.14 o
-15 3 12 9091.21 8826.06 396.78 o
-13 3 12 10716.30 11017.10 352.69 o
-11 3 12 1853.08 2155.82 127.85 o
-9 3 12 15029.10 15196.50 321.83 o
-7 3 12 9582.56 9694.56 242.47 o
-5 3 12 147.79 -4.41 61.72 <
-3 3 12 23480.40 22735.30 458.50 o
-1 3 12 5374.58 4853.89 268.93 o
1 3 12 1232.40 1040.43 189.57 o
-17 1 13 282.92 321.83 88.17 o
-15 1 13 49970.40 49583.80 1587.10 o
-13 1 13 3629.44 3703.24 163.12 o
-11 1 13 6050.86 5863.47 193.98 o
-9 1 13 113.63 96.99 66.13 <
-7 1 13 6353.45 5294.75 185.16 o
-5 1 13 25036.00 25195.30 436.45 o
-3 1 13 22901.10 22748.50 506.99 o
-1 1 13 623.78 877.32 136.67 o
1 1 13 1319.30 894.95 246.88 o
-14 2 13 4698.55 4421.85 238.07 o
-12 2 13 16789.00 18062.10 379.14 o
-10 2 13 3005.66 2698.08 154.30 o
-8 2 13 7123.46 6864.22 216.02 o
-6 2 13 10391.30 10338.20 246.88 o
-4 2 13 1251.06 1401.94 132.26 o
-2 2 13 7269.51 7485.84 348.28 o
-12 0 14 16497.20 17202.40 740.65 o
-10 0 14 14836.30 13829.80 639.25 o
-8 0 14 21463.50 21315.70 626.02 o
-6 0 14 16590.00 16162.00 515.81 o
-4 0 14 2981.12 2909.69 264.52 o
-11 1 14 1492.72 1776.67 176.35 o
-9 1 14 5114.67 4368.94 242.47 o
-7 1 14 112.88 207.21 92.58 <
-5 1 14 4487.27 4161.74 220.43 o
