#------------------------------------------------------------------------------
#$Date: 2017-03-04 04:00:08 +0200 (Sat, 04 Mar 2017) $
#$Revision: 192963 $
#$URL: file:///home/coder/svn-repositories/cod/cif/4/34/54/4345404.cif $
#------------------------------------------------------------------------------
#
# This file is available in the Crystallography Open Database (COD),
# http://www.crystallography.net/
#
# All data on this site have been placed in the public domain by the
# contributors.
#
data_4345404
loop_
_publ_author_name
'Kazin, Pavel E.'
'Zykin, Mikhail A.'
'Schnelle, Walter'
'Zubavichus, Yan V.'
'Babeshkin, Konstantin A.'
'Tafeenko, Victor A.'
'Felser, Claudia'
'Jansen, Martin'
_publ_section_title
;
 Cobalt-Based Single-Ion Magnets on an Apatite Lattice: Toward Patterned
 Arrays for Magnetic Memories.
;
_journal_issue                   3
_journal_name_full               'Inorganic chemistry'
_journal_page_first              1232
_journal_page_last               1240
_journal_paper_doi               10.1021/acs.inorgchem.6b02348
_journal_volume                  56
_journal_year                    2017
_chemical_formula_moiety         '0.030(Co6), 3(O4 P), 0.23(O4), 5(Sr)'
_chemical_formula_structural     Sr10(PO4)6(Co0.18O0.92H(0.48-delta))2
_chemical_formula_sum            'Co0.18 O12.92 P3 Sr5'
_chemical_formula_weight         748.3
_chemical_name_systematic        ' ?'
_space_group_IT_number           176
_symmetry_cell_setting           hexagonal
_symmetry_Int_Tables_number      176
_symmetry_space_group_name_Hall  '-P 6c'
_symmetry_space_group_name_H-M   'P 63/m'
_cell_angle_alpha                90
_cell_angle_beta                 90
_cell_angle_gamma                120
_cell_formula_units_Z            2
_cell_length_a                   9.7563(3)
_cell_length_b                   9.7563(3)
_cell_length_c                   7.3053(2)
_cell_measurement_reflns_used    12453
_cell_measurement_temperature    293
_cell_measurement_theta_max      72.6
_cell_measurement_theta_min      5.23
_cell_volume                     602.20(3)
_computing_cell_refinement       'STOE X-AREA'
_computing_data_collection       'STOE X-AREA (Stoe & Cie, 2012)'
_computing_data_reduction        'STOE X-RED32 (Stoe & Cie, 2012)'
_computing_structure_refinement  Jana2006
_computing_structure_solution    Jana2006
_diffrn_ambient_temperature      293(2)
_diffrn_detector                 Pilatus100K
_diffrn_measured_fraction_theta_full 0.99
_diffrn_measured_fraction_theta_max 0.99
_diffrn_measurement_device_type  'Stoe STADI VARI'
_diffrn_measurement_method       'rotation method'
_diffrn_radiation_monochromator  graphite
_diffrn_radiation_source         'fine-focus sealed tube'
_diffrn_radiation_type           'Cu K\a'
_diffrn_radiation_wavelength     1.54186
_diffrn_reflns_av_R_equivalents  0.1153
_diffrn_reflns_av_sigmaI/netI    0.0056
_diffrn_reflns_limit_h_max       12
_diffrn_reflns_limit_h_min       -11
_diffrn_reflns_limit_k_max       11
_diffrn_reflns_limit_k_min       -12
_diffrn_reflns_limit_l_max       8
_diffrn_reflns_limit_l_min       -5
_diffrn_reflns_number            2935
_diffrn_reflns_theta_full        72.56
_diffrn_reflns_theta_max         72.56
_diffrn_reflns_theta_min         5.23
_diffrn_source                   'Cu GeniX 3D'
_diffrn_source_current           0.600
_diffrn_source_power             0.030
_diffrn_source_voltage           50
_diffrn_standards_decay_%        none
_diffrn_standards_interval_count none
_diffrn_standards_interval_time  none
_diffrn_standards_number         none
_exptl_absorpt_coefficient_mu    34.351
_exptl_absorpt_correction_T_max  0.1332
_exptl_absorpt_correction_T_min  0.0451
_exptl_absorpt_correction_type   multi-scan
_exptl_absorpt_process_details
;
[c.f. r.h. blessing, acta cryst. (1995), a51, 33-38]
;
_exptl_crystal_colour            black
_exptl_crystal_density_diffrn    4.1295
_exptl_crystal_description       'hexagonal prism'
_exptl_crystal_F_000             685.9
_exptl_crystal_size_max          0.12
_exptl_crystal_size_mid          0.09
_exptl_crystal_size_min          0.06
_refine_diff_density_max         1.24
_refine_diff_density_min         -1.57
_refine_ls_extinction_coef       0.110(11)
_refine_ls_extinction_method
'B-C type 1 Gaussian isotropic (Becker & Coppens, 1974)'
_refine_ls_goodness_of_fit_gt    2.77
_refine_ls_goodness_of_fit_ref   2.76
_refine_ls_number_constraints    0
_refine_ls_number_parameters     47
_refine_ls_number_reflns         429
_refine_ls_number_restraints     0
_refine_ls_R_factor_all          0.0461
_refine_ls_R_factor_gt           0.0447
_refine_ls_shift/su_max          0.0302
_refine_ls_shift/su_mean         0.0120
_refine_ls_structure_factor_coef F
_refine_ls_weighting_details     w=1/(\s^2^(F)+0.0001F^2^)
_refine_ls_weighting_scheme      sigma
_refine_ls_wR_factor_gt          0.0619
_refine_ls_wR_factor_ref         0.0628
_reflns_number_gt                416
_reflns_number_total             429
_reflns_threshold_expression     I>3\s(I)
_cod_data_source_file            ic6b02348_si_002.cif
_cod_data_source_block           I
_cod_database_code               4345404
loop_
_space_group_symop_id
_space_group_symop_operation_xyz
1 x,y,z
2 -y,x-y,z
3 -x+y,-x,z
4 -x,-y,z+1/2
5 y,-x+y,z+1/2
6 x-y,x,z+1/2
7 -x,-y,-z
8 y,-x+y,-z
9 x-y,x,-z
10 x,y,-z+1/2
11 -y,x-y,-z+1/2
12 -x+y,-x,-z+1/2
loop_
_atom_site_label
_atom_site_type_symbol
_atom_site_fract_x
_atom_site_fract_y
_atom_site_fract_z
_atom_site_adp_type
_atom_site_U_iso_or_equiv
_atom_site_site_symmetry_multiplicity
_atom_site_occupancy
_atom_site_calc_flag
Sr1 Sr 0.666667 0.333333 -0.00013(10) Uani 0.0115(5) 4 1 d
Sr2 Sr 0.01446(8) 0.25933(8) 0.25 Uani 0.0153(5) 6 1 d
P1 P 0.39847(19) 0.36700(18) 0.25 Uani 0.0082(7) 6 1 d
O1 O 0.3317(5) 0.4804(5) 0.25 Uani 0.0104(19) 6 1 d
O2 O 0.5809(6) 0.4608(6) 0.25 Uani 0.020(2) 6 1 d
O3 O 0.3448(5) 0.2610(4) 0.0791(6) Uani 0.0229(16) 12 1 d
O4 O 0 0 0.199(3) Uani 0.041(11) 4 0.46(4) d
Co Co 0.047(4) 0.038(6) 0.019(7) Uiso 0.021(17) 12 0.030(5) d
loop_
_atom_site_aniso_label
_atom_site_aniso_type_symbol
_atom_site_aniso_U_11
_atom_site_aniso_U_22
_atom_site_aniso_U_33
_atom_site_aniso_U_12
_atom_site_aniso_U_13
_atom_site_aniso_U_23
Sr1 Sr 0.0103(6) 0.0103(6) 0.0139(7) 0.0051(3) 0 0
Sr2 Sr 0.0070(6) 0.0153(6) 0.0219(7) 0.0044(3) 0 0
P1 P 0.0077(9) 0.0054(9) 0.0137(10) 0.0049(7) 0 0
O1 O 0.009(2) 0.007(2) 0.019(3) 0.0064(18) 0 0
O2 O 0.005(2) 0.010(2) 0.046(4) 0.005(2) 0 0
O3 O 0.031(2) 0.0184(18) 0.024(2) 0.0162(17) -0.0096(17) -0.0054(15)
O4 O 0.020(7) 0.020(7) 0.08(3) 0.010(4) 0 0
loop_
_atom_type_symbol
_atom_type_scat_dispersion_real
_atom_type_scat_dispersion_imag
_atom_type_scat_source
Co -2.3653 3.6143 'International Tables Vol C tables 4.2.6.8 and 6.1.1.1'
O 0.0492 0.0322 'International Tables Vol C tables 4.2.6.8 and 6.1.1.1'
P 0.2955 0.4335 'International Tables Vol C tables 4.2.6.8 and 6.1.1.1'
Sr -0.3528 1.8200 'International Tables Vol C tables 4.2.6.8 and 6.1.1.1'
loop_
_geom_angle_atom_site_label_1
_geom_angle_atom_site_label_2
_geom_angle_atom_site_label_3
_geom_angle_site_symmetry_3
_geom_angle
O1 P1 O2 . 110.5(3)
O1 P1 O3 . 111.1(2)
O1 P1 O3 10_555 111.1(2)
O2 P1 O3 . 107.7(2)
O2 P1 O3 10_555 107.7(2)
O3 P1 O3 10_555 108.7(2)
O4 Co O4 7_555 147(2)
loop_
_geom_bond_atom_site_label_1
_geom_bond_atom_site_label_2
_geom_bond_site_symmetry_2
_geom_bond_distance
Sr1 O1 4_664 2.570(4)
Sr1 O1 5_554 2.570(3)
Sr1 O1 6_654 2.570(6)
Sr1 O2 . 2.575(5)
Sr1 O2 2_655 2.575(5)
Sr1 O2 3_665 2.575(5)
Sr1 O3 . 2.912(5)
Sr1 O3 2_655 2.912(7)
Sr1 O3 3_665 2.912(4)
Sr2 O1 . 2.749(4)
Sr2 O2 3_565 2.490(9)
Sr2 O3 2_555 2.666(4)
Sr2 O3 6_555 2.524(4)
Sr2 O3 9_555 2.524(4)
Sr2 O3 11_555 2.666(4)
Sr2 O4 . 2.491(4)
Sr2 O4 10_555 2.491(4)
P1 O1 . 1.540(7)
P1 O2 . 1.541(6)
P1 O3 . 1.536(4)
P1 O3 10_555 1.536(4)
O3 Co . 2.65(3)
O3 Co 8_555 2.92(4)
O3 Co 9_555 2.96(5)
O4 Co . 1.38(5)
O4 Co 7_555 1.65(5)
loop_
_refln_index_h
_refln_index_k
_refln_index_l
_refln_F_squared_calc
_refln_F_squared_meas
_refln_F_squared_sigma
_refln_observed_status
0 1 0 307.61 257.99 22.50 o
-1 2 0 388.25 345.02 35.70 o
0 2 0 7076.58 6647.76 466.10 o
-2 3 0 3492.41 3772.88 393.61 o
-1 3 0 16125.40 17518.20 1514.98 o
0 3 0 57919.70 72680.20 5828.50 o
-3 4 0 13488.50 14702.90 1756.86 o
-2 4 0 1760.98 1327.82 99.97 o
-1 4 0 4237.69 4154.76 406.21 o
0 4 0 5595.40 5311.01 490.99 o
-4 5 0 30087.70 31681.20 2431.77 o
-3 5 0 9301.20 10071.20 595.89 o
-2 5 0 4982.43 5036.45 319.75 o
-1 5 0 16876.20 18603.30 1500.92 o
0 5 0 2.52 6.91 3.41 <
-5 6 0 1520.70 1533.37 41.26 o
-4 6 0 16614.40 17006.10 901.02 o
-3 6 0 4637.17 4478.74 308.52 o
-2 6 0 3149.39 3101.31 198.93 o
-1 6 0 10595.60 11267.00 563.26 o
0 6 0 2101.75 2168.36 37.70 o
-6 7 0 4082.99 3951.88 80.45 o
-5 7 0 1912.98 1926.75 44.74 o
-4 7 0 105.00 132.60 13.02 o
-3 7 0 51.00 57.78 4.62 o
-2 7 0 13129.50 13687.30 531.32 o
-1 7 0 10606.50 10362.80 802.67 o
0 7 0 18.56 18.62 3.33 o
-7 8 0 26699.90 30730.50 1188.62 o
-6 8 0 3994.79 4090.90 170.03 o
-5 8 0 9.02 8.25 2.72 o
-4 8 0 28078.00 31820.30 2136.07 o
-3 8 0 1788.01 1820.81 75.80 o
-2 8 0 1587.84 1422.57 101.96 o
-1 8 0 2271.24 2417.55 144.93 o
0 8 0 5775.74 6047.69 324.63 o
-8 9 0 181.69 205.17 10.22 o
-7 9 0 1861.68 1817.53 108.18 o
-6 9 0 24.64 38.88 8.12 o
-5 9 0 1536.02 1508.21 83.86 o
-4 9 0 42.35 50.43 6.65 o
-3 9 0 933.64 910.89 97.13 o
-2 9 0 7037.93 6907.62 397.87 o
-1 9 0 463.38 437.83 25.64 o
0 9 0 4730.69 4304.75 274.70 o
-9 10 0 2820.15 2460.31 171.18 o
-8 10 0 1175.50 1143.07 92.73 o
-7 10 0 1927.79 1729.91 89.09 o
-6 10 0 3633.26 3599.57 189.18 o
-5 10 0 3809.98 3571.65 246.19 o
-4 10 0 1073.71 1025.87 71.77 o
-3 10 0 4389.05 4097.69 268.01 o
-2 10 0 4257.63 4091.98 264.65 o
-1 10 0 3513.84 3242.87 270.79 o
0 10 0 3259.39 2734.54 278.08 o
-9 11 0 4590.80 4018.60 335.68 o
-8 11 0 91.48 101.15 6.79 o
-7 11 0 11408.40 11198.90 850.20 o
-6 11 0 2199.04 1979.77 146.37 o
-5 11 0 2711.55 2352.93 170.40 o
-4 11 0 3879.81 3504.85 236.09 o
-3 11 0 535.63 518.91 45.22 o
-2 11 0 225.76 173.87 15.69 o
-7 12 0 341.25 182.63 15.40 o
-6 12 0 1545.84 1239.70 72.05 o
0 1 1 99.43 118.43 14.19 o
-1 2 1 1447.05 1483.01 119.51 o
0 2 1 8.73 21.73 3.67 o
-2 3 1 14000.20 14746.10 1286.11 o
-1 3 1 28181.60 33233.10 3155.39 o
0 3 1 268.67 315.50 22.33 o
-3 4 1 1157.41 1095.76 85.42 o
-2 4 1 231.41 186.34 14.01 o
-1 4 1 196.97 252.42 26.14 o
0 4 1 76.75 91.33 16.00 o
-4 5 1 0.24 12.74 6.52 <
-3 5 1 9340.26 8843.77 429.46 o
-2 5 1 15894.70 15263.50 851.85 o
-1 5 1 514.91 441.74 31.38 o
0 5 1 381.74 359.12 35.13 o
-5 6 1 4216.92 4203.36 164.65 o
-4 6 1 4204.77 4180.60 179.55 o
-3 6 1 6955.32 6869.36 210.73 o
-2 6 1 3.33 15.68 2.68 o
-1 6 1 16447.90 17415.10 696.72 o
0 6 1 1622.30 1578.31 49.99 o
-6 7 1 2014.04 1887.52 63.93 o
-5 7 1 6391.16 6394.29 226.68 o
-4 7 1 1148.71 1097.26 46.66 o
-3 7 1 5621.80 5495.25 176.14 o
-2 7 1 3451.92 3285.34 117.97 o
-1 7 1 3719.60 3556.96 111.89 o
0 7 1 107.38 102.81 3.63 o
-7 8 1 10.68 14.17 3.24 o
-6 8 1 148.93 134.24 5.28 o
-5 8 1 54.67 76.76 3.50 o
-4 8 1 1104.43 1019.73 46.87 o
-3 8 1 78.29 74.79 4.11 o
-2 8 1 457.37 514.29 17.52 o
-1 8 1 17.95 19.74 2.55 o
0 8 1 84.29 89.89 9.81 o
-8 9 1 503.38 450.84 20.00 o
-7 9 1 186.46 231.74 30.87 o
-6 9 1 4996.58 5112.54 185.79 o
-5 9 1 2810.05 2678.83 114.21 o
-4 9 1 2945.42 2795.62 131.54 o
-3 9 1 5405.63 5463.84 209.67 o
-2 9 1 5422.49 5404.02 168.68 o
-1 9 1 39.43 47.40 5.01 o
0 9 1 3.30 11.62 2.29 o
-9 10 1 278.44 261.81 10.93 o
-8 10 1 43.63 43.73 2.33 o
-7 10 1 1781.36 1681.20 70.75 o
-6 10 1 3303.65 3247.28 127.66 o
-5 10 1 2652.15 2542.15 108.02 o
-4 10 1 1294.33 1196.93 45.17 o
-3 10 1 1839.24 1787.11 78.45 o
-2 10 1 1245.92 1103.04 45.49 o
-1 10 1 2329.81 2068.04 90.47 o
0 10 1 2163.60 1755.17 180.32 o
-9 11 1 5935.01 5155.09 189.27 o
-8 11 1 526.90 520.89 22.29 o
-7 11 1 75.29 73.71 2.85 o
-6 11 1 1728.58 1745.63 67.25 o
-5 11 1 3373.50 3096.80 132.80 o
-4 11 1 1374.42 1245.25 57.01 o
-3 11 1 155.16 144.49 7.71 o
-2 11 1 45.79 48.75 2.20 o
-6 12 1 88.37 54.78 9.61 o
0 0 2 28893.60 26540.50 4539.22 o
0 1 2 7166.92 6391.53 489.24 o
-1 2 2 36126.00 34283.50 2888.93 o
0 2 2 3075.26 3212.30 229.95 o
-2 3 2 85.08 103.74 9.47 o
-1 3 2 257.56 331.10 37.46 o
0 3 2 2202.40 2080.73 173.06 o
-3 4 2 16532.70 15645.40 1254.88 o
-2 4 2 34693.60 32377.60 2751.12 o
-1 4 2 5218.81 5132.62 482.04 o
0 4 2 27644.80 28603.70 2737.14 o
-4 5 2 274.13 290.34 46.13 o
-3 5 2 375.97 397.60 30.83 o
-2 5 2 1666.23 1370.59 112.19 o
-1 5 2 5742.44 4884.89 340.11 o
0 5 2 12899.70 13056.30 674.78 o
-5 6 2 1323.25 1262.04 59.51 o
-4 6 2 751.04 679.41 33.50 o
-3 6 2 10348.20 10372.40 374.86 o
-2 6 2 320.57 301.54 12.80 o
-1 6 2 1421.38 1267.81 58.89 o
0 6 2 10561.30 10722.90 502.53 o
-6 7 2 39.91 49.22 5.14 o
-5 7 2 24743.90 25880.10 1522.40 o
-4 7 2 6267.62 6252.60 378.39 o
-3 7 2 4751.77 5016.57 194.52 o
-2 7 2 5487.34 5360.53 241.93 o
-1 7 2 117.36 120.47 6.62 o
0 7 2 6426.96 6924.07 161.47 o
-7 8 2 814.02 813.39 32.89 o
-6 8 2 16.04 21.12 3.84 o
-5 8 2 5993.33 6421.64 194.30 o
-4 8 2 751.66 795.54 16.58 o
-3 8 2 14377.10 16161.80 432.18 o
-2 8 2 2236.55 2146.93 81.81 o
-1 8 2 9539.12 10306.20 340.57 o
0 8 2 17172.80 19116.00 471.45 o
-8 9 2 7370.16 7579.79 257.30 o
-7 9 2 775.49 708.47 28.15 o
-6 9 2 14579.10 16235.80 522.73 o
-5 9 2 988.69 1066.42 33.36 o
-4 9 2 2929.40 2856.66 71.67 o
-3 9 2 8559.56 8857.90 496.29 o
-2 9 2 308.84 325.54 10.97 o
-1 9 2 189.79 173.71 4.55 o
0 9 2 2486.04 2462.71 80.26 o
-9 10 2 153.16 157.90 7.40 o
-8 10 2 8639.06 8748.48 309.50 o
-7 10 2 130.91 169.03 7.66 o
-6 10 2 102.67 110.54 5.49 o
-5 10 2 6478.86 6883.73 222.78 o
-4 10 2 249.66 245.69 6.50 o
-3 10 2 57.49 64.53 4.15 o
-2 10 2 2576.65 2278.27 277.11 o
-1 10 2 11.55 20.65 3.07 o
0 10 2 8.76 10.28 3.54 <
-9 11 2 404.57 333.43 23.95 o
-8 11 2 736.05 608.11 28.06 o
-7 11 2 6.87 12.78 2.33 o
-6 11 2 218.43 210.55 8.53 o
-5 11 2 11.97 16.20 2.38 o
-4 11 2 1533.97 1581.83 39.84 o
-3 11 2 5841.60 5423.40 128.94 o
-2 11 2 1803.16 1252.89 72.75 o
0 1 3 198.00 208.65 17.30 o
-1 2 3 8272.21 6783.48 548.47 o
0 2 3 2363.67 2225.56 154.72 o
-2 3 3 11536.30 10352.60 540.97 o
-1 3 3 23043.30 17793.40 1007.37 o
0 3 3 181.60 178.55 13.04 o
-3 4 3 860.22 800.36 52.42 o
-2 4 3 44.11 64.35 5.49 o
-1 4 3 1938.98 1538.74 100.34 o
0 4 3 2.30 13.30 1.73 o
-4 5 3 255.69 237.26 11.87 o
-3 5 3 2495.92 2183.32 128.84 o
-2 5 3 14391.40 12948.10 767.45 o
-1 5 3 731.11 620.83 37.46 o
0 5 3 662.76 603.03 35.64 o
-5 6 3 1904.31 1681.18 109.64 o
-4 6 3 7067.46 6513.75 393.95 o
-3 6 3 2199.09 2112.81 152.23 o
-2 6 3 9.54 16.33 3.76 o
-1 6 3 13225.50 13165.00 826.03 o
0 6 3 542.64 571.19 14.10 o
-6 7 3 1544.23 1551.95 41.65 o
-5 7 3 5268.11 6012.77 171.81 o
-4 7 3 390.03 429.24 14.85 o
-3 7 3 6262.90 6522.88 248.56 o
-2 7 3 3439.86 3741.99 200.77 o
-1 7 3 1329.44 1414.01 58.19 o
0 7 3 160.04 150.24 4.59 o
-7 8 3 389.52 411.80 9.42 o
-6 8 3 131.77 135.94 3.46 o
-5 8 3 64.56 53.82 4.41 o
-4 8 3 4.85 22.72 3.76 o
-3 8 3 246.15 322.64 11.92 o
-2 8 3 4.29 14.12 3.20 o
-1 8 3 90.37 93.57 4.97 o
0 8 3 152.78 222.70 39.68 o
-8 9 3 28.88 30.85 2.85 o
-7 9 3 321.13 381.95 8.46 o
-6 9 3 1725.89 1868.07 37.52 o
-5 9 3 1868.60 1901.91 40.17 o
-4 9 3 2223.03 2425.27 59.04 o
-3 9 3 2619.92 2508.03 185.21 o
-2 9 3 3845.62 4182.10 234.54 o
-1 9 3 33.64 42.26 7.65 o
0 9 3 43.23 52.50 2.72 o
-9 10 3 648.98 560.41 16.19 o
-8 10 3 11.42 19.35 2.55 o
-7 10 3 850.83 933.22 27.18 o
-6 10 3 2285.77 2526.40 51.50 o
-5 10 3 1966.75 1991.46 43.04 o
-4 10 3 1079.58 1160.50 30.45 o
-3 10 3 2828.63 2861.96 83.63 o
-2 10 3 1209.07 1102.41 66.12 o
-1 10 3 2602.90 2189.54 120.32 o
-8 11 3 477.60 235.75 15.44 o
-7 11 3 263.77 259.77 7.98 o
-6 11 3 701.81 677.77 19.75 o
-5 11 3 3686.36 3680.29 112.47 o
-4 11 3 1010.06 1006.28 24.35 o
-3 11 3 1.36 2.03 10.49 <
0 0 4 103208.00 103016.00 435.76 o
0 1 4 509.77 543.17 25.37 o
-1 2 4 1676.25 1320.21 128.03 o
0 2 4 2693.98 2220.53 163.76 o
-2 3 4 6692.69 5755.41 358.48 o
-1 3 4 6344.52 4957.99 313.19 o
0 3 4 21834.40 17893.80 1066.87 o
-3 4 4 371.47 289.98 20.53 o
-2 4 4 662.70 609.80 38.78 o
-1 4 4 890.17 731.61 45.85 o
0 4 4 2694.45 2163.03 118.65 o
-4 5 4 19456.30 16777.90 1099.30 o
-3 5 4 4070.05 3650.87 209.27 o
-2 5 4 1882.82 1713.37 118.27 o
-1 5 4 8755.67 7251.46 536.66 o
0 5 4 339.28 289.92 23.95 o
-5 6 4 1603.69 1800.31 52.49 o
-4 6 4 8851.80 9564.41 269.29 o
-3 6 4 3646.59 3839.27 115.65 o
-2 6 4 6602.86 7109.32 205.01 o
-1 6 4 10074.60 10899.40 151.84 o
0 6 4 2369.84 2436.16 38.23 o
-6 7 4 4879.71 5539.79 158.60 o
-5 7 4 42.70 45.50 3.76 o
-4 7 4 16.59 31.66 3.67 o
-3 7 4 148.48 145.28 4.07 o
-2 7 4 4922.07 5532.54 227.36 o
-1 7 4 5861.09 6423.17 238.77 o
0 7 4 4.57 11.19 3.93 <
-7 8 4 19318.70 22622.20 497.35 o
-6 8 4 4546.16 4990.09 114.57 o
-5 8 4 3.59 19.09 8.81 <
-4 8 4 21404.60 25801.00 789.24 o
-3 8 4 1305.54 1320.66 45.11 o
-2 8 4 520.96 562.43 29.66 o
-1 8 4 1307.83 1406.37 53.00 o
0 8 4 3124.89 3254.07 98.54 o
-8 9 4 345.34 366.93 10.02 o
-7 9 4 1121.23 1208.11 26.48 o
-6 9 4 54.60 90.50 4.19 o
-5 9 4 977.36 1027.71 22.66 o
-4 9 4 106.49 101.50 5.84 o
-3 9 4 1076.40 1206.87 45.43 o
-2 9 4 5344.05 5241.71 173.57 o
-1 9 4 1662.75 1523.95 29.08 o
0 9 4 2964.85 2678.63 132.93 o
-8 10 4 328.96 343.32 16.42 o
-7 10 4 1577.72 1568.40 47.16 o
-6 10 4 2227.06 2191.08 63.36 o
-5 10 4 1231.11 1228.69 37.67 o
-4 10 4 1520.37 1571.17 53.73 o
-3 10 4 2241.07 2103.26 34.67 o
-2 10 4 2828.53 2481.38 41.94 o
0 1 5 11.27 28.33 12.53 <
-1 2 5 681.70 572.42 21.22 o
0 2 5 1.54 14.17 6.00 <
-2 3 5 5637.28 4188.50 327.63 o
-1 3 5 10397.10 8802.08 626.36 o
0 3 5 6.29 15.81 3.58 o
-3 4 5 557.09 514.49 39.47 o
-2 4 5 144.27 130.90 15.49 o
-1 4 5 19.19 17.67 2.72 o
0 4 5 164.00 168.12 16.75 o
-4 5 5 0.12 11.66 5.27 <
-3 5 5 4516.82 4617.82 246.54 o
-2 5 5 6549.21 7126.08 194.32 o
-1 5 5 237.77 259.11 21.97 o
0 5 5 83.00 84.23 3.98 o
-5 6 5 2045.69 2106.37 44.50 o
-4 6 5 2287.85 2385.83 63.01 o
-3 6 5 3280.85 3496.83 85.39 o
-2 6 5 19.52 26.09 4.36 o
-1 6 5 8390.96 9129.20 273.34 o
0 6 5 680.72 749.55 24.02 o
-6 7 5 718.38 757.56 13.26 o
-5 7 5 3282.73 3501.60 56.34 o
-4 7 5 568.72 608.10 13.32 o
-3 7 5 2426.67 2410.19 70.15 o
-2 7 5 1615.55 1693.69 62.55 o
-1 7 5 1808.18 1997.50 56.19 o
0 7 5 32.14 54.22 4.75 o
-7 8 5 0.78 13.04 2.63 o
-6 8 5 72.88 91.52 5.14 o
-5 8 5 40.72 40.10 3.24 o
-4 8 5 487.04 573.54 16.34 o
-3 8 5 26.87 36.16 3.07 o
-2 8 5 334.15 383.10 17.18 o
-1 8 5 1.65 9.41 2.59 o
0 8 5 31.45 30.76 4.28 o
-8 9 5 187.42 159.92 8.54 o
-7 9 5 58.27 93.41 6.66 o
-6 9 5 2832.53 3079.00 68.61 o
-5 9 5 1510.51 1646.02 48.43 o
-4 9 5 1603.64 1621.17 41.33 o
-3 9 5 2730.35 2913.89 82.25 o
-2 9 5 2864.59 2969.37 111.72 o
-1 9 5 15.75 7.99 2.59 o
-5 10 5 1301.81 1043.23 57.30 o
0 0 6 12101.40 9414.37 101.94 o
0 1 6 2783.93 2113.73 93.17 o
-1 2 6 17555.90 13920.40 558.98 o
0 2 6 175.60 174.94 4.81 o
-2 3 6 527.46 468.42 21.97 o
-1 3 6 104.39 105.96 4.28 o
0 3 6 179.38 165.39 6.75 o
-3 4 6 8963.33 8943.54 393.72 o
-2 4 6 12470.20 12201.30 709.85 o
-1 4 6 462.58 464.23 16.87 o
0 4 6 9103.19 9378.57 270.67 o
-4 5 6 698.51 722.61 24.81 o
-3 5 6 20.19 37.24 3.97 o
-2 5 6 398.69 428.23 25.27 o
-1 5 6 3395.57 3672.55 267.88 o
0 5 6 3539.90 3615.81 182.02 o
-5 6 6 594.32 662.88 20.11 o
-4 6 6 486.77 520.80 22.74 o
-3 6 6 6649.85 7165.86 338.60 o
-2 6 6 203.45 217.40 5.02 o
-1 6 6 172.67 186.48 9.26 o
0 6 6 6719.27 7450.30 268.15 o
-6 7 6 60.09 49.92 3.11 o
-5 7 6 7335.63 8126.40 136.87 o
-4 7 6 1827.80 1935.06 59.46 o
-3 7 6 2028.92 2283.11 80.55 o
-2 7 6 1857.86 1936.01 73.52 o
-1 7 6 190.99 224.82 8.01 o
0 7 6 1724.29 1717.39 50.29 o
-7 8 6 63.67 71.12 4.11 o
-6 8 6 13.84 27.21 3.20 o
-5 8 6 2419.61 2491.21 81.71 o
-4 8 6 3.13 12.65 3.02 o
-3 8 6 5115.67 5846.13 107.21 o
-2 8 6 604.52 529.15 13.25 o
-1 8 6 4397.96 4088.78 202.05 o
-4 9 6 1900.95 1185.92 34.48 o
0 1 7 0.16 37.75 13.09 <
-1 2 7 452.16 395.29 7.17 o
0 2 7 21.21 39.61 12.70 o
-2 3 7 3003.17 2658.25 177.05 o
-1 3 7 5006.20 4479.30 127.33 o
0 3 7 1.37 3.50 4.92 <
-3 4 7 355.12 316.82 6.94 o
-2 4 7 71.73 87.93 8.00 o
-1 4 7 11.98 17.28 5.18 o
0 4 7 92.46 87.30 5.02 o
-4 5 7 12.38 14.51 3.93 o
-3 5 7 1894.45 2209.28 155.37 o
-2 5 7 3158.40 3538.63 201.21 o
-1 5 7 108.19 112.02 7.05 o
0 5 7 3.47 14.25 3.15 o
-5 6 7 1085.30 1205.10 53.78 o
-4 6 7 1384.43 1494.43 57.80 o
-3 6 7 1577.58 1970.59 72.46 o
-2 6 7 9.28 16.37 3.63 o
-1 6 7 4465.43 4635.99 188.85 o
0 6 7 176.65 212.99 9.27 o
-6 7 7 291.15 167.91 93.36 <
-5 7 7 1775.96 1824.10 71.57 o
-4 7 7 211.17 227.39 8.75 o
-3 7 7 1525.48 1574.81 46.92 o
-2 7 7 1025.09 1033.02 63.29 o
-1 7 7 912.61 848.86 57.93 o
0 1 8 190.21 178.17 22.60 o
-1 2 8 518.45 514.66 30.01 o
0 2 8 993.17 881.95 29.54 o
-2 3 8 1920.96 1827.45 19.86 o
-1 3 8 2197.33 2332.38 126.89 o
0 3 8 6841.63 7022.27 245.35 o
-3 4 8 0.62 5.27 5.92 <
-2 4 8 333.51 311.83 30.90 o
-1 4 8 439.55 439.42 9.78 o
0 4 8 537.58 658.95 46.08 o
-4 5 8 6161.09 6406.83 978.83 o
-3 5 8 1174.37 1307.92 143.84 o
-2 5 8 547.68 625.52 65.44 o
-1 5 8 2379.13 2673.69 175.84 o
