#------------------------------------------------------------------------------
#$Date: 2017-04-13 01:44:50 +0300 (Thu, 13 Apr 2017) $
#$Revision: 195386 $
#$URL: file:///home/coder/svn-repositories/cod/cif/4/34/56/4345680.cif $
#------------------------------------------------------------------------------
#
# This file is available in the Crystallography Open Database (COD),
# http://www.crystallography.net/
#
# All data on this site have been placed in the public domain by the
# contributors.
#
data_4345680
loop_
_publ_author_name
'Xie, Weiwei'
'Gustin, Lea'
'Bian, Guang'
_publ_section_title
;
 111-Type Semiconductor ReGaSi Follows 14e(-) Rules.
;
_journal_name_full               'Inorganic chemistry'
_journal_paper_doi               10.1021/acs.inorgchem.7b00309
_journal_year                    2017
_chemical_formula_sum            'Ga Re Si'
_chemical_formula_weight         284.01
_chemical_name_systematic
; 
 ? 
;
_space_group_crystal_system      tetragonal
_space_group_IT_number           129
_space_group_name_Hall           '-P 4a 2a'
_space_group_name_H-M_alt        'P 4/n m m'
_symmetry_space_group_name_Hall  '-P 4a 2a'
_symmetry_space_group_name_H-M   'P 4/n m m :2'
_audit_creation_method           SHELXL-2013
_cell_angle_alpha                90
_cell_angle_beta                 90
_cell_angle_gamma                90
_cell_formula_units_Z            2
_cell_length_a                   3.1942(10)
_cell_length_b                   3.1942(10)
_cell_length_c                   8.054(2)
_cell_measurement_reflns_used    225
_cell_measurement_temperature    300(2)
_cell_measurement_theta_max      31.98
_cell_measurement_theta_min      5.06
_cell_volume                     82.17(4)
_computing_cell_refinement       'Bruker SAINT'
_computing_data_collection       'Bruker APEX2'
_computing_data_reduction        'Bruker SAINT'
_computing_molecular_graphics    'Bruker SHELXTL'
_computing_publication_material  'Bruker SHELXTL'
_computing_structure_refinement  'SHELXL-2013 (Sheldrick, 2013)'
_computing_structure_solution    'SHELXS-97 (Sheldrick 2008)'
_diffrn_ambient_temperature      300(2)
_diffrn_measured_fraction_theta_full 0.985
_diffrn_measured_fraction_theta_max 0.939
_diffrn_measurement_device_type  'Bruker APEX-II CCD'
_diffrn_measurement_method       '\f and \w scans'
_diffrn_radiation_type           MoK\a
_diffrn_radiation_wavelength     0.71073
_diffrn_reflns_av_R_equivalents  0.0297
_diffrn_reflns_av_unetI/netI     0.0198
_diffrn_reflns_Laue_measured_fraction_full 0.985
_diffrn_reflns_Laue_measured_fraction_max 0.939
_diffrn_reflns_limit_h_max       4
_diffrn_reflns_limit_h_min       0
_diffrn_reflns_limit_k_max       2
_diffrn_reflns_limit_k_min       -4
_diffrn_reflns_limit_l_max       10
_diffrn_reflns_limit_l_min       -4
_diffrn_reflns_number            245
_diffrn_reflns_point_group_measured_fraction_full 0.985
_diffrn_reflns_point_group_measured_fraction_max 0.939
_diffrn_reflns_theta_full        25.242
_diffrn_reflns_theta_max         31.980
_diffrn_reflns_theta_min         2.529
_exptl_absorpt_coefficient_mu    90.076
_exptl_absorpt_correction_T_max  0.7463
_exptl_absorpt_correction_T_min  0.3724
_exptl_absorpt_correction_type   numerical
_exptl_absorpt_process_details   'SADABS Sheldrick'
_exptl_crystal_colour            silver
_exptl_crystal_density_diffrn    11.478
_exptl_crystal_density_meas      ?
_exptl_crystal_density_method    'not measured'
_exptl_crystal_description       cube
_exptl_crystal_F_000             240
_exptl_crystal_size_max          0.015
_exptl_crystal_size_mid          0.010
_exptl_crystal_size_min          0.005
_refine_diff_density_max         3.108
_refine_diff_density_min         -4.604
_refine_diff_density_rms         1.253
_refine_ls_extinction_coef       0.047(9)
_refine_ls_extinction_expression Fc^*^=kFc[1+0.001xFc^2^\l^3^/sin(2\q)]^-1/4^
_refine_ls_extinction_method     SHELXL
_refine_ls_goodness_of_fit_ref   1.249
_refine_ls_hydrogen_treatment    None
_refine_ls_matrix_type           full
_refine_ls_number_parameters     11
_refine_ls_number_reflns         108
_refine_ls_number_restraints     0
_refine_ls_restrained_S_all      1.249
_refine_ls_R_factor_all          0.0379
_refine_ls_R_factor_gt           0.0371
_refine_ls_shift/su_max          0.000
_refine_ls_shift/su_mean         0.000
_refine_ls_structure_factor_coef Fsqd
_refine_ls_weighting_details
'w=1/[\s^2^(Fo^2^)+(0.0664P)^2^+0.3450P] where P=(Fo^2^+2Fc^2^)/3'
_refine_ls_weighting_scheme      calc
_refine_ls_wR_factor_gt          0.0879
_refine_ls_wR_factor_ref         0.0887
_reflns_Friedel_coverage         0.000
_reflns_number_gt                105
_reflns_number_total             108
_reflns_threshold_expression     'I > 2\s(I)'
_cod_data_source_file            ic7b00309_si_001.cif
_cod_data_source_block           mo_Wei030_ReSiGa_b_cube_0m
_cod_depositor_comments
;
The following automatic conversions were performed:

'_exptl_absorpt_correction_type' value 'Numerical' changed to
'numerical' according to
/home/data/users/saulius/crontab/automatic-downloads/rss-feeds/ACS/lib/dictionaries/cif_core.dic
dictionary named 'cif_core.dic' version 2.4.2 from 2011-04-26.

'_exptl_crystal_density_meas' value 'None' was changed to '?' - the
value is perceived as not measured.

Automatic conversion script
Id: cif_fix_values 4973 2017-02-22 13:04:09Z antanas 
;
_cod_original_cell_volume        82.18(6)
_cod_database_code               4345680
_shelx_space_group_comment
; 
The symmetry employed for this shelxl refinement is uniquely defined 
by the following loop, which should always be used as a source of 
symmetry information in preference to the above space-group names. 
They are only intended as comments. 
;
_shelxl_version_number           2013-4
_shelx_res_file
; 
TITL mo_Wei030_RhSiGa_b_cube_0m in P4/nmm 
CELL 0.71073   3.19420   3.19420   8.05410  90.0000  90.0000  90.0000 
ZERR    2.00   0.00100   0.00100   0.00240   0.0000   0.0000   0.0000 
LATT  1 
SYMM 0.5-X, 0.5-Y, Z 
SYMM 0.5-Y, X, Z 
SYMM Y, 0.5-X, Z 
SYMM -X, 0.5+Y, -Z 
SYMM 0.5+X, -Y, -Z 
SYMM 0.5+Y, 0.5+X, -Z 
SYMM -Y, -X, -Z 
SFAC SI GA RE 
UNIT 2 2 2 
TEMP 26.630 
  
L.S. 10 
ACTA 
  
WGHT    0.066400    0.345000 
EXTI    0.047039 
FVAR       0.19768 
RE1   3    0.750000    0.750000    0.730625    10.12500    0.00775    0.00775 = 
         0.00149    0.00000    0.00000    0.00000 
GA2   2    0.250000    0.250000    0.914575    10.12500    0.01034    0.01034 = 
         0.00360    0.00000    0.00000    0.00000 
SI3   1    0.750000    0.750000    0.415152    10.12500    0.00868    0.00868 = 
         0.00060    0.00000    0.00000    0.00000 
HKLF 4 
  
REM  mo_Wei030_RhSiGa_b_cube_0m in P4/nmm 
REM R1 =  0.0371 for     105 Fo > 4sig(Fo)  and  0.0379 for all     108 data 
REM     11 parameters refined using      0 restraints 
  
END 
  
WGHT      0.0666      0.3450 
  
REM Highest difference peak  3.108,  deepest hole -4.604,  1-sigma level  1.253 
Q1    1   0.7500  0.9758  0.7325  10.50000  0.05    3.11 
Q2    1   0.7500  0.8717  0.2718  10.50000  0.05    2.92 
Q3    1   0.4505  1.0495  0.7353  10.50000  0.05    2.83 
Q4    1   0.5188 -0.0188  0.9086  10.50000  0.05    2.41 
Q5    1   0.5614  0.9386  0.4220  10.50000  0.05    2.02 
Q6    1   0.2500  0.2500  1.0441  10.12500  0.05    1.78 
Q7    1   0.4470  1.0530  0.4354  10.50000  0.05    1.75 
Q8    1   0.7500  0.8486  0.8622  10.50000  0.05    1.48 
Q9    1   0.7500  0.9498  0.5288  10.50000  0.05    1.25 
;
_shelx_res_checksum              64267
_shelx_hkl_file
; 
   1   0   0   -0.17    0.09 
   1   1   0 1000.00   12.58 
   1  -1   0  992.60   12.40 
   1  -2   0    0.16    0.24 
   2   1   0   -0.04    0.13 
   2   0   0  519.48    6.40 
   2  -1   0    0.06    0.15 
   2  -2   0  546.86    7.01 
   2  -3   0    0.81    0.35 
   3   2   0    0.55    0.24 
   3   1   0  364.96    4.87 
   3   0   0    0.12    0.17 
   3  -1   0  440.57    5.79 
   3  -2   0    0.79    0.25 
   3  -3   0  220.11    3.73 
   2  -4   0  202.86    4.60 
   1  -4   0    0.18    0.24 
   4   1   0    0.20    0.21 
   4   0   0  270.82    4.09 
   4  -1   0    0.16    0.21 
   4  -2   0  208.41    3.44 
   0   0   1    5.93    0.13 
   1   0  -1  230.04    2.84 
   1   0   1  229.94    2.88 
   1  -1  -1    4.23    0.21 
   1  -1   1    3.60    0.25 
   1   1   1    3.63    0.25 
   2   1  -1  159.93    2.37 
   1  -2  -1  159.70    2.44 
   1  -2   1  161.60    2.58 
   2   1   1  159.70    2.30 
   2   0  -1    2.42    0.23 
   2   0   1    2.18    0.22 
   2  -1  -1  194.84    2.65 
   2  -1   1  192.29    2.73 
   2  -2  -1    1.05    0.23 
   2  -2   1    1.43    0.29 
   2   2   1    2.06    0.32 
   2  -3  -1   84.35    1.91 
   3   2   1   88.40    1.74 
   2  -3   1   87.67    2.10 
   3   1  -1    0.60    0.20 
   3   1   1    1.21    0.23 
   3   0  -1  123.88    2.03 
   3   0   1  124.65    2.05 
   3  -1  -1    0.68    0.21 
   3  -1   1    0.25    0.20 
   3  -2  -1  102.25    1.84 
   3  -2   1  100.56    1.90 
   3  -3   1   -0.04    0.31 
   4   2   1    0.27    0.26 
   2  -4   1    0.38    0.37 
   1  -4  -1   80.48    1.68 
   4   1  -1   79.93    1.78 
   1  -4   1   78.82    1.78 
   4   1   1   80.19    1.72 
   4   0  -1    0.21    0.25 
   4   0   1    0.74    0.26 
   4  -1  -1   83.48    1.74 
   4  -1   1   79.74    1.71 
   4  -2   1    0.18    0.27 
   0   0   2  289.51    3.56 
   1   0  -2   98.34    1.39 
   1   0   2  101.23    1.41 
   1  -1  -2  243.16    2.95 
   1  -1   2  238.38    3.20 
   1   1   2  241.88    3.14 
   1  -2  -2   53.93    1.08 
   2   1  -2   55.47    1.20 
   2   1   2   55.62    1.04 
   1  -2   2   54.06    1.29 
   2   0  -2  179.67    2.47 
   2   0   2  174.90    2.52 
   2  -1  -2   67.01    1.11 
   2  -1   2   65.09    1.24 
   2  -2  -2  135.38    2.03 
   2   2   2  137.21    2.31 
   2  -2   2  139.12    2.34 
   3   2   2   23.85    0.82 
   2  -3   2   24.24    1.12 
   3   1  -2  109.34    2.01 
   3   1   2  108.85    1.88 
   3   0  -2   40.68    1.01 
   3   0   2   42.78    1.03 
   3  -1  -2  127.54    2.07 
   3  -1   2  125.48    2.16 
   3  -2  -2   25.28    1.07 
   3  -2   2   26.95    0.89 
   3  -3   2   63.51    1.77 
   4   2   2   59.79    1.53 
   2  -4   2   60.94    1.79 
   4   1  -2   20.19    0.92 
   1  -4   2   22.69    0.97 
   4   1   2   21.54    0.85 
   4   0  -2   87.83    1.87 
   4   0   2   85.06    1.83 
   4  -1  -2   18.65    1.22 
   4  -1   2   21.96    0.84 
   4  -2   2   68.21    1.70 
   0   0   3   84.67    1.17 
   1   0   3  651.05    7.86 
   1   1   3   50.88    0.91 
   1  -1   3   52.14    1.01 
   1  -2  -3  535.47    6.49 
   1  -2   3  527.48    7.04 
   2   1   3  519.27    6.60 
   2   0  -3   42.68    0.94 
   2   0   3   43.66    0.93 
   2  -1  -3  552.29    6.84 
   2  -1   3  563.80    7.08 
   2  -2  -3   29.11    0.66 
   2  -2   3   29.35    0.92 
   2   2   3   28.18    0.86 
   3   2   3  272.29    3.93 
   2  -3   3  257.22    4.54 
   3   1   3   21.22    0.71 
   1  -3   3   22.09    1.05 
   3   0  -3  387.07    5.20 
   3   0   3  370.56    5.16 
   3  -1  -3   28.31    0.82 
   3  -1   3   27.35    0.87 
   3  -2   3  283.75    4.23 
   3  -3   3   13.18    0.87 
   2  -4   3   12.33    0.93 
   4   2   3   12.89    0.72 
   1  -4   3  239.68    4.08 
   4   1   3  236.03    3.78 
   4   0  -3   18.44    0.89 
   4   0   3   19.85    0.85 
   4  -1   3  228.70    3.66 
   4  -2   3   12.12    0.75 
   0   0   4  203.86    2.61 
   1   0   4   34.30    0.71 
   0   1   4   34.25    0.56 
   1   1   4  142.12    2.02 
   1  -1   4  143.33    2.17 
   1  -2   4   24.11    0.89 
   2   1   4   23.36    0.65 
   2   0   4  118.75    1.92 
   2  -1  -4   24.15    0.56 
   2  -1   4   25.10    0.74 
   1   2   4   25.00    0.74 
   2   2   4   85.61    1.64 
   2  -2   4   82.84    1.73 
   2  -3   4   14.09    0.96 
   3   2   4   14.97    0.66 
   3   1   4   72.12    1.45 
   1  -3   4   68.31    1.98 
   3   0  -4   21.64    0.86 
   3   0   4   21.69    0.78 
   3  -1   4   80.28    1.67 
   3  -2   4   17.02    0.76 
   3  -3   4   42.58    1.50 
   2  -4   4   43.09    1.68 
   4   2   4   42.92    1.28 
   1  -4   4   14.74    0.96 
   4   1   4   15.34    0.77 
   4   0   4   60.22    1.54 
   4  -1   4   15.07    0.76 
   4  -2   4   45.58    1.41 
   0   0   5  286.24    3.63 
   1   0   5  132.15    1.96 
   0   1   5  134.92    1.73 
   1   1   5  213.12    2.88 
   1  -1   5  213.53    3.08 
   1  -2   5   93.74    1.91 
   2   1   5   89.44    1.58 
   2   0   5  164.01    2.52 
   2  -1   5   93.76    1.69 
   1   2   5   91.78    1.62 
   2  -2   5  113.28    2.16 
   2   2   5  111.26    1.98 
   2  -3   5   53.06    1.80 
   3   2   5   53.79    1.33 
   1  -3   5   91.03    2.40 
   3   1   5   92.91    1.76 
   3   0   5   79.13    1.67 
   3  -1   5  100.91    1.98 
   3  -2   5   54.68    1.42 
   3  -3   5   46.58    1.60 
   4   1   5   52.01    1.44 
   1  -4   5   52.09    1.80 
   4   0   5   72.80    1.76 
   4  -1   5   50.34    1.42 
   0   0   6  575.84    7.04 
   0   1   6  138.06    1.79 
   1   0   6  138.83    2.06 
   0  -1   6  137.12    2.20 
   1   1   6  454.35    5.62 
   1  -1   6  437.02    5.85 
   2   1   6   94.12    1.68 
   1  -2   6   99.52    2.03 
   2   0   6  344.45    4.70 
   2  -1   6   95.23    1.77 
   1   2   6   93.48    1.61 
   2  -2   6  248.28    3.91 
   2   2   6  253.48    3.68 
   3   2   6   55.72    1.40 
   2  -3   6   57.55    1.92 
   1  -3   6  201.62    4.01 
   3   1   6  209.04    3.22 
   3   0   6   79.32    1.71 
   3  -1   6  224.67    3.56 
   3  -2   6   53.42    1.44 
   1  -4   6   51.35    1.87 
   4   1   6   51.00    1.45 
   4   0   6  152.32    2.86 
   4  -1   6   44.02    1.34 
   0   0   7  129.86    1.90 
   0  -1   7   41.90    1.02 
   1   0   7   41.56    0.93 
   1   1   7   97.29    1.59 
   1  -1   7   98.14    1.79 
   1  -2   7   31.39    1.13 
   2   1   7   33.33    0.90 
   2   0   7   86.30    1.66 
   2  -1   7   30.30    0.93 
   2  -2   7   62.31    1.57 
   2   2   7   62.78    1.37 
   3   2   7   23.27    0.92 
   2  -3   7   22.91    1.28 
   3   1   7   54.18    1.34 
   1  -3   7   54.12    1.89 
   3   0   7   29.60    1.00 
   3  -1   7   58.44    1.48 
   3  -2   7   19.32    0.88 
   0   0   8   44.91    0.92 
   1   0   8  255.78    3.63 
   0  -1   8  261.07    3.76 
   1  -1   8   33.56    0.96 
   1  -2   8  206.48    3.61 
   2   1   8  206.89    3.20 
   0  -2   8   30.80    1.21 
   2   0   8   30.40    0.93 
   2  -1   8  174.70    2.89 
   2  -2   8   20.00    0.90 
   1  -3   8   21.58    1.32 
   3   1   8   21.39    0.86 
   0  -3   8  143.76    3.21 
   3   0   8  142.14    2.62 
   3  -1   8   20.35    0.88 
   1   0   9  199.49    3.04 
   0  -1   9  200.48    3.14 
   1  -1   9  150.04    2.54 
   1  -2   9  146.69    2.92 
   2   0   9  142.56    2.49 
   0  -2   9  138.62    2.82 
   2  -1   9  124.30    2.32 
   2  -2   9  100.54    2.19 
   0  -3   9   94.53    2.55 
   3   0   9   96.26    2.05 
   1  -1  10    2.03    0.35 
   1  -2  10  106.62    2.43 
   0  -2  10    2.64    0.54 
   2   0  10    1.51    0.48 
   2  -1  10   95.23    2.01 
   0   0   0    0.00    0.00 
;
_shelx_hkl_checksum              67778
loop_
_space_group_symop_operation_xyz
'x, y, z'
'-x+1/2, -y+1/2, z'
'-y+1/2, x, z'
'y, -x+1/2, z'
'-x, y+1/2, -z'
'x+1/2, -y, -z'
'y+1/2, x+1/2, -z'
'-y, -x, -z'
'-x, -y, -z'
'x-1/2, y-1/2, -z'
'y-1/2, -x, -z'
'-y, x-1/2, -z'
'x, -y-1/2, z'
'-x-1/2, y, z'
'-y-1/2, -x-1/2, z'
'y, x, z'
loop_
_atom_site_label
_atom_site_type_symbol
_atom_site_fract_x
_atom_site_fract_y
_atom_site_fract_z
_atom_site_U_iso_or_equiv
_atom_site_adp_type
_atom_site_occupancy
_atom_site_site_symmetry_order
_atom_site_calc_flag
_atom_site_refinement_flags_posn
_atom_site_refinement_flags_adp
_atom_site_refinement_flags_occupancy
Re1 Re 0.7500 0.7500 0.73063(13) 0.0053(5) Uani 1 8 d S T P
Ga2 Ga 0.2500 0.2500 0.9146(3) 0.0081(7) Uani 1 8 d S T P
Si3 Si 0.7500 0.7500 0.4152(8) 0.0060(16) Uani 1 8 d S T P
loop_
_atom_site_aniso_label
_atom_site_aniso_U_11
_atom_site_aniso_U_22
_atom_site_aniso_U_33
_atom_site_aniso_U_23
_atom_site_aniso_U_13
_atom_site_aniso_U_12
Re1 0.0077(5) 0.0077(5) 0.0015(8) 0.000 0.000 0.000
Ga2 0.0103(10) 0.0103(10) 0.0036(17) 0.000 0.000 0.000
Si3 0.009(2) 0.009(2) 0.001(4) 0.000 0.000 0.000
loop_
_atom_type_symbol
_atom_type_description
_atom_type_scat_dispersion_real
_atom_type_scat_dispersion_imag
_atom_type_scat_source
Si Si 0.0817 0.0704 'International Tables Vol C Tables 4.2.6.8 and 6.1.1.4'
Ga Ga 0.2307 1.6083 'International Tables Vol C Tables 4.2.6.8 and 6.1.1.4'
Re Re -1.0185 7.2310 'International Tables Vol C Tables 4.2.6.8 and 6.1.1.4'
loop_
_geom_angle_atom_site_label_1
_geom_angle_atom_site_label_2
_geom_angle_atom_site_label_3
_geom_angle
_geom_angle_site_symmetry_1
_geom_angle_site_symmetry_3
Si3 Re1 Si3 62.53(13) . 9_666
Si3 Re1 Si3 62.53(13) . 9_776
Si3 Re1 Si3 125.1(3) 9_666 9_776
Si3 Re1 Si3 62.53(13) . 9_676
Si3 Re1 Si3 77.72(11) 9_666 9_676
Si3 Re1 Si3 77.72(11) 9_776 9_676
Si3 Re1 Si3 62.53(13) . 9_766
Si3 Re1 Si3 77.72(11) 9_666 9_766
Si3 Re1 Si3 77.72(11) 9_776 9_766
Si3 Re1 Si3 125.1(3) 9_676 9_766
Si3 Re1 Ga2 123.26(5) . 1_665
Si3 Re1 Ga2 174.20(15) 9_666 1_665
Si3 Re1 Ga2 60.73(12) 9_776 1_665
Si3 Re1 Ga2 104.65(6) 9_676 1_665
Si3 Re1 Ga2 104.65(6) 9_766 1_665
Si3 Re1 Ga2 123.26(5) . 1_565
Si3 Re1 Ga2 104.65(6) 9_666 1_565
Si3 Re1 Ga2 104.65(6) 9_776 1_565
Si3 Re1 Ga2 60.73(12) 9_676 1_565
Si3 Re1 Ga2 174.20(15) 9_766 1_565
Ga2 Re1 Ga2 72.49(5) 1_665 1_565
Si3 Re1 Ga2 123.26(5) . 1_655
Si3 Re1 Ga2 104.65(6) 9_666 1_655
Si3 Re1 Ga2 104.65(6) 9_776 1_655
Si3 Re1 Ga2 174.20(15) 9_676 1_655
Si3 Re1 Ga2 60.73(12) 9_766 1_655
Ga2 Re1 Ga2 72.49(5) 1_665 1_655
Ga2 Re1 Ga2 113.48(10) 1_565 1_655
Si3 Re1 Ga2 123.26(5) . .
Si3 Re1 Ga2 60.73(12) 9_666 .
Si3 Re1 Ga2 174.20(15) 9_776 .
Si3 Re1 Ga2 104.65(6) 9_676 .
Si3 Re1 Ga2 104.65(6) 9_766 .
Ga2 Re1 Ga2 113.47(10) 1_665 .
Ga2 Re1 Ga2 72.49(5) 1_565 .
Ga2 Re1 Ga2 72.49(5) 1_655 .
Si3 Re1 Ga2 180.0 . 9_667
Si3 Re1 Ga2 117.47(13) 9_666 9_667
Si3 Re1 Ga2 117.47(13) 9_776 9_667
Si3 Re1 Ga2 117.47(13) 9_676 9_667
Si3 Re1 Ga2 117.47(13) 9_766 9_667
Ga2 Re1 Ga2 56.74(5) 1_665 9_667
Ga2 Re1 Ga2 56.74(5) 1_565 9_667
Ga2 Re1 Ga2 56.74(5) 1_655 9_667
Ga2 Re1 Ga2 56.74(5) . 9_667
Si3 Re1 Re1 90.0 . 1_545
Si3 Re1 Re1 51.14(5) 9_666 1_545
Si3 Re1 Re1 128.86(5) 9_776 1_545
Si3 Re1 Re1 128.86(5) 9_676 1_545
Si3 Re1 Re1 51.14(5) 9_766 1_545
Ga2 Re1 Re1 126.25(2) 1_665 1_545
Ga2 Re1 Re1 126.25(2) 1_565 1_545
Ga2 Re1 Re1 53.75(2) 1_655 1_545
Ga2 Re1 Re1 53.75(2) . 1_545
Ga2 Re1 Re1 90.0 9_667 1_545
Si3 Re1 Re1 90.0 . 1_565
Si3 Re1 Re1 128.86(5) 9_666 1_565
Si3 Re1 Re1 51.14(5) 9_776 1_565
Si3 Re1 Re1 51.14(5) 9_676 1_565
Si3 Re1 Re1 128.86(5) 9_766 1_565
Ga2 Re1 Re1 53.75(2) 1_665 1_565
Ga2 Re1 Re1 53.75(2) 1_565 1_565
Ga2 Re1 Re1 126.25(2) 1_655 1_565
Ga2 Re1 Re1 126.25(2) . 1_565
Ga2 Re1 Re1 90.0 9_667 1_565
Re1 Re1 Re1 180.0 1_545 1_565
Ga2 Ga2 Ga2 117.30(19) 9_667 9_557
Ga2 Ga2 Ga2 74.29(9) 9_667 9_567
Ga2 Ga2 Ga2 74.29(9) 9_557 9_567
Ga2 Ga2 Ga2 74.29(9) 9_667 9_657
Ga2 Ga2 Ga2 74.29(9) 9_557 9_657
Ga2 Ga2 Ga2 117.30(19) 9_567 9_657
Ga2 Ga2 Si3 121.35(10) 9_667 9_666
Ga2 Ga2 Si3 121.35(10) 9_557 9_666
Ga2 Ga2 Si3 121.35(10) 9_567 9_666
Ga2 Ga2 Si3 121.35(10) 9_657 9_666
Ga2 Ga2 Re1 64.61(6) 9_667 .
Ga2 Ga2 Re1 178.09(14) 9_557 .
Ga2 Ga2 Re1 106.58(3) 9_567 .
Ga2 Ga2 Re1 106.58(3) 9_657 .
Si3 Ga2 Re1 56.74(5) 9_666 .
Ga2 Ga2 Re1 178.09(14) 9_667 1_445
Ga2 Ga2 Re1 64.61(6) 9_557 1_445
Ga2 Ga2 Re1 106.58(3) 9_567 1_445
Ga2 Ga2 Re1 106.58(3) 9_657 1_445
Si3 Ga2 Re1 56.74(5) 9_666 1_445
Re1 Ga2 Re1 113.47(10) . 1_445
Ga2 Ga2 Re1 106.58(3) 9_667 1_455
Ga2 Ga2 Re1 106.58(3) 9_557 1_455
Ga2 Ga2 Re1 64.61(6) 9_567 1_455
Ga2 Ga2 Re1 178.09(14) 9_657 1_455
Si3 Ga2 Re1 56.74(5) 9_666 1_455
Re1 Ga2 Re1 72.49(5) . 1_455
Re1 Ga2 Re1 72.49(5) 1_445 1_455
Ga2 Ga2 Re1 106.58(3) 9_667 1_545
Ga2 Ga2 Re1 106.58(3) 9_557 1_545
Ga2 Ga2 Re1 178.09(14) 9_567 1_545
Ga2 Ga2 Re1 64.61(6) 9_657 1_545
Si3 Ga2 Re1 56.74(5) 9_666 1_545
Re1 Ga2 Re1 72.49(5) . 1_545
Re1 Ga2 Re1 72.49(5) 1_445 1_545
Re1 Ga2 Re1 113.47(10) 1_455 1_545
Ga2 Ga2 Re1 58.65(10) 9_667 9_667
Ga2 Ga2 Re1 58.65(10) 9_557 9_667
Ga2 Ga2 Re1 58.65(10) 9_567 9_667
Ga2 Ga2 Re1 58.65(10) 9_657 9_667
Si3 Ga2 Re1 180.0 9_666 9_667
Re1 Ga2 Re1 123.26(5) . 9_667
Re1 Ga2 Re1 123.26(5) 1_445 9_667
Re1 Ga2 Re1 123.26(5) 1_455 9_667
Re1 Ga2 Re1 123.26(5) 1_545 9_667
Re1 Si3 Re1 117.47(13) . 9_666
Re1 Si3 Re1 117.47(13) . 9_776
Re1 Si3 Re1 125.1(3) 9_666 9_776
Re1 Si3 Re1 117.47(13) . 9_766
Re1 Si3 Re1 77.72(11) 9_666 9_766
Re1 Si3 Re1 77.72(11) 9_776 9_766
Re1 Si3 Re1 117.47(13) . 9_676
Re1 Si3 Re1 77.72(11) 9_666 9_676
Re1 Si3 Re1 77.72(11) 9_776 9_676
Re1 Si3 Re1 125.1(3) 9_766 9_676
Re1 Si3 Si3 58.8(2) . 9_776
Re1 Si3 Si3 176.3(4) 9_666 9_776
Re1 Si3 Si3 58.64(11) 9_776 9_776
Re1 Si3 Si3 103.81(4) 9_766 9_776
Re1 Si3 Si3 103.81(4) 9_676 9_776
Re1 Si3 Si3 58.8(2) . 9_666
Re1 Si3 Si3 58.64(11) 9_666 9_666
Re1 Si3 Si3 176.3(4) 9_776 9_666
Re1 Si3 Si3 103.81(4) 9_766 9_666
Re1 Si3 Si3 103.81(4) 9_676 9_666
Si3 Si3 Si3 117.6(5) 9_776 9_666
Re1 Si3 Si3 58.8(2) . 9_676
Re1 Si3 Si3 103.81(4) 9_666 9_676
Re1 Si3 Si3 103.81(4) 9_776 9_676
Re1 Si3 Si3 176.3(4) 9_766 9_676
Re1 Si3 Si3 58.64(11) 9_676 9_676
Si3 Si3 Si3 74.5(2) 9_776 9_676
Si3 Si3 Si3 74.5(2) 9_666 9_676
Re1 Si3 Si3 58.8(2) . 9_766
Re1 Si3 Si3 103.81(4) 9_666 9_766
Re1 Si3 Si3 103.81(4) 9_776 9_766
Re1 Si3 Si3 58.64(11) 9_766 9_766
Re1 Si3 Si3 176.3(4) 9_676 9_766
Si3 Si3 Si3 74.5(2) 9_776 9_766
Si3 Si3 Si3 74.5(2) 9_666 9_766
Si3 Si3 Si3 117.6(5) 9_676 9_766
Re1 Si3 Ga2 180.0 . 9_666
Re1 Si3 Ga2 62.53(13) 9_666 9_666
Re1 Si3 Ga2 62.53(13) 9_776 9_666
Re1 Si3 Ga2 62.53(13) 9_766 9_666
Re1 Si3 Ga2 62.53(13) 9_676 9_666
Si3 Si3 Ga2 121.2(2) 9_776 9_666
Si3 Si3 Ga2 121.2(2) 9_666 9_666
Si3 Si3 Ga2 121.2(2) 9_676 9_666
Si3 Si3 Ga2 121.2(2) 9_766 9_666
loop_
_geom_bond_atom_site_label_1
_geom_bond_atom_site_label_2
_geom_bond_distance
_geom_bond_site_symmetry_2
Re1 Si3 2.541(6) .
Re1 Si3 2.546(3) 9_666
Re1 Si3 2.546(3) 9_776
Re1 Si3 2.546(3) 9_676
Re1 Si3 2.546(3) 9_766
Re1 Ga2 2.7012(16) 1_665
Re1 Ga2 2.7012(16) 1_565
Re1 Ga2 2.7012(16) 1_655
Re1 Ga2 2.7012(16) .
Re1 Ga2 2.858(3) 9_667
Re1 Re1 3.1942(10) 1_545
Re1 Re1 3.1942(10) 1_565
Ga2 Ga2 2.645(3) 9_667
Ga2 Ga2 2.645(3) 9_557
Ga2 Ga2 2.645(3) 9_567
Ga2 Ga2 2.645(3) 9_657
Ga2 Si3 2.656(6) 9_666
Ga2 Re1 2.7012(16) 1_445
Ga2 Re1 2.7012(16) 1_455
Ga2 Re1 2.7012(16) 1_545
Ga2 Re1 2.858(3) 9_667
Si3 Re1 2.546(3) 9_666
Si3 Re1 2.546(3) 9_776
Si3 Re1 2.546(3) 9_766
Si3 Re1 2.546(3) 9_676
Si3 Si3 2.640(7) 9_776
Si3 Si3 2.640(7) 9_666
Si3 Si3 2.640(7) 9_676
Si3 Si3 2.640(7) 9_766
Si3 Ga2 2.656(6) 9_666
