#------------------------------------------------------------------------------
#$Date: 2017-06-05 03:11:43 +0300 (Mon, 05 Jun 2017) $
#$Revision: 197405 $
#$URL: file:///home/coder/svn-repositories/cod/cif/4/34/57/4345748.cif $
#------------------------------------------------------------------------------
#
# This file is available in the Crystallography Open Database (COD),
# http://www.crystallography.net/
#
# All data on this site have been placed in the public domain by the
# contributors.
#
data_4345748
loop_
_publ_author_name
'L\"u, Minfeng'
'Jo, Hongil'
'Oh, Seung-Jin'
'Lee, Suheon'
'Choi, Kwang-Yong'
'Yu, Yang'
'Ok, Kang Min'
_publ_section_title
;
 Syntheses, Structures, and Characterization of Quaternary Tellurites,
 Li3MTe4O11 (M = Al, Ga, and Fe).
;
_journal_issue                   10
_journal_name_full               'Inorganic chemistry'
_journal_page_first              5873
_journal_page_last               5879
_journal_paper_doi               10.1021/acs.inorgchem.7b00530
_journal_volume                  56
_journal_year                    2017
_chemical_formula_sum            'Al2 Li6 O22 Te8'
_chemical_formula_weight         1468.40
_space_group_IT_number           15
_symmetry_cell_setting           monoclinic
_symmetry_Int_Tables_number      15
_symmetry_space_group_name_Hall  '-C 2yc'
_symmetry_space_group_name_H-M   'C 1 2/c 1'
_cell_angle_alpha                90
_cell_angle_beta                 109.632(12)
_cell_angle_gamma                90
_cell_formula_units_Z            2
_cell_length_a                   18.9467(4)
_cell_length_b                   5.13400(10)
_cell_length_c                   10.6284(2)
_cell_measurement_reflns_used    1928
_cell_measurement_temperature    298.0
_cell_measurement_theta_max      28.075
_cell_measurement_theta_min      3.942
_cell_volume                     973.75(8)
_diffrn_ambient_temperature      298.0
_diffrn_measured_fraction_theta_full 1
_diffrn_measured_fraction_theta_max 1
_diffrn_measurement_device       CCD
_diffrn_measurement_device_type  'Bruker SMART BREEZE'
_diffrn_radiation_monochromator  graphite
_diffrn_radiation_probe          x-ray
_diffrn_radiation_source         'X-ray tube'
_diffrn_radiation_type           'Mo K\a'
_diffrn_radiation_wavelength     0.71073
_diffrn_reflns_av_R_equivalents  0.0585
_diffrn_reflns_av_unetI/netI     0.0472
_diffrn_reflns_limit_h_max       24
_diffrn_reflns_limit_h_min       -24
_diffrn_reflns_limit_k_max       6
_diffrn_reflns_limit_k_min       -6
_diffrn_reflns_limit_l_max       14
_diffrn_reflns_limit_l_min       -14
_diffrn_reflns_number            7587
_diffrn_reflns_theta_full        28.26
_diffrn_reflns_theta_max         28.26
_diffrn_reflns_theta_min         2.28
_exptl_absorpt_coefficient_mu    12.009
_exptl_absorpt_correction_T_max  0.7457
_exptl_absorpt_correction_T_min  0.5617
_exptl_absorpt_correction_type   multi-scan
_exptl_absorpt_process_details   Bruker
_exptl_crystal_colour            colorless
_exptl_crystal_density_diffrn    5.0081
_exptl_crystal_description       brick
_exptl_crystal_F_000             1272
_exptl_crystal_size_max          0.075
_exptl_crystal_size_mid          0.025
_exptl_crystal_size_min          0.020
_refine_diff_density_max         1.67
_refine_diff_density_min         -1.26
_refine_ls_extinction_method     none
_refine_ls_goodness_of_fit_gt    1.28
_refine_ls_goodness_of_fit_ref   1.23
_refine_ls_number_constraints    0
_refine_ls_number_parameters     55
_refine_ls_number_reflns         1198
_refine_ls_number_restraints     0
_refine_ls_R_factor_all          0.0483
_refine_ls_R_factor_gt           0.0340
_refine_ls_shift/su_max          0.0127
_refine_ls_shift/su_mean         0.0009
_refine_ls_structure_factor_coef F
_refine_ls_weighting_details     w=1/(\s^2^(F)+0.0001F^2^)
_refine_ls_weighting_scheme      sigma
_refine_ls_wR_factor_gt          0.0320
_refine_ls_wR_factor_ref         0.0346
_reflns_number_gt                944
_reflns_number_total             1198
_reflns_threshold_expression     I>3\s(I)
_cod_data_source_file            ic7b00530_si_002.cif
_cod_data_source_block           Li3AlTe4O11
_cod_depositor_comments
;
The following automatic conversions were performed:

'_diffrn_radiation_probe' value 'X-ray' changed to 'x-ray' according
to
/home/data/users/saulius/crontab/automatic-downloads/rss-feeds/ACS/lib/dictionaries/cif_core.dic
dictionary named 'cif_core.dic' version 2.4.2 from 2011-04-26.

Automatic conversion script
Id: cif_fix_values 4973 2017-02-22 13:04:09Z antanas 

 Adding full bibliography for 4345748--4345749.cif.
;
_cod_database_code               4345748
loop_
_space_group_symop_id
_space_group_symop_operation_xyz
1 x,y,z
2 -x,y,-z+1/2
3 -x,-y,-z
4 x,-y,z+1/2
5 x+1/2,y+1/2,z
6 -x+1/2,y+1/2,-z+1/2
7 -x+1/2,-y+1/2,-z
8 x+1/2,-y+1/2,z+1/2
loop_
_atom_site_label
_atom_site_type_symbol
_atom_site_fract_x
_atom_site_fract_y
_atom_site_fract_z
_atom_site_adp_type
_atom_site_U_iso_or_equiv
_atom_site_site_symmetry_multiplicity
_atom_site_occupancy
_atom_site_calc_flag
Te1 Te 0.66643(3) 0.16645(10) 0.17124(5) Uani 0.01316(18) 8 1 d
Te2 Te 0.55790(3) -0.26612(10) -0.05841(6) Uani 0.0181(2) 8 1 d
Al1 Al 0.75 0.25 0.5 Uani 0.0103(11) 4 1 d
O1 O 0.6488(3) -0.3837(10) -0.0709(5) Uiso 0.0150(12) 8 1 d
O2 O 0.7237(3) 0.0598(10) 0.0682(5) Uiso 0.0126(11) 8 1 d
O3 O 0.7343(3) 0.0658(10) 0.3357(5) Uiso 0.0135(12) 8 1 d
O4 O 0.6135(3) -0.1478(10) 0.1592(5) Uiso 0.0213(13) 8 1 d
O5 O 0.5646(3) 0.0839(10) -0.0931(5) Uiso 0.0174(13) 8 1 d
O6 O 0.5 -0.3734(16) -0.25 Uiso 0.029(2) 4 1 d
Li1 Li 0.6718(9) -0.748(3) -0.1202(16) Uiso 0.028(4) 8 1 d
Li2 Li 0.4804(17) 0.225(6) -0.228(3) Uiso 0.029(8) 8 0.5 d
loop_
_atom_site_aniso_label
_atom_site_aniso_type_symbol
_atom_site_aniso_U_11
_atom_site_aniso_U_22
_atom_site_aniso_U_33
_atom_site_aniso_U_12
_atom_site_aniso_U_13
_atom_site_aniso_U_23
Te1 Te 0.0137(3) 0.0140(3) 0.0113(3) 0.0039(2) 0.0036(2) 0.0001(2)
Te2 Te 0.0118(3) 0.0138(3) 0.0300(4) 0.0006(2) 0.0088(3) 0.0041(2)
Al1 Al 0.0110(17) 0.0115(17) 0.0084(17) -0.0024(13) 0.0032(14) -0.0001(13)
loop_
_atom_type_symbol
_atom_type_scat_dispersion_real
_atom_type_scat_dispersion_imag
_atom_type_scat_source
Al 0.0645 0.0514 'International Tables Vol C tables 4.2.6.8 and 6.1.1.1'
Li -0.0003 0.0001 'International Tables Vol C tables 4.2.6.8 and 6.1.1.1'
O 0.0106 0.0060 'International Tables Vol C tables 4.2.6.8 and 6.1.1.1'
Te -0.5308 1.6751 'International Tables Vol C tables 4.2.6.8 and 6.1.1.1'
loop_
_geom_angle_atom_site_label_1
_geom_angle_atom_site_label_2
_geom_angle_atom_site_label_3
_geom_angle_site_symmetry_3
_geom_angle
O2 Te1 O3 . 96.6(2)
O2 Te1 O4 . 96.3(3)
O3 Te1 O4 . 90.6(2)
O1 Te2 O5 . 100.0(2)
O5 Li2 O5 2_654 125.5(17)
loop_
_geom_bond_atom_site_label_1
_geom_bond_atom_site_label_2
_geom_bond_site_symmetry_2
_geom_bond_distance
Te1 O2 . 1.864(6)
Te1 O3 . 1.862(4)
Te1 O4 . 1.881(6)
Te2 O1 . 1.871(6)
Te2 O5 . 1.847(5)
Li1 O1 . 2.026(17)
Li2 O5 . 1.90(3)
Li2 O5 2_654 1.94(3)
loop_
_refln_index_h
_refln_index_k
_refln_index_l
_refln_F_squared_calc
_refln_F_squared_meas
_refln_F_squared_sigma
_refln_observed_status
2 0 0 48.80 169.82 33.96 o
4 0 0 6204.45 5977.81 305.68 o
6 0 0 3676.60 3056.83 237.75 o
8 0 0 122003.00 118062.00 1460.49 o
10 0 0 192770.00 189863.00 2751.15 o
12 0 0 38836.90 39535.00 1358.59 o
14 0 0 231.69 339.65 373.61 <
16 0 0 9187.02 8898.78 1086.87 o
18 0 0 119175.00 123530.00 3736.13 o
20 0 0 387.69 679.30 475.51 <
22 0 0 9610.43 10257.40 1494.45 o
1 1 0 10110.20 11242.30 237.75 o
3 1 0 46581.30 47177.10 577.40 o
5 1 0 7003.85 6860.89 237.75 o
7 1 0 444.67 917.05 101.89 o
9 1 0 3337.57 3430.45 237.75 o
11 1 0 702.58 645.33 135.86 o
13 1 0 5414.92 5706.09 543.44 o
15 1 0 17317.70 17152.20 1052.91 o
17 1 0 3701.30 3260.62 509.47 o
19 1 0 260.44 305.68 339.65 <
21 1 0 6498.78 5977.81 849.12 o
23 1 0 453.80 -67.93 441.54 <
0 2 0 201754.00 192614.00 1868.06 o
2 2 0 25844.60 25745.30 441.54 o
4 2 0 3291.46 3566.30 203.79 o
6 2 0 16.06 135.86 67.93 <
8 2 0 85746.00 85727.20 951.01 o
10 2 0 70425.70 72684.70 1154.80 o
12 2 0 3757.40 3056.83 339.65 o
14 2 0 746.56 339.65 271.72 <
16 2 0 19590.90 21024.20 1562.38 o
18 2 0 38427.20 40452.10 1698.24 o
20 2 0 3207.56 2411.50 509.47 o
22 2 0 3914.69 3260.62 679.30 o
1 3 0 3243.69 3022.87 203.79 o
3 3 0 82604.40 84266.70 951.01 o
5 3 0 9328.83 9068.60 339.65 o
7 3 0 30795.60 30908.00 645.33 o
9 3 0 21415.40 21975.20 611.37 o
11 3 0 22926.50 23401.70 951.01 o
13 3 0 3078.95 3090.80 475.51 o
15 3 0 36361.60 37293.40 1358.59 o
17 3 0 887.24 1358.59 475.51 <
19 3 0 1305.49 917.05 509.47 <
21 3 0 17934.90 18952.40 1800.13 o
0 4 0 4511.60 4992.83 679.30 o
2 4 0 25140.70 26220.80 984.98 o
4 4 0 15182.80 15521.90 883.09 o
6 4 0 51014.80 52237.90 1256.70 o
8 4 0 16024.20 16099.30 984.98 o
10 4 0 10139.90 10121.50 713.26 o
12 4 0 12319.30 12261.30 849.12 o
14 4 0 2137.20 2275.64 509.47 o
16 4 0 27235.00 26356.70 1902.03 o
18 4 0 953.91 1188.77 815.16 <
1 5 0 1344.28 645.33 271.72 <
3 5 0 15690.40 16337.10 1086.87 o
5 5 0 4346.52 3124.76 611.37 o
7 5 0 16112.40 15623.80 1256.70 o
9 5 0 17.26 -203.79 339.65 <
11 5 0 9016.72 9442.21 747.23 o
13 5 0 429.93 577.40 407.58 <
15 5 0 8446.89 8762.92 917.05 o
0 6 0 315.87 883.09 577.40 <
2 6 0 14624.60 15216.20 1154.80 o
4 6 0 11437.10 11208.40 1154.80 o
6 6 0 43352.10 47584.70 2071.85 o
8 6 0 1053.62 543.44 441.54 <
10 6 0 2683.52 2037.89 543.44 o
-23 1 1 24601.20 24047.10 1698.24 o
-21 1 1 6226.89 3838.02 645.33 o
-19 1 1 11594.30 9815.83 984.98 o
-17 1 1 35627.20 35629.10 1494.45 o
-15 1 1 69044.70 71903.50 1766.17 o
-13 1 1 20522.20 20141.10 815.16 o
-11 1 1 7903.57 8627.06 339.65 o
-9 1 1 74648.00 76115.10 849.12 o
-7 1 1 726.72 679.30 101.89 o
-5 1 1 319855.00 304257.00 1630.31 o
-3 1 1 4689.54 5230.58 237.75 o
-1 1 1 85433.20 84232.70 815.16 o
1 1 1 35981.20 35798.90 441.54 o
3 1 1 207922.00 198015.00 1222.73 o
5 1 1 62926.80 60457.30 611.37 o
7 1 1 1629.70 1935.99 169.82 o
9 1 1 96363.10 97954.50 1052.91 o
11 1 1 14924.30 15861.60 509.47 o
13 1 1 126281.00 129202.00 2275.64 o
15 1 1 2628.23 3124.76 577.40 o
17 1 1 2753.46 1969.96 441.54 o
19 1 1 8964.81 7913.80 849.12 o
21 1 1 42536.10 41742.70 2139.78 o
-22 2 1 639.42 849.12 441.54 <
-20 2 1 19832.70 19495.80 1358.59 o
-18 2 1 10287.60 10631.00 917.05 o
-16 2 1 1864.29 2003.92 407.58 o
-14 2 1 15905.00 15420.00 849.12 o
-12 2 1 69713.00 69424.10 1392.56 o
-10 2 1 543.17 305.68 135.86 <
-8 2 1 45632.90 46192.10 747.23 o
-6 2 1 18128.70 17525.80 339.65 o
-4 2 1 42.31 -67.93 67.93 <
-2 2 1 161581.00 162488.00 1290.66 o
0 2 1 25658.20 23877.30 373.61 o
2 2 1 259.18 203.79 67.93 o
4 2 1 14463.60 13552.00 305.68 o
6 2 1 65131.10 65654.00 679.30 o
8 2 1 1633.83 1358.59 169.82 o
10 2 1 40571.40 40825.70 883.09 o
12 2 1 6658.12 6011.77 475.51 o
14 2 1 1193.06 815.16 339.65 <
16 2 1 21824.30 20616.60 1358.59 o
18 2 1 7551.39 6589.17 781.19 o
20 2 1 144.03 407.58 407.58 <
22 2 1 2066.95 1969.96 577.40 o
-21 3 1 13948.30 12668.90 1392.56 o
-19 3 1 12197.50 10053.60 1188.77 o
-17 3 1 3360.36 3600.27 611.37 o
-15 3 1 3839.76 3702.16 577.40 o
-13 3 1 42295.30 40621.90 1460.49 o
-11 3 1 33978.30 34202.60 917.05 o
-9 3 1 14885.20 14265.20 543.44 o
-7 3 1 67.23 203.79 101.89 <
-5 3 1 52190.20 53120.90 849.12 o
-3 3 1 56382.60 55668.30 781.19 o
-1 3 1 32080.60 31519.30 611.37 o
1 3 1 857.40 781.19 101.89 o
3 3 1 14167.00 14672.80 407.58 o
5 3 1 115610.00 116805.00 1086.87 o
7 3 1 26651.50 27273.70 679.30 o
9 3 1 5187.26 4721.11 339.65 o
11 3 1 16238.20 15454.00 781.19 o
13 3 1 14964.90 13314.20 951.01 o
15 3 1 27629.60 28190.80 1426.52 o
17 3 1 2684.85 2411.50 543.44 o
19 3 1 1244.98 1188.77 475.51 <
-18 4 1 2869.76 3260.62 951.01 o
-16 4 1 253.90 917.05 543.44 <
-14 4 1 3890.14 2717.18 509.47 o
-12 4 1 30925.70 30874.00 1222.73 o
-10 4 1 2623.85 2785.11 407.58 o
-8 4 1 26929.20 25677.40 1018.94 o
-6 4 1 17168.30 16337.10 747.23 o
-4 4 1 8983.95 8728.95 645.33 o
-2 4 1 31664.20 30466.40 1052.91 o
0 4 1 10436.90 10155.50 781.19 o
2 4 1 573.85 713.26 237.75 <
4 4 1 10492.40 11649.90 645.33 o
6 4 1 50821.50 52271.80 1494.45 o
8 4 1 337.23 475.51 271.72 <
10 4 1 17354.20 17220.20 984.98 o
12 4 1 8149.09 8593.09 815.16 o
14 4 1 2788.15 1290.66 373.61 o
16 4 1 15928.40 18476.90 1664.28 o
-15 5 1 222.01 -543.44 407.58 <
-13 5 1 9696.89 8728.95 781.19 o
-11 5 1 60113.10 60321.50 1630.31 o
-9 5 1 8942.31 9238.43 984.98 o
-7 5 1 83.39 577.40 339.65 <
-5 5 1 255.22 169.82 271.72 <
-3 5 1 55162.40 59064.80 1664.28 o
-1 5 1 7661.54 8287.41 747.23 o
1 5 1 15691.20 17797.60 1086.87 o
3 5 1 1755.26 883.09 305.68 <
5 5 1 26825.70 29073.90 1630.31 o
7 5 1 47870.10 50539.60 1834.10 o
9 5 1 7282.34 6657.10 645.33 o
11 5 1 3866.59 3090.80 441.54 o
13 5 1 288.60 101.89 407.58 <
15 5 1 31016.40 33896.90 2411.50 o
-10 6 1 3029.67 2785.11 577.40 o
-8 6 1 1056.47 1120.84 475.51 <
-6 6 1 2951.12 1018.94 475.51 <
-4 6 1 4392.67 3226.66 611.37 o
-2 6 1 5170.50 4007.85 543.44 o
0 6 1 75.43 339.65 373.61 <
2 6 1 108.10 305.68 339.65 <
4 6 1 5073.02 5536.26 747.23 o
6 6 1 5829.46 4653.18 679.30 o
8 6 1 775.70 237.75 475.51 <
10 6 1 46.59 169.82 475.51 <
-24 0 2 33199.60 29651.30 2751.15 o
-22 0 2 40258.00 34712.00 2649.25 o
-20 0 2 22575.30 20990.20 1935.99 o
-18 0 2 987.44 1494.45 509.47 <
-16 0 2 11176.90 9985.65 1290.66 o
-14 0 2 171086.00 175292.00 3328.55 o
-12 0 2 1437.27 1494.45 237.75 o
-10 0 2 54799.30 55736.20 984.98 o
-8 0 2 1577.28 1800.13 203.79 o
-6 0 2 363294.00 331123.00 2615.29 o
-4 0 2 136734.00 136301.00 1392.56 o
-2 0 2 84193.30 83247.70 849.12 o
0 0 2 15210.00 16812.60 373.61 o
2 0 2 20669.10 22484.70 679.30 o
4 0 2 342868.00 304630.00 2445.46 o
6 0 2 18762.50 18544.80 645.33 o
8 0 2 57793.50 58589.30 1086.87 o
10 0 2 9003.36 9068.60 849.12 o
12 0 2 114481.00 116465.00 2785.11 o
14 0 2 19724.40 19156.10 1834.10 o
16 0 2 57843.30 59710.10 3022.87 o
18 0 2 1873.44 2275.64 679.30 o
20 0 2 4211.16 5128.69 917.05 o
22 0 2 32774.90 34813.90 2887.01 o
-23 1 2 1204.21 1902.03 509.47 o
-21 1 2 1631.40 1392.56 475.51 <
-19 1 2 734.29 67.93 339.65 <
-17 1 2 13714.40 12838.70 1052.91 o
-15 1 2 4989.57 5298.51 543.44 o
-13 1 2 1206.40 645.33 169.82 o
-11 1 2 6179.15 6759.00 305.68 o
-9 1 2 16261.20 16676.70 373.61 o
-7 1 2 2795.57 2343.57 135.86 o
-5 1 2 35487.00 36444.20 475.51 o
-3 1 2 24121.00 24420.70 373.61 o
-1 1 2 9590.62 9679.97 271.72 o
1 1 2 46089.70 46056.30 543.44 o
3 1 2 8782.18 9136.53 271.72 o
5 1 2 22746.70 24454.70 407.58 o
7 1 2 23720.10 23605.50 577.40 o
9 1 2 6192.74 6657.10 373.61 o
11 1 2 2877.36 2751.15 339.65 o
13 1 2 5982.60 6996.75 815.16 o
15 1 2 1741.54 1868.06 407.58 o
17 1 2 3032.21 3736.13 645.33 o
19 1 2 5353.20 4347.49 611.37 o
21 1 2 145.47 373.61 441.54 <
-22 2 2 17369.10 18918.40 1426.52 o
-20 2 2 4227.23 3192.69 543.44 o
-18 2 2 1307.78 1324.63 373.61 o
-16 2 2 24249.70 23911.20 1154.80 o
-14 2 2 58949.60 58283.60 1256.70 o
-12 2 2 2584.89 2954.94 271.72 o
-10 2 2 28466.60 28734.20 543.44 o
-8 2 2 5123.86 5094.72 237.75 o
-6 2 2 145191.00 144860.00 984.98 o
-4 2 2 29014.70 28734.20 441.54 o
-2 2 2 25110.80 26085.00 441.54 o
0 2 2 20451.50 21058.20 373.61 o
2 2 2 28038.00 28258.70 475.51 o
4 2 2 115334.00 114937.00 1018.94 o
6 2 2 4730.02 4721.11 237.75 o
8 2 2 21704.50 22620.60 509.47 o
10 2 2 16067.30 15725.70 679.30 o
12 2 2 34754.30 34881.90 1018.94 o
14 2 2 13171.90 11989.60 951.01 o
16 2 2 23592.20 23639.50 1562.38 o
18 2 2 2247.31 1120.84 475.51 <
20 2 2 11689.90 11242.30 1052.91 o
-21 3 2 9902.67 9068.60 883.09 o
-19 3 2 2140.34 1256.70 509.47 <
-17 3 2 33584.90 33251.50 1698.24 o
-15 3 2 1666.65 984.98 305.68 o
-13 3 2 2161.07 2105.82 339.65 o
-11 3 2 34919.30 34032.70 917.05 o
-9 3 2 30951.10 30806.10 815.16 o
-7 3 2 23818.00 23809.30 611.37 o
-5 3 2 35894.50 35832.90 747.23 o
-3 3 2 44682.00 45037.30 781.19 o
-1 3 2 10117.10 9883.76 441.54 o
1 3 2 122919.00 119828.00 1358.59 o
3 3 2 4318.54 3566.30 237.75 o
5 3 2 9685.22 10223.40 441.54 o
7 3 2 36635.30 36444.20 849.12 o
9 3 2 19296.00 20922.30 679.30 o
11 3 2 21177.90 20277.00 849.12 o
13 3 2 17262.80 16778.60 984.98 o
15 3 2 8791.76 10223.40 917.05 o
17 3 2 1880.80 2785.11 509.47 o
19 3 2 22854.40 24692.40 1494.45 o
-18 4 2 10281.80 9238.43 951.01 o
-16 4 2 33553.50 37633.00 1630.31 o
-14 4 2 1276.01 475.51 339.65 <
-12 4 2 11104.60 10291.30 815.16 o
-10 4 2 1020.28 917.05 271.72 o
-8 4 2 41649.70 42999.40 1324.63 o
-6 4 2 17672.80 18884.40 815.16 o
-4 4 2 849.38 645.33 237.75 <
-2 4 2 9530.90 9544.11 713.26 o
0 4 2 48224.20 48773.50 1358.59 o
2 4 2 45104.10 46463.80 1222.73 o
4 4 2 3910.67 3294.59 339.65 o
6 4 2 950.75 237.75 237.75 <
8 4 2 660.75 645.33 271.72 <
10 4 2 48621.50 46328.00 1460.49 o
12 4 2 2128.24 1222.73 407.58 <
14 4 2 565.96 271.72 373.61 <
16 4 2 182.34 101.89 577.40 <
-17 5 2 10041.40 10698.90 1392.56 o
-15 5 2 2601.54 1392.56 475.51 <
-13 5 2 49.32 339.65 305.68 <
-11 5 2 7093.48 6419.35 679.30 o
-9 5 2 4288.78 4721.11 679.30 o
-7 5 2 15032.40 13348.20 1324.63 o
-5 5 2 24.11 33.96 271.72 <
-3 5 2 3149.15 3396.48 475.51 o
-1 5 2 0.27 203.79 271.72 <
1 5 2 24487.60 26662.40 1222.73 o
3 5 2 1875.72 1562.38 339.65 o
5 5 2 1135.38 1324.63 373.61 o
7 5 2 2692.86 1528.42 441.54 o
9 5 2 9845.59 8457.24 781.19 o
11 5 2 6700.22 6419.35 611.37 o
13 5 2 272.05 -339.65 441.54 <
-12 6 2 12065.60 8694.99 1358.59 o
-10 6 2 69.41 475.51 441.54 <
-8 6 2 39796.50 41980.50 1935.99 o
-6 6 2 2030.61 917.05 543.44 <
-4 6 2 0.01 33.96 339.65 <
-2 6 2 21321.60 22960.20 1358.59 o
0 6 2 30608.30 35289.40 1596.35 o
2 6 2 27725.70 29447.50 1426.52 o
4 6 2 1328.69 1392.56 475.51 <
6 6 2 3445.28 3056.83 611.37 o
8 6 2 52.67 237.75 475.51 <
-23 1 3 13883.90 12804.70 1222.73 o
-21 1 3 16302.30 16065.40 1324.63 o
-19 1 3 62743.30 64397.30 2139.78 o
-17 1 3 355.50 577.40 305.68 <
-15 1 3 2383.63 2411.50 373.61 o
-13 1 3 8202.03 8796.88 441.54 o
-11 1 3 275832.00 264892.00 2037.89 o
-9 1 3 44727.00 43678.70 611.37 o
-7 1 3 10342.30 11310.30 305.68 o
-5 1 3 23341.80 23537.60 407.58 o
-3 1 3 41648.90 41369.10 475.51 o
-1 1 3 293304.00 268933.00 1392.56 o
1 1 3 4760.99 4483.35 237.75 o
3 1 3 748.01 679.30 101.89 o
5 1 3 147.39 237.75 101.89 <
7 1 3 197567.00 193837.00 1800.13 o
9 1 3 30421.70 31417.40 781.19 o
11 1 3 15452.10 16065.40 849.12 o
13 1 3 5738.91 6487.28 883.09 o
15 1 3 25244.50 24013.10 1596.35 o
17 1 3 38177.50 40757.80 1935.99 o
19 1 3 681.63 951.01 475.51 <
21 1 3 678.12 951.01 475.51 <
-22 2 3 6315.10 6521.24 849.12 o
-20 2 3 5695.18 3634.23 611.37 o
-18 2 3 2620.29 2411.50 373.61 o
-16 2 3 16218.90 17763.60 984.98 o
-14 2 3 18928.60 18850.50 781.19 o
-12 2 3 125.40 -271.72 135.86 <
-10 2 3 12651.70 13212.30 441.54 o
-8 2 3 95414.10 94625.90 951.01 o
-6 2 3 18.43 33.96 101.89 <
-4 2 3 19938.30 19699.60 407.58 o
-2 2 3 12669.70 11616.00 305.68 o
0 2 3 10101.20 10189.40 305.68 o
2 2 3 39382.50 38719.90 577.40 o
4 2 3 71856.30 71937.50 883.09 o
6 2 3 196.08 645.33 135.86 o
8 2 3 14478.30 14163.30 645.33 o
10 2 3 64073.90 64023.60 1256.70 o
12 2 3 204.07 237.75 271.72 <
14 2 3 19793.20 21601.60 1290.66 o
16 2 3 3826.59 3158.73 611.37 o
18 2 3 47.62 135.86 407.58 <
20 2 3 10283.70 10970.60 1188.77 o
-21 3 3 4168.05 3260.62 509.47 o
-19 3 3 19243.40 18069.30 1324.63 o
-17 3 3 24425.90 28972.00 1426.52 o
-15 3 3 1084.43 747.23 271.72 <
-13 3 3 3245.03 4347.49 509.47 o
-11 3 3 30114.00 30975.90 917.05 o
-9 3 3 34168.00 35561.10 951.01 o
-7 3 3 27156.50 27103.90 611.37 o
-5 3 3 6059.97 5841.95 373.61 o
-3 3 3 33577.00 34100.70 747.23 o
-1 3 3 94441.40 94592.00 1596.35 o
1 3 3 10185.80 10936.70 543.44 o
3 3 3 12220.00 12261.30 509.47 o
5 3 3 39073.60 39976.60 951.01 o
7 3 3 23700.60 24454.70 951.01 o
9 3 3 29983.50 30194.70 984.98 o
11 3 3 16.91 67.93 237.75 <
13 3 3 789.02 1018.94 339.65 <
15 3 3 28913.20 29753.20 1494.45 o
17 3 3 10496.50 10393.20 984.98 o
-20 4 3 1722.06 781.19 679.30 <
-18 4 3 3266.09 3260.62 577.40 o
-16 4 3 16050.90 15929.50 951.01 o
-14 4 3 19116.20 18205.10 1018.94 o
-12 4 3 673.74 305.68 271.72 <
-10 4 3 3030.37 2547.36 373.61 o
-8 4 3 30526.50 30636.20 1018.94 o
-6 4 3 772.56 339.65 203.79 <
-4 4 3 45011.50 43101.30 1324.63 o
-2 4 3 11669.30 12465.10 747.23 o
0 4 3 7279.12 6623.14 611.37 o
2 4 3 19097.80 18544.80 917.05 o
4 4 3 27569.10 26866.20 1120.84 o
6 4 3 780.68 339.65 271.72 <
8 4 3 3442.99 3226.66 475.51 o
10 4 3 19647.30 19767.50 1120.84 o
12 4 3 84.46 -101.89 339.65 <
14 4 3 17849.90 17661.70 1256.70 o
16 4 3 4747.05 5400.40 951.01 o
-17 5 3 36754.60 36885.80 2615.29 o
-15 5 3 467.25 373.61 407.58 <
-13 5 3 14681.20 15046.40 1086.87 o
-11 5 3 128.04 271.72 373.61 <
-9 5 3 10817.20 10597.00 984.98 o
-7 5 3 36783.50 35832.90 1766.17 o
-5 5 3 29935.50 29821.10 1426.52 o
-3 5 3 12591.50 13042.50 951.01 o
-1 5 3 949.56 747.23 305.68 <
1 5 3 39813.90 38414.20 1324.63 o
3 5 3 172.54 339.65 305.68 <
5 5 3 32876.50 34542.20 1766.17 o
7 5 3 4.80 33.96 339.65 <
9 5 3 5648.97 5740.05 645.33 o
11 5 3 13089.70 14027.50 1222.73 o
13 5 3 14960.30 15352.10 1290.66 o
-12 6 3 3872.41 3294.59 917.05 o
-10 6 3 2137.51 1596.35 509.47 o
-8 6 3 3529.79 2853.04 679.30 o
-6 6 3 91.52 135.86 441.54 <
-4 6 3 1366.46 1052.91 373.61 <
-2 6 3 6013.44 5875.91 747.23 o
0 6 3 2428.28 2479.43 441.54 o
2 6 3 2095.37 1392.56 509.47 <
4 6 3 111.76 33.96 441.54 <
6 6 3 3312.49 2649.25 611.37 o
8 6 3 4013.89 1698.24 781.19 <
-24 0 4 9622.93 12057.50 1698.24 o
-22 0 4 1049.94 1392.56 577.40 <
-20 0 4 47013.80 47856.40 2649.25 o
-18 0 4 13142.00 14027.50 1630.31 o
-16 0 4 85448.40 87629.20 3226.66 o
-14 0 4 11272.50 11208.40 917.05 o
-12 0 4 20803.80 21092.10 849.12 o
-10 0 4 176269.00 169450.00 1902.03 o
-8 0 4 87969.60 95135.40 1222.73 o
-6 0 4 74193.80 72956.40 917.05 o
-4 0 4 1258.81 984.98 169.82 o
-2 0 4 200230.00 195162.00 1732.20 o
0 0 4 20257.20 21975.20 543.44 o
2 0 4 338069.00 311899.00 2445.47 o
4 0 4 41194.60 42693.80 984.98 o
6 0 4 709.13 917.05 203.79 o
8 0 4 124996.00 126417.00 2819.08 o
10 0 4 73450.90 73533.80 3294.59 o
12 0 4 44328.90 47143.10 2751.15 o
14 0 4 29.78 373.61 577.40 <
16 0 4 10253.80 11208.40 1630.31 o
18 0 4 2329.54 2173.75 849.12 <
20 0 4 58383.30 60321.50 3464.41 o
-23 1 4 6256.24 5502.30 781.19 o
-21 1 4 388.76 713.26 373.61 <
-19 1 4 5279.85 3871.99 645.33 o
-17 1 4 55.47 169.82 271.72 <
-15 1 4 2698.40 2717.18 407.58 o
-13 1 4 23788.50 22213.00 679.30 o
-11 1 4 2888.60 2920.97 237.75 o
-9 1 4 4191.95 4109.74 203.79 o
-7 1 4 14154.80 13925.60 339.65 o
-5 1 4 16251.80 16201.20 339.65 o
-3 1 4 301.94 611.37 101.89 o
-1 1 4 13793.90 13416.10 339.65 o
1 1 4 938.04 1426.52 135.86 o
3 1 4 10868.90 10936.70 373.61 o
5 1 4 26639.10 27341.70 577.40 o
7 1 4 8057.17 8015.69 441.54 o
9 1 4 15.77 -33.96 203.79 <
11 1 4 4824.44 4007.85 679.30 o
13 1 4 3184.30 3362.52 645.33 o
15 1 4 487.11 543.44 441.54 <
17 1 4 5067.76 4992.83 781.19 o
19 1 4 884.39 917.05 509.47 <
-24 2 4 12167.80 10291.30 1222.73 o
-22 2 4 6897.78 6487.28 815.16 o
-20 2 4 17454.50 15793.60 1222.73 o
-18 2 4 8374.42 6759.00 645.33 o
-16 2 4 51385.10 50607.60 1290.66 o
-14 2 4 10949.70 11072.50 679.30 o
-12 2 4 32424.60 33047.80 747.23 o
-10 2 4 15760.30 16676.70 509.47 o
-8 2 4 7349.33 7845.87 339.65 o
-6 2 4 122161.00 122647.00 1120.84 o
-4 2 4 861.91 679.30 101.89 o
-2 2 4 71820.00 71461.90 781.19 o
0 2 4 391.34 271.72 101.89 <
2 2 4 82154.20 83757.20 984.98 o
4 2 4 30987.10 31621.20 611.37 o
6 2 4 7264.11 6996.75 407.58 o
8 2 4 17165.90 18544.80 781.19 o
10 2 4 25191.10 25134.00 1052.91 o
12 2 4 28517.80 29515.40 1460.49 o
14 2 4 1419.79 1256.70 441.54 <
16 2 4 7070.20 7030.71 815.16 o
18 2 4 144.60 781.19 509.47 <
-21 3 4 8008.56 7913.80 1018.94 o
-19 3 4 17461.80 18544.80 1392.56 o
-17 3 4 7076.01 5468.33 645.33 o
-15 3 4 959.18 475.51 305.68 <
-13 3 4 52977.50 52747.30 1358.59 o
-11 3 4 2059.13 1732.20 271.72 o
-9 3 4 3747.73 3668.20 373.61 o
-7 3 4 28287.90 28972.00 747.23 o
-5 3 4 36990.10 38278.30 849.12 o
-3 3 4 23950.30 21771.40 645.33 o
-1 3 4 56810.80 57706.20 1120.84 o
1 3 4 13617.20 13110.40 611.37 o
3 3 4 647.59 373.61 169.82 <
5 3 4 57089.80 57808.10 1324.63 o
7 3 4 3066.44 2819.08 373.61 o
9 3 4 4180.37 4041.81 645.33 o
11 3 4 14851.30 15080.40 1256.70 o
13 3 4 18038.70 19122.20 1460.49 o
15 3 4 5207.77 5536.26 815.16 o
17 3 4 15236.80 16065.40 1426.52 o
-20 4 4 513.51 509.47 611.37 <
-18 4 4 679.92 679.30 441.54 <
-16 4 4 515.53 1052.91 441.54 <
-14 4 4 29526.00 29719.20 1222.73 o
-12 4 4 21887.80 22688.50 951.01 o
-10 4 4 2375.57 2683.22 441.54 o
-8 4 4 1167.24 1426.52 271.72 o
-6 4 4 29449.00 30670.20 1154.80 o
-4 4 4 64577.10 66638.90 1630.31 o
-2 4 4 693.99 747.23 237.75 o
0 4 4 7893.59 7098.64 611.37 o
2 4 4 404.83 203.79 237.75 <
4 4 4 44823.50 42829.60 1256.70 o
6 4 4 16094.80 14944.50 984.98 o
8 4 4 2855.28 2445.47 407.58 o
10 4 4 3419.68 3498.37 577.40 o
12 4 4 3181.53 3090.80 611.37 o
14 4 4 26510.30 29039.90 1902.03 o
-17 5 4 961.68 611.37 543.44 <
-15 5 4 328.08 0.00 407.58 <
-13 5 4 15330.30 14299.20 1052.91 o
-11 5 4 228.98 -135.86 373.61 <
-9 5 4 162.92 509.47 339.65 <
-7 5 4 1366.25 1426.52 475.51 <
-5 5 4 15418.80 16439.00 1154.80 o
-3 5 4 13973.20 14536.90 984.98 o
-1 5 4 2943.32 3158.73 441.54 o
1 5 4 2187.83 1596.35 339.65 o
3 5 4 1460.97 1392.56 339.65 o
5 5 4 19379.40 18850.50 1392.56 o
7 5 4 0.41 -169.82 373.61 <
9 5 4 1398.33 1154.80 373.61 o
11 5 4 397.51 271.72 509.47 <
-10 6 4 4155.76 4551.28 1018.94 o
-8 6 4 1639.96 1935.99 509.47 o
-6 6 4 2136.04 1969.96 645.33 o
-4 6 4 48539.70 48637.60 1732.20 o
-2 6 4 129.89 271.72 339.65 <
0 6 4 4414.84 3871.99 475.51 o
2 6 4 3256.40 2003.92 543.44 o
4 6 4 30519.70 29141.80 2037.89 o
6 6 4 9340.91 8864.81 1392.56 o
-23 1 5 8199.42 9476.18 1222.73 o
-21 1 5 9291.80 7743.97 883.09 o
-19 1 5 6.07 67.93 271.72 <
-17 1 5 52146.50 51151.00 1766.17 o
-15 1 5 73152.10 72650.70 1426.52 o
-13 1 5 7816.67 7642.08 475.51 o
-11 1 5 9044.61 9679.97 475.51 o
-9 1 5 351.83 441.54 101.89 o
-7 1 5 211999.00 207117.00 1494.45 o
-5 1 5 1518.26 1562.38 135.86 o
-3 1 5 36495.30 36580.10 543.44 o
-1 1 5 5295.12 5162.65 271.72 o
1 1 5 69250.70 70646.80 883.09 o
3 1 5 108642.00 108653.00 1188.77 o
5 1 5 61124.10 60966.80 1018.94 o
7 1 5 2748.07 2003.92 271.72 o
9 1 5 1738.64 1120.84 339.65 o
11 1 5 64096.00 73669.60 2547.36 o
13 1 5 1193.98 747.23 441.54 <
15 1 5 31955.70 36444.20 2173.75 o
17 1 5 167.78 339.65 509.47 <
-24 2 5 2143.89 1766.17 577.40 o
-22 2 5 14127.70 14095.40 1392.56 o
-20 2 5 1593.11 1596.35 373.61 o
-18 2 5 11120.20 11174.40 883.09 o
-16 2 5 10658.80 11480.10 815.16 o
-14 2 5 6090.09 6011.77 475.51 o
-12 2 5 44193.80 42625.80 917.05 o
-10 2 5 63311.80 64669.00 1018.94 o
-8 2 5 1.28 -67.93 135.86 <
-6 2 5 21116.80 22382.80 475.51 o
-4 2 5 42057.30 42490.00 713.26 o
-2 2 5 128.68 237.75 101.89 <
0 2 5 54481.80 54717.30 815.16 o
2 2 5 11543.20 11649.90 441.54 o
4 2 5 5020.34 5128.69 373.61 o
6 2 5 29315.30 29209.70 781.19 o
8 2 5 34300.10 33930.80 1120.84 o
10 2 5 1108.22 1256.70 407.58 o
12 2 5 8152.89 6453.31 815.16 o
14 2 5 9460.57 8185.52 883.09 o
16 2 5 583.44 747.23 509.47 <
18 2 5 9074.58 11378.20 1222.73 o
-21 3 5 445.40 475.51 475.51 <
-19 3 5 1704.70 1902.03 509.47 o
-17 3 5 25945.80 26118.90 1528.42 o
-15 3 5 14106.60 14536.90 1086.87 o
-13 3 5 6970.80 7200.54 645.33 o
-11 3 5 10098.30 9883.76 713.26 o
-9 3 5 22617.30 22009.20 815.16 o
-7 3 5 43531.70 43712.70 917.05 o
-5 3 5 15913.20 15623.80 577.40 o
-3 3 5 853.59 883.09 203.79 o
-1 3 5 23253.30 23028.10 747.23 o
1 3 5 25492.50 25371.70 815.16 o
3 3 5 20751.80 21160.10 951.01 o
5 3 5 125.94 203.79 237.75 <
7 3 5 10588.70 11072.50 849.12 o
9 3 5 32458.10 33998.80 1732.20 o
11 3 5 8323.80 10121.50 1086.87 o
13 3 5 2052.29 1018.94 543.44 <
15 3 5 2233.01 1290.66 645.33 <
-20 4 5 221.18 135.86 679.30 <
-18 4 5 19545.60 20548.70 1460.49 o
-16 4 5 4572.67 4279.56 645.33 o
-14 4 5 5031.47 5468.33 645.33 o
-12 4 5 6067.19 5502.30 543.44 o
-10 4 5 26332.70 28666.30 1222.73 o
-8 4 5 4872.05 5094.72 611.37 o
-6 4 5 9079.85 7777.94 543.44 o
-4 4 5 24266.00 25677.40 849.12 o
-2 4 5 4250.59 4041.81 407.58 o
0 4 5 29493.70 29175.80 1154.80 o
2 4 5 8781.28 6962.78 747.23 o
4 4 5 3486.02 3634.23 543.44 o
6 4 5 7518.52 7438.29 781.19 o
8 4 5 25382.90 26628.40 1460.49 o
10 4 5 560.25 475.51 441.54 <
12 4 5 4576.12 5298.51 747.23 o
14 4 5 8708.61 7098.64 1222.73 o
-15 5 5 56.81 -33.96 407.58 <
-13 5 5 20036.70 19869.40 1494.45 o
-11 5 5 10591.60 11582.00 1256.70 o
-9 5 5 37198.50 40520.00 2037.89 o
-7 5 5 401.96 0.00 339.65 <
-5 5 5 1808.56 1494.45 407.58 o
-3 5 5 8471.19 9204.46 713.26 o
-1 5 5 57814.30 59472.40 1800.13 o
1 5 5 2706.26 1969.96 441.54 o
3 5 5 14.76 -33.96 339.65 <
5 5 5 8172.53 6826.93 849.12 o
7 5 5 5963.89 4381.46 645.33 o
9 5 5 39464.60 40282.30 2309.61 o
-10 6 5 1319.31 849.12 747.23 <
-8 6 5 3869.65 5060.76 747.23 o
-6 6 5 4975.14 4653.18 713.26 o
-4 6 5 252.79 -339.65 407.58 <
-2 6 5 1015.32 169.82 373.61 <
0 6 5 2643.00 1664.28 509.47 o
2 6 5 2910.53 2105.82 577.40 o
4 6 5 1039.86 747.23 747.23 <
-24 0 6 18369.50 14706.80 1902.03 o
-22 0 6 45814.30 45003.40 2717.18 o
-20 0 6 35325.90 34304.40 2275.64 o
-18 0 6 478.16 645.33 475.51 <
-16 0 6 17830.10 20718.50 1834.10 o
-14 0 6 1502.40 984.98 373.61 <
-12 0 6 183443.00 189965.00 2717.18 o
-10 0 6 1910.00 2411.50 305.68 o
-8 0 6 3614.93 3736.13 339.65 o
-6 0 6 23898.90 24081.00 713.26 o
-4 0 6 137718.00 136640.00 1698.24 o
-2 0 6 147936.00 151789.00 2037.89 o
0 0 6 12733.60 14333.10 713.26 o
2 0 6 38155.40 40893.60 1086.87 o
4 0 6 7481.36 6725.03 577.40 o
6 0 6 101128.00 104578.00 2377.54 o
8 0 6 3350.60 3600.27 679.30 o
10 0 6 2424.96 2207.71 849.12 <
12 0 6 10448.90 11582.00 1834.10 o
14 0 6 68755.20 72480.90 3838.02 o
16 0 6 12835.60 12159.40 1698.24 o
-23 1 6 224.76 -373.61 373.61 <
-21 1 6 1170.57 1120.84 373.61 <
-19 1 6 5528.70 5434.37 713.26 o
-17 1 6 1007.22 441.54 339.65 <
-15 1 6 9209.31 8898.78 645.33 o
-13 1 6 2204.86 2241.68 339.65 o
-11 1 6 1.61 -67.93 169.82 <
-9 1 6 10654.40 12023.50 475.51 o
-7 1 6 18821.20 17491.90 475.51 o
-5 1 6 4409.92 3973.88 237.75 o
-3 1 6 18813.40 19020.30 509.47 o
-1 1 6 19527.00 19156.10 509.47 o
1 1 6 1515.00 1528.42 203.79 o
3 1 6 18362.90 18680.60 611.37 o
5 1 6 1824.11 1868.06 271.72 o
7 1 6 3113.83 3260.62 441.54 o
9 1 6 8158.24 7743.97 781.19 o
11 1 6 3445.42 3090.80 611.37 o
13 1 6 2303.95 1868.06 543.44 o
15 1 6 5475.90 3056.83 679.30 o
17 1 6 2115.28 2581.32 679.30 o
-22 2 6 20707.90 17865.50 1664.28 o
-20 2 6 25086.20 27647.30 1630.31 o
-18 2 6 2519.96 2241.68 441.54 o
-16 2 6 3252.89 2309.61 441.54 o
-14 2 6 2913.31 2920.97 475.51 o
-12 2 6 94568.30 93641.00 1800.13 o
-10 2 6 6711.18 6385.38 441.54 o
-8 2 6 5009.21 5060.76 373.61 o
-6 2 6 25.37 271.72 135.86 <
-4 2 6 63044.60 63616.10 951.01 o
-2 2 6 68955.60 68642.90 1052.91 o
0 2 6 1381.21 1018.94 169.82 o
2 2 6 5152.98 5366.44 407.58 o
4 2 6 12886.10 13144.40 679.30 o
6 2 6 55843.80 55974.00 1358.59 o
8 2 6 2447.15 1834.10 441.54 o
10 2 6 240.84 543.44 339.65 <
12 2 6 22.51 0.00 407.58 <
14 2 6 23925.70 26764.30 1664.28 o
16 2 6 7983.02 5774.02 951.01 o
-21 3 6 6958.73 6657.10 1018.94 o
-19 3 6 17883.10 17491.90 1528.42 o
-17 3 6 6371.73 7710.01 883.09 o
-15 3 6 22303.00 23775.40 1426.52 o
-13 3 6 5713.06 5468.33 611.37 o
-11 3 6 0.86 -305.68 237.75 <
-9 3 6 46142.40 44867.50 1324.63 o
-7 3 6 20940.10 21160.10 849.12 o
-5 3 6 7093.55 7064.68 475.51 o
-3 3 6 26403.80 27069.90 951.01 o
-1 3 6 40465.50 43169.30 917.05 o
1 3 6 13731.80 12567.00 781.19 o
3 3 6 47122.90 50369.80 1460.49 o
5 3 6 5426.72 5638.16 679.30 o
7 3 6 510.29 951.01 373.61 <
9 3 6 28867.80 28496.50 1766.17 o
11 3 6 8591.76 6962.78 917.05 o
13 3 6 4451.65 3464.41 849.12 o
15 3 6 7350.62 8083.62 1494.45 o
-20 4 6 5738.58 2683.22 951.01 <
-18 4 6 26906.30 28054.90 1732.20 o
-16 4 6 2243.69 1630.31 475.51 o
-14 4 6 9437.34 8593.09 781.19 o
-12 4 6 7677.28 7642.08 645.33 o
-10 4 6 22963.70 22892.30 1120.84 o
-8 4 6 8879.97 7268.47 747.23 o
-6 4 6 21283.30 21703.50 1188.77 o
-4 4 6 3183.41 2241.68 339.65 o
-2 4 6 12340.60 12057.50 815.16 o
0 4 6 17802.30 18205.10 1290.66 o
2 4 6 1995.18 2037.89 407.58 o
4 4 6 23332.10 24556.60 1392.56 o
6 4 6 1676.66 1596.35 407.58 o
8 4 6 14826.10 12533.00 1188.77 o
10 4 6 164.29 1018.94 475.51 <
12 4 6 8402.92 6996.75 1222.73 o
-15 5 6 3231.51 2003.92 747.23 <
-13 5 6 165.16 407.58 475.51 <
-11 5 6 397.19 679.30 441.54 <
-9 5 6 15855.70 14129.40 1392.56 o
-7 5 6 70.69 203.79 407.58 <
-5 5 6 2901.18 3056.83 441.54 o
-3 5 6 9.46 -33.96 305.68 <
-1 5 6 8489.62 7472.26 815.16 o
1 5 6 2847.93 2649.25 577.40 o
3 5 6 4978.93 5094.72 781.19 o
5 5 6 59.27 679.30 475.51 <
7 5 6 2381.59 2275.64 611.37 o
9 5 6 7657.22 11106.50 1800.13 o
-8 6 6 6178.93 4279.56 1120.84 o
-6 6 6 22343.30 23028.10 1698.24 o
-4 6 6 348.82 713.26 407.58 <
-2 6 6 3140.14 1562.38 611.37 <
0 6 6 24279.50 27783.20 2139.78 o
-23 1 7 4545.66 2309.61 543.44 o
-21 1 7 38998.90 39263.30 1969.96 o
-19 1 7 93.58 203.79 339.65 <
-17 1 7 50337.80 52985.10 1935.99 o
-15 1 7 434.16 543.44 271.72 <
-13 1 7 50567.50 53426.60 1256.70 o
-11 1 7 29941.60 30874.00 781.19 o
-9 1 7 79554.90 78798.30 1188.77 o
-7 1 7 52179.80 51388.70 883.09 o
-5 1 7 690.93 984.98 169.82 o
-3 1 7 110372.00 111472.00 1460.49 o
-1 1 7 13675.50 14876.60 611.37 o
1 1 7 69213.90 69627.80 1154.80 o
3 1 7 343.35 577.40 237.75 <
5 1 7 11390.00 13042.50 849.12 o
7 1 7 22392.90 22654.50 1290.66 o
9 1 7 62345.60 64465.20 1935.99 o
11 1 7 7862.66 7336.40 1018.94 o
13 1 7 0.47 -67.93 441.54 <
15 1 7 10973.30 12465.10 1562.38 o
-22 2 7 195.74 135.86 373.61 <
-20 2 7 3637.92 4075.78 645.33 o
-18 2 7 15842.90 14265.20 1188.77 o
-16 2 7 3400.66 2071.85 407.58 o
-14 2 7 12507.60 12193.40 917.05 o
-12 2 7 13329.90 12057.50 849.12 o
-10 2 7 1272.43 1256.70 271.72 o
-8 2 7 16270.40 16642.80 747.23 o
-6 2 7 42879.80 45750.60 1086.87 o
-4 2 7 340.27 237.75 169.82 <
-2 2 7 5874.18 6215.56 407.58 o
0 2 7 34765.80 36376.30 984.98 o
2 2 7 10738.60 9102.57 679.30 o
4 2 7 14989.40 14333.10 849.12 o
6 2 7 15399.60 17050.30 1460.49 o
8 2 7 368.80 237.75 339.65 <
10 2 7 11038.00 7981.73 849.12 o
12 2 7 26786.90 30092.80 1834.10 o
14 2 7 4.77 -67.93 475.51 <
-21 3 7 2994.50 3090.80 781.19 o
-19 3 7 2454.21 2105.82 611.37 o
-17 3 7 10735.30 10189.40 1018.94 o
-15 3 7 17105.00 15997.40 1358.59 o
-13 3 7 13813.20 15352.10 1086.87 o
-11 3 7 2100.40 1154.80 339.65 o
-9 3 7 1310.08 1392.56 339.65 o
-7 3 7 17570.40 19326.00 883.09 o
-5 3 7 26105.10 25439.60 1018.94 o
-3 3 7 6560.93 5977.81 543.44 o
-1 3 7 873.29 1188.77 271.72 o
1 3 7 13443.60 14604.90 951.01 o
3 3 7 20257.50 19224.10 1120.84 o
5 3 7 10794.40 11038.60 951.01 o
7 3 7 592.62 305.68 441.54 <
9 3 7 8326.30 7608.12 951.01 o
11 3 7 3293.41 3192.69 679.30 o
13 3 7 10305.90 9646.00 1902.03 o
-18 4 7 4758.00 4958.86 747.23 o
-16 4 7 3136.12 3362.52 645.33 o
-14 4 7 26041.10 30432.50 1494.45 o
-12 4 7 10898.50 9883.76 781.19 o
-10 4 7 1135.95 849.12 339.65 <
-8 4 7 3447.00 3022.87 509.47 o
-6 4 7 33530.50 34100.70 1256.70 o
-4 4 7 602.05 339.65 271.72 <
-2 4 7 7688.38 6996.75 577.40 o
0 4 7 7396.61 6962.78 781.19 o
2 4 7 3331.70 3022.87 543.44 o
4 4 7 23370.60 25167.90 1494.45 o
6 4 7 15041.90 15352.10 1222.73 o
8 4 7 1045.69 169.82 475.51 <
10 4 7 962.82 1018.94 611.37 <
-15 5 7 34251.00 35459.30 2954.94 o
-13 5 7 3708.15 2241.68 645.33 o
-11 5 7 6683.36 5196.61 849.12 o
-9 5 7 7971.35 8491.20 1120.84 o
-7 5 7 21461.20 23877.30 1698.24 o
-5 5 7 22595.50 20786.50 1290.66 o
-3 5 7 982.26 1018.94 339.65 <
-1 5 7 2066.18 2071.85 509.47 o
1 5 7 457.05 543.44 407.58 <
3 5 7 46456.80 49758.40 2377.54 o
5 5 7 213.76 849.12 509.47 <
7 5 7 4913.82 1630.31 951.01 <
-24 0 8 378.18 305.68 713.26 <
-22 0 8 3266.22 3090.80 781.19 o
-20 0 8 6884.06 4007.85 951.01 o
-18 0 8 79560.30 87255.60 3736.13 o
-16 0 8 13685.30 16506.90 1800.13 o
-14 0 8 5591.32 5638.16 713.26 o
-12 0 8 5.28 33.96 305.68 <
-10 0 8 8792.24 8593.09 747.23 o
-8 0 8 163488.00 163031.00 2411.50 o
-6 0 8 12370.40 12295.30 747.23 o
-4 0 8 4036.42 4823.00 577.40 o
-2 0 8 12620.70 12125.40 713.26 o
0 0 8 102970.00 106819.00 1969.96 o
2 0 8 30891.50 28802.20 1358.59 o
4 0 8 40437.60 44426.00 1834.10 o
6 0 8 87.44 747.23 407.58 <
8 0 8 5038.48 6283.49 1256.70 o
10 0 8 59099.20 67080.50 3736.13 o
12 0 8 3452.57 1562.38 781.19 <
14 0 8 8242.89 8457.24 1732.20 o
-23 1 8 6456.18 6045.73 815.16 o
-21 1 8 4711.58 2615.29 577.40 o
-19 1 8 1807.94 1766.17 407.58 o
-17 1 8 5524.68 5706.09 645.33 o
-15 1 8 4776.77 4687.14 509.47 o
-13 1 8 1.57 33.96 237.75 <
-11 1 8 8693.01 9034.64 543.44 o
-9 1 8 29.99 373.61 203.79 <
-7 1 8 2504.12 2513.40 271.72 o
-5 1 8 18489.80 19869.40 713.26 o
-3 1 8 14821.20 14672.80 645.33 o
-1 1 8 923.97 747.23 237.75 o
1 1 8 5520.13 6215.56 475.51 o
3 1 8 976.65 1018.94 339.65 <
5 1 8 127.08 203.79 305.68 <
7 1 8 6107.12 6725.03 781.19 o
9 1 8 897.69 883.09 373.61 <
11 1 8 380.86 -917.05 475.51 <
13 1 8 4039.21 2309.61 679.30 o
-22 2 8 1120.76 951.01 441.54 <
-20 2 8 912.50 917.05 475.51 <
-18 2 8 32252.70 33591.20 1935.99 o
-16 2 8 21709.30 21126.10 1426.52 o
-14 2 8 2900.14 2887.01 509.47 o
-12 2 8 2157.04 1868.06 373.61 o
-10 2 8 13687.00 13857.60 815.16 o
-8 2 8 64912.50 67827.70 1460.49 o
-6 2 8 866.75 917.05 271.72 o
-4 2 8 4026.75 3362.52 373.61 o
-2 2 8 6543.06 7608.12 611.37 o
0 2 8 27251.30 29073.90 1154.80 o
2 2 8 21917.90 20514.70 1154.80 o
4 2 8 19773.40 19563.70 1392.56 o
6 2 8 127.55 747.23 441.54 <
8 2 8 14115.70 14163.30 1358.59 o
10 2 8 12331.60 10631.00 1120.84 o
12 2 8 305.61 577.40 543.44 <
-21 3 8 7647.74 8185.52 1392.56 o
-19 3 8 5009.29 4279.56 713.26 o
-17 3 8 10615.30 10427.20 1052.91 o
-15 3 8 12429.20 14367.10 1256.70 o
-13 3 8 2973.69 2309.61 407.58 o
-11 3 8 36723.10 38244.40 1494.45 o
-9 3 8 5174.16 5128.69 611.37 o
-7 3 8 110.69 33.96 237.75 <
-5 3 8 31845.50 31043.80 1154.80 o
-3 3 8 17149.60 15657.80 1154.80 o
-1 3 8 10329.60 9951.69 713.26 o
1 3 8 18311.60 19122.20 1120.84 o
3 3 8 13118.50 13008.50 1018.94 o
5 3 8 1382.25 781.19 475.51 <
7 3 8 23566.90 25915.10 1868.06 o
9 3 8 3214.90 2683.22 679.30 o
11 3 8 3.44 203.79 781.19 <
-18 4 8 4825.39 3600.27 815.16 o
-16 4 8 4797.91 4517.32 747.23 o
-14 4 8 7222.87 8287.41 883.09 o
-12 4 8 18631.90 21465.80 1358.59 o
-10 4 8 8278.36 8627.06 883.09 o
-8 4 8 2316.74 1868.06 475.51 o
-6 4 8 9166.13 7608.12 781.19 o
-4 4 8 803.47 1222.73 339.65 o
-2 4 8 45876.20 47245.00 1834.10 o
0 4 8 680.24 1120.84 407.58 <
2 4 8 1732.02 1392.56 475.51 <
4 4 8 2187.79 2139.78 509.47 o
6 4 8 8913.10 6589.17 883.09 o
8 4 8 13634.20 14536.90 1596.35 o
-13 5 8 806.78 781.19 543.44 <
-11 5 8 7772.67 7676.04 1086.87 o
-9 5 8 9.26 475.51 475.51 <
-7 5 8 1220.17 1086.87 543.44 <
-5 5 8 5711.37 4245.60 645.33 o
-3 5 8 3647.80 3939.92 611.37 o
-1 5 8 4538.06 4211.64 713.26 o
1 5 8 346.02 611.37 577.40 <
3 5 8 6566.69 7472.26 1018.94 o
-23 1 9 35146.30 32640.20 2105.82 o
-21 1 9 6969.95 5604.19 679.30 o
-19 1 9 796.23 951.01 373.61 <
-17 1 9 11023.30 11955.60 917.05 o
-15 1 9 17005.30 17322.00 1086.87 o
-13 1 9 74442.20 74858.40 1698.24 o
-11 1 9 680.23 781.19 271.72 <
-9 1 9 10342.50 10393.20 645.33 o
-7 1 9 871.80 1154.80 237.75 o
-5 1 9 73768.20 76998.20 1596.35 o
-3 1 9 12281.30 12906.60 849.12 o
-1 1 9 2181.22 1868.06 339.65 o
1 1 9 16558.80 17457.90 984.98 o
3 1 9 34872.20 33183.60 1426.52 o
5 1 9 35869.50 36614.10 1494.45 o
7 1 9 2530.45 1834.10 475.51 o
9 1 9 378.22 305.68 441.54 <
11 1 9 1380.05 1630.31 543.44 o
-22 2 9 3274.11 3430.45 917.05 o
-20 2 9 17276.20 21771.40 1902.03 o
-18 2 9 2658.28 2037.89 509.47 o
-16 2 9 4510.96 3973.88 645.33 o
-14 2 9 17242.30 18103.20 1392.56 o
-12 2 9 5475.11 4856.97 543.44 o
-10 2 9 25403.30 26186.90 1154.80 o
-8 2 9 21386.40 20718.50 1018.94 o
-6 2 9 740.99 407.58 237.75 <
-4 2 9 13241.10 13348.20 917.05 o
-2 2 9 29994.20 28021.00 1256.70 o
0 2 9 496.93 441.54 271.72 <
2 2 9 10683.60 11887.70 951.01 o
4 2 9 12606.70 12431.10 1120.84 o
6 2 9 2682.60 3464.41 611.37 o
8 2 9 14652.60 14027.50 1358.59 o
10 2 9 8077.12 5841.95 951.01 o
-19 3 9 6343.26 5570.23 849.12 o
-17 3 9 53.37 611.37 441.54 <
-15 3 9 1172.59 951.01 441.54 <
-13 3 9 20268.80 20344.90 1256.70 o
-11 3 9 4141.91 4483.35 577.40 o
-9 3 9 4718.02 3804.06 543.44 o
-7 3 9 4958.58 3973.88 509.47 o
-5 3 9 7131.85 5977.81 747.23 o
-3 3 9 19951.70 19461.80 1290.66 o
-1 3 9 1143.85 1324.63 373.61 o
1 3 9 80.80 0.00 339.65 <
3 3 9 6217.24 6826.93 713.26 o
5 3 9 5313.07 3260.62 679.30 o
7 3 9 6595.43 5604.19 815.16 o
9 3 9 58.52 1256.70 815.16 <
-16 4 9 7915.70 7234.50 951.01 o
-14 4 9 5254.30 5366.44 679.30 o
-12 4 9 6511.26 6011.77 747.23 o
-10 4 9 14406.20 15759.70 1154.80 o
-8 4 9 13156.20 11921.60 951.01 o
-6 4 9 14.84 -577.40 339.65 <
-4 4 9 913.98 441.54 373.61 <
-2 4 9 19754.80 18884.40 1358.59 o
0 4 9 347.64 -339.65 441.54 <
2 4 9 9599.74 8830.85 1120.84 o
4 4 9 5518.62 4924.90 815.16 o
6 4 9 4168.15 4143.71 815.16 o
-11 5 9 26549.30 23707.40 2173.75 o
-9 5 9 49.97 -781.19 611.37 <
-7 5 9 15100.00 14231.30 1188.77 o
-5 5 9 243.39 -305.68 475.51 <
-3 5 9 11905.50 9374.29 984.98 o
-1 5 9 7314.74 6385.38 1154.80 o
-22 0 10 30933.70 33217.60 2887.01 o
-20 0 10 9438.79 7981.73 1460.49 o
-18 0 10 19547.00 19869.40 1698.24 o
-16 0 10 3091.77 3294.59 611.37 o
-14 0 10 51145.10 52339.80 1935.99 o
-12 0 10 3653.98 1766.17 577.40 o
-10 0 10 40224.10 45716.60 2139.78 o
-8 0 10 1.46 0.00 305.68 <
-6 0 10 3270.82 3804.06 713.26 o
-4 0 10 60682.40 63921.80 2343.57 o
-2 0 10 28148.80 26764.30 2479.43 o
0 0 10 21131.70 18205.10 1732.20 o
2 0 10 1672.72 1562.38 509.47 o
4 0 10 27731.20 30806.10 1834.10 o
6 0 10 1666.21 2105.82 543.44 o
8 0 10 27413.90 27647.30 2988.90 o
10 0 10 666.07 917.05 984.98 <
-21 1 10 1.85 203.79 407.58 <
-19 1 10 2446.24 2241.68 509.47 o
-17 1 10 5267.30 4041.81 611.37 o
-15 1 10 1231.67 1052.91 339.65 o
-13 1 10 2732.71 2343.57 407.58 o
-11 1 10 4725.74 4992.83 509.47 o
-9 1 10 543.58 305.68 271.72 <
-7 1 10 8649.46 9034.64 679.30 o
-5 1 10 4669.47 2819.08 407.58 o
-3 1 10 780.31 543.44 339.65 <
-1 1 10 6440.49 5638.16 679.30 o
1 1 10 7784.21 6860.89 747.23 o
3 1 10 1795.77 1086.87 407.58 <
5 1 10 6719.32 3871.99 645.33 o
7 1 10 2560.06 2173.75 611.37 o
9 1 10 5.52 203.79 509.47 <
-20 2 10 1091.58 237.75 577.40 <
-18 2 10 13491.90 13891.60 1290.66 o
-16 2 10 1198.19 883.09 407.58 <
-14 2 10 25438.80 24726.40 1596.35 o
-12 2 10 463.95 509.47 271.72 <
-10 2 10 17494.10 18001.30 984.98 o
-8 2 10 6660.82 7472.26 747.23 o
-6 2 10 5561.11 5434.37 747.23 o
-4 2 10 23867.80 23028.10 1358.59 o
-2 2 10 18134.70 16439.00 1086.87 o
0 2 10 8312.93 9204.46 815.16 o
2 2 10 2584.14 1358.59 407.58 o
4 2 10 6787.41 5807.98 849.12 o
6 2 10 582.25 849.12 509.47 <
8 2 10 18640.40 13925.60 1358.59 o
-19 3 10 9410.50 9238.43 1324.63 o
-17 3 10 12264.20 12736.80 1324.63 o
-15 3 10 4252.65 3328.55 645.33 o
-13 3 10 8215.12 7913.80 917.05 o
-11 3 10 11648.60 12363.20 883.09 o
-9 3 10 4.80 -67.93 271.72 <
-7 3 10 29866.40 29923.00 1834.10 o
-5 3 10 10243.80 9476.18 1086.87 o
-3 3 10 379.82 169.82 373.61 <
-1 3 10 17980.20 17220.20 1324.63 o
1 3 10 17525.40 16201.20 1256.70 o
3 3 10 4619.13 4245.60 747.23 o
5 3 10 10864.70 9612.04 1188.77 o
7 3 10 5904.09 5434.37 1256.70 o
-14 4 10 1635.86 1154.80 441.54 <
-12 4 10 440.64 509.47 407.58 <
-10 4 10 74.20 -67.93 373.61 <
-8 4 10 24128.80 24488.60 1596.35 o
-6 4 10 6819.32 4721.11 781.19 o
-4 4 10 179.49 0.00 441.54 <
-2 4 10 32.37 -407.58 441.54 <
0 4 10 1234.93 1120.84 543.44 <
2 4 10 18442.60 18137.20 1766.17 o
-21 1 11 203.53 1256.70 883.09 <
-19 1 11 48357.40 53528.50 2513.40 o
-17 1 11 808.14 713.26 339.65 <
-15 1 11 3582.28 3464.41 475.51 o
-13 1 11 3764.59 4347.49 543.44 o
-11 1 11 21413.60 21126.10 1154.80 o
-9 1 11 46260.20 51151.00 1630.31 o
-7 1 11 15746.80 15589.80 1120.84 o
-5 1 11 114.07 271.72 305.68 <
-3 1 11 536.13 475.51 339.65 <
-1 1 11 44511.70 47177.10 2071.85 o
1 1 11 891.98 -101.89 407.58 <
3 1 11 15790.60 14197.30 1086.87 o
5 1 11 4960.46 5060.76 679.30 o
7 1 11 13999.00 14876.60 1460.49 o
-18 2 11 2399.37 3532.34 815.16 o
-16 2 11 14948.90 16031.40 1426.52 o
-14 2 11 1271.66 1222.73 407.58 <
-12 2 11 7203.33 5060.76 577.40 o
-10 2 11 13334.20 11683.90 917.05 o
-8 2 11 3128.68 2887.01 611.37 o
-6 2 11 5288.50 4007.85 713.26 o
-4 2 11 9880.78 11548.00 1256.70 o
-2 2 11 162.39 0.00 339.65 <
0 2 11 3377.94 2581.32 543.44 o
2 2 11 21258.60 20209.10 1426.52 o
4 2 11 2778.14 2309.61 645.33 o
6 2 11 4216.64 5230.58 951.01 o
-17 3 11 2656.57 1969.96 815.16 <
-15 3 11 469.56 67.93 441.54 <
-13 3 11 9087.40 9068.60 815.16 o
-11 3 11 1625.37 1392.56 441.54 o
-9 3 11 10144.30 9238.43 1052.91 o
-7 3 11 74.62 -509.47 407.58 <
-5 3 11 70.75 -543.44 475.51 <
-3 3 11 8136.82 6283.49 951.01 o
-1 3 11 3001.71 2003.92 509.47 o
1 3 11 1777.75 3090.80 645.33 o
3 3 11 99.47 -645.33 645.33 <
-12 4 11 9486.90 9476.18 1120.84 o
-10 4 11 2828.73 2887.01 815.16 o
-8 4 11 2197.65 3192.69 883.09 o
-6 4 11 8437.02 7845.87 1018.94 o
-4 4 11 18646.90 19937.30 2105.82 o
-2 4 11 143.35 -67.93 543.44 <
-18 0 12 8797.50 5977.81 1290.66 o
-16 0 12 18705.00 21092.10 1935.99 o
-14 0 12 14225.60 16031.40 1630.31 o
-12 0 12 4790.73 4245.60 883.09 o
-10 0 12 25828.20 29889.00 2581.32 o
-8 0 12 6093.07 5094.72 781.19 o
-6 0 12 33053.00 33659.10 2071.85 o
-4 0 12 213.01 -271.72 543.44 <
-2 0 12 289.35 747.23 611.37 <
0 0 12 24402.80 25609.50 2445.47 o
2 0 12 32308.60 31451.40 2819.08 o
4 0 12 4501.81 4449.39 1154.80 o
-19 1 12 504.94 645.33 611.37 <
-17 1 12 1134.77 849.12 475.51 <
-15 1 12 5059.80 4313.53 679.30 o
-13 1 12 6641.44 6623.14 849.12 o
-11 1 12 56.36 237.75 373.61 <
-9 1 12 3222.15 2275.64 441.54 o
-7 1 12 904.60 1732.20 509.47 o
-5 1 12 5.35 373.61 407.58 <
-3 1 12 6714.93 5366.44 815.16 o
-1 1 12 1482.85 849.12 509.47 <
1 1 12 1258.67 679.30 543.44 <
3 1 12 2810.81 2853.04 645.33 o
-16 2 12 8340.87 7743.97 917.05 o
-14 2 12 14362.00 13144.40 1188.77 o
-12 2 12 100.24 -271.72 373.61 <
-10 2 12 4690.79 3192.69 679.30 o
-8 2 12 1587.39 1324.63 577.40 <
-6 2 12 21316.10 18103.20 1562.38 o
-4 2 12 854.75 339.65 509.47 <
-2 2 12 221.08 237.75 441.54 <
0 2 12 1298.28 577.40 543.44 <
2 2 12 12552.90 12023.50 1120.84 o
-13 3 12 9932.34 10563.10 1154.80 o
-11 3 12 1993.57 1935.99 611.37 o
-9 3 12 13118.20 13314.20 1392.56 o
-7 3 12 6805.12 7336.40 1052.91 o
-5 3 12 31.85 0.00 509.47 <
-3 3 12 20627.50 19326.00 1664.28 o
-1 3 12 6272.33 4823.00 815.16 o
-15 1 13 31268.20 39263.30 2853.04 o
-13 1 13 2792.86 2071.85 543.44 o
-11 1 13 11932.90 8491.20 1018.94 o
-9 1 13 42.76 713.26 441.54 <
-7 1 13 9102.10 6521.24 883.09 o
-5 1 13 10668.90 10970.60 984.98 o
-3 1 13 20090.80 17729.60 1528.42 o
-1 1 13 20.93 -67.93 645.33 <
-14 2 13 3290.75 1902.03 713.26 <
-12 2 13 14483.90 17322.00 2615.29 o
-10 2 13 3030.03 2649.25 713.26 o
-8 2 13 6844.58 6113.66 917.05 o
-6 2 13 8784.84 8694.99 1086.87 o
-4 2 13 1585.21 1596.35 747.23 <
-2 2 13 5015.77 4449.39 1426.52 o
-10 0 14 7306.08 5060.76 1052.91 o
-8 0 14 14927.30 15046.40 3430.45 o
-6 0 14 8194.39 5977.81 1358.59 o
