#------------------------------------------------------------------------------
#$Date: 2019-11-23 13:01:36 +0200 (Sat, 23 Nov 2019) $
#$Revision: 233398 $
#$URL: file:///home/coder/svn-repositories/cod/cif/4/34/88/4348818.cif $
#------------------------------------------------------------------------------
#
# This file is available in the Crystallography Open Database (COD),
# http://www.crystallography.net/
#
# All data on this site have been placed in the public domain by the
# contributors.
#
data_4348818
loop_
_publ_author_name
'Falaise, Cl\'ement'
'Delille, Jason'
'Volkringer, Christophe'
'Vezin, Herv\'e'
'Rabu, Pierre'
'Loiseau, Thierry'
_publ_section_title
;
 Series of Hydrated Heterometallic Uranyl-Cobalt(II) Coordination Polymers
 with Aromatic Polycarboxylate Ligands: Formation of U&#x2550;O-Co Bonding
 upon Dehydration Process.
;
_journal_issue                   20
_journal_name_full               'Inorganic chemistry'
_journal_page_first              10453
_journal_page_last               10466
_journal_paper_doi               10.1021/acs.inorgchem.6b01697
_journal_volume                  55
_journal_year                    2016
_chemical_formula_sum            'C12 Co O14 U'
_chemical_formula_weight         665.08
_space_group_IT_number           4
_space_group_name_Hall           'P 2yb'
_space_group_name_H-M_alt        'P 1 21 1'
_symmetry_cell_setting           monoclinic
_symmetry_space_group_name_H-M   'P 1 21 1'
_atom_sites_solution_hydrogens   none
_atom_sites_solution_primary     direct
_atom_sites_solution_secondary   difmap
_audit_creation_method           SHELXL-97
_cell_angle_alpha                90.00
_cell_angle_beta                 94.346(6)
_cell_angle_gamma                90.00
_cell_formula_units_Z            2
_cell_length_a                   5.8725(5)
_cell_length_b                   17.3346(18)
_cell_length_c                   6.9668(8)
_cell_measurement_reflns_used    680
_cell_measurement_temperature    293(2)
_cell_measurement_theta_max      27.33
_cell_measurement_theta_min      2.35
_cell_volume                     707.16(13)
_computing_structure_refinement  'SHELXL-97 (Sheldrick, 2008)'
_diffrn_ambient_temperature      293(2)
_diffrn_measured_fraction_theta_full 0.618
_diffrn_measured_fraction_theta_max 0.618
_diffrn_measurement_device_type  'Bruker APEX-II CCD'
_diffrn_measurement_method       '\f and \w scans'
_diffrn_radiation_monochromator  graphite
_diffrn_radiation_source         'fine-focus sealed tube'
_diffrn_radiation_type           MoK\a
_diffrn_radiation_wavelength     0.71073
_diffrn_reflns_av_R_equivalents  0.0235
_diffrn_reflns_av_sigmaI/netI    0.0482
_diffrn_reflns_limit_h_max       7
_diffrn_reflns_limit_h_min       -7
_diffrn_reflns_limit_k_max       18
_diffrn_reflns_limit_k_min       -19
_diffrn_reflns_limit_l_max       8
_diffrn_reflns_limit_l_min       -8
_diffrn_reflns_number            1795
_diffrn_reflns_theta_full        27.34
_diffrn_reflns_theta_max         27.34
_diffrn_reflns_theta_min         3.16
_exptl_absorpt_coefficient_mu    12.7
_exptl_absorpt_correction_T_max  0.7455
_exptl_absorpt_correction_T_min  0.6074
_exptl_absorpt_correction_type   empirical
_exptl_absorpt_process_details   sadabs
_exptl_crystal_colour            blue
_exptl_crystal_density_diffrn    3.124
_exptl_crystal_density_method    'not measured'
_exptl_crystal_description       block
_exptl_crystal_F_000             1064
_exptl_crystal_size_max          0.1
_exptl_crystal_size_mid          0.08
_exptl_crystal_size_min          0.06
_refine_diff_density_max         4.445
_refine_diff_density_min         -3.666
_refine_diff_density_rms         0.575
_refine_ls_abs_structure_details 'Flack H D (1983), Acta Cryst. A39, 876-881'
_refine_ls_abs_structure_Flack   0.40(5)
_refine_ls_extinction_method     none
_refine_ls_goodness_of_fit_ref   1.258
_refine_ls_hydrogen_treatment    none
_refine_ls_matrix_type           full
_refine_ls_number_parameters     123
_refine_ls_number_reflns         1606
_refine_ls_number_restraints     24
_refine_ls_restrained_S_all      1.250
_refine_ls_R_factor_all          0.0830
_refine_ls_R_factor_gt           0.0681
_refine_ls_shift/su_max          0.000
_refine_ls_shift/su_mean         0.000
_refine_ls_structure_factor_coef Fsqd
_refine_ls_weighting_details
'calc w=1/[\s^2^(Fo^2^)+(0.1057P)^2^+30.5601P] where P=(Fo^2^+2Fc^2^)/3'
_refine_ls_weighting_scheme      calc
_refine_ls_wR_factor_gt          0.1802
_refine_ls_wR_factor_ref         0.2065
_reflns_d_resolution_high        0.7737
_reflns_number_gt                1412
_reflns_number_total             1606
_reflns_threshold_expression     >2\s(I)
_cod_data_source_file            ic6b01697_si_007.cif
_cod_data_source_block           chauf
_cod_original_cell_volume        707.16(12)
_cod_original_sg_symbol_H-M      'P 21'
_cod_original_formula_sum        'C12 Co O14 U '
_cod_database_code               4348818
_shelx_title                     ' chauf '
_shelx_refln_list_code           4
_shelx_f_calc_maximum            254.76
loop_
_symmetry_equiv_pos_as_xyz
'x, y, z'
'-x, y+1/2, -z'
loop_
_atom_site_label
_atom_site_type_symbol
_atom_site_fract_x
_atom_site_fract_y
_atom_site_fract_z
_atom_site_U_iso_or_equiv
_atom_site_adp_type
_atom_site_occupancy
_atom_site_symmetry_multiplicity
_atom_site_calc_flag
_atom_site_refinement_flags
OU1 O 0.603(3) 0.721(3) 0.334(3) 0.025(5) Uiso 1 1 d .
O5 O 0.226(6) 0.809(3) 0.212(5) 0.032(9) Uiso 1 1 d .
O10 O 1.010(5) 1.004(2) -0.273(6) 0.043(10) Uiso 1 1 d D
O4 O -0.013(4) 0.9396(16) 0.241(4) 0.013(5) Uiso 1 1 d D
O2 O 0.644(3) 1.0788(16) 0.428(3) 0.014(5) Uiso 1 1 d D
O3 O 0.208(5) 1.015(2) 0.449(4) 0.032(8) Uiso 1 1 d D
C1 C 0.491(4) 1.0899(14) 0.292(3) 0.005(5) Uiso 1 1 d D
OU2 O 0.076(3) 0.721(2) 0.550(3) 0.010(4) Uiso 1 1 d .
O9 O 0.753(5) 0.938(2) -0.445(4) 0.028(7) Uiso 1 1 d D
C8 C 0.565(4) 0.8371(16) -0.215(4) 0.011(6) Uiso 1 1 d D
C10 C 0.809(5) 0.973(3) -0.288(5) 0.022(9) Uiso 1 1 d D
C4 C 0.168(5) 0.973(2) 0.303(4) 0.016(8) Uiso 1 1 d D
C6 C 0.184(5) 0.839(2) 0.047(4) 0.014(7) Uiso 1 1 d D
C12 C 0.739(5) 1.1083(17) -0.043(4) 0.011(6) Uiso 1 1 d D
O7 O 0.735(4) 0.7996(17) -0.140(4) 0.024(6) Uiso 1 1 d D
O8 O 0.435(4) 0.8101(19) -0.353(4) 0.032(7) Uiso 1 1 d D
O6 O 0.050(4) 0.8219(17) -0.102(3) 0.019(5) Uiso 1 1 d D
O1 O 0.391(4) 1.1551(14) 0.281(5) 0.029(6) Uiso 1 1 d D
C5 C 0.347(5) 0.9053(17) 0.032(5) 0.014(8) Uiso 1 1 d D
C11 C 0.630(7) 1.0320(17) -0.008(5) 0.023(10) Uiso 1 1 d D
C3 C 0.329(5) 0.9692(16) 0.150(5) 0.016(9) Uiso 1 1 d D
C9 C 0.641(6) 0.9711(17) -0.139(5) 0.016(8) Uiso 1 1 d D
C7 C 0.499(6) 0.9077(17) -0.112(6) 0.026(10) Uiso 1 1 d D
C2 C 0.477(6) 1.0315(17) 0.135(5) 0.017(8) Uiso 1 1 d D
O11 O 0.812(3) 1.1528(16) 0.090(3) 0.014(5) Uiso 1 1 d .
O12 O 0.790(4) 1.1385(17) -0.200(3) 0.009(6) Uiso 1 1 d D
U1 U 0.33991(15) 0.7142(3) 0.43918(13) 0.0126(3) Uani 1 1 d .
Co1 Co 0.9194(6) 0.7126(7) 0.8161(5) 0.0158(8) Uani 1 1 d .
loop_
_atom_site_aniso_label
_atom_site_aniso_U_11
_atom_site_aniso_U_22
_atom_site_aniso_U_33
_atom_site_aniso_U_23
_atom_site_aniso_U_13
_atom_site_aniso_U_12
U1 0.0234(5) 0.0114(8) 0.0029(5) -0.0048(8) 0.0000(3) -0.0034(11)
Co1 0.0191(15) 0.018(3) 0.010(2) 0.000(4) 0.0008(12) -0.002(5)
loop_
_atom_type_symbol
_atom_type_description
_atom_type_scat_dispersion_real
_atom_type_scat_dispersion_imag
_atom_type_scat_source
C C 0.0033 0.0016 'International Tables Vol C Tables 4.2.6.8 and 6.1.1.4'
O O 0.0106 0.0060 'International Tables Vol C Tables 4.2.6.8 and 6.1.1.4'
Co Co 0.3494 0.9721 'International Tables Vol C Tables 4.2.6.8 and 6.1.1.4'
U U -9.6767 9.6646 'International Tables Vol C Tables 4.2.6.8 and 6.1.1.4'
loop_
_geom_angle_atom_site_label_1
_geom_angle_atom_site_label_2
_geom_angle_atom_site_label_3
_geom_angle
_geom_angle_site_symmetry_1
_geom_angle_site_symmetry_3
C6 O5 U1 158(3) . .
C1 O2 U1 97.9(19) . 2_656
O1 C1 O2 118(3) . .
O1 C1 C2 124(3) . .
O2 C1 C2 116(3) . .
O1 C1 U1 61.6(16) . 2_656
O2 C1 U1 57.0(16) . 2_656
C2 C1 U1 162.2(19) . 2_656
U1 OU2 Co1 144.6(10) . 1_455
O7 C8 O8 122(3) . .
O7 C8 C7 117(3) . .
O8 C8 C7 121(3) . .
O9 C10 O10 116(3) . .
O9 C10 C9 117(3) . .
O10 C10 C9 127(3) . .
O3 C4 O4 130(3) . .
O3 C4 C3 121(3) . .
O4 C4 C3 107(2) . .
O5 C6 O6 134(3) . .
O5 C6 C5 107(3) . .
O6 C6 C5 118(3) . .
O11 C12 O12 107(3) . .
O11 C12 C11 123(3) . .
O12 C12 C11 130(3) . .
C8 O7 Co1 142(2) . 1_554
C8 O8 U1 150(2) . 1_554
C6 O6 Co1 128(2) . 1_454
C1 O1 Co1 144(2) . 2_656
C1 O1 U1 93.2(18) . 2_656
Co1 O1 U1 120.2(11) 2_656 2_656
C3 C5 C7 119(3) . .
C3 C5 C6 119(2) . .
C7 C5 C6 121(2) . .
C2 C11 C9 122(2) . .
C2 C11 C12 116(2) . .
C9 C11 C12 121(3) . .
C5 C3 C2 120(2) . .
C5 C3 C4 123(2) . .
C2 C3 C4 117(2) . .
C7 C9 C11 117(2) . .
C7 C9 C10 123(3) . .
C11 C9 C10 120(2) . .
C5 C7 C9 123(3) . .
C5 C7 C8 122(3) . .
C9 C7 C8 114(3) . .
C11 C2 C3 120(2) . .
C11 C2 C1 121(2) . .
C3 C2 C1 118(2) . .
C12 O11 Co1 142(2) . 2_756
C12 O12 U1 144(2) . 2_655
OU1 U1 OU2 172(2) . .
OU1 U1 O12 89.2(13) . 2_645
OU2 U1 O12 96.1(11) . 2_645
OU1 U1 O8 92.2(15) . 1_556
OU2 U1 O8 81.6(13) . 1_556
O12 U1 O8 168.3(11) 2_645 1_556
OU1 U1 O5 83.6(15) . .
OU2 U1 O5 91.9(13) . .
O12 U1 O5 80.8(12) 2_645 .
O8 U1 O5 87.8(13) 1_556 .
OU1 U1 O2 101.7(16) . 2_646
OU2 U1 O2 85.1(13) . 2_646
O12 U1 O2 74.0(9) 2_645 2_646
O8 U1 O2 116.9(10) 1_556 2_646
O5 U1 O2 154.2(11) . 2_646
OU1 U1 O1 80.6(11) . 2_646
OU2 U1 O1 101.4(9) . 2_646
O12 U1 O1 118.8(10) 2_645 2_646
O8 U1 O1 72.8(10) 1_556 2_646
O5 U1 O1 154.4(10) . 2_646
O2 U1 O1 50.2(6) 2_646 2_646
OU1 U1 C1 92.7(14) . 2_646
OU2 U1 C1 92.1(11) . 2_646
O12 U1 C1 97.1(9) 2_645 2_646
O8 U1 C1 94.4(9) 1_556 2_646
O5 U1 C1 175.7(10) . 2_646
O2 U1 C1 25.1(4) 2_646 2_646
O1 U1 C1 25.2(4) 2_646 2_646
O7 Co1 O11 145.4(11) 1_556 2_746
O7 Co1 O6 56.0(11) 1_556 1_656
O11 Co1 O6 96.8(10) 2_746 1_656
O7 Co1 OU2 111.9(13) 1_556 1_655
O11 Co1 OU2 86.4(10) 2_746 1_655
O6 Co1 OU2 90.1(12) 1_656 1_655
O7 Co1 O1 86.4(11) 1_556 2_646
O11 Co1 O1 120.3(12) 2_746 2_646
O6 Co1 O1 141.9(10) 1_656 2_646
OU2 Co1 O1 99.8(11) 1_655 2_646
loop_
_geom_bond_atom_site_label_1
_geom_bond_atom_site_label_2
_geom_bond_distance
_geom_bond_site_symmetry_2
OU1 U1 1.76(2) .
O5 C6 1.27(5) .
O5 U1 2.34(4) .
O10 C10 1.294(19) .
O4 C4 1.259(18) .
O2 C1 1.273(18) .
O2 U1 2.52(3) 2_656
O3 C4 1.257(19) .
C1 O1 1.271(19) .
C1 C2 1.491(19) .
C1 U1 2.98(2) 2_656
OU2 U1 1.788(16) .
OU2 Co1 2.134(18) 1_455
O9 C10 1.269(14) .
C8 O7 1.269(18) .
C8 O8 1.272(18) .
C8 C7 1.484(19) .
C10 C9 1.487(19) .
C4 C3 1.481(19) .
C6 O6 1.288(18) .
C6 C5 1.506(19) .
C12 O11 1.26(4) .
C12 O12 1.262(18) .
C12 C11 1.500(19) .
O7 Co1 1.90(3) 1_554
O8 U1 2.25(3) 1_554
O6 Co1 2.11(3) 1_454
O1 Co1 2.14(2) 2_656
O1 U1 2.62(3) 2_656
C5 C3 1.388(19) .
C5 C7 1.390(19) .
C11 C2 1.389(19) .
C11 C9 1.400(19) .
C3 C2 1.395(19) .
C9 C7 1.399(19) .
O11 Co1 1.96(2) 2_756
O12 U1 2.21(2) 2_655
U1 O12 2.21(2) 2_645
U1 O8 2.25(3) 1_556
U1 O2 2.52(3) 2_646
U1 O1 2.62(3) 2_646
U1 C1 2.98(2) 2_646
Co1 O7 1.90(3) 1_556
Co1 O11 1.96(2) 2_746
Co1 O6 2.11(3) 1_656
Co1 OU2 2.134(18) 1_655
Co1 O1 2.14(2) 2_646
loop_
_refln_index_h
_refln_index_k
_refln_index_l
_refln_F_squared_calc
_refln_F_squared_meas
_refln_F_squared_sigma
_refln_observed_status
2 -19 0 3722.01 3634.81 268.34 o
2 -18 0 125.45 -61.65 182.86 o
3 -17 0 257.07 276.04 175.15 o
2 -16 0 416.83 498.14 166.05 o
3 -16 0 3510.03 3764.43 241.01 o
2 -15 0 6243.90 6660.79 251.52 o
3 -15 0 198.69 215.79 148.53 o
1 -14 0 284.50 36.43 127.51 o
2 -14 0 656.87 931.82 145.73 o
2 -13 0 8132.43 9183.02 250.82 o
1 -12 0 843.53 712.53 101.59 o
2 -12 0 1684.96 2549.55 158.34 o
3 -12 0 6814.53 6345.51 218.59 o
4 -12 0 3304.83 3335.65 227.00 o
1 -11 0 6748.51 8985.44 220.70 o
2 -11 0 12352.60 11057.17 241.01 o
4 -11 0 1838.45 1927.40 180.76 o
1 -10 0 1035.40 947.24 97.39 o
2 -10 0 226.24 376.23 89.68 o
3 -10 0 8199.68 6732.25 211.59 o
1 -9 0 5955.93 6384.04 166.75 o
2 -9 0 15149.67 14866.44 269.74 o
3 -9 0 285.46 9.81 98.09 o
4 -9 0 2494.98 2401.72 183.56 o
1 -8 0 918.37 610.24 71.46 o
2 -8 0 311.04 575.91 84.07 o
3 -8 0 11747.46 11191.69 244.52 o
4 -8 0 4611.25 4314.41 201.08 o
1 -7 0 9435.54 10773.42 192.67 o
2 -7 0 15863.94 17069.89 272.54 o
3 -7 0 385.22 257.83 92.48 o
4 -7 0 3805.03 3819.08 184.96 o
0 -6 0 16568.61 13168.84 203.88 o
1 -6 0 2956.79 3868.12 110.00 o
2 -6 0 155.59 276.04 74.27 o
3 -6 0 11624.29 10744.70 223.50 o
4 -6 0 7038.14 5926.54 206.68 o
6 -6 0 1230.56 1102.07 154.84 o
1 -5 0 3202.53 2415.74 90.38 o
2 -5 0 24481.02 26422.45 362.92 o
3 -5 0 524.30 97.39 81.27 o
4 -5 0 3919.61 3969.75 117.50 o
6 -5 0 100.55 143.63 129.61 o
7 -5 0 957.62 1198.76 170.95 o
0 -4 0 40373.26 52133.07 618.65 o
1 -4 0 107.15 108.60 49.04 o
2 -4 0 1087.47 710.43 74.97 o
3 -4 0 15225.70 14456.03 165.42 o
4 -4 0 6160.59 4815.36 185.66 o
6 -4 0 1924.56 1970.14 159.04 o
1 -3 0 8420.77 8069.03 135.92 o
2 -3 0 11397.42 10359.36 177.26 o
3 -3 0 1663.87 996.28 81.27 o
4 -3 0 1618.25 2014.01 99.54 o
5 -3 0 4350.78 4081.78 132.96 o
6 -3 0 15.27 -124.71 124.71 o
7 -3 0 1561.36 2293.83 198.98 o
1 -2 0 2309.08 2048.95 52.90 o
2 -2 0 1568.45 1322.39 53.87 o
3 -2 0 9865.51 7768.00 92.06 o
4 -2 0 7024.66 6015.98 124.84 o
5 -2 0 1696.49 1823.01 143.63 o
6 -2 0 601.72 628.46 141.53 o
7 -2 0 2021.77 2407.33 199.68 o
1 -1 0 21513.48 19472.81 157.45 o
2 -1 0 14615.28 12876.64 134.47 o
3 -1 0 940.65 769.65 59.87 o
4 -1 0 2359.19 2227.33 115.09 o
5 -1 0 6419.73 5786.83 137.68 o
6 -1 0 608.97 758.61 105.74 o
7 -1 0 1580.10 2251.79 200.38 o
1 0 0 4522.84 3917.49 29.51 o
2 0 0 2552.90 1965.55 45.54 o
3 0 0 13013.89 10493.74 235.76 o
4 0 0 2832.27 2273.67 103.04 o
5 0 0 220.39 853.64 117.35 o
6 0 0 2045.57 1832.42 197.22 o
7 0 0 3414.27 3747.61 250.82 o
1 1 0 20865.25 19545.57 96.25 o
2 1 0 13507.04 12835.58 113.75 o
3 1 0 956.62 813.88 43.31 o
4 1 0 2207.67 2176.65 98.13 o
5 1 0 6479.31 5933.43 144.68 o
6 1 0 565.71 716.27 107.99 o
7 1 0 1857.26 2641.33 205.28 o
1 2 0 1826.00 2052.11 65.16 o
2 2 0 1248.48 1145.91 46.69 o
3 2 0 10046.89 7636.89 98.44 o
4 2 0 6701.00 6036.24 103.41 o
5 2 0 1751.34 1722.64 106.14 o
6 2 0 232.05 580.20 106.34 o
7 2 0 1711.15 2078.57 144.34 o
1 3 0 7415.87 8197.95 133.12 o
2 3 0 11692.46 10056.04 116.18 o
3 3 0 1684.07 1222.15 68.47 o
4 3 0 1782.88 1714.31 93.13 o
5 3 0 3910.71 4071.86 133.74 o
6 3 0 70.69 102.62 105.75 o
7 3 0 1497.21 2178.62 145.89 o
0 4 0 41450.50 52540.84 615.84 o
1 4 0 47.08 95.98 40.64 o
2 4 0 831.80 686.61 64.46 o
3 4 0 15604.00 14396.32 257.83 o
5 4 0 1201.54 1405.99 98.76 o
6 4 0 1780.59 1929.86 127.07 o
7 4 0 1693.59 1962.43 203.18 o
1 5 0 2313.53 2378.60 84.07 o
2 5 0 26554.77 26043.42 362.22 o
4 5 0 4390.33 3784.75 187.77 o
5 5 0 8176.00 7381.02 230.50 o
6 5 0 24.85 61.65 143.63 o
7 5 0 832.12 1670.28 197.57 o
0 6 0 13716.66 12946.04 200.38 o
1 6 0 3595.70 3828.88 106.49 o
2 6 0 121.13 251.52 60.95 o
3 6 0 12676.30 10542.22 192.67 o
4 6 0 6888.73 6484.93 219.99 o
5 6 0 3347.17 2848.02 184.96 o
6 6 0 1355.92 1578.50 173.75 o
7 6 0 2013.69 1518.24 198.98 o
1 7 0 10000.64 10736.29 192.67 o
2 7 0 16606.63 16084.82 271.84 o
6 7 0 149.03 208.74 155.54 o
7 7 0 839.70 1486.71 210.19 o
0 8 0 32609.59 39819.69 512.15 o
1 8 0 626.73 651.58 67.96 o
7 8 0 1387.23 1427.16 214.39 o
5 9 0 4226.31 4130.85 256.43 o
5 10 0 1316.03 1762.06 222.10 o
-3 -18 1 1612.39 1570.79 223.50 o
-2 -18 1 187.43 105.09 175.86 o
3 -18 1 5289.77 6552.19 315.28 o
-3 -17 1 1780.72 2239.88 217.19 o
-2 -17 1 5670.77 5686.23 266.94 o
2 -17 1 893.32 783.99 182.86 o
-3 -16 1 1469.69 1151.82 183.56 o
-2 -16 1 397.90 208.08 154.84 o
-3 -15 1 1864.19 2300.13 190.57 o
-1 -15 1 1337.55 1803.39 178.66 o
3 -15 1 130.03 311.07 159.74 o
-3 -14 1 3869.12 3610.99 206.68 o
-1 -14 1 7427.00 8310.04 255.03 o
-3 -13 1 1830.55 2242.68 170.95 o
-2 -13 1 5137.60 5370.95 203.88 o
-1 -13 1 1866.26 2263.70 172.35 o
-3 -12 1 3251.58 3852.00 183.56 o
-2 -12 1 803.12 641.07 98.79 o
2 -12 1 1326.74 1061.44 128.21 o
3 -12 1 5933.24 6232.01 223.50 o
-3 -11 1 1921.80 1365.51 140.12 o
-2 -11 1 9720.76 163.24 39.94 o
-1 -11 1 1081.80 1317.16 116.30 o
4 -11 1 5047.13 5799.73 247.32 o
-3 -10 1 4487.51 149.93 44.14 o
-2 -10 1 1840.41 2010.78 128.21 o
2 -10 1 2284.25 2259.50 134.52 o
4 -10 1 49.12 248.72 133.82 o
-4 -9 1 2837.90 2992.34 187.77 o
-3 -9 1 5446.13 49.74 30.83 o
-2 -9 1 11869.79 12430.39 243.82 o
-1 -9 1 3191.31 3183.61 128.91 o
-4 -8 1 7285.86 6547.46 148.53 o
-3 -8 1 4350.04 77.07 42.74 o
-2 -8 1 1906.94 1935.11 119.11 o
-1 -8 1 19446.52 22499.69 332.79 o
-5 -7 1 2732.61 2365.99 161.14 o
-4 -7 1 2285.31 2082.71 197.22 o
-3 -7 1 2396.23 2310.16 88.75 o
-2 -7 1 16625.61 15918.77 264.83 o
-1 -7 1 2706.99 3016.17 106.49 o
6 -7 1 370.70 450.50 154.84 o
-5 -6 1 15.36 31.53 119.81 o
-4 -6 1 8673.32 34.33 38.53 o
-3 -6 1 2890.12 2724.73 97.04 o
-2 -6 1 3912.09 3637.61 126.11 o
6 -6 1 2331.79 2321.85 177.26 o
7 -6 1 238.89 294.26 173.05 o
-5 -5 1 1184.34 1005.39 132.42 o
-4 -5 1 4395.26 3766.53 149.93 o
-3 -5 1 8333.57 7795.09 183.56 o
-2 -5 1 3823.68 2541.85 107.90 o
-1 -5 1 1152.71 1159.15 90.03 o
3 -5 1 1109.18 1280.03 91.78 o
5 -5 1 3511.71 4066.39 187.77 o
6 -5 1 561.69 644.57 149.93 o
7 -5 1 568.65 1083.86 188.47 o
-5 -4 1 317.71 310.37 109.30 o
-3 -4 1 2489.01 2239.18 120.51 o
-2 -4 1 3709.80 3016.76 183.56 o
2 -4 1 6872.24 7221.28 135.22 o
3 -4 1 16359.02 13058.14 210.89 o
4 -4 1 310.93 451.72 124.71 o
5 -4 1 1525.89 1621.23 143.63 o
6 -4 1 2797.90 3086.23 212.99 o
7 -4 1 165.63 266.24 170.25 o
-5 -3 1 3024.98 2780.06 169.55 o
-3 -3 1 2926.23 2101.66 76.86 o
-2 -3 1 11133.18 10509.29 157.64 o
-1 -3 1 1240.76 1655.56 63.76 o
1 -3 1 64901.78 70061.92 695.01 o
2 -3 1 1693.59 1741.04 90.38 o
3 -3 1 106.04 96.34 68.66 o
4 -3 1 8178.74 7273.40 113.11 o
5 -3 1 3318.44 3074.64 125.81 o
6 -3 1 324.20 782.59 155.54 o
7 -3 1 749.75 966.15 174.45 o
-6 -2 1 2834.97 3150.13 148.53 o
-3 -2 1 8250.92 7009.51 109.82 o
-2 -2 1 116.03 63.98 55.35 o
-1 -2 1 26237.79 29058.18 311.07 o
0 -2 1 18990.19 20333.75 153.58 o
1 -2 1 6433.81 8200.05 118.40 o
4 -2 1 194.18 269.55 71.58 o
5 -2 1 801.44 1226.97 95.06 o
6 -2 1 4498.99 4305.30 229.10 o
7 -2 1 726.87 701.32 170.25 o
-7 -1 1 537.36 651.58 170.25 o
-6 -1 1 1610.85 2324.66 238.56 o
-5 -1 1 1631.97 1483.62 96.57 o
-4 -1 1 6824.51 5577.40 116.66 o
-3 -1 1 6653.62 5756.95 103.64 o
-2 -1 1 29182.50 25468.91 291.46 o
-1 -1 1 3474.20 3905.53 81.27 o
0 -1 1 394.91 569.60 31.53 o
1 -1 1 20017.79 19697.21 218.59 o
2 -1 1 1701.10 1376.69 64.46 o
3 -1 1 6.25 171.00 52.49 o
4 -1 1 9062.27 7556.68 140.38 o
5 -1 1 5206.43 4770.21 142.29 o
6 -1 1 947.80 1437.67 168.85 o
7 -1 1 708.00 723.04 175.86 o
-7 0 1 906.47 1153.92 173.75 o
-6 0 1 1776.11 2275.39 141.53 o
-5 0 1 5.69 327.89 114.20 o
-4 0 1 7489.75 6700.52 122.61 o
-3 0 1 9578.74 9001.46 137.97 o
-2 0 1 1252.68 1041.82 74.27 o
1 0 1 2670.60 2507.03 36.60 o
2 0 1 4381.77 3966.29 77.42 o
4 0 1 650.50 950.45 63.94 o
5 0 1 783.57 1541.24 101.06 o
6 0 1 2859.85 3441.44 212.29 o
7 0 1 229.36 369.93 172.35 o
-7 1 1 439.09 829.27 127.17 o
-6 1 1 1951.16 2139.46 121.22 o
-5 1 1 1615.59 1639.75 98.44 o
-4 1 1 6305.07 5616.30 259.23 o
-3 1 1 6533.69 5791.36 87.33 o
-2 1 1 29029.32 25762.69 265.54 o
-1 1 1 3392.11 3894.74 77.07 o
2 1 1 1437.98 1430.06 58.45 o
4 1 1 8644.97 7637.54 196.17 o
5 1 1 5047.38 4847.47 140.94 o
6 1 1 1051.75 1396.93 236.81 o
7 1 1 614.43 987.87 185.66 o
-7 2 1 938.24 1106.20 130.78 o
-6 2 1 2667.45 3291.55 148.11 o
-5 2 1 325.23 378.31 80.25 o
-3 2 1 8696.79 6970.74 114.01 o
-2 2 1 150.87 282.73 97.39 o
-1 2 1 27219.44 29759.50 313.18 o
0 2 1 17363.19 20210.06 219.29 o
2 2 1 991.35 668.68 45.81 o
3 2 1 21110.27 19457.60 190.23 o
4 2 1 140.67 299.87 98.79 o
5 2 1 916.93 1302.31 128.56 o
6 2 1 4087.98 4783.82 166.18 o
-7 3 1 442.35 859.76 126.99 o
-6 3 1 2760.42 2917.52 339.45 o
-5 3 1 2497.85 2776.60 325.79 o
-3 3 1 2201.08 2045.55 81.29 o
-2 3 1 12028.86 10797.24 161.84 o
-1 3 1 1686.47 1601.62 68.66 o
0 3 1 959.82 1311.56 43.44 o
2 3 1 1792.40 1696.90 89.68 o
3 3 1 296.86 239.61 74.27 o
5 3 1 2993.31 3163.25 272.54 o
6 3 1 425.97 720.61 112.07 o
-7 4 1 1325.93 1196.02 133.02 o
-6 4 1 1604.57 1769.06 171.65 o
-5 4 1 344.44 272.54 119.11 o
-3 4 1 2714.09 2462.27 85.48 o
-2 4 1 3940.71 3031.58 98.09 o
-1 4 1 13223.85 14923.89 214.39 o
2 4 1 6504.50 7235.29 138.72 o
3 4 1 14364.31 13469.30 154.31 o
5 4 1 1358.60 1525.30 102.29 o
6 4 1 2850.38 2941.05 224.20 o
7 4 1 159.42 266.94 200.38 o
-7 5 1 1532.99 1233.79 189.87 o
-6 5 1 2280.47 2106.06 182.16 o
-5 5 1 1253.61 1053.73 133.82 o
-4 5 1 3971.21 3756.72 159.74 o
-2 5 1 2729.62 2584.27 74.97 o
-1 5 1 2088.66 1224.68 72.16 o
4 5 1 8311.78 6991.48 191.27 o
5 5 1 3997.52 3522.01 196.87 o
6 5 1 470.61 582.21 162.54 o
7 5 1 464.86 909.40 209.49 o
-6 6 1 2684.03 3348.96 224.90 o
-5 6 1 8.75 131.02 120.51 o
-3 6 1 3317.26 2829.80 128.91 o
-2 6 1 4046.79 3552.84 115.60 o
5 6 1 452.56 603.93 137.32 o
6 6 1 2210.24 2105.36 192.67 o
7 6 1 310.58 241.71 189.87 o
-6 7 1 2236.50 2202.05 192.67 o
-5 7 1 2618.07 2412.22 280.25 o
-4 7 1 2169.41 2368.09 156.24 o
-3 7 1 2416.85 2241.28 132.42 o
-1 7 1 2571.31 2925.79 103.69 o
0 7 1 739.41 110.00 47.64 o
5 7 1 3644.19 3094.64 188.47 o
6 7 1 195.85 215.79 160.44 o
7 7 1 555.22 828.13 200.38 o
-6 8 1 2860.83 3065.91 216.49 o
-5 8 1 16.37 -100.52 100.52 o
-1 8 1 18449.78 22208.93 329.29 o
0 8 1 16089.07 19707.02 292.16 o
5 8 1 1278.97 1446.08 152.74 o
-6 9 1 2219.80 2154.40 210.19 o
-5 9 1 1705.33 1221.88 198.98 o
-4 9 1 3205.07 2623.12 182.16 o
-5 10 1 115.54 -58.85 179.36 o
6 11 1 524.64 402.16 173.05 o
-3 -17 2 3917.97 3853.41 260.63 o
-2 -17 2 2394.47 2840.31 236.11 o
-2 -12 2 3001.06 3943.08 186.36 o
-4 -10 2 4863.63 5316.32 153.01 o
-3 -10 2 5269.31 5345.72 166.05 o
6 -10 2 2445.77 2294.53 210.19 o
-5 -9 2 2799.37 2979.73 211.59 o
-4 -9 2 437.57 246.12 90.50 o
-3 -9 2 11764.99 11565.44 170.30 o
6 -9 2 194.96 -119.81 166.05 o
-5 -8 2 1177.75 1530.85 164.65 o
-4 -8 2 3651.85 3687.36 198.28 o
-3 -8 2 8440.32 9508.80 233.31 o
4 -8 2 14.80 208.34 86.98 o
5 -8 2 2203.28 2012.18 166.05 o
6 -8 2 1670.51 1577.79 189.17 o
-5 -7 2 2368.84 2923.68 199.68 o
-4 -7 2 26.81 87.73 82.32 o
-3 -7 2 8612.65 7440.95 134.26 o
-2 -7 2 4688.92 5459.93 134.52 o
5 -7 2 236.58 294.26 134.52 o
-5 -6 2 3035.62 3244.57 193.37 o
-4 -6 2 3964.36 3133.17 162.54 o
-3 -6 2 10086.98 9894.14 198.98 o
-2 -6 2 2760.54 3671.24 119.11 o
0 -6 2 12905.60 16146.47 218.59 o
1 -6 2 343.29 184.26 61.65 o
3 -6 2 1541.64 2106.76 139.42 o
4 -6 2 40.37 57.76 81.96 o
5 -6 2 2222.07 2269.31 165.35 o
6 -6 2 3467.18 2711.40 196.87 o
-6 -5 2 2144.60 1905.68 177.96 o
-5 -5 2 4459.53 4109.83 196.17 o
-4 -5 2 607.30 460.54 206.68 o
-3 -5 2 10450.78 9587.27 191.27 o
-2 -5 2 4037.13 4382.37 121.21 o
-1 -5 2 1194.86 1010.29 67.26 o
0 -5 2 17688.82 19200.47 238.91 o
1 -5 2 22571.27 26720.92 322.28 o
2 -5 2 2498.31 4049.58 126.81 o
4 -5 2 11958.91 11444.62 238.91 o
5 -5 2 322.98 468.01 138.02 o
6 -5 2 216.23 275.34 158.34 o
7 -5 2 2116.47 2115.17 215.79 o
-6 -4 2 1145.70 1638.75 173.05 o
-5 -4 2 1151.97 1015.20 135.92 o
-4 -4 2 1146.49 1378.52 89.22 o
-3 -4 2 8317.22 8287.63 170.95 o
-2 -4 2 2146.13 2263.70 101.59 o
-1 -4 2 31074.69 31264.43 350.31 o
0 -4 2 3282.82 4334.73 103.69 o
1 -4 2 432.77 102.99 55.35 o
2 -4 2 21163.33 22007.85 282.35 o
3 -4 2 573.58 486.93 93.88 o
4 -4 2 175.85 511.45 109.30 o
5 -4 2 4379.34 4200.91 209.49 o
6 -4 2 1715.41 1565.88 176.56 o
7 -4 2 17.39 522.66 189.17 o
-6 -3 2 1651.36 1490.22 168.15 o
-5 -3 2 2465.86 2597.90 168.15 o
-4 -3 2 123.67 51.40 175.15 o
-3 -3 2 10931.83 10990.61 190.57 o
-2 -3 2 8512.79 8858.63 156.24 o
-1 -3 2 4008.36 3980.92 93.88 o
0 -3 2 20230.16 23741.18 270.44 o
1 -3 2 17053.22 18478.83 231.90 o
2 -3 2 568.47 652.28 74.27 o
3 -3 2 2495.21 2337.27 131.02 o
5 -3 2 470.44 655.08 140.82 o
6 -3 2 263.90 742.66 167.45 o
7 -3 2 1684.40 1951.93 219.99 o
-6 -2 2 2449.66 2624.52 179.36 o
-5 -2 2 3610.28 3360.87 170.25 o
-4 -2 2 3856.88 3108.65 161.84 o
-3 -2 2 8114.38 6884.28 149.93 o
-2 -2 2 8815.83 9742.11 158.34 o
-1 -2 2 7679.03 5553.11 102.99 o
1 -2 2 379.63 962.65 61.65 o
2 -2 2 19606.56 18312.08 243.11 o
3 -2 2 4777.99 4729.18 145.73 o
4 -2 2 446.64 769.08 218.24 o
6 -2 2 3828.93 3893.34 232.61 o
7 -2 2 383.30 654.38 189.17 o
-7 -1 2 70.04 519.16 177.26 o
-6 -1 2 1491.57 1973.64 163.94 o
-4 -1 2 878.32 687.86 57.48 o
1 -1 2 18534.13 20550.56 243.11 o
2 -1 2 3610.36 3587.87 111.40 o
4 -1 2 12681.38 10807.17 161.01 o
5 -1 2 223.21 615.52 197.22 o
6 -1 2 261.87 932.52 160.44 o
7 -1 2 1685.29 1837.02 214.39 o
-7 0 2 2584.61 2615.15 143.13 o
-6 0 2 1131.73 1436.27 154.84 o
-5 0 2 1451.21 1783.08 135.92 o
-4 0 2 4999.31 4545.62 176.56 o
3 0 2 2781.84 2045.71 82.95 o
4 0 2 362.46 762.74 81.24 o
5 0 2 5126.25 4798.05 148.04 o
6 0 2 2986.92 2913.88 201.08 o
7 0 2 20.96 435.08 180.76 o
-7 1 2 60.52 619.25 138.02 o
-6 1 2 1597.66 1803.14 140.47 o
-5 1 2 4917.82 4700.45 185.66 o
-4 1 2 808.89 717.14 172.35 o
-3 1 2 18377.68 15247.58 225.60 o
1 1 2 18365.69 20541.46 241.71 o
2 1 2 3325.91 3477.17 112.10 o
3 1 2 460.39 557.69 84.77 o
4 1 2 12626.72 10743.92 162.00 o
5 1 2 187.62 590.85 96.31 o
6 1 2 182.53 886.98 169.55 o
7 1 2 2052.08 1919.70 201.08 o
-7 2 2 1708.27 1974.13 136.40 o
-6 2 2 2543.15 2418.76 125.82 o
-4 2 2 4771.75 3320.94 147.83 o
-2 2 2 9123.97 9535.43 159.74 o
-1 2 2 5919.95 5702.34 106.49 o
0 2 2 5247.09 9057.61 137.32 o
3 2 2 4794.59 4869.30 144.33 o
4 2 2 476.18 811.69 212.64 o
5 2 2 5151.12 4486.06 205.98 o
6 2 2 4291.47 3902.61 166.95 o
-7 3 2 288.47 694.41 124.06 o
-6 3 2 1371.44 1490.22 166.75 o
-5 3 2 2729.55 2944.48 131.47 o
-4 3 2 225.52 110.27 72.55 o
-3 3 2 12094.64 10889.72 198.28 o
-2 3 2 8165.64 8792.77 157.64 o
-1 3 2 3872.84 4059.39 96.69 o
0 3 2 21507.04 23551.31 273.24 o
2 3 2 143.16 507.25 69.36 o
3 3 2 3285.45 2358.28 130.32 o
4 3 2 12693.62 11231.63 235.41 o
5 3 2 322.28 598.69 98.81 o
6 3 2 258.72 753.93 118.56 o
-7 4 2 1783.01 1678.13 139.44 o
-6 4 2 1001.05 1259.71 164.65 o
-5 4 2 1429.70 870.87 130.32 o
-4 4 2 1928.97 1118.12 90.36 o
-3 4 2 8547.52 8304.44 180.06 o
-2 4 2 1948.26 2328.86 105.79 o
-1 4 2 29913.69 31557.29 353.11 o
0 4 2 3347.81 4392.88 107.19 o
1 4 2 313.57 61.65 60.25 o
2 4 2 19786.04 21595.19 284.45 o
3 4 2 532.36 531.07 96.69 o
4 4 2 209.93 383.24 112.80 o
5 4 2 4212.04 4022.96 205.28 o
6 4 2 1799.58 1854.54 198.28 o
-7 5 2 148.97 819.72 191.97 o
-6 5 2 2170.52 1997.47 179.36 o
-5 5 2 4352.17 4021.98 160.79 o
-4 5 2 632.72 533.87 110.70 o
-3 5 2 10238.78 9950.19 196.87 o
-2 5 2 4078.08 4545.62 128.21 o
-1 5 2 902.67 879.28 67.26 o
0 5 2 16867.98 19100.98 241.71 o
1 5 2 22466.06 27818.09 327.89 o
2 5 2 2510.77 3952.19 128.91 o
3 5 2 362.08 441.39 98.09 o
5 5 2 339.27 338.40 141.53 o
6 5 2 149.25 408.46 177.96 o
7 5 2 2025.19 2338.67 231.20 o
-6 6 2 2230.03 2245.48 193.37 o
-5 6 2 2887.95 3295.71 203.88 o
-3 6 2 10767.19 10253.56 207.38 o
-1 6 2 16360.21 16299.91 226.30 o
0 6 2 13949.27 15988.13 221.40 o
2 6 2 23576.48 24209.20 315.98 o
4 6 2 42.18 276.04 117.70 o
5 6 2 1987.82 2027.59 175.15 o
6 6 2 2839.50 2984.64 215.79 o
-6 7 2 874.89 1167.23 187.77 o
-5 7 2 2121.35 2906.17 206.68 o
-4 7 2 45.84 48.26 96.69 o
-3 7 2 7676.21 7828.02 190.57 o
3 7 2 2245.14 2326.06 152.03 o
5 7 2 276.03 406.36 147.13 o
6 7 2 159.02 53.95 167.45 o
-6 8 2 1130.42 1444.68 198.98 o
-5 8 2 1160.92 1463.59 168.85 o
-4 8 2 3005.45 3482.08 189.87 o
-3 8 2 8500.20 9557.15 214.39 o
-2 8 2 896.24 883.48 84.07 o
-1 8 2 7570.31 7819.61 158.34 o
1 8 2 376.79 328.59 76.37 o
2 8 2 13353.80 13580.10 229.10 o
3 8 2 2660.19 2748.53 159.74 o
6 8 2 1334.37 1605.12 196.17 o
-6 9 2 875.49 1092.27 194.77 o
-5 9 2 2392.41 2914.17 152.68 o
-4 9 2 313.11 32.23 118.40 o
-3 9 2 12258.34 11940.65 235.41 o
-2 9 2 2317.65 2550.95 124.01 o
4 9 2 10956.82 10816.16 259.93 o
5 9 2 78.32 177.26 149.93 o
6 9 2 310.58 231.20 174.45 o
-6 10 2 1003.26 1533.66 218.59 o
-5 10 2 2088.57 2095.46 151.16 o
-4 10 2 5277.52 5428.40 220.70 o
4 10 2 380.31 197.57 138.02 o
6 10 2 2648.71 2541.15 222.80 o
-5 11 2 3659.33 3119.61 169.15 o
-5 13 2 2467.01 2908.27 229.80 o
-3 -18 3 643.35 975.26 226.30 o
5 -12 3 5157.55 4461.54 266.94 o
-5 -11 3 1912.31 2368.79 194.77 o
-4 -11 3 1385.99 1310.84 114.81 o
5 -11 3 147.47 -168.15 168.15 o
-4 -10 3 3142.59 2986.78 211.24 o
-2 -10 3 6321.04 5756.99 172.35 o
-1 -10 3 4959.59 4886.12 155.54 o
1 -10 3 9686.10 12421.28 234.01 o
2 -10 3 8617.95 9536.83 222.80 o
4 -10 3 433.84 558.39 153.44 o
5 -10 3 5879.92 5349.23 259.23 o
6 -10 3 303.48 172.35 184.96 o
-5 -9 3 3576.88 4277.28 231.20 o
-4 -9 3 1200.32 1309.34 109.15 o
-2 -9 3 10430.54 10682.34 211.59 o
0 -9 3 7741.03 7799.29 176.56 o
1 -9 3 5656.48 7066.45 179.36 o
2 -9 3 205.20 425.28 110.70 o
3 -9 3 4004.33 3947.29 193.37 o
4 -9 3 3254.20 3158.39 208.08 o
5 -9 3 219.57 216.49 162.54 o
-5 -8 3 1304.16 1070.55 168.85 o
-4 -8 3 6709.27 6592.83 213.69 o
-2 -8 3 8404.72 9139.58 191.97 o
-1 -8 3 5569.75 6249.52 154.84 o
3 -8 3 2750.38 3687.36 182.86 o
4 -8 3 64.50 -109.30 139.42 o
5 -8 3 6666.43 6005.71 250.82 o
6 -8 3 298.55 170.25 184.26 o
-5 -7 3 1914.74 2076.64 177.26 o
-4 -7 3 143.19 82.91 85.18 o
-3 -7 3 2667.77 3139.47 146.43 o
-2 -7 3 12635.73 13697.11 227.00 o
-1 -7 3 334.86 -30.13 63.76 o
0 -7 3 20712.84 22005.75 292.86 o
1 -7 3 4228.32 4802.75 147.13 o
2 -7 3 772.15 1224.68 111.40 o
3 -7 3 6700.46 6740.66 204.58 o
4 -7 3 2446.13 1443.98 156.24 o
5 -7 3 352.28 227.00 154.14 o
6 -7 3 1766.98 1760.66 205.98 o
-6 -6 3 81.00 172.35 168.15 o
-5 -6 3 1240.71 1319.27 158.34 o
-4 -6 3 3480.10 3873.09 133.76 o
-3 -6 3 514.31 611.64 95.98 o
-2 -6 3 11154.13 11725.56 203.18 o
-1 -6 3 7225.17 7750.25 156.24 o
0 -6 3 4474.38 4466.45 128.91 o
2 -6 3 5519.60 5668.01 166.75 o
4 -6 3 79.88 30.13 126.11 o
5 -6 3 7789.35 6455.51 244.52 o
6 -6 3 494.67 982.97 187.77 o
-6 -5 3 1462.77 1755.75 189.87 o
-5 -5 3 2607.86 2802.48 192.67 o
-4 -5 3 3410.58 3480.68 194.07 o
-3 -5 3 7253.21 6905.30 175.86 o
0 -5 3 11922.04 11665.31 187.07 o
1 -5 3 6400.74 7307.46 159.04 o
2 -5 3 415.74 553.49 91.78 o
3 -5 3 10807.26 10321.52 219.99 o
4 -5 3 4504.70 4546.32 199.68 o
5 -5 3 116.33 311.78 139.42 o
6 -5 3 1742.07 1380.92 201.08 o
-6 -4 3 46.96 241.01 158.34 o
-4 -4 3 7584.74 7237.41 153.53 o
-3 -4 3 1294.32 1583.40 108.60 o
-2 -4 3 14972.20 14179.13 213.69 o
-1 -4 3 9678.92 11170.67 179.36 o
0 -4 3 7712.97 9019.77 159.04 o
1 -4 3 9099.97 11232.33 189.87 o
2 -4 3 13141.93 13989.26 227.70 o
3 -4 3 2593.75 3062.41 159.74 o
5 -4 3 7448.96 7032.12 236.81 o
6 -4 3 598.76 547.18 180.76 o
-7 -3 3 235.18 771.38 189.17 o
-6 -3 3 2831.83 3114.95 205.98 o
-5 -3 3 3180.59 3060.30 182.16 o
-4 -3 3 2062.75 2020.86 134.17 o
-3 -3 3 7874.10 7710.31 180.06 o
-2 -3 3 13353.70 14073.34 210.19 o
-1 -3 3 97.09 -48.34 48.34 o
0 -3 3 21355.85 23488.96 285.85 o
1 -3 3 11311.70 15535.53 224.20 o
3 -3 3 11940.32 11004.63 221.40 o
4 -3 3 1877.04 1751.55 145.03 o
5 -3 3 228.98 627.75 147.83 o
6 -3 3 1341.52 1399.14 189.17 o
-7 -2 3 2553.52 2635.73 220.70 o
-6 -2 3 144.73 340.50 152.03 o
-5 -2 3 2043.85 2390.51 170.25 o
-4 -2 3 6933.82 5852.97 211.59 o
-3 -2 3 1591.64 1507.73 104.39 o
1 -2 3 8838.68 9943.89 167.45 o
3 -2 3 1018.07 852.65 112.80 o
4 -2 3 375.13 454.00 126.81 o
5 -2 3 7549.62 7581.40 247.32 o
6 -2 3 145.92 879.98 175.15 o
-6 -1 3 3100.32 3144.38 209.49 o
-5 -1 3 4735.30 4572.94 189.17 o
-4 -1 3 2786.08 2386.31 163.24 o
4 -1 3 3870.64 3693.66 175.86 o
5 -1 3 124.46 1002.59 156.94 o
6 -1 3 867.41 1074.75 180.76 o
-7 0 3 2765.27 3786.15 250.82 o
-4 0 3 5937.12 5364.64 204.58 o
4 0 3 1870.25 2225.87 144.33 o
5 0 3 8175.63 8365.39 258.53 o
6 0 3 105.96 623.55 178.66 o
-7 1 3 122.57 617.95 189.17 o
-6 1 3 3286.92 2883.75 193.37 o
3 1 3 10934.01 10149.17 208.78 o
4 1 3 4627.84 3641.78 124.16 o
5 1 3 158.55 1140.84 175.15 o
6 1 3 1040.23 783.99 175.15 o
-7 2 3 2519.05 2904.47 153.95 o
-5 2 3 2378.36 2403.12 163.24 o
1 2 3 9426.55 9922.87 170.25 o
2 2 3 13341.72 12769.49 207.38 o
3 2 3 1051.97 1155.32 112.80 o
4 2 3 490.44 180.76 118.40 o
5 2 3 8623.55 7212.32 176.07 o
6 2 3 148.24 563.30 169.55 o
-7 3 3 273.57 770.68 194.77 o
-6 3 3 3224.04 2885.85 205.98 o
-4 3 3 1892.02 2012.18 136.62 o
-3 3 3 7444.07 7809.10 182.16 o
-2 3 3 13166.74 13914.30 212.99 o
-1 3 3 247.49 -53.95 53.95 o
2 3 3 2508.30 2758.34 126.11 o
5 3 3 309.07 900.30 159.74 o
-7 4 3 3140.10 3264.18 244.52 o
-6 4 3 40.88 221.40 159.04 o
-5 4 3 574.10 888.39 143.63 o
-4 4 3 6763.25 7056.64 205.28 o
-3 4 3 1468.31 1507.73 109.30 o
-1 4 3 10634.82 11572.13 184.96 o
1 4 3 9305.35 11513.98 195.47 o
2 4 3 13468.00 13991.37 229.80 o
3 4 3 2643.84 3386.79 161.84 o
4 4 3 565.92 903.80 135.92 o
5 4 3 7913.42 6589.32 255.73 o
6 4 3 635.31 710.43 187.77 o
-7 5 3 433.99 935.33 202.48 o
-6 5 3 1429.97 1625.44 184.26 o
-5 5 3 2747.52 2832.60 198.98 o
-2 5 3 15964.90 16021.06 238.21 o
-1 5 3 952.39 1160.23 82.67 o
0 5 3 10698.88 11638.69 190.57 o
1 5 3 5358.76 7266.12 164.65 o
2 5 3 418.79 613.04 93.18 o
3 5 3 9717.11 10027.26 231.20 o
4 5 3 4381.94 4329.13 207.38 o
5 5 3 106.72 231.20 145.03 o
6 5 3 1900.56 1762.76 199.68 o
-7 6 3 2323.86 2636.43 243.11 o
-6 6 3 92.71 -7.01 163.94 o
-5 6 3 1080.45 919.21 154.14 o
-4 6 3 3626.89 3561.25 187.07 o
-3 6 3 579.30 760.17 100.19 o
-2 6 3 11156.01 11339.52 204.58 o
-1 6 3 7561.30 7989.86 162.54 o
1 6 3 10610.57 11820.15 209.49 o
2 6 3 5224.99 5704.44 165.35 o
3 6 3 588.27 516.36 121.21 o
4 6 3 19.75 115.60 132.42 o
5 6 3 7061.02 6834.54 255.73 o
6 6 3 541.14 847.73 128.58 o
-6 7 3 2164.54 2345.67 218.59 o
-5 7 3 1794.99 1867.15 175.86 o
-4 7 3 82.08 93.18 117.70 o
-3 7 3 3371.99 3208.84 157.64 o
-2 7 3 13065.07 13304.76 227.70 o
2 7 3 859.64 1223.98 111.40 o
3 7 3 6210.39 6683.91 204.58 o
4 7 3 1414.44 1472.00 161.14 o
5 7 3 381.15 452.60 161.14 o
6 7 3 1803.37 1551.17 211.59 o
-6 8 3 83.29 -168.85 168.85 o
-5 8 3 1367.69 1294.04 173.75 o
-4 8 3 7292.72 6100.29 221.40 o
-2 8 3 8911.04 9066.71 194.07 o
-1 8 3 6293.74 6416.97 159.74 o
0 8 3 4804.12 5467.63 152.03 o
1 8 3 5971.01 6864.67 177.26 o
5 8 3 6589.03 6520.66 262.03 o
6 8 3 353.40 622.85 198.98 o
-6 9 3 2275.15 2752.03 233.31 o
-5 9 3 3505.14 3716.08 237.51 o
-4 9 3 1138.31 1129.40 145.73 o
-3 9 3 2657.39 2577.58 156.94 o
-2 9 3 10768.43 10859.60 215.79 o
-1 9 3 1800.55 2165.61 128.91 o
2 9 3 224.69 233.31 109.30 o
3 9 3 4272.55 4019.45 190.57 o
4 9 3 3625.30 3350.36 215.09 o
5 9 3 213.87 292.16 166.75 o
6 9 3 1234.93 1195.96 212.29 o
-6 10 3 73.26 -166.75 187.07 o
-5 10 3 1567.57 1605.12 192.67 o
-4 10 3 2577.41 2805.98 198.28 o
-3 10 3 717.53 848.45 117.70 o
3 10 3 317.80 257.13 133.12 o
5 10 3 6041.85 4851.09 256.43 o
6 10 3 311.71 497.44 205.28 o
-6 11 3 2477.83 1958.93 232.61 o
-5 11 3 1621.41 2101.86 203.88 o
-4 11 3 1567.05 800.11 149.93 o
-3 11 3 4932.32 4947.77 191.27 o
-2 11 3 5718.12 5472.54 181.46 o
2 11 3 174.84 -103.69 112.80 o
4 11 3 2574.47 2543.95 196.87 o
5 11 3 182.36 84.77 176.56 o
-5 12 3 899.73 997.68 190.57 o
-4 12 3 4139.85 3620.10 215.09 o
-3 12 3 690.55 449.10 124.01 o
-1 12 3 3067.54 2962.22 160.44 o
0 12 3 4795.47 5286.17 173.75 o
4 12 3 1001.34 842.84 173.75 o
5 12 3 5606.82 4999.62 270.44 o
-5 13 3 2723.76 2495.61 223.50 o
-4 13 3 1760.48 2263.00 187.07 o
-3 13 3 3305.63 2930.69 194.77 o
-2 13 3 5069.03 5342.22 191.97 o
4 13 3 1886.88 1735.43 191.97 o
5 13 3 271.24 9.81 189.17 o
-5 14 3 715.97 810.62 198.98 o
-3 14 3 533.78 339.10 143.63 o
-3 15 3 3264.96 3622.20 220.70 o
-4 17 3 590.97 803.61 207.38 o
-3 -17 4 3415.34 4205.12 241.01 o
-3 -16 4 404.09 227.00 153.44 o
-4 -15 4 231.65 -27.32 155.54 o
-4 -14 4 2363.77 2017.08 186.36 o
2 -14 4 2220.55 1381.62 166.75 o
-4 -13 4 1091.99 1074.75 170.25 o
-3 -13 4 4819.53 4713.07 205.28 o
-2 -13 4 2505.88 3129.67 181.46 o
-1 -13 4 3100.22 2906.87 180.06 o
1 -13 4 4271.60 4426.51 206.68 o
2 -13 4 2939.75 3231.26 210.19 o
-5 -12 4 2375.32 2177.52 210.19 o
-4 -12 4 4071.66 4307.41 229.80 o
-3 -12 4 664.88 731.45 138.02 o
-2 -12 4 3888.85 4333.33 182.16 o
1 -12 4 8566.67 9828.99 246.62 o
2 -12 4 4962.24 5786.41 220.70 o
3 -12 4 838.72 662.09 156.94 o
4 -12 4 3309.90 3281.70 223.50 o
5 -12 4 2102.48 1949.82 221.40 o
-5 -11 4 33.17 -89.68 159.74 o
-4 -11 4 811.73 728.64 152.03 o
-3 -11 4 5965.83 5869.09 205.28 o
-2 -11 4 3836.96 4574.34 177.96 o
1 -11 4 7703.77 8853.73 229.10 o
3 -11 4 4556.50 4769.82 226.30 o
5 -11 4 31.32 -186.36 186.36 o
-5 -10 4 2040.10 2130.58 196.17 o
-4 -10 4 3972.14 3289.44 151.59 o
-3 -10 4 629.91 709.03 128.21 o
0 -10 4 7.80 147.83 101.59 o
1 -10 4 9516.82 11557.42 245.22 o
2 -10 4 5378.42 6146.53 213.69 o
3 -10 4 1491.82 1895.17 173.05 o
4 -10 4 2790.69 2419.24 204.58 o
5 -10 4 2010.43 1827.21 212.99 o
-5 -9 4 351.69 458.20 158.34 o
-4 -9 4 1136.27 1173.54 145.03 o
-3 -9 4 5382.51 4988.41 191.27 o
-2 -9 4 1420.90 1581.30 117.00 o
-1 -9 4 4477.75 4249.96 161.84 o
2 -9 4 1594.96 2035.30 149.93 o
3 -9 4 6867.55 6934.73 235.41 o
4 -9 4 1198.26 1119.59 177.96 o
5 -9 4 68.06 -91.78 175.15 o
-6 -8 4 27.55 -171.65 176.56 o
-5 -8 4 1781.36 1911.99 177.26 o
-4 -8 4 4514.16 4235.94 193.37 o
-3 -8 4 4030.41 3804.36 174.45 o
-2 -8 4 7696.02 8714.30 201.08 o
-1 -8 4 7196.04 7325.67 182.86 o
0 -8 4 12.16 -36.43 88.98 o
1 -8 4 6674.23 7313.76 196.17 o
2 -8 4 6874.51 8609.91 224.20 o
3 -8 4 674.90 971.76 146.43 o
4 -8 4 8083.25 8148.20 272.54 o
5 -8 4 2448.81 2628.72 213.69 o
-6 -7 4 4301.46 4870.70 269.74 o
-5 -7 4 330.09 324.39 147.13 o
-4 -7 4 718.28 664.19 126.11 o
-3 -7 4 9642.13 9938.98 222.10 o
-2 -7 4 3158.48 3915.76 150.63 o
0 -7 4 3313.84 3234.76 152.03 o
1 -7 4 6719.50 8418.64 199.68 o
2 -7 4 3105.30 3788.95 180.06 o
3 -7 4 6152.16 5045.16 214.39 o
4 -7 4 926.53 601.13 165.35 o
5 -7 4 234.91 122.61 173.75 o
6 -7 4 2889.31 2839.61 233.31 o
-6 -6 4 98.34 -86.18 173.05 o
-5 -6 4 2523.51 2768.85 190.57 o
-4 -6 4 6477.49 6074.57 156.39 o
-3 -6 4 662.86 792.40 107.19 o
-1 -6 4 10379.47 9456.24 132.03 o
0 -6 4 35.55 152.03 80.57 o
1 -6 4 7030.13 7069.25 182.86 o
2 -6 4 6126.72 6628.56 194.77 o
3 -6 4 2303.89 2751.33 186.36 o
4 -6 4 3305.37 3031.58 214.39 o
5 -6 4 2878.05 3008.46 207.38 o
6 -6 4 138.09 477.12 192.67 o
-6 -5 4 4251.51 4399.89 255.03 o
-5 -5 4 204.08 292.16 142.23 o
-4 -5 4 1595.04 1392.13 133.82 o
-3 -5 4 13530.93 12929.23 239.61 o
-2 -5 4 5512.91 5733.17 161.14 o
-1 -5 4 7687.74 7807.00 168.85 o
0 -5 4 3079.84 2497.01 130.32 o
1 -5 4 8645.25 10571.64 205.98 o
2 -5 4 2412.33 2910.37 156.24 o
3 -5 4 4446.11 4198.81 191.27 o
4 -5 4 2186.46 2227.27 177.26 o
5 -5 4 107.84 -69.36 161.84 o
6 -5 4 3621.45 3911.56 273.24 o
-6 -4 4 199.85 308.97 168.85 o
-4 -4 4 5676.59 5608.46 193.37 o
-3 -4 4 551.05 620.05 95.28 o
-2 -4 4 9142.54 9990.13 194.07 o
-1 -4 4 10031.04 10687.25 191.97 o
0 -4 4 270.31 230.50 73.57 o
1 -4 4 16418.21 20325.66 290.76 o
2 -4 4 6001.04 6737.85 187.07 o
3 -4 4 1363.05 1287.74 136.62 o
4 -4 4 6821.66 7419.56 243.11 o
5 -4 4 2942.03 2787.76 199.68 o
6 -4 4 262.41 508.65 192.67 o
-6 -3 4 4952.62 4739.69 248.72 o
-5 -3 4 98.94 394.45 140.12 o
-3 -3 4 10105.84 10181.40 208.78 o
-2 -3 4 6036.81 6013.42 156.24 o
-1 -3 4 8622.94 9510.21 174.45 o
1 -3 4 8798.72 10169.49 194.77 o
2 -3 4 6299.57 7285.04 187.07 o
3 -3 4 6411.42 6642.57 201.78 o
4 -3 4 2063.45 2492.80 173.75 o
5 -3 4 23.29 -15.41 152.03 o
6 -3 4 4206.73 4639.50 282.35 o
-6 -2 4 378.68 905.90 171.65 o
0 -2 4 404.53 695.71 79.17 o
3 -2 4 1092.83 1428.56 134.52 o
4 -2 4 3594.61 3607.49 197.57 o
5 -2 4 4678.71 4254.86 224.20 o
6 -2 4 368.46 771.38 201.78 o
-6 -1 4 4816.19 4788.03 242.41 o
-5 -1 4 20.90 218.59 131.02 o
3 -1 4 7112.56 6664.29 196.87 o
4 -1 4 1694.07 2039.50 158.34 o
5 -1 4 78.64 76.37 148.53 o
6 -1 4 4456.87 4340.34 276.04 o
-7 0 4 438.76 987.17 196.17 o
-6 0 4 155.55 910.10 163.24 o
4 0 4 4623.89 4233.14 203.88 o
5 0 4 858.19 768.58 165.35 o
6 0 4 346.53 957.05 189.87 o
-5 1 4 128.54 255.73 143.63 o
4 2 4 3658.54 3549.34 202.48 o
5 2 4 4244.04 3735.70 231.90 o
-6 3 4 4698.47 4702.56 259.93 o
-5 3 4 238.04 144.33 138.02 o
-4 3 4 1222.48 1103.48 128.91 o
-3 3 4 10118.73 10470.75 214.39 o
-2 3 4 6077.61 6193.47 160.44 o
3 3 4 7738.09 6607.54 207.38 o
4 3 4 2120.27 2378.60 180.06 o
5 3 4 92.61 234.71 165.35 o
-6 4 4 153.11 185.66 173.05 o
-3 4 4 708.98 486.23 98.09 o
-2 4 4 9653.22 10194.71 198.28 o
-1 4 4 9559.62 10961.89 201.08 o
0 4 4 250.42 379.03 84.07 o
1 4 4 16918.13 19892.68 295.66 o
2 4 4 6815.21 6869.57 187.77 o
3 4 4 1353.94 1216.28 142.93 o
4 4 4 6878.53 7741.84 254.32 o
5 4 4 2770.63 2842.41 215.09 o
-6 5 4 4405.57 4167.98 262.73 o
-5 5 4 278.04 278.85 146.43 o
-4 5 4 1549.33 1068.44 140.12 o
-3 5 4 13806.09 13508.64 245.22 o
-1 5 4 7340.62 7225.49 174.45 o
0 5 4 1966.16 2491.40 138.72 o
1 5 4 8935.05 10006.94 212.29 o
2 5 4 1887.65 2590.19 159.74 o
3 5 4 4076.48 4242.95 191.97 o
4 5 4 1875.50 1867.15 179.36 o
5 5 4 186.92 369.23 173.05 o
-6 6 4 53.80 256.43 180.06 o
-5 6 4 2529.30 2967.82 196.17 o
-4 6 4 6061.06 6197.68 216.49 o
-3 6 4 572.71 802.91 110.00 o
-2 6 4 3834.94 4319.32 158.34 o
0 6 4 51.16 115.60 85.48 o
1 6 4 6681.75 7553.38 194.07 o
2 6 4 5810.71 6621.55 196.17 o
3 6 4 2395.71 3067.31 185.66 o
4 6 4 3433.90 2848.02 198.28 o
5 6 4 3255.39 2660.95 217.89 o
6 6 4 130.09 136.62 204.58 o
-6 7 4 4552.60 4870.00 280.25 o
-5 7 4 286.69 400.75 156.94 o
-4 7 4 566.37 633.36 135.22 o
-3 7 4 9210.17 9839.50 227.70 o
-2 7 4 3021.61 3606.09 159.04 o
-1 7 4 5179.85 4464.35 160.44 o
0 7 4 2976.50 3639.72 153.44 o
1 7 4 7026.21 8285.52 206.68 o
2 7 4 3017.94 3975.31 180.06 o
3 7 4 5120.98 5504.06 214.39 o
4 7 4 822.13 614.44 170.95 o
5 7 4 276.94 275.34 179.36 o
6 7 4 2974.09 2620.32 254.32 o
-6 8 4 86.26 -182.86 182.86 o
-5 8 4 2068.24 2054.22 194.77 o
-4 8 4 4236.45 4041.87 207.38 o
-3 8 4 4086.31 3784.04 181.46 o
-2 8 4 8080.89 8486.60 208.08 o
0 8 4 25.30 -89.68 89.68 o
1 8 4 6193.91 7526.05 205.98 o
2 8 4 7212.19 8572.08 224.90 o
3 8 4 674.87 664.19 143.63 o
4 8 4 8102.30 8500.61 280.95 o
5 8 4 2986.26 2500.51 219.29 o
-6 9 4 4230.98 4489.57 297.06 o
-5 9 4 362.75 360.82 163.24 o
-4 9 4 1412.66 1172.14 151.33 o
-3 9 4 6666.55 5315.60 200.38 o
-2 9 4 1801.30 1313.66 122.61 o
-1 9 4 4629.45 4158.17 169.55 o
1 9 4 6866.56 7885.47 212.99 o
2 9 4 1741.41 1837.72 149.93 o
3 9 4 6983.47 7034.92 238.21 o
4 9 4 1244.33 1284.23 183.56 o
5 9 4 80.57 162.54 187.07 o
-6 10 4 119.36 -145.03 202.48 o
-5 10 4 2209.73 1869.25 201.78 o
-4 10 4 3669.71 3244.57 210.89 o
-3 10 4 482.73 863.16 131.72 o
-2 10 4 2540.92 2653.24 164.65 o
-1 10 4 9906.41 10598.97 235.41 o
0 10 4 25.54 148.53 102.99 o
1 10 4 10090.38 11612.76 253.62 o
2 10 4 5677.54 6041.44 214.39 o
3 10 4 1683.31 1798.49 170.25 o
4 10 4 2372.83 2738.72 210.89 o
5 10 4 1753.06 1775.37 222.10 o
-5 11 4 1.17 -133.12 161.84 o
-4 11 4 674.87 883.48 162.54 o
-3 11 4 5581.82 5637.88 220.70 o
-2 11 4 4079.08 4307.41 184.96 o
0 11 4 5165.78 5188.09 192.67 o
1 11 4 7359.98 8725.51 233.31 o
2 11 4 2345.30 2448.66 170.25 o
3 11 4 4701.69 4827.27 227.70 o
4 11 4 1248.11 1369.71 193.37 o
5 11 4 0.32 -195.47 195.47 o
-5 12 4 2048.59 2433.25 221.40 o
-4 12 4 4045.93 4343.14 241.01 o
-3 12 4 660.74 520.56 142.23 o
-1 12 4 7315.87 7807.00 219.29 o
0 12 4 394.51 155.54 117.70 o
1 12 4 8251.28 9775.04 251.52 o
2 12 4 5080.41 5450.82 223.50 o
3 12 4 715.39 607.44 156.24 o
4 12 4 2993.10 3258.58 231.20 o
5 12 4 2033.28 2523.63 242.41 o
-5 13 4 59.28 36.43 180.76 o
-4 13 4 809.55 931.82 174.45 o
-3 13 4 4103.36 4748.10 227.00 o
-2 13 4 2596.14 3107.25 194.07 o
-1 13 4 3349.36 2781.46 182.86 o
0 13 4 4963.42 5008.03 210.19 o
1 13 4 4263.01 4124.54 212.99 o
2 13 4 2945.18 3471.57 211.59 o
-5 14 4 1427.91 1661.17 233.31 o
-4 14 4 1832.79 1901.48 206.68 o
-3 14 4 185.60 -79.17 147.83 o
-2 14 4 3239.81 3383.29 208.08 o
-1 14 4 6959.98 7327.08 231.90 o
2 14 4 1486.53 1273.73 168.85 o
3 14 4 564.23 622.85 169.55 o
4 14 4 2245.85 2436.05 224.90 o
-4 15 4 285.28 212.29 181.46 o
-3 15 4 4044.43 5510.37 243.82 o
1 15 4 3499.71 3888.44 222.80 o
4 15 4 847.83 948.64 210.89 o
-3 17 4 3759.15 4029.26 254.32 o
-1 17 4 2195.45 2511.72 194.77 o
-2 18 4 2578.95 3395.90 232.61 o
-1 18 4 4348.99 4377.47 236.11 o
-2 -17 5 142.47 42.04 161.14 o
-1 -17 5 1152.54 999.08 176.56 o
0 -17 5 4089.39 3900.35 228.40 o
-3 -16 5 874.83 854.05 180.06 o
-2 -16 5 3962.70 3662.84 227.00 o
-1 -16 5 2381.89 2518.73 197.57 o
-3 -15 5 3933.83 3571.05 159.91 o
-2 -15 5 180.72 461.01 154.84 o
-1 -15 5 1926.22 2709.29 190.57 o
0 -15 5 3924.68 3469.47 222.10 o
2 -15 5 3474.65 3176.61 217.89 o
-4 -14 5 391.82 396.55 173.75 o
-1 -14 5 3063.99 3175.21 208.78 o
1 -14 5 2617.91 2732.42 197.57 o
2 -14 5 4443.74 3770.03 242.41 o
3 -14 5 418.42 246.62 182.86 o
-4 -13 5 1236.26 1321.37 186.36 o
-3 -13 5 5255.31 5191.59 231.90 o
-2 -13 5 202.07 152.03 136.62 o
-1 -13 5 1975.61 2668.66 177.26 o
0 -13 5 6207.72 5612.66 228.40 o
1 -13 5 267.41 106.49 149.93 o
2 -13 5 2936.21 3359.47 209.49 o
3 -13 5 2660.67 2002.37 205.28 o
4 -13 5 1022.46 741.26 204.58 o
-5 -12 5 4186.65 4125.95 278.85 o
-4 -12 5 632.68 666.99 168.85 o
-3 -12 5 609.82 662.79 145.73 o
-2 -12 5 5452.71 6471.62 231.20 o
-1 -12 5 3204.02 2956.61 193.37 o
0 -12 5 2177.00 2762.54 175.86 o
1 -12 5 2400.34 2901.26 188.47 o
2 -12 5 5388.44 5301.59 242.41 o
3 -12 5 357.18 583.62 171.65 o
4 -12 5 2136.45 2363.19 225.60 o
-5 -11 5 33.28 -127.51 177.26 o
-4 -11 5 1411.33 1653.46 187.77 o
-3 -11 5 6677.96 6714.03 230.50 o
-2 -11 5 35.81 305.47 122.61 o
-1 -11 5 5536.02 6016.92 214.39 o
1 -11 5 757.81 1052.33 152.74 o
2 -11 5 5143.93 5843.16 242.41 o
3 -11 5 2782.97 2220.26 194.07 o
4 -11 5 1374.79 1526.65 203.18 o
-5 -10 5 4115.49 3728.70 249.42 o
-4 -10 5 151.21 283.05 147.83 o
-3 -10 5 462.40 244.52 130.32 o
-2 -10 5 10811.83 11886.71 259.93 o
-1 -10 5 5719.42 6737.85 208.08 o
0 -10 5 3009.97 3539.53 187.77 o
1 -10 5 5567.16 6728.05 228.40 o
2 -10 5 5091.39 4887.52 224.20 o
3 -10 5 487.22 447.70 160.44 o
4 -10 5 3676.45 3278.90 228.40 o
-5 -9 5 154.30 244.52 160.44 o
-4 -9 5 1423.54 1173.54 157.64 o
-3 -9 5 8709.56 8704.49 238.21 o
-2 -9 5 104.25 205.28 108.60 o
-1 -9 5 2098.72 1930.91 138.02 o
0 -9 5 10153.22 11111.12 250.82 o
1 -9 5 242.38 481.33 126.81 o
2 -9 5 4465.76 4161.68 210.19 o
3 -9 5 2793.16 2363.19 189.87 o
4 -9 5 1207.01 1340.28 197.57 o
5 -9 5 1737.63 1662.57 227.00 o
-6 -8 5 68.33 259.93 180.76 o
-5 -8 5 3856.43 4139.26 237.51 o
-4 -8 5 69.58 241.01 137.32 o
-3 -8 5 506.10 636.86 122.61 o
-1 -8 5 3755.44 3993.53 166.75 o
0 -8 5 2530.74 2956.61 168.85 o
1 -8 5 4540.14 5350.63 202.48 o
3 -8 5 1149.16 1272.32 165.35 o
4 -8 5 2302.21 2313.44 202.48 o
5 -8 5 1011.02 470.82 208.08 o
-6 -7 5 1175.39 1250.61 203.18 o
-5 -7 5 106.06 279.55 154.14 o
-4 -7 5 2593.63 2539.04 175.15 o
-3 -7 5 6024.58 5513.17 201.78 o
-2 -7 5 212.54 -93.88 93.88 o
-1 -7 5 2644.43 2839.61 154.14 o
0 -7 5 7863.72 8819.39 217.19 o
1 -7 5 638.03 979.47 124.01 o
2 -7 5 7240.34 8465.58 238.91 o
3 -7 5 2447.42 2416.44 185.66 o
4 -7 5 1424.10 1538.56 192.67 o
5 -7 5 2220.31 2415.03 229.80 o
-6 -6 5 544.29 295.66 185.66 o
-5 -6 5 6824.17 6319.58 250.12 o
-4 -6 5 237.33 521.26 132.42 o
-3 -6 5 781.04 901.70 127.51 o
-1 -6 5 6237.49 6299.27 177.26 o
0 -6 5 3828.55 4109.13 168.85 o
1 -6 5 5388.29 5146.75 187.77 o
2 -6 5 8158.48 8692.58 236.81 o
3 -6 5 1494.04 1542.06 166.75 o
4 -6 5 5415.27 5982.59 259.93 o
5 -6 5 2277.86 2728.21 230.50 o
-6 -5 5 2439.07 2246.89 210.89 o
-5 -5 5 18.02 423.17 149.93 o
-4 -5 5 3310.36 3308.32 187.77 o
-3 -5 5 7828.59 7987.06 213.69 o
-2 -5 5 1451.96 1509.83 115.60 o
-1 -5 5 2878.45 2690.38 143.63 o
1 -5 5 851.96 1128.70 116.30 o
3 -5 5 6286.64 7317.27 243.82 o
4 -5 5 1599.41 1798.49 195.47 o
5 -5 5 2513.29 2641.33 227.00 o
-6 -4 5 243.27 496.04 178.66 o
-5 -4 5 8063.41 7945.02 259.93 o
-4 -4 5 1039.55 901.00 130.32 o
-1 -4 5 6945.85 6812.82 173.75 o
1 -4 5 3836.92 5032.55 177.96 o
3 -4 5 1500.89 2199.94 166.75 o
4 -4 5 3097.05 3253.68 209.49 o
5 -4 5 1113.16 1225.38 196.17 o
-6 -3 5 1275.56 1281.43 192.67 o
-5 -3 5 13.48 633.36 148.53 o
-4 -3 5 2653.41 2504.01 168.85 o
-3 -3 5 8407.14 8039.61 202.48 o
2 -3 5 7505.36 8916.78 227.70 o
4 -3 5 1782.86 2264.40 189.17 o
5 -3 5 1884.80 2190.14 211.59 o
4 -2 5 3860.21 3458.96 223.50 o
5 -2 5 1783.97 1816.71 198.28 o
-6 -1 5 1184.37 1677.98 194.07 o
5 -1 5 2778.31 3171.00 217.19 o
4 0 5 2857.84 2843.11 192.67 o
5 1 5 2625.97 2831.20 209.49 o
1 3 5 985.39 994.18 119.81 o
-6 4 5 316.54 149.23 175.15 o
0 4 5 2055.08 2105.36 149.93 o
2 4 5 10516.23 11095.01 252.22 o
3 4 5 1375.11 2197.14 179.36 o
4 4 5 3053.37 3275.39 219.99 o
5 4 5 1141.98 961.25 205.28 o
-6 5 5 2345.05 2309.24 218.59 o
-3 5 5 7690.61 7643.06 218.59 o
-1 5 5 3205.43 3075.72 161.84 o
1 5 5 816.64 1314.36 135.22 o
2 5 5 3901.88 4367.66 198.98 o
3 5 5 6480.58 7396.44 250.82 o
4 5 5 1576.19 1723.52 205.28 o
5 5 5 2363.31 2272.81 233.31 o
-6 6 5 499.73 264.83 187.07 o
-5 6 5 6373.09 6425.38 259.93 o
-4 6 5 248.64 74.97 129.61 o
-3 6 5 895.37 1323.47 135.22 o
-2 6 5 10022.01 10135.86 230.50 o
-1 6 5 6730.28 6477.22 191.27 o
0 6 5 3966.41 4551.92 179.36 o
1 6 5 4529.81 5772.40 202.48 o
2 6 5 8118.32 8965.12 241.01 o
3 6 5 1692.14 1551.17 170.25 o
4 6 5 5895.89 5672.91 274.64 o
5 6 5 2438.15 2148.10 233.31 o
-6 7 5 1160.76 1283.53 208.78 o
-5 7 5 96.15 34.33 152.03 o
-4 7 5 2675.40 2578.98 182.16 o
-3 7 5 5772.31 5754.19 209.49 o
-2 7 5 224.69 197.57 107.90 o
-1 7 5 2736.05 2787.76 164.65 o
0 7 5 7439.42 8705.89 220.70 o
1 7 5 629.89 1035.52 134.52 o
2 7 5 7460.03 8589.59 242.41 o
3 7 5 2731.37 2412.93 186.36 o
4 7 5 1420.60 1521.74 205.28 o
5 7 5 2150.48 2472.49 243.82 o
-6 8 5 41.04 91.08 192.67 o
-5 8 5 3973.09 3805.76 245.22 o
-4 8 5 155.86 318.78 145.73 o
-3 8 5 356.74 649.47 135.92 o
-2 8 5 5834.40 6371.43 208.78 o
0 8 5 2351.80 2813.69 175.15 o
1 8 5 4673.00 5098.41 208.78 o
2 8 5 5939.18 5820.74 224.20 o
3 8 5 1113.78 1172.14 170.95 o
4 8 5 2308.34 2496.31 222.80 o
5 8 5 842.99 715.33 227.70 o
-5 9 5 148.90 342.60 174.45 o
-4 9 5 1513.17 1539.26 171.65 o
-3 9 5 8797.89 8807.48 252.22 o
-2 9 5 81.18 -38.53 117.70 o
-1 9 5 2069.35 2195.74 154.14 o
0 9 5 9539.96 11428.50 260.63 o
1 9 5 215.82 355.21 134.52 o
2 9 5 4052.70 3897.54 215.79 o
3 9 5 2848.40 2556.56 200.38 o
4 9 5 1273.88 1134.30 199.68 o
5 9 5 1616.67 1628.24 241.71 o
-5 10 5 4172.87 3971.81 264.13 o
-4 10 5 253.78 112.10 156.24 o
-3 10 5 255.50 476.42 139.42 o
-2 10 5 11088.49 11671.62 276.04 o
-1 10 5 6070.78 6364.42 215.09 o
0 10 5 3133.01 3316.03 195.47 o
1 10 5 6276.37 6573.91 232.61 o
2 10 5 5437.65 4714.47 227.00 o
3 10 5 409.62 318.08 163.24 o
4 10 5 3296.09 3536.73 234.71 o
-5 11 5 42.36 131.72 187.77 o
-4 11 5 1408.30 1435.57 191.27 o
-3 11 5 6549.64 6426.78 243.11 o
-2 11 5 19.15 88.28 133.12 o
-1 11 5 5574.20 6270.54 222.10 o
0 11 5 9520.38 10676.74 266.94 o
1 11 5 821.68 805.01 152.03 o
2 11 5 5225.05 5796.92 243.82 o
3 11 5 2436.80 2518.03 201.08 o
4 11 5 1478.31 1074.75 207.38 o
-5 12 5 4345.39 4085.31 285.85 o
-4 12 5 581.60 437.89 173.05 o
-3 12 5 833.37 639.67 157.64 o
-2 12 5 5894.32 6568.31 248.72 o
-1 12 5 2697.05 3171.70 183.56 o
1 12 5 2383.21 2933.49 194.07 o
2 12 5 5453.61 5562.22 245.92 o
3 12 5 242.55 617.25 182.16 o
4 12 5 1972.26 2188.73 229.80 o
-4 13 5 1176.98 1188.95 200.38 o
-3 13 5 5149.80 5416.49 248.72 o
-2 13 5 165.09 25.22 146.43 o
-1 13 5 2215.89 2390.51 177.96 o
0 13 5 5559.31 5703.74 234.01 o
1 13 5 193.52 0.70 154.14 o
2 13 5 3196.08 3162.59 210.19 o
3 13 5 2776.36 3235.46 224.90 o
4 13 5 1023.56 903.80 212.99 o
-4 14 5 318.29 398.65 184.26 o
-3 14 5 403.26 627.75 167.45 o
-2 14 5 5580.34 5573.43 254.32 o
-1 14 5 3213.56 3546.53 216.49 o
0 14 5 1813.64 2226.57 186.36 o
1 14 5 2346.46 2265.80 199.68 o
2 14 5 4523.26 4188.30 242.41 o
3 14 5 436.76 474.32 188.47 o
-4 15 5 1804.61 2315.55 234.01 o
-3 15 5 3566.20 3784.04 251.52 o
-2 15 5 132.96 -29.43 160.44 o
-1 15 5 2120.59 2605.60 197.57 o
0 15 5 3855.73 3819.78 219.29 o
1 15 5 255.50 -112.10 164.65 o
2 15 5 3569.34 3614.49 226.30 o
3 15 5 2645.57 2754.83 226.30 o
-3 16 5 1006.01 1051.63 202.48 o
-2 16 5 3874.91 4069.20 246.62 o
-1 16 5 2452.23 3149.28 210.19 o
0 16 5 689.26 535.97 174.45 o
1 16 5 2359.07 2248.99 212.29 o
2 16 5 3283.29 3072.22 227.70 o
-1 17 5 1284.56 730.05 185.66 o
0 17 5 4191.29 3795.25 260.63 o
2 17 5 3222.01 2995.15 234.01 o
-1 18 5 2451.89 2199.24 224.90 o
0 18 5 894.87 1233.79 209.49 o
1 18 5 3244.63 3320.94 241.71 o
-2 -16 6 5066.56 4804.85 262.03 o
-1 -16 6 27.31 -168.85 168.85 o
0 -16 6 1050.35 1170.03 196.17 o
1 -16 6 4240.85 4205.12 257.13 o
-2 -15 6 229.43 266.94 166.05 o
-1 -15 6 3678.75 3707.68 236.11 o
1 -15 6 1065.43 1320.67 203.18 o
2 -15 6 2304.45 2849.42 234.01 o
-3 -14 6 1308.56 1146.91 188.47 o
-2 -14 6 6037.07 5814.44 254.32 o
-1 -14 6 2.42 126.11 161.14 o
0 -14 6 1930.14 2306.44 201.08 o
1 -14 6 5348.95 4947.77 261.33 o
2 -14 6 845.85 677.50 194.07 o
-3 -13 6 820.91 448.40 166.75 o
-2 -13 6 460.75 269.04 156.94 o
-1 -13 6 5831.71 5899.21 249.42 o
0 -13 6 4623.01 4823.76 245.92 o
1 -13 6 665.67 456.80 177.26 o
2 -13 6 2334.72 2106.76 210.19 o
3 -13 6 3655.25 3272.59 240.31 o
-4 -12 6 88.57 314.58 176.56 o
-3 -12 6 1422.40 1288.79 209.49 o
-2 -12 6 7478.36 7638.85 261.33 o
-1 -12 6 273.27 549.99 152.03 o
0 -12 6 523.49 1137.10 165.35 o
1 -12 6 6475.44 6285.25 262.03 o
2 -12 6 1222.06 1387.93 191.97 o
3 -12 6 1488.34 1172.84 199.68 o
-4 -11 6 5759.69 6084.18 264.83 o
-3 -11 6 1040.58 1271.62 170.25 o
-2 -11 6 209.13 372.03 147.83 o
-1 -11 6 4848.38 5509.67 232.61 o
0 -11 6 4095.99 3690.16 222.80 o
1 -11 6 677.92 575.21 161.84 o
2 -11 6 2287.09 2133.39 202.48 o
3 -11 6 4353.62 3936.08 255.73 o
-4 -10 6 76.94 -20.32 154.84 o
-3 -10 6 1552.66 1446.78 166.75 o
-2 -10 6 7483.95 7739.74 248.02 o
-1 -10 6 50.18 -14.71 130.32 o
0 -10 6 1387.26 1618.43 166.75 o
1 -10 6 5517.10 4394.28 234.01 o
2 -10 6 1056.74 1181.24 179.36 o
3 -10 6 2567.63 2730.31 218.59 o
4 -10 6 1480.46 1335.38 217.19 o
-5 -9 6 348.46 407.76 183.56 o
-4 -9 6 7429.37 7441.28 265.53 o
-3 -9 6 859.12 1174.94 152.74 o
-2 -9 6 561.66 625.65 138.02 o
-1 -9 6 7763.29 8997.35 249.42 o
0 -9 6 4758.00 4755.10 221.40 o
1 -9 6 610.31 879.28 158.34 o
2 -9 6 2928.12 2841.01 199.68 o
3 -9 6 5312.14 5478.84 259.23 o
4 -9 6 66.44 287.95 194.77 o
-5 -8 6 3030.60 3326.54 227.70 o
-4 -8 6 76.04 261.33 154.14 o
-3 -8 6 1789.55 1698.30 156.94 o
-2 -8 6 8689.99 9136.78 248.72 o
-1 -8 6 214.58 410.56 122.61 o
0 -8 6 1799.23 1931.61 163.94 o
1 -8 6 7998.82 7975.15 248.72 o
2 -8 6 1454.63 1455.89 175.86 o
3 -8 6 3625.44 3706.98 239.61 o
4 -8 6 2188.35 2137.59 222.80 o
-5 -7 6 273.28 510.75 173.75 o
-4 -7 6 5941.26 5396.87 241.01 o
-3 -7 6 795.72 530.37 133.12 o
-2 -7 6 130.53 145.73 111.40 o
-1 -7 6 8291.72 8392.02 229.10 o
0 -7 6 7778.61 9293.71 245.22 o
1 -7 6 1260.25 1365.51 153.44 o
2 -7 6 5168.85 5328.91 236.81 o
3 -7 6 5882.28 5348.53 252.22 o
4 -7 6 291.75 255.03 191.27 o
-5 -6 6 2206.88 2548.85 203.18 o
-4 -6 6 48.91 42.74 143.63 o
-3 -6 6 1216.62 1123.79 140.12 o
-1 -6 6 223.01 83.37 106.49 o
0 -6 6 1609.35 1888.17 150.63 o
1 -6 6 8391.16 8237.88 242.41 o
2 -6 6 801.34 873.67 156.24 o
3 -6 6 3337.88 3350.36 234.01 o
4 -6 6 2224.29 2230.07 222.10 o
-5 -5 6 139.19 406.36 164.65 o
-4 -5 6 4742.19 4809.75 224.20 o
-3 -5 6 1226.75 991.38 135.22 o
-2 -5 6 73.52 339.80 117.00 o
-1 -5 6 5532.07 4747.40 184.26 o
1 -5 6 1280.12 1607.92 150.63 o
2 -5 6 4730.70 4914.14 225.60 o
3 -5 6 6440.08 6796.71 262.03 o
4 -5 6 119.79 -131.72 182.86 o
-3 -4 6 1335.34 1126.60 135.22 o
2 -4 6 1561.94 2262.30 168.85 o
3 -4 6 3066.13 3477.87 235.41 o
4 -4 6 1456.03 987.87 197.57 o
5 -4 6 1851.98 1523.15 230.50 o
-5 -3 6 40.23 461.71 159.74 o
3 -3 6 5947.53 5657.50 250.12 o
5 -3 6 2566.66 2368.09 234.01 o
-5 -2 6 3086.93 3114.95 200.38 o
4 -2 6 3880.65 3641.12 252.92 o
5 -2 6 1622.47 1668.17 222.10 o
5 -1 6 2305.53 2226.57 229.80 o
3 4 6 3357.37 3527.62 221.40 o
4 4 6 1265.29 1109.78 220.70 o
-5 5 6 222.63 1.40 159.74 o
2 5 6 5468.67 5015.73 234.01 o
3 5 6 6482.62 6643.97 272.54 o
4 5 6 82.15 -50.44 198.28 o
1 6 6 8525.89 8892.96 248.02 o
2 6 6 647.48 692.21 163.94 o
3 6 6 3458.18 3633.41 245.22 o
4 6 6 2011.07 1813.20 234.71 o
-5 7 6 424.79 261.33 173.05 o
-4 7 6 5779.90 5609.16 248.72 o
-3 7 6 673.30 449.80 142.23 o
-2 7 6 179.94 91.08 130.32 o
0 7 6 7876.96 8963.72 256.43 o
1 7 6 1342.80 1336.08 163.94 o
2 7 6 5796.58 5752.08 243.11 o
3 7 6 6029.61 5186.68 263.43 o
4 7 6 226.03 159.04 212.99 o
-5 8 6 3470.79 2514.52 227.00 o
-4 8 6 65.82 95.28 152.03 o
-3 8 6 1801.09 1710.21 170.95 o
-2 8 6 8646.38 9091.94 260.63 o
-1 8 6 103.56 -62.36 126.11 o
0 8 6 1643.31 2164.91 172.35 o
1 8 6 8027.12 7674.58 254.32 o
2 8 6 1429.94 1570.09 183.56 o
3 8 6 3283.88 3720.29 256.43 o
4 8 6 2215.12 1790.78 232.61 o
-5 9 6 229.01 172.35 191.27 o
-4 9 6 7180.70 7569.49 280.25 o
-3 9 6 953.06 1079.65 161.84 o
-2 9 6 592.53 783.99 152.74 o
-1 9 6 7706.44 8635.83 252.92 o
0 9 6 4744.04 4678.03 227.00 o
1 9 6 401.41 318.08 160.44 o
2 9 6 2712.46 2784.96 205.28 o
3 9 6 5705.23 5122.23 276.74 o
4 9 6 49.33 36.43 205.28 o
-4 10 6 160.88 -2.80 157.64 o
-3 10 6 1565.28 1450.98 182.16 o
-2 10 6 7808.87 7389.43 258.53 o
-1 10 6 6.64 182.16 140.12 o
0 10 6 1692.34 1660.47 174.45 o
1 10 6 4546.88 4077.60 232.61 o
2 10 6 1236.28 1484.61 184.26 o
3 10 6 2533.96 2565.67 223.50 o
4 10 6 1627.40 1420.16 227.70 o
-4 11 6 5531.26 6155.64 276.74 o
-3 11 6 970.87 1438.37 187.77 o
-2 11 6 162.76 292.16 152.74 o
-1 11 6 5572.93 5527.19 234.71 o
0 11 6 3786.50 4062.19 229.10 o
1 11 6 544.65 1040.42 175.15 o
2 11 6 2131.52 2120.77 202.48 o
3 11 6 4282.78 4015.25 264.83 o
-4 12 6 52.76 -2.10 173.75 o
-3 12 6 1359.02 1394.23 194.77 o
-2 12 6 7676.33 7493.12 268.34 o
-1 12 6 233.28 418.97 152.74 o
0 12 6 781.79 608.84 171.65 o
1 12 6 6327.50 5944.05 264.13 o
2 12 6 1384.00 1252.71 189.87 o
3 12 6 1406.98 1607.22 212.99 o
-3 13 6 766.21 494.64 186.36 o
-2 13 6 453.50 341.20 159.74 o
-1 13 6 6003.69 5628.07 253.62 o
0 13 6 4354.60 4394.28 254.32 o
1 13 6 707.72 331.39 177.26 o
2 13 6 2498.58 2413.63 216.49 o
3 13 6 3684.40 3142.98 240.31 o
-3 14 6 1480.05 1541.36 206.68 o
-2 14 6 6446.01 5700.94 268.34 o
-1 14 6 61.90 68.66 163.94 o
0 14 6 2179.71 2258.80 213.69 o
1 14 6 5277.57 5058.47 271.14 o
2 14 6 930.65 750.36 194.77 o
-2 15 6 171.40 407.76 175.15 o
-1 15 6 3668.07 3709.08 241.71 o
0 15 6 2734.25 2700.19 228.40 o
1 15 6 1000.35 1106.98 195.47 o
2 15 6 2531.78 2171.22 227.00 o
-1 16 6 19.73 293.56 188.47 o
0 16 6 847.85 1070.55 205.98 o
1 16 6 4398.19 4551.92 274.64 o
-1 -14 7 263.47 -170.25 170.25 o
0 -14 7 2659.09 2710.70 228.40 o
-2 -13 7 621.00 875.77 184.96 o
-1 -13 7 6585.26 5949.66 281.65 o
0 -13 7 164.42 143.63 183.56 o
1 -13 7 380.20 143.63 190.57 o
-2 -12 7 2102.08 2054.92 199.68 o
-1 -12 7 61.01 -166.75 166.75 o
0 -12 7 3861.31 3807.87 257.13 o
1 -12 7 4153.60 3982.32 247.32 o
2 -12 7 292.16 571.71 197.57 o
-3 -11 7 521.36 385.34 170.95 o
-2 -11 7 939.06 938.13 176.56 o
-1 -11 7 7501.98 7460.19 276.04 o
0 -11 7 633.06 1170.03 186.36 o
1 -11 7 430.75 424.58 181.46 o
2 -11 7 4370.24 3712.58 260.63 o
-3 -10 7 4499.57 3789.65 243.82 o
-2 -10 7 2145.98 1504.93 176.56 o
-1 -10 7 11.88 112.80 152.74 o
0 -10 7 3640.54 3068.71 210.19 o
1 -10 7 4623.52 3799.46 252.22 o
2 -10 7 171.04 524.76 184.26 o
-4 -9 7 2680.21 2632.93 218.59 o
-3 -9 7 334.26 222.10 155.54 o
-2 -9 7 1062.50 1359.90 165.35 o
-1 -9 7 9216.21 8198.65 268.34 o
0 -9 7 227.05 824.63 166.75 o
1 -9 7 659.97 528.27 175.15 o
2 -9 7 6004.41 5749.98 270.44 o
3 -9 7 2024.67 2108.86 217.19 o
-4 -8 7 45.36 213.69 168.85 o
-3 -8 7 5563.87 5431.90 236.81 o
-2 -8 7 2783.85 2063.32 173.75 o
-1 -8 7 8.98 269.04 150.63 o
0 -8 7 4981.37 4765.61 238.21 o
1 -8 7 5130.62 4703.96 248.02 o
2 -8 7 513.56 788.20 183.56 o
3 -8 7 1663.17 1619.13 209.49 o
-3 -7 7 467.29 650.88 156.94 o
-2 -7 7 1500.51 1577.09 158.34 o
-1 -7 7 11670.54 12312.68 297.06 o
0 -7 7 422.17 288.66 149.93 o
1 -7 7 1966.40 2295.93 191.97 o
2 -7 7 6372.78 6222.20 268.34 o
3 -7 7 1832.63 1555.37 209.49 o
-1 -6 7 238.43 402.86 140.82 o
0 -6 7 5224.63 5398.27 234.01 o
1 -6 7 5028.83 4722.17 239.61 o
2 -6 7 24.51 67.96 162.54 o
3 -6 7 1537.76 1745.24 212.99 o
-3 -5 7 377.58 476.42 146.43 o
3 -5 7 1581.09 1573.59 207.38 o
4 -5 7 718.69 1003.99 220.70 o
-4 -4 7 32.50 117.00 153.44 o
2 -4 7 437.69 695.71 171.65 o
3 -4 7 1989.35 1963.84 210.89 o
4 -4 7 4298.76 3554.24 263.43 o
3 -3 7 1538.85 1472.00 203.88 o
4 -3 7 1215.95 978.06 222.80 o
3 5 7 1692.65 1656.26 229.10 o
-4 6 7 37.99 -132.42 156.94 o
0 6 7 5588.33 5339.42 243.11 o
-4 7 7 2462.23 2183.13 202.48 o
-3 7 7 553.99 545.78 163.94 o
-2 7 7 1411.14 1590.41 168.85 o
0 7 7 374.85 571.00 170.95 o
1 7 7 2004.78 2259.50 201.08 o
3 7 7 1941.72 1469.20 220.70 o
-4 8 7 103.73 86.18 172.35 o
0 8 7 5096.98 4701.15 250.12 o
2 8 7 374.72 739.15 192.67 o
-4 9 7 2828.00 2551.66 222.80 o
-3 9 7 193.38 77.07 168.85 o
-2 9 7 1032.19 1206.47 172.35 o
-1 9 7 9095.99 7558.28 276.04 o
0 9 7 192.81 401.45 175.15 o
1 9 7 679.52 500.24 176.56 o
2 9 7 6328.46 4483.96 278.15 o
3 9 7 2006.52 2041.60 238.91 o
-3 10 7 4397.90 4293.39 269.04 o
-2 10 7 1896.81 1445.38 182.16 o
-1 10 7 57.74 212.99 159.04 o
0 10 7 2977.98 3247.37 223.50 o
1 10 7 4768.79 4281.48 261.33 o
2 10 7 154.56 61.65 186.36 o
-3 11 7 416.50 341.90 186.36 o
-2 11 7 1129.54 895.39 177.96 o
-1 11 7 7273.05 7224.08 286.55 o
0 11 7 823.53 861.76 193.37 o
1 11 7 500.10 194.07 178.66 o
2 11 7 4438.59 3982.32 278.85 o
-2 12 7 2002.43 2419.24 212.29 o
-1 12 7 61.58 175.86 175.15 o
0 12 7 3809.29 4224.73 251.52 o
1 12 7 4053.95 3313.23 238.21 o
2 12 7 206.32 78.47 193.37 o
-2 13 7 672.25 619.35 189.17 o
-1 13 7 6227.57 5927.94 292.16 o
0 13 7 88.00 -64.46 196.17 o
1 13 7 476.31 192.67 190.57 o
-1 -10 8 346.20 109.30 183.56 o
0 -10 8 6702.68 6373.53 290.76 o
-2 -9 8 4589.69 3987.22 253.62 o
-1 -9 8 2908.17 3085.53 228.40 o
0 -9 8 182.14 310.37 179.36 o
1 -9 8 2408.41 2059.12 222.80 o
-2 -8 8 1044.04 1046.73 172.35 o
-1 -8 8 893.94 433.68 179.36 o
0 -8 8 8919.85 8373.80 292.86 o
1 -8 8 1138.55 1153.92 201.78 o
-3 -7 8 109.08 196.17 169.55 o
-2 -7 8 5343.78 4750.20 247.32 o
0 -7 8 105.04 280.95 173.05 o
2 -7 8 5382.09 4625.49 278.85 o
-1 -6 8 262.74 -157.64 157.64 o
0 -6 8 8164.90 7467.90 277.45 o
1 -6 8 956.07 1034.81 192.67 o
2 -6 8 116.14 646.67 202.48 o
-1 -5 8 2333.47 2281.92 194.07 o
1 -5 8 2167.32 1586.20 196.17 o
2 -5 8 5031.02 4081.81 268.34 o
1 -4 8 555.98 374.13 173.75 o
1 8 8 963.62 953.54 212.99 o
-2 9 8 4380.40 3899.65 243.82 o
-1 9 8 3003.88 2941.90 236.11 o
0 9 8 134.05 468.71 191.97 o
1 9 8 2388.19 2120.77 231.90 o
-1 10 8 335.45 86.18 196.17 o
0 10 8 6617.83 5730.36 302.67 o
