#------------------------------------------------------------------------------
#$Date: 2019-11-24 06:02:49 +0200 (Sun, 24 Nov 2019) $
#$Revision: 236893 $
#$URL: file:///home/coder/svn-repositories/cod/cif/4/34/98/4349855.cif $
#------------------------------------------------------------------------------
#
# This file is available in the Crystallography Open Database (COD),
# http://www.crystallography.net/
#
# All data on this site have been placed in the public domain by the
# contributors.
#
data_4349855
loop_
_publ_author_name
'Gorelova, Liudmila A.'
'Pakhomova, Anna S.'
'Aprilis, Georgios'
'Dubrovinsky, Leonid S.'
'Krivovichev, Sergey V.'
_publ_section_title
;
 Pentacoordinated silicon in the high-pressure modification of datolite,
 CaBSiO4(OH)
;
_journal_issue                   7
_journal_name_full               'Inorganic Chemistry Frontiers'
_journal_page_first              1653
_journal_paper_doi               10.1039/C8QI00257F
_journal_volume                  5
_journal_year                    2018
_chemical_formula_sum            'B Ca H O5 Si'
_chemical_formula_weight         159.99
_space_group_crystal_system      monoclinic
_space_group_IT_number           14
_space_group_name_Hall           '-P 2ybc'
_space_group_name_H-M_alt        'P 1 21/c 1'
_atom_sites_solution_hydrogens   difmap
_audit_creation_method           SHELXL-2014/7
_audit_update_record
;
2018-03-21 deposited with the CCDC.
2018-05-04 downloaded from the CCDC.
;
_cell_angle_alpha                90
_cell_angle_beta                 91.19(3)
_cell_angle_gamma                90
_cell_formula_units_Z            4
_cell_length_a                   4.579(3)
_cell_length_b                   7.2986(12)
_cell_length_c                   9.3814(15)
_cell_measurement_reflns_used    1667
_cell_measurement_temperature    298(2)
_cell_measurement_theta_max      17.199
_cell_measurement_theta_min      1.484
_cell_volume                     313.5(2)
_computing_structure_refinement  'SHELXL-2014/7 (Sheldrick, 2014)'
_diffrn_ambient_temperature      298(2)
_diffrn_measured_fraction_theta_full 0.573
_diffrn_measured_fraction_theta_max 0.344
_diffrn_measurement_device_type
'esperanto-CrysAlisPro-abstract goniometer imported esperanto images'
_diffrn_radiation_wavelength     0.2984
_diffrn_reflns_av_R_equivalents  0.0262
_diffrn_reflns_av_unetI/netI     0.0358
_diffrn_reflns_Laue_measured_fraction_full 0.573
_diffrn_reflns_Laue_measured_fraction_max 0.344
_diffrn_reflns_limit_h_max       5
_diffrn_reflns_limit_h_min       -4
_diffrn_reflns_limit_k_max       13
_diffrn_reflns_limit_k_min       -14
_diffrn_reflns_limit_l_max       18
_diffrn_reflns_limit_l_min       -17
_diffrn_reflns_number            1667
_diffrn_reflns_point_group_measured_fraction_full 0.573
_diffrn_reflns_point_group_measured_fraction_max 0.344
_diffrn_reflns_theta_full        10.314
_diffrn_reflns_theta_max         17.199
_diffrn_reflns_theta_min         1.484
_exptl_absorpt_coefficient_mu    1.154
_exptl_crystal_colour            colorless
_exptl_crystal_density_diffrn    3.390
_exptl_crystal_density_meas      ?
_exptl_crystal_density_method    none
_exptl_crystal_description       isosymmetric
_exptl_crystal_F_000             320
_exptl_crystal_size_max          0.010
_exptl_crystal_size_mid          0.010
_exptl_crystal_size_min          0.005
_refine_diff_density_max         0.658
_refine_diff_density_min         -0.744
_refine_diff_density_rms         0.175
_refine_ls_extinction_method     none
_refine_ls_goodness_of_fit_ref   1.282
_refine_ls_hydrogen_treatment    refall
_refine_ls_matrix_type           full
_refine_ls_number_parameters     77
_refine_ls_number_reflns         878
_refine_ls_number_restraints     1
_refine_ls_restrained_S_all      1.282
_refine_ls_R_factor_all          0.0542
_refine_ls_R_factor_gt           0.0500
_refine_ls_shift/su_max          0.000
_refine_ls_shift/su_mean         0.000
_refine_ls_structure_factor_coef Fsqd
_refine_ls_weighting_details
'w=1/[\s^2^(Fo^2^)+(0.0988P)^2^] where P=(Fo^2^+2Fc^2^)/3'
_refine_ls_weighting_scheme      calc
_refine_ls_wR_factor_gt          0.1584
_refine_ls_wR_factor_ref         0.1635
_reflns_Friedel_coverage         0.000
_reflns_number_gt                792
_reflns_number_total             878
_reflns_threshold_expression     'I > 2\s(I)'
_cod_data_source_file            c8qi00257f2.cif
_cod_data_source_block           shelx_CCDC9
_cod_depositor_comments
;
The following automatic conversions were performed:

data item '_exptl_crystal_density_meas' value 'none' was changed to
'?' -- the value is perceived as not measured.

Automatic conversion script
Id: cif_fix_values 6909 2019-04-08 15:41:33Z antanas 
;
_cod_original_sg_symbol_H-M      'P 21/c'
_cod_database_code               4349855
_shelx_shelxl_version_number     2014/7
_shelx_space_group_comment
;
The symmetry employed for this shelxl refinement is uniquely defined
by the following loop, which should always be used as a source of
symmetry information in preference to the above space-group names.
They are only intended as comments.
;
_shelx_res_file
;

    shelx.res created by SHELXL-2014/7


TITL Cr2_p02_w in P2(1)/c
REM P2(1)/c (#14 in standard setting)
CELL 0.29840   4.579102   7.298617   9.381440  90.0000  91.1944  90.0000
ZERR    4.00   0.002888   0.001233   0.001458   0.0000   0.0335   0.0000
LATT  1
SYMM -x, y+1/2,-z+1/2
SFAC O Si B Ca H
UNIT 20.00 4.00 4.00 4.00 4.00

L.S. 20
ACTA
BOND $H
HTAB
DFIX 0.90 0.02 H O5
TEMP 25.0
FMAP 2
PLAN 250
REM TWIN 1 0 0 0 1 0 0 0 -1
REM EXTI    0.000000
WGHT    0.098800
FVAR      10.40038
CA1   4    0.004715    0.609892    0.169203    11.00000    0.01106    0.00930 =
         0.00853    0.00007    0.00155   -0.00018
SI1   2    0.483672    0.278098    0.081385    11.00000    0.00871    0.00813 =
         0.00709   -0.00051    0.00110    0.00027
B1    3    0.580643    0.083976   -0.154958    11.00000    0.01249    0.00869 =
         0.00807   -0.00106    0.00122    0.00089
O1    1    0.249630    0.419960    0.031437    11.00000    0.01126    0.01045 =
         0.01033   -0.00104   -0.00009    0.00303
O2    1    0.699942    0.194018   -0.037605    11.00000    0.00886    0.00938 =
         0.00628   -0.00085    0.00414    0.00014
O3    1    0.697379    0.340398    0.213492    11.00000    0.01423    0.01068 =
         0.00820    0.00009   -0.00336   -0.00048
O4    1    0.304472    0.100234    0.141313    11.00000    0.01344    0.00831 =
         0.01006    0.00062    0.00266    0.00050
O5    1    0.261197    0.089924   -0.161705    11.00000    0.01085    0.01158 =
         0.00911    0.00042    0.00059   -0.00019
H     5    0.195116    0.043605   -0.083091    11.00000    0.00933

HKLF 4

REM  Cr2_p02_w in P2(1)/c
REM R1 =  0.0500 for     792 Fo > 4sig(Fo)  and  0.0542 for all     878 data
REM     77 parameters refined using      1 restraints

END

WGHT      0.0845      0.7606

REM Instructions for potential hydrogen bonds
EQIV $1 -x+1, -y, -z
HTAB O5 O2_$1
HTAB O5 O4

REM Highest difference peak  0.658,  deepest hole -0.744,  1-sigma level  0.175
Q1    1   0.5674  0.2281 -0.0143  11.00000  0.05    0.66
Q2    1   0.3986  0.2759  0.0372  11.00000  0.05    0.65
Q3    1   0.8271  0.2065  0.0092  11.00000  0.05    0.62
Q4    1   0.2335  0.1016  0.1192  11.00000  0.05    0.61
Q5    1  -0.2656  0.6161  0.1287  11.00000  0.05    0.59
Q6    1   0.2093  0.3011  0.0338  11.00000  0.05    0.54
Q7    1  -0.0233  0.4963  0.1799  11.00000  0.05    0.53
Q8    1   0.2851  0.2992  0.0429  11.00000  0.05    0.53
Q9    1  -0.1086  0.6116  0.1296  11.00000  0.05    0.52
Q10   1   0.4158  0.1524  0.0837  11.00000  0.05    0.52
Q11   1   0.1311  0.6211  0.2141  11.00000  0.05    0.51
Q12   1   0.4490  0.3575 -0.1078  11.00000  0.05    0.51
Q13   1   0.9431  0.3790  0.1170  11.00000  0.05    0.50
Q14   1   0.8784  0.3954  0.2116  11.00000  0.05    0.50
Q15   1   0.1434  0.2760  0.0391  11.00000  0.05    0.50
Q16   1   0.6274  0.1477  0.0972  11.00000  0.05    0.50
Q17   1   0.6272  0.3186  0.0581  11.00000  0.05    0.49
Q18   1   0.3645  0.6112  0.2196  11.00000  0.05    0.49
Q19   1   0.1004  0.5581  0.0977  11.00000  0.05    0.48
Q20   1   0.5845  0.2785  0.1292  11.00000  0.05    0.47
Q21   1   0.2747  0.2179  0.1730  11.00000  0.05    0.47
Q22   1   0.0912  0.4545  0.1406  11.00000  0.05    0.47
Q23   1   0.0297  0.7160  0.1921  11.00000  0.05    0.46
Q24   1   0.0838  0.4589  0.0719  11.00000  0.05    0.46
Q25   1  -0.0491  0.5565  0.2961  11.00000  0.05    0.45
Q26   1   0.1778  0.5713  0.0881  11.00000  0.05    0.45
Q27   1   0.1237  0.4186 -0.0045  11.00000  0.05    0.45
Q28   1   0.7726  0.2460 -0.0900  11.00000  0.05    0.44
Q29   1   0.1976  0.5649  0.1944  11.00000  0.05    0.44
Q30   1   0.8415  0.3957  0.3069  11.00000  0.05    0.43
Q31   1   0.4920  0.0563  0.1449  11.00000  0.05    0.43
Q32   1   0.9140  0.1590 -0.1182  11.00000  0.05    0.43
Q33   1   0.1925  0.2333 -0.0781  11.00000  0.05    0.43
Q34   1  -0.0049  0.3994  0.0156  11.00000  0.05    0.42
Q35   1  -0.1156  0.6540  0.2560  11.00000  0.05    0.42
Q36   1   0.6999  0.3761  0.1921  11.00000  0.05    0.42
Q37   1   0.4934  0.1933  0.2740  11.00000  0.05    0.42
Q38   1   0.5957  0.3284 -0.1363  11.00000  0.05    0.40
Q39   1   0.7608  0.1576 -0.1273  11.00000  0.05    0.40
Q40   1   0.2107  0.3473  0.1122  11.00000  0.05    0.39
Q41   1   0.5341  0.3352  0.1869  11.00000  0.05    0.39
Q42   1   0.8889  0.2437 -0.1197  11.00000  0.05    0.38
Q43   1   0.1818 -0.0288 -0.1693  11.00000  0.05    0.38
Q44   1   0.1661  0.0004  0.1786  11.00000  0.05    0.38
Q45   1   0.4261  0.1415  0.1756  11.00000  0.05    0.38
Q46   1   0.4469  0.5559  0.1269  11.00000  0.05    0.38
Q47   1   0.0007  0.0831 -0.2528  11.00000  0.05    0.38
Q48   1   0.0366  0.5550  0.0489  11.00000  0.05    0.37
Q49   1   0.0905  0.0987 -0.1894  11.00000  0.05    0.37
Q50   1   0.6106  0.1396  0.0148  11.00000  0.05    0.37
Q51   1   0.3771  0.4977  0.0214  11.00000  0.05    0.36
Q52   1  -0.0182  0.7206  0.1442  11.00000  0.05    0.35
Q53   1   0.4226  0.0804  0.2465  11.00000  0.05    0.35
Q54   1  -0.0051  0.0813 -0.0375  11.00000  0.05    0.35
Q55   1   0.8931  0.3075  0.1905  11.00000  0.05    0.35
Q56   1   0.8137  0.1855 -0.0743  11.00000  0.05    0.35
Q57   1   0.2803  0.6570  0.1377  11.00000  0.05    0.35
Q58   1   0.0889  0.6538  0.0940  11.00000  0.05    0.34
Q59   1   0.0584  0.1772 -0.0799  11.00000  0.05    0.34
Q60   1   0.8851  0.3029  0.2593  11.00000  0.05    0.34
Q61   1   0.2278  0.0222  0.1837  11.00000  0.05    0.34
Q62   1   0.3225  0.5343  0.0088  11.00000  0.05    0.34
Q63   1   0.4296  0.2292  0.1980  11.00000  0.05    0.33
Q64   1   0.3868  0.0434 -0.1945  11.00000  0.05    0.33
Q65   1   0.2523 -0.0991 -0.1844  11.00000  0.05    0.33
Q66   1  -0.0773  0.4838  0.0720  11.00000  0.05    0.33
Q67   1   0.3411  0.1650  0.2890  11.00000  0.05    0.33
Q68   1   0.1014  0.0365 -0.1223  11.00000  0.05    0.32
Q69   1  -0.1148  0.6386  0.1881  11.00000  0.05    0.32
Q70   1   0.4270  0.3834 -0.0075  11.00000  0.05    0.32
Q71   1   0.2400  0.0550  0.2396  11.00000  0.05    0.32
Q72   1   0.2721  0.4066 -0.0218  11.00000  0.05    0.32
Q73   1   0.8430  0.4413  0.0912  11.00000  0.05    0.32
Q74   1   0.5024  0.0565 -0.1986  11.00000  0.05    0.32
Q75   1   0.4678  0.3961  0.0513  11.00000  0.05    0.31
Q76   1   0.9562  0.2330 -0.0722  11.00000  0.05    0.31
Q77   1   0.2505  0.3653  0.1496  11.00000  0.05    0.31
Q78   1   0.0069  0.6564  0.0468  11.00000  0.05    0.30
Q79   1   0.1900  0.1143 -0.0967  11.00000  0.05    0.30
Q80   1   0.7942  0.3444  0.0493  11.00000  0.05    0.30
Q81   1   0.4869  0.4021  0.0041  11.00000  0.05    0.30
Q82   1   0.3944  0.2735 -0.0407  11.00000  0.05    0.30
Q83   1   0.3108  0.1357 -0.0412  11.00000  0.05    0.30
Q84   1   0.2636  0.1805  0.2530  11.00000  0.05    0.30
Q85   1  -0.0347  0.0428 -0.1694  11.00000  0.05    0.30
Q86   1   0.7758  0.4638  0.1702  11.00000  0.05    0.29
Q87   1   0.1048  0.1750 -0.0302  11.00000  0.05    0.29
Q88   1   0.1353  0.2324 -0.1802  11.00000  0.05    0.29
Q89   1   0.3329 -0.0617 -0.1503  11.00000  0.05    0.29
Q90   1   0.3235  0.4014  0.1508  11.00000  0.05    0.28
Q91   1   0.6321  0.2339  0.0516  11.00000  0.05    0.28
Q92   1   0.7120  0.0817 -0.1949  11.00000  0.05    0.28
Q93   1   0.8366  0.4761  0.2448  11.00000  0.05    0.28
Q94   1   0.1257  0.4399 -0.0609  11.00000  0.05    0.28
Q95   1   0.6889  0.3284  0.2651  11.00000  0.05    0.28
Q96   1   0.2029  0.5061  0.0152  11.00000  0.05    0.27
Q97   1   0.1230  0.3120  0.1826  11.00000  0.05    0.27
Q98   1   0.3443  0.1181 -0.2428  11.00000  0.05    0.27
Q99   1   0.1928  0.1007 -0.1303  11.00000  0.05    0.27
Q100  1  -0.1786  0.5634  0.1983  11.00000  0.05    0.27
Q101  1  -0.0174  0.7570  0.2678  11.00000  0.05    0.27
Q102  1   0.5984  0.1186 -0.2205  11.00000  0.05    0.27
Q103  1   0.6078  0.0231 -0.1977  11.00000  0.05    0.27
Q104  1   0.4087  0.4590  0.0715  11.00000  0.05    0.27
Q105  1   0.3559  0.2589 -0.1618  11.00000  0.05    0.26
Q106  1   0.9243  0.2798  0.1101  11.00000  0.05    0.26
Q107  1   0.7639  0.0383 -0.1242  11.00000  0.05    0.26
Q108  1   0.1338  0.1848 -0.2736  11.00000  0.05    0.26
Q109  1   0.6707  0.0853 -0.0497  11.00000  0.05    0.25
Q110  1   0.1911  0.0618 -0.2656  11.00000  0.05    0.25
Q111  1   0.4591  0.0762 -0.1324  11.00000  0.05    0.25
Q112  1   0.9309  0.2147  0.1288  11.00000  0.05    0.25
Q113  1   0.4261  0.0766  0.2978  11.00000  0.05    0.24
Q114  1   0.2280  0.0630  0.0062  11.00000  0.05    0.24
Q115  1   0.6977  0.2983  0.2290  11.00000  0.05    0.23
Q116  1   0.2974  0.0576 -0.2254  11.00000  0.05    0.23
Q117  1   0.7342  0.3378 -0.0713  11.00000  0.05    0.23
Q118  1   0.6024  0.3994  0.0991  11.00000  0.05    0.23
Q119  1   0.1368  0.1357 -0.0730  11.00000  0.05    0.23
Q120  1   0.1416  0.2199  0.1398  11.00000  0.05    0.23
Q121  1   0.2269  0.1573 -0.2143  11.00000  0.05    0.22
Q122  1  -0.0116  0.0727 -0.1206  11.00000  0.05    0.22
Q123  1   0.4020  0.1365 -0.1814  11.00000  0.05    0.22
Q124  1   0.4483 -0.0488 -0.0445  11.00000  0.05    0.22
Q125  1   0.3296  0.1623 -0.1732  11.00000  0.05    0.21
Q126  1   0.3344  0.5432 -0.0599  11.00000  0.05    0.20
Q127  1   0.9399  0.3037  0.0406  11.00000  0.05    0.19
Q128  1   0.7333  0.3983  0.0993  11.00000  0.05    0.19
Q129  1   0.6070  0.2074 -0.1482  11.00000  0.05    0.19
Q130  1   0.7460  0.2406 -0.1600  11.00000  0.05    0.19
Q131  1   0.1700  0.0383 -0.0097  11.00000  0.05    0.18
Q132  1   0.4543  0.4885 -0.0527  11.00000  0.05    0.18
Q133  1   0.1899  0.1641  0.0399  11.00000  0.05    0.18
Q134  1   0.3647  0.0134 -0.3009  11.00000  0.05    0.17
Q135  1   0.5098  0.2384 -0.1205  11.00000  0.05    0.17
Q136  1   0.3099  0.0250 -0.0076  11.00000  0.05    0.17
Q137  1   0.0884  0.4782  0.2295  11.00000  0.05    0.17
Q138  1   0.2257  0.2330  0.1128  11.00000  0.05    0.17
Q139  1   0.3918  0.2311  0.0904  11.00000  0.05    0.17
Q140  1   0.4619  0.4294  0.1770  11.00000  0.05    0.16
Q141  1   0.4034  0.0399  0.0008  11.00000  0.05    0.15
Q142  1   0.6323  0.3760 -0.0570  11.00000  0.05    0.14
Q143  1   0.2282  0.4833 -0.0755  11.00000  0.05    0.12
Q144  1   0.5109  0.1320 -0.0734  11.00000  0.05    0.12
Q145  1   0.2012 -0.0439 -0.0635  11.00000  0.05    0.12
Q146  1   0.4353  0.2235 -0.2245  11.00000  0.05    0.12
Q147  1   0.0000  0.5000  0.0000  10.50000  0.05    0.11
Q148  1   0.6171  0.0037 -0.1126  11.00000  0.05    0.09
Q149  1   0.2702 -0.0933 -0.0654  11.00000  0.05    0.07
Q150  1  -0.0304 -0.0177 -0.0719  11.00000  0.05    0.03
;
_shelx_res_checksum              91750
_shelx_hkl_file
;
   0   0  -3 10.9405 16.0586   1
   0   0   3 9.06257 23.3622   1
   0   0   4 188773. 2579.44   1
   0   0  -4 192275. 2658.79   1
   0   0  -5 3.41177 49.3367   1
   0   0   5 7.91821 35.0138   1
   0   0   6 240219. 3398.81   1
   0   0  -6 237016. 3763.43   1
   0   0   7 38.2170 39.3122   1
   0   0  -7-106.864 127.889   1
   0   0  -8 154646. 3680.92   1
   0   0   8 150223. 3117.56   1
   0   0  -9 117.649 112.487   1
   0   0   9 75.8376 117.346   1
   0   0  10 40430.3 1871.44   1
   0   0 -10 41328.8 2128.50   1
   0   0 -11 129.549 159.547   1
   0   0  11-72.7314 174.782   1
   0   0 -12 84580.4 3277.02   1
   0   0  12 83557.2 2991.15   1
   0   0  13-30.2263 89.2433   1
   0   0 -13 284.877 200.598   1
   0   0 -14 1619.44 531.321   1
   0   0 -15-81.0340 152.224   1
   0   0 -16 53768.9 2775.77   1
   0   0 -17 99.9103 127.343   1
   0  -1  -1 27493.8 748.784   1
   0   1   1 28354.1 718.581   1
   0   1   2 231.427 64.9016   1
   0  -1  -2 204.389 81.0032   1
   0  -1  -3 4918.55 456.535   1
   0   1   3 4975.92 413.326   1
   0   1  -4 247789. 2470.24   1
   0  -1  -4 243659. 3694.50   1
   0   1   4 246648. 3282.37   1
   0  -1   4 252876. 2498.62   1
   0  -1  -5 96782.4 2513.49   1
   0   1   5 94624.2 2203.64   1
   0  -1   5 97121.1 1751.54   1
   0   1  -5 96883.4 1834.00   1
   0   1   6 50.2413 46.5142   1
   0   1  -6 85.4479 43.5775   1
   0  -1  -6-13.6630 27.9192   1
   0  -1  -7 35176.7 1701.84   1
   0   1   7 35036.5 1528.61   1
   0  -1   7 34826.3 1217.64   1
   0   1  -7 31511.2 1314.05   1
   0   1  -8 302620. 4450.74   1
   0   1   8 308318. 4924.48   1
   0  -1   8 305762. 3999.17   1
   0  -1  -8 316132. 5559.15   1
   0  -1  -9 5532.09 821.016   1
   0   1   9 6627.91 804.362   1
   0   1  -9 6001.58 661.781   1
   0  -1   9 6189.71 633.640   1
   0   1 -10 3093.75 481.100   1
   0   1  10 3440.58 593.310   1
   0  -1  10 3197.32 474.591   1
   0  -1 -10 3847.46 767.080   1
   0  -1  11 24843.3 1417.73   1
   0   1  11 24120.2 1634.36   1
   0   1 -11 24139.3 1437.87   1
   0  -1 -11 24444.6 1906.26   1
   0  -1  12 4315.98 630.102   1
   0  -1 -12 4840.35 869.593   1
   0   1  12 4498.27 762.658   1
   0   1 -12 3549.39 551.434   1
   0   1  13 386.812 218.061   1
   0  -1 -13 318.515 162.238   1
   0   1 -13 818.396 238.288   1
   0   1 -14 478.522 209.180   1
   0  -1 -14 750.846 273.582   1
   0  -1 -15 12220.4 1502.89   1
   0   1 -15 12355.7 1111.02   1
   0   1 -16 57124.6 2504.99   1
   0  -1 -16 62562.5 3425.52   1
   0  -1 -17 3973.76 833.296   1
   0  -2   0 35458.3 807.433   1
   0   2   0 36167.7 890.007   1
   0  -2  -1 2213.19 254.082   1
   0   2   1 2200.70 255.700   1
   0  -2  -2 93596.2 1947.45   1
   0   2   2 94076.4 1874.38   1
   0   2   3 23123.6 1032.49   1
   0  -2  -3 24497.5 1162.33   1
   0  -2  -4 10462.1 842.765   1
   0   2   4 10229.5 750.371   1
   0   2   5 465120. 5387.88   1
   0  -2  -5 458399. 6105.69   1
   0   2  -5 460562. 3100.98   1
   0  -2   6 262825. 2605.30   1
   0   2  -6 257560. 2580.40   1
   0   2   6 258872. 4347.40   1
   0   2   7 7849.24 815.983   1
   0  -2   7 7674.86 480.195   1
   0  -2  -7 8362.70 932.667   1
   0   2  -7 7417.54 498.084   1
   0  -2  -8 21526.5 1537.36   1
   0   2   8 21570.5 1433.45   1
   0  -2   8 20909.4 925.727   1
   0   2  -8 21632.2 944.102   1
   0   2  -9 189.693 108.467   1
   0  -2   9 297.172 149.476   1
   0  -2  -9 92.4701 112.214   1
   0   2  10 19515.9 1511.43   1
   0  -2 -10 18670.2 1673.95   1
   0  -2  10 21107.3 1125.52   1
   0   2 -10 23263.1 1123.21   1
   0  -2 -11 29567.4 2230.66   1
   0   2  11 30667.2 2009.68   1
   0  -2  11 32988.5 1506.43   1
   0   2 -11 32760.6 1404.13   1
   0   2  12 913.074 334.405   1
   0  -2 -12 352.367 22.5728   1
   0   2 -12 747.546 191.605   1
   0   2  13 14707.4 1547.31   1
   0  -2 -13 13010.0 1611.98   1
   0   2 -13 15041.9 1061.51   1
   0  -2 -14 6378.90 1123.72   1
   0   2 -14 5430.09 654.204   1
   0   2 -15 13613.4 1125.19   1
   0  -2 -15 15248.9 1827.43   1
   0  -2 -16 1063.22 506.659   1
   0  -3   0-69.5022 69.0043   1
   0  -3   1 10085.0 442.590   1
   0  -3  -1 9156.43 612.661   1
   0   3   1 9372.39 632.594   1
   0  -3  -2 410572. 4611.42   1
   0   3   2 397303. 4554.67   1
   0  -3  -3 195461. 3644.14   1
   0   3   3 192301. 3452.37   1
   0  -3  -4 172487. 3724.69   1
   0   3   4 168054. 3438.79   1
   0   3   5 4222.38 575.766   1
   0  -3  -5 4127.15 626.500   1
   0   3  -6 7610.39 342.545   1
   0   3   6 6996.06 732.180   1
   0  -3  -6 7531.49 892.736   1
   0  -3   6 8291.92 355.046   1
   0  -3   7 35170.5 904.380   1
   0   3  -7 35249.3 907.274   1
   0  -3   8 76.4981 60.4316   1
   0   3  -8 28.3913 23.5215   1
   0   3  -9 749.853 164.177   1
   0  -3  -9 971.348 371.896   1
   0  -3   9 767.184 167.414   1
   0   3   9 1243.71 506.418   1
   0  -3 -10 281207. 6512.27   1
   0   3  10 270996. 6007.77   1
   0   3 -10 279911. 3576.79   1
   0  -3 -11 24267.8 2125.66   1
   0   3 -11 25582.4 1163.35   1
   0   3  12 926.485 304.476   1
   0   3 -12 612.326 153.239   1
   0  -3 -12 854.376 415.108   1
   0  -3 -13 14916.5 1802.24   1
   0   3 -13 13959.5 954.978   1
   0  -3 -14 54653.0 3524.99   1
   0   3 -14 62627.9 2103.97   1
   0  -4   0 454054. 4354.60   1
   0   4   1 98040.8 2346.64   1
   0  -4  -1 101254. 2294.82   1
   0  -4   1 98859.7 1705.34   1
   0   4   2 271373. 4215.65   1
   0  -4   2 265987. 2397.65   1
   0  -4  -2 266957. 4221.80   1
   0   4   3 22181.1 1299.47   1
   0  -4  -3 22962.8 1388.28   1
   0  -4  -4 29017.7 1688.82   1
   0   4   4 28624.8 1550.07   1
   0   4   5 15190.2 1216.42   1
   0  -4  -5 15398.1 1321.19   1
   0   4   6 438325. 6757.89   1
   0  -4  -6 431782. 7294.22   1
   0  -4  -7 431.093 240.479   1
   0   4   7 1260.05 584.096   1
   0  -4  -8 2404.28 682.239   1
   0   4   8 1064.65 388.274   1
   0   4  -9 26159.1 806.927   1
   0   4   9 25567.9 1920.86   1
   0  -4  -9 28901.3 2077.35   1
   0   4  10 37483.4 2428.57   1
   0   4 -10 37465.0 1121.62   1
   0  -4 -10 34396.8 2410.27   1
   0   4 -11 1150.05 209.202   1
   0   4  11 1270.88 482.000   1
   0  -4 -11 1225.23 549.323   1
   0  -4 -12 3610.55 896.787   1
   0   4 -12 3671.50 413.885   1
   0   4  12 5703.09 1033.49   1
   0  -4 -13 230.001 337.419   1
   0   4 -13-91.8494 92.8713   1
   0  -5   0 44.9512 84.4011   1
   0  -5  -1 698.499 229.072   1
   0  -5   1 880.100 186.364   1
   0  -5  -2 31509.6 1635.67   1
   0  -5   2 33538.8 1044.46   1
   0   5   2 33529.7 1681.48   1
   0  -5  -3 10167.5 1012.10   1
   0  -5   3 10673.1 499.141   1
   0   5   3 8922.78 928.248   1
   0  -5  -4 59994.7 2619.07   1
   0   5   4 59239.7 2450.28   1
   0   5   5 148019. 4066.46   1
   0  -5  -5 151127. 4445.23   1
   0   5   6 285.299 224.689   1
   0  -5  -6 323.394 192.698   1
   0  -5  -7 20041.4 1822.41   1
   0   5   7 20380.2 1731.10   1
   0  -5  -8 1482.97 492.012   1
   0   5   8 1350.49 434.287   1
   0  -5  -9 28255.4 2260.74   1
   0   5   9 27901.4 2182.66   1
   0  -5 -10 18179.8 1868.44   1
   0   5  10 17579.5 1770.57   1
   0   5  11 550.846 302.553   1
   0  -5 -11 1548.22 592.703   1
   0  -5 -12 2041.87 727.442   1
   0  -6   0 303153. 4564.73   1
   0  -6  -1 176923. 3859.51   1
   0  -6   1 180545. 3197.61   1
   0  -6   2 273.656 113.847   1
   0  -6  -2 585.515 268.598   1
   0  -6  -3 108247. 3538.08   1
   0  -6   3 110104. 1957.61   1
   0   6   3 113240. 3617.14   1
   0  -6   4 99308.0 1630.17   1
   0   6   4 92452.4 3396.53   1
   0  -6  -4 94326.6 3577.31   1
   0  -6  -5 2514.01 645.207   1
   0   6   5 2617.66 623.239   1
   0   6   6 54005.6 2840.31   1
   0  -6  -6 56479.6 3113.75   1
   0  -6  -7 34764.7 2513.81   1
   0   6   7 33425.7 2260.69   1
   0   6   8 5215.12 903.122   1
   0  -6  -8 5684.03 1078.79   1
   0  -6  -9 7018.45 1219.83   1
   0   6   9 6104.74 1106.35   1
   0   6  10 23103.3 2201.25   1
   0  -6 -10 25147.6 2452.40   1
   0  -6 -11 32217.5 2964.40   1
   0  -7   0-77.6388 130.316   1
   0  -7   1 11674.3 894.874   1
   0  -7  -1 13083.0 1124.02   1
   0  -7   2 29871.3 1291.53   1
   0  -7  -2 30415.3 1899.13   1
   0  -7  -3 53790.3 2693.41   1
   0  -7   3 51710.7 1537.17   1
   0  -7   4 212751. 2634.34   1
   0  -7  -4 207573. 5668.34   1
   0  -7   5 46360.9 1100.71   1
   0  -7  -5 53407.4 3066.23   1
   0  -7  -6 654.338 395.798   1
   0  -7  -7 35032.1 2775.64   1
   0  -7  -8 19967.1 2282.40   1
   0  -7  -9 2512.89 871.512   1
   0  -7 -10 55490.0 4294.54   1
   0  -8   0 6860.25 840.361   1
   0  -8   1 4154.29 588.088   1
   0  -8  -1 5628.29 824.449   1
   0  -8  -2 27303.8 1994.11   1
   0  -8   2 25553.2 1319.01   1
   0  -8   3 76976.3 1995.74   1
   0  -8  -3 70231.3 3239.20   1
   0  -8   4 25619.7 1005.38   1
   0  -8  -4 27699.6 2160.54   1
   0  -8  -5 55792.5 3335.63   1
   0  -8   5 55095.2 1399.11   1
   0  -8   6 10290.7 513.229   1
   0  -8  -6 10898.2 1645.46   1
   0  -8  -7 6455.70 1357.30   1
   0  -8  -8 6636.18 1556.94   1
   0  -8  -9 3486.29 1238.59   1
   0  -9   0-343.384 290.470   1
   0  -9   1 33498.7 1730.89   1
   0  -9  -1 33125.7 2087.59   1
   0  -9  -2 4844.08 833.724   1
   0  -9   2 4824.82 610.862   1
   0  -9   3 15931.2 980.580   1
   0  -9  -3 14217.9 1524.07   1
   0  -9  -4 6572.12 1133.07   1
   0  -9   4 6757.58 598.545   1
   0  -9  -5 1975.23 668.117   1
   0  -9   5 2152.20 317.833   1
   0  -9   6 994.236 252.481   1
   0  -9  -6 373.793 332.696   1
   0  -9  -7 2693.39 958.867   1
   0  -9   7 2327.99 230.793   1
   0 -10   0 97215.2 3227.28   1
   0 -10   1 15626.7 1222.26   1
   0 -10  -1 14522.5 1360.83   1
   0 -10   2 231.046 124.159   1
   0 -10  -2 172.941 77.7829   1
   0 -10  -3 11696.3 1431.65   1
   0 -10   3 11753.9 943.209   1
   0 -10   4 16292.1 1122.64   1
   0 -10  -4 20928.7 2073.01   1
   0 -10  -5 25907.1 2519.43   1
   0 -10   5 23109.4 1170.40   1
   0 -10  -6 51885.7 3929.39   1
   0 -10   6 53852.3 1619.46   1
   0 -10   7 58113.8 1529.55   1
   0 -11   0 145.479 178.505   1
   0 -11  -1 15063.4 1459.21   1
   0 -11   1 14591.0 1294.94   1
   0 -11  -2 10329.9 1279.75   1
   0 -11   2 9048.50 1018.73   1
   0 -11   3 3243.63 572.522   1
   0 -11  -3 2829.76 749.455   1
   0 -11   4 23829.6 1431.95   1
   0 -11  -4 21954.4 2206.60   1
   0 -11  -5 11118.9 1735.98   1
   0 -11   5 12681.1 998.233   1
   0 -12   0 25.8940 79.5059   1
   0 -12  -1 28468.8 2224.61   1
   0 -12   1 28130.5 2078.25   1
   0 -12  -2 249.759 263.717   1
   0 -12   2 694.827 312.454   1
   0 -12  -3 2575.28 684.103   1
   0 -12   3 3284.09 633.353   1
   0 -12   4 698.206 314.715   1
   0 -13   0 26.1302 185.450   1
   0 -13  -1 1196.79 475.345   1
   0 -13   1 1233.77 517.820   1
   0 -13  -2 3661.79 888.989   1
   0 -13   2 7214.43 1160.15   1
   0 -14   0 4240.22 1008.79   1
   1   0 -17-229.686 340.367   1
   1   0 -16 2168.06 744.534   1
   1   0 -15-460.806 336.375   1
   1   0 -14 61512.2 3205.14   1
   1   0 -13 127.741 140.735   1
   1   0 -12 10551.8 1216.05   1
   1   0 -11 31.5548 79.3354   1
   1   0 -10 140.200 67.7392   1
   1   0  -9-270.977 281.309   1
   1   0  -8 38353.2 2193.79   1
   1   0   2 475536. 3698.31   1
  -1   0  -2 466423. 3576.83   1
  -1   0  -3-15.8726 35.9316   1
   1   0   3-4.71886 31.8343   1
  -1   0  -4 313460. 3548.58   1
   1   0   4 312885. 3689.85   1
   1   0   5 7.91089 17.6542   1
  -1   0  -5 19.1220 14.5819   1
   1   0   6 338021. 4680.27   1
  -1   0  -6 339896. 4320.39   1
  -1   0  -7 63.7114 71.0151   1
   1   0   7-20.2601 56.1558   1
  -1   0  -8 103747. 2655.78   1
   1   0   8 96548.9 2902.98   1
   1   0   9-36.6253 128.696   1
  -1   0  -9-152.590 160.582   1
  -1   0 -10 46363.1 2016.66   1
   1   0  10 53202.2 2308.33   1
  -1   0 -11-209.982 172.308   1
   1   0  11 62.1227 34.6093   1
   1   0  12 1922.66 453.625   1
  -1   0 -12 1554.41 399.298   1
  -1   0 -13-62.3538 121.196   1
   1   0  13 365.527 268.794   1
  -1   0 -14 47571.2 2307.54   1
   1   0  14 52110.6 2311.15   1
  -1   0 -15-390.359 334.116   1
   1   0  15 151.340 262.497   1
  -1   0 -16 211.710 131.941   1
   1   0  16 775.380 302.171   1
   1   0  17 165.832 210.197   1
  -1   0 -17 246.290 156.858   1
   1   0  18 38154.7 2484.94   1
   1  -1 -17 2549.50 895.498   1
   1  -1 -16 757.955 228.023   1
   1   1 -16 3449.62 955.184   1
   1   1 -15 25594.6 2189.96   1
   1  -1 -15 27004.8 2328.82   1
   1  -1 -14 30694.7 2288.45   1
   1   1 -14 26055.8 2113.28   1
   1   1 -13 31549.7 2072.95   1
   1  -1 -13 24136.0 1972.60   1
   1   1 -12 10659.2 1122.34   1
   1  -1 -12 9995.33 1276.19   1
   1   1 -11 3636.37 617.557   1
   1  -1 -11 2456.34 524.243   1
   1   1 -10 168646. 4026.20   1
   1  -1 -10 194526. 5327.45   1
   1   1  -9 88472.5 2556.95   1
   1  -1  -9 72657.0 3405.42   1
   1   1  -8 2258.09 337.052   1
  -1  -1  -1 165675. 2060.41   1
   1   1   1 172823. 2199.91   1
  -1  -1  -2 397603. 3735.13   1
   1   1   2 363518. 3600.70   1
   1   1   3 419673. 4378.31   1
  -1  -1  -3 435021. 4214.17   1
  -1  -1  -4 56207.6 1626.33   1
  -1   1  -4 55951.3 1274.84   1
   1   1   4 54781.1 1688.23   1
   1  -1   4 53086.5 1352.22   1
  -1   1  -5 31251.7 1092.72   1
  -1  -1  -5 32596.5 1404.95   1
   1  -1   5 30715.1 1100.81   1
   1   1   5 30596.7 1468.39   1
  -1  -1  -6 2178.31 376.930   1
   1  -1   6 1979.59 308.977   1
   1   1   6 1991.84 405.317   1
  -1   1  -6 1713.73 286.629   1
  -1   1  -7 17110.9 918.914   1
   1  -1   7 15814.5 1007.31   1
  -1  -1  -7 17075.9 1104.22   1
   1   1   7 16896.1 1265.74   1
  -1   1  -8 25073.0 1169.37   1
  -1  -1  -8 24814.5 1396.27   1
   1   1   8 24307.4 1470.44   1
   1  -1   8 24484.8 1348.91   1
   1   1   9 81352.5 2890.09   1
  -1  -1  -9 77595.2 2618.85   1
  -1   1  -9 76202.3 2197.02   1
   1  -1   9 78556.6 2453.63   1
   1  -1  10 79731.4 2533.63   1
  -1   1 -10 77094.1 2372.41   1
  -1  -1 -10 77457.5 2737.18   1
   1   1  10 79262.0 3004.49   1
   1  -1  11 8577.02 880.900   1
  -1   1 -11 8521.26 833.118   1
  -1  -1 -11 7975.78 911.989   1
   1   1  11 8448.68 975.337   1
   1  -1  12 10281.1 989.353   1
  -1   1 -12 8489.25 876.158   1
   1   1  12 9078.89 991.548   1
  -1  -1 -12 9676.78 1067.75   1
   1  -1  13 2139.55 405.680   1
   1   1  13 3279.35 634.653   1
  -1  -1 -13 2412.69 547.587   1
  -1   1 -13 2413.10 500.296   1
   1  -1  14 25213.6 1519.75   1
   1   1  14 24587.6 1677.20   1
  -1   1 -14 23167.5 1536.44   1
  -1  -1 -14 20161.4 1703.05   1
   1   1  15 15316.2 1332.03   1
  -1   1 -15 14726.7 1233.40   1
   1  -1  15 15029.6 1208.43   1
  -1  -1 -15 12905.0 1409.23   1
  -1  -1 -16-78.6164 107.505   1
   1  -1  16 132.027 145.124   1
   1   1  16 174.194 206.093   1
  -1   1 -16 356.344 288.174   1
   1  -1  17 7710.44 1004.47   1
   1   1  17 7336.54 1079.41   1
   1  -1  18 5596.63 934.219   1
   1  -2 -16-899.405 782.637   1
   1   2 -15 1300.75 336.652   1
   1  -2 -15 2052.77 760.748   1
   1   2 -14 459.466 228.068   1
   1  -2 -14 198.453 242.891   1
   1  -2 -13 13094.1 1724.63   1
   1   2 -13 8893.85 1025.16   1
   1  -2 -12 22954.8 2215.03   1
   1   2 -12 22664.6 1466.89   1
   1   2 -11 65440.8 2459.72   1
   1  -2 -11 55488.9 3471.82   1
   1   2 -10 24005.0 1426.47   1
   1  -2 -10 14203.5 2327.40   1
   1   2  -9 24901.7 1284.79   1
   1   2  -8 62747.6 1710.34   1
   1   2  -7 119508. 2522.88   1
   1   2  -1 502148. 3101.92   1
   1   2   0 275661. 2779.15   1
  -1  -2   0 282775. 2754.08   1
  -1  -2  -1 366976. 3467.45   1
   1   2   1 342820. 3529.51   1
   1   2   2 43516.7 1350.90   1
  -1  -2  -2 42292.4 1322.80   1
   1   2   3 400527. 4766.94   1
  -1  -2  -3 369828. 4383.01   1
  -1  -2  -4 268.523 178.396   1
   1   2   4 120.898 113.077   1
   1  -2   5 52911.4 1336.66   1
  -1  -2  -5 49131.9 1770.77   1
   1   2   5 47948.2 1991.72   1
  -1  -2  -6 52306.0 1957.55   1
  -1   2  -6 51102.8 1297.64   1
   1  -2   6 51070.2 1376.10   1
   1   2   6 50279.5 2185.04   1
   1   2   7 135689. 3503.67   1
   1  -2   7 140889. 2485.29   1
  -1   2  -7 141622. 2292.17   1
  -1  -2  -7 139093. 3423.38   1
   1   2   8 24090.4 1594.67   1
  -1   2  -8 24043.7 1044.39   1
  -1  -2  -8 23625.8 1478.85   1
   1  -2   8 25186.8 1233.25   1
   1   2   9 7439.67 892.591   1
  -1   2  -9 5086.20 548.970   1
   1  -2   9 5768.57 629.977   1
  -1  -2  -9 7230.15 868.089   1
   1   2  10 224.108 123.982   1
   1  -2  10 181.675 72.4677   1
  -1  -2 -10 234.139 162.688   1
  -1   2 -10 147.007 62.2318   1
   1  -2  11 50581.9 1974.39   1
   1   2  11 51278.0 2515.60   1
  -1  -2 -11 52645.7 2580.31   1
   1  -2  12 30020.7 1573.71   1
  -1   2 -12 25478.6 1387.05   1
  -1  -2 -12 24919.8 1833.56   1
   1   2  12 25411.6 1745.49   1
   1   2  13 98055.9 3467.48   1
  -1   2 -13 91598.7 2761.62   1
  -1  -2 -13 97956.4 3772.03   1
   1  -2  13 96361.8 2802.67   1
  -1  -2 -14 1754.09 552.205   1
  -1   2 -14 1369.59 318.318   1
   1  -2  14 1785.57 380.110   1
   1   2  14 1680.14 418.588   1
  -1  -2 -15 7122.15 1093.93   1
  -1   2 -15 5346.46 714.214   1
   1  -2  15 6418.93 741.756   1
   1   2  15 7018.36 975.702   1
   1   2  16 2819.53 846.129   1
   1  -2  16 5402.21 759.642   1
   1  -2  17 10063.1 1134.12   1
   1   3 -14 856.200 262.117   1
   1  -3 -14-3361.31 1502.06   1
   1  -3 -13 5695.52 1358.37   1
   1   3 -13 43.8498 90.3040   1
   1   3 -12 233.258 142.225   1
   1   3 -11 6384.96 662.944   1
   1   3 -10 26302.3 1175.64   1
   1   3  -9 46789.5 1572.78   1
   1   3  -8 193756. 2835.33   1
   1   3  -7 22910.9 797.446   1
   1   3  -2 90673.2 1352.27   1
   1   3  -1 56037.8 1287.14   1
  -1  -3   1 53974.2 1231.72   1
  -1  -3   0 373614. 3666.25   1
   1   3   0 338369. 3443.25   1
   1   3   1 73212.2 1835.66   1
  -1  -3  -1 73129.6 1850.01   1
  -1  -3  -2 2938.16 385.773   1
   1   3   2 3043.83 419.035   1
  -1  -3  -3 38777.3 1511.46   1
   1   3   3 36807.3 1622.28   1
  -1  -3  -4 232101. 3975.18   1
   1   3   4 231511. 4356.81   1
  -1  -3  -5 111599. 3021.29   1
   1   3   5 110544. 3029.82   1
   1  -3   6 25651.8 906.385   1
   1   3   6 27124.1 1598.66   1
  -1  -3  -6 26107.0 1572.64   1
   1   3   7 88848.5 3049.58   1
   1  -3   7 83922.0 1790.05   1
  -1  -3  -7 84665.0 3000.89   1
   1   3   8 94083.0 3337.53   1
  -1  -3  -8 89385.9 3276.08   1
   1  -3   8 95465.2 2015.14   1
  -1   3  -9 10757.7 670.812   1
   1   3   9 9881.06 1096.77   1
   1  -3   9 10691.5 774.533   1
  -1  -3  -9 8753.28 1047.32   1
   1   3  10 11093.4 1210.77   1
  -1   3 -10 11555.8 741.103   1
  -1  -3 -10 11581.0 1237.98   1
   1  -3  10 12615.4 893.879   1
   1  -3  11 7573.01 680.170   1
  -1   3 -11 6833.55 614.963   1
  -1  -3 -11 6719.36 1000.10   1
   1   3  11 6933.92 902.770   1
   1  -3  12 15321.9 1050.81   1
  -1   3 -12 14480.4 963.246   1
   1   3  12 14877.4 1383.72   1
  -1  -3 -12 14461.5 1541.18   1
   1   3  13 12915.5 1295.04   1
   1  -3  13 14027.5 1091.03   1
  -1   3 -13 10459.2 865.042   1
  -1  -3 -13 12558.1 1452.60   1
   1   3  14 2702.10 611.120   1
  -1  -3 -14 2858.36 705.924   1
   1  -3  14 2425.93 403.469   1
  -1   3 -14 2103.00 373.909   1
   1   3  15 5328.12 1324.61   1
   1  -3  15 5282.32 641.678   1
   1  -3  16 20326.8 1464.64   1
   1   4 -12 67576.4 1705.64   1
   1   4 -11 1728.18 248.675   1
   1   4 -10 1276.39 197.019   1
   1   4  -9 33760.3 982.689   1
   1   4  -8 27544.2 780.443   1
   1   4  -3 15723.1 552.678   1
  -1  -4   2 361.096 86.5005   1
   1   4  -2 369.885 89.4118   1
  -1  -4   1 8321.57 539.281   1
   1   4  -1 8122.34 560.318   1
  -1  -4   0 343748. 4079.28   1
   1   4   0 348457. 4185.02   1
  -1  -4  -1 20116.7 1026.80   1
   1   4   1 19387.1 1076.69   1
   1   4   2 1689.97 329.368   1
  -1  -4  -2 1626.43 328.988   1
   1   4   3 84720.7 2466.78   1
  -1  -4  -3 80418.5 2479.66   1
   1   4   4 78199.0 2552.24   1
  -1  -4  -4 77586.2 2603.68   1
   1   4   5 143426. 3683.90   1
  -1  -4  -5 142534. 3771.56   1
   1   4   6 30436.5 1805.34   1
  -1  -4  -6 29031.6 1835.14   1
   1   4   7 64741.1 2756.55   1
   1  -4   7 67363.6 1366.76   1
  -1  -4  -7 62117.4 2822.46   1
   1   4   8 128312. 4054.19   1
   1  -4   8 124859. 2018.12   1
  -1  -4  -8 124607. 4215.37   1
   1  -4   9-77.4340 54.8001   1
   1   4   9-172.387 144.793   1
   1   4  10 2060.47 475.359   1
  -1  -4 -10 1762.12 473.229   1
   1  -4  10 1705.95 288.301   1
   1  -4  11 2481.61 367.479   1
  -1  -4 -11 1335.74 485.661   1
   1   4  11 1851.15 485.658   1
   1  -4  12 90501.5 2370.30   1
  -1  -4 -12 81623.4 4014.08   1
   1   4  12 85594.0 3485.46   1
   1   4  13 5717.59 885.316   1
   1  -4  13 6983.45 631.983   1
  -1  -4 -13 5356.23 1059.65   1
   1   4  14 4411.06 865.378   1
   1  -4  14 6236.07 620.102   1
   1  -4  15 8258.09 801.622   1
   1   5 -11 51691.1 1140.67   1
   1   5  -4 163507. 1893.12   1
  -1  -5   3 211004. 2284.58   1
   1   5  -3 211293. 2430.81   1
   1   5  -2 201.151 130.625   1
  -1  -5   2 169.753 87.9385   1
   1   5  -1 236991. 3315.31   1
  -1  -5   1 245094. 3447.99   1
   1   5   0 81558.6 2150.08   1
  -1  -5   0 75189.9 2028.50   1
   1   5   1 122862. 2839.86   1
  -1  -5  -1 123869. 2853.15   1
  -1  -5  -2 936.783 261.787   1
   1   5   2 737.939 228.745   1
   1   5   3 227157. 4472.64   1
  -1  -5  -3 234105. 4740.97   1
   1   5   4 39939.6 1957.80   1
  -1  -5  -4 39291.8 2072.07   1
   1   5   5 21756.9 1494.31   1
  -1  -5  -5 21543.3 1641.49   1
   1   5   6 203.812 254.577   1
  -1  -5  -6 309.885 267.965   1
   1   5   7 30074.4 1945.92   1
   1  -5   7 29268.5 864.076   1
  -1  -5  -7 31536.8 2214.77   1
  -1  -5  -8 15976.8 1648.99   1
   1  -5   8 14615.5 647.424   1
   1   5   8 16184.2 1388.55   1
   1   5   9 94136.3 3574.88   1
  -1  -5  -9 92798.9 4151.13   1
   1  -5   9 94457.2 1746.03   1
  -1  -5 -10 2467.42 729.607   1
   1   5  10 3121.24 668.398   1
   1  -5  10 2574.90 316.447   1
   1   5  11 23185.2 1802.65   1
  -1  -5 -11 21114.1 2064.96   1
   1  -5  11 24410.2 1033.06   1
   1   5  12 1890.78 499.860   1
  -1  -5 -12 1882.56 609.878   1
   1  -5  12 2624.64 347.392   1
   1   5  13 15602.6 1620.25   1
   1  -5  13 16891.6 943.930   1
   1  -5  14-56.4457 105.840   1
   1   6  -4 3132.06 264.563   1
  -1  -6   4 2661.11 227.112   1
  -1  -6   3 61073.8 1390.73   1
   1   6  -3 61034.1 1468.02   1
  -1  -6   2 3281.77 373.551   1
   1   6  -2 2625.99 345.116   1
   1   6  -1 1429.68 278.111   1
  -1  -6   1 1537.65 287.481   1
   1   6   0 354.726 84.0432   1
  -1  -6   0 290.389 104.782   1
   1   6   1 94215.6 2634.26   1
  -1  -6  -1 95332.8 2774.58   1
   1   6   2 56864.6 2190.09   1
  -1  -6  -2 49506.3 2171.98   1
  -1  -6  -3 75597.7 2937.63   1
   1   6   3 75334.2 2691.24   1
   1   6   4 4359.55 664.038   1
  -1  -6  -4 4696.70 758.427   1
  -1  -6  -5 79943.0 3338.61   1
   1   6   5 74804.4 2773.57   1
  -1  -6  -6 16026.0 1580.34   1
   1   6   6 16378.6 1352.56   1
   1   6   7 66291.3 2864.63   1
  -1  -6  -7 70115.4 3473.80   1
   1   6   8 283.369 186.420   1
   1  -6   8 386.822 116.518   1
  -1  -6  -8-26.4135 120.136   1
   1  -6   9 1842.79 221.002   1
  -1  -6  -9 1894.48 662.044   1
   1   6   9 2384.86 559.327   1
   1  -6  10 13112.8 680.263   1
   1   6  10 13513.1 1381.66   1
  -1  -6 -10 13143.4 1738.96   1
   1   6  11 21428.1 2061.39   1
  -1  -6 -11 24046.5 2693.60   1
   1  -6  12 530.555 137.109   1
   1   6  12 1004.53 466.192   1
  -1  -7   5 40013.7 877.666   1
  -1  -7   4 57696.1 1631.71   1
   1   7  -4 35429.4 1227.33   1
   1   7  -3 2504.13 358.934   1
  -1  -7   3 1800.46 265.321   1
   1   7  -2 109817. 2276.02   1
  -1  -7   2 111877. 2413.50   1
   1   7  -1 6057.03 565.243   1
  -1  -7   1 5654.46 614.207   1
  -1  -7   0 65954.6 2292.98   1
   1   7   0 65278.5 2045.32   1
   1   7   1 54187.3 2006.07   1
  -1  -7  -1 54071.5 2263.12   1
  -1  -7  -2 86033.6 3124.55   1
   1   7   2 84252.3 2640.40   1
   1   7   3 164.047 191.337   1
  -1  -7  -3 177.276 143.603   1
   1   7   4 21044.5 1424.23   1
  -1  -7  -4 20634.7 1728.55   1
   1   7   5 14180.5 1245.06   1
  -1  -7  -5 14598.5 1517.67   1
   1   7   6 2002.24 466.289   1
  -1  -7  -6 1515.10 510.371   1
   1   7   7 14566.7 1305.69   1
  -1  -7  -7 12433.6 1565.77   1
   1   7   8 20771.3 1662.78   1
  -1  -7  -8 18162.0 2012.26   1
   1   7   9 2903.09 663.016   1
  -1  -7  -9 2099.89 747.222   1
   1  -7   9 1671.27 201.371   1
  -1  -7 -10 16173.5 2053.05   1
   1   7  10 20358.8 1806.49   1
   1  -7  10 17976.3 704.124   1
   1  -7  11 22353.9 803.376   1
  -1  -8   5 25.9327 37.2968   1
  -1  -8   4 27890.6 1034.97   1
   1   8  -3 130951. 2886.19   1
  -1  -8   3 120260. 2569.51   1
   1   8  -2 15612.1 997.897   1
  -1  -8   2 15165.2 960.018   1
   1   8  -1 93530.7 2515.74   1
  -1  -8   1 90451.8 2552.29   1
  -1  -8   0 37465.8 1835.51   1
   1   8   0 40485.4 1704.74   1
  -1  -8  -1 42360.2 2150.30   1
   1   8   1 46363.8 1880.08   1
  -1  -8  -2 9029.32 1050.96   1
   1   8   2 10095.4 897.788   1
   1   8   3 6063.27 719.927   1
  -1  -8  -3 5867.87 878.530   1
   1   8   4 927.789 304.701   1
  -1  -8  -4 872.888 469.958   1
  -1  -8  -5 25267.7 2344.88   1
   1   8   5 27191.5 1833.99   1
  -1  -8  -6 75688.7 3863.34   1
   1   8   6 79878.2 3095.01   1
  -1  -8  -7 42674.8 3019.43   1
   1   8   7 47892.8 2498.17   1
   1   8   8 1494.41 581.898   1
  -1  -8  -8-47.8544 203.070   1
   1   8   9 31195.0 2300.21   1
   1  -8   9 28222.1 813.650   1
  -1  -9   6 1351.45 174.312   1
  -1  -9   5 104477. 2042.32   1
  -1  -9   4 540.951 157.489   1
  -1  -9   3 100537. 2526.42   1
  -1  -9   2 4013.75 527.532   1
  -1  -9   1 340.278 129.627   1
   1   9  -1 564.307 169.679   1
   1   9   0 6519.58 766.811   1
  -1  -9   0 6157.78 772.290   1
  -1  -9  -1 2554.68 548.748   1
   1   9   1 3327.04 582.315   1
  -1  -9  -2 219.815 161.986   1
   1   9   2 394.821 246.714   1
   1   9   3 43237.1 2188.55   1
  -1  -9  -3 40800.3 2513.34   1
  -1  -9  -4 719.105 362.729   1
   1   9   4 1127.46 372.899   1
   1   9   5 40677.4 2338.16   1
  -1  -9  -5 38913.3 2778.14   1
   1   9   6 3759.24 752.278   1
  -1  -9  -6 2689.47 722.413   1
  -1  -9  -7 31226.4 2764.81   1
   1   9   7 31525.6 2282.48   1
   1   9   8 2409.08 713.486   1
  -1 -10   6 51307.6 1454.29   1
  -1 -10   5 545.493 139.170   1
  -1 -10   4 156.822 61.5229   1
  -1 -10   3 2566.64 418.180   1
  -1 -10   2 1204.25 310.761   1
  -1 -10   1 9469.14 895.312   1
   1  10   0 11600.5 1171.20   1
  -1 -10   0 8392.64 936.620   1
   1  10   1 31580.8 1906.63   1
  -1 -10  -1 27778.5 1820.82   1
   1  10   2 35018.3 2069.09   1
  -1 -10  -2 28038.5 2028.55   1
   1  10   3 34770.1 2154.90   1
  -1 -10  -3 32980.8 2343.34   1
   1  10   4 1335.83 380.707   1
  -1 -10  -4 1432.02 497.514   1
  -1 -10  -5 51.5945 145.953   1
   1  10   5-16.7878 195.913   1
   1  10   6 5920.40 999.544   1
  -1 -10  -6 7511.80 1353.99   1
   1  10   7 3323.61 772.501   1
  -1 -11   5 3579.70 487.162   1
  -1 -11   4 37189.6 1644.10   1
  -1 -11   3 10531.0 927.500   1
  -1 -11   2 11058.4 1000.37   1
  -1 -11   1 16967.1 1265.81   1
  -1 -11   0-219.831 232.773   1
  -1 -11  -1 22117.8 1650.42   1
  -1 -11  -2 67202.2 3142.65   1
  -1 -11  -3 928.182 359.259   1
   1  11   3 1176.34 413.934   1
   1  11   4 5517.08 995.223   1
  -1 -11  -4 5044.94 985.665   1
   1  11   5 1623.84 459.807   1
  -1 -12   4 6531.14 763.711   1
  -1 -12   3 642.731 151.948   1
  -1 -12   2 5905.30 775.751   1
  -1 -12   1 2990.02 626.130   1
  -1 -12   0 1431.11 358.444   1
  -1 -12  -1 5548.79 870.105   1
  -1 -12  -2 8741.07 1154.42   1
  -1 -12  -3 14615.4 1574.93   1
  -1 -13   2 169.585 194.466   1
  -1 -13   1 12222.0 1222.49   1
  -1 -13   0 1418.83 401.417   1
  -1 -13  -1 10363.9 1209.20   1
  -1 -13  -2-95.4419 217.157   1
  -1 -14   0 27164.7 2061.73   1
  -1 -14  -1 1134.75 374.631   1
  -2   0  -5-36.9711 52.3980   1
   2   0   5 52.9316 118.610   1
  -2   0  -6 20750.8 1124.80   1
   2   0   6 19570.0 1166.93   1
   2   0   7-76.7836 128.755   1
  -2   0  -7-53.1883 108.142   1
  -2   0  -8 29559.3 1475.46   1
   2   0   8 30133.5 1525.87   1
   2   0   9-105.351 169.561   1
  -2   0  -9 66.8180 176.948   1
   2   0  10 3559.05 578.041   1
  -2   0 -10 2833.50 516.019   1
  -2   0 -11-225.585 229.603   1
   2   0  11 8.90742 56.0385   1
  -2   0 -12 151751. 4157.54   1
   2   0  12 145442. 4305.60   1
   2   0  13 5.96118 101.045   1
  -2   0 -13 59.3705 96.2245   1
   2   0  14 408.447 294.448   1
  -2   0 -14-156.030 131.155   1
  -2   0 -15-116.346 44.6510   1
   2   0  15-206.081 209.818   1
   2   0  16 6352.50 1351.18   1
  -2   0 -16 8432.85 1188.13   1
   2   0  17 22.1716 45.7431   1
  -2  -1  -3 412594. 4768.91   1
   2   1   3 409436. 5087.70   1
   2   1   4 632054. 6455.62   1
  -2  -1  -4 669289. 6150.53   1
   2   1   5 13486.1 1001.84   1
  -2  -1  -5 14516.7 976.606   1
   2   1   6 350.729 85.5544   1
  -2  -1  -6 749.175 272.522   1
   2  -1   6 624.842 257.549   1
  -2   1  -7 16056.2 991.358   1
  -2  -1  -7 12911.3 1044.86   1
   2  -1   7 14669.7 1000.27   1
   2   1   7 14296.5 1074.60   1
  -2   1  -8 65144.0 2016.51   1
  -2  -1  -8 65965.6 2412.96   1
   2  -1   8 67052.0 2238.40   1
   2   1   8 66888.6 2488.47   1
  -2  -1  -9 114171. 3308.79   1
   2  -1   9 111667. 2862.28   1
  -2   1  -9 110497. 2707.22   1
   2   1   9 107550. 3471.04   1
  -2   1 -10 12260.6 1058.06   1
   2  -1  10 11638.3 1116.85   1
  -2  -1 -10 7083.52 846.226   1
   2   1  10 6715.81 895.368   1
  -2   1 -11 24390.7 1415.86   1
   2  -1  11 24572.8 1557.83   1
  -2  -1 -11 27895.6 1760.91   1
   2   1  11 24957.7 1812.12   1
  -2   1 -12 9563.87 912.142   1
  -2  -1 -12 8786.63 998.327   1
   2  -1  12 9409.32 1017.98   1
   2   1  12 8959.00 1048.37   1
   2   1  13 18570.6 1566.01   1
  -2  -1 -13 19114.8 1540.45   1
  -2   1 -13 17121.0 1295.84   1
   2  -1  13 18166.8 1401.08   1
   2  -1  14 220.469 234.697   1
  -2   1 -14 133.940 174.887   1
   2   1  14 265.347 237.451   1
  -2  -1 -14-150.554 131.577   1
   2  -1  15 19208.4 1584.83   1
   2   1  15 16658.6 1671.30   1
  -2   1 -15 18458.5 1474.57   1
  -2  -1 -15 17519.9 1554.33   1
   2   1  16 6528.91 1012.90   1
  -2   1 -16 5814.68 838.201   1
   2  -1  16 7406.58 983.191   1
   2  -1  17 12731.5 1315.05   1
   2  -1  18 266.303 157.261   1
   2   2   2 50291.0 1744.91   1
  -2  -2  -2 52199.7 1688.82   1
  -2  -2  -3 55.9762 57.0424   1
   2   2   3 52.8845 57.7413   1
   2   2   4 573.075 223.234   1
  -2  -2  -4 566.503 207.545   1
  -2  -2  -5 34415.8 1637.23   1
   2   2   5 36270.7 1770.35   1
  -2  -2  -6 39410.6 1815.06   1
   2   2   6 39365.8 1839.93   1
   2  -2   7 248051. 3945.85   1
  -2  -2  -7 248040. 4641.22   1
   2   2   7 246065. 5016.04   1
   2  -2   8 4101.91 507.983   1
   2   2   8 4851.62 723.979   1
  -2  -2  -8 4743.72 663.604   1
   2   2   9 906.457 305.604   1
  -2  -2  -9 1100.57 320.594   1
   2   2  10 2155.74 621.647   1
  -2   2 -10 914.896 261.969   1
   2  -2  10 940.322 221.118   1
  -2  -2 -10 2224.78 601.201   1
   2   2  11 351.354 178.905   1
   2  -2  11 502.374 255.812   1
  -2   2 -11 423.790 182.748   1
  -2  -2 -11 646.010 268.117   1
   2   2  12 24536.0 1808.15   1
  -2   2 -12 23472.1 1354.96   1
  -2  -2 -12 22289.6 1743.63   1
   2  -2  12 23651.1 1517.70   1
   2   2  13 36381.5 2353.80   1
  -2  -2 -13 34365.2 2244.52   1
  -2   2 -13 36978.8 1779.36   1
   2  -2  13 34802.8 1975.20   1
  -2   2 -14 7670.77 830.810   1
   2   2  14 6046.92 995.605   1
  -2  -2 -14 6337.68 960.310   1
   2  -2  14 8610.57 921.157   1
   2  -2  15 11932.5 1192.59   1
   2   2  15 10932.8 1413.48   1
  -2   2 -15 10483.4 1036.20   1
   2  -2  16 620.726 243.079   1
   2  -2  17 32088.7 2156.29   1
   2   3 -13 2351.47 644.905   1
   2   3   0 2780.36 374.900   1
  -2  -3  -1 51107.3 1633.99   1
   2   3   1 50842.9 1698.77   1
  -2  -3  -2 433806. 5102.16   1
   2   3   2 426629. 5288.45   1
   2   3   3 2482.40 427.920   1
  -2  -3  -3 1983.68 373.415   1
   2   3   4 3469.59 523.843   1
  -2  -3  -4 3189.10 487.174   1
   2   3   5 9060.43 877.985   1
  -2  -3  -5 8548.65 831.933   1
  -2  -3  -6 38817.9 1875.03   1
   2   3   6 41178.0 2071.68   1
   2   3   7 169.055 174.888   1
  -2  -3  -7 238.806 183.851   1
  -2  -3  -8 26474.0 1697.12   1
   2  -3   8 26279.7 1227.56   1
   2   3   8 25345.5 1817.26   1
  -2  -3  -9 62093.5 2742.45   1
   2  -3   9 55206.2 1858.01   1
   2   3   9 63494.8 3003.19   1
   2  -3  10 53230.6 1856.49   1
  -2  -3 -10 47070.7 2485.04   1
   2   3  10 50421.2 2644.30   1
  -2  -3 -11 3486.72 644.346   1
   2   3  11 3614.42 680.119   1
   2  -3  11 3774.73 502.148   1
  -2  -3 -12 516.816 211.626   1
   2  -3  12 384.199 157.363   1
   2   3  12 628.287 297.398   1
  -2  -3 -13 7365.99 1097.88   1
   2   3  13 7370.38 1065.39   1
   2  -3  13 6944.02 866.677   1
   2   3  14 15430.3 1726.82   1
   2  -3  14 19688.1 1434.41   1
   2  -3  15 13889.1 1265.97   1
   2  -3  16-30.9418 90.2728   1
   2   4 -12 26192.0 1581.38   1
   2   4  -2 47708.3 1373.90   1
   2   4  -1 60524.9 1714.74   1
  -2  -4   0 9280.06 705.829   1
   2   4   0 9331.34 750.174   1
  -2  -4  -1 3469.61 470.940   1
   2   4   1 3486.20 488.412   1
   2   4   2 56493.3 1981.52   1
  -2  -4  -2 56092.9 1988.06   1
  -2  -4  -3 11659.0 923.216   1
   2   4   3 10998.9 914.907   1
   2   4   4 2552.24 492.613   1
  -2  -4  -4 2515.82 456.970   1
   2   4   5 786.747 240.101   1
  -2  -4  -5 706.667 226.404   1
  -2  -4  -6 76290.1 2788.04   1
   2   4   6 76125.8 2953.11   1
  -2  -4  -7 5537.57 766.714   1
   2   4   7 4373.82 751.844   1
  -2  -4  -8-142.475 236.904   1
   2   4   8-0.82817 95.4159   1
   2  -4   9 9158.14 683.676   1
  -2  -4  -9 9487.08 1114.39   1
   2   4   9 9820.03 1145.81   1
  -2  -4 -10 4946.14 827.478   1
   2   4  10 5034.24 864.089   1
   2   4  11 17772.0 1700.07   1
  -2  -4 -11 18388.3 1712.17   1
   2  -4  11 16963.7 1042.99   1
  -2  -4 -12 4018.89 736.570   1
   2  -4  12 5347.35 626.323   1
   2   4  13 37602.8 2631.81   1
   2  -4  13 40116.9 1955.15   1
   2  -4  14 40263.3 1980.03   1
   2  -4  15 1438.00 400.677   1
   2   5 -11-40.0057 102.043   1
   2   5  -5 19819.8 783.864   1
   2   5  -4 248.882 41.6435   1
   2   5  -3 283766. 3364.13   1
   2   5  -2 52422.9 1588.62   1
   2   5  -1 27.2593 52.1462   1
  -2  -5   1 26.8300 21.0830   1
  -2  -5   0 5587.25 589.829   1
   2   5   0 6180.87 605.656   1
  -2  -5  -1 28954.0 1442.30   1
   2   5   1 28860.9 1423.90   1
  -2  -5  -2 70808.5 2337.59   1
   2   5   2 72369.4 2459.92   1
  -2  -5  -3 393399. 5927.65   1
   2   5   3 386150. 6190.37   1
  -2  -5  -4 11311.2 1062.77   1
   2   5   4 11045.7 1101.36   1
  -2  -5  -5 151277. 3935.57   1
   2   5   5 135312. 4105.08   1
   2   5   6 5626.68 865.075   1
  -2  -5  -6 5967.10 825.925   1
  -2  -5  -7 89715.9 3416.34   1
   2   5   7 100389. 3669.55   1
   2   5   8 8491.23 1079.50   1
  -2  -5  -8 7720.09 1043.88   1
   2   5   9 36597.9 2355.88   1
  -2  -5  -9 32001.8 2252.17   1
   2   5  10 40047.5 2595.98   1
   2  -5  10 39336.8 1489.34   1
  -2  -5 -10 39934.1 2638.89   1
   2   5  11 18038.9 1819.15   1
  -2  -5 -11 17594.9 1817.38   1
   2  -5  11 22032.9 1158.57   1
   2  -5  12-138.986 119.292   1
   2   5  12-190.418 266.499   1
   2  -5  13 4471.52 623.325   1
   2  -5  14 4066.86 596.557   1
   2   6 -10 2007.53 236.275   1
   2   6  -8 11882.9 567.068   1
   2   6  -7 3466.86 281.033   1
   2   6  -6 216.307 44.8335   1
   2   6  -5 20929.4 871.303   1
   2   6  -4 458.029 122.389   1
   2   6  -3 15258.4 821.594   1
  -2  -6   2 36935.1 1278.63   1
   2   6  -2 36927.5 1396.82   1
  -2  -6   1 173194. 3166.88   1
   2   6  -1 173290. 3338.46   1
  -2  -6   0 38589.0 1628.48   1
   2   6   0 37290.4 1727.80   1
  -2  -6  -1 45613.4 1886.75   1
   2   6   1 43731.0 1988.56   1
   2   6   2-91.0657 112.296   1
  -2  -6  -2 80.4549 167.400   1
  -2  -6  -3 9388.30 963.634   1
   2   6   3 8069.02 979.668   1
  -2  -6  -4 11906.8 1117.79   1
   2   6   4 10284.5 1133.20   1
  -2  -6  -5 9373.39 1046.94   1
   2   6   5 9933.05 1088.24   1
  -2  -6  -6 4284.87 735.569   1
   2   6   6 4692.13 738.885   1
   2   6   7 14029.7 1476.13   1
  -2  -6  -7 10542.7 1250.74   1
   2   6   8 26730.2 2050.26   1
  -2  -6  -8 25186.0 1995.20   1
   2   6   9 42250.4 2714.28   1
  -2  -6  -9 45372.0 2813.07   1
  -2  -6 -10 4618.94 907.540   1
   2  -6  10 5339.33 505.714   1
   2   6  10 4030.86 817.233   1
   2  -6  11 30501.3 1401.51   1
   2   6  11 29961.9 2424.88   1
   2  -6  12 2372.78 144.952   1
   2  -6  13 31044.2 1722.31   1
   2   7  -7 12993.7 582.882   1
   2   7  -6 10.0352 44.5927   1
   2   7  -5 38368.3 1258.04   1
   2   7  -4 40480.1 1439.21   1
  -2  -7   3 1797.52 262.930   1
   2   7  -3 1703.63 320.881   1
  -2  -7   2 46321.5 1583.14   1
   2   7  -2 48826.8 1882.79   1
  -2  -7   1 21848.9 1208.06   1
   2   7  -1 23506.4 1377.87   1
  -2  -7   0 14442.1 1048.99   1
   2   7   0 14960.8 1185.66   1
  -2  -7  -1 28823.4 1615.10   1
   2   7   1 26232.6 1625.12   1
  -2  -7  -2 44095.1 2096.21   1
   2   7   2 41005.8 2062.59   1
  -2  -7  -3 4533.26 681.419   1
   2   7   3 4518.37 678.434   1
   2   7   4 39687.7 2109.91   1
  -2  -7  -4 37415.9 2178.09   1
   2   7   5 8849.69 1063.72   1
  -2  -7  -5 7750.05 1037.61   1
  -2  -7  -6 710.174 473.403   1
   2   7   6 225.739 355.774   1
   2   7   7 42946.8 2638.53   1
  -2  -7  -7 47472.6 2772.25   1
   2   7   8 72365.7 3587.88   1
  -2  -7  -8 77375.3 3648.69   1
   2   7   9 4176.71 819.365   1
  -2  -7  -9 4536.71 891.171   1
   2   7  10 10323.6 1386.57   1
   2  -7  11 6062.08 610.614   1
   2   8  -7 109725. 1647.49   1
   2   8  -6 27917.2 960.479   1
   2   8  -5 39878.3 1292.45   1
   2   8  -4 210.859 130.894   1
   2   8  -3 12510.6 861.805   1
  -2  -8   3 12116.0 792.512   1
   2   8  -2 229.693 131.468   1
  -2  -8   2 102.229 54.6251   1
   2   8  -1 761.751 235.222   1
  -2  -8   1 794.636 211.475   1
   2   8   0 88013.5 2760.68   1
  -2  -8   0 86571.3 2747.04   1
  -2  -8  -1 4452.59 647.671   1
   2   8   1 5277.05 712.461   1
  -2  -8  -2 289.175 27.1978   1
   2   8   2 521.812 267.504   1
   2   8   3 30025.1 2132.19   1
  -2  -8  -3 25192.1 1900.01   1
  -2  -8  -4 545.861 260.638   1
   2   8   4 811.713 347.266   1
   2   8   5 21846.3 1743.99   1
  -2  -8  -5 22446.7 1752.51   1
   2   8   6 13917.9 1419.88   1
  -2  -8  -6 15002.6 1561.48   1
   2   8   7 38967.6 2501.49   1
  -2  -8  -7 38451.5 2577.47   1
   2   8   8 25690.7 2119.07   1
  -2  -8  -8 27689.5 2308.34   1
   2   8   9 9373.31 1312.60   1
   2   9  -6 193.537 47.4234   1
   2   9  -5 462.006 126.597   1
   2   9  -4 325.050 114.841   1
  -2  -9   4 502.331 136.796   1
   2   9  -3 84121.2 2318.66   1
  -2  -9   3 82770.3 2236.25   1
  -2  -9   2 1724.02 320.298   1
   2   9  -2 2221.27 404.905   1
   2   9  -1 86732.8 2734.19   1
  -2  -9   1 81037.5 2562.77   1
   2   9   0 764.693 246.306   1
  -2  -9   0 883.669 307.224   1
   2   9   1 97691.1 3231.26   1
  -2  -9  -1 94521.7 3148.41   1
  -2  -9  -2 970.733 300.320   1
   2   9   2 1106.67 320.035   1
  -2  -9  -3 69056.2 3081.93   1
   2   9   3 82319.2 3266.59   1
   2   9   4 276.675 208.797   1
  -2  -9  -4 210.523 218.312   1
   2   9   5 9393.64 1165.14   1
  -2  -9  -5 13633.9 1531.29   1
  -2  -9  -6 2620.49 656.451   1
   2   9   6 1933.62 577.557   1
   2   9   7 1748.92 462.513   1
  -2 -10   4 1388.53 269.184   1
   2  10  -4 1269.22 221.151   1
  -2 -10   3 22288.3 1287.00   1
   2  10  -3 21871.1 1095.51   1
  -2 -10   2 36786.4 1724.20   1
   2  10  -2 33608.0 1514.58   1
   2  10  -1 231.767 145.749   1
  -2 -10   1 29.5674 112.738   1
   2  10   0 11024.4 994.191   1
  -2 -10   0 9568.80 985.594   1
  -2 -10  -1-212.848 228.157   1
   2  10   1 123.294 171.394   1
  -2 -10  -2 3251.44 616.943   1
   2  10   2 3960.40 636.634   1
   2  10   3 18902.9 1504.48   1
  -2 -10  -3 16464.8 1528.15   1
  -2 -10  -4 1917.53 532.987   1
   2  10   4 2382.30 572.362   1
   2  10   5 39477.6 2371.28   1
  -2 -10  -5 43368.8 2671.08   1
   2  10   6 5391.49 912.885   1
  -2 -11   5 11479.0 906.627   1
  -2 -11   4 40884.5 1777.11   1
   2  11  -3 3020.61 483.068   1
  -2 -11   3 2895.72 456.240   1
  -2 -11   2 21468.0 1373.36   1
   2  11  -2 19232.6 1194.73   1
   2  11  -1 726.644 351.011   1
  -2 -11   1 198.887 197.788   1
   2  11   0 3102.55 555.222   1
  -2 -11   0 1931.14 433.156   1
   2  11   1 9870.70 980.289   1
  -2 -11  -1 9450.74 1034.29   1
  -2 -11  -2 795.576 258.671   1
   2  11   2 1564.94 377.281   1
   2  11   3 21746.7 1588.62   1
  -2 -11  -3 17450.4 1600.04   1
   2  11   4 48728.2 2487.53   1
  -2 -11  -4 45733.8 2771.71   1
   2  11   5 11017.7 1248.20   1
  -2 -12   3 4510.37 635.700   1
  -2 -12   2 60.4333 155.545   1
  -2 -12   1 21580.9 1577.00   1
   2  12  -1 21517.9 1460.20   1
  -2 -12   0 30260.0 1936.51   1
   2  12   0 33542.5 1899.50   1
   2  12   1 16877.3 1406.85   1
  -2 -12  -1 15855.4 1375.62   1
  -2 -12  -2 427.102 176.951   1
   2  12   2 676.478 343.482   1
  -2 -12  -3 7169.08 1064.56   1
   2  12   3 9287.68 1153.47   1
   2  12   4-28.2456 144.356   1
  -2 -13   1 4985.36 818.902   1
  -2 -13   0-215.972 176.187   1
  -2 -13  -1 6199.89 900.943   1
   2  13   1 5488.82 831.152   1
   2  13   2 9819.20 1204.48   1
  -2 -14   0 1918.73 438.118   1
   3   0   7-412.747 288.525   1
   3   0   8 2162.77 515.827   1
   3   0   9 0.56807 47.1725   1
  -3   0  -9 51.8516 58.7483   1
   3   0  10 62.6662 175.519   1
  -3   0 -10 205.076 169.550   1
   3   0  11-100.021 54.6436   1
  -3   0 -11-73.0598 131.309   1
   3   0  12 3523.20 670.207   1
  -3   0 -12 3772.03 667.832   1
  -3   0 -13-237.786 170.308   1
   3   0  13-134.068 212.935   1
  -3   0 -14 50315.6 2486.51   1
   3   0  14 46269.9 2667.48   1
   3   0  15-133.195 93.2839   1
  -3   0 -15 273.568 245.188   1
   3   0  16 4552.85 819.468   1
  -3  -1  -6 72909.5 2627.24   1
   3   1   6 77060.6 2884.69   1
   3   1   7 18692.1 1401.87   1
  -3  -1  -7 19488.4 1311.06   1
  -3  -1  -8 19408.0 1473.79   1
   3   1   8 24910.7 1871.37   1
   3   1   9 2371.36 528.708   1
  -3  -1  -9 2358.65 486.082   1
   3  -1   9 2755.93 528.931   1
  -3  -1 -10 131756. 3827.14   1
   3  -1  10 135984. 3697.66   1
   3   1  10 136433. 4002.59   1
   3   1  11 4237.05 742.673   1
   3  -1  11 5811.26 749.434   1
  -3  -1 -11 4291.55 676.637   1
   3  -1  12 5794.45 766.188   1
  -3   1 -12 5966.68 797.727   1
   3   1  12 6210.15 989.763   1
  -3  -1 -12 5862.10 859.280   1
  -3   1 -13 5518.88 791.556   1
   3  -1  13 5559.04 827.337   1
  -3  -1 -13 4935.41 827.247   1
   3   1  13 5300.56 870.352   1
  -3   1 -14 14025.5 1254.64   1
  -3  -1 -14 15030.8 1455.20   1
   3  -1  14 13736.2 1381.54   1
   3   1  14 12879.0 1496.76   1
   3  -1  15 7197.57 1016.10   1
  -3   1 -15 7648.41 947.257   1
   3   1  15 4814.97 1025.19   1
   3  -1  16 3851.71 739.410   1
  -3   1 -16 3146.65 657.228   1
   3  -1  17 2786.67 700.858   1
   3   2   4 13311.3 1200.26   1
  -3  -2  -5 104450. 3021.56   1
   3   2   5 103616. 3211.00   1
  -3  -2  -6 9037.29 924.204   1
   3   2   6 8799.41 973.808   1
  -3  -2  -7 16396.5 1279.83   1
   3   2   7 16986.5 1406.43   1
  -3  -2  -8 39646.4 2074.07   1
   3   2   8 41236.6 2207.11   1
   3   2   9 1490.07 391.252   1
  -3  -2  -9 1250.02 376.383   1
   3  -2   9 1108.44 150.547   1
   3   2  10 2329.40 548.663   1
  -3  -2 -10 2708.84 589.831   1
   3  -2  10 2067.41 409.992   1
  -3  -2 -11 52438.6 2710.50   1
   3  -2  11 48798.5 2237.61   1
   3   2  11 53371.6 2868.21   1
   3  -2  12 40662.2 1989.83   1
  -3  -2 -12 37416.1 2380.68   1
   3   2  12 36290.9 2390.75   1
   3   2  13 2421.90 582.340   1
   3  -2  13 2781.37 556.567   1
  -3  -2 -13 2532.78 739.429   1
   3  -2  14 3162.36 626.299   1
   3   2  14 35340.8 5205.47   1
   3  -2  15 2035.69 503.821   1
   3  -2  16 2109.77 599.928   1
   3  -2  17 79.7378 181.706   1
  -3  -3  -3 78186.5 2559.62   1
   3   3   3 75976.2 2636.97   1
   3   3   4 294377. 5240.72   1
  -3  -3  -4 287671. 4992.14   1
  -3  -3  -5 23747.7 1507.49   1
   3   3   5 22371.4 1558.26   1
  -3  -3  -6 24810.2 1606.49   1
   3   3   6 25794.1 1803.47   1
   3   3   7 981.287 406.202   1
  -3  -3  -7 700.322 297.038   1
  -3  -3  -8 49179.9 2616.20   1
   3   3   8 46464.3 2467.32   1
   3   3   9 573.005 234.743   1
  -3  -3  -9 351.706 222.817   1
  -3  -3 -10 42649.3 2507.07   1
   3  -3  10 47231.5 1981.66   1
   3   3  10 48146.1 2818.24   1
   3  -3  11 54.9816 108.825   1
   3   3  11 26.2011 73.7173   1
  -3  -3 -12 14995.3 1575.32   1
   3  -3  12 16131.6 1261.87   1
   3   3  12 15014.4 1633.49   1
   3   3  13 637.146 451.107   1
   3  -3  13 422.909 177.323   1
   3  -3  14 1135.56 288.033   1
   3  -3  15 4590.39 834.254   1
   3  -3  16 88309.1 3888.10   1
   3   4   1 15273.9 1095.90   1
   3   4   2 22567.0 1385.46   1
  -3  -4  -2 22910.3 1393.14   1
  -3  -4  -3 191.266 166.894   1
   3   4   3 5.59492 156.189   1
  -3  -4  -4 5353.50 727.508   1
   3   4   4 6327.28 820.704   1
  -3  -4  -5 10607.2 1081.45   1
   3   4   5 10887.5 1128.42   1
  -3  -4  -6 10228.5 1169.50   1
   3   4   6 12350.8 1258.00   1
   3   4   7 1979.87 492.527   1
  -3  -4  -7 1637.97 445.794   1
  -3  -4  -8 46634.8 2603.33   1
   3   4   8 54003.2 2900.67   1
  -3  -4  -9 44710.7 2531.81   1
   3   4   9 46137.3 2817.68   1
  -3  -4 -10 196.815 39.6093   1
   3   4  10 1315.42 500.179   1
   3   4  11 3636.92 801.817   1
  -3  -4 -11 4303.00 833.189   1
   3  -4  11 3807.66 571.427   1
   3  -4  12 57999.9 2359.20   1
   3   4  12 49616.9 3108.38   1
   3  -4  13 2743.90 525.784   1
   3  -4  14 496.515 236.378   1
   3  -4  15 957.931 338.054   1
   3   5  -1 26918.5 1353.25   1
   3   5   0 9729.82 845.121   1
  -3  -5  -1 153329. 3381.47   1
   3   5   1 149489. 3528.77   1
   3   5   2 1574.93 384.134   1
  -3  -5  -2 1460.99 356.138   1
   3   5   3 793.223 266.163   1
  -3  -5  -3 901.968 263.181   1
  -3  -5  -4 30751.5 1883.42   1
   3   5   4 32384.7 1882.46   1
   3   5   5 4500.79 815.529   1
  -3  -5  -5 53075.9 3022.25   1
  -3  -5  -6 13768.5 1297.78   1
   3   5   6 13815.9 1407.49   1
   3   5   7 1112.31 415.404   1
  -3  -5  -7 1367.39 414.343   1
  -3  -5  -8 28189.8 1998.36   1
   3   5   8 28452.4 2212.67   1
  -3  -5  -9 33960.7 2245.96   1
   3   5   9 32930.6 2483.38   1
   3   5  10 265.407 102.063   1
  -3  -5 -10 344.340 263.791   1
   3   5  11 27069.3 2320.45   1
   3  -5  12 5823.67 697.456   1
   3  -5  13 11263.7 1102.53   1
   3  -5  14 131.717 25.6100   1
   3   6  -4 24217.8 1210.73   1
   3   6  -3 9672.45 778.234   1
   3   6  -2 1471.76 318.080   1
   3   6  -1 20347.6 1282.97   1
   3   6   0 452.910 185.978   1
  -3  -6   0 252.664 117.094   1
  -3  -6  -1 14211.2 1066.92   1
   3   6   1 13803.1 1139.56   1
  -3  -6  -2 38648.0 1905.21   1
   3   6   2 39415.1 1938.33   1
  -3  -6  -3 14798.4 1290.92   1
   3   6   3 16377.7 1331.30   1
   3   6   4 2601.22 551.984   1
  -3  -6  -4 2493.57 514.717   1
  -3  -6  -5 84008.9 3260.92   1
   3   6   5 87050.4 3499.33   1
  -3  -6  -6 89139.3 3471.79   1
   3   6   6 98725.5 3964.26   1
  -3  -6  -7 41828.1 2420.76   1
   3   6   7 44604.0 2801.78   1
  -3  -6  -8 2347.07 599.825   1
   3   6   8 2148.77 586.682   1
  -3  -6  -9 19833.1 1812.61   1
   3   6   9 19887.6 2011.79   1
   3   6  10 323.661 54.4538   1
   3  -6  13 13239.5 1264.94   1
   3   7  -7 1911.23 380.714   1
   3   7  -6 4244.93 519.122   1
   3   7  -5 14571.4 958.216   1
   3   7  -4 28071.3 1344.07   1
   3   7  -3 8463.21 772.155   1
   3   7  -2 54028.1 2006.50   1
  -3  -7   1 71731.1 2218.71   1
   3   7  -1 75930.5 2417.80   1
  -3  -7   0 31753.9 1574.10   1
   3   7   0 31593.9 1654.65   1
  -3  -7  -1 19760.0 1342.14   1
   3   7   1 20002.4 1380.51   1
  -3  -7  -2 31025.8 1852.68   1
   3   7   2 31367.4 1850.50   1
   3   7   3-27.2639 89.8632   1
  -3  -7  -3-142.514 210.966   1
  -3  -7  -4 49592.7 2506.94   1
   3   7   4 49607.6 2605.15   1
  -3  -7  -5 67.3429 84.4217   1
   3   7   5 281.448 263.977   1
  -3  -7  -6 26498.1 1921.58   1
   3   7   6 24859.7 2059.66   1
  -3  -7  -7 44120.3 2626.16   1
   3   7   7 42517.0 2789.14   1
   3   7   8 1558.96 501.784   1
  -3  -7  -8 1626.14 485.528   1
   3   7   9 9296.46 1271.00   1
   3   8  -7 14907.6 877.045   1
   3   8  -6 60996.3 1818.62   1
   3   8  -5 24405.9 1206.27   1
   3   8  -4 584.874 167.027   1
   3   8  -3-61.8073 65.1697   1
   3   8  -2 16377.8 1193.27   1
  -3  -8   1 103606. 2777.94   1
   3   8  -1 106009. 3155.20   1
  -3  -8   0 9884.21 926.685   1
   3   8   0 10250.4 1048.73   1
  -3  -8  -1 51658.4 2318.37   1
   3   8   1 54656.9 2484.96   1
  -3  -8  -2 16311.7 1389.23   1
   3   8   2 19097.8 1528.69   1
  -3  -8  -3 50445.8 2555.48   1
   3   8   3 48534.8 2608.25   1
  -3  -8  -4 32340.2 2135.71   1
   3   8   4 30290.1 2140.87   1
   3   8   5 181.944 237.501   1
  -3  -8  -5 27.9707 74.8344   1
   3   8   6 7838.97 1104.64   1
  -3  -8  -6 7966.80 1103.14   1
   3   8   7-105.000 250.169   1
  -3  -8  -7-326.056 309.256   1
   3   9  -5 36546.5 1650.68   1
   3   9  -4 3844.89 574.250   1
   3   9  -3 12688.4 1225.48   1
  -3  -9   2 2530.26 404.451   1
   3   9  -2 2705.90 525.189   1
  -3  -9   1 1114.88 296.954   1
   3   9  -1 1298.94 362.234   1
  -3  -9   0 16236.2 1227.06   1
   3   9   0 18847.5 1469.50   1
   3   9   1 4179.09 738.858   1
  -3  -9  -1 3866.14 637.027   1
   3   9   2 191.918 93.1236   1
  -3  -9  -2 145.999 59.0839   1
  -3  -9  -3 47400.1 2529.22   1
   3   9   3 45369.5 2481.48   1
   3   9   4 814.360 273.191   1
  -3  -9  -4 630.200 251.714   1
   3   9   5 29500.5 2138.36   1
  -3  -9  -5 30543.6 2164.05   1
   3   9   6 24199.0 1979.09   1
   3  10  -4 22163.8 1287.15   1
  -3 -10   3 44132.9 1895.39   1
   3  10  -3 46530.4 1991.56   1
   3  10  -2 984.262 210.000   1
  -3 -10   2 1250.27 309.313   1
  -3 -10   1 46206.3 2078.03   1
   3  10  -1 52621.8 2322.65   1
   3  10   0 31182.6 1851.61   1
  -3 -10   0 27638.9 1716.84   1
   3  10   1 16866.9 1408.08   1
  -3 -10  -1 14332.0 1313.27   1
   3  10   2 3817.23 710.145   1
  -3 -10  -2 3795.21 719.129   1
   3  10   3 643.677 350.649   1
  -3 -10  -3 113.876 79.7727   1
   3  10   4 1831.65 544.930   1
  -3 -10  -4 1906.87 513.943   1
   3  10   5 1193.98 673.893   1
  -3 -11   3 4631.26 623.124   1
   3  11  -2 60155.8 2520.79   1
  -3 -11   2 56345.3 2289.43   1
  -3 -11   1-114.922 136.942   1
   3  11  -1 18.6330 122.011   1
  -3 -11   0 654.267 274.693   1
   3  11   0 264.869 111.008   1
   3  11   1 11024.4 1222.33   1
  -3 -11  -1 9509.97 1108.60   1
   3  11   2 9521.32 1154.41   1
  -3 -11  -2 9096.39 1123.51   1
  -3 -11  -3-10.9851 154.929   1
   3  11   3 170.688 110.070   1
   3  11   4 12312.2 1425.50   1
  -3 -12   3 14715.5 1263.61   1
  -3 -12   2 2081.08 476.712   1
   3  12  -1 1601.46 400.075   1
  -3 -12   1 9010.98 1007.40   1
   3  12   0-127.686 155.536   1
  -3 -12   0 270.623 248.259   1
   3  12   1 16906.5 1479.97   1
  -3 -12  -1 15422.7 1454.47   1
   3  12   2-117.868 107.889   1
  -3 -12  -2-126.624 111.580   1
   3  12   3 2356.22 547.850   1
  -3 -13   1 10109.8 1145.61   1
  -3 -13   0 4483.31 801.267   1
   3  13   1 1930.55 494.536   1
   4   0  10 17087.6 1615.07   1
   4   0  11 1321.04 503.336   1
   4   0  12 41752.8 2438.93   1
   4   0  13-245.598 204.498   1
   4   0  14 762.860 394.672   1
   4   1   9 15982.6 1599.74   1
   4   1  10 47504.8 3072.35   1
  -4  -1 -11 20223.0 1679.32   1
   4   1  11 19947.2 1740.99   1
   4  -1  12-181.031 186.542   1
   4   1  12-98.4339 121.850   1
  -4  -1 -12 59.5165 104.115   1
   4  -1  13 3274.44 709.043   1
   4   1  13 3467.02 1167.50   1
   4  -1  14-74.1454 62.8072   1
   4  -1  15 6611.79 1042.36   1
   4   2   8 31872.3 2327.77   1
   4   2   9 4752.33 978.260   1
  -4  -2  -9 1026.89 400.785   1
   4   2  10 569.604 247.738   1
  -4  -2 -10 684.267 318.627   1
  -4  -2 -11 17638.6 1582.99   1
   4   2  11 19896.8 1757.71   1
   4   2  12 1466.44 504.697   1
   4  -2  13 32384.7 2090.33   1
   4  -2  14 9320.12 1107.96   1
   4  -2  15 2424.42 637.488   1
   4  -2  16 2088.57 553.737   1
   4   3   6 1151.97 424.878   1
   4   3   7 822.283 357.588   1
  -4  -3  -7 601.106 277.666   1
   4   3   8 109.212 292.689   1
  -4  -3  -8 145.105 151.064   1
   4   3   9 5632.77 921.211   1
  -4  -3  -9 4892.91 808.405   1
  -4  -3 -10 60725.8 2957.30   1
   4   3  10 63769.4 3233.71   1
   4   3  11 22676.9 1993.67   1
   4  -3  14 11715.3 1232.92   1
   4  -3  15 149.238 76.6941   1
   4  -3  16 406.360 246.204   1
  -4  -4  -5 68.0658 84.0387   1
   4   4   5-67.4174 126.271   1
  -4  -4  -6 191743. 4967.10   1
   4   4   6 197153. 5305.55   1
  -4  -4  -7 13204.5 1333.93   1
   4   4   7 12033.5 1445.83   1
   4   4   8 5657.19 962.832   1
  -4  -4  -8 4485.64 807.366   1
  -4  -4  -9 45468.5 2641.85   1
   4   4   9 48517.7 2856.88   1
   4   4  10 3379.12 819.345   1
   4  -4  15-188.634 98.8174   1
   4   5   3 28128.1 1818.28   1
  -4  -5  -4 12870.2 1250.69   1
   4   5   4 12443.5 1276.83   1
  -4  -5  -5 24805.2 1816.96   1
   4   5   5 27922.5 1971.27   1
  -4  -5  -6 7580.40 1040.62   1
   4   5   6 8147.08 1108.10   1
   4   5   7 6237.78 968.164   1
  -4  -5  -7 5720.58 932.052   1
   4   5   8 685.942 322.677   1
  -4  -5  -8 314.061 121.769   1
   4   5   9 13394.7 1674.39   1
   4   6   1 64292.9 2489.89   1
   4   6   2 491.168 230.844   1
  -4  -6  -3 11263.2 1161.75   1
   4   6   3 11950.1 1234.39   1
   4   6   4 84.2579 96.2745   1
  -4  -6  -4 44.5525 115.252   1
   4   6   5 3482.46 1747.60   1
  -4  -6  -5 790.221 359.841   1
  -4  -6  -6 7608.44 1100.42   1
   4   6   6 7292.11 1051.53   1
  -4  -6  -7 26666.5 2160.27   1
   4   6   7 29771.3 2314.06   1
   4   6   8 1560.35 579.372   1
   4   7  -2 17098.1 1236.54   1
   4   7  -1 17534.1 1312.62   1
   4   7   0 9109.18 970.105   1
   4   7   1 11117.2 1145.87   1
  -4  -7  -2 24756.6 1637.51   1
   4   7   2 22909.8 1637.38   1
  -4  -7  -3 35925.2 2046.14   1
   4   7   3 37036.3 2106.95   1
  -4  -7  -4 67356.4 3027.13   1
   4   7   4 67482.7 3046.02   1
   4   7   5 1710.60 495.818   1
  -4  -7  -5 1432.92 422.182   1
   4   7   6 1472.28 535.586   1
  -4  -7  -6 1241.02 469.635   1
   4   7   7 11915.3 1562.10   1
   4   8  -5 17613.4 1530.52   1
   4   8  -4 38136.1 2005.95   1
   4   8  -3 6890.72 827.238   1
   4   8  -2 7219.28 896.187   1
   4   8  -1 1260.80 390.572   1
   4   8   0 12428.4 1158.70   1
  -4  -8  -1 15218.6 1278.52   1
   4   8   1 16324.4 1377.32   1
  -4  -8  -2 12813.0 1234.15   1
   4   8   2 13979.5 1332.18   1
  -4  -8  -3 48323.8 2503.46   1
   4   8   3 49172.2 2670.41   1
   4   8   4 2096.78 750.885   1
  -4  -8  -4 1322.55 565.189   1
  -4  -8  -5 57763.4 3062.39   1
   4   8   5 59162.5 3301.10   1
   4   8   6 21368.5 2037.75   1
   4   9  -5 209.496 201.894   1
   4   9  -4 16928.2 1334.79   1
   4   9  -3 67465.6 2643.17   1
   4   9  -2 2627.69 503.073   1
   4   9  -1 28201.9 1783.89   1
  -4  -9   0 664.448 246.207   1
   4   9   0 1322.75 421.630   1
  -4  -9  -1 19892.7 1492.45   1
   4   9   1 22214.5 1738.04   1
  -4  -9  -2 6550.23 877.157   1
   4   9   2 5823.49 941.710   1
  -4  -9  -3 2685.71 616.652   1
   4   9   3 2877.54 707.522   1
  -4  -9  -4 69.7675 78.9125   1
   4   9   4 411.541 322.885   1
   4   9   5-264.473 80.7603   1
   4  10  -3 15519.4 1389.08   1
   4  10  -2 243.958 193.711   1
   4  10  -1 549.512 248.593   1
  -4 -10   0 33996.3 1908.11   1
   4  10   0 36081.8 2270.07   1
  -4 -10  -1 8651.84 989.957   1
   4  10   1 8570.53 1157.36   1
  -4 -10  -2 8202.77 1001.00   1
   4  10   2 3876.46 488.138   1
   4  10   3 782.762 345.673   1
  -4 -10  -3 1144.46 499.244   1
   4  10   4 1496.15 542.986   1
   4  11  -2 3237.53 672.042   1
   4  11  -1 746.595 376.508   1
  -4 -11   1 812.836 323.836   1
   4  11   0 381.723 294.646   1
  -4 -11   0-4.65098 93.5518   1
   4  11   1 3392.87 747.560   1
  -4 -11  -1 3361.37 668.909   1
   4  11   2 22882.4 1933.50   1
  -4 -12   1 23066.2 1732.68   1
   4  12   0 1858.75 511.139   1
  -4 -12   0 1415.56 363.430   1
   4  12   1 13987.5 1463.00   1
   5   5   7 11045.7 1698.56   1
   5   6   5 45675.7 2710.80   1
   5   6   6 4546.37 880.179   1
   5   7   3 6014.13 947.585   1
   5   7   4 7972.17 1114.51   1
   5   7   5 2269.44 651.702   1
   5   8   1 4902.13 928.456   1
   5   8   2 1145.83 362.275   1
   5   8   3 1317.81 463.529   1
   5   8   4 1036.10 435.212   1
   5   9  -2 5651.28 1084.98   1
   5   9  -1 6717.53 979.365   1
   5   9   0 1977.71 567.988   1
   5   9   1 992.031 462.676   1
   5   9   2-29.3657 130.986   1
   5   9   3 46914.5 2744.95   1
   5  10  -3 4615.81 1001.94   1
   5  10  -2 14269.0 1592.05   1
   5  10  -1 9683.41 1218.46   1
   5  10   0 4102.94 830.922   1
   5  10   1 6106.07 1000.48   1
   5  10   2 7832.70 1201.10   1
   5  11  -1 14702.9 1703.87   1
   5  11   0 492.882 302.034   1
   0   0   0    0.00    0.00   0
TITL Cr2_p02_w in P2(1)/c
REM P2(1)/c (#14 in standard setting)
CELL 0.29840   4.579102   7.298617   9.381440  90.0000  91.1944  90.0000
ZERR    2.00   0.002888   0.001233   0.001458   0.0000   0.0335   0.0000
LATT  1
SYMM -x, y+1/2,-z+1/2
SFAC C H N O
UNIT 22.00 20.00 2.00 2.00
TREF
HKLF 4
END
;
_shelx_hkl_checksum              1376
loop_
_space_group_symop_operation_xyz
'x, y, z'
'-x, y+1/2, -z+1/2'
'-x, -y, -z'
'x, -y-1/2, z-1/2'
loop_
_atom_site_label
_atom_site_type_symbol
_atom_site_fract_x
_atom_site_fract_y
_atom_site_fract_z
_atom_site_U_iso_or_equiv
_atom_site_adp_type
_atom_site_occupancy
_atom_site_site_symmetry_order
_atom_site_calc_flag
_atom_site_refinement_flags_posn
Ca1 Ca 0.00472(19) 0.60989(6) 0.16920(5) 0.0096(3) Uani 1 1 d .
Si1 Si 0.4837(3) 0.27810(9) 0.08139(8) 0.0080(4) Uani 1 1 d .
B1 B 0.5806(11) 0.0840(3) -0.1550(3) 0.0097(10) Uani 1 1 d .
O1 O 0.2496(7) 0.4200(3) 0.0314(2) 0.0107(8) Uani 1 1 d .
O2 O 0.6999(8) 0.1940(2) -0.0376(2) 0.0081(7) Uani 1 1 d .
O3 O 0.6974(7) 0.3404(3) 0.2135(2) 0.0111(8) Uani 1 1 d .
O4 O 0.3045(8) 0.1002(2) 0.1413(2) 0.0106(8) Uani 1 1 d .
O5 O 0.2612(7) 0.0899(3) -0.1617(2) 0.0105(8) Uani 1 1 d D
H H 0.195(13) 0.044(5) -0.083(3) 0.009(11) Uiso 1 1 d D
loop_
_atom_site_aniso_label
_atom_site_aniso_U_11
_atom_site_aniso_U_22
_atom_site_aniso_U_33
_atom_site_aniso_U_23
_atom_site_aniso_U_13
_atom_site_aniso_U_12
Ca1 0.0111(8) 0.0093(3) 0.0085(3) 0.00007(13) 0.0015(4) -0.00018(16)
Si1 0.0087(10) 0.0081(3) 0.0071(3) -0.0005(2) 0.0011(5) 0.0003(2)
B1 0.012(3) 0.0087(9) 0.0081(9) -0.0011(9) 0.0012(16) 0.0009(10)
O1 0.011(2) 0.0105(7) 0.0103(7) -0.0010(6) -0.0001(11) 0.0030(7)
O2 0.009(2) 0.0094(6) 0.0063(7) -0.0009(5) 0.0041(11) 0.0001(6)
O3 0.014(3) 0.0107(7) 0.0082(7) 0.0001(6) -0.0034(11) -0.0005(6)
O4 0.013(3) 0.0083(7) 0.0101(7) 0.0006(6) 0.0027(12) 0.0005(6)
O5 0.011(3) 0.0116(7) 0.0091(7) 0.0004(7) 0.0006(11) -0.0002(7)
loop_
_atom_type_symbol
_atom_type_description
_atom_type_scat_dispersion_real
_atom_type_scat_dispersion_imag
_atom_type_scat_source
O O 0.0056 0.0036 'International Tables Vol C Tables 4.2.6.8 and 6.1.1.4'
Si Si 0.0522 0.0431 'International Tables Vol C Tables 4.2.6.8 and 6.1.1.4'
B B 0.0004 0.0004 'International Tables Vol C Tables 4.2.6.8 and 6.1.1.4'
Ca Ca 0.1611 0.1926 'International Tables Vol C Tables 4.2.6.8 and 6.1.1.4'
H H 0.0000 0.0000 'International Tables Vol C Tables 4.2.6.8 and 6.1.1.4'
loop_
_geom_angle_atom_site_label_1
_geom_angle_atom_site_label_2
_geom_angle_atom_site_label_3
_geom_angle
_geom_angle_site_symmetry_1
_geom_angle_site_symmetry_3
O1 Ca1 O1 72.83(12) 3_565 .
O1 Ca1 O4 109.56(12) 3_565 2
O1 Ca1 O4 139.46(8) . 2
O1 Ca1 O2 84.88(10) 3_565 3_665
O1 Ca1 O2 76.69(11) . 3_665
O4 Ca1 O2 143.12(7) 2 3_665
O1 Ca1 O3 137.83(8) 3_565 2_655
O1 Ca1 O3 114.42(11) . 2_655
O4 Ca1 O3 91.15(9) 2 2_655
O2 Ca1 O3 59.15(7) 3_665 2_655
O1 Ca1 O5 137.35(7) 3_565 4_566
O1 Ca1 O5 76.26(8) . 4_566
O4 Ca1 O5 76.96(10) 2 4_566
O2 Ca1 O5 115.68(11) 3_665 4_566
O3 Ca1 O5 81.98(7) 2_655 4_566
O1 Ca1 O3 76.77(8) 3_565 1_455
O1 Ca1 O3 84.06(10) . 1_455
O4 Ca1 O3 58.70(8) 2 1_455
O2 Ca1 O3 156.62(7) 3_665 1_455
O3 Ca1 O3 143.09(4) 2_655 1_455
O5 Ca1 O3 71.41(9) 4_566 1_455
O1 Ca1 O5 79.32(7) 3_565 3_565
O1 Ca1 O5 141.43(8) . 3_565
O4 Ca1 O5 75.03(9) 2 3_565
O2 Ca1 O5 74.71(10) 3_665 3_565
O3 Ca1 O5 70.95(9) 2_655 3_565
O5 Ca1 O5 140.18(5) 4_566 3_565
O3 Ca1 O5 115.12(11) 1_455 3_565
O1 Ca1 B1 111.53(9) 3_565 3_665
O1 Ca1 B1 96.54(12) . 3_665
O4 Ca1 B1 117.91(9) 2 3_665
O2 Ca1 B1 29.43(7) 3_665 3_665
O3 Ca1 B1 29.74(8) 2_655 3_665
O5 Ca1 B1 100.46(10) 4_566 3_665
O3 Ca1 B1 171.51(7) 1_455 3_665
O5 Ca1 B1 69.39(11) 3_565 3_665
O1 Ca1 B1 95.06(11) 3_565 4_466
O1 Ca1 B1 112.01(9) . 4_466
O4 Ca1 B1 28.96(7) 2 4_466
O2 Ca1 B1 170.92(10) 3_665 4_466
O3 Ca1 B1 116.95(9) 2_655 4_466
O5 Ca1 B1 70.22(11) 4_566 4_466
O3 Ca1 B1 29.81(8) 1_455 4_466
O5 Ca1 B1 96.34(11) 3_565 4_466
B1 Ca1 B1 145.86(7) 3_665 4_466
O1 Ca1 Si1 23.27(6) 3_565 3_565
O1 Ca1 Si1 94.75(6) . 3_565
O4 Ca1 Si1 97.98(9) 2 3_565
O2 Ca1 Si1 82.16(7) 3_665 3_565
O3 Ca1 Si1 121.17(5) 2_655 3_565
O5 Ca1 Si1 156.65(6) 4_566 3_565
O3 Ca1 Si1 86.39(6) 1_455 3_565
O5 Ca1 Si1 56.23(5) 3_565 3_565
B1 Ca1 Si1 101.97(7) 3_665 3_565
B1 Ca1 Si1 94.19(8) 4_466 3_565
O1 Ca1 Si1 93.16(8) 3_565 .
O1 Ca1 Si1 21.71(5) . .
O4 Ca1 Si1 125.46(6) 2 .
O2 Ca1 Si1 85.67(8) 3_665 .
O3 Ca1 Si1 104.29(8) 2_655 .
O5 Ca1 Si1 54.83(7) 4_566 .
O3 Ca1 Si1 81.06(8) 1_455 .
O5 Ca1 Si1 159.46(8) 3_565 .
B1 Ca1 Si1 96.35(9) 3_665 .
B1 Ca1 Si1 103.39(8) 4_466 .
Si1 Ca1 Si1 115.82(3) 3_565 .
O1 Si1 O2 118.01(13) . .
O1 Si1 O3 116.29(12) . .
O2 Si1 O3 105.23(16) . .
O1 Si1 O4 106.47(17) . .
O2 Si1 O4 104.62(13) . .
O3 Si1 O4 104.89(11) . .
O1 Si1 Ca1 34.04(8) . 3_565
O2 Si1 Ca1 91.02(9) . 3_565
O3 Si1 Ca1 149.03(8) . 3_565
O4 Si1 Ca1 95.93(10) . 3_565
O1 Si1 Ca1 31.80(9) . .
O2 Si1 Ca1 147.59(7) . .
O3 Si1 Ca1 89.84(10) . .
O4 Si1 Ca1 98.72(13) . .
Ca1 Si1 Ca1 64.18(3) 3_565 .
O1 Si1 Ca1 96.33(13) . 3_665
O2 Si1 Ca1 35.99(8) . 3_665
O3 Si1 Ca1 92.67(12) . 3_665
O4 Si1 Ca1 140.53(11) . 3_665
Ca1 Si1 Ca1 85.18(4) 3_565 3_665
Ca1 Si1 Ca1 116.70(4) . 3_665
O1 Si1 Ca1 94.17(10) . 1_655
O2 Si1 Ca1 90.04(11) . 1_655
O3 Si1 Ca1 39.51(9) . 1_655
O4 Si1 Ca1 144.39(8) . 1_655
Ca1 Si1 Ca1 116.41(3) 3_565 1_655
Ca1 Si1 Ca1 83.63(4) . 1_655
Ca1 Si1 Ca1 61.68(3) 3_665 1_655
O1 Si1 Ca1 89.37(14) . 2_545
O2 Si1 Ca1 137.23(8) . 2_545
O3 Si1 Ca1 88.36(11) . 2_545
O4 Si1 Ca1 32.96(10) . 2_545
Ca1 Si1 Ca1 97.46(5) 3_565 2_545
Ca1 Si1 Ca1 70.17(4) . 2_545
Ca1 Si1 Ca1 173.03(3) 3_665 2_545
Ca1 Si1 Ca1 122.03(3) 1_655 2_545
O1 Si1 Ca1 151.96(8) . 2_645
O2 Si1 Ca1 85.29(9) . 2_645
O3 Si1 Ca1 37.38(8) . 2_645
O4 Si1 Ca1 79.98(10) . 2_645
Ca1 Si1 Ca1 173.58(2) 3_565 2_645
Ca1 Si1 Ca1 121.14(3) . 2_645
Ca1 Si1 Ca1 94.82(5) 3_665 2_645
Ca1 Si1 Ca1 68.92(3) 1_655 2_645
Ca1 Si1 Ca1 81.83(4) 2_545 2_645
O4 B1 O2 108.3(2) 3_655 .
O4 B1 O3 106.6(3) 3_655 4_565
O2 B1 O3 106.9(3) . 4_565
O4 B1 O5 113.1(3) 3_655 .
O2 B1 O5 112.0(3) . .
O3 B1 O5 109.6(2) 4_565 .
O4 B1 Ca1 118.4(3) 3_655 3_665
O2 B1 Ca1 51.94(17) . 3_665
O3 B1 Ca1 55.02(14) 4_565 3_665
O5 B1 Ca1 128.46(16) . 3_665
O4 B1 Ca1 50.2(2) 3_655 4_665
O2 B1 Ca1 116.6(3) . 4_665
O3 B1 Ca1 56.68(17) 4_565 4_665
O5 B1 Ca1 131.44(17) . 4_665
Ca1 B1 Ca1 84.57(13) 3_665 4_665
Si1 O1 Ca1 122.69(12) . 3_565
Si1 O1 Ca1 126.49(12) . .
Ca1 O1 Ca1 107.17(12) 3_565 .
B1 O2 Si1 120.1(3) . .
B1 O2 Ca1 98.6(2) . 3_665
Si1 O2 Ca1 119.87(10) . 3_665
B1 O3 Si1 121.5(3) 4_566 .
B1 O3 Ca1 95.23(15) 4_566 2_645
Si1 O3 Ca1 118.49(10) . 2_645
B1 O3 Ca1 93.51(17) 4_566 1_655
Si1 O3 Ca1 115.59(11) . 1_655
Ca1 O3 Ca1 108.31(11) 2_645 1_655
B1 O4 Si1 125.5(3) 3_655 .
B1 O4 Ca1 100.9(2) 3_655 2_545
Si1 O4 Ca1 124.16(12) . 2_545
B1 O5 Ca1 118.55(18) . 4_565
B1 O5 Ca1 120.77(15) . 3_565
Ca1 O5 Ca1 106.11(10) 4_565 3_565
B1 O5 H 108(4) . .
Ca1 O5 H 98(3) 4_565 .
Ca1 O5 H 101(3) 3_565 .
loop_
_geom_bond_atom_site_label_1
_geom_bond_atom_site_label_2
_geom_bond_distance
_geom_bond_site_symmetry_2
Ca1 O1 2.204(2) 3_565
Ca1 O1 2.216(3) .
Ca1 O4 2.297(4) 2
Ca1 O2 2.339(3) 3_665
Ca1 O3 2.417(2) 2_655
Ca1 O5 2.438(2) 4_566
Ca1 O3 2.459(3) 1_455
Ca1 O5 2.507(2) 3_565
Ca1 B1 2.937(4) 3_665
Ca1 B1 2.937(4) 4_466
Ca1 Si1 3.3132(16) 3_565
Ca1 Si1 3.3806(16) .
Si1 O1 1.555(3) .
Si1 O2 1.628(3) .
Si1 O3 1.628(2) .
Si1 O4 1.641(3) .
Si1 Ca1 3.3132(17) 3_565
Si1 Ca1 3.452(2) 3_665
Si1 Ca1 3.4862(16) 1_655
Si1 Ca1 3.4931(19) 2_545
Si1 Ca1 3.4988(17) 2_645
B1 O4 1.448(4) 3_655
B1 O2 1.460(3) .
B1 O3 1.463(4) 4_565
B1 O5 1.463(6) .
B1 Ca1 2.937(4) 3_665
B1 Ca1 2.937(4) 4_665
O1 Ca1 2.204(2) 3_565
O2 Ca1 2.339(3) 3_665
O3 B1 1.463(4) 4_566
O3 Ca1 2.417(2) 2_645
O3 Ca1 2.459(3) 1_655
O4 B1 1.448(4) 3_655
O4 Ca1 2.297(4) 2_545
O5 Ca1 2.438(2) 4_565
O5 Ca1 2.507(2) 3_565
O5 H 0.87(2) .
