#------------------------------------------------------------------------------
#$Date: 2019-11-24 06:02:49 +0200 (Sun, 24 Nov 2019) $
#$Revision: 236893 $
#$URL: file:///home/coder/svn-repositories/cod/cif/4/34/98/4349849.cif $
#------------------------------------------------------------------------------
#
# This file is available in the Crystallography Open Database (COD),
# http://www.crystallography.net/
#
# All data on this site have been placed in the public domain by the
# contributors.
#
data_4349849
loop_
_publ_author_name
'Gorelova, Liudmila A.'
'Pakhomova, Anna S.'
'Aprilis, Georgios'
'Dubrovinsky, Leonid S.'
'Krivovichev, Sergey V.'
_publ_section_title
;
 Pentacoordinated silicon in the high-pressure modification of datolite,
 CaBSiO4(OH)
;
_journal_issue                   7
_journal_name_full               'Inorganic Chemistry Frontiers'
_journal_page_first              1653
_journal_paper_doi               10.1039/C8QI00257F
_journal_volume                  5
_journal_year                    2018
_chemical_formula_sum            'B Ca H O5 Si'
_chemical_formula_weight         159.99
_space_group_crystal_system      monoclinic
_space_group_IT_number           14
_space_group_name_Hall           '-P 2ybc'
_space_group_name_H-M_alt        'P 1 21/c 1'
_atom_sites_solution_hydrogens   difmap
_audit_creation_method           SHELXL-2014/7
_audit_update_record
;
2018-03-21 deposited with the CCDC.
2018-05-04 downloaded from the CCDC.
;
_cell_angle_alpha                90
_cell_angle_beta                 90.63(3)
_cell_angle_gamma                90
_cell_formula_units_Z            4
_cell_length_a                   4.479(7)
_cell_length_b                   6.7168(6)
_cell_length_c                   9.2421(7)
_cell_measurement_reflns_used    1051
_cell_measurement_temperature    298(2)
_cell_measurement_theta_max      17.450
_cell_measurement_theta_min      1.527
_cell_volume                     278.0(4)
_computing_structure_refinement  'SHELXL-2014/7 (Sheldrick, 2014)'
_diffrn_ambient_temperature      298(2)
_diffrn_measured_fraction_theta_full 0.336
_diffrn_measured_fraction_theta_max 0.192
_diffrn_measurement_device_type
'esperanto-CrysAlisPro-abstract goniometer imported esperanto images'
_diffrn_radiation_wavelength     0.2896
_diffrn_reflns_av_R_equivalents  0.0536
_diffrn_reflns_av_unetI/netI     0.0774
_diffrn_reflns_Laue_measured_fraction_full 0.336
_diffrn_reflns_Laue_measured_fraction_max 0.192
_diffrn_reflns_limit_h_max       2
_diffrn_reflns_limit_h_min       -2
_diffrn_reflns_limit_k_max       13
_diffrn_reflns_limit_k_min       -13
_diffrn_reflns_limit_l_max       19
_diffrn_reflns_limit_l_min       -17
_diffrn_reflns_number            1051
_diffrn_reflns_point_group_measured_fraction_full 0.336
_diffrn_reflns_point_group_measured_fraction_max 0.192
_diffrn_reflns_theta_full        10.007
_diffrn_reflns_theta_max         17.450
_diffrn_reflns_theta_min         1.527
_exptl_absorpt_coefficient_mu    1.301
_exptl_crystal_colour            colorless
_exptl_crystal_density_diffrn    3.822
_exptl_crystal_density_meas      ?
_exptl_crystal_density_method    none
_exptl_crystal_description       isosymmetric
_exptl_crystal_F_000             320
_exptl_crystal_size_max          0.010
_exptl_crystal_size_mid          0.010
_exptl_crystal_size_min          0.005
_refine_diff_density_max         0.715
_refine_diff_density_min         -0.800
_refine_diff_density_rms         0.187
_refine_ls_extinction_method     none
_refine_ls_goodness_of_fit_ref   0.834
_refine_ls_hydrogen_treatment    refxyz
_refine_ls_matrix_type           full
_refine_ls_number_parameters     71
_refine_ls_number_reflns         498
_refine_ls_number_restraints     1
_refine_ls_restrained_S_all      0.833
_refine_ls_R_factor_all          0.0742
_refine_ls_R_factor_gt           0.0594
_refine_ls_shift/su_max          0.000
_refine_ls_shift/su_mean         0.000
_refine_ls_structure_factor_coef Fsqd
_refine_ls_weighting_details
'w=1/[\s^2^(Fo^2^)+(0.1423P)^2^] where P=(Fo^2^+2Fc^2^)/3'
_refine_ls_weighting_scheme      calc
_refine_ls_wR_factor_gt          0.1485
_refine_ls_wR_factor_ref         0.1693
_reflns_Friedel_coverage         0.000
_reflns_number_gt                376
_reflns_number_total             498
_reflns_threshold_expression     'I > 2\s(I)'
_cod_data_source_file            c8qi00257f2.cif
_cod_data_source_block           shelx_CCDC3
_cod_depositor_comments
;
The following automatic conversions were performed:

data item '_exptl_crystal_density_meas' value 'none' was changed to
'?' -- the value is perceived as not measured.

Automatic conversion script
Id: cif_fix_values 6909 2019-04-08 15:41:33Z antanas 
;
_cod_original_sg_symbol_H-M      'P 21/c'
_cod_database_code               4349849
_shelx_shelxl_version_number     2014/7
_shelx_space_group_comment
;
The symmetry employed for this shelxl refinement is uniquely defined
by the following loop, which should always be used as a source of
symmetry information in preference to the above space-group names.
They are only intended as comments.
;
_shelx_res_file
;

    shelx.res created by SHELXL-2014/7


TITL p4_cr3_s2 in P2(1)/c
REM P2(1)/c (#14 in standard setting)
CELL 0.28960   4.478824   6.716789   9.242150  90.0000  90.6286  90.0000
ZERR    4.00   0.006888   0.000576   0.000724   0.0000   0.0255   0.0000
LATT  1
SYMM -x, y+1/2,-z+1/2
SFAC O Si B Ca H
UNIT 20.00 4.00 4.00 4.00 4.00

OMIT    1   0  16
OMIT    -1   4  15
OMIT     0   3   1
OMIT     0  10   5
OMIT     1   1   4
OMIT    -2  11   3
OMIT     0   0   6
OMIT     2   9   2

L.S. 20
ACTA
BOND $H
HTAB
DFIX 0.90 0.02 H O5
TEMP 25.0
FMAP 2
PLAN 250
REM TWIN 1 0 0 0 1 0 0 0 -1
REM EXTI    0.000000
WGHT    0.142300
FVAR      12.80742
CA1   4    0.000191    0.630048    0.180726    11.00000    0.04716    0.00985 =
         0.00654   -0.00058   -0.00471   -0.00128
SI1   2    0.531229    0.322075    0.066358    11.00000    0.04899    0.00939 =
         0.00473   -0.00007   -0.00537   -0.00062
B1    3    0.592408    0.057982   -0.151967    11.00000    0.00801
O1    1    0.259716    0.460688    0.015957    11.00000    0.04192    0.01015 =
         0.00793   -0.00001   -0.00417   -0.00407
O2    1    0.724589    0.177467   -0.038099    11.00000    0.05922    0.01053 =
         0.00451   -0.00101   -0.01068    0.00465
O3    1    0.707837    0.363144    0.215830    11.00000    0.06762    0.00965 =
         0.00462   -0.00091   -0.01036   -0.00344
O4    1    0.313133    0.140737    0.131611    11.00000    0.07002    0.00739 =
         0.00648   -0.00034   -0.00615   -0.00280
O5    1    0.265832    0.077244   -0.159418    11.00000    0.06526    0.00968 =
         0.00597    0.00087   -0.00262    0.00371
H     5    0.148513    0.026667   -0.089640    11.00000   10.01000

HKLF 4

REM  p4_cr3_s2 in P2(1)/c
REM R1 =  0.0594 for     376 Fo > 4sig(Fo)  and  0.0742 for all     498 data
REM     71 parameters refined using      1 restraints

END

WGHT      0.0867      0.0000

REM Instructions for potential hydrogen bonds
EQIV $1 x-1, y, z
HTAB O5 O2_$1
EQIV $2 -x+1, -y, -z
HTAB O5 O2_$2
EQIV $3 -x, -y, -z
HTAB O5 O4_$3

REM Highest difference peak  0.715,  deepest hole -0.800,  1-sigma level  0.187
Q1    1   0.4794  0.3208 -0.0896  11.00000  0.05    0.71
Q2    1   0.1328  0.3016 -0.0389  11.00000  0.05    0.67
Q3    1  -0.0633  0.7101  0.0331  11.00000  0.05    0.62
Q4    1   0.5000  0.5000  0.0000  10.50000  0.05    0.57
Q5    1   0.5605  0.4227  0.0635  11.00000  0.05    0.56
Q6    1   0.5269  0.1313  0.3157  11.00000  0.05    0.53
Q7    1  -0.0131  0.5474  0.1847  11.00000  0.05    0.52
Q8    1  -0.0539  0.7229  0.1923  11.00000  0.05    0.52
Q9    1  -0.0342  0.3205  0.0677  11.00000  0.05    0.51
Q10   1   0.1243  0.6439  0.1798  11.00000  0.05    0.50
Q11   1  -0.0446  0.7980  0.1866  11.00000  0.05    0.48
Q12   1   0.5994  0.3321  0.0613  11.00000  0.05    0.48
Q13   1   0.6066 -0.0393 -0.1362  11.00000  0.05    0.48
Q14   1  -0.2147  0.7401  0.2066  11.00000  0.05    0.47
Q15   1   0.1039  0.1441 -0.2698  11.00000  0.05    0.46
Q16   1   0.5071 -0.0179 -0.1383  11.00000  0.05    0.45
Q17   1   0.0107 -0.1263 -0.1191  11.00000  0.05    0.44
Q18   1   0.6473  0.3428  0.2026  11.00000  0.05    0.44
Q19   1   0.5712  0.2484  0.0722  11.00000  0.05    0.43
Q20   1   0.6542  0.2614  0.0621  11.00000  0.05    0.43
Q21   1   0.3305  0.0122 -0.2803  11.00000  0.05    0.42
Q22   1   0.5142  0.2217  0.2366  11.00000  0.05    0.40
Q23   1   0.1856  0.5779  0.1601  11.00000  0.05    0.38
Q24   1   0.7759  0.2796  0.2005  11.00000  0.05    0.38
Q25   1   0.1505 -0.0361 -0.0822  11.00000  0.05    0.37
Q26   1   0.2375  0.1561 -0.1258  11.00000  0.05    0.37
Q27   1   0.0384  0.2545  0.1621  11.00000  0.05    0.36
Q28   1   0.5333  0.2185 -0.1807  11.00000  0.05    0.35
Q29   1   0.0639  0.4573  0.1907  11.00000  0.05    0.35
Q30   1   0.5272  0.1234 -0.1796  11.00000  0.05    0.34
Q31   1   0.8100  0.2364 -0.1503  11.00000  0.05    0.34
Q32   1   0.2354  0.4820  0.1835  11.00000  0.05    0.33
Q33   1   0.7290  0.4289  0.2480  11.00000  0.05    0.32
Q34   1   0.2579  0.1827  0.0672  11.00000  0.05    0.32
Q35   1   0.5979  0.5152  0.1190  11.00000  0.05    0.32
Q36   1   0.1736 -0.0936 -0.1698  11.00000  0.05    0.31
Q37   1   0.8137  0.1249 -0.0759  11.00000  0.05    0.30
Q38   1   0.7557  0.1968  0.1882  11.00000  0.05    0.29
Q39   1   0.3992  0.4964  0.1602  11.00000  0.05    0.28
Q40   1   0.0348  0.5751 -0.0371  11.00000  0.05    0.28
Q41   1   0.4296  0.1700 -0.0417  11.00000  0.05    0.28
Q42   1   0.0656  0.4202  0.1116  11.00000  0.05    0.27
Q43   1   0.4854  0.4394  0.2199  11.00000  0.05    0.25
Q44   1   0.5625  0.4239  0.2095  11.00000  0.05    0.24
Q45   1   0.3723 -0.0982 -0.0900  11.00000  0.05    0.24
Q46   1  -0.0462 -0.0386 -0.1795  11.00000  0.05    0.24
Q47   1   0.5706 -0.0407 -0.2588  11.00000  0.05    0.23
Q48   1   0.2826  0.3758  0.0396  11.00000  0.05    0.22
Q49   1   0.2602  0.0591 -0.0603  11.00000  0.05    0.22
Q50   1   0.3198  0.4899  0.0678  11.00000  0.05    0.21
Q51   1   0.2143 -0.0583 -0.0254  11.00000  0.05    0.20
Q52   1   0.5687  0.2358 -0.0291  11.00000  0.05    0.19
Q53   1   0.4880  0.1185  0.2217  11.00000  0.05    0.18
Q54   1   0.4714  0.1219  0.1373  11.00000  0.05    0.18
Q55   1   0.5090 -0.0594 -0.2307  11.00000  0.05    0.18
Q56   1   0.7430  0.2399 -0.0677  11.00000  0.05    0.17
Q57   1   0.5456  0.0702 -0.0258  11.00000  0.05    0.17
Q58   1   0.1181  0.5740  0.0821  11.00000  0.05    0.15
Q59   1   0.2029  0.1971  0.2231  11.00000  0.05    0.15
Q60   1   0.5772  0.4182  0.1287  11.00000  0.05    0.13
Q61   1   0.3231  0.3803  0.1680  11.00000  0.05    0.11
Q62   1   0.7079  0.2817  0.1390  11.00000  0.05    0.10
Q63   1   0.1939  0.6398  0.2627  11.00000  0.05    0.07
Q64   1   0.5155  0.2355  0.1394  11.00000  0.05    0.03
Q65   1   0.5590  0.3231  0.1484  11.00000  0.05    0.03
Q66   1   0.1467  0.0105 -0.2012  11.00000  0.05    0.03
;
_shelx_res_checksum              95234
_shelx_hkl_file
;
   0   0  -3-1.72352 105.193   1
   0   0   3 11.4553 170.132   1
   0   0   4 15882.9 1573.13   1
   0   0  -4 18484.7 1784.98   1
   0   0  -5-80.7520 324.987   1
   0   0   5-70.8443 154.204   1
   0   0   6 440496. 10759.2   1
   0   0  -6 457016. 10908.1   1
   0   0  -7 58.3005 534.684   1
   0   0   7-223.969 356.014   1
   0   0  -8 472865. 13208.4   1
   0   0   8 480014. 14702.5   1
   0   0  -9-364.853 525.172   1
   0   0   9 156.864 231.630   1
   0   0  10 33169.0 4701.72   1
   0   0 -10 36486.3 3984.55   1
   0   0 -11 438.625 407.979   1
   0   0  11-591.359 740.582   1
   0   0 -12 16899.5 3040.49   1
   0   0  12 17748.6 4029.47   1
   0   0  13-153.532 1207.75   1
   0   0 -13-2.93811 426.317   1
   0   0 -14 163.321 481.464   1
   0   0  14 1031.98 1968.89   1
   0   0 -15 98.4372 615.514   1
   0   0  15 831.434 1025.76   1
   0   0 -16 27376.6 4574.16   1
   0   0  16 14813.3 5537.88   1
   0   0  17 1749.25 2414.68   1
   0   0  18-144.851 1216.33   1
   0   1  -1 68631.6 2638.81   1
   0  -1   1 68596.7 2704.84   1
   0   1  -2 2279.41 574.179   1
   0  -1   2 2218.97 537.621   1
   0   1  -3 46294.9 2994.96   1
   0  -1   3 45958.0 3050.39   1
   0   1   4 481747. 8194.79   1
   0  -1  -4 491112. 7405.28   1
   0   1  -4 494604. 10549.5   1
   0  -1   4 487494. 11240.8   1
   0   1  -5 374403. 10314.7   1
   0  -1   5 379873. 10559.2   1
   0   1   5 378125. 8459.55   1
   0  -1  -5 378725. 7712.58   1
   0  -1  -6 8216.73 1250.56   1
   0   1  -6 8113.46 1511.25   1
   0   1   6 8934.45 1483.17   1
   0  -1   6 7866.53 1539.21   1
   0  -1  -7 214416. 7216.39   1
   0  -1   7 219042. 9289.59   1
   0   1   7 199589. 7878.29   1
   0   1  -7 211569. 8999.77   1
   0   1   8 195774. 8987.87   1
   0   1  -8 205273. 9802.13   1
   0  -1   8 212760. 10474.8   1
   0  -1  -8 210723. 7870.76   1
   0  -1   9 572.595 553.759   1
   0  -1  -9 1549.66 693.867   1
   0   1  -9 1197.09 645.131   1
   0   1   9 1211.95 583.137   1
   0   1  10 19188.8 4482.87   1
   0  -1  10 25724.7 4325.25   1
   0  -1 -10 32452.9 3437.35   1
   0   1 -10 25420.8 3703.53   1
   0   1 -11 114037. 8047.15   1
   0  -1  11 106101. 9325.07   1
   0  -1 -11 116483. 7063.27   1
   0  -1 -12 202102. 9968.15   1
   0  -1  12 226300. 14038.3   1
   0   1 -12 207917. 11378.4   1
   0  -1  13 9626.74 3246.76   1
   0   1  13 1148.54 2233.16   1
   0   1 -13 7809.58 2185.93   1
   0  -1 -13 8955.94 2042.90   1
   0  -1 -14 8599.90 2060.35   1
   0   1 -14 7838.88 3102.52   1
   0   1  14 704.604 1500.41   1
   0  -1  14 7016.36 3068.52   1
   0   1 -15 3653.88 1764.59   1
   0  -1  15 4043.15 2954.24   1
   0   1 -16 50073.7 6519.07   1
   0  -1  16 48103.8 9571.70   1
   0   1 -17 30288.4 5265.84   1
   0  -1  17 25486.5 7407.17   1
   0  -1  18 4225.22 3428.84   1
   0  -1  19 8925.17 4831.71   1
   0  -2   0 4393.64 741.886   1
   0   2   0 4807.23 768.070   1
   0  -2   1 3702.95 808.197   1
   0   2  -1 4424.82 858.164   1
   0  -2   2 14857.2 1829.48   1
   0   2  -2 15391.2 1757.77   1
   0   2  -3 136275. 5951.71   1
   0  -2   3 133353. 6086.41   1
   0   2  -4-63.5191 283.819   1
   0  -2   4-85.8932 344.618   1
   0  -2   5 735940. 16310.5   1
   0   2  -5 746850. 15782.2   1
   0   2  -6 171536. 7922.64   1
   0   2   6 127388. 6232.31   1
   0  -2   6 173698. 8113.83   1
   0  -2  -6 141269. 4257.93   1
   0  -2   7 8067.02 1905.19   1
   0   2  -7 6639.62 1733.30   1
   0   2   7 4373.83 1367.92   1
   0  -2  -8 99849.9 4584.22   1
   0  -2   8 102477. 7480.57   1
   0   2  -8 99605.6 7154.72   1
   0  -2  -9 40529.9 3191.49   1
   0   2  -9 39982.3 4795.92   1
   0  -2   9 39372.8 5131.46   1
   0   2 -10 6686.80 1878.65   1
   0  -2 -10 5034.76 1185.96   1
   0  -2  10 7149.37 2167.54   1
   0  -2 -11 29238.0 3278.94   1
   0   2 -11 26893.8 4108.73   1
   0  -2  11 26303.3 4595.69   1
   0  -2  12 16632.6 4413.97   1
   0   2 -12 10597.2 2635.93   1
   0  -2  13 109845. 10839.3   1
   0   2 -13 92036.9 8833.75   1
   0  -2  14 466.986 732.993   1
   0   2  14 451.666 478.447   1
   0   2 -14-881.940 1398.42   1
   0   2 -15 127502. 10665.6   1
   0   2  15 80786.7 11522.3   1
   0   2  16 6886.82 3215.79   1
   0   2 -16 8562.19 3210.00   1
   0  -2  16 8631.33 4752.08   1
   0   2 -17 24780.6 5216.51   1
   0  -2  17 19077.7 7237.17   1
   0  -2  18 125.905 332.748   1
   0  -3   0-100.755 150.882   1
   0   3   0 11.5759 69.4707   1
   0  -3   1 10263.5 1538.29   1
   0  -3  -1 14368.8 1501.41   1
   0   3  -1 9815.07 1386.28   1
   0   3   1 12513.2 1319.08   1
   0  -3   2 182774. 7500.80   1
   0   3  -2 186901. 6957.67   1
   0   3   2 179435. 4497.83   1
   0  -3  -2 184647. 4973.21   1
   0  -3   3 417334. 12129.5   1
   0   3  -3 406212. 11204.5   1
   0   3  -4 200411. 8467.91   1
   0  -3   4 193849. 8786.27   1
   0  -3   5 32955.4 3688.98   1
   0   3  -5 34257.4 3684.85   1
   0  -3   6 710.357 220.811   1
   0   3  -6 358.039 327.363   1
   0  -3   7 339832. 13215.3   1
   0   3  -7 330165. 13226.0   1
   0  -3   8 47026.3 5428.30   1
   0   3  -8 43520.2 5159.39   1
   0  -3   9 177881. 11325.1   1
   0   3  -9 176941. 10707.1   1
   0   3 -10 217932. 11980.0   1
   0  -3  10 215868. 13201.6   1
   0   3 -11 67224.5 7026.34   1
   0  -3  11 70983.4 7857.08   1
   0   3  12 2522.43 2748.96   1
   0  -3  12 935.403 1704.86   1
   0   3 -12 604.918 578.461   1
   0  -3  13 14941.7 4017.19   1
   0   3 -13 12522.1 3199.69   1
   0  -3  14 1468.38 1519.27   1
   0   3 -14 1817.30 1245.66   1
   0   3 -15 6816.27 2231.62   1
   0  -3  15 5619.51 3554.51   1
   0  -3  16 12978.1 5740.84   1
   0   3 -16 10146.9 3564.87   1
   0  -3  17 23384.9 9118.77   1
   0   4   0 989216. 15927.3   1
   0  -4   0 999999. 16436.6   1
   0  -4  -1 13507.5 1842.64   1
   0   4  -1 12225.6 1852.79   1
   0   4   1 12530.8 1648.60   1
   0  -4   1 11993.8 1890.84   1
   0  -4  -2 284847. 8173.90   1
   0  -4   2 275209. 9869.57   1
   0   4  -2 262848. 9548.37   1
   0   4   2 266635. 7033.90   1
   0   4  -3 84721.7 5751.56   1
   0   4   3 79160.1 3204.39   1
   0  -4  -3 80604.4 4692.33   1
   0  -4   3 74269.0 5596.81   1
   0  -4   4 45024.2 4433.42   1
   0   4  -4 45142.9 4385.32   1
   0  -4   5 393387. 13672.4   1
   0   4  -5 391042. 13538.3   1
   0  -4   6 79948.2 6767.01   1
   0   4  -6 75576.4 6323.61   1
   0  -4   7-471.225 1172.75   1
   0   4  -7-450.826 1001.42   1
   0   4  -8 152839. 10287.6   1
   0  -4   8 163830. 11401.4   1
   0  -4   9 49334.7 6329.31   1
   0   4  -9 47019.0 6133.68   1
   0  -4  10 1885.46 1276.87   1
   0   4 -10 2018.58 1247.52   1
   0  -4  11 7898.07 2540.07   1
   0   4 -11 7698.96 2525.70   1
   0   4 -12-266.999 748.758   1
   0  -4  12 1248.95 1548.46   1
   0  -4  13 56358.8 8195.94   1
   0   4 -13 43286.1 6223.22   1
   0  -4  14 21830.0 5356.79   1
   0   4 -14 19141.7 4293.72   1
   0  -4  15 4589.71 3154.13   1
   0   5   0 653.381 930.052   1
   0  -5   0 924.700 1065.18   1
   0  -5  -1 18328.1 2529.38   1
   0   5  -1 20746.4 2905.48   1
   0  -5   1 25773.3 3507.36   1
   0   5   1 18571.9 2337.69   1
   0  -5   2 26008.0 3460.97   1
   0  -5  -2 21180.4 2841.64   1
   0   5   2 22952.6 2489.50   1
   0   5  -2 22863.7 3127.62   1
   0  -5   3 31354.3 4073.41   1
   0   5  -3 26841.1 3534.46   1
   0   5   3 26487.4 2254.89   1
   0  -5  -3 27376.2 3105.61   1
   0  -5   4 60497.6 6335.52   1
   0  -5  -4 25006.0 2816.25   1
   0   5  -4 52606.0 5569.67   1
   0   5   4 37650.1 2254.72   1
   0   5  -5 112342. 7683.71   1
   0  -5   5 118312. 8350.93   1
   0  -5   6 53020.7 5902.52   1
   0   5  -6 46481.8 5339.25   1
   0   5  -7-123.296 539.665   1
   0  -5   7 838.516 1012.62   1
   0  -5   8 31088.1 5076.69   1
   0   5  -8 30332.8 4772.28   1
   0  -5   9 3249.56 1758.41   1
   0   5  -9 3055.77 1735.00   1
   0  -5  10 12925.9 3669.00   1
   0   5 -10 13378.8 3275.16   1
   0  -5  11 16419.0 4405.94   1
   0   5 -11 23008.0 5383.19   1
   0   5 -12 222763. 14474.6   1
   0  -5  12 245697. 18221.9   1
   0  -5  13 74866.9 10084.7   1
   0   5 -13 60442.9 7697.87   1
   0  -5  14-501.858 1063.38   1
   0  -6   0 167360. 9346.66   1
   0   6   0 175541. 8939.53   1
   0  -6   1 214135. 11055.0   1
   0   6   1 207015. 8804.91   1
   0  -6  -1 214062. 10266.4   1
   0   6  -1 208498. 9874.28   1
   0  -6  -2 54556.0 5033.71   1
   0   6   2 60156.2 4479.14   1
   0  -6   2 67182.4 6740.26   1
   0   6  -2 57143.2 5552.25   1
   0  -6   3 52970.0 5957.47   1
   0  -6  -3 48688.2 5141.07   1
   0   6  -3 51764.9 5454.24   1
   0   6   3 49119.4 3602.18   1
   0   6   4 6425.25 1054.89   1
   0  -6  -4 4080.14 1600.82   1
   0  -6   4 8560.70 2551.72   1
   0   6  -4 6540.28 2082.92   1
   0  -6   5 42859.6 5932.49   1
   0   6  -5 37812.6 5005.38   1
   0  -6   6 50357.0 6587.49   1
   0   6  -6 50758.6 6088.27   1
   0  -6   7 190598. 13574.4   1
   0   6  -7 199762. 12653.1   1
   0  -6   8 54629.8 7405.33   1
   0   6  -8 55535.0 6924.49   1
   0  -6   9 3087.43 1856.81   1
   0   6  -9 4796.95 2011.70   1
   0  -6  10 10461.3 4214.86   1
   0   6 -10 279.093 672.570   1
   0   6 -11 12141.5 3616.34   1
   0  -6  11 8681.47 3953.05   1
   0  -6  12 13090.0 4777.04   1
   0  -7   0-278.955 511.516   1
   0   7   0-223.108 261.414   1
   0   7   1 20222.9 2995.92   1
   0  -7  -1 19877.1 3636.97   1
   0  -7   1 17284.0 3594.31   1
   0   7  -1 19719.7 3387.60   1
   0  -7   2 70288.9 7423.41   1
   0   7   2 62600.5 4844.43   1
   0  -7  -2 71565.7 6577.36   1
   0   7  -2 71817.4 6810.25   1
   0  -7   3 165569. 11368.5   1
   0  -7  -3 147686. 10684.3   1
   0   7   3 149147. 7313.37   1
   0   7  -3 160786. 10365.8   1
   0  -7  -4 2246.26 1328.52   1
   0   7  -4 3356.13 1706.17   1
   0  -7   4 3413.43 1995.83   1
   0   7   4 2365.08 798.628   1
   0  -7   5 180090. 13905.7   1
   0   7  -5 149057. 11859.8   1
   0   7  -6 40663.0 5989.84   1
   0  -7   6 40637.1 6527.95   1
   0  -7   7 6970.26 2782.66   1
   0   7  -7 9277.27 3070.26   1
   0  -7   8-252.422 474.627   1
   0   7  -8-655.414 1131.45   1
   0  -7   9 50056.3 7802.53   1
   0   7  -9 45817.4 6464.91   1
   0  -7  10 77628.0 10379.2   1
   0   7 -10 76541.9 8830.64   1
   0  -7  11 41374.8 8157.31   1
   0  -8   0-227.248 654.031   1
   0   8   0-571.876 962.952   1
   0  -8   1 1892.70 1448.44   1
   0  -8  -1 1242.70 719.066   1
   0   8  -1 1406.41 760.902   1
   0   8   1 2023.64 993.739   1
   0  -8   2 175702. 12986.2   1
   0  -8  -2 168622. 12346.4   1
   0   8   2 175860. 9148.60   1
   0   8  -2 180640. 11427.1   1
   0  -8   3 5022.24 1654.70   1
   0   8   3 5333.76 1344.37   1
   0   8  -3 6638.76 2443.84   1
   0   8  -4 2588.29 2524.63   1
   0  -8   4 699.096 801.469   1
   0  -8  -4 2497.24 1410.42   1
   0   8   4 486.178 405.003   1
   0   8  -5 82312.4 8728.18   1
   0  -8   5 83639.1 9837.62   1
   0   8  -6 58145.8 7188.90   1
   0  -8   6 58710.0 8414.53   1
   0  -8   7-361.255 254.335   1
   0   8  -7-257.586 928.848   1
   0  -8   8 1496.14 1356.74   1
   0   8  -8 2203.66 1083.73   1
   0  -8   9 1497.35 1907.71   1
   0  -9   0-570.172 478.593   1
   0   9   0-130.974 238.792   1
   0   9  -1 436.289 623.547   1
   0  -9   1-348.227 1153.46   1
   0   9   1 182.136 453.501   1
   0   9  -2 4840.05 1701.21   1
   0  -9  -2 5730.85 2836.54   1
   0  -9   2 5069.36 2171.10   1
   0   9   2 2552.89 870.942   1
   0  -9  -3 30930.4 6559.67   1
   0  -9   3 54973.8 8358.12   1
   0   9   3 46749.5 4521.83   1
   0   9  -3 53040.8 6628.36   1
   0  -9   4 4778.16 2451.03   1
   0  -9  -4 1248.70 1023.00   1
   0   9   4 3178.34 996.406   1
   0   9  -4 4026.77 1863.26   1
   0   9  -5 25316.6 4970.39   1
   0  -9   5 30116.4 6443.92   1
   0   9  -6 12903.5 3487.89   1
   0  -9   6 15073.2 4970.00   1
   0  -9   7 18837.3 5630.99   1
   0   9  -7 13799.1 3703.29   1
   0  -9   8 230.676 1194.49   1
   0 -10   0 44992.0 8214.29   1
   0  10   0 39930.9 5601.26   1
   0  10   1 88965.2 7777.84   1
   0 -10   1 110210. 12358.6   1
   0 -10  -1 104237. 13040.9   1
   0  10  -1 102723. 9315.23   1
   0 -10   2 3166.07 1941.85   1
   0 -10  -2 6305.45 3093.69   1
   0  10  -2 6347.44 2337.77   1
   0  10  -3 28979.8 5188.71   1
   0 -10   3 28637.2 6241.24   1
   0  10   3 24299.0 3522.08   1
   0 -10  -3 16120.4 5221.90   1
   0  10  -4-912.426 1412.67   1
   0 -10   4-2870.84 2036.69   1
   0 -10  -4-566.268 1057.78   1
   0  10  -5 4055.27 1786.61   1
   0 -10   5 3681.67 1869.19   1
   0 -10  -5 160.515 555.196   1
   0 -10   6 16213.1 4842.60   1
   0 -11   0 203.967 2537.78   1
   0  11   0 80.0078 848.622   1
   0 -11  -1-43.0757 135.225   1
   0  11   1 1438.85 1042.51   1
   0 -11   2 2800.77 3171.58   1
   0  11   2 1542.59 1079.37   1
   0  11  -2 7.22114 311.647   1
   0 -11  -2 3324.68 2762.35   1
   0 -11  -3 12587.1 4145.21   1
   0 -11   3 20017.0 6461.99   1
   0  11   3 13718.4 2785.38   1
   0  11  -3 12606.7 3079.82   1
   0 -11   4 1610.25 2519.94   1
   0 -11   5 108298. 15157.7   1
   0 -12   0 6374.65 2730.10   1
   0  12   0 14110.5 3203.10   1
   0 -12   1 2120.55 1721.47   1
   0  12   1 2947.31 1616.91   1
   0  12  -1 2875.01 1574.87   1
   0 -12  -1 2914.17 3295.09   1
   0 -12  -2 20336.9 6012.71   1
   0 -12   2 30178.3 9203.75   1
   0  12   2 21396.7 3932.68   1
   0  12  -2 20553.0 4570.84   1
   0 -12   3 15731.8 6144.96   1
   0 -13   0 2423.78 3427.97   1
   0  13   0-1086.11 1105.40   1
   0  13   1 9505.08 2743.96   1
   0 -13   1 4217.68 3016.17   1
  -1   0  18-557.057 1036.27   1
  -1   0  17-122.373 654.244   1
  -1   0  16 15214.7 3636.73   1
  -1   0  15 10.6856 1200.26   1
  -1   0  14 177399. 10107.9   1
  -1   0  13 52.5792 73.1364   1
  -1   0  12 50468.1 4755.86   1
  -1   0  11 277.919 476.102   1
  -1   0  10 264092. 9928.55   1
  -1   0   9 164.536 432.887   1
  -1   0   8 17773.9 2473.22   1
  -1   0  -6 648974. 20697.6   1
  -1   0  -7-279.538 373.456   1
   1   0   8 216476. 16456.7   1
  -1   0  -8 225635. 9954.05   1
   1   0   9 3660.61 2447.18   1
  -1   0  -9-175.879 255.263   1
   1   0  10 13827.3 4659.48   1
  -1   0 -10 9598.02 2031.16   1
  -1   0 -11-218.358 417.537   1
   1   0  11 157.986 1935.00   1
   1   0  12 3997.28 1937.52   1
  -1   0 -12 1358.42 898.463   1
   1   0  13 3227.07 3306.45   1
  -1   0 -13-122.624 314.615   1
  -1   0 -14 207880. 10846.6   1
   1   0  14 220909. 21785.3   1
   1   0  15 919.613 3020.84   1
  -1   0 -15-647.974 438.208   1
  -1   0 -16 517371. 19913.8   1
  -1  -1  19 1420.03 1302.72   1
  -1  -1  18 35284.1 6741.10   1
  -1  -1  17 6514.00 2505.88   1
  -1   1  17 1396.46 2650.12   1
  -1   1  16 522.307 984.059   1
  -1  -1  16 121.928 904.143   1
  -1   1  15 381.571 1305.26   1
  -1  -1  15 5266.91 1975.42   1
  -1  -1  14 11981.4 2544.88   1
  -1   1  14 11262.6 2404.00   1
  -1  -1  13 2318.36 1259.37   1
  -1   1  13 747.710 1088.14   1
  -1   1  12 1612.85 1570.48   1
  -1  -1  12 7931.11 1992.74   1
  -1  -1  11 18739.3 3081.02   1
  -1  -1  10 122692. 7509.95   1
  -1  -1   9 11496.3 2140.94   1
  -1   1   9 11255.7 1902.41   1
  -1  -1   8 31201.5 3678.61   1
  -1  -1   7 122987. 6740.11   1
  -1   1  -4 114353. 8706.80   1
  -1   1  -5 267025. 14619.6   1
   1  -1   5 272546. 16834.8   1
  -1   1  -6 46103.9 4865.00   1
   1  -1   6 37289.3 6751.00   1
  -1   1  -7 12444.8 2436.10   1
  -1  -1  -7 8669.33 2102.46   1
   1  -1   7 10374.0 3733.77   1
  -1   1  -8 45209.4 4345.64   1
  -1  -1  -8 38640.9 3960.03   1
   1  -1   8 40834.2 8319.46   1
   1  -1   9 32441.4 7128.39   1
  -1  -1  -9 24363.5 2839.24   1
  -1   1  -9 30061.4 3754.35   1
  -1   1 -10 178133. 9185.44   1
  -1  -1 -10 165462. 8126.40   1
  -1  -1 -11 49207.2 4347.70   1
   1  -1  11 54387.6 10694.1   1
  -1   1 -11 54412.5 5074.80   1
   1  -1  12 8166.06 3589.40   1
  -1  -1 -12 8325.89 1825.73   1
  -1   1 -12 8696.15 2091.42   1
  -1  -1 -13 114569. 7391.43   1
  -1   1 -13 113175. 7980.45   1
   1  -1  13 107779. 15762.2   1
   1  -1  14 13414.6 6070.43   1
  -1   1 -14 16605.2 3034.67   1
  -1  -1 -14 18127.9 2915.23   1
  -1   1 -15 23432.9 4216.70   1
  -1  -1 -15 29635.0 4140.72   1
  -1  -1 -16 1.62072 941.775   1
   1  -1  16 10130.6 4876.74   1
  -1   1 -16 13566.3 3947.50   1
  -1   1 -17-238.531 1117.76   1
   1  -1  17 2336.90 2449.80   1
   1  -1  18 48299.8 12738.0   1
  -1  -2  18 5682.32 2969.87   1
  -1  -2  17 5396.09 2333.58   1
  -1   2  16 23000.2 4226.20   1
  -1  -2  16 22039.7 4826.53   1
  -1   2  15 61194.0 6488.60   1
  -1  -2  15 58660.9 7121.27   1
  -1  -2  14 10627.8 2631.25   1
  -1   2  14 2966.09 2769.50   1
  -1  -2  13 337.275 216.904   1
  -1   2  13-71.0736 392.807   1
  -1  -2  12-84.3639 1017.45   1
  -1   2  12 100.278 344.728   1
  -1  -2  11 15718.8 2756.30   1
  -1   2  10-196.289 39.0845   1
  -1  -2  10 452.924 706.636   1
  -1  -2   9 141853. 7919.41   1
  -1  -2   8 42180.8 4165.18   1
  -1  -2   7 345174. 12533.0   1
  -1   2  -3 345882. 15857.8   1
   1  -2   3 366192. 17757.2   1
   1  -2   4 364.936 931.333   1
  -1   2  -4 251.842 463.411   1
  -1   2  -5 4601.36 1457.77   1
   1  -2   5 2458.14 1729.55   1
  -1   2  -6 133890. 8245.40   1
   1  -2   6 152357. 13694.7   1
   1  -2   7 391871. 21831.5   1
  -1   2  -7 321945. 13234.6   1
  -1   2  -8 16913.3 2689.66   1
  -1  -2  -8 11776.2 2004.63   1
  -1   2  -9 121172. 8023.09   1
  -1  -2  -9 99622.3 5223.80   1
  -1  -2 -10 4440.32 1134.03   1
  -1  -2 -11 86368.9 5399.73   1
  -1   2 -11 95537.5 7180.21   1
  -1  -2 -12 359.249 358.703   1
  -1   2 -12 708.371 612.656   1
   1  -2  12 293.982 255.568   1
  -1  -2 -13 52478.3 4812.89   1
  -1   2 -13 50730.3 5649.82   1
   1  -2  13 53723.3 10747.9   1
  -1   2 -14 1492.73 1122.42   1
   1  -2  14 2994.74 1930.98   1
  -1  -2 -14 1730.46 981.878   1
  -1   2 -15 10476.5 2831.12   1
   1  -2  15 4919.90 4660.58   1
  -1  -2 -15 1.33690 1108.01   1
   1  -2  17 10977.0 7449.49   1
  -1   2 -17 11549.9 3587.07   1
   1  -2  18 4005.61 1053.89   1
  -1  -3  16 3686.64 2262.37   1
  -1  -3  15 35717.9 6003.57   1
  -1   3  15 41560.4 5054.33   1
  -1  -3  14 4854.15 1837.84   1
  -1   3  14 3519.16 1082.77   1
  -1  -3  13 23649.7 4294.34   1
  -1  -3  12 57824.2 6342.12   1
  -1  -3  11 12459.8 2749.16   1
   1   3 -11 16548.9 3681.38   1
  -1  -3  10 25497.9 3809.85   1
   1   3 -10 31342.3 4918.05   1
  -1  -3   9 8846.26 2232.99   1
   1   3  -9 10066.4 2486.46   1
  -1   3   9 4470.65 1249.19   1
  -1  -3   8 4646.68 1501.63   1
   1   3  -8 6217.84 1878.30   1
  -1  -3   7 18506.6 3040.28   1
   1   3  -7 22193.3 3780.46   1
  -1  -3   6 95841.0 7075.13   1
  -1  -3   5 37603.5 4235.35   1
   1  -3   2 47.5568 1153.16   1
  -1   3  -2 489.014 511.712   1
  -1   3  -3 73573.7 6753.15   1
   1  -3   3 57916.9 8085.22   1
  -1   3  -4 92344.3 7251.83   1
   1  -3   4 81778.0 9196.03   1
  -1   3  -5 486698. 16491.1   1
   1  -3   5 543449. 23464.4   1
   1  -3   6 4389.25 3032.26   1
  -1   3  -6 3850.01 1478.15   1
  -1   3  -7 197255. 9804.78   1
   1  -3   7 219754. 17866.7   1
  -1  -3  -8 36.5183 275.750   1
   1  -3   8 3342.94 3269.71   1
  -1   3  -8 1388.52 1234.34   1
  -1   3  -9 22731.7 3574.92   1
  -1  -3  -9 17878.0 1779.48   1
  -1  -3 -10 1195.95 416.724   1
  -1   3 -10 4637.75 2473.45   1
  -1   3 -11 143044. 9377.85   1
  -1  -3 -11 111109. 5116.53   1
  -1   3 -12 28849.6 4278.57   1
  -1  -3 -12 22692.5 2603.81   1
  -1   3 -13 109993. 9101.41   1
  -1  -3 -13 132224. 7315.16   1
  -1   3 -14 299.093 463.766   1
   1  -3  14-564.636 2267.31   1
  -1   3 -15 10466.1 3379.40   1
   1  -3  15 8568.81 5183.74   1
   1  -3  16 6488.34 5787.04   1
  -1  -4  15 152157. 13110.1   1
  -1  -4  14 102677. 9161.54   1
  -1   4  14 97033.4 7799.12   1
  -1   4  13 18335.6 2687.05   1
  -1  -4  13 17588.6 3674.17   1
   1   4 -13 21269.8 4697.17   1
  -1  -4  12 18773.0 4060.78   1
   1   4 -12 21965.1 4593.84   1
  -1  -4  11 20067.7 3851.94   1
   1   4 -11 21481.1 4807.96   1
  -1  -4  10 13180.9 2840.15   1
   1   4 -10 16431.8 3374.27   1
   1   4  -9 103698. 8945.29   1
  -1  -4   9 92095.9 7537.29   1
  -1   4   9 86117.7 3430.03   1
  -1  -4   8 37695.0 4851.90   1
   1   4  -8 41375.4 5425.90   1
  -1  -4   7 8642.55 2171.79   1
   1   4  -7 8496.12 2582.42   1
  -1  -4   6 28716.8 3926.82   1
   1   4  -6 35980.5 4678.87   1
  -1  -4   5 103085. 7550.90   1
   1   4  -5 117010. 8426.84   1
   1   4  -4 3755.77 1259.52   1
  -1  -4   4 3084.84 1191.33   1
  -1   4   1 5806.57 2139.98   1
  -1   4   0 87823.4 8013.87   1
  -1   4  -1 26524.6 4425.39   1
   1  -4   1 14315.4 3507.09   1
  -1   4  -2 137483. 8621.73   1
   1  -4   2 82727.1 10237.6   1
  -1   4  -3 111547. 7923.94   1
   1  -4   3 114124. 10345.3   1
  -1   4  -4 24671.7 3621.85   1
   1  -4   4 23931.8 5088.71   1
  -1   4  -5 125421. 8241.80   1
   1  -4   5 107605. 11790.7   1
  -1   4  -6 338732. 13215.0   1
   1  -4   6 348691. 22657.6   1
   1  -4   7 7912.14 3004.47   1
  -1   4  -7 6800.10 2114.08   1
  -1   4  -8 105607. 8139.00   1
   1  -4   8 123616. 14823.8   1
  -1   4  -9 5167.03 2539.61   1
  -1  -4  -9 1310.73 437.664   1
   1  -4   9 4052.12 2459.56   1
   1  -4  10 22531.6 5941.28   1
  -1  -4 -10 9349.29 1210.01   1
  -1   4 -10 17359.9 3274.59   1
   1  -4  11 20293.5 6533.65   1
  -1   4 -11 15683.6 3150.57   1
  -1  -4 -11 9630.27 1467.31   1
  -1   4 -12 22204.4 4073.89   1
  -1  -4 -12 16384.6 1939.56   1
   1  -4  12 27999.3 7989.34   1
  -1   4 -13 716.633 732.197   1
   1  -4  13 5066.87 4834.58   1
   1  -4  14 42312.1 9600.23   1
  -1   4 -14 28068.7 4739.09   1
   1  -4  15 2387.90 3311.94   1
  -1  -5  14 1673.68 1347.43   1
  -1  -5  13 304.848 123.949   1
   1   5 -13-628.971 1360.83   1
  -1  -5  12-8465.66 3331.50   1
   1   5 -12-237.411 374.889   1
  -1  -5  11 2252.18 1489.21   1
   1   5 -11 1610.23 1266.60   1
  -1  -5  10 94453.6 8401.58   1
   1   5 -10 113289. 9559.88   1
   1   5  -9 54520.8 6568.06   1
  -1  -5   9 46617.7 5591.17   1
  -1  -5   8 27767.0 4329.85   1
   1   5  -8 33417.6 5014.70   1
  -1  -5   7 3138.42 1407.72   1
   1   5  -7 2762.72 1407.66   1
   1   5  -6 18903.0 3558.27   1
  -1  -5   6 18350.7 3126.10   1
  -1  -5   5 6077.22 1738.92   1
   1   5  -5 6509.48 1995.54   1
  -1  -5   4 226268. 10544.1   1
   1   5  -4 217526. 11279.4   1
  -1  -5   3 5474.24 1571.54   1
  -1   5   3 4833.90 1539.58   1
   1   5  -3 5105.20 1596.75   1
  -1   5   2 177975. 10330.1   1
  -1  -5   2 187201. 9528.77   1
  -1   5   1 159639. 9177.74   1
  -1  -5   1 142629. 7958.47   1
  -1   5   0 94193.1 7099.18   1
   1  -5   0 66091.9 8311.18   1
  -1   5  -1 93721.8 7162.21   1
   1  -5   1 68689.3 9495.24   1
  -1   5  -2 353494. 13541.2   1
   1  -5   2 330978. 19123.4   1
  -1   5  -3 118162. 8420.58   1
   1  -5   3 95491.7 10512.5   1
   1  -5   4 3739.22 1711.68   1
   1  -5   5 610.036 3037.33   1
  -1   5  -5 26.6303 367.635   1
  -1   5  -6 48028.6 5605.64   1
   1  -5   6 50360.4 9449.65   1
  -1   5  -7 78495.2 7266.03   1
   1  -5   7 92629.4 12475.9   1
  -1   5  -8 246.801 204.634   1
   1  -5   8 1541.65 2455.31   1
  -1   5  -9 77910.1 7323.41   1
   1  -5   9 92814.8 13822.5   1
  -1   5 -10 63161.3 6805.20   1
   1  -5  10 69939.1 12758.7   1
   1  -5  11 60559.5 11875.7   1
  -1   5 -11 56027.0 6517.75   1
  -1   5 -12 718.060 1005.26   1
   1  -5  12 4208.46 4835.90   1
  -1   5 -13-151.902 814.349   1
   1  -5  13 4348.16 4123.73   1
   1  -5  14 4173.00 3927.08   1
  -1  -6  12 2098.16 917.787   1
  -1  -6  11 19984.4 4345.79   1
   1   6 -11 21985.2 4719.09   1
  -1  -6  10 12710.5 3580.47   1
   1   6 -10 14755.0 3818.73   1
  -1  -6   9 80555.7 8022.05   1
   1   6  -9 98822.5 9266.56   1
  -1  -6   8 68021.7 7285.40   1
   1   6  -8 83101.9 8321.02   1
  -1  -6   7 29510.9 4376.08   1
  -1   6   7 23572.3 1887.49   1
  -1  -6   6 41514.5 5367.03   1
  -1   6   6 39060.2 2940.27   1
   1   6  -6 46607.4 5630.28   1
  -1  -6   5 96128.8 7781.47   1
  -1   6   5 99989.3 5305.62   1
   1   6  -5 104901. 8118.38   1
  -1  -6   4 552.479 227.454   1
   1   6  -4 838.553 670.666   1
  -1   6   4 358.818 835.786   1
  -1  -6   3 54546.9 5524.22   1
   1   6  -3 60297.6 6020.34   1
  -1   6   3 53958.6 4668.22   1
  -1  -6   2 11903.1 2540.74   1
   1   6  -2 10913.9 2599.57   1
  -1   6   2 12762.5 2417.96   1
  -1  -6   1 1613.00 1008.47   1
  -1   6   1 1483.16 805.863   1
  -1  -6   0 35639.9 4072.81   1
  -1   6   0 33583.4 4066.97   1
  -1  -6  -1 186216. 8952.07   1
  -1   6  -1 216514. 10405.3   1
  -1   6  -2 111346. 7540.79   1
   1  -6   2 125165. 12120.2   1
  -1  -6  -2 119982. 6878.72   1
  -1   6  -3 56560.9 5625.18   1
   1  -6   3 55235.2 8766.93   1
  -1  -6  -3 66343.8 4677.98   1
   1  -6   4 886.337 1679.22   1
  -1   6  -4 248.432 689.619   1
  -1  -6  -4 251.667 189.481   1
  -1   6  -5 5083.82 1931.77   1
   1  -6   5 6500.45 3679.67   1
  -1  -6  -5 4526.39 892.348   1
  -1  -6  -6 53814.4 2919.35   1
  -1   6  -6 67324.1 6654.90   1
   1  -6   6 78525.7 12086.4   1
  -1   6  -7 102248. 8143.89   1
   1  -6   7 113423. 15222.8   1
  -1   6  -8 2128.75 967.525   1
   1  -6   8 1841.42 2038.34   1
  -1   6  -9 7735.95 2476.71   1
   1  -6   9 8964.73 4256.44   1
  -1   6 -10 345.651 492.851   1
   1  -6  10-1162.93 1240.31   1
  -1   6 -11 263.750 306.013   1
   1  -6  11 294.768 2663.82   1
   1  -6  12 1753.20 2377.88   1
  -1  -7  11 21181.3 4791.36   1
  -1  -7  10 7780.30 2986.90   1
   1   7 -10 10260.7 3254.52   1
  -1  -7   9 23289.1 4621.94   1
   1   7  -9 26773.7 5004.45   1
  -1  -7   8-258.513 685.875   1
   1   7  -8 2005.38 1266.40   1
  -1   7   7 8.70083 60.6901   1
  -1  -7   7 882.092 1392.57   1
   1   7  -7 1857.57 1096.55   1
  -1   7   6 5556.46 983.569   1
  -1  -7   6 6266.74 2009.65   1
   1   7  -6 7645.13 2375.88   1
  -1  -7   5 46071.6 5531.01   1
  -1   7   5 49147.8 3829.37   1
   1   7  -5 54005.0 6120.06   1
  -1  -7   4 187206. 11252.7   1
  -1   7   4 180681. 7986.58   1
   1   7  -4 208135. 11888.4   1
  -1  -7   3 48463.7 5853.26   1
  -1   7   3 39366.1 3959.24   1
   1   7  -3 44303.5 5570.51   1
  -1  -7   2 596.322 800.279   1
  -1   7   2 417.810 339.401   1
   1   7  -2 20.1196 482.991   1
  -1  -7   1 6545.01 1929.42   1
   1  -7  -1 5679.08 2888.31   1
  -1   7   1 6050.99 1682.82   1
  -1  -7   0 2011.82 866.710   1
   1  -7   0 4742.96 2894.91   1
  -1   7   0 2896.37 1160.81   1
  -1  -7  -1 69545.4 5640.32   1
  -1   7  -1 64960.0 6128.22   1
   1  -7   1 56439.8 9306.22   1
  -1  -7  -2 1046.72 414.978   1
  -1   7  -2 1838.19 1140.58   1
   1  -7   2 1282.47 1433.70   1
  -1  -7  -3 44062.4 4032.65   1
  -1   7  -3 47675.3 5517.84   1
   1  -7   3 44729.0 8379.18   1
  -1  -7  -4 85809.0 5317.63   1
  -1   7  -4 92532.6 7904.91   1
   1  -7   4 89104.4 13273.6   1
  -1  -7  -5 9457.40 1462.48   1
  -1   7  -5 9434.04 2390.55   1
   1  -7   5 8634.16 3933.51   1
  -1   7  -6 144.054 568.571   1
  -1  -7  -6 179.423 364.914   1
  -1   7  -7-19.6369 269.260   1
  -1  -7  -7 0.40355 112.581   1
  -1   7  -8 37852.3 5566.63   1
   1  -7   8 15986.3 3394.26   1
  -1   7  -9 6022.62 2196.53   1
   1  -7   9 4532.72 3838.61   1
  -1   7 -10 20282.7 4161.10   1
   1  -7  10 20715.4 7199.33   1
   1  -7  11 44281.2 11371.5   1
  -1  -8   9 12593.1 3461.88   1
  -1  -8   8 92485.1 10160.3   1
   1   8  -8 102119. 10323.1   1
  -1  -8   7 27620.9 5206.97   1
   1   8  -7 29305.4 5369.52   1
  -1   8   7 32806.8 2714.64   1
  -1   8   6 206.159 186.885   1
  -1  -8   6-163.678 742.745   1
   1   8  -6-1205.94 1140.49   1
  -1   8   5 18046.6 2512.10   1
  -1  -8   5 15455.9 3392.05   1
   1   8  -5 16263.2 3654.06   1
  -1   8   4 6732.97 1569.69   1
  -1  -8   4 5474.73 1936.89   1
   1   8  -4 8113.29 2438.44   1
  -1   8   3 16991.0 2559.66   1
  -1  -8   3 14048.8 3117.45   1
   1   8  -3 19342.5 3738.31   1
  -1  -8   2 446.455 1147.65   1
  -1   8   2 151.505 179.285   1
   1   8  -2-204.596 413.619   1
  -1  -8   1 25633.0 3963.57   1
  -1   8   1 25734.6 3603.05   1
   1  -8  -1 16555.2 5258.51   1
  -1  -8   0 194829. 10572.1   1
  -1   8   0 194859. 10196.7   1
   1  -8   0 170126. 18394.3   1
  -1  -8  -1 436.326 301.580   1
  -1   8  -1 976.716 739.455   1
   1  -8   1 201.086 543.031   1
  -1  -8  -2 5077.64 1474.21   1
  -1   8  -2 5555.38 1892.63   1
   1  -8   2 6705.26 3248.02   1
  -1   8  -3 993.953 760.246   1
  -1  -8  -3 954.380 687.056   1
   1  -8   3 1666.30 2481.53   1
   1  -8   4 4021.95 3177.23   1
  -1   8  -4 3983.04 1632.81   1
  -1  -8  -4 3922.25 1266.71   1
   1  -8   5 907.843 2534.41   1
  -1   8  -5 637.930 747.304   1
  -1  -8  -5 456.581 467.507   1
  -1   8  -6 70203.2 7499.25   1
  -1  -8  -6 53728.8 3984.00   1
   1  -8   6 54892.5 11601.4   1
  -1  -8  -7-398.288 315.329   1
  -1   8  -7-527.131 703.615   1
   1  -8   7 830.290 1034.00   1
  -1   8  -8 125484. 10515.0   1
   1  -8   8 123825. 18978.3   1
   1  -8   9 1518.33 2432.15   1
  -1  -9   8 20660.1 4821.95   1
  -1  -9   7 10883.1 3476.34   1
   1   9  -7 11359.7 3568.52   1
  -1   9   7 13091.2 1785.81   1
  -1  -9   6 2185.66 1551.11   1
   1   9  -6 2576.05 1230.35   1
  -1   9   6 2761.65 894.181   1
  -1   9   5 4048.90 1252.27   1
  -1  -9   5 2229.21 1471.36   1
   1   9  -5 2613.61 1348.04   1
  -1   9   4 90138.6 6186.55   1
  -1  -9   4 90826.1 9566.14   1
   1   9  -4 93457.5 9490.79   1
  -1   9   3 229.001 565.940   1
  -1  -9   3-678.064 1616.41   1
   1   9  -3-544.751 1325.21   1
  -1   9   2 88440.1 7191.70   1
  -1  -9   2 55377.7 6047.92   1
  -1   9   1 27505.9 4119.99   1
  -1  -9   1 23249.0 4217.59   1
   1  -9  -1 14857.9 5067.31   1
   1  -9   0 3209.25 3051.18   1
  -1   9   0 3820.72 1529.50   1
  -1  -9   0 1519.83 821.213   1
  -1   9  -1 12900.4 2999.44   1
  -1  -9  -1 12506.1 2975.54   1
   1  -9   1 8901.84 4289.96   1
  -1   9  -2 1470.20 984.594   1
  -1  -9  -2-156.425 315.437   1
   1  -9   2 519.813 905.266   1
  -1   9  -3 8735.02 2612.25   1
   1  -9   3 7541.99 3883.96   1
  -1  -9  -3 4377.77 1365.85   1
  -1   9  -4 103413. 9302.72   1
  -1  -9  -4 74992.8 5824.80   1
   1  -9   4 88476.4 14242.0   1
  -1   9  -5-275.817 724.308   1
   1  -9   5 1253.36 2807.66   1
  -1  -9  -5-139.796 369.789   1
   1  -9   6 1845.91 2497.97   1
  -1   9  -6 392.082 379.749   1
  -1  -9  -6 313.910 342.608   1
   1  -9   7 27913.8 9015.75   1
   1  -9   8-1008.25 2335.90   1
  -1 -10   6 2158.38 1653.77   1
  -1  10   6 2741.60 863.818   1
  -1 -10   5 34629.3 6263.83   1
   1  10  -5 37081.7 6299.26   1
  -1  10   5 42406.5 4443.47   1
  -1 -10   4 1572.21 1131.14   1
   1  10  -4-12.0046 894.793   1
  -1  10   4 133.711 268.359   1
  -1  10   3 39273.5 4763.56   1
  -1 -10   3 33161.1 5824.46   1
  -1  10   2 1096.18 912.476   1
  -1 -10   2 1491.43 1100.98   1
  -1  10   1 17777.0 3613.85   1
   1 -10  -1 19271.9 7468.63   1
  -1 -10   1 9492.30 2861.71   1
  -1  10   0 2889.26 1612.30   1
  -1 -10   0 284.183 591.398   1
   1 -10   1 7857.28 4989.66   1
  -1  10  -1 12167.2 2961.78   1
  -1 -10  -1 10300.6 2631.40   1
  -1  10  -2 5977.79 2131.28   1
  -1 -10  -2 5976.74 2052.94   1
   1 -10   2 10286.9 6539.01   1
  -1  10  -3 40786.9 5860.80   1
  -1 -10  -3 44448.9 5665.57   1
   1 -10   3 41543.8 9325.46   1
  -1  10  -4-2830.34 2029.41   1
   1 -10   4-382.389 2513.64   1
  -1 -10  -4 217.554 555.002   1
  -1  10  -5 31851.2 5494.64   1
   1 -10   5 37642.3 10641.1   1
  -1 -10  -5 25324.0 4199.45   1
   1 -10   6 11651.6 6499.50   1
  -1  11   5 39429.2 4444.17   1
  -1 -11   4 4245.20 2506.95   1
  -1  11   4 3523.15 1336.28   1
  -1 -11   3 12786.1 4110.56   1
  -1  11   3 14401.6 3220.67   1
  -1 -11   2 12897.5 4039.83   1
  -1  11   2 10189.6 2518.11   1
  -1 -11   1 9729.37 3282.85   1
   1 -11  -1 7949.20 4249.97   1
  -1  11   1 10057.4 2694.00   1
  -1  11   0-614.560 650.569   1
   1 -11   0-2046.02 2494.05   1
  -1 -11   0 1424.15 1362.34   1
  -1  11  -1 82926.3 8792.33   1
  -1 -11  -1 75784.9 8911.83   1
   1 -11   1 66249.6 15942.6   1
  -1  11  -2-613.589 1079.35   1
  -1 -11  -2-72.2977 343.829   1
   1 -11   2 7.28953 1470.80   1
  -1  11  -3 51759.8 6936.80   1
  -1 -11  -3 45864.8 6296.08   1
   1 -11   3 40212.2 10285.5   1
   1 -11   4 28433.0 8090.37   1
  -1  12   4 1713.25 1083.35   1
  -1  12   3 2833.65 1513.91   1
  -1 -12   3 2472.69 601.618   1
  -1  12   2 252.755 1002.80   1
  -1 -12   2-404.921 1155.65   1
  -1  12   1 234.088 637.707   1
  -1 -12   1-44.0560 179.128   1
  -1 -12   0 40419.6 7302.31   1
  -1  12   0 37853.4 5705.30   1
  -1 -12  -1 8324.72 3036.55   1
   1 -12   1 12061.2 5169.66   1
  -1  12  -1 12499.1 3488.57   1
   1 -12   2 7583.08 6119.13   1
  -1 -12  -2 7431.69 3023.97   1
  -1  12  -2 9134.53 3115.66   1
   1 -12   3 8676.32 4349.07   1
  -1  13   2 16799.8 3679.31   1
  -1 -13   1 442.745 425.489   1
  -1  13   1-139.435 832.239   1
   1 -13   0 3396.45 4337.33   1
  -1 -13   0 783.183 1128.95   1
  -1  13   0 890.953 620.466   1
   1 -13   1-4984.22 5815.14   1
  -2   0 -12 106601. 8544.45   1
  -2   0 -13-196.399 625.791   1
  -2   0 -14 11546.3 2726.14   1
  -2   0 -15 236.011 416.483   1
  -2   1 -12 88465.0 8312.44   1
  -2   1 -13 513.036 711.149   1
  -2  -1 -13-83.0173 427.934   1
  -2   1 -14 1634.52 1276.23   1
  -2  -1 -14 747.180 128.756   1
  -2   1 -15 2055.92 968.461   1
  -2   1 -16 656.716 176.158   1
  -2   1 -17 18882.0 4023.86   1
  -2   2 -11 55246.0 6602.91   1
  -2   2 -12 50367.4 5938.84   1
  -2   2 -13 93563.6 8287.94   1
  -2  -2 -13 74742.7 6067.88   1
  -2   2 -14 4009.57 1858.17   1
  -2  -2 -14 2723.16 1142.61   1
  -2   2 -16 891.005 1027.05   1
  -2   3 -10 4324.04 1721.09   1
  -2   3 -11 22564.5 4472.79   1
  -2   3 -12 15553.6 3172.85   1
  -2   3 -13 809.937 712.634   1
  -2  -3 -13 68.2618 96.0380   1
  -2   3 -14 6040.17 2187.68   1
  -2   3 -15 2941.96 1607.02   1
  -2   4  -9 18598.1 3882.05   1
  -2   4 -10 22775.6 4819.25   1
  -2   4 -11 47041.8 5843.88   1
  -2   4 -12 52347.0 6634.92   1
  -2   4 -13 493.280 676.278   1
  -2   5  -8 8990.21 2950.92   1
   2  -5   8 7606.98 4552.75   1
  -2   5  -9 2794.03 1860.92   1
   2  -5   9 2302.92 2667.32   1
  -2   5 -10 25904.7 4651.70   1
   2  -5  10 31258.4 9051.56   1
   2  -5  11 28945.3 9343.11   1
  -2   5 -11 23240.9 4400.99   1
   2  -5  12 21939.5 8885.01   1
  -2   5 -12 17419.7 4044.63   1
   2  -5  13 10643.7 6576.64   1
  -2   6  -6 9783.45 2970.67   1
  -2   6  -7 25887.5 4969.28   1
   2  -6   7 25670.9 7729.95   1
  -2   6  -8 35651.1 5698.84   1
   2  -6   8 38469.4 9985.59   1
  -2   6  -9 133450. 10336.4   1
   2  -6   9 151511. 20421.7   1
   2  -6  10-3664.57 4503.34   1
  -2   6 -10-51.9896 445.566   1
   2  -6  11 61.3514 2446.57   1
  -2   7  -5 7004.85 2519.56   1
  -2   7  -6 42339.1 6540.11   1
   2  -7   6 35369.6 9339.79   1
   2  -7   7 4900.48 3646.76   1
  -2   7  -7 7066.40 2422.58   1
   2  -7   8 2530.32 2342.69   1
  -2   7  -8 5131.47 1922.09   1
  -2   7  -9 19261.9 4463.31   1
   2  -7   9 15364.3 6265.03   1
   2  -7  10 73733.2 15975.9   1
  -2   8  -2 17480.4 3984.92   1
  -2   8  -3 6230.77 2299.49   1
  -2   8  -4 9077.31 3006.52   1
   2  -8   5 7162.25 4937.18   1
  -2   8  -5 2721.71 1362.43   1
  -2   8  -6 109086. 9519.01   1
   2  -8   6 108103. 17046.6   1
   2  -8   7 13016.4 5851.48   1
  -2   8  -7 14089.9 3538.59   1
   2  -8   8 14925.5 6232.88   1
  -2   9   1 15594.7 3679.07   1
  -2   9   0 3325.31 1732.71   1
  -2   9  -1 49.9887 481.560   1
  -2   9  -2 194672. 12972.0   1
  -2   9  -3 3364.94 1579.89   1
  -2   9  -4 35713.9 5543.65   1
  -2   9  -5 23533.5 4993.91   1
   2  -9   5 14967.2 5999.57   1
  -2   9  -6 25025.3 4694.33   1
   2  -9   6 25995.2 8965.33   1
   2  -9   7 19555.3 8496.48   1
  -2  10   5 1887.76 1125.91   1
  -2  10   4 366.762 436.910   1
  -2  10   3 900.855 773.071   1
  -2  10   2 15375.1 3387.46   1
  -2  10   1 33761.0 5254.82   1
  -2  10   0-495.254 851.410   1
  -2  10  -1 42034.8 6146.33   1
  -2  10  -2-320.824 720.925   1
  -2  10  -3 1069.56 808.581   1
  -2  10  -4 952.214 1356.64   1
   2 -10   5 1690.11 3795.48   1
  -2  11   5 147.712 226.320   1
  -2  11   4 866.864 460.304   1
  -2  11   3 72544.5 7406.71   1
  -2  11   2 7318.34 2259.91   1
  -2  11   1 3569.84 1670.58   1
  -2  11   0 204.674 666.804   1
  -2  11  -1 19502.4 4219.51   1
  -2  11  -2 9757.68 2836.54   1
  -2  12   3 1054.47 950.522   1
  -2  12   2 30863.1 5271.63   1
  -2  12   1 2459.53 1460.15   1
  -2  12   0 5562.79 2453.55   1
  -2  12  -1 6073.69 2427.17   1
  -2  13   1 1339.79 933.982   1
   0   0   0    0.00    0.00   0
TITL p4_cr3_s2 in P2(1)/c
REM P2(1)/c (#14 in standard setting)
CELL 0.28960   4.478824   6.716789   9.242150  90.0000  90.6286  90.0000
ZERR    1.00   0.006888   0.000576   0.000724   0.0000   0.0255   0.0000
LATT  1
SYMM -x, y+1/2,-z+1/2
SFAC H B O Si Ca
UNIT 1.00 1.00 5.00 1.00 1.00
TREF
HKLF 4
END
;
_shelx_hkl_checksum              6567
loop_
_space_group_symop_operation_xyz
'x, y, z'
'-x, y+1/2, -z+1/2'
'-x, -y, -z'
'x, -y-1/2, z-1/2'
loop_
_atom_site_label
_atom_site_type_symbol
_atom_site_fract_x
_atom_site_fract_y
_atom_site_fract_z
_atom_site_U_iso_or_equiv
_atom_site_adp_type
_atom_site_occupancy
_atom_site_site_symmetry_order
_atom_site_calc_flag
_atom_site_refinement_flags_posn
_atom_site_refinement_flags_adp
Ca1 Ca 0.0002(6) 0.63005(10) 0.18073(8) 0.0212(19) Uani 1 1 d . .
Si1 Si 0.5312(9) 0.32208(16) 0.06636(11) 0.021(2) Uani 1 1 d . .
B1 B 0.592(5) 0.0580(6) -0.1520(6) 0.0080(7) Uiso 1 1 d . .
O1 O 0.260(3) 0.4607(5) 0.0160(3) 0.020(6) Uani 1 1 d . .
O2 O 0.725(3) 0.1775(4) -0.0381(3) 0.025(6) Uani 1 1 d . .
O3 O 0.708(3) 0.3631(4) 0.2158(3) 0.027(6) Uani 1 1 d . .
O4 O 0.313(2) 0.1407(4) 0.1316(3) 0.028(6) Uani 1 1 d . .
O5 O 0.266(3) 0.0772(4) -0.1594(3) 0.027(7) Uani 1 1 d D .
H H 0.149(19) 0.027(9) -0.090(7) 0.010 Uiso 1 1 d D U
loop_
_atom_site_aniso_label
_atom_site_aniso_U_11
_atom_site_aniso_U_22
_atom_site_aniso_U_33
_atom_site_aniso_U_23
_atom_site_aniso_U_13
_atom_site_aniso_U_12
Ca1 0.047(6) 0.0099(4) 0.0065(3) -0.0006(2) -0.0047(8) -0.0013(5)
Si1 0.049(7) 0.0094(5) 0.0047(4) -0.0001(3) -0.0054(10) -0.0006(8)
O1 0.042(19) 0.0102(10) 0.0079(10) 0.0000(9) -0.004(2) -0.0041(19)
O2 0.059(18) 0.0105(10) 0.0045(9) -0.0010(8) -0.011(2) 0.005(2)
O3 0.068(19) 0.0096(10) 0.0046(9) -0.0009(8) -0.010(3) -0.003(2)
O4 0.070(18) 0.0074(9) 0.0065(10) -0.0003(8) -0.006(3) -0.0028(18)
O5 0.07(2) 0.0097(10) 0.0060(10) 0.0009(9) -0.003(3) 0.004(2)
loop_
_atom_type_symbol
_atom_type_description
_atom_type_scat_dispersion_real
_atom_type_scat_dispersion_imag
_atom_type_scat_source
O O 0.0056 0.0036 'International Tables Vol C Tables 4.2.6.8 and 6.1.1.4'
Si Si 0.0522 0.0431 'International Tables Vol C Tables 4.2.6.8 and 6.1.1.4'
B B 0.0004 0.0004 'International Tables Vol C Tables 4.2.6.8 and 6.1.1.4'
Ca Ca 0.1611 0.1926 'International Tables Vol C Tables 4.2.6.8 and 6.1.1.4'
H H 0.0000 0.0000 'International Tables Vol C Tables 4.2.6.8 and 6.1.1.4'
loop_
_geom_angle_atom_site_label_1
_geom_angle_atom_site_label_2
_geom_angle_atom_site_label_3
_geom_angle
_geom_angle_site_symmetry_1
_geom_angle_site_symmetry_3
O2 Ca1 O1 87.9(3) 3_665 3_565
O2 Ca1 O1 66.3(2) 3_665 .
O1 Ca1 O1 65.0(5) 3_565 .
O2 Ca1 O4 142.50(14) 3_665 2
O1 Ca1 O4 108.2(4) 3_565 2
O1 Ca1 O4 151.22(17) . 2
O2 Ca1 O3 151.16(12) 3_665 1_455
O1 Ca1 O3 66.4(2) 3_565 1_455
O1 Ca1 O3 90.0(3) . 1_455
O4 Ca1 O3 62.8(2) 2 1_455
O2 Ca1 O3 61.59(18) 3_665 2_655
O1 Ca1 O3 146.36(15) 3_565 2_655
O1 Ca1 O3 109.9(4) . 2_655
O4 Ca1 O3 90.8(3) 2 2_655
O3 Ca1 O3 146.35(12) 1_455 2_655
O2 Ca1 O5 75.1(3) 3_665 3_565
O1 Ca1 O5 84.2(2) 3_565 3_565
O1 Ca1 O5 130.34(16) . 3_565
O4 Ca1 O5 73.3(2) 2 3_565
O3 Ca1 O5 113.0(4) 1_455 3_565
O3 Ca1 O5 74.9(3) 2_655 3_565
O2 Ca1 O5 115.9(4) 3_665 4_566
O1 Ca1 O5 127.40(16) 3_565 4_566
O1 Ca1 O5 82.1(2) . 4_566
O4 Ca1 O5 81.3(3) 2 4_566
O3 Ca1 O5 74.2(3) 1_455 4_566
O3 Ca1 O5 81.8(2) 2_655 4_566
O5 Ca1 O5 144.89(12) 3_565 4_566
O2 Ca1 B1 170.4(4) 3_665 4_466
O1 Ca1 B1 89.4(3) 3_565 4_466
O1 Ca1 B1 120.6(2) . 4_466
O4 Ca1 B1 31.26(16) 2 4_466
O3 Ca1 B1 31.80(17) 1_455 4_466
O3 Ca1 B1 118.3(2) 2_655 4_466
O5 Ca1 B1 95.5(4) 3_565 4_466
O5 Ca1 B1 72.8(4) 4_566 4_466
O2 Ca1 B1 30.92(16) 3_665 3_665
O1 Ca1 B1 117.6(2) 3_565 3_665
O1 Ca1 B1 88.4(3) . 3_665
O4 Ca1 B1 117.7(2) 2 3_665
O3 Ca1 B1 174.4(4) 1_455 3_665
O3 Ca1 B1 30.67(16) 2_655 3_665
O5 Ca1 B1 71.9(4) 3_565 3_665
O5 Ca1 B1 100.2(3) 4_566 3_665
B1 Ca1 B1 147.86(19) 4_466 3_665
O2 Ca1 Si1 123.94(14) 3_665 1_455
O1 Ca1 Si1 36.98(17) 3_565 1_455
O1 Ca1 Si1 77.6(3) . 1_455
O4 Ca1 Si1 81.9(2) 2 1_455
O3 Ca1 Si1 29.46(11) 1_455 1_455
O3 Ca1 Si1 172.5(3) 2_655 1_455
O5 Ca1 Si1 101.0(3) 3_565 1_455
O5 Ca1 Si1 98.89(19) 4_566 1_455
B1 Ca1 Si1 55.33(17) 4_466 1_455
B1 Ca1 Si1 154.43(12) 3_665 1_455
O2 Ca1 Si1 29.59(14) 3_665 3_665
O1 Ca1 Si1 77.4(3) 3_565 3_665
O1 Ca1 Si1 36.79(16) . 3_665
O4 Ca1 Si1 171.50(13) 2 3_665
O3 Ca1 Si1 125.67(16) 1_455 3_665
O3 Ca1 Si1 81.2(2) 2_655 3_665
O5 Ca1 Si1 101.5(2) 3_565 3_665
O5 Ca1 Si1 100.4(3) 4_566 3_665
B1 Ca1 Si1 157.18(14) 4_466 3_665
B1 Ca1 Si1 53.9(2) 3_665 3_665
Si1 Ca1 Si1 105.93(10) 1_455 3_665
O1 Si1 O3 121.1(3) . .
O1 Si1 O2 125.7(3) . .
O3 Si1 O2 110.6(5) . .
O1 Si1 O4 94.8(5) . .
O3 Si1 O4 95.7(3) . .
O2 Si1 O4 95.5(3) . .
O1 Si1 O1 79.2(6) . 3_665
O3 Si1 O1 88.4(3) . 3_665
O2 Si1 O1 87.3(4) . 3_665
O4 Si1 O1 173.9(5) . 3_665
O1 Si1 Si1 43.7(3) . 3_665
O3 Si1 Si1 106.62(15) . 3_665
O2 Si1 Si1 108.20(17) . 3_665
O4 Si1 Si1 138.4(4) . 3_665
O1 Si1 Si1 35.5(3) 3_665 3_665
O1 Si1 Ca1 102.7(3) . 1_655
O3 Si1 Ca1 43.4(2) . 1_655
O2 Si1 Ca1 103.6(4) . 1_655
O4 Si1 Ca1 138.69(16) . 1_655
O1 Si1 Ca1 45.05(18) 3_665 1_655
Si1 Si1 Ca1 68.49(12) 3_665 1_655
O1 Si1 Ca1 104.0(3) . 3_665
O3 Si1 Ca1 106.3(4) . 3_665
O2 Si1 Ca1 42.6(2) . 3_665
O4 Si1 Ca1 137.17(19) . 3_665
O1 Si1 Ca1 44.9(2) 3_665 3_665
Si1 Si1 Ca1 69.21(12) 3_665 3_665
Ca1 Si1 Ca1 74.07(10) 1_655 3_665
O1 Si1 Ca1 36.80(13) . 3_565
O3 Si1 Ca1 157.4(3) . 3_565
O2 Si1 Ca1 91.8(3) . 3_565
O4 Si1 Ca1 84.3(3) . 3_565
O1 Si1 Ca1 90.2(3) 3_665 3_565
Si1 Si1 Ca1 61.86(12) 3_665 3_565
Ca1 Si1 Ca1 130.36(6) 1_655 3_565
Ca1 Si1 Ca1 88.25(9) 3_665 3_565
O1 Si1 Ca1 35.60(16) . .
O3 Si1 Ca1 88.1(3) . .
O2 Si1 Ca1 161.0(3) . .
O4 Si1 Ca1 85.2(3) . .
O1 Si1 Ca1 90.4(3) 3_665 .
Si1 Si1 Ca1 61.57(12) 3_665 .
Ca1 Si1 Ca1 87.78(9) 1_655 .
Ca1 Si1 Ca1 130.78(6) 3_665 .
Ca1 Si1 Ca1 69.31(10) 3_565 .
O1 Si1 Ca1 152.78(16) . 2_645
O3 Si1 Ca1 34.47(19) . 2_645
O2 Si1 Ca1 81.5(3) . 2_645
O4 Si1 Ca1 80.4(3) . 2_645
O1 Si1 Ca1 105.4(3) 3_665 2_645
Si1 Si1 Ca1 135.44(18) 3_665 2_645
Ca1 Si1 Ca1 66.96(8) 1_655 2_645
Ca1 Si1 Ca1 97.32(16) 3_665 2_645
Ca1 Si1 Ca1 162.66(7) 3_565 2_645
Ca1 Si1 Ca1 117.22(7) . 2_645
O1 Si1 Ca1 83.8(3) . 2_545
O3 Si1 Ca1 80.0(3) . 2_545
O2 Si1 Ca1 122.2(2) . 2_545
O4 Si1 Ca1 27.52(17) . 2_545
O1 Si1 Ca1 150.5(2) 3_665 2_545
Si1 Si1 Ca1 123.2(2) 3_665 2_545
Ca1 Si1 Ca1 117.72(7) 1_655 2_545
Ca1 Si1 Ca1 164.60(4) 3_665 2_545
Ca1 Si1 Ca1 90.42(15) 3_565 2_545
Ca1 Si1 Ca1 62.38(8) . 2_545
Ca1 Si1 Ca1 79.86(9) 2_645 2_545
O4 B1 O3 110.6(10) 3_655 4_565
O4 B1 O2 107.9(8) 3_655 .
O3 B1 O2 105.5(9) 4_565 .
O4 B1 O5 112.7(11) 3_655 .
O3 B1 O5 107.2(8) 4_565 .
O2 B1 O5 112.6(9) . .
O4 B1 Ca1 55.5(6) 3_655 4_665
O3 B1 Ca1 55.7(6) 4_565 4_665
O2 B1 Ca1 113.6(11) . 4_665
O5 B1 Ca1 133.6(4) . 4_665
O4 B1 Ca1 121.8(12) 3_655 3_665
O3 B1 Ca1 53.1(5) 4_565 3_665
O2 B1 Ca1 52.4(5) . 3_665
O5 B1 Ca1 125.5(3) . 3_665
Ca1 B1 Ca1 81.4(5) 4_665 3_665
Si1 O1 Si1 100.8(6) . 3_665
Si1 O1 Ca1 117.8(2) . 3_565
Si1 O1 Ca1 97.97(15) 3_665 3_565
Si1 O1 Ca1 119.85(19) . .
Si1 O1 Ca1 98.30(16) 3_665 .
Ca1 O1 Ca1 115.0(5) 3_565 .
B1 O2 Si1 123.2(11) . .
B1 O2 Ca1 96.7(5) . 3_665
Si1 O2 Ca1 107.84(18) . 3_665
B1 O3 Si1 128.1(11) 4_566 .
B1 O3 Ca1 92.5(5) 4_566 1_655
Si1 O3 Ca1 107.2(2) . 1_655
B1 O3 Ca1 96.2(5) 4_566 2_645
Si1 O3 Ca1 121.64(19) . 2_645
Ca1 O3 Ca1 106.3(5) 1_655 2_645
B1 O4 Si1 124.0(11) 3_655 .
B1 O4 Ca1 93.2(6) 3_655 2_545
Si1 O4 Ca1 132.27(19) . 2_545
B1 O5 Ca1 126.3(4) . 3_565
B1 O5 Ca1 118.4(3) . 4_565
Ca1 O5 Ca1 101.2(4) 3_565 4_565
B1 O5 H 121(6) . .
Ca1 O5 H 94(5) 3_565 .
Ca1 O5 H 86(5) 4_565 .
loop_
_geom_bond_atom_site_label_1
_geom_bond_atom_site_label_2
_geom_bond_distance
_geom_bond_site_symmetry_2
Ca1 O2 2.228(8) 3_665
Ca1 O1 2.233(7) 3_565
Ca1 O1 2.237(8) .
Ca1 O4 2.244(8) 2
Ca1 O3 2.246(7) 1_455
Ca1 O3 2.247(7) 2_655
Ca1 O5 2.306(7) 3_565
Ca1 O5 2.345(6) 4_566
Ca1 B1 2.717(15) 4_466
Ca1 B1 2.793(15) 3_665
Ca1 Si1 3.124(4) 1_455
Ca1 Si1 3.135(4) 3_665
Si1 O1 1.597(11) .
Si1 O3 1.608(6) .
Si1 O2 1.626(7) .
Si1 O4 1.678(7) .
Si1 O1 1.897(7) 3_665
Si1 Si1 2.700(2) 3_665
Si1 Ca1 3.124(4) 1_655
Si1 Ca1 3.135(4) 3_665
Si1 Ca1 3.296(5) 3_565
Si1 Ca1 3.380(4) 2_645
Si1 Ca1 3.594(4) 2_545
B1 O4 1.412(8) 3_655
B1 O3 1.433(12) 4_565
B1 O2 1.445(10) .
B1 O5 1.47(2) .
B1 Ca1 2.717(15) 4_665
B1 Ca1 2.793(15) 3_665
O1 Si1 1.897(7) 3_665
O1 Ca1 2.233(7) 3_565
O2 Ca1 2.228(8) 3_665
O3 B1 1.433(12) 4_566
O3 Ca1 2.246(7) 1_655
O3 Ca1 2.247(7) 2_645
O4 B1 1.412(8) 3_655
O4 Ca1 2.244(8) 2_545
O5 Ca1 2.306(7) 3_565
O5 Ca1 2.345(6) 4_565
O5 H 0.90(2) .
