#------------------------------------------------------------------------------
#$Date: 2019-11-24 06:02:49 +0200 (Sun, 24 Nov 2019) $
#$Revision: 236893 $
#$URL: file:///home/coder/svn-repositories/cod/cif/4/34/98/4349857.cif $
#------------------------------------------------------------------------------
#
# This file is available in the Crystallography Open Database (COD),
# http://www.crystallography.net/
#
# All data on this site have been placed in the public domain by the
# contributors.
#
data_4349857
loop_
_publ_author_name
'Gorelova, Liudmila A.'
'Pakhomova, Anna S.'
'Aprilis, Georgios'
'Dubrovinsky, Leonid S.'
'Krivovichev, Sergey V.'
_publ_section_title
;
 Pentacoordinated silicon in the high-pressure modification of datolite,
 CaBSiO4(OH)
;
_journal_issue                   7
_journal_name_full               'Inorganic Chemistry Frontiers'
_journal_page_first              1653
_journal_paper_doi               10.1039/C8QI00257F
_journal_volume                  5
_journal_year                    2018
_chemical_formula_sum            'B Ca H O5 Si'
_chemical_formula_weight         159.99
_space_group_crystal_system      monoclinic
_space_group_IT_number           14
_space_group_name_Hall           '-P 2ybc'
_space_group_name_H-M_alt        'P 1 21/c 1'
_atom_sites_solution_hydrogens   difmap
_audit_creation_method           SHELXL-2014/7
_audit_update_record
;
2018-03-21 deposited with the CCDC.
2018-05-04 downloaded from the CCDC.
;
_cell_angle_alpha                90
_cell_angle_beta                 90.442(14)
_cell_angle_gamma                90
_cell_formula_units_Z            4
_cell_length_a                   4.7730(17)
_cell_length_b                   7.5294(6)
_cell_length_c                   9.5786(6)
_cell_measurement_reflns_used    1857
_cell_measurement_temperature    298(2)
_cell_measurement_theta_max      17.466
_cell_measurement_theta_min      1.785
_cell_volume                     344.22(13)
_computing_structure_refinement  'SHELXL-2014/7 (Sheldrick, 2014)'
_diffrn_ambient_temperature      298(2)
_diffrn_measured_fraction_theta_full 0.462
_diffrn_measured_fraction_theta_max 0.285
_diffrn_measurement_device_type
'esperanto-CrysAlisPro-abstract goniometer imported esperanto images'
_diffrn_radiation_wavelength     0.2984
_diffrn_reflns_av_R_equivalents  0.0390
_diffrn_reflns_av_unetI/netI     0.0440
_diffrn_reflns_Laue_measured_fraction_full 0.462
_diffrn_reflns_Laue_measured_fraction_max 0.285
_diffrn_reflns_limit_h_max       5
_diffrn_reflns_limit_h_min       -4
_diffrn_reflns_limit_k_max       11
_diffrn_reflns_limit_k_min       -10
_diffrn_reflns_limit_l_max       14
_diffrn_reflns_limit_l_min       -15
_diffrn_reflns_number            1857
_diffrn_reflns_point_group_measured_fraction_full 0.462
_diffrn_reflns_point_group_measured_fraction_max 0.285
_diffrn_reflns_theta_full        10.314
_diffrn_reflns_theta_max         17.466
_diffrn_reflns_theta_min         1.785
_exptl_absorpt_coefficient_mu    1.051
_exptl_crystal_colour            colorless
_exptl_crystal_density_diffrn    3.087
_exptl_crystal_density_meas      ?
_exptl_crystal_density_method    none
_exptl_crystal_description       isosymmetric
_exptl_crystal_F_000             320
_exptl_crystal_size_max          0.010
_exptl_crystal_size_mid          0.010
_exptl_crystal_size_min          0.005
_refine_diff_density_max         0.616
_refine_diff_density_min         -0.837
_refine_diff_density_rms         0.155
_refine_ls_extinction_coef       2.1(2)
_refine_ls_extinction_expression Fc^*^=kFc[1+0.001xFc^2^\l^3^/sin(2\q)]^-1/4^
_refine_ls_extinction_method     'SHELXL-2014/7 (Sheldrick 2014'
_refine_ls_goodness_of_fit_ref   1.203
_refine_ls_hydrogen_treatment    refall
_refine_ls_matrix_type           full
_refine_ls_number_parameters     78
_refine_ls_number_reflns         839
_refine_ls_number_restraints     1
_refine_ls_restrained_S_all      1.202
_refine_ls_R_factor_all          0.0471
_refine_ls_R_factor_gt           0.0424
_refine_ls_shift/su_max          0.000
_refine_ls_shift/su_mean         0.000
_refine_ls_structure_factor_coef Fsqd
_refine_ls_weighting_details
'w=1/[\s^2^(Fo^2^)+(0.0949P)^2^] where P=(Fo^2^+2Fc^2^)/3'
_refine_ls_weighting_scheme      calc
_refine_ls_wR_factor_gt          0.1204
_refine_ls_wR_factor_ref         0.1539
_reflns_Friedel_coverage         0.000
_reflns_number_gt                744
_reflns_number_total             839
_reflns_threshold_expression     'I > 2\s(I)'
_cod_data_source_file            c8qi00257f2.cif
_cod_data_source_block           shelx_CCDC11
_cod_depositor_comments
;
The following automatic conversions were performed:

data item '_exptl_crystal_density_meas' value 'none' was changed to
'?' -- the value is perceived as not measured.

Automatic conversion script
Id: cif_fix_values 6909 2019-04-08 15:41:33Z antanas 
;
_cod_original_cell_volume        344.23(13)
_cod_original_sg_symbol_H-M      'P 21/c'
_cod_database_code               4349857
_shelx_shelxl_version_number     2014/7
_shelx_space_group_comment
;
The symmetry employed for this shelxl refinement is uniquely defined
by the following loop, which should always be used as a source of
symmetry information in preference to the above space-group names.
They are only intended as comments.
;
_shelx_res_file
;

    shelx.res created by SHELXL-2014/7


TITL Cr1_p0_s1 in P2(1)/c
REM P2(1)/c (#14 in standard setting)
CELL 0.29840   4.773002   7.529406   9.578647  90.0000  90.4422  90.0000
ZERR    4.00   0.001677   0.000641   0.000642   0.0000   0.0140   0.0000
LATT  1
SYMM -x, y+1/2,-z+1/2
SFAC O Si B Ca H
UNIT 20.00 4.00 4.00 4.00 4.00

L.S. 20
ACTA
BOND $H
HTAB
DFIX 0.90 0.02 H O5
TEMP 25.0
FMAP 2
PLAN 250
REM TWIN 1 0 0 0 1 0 0 0 -1
WGHT    0.094900
EXTI    2.056849
FVAR       6.56723
CA1   4    0.007630    0.606721    0.164989    11.00000    0.00696    0.00972 =
         0.00857   -0.00036    0.00159   -0.00027
SI1   2    0.473583    0.268572    0.083931    11.00000    0.00848    0.00669 =
         0.00638   -0.00044    0.00082   -0.00011
B1    3    0.571257    0.088605   -0.158026    11.00000    0.00587    0.00771 =
         0.00492    0.00078    0.00393   -0.00298
O1    1    0.244637    0.405067    0.035942    11.00000    0.01071    0.00936 =
         0.00957   -0.00033   -0.00026    0.00288
O2    1    0.676528    0.198290   -0.041676    11.00000    0.00842    0.00927 =
         0.00661   -0.00179    0.00432   -0.00045
O3    1    0.680921    0.335984    0.211100    11.00000    0.00563    0.01054 =
         0.00743   -0.00125    0.00051    0.00106
O4    1    0.311511    0.090237    0.145043    11.00000    0.00836    0.00765 =
         0.01092    0.00145    0.00385    0.00111
O5    1    0.258667    0.088209   -0.163543    11.00000    0.01013    0.01178 =
         0.00823    0.00048    0.00114    0.00064
H     5    0.204449    0.035517   -0.085474    11.00000    0.03348

HKLF 4

REM  Cr1_p0_s1 in P2(1)/c
REM R1 =  0.0424 for     744 Fo > 4sig(Fo)  and  0.0471 for all     839 data
REM     78 parameters refined using      1 restraints

END

WGHT      0.0896      0.1355

REM Instructions for potential hydrogen bonds
EQIV $1 -x+1, -y, -z
HTAB O5 O2_$1
HTAB O5 O4

REM Highest difference peak  0.616,  deepest hole -0.837,  1-sigma level  0.155
Q1    1   0.3436  0.3631  0.0806  11.00000  0.05    0.62
Q2    1   0.7729  0.2562  0.2678  11.00000  0.05    0.57
Q3    1   0.1951  0.3142  0.0930  11.00000  0.05    0.53
Q4    1   0.3027 -0.1140 -0.1399  11.00000  0.05    0.51
Q5    1   0.2265  0.2699 -0.1295  11.00000  0.05    0.51
Q6    1   0.6106  0.1141 -0.0024  11.00000  0.05    0.50
Q7    1   0.5336  0.1813 -0.1014  11.00000  0.05    0.48
Q8    1   0.5902  0.2569  0.2391  11.00000  0.05    0.48
Q9    1   0.4868  0.2491 -0.1319  11.00000  0.05    0.47
Q10   1   0.0108  0.3248  0.0702  11.00000  0.05    0.47
Q11   1   0.4037  0.3240  0.0209  11.00000  0.05    0.46
Q12   1   0.8153  0.1844  0.2222  11.00000  0.05    0.45
Q13   1   0.1228 -0.0811 -0.1909  11.00000  0.05    0.44
Q14   1   0.3363  0.4534 -0.0076  11.00000  0.05    0.43
Q15   1   0.4685  0.1145  0.1180  11.00000  0.05    0.43
Q16   1   0.3950  0.0993  0.1254  11.00000  0.05    0.43
Q17   1   0.5945  0.2367 -0.0015  11.00000  0.05    0.43
Q18   1   0.8749  0.2520 -0.0986  11.00000  0.05    0.42
Q19   1   0.5013  0.3243 -0.1689  11.00000  0.05    0.41
Q20   1   0.2480 -0.1031 -0.0510  11.00000  0.05    0.41
Q21   1   0.3556  0.3172  0.1248  11.00000  0.05    0.41
Q22   1   0.0560  0.4849  0.1722  11.00000  0.05    0.40
Q23   1   0.5225  0.1855 -0.0124  11.00000  0.05    0.40
Q24   1   0.1830  0.3828  0.1366  11.00000  0.05    0.40
Q25   1   0.0487  0.4278  0.1270  11.00000  0.05    0.40
Q26   1   0.3727  0.2328  0.0874  11.00000  0.05    0.39
Q27   1   0.8951  0.3765  0.3271  11.00000  0.05    0.39
Q28   1   0.1277  0.7525  0.1707  11.00000  0.05    0.39
Q29   1  -0.0235  0.7348  0.1521  11.00000  0.05    0.39
Q30   1   0.1513  0.2344 -0.1819  11.00000  0.05    0.39
Q31   1  -0.0951  0.6760  0.1985  11.00000  0.05    0.38
Q32   1   0.6331  0.0444 -0.1870  11.00000  0.05    0.38
Q33   1   0.0897  0.3748 -0.0093  11.00000  0.05    0.37
Q34   1   0.3040  0.1250  0.1089  11.00000  0.05    0.36
Q35   1   0.1232  0.1781 -0.2999  11.00000  0.05    0.36
Q36   1   0.3237  0.4354  0.1326  11.00000  0.05    0.36
Q37   1   0.7624  0.2137 -0.0677  11.00000  0.05    0.36
Q38   1   0.0342 -0.0269 -0.1299  11.00000  0.05    0.36
Q39   1   0.1539  0.2461  0.2288  11.00000  0.05    0.35
Q40   1   0.4692  0.4554  0.0324  11.00000  0.05    0.35
Q41   1   0.5615  0.1334 -0.0724  11.00000  0.05    0.35
Q42   1   0.0065  0.1575 -0.1631  11.00000  0.05    0.35
Q43   1   0.5706  0.4188  0.0303  11.00000  0.05    0.35
Q44   1   0.3773  0.1974 -0.2200  11.00000  0.05    0.35
Q45   1   0.5972  0.3052  0.0435  11.00000  0.05    0.35
Q46   1   0.3082 -0.0417 -0.1770  11.00000  0.05    0.34
Q47   1   0.3477  0.1736  0.2106  11.00000  0.05    0.34
Q48   1   0.5927  0.2163 -0.1928  11.00000  0.05    0.33
Q49   1   0.3976  0.2020 -0.1419  11.00000  0.05    0.33
Q50   1   0.6647  0.1799  0.0999  11.00000  0.05    0.33
Q51   1   0.1585  0.0201 -0.1884  11.00000  0.05    0.33
Q52   1   0.8150  0.1873 -0.1166  11.00000  0.05    0.33
Q53   1   0.4324  0.2585  0.2285  11.00000  0.05    0.32
Q54   1   0.3464  0.1964  0.1200  11.00000  0.05    0.32
Q55   1   0.3868 -0.0528 -0.0367  11.00000  0.05    0.32
Q56   1   0.5294  0.3402 -0.0196  11.00000  0.05    0.32
Q57   1   0.5982  0.2612  0.1610  11.00000  0.05    0.32
Q58   1   0.1168  0.6825  0.2093  11.00000  0.05    0.31
Q59   1   0.5822  0.2010  0.2075  11.00000  0.05    0.31
Q60   1   0.3033  0.3013 -0.0405  11.00000  0.05    0.31
Q61   1   0.2858  0.0572 -0.2789  11.00000  0.05    0.31
Q62   1   0.2578  0.0359  0.0907  11.00000  0.05    0.31
Q63   1   0.7385  0.3838  0.1197  11.00000  0.05    0.31
Q64   1   0.7707  0.3050  0.2264  11.00000  0.05    0.31
Q65   1   0.1057 -0.0635 -0.0268  11.00000  0.05    0.31
Q66   1  -0.0026  0.7586  0.0503  11.00000  0.05    0.31
Q67   1  -0.1128  0.6180  0.0933  11.00000  0.05    0.30
Q68   1   0.2480 -0.0059  0.1458  11.00000  0.05    0.30
Q69   1  -0.1563  0.4629  0.1502  11.00000  0.05    0.30
Q70   1  -0.0948  0.4361  0.1150  11.00000  0.05    0.30
Q71   1   0.4189  0.1853  0.2736  11.00000  0.05    0.29
Q72   1  -0.3076  0.6722  0.1916  11.00000  0.05    0.29
Q73   1   0.1427  0.6621  0.1355  11.00000  0.05    0.29
Q74   1   0.0196 -0.0142 -0.2031  11.00000  0.05    0.28
Q75   1   0.1322  0.3207 -0.0495  11.00000  0.05    0.28
Q76   1   0.9233  0.3225  0.2665  11.00000  0.05    0.28
Q77   1   0.1857  0.3173  0.0083  11.00000  0.05    0.28
Q78   1   0.0833  0.6163  0.0200  11.00000  0.05    0.28
Q79   1   0.5041 -0.0275 -0.1206  11.00000  0.05    0.27
Q80   1   0.2850  0.1129  0.2728  11.00000  0.05    0.27
Q81   1   0.1297  0.1176 -0.2701  11.00000  0.05    0.27
Q82   1   0.5849  0.3325  0.1277  11.00000  0.05    0.27
Q83   1   0.5777  0.2633 -0.0653  11.00000  0.05    0.27
Q84   1   0.2202  0.1985  0.1721  11.00000  0.05    0.27
Q85   1   0.4444 -0.0380 -0.3178  11.00000  0.05    0.27
Q86   1   0.8200  0.1671 -0.0412  11.00000  0.05    0.27
Q87   1   0.0674  0.2638  0.0911  11.00000  0.05    0.26
Q88   1   0.3855 -0.0712 -0.1071  11.00000  0.05    0.26
Q89   1   0.5583  0.0992  0.2066  11.00000  0.05    0.26
Q90   1   0.7647  0.3434  0.1914  11.00000  0.05    0.26
Q91   1   0.3983  0.1329  0.0650  11.00000  0.05    0.26
Q92   1   0.2898  0.2373  0.1845  11.00000  0.05    0.26
Q93   1   0.2438  0.1084  0.1888  11.00000  0.05    0.26
Q94   1   0.8832  0.3264  0.1232  11.00000  0.05    0.26
Q95   1   0.8661  0.3076  0.2854  11.00000  0.05    0.26
Q96   1   0.5046  0.5311  0.0784  11.00000  0.05    0.25
Q97   1  -0.0489  0.6719  0.2717  11.00000  0.05    0.25
Q98   1  -0.0763  0.4945  0.2264  11.00000  0.05    0.25
Q99   1   0.9030  0.1736  0.0204  11.00000  0.05    0.25
Q100  1   0.3756  0.1232  0.3265  11.00000  0.05    0.25
Q101  1   0.1528  0.2537  0.1489  11.00000  0.05    0.25
Q102  1   0.4454  0.0433 -0.2289  11.00000  0.05    0.25
Q103  1   0.9419  0.1146 -0.0316  11.00000  0.05    0.25
Q104  1   0.6252  0.3768 -0.0893  11.00000  0.05    0.24
Q105  1   0.1270  0.0803  0.1081  11.00000  0.05    0.24
Q106  1   0.1548 -0.0362 -0.0605  11.00000  0.05    0.24
Q107  1   0.4655  0.4571  0.1913  11.00000  0.05    0.24
Q108  1  -0.1044  0.5633  0.1900  11.00000  0.05    0.23
Q109  1   0.0237  0.1990 -0.1109  11.00000  0.05    0.23
Q110  1   0.1901  0.4540 -0.0477  11.00000  0.05    0.23
Q111  1   0.0166  0.1182  0.1059  11.00000  0.05    0.23
Q112  1   0.7630  0.2958 -0.0189  11.00000  0.05    0.23
Q113  1   0.3531  0.3844  0.1717  11.00000  0.05    0.23
Q114  1   0.4790  0.1399  0.2045  11.00000  0.05    0.23
Q115  1   0.0842  0.5395  0.2195  11.00000  0.05    0.22
Q116  1   0.5139  0.1028 -0.1377  11.00000  0.05    0.22
Q117  1   0.0879  0.6774  0.0602  11.00000  0.05    0.22
Q118  1   0.2882  0.0516  0.2219  11.00000  0.05    0.22
Q119  1   0.5415  0.4230  0.1297  11.00000  0.05    0.22
Q120  1   0.5898  0.0231 -0.0289  11.00000  0.05    0.22
Q121  1   0.8189  0.2612  0.1801  11.00000  0.05    0.22
Q122  1   0.0012  0.1907  0.1605  11.00000  0.05    0.22
Q123  1   0.8164  0.1064 -0.0800  11.00000  0.05    0.22
Q124  1  -0.0051  0.3247 -0.0108  11.00000  0.05    0.21
Q125  1   0.4035  0.0433  0.2894  11.00000  0.05    0.21
Q126  1  -0.0251  0.4568  0.2644  11.00000  0.05    0.21
Q127  1   0.5261  0.1754  0.0590  11.00000  0.05    0.20
Q128  1   0.2880  0.1931 -0.0276  11.00000  0.05    0.20
Q129  1   0.7824  0.2301  0.0219  11.00000  0.05    0.20
Q130  1   0.3173  0.1917 -0.2807  11.00000  0.05    0.19
Q131  1   0.3323  0.5761  0.1476  11.00000  0.05    0.19
Q132  1   1.0265  0.3786  0.2021  11.00000  0.05    0.19
Q133  1  -0.0588  0.5611  0.2825  11.00000  0.05    0.19
Q134  1   0.1154  0.1384 -0.0223  11.00000  0.05    0.19
Q135  1   0.3795  0.5261 -0.0669  11.00000  0.05    0.19
Q136  1   0.1831  0.0037  0.2078  11.00000  0.05    0.17
Q137  1   0.2096  0.5292 -0.0101  11.00000  0.05    0.17
Q138  1   0.9035  0.4009  0.1772  11.00000  0.05    0.17
Q139  1   0.1948  0.0623  0.0242  11.00000  0.05    0.17
Q140  1   0.7569  0.4212  0.0721  11.00000  0.05    0.17
Q141  1   0.4029  0.0785  0.0203  11.00000  0.05    0.17
Q142  1   0.1217  0.2446 -0.0125  11.00000  0.05    0.17
Q143  1   0.6506  0.3173 -0.1481  11.00000  0.05    0.17
Q144  1   0.7252  0.4789  0.2158  11.00000  0.05    0.17
Q145  1   0.4672  0.2493 -0.0415  11.00000  0.05    0.16
Q146  1   0.7786  0.3046 -0.1126  11.00000  0.05    0.16
Q147  1   0.4969  0.3167 -0.0910  11.00000  0.05    0.16
Q148  1  -0.0928  0.3561  0.0525  11.00000  0.05    0.16
Q149  1   0.1627  0.6025  0.0968  11.00000  0.05    0.15
Q150  1   0.1222  0.5568  0.1298  11.00000  0.05    0.15
Q151  1   0.1897 -0.0195  0.0008  11.00000  0.05    0.15
Q152  1   0.1020  0.0049  0.0115  11.00000  0.05    0.15
Q153  1   0.1542  0.5222  0.0320  11.00000  0.05    0.14
Q154  1   0.3691  0.2377 -0.0117  11.00000  0.05    0.14
Q155  1   0.6275  0.4894  0.1487  11.00000  0.05    0.14
Q156  1   0.0580  0.0616  0.0699  11.00000  0.05    0.14
Q157  1   0.3263  0.1747  0.0501  11.00000  0.05    0.14
Q158  1   0.8833  0.2186  0.0853  11.00000  0.05    0.14
Q159  1   0.3219  0.0271  0.0102  11.00000  0.05    0.13
Q160  1   0.2069  0.0529 -0.1341  11.00000  0.05    0.13
Q161  1   0.4137  0.1271 -0.2714  11.00000  0.05    0.13
Q162  1   0.3403  0.1317 -0.0940  11.00000  0.05    0.13
Q163  1   0.0960  0.1778  0.0413  11.00000  0.05    0.13
Q164  1   0.1456  0.1935  0.0966  11.00000  0.05    0.12
Q165  1   0.2825  0.0063 -0.0466  11.00000  0.05    0.12
Q166  1   0.9950  0.2469  0.1874  11.00000  0.05    0.12
Q167  1   0.4722  0.0591 -0.0896  11.00000  0.05    0.12
Q168  1   0.3168  0.5567  0.0512  11.00000  0.05    0.12
Q169  1   0.2451  0.1242 -0.2209  11.00000  0.05    0.10
Q170  1   0.7278  0.3631  0.0428  11.00000  0.05    0.10
Q171  1   0.3400  0.1248 -0.0072  11.00000  0.05    0.08
Q172  1   0.7955  0.3790  0.2739  11.00000  0.05    0.08
Q173  1   0.5996  0.3644  0.2545  11.00000  0.05    0.07
Q174  1   0.5888  0.4239  0.2103  11.00000  0.05    0.07
Q175  1   0.2835  0.5232  0.1207  11.00000  0.05    0.06
Q176  1   0.5521  0.1366  0.2561  11.00000  0.05    0.05
Q177  1   0.4748  0.1251 -0.1973  11.00000  0.05    0.05
Q178  1   0.1102  0.0941 -0.0815  11.00000  0.05    0.05
Q179  1  -0.0695  0.5420  0.1006  11.00000  0.05    0.04
Q180  1   0.7910  0.1780  0.1525  11.00000  0.05    0.03
;
_shelx_res_checksum              49819
_shelx_hkl_file
;
   0   0  -2 3856.02 208.968   1
   0   0   2 3485.41 215.146   1
   0   0   3 16.5312 14.9655   1
   0   0  -3 26.4739 21.3721   1
   0   0   4 81959.4 1522.68   1
   0   0  -4 74674.4 1388.63   1
   0   0  -5-7.07494 24.6245   1
   0   0   5 2.58475 17.4039   1
   0   0  -6 77902.0 1825.79   1
   0   0   6 73521.4 1892.82   1
   0   0  -7 89.1215 83.7031   1
   0   0   7-13.9289 28.8919   1
   0   0  -8 52196.1 1856.23   1
   0   0   8 55276.2 1849.64   1
   0   0  -9 20.8445 63.1720   1
   0   0   9 16.0216 59.3105   1
   0   0  10 27372.6 1396.92   1
   0   0 -10 25829.4 1474.47   1
   0   0 -11 55.2900 102.633   1
   0   0  11 7.38355 59.6146   1
   0   0  12 38180.2 1696.97   1
   0   0 -12 41527.9 1929.07   1
   0   0 -13-42.6425 68.3930   1
   0   0  13 39.1082 72.4329   1
   0   0 -14 33.5164 43.9931   1
   0   0  14 39.1981 58.2993   1
   0   1  -2 92.3873 32.6383   1
   0   1   2 201.823 51.3521   1
   0  -1  -2 222.916 53.7963   1
   0  -1   2 86.1761 30.7996   1
   0   1   3 1492.35 176.513   1
   0  -1  -3 1213.24 176.038   1
   0  -1   3 1689.58 162.219   1
   0   1  -3 1386.84 176.165   1
   0  -1  -4 61798.0 1256.18   1
   0  -1   4 62850.2 1253.97   1
   0   1   4 64966.7 1384.74   1
   0   1  -4 62969.9 1410.88   1
   0   1  -5 17830.3 839.964   1
   0  -1   5 18991.1 802.560   1
   0  -1  -5 20949.7 778.025   1
   0   1   5 18775.2 825.463   1
   0  -1  -6 406.409 117.613   1
   0  -1   6 971.635 196.369   1
   0   1   6 414.310 132.331   1
   0   1  -6 889.893 198.515   1
   0  -1   7 4943.16 516.182   1
   0  -1  -7 5955.18 534.679   1
   0   1   7 6718.18 579.524   1
   0   1  -7 5213.92 533.133   1
   0  -1   8 112371. 2748.55   1
   0  -1  -8 119368. 2670.91   1
   0   1  -8 118984. 2678.89   1
   0   1   8 113467. 2559.00   1
   0  -1  -9 2130.90 393.048   1
   0   1  -9 1821.67 350.520   1
   0  -1   9 2207.14 379.159   1
   0   1   9 2005.05 341.001   1
   0   1 -10 820.019 257.816   1
   0   1  10 1061.36 254.358   1
   0  -1 -10 1245.62 339.806   1
   0  -1  10 1182.47 359.123   1
   0  -1  11 3026.07 472.597   1
   0  -1 -11 2995.63 556.445   1
   0   1 -11 2701.87 466.196   1
   0   1  11 3553.60 474.146   1
   0   1 -12 212.665 116.325   1
   0  -1 -12 124.559 139.568   1
   0  -1  12 228.600 146.696   1
   0   1  12 87.9514 76.0615   1
   0  -1 -13 50.7491 81.0783   1
   0  -1  13-36.9049 52.6741   1
   0   1  13 0.58571 56.3143   1
   0   1 -13 56.8664 53.5010   1
   0   1 -14 865.802 442.996   1
   0  -1 -14 101.458 51.2359   1
   0   2  -2 35182.7 593.975   1
   0   2   2 34955.4 691.505   1
   0  -2  -2 35310.2 731.310   1
   0  -2   2 34831.8 647.792   1
   0   2   3 4084.52 261.644   1
   0  -2   3 4043.41 283.650   1
   0   2  -3 4448.16 249.725   1
   0  -2  -3 4064.36 318.762   1
   0   2   4 7062.06 397.533   1
   0  -2   4 6742.79 384.321   1
   0  -2  -4 6494.16 433.446   1
   0   2  -4 6435.92 377.753   1
   0  -2   5 111905. 1805.62   1
   0   2   5 117136. 1891.54   1
   0   2  -5 111380. 1869.12   1
   0  -2  -5 119450. 2022.27   1
   0  -2   6 95578.8 1976.47   1
   0   2  -6 94511.3 1932.32   1
   0   2   6 91190.1 1817.42   1
   0   2  -7 316.404 110.216   1
   0  -2  -7 552.586 146.613   1
   0   2   7 574.194 161.268   1
   0  -2   7 305.253 127.632   1
   0   2  -8 6916.35 607.731   1
   0  -2  -8 6462.05 606.199   1
   0  -2   8 6666.23 632.787   1
   0   2   8 7405.06 583.593   1
   0  -2  -9 988.675 294.697   1
   0   2  -9 774.867 216.912   1
   0  -2   9 639.364 208.370   1
   0   2   9 1401.57 270.997   1
   0   2 -10 16702.3 1039.44   1
   0  -2 -10 16235.5 1197.99   1
   0   2  10 17270.1 999.764   1
   0  -2  10 16151.8 1112.69   1
   0   2  11 19198.2 1123.56   1
   0  -2  11 21249.7 1338.45   1
   0  -2 -11 21325.8 1478.53   1
   0   2 -11 20170.5 1210.16   1
   0   2 -12 54.6894 70.0326   1
   0  -2  12 38.7682 36.2243   1
   0   2  12 102.251 95.6371   1
   0  -2 -12 66.7868 92.5247   1
   0  -2 -13 5474.20 791.754   1
   0   2 -13 6087.75 705.485   1
   0   2  13 5399.32 636.768   1
   0  -2  13 5663.03 700.988   1
   0   2 -14 1719.91 380.212   1
   0  -2  14 1251.26 314.604   1
   0  -2 -14 1984.86 507.812   1
   0  -3   2 79217.8 842.246   1
   0   3  -2 79654.7 919.174   1
   0  -3  -3 47068.3 1096.94   1
   0  -3   3 45423.2 979.140   1
   0   3  -3 45180.6 878.357   1
   0   3  -4 55112.3 988.066   1
   0  -3  -4 56291.2 1348.27   1
   0  -3   4 59101.6 1213.48   1
   0   3   4 56792.4 1226.27   1
   0   3   5 3146.64 307.817   1
   0  -3  -5 2436.50 342.095   1
   0   3  -5 4326.52 301.382   1
   0  -3   5 4554.70 350.868   1
   0  -3  -6 10706.4 661.227   1
   0   3  -6 9975.00 533.890   1
   0  -3   6 9403.62 580.190   1
   0   3   6 10614.0 601.961   1
   0   3  -7 4087.24 375.307   1
   0  -3   7 4155.60 436.009   1
   0  -3  -7 4601.09 451.555   1
   0   3   7 4214.62 423.699   1
   0  -3   8 25.1552 21.2740   1
   0   3  -8 55.2064 54.6935   1
   0  -3  -9 43.1049 19.7683   1
   0  -3   9-25.3978 47.1026   1
   0   3   9 3.27277 40.6578   1
   0   3  -9 40.4755 48.1906   1
   0   3  10 101806. 2560.80   1
   0  -3 -10 100065. 2882.57   1
   0  -3  10 98771.9 2885.90   1
   0   3 -10 104901. 2353.57   1
   0  -3 -11 4903.51 710.000   1
   0   3 -11 5212.21 554.636   1
   0   3  11 5316.28 596.912   1
   0  -3  11 5244.70 636.752   1
   0  -3  12 252.770 140.038   1
   0   3  12 190.615 129.459   1
   0  -3 -12 348.373 206.848   1
   0   3 -12 294.573 143.378   1
   0  -3  13 4703.01 647.775   1
   0   3  13 4802.82 685.892   1
   0   3 -13 5046.27 594.903   1
   0  -3 -13 4611.68 766.179   1
   0  -3  14 51129.4 2147.52   1
   0   3 -14 52904.8 1948.29   1
   0  -3 -14 52189.5 2585.98   1
   0   3 -15 73.2103 65.6598   1
   0  -4   2 53943.5 712.902   1
   0   4  -2 51433.9 607.450   1
   0   4  -3 6111.30 288.130   1
   0  -4   3 5339.70 309.344   1
   0  -4   4 6377.42 421.878   1
   0   4  -4 7294.01 397.829   1
   0   4   5 500.054 130.091   1
   0   4  -5 395.360 96.7321   1
   0  -4   5 385.291 98.8013   1
   0  -4  -5 551.026 145.499   1
   0  -4   6 147100. 2220.49   1
   0   4   6 140195. 2459.77   1
   0  -4  -6 143551. 2502.83   1
   0   4  -6 139413. 2064.40   1
   0   4  -7 133.823 63.2980   1
   0  -4  -7 50.2419 57.4103   1
   0   4   7 53.8848 51.6856   1
   0  -4   7 97.3109 46.9350   1
   0  -4   8 259.919 106.463   1
   0   4   8 446.987 147.838   1
   0  -4  -8 530.991 161.819   1
   0   4  -8 270.181 96.4814   1
   0   4  -9 2782.61 325.924   1
   0  -4   9 2524.46 402.999   1
   0  -4  -9 3848.27 501.141   1
   0   4   9 3598.15 475.667   1
   0   4  10 32566.6 1494.88   1
   0   4 -10 33282.9 1252.10   1
   0  -4 -10 34037.8 1657.66   1
   0  -4  10 32983.2 1633.88   1
   0  -4  11 277.292 153.348   1
   0   4  11 494.491 190.750   1
   0  -4 -11 334.773 164.307   1
   0   4 -11 472.304 145.052   1
   0   4  12 1204.56 335.470   1
   0  -4 -12 1065.87 362.294   1
   0   4 -12 1065.41 247.937   1
   0  -4  12 1251.24 338.639   1
   0   4 -13 343.933 140.989   1
   0   4  13 126.257 117.698   1
   0  -4  13 216.005 51.4378   1
   0  -4 -13 86.2968 64.5520   1
   0  -4 -14 2499.94 569.849   1
   0  -4  14 2843.01 501.211   1
   0   4 -14 3081.60 454.061   1
   0   4 -15 1242.25 318.486   1
   0  -5   2 18348.9 428.348   1
   0  -5  -2 17618.7 505.386   1
   0   5  -3 6240.55 325.337   1
   0  -5  -3 7019.18 418.085   1
   0  -5   3 7130.96 345.009   1
   0   5  -4 27306.1 753.677   1
   0  -5   4 27158.5 883.176   1
   0   5  -5 25526.8 828.406   1
   0  -5   5 25854.2 864.910   1
   0  -5  -5 27167.6 1050.03   1
   0  -5   6 2855.48 290.388   1
   0  -5  -6 2089.57 317.850   1
   0   5  -6 2764.59 315.278   1
   0   5  -7 5559.29 461.600   1
   0   5   7 5417.79 504.862   1
   0  -5  -7 5318.62 509.911   1
   0  -5   7 5326.27 476.053   1
   0  -5  -8 1128.12 243.400   1
   0   5  -8 850.418 182.195   1
   0   5   8 967.661 241.314   1
   0  -5   8 864.352 211.498   1
   0   5   9 18327.3 1087.31   1
   0  -5  -9 19317.6 1155.86   1
   0  -5   9 19507.5 1112.15   1
   0   5  -9 20111.2 968.935   1
   0   5 -10 9979.01 714.785   1
   0   5  10 8734.62 796.119   1
   0  -5  10 8702.95 839.717   1
   0  -5 -10 9946.62 890.259   1
   0   5 -11 861.497 231.638   1
   0  -5  11 869.075 257.153   1
   0  -5 -11 732.075 283.127   1
   0   5  11 692.634 241.014   1
   0   5  12 117.586 82.1350   1
   0  -5  12 80.6410 102.299   1
   0  -5 -12 201.792 161.648   1
   0   5 -12 68.0622 92.7092   1
   0  -5 -13 5592.00 869.505   1
   0  -5  13 6908.70 761.763   1
   0   5 -13 7151.69 722.245   1
   0   5  13 7784.17 863.204   1
   0  -5  14 4897.28 672.229   1
   0   5 -14 6235.72 726.845   1
   0   5 -15 13222.6 1170.09   1
   0  -6   2 594.204 77.0778   1
   0  -6  -2 1034.44 146.252   1
   0  -6  -3 17288.2 694.427   1
   0  -6   3 19635.8 578.130   1
   0  -6  -4 56825.4 1491.41   1
   0  -6   4 57557.5 1258.10   1
   0   6  -5 2539.55 266.114   1
   0  -6  -5 3371.89 356.323   1
   0  -6   5 2548.14 269.883   1
   0   6  -6 17175.9 714.095   1
   0  -6   6 16603.9 715.401   1
   0  -6  -7 5470.67 498.282   1
   0  -6   7 5536.86 495.921   1
   0   6  -7 5770.72 473.420   1
   0  -6   8 5056.02 508.301   1
   0  -6  -8 4813.61 537.162   1
   0   6  -8 4963.24 481.459   1
   0   6  -9 1943.84 324.084   1
   0  -6  -9 1616.43 345.191   1
   0  -6   9 1785.55 321.092   1
   0   6 -10 14796.8 943.351   1
   0  -6 -10 15181.0 1121.70   1
   0  -6  10 14106.3 1042.59   1
   0  -6 -11 13518.9 1189.03   1
   0  -6  11 13622.2 1054.50   1
   0   6 -11 13639.1 935.164   1
   0  -6  12 44004.3 1899.99   1
   0   6 -12 40376.3 1725.92   1
   0  -6  13 6248.78 746.068   1
   0  -6 -13 5820.89 889.417   1
   0   6 -13 6331.32 707.727   1
   0  -6  14 275.065 136.766   1
   0   6 -14 306.408 166.028   1
   0   6 -15 1106.12 313.854   1
   0  -7   2 6088.87 240.583   1
   0  -7  -2 4464.88 299.576   1
   0  -7  -3 9978.57 565.132   1
   0  -7   3 11679.4 438.478   1
   0  -7  -4 104152. 1966.17   1
   0  -7   4 98497.0 1606.54   1
   0  -7  -5 14519.3 792.130   1
   0  -7   5 15774.1 625.857   1
   0   7  -5 15842.9 602.342   1
   0   7  -6 746.131 154.588   1
   0  -7   6 702.386 150.928   1
   0  -7  -6 423.135 137.215   1
   0  -7   7 9507.20 647.958   1
   0   7  -7 11008.7 626.383   1
   0  -7  -7 10580.0 715.786   1
   0  -7   8 19516.5 1009.12   1
   0  -7  -8 19346.1 1054.26   1
   0   7  -8 19460.8 885.816   1
   0   7  -9 2029.32 310.932   1
   0  -7  -9 1972.65 368.795   1
   0  -7   9 2161.97 374.006   1
   0  -7 -10 8345.20 849.205   1
   0  -7  10 9425.85 850.375   1
   0   7 -10 9214.29 721.065   1
   0   7 -11 6754.58 659.569   1
   0  -7 -11 7467.58 881.683   1
   0  -7  11 6588.39 722.626   1
   0  -7 -12 638.139 306.002   1
   0   7 -12 948.054 238.320   1
   0  -7  12 779.068 241.455   1
   0  -7  13 159.437 100.925   1
   0   7 -13 155.992 117.951   1
   0  -7 -13 84.3086 143.579   1
   0  -7  14 6273.12 724.376   1
   0   7 -14 7060.71 765.582   1
   0   7 -15 62.0017 44.4811   1
   0  -8  -1 3118.74 209.986   1
   0  -8  -2 450.409 109.653   1
   0  -8  -3 25449.8 887.088   1
   0  -8   3 23197.9 649.475   1
   0  -8   4 10567.1 467.127   1
   0  -8  -4 9861.85 600.598   1
   0  -8  -5 26254.1 1075.71   1
   0  -8   5 31948.7 851.297   1
   0   8  -6 10.7848 19.4880   1
   0  -8  -6 61.9483 68.6151   1
   0  -8   6 12.1210 19.8911   1
   0  -8  -7 2829.24 372.785   1
   0   8  -7 2354.35 300.770   1
   0  -8   7 2334.92 311.952   1
   0   8  -8 1724.75 280.828   1
   0  -8   8 1942.27 317.765   1
   0  -8  -8 1982.69 344.960   1
   0  -8  -9 1142.97 285.327   1
   0   8  -9 1437.50 264.067   1
   0  -8   9 1466.85 293.300   1
   0  -8  10 152.628 109.509   1
   0  -8 -10 90.0893 126.198   1
   0   8 -10 132.570 77.0371   1
   0  -8  11 466.768 194.220   1
   0   8 -11 303.817 101.750   1
   0  -8 -11 172.768 125.858   1
   0  -8  12 17954.8 1177.70   1
   0   8 -12 17935.3 1051.68   1
   0  -8  13 452.302 172.621   1
   0  -8 -13 312.178 262.901   1
   0   8 -13 637.581 217.252   1
   0  -8  14-33.4593 67.1510   1
   0   8 -14 0.60655 22.6376   1
   0   8 -15-62.2198 36.4895   1
   0  -9  -1 18218.2 576.028   1
   0  -9  -2 11033.3 534.295   1
   0  -9   3 5158.89 260.815   1
   0  -9  -3 5644.48 410.023   1
   0  -9   4 108.013 43.5700   1
   0  -9  -4 99.8573 68.6427   1
   0  -9   5 2130.76 225.811   1
   0  -9  -5 2163.50 274.523   1
   0  -9  -6 359.722 127.692   1
   0  -9   6 441.926 121.147   1
   0  -9  -7 78.0670 37.3889   1
   0   9  -7 181.608 67.9311   1
   0  -9   7 123.987 38.1465   1
   0  -9   8 120.630 76.9519   1
   0   9  -8 142.252 70.1256   1
   0  -9  -8 196.901 123.246   1
   0  -9   9 14271.1 925.651   1
   0   9  -9 13804.4 823.769   1
   0  -9  -9 11943.6 992.790   1
   0  -9  10 9828.95 760.198   1
   0   9 -10 8136.91 668.315   1
   0  -9  11 10752.0 837.255   1
   0  -9 -11 8216.92 985.692   1
   0   9 -11 10049.3 779.272   1
   0  -9 -12 3.79789 38.5234   1
   0   9 -12 75.7829 80.4196   1
   0  -9  12-21.2504 54.9073   1
   0  -9  13 5195.54 610.534   1
   0   9 -13 6002.17 617.242   1
   0   9 -14 3860.15 521.728   1
   0   9 -15 9459.14 831.666   1
   0 -10  -1 1824.75 168.380   1
   0 -10  -2 769.040 143.051   1
   0 -10  -3 9356.19 484.043   1
   0 -10   3 6785.86 323.198   1
   0 -10  -4 4924.40 381.143   1
   0 -10   4 3837.15 286.291   1
   0 -10  -5 6524.34 501.118   1
   0 -10   5 6558.42 410.305   1
   0 -10  -6 39255.6 1407.12   1
   0 -10   6 37739.9 1154.87   1
   0 -10   7 11150.6 689.293   1
   0 -10  -7 11909.7 847.555   1
   0 -10  -8 1592.39 345.729   1
   0  10  -8 1016.42 197.715   1
   0  10  -9 4567.71 417.500   1
   0 -10  -9 1825.61 464.165   1
   0  10 -10 27299.2 1168.46   1
   0 -10 -10 14119.5 1234.81   1
   0 -10 -11 0.86170 134.362   1
   0  10 -11-26.7507 54.2368   1
   0  10 -12 2927.17 440.893   1
   0 -10 -12 951.582 361.686   1
   0  10 -13 94.8033 81.5590   1
   1   0 -14 11059.9 1070.26   1
  -1   0  14 10230.6 1042.20   1
   1   0 -13 83.8250 124.192   1
  -1   0  13 62.7924 107.443   1
  -1   0  12 1458.59 350.366   1
   1   0 -12 1500.88 345.914   1
  -1   0  11 93.0790 124.905   1
   1   0 -11 38.4256 95.7258   1
   1   0 -10 6266.77 684.033   1
  -1   0  10 5809.25 648.517   1
  -1   0   9 3.29442 62.6637   1
   1   0  -9 172.248 148.696   1
   1   0  -8 21613.6 1183.45   1
   1   0  -7 60.6446 61.9303   1
   1   0   2 101352. 1413.25   1
  -1   0  -2 114479. 1318.04   1
   1   0   3 29.4675 21.7208   1
  -1   0  -3 17.0003 28.3360   1
  -1   0  -4 102282. 1671.04   1
   1   0   4 99269.9 1633.23   1
  -1   0  -5 25.8090 41.0755   1
   1   0   5-19.4767 24.3778   1
   1   0   6 100007. 2085.04   1
  -1   0  -6 100563. 2015.75   1
   1   0   7 55.2791 64.8977   1
  -1   0  -7 20.9513 48.3132   1
   1   0   8 22637.9 1243.11   1
  -1   0  -8 22904.7 1032.54   1
   1   0   9-22.3274 56.1123   1
  -1   0  -9-8.94292 25.4688   1
   1   0  10 29883.8 1397.36   1
  -1   0 -10 29793.1 1336.78   1
   1   0  11-23.1080 31.2738   1
  -1   0 -11 42.7267 72.8813   1
   1   0  12 2544.05 493.533   1
  -1   0 -12 2929.69 450.737   1
   1   0  13 31.3011 112.001   1
  -1   0 -13 74.7415 91.8818   1
  -1   0 -14 9798.23 973.904   1
  -1  -1  14 18948.8 1342.34   1
   1  -1 -14 19125.2 1449.33   1
   1   1 -14 18253.2 1508.14   1
  -1  -1  13 19624.4 1327.60   1
   1   1 -13 18465.1 1351.63   1
   1  -1 -13 19406.5 1309.98   1
   1   1 -12 4491.98 599.234   1
   1  -1 -12 4098.41 601.426   1
  -1  -1  12 4102.92 583.005   1
  -1  -1  11 180.466 116.200   1
   1  -1 -11 56.2191 74.1571   1
   1   1 -11 232.145 141.453   1
   1  -1 -10 40197.9 1797.16   1
  -1  -1  10 40405.4 1652.84   1
   1   1 -10 38928.5 1634.66   1
   1   1  -9 35527.8 1532.05   1
   1  -1  -9 32096.1 1608.94   1
  -1  -1   9 36566.9 1465.18   1
   1   1  -8 2012.06 362.690   1
  -1  -1   8 2232.92 337.043   1
   1   1  -7 56987.6 1715.35   1
   1   1  -6 284.696 106.188   1
  -1  -1  -2 84373.3 1255.55   1
   1   1   2 85596.5 1187.25   1
   1  -1   3 104635. 1455.77   1
  -1  -1  -3 101554. 1453.63   1
   1   1   4 11324.4 490.826   1
  -1   1  -4 11818.4 534.382   1
  -1  -1  -4 12638.1 601.178   1
  -1   1  -5 4802.77 402.392   1
   1  -1   5 5508.27 369.881   1
   1   1   5 5201.74 415.172   1
  -1  -1  -5 5004.82 405.262   1
   1  -1   6 3914.48 386.272   1
   1   1   6 4870.18 481.610   1
  -1  -1  -6 5045.80 427.073   1
  -1   1  -6 3906.12 408.896   1
   1  -1   7 11307.1 762.680   1
   1   1   7 12428.7 873.250   1
  -1  -1  -7 13164.5 723.151   1
  -1   1  -7 10630.1 700.351   1
   1   1   8 11032.9 796.296   1
   1  -1   8 10055.9 848.541   1
  -1  -1  -8 12359.6 709.601   1
  -1   1  -8 10267.6 722.385   1
   1   1   9 42466.0 1543.98   1
   1  -1   9 36484.5 1622.48   1
  -1  -1  -9 40936.0 1379.45   1
  -1   1  -9 34307.4 1379.90   1
   1  -1  10 25868.4 1362.48   1
  -1  -1 -10 26790.6 1150.64   1
   1   1  10 23141.8 1235.14   1
  -1   1 -10 25166.1 1253.85   1
  -1   1 -11 1652.68 321.304   1
   1   1  11 1125.09 317.241   1
  -1  -1 -11 1411.32 284.485   1
   1  -1  11 1712.64 325.055   1
   1   1  12 5570.57 743.744   1
   1  -1  12 5361.39 692.849   1
  -1   1 -12 5530.85 646.257   1
  -1  -1 -12 6321.46 645.071   1
  -1   1 -13 439.602 206.917   1
   1   1  13 164.111 131.821   1
   1  -1  13 398.338 208.728   1
  -1  -1 -13 249.605 123.616   1
  -1  -1 -14 17857.4 1203.29   1
  -1   1 -14 18213.2 1312.25   1
   1   2 -14 95.7930 135.498   1
  -1  -2  14 36.9694 95.3022   1
  -1  -2  13 1294.08 349.722   1
   1   2 -13 1160.54 371.434   1
  -1  -2  12 7164.99 760.658   1
   1  -2 -12 7148.56 818.113   1
   1   2 -12 7804.34 799.869   1
  -1  -2  11 28201.1 1445.40   1
   1   2 -11 29661.8 1440.53   1
  -1  -2  10 9213.53 768.109   1
   1   2 -10 9755.73 762.063   1
  -1  -2   9 1243.21 270.678   1
   1   2  -9 1449.27 277.755   1
  -1  -2   8 12302.1 794.203   1
   1   2  -8 14011.6 881.319   1
   1   2  -7 22006.3 1077.20   1
  -1  -2   7 21597.2 983.956   1
   1   2  -6 26203.0 1035.13   1
   1   2  -5 48648.1 1137.50   1
   1   2   1 70603.6 935.216   1
  -1  -2  -2 17886.2 556.782   1
   1   2   2 19663.2 583.732   1
   1  -2   3 97081.7 1576.11   1
   1   2   3 94442.7 1286.88   1
  -1  -2  -3 94041.5 1466.42   1
  -1   2  -4 822.948 155.230   1
   1   2   4 692.671 136.856   1
  -1  -2  -4 708.506 139.509   1
   1  -2   4 919.592 162.107   1
  -1   2  -5 22711.0 795.910   1
   1   2   5 19552.1 902.744   1
  -1  -2  -5 20811.8 790.130   1
   1  -2   5 20812.8 804.740   1
  -1   2  -6 18452.1 838.614   1
   1   2   6 18303.6 976.230   1
  -1  -2  -6 19650.8 784.616   1
   1  -2   6 19652.4 791.983   1
  -1   2  -7 58268.6 1678.44   1
   1  -2   7 58846.1 1706.67   1
  -1  -2  -7 59484.9 1457.75   1
   1   2   7 56078.8 1686.72   1
  -1  -2  -8 9059.76 619.280   1
   1  -2   8 8904.58 767.820   1
   1   2   8 10205.5 713.032   1
  -1   2  -8 8546.47 698.953   1
  -1   2  -9 42.6841 50.6278   1
   1  -2   9 42.5048 66.3493   1
  -1  -2  -9-3.62159 30.2240   1
   1   2   9-29.2970 42.8978   1
   1  -2  10 141.988 113.724   1
  -1   2 -10 133.696 106.310   1
  -1  -2 -10 146.186 88.7458   1
   1   2  10 95.3354 50.3080   1
  -1   2 -11 14906.4 1025.75   1
   1  -2  11 19467.7 1171.92   1
  -1  -2 -11 18556.3 1068.91   1
   1   2  11 16924.5 1247.94   1
   1   2  12 12211.4 1141.92   1
   1  -2  12 12752.5 1014.30   1
  -1   2 -12 12515.2 1006.43   1
  -1  -2 -12 11824.9 903.476   1
   1   2  13 32843.5 2005.63   1
   1  -2  13 32733.3 1827.45   1
  -1  -2 -13 35281.6 1594.44   1
  -1   2 -13 33444.7 1753.95   1
  -1   2 -14 736.212 268.299   1
   1  -2  14 718.880 300.206   1
  -1  -2 -14 549.238 189.843   1
   1   3 -15 1794.87 426.968   1
   1   3 -14 362.639 206.968   1
  -1  -3  14 496.928 213.131   1
   1   3 -13 2054.34 498.296   1
  -1  -3  13 2074.32 429.594   1
  -1  -3  12 3942.49 567.588   1
   1   3 -12 3793.21 601.298   1
   1   3 -11 3562.30 526.791   1
  -1  -3  11 3348.11 485.506   1
  -1  -3  10 9028.31 757.616   1
   1   3 -10 9302.91 790.939   1
  -1  -3   9 10581.1 784.673   1
   1   3  -9 12087.8 781.961   1
  -1  -3   8 65864.3 1809.21   1
   1   3  -8 67717.7 1754.04   1
  -1  -3   7 6756.46 537.479   1
   1   3  -7 5532.48 487.824   1
   1   3  -6 15472.5 784.624   1
  -1  -3   6 15282.0 764.532   1
   1   3  -5 86.1691 48.5780   1
   1   3  -4 87783.3 1372.92   1
   1   3  -3 1575.08 160.688   1
   1   3   1 31228.8 570.582   1
  -1  -3  -1 32890.4 495.793   1
   1   3   2 11.8103 14.4625   1
  -1  -3  -2 12.1697 18.5474   1
   1  -3   3 12042.1 550.689   1
   1   3   3 12473.9 534.122   1
  -1  -3  -3 12880.1 552.328   1
   1  -3   4 80074.1 1491.09   1
  -1   3  -4 84281.7 1512.96   1
   1   3   4 86972.6 1759.19   1
  -1  -3  -4 80285.7 1476.16   1
  -1   3  -5 18081.9 817.933   1
  -1  -3  -5 22695.3 786.099   1
   1  -3   5 18074.0 776.122   1
   1   3   5 21186.6 920.304   1
   1   3   6 15670.9 800.809   1
  -1  -3  -6 14859.5 695.494   1
   1  -3   6 15606.0 695.897   1
  -1   3  -7 25014.0 1011.71   1
   1   3   7 24402.7 1033.17   1
   1  -3   7 23839.5 1060.27   1
  -1  -3  -7 25567.3 981.224   1
   1   3   8 65051.5 1912.01   1
   1  -3   8 69202.4 2073.37   1
  -1  -3  -8 72800.5 1744.58   1
  -1   3  -8 66733.6 1873.44   1
   1  -3   9 10962.4 943.082   1
   1   3   9 11012.4 870.518   1
  -1  -3  -9 11195.7 748.132   1
  -1   3  -9 10962.9 824.183   1
   1   3  10 10995.6 936.450   1
   1  -3  10 11146.9 926.703   1
  -1  -3 -10 11392.7 831.412   1
  -1   3 -10 11518.2 904.537   1
  -1  -3 -11 638.405 203.024   1
   1  -3  11 751.330 231.572   1
  -1   3 -11 773.210 253.431   1
   1   3  11 443.629 229.939   1
  -1   3 -12 832.501 274.112   1
  -1  -3 -12 935.020 244.938   1
   1   3  12 817.764 281.348   1
   1  -3  12 884.198 271.831   1
   1   3  13 2665.66 585.773   1
  -1   3 -13 1856.97 425.595   1
   1  -3  13 1859.41 424.373   1
  -1   3 -14 1303.12 357.459   1
  -1  -3 -14 1468.07 331.808   1
   1  -3  14 1390.36 405.578   1
   1   4 -15 12.1983 51.7671   1
  -1  -4  14 946.079 290.444   1
   1   4 -14 907.605 291.660   1
   1   4 -13 906.167 292.050   1
  -1  -4  13 988.582 295.512   1
  -1  -4  12 33119.5 1615.24   1
   1   4 -12 32923.6 1786.25   1
  -1  -4  11 3843.61 528.744   1
   1   4 -11 4761.91 627.777   1
   1   4 -10 574.805 200.865   1
  -1  -4  10 497.640 186.157   1
   1   4  -9 17507.1 1032.96   1
  -1  -4   9 14924.5 930.018   1
   1   4  -8 2680.54 363.788   1
  -1  -4   8 2742.18 370.410   1
   1   4  -7 411.582 126.649   1
  -1  -4   7 385.114 118.527   1
  -1  -4   6 182.814 85.9424   1
   1   4  -6 220.310 84.4836   1
   1   4  -5 12917.8 621.107   1
   1   4  -4 14761.2 600.603   1
   1   4  -3 892.114 126.370   1
   1   4  -2 316.654 52.6013   1
  -1  -4  -1 16729.8 394.016   1
   1   4   1 16188.6 381.988   1
   1   4   2 294.535 71.8297   1
  -1  -4  -2 322.330 70.4459   1
   1   4   3 21961.7 747.955   1
   1  -4   3 24363.5 792.069   1
  -1  -4  -3 22680.2 717.635   1
   1  -4   4 46001.5 1099.32   1
  -1   4  -4 42389.1 946.249   1
  -1  -4  -4 40521.9 1040.67   1
   1   4   4 44391.3 1110.39   1
   1   4   5 55251.5 1372.40   1
  -1   4  -5 51642.8 1325.17   1
  -1  -4  -5 54416.6 1195.08   1
   1  -4   5 49956.5 1333.56   1
   1  -4   6 1680.27 220.802   1
  -1   4  -6 1421.09 237.335   1
   1   4   6 1542.30 262.464   1
  -1  -4  -6 1684.35 233.338   1
  -1   4  -7 30450.2 1116.87   1
   1   4   7 31574.5 1316.02   1
   1  -4   7 30201.0 1138.05   1
  -1  -4  -7 31014.6 1111.80   1
  -1   4  -8 44528.2 1417.71   1
   1   4   8 41415.0 1638.37   1
  -1  -4  -8 43823.4 1446.32   1
   1  -4   8 40765.6 1539.69   1
   1  -4   9 528.180 206.999   1
  -1   4  -9 594.322 181.581   1
  -1  -4  -9 308.736 126.938   1
   1   4   9 272.415 139.631   1
  -1  -4 -10 2358.91 383.433   1
   1  -4  10 2763.28 457.171   1
   1   4  10 2125.81 442.453   1
  -1   4 -10 2512.37 407.426   1
   1   4  11 4858.35 669.173   1
   1  -4  11 4333.11 586.421   1
  -1  -4 -11 4356.62 538.064   1
  -1   4 -11 4379.49 586.774   1
   1   4  12 35510.3 1938.53   1
   1  -4  12 37144.5 1686.38   1
  -1  -4 -12 36685.5 1637.13   1
  -1   4 -12 40950.5 1790.72   1
   1   4  13 5017.22 695.068   1
   1  -4  13 5145.31 702.008   1
  -1  -4 -13 5294.38 652.240   1
  -1   4 -13 5364.91 708.749   1
  -1   4 -14 550.803 202.635   1
  -1  -4 -14 602.868 248.825   1
   1  -4  14 551.408 244.511   1
   1   5 -15 17064.7 1223.64   1
  -1  -5  14 3092.44 511.305   1
   1   5 -14 2916.17 505.254   1
   1   5 -13 26502.7 1496.63   1
  -1  -5  13 25904.1 1479.57   1
   1   5 -12-26.6983 75.5349   1
  -1  -5  12 37.0422 81.0351   1
  -1  -5  11 16715.0 1080.83   1
   1   5 -11 19016.3 1184.55   1
  -1  -5  10 1346.31 294.471   1
   1   5 -10 1602.16 329.494   1
  -1  -5   9 15259.6 938.338   1
   1   5  -9 16145.8 1030.46   1
  -1  -5   8 18934.2 953.063   1
   1   5  -8 18791.2 1047.16   1
   1   5  -7 38565.5 1376.48   1
  -1  -5   7 39785.4 1268.24   1
  -1  -5   6 375.069 116.880   1
   1   5  -6 249.790 101.085   1
   1   5  -5 20032.9 778.916   1
   1   5  -4 33011.5 838.691   1
   1   5  -3 72933.6 1033.17   1
   1   5   1 22190.4 503.358   1
  -1  -5  -1 24049.4 489.876   1
  -1  -5  -2 12075.0 436.470   1
   1   5   2 10538.5 451.828   1
   1  -5   3 96584.4 1643.24   1
  -1  -5  -3 100738. 1510.15   1
   1  -5   4 37924.1 1000.06   1
  -1  -5  -4 38453.9 967.889   1
   1   5   5 7533.50 557.390   1
  -1   5  -5 8753.61 464.473   1
  -1  -5  -5 8206.35 473.589   1
   1  -5   5 7363.10 516.717   1
  -1   5  -6 504.170 134.251   1
  -1  -5  -6 386.653 110.741   1
   1   5   6 338.693 124.176   1
   1  -5   6 610.563 134.816   1
   1   5   7 3157.78 450.662   1
  -1   5  -7 2722.15 357.519   1
  -1  -5  -7 3497.67 387.915   1
   1  -5   7 3387.42 360.544   1
  -1   5  -8 9173.50 686.413   1
   1   5   8 8685.92 755.622   1
   1  -5   8 8565.20 722.445   1
  -1  -5  -8 9457.27 685.574   1
   1  -5   9 38443.7 1694.83   1
  -1  -5  -9 42314.1 1536.14   1
   1   5   9 37596.1 1659.97   1
  -1   5 -10 4340.04 492.657   1
   1   5  10 4901.18 618.001   1
   1  -5  10 4081.01 581.223   1
  -1  -5 -10 5162.54 553.054   1
  -1   5 -11 3938.13 497.878   1
   1   5  11 4220.30 591.876   1
   1  -5  11 3311.74 496.529   1
  -1  -5 -11 4450.73 563.325   1
   1  -5  12 763.320 238.923   1
  -1   5 -12 657.549 220.465   1
  -1  -5 -12 649.385 223.363   1
   1   5  12 662.857 249.278   1
  -1   5 -13 17750.0 1183.02   1
   1  -5  13 17449.6 1244.98   1
  -1  -5 -13 16025.5 1137.35   1
   1   5  13 17706.9 1220.67   1
  -1   5 -14 36.8394 53.4794   1
  -1  -5 -14-25.8138 80.2209   1
   1  -5  14 33.8927 103.576   1
   1   6 -15 61.4862 67.8205   1
  -1  -6  14 3366.09 565.819   1
   1   6 -14 3494.82 509.027   1
  -1  -6  13 2403.01 440.124   1
   1   6 -13 2654.83 414.756   1
   1   6 -12 2082.72 375.205   1
  -1  -6  12 1995.02 388.494   1
   1   6 -11 3604.80 482.588   1
  -1  -6  11 3726.79 501.551   1
   1   6 -10-3.40519 26.6688   1
  -1  -6  10 20.1096 59.3128   1
  -1  -6   9 7872.72 678.116   1
   1   6  -9 8974.29 678.771   1
   1   6  -8 725.586 185.172   1
  -1  -6   8 759.943 176.862   1
  -1  -6   7 17413.2 835.229   1
   1   6  -7 18175.7 825.667   1
   1   6  -6 41302.3 1142.74   1
   1   6  -5 36556.0 962.813   1
   1   6  -4 2718.89 208.074   1
   1   6  -3 9989.70 292.747   1
  -1  -6  -2 36810.8 760.115   1
   1   6   2 34853.9 678.252   1
   1   6   3 14718.3 561.253   1
  -1  -6  -3 15557.6 589.801   1
   1   6   4 2199.16 273.944   1
   1  -6   4 2661.01 265.456   1
  -1  -6  -5 39078.8 1040.18   1
   1   6   5 37082.2 1164.37   1
   1   6   6 15452.5 826.781   1
  -1  -6  -6 15621.8 738.469   1
   1  -6   6 18290.7 761.398   1
  -1   6  -6 18036.6 728.318   1
   1   6   7 14823.9 867.432   1
  -1   6  -7 13271.1 794.881   1
   1  -6   7 15223.9 776.115   1
   1  -6   8 11.5838 18.0643   1
  -1  -6  -8 2.64662 8.50933   1
   1   6   8-19.7034 8.00077   1
  -1   6  -8 1.57155 53.0544   1
   1  -6   9 1549.17 307.599   1
  -1   6  -9 1352.54 288.414   1
  -1  -6  -9 1385.03 281.472   1
   1   6   9 1176.95 258.190   1
  -1   6 -10 10029.2 792.457   1
   1   6  10 10516.9 821.072   1
   1  -6  10 10160.0 907.445   1
  -1  -6 -10 10681.4 825.885   1
   1   6  11 6594.22 673.134   1
  -1   6 -11 6894.23 622.254   1
   1  -6  11 6426.92 682.244   1
  -1  -6 -11 6051.94 654.963   1
  -1  -6 -12-25.5987 105.575   1
   1   6  12-26.7497 63.6454   1
  -1   6 -12 35.4520 18.3771   1
   1  -6  12 48.9960 101.991   1
   1   6  13 2185.12 427.901   1
  -1  -6 -13 1646.45 361.557   1
  -1   6 -13 2604.35 432.316   1
   1  -6  13 2402.84 468.422   1
  -1   6 -14 2580.41 464.812   1
   1  -6  14 2794.77 528.719   1
   1   7 -15 79.8160 85.1790   1
   1   7 -14 13751.6 933.966   1
  -1  -7  14 14534.4 1129.35   1
  -1  -7  13 132.148 94.8360   1
   1   7 -13 139.305 97.2992   1
  -1  -7  12 2177.11 413.489   1
   1   7 -12 2823.14 375.648   1
  -1  -7  11 2930.77 430.311   1
   1   7 -11 2946.76 374.682   1
  -1  -7  10 33246.0 1382.33   1
   1   7 -10 32597.3 1168.07   1
  -1  -7   9 5066.99 507.326   1
   1   7  -9 5195.75 433.946   1
   1   7  -8 2484.22 273.125   1
  -1  -7   8 2138.96 329.020   1
   1   7  -7 8196.83 455.495   1
   1   7  -6 54.5282 36.6102   1
   1   7  -5 12716.1 528.494   1
   1   7  -4 282.737 70.4474   1
  -1  -7  -2 48027.6 832.928   1
  -1  -7  -3 159.800 54.7061   1
   1   7   3 66.7689 44.2301   1
   1  -7   4 2723.51 271.749   1
   1   7   4 2806.74 271.293   1
  -1  -7  -4 2793.47 262.907   1
   1   7   5 7205.97 484.361   1
  -1  -7  -5 7590.47 458.227   1
   1  -7   5 7104.26 509.308   1
   1   7   6 1636.25 254.968   1
  -1  -7  -6 1724.05 239.275   1
   1  -7   6 1839.97 236.165   1
  -1   7  -7 6781.38 477.352   1
   1  -7   7 6376.55 512.705   1
  -1  -7  -7 6719.61 537.998   1
   1   7   7 6064.37 512.103   1
   1   7   8 8595.91 660.201   1
  -1   7  -8 10580.5 684.816   1
   1  -7   8 9443.52 724.025   1
  -1  -7  -8 9154.07 669.246   1
  -1   7  -9 307.738 131.545   1
   1  -7   9 353.247 137.227   1
  -1  -7  -9 240.027 124.700   1
   1   7   9 159.330 53.4554   1
   1  -7  10 13864.5 994.565   1
  -1   7 -10 12995.5 928.596   1
   1   7  10 12405.5 905.032   1
  -1  -7 -10 11487.4 867.581   1
   1   7  11 7694.09 746.600   1
  -1   7 -11 6340.57 678.222   1
   1  -7  11 6947.58 715.291   1
  -1  -7 -11 7024.75 686.481   1
  -1   7 -12 1474.42 336.410   1
   1   7  12 1418.48 332.430   1
  -1  -7 -12 974.320 279.810   1
   1  -7  12 1687.01 336.488   1
  -1   7 -13 2973.25 482.827   1
  -1  -7 -13 1439.66 333.409   1
   1   7  13 2477.97 490.249   1
   1  -7  13 2896.98 492.195   1
  -1   7 -14 14390.1 1085.49   1
   1  -7  14 15294.2 1287.60   1
   1   8 -15 1288.59 320.884   1
   1   8 -14 303.511 155.252   1
  -1  -8  13 2880.35 473.115   1
   1   8 -13 2936.55 429.978   1
   1   8 -12 117.682 82.5971   1
  -1  -8  12 95.0324 86.3587   1
   1   8 -11 26026.3 1174.69   1
  -1  -8  11 24583.5 1264.27   1
  -1  -8  10 10559.4 783.192   1
   1   8 -10 11275.1 727.606   1
   1   8  -9 430.177 129.832   1
   1   8  -8 2814.01 330.615   1
   1   8  -7 424.020 131.046   1
   1   8  -6 23529.5 799.469   1
   1   8  -5 2105.71 186.855   1
   1   8  -4 1683.65 162.735   1
  -1  -8  -2 7844.96 330.713   1
  -1  -8  -3 755.251 138.015   1
  -1  -8  -4 800.165 145.822   1
   1  -8   4 760.544 139.481   1
  -1  -8  -5 10644.5 536.331   1
   1  -8   5 10602.9 607.748   1
   1   8   6 27540.8 1095.11   1
  -1  -8  -6 28624.4 1011.89   1
   1  -8   6 31095.2 952.154   1
   1   8   7 24528.3 1118.40   1
   1  -8   7 26477.2 1083.55   1
  -1  -8  -7 25295.2 1001.11   1
   1   8   8 559.416 208.104   1
  -1  -8  -8 504.389 150.658   1
   1  -8   8 670.270 179.800   1
  -1   8  -8 680.701 152.929   1
  -1   8  -9 6581.98 541.707   1
   1  -8   9 6322.35 673.257   1
   1   8   9 5769.81 642.921   1
  -1  -8  -9 6597.79 603.473   1
   1   8  10 3468.27 495.700   1
  -1   8 -10 3609.27 484.059   1
   1  -8  10 4141.58 543.976   1
  -1  -8 -10 2934.50 423.448   1
  -1   8 -11 10531.8 928.685   1
  -1  -8 -11 9517.40 828.885   1
   1   8  11 9987.07 909.105   1
   1   8  12 134.031 59.2090   1
  -1  -8 -12 126.252 84.6116   1
  -1   8 -12 107.190 26.3655   1
   1  -8  12 147.878 70.1337   1
   1  -8  13 24320.4 1530.12   1
  -1   8 -13 24347.7 1431.09   1
  -1   8 -14 3207.83 542.484   1
   1  -8  14 3352.57 601.926   1
   1   9 -15 2693.19 504.234   1
   1   9 -14 13.5618 103.031   1
   1   9 -13 619.678 384.051   1
   1   9 -12 76.4614 65.0939   1
   1   9 -11 52.4785 83.2065   1
   1   9 -10 24.4461 49.0083   1
   1   9  -9 18646.4 902.796   1
   1   9  -8 3089.45 331.278   1
   1   9  -7 25888.3 818.427   1
   1   9  -6 1213.11 178.401   1
   1   9  -5 35843.8 727.916   1
  -1  -9  -2 138.589 48.3584   1
   1  -9   3 24634.0 847.442   1
  -1  -9  -3 23171.1 755.612   1
  -1  -9  -4 1374.64 194.967   1
   1  -9   4 1826.09 227.335   1
  -1  -9  -5 15174.1 710.439   1
   1  -9   5 13157.0 639.213   1
   1  -9   6 5682.89 399.637   1
  -1  -9  -6 4503.35 391.204   1
   1  -9   7 13414.4 769.337   1
  -1  -9  -7 12474.0 709.708   1
   1  -9   8 585.125 184.185   1
  -1  -9  -8 509.839 152.844   1
   1  -9   9 8435.04 769.597   1
  -1  -9  -9 7228.84 601.721   1
   1  -9  10 1425.07 315.202   1
  -1   9 -10 1707.43 281.325   1
  -1  -9 -10 1037.53 235.742   1
   1  -9  11 2840.46 417.508   1
  -1   9 -11 2278.74 366.269   1
  -1   9 -12 144.868 89.2540   1
  -1  -9 -12 26.8874 55.6705   1
   1  -9  12 60.5791 83.6864   1
  -1   9 -13 353.453 171.587   1
  -1  -9 -13 150.444 120.039   1
   1  -9  13 391.368 195.117   1
   1  -9  14 773.842 268.579   1
  -1   9 -14 620.141 233.490   1
   1  10 -12 7717.69 655.045   1
   1  10 -11 4072.43 445.577   1
   1  10 -10 2433.26 311.872   1
   1  10  -9 2390.12 294.134   1
   1  10  -8 38.6104 21.2002   1
   1  10  -7 462.594 109.621   1
   1  10  -6 10558.8 429.825   1
  -1 -10  -2 9436.36 368.016   1
  -1 -10  -3 21367.0 653.142   1
   1 -10   3 21770.9 750.086   1
  -1 -10  -4 5643.18 419.346   1
   1 -10   4 7605.71 480.548   1
  -1 -10  -5 34.2739 26.8466   1
   1 -10   5 95.7863 55.8600   1
   1 -10   6-13.4310 19.0595   1
  -1 -10  -6 0.59851 47.5047   1
   1 -10   7-43.3516 36.7808   1
  -1 -10  -7 0.30588 16.8626   1
   1 -10   8 11863.0 867.904   1
  -1 -10  -8 11312.3 705.524   1
   1 -10   9 2900.94 439.579   1
  -1 -10  -9 3776.37 436.983   1
  -1 -10 -10 1846.51 316.373   1
  -1  10 -11 4311.35 428.523   1
  -1 -10 -11 1145.50 278.639   1
  -1  10 -12 11817.7 785.028   1
  -1 -10 -12 4062.86 540.948   1
  -1  10 -13 536.010 206.508   1
  -1 -10 -13 83.9181 84.8544   1
  -1  10 -14 29.0959 24.5943   1
   2   0   4 14318.1 739.225   1
  -2   0  -4 15869.6 637.920   1
  -2   0  -5 55.8620 54.4956   1
   2   0   5 61.2176 49.0659   1
  -2   0  -6 4507.29 472.365   1
   2   0   6 4750.61 486.013   1
   2   0   7 68.8110 68.4711   1
  -2   0  -7-5.03622 50.4251   1
  -2   0  -8 1926.17 310.944   1
   2   0   8 1675.06 281.761   1
   2   0   9-7.65594 38.0745   1
  -2   0  -9 0.43775 46.2098   1
   2   0  10 80.0109 115.418   1
  -2   0 -10-74.9481 85.0987   1
   2   0  11 60.3781 104.778   1
  -2   0 -11 99.7981 106.115   1
  -2   0 -12 68317.6 2521.53   1
   2   0  12 70810.8 2810.19   1
   2   0  13-42.8745 66.2723   1
  -2   0 -13 48.1034 89.2932   1
  -2   0 -14 766.212 262.110   1
   2   1   4 156293. 2367.94   1
  -2  -1  -4 152612. 2161.45   1
   2  -1   5 8538.37 562.706   1
  -2  -1  -5 8257.52 577.055   1
  -2   1  -5 8086.69 534.656   1
   2   1   5 7835.59 555.713   1
  -2   1  -6 450.522 140.799   1
   2   1   6 306.011 117.401   1
  -2  -1  -6 300.905 122.715   1
   2  -1   6 406.294 143.458   1
  -2  -1  -7 8550.98 643.614   1
  -2   1  -7 8383.17 691.003   1
   2   1   7 9022.13 604.611   1
   2  -1   7 8244.55 668.509   1
  -2  -1  -8 50381.5 1624.52   1
   2   1   8 50441.7 1590.97   1
   2  -1   8 49039.3 1518.30   1
  -2  -1  -9 46464.9 1659.07   1
  -2   1  -9 49401.7 1659.12   1
   2   1   9 44178.4 1736.92   1
   2  -1   9 44480.9 1590.75   1
  -2  -1 -10 5120.97 606.044   1
  -2   1 -10 6116.93 626.077   1
   2   1  10 4874.97 658.636   1
   2  -1  10 5655.18 662.356   1
  -2   1 -11 8016.89 767.025   1
   2  -1  11 7483.94 811.346   1
   2   1  11 9136.96 1000.18   1
  -2  -1 -11 9222.93 860.378   1
  -2   1 -12 3558.62 546.258   1
   2   1  12 3414.90 597.750   1
   2  -1  12 3916.71 662.819   1
  -2  -1 -12 3484.08 568.219   1
  -2   1 -13 13875.8 1120.68   1
   2   1  13 15443.4 1268.42   1
   2  -1  13 13827.6 1263.62   1
  -2  -1 -13 15876.3 1265.32   1
  -2  -1 -14 3.47429 113.985   1
  -2   1 -14 224.218 144.781   1
   2   2   3 4881.82 390.939   1
   2   2   4 1217.40 196.279   1
  -2  -2  -4 1240.64 200.049   1
   2  -2   5 17700.6 896.349   1
  -2  -2  -5 19574.1 912.698   1
  -2   2  -5 20983.3 791.418   1
   2   2   5 18779.2 905.295   1
   2  -2   6 16686.0 885.937   1
  -2  -2  -6 15789.6 861.307   1
  -2   2  -6 17244.9 879.551   1
   2   2   6 16915.8 840.115   1
  -2  -2  -7 83784.9 1948.61   1
  -2   2  -7 83322.6 2153.87   1
   2   2   7 84972.9 1858.88   1
   2  -2   7 78761.1 2184.13   1
  -2  -2  -8 2181.36 348.228   1
   2   2   8 2265.47 353.991   1
  -2   2  -8 1743.03 317.364   1
   2  -2   8 1811.54 314.769   1
  -2   2  -9 55.8309 59.0628   1
   2   2   9 21.4275 43.2281   1
  -2  -2  -9 100.707 90.5812   1
   2  -2   9 157.389 107.830   1
  -2   2 -10 924.827 246.563   1
   2   2  10 1312.60 352.869   1
   2  -2  10 979.766 262.286   1
  -2  -2 -10 1102.03 295.309   1
   2   2  11 2073.89 472.952   1
  -2   2 -11 3096.50 452.435   1
   2  -2  11 2503.70 469.539   1
  -2  -2 -11 2195.63 421.711   1
  -2   2 -12 10790.3 920.198   1
   2   2  12 10501.3 984.497   1
   2  -2  12 9876.13 1044.18   1
  -2  -2 -12 11322.1 1012.90   1
  -2   2 -13 9637.99 912.248   1
   2   2  13 11272.3 989.148   1
   2  -2  13 9649.36 1094.75   1
  -2  -2 -13 9576.33 1000.40   1
  -2   2 -14 2364.39 466.521   1
   2   3   3 1416.60 196.304   1
  -2  -3  -3 1566.95 171.224   1
  -2  -3  -4 2487.54 292.817   1
   2   3   4 2807.68 314.128   1
   2  -3   5 5018.05 488.728   1
  -2  -3  -5 5991.80 510.946   1
   2   3   5 6592.49 492.730   1
   2  -3   6 12698.1 750.718   1
  -2  -3  -6 13568.7 764.966   1
  -2   3  -6 13767.3 700.102   1
   2   3   6 13063.0 680.956   1
   2  -3   7 255.431 185.209   1
   2   3   7 282.477 117.870   1
  -2   3  -7 254.081 112.248   1
  -2  -3  -7 285.826 118.390   1
  -2  -3  -8 15759.4 958.432   1
  -2   3  -8 14533.6 951.966   1
   2   3   8 15170.6 1004.76   1
   2  -3   8 14743.6 922.981   1
  -2   3  -9 15947.2 1037.04   1
   2   3   9 15316.5 1167.30   1
   2  -3   9 17555.8 922.314   1
  -2  -3  -9 15824.3 1044.23   1
  -2   3 -10 32718.0 1583.48   1
   2   3  10 31423.3 1726.47   1
   2  -3  10 34373.3 1521.51   1
  -2  -3 -10 35808.4 1652.16   1
   2   3  11 376.907 195.121   1
  -2   3 -11 482.702 199.368   1
   2  -3  11 407.234 189.097   1
  -2  -3 -11 386.320 182.070   1
  -2   3 -12 4594.96 605.296   1
   2   3  12 4116.98 597.236   1
   2  -3  12 4143.18 676.527   1
  -2  -3 -12 3720.56 614.201   1
  -2   3 -13 6247.62 750.125   1
   2  -3  13 5747.48 863.035   1
  -2  -3 -13 6235.20 809.436   1
   2   3  13 7118.48 834.242   1
  -2   3 -14 16519.7 1191.14   1
   2   4   2 41152.8 1038.80   1
  -2  -4  -3 897.174 134.321   1
   2   4   3 792.140 152.844   1
  -2  -4  -4 5434.76 444.746   1
   2   4   4 5130.41 397.226   1
  -2  -4  -5 51.2537 43.8304   1
   2   4   5 38.1924 38.1183   1
   2  -4   6 40141.9 1311.84   1
   2   4   6 37055.0 1306.86   1
  -2  -4  -7 2046.69 318.141   1
   2   4   7 1858.99 319.557   1
  -2   4  -7 1473.10 244.833   1
   2  -4   7 1465.85 283.640   1
  -2  -4  -8 2610.54 404.135   1
  -2   4  -8 3515.35 428.308   1
   2   4   8 2441.60 426.897   1
   2  -4   8 3028.60 417.923   1
   2   4   9 278.400 143.221   1
  -2  -4  -9 264.554 146.431   1
   2  -4   9 106.384 81.1043   1
  -2   4  -9 158.701 117.645   1
  -2   4 -10 7012.11 728.450   1
   2   4  10 7206.66 744.102   1
   2  -4  10 7888.09 706.833   1
  -2  -4 -10 7159.51 755.141   1
  -2   4 -11 4522.79 579.384   1
   2   4  11 5431.08 678.585   1
   2  -4  11 4455.28 615.298   1
  -2  -4 -11 4970.07 681.567   1
  -2   4 -12 1373.54 350.945   1
   2  -4  12 1386.33 377.798   1
  -2  -4 -12 1425.99 400.270   1
   2   4  12 1402.43 373.336   1
  -2   4 -13 11663.8 1156.29   1
   2   4  13 15097.0 1288.32   1
   2  -4  13 14586.2 1371.21   1
  -2  -4 -13 13706.0 1228.43   1
  -2   4 -14 4105.52 638.405   1
   2   5 -14 9406.49 1001.52   1
   2   5 -13 14030.3 1107.96   1
   2   5 -12 8.91161 52.7623   1
   2   5 -11 538.193 209.498   1
   2   5 -10 3516.80 475.525   1
   2   5  -9 15447.6 990.031   1
   2   5  -8 10522.4 794.373   1
   2   5   1 5536.18 329.103   1
   2   5   2 33586.5 865.209   1
  -2  -5  -3 110087. 1610.65   1
   2   5   3 126101. 1804.63   1
  -2  -5  -4 614.117 145.516   1
   2   5   4 644.343 125.384   1
  -2  -5  -5 56700.3 1557.77   1
   2   5   5 58339.0 1536.86   1
   2  -5   6 4322.44 435.933   1
  -2  -5  -6 5060.06 449.555   1
   2   5   6 4424.67 490.585   1
  -2  -5  -7 43561.1 1470.47   1
   2   5   7 38404.3 1639.34   1
  -2   5  -7 46203.7 1193.12   1
   2  -5   7 40105.1 1533.60   1
   2   5   8 4676.19 571.118   1
  -2   5  -8 5144.95 489.112   1
   2  -5   8 4171.54 488.626   1
  -2  -5  -8 4531.53 531.394   1
   2   5   9 17871.6 1085.13   1
  -2   5  -9 16669.1 1003.58   1
   2  -5   9 18213.2 970.958   1
  -2  -5  -9 17431.5 1129.45   1
   2   5  10 16120.6 1056.31   1
  -2   5 -10 14794.1 1055.44   1
   2  -5  10 16696.2 1019.26   1
  -2  -5 -10 17215.3 1211.26   1
  -2   5 -11 10612.0 928.804   1
   2   5  11 9287.02 876.267   1
   2  -5  11 10751.5 940.959   1
  -2  -5 -11 9952.87 953.686   1
   2  -5  12-24.3917 117.131   1
  -2  -5 -12 101.026 194.083   1
  -2   5 -12 47.9612 100.271   1
   2   5  12 179.427 183.935   1
   2   5  13 4514.44 742.569   1
  -2   5 -13 4579.22 663.403   1
   2  -5  13 5710.22 821.788   1
  -2  -5 -13 3736.54 678.802   1
  -2   5 -14 1255.32 338.242   1
   2   6 -15 1775.34 434.377   1
   2   6 -14 61.4380 125.460   1
   2   6 -13 6766.76 803.076   1
   2   6 -12 21492.2 1308.38   1
   2   6 -11 14550.8 977.697   1
   2   6 -10 2741.45 390.140   1
   2   6  -9 4760.71 489.484   1
   2   6  -8 3445.46 413.405   1
   2   6  -7 745.606 182.828   1
   2   6  -6 845.473 173.315   1
   2   6  -5 10173.3 506.150   1
   2   6   0 23854.2 593.933   1
   2   6   1 9977.26 406.944   1
   2   6   2 1946.93 192.203   1
  -2  -6  -3 2617.89 225.349   1
   2   6   3 2202.78 226.959   1
  -2  -6  -4 14321.9 706.941   1
   2   6   4 12191.3 664.848   1
  -2  -6  -5 3467.17 386.043   1
   2   6   5 3427.31 426.864   1
   2  -6   6 2979.50 346.980   1
  -2  -6  -6 2902.45 337.945   1
   2   6   6 2634.08 381.561   1
  -2  -6  -7 8469.28 652.026   1
   2   6   7 7861.97 648.252   1
   2   6   8 13669.3 874.994   1
   2  -6   8 12937.1 859.062   1
  -2  -6  -8 13535.0 906.811   1
   2   6   9 2447.75 469.764   1
  -2   6  -9 2850.66 380.415   1
   2  -6   9 3017.90 390.263   1
  -2  -6  -9 3167.56 480.131   1
  -2   6 -10 1344.77 292.508   1
  -2  -6 -10 1453.20 328.648   1
   2  -6  10 1275.55 278.866   1
   2   6  10 1604.81 361.034   1
   2   6  11 7078.27 864.498   1
  -2   6 -11 9094.44 809.298   1
   2  -6  11 8641.75 855.730   1
  -2  -6 -11 6282.16 762.079   1
   2   6  12 6079.31 799.370   1
  -2   6 -12 6997.41 776.113   1
   2  -6  12 6740.71 841.715   1
  -2  -6 -12 5834.07 783.894   1
  -2   6 -13 13034.0 1108.65   1
   2  -6  13 13238.4 1252.22   1
  -2   6 -14 1149.85 362.375   1
   2   7 -15 190.545 81.4096   1
   2   7 -14 1153.48 332.028   1
   2   7 -13 1929.33 418.794   1
   2   7 -12 92.1137 61.9399   1
   2   7 -11 324.081 140.460   1
   2   7 -10 688.121 209.476   1
   2   7  -9 2494.45 368.945   1
   2   7  -8 78886.0 1825.35   1
   2   7  -7 273.278 96.4029   1
   2   7  -6 219.384 87.6044   1
   2   7  -5 7090.63 448.449   1
   2   7  -4 16303.2 639.521   1
   2   7  -3 1677.85 143.764   1
   2   7   0 11857.4 370.952   1
   2   7   1 11560.5 381.175   1
   2   7   2 10662.0 497.853   1
   2   7   3 5146.27 420.846   1
  -2  -7  -3 6106.89 327.989   1
  -2  -7  -4 23920.8 915.472   1
   2   7   4 24564.3 909.826   1
   2   7   5 983.413 183.638   1
  -2  -7  -5 884.202 188.405   1
   2  -7   6 151.199 90.2644   1
   2   7   6 18.1976 33.5093   1
  -2  -7  -6 67.4938 66.2500   1
  -2  -7  -7 11077.3 739.600   1
   2   7   7 9755.03 757.069   1
   2  -7   7 10393.7 761.872   1
   2   7   8 51918.0 1883.60   1
   2  -7   8 49022.8 1698.75   1
  -2  -7  -8 49632.4 1794.38   1
   2   7   9 5985.37 667.755   1
  -2   7  -9 6464.67 487.677   1
   2  -7   9 5966.43 547.674   1
  -2  -7  -9 5439.89 610.477   1
  -2   7 -10 351.810 130.053   1
  -2  -7 -10 601.638 223.907   1
   2  -7  10 247.460 49.0889   1
   2   7  10 530.813 224.667   1
  -2  -7 -11 2633.06 487.876   1
  -2   7 -11 3171.99 450.992   1
   2  -7  11 3029.11 509.225   1
   2   7  11 3229.86 580.862   1
   2  -7  12 698.723 266.657   1
  -2  -7 -12 356.884 180.669   1
   2   7  12 466.846 252.407   1
  -2   7 -12 741.127 234.580   1
  -2   7 -13 2865.10 505.329   1
  -2  -7 -13 1934.21 487.963   1
   2  -7  13 3333.20 648.725   1
  -2   7 -14 916.217 311.810   1
   2   8 -15 2220.74 407.672   1
   2   8 -14 295.323 173.800   1
   2   8 -13 4315.50 585.334   1
   2   8 -12 6084.09 660.469   1
   2   8 -11 4254.64 518.082   1
   2   8 -10 259.811 130.487   1
   2   8  -9 9501.36 725.405   1
   2   8  -8 20.4599 22.5726   1
   2   8  -7 51992.8 1513.50   1
   2   8  -6 1872.01 245.087   1
   2   8  -5 10544.7 548.909   1
   2   8  -4 5202.46 306.299   1
   2   8  -3 1050.29 113.361   1
   2   8   1 6177.64 289.121   1
   2   8   2 180.709 58.9625   1
   2   8   3 3521.74 310.466   1
   2   8   4 4755.61 411.860   1
  -2  -8  -4 4751.66 414.410   1
  -2  -8  -5 5836.17 493.436   1
   2   8   5 5009.77 503.514   1
  -2  -8  -6 582.544 150.811   1
   2   8   6 573.064 167.320   1
   2  -8   6 597.557 182.501   1
  -2  -8  -7 15071.5 847.661   1
   2   8   7 14080.9 969.586   1
   2  -8   7 14198.7 953.912   1
  -2  -8  -8 15927.0 980.445   1
   2   8   8 14970.3 1040.60   1
   2  -8   8 15767.8 930.190   1
   2   8   9 7935.77 769.321   1
   2  -8   9 7921.87 633.333   1
  -2  -8  -9 7505.07 711.461   1
  -2  -8 -10 1164.08 310.057   1
   2  -8  10 2033.08 349.480   1
   2   8  10 1730.06 371.467   1
  -2   8 -11 1258.83 251.412   1
   2  -8  11 1317.01 326.217   1
  -2  -8 -11 675.878 284.731   1
   2   8  11 1208.58 303.086   1
   2   8  12 5934.86 733.038   1
  -2   8 -12 7681.85 699.911   1
   2  -8  12 6987.09 861.599   1
  -2  -8 -12 4918.95 694.935   1
  -2   8 -13 6539.51 699.662   1
   2  -8  13 6444.81 884.832   1
   2   9 -15 6228.99 643.248   1
   2   9 -14 345.657 124.280   1
   2   9 -13 13992.9 874.938   1
   2   9 -12 90.4210 53.4615   1
   2   9 -11 3402.40 410.730   1
   2   9 -10 1426.71 243.221   1
   2   9  -9 2250.20 289.849   1
   2   9  -8 387.983 108.718   1
   2   9  -7 628.404 127.893   1
   2   9  -6 1563.35 171.861   1
   2   9  -5 1292.62 133.091   1
   2   9  -4 1244.62 116.732   1
   2   9   2 1583.73 162.922   1
   2   9   3 31556.5 805.962   1
  -2  -9  -4 70.7815 53.4610   1
   2   9   4 55.3897 31.6530   1
   2   9   5 996.123 224.695   1
  -2  -9  -5 1662.49 255.412   1
  -2  -9  -6 3.12478 68.4568   1
   2   9   6-2.81896 3.52466   1
   2  -9   6 24.9994 32.4010   1
   2  -9   7 1157.86 274.139   1
   2   9   7 1318.14 253.341   1
  -2  -9  -7 1172.07 245.315   1
   2  -9   8 1089.60 244.250   1
   2   9   8 703.054 217.708   1
  -2  -9  -8 916.080 242.171   1
   2   9   9 17112.0 1135.61   1
  -2  -9  -9 17957.7 1124.87   1
   2  -9  10 260.516 121.157   1
  -2  -9 -10 137.868 67.2068   1
   2   9  10 267.840 132.688   1
   2   9  11 12003.3 912.479   1
   2  -9  11 11192.2 971.684   1
   2  -9  12 114.984 105.033   1
  -2  -9 -12 0.77731 23.1429   1
  -2   9 -12 149.210 89.9004   1
   2   9  12 91.4596 86.7308   1
   2  -9  13 8881.06 1018.34   1
  -2   9 -13 8902.78 737.128   1
   2  10 -10 1786.69 279.940   1
   2  10  -9 3164.51 347.870   1
   2  10  -8 2870.69 312.485   1
   2  10  -7 6341.28 412.864   1
   2  10  -6 8701.76 440.542   1
   2  10  -5 9432.70 335.435   1
   2  10   4 2740.75 267.888   1
  -2 -10  -4 3705.41 289.516   1
   2  10   5 10167.0 636.476   1
  -2 -10  -5 10811.8 656.171   1
   2  10   6 14774.5 775.247   1
  -2 -10  -6 13472.7 808.700   1
   2 -10   6 13851.1 889.031   1
  -2 -10  -7 203.739 117.238   1
   2 -10   7 400.273 148.041   1
   2  10   7 456.742 137.976   1
   2  10   8 27.9755 54.8449   1
  -2 -10  -8-4.62053 47.5041   1
   2 -10   8 119.953 69.0879   1
   2  10   9 6463.82 628.561   1
   2 -10   9 7238.49 619.096   1
   2 -10  10 139.197 99.1438   1
   2  10  10 271.227 121.858   1
  -2 -10 -10 135.458 110.642   1
   2  10  11 431.645 166.908   1
  -2 -10 -11 174.911 94.7917   1
  -2 -10 -12 492.590 213.141   1
   2  10  12 2675.77 470.474   1
  -2 -10 -13 0.85585 58.5828   1
   2  11   8 5106.47 545.920   1
   2  11   9 4170.15 510.145   1
   2  11  10 4674.30 571.548   1
   2  11  11-12.4700 18.9000   1
   2  11  12 49.7205 103.907   1
  -3   0  -7 35.8128 45.5947   1
   3   0   7 57.5553 57.5711   1
  -3   0  -8 105.979 87.3690   1
   3   0   8 74.5850 90.9104   1
   3   0   9 3.85579 16.3997   1
  -3   0  -9-6.96185 28.4571   1
   3   0  10 1232.98 276.375   1
  -3   0 -10 1066.14 287.481   1
   3   0  11 73.9651 68.0996   1
  -3   0 -11 17.1295 83.8527   1
   3   0  12 119.835 81.8994   1
  -3   0 -12 76.6090 56.3270   1
  -3   0 -13 20.4438 44.9607   1
   3   1   6 32746.3 1246.82   1
  -3  -1  -6 34382.8 1093.47   1
   3   1   7 12736.3 884.911   1
   3  -1   7 11344.1 784.594   1
  -3  -1  -7 14345.5 858.809   1
  -3   1  -7 12787.6 692.867   1
  -3  -1  -8 5508.30 597.120   1
  -3   1  -8 6661.17 618.394   1
   3   1   8 4764.97 578.696   1
   3  -1   8 5063.60 600.445   1
   3   1   9 1315.71 328.088   1
  -3  -1  -9 1556.16 348.131   1
   3  -1   9 1655.95 360.858   1
  -3   1  -9 2089.78 370.454   1
  -3  -1 -10 59151.9 2261.04   1
  -3   1 -10 57111.4 2172.18   1
   3   1  10 57866.8 1915.81   1
   3  -1  10 60191.2 2133.32   1
  -3  -1 -11 1159.51 325.187   1
   3   1  11 1443.30 321.681   1
   3  -1  11 1771.84 352.489   1
  -3   1 -11 1934.24 396.659   1
  -3  -1 -12 24.4298 37.6241   1
   3   1  12 31.1981 75.5015   1
   3  -1  12 26.8997 21.4044   1
  -3   1 -12 43.2804 61.4978   1
  -3  -1 -13 4953.28 739.205   1
  -3   1 -13 5589.81 789.021   1
   3   2   5 58486.1 1774.06   1
   3   2   6 2250.17 328.874   1
  -3  -2  -6 2249.76 299.714   1
  -3  -2  -7 6438.61 594.344   1
   3   2   7 5885.59 616.079   1
   3  -2   8 12259.0 951.595   1
  -3  -2  -8 13896.3 992.569   1
  -3   2  -8 15520.7 888.381   1
   3   2   8 10827.8 843.832   1
   3  -2   9 1943.11 399.680   1
  -3   2  -9 2175.51 369.868   1
  -3  -2  -9 1630.89 350.669   1
   3   2   9 1491.01 305.313   1
   3  -2  10 475.823 199.249   1
  -3   2 -10 468.798 191.536   1
   3   2  10 626.253 212.337   1
  -3  -2 -10 670.937 251.044   1
  -3  -2 -11 42358.6 1995.81   1
  -3   2 -11 40921.7 1912.85   1
   3   2  11 42232.1 1970.02   1
   3  -2  11 44349.7 1715.97   1
  -3  -2 -12 22810.5 1532.26   1
  -3   2 -12 21240.7 1460.19   1
   3   2  12 24253.3 1646.94   1
   3  -2  12 24641.6 1425.46   1
  -3  -2 -13 2151.95 469.552   1
  -3   2 -13 2599.35 611.679   1
   3   3   5 13540.1 766.076   1
  -3  -3  -6 4195.59 427.384   1
   3   3   6 3714.87 443.149   1
   3   3   7 1396.67 293.728   1
  -3  -3  -7 1734.04 303.128   1
   3  -3   8 14523.1 979.729   1
  -3  -3  -8 14799.9 1028.95   1
  -3   3  -8 16948.8 818.000   1
   3   3   8 15084.6 936.879   1
  -3   3  -9 443.690 157.433   1
  -3  -3  -9 591.513 508.828   1
   3  -3   9 459.545 207.105   1
   3   3   9 321.498 156.456   1
  -3  -3 -10 13495.8 1101.39   1
  -3   3 -10 13375.1 953.821   1
   3   3  10 13163.4 1019.72   1
   3  -3  10 10915.0 952.245   1
  -3  -3 -11 302.871 194.641   1
   3   3  11 237.781 115.028   1
  -3   3 -11 255.015 153.222   1
   3  -3  11 172.253 110.638   1
  -3  -3 -12 6350.84 799.686   1
  -3   3 -12 6793.58 783.570   1
   3   3  12 6925.37 882.832   1
   3  -3  12 7360.29 749.352   1
  -3  -3 -13 960.998 313.169   1
  -3   3 -13 1521.87 416.748   1
   3   4   4 647.834 168.942   1
   3   4   5 8132.85 590.737   1
  -3  -4  -6 8261.67 595.844   1
   3   4   6 6643.08 630.167   1
  -3  -4  -7 3470.57 437.072   1
   3   4   7 2999.06 415.178   1
  -3  -4  -8 22572.0 1276.91   1
   3   4   8 22366.3 1082.20   1
  -3  -4  -9 16254.5 1146.08   1
  -3   4  -9 18818.6 897.352   1
   3   4   9 17236.5 1067.56   1
   3  -4   9 16332.1 1142.38   1
  -3   4 -10 6.97666 67.8395   1
   3  -4  10-17.5006 49.2339   1
   3   4  10-28.3263 40.6026   1
  -3  -4 -10 0.66574 88.3245   1
  -3  -4 -11 41.4343 78.4603   1
   3   4  11 30.3005 61.1287   1
  -3   4 -11 17.3486 51.1618   1
   3  -4  11 102.544 96.9131   1
  -3   4 -12 35942.7 1792.76   1
   3   4  12 34075.8 2050.16   1
   3  -4  12 34895.6 1624.48   1
  -3  -4 -13 2042.11 403.181   1
  -3   4 -13 2565.37 494.208   1
   3   5   3 498.391 134.388   1
   3   5   4 11608.8 676.458   1
   3   5   5 3053.11 398.730   1
  -3  -5  -6 16944.9 846.037   1
   3   5   6 14290.5 857.061   1
  -3  -5  -7 4774.35 528.275   1
   3   5   7 4760.77 467.233   1
  -3  -5  -8 16247.8 1058.65   1
   3   5   8 15787.0 974.430   1
  -3  -5  -9 20343.6 1287.25   1
   3   5   9 22048.2 1328.38   1
   3  -5   9 21295.8 1312.99   1
  -3  -5 -10 2982.61 518.383   1
   3   5  10 3201.94 567.042   1
  -3   5 -10 3598.41 408.976   1
   3  -5  10 3224.25 519.588   1
  -3  -5 -11 4387.87 611.699   1
   3   5  11 4670.77 752.260   1
  -3   5 -11 4376.91 537.362   1
   3  -5  11 4490.54 612.317   1
  -3  -5 -12 709.174 266.958   1
   3   5  12 566.177 242.371   1
  -3   5 -12 811.928 220.811   1
   3  -5  12 724.368 231.587   1
  -3  -5 -13 3831.54 588.135   1
  -3   5 -13 6340.15 734.138   1
   3   6   3 826.629 162.909   1
   3   6   4 1444.84 261.123   1
   3   6   5 19170.0 928.663   1
  -3  -6  -6 68709.6 1709.33   1
   3   6   6 61530.0 1569.89   1
  -3  -6  -7 17567.6 1013.94   1
   3   6   7 16874.8 979.966   1
   3   6   8 285.948 131.160   1
  -3  -6  -8 367.343 154.563   1
  -3  -6  -9 8405.81 825.177   1
   3   6   9 8305.23 878.255   1
   3  -6   9 8701.22 847.441   1
   3   6  10 136.786 123.512   1
   3  -6  10 220.081 136.997   1
  -3  -6 -10 78.3416 117.940   1
   3   6  11 1283.34 343.424   1
  -3  -6 -11 1122.14 313.721   1
  -3   6 -11 1749.65 295.909   1
   3  -6  11 1508.03 354.195   1
  -3  -6 -12 4320.50 606.656   1
   3   6  12 6047.67 740.747   1
  -3   6 -12 5840.69 602.723   1
   3  -6  12 5399.23 636.442   1
  -3  -6 -13 118.503 99.3173   1
  -3   6 -13 1102.89 287.187   1
   3   7   2 22511.0 795.954   1
   3   7   3 478.924 140.298   1
   3   7   4 8717.21 564.018   1
   3   7   5-11.5238 40.1386   1
  -3  -7  -6 16990.7 831.877   1
   3   7   6 15650.5 883.429   1
  -3  -7  -7 17774.3 1007.34   1
   3   7   7 16724.2 1057.92   1
   3   7   8 6.38327 53.2716   1
  -3  -7  -8 12.8001 44.5097   1
   3   7   9 2248.62 431.458   1
  -3  -7  -9 1941.50 402.973   1
   3  -7   9 2826.96 479.927   1
  -3  -7 -10 31225.0 1646.52   1
   3   7  10 36233.5 1771.50   1
   3  -7  10 36052.5 1775.32   1
   3   7  11 159.265 111.136   1
  -3  -7 -11 22.0035 103.746   1
   3  -7  11 90.6388 93.4813   1
  -3  -7 -12 0.74516 54.3429   1
   3  -7  12 171.252 89.8764   1
   3   7  12 154.603 123.405   1
   3   8   1 29573.3 794.591   1
   3   8   2 12321.5 585.004   1
   3   8   3 19735.1 686.647   1
   3   8   4 5295.00 430.172   1
   3   8   5 2450.13 338.844   1
  -3  -8  -6 14715.2 774.606   1
   3   8   6 13374.6 927.170   1
   3   8   7 604.548 213.776   1
  -3  -8  -7 629.525 192.346   1
   3   8   8 327.702 155.016   1
  -3  -8  -8 394.384 157.716   1
   3   8   9 411.808 161.187   1
  -3  -8  -9 227.273 167.755   1
   3  -8  10 680.319 226.828   1
  -3  -8 -10 385.996 174.048   1
   3   8  10 709.880 225.223   1
   3   8  11 16091.6 1203.70   1
   3  -8  11 18971.9 1185.13   1
   3  -8  12 3235.42 485.170   1
   3   8  12 2982.41 547.732   1
   3   9 -12 286.379 135.870   1
   3   9 -11 172.522 135.073   1
   3   9 -10 2344.72 352.511   1
   3   9  -9 23980.2 1012.61   1
   3   9  -8 5429.15 463.224   1
   3   9  -7 9907.88 662.227   1
   3   9  -6 152.916 91.9351   1
   3   9  -1 37.1937 35.9682   1
   3   9   0 13256.1 503.326   1
   3   9   1 1627.01 155.037   1
   3   9   2 368.123 92.9786   1
   3   9   3 19024.1 787.571   1
   3   9   4 4269.35 448.203   1
   3   9   5 8731.63 637.303   1
   3   9   6 9044.63 659.345   1
  -3  -9  -6 9506.24 581.052   1
   3   9   7 26885.4 1144.93   1
  -3  -9  -7 25694.6 1143.45   1
  -3  -9  -8 1053.87 271.355   1
   3   9   8 1171.55 241.803   1
   3   9   9 5579.99 652.123   1
  -3  -9  -9 2589.59 479.839   1
   3  -9  10 588.855 227.990   1
  -3  -9 -10 220.497 173.029   1
   3   9  10 903.714 280.013   1
   3  -9  11 2562.24 403.902   1
   3   9  11 2402.97 492.527   1
  -3  -9 -12 544.418 237.897   1
   3   9  12 2715.77 534.854   1
   3  10  -8 345.973 127.637   1
   3  10  -7 1375.79 219.364   1
   3  10  -6 2823.14 265.667   1
   3  10  -5 819.651 122.806   1
   3  10  -4 22076.2 576.565   1
   3  10  -3 9061.08 342.100   1
   3  10   0 27077.0 640.675   1
   3  10   1 4991.81 309.074   1
   3  10   2 179.431 57.2523   1
   3  10   3 179.024 67.2481   1
   3  10   4 225.859 90.8595   1
   3  10   5 2969.30 376.748   1
   3  10   6 14987.5 868.374   1
   3  10   7 3932.80 485.221   1
   3  10   8 4531.45 571.925   1
   3  10   9 7014.74 775.286   1
   3  10  10 1535.13 369.660   1
   3 -10  10 1949.47 428.222   1
   3  10  11 2053.93 439.211   1
   3 -10  11 1771.19 350.913   1
   3  10  12 7161.19 869.686   1
   3  11   3 41.2951 39.3940   1
   3  11   4 6005.69 470.976   1
   3  11   5 213.718 79.9635   1
   3  11   6 1309.47 256.235   1
   3  11   7 278.468 132.454   1
   3  11   8 4061.57 529.388   1
   3  11   9 414.455 172.648   1
  -4   0 -10 17132.2 1048.48   1
   4   0  10 14252.8 1203.51   1
   4   0  11-42.8163 85.9299   1
  -4   0 -11 1.74714 22.7022   1
  -4   0 -12 37353.8 1849.25   1
  -4  -1  -9 12107.4 795.255   1
   4   1   9 9923.15 908.834   1
   4   1  10 311.394 153.840   1
  -4  -1 -10 489.813 184.135   1
   4  -1  10 228.192 148.938   1
  -4   1 -10 270.504 106.584   1
  -4  -1 -11 4415.65 596.510   1
  -4   1 -11 4412.94 591.621   1
   4   1  11 4304.56 629.687   1
   4  -1  11 3710.40 606.588   1
  -4  -1 -12 784.769 289.368   1
  -4   1 -12 908.540 269.000   1
   4   2   8 12685.1 1000.09   1
   4   2   9 655.251 257.355   1
  -4  -2  -9 539.625 191.385   1
   4   2  10 806.222 257.609   1
  -4  -2 -10 1087.58 282.386   1
  -4  -2 -11 8517.82 847.581   1
  -4   2 -11 10727.5 799.907   1
   4   2  11 8344.03 837.652   1
   4  -2  11 8183.82 943.618   1
  -4  -2 -12 1136.01 330.200   1
  -4   2 -12 875.339 262.785   1
   4   3   8 3506.30 530.447   1
  -4  -3  -9 7216.59 666.789   1
   4   3   9 5812.01 707.666   1
  -4  -3 -10 30963.3 1577.22   1
   4   3  10 27063.5 1485.69   1
  -4  -3 -11 4384.61 644.573   1
   4   3  11 4354.90 577.909   1
   4  -3  11 4843.18 696.483   1
  -4  -3 -12 4309.40 680.719   1
  -4   3 -12 2036.27 373.150   1
   4   4   7 6401.39 672.903   1
  -4  -4  -8 75.6717 81.7208   1
   4   4   8 165.978 138.784   1
  -4  -4  -9 23537.1 1261.60   1
   4   4   9 21338.5 1253.96   1
  -4  -4 -10 4057.14 551.223   1
   4   4  10 4058.67 526.904   1
  -4  -4 -11 10895.7 1018.32   1
   4   4  11 12217.4 1000.71   1
  -4  -4 -12 2061.96 463.600   1
   4   5   6 8069.15 694.462   1
   4   5   7 2414.26 426.576   1
   4   5   8 575.157 195.874   1
  -4  -5  -8 816.908 204.726   1
  -4  -5  -9 5528.31 603.339   1
   4   5   9 5532.73 593.536   1
  -4  -5 -10 5005.23 622.004   1
   4   5  10 5256.91 609.065   1
   4   5  11 278.349 157.326   1
  -4  -5 -11 291.226 188.668   1
  -4  -5 -12 1635.56 406.645   1
   4   6   5 569.734 177.461   1
   4   6   6 3058.06 454.153   1
   4   6   7 5509.58 596.503   1
  -4  -6  -8 5978.13 526.441   1
   4   6   8 6769.15 637.449   1
  -4  -6  -9 8825.28 758.444   1
   4   6   9 8940.30 733.499   1
  -4  -6 -10 8762.46 840.786   1
   4   6  10 9481.24 923.205   1
  -4  -6 -11 15521.6 1275.77   1
   4   6  11 20001.8 1466.02   1
  -4  -6 -12 6109.69 835.377   1
   4   7   4 44876.6 1445.06   1
   4   7   5 9.55161 6.90940   1
   4   7   6 5303.23 548.750   1
   4   7   7 5374.98 528.082   1
   4   7   8 14471.7 923.604   1
   4   7   9-14.4464 70.3933   1
  -4  -7  -9 25.5586 84.2459   1
   4   7  10 2503.15 471.964   1
  -4  -7 -10 2064.23 421.221   1
   4   7  11 67.3128 254.904   1
  -4  -7 -11 275.865 429.335   1
  -4  -7 -12 147.290 125.291   1
   4   8   3 20019.3 880.404   1
   4   8   4 797.098 203.662   1
   4   8   5 27226.6 1136.61   1
   4   8   6 1866.56 280.231   1
   4   8   7 13519.8 855.851   1
   4   8   8 2639.65 428.505   1
  -4  -8  -9 539.770 182.211   1
   4   8   9 755.304 241.517   1
   4   8  10 229.648 161.442   1
  -4  -8 -10 133.148 111.720   1
   4   8  11 206.730 151.100   1
  -4  -8 -11 194.656 142.464   1
  -4  -8 -12 270.847 217.023   1
   4   9   2 8809.12 546.291   1
   4   9   3 304.420 127.897   1
   4   9   4 695.482 169.089   1
   4   9   5 1938.24 263.362   1
   4   9   6 2031.07 342.263   1
   4   9   7 646.923 198.488   1
   4   9   8 286.307 172.648   1
   4   9   9 9671.05 954.085   1
  -4  -9  -9 4007.15 462.428   1
   4   9  10 4006.97 587.242   1
  -4  -9 -10 2464.61 409.044   1
   4   9  11 1158.46 314.804   1
  -4  -9 -11 270.273 174.997   1
  -4  -9 -12-6.28204 58.6150   1
   4  10   1 1777.19 243.186   1
   4  10   2 10109.0 571.646   1
   4  10   3 5.36851 13.4544   1
   4  10   4 1604.88 246.675   1
   4  10   5 11833.9 756.969   1
   4  10   6 10154.6 824.672   1
   4  10   7 1797.48 376.241   1
   4  10   8 1604.87 321.719   1
   4  10   9 2469.46 402.307   1
   4  10  10 5102.64 601.541   1
   4  10  11 595.023 234.210   1
   5   4  10 7357.44 877.440   1
   5   5  10 1008.92 322.427   1
   5   6   9 56.0570 91.9745   1
   5   6  10 97.2908 82.1445   1
   5   7   8 11310.1 939.822   1
   5   7   9 28.1557 61.7632   1
   5   7  10 15965.5 1074.13   1
   5   8   6 6732.94 696.821   1
   5   8   7 3886.38 535.291   1
   5   8   8 1108.32 266.084   1
   5   8   9 1828.31 339.384   1
   5   8  10 395.405 163.809   1
   5   9   5 6871.49 701.482   1
   5   9   6 3992.46 494.529   1
   5   9   7 2666.32 375.947   1
   5   9   8 2391.54 376.739   1
   5   9   9 3767.38 570.037   1
   5   9  10 346.669 152.653   1
   5  10   4 515.398 173.387   1
   5  10   5 13.7886 25.1321   1
   5  10   6 3063.82 373.959   1
   5  10   7 1430.72 288.323   1
   5  10   8 5797.83 667.590   1
   5  10   9 126.446 101.623   1
   5  10  10 3.49004 51.0180   1
   0   0   0    0.00    0.00   0
TITL Cr1_p0_s1 in P2(1)/c
REM P2(1)/c (#14 in standard setting)
CELL 0.29840   4.773002   7.529406   9.578647  90.0000  90.4422  90.0000
ZERR    2.00   0.001677   0.000641   0.000642   0.0000   0.0140   0.0000
LATT  1
SYMM -x, y+1/2,-z+1/2
SFAC C H N O
UNIT 22.00 20.00 2.00 2.00
TREF
HKLF 4
END
;
_shelx_hkl_checksum              28923
loop_
_space_group_symop_operation_xyz
'x, y, z'
'-x, y+1/2, -z+1/2'
'-x, -y, -z'
'x, -y-1/2, z-1/2'
loop_
_atom_site_label
_atom_site_type_symbol
_atom_site_fract_x
_atom_site_fract_y
_atom_site_fract_z
_atom_site_U_iso_or_equiv
_atom_site_adp_type
_atom_site_occupancy
_atom_site_site_symmetry_order
_atom_site_calc_flag
_atom_site_refinement_flags_posn
Ca1 Ca 0.0076(2) 0.60672(6) 0.16499(5) 0.0084(4) Uani 1 1 d .
Si1 Si 0.4736(3) 0.26857(9) 0.08393(7) 0.0072(5) Uani 1 1 d .
B1 B 0.5713(12) 0.0886(3) -0.1580(3) 0.0061(14) Uani 1 1 d .
O1 O 0.2446(9) 0.4051(2) 0.0359(2) 0.0099(11) Uani 1 1 d .
O2 O 0.6765(8) 0.1983(2) -0.04168(17) 0.0081(10) Uani 1 1 d .
O3 O 0.6809(8) 0.3360(2) 0.21110(18) 0.0079(10) Uani 1 1 d .
O4 O 0.3115(8) 0.0902(2) 0.1450(2) 0.0090(11) Uani 1 1 d .
O5 O 0.2587(8) 0.0882(3) -0.1635(2) 0.0100(12) Uani 1 1 d D
H H 0.204(18) 0.036(8) -0.085(4) 0.033(18) Uiso 1 1 d D
loop_
_atom_site_aniso_label
_atom_site_aniso_U_11
_atom_site_aniso_U_22
_atom_site_aniso_U_33
_atom_site_aniso_U_23
_atom_site_aniso_U_13
_atom_site_aniso_U_12
Ca1 0.0070(11) 0.0097(3) 0.0086(3) -0.00036(10) 0.0016(4) -0.00027(19)
Si1 0.0085(14) 0.0067(4) 0.0064(3) -0.00044(14) 0.0008(5) -0.0001(3)
B1 0.006(4) 0.0077(11) 0.0049(9) 0.0008(5) 0.0039(15) -0.0030(10)
O1 0.011(4) 0.0094(9) 0.0096(7) -0.0003(4) -0.0003(13) 0.0029(7)
O2 0.008(3) 0.0093(8) 0.0066(6) -0.0018(4) 0.0043(11) -0.0004(8)
O3 0.006(3) 0.0105(8) 0.0074(6) -0.0012(4) 0.0005(11) 0.0011(7)
O4 0.008(4) 0.0076(8) 0.0109(7) 0.0014(4) 0.0038(12) 0.0011(8)
O5 0.010(4) 0.0118(9) 0.0082(7) 0.0005(4) 0.0011(13) 0.0006(8)
loop_
_atom_type_symbol
_atom_type_description
_atom_type_scat_dispersion_real
_atom_type_scat_dispersion_imag
_atom_type_scat_source
O O 0.0056 0.0036 'International Tables Vol C Tables 4.2.6.8 and 6.1.1.4'
Si Si 0.0522 0.0431 'International Tables Vol C Tables 4.2.6.8 and 6.1.1.4'
B B 0.0004 0.0004 'International Tables Vol C Tables 4.2.6.8 and 6.1.1.4'
Ca Ca 0.1611 0.1926 'International Tables Vol C Tables 4.2.6.8 and 6.1.1.4'
H H 0.0000 0.0000 'International Tables Vol C Tables 4.2.6.8 and 6.1.1.4'
loop_
_geom_angle_atom_site_label_1
_geom_angle_atom_site_label_2
_geom_angle_atom_site_label_3
_geom_angle
_geom_angle_site_symmetry_1
_geom_angle_site_symmetry_3
O1 Ca1 O1 76.97(13) 3_565 .
O1 Ca1 O4 107.93(14) 3_565 2
O1 Ca1 O4 134.89(9) . 2
O1 Ca1 O2 86.45(10) 3_565 3_665
O1 Ca1 O2 79.90(11) . 3_665
O4 Ca1 O2 143.92(7) 2 3_665
O1 Ca1 O5 141.63(7) 3_565 4_566
O1 Ca1 O5 74.12(8) . 4_566
O4 Ca1 O5 76.94(11) 2 4_566
O2 Ca1 O5 112.31(11) 3_665 4_566
O1 Ca1 O3 136.28(7) 3_565 2_655
O1 Ca1 O3 114.43(12) . 2_655
O4 Ca1 O3 93.05(9) 2 2_655
O2 Ca1 O3 57.04(7) 3_665 2_655
O5 Ca1 O3 79.51(7) 4_566 2_655
O1 Ca1 O3 78.37(9) 3_565 1_455
O1 Ca1 O3 82.54(10) . 1_455
O4 Ca1 O3 56.19(7) 2 1_455
O2 Ca1 O3 158.98(6) 3_665 1_455
O5 Ca1 O3 73.38(9) 4_566 1_455
O3 Ca1 O3 142.54(4) 2_655 1_455
O1 Ca1 O5 77.03(8) 3_565 3_565
O1 Ca1 O5 145.81(7) . 3_565
O4 Ca1 O5 74.78(9) 2 3_565
O2 Ca1 O5 76.70(11) 3_665 3_565
O5 Ca1 O5 138.27(5) 4_566 3_565
O3 Ca1 O5 72.08(9) 2_655 3_565
O3 Ca1 O5 113.26(12) 1_455 3_565
O1 Ca1 B1 110.92(9) 3_565 3_665
O1 Ca1 B1 99.21(13) . 3_665
O4 Ca1 B1 118.72(8) 2 3_665
O2 Ca1 B1 28.33(6) 3_665 3_665
O5 Ca1 B1 98.23(10) 4_566 3_665
O3 Ca1 B1 28.84(7) 2_655 3_665
O3 Ca1 B1 170.71(6) 1_455 3_665
O5 Ca1 B1 70.19(12) 3_565 3_665
O1 Ca1 B1 95.28(12) 3_565 4_466
O1 Ca1 B1 108.89(10) . 4_466
O4 Ca1 B1 27.63(7) 2 4_466
O2 Ca1 B1 171.20(8) 3_665 4_466
O5 Ca1 B1 71.34(12) 4_566 4_466
O3 Ca1 B1 117.41(8) 2_655 4_466
O3 Ca1 B1 28.67(7) 1_455 4_466
O5 Ca1 B1 95.25(11) 3_565 4_466
B1 Ca1 B1 145.28(7) 3_665 4_466
O1 Ca1 Si1 21.67(7) 3_565 3_565
O1 Ca1 Si1 97.97(6) . 3_565
O4 Ca1 Si1 96.69(8) 2 3_565
O2 Ca1 Si1 84.89(7) 3_665 3_565
O5 Ca1 Si1 158.77(7) 4_566 3_565
O3 Ca1 Si1 121.37(5) 2_655 3_565
O3 Ca1 Si1 86.19(6) 1_455 3_565
O5 Ca1 Si1 55.60(5) 3_565 3_565
B1 Ca1 Si1 102.52(6) 3_665 3_565
B1 Ca1 Si1 93.53(8) 4_466 3_565
O1 Ca1 Si1 96.81(8) 3_565 .
O1 Ca1 Si1 20.52(5) . .
O4 Ca1 Si1 123.11(6) 2 .
O2 Ca1 Si1 86.17(7) 3_665 .
O5 Ca1 Si1 54.00(7) 4_566 .
O3 Ca1 Si1 103.13(8) 2_655 .
O3 Ca1 Si1 81.34(8) 1_455 .
O5 Ca1 Si1 162.04(8) 3_565 .
B1 Ca1 Si1 97.08(10) 3_665 .
B1 Ca1 Si1 102.16(7) 4_466 .
Si1 Ca1 Si1 118.17(3) 3_565 .
O1 Si1 O2 114.30(13) . .
O1 Si1 O3 115.43(11) . .
O2 Si1 O3 106.74(18) . .
O1 Si1 O4 108.0(2) . .
O2 Si1 O4 106.12(13) . .
O3 Si1 O4 105.56(11) . .
O1 Si1 Ca1 32.25(7) . 3_565
O2 Si1 Ca1 88.54(9) . 3_565
O3 Si1 Ca1 145.78(8) . 3_565
O4 Si1 Ca1 98.94(11) . 3_565
O1 Si1 Ca1 30.46(8) . .
O2 Si1 Ca1 141.66(7) . .
O3 Si1 Ca1 89.48(11) . .
O4 Si1 Ca1 102.32(13) . .
Ca1 Si1 Ca1 61.83(3) 3_565 .
O1 Si1 Ca1 88.31(14) . 2_545
O2 Si1 Ca1 140.82(8) . 2_545
O3 Si1 Ca1 89.60(12) . 2_545
O4 Si1 Ca1 34.71(10) . 2_545
Ca1 Si1 Ca1 97.56(5) 3_565 2_545
Ca1 Si1 Ca1 71.44(3) . 2_545
O1 Si1 Ca1 96.73(14) . 3_665
O2 Si1 Ca1 34.80(8) . 3_665
O3 Si1 Ca1 89.83(13) . 3_665
O4 Si1 Ca1 140.81(11) . 3_665
Ca1 Si1 Ca1 85.87(3) 3_565 3_665
Ca1 Si1 Ca1 113.86(3) . 3_665
Ca1 Si1 Ca1 174.66(3) 2_545 3_665
O4 B1 O2 108.9(3) 3_655 .
O4 B1 O3 106.8(3) 3_655 4_565
O2 B1 O3 107.8(3) . 4_565
O4 B1 O5 112.5(3) 3_655 .
O2 B1 O5 111.3(3) . .
O3 B1 O5 109.4(3) 4_565 .
O4 B1 Ca1 116.2(3) 3_655 3_665
O2 B1 Ca1 51.23(17) . 3_665
O3 B1 Ca1 56.92(15) 4_565 3_665
O5 B1 Ca1 131.24(17) . 3_665
O4 B1 Ca1 49.12(19) 3_655 4_665
O2 B1 Ca1 117.2(3) . 4_665
O3 B1 Ca1 57.91(18) 4_565 4_665
O5 B1 Ca1 131.42(15) . 4_665
Ca1 B1 Ca1 84.16(14) 3_665 4_665
Si1 O1 Ca1 126.08(12) . 3_565
Si1 O1 Ca1 129.02(11) . .
Ca1 O1 Ca1 103.03(13) 3_565 .
B1 O2 Si1 122.5(3) . .
B1 O2 Ca1 100.4(2) . 3_665
Si1 O2 Ca1 122.47(10) . 3_665
B1 O3 Si1 122.2(3) 4_566 .
B1 O3 Ca1 94.24(14) 4_566 2_645
Si1 O3 Ca1 118.61(10) . 2_645
B1 O3 Ca1 93.42(18) 4_566 1_655
Si1 O3 Ca1 118.26(10) . 1_655
Ca1 O3 Ca1 105.05(12) 2_645 1_655
B1 O4 Si1 126.6(3) 3_655 .
B1 O4 Ca1 103.2(2) 3_655 2_545
Si1 O4 Ca1 121.97(12) . 2_545
B1 O5 Ca1 119.87(19) . 4_565
B1 O5 Ca1 118.83(16) . 3_565
Ca1 O5 Ca1 106.29(10) 4_565 3_565
B1 O5 H 106(6) . .
Ca1 O5 H 99(4) 4_565 .
Ca1 O5 H 105(5) 3_565 .
loop_
_geom_bond_atom_site_label_1
_geom_bond_atom_site_label_2
_geom_bond_distance
_geom_bond_site_symmetry_2
Ca1 O1 2.264(2) 3_565
Ca1 O1 2.266(3) .
Ca1 O4 2.385(4) 2
Ca1 O2 2.419(3) 3_665
Ca1 O5 2.501(2) 4_566
Ca1 O3 2.563(2) 2_655
Ca1 O3 2.606(3) 1_455
Ca1 O5 2.625(3) 3_565
Ca1 B1 3.051(4) 3_665
Ca1 B1 3.071(5) 4_466
Ca1 Si1 3.4289(13) 3_565
Ca1 Si1 3.4725(14) .
Si1 O1 1.566(3) .
Si1 O2 1.638(3) .
Si1 O3 1.644(2) .
Si1 O4 1.659(3) .
Si1 Ca1 3.4289(13) 3_565
Si1 Ca1 3.5539(16) 2_545
Si1 Ca1 3.5762(17) 3_665
B1 O4 1.463(4) 3_655
B1 O2 1.472(3) .
B1 O3 1.476(4) 4_565
B1 O5 1.493(7) .
B1 Ca1 3.051(4) 3_665
B1 Ca1 3.071(5) 4_665
O1 Ca1 2.264(2) 3_565
O2 Ca1 2.419(3) 3_665
O3 B1 1.476(4) 4_566
O3 Ca1 2.563(2) 2_645
O3 Ca1 2.606(3) 1_655
O4 B1 1.463(4) 3_655
O4 Ca1 2.385(4) 2_545
O5 Ca1 2.501(2) 4_565
O5 Ca1 2.625(3) 3_565
O5 H 0.89(2) .
