#------------------------------------------------------------------------------
#$Date: 2019-11-24 06:02:49 +0200 (Sun, 24 Nov 2019) $
#$Revision: 236893 $
#$URL: file:///home/coder/svn-repositories/cod/cif/4/34/98/4349852.cif $
#------------------------------------------------------------------------------
#
# This file is available in the Crystallography Open Database (COD),
# http://www.crystallography.net/
#
# All data on this site have been placed in the public domain by the
# contributors.
#
data_4349852
loop_
_publ_author_name
'Gorelova, Liudmila A.'
'Pakhomova, Anna S.'
'Aprilis, Georgios'
'Dubrovinsky, Leonid S.'
'Krivovichev, Sergey V.'
_publ_section_title
;
 Pentacoordinated silicon in the high-pressure modification of datolite,
 CaBSiO4(OH)
;
_journal_issue                   7
_journal_name_full               'Inorganic Chemistry Frontiers'
_journal_page_first              1653
_journal_paper_doi               10.1039/C8QI00257F
_journal_volume                  5
_journal_year                    2018
_chemical_formula_sum            'B Ca H O5 Si'
_chemical_formula_weight         159.99
_space_group_crystal_system      monoclinic
_space_group_IT_number           14
_space_group_name_Hall           '-P 2ybc'
_space_group_name_H-M_alt        'P 1 21/c 1'
_atom_sites_solution_hydrogens   difmap
_audit_creation_method           SHELXL-2014/7
_audit_update_record
;
2018-03-21 deposited with the CCDC.
2018-05-04 downloaded from the CCDC.
;
_cell_angle_alpha                90
_cell_angle_beta                 90.70(3)
_cell_angle_gamma                90
_cell_formula_units_Z            4
_cell_length_a                   4.538(3)
_cell_length_b                   6.7951(13)
_cell_length_c                   9.2277(9)
_cell_measurement_reflns_used    1162
_cell_measurement_temperature    298(2)
_cell_measurement_theta_max      17.457
_cell_measurement_theta_min      2.240
_cell_volume                     284.5(2)
_computing_structure_refinement  'SHELXL-2014/7 (Sheldrick, 2014)'
_diffrn_ambient_temperature      298(2)
_diffrn_measured_fraction_theta_full 0.433
_diffrn_measured_fraction_theta_max 0.264
_diffrn_measurement_device_type
'esperanto-CrysAlisPro-abstract goniometer imported esperanto images'
_diffrn_radiation_wavelength     0.2984
_diffrn_reflns_av_R_equivalents  0.0452
_diffrn_reflns_av_unetI/netI     0.0660
_diffrn_reflns_Laue_measured_fraction_full 0.433
_diffrn_reflns_Laue_measured_fraction_max 0.264
_diffrn_reflns_limit_h_max       5
_diffrn_reflns_limit_h_min       -4
_diffrn_reflns_limit_k_max       12
_diffrn_reflns_limit_k_min       -13
_diffrn_reflns_limit_l_max       18
_diffrn_reflns_limit_l_min       -17
_diffrn_reflns_number            1162
_diffrn_reflns_point_group_measured_fraction_full 0.433
_diffrn_reflns_point_group_measured_fraction_max 0.264
_diffrn_reflns_theta_full        10.314
_diffrn_reflns_theta_max         17.457
_diffrn_reflns_theta_min         2.240
_exptl_absorpt_coefficient_mu    1.272
_exptl_crystal_colour            colorless
_exptl_crystal_density_diffrn    3.735
_exptl_crystal_density_meas      ?
_exptl_crystal_density_method    none
_exptl_crystal_description       isosymmetric
_exptl_crystal_F_000             320
_exptl_crystal_size_max          0.010
_exptl_crystal_size_mid          0.010
_exptl_crystal_size_min          0.005
_refine_diff_density_max         1.902
_refine_diff_density_min         -2.068
_refine_diff_density_rms         0.336
_refine_ls_extinction_method     none
_refine_ls_goodness_of_fit_ref   1.200
_refine_ls_hydrogen_treatment    refall
_refine_ls_matrix_type           full
_refine_ls_number_parameters     53
_refine_ls_number_reflns         640
_refine_ls_number_restraints     1
_refine_ls_restrained_S_all      1.199
_refine_ls_R_factor_all          0.1283
_refine_ls_R_factor_gt           0.1133
_refine_ls_shift/su_max          0.000
_refine_ls_shift/su_mean         0.000
_refine_ls_structure_factor_coef Fsqd
_refine_ls_weighting_details
'w=1/[\s^2^(Fo^2^)+(0.2000P)^2^] where P=(Fo^2^+2Fc^2^)/3'
_refine_ls_weighting_scheme      calc
_refine_ls_wR_factor_gt          0.2900
_refine_ls_wR_factor_ref         0.3172
_reflns_Friedel_coverage         0.000
_reflns_number_gt                477
_reflns_number_total             640
_reflns_threshold_expression     'I > 2\s(I)'
_cod_data_source_file            c8qi00257f2.cif
_cod_data_source_block           shelx_CCDC6
_cod_depositor_comments
;
The following automatic conversions were performed:

data item '_exptl_crystal_density_meas' value 'none' was changed to
'?' -- the value is perceived as not measured.

Automatic conversion script
Id: cif_fix_values 6909 2019-04-08 15:41:33Z antanas 
;
_cod_original_cell_volume        284.50(19)
_cod_original_sg_symbol_H-M      'P 21/c'
_cod_database_code               4349852
_shelx_shelxl_version_number     2014/7
_shelx_space_group_comment
;
The symmetry employed for this shelxl refinement is uniquely defined
by the following loop, which should always be used as a source of
symmetry information in preference to the above space-group names.
They are only intended as comments.
;
_shelx_res_file
;

    shelx.res created by SHELXL-2014/7


TITL cr2_p05_s1 in P2(1)/c
REM P2(1)/c (#14 in standard setting)
CELL 0.29840   4.537554   6.795093   9.227726  90.0000  90.7035  90.0000
ZERR    4.00   0.002922   0.001262   0.000883   0.0000   0.0267   0.0000
LATT  1
SYMM -x, y+1/2,-z+1/2
SFAC O Si B Ca H
UNIT 20.00 4.00 4.00 4.00 4.00

OMIT     2   4   8
OMIT     0   0   4
OMIT     0   0  12
OMIT    -1   1  15
OMIT     0   5   1
OMIT    -1   6   3
OMIT     1  11   1
OMIT     1   9   2
OMIT    -4   9   4
OMIT     4  10   1
OMIT     0   1   8

L.S. 20
ACTA
BOND $H
DFIX 0.90 0.02 H O5
TEMP 25.0
FMAP 2
PLAN 25
REM TWIN 1 0 0 0 1 0 0 0 -1
EADP O1 O2 O3 O4 O5
REM EXTI    0.000000
WGHT    0.200000
FVAR       9.04727
CA1   4   -0.000859    0.630239    0.180294    11.00000    0.02412    0.01794 =
         0.00710    0.00010   -0.00625   -0.00105
SI1   2    0.528146    0.320536    0.066301    11.00000    0.01924    0.01756 =
         0.00516    0.00076   -0.00732    0.00125
B1    3    0.587027    0.057696   -0.152414    11.00000    0.02910    0.01786 =
         0.00066   -0.00043   -0.00256   -0.00523
O1    1    0.261760    0.460985    0.017038    11.00000    0.01827    0.01785 =
         0.00600    0.00164   -0.00547    0.00004
O2    1    0.724210    0.180151   -0.039847    11.00000    0.01827    0.01785 =
         0.00600    0.00164   -0.00547    0.00004
O3    1    0.713650    0.365298    0.215400    11.00000    0.01827    0.01785 =
         0.00600    0.00164   -0.00547    0.00004
O4    1    0.316239    0.138836    0.131268    11.00000    0.01827    0.01785 =
         0.00600    0.00164   -0.00547    0.00004
O5    1    0.264494    0.078236   -0.159401    11.00000    0.01827    0.01785 =
         0.00600    0.00164   -0.00547    0.00004
H     5    0.174478    0.011581   -0.088518    11.00000    0.06950

HKLF 4

REM  cr2_p05_s1 in P2(1)/c
REM R1 =  0.1133 for     477 Fo > 4sig(Fo)  and  0.1283 for all     640 data
REM     53 parameters refined using      1 restraints

END

WGHT      0.2000      0.0000

REM Highest difference peak  1.902,  deepest hole -2.068,  1-sigma level  0.336
Q1    1  -0.1658  0.5983  0.1894  11.00000  0.05    1.24
Q2    1   0.5202  0.4429 -0.0085  11.00000  0.05    1.08
Q3    1  -0.0296  0.7420  0.1779  11.00000  0.05    1.05
Q4    1   0.1209  0.6963  0.1935  11.00000  0.05    1.04
Q5    1   0.8399  0.1221 -0.0404  11.00000  0.05    1.03
Q6    1   0.6961  0.2801  0.0506  11.00000  0.05    0.97
Q7    1   0.0605  0.3514  0.1288  11.00000  0.05    0.96
Q8    1   0.5039  0.4275  0.0654  11.00000  0.05    0.94
Q9    1   0.4876  0.2038  0.0558  11.00000  0.05    0.92
Q10   1   0.8930  0.4711  0.1997  11.00000  0.05    0.89
Q11   1   0.6703  0.4573  0.1885  11.00000  0.05    0.87
Q12   1   0.1194  0.5018 -0.0619  11.00000  0.05    0.85
Q13   1   0.8377  0.2657  0.2040  11.00000  0.05    0.82
Q14   1   0.3728  0.3862  0.0617  11.00000  0.05    0.82
Q15   1   0.9369  0.3350  0.0131  11.00000  0.05    0.80
Q16   1   0.0549  0.3749  0.0557  11.00000  0.05    0.79
Q17   1   0.4232  0.0593  0.1474  11.00000  0.05    0.79
Q18   1   0.4423  0.6120  0.1189  11.00000  0.05    0.78
Q19   1   0.3125  0.0398 -0.1602  11.00000  0.05    0.76
Q20   1   0.6085  0.1310  0.0915  11.00000  0.05    0.74
Q21   1   0.4412  0.1419 -0.1595  11.00000  0.05    0.71
Q22   1   0.1348  0.2261 -0.0774  11.00000  0.05    0.70
Q23   1   0.6718  0.3790 -0.0134  11.00000  0.05    0.68
Q24   1   0.3828 -0.0155 -0.1166  11.00000  0.05    0.68
Q25   1   0.6772  0.1592 -0.0050  11.00000  0.05    0.68
;
_shelx_res_checksum              29416
_shelx_hkl_file
;
   0   0   3 25.7442 40.7908   1
   0   0  -3 44.2894 95.5444   1
   0   0  -4 52648.1 2164.15   1
   0   0   4 51438.6 2049.68   1
   0   0  -5-1.28180 110.355   1
   0   0   5-49.6846 77.8200   1
   0   0  -6 288789. 5701.47   1
   0   0   6 279846. 5722.15   1
   0   0  -7 17.3572 107.682   1
   0   0   7 81.4388 102.083   1
   0   0   8 269726. 6410.85   1
   0   0  -8 269263. 6147.76   1
   0   0   9-162.089 301.663   1
   0   0  -9-124.597 204.083   1
   0   0  10 24014.7 2112.02   1
   0   0 -10 23440.4 2055.13   1
   0   0 -11 329.979 306.333   1
   0   0  11-93.0847 162.934   1
   0   0 -12 20203.3 2073.60   1
   0   0  12 20000.3 2118.58   1
   0   0  13 91.9196 114.368   1
   0   0 -13-115.116 48.0902   1
   0   0 -14 108.789 129.331   1
   0   0  14 131.054 253.040   1
   0   0  15-87.6182 169.755   1
   0   0 -15-5.70454 233.306   1
   0   0  16 13334.2 1968.74   1
   0   0 -16 13200.9 2224.70   1
   0   0 -17 55.4708 177.382   1
   0   1   2 1264.38 265.114   1
   0  -1  -2 1508.15 293.793   1
   0   1   3 24709.6 1411.65   1
   0  -1  -3 27892.5 1566.83   1
   0   1   4 264538. 5407.63   1
   0  -1  -4 256987. 5176.72   1
   0   1   5 194329. 5119.56   1
   0  -1  -5 194417. 4927.95   1
   0  -1   5 198609. 3816.55   1
   0   1  -5 188892. 3784.71   1
   0  -1   6 4176.93 591.873   1
   0  -1  -6 4430.78 802.922   1
   0   1  -6 4419.18 634.706   1
   0   1   6 4167.19 821.576   1
   0  -1  -7 112608. 4427.73   1
   0   1  -7 115912. 3569.07   1
   0   1   7 107403. 4293.80   1
   0  -1   7 114556. 3568.90   1
   0   1  -8 162743. 4438.20   1
   0   1   8 131965. 5698.53   1
   0  -1  -8 131114. 5416.92   1
   0  -1   8 167373. 4650.37   1
   0   1  -9 2396.69 594.936   1
   0  -1   9 2478.28 586.332   1
   0   1   9 522.838 323.579   1
   0  -1  -9 964.792 452.778   1
   0   1 -10 14413.2 1542.36   1
   0  -1 -10 15442.0 1712.48   1
   0  -1 -11 56521.5 3595.79   1
   0   1  11 58258.4 3647.96   1
   0   1 -11 63174.0 3293.21   1
   0  -1  11 64145.1 3371.95   1
   0  -1 -12 83695.2 4614.47   1
   0   1 -12 92143.3 4247.71   1
   0   1  12 79709.3 4446.31   1
   0  -1  12 82951.2 3830.28   1
   0   1  13 4124.28 999.860   1
   0   1 -13 5230.32 1065.60   1
   0  -1 -13 4789.00 1130.15   1
   0  -1  13 4754.29 957.827   1
   0   1  14 3313.46 869.128   1
   0  -1 -14 3418.04 891.677   1
   0  -1  14 3636.55 879.564   1
   0   1 -14 4047.71 986.110   1
   0   1 -15 3721.20 1058.50   1
   0   1  15 1746.40 683.156   1
   0  -1 -15 2307.11 926.891   1
   0  -1  15 3472.77 911.480   1
   0   1  16 30906.4 3098.88   1
   0   1 -16 36521.5 3024.92   1
   0  -1 -16 29170.1 3362.20   1
   0   2   0 2097.20 267.928   1
   0  -2   0 532.212 139.222   1
   0   2   1 1339.11 284.400   1
   0  -2  -1 1125.52 277.950   1
   0  -2  -2 6189.96 657.495   1
   0   2   2 9847.42 1004.45   1
   0  -2  -3 71070.6 2706.43   1
   0   2   3 63566.0 2606.10   1
   0   2   4 39.7929 199.746   1
   0  -2  -4-69.6004 146.169   1
   0  -2  -5 383860. 7420.29   1
   0   2   5 379531. 7712.84   1
   0   2  -6 82603.4 2755.22   1
   0  -2  -6 88346.0 3800.84   1
   0  -2   7 2916.90 528.117   1
   0   2  -7 2116.43 416.632   1
   0   2   7 4099.36 900.990   1
   0  -2  -7 3880.58 869.259   1
   0  -2  -8 46409.6 3186.45   1
   0   2   8 50632.8 3441.95   1
   0  -2   9 15990.2 1429.66   1
   0  -2  -9 17425.8 2063.72   1
   0   2   9 16963.7 2024.05   1
   0  -2  10 3306.99 778.094   1
   0  -2 -10 2319.46 676.719   1
   0   2  10 2700.74 770.217   1
   0   2 -10 2819.27 811.819   1
   0   2 -11 12589.4 1453.09   1
   0  -2  11 11336.6 1298.03   1
   0  -2 -11 10814.7 1648.84   1
   0  -2 -12 4134.92 1013.10   1
   0  -2  12 3830.57 798.882   1
   0   2  12 3445.40 826.379   1
   0   2 -12 3687.97 736.448   1
   0  -2  13 47360.4 3139.90   1
   0   2 -13 49653.8 3202.49   1
   0  -2  14 543.027 287.969   1
   0  -2 -14 82.1573 309.915   1
   0   2  14 398.260 321.041   1
   0  -2 -15 62527.4 4745.13   1
   0   2 -15 53793.4 3912.88   1
   0   2  16 6194.09 1404.22   1
   0   3   0 16.4030 41.7985   1
   0  -3   0 23.4584 39.5253   1
   0  -3  -1 5668.10 702.873   1
   0   3   1 5780.10 647.315   1
   0   3   2 93569.7 3151.46   1
   0  -3  -3 208501. 5201.18   1
   0   3   3 216117. 5302.99   1
   0  -3  -4 115420. 4520.82   1
   0   3   4 109518. 4309.95   1
   0  -3  -5 17871.1 1669.12   1
   0   3   5 20931.0 1970.46   1
   0  -3  -6 54.5455 119.168   1
   0   3   6-155.127 319.215   1
   0   3   8 44123.2 3659.64   1
   0  -3  -9 73258.7 4337.60   1
   0  -3   9 63710.5 2485.69   1
   0  -3 -11 32764.2 3017.05   1
   0   3  11 36129.5 3269.06   1
   0  -3  11 32757.2 2179.48   1
   0  -3  12 197.380 180.598   1
   0  -3 -12 289.611 299.101   1
   0   3 -12 28.1075 117.518   1
   0  -3  13 5227.22 949.718   1
   0   3  13 5932.85 1371.12   1
   0  -3 -13 7035.85 1496.89   1
   0   3 -13 5224.41 1137.01   1
   0   3  14 706.375 591.444   1
   0  -3 -14-216.729 523.634   1
   0   3  15 3444.21 1055.42   1
   0  -4   1 4489.28 583.710   1
   0  -4  -1 4653.22 754.099   1
   0   4   1 5229.55 700.226   1
   0  -4  -2 119941. 4000.25   1
   0   4   2 128156. 3839.99   1
   0   4   3 39429.2 2416.99   1
   0  -4  -3 41743.6 2635.13   1
   0   4   4 25844.5 2132.43   1
   0  -4  -4 26801.2 2349.53   1
   0  -4  -6 39481.8 2819.78   1
   0   4   7 713.972 678.547   1
   0  -4  -7 484.775 480.374   1
   0  -4  -9 21035.9 2383.92   1
   0  -4 -10 465.691 311.243   1
   0   4  10 790.002 445.125   1
   0  -4 -11 4115.65 1210.79   1
   0   4 -11 1651.66 451.190   1
   0   4  11 3900.25 1134.79   1
   0  -4 -12 335.125 244.546   1
   0   4  12 713.509 570.290   1
   0   4 -12-24.8851 143.751   1
   0  -4 -13 23702.3 2880.81   1
   0   4  14 5666.23 1525.25   1
   0  -5   0 26.3382 155.892   1
   0  -5   1 2987.62 518.518   1
   0  -5   2 3643.85 505.213   1
   0   5   7 74.8747 150.119   1
   0  -5  -7 29.9288 126.999   1
   0  -5  -9 915.255 461.602   1
   0   5   9 1288.27 643.961   1
   0  -5 -10 3512.47 1200.87   1
   0   5  10 4123.58 1318.30   1
   0   5  11 6397.60 1518.21   1
   0  -5 -11 6616.96 1703.14   1
   0  -6   0 75613.2 3625.04   1
   0  -6   1 101207. 3989.17   1
   0  -6  -1 100404. 4355.02   1
   0  -6   2 24467.8 1733.97   1
   0  -6   3 20073.7 1379.57   1
   0  -6  -4 2671.51 967.213   1
   0   6   4 2517.77 885.285   1
   0  -6   4 1306.92 274.202   1
   0   6   6 20929.0 2273.81   1
   0  -6  -6 21884.8 2337.99   1
   0   6   8 24619.5 2741.33   1
   0  -6  -8 23377.0 2737.04   1
   0   6   9-1081.07 924.682   1
   0  -6  -9 402.468 352.883   1
   0   6  10 327.746 252.884   1
   0  -6 -10 952.624 731.348   1
   0   6  11 3584.62 1273.02   1
   0  -7   0-89.2213 63.7685   1
   0  -7   1 3862.20 858.347   1
   0  -7  -1 7649.69 1459.35   1
   0  -7   2 9963.59 1133.66   1
   0  -7  -2 31298.2 2878.45   1
   0  -7   4 748.033 253.373   1
   0  -7  -4 1727.41 689.953   1
   0   7   4 1002.52 394.080   1
   0  -7  -6 14567.6 2123.08   1
   0   7   6 10468.0 1631.96   1
   0  -7  -7 1853.93 766.102   1
   0   7   7 1512.78 655.158   1
   0  -7  -8 619.356 641.221   1
   0   7   8-535.328 488.688   1
   0  -8   0 231.914 331.734   1
   0  -8   1 538.269 273.036   1
   0  -8  -1 1227.10 687.597   1
   0  -8   3 1607.97 505.003   1
   0  -8  -3 3225.08 1076.39   1
   0  -8  -4 970.937 715.525   1
   0  -8   4 200.914 82.1995   1
   0  -8  -7-356.985 450.162   1
   0   8   7-103.201 194.912   1
   0  -8  -8 443.249 542.009   1
   0   8   8-3.20839 189.404   1
   0   8   9-19.9250 364.971   1
   0  -9   0 170.754 237.252   1
   0  -9   1 79.7522 65.6171   1
   0  -9  -1 998.103 639.365   1
   0  -9   2 1351.69 540.279   1
   0  -9  -2 3432.51 1218.98   1
   0  -9   3 10064.1 1279.82   1
   0  -9  -4 3131.63 1422.64   1
   0  -9   4 635.012 315.745   1
   0  -9  -5 10936.9 2452.76   1
   0  -9   5 3432.85 496.560   1
   0  -9  -6 4439.59 1589.95   1
   0 -10   0 5898.10 2014.65   1
   0 -10  -2 2641.42 1230.92   1
   0 -10   2 1548.13 740.122   1
   0 -10  -3 13440.5 3084.79   1
   0 -10  -4-53.3220 337.892   1
   0 -10   4-249.888 180.315   1
   0 -10  -5 2062.88 1305.13   1
   0 -10   5 1668.98 469.187   1
   0 -10   6 4276.85 826.410   1
   0 -11   0 910.507 896.962   1
   0 -11   1 814.549 721.477   1
   0 -11  -1 853.659 1041.67   1
   0 -11  -2 715.742 996.311   1
   0 -11   2-463.847 433.616   1
   0 -11   3 2450.54 767.099   1
   0 -11  -3 7803.36 2668.73   1
   0 -11  -4 1041.77 1043.64   1
   0 -11   4 286.821 195.117   1
   0 -12   0 9218.00 2477.46   1
   0 -12  -1 48.6588 386.608   1
   0 -12   1 368.662 522.136   1
   0 -12  -2 20091.7 4599.16   1
   0 -12   2 4629.96 1410.81   1
   0 -13   0 365.766 737.749   1
   0 -13  -1 1325.63 704.362   1
   1   0 -16 8708.05 1765.53   1
   1   0 -15 95.2817 166.669   1
   1   0 -13 42.3567 137.275   1
   1   0 -11 157.413 178.947   1
   1   0 -10 175954. 5663.81   1
   1   0  -9-38.7424 275.986   1
  -1   0  -3 20.9613 61.8914   1
   1   0   3 23.7508 80.0424   1
  -1   0  -4 181829. 4930.25   1
   1   0   4 181726. 5028.39   1
   1   0   5 11.7491 64.9935   1
  -1   0  -5-29.5820 161.128   1
   1   0   6 363846. 7523.04   1
  -1   0  -6 370255. 8078.76   1
   1   0   7-23.6419 123.102   1
  -1   0  -7 52.4576 216.618   1
  -1   0  -8 126917. 5277.83   1
   1   0   8 124431. 4598.54   1
  -1   0  -9-65.6891 301.397   1
   1   0   9-69.9082 163.583   1
   1   0  11-66.0540 282.177   1
  -1   0 -11 318.778 334.245   1
  -1   0 -12 168.149 522.130   1
   1   0  12 846.471 605.281   1
   1   0  13-155.695 361.180   1
  -1   0 -13-173.443 354.476   1
   1   0  14 100138. 6020.49   1
  -1   0 -14 95634.8 5477.11   1
   1   0  15 755.923 596.996   1
  -1   0 -15-158.165 223.319   1
  -1   0 -16 314.961 202.194   1
   1   0  16 1648.05 671.223   1
  -1   0 -17 102.040 68.5119   1
   1   0  17-817.164 657.301   1
   1   0  18 2471.84 852.550   1
   1  -1 -16 429.964 446.902   1
   1   1 -15 5540.65 1125.62   1
   1  -1 -15 5261.95 1455.75   1
   1   1 -14 9062.48 1341.31   1
   1  -1 -14 10372.6 2046.01   1
   1   1 -13 4834.84 978.892   1
   1  -1 -13 4265.76 1115.12   1
   1  -1 -12 7097.95 1393.11   1
   1   1 -12 6360.97 1111.68   1
   1   1 -11 13353.5 1505.22   1
   1  -1 -11 14785.7 1984.99   1
   1   1 -10 108824. 4190.77   1
   1  -1 -10 109549. 4857.22   1
   1  -1  -9 9874.96 1202.72   1
   1   1  -9 17681.4 1617.20   1
   1   1  -7 51001.0 2297.80   1
   1   1   1 68167.3 2479.51   1
  -1  -1  -1 68488.9 2572.05   1
  -1  -1  -2 486491. 7344.05   1
   1   1   2 470183. 7108.49   1
  -1  -1  -3 362955. 7041.82   1
   1   1   3 365235. 6691.68   1
  -1  -1  -4 54329.5 2932.82   1
   1   1   4 53264.3 2811.48   1
  -1  -1  -5 135942. 5219.53   1
   1   1   5 132175. 4453.57   1
  -1   1  -6 19481.0 1706.44   1
   1   1   6 18605.9 1744.09   1
  -1  -1  -6 19534.1 1953.94   1
   1  -1   6 19706.8 1783.87   1
   1  -1   7 6440.37 1017.83   1
   1   1   7 7265.80 1102.58   1
  -1  -1  -7 6583.63 1195.00   1
   1   1   8 25265.8 2357.79   1
  -1  -1  -8 25010.3 2532.59   1
   1  -1   8 26561.7 2032.68   1
  -1   1  -8 23107.1 2296.46   1
   1   1   9 24778.6 2652.57   1
  -1  -1  -9 21152.6 2435.36   1
   1  -1   9 27441.6 2263.16   1
   1  -1  10 121589. 4853.82   1
  -1  -1 -10 112306. 5739.77   1
   1   1  10 108324. 5122.15   1
   1   1  11 36218.4 3328.22   1
   1  -1  11 30661.2 2468.01   1
  -1  -1 -11 25723.2 2771.37   1
  -1   1 -11 30216.4 2763.95   1
   1  -1  12 6515.67 1365.70   1
  -1   1 -12 5335.71 1231.27   1
  -1  -1 -12 4568.57 1165.52   1
  -1  -1 -13 62934.6 4574.93   1
   1  -1  13 61472.9 3841.27   1
   1   1  13 61806.9 4108.55   1
  -1   1 -13 60092.7 4070.76   1
  -1  -1 -14 7845.38 1551.85   1
   1  -1  14 9988.98 1710.90   1
   1   1  14 6293.68 1429.67   1
  -1   1 -14 7684.20 1784.22   1
   1  -1  15 11951.0 1835.30   1
   1   1  15 12888.6 1956.04   1
  -1   1 -15 11182.7 1962.95   1
  -1  -1 -15 12633.7 2300.39   1
  -1   1 -16 6063.42 1268.77   1
   1  -1  16 7178.71 1593.92   1
   1   1  16 7734.55 1703.85   1
  -1  -1 -16 4114.90 1325.65   1
   1   1  17 441.940 138.048   1
   1  -1  17 626.084 365.419   1
   1  -2 -14 5943.40 1436.93   1
   1   2 -14 5904.43 936.975   1
   1  -2 -13 606.709 1147.17   1
   1   2 -13 1115.23 444.039   1
   1  -2 -12 359.207 59.3430   1
   1   2 -12 1679.14 543.430   1
   1   2 -11 13887.5 1455.15   1
   1   2 -10 773.838 459.493   1
   1  -2 -10 1360.14 618.898   1
   1   2  -9 90538.8 3236.62   1
   1   2  -8 19535.1 1168.97   1
  -1  -2   0 16463.4 1226.79   1
   1   2   0 17203.7 1258.85   1
  -1  -2  -1 406772. 6789.29   1
   1   2   1 380627. 5935.23   1
   1   2   2 72158.4 3055.79   1
  -1  -2  -2 75190.1 3278.43   1
  -1  -2  -3 242935. 6167.11   1
   1   2   3 235733. 5654.02   1
   1   2   4 243.943 207.552   1
  -1  -2  -4 235.343 316.610   1
  -1  -2  -5 1493.68 664.983   1
   1   2   5 1783.03 543.473   1
  -1  -2  -6 75116.6 4416.03   1
   1   2   6 85384.1 4365.74   1
   1  -2   7 174752. 5158.86   1
   1   2   7 171637. 6201.12   1
  -1  -2  -7 177671. 6961.38   1
   1   2   8 10816.9 1560.26   1
  -1  -2  -8 10213.1 1682.51   1
   1  -2   8 15311.4 1463.78   1
   1  -2   9 67673.6 3117.04   1
   1   2   9 67710.2 4203.68   1
  -1  -2  -9 67278.0 4604.13   1
  -1  -2 -10 4179.57 1123.67   1
   1   2  10 5924.78 1384.87   1
  -1   2 -10 4742.52 965.664   1
   1  -2  10 4358.10 851.948   1
  -1  -2 -11 56602.2 4573.30   1
   1  -2  11 62309.8 3398.06   1
  -1   2 -11 69010.0 3792.88   1
   1   2  11 62408.3 4245.17   1
  -1  -2 -12 750.542 502.028   1
   1  -2  12 5612.24 1040.27   1
  -1   2 -12 6272.75 1263.26   1
   1  -2  13 48005.8 3298.70   1
  -1   2 -13 51264.8 3809.64   1
   1   2  13 28764.2 3033.92   1
  -1  -2 -13 27406.0 3428.54   1
   1   2  14 325.861 414.500   1
  -1  -2 -14 802.818 623.656   1
  -1   2 -14 410.583 339.025   1
   1  -2  14 1273.51 430.698   1
   1  -2  15 4063.73 989.258   1
  -1  -2 -15 4877.36 1385.01   1
  -1   2 -15 5105.16 1089.06   1
   1   2  15 4796.74 1294.17   1
   1  -2  16 475.816 314.891   1
   1   2  16-355.729 345.735   1
   1  -3 -13 4469.05 1295.67   1
   1   3 -13 12247.2 1209.76   1
   1  -3 -12 3822.51 963.931   1
   1   3 -12 28607.8 1785.42   1
   1   3 -11 6719.78 882.426   1
   1   3  -9 3390.74 483.468   1
   1   3  -8 2383.22 366.366   1
   1   3  -1 98266.4 3082.23   1
   1   3   0 69941.2 2633.28   1
  -1  -3  -1 54703.9 2747.83   1
  -1  -3  -2 995.716 437.564   1
   1   3   2 1109.20 393.864   1
   1   3   3 44751.7 2606.42   1
  -1  -3  -3 40144.6 2863.92   1
  -1  -3  -4 44195.8 3268.38   1
   1   3   4 54787.3 3490.68   1
  -1  -3  -5 255107. 7974.06   1
   1   3   5 252028. 7462.50   1
   1   3   6 2887.24 855.073   1
  -1  -3  -6 2649.80 809.711   1
  -1  -3  -7 127769. 5873.40   1
   1   3   7 127775. 5479.00   1
   1  -3   8 267.341 495.784   1
  -1  -3  -8 413.141 470.328   1
   1   3   8 196.000 191.487   1
   1   3   9 15430.1 2176.84   1
   1  -3   9 12103.3 1271.23   1
  -1  -3  -9 13255.7 2005.05   1
  -1  -3 -10 509.180 386.399   1
   1  -3  10 384.173 322.434   1
   1   3  10 867.401 503.568   1
   1  -3  11 63030.7 3263.59   1
   1   3  11 75972.9 4929.71   1
  -1  -3 -11 73851.1 5236.93   1
  -1  -3 -12 14933.0 2383.79   1
   1   3  12 15584.8 2324.24   1
   1  -3  12 14979.5 1617.74   1
   1   3  13 51285.2 4447.48   1
   1  -3  13 59848.8 3440.91   1
  -1   3 -13 57245.8 4422.33   1
  -1  -3 -13 60831.6 5270.28   1
  -1  -3 -14-399.889 428.799   1
  -1   3 -14 637.935 723.873   1
   1   3  14-92.9933 315.489   1
   1  -3  14 88.2703 137.436   1
   1  -3  15 6450.04 1162.73   1
   1   4 -12 6701.95 864.478   1
   1   4 -11 6716.25 862.018   1
   1   4 -10 2097.80 328.524   1
   1   4  -3 11075.2 718.599   1
   1   4  -2 30256.6 1425.11   1
   1   4  -1 4053.40 582.969   1
  -1  -4   1 3004.24 577.356   1
   1   4   0 49017.2 2317.49   1
   1   4   1 10720.5 1308.30   1
  -1  -4  -1 4603.18 863.469   1
  -1  -4  -2 59514.5 3319.26   1
   1   4   3 67771.5 3699.59   1
  -1  -4  -3 62475.2 3745.64   1
  -1  -4  -4 11251.9 1665.95   1
   1   4   4 12867.7 1731.53   1
  -1  -4  -5 61274.9 3767.59   1
   1   4   5 71146.9 3990.40   1
   1   4   6 220319. 7458.94   1
  -1  -4  -6 200867. 7196.53   1
   1   4   7 7387.56 1615.68   1
  -1  -4  -7 4826.67 1129.15   1
  -1  -4  -8 76345.2 4868.59   1
   1   4   8 83529.0 5044.02   1
   1   4   9 3583.12 1019.05   1
   1  -4   9 2344.92 558.471   1
  -1  -4  -9 3302.32 1054.35   1
   1  -4  10 6469.87 859.270   1
   1   4  10 9521.62 1751.76   1
  -1  -4 -10 10220.6 1925.58   1
   1  -4  11 4953.95 829.516   1
   1   4  11 8315.64 1736.45   1
  -1  -4 -11 8915.65 1814.05   1
   1  -4  12 10448.1 1204.67   1
  -1  -4 -12 12970.4 2288.64   1
   1   4  12 12562.5 2208.34   1
  -1  -4 -13 72.9317 143.878   1
   1   4  13 103.772 241.198   1
   1  -4  13 339.586 291.459   1
   1  -4  14 10670.7 1368.01   1
   1   5  -3 1834.49 332.633   1
  -1  -5   3 1271.75 370.177   1
   1   5  -2 42367.3 1734.86   1
   1   5  -1 45211.5 2123.28   1
   1   5   0 32781.8 2086.96   1
   1   5   1 38734.6 2393.88   1
  -1  -5  -1 45823.8 2805.83   1
   1   5   2 136766. 4830.78   1
  -1  -5  -2 150967. 5578.19   1
  -1  -5  -3 40471.3 2816.91   1
   1   5   3 45790.1 3089.90   1
  -1  -5  -4 1264.30 540.602   1
   1   5   4 1455.59 559.259   1
  -1  -5  -5 41.9113 122.487   1
   1   5   5 493.451 414.246   1
   1   5   6 31922.1 3049.38   1
  -1  -5  -6 29762.7 3032.21   1
   1   5   7 49418.6 3803.25   1
  -1  -5  -7 48602.6 3912.43   1
   1   5   8 148.991 199.013   1
  -1  -5  -8-29.8205 130.971   1
   1  -5   8-137.456 183.999   1
   1   5   9 52016.5 4322.73   1
  -1  -5  -9 50025.3 4103.87   1
   1   5  10 34042.8 3569.41   1
  -1  -5 -10 35017.5 3573.57   1
   1   5  11 28480.3 3507.97   1
  -1  -5 -11 31347.1 3690.47   1
   1  -5  12 177.480 114.302   1
   1   5  12 450.882 539.557   1
   1  -5  13 32.0495 145.280   1
  -1  -6   4 167.342 109.013   1
   1   6  -4 33.7333 46.9752   1
   1   6  -3 8606.65 732.598   1
   1   6  -2 2418.81 467.464   1
  -1  -6   2 2395.90 537.713   1
  -1  -6   1 152.413 146.827   1
   1   6  -1 59.3364 101.729   1
   1   6   0 4935.86 709.263   1
  -1  -6   0 11873.5 1390.75   1
   1   6   1 57068.4 2941.62   1
  -1  -6  -1 70443.1 3728.66   1
  -1  -6  -2 43357.7 3042.22   1
   1   6   2 38705.4 2669.83   1
  -1  -6  -3 33339.7 2942.85   1
   1   6   3 23987.5 2183.51   1
  -1  -6  -4 700.593 772.404   1
   1   6   4 245.681 230.605   1
   1   6   5 3108.51 913.615   1
  -1  -6  -5 3913.04 1028.10   1
  -1  -6  -6 45521.6 3908.79   1
   1   6   6 41293.8 3562.84   1
  -1  -6  -7 63814.2 4696.19   1
   1   6   7 56837.1 4429.24   1
  -1  -6  -8 812.215 458.287   1
   1   6   8 809.617 386.809   1
   1   6   9 3441.19 1141.87   1
  -1  -6  -9 4575.83 1317.52   1
   1  -6   9 962.507 361.018   1
   1  -6  10 147.869 168.252   1
   1   6  10 330.539 381.333   1
   1   6  11 2474.21 1646.74   1
   1  -6  12 241.730 184.923   1
  -1  -7   2 149.558 223.150   1
   1   7  -2-107.794 192.011   1
  -1  -7   1 1022.60 441.051   1
   1   7  -1 926.045 314.144   1
   1   7   0 634.026 321.288   1
  -1  -7   0 1877.64 612.375   1
   1   7   2 382.939 296.027   1
  -1  -7  -2 249.667 189.132   1
  -1  -7  -3 24414.6 2531.90   1
   1   7   3 17858.4 2064.66   1
   1   7   4 30642.2 2916.82   1
  -1  -7  -4 47946.9 3793.77   1
  -1  -7  -5 9256.03 1777.03   1
   1   7   5 2728.01 924.400   1
   1   7   6 71.4630 117.281   1
  -1  -7  -6-101.809 247.824   1
   1   7   7 783.457 572.920   1
  -1  -7  -7-632.058 531.769   1
  -1  -7  -8 19489.4 2858.94   1
  -1  -7  -9 3905.56 1280.88   1
   1   7   9 3210.67 1271.32   1
   1   7  10 10294.2 2341.97   1
   1  -7  10 3383.82 541.655   1
  -1  -8   5 2077.34 508.448   1
  -1  -8   4 1941.78 537.302   1
   1   8  -3 2029.89 466.088   1
  -1  -8   3 3023.01 621.737   1
  -1  -8   2 143.401 193.923   1
   1   8  -2-26.4006 79.3218   1
   1   8  -1 2982.97 807.711   1
  -1  -8   1 8147.85 1206.86   1
  -1  -8   0 94781.5 4469.30   1
  -1  -8  -1 148.026 83.3431   1
   1   8   1-70.8945 338.128   1
   1   8   2 865.393 476.440   1
  -1  -8  -2 1402.31 624.020   1
  -1  -8  -3 223.625 265.300   1
   1   8   3 59.8227 144.752   1
  -1  -8  -4 1271.29 607.192   1
   1   8   4 1433.27 732.707   1
  -1  -8  -5 101.565 233.525   1
   1   8   5-13.1382 154.946   1
  -1  -8  -6 41542.6 4022.68   1
  -1  -8  -8 79440.8 6186.57   1
  -1  -9   5 359.175 225.164   1
  -1  -9   3 282.973 249.206   1
  -1  -9   1 5883.92 1109.70   1
   1   9  -1 5018.87 936.010   1
  -1  -9   0 1483.63 624.684   1
   1   9   0 254.951 263.459   1
   1   9   1 1346.78 728.394   1
  -1  -9  -1 3563.18 885.591   1
   1   9   2-22.9935 52.8428   1
  -1  -9  -2-116.703 135.388   1
   1   9   3 1220.58 546.584   1
  -1  -9  -3 2730.27 894.401   1
  -1  -9  -4 44946.9 4134.59   1
   1   9   5-148.416 338.331   1
  -1  -9  -5-250.421 200.882   1
   1   9   6-25.4662 503.679   1
  -1  -9  -6-34.3638 105.331   1
   1   9   7 9023.30 1798.48   1
  -1 -10   5 14141.8 1876.17   1
  -1 -10   4-22.5900 116.469   1
  -1 -10   3 8830.14 1224.03   1
  -1 -10   2 363.922 286.016   1
  -1 -10   1 2278.28 737.119   1
  -1 -10   0 740.237 414.560   1
   1  10   0 201.097 200.115   1
  -1 -10  -1 5579.94 1298.00   1
   1  10   1 784.586 848.046   1
  -1 -10  -2 673.232 486.216   1
   1  10   2 697.577 457.869   1
  -1 -10  -3 17661.3 2555.85   1
   1  10   4 612.990 512.417   1
  -1 -10  -4-170.254 118.333   1
  -1 -10  -5 18855.8 2972.62   1
   1  10   6 1134.83 663.995   1
  -1 -11   4 1599.78 763.282   1
  -1 -11   3 7248.22 1367.04   1
  -1 -11   2 3727.55 1029.19   1
  -1 -11   1 1637.77 631.932   1
  -1 -11   0 94.9690 123.736   1
  -1 -11  -1 36784.2 3652.75   1
  -1 -11  -2 390.604 292.482   1
   1  11   2-53.4220 190.078   1
  -1 -11  -3 24171.5 3107.62   1
   1  11   4 3649.68 1020.40   1
  -1 -12   2 135.178 139.582   1
  -1 -12   1 252.821 312.954   1
  -1 -12   0 7542.13 1696.54   1
  -1 -12  -1 2896.88 1152.01   1
  -1 -12  -2 5659.00 1668.57   1
  -1 -13   0 54.1615 154.217   1
  -1 -13  -1 16.0398 104.284   1
   2   0   6 42920.1 3225.53   1
  -2   0  -7-43.2103 116.025   1
   2   0   7-107.550 269.509   1
  -2   0  -8 146249. 6319.53   1
   2   0   8 150730. 6526.23   1
   2   0   9 265.360 371.386   1
  -2   0  -9 211.841 198.225   1
   2   0  10 12118.9 1730.84   1
   2   0  11 16.3259 176.984   1
  -2   0 -11-511.745 542.006   1
   2   0  12 67375.8 4209.83   1
  -2   0 -12 68794.6 4654.17   1
  -2   0 -13-616.972 430.755   1
   2   0  13-282.740 413.978   1
   2   0  14 8345.95 1730.55   1
  -2   0 -14 5975.00 1311.99   1
   2   0  15-442.711 538.887   1
  -2   0 -15 13.4128 322.236   1
   2   0  16 92373.3 6103.12   1
  -2   0 -16 72654.2 5362.49   1
   2   0  17 8.21605 235.977   1
   2   1   4 565088. 11681.2   1
  -2  -1  -5-474.145 423.435   1
   2   1   5 332.927 335.505   1
   2   1   6 594.422 376.185   1
  -2  -1  -6 514.746 663.648   1
   2   1   7 3296.11 1104.92   1
  -2  -1  -7 3092.35 992.884   1
   2  -1   7 2583.38 820.991   1
  -2  -1  -8 12980.6 1840.68   1
   2   1   8 13649.2 1870.79   1
   2   1   9 122425. 5658.16   1
  -2  -1  -9 122910. 6355.63   1
   2   1  10 2815.20 849.784   1
  -2  -1 -10 2542.03 906.366   1
   2  -1  11 22850.3 2470.72   1
   2   1  11 23116.3 2591.80   1
  -2  -1 -11 18224.9 2437.87   1
   2  -1  12 49589.3 3587.20   1
   2   1  12 48436.4 4307.75   1
  -2  -1 -12 44968.1 4169.59   1
  -2   1 -12 50878.5 4065.81   1
   2   1  13 273.412 525.572   1
   2  -1  13 497.066 303.986   1
  -2   1 -13-743.534 667.139   1
  -2  -1 -13-261.450 437.400   1
  -2  -1 -14-174.135 306.853   1
   2   1  14 372.229 493.263   1
   2  -1  14 640.457 590.754   1
  -2   1 -14-623.477 740.054   1
   2  -1  15 1765.26 783.166   1
   2   1  15 1719.45 765.049   1
  -2   1 -15 900.690 653.063   1
  -2  -1 -15 698.243 530.648   1
   2  -1  16 706.803 589.757   1
  -2   1 -16 84.4988 206.439   1
   2   1  16 1128.32 746.898   1
   2  -1  17 18764.1 2864.95   1
   2  -1  18 1783.31 517.657   1
  -2  -2  -3 53489.7 3605.14   1
   2   2   3 53240.6 3544.99   1
  -2  -2  -4 261.997 352.691   1
   2   2   4 338.525 415.924   1
   2   2   5 32865.0 2819.55   1
  -2  -2  -5 27409.3 2704.50   1
   2   2   6 432.959 328.975   1
  -2  -2  -6 756.982 700.290   1
  -2  -2  -7 221299. 8627.40   1
   2   2   7 215295. 7741.22   1
   2   2   8 10002.0 1702.81   1
  -2  -2  -8 9129.15 1833.81   1
   2   2   9 9838.39 1652.36   1
   2  -2   9 10453.3 1570.82   1
  -2  -2  -9 11240.0 1914.46   1
   2  -2  10 518.191 398.801   1
  -2  -2 -10 713.924 465.631   1
   2   2  10 790.598 543.083   1
   2   2  11 30062.5 3351.45   1
  -2  -2 -11 27920.8 3375.90   1
   2  -2  11 24337.8 2595.24   1
   2  -2  12 21505.1 2442.87   1
   2   2  12 23076.4 2859.85   1
  -2  -2 -12 24556.7 3134.57   1
   2  -2  13 53242.9 3784.76   1
   2   2  13 57756.6 4474.28   1
  -2  -2 -13 57064.2 4951.61   1
  -2  -2 -14 1659.21 758.590   1
   2   2  14 1692.22 648.215   1
   2  -2  14 1619.39 640.092   1
   2  -2  15 27383.5 3117.92   1
   2   2  15 27289.7 3484.39   1
   2  -2  16 676.753 278.807   1
   2  -2  17 10418.8 2241.10   1
   2   3 -13 12235.4 1409.29   1
  -2  -3  -4 8952.91 1616.01   1
   2   3   4 9617.46 1727.97   1
   2   3   5 342.990 324.828   1
  -2  -3  -5 312.250 333.282   1
   2   3   7 7132.56 1414.95   1
  -2  -3  -7 6742.56 1591.40   1
   2   3   8 1137.48 1188.28   1
  -2  -3  -8 561.944 313.263   1
  -2  -3 -10 2468.47 1004.45   1
   2   3  10 2267.14 894.642   1
   2   3  11 11590.3 2106.26   1
  -2  -3 -11 11477.8 2240.93   1
   2  -3  11 8144.17 1485.67   1
   2   3  12 10000.1 1940.86   1
  -2  -3 -12 9055.38 2037.04   1
   2  -3  12 7947.05 1343.72   1
   2   3  13 1410.49 906.719   1
   2  -3  13 609.111 437.176   1
  -2  -3 -13 27.8909 381.394   1
   2  -3  14 4865.57 1226.20   1
   2   3  14 3540.56 1193.44   1
   2  -3  15 3376.09 1271.77   1
   2  -3  16 391.316 440.437   1
   2   4  -2 1879.41 517.761   1
   2   4  -1 78.3360 177.630   1
  -2  -4  -1 30014.3 2520.09   1
   2   4   1 29214.2 2454.39   1
  -2  -4  -2 123.652 111.487   1
  -2  -4  -3 27756.5 2786.42   1
   2   4   3 25987.8 2524.27   1
   2   4   4 107.223 156.405   1
  -2  -4  -4 232.741 329.663   1
   2   4   5 1864.16 775.016   1
  -2  -4  -5 1996.68 867.648   1
   2   4   6 13791.9 2007.82   1
  -2  -4  -6 13572.1 2364.37   1
   2   4   7 120.712 223.855   1
  -2  -4  -7 157.640 253.239   1
  -2  -4  -8 204982. 10445.9   1
  -2  -4  -9 8511.17 1986.10   1
   2   4   9 8135.16 1561.58   1
  -2  -4 -10 9636.71 2153.31   1
   2  -4  10 4527.27 975.966   1
   2   4  10 10908.2 2047.87   1
   2   4  11 25605.1 3085.56   1
  -2  -4 -11 25426.5 3706.00   1
   2   4  12 30862.2 3461.29   1
   2  -4  12 22132.2 2466.23   1
   2  -4  13 4801.74 1310.44   1
   2   4  13 486.975 576.611   1
   2  -4  14 53640.7 4075.93   1
   2   5 -10 1181.36 261.704   1
   2   5  -5 3491.73 555.669   1
   2   5  -3 68968.1 3040.50   1
   2   5  -2 25760.2 1904.79   1
   2   5  -1 4307.04 853.375   1
  -2  -5   1 3316.98 862.420   1
   2   5   0 234.824 129.849   1
  -2  -5   0 387.330 275.068   1
  -2  -5  -1 1151.31 494.342   1
   2   5   1 4255.89 930.796   1
   2   5   2 11899.7 1521.49   1
  -2  -5  -2 12621.3 1836.29   1
   2   5   3 37911.6 2925.80   1
  -2  -5  -3 36081.9 3034.24   1
   2   5   4 322792. 8846.50   1
   2   5   5 63080.9 4015.82   1
  -2  -5  -5 62556.9 4990.11   1
   2   5   6 1710.11 724.779   1
  -2  -5  -6 408.439 420.173   1
   2   5   8 7798.29 1717.44   1
  -2  -5  -8 4897.14 1545.80   1
   2   5   9 1387.77 846.750   1
  -2  -5  -9 830.009 444.860   1
   2   5  10 17931.0 2527.45   1
  -2  -5 -10 19482.1 3126.13   1
   2   5  11 13998.4 2420.54   1
  -2  -5 -11 14442.6 2706.01   1
   2  -5  12 5734.75 1193.99   1
   2  -5  13 2458.52 771.613   1
   2   6  -7 14246.4 1024.06   1
   2   6  -6-471.712 265.559   1
   2   6  -5 682.143 225.313   1
   2   6  -4 849.199 295.498   1
   2   6  -3 15764.2 1377.71   1
   2   6  -2 958.533 314.375   1
  -2  -6   2 813.416 393.007   1
   2   6  -1 80256.5 3589.41   1
   2   6   0 17789.8 1771.51   1
   2   6   1 38980.3 2644.96   1
  -2  -6  -1 35144.5 3130.57   1
   2   6   2 148.734 261.971   1
  -2  -6  -2-78.1237 111.397   1
   2   6   3 588.227 367.721   1
  -2  -6  -3 222.495 167.366   1
   2   6   4 13254.6 1930.52   1
  -2  -6  -4 10518.9 1970.38   1
   2   6   5 8238.36 1549.25   1
  -2  -6  -5 7836.70 1960.70   1
  -2  -6  -6 3174.14 1171.82   1
   2   6   6 4599.07 1494.88   1
   2   6   7 13709.3 2327.85   1
  -2  -6  -7 10761.0 2324.30   1
   2   6   8 17992.5 2519.48   1
  -2  -6  -8 17997.3 2974.26   1
   2   6   9 81877.5 5642.14   1
  -2  -6  -9 80879.9 6465.02   1
   2   6  10 575.376 646.856   1
   2  -6  12 15350.0 2296.52   1
   2   7  -7 81.0292 60.4616   1
   2   7  -6 9642.74 749.056   1
   2   7  -5 2366.23 375.875   1
   2   7  -4 4305.01 675.145   1
   2   7  -3 12178.3 1286.75   1
   2   7  -2 18339.3 1709.08   1
   2   7  -1 11149.1 1361.67   1
  -2  -7   1 6513.59 1302.35   1
  -2  -7   0 6483.13 1294.19   1
   2   7   0 4507.96 982.283   1
  -2  -7  -1 822.130 436.177   1
   2   7   1 453.665 90.8786   1
  -2  -7  -3 10636.7 2124.95   1
   2   7   4 986.990 670.577   1
  -2  -7  -4 310.587 136.746   1
  -2  -7  -5 4535.46 1333.29   1
   2   7   5 5373.07 1260.03   1
   2   7   6 18128.2 2333.45   1
  -2  -7  -6 20446.3 3158.85   1
  -2  -7  -7 5262.55 1645.12   1
  -2  -7  -8 4275.14 1558.73   1
   2   7   8 2946.91 1105.54   1
   2   7   9 8884.30 1816.98   1
   2   8  -6 20247.0 1156.80   1
   2   8  -5 69.6119 37.1780   1
   2   8  -4 540.298 258.308   1
   2   8  -3 4229.67 716.864   1
  -2  -8   3 4098.63 1040.76   1
   2   8  -2 9931.05 1170.37   1
   2   8  -1 178.531 200.104   1
  -2  -8   1 524.575 293.226   1
   2   8   0 1933.83 796.495   1
  -2  -8   0 2270.96 822.226   1
   2   8   2 3922.20 1248.17   1
  -2  -8  -2 6329.87 1549.37   1
   2   8   3 767.619 517.828   1
  -2  -8  -3 1010.39 599.046   1
  -2  -8  -4 2558.12 902.846   1
   2   8   4 3409.71 1098.22   1
  -2  -8  -5 1508.36 825.395   1
   2   8   5 2139.40 950.315   1
   2   8   6 59328.4 4656.63   1
  -2  -8  -6 62212.8 5844.03   1
  -2  -8  -7 7143.67 2025.28   1
   2   8   7 8166.43 1725.22   1
   2   8   8 7535.57 1699.59   1
   2   9  -5 1784.01 352.593   1
   2   9  -4 1297.60 349.821   1
  -2  -9   4 1878.24 659.236   1
   2   9  -3 8420.25 1035.18   1
   2   9  -2 20173.4 1662.49   1
  -2  -9   1 4503.86 1158.44   1
   2   9  -1 2533.31 574.046   1
   2   9   0 215.926 343.282   1
  -2  -9   0 831.453 347.436   1
   2   9   1-86.6866 93.0676   1
  -2  -9  -1 40.3239 136.624   1
  -2  -9  -3 1141.71 646.998   1
   2   9   3 1169.50 524.753   1
   2   9   4 11518.0 1837.32   1
  -2  -9  -4 11482.8 2136.28   1
  -2  -9  -5 8202.75 2025.02   1
   2   9   5 7445.94 1478.01   1
   2   9   6 14455.6 2258.89   1
   2   9   7 6921.84 1667.67   1
  -2 -10   4-598.357 585.681   1
   2  10  -3 174.327 112.834   1
  -2 -10   3-466.659 533.028   1
   2  10  -2 3848.35 751.933   1
  -2 -10   2 3643.01 942.238   1
   2  10  -1 7397.82 1148.31   1
  -2 -10   0-143.317 399.622   1
   2  10   1 11999.0 1783.61   1
  -2 -10  -1 14251.4 2236.19   1
   2  10   2-68.3333 71.9408   1
  -2 -10  -2-302.383 512.436   1
  -2 -10  -3 151.991 233.739   1
   2  10   3 158.813 249.859   1
  -2 -10  -4 629.439 409.379   1
   2  10   4 816.487 474.669   1
   2  10   5-184.853 429.215   1
  -2 -11   2 1863.54 774.817   1
  -2 -11   1 1720.76 840.540   1
   2  11  -1 652.227 326.685   1
  -2 -11   0-328.912 432.124   1
   2  11   0-710.739 519.553   1
   2  11   1 5742.55 1240.68   1
  -2 -11  -1 6590.03 1616.11   1
   2  11   2 2010.76 759.979   1
  -2 -11  -2 1712.20 731.413   1
   2  11   3 11706.1 1969.56   1
  -2 -11  -3 10822.6 2136.75   1
   2  11   4 959.961 541.861   1
  -2 -12   2 7875.73 1716.48   1
  -2 -12   1 2721.28 917.346   1
  -2 -12   0 537.768 364.076   1
   2  12   1 1212.37 526.628   1
  -2 -12  -1 1168.14 622.997   1
   2  12   2 2037.51 670.141   1
  -2 -12  -2 2052.04 906.117   1
   2  12   3-256.699 452.532   1
  -2 -13   0-535.885 492.777   1
   3   0  10 15448.5 2184.50   1
   3   0  11-125.621 245.442   1
   3   0  12 2287.45 1179.00   1
   3   0  13-57.0341 231.011   1
   3   0  14 64912.3 5092.15   1
  -3   0 -14 65854.4 5615.33   1
  -3   0 -15 292.398 272.053   1
   3   0  15 574.132 610.541   1
   3   0  16 571.821 473.231   1
   3   1   8 2763.87 1044.29   1
   3   1   9 1518.62 716.818   1
  -3  -1  -9 1409.00 679.388   1
   3   1  10 107580. 6819.15   1
   3  -1  11 4042.30 1149.57   1
   3   1  11 4808.01 1276.48   1
  -3  -1 -11 4754.34 1362.69   1
   3   1  12 18124.8 2607.11   1
  -3  -1 -12 18385.6 2821.03   1
   3  -1  13 118.002 442.392   1
   3   1  13 221.342 316.045   1
  -3  -1 -13-379.181 753.759   1
   3  -1  14 515.424 452.404   1
   3   1  14 1094.02 784.951   1
  -3  -1 -14 767.009 514.507   1
   3  -1  15-176.059 95.6248   1
   3   1  15-484.561 507.849   1
   3  -1  16 153.057 142.795   1
   3   2   7 14310.7 2347.81   1
  -3  -2  -7 12764.7 2150.42   1
  -3  -2  -8 15321.0 2547.99   1
   3   2   8 14807.2 2523.93   1
  -3  -2  -9 47660.5 4757.86   1
   3   2   9 52241.5 4839.05   1
   3   2  10 2434.58 888.322   1
  -3  -2 -10 2549.73 807.621   1
   3   2  11 8752.50 1909.30   1
  -3  -2 -11 9877.51 2270.73   1
   3   2  12 20075.8 2772.33   1
  -3  -2 -12 22776.5 3337.60   1
   3  -2  13 286.845 509.358   1
   3   2  13 368.568 206.347   1
   3  -2  14 5636.31 1416.30   1
   3  -2  15 19698.0 2905.15   1
   3  -2  16 4696.77 1493.96   1
   3  -2  17 31954.6 4564.69   1
  -3  -3  -5 95494.9 6161.76   1
   3   3   5 98095.0 6105.92   1
  -3  -3  -6 44926.8 4409.73   1
   3   3   7 349.373 579.657   1
  -3  -3  -7 117.014 56.7032   1
  -3  -3  -8 17984.3 2712.29   1
   3   3   8 15268.0 2347.47   1
  -3  -3  -9 17096.7 2600.93   1
   3   3   9 16281.5 2482.46   1
   3   3  10 45101.7 4397.02   1
   3   3  11 4532.70 1357.71   1
  -3  -3 -11 3003.55 1117.90   1
   3   3  12 29558.4 3393.06   1
  -3  -3 -12 27685.6 3756.47   1
   3  -3  13 7330.75 1681.80   1
   3   3  13 12398.8 2320.38   1
   3  -3  14 437.871 432.048   1
   3  -3  16 13781.0 2654.24   1
  -3  -4  -3 6160.91 1393.86   1
   3   4   3 7424.11 1518.54   1
  -3  -4  -4-198.701 476.565   1
   3   4   4 4.30070 391.126   1
   3   4   5 443.444 565.867   1
  -3  -4  -5 634.940 571.583   1
  -3  -4  -6 28154.8 3319.01   1
   3   4   6 25700.5 3312.30   1
   3   4   7 675.656 650.944   1
  -3  -4  -7 363.832 236.430   1
   3   4   8 15381.1 2426.88   1
  -3  -4  -8 15460.2 2644.06   1
   3   4   9 73813.5 5423.11   1
  -3  -4  -9 70035.0 6117.52   1
   3   4  10 8082.51 2014.52   1
  -3  -4 -10 2260.69 2353.43   1
  -3  -4 -11 30546.5 4358.66   1
   3   4  11 34348.9 3668.30   1
   3  -4  14 13763.2 2420.94   1
   3   5   0 14329.2 1864.65   1
   3   5   2 21828.3 2593.25   1
  -3  -5  -3 5884.87 1398.81   1
   3   5   3 8198.56 1799.16   1
   3   5   4 6276.08 1553.91   1
   3   5   5 162.728 418.637   1
  -3  -5  -5-582.435 654.958   1
   3   5   6 693.135 648.270   1
  -3  -5  -6 786.319 459.198   1
  -3  -5  -7 8251.23 2306.04   1
   3   5   8 608.842 528.957   1
  -3  -5  -8 634.332 498.133   1
   3   5   9 6382.21 1576.77   1
  -3  -5  -9 5957.90 1855.96   1
   3   5  10 48895.4 4473.54   1
   3   6  -3 477.091 340.416   1
   3   6  -2 37075.9 2727.27   1
   3   6   0 84.6431 245.288   1
   3   6   1 3431.05 1055.64   1
  -3  -6  -1 2720.75 1005.70   1
   3   6   2 2358.15 821.363   1
  -3  -6  -2 2181.79 940.733   1
   3   6   4 4708.38 1258.88   1
  -3  -6  -4 2573.66 848.631   1
   3   6   6 20867.0 2780.52   1
  -3  -6  -6 18806.1 3103.10   1
   3   6   7 52889.6 4421.26   1
  -3  -6  -7 49475.6 5387.41   1
   3   6   8 29821.4 3429.57   1
  -3  -6  -8 29016.7 4173.67   1
   3   6   9 8256.46 1882.67   1
   3   7  -7 531.547 264.007   1
   3   7  -6 1056.03 422.912   1
   3   7  -5 6682.15 1115.90   1
   3   7  -3 14060.9 1882.03   1
   3   7  -2-96.5869 265.618   1
  -3  -7   0 7212.04 1753.25   1
   3   7   1 1234.79 699.564   1
  -3  -7  -1 1638.98 639.765   1
   3   7   2 5177.11 1172.35   1
  -3  -7  -2 3483.11 1125.12   1
   3   7   3 19964.6 2456.16   1
   3   7   4 50299.7 4075.54   1
   3   7   5 57818.3 4345.74   1
  -3  -7  -5 49048.6 4984.85   1
   3   7   6 315.473 370.152   1
  -3  -7  -6-384.236 551.489   1
  -3  -7  -7 6221.26 1722.89   1
   3   7   8 1705.78 648.807   1
   3   8  -6 13059.7 1503.55   1
   3   8  -5 1747.89 488.231   1
   3   8  -4 618.367 109.770   1
   3   8  -3 52.8715 114.785   1
   3   8  -2 4917.99 1063.95   1
   3   8  -1-118.012 217.853   1
  -3  -8   1 705.697 816.058   1
  -3  -8   0 60627.6 4777.97   1
   3   8   2 6312.94 1303.04   1
  -3  -8  -2 4583.87 1162.16   1
   3   8   3 10011.9 1752.47   1
  -3  -8  -3 6921.79 1667.35   1
   3   8   4 27224.9 3034.77   1
  -3  -8  -4 20169.5 3088.19   1
  -3  -8  -5-185.787 596.045   1
   3   8   5 4.65020 116.072   1
   3   8   6 3572.90 1146.33   1
  -3  -8  -6 3003.41 1257.71   1
   3   8   7 7370.67 2036.54   1
   3   9  -4 28084.8 2429.24   1
   3   9  -3-481.742 494.628   1
   3   9  -2 3588.44 922.761   1
   3   9  -1 22471.0 2490.45   1
  -3  -9   1 18817.6 2648.69   1
  -3  -9   0 977.768 635.340   1
   3   9   0 836.583 427.106   1
  -3  -9  -1 1155.85 579.056   1
   3   9   1 260.891 456.366   1
  -3  -9  -2 1762.47 800.308   1
   3   9   2 2153.82 721.058   1
   3   9   3 4833.85 1268.31   1
  -3  -9  -3 3581.20 1266.29   1
   3   9   4 15757.2 2525.42   1
  -3  -9  -4 12752.6 2495.52   1
   3   9   5 2629.86 1115.89   1
  -3  -9  -5 2483.64 1274.33   1
   3   9   6 2692.61 1312.25   1
   3  10  -2 194.006 94.1595   1
  -3 -10   2-274.137 322.304   1
   3  10  -1 11950.7 1660.37   1
  -3 -10   1 13245.5 2397.79   1
   3  10   0 7480.10 1311.33   1
  -3 -10   0 5075.35 1403.94   1
   3  10   1 1001.94 825.800   1
  -3 -10  -1 1994.70 719.013   1
   3  10   2 1297.53 578.442   1
  -3 -10  -2 1007.77 960.752   1
   3  10   3 7677.77 1589.73   1
  -3 -10  -3 4718.63 1459.89   1
   3  10   4-23.6413 88.3760   1
  -3 -11   2 495.376 613.751   1
   3  11  -1 12003.4 1797.35   1
  -3 -11   1 13223.9 2654.25   1
  -3 -11   0 90.8744 106.181   1
   3  11   0 1080.87 611.154   1
  -3 -11  -1 2261.22 780.071   1
   3  11   1 4748.85 1240.76   1
   3  11   2 1683.98 818.843   1
  -3 -11  -2 854.032 509.558   1
   3  11   3 2644.53 987.772   1
  -3 -12   1 5553.64 1737.54   1
  -3 -12   0 9957.97 2272.39   1
   3  12   1 841.674 499.753   1
  -3 -12  -1-109.820 639.599   1
   3  12   2 1498.98 695.063   1
   4   1  13 2740.74 1508.07   1
   4   2  12 1855.45 1001.22   1
   4   3  10 16230.3 2829.15   1
   4   3  11 48862.3 4820.77   1
  -4  -4  -8 60387.5 5807.38   1
   4   4   8 62993.3 5899.98   1
  -4  -4  -9 28536.0 4096.99   1
   4   4   9 29437.8 4012.33   1
   4   4  10 2854.06 1231.67   1
  -4  -5  -6 13718.1 2707.24   1
   4   5   6 15647.5 2854.96   1
   4   5   7-1316.64 833.293   1
  -4  -5  -7 0.71970 427.728   1
  -4  -5  -8 18905.2 3212.56   1
   4   5   8 18246.3 3084.71   1
   4   5   9 2406.26 1130.55   1
   4   6   4 3336.06 1239.35   1
   4   6   5 293.650 242.323   1
  -4  -6  -5 737.883 583.818   1
   4   6   6 4924.97 1521.90   1
  -4  -6  -6 4068.04 1533.80   1
  -4  -6  -7 21548.3 3610.31   1
   4   6   7 25154.2 3463.05   1
   4   6   8 21052.5 3127.93   1
   4   7   1 16065.7 2214.86   1
   4   7   2 17818.0 2587.55   1
   4   7   3 22357.6 3042.74   1
   4   7   4 553.320 537.597   1
  -4  -7  -4 672.729 613.226   1
   4   7   5 4962.14 1440.16   1
  -4  -7  -5 3403.46 1314.56   1
   4   7   6 191.265 91.2273   1
   4   8  -3-34.2901 97.0052   1
   4   8  -2 21373.8 2631.24   1
   4   8  -1 1595.21 685.295   1
   4   8   0 102.183 167.430   1
   4   8   1 187.074 351.190   1
   4   8   2 23342.7 2927.28   1
   4   8   3 5237.66 1334.35   1
  -4  -8  -3 4753.07 1522.62   1
   4   8   4 1542.66 694.390   1
  -4  -8  -4 1041.89 692.281   1
   4   8   5 13169.2 2472.72   1
   4   9  -4 0.42032 457.136   1
   4   9  -3 7986.19 1696.91   1
   4   9  -2 7556.77 1643.57   1
   4   9  -1 1640.04 583.487   1
   4   9   0-79.8866 80.3625   1
   4   9   1 251.142 336.861   1
   4   9   2 2399.28 924.466   1
  -4  -9  -2 1603.75 711.391   1
  -4  -9  -3 706.733 606.918   1
   4   9   3 589.881 277.557   1
   4   9   4 512.068 245.476   1
   4  10  -2 223.920 266.335   1
   4  10  -1 3636.27 1050.27   1
   4  10   0 618.827 190.079   1
   4  10   1 30858.5 3381.16   1
  -4 -10  -2 336.668 686.971   1
   4  10   2 1827.85 1157.49   1
   4  10   3 4330.06 1647.97   1
   4  11   0 905.740 672.608   1
   4  11   1 9756.42 2112.65   1
  -4 -11  -1 7006.46 2018.16   1
   4  11   2 500.273 754.866   1
   5  10   0 372.143 411.063   1
   5  10   1 28.2933 156.049   1
   0   0   0    0.00    0.00   0
TITL cr2_p05_s1 in P2(1)/c
REM P2(1)/c (#14 in standard setting)
CELL 0.29840   4.537554   6.795093   9.227726  90.0000  90.7035  90.0000
ZERR    1.00   0.002922   0.001262   0.000883   0.0000   0.0267   0.0000
LATT  1
SYMM -x, y+1/2,-z+1/2
SFAC H B O Si Ca
UNIT 1.00 1.00 5.00 1.00 1.00
TREF
HKLF 4
END
;
_shelx_hkl_checksum              51438
loop_
_space_group_symop_operation_xyz
'x, y, z'
'-x, y+1/2, -z+1/2'
'-x, -y, -z'
'x, -y-1/2, z-1/2'
loop_
_atom_site_label
_atom_site_type_symbol
_atom_site_fract_x
_atom_site_fract_y
_atom_site_fract_z
_atom_site_U_iso_or_equiv
_atom_site_adp_type
_atom_site_occupancy
_atom_site_site_symmetry_order
_atom_site_calc_flag
_atom_site_refinement_flags_posn
Ca1 Ca -0.0009(5) 0.63024(16) 0.18029(12) 0.0164(9) Uani 1 1 d .
Si1 Si 0.5281(7) 0.3205(2) 0.06630(18) 0.0140(11) Uani 1 1 d .
B1 B 0.587(3) 0.0577(8) -0.1524(6) 0.016(3) Uani 1 1 d .
O1 O 0.2618(19) 0.4610(6) 0.0170(4) 0.0141(11) Uani 1 1 d .
O2 O 0.724(2) 0.1802(6) -0.0398(5) 0.0141(11) Uani 1 1 d .
O3 O 0.7136(19) 0.3653(5) 0.2154(5) 0.0141(11) Uani 1 1 d .
O4 O 0.3162(18) 0.1388(6) 0.1313(5) 0.0141(11) Uani 1 1 d .
O5 O 0.2645(19) 0.0782(6) -0.1594(4) 0.0141(11) Uani 1 1 d D
H H 0.17(4) 0.01(2) -0.089(14) 0.07(6) Uiso 1 1 d D
loop_
_atom_site_aniso_label
_atom_site_aniso_U_11
_atom_site_aniso_U_22
_atom_site_aniso_U_33
_atom_site_aniso_U_23
_atom_site_aniso_U_13
_atom_site_aniso_U_12
Ca1 0.024(3) 0.0179(7) 0.0071(6) 0.0001(3) -0.0062(9) -0.0011(4)
Si1 0.019(3) 0.0176(8) 0.0052(7) 0.0008(5) -0.0073(12) 0.0012(6)
B1 0.029(10) 0.018(2) 0.0007(15) -0.0004(17) -0.003(3) -0.005(2)
O1 0.018(4) 0.0178(10) 0.0060(8) 0.0016(6) -0.0055(13) 0.0000(8)
O2 0.018(4) 0.0178(10) 0.0060(8) 0.0016(6) -0.0055(13) 0.0000(8)
O3 0.018(4) 0.0178(10) 0.0060(8) 0.0016(6) -0.0055(13) 0.0000(8)
O4 0.018(4) 0.0178(10) 0.0060(8) 0.0016(6) -0.0055(13) 0.0000(8)
O5 0.018(4) 0.0178(10) 0.0060(8) 0.0016(6) -0.0055(13) 0.0000(8)
loop_
_atom_type_symbol
_atom_type_description
_atom_type_scat_dispersion_real
_atom_type_scat_dispersion_imag
_atom_type_scat_source
O O 0.0056 0.0036 'International Tables Vol C Tables 4.2.6.8 and 6.1.1.4'
Si Si 0.0522 0.0431 'International Tables Vol C Tables 4.2.6.8 and 6.1.1.4'
B B 0.0004 0.0004 'International Tables Vol C Tables 4.2.6.8 and 6.1.1.4'
Ca Ca 0.1611 0.1926 'International Tables Vol C Tables 4.2.6.8 and 6.1.1.4'
H H 0.0000 0.0000 'International Tables Vol C Tables 4.2.6.8 and 6.1.1.4'
loop_
_geom_angle_atom_site_label_1
_geom_angle_atom_site_label_2
_geom_angle_atom_site_label_3
_geom_angle
_geom_angle_site_symmetry_1
_geom_angle_site_symmetry_3
O2 Ca1 O3 151.54(17) 3_665 1_455
O2 Ca1 O1 89.0(2) 3_665 3_565
O3 Ca1 O1 66.19(19) 1_455 3_565
O2 Ca1 O1 66.3(2) 3_665 .
O3 Ca1 O1 89.9(2) 1_455 .
O1 Ca1 O1 66.1(4) 3_565 .
O2 Ca1 O4 142.91(19) 3_665 2
O3 Ca1 O4 62.5(2) 1_455 2
O1 Ca1 O4 107.3(3) 3_565 2
O1 Ca1 O4 150.70(18) . 2
O2 Ca1 O3 60.94(18) 3_665 2_655
O3 Ca1 O3 146.45(9) 1_455 2_655
O1 Ca1 O3 146.35(18) 3_565 2_655
O1 Ca1 O3 109.8(3) . 2_655
O4 Ca1 O3 91.2(2) 2 2_655
O2 Ca1 O5 75.6(3) 3_665 3_565
O3 Ca1 O5 113.5(3) 1_455 3_565
O1 Ca1 O5 84.39(19) 3_565 3_565
O1 Ca1 O5 131.13(17) . 3_565
O4 Ca1 O5 73.3(2) 2 3_565
O3 Ca1 O5 74.2(2) 2_655 3_565
O2 Ca1 O5 115.1(3) 3_665 4_566
O3 Ca1 O5 73.7(2) 1_455 4_566
O1 Ca1 O5 126.90(16) 3_565 4_566
O1 Ca1 O5 80.96(19) . 4_566
O4 Ca1 O5 81.8(2) 2 4_566
O3 Ca1 O5 82.59(17) 2_655 4_566
O5 Ca1 O5 145.14(11) 3_565 4_566
O2 Ca1 B1 170.6(3) 3_665 4_466
O3 Ca1 B1 31.8(2) 1_455 4_466
O1 Ca1 B1 88.4(2) 3_565 4_466
O1 Ca1 B1 120.5(2) . 4_466
O4 Ca1 B1 30.93(17) 2 4_466
O3 Ca1 B1 118.6(2) 2_655 4_466
O5 Ca1 B1 95.1(3) 3_565 4_466
O5 Ca1 B1 73.5(3) 4_566 4_466
O2 Ca1 B1 30.54(16) 3_665 3_665
O3 Ca1 B1 173.5(3) 1_455 3_665
O1 Ca1 B1 118.3(2) 3_565 3_665
O1 Ca1 B1 88.0(3) . 3_665
O4 Ca1 B1 118.3(2) 2 3_665
O3 Ca1 B1 30.40(19) 2_655 3_665
O5 Ca1 B1 72.3(3) 3_565 3_665
O5 Ca1 B1 99.9(3) 4_566 3_665
B1 Ca1 B1 148.17(18) 4_466 3_665
O2 Ca1 Si1 29.30(17) 3_665 3_665
O3 Ca1 Si1 125.90(17) 1_455 3_665
O1 Ca1 Si1 78.5(2) 3_565 3_665
O1 Ca1 Si1 37.13(14) . 3_665
O4 Ca1 Si1 171.55(13) 2 3_665
O3 Ca1 Si1 80.77(19) 2_655 3_665
O5 Ca1 Si1 101.73(18) 3_565 3_665
O5 Ca1 Si1 99.7(2) 4_566 3_665
B1 Ca1 Si1 157.42(14) 4_466 3_665
B1 Ca1 Si1 53.30(19) 3_665 3_665
O2 Ca1 Si1 125.01(13) 3_665 1_455
O3 Ca1 Si1 29.20(11) 1_455 1_455
O1 Ca1 Si1 37.01(16) 3_565 1_455
O1 Ca1 Si1 78.39(19) . 1_455
O4 Ca1 Si1 80.92(15) 2 1_455
O3 Ca1 Si1 171.8(2) 2_655 1_455
O5 Ca1 Si1 101.21(18) 3_565 1_455
O5 Ca1 Si1 98.38(15) 4_566 1_455
B1 Ca1 Si1 54.44(13) 4_466 1_455
B1 Ca1 Si1 155.17(12) 3_665 1_455
Si1 Ca1 Si1 106.97(8) 3_665 1_455
O1 Si1 O3 120.5(3) . .
O1 Si1 O2 126.2(3) . .
O3 Si1 O2 109.5(4) . .
O1 Si1 O4 96.1(4) . .
O3 Si1 O4 97.3(3) . .
O2 Si1 O4 95.9(3) . .
O1 Si1 O1 78.7(5) . 3_665
O3 Si1 O1 86.6(3) . 3_665
O2 Si1 O1 86.3(3) . 3_665
O4 Si1 O1 174.6(3) . 3_665
O1 Si1 Si1 43.7(3) . 3_665
O3 Si1 Si1 104.76(17) . 3_665
O2 Si1 Si1 107.4(2) . 3_665
O4 Si1 Si1 139.7(3) . 3_665
O1 Si1 Si1 35.0(2) 3_665 3_665
O1 Si1 Ca1 104.4(3) . 3_665
O3 Si1 Ca1 103.8(3) . 3_665
O2 Si1 Ca1 41.7(2) . 3_665
O4 Si1 Ca1 136.9(2) . 3_665
O1 Si1 Ca1 44.7(2) 3_665 3_665
Si1 Si1 Ca1 69.20(12) 3_665 3_665
O1 Si1 Ca1 101.7(2) . 1_655
O3 Si1 Ca1 42.1(2) . 1_655
O2 Si1 Ca1 102.5(3) . 1_655
O4 Si1 Ca1 139.11(16) . 1_655
O1 Si1 Ca1 44.52(13) 3_665 1_655
Si1 Si1 Ca1 67.41(9) 3_665 1_655
Ca1 Si1 Ca1 73.04(8) 3_665 1_655
O1 Si1 Ca1 37.37(15) . 3_565
O3 Si1 Ca1 157.6(3) . 3_565
O2 Si1 Ca1 92.4(2) . 3_565
O4 Si1 Ca1 84.7(2) . 3_565
O1 Si1 Ca1 90.27(18) 3_665 3_565
Si1 Si1 Ca1 62.53(8) 3_665 3_565
Ca1 Si1 Ca1 89.17(6) 3_665 3_565
Ca1 Si1 Ca1 129.94(6) 1_655 3_565
O1 Si1 Ca1 34.77(19) . .
O3 Si1 Ca1 89.0(3) . .
O2 Si1 Ca1 160.8(2) . .
O4 Si1 Ca1 86.2(3) . .
O1 Si1 Ca1 90.1(2) 3_665 .
Si1 Si1 Ca1 61.35(11) 3_665 .
Ca1 Si1 Ca1 130.56(6) 3_665 .
Ca1 Si1 Ca1 87.81(6) 1_655 .
Ca1 Si1 Ca1 68.82(7) 3_565 .
O1 Si1 Ca1 152.5(2) . 2_645
O3 Si1 Ca1 34.81(17) . 2_645
O2 Si1 Ca1 81.22(19) . 2_645
O4 Si1 Ca1 80.5(2) . 2_645
O1 Si1 Ca1 104.8(2) 3_665 2_645
Si1 Si1 Ca1 134.32(14) 3_665 2_645
Ca1 Si1 Ca1 96.14(11) 3_665 2_645
Ca1 Si1 Ca1 66.93(5) 1_655 2_645
Ca1 Si1 Ca1 163.09(7) 3_565 2_645
Ca1 Si1 Ca1 117.86(6) . 2_645
O1 Si1 Ca1 83.9(3) . 2_545
O3 Si1 Ca1 81.9(3) . 2_545
O2 Si1 Ca1 123.3(2) . 2_545
O4 Si1 Ca1 28.1(2) . 2_545
O1 Si1 Ca1 150.4(2) 3_665 2_545
Si1 Si1 Ca1 123.37(17) 3_665 2_545
Ca1 Si1 Ca1 164.89(5) 3_665 2_545
Ca1 Si1 Ca1 118.22(6) 1_655 2_545
Ca1 Si1 Ca1 90.13(10) 3_565 2_545
Ca1 Si1 Ca1 62.66(6) . 2_545
Ca1 Si1 Ca1 80.56(6) 2_645 2_545
O4 B1 O3 109.3(8) 3_655 4_565
O4 B1 O2 108.0(6) 3_655 .
O3 B1 O2 102.8(7) 4_565 .
O4 B1 O5 113.7(7) 3_655 .
O3 B1 O5 109.4(6) 4_565 .
O2 B1 O5 113.0(8) . .
O4 B1 Ca1 55.2(5) 3_655 4_665
O3 B1 Ca1 54.4(4) 4_565 4_665
O2 B1 Ca1 112.1(8) . 4_665
O5 B1 Ca1 134.6(3) . 4_665
O4 B1 Ca1 120.7(8) 3_655 3_665
O3 B1 Ca1 52.2(4) 4_565 3_665
O2 B1 Ca1 50.6(4) . 3_665
O5 B1 Ca1 125.6(4) . 3_665
Ca1 B1 Ca1 80.9(4) 4_665 3_665
Si1 O1 Si1 101.3(5) . 3_665
Si1 O1 Ca1 117.0(3) . 3_565
Si1 O1 Ca1 98.47(18) 3_665 3_565
Si1 O1 Ca1 121.3(2) . .
Si1 O1 Ca1 98.2(2) 3_665 .
Ca1 O1 Ca1 113.9(4) 3_565 .
B1 O2 Si1 121.7(8) . .
B1 O2 Ca1 98.8(5) . 3_665
Si1 O2 Ca1 109.0(2) . 3_665
B1 O3 Si1 124.7(7) 4_566 .
B1 O3 Ca1 93.9(4) 4_566 1_655
Si1 O3 Ca1 108.7(2) . 1_655
B1 O3 Ca1 97.4(3) 4_566 2_645
Si1 O3 Ca1 120.9(2) . 2_645
Ca1 O3 Ca1 107.2(3) 1_655 2_645
B1 O4 Si1 124.3(7) 3_655 .
B1 O4 Ca1 93.9(5) 3_655 2_545
Si1 O4 Ca1 131.5(3) . 2_545
B1 O5 Ca1 126.6(3) . 3_565
B1 O5 Ca1 118.0(4) . 4_565
Ca1 O5 Ca1 101.6(2) 3_565 4_565
B1 O5 H 112(10) . .
Ca1 O5 H 105(10) 3_565 .
Ca1 O5 H 85(10) 4_565 .
loop_
_geom_bond_atom_site_label_1
_geom_bond_atom_site_label_2
_geom_bond_distance
_geom_bond_site_symmetry_2
Ca1 O2 2.226(8) 3_665
Ca1 O3 2.244(6) 1_455
Ca1 O1 2.247(5) 3_565
Ca1 O1 2.249(7) .
Ca1 O4 2.266(8) 2
Ca1 O3 2.268(5) 2_655
Ca1 O5 2.321(6) 3_565
Ca1 O5 2.367(5) 4_566
Ca1 B1 2.753(12) 4_466
Ca1 B1 2.846(10) 3_665
Ca1 Si1 3.164(4) 3_665
Ca1 Si1 3.170(3) 1_455
Si1 O1 1.602(7) .
Si1 O3 1.633(5) .
Si1 O2 1.638(8) .
Si1 O4 1.680(7) .
Si1 O1 1.929(7) 3_665
Si1 Si1 2.739(3) 3_665
Si1 Ca1 3.164(4) 3_665
Si1 Ca1 3.170(3) 1_655
Si1 Ca1 3.299(3) 3_565
Si1 Ca1 3.408(3) 2_645
Si1 Ca1 3.606(4) 2_545
B1 O4 1.418(8) 3_655
B1 O3 1.452(11) 4_565
B1 O2 1.464(7) .
B1 O5 1.471(16) .
B1 Ca1 2.753(12) 4_665
B1 Ca1 2.846(10) 3_665
O1 Si1 1.929(7) 3_665
O1 Ca1 2.247(5) 3_565
O2 Ca1 2.226(8) 3_665
O3 B1 1.452(11) 4_566
O3 Ca1 2.244(6) 1_655
O3 Ca1 2.268(5) 2_645
O4 B1 1.418(8) 3_655
O4 Ca1 2.266(8) 2_545
O5 Ca1 2.321(6) 3_565
O5 Ca1 2.367(5) 4_565
O5 H 0.90(2) .
