#------------------------------------------------------------------------------
#$Date: 2019-11-24 06:02:49 +0200 (Sun, 24 Nov 2019) $
#$Revision: 236893 $
#$URL: file:///home/coder/svn-repositories/cod/cif/4/34/98/4349851.cif $
#------------------------------------------------------------------------------
#
# This file is available in the Crystallography Open Database (COD),
# http://www.crystallography.net/
#
# All data on this site have been placed in the public domain by the
# contributors.
#
data_4349851
loop_
_publ_author_name
'Gorelova, Liudmila A.'
'Pakhomova, Anna S.'
'Aprilis, Georgios'
'Dubrovinsky, Leonid S.'
'Krivovichev, Sergey V.'
_publ_section_title
;
 Pentacoordinated silicon in the high-pressure modification of datolite,
 CaBSiO4(OH)
;
_journal_issue                   7
_journal_name_full               'Inorganic Chemistry Frontiers'
_journal_page_first              1653
_journal_paper_doi               10.1039/C8QI00257F
_journal_volume                  5
_journal_year                    2018
_chemical_formula_sum            'B Ca H O5 Si'
_chemical_formula_weight         159.99
_space_group_crystal_system      monoclinic
_space_group_IT_number           14
_space_group_name_Hall           '-P 2ybc'
_space_group_name_H-M_alt        'P 1 21/c 1'
_atom_sites_solution_hydrogens   difmap
_audit_creation_method           SHELXL-2014/7
_audit_update_record
;
2018-03-21 deposited with the CCDC.
2018-05-04 downloaded from the CCDC.
;
_cell_angle_alpha                90
_cell_angle_beta                 90.76(3)
_cell_angle_gamma                90
_cell_formula_units_Z            4
_cell_length_a                   4.464(8)
_cell_length_b                   6.6986(9)
_cell_length_c                   9.2145(11)
_cell_measurement_reflns_used    621
_cell_measurement_temperature    298(2)
_cell_measurement_theta_max      11.935
_cell_measurement_theta_min      1.531
_cell_volume                     275.5(5)
_computing_structure_refinement  'SHELXL-2014/7 (Sheldrick, 2014)'
_diffrn_ambient_temperature      298(2)
_diffrn_measured_fraction_theta_full 0.384
_diffrn_measured_fraction_theta_max 0.379
_diffrn_measurement_device_type
'esperanto-CrysAlisPro-abstract goniometer imported esperanto images'
_diffrn_radiation_wavelength     0.2896
_diffrn_reflns_av_R_equivalents  0.0561
_diffrn_reflns_av_unetI/netI     0.0944
_diffrn_reflns_Laue_measured_fraction_full 0.384
_diffrn_reflns_Laue_measured_fraction_max 0.379
_diffrn_reflns_limit_h_max       1
_diffrn_reflns_limit_h_min       -2
_diffrn_reflns_limit_k_max       9
_diffrn_reflns_limit_k_min       -9
_diffrn_reflns_limit_l_max       13
_diffrn_reflns_limit_l_min       -13
_diffrn_reflns_number            621
_diffrn_reflns_point_group_measured_fraction_full 0.384
_diffrn_reflns_point_group_measured_fraction_max 0.379
_diffrn_reflns_theta_full        10.007
_diffrn_reflns_theta_max         11.935
_diffrn_reflns_theta_min         1.531
_exptl_absorpt_coefficient_mu    1.313
_exptl_crystal_colour            colorless
_exptl_crystal_density_diffrn    3.857
_exptl_crystal_density_meas      ?
_exptl_crystal_density_method    none
_exptl_crystal_description       isosymmetric
_exptl_crystal_F_000             320
_exptl_crystal_size_max          0.010
_exptl_crystal_size_mid          0.010
_exptl_crystal_size_min          0.005
_refine_diff_density_max         0.628
_refine_diff_density_min         -0.634
_refine_diff_density_rms         0.162
_refine_ls_extinction_method     none
_refine_ls_goodness_of_fit_ref   0.971
_refine_ls_hydrogen_treatment    refall
_refine_ls_matrix_type           full
_refine_ls_number_parameters     72
_refine_ls_number_reflns         320
_refine_ls_number_restraints     1
_refine_ls_restrained_S_all      0.969
_refine_ls_R_factor_all          0.0740
_refine_ls_R_factor_gt           0.0543
_refine_ls_shift/su_max          0.000
_refine_ls_shift/su_mean         0.000
_refine_ls_structure_factor_coef Fsqd
_refine_ls_weighting_details
'w=1/[\s^2^(Fo^2^)+(0.0867P)^2^] where P=(Fo^2^+2Fc^2^)/3'
_refine_ls_weighting_scheme      calc
_refine_ls_wR_factor_gt          0.1261
_refine_ls_wR_factor_ref         0.1406
_reflns_Friedel_coverage         0.000
_reflns_number_gt                241
_reflns_number_total             320
_reflns_threshold_expression     'I > 2\s(I)'
_cod_data_source_file            c8qi00257f2.cif
_cod_data_source_block           shelx_CCDC5
_cod_depositor_comments
;
The following automatic conversions were performed:

data item '_exptl_crystal_density_meas' value 'none' was changed to
'?' -- the value is perceived as not measured.

Automatic conversion script
Id: cif_fix_values 6909 2019-04-08 15:41:33Z antanas 
;
_cod_original_sg_symbol_H-M      'P 21/c'
_cod_database_code               4349851
_shelx_shelxl_version_number     2014/7
_shelx_space_group_comment
;
The symmetry employed for this shelxl refinement is uniquely defined
by the following loop, which should always be used as a source of
symmetry information in preference to the above space-group names.
They are only intended as comments.
;
_shelx_res_file
;

    shelx.res created by SHELXL-2014/7


TITL Dat_p5_cr3_s1 in P2(1)/c
REM P2(1)/c (#14 in standard setting)
CELL 0.28960   4.463603   6.698590   9.214543  90.0000  90.7571  90.0000
ZERR    4.00   0.007998   0.000881   0.001141   0.0000   0.0328   0.0000
LATT  1
SYMM -x, y+1/2,-z+1/2
SFAC O Si B Ca H
UNIT 20.00 4.00 4.00 4.00 4.00

L.S. 20
ACTA
BOND $H
HTAB
DFIX 0.90 0.02 H O5
TEMP 25.0
FMAP 2
PLAN 250
REM TWIN 1 0 0 0 1 0 0 0 -1
REM EXTI    0.000000
WGHT    0.086700
FVAR      12.46486
CA1   4   -0.000211    0.629706    0.181016    11.00000    0.05827    0.00882 =
         0.00483   -0.00018   -0.00880   -0.00085
SI1   2    0.531417    0.322142    0.066338    11.00000    0.04005    0.00945 =
         0.00358   -0.00038   -0.00841    0.00054
B1    3    0.591950    0.057359   -0.151595    11.00000    0.00607
O1    1    0.265173    0.462213    0.015694    11.00000    0.08445    0.00359 =
         0.00696    0.00008   -0.00884    0.00014
O2    1    0.727995    0.176699   -0.037813    11.00000    0.05775    0.00800 =
         0.00516   -0.00090   -0.01246    0.00356
O3    1    0.711733    0.362903    0.215495    11.00000    0.08525    0.00903 =
         0.00181   -0.00009   -0.00153   -0.00282
O4    1    0.309131    0.140537    0.131331    11.00000    0.05284    0.00550 =
         0.00614    0.00010   -0.01037    0.00327
O5    1    0.268427    0.079440   -0.160103    11.00000    0.02965    0.00902 =
         0.00533    0.00080   -0.00688   -0.00308
H     5    0.088170    0.038879   -0.129019    11.00000    0.12106

HKLF 4

REM  Dat_p5_cr3_s1 in P2(1)/c
REM R1 =  0.0543 for     241 Fo > 4sig(Fo)  and  0.0740 for all     320 data
REM     72 parameters refined using      1 restraints

END

WGHT      0.0814      0.0000

REM Instructions for potential hydrogen bonds
EQIV $1 x-1, y, z
HTAB O5 O2_$1
EQIV $2 x-1, -y+1/2, z-1/2
HTAB O5 O3_$2
EQIV $3 -x, -y, -z
HTAB O5 O4_$3

REM Highest difference peak  0.628,  deepest hole -0.634,  1-sigma level  0.162
Q1    1  -0.1080  0.4956  0.1164  11.00000  0.05    0.63
Q2    1   0.5287  0.1247  0.3136  11.00000  0.05    0.56
Q3    1   0.4836  0.4189  0.0073  11.00000  0.05    0.52
Q4    1   0.0267  0.3206  0.0643  11.00000  0.05    0.47
Q5    1   0.3310  0.1254 -0.0194  11.00000  0.05    0.46
Q6    1   0.5380  0.3344 -0.0803  11.00000  0.05    0.45
Q7    1   0.1480 -0.1261 -0.1377  11.00000  0.05    0.44
Q8    1   0.0694 -0.1001 -0.1299  11.00000  0.05    0.40
Q9    1  -0.0144  0.7829  0.2048  11.00000  0.05    0.39
Q10   1   0.7011  0.5542  0.1868  11.00000  0.05    0.39
Q11   1   0.6318  0.1872 -0.0248  11.00000  0.05    0.38
Q12   1   0.3115  0.4027  0.0621  11.00000  0.05    0.38
Q13   1   0.9614  0.2834 -0.0382  11.00000  0.05    0.38
Q14   1   0.5053  0.1598  0.1965  11.00000  0.05    0.38
Q15   1   0.5255  0.0012 -0.1654  11.00000  0.05    0.38
Q16   1   0.0795  0.3685 -0.0396  11.00000  0.05    0.37
Q17   1   0.5539  0.1872 -0.0079  11.00000  0.05    0.37
Q18   1   0.0729  0.5008  0.2159  11.00000  0.05    0.35
Q19   1   0.2341  0.3520 -0.0268  11.00000  0.05    0.35
Q20   1   0.1704  0.6228 -0.0577  11.00000  0.05    0.35
Q21   1   0.7032  0.3153  0.2439  11.00000  0.05    0.35
Q22   1   0.1564  0.0961  0.1517  11.00000  0.05    0.34
Q23   1  -0.2935  0.6980  0.1857  11.00000  0.05    0.33
Q24   1   0.3646  0.4792  0.1653  11.00000  0.05    0.33
Q25   1   0.4888  0.3795  0.2411  11.00000  0.05    0.32
Q26   1   0.2917  0.2237 -0.1059  11.00000  0.05    0.32
Q27   1   0.4504  0.4744  0.1749  11.00000  0.05    0.31
Q28   1   0.0218  0.4689  0.2052  11.00000  0.05    0.31
Q29   1   0.6465  0.1940  0.1080  11.00000  0.05    0.31
Q30   1   0.2461  0.6999  0.1799  11.00000  0.05    0.30
Q31   1   0.0255 -0.0324 -0.0440  11.00000  0.05    0.30
Q32   1   0.0567  0.6172  0.1598  11.00000  0.05    0.30
Q33   1   0.5978  0.2632 -0.1629  11.00000  0.05    0.29
Q34   1   0.1810  0.5200  0.2022  11.00000  0.05    0.28
Q35   1   0.2705  0.2494  0.0596  11.00000  0.05    0.27
Q36   1  -0.0426  0.2116  0.1291  11.00000  0.05    0.27
Q37   1   0.4687  0.0961  0.1012  11.00000  0.05    0.27
Q38   1   0.0175  0.4278  0.0134  11.00000  0.05    0.26
Q39   1   0.9653  0.2917  0.1980  11.00000  0.05    0.26
Q40   1   0.9415  0.1013 -0.0406  11.00000  0.05    0.26
Q41   1  -0.0359  0.7381  0.1287  11.00000  0.05    0.26
Q42   1   0.2798 -0.0247 -0.0951  11.00000  0.05    0.25
Q43   1   0.2290  0.4403  0.1595  11.00000  0.05    0.25
Q44   1   0.6511  0.0125 -0.0402  11.00000  0.05    0.23
Q45   1   0.1228  0.2525  0.1825  11.00000  0.05    0.23
Q46   1   0.2460  0.2117 -0.2629  11.00000  0.05    0.23
Q47   1   0.2238  0.1895  0.0851  11.00000  0.05    0.21
Q48   1   0.7160  0.0972  0.0191  11.00000  0.05    0.21
Q49   1   0.7427  0.1419 -0.0960  11.00000  0.05    0.20
Q50   1   0.3033  0.3017  0.1434  11.00000  0.05    0.20
Q51   1   0.7305  0.0545 -0.1615  11.00000  0.05    0.20
Q52   1  -0.0223  0.0006 -0.2147  11.00000  0.05    0.20
Q53   1   0.5818  0.1172 -0.1490  11.00000  0.05    0.20
Q54   1   0.1523  0.1768  0.0971  11.00000  0.05    0.20
Q55   1   0.3054  0.1268  0.0636  11.00000  0.05    0.19
Q56   1   0.6588  0.0891 -0.1602  11.00000  0.05    0.19
Q57   1   0.0321  0.0991 -0.1322  11.00000  0.05    0.18
Q58   1   0.2408  0.2758  0.1554  11.00000  0.05    0.17
Q59   1   0.5633 -0.0412 -0.2216  11.00000  0.05    0.15
Q60   1   0.5000  0.0000  0.0000  10.50000  0.05    0.11
Q61   1   0.9506  0.1904  0.0327  11.00000  0.05    0.10
Q62   1   0.2316 -0.0682 -0.1982  11.00000  0.05    0.09
Q63   1   0.5686  0.4081  0.1438  11.00000  0.05    0.08
;
_shelx_res_checksum              37054
_shelx_hkl_file
;
   0   0  -3-57.2556 53.5342   1
   0   0   3-173.671 333.396   1
   0   0   4 13861.6 2980.65   1
   0   0  -4 16253.4 2937.82   1
   0   0   5-88.8755 836.117   1
   0   0  -5 115.571 489.071   1
   0   0   6 413493. 14741.9   1
   0   0  -6 401651. 14753.0   1
   0   0  -7-2186.10 2652.10   1
   0   0   7-3270.60 3557.76   1
   0   0   8 393449. 19997.1   1
   0   0  -8 386947. 17199.1   1
   0   0   9 1261.60 2104.79   1
   0   0  -9 663.120 1006.63   1
   0   0 -10 30343.1 5449.20   1
   0   0  10 14243.0 5755.85   1
   0   0  11 840.606 764.682   1
   0   0 -11 684.329 584.118   1
   0   0 -12 14933.5 4013.17   1
   0   0  12 2567.86 3749.81   1
   0   0 -13 349.384 1027.39   1
   0   0  13-514.297 1202.65   1
   0  -1   1 72397.3 4194.41   1
   0   1  -1 69480.4 4022.73   1
   0   1  -2 1868.49 722.152   1
   0  -1   2 1876.43 720.967   1
   0  -1   3 42564.4 4263.36   1
   0   1  -3 41665.6 4031.56   1
   0   1   4 446025. 10536.3   1
   0   1  -4 451603. 14989.9   1
   0  -1  -4 451391. 9647.77   1
   0  -1   4 441423. 16029.0   1
   0   1  -5 341868. 13681.4   1
   0  -1   5 331265. 14815.3   1
   0  -1  -5 327938. 10053.9   1
   0   1   5 328529. 11239.1   1
   0  -1   6 8190.84 2297.90   1
   0   1  -6 8047.42 2381.71   1
   0   1   6 8005.76 1929.83   1
   0  -1  -6 8321.43 1747.78   1
   0   1   7 196832. 11584.1   1
   0   1  -7 194629. 12675.8   1
   0  -1   7 200547. 12573.4   1
   0  -1  -7 194847. 9885.77   1
   0   1  -8 176159. 13020.5   1
   0  -1  -8 182152. 10505.0   1
   0   1   8 171207. 12128.3   1
   0  -1   8 178798. 14010.5   1
   0   1   9 481.561 1059.12   1
   0   1  -9 125.598 1326.59   1
   0  -1  -9 1714.79 113.135   1
   0  -1   9 538.820 846.329   1
   0   1 -10 22691.2 5667.68   1
   0   1  10 11216.3 5299.08   1
   0  -1  10 25151.6 5859.21   1
   0  -1 -10 29425.9 4847.59   1
   0   1 -11 110878. 11512.7   1
   0  -1 -11 107393. 10066.0   1
   0   1 -12 196363. 16474.8   1
   0  -1  12 215320. 18622.8   1
   0  -1 -12 176123. 13576.5   1
   0   1 -13 8343.11 3613.60   1
   0  -1 -13 9664.56 3243.70   1
   0  -1  13 2258.47 3764.59   1
   0   2   0 4200.81 1025.44   1
   0  -2   0 4325.66 1080.96   1
   0   2  -1 3464.21 1136.83   1
   0  -2   1 3191.37 1062.83   1
   0  -2   2 13319.6 2634.81   1
   0   2  -2 13812.6 2537.32   1
   0   2  -3 131278. 8478.63   1
   0  -2   3 133539. 9034.24   1
   0   2  -4-1822.50 2808.24   1
   0  -2   4-2319.03 3031.73   1
   0   2  -5 721285. 22792.1   1
   0  -2   5 727755. 24880.5   1
   0   2  -6 185291. 12281.7   1
   0  -2   6 178626. 12799.1   1
   0  -2   7 8403.07 2816.88   1
   0   2  -7 8156.44 2927.35   1
   0  -2  -7 6427.14 8283.80   1
   0   2  -8 88898.7 9872.59   1
   0  -2  -8 88112.0 6235.26   1
   0  -2   8 98274.7 10583.5   1
   0  -2  -9 37207.7 4454.30   1
   0   2  -9 40162.8 7045.97   1
   0  -2   9 40108.1 7523.67   1
   0  -2 -10 5173.59 1743.95   1
   0   2 -10 5257.08 1633.68   1
   0  -2  10 4255.38 1965.65   1
   0  -2  11 30557.9 7901.86   1
   0   2 -11 25439.9 6079.49   1
   0   2 -12 8033.80 1918.99   1
   0  -2  12 7566.58 3525.60   1
   0   3   0-532.448 1233.82   1
   0  -3   0-1336.37 1695.58   1
   0   3   1 12170.4 1808.89   1
   0  -3   1 10265.5 2691.77   1
   0  -3  -1 12080.7 2139.72   1
   0   3  -1 10454.7 2413.87   1
   0  -3  -2 184497. 7784.54   1
   0  -3   2 162143. 11198.1   1
   0   3  -2 179695. 10401.7   1
   0   3   2 188125. 6085.54   1
   0  -3   3 419904. 18592.7   1
   0   3  -3 390259. 16312.8   1
   0  -3   4 208265. 13607.6   1
   0   3  -4 205904. 12534.2   1
   0  -3   5 34813.5 5873.54   1
   0   3  -5 35326.3 5383.86   1
   0  -3   6 1078.05 609.296   1
   0   3  -6 1022.22 870.023   1
   0   3  -7 354245. 19857.1   1
   0  -3   7 376661. 20141.6   1
   0   3  -8 46457.3 7613.82   1
   0  -3   8 46611.8 8062.42   1
   0  -3   9 170216. 16454.7   1
   0   3  -9 177170. 15234.6   1
   0  -3  10 200513. 19049.5   1
   0   3 -10 200621. 16582.2   1
   0  -3  11 60223.6 10869.5   1
   0   3 -11 62273.9 9976.33   1
   0   3 -12 2696.80 2735.33   1
   0  -3  12 2312.11 1955.53   1
   0   4   0 992806. 21849.5   1
   0  -4   0 999999. 24059.6   1
   0   4  -1 11969.5 2587.07   1
   0  -4   1 12139.1 3027.97   1
   0  -4  -1 11314.1 2252.33   1
   0   4   1 11366.3 2043.41   1
   0   4   2 268329. 9450.57   1
   0  -4   2 269198. 15245.7   1
   0  -4  -2 266028. 11739.7   1
   0   4  -2 274122. 13628.0   1
   0   4  -3 81706.8 7898.95   1
   0   4   3 74287.3 4402.14   1
   0  -4   3 74847.1 8570.42   1
   0  -4   4 46791.8 7113.99   1
   0   4  -4 44224.4 6009.49   1
   0  -4   5 444942. 22585.4   1
   0   4  -5 457462. 20857.5   1
   0  -4   6 85802.4 9842.51   1
   0   4  -6 81803.8 9173.49   1
   0   4  -7-1283.81 1709.39   1
   0  -4   7 428.675 921.546   1
   0  -4   8 154164. 15904.2   1
   0   4  -8 155326. 14500.2   1
   0  -4   9 44431.3 8904.83   1
   0   4  -9 47483.8 8658.84   1
   0   4 -10 2157.48 1821.07   1
   0  -4  10 1840.66 2796.37   1
   0  -4  11 11583.5 6298.70   1
   0   4 -11 7935.24 3722.62   1
   0  -5   0 7734.98 4032.92   1
   0   5   0 4826.70 3013.26   1
   0  -5  -1 23260.5 4611.16   1
   0   5   1 19982.4 3738.18   1
   0  -5   1 24875.3 4896.53   1
   0   5  -1 23589.3 4569.53   1
   0  -5   2 22635.0 4534.93   1
   0   5   2 19965.2 3034.50   1
   0  -5  -2 21017.2 3958.69   1
   0   5  -2 27228.6 4525.50   1
   0  -5   3 29129.2 5839.97   1
   0   5   3 30000.8 3588.91   1
   0   5  -3 35124.3 5366.08   1
   0   5   4 34390.2 2335.49   1
   0   5  -4 48273.5 8339.84   1
   0  -5   5 128347. 12702.6   1
   0   5  -5 123645. 11241.6   1
   0  -5   6 51049.2 8505.96   1
   0   5  -6 51535.7 8019.91   1
   0   5  -7 985.182 1048.58   1
   0  -5   7 656.394 1493.50   1
   0  -5   8 32697.4 7637.05   1
   0   5  -8 30651.9 6348.36   1
   0  -5   9 3480.45 3145.53   1
   0   5  -9 2595.80 2476.95   1
   0  -5  10 9395.97 4100.12   1
   0   5 -10 10864.3 3702.75   1
   0   5 -11 15544.0 4354.63   1
   0  -5  11 16986.7 6820.91   1
   0  -6   0 191073. 15214.3   1
   0   6   0 175205. 11967.2   1
   0  -6   1 214374. 16045.2   1
   0  -6  -1 190657. 14568.7   1
   0   6   1 208420. 11492.8   1
   0   6  -1 212738. 13191.4   1
   0  -6   2 64059.3 8899.54   1
   0   6   2 57555.9 5808.45   1
   0   6  -2 64083.8 8004.57   1
   0  -6  -2 58348.3 6976.50   1
   0  -6   3 45690.2 7973.49   1
   0   6   3 48491.0 4938.13   1
   0   6  -3 50502.9 7312.98   1
   0  -6   4 8708.40 3756.86   1
   0   6   4 8299.42 1876.78   1
   0   6  -4 8768.78 2774.01   1
   0   6  -5 48776.5 10802.0   1
   0  -6   5 28538.2 7927.01   1
   0  -6   6 48716.7 9796.12   1
   0   6  -6 54529.2 8732.54   1
   0  -6   7 182544. 19313.1   1
   0   6  -7 204962. 16832.8   1
   0   6  -8 53838.5 8844.26   1
   0  -6   8 52874.8 10359.5   1
   0  -6   9 4175.41 3280.08   1
   0   6  -9 5221.82 3201.95   1
   0  -6  10-2209.17 4082.47   1
   0   6 -10 863.833 1254.48   1
   0  -7   0-3429.65 3170.26   1
   0   7   0-1696.78 1896.45   1
   0  -7   1 20858.7 5443.94   1
   0  -7  -1 15597.4 3824.32   1
   0   7  -1 19516.5 4171.26   1
   0   7   1 18450.1 3443.43   1
   0  -7   2 76567.3 10851.2   1
   0  -7  -2 59150.9 8363.30   1
   0   7  -2 77091.8 9242.14   1
   0   7   2 76409.4 7274.94   1
   0  -7   3 150880. 15993.1   1
   0   7   3 148235. 9771.18   1
   0   7  -3 155653. 13603.9   1
   0   7   4 2766.78 1010.07   1
   0  -7   4 224.342 675.193   1
   0   7  -4 2192.69 1553.84   1
   0  -7   5 97070.9 13460.7   1
   0   7  -5 122379. 12141.5   1
   0   7  -6 31648.3 6941.65   1
   0  -7   6 29026.1 7876.85   1
   0  -7   7 9437.70 5037.27   1
   0   7  -7 7106.57 3324.81   1
   0  -7   8-26.2148 3302.87   1
   0   7  -8-935.591 76.8729   1
   0  -8   0 1500.66 1628.44   1
   0   8   0 477.806 1292.88   1
   0  -8  -1 2590.23 2302.33   1
   0  -8   1 2536.11 1469.23   1
   0   8  -1 2214.07 2424.00   1
   0   8   1 3525.35 2330.32   1
   0  -8   2 160974. 18008.4   1
   0   8  -2 168271. 14674.6   1
   0   8   2 187420. 12779.5   1
   0  -8   3 9820.45 5394.84   1
   0   8   3 5499.48 2018.18   1
   0   8  -3 7479.86 3422.08   1
   0  -8   4 922.101 2466.37   1
   0   8   4-272.891 972.116   1
   0   8  -4 3346.36 2704.96   1
   0  -8   5 66501.5 13307.6   1
   0   8  -5 75098.5 10824.2   1
   0  -8   6 51071.0 11629.1   1
   0   8  -6 56051.7 12372.5   1
   0   8  -7-667.576 938.161   1
   0  -8   7-542.110 2135.25   1
   0  -9   0 2152.10 2806.87   1
   0   9   0 1138.62 1366.03   1
   0   9   1-642.516 1212.31   1
   0   9  -1-1298.79 2174.04   1
   0  -9   1 1221.26 2129.96   1
   0  -9  -1 975.050 2132.19   1
   0   9  -2 4462.94 1994.30   1
   0  -9   2 3070.43 1862.85   1
   0   9   2 2567.08 1246.27   1
   0   9   3 52915.9 7401.51   1
   0  -9   3 49307.4 11545.1   1
   0   9  -3 54322.5 9457.69   1
   0   9  -4 4729.71 2904.20   1
   0   9   4 3732.63 1852.83   1
   0  -9   4 1630.25 3466.62   1
  -1   0  13-199.755 1374.31   1
  -1   0  12 12354.8 8018.72   1
  -1   0  11-2284.42 1540.90   1
  -1   0  10 203660. 16053.0   1
  -1   0   9-614.177 786.726   1
  -1   0   8 16731.9 3399.01   1
  -1   0   7-539.260 1063.78   1
  -1   0   6 242302. 11996.9   1
  -1   0  -7-546.392 1685.11   1
  -1   0  -8 179797. 13420.4   1
  -1   0  -9-820.203 1968.55   1
  -1   0 -10 9310.95 2719.50   1
  -1   0 -11-728.274 1631.67   1
  -1   0 -12 2163.16 1647.34   1
  -1   1  12 1528.05 4447.80   1
  -1  -1  12 10992.5 4577.53   1
  -1   1  11 4793.83 4279.48   1
  -1  -1  11 20400.5 4785.21   1
  -1  -1  10 119928. 11322.1   1
  -1   1  10 78583.3 9721.52   1
  -1  -1   9 10568.8 2941.60   1
  -1   1   9 4825.85 2586.71   1
  -1   1   8 25413.0 3814.86   1
  -1  -1   8 29140.7 4525.86   1
  -1   1   7 98507.4 7708.42   1
  -1  -1   7 105928. 9243.22   1
  -1  -1   6 272012. 14252.8   1
  -1  -1   5 53563.5 5853.19   1
  -1   1  -6 38170.9 6357.40   1
  -1  -1  -7 5749.77 2248.99   1
  -1   1  -7 8159.56 3020.65   1
  -1   1  -8 41625.9 6075.95   1
  -1  -1  -8 31917.8 5305.60   1
  -1  -1  -9 22513.9 4168.19   1
  -1   1  -9 23802.5 5417.07   1
  -1  -1 -10 148437. 12222.4   1
  -1   1 -10 166376. 14204.7   1
  -1   1 -11 61128.1 9611.88   1
  -1  -1 -11 53461.6 7412.63   1
  -1  -1 -12 7967.60 3024.93   1
  -1   1 -12 9423.91 3822.27   1
  -1  -2  12 7167.63 5693.88   1
  -1   2  12-300.969 1483.04   1
  -1   2  11 175426. 38078.0   1
  -1  -2  11 13185.3 4068.20   1
  -1  -2  10-254.779 2349.22   1
  -1   2  10-240.960 1741.84   1
  -1   2   9 99731.1 9461.32   1
  -1  -2   9 138965. 12449.1   1
  -1   2   8 21844.3 4531.05   1
  -1  -2   8 45635.4 6620.59   1
  -1  -2   7 319461. 16821.2   1
  -1  -2   6 38503.7 5905.37   1
  -1  -2   5 588.352 405.984   1
  -1  -2   4 4241.73 1229.29   1
  -1   2  -5 5074.89 2267.72   1
  -1   2  -6 118709. 12150.8   1
  -1   2  -7 271331. 17831.4   1
  -1  -2  -8 9846.91 2819.07   1
  -1   2  -8 16222.9 4377.95   1
  -1   2  -9 111157. 12307.8   1
  -1  -2  -9 98141.5 8251.74   1
  -1  -2 -10 3859.08 1076.51   1
  -1   2 -10-5114.59 6086.81   1
  -1  -2 -11 92585.4 9000.91   1
  -1   2 -11 95269.3 11333.6   1
  -1  -2 -12 754.349 576.791   1
  -1   2 -12 835.534 755.652   1
   1   3 -12 72908.6 11485.6   1
  -1  -3  12 59214.8 10468.1   1
  -1   3  11 3743.56 3584.21   1
   1   3 -11 13889.2 4819.79   1
  -1  -3  11 13507.6 4482.70   1
  -1  -3  10 25111.9 6761.10   1
   1   3 -10 30198.4 6643.59   1
  -1  -3   9 7598.70 3044.36   1
   1   3  -9 9212.44 3469.09   1
  -1   3   9 1938.36 1561.42   1
  -1  -3   8 4628.51 1621.17   1
   1   3  -8 5823.44 2591.67   1
  -1   3   8 1072.06 1001.81   1
   1   3  -7 16711.2 4406.26   1
  -1  -3   7 19780.5 3960.95   1
  -1  -3   6 95131.5 9824.02   1
   1   3  -6 96450.4 10855.7   1
   1   3  -5 35591.5 5814.25   1
  -1  -3   5 33920.6 5368.83   1
  -1  -3   4 164440. 11411.9   1
  -1  -3   3 397246. 17062.0   1
  -1  -3   2 122040. 8393.40   1
  -1   3  -3 58381.8 8310.46   1
  -1   3  -4 88895.9 10171.5   1
  -1   3  -5 501206. 25195.1   1
  -1   3  -6 4095.82 2430.79   1
  -1   3  -7 206418. 15155.6   1
  -1   3  -8 1465.27 1745.10   1
  -1  -3  -8 203.965 122.507   1
  -1  -3  -9 18771.8 3337.91   1
  -1   3  -9 27984.9 6014.42   1
  -1  -3 -10 2138.33 676.621   1
  -1   3 -10 2416.82 2500.34   1
  -1   3 -11 153359. 15545.0   1
  -1  -3 -11 125414. 9595.14   1
  -1   3 -12 30254.6 6858.27   1
  -1  -3 -12 29612.3 5076.37   1
   1   4 -11 21996.2 5714.65   1
  -1  -4  11 17165.5 5550.92   1
  -1   4  10 2239.19 2217.40   1
  -1  -4  10 14214.6 5188.46   1
   1   4 -10 14855.9 4769.17   1
  -1  -4   9 91634.5 12374.2   1
  -1   4   9 83699.2 4839.09   1
   1   4  -9 102574. 12553.6   1
  -1  -4   8 42957.3 8480.44   1
   1   4  -8 50260.0 9675.35   1
  -1  -4   7 7429.42 3182.64   1
   1   4  -7 9388.62 4006.43   1
  -1  -4   6 30361.1 5357.37   1
   1   4  -6 25326.3 5650.72   1
   1   4  -5 99948.9 11106.9   1
  -1  -4   5 112131. 10662.4   1
   1   4  -4 4174.55 1750.65   1
  -1  -4   4 3769.35 2350.85   1
   1   4  -3 41255.6 7712.00   1
  -1  -4   3 33844.5 5596.17   1
  -1  -4   2 91138.8 8412.33   1
  -1  -4   1 5565.67 1545.21   1
  -1  -4   0 85170.1 7147.23   1
  -1  -4  -1 20921.1 3009.48   1
  -1   4  -1 16154.4 4142.49   1
  -1   4  -2 127388. 12037.6   1
  -1   4  -3 104400. 12020.9   1
  -1   4  -4 24939.3 5998.36   1
  -1   4  -5 128030. 12802.5   1
  -1   4  -6 432987. 23334.6   1
  -1   4  -7 6000.90 2349.22   1
  -1   4  -8 105996. 14060.0   1
  -1   4  -9 8003.79 3467.23   1
  -1  -4  -9 1015.78 491.442   1
  -1  -4 -10 10319.8 2341.25   1
  -1   4 -10 23126.1 5883.68   1
  -1   4 -11 16847.0 5267.55   1
  -1  -4 -11 10271.5 2390.69   1
   1   5 -11 1863.97 1518.88   1
  -1  -5  11 188.910 1633.38   1
  -1  -5  10 90624.3 13667.3   1
   1   5 -10 99198.8 13832.2   1
  -1  -5   9 48363.7 8990.45   1
   1   5  -9 55080.3 9372.36   1
  -1  -5   8 29928.0 7429.87   1
   1   5  -8 30455.8 7650.16   1
  -1  -5   7 3214.89 2171.00   1
   1   5  -7 1354.38 1541.23   1
  -1  -5   6 15841.2 3954.51   1
   1   5  -6 18786.2 4741.24   1
  -1  -5   5 6536.05 2672.54   1
   1   5  -5 7061.92 2801.88   1
   1   5  -4 223871. 15610.9   1
  -1  -5   4 241515. 15851.0   1
   1   5  -3 5930.20 2296.16   1
  -1  -5   3 4830.66 1825.20   1
  -1  -5   2 177055. 12594.4   1
  -1   5   1 128880. 11717.3   1
  -1  -5   1 122541. 9601.58   1
  -1   5   0 88406.0 10208.4   1
  -1  -5   0 86554.2 7763.78   1
  -1   5  -1 74904.0 10291.5   1
  -1  -5  -1 84605.7 7168.90   1
  -1   5  -2 406315. 22949.8   1
  -1  -5  -2 395188. 14499.6   1
  -1   5  -3 91877.5 10891.1   1
  -1  -5  -3 94703.9 6476.40   1
  -1   5  -4 10537.1 3264.27   1
  -1  -5  -4 4615.55 729.870   1
  -1   5  -5 983.154 1716.23   1
  -1  -5  -5 20395.2 4558.26   1
  -1   5  -6 54370.6 9449.15   1
  -1   5  -7 90582.2 12501.2   1
  -1   5  -8 2508.37 3341.87   1
  -1   5  -9 98113.9 12817.8   1
  -1   5 -10 77611.6 11946.5   1
  -1   5 -11 59661.4 10761.3   1
   1   6 -10 15237.9 5543.34   1
  -1  -6  10 11766.1 4620.46   1
  -1  -6   9 79278.3 13013.2   1
   1   6  -9 87207.1 13116.0   1
  -1  -6   8 80298.3 11782.3   1
   1   6  -8 74170.7 11381.0   1
  -1   6   7 20677.3 3187.81   1
  -1  -6   7 30969.4 7233.31   1
   1   6  -7 33157.2 7101.85   1
  -1   6   6 29831.1 4402.54   1
  -1  -6   6 33878.2 7560.44   1
   1   6  -6 38702.7 7499.39   1
  -1  -6   5 89277.6 11054.7   1
  -1   6   5 93121.5 8630.46   1
   1   6  -5 102664. 11278.2   1
  -1  -6   4 781.318 1705.28   1
   1   6  -4-153.849 885.057   1
  -1   6   4 1834.88 1907.85   1
  -1   6   3 53282.4 7479.12   1
   1   6  -3 55991.6 8053.43   1
  -1  -6   3 57591.9 7535.20   1
  -1  -6   2 15022.4 3700.08   1
  -1   6   2 11586.1 3567.84   1
   1   6  -2 9388.28 3228.42   1
  -1   6   1 54685.0 14944.4   1
  -1  -6   1 2258.31 1904.53   1
  -1   6   0 35752.7 7217.60   1
  -1  -6   0 107452. 16591.4   1
  -1   6  -1 235322. 15908.2   1
  -1  -6  -1 211617. 12564.3   1
  -1   6  -2 111032. 11823.5   1
  -1  -6  -2 124798. 8827.75   1
  -1   6  -3 68750.7 10032.7   1
  -1  -6  -3 68256.0 6225.50   1
  -1  -6  -4 345.159 377.163   1
  -1   6  -4-207.641 716.548   1
  -1  -6  -5 5831.61 1713.06   1
  -1   6  -5 5471.62 3077.08   1
  -1   6  -6 78856.4 11446.8   1
  -1  -6  -6 63303.5 4605.15   1
  -1   6  -7 137002. 14965.6   1
  -1   6  -8 1507.31 1122.08   1
  -1   6  -9 9489.76 4702.10   1
  -1   6 -10 697.002 1450.17   1
   1   7  -8 83.4869 948.157   1
  -1  -7   8 453.127 914.933   1
  -1   7   7-522.188 3105.79   1
   1   7  -7-105.895 849.855   1
  -1  -7   7-422.599 2129.80   1
  -1   7   6 7327.13 2060.01   1
  -1  -7   6 6955.98 3118.13   1
   1   7  -6 5479.04 2046.71   1
  -1  -7   5 47784.1 9003.73   1
  -1   7   5 38621.1 5630.31   1
   1   7  -5 54903.6 8792.47   1
  -1  -7   4 175305. 17116.3   1
  -1   7   4 167428. 12809.3   1
   1   7  -4 204727. 16395.2   1
  -1  -7   3 53713.8 8722.56   1
   1   7  -3 49261.7 7606.08   1
  -1   7   3 37016.8 6111.59   1
  -1  -7   2 394.966 551.704   1
   1   7  -2-170.545 1344.44   1
  -1   7   2-726.317 1951.51   1
  -1  -7   1 11275.7 3532.86   1
  -1   7   1 7834.73 3012.99   1
  -1  -7   0 21102.4 5786.15   1
  -1   7   0 2759.78 2088.06   1
  -1   7  -1 64302.7 10311.2   1
  -1  -7  -1 134639. 13266.0   1
  -1  -7  -2-60.5964 1748.30   1
  -1   7  -2 294.525 1441.47   1
  -1   7  -3 41331.1 8329.06   1
  -1  -7  -3 43139.1 5956.38   1
  -1   7  -4 85240.9 12159.3   1
  -1  -7  -4 93437.6 8104.44   1
  -1  -7  -5 11441.1 2528.33   1
  -1   7  -5 14576.5 5173.63   1
  -1  -7  -6-315.698 789.605   1
  -1   7  -6-1467.25 2268.46   1
  -1  -7  -7-84.9583 600.491   1
  -1   7  -7-555.073 2004.64   1
  -1   7  -8 38357.9 9038.79   1
   1   8  -6 161.615 592.315   1
  -1  -8   6-1206.37 2642.76   1
  -1   8   6 2209.46 1774.84   1
  -1   8   5 18181.3 4137.92   1
   1   8  -5 19014.9 4895.91   1
  -1  -8   5 14410.0 5788.69   1
  -1   8   4 7898.03 2978.87   1
   1   8  -4 6751.75 2862.23   1
  -1  -8   4 9018.25 4518.77   1
  -1   8   3 19162.0 4590.53   1
   1   8  -3 22081.6 5349.20   1
  -1  -8   3 18834.0 5490.95   1
  -1  -8   2 1101.21 2492.44   1
   1   8  -2 283.855 54.0000   1
  -1   8   2-1394.67 728.625   1
  -1  -8   1 36879.1 9615.93   1
  -1   8   1 27588.8 5878.26   1
  -1  -8   0 224288. 17413.6   1
  -1   8   0 234217. 18181.0   1
  -1  -8  -1 503.074 1373.71   1
  -1   8  -1-519.275 1177.76   1
  -1  -8  -2 11199.1 3872.19   1
  -1   8  -2 8397.97 3881.64   1
  -1   8  -3 2626.00 2257.59   1
  -1  -8  -3-846.105 1455.78   1
  -1   8  -4 4916.18 3171.65   1
  -1  -8  -4 5439.90 2316.94   1
  -1   8  -5 360.205 1287.63   1
  -1  -8  -5 4375.75 2634.79   1
  -1   8  -6 64271.4 11935.1   1
  -1  -8  -6 58578.3 6103.84   1
  -1   9   3 18.4239 1632.71   1
   1   9  -3-6516.05 5472.77   1
  -1  -9   3-9221.79 6287.24   1
  -1   9   2 90712.2 11299.0   1
  -1  -9   2 69599.0 12274.2   1
   1   9  -2 85718.5 11351.4   1
  -1   9   1 25804.1 5653.83   1
  -1  -9   1 20370.9 5687.98   1
  -1   9   0 4217.93 2027.26   1
  -1  -9   0-1828.98 2209.76   1
  -1   9  -1 10155.4 3706.62   1
  -1  -9  -1 7529.65 3204.90   1
  -1   9  -2 34.4767 1319.30   1
  -1  -9  -2 4077.24 3871.65   1
  -1   9  -3 9281.93 3889.00   1
  -1  -9  -3 6907.73 2786.16   1
  -2   0 -11 2281.05 1397.39   1
  -2   0 -12 83721.6 11883.8   1
  -2   1 -10 4069.52 2782.41   1
  -2   1 -11 35128.9 7929.52   1
  -2  -1 -11 31751.5 6805.97   1
  -2   1 -12 69069.0 10297.3   1
  -2  -1 -12 60374.1 9270.69   1
  -2  -2  12 1330.04 2079.40   1
  -2   2  -9 13569.8 4843.58   1
  -2   2 -10 291.619 1657.33   1
  -2   2 -11 47960.2 9148.00   1
  -2   2 -12 48069.8 8869.62   1
  -2  -2 -12 31932.7 6741.05   1
  -2   3  -8 2753.52 3829.76   1
  -2   3  -9 156195. 18592.3   1
  -2   3 -10 5314.68 3467.03   1
  -2   3 -11 21239.1 6409.87   1
  -2  -4  11 14641.7 5175.31   1
  -2   4  -7 321.736 968.597   1
  -2   4  -8 112056. 15147.5   1
  -2   4  -9 20528.0 6513.02   1
  -2   4 -10 25188.9 7118.30   1
  -2   4 -11 62817.1 10656.8   1
  -2  -5  10 5298.21 3057.01   1
  -2   5  -5 156971. 21499.2   1
  -2   5  -6 2139.74 1681.70   1
  -2   5  -7 106439. 15121.8   1
  -2   5  -8 12012.2 5578.70   1
  -2   5  -9-976.196 3320.99   1
  -2   5 -10 32845.1 7604.70   1
  -2  -6   9 65155.9 10921.9   1
  -2  -6   8 57737.7 9656.10   1
  -2   6  -3 276.216 452.787   1
  -2   6  -4 27633.8 7432.20   1
  -2   6  -5 17473.7 6442.71   1
  -2   6  -6 16540.6 7065.99   1
  -2   6  -7 28115.6 8018.38   1
  -2   6  -8 41182.9 9680.97   1
  -2   6  -9 164292. 18629.5   1
  -2  -7   8 284.435 998.848   1
  -2  -7   7-330.638 2556.94   1
  -2  -7   6 51940.9 8877.81   1
  -2   7  -1 6207.70 3773.64   1
  -2   7  -2 106899. 15541.5   1
  -2   7  -3 29556.9 8224.14   1
  -2   7  -4-1263.21 3247.91   1
  -2   7  -5 8193.02 4446.56   1
  -2   7  -6 41166.8 10256.4   1
  -2   7  -7 13808.7 12491.7   1
  -2  -8   5 1768.28 2330.24   1
  -2  -8   4 3228.03 3055.90   1
  -2   8   3 16316.0 5597.60   1
  -2  -8   3 13209.0 4376.30   1
  -2   8   2 37328.9 8726.41   1
  -2   8   1-103.546 1911.04   1
  -2   8   0 11673.3 5900.16   1
  -2   8  -1 95.8517 2519.92   1
  -2   8  -2 18232.5 7225.96   1
  -2   8  -3 6349.65 4127.12   1
  -2   8  -4 11045.5 5449.62   1
  -2   8  -5 7005.77 3940.87   1
  -2   9   1 10632.3 4558.77   1
  -2  -9   1 12816.9 4461.97   1
  -2   9   0 4802.99 3909.50   1
  -2  -9   0-181.564 1114.13   1
  -2   9  -1-587.985 1918.36   1
  -2  -9  -1 1115.36 1774.31   1
   0   0   0    0.00    0.00   0
TITL Dat_p5_cr3_s1 in P2(1)/c
REM P2(1)/c (#14 in standard setting)
CELL 0.28960   4.463603   6.698590   9.214543  90.0000  90.7571  90.0000
ZERR    1.00   0.007998   0.000881   0.001141   0.0000   0.0328   0.0000
LATT  1
SYMM -x, y+1/2,-z+1/2
SFAC B O Si Ca
UNIT 1.00 1.00 1.00 1.00
TREF
HKLF 4
END
;
_shelx_hkl_checksum              6287
loop_
_space_group_symop_operation_xyz
'x, y, z'
'-x, y+1/2, -z+1/2'
'-x, -y, -z'
'x, -y-1/2, z-1/2'
loop_
_atom_site_label
_atom_site_type_symbol
_atom_site_fract_x
_atom_site_fract_y
_atom_site_fract_z
_atom_site_U_iso_or_equiv
_atom_site_adp_type
_atom_site_occupancy
_atom_site_site_symmetry_order
_atom_site_calc_flag
_atom_site_refinement_flags_posn
Ca1 Ca -0.0002(10) 0.62971(18) 0.18102(14) 0.024(2) Uani 1 1 d .
Si1 Si 0.5314(13) 0.3221(3) 0.06634(18) 0.018(3) Uani 1 1 d .
B1 B 0.592(7) 0.0574(12) -0.1516(9) 0.0061(16) Uiso 1 1 d .
O1 O 0.265(4) 0.4622(6) 0.0157(5) 0.032(9) Uani 1 1 d .
O2 O 0.728(4) 0.1767(7) -0.0378(5) 0.024(7) Uani 1 1 d .
O3 O 0.712(4) 0.3629(6) 0.2155(5) 0.032(9) Uani 1 1 d .
O4 O 0.309(3) 0.1405(6) 0.1313(5) 0.022(8) Uani 1 1 d .
O5 O 0.268(4) 0.0794(8) -0.1601(5) 0.015(10) Uani 1 1 d D
H H 0.088(19) 0.039(19) -0.13(2) 0.12(8) Uiso 1 1 d D
loop_
_atom_site_aniso_label
_atom_site_aniso_U_11
_atom_site_aniso_U_22
_atom_site_aniso_U_33
_atom_site_aniso_U_23
_atom_site_aniso_U_13
_atom_site_aniso_U_12
Ca1 0.058(7) 0.0088(7) 0.0048(7) -0.0002(4) -0.0088(12) -0.0008(10)
Si1 0.040(9) 0.0094(9) 0.0036(8) -0.0004(6) -0.0084(14) 0.0005(15)
O1 0.08(3) 0.004(2) 0.007(2) 0.0001(14) -0.009(4) 0.000(3)
O2 0.06(2) 0.008(2) 0.0052(19) -0.0009(15) -0.012(4) 0.004(4)
O3 0.09(3) 0.009(2) 0.002(2) -0.0001(14) -0.002(4) -0.003(4)
O4 0.05(2) 0.0055(19) 0.006(2) 0.0001(14) -0.010(4) 0.003(4)
O5 0.03(3) 0.009(2) 0.005(2) 0.0008(15) -0.007(5) -0.003(4)
loop_
_atom_type_symbol
_atom_type_description
_atom_type_scat_dispersion_real
_atom_type_scat_dispersion_imag
_atom_type_scat_source
O O 0.0056 0.0036 'International Tables Vol C Tables 4.2.6.8 and 6.1.1.4'
Si Si 0.0522 0.0431 'International Tables Vol C Tables 4.2.6.8 and 6.1.1.4'
B B 0.0004 0.0004 'International Tables Vol C Tables 4.2.6.8 and 6.1.1.4'
Ca Ca 0.1611 0.1926 'International Tables Vol C Tables 4.2.6.8 and 6.1.1.4'
H H 0.0000 0.0000 'International Tables Vol C Tables 4.2.6.8 and 6.1.1.4'
loop_
_geom_angle_atom_site_label_1
_geom_angle_atom_site_label_2
_geom_angle_atom_site_label_3
_geom_angle
_geom_angle_site_symmetry_1
_geom_angle_site_symmetry_3
O2 Ca1 O3 150.9(2) 3_665 1_455
O2 Ca1 O4 142.3(2) 3_665 2
O3 Ca1 O4 63.3(3) 1_455 2
O2 Ca1 O3 61.9(3) 3_665 2_655
O3 Ca1 O3 146.33(17) 1_455 2_655
O4 Ca1 O3 90.3(4) 2 2_655
O2 Ca1 O1 88.1(4) 3_665 3_565
O3 Ca1 O1 66.1(3) 1_455 3_565
O4 Ca1 O1 108.2(5) 2 3_565
O3 Ca1 O1 146.6(2) 2_655 3_565
O2 Ca1 O1 65.9(3) 3_665 .
O3 Ca1 O1 90.4(4) 1_455 .
O4 Ca1 O1 151.8(2) 2 .
O3 Ca1 O1 109.5(6) 2_655 .
O1 Ca1 O1 65.8(8) 3_565 .
O2 Ca1 O5 75.1(5) 3_665 3_565
O3 Ca1 O5 113.1(6) 1_455 3_565
O4 Ca1 O5 73.1(3) 2 3_565
O3 Ca1 O5 74.9(5) 2_655 3_565
O1 Ca1 O5 84.0(4) 3_565 3_565
O1 Ca1 O5 130.4(2) . 3_565
O2 Ca1 O5 116.1(6) 3_665 4_566
O3 Ca1 O5 73.9(5) 1_455 4_566
O4 Ca1 O5 81.5(4) 2 4_566
O3 Ca1 O5 82.2(4) 2_655 4_566
O1 Ca1 O5 127.0(2) 3_565 4_566
O1 Ca1 O5 81.7(4) . 4_566
O5 Ca1 O5 145.30(19) 3_565 4_566
O2 Ca1 B1 169.9(6) 3_665 4_466
O3 Ca1 B1 32.2(3) 1_455 4_466
O4 Ca1 B1 31.3(3) 2 4_466
O3 Ca1 B1 118.0(3) 2_655 4_466
O1 Ca1 B1 89.0(5) 3_565 4_466
O1 Ca1 B1 121.4(4) . 4_466
O5 Ca1 B1 95.0(5) 3_565 4_466
O5 Ca1 B1 73.1(5) 4_566 4_466
O2 Ca1 B1 30.9(2) 3_665 3_665
O3 Ca1 B1 174.2(6) 1_455 3_665
O4 Ca1 B1 117.5(4) 2 3_665
O3 Ca1 B1 30.9(2) 2_655 3_665
O1 Ca1 B1 117.8(3) 3_565 3_665
O1 Ca1 B1 87.6(5) . 3_665
O5 Ca1 B1 72.2(5) 3_565 3_665
O5 Ca1 B1 100.4(4) 4_566 3_665
B1 Ca1 B1 147.9(3) 4_466 3_665
O2 Ca1 Si1 123.7(2) 3_665 1_455
O3 Ca1 Si1 29.55(19) 1_455 1_455
O4 Ca1 Si1 82.2(3) 2 1_455
O3 Ca1 Si1 172.2(4) 2_655 1_455
O1 Ca1 Si1 36.6(2) 3_565 1_455
O1 Ca1 Si1 78.3(4) . 1_455
O5 Ca1 Si1 100.7(4) 3_565 1_455
O5 Ca1 Si1 98.8(3) 4_566 1_455
B1 Ca1 Si1 55.5(3) 4_466 1_455
B1 Ca1 Si1 154.2(2) 3_665 1_455
O2 Ca1 Si1 29.8(2) 3_665 3_665
O3 Ca1 Si1 125.4(2) 1_455 3_665
O4 Ca1 Si1 171.3(2) 2 3_665
O3 Ca1 Si1 81.5(3) 2_655 3_665
O1 Ca1 Si1 77.9(4) 3_565 3_665
O1 Ca1 Si1 36.2(2) . 3_665
O5 Ca1 Si1 101.8(3) 3_565 3_665
O5 Ca1 Si1 100.1(4) 4_566 3_665
B1 Ca1 Si1 157.3(2) 4_466 3_665
B1 Ca1 Si1 53.8(3) 3_665 3_665
Si1 Ca1 Si1 105.88(14) 1_455 3_665
O1 Si1 O3 121.2(4) . .
O1 Si1 O2 126.1(4) . .
O3 Si1 O2 109.7(7) . .
O1 Si1 O4 95.1(7) . .
O3 Si1 O4 96.3(4) . .
O2 Si1 O4 95.8(5) . .
O1 Si1 O1 77.8(9) . 3_665
O3 Si1 O1 88.5(5) . 3_665
O2 Si1 O1 87.5(5) . 3_665
O4 Si1 O1 172.9(7) . 3_665
O1 Si1 Si1 42.8(5) . 3_665
O3 Si1 Si1 106.6(2) . 3_665
O2 Si1 Si1 108.4(3) . 3_665
O4 Si1 Si1 137.9(6) . 3_665
O1 Si1 Si1 35.0(5) 3_665 3_665
O1 Si1 Ca1 101.9(4) . 1_655
O3 Si1 Ca1 43.1(3) . 1_655
O2 Si1 Ca1 103.4(6) . 1_655
O4 Si1 Ca1 138.9(2) . 1_655
O1 Si1 Ca1 45.4(3) 3_665 1_655
Si1 Si1 Ca1 68.49(17) 3_665 1_655
O1 Si1 Ca1 103.4(4) . 3_665
O3 Si1 Ca1 105.8(6) . 3_665
O2 Si1 Ca1 42.6(3) . 3_665
O4 Si1 Ca1 137.3(3) . 3_665
O1 Si1 Ca1 45.1(3) 3_665 3_665
Si1 Si1 Ca1 69.19(17) 3_665 3_665
Ca1 Si1 Ca1 74.12(14) 1_655 3_665
O1 Si1 Ca1 37.2(2) . 3_565
O3 Si1 Ca1 157.8(5) . 3_565
O2 Si1 Ca1 92.3(4) . 3_565
O4 Si1 Ca1 83.9(4) . 3_565
O1 Si1 Ca1 89.6(4) 3_665 3_565
Si1 Si1 Ca1 61.81(17) 3_665 3_565
Ca1 Si1 Ca1 130.30(9) 1_655 3_565
Ca1 Si1 Ca1 88.17(11) 3_665 3_565
O1 Si1 Ca1 35.8(2) . .
O3 Si1 Ca1 88.5(5) . .
O2 Si1 Ca1 161.5(4) . .
O4 Si1 Ca1 84.7(4) . .
O1 Si1 Ca1 90.1(4) 3_665 .
Si1 Si1 Ca1 61.66(18) 3_665 .
Ca1 Si1 Ca1 87.76(12) 1_655 .
Ca1 Si1 Ca1 130.85(9) 3_665 .
Ca1 Si1 Ca1 69.38(13) 3_565 .
O1 Si1 Ca1 152.9(2) . 2_645
O3 Si1 Ca1 34.3(3) . 2_645
O2 Si1 Ca1 81.0(4) . 2_645
O4 Si1 Ca1 80.9(4) . 2_645
O1 Si1 Ca1 105.9(5) 3_665 2_645
Si1 Si1 Ca1 135.5(3) 3_665 2_645
Ca1 Si1 Ca1 67.03(11) 1_655 2_645
Ca1 Si1 Ca1 97.3(2) 3_665 2_645
Ca1 Si1 Ca1 162.63(10) 3_565 2_645
Ca1 Si1 Ca1 117.20(10) . 2_645
O1 Si1 Ca1 84.5(4) . 2_545
O3 Si1 Ca1 80.4(5) . 2_545
O2 Si1 Ca1 122.2(3) . 2_545
O4 Si1 Ca1 27.4(2) . 2_545
O1 Si1 Ca1 150.3(3) 3_665 2_545
Si1 Si1 Ca1 123.2(3) 3_665 2_545
Ca1 Si1 Ca1 117.71(10) 1_655 2_545
Ca1 Si1 Ca1 164.57(6) 3_665 2_545
Ca1 Si1 Ca1 90.5(2) 3_565 2_545
Ca1 Si1 Ca1 62.32(11) . 2_545
Ca1 Si1 Ca1 79.84(11) 2_645 2_545
O4 B1 O3 110.0(15) 3_655 4_565
O4 B1 O2 107.2(14) 3_655 .
O3 B1 O2 104.7(15) 4_565 .
O4 B1 O5 114.4(17) 3_655 .
O3 B1 O5 107.2(13) 4_565 .
O2 B1 O5 113.0(14) . .
O4 B1 Ca1 55.1(9) 3_655 4_665
O3 B1 Ca1 55.2(9) 4_565 4_665
O2 B1 Ca1 112.9(18) . 4_665
O5 B1 Ca1 133.7(6) . 4_665
O4 B1 Ca1 121.0(19) 3_655 3_665
O3 B1 Ca1 52.5(8) 4_565 3_665
O2 B1 Ca1 52.2(8) . 3_665
O5 B1 Ca1 124.6(6) . 3_665
Ca1 B1 Ca1 81.2(8) 4_665 3_665
Si1 O1 Si1 102.2(9) . 3_665
Si1 O1 Ca1 117.6(3) . 3_565
Si1 O1 Ca1 98.0(2) 3_665 3_565
Si1 O1 Ca1 119.9(3) . .
Si1 O1 Ca1 98.7(2) 3_665 .
Ca1 O1 Ca1 114.2(8) 3_565 .
B1 O2 Si1 122.2(16) . .
B1 O2 Ca1 96.9(8) . 3_665
Si1 O2 Ca1 107.7(3) . 3_665
B1 O3 Si1 126.9(16) 4_566 .
B1 O3 Ca1 92.6(8) 4_566 1_655
Si1 O3 Ca1 107.3(3) . 1_655
B1 O3 Ca1 96.6(8) 4_566 2_645
Si1 O3 Ca1 121.8(3) . 2_645
Ca1 O3 Ca1 107.0(7) 1_655 2_645
B1 O4 Si1 122.8(16) 3_655 .
B1 O4 Ca1 93.6(10) 3_655 2_545
Si1 O4 Ca1 132.3(3) . 2_545
B1 O5 Ca1 127.5(7) . 3_565
B1 O5 Ca1 118.2(6) . 4_565
Ca1 O5 Ca1 101.1(6) 3_565 4_565
B1 O5 H 148(10) . .
Ca1 O5 H 79(9) 3_565 .
Ca1 O5 H 64(10) 4_565 .
loop_
_geom_bond_atom_site_label_1
_geom_bond_atom_site_label_2
_geom_bond_distance
_geom_bond_site_symmetry_2
Ca1 O2 2.223(10) 3_665
Ca1 O3 2.227(10) 1_455
Ca1 O4 2.227(12) 2
Ca1 O3 2.230(11) 2_655
Ca1 O1 2.238(10) 3_565
Ca1 O1 2.243(11) .
Ca1 O5 2.294(11) 3_565
Ca1 O5 2.345(10) 4_566
Ca1 B1 2.71(2) 4_466
Ca1 B1 2.79(2) 3_665
Ca1 Si1 3.110(6) 1_455
Ca1 Si1 3.131(6) 3_665
Si1 O1 1.580(14) .
Si1 O3 1.607(10) .
Si1 O2 1.632(11) .
Si1 O4 1.685(11) .
Si1 O1 1.871(11) 3_665
Si1 Si1 2.691(4) 3_665
Si1 Ca1 3.110(6) 1_655
Si1 Ca1 3.131(6) 3_665
Si1 Ca1 3.283(6) 3_565
Si1 Ca1 3.366(5) 2_645
Si1 Ca1 3.585(6) 2_545
B1 O4 1.409(14) 3_655
B1 O3 1.445(18) 4_565
B1 O2 1.446(16) .
B1 O5 1.45(3) .
B1 Ca1 2.71(2) 4_665
B1 Ca1 2.79(2) 3_665
O1 Si1 1.871(11) 3_665
O1 Ca1 2.238(10) 3_565
O2 Ca1 2.223(10) 3_665
O3 B1 1.445(18) 4_566
O3 Ca1 2.227(10) 1_655
O3 Ca1 2.230(10) 2_645
O4 B1 1.409(14) 3_655
O4 Ca1 2.227(12) 2_545
O5 Ca1 2.294(11) 3_565
O5 Ca1 2.345(10) 4_565
O5 H 0.90(2) .
