#------------------------------------------------------------------------------
#$Date: 2019-11-24 06:02:49 +0200 (Sun, 24 Nov 2019) $
#$Revision: 236893 $
#$URL: file:///home/coder/svn-repositories/cod/cif/4/34/98/4349848.cif $
#------------------------------------------------------------------------------
#
# This file is available in the Crystallography Open Database (COD),
# http://www.crystallography.net/
#
# All data on this site have been placed in the public domain by the
# contributors.
#
data_4349848
loop_
_publ_author_name
'Gorelova, Liudmila A.'
'Pakhomova, Anna S.'
'Aprilis, Georgios'
'Dubrovinsky, Leonid S.'
'Krivovichev, Sergey V.'
_publ_section_title
;
 Pentacoordinated silicon in the high-pressure modification of datolite,
 CaBSiO4(OH)
;
_journal_issue                   7
_journal_name_full               'Inorganic Chemistry Frontiers'
_journal_page_first              1653
_journal_paper_doi               10.1039/C8QI00257F
_journal_volume                  5
_journal_year                    2018
_chemical_formula_sum            'B Ca H O5 Si'
_chemical_formula_weight         159.99
_space_group_crystal_system      monoclinic
_space_group_IT_number           14
_space_group_name_Hall           '-P 2ybc'
_space_group_name_H-M_alt        'P 1 21/c 1'
_atom_sites_solution_hydrogens   difmap
_audit_creation_method           SHELXL-2014/7
_audit_update_record
;
2018-03-21 deposited with the CCDC.
2018-05-04 downloaded from the CCDC.
;
_cell_angle_alpha                90
_cell_angle_beta                 90.696(18)
_cell_angle_gamma                90
_cell_formula_units_Z            4
_cell_length_a                   4.4839(18)
_cell_length_b                   7.2240(10)
_cell_length_c                   9.3484(6)
_cell_measurement_reflns_used    1403
_cell_measurement_temperature    298(2)
_cell_measurement_theta_max      17.242
_cell_measurement_theta_min      1.496
_cell_volume                     302.79(13)
_computing_structure_refinement  'SHELXL-2014/7 (Sheldrick, 2014)'
_diffrn_ambient_temperature      298(2)
_diffrn_measured_fraction_theta_full 0.504
_diffrn_measured_fraction_theta_max 0.293
_diffrn_measurement_device_type
'esperanto-CrysAlisPro-abstract goniometer imported esperanto images'
_diffrn_radiation_wavelength     0.2984
_diffrn_reflns_av_R_equivalents  0.0261
_diffrn_reflns_av_unetI/netI     0.0346
_diffrn_reflns_Laue_measured_fraction_full 0.504
_diffrn_reflns_Laue_measured_fraction_max 0.293
_diffrn_reflns_limit_h_max       4
_diffrn_reflns_limit_h_min       -5
_diffrn_reflns_limit_k_max       13
_diffrn_reflns_limit_k_min       -14
_diffrn_reflns_limit_l_max       17
_diffrn_reflns_limit_l_min       -18
_diffrn_reflns_number            1403
_diffrn_reflns_point_group_measured_fraction_full 0.504
_diffrn_reflns_point_group_measured_fraction_max 0.293
_diffrn_reflns_theta_full        10.314
_diffrn_reflns_theta_max         17.242
_diffrn_reflns_theta_min         1.496
_exptl_absorpt_coefficient_mu    1.195
_exptl_crystal_colour            colorless
_exptl_crystal_density_diffrn    3.510
_exptl_crystal_density_meas      ?
_exptl_crystal_density_method    none
_exptl_crystal_description       isosymmetric
_exptl_crystal_F_000             320
_exptl_crystal_size_max          0.010
_exptl_crystal_size_mid          0.010
_exptl_crystal_size_min          0.005
_refine_diff_density_max         1.062
_refine_diff_density_min         -1.262
_refine_diff_density_rms         0.180
_refine_ls_extinction_method     none
_refine_ls_goodness_of_fit_ref   0.895
_refine_ls_hydrogen_treatment    refall
_refine_ls_matrix_type           full
_refine_ls_number_parameters     77
_refine_ls_number_reflns         726
_refine_ls_number_restraints     1
_refine_ls_restrained_S_all      0.894
_refine_ls_R_factor_all          0.0593
_refine_ls_R_factor_gt           0.0547
_refine_ls_shift/su_max          0.000
_refine_ls_shift/su_mean         0.000
_refine_ls_structure_factor_coef Fsqd
_refine_ls_weighting_details
'w=1/[\s^2^(Fo^2^)+(0.1527P)^2^] where P=(Fo^2^+2Fc^2^)/3'
_refine_ls_weighting_scheme      calc
_refine_ls_wR_factor_gt          0.1475
_refine_ls_wR_factor_ref         0.1594
_reflns_Friedel_coverage         0.000
_reflns_number_gt                634
_reflns_number_total             726
_reflns_threshold_expression     'I > 2\s(I)'
_cod_data_source_file            c8qi00257f2.cif
_cod_data_source_block           shelx_CCDC2
_cod_depositor_comments
;
The following automatic conversions were performed:

data item '_exptl_crystal_density_meas' value 'none' was changed to
'?' -- the value is perceived as not measured.

Automatic conversion script
Id: cif_fix_values 6909 2019-04-08 15:41:33Z antanas 
;
_cod_original_sg_symbol_H-M      'P 21/c'
_cod_database_code               4349848
_shelx_shelxl_version_number     2014/7
_shelx_space_group_comment
;
The symmetry employed for this shelxl refinement is uniquely defined
by the following loop, which should always be used as a source of
symmetry information in preference to the above space-group names.
They are only intended as comments.
;
_shelx_res_file
;

    shelx.res created by SHELXL-2014/7


TITL Enst_s0 in P2(1)/c
REM P2(1)/c (#14 in standard setting)
CELL 0.29840   4.483937   7.223996   9.348422  90.0000  90.6965  90.0000
ZERR    4.00   0.001791   0.000961   0.000644   0.0000   0.0180   0.0000
LATT  1
SYMM -x, y+1/2,-z+1/2
SFAC O Si B Ca H
UNIT 20.00 4.00 4.00 4.00 4.00

OMIT    -1   1   7
OMIT     0   1   3
OMIT    -2   6   8
OMIT    -1   5  11
OMIT     1   7  11
OMIT     4  12   0
OMIT     4   7   6
OMIT    -2   6   7
OMIT     0  13   1
OMIT     0   3   1
OMIT     0   2   1
OMIT    -1   3  14

L.S. 20
ACTA
BOND $H
DFIX 0.90 0.02 H O5
TEMP 25.0
FMAP 2
PLAN 25
REM TWIN 1 0 0 0 1 0 0 0 -1
REM EXTI    0.000000
WGHT    0.152700
FVAR       8.97812
CA1   4    0.004771    0.610393    0.170010    11.00000    0.01405    0.01261 =
         0.00801    0.00028   -0.00631   -0.00040
SI1   2    0.488604    0.280471    0.080653    11.00000    0.01283    0.01178 =
         0.00685   -0.00026   -0.00742    0.00015
B1    3    0.583829    0.082725   -0.155202    11.00000    0.00862    0.01099 =
         0.00728    0.00066   -0.00380    0.00118
O1    1    0.251924    0.422951    0.030005    11.00000    0.01358    0.01400 =
         0.00857    0.00071   -0.00576    0.00250
O2    1    0.708118    0.191789   -0.037049    11.00000    0.01375    0.01217 =
         0.00665   -0.00038   -0.00619   -0.00206
O3    1    0.703231    0.341344    0.213305    11.00000    0.01226    0.01444 =
         0.00570    0.00004   -0.00624   -0.00153
O4    1    0.300623    0.102678    0.140390    11.00000    0.01769    0.01092 =
         0.00923   -0.00022   -0.00328    0.00045
O5    1    0.259049    0.090045   -0.160883    11.00000    0.00811    0.01634 =
         0.00888    0.00156   -0.00704    0.00017
H     5    0.208361    0.043136   -0.074915    11.00000    0.00248

HKLF 4

REM  Enst_s0 in P2(1)/c
REM R1 =  0.0547 for     634 Fo > 4sig(Fo)  and  0.0593 for all     726 data
REM     77 parameters refined using      1 restraints

END

WGHT      0.1143      0.0000

REM Highest difference peak  1.062,  deepest hole -1.262,  1-sigma level  0.180
Q1    1   0.1842  0.6680  0.1580  11.00000  0.05    1.06
Q2    1  -0.1666  0.6639  0.1788  11.00000  0.05    1.01
Q3    1   0.1933  0.5579  0.1618  11.00000  0.05    0.88
Q4    1   0.3067  0.3446  0.0907  11.00000  0.05    0.81
Q5    1  -0.1824  0.5546  0.1792  11.00000  0.05    0.78
Q6    1   0.6647  0.2168  0.0785  11.00000  0.05    0.61
Q7    1   0.0139  0.7041  0.1716  11.00000  0.05    0.61
Q8    1  -0.0387  0.5173  0.1720  11.00000  0.05    0.61
Q9    1   0.2869  0.2196  0.0870  11.00000  0.05    0.60
Q10   1   0.2941  0.0043 -0.1423  11.00000  0.05    0.58
Q11   1   0.4202  0.1625  0.1400  11.00000  0.05    0.56
Q12   1   0.7022  0.3367  0.0607  11.00000  0.05    0.54
Q13   1  -0.0465  0.6096  0.2301  11.00000  0.05    0.54
Q14   1   0.1732  0.3876  0.0901  11.00000  0.05    0.53
Q15   1   0.5280  0.2805  0.2305  11.00000  0.05    0.52
Q16   1   0.4570 -0.0272 -0.1388  11.00000  0.05    0.52
Q17   1   0.2278  0.1093  0.1810  11.00000  0.05    0.51
Q18   1   0.9160  0.2782  0.1939  11.00000  0.05    0.49
Q19   1   0.6760  0.2794 -0.0505  11.00000  0.05    0.48
Q20   1   0.6707  0.3340  0.2651  11.00000  0.05    0.48
Q21   1   0.4056  0.1556 -0.1474  11.00000  0.05    0.48
Q22   1   0.0459  0.6136  0.1069  11.00000  0.05    0.45
Q23   1   0.8328  0.3815  0.1969  11.00000  0.05    0.44
Q24   1   0.1907  0.0978 -0.1098  11.00000  0.05    0.43
Q25   1   0.0340  0.4423  0.1691  11.00000  0.05    0.42
;
_shelx_res_checksum              32966
_shelx_hkl_file
;
   0   0   3 10.1925 24.5647   1
   0   0  -3 4.00901 15.6800   1
   0   0   4 122404. 1537.26   1
   0   0  -4 127159. 1590.44   1
   0   0   5-9.42002 32.1654   1
   0   0  -5-2.78920 34.7615   1
   0   0  -6 178696. 2322.11   1
   0   0   6 179290. 2335.20   1
   0   0   7 18.1982 54.7244   1
   0   0  -7 20.6659 45.2166   1
   0   0  -8 126811. 2349.96   1
   0   0   8 127227. 2351.71   1
   0   0  -9 88.9984 94.2979   1
   0   0   9-21.8371 70.3525   1
   0   0  10 31936.2 1273.53   1
   0   0 -10 32439.7 1375.75   1
   0   0  11-0.28604 57.4486   1
   0   0 -11-46.0142 109.134   1
   0   0 -12 71839.1 2186.67   1
   0   0  12 78895.6 2245.12   1
   0   0 -13 669.498 272.386   1
   0   0  13-162.514 174.684   1
   0   0 -14 781.291 276.146   1
   0   0  14 632.378 174.450   1
   0   0  15 110.777 136.741   1
   0   0 -15 130.173 86.7835   1
   0   0 -16 42988.9 2037.68   1
   0   0  16 46055.1 2079.88   1
   0   0 -17 282.012 588.742   1
   0   0  17-175.149 173.463   1
   0  -1   1 17771.6 418.197   1
   0   1  -1 17949.6 432.661   1
   0  -1   2 128.274 42.1733   1
   0   1  -2 150.938 42.1652   1
   0  -1   3 3097.62 236.363   1
   0   1  -3 3372.37 251.979   1
   0   1  -4 173668. 2074.65   1
   0  -1  -4 171127. 1522.41   1
   0  -1   4 169491. 2017.28   1
   0   1   4 166846. 1528.55   1
   0   1  -5 77639.9 1533.01   1
   0   1   5 76932.7 1202.68   1
   0  -1   5 73448.7 1454.95   1
   0  -1  -5 78209.2 1205.30   1
   0  -1  -6 67.0726 56.8746   1
   0  -1   6 29.0610 37.5358   1
   0   1   6 12.1653 38.9493   1
   0   1  -6-4.29810 48.0297   1
   0   1  -7 29030.1 1134.10   1
   0   1   7 29974.0 927.093   1
   0  -1   7 27607.2 1066.45   1
   0  -1  -7 31358.9 978.345   1
   0  -1   8 237873. 3397.82   1
   0   1  -8 244203. 3482.48   1
   0   1   8 245358. 2905.37   1
   0   1   9 5377.15 458.288   1
   0  -1   9 5344.05 572.368   1
   0   1  -9 5215.87 549.296   1
   0  -1  -9 5866.23 503.651   1
   0   1  10 3461.84 388.231   1
   0  -1 -10 3619.81 447.765   1
   0   1 -10 2975.74 452.604   1
   0  -1  10 2612.97 432.732   1
   0   1 -11 25407.9 1378.95   1
   0   1  11 29808.4 1252.54   1
   0  -1 -11 30186.8 1305.83   1
   0  -1  11 28044.1 1353.23   1
   0  -1  12 5762.54 618.775   1
   0   1 -12 5359.06 637.173   1
   0   1  12 6860.33 642.316   1
   0  -1 -12 6649.22 643.036   1
   0  -1 -13 733.928 245.217   1
   0  -1  13 787.842 235.242   1
   0   1  13 861.696 240.001   1
   0   1 -13 1009.59 323.553   1
   0  -1 -14 397.852 205.156   1
   0   1 -14 363.980 213.094   1
   0   1  14 674.207 238.462   1
   0  -1  14 709.520 283.898   1
   0   1 -15 10040.5 1038.86   1
   0  -1  15 10957.8 993.481   1
   0  -1 -15 10400.9 928.667   1
   0   1  15 11408.7 900.310   1
   0  -1 -16 59185.6 2189.13   1
   0   1 -16 51713.2 2405.99   1
   0  -1  16 58818.6 2416.04   1
   0   1  16 58789.5 2140.19   1
   0  -1  17 5106.69 735.240   1
   0   1 -17 4263.53 739.133   1
   0  -2   0 18914.5 471.691   1
   0   2   0 19631.1 457.250   1
   0  -2   1 1313.22 149.724   1
   0   2  -1 1243.19 140.307   1
   0   2  -2 54095.4 1060.31   1
   0  -2   2 55394.2 1041.77   1
   0   2  -3 19268.8 727.723   1
   0  -2   3 18401.7 666.462   1
   0   2  -4 6911.36 475.188   1
   0  -2   4 6237.91 421.363   1
   0  -2  -5 316286. 2029.02   1
   0   2  -5 306759. 3388.71   1
   0  -2   5 308042. 3275.47   1
   0  -2   6 170706. 2598.24   1
   0   2   6 167876. 1788.21   1
   0  -2  -6 167699. 1726.85   1
   0   2  -6 169592. 2795.63   1
   0   2   7 7089.49 410.197   1
   0   2  -7 6402.66 588.562   1
   0  -2  -7 7360.02 422.288   1
   0  -2   7 6354.23 537.521   1
   0   2  -8 16920.4 988.788   1
   0  -2   8 16500.7 949.492   1
   0   2   8 18784.1 771.915   1
   0  -2  -8 19825.3 779.960   1
   0  -2   9 183.681 158.369   1
   0  -2  -9 389.487 141.443   1
   0   2   9 506.656 142.416   1
   0   2  -9 364.029 209.243   1
   0   2  10 16400.3 811.793   1
   0   2 -10 14421.4 997.206   1
   0  -2 -10 17541.4 837.284   1
   0  -2  10 14099.5 987.339   1
   0  -2 -11 25505.5 1042.81   1
   0  -2  11 22392.2 1326.33   1
   0   2 -11 21398.3 1304.69   1
   0   2  11 25317.6 1058.76   1
   0  -2 -12 895.479 236.803   1
   0  -2  12 833.314 242.397   1
   0   2 -12 489.372 228.050   1
   0   2  12 728.912 172.843   1
   0   2  13 16603.8 957.401   1
   0  -2  13 13319.1 1068.78   1
   0  -2 -13 15658.8 971.009   1
   0  -2 -14 6584.68 651.640   1
   0  -2  14 6246.39 754.679   1
   0   2  14 7406.14 670.660   1
   0   2 -14 5718.09 790.274   1
   0  -2  15 18528.7 1417.37   1
   0  -2 -15 20047.3 1189.07   1
   0   2  15 21389.4 1217.58   1
   0   2 -16-63.9312 140.133   1
   0  -2  16 88.1130 214.772   1
   0  -3   0 21.2913 76.7693   1
   0   3   0 32.0194 72.3605   1
   0   3  -1 4477.45 316.062   1
   0  -3  -1 4044.31 232.758   1
   0  -3   1 4657.95 333.776   1
   0  -3   2 252406. 2558.53   1
   0   3  -2 252633. 2505.75   1
   0   3  -3 123089. 1915.35   1
   0  -3   3 120323. 1920.68   1
   0  -3   4 105167. 1943.37   1
   0   3  -4 108216. 1988.89   1
   0  -3   5 2254.32 303.674   1
   0   3  -5 2147.01 312.240   1
   0   3  -6 3794.58 429.659   1
   0  -3  -6 2527.63 175.845   1
   0  -3   6 3774.52 429.403   1
   0  -3   7 30852.4 1346.64   1
   0   3  -7 28849.7 1333.01   1
   0  -3  -8 263.873 80.9903   1
   0   3   8 288.570 89.3520   1
   0  -3   8 439.387 232.058   1
   0   3   9 1306.40 188.398   1
   0  -3   9 1121.94 281.137   1
   0  -3  -9 1566.08 213.593   1
   0   3  -9 1360.74 349.500   1
   0   3  10 235987. 2774.00   1
   0  -3  10 233282. 4082.31   1
   0   3 -11 23144.7 1344.77   1
   0  -3  11 23780.6 1381.45   1
   0   3  11 27511.7 1002.45   1
   0  -3  12 806.207 298.619   1
   0  -3 -12 907.906 195.814   1
   0   3 -12 764.935 282.187   1
   0   3  12 901.199 185.022   1
   0  -3 -13 16072.3 890.854   1
   0   3  13 15144.7 818.334   1
   0  -3  13 14224.9 1198.76   1
   0  -3  14 46958.2 2197.77   1
   0   3  14 46095.8 1466.80   1
   0   3 -14 43012.0 2200.34   1
   0   3 -15 335.120 207.723   1
   0  -4   0 307675. 2735.88   1
   0  -4   1 57583.7 1313.61   1
   0  -4  -1 56190.9 1067.53   1
   0   4  -1 57383.2 1231.03   1
   0  -4  -2 165201. 1675.62   1
   0   4  -2 170715. 2252.54   1
   0  -4   2 165889. 2339.50   1
   0   4  -3 15418.0 759.337   1
   0  -4   3 13957.2 741.339   1
   0   4  -4 19357.0 897.852   1
   0  -4   4 18446.1 890.758   1
   0  -4   5 12387.1 792.266   1
   0   4  -5 16905.5 991.453   1
   0  -4   6 273122. 3889.56   1
   0   4  -6 276551. 3885.36   1
   0   4  -7 1310.89 347.089   1
   0  -4   7 852.282 326.662   1
   0  -4   8 1342.52 350.290   1
   0  -4  -8 724.587 103.437   1
   0   4  -8 1234.90 387.403   1
   0  -4   9 24088.0 1350.93   1
   0  -4  -9 24518.3 744.055   1
   0   4  10 21268.4 789.318   1
   0   4 -10 21795.8 1279.99   1
   0  -4 -10 19818.5 698.662   1
   0   4 -11 755.633 282.202   1
   0   4  11 848.010 149.791   1
   0  -4 -11 1106.89 178.371   1
   0  -4  11 915.371 288.911   1
   0  -4  12 3443.89 603.077   1
   0   4 -12 3104.02 604.765   1
   0   4  12 3793.50 353.742   1
   0   4  13 58.6796 60.8307   1
   0   4 -13 75.8415 193.364   1
   0  -4  13 160.298 158.518   1
   0   4 -14 7691.77 988.294   1
   0  -5   0-30.8293 47.2932   1
   0   5   0 0.14541 41.5511   1
   0  -5   1 49.1734 64.1700   1
   0  -5  -1 5.28163 34.9406   1
   0   5  -1 31.5722 36.8015   1
   0   5  -2 14236.8 759.374   1
   0  -5   2 14489.5 783.535   1
   0  -5  -2 15644.3 593.277   1
   0  -5   3 4053.48 454.926   1
   0   5  -3 4176.75 437.193   1
   0  -5  -3 4682.90 281.862   1
   0  -5   4 32108.4 1265.34   1
   0   5  -4 32003.7 1244.16   1
   0  -5   5 98642.9 2320.88   1
   0   5  -5 99467.1 2247.07   1
   0   5  -6 725.754 223.662   1
   0  -5   6 875.012 225.176   1
   0   5  -7 10000.7 802.036   1
   0  -5   7 10475.2 845.301   1
   0   5  -8 1536.05 343.457   1
   0  -5   8 1657.87 355.794   1
   0   5  -9 16780.7 1169.92   1
   0   5 -10 10549.0 993.521   1
   0  -5  10 11970.0 1047.11   1
   0  -5  11 1463.38 425.201   1
   0   5 -11 811.663 308.187   1
   0   5 -12 2836.71 591.805   1
   0  -5  12 3294.42 602.551   1
   0   5 -13 23031.8 1681.13   1
   0  -6   0 136475. 2325.94   1
   0   6  -1 104557. 2069.63   1
   0  -6  -1 102621. 1895.33   1
   0  -6   1 102839. 2098.83   1
   0  -6   2-69.4478 69.3340   1
   0   6  -2 58.5505 64.0100   1
   0  -6  -2-18.6668 45.1104   1
   0  -6  -3 64131.5 1250.26   1
   0   6  -3 62149.0 1765.43   1
   0  -6   3 62245.0 1804.77   1
   0   6  -4 43271.5 1537.88   1
   0  -6  -4 45694.6 912.440   1
   0  -6  -5 895.341 109.841   1
   0  -6   5 1493.70 315.121   1
   0   6  -5 1330.16 298.127   1
   0   6  -6 33319.8 1483.59   1
   0  -6   7 20615.8 1236.97   1
   0   6  -7 21329.0 1221.62   1
   0  -6   8 2864.47 496.236   1
   0   6  -8 2762.82 472.240   1
   0  -6   9 4486.63 669.841   1
   0   6  -9 3947.38 613.987   1
   0   6 -10 11180.9 1067.11   1
   0  -6  11 21928.4 1541.55   1
   0   6 -11 18157.2 1392.46   1
   0  -7   0-86.9089 88.0529   1
   0  -7  -1 8947.57 615.794   1
   0  -7   1 9216.23 694.682   1
   0  -7  -2 21430.2 885.240   1
   0  -7   2 20312.5 1080.88   1
   0   7  -2 20416.2 1064.61   1
   0  -7  -3 31190.2 978.574   1
   0  -7   3 30143.3 1395.16   1
   0   7  -3 30347.0 1343.85   1
   0  -7  -4 100626. 1611.37   1
   0  -7   4 103438. 2625.31   1
   0   7  -4 103373. 2518.89   1
   0   7  -5 27394.9 1377.43   1
   0  -7   5 29462.6 1489.74   1
   0  -7   6 693.959 266.161   1
   0   7  -6 620.401 241.740   1
   0  -7   7 17175.6 1219.77   1
   0   7  -7 16714.9 1176.74   1
   0  -7   8 8972.55 922.023   1
   0  -7   9 1080.15 337.994   1
   0   7  -9 964.638 312.140   1
   0  -7  10 32011.4 1891.31   1
   0   7 -10 26727.6 1666.44   1
   0   7 -11 5063.30 784.333   1
   0  -8   0 2437.76 380.683   1
   0  -8  -1 2816.32 375.069   1
   0  -8   1 2795.48 430.348   1
   0  -8  -2 20987.2 998.616   1
   0  -8   2 21380.8 1224.71   1
   0  -8   3 41206.8 1724.62   1
   0  -8  -3 40312.4 1256.04   1
   0   8  -3 38027.9 1590.40   1
   0  -8  -4 13198.6 645.075   1
   0  -8   4 15248.3 1089.06   1
   0   8  -4 15194.6 1031.26   1
   0  -8  -5 23683.2 793.020   1
   0  -8   5 24103.2 1425.05   1
   0   8  -5 24351.1 1386.87   1
   0   8  -6 7276.60 795.164   1
   0  -8  -6 5503.06 324.503   1
   0  -8   7 4659.16 672.714   1
   0   8  -7 3963.49 609.705   1
   0   8  -8 2431.08 505.712   1
   0  -8   8 2568.56 532.976   1
   0   8  -9 1176.25 393.160   1
   0  -9   0-94.9532 174.793   1
   0  -9   1 19561.6 1206.91   1
   0  -9  -1 18709.7 1073.63   1
   0  -9   2 2156.11 419.837   1
   0  -9  -2 2697.66 392.993   1
   0  -9   3 8406.31 898.504   1
   0  -9  -3 8421.60 627.204   1
   0  -9   4 4426.09 707.431   1
   0  -9  -4 4389.60 430.152   1
   0  -9   5 651.758 286.742   1
   0   9  -5 638.857 283.891   1
   0  -9  -5 379.055 103.915   1
   0  -9  -6-200.359 82.3864   1
   0  -9   6 212.154 180.009   1
   0   9  -6 381.490 191.778   1
   0  -9   7 1802.88 472.376   1
   0   9  -7 1599.95 392.683   1
   0   9  -8 1833.53 453.857   1
   0 -10   0 52343.9 2005.92   1
   0 -10  -1 10863.2 872.123   1
   0 -10   1 11175.9 951.869   1
   0 -10  -2 34.1979 89.3560   1
   0 -10   2 30.0615 124.370   1
   0 -10  -3 4606.05 510.849   1
   0 -10   3 4947.01 711.803   1
   0 -10  -4 12496.1 771.972   1
   0 -10   4 13283.4 1207.27   1
   0 -10   5 13018.2 1234.96   1
   0 -10  -5 10310.2 632.329   1
   0 -10   6 20600.1 1572.58   1
   0 -11   0 204.656 203.876   1
   0 -11  -1 9052.37 844.740   1
   0 -11   1 8791.12 946.025   1
   0 -11  -2 3870.13 526.975   1
   0 -11   2 4536.36 695.682   1
   0 -11  -3 804.691 235.971   1
   0 -11   3 1440.69 433.163   1
   0 -11   4 16018.5 1429.31   1
   0 -11  -4 12548.7 800.310   1
   0 -11  -5 2597.94 330.534   1
   0 -12   0 300.274 162.111   1
   0 -12   1 20806.0 1494.05   1
   0 -12  -1 17495.7 1235.57   1
   0 -12   2 781.725 273.889   1
   0 -12  -2 133.564 79.1367   1
   0 -12   3 1697.56 447.610   1
   0 -12  -3 519.346 187.863   1
   0 -12  -4 651.884 177.179   1
   0 -13   0-38.5141 98.2907   1
   0 -13   1 28.5400 128.069   1
   0 -13  -1 487.371 231.306   1
   0 -13   2 4362.57 744.555   1
   0 -13  -2 3648.11 552.510   1
   0 -14   0 1457.28 424.009   1
  -1   0  17-117.481 186.992   1
  -1   0  16 1737.81 396.795   1
  -1   0  15-7.57432 92.4559   1
  -1   0  14 44469.5 1797.36   1
  -1   0  13-102.780 86.0654   1
  -1   0  12 7617.27 701.829   1
  -1   0  11-24.1189 66.4423   1
  -1   0  10 1149.59 263.078   1
  -1   0   9-38.6696 91.8310   1
  -1   0   8 28675.0 1157.77   1
   1   0   3 35.5301 32.8541   1
  -1   0  -3 5.10674 32.8587   1
  -1   0  -4 251091. 2954.16   1
   1   0   4 254816. 2832.71   1
   1   0   5-30.0589 54.5048   1
  -1   0  -5-21.8572 46.6472   1
   1   0   6 302257. 3504.17   1
  -1   0  -6 304378. 3430.03   1
   1   0   7-32.0164 60.1367   1
  -1   0  -7 31.7766 100.383   1
  -1   0  -8 109713. 2365.63   1
   1   0   8 116000. 2522.75   1
  -1   0  -9 5.30277 84.4891   1
   1   0   9 62.3398 77.2087   1
  -1   0 -10 45067.9 1638.26   1
   1   0  10 46565.2 1755.78   1
   1   0  11 7.10881 90.9599   1
  -1   0 -11-40.4758 78.5437   1
   1   0  12 615.062 195.830   1
  -1   0 -12 1036.35 274.927   1
   1   0  13 61.9762 91.0776   1
  -1   0 -13-181.693 188.019   1
   1   0  14 70416.3 2534.61   1
  -1   0 -14 74965.8 2588.91   1
   1   0  15 394.174 360.969   1
  -1   0 -15 638.630 327.050   1
  -1   0 -16 794.773 258.613   1
   1   0  16 998.386 351.072   1
   1   0  17-78.0987 128.767   1
  -1   0 -17 148.173 219.114   1
  -1   0 -18 35121.8 1921.41   1
  -1  -1  17 2429.98 516.725   1
  -1   1  16 477.199 169.563   1
  -1  -1  16 925.682 318.809   1
  -1  -1  15 14991.4 1208.51   1
  -1   1  15 16375.2 1047.10   1
  -1  -1  14 18444.2 1276.63   1
  -1   1  14 18129.8 1075.80   1
  -1   1  13 16147.5 976.162   1
  -1   1  12 5712.50 566.430   1
  -1  -1  12 5875.97 667.979   1
  -1   1  11 2150.26 329.531   1
  -1  -1  11 1801.37 325.416   1
  -1   1  10 94072.1 1987.11   1
  -1  -1  10 91551.8 2336.53   1
  -1  -1   9 42894.9 1522.63   1
  -1   1   9 44554.7 1303.48   1
  -1   1   8 401.775 126.189   1
  -1   1   7 22436.2 831.277   1
   1  -1   2 333089. 3092.97   1
  -1   1  -2 300722. 2860.37   1
   1  -1   3 353374. 3405.60   1
  -1   1  -3 357475. 3391.53   1
  -1   1  -4 58113.9 1433.76   1
  -1  -1  -4 61031.9 1345.05   1
  -1   1  -5 32857.6 1116.60   1
   1  -1   5 33941.8 1225.05   1
  -1  -1  -5 34709.8 1115.24   1
   1   1   5 33869.7 1124.98   1
   1  -1   6 1330.46 228.001   1
  -1  -1  -6 1303.29 236.715   1
   1   1   6 1073.48 220.763   1
  -1   1  -6 1326.82 232.778   1
  -1   1  -7 14444.1 840.128   1
   1  -1   7 14906.9 845.334   1
  -1  -1  -7 13543.6 734.178   1
   1   1   7 13969.2 768.328   1
  -1   1  -8 23880.6 1118.39   1
  -1  -1  -8 24083.7 1028.08   1
   1  -1   8 24814.8 1153.90   1
   1   1   8 23934.5 1096.77   1
   1   1   9 74269.8 2030.84   1
  -1   1  -9 70285.7 2025.37   1
  -1  -1  -9 77262.3 1982.25   1
   1  -1   9 75028.7 2132.33   1
  -1  -1 -10 85386.2 2208.01   1
  -1   1 -10 82308.1 2323.84   1
   1   1  10 84105.7 2229.30   1
   1  -1  10 84494.3 2368.19   1
   1   1  11 9944.61 768.641   1
  -1  -1 -11 10045.0 775.527   1
  -1   1 -11 8912.14 790.271   1
   1  -1  11 10039.6 862.633   1
  -1  -1 -12 9240.41 751.791   1
  -1   1 -12 9364.00 854.826   1
   1  -1  12 9412.89 865.927   1
   1   1  12 7980.63 729.277   1
   1   1  13 5231.93 600.095   1
  -1  -1 -13 5116.08 600.149   1
  -1   1 -13 4993.35 660.996   1
   1  -1  13 5779.54 696.143   1
  -1   1 -14 22972.4 1490.69   1
  -1  -1 -14 24807.1 1376.23   1
   1   1  14 21363.2 1304.28   1
   1  -1  14 24082.6 1531.25   1
  -1   1 -15 17827.3 1343.77   1
   1   1  15 15638.8 1147.02   1
  -1  -1 -15 17507.4 1180.81   1
   1  -1  15 16379.9 1349.89   1
   1   1  16 482.899 186.375   1
   1  -1  16 672.709 304.539   1
  -1   1 -16 398.447 211.581   1
  -1  -1 -16 745.019 264.233   1
  -1  -1 -17 9376.13 888.145   1
  -1   1 -17 8896.86 1017.72   1
  -1  -1 -18 7439.91 795.499   1
  -1  -2  16-173.197 285.804   1
  -1  -2  15 2367.16 508.986   1
  -1  -2  14 543.624 207.773   1
  -1   2  14 596.385 154.011   1
  -1   2  13 7046.21 616.609   1
  -1   2  12 13498.2 808.093   1
  -1  -2  12 12204.3 996.918   1
  -1   2  11 33275.5 1166.12   1
  -1   2  10 11927.3 642.143   1
  -1  -2  10 11693.1 894.226   1
  -1   2   9 16790.8 703.247   1
  -1   2   8 32076.0 918.462   1
  -1   2   7 56473.3 1122.21   1
  -1   2   0 178942. 2063.74   1
   1  -2   0 183859. 2049.70   1
   1  -2   1 290053. 2852.33   1
  -1   2  -1 275601. 2818.68   1
  -1   2  -2 29281.4 965.132   1
   1  -2   2 31796.0 1036.86   1
   1  -2   3 345990. 3656.84   1
  -1   2  -3 313069. 3253.61   1
  -1   2  -4-11.9124 27.8708   1
   1  -2   4 105.305 87.4650   1
   1  -2   5 49712.0 1542.33   1
  -1   2  -5 51941.7 1518.35   1
  -1   2  -6 49460.6 1553.82   1
  -1  -2  -6 49522.3 1365.74   1
   1  -2   6 49052.9 1614.49   1
  -1  -2  -7 125162. 2193.02   1
  -1   2  -7 123112. 2585.43   1
   1  -2   7 126239. 2702.50   1
  -1   2  -8 22341.8 1123.91   1
   1  -2   8 23711.0 1206.96   1
  -1  -2  -8 22082.4 951.274   1
  -1   2  -9 9866.11 763.851   1
   1   2   9 8553.50 648.817   1
   1  -2   9 9402.83 802.465   1
  -1  -2  -9 9805.27 673.286   1
  -1  -2 -10 235.418 98.4855   1
  -1   2 -10 119.927 65.1615   1
   1   2  10 353.765 161.284   1
  -1  -2 -11 55029.0 1714.38   1
  -1   2 -11 54644.0 2045.86   1
   1  -2  11 56664.2 2182.16   1
   1   2  11 56837.3 1753.17   1
  -1  -2 -12 25856.7 1219.22   1
  -1   2 -12 26356.9 1472.97   1
   1   2  12 25375.9 1219.06   1
   1  -2  12 29523.2 1607.95   1
   1   2  13 98477.2 2499.40   1
  -1  -2 -13 105664. 2594.77   1
   1  -2  13 100388. 3129.45   1
  -1   2 -13 103295. 3112.27   1
  -1  -2 -14 1816.84 371.115   1
   1  -2  14 1548.15 373.757   1
  -1   2 -14 1741.07 401.841   1
   1   2  14 1338.37 401.028   1
   1   2  15 5091.48 550.250   1
  -1   2 -15 6784.28 862.930   1
   1  -2  15 6571.88 843.295   1
  -1  -2 -15 6017.19 653.313   1
  -1  -2 -16 4490.62 564.856   1
  -1   2 -16 4866.51 740.723   1
  -1  -2 -17 7627.23 745.829   1
  -1   3  14 0.21690 38.6970   1
  -1  -3  14-310.881 364.861   1
  -1  -3  13 1430.34 442.030   1
  -1   3  13 24.3320 44.5691   1
  -1  -3  12 561.608 131.611   1
  -1   3  12 952.025 189.509   1
  -1  -3  11-1264.82 519.774   1
  -1   3  11 5941.94 477.220   1
  -1   3  10 15131.1 650.268   1
  -1   3   9 24254.7 742.184   1
  -1   3   8 82016.6 1232.51   1
  -1   3   7 11284.3 423.495   1
  -1   3   1 46482.6 1009.86   1
   1  -3  -1 47360.0 1034.89   1
  -1   3   0 260527. 2610.94   1
   1  -3   0 261271. 2617.53   1
  -1   3  -1 52132.9 1224.25   1
   1  -3   1 52851.9 1340.05   1
   1  -3   2 3200.63 360.724   1
  -1   3  -2 2996.89 317.639   1
   1  -3   3 33903.5 1200.21   1
  -1   3  -3 35780.7 1190.39   1
  -1   3  -4 203790. 2975.13   1
   1  -3   4 200619. 3115.75   1
  -1   3  -5 109562. 2299.85   1
   1  -3   5 107472. 2350.54   1
  -1   3  -6 21371.2 1038.65   1
   1  -3   6 21120.7 1062.99   1
  -1   3  -7 78630.9 2119.09   1
  -1  -3  -7 79302.0 1748.82   1
   1  -3   7 77622.9 2161.13   1
  -1   3  -8 69854.0 2097.93   1
  -1  -3  -8 74467.7 1705.87   1
   1  -3   8 73216.1 2182.66   1
  -1   3  -9 6383.80 660.205   1
  -1  -3  -9 6349.16 484.474   1
   1  -3   9 6571.33 679.155   1
  -1   3 -10 7885.50 770.329   1
   1  -3  10 6908.12 786.297   1
  -1  -3 -10 8003.04 598.936   1
  -1  -3 -11 7715.72 621.488   1
   1  -3  11 9232.82 901.407   1
  -1   3 -11 8679.41 806.653   1
  -1   3 -12 17565.3 1277.12   1
  -1  -3 -12 16224.1 926.321   1
   1  -3  12 19331.4 1348.85   1
   1   3  12 14689.0 937.935   1
  -1  -3 -13 13703.6 885.792   1
  -1   3 -13 13160.8 1165.72   1
   1  -3  13 13721.2 1222.29   1
   1   3  13 11352.1 819.850   1
  -1  -3 -14 2045.95 360.571   1
   1  -3  14 2532.99 525.861   1
   1   3  14 1460.65 295.367   1
  -1   3 -14 2035.49 437.472   1
  -1  -3 -15 5161.65 563.967   1
  -1   3 -15 5483.64 840.434   1
  -1  -3 -16 18037.2 1094.30   1
  -1   4  12 49553.8 1213.39   1
  -1   4  11 732.163 139.269   1
  -1   4  10 721.103 119.593   1
  -1   4   9 27499.3 653.927   1
  -1   4   8 16975.0 468.738   1
  -1   4   3 10662.2 372.667   1
  -1   4   2 381.862 108.960   1
   1  -4  -2 35.6230 35.0816   1
   1  -4  -1 3978.05 343.514   1
  -1   4   1 3803.48 298.919   1
   1  -4   0 246153. 2876.93   1
  -1   4   0 239744. 2662.13   1
  -1   4  -1 10494.0 599.098   1
   1  -4   1 12031.8 694.745   1
  -1   4  -2 4177.09 397.511   1
   1  -4   2 3703.64 400.414   1
  -1   4  -3 71248.2 1762.31   1
   1  -4   3 68082.4 1755.58   1
  -1   4  -4 61328.7 1703.83   1
   1  -4   4 62904.9 1760.88   1
  -1   4  -5 117999. 2498.02   1
   1  -4   5 115856. 2539.23   1
  -1   4  -6 30444.0 1320.50   1
   1  -4   6 29434.2 1339.23   1
  -1   4  -7 56929.4 1870.55   1
   1  -4   7 57851.7 1938.53   1
  -1   4  -8 109623. 2732.46   1
  -1  -4  -8 107280. 1996.54   1
   1  -4   8 108880. 2772.48   1
   1  -4   9-30.3452 122.605   1
  -1   4  -9 52.7167 73.5437   1
  -1   4 -10 1052.36 283.174   1
   1  -4  10 1143.42 287.614   1
  -1  -4 -10 858.809 176.494   1
  -1  -4 -11 858.692 183.322   1
  -1   4 -11 1213.54 350.786   1
   1  -4  11 1139.17 320.248   1
  -1  -4 -12 68967.8 1735.83   1
  -1   4 -12 77898.7 2792.07   1
   1  -4  12 75383.8 2755.71   1
  -1  -4 -13 3625.56 408.553   1
   1  -4  13 4098.16 697.555   1
  -1   4 -13 4136.50 661.381   1
  -1  -4 -14 5009.00 481.064   1
  -1   4 -14 5529.32 819.829   1
  -1  -4 -15 6158.63 569.268   1
  -1   5  11 16345.2 516.412   1
  -1   5   3 100966. 1321.20   1
   1  -5  -2 29.4689 62.1251   1
  -1   5   2 306.436 111.597   1
  -1   5   1 150518. 2000.07   1
   1  -5  -1 139755. 2109.62   1
  -1   5   0 56236.8 1396.97   1
   1  -5   0 51379.2 1454.22   1
  -1   5  -1 90607.9 1813.26   1
   1  -5   1 93525.5 2025.09   1
   1  -5   2 247.995 141.315   1
  -1   5  -2 215.665 127.413   1
  -1   5  -3 171742. 2877.29   1
   1  -5   3 173638. 3047.72   1
  -1   5  -4 22280.1 1059.11   1
   1  -5   4 22169.9 1116.66   1
  -1   5  -5 16353.2 948.959   1
   1  -5   5 17135.8 1002.44   1
  -1   5  -7 31884.2 1478.56   1
   1  -5   7 30923.5 1493.43   1
  -1   5  -8 13131.1 1001.44   1
   1  -5   8 12824.1 987.939   1
  -1   5  -9 86570.3 2710.10   1
   1  -5   9 83581.5 2664.17   1
  -1   5 -10 1790.60 438.289   1
   1  -5  10 1869.67 400.661   1
  -1  -5 -10 906.008 173.036   1
  -1  -5 -11 18571.0 779.611   1
   1  -5  11 20745.1 1452.55   1
  -1   5 -11 21886.7 1512.74   1
   1  -5  12 2173.73 502.071   1
  -1  -5 -12 1448.68 209.285   1
  -1   5 -12 1892.78 441.518   1
  -1  -5 -13 8174.61 534.689   1
  -1   5 -13 9388.35 1083.15   1
  -1   6   4 111.997 46.5382   1
   1  -6  -4 297.558 94.2504   1
   1  -6  -3 36321.4 1077.47   1
   1  -6  -2 1732.69 252.049   1
  -1   6   2 1966.72 230.817   1
   1  -6  -1 1380.09 254.304   1
  -1   6   1 1319.84 216.931   1
   1  -6   0 490.946 147.528   1
  -1   6   0 752.687 177.555   1
  -1   6  -1 63243.9 1629.84   1
   1  -6   1 64689.8 1814.35   1
  -1   6  -2 28423.0 1158.76   1
   1  -6   2 30684.8 1289.00   1
  -1   6  -3 58173.8 1774.98   1
   1  -6   3 59873.5 1868.11   1
   1  -6   4 3328.01 478.779   1
  -1   6  -4 3757.58 471.072   1
  -1   6  -5 56422.9 1915.50   1
   1  -6   5 53846.4 1938.92   1
  -1   6  -6 11143.9 918.625   1
   1  -6   6 10070.1 860.262   1
  -1   6  -7 66139.6 2283.40   1
   1  -6   7 63626.6 2223.09   1
  -1   6  -8 325.123 208.305   1
   1  -6   8 170.301 130.762   1
  -1  -6  -9 693.499 179.446   1
  -1   6  -9 1607.86 400.779   1
   1  -6   9 1710.90 412.625   1
   1  -6  10 8843.89 956.030   1
  -1   6 -10 9320.90 988.086   1
  -1   6 -11 9020.97 1018.05   1
   1  -6  11 9488.58 1009.80   1
  -1   6 -12 797.039 378.844   1
   1  -7  -3 840.401 182.705   1
  -1   7   3 1219.81 211.767   1
  -1   7   2 44179.8 1184.99   1
   1  -7  -2 51129.8 1469.08   1
  -1   7   1 4834.13 448.931   1
   1  -7  -1 4998.82 485.806   1
  -1   7   0 41905.9 1376.66   1
   1  -7   0 43309.0 1504.18   1
   1  -7   1 45368.9 1617.14   1
  -1   7  -1 44606.3 1478.80   1
  -1   7  -2 54692.8 1727.78   1
   1  -7   2 55681.6 1859.02   1
  -1   7  -3 66.1089 85.4974   1
   1  -7   3-37.0195 107.799   1
  -1   7  -4 20047.5 1161.73   1
   1  -7   4 18459.0 1150.31   1
  -1   7  -5 10512.2 880.863   1
   1  -7   5 10182.0 881.263   1
  -1   7  -6 1195.91 329.118   1
   1  -7   6 848.295 269.434   1
  -1   7  -7 9984.15 969.157   1
   1  -7   7 9505.82 938.865   1
   1  -7   8 13911.7 1181.10   1
  -1  -7  -9 777.364 177.670   1
  -1   7  -9 1693.60 427.526   1
   1  -7   9 1350.42 402.976   1
  -1   7 -10 14009.5 1235.68   1
  -1  -7 -10 5506.47 348.039   1
  -1  -7 -11 8824.15 406.768   1
   1  -8  -5 76.5504 74.7928   1
   1  -8  -4 14664.0 771.014   1
   1  -8  -3 47639.3 1413.63   1
  -1   8   3 53091.6 1296.69   1
  -1   8   2 7540.76 531.309   1
   1  -8  -2 7591.18 643.767   1
   1  -8  -1 45253.3 1579.57   1
  -1   8   1 43715.5 1397.03   1
   1  -8   0 33231.7 1422.03   1
  -1   8   0 28480.5 1185.78   1
  -1   8  -1 30510.3 1337.49   1
   1  -8   1 34705.1 1533.03   1
   1  -8   2 4752.25 585.832   1
  -1   8  -2 4515.90 527.534   1
  -1   8  -3 4638.71 580.876   1
   1  -8   3 4413.13 588.847   1
  -1   8  -4 532.853 229.904   1
   1  -8   4 196.633 124.597   1
   1  -8   5 10092.2 961.574   1
  -1   8  -6 49627.0 2120.01   1
   1  -8   6 51578.7 2233.60   1
   1  -8   7 30356.4 1747.43   1
  -1   8  -7 29372.2 1713.99   1
   1  -8   8 731.082 447.693   1
  -1   8  -8 605.973 380.259   1
  -1   8  -9 27037.3 1709.07   1
  -1  -8 -10 38.8720 37.1053   1
   1  -9  -4 32.6802 93.1980   1
   1  -9  -3 45271.3 1446.01   1
   1  -9  -2 996.077 275.879   1
  -1   9   2 1340.83 235.000   1
   1  -9  -1 101.881 98.2441   1
  -1   9   1 110.413 85.4719   1
   1  -9   0 3060.76 469.781   1
  -1   9   0 2950.86 395.641   1
  -1   9  -1 1326.73 309.014   1
   1  -9   1 1408.04 323.884   1
  -1   9  -2 575.459 215.936   1
   1  -9   2 190.901 150.411   1
  -1   9  -3 23275.3 1319.06   1
   1  -9   3 25083.8 1493.85   1
  -1   9  -4 1492.02 367.268   1
   1  -9   4 1239.88 378.860   1
  -1   9  -5 26213.8 1509.25   1
   1  -9   5 28106.1 1717.19   1
  -1   9  -6 1430.69 422.136   1
   1  -9   6 1514.38 401.351   1
  -1   9  -7 20440.0 1455.75   1
  -1   9  -8 2125.15 497.969   1
   1 -10  -6 26503.3 1223.82   1
   1 -10  -5 104.075 95.6854   1
   1 -10  -4-9.18343 68.7256   1
   1 -10  -3 677.442 200.756   1
   1 -10  -2 1282.73 313.152   1
  -1  10   1 2755.87 415.272   1
   1 -10  -1 2811.86 472.791   1
   1 -10   0 4320.78 553.682   1
  -1  10   0 3837.84 503.943   1
   1 -10   1 23976.8 1457.54   1
  -1  10  -1 21754.4 1196.86   1
  -1  10  -2 20288.2 1206.85   1
   1 -10   2 21390.6 1444.32   1
  -1  10  -3 18460.5 1185.31   1
   1 -10   3 19733.0 1392.79   1
  -1  10  -4 492.319 204.177   1
   1 -10   4 267.446 188.847   1
  -1  10  -5-51.4486 144.788   1
   1 -10   5 144.801 149.562   1
  -1  10  -6 6873.80 822.636   1
   1 -10   6 7573.59 958.722   1
  -1  10  -7 2521.41 525.563   1
   1 -11  -5 1099.70 246.296   1
   1 -11  -4 12419.6 865.662   1
   1 -11  -3 4321.43 495.703   1
   1 -11  -2 8511.81 798.705   1
   1 -11  -1 7765.63 800.109   1
   1 -11   0-116.219 144.947   1
  -1  11   0 351.684 198.571   1
   1 -11   1 11432.9 1026.14   1
  -1  11  -1 11611.4 944.506   1
  -1  11  -2 51451.3 2068.71   1
   1 -11   2 60824.1 2506.92   1
  -1  11  -3 583.875 250.428   1
   1 -11   3 466.004 239.915   1
  -1  11  -4 2295.92 470.998   1
   1 -11   4 2437.91 529.348   1
  -1  11  -5 715.216 273.186   1
   1 -12  -3 476.673 205.832   1
   1 -12  -1 1697.56 381.750   1
   1 -12   0 592.077 221.871   1
   1 -12   1 5685.30 890.747   1
  -1  12  -1 4685.27 660.907   1
  -1  12  -2 6457.25 751.903   1
   1 -12   2 6963.92 924.568   1
  -1  12  -3 9666.46 975.140   1
   1 -12   3 9037.90 1088.21   1
  -1  12  -4 258.169 203.386   1
   1 -13  -2 134.694 92.9040   1
   1 -13  -1 4909.17 692.343   1
   1 -13   0 355.137 180.914   1
   1 -13   1 4977.36 763.611   1
   1 -13   2-524.766 333.094   1
   1 -14   0 14912.6 1263.45   1
  -2   0  -6 19523.6 1149.58   1
  -2   0  -7-2.02718 84.5220   1
   2   0   7 53.1861 65.7674   1
   2   0   8 36249.8 1612.13   1
  -2   0  -8 36181.5 1627.89   1
  -2   0  -9-25.4024 86.8672   1
   2   0   9 54.8031 121.533   1
   2   0  10 5284.26 662.971   1
  -2   0 -10 5520.04 669.286   1
  -2   0 -11-51.2478 105.316   1
   2   0  11-15.0437 74.3947   1
  -2   0 -12 187108. 4077.80   1
   2   0  12 187582. 4032.62   1
  -2   0 -13-97.6790 142.439   1
   2   0  13-36.0390 189.783   1
   2   0  14 119.673 118.321   1
  -2   0 -14 402.459 251.554   1
  -2   0 -15-272.239 193.438   1
   2   0  15-158.940 181.652   1
  -2   0 -16 7968.00 902.855   1
   2   0  16 7249.85 924.977   1
  -2   0 -17-39.7757 155.630   1
   2  -1   5 11082.5 882.218   1
  -2   1  -5 10623.7 807.601   1
  -2   1  -6 198.511 118.583   1
   2  -1   6 300.449 163.337   1
   2  -1   7 13684.0 974.822   1
  -2   1  -7 12110.3 933.608   1
   2  -1   8 57075.7 2055.34   1
  -2  -1  -8 54904.5 2092.08   1
  -2   1  -8 57176.2 2040.07   1
  -2  -1  -9 107750. 2817.31   1
  -2   1  -9 111024. 2878.45   1
   2  -1  10 7666.44 803.574   1
  -2  -1 -10 7063.07 765.048   1
  -2   1 -10 7733.72 760.318   1
   2   1  11 34638.7 1753.75   1
   2  -1  11 30436.7 1679.49   1
  -2  -1 -11 28741.6 1486.69   1
  -2   1 -11 30280.1 1636.27   1
  -2   1 -12 10504.4 966.380   1
   2   1  12 8424.12 840.715   1
   2  -1  12 10068.5 968.610   1
  -2  -1 -12 9728.60 896.820   1
  -2  -1 -13 18132.4 1279.23   1
  -2   1 -13 18341.5 1313.46   1
   2   1  13 15635.4 1131.58   1
   2  -1  13 17265.2 1370.92   1
   2  -1  14 26.4686 109.705   1
  -2  -1 -14 6.24798 94.1027   1
  -2   1 -14 291.690 265.059   1
   2   1  14-48.7904 114.151   1
  -2  -1 -15 21463.6 1449.66   1
  -2   1 -15 22289.2 1519.71   1
   2  -1  15 22604.8 1653.44   1
  -2  -1 -16 7682.27 837.907   1
  -2   1 -16 8127.42 979.702   1
   2   1  16 5529.94 742.405   1
  -2  -1 -17 14795.6 1240.66   1
  -2  -1 -18-49.2544 154.387   1
  -2   2  -3 1285.36 307.073   1
   2  -2   3 1233.75 318.133   1
  -2   2  -4 2020.57 373.336   1
   2  -2   4 1911.51 363.966   1
   2  -2   5 28912.5 1354.19   1
  -2   2  -5 27935.5 1337.90   1
  -2   2  -6 34912.6 1539.13   1
   2  -2   6 37196.5 1614.45   1
   2  -2   7 247910. 4370.71   1
  -2   2  -7 240265. 4063.70   1
   2  -2   8 4589.36 609.569   1
  -2  -2  -8 3949.13 558.534   1
  -2   2  -8 4517.57 548.178   1
   2  -2   9 1023.12 283.300   1
  -2  -2  -9 948.060 297.209   1
  -2   2  -9 1139.20 295.487   1
   2  -2  10 1350.55 323.657   1
  -2  -2 -10 1333.88 333.294   1
  -2   2 -10 1398.06 336.312   1
   2  -2  11-50.2451 169.657   1
  -2   2 -11 110.266 101.611   1
  -2  -2 -11 198.149 195.679   1
  -2   2 -12 28873.9 1629.79   1
   2  -2  12 27190.8 1631.33   1
  -2  -2 -12 24316.6 1400.96   1
  -2   2 -13 44400.4 2133.62   1
   2  -2  13 44670.6 2199.79   1
  -2  -2 -13 44537.4 1977.26   1
  -2  -2 -14 7941.90 835.315   1
  -2   2 -14 8912.59 911.276   1
   2  -2  14 9016.29 972.466   1
  -2  -2 -15 12379.3 1059.98   1
  -2   2 -15 14562.3 1227.68   1
  -2  -2 -16 164.314 146.604   1
  -2  -2 -17 28738.4 1652.93   1
  -2   3  13-196.236 120.259   1
  -2   3  -1 50094.8 1567.12   1
  -2   3  -3 1529.14 309.790   1
   2  -3   3 1555.25 300.228   1
   2  -3   4 2026.29 364.102   1
  -2   3  -4 1845.66 337.936   1
   2  -3   5 6581.01 710.312   1
  -2   3  -5 6653.65 661.098   1
   2  -3   6 29530.7 1479.18   1
  -2   3  -6 32111.1 1436.27   1
   2  -3   7 116.966 122.817   1
  -2   3  -7-6.09774 94.4710   1
   2  -3   8 24417.9 1414.49   1
  -2   3  -8 23228.4 1303.92   1
  -2   3  -9 70231.9 2385.22   1
   2  -3   9 66442.7 2480.47   1
  -2   3 -10 47985.5 2114.41   1
  -2  -3 -10 44826.4 1924.89   1
   2  -3  10 46175.8 2143.10   1
  -2   3 -11 5343.77 671.725   1
   2  -3  11 5685.01 739.279   1
  -2  -3 -11 4434.62 613.851   1
   2  -3  12-23.3138 139.892   1
  -2   3 -12 177.494 209.637   1
  -2  -3 -12 132.835 121.087   1
  -2   3 -13 7200.25 820.453   1
   2  -3  13 6715.99 864.019   1
  -2  -3 -13 6034.54 707.636   1
  -2  -3 -14 15923.1 1151.71   1
  -2   3 -14 17950.0 1350.00   1
  -2  -3 -15 13445.6 1078.18   1
  -2  -3 -16-29.1091 85.4677   1
  -2   4   0 5765.25 536.513   1
   2  -4   2 35514.6 1440.76   1
  -2   4  -2 35459.0 1378.50   1
   2  -4   3 12071.3 903.707   1
  -2   4  -3 12042.5 844.957   1
   2  -4   4 521.439 179.020   1
  -2   4  -4 585.774 182.818   1
   2  -4   5 557.618 230.517   1
  -2   4  -5 512.785 176.217   1
  -2   4  -6 70446.3 2209.72   1
   2  -4   7 4526.28 624.335   1
  -2   4  -7 4530.94 560.860   1
  -2   4  -8 470.068 225.203   1
   2  -4   8 429.681 233.530   1
  -2   4  -9 14272.9 1087.78   1
   2  -4   9 15040.7 1228.99   1
  -2  -4 -10 2905.61 540.942   1
   2  -4  10 3499.91 579.878   1
  -2   4 -10 3714.28 549.474   1
  -2   4 -11 20080.7 1378.70   1
   2  -4  11 21534.5 1551.96   1
  -2   4 -12 6779.89 808.415   1
   2  -4  12 6773.72 905.185   1
  -2  -4 -12 5475.80 653.454   1
  -2   4 -13 39763.6 2097.96   1
  -2  -4 -13 34338.2 1571.68   1
  -2  -4 -14 37805.3 1684.11   1
  -2  -4 -15 2129.56 395.863   1
  -2   5  11 5.68917 37.5086   1
  -2   5   4 909.541 148.080   1
  -2   5   3 168043. 2348.38   1
  -2   5   2 33451.9 1182.15   1
  -2   5   1 121.058 73.5781   1
   2  -5  -1 33.3495 69.0515   1
  -2   5   0 1913.69 325.896   1
   2  -5   0 1792.55 357.354   1
   2  -5   1 24286.9 1222.72   1
  -2   5  -1 23504.8 1129.80   1
   2  -5   2 50728.2 1836.60   1
  -2   5  -2 50206.6 1650.27   1
   2  -5   3 311907. 4526.69   1
  -2   5  -3 308050. 4232.82   1
   2  -5   4 16585.6 1167.57   1
  -2   5  -4 17064.6 1039.77   1
   2  -5   5 138162. 3406.24   1
  -2   5  -5 138816. 3116.57   1
  -2   5  -6 4637.17 577.534   1
   2  -5   6 4151.39 619.735   1
  -2   5  -7 97794.4 2842.27   1
   2  -5   7 85715.8 2880.93   1
  -2   5  -8 9890.93 907.529   1
   2  -5   8 9827.92 980.501   1
  -2   5  -9 34850.3 1772.38   1
   2  -5   9 36965.7 1979.03   1
  -2   5 -10 37694.9 1887.34   1
   2  -5  10 39866.9 2117.84   1
  -2   5 -11 16339.2 1288.35   1
  -2  -5 -11 14839.4 1175.30   1
   2  -5  11 17635.8 1459.92   1
  -2  -5 -12 99.7260 147.369   1
  -2   5 -12 10.3766 96.2551   1
  -2  -5 -13 2816.09 453.014   1
  -2  -5 -14 1759.69 343.645   1
  -2   6   8 3325.18 205.020   1
  -2   6   7 1636.59 155.768   1
  -2   6   6 149.296 71.5391   1
  -2   6   5 8252.88 437.692   1
  -2   6   4 899.791 175.969   1
  -2   6   3 8512.14 548.621   1
  -2   6   2 22080.0 923.649   1
  -2   6   1 112974. 2200.60   1
   2  -6   0 22953.3 1220.03   1
  -2   6   0 23463.7 1053.71   1
   2  -6   1 39884.2 1681.08   1
  -2   6  -1 41348.9 1472.28   1
   2  -6   2 102.093 134.401   1
  -2   6  -2 49.3294 54.8983   1
   2  -6   3 8245.44 844.876   1
  -2   6  -3 8947.04 757.324   1
  -2   6  -4 6451.60 660.730   1
   2  -6   4 5130.05 715.183   1
  -2   6  -5 9741.60 856.624   1
   2  -6   5 8757.35 911.742   1
   2  -6   6 2675.70 507.517   1
  -2   6  -6 3072.56 476.175   1
  -2   6  -7 8701.50 893.682   1
   2  -6   7 8458.15 902.853   1
   2  -6   8 22658.2 1541.50   1
  -2   6  -9 53168.6 2265.83   1
   2  -6   9 55867.6 2484.03   1
   2  -6  10 4155.83 684.482   1
  -2   6 -10 4119.10 642.598   1
  -2   6 -11 30058.6 1825.06   1
  -2  -6 -12 804.037 240.675   1
  -2   7   7 9353.10 350.086   1
  -2   7   6 36.6425 37.7539   1
  -2   7   5 22567.9 768.169   1
  -2   7   4 18701.7 766.603   1
  -2   7   3 385.325 111.058   1
  -2   7   2 38769.5 1286.38   1
  -2   7   1 16335.7 877.956   1
   2  -7  -1 17158.0 1047.59   1
  -2   7   0 7764.93 625.226   1
   2  -7   0 7712.94 762.775   1
  -2   7  -1 20373.6 1105.14   1
   2  -7   1 16811.7 1143.77   1
  -2   7  -2 37089.6 1537.73   1
   2  -7   2 34742.9 1795.06   1
   2  -7   3 2385.13 517.768   1
  -2   7  -3 2922.75 433.174   1
  -2   7  -4 26948.9 1418.18   1
   2  -7   4 25727.8 1577.78   1
  -2   7  -5 8050.44 804.503   1
   2  -7   5 7904.89 881.605   1
   2  -7   6 562.941 246.981   1
  -2   7  -6 707.894 277.246   1
  -2   7  -7 43013.5 1979.10   1
   2  -7   7 41975.3 2118.03   1
  -2   7  -8 58099.3 2365.64   1
   2  -7   8 55350.5 2529.44   1
   2  -7   9 1818.39 445.767   1
  -2   7  -9 1994.36 444.292   1
  -2   7 -10 10812.1 1099.54   1
  -2   8   7 32244.6 662.771   1
  -2   8   6 15371.2 538.818   1
  -2   8   5 23393.2 756.071   1
  -2   8   4 379.110 119.356   1
  -2   8   3 6998.58 519.170   1
   2  -8  -3 4833.70 676.973   1
  -2   8   2 331.651 142.497   1
   2  -8  -2-102.747 119.161   1
   2  -8  -1 164.082 146.868   1
  -2   8   1 342.429 132.746   1
  -2   8   0 48832.0 1624.68   1
   2  -8   0 48149.0 1878.38   1
   2  -8   1 1711.59 370.179   1
  -2   8  -1 1752.14 334.674   1
   2  -8   2 246.832 209.494   1
  -2   8  -2 653.748 226.649   1
  -2   8  -3 17646.5 1135.17   1
   2  -8   3 18423.3 1376.19   1
   2  -8   4 36.3976 137.639   1
  -2   8  -4-62.6470 69.1949   1
  -2   8  -5 17406.5 1223.78   1
   2  -8   5 16995.3 1405.68   1
  -2   8  -6 14935.0 1143.60   1
   2  -8   6 14851.0 1322.55   1
  -2   8  -7 31648.7 1764.01   1
   2  -8   7 30874.0 1931.63   1
  -2   8  -8 19868.7 1445.91   1
   2  -8   8 18590.6 1541.56   1
  -2   9   5 128.383 83.2861   1
  -2   9   4 40.4349 54.0222   1
  -2   9   3 43138.5 1362.45   1
   2  -9  -3 45140.0 1964.56   1
  -2   9   2 90.4918 89.9881   1
   2  -9  -2-29.6096 176.197   1
  -2   9   1 52480.2 1671.09   1
   2  -9  -1 51535.6 2029.53   1
   2  -9   0 127.768 157.696   1
  -2   9   0 394.924 164.431   1
  -2   9  -1 58804.5 1956.98   1
   2  -9   1 65412.7 2520.70   1
   2  -9   2 1916.09 507.947   1
  -2   9  -2 1913.78 400.561   1
  -2   9  -3 55892.3 2105.16   1
   2  -9   3 60782.1 2570.90   1
   2  -9   4 58.1531 147.710   1
  -2   9  -4 385.188 225.514   1
  -2   9  -5 6662.26 796.382   1
   2  -9   5 6341.98 933.287   1
  -2   9  -6 2248.91 481.044   1
   2  -9   6 2099.39 570.490   1
  -2   9  -7 737.458 265.772   1
  -2  10   4 219.123 127.067   1
   2 -10  -4 92.7915 129.417   1
   2 -10  -3 8591.71 826.550   1
   2 -10  -2 15333.7 1106.62   1
  -2  10   2 14876.5 920.427   1
   2 -10  -1-147.697 103.245   1
  -2  10   1 238.252 215.406   1
  -2  10   0 8447.03 764.515   1
   2 -10   0 7764.92 892.510   1
   2 -10   1-197.940 220.904   1
  -2  10  -1 80.3853 115.505   1
  -2  10  -2 1728.45 366.675   1
   2 -10   2 1380.96 438.289   1
  -2  10  -3 12313.7 1041.43   1
   2 -10   3 13058.0 1255.86   1
  -2  10  -4 1202.35 350.622   1
   2 -10   4 1155.76 378.442   1
  -2  10  -5 27594.4 1675.65   1
   2 -10   5 26874.6 1894.22   1
  -2  10  -6 1759.19 457.143   1
   2 -11  -4 21820.8 1419.03   1
   2 -11  -3 481.445 142.502   1
   2 -11  -2 8285.79 859.437   1
   2 -11  -1 394.352 127.401   1
  -2  11   1 0.32494 184.250   1
   2 -11   0 15.8535 162.119   1
  -2  11   0 1256.19 300.434   1
   2 -11   1 2309.63 535.318   1
  -2  11  -1 2693.33 486.552   1
   2 -11   2 480.914 236.607   1
  -2  11  -2 374.215 167.367   1
   2 -11   3 9036.32 1108.14   1
  -2  11  -3 8642.80 933.676   1
  -2  11  -4 35174.4 1946.07   1
   2 -11   4 43070.0 2499.70   1
  -2  11  -5 7042.41 908.675   1
   2 -12  -3 594.836 177.545   1
   2 -12  -2 148.304 190.072   1
   2 -12  -1 11102.1 1009.69   1
  -2  12   1 8890.63 773.574   1
   2 -12   0 23289.9 1595.10   1
  -2  12   0 20517.9 1237.35   1
   2 -12   1 8231.33 1054.09   1
  -2  12  -1 9006.04 850.606   1
  -2  12  -2 589.638 258.929   1
   2 -12   2 175.407 189.139   1
  -2  12  -3 3877.74 602.200   1
   2 -13  -1 3168.67 610.477   1
   2 -13   0-94.8515 184.498   1
   2 -13   1 4478.17 784.733   1
  -2  13  -1 4467.92 596.009   1
  -2  13  -2 5314.91 698.307   1
  -3   0 -10 28.0741 128.956   1
  -3   0 -11-102.588 156.974   1
  -3   0 -12 5021.45 824.371   1
  -3   0 -13 40.5879 138.619   1
  -3   0 -14 60712.6 2775.59   1
  -3   0 -15 29.6289 223.172   1
  -3   0 -16 3488.79 689.888   1
  -3   1  -8 7735.36 914.301   1
  -3   1  -9 2629.05 504.828   1
  -3   1 -10 138021. 3936.00   1
  -3  -1 -11 4738.36 818.893   1
  -3   1 -11 5516.30 784.646   1
   3  -1  11 4504.03 784.078   1
   3  -1  12 7576.05 1042.76   1
  -3  -1 -12 9748.66 1181.21   1
  -3   1 -12 9974.54 1107.65   1
  -3  -1 -13 5028.27 809.974   1
  -3   1 -13 5059.90 819.816   1
   3  -1  13 4060.29 763.294   1
   3  -1  14 14697.6 1501.54   1
  -3  -1 -14 17914.9 1511.56   1
  -3   1 -14 20071.2 1598.23   1
  -3   1 -15 9219.73 1106.38   1
  -3  -1 -15 7079.61 1007.52   1
  -3  -1 -16 3119.11 734.550   1
   3  -2   7 11696.5 1190.44   1
  -3   2  -7 11996.4 1153.09   1
   3  -2   8 32586.4 1994.62   1
  -3   2  -8 37628.0 1906.12   1
  -3   2  -9 3161.47 596.553   1
   3  -2   9 1783.43 565.422   1
  -3   2 -10 3118.09 567.774   1
   3  -2  10 1978.83 433.030   1
   3  -2  11 41595.8 2168.68   1
  -3   2 -11 45333.7 2250.10   1
   3  -2  12 37355.1 2183.08   1
  -3   2 -12 40425.6 2119.85   1
  -3  -2 -13 2391.88 591.866   1
   3  -2  13 4054.99 843.978   1
  -3   2 -13 3825.74 643.916   1
  -3  -2 -14 2475.08 592.071   1
  -3  -2 -15 3862.87 733.096   1
  -3  -2 -16 2224.11 588.852   1
  -3  -2 -17-199.952 215.888   1
  -3   3  -5 15197.0 1168.59   1
   3  -3   6 24496.9 1586.79   1
  -3   3  -6 26298.8 1611.37   1
  -3   3  -7 515.765 227.046   1
   3  -3   7 384.769 199.921   1
   3  -3   8 43188.4 2132.71   1
  -3   3  -8 46175.0 2151.34   1
  -3   3  -9 1749.76 399.619   1
   3  -3   9 1584.24 449.492   1
   3  -3  10 53608.8 2425.90   1
  -3   3 -10 51405.2 2306.13   1
  -3   3 -11 60.9724 91.7007   1
   3  -3  11 18.9277 142.850   1
   3  -3  12 17558.0 1488.83   1
  -3   3 -12 18300.8 1493.31   1
  -3   3 -13 129.440 164.609   1
  -3  -3 -13 67.0811 186.438   1
  -3  -3 -14 1122.10 402.951   1
  -3  -3 -15 5655.05 871.395   1
  -3  -3 -16 82253.1 3442.56   1
  -3   4  -3 309.323 156.811   1
   3  -4   4 4403.61 668.031   1
  -3   4  -4 4370.45 647.995   1
   3  -4   5 7684.00 856.729   1
  -3   4  -5 8278.63 856.131   1
   3  -4   6 8387.45 917.027   1
  -3   4  -6 8634.96 922.225   1
  -3   4  -7 1661.73 395.694   1
   3  -4   7 1522.67 403.657   1
   3  -4   8 48022.1 2253.02   1
  -3   4  -8 45802.9 2080.85   1
   3  -4   9 45714.3 2314.70   1
  -3   4  -9 46592.4 2158.61   1
   3  -4  10 1107.68 400.267   1
  -3   4 -10 63.5391 136.105   1
   3  -4  11 6744.13 976.814   1
  -3   4 -11 6907.19 874.255   1
  -3   4 -12 57329.9 2642.12   1
  -3  -4 -14 1263.61 468.778   1
  -3  -4 -15 666.530 214.457   1
  -3   5  -2 1365.22 356.167   1
  -3   5  -3 1914.13 397.110   1
   3  -5   3 1561.24 410.989   1
  -3   5  -4 22097.6 1458.00   1
   3  -5   5 7868.38 859.757   1
  -3   5  -5 7217.85 817.021   1
   3  -5   6 8608.01 935.171   1
  -3   5  -6 8455.06 878.687   1
  -3   5  -7 762.316 253.591   1
   3  -5   7 677.191 202.890   1
   3  -5   8 24786.0 1755.15   1
  -3   5  -8 25483.8 1573.79   1
   3  -5   9 27626.6 1882.26   1
  -3   5  -9 28693.5 1703.50   1
   3  -5  10 436.779 369.632   1
  -3   5 -10 218.437 216.242   1
  -3   5 -11 37746.5 2120.06   1
  -3   6   0 588.377 242.799   1
   3  -6   1 4488.24 720.249   1
  -3   6  -1 5735.52 658.158   1
  -3   6  -2 22738.7 1419.21   1
  -3   6  -3 16258.6 1226.80   1
  -3   6  -4 2592.15 503.681   1
   3  -6   4 1570.15 368.658   1
   3  -6   5 76303.9 2844.72   1
  -3   6  -5 77297.5 2622.78   1
   3  -6   6 70036.5 2877.63   1
  -3   6  -6 71020.9 2559.35   1
   3  -6   7 41171.8 2234.96   1
  -3   6  -7 42884.1 2053.28   1
   3  -6   8 4510.38 792.508   1
  -3   6  -8 5112.17 726.341   1
  -3   6  -9 20650.2 1531.35   1
   3  -6   9 19096.3 1611.82   1
  -3   6 -10 854.316 340.662   1
  -3   7   3 3414.93 450.218   1
  -3   7   2 30390.9 1341.98   1
  -3   7   1 53489.1 1911.25   1
  -3   7   0 26114.5 1381.24   1
   3  -7   1 9251.60 979.005   1
  -3   7  -1 10926.8 908.178   1
   3  -7   2 17980.9 1332.13   1
  -3   7  -2 19659.9 1235.16   1
  -3   7  -3 106.374 119.017   1
   3  -7   3-50.5538 170.038   1
   3  -7   4 42388.1 2113.93   1
  -3   7  -4 45035.8 1971.24   1
   3  -7   5 296.273 201.096   1
  -3   7  -5 246.671 149.102   1
   3  -7   6 22264.0 1697.15   1
  -3   7  -6 24973.8 1615.07   1
  -3   7  -7 43119.4 2167.61   1
   3  -7   7 37669.8 2236.54   1
   3  -7   8 1669.96 447.702   1
  -3   7  -8 2885.55 598.875   1
  -3   7  -9 7370.62 930.000   1
  -3   8   4 226.524 158.878   1
  -3   8   3 97.7648 109.245   1
  -3   8   2 9629.22 762.547   1
  -3   8   1 62210.4 1963.40   1
   3  -8   0 11525.9 1132.67   1
  -3   8   0 12241.4 912.738   1
   3  -8   1 36083.8 1906.64   1
  -3   8  -1 38974.4 1668.87   1
   3  -8   2 10961.1 1077.30   1
  -3   8  -2 11554.9 974.626   1
   3  -8   3 37128.3 2057.17   1
  -3   8  -3 42762.5 1931.27   1
  -3   8  -4 29361.6 1672.25   1
   3  -8   4 22782.9 1689.33   1
   3  -8   5 211.273 220.191   1
  -3   8  -5 375.256 209.312   1
   3  -8   6 2907.33 608.758   1
  -3   8  -6 4401.53 680.008   1
  -3   8  -7 155.513 146.293   1
  -3   9   4 2224.60 371.974   1
  -3   9   2 3303.24 461.433   1
   3  -9  -1 768.256 319.690   1
  -3   9   1 960.468 254.735   1
  -3   9   0 10274.9 877.108   1
   3  -9   0 8351.95 986.211   1
  -3   9  -1 2079.71 399.210   1
   3  -9   1 1625.58 444.312   1
  -3   9  -2 26.9753 111.828   1
   3  -9   2-537.704 375.791   1
  -3   9  -3 35698.3 1813.48   1
   3  -9   3 30133.3 2087.91   1
   3  -9   4 60.7610 177.033   1
  -3   9  -4 128.235 96.3255   1
  -3   9  -5 30029.5 1772.43   1
   3  -9   5 27114.8 1972.56   1
  -3   9  -6 17794.1 1390.18   1
  -3  10   2 434.270 239.821   1
  -3  10   1 30115.1 1402.13   1
   3 -10  -1 31251.3 1958.55   1
  -3  10   0 12919.5 978.271   1
   3 -10   0 13168.3 1263.12   1
  -3  10  -1 11338.0 965.669   1
   3 -10   2 3240.02 676.727   1
  -3  10  -2 3589.22 568.406   1
   3 -10   3 44.3606 203.626   1
  -3  10  -3 129.383 172.870   1
   3 -10   4 700.740 365.184   1
  -3  10  -4 1436.57 399.185   1
  -3  10  -5-71.3692 187.523   1
  -3  11   2 31558.2 1370.39   1
   3 -11  -2 40717.2 2419.85   1
  -3  11   1 27.5396 72.4729   1
   3 -11  -1 217.161 249.412   1
  -3  11   0 120.089 124.171   1
   3 -11   0 134.680 200.472   1
  -3  11  -1 4380.11 605.295   1
   3 -11   1 4196.84 750.767   1
   3 -11   2 5178.54 932.134   1
  -3  11  -2 5291.36 682.561   1
   3 -11   3-66.2891 182.548   1
  -3  11  -3 90.7493 143.397   1
  -3  11  -4 8125.55 915.822   1
   3 -12  -2 1593.01 458.751   1
   3 -12  -1 6535.61 903.300   1
  -3  12   0-22.8155 144.647   1
   3 -12   0 28.0644 186.443   1
  -3  12  -1 8385.43 845.118   1
   3 -12   1 8527.32 1142.56   1
   3 -12   2-113.331 145.415   1
  -3  12  -2 0.93871 118.938   1
   3 -13  -1 4525.66 747.167   1
   3 -13   0 886.704 383.079   1
  -4   2 -12 1034.66 450.227   1
  -4   3 -11 22155.1 1867.63   1
   4  -4   9 31687.4 2279.64   1
  -4   4  -9 36046.5 2227.29   1
  -4   4 -10 2307.59 573.634   1
  -4   5  -7 4246.23 720.417   1
   4  -5   7 4104.63 808.051   1
  -4   5  -8 846.623 370.933   1
   4  -5   8 640.238 356.402   1
  -4   5  -9 13085.4 1291.55   1
  -4   6  -5 426.381 252.927   1
   4  -6   5 341.966 227.406   1
   4  -6   6 5970.15 955.968   1
  -4   6  -6 6432.89 926.217   1
   4  -6   7 20485.4 1738.15   1
  -4   6  -7 24513.2 1792.00   1
  -4   6  -8 660.017 320.889   1
  -4   7  -2 16601.0 1299.86   1
  -4   7  -3 18377.3 1373.82   1
  -4   7  -4 48839.9 2360.85   1
  -4   7  -5 2919.61 627.753   1
   4  -7   5 2395.76 617.431   1
  -4   7  -6 1745.53 523.895   1
   4  -7   6 1235.35 570.560   1
  -4   7  -7 9577.33 1088.40   1
  -4   8   1 129.576 152.265   1
  -4   8   0 4472.89 683.659   1
  -4   8  -1 9786.30 1018.81   1
  -4   8  -2 16788.2 1342.33   1
   4  -8   3 27893.1 2083.48   1
  -4   8  -3 36121.6 1953.60   1
  -4   8  -4 845.931 332.302   1
   4  -8   4 637.072 310.237   1
   4  -8   5 33342.6 2237.82   1
  -4   8  -5 40438.8 2150.65   1
  -4   8  -6 22150.3 1639.57   1
  -4   9   2 1880.09 376.651   1
  -4   9   0 574.781 225.179   1
  -4   9  -1 11607.2 1113.42   1
  -4   9  -2 2530.96 537.315   1
  -4   9  -3 2851.82 559.274   1
   4  -9   3 2210.40 623.269   1
  -4   9  -4-79.7853 155.911   1
   4  -9   4 122.073 123.377   1
  -4   9  -5-81.7717 105.164   1
  -4  10   3 5863.75 610.799   1
  -4  10   2 158.285 120.689   1
  -4  10   1 520.958 212.337   1
  -4  10   0 24487.7 1491.71   1
  -4  10  -1 5604.22 784.044   1
   4 -10   2 2657.44 700.549   1
  -4  10  -2 2139.55 308.043   1
  -4  10  -3 1356.90 396.139   1
  -4  11   1 947.145 297.976   1
  -4  11   0 216.841 212.818   1
  -4  11  -1 3237.06 570.256   1
  -4  11  -2 15152.9 1296.88   1
  -4  12   0 0.42226 223.459   1
  -4  12  -1 7809.86 867.380   1
  -5  11   0 81.0811 134.993   1
   0   0   0    0.00    0.00   0
TITL Enst_s0 in P2(1)/c
REM P2(1)/c (#14 in standard setting)
CELL 0.29840   4.483937   7.223996   9.348422  90.0000  90.6965  90.0000
ZERR    1.00   0.001791   0.000961   0.000644   0.0000   0.0180   0.0000
LATT  1
SYMM -x, y+1/2,-z+1/2
SFAC H B O Si Ca
UNIT 1.00 1.00 5.00 1.00 1.00
TREF
HKLF 4
END
;
_shelx_hkl_checksum              47022
loop_
_space_group_symop_operation_xyz
'x, y, z'
'-x, y+1/2, -z+1/2'
'-x, -y, -z'
'x, -y-1/2, z-1/2'
loop_
_atom_site_label
_atom_site_type_symbol
_atom_site_fract_x
_atom_site_fract_y
_atom_site_fract_z
_atom_site_U_iso_or_equiv
_atom_site_adp_type
_atom_site_occupancy
_atom_site_site_symmetry_order
_atom_site_calc_flag
_atom_site_refinement_flags_posn
Ca1 Ca 0.0048(2) 0.61039(6) 0.17001(5) 0.0116(4) Uani 1 1 d .
Si1 Si 0.4886(3) 0.28047(9) 0.08065(7) 0.0105(5) Uani 1 1 d .
B1 B 0.5838(12) 0.0827(3) -0.1552(3) 0.0090(14) Uani 1 1 d .
O1 O 0.2519(8) 0.4230(3) 0.0300(2) 0.0121(11) Uani 1 1 d .
O2 O 0.7081(8) 0.1918(3) -0.03705(19) 0.0109(10) Uani 1 1 d .
O3 O 0.7032(8) 0.3413(3) 0.21330(19) 0.0108(10) Uani 1 1 d .
O4 O 0.3006(9) 0.1027(2) 0.1404(2) 0.0126(10) Uani 1 1 d .
O5 O 0.2590(8) 0.0900(3) -0.1609(2) 0.0112(11) Uani 1 1 d D
H H 0.208(14) 0.043(4) -0.075(3) 0.002(9) Uiso 1 1 d D
loop_
_atom_site_aniso_label
_atom_site_aniso_U_11
_atom_site_aniso_U_22
_atom_site_aniso_U_33
_atom_site_aniso_U_23
_atom_site_aniso_U_13
_atom_site_aniso_U_12
Ca1 0.0141(11) 0.0126(3) 0.0080(3) 0.00028(13) -0.0063(4) -0.00040(19)
Si1 0.0128(14) 0.0118(3) 0.0069(3) -0.0003(2) -0.0074(6) 0.0001(3)
B1 0.009(4) 0.0110(8) 0.0073(8) 0.0007(8) -0.0038(18) 0.0012(10)
O1 0.014(3) 0.0140(7) 0.0086(6) 0.0007(6) -0.0058(13) 0.0025(8)
O2 0.014(3) 0.0122(6) 0.0067(6) -0.0004(6) -0.0062(12) -0.0021(7)
O3 0.012(3) 0.0144(7) 0.0057(6) 0.0000(6) -0.0062(12) -0.0015(8)
O4 0.018(3) 0.0109(7) 0.0092(6) -0.0002(5) -0.0033(13) 0.0004(7)
O5 0.008(3) 0.0163(7) 0.0089(7) 0.0016(6) -0.0070(13) 0.0002(8)
loop_
_atom_type_symbol
_atom_type_description
_atom_type_scat_dispersion_real
_atom_type_scat_dispersion_imag
_atom_type_scat_source
O O 0.0056 0.0036 'International Tables Vol C Tables 4.2.6.8 and 6.1.1.4'
Si Si 0.0522 0.0431 'International Tables Vol C Tables 4.2.6.8 and 6.1.1.4'
B B 0.0004 0.0004 'International Tables Vol C Tables 4.2.6.8 and 6.1.1.4'
Ca Ca 0.1611 0.1926 'International Tables Vol C Tables 4.2.6.8 and 6.1.1.4'
H H 0.0000 0.0000 'International Tables Vol C Tables 4.2.6.8 and 6.1.1.4'
loop_
_geom_angle_atom_site_label_1
_geom_angle_atom_site_label_2
_geom_angle_atom_site_label_3
_geom_angle
_geom_angle_site_symmetry_1
_geom_angle_site_symmetry_3
O1 Ca1 O1 71.80(14) . 3_565
O1 Ca1 O4 140.39(9) . 2
O1 Ca1 O4 110.46(13) 3_565 2
O1 Ca1 O2 76.75(11) . 3_665
O1 Ca1 O2 84.20(10) 3_565 3_665
O4 Ca1 O2 142.22(8) 2 3_665
O1 Ca1 O3 115.32(12) . 2_655
O1 Ca1 O3 138.36(8) 3_565 2_655
O4 Ca1 O3 89.60(9) 2 2_655
O2 Ca1 O3 60.19(7) 3_665 2_655
O1 Ca1 O3 83.72(11) . 1_455
O1 Ca1 O3 76.40(9) 3_565 1_455
O4 Ca1 O3 59.96(8) 2 1_455
O2 Ca1 O3 155.96(7) 3_665 1_455
O3 Ca1 O3 142.90(4) 2_655 1_455
O1 Ca1 O5 77.46(8) . 4_566
O1 Ca1 O5 136.76(7) 3_565 4_566
O4 Ca1 O5 75.95(10) 2 4_566
O2 Ca1 O5 117.57(12) 3_665 4_566
O3 Ca1 O5 82.39(7) 2_655 4_566
O3 Ca1 O5 70.59(9) 1_455 4_566
O1 Ca1 O5 140.03(8) . 3_565
O1 Ca1 O5 79.67(7) 3_565 3_565
O4 Ca1 O5 75.71(9) 2 3_565
O2 Ca1 O5 72.99(11) 3_665 3_565
O3 Ca1 O5 70.22(9) 2_655 3_565
O3 Ca1 O5 116.39(12) 1_455 3_565
O5 Ca1 O5 140.32(5) 4_566 3_565
O1 Ca1 B1 112.32(10) . 4_466
O1 Ca1 B1 95.15(12) 3_565 4_466
O4 Ca1 B1 29.66(8) 2 4_466
O2 Ca1 B1 170.27(11) 3_665 4_466
O3 Ca1 B1 116.22(9) 2_655 4_466
O3 Ca1 B1 30.36(8) 1_455 4_466
O5 Ca1 B1 69.23(12) 4_566 4_466
O5 Ca1 B1 97.33(12) 3_565 4_466
O1 Ca1 B1 96.76(13) . 3_665
O1 Ca1 B1 111.82(9) 3_565 3_665
O4 Ca1 B1 116.82(9) 2 3_665
O2 Ca1 B1 30.08(7) 3_665 3_665
O3 Ca1 B1 30.11(9) 2_655 3_665
O3 Ca1 B1 171.54(8) 1_455 3_665
O5 Ca1 B1 101.22(10) 4_566 3_665
O5 Ca1 B1 68.37(13) 3_565 3_665
B1 Ca1 B1 145.52(7) 4_466 3_665
O1 Ca1 Si1 93.61(6) . 3_565
O1 Ca1 Si1 23.32(7) 3_565 3_565
O4 Ca1 Si1 98.97(9) 2 3_565
O2 Ca1 Si1 80.94(7) 3_665 3_565
O3 Ca1 Si1 121.27(5) 2_655 3_565
O3 Ca1 Si1 86.51(6) 1_455 3_565
O5 Ca1 Si1 156.07(7) 4_566 3_565
O5 Ca1 Si1 56.54(5) 3_565 3_565
B1 Ca1 Si1 94.62(8) 4_466 3_565
B1 Ca1 Si1 101.87(6) 3_665 3_565
O1 Ca1 Si1 22.27(5) . .
O1 Ca1 Si1 92.53(8) 3_565 .
O4 Ca1 Si1 125.63(6) 2 .
O2 Ca1 Si1 86.48(9) 3_665 .
O3 Ca1 Si1 105.07(9) 2_655 .
O3 Ca1 Si1 80.41(8) 1_455 .
O5 Ca1 Si1 55.48(7) 4_566 .
O5 Ca1 Si1 158.59(8) 3_565 .
B1 Ca1 Si1 103.25(8) 4_466 .
B1 Ca1 Si1 96.82(10) 3_665 .
Si1 Ca1 Si1 115.18(3) 3_565 .
O1 Si1 O2 118.41(13) . .
O1 Si1 O3 116.86(12) . .
O2 Si1 O3 105.50(17) . .
O1 Si1 O4 105.77(18) . .
O2 Si1 O4 103.96(14) . .
O3 Si1 O4 104.78(11) . .
O1 Si1 Ca1 34.17(7) . 3_565
O2 Si1 Ca1 91.13(8) . 3_565
O3 Si1 Ca1 149.92(8) . 3_565
O4 Si1 Ca1 94.94(10) . 3_565
O1 Si1 Ca1 32.47(9) . .
O2 Si1 Ca1 148.90(7) . .
O3 Si1 Ca1 89.80(11) . .
O4 Si1 Ca1 97.81(13) . .
Ca1 Si1 Ca1 64.82(3) 3_565 .
O1 Si1 Ca1 95.56(13) . 3_665
O2 Si1 Ca1 36.90(8) . 3_665
O3 Si1 Ca1 93.98(13) . 3_665
O4 Si1 Ca1 140.62(11) . 3_665
Ca1 Si1 Ca1 84.39(3) 3_565 3_665
Ca1 Si1 Ca1 116.87(3) . 3_665
O1 Si1 Ca1 94.06(11) . 1_655
O2 Si1 Ca1 91.52(11) . 1_655
O3 Si1 Ca1 39.66(9) . 1_655
O4 Si1 Ca1 144.38(8) . 1_655
Ca1 Si1 Ca1 116.95(3) 3_565 1_655
Ca1 Si1 Ca1 83.17(3) . 1_655
Ca1 Si1 Ca1 63.11(3) 3_665 1_655
O1 Si1 Ca1 90.03(14) . 2_545
O2 Si1 Ca1 135.83(8) . 2_545
O3 Si1 Ca1 87.68(12) . 2_545
O4 Si1 Ca1 32.41(10) . 2_545
Ca1 Si1 Ca1 97.74(5) 3_565 2_545
Ca1 Si1 Ca1 70.23(3) . 2_545
Ca1 Si1 Ca1 172.67(3) 3_665 2_545
Ca1 Si1 Ca1 121.31(3) 1_655 2_545
O1 Si1 Ca1 152.11(8) . 2_645
O2 Si1 Ca1 85.28(9) . 2_645
O3 Si1 Ca1 37.09(8) . 2_645
O4 Si1 Ca1 80.11(10) . 2_645
Ca1 Si1 Ca1 172.98(2) 3_565 2_645
Ca1 Si1 Ca1 120.57(3) . 2_645
Ca1 Si1 Ca1 96.24(5) 3_665 2_645
Ca1 Si1 Ca1 69.27(3) 1_655 2_645
Ca1 Si1 Ca1 80.79(3) 2_545 2_645
O4 B1 O3 107.2(3) 3_655 4_565
O4 B1 O5 113.3(3) 3_655 .
O3 B1 O5 109.5(2) 4_565 .
O4 B1 O2 107.1(2) 3_655 .
O3 B1 O2 107.1(3) 4_565 .
O5 B1 O2 112.3(3) . .
O4 B1 Ca1 50.6(2) 3_655 4_665
O3 B1 Ca1 56.71(18) 4_565 4_665
O5 B1 Ca1 131.29(16) . 4_665
O2 B1 Ca1 116.4(3) . 4_665
O4 B1 Ca1 119.2(3) 3_655 3_665
O3 B1 Ca1 55.11(16) 4_565 3_665
O5 B1 Ca1 127.50(16) . 3_665
O2 B1 Ca1 52.02(18) . 3_665
Ca1 B1 Ca1 85.47(15) 4_665 3_665
Si1 O1 Ca1 125.26(11) . .
Si1 O1 Ca1 122.51(12) . 3_565
Ca1 O1 Ca1 108.20(14) . 3_565
B1 O2 Si1 119.9(3) . .
B1 O2 Ca1 97.9(2) . 3_665
Si1 O2 Ca1 118.10(10) . 3_665
B1 O3 Si1 121.8(3) 4_566 .
B1 O3 Ca1 94.77(15) 4_566 2_645
Si1 O3 Ca1 118.62(10) . 2_645
B1 O3 Ca1 92.92(17) 4_566 1_655
Si1 O3 Ca1 114.85(10) . 1_655
Ca1 O3 Ca1 109.68(13) 2_645 1_655
B1 O4 Si1 125.1(4) 3_655 .
B1 O4 Ca1 99.7(2) 3_655 2_545
Si1 O4 Ca1 124.67(12) . 2_545
B1 O5 Ca1 117.70(19) . 4_565
B1 O5 Ca1 120.76(16) . 3_565
Ca1 O5 Ca1 106.29(10) 4_565 3_565
B1 O5 H 102(4) . .
Ca1 O5 H 104(3) 4_565 .
Ca1 O5 H 104(3) 3_565 .
loop_
_geom_bond_atom_site_label_1
_geom_bond_atom_site_label_2
_geom_bond_distance
_geom_bond_site_symmetry_2
Ca1 O1 2.193(3) .
Ca1 O1 2.197(2) 3_565
Ca1 O4 2.254(4) 2
Ca1 O2 2.299(3) 3_665
Ca1 O3 2.378(2) 2_655
Ca1 O3 2.405(3) 1_455
Ca1 O5 2.419(2) 4_566
Ca1 O5 2.467(3) 3_565
Ca1 B1 2.873(5) 4_466
Ca1 B1 2.888(4) 3_665
Ca1 Si1 3.2986(13) 3_565
Ca1 Si1 3.3360(15) .
Si1 O1 1.548(3) .
Si1 O2 1.617(4) .
Si1 O3 1.621(2) .
Si1 O4 1.638(3) .
Si1 Ca1 3.2986(13) 3_565
Si1 Ca1 3.3768(17) 3_665
Si1 Ca1 3.4187(14) 1_655
Si1 Ca1 3.4586(16) 2_545
Si1 Ca1 3.4604(13) 2_645
B1 O4 1.442(4) 3_655
B1 O3 1.454(5) 4_565
B1 O5 1.458(7) .
B1 O2 1.462(3) .
B1 Ca1 2.873(5) 4_665
B1 Ca1 2.888(4) 3_665
O1 Ca1 2.197(2) 3_565
O2 Ca1 2.299(3) 3_665
O3 B1 1.454(5) 4_566
O3 Ca1 2.378(2) 2_645
O3 Ca1 2.405(3) 1_655
O4 B1 1.442(4) 3_655
O4 Ca1 2.254(4) 2_545
O5 Ca1 2.419(2) 4_565
O5 Ca1 2.467(3) 3_565
O5 H 0.90(2) .
