#------------------------------------------------------------------------------
#$Date: 2019-11-23 20:43:55 +0200 (Sat, 23 Nov 2019) $
#$Revision: 234910 $
#$URL: file:///home/coder/svn-repositories/cod/cif/4/34/95/4349599.cif $
#------------------------------------------------------------------------------
#
# This file is available in the Crystallography Open Database (COD),
# http://www.crystallography.net/
#
# All data on this site have been placed in the public domain by the
# contributors.
#
data_4349599
loop_
_publ_author_name
'Donsbach, C.'
'Dehnen, S.'
_publ_section_title
;
 Syntheses and properties of selenido mercurates with
 [HgSe2]2&#x2212;anions in diverse chemical environments
;
_journal_issue                   2
_journal_name_full               'Inorganic Chemistry Frontiers'
_journal_page_first              336
_journal_paper_doi               10.1039/C6QI00481D
_journal_volume                  4
_journal_year                    2017
_chemical_formula_moiety         '0.25(Cs8 H16 Hg4 O8 Se8)'
_chemical_formula_sum            'Cs2 H4 Hg O2 Se2'
_chemical_formula_weight         660.36
_space_group_crystal_system      orthorhombic
_space_group_IT_number           66
_space_group_name_Hall           '-C 2 2c'
_space_group_name_H-M_alt        'C c c m'
_atom_sites_solution_primary     dual
_audit_creation_date             2016-10-06
_audit_creation_method
;
Olex2 1.2
(compiled 2016.09.09 svn.r3337 for OlexSys, GUI svn.r5227)
;
_audit_update_record
;
2016-11-02 deposited with the CCDC.
2016-12-07 downloaded from the CCDC.
;
_cell_angle_alpha                90
_cell_angle_beta                 90
_cell_angle_gamma                90
_cell_formula_units_Z            4
_cell_length_a                   7.5853(8)
_cell_length_b                   16.7226(14)
_cell_length_c                   7.0333(6)
_cell_measurement_reflns_used    2900
_cell_measurement_temperature    100
_cell_measurement_theta_max      29.615
_cell_measurement_theta_min      2.435
_cell_volume                     892.15(14)
_computing_molecular_graphics    'Olex2 (Dolomanov et al., 2009)'
_computing_publication_material  'Olex2 (Dolomanov et al., 2009)'
_computing_structure_refinement  'ShelXL (Sheldrick, 2015)'
_computing_structure_solution    'ShelXT (Sheldrick, 2015)'
_diffrn_ambient_temperature      100
_diffrn_measured_fraction_theta_full 0.995
_diffrn_measured_fraction_theta_max 0.996
_diffrn_measurement_device_type  'STOE IPDS-2T'
_diffrn_measurement_method       '\w scans'
_diffrn_radiation_type           MoK\a
_diffrn_radiation_wavelength     0.71073
_diffrn_reflns_av_R_equivalents  0.1042
_diffrn_reflns_av_unetI/netI     0.0635
_diffrn_reflns_Laue_measured_fraction_full 0.995
_diffrn_reflns_Laue_measured_fraction_max 0.996
_diffrn_reflns_limit_h_max       8
_diffrn_reflns_limit_h_min       -9
_diffrn_reflns_limit_k_max       18
_diffrn_reflns_limit_k_min       -21
_diffrn_reflns_limit_l_max       7
_diffrn_reflns_limit_l_min       -8
_diffrn_reflns_number            1661
_diffrn_reflns_point_group_measured_fraction_full 0.995
_diffrn_reflns_point_group_measured_fraction_max 0.996
_diffrn_reflns_theta_full        25.242
_diffrn_reflns_theta_max         26.986
_diffrn_reflns_theta_min         2.436
_diffrn_standards_number         0
_exptl_absorpt_coefficient_mu    33.378
_exptl_absorpt_correction_T_max  0.5927
_exptl_absorpt_correction_T_min  0.0304
_exptl_absorpt_correction_type   numerical
_exptl_absorpt_process_details   'STOE X-Area'
_exptl_crystal_colour            yellow
_exptl_crystal_colour_primary    yellow
_exptl_crystal_density_diffrn    4.888
_exptl_crystal_description       needle
_exptl_crystal_F_000             1097
_exptl_crystal_size_max          0.28
_exptl_crystal_size_mid          0.03
_exptl_crystal_size_min          0.02
_refine_diff_density_max         3.057
_refine_diff_density_min         -4.479
_refine_diff_density_rms         0.608
_refine_ls_extinction_coef       0.0039(6)
_refine_ls_extinction_expression Fc^*^=kFc[1+0.001xFc^2^\l^3^/sin(2\q)]^-1/4^
_refine_ls_extinction_method     'SHELXL-2014/7 (Sheldrick 2014'
_refine_ls_goodness_of_fit_ref   1.076
_refine_ls_hydrogen_treatment    undef
_refine_ls_matrix_type           full
_refine_ls_number_parameters     22
_refine_ls_number_reflns         532
_refine_ls_number_restraints     0
_refine_ls_restrained_S_all      1.076
_refine_ls_R_factor_all          0.0594
_refine_ls_R_factor_gt           0.0564
_refine_ls_shift/su_max          0.000
_refine_ls_shift/su_mean         0.000
_refine_ls_structure_factor_coef Fsqd
_refine_ls_weighting_details
'w=1/[\s^2^(Fo^2^)+(0.1008P)^2^] where P=(Fo^2^+2Fc^2^)/3'
_refine_ls_weighting_scheme      calc
_refine_ls_wR_factor_gt          0.1406
_refine_ls_wR_factor_ref         0.1448
_reflns_Friedel_coverage         0.000
_reflns_number_gt                479
_reflns_number_total             532
_reflns_threshold_expression     'I > 2\s(I)'
_iucr_refine_instructions_details
;

    compound2.res created by SHELXL-2014/7

TITL compound2_a.res in Cccm
REM Old TITL MD041
REM SHELXT solution in Cccm
REM R1 0.251, Rweak 0.002, Alpha 0.008, Orientation as input
REM Formula found by SHELXT: Cs2 Hg Se2 O2
CELL 0.71073 7.5853 16.7226 7.0333 90 90 90
ZERR 4 0.0008 0.0014 0.0006 0 0 0
LATT 7
SYMM -X,-Y,+Z
SYMM -X,+Y,0.5-Z
SYMM +X,-Y,0.5-Z
SFAC Cs Hg O Se H
UNIT 8 4 8 8 1
 
L.S. 10
PLAN  20
TEMP -173.15
BOND $H
list 4
fmap 2
acta
REM <olex2.extras>
REM <HklSrc "%.\\compound2.hkl">
REM </olex2.extras>
 
WGHT    0.100800
EXTI    0.003878
FVAR       0.18008
HG1   2    0.500000    0.500000    0.750000    10.25000    0.03486    0.03524 =
         0.02544    0.00000    0.00000    0.00000
CS1   1    0.836807    0.370504    0.500000    10.50000    0.03489    0.03696 =
         0.02832    0.00000    0.00000    0.00135
SE1   4    0.308694    0.415130    0.500000    10.50000    0.03438    0.03600 =
         0.02449    0.00000    0.00000   -0.00247
O1    3    1.000000    0.234287    0.250000    10.50000    0.05356    0.03689 =
         0.03553    0.00000   -0.00056    0.00000
HKLF 4
 
REM  compound2_a.res in Cccm
REM R1 =  0.0564 for     479 Fo > 4sig(Fo)  and  0.0594 for all     532 data
REM     22 parameters refined using      0 restraints
 
END  
     
WGHT      0.1008      0.0000 

REM Highest difference peak  3.057,  deepest hole -4.479,  1-sigma level  0.608
Q1    1   0.3601  0.4917  0.6405  11.00000  0.05    1.94
Q2    1   0.2773  0.4903  0.5000  10.50000  0.05    1.65
Q3    1   1.0000  0.2748  0.2500  10.50000  0.05    1.45
Q4    1   0.3977  0.5000  0.7500  10.50000  0.05    1.38
Q5    1   0.3625  0.5269  0.5000  10.50000  0.05    1.35
Q6    1   0.8786  0.4744  0.5000  10.50000  0.05    1.32
Q7    1   0.1582  0.3706  0.5000  10.50000  0.05    1.32
Q8    1   0.7142  0.3696  0.5927  11.00000  0.05    1.31
Q9    1   0.4538  0.4334  0.6256  11.00000  0.05    1.22
Q10   1   0.9515  0.3748  0.4143  11.00000  0.05    1.21
Q11   1   1.1058  0.2514  0.0651  11.00000  0.05    1.14
Q12   1   0.8887  0.4331  0.3509  11.00000  0.05    1.10
Q13   1   0.1716  0.4296  0.4180  11.00000  0.05    1.09
Q14   1   0.7880  0.4496  0.5000  10.50000  0.05    1.08
Q15   1   0.4544  0.4420  0.8741  11.00000  0.05    1.04
Q16   1   1.0000  0.3967  0.2500  10.50000  0.05    1.04
Q17   1   1.0612  0.1351  0.1767  11.00000  0.05    1.03
Q18   1   0.4074  0.3747  0.6673  11.00000  0.05    1.01
Q19   1   0.1652  0.5000  0.2500  10.50000  0.05    0.95
Q20   1   1.0230  0.1919  0.3484  11.00000  0.05    0.91

  REM The information below was added by Olex2.
  REM
  REM R1 = 0.0564 for 479 Fo > 4sig(Fo) and 0.0594 for all 1763 data
  REM n/a parameters refined using n/a restraints
  REM Highest difference peak 3.06, deepest hole -4.48
  REM Mean Shift 0, Max Shift 0.000.
  
  REM +++ Tabular Listing of Refinement Information +++
  REM R1_all = 0.0594
  REM R1_gt = 0.0564
  REM wR_ref = 0.1448
  REM GOOF = 1.076
  REM Shift_max = 0.000
  REM Shift_mean = 0
  REM Reflections_all = 1763
  REM Reflections_gt = 479
  REM Parameters = n/a
  REM Hole = -4.48
  REM Peak = 3.06
  REM Flack = n/a
  
  
;
_cod_data_source_file            c6qi00481d1.cif
_cod_data_source_block           compound2
_cod_database_code               4349599
_shelx_space_group_comment
;
The symmetry employed for this shelxl refinement is uniquely defined
by the following loop, which should always be used as a source of
symmetry information in preference to the above space-group names.
They are only intended as comments.
;
_olex2_refinement_description
;
;
_shelx_shelxl_version_number     2014/7
_olex2_submission_special_instructions 'No special instructions were received'
loop_
_space_group_symop_operation_xyz
'x, y, z'
'-x, -y, z'
'-x, y, -z+1/2'
'x, -y, -z+1/2'
'x+1/2, y+1/2, z'
'-x+1/2, -y+1/2, z'
'-x+1/2, y+1/2, -z+1/2'
'x+1/2, -y+1/2, -z+1/2'
'-x, -y, -z'
'x, y, -z'
'x, -y, z-1/2'
'-x, y, z-1/2'
'-x+1/2, -y+1/2, -z'
'x+1/2, y+1/2, -z'
'x+1/2, -y+1/2, z-1/2'
'-x+1/2, y+1/2, z-1/2'
loop_
_atom_site_label
_atom_site_type_symbol
_atom_site_fract_x
_atom_site_fract_y
_atom_site_fract_z
_atom_site_U_iso_or_equiv
_atom_site_adp_type
_atom_site_occupancy
_atom_site_site_symmetry_order
_atom_site_calc_flag
_atom_site_refinement_flags_posn
_atom_site_refinement_flags_adp
_atom_site_refinement_flags_occupancy
Hg1 Hg 0.5000 0.5000 0.7500 0.0318(5) Uani 1 4 d S T P
Cs1 Cs 0.83681(13) 0.37050(6) 0.5000 0.0334(5) Uani 1 2 d S T P
Se1 Se 0.3087(2) 0.41513(10) 0.5000 0.0316(6) Uani 1 2 d S T P
O1 O 1.0000 0.2343(9) 0.2500 0.042(3) Uani 1 2 d S T P
loop_
_atom_site_aniso_label
_atom_site_aniso_U_11
_atom_site_aniso_U_22
_atom_site_aniso_U_33
_atom_site_aniso_U_23
_atom_site_aniso_U_13
_atom_site_aniso_U_12
Hg1 0.0349(7) 0.0352(7) 0.0254(6) 0.000 0.000 0.000
Cs1 0.0349(8) 0.0370(7) 0.0283(7) 0.000 0.000 0.0014(4)
Se1 0.0344(9) 0.0360(10) 0.0245(8) 0.000 0.000 -0.0025(6)
O1 0.054(9) 0.037(8) 0.036(7) 0.000 -0.001(4) 0.000
loop_
_atom_type_symbol
_atom_type_description
_atom_type_scat_dispersion_real
_atom_type_scat_dispersion_imag
_atom_type_scat_source
Cs Cs -0.3680 2.1192 'International Tables Vol C Tables 4.2.6.8 and 6.1.1.4'
Hg Hg -2.3894 9.2266 'International Tables Vol C Tables 4.2.6.8 and 6.1.1.4'
O O 0.0106 0.0060 'International Tables Vol C Tables 4.2.6.8 and 6.1.1.4'
Se Se -0.0929 2.2259 'International Tables Vol C Tables 4.2.6.8 and 6.1.1.4'
H H 0.0000 0.0000 'International Tables Vol C Tables 4.2.6.8 and 6.1.1.4'
loop_
_geom_angle_atom_site_label_1
_geom_angle_atom_site_label_2
_geom_angle_atom_site_label_3
_geom_angle
_geom_angle_site_symmetry_1
_geom_angle_site_symmetry_3
Cs1 Hg1 Cs1 124.600(14) 11_566 3_656
Cs1 Hg1 Cs1 95.03(3) 3_656 9_666
Cs1 Hg1 Cs1 110.15(3) 11_566 9_666
Cs1 Hg1 Cs1 95.03(3) 11_566 .
Cs1 Hg1 Cs1 124.600(14) 9_666 .
Cs1 Hg1 Cs1 110.15(3) 3_656 .
Se1 Hg1 Cs1 166.38(2) 9_666 3_656
Se1 Hg1 Cs1 76.00(4) 3_656 3_656
Se1 Hg1 Cs1 68.48(4) 11_566 3_656
Se1 Hg1 Cs1 68.71(2) . 3_656
Se1 Hg1 Cs1 166.38(2) 11_566 .
Se1 Hg1 Cs1 68.48(4) 3_656 11_566
Se1 Hg1 Cs1 166.38(2) . 11_566
Se1 Hg1 Cs1 76.00(4) 11_566 11_566
Se1 Hg1 Cs1 68.71(2) 3_656 .
Se1 Hg1 Cs1 68.71(2) 9_666 11_566
Se1 Hg1 Cs1 76.00(4) . .
Se1 Hg1 Cs1 76.00(4) 9_666 9_666
Se1 Hg1 Cs1 68.48(4) . 9_666
Se1 Hg1 Cs1 166.38(2) 3_656 9_666
Se1 Hg1 Cs1 68.71(2) 11_566 9_666
Se1 Hg1 Cs1 68.48(4) 9_666 .
Se1 Hg1 Se1 114.58(7) 11_566 .
Se1 Hg1 Se1 116.19(6) 3_656 .
Se1 Hg1 Se1 114.58(7) 3_656 9_666
Se1 Hg1 Se1 98.20(4) 9_666 .
Se1 Hg1 Se1 98.20(4) 3_656 11_566
Se1 Hg1 Se1 116.19(6) 11_566 9_666
Hg1 Cs1 Hg1 55.400(14) 9_666 .
Hg1 Cs1 Cs1 109.54(3) . 13_656
Hg1 Cs1 Cs1 109.54(3) 9_666 13_656
Hg1 Cs1 Se1 39.751(18) 9_666 .
Hg1 Cs1 Se1 39.751(18) . .
Se1 Cs1 Hg1 122.98(3) 1_655 .
Se1 Cs1 Hg1 41.76(2) 9_666 9_666
Se1 Cs1 Hg1 41.71(2) 3_656 .
Se1 Cs1 Hg1 41.76(2) 9_666 .
Se1 Cs1 Hg1 97.06(3) 3_656 9_666
Se1 Cs1 Hg1 97.06(3) 3_655 .
Se1 Cs1 Hg1 122.98(3) 1_655 9_666
Se1 Cs1 Hg1 41.71(2) 3_655 9_666
Se1 Cs1 Cs1 95.59(3) 3_656 13_656
Se1 Cs1 Cs1 119.87(4) 1_655 13_656
Se1 Cs1 Cs1 82.46(4) . 13_656
Se1 Cs1 Cs1 95.59(3) 3_655 13_656
Se1 Cs1 Cs1 144.79(4) 9_666 13_656
Se1 Cs1 Se1 73.98(3) 9_666 3_656
Se1 Cs1 Se1 104.29(3) 1_655 3_656
Se1 Cs1 Se1 71.04(3) 3_656 .
Se1 Cs1 Se1 73.98(3) 9_666 3_655
Se1 Cs1 Se1 71.04(3) 3_655 .
Se1 Cs1 Se1 104.29(3) 1_655 3_655
Se1 Cs1 Se1 95.34(4) 1_655 9_666
Se1 Cs1 Se1 157.67(5) 1_655 .
Se1 Cs1 Se1 62.33(4) 9_666 .
Se1 Cs1 Se1 138.50(5) 3_655 3_656
O1 Cs1 Hg1 114.98(8) . 9_666
O1 Cs1 Hg1 160.75(10) . .
O1 Cs1 Hg1 64.4(2) 13_656 .
O1 Cs1 Hg1 64.4(2) 6_655 9_666
O1 Cs1 Hg1 114.98(8) 10_556 .
O1 Cs1 Hg1 91.53(14) 6_655 .
O1 Cs1 Hg1 160.76(10) 10_556 9_666
O1 Cs1 Hg1 91.53(14) 13_656 9_666
O1 Cs1 Cs1 55.36(18) 10_556 13_656
O1 Cs1 Cs1 46.3(2) 13_656 13_656
O1 Cs1 Cs1 46.3(2) 6_655 13_656
O1 Cs1 Cs1 55.36(18) . 13_656
O1 Cs1 Se1 54.94(14) 13_656 3_656
O1 Cs1 Se1 143.37(8) 6_655 1_655
O1 Cs1 Se1 141.74(16) 10_556 3_655
O1 Cs1 Se1 105.0(2) 6_655 9_666
O1 Cs1 Se1 141.74(16) . 3_656
O1 Cs1 Se1 76.21(11) . 1_655
O1 Cs1 Se1 74.66(12) 10_556 3_656
O1 Cs1 Se1 52.05(15) 6_655 .
O1 Cs1 Se1 121.44(7) 10_556 .
O1 Cs1 Se1 52.05(15) 13_656 .
O1 Cs1 Se1 121.44(7) . .
O1 Cs1 Se1 54.94(14) 6_655 3_655
O1 Cs1 Se1 110.41(3) 6_655 3_656
O1 Cs1 Se1 110.41(3) 13_656 3_655
O1 Cs1 Se1 144.22(17) . 9_666
O1 Cs1 Se1 143.37(8) 13_656 1_655
O1 Cs1 Se1 76.21(11) 10_556 1_655
O1 Cs1 Se1 144.22(17) 10_556 9_666
O1 Cs1 Se1 74.66(12) . 3_655
O1 Cs1 Se1 105.0(2) 13_656 9_666
O1 Cs1 O1 68.3(3) 10_556 .
O1 Cs1 O1 59.16(14) 6_655 13_656
O1 Cs1 O1 101.70(4) . 13_656
O1 Cs1 O1 101.70(4) 10_556 6_655
O1 Cs1 O1 69.43(7) 10_556 13_656
O1 Cs1 O1 69.43(7) . 6_655
Hg1 Se1 Hg1 81.80(4) . 9_666
Hg1 Se1 Cs1 151.13(5) 9_666 3_656
Hg1 Se1 Cs1 64.25(4) 9_666 .
Hg1 Se1 Cs1 129.56(4) . 1_455
Hg1 Se1 Cs1 151.13(5) . 3_655
Hg1 Se1 Cs1 129.56(4) 9_666 1_455
Hg1 Se1 Cs1 69.585(15) . 3_656
Hg1 Se1 Cs1 69.75(4) . 9_666
Hg1 Se1 Cs1 64.25(4) . .
Hg1 Se1 Cs1 69.75(4) 9_666 9_666
Hg1 Se1 Cs1 69.585(14) 9_666 3_655
Cs1 Se1 Cs1 157.67(5) 1_455 .
Cs1 Se1 Cs1 84.67(4) 1_455 9_666
Cs1 Se1 Cs1 104.61(3) 3_655 .
Cs1 Se1 Cs1 70.86(3) 1_455 3_656
Cs1 Se1 Cs1 138.50(5) 3_655 3_656
Cs1 Se1 Cs1 117.66(4) 9_666 .
Cs1 Se1 Cs1 70.86(3) 1_455 3_655
Cs1 Se1 Cs1 104.61(3) 3_656 .
Cs1 Se1 Cs1 95.93(3) 9_666 3_655
Cs1 Se1 Cs1 95.93(3) 9_666 3_656
Cs1 O1 Cs1 86.7(4) 3_755 .
Cs1 O1 Cs1 156.7(3) . 15
Cs1 O1 Cs1 78.30(4) 3_755 15
Cs1 O1 Cs1 156.7(3) 3_755 13_656
Cs1 O1 Cs1 121.1(4) 13_656 15
Cs1 O1 Cs1 78.30(4) . 13_656
loop_
_geom_bond_atom_site_label_1
_geom_bond_atom_site_label_2
_geom_bond_distance
_geom_bond_site_symmetry_2
Hg1 Cs1 3.7826(9) 11_566
Hg1 Cs1 3.7826(9) .
Hg1 Cs1 3.7826(9) 3_656
Hg1 Cs1 3.7826(9) 9_666
Hg1 Se1 2.6854(12) 3_656
Hg1 Se1 2.6855(12) .
Hg1 Se1 2.6854(12) 11_566
Hg1 Se1 2.6854(12) 9_666
Cs1 Hg1 3.7826(9) 9_666
Cs1 Cs1 4.240(2) 13_656
Cs1 Se1 4.075(2) .
Cs1 Se1 3.7606(7) 3_655
Cs1 Se1 3.7606(7) 3_656
Cs1 Se1 3.656(2) 1_655
Cs1 Se1 3.751(2) 9_666
Cs1 O1 3.562(7) 6_655
Cs1 O1 3.133(11) 10_556
Cs1 O1 3.133(11) .
Cs1 O1 3.562(7) 13_656
Se1 Hg1 2.6855(12) 9_666
Se1 Cs1 3.751(2) 9_666
Se1 Cs1 3.7606(7) 3_656
Se1 Cs1 3.7606(7) 3_655
Se1 Cs1 3.656(2) 1_455
O1 Cs1 3.133(11) 3_755
O1 Cs1 3.562(7) 15
O1 Cs1 3.562(7) 13_656
loop_
_refln_index_h
_refln_index_k
_refln_index_l
_refln_F_squared_meas
_refln_F_squared_sigma
_refln_scale_group_code
-7 5 5 177.89 7.66 0
-6 6 -4 55.79 7.84 0
-3 -7 -8 467.34 10.84 0
-3 -3 -7 24.72 4.62 0
-3 -3 7 54.85 4.53 0
-3 3 4 10.76 3.57 0
-3 5 -2 1652.37 15.32 0
-2 -6 7 279.57 6.19 0
-2 0 -5 0.91 3.61 0
-2 0 5 1.9 3.39 0
-1 -11 7 70.07 4.7 0
-1 -5 -6 413.34 6.88 0
-1 -5 6 376.55 6.04 0
0 -10 -6 211.15 5.88 0
0 -10 6 180.34 5.55 0
0 -6 5 0.77 3.37 0
1 -17 -5 37.17 4.99 0
1 -15 5 131.11 5.73 0
1 -13 -5 502.22 8.34 0
2 -16 -3 144.22 6.99 0
2 -14 -3 81.88 5.48 0
-7 3 6 25.3 5.52 0
-7 7 3 4.83 5.15 0
-5 5 4 195.02 6.57 0
-5 7 -2 1667.97 21.11 0
-4 -2 7 592.89 9.07 0
-4 4 4 1959.13 14.65 0
-2 -2 -6 498.38 7.35 0
-2 4 -1 150.23 7.69 0
-1 -13 7 159.53 6.48 0
-1 -9 -7 320.77 7.56 0
-1 -3 5 5.36 3.72 0
-1 1 -3 317.12 6.45 0
0 -12 6 486.29 7.85 0
0 -2 3 2.56 4.17 0
1 -11 -5 214.54 5.5 0
1 -7 -4 22.59 3.33 0
1 -5 -3 1804.45 11.84 0
2 -18 -3 82.74 7 0
2 -12 -3 42.83 4.44 0
-6 0 7 -1.51 5.06 0
-6 4 5 61.41 5.6 0
-6 8 -1 79.51 11.5 0
-5 -1 7 92.87 5.8 0
-5 1 -7 41.62 6.45 0
-5 3 -6 49.89 6.12 0
-4 2 -6 142.84 6.98 0
-3 -5 -8 93.47 5.84 0
-3 -1 6 263.38 5.56 0
-3 1 5 44.06 4.24 0
-2 -4 -7 9.61 4.64 0
-2 2 -4 399.4 6.68 0
-1 -1 4 859.1 7.4 0
0 -14 6 6.54 3.86 0
0 -8 -6 27.46 4.07 0
0 -4 4 391.58 5.84 0
1 -9 4 465.54 6.37 0
2 -8 -1 66.12 6.28 0
-6 2 6 127.63 6.54 0
-6 4 -6 422.47 14.01 0
-5 1 6 131.19 6.07 0
-5 3 5 91.37 5.1 0
-5 7 1 168.09 9.82 0
-4 0 -7 -2.38 3.26 0
-4 0 6 1150.73 11.75 0
-4 2 5 1719.98 11.89 0
-3 -5 7 4.09 4.29 0
-3 1 -6 180.33 7 0
-2 -8 -8 55.51 5.1 0
-2 -8 7 9.83 3.81 0
-2 -4 6 25.91 4.26 0
-1 -7 -7 6.4 3.74 0
-1 -7 6 1118.97 10.89 0
0 -8 5 -0.81 3.34 0
0 0 -1 1.08 5.87 0
1 -9 -5 1134.86 10.2 0
2 -18 2 7.19 5.32 0
2 -12 2 715.68 10.58 0
-8 8 -3 8.47 6.92 0
-8 8 1 14.69 8.69 0
-7 7 -4 50.68 6.62 0
-5 5 -5 148.31 7.98 0
-4 -2 -8 80.62 6.7 0
-4 4 -5 72.24 5.24 0
-4 6 -3 702.84 10.66 0
-3 -1 -7 5.12 4.27 0
-2 -10 7 45.88 4.48 0
-2 2 3 3922.94 17.11 0
-1 -3 -6 116.71 4.73 0
-1 -1 -5 111.22 4.59 0
0 -12 -7 -0.21 4.68 0
0 -4 -5 0.74 3.15 0
0 -2 -4 2012.76 10.8 0
1 -11 4 1653.23 12.13 0
1 -7 3 39.16 3.83 0
1 -5 2 1536.99 12.42 0
1 -3 -1 5.2 4.22 0
2 -10 -3 269.58 6.41 0
-6 6 -5 4.65 5.24 0
-5 7 -3 99.03 6.94 0
-4 -4 7 56.39 4.93 0
-3 -3 -8 4.06 4.43 0
-3 3 -5 74.75 4.57 0
-3 5 -3 10.3 3.93 0
-2 -6 -8 236.96 7.18 0
-2 -2 5 2103.8 11.99 0
-2 0 -6 1934.34 14.73 0
-2 4 -2 83.76 5.18 0
-1 -9 6 695.21 8.46 0
-1 1 2 3295.55 17.77 0
0 -10 -7 -1.24 3.61 0
0 -6 -6 593.68 11.19 0
1 -17 4 52.03 5.07 0
1 -15 -6 172.96 7.56 0
1 -13 -6 49.2 4.83 0
2 -16 -4 123.5 6.9 0
2 -16 2 450.12 9.35 0
2 -14 -4 71.76 5.32 0
2 -14 2 1027.43 12.62 0
-7 5 4 739.56 12.69 0
-6 -2 7 8.21 5.37 0
-6 8 -2 3.69 6.3 0
-5 -3 7 43.64 5.36 0
-3 -7 7 9.73 3.49 0
-3 -3 6 1548.78 12.36 0
-3 5 1 14.21 5.11 0
-2 -12 7 9.63 3.92 0
-2 -2 -7 516.95 9.49 0
-2 0 4 14.68 3.95 0
-1 -9 -8 54.15 5.32 0
-1 -5 -7 316.98 6.19 0
-1 -5 5 1052.93 9.35 0
-1 1 -4 839.22 8.21 0
0 -10 5 2.32 3.19 0
0 0 -2 2250.2 14.78 0
1 -15 4 15.94 4.05 0
1 -13 4 969.99 9.82 0
1 -7 -5 15.17 3.36 0
1 -5 -4 1590.22 10.19 0
1 -3 -2 303.05 6.58 0
2 -20 1 74.65 9.94 0
2 -18 -4 335.71 10.55 0
2 -12 -4 414.48 7.79 0
2 -8 -2 1855.29 14.45 0
-7 1 6 467.65 11.01 0
-7 3 5 -2.74 5.46 0
-5 3 -7 28.88 6.01 0
-4 -6 7 168.09 6.47 0
-4 2 -7 471.12 9 0
-4 6 1 1061.33 17.2 0
-3 -9 7 13.06 4.67 0
-3 3 3 207.24 5.55 0
-2 -6 6 82.7 3.68 0
-2 2 -5 1567.32 12.24 0
-1 -13 6 55.4 4.99 0
-1 -11 6 9.45 3.68 0
0 -12 5 -0.81 3.51 0
0 -8 -7 1.44 4.1 0
0 -6 4 110.28 4.06 0
1 -11 -6 4.93 3.49 0
2 -10 1 370.86 9.27 0
-8 6 3 155.73 9.24 0
-7 7 -5 1.18 6.15 0
-7 7 2 355.21 12.13 0
-6 0 6 68.22 5.93 0
-5 -1 6 117.49 6.72 0
-5 5 3 514.49 9.18 0
-4 -2 6 250.05 6.66 0
-4 0 -8 24.12 5.32 0
-4 4 -6 50.22 4.68 0
-4 4 3 235.2 6.76 0
-4 6 -4 260.14 7.88 0
-3 -1 5 58.13 4.39 0
-3 1 -7 11.3 4.42 0
-2 -4 -8 529.71 8.49 0
-2 4 -3 141.05 5.35 0
-1 -15 6 269.85 7.71 0
-1 -7 -8 6.4 4.32 0
-1 -3 4 2712.12 12.78 0
0 -16 5 -0.66 3.71 0
0 -14 5 -0.87 3.54 0
0 -4 -6 3206 17.44 0
0 -2 2 516.9 7.91 0
1 -9 -6 477.48 7.56 0
-6 2 5 39.62 5.27 0
-6 4 4 58.19 5.36 0
-6 8 -3 71.41 7.02 0
-5 -5 7 129.21 6.65 0
-5 5 -6 285.25 9.02 0
-5 7 -4 7.16 4.99 0
-3 -11 7 -0.7 4.71 0
-3 -5 6 467.3 7.77 0
-3 -1 -8 206.66 7.34 0
-3 1 4 1645.22 11.26 0
-3 3 -6 1275.3 12.52 0
-3 5 -4 531.15 8.77 0
-2 -8 6 682.04 8.61 0
-1 -7 5 19.14 3.77 0
-1 -3 -7 2.44 3.98 0
-1 -1 -6 775.14 7.57 0
-1 -1 3 336.28 6.54 0
0 -4 3 0.62 3.93 0
0 -2 -5 0.08 3.3 0
0 0 -3 0.02 3.24 0
1 -9 3 2450.39 13.41 0
1 -3 -3 5.23 3.87 0
2 -10 -4 335.75 6.64 0
2 -8 -3 50.47 3.51 0
-6 6 -6 136.5 7.54 0
-5 1 5 205.91 6.12 0
-5 3 4 1019.03 10.31 0
-4 -8 7 24.43 4.87 0
-4 0 5 -0.56 3.94 0
-4 2 4 783.86 8.19 0
-2 -4 5 82.33 4.16 0
-2 0 -7 -2.03 3.89 0
-1 -5 -8 228.9 6.73 0
-1 1 -5 137.29 4.82 0
0 -8 4 3170.36 14.38 0
0 -6 -7 0.94 3.78 0
1 -13 -7 217.18 6.23 0
1 -5 -5 1205.91 8.54 0
2 -16 -5 79.49 5.58 0
2 -14 -5 52.63 4.1 0
-8 4 4 378.4 12.76 0
-7 -1 6 401.99 11.73 0
-5 -7 7 30.21 6.17 0
-4 -4 6 49.32 5.07 0
-2 -10 6 362.03 7.17 0
-2 -2 -8 88.33 5.15 0
-2 2 -6 607.75 8.75 0
-2 4 -4 3495.55 18.01 0
1 -19 3 58.07 5.81 0
1 -11 -7 76.75 5.1 0
1 -7 -6 1215.68 10.52 0
2 -18 1 125.14 8.62 0
2 -12 -5 8.66 4.05 0
-6 -2 6 131.82 6.94 0
-6 8 -4 849.29 14.4 0
-5 -3 6 129.91 6.28 0
-4 2 -8 88.53 6.52 0
-4 6 -5 291.64 8.39 0
-3 -7 6 148.79 5.67 0
-2 -12 6 257.53 6.73 0
-1 -9 5 1465.33 11.09 0
-1 3 -2 343.76 7.24 0
0 -8 -8 428.85 9.09 0
1 -11 3 433.79 6.56 0
1 -3 -4 2708.48 13.2 0
2 -10 -5 147.11 5.43 0
2 -8 -4 427.91 6.46 0
-7 1 5 10.09 6.09 0
-5 5 -7 71.38 6.36 0
-5 7 -5 41.81 5.79 0
-4 4 -7 44.57 5.45 0
-3 -3 5 111.13 4.86 0
-3 1 -8 229.23 7.13 0
-3 3 -7 35.09 4.99 0
-3 5 -5 4.28 3.71 0
-2 -14 6 196.2 7.49 0
-2 -2 4 479.23 6.82 0
-2 2 2 2064.34 14.71 0
-1 -5 4 1597.46 10.54 0
-1 -3 -8 436.45 7.85 0
-1 -1 -7 44.71 4.52 0
-1 3 -3 7.15 4.12 0
0 -10 4 806.94 7.86 0
0 -4 -7 -2.18 3.79 0
0 -2 -6 184.57 5.36 0
1 -17 3 95.92 5.43 0
1 -15 3 442.71 7.83 0
1 -13 3 996.77 11.18 0
1 -9 -7 317.97 8.14 0
1 -7 2 3649.59 18.15 0
2 -12 1 60.57 5.71 0
-6 6 2 588.83 12.31 0
-4 -6 6 448.61 7.96 0
-3 -9 6 85.59 4.98 0
-2 -6 5 808.7 8.36 0
-2 0 3 2.42 4.26 0
-2 4 -5 72.08 4.15 0
-1 -17 5 48.86 4.71 0
-1 -13 5 441.94 7.9 0
-1 -11 5 185.11 5.24 0
-1 1 -6 833.21 9.14 0
0 -18 4 8.43 4.21 0
0 -6 -8 29.61 4.29 0
1 -5 -6 461.37 7.11 0
2 -16 1 234.27 8.51 0
2 -14 -6 195.66 8.09 0
2 -6 -3 1569.18 11.37 0
2 -6 -2 203.04 6.04 0
-7 -3 6 21.24 6.99 0
-7 3 4 565.31 11.24 0
-7 9 -3 185.64 12.17 0
-7 9 -2 182.92 17.93 0
-6 0 5 -2.75 5.17 0
-6 8 -5 29.46 6.24 0
-5 -5 6 526.92 9.32 0
-5 -1 5 251.38 6.92 0
-4 -2 5 1587.13 13.13 0
-3 -11 6 1160.51 13.02 0
-2 0 -8 4.48 3.32 0
-2 2 -7 682.19 9.54 0
-1 -15 5 156.9 6 0
-1 3 -4 2350.57 13.28 0
-1 3 -1 6.17 5.07 0
0 -16 4 469.55 8.53 0
0 -14 4 865.2 10.3 0
0 -12 4 223.07 5.38 0
0 -6 3 3.41 3.8 0
0 0 -5 -0.1 2.47 0
1 -7 -7 -4.4 3.9 0
1 -3 -5 5.17 3.29 0
2 -14 1 139.72 6.94 0
2 -12 -6 151.05 6.19 0
2 -8 -5 26.41 3.56 0
-6 -4 6 924.27 14.15 0
-5 7 -6 519.12 11.53 0
-4 -8 6 775.97 10.51 0
-4 6 -6 192.54 7.95 0
-3 -13 6 578.77 10.51 0
-3 -1 4 1570.71 11.56 0
-3 5 -6 344.35 8.14 0
-2 -8 5 28.61 4.12 0
0 -2 -7 2.83 3.49 0
1 -5 1 2676.45 20.8 0
2 -20 0 304.76 14.51 0
2 -10 -6 326.5 7.02 0
2 -6 -4 1732.81 11.2 0
-9 7 1 19.22 7.9 0
-8 6 2 12.1 5.97 0
-8 8 0 124.21 12.83 0
-7 9 -4 35.24 7.21 0
-6 2 4 430.82 9.08 0
-6 4 3 129.32 6.33 0
-4 4 -8 335.31 9.08 0
-3 -5 5 10.36 3.97 0
-3 3 2 4796.64 22.14 0
-2 4 -6 23.82 4.33 0
-1 -7 4 40.44 4.03 0
-1 -3 3 10.37 4.34 0
-1 -1 -8 170.96 5.79 0
-1 1 -7 55.48 4.44 0
-1 3 -5 4.82 3.45 0
0 -4 -8 35.06 4.54 0
1 -9 -8 44.21 5.41 0
-8 2 4 48.8 6.37 0
-7 -1 5 14.6 5.89 0
-7 7 1 5.18 6 0
-6 -6 6 230.98 9.38 0
-6 8 -6 -1.99 6.14 0
-5 -7 6 754.23 12.64 0
-5 1 4 934.46 11.21 0
-4 -10 6 93.53 6.86 0
-4 0 4 152.52 4.23 0
-3 1 3 84.87 4.92 0
-3 3 -8 -1.04 4.29 0
-2 -10 5 172.98 5.6 0
-2 -4 4 4093.08 16.79 0
0 0 -6 520.39 6 0
1 -9 2 1972.62 14.6 0
1 -5 -7 340.16 7.26 0
1 -3 -6 155.76 4.93 0
1 -1 -3 341.89 6.24 0
2 -12 -7 6.8 4.07 0
2 -8 -6 618.57 8.52 0
2 -6 -5 841.92 7.99 0
-8 4 3 9.97 5.26 0
-6 -2 5 33.8 5.63 0
-5 -9 6 211.92 8.25 0
-5 3 3 191.77 6.01 0
-4 -12 6 4.87 5.69 0
-4 -4 5 159.66 5.64 0
-4 2 3 2958.58 15.77 0
-4 6 -7 158.62 6.75 0
-3 5 -7 7.08 4.04 0
-2 -16 5 85.74 5.87 0
-2 -12 5 14.78 4.41 0
-2 2 -8 106.6 5.51 0
-1 -1 2 3421.28 17.95 0
0 -20 3 2.52 4.61 0
0 -8 3 2.14 3.71 0
0 2 -3 5.56 4.44 0
1 -19 2 42.92 5.31 0
1 -7 -8 7.42 4.14 0
1 -1 -4 743.94 6.86 0
2 -10 -7 54.63 4.76 0
-6 -8 6 3.94 7.56 0
-5 -3 5 95.97 5.26 0
-5 7 -7 14.44 5.52 0
-4 8 -4 43.66 6.05 0
-4 8 -3 109.42 6.81 0
-3 -7 5 37.74 4.34 0
-3 7 -4 3460.06 21 0
-3 7 -3 39.94 4.26 0
-2 -14 5 49.71 4.44 0
-2 4 -7 26.63 4.18 0
-1 -9 4 495.17 6.51 0
-1 3 -6 143.23 5 0
0 -2 -8 444.79 7.43 0
0 2 -4 1820.69 10.51 0
1 -1 -5 164.94 4.5 0
1 -1 -2 2280.94 14.65 0
3 -15 -3 16.93 5.23 0
-7 1 4 10.57 5.43 0
-5 -11 6 9.22 4.76 0
-3 -3 4 16.52 4.36 0
-2 6 -4 1528.99 12.77 0
-1 -17 4 55.36 5.11 0
-1 -11 4 1363.03 11.83 0
-1 1 -8 192.77 6.08 0
0 0 -7 2.43 2.75 0
0 2 -5 3.6 3.71 0
1 -17 2 652.55 10.19 0
1 -5 -8 324.54 6.78 0
1 -3 -7 2.63 3.89 0
2 -8 -7 8.1 4.18 0
2 -6 -6 79.05 4.27 0
2 -6 -1 1707.18 20.02 0
2 -4 -4 4246.54 16.33 0
2 -4 -3 146.85 4.85 0
3 -15 -4 661.82 13.05 0
3 -13 -4 2.73 3.87 0
3 -13 -3 4.47 4.64 0
-9 3 3 69.72 7.31 0
-9 5 2 228.62 10.48 0
-7 -3 5 3.66 6.69 0
-5 7 0 17.34 8.05 0
-5 9 -4 159.94 8.13 0
-4 -6 5 472.9 8.58 0
-4 8 -5 46.43 5.33 0
-3 -9 5 30.55 4.43 0
-3 7 -5 22.86 4.15 0
-2 -6 4 1773.9 11.39 0
-2 -2 3 3606.18 16.64 0
-2 6 -3 1254.93 11.83 0
-1 -15 4 21.82 4.29 0
-1 -13 4 953.45 9.15 0
-1 3 -7 5.5 3.68 0
0 -18 3 3.44 3.62 0
0 -10 3 5.35 3.46 0
0 2 -2 472.34 7.49 0
1 -11 2 13.24 3.35 0
1 -1 -6 1113.24 8.48 0
2 -4 -5 87.14 3.89 0
3 -17 -4 393.02 12.21 0
3 -17 -3 4.5 5.46 0
3 -15 -5 11.64 5.28 0
3 -13 -5 5.07 4.11 0
3 -11 -4 250.69 6.88 0
3 -11 -3 3.62 3.99 0
-7 3 3 0.62 5.44 0
-6 -4 5 77.58 7.1 0
-6 0 4 3242.09 19.24 0
-5 -5 5 325.19 8.77 0
-5 9 -5 268.91 8.64 0
-5 9 -3 363.84 12.24 0
-4 -2 4 783.42 8.93 0
-4 8 -2 2120.56 23.73 0
-3 -15 5 17.41 4.83 0
-3 -13 5 10.54 4.25 0
-3 -11 5 5.99 4.69 0
-3 5 -8 150.35 6.59 0
-3 7 -6 92.29 6.11 0
-3 7 -2 476.91 9.76 0
-2 6 -5 567.98 8.69 0
-1 -5 3 2001.15 12.41 0
0 -16 3 2.85 4.55 0
0 -12 3 1.36 4 0
0 2 -6 236.66 5.48 0
1 -15 2 815.44 11.15 0
1 -13 2 212.02 6.4 0
2 -6 -7 345.6 6.2 0
3 -11 -5 -0.66 3.9 0
-8 0 4 6.5 5.67 0
-5 -1 4 920.08 10.3 0
-4 -8 5 79.94 5.89 0
-4 8 -6 631.48 10.96 0
-2 4 -8 786.3 9.41 0
-2 6 -6 81.47 4.93 0
-1 5 -4 1504.64 10.92 0
0 -14 3 1.78 3.66 0
0 -2 1 12.15 5.72 0
0 0 -8 2607.1 14.52 0
1 -21 1 11.18 5.65 0
1 -3 -8 513.52 7.67 0
2 -18 0 685.2 16.4 0
2 -8 -8 106.33 5.15 0
2 -4 -6 40.43 4 0
2 -4 -2 106.79 5.54 0
3 -13 -6 553.51 11.11 0
3 -9 -4 1747.96 12.81 0
-7 -5 5 172.72 9.66 0
-5 -7 5 77.36 6.61 0
-5 9 -6 157.28 8.9 0
-4 -10 5 22.46 5.27 0
-3 -5 4 745.54 8.4 0
-2 -8 4 454.6 7.01 0
-2 6 -2 221.44 7.37 0
-1 3 -8 544.15 8.21 0
-1 5 -5 1031.16 9.39 0
-1 5 -3 1985.02 13.22 0
0 2 -7 -1.48 4.06 0
1 -1 -7 51.51 4.05 0
3 -15 -2 31.5 8.19 0
3 -13 -2 1907.15 23.57 0
3 -11 -6 428.77 15.57 0
3 -9 -5 35.38 3.95 0
-8 2 3 220.44 8.73 0
-7 -1 4 7.98 6 0
-6 -6 5 3.74 5.11 0
-6 2 3 80.01 5.87 0
-6 6 1 19.84 5.68 0
-4 -14 5 5.14 5.48 0
-4 -12 5 9.87 5.49 0
-4 8 -7 9.27 5.24 0
-3 -1 3 88.3 5.12 0
-3 7 -7 2.15 4.82 0
-2 -18 4 327.91 8.54 0
-2 6 -7 366.95 6.74 0
-1 5 -6 444.17 7.55 0
1 1 -5 147.37 4.61 0
1 1 -4 880.81 8.01 0
2 -6 -8 445.44 7.73 0
2 -4 -7 30.43 4.13 0
3 -9 -6 62.29 4.8 0
3 -9 -3 54.12 3.95 0
-8 6 1 302.51 10.76 0
-7 -7 5 1.72 8.56 0
-6 -8 5 19.96 9.42 0
-6 10 -5 43.89 7.16 0
-6 10 -4 119.22 8.86 0
-5 -9 5 284.17 9.36 0
-5 1 3 401.97 7.5 0
-4 -4 4 2281.28 14.2 0
-4 0 3 3.13 4.65 0
-2 -16 4 120.82 6 0
-2 -12 4 372.91 7.28 0
-2 -10 4 329.66 6 0
-2 0 2 7350.87 25.31 0
-1 -7 3 45.06 4.36 0
0 -6 2 3323.46 16.83 0
1 -1 -8 208.56 6.2 0
1 1 -6 978.73 8.33 0
1 1 -3 321.35 6.47 0
2 -2 -5 2161.69 11.86 0
2 -2 -4 486.34 6.52 0
3 -11 -7 2.13 4.12 0
3 -11 -2 3973.51 30.15 0
3 -7 -5 24.74 3.88 0
-9 1 3 22.49 6.07 0
-9 7 0 373.45 15.76 0
-8 -2 4 73.54 7.21 0
-6 -10 5 53.86 9.61 0
-6 -2 4 380.05 8.63 0
-5 -13 5 157.94 9.58 0
-5 -11 5 55.24 7.43 0
-5 -3 4 1054.96 11.47 0
-3 -7 4 4667.3 18.64 0
-3 7 -8 1082.85 12.17 0
-2 -14 4 73.62 4.91 0
-2 -4 3 149.43 5.33 0
-1 -19 3 65.69 5.18 0
-1 5 -7 425.65 7.93 0
0 -20 2 626.66 10.65 0
0 2 -8 443.17 7.48 0
0 4 -5 3.7 3.45 0
0 4 -4 408.37 6.33 0
2 -2 -6 741.18 8.75 0
3 -9 -7 7.33 4.23 0
3 -7 -6 102.09 5.15 0
3 -7 -4 3856.19 17.38 0
-6 10 -3 68.18 8.99 0
-5 9 -2 456.12 17.92 0
-2 6 -8 412.71 7.77 0
0 4 -6 3953.69 19.35 0
1 -19 1 85.62 6.51 0
1 -7 1 55.07 4.92 0
1 -1 -1 429.35 10.07 0
1 1 -7 53.06 4.55 0
2 -16 0 236.85 9.06 0
2 -4 -8 701.8 8.89 0
2 -2 -7 775.59 8.41 0
2 -2 -3 3525.25 16.11 0
-9 3 2 320.53 11 0
-7 -3 4 657.33 12.28 0
-7 1 3 47.15 5.69 0
-5 3 2 277.21 6.99 0
-4 -6 4 350.48 7.13 0
-3 -17 4 518.35 10.7 0
-3 -9 4 1543.91 11.91 0
-3 1 2 850.91 10.16 0
-1 -17 3 108.62 5.43 0
-1 -9 3 2529.28 14.03 0
-1 -3 2 360.58 6.8 0
-1 5 -8 337.04 6.97 0
-1 5 -2 1371.99 12.93 0
0 4 -7 -1.27 3.93 0
0 4 -3 2.04 4.22 0
2 -10 0 511.3 13.91 0
3 -7 -7 7 3.92 0
3 -7 -3 50.55 3.67 0
-9 5 1 3.06 5.48 0
-8 -4 4 535.31 12.28 0
-6 -4 4 61.92 7.27 0
-5 -5 4 229.66 7.92 0
-5 5 1 750.72 11.89 0
-4 2 2 665.57 9.41 0
-3 -15 4 853.72 11.27 0
-3 -13 4 4.99 4.89 0
-3 -11 4 322.73 7.15 0
-3 9 -5 28.44 4.57 0
-2 8 -5 23.91 4.02 0
-1 -15 3 438.88 7.14 0
-1 -13 3 822.1 9.9 0
-1 -11 3 454.15 6.7 0
0 -18 2 1046.33 12.93 0
0 -8 2 60.79 5.14 0
1 1 -8 184.35 5.92 0
3 -5 -6 634.39 7.3 0
3 -5 -5 7.68 3.52 0
3 -5 -4 832.56 8.11 0
-8 0 3 -3.62 5.37 0
-6 0 3 -1.95 5.09 0
-4 -8 4 45.75 6.17 0
-4 10 -5 23.67 5.73 0
-3 -3 3 202.22 4.97 0
-3 9 -6 74.51 5.38 0
-3 9 -4 1272.7 15.08 0
-2 -6 3 1476.06 11.06 0
-2 8 -6 655 8.78 0
-2 8 -4 410.83 7.89 0
0 4 -8 60.81 4.89 0
1 -17 1 142.02 6.36 0
1 3 -6 140.32 4.54 0
1 3 -5 3.01 3.55 0
2 -20 -1 54.45 10.2 0
2 -14 0 142.24 7.83 0
2 -2 -8 119.01 4.16 0
2 0 -6 3022.29 15.25 0
2 0 -5 -0.59 3.44 0
3 -9 -2 208.55 7.33 0
3 -7 -8 1053.44 11.74 0
3 -5 -7 1.5 3.63 0
-9 -1 3 37.46 5.46 0
-8 -6 4 308.79 10.05 0
-7 -5 4 867.35 13.89 0
-7 3 2 62.6 5.69 0
-7 7 0 143.09 9.64 0
-6 -6 4 117.33 8.43 0
-5 -7 4 9.45 6.46 0
-5 -1 3 405.33 7.77 0
-4 -16 4 15.97 5.89 0
-4 -10 4 500.07 9.28 0
-4 -2 3 3006.51 16.8 0
-4 6 0 422.71 14.77 0
-4 10 -6 89.7 6.15 0
-3 9 -7 18.49 4.97 0
-2 8 -7 13.8 4.69 0
-1 7 -6 1188.39 11.69 0
-1 7 -5 22.17 4.15 0
0 -16 2 51.06 4.74 0
0 2 -1 7.2 4.53 0
1 1 -2 3163.99 16.92 0
1 3 -7 1.74 3.77 0
1 3 -4 2642.04 12.81 0
2 -12 0 724.29 13.99 0
2 0 -7 1.57 3.77 0
2 0 -4 15.18 3.85 0
-4 -14 4 104.12 6.71 0
-4 -12 4 773.86 12.31 0
-4 4 1 336.12 8.98 0
-4 10 -7 6.9 5.64 0
-4 10 -4 335.71 10.21 0
-2 -18 3 91.55 5.48 0
-1 7 -7 8.37 4.48 0
-1 7 -4 30.67 4.17 0
0 -14 2 28.36 4.82 0
0 -10 2 689.58 8.4 0
1 -9 1 3470.55 20.68 0
3 -5 -8 180.74 6.17 0
3 -3 -6 2082.26 11.44 0
3 -3 -5 124.19 4.23 0
-7 -7 4 78.47 7.57 0
-7 -1 3 42.54 6.37 0
-7 5 1 411.1 10.91 0
-7 11 -4 120.77 11.91 0
-6 -8 4 1068.76 16.75 0
-5 -15 4 9.68 8 0
-5 -13 4 463.87 13.14 0
-5 -11 4 1025.81 15.25 0
-5 -9 4 253.06 9.89 0
-5 11 -6 3.47 6.21 0
-5 11 -5 38.49 6.87 0
-2 -16 3 140.17 6.44 0
-2 -8 3 47.61 4.7 0
-2 8 -8 108.5 6.01 0
-1 7 -8 7.93 4.47 0
0 -12 2 1512.77 11.45 0
0 6 -6 1112.63 11.45 0
0 6 -5 0.08 3.81 0
1 -21 0 153.22 8.99 0
1 -15 1 583.51 9.79 0
1 3 -8 467.21 8.23 0
2 -2 -2 1824.86 13.55 0
2 0 -8 5.11 4.14 0
3 -5 -3 13.2 3.6 0
3 -3 -7 47.05 4.62 0
4 -12 -6 5.69 5.08 0
-9 -3 3 79.52 7.29 0
-9 1 2 5.15 5.94 0
-8 -2 3 210.72 8.04 0
-8 2 2 323.22 8.86 0
-7 -11 4 49.98 15.03 0
-7 -9 4 60.6 10.5 0
-6 -12 4 -0.79 16.53 0
-6 -10 4 134.72 14.09 0
-6 2 2 413.81 9.51 0
-3 -5 3 16.42 3.51 0
-3 9 -3 56.79 5.95 0
-2 -14 3 90.9 5.06 0
-2 -10 3 313.26 6.43 0
-2 -2 2 2077.33 15.22 0
-2 8 -3 48.41 4.54 0
-1 -19 2 24.28 4.46 0
-1 -5 2 1438.87 12.55 0
0 6 -7 -2.57 4.16 0
1 -13 1 1170.52 13.22 0
2 0 -3 1.08 4.06 0
3 -3 -4 19.15 3.61 0
4 -14 -5 3.57 4.77 0
4 -12 -5 10.4 4.31 0
4 -10 -6 110.49 5.45 0
4 -10 -5 32 4.81 0
-8 8 -1 14.31 7.99 0
-6 -2 3 65.81 6.76 0
-4 -4 3 258.22 7.13 0
-3 5 0 1042.56 24.74 0
-2 -12 3 45.86 4.7 0
0 -20 1 0.92 5.48 0
0 6 -8 36.8 4.72 0
0 6 -4 110.85 4.65 0
1 -11 1 567.47 8.37 0
1 3 -3 9.06 3.24 0
2 2 -7 900.8 9.38 0
2 2 -6 714.36 8.29 0
2 2 -5 2072.8 11.92 0
3 -3 -8 5.9 3.71 0
4 -10 -7 8.93 4.59 0
4 -8 -6 865.94 10.63 0
-7 -3 3 2.85 5.97 0
-5 -3 3 181.9 7.21 0
-5 11 -4 736.03 15.45 0
-3 -17 3 5.42 5.25 0
-3 -7 3 45.38 5.53 0
-1 7 -3 39.36 4.57 0
1 5 -7 504.68 7.33 0
1 5 -6 437.92 7.15 0
2 2 -8 112.44 5.01 0
3 -7 -2 453.34 8.42 0
3 -1 -7 11.9 4.01 0
3 -1 -6 273.42 6.51 0
4 -12 -4 969.55 13.25 0
4 -8 -7 29.9 4.58 0
4 -8 -5 73.94 4.77 0
-8 -4 3 8.43 5.97 0
-5 1 2 414.78 8.71 0
-4 -18 3 25.17 7.28 0
-4 10 -3 35.26 6.55 0
-3 -15 3 20.03 5.69 0
-3 -1 2 876.25 10.73 0
-2 -20 2 11.66 5.1 0
-1 -17 2 622.76 9.44 0
0 -4 1 1.1 5.18 0
1 5 -8 271.52 6.9 0
1 5 -5 960.81 9.7 0
2 -4 -1 158.23 7.32 0
2 2 -4 459.19 6.5 0
3 -1 -8 271.32 6.64 0
3 -1 -5 34.62 2.97 0
4 -14 -4 99.16 7.31 0
4 -10 -4 547.87 9.47 0
4 -6 -7 178.25 5.53 0
4 -6 -6 430.79 7.24 0
-9 3 1 98.73 6.85 0
-8 6 0 447.47 14.11 0
-7 1 2 1293.65 14.81 0
-6 -4 3 150.3 9.28 0
-4 -6 3 849.86 11.11 0
-4 0 2 3632.78 20.6 0
-3 -13 3 10.17 5.6 0
-3 -11 3 13.1 5.25 0
-3 -9 3 69.09 5.72 0
-3 11 -7 0.87 5.37 0
-3 11 -6 1495.82 15.66 0
-2 10 -7 68.46 5.62 0
-2 10 -6 315.73 7.99 0
-1 -7 2 3734 18.47 0
-1 -1 1 505.87 10.95 0
-1 9 -7 601.54 9.72 0
-1 9 -6 641.23 9.06 0
3 -3 -3 203.84 5.27 0
4 -8 -4 66.64 5.05 0
4 -6 -5 511.98 7.51 0
-9 -1 2 16.63 5.15 0
-8 -6 3 218.75 8.06 0
-8 0 2 1168.6 14.05 0
-7 -5 3 311.4 9.81 0
-5 -5 3 537.37 9.43 0
-4 -16 3 123.55 7.51 0
-3 7 -1 57.58 9.32 0
-3 11 -5 -0.98 5.85 0
-2 6 -1 1801.35 23.42 0
-2 10 -5 121.26 6.13 0
-1 -15 2 972.21 10.66 0
-1 9 -8 116.92 6.36 0
-1 9 -5 1175.01 12.34 0
0 -18 1 1.07 4.57 0
0 6 -3 8 4.41 0
0 8 -7 0.01 4.16 0
1 -19 0 320.73 10.01 0
1 5 -4 1445.95 11.13 0
3 -1 -4 1498.23 11.07 0
4 -4 -7 71.4 4.28 0
4 -4 -6 63.59 4.63 0
-9 5 0 4.56 6.38 0
-9 7 -1 12.68 7.39 0
-8 -8 3 11.04 6.45 0
-6 -6 3 7.79 9.42 0
-5 -15 3 21.98 9.15 0
-5 -7 3 129.84 9.25 0
-4 -14 3 12.24 6.85 0
-4 -12 3 14.48 6.86 0
-4 -10 3 53.5 6.81 0
-4 -8 3 130.25 7.29 0
-4 12 -6 14.77 6.58 0
-2 -18 2 -0.78 4.92 0
-2 -4 2 99.35 6.66 0
-1 -21 1 10.18 5.26 0
-1 -13 2 211.41 6.06 0
-1 -9 2 2200.87 14.21 0
0 8 -8 592.73 9.69 0
0 8 -6 25.82 4.27 0
2 4 -8 806.24 10.07 0
2 4 -7 28.85 4.13 0
2 4 -6 27.24 3.88 0
3 1 -8 273.24 6.72 0
3 1 -7 14 3.97 0
3 1 -6 287.05 6.29 0
4 -16 -4 8.98 6.65 0
4 -4 -8 435.94 9.07 0
-7 -9 3 282.63 11.25 0
-7 -7 3 10.35 5.3 0
-6 -14 3 13.27 19.39 0
-6 -8 3 70.81 11.27 0
-6 0 2 238.01 8.09 0
-5 -13 3 194.25 12.83 0
-5 -9 3 598.19 14.63 0
-1 -11 2 9.26 4.02 0
0 8 -5 -2.02 4.25 0
2 -18 -1 133.95 8.91 0
2 4 -5 75.6 4.39 0
3 1 -5 39.4 3.9 0
4 -6 -4 316.3 6.44 0
4 -4 -5 151.42 4.78 0
-9 -3 2 536.14 9.88 0
-7 -11 3 59.6 8.07 0
-7 -1 2 1358.02 14.13 0
-6 -12 3 4.25 20.95 0
-6 -10 3 53.88 16.35 0
-6 6 0 252.57 10.01 0
-5 -11 3 106.32 12.68 0
-4 12 -5 10.08 5.95 0
-3 -19 2 201.5 8.97 0
-2 -16 2 290.33 8.13 0
-2 10 -4 272.57 8.05 0
-1 9 -4 407.56 7.77 0
0 -16 1 0.64 4.93 0
1 7 -8 10.71 4.89 0
1 7 -7 5.28 3.09 0
1 7 -6 1205.27 11.84 0
2 0 -2 9999.99 29.97 0
2 2 -3 3616.26 16.97 0
3 -5 -2 1329.29 12.73 0
4 -2 -8 178.25 5.86 0
4 -2 -7 655.86 8.84 0
4 -2 -6 331.71 6.16 0
-9 1 1 25.37 6.31 0
-8 -2 2 304.06 8.82 0
-7 3 1 3.42 4.95 0
-6 8 -1 87.93 11.87 0
-6 12 -4 6.5 7.97 0
-5 -1 2 412.04 9.38 0
-5 11 -3 69.47 9.42 0
-3 -3 2 4997.16 23.24 0
-3 11 -4 213.17 8.67 0
-2 -6 2 213.26 7.07 0
-1 -19 1 43.5 5.76 0
1 3 -2 365.57 7 0
1 7 -5 21.32 4.17 0
4 -10 -3 57.23 6.11 0
-9 -5 2 367.85 9.25 0
-8 2 1 213.6 8.11 0
-4 -2 2 608.29 10.26 0
-3 -17 2 5.88 5.93 0
-2 -14 2 856.64 10.3 0
-2 8 -2 1761.59 17.06 0
0 -6 1 -0.02 6.03 0
0 8 -4 3103.33 16.06 0
1 -17 0 121.13 6.68 0
1 5 -3 1999.86 13.01 0
2 4 -4 3890.26 17.06 0
2 6 -8 352.67 7.41 0
2 6 -7 343.64 6.95 0
3 -1 -3 86.67 4.77 0
3 1 -4 1525.08 10.76 0
3 3 -8 6.59 4.68 0
3 3 -7 45.75 3.43 0
3 3 -6 1685.32 11.89 0
4 -12 -3 16.77 5.88 0
4 -4 -4 2221.99 13.24 0
4 -2 -5 1575.78 11.91 0
-8 -4 2 5.5 5.76 0
-6 -2 2 321.35 9.47 0
-4 -18 2 41.21 7.88 0
-3 9 -2 224.85 9.43 0
-2 -12 2 693.11 9.45 0
-2 -8 2 2032.56 14.9 0
-2 0 1 4.14 6.45 0
-2 12 -7 12.02 5.25 0
-1 5 -1 2639.65 24.45 0
-1 7 -2 3654.59 21.73 0
-1 11 -7 114.11 6.59 0
0 -20 0 6.81 5.88 0
0 -14 1 1.93 4.33 0
0 10 -7 0.93 4.24 0
1 -21 -1 3.08 6.25 0
2 6 -6 89.62 4.96 0
4 -8 -3 144.21 6 0
4 0 -8 46.5 4.77 0
4 0 -7 1.81 4.1 0
5 -11 -6 3.75 5.26 0
5 -9 -6 232.86 7.67 0
5 -7 -7 34.6 4.96 0
-7 -3 2 44.27 6.24 0
-5 -17 2 147.52 12.48 0
-4 2 1 3923.41 25.07 0
-4 12 -4 761.31 16.05 0
-3 -15 2 46.35 6.5 0
-3 -5 2 1727.96 14.72 0
-2 -20 1 97.38 6.75 0
-2 -10 2 1055.32 11.26 0
-2 12 -6 261.52 8.05 0
-1 11 -6 6.14 4.65 0
0 10 -6 234.09 6.94 0
3 3 -5 109.18 4.74 0
4 0 -6 1006.95 10.11 0
5 -7 -6 864.93 11.57 0
-9 -1 1 30.8 5.72 0
-8 -6 2 17.05 5.2 0
-7 5 0 1161 16.74 0
-5 -3 2 309.6 9.83 0
-5 13 -5 111.37 9.28 0
-4 -16 2 296.85 11.93 0
-4 -4 2 193.92 9.31 0
-3 1 1 93.95 8.78 0
-3 13 -6 653.08 13.26 0
-1 -17 1 144.05 6.66 0
0 -12 1 3.25 4.17 0
0 -8 1 0.42 5.77 0
1 1 -1 423.58 9.36 0
1 7 -4 30.38 3.34 0
1 9 -8 85.24 5.91 0
1 9 -7 523.39 9.54 0
2 6 -5 720.06 8.59 0
4 -6 -3 950.51 10.24 0
4 -2 -4 702.82 7.4 0
5 -9 -5 296.12 8.02 0
5 -5 -7 121.44 5.43 0
5 -5 -6 458.66 8.6 0
-9 3 0 5.18 5.03 0
-8 -10 2 206.72 7.63 0
-8 -8 2 135.28 6.28 0
-7 -13 2 92.06 8.38 0
-7 -5 2 11.29 6.32 0
-6 -4 2 3348.83 21.7 0
-6 2 1 70.07 6.73 0
-5 -15 2 64.44 16.75 0
-4 -14 2 270.4 11.76 0
-3 -13 2 1721.91 17.04 0
-3 -7 2 546.29 10.43 0
-2 10 -3 264.6 8.27 0
-2 12 -5 22.51 5.58 0
-1 -21 0 142.7 8.32 0
-1 9 -3 2401.11 16.9 0
-1 11 -5 186.25 7.06 0
0 -10 1 3.11 4.49 0
0 6 -2 3244.75 19.24 0
0 10 -5 3.44 4.09 0
1 9 -6 598.65 9.63 0
3 -3 -2 4418.96 21.54 0
3 5 -8 158.72 5.31 0
3 5 -7 3.35 4.04 0
4 -14 -3 8.62 6.8 0
4 0 -5 2.2 2.9 0
4 2 -8 151.9 6.28 0
4 2 -7 632.29 9.37 0
5 -11 -5 54.12 5.48 0
5 -7 -5 61.07 5.83 0
5 -3 -7 46 4.74 0
-8 0 1 -3.4 4.86 0
-7 -11 2 70.26 8.47 0
-7 -9 2 461.81 10.46 0
-7 -7 2 362.72 9.85 0
-7 1 1 55.61 5.83 0
-6 -14 2 18.04 10.85 0
-5 -5 2 1279.76 17.66 0
-4 -6 2 1000.95 15.4 0
-3 -11 2 3805.78 22.1 0
-3 -9 2 231.38 8.57 0
-2 -18 1 121.76 6.84 0
-1 -3 1 13.27 6.87 0
0 8 -3 1.1 4.25 0
1 -15 0 38.71 5.6 0
2 -20 -2 2.2 7.84 0
2 -16 -1 262.53 9.96 0
2 4 -3 141.48 5.35 0
2 8 -8 97.84 6.33 0
2 8 -7 13.62 4.72 0
3 3 -4 15.1 4.1 0
3 5 -6 448.2 7.07 0
4 2 -6 278.96 6.67 0
5 -13 -5 192.43 8.78 0
5 -3 -6 105.14 5.53 0
-9 -3 1 122.66 6.21 0
-6 -12 2 442.06 14.54 0
-6 -10 2 274.05 12.18 0
-6 -8 2 15.46 9.02 0
-6 -6 2 347.76 10.01 0
-5 -13 2 11.92 11.77 0
-5 -11 2 23.89 18.47 0
-5 -7 2 1827.46 22.9 0
-4 -12 2 29.47 7.46 0
-4 -10 2 301.05 12.71 0
-4 -8 2 2292.37 22.53 0
-3 -19 1 9.98 6.47 0
-3 11 -3 2.6 5.7 0
-3 13 -5 4.15 5.97 0
-1 -15 1 516.26 9.05 0
0 -18 0 21.19 5.61 0
1 9 -5 1457.02 12.58 0
2 6 -4 1719.83 11.78 0
2 8 -6 677.52 9.44 0
3 1 -3 59.6 3.66 0
4 -4 -3 229.48 6.56 0
5 -5 -5 349.65 7.59 0
-9 -5 1 -1.01 5.78 0
-5 -9 2 487.75 21.95 0
-5 5 0 380.15 11.4 0
2 -2 -1 4032.13 26.93 0
2 2 -2 2024.28 14.96 0
3 5 -5 8.28 3.75 0
4 0 -4 188.06 5.11 0
4 2 -5 1694.38 11.49 0
4 4 -8 398.26 9.32 0
5 -1 -7 77.99 5.06 0
-9 -7 1 20.59 5.71 0
-9 5 -1 4.44 5.69 0
-8 -2 1 213.98 7.56 0
-7 7 -1 5.34 6.44 0
-5 1 1 381.61 10.22 0
-4 -18 1 53.94 9.69 0
-2 -16 1 218.03 7.96 0
-1 -13 1 1167.67 12.93 0
-1 11 -4 1508.49 16 0
-1 13 -7 222.81 8.16 0
0 4 -1 3.1 6.43 0
0 10 -4 643.87 9.77 0
0 12 -7 -1.95 5.37 0
1 -19 -1 78.35 7.33 0
1 7 -3 30.72 4.93 0
2 8 -5 26.85 4.51 0
3 7 -8 759.95 10.81 0
3 7 -7 4.93 5.01 0
4 4 -7 58.02 4.09 0
5 -3 -5 118.04 5.13 0
5 -1 -6 131.53 5.62 0
-9 1 0 394.07 9.87 0
-8 6 -1 222.34 10.04 0
-7 -1 1 49.39 5.42 0
-6 0 1 -2.13 5.65 0
-5 13 -4 406.71 17.64 0
-4 10 -2 219.29 14.82 0
-3 -17 1 3.24 7.15 0
-2 12 -4 385.21 9.64 0
-1 -19 0 237.23 8.56 0
-1 13 -6 62.15 6.75 0
0 12 -6 463.08 9.75 0
1 -13 0 1738.89 17.13 0
1 5 -2 1438.13 13.6 0
1 11 -7 82.67 4.97 0
3 -19 -3 -0.73 9.26 0
3 7 -6 134.8 5.91 0
4 4 -6 57.05 4.93 0
5 -9 -4 287.18 7.95 0
5 -7 -4 6.19 4.8 0
5 1 -7 81.38 5.34 0
-8 -4 1 16.88 5.42 0
-6 -16 1 11.12 8.3 0
-5 -17 1 93.92 9.78 0
-4 0 1 1.57 8.65 0
-4 14 -5 3.02 7.24 0
-2 -20 0 269.64 9.63 0
-2 -2 1 5110.9 30.6 0
-2 14 -6 325.73 10.37 0
-1 -11 1 490 9.43 0
-1 -5 1 2676.03 21.15 0
1 9 -4 469.19 7.7 0
1 11 -6 6.94 4.96 0
2 10 -7 61.79 5.74 0
3 -1 -2 690.96 9.68 0
4 -2 -3 2557.9 15.79 0
5 -11 -4 1180.6 15.58 0
-8 -10 1 198.78 7.92 0
-8 -8 1 18.55 5.75 0
-8 -6 1 277.46 7.86 0
-8 2 0 63.13 6.05 0
-7 -13 1 169.14 7.85 0
-7 -3 1 7.21 4.76 0
-7 9 -2 232.94 15.9 0
-4 -16 1 81.84 13.09 0
-3 -15 1 9.96 8.17 0
-3 -1 1 86.13 10.07 0
-2 -14 1 125.8 7.22 0
-1 -9 1 2851.12 20.01 0
0 -16 0 1020.02 13.32 0
3 3 -3 192.01 5.84 0
3 5 -4 567.2 7.47 0
4 2 -4 754.34 8.18 0
4 4 -5 152.41 5.55 0
4 6 -7 194.59 7.06 0
5 -5 -4 194.32 6.08 0
5 -1 -5 175.99 5.15 0
5 1 -6 96.17 5.94 0
-9 -1 0 448.61 9.58 0
-8 8 -2 105.43 9.92 0
-7 3 0 752.68 12.58 0
-6 -14 1 57.02 9.1 0
-5 -15 1 25.96 9.68 0
-5 -1 1 416.2 10.16 0
-3 13 -4 1.69 5.42 0
-1 -7 1 74.15 5.92 0
-1 13 -5 400.03 10.99 0
0 -20 -1 1.75 6.93 0
0 12 -5 0.76 5.04 0
2 6 -3 1438.49 11.49 0
2 8 -4 411.24 7.39 0
2 10 -6 277.82 8.1 0
3 7 -5 26.04 4.42 0
3 9 -7 10.24 5.12 0
5 -3 -4 1086.01 10.87 0
5 3 -7 42.71 5.16 0
6 -8 -6 0.61 5.23 0
6 -6 -6 205.94 7.61 0
-7 -11 1 85.41 5.66 0
-7 -9 1 528.47 9.55 0
-7 -7 1 -0.94 5.47 0
-7 -5 1 356.59 8.92 0
-6 -2 1 56.72 6.06 0
-4 -14 1 -4.63 12.24 0
-4 12 -3 15.9 8.31 0
-2 -12 1 53.44 6.84 0
-1 -21 -1 2.86 7.41 0
1 -11 0 2742.13 21.05 0
1 11 -5 189.79 6.95 0
4 6 -6 337.65 7.96 0
5 -13 -4 609.25 15.5 0
5 1 -5 212.27 6.19 0
6 -4 -6 1281.15 14.63 0
-9 -3 0 4.43 4.95 0
-9 3 -1 126.1 7.46 0
-6 -12 1 6.95 6.36 0
-6 -4 1 144.27 7.19 0
-5 -13 1 193.61 12.57 0
-3 -19 0 6.81 7.79 0
-3 -13 1 8.14 8.58 0
-2 -18 0 549.81 11.91 0
-2 -4 1 183.87 11.48 0
-2 14 -5 58.27 6.51 0
-1 -17 0 93.61 6.78 0
1 13 -7 222.98 8.92 0
2 -14 -1 115.12 8.71 0
2 10 -5 143.8 6.61 0
3 -15 -2 25.08 9.82 0
3 9 -6 75.51 5.48 0
4 0 -3 2.97 4.02 0
5 3 -6 80.41 5.43 0
-9 -7 0 535.73 9.78 0
-9 -5 0 27.08 5.84 0
-8 0 0 6.13 4.79 0
-6 -10 1 145.37 7.79 0
-6 -8 1 138.39 7.45 0
-6 -6 1 8.27 6.26 0
-5 -11 1 121.58 9.8 0
-5 -3 1 199.63 9.25 0
-4 -12 1 17.01 15.58 0
-4 -2 1 2968.25 25.53 0
-4 4 0 3027.56 30.18 0
-3 -3 1 235.97 13.83 0
-2 -10 1 356.53 10.5 0
-1 9 -2 2124.98 19.49 0
-1 11 -3 393.27 9.53 0
0 10 -3 3.74 5.05 0
1 -17 -1 139.86 8.03 0
2 4 -2 87.07 5.18 0
2 12 -7 13.59 5.36 0
3 1 -2 798.65 10.13 0
4 4 -4 2085.75 13.34 0
4 8 -7 33 5.43 0
5 -1 -4 957.3 10.72 0
5 5 -7 111.43 6.89 0
6 -2 -6 105.2 6.28 0
6 0 -7 -1.89 5.28 0
-5 -9 1 584.6 11.95 0
-4 -18 0 282.69 11.59 0
-3 -11 1 7.31 8.32 0
-2 -8 1 84.05 9.08 0
-2 -6 1 1917.08 20.89 0
0 -14 0 1504.4 16.55 0
0 8 -2 60.47 6.62 0
0 14 -6 19.17 5.92 0
1 -9 0 755.85 14.35 0
1 3 -1 5.07 7.48 0
1 9 -3 2316.11 15.99 0
1 13 -6 79.21 6.59 0
2 0 -1 7.77 6.47 0
3 7 -4 4243.06 19.93 0
4 6 -5 367.47 7.04 0
6 -8 -5 62.95 6.05 0
6 -6 -5 2.27 4.55 0
-8 -12 0 53.39 5.82 0
-8 -2 0 79.61 6.01 0
-7 1 0 8.49 5.45 0
-6 -16 0 218.51 10.01 0
-5 -17 0 7.8 7.74 0
-5 -7 1 153.09 9.7 0
-5 -5 1 561.81 10.58 0
-4 -10 1 62.28 13.03 0
-4 -4 1 277.11 14.99 0
-3 -17 0 846.33 15.48 0
-3 -9 1 55.54 14.48 0
-3 -5 1 13.45 16.51 0
-3 15 -5 6.8 8.8 0
-2 12 -3 40.07 7.52 0
-1 13 -4 796.03 15.04 0
-1 15 -6 284.36 11.3 0
0 12 -4 191.33 7.29 0
1 -5 0 2491.63 36.3 0
1 11 -4 1548.49 14.58 0
2 -18 -2 0.42 7.61 0
2 12 -6 254.26 8.31 0
3 5 -3 16.73 3.48 0
3 9 -5 25.54 5.04 0
3 11 -7 4.11 5.4 0
4 -8 -2 2171.53 22.91 0
4 -6 -2 975.05 13.1 0
4 8 -6 692.79 11.2 0
5 3 -5 84.31 4.56 0
5 5 -6 387.37 9.09 0
6 -10 -5 54.79 7.03 0
6 -4 -5 65.36 5.67 0
6 0 -6 45.85 5.61 0
6 2 -7 22.32 5.47 0
-9 1 -1 48.3 6.12 0
-8 -10 0 68.2 6.38 0
-8 -4 0 872.71 11.32 0
-7 -13 0 172.93 6.77 0
-6 2 0 650.82 11.93 0
-4 -8 1 119.69 12.03 0
-4 -6 1 775.96 19.08 0
-4 14 -4 98.97 10.81 0
-3 -7 1 72.97 12.65 0
-2 -20 -1 104.58 8.54 0
-2 -16 0 196.47 9.26 0
-2 10 -2 986.5 15.74 0
-1 -15 0 36.03 6.84 0
0 -18 -1 -4.78 6.47 0
1 -7 0 18.05 8.58 0
1 7 -2 3540.46 21.17 0
4 -4 -2 207.75 7.31 0
4 2 -3 2139.31 13.65 0
5 -7 -3 154.87 7.75 0
5 1 -4 915.91 11.12 0
6 -2 -5 44.58 5.23 0
-9 5 -2 267.59 10.19 0
-8 -8 0 134.21 5.67 0
-8 -6 0 530.4 8.96 0
-7 5 -1 321.38 10.25 0
-6 -14 0 402.67 10.27 0
-4 -16 0 7.32 9.21 0
-1 -19 -1 52.49 6.99 0
0 14 -5 -1.02 5.99 0
1 13 -5 444.53 11.43 0
2 8 -3 47.03 5.23 0
2 10 -4 313.87 7.65 0
3 11 -6 1323.46 15.45 0
4 10 -7 11.04 6.19 0
5 -9 -3 706.11 13.78 0
5 -5 -3 474.26 9.3 0
5 7 -7 24.55 4.5 0
6 2 -6 101 6.63 0
-9 -1 -1 29.74 6.02 0
-7 -11 0 346.35 8.37 0
-7 -1 0 6.41 5.1 0
-5 -15 0 31.31 6.91 0
-5 7 -1 89.93 11.24 0
-2 14 -4 66.85 8.1 0
0 -12 0 275.83 8.8 0
2 12 -5 24.33 5.87 0
4 6 -4 279.03 6.99 0
4 8 -5 68.15 6.15 0
5 -3 -3 198.28 6.34 0
5 5 -5 300.32 7.98 0
5 7 -6 830.17 11.72 0
6 0 -5 2.96 4.92 0
-7 -9 0 80.49 6.37 0
-7 -3 0 845.81 10.88 0
-6 -12 0 36.05 5.9 0
-6 6 -1 4.65 6.59 0
-3 -19 -1 0.86 8.57 0
-3 -15 0 1640.87 19.94 0
-1 15 -5 169.88 9.97 0
1 -19 -2 11.55 8.04 0
3 3 -2 4235.51 20.33 0
3 9 -4 1493.81 13.16 0
4 -10 -2 263.85 14.8 0
4 -2 -2 627.88 10.36 0
4 10 -6 83.44 7.82 0
5 3 -4 954.64 10.84 0
-9 -7 -1 41.43 6.36 0
-9 -5 -1 1.43 6.02 0
-9 -3 -1 86.09 5.97 0
-8 2 -1 172.06 8.14 0
-7 -7 0 132.59 7.08 0
-7 -5 0 1135.03 13.42 0
-6 0 0 4008.7 22.99 0
-5 -13 0 875.89 12.53 0
-4 -14 0 196.89 10.3 0
-2 -14 0 118 10.11 0
-1 -13 0 1273.98 17.05 0
0 -20 -2 519.89 14.58 0
1 -15 -1 424.22 12.58 0
1 15 -6 269.58 10.87 0
2 6 -2 194.61 6.44 0
3 7 -3 52.51 5.74 0
3 11 -5 7.66 5.95 0
4 4 -3 220.17 6.67 0
5 -15 -4 10.44 14.53 0
5 -1 -3 353.92 7.76 0
6 -8 -4 1133.65 17.4 0
6 -6 -4 121.35 7.44 0
6 -4 -4 53.07 5.79 0
6 2 -5 39.32 5.95 0
6 4 -6 785.6 13.35 0
7 -3 -6 18.55 5.86 0
-8 6 -2 9.64 6.79 0
-6 -16 -1 26.56 6.13 0
-6 -10 0 215.85 8.27 0
-4 -18 -1 75.21 9.04 0
-3 3 0 12.99 13.23 0
-3 13 -3 2.24 8.31 0
-2 -18 -1 135.85 9.75 0
-2 16 -5 94.04 10.78 0
-1 7 -1 53.78 9.57 0
0 6 -1 15.23 8.47 0
2 14 -6 229.66 10.82 0
3 -5 -1 15.11 8.8 0
5 7 -5 55.51 6.08 0
6 -2 -4 429.51 9.25 0
7 -1 -6 452.83 10.51 0
-9 3 -2 316.32 10.33 0
-8 -10 -1 205.32 7.48 0
-8 0 -1 1.75 5.52 0
-6 -8 0 1548.46 14.05 0
-6 -2 0 572.41 9.66 0
-5 -17 -1 120.95 7.52 0
-5 -11 0 1407.65 14.45 0
-5 1 0 1481.11 16.84 0
-3 -13 0 -6.96 10.93 0
-1 -17 -1 128.91 9.33 0
0 -16 -1 4.83 7.94 0
0 -10 0 996.67 16.2 0
0 12 -3 7.95 6.06 0
1 11 -3 431.29 9.36 0
1 13 -4 935.05 12.93 0
2 -12 -1 55.59 9.07 0
2 2 -1 5003.6 30.74 0
3 13 -6 503.91 13.04 0
4 0 -2 3184.12 20.98 0
4 8 -4 60.87 6.37 0
4 10 -5 23.68 5.96 0
5 -11 -3 96.91 10.55 0
5 1 -3 338.67 7.31 0
5 5 -4 211.76 7.26 0
5 9 -6 227.79 8.72 0
-7 -13 -1 214.27 7.86 0
-7 3 -1 5.23 6.01 0
-6 -6 0 166.09 7.75 0
-6 -4 0 89.36 6.76 0
-4 -12 0 1034.97 16.3 0
-3 11 -2 3229.63 45.48 0
-3 15 -4 567.38 21.71 0
-2 -12 0 520.06 15.88 0
0 14 -4 877.9 15.62 0
2 10 -3 318.3 8.42 0
2 12 -4 362.61 10.34 0
3 -3 -1 278.21 11.58 0
6 -10 -4 154.95 10.89 0
6 0 -4 2513.51 18.58 0
6 4 -5 50.6 6.75 0
6 6 -6 158.92 7.03 0
7 1 -6 343.85 12.42 0
-9 1 -2 11.1 6.66 0
-8 -8 -1 23.42 4.57 0
-8 -6 -1 270.25 7.89 0
-8 -4 -1 9.88 5.36 0
-8 -2 -1 255.35 8.15 0
-6 -14 -1 96.92 7.85 0
-5 -9 0 350.97 9.23 0
-3 -17 -1 12.69 8.33 0
-2 -20 -2 4.8 9.15 0
-1 -11 0 2033.92 24.38 0
-1 13 -3 966.05 17.01 0
-1 15 -4 16.26 9.33 0
0 10 -2 642.06 13.17 0
1 5 -1 2730.78 25.56 0
1 9 -2 2028.74 18.61 0
1 15 -5 181.96 10.61 0
2 14 -5 54.53 7.99 0
3 -7 -1 49.81 14.32 0
3 5 -2 1672.36 14.68 0
3 11 -4 280.44 9.04 0
4 6 -3 757.79 11.23 0
4 12 -6 9.97 6.43 0
7 -7 -5 0.5 7.56 0
7 -5 -5 137.93 9.06 0
7 -3 -5 0.29 6.16 0
-7 -11 -1 80.42 7.25 0
-5 -15 -1 71.19 7.14 0
-5 -1 0 1228.98 16.15 0
-4 -16 -1 204.47 9.72 0
-4 -10 0 608.41 12.6 0
-3 -11 0 440.25 13.73 0
0 16 -5 -3.66 7.75 0
3 9 -3 64.34 7.07 0
3 13 -5 10.83 6.97 0
4 2 -2 656.67 10.8 0
5 3 -3 194.77 7.37 0
5 9 -5 320.18 9.47 0
6 2 -4 377.6 10.04 0
7 -1 -5 19.48 6.78 0
7 3 -6 9.92 7.03 0
-9 -1 -2 6.92 6.22 0
-8 8 -3 7 8.99 0
-7 7 -2 253.5 12.66 0
-5 -7 0 17.01 5.23 0
-5 -5 0 269.34 8.95 0
-5 -3 0 1203.29 14.9 0
-3 -19 -2 296.76 10.29 0
-2 -16 -1 231.08 11.84 0
-2 8 -1 64.45 14.01 0
-1 -19 -2 9.47 8.47 0
-1 11 -2 18.37 7.44 0
0 -8 0 4450.68 38.92 0
2 -16 -2 309.25 13.58 0
2 8 -2 2006.27 18.28 0
3 -1 -1 86.61 8.46 0
5 7 -4 9.02 6.18 0
5 11 -6 1.82 7.4 0
6 6 -5 1.96 5.76 0
6 8 -6 1.71 5.05 0
7 1 -5 13.73 7.07 0
-9 -5 -2 335.92 9.36 0
-9 -3 -2 463.97 10.54 0
-7 -9 -1 467.32 8.17 0
-7 1 -1 35.6 6.47 0
-6 -16 -2 3.37 6.59 0
-6 -12 -1 -2.05 6 0
-4 -8 0 76.93 8.38 0
-2 -10 0 380.94 16.67 0
-1 -9 0 544.83 20.46 0
-1 17 -5 47.23 10.98 0
0 -18 -2 961.97 17.75 0
4 10 -4 439.63 9.48 0
4 12 -5 6.44 6.67 0
6 4 -4 60.74 7.09 0
-8 -10 -2 174.71 7.88 0
-7 -7 -1 1.72 6.59 0
-7 -1 -1 24.59 6.35 0
-5 -17 -2 437.99 10.16 0
-5 -13 -1 363.78 9.46 0
-4 -18 -2 79.64 8.09 0
-4 -14 -1 3.37 8.16 0
-4 0 0 209.94 11.16 0
-3 -15 -1 16.13 9.09 0
-3 -9 0 1524.81 20.2 0
-2 14 -3 106.74 11.17 0
-2 16 -4 116.47 13.32 0
-1 -15 -1 411.84 14.32 0
1 -17 -2 426.11 14.48 0
1 -13 -1 1049.3 20.9 0
2 4 -1 172.53 11.79 0
3 -17 -3 1.77 11.88 0
4 8 -3 128.29 8.06 0
5 5 -3 541.41 10.67 0
6 -12 -4 17.13 11.75 0
6 -4 -3 122.67 9.19 0
7 3 -5 1.21 7.15 0
-7 -13 -2 146.97 8.32 0
-7 -5 -1 341.83 9.46 0
-7 -3 -1 -0.78 5.67 0
-6 -10 -1 143.67 7.94 0
-4 -6 0 358.27 9.47 0
-4 -4 0 2733.24 22.69 0
-4 -2 0 869.95 15.33 0
-3 1 0 2185.13 30.73 0
-2 -18 -2 0.47 9.83 0
0 -20 -3 -2.88 11.33 0
0 -14 -1 -5.31 9.62 0
1 13 -3 872.46 15.95 0
1 15 -4 24.91 9.05 0
2 12 -3 49.15 9.02 0
2 14 -4 81.99 9.66 0
3 1 -1 81.94 10.62 0
3 7 -2 480.15 9.8 0
3 13 -4 1.61 7.54 0
4 4 -2 150.96 6.81 0
5 9 -4 226.37 10.04 0
5 11 -5 62.37 9.11 0
6 -6 -3 9.54 8.64 0
6 -2 -3 36.6 7.49 0
6 8 -5 53.51 7.8 0
-9 3 -3 64.1 9.87 0
-8 -8 -2 148.95 8.55 0
-8 2 -2 301.95 10.14 0
-3 -7 0 4691.83 33.12 0
-2 -14 -1 82.7 11.9 0
-2 -8 0 562.45 22.76 0
0 -6 0 104.07 17.9 0
0 14 -3 5.53 9.42 0
0 16 -4 553.15 17.46 0
1 17 -5 70.34 11.45 0
2 16 -5 102.15 12.06 0
3 11 -3 8.93 8.12 0
3 15 -5 3.3 9.21 0
5 -5 -2 1326.35 20.55 0
5 -3 -2 207.96 9.34 0
5 -1 -2 325.2 10.2 0
6 0 -3 -0.27 6.33 0
6 6 -4 111.07 9.05 0
7 -5 -4 501.57 14.78 0
7 -3 -4 386.13 13.36 0
7 -1 -4 3.04 7.12 0
7 5 -5 88.3 9.64 0
-8 -6 -2 3.61 6.98 0
-8 0 -2 548.83 15.07 0
-7 -11 -2 68.99 8.28 0
-6 -14 -2 25.85 6.24 0
-6 -8 -1 111.72 7.75 0
-6 2 -1 45.27 8.85 0
-6 8 -2 3.06 10.33 0
-5 -11 -1 117.17 8.74 0
-5 15 -4 -0.05 15.02 0
-3 -17 -2 5.42 8.88 0
-2 12 -2 708.14 20.87 0
-1 -7 0 21.49 26.71 0
1 -19 -3 30.52 13.16 0
2 -18 -3 47.33 13.51 0
4 12 -4 888.6 15.78 0
4 14 -5 6.89 9.01 0
6 2 -3 60.98 7.93 0
7 -7 -4 62.06 11.88 0
7 1 -4 4.42 7.86 0
-9 1 -3 7.31 8.8 0
-8 -4 -2 13.99 7.59 0
-8 -2 -2 272.19 10.82 0
-6 -6 -1 -2.26 6.85 0
-5 -15 -2 320.22 9.67 0
-5 5 -1 521.38 15.76 0
-4 -16 -2 438.15 11.89 0
-4 -12 -1 16.26 8.39 0
-3 -13 -1 15.01 9.07 0
-3 -5 0 865.67 16.51 0
-3 -1 0 2112.33 27.65 0
-2 -6 0 1635.98 32.11 0
-1 -17 -2 460.94 15.29 0
0 8 -1 9.98 13.67 0
1 7 -1 58.26 14.06 0
1 11 -2 13.85 9.41 0
2 10 -2 1022.48 17.03 0
4 6 -2 878.15 15.42 0
4 10 -3 44.81 9.53 0
5 1 -2 324.59 11.2 0
5 7 -3 108.06 7.2 0
6 -8 -3 81.76 12.21 0
6 10 -5 25.76 10.09 0
-9 -3 -3 49.44 10.05 0
-9 -1 -3 6.04 8.05 0
-8 6 -3 72.49 12.38 0
-7 -9 -2 301.12 10.35 0
-6 -12 -2 523.92 11.79 0
-6 0 -1 4.41 8.44 0
-5 -9 -1 514.69 11.58 0
-4 14 -3 5.41 14.83 0
-4 16 -4 4.57 14.56 0
-3 -19 -3 -5.01 10.69 0
-3 -3 0 21.53 9.47 0
-1 -13 -1 877.21 22.01 0
-1 15 -3 420.97 19.63 0
-1 17 -4 66.87 14.58 0
0 12 -2 1444.1 22.94 0
2 6 -1 1795.85 25.95 0
3 3 -1 252.74 14.82 0
3 9 -2 196.28 11.54 0
5 -7 -2 2189.49 32.85 0
5 11 -4 895.05 17.91 0
5 13 -5 182.99 13.11 0
6 4 -3 127.47 10.6 0
6 8 -4 910.22 16.99 0
7 3 -4 392.09 13.19 0
7 7 -5 6.66 8.24 0
8 0 -5 4.26 8.89 0
-7 9 -3 119.94 19.05 0
-6 -4 -1 92.08 7.16 0
-6 -2 -1 57.95 8.3 0
-4 -18 -3 44.01 9.54 0
-1 -19 -3 11.19 12.67 0
-1 -5 0 2512.95 80.78 0
0 -4 0 644.1 46.23 0
2 -10 -1 158.95 22.96 0
3 -13 -2 738.71 43.9 0
5 3 -2 254.05 11.59 0
-7 -7 -2 240.04 11.81 0
-5 -13 -2 15.7 9.48 0
-4 -10 -1 26.61 9.67 0
-2 -16 -2 197.68 12.99 0
-2 -12 -1 47.46 11.17 0
-2 -4 0 4367.9 45.42 0
-2 0 0 19.91 20.7 0
-1 9 -1 3382.52 49.97 0
0 -16 -2 37.76 13.04 0
0 -12 -1 3.49 14.57 0
2 14 -3 73.67 12.71 0
2 16 -4 145.5 14.2 0
3 13 -3 -2.75 13.54 0
3 15 -4 967.86 20.52 0
4 14 -4 141.98 13.1 0
5 9 -3 513.76 15.65 0
7 -9 -4 32.01 15.9 0
7 5 -4 506.63 15.75 0
-8 -8 -3 2.87 8.79 0
-7 3 -2 26.81 9.41 0
-6 -14 -3 29.36 11.19 0
-6 -10 -2 169.61 11.84 0
-5 -7 -1 91.61 9.97 0
-4 -14 -2 206.18 12.91 0
-3 -15 -2 19.74 11.03 0
-3 -11 -1 1.51 10 0
-3 15 -3 14.78 15.54 0
-3 17 -4 418.26 25.39 0
-2 -2 0 414.92 25.11 0
-1 13 -2 226.76 20.96 0
1 -15 -2 377.63 24.27 0
1 -11 -1 299.54 23.11 0
1 15 -3 408.38 18.71 0
1 17 -4 91.94 15 0
3 5 -1 27.26 16.44 0
4 8 -2 2044.68 25.79 0
5 5 -2 1209.36 21.22 0
6 6 -3 16.01 10.43 0
6 10 -4 175.09 14.15 0
-8 -6 -3 79.04 11.88 0
-8 4 -3 6.42 10.39 0
-7 -11 -3 1.91 11.66 0
-7 -5 -2 12.65 10.24 0
-5 -15 -3 13.73 10.4 0
-2 -18 -3 20.79 11.92 0
-1 -3 0 2870.08 84.15 0
0 -18 -3 4.39 13.29 0
0 -2 0 2618.46 165.43 0
2 -14 -2 276.9 31 0
4 -2 -1 2639.04 37.54 0
4 0 -1 44.95 15.65 0
4 12 -3 25.95 10.42 0
5 13 -4 571.55 20.58 0
7 -3 -3 8.2 15.54 0
7 -1 -3 24.27 11.75 0
7 7 -4 69.84 13.74 0
-7 -3 -2 18 10.6 0
-7 -1 -2 732.74 18.93 0
-7 1 -2 533.35 19.97 0
-5 -11 -2 16.19 11.06 0
-5 -5 -1 386.43 12.56 0
-4 -16 -3 30.57 13.06 0
-4 -8 -1 91.38 12.52 0
-3 -17 -3 1.16 12.36 0
-1 -15 -2 186.55 19.23 0
0 16 -3 2.55 19.43 0
0 18 -4 21.15 20.25 0
1 9 -1 3003.63 45.25 0
1 13 -2 190.27 20.46 0
2 8 -1 74.57 21.55 0
2 12 -2 666.19 18.29 0
3 11 -2 3895.51 38.72 0
4 -4 -1 249.89 22.14 0
4 2 -1 2884.21 35.08 0
6 8 -3 74.41 14.71 0
7 1 -3 17.71 11.77 0
8 -2 -4 50.21 14.3 0
8 0 -4 -5.23 13.79 0
-8 -4 -3 9.62 11.57 0
-8 -2 -3 23.11 14.94 0
-8 0 -3 4.57 13.9 0
-8 2 -3 51.93 15 0
-7 -9 -3 66.88 14.15 0
-6 -12 -3 4.68 12.32 0
-6 -8 -2 -0.29 11.1 0
-5 -3 -1 157.54 13.76 0
-5 1 -1 255.22 16.24 0
-2 16 -3 146.38 22.06 0
-2 18 -4 388.17 28 0
-1 -11 -1 185.65 19.11 0
-1 -1 0 1084.01 69.74 0
5 7 -2 1871.19 27.44 0
5 11 -3 81.53 12.88 0
6 -2 -2 218.57 17.77 0
6 0 -2 150.94 15.38 0
6 12 -4 10.91 16.56 0
7 -5 -3 202.52 19.88 0
7 3 -3 -2.52 13.18 0
7 9 -4 34.03 17.36 0
8 -4 -4 369.34 22.18 0
8 2 -4 41.74 14.26 0
-5 -1 -1 226.74 17.49 0
-4 -12 -2 -3.36 14.67 0
-3 -9 -1 13.17 10.69 0
-2 -14 -2 118.95 17.36 0
-2 -10 -1 90.75 17.9 0
0 10 -1 -5.42 26.45 0
1 -17 -3 14.86 17 0
2 18 -4 538.59 26.46 0
3 7 -1 49.89 19.53 0
3 15 -3 20.38 20.81 0
3 17 -4 737.37 30.06 0
4 4 -1 226.65 19.94 0
4 10 -2 253.97 14.75 0
4 16 -4 18.71 19.31 0
6 2 -2 139.11 15.6 0
7 5 -3 200.87 17.28 0
8 4 -4 311.53 19.55 0
-3 -13 -2 436.9 24 0
-7 -5 -3 112.27 16.38 0
