#------------------------------------------------------------------------------
#$Date: 2019-11-24 06:02:49 +0200 (Sun, 24 Nov 2019) $
#$Revision: 236893 $
#$URL: file:///home/coder/svn-repositories/cod/cif/4/34/98/4349853.cif $
#------------------------------------------------------------------------------
#
# This file is available in the Crystallography Open Database (COD),
# http://www.crystallography.net/
#
# All data on this site have been placed in the public domain by the
# contributors.
#
data_4349853
loop_
_publ_author_name
'Gorelova, Liudmila A.'
'Pakhomova, Anna S.'
'Aprilis, Georgios'
'Dubrovinsky, Leonid S.'
'Krivovichev, Sergey V.'
_publ_section_title
;
 Pentacoordinated silicon in the high-pressure modification of datolite,
 CaBSiO4(OH)
;
_journal_issue                   7
_journal_name_full               'Inorganic Chemistry Frontiers'
_journal_page_first              1653
_journal_paper_doi               10.1039/C8QI00257F
_journal_volume                  5
_journal_year                    2018
_chemical_formula_sum            'B Ca H O5 Si'
_chemical_formula_weight         159.99
_space_group_crystal_system      monoclinic
_space_group_IT_number           14
_space_group_name_Hall           '-P 2ybc'
_space_group_name_H-M_alt        'P 1 21/c 1'
_atom_sites_solution_hydrogens   difmap
_audit_creation_method           SHELXL-2014/7
_audit_update_record
;
2018-03-21 deposited with the CCDC.
2018-05-04 downloaded from the CCDC.
;
_cell_angle_alpha                90
_cell_angle_beta                 90.900(17)
_cell_angle_gamma                90
_cell_formula_units_Z            4
_cell_length_a                   4.4367(19)
_cell_length_b                   7.2074(7)
_cell_length_c                   9.2808(5)
_cell_measurement_reflns_used    1359
_cell_measurement_temperature    298(2)
_cell_measurement_theta_max      17.389
_cell_measurement_theta_min      1.502
_cell_volume                     296.74(13)
_computing_structure_refinement  'SHELXL-2014/7 (Sheldrick, 2014)'
_diffrn_ambient_temperature      298(2)
_diffrn_measured_fraction_theta_full 0.517
_diffrn_measured_fraction_theta_max 0.290
_diffrn_measurement_device_type
'esperanto-CrysAlisPro-abstract goniometer imported esperanto images'
_diffrn_radiation_wavelength     0.2984
_diffrn_reflns_av_R_equivalents  0.0435
_diffrn_reflns_av_unetI/netI     0.0600
_diffrn_reflns_Laue_measured_fraction_full 0.517
_diffrn_reflns_Laue_measured_fraction_max 0.290
_diffrn_reflns_limit_h_max       4
_diffrn_reflns_limit_h_min       -5
_diffrn_reflns_limit_k_max       13
_diffrn_reflns_limit_k_min       -14
_diffrn_reflns_limit_l_max       17
_diffrn_reflns_limit_l_min       -18
_diffrn_reflns_number            1359
_diffrn_reflns_point_group_measured_fraction_full 0.517
_diffrn_reflns_point_group_measured_fraction_max 0.290
_diffrn_reflns_theta_full        10.314
_diffrn_reflns_theta_max         17.389
_diffrn_reflns_theta_min         1.502
_exptl_absorpt_coefficient_mu    1.219
_exptl_crystal_colour            colorless
_exptl_crystal_density_diffrn    3.581
_exptl_crystal_density_meas      ?
_exptl_crystal_density_method    none
_exptl_crystal_description       isosymmetrical
_exptl_crystal_F_000             320
_exptl_crystal_size_max          0.010
_exptl_crystal_size_mid          0.010
_exptl_crystal_size_min          0.005
_refine_diff_density_max         1.833
_refine_diff_density_min         -1.331
_refine_diff_density_rms         0.332
_refine_ls_extinction_method     none
_refine_ls_goodness_of_fit_ref   1.058
_refine_ls_hydrogen_treatment    refxyz
_refine_ls_matrix_type           full
_refine_ls_number_parameters     47
_refine_ls_number_reflns         724
_refine_ls_number_restraints     1
_refine_ls_restrained_S_all      1.057
_refine_ls_R_factor_all          0.0979
_refine_ls_R_factor_gt           0.0847
_refine_ls_shift/su_max          0.000
_refine_ls_shift/su_mean         0.000
_refine_ls_structure_factor_coef Fsqd
_refine_ls_weighting_details
'w=1/[\s^2^(Fo^2^)+(0.2000P)^2^] where P=(Fo^2^+2Fc^2^)/3'
_refine_ls_weighting_scheme      calc
_refine_ls_wR_factor_gt          0.2347
_refine_ls_wR_factor_ref         0.2645
_reflns_Friedel_coverage         0.000
_reflns_number_gt                577
_reflns_number_total             724
_reflns_threshold_expression     'I > 2\s(I)'
_cod_data_source_file            c8qi00257f2.cif
_cod_data_source_block           shelx_CCDC7
_cod_depositor_comments
;
The following automatic conversions were performed:

data item '_exptl_crystal_density_meas' value 'none' was changed to
'?' -- the value is perceived as not measured.

Automatic conversion script
Id: cif_fix_values 6909 2019-04-08 15:41:33Z antanas 
;
_cod_original_sg_symbol_H-M      'P 21/c'
_cod_database_code               4349853
_shelx_shelxl_version_number     2014/7
_shelx_space_group_comment
;
The symmetry employed for this shelxl refinement is uniquely defined
by the following loop, which should always be used as a source of
symmetry information in preference to the above space-group names.
They are only intended as comments.
;
_shelx_res_file
;

    shelx.res created by SHELXL-2014/7


TITL cr2_p04_s1 in P2(1)/c
REM P2(1)/c (#14 in standard setting)
CELL 0.29840   4.436689   7.207412   9.280840  90.0000  90.9000  90.0000
ZERR    1.00   0.001940   0.000735   0.000542   0.0000   0.0172   0.0000
LATT  1
SYMM -x, y+1/2,-z+1/2
SFAC O Si B Ca H
DISP    Ca    0.04252    0.05128       101.36
DISP    B    -0.00051    0.00009         3.17
DISP    O    -0.00099    0.00082         6.66
DISP    Si    0.00827    0.01077        28.21
UNIT 5.00 1.00 1.00 1.00 1.00

OMIT   -1   0  10
OMIT     0  10   7
OMIT    -2   5  10
OMIT     0   9   3
OMIT    -1   8   4
OMIT     0  12   1
OMIT    -1  10   6
OMIT    -1   0  14
OMIT    -2   4  12
OMIT    -1   9   5
OMIT     0   1   3
OMIT    -1  11   4

L.S. 20
ACTA
BOND $H
DFIX 0.90 0.02 H O5
TEMP 25.0
FMAP 2
PLAN 25
EADP O1 O2 O3 O4 O5
WGHT    0.200000
REM EXTI    0.000000
FVAR       7.53191
CA1   4    0.007830    0.609821    0.170741    11.00000    0.01026    0.01087 =
         0.00205    0.00002    0.00178    0.00014
SI1   2    0.489661    0.280811    0.080517    11.00000    0.00674    0.01087 =
         0.00132    0.00000    0.00108    0.00037
B1    3    0.587656    0.083848   -0.156085    11.00000    0.00638
O1    1    0.250781    0.424123    0.029358    11.00000    0.01374    0.01172 =
         0.00217    0.00066    0.00198    0.00011
O2    1    0.710813    0.190988   -0.035151    11.00000    0.01374    0.01172 =
         0.00217    0.00066    0.00198    0.00011
O3    1    0.708609    0.340692    0.213766    11.00000    0.01374    0.01172 =
         0.00217    0.00066    0.00198    0.00011
O4    1    0.301931    0.103259    0.139239    11.00000    0.01374    0.01172 =
         0.00217    0.00066    0.00198    0.00011
O5    1    0.260221    0.091918   -0.159694    11.00000    0.01374    0.01172 =
         0.00217    0.00066    0.00198    0.00011
H     5    0.169446    0.051820   -0.080119    11.00000   10.01000

HKLF 4

REM  cr2_p04_s1 in P2(1)/c
REM R1 =  0.0873 for     577 Fo > 4sig(Fo)  and  0.1003 for all     724 data
REM     48 parameters refined using      1 restraints

END

WGHT      0.1639      0.5483

REM Highest difference peak  1.833,  deepest hole -1.331,  1-sigma level  0.332
Q1    1  -0.0339  0.5210  0.1702  11.00000  0.05    1.83
Q2    1   0.0353  0.7046  0.1723  11.00000  0.05    1.67
Q3    1   0.4726  0.1892  0.0845  11.00000  0.05    1.23
Q4    1   0.2665  0.4187  0.0691  11.00000  0.05    1.14
Q5    1   0.2646 -0.0036  0.1553  11.00000  0.05    1.13
Q6    1   0.3925  0.3626  0.0799  11.00000  0.05    1.06
Q7    1   0.7113  0.4179  0.2053  11.00000  0.05    1.05
Q8    1   0.1790  0.2444 -0.1619  11.00000  0.05    0.99
Q9    1   0.4803 -0.0028 -0.1472  11.00000  0.05    0.95
Q10   1   0.2425  0.5197  0.0220  11.00000  0.05    0.93
Q11   1   0.0608  0.0275 -0.1586  11.00000  0.05    0.91
Q12   1   0.3003  0.2051 -0.1613  11.00000  0.05    0.88
Q13   1   0.5549  0.2802 -0.0345  11.00000  0.05    0.88
Q14   1   0.4860  0.4406 -0.0294  11.00000  0.05    0.87
Q15   1  -0.2343  0.6240  0.2195  11.00000  0.05    0.87
Q16   1   0.4180  0.1749 -0.2301  11.00000  0.05    0.83
Q17   1   0.5977  0.3570  0.0788  11.00000  0.05    0.82
Q18   1   0.1165  0.4658  0.0970  11.00000  0.05    0.76
Q19   1   0.3693  0.3519  0.0090  11.00000  0.05    0.74
Q20   1   0.3743  0.2789 -0.2190  11.00000  0.05    0.73
Q21   1   0.0715  0.0976 -0.1286  11.00000  0.05    0.73
Q22   1   0.7841  0.2603  0.2023  11.00000  0.05    0.72
Q23   1   0.2947  0.0171 -0.3123  11.00000  0.05    0.69
Q24   1   0.0278  0.1831 -0.0771  11.00000  0.05    0.67
Q25   1   0.1019  0.0405  0.1424  11.00000  0.05    0.62
;
_shelx_res_checksum              75895
_shelx_hkl_file
;
   0   0  -3 7.45536 38.8215   1
   0   0   3 27.3471 46.1405   1
   0   0  -4 111249. 2332.14   1
   0   0   4 107947. 2325.38   1
   0   0  -5-28.9136 88.2013   1
   0   0   5 3.82484 36.0826   1
   0   0   6 205757. 3983.37   1
   0   0  -6 204001. 3921.91   1
   0   0   7 13.7981 48.4463   1
   0   0  -7-15.5458 164.139   1
   0   0   8 144604. 3869.80   1
   0   0  -8 146408. 4058.10   1
   0   0   9-68.6248 147.069   1
   0   0  -9 154.600 209.236   1
   0   0  10 29154.6 1958.66   1
   0   0 -10 32449.0 2113.26   1
   0   0  11-46.7160 82.9874   1
   0   0 -11 12.9267 175.007   1
   0   0 -12 87325.8 4085.24   1
   0   0  12 73203.1 3490.86   1
   0   0 -13 268.214 329.173   1
   0   0  13-46.1724 173.037   1
   0   0 -14 1017.45 395.242   1
   0   0  14 1196.39 422.836   1
   0   0  15-13.7177 253.918   1
   0   0 -15-150.277 300.578   1
   0   0 -16 47613.7 3569.53   1
   0   0  16 52257.3 4244.75   1
   0   0  17-249.967 364.696   1
   0  -1   1 10100.8 491.869   1
   0   1  -1 10606.8 503.137   1
   0   1  -2 124.346 51.3493   1
   0  -1   2 149.433 77.1270   1
   0  -1   3 2393.48 358.665   1
   0   1  -3 2345.25 365.213   1
   0   1   4 151360. 2173.02   1
   0  -1  -4 146838. 2139.58   1
   0  -1   4 150585. 3062.72   1
   0   1  -4 152375. 3115.87   1
   0   1  -5 79871.1 2634.77   1
   0  -1  -5 95953.4 1956.71   1
   0  -1   5 78482.9 2539.81   1
   0   1   5 92320.3 1896.01   1
   0   1  -6-18.6533 64.2326   1
   0   1   6 572.631 167.312   1
   0  -1  -6 781.938 227.669   1
   0  -1   6-34.7986 57.5590   1
   0  -1   7 31507.7 1849.71   1
   0   1  -7 27485.2 1643.33   1
   0  -1  -7 54894.9 2049.87   1
   0   1   7 46533.3 1700.64   1
   0   1   8 214037. 4207.09   1
   0   1  -8 207088. 5011.37   1
   0  -1   8 215836. 5159.59   1
   0  -1  -9 6327.08 817.268   1
   0   1   9 4898.44 667.216   1
   0   1  -9 5317.48 844.708   1
   0  -1   9 5402.53 827.409   1
   0   1 -10 3214.96 705.913   1
   0  -1  10 3127.58 651.739   1
   0   1 -11 28355.9 2297.36   1
   0  -1 -11 55432.1 2871.73   1
   0  -1  11 32138.8 2326.86   1
   0   1  11 47295.5 2532.54   1
   0   1 -12 8432.34 1350.62   1
   0  -1  12 8471.29 1321.37   1
   0   1 -13 1847.74 663.223   1
   0  -1 -13 2807.71 754.557   1
   0  -1  13 1092.88 417.905   1
   0   1  13 2736.18 684.890   1
   0   1  14 1832.61 595.643   1
   0  -1  14 878.126 337.315   1
   0   1 -14 495.408 348.464   1
   0  -1 -14 1849.52 653.760   1
   0   1  15 14701.5 1817.39   1
   0  -1  15 14382.3 2036.27   1
   0  -1 -15 15246.9 1847.48   1
   0   1 -15 12488.4 1795.14   1
   0  -1  16 83666.9 5774.92   1
   0   1  16 83473.2 4709.75   1
   0  -1 -16 81101.4 4536.00   1
   0  -1  17 10216.8 2171.54   1
   0   1 -17 7318.82 1513.99   1
   0   2   0 10504.1 542.019   1
   0  -2   0 10717.8 555.159   1
   0  -2   1 797.492 164.163   1
   0   2  -1 878.856 188.797   1
   0  -2   2 37520.5 1394.44   1
   0   2  -2 35887.8 1398.86   1
   0   2  -3 15148.1 1022.67   1
   0  -2   3 15630.8 996.787   1
   0  -2   4 5139.89 633.108   1
   0   2  -4 4152.56 559.230   1
   0   2  -5 237361. 4690.66   1
   0   2   5 233641. 3092.63   1
   0   2  -6 141707. 3917.82   1
   0   2   6 134500. 2569.13   1
   0  -2   6 148161. 3865.96   1
   0   2   7 6126.35 603.127   1
   0   2  -7 6712.89 904.301   1
   0  -2   7 6833.95 897.206   1
   0  -2  -7 6051.79 632.950   1
   0   2   8 14790.1 1098.04   1
   0  -2  -8 13646.9 1075.97   1
   0  -2   8 15372.2 1416.81   1
   0   2  -8 14597.5 1408.93   1
   0   2  -9 1048.48 481.202   1
   0  -2   9 996.523 412.971   1
   0   2   9 1536.58 460.123   1
   0  -2  -9 2198.23 597.327   1
   0  -2  10 13718.5 1488.48   1
   0   2 -10 12734.6 1478.91   1
   0   2  10 14510.2 1240.69   1
   0  -2 -10 16739.3 1434.68   1
   0   2  11 22625.9 1647.58   1
   0   2 -11 21337.3 2206.27   1
   0  -2  11 18390.5 1874.57   1
   0  -2  12 711.036 346.030   1
   0   2 -12 725.946 422.532   1
   0   2  12 1372.16 424.565   1
   0   2 -13 12831.5 1845.46   1
   0  -2  13 14671.7 1841.83   1
   0  -2 -14 7628.78 1217.56   1
   0   2 -14 6758.07 1251.30   1
   0  -2  14 7436.61 1332.96   1
   0   2  14 6807.83 1046.09   1
   0   2 -15 26724.2 2724.58   1
   0  -2  15 32397.1 3222.04   1
   0   2 -16 115.056 245.529   1
   0  -2  16-163.361 618.576   1
   0   3   0 153.083 206.156   1
   0  -3   0 119.254 204.453   1
   0  -3  -1 1959.73 249.073   1
   0  -3   1 2023.20 317.323   1
   0   3  -1 2486.98 396.877   1
   0   3  -2 176802. 3528.02   1
   0  -3   2 182413. 3552.57   1
   0  -3   3 80537.9 2450.04   1
   0   3  -3 84740.9 2584.46   1
   0   3  -4 78493.7 2777.41   1
   0  -3   4 80561.3 2751.43   1
   0  -3   5 1611.75 397.974   1
   0   3  -5 1571.12 405.737   1
   0  -3  -6 983.581 169.820   1
   0  -3   6 2389.72 491.373   1
   0   3  -6 2417.28 545.481   1
   0  -3  -7 28610.2 1284.19   1
   0   3  -7 30810.8 2087.85   1
   0  -3  -8 205.478 86.8139   1
   0  -3   8 506.422 375.283   1
   0   3   8 622.747 251.796   1
   0  -3  -9 1438.66 375.687   1
   0   3   9 742.506 171.007   1
   0  -3   9 1023.68 425.268   1
   0   3  -9 1671.39 610.532   1
   0   3  10 217265. 4833.28   1
   0   3 -10 233165. 7148.46   1
   0  -3 -11 31048.0 2081.67   1
   0  -3  11 24546.7 2253.89   1
   0   3 -11 26421.5 2412.35   1
   0   3  11 25608.2 1733.37   1
   0  -3  12 550.212 282.626   1
   0   3 -12 698.513 507.383   1
   0  -3 -12 747.952 344.548   1
   0   3  12 366.973 166.196   1
   0   3  13 13764.1 1334.04   1
   0  -3 -13 14014.2 1518.97   1
   0   3 -13 13139.5 1910.35   1
   0  -3  13 14418.8 1908.51   1
   0   3  14 39138.3 2407.98   1
   0  -3  14 47388.6 3781.53   1
   0   3 -14 44290.1 3489.48   1
   0   3 -15 340.425 234.894   1
   0   4   0 186481. 3459.64   1
   0  -4   0 188416. 3402.82   1
   0   4  -1 39532.4 1714.69   1
   0  -4   1 39031.5 1648.85   1
   0  -4  -1 39098.6 1426.79   1
   0  -4   2 126016. 3266.47   1
   0   4  -2 119752. 3298.21   1
   0  -4   3 9961.55 942.886   1
   0   4  -3 12273.3 1192.73   1
   0   4  -4 14048.7 1266.78   1
   0  -4   4 13157.9 1184.91   1
   0  -4   5 9401.03 1068.69   1
   0   4  -5 12050.5 1341.14   1
   0   4  -6 224035. 5538.10   1
   0  -4   6 208652. 5153.98   1
   0   4  -7 1860.92 781.641   1
   0  -4   7 910.979 596.652   1
   0   4  -8 2086.42 729.124   1
   0  -4  -8 527.361 196.933   1
   0  -4   8 2037.74 669.055   1
   0  -4   9 23626.3 2048.48   1
   0   4  -9 26885.1 2396.57   1
   0  -4 -10 22146.2 1447.79   1
   0   4 -10 21271.2 2149.31   1
   0  -4  10 20724.3 2023.58   1
   0  -4 -11 454.508 106.386   1
   0  -4  11 781.289 376.235   1
   0   4  11 77.0765 174.770   1
   0   4 -11 937.231 476.032   1
   0   4 -12 3224.16 964.389   1
   0   4  12 2069.72 455.098   1
   0  -4  12 3776.54 938.003   1
   0   4 -13 64.4571 233.207   1
   0  -4  13-36.8579 95.5838   1
   0   4 -14 9978.24 1662.74   1
   0  -5   0-18.4246 75.0902   1
   0   5  -1 177.133 185.401   1
   0  -5   1 129.845 211.622   1
   0  -5  -1-116.837 148.137   1
   0  -5   2 10175.9 954.362   1
   0  -5  -2 10982.5 834.204   1
   0   5  -2 10674.5 1069.18   1
   0  -5   3 3230.19 590.264   1
   0   5  -3 3130.34 614.696   1
   0  -5  -3 3359.32 426.161   1
   0   5  -4 27455.4 1987.79   1
   0  -5   4 24717.7 1793.52   1
   0  -5   5 86861.8 3566.88   1
   0   5  -5 95992.6 3887.34   1
   0   5  -6 1025.69 426.798   1
   0  -5   6 774.574 276.962   1
   0  -5   7 6858.10 1028.57   1
   0   5  -7 8320.15 1269.75   1
   0  -5   8 1665.44 538.917   1
   0   5  -8 1758.90 572.824   1
   0   5  -9 16648.6 1913.23   1
   0  -5   9 14783.9 1667.59   1
   0  -5  10 11622.4 1564.71   1
   0   5 -10 11069.4 1620.63   1
   0   5 -11 2143.28 703.218   1
   0  -5  11 2016.33 660.625   1
   0  -5  12 4315.80 1005.32   1
   0   5 -12 4631.41 1114.02   1
   0   5 -13 29244.0 2957.21   1
   0  -6   0 94960.3 2902.41   1
   0  -6  -1 81116.9 2909.91   1
   0  -6   1 76286.7 2780.68   1
   0  -6   2 62.6630 114.360   1
   0   6  -2 12.8266 106.980   1
   0  -6  -2 8.89338 110.638   1
   0   6  -3 50555.8 2715.48   1
   0  -6   3 47762.6 2550.90   1
   0  -6   4 37206.6 2370.76   1
   0  -6  -4 35936.5 1406.15   1
   0  -6  -5 302.461 90.1966   1
   0   6  -5 423.041 161.454   1
   0  -6   5 621.824 287.116   1
   0  -6   6 26530.1 2115.39   1
   0   6  -7 18347.8 1964.64   1
   0  -6   7 15979.7 1628.85   1
   0   6  -8 2623.82 748.917   1
   0  -6   8 2589.53 772.995   1
   0  -6   9 4881.92 994.954   1
   0   6  -9 4935.44 1118.39   1
   0  -6  10 11857.6 1692.15   1
   0   6 -10 11817.3 1665.45   1
   0   6 -11 18489.5 2172.75   1
   0   6 -12 31717.6 3073.38   1
   0  -7   0-70.8041 451.564   1
   0  -7  -1 10995.2 1143.06   1
   0  -7   1 9033.15 1153.28   1
   0  -7  -2 23219.1 1686.94   1
   0  -7   3 24957.2 2086.52   1
   0  -7  -3 26301.1 1757.00   1
   0   7  -4 95970.1 4155.97   1
   0  -7   4 95066.3 4099.84   1
   0   7  -5 24380.9 2196.95   1
   0  -7   5 23190.7 2012.56   1
   0  -7   6 941.382 463.988   1
   0   7  -6 788.954 412.910   1
   0  -7  -6 147.989 49.2311   1
   0  -7   7 13919.4 1774.55   1
   0   7  -8 7123.77 1308.69   1
   0  -7   8 6018.90 1161.64   1
   0  -7   9 506.881 381.016   1
   0   7  -9 197.387 371.145   1
   0   7 -11 3999.93 1018.20   1
   0  -8   0 2675.65 666.818   1
   0  -8  -1 2981.76 701.704   1
   0  -8   1 2827.76 805.487   1
   0  -8   2 20812.7 2129.67   1
   0  -8  -2 23819.7 1977.63   1
   0  -8   3 39818.3 2851.44   1
   0  -8  -3 37537.4 2339.21   1
   0   8  -4 13221.7 1620.56   1
   0  -8   4 12437.9 1527.97   1
   0  -8  -4 13983.1 1303.85   1
   0   8  -6 7076.82 1299.71   1
   0  -8   6 6122.03 1142.17   1
   0  -8   7 4620.93 1101.06   1
   0   8  -7 4652.38 1082.69   1
   0  -8   8 2158.25 776.611   1
   0   8  -8 2523.03 894.394   1
   0   8  -9 608.616 390.395   1
   0  -9   0 52.7531 111.342   1
   0  -9   2 3095.62 922.393   1
   0  -9  -2 1778.33 683.808   1
   0  -9  -3 25889.5 2469.81   1
   0  -9   4 4641.85 1116.62   1
   0  -9  -4 4188.50 633.602   1
   0  -9   5 426.021 418.195   1
   0  -9  -5 284.618 196.581   1
   0  -9   6-248.418 359.444   1
   0  -9  -6-111.590 183.193   1
   0  -9   7 1898.23 741.491   1
   0   9  -7 2211.15 832.422   1
   0   9  -8 1840.00 749.578   1
   0 -10  -2 76.0368 253.006   1
   0 -10   2 536.693 541.928   1
   0 -10  -3 4318.53 974.498   1
   0 -10   3 4899.73 1268.35   1
   0 -10  -5 7033.23 847.550   1
   0 -10   6 17703.2 2306.37   1
   0 -10  -7 3868.69 430.355   1
   0 -11   0 244.757 372.851   1
   0 -11   1 14137.6 2236.88   1
   0 -11  -1 14237.8 2220.35   1
   0 -11  -2 5205.81 1287.20   1
   0 -11   2 4083.42 1208.13   1
   0 -11  -3 608.429 420.617   1
   0 -11   3 120.941 290.782   1
   0 -11  -4 16431.5 1861.52   1
   0 -11  -5 2400.82 621.635   1
   0 -12   0 1614.60 891.633   1
   0 -12  -1 38798.0 4020.29   1
   0 -12   2 478.700 620.417   1
   0 -12  -2 295.624 462.934   1
   0 -12  -3 682.929 441.837   1
   0 -12   3 1544.81 986.575   1
   0 -12  -4 706.498 273.345   1
   0 -13   0-2246.79 1223.48   1
   0 -13   1 522.894 388.062   1
   0 -13  -1 369.772 443.585   1
   0 -13  -2 6897.10 1710.20   1
   0 -13   2 10586.0 2544.85   1
   0 -14   0 1754.55 836.809   1
  -1   0  16 10261.0 2156.34   1
  -1   0  15 207.804 422.171   1
  -1   0  14 159422. 7482.71   1
  -1   0  13-100.375 282.711   1
  -1   0  12 26720.0 2314.71   1
  -1   0  11 55.6185 246.890   1
  -1   0  10 55158.1 2781.64   1
  -1   0   9-193.847 218.856   1
  -1   0   8 27461.9 1613.62   1
  -1   0  -3 51.4687 153.734   1
   1   0   3-6.04944 45.9200   1
   1   0   4 223913. 4542.74   1
  -1   0  -4 220369. 4750.68   1
  -1   0  -5 87.6700 100.728   1
   1   0   5-134.078 125.084   1
   1   0   6 274512. 5589.49   1
  -1   0  -6 273434. 5188.87   1
  -1   0  -7 140.217 211.292   1
   1   0   7-9.16879 144.736   1
  -1   0  -8 97781.4 3522.36   1
   1   0   8 107685. 3922.94   1
  -1   0  -9-124.737 153.558   1
   1   0   9-106.298 219.620   1
   1   0  10 37412.5 2631.62   1
  -1   0 -10 37900.7 2422.48   1
  -1   0 -11-175.201 255.264   1
   1   0  11-162.188 242.346   1
  -1   0 -12 582.566 435.076   1
   1   0  12-284.548 288.389   1
  -1   0 -13 100.730 223.312   1
   1   0  13 51.8635 245.640   1
   1   0  14 62500.7 4206.02   1
  -1   0 -14 90017.1 4400.51   1
  -1   0 -15 807.884 669.250   1
  -1   0 -16 988.676 448.688   1
   1   0  16 1149.32 752.246   1
  -1   0 -17 249.247 314.146   1
   1   0  17 400.553 147.549   1
  -1   0 -18 28794.0 2762.91   1
  -1  -1  17 9805.95 2704.00   1
  -1  -1  16 2473.99 1256.51   1
  -1   1  15 35450.9 3363.34   1
  -1  -1  15 33701.7 3851.45   1
  -1  -1  14 35368.1 3650.22   1
  -1   1  14 35345.9 3067.65   1
  -1  -1  13 22950.6 2663.36   1
  -1   1  13 28318.1 2612.91   1
  -1  -1  12 9479.36 1527.20   1
  -1   1  12 12131.3 1588.08   1
  -1   1  11 8354.39 1215.26   1
  -1  -1  11 4008.37 951.424   1
  -1   1  10 170847. 5247.92   1
  -1   1   9 45913.1 2094.56   1
  -1  -1   9 37975.0 2186.99   1
  -1   1   7 62004.6 2216.50   1
  -1   1  -1 86198.7 2287.43   1
   1  -1   2 291924. 4689.69   1
  -1   1  -2 290423. 4824.14   1
  -1   1  -3 302749. 5143.89   1
   1  -1   3 302897. 5278.99   1
  -1   1  -4 53050.2 2282.34   1
   1  -1   4 55184.6 2343.71   1
   1  -1   5 28808.0 1793.18   1
  -1   1  -5 28174.9 1634.95   1
  -1   1  -6 452.896 225.088   1
   1   1   6 1532.23 656.399   1
  -1  -1  -6 2029.11 662.668   1
   1  -1   6 305.975 143.605   1
   1   1   7 8930.53 1185.75   1
   1  -1   7 10029.3 1128.42   1
  -1  -1  -7 9443.83 1070.88   1
  -1   1  -7 9588.90 1057.22   1
   1   1   8 21194.3 1861.24   1
   1  -1   8 19402.7 1745.19   1
  -1  -1  -8 21032.6 1603.84   1
  -1   1  -8 19656.0 1645.02   1
   1  -1   9 61080.5 3278.34   1
   1   1   9 58189.4 3129.93   1
  -1   1  -9 56313.1 2964.41   1
  -1  -1  -9 59728.5 2729.87   1
  -1  -1 -10 81893.5 3588.38   1
   1   1  10 83651.6 3957.23   1
   1  -1  10 73912.9 3725.71   1
  -1   1 -11 9593.51 1403.44   1
  -1  -1 -11 12587.2 1421.24   1
   1  -1  11 10204.2 1475.64   1
   1   1  11 11712.6 1621.45   1
  -1  -1 -12 6053.37 1067.30   1
  -1   1 -12 5945.23 1089.46   1
   1   1  12 5330.87 1116.02   1
   1  -1  12 5896.69 1050.22   1
  -1   1 -13 5296.56 1115.61   1
   1  -1  13 6057.48 1164.90   1
  -1  -1 -14 18001.3 1826.46   1
  -1   1 -14 15810.4 1923.56   1
   1   1  14 16589.1 1989.03   1
   1  -1  14 16247.4 2027.89   1
  -1  -1 -15 14446.1 1824.50   1
   1   1  15 12204.9 1824.64   1
  -1   1 -15 11835.5 1597.50   1
   1  -1  15 12333.6 1897.59   1
   1  -1  16 526.757 164.789   1
  -1  -1 -16 1026.81 558.644   1
  -1   1 -16 719.399 444.056   1
   1   1  16 774.804 539.323   1
  -1  -1 -17 8635.56 1464.27   1
  -1   1 -17 8957.42 1535.14   1
  -1  -2  16-862.463 1067.63   1
  -1  -2  15 8211.99 1956.04   1
  -1  -2  14 253.434 338.627   1
  -1   2  14 2052.88 653.548   1
  -1   2  13 11714.6 1419.37   1
  -1   2  12 20803.5 1811.59   1
  -1   2  11 43197.9 2553.49   1
  -1   2  10 14484.6 1274.06   1
  -1  -2  10 12150.8 1376.79   1
  -1   2   9 33889.1 2080.13   1
  -1   2   8 35529.2 1649.44   1
  -1   2   0 134358. 2949.79   1
   1  -2   0 138002. 3038.18   1
   1  -2   1 208250. 3990.92   1
  -1   2  -1 210998. 3899.54   1
   1  -2   2 18857.1 1298.71   1
  -1   2  -2 18853.6 1255.32   1
   1  -2   3 242455. 4717.00   1
  -1   2  -3 245938. 4552.80   1
   1  -2   4 162.167 207.809   1
  -1   2  -4 15.2109 72.4324   1
  -1   2  -5 36986.8 2026.68   1
   1  -2   5 38203.5 2236.87   1
   1  -2   6 34844.3 2230.36   1
  -1   2  -6 34597.3 2113.35   1
   1  -2   7 98139.3 3805.01   1
  -1   2  -7 98845.2 3688.87   1
  -1   2  -8 18653.8 1709.00   1
   1  -2   8 17921.3 1719.64   1
  -1  -2  -8 19229.3 1419.20   1
  -1   2  -9 9449.24 1161.90   1
   1  -2   9 9477.38 1329.27   1
  -1   2 -10 411.009 204.200   1
   1   2  10 1172.14 443.134   1
  -1  -2 -10 1358.29 409.592   1
  -1  -2 -11 56950.4 2796.95   1
  -1   2 -11 43521.6 2841.06   1
   1  -2  11 44970.9 3217.06   1
   1   2  11 52495.5 3181.08   1
  -1  -2 -12 21841.1 1751.56   1
   1  -2  12 24111.1 2429.56   1
   1   2  12 23515.0 2050.04   1
  -1   2 -12 22352.2 2132.55   1
  -1  -2 -13 91517.3 3770.48   1
  -1   2 -13 86617.6 4410.32   1
   1  -2  13 94631.8 5146.88   1
   1   2  13 88255.1 4079.49   1
   1  -2  14 1362.42 617.898   1
  -1  -2 -14 1240.61 394.045   1
  -1   2 -14 1263.48 491.430   1
   1   2  14 848.030 349.120   1
   1  -2  15 5018.68 1211.92   1
  -1   2 -15 3172.72 782.052   1
   1   2  15 3579.68 826.490   1
  -1  -2 -15 4068.88 922.195   1
  -1  -2 -16 2291.99 680.020   1
  -1   2 -16 3305.23 1004.98   1
  -1  -2 -17 4719.66 1047.54   1
  -1  -3  14-1386.86 1229.78   1
  -1   3  13 100.401 110.670   1
  -1  -3  13 2704.12 959.035   1
  -1   3  12 2386.06 518.066   1
  -1  -3  12 518.215 536.609   1
  -1   3  11 10825.4 1096.35   1
  -1   3  10 12881.5 955.273   1
  -1   3   9 27303.2 1390.94   1
  -1   3   8 92939.4 2462.70   1
  -1   3   7 10996.9 753.036   1
  -1   3   2 55813.8 1622.99   1
  -1   3   1 35093.6 1436.76   1
   1  -3  -1 33016.4 1440.47   1
  -1   3   0 195414. 3719.81   1
   1  -3   0 200654. 3903.97   1
   1  -3   1 34924.6 1691.48   1
  -1   3  -1 32831.4 1526.44   1
   1  -3   2 2744.93 524.607   1
  -1   3  -2 2485.80 421.277   1
   1  -3   3 23963.8 1602.46   1
  -1   3  -3 22200.2 1452.43   1
   1  -3   4 143939. 4194.34   1
  -1   3  -4 144188. 3953.97   1
  -1   3  -5 91986.9 3465.52   1
   1  -3   5 82801.3 3361.14   1
  -1   3  -6 13180.2 1322.90   1
   1  -3   6 13381.9 1327.90   1
  -1   3  -7 52946.4 2653.03   1
   1  -3   7 57688.6 2944.50   1
  -1   3  -8 49754.6 2818.23   1
  -1  -3  -8 52032.0 2477.34   1
   1  -3   8 50871.2 2872.06   1
  -1   3  -9 4313.59 986.686   1
   1  -3   9 4151.51 894.358   1
  -1  -3  -9 2830.94 512.405   1
   1  -3  10 3852.70 976.863   1
  -1   3 -10 4436.42 912.808   1
  -1  -3 -10 3515.29 558.420   1
  -1   3 -11 8358.30 1282.01   1
   1  -3  11 8635.28 1444.48   1
  -1  -3 -12 16334.9 1442.51   1
  -1   3 -12 15724.9 1831.97   1
   1  -3  12 18372.1 2204.73   1
  -1   3 -13 10703.1 1597.85   1
   1   3  13 13986.7 1639.54   1
   1  -3  13 13435.1 2009.29   1
   1  -3  14 974.622 570.007   1
  -1   3 -14 554.595 222.015   1
   1   3  14 392.009 299.460   1
  -1  -3 -14 715.711 306.596   1
  -1  -3 -15 4525.93 880.229   1
  -1   3 -15 2508.97 792.041   1
  -1  -3 -16 14749.4 1651.31   1
  -1   4  12 52517.9 2129.06   1
  -1   4  11 612.257 248.689   1
  -1   4  10 605.618 163.081   1
  -1   4   9 20563.6 894.562   1
  -1   4   3 8039.34 492.298   1
  -1   4   2 189.660 149.460   1
   1  -4  -2 444.745 165.103   1
  -1   4   1 1881.17 306.380   1
   1  -4  -1 1457.84 324.212   1
   1  -4   0 133761. 3403.42   1
  -1   4   0 142581. 3061.40   1
   1  -4   1 8936.96 918.850   1
  -1   4  -1 6093.23 694.734   1
   1  -4   2 3138.78 551.972   1
  -1   4  -2 3528.22 590.840   1
  -1   4  -3 49886.3 2311.59   1
   1  -4   3 44521.0 2165.33   1
  -1   4  -4 40005.8 2201.43   1
   1  -4   4 41746.6 2208.46   1
  -1   4  -5 75468.1 3102.52   1
   1  -4   5 76555.3 3204.55   1
  -1   4  -6 19567.3 1641.20   1
   1  -4   6 20462.2 1738.11   1
  -1   4  -7 45450.2 2800.36   1
   1  -4   7 44112.1 2641.66   1
  -1   4  -8 89161.5 3841.14   1
  -1  -4  -8 85588.6 3234.60   1
   1  -4   8 85199.6 3842.08   1
   1  -4   9 197.917 216.657   1
  -1  -4  -9 324.798 303.571   1
  -1   4  -9 276.142 282.485   1
  -1   4 -10 520.794 354.446   1
   1  -4  10 193.188 90.7452   1
  -1  -4 -10 319.811 58.1507   1
  -1   4 -11 499.581 255.713   1
   1  -4  11 561.302 333.256   1
  -1  -4 -11 685.377 290.625   1
  -1  -4 -12 46896.0 2269.52   1
  -1   4 -12 52913.8 3518.83   1
   1  -4  13 3141.82 968.601   1
  -1   4 -13 1635.53 542.516   1
  -1  -4 -13 2344.86 536.382   1
  -1   4 -14 4877.58 1057.74   1
  -1  -4 -14 3675.52 683.045   1
  -1   5   4 51343.0 1243.88   1
  -1   5   3 66738.1 1622.89   1
  -1   5   2 213.545 188.192   1
   1  -5  -2 51.9672 42.4025   1
  -1   5   1 98884.2 2519.66   1
   1  -5  -1 104657. 3171.98   1
  -1   5   0 36132.2 1949.91   1
   1  -5   0 36615.3 1891.51   1
  -1   5  -1 57453.9 2244.74   1
   1  -5   1 55073.3 2319.97   1
   1  -5   2 29.3028 125.182   1
  -1   5  -2 94.9079 92.2651   1
  -1   5  -3 119519. 3781.85   1
   1  -5   3 115223. 3670.58   1
  -1   5  -4 13036.5 1299.27   1
   1  -5   4 10738.9 1130.22   1
  -1   5  -5 9499.49 1138.42   1
   1  -5   5 8928.20 1069.17   1
   1  -5   6 1091.61 917.229   1
  -1   5  -6-271.843 250.640   1
   1  -5   7 23809.9 1929.69   1
  -1   5  -7 23290.2 1828.86   1
   1  -5   8 7425.45 1091.98   1
  -1  -5  -8 10951.3 1358.02   1
  -1   5  -8 9390.38 1294.26   1
  -1   5  -9 62266.2 3501.97   1
  -1  -5  -9 53888.7 2468.42   1
   1  -5   9 62744.5 3539.95   1
  -1   5 -10 1168.97 487.599   1
  -1  -5 -10 324.214 86.1414   1
   1  -5  10 1431.96 527.414   1
  -1   5 -11 21499.2 2331.75   1
   1  -5  11 19098.1 2184.13   1
  -1  -5 -11 13581.6 1141.87   1
  -1  -5 -12 1087.83 294.960   1
   1  -5  12 2145.37 752.241   1
  -1   5 -12 977.611 451.276   1
  -1  -5 -13 4017.75 644.899   1
  -1   5 -13 4679.35 1105.76   1
  -1   6   4 241.014 137.305   1
   1  -6  -4 27.8015 129.475   1
  -1   6   3 28433.8 1422.49   1
  -1   6   2 1069.96 231.664   1
   1  -6  -2 1321.21 355.014   1
   1  -6  -1 1095.13 315.709   1
  -1   6   1 1021.16 253.704   1
   1  -6   0 550.105 217.776   1
  -1   6   0 691.663 262.966   1
  -1   6  -1 40790.2 1964.60   1
   1  -6   1 47203.7 2347.56   1
  -1   6  -2 19333.3 1448.40   1
   1  -6   2 18461.4 1448.18   1
  -1   6  -3 42836.1 2203.84   1
   1  -6   3 39600.1 2235.09   1
   1  -6   4 2684.25 596.455   1
  -1   6  -4 2811.88 560.838   1
  -1   6  -5 35551.6 2394.92   1
   1  -6   5 31176.4 2289.10   1
  -1   6  -6 8225.85 1165.25   1
   1  -6   6 7188.77 1109.03   1
  -1   6  -7 49049.7 2924.28   1
   1  -6   7 49035.4 3005.56   1
  -1   6  -8 237.121 72.0974   1
   1  -6   8 295.178 235.178   1
  -1   6  -9 1008.01 425.154   1
   1  -6   9 880.515 427.514   1
  -1  -6  -9 382.506 160.505   1
  -1  -6 -10 2883.14 486.202   1
  -1   6 -10 5684.40 1152.16   1
   1  -6  10 5404.07 1160.49   1
   1  -7  -3 206.429 102.069   1
  -1   7   3 1296.45 453.894   1
   1  -7  -2 41613.8 2223.85   1
  -1   7   2 41236.7 2012.83   1
   1  -7  -1 3619.47 612.370   1
  -1   7   1 3386.33 561.935   1
  -1   7   0 28652.4 1906.00   1
   1  -7   0 32405.3 1973.16   1
  -1   7  -1 26582.4 1769.89   1
   1  -7   1 32049.1 1986.47   1
  -1   7  -2 32585.4 1968.75   1
   1  -7   2 33528.0 2126.84   1
  -1   7  -3-65.9528 173.602   1
   1  -7   3-55.8220 280.492   1
  -1   7  -4 13006.7 1405.20   1
   1  -7   4 13580.4 1553.46   1
  -1   7  -5 6510.43 990.629   1
   1  -7   5 7060.59 1112.84   1
  -1   7  -6 380.070 249.643   1
   1  -7   6 296.138 162.222   1
  -1   7  -7 8490.71 1293.18   1
   1  -7   7 8028.78 1255.66   1
  -1   7  -8 8806.62 1378.29   1
   1  -7   8 9121.33 1381.83   1
  -1   7  -9 372.726 281.493   1
   1  -7   9 509.195 350.241   1
  -1   7 -10 9900.64 1606.08   1
  -1  -7 -10 4022.97 582.580   1
  -1  -7 -11 5859.30 516.843   1
   1  -8  -5 95.1619 190.932   1
   1  -8  -4 2867.91 355.698   1
  -1   8   3 56476.9 2880.72   1
   1  -8  -2 3256.38 591.277   1
   1  -8  -1 38119.2 2249.60   1
  -1   8   1 37233.0 2234.03   1
   1  -8   0 28350.7 2018.21   1
  -1   8   0 23080.3 1759.28   1
  -1   8  -1 27164.6 2018.28   1
   1  -8   1 27585.5 2035.77   1
  -1   8  -2 3613.32 743.380   1
   1  -8   2 3725.83 770.721   1
  -1   8  -3 3316.86 687.299   1
   1  -8   3 3629.86 794.982   1
  -1   8  -4 1137.43 433.691   1
   1  -8   4 1256.34 603.838   1
   1  -8   5 12317.2 1834.65   1
  -1   8  -6 39666.7 2824.98   1
   1  -8   6 40169.1 3048.16   1
   1  -8   7 25532.1 2485.29   1
  -1   8  -7 24395.9 2370.13   1
   1  -8   8 286.452 566.408   1
  -1   8  -8 1919.52 842.122   1
  -1   8  -9 24374.2 2521.54   1
  -1  -8 -10 82.7441 118.812   1
   1  -9  -5 11945.5 1094.10   1
   1  -9  -4-275.473 255.538   1
   1  -9  -3 43699.1 2383.85   1
   1  -9  -2 476.678 209.536   1
  -1   9   2 288.542 149.032   1
   1  -9  -1 446.012 258.370   1
  -1   9   1 364.377 266.775   1
  -1   9   0 1972.52 566.958   1
   1  -9   0 2244.90 594.706   1
  -1   9  -1 1566.71 502.051   1
   1  -9   1 1556.80 482.732   1
  -1   9  -2 740.455 348.137   1
   1  -9   2 452.832 202.193   1
  -1   9  -3 19435.9 1925.88   1
   1  -9   3 23591.5 2196.34   1
   1  -9   4 1012.42 486.787   1
  -1   9  -4 1465.34 565.267   1
  -1   9  -5 23871.6 2234.59   1
   1  -9   5 26161.1 2518.93   1
   1  -9   6 483.499 306.986   1
  -1   9  -6 1121.28 604.517   1
  -1   9  -7 15415.3 2175.33   1
  -1   9  -8 1854.16 752.127   1
   1 -10  -6 5356.09 984.256   1
   1 -10  -5 51.8730 125.603   1
   1 -10  -4-421.258 251.148   1
   1 -10  -3 1086.38 451.231   1
   1 -10  -2 380.494 230.351   1
   1 -10  -1 2319.20 639.943   1
  -1  10   1 2014.23 693.359   1
   1 -10   0 4067.17 883.409   1
  -1  10   0 2550.89 755.062   1
   1 -10   1 24583.6 2253.86   1
  -1  10  -2 18442.5 1981.91   1
   1 -10   2 21010.1 2170.81   1
  -1  10  -3 15020.2 1918.73   1
   1 -10   3 16078.4 1998.42   1
  -1  10  -4 294.271 285.929   1
   1 -10   4 60.6234 274.602   1
  -1  10  -5-9.92605 167.031   1
   1 -10   5-442.541 332.385   1
  -1  10  -6 6571.63 1405.88   1
   1 -10   6 6222.74 1289.03   1
   1 -11  -5 424.841 267.051   1
   1 -11  -4 3729.38 911.689   1
   1 -11  -3 6723.44 1236.97   1
   1 -11  -2 3918.54 859.659   1
   1 -11  -1 10767.9 1598.63   1
  -1  11   0 1495.46 769.639   1
   1 -11   0 230.278 308.039   1
  -1  11  -1 9902.35 1569.16   1
   1 -11   1 13892.8 1899.49   1
  -1  11  -2 53799.6 3739.30   1
   1 -11   2 64455.4 4212.57   1
  -1  11  -3 742.608 457.710   1
   1 -11   3 422.105 298.827   1
  -1  11  -4 1828.24 684.235   1
   1 -11   4 1566.06 630.028   1
  -1  11  -5-71.3281 229.335   1
   1 -12  -1 1456.64 612.300   1
   1 -12   0 235.341 242.219   1
   1 -12   2 9713.18 1886.97   1
  -1  12  -2 6829.42 1435.86   1
  -1  12  -3 8354.41 1556.32   1
   1 -12   3 13793.9 2268.62   1
  -1  12  -4 76.3754 180.310   1
   1 -13  -2-226.119 279.993   1
   1 -13  -1 7498.13 1425.43   1
   1 -13   0 142.493 229.308   1
   1 -13   1 7060.13 1678.36   1
   1 -13   2-323.275 397.236   1
   1 -14   0 24616.0 3238.96   1
   2   0   7 138.040 215.247   1
  -2   0  -7-80.3940 171.731   1
  -2   0  -8 40434.6 3057.17   1
  -2   0  -9 87.9506 260.617   1
   2   0   9-146.158 362.679   1
   2   0  10 4842.36 1147.40   1
  -2   0 -11-87.2285 251.507   1
   2   0  11-137.714 127.831   1
  -2   0 -12 135253. 5344.95   1
   2   0  13-150.918 319.239   1
  -2   0 -13-87.4930 188.138   1
  -2   0 -14 826.735 620.511   1
   2   0  14 534.744 363.455   1
  -2   0 -15-142.009 231.403   1
   2   0  15-38.2587 274.394   1
  -2   0 -16 9477.29 1881.36   1
   2   0  16 7465.60 1634.70   1
  -2   0 -17 334.871 521.533   1
   2  -1   6 204.682 259.887   1
  -2   1  -6 58.4811 61.3881   1
   2  -1   7 7659.49 1338.11   1
  -2   1  -7 8108.23 1322.82   1
   2  -1   8 38680.1 2821.81   1
  -2   1  -8 39600.7 2854.44   1
   2  -1   9 84679.2 4366.42   1
  -2   1  -9 84458.6 4035.14   1
  -2  -1 -10 5485.39 1181.35   1
   2   1  10 3563.24 1321.85   1
  -2   1 -10 4861.09 985.050   1
   2  -1  10 4633.74 1125.47   1
   2  -1  11 24202.5 2473.50   1
  -2  -1 -11 20643.8 2040.38   1
  -2   1 -11 26358.2 2316.78   1
   2   1  12 5867.12 1367.38   1
   2  -1  12 6182.25 1247.96   1
  -2  -1 -12 6712.66 1228.24   1
  -2   1 -12 7343.40 1334.67   1
  -2   1 -13 11519.7 1706.81   1
   2  -1  13 10985.4 1766.61   1
   2   1  13 7608.33 1448.77   1
  -2  -1 -13 11765.6 1652.17   1
  -2  -1 -14 176.758 316.266   1
  -2   1 -14 1064.32 612.229   1
   2   1  14-160.110 368.471   1
   2  -1  14 354.665 296.845   1
  -2  -1 -15 15151.9 1951.77   1
  -2   1 -15 16563.6 2200.17   1
   2   1  15 10121.9 1857.40   1
   2  -1  15 15480.7 2328.45   1
  -2  -1 -16 5907.47 1290.41   1
  -2   1 -16 6908.24 1530.94   1
   2   1  16 3403.11 1031.07   1
  -2  -1 -17 11397.3 1867.45   1
  -2  -1 -18-195.062 230.272   1
   2  -2   3 2860.80 814.977   1
  -2   2  -3 3199.53 835.330   1
   2  -2   4 1898.79 684.172   1
  -2   2  -4 2182.67 693.592   1
   2  -2   5 16220.3 1749.59   1
  -2   2  -5 15594.5 1704.25   1
   2  -2   6 29157.6 2367.90   1
  -2   2  -6 28543.9 2348.69   1
   2  -2   7 197007. 6291.67   1
  -2   2  -7 193093. 6039.59   1
  -2   2  -8 2986.62 689.972   1
   2  -2   8 3122.72 792.224   1
  -2   2  -9 1129.92 513.484   1
   2  -2   9 636.344 433.406   1
  -2  -2  -9 1331.51 737.642   1
  -2  -2 -10 774.307 563.750   1
  -2   2 -10 900.534 382.325   1
   2  -2  10 329.015 347.060   1
  -2   2 -11 108.120 90.7554   1
   2  -2  11-422.316 446.802   1
  -2   2 -12 21440.9 2265.99   1
  -2  -2 -12 19600.8 2077.88   1
   2  -2  12 20314.9 2379.77   1
  -2   2 -13 44549.8 3518.72   1
   2  -2  13 38436.8 3400.48   1
  -2  -2 -13 41478.3 3026.84   1
  -2   2 -14 6213.26 1283.62   1
   2  -2  14 5683.96 1351.14   1
  -2  -2 -14 7180.70 1284.61   1
  -2  -2 -15 10466.2 1831.59   1
  -2   2 -15 12479.3 1965.28   1
  -2  -2 -16-122.452 258.335   1
  -2  -2 -17 19579.9 2396.27   1
  -2   3  13-2874.97 2816.62   1
  -2   3  -1 44264.7 2550.47   1
   2  -3   2 226782. 6367.65   1
  -2   3  -2 232511. 6027.11   1
   2  -3   3 839.695 358.999   1
  -2   3  -3 875.514 361.660   1
  -2   3  -4 883.062 461.169   1
   2  -3   4 793.550 394.880   1
  -2   3  -5 3460.99 799.056   1
   2  -3   5 3315.28 819.411   1
   2  -3   6 22949.1 2176.88   1
  -2   3  -6 23744.9 2051.04   1
  -2   3  -7 76.5985 69.3846   1
   2  -3   7 76.5339 100.094   1
   2  -3   8 13979.5 1768.29   1
  -2   3  -8 14295.8 1642.43   1
   2  -3   9 45173.1 3460.01   1
  -2   3  -9 45364.5 3030.20   1
   2  -3  10 29476.6 2828.78   1
  -2   3 -10 32668.2 2868.07   1
  -2   3 -11 4848.15 1003.88   1
  -2  -3 -11 7100.68 1355.36   1
   2  -3  11 4934.86 1158.80   1
  -2   3 -12 954.077 595.245   1
  -2  -3 -12 1445.70 607.609   1
   2  -3  12 208.340 332.277   1
  -2   3 -13 3643.45 924.708   1
  -2  -3 -13 2892.97 784.348   1
   2  -3  13 3306.28 1015.79   1
  -2   3 -14 12509.8 1936.59   1
  -2  -3 -15 9321.66 1527.80   1
  -2  -3 -16-200.304 138.954   1
  -2   4  12 42363.2 4031.70   1
  -2   4   1 23077.8 1816.45   1
   2  -4   0 4910.48 971.284   1
  -2   4   0 5706.71 914.353   1
   2  -4   1 5209.16 998.899   1
  -2   4  -1 5762.88 954.255   1
   2  -4   2 24406.1 1991.62   1
  -2   4  -2 25755.6 2002.76   1
   2  -4   3 9240.56 1236.07   1
  -2   4  -3 9814.60 1242.64   1
  -2   4  -4 108.455 124.455   1
   2  -4   4-18.1407 166.053   1
  -2   4  -5 74.2926 118.911   1
   2  -4   5 290.907 296.022   1
   2  -4   6 45980.2 3274.36   1
  -2   4  -6 43553.6 2911.77   1
  -2   4  -7 2912.84 662.262   1
   2  -4   7 2628.16 750.574   1
  -2   4  -8 1334.41 665.478   1
   2  -4   8 1888.00 872.351   1
   2  -4   9 11801.0 1710.67   1
  -2   4  -9 14312.1 1780.64   1
  -2  -4 -10 1997.76 856.596   1
   2  -4  10 2842.41 1170.48   1
  -2   4 -11 17921.5 2220.24   1
   2  -4  11 15560.2 2130.44   1
  -2   4 -12 4400.69 1078.55   1
   2  -4  12 4307.65 1159.64   1
  -2   4 -13 32415.2 3207.71   1
  -2  -4 -13 26886.9 2369.78   1
  -2  -4 -14 35780.9 2689.29   1
  -2  -4 -15 2940.36 828.045   1
  -2   5  11 80.9576 228.588   1
  -2   5  10 37345.5 2970.64   1
  -2   5   4 325.008 124.703   1
  -2   5   3 164558. 4150.16   1
  -2   5   2 26242.0 1743.51   1
  -2   5   1 140.352 135.349   1
   2  -5  -1 9.44256 120.256   1
  -2   5   0 764.815 320.612   1
   2  -5   0 626.980 332.912   1
   2  -5   1 19667.8 1843.31   1
  -2   5  -1 19829.3 1725.56   1
   2  -5   2 28267.2 2233.29   1
  -2   5  -2 32934.6 2194.92   1
   2  -5   3 211729. 5950.45   1
  -2   5  -3 194520. 5235.13   1
   2  -5   4 9805.85 1353.03   1
  -2   5  -4 12558.5 1413.59   1
   2  -5   5 90141.1 4295.57   1
  -2   5  -5 91504.5 3980.90   1
  -2   5  -6 2141.54 632.007   1
   2  -5   6 2242.97 749.066   1
   2  -5   7 44404.3 3166.89   1
  -2   5  -7 58342.1 3536.39   1
  -2   5  -8 7954.18 1298.69   1
   2  -5   8 6398.23 1241.99   1
  -2   5  -9 26882.7 2529.68   1
   2  -5   9 24824.2 2508.78   1
  -2   5 -10 25832.8 2437.92   1
   2  -5  10 24191.6 2577.23   1
  -2   5 -11 11675.0 1728.82   1
   2  -5  11 12167.8 1851.68   1
  -2  -5 -11 13968.6 2395.66   1
  -2  -5 -12-232.493 292.638   1
  -2   5 -12-334.009 298.940   1
  -2  -5 -13 431.165 218.693   1
  -2  -5 -14 565.804 250.947   1
  -2   6   7 1839.67 303.323   1
  -2   6   6 44.7943 152.321   1
  -2   6   5 6788.43 730.683   1
  -2   6   4 389.792 174.568   1
  -2   6   3 5358.98 677.169   1
   2  -6  -2 19482.6 1929.17   1
  -2   6   2 16607.2 1296.20   1
  -2   6   1 80492.9 2986.46   1
   2  -6   0 19435.7 1849.18   1
  -2   6   0 15674.2 1349.66   1
   2  -6   1 27817.5 2192.38   1
  -2   6  -1 30854.5 2030.16   1
  -2   6  -2 264.095 177.832   1
   2  -6   2 165.842 243.575   1
  -2   6  -3 4233.91 760.716   1
   2  -6   3 3958.83 854.872   1
  -2   6  -4 2881.63 741.085   1
   2  -6   4 2194.83 708.995   1
   2  -6   5 4218.69 936.889   1
  -2   6  -5 5257.72 1013.55   1
  -2   6  -6 1313.20 462.736   1
   2  -6   6 1275.06 514.575   1
   2  -6   7 4196.03 930.107   1
  -2   6  -7 5509.35 1221.44   1
   2  -6   8 14171.3 1926.00   1
  -2   6  -9 41546.5 3173.71   1
   2  -6   9 45524.9 3727.33   1
   2  -6  10 2733.65 936.353   1
  -2   6 -10 3308.31 862.390   1
  -2   6 -11 20869.6 2446.56   1
  -2  -6 -12 160.841 342.587   1
  -2   7   7 7388.18 530.291   1
  -2   7   6-97.0636 57.3894   1
  -2   7   5 14874.7 936.769   1
  -2   7   4 11204.4 883.859   1
  -2   7   3 206.387 192.455   1
   2  -7  -2 31097.1 2403.16   1
  -2   7   2 25957.2 1607.87   1
   2  -7  -1 12229.4 1408.82   1
  -2   7   1 9642.45 1014.28   1
   2  -7   0 5353.97 922.321   1
  -2   7   0 5359.98 801.892   1
   2  -7   1 12037.5 1497.45   1
  -2   7  -1 12604.8 1380.50   1
   2  -7   2 16436.2 1831.47   1
  -2   7  -2 26588.8 2104.37   1
  -2   7  -3 1964.27 552.743   1
   2  -7   3 1988.02 650.579   1
  -2   7  -4 15895.9 1728.15   1
   2  -7   4 17836.4 2032.64   1
   2  -7   5 4331.66 947.768   1
  -2   7  -5 6177.87 1157.60   1
   2  -7   6 848.393 457.463   1
  -2   7  -6 1580.97 629.189   1
  -2   7  -7 27528.3 2504.63   1
   2  -7   7 26889.1 2726.73   1
  -2   7  -8 40262.1 3198.65   1
   2  -7   8 38000.7 3504.77   1
   2  -7   9 673.311 412.483   1
  -2   7  -9 1165.66 582.649   1
  -2   7 -10 7071.98 1422.46   1
  -2   8   7 59046.5 2428.22   1
  -2   8   6 18807.8 1175.01   1
  -2   8   5 23007.0 1312.81   1
  -2   8   4 69.9720 112.590   1
  -2   8   3 5411.75 726.300   1
   2  -8  -3 4316.89 1029.19   1
  -2   8   2 414.114 220.122   1
   2  -8  -2-349.412 388.147   1
  -2   8   1 200.600 177.024   1
   2  -8  -1 25.0782 168.600   1
  -2   8   0 29338.8 1950.70   1
   2  -8   0 34440.7 2507.88   1
  -2   8  -1 1200.35 467.856   1
   2  -8   1 947.513 366.123   1
  -2   8  -2 376.296 303.664   1
   2  -8   2 55.2646 260.353   1
  -2   8  -3 14409.2 1624.20   1
   2  -8   3 13557.9 1735.73   1
   2  -8   4 140.592 170.695   1
  -2   8  -4-54.4029 173.017   1
  -2   8  -5 13810.2 1750.97   1
   2  -8   5 11898.8 1830.77   1
  -2   8  -6 9979.47 1504.18   1
   2  -8   6 9299.65 1650.81   1
  -2   8  -7 23416.6 2333.76   1
   2  -8   7 24371.1 2631.28   1
  -2   8  -8 13856.6 1878.32   1
  -2   9   5-29.4961 91.6036   1
   2  -9  -4 229.027 302.024   1
  -2   9   4 7.87979 70.6506   1
  -2   9   3 38452.6 2163.44   1
   2  -9  -3 37607.3 2824.71   1
  -2   9   2 364.656 273.446   1
   2  -9  -2-41.7128 281.157   1
  -2   9   1 40527.8 2307.13   1
   2  -9  -1 40514.5 2848.61   1
  -2   9   0 653.876 355.955   1
   2  -9   0 177.270 214.277   1
  -2   9  -1 35430.5 2334.74   1
   2  -9   1 35099.1 2726.20   1
  -2   9  -2 1385.15 479.173   1
   2  -9   2 935.090 413.781   1
  -2   9  -3 40308.6 2754.20   1
   2  -9   3 46791.6 3494.66   1
   2  -9   4 71.8689 218.170   1
  -2   9  -4 394.877 388.132   1
   2  -9   5 6208.81 1397.85   1
  -2   9  -5 5804.55 1114.04   1
   2  -9   6 1359.91 657.067   1
  -2   9  -6 1560.72 567.953   1
  -2   9  -7 603.420 274.166   1
   2 -10  -4-273.602 400.320   1
  -2  10   4 1328.99 533.507   1
  -2  10   3 12686.6 1341.79   1
   2 -10  -3 9246.14 1361.67   1
  -2  10   2 11830.4 1389.98   1
   2 -10  -2 9395.96 1343.36   1
  -2  10   1 1094.47 476.314   1
   2 -10  -1 167.327 378.257   1
  -2  10   0 9144.71 1249.42   1
   2 -10   0 7165.53 1287.80   1
  -2  10  -1 291.540 332.964   1
   2 -10   1-390.683 465.716   1
   2 -10   2 1611.64 631.697   1
  -2  10  -2 1144.98 439.106   1
  -2  10  -3 8760.56 1285.71   1
   2 -10   3 11205.1 1751.52   1
  -2  10  -4 294.846 92.7207   1
   2 -10   4 92.0570 172.777   1
  -2  10  -5 18688.7 2139.62   1
   2 -10   5 20799.3 2607.77   1
  -2  10  -6 581.359 369.745   1
   2 -11  -4 17705.9 2244.86   1
   2 -11  -3 413.764 244.017   1
  -2  11   2 7971.15 1235.71   1
   2 -11  -2 6555.91 1172.34   1
  -2  11   1-1236.53 640.189   1
   2 -11  -1 2331.02 871.475   1
  -2  11   0 763.459 145.857   1
   2 -11   0-1265.82 684.837   1
  -2  11  -1 1637.89 521.127   1
   2 -11   1 1723.71 659.863   1
  -2  11  -2-34.7214 272.697   1
   2 -11   2 141.165 299.660   1
   2 -11   3 8412.33 1685.27   1
  -2  11  -3 6037.62 1070.04   1
  -2  11  -4 28106.5 2574.19   1
   2 -11   4 33841.0 3534.45   1
  -2  11  -5 5504.08 1146.47   1
   2 -12  -3 583.398 185.790   1
   2 -12  -2 346.669 272.362   1
  -2  12   1 8979.86 1507.52   1
   2 -12  -1 7747.65 1355.27   1
  -2  12   0 20321.9 2191.30   1
  -2  12  -1 9037.30 1442.16   1
   2 -12   1 9197.50 1676.44   1
  -2  12  -2 556.163 375.351   1
   2 -12   2 310.354 335.587   1
  -2  12  -3 3432.95 931.474   1
   2 -13  -1 3129.87 896.226   1
   2 -13   0-185.780 521.318   1
  -2  13  -1 4430.22 1109.67   1
   2 -13   1 4394.35 1245.25   1
  -2  13  -2 5216.50 1179.73   1
  -3   0 -10-127.382 352.070   1
  -3   0 -11 23.1659 407.079   1
  -3   0 -12 5259.24 1534.66   1
  -3   0 -13 29.8609 240.070   1
  -3   0 -15 67.5797 457.974   1
  -3   0 -16 158.130 305.947   1
  -3   1  -9 1325.17 620.721   1
  -3  -1 -11 4919.13 1408.14   1
  -3   1 -11 4550.91 1225.93   1
   3  -1  11 3411.91 1158.98   1
  -3  -1 -12 9354.57 1934.25   1
   3  -1  12 6667.27 1688.14   1
  -3   1 -12 8312.17 1702.30   1
  -3  -1 -13 3546.76 1199.48   1
  -3   1 -13 2626.76 1046.43   1
   3  -1  13 1197.54 645.971   1
   3  -1  14 8545.23 2042.26   1
  -3  -1 -14 13906.1 2358.78   1
  -3   1 -14 13661.2 2221.56   1
  -3  -1 -15 4566.46 1392.31   1
  -3   1 -15 6621.66 1707.66   1
  -3  -1 -16 2384.04 1152.92   1
  -3   2  -7 8708.70 1594.04   1
  -3   2  -8 27986.8 2959.03   1
  -3   2  -9 4114.45 1056.19   1
   3  -2   9 2628.38 1049.29   1
  -3   2 -10 1712.12 659.018   1
   3  -2  10 421.967 229.142   1
   3  -2  11 20737.0 2593.87   1
  -3   2 -11 24993.5 2666.19   1
   3  -2  12 22877.4 2832.10   1
  -3   2 -12 27214.6 2935.99   1
  -3  -2 -13 1806.35 948.175   1
   3  -2  13 1877.81 1395.20   1
  -3   2 -13 1649.45 631.080   1
  -3  -2 -14 965.473 600.009   1
  -3  -2 -15 5516.86 1730.55   1
  -3  -2 -16 1541.39 848.383   1
  -3  -2 -17-965.888 517.061   1
   3  -3   5 8958.93 1762.85   1
   3  -3   6 18898.3 2554.72   1
  -3   3  -6 19615.6 2242.85   1
  -3   3  -7 474.050 429.626   1
   3  -3   7 132.855 155.433   1
   3  -3   8 29546.7 2997.79   1
  -3   3  -8 33311.2 3052.24   1
  -3   3  -9 1939.58 731.412   1
   3  -3   9 1767.66 711.993   1
   3  -3  10 30890.3 3297.98   1
  -3   3 -10 34282.4 2988.54   1
  -3   3 -11 84.3689 155.049   1
   3  -3  11-43.9285 302.172   1
   3  -3  12 10727.6 1920.35   1
  -3   3 -12 13359.8 1989.28   1
  -3   3 -13 676.837 635.926   1
  -3  -3 -14 777.281 1001.67   1
  -3  -3 -15 5792.31 1736.10   1
  -3   4  -3 844.585 407.175   1
   3  -4   4 1357.02 676.946   1
  -3   4  -4 2194.58 745.938   1
  -3   4  -5 4667.49 1096.17   1
   3  -4   5 4009.49 1142.97   1
   3  -4   6 4668.22 1174.15   1
  -3   4  -6 5556.84 1269.70   1
  -3   4  -7 935.955 518.637   1
   3  -4   7 464.408 399.974   1
   3  -4   8 28896.8 2963.28   1
  -3   4  -8 31622.8 2804.51   1
   3  -4   9 27902.8 3066.64   1
  -3   4  -9 26402.3 2564.08   1
  -3   4 -10 451.235 653.189   1
   3  -4  10 3567.07 1132.70   1
  -3   4 -11 4512.41 1120.21   1
   3  -4  11 6288.53 1560.99   1
  -3   4 -12 39251.8 3639.60   1
  -3  -4 -15 507.732 342.351   1
  -3   5  -1 77815.2 4166.92   1
   3  -5   2 1193.23 576.126   1
  -3   5  -2 1209.31 544.893   1
  -3   5  -3 1518.40 568.814   1
   3  -5   3 1151.30 578.216   1
   3  -5   4 15912.7 2215.70   1
  -3   5  -4 18863.3 2304.41   1
  -3   5  -5 5760.58 1205.25   1
   3  -5   5 4872.62 1164.98   1
  -3   5  -6 4151.18 1036.65   1
   3  -5   6 2598.59 859.457   1
  -3   5  -7-116.145 270.452   1
   3  -5   7 214.043 93.5066   1
   3  -5   8 14891.6 2260.99   1
  -3   5  -8 14771.1 1969.63   1
   3  -5   9 14240.6 2177.69   1
  -3   5  -9 17404.1 2130.79   1
   3  -5  10 1313.65 984.866   1
  -3   5 -10 412.813 544.495   1
  -3   5 -11 29063.7 3036.88   1
  -3   6   2 298.067 287.567   1
  -3   6   1 19119.8 2057.96   1
  -3   6   0 956.956 523.848   1
  -3   6  -1 3271.21 878.241   1
   3  -6   1 2723.00 931.979   1
   3  -6   2 14100.7 2080.69   1
  -3   6  -2 18962.7 2171.64   1
   3  -6   3 12263.1 1913.60   1
  -3   6  -3 14263.1 1987.37   1
  -3   6  -4 1658.66 734.495   1
   3  -6   4-190.009 405.924   1
   3  -6   5 49938.3 3794.18   1
  -3   6  -5 52569.1 3461.26   1
   3  -6   6 44131.1 3765.58   1
  -3   6  -6 44265.2 3302.21   1
   3  -6   7 24318.6 2884.59   1
  -3   6  -7 30046.6 2824.48   1
  -3   6  -8 4860.80 1074.49   1
   3  -6   8 4285.21 1228.82   1
   3  -6   9 10496.0 1913.13   1
  -3   6  -9 11934.8 1809.15   1
  -3   6 -10 660.897 523.338   1
  -3   7   5 7070.28 996.398   1
  -3   7   4 14925.4 1526.06   1
  -3   7   3 2921.71 670.144   1
  -3   7   2 27052.5 2216.00   1
  -3   7   1 49116.5 3169.94   1
   3  -7   0 23767.6 2766.50   1
  -3   7   0 25897.3 2334.70   1
   3  -7   1 4856.55 1134.77   1
  -3   7  -1 7255.25 1238.16   1
   3  -7   2 12582.3 1808.00   1
  -3   7  -2 13800.2 1715.63   1
  -3   7  -3 118.693 93.4237   1
   3  -7   3-377.216 488.455   1
   3  -7   4 31411.7 2978.50   1
  -3   7  -4 32716.9 2767.37   1
  -3   7  -5 1037.65 658.243   1
   3  -7   5 105.865 339.449   1
   3  -7   6 15595.0 2281.56   1
  -3   7  -6 17768.7 2106.76   1
   3  -7   7 22279.6 2857.06   1
  -3   7  -7 25139.4 2663.73   1
  -3   7  -8 1442.58 570.621   1
  -3   8   6 23107.4 1496.09   1
  -3   8   5 6695.23 850.779   1
  -3   8   4 528.099 252.087   1
  -3   8   3 492.477 336.463   1
  -3   8   2 6567.37 1057.40   1
  -3   8   1 41188.5 2515.85   1
   3  -8   0 6789.67 1320.70   1
  -3   8   0 9200.89 1231.41   1
   3  -8   1 27765.7 2795.23   1
  -3   8  -1 28341.7 2385.02   1
   3  -8   2 6381.17 1208.65   1
  -3   8  -2 9040.26 1363.40   1
   3  -8   3 25943.4 2675.95   1
  -3   8  -3 27512.3 2496.91   1
   3  -8   4 14472.4 2057.40   1
  -3   8  -4 17198.2 2049.68   1
   3  -8   5-46.9607 283.682   1
  -3   8  -5 576.563 413.676   1
   3  -8   6-86.7159 586.061   1
  -3   8  -6 1525.29 533.135   1
  -3   8  -7-18.8779 187.285   1
  -3   9   5 11790.6 1060.95   1
  -3   9   4 1468.98 360.075   1
  -3   9   2 2861.52 585.575   1
   3  -9  -1 662.776 563.120   1
  -3   9   1 418.733 257.414   1
   3  -9   0 6259.72 1316.43   1
  -3   9   0 6532.98 1089.48   1
   3  -9   1 1017.27 547.738   1
  -3   9  -1 1821.16 600.645   1
   3  -9   2-487.599 520.385   1
  -3   9  -2 44.2288 143.989   1
   3  -9   3 21604.4 2663.57   1
  -3   9  -3 25968.1 2624.58   1
  -3   9  -4 74.7204 169.521   1
   3  -9   4 262.327 229.195   1
  -3   9  -5 25945.1 2677.72   1
   3  -9   5 21949.6 2724.81   1
  -3   9  -6 13271.3 2028.78   1
  -3  10   3 22276.2 1790.32   1
  -3  10   2 1414.88 497.170   1
  -3  10   1 23408.4 1991.64   1
   3 -10  -1 16189.1 2192.16   1
  -3  10   0 10898.1 1493.12   1
   3 -10   0 6677.27 1564.31   1
  -3  10  -1 9884.59 1488.58   1
  -3  10  -2 4571.54 1077.35   1
   3 -10   2 3269.02 1057.57   1
  -3  10  -3 453.072 382.007   1
   3 -10   3-33.4033 353.417   1
  -3  10  -4 901.971 573.929   1
   3 -10   4 181.372 210.697   1
  -3  10  -5 574.210 566.185   1
  -3  11   2 29273.9 2181.59   1
  -3  11   1 55.2677 204.875   1
   3 -11  -1-200.471 417.819   1
  -3  11   0 526.379 397.959   1
   3 -11   0-617.582 429.819   1
  -3  11  -1 3534.74 905.812   1
   3 -11   1 2357.19 805.702   1
  -3  11  -2 3008.02 894.887   1
   3 -11   2 2188.40 970.238   1
  -3  11  -3 462.038 459.087   1
   3 -11   3 501.020 465.412   1
  -3  11  -4 5647.11 1235.94   1
   3 -12  -2 1029.31 399.718   1
   3 -12  -1 2162.48 848.895   1
   3 -12   0-28.3533 315.102   1
  -3  12   0 110.663 180.647   1
  -3  12  -1 7430.96 1276.24   1
   3 -12   1 6898.10 1525.20   1
  -3  12  -2 84.6384 208.167   1
   3 -13  -1 1701.82 788.150   1
   3 -13   0-291.697 419.194   1
  -4   2 -12 486.536 539.531   1
  -4   3 -11 15570.9 2544.43   1
  -4   4  -9 20502.9 2701.06   1
  -4   4 -10 844.037 532.753   1
  -4   5  -7 2415.15 886.901   1
   4  -5   7 2455.41 1067.43   1
  -4   5  -8 820.710 488.905   1
   4  -5   8 476.014 515.510   1
  -4   5  -9 7917.65 1661.55   1
  -4   6  -5 551.680 458.422   1
   4  -6   5 395.527 390.125   1
  -4   6  -6 3930.33 1078.01   1
   4  -6   6 2630.12 1077.00   1
   4  -6   7 11546.1 2372.05   1
  -4   6  -7 16461.9 2340.50   1
  -4   6  -8 425.475 410.816   1
  -4   7  -2 10477.3 1713.19   1
  -4   7  -3 10448.4 1702.49   1
   4  -7   4 29968.4 3449.09   1
  -4   7  -4 36886.8 3408.47   1
  -4   7  -5 3281.53 1036.83   1
   4  -7   5 1333.12 794.279   1
  -4   7  -6-721.379 534.804   1
   4  -7   6-36.4727 147.140   1
  -4   7  -7 3714.19 975.990   1
  -4   8   1 134.755 312.327   1
  -4   8   0 3814.23 1054.04   1
  -4   8  -1 8890.37 1595.79   1
  -4   8  -2 17545.5 2328.37   1
   4  -8   3 24673.3 3098.05   1
  -4   8  -3 30196.4 2989.82   1
  -4   8  -4 484.351 195.678   1
   4  -8   4 55.1519 159.366   1
   4  -8   5 18141.2 2775.60   1
  -4   8  -5 22615.7 2538.18   1
  -4   8  -6 13880.0 2183.51   1
  -4   9   4 4846.94 953.844   1
  -4   9   3 22256.7 2180.42   1
  -4   9   2 1538.56 590.722   1
  -4   9   1 15370.8 1959.88   1
  -4   9   0 610.806 439.004   1
  -4   9  -1 9206.88 1558.09   1
  -4   9  -2 1041.67 438.350   1
   4  -9   2 2456.07 1376.42   1
  -4   9  -3 2194.14 803.061   1
   4  -9   3 595.604 488.099   1
  -4   9  -4 319.867 323.247   1
  -4   9  -5-229.755 406.608   1
  -4  10   3 4388.94 866.355   1
  -4  10   2 270.075 274.427   1
  -4  10   1 774.701 697.291   1
  -4  10   0 23297.0 2444.65   1
  -4  10  -1 2797.23 818.214   1
   4 -10   2 3180.95 938.408   1
  -4  10  -2 1042.43 181.014   1
  -4  10  -3 1539.93 706.510   1
  -4  11   1 1206.67 480.404   1
  -4  11   0-510.862 637.269   1
   4 -11   1 1792.72 896.100   1
  -4  11  -1 2601.73 895.253   1
  -4  11  -2 10767.9 1891.75   1
  -4  12   0 0.40185 379.300   1
  -4  12  -1 7860.94 1424.97   1
  -5  11   0 642.704 483.557   1
   0   0   0    0.00    0.00   0
TITL cr2_p04_s1 in P2(1)/c
REM P2(1)/c (#14 in standard setting)
CELL 0.29840   4.436689   7.207412   9.280840  90.0000  90.9000  90.0000
ZERR    1.00   0.001940   0.000735   0.000542   0.0000   0.0172   0.0000
LATT  1
SYMM -x, y+1/2,-z+1/2
SFAC H B O Si Ca
UNIT 1.00 1.00 5.00 1.00 1.00
TREF
HKLF 4
END
;
_shelx_hkl_checksum              10673
loop_
_space_group_symop_operation_xyz
'x, y, z'
'-x, y+1/2, -z+1/2'
'-x, -y, -z'
'x, -y-1/2, z-1/2'
loop_
_atom_site_label
_atom_site_type_symbol
_atom_site_fract_x
_atom_site_fract_y
_atom_site_fract_z
_atom_site_U_iso_or_equiv
_atom_site_adp_type
_atom_site_occupancy
_atom_site_site_symmetry_order
_atom_site_calc_flag
_atom_site_refinement_flags_posn
_atom_site_refinement_flags_adp
Ca1 Ca 0.0078(4) 0.60982(10) 0.17074(9) 0.0077(7) Uani 1 1 d . .
Si1 Si 0.4897(6) 0.28081(16) 0.08052(13) 0.0063(8) Uani 1 1 d . .
B1 B 0.588(2) 0.0838(5) -0.1561(6) 0.0064(7) Uiso 1 1 d . .
O1 O 0.2508(15) 0.4241(4) 0.0294(4) 0.0092(9) Uani 1 1 d . .
O2 O 0.7108(16) 0.1910(5) -0.0352(4) 0.0092(9) Uani 1 1 d . .
O3 O 0.7086(15) 0.3407(5) 0.2138(4) 0.0092(9) Uani 1 1 d . .
O4 O 0.3019(18) 0.1033(4) 0.1392(4) 0.0092(9) Uani 1 1 d . .
O5 O 0.2602(16) 0.0919(4) -0.1597(4) 0.0092(9) Uani 1 1 d D .
H H 0.17(2) 0.052(9) -0.080(6) 0.010 Uiso 1 1 d D U
loop_
_atom_site_aniso_label
_atom_site_aniso_U_11
_atom_site_aniso_U_22
_atom_site_aniso_U_33
_atom_site_aniso_U_23
_atom_site_aniso_U_13
_atom_site_aniso_U_12
Ca1 0.0103(18) 0.0109(5) 0.0020(5) 0.0000(2) 0.0018(7) 0.0001(3)
Si1 0.007(2) 0.0109(6) 0.0013(6) 0.0000(3) 0.0011(10) 0.0004(4)
O1 0.014(3) 0.0117(7) 0.0022(7) 0.0007(4) 0.0020(11) 0.0001(6)
O2 0.014(3) 0.0117(7) 0.0022(7) 0.0007(4) 0.0020(11) 0.0001(6)
O3 0.014(3) 0.0117(7) 0.0022(7) 0.0007(4) 0.0020(11) 0.0001(6)
O4 0.014(3) 0.0117(7) 0.0022(7) 0.0007(4) 0.0020(11) 0.0001(6)
O5 0.014(3) 0.0117(7) 0.0022(7) 0.0007(4) 0.0020(11) 0.0001(6)
loop_
_atom_type_symbol
_atom_type_description
_atom_type_scat_dispersion_real
_atom_type_scat_dispersion_imag
_atom_type_scat_source
O O 0.0056 0.0036 'International Tables Vol C Tables 4.2.6.8 and 6.1.1.4'
Si Si 0.0522 0.0431 'International Tables Vol C Tables 4.2.6.8 and 6.1.1.4'
B B 0.0004 0.0004 'International Tables Vol C Tables 4.2.6.8 and 6.1.1.4'
Ca Ca 0.1611 0.1926 'International Tables Vol C Tables 4.2.6.8 and 6.1.1.4'
H H 0.0000 0.0000 'International Tables Vol C Tables 4.2.6.8 and 6.1.1.4'
loop_
_geom_angle_atom_site_label_1
_geom_angle_atom_site_label_2
_geom_angle_atom_site_label_3
_geom_angle
_geom_angle_site_symmetry_1
_geom_angle_site_symmetry_3
O1 Ca1 O1 71.1(3) . 3_565
O1 Ca1 O4 140.74(14) . 2
O1 Ca1 O4 110.2(2) 3_565 2
O1 Ca1 O2 77.0(2) . 3_665
O1 Ca1 O2 83.49(19) 3_565 3_665
O4 Ca1 O2 141.91(14) 2 3_665
O1 Ca1 O3 116.6(2) . 2_655
O1 Ca1 O3 137.97(14) 3_565 2_655
O4 Ca1 O3 89.23(17) 2 2_655
O2 Ca1 O3 60.77(14) 3_665 2_655
O1 Ca1 O3 83.28(18) . 1_455
O1 Ca1 O3 76.40(15) 3_565 1_455
O4 Ca1 O3 60.30(15) 2 1_455
O2 Ca1 O3 155.48(12) 3_665 1_455
O3 Ca1 O3 143.01(8) 2_655 1_455
O1 Ca1 O5 78.02(14) . 4_566
O1 Ca1 O5 136.24(12) 3_565 4_566
O4 Ca1 O5 76.04(19) 2 4_566
O2 Ca1 O5 119.1(2) 3_665 4_566
O3 Ca1 O5 83.60(14) 2_655 4_566
O3 Ca1 O5 69.75(18) 1_455 4_566
O1 Ca1 O5 139.28(13) . 3_565
O1 Ca1 O5 79.33(14) 3_565 3_565
O4 Ca1 O5 75.54(16) 2 3_565
O2 Ca1 O5 72.3(2) 3_665 3_565
O3 Ca1 O5 69.69(18) 2_655 3_565
O3 Ca1 O5 116.6(2) 1_455 3_565
O5 Ca1 O5 140.86(9) 4_566 3_565
O1 Ca1 B1 111.99(17) . 4_466
O1 Ca1 B1 94.9(2) 3_565 4_466
O4 Ca1 B1 30.09(14) 2 4_466
O2 Ca1 B1 169.9(2) 3_665 4_466
O3 Ca1 B1 116.30(16) 2_655 4_466
O3 Ca1 B1 30.27(14) 1_455 4_466
O5 Ca1 B1 68.7(2) 4_566 4_466
O5 Ca1 B1 97.6(2) 3_565 4_466
O1 Ca1 B1 97.4(2) . 3_665
O1 Ca1 B1 111.68(16) 3_565 3_665
O4 Ca1 B1 116.48(17) 2 3_665
O2 Ca1 B1 30.64(14) 3_665 3_665
O3 Ca1 B1 30.13(16) 2_655 3_665
O3 Ca1 B1 171.72(14) 1_455 3_665
O5 Ca1 B1 102.26(19) 4_566 3_665
O5 Ca1 B1 68.0(2) 3_565 3_665
B1 Ca1 B1 145.63(12) 4_466 3_665
O1 Ca1 Si1 93.06(12) . 3_565
O1 Ca1 Si1 23.52(12) 3_565 3_565
O4 Ca1 Si1 98.60(17) 2 3_565
O2 Ca1 Si1 79.95(13) 3_665 3_565
O3 Ca1 Si1 120.41(10) 2_655 3_565
O3 Ca1 Si1 86.82(11) 1_455 3_565
O5 Ca1 Si1 155.62(13) 4_566 3_565
O5 Ca1 Si1 55.99(9) 3_565 3_565
B1 Ca1 Si1 94.58(15) 4_466 3_565
B1 Ca1 Si1 101.36(11) 3_665 3_565
O1 Ca1 Si1 22.64(10) . .
O1 Ca1 Si1 92.15(15) 3_565 .
O4 Ca1 Si1 125.97(10) 2 .
O2 Ca1 Si1 87.15(15) 3_665 .
O3 Ca1 Si1 106.33(16) 2_655 .
O3 Ca1 Si1 79.82(14) 1_455 .
O5 Ca1 Si1 55.71(13) 4_566 .
O5 Ca1 Si1 158.46(15) 3_565 .
B1 Ca1 Si1 102.88(13) 4_466 .
B1 Ca1 Si1 97.66(17) 3_665 .
Si1 Ca1 Si1 114.98(5) 3_565 .
O1 Si1 O2 119.2(2) . .
O1 Si1 O3 117.1(2) . .
O2 Si1 O3 104.7(3) . .
O1 Si1 O4 106.0(3) . .
O2 Si1 O4 103.2(3) . .
O3 Si1 O4 105.0(2) . .
O1 Si1 Ca1 34.18(12) . 3_565
O2 Si1 Ca1 91.90(16) . 3_565
O3 Si1 Ca1 150.17(14) . 3_565
O4 Si1 Ca1 94.87(19) . 3_565
O1 Si1 Ca1 32.67(16) . .
O2 Si1 Ca1 149.76(13) . .
O3 Si1 Ca1 89.88(19) . .
O4 Si1 Ca1 98.2(3) . .
Ca1 Si1 Ca1 65.02(5) 3_565 .
O1 Si1 Ca1 95.1(2) . 3_665
O2 Si1 Ca1 37.48(16) . 3_665
O3 Si1 Ca1 94.1(2) . 3_665
O4 Si1 Ca1 140.3(2) . 3_665
Ca1 Si1 Ca1 84.05(4) 3_565 3_665
Ca1 Si1 Ca1 116.60(5) . 3_665
O1 Si1 Ca1 93.85(19) . 1_655
O2 Si1 Ca1 91.6(2) . 1_655
O3 Si1 Ca1 39.68(16) . 1_655
O4 Si1 Ca1 144.58(14) . 1_655
Ca1 Si1 Ca1 116.89(5) 3_565 1_655
Ca1 Si1 Ca1 82.81(4) . 1_655
Ca1 Si1 Ca1 63.37(5) 3_665 1_655
O1 Si1 Ca1 152.16(14) . 2_645
O2 Si1 Ca1 84.66(16) . 2_645
O3 Si1 Ca1 37.08(13) . 2_645
O4 Si1 Ca1 79.7(2) . 2_645
Ca1 Si1 Ca1 172.72(4) 3_565 2_645
Ca1 Si1 Ca1 120.34(5) . 2_645
Ca1 Si1 Ca1 96.96(9) 3_665 2_645
Ca1 Si1 Ca1 69.71(4) 1_655 2_645
O1 Si1 Ca1 90.1(2) . 2_545
O2 Si1 Ca1 135.20(16) . 2_545
O3 Si1 Ca1 88.1(2) . 2_545
O4 Si1 Ca1 32.55(19) . 2_545
Ca1 Si1 Ca1 97.54(9) 3_565 2_545
Ca1 Si1 Ca1 70.35(5) . 2_545
Ca1 Si1 Ca1 172.68(5) 3_665 2_545
Ca1 Si1 Ca1 121.49(5) 1_655 2_545
Ca1 Si1 Ca1 80.58(4) 2_645 2_545
O3 B1 O4 108.3(6) 4_565 3_655
O3 B1 O5 110.6(5) 4_565 .
O4 B1 O5 112.2(5) 3_655 .
O3 B1 O2 107.8(5) 4_565 .
O4 B1 O2 106.8(4) 3_655 .
O5 B1 O2 111.0(6) . .
O3 B1 Ca1 56.9(3) 4_565 4_665
O4 B1 Ca1 51.6(4) 3_655 4_665
O5 B1 Ca1 132.0(3) . 4_665
O2 B1 Ca1 116.9(6) . 4_665
O3 B1 Ca1 54.7(3) 4_565 3_665
O4 B1 Ca1 121.1(6) 3_655 3_665
O5 B1 Ca1 126.7(3) . 3_665
O2 B1 Ca1 53.1(3) . 3_665
Ca1 B1 Ca1 86.2(3) 4_665 3_665
Si1 O1 Ca1 124.7(2) . .
Si1 O1 Ca1 122.3(2) . 3_565
Ca1 O1 Ca1 108.9(3) . 3_565
B1 O2 Si1 120.2(6) . .
B1 O2 Ca1 96.3(4) . 3_665
Si1 O2 Ca1 117.34(19) . 3_665
B1 O3 Si1 121.0(6) 4_566 .
B1 O3 Ca1 95.1(3) 4_566 2_645
Si1 O3 Ca1 118.22(18) . 2_645
B1 O3 Ca1 92.8(3) 4_566 1_655
Si1 O3 Ca1 114.66(18) . 1_655
Ca1 O3 Ca1 111.0(2) 2_645 1_655
B1 O4 Si1 126.7(7) 3_655 .
B1 O4 Ca1 98.3(4) 3_655 2_545
Si1 O4 Ca1 124.6(2) . 2_545
B1 O5 Ca1 116.5(3) . 4_565
B1 O5 Ca1 121.2(3) . 3_565
Ca1 O5 Ca1 106.3(2) 4_565 3_565
B1 O5 H 116(6) . .
Ca1 O5 H 98(6) 4_565 .
Ca1 O5 H 95(5) 3_565 .
loop_
_geom_bond_atom_site_label_1
_geom_bond_atom_site_label_2
_geom_bond_distance
_geom_bond_site_symmetry_2
Ca1 O1 2.172(5) .
Ca1 O1 2.181(4) 3_565
Ca1 O4 2.253(7) 2
Ca1 O2 2.292(6) 3_665
Ca1 O3 2.336(4) 2_655
Ca1 O3 2.388(5) 1_455
Ca1 O5 2.406(4) 4_566
Ca1 O5 2.458(5) 3_565
Ca1 B1 2.846(8) 4_466
Ca1 B1 2.850(7) 3_665
Ca1 Si1 3.282(2) 3_565
Ca1 Si1 3.309(3) .
Si1 O1 1.549(5) .
Si1 O2 1.602(7) .
Si1 O3 1.619(4) .
Si1 O4 1.626(6) .
Si1 Ca1 3.282(2) 3_565
Si1 Ca1 3.346(3) 3_665
Si1 Ca1 3.398(2) 1_655
Si1 Ca1 3.414(2) 2_645
Si1 Ca1 3.447(3) 2_545
B1 O3 1.436(9) 4_565
B1 O4 1.442(6) 3_655
B1 O5 1.454(12) .
B1 O2 1.461(6) .
B1 Ca1 2.846(8) 4_665
B1 Ca1 2.850(7) 3_665
O1 Ca1 2.181(4) 3_565
O2 Ca1 2.292(6) 3_665
O3 B1 1.436(9) 4_566
O3 Ca1 2.336(4) 2_645
O3 Ca1 2.388(5) 1_655
O4 B1 1.442(6) 3_655
O4 Ca1 2.253(7) 2_545
O5 Ca1 2.406(4) 4_565
O5 Ca1 2.458(5) 3_565
O5 H 0.89(2) .
