#------------------------------------------------------------------------------
#$Date: 2019-11-23 14:42:31 +0200 (Sat, 23 Nov 2019) $
#$Revision: 233669 $
#$URL: file:///home/coder/svn-repositories/cod/cif/4/34/91/4349177.cif $
#------------------------------------------------------------------------------
#
# This file is available in the Crystallography Open Database (COD),
# http://www.crystallography.net/
#
# All data on this site have been placed in the public domain by the
# contributors.
#
data_4349177
loop_
_publ_author_name
'Huang, Qian'
'Liu, Lijuan'
'Wang, Xiaoyang'
'Li, Rukang'
'Chen, Chuangtian'
_publ_section_title
;
 Beryllium-Free KBBF Family of Nonlinear-Optical Crystals:
 AZn<sub>2</sub>BO<sub>3</sub>X<sub>2</sub> (A = Na, K, Rb; X = Cl, Br).
;
_journal_issue                   24
_journal_name_full               'Inorganic chemistry'
_journal_page_first              12496
_journal_page_last               12499
_journal_paper_doi               10.1021/acs.inorgchem.6b02044
_journal_volume                  55
_journal_year                    2016
_chemical_formula_sum            'B Cl2 O3 Rb Zn2'
_chemical_formula_weight         345.92
_space_group_crystal_system      trigonal
_space_group_IT_number           155
_space_group_name_Hall           'R 3 2"'
_space_group_name_H-M_alt        'R 3 2 :H'
_audit_creation_method           SHELXL-2014/7
_cell_angle_alpha                90
_cell_angle_beta                 90
_cell_angle_gamma                120
_cell_formula_units_Z            3
_cell_length_a                   4.9645(14)
_cell_length_b                   4.9645(14)
_cell_length_c                   27.207(11)
_cell_measurement_temperature    296(2)
_cell_volume                     580.7(3)
_computing_structure_refinement  'SHELXL-2014/7 (Sheldrick, 2014)'
_diffrn_ambient_temperature      296(2)
_diffrn_measured_fraction_theta_full 0.994
_diffrn_measured_fraction_theta_max 1.000
_diffrn_radiation_type           MoK\a
_diffrn_radiation_wavelength     0.71073
_diffrn_reflns_av_R_equivalents  0.0556
_diffrn_reflns_av_unetI/netI     0.0466
_diffrn_reflns_Laue_measured_fraction_full 0.994
_diffrn_reflns_Laue_measured_fraction_max 1.000
_diffrn_reflns_limit_h_max       5
_diffrn_reflns_limit_h_min       -5
_diffrn_reflns_limit_k_max       5
_diffrn_reflns_limit_k_min       -5
_diffrn_reflns_limit_l_max       31
_diffrn_reflns_limit_l_min       -31
_diffrn_reflns_number            1130
_diffrn_reflns_point_group_measured_fraction_full 0.996
_diffrn_reflns_point_group_measured_fraction_max 1.000
_diffrn_reflns_theta_full        25.123
_diffrn_reflns_theta_max         25.123
_diffrn_reflns_theta_min         2.246
_exptl_absorpt_coefficient_mu    13.060
_exptl_crystal_density_diffrn    2.967
_exptl_crystal_F_000             480
_refine_diff_density_max         0.937
_refine_diff_density_min         -0.718
_refine_diff_density_rms         0.217
_refine_ls_abs_structure_details
;
 Flack x determined using 61 quotients [(I+)-(I-)]/[(I+)+(I-)]
 (Parsons, Flack and Wagner, Acta Cryst. B69 (2013) 249-259).
;
_refine_ls_abs_structure_Flack   0.06(3)
_refine_ls_extinction_method     none
_refine_ls_goodness_of_fit_ref   1.205
_refine_ls_hydrogen_treatment    undef
_refine_ls_matrix_type           full
_refine_ls_number_parameters     16
_refine_ls_number_reflns         237
_refine_ls_number_restraints     0
_refine_ls_restrained_S_all      1.205
_refine_ls_R_factor_all          0.0271
_refine_ls_R_factor_gt           0.0256
_refine_ls_shift/su_max          0.000
_refine_ls_shift/su_mean         0.000
_refine_ls_structure_factor_coef Fsqd
_refine_ls_weighting_details
'w=1/[\s^2^(Fo^2^)+(0.0401P)^2^] where P=(Fo^2^+2Fc^2^)/3'
_refine_ls_weighting_scheme      calc
_refine_ls_wR_factor_gt          0.0826
_refine_ls_wR_factor_ref         0.0832
_reflns_Friedel_coverage         0.463
_reflns_Friedel_fraction_full    1.000
_reflns_Friedel_fraction_max     1.000
_reflns_number_gt                218
_reflns_number_total             237
_reflns_threshold_expression     'I > 2\s(I)'
_cod_data_source_file            ic6b02044_si_001.cif
_cod_data_source_block           rzboc2
_cod_original_cell_volume        580.7(4)
_cod_database_code               4349177
_shelx_shelxl_version_number     2014/7
_shelx_space_group_comment
;
The symmetry employed for this shelxl refinement is uniquely defined
by the following loop, which should always be used as a source of
symmetry information in preference to the above space-group names.
They are only intended as comments.
;
_shelx_res_file
;

    rzboc2.res created by SHELXL-2014/7


TITL rzboc2 in R32
CELL 0.71073   4.9645   4.9645  27.2072  90.000  90.000 120.000
ZERR    3.00   0.0014   0.0014   0.0110   0.000   0.000   0.000
LATT -3
SYMM -Y, X-Y, Z
SYMM -X+Y, -X, Z
SYMM Y, X, -Z
SYMM X-Y, -Y, -Z
SYMM -X, -X+Y, -Z
SFAC B O CL ZN RB
UNIT 3 9 6 6 3
TEMP 23.000

L.S. 30
ACTA
BOND
FMAP 2
PLAN 20

WGHT    0.040100
FVAR       0.10793
MOLE   1
RB1   5    1.000000    1.000000    1.000000    10.16667    0.03613    0.03613 =
         0.05823    0.00000    0.00000    0.01806
ZN2   4    0.666667    0.333333    0.140267    10.33333    0.00827    0.00827 =
         0.02659    0.00000    0.00000    0.00413
CL3   3    0.666667    0.333333    0.057532    10.33333    0.04648    0.04648 =
         0.02386    0.00000    0.00000    0.02324
O1    2    0.333333    0.943508    0.166667    10.50000    0.00951    0.00684 =
         0.03654    0.00136    0.00271    0.00476
B1    1    0.333333    0.666667    0.166667    10.16667    0.00441    0.00441 =
         0.03407    0.00000    0.00000    0.00220

HKLF 4

REM  rzboc2 in R32
REM R1 =  0.0256 for     218 Fo > 4sig(Fo)  and  0.0271 for all     237 data
REM     16 parameters refined using      0 restraints

END

WGHT      0.0425      0.0000

REM Highest difference peak  0.937,  deepest hole -0.718,  1-sigma level  0.217
Q1    1   0.6667  0.3333  0.0994  10.33333  0.05    0.94
Q2    1   1.0000  1.0000  1.0762  10.33333  0.05    0.55
Q3    1   1.0000  1.0000  1.0337  10.33333  0.05    0.54
Q4    1   0.5936  0.4093  0.0637  11.00000  0.05    0.51
Q5    1   0.6667  0.3333  0.1759  10.33333  0.05    0.40
Q6    1   0.5017  0.7506  0.0621  11.00000  0.05    0.40
Q7    1   1.0967  0.5328  0.0619  11.00000  0.05    0.38
Q8    1   0.6273  0.5429  0.0957  11.00000  0.05    0.38
Q9    1   1.0166  0.2899  0.0701  11.00000  0.05    0.35
Q10   1   0.3333  0.6667  0.0911  10.33333  0.05    0.30
Q11   1   0.9065  0.5539  0.0971  11.00000  0.05    0.30
Q12   1   1.0230  0.7128  0.0709  11.00000  0.05    0.27
Q13   1   0.1558  1.0777  0.0992  11.00000  0.05    0.21
Q14   1   0.8017  0.1367  0.0400  11.00000  0.05    0.17
Q15   1   0.5720  0.4260  0.0125  11.00000  0.05    0.16
Q16   1   0.6667  0.3333  0.2140  10.33333  0.05    0.16
Q17   1   0.5969  0.4076  0.1369  11.00000  0.05    0.12
Q18   1   1.1940  0.8202  1.0011  11.00000  0.05    0.12
Q19   1   0.5012  0.7525  0.1407  11.00000  0.05    0.01
;
_shelx_res_checksum              64758
_shelx_hkl_file
;
   1  -2   0  921.89   73.34
   2  -1   0 1000.00   73.41
  -1  -1   0  902.75   72.21
  -1   2   0  862.10   85.86
  -1  -1   0  903.41   73.33
   0  -3   0  569.81   44.42
   0  -3   0  561.99   45.18
  -3   0   0  567.13   44.54
   3  -3   0  543.82   45.17
  -3   0   0  576.57   45.24
  -4   2   0  291.77   23.23
  -4   2   0  258.34   23.91
   2  -4   0  297.93   23.59
  -2  -2   0  307.46   23.23
  -2  -2   0  297.48   23.53
  -2   4   0  295.44   27.59
  -5   1   0  158.22   12.20
  -5   1   0  150.93   11.96
   4  -5   0  140.63   12.03
  -4   5   0  151.55   14.61
  -1  -4   0  130.90   11.73
  -1  -4   0  145.04   11.99
  -5   4   0  159.30   12.26
   1  -5   0  147.87   12.48
  -5   4   0  137.14   15.17
  -4  -1   0  152.23   12.39
  -4  -1   0  154.31   12.40
   5  -4   0  152.37   12.59
   1  -1  -1  148.88   11.69
  -1   0  -1  151.62   11.52
  -1   0  -1  148.24   11.71
   0   1  -1  147.21   11.48
   0  -1   1  150.41   11.70
  -1   1   1  146.29   11.49
   0  -1   1  126.84   11.48
  -2  -1  -1  113.68    8.96
  -1   3  -1  110.91   10.60
   3  -2  -1  117.11    9.12
  -2  -1  -1  108.52    9.01
   1  -3   1  104.82    9.06
   0  -2  -1  170.52   13.43
  -2   2  -1  165.20   15.95
  -2   0   1  165.72   13.55
   2  -2   1  164.28   13.42
  -3  -2  -1   34.35    3.30
  -3  -2  -1   33.58    3.18
  -5   3   1   37.02    3.28
  -5   3   1   35.53    3.80
   2  -5   1   36.40    3.34
   2  -3  -1  104.14    8.54
  -3   1  -1   99.98    8.42
  -1  -2   1  105.93    8.38
  -2   3   1   99.14   10.13
  -1  -2   1  111.44    8.54
  -1  -3  -1   34.23    3.00
  -1  -3  -1   33.61    3.07
  -3   4  -1   31.35    4.07
  -4   1   1   34.42    3.14
  -4   1   1   37.92    3.63
   3  -4   1   34.96    3.12
  -4   0  -1   15.43    1.90
  -4   0  -1   18.05    1.82
   4  -4  -1   16.55    1.86
  -4   4   1   10.54    2.75
   0  -4   1   17.48    1.69
   0  -4   1   16.41    1.80
   1  -4  -1   33.42    3.17
  -3  -1   1   34.91    3.17
   4  -3   1   34.69    3.23
  -3  -1   1   36.99    3.21
  -5   2  -1   26.16    3.65
  -5   2  -1   37.71    3.27
   3  -5  -1   35.65    3.24
  -2  -3   1   31.52    3.09
  -3   5   1   35.64    3.72
  -2  -3   1   34.04    3.15
   0  -5  -1   16.16    2.02
  -5   5  -1   12.74    3.24
  -5   0   1   20.17    2.30
   5  -5   1   17.85    2.17
  -1   1  -2   82.37    7.37
   0  -1  -2   92.00    7.39
   0  -1  -2   95.78    7.28
  -1   1  -2   97.24    8.78
   1  -1   2   89.59    7.38
   0   1   2   92.97    7.27
  -2   0  -2  102.60    8.27
   2  -2  -2  104.11    8.38
  -2   0  -2  100.93    8.35
   0  -2   2  101.18    8.38
   0  -2   2  104.54    8.18
  -2   2   2  103.94    9.99
  -2   3  -2   51.52    6.46
  -1  -2  -2   64.23    5.26
  -1  -2  -2   68.22    5.22
   2  -3   2   67.34    5.31
  -3  -1  -2   22.43    2.11
   4  -3  -2   23.18    2.35
  -3  -1  -2   21.46    2.24
   1  -4   2   22.97    2.23
   1  -3  -2   67.86    5.86
  -2  -1   2   72.22    5.89
  -2  -1   2   67.68    5.79
   3  -2   2   74.74    5.88
  -3   5  -2   32.58    3.53
  -2  -3  -2   28.13    2.71
  -2  -3  -2   27.16    2.70
  -5   2   2   28.55    2.81
   3  -5   2   27.94    2.82
   3  -4  -2   21.37    2.15
  -4   1  -2   20.28    2.21
  -4   1  -2   26.64    2.44
  -1  -3   2   20.38    2.04
  -1  -3   2   21.93    2.15
  -3   4   2   23.01    2.77
  -4   4  -2    6.29    2.06
   0  -4  -2    9.82    1.33
   0  -4  -2   10.21    1.31
   4  -4   2   11.45    1.45
  -4   0   2   12.03    1.58
  -4   0   2   10.00    1.44
   5  -5  -2   22.26    2.45
  -5   0  -2   15.07    2.15
  -5   5   2   13.56    3.21
   0  -5   2   17.77    2.12
   2  -5  -2   27.70    2.96
  -5   3  -2   34.44    2.96
  -3  -2   2   30.58    2.91
  -3  -2   2   29.66    2.97
   0   0  -3   49.86    4.33
   0   0  -3   52.90    4.26
   0   0   3   55.02    4.27
   0   0   3   52.76    5.03
   0   0   3   51.09    4.33
  -1   2  -3   18.46    2.26
  -1  -1  -3   19.87    1.70
   2  -1  -3   21.88    1.96
  -1  -1  -3   20.64    1.74
   1  -2   3   17.89    1.74
  -2   1  -3   15.94    1.68
   1  -2  -3   19.07    1.75
  -1  -1   3   21.92    1.83
   2  -1   3   22.75    1.76
  -1   2   3   19.40    1.98
  -2  -2  -3    9.42    1.19
  -2  -2  -3    8.51    1.24
  -2   4  -3   15.19    1.88
  -4   2   3   11.47    1.95
   2  -4   3   11.88    1.41
  -3   0  -3   33.20    3.00
  -3   0  -3   34.30    3.12
   3  -3  -3   37.58    3.13
   0  -3   3   34.76    2.93
   0  -3   3   35.99    3.11
  -3   3  -3   34.01    4.24
   0  -3  -3   30.26    2.99
   0  -3  -3   37.40    3.11
  -3   0   3   40.83    3.46
   3  -3   3   36.24    3.08
  -4  -1  -3   12.79    1.77
   5  -4  -3   14.72    2.06
  -5   4   3   11.35    2.59
   1  -5   3   13.55    1.75
   2  -4  -3   10.70    1.30
  -4   2  -3    7.74    1.51
  -2   4   3    9.66    1.29
  -2  -2   3    9.06    1.21
  -2  -2   3   10.88    1.27
  -1  -4  -3   13.02    1.65
  -4   5  -3   15.74    3.00
  -1  -4  -3   12.84    1.60
  -5   1   3   11.06    1.70
   4  -5   3   18.57    1.87
  -5   1   3   14.06    2.19
   4  -5  -3   15.75    1.90
  -5   1  -3   13.44    1.77
  -1  -4   3   12.17    1.53
  -1  -4   3   11.75    1.64
  -4   5   3   14.94    2.30
   1  -5  -3   14.34    1.87
  -5   4  -3   20.22    1.83
  -5   4  -3   13.73    2.83
  -4  -1   3   13.22    1.93
   5  -4   3   20.91    2.18
  -4  -1   3   12.91    1.83
  -1   0  -4  483.88   37.88
   0   1  -4  514.19   45.07
   1  -1  -4  463.78   38.47
   1  -1  -4  469.90   37.87
   0  -1   4  475.36   38.49
  -2  -1  -4  120.02    9.87
   3  -2  -4  124.99   10.11
  -1   3  -4  126.68   11.83
  -2  -1  -4  117.32    9.90
   1  -3   4  124.92   10.02
   0  -2  -4  186.26   14.22
   0  -2  -4  185.69   14.01
  -2   2  -4  180.00   16.96
   2  -2   4  176.78   14.20
  -2   0   4  150.51   14.46
  -2   5  -4   30.02    3.23
  -3  -2  -4   24.98    2.66
  -3  -2  -4   27.14    2.49
  -5   3   4   27.51    3.25
   2  -5   4   25.67    2.71
  -3   1  -4  121.52    9.41
   2  -3  -4  120.47    9.53
  -3   1  -4  102.10    9.67
   2  -3  -4  119.24    9.30
  -2   3   4  112.06   11.12
  -1  -2   4  117.55    9.35
  -1  -2   4  121.66    9.56
  -1  -3  -4   76.63    5.98
  -3   4  -4   58.87    7.58
  -1  -3  -4   78.27    5.93
   3  -4   4   77.13    6.05
  -4   1   4   55.01    6.54
  -4   0  -4   71.67    5.85
  -4   0  -4   75.80    6.05
   4  -4  -4   70.54    6.06
  -4   4   4   58.98    7.53
   0  -4   4   72.40    6.05
  -4   3  -4   85.07    8.51
  -4   3  -4   80.92    6.75
   1  -4  -4   80.75    6.92
  -3  -1   4   87.62    7.05
   4  -3   4   83.39    6.96
  -3  -1   4   79.66    6.88
  -5   2  -4   24.37    2.65
   3  -5  -4   26.36    2.65
  -2  -3   4   26.36    2.55
  -2  -3   4   28.31    2.66
  -3   5   4   26.17    2.86
  -5   5  -4   13.80    3.54
   0  -5  -4   18.06    2.09
   5  -5   4   19.43    2.27
  -5   0   4   17.42    2.21
  -5   0   4   17.58    2.30
  -1   1  -5  272.90   27.07
  -1   1  -5  285.61   22.61
   0  -1  -5  299.86   22.99
   0  -1  -5  296.74   22.69
   1  -1   5  279.23   22.61
   2  -2  -5  298.05   24.47
  -2   0  -5  310.31   24.10
   0  -2   5  305.13   24.49
  -1  -2  -5  224.18   17.10
  -1  -2  -5  229.25   16.90
   2  -3   5  209.65   17.15
  -3   1   5  179.24   17.61
  -3  -1  -5   95.19    7.90
  -3  -1  -5   96.80    8.00
   4  -3  -5   97.58    8.20
   1  -4   5   98.74    8.10
   1  -3  -5  227.13   18.12
  -3   2  -5  200.83   17.77
   3  -2   5  232.35   18.08
  -2  -1   5  238.95   18.25
  -2  -3  -5   80.72    7.09
  -2  -3  -5   88.84    7.13
  -3   5  -5   97.51    9.01
  -5   2   5   67.11    7.88
   3  -5   5   89.76    7.30
  -4   1  -5   94.51    8.01
   3  -4  -5   98.74    8.13
  -4   1  -5  102.52    8.04
  -3   4   5   96.70    9.45
  -1  -3   5   94.78    8.11
  -4   4  -5   53.64    6.86
   0  -4  -5   57.45    5.12
   0  -4  -5   58.55    5.13
  -4   0   5   59.57    5.17
  -4   0   5   73.91    5.74
   4  -4   5   59.16    5.17
  -5   0  -5   56.15    4.93
   5  -5  -5   51.99    4.93
   0  -5   5   53.15    4.87
   2  -5  -5   90.76    7.80
  -5   3  -5   98.35    7.68
  -3  -2   5   90.14    7.83
  -3  -2   5   89.76    7.72
   0   0  -6  320.68   33.86
   0   0  -6  357.95   29.04
   0   0  -6  360.11   28.56
   0   0   6  364.88   29.02
   0   0   6  403.82   33.90
  -1  -1  -6  121.28   10.38
  -1  -1  -6  121.17   10.30
  -2   1   6  148.35   10.75
   1  -2   6  130.97   10.46
   1  -2  -6  130.45    9.98
  -2   1  -6  129.61    9.82
   1  -2  -6  101.75    9.98
   2  -1   6  126.10    9.91
  -1  -1   6  125.32   10.12
  -2   4  -6   61.57    6.09
  -2  -2  -6   58.57    4.73
  -2  -2  -6   56.60    4.80
  -4   2   6   55.92    5.39
   2  -4   6   51.20    4.86
  -3   0  -6  128.25    9.80
   3  -3  -6  127.60    9.95
   0  -3   6  120.91    9.95
  -3   3   6  104.74   11.83
   0  -3  -6  134.59   10.07
  -3   3  -6  115.21   12.41
   0  -3  -6  128.13   10.15
   3  -3   6  125.43   10.15
  -3   0   6  113.42   10.59
  -4  -1  -6   36.34    3.31
   5  -4  -6   33.90    3.47
   1  -5   6   35.96    3.34
  -5   4   6   24.68    4.43
  -4   2  -6   51.76    4.74
   2  -4  -6   52.37    4.83
   2  -4  -6   59.41    4.79
  -2  -2   6   58.91    4.79
  -2  -2   6   60.55    4.97
  -4   5  -6   25.47    4.75
  -1  -4  -6   32.66    3.00
  -1  -4  -6   32.36    2.96
   4  -5   6   32.83    3.11
  -5   1   6   31.74    3.09
  -5   1   6   28.42    3.98
   4  -5  -6   33.62    3.27
  -5   1  -6   34.86    3.29
  -1  -4   6   31.29    3.12
  -1  -4   6   33.53    3.24
   1  -5  -6   34.34    3.34
  -5   4  -6   36.77    4.69
  -5   4  -6   36.72    3.19
   5  -4   6   33.78    3.49
  -4  -1   6   38.61    3.71
  -4  -1   6   33.92    3.43
   1  -1  -7   16.79    1.63
   1  -1  -7   20.67    1.72
   0   1  -7   18.58    2.04
  -1   0  -7   17.55    1.57
   0  -1   7   17.69    1.69
  -2  -1  -7    8.97    1.07
  -2  -1  -7    8.79    0.87
  -1   3  -7    7.67    1.46
   3  -2  -7   10.66    1.35
   1  -3   7    7.22    1.06
   0  -2  -7   16.86    1.46
  -2   2  -7   13.77    2.09
   0  -2  -7   16.36    1.55
  -2   0   7    9.71    1.83
   2  -2   7   16.92    1.44
  -3  -2  -7    0.68    0.71
  -2   5  -7    2.07    1.06
  -5   3   7    1.94    1.08
   2  -5   7    1.31    0.88
   2  -3  -7   11.00    1.19
   2  -3  -7    7.51    1.04
  -3   1  -7    6.21    0.94
  -1  -2   7    8.69    1.18
  -1  -2   7    8.53    0.95
  -1  -3  -7    0.59    0.57
  -1  -3  -7    0.80    0.51
  -3   4  -7   -0.19    1.09
   3  -4   7    1.17    0.63
  -4   1   7   -0.40    0.90
   4  -4  -7    5.25    1.11
  -4   0  -7    4.04    0.93
  -4   4   7    5.31    1.48
   0  -4   7    4.49    1.02
   1  -4  -7    1.09    0.35
  -4   3  -7    0.37    0.39
   1  -4  -7    0.75    0.59
  -4   3  -7    2.15    1.06
  -3  -1   7    0.98    0.57
  -3  -1   7    0.69    0.80
   4  -3   7    1.21    0.61
   3  -5  -7    1.30    0.81
  -5   2  -7    1.40    0.71
  -2  -3   7    0.22    0.80
  -2  -3   7    1.56    0.71
   0  -5  -7    1.05    0.86
  -5   5  -7   -0.09    1.41
   5  -5   7    1.22    0.88
  -5   0   7    1.50    1.24
  -5   0   7    0.46    0.77
   0  -1  -8    5.33    0.73
   0  -1  -8    5.76    0.60
  -1   1  -8    5.34    0.62
  -1   1  -8    3.96    0.91
  -1   0   8    3.93    0.92
   2  -2  -8   29.32    2.77
   2  -2  -8   30.91    2.71
   0   2  -8   33.95    3.42
  -2   0  -8   32.19    2.72
   0  -2   8   31.63    2.84
  -1  -2  -8   26.65    2.26
  -2   3  -8   22.27    3.34
  -1  -2  -8   26.86    2.35
   2  -3   8   24.70    2.37
  -3   1   8   29.07    3.14
  -3  -1  -8    9.29    1.30
  -3  -1  -8    9.45    1.01
   4  -3  -8   13.18    1.74
  -1   4  -8   10.97    1.77
   1  -4   8   10.59    1.43
   1  -3  -8   22.15    2.57
  -3   2  -8   23.74    2.22
   1  -3  -8   25.47    2.34
   3  -2   8   27.44    2.27
  -2  -1   8   30.66    2.77
  -3   5  -8   17.04    3.15
  -2  -3  -8   19.20    1.90
  -2  -3  -8   18.21    2.01
  -5   2   8   25.25    3.53
   3  -5   8   19.07    2.19
   3  -4  -8   13.47    1.49
  -4   1  -8    9.88    1.32
  -1  -3   8   10.74    1.45
  -1  -3   8    9.20    1.19
   0  -4  -8    4.93    1.07
  -4   4  -8    2.49    1.51
   0  -4  -8    4.04    0.87
  -4   0   8    5.44    1.54
   4  -4   8    5.24    0.97
  -5   3  -8   21.81    3.06
   2  -5  -8   18.31    2.33
  -5   3  -8   19.85    2.12
   2  -5  -8   22.54    2.26
  -3  -2   8   23.66    2.60
  -3  -2   8   19.40    2.28
   0   0  -9   53.10    5.44
   0   0  -9   54.46    4.67
   0   0   9   60.11    4.77
  -1   2  -9   13.27    2.14
  -1  -1  -9   15.67    1.31
  -1  -1  -9   15.98    1.44
  -2   1   9   11.22    1.75
   1  -2  -9    7.78    0.92
   1  -2  -9    7.07    1.20
  -2   1  -9    8.50    0.88
  -2  -2  -9    0.15    0.37
  -2   4  -9    0.17    0.92
  -2  -2  -9    0.48    0.54
   2  -4   9    2.28    0.75
  -4   2   9    2.76    1.10
   3  -3  -9    5.03    0.92
  -3   0  -9    3.97    0.77
   0  -3   9    4.73    0.93
   0  -3  -9    3.50    0.84
   0  -3  -9    4.52    0.72
  -3   3  -9    3.42    1.30
   3  -3   9    4.34    0.73
  -3   0   9    2.52    1.16
  -4  -1  -9    0.92    0.75
   5  -4  -9   -0.37    0.84
   1  -5   9    0.51    0.88
  -4   2  -9    2.67    0.61
   2  -4  -9    1.92    0.68
   2  -4  -9    2.83    0.90
  -2  -2   9    1.05    0.78
  -2  -2   9    0.48    0.53
  -1  -4  -9    0.94    0.78
  -4   5  -9    0.08    1.44
  -1  -4  -9    0.79    0.67
   4  -5   9    0.81    0.81
  -5   1   9    0.78    1.33
   4  -5  -9    0.72    0.79
  -5   1  -9   -0.04    0.71
  -1  -4   9    1.12    0.88
  -5   4  -9    0.51    1.09
   1  -5  -9   -0.58    0.90
   1  -5  -9    0.25    0.75
  -4  -1   9    1.75    1.18
  -4  -1   9    0.38    0.73
   5  -4   9    1.14    0.89
   0   1 -10  459.67   47.38
   0   1 -10  541.80   39.73
   1  -1 -10  477.80   40.41
  -1   0 -10  515.78   39.74
   1  -1 -10  519.24   39.94
   0  -1  10  510.39   40.51
  -2  -1 -10  216.64   16.59
  -1   3 -10  188.85   20.02
   3  -2 -10  206.51   17.00
   1  -3  10  217.12   16.89
   0  -2 -10  268.91   21.44
  -2   2 -10  256.27   25.47
   0  -2 -10  275.07   21.27
  -3  -2 -10   73.68    6.30
  -2   5 -10   71.28    7.89
  -5   3  10   73.73    7.01
   2  -5  10   77.73    6.53
  -3   1 -10  218.02   17.75
   2  -3 -10  239.90   17.98
   2  -3 -10  212.45   18.05
  -1  -2  10  223.92   18.23
  -1  -3 -10  142.56   12.39
  -3   4 -10  167.86   15.54
  -1  -3 -10  152.12   12.36
   3  -4  10  146.09   12.50
  -4   1  10  166.66   13.42
  -4   0 -10  143.91   11.17
   4  -4 -10  129.99   11.34
   0  -4  10  135.30   11.37
  -4   3 -10  148.71   12.06
   1  -4 -10  146.65   12.48
  -4   3 -10  153.11   14.90
   1  -4 -10  142.24   12.33
   4  -3  10  152.27   12.32
  -3  -1  10  166.11   12.89
  -5   2 -10   76.00    6.38
   3  -5 -10   73.10    6.51
  -2  -3  10   75.97    6.38
  -2  -3  10   76.51    6.66
  -1   1 -11  373.24   40.04
  -1   1 -11  421.76   33.59
   0  -1 -11  434.39   34.05
   1   0 -11  473.82   33.62
   0  -1 -11  388.68   33.67
  -1   0  11  461.60   34.46
   0   2 -11  377.09   36.42
   2  -2 -11  361.19   30.96
  -2   0 -11  381.83   30.44
   2  -2 -11  406.08   30.56
   0  -2  11  399.75   31.07
  -2   3 -11  271.51   24.38
  -1  -2 -11  245.72   20.21
  -1  -2 -11  248.54   20.05
   2  -3  11  228.99   20.31
  -3   1  11  273.44   20.97
  -1   4 -11  106.97   10.61
  -3  -1 -11  107.55    8.63
   4  -3 -11   95.95    8.92
   1  -4  11  108.75    8.86
  -3   2 -11  241.90   19.24
  -3   2 -11  253.62   23.21
   1  -3 -11  240.29   19.60
   1  -3 -11  240.68   19.60
  -2  -1  11  242.86   20.05
   3  -2  11  238.22   19.49
  -2  -3 -11   77.49    6.50
  -2  -3 -11   74.78    6.59
  -3   5 -11   69.01    8.57
  -5   2  11   93.84    7.81
   3  -5  11   81.30    6.80
   3  -4 -11  107.14    8.88
  -4   1 -11  107.55    8.70
  -1  -3  11  107.97    9.00
  -1  -3  11  102.31    8.61
   0  -4 -11   62.49    5.65
  -4   4 -11   71.42    7.44
   0  -4 -11   61.61    5.43
   4  -4  11   66.25    5.52
  -4   0  11   58.89    6.48
   2  -5 -11   82.50    7.20
  -5   3 -11   92.40    8.88
  -5   3 -11   80.14    6.99
  -3  -2  11   92.57    7.65
  -3  -2  11   79.76    7.14
   0   0 -12   19.58    2.21
   0   0 -12   19.64    2.00
   0   0  12   20.42    2.03
  -1  -1 -12    9.75    1.17
  -1  -1 -12    8.57    0.98
  -1   2 -12    9.46    1.80
  -2   1  12   16.11    1.86
   1  -2  12   13.66    1.31
  -2   1 -12   15.48    1.83
   1  -2 -12   13.14    1.42
   1  -2 -12   12.40    1.76
  -2   1 -12   13.80    1.36
  -2  -2 -12    2.74    0.74
  -2   4 -12    1.50    1.32
  -2  -2 -12    3.00    0.52
  -4   2  12    2.42    1.15
   2  -4  12    1.64    0.84
   3  -3 -12    0.27    0.53
  -3   0 -12    0.82    0.51
   0  -3  12    1.08    0.78
   0  -3 -12    1.05    0.49
   0  -3 -12    0.48    0.69
  -3   3 -12    2.09    1.21
  -3   0  12   -0.32    1.03
   3  -3  12    0.02    0.25
  -4  -1 -12    0.80    0.76
   5  -4 -12    1.67    1.08
   1  -5  12    1.64    1.11
   2  -4 -12    1.96    0.70
   2  -4 -12    1.64    1.03
  -4   2 -12    3.11    0.65
  -2  -2  12    3.09    1.15
  -1  -4 -12    0.64    0.68
  -4   5 -12    0.45    1.53
  -1  -4 -12    1.14    0.87
   4  -5  12    1.58    0.94
  -5   1  12   -0.91    1.36
  -5   1 -12    0.98    0.80
   4  -5 -12    0.64    0.88
  -1  -4  12    1.03    1.00
   1  -5 -12    0.95    0.78
  -5   4 -12    0.75    1.21
   1  -5 -12   -0.07    1.04
  -4  -1  12    0.57    0.80
  -4  -1  12    0.95    1.35
   0   1 -13  175.04   12.91
   0   1 -13  146.18   15.44
  -1   0 -13  168.86   12.86
   1  -1 -13  142.79   13.06
  -1   0 -13  182.28   15.29
   1   0  13  147.98   13.05
   0  -1  13  149.77   13.27
  -1   1  13  168.54   13.19
  -1   3 -13   63.63    7.60
  -2  -1 -13   74.02    6.07
   1  -3  13   79.56    6.29
  -3   2  13   73.46    6.45
   0  -2 -13   86.03    7.19
  -2   2 -13   89.07    6.96
   0  -2 -13   89.88    7.07
  -2   2 -13   77.75    8.64
  -2   0  13   92.89    7.76
   2  -2  13   82.17    7.05
  -2   5 -13   27.27    4.11
  -3  -2 -13   30.18    2.95
  -5   3  13   30.02    3.65
   2  -5  13   32.82    3.23
   2  -3 -13   74.60    6.40
  -3   1 -13   79.98    6.26
   2  -3 -13   69.91    6.58
  -1  -2  13   78.75    6.73
  -3   4 -13   78.70    7.45
  -1  -3 -13   58.89    5.33
  -1  -3 -13   58.96    5.45
  -4   1  13   78.91    6.59
   3  -4  13   61.39    5.49
  -4   0 -13   62.67    5.39
   4  -4 -13   60.38    5.58
   0  -4  13   64.25    5.66
  -4   3 -13   60.63    6.74
   1  -4 -13   64.45    5.34
  -4   3 -13   63.08    5.15
   1  -4 -13   61.95    5.65
  -3  -1  13   58.09    6.12
   4  -3  13   62.07    5.29
   3  -5 -13   28.92    3.15
  -5   2 -13   30.58    3.02
   3  -5 -13   34.87    3.23
  -2  -3  13   34.16    3.56
  -2  -3  13   31.22    3.06
   0  -1 -14   40.00    3.99
  -1   1 -14   41.87    3.92
  -1   1 -14   45.43    4.79
   0  -1 -14   43.50    3.89
   1   0 -14   54.01    4.02
  -1   0  14   55.90    4.39
   0   2 -14   14.78    2.37
   2  -2 -14   18.87    1.98
   2  -2 -14   13.76    1.78
  -2   0 -14   16.00    1.63
   0  -2  14   17.27    2.01
  -1  -2 -14   12.83    1.52
  -2   3 -14    9.63    2.11
  -1  -2 -14   10.93    1.22
  -3   1  14   17.23    2.30
   2  -3  14   12.16    1.49
  -1   4 -14    8.43    2.04
  -3  -1 -14    9.74    1.30
   1  -4  14    8.46    1.50
  -4   3  14    9.46    1.79
   1  -3 -14   16.52    2.08
   1  -3 -14   13.46    1.47
  -3   2 -14   13.15    2.08
  -3   2 -14   13.47    1.37
  -2  -1  14    7.13    1.85
  -2  -3 -14    1.40    0.84
  -3   5 -14    1.66    1.74
  -5   2  14    2.73    1.43
   3  -5  14    2.52    1.11
   3  -4 -14    9.61    1.45
  -4   1 -14    8.96    1.25
   3  -4 -14   15.15    1.84
  -1  -3  14    8.98    1.21
  -1  -3  14    8.59    1.64
   0  -4 -14   10.72    1.74
   0  -4 -14    9.08    1.24
  -4   4 -14    8.59    2.27
  -5   3 -14    0.95    0.62
   2  -5 -14   -0.71    1.06
  -5   3 -14    1.22    1.21
   2  -5 -14    1.42    0.86
  -3  -2  14    3.16    0.95
  -3  -2  14    1.73    1.37
   0   0 -15  244.99   19.21
   0   0 -15  216.61   22.63
   0   0  15  258.76   19.55
  -1   2 -15  248.11   21.75
  -1  -1 -15  279.46   21.81
  -1   2 -15  321.01   26.27
  -1  -1 -15  269.65   21.97
  -2   1  15  249.06   22.38
   1  -2  15  279.11   22.20
   1  -2 -15  294.55   22.42
  -2   1 -15  270.63   26.38
   1  -2 -15  268.64   22.44
  -2   1 -15  280.76   22.07
  -2   4 -15   99.04   10.63
  -2  -2 -15   98.78    8.43
  -4   2  15  104.98    9.14
   2  -4  15  105.72    8.68
   3  -3 -15   96.88    8.40
  -3   0 -15   98.25    8.16
   0  -3  15  103.84    8.57
   0  -3 -15   94.19    7.47
   0  -3 -15   85.03    7.64
  -3   3 -15   92.45    9.38
   3  -3  15   93.33    7.49
  -3   0  15   81.72    8.36
  -4   2 -15  117.59   10.51
   2  -4 -15   85.65    8.85
   2  -4 -15  108.84    8.70
  -4   2 -15  106.20    8.48
  -2  -2  15   97.83    9.18
  -1   0 -16  125.78    9.99
   1  -1 -16  118.40   10.21
   0   1 -16  116.39   10.03
   0   1 -16  133.07   12.05
  -1   0 -16  124.77   11.81
   1   0  16  123.92   10.15
  -1   1  16  117.69   10.24
  -1   3 -16   63.94    7.19
  -2  -1 -16   64.67    5.65
   1  -3  16   75.07    5.98
  -3   2  16   65.19    6.06
  -2   2 -16   68.30    6.16
   0  -2 -16   70.87    6.37
   0  -2 -16   79.03    6.23
  -2   2 -16   73.00    7.68
   2  -2  16   73.76    6.22
  -2   0  16   91.34    7.02
  -2   5 -16   20.56    3.89
  -3  -2 -16   30.34    2.83
  -5   3  16   26.39    3.75
   2  -5  16   29.94    3.20
  -3   1 -16   70.03    5.34
   2  -3 -16   53.86    5.70
   2  -3 -16   64.97    5.48
  -1  -2  16   61.52    5.92
  -1  -3 -16   55.61    5.12
  -3   4 -16   71.46    6.92
  -1  -3 -16   53.83    4.90
   3  -4  16   55.10    5.12
  -4   1  16   67.20    6.08
  -4   0 -16   52.93    4.77
   4  -4 -16   55.03    5.05
   0  -4  16   54.87    5.20
  -4   3 -16   57.15    4.50
   1  -4 -16   58.51    5.06
   1  -4 -16   51.38    4.62
  -4   3 -16   51.12    5.96
  -3  -1  16   41.39    5.59
   3  -5 -16   27.08    3.00
   3  -5 -16   26.20    3.15
  -5   2 -16   28.10    2.83
  -2  -3  16   30.72    2.95
  -2  -3  16   32.93    3.68
   0  -1 -17    0.37    0.56
  -1   1 -17    1.46    0.84
   1   0 -17   -0.38    0.54
  -1   1 -17    3.18    0.70
  -1   0  17    0.51    0.75
   0   1  17    0.34    0.46
   1  -1  17    0.46    0.52
   0   2 -17    0.10    0.90
   2  -2 -17    1.56    0.91
  -2   0 -17    0.78    0.55
   0  -2  17    0.80    0.91
  -2   2  17    0.17    0.58
  -2   3 -17    2.22    1.28
  -1  -2 -17    1.89    0.56
  -1  -2 -17    1.67    0.80
  -3   1  17    0.99    0.97
   2  -3  17    0.54    0.72
  -3  -1 -17    1.37    0.78
  -1   4 -17   -0.94    1.14
  -4   3  17    0.59    0.92
   1  -4  17    1.94    1.12
  -3   2 -17    0.20    0.85
   1  -3 -17    0.82    0.85
   1  -3 -17    0.50    0.56
  -3   2 -17    0.72    0.49
  -2  -1  17    0.02    1.19
  -3   5 -17    0.37    1.58
  -2  -3 -17    0.16    0.85
   3  -5  17    1.29    1.15
  -5   2  17    0.34    1.22
   3  -4 -17    0.88    0.95
  -4   1 -17    1.16    0.67
   3  -4 -17    1.05    0.80
  -1  -3  17    0.40    1.14
   0  -4 -17    1.54    1.03
   0  -4 -17    2.10    0.78
  -4   4 -17    3.07    1.59
  -4   0  17    0.64    1.66
   2  -5 -17    1.54    0.89
   2  -5 -17   -0.53    1.21
  -5   3 -17    0.86    0.69
  -5   3 -17    0.94    1.26
  -3  -2  17    0.31    1.49
   0   0 -18    4.80    0.99
   0   0 -18    4.97    1.01
   0   0  18    5.35    1.12
   2  -1 -18    7.95    1.34
  -1  -1 -18    7.62    1.19
  -1   2 -18    7.12    1.20
  -1   2 -18    9.44    1.73
   1   1  18    6.55    1.03
   1  -2  18    7.23    1.35
  -2   1  18    8.18    1.46
   1  -2 -18    6.67    1.06
   1  -2 -18    7.16    1.32
  -2   1 -18    5.98    0.94
  -2   1 -18    5.98    1.37
  -1  -1  18    4.23    1.48
  -2  -2 -18    5.93    1.19
  -2   4 -18    5.69    1.92
   2  -4  18    7.82    1.50
  -4   2  18    6.44    1.64
   3  -3 -18    1.11    0.99
  -3   0 -18    1.19    0.69
   3  -3 -18    0.79    0.80
   0  -3  18   -0.18    1.06
   0  -3 -18    1.07    0.62
   0  -3 -18    1.03    0.89
  -3   3 -18    0.37    1.04
  -3   0  18   -0.35    1.23
   3  -3  18    0.56    0.65
   2  -4 -18    4.07    1.51
  -4   2 -18    6.54    1.62
  -4   2 -18    7.15    1.02
   2  -4 -18    6.07    1.14
  -2  -2  18    3.33    1.61
  -1   0 -19    2.20    0.70
   0   1 -19    2.91    1.11
   0   1 -19    0.25    0.74
   1  -1 -19    1.51    0.93
  -1   0 -19    2.56    0.81
  -1   1  19    2.36    0.80
   1   0  19    2.52    0.87
   0  -1  19    1.50    1.13
  -2  -1 -19    1.80    0.79
  -1   3 -19    2.02    1.34
  -3   2  19    0.58    0.84
   1  -3  19    3.41    1.21
  -2   2 -19    0.75    0.89
  -2   2 -19    0.61    0.55
   0  -2 -19    0.31    0.65
   0  -2 -19    0.13    0.55
   2  -2  19    0.18    0.57
  -2   0  19    0.12    0.95
   2  -3 -19    1.51    0.74
  -3   1 -19    0.97    0.94
   2  -3 -19   -0.81    1.02
  -3   1 -19    0.98    0.62
  -1  -2  19    0.90    1.25
  -1  -3 -19    3.31    1.13
  -3   4 -19    4.09    1.73
  -1  -3 -19    3.39    0.86
  -4   1  19    5.69    1.81
   3  -4  19    4.32    1.15
  -4   0 -19    5.56    1.11
   4  -4 -19    7.14    1.55
   0  -4  19    5.79    1.73
  -4   3 -19    3.18    1.48
  -4   3 -19    2.95    0.75
   1  -4 -19    3.83    1.30
   1  -4 -19    3.26    0.89
  -3  -1  19   -1.16    1.60
  -1   1 -20   38.64    3.46
   0  -1 -20   35.15    3.50
  -1   1 -20   43.56    4.21
   1   0 -20   28.80    3.53
  -1   0  20   46.92    3.92
   0   1  20   34.39    3.46
   0   2 -20   21.63    3.03
   2  -2 -20   14.86    2.44
  -2   0 -20   22.94    2.60
  -2   0 -20   21.26    2.19
   0  -2  20   15.20    2.56
  -2   2  20   22.28    2.40
  -1  -2 -20   21.07    2.07
  -1  -2 -20   17.78    2.31
  -2   3 -20   24.98    3.25
   2  -3  20   21.70    2.40
  -3   1  20   20.22    2.77
  -3  -1 -20   20.14    2.15
  -1   4 -20   19.35    3.40
  -4   3  20   18.50    2.80
   1  -4  20   15.00    2.52
  -3   2 -20   18.55    3.01
   1  -3 -20   22.12    2.56
  -3   2 -20   24.48    2.23
   1  -3 -20   21.85    2.24
  -2  -1  20   14.78    2.97
   3  -4 -20   18.38    2.64
   3  -4 -20   20.34    2.32
  -4   1 -20   18.97    2.08
  -1  -3  20   12.86    2.57
  -4   4 -20   23.11    3.59
   0  -4 -20   22.01    2.21
   0  -4 -20   17.90    2.61
  -4   0  20   19.33    3.44
   0   0 -21  123.29   10.42
   0   0  21  129.38   10.68
  -1   2 -21  161.18   13.36
   2  -1 -21  118.57   11.19
  -1  -1 -21  142.47   12.94
  -1  -1 -21  125.56   11.06
  -1   2 -21  147.62   11.10
   1  -2  21  114.12   11.36
  -2   1  21  127.83   11.39
   1   1  21  136.32   11.11
   1  -2 -21  147.78   10.73
  -2   1 -21  121.84   10.42
  -2   1 -21  107.64   12.41
  -1  -1  21  127.37   11.17
  -1   2  21  135.63   10.69
  -2  -2 -21   55.64    5.55
  -2   4 -21   73.62    7.31
   2  -4  21   62.70    5.88
  -4   2  21   65.70    6.12
  -3   0 -21   57.95    4.73
   3  -3 -21   45.35    5.05
  -3   3  21   58.24    5.14
   0  -3  21   48.30    5.30
  -3   3 -21   57.92    6.04
   0  -3 -21   42.38    4.75
   0  -3 -21   56.19    4.59
  -3   0  21   55.31    5.60
   3  -3  21   51.10    4.68
   2  -4 -21   66.99    6.01
   2  -4 -21   60.60    5.63
  -4   2 -21   61.13    6.91
  -4   2 -21   66.42    5.49
   0   1 -22   46.30    4.52
  -1   0 -22   41.42    4.35
  -1   0 -22   44.15    5.07
   1  -1 -22   57.45    4.69
   1   0  22   57.39    4.58
  -1   1  22   51.93    4.60
   0  -1  22   48.80    4.93
  -1   3 -22   22.08    3.15
  -2  -1 -22   19.84    2.27
   1  -3  22   14.18    2.59
  -3   2  22   20.22    2.72
  -2   2 -22   30.14    2.78
   0  -2 -22   26.61    2.89
  -2   2 -22   26.13    3.50
  -2   0  22   27.07    3.39
   2  -2  22   27.84    2.80
  -3   1 -22   21.50    2.34
   2  -3 -22   21.61    2.81
  -3   1 -22   22.01    2.98
   2  -3 -22   19.52    2.34
  -3   4 -22   18.29    3.11
  -1  -3 -22   12.59    2.06
   3  -4  22   13.10    2.01
  -4   1  22   17.11    2.71
   1  -4 -22   15.10    1.81
  -4   3 -22   11.71    2.51
   1  -4 -22   17.36    2.25
  -3  -1  22    9.57    2.72
  -1   1 -23   55.78    5.38
   0  -1 -23   47.52    4.54
  -1   1 -23   55.59    4.52
   1   0 -23   38.79    4.59
   0   1  23   49.35    4.56
  -1   0  23   51.92    4.87
  -2   0 -23   27.66    2.88
   2  -2 -23   26.55    3.27
  -2   0 -23   29.64    3.39
   0   2 -23   31.11    3.73
  -2   2  23   23.33    2.98
  -1  -2 -23   20.53    2.73
  -2   3 -23   30.19    3.66
   2  -3  23   23.38    2.88
  -3   1  23   29.66    3.22
  -1   4 -23   21.40    3.51
  -3  -1 -23   21.80    2.51
   1  -4  23   22.37    3.19
  -4   3  23   23.46    3.26
   1  -3 -23   28.72    2.93
   1  -3 -23   27.05    2.67
  -3   2 -23   21.99    3.39
  -3   2 -23   25.14    2.66
  -2  -1  23   23.01    3.54
   3  -4 -23   15.16    2.78
  -4   1 -23   25.21    2.52
  -4   1 -23   24.49    3.32
   3  -4 -23   20.75    2.62
   0   0 -24   12.23    1.76
   0   0  24   12.90    1.94
   2  -1 -24   13.55    2.47
  -1   2 -24   25.21    2.58
  -1  -1 -24   19.89    2.53
  -1  -1 -24   17.44    2.42
  -1   2 -24   25.75    3.06
   1   1  24   24.94    2.31
   1  -2  24   12.55    2.57
  -2   1  24   22.36    2.62
  -2   1 -24   17.88    2.74
  -2   1 -24   15.68    2.14
   1  -2 -24   23.54    2.51
  -1  -1  24   22.36    3.10
  -1   2  24   20.23    2.35
  -2   4 -24   11.73    2.45
  -4   2  24    8.39    1.86
   2  -4  24    7.97    1.92
   3  -3 -24    2.19    1.54
  -3   0 -24    4.59    1.20
  -3   0 -24    7.18    1.61
  -3   3  24    5.69    1.51
   0  -3  24    2.24    1.77
   0  -3 -24    6.51    1.47
  -3   3 -24    5.89    1.80
   0  -3 -24    6.22    1.26
  -3   0  24    6.79    2.01
   2  -4 -24    9.44    1.60
   2  -4 -24   10.28    1.98
  -4   2 -24    9.90    1.47
  -4   2 -24    8.89    2.19
  -2  -2  24    4.26    2.11
   0   1 -25   53.95    5.03
  -1   0 -25   51.77    5.65
   0   1 -25   61.44    5.84
   1  -1 -25   58.10    5.12
  -1   0 -25   46.82    4.85
   0  -1  25   53.67    5.44
   1   0  25   57.59    5.07
  -1   1  25   54.20    5.05
  -2  -1 -25   30.69    3.53
  -1   3 -25   37.45    4.46
  -2  -1 -25   38.97    4.04
  -3   2  25   32.43    3.78
   0  -2 -25   45.52    4.16
  -2   2 -25   51.18    4.04
  -2   2 -25   47.24    4.99
   0   2  25   34.72    3.96
   2  -2  25   35.16    4.04
  -2   0  25   49.71    4.64
   2  -3 -25   30.95    3.49
  -3   1 -25   31.60    3.22
  -3   1 -25   29.73    3.90
  -2   3  25   33.77    3.43
  -1  -2  25   27.20    3.98
   0  -1 -26  108.85    9.80
   1   0 -26  111.64    9.94
  -1   1 -26  128.08   11.59
  -1   1 -26  122.42    9.78
  -1   0  26  107.44   10.13
   0   1  26  123.37    9.97
  -2   0 -26   62.23    6.69
   2  -2 -26   69.54    6.01
   0   2 -26   79.15    6.98
  -2   0 -26   59.91    5.72
  -2   2  26   56.10    5.86
   0  -2  26   57.09    6.32
  -1  -2 -26   47.50    4.73
   2  -3  26   40.99    4.85
  -3   1  26   65.05    5.21
  -3   2 -26   52.70    5.36
  -3   2 -26   53.26    6.60
   1  -3 -26   65.01    5.63
  -2  -1  26   71.23    6.49
  -1   3  26   69.18    5.69
   0   0 -27    1.72    1.00
   0   0 -27    0.33    0.86
   0   0  27    0.19    1.06
  -1   2 -27    2.37    1.13
  -1  -1 -27    1.78    1.05
  -1   2 -27    1.21    1.15
   2  -1 -27    1.10    1.33
   1  -2  27   -0.44    1.40
  -2   1  27    0.77    1.02
   1  -2 -27    1.08    1.07
  -2   1 -27    0.79    0.85
  -2   1 -27    1.72    1.11
  -1   2  27    0.83    0.90
  -1  -1  27    1.54    1.57
   0   1 -28    7.01    1.55
   1  -1 -28    6.79    1.54
  -1   0 -28    8.31    1.55
  -1   0 -28    7.04    1.38
   0   1 -28    8.72    1.67
   0  -1  28    6.20    1.84
  -1   1  28    8.68    1.59
  -2   2 -28   10.39    2.00
  -2   2 -28    8.61    1.46
   0  -2 -28    9.01    1.64
  -2   0  28    8.76    1.99
   1   0 -29   -0.58    1.08
   0  -1 -29    0.24    0.96
  -1   1 -29    1.20    1.06
  -1   1 -29    0.01    0.91
   1  -1  29   -1.35    1.21
   0   1  29    0.04    0.92
  -1   0  29    0.67    1.20
  -2   0 -29    0.64    1.06
   0   2 -29   -0.85    1.21
   2  -2 -29   -0.01    1.18
  -2   0 -29    0.33    0.97
   0  -2  29   -1.99    1.50
  -2   2  29    0.53    0.99
   0   0 -30   12.75    1.86
   0   0 -30   11.32    1.80
   0   0  30   11.78    2.06
   2  -1 -30    2.45    1.48
  -1   2 -30    4.27    1.34
  -1   2 -30    4.99    1.56
  -1  -1 -30    4.03    1.36
   1  -2  30    2.56    1.77
  -2   1  30    3.29    1.35
  -2   1 -30    5.39    1.54
  -2   1 -30    3.01    1.16
   1  -2 -30    4.96    1.38
  -1   2  30    3.25    1.26
  -1  -1  30    3.20    1.76
   0   1 -31   10.82    1.87
   1  -1 -31    9.21    1.76
  -1   0 -31    8.88    1.63
   0   1 -31    8.16    1.70
   0  -1  31   10.06    2.15
  -1   1  31   11.38    1.93
   0   0   0    0.00    0.00
;
_shelx_hkl_checksum              60793
loop_
_space_group_symop_operation_xyz
'x, y, z'
'-y, x-y, z'
'-x+y, -x, z'
'y, x, -z'
'x-y, -y, -z'
'-x, -x+y, -z'
'x+2/3, y+1/3, z+1/3'
'-y+2/3, x-y+1/3, z+1/3'
'-x+y+2/3, -x+1/3, z+1/3'
'y+2/3, x+1/3, -z+1/3'
'x-y+2/3, -y+1/3, -z+1/3'
'-x+2/3, -x+y+1/3, -z+1/3'
'x+1/3, y+2/3, z+2/3'
'-y+1/3, x-y+2/3, z+2/3'
'-x+y+1/3, -x+2/3, z+2/3'
'y+1/3, x+2/3, -z+2/3'
'x-y+1/3, -y+2/3, -z+2/3'
'-x+1/3, -x+y+2/3, -z+2/3'
loop_
_atom_site_label
_atom_site_type_symbol
_atom_site_fract_x
_atom_site_fract_y
_atom_site_fract_z
_atom_site_U_iso_or_equiv
_atom_site_adp_type
_atom_site_occupancy
_atom_site_site_symmetry_order
_atom_site_calc_flag
_atom_site_refinement_flags_posn
_atom_site_refinement_flags_adp
_atom_site_refinement_flags_occupancy
Rb1 Rb 1.0000 1.0000 1.0000 0.0435(6) Uani 1 6 d S T P
Zn2 Zn 0.6667 0.3333 0.14027(4) 0.0144(5) Uani 1 3 d S T P
Cl3 Cl 0.6667 0.3333 0.05753(10) 0.0389(9) Uani 1 3 d S T P
O1 O 0.3333 0.9435(13) 0.1667 0.0173(14) Uani 1 2 d S T P
B1 B 0.3333 0.6667 0.1667 0.014(3) Uani 1 6 d S T P
loop_
_atom_site_aniso_label
_atom_site_aniso_U_11
_atom_site_aniso_U_22
_atom_site_aniso_U_33
_atom_site_aniso_U_23
_atom_site_aniso_U_13
_atom_site_aniso_U_12
Rb1 0.0361(7) 0.0361(7) 0.0582(13) 0.000 0.000 0.0181(4)
Zn2 0.0083(5) 0.0083(5) 0.0266(7) 0.000 0.000 0.0041(3)
Cl3 0.0465(13) 0.0465(13) 0.0239(15) 0.000 0.000 0.0232(6)
O1 0.010(3) 0.007(2) 0.037(3) 0.0014(16) 0.003(3) 0.0048(16)
B1 0.004(4) 0.004(4) 0.034(9) 0.000 0.000 0.002(2)
loop_
_atom_type_symbol
_atom_type_description
_atom_type_scat_dispersion_real
_atom_type_scat_dispersion_imag
_atom_type_scat_source
B B 0.0013 0.0007 'International Tables Vol C Tables 4.2.6.8 and 6.1.1.4'
O O 0.0106 0.0060 'International Tables Vol C Tables 4.2.6.8 and 6.1.1.4'
Cl Cl 0.1484 0.1585 'International Tables Vol C Tables 4.2.6.8 and 6.1.1.4'
Zn Zn 0.2839 1.4301 'International Tables Vol C Tables 4.2.6.8 and 6.1.1.4'
Rb Rb -0.9393 2.9676 'International Tables Vol C Tables 4.2.6.8 and 6.1.1.4'
loop_
_geom_angle_atom_site_label_1
_geom_angle_atom_site_label_2
_geom_angle_atom_site_label_3
_geom_angle
_geom_angle_site_symmetry_1
_geom_angle_site_symmetry_3
Cl3 Rb1 Cl3 180.0 4_556 1_666
Cl3 Rb1 Cl3 98.94(6) 4_556 4_666
Cl3 Rb1 Cl3 81.06(6) 1_666 4_666
Cl3 Rb1 Cl3 81.06(6) 4_556 1_556
Cl3 Rb1 Cl3 98.94(6) 1_666 1_556
Cl3 Rb1 Cl3 180.0 4_666 1_556
Cl3 Rb1 Cl3 98.94(6) 4_556 4_656
Cl3 Rb1 Cl3 81.06(6) 1_666 4_656
Cl3 Rb1 Cl3 98.94(6) 4_666 4_656
Cl3 Rb1 Cl3 81.06(6) 1_556 4_656
Cl3 Rb1 Cl3 81.06(6) 4_556 1_566
Cl3 Rb1 Cl3 98.94(6) 1_666 1_566
Cl3 Rb1 Cl3 81.06(6) 4_666 1_566
Cl3 Rb1 Cl3 98.94(6) 1_556 1_566
Cl3 Rb1 Cl3 180.00(9) 4_656 1_566
Cl3 Rb1 Rb1 40.53(3) 4_556 1_445
Cl3 Rb1 Rb1 139.47(3) 1_666 1_445
Cl3 Rb1 Rb1 139.47(3) 4_666 1_445
Cl3 Rb1 Rb1 40.53(3) 1_556 1_445
Cl3 Rb1 Rb1 90.0 4_656 1_445
Cl3 Rb1 Rb1 90.0 1_566 1_445
Cl3 Rb1 Rb1 139.47(3) 4_556 1_665
Cl3 Rb1 Rb1 40.53(3) 1_666 1_665
Cl3 Rb1 Rb1 40.53(3) 4_666 1_665
Cl3 Rb1 Rb1 139.47(3) 1_556 1_665
Cl3 Rb1 Rb1 90.0 4_656 1_665
Cl3 Rb1 Rb1 90.0 1_566 1_665
Rb1 Rb1 Rb1 180.0 1_445 1_665
Cl3 Rb1 Rb1 40.53(3) 4_556 1_455
Cl3 Rb1 Rb1 139.47(3) 1_666 1_455
Cl3 Rb1 Rb1 90.0 4_666 1_455
Cl3 Rb1 Rb1 90.0 1_556 1_455
Cl3 Rb1 Rb1 139.47(3) 4_656 1_455
Cl3 Rb1 Rb1 40.53(3) 1_566 1_455
Rb1 Rb1 Rb1 60.0 1_445 1_455
Rb1 Rb1 Rb1 120.0 1_665 1_455
Cl3 Rb1 Rb1 90.0 4_556 1_545
Cl3 Rb1 Rb1 90.0 1_666 1_545
Cl3 Rb1 Rb1 139.47(3) 4_666 1_545
Cl3 Rb1 Rb1 40.53(3) 1_556 1_545
Cl3 Rb1 Rb1 40.53(3) 4_656 1_545
Cl3 Rb1 Rb1 139.47(3) 1_566 1_545
Rb1 Rb1 Rb1 60.0 1_445 1_545
Rb1 Rb1 Rb1 120.0 1_665 1_545
Rb1 Rb1 Rb1 120.0 1_455 1_545
Cl3 Rb1 Rb1 139.47(3) 4_556 1_655
Cl3 Rb1 Rb1 40.53(3) 1_666 1_655
Cl3 Rb1 Rb1 90.0 4_666 1_655
Cl3 Rb1 Rb1 90.0 1_556 1_655
Cl3 Rb1 Rb1 40.53(3) 4_656 1_655
Cl3 Rb1 Rb1 139.47(3) 1_566 1_655
Rb1 Rb1 Rb1 120.0 1_445 1_655
Rb1 Rb1 Rb1 60.0 1_665 1_655
Rb1 Rb1 Rb1 180.0 1_455 1_655
Rb1 Rb1 Rb1 60.0 1_545 1_655
Cl3 Rb1 Rb1 90.0 4_556 1_565
Cl3 Rb1 Rb1 90.0 1_666 1_565
Cl3 Rb1 Rb1 40.53(3) 4_666 1_565
Cl3 Rb1 Rb1 139.47(3) 1_556 1_565
Cl3 Rb1 Rb1 139.47(3) 4_656 1_565
Cl3 Rb1 Rb1 40.53(3) 1_566 1_565
Rb1 Rb1 Rb1 120.0 1_445 1_565
Rb1 Rb1 Rb1 60.0 1_665 1_565
Rb1 Rb1 Rb1 60.0 1_455 1_565
Rb1 Rb1 Rb1 180.0 1_545 1_565
Rb1 Rb1 Rb1 120.0 1_655 1_565
O1 Zn2 O1 107.23(6) 3_565 1_545
O1 Zn2 O1 107.23(6) 3_565 2_765
O1 Zn2 O1 107.23(6) 1_545 2_765
O1 Zn2 Cl3 111.63(5) 3_565 .
O1 Zn2 Cl3 111.63(5) 1_545 .
O1 Zn2 Cl3 111.63(5) 2_765 .
Zn2 Cl3 Rb1 118.64(5) . 1_544
Zn2 Cl3 Rb1 118.64(5) . 1_444
Rb1 Cl3 Rb1 98.94(6) 1_544 1_444
Zn2 Cl3 Rb1 118.64(5) . 1_554
Rb1 Cl3 Rb1 98.94(6) 1_544 1_554
Rb1 Cl3 Rb1 98.94(6) 1_444 1_554
B1 O1 Zn2 124.65(16) . 1_565
B1 O1 Zn2 124.65(16) . 10_455
Zn2 O1 Zn2 110.7(3) 1_565 10_455
O1 B1 O1 120.001(2) . 2_665
O1 B1 O1 120.000(6) . 3_565
O1 B1 O1 119.999(2) 2_665 3_565
loop_
_geom_bond_atom_site_label_1
_geom_bond_atom_site_label_2
_geom_bond_distance
_geom_bond_site_symmetry_2
Rb1 Cl3 3.2658(16) 4_556
Rb1 Cl3 3.2657(16) 1_666
Rb1 Cl3 3.2658(16) 4_666
Rb1 Cl3 3.2657(16) 1_556
Rb1 Cl3 3.2658(16) 4_656
Rb1 Cl3 3.2658(16) 1_566
Rb1 Rb1 4.9645(14) 1_445
Rb1 Rb1 4.9645(14) 1_665
Rb1 Rb1 4.9645(14) 1_455
Rb1 Rb1 4.9645(14) 1_545
Rb1 Rb1 4.9645(14) 1_655
Rb1 Rb1 4.9645(14) 1_565
Zn2 O1 1.949(4) 3_565
Zn2 O1 1.949(4) 1_545
Zn2 O1 1.949(4) 2_765
Zn2 Cl3 2.251(3) .
Cl3 Rb1 3.2658(16) 1_544
Cl3 Rb1 3.2658(16) 1_444
Cl3 Rb1 3.2658(16) 1_554
O1 B1 1.374(7) .
O1 Zn2 1.949(4) 1_565
O1 Zn2 1.949(4) 10_455
B1 O1 1.374(7) 2_665
B1 O1 1.374(7) 3_565
