#------------------------------------------------------------------------------
#$Date: 2019-11-24 06:02:49 +0200 (Sun, 24 Nov 2019) $
#$Revision: 236893 $
#$URL: file:///home/coder/svn-repositories/cod/cif/4/34/98/4349846.cif $
#------------------------------------------------------------------------------
#
# This file is available in the Crystallography Open Database (COD),
# http://www.crystallography.net/
#
# All data on this site have been placed in the public domain by the
# contributors.
#
data_4349846
loop_
_publ_author_name
'Gorelova, Liudmila A.'
'Pakhomova, Anna S.'
'Aprilis, Georgios'
'Dubrovinsky, Leonid S.'
'Krivovichev, Sergey V.'
_publ_section_title
;
 Pentacoordinated silicon in the high-pressure modification of datolite,
 CaBSiO4(OH)
;
_journal_issue                   7
_journal_name_full               'Inorganic Chemistry Frontiers'
_journal_page_first              1653
_journal_paper_doi               10.1039/C8QI00257F
_journal_volume                  5
_journal_year                    2018
_chemical_formula_sum            'B Ca H O5 Si'
_chemical_formula_weight         159.99
_chemical_name_systematic        datolite
_space_group_crystal_system      monoclinic
_space_group_IT_number           14
_space_group_name_Hall           '-P 2ybc'
_space_group_name_H-M_alt        'P 1 21/c 1'
_atom_sites_solution_hydrogens   difmap
_audit_creation_method           SHELXL-2014/7
_audit_update_record
;
2018-03-21 deposited with the CCDC.
2018-05-04 downloaded from the CCDC.
;
_cell_angle_alpha                90
_cell_angle_beta                 90.283(13)
_cell_angle_gamma                90
_cell_formula_units_Z            4
_cell_length_a                   4.787(3)
_cell_length_b                   7.5640(3)
_cell_length_c                   9.6012(5)
_cell_measurement_reflns_used    1660
_cell_measurement_temperature    298(2)
_cell_measurement_theta_max      17.429
_cell_measurement_theta_min      2.047
_cell_volume                     347.6(2)
_computing_structure_refinement  'SHELXL-2014/7 (Sheldrick, 2014)'
_diffrn_ambient_temperature      298(2)
_diffrn_measured_fraction_theta_full 0.431
_diffrn_measured_fraction_theta_max 0.262
_diffrn_measurement_device_type
'esperanto-CrysAlisPro-abstract goniometer imported esperanto images'
_diffrn_radiation_wavelength     0.2896
_diffrn_reflns_av_R_equivalents  0.0352
_diffrn_reflns_av_unetI/netI     0.0490
_diffrn_reflns_Laue_measured_fraction_full 0.431
_diffrn_reflns_Laue_measured_fraction_max 0.262
_diffrn_reflns_limit_h_max       4
_diffrn_reflns_limit_h_min       -2
_diffrn_reflns_limit_k_max       14
_diffrn_reflns_limit_k_min       -15
_diffrn_reflns_limit_l_max       18
_diffrn_reflns_limit_l_min       -19
_diffrn_reflns_number            1660
_diffrn_reflns_point_group_measured_fraction_full 0.431
_diffrn_reflns_point_group_measured_fraction_max 0.262
_diffrn_reflns_theta_full        10.007
_diffrn_reflns_theta_max         17.429
_diffrn_reflns_theta_min         2.047
_exptl_absorpt_coefficient_mu    1.041
_exptl_crystal_colour            colorless
_exptl_crystal_density_diffrn    3.056
_exptl_crystal_density_meas      ?
_exptl_crystal_density_method    none
_exptl_crystal_description       isosymmetric
_exptl_crystal_F_000             320
_exptl_crystal_size_max          0.010
_exptl_crystal_size_mid          0.010
_exptl_crystal_size_min          0.005
_refine_diff_density_max         0.446
_refine_diff_density_min         -0.443
_refine_diff_density_rms         0.125
_refine_ls_extinction_coef       0.08(6)
_refine_ls_extinction_expression Fc^*^=kFc[1+0.001xFc^2^\l^3^/sin(2\q)]^-1/4^
_refine_ls_extinction_method     'SHELXL-2014/7 (Sheldrick 2014'
_refine_ls_goodness_of_fit_ref   1.060
_refine_ls_hydrogen_treatment    refall
_refine_ls_matrix_type           full
_refine_ls_number_parameters     78
_refine_ls_number_reflns         842
_refine_ls_number_restraints     1
_refine_ls_restrained_S_all      1.061
_refine_ls_R_factor_all          0.0333
_refine_ls_R_factor_gt           0.0290
_refine_ls_shift/su_max          0.001
_refine_ls_shift/su_mean         0.000
_refine_ls_structure_factor_coef Fsqd
_refine_ls_weighting_details
'w=1/[\s^2^(Fo^2^)+(0.0351P)^2^] where P=(Fo^2^+2Fc^2^)/3'
_refine_ls_weighting_scheme      calc
_refine_ls_wR_factor_gt          0.0772
_refine_ls_wR_factor_ref         0.0795
_reflns_Friedel_coverage         0.000
_reflns_number_gt                737
_reflns_number_total             842
_reflns_threshold_expression     'I > 2\s(I)'
_cod_data_source_file            c8qi00257f2.cif
_cod_data_source_block           shelx
_cod_depositor_comments
;
The following automatic conversions were performed:

data item '_exptl_crystal_density_meas' value 'none' was changed to
'?' -- the value is perceived as not measured.

Automatic conversion script
Id: cif_fix_values 6909 2019-04-08 15:41:33Z antanas 
;
_cod_original_cell_volume        347.68(19)
_cod_original_sg_symbol_H-M      'P 21/c'
_cod_database_code               4349846
_shelx_shelxl_version_number     2014/7
_shelx_space_group_comment
;
The symmetry employed for this shelxl refinement is uniquely defined
by the following loop, which should always be used as a source of
symmetry information in preference to the above space-group names.
They are only intended as comments.
;
_shelx_res_file
;

    shelx.res created by SHELXL-2014/7


TITL Dat_p1_cr3_s1 in P2(1)/c
REM P2(1)/c (#14 in standard setting)
CELL 0.28960   4.787464   7.564012   9.601170  90.0000  90.2825  90.0000
ZERR    4.00   0.002560   0.000328   0.000464   0.0000   0.0130   0.0000
LATT  1
SYMM -x, y+1/2,-z+1/2
SFAC O Si B Ca H
UNIT 20.00 4.00 4.00 4.00 4.00

L.S. 20
ACTA
BOND $H
HTAB
DFIX 0.90 0.02 H O5
TEMP 25.0
FMAP 2
PLAN 250
REM TWIN 1 0 0 0 1 0 0 0 -1
WGHT    0.035100
EXTI    0.084293
FVAR       6.91602
CA1   4    0.007237    0.606493    0.164606    11.00000    0.00605    0.00703 =
         0.00609    0.00003    0.00049    0.00009
SI1   2    0.471681    0.267432    0.084206    11.00000    0.00607    0.00433 =
         0.00385   -0.00012   -0.00013    0.00024
B1    3    0.568345    0.089148   -0.158711    11.00000    0.00643    0.00503 =
         0.00423    0.00011    0.00005    0.00023
O1    1    0.242866    0.403738    0.036369    11.00000    0.00829    0.00721 =
         0.00698   -0.00011   -0.00105    0.00346
O2    1    0.674983    0.198364   -0.041882    11.00000    0.00339    0.00755 =
         0.00424   -0.00181    0.00236   -0.00055
O3    1    0.679414    0.335065    0.211067    11.00000    0.00177    0.00810 =
         0.00370   -0.00180    0.00104    0.00065
O4    1    0.312608    0.089458    0.145433    11.00000    0.00791    0.00450 =
         0.00874    0.00099    0.00226   -0.00025
O5    1    0.259396    0.087844   -0.163222    11.00000    0.00139    0.00937 =
         0.00660    0.00102    0.00095   -0.00062
H     5    0.193298    0.044553   -0.086024    11.00000    0.02147

HKLF 4

REM  Dat_p1_cr3_s1 in P2(1)/c
REM R1 =  0.0290 for     737 Fo > 4sig(Fo)  and  0.0333 for all     842 data
REM     78 parameters refined using      1 restraints

END

WGHT      0.0292      0.0000

REM Instructions for potential hydrogen bonds
EQIV $1 -x+1, -y, -z
HTAB O5 O2_$1
HTAB O5 O4

REM Highest difference peak  0.446,  deepest hole -0.443,  1-sigma level  0.125
Q1    1   0.1228  0.3821  0.1504  11.00000  0.05    0.45
Q2    1   0.0202  0.7007  0.2993  11.00000  0.05    0.43
Q3    1   0.7057  0.2729 -0.1015  11.00000  0.05    0.39
Q4    1   0.2954  0.0411  0.1043  11.00000  0.05    0.38
Q5    1   0.8103  0.3033  0.1983  11.00000  0.05    0.38
Q6    1   0.3806  0.2185  0.2811  11.00000  0.05    0.37
Q7    1   0.0292  0.6350  0.2416  11.00000  0.05    0.37
Q8    1   0.4414 -0.0440 -0.2267  11.00000  0.05    0.37
Q9    1   0.5189  0.2051  0.0165  11.00000  0.05    0.36
Q10   1  -0.0273  0.3844  0.1006  11.00000  0.05    0.36
Q11   1   0.9970  0.2023 -0.0330  11.00000  0.05    0.36
Q12   1   0.1093  0.1231 -0.1161  11.00000  0.05    0.35
Q13   1   0.2210  0.4564 -0.0382  11.00000  0.05    0.34
Q14   1   0.8655  0.1188 -0.0425  11.00000  0.05    0.34
Q15   1   0.4611  0.1187  0.1966  11.00000  0.05    0.34
Q16   1   0.4365  0.3123 -0.1175  11.00000  0.05    0.34
Q17   1   0.8868  0.3680  0.1217  11.00000  0.05    0.34
Q18   1   0.3237  0.0597  0.2003  11.00000  0.05    0.34
Q19   1   0.2770  0.1373 -0.1816  11.00000  0.05    0.33
Q20   1   0.3752  0.0442  0.1807  11.00000  0.05    0.33
Q21   1   0.4538  0.1355  0.0873  11.00000  0.05    0.33
Q22   1   0.5236  0.3365  0.1607  11.00000  0.05    0.33
Q23   1   0.2292  0.5336  0.2325  11.00000  0.05    0.33
Q24   1   0.3319  0.3007  0.0267  11.00000  0.05    0.33
Q25   1   0.4641  0.4569  0.2076  11.00000  0.05    0.32
Q26   1   0.7662  0.3659  0.2585  11.00000  0.05    0.32
Q27   1   0.8703  0.2834 -0.0527  11.00000  0.05    0.32
Q28   1  -0.0497  0.5621  0.2187  11.00000  0.05    0.31
Q29   1   0.1401  0.3179 -0.0288  11.00000  0.05    0.31
Q30   1   0.6565  0.2842  0.1507  11.00000  0.05    0.31
Q31   1   0.2288 -0.1164 -0.0973  11.00000  0.05    0.30
Q32   1   0.0923  0.0360 -0.1687  11.00000  0.05    0.30
Q33   1   0.0237 -0.0166 -0.0911  11.00000  0.05    0.30
Q34   1   0.6160  0.3771 -0.0204  11.00000  0.05    0.30
Q35   1  -0.1586  0.7068  0.2499  11.00000  0.05    0.30
Q36   1   0.8790  0.2054 -0.0896  11.00000  0.05    0.30
Q37   1   0.2305  0.1739 -0.1065  11.00000  0.05    0.29
Q38   1   0.7950  0.1577 -0.1306  11.00000  0.05    0.29
Q39   1   0.8118  0.2002  0.1389  11.00000  0.05    0.29
Q40   1   0.3048  0.1726  0.1004  11.00000  0.05    0.29
Q41   1   0.0615  0.1401  0.1213  11.00000  0.05    0.29
Q42   1   0.1493  0.5422 -0.0707  11.00000  0.05    0.28
Q43   1   0.3187  0.3550  0.0723  11.00000  0.05    0.28
Q44   1   0.3766  0.3829  0.1811  11.00000  0.05    0.28
Q45   1   0.4556  0.5454  0.0495  11.00000  0.05    0.28
Q46   1   0.5247  0.1100 -0.2490  11.00000  0.05    0.28
Q47   1   0.0927  0.2967  0.1090  11.00000  0.05    0.27
Q48   1   0.4206  0.4567 -0.1154  11.00000  0.05    0.27
Q49   1   0.1866  0.6428  0.0816  11.00000  0.05    0.27
Q50   1   0.1716  0.4950  0.1059  11.00000  0.05    0.26
Q51   1   0.3353  0.1220 -0.0824  11.00000  0.05    0.26
Q52   1   0.6471  0.2021  0.1995  11.00000  0.05    0.26
Q53   1   0.1132 -0.0349 -0.1240  11.00000  0.05    0.26
Q54   1   0.1578  0.2865  0.0931  11.00000  0.05    0.26
Q55   1  -0.0081  0.5292  0.0890  11.00000  0.05    0.26
Q56   1   0.4749  0.2019 -0.0666  11.00000  0.05    0.26
Q57   1   0.0382  0.0374  0.1906  11.00000  0.05    0.25
Q58   1   0.0261  0.2040 -0.1513  11.00000  0.05    0.25
Q59   1   0.6014  0.3428  0.2102  11.00000  0.05    0.24
Q60   1   0.9073  0.3140  0.2829  11.00000  0.05    0.24
Q61   1   0.5275  0.0529  0.1297  11.00000  0.05    0.24
Q62   1   0.2873  0.4460  0.0423  11.00000  0.05    0.24
Q63   1   0.3950  0.4727  0.1175  11.00000  0.05    0.24
Q64   1   0.2660  0.3764 -0.0039  11.00000  0.05    0.24
Q65   1  -0.0083  0.4456  0.1296  11.00000  0.05    0.24
Q66   1   0.4769  0.3217  0.2202  11.00000  0.05    0.23
Q67   1   0.3671  0.4731  0.0187  11.00000  0.05    0.23
Q68   1   0.5806  0.2649 -0.1680  11.00000  0.05    0.23
Q69   1   0.1924 -0.0300 -0.1383  11.00000  0.05    0.23
Q70   1   0.5548  0.1950 -0.2111  11.00000  0.05    0.23
Q71   1   0.5880  0.0338 -0.0024  11.00000  0.05    0.23
Q72   1  -0.0717  0.7569  0.2678  11.00000  0.05    0.22
Q73   1   0.6928  0.1866  0.2908  11.00000  0.05    0.22
Q74   1   0.4216  0.1206  0.3343  11.00000  0.05    0.22
Q75   1   0.0054  0.1264  0.0122  11.00000  0.05    0.22
Q76   1   0.1963  0.0564 -0.1970  11.00000  0.05    0.22
Q77   1   0.4439  0.1953  0.1597  11.00000  0.05    0.22
Q78   1   0.1278  0.3510  0.0425  11.00000  0.05    0.22
Q79   1  -0.2489  0.5361  0.1692  11.00000  0.05    0.22
Q80   1   0.3237  0.0265 -0.0187  11.00000  0.05    0.22
Q81   1  -0.1160  0.3930  0.0239  11.00000  0.05    0.21
Q82   1   0.0573  0.1020 -0.1996  11.00000  0.05    0.21
Q83   1   0.2868  0.0605 -0.1280  11.00000  0.05    0.21
Q84   1   0.0565 -0.1099 -0.1611  11.00000  0.05    0.21
Q85   1   0.2226  0.4717  0.1789  11.00000  0.05    0.21
Q86   1   0.4630  0.1183 -0.0129  11.00000  0.05    0.21
Q87   1   0.6199  0.4616  0.1492  11.00000  0.05    0.21
Q88   1  -0.2172  0.6265  0.2193  11.00000  0.05    0.21
Q89   1   0.2867  0.6077  0.2572  11.00000  0.05    0.20
Q90   1   0.2186  0.5332  0.0097  11.00000  0.05    0.20
Q91   1   0.4662  0.2325 -0.1788  11.00000  0.05    0.20
Q92   1   0.1700  0.4223  0.0714  11.00000  0.05    0.20
Q93   1   0.0844  0.0609  0.0575  11.00000  0.05    0.19
Q94   1   0.3764  0.3968 -0.0309  11.00000  0.05    0.19
Q95   1   0.4954  0.3723 -0.0800  11.00000  0.05    0.18
Q96   1   0.2435  0.2253 -0.2192  11.00000  0.05    0.18
Q97   1   0.6501  0.1587 -0.0689  11.00000  0.05    0.18
Q98   1   0.2577  0.2160  0.0041  11.00000  0.05    0.18
Q99   1   0.5000  0.5000  0.0000  10.50000  0.05    0.18
Q100  1  -0.2237  0.6140  0.0996  11.00000  0.05    0.17
Q101  1   0.3172 -0.0025 -0.0791  11.00000  0.05    0.17
Q102  1   0.7911  0.4368  0.2036  11.00000  0.05    0.16
Q103  1   0.9041  0.4546  0.2784  11.00000  0.05    0.16
Q104  1   0.6626  0.3915  0.0885  11.00000  0.05    0.15
Q105  1   0.3190  0.0001 -0.1490  11.00000  0.05    0.14
Q106  1  -0.0966  0.4973  0.1561  11.00000  0.05    0.14
Q107  1   0.3788  0.3161  0.1185  11.00000  0.05    0.13
Q108  1   0.6861  0.4826  0.2207  11.00000  0.05    0.13
Q109  1   0.2975  0.2589 -0.0816  11.00000  0.05    0.13
Q110  1  -0.0524  0.0643 -0.1076  11.00000  0.05    0.12
Q111  1   0.6669  0.2004  0.0839  11.00000  0.05    0.12
Q112  1   0.6389  0.2821  0.0337  11.00000  0.05    0.12
Q113  1   0.1239 -0.0438  0.0896  11.00000  0.05    0.11
Q114  1   0.6966  0.2663  0.0227  11.00000  0.05    0.11
Q115  1   0.1205  0.2023  0.0491  11.00000  0.05    0.11
Q116  1   0.0650 -0.0415  0.0091  11.00000  0.05    0.11
Q117  1   0.2764  0.6206  0.1572  11.00000  0.05    0.11
Q118  1   0.4089  0.5012 -0.0577  11.00000  0.05    0.11
Q119  1   0.2339 -0.0503 -0.0457  11.00000  0.05    0.11
Q120  1   0.6879  0.3424 -0.1484  11.00000  0.05    0.11
Q121  1   0.1497 -0.0463 -0.0316  11.00000  0.05    0.10
Q122  1  -0.0032  0.2362  0.0870  11.00000  0.05    0.10
Q123  1   0.0644  0.2193  0.0693  11.00000  0.05    0.10
Q124  1   0.5793  0.0278 -0.2339  11.00000  0.05    0.09
Q125  1   0.8318  0.2779  0.0872  11.00000  0.05    0.09
Q126  1   0.6799  0.0372 -0.1435  11.00000  0.05    0.08
Q127  1   0.0322  0.0542 -0.0288  11.00000  0.05    0.07
Q128  1   0.3300  0.5761 -0.0356  11.00000  0.05    0.05
;
_shelx_res_checksum              68256
_shelx_hkl_file
;
   0   0  -3 19.2131 19.2960   1
   0   0   3 1.73626 24.2334   1
   0   0   4 140302. 4234.17   1
   0   0  -4 129032. 3988.29   1
   0   0  -5-32.6766 34.8913   1
   0   0   5 21.7314 83.3356   1
   0   0   6 94942.4 3527.40   1
   0   0  -6 91931.6 2942.96   1
   0   0   7 407.402 220.667   1
   0   0  -7 4.86208 34.0918   1
   0   0  -8 68038.9 2322.88   1
   0   0   8 76651.1 3264.92   1
   0   0   9 41.0553 207.955   1
   0   0  -9-75.9465 68.5548   1
   0   0  10 25788.1 2006.74   1
   0   0 -10 33910.0 1419.13   1
   0   0 -11-25.7740 92.6655   1
   0   0 -12 56396.7 2177.52   1
   0   0 -13 29.8884 61.1179   1
   0   0 -14 66.6856 70.9694   1
   0   0 -15-83.1533 70.1047   1
   0   0 -16 64877.4 2483.33   1
   0   0 -17-50.0598 95.3666   1
   0   1  -2 221.573 56.5173   1
   0  -1   2 279.806 58.3802   1
   0   1  -3 1448.32 152.551   1
   0  -1   3 1724.04 182.806   1
   0  -1   4 75239.2 2635.88   1
   0   1  -4 79397.5 2520.68   1
   0  -1  -5 24514.1 865.896   1
   0   1  -5 24051.2 982.591   1
   0  -1   5 25588.6 1174.90   1
   0   1  -6 923.529 156.533   1
   0  -1   6 917.835 216.410   1
   0  -1  -6 1313.67 149.941   1
   0  -1  -7 5811.84 351.556   1
   0   1  -7 6460.75 443.148   1
   0  -1   7 6177.20 621.303   1
   0   1  -8 159701. 5062.03   1
   0  -1  -8 162489. 4856.76   1
   0  -1   8 152973. 5739.41   1
   0  -1  -9 2821.56 260.250   1
   0   1  -9 2600.77 325.851   1
   0  -1   9 2617.58 549.020   1
   0  -1  10 1549.82 481.631   1
   0  -1 -10 1073.01 175.114   1
   0   1 -10 1217.91 239.906   1
   0  -1  11 3442.96 757.599   1
   0  -1 -11 3455.88 344.656   1
   0   1 -11 3294.56 403.586   1
   0  -1  12 569.922 510.666   1
   0  -1 -12 400.680 117.855   1
   0   1 -12 610.465 178.175   1
   0  -1 -13-76.9720 95.4682   1
   0   1 -13 4.68608 73.8805   1
   0  -1 -14 222.288 97.3547   1
   0   1 -14 343.161 161.117   1
   0   1 -15 6487.59 607.951   1
   0  -1 -15 6347.68 500.503   1
   0  -1 -16 35368.7 1511.03   1
   0   1 -16 35252.6 1657.14   1
   0   1 -17 192.799 146.128   1
   0  -1 -17 204.768 96.7952   1
   0   1 -18-89.6176 129.165   1
   0   2   0 22116.0 802.542   1
   0  -2   0 21099.9 784.957   1
   0  -2   1 654.610 98.5076   1
   0   2  -1 506.617 96.8706   1
   0  -2   2 54834.3 1827.16   1
   0   2  -2 53167.6 1816.03   1
   0  -2   3 4869.00 357.808   1
   0   2  -3 5421.76 344.279   1
   0   2  -4 8374.29 493.484   1
   0  -2   4 9315.37 573.859   1
   0   2  -5 216635. 6316.63   1
   0  -2   5 192352. 6510.79   1
   0  -2   6 130368. 4600.92   1
   0   2  -6 136423. 4289.93   1
   0  -2   7 440.390 187.233   1
   0  -2  -7 428.853 69.5781   1
   0   2  -7 440.040 142.874   1
   0   2  -8 8793.29 631.175   1
   0  -2   8 8878.76 825.298   1
   0  -2  -8 9043.22 411.389   1
   0   2  -9 1407.02 255.758   1
   0  -2   9 1474.36 369.952   1
   0  -2  -9 1524.65 175.077   1
   0   2 -10 22545.1 1225.49   1
   0  -2 -10 22414.2 940.199   1
   0  -2  10 22056.2 1713.47   1
   0   2 -11 28691.1 1487.03   1
   0  -2  11 28475.5 2254.90   1
   0  -2 -11 31188.1 1192.89   1
   0  -2 -12 66.1691 45.2381   1
   0   2 -12 133.026 137.177   1
   0  -2  12-125.851 413.859   1
   0  -2 -13 7743.40 495.015   1
   0  -2  13 7288.24 1215.78   1
   0  -2 -14 2132.32 238.627   1
   0   2 -14 1784.01 319.144   1
   0  -2  14 1563.01 754.209   1
   0  -2 -15 18.9046 60.4014   1
   0   2 -15-209.712 155.001   1
   0  -2 -16 241.222 104.678   1
   0   2 -16 358.105 160.795   1
   0   2 -17 285.713 157.953   1
   0   2 -18 6485.62 657.695   1
   0   2 -19 5724.27 633.702   1
   0  -3   0-8.94229 20.8119   1
   0   3   0 45.6918 28.5666   1
   0   3   1 7725.93 384.577   1
   0  -3   1 8061.22 455.050   1
   0   3  -1 7599.17 477.373   1
   0  -3  -1 7370.53 399.456   1
   0  -3  -2 169879. 5162.43   1
   0   3  -2 174861. 5392.07   1
   0   3   2 171164. 5139.50   1
   0  -3   2 185258. 5362.71   1
   0  -3   3 67740.4 2296.43   1
   0   3  -3 61700.1 2285.12   1
   0   3  -4 70253.9 2669.21   1
   0  -3   4 84316.4 2714.11   1
   0   3  -5 4520.79 436.765   1
   0  -3   5 5234.68 488.596   1
   0  -3   6 12498.2 887.637   1
   0   3  -6 13879.8 831.399   1
   0   3  -7 4379.15 455.328   1
   0  -3   7 5162.33 587.882   1
   0  -3   8 101.588 113.582   1
   0   3  -8 88.8009 135.994   1
   0  -3   9 75.7891 151.534   1
   0  -3  -9 5.60348 23.7885   1
   0   3  -9 15.4460 94.0545   1
   0   3 -10 124518. 4584.50   1
   0  -3 -10 130560. 3952.20   1
   0  -3 -11 5898.26 332.586   1
   0   3 -11 5843.03 610.340   1
   0  -3  11 6443.47 932.586   1
   0  -3 -12 411.388 80.6670   1
   0   3 -12 229.605 110.400   1
   0   3 -13 6970.04 689.988   1
   0  -3  13 6546.09 1204.31   1
   0  -3 -13 7121.18 407.998   1
   0   3 -14 72789.8 3035.40   1
   0  -3  14 81533.9 4743.06   1
   0  -3 -14 73774.0 2428.89   1
   0  -3  15 1137.36 683.801   1
   0   3 -15 728.933 243.396   1
   0  -3 -15 493.903 109.779   1
   0   3 -16 1590.43 335.422   1
   0  -3  16 1092.44 581.342   1
   0   3 -17 921.441 271.603   1
   0   3 -18 172.669 148.390   1
   0   3 -19 743.467 238.293   1
   0  -4   0 165459. 5036.92   1
   0   4   0 162815. 5076.87   1
   0   4   1 60531.6 1984.44   1
   0  -4  -1 58582.2 1969.37   1
   0  -4   1 56993.7 2092.18   1
   0   4  -1 62033.8 2148.37   1
   0   4   2 94653.4 2926.08   1
   0  -4  -2 94526.6 2935.91   1
   0  -4   2 90604.3 3129.35   1
   0   4  -2 92028.9 3193.81   1
   0   4  -3 6103.63 510.063   1
   0  -4   3 6183.43 493.756   1
   0   4   3 6280.77 343.208   1
   0  -4  -3 5827.16 342.097   1
   0   4  -4 6877.48 561.193   1
   0  -4   4 7405.63 572.029   1
   0  -4  -4 6823.31 347.462   1
   0  -4   5 465.767 168.974   1
   0   4  -5 280.372 129.981   1
   0   4  -6 238176. 7783.71   1
   0  -4   6 255218. 7987.16   1
   0  -4   7 201.070 130.757   1
   0   4  -7 143.571 104.846   1
   0  -4   8 394.651 203.650   1
   0   4  -8 214.058 78.3997   1
   0  -4   9 2827.11 555.593   1
   0   4  -9 3658.02 516.808   1
   0  -4  10 47615.3 2688.88   1
   0   4 -10 49180.5 2207.90   1
   0  -4  11 603.186 324.045   1
   0   4 -11 488.688 176.633   1
   0   4 -12 1026.67 248.309   1
   0  -4  12 853.361 411.623   1
   0  -4 -13 341.994 61.2659   1
   0  -4  13 141.318 246.545   1
   0   4 -13 266.554 135.355   1
   0  -4 -14 3347.83 232.425   1
   0   4 -14 2965.98 467.468   1
   0  -4  14 3153.68 893.992   1
   0  -4  15 2783.58 1094.53   1
   0   4 -15 2690.13 447.124   1
   0  -4  16 6881.72 1295.76   1
   0   4 -16 7936.75 777.150   1
   0  -4  17 1154.28 801.658   1
   0   4 -17 616.560 243.873   1
   0   5   0-50.6347 63.7813   1
   0  -5   0-44.4178 59.1260   1
   0  -5   1 8914.40 606.087   1
   0   5  -1 9302.93 621.844   1
   0   5   1 9828.84 546.342   1
   0  -5  -1 9296.52 554.107   1
   0   5  -2 22357.2 1133.07   1
   0  -5  -2 23241.0 953.062   1
   0  -5   2 22050.6 1107.74   1
   0   5   2 23245.5 949.890   1
   0  -5  -3 8208.14 445.591   1
   0   5  -3 7955.27 631.070   1
   0  -5   3 8335.45 625.942   1
   0   5   3 8232.60 466.347   1
   0  -5  -4 35259.6 1219.70   1
   0   5  -4 32871.5 1590.21   1
   0  -5   4 33911.6 1569.97   1
   0  -5  -5 30682.4 1084.80   1
   0   5  -5 31695.4 1560.69   1
   0  -5   5 34140.0 1581.04   1
   0   5  -6 4585.30 513.337   1
   0  -5  -6 3853.00 227.919   1
   0  -5   6 4608.93 540.033   1
   0   5  -7 6859.45 672.658   1
   0  -5   7 6238.69 752.634   1
   0   5  -8 1823.79 347.898   1
   0  -5   8 1699.71 418.458   1
   0   5  -9 29250.6 1606.07   1
   0  -5   9 30420.4 1974.83   1
   0   5 -10 12359.0 981.137   1
   0  -5  10 12409.8 1259.00   1
   0  -5  11 1629.06 516.715   1
   0   5 -11 1258.72 315.107   1
   0   5 -12-21.8175 143.855   1
   0  -5  12 317.824 278.921   1
   0   5 -13 7787.41 820.400   1
   0  -5  13 6263.09 1168.41   1
   0   5 -14 6543.65 749.678   1
   0  -5  14 6430.01 1376.99   1
   0  -5  15 19836.6 2502.19   1
   0   5 -15 17200.2 1272.26   1
   0  -5  16 739.717 732.266   1
   0   5 -16 684.180 263.623   1
   0  -5  17 3751.95 1210.45   1
   0  -6   0 202502. 6361.30   1
   0   6   0 203169. 6326.11   1
   0  -6  -1 46373.8 1848.13   1
   0   6  -1 45659.8 1914.16   1
   0   6   1 51690.7 1837.82   1
   0  -6   1 49253.8 1961.67   1
   0   6   2 754.384 147.412   1
   0   6  -2 844.745 202.188   1
   0  -6  -2 765.985 153.752   1
   0  -6   2 655.435 186.953   1
   0   6   3 23459.8 993.646   1
   0   6  -3 23584.4 1250.90   1
   0  -6   3 22829.9 1222.91   1
   0  -6  -3 21730.6 995.382   1
   0   6  -4 78432.2 3067.57   1
   0  -6  -4 78401.5 2644.66   1
   0  -6  -5 4169.97 299.321   1
   0   6  -5 4306.46 508.388   1
   0  -6   5 4762.01 539.618   1
   0  -6  -6 21971.5 853.591   1
   0   6  -6 21304.5 1293.24   1
   0  -6   6 22645.2 1389.99   1
   0  -6  -7 7435.39 381.399   1
   0   6  -7 7325.11 702.198   1
   0  -6   7 5829.35 773.891   1
   0   6  -8 5886.62 664.053   1
   0  -6   8 6585.81 822.024   1
   0  -6   9 2922.08 595.884   1
   0   6  -9 2480.42 427.184   1
   0   6 -10 22498.3 1418.15   1
   0  -6  10 20132.8 1717.47   1
   0  -6  11 19873.0 1773.61   1
   0   6 -11 19500.0 1371.19   1
   0  -6  12 67088.6 3774.04   1
   0   6 -12 57057.0 2773.95   1
   0  -6  13 9163.21 1345.70   1
   0   6 -13 8660.23 863.418   1
   0  -6  14 1475.12 697.782   1
   0   6 -14 387.364 204.810   1
   0  -6  15 2871.54 1089.19   1
   0  -7   0-31.0821 90.1898   1
   0   7   0 70.2023 70.3737   1
   0  -7   1 285.849 153.110   1
   0   7   1 145.117 96.1871   1
   0  -7  -1 163.746 107.306   1
   0   7  -1 206.208 114.736   1
   0  -7   2 5677.51 572.140   1
   0   7  -2 6225.10 580.831   1
   0  -7  -2 5530.37 481.631   1
   0   7   2 5370.15 459.492   1
   0  -7  -3 12616.0 738.487   1
   0  -7   3 13424.9 918.361   1
   0   7  -3 13546.8 912.755   1
   0   7   3 13118.8 730.010   1
   0  -7   4 167069. 5681.84   1
   0   7  -4 160382. 5627.36   1
   0  -7  -4 164057. 5175.48   1
   0   7   4 167203. 5184.89   1
   0  -7   5 18781.1 1268.19   1
   0  -7  -5 18053.0 852.380   1
   0   7  -5 20529.2 1222.26   1
   0  -7  -6 1003.90 159.429   1
   0   7  -6 1358.87 315.436   1
   0  -7   6 1130.76 329.153   1
   0  -7  -7 12419.9 650.897   1
   0   7  -7 12325.5 1017.38   1
   0  -7   7 10890.8 1119.26   1
   0   7  -8 27297.9 1579.77   1
   0  -7  -8 24530.5 1055.14   1
   0  -7   8 26630.9 1902.74   1
   0  -7   9 3112.95 655.776   1
   0   7  -9 3169.44 516.873   1
   0   7 -10 11259.7 1023.43   1
   0  -7  10 10795.9 1286.67   1
   0  -7  11 10079.6 1296.01   1
   0   7 -11 9199.54 939.403   1
   0  -7  12 2148.69 722.169   1
   0   7 -12 1389.98 377.580   1
   0  -7  13 255.579 341.603   1
   0  -7  14 7561.90 1615.98   1
   0   8   0 14460.1 869.082   1
   0  -8   0 13059.8 902.655   1
   0   8   1 5696.59 498.857   1
   0   8  -1 5740.43 522.470   1
   0  -8  -1 5370.99 518.239   1
   0  -8   1 5373.50 562.883   1
   0   8   2 119.776 118.078   1
   0  -8  -2 63.4880 74.6521   1
   0  -8   2-19.7995 154.667   1
   0   8  -2 67.1424 74.2237   1
   0   8  -3 31270.5 1592.03   1
   0   8   3 30222.4 1374.78   1
   0  -8   3 32572.7 1700.94   1
   0  -8  -3 31578.5 1419.54   1
   0  -8   4 14331.9 1093.58   1
   0  -8  -4 13790.1 779.246   1
   0   8   4 12418.5 753.427   1
   0   8  -4 12888.6 981.357   1
   0   8  -5 41529.7 2081.95   1
   0  -8  -5 44517.6 1716.53   1
   0  -8   5 42875.5 2270.37   1
   0  -8  -6 12.8302 50.7560   1
   0   8  -6 140.488 174.155   1
   0  -8   6-80.8343 168.008   1
   0   8  -7 3305.61 505.713   1
   0  -8  -7 2911.32 340.345   1
   0  -8   7 3576.86 675.016   1
   0  -8   8 2934.92 619.036   1
   0   8  -8 2599.51 484.112   1
   0  -8  -8 2641.82 305.631   1
   0  -8   9 1802.02 475.046   1
   0  -8  -9 2126.47 323.571   1
   0   8  -9 2465.61 455.063   1
   0  -8  10 115.694 242.577   1
   0   8 -10 244.437 132.317   1
   0  -8  11 365.415 262.176   1
   0   8 -11 743.388 305.111   1
   0  -8  12 29344.5 2539.58   1
   0  -9   0-28.8220 92.0488   1
   0   9   0 135.346 76.2075   1
   0   9  -1 29193.7 1479.87   1
   0  -9  -1 29946.8 1510.68   1
   0   9   1 28091.2 1419.47   1
   0  -9   1 29088.8 1607.77   1
   0  -9  -2 19854.0 1105.34   1
   0   9   2 17936.9 1027.50   1
   0   9  -2 16983.8 1099.74   1
   0  -9   2 17054.8 1228.57   1
   0   9   3 8054.70 618.047   1
   0   9  -3 8044.49 725.276   1
   0  -9   3 7530.32 797.433   1
   0  -9  -3 7683.91 645.549   1
   0   9  -4 133.305 164.295   1
   0  -9  -4-32.5429 79.1084   1
   0  -9   4-4.31486 186.484   1
   0   9   4 66.7779 75.5595   1
   0  -9  -5 2603.72 364.012   1
   0  -9   5 2573.01 553.607   1
   0   9  -5 2390.27 406.856   1
   0  -9   6 99.1577 195.870   1
   0   9  -6 455.890 189.802   1
   0  -9  -6 485.794 165.217   1
   0  -9  -7 723.703 220.767   1
   0   9  -7 744.292 299.595   1
   0  -9   7 371.385 176.570   1
   0  -9  -8 333.503 126.159   1
   0  -9   8 157.396 169.867   1
   0   9  -8 158.820 156.454   1
   0  -9  -9 17286.2 1153.86   1
   0   9  -9 17322.7 1356.48   1
   0  -9   9 18839.9 1856.56   1
   0  -9  10 12062.6 1521.81   1
   0  10   0 52073.4 2286.34   1
   0 -10   0 54580.8 2502.32   1
   0 -10   1 3195.80 540.032   1
   0 -10  -1 2625.04 438.264   1
   0  10  -1 2680.66 413.567   1
   0  10   1 2521.07 386.987   1
   0 -10  -2 1585.87 327.124   1
   0  10  -2 1153.35 280.708   1
   0 -10   2 1388.70 346.699   1
   0  10   2 1569.18 304.530   1
   0 -10   3 14151.1 1256.58   1
   0  10  -3 14399.4 1040.84   1
   0 -10  -3 14885.2 1044.98   1
   0  10   3 12959.2 897.428   1
   0 -10  -4 5972.61 617.045   1
   0 -10   4 4638.21 713.690   1
   0  10   4 5732.30 563.052   1
   0  10  -4 5299.31 635.689   1
   0  10  -5 7246.76 769.945   1
   0 -10  -5 7414.59 693.706   1
   0 -10   5 7806.91 1026.41   1
   0 -10   6 60922.8 3415.47   1
   0  10  -6 59284.4 2779.92   1
   0 -10  -6 65299.2 2677.78   1
   0 -10  -7 15955.9 1084.76   1
   0  10  -7 16641.9 1287.35   1
   0 -10   7 19256.9 1798.15   1
   0 -10   8 1923.48 656.219   1
   0 -10  -8 2043.96 368.906   1
   0 -10  -9 4588.05 671.535   1
   0  11   0 31.5847 116.129   1
   0 -11   0-48.5528 128.306   1
   0  11  -1 6417.20 675.292   1
   0 -11  -1 5727.67 755.484   1
   0  11   1 6582.92 661.425   1
   0 -11   1 5450.79 780.948   1
   0 -11   2 23134.4 1768.94   1
   0  11  -2 23087.8 1441.72   1
   0 -11  -2 23180.7 1562.98   1
   0  11   2 24598.1 1372.36   1
   0  11   3 1198.93 285.158   1
   0  11  -3 1059.21 286.605   1
   0 -11  -3 1352.61 380.062   1
   0 -11   3 1244.10 457.171   1
   0  11   4 4379.95 516.865   1
   0  11  -4 4825.52 624.929   1
   0 -11  -4 5350.54 663.827   1
   0 -11   4 5017.66 818.825   1
   0  11  -5 10531.4 986.674   1
   0 -11   5 12392.1 1321.18   1
   0 -11  -5 12546.2 1045.49   1
   0 -11  -6 1428.30 348.547   1
   0 -11   6 1761.45 636.943   1
   0 -11  -7 684.116 257.000   1
   0 -11  -8 2649.56 439.474   1
   0 -12   0 10642.1 1162.58   1
   0  12   0 11811.8 971.956   1
   0  12   1 18842.8 1238.30   1
   0 -12   1 18813.4 1648.89   1
   0  12  -1 18183.5 1298.38   1
   0 -12  -1 18453.1 1559.29   1
   0 -12   2 1277.38 447.301   1
   0 -12  -2 1398.75 423.110   1
   0  12   2 1423.74 316.045   1
   0  12  -2 1243.20 330.855   1
   0  12   3 3156.28 469.189   1
   0 -12   3 3941.83 802.417   1
   0  12  -3 2926.45 503.577   1
   0 -12  -3 3740.62 639.820   1
   0 -12   4 1685.45 605.188   1
   0 -12  -4 1738.88 393.647   1
   0 -12  -5 12384.8 1119.56   1
   0 -12  -6 344.982 196.444   1
   0 -12  -7 101.745 222.043   1
   0 -13   0-61.0028 192.850   1
   0  13   0-136.603 132.664   1
   0 -13   1 791.516 317.039   1
   0 -13  -1 731.501 397.477   1
   0  13  -1 507.037 213.872   1
   0  13   1 814.977 261.352   1
   0  13   2 1157.90 305.287   1
   0 -13  -2 1377.52 392.176   1
   0 -13   2 1289.96 491.903   1
   0  13   3 15827.9 1163.73   1
   0 -13  -3 17174.8 1487.66   1
   0 -13  -4 9542.83 1088.48   1
   0 -13  -5 6647.99 881.261   1
   0 -13  -6 2766.85 552.601   1
   0 -14   0 13522.7 1598.68   1
   0 -14  -1 3494.38 714.160   1
   0  14   1 2956.81 513.936   1
   0  14   2 1659.22 360.690   1
   0 -14  -2 1912.27 512.571   1
   0 -14  -3 1017.46 417.211   1
   0 -14  -4 2068.58 611.439   1
   0 -14  -5 947.295 342.267   1
   0 -15  -2 2421.51 684.247   1
   0 -15  -3 769.863 470.547   1
   0 -15  -4 43.5967 288.920   1
   1   0 -18 14417.4 1051.21   1
   1   0 -17-89.2201 127.458   1
   1   0 -16 44.3101 79.9468   1
   1   0 -15 63.3227 91.0184   1
   1   0 -14 12704.8 841.491   1
   1   0 -13-26.1379 92.0791   1
   1   0 -12 2103.29 336.349   1
   1   0 -11 34.8914 92.2618   1
   1   0 -10 10302.4 862.508   1
   1   0  -9-103.545 157.405   1
   1   0   4 184624. 5515.85   1
   1   0   5 41.9445 28.8584   1
   1   0   6 145218. 4451.03   1
   1   0   7 51.1412 71.2885   1
  -1   0  -8 26277.6 1129.98   1
   1   0   8 27869.0 1091.55   1
  -1   0  -9-116.164 80.1607   1
   1   0   9 41.1195 60.2924   1
  -1   0 -10 39159.7 1571.80   1
   1   0  10 39172.7 1579.85   1
  -1   0 -11-1.61769 61.4521   1
   1   0  11 2.40636 87.8373   1
   1   0  12 3912.36 515.481   1
  -1   0 -12 4140.78 413.434   1
  -1   0 -13-45.6254 74.5675   1
   1   0  13-166.620 232.756   1
   1   0  14 9090.53 1088.27   1
  -1   0 -14 11991.6 775.689   1
  -1   0 -15-467.779 311.605   1
   1   0  15 600.206 448.685   1
  -1   0 -16 560.169 153.520   1
   1   0  16 610.470 250.553   1
   1   1 -18 1627.82 339.814   1
   1   1 -17 224.311 161.707   1
   1  -1 -17-10.0246 87.4683   1
   1  -1 -16 1270.90 227.423   1
   1   1 -16 1452.10 303.789   1
   1  -1 -15 22776.8 1190.86   1
   1   1 -15 24247.3 1286.96   1
   1   1 -14 25471.5 1401.21   1
   1  -1 -14 28439.9 1317.09   1
   1  -1 -13 29134.3 1347.24   1
   1   1 -13 28246.9 1441.58   1
   1  -1 -12 5264.71 541.011   1
   1   1 -12 5809.33 550.124   1
   1   1 -11-84.5784 134.471   1
   1  -1 -11 45.8118 108.972   1
   1  -1 -10 52910.0 2491.25   1
   1   1 -10 54115.3 2412.09   1
   1   1  -9 44667.0 2142.49   1
   1   1  -8 2755.89 473.578   1
   1   1  -7 76790.7 3475.10   1
   1  -1   4 12611.8 610.898   1
   1  -1   5 5844.04 374.859   1
  -1   1  -5 5588.12 410.888   1
   1   1   5 6100.51 317.198   1
  -1   1  -6 6037.56 445.282   1
   1  -1   6 5672.50 427.281   1
   1   1   6 6244.64 327.067   1
   1   1   7 16577.8 710.882   1
   1  -1   7 15213.0 839.273   1
  -1   1  -7 15968.3 820.183   1
   1  -1   8 13246.3 747.968   1
   1   1   8 14028.8 628.995   1
  -1   1  -8 14481.6 780.224   1
   1  -1   9 47862.3 1894.46   1
   1   1   9 49248.5 1732.01   1
  -1   1  -9 48093.5 1877.97   1
  -1   1 -10 31555.3 1372.75   1
   1  -1  10 31801.9 1397.61   1
  -1   1 -11 1431.32 241.527   1
   1   1  11 1562.65 269.922   1
   1  -1  11 1579.96 272.068   1
   1   1  12 7816.93 765.412   1
  -1   1 -12 8712.08 645.158   1
   1  -1  12 7929.74 750.904   1
   1   1  13 1172.77 407.064   1
   1  -1  13 462.914 211.262   1
   1  -1  14 33483.0 1993.36   1
   1   1  14 30947.2 2175.83   1
  -1   1 -14 28490.0 1447.51   1
  -1   1 -15 9199.60 706.088   1
   1  -1  15 8377.22 1106.54   1
  -1   1 -16 1624.01 316.936   1
   1  -1  16 346.575 272.471   1
  -1   1 -17 1700.70 314.927   1
  -1   1 -18 80.1481 135.413   1
   1   2 -19 118.858 149.806   1
   1   2 -18 1440.81 366.927   1
   1   2 -17 13299.6 1072.67   1
   1  -2 -16 885.864 181.383   1
   1   2 -16 874.770 245.325   1
   1   2 -15 210.215 143.652   1
   1  -2 -15 92.1870 90.4115   1
   1   2 -14 262.647 157.962   1
   1  -2 -14 179.236 158.101   1
   1   2 -13 1268.28 243.957   1
   1  -2 -13 1462.14 241.284   1
   1   2 -12 10760.0 835.239   1
   1  -2 -12 11812.2 822.868   1
   1  -2 -11 41898.7 2001.88   1
   1   2 -11 42099.4 1917.62   1
   1   2 -10 13656.6 983.134   1
   1   2  -9 1333.89 306.836   1
   1   2  -8 19147.5 1268.78   1
   1   2  -7 27838.2 1601.41   1
   1   2  -6 31897.5 1844.40   1
   1   2  -5 66966.3 3199.72   1
   1   2  -4 49012.8 2585.41   1
   1  -2   2 27934.0 1114.91   1
   1  -2   3 191973. 5854.65   1
   1  -2   4 1265.94 177.517   1
  -1   2  -4 1004.15 175.927   1
  -1   2  -5 24385.4 1113.72   1
   1  -2   5 24970.0 1076.40   1
   1  -2   6 21605.8 1056.33   1
  -1   2  -6 21641.2 1040.93   1
   1   2   7 69703.3 2229.68   1
   1  -2   7 74604.6 2639.48   1
  -1   2  -7 75420.8 2601.08   1
   1  -2   8 10968.6 717.300   1
   1   2   8 12597.8 528.643   1
  -1   2  -8 12654.2 752.510   1
  -1   2  -9 32.6130 80.0451   1
   1  -2   9 24.7905 51.5048   1
   1   2   9 72.8384 52.6914   1
  -1   2 -10 4.12252 69.5744   1
   1   2  10 256.854 96.0712   1
   1  -2  10 208.759 112.494   1
   1   2  11 21737.2 1315.52   1
  -1   2 -11 22159.7 1190.14   1
   1  -2  11 22916.6 1234.35   1
  -1   2 -12 18316.6 1060.41   1
   1   2  12 16923.2 1297.35   1
   1  -2  12 16151.5 1138.19   1
  -1   2 -13 49359.3 2117.35   1
   1  -2  13 48879.2 2465.79   1
  -1   2 -14 1012.20 238.594   1
   1  -2  14 831.041 346.813   1
  -1   2 -15 9244.36 786.546   1
   1  -2  15 11124.4 1195.50   1
   1  -2  16 6305.61 1110.24   1
  -1   2 -16 8441.18 746.521   1
  -1   2 -17 19190.5 1199.32   1
   1  -2  17 16612.9 2041.88   1
  -1   2 -18 1262.59 304.130   1
   1   3 -19 1962.20 464.284   1
   1   3 -18 231.740 158.012   1
   1   3 -17 4677.24 650.730   1
   1   3 -16 28699.2 1688.39   1
   1  -3 -16 29589.1 1244.49   1
   1   3 -15 6478.28 678.399   1
   1  -3 -15 5844.22 459.420   1
   1   3 -14 586.063 211.672   1
   1  -3 -14 508.587 131.761   1
   1   3 -13 2497.23 408.697   1
   1  -3 -13 2866.13 346.118   1
   1   3 -12 6740.23 684.039   1
   1  -3 -12 8417.50 662.677   1
   1   3 -11 4355.61 527.495   1
   1   3 -10 14098.1 960.052   1
   1   3  -9 16752.6 1091.18   1
   1   3  -8 80247.5 3276.55   1
   1   3  -7 8806.58 820.485   1
   1   3  -6 24258.8 1450.92   1
   1   3  -5-36.0009 78.0456   1
   1   3  -4 179224. 6210.54   1
   1   3  -3 990.987 297.580   1
   1   3  -2 31016.3 1877.69   1
   1   3  -1 7237.76 810.211   1
   1   3   0 163597. 5831.42   1
   1  -3   1 40367.5 1519.59   1
   1  -3   2 44.3204 45.5151   1
  -1   3  -3 16795.4 836.584   1
   1  -3   3 15503.6 792.488   1
   1  -3   4 122371. 3993.56   1
  -1   3  -4 125286. 4052.30   1
  -1   3  -5 22241.2 1102.98   1
   1  -3   5 23782.5 1127.05   1
   1  -3   6 21896.1 1126.16   1
  -1   3  -6 22561.2 1117.96   1
   1  -3   7 28311.7 1375.43   1
  -1   3  -7 27553.5 1318.14   1
   1  -3   8 92183.1 3253.42   1
  -1   3  -8 93622.2 3308.05   1
  -1   3  -9 15475.8 909.982   1
   1  -3   9 13429.6 886.367   1
  -1   3 -10 16428.9 979.468   1
   1  -3  10 15887.8 1009.67   1
  -1   3 -11 1771.70 418.139   1
   1  -3  11 1458.54 376.452   1
   1  -3  12 793.985 265.207   1
  -1   3 -12 485.739 190.548   1
  -1   3 -13 2536.97 385.347   1
   1  -3  13 2035.59 458.242   1
  -1   3 -14 2036.92 350.122   1
   1  -3  14 2128.77 513.123   1
  -1   3 -15 3899.76 535.453   1
   1  -3  15 3828.30 727.969   1
  -1   3 -16 7702.33 737.860   1
   1  -3  16 6761.40 1062.68   1
  -1   3 -17 302.567 186.453   1
   1  -3  17 93.6554 329.939   1
  -1   3 -18 134.316 140.936   1
  -1   3 -19 310.292 182.260   1
   1   4 -17 3907.46 643.278   1
   1   4 -16 7656.61 866.969   1
   1  -4 -15 57.4374 54.2971   1
   1   4 -15 154.101 180.237   1
   1   4 -14 937.704 246.690   1
   1  -4 -14 949.044 155.757   1
   1  -4 -13 1371.17 230.548   1
   1   4 -13 1274.63 284.605   1
   1   4 -12 42132.0 2039.33   1
   1   4 -11 6108.43 646.722   1
   1   4 -10 480.948 194.188   1
  -1  -4   9 16532.7 1988.72   1
   1   4  -9 24979.9 1377.04   1
   1   4  -8 2773.27 400.318   1
  -1  -4   8 2319.07 727.303   1
  -1  -4   7 80.8711 255.583   1
   1   4  -7 305.521 166.099   1
   1   4  -6 91.6541 90.7484   1
  -1  -4   6-82.4139 269.676   1
  -1  -4   5 21203.6 1867.44   1
   1   4  -5 18112.2 1221.17   1
  -1  -4   4 23340.2 1931.84   1
   1   4  -4 23766.0 1396.65   1
   1   4  -3 681.192 244.192   1
  -1  -4   3 523.624 270.973   1
  -1  -4   2 146.213 172.390   1
   1   4  -2 440.239 189.072   1
   1  -4  -1 7739.21 483.966   1
   1   4  -1 6627.40 636.226   1
   1  -4   0 177442. 5532.76   1
   1   4   0 181753. 5889.49   1
   1   4   1 23320.0 1167.15   1
   1  -4   1 20429.1 976.910   1
  -1   4  -2 562.807 135.611   1
   1  -4   2 514.192 125.306   1
   1   4   2 724.456 182.141   1
  -1   4  -3 30268.3 1325.29   1
   1  -4   3 28713.5 1287.11   1
   1   4   3 32398.5 1308.06   1
  -1   4  -4 53569.3 2077.62   1
   1  -4   4 53813.9 2096.39   1
   1   4   4 53162.1 1860.39   1
   1  -4   5 69513.6 2604.53   1
  -1   4  -5 68293.6 2582.94   1
  -1   4  -6 1465.52 260.809   1
   1  -4   6 1218.73 245.915   1
  -1   4  -7 36755.0 1647.73   1
   1  -4   7 36845.8 1680.81   1
  -1   4  -8 53337.4 2213.79   1
   1  -4   8 54859.2 2187.51   1
   1  -4   9 622.166 201.003   1
  -1   4  -9 769.660 221.541   1
   1  -4  10 3635.51 473.886   1
  -1   4 -10 3407.69 444.080   1
  -1   4 -11 6863.16 669.290   1
   1  -4  11 8125.49 726.746   1
  -1   4 -12 50140.6 2282.99   1
   1  -4  12 55045.3 2522.11   1
  -1   4 -13 8010.64 757.485   1
   1  -4  13 6944.15 887.117   1
   1  -4  14 403.695 263.974   1
  -1   4 -14 458.386 218.533   1
  -1   4 -15 1612.79 359.954   1
   1  -4  15 917.364 328.773   1
  -1   4 -16 6169.91 702.516   1
   1  -4  16 6507.12 1088.06   1
  -1   4 -17 1983.43 404.228   1
   1  -4  17 2104.48 785.806   1
  -1   4 -18 1051.23 370.872   1
   1  -4  18 1282.20 698.200   1
   1   5 -15 25077.5 1659.96   1
   1  -5 -14 4913.18 317.999   1
   1   5 -14 4482.24 637.483   1
   1   5 -13 34199.5 1854.35   1
   1  -5 -13 36460.9 1448.20   1
   1   5 -12 55.6187 84.3941   1
   1   5 -11 23324.8 1411.45   1
  -1  -5  11 18319.4 2238.56   1
   1   5 -10 1867.27 370.714   1
  -1  -5  10 1298.88 679.524   1
   1   5  -9 19949.0 1264.84   1
  -1  -5   9 20300.8 2276.21   1
  -1  -5   8 25461.1 2463.24   1
   1   5  -8 26119.5 1462.80   1
  -1  -5   7 56379.6 3707.07   1
   1   5  -7 53330.9 2323.11   1
  -1  -5   6 815.326 416.625   1
   1   5  -6 421.474 175.791   1
  -1  -5   5 29651.6 2363.25   1
   1   5  -5 28963.7 1485.22   1
  -1  -5   4 40520.5 2743.10   1
   1   5  -4 43355.9 1914.69   1
  -1  -5   3 115375. 5030.53   1
   1   5  -3 119647. 3953.01   1
   1  -5  -2 699.848 148.531   1
   1   5  -2 795.301 203.406   1
  -1  -5   2 717.518 413.001   1
   1  -5  -1 99135.9 3276.01   1
   1   5  -1 92737.9 3493.76   1
  -1  -5   0 35307.5 2207.80   1
   1  -5   0 33060.2 1357.76   1
   1   5   0 30649.9 1461.24   1
   1  -5   1 31056.8 1309.15   1
  -1   5  -1 31259.5 1381.29   1
   1   5   1 29557.9 1318.54   1
  -1   5  -2 18566.2 1002.93   1
   1  -5   2 18240.4 959.374   1
   1   5   2 20812.0 935.008   1
  -1   5  -3 158057. 5064.29   1
   1  -5   3 150353. 5054.25   1
   1   5   3 154011. 4744.14   1
  -1   5  -4 46986.1 1953.95   1
   1  -5   4 44751.3 1967.97   1
   1   5   4 47056.9 1595.01   1
   1  -5   5 8927.06 735.771   1
   1   5   5 9637.91 429.487   1
  -1   5  -5 8821.32 696.057   1
  -1   5  -6 688.325 201.678   1
   1   5   6 784.352 87.3542   1
   1  -5   6 746.010 212.236   1
  -1   5  -7 3055.77 417.196   1
   1  -5   7 3436.72 436.708   1
  -1   5  -8 11125.0 844.823   1
   1  -5   8 11110.5 837.973   1
  -1   5  -9 48031.3 2137.84   1
   1  -5   9 46864.7 2176.85   1
   1  -5  10 5676.19 644.977   1
  -1   5 -10 5859.24 619.719   1
  -1   5 -11 4656.15 575.295   1
   1  -5  11 5373.81 626.371   1
   1  -5  12 918.103 304.723   1
  -1   5 -12 733.093 233.974   1
  -1   5 -13 24172.1 1481.05   1
   1  -5  13 23236.5 1706.90   1
   1  -5  14 74.5852 276.814   1
  -1   5 -14-14.9406 110.549   1
  -1   5 -15 5672.47 708.641   1
   1  -5  15 5405.76 912.528   1
  -1   5 -16 9289.89 913.822   1
   1  -5  16 10270.3 1313.47   1
   1  -5  17 2798.08 763.783   1
   1   6 -14 3697.83 611.986   1
  -1  -6  13 2257.28 929.458   1
   1   6 -13 2660.30 504.709   1
   1  -6 -13 2956.75 273.359   1
  -1  -6  12 2145.93 876.508   1
   1   6 -12 2848.37 476.028   1
   1   6 -11 5830.68 675.718   1
  -1  -6  11 5001.96 1273.51   1
   1   6 -10 203.198 163.275   1
  -1  -6  10-399.062 551.249   1
  -1  -6   9 12064.2 1778.14   1
   1   6  -9 10145.1 896.181   1
  -1  -6   8 1057.51 617.331   1
   1   6  -8 896.906 244.323   1
  -1  -6   7 24048.2 2372.16   1
   1   6  -7 22077.6 1338.70   1
  -1  -6   6 53767.1 3629.70   1
   1  -6  -6 58405.5 2019.93   1
   1   6  -6 58124.8 2459.42   1
  -1  -6   5 44531.0 3094.20   1
   1  -6  -5 48313.2 1745.53   1
   1   6  -5 48145.9 2140.42   1
   1  -6  -4 3937.06 342.138   1
   1   6  -4 4315.88 484.776   1
  -1  -6   4 5240.80 953.410   1
  -1  -6   3 12227.8 1345.02   1
   1  -6  -3 10031.7 635.056   1
   1   6  -3 11820.1 813.656   1
   1   6  -2 1544.25 273.887   1
   1  -6  -2 1625.22 230.894   1
  -1  -6   2 1446.89 494.118   1
   1  -6  -1 1689.36 236.298   1
   1   6  -1 1649.07 255.601   1
  -1  -6   1 1555.69 455.397   1
   1  -6   0 210.829 89.6017   1
   1   6   0 288.260 119.032   1
  -1  -6   0 143.321 227.592   1
  -1  -6  -1 26647.4 1885.45   1
  -1   6  -1 24459.8 1240.98   1
   1  -6   1 26362.0 1243.29   1
   1   6   1 22906.9 1135.71   1
  -1   6  -2 48139.0 2005.41   1
   1  -6   2 52040.4 2060.96   1
   1   6   2 46335.0 1775.84   1
   1  -6   3 20556.1 1159.20   1
   1   6   3 19912.1 898.707   1
  -1   6  -3 21216.5 1137.35   1
  -1   6  -4 3792.62 422.365   1
   1   6   4 3356.54 283.497   1
   1  -6   4 2933.47 428.587   1
  -1   6  -5 49517.3 2138.19   1
   1   6   5 50152.7 1708.24   1
   1  -6   5 44389.6 2158.34   1
  -1   6  -6 22067.7 1312.12   1
   1   6   6 24507.7 881.019   1
   1  -6   6 23019.0 1328.87   1
  -1   6  -7 18375.1 1157.27   1
   1   6   7 17612.9 668.052   1
   1  -6   7 19857.5 1160.21   1
   1  -6   8 77.2635 110.826   1
  -1   6  -8-161.249 141.218   1
  -1   6  -9 2085.54 384.894   1
   1  -6   9 2250.34 400.904   1
  -1   6 -10 13149.5 1032.84   1
   1  -6  10 15664.0 1157.43   1
  -1   6 -11 8417.30 791.424   1
   1  -6  11 9282.66 849.085   1
   1  -6  12-45.9957 169.586   1
  -1   6 -12 3.68205 123.920   1
  -1   6 -13 3150.50 517.383   1
   1  -6  13 3429.17 666.019   1
   1  -6  14 2827.29 675.308   1
  -1   6 -14 2241.72 418.012   1
   1  -6  15 613.906 353.232   1
  -1  -7  13 35.5759 537.627   1
  -1  -7  12 4579.54 1344.71   1
   1  -7 -12 3767.82 229.288   1
   1   7 -12 3667.90 604.744   1
   1  -7 -11 4301.24 268.465   1
  -1  -7  11 3639.48 965.484   1
   1   7 -11 3995.24 610.983   1
   1  -7 -10 44229.5 1518.14   1
   1   7 -10 44739.1 2224.63   1
  -1  -7   9 7895.13 1567.30   1
   1  -7  -9 8395.21 454.670   1
   1   7  -9 8199.50 785.859   1
   1   7  -8 2954.43 454.579   1
   1  -7  -8 3167.06 279.089   1
  -1  -7   8 3667.20 1113.46   1
   1  -7  -7 9305.35 539.781   1
  -1  -7   7 9174.77 1478.72   1
   1   7  -7 10436.3 858.765   1
   1   7  -6 198.101 154.215   1
   1  -7  -6 10.9436 40.8386   1
  -1  -7   6 97.5359 310.450   1
  -1  -7   5 16445.2 1778.78   1
   1  -7  -5 16632.1 817.181   1
   1   7  -5 15087.1 1039.55   1
   1   7  -4 241.019 132.617   1
   1  -7  -4 80.6292 55.8757   1
   1   7  -3 4216.36 494.154   1
   1  -7  -3 4900.07 408.685   1
  -1  -7   3 3281.20 730.988   1
  -1  -7   2 75022.2 4141.15   1
   1   7  -2 78525.6 3143.14   1
  -1  -7   1 445.194 365.169   1
   1   7  -1 225.286 124.137   1
   1  -7  -1 315.646 117.120   1
  -1  -7   0 43903.5 2685.97   1
   1  -7   0 44106.4 1874.81   1
   1   7   0 42600.6 1803.84   1
  -1   7  -1 6055.35 556.641   1
   1  -7   1 5781.58 591.464   1
  -1  -7  -1 5203.85 847.784   1
   1   7   1 5935.57 490.259   1
  -1  -7  -2 62993.4 3272.85   1
  -1   7  -2 60702.0 2415.72   1
   1  -7   2 58757.2 2475.97   1
   1   7   2 58693.2 2174.46   1
  -1  -7  -3 23.2306 229.248   1
  -1   7  -3 158.134 101.633   1
   1  -7   3 173.246 138.668   1
   1   7   3 123.442 85.4869   1
  -1   7  -4 2684.20 398.861   1
   1   7   4 2741.84 302.072   1
   1  -7   4 2654.90 440.636   1
  -1   7  -5 9856.89 811.560   1
   1   7   5 9102.48 545.347   1
   1  -7   5 10205.1 833.031   1
   1  -7   6 2474.67 384.956   1
  -1   7  -6 2095.41 349.348   1
   1   7   6 2251.28 210.428   1
   1   7   7 8640.87 441.185   1
  -1   7  -7 9200.32 1000.31   1
   1  -7   7 8929.50 801.215   1
  -1   7  -8 11802.9 969.438   1
   1  -7   8 11668.4 1002.60   1
   1  -7   9 388.072 198.081   1
  -1   7  -9 130.030 126.206   1
  -1   7 -10 17869.8 1267.44   1
   1  -7  10 17554.1 1301.23   1
  -1   7 -11 8701.55 886.456   1
   1  -7  11 9040.32 921.264   1
  -1   7 -12 1647.20 394.937   1
   1  -7  12 1838.35 448.644   1
   1  -7  13 3250.31 715.543   1
   1  -7  14 12090.0 1558.10   1
   1  -8 -12 87.4318 36.8433   1
  -1  -8  12 2441.36 1273.95   1
  -1  -8  11 36700.4 3724.58   1
   1  -8 -11 32727.3 1187.49   1
  -1  -8  10 17271.7 2379.92   1
   1  -8 -10 15360.1 687.236   1
   1   8 -10 13434.7 1239.24   1
   1  -8  -9 424.434 96.7491   1
  -1  -8   9 782.919 565.722   1
   1   8  -9 594.578 280.522   1
   1  -8  -8 3276.09 294.474   1
  -1  -8   8 2458.01 793.596   1
   1   8  -8 3242.34 528.934   1
   1  -8  -7 843.628 149.453   1
  -1  -8   7 877.933 535.057   1
   1   8  -7 939.620 254.852   1
  -1  -8   6 33010.3 2873.90   1
   1  -8  -6 33235.0 1361.62   1
   1   8  -6 32341.5 1713.69   1
   1   8  -5 3318.35 451.319   1
   1  -8  -5 3134.50 346.050   1
  -1  -8   5 3226.96 865.668   1
   1   8  -4 1657.09 308.895   1
   1  -8  -4 1819.49 270.354   1
  -1  -8   4 2185.76 698.077   1
   1  -8  -3 51319.9 2095.45   1
   1   8  -3 55650.1 2282.87   1
   1  -8  -2 7263.43 607.750   1
   1   8  -2 6236.75 593.372   1
  -1  -8   2 5390.55 981.131   1
  -1  -8   1 48464.0 3087.65   1
   1  -8  -1 53344.1 2235.23   1
   1   8  -1 53961.6 2206.82   1
  -1  -8   0 3207.35 718.513   1
  -1   8   0 4184.52 475.706   1
   1  -8   0 4004.74 512.846   1
   1   8   0 4159.15 446.246   1
  -1  -8  -1 15969.5 1626.86   1
  -1   8  -1 16961.7 1081.14   1
   1  -8   1 16557.7 1112.69   1
   1   8   1 16149.7 995.715   1
   1   8   2 10120.2 758.123   1
   1  -8   2 10713.8 877.788   1
  -1   8  -2 11462.5 863.002   1
  -1  -8  -2 10659.9 1254.87   1
  -1  -8  -3 802.360 355.141   1
   1   8   3 689.582 173.342   1
  -1   8  -4 990.148 244.974   1
   1   8   4 900.484 193.706   1
   1  -8   4 790.699 236.368   1
  -1  -8  -4 292.428 360.790   1
  -1   8  -5 14279.0 1050.14   1
   1   8   5 13913.9 726.190   1
   1  -8   5 14388.5 1013.53   1
   1   8   6 36818.1 1404.25   1
  -1   8  -6 36978.9 1919.49   1
   1  -8   6 36948.8 1883.74   1
  -1   8  -7 33291.5 1857.81   1
   1   8   7 36771.1 1338.12   1
   1  -8   7 32969.0 1905.29   1
  -1   8  -8 887.036 276.045   1
   1  -8   8 713.812 252.239   1
  -1   8  -9 7511.44 784.944   1
   1  -8   9 7362.21 827.904   1
  -1   8 -10 6216.74 739.939   1
   1  -8  10 6275.39 761.777   1
   1  -8  11 19197.3 1517.61   1
   1  -8  12 455.318 334.063   1
   1  -9 -11 12.3888 41.7711   1
  -1  -9  10 118.564 580.172   1
   1  -9 -10-19.7858 60.8879   1
   1  -9  -9 24905.7 1115.41   1
  -1  -9   9 23072.6 2890.75   1
   1  -9  -8 5813.29 461.180   1
   1   9  -8 4835.73 696.135   1
  -1  -9   7 31025.8 2926.80   1
   1  -9  -7 30123.1 1317.59   1
   1   9  -7 25446.6 1752.78   1
  -1  -9   6 2222.46 899.582   1
   1  -9  -6 2092.83 291.828   1
   1   9  -6 1802.22 372.453   1
  -1  -9   5 39005.0 3185.62   1
   1  -9  -5 44212.1 1828.86   1
   1   9  -5 40230.9 2182.15   1
   1  -9  -4 17533.2 1014.23   1
   1   9  -4 14177.5 1146.38   1
  -1  -9   4 12995.7 1684.74   1
  -1  -9   3 29754.8 2559.58   1
   1  -9  -3 35723.4 1645.68   1
   1   9  -3 30357.1 1785.80   1
   1  -9  -2 6559.27 643.115   1
  -1  -9   2 5111.68 1005.40   1
   1   9  -2 5964.11 668.678   1
   1  -9  -1 3969.03 506.709   1
   1   9  -1 3829.88 490.790   1
  -1  -9   1 3503.61 722.259   1
  -1   9   0 2795.68 395.168   1
   1   9   0 2214.55 379.332   1
   1  -9   0 2192.39 388.646   1
  -1  -9   0 2385.76 649.251   1
  -1   9  -1 1665.35 330.190   1
   1   9   1 1216.03 267.493   1
  -1  -9  -1 1100.49 501.183   1
   1  -9   1 1384.32 318.620   1
  -1   9  -2 24.7557 139.090   1
  -1  -9  -2-128.247 282.803   1
   1   9   2 248.325 143.723   1
   1  -9   2 186.578 125.498   1
  -1  -9  -3 34908.4 2517.83   1
  -1   9  -3 33666.4 1781.44   1
   1   9   3 34239.8 1557.68   1
   1  -9   3 32799.7 1737.84   1
   1  -9   4 3097.91 447.467   1
  -1   9  -4 2979.01 471.118   1
   1   9   4 2930.94 330.837   1
  -1  -9  -4 2797.70 689.768   1
  -1   9  -5 17833.7 1255.12   1
   1   9   5 16736.6 868.563   1
   1  -9   5 17606.9 1231.94   1
  -1   9  -6 7479.25 779.748   1
   1  -9   6 6688.94 774.008   1
   1   9   6 6440.34 486.385   1
   1   9   7 16704.7 819.099   1
  -1   9  -7 16317.5 1241.29   1
   1  -9   7 15881.5 1252.29   1
  -1   9  -8 1059.84 331.209   1
   1  -9   8 843.995 274.210   1
  -1   9  -9 9280.81 1021.93   1
   1  -9   9 12501.7 1139.21   1
   1  -9  10 2927.27 557.169   1
   1 -10 -10 2718.18 269.040   1
   1 -10  -9 2802.51 298.844   1
   1 -10  -8 82.5736 64.5884   1
  -1 -10   8 192.862 592.368   1
  -1 -10   7 324.057 453.330   1
   1  10  -7 604.744 352.596   1
   1 -10  -7 452.341 154.277   1
  -1 -10   6 14111.8 1923.10   1
   1  10  -6 14146.0 1248.71   1
   1 -10  -6 13307.6 880.109   1
   1  10  -5 295.725 278.751   1
   1 -10  -5 103.247 126.182   1
  -1 -10   5-278.076 269.862   1
   1  10  -4 3185.63 560.798   1
   1 -10  -4 2568.19 372.545   1
  -1 -10   4 2326.26 770.125   1
   1  10  -3 1865.96 430.138   1
  -1 -10   3 1685.75 645.953   1
   1 -10  -3 2170.90 370.319   1
   1  10  -2 3.82372 80.2367   1
  -1 -10   2 295.682 335.166   1
   1 -10  -2 161.861 183.125   1
   1  10  -1 12920.3 1015.78   1
   1 -10  -1 12255.3 936.435   1
  -1 -10   1 10852.4 1525.16   1
  -1 -10   0 22341.2 2173.90   1
  -1  10   0 24003.4 1410.61   1
   1  10   0 23172.2 1389.79   1
   1 -10   0 22265.4 1359.06   1
   1 -10   1 2897.51 436.739   1
  -1  10  -1 2412.71 425.173   1
  -1 -10  -1 2261.85 660.777   1
   1  10   1 2721.50 418.121   1
  -1  10  -2 11422.3 962.597   1
   1  10   2 11802.3 855.913   1
  -1 -10  -2 10323.8 1476.04   1
   1 -10   2 12137.6 946.654   1
  -1 -10  -3 33521.8 2595.11   1
  -1  10  -3 28599.1 1683.49   1
   1  10   3 28300.1 1415.98   1
   1 -10   3 28751.5 1667.37   1
  -1  10  -4 10124.2 935.043   1
   1  10   4 10166.6 699.515   1
  -1 -10  -4 9420.63 1320.43   1
   1 -10   4 9183.46 904.272   1
  -1  10  -5 338.504 247.537   1
   1 -10   5 29.4577 165.280   1
   1  10   5 80.1656 87.1782   1
  -1 -10  -5 526.955 351.690   1
   1  10   6-28.8487 72.1680   1
  -1  10  -6 243.669 172.553   1
   1 -10   6 194.983 203.434   1
   1  10   7 111.622 96.8203   1
  -1  10  -7 125.218 144.010   1
   1 -10   7-142.683 150.017   1
   1 -10   8 16415.7 1352.95   1
   1 -11  -9 5239.98 463.838   1
   1 -11  -8 15043.5 866.116   1
   1 -11  -7 1689.35 269.635   1
   1 -11  -6 1676.31 262.749   1
  -1 -11   6 397.881 404.353   1
   1 -11  -5 625.536 180.073   1
   1  11  -5 761.736 310.481   1
  -1 -11   4 11085.4 1731.09   1
   1  11  -4 11652.9 1096.04   1
   1 -11  -4 12844.8 853.748   1
   1  11  -3 11308.1 1017.27   1
   1 -11  -3 11222.3 838.116   1
  -1 -11   3 9301.39 1551.86   1
   1 -11  -2 1149.07 268.370   1
   1  11  -2 1199.64 341.292   1
  -1 -11   2 1006.27 567.988   1
  -1 -11   1 12951.0 1780.63   1
   1  11  -1 13367.2 1087.65   1
   1 -11  -1 15271.8 1030.58   1
   1 -11   0-32.2817 165.278   1
  -1 -11   0 503.717 305.823   1
   1  11   0 108.355 146.763   1
  -1 -11  -1 27899.4 2478.81   1
  -1  11  -1 28109.4 1656.94   1
   1  11   1 26750.3 1522.00   1
   1 -11   1 27873.7 1627.01   1
  -1  11  -2 9740.17 917.342   1
   1  11   2 8763.21 739.413   1
   1 -11   2 8894.63 870.875   1
  -1 -11  -2 9498.81 1483.87   1
  -1  11  -3 7392.86 822.290   1
  -1 -11  -3 9385.90 1380.16   1
   1 -11   3 7690.66 827.359   1
   1  11   3 7452.17 636.211   1
  -1 -11  -4 21754.3 2194.13   1
  -1  11  -4 24050.3 1592.94   1
   1  11   4 24491.9 1250.62   1
   1 -11   4 21481.4 1541.93   1
  -1  11  -5 3255.68 619.504   1
   1  11   5 3463.48 409.871   1
   1 -11   5 3527.98 622.100   1
  -1 -11  -5 1860.40 527.522   1
   1  11   6 876.268 218.863   1
   1 -11   6 905.671 296.322   1
   1 -12  -8 1282.43 264.320   1
   1 -12  -7 13926.5 906.130   1
   1 -12  -6 5429.65 553.233   1
   1 -12  -5 11596.4 868.358   1
   1 -12  -4 4423.75 536.560   1
  -1 -12   4 4173.08 1144.99   1
   1 -12  -3 259.537 150.535   1
  -1 -12   3 738.733 648.242   1
   1  12  -3 319.344 246.958   1
   1 -12  -2 971.437 257.954   1
  -1 -12   2 631.827 349.816   1
   1  12  -2 1181.88 333.057   1
   1 -12  -1 6939.65 749.605   1
  -1 -12   1 8835.07 1554.10   1
   1  12  -1 7188.66 777.254   1
   1 -12   0 5860.53 725.359   1
   1  12   0 5955.14 673.673   1
  -1 -12   0 6668.23 1299.37   1
  -1  12  -1 2796.36 515.205   1
   1  12   1 2516.21 412.550   1
   1 -12   1 2260.08 428.632   1
  -1 -12  -1 3504.30 972.664   1
  -1  12  -2 1025.30 321.453   1
   1 -12   2 779.668 297.416   1
   1  12   2 775.044 234.308   1
  -1 -12  -2 890.172 522.122   1
  -1 -12  -3 15292.9 1924.75   1
   1  12   3 13948.8 970.789   1
   1 -12   3 14688.0 1256.66   1
   1  12   4 388.375 170.915   1
   1 -12   4 1003.48 420.592   1
  -1 -12  -4 563.997 585.111   1
  -1 -12  -5 17991.8 2100.51   1
   1  12   5 27081.1 1377.56   1
   1 -13  -7 1955.91 339.210   1
   1 -13  -6 1118.01 272.017   1
   1 -13  -5 1820.66 360.387   1
   1 -13  -4 4347.42 564.628   1
   1 -13  -3 9325.49 845.254   1
  -1 -13   2 11984.2 2043.50   1
   1 -13  -2 13270.4 1083.67   1
   1  13  -1 13554.8 1093.99   1
  -1 -13   1 11518.3 1923.46   1
   1 -13  -1 14142.8 1139.63   1
   1  13   0 2805.44 456.339   1
   1 -13   0 3259.53 562.335   1
  -1 -13   0 2817.73 952.256   1
   1 -13   1 10406.3 1022.20   1
   1  13   1 9621.60 846.361   1
  -1 -13  -1 10126.2 1798.32   1
  -1 -13  -2 1572.83 890.560   1
   1  13   2 863.099 246.274   1
   1 -13   2 1560.44 407.629   1
   1  13   3 889.309 277.456   1
  -1 -13  -3 1262.78 618.771   1
   1  13   4 931.014 260.430   1
  -1 -13  -4 464.564 392.356   1
   1 -14  -5 339.637 188.108   1
   1 -14  -4 2436.44 411.000   1
   1 -14  -3 9350.34 910.830   1
   1 -14  -2 1248.25 340.944   1
   1 -14  -1 1007.20 340.930   1
  -1 -14   0 10965.4 1892.73   1
   1 -14   0 6434.69 903.800   1
  -1 -14  -1 5805.84 1295.03   1
   1  14   1 5104.10 612.572   1
   1  14   2 2197.42 411.979   1
  -1 -14  -2 2891.20 1234.34   1
  -1 -14  -3 491.510 595.052   1
   1  14   3 62.9779 138.734   1
  -1 -14  -4 2104.44 751.846   1
   1 -15  -4 1057.09 378.126   1
   1 -15  -3 1323.23 404.151   1
  -1 -15  -2 2088.91 964.136   1
  -1 -15  -3 11509.3 1981.55   1
  -1 -15  -4 4158.21 1252.11   1
   2   0   7 15.3054 49.7228   1
   2   0   8 1884.57 237.593   1
   2   0   9 65.1287 69.6399   1
   2   0  10-36.0735 65.6506   1
   2   0  11 112.124 99.4943   1
   2   0  12 96632.2 3336.59   1
   2   0  13 23.9791 70.0905   1
   2   0  14 2050.95 314.609   1
   2   0  15-38.5105 114.379   1
   2  -1   7 13023.8 742.485   1
   2   1   8 65047.1 2274.58   1
   2  -1   8 67398.6 2393.92   1
   2   1   9 53727.5 1942.23   1
   2  -1   9 55800.0 2073.83   1
   2   1  10 7110.38 482.693   1
   2  -1  10 7409.67 593.258   1
   2   1  11 9775.58 633.844   1
   2  -1  11 9692.57 750.246   1
   2   1  12 5311.13 418.760   1
   2  -1  12 4886.41 506.786   1
   2  -1  13 20871.0 1121.51   1
   2   1  13 20181.8 1020.33   1
   2  -1  14 379.939 182.940   1
   2   1  14 419.900 142.408   1
   2  -1  15 15693.3 1022.83   1
   2   1  15 11325.6 926.790   1
   2  -1  16 3845.46 584.949   1
   2  -2   6 21205.6 1069.64   1
   2  -2   7 110187. 3739.33   1
   2  -2   8 2491.64 314.768   1
   2   2   9 26.8002 52.4320   1
   2  -2   9 102.767 74.3542   1
   2   2  10 1334.51 170.513   1
   2  -2  10 1284.03 259.679   1
   2   2  11 4162.10 357.260   1
   2  -2  11 4531.24 520.125   1
   2  -2  12 13678.4 912.435   1
   2   2  12 13782.0 695.614   1
   2  -2  13 10660.0 812.851   1
   2   2  13 11015.1 641.858   1
   2  -2  14 3054.85 441.424   1
   2   2  14 2738.17 356.553   1
   2  -2  15 3282.82 496.808   1
   2  -2  16 1059.91 352.136   1
   2  -2  17 12209.1 1243.54   1
   2  -3   5 8324.85 615.443   1
   2  -3   6 16166.9 947.563   1
   2  -3   7 286.793 118.331   1
   2  -3   8 19376.1 1065.28   1
   2   3   9 20148.8 803.034   1
   2  -3   9 20222.2 1178.25   1
   2   3  10 46446.4 1561.72   1
   2  -3  10 46646.8 2105.23   1
   2   3  11 450.903 99.8820   1
   2  -3  11 535.947 193.728   1
   2   3  12 5962.83 381.305   1
   2  -3  12 6389.47 591.314   1
   2  -3  13 8531.29 749.041   1
   2   3  13 8596.18 558.895   1
   2  -3  14 22759.4 1365.46   1
   2  -3  15 5795.92 582.607   1
   2  -3  16 64.6787 141.812   1
   2  -3  17 2407.62 571.979   1
   2  -4   4 9665.84 690.603   1
   2  -4   5 54.7345 74.7154   1
   2  -4   6 51880.8 2114.10   1
   2  -4   7 2189.15 305.138   1
   2  -4   8 3623.86 464.729   1
   2  -4   9 86.7824 80.2471   1
   2   4  10 9316.17 402.133   1
   2  -4  10 8527.74 811.111   1
   2   4  11 6548.74 316.196   1
   2  -4  11 5962.23 669.573   1
   2  -4  12 2006.98 348.892   1
   2   4  12 1946.63 196.557   1
   2  -4  13 18167.4 1221.95   1
   2  -4  14 6137.07 687.660   1
   2  -4  15 1117.99 328.912   1
   2  -4  16 105.115 174.076   1
   2  -4  17 839.584 357.246   1
   2  -4  18 22278.0 1929.79   1
   2  -5   3 197830. 6377.09   1
   2  -5   4 1880.87 306.189   1
   2  -5   5 78819.9 2956.04   1
   2  -5   6 5836.19 564.475   1
   2  -5   7 50432.8 2184.79   1
   2  -5   8 6049.57 635.325   1
   2  -5   9 22838.2 1404.01   1
   2  -5  10 20219.7 1383.58   1
   2  -5  11 13349.0 1033.73   1
   2  -5  12 246.107 176.097   1
   2  -5  13 7453.78 797.794   1
   2  -5  14 2121.84 422.489   1
   2  -5  15 15057.9 1197.08   1
   2  -5  16 3110.18 495.295   1
   2  -5  17 1876.26 565.966   1
   2  -6   2 3174.09 405.960   1
   2  -6   3 2001.87 330.752   1
   2  -6   4 17756.8 1080.76   1
   2  -6   5 5106.01 544.129   1
   2  -6   6 3387.19 459.938   1
   2   6   6 3414.42 458.701   1
   2   6   7 12176.4 764.803   1
   2  -6   7 13219.1 985.781   1
   2  -6   8 18600.9 1275.74   1
   2   6   8 17829.1 823.499   1
  -2   6  -9 2827.68 485.147   1
   2  -6   9 2188.44 431.482   1
  -2   6 -10 1976.91 422.863   1
   2  -6  10 1665.48 368.317   1
  -2   6 -11 11037.0 1014.18   1
   2  -6  11 10717.7 925.534   1
  -2   6 -12 9012.93 917.355   1
   2  -6  12 9604.22 902.348   1
  -2   6 -13 16114.8 1288.21   1
   2  -6  13 15630.4 1244.70   1
   2  -6  14 3156.97 537.996   1
   2  -6  15 4268.04 660.489   1
   2   7 -11 316.954 206.348   1
   2   7 -10 813.456 307.486   1
   2   7  -9 4585.92 626.877   1
   2   7  -8 102199. 4247.92   1
   2   7  -7-182.917 186.809   1
   2   7  -6 431.077 197.522   1
   2   7  -5 8328.22 952.799   1
   2   7  -4 27834.8 1867.16   1
   2   7  -3 2560.04 519.164   1
   2   7  -2 13431.5 1175.45   1
   2   7  -1 14821.2 1211.15   1
   2  -7   0 15883.9 990.097   1
   2   7   0 15383.6 1246.14   1
   2  -7   1 13101.8 918.128   1
   2   7   1 14580.4 1130.85   1
   2  -7   2 13290.4 893.733   1
   2   7   2 12624.3 1019.27   1
   2   7   3 7237.37 690.972   1
   2  -7   3 6643.74 634.832   1
   2  -7   4 31274.1 1621.91   1
   2   7   4 34039.9 1658.67   1
   2   7   5 1093.53 225.288   1
   2  -7   5 613.619 189.533   1
   2  -7   6 3.47465 126.201   1
   2   7   6 142.635 66.5955   1
   2  -7   7 10968.0 996.083   1
   2   7   7 12378.5 617.866   1
  -2   7  -8 71767.0 3039.94   1
   2  -7   8 69396.3 3094.24   1
   2   7   8 65542.4 2159.91   1
  -2   7  -9 8399.37 878.735   1
   2   7   9 8248.35 386.388   1
   2  -7   9 8477.54 875.011   1
  -2   7 -10 489.812 244.317   1
   2  -7  10 411.558 217.542   1
   2  -7  11 4181.28 590.906   1
  -2   7 -11 4067.08 635.206   1
  -2   7 -12 966.487 316.941   1
   2  -7  12 781.193 196.909   1
   2  -7  13 4641.96 638.077   1
   2   8  -9 13278.8 1172.69   1
   2   8  -8-34.4274 137.634   1
   2   8  -7 73508.4 3276.51   1
   2   8  -6 2065.63 420.403   1
   2   8  -5 16898.3 1261.41   1
   2   8  -4 8249.73 888.106   1
   2   8  -3 1672.83 412.503   1
   2   8  -2 62.2725 176.707   1
   2  -8  -1-5.03190 92.9337   1
   2   8  -1 70.5022 161.371   1
   2  -8   0 58151.1 2339.63   1
   2   8   0 52241.9 2522.48   1
   2  -8   1 11010.5 841.628   1
   2   8   1 10596.3 861.053   1
   2  -8   2 160.673 133.709   1
   2   8   2 295.506 129.693   1
   2  -8   3 3855.78 506.677   1
   2   8   3 4495.49 482.664   1
   2  -8   4 8058.25 793.907   1
   2   8   4 8905.79 633.454   1
   2  -8   5 9118.87 851.860   1
   2   8   5 8223.37 564.517   1
   2   8   6 292.050 102.853   1
   2  -8   6 492.167 199.769   1
   2  -8   7 18885.0 1373.61   1
   2   8   7 17728.3 819.712   1
  -2   8  -8 23208.6 1560.05   1
   2   8   8 22202.1 938.285   1
   2  -8   8 19504.7 1521.96   1
  -2   8  -9 11300.2 1036.24   1
   2   8   9 10641.5 484.657   1
   2  -8   9 10957.1 1028.75   1
   2  -8  10 2300.66 420.847   1
  -2   8 -10 1888.80 458.389   1
   2  -8  11 1971.01 424.327   1
   2   9  -8 786.144 305.245   1
   2   9  -7 1411.79 296.758   1
   2   9  -6 2554.90 505.852   1
   2   9  -5 1662.19 390.782   1
   2   9  -4 2088.86 428.481   1
   2  -9  -3 37985.1 1761.95   1
   2   9  -3 37895.2 1991.01   1
   2  -9  -2 22506.7 1256.80   1
   2   9  -2 21948.3 1379.56   1
   2  -9  -1 18109.8 1117.79   1
   2   9  -1 18984.0 1213.02   1
   2  -9   0 1871.05 339.041   1
   2   9   0 1614.11 327.741   1
   2  -9   1 29623.6 1551.70   1
   2   9   1 27532.0 1489.66   1
   2   9   2 4161.11 467.674   1
   2  -9   2 3696.76 496.090   1
   2  -9   3 39243.4 2031.98   1
   2   9   3 38595.2 1722.87   1
   2   9   4 105.433 82.6984   1
   2  -9   4 173.188 163.938   1
   2   9   5 1882.26 264.466   1
   2  -9   5 1809.35 432.790   1
   2  -9   6 113.146 181.374   1
   2   9   6 59.4168 68.1877   1
   2   9   7 1508.75 231.939   1
   2  -9   7 1402.49 404.047   1
  -2   9  -8 991.055 318.889   1
   2   9   8 1241.96 178.525   1
   2  -9   8 1163.62 339.443   1
   2  -9   9 26088.3 1706.67   1
   2 -10  -6 13907.7 868.521   1
   2  10  -6 11424.9 1115.47   1
   2  10  -5 8347.50 897.459   1
   2 -10  -5 9699.20 736.141   1
   2  10  -4-198.390 338.253   1
   2 -10  -4 1162.02 267.876   1
   2  10  -3 1214.60 316.380   1
   2 -10  -3 1625.28 305.200   1
   2 -10  -2 27715.7 1453.59   1
   2  10  -2 23749.2 1521.75   1
   2  10  -1 2008.29 383.056   1
   2 -10  -1 2212.32 381.327   1
   2  10   0 322.438 186.036   1
   2 -10   0 309.774 191.303   1
   2  10   1 642.239 209.076   1
   2 -10   1 607.846 230.104   1
   2 -10   2 11059.5 1010.71   1
   2  10   2 11122.8 844.347   1
   2 -10   3 9873.57 967.355   1
   2  10   3 10090.5 731.795   1
   2 -10   4 4614.19 681.756   1
   2  10   4 4830.48 474.477   1
   2 -10   5 14893.0 1254.03   1
   2  10   5 14270.8 899.035   1
   2  10   6 22046.3 1152.18   1
   2 -10   6 20771.0 1624.59   1
   2  10   7 738.418 175.193   1
   2 -10   7 403.236 183.814   1
   2 -11  -9 3783.27 402.335   1
   2 -11  -8 6295.78 553.853   1
   2 -11  -7 18873.9 1077.26   1
   2 -11  -6 2810.34 384.183   1
   2 -11  -5 4258.47 490.521   1
   2  11  -4 3994.88 566.218   1
   2 -11  -4 4330.05 519.723   1
   2  11  -3 4489.57 604.309   1
   2 -11  -3 4915.39 606.068   1
   2 -11  -2 27409.9 1617.41   1
   2  11  -2 29138.3 1662.51   1
   2  11  -1 520.225 208.146   1
   2 -11  -1 845.231 245.818   1
   2  11   0 72.5755 145.995   1
   2 -11   0 117.728 123.557   1
   2 -11   1 10494.7 994.308   1
   2  11   1 10503.7 857.894   1
   2 -11   2 3821.20 600.189   1
   2  11   2 4123.40 522.057   1
   2 -11   3 22844.1 1638.85   1
   2  11   3 20918.8 1278.17   1
   2  11   4 3766.19 488.224   1
   2 -11   4 3312.24 630.189   1
   2  11   5 8427.23 695.077   1
   2 -11   5 8056.97 963.192   1
   2  11   6 163.664 90.3638   1
   2 -12  -8 700.475 223.155   1
   2 -12  -7 4709.21 527.517   1
   2 -12  -6 155.593 158.610   1
   2 -12  -5 3948.27 520.081   1
   2 -12  -4 532.374 185.005   1
   2 -12  -3 9741.39 919.326   1
   2 -12  -2 471.218 239.231   1
   2  12  -2 220.741 189.867   1
   2 -12  -1 20665.9 1455.56   1
   2  12  -1 19000.0 1413.97   1
   2 -12   0 3830.96 617.237   1
   2  12   0 3107.09 505.770   1
   2 -12   1 16170.7 1341.76   1
   2  12   1 14529.2 1177.32   1
   2  12   2 3857.49 583.059   1
   2 -12   2 3233.01 592.203   1
   2  12   3 8781.97 793.585   1
   2 -12   3 8426.03 950.268   1
   2  12   4-97.1411 118.430   1
   2  12   5 112.817 76.1452   1
   2 -13  -7 4453.29 573.320   1
   2 -13  -6 557.988 222.274   1
   2 -13  -5 16551.3 1236.11   1
   2 -13  -4 1070.38 315.784   1
   2 -13  -3 328.286 227.457   1
   2 -13  -2 4360.19 641.129   1
   2 -13  -1 4.68452 212.557   1
   2  13   0 135.542 181.344   1
   2 -13   0 279.405 224.024   1
   2  13   1-87.1830 133.735   1
   2 -13   1 169.250 106.453   1
   2  13   2 11453.5 949.127   1
   2  13   3 10035.1 893.095   1
   2  13   4 5023.44 573.668   1
   2 -14  -6 8678.11 807.816   1
   2 -14  -5 397.999 126.458   1
   2 -14  -4 4518.04 608.369   1
   2 -14  -3 5384.43 663.054   1
   2 -14  -2 1557.74 359.300   1
   2  14   2 3548.26 552.608   1
   2  14   3 3219.53 469.822   1
   2 -15  -4 1777.33 406.848   1
   3   0  11-123.578 131.929   1
   3   0  12 78.1865 77.7806   1
   3   0  13-81.7281 96.7167   1
   3   0  14 24140.1 1325.39   1
   3   0  15-2.45518 84.4242   1
   3  -1  11 1593.47 292.930   1
   3   1  12 20.0691 54.6535   1
   3  -1  12 4.43338 83.8444   1
   3   1  13 7498.15 581.938   1
   3  -1  13 7779.96 693.759   1
   3   1  14 8458.00 654.966   1
   3  -1  14 8455.83 742.204   1
   3  -1  15 6771.09 637.367   1
   3  -2  10 978.301 273.222   1
   3  -2  11 55554.2 2287.83   1
   3   2  12 33019.8 1356.65   1
   3  -2  12 30806.9 1567.32   1
   3   2  13 2813.80 298.592   1
   3  -2  13 2531.47 396.616   1
   3  -2  14 2337.17 420.192   1
   3  -2  15 1100.07 289.506   1
   3  -2  16 201.098 143.539   1
   3  -3  10 17033.6 1060.41   1
   3  -3  11 396.733 172.423   1
   3   3  12 8735.69 530.029   1
   3  -3  12 8656.03 778.114   1
   3   3  13 1698.66 222.389   1
   3  -3  13 1320.06 318.787   1
   3  -3  14 1209.17 323.597   1
   3  -3  15 886.164 269.867   1
   3  -3  16 46372.4 2203.08   1
   3  -3  17 167.164 152.283   1
   3  -4   9 20070.1 1209.34   1
   3  -4  10-59.7170 104.893   1
   3  -4  11 325.040 151.270   1
   3   4  12 44554.7 1603.28   1
   3  -4  12 46180.7 2260.33   1
   3  -4  13 4072.29 578.699   1
   3  -4  14 370.856 235.252   1
   3  -4  15 148.292 112.886   1
   3  -4  16 3001.89 502.088   1
   3  -4  17 9656.17 965.076   1
   3  -5   9 28765.7 1575.03   1
   3  -5  10 4786.05 589.463   1
   3  -5  11 5490.16 645.818   1
   3  -5  12 716.102 210.169   1
   3  -5  13 10058.7 980.011   1
   3  -5  14-59.4128 155.734   1
   3  -5  15 12212.4 1044.13   1
   3  -5  16 3406.59 555.309   1
   3  -6   8 1221.13 305.725   1
   3  -6   9 42821.6 2329.89   1
   3  -6  10 359.781 161.230   1
   3  -6  11 2497.58 477.413   1
   3  -6  12 7514.67 853.948   1
   3  -6  13 2076.46 464.832   1
   3  -6  14 15662.8 1264.00   1
   3  -7   7 18292.4 1280.20   1
   3  -7   8 7.22089 100.294   1
   3  -7   9 2761.19 499.166   1
   3  -7  10 56531.8 2814.14   1
   3  -7  11-120.102 171.423   1
   3  -7  12 194.719 167.877   1
   3  -8   6 22281.4 1449.10   1
   3  -8   7 1105.38 307.392   1
   3  -8   8 1012.16 289.432   1
   3  -8   9 667.840 325.118   1
   3  -8  10 1171.49 396.597   1
   3  -9   6 10686.3 1004.69   1
   3  -9   7 39188.1 2200.11   1
   3   9   7 37435.4 1813.69   1
   3  -9   8 2051.71 474.534   1
   3   9   8 1343.13 279.740   1
   3 -10   5 4684.52 679.684   1
   3  10   5 4906.60 543.937   1
   3 -10   6 18003.6 1487.38   1
   3  10   6 19903.8 1093.01   1
   3  10   7 4117.14 460.335   1
   3  11   2 12854.7 986.901   1
   3  11   3 15.4462 95.2590   1
   3 -11   4 7853.30 961.939   1
   3  11   4 11446.5 871.474   1
   3  11   5 194.309 122.854   1
   3  12   0-48.7568 93.0126   1
   3  12   1 15077.8 1171.99   1
   3  12   2 5010.81 619.700   1
   3  12   3 1582.40 347.723   1
   3  12   4 1170.59 276.448   1
   3  13   1 3685.07 550.370   1
   3  13   2 934.251 244.468   1
   3  13   3 4994.78 584.141   1
   4  -2  16 6303.92 699.344   1
   4  -3  16 60.6536 122.887   1
   4  -4  16 6818.75 875.821   1
   0   0   0    0.00    0.00   0
TITL Dat_p1_cr3_s1 in P2(1)/c
REM P2(1)/c (#14 in standard setting)
CELL 0.28960   4.787464   7.564012   9.601170  90.0000  90.2825  90.0000
ZERR    1.00   0.002560   0.000328   0.000464   0.0000   0.0130   0.0000
LATT  1
SYMM -x, y+1/2,-z+1/2
SFAC B O Ca
UNIT 1.00 1.00 1.00
TREF
HKLF 4
END
;
_shelx_hkl_checksum              12123
loop_
_space_group_symop_operation_xyz
'x, y, z'
'-x, y+1/2, -z+1/2'
'-x, -y, -z'
'x, -y-1/2, z-1/2'
loop_
_atom_site_label
_atom_site_type_symbol
_atom_site_fract_x
_atom_site_fract_y
_atom_site_fract_z
_atom_site_U_iso_or_equiv
_atom_site_adp_type
_atom_site_occupancy
_atom_site_site_symmetry_order
_atom_site_calc_flag
_atom_site_refinement_flags_posn
Ca1 Ca 0.0072(2) 0.60649(4) 0.16461(4) 0.0064(4) Uani 1 1 d .
Si1 Si 0.4717(3) 0.26743(6) 0.08421(5) 0.0048(6) Uani 1 1 d .
B1 B 0.5683(14) 0.0891(2) -0.1587(2) 0.005(3) Uani 1 1 d .
O1 O 0.2429(9) 0.40374(15) 0.03637(14) 0.0075(16) Uani 1 1 d .
O2 O 0.6750(8) 0.19836(15) -0.04188(13) 0.0051(16) Uani 1 1 d .
O3 O 0.6794(8) 0.33507(16) 0.21107(12) 0.0045(15) Uani 1 1 d .
O4 O 0.3126(8) 0.08946(15) 0.14543(14) 0.0070(16) Uani 1 1 d .
O5 O 0.2594(10) 0.08784(17) -0.16322(15) 0.006(2) Uani 1 1 d D
H H 0.193(13) 0.045(4) -0.086(3) 0.021(10) Uiso 1 1 d D
loop_
_atom_site_aniso_label
_atom_site_aniso_U_11
_atom_site_aniso_U_22
_atom_site_aniso_U_33
_atom_site_aniso_U_23
_atom_site_aniso_U_13
_atom_site_aniso_U_12
Ca1 0.0060(14) 0.00703(14) 0.00609(14) 0.00003(8) 0.0005(3) 0.00009(18)
Si1 0.0061(19) 0.00433(18) 0.00385(18) -0.00012(12) -0.0001(4) 0.0002(3)
B1 0.006(8) 0.0050(6) 0.0042(6) 0.0001(4) 0.0001(16) 0.0002(10)
O1 0.008(5) 0.0072(4) 0.0070(4) -0.0001(3) -0.0011(11) 0.0035(7)
O2 0.003(5) 0.0076(4) 0.0042(4) -0.0018(3) 0.0024(10) -0.0006(7)
O3 0.002(5) 0.0081(4) 0.0037(4) -0.0018(3) 0.0010(10) 0.0006(7)
O4 0.008(5) 0.0045(4) 0.0087(5) 0.0010(3) 0.0023(11) -0.0003(7)
O5 0.001(6) 0.0094(5) 0.0066(5) 0.0010(4) 0.0009(13) -0.0006(8)
loop_
_atom_type_symbol
_atom_type_description
_atom_type_scat_dispersion_real
_atom_type_scat_dispersion_imag
_atom_type_scat_source
O O 0.0056 0.0036 'International Tables Vol C Tables 4.2.6.8 and 6.1.1.4'
Si Si 0.0522 0.0431 'International Tables Vol C Tables 4.2.6.8 and 6.1.1.4'
B B 0.0004 0.0004 'International Tables Vol C Tables 4.2.6.8 and 6.1.1.4'
Ca Ca 0.1611 0.1926 'International Tables Vol C Tables 4.2.6.8 and 6.1.1.4'
H H 0.0000 0.0000 'International Tables Vol C Tables 4.2.6.8 and 6.1.1.4'
loop_
_geom_angle_atom_site_label_1
_geom_angle_atom_site_label_2
_geom_angle_atom_site_label_3
_geom_angle
_geom_angle_site_symmetry_1
_geom_angle_site_symmetry_3
O1 Ca1 O1 77.12(13) 3_565 .
O1 Ca1 O4 108.05(13) 3_565 2
O1 Ca1 O4 134.36(7) . 2
O1 Ca1 O2 86.41(10) 3_565 3_665
O1 Ca1 O2 80.41(9) . 3_665
O4 Ca1 O2 143.90(5) 2 3_665
O1 Ca1 O5 142.08(5) 3_565 4_566
O1 Ca1 O5 73.95(7) . 4_566
O4 Ca1 O5 76.96(11) 2 4_566
O2 Ca1 O5 111.97(14) 3_665 4_566
O1 Ca1 O3 136.10(5) 3_565 2_655
O1 Ca1 O3 114.49(12) . 2_655
O4 Ca1 O3 93.23(8) 2 2_655
O2 Ca1 O3 56.81(6) 3_665 2_655
O5 Ca1 O3 79.13(7) 4_566 2_655
O1 Ca1 O3 78.71(8) 3_565 1_455
O1 Ca1 O3 82.12(10) . 1_455
O4 Ca1 O3 56.10(6) 2 1_455
O2 Ca1 O3 159.17(5) 3_665 1_455
O5 Ca1 O3 73.54(10) 4_566 1_455
O3 Ca1 O3 142.49(4) 2_655 1_455
O1 Ca1 O5 76.84(7) 3_565 3_565
O1 Ca1 O5 146.11(5) . 3_565
O4 Ca1 O5 74.91(8) 2 3_565
O2 Ca1 O5 76.67(12) 3_665 3_565
O5 Ca1 O5 138.16(4) 4_566 3_565
O3 Ca1 O5 72.26(10) 2_655 3_565
O3 Ca1 O5 113.35(12) 1_455 3_565
O1 Ca1 B1 110.89(8) 3_565 3_665
O1 Ca1 B1 99.55(13) . 3_665
O4 Ca1 B1 118.73(8) 2 3_665
O2 Ca1 B1 28.30(5) 3_665 3_665
O5 Ca1 B1 97.74(10) 4_566 3_665
O3 Ca1 B1 28.64(6) 2_655 3_665
O3 Ca1 B1 170.40(6) 1_455 3_665
O5 Ca1 B1 70.34(12) 3_565 3_665
O1 Ca1 B1 95.36(12) 3_565 4_466
O1 Ca1 B1 108.41(9) . 4_466
O4 Ca1 B1 27.64(5) 2 4_466
O2 Ca1 B1 171.19(8) 3_665 4_466
O5 Ca1 B1 71.60(12) 4_566 4_466
O3 Ca1 B1 117.61(7) 2_655 4_466
O3 Ca1 B1 28.55(6) 1_455 4_466
O5 Ca1 B1 95.29(11) 3_565 4_466
B1 Ca1 B1 145.30(6) 3_665 4_466
O1 Ca1 Si1 21.64(6) 3_565 3_565
O1 Ca1 Si1 98.16(6) . 3_565
O4 Ca1 Si1 96.75(8) 2 3_565
O2 Ca1 Si1 84.92(7) 3_665 3_565
O5 Ca1 Si1 159.19(7) 4_566 3_565
O3 Ca1 Si1 121.35(4) 2_655 3_565
O3 Ca1 Si1 86.43(6) 1_455 3_565
O5 Ca1 Si1 55.46(5) 3_565 3_565
B1 Ca1 Si1 102.61(7) 3_665 3_565
B1 Ca1 Si1 93.52(9) 4_466 3_565
O1 Ca1 Si1 96.97(7) 3_565 .
O1 Ca1 Si1 20.45(5) . .
O4 Ca1 Si1 122.77(5) 2 .
O2 Ca1 Si1 86.44(8) 3_665 .
O5 Ca1 Si1 53.90(6) 4_566 .
O3 Ca1 Si1 103.05(8) 2_655 .
O3 Ca1 Si1 81.06(7) 1_455 .
O5 Ca1 Si1 162.26(8) 3_565 .
B1 Ca1 Si1 97.16(11) 3_665 .
B1 Ca1 Si1 101.88(8) 4_466 .
Si1 Ca1 Si1 118.33(3) 3_565 .
O1 Si1 O2 114.09(11) . .
O1 Si1 O3 115.41(10) . .
O2 Si1 O3 106.59(18) . .
O1 Si1 O4 108.42(19) . .
O2 Si1 O4 106.16(11) . .
O3 Si1 O4 105.46(10) . .
O1 Si1 Ca1 32.14(5) . 3_565
O2 Si1 Ca1 88.38(10) . 3_565
O3 Si1 Ca1 145.53(6) . 3_565
O4 Si1 Ca1 99.55(11) . 3_565
O1 Si1 Ca1 30.33(6) . .
O2 Si1 Ca1 141.15(6) . .
O3 Si1 Ca1 89.50(10) . .
O4 Si1 Ca1 102.98(13) . .
Ca1 Si1 Ca1 61.67(3) 3_565 .
O1 Si1 Ca1 88.39(13) . 2_545
O2 Si1 Ca1 141.13(6) . 2_545
O3 Si1 Ca1 89.64(11) . 2_545
O4 Si1 Ca1 34.98(9) . 2_545
Ca1 Si1 Ca1 97.84(5) 3_565 2_545
Ca1 Si1 Ca1 71.75(3) . 2_545
O1 Si1 Ca1 96.71(12) . 3_665
O2 Si1 Ca1 34.72(7) . 3_665
O3 Si1 Ca1 89.46(12) . 3_665
O4 Si1 Ca1 140.73(10) . 3_665
Ca1 Si1 Ca1 85.83(3) 3_565 3_665
Ca1 Si1 Ca1 113.46(3) . 3_665
Ca1 Si1 Ca1 174.70(3) 2_545 3_665
O4 B1 O3 106.8(3) 3_655 4_565
O4 B1 O5 112.5(3) 3_655 .
O3 B1 O5 110.0(3) 4_565 .
O4 B1 O2 108.3(3) 3_655 .
O3 B1 O2 107.5(3) 4_565 .
O5 B1 O2 111.5(3) . .
O4 B1 Ca1 115.7(4) 3_655 3_665
O3 B1 Ca1 56.80(17) 4_565 3_665
O5 B1 Ca1 131.74(13) . 3_665
O2 B1 Ca1 50.99(19) . 3_665
O4 B1 Ca1 48.91(19) 3_655 4_665
O3 B1 Ca1 58.10(19) 4_565 4_665
O5 B1 Ca1 131.62(13) . 4_665
O2 B1 Ca1 116.8(4) . 4_665
Ca1 B1 Ca1 84.09(16) 3_665 4_665
Si1 O1 Ca1 126.22(8) . 3_565
Si1 O1 Ca1 129.22(7) . .
Ca1 O1 Ca1 102.88(13) 3_565 .
B1 O2 Si1 122.1(4) . .
B1 O2 Ca1 100.7(2) . 3_665
Si1 O2 Ca1 122.63(7) . 3_665
B1 O3 Si1 121.8(3) 4_566 .
B1 O3 Ca1 94.56(15) 4_566 2_645
Si1 O3 Ca1 118.76(7) . 2_645
B1 O3 Ca1 93.35(17) 4_566 1_655
Si1 O3 Ca1 118.42(7) . 1_655
Ca1 O3 Ca1 104.85(12) 2_645 1_655
B1 O4 Si1 126.8(3) 3_655 .
B1 O4 Ca1 103.5(2) 3_655 2_545
Si1 O4 Ca1 121.63(9) . 2_545
B1 O5 Ca1 119.96(16) . 4_565
B1 O5 Ca1 118.52(12) . 3_565
Ca1 O5 Ca1 106.13(13) 4_565 3_565
B1 O5 H 110(4) . .
Ca1 O5 H 99(3) 4_565 .
Ca1 O5 H 99(3) 3_565 .
loop_
_geom_bond_atom_site_label_1
_geom_bond_atom_site_label_2
_geom_bond_distance
_geom_bond_site_symmetry_2
Ca1 O1 2.267(2) 3_565
Ca1 O1 2.270(3) .
Ca1 O4 2.391(3) 2
Ca1 O2 2.429(3) 3_665
Ca1 O5 2.516(2) 4_566
Ca1 O3 2.578(2) 2_655
Ca1 O3 2.624(3) 1_455
Ca1 O5 2.641(3) 3_565
Ca1 B1 3.071(5) 3_665
Ca1 B1 3.085(5) 4_466
Ca1 Si1 3.4379(14) 3_565
Ca1 Si1 3.4834(15) .
Si1 O1 1.571(3) .
Si1 O2 1.642(3) .
Si1 O3 1.650(2) .
Si1 O4 1.656(2) .
Si1 Ca1 3.4379(14) 3_565
Si1 Ca1 3.5510(16) 2_545
Si1 Ca1 3.5914(17) 3_665
B1 O4 1.472(3) 3_655
B1 O3 1.477(4) 4_565
B1 O5 1.480(7) .
B1 O2 1.482(3) .
B1 Ca1 3.071(5) 3_665
B1 Ca1 3.085(5) 4_665
O1 Ca1 2.267(2) 3_565
O2 Ca1 2.429(3) 3_665
O3 B1 1.477(4) 4_566
O3 Ca1 2.578(2) 2_645
O3 Ca1 2.624(3) 1_655
O4 B1 1.472(3) 3_655
O4 Ca1 2.391(3) 2_545
O5 Ca1 2.516(2) 4_565
O5 Ca1 2.641(3) 3_565
O5 H 0.87(2) .
