#------------------------------------------------------------------------------
#$Date: 2019-11-24 06:02:49 +0200 (Sun, 24 Nov 2019) $
#$Revision: 236893 $
#$URL: file:///home/coder/svn-repositories/cod/cif/4/34/98/4349850.cif $
#------------------------------------------------------------------------------
#
# This file is available in the Crystallography Open Database (COD),
# http://www.crystallography.net/
#
# All data on this site have been placed in the public domain by the
# contributors.
#
data_4349850
loop_
_publ_author_name
'Gorelova, Liudmila A.'
'Pakhomova, Anna S.'
'Aprilis, Georgios'
'Dubrovinsky, Leonid S.'
'Krivovichev, Sergey V.'
_publ_section_title
;
 Pentacoordinated silicon in the high-pressure modification of datolite,
 CaBSiO4(OH)
;
_journal_issue                   7
_journal_name_full               'Inorganic Chemistry Frontiers'
_journal_page_first              1653
_journal_paper_doi               10.1039/C8QI00257F
_journal_volume                  5
_journal_year                    2018
_chemical_formula_sum            'B Ca H O5 Si'
_chemical_formula_weight         159.99
_space_group_crystal_system      monoclinic
_space_group_IT_number           14
_space_group_name_Hall           '-P 2ybc'
_space_group_name_H-M_alt        'P 1 21/c 1'
_atom_sites_solution_hydrogens   difmap
_audit_creation_method           SHELXL-2014/7
_audit_update_record
;
2018-03-21 deposited with the CCDC.
2018-05-04 downloaded from the CCDC.
;
_cell_angle_alpha                90
_cell_angle_beta                 90.729(17)
_cell_angle_gamma                90
_cell_formula_units_Z            4
_cell_length_a                   4.6378(17)
_cell_length_b                   7.4034(4)
_cell_length_c                   9.4840(6)
_cell_measurement_reflns_used    1733
_cell_measurement_temperature    298(2)
_cell_measurement_theta_max      17.349
_cell_measurement_theta_min      1.465
_cell_volume                     325.61(12)
_computing_structure_refinement  'SHELXL-2014/7 (Sheldrick, 2014)'
_diffrn_ambient_temperature      298(2)
_diffrn_measured_fraction_theta_full 0.552
_diffrn_measured_fraction_theta_max 0.325
_diffrn_measurement_device_type
'esperanto-CrysAlisPro-abstract goniometer imported esperanto images'
_diffrn_radiation_wavelength     0.2984
_diffrn_reflns_av_R_equivalents  0.0290
_diffrn_reflns_av_unetI/netI     0.0365
_diffrn_reflns_Laue_measured_fraction_full 0.552
_diffrn_reflns_Laue_measured_fraction_max 0.325
_diffrn_reflns_limit_h_max       5
_diffrn_reflns_limit_h_min       -4
_diffrn_reflns_limit_k_max       13
_diffrn_reflns_limit_k_min       -14
_diffrn_reflns_limit_l_max       19
_diffrn_reflns_limit_l_min       -17
_diffrn_reflns_number            1733
_diffrn_reflns_point_group_measured_fraction_full 0.552
_diffrn_reflns_point_group_measured_fraction_max 0.325
_diffrn_reflns_theta_full        10.314
_diffrn_reflns_theta_max         17.349
_diffrn_reflns_theta_min         1.465
_exptl_absorpt_coefficient_mu    1.111
_exptl_crystal_colour            colorless
_exptl_crystal_density_diffrn    3.264
_exptl_crystal_density_meas      ?
_exptl_crystal_density_method    none
_exptl_crystal_description       isosymmetric
_exptl_crystal_F_000             320
_exptl_crystal_size_max          0.010
_exptl_crystal_size_mid          0.010
_exptl_crystal_size_min          0.005
_refine_diff_density_max         1.434
_refine_diff_density_min         -1.655
_refine_diff_density_rms         0.336
_refine_ls_extinction_coef       0.7(2)
_refine_ls_extinction_expression Fc^*^=kFc[1+0.001xFc^2^\l^3^/sin(2\q)]^-1/4^
_refine_ls_extinction_method     'SHELXL-2014/7 (Sheldrick 2014'
_refine_ls_goodness_of_fit_ref   1.208
_refine_ls_hydrogen_treatment    refall
_refine_ls_matrix_type           full
_refine_ls_number_parameters     78
_refine_ls_number_reflns         884
_refine_ls_number_restraints     1
_refine_ls_restrained_S_all      1.207
_refine_ls_R_factor_all          0.0572
_refine_ls_R_factor_gt           0.0480
_refine_ls_shift/su_max          0.000
_refine_ls_shift/su_mean         0.000
_refine_ls_structure_factor_coef Fsqd
_refine_ls_weighting_details
'w=1/[\s^2^(Fo^2^)+(0.1541P)^2^] where P=(Fo^2^+2Fc^2^)/3'
_refine_ls_weighting_scheme      calc
_refine_ls_wR_factor_gt          0.1709
_refine_ls_wR_factor_ref         0.2087
_reflns_Friedel_coverage         0.000
_reflns_number_gt                790
_reflns_number_total             884
_reflns_threshold_expression     'I > 2\s(I)'
_cod_data_source_file            c8qi00257f2.cif
_cod_data_source_block           shelx_CCDC4
_cod_depositor_comments
;
The following automatic conversions were performed:

data item '_exptl_crystal_density_meas' value 'none' was changed to
'?' -- the value is perceived as not measured.

Automatic conversion script
Id: cif_fix_values 6909 2019-04-08 15:41:33Z antanas 
;
_cod_original_sg_symbol_H-M      'P 21/c'
_cod_database_code               4349850
_shelx_shelxl_version_number     2014/7
_shelx_space_group_comment
;
The symmetry employed for this shelxl refinement is uniquely defined
by the following loop, which should always be used as a source of
symmetry information in preference to the above space-group names.
They are only intended as comments.
;
_shelx_res_file
;

    shelx.res created by SHELXL-2014/7


TITL p01_cr2_s1 in P2(1)/c
REM P2(1)/c (#14 in standard setting)
CELL 0.29840   4.637815   7.403433   9.484018  90.0000  90.7286  90.0000
ZERR    4.00   0.001729   0.000413   0.000600   0.0000   0.0167   0.0000
LATT  1
SYMM -x, y+1/2,-z+1/2
SFAC O Si B Ca H
UNIT 20.00 4.00 4.00 4.00 4.00

L.S. 20
ACTA
BOND $H
HTAB
DFIX 0.90 0.02 H O5
TEMP 25.0
FMAP 2
PLAN 250
REM TWIN 1 0 0 0 1 0 0 0 -1
WGHT    0.154100
EXTI    0.669781
FVAR       8.77111
CA1   4    0.005619    0.608086    0.167150    11.00000    0.02067    0.00519 =
         0.00591   -0.00010   -0.00178   -0.00023
SI1   2    0.479556    0.273331    0.082976    11.00000    0.01850    0.00342 =
         0.00380   -0.00004   -0.00147    0.00019
B1    3    0.575720    0.086215   -0.156289    11.00000    0.01576    0.00388 =
         0.00344   -0.00023   -0.00088   -0.00082
O1    1    0.248949    0.413533    0.033455    11.00000    0.02015    0.00512 =
         0.00656    0.00016   -0.00203    0.00159
O2    1    0.692373    0.196022   -0.039382    11.00000    0.02188    0.00515 =
         0.00631   -0.00191   -0.00346    0.00023
O3    1    0.694887    0.337431    0.211992    11.00000    0.02334    0.00581 =
         0.00515   -0.00133   -0.00447    0.00038
O4    1    0.307361    0.095232    0.143113    11.00000    0.02270    0.00292 =
         0.01014   -0.00007   -0.00171    0.00071
O5    1    0.259590    0.089280   -0.162555    11.00000    0.02062    0.00652 =
         0.00697   -0.00048   -0.00201    0.00002
H     5    0.224026    0.041871   -0.079196    11.00000    0.04300

HKLF 4

REM  p01_cr2_s1 in P2(1)/c
REM R1 =  0.0480 for     790 Fo > 4sig(Fo)  and  0.0572 for all     884 data
REM     78 parameters refined using      1 restraints

END

WGHT      0.1568      0.0356

REM Instructions for potential hydrogen bonds
EQIV $1 -x+1, -y, -z
HTAB O5 O2_$1
HTAB O5 O4

REM Highest difference peak  1.434,  deepest hole -1.655,  1-sigma level  0.336
Q1    1  -0.1360  0.5598  0.1768  11.00000  0.05    1.43
Q2    1   0.0416  0.6060  0.2226  11.00000  0.05    1.26
Q3    1   0.2725 -0.0594 -0.2485  11.00000  0.05    1.17
Q4    1   0.3274  0.5258 -0.0169  11.00000  0.05    1.08
Q5    1   0.4700  0.4596 -0.0063  11.00000  0.05    1.06
Q6    1  -0.1463  0.6576  0.1794  11.00000  0.05    1.06
Q7    1   0.3321  0.4558  0.1247  11.00000  0.05    1.06
Q8    1   0.5745  0.5043  0.1430  11.00000  0.05    1.04
Q9    1   0.0147  0.4334  0.0670  11.00000  0.05    0.96
Q10   1   0.1245  0.6551  0.0870  11.00000  0.05    0.95
Q11   1   0.5540  0.1008  0.2291  11.00000  0.05    0.92
Q12   1  -0.0306  0.0271 -0.1519  11.00000  0.05    0.89
Q13   1   0.5794  0.2341 -0.0034  11.00000  0.05    0.89
Q14   1   0.8989  0.1031 -0.1605  11.00000  0.05    0.88
Q15   1   0.3804  0.5380  0.1198  11.00000  0.05    0.87
Q16   1   0.0989  0.0472 -0.1318  11.00000  0.05    0.86
Q17   1   0.1788  0.4996  0.1000  11.00000  0.05    0.86
Q18   1   0.0998  0.5488 -0.0490  11.00000  0.05    0.86
Q19   1   0.4070  0.0011 -0.2305  11.00000  0.05    0.85
Q20   1   0.3235  0.0720  0.0761  11.00000  0.05    0.84
Q21   1   0.2931  0.0995 -0.0978  11.00000  0.05    0.84
Q22   1   0.5310  0.1125 -0.2104  11.00000  0.05    0.84
Q23   1   0.0202  0.5005  0.2283  11.00000  0.05    0.84
Q24   1  -0.0766  0.6655  0.0593  11.00000  0.05    0.80
Q25   1   0.3372  0.3207  0.0920  11.00000  0.05    0.79
Q26   1   0.0868  0.1160 -0.2735  11.00000  0.05    0.79
Q27   1   0.1253  0.5313  0.0980  11.00000  0.05    0.78
Q28   1   0.0220  0.1966  0.1688  11.00000  0.05    0.77
Q29   1  -0.3160  0.6014  0.1617  11.00000  0.05    0.76
Q30   1   0.8707  0.4106  0.2085  11.00000  0.05    0.76
Q31   1   0.2686  0.3830 -0.0428  11.00000  0.05    0.76
Q32   1   0.9106  0.3480  0.1977  11.00000  0.05    0.76
Q33   1   0.4840 -0.0166 -0.2205  11.00000  0.05    0.75
Q34   1   0.5645  0.1016  0.1064  11.00000  0.05    0.75
Q35   1   0.4621  0.1589  0.0652  11.00000  0.05    0.75
Q36   1   0.2909  0.6161  0.0972  11.00000  0.05    0.74
Q37   1   0.7897  0.2076 -0.0435  11.00000  0.05    0.74
Q38   1   0.6518  0.0876 -0.0413  11.00000  0.05    0.73
Q39   1   0.2107  0.4010  0.0990  11.00000  0.05    0.73
Q40   1   0.2963  0.3309  0.1490  11.00000  0.05    0.72
Q41   1   0.3515  0.0790  0.1995  11.00000  0.05    0.72
Q42   1   0.8231  0.2598 -0.1053  11.00000  0.05    0.71
Q43   1   0.2198 -0.0564 -0.1233  11.00000  0.05    0.70
Q44   1   0.3834  0.2210 -0.2181  11.00000  0.05    0.70
Q45   1   0.4352  0.4252 -0.1366  11.00000  0.05    0.69
Q46   1   0.7240  0.0548 -0.1962  11.00000  0.05    0.69
Q47   1   0.0165  0.6043  0.0899  11.00000  0.05    0.68
Q48   1   0.2483 -0.0017 -0.1093  11.00000  0.05    0.68
Q49   1   0.2393 -0.0205  0.0317  11.00000  0.05    0.68
Q50   1  -0.0158  0.5367  0.0419  11.00000  0.05    0.68
Q51   1   0.3202  0.2757 -0.0299  11.00000  0.05    0.68
Q52   1   0.1736  0.6124 -0.0372  11.00000  0.05    0.68
Q53   1   0.4918  0.2718  0.1601  11.00000  0.05    0.68
Q54   1   0.2295  0.1656  0.1994  11.00000  0.05    0.67
Q55   1   0.1706  0.1044  0.1525  11.00000  0.05    0.67
Q56   1   0.7018  0.4515  0.1948  11.00000  0.05    0.66
Q57   1   0.5194  0.0558 -0.0733  11.00000  0.05    0.65
Q58   1   0.5841  0.1644 -0.0526  11.00000  0.05    0.65
Q59   1   0.5735  0.1970 -0.1959  11.00000  0.05    0.63
Q60   1   0.1583  0.0496 -0.2507  11.00000  0.05    0.62
Q61   1   0.7032  0.1408 -0.1773  11.00000  0.05    0.61
Q62   1   0.4381 -0.0003 -0.0921  11.00000  0.05    0.59
Q63   1   0.0920  0.3650  0.0672  11.00000  0.05    0.58
Q64   1   0.5277  0.3875  0.1606  11.00000  0.05    0.58
Q65   1   0.4065  0.2661 -0.1491  11.00000  0.05    0.58
Q66   1   0.0474  0.0530  0.1366  11.00000  0.05    0.57
Q67   1   0.4869  0.3862  0.0330  11.00000  0.05    0.57
Q68   1   0.1922  0.1773 -0.2522  11.00000  0.05    0.57
Q69   1   0.0003  0.4966  0.1757  11.00000  0.05    0.55
Q70   1   0.7400  0.2956  0.1545  11.00000  0.05    0.55
Q71   1   0.1699  0.2778  0.0715  11.00000  0.05    0.55
Q72   1   0.1615  0.0979  0.0463  11.00000  0.05    0.55
Q73   1   0.6489  0.1601  0.2592  11.00000  0.05    0.55
Q74   1   0.1170  0.3522  0.1270  11.00000  0.05    0.54
Q75   1   0.3303  0.1335 -0.2263  11.00000  0.05    0.54
Q76   1   0.3731  0.3561  0.0185  11.00000  0.05    0.53
Q77   1   0.0115  0.0749  0.0196  11.00000  0.05    0.53
Q78   1   0.6384  0.3244 -0.1203  11.00000  0.05    0.52
Q79   1   0.7076  0.2224  0.2028  11.00000  0.05    0.51
Q80   1   0.0217  0.7325  0.1954  11.00000  0.05    0.50
Q81   1   0.6072  0.2260  0.0778  11.00000  0.05    0.50
Q82   1   0.1215 -0.0650  0.0103  11.00000  0.05    0.50
Q83   1   0.3918  0.2092  0.2210  11.00000  0.05    0.50
Q84   1   0.1341  0.2225 -0.1707  11.00000  0.05    0.50
Q85   1   0.3042  0.2003 -0.0725  11.00000  0.05    0.49
Q86   1   0.8387  0.0974 -0.0219  11.00000  0.05    0.49
Q87   1   0.5459  0.3431 -0.1390  11.00000  0.05    0.48
Q88   1   0.1801 -0.1558 -0.1380  11.00000  0.05    0.46
Q89   1   0.1005  0.2069 -0.2870  11.00000  0.05    0.46
Q90   1   0.2328  0.2207 -0.0723  11.00000  0.05    0.45
Q91   1   0.0647  0.0533  0.1995  11.00000  0.05    0.45
Q92   1   0.0000  0.0000  0.0000  10.50000  0.05    0.45
Q93   1   0.7104  0.1981  0.0089  11.00000  0.05    0.44
Q94   1   0.0403  0.1664 -0.1071  11.00000  0.05    0.44
Q95   1   0.0557 -0.1263 -0.1562  11.00000  0.05    0.44
Q96   1   0.6364  0.2191 -0.1246  11.00000  0.05    0.44
Q97   1   0.7883  0.3973  0.1383  11.00000  0.05    0.44
Q98   1   0.1361  0.6539  0.1603  11.00000  0.05    0.44
Q99   1   0.0343  0.2764  0.1116  11.00000  0.05    0.44
Q100  1   0.4659  0.2897  0.0218  11.00000  0.05    0.43
Q101  1   0.4050  0.2380  0.0885  11.00000  0.05    0.42
Q102  1   0.3619  0.2210  0.1480  11.00000  0.05    0.42
Q103  1   0.9561  0.1777 -0.1177  11.00000  0.05    0.41
Q104  1   1.0007  0.2332  0.0433  11.00000  0.05    0.41
Q105  1   0.0864  0.1223 -0.1423  11.00000  0.05    0.41
Q106  1   0.8438  0.2367  0.0882  11.00000  0.05    0.40
Q107  1   0.0707  0.1689 -0.0094  11.00000  0.05    0.40
Q108  1   0.5948  0.3269 -0.0118  11.00000  0.05    0.39
Q109  1   0.7401  0.2237  0.2857  11.00000  0.05    0.39
Q110  1   0.8976  0.4390  0.1686  11.00000  0.05    0.38
Q111  1   0.8672  0.2626  0.2159  11.00000  0.05    0.38
Q112  1   0.2879  0.1779 -0.1477  11.00000  0.05    0.37
Q113  1   0.7830  0.2640  0.0201  11.00000  0.05    0.37
Q114  1  -0.1041  0.6516  0.2451  11.00000  0.05    0.36
Q115  1   0.0743  0.6867  0.2706  11.00000  0.05    0.36
Q116  1   0.9559  0.2602  0.2302  11.00000  0.05    0.36
Q117  1   0.7985  0.1616 -0.1110  11.00000  0.05    0.35
Q118  1   0.5431  0.1765  0.1779  11.00000  0.05    0.33
Q119  1  -0.1552  0.7262  0.2374  11.00000  0.05    0.30
Q120  1   0.1466  0.2747 -0.0074  11.00000  0.05    0.30
Q121  1   0.9147  0.1663  0.0269  11.00000  0.05    0.30
Q122  1   0.1338  0.5637  0.1602  11.00000  0.05    0.29
Q123  1   0.4984  0.0614 -0.1608  11.00000  0.05    0.29
Q124  1   0.4684  0.3246  0.2312  11.00000  0.05    0.29
Q125  1   0.2069  0.2033  0.0175  11.00000  0.05    0.28
Q126  1  -0.0894  0.5512  0.2332  11.00000  0.05    0.28
Q127  1   0.3815  0.3223 -0.1030  11.00000  0.05    0.28
Q128  1   0.7911  0.2804  0.2703  11.00000  0.05    0.27
Q129  1   0.0979  0.4576  0.1817  11.00000  0.05    0.27
Q130  1   0.9013  0.3194  0.2799  11.00000  0.05    0.24
Q131  1  -0.2732  0.7028  0.1181  11.00000  0.05    0.24
Q132  1   0.2568  0.2784  0.2117  11.00000  0.05    0.24
Q133  1   0.3975 -0.0615 -0.0420  11.00000  0.05    0.23
Q134  1   0.6895  0.3112  0.2502  11.00000  0.05    0.21
Q135  1   0.4836  0.0654  0.2976  11.00000  0.05    0.21
Q136  1   0.6289  0.3221  0.0545  11.00000  0.05    0.20
Q137  1   0.2988  0.0212 -0.3000  11.00000  0.05    0.19
Q138  1   0.3429  0.6080  0.1785  11.00000  0.05    0.15
Q139  1   0.9258  0.2958 -0.0023  11.00000  0.05    0.14
Q140  1   0.3622  0.0442  0.2907  11.00000  0.05    0.12
Q141  1   0.8579  0.0622 -0.0901  11.00000  0.05    0.11
Q142  1   0.6328  0.1027 -0.1199  11.00000  0.05    0.10
Q143  1   0.2663  0.0384 -0.0296  11.00000  0.05    0.05
;
_shelx_res_checksum              90657
_shelx_hkl_file
;
   0   0   3 31.3934 12.0374   1
   0   0  -3 24.3278 13.0607   1
   0   0   4 127126. 1254.87   1
   0   0  -4 129817. 1303.91   1
   0   0   5 18.8688 26.0135   1
   0   0  -5 15.0332 12.7638   1
   0   0   6 163564. 1900.65   1
   0   0  -6 154663. 1812.99   1
   0   0  -7 16.2278 27.3792   1
   0   0   7 25.7661 35.4566   1
   0   0   8 116855. 1791.17   1
   0   0  -8 114837. 1739.22   1
   0   0  -9 26.2952 39.4196   1
   0   0   9 36.0382 59.8075   1
   0   0  10 53393.3 1336.13   1
   0   0 -10 50609.1 1340.33   1
   0   0 -11 59.3330 79.1255   1
   0   0  11 20.4610 33.8899   1
   0   0 -12 95518.9 2054.41   1
   0   0  12 98687.5 2019.95   1
   0   0 -13-36.9387 58.4646   1
   0   0  13 61.9812 33.0009   1
   0   0  14 715.363 198.133   1
   0   0 -14 896.896 224.700   1
   0   0 -15 81.8713 59.1600   1
   0   0  15-21.8101 42.9761   1
   0   0  16 98036.2 2369.92   1
   0   0 -16 98724.8 2758.19   1
   0   0 -17 50.3579 67.1571   1
   0  -1  -1 13876.2 315.813   1
   0   1   1 14813.9 344.605   1
   0  -1  -2 287.502 49.6222   1
   0   1   2 280.450 56.0129   1
   0  -1  -3 2868.75 196.367   1
   0   1   3 3260.81 224.447   1
   0   1  -4 128742. 1069.44   1
   0  -1   4 129782. 1080.39   1
   0  -1  -4 130436. 1489.48   1
   0  -1   5 51107.5 790.238   1
   0   1  -5 51365.0 790.735   1
   0  -1  -5 53324.7 1046.42   1
   0   1   5 53161.3 1081.67   1
   0   1   6 348.835 96.4907   1
   0  -1   6 650.370 112.356   1
   0   1  -6 602.366 96.4758   1
   0  -1  -6 288.701 75.6282   1
   0  -1   7 17423.1 618.249   1
   0   1   7 19265.3 737.813   1
   0   1  -7 17761.0 579.456   1
   0  -1  -7 19932.7 754.868   1
   0  -1   8 245562. 2428.25   1
   0   1  -8 234805. 2330.03   1
   0   1   8 236885. 2734.62   1
   0  -1  -8 247341. 2906.59   1
   0   1   9 5535.46 430.020   1
   0   1  -9 5407.34 370.190   1
   0  -1  -9 5596.11 434.337   1
   0  -1   9 5480.93 380.542   1
   0  -1  10 3326.73 306.662   1
   0   1  10 3194.68 343.485   1
   0  -1 -10 3428.52 364.889   1
   0   1 -10 3098.93 302.152   1
   0  -1  11 16493.9 743.046   1
   0  -1 -11 16818.8 841.584   1
   0   1  11 16641.4 818.841   1
   0   1 -11 15784.9 775.048   1
   0   1  12 622.976 170.055   1
   0  -1 -12 569.935 168.373   1
   0   1 -12 449.156 140.983   1
   0  -1  12 397.910 126.120   1
   0  -1  13 355.462 127.379   1
   0   1  13 238.696 106.099   1
   0  -1 -13 314.978 122.392   1
   0   1 -13 256.013 102.320   1
   0   1 -14 519.328 164.675   1
   0  -1 -14 623.346 186.674   1
   0  -1  14 704.832 168.668   1
   0   1  14 749.612 196.755   1
   0   1 -15 15763.8 1043.78   1
   0  -1 -15 16081.2 1051.03   1
   0   1  15 15147.5 968.096   1
   0  -1  15 16194.6 872.857   1
   0  -1 -16 77969.9 2486.73   1
   0   1 -16 73459.0 2357.18   1
   0   1  16 74078.3 2162.09   1
   0   1  17 2869.77 527.388   1
   0  -1 -17 2407.22 465.545   1
   0   2   0 29025.3 487.023   1
   0  -2   0 28181.9 517.766   1
   0   2   1 1113.60 111.930   1
   0  -2  -1 1049.24 110.624   1
   0  -2  -2 64751.5 981.058   1
   0   2   2 66174.0 1002.00   1
   0  -2  -3 13054.6 484.780   1
   0   2   3 13147.9 485.808   1
   0  -2  -4 10261.8 464.576   1
   0   2   4 10892.7 476.553   1
   0  -2  -5 251662. 2528.91   1
   0  -2   5 253622. 1459.95   1
   0   2   5 254478. 2575.79   1
   0   2   6 192661. 2345.45   1
   0   2  -6 196723. 1668.39   1
   0  -2  -6 190552. 2358.16   1
   0  -2   7 2785.23 224.584   1
   0   2   7 3672.90 331.187   1
   0   2  -7 3034.36 233.712   1
   0  -2  -7 3578.09 342.090   1
   0  -2  -8 15160.7 761.113   1
   0  -2   8 15564.0 552.382   1
   0   2   8 15239.9 730.878   1
   0   2  -8 15343.5 585.873   1
   0  -2  -9 382.587 119.342   1
   0  -2   9 218.367 92.6008   1
   0   2   9 462.957 148.817   1
   0   2  -9 137.176 60.6689   1
   0   2  10 30261.7 1122.80   1
   0   2 -10 31617.7 1006.58   1
   0  -2 -10 30815.3 1198.55   1
   0  -2  10 32637.8 920.333   1
   0   2  11 42043.2 1388.17   1
   0   2 -11 44141.9 1306.79   1
   0  -2 -11 42787.9 1438.18   1
   0  -2  11 46795.6 1166.12   1
   0   2 -12 642.247 167.346   1
   0   2  12 611.263 171.732   1
   0  -2  12 736.476 147.201   1
   0  -2 -12 446.684 151.611   1
   0   2 -13 15707.3 876.881   1
   0  -2  13 17803.5 794.932   1
   0  -2 -13 15422.8 946.647   1
   0  -2  14 6305.53 493.205   1
   0   2 -14 6339.89 582.172   1
   0   2  14 6499.26 599.118   1
   0  -2 -14 6087.06 622.093   1
   0   2 -15 6648.14 614.148   1
   0   2  15 6672.91 619.119   1
   0  -2 -15 6515.08 676.289   1
   0  -2 -16 440.945 188.185   1
   0   2  16 422.487 180.505   1
   0   2  17 268.994 218.343   1
   0  -3   0 5.45904 22.6931   1
   0   3   0 5.94835 9.52573   1
   0  -3  -1 7483.34 341.181   1
   0   3   1 8333.07 357.259   1
   0  -3   1 7958.09 292.827   1
   0   3   2 220524. 2015.97   1
   0  -3  -2 225601. 2104.70   1
   0   3   3 110089. 1555.38   1
   0  -3  -3 112915. 1607.41   1
   0  -3  -4 122018. 1802.70   1
   0   3   4 122208. 1742.44   1
   0  -3  -5 4381.71 352.405   1
   0   3   5 4417.62 343.493   1
   0   3   6 13936.7 665.389   1
   0  -3  -6 14105.2 676.680   1
   0   3  -7 17544.7 475.615   1
   0  -3   7 16612.1 443.942   1
   0  -3  -7 18957.8 854.805   1
   0   3   7 18454.7 811.663   1
   0   3  -8 22.0884 14.5221   1
   0  -3   8 3.91348 12.4639   1
   0  -3   9 234.113 64.4046   1
   0   3   9 128.941 96.0254   1
   0   3  -9 155.075 48.2809   1
   0  -3  -9 89.4337 64.3060   1
   0  -3  10 273270. 2437.87   1
   0  -3 -10 267801. 3853.21   1
   0   3 -11 20689.9 809.064   1
   0  -3  11 21960.9 740.364   1
   0   3  11 19899.3 1004.85   1
   0  -3 -11 19924.8 1058.71   1
   0   3  12 910.013 242.496   1
   0   3 -12 705.402 162.364   1
   0  -3 -12 927.969 208.190   1
   0  -3  12 1015.82 162.808   1
   0  -3  13 16133.8 726.259   1
   0   3 -13 16950.8 837.900   1
   0  -3 -13 17508.5 1070.98   1
   0   3  13 16676.4 971.939   1
   0  -3 -14 107655. 2874.09   1
   0   3 -14 113575. 2331.55   1
   0   3  14 105356. 2567.38   1
   0   3  15 721.215 199.282   1
   0  -3 -15 606.800 155.552   1
   0   3  16 6032.94 699.733   1
   0  -4   0 257547. 2197.32   1
   0   4   0 259643. 2121.59   1
   0  -4  -1 84433.9 1315.74   1
   0  -4   1 85078.9 1211.96   1
   0   4   1 85435.3 1293.98   1
   0   4   2 162512. 1926.52   1
   0  -4   2 164446. 1407.53   1
   0  -4  -2 165282. 1997.22   1
   0   4   3 11134.6 537.916   1
   0  -4  -3 11304.2 548.898   1
   0   4   4 16106.8 683.735   1
   0  -4  -4 15952.2 711.060   1
   0   4   5 4565.29 360.441   1
   0  -4  -5 4019.50 360.874   1
   0  -4  -6 326817. 3613.58   1
   0   4   6 318527. 3371.41   1
   0  -4  -7 82.6318 49.7076   1
   0   4   7 169.567 114.573   1
   0   4   8 1265.70 219.312   1
   0  -4   8 890.187 90.8185   1
   0  -4   9 15349.7 457.585   1
   0   4   9 17148.7 864.584   1
   0  -4  -9 17133.2 962.030   1
   0  -4  10 62574.3 1017.80   1
   0   4 -10 63251.7 1192.80   1
   0  -4 -10 60944.7 1952.83   1
   0   4 -11 1106.91 169.888   1
   0  -4 -11 1256.82 268.042   1
   0   4  11 1167.20 231.169   1
   0  -4 -12 4411.08 545.615   1
   0   4 -12 4723.39 383.348   1
   0   4  12 3977.06 501.232   1
   0   4  13 65.0883 62.3378   1
   0  -4 -13 44.2212 103.128   1
   0   4 -13-37.8746 83.5471   1
   0   4  14 9793.74 777.770   1
   0  -4 -14 9970.14 892.733   1
   0   4  15 1708.46 335.568   1
   0  -5   0 25.2758 16.2337   1
   0   5   0 37.0226 20.1339   1
   0  -5   1 4522.21 291.114   1
   0  -5  -1 4429.29 338.485   1
   0   5   1 4920.19 347.765   1
   0   5   2 29408.0 901.934   1
   0  -5   2 30212.3 672.477   1
   0  -5   3 10406.1 343.550   1
   0  -5  -3 12277.1 641.914   1
   0   5   3 11830.4 581.396   1
   0  -5  -4 54048.4 1417.22   1
   0   5   4 55012.6 1333.07   1
   0   5   5 88022.9 1781.99   1
   0  -5  -5 88301.1 1907.49   1
   0   5   6 817.998 174.127   1
   0  -5  -6 688.161 181.133   1
   0   5   7 12997.8 747.482   1
   0  -5  -7 13446.7 814.460   1
   0   5   8 23.8908 56.0222   1
   0  -5  -8 33.2034 76.6965   1
   0  -5  -9 40538.7 1586.26   1
   0   5   9 37180.0 1355.32   1
   0   5  10 19410.7 1010.37   1
   0  -5 -10 22066.2 1227.95   1
   0  -5 -11 36.6612 59.0334   1
   0   5  11 123.886 110.654   1
   0  -5 -12 1740.53 355.600   1
   0   5  12 1771.92 308.704   1
   0   5  13 27567.4 1400.35   1
   0  -5 -13 29792.7 1603.73   1
   0  -6   0 278931. 2754.43   1
   0  -6  -1 108517. 1845.72   1
   0   6   1 105261. 1747.63   1
   0  -6   1 105543. 1572.63   1
   0  -6   2 908.904 132.419   1
   0  -6  -2 836.760 169.277   1
   0   6   2 950.309 169.678   1
   0  -6   3 59085.7 987.949   1
   0  -6  -3 60455.9 1535.54   1
   0   6   3 61822.9 1449.14   1
   0  -6   4 93649.2 1071.42   1
   0   6   4 92819.9 1870.27   1
   0  -6  -5 3970.01 441.575   1
   0   6   5 3552.22 384.848   1
   0  -6  -6 44978.9 1530.47   1
   0   6   6 41360.3 1336.24   1
   0   6   7 17286.1 908.350   1
   0  -6  -7 19100.4 1052.78   1
   0   6   8 8954.53 664.006   1
   0  -6  -8 9224.17 767.457   1
   0  -6  -9 5721.94 642.516   1
   0   6   9 5043.38 539.861   1
   0   6  10 27983.7 1300.99   1
   0  -6 -10 32834.5 1581.35   1
   0   6  11 31702.5 1422.91   1
   0  -6 -11 37332.2 1782.74   1
   0  -7   0 9.37488 19.9323   1
   0  -7   1 5462.91 395.432   1
   0  -7  -1 4937.70 424.090   1
   0  -7  -2 16288.8 812.946   1
   0  -7   2 17015.5 642.220   1
   0   7   2 17062.6 778.190   1
   0  -7  -3 28552.0 1122.29   1
   0   7   3 30342.8 1081.85   1
   0  -7   3 31247.4 808.658   1
   0   7   4 223492. 3045.48   1
   0  -7  -4 226388. 3348.42   1
   0   7   5 36568.5 1268.81   1
   0  -7  -5 35566.7 1374.52   1
   0  -7  -6 99.7460 92.6865   1
   0   7   6 29.2732 76.3468   1
   0   7   7 27363.7 1187.53   1
   0  -7  -7 28267.3 1358.24   1
   0  -7  -8 29684.7 1456.78   1
   0   7   8 26670.2 1248.65   1
   0  -7  -9 3267.67 511.603   1
   0   7   9 3093.17 402.709   1
   0  -7 -10 36534.0 1809.12   1
   0   7  11 15797.6 1034.24   1
   0  -8   0 12041.4 677.101   1
   0  -8  -1 5992.51 506.779   1
   0  -8   1 6018.79 454.414   1
   0  -8   2 7355.02 468.038   1
   0  -8  -2 8663.48 638.903   1
   0  -8  -3 60415.9 1771.16   1
   0  -8   3 59844.9 1247.69   1
   0   8   3 62845.8 1633.20   1
   0   8   4 21456.7 1015.51   1
   0  -8  -4 23112.3 1140.35   1
   0  -8   4 23567.0 723.401   1
   0  -8  -5 58828.9 1917.67   1
   0   8   5 56681.8 1665.00   1
   0  -8   5 59687.0 995.679   1
   0  -8  -6 3186.80 464.341   1
   0  -8   6 2224.18 171.970   1
   0   8   6 2703.81 405.189   1
   0   8   7 6808.65 624.832   1
   0  -8  -7 7168.78 719.973   1
   0  -8  -8 5100.58 652.605   1
   0   8   8 4991.02 549.846   1
   0   8   9 2644.84 459.300   1
   0  -8  -9 2980.71 527.378   1
   0   8  10 111.619 83.3506   1
   0  -9   0 34.1295 29.8464   1
   0  -9  -1 41771.3 1433.18   1
   0  -9   1 40251.2 1268.33   1
   0  -9   2 13167.9 689.496   1
   0  -9  -2 13563.5 867.628   1
   0  -9  -3 12914.8 876.937   1
   0  -9   3 12097.6 617.403   1
   0  -9  -4 2618.06 412.396   1
   0  -9   4 2609.85 270.700   1
   0   9   4 3213.18 437.653   1
   0  -9  -5 4030.28 522.510   1
   0   9   5 3429.82 449.633   1
   0  -9   5 3747.11 280.575   1
   0  -9  -6 596.170 195.294   1
   0   9   6 563.837 202.437   1
   0  -9   6 587.654 98.7391   1
   0  -9   7 44.4418 29.4760   1
   0   9   7 351.121 173.299   1
   0  -9  -7 269.691 151.453   1
   0   9   8 1160.95 268.938   1
   0  -9  -8 1155.97 315.053   1
   0 -10   0 98968.5 2252.90   1
   0 -10   1 9174.05 659.068   1
   0 -10  -1 8634.80 693.423   1
   0 -10   2 874.473 191.421   1
   0 -10  -2 1256.19 273.135   1
   0 -10  -3 17473.2 1083.83   1
   0 -10   3 17791.8 842.593   1
   0 -10  -4 16223.5 1101.74   1
   0 -10   4 17271.2 723.869   1
   0 -10  -5 16440.3 1147.93   1
   0 -10   5 17314.5 681.529   1
   0 -10  -6 72360.1 2510.79   1
   0 -10   6 76758.7 1374.22   1
   0 -10   7 39284.2 888.003   1
   0 -11   0 22.7750 59.7937   1
   0 -11   1 14234.9 894.668   1
   0 -11  -1 14139.1 961.853   1
   0 -11  -2 24090.9 1307.84   1
   0 -11   2 25483.4 1130.46   1
   0 -11  -3 3084.13 495.291   1
   0 -11   3 2790.48 331.227   1
   0 -11  -4 15151.0 1129.92   1
   0 -11   4 15494.6 749.466   1
   0 -11  -5 17609.9 1295.40   1
   0 -11   5 19418.3 793.523   1
   0 -11   6 9085.92 529.786   1
   0 -12   0 5820.49 627.233   1
   0 -12   1 37037.4 1449.85   1
   0 -12  -1 37049.2 1664.05   1
   0 -12   2 1440.20 265.206   1
   0 -12  -2 1195.40 334.157   1
   0 -12  -3 5143.73 700.670   1
   0 -12   3 6189.68 535.272   1
   0 -12   4-16.2845 53.4038   1
   0 -12  -4 85.8700 130.970   1
   0 -13   0-67.3877 50.8685   1
   0 -13   1 3058.32 437.950   1
   0 -13  -1 3057.41 472.776   1
   0 -13   2 5650.73 570.766   1
   0 -13  -2 5312.89 625.671   1
   0 -13   3 33981.3 1353.80   1
   0 -14   0 12406.4 967.468   1
   0 -14   1 8456.92 775.901   1
   0 -14  -1 8444.49 830.493   1
   1   0 -17 87.7722 59.1987   1
   1   0 -16 913.460 240.818   1
   1   0 -15-62.6317 91.8365   1
   1   0 -14 47300.5 1818.91   1
   1   0 -13 587.443 469.194   1
   1   0 -12 7836.95 651.307   1
   1   0 -11 11.6031 47.5151   1
   1   0 -10 4165.49 431.390   1
   1   0  -9-56.3459 107.296   1
   1   0  -8 9634.80 648.306   1
   1   0  -7 169.970 131.849   1
  -1   0  -3 19.9704 20.3789   1
   1   0   3 5.82877 11.4198   1
  -1   0  -4 210794. 1959.31   1
   1   0   4 207064. 1942.45   1
   1   0   5 11.1639 23.3655   1
  -1   0  -5-25.4344 33.6549   1
  -1   0  -6 228095. 2424.12   1
   1   0   6 226563. 2306.75   1
  -1   0  -7 52.3478 53.8811   1
   1   0   7-50.4863 73.1698   1
  -1   0  -8 68711.4 1558.45   1
   1   0   8 73111.1 1450.21   1
  -1   0  -9 8.69524 33.4329   1
   1   0   9 18.2979 56.1034   1
   1   0  10 56331.8 1464.70   1
  -1   0 -10 56415.6 1583.31   1
  -1   0 -11 44.5314 80.9625   1
   1   0  11 55.3622 53.2533   1
   1   0  12 3786.83 404.010   1
  -1   0 -12 3607.50 440.113   1
   1   0  13 86.3362 93.5676   1
  -1   0 -13 20.8364 43.7728   1
   1   0  14 37745.0 1534.30   1
  -1   0 -14 35670.8 1571.71   1
   1   0  15 166.217 175.810   1
  -1   0 -15-72.9161 163.794   1
  -1   0 -16 1068.69 283.170   1
   1   0  16 1039.55 294.075   1
  -1   0 -17 26.3311 89.5374   1
   1   0  17-75.5244 72.5796   1
   1   0  18 64509.7 2241.56   1
   1   0  19 93.0053 120.690   1
   1  -1 -17 2019.92 424.926   1
   1   1 -16 1908.06 343.608   1
   1  -1 -16 2080.94 408.661   1
   1   1 -15 43707.5 1587.30   1
   1  -1 -15 44067.4 1989.09   1
   1  -1 -14 47272.6 1919.50   1
   1   1 -14 46088.4 1566.23   1
   1   1 -13 40413.1 1465.66   1
   1  -1 -13 43590.8 1764.44   1
   1   1 -12 10744.9 706.697   1
   1  -1 -12 11714.8 855.126   1
   1  -1 -11 1152.21 235.112   1
   1   1 -11 1741.13 259.704   1
   1   1 -10 125943. 2173.14   1
   1  -1 -10 134474. 2711.58   1
   1   1  -9 80903.6 1652.80   1
   1  -1  -9 35107.3 1496.33   1
   1   1  -8 3278.15 347.682   1
   1  -1  -7 5.07068 49.4318   1
   1   1   1 109933. 1183.21   1
  -1  -1  -1 112871. 1230.11   1
  -1  -1  -2 187344. 1703.35   1
   1   1   2 192150. 1714.58   1
  -1  -1  -3 231267. 2068.10   1
   1   1   3 228493. 2007.81   1
  -1  -1  -4 33786.7 858.669   1
   1   1   4 34373.8 846.169   1
   1  -1   5 14161.8 524.265   1
  -1  -1  -5 16549.4 625.311   1
   1   1   5 15901.0 583.523   1
  -1   1  -5 14110.8 538.720   1
   1  -1   6 4817.76 332.734   1
  -1  -1  -6 5678.22 408.907   1
   1   1   6 5544.59 368.283   1
  -1   1  -6 5056.53 325.708   1
   1   1   7 20296.9 778.472   1
   1  -1   7 18285.3 651.691   1
  -1  -1  -7 20735.6 875.470   1
   1   1   8 21959.4 872.200   1
  -1   1  -8 21636.2 836.091   1
   1  -1   8 21429.5 734.211   1
  -1  -1  -8 22171.6 932.620   1
   1   1   9 78109.2 1704.10   1
   1  -1   9 76907.5 1534.51   1
  -1   1  -9 76854.5 1707.85   1
  -1  -1  -9 76799.7 1840.11   1
   1  -1  10 64861.1 1505.52   1
   1   1  10 59889.6 1579.46   1
  -1  -1 -10 61761.6 1744.75   1
  -1   1 -10 64205.8 1635.81   1
   1  -1  11 5252.01 447.368   1
   1   1  11 4939.59 468.239   1
  -1  -1 -11 4540.94 495.424   1
  -1   1 -11 5181.95 492.798   1
   1   1  12 11461.5 737.513   1
  -1   1 -12 11160.6 764.389   1
   1  -1  12 11554.5 709.266   1
  -1  -1 -12 11418.7 818.444   1
  -1   1 -13 157.414 114.249   1
   1   1  13 117.635 105.807   1
  -1  -1 -13 237.386 114.714   1
   1  -1  13 29.5332 46.1399   1
  -1   1 -14 39673.6 1603.32   1
   1  -1  14 38960.0 1502.37   1
  -1  -1 -14 38692.1 1615.69   1
   1   1  14 38058.2 1614.41   1
   1  -1  15 14914.0 1012.93   1
  -1   1 -15 16651.3 1095.24   1
   1   1  15 15154.0 1076.49   1
  -1  -1 -15 17207.2 1115.69   1
  -1   1 -16-36.5681 93.0777   1
  -1  -1 -16 161.668 125.763   1
   1   1  16 103.372 116.669   1
   1  -1  16 72.1001 101.709   1
   1   1  17 7632.30 755.131   1
  -1  -1 -17 7078.33 810.010   1
   1  -1  17 7071.63 693.255   1
   1   1  18 1609.93 348.559   1
   1  -1  18 3217.87 476.321   1
   1  -2 -16 1732.52 478.989   1
   1  -2 -15 209.570 153.970   1
   1   2 -15 343.279 111.175   1
   1   2 -14 248.376 99.8143   1
   1  -2 -14 99.9478 120.226   1
   1  -2 -13 10849.1 974.312   1
   1   2 -13 7041.02 525.222   1
   1  -2 -12 22779.3 1306.21   1
   1   2 -12 21170.0 922.543   1
   1  -2 -11 58229.1 2008.35   1
   1   2 -11 59828.1 1423.36   1
   1   2 -10 22384.3 809.484   1
   1  -2 -10 941.764 92.2418   1
   1  -2  -9 329.018 170.939   1
   1   2  -9 9420.02 487.576   1
   1   2  -8 38850.3 1027.19   1
   1   2  -7 81792.3 1313.42   1
  -1  -2   0 168831. 1457.96   1
   1   2   0 168515. 1506.41   1
  -1  -2  -1 194162. 1778.67   1
   1   2   1 188543. 1735.96   1
  -1  -2  -2 28893.7 734.742   1
   1   2   2 30475.9 754.559   1
  -1  -2  -3 223633. 2196.65   1
   1   2   3 224199. 2153.54   1
  -1  -2  -4 340.115 96.8389   1
   1   2   4 356.662 89.9753   1
  -1  -2  -5 43278.3 1120.00   1
   1  -2   5 43911.0 857.997   1
   1   2   5 42037.8 1013.06   1
   1  -2   6 37008.6 852.953   1
  -1  -2  -6 38554.1 1116.98   1
   1   2   6 36608.2 1035.90   1
   1  -2   7 112169. 1608.35   1
   1   2   7 109947. 1944.70   1
  -1  -2  -7 113784. 2036.92   1
   1  -2   8 18295.7 650.615   1
   1   2   8 18772.2 828.653   1
  -1   2  -8 18568.5 710.703   1
  -1  -2  -8 18756.1 873.264   1
  -1   2  -9 722.775 152.314   1
   1  -2   9 853.895 144.008   1
  -1  -2  -9 1390.17 240.428   1
   1   2   9 1484.43 233.215   1
  -1   2 -10 448.433 121.650   1
  -1  -2 -10 435.745 133.522   1
   1   2  10 435.874 139.401   1
   1  -2  10 335.964 96.6195   1
  -1   2 -11 41415.7 1369.78   1
   1  -2  11 45924.6 1286.94   1
  -1  -2 -11 45396.7 1595.76   1
   1   2  11 46977.5 1489.14   1
   1   2  12 28438.0 1238.89   1
  -1  -2 -12 30730.3 1379.59   1
  -1   2 -12 33116.9 1245.35   1
   1  -2  12 30872.3 1105.05   1
  -1   2 -13 98794.3 2334.45   1
   1   2  13 98755.5 2549.19   1
   1  -2  13 100264. 2074.02   1
  -1  -2 -13 95375.3 2627.68   1
  -1   2 -14 1640.25 310.752   1
   1  -2  14 1654.31 294.977   1
  -1  -2 -14 1270.17 312.601   1
   1   2  14 1138.30 295.897   1
  -1   2 -15 12262.2 912.388   1
   1   2  15 12624.2 959.092   1
   1  -2  15 11721.7 832.670   1
  -1  -2 -15 12354.3 1006.13   1
  -1  -2 -16 9940.29 942.750   1
   1  -2  16 9858.18 777.064   1
   1   2  16 9977.00 856.682   1
   1  -2  17 25433.6 1255.00   1
   1  -3 -15 13.7122 336.484   1
   1  -3 -14-834.705 428.284   1
   1   3 -14 1582.18 264.635   1
   1   3 -13 2240.99 284.416   1
   1  -3 -13 6.63182 115.959   1
   1  -3 -12-826.647 504.371   1
   1   3 -12 1844.87 223.577   1
   1   3 -11 8611.87 472.042   1
   1   3 -10 22324.9 726.542   1
   1  -3 -10-190.275 250.713   1
   1   3  -9 30153.7 757.308   1
   1   3  -8 148490. 1527.65   1
   1  -3  -8 569.660 253.990   1
   1   3  -7 15461.5 472.141   1
   1   3  -2 53379.1 756.853   1
   1   3  -1 21584.1 521.090   1
  -1  -3   1 21755.4 519.255   1
  -1  -3   0 211696. 1856.25   1
   1   3   0 215771. 1887.43   1
   1   3   1 57590.1 1031.31   1
  -1  -3  -1 58570.9 1040.39   1
  -1  -3  -2 831.449 135.397   1
   1   3   2 743.327 122.752   1
  -1  -3  -3 26986.2 822.547   1
   1   3   3 26846.5 779.230   1
   1   3   4 172198. 2127.67   1
  -1  -3  -4 178627. 2281.15   1
   1   3   5 67748.6 1456.91   1
  -1  -3  -5 67986.2 1476.32   1
   1   3   6 24940.9 911.405   1
   1  -3   6 26396.5 688.673   1
  -1  -3  -6 25193.9 937.868   1
   1  -3   7 57814.3 1075.48   1
  -1  -3  -7 60974.1 1543.05   1
   1   3   7 60789.7 1508.18   1
   1   3   8 115167. 2138.54   1
   1  -3   8 116073. 1623.55   1
  -1  -3  -8 115891. 2243.19   1
   1   3   9 14591.6 807.331   1
  -1  -3  -9 14996.0 828.347   1
   1  -3   9 15491.5 603.771   1
   1  -3  10 17576.4 711.257   1
  -1   3 -10 15614.0 795.705   1
   1   3  10 16472.7 889.693   1
  -1  -3 -10 16752.4 938.262   1
   1   3  11 3135.35 402.969   1
   1  -3  11 3918.05 352.329   1
  -1  -3 -11 3502.54 439.598   1
  -1   3 -11 4035.93 419.142   1
  -1   3 -12 7053.07 602.180   1
   1  -3  12 6778.19 488.059   1
   1   3  12 7022.35 638.489   1
  -1  -3 -12 7081.28 678.354   1
  -1  -3 -13 8467.67 767.690   1
  -1   3 -13 7224.80 629.329   1
   1  -3  13 7973.79 551.190   1
   1   3  13 8561.99 783.171   1
  -1   3 -14 3495.19 447.671   1
   1  -3  14 3294.77 412.174   1
  -1  -3 -14 3460.18 521.271   1
   1   3  14 3609.72 501.182   1
   1   3  15 6451.06 778.929   1
   1  -3  15 5995.41 564.931   1
   1  -3  16 19602.6 1015.35   1
   1  -4 -14-956.291 506.521   1
   1   4 -13 2396.27 290.326   1
   1  -4 -13-268.282 272.389   1
   1   4 -12 89964.8 1576.67   1
   1  -4 -12-1076.30 592.284   1
   1  -4 -11 2104.25 201.874   1
   1   4 -11 6556.25 368.302   1
   1   4 -10 1713.66 165.110   1
   1   4  -9 40937.8 717.929   1
   1   4  -8 12604.4 361.114   1
   1   4  -3 5209.61 231.117   1
  -1  -4   2 20.9999 15.6730   1
   1   4  -2 46.8327 18.5031   1
  -1  -4   1 5129.28 295.064   1
   1   4  -1 5847.21 295.076   1
  -1  -4   0 222262. 2157.39   1
   1   4   0 208902. 1919.46   1
  -1  -4  -1 21476.0 724.068   1
   1   4   1 19429.7 637.309   1
  -1  -4  -2 143.867 63.5176   1
   1   4   2 93.8990 57.2716   1
   1   4   3 56359.7 1279.70   1
  -1  -4  -3 54972.0 1245.13   1
   1   4   4 72877.2 1514.29   1
  -1  -4  -4 73679.3 1507.45   1
   1   4   5 111878. 1953.61   1
  -1  -4  -5 109149. 1908.12   1
  -1  -4  -6 10182.0 610.821   1
   1   4   6 11246.6 626.331   1
   1   4   7 60860.6 1556.23   1
   1  -4   7 58959.8 1092.13   1
  -1  -4  -7 61620.3 1587.03   1
   1  -4   8 91555.9 1392.93   1
   1   4   8 93763.3 2078.47   1
  -1  -4  -8 92498.5 2042.18   1
   1   4   9 11.5139 78.2691   1
  -1  -4  -9 46.6352 55.9572   1
   1  -4   9 125.728 41.9492   1
  -1  -4 -10 2924.90 398.219   1
   1   4  10 2671.98 372.843   1
   1  -4  10 3433.77 279.445   1
   1  -4  11 6359.97 421.310   1
  -1  -4 -11 5879.70 592.137   1
   1   4  11 5559.04 575.867   1
   1  -4  12 89645.5 1658.45   1
  -1  -4 -12 87290.0 2483.13   1
   1   4  12 88881.0 2520.78   1
   1   4  13 8135.43 779.182   1
   1  -4  13 9011.57 560.006   1
  -1  -4 -13 8143.96 784.143   1
   1  -4  14 2946.32 377.291   1
   1   4  14 3481.42 525.378   1
   1  -4  15 5101.13 471.068   1
   1  -5 -12-1253.49 508.852   1
   1  -5 -11-1284.92 723.869   1
   1   5 -11 51717.6 930.907   1
   1   5  -4 85349.1 886.565   1
   1   5  -3 159636. 1436.91   1
  -1  -5   3 163246. 1530.40   1
  -1  -5   2 539.248 95.0818   1
   1   5  -2 603.129 97.3027   1
   1   5  -1 166883. 1822.62   1
  -1  -5   1 165601. 1876.77   1
   1   5   0 51212.3 1085.31   1
  -1  -5   0 48448.5 1111.95   1
   1   5   1 67472.9 1328.32   1
  -1  -5  -1 69226.1 1386.53   1
   1   5   2 8479.77 502.043   1
  -1  -5  -2 8733.35 514.780   1
   1   5   3 194007. 2493.33   1
  -1  -5  -3 206794. 2548.64   1
   1   5   4 45929.1 1261.68   1
  -1  -5  -4 43451.6 1202.86   1
   1   5   5 18223.3 842.241   1
  -1  -5  -5 17954.5 817.178   1
  -1  -5  -6 318.753 108.423   1
   1   5   6 321.920 117.790   1
   1   5   7 15459.7 823.208   1
  -1  -5  -7 15101.9 821.578   1
   1  -5   8 15503.6 545.848   1
   1   5   8 16645.6 884.756   1
  -1  -5  -8 16854.0 890.747   1
   1   5   9 80334.4 2073.52   1
  -1  -5  -9 84017.9 2117.58   1
   1   5  10 5750.49 580.591   1
  -1  -5 -10 5741.38 570.177   1
   1  -5  10 5567.08 326.921   1
   1  -5  11 12673.2 552.560   1
   1   5  11 15639.4 1030.86   1
  -1  -5 -11 14759.1 967.001   1
   1  -5  12 2837.37 272.264   1
   1   5  12 2847.64 447.193   1
  -1  -5 -12 2916.30 461.985   1
   1  -5  13 25878.6 869.261   1
   1   5  13 27335.0 1416.84   1
   1  -5  14 1.03318 39.2140   1
   1   6  -5 90657.6 913.555   1
  -1  -6   4 3698.06 259.181   1
   1   6  -4 3177.77 214.606   1
   1   6  -3 28901.0 683.483   1
  -1  -6   3 29167.8 777.375   1
  -1  -6   2 2517.46 231.874   1
   1   6  -2 2567.48 225.777   1
  -1  -6   1 7.28647 28.5093   1
   1   6  -1 28.2979 36.9355   1
  -1  -6   0 36.7914 16.8709   1
   1   6   0 3.39546 35.0974   1
  -1  -6  -1 55777.7 1326.02   1
   1   6   1 55784.9 1314.05   1
  -1  -6  -2 56104.6 1367.41   1
   1   6   2 58475.8 1403.53   1
   1   6   3 49380.8 1336.60   1
  -1  -6  -3 46510.9 1278.22   1
  -1  -6  -4 5265.71 444.037   1
   1   6   4 5063.22 441.078   1
   1   6   5 65700.6 1669.82   1
  -1  -6  -5 65606.8 1667.40   1
   1   6   6 22894.7 1014.34   1
  -1  -6  -6 22537.6 1020.83   1
   1   6   7 47229.5 1536.80   1
  -1  -6  -7 48128.8 1520.41   1
   1  -6   8 64.1467 37.8650   1
   1   6   8 293.746 120.919   1
  -1  -6  -8 198.183 98.7071   1
   1  -6   9 1930.73 198.522   1
  -1  -6  -9 2325.96 358.614   1
   1   6   9 2630.91 426.269   1
   1   6  10 18379.7 1124.12   1
  -1  -6 -10 19057.1 1095.69   1
   1  -6  10 18036.0 554.757   1
   1  -6  11 11759.7 469.779   1
   1   6  11 14870.3 1079.60   1
   1  -6  12 136.766 62.2881   1
   1   6  12 1038.27 357.606   1
   1  -6  13 5061.08 372.727   1
  -1  -7   4 6122.90 363.126   1
   1   7  -4 7220.76 343.898   1
  -1  -7   3 3839.13 307.443   1
   1   7  -3 4187.92 303.818   1
   1   7  -2 107884. 1731.33   1
  -1  -7   2 110363. 1783.93   1
   1   7  -1 2988.33 324.794   1
  -1  -7   1 2808.29 297.975   1
   1   7   0 59971.6 1400.46   1
  -1  -7   0 60737.8 1420.83   1
   1   7   1 24106.1 899.054   1
  -1  -7  -1 25641.4 949.448   1
   1   7   2 81083.9 1732.53   1
  -1  -7  -2 86087.0 1786.64   1
   1   7   3 160.059 99.5689   1
  -1  -7  -3 170.412 74.8956   1
   1   7   4 10202.4 692.859   1
  -1  -7  -4 10516.3 681.386   1
   1   7   5 13408.0 821.783   1
  -1  -7  -5 13942.3 807.917   1
   1   7   6 3195.70 432.676   1
  -1  -7  -6 2856.67 368.352   1
   1   7   7 13870.0 937.814   1
  -1  -7  -7 12720.0 839.198   1
   1   7   8 19037.1 1117.07   1
  -1  -7  -8 18926.6 1053.34   1
   1  -7   9 577.484 103.325   1
   1   7   9 756.484 220.068   1
  -1  -7  -9 766.468 212.936   1
   1   7  10 25296.7 1344.53   1
  -1  -7 -10 24170.7 1307.22   1
   1  -7  11 14067.1 436.178   1
   1   7  11 20544.0 1231.28   1
  -1  -8   5 888.932 138.067   1
  -1  -8   4 11952.9 562.674   1
   1   8  -4 13534.5 554.547   1
  -1  -8   3 104024. 1728.84   1
   1   8  -3 102556. 1617.59   1
  -1  -8   2 13276.5 688.372   1
   1   8  -2 13271.4 614.485   1
   1   8  -1 88330.0 1711.41   1
  -1  -8   1 86850.1 1792.14   1
   1   8   0 17068.5 817.123   1
  -1  -8   0 16215.1 794.538   1
   1   8   1 37732.7 1282.03   1
  -1  -8  -1 35115.3 1178.86   1
   1   8   2 10350.2 701.395   1
  -1  -8  -2 10296.4 658.738   1
   1   8   3 2949.11 382.213   1
  -1  -8  -3 2855.43 361.877   1
   1   8   4 1763.45 304.648   1
  -1  -8  -4 1670.84 294.130   1
   1   8   5 21798.5 1159.73   1
  -1  -8  -5 27672.9 1325.30   1
   1   8   6 69197.6 2088.20   1
  -1  -8  -6 66062.1 1951.47   1
   1   8   7 50520.8 1827.01   1
  -1  -8  -7 50268.9 1769.33   1
  -1  -8  -8 239.736 101.223   1
   1   8   8 521.116 241.221   1
   1   8   9 25911.0 1334.36   1
  -1  -8  -9 23952.5 1323.90   1
   1   8  10 2131.77 418.685   1
  -1  -9   6 2315.19 301.711   1
  -1  -9   5 88100.7 1598.94   1
  -1  -9   4 8638.02 509.691   1
  -1  -9   3 79396.1 1675.00   1
   1   9  -3 82679.4 1617.14   1
  -1  -9   2 4693.41 436.722   1
   1   9  -2 5144.06 416.204   1
  -1  -9   1 2712.72 344.401   1
  -1  -9   0 6205.87 524.120   1
   1   9   0 7047.20 515.827   1
   1   9   1 3576.52 398.294   1
  -1  -9  -1 3125.48 372.000   1
   1   9   2 153.018 105.587   1
  -1  -9  -2 27.0380 73.6815   1
   1   9   3 44371.3 1548.30   1
  -1  -9  -3 42747.4 1484.33   1
   1   9   4 621.009 202.670   1
  -1  -9  -4 420.886 168.358   1
   1   9   5 36541.4 1463.60   1
  -1  -9  -5 38655.5 1512.77   1
   1   9   6 6224.12 632.375   1
  -1  -9  -6 6045.62 617.707   1
   1   9   7 34841.3 1516.78   1
  -1  -9  -7 31705.6 1505.24   1
   1   9   8 202.312 159.383   1
   1  -9   9-249.068 81.8223   1
  -1 -10   6 41780.9 1231.99   1
  -1 -10   5 69.9286 35.3116   1
  -1 -10   4 831.016 203.420   1
  -1 -10   3 3318.39 377.557   1
  -1 -10   2 113.525 63.6744   1
   1  10  -2 148.723 86.5619   1
  -1 -10   1 12117.3 778.674   1
   1  10  -1 13857.7 751.833   1
  -1 -10   0 18739.6 986.154   1
   1  10   0 20224.8 979.408   1
  -1 -10  -1 17340.2 954.733   1
   1  10   1 19052.9 963.157   1
   1  10   2 28539.6 1224.20   1
  -1 -10  -2 26821.1 1221.05   1
   1  10   3 47940.4 1645.21   1
  -1 -10  -3 43431.7 1591.85   1
   1  10   4 6651.01 607.703   1
  -1 -10  -4 6429.57 646.085   1
   1  10   5 79.1649 56.1713   1
  -1 -10  -5 21.2282 37.4229   1
   1  10   6 1955.86 363.051   1
  -1 -10  -6 2063.02 374.420   1
   1 -10   7 988.049 161.736   1
   1  10   7 697.086 190.979   1
  -1 -11   6 1346.61 257.844   1
  -1 -11   5 1676.97 276.973   1
  -1 -11   4 27430.4 1159.40   1
  -1 -11   3 15233.8 871.335   1
  -1 -11   2 5685.55 569.474   1
  -1 -11   1 23271.0 1160.01   1
   1  11  -1 22846.2 1043.95   1
   1  11   0-29.3128 74.2880   1
  -1 -11   0-36.1370 115.520   1
  -1 -11  -1 38134.1 1534.51   1
   1  11   1 41719.6 1516.96   1
  -1 -11  -2 49436.5 1790.19   1
   1  11   2 50946.6 1722.05   1
  -1 -11  -3 7631.04 710.874   1
   1  11   3 7488.20 692.405   1
  -1 -11  -4 16799.6 1095.07   1
   1  11   4 15841.0 1032.76   1
  -1 -11  -5 5415.74 639.756   1
   1  11   5 5222.33 590.926   1
   1 -11   6-47.4455 42.1173   1
   1  11   6 496.251 192.599   1
  -1 -12   4 7631.67 660.275   1
  -1 -12   3 566.334 185.708   1
  -1 -12   2 3974.91 514.517   1
  -1 -12   1 6350.70 644.761   1
  -1 -12   0 5306.69 606.269   1
  -1 -12  -1 6388.61 675.850   1
   1  12   1 5836.94 582.266   1
  -1 -12  -2 4604.47 591.001   1
   1  12   2 4122.47 506.450   1
  -1 -12  -3 25517.8 1389.31   1
   1  12   3 23274.4 1283.08   1
   1  12   4 79.1285 113.687   1
  -1 -13   2 6742.04 717.195   1
  -1 -13   1 20608.5 1271.45   1
  -1 -13   0 3938.93 550.197   1
  -1 -13  -1 16806.9 1184.38   1
  -1 -13  -2 2951.08 554.688   1
   1  13   3 1332.15 488.908   1
  -1 -14   1 173.506 119.032   1
  -1 -14   0 25431.0 1489.30   1
  -1 -14  -1 4086.18 625.534   1
   2   0   5 58.4597 66.0501   1
  -2   0  -6 10305.1 637.669   1
   2   0   6 10204.7 618.665   1
  -2   0  -7 11.9849 18.3478   1
   2   0   7 62.0688 49.5509   1
  -2   0  -8 9663.77 633.579   1
   2   0   8 9144.73 635.559   1
  -2   0  -9 82.2701 48.2518   1
   2   0   9-13.3755 48.0575   1
  -2   0 -10 1284.25 251.220   1
   2   0  10 1156.42 223.905   1
   2   0  11-11.6184 32.2847   1
  -2   0 -11-95.4152 114.706   1
  -2   0 -12 166140. 3263.21   1
   2   0  12 166133. 2894.60   1
   2   0  13 7.67185 44.7879   1
  -2   0 -13-133.098 115.001   1
  -2   0 -14 354.177 165.142   1
   2   0  14 581.549 210.580   1
  -2   0 -15-166.831 136.652   1
   2   0  15 48.0877 98.4154   1
  -2   0 -16 1810.10 524.106   1
   2   0  16 253.389 248.534   1
  -2   0 -17 48.3618 119.719   1
   2   0  17 5.86222 44.1130   1
   2   0  18 1882.16 437.234   1
   2   1 -16 2100.81 557.231   1
   2   1   4 368235. 3359.73   1
  -2  -1  -4 362669. 3386.73   1
   2   1   5 11492.3 599.648   1
  -2  -1  -5 11745.3 607.120   1
  -2  -1  -6 651.969 173.589   1
   2  -1   6 554.426 172.422   1
   2   1   6 379.762 104.287   1
  -2  -1  -7 14573.6 758.509   1
   2  -1   7 15254.7 748.851   1
   2   1   7 13611.7 764.613   1
  -2  -1  -8 73523.7 1782.05   1
  -2   1  -8 69933.7 1746.98   1
   2   1   8 70076.9 1724.47   1
   2  -1   8 69068.7 1611.62   1
  -2   1  -9 87569.6 2024.94   1
  -2  -1  -9 90932.7 2117.34   1
   2  -1   9 86386.2 1983.40   1
   2   1   9 86461.1 1907.07   1
  -2  -1 -10 7495.71 673.135   1
   2  -1  10 9064.52 655.447   1
  -2   1 -10 8884.85 707.055   1
   2   1  10 8253.36 621.612   1
  -2  -1 -11 21821.6 1194.61   1
  -2   1 -11 19812.3 1043.81   1
   2  -1  11 20116.8 939.106   1
   2   1  11 23276.8 1053.65   1
  -2   1 -12 6073.68 617.157   1
  -2  -1 -12 6140.15 654.480   1
   2  -1  12 6878.15 576.491   1
   2   1  12 6376.62 620.530   1
   2   1  13 26718.9 1314.07   1
  -2   1 -13 24477.2 1270.38   1
  -2  -1 -13 24719.6 1396.56   1
   2  -1  13 26233.1 1225.68   1
  -2   1 -14 187.753 153.062   1
  -2  -1 -14 84.4714 73.5013   1
   2  -1  14 272.987 162.063   1
   2   1  14 289.318 118.444   1
   2   1  15 24174.6 1339.66   1
  -2   1 -15 21892.3 1358.24   1
  -2  -1 -15 23211.6 1443.29   1
   2  -1  15 25120.2 1324.58   1
  -2   1 -16 5612.67 746.916   1
  -2  -1 -16 6352.37 790.487   1
   2  -1  16 7104.93 745.213   1
   2   1  16 6498.21 727.896   1
   2  -1  17 11193.3 948.625   1
   2   1  17 9698.90 949.992   1
   2  -1  18 1534.91 387.140   1
   2   2 -15 398.660 241.347   1
   2   2 -14 753.239 238.096   1
  -2  -2  -2 37159.0 1037.07   1
   2   2   2 40287.8 1033.72   1
   2   2   3 1603.41 230.862   1
  -2  -2  -3 1677.51 231.186   1
  -2  -2  -4 4.47192 17.8943   1
   2   2   4 47.9479 50.3219   1
  -2  -2  -5 27697.1 987.078   1
   2   2   5 30262.1 992.691   1
  -2  -2  -6 30290.1 1117.93   1
   2   2   6 30705.5 1107.71   1
   2  -2   7 182185. 2613.72   1
  -2  -2  -7 179821. 2881.21   1
   2   2   7 177469. 2707.14   1
  -2  -2  -8 3197.09 406.310   1
   2  -2   8 2922.57 330.249   1
   2   2   8 3175.15 361.909   1
   2   2   9 245.033 93.0875   1
  -2  -2  -9 268.345 101.074   1
   2  -2   9 404.485 125.015   1
  -2  -2 -10 2145.56 350.953   1
   2  -2  10 1636.08 288.206   1
   2   2  10 2178.09 328.972   1
  -2  -2 -11 1990.16 356.761   1
   2   2  11 2045.00 346.607   1
   2  -2  11 2597.64 361.524   1
  -2   2 -11 2440.27 378.680   1
  -2   2 -12 24309.4 1248.88   1
   2   2  12 23784.6 1195.16   1
  -2  -2 -12 23378.0 1258.26   1
   2  -2  12 25430.2 1100.78   1
   2   2  13 27560.5 1355.96   1
  -2  -2 -13 27870.9 1446.39   1
  -2   2 -13 27198.6 1387.55   1
   2  -2  14 6769.79 642.864   1
  -2   2 -14 5805.08 711.810   1
  -2  -2 -14 5490.62 688.905   1
   2   2  14 6112.19 633.733   1
   2  -2  15 9412.83 777.775   1
   2   2  15 10713.8 867.107   1
  -2   2 -15 8030.43 862.529   1
  -2  -2 -15 8539.82 870.099   1
   2   2  16 989.468 256.657   1
   2  -2  16 1317.55 315.051   1
   2  -2  17 34668.4 1654.65   1
   2   3 -13 1153.56 347.161   1
   2   3 -12 1971.79 250.490   1
   2   3   0 2460.57 257.596   1
  -2  -3  -1 15396.1 658.469   1
   2   3   1 13010.1 612.097   1
  -2  -3  -2 275133. 2815.15   1
   2   3   2 274782. 2831.66   1
  -2  -3  -3 1575.45 213.607   1
   2   3   3 1572.98 235.775   1
  -2  -3  -4 3587.25 365.556   1
   2   3   4 3609.12 365.135   1
  -2  -3  -5 9439.44 618.111   1
   2   3   5 9146.56 587.219   1
  -2  -3  -6 24292.1 1024.61   1
   2   3   6 24362.4 985.202   1
  -2  -3  -7 133.341 68.2257   1
   2   3   7 215.502 98.5205   1
   2  -3   8 27030.1 1069.13   1
  -2  -3  -8 25940.3 1122.93   1
   2   3   8 26243.1 1058.35   1
  -2  -3  -9 42496.6 1522.29   1
   2  -3   9 42230.9 1299.70   1
   2   3   9 45767.5 1461.34   1
  -2  -3 -10 53852.6 1807.69   1
   2  -3  10 52868.3 1554.61   1
   2   3  10 52811.2 1741.55   1
  -2  -3 -11 2009.11 357.499   1
   2   3  11 2158.58 350.617   1
   2  -3  11 1994.14 321.003   1
  -2  -3 -12 2795.30 447.617   1
   2   3  12 2835.10 434.309   1
   2  -3  12 3417.62 400.770   1
  -2  -3 -13 10154.1 876.361   1
   2   3  13 10539.3 842.760   1
   2  -3  13 11302.8 730.159   1
   2   3  14 28502.6 1437.20   1
  -2  -3 -14 26618.3 1456.46   1
   2  -3  14 30806.8 1349.20   1
   2  -3  15 12510.4 887.894   1
   2   3  15 6994.38 739.005   1
   2  -3  16-8.26044 72.7415   1
   2   4 -12 6088.57 457.001   1
   2   4 -11 258.874 109.610   1
   2   4  -2 38778.7 930.161   1
   2   4  -1 42696.4 1043.03   1
  -2  -4   0 9505.22 531.819   1
   2   4   0 8565.98 485.745   1
  -2  -4  -1 1096.93 183.731   1
   2   4   1 1043.44 189.311   1
  -2  -4  -2 54026.3 1296.03   1
   2   4   2 49866.9 1312.90   1
  -2  -4  -3 4610.00 418.394   1
   2   4   3 4249.12 386.950   1
  -2  -4  -4 4430.71 424.567   1
   2   4   4 4524.22 416.126   1
  -2  -4  -5 130.695 77.1686   1
   2   4   5 130.416 69.7190   1
  -2  -4  -6 69972.3 1786.68   1
   2   4   6 71037.8 1670.13   1
  -2  -4  -7 3999.11 451.415   1
   2   4   7 3809.91 401.014   1
  -2  -4  -8 1108.67 248.351   1
   2   4   8 1269.98 250.386   1
  -2  -4  -9 4224.35 498.531   1
   2  -4   9 3087.44 406.869   1
   2   4   9 3899.46 473.100   1
   2   4  10 9720.61 766.280   1
   2  -4  10 8621.47 646.024   1
  -2  -4 -10 10226.0 819.755   1
   2   4  11 14028.2 939.484   1
  -2  -4 -11 13814.8 993.645   1
   2  -4  11 11719.9 763.159   1
   2   4  12 4215.04 511.741   1
  -2  -4 -12 3945.64 545.121   1
   2  -4  12 3659.86 428.552   1
   2   4  13 38776.1 1675.04   1
  -2  -4 -13 38974.3 1800.85   1
   2  -4  13 42709.2 1412.17   1
   2  -4  14 24113.0 1155.16   1
   2  -4  15 1096.82 261.590   1
   2   5 -11 304.474 79.1688   1
   2   5  -4 39.9435 39.6648   1
   2   5  -3 215643. 2273.11   1
   2   5  -2 40605.1 998.433   1
   2   5  -1 308.541 81.4704   1
  -2  -5   1 368.513 103.159   1
  -2  -5   0 7843.65 488.651   1
   2   5   0 7876.36 516.427   1
  -2  -5  -1 15145.8 709.435   1
   2   5   1 15287.2 720.488   1
  -2  -5  -2 57371.9 1481.78   1
   2   5   2 56930.8 1420.47   1
  -2  -5  -3 287596. 3405.18   1
   2   5   3 270484. 3115.02   1
  -2  -5  -4 848.878 195.511   1
   2   5   4 806.209 185.466   1
  -2  -5  -5 116414. 2343.44   1
   2   5   5 117019. 2177.34   1
  -2  -5  -6 6282.55 547.119   1
   2   5   6 6105.98 511.401   1
  -2  -5  -7 80046.0 2073.50   1
   2   5   7 84004.0 2050.19   1
   2   5   8 10110.5 749.701   1
  -2  -5  -8 10718.7 782.432   1
   2   5   9 33643.9 1377.43   1
  -2  -5  -9 34153.1 1456.10   1
   2   5  10 34459.3 1453.61   1
   2  -5  10 33888.2 1272.12   1
  -2  -5 -10 35746.9 1552.33   1
  -2  -5 -11 20102.0 1197.53   1
   2  -5  11 21419.8 1006.49   1
   2   5  11 19588.3 1128.66   1
   2  -5  12-226.918 105.933   1
   2   5  12-15.0014 84.8422   1
   2  -5  13 10315.6 679.658   1
   2  -5  14 4317.30 460.030   1
   2   6  -8 10195.1 387.938   1
   2   6  -7 1652.22 172.860   1
   2   6  -6 783.801 118.569   1
   2   6  -5 20118.8 655.600   1
   2   6  -4 213.033 70.8533   1
   2   6  -3 18645.3 712.024   1
   2   6  -2 33972.4 987.965   1
  -2  -6   2 34834.7 1092.48   1
  -2  -6   1 119238. 1909.35   1
   2   6  -1 120438. 1919.31   1
  -2  -6   0 41012.4 1190.22   1
   2   6   0 41517.0 1147.31   1
  -2  -6  -1 26474.8 1031.02   1
   2   6   1 27109.0 958.344   1
   2   6   2 478.375 132.748   1
  -2  -6  -2 453.783 140.756   1
  -2  -6  -3 5733.67 528.698   1
   2   6   3 6560.48 518.722   1
  -2  -6  -4 16672.6 900.096   1
   2   6   4 15997.0 809.095   1
  -2  -6  -5 9053.84 675.829   1
   2   6   5 8405.79 649.597   1
   2   6   6 4756.39 492.616   1
  -2  -6  -6 5155.52 518.567   1
   2   6   7 10474.9 766.202   1
  -2  -6  -7 10493.1 795.401   1
   2   6   8 25911.7 1202.46   1
  -2  -6  -8 25218.1 1273.17   1
   2   6   9 20691.8 1091.17   1
  -2  -6  -9 20377.2 1198.57   1
   2   6  10 4296.87 521.967   1
  -2  -6 -10 4510.01 568.247   1
   2   6  11 21834.5 1255.22   1
   2  -6  11 22415.1 1072.10   1
   2  -6  12 7231.02 596.491   1
   2  -6  13 31470.3 1151.43   1
   2   7  -7 4768.33 253.044   1
   2   7  -6 128.685 55.7968   1
   2   7  -5 24321.4 704.828   1
   2   7  -4 36440.4 938.768   1
  -2  -7   3 3049.29 363.462   1
   2   7  -3 3025.82 292.083   1
  -2  -7   2 27969.9 986.920   1
   2   7  -2 30226.1 931.683   1
  -2  -7   1 22365.1 906.302   1
   2   7  -1 23557.7 868.996   1
  -2  -7   0 16734.6 832.228   1
   2   7   0 17992.8 791.152   1
  -2  -7  -1 21146.3 954.203   1
   2   7   1 23798.5 948.001   1
  -2  -7  -2 23628.9 1063.56   1
   2   7   2 27122.7 1093.12   1
   2   7   3 7618.34 616.730   1
  -2  -7  -3 7756.73 630.276   1
   2   7   4 37036.6 1365.70   1
  -2  -7  -4 40747.2 1439.48   1
   2   7   5 3871.33 456.385   1
  -2  -7  -5 3976.90 475.298   1
  -2  -7  -6 27.6849 78.7261   1
   2   7   6 32.1668 58.2989   1
   2   7   7 29020.2 1287.65   1
  -2  -7  -7 28487.3 1399.97   1
   2   7   8 87124.5 2349.63   1
  -2  -7  -8 88187.3 2523.96   1
  -2  -7  -9 6419.36 728.293   1
   2   7   9 6252.34 642.096   1
   2   7  10 4193.61 560.754   1
   2  -7  11 6663.20 600.446   1
   2  -7  12 152.621 95.7466   1
   2   8  -7 81793.4 1067.60   1
   2   8  -6 10377.5 447.761   1
   2   8  -5 29607.4 851.831   1
   2   8  -4 2335.01 265.190   1
   2   8  -3 6329.72 462.223   1
  -2  -8   3 7195.16 536.203   1
  -2  -8   2 99.7804 49.9665   1
   2   8  -2 126.190 77.8239   1
  -2  -8   1 147.841 95.0417   1
   2   8  -1 315.190 124.364   1
   2   8   0 83659.7 1866.75   1
  -2  -8   0 85273.2 1957.86   1
   2   8   1 7823.45 592.586   1
  -2  -8  -1 7891.42 611.206   1
  -2  -8  -2 778.516 340.829   1
   2   8   2 826.313 230.947   1
   2   8   3 12172.8 796.314   1
  -2  -8  -3 12178.4 802.704   1
  -2  -8  -4 3896.55 473.445   1
   2   8   4 3865.02 450.437   1
   2   8   5 15125.5 925.499   1
  -2  -8  -5 14217.9 956.660   1
   2   8   6 4066.41 488.755   1
  -2  -8  -6 3766.65 511.144   1
   2   8   7 35462.1 1550.13   1
  -2  -8  -7 36782.0 1671.82   1
   2   8   8 26969.3 1373.39   1
  -2  -8  -8 26450.0 1469.78   1
   2   8   9 15715.4 1059.17   1
   2   9  -6 618.358 124.042   1
   2   9  -5 1825.60 224.814   1
   2   9  -4 1280.04 189.184   1
  -2  -9   4 1499.87 270.994   1
  -2  -9   3 75515.8 1781.35   1
   2   9  -3 66592.6 1575.68   1
  -2  -9   2 13201.5 768.978   1
   2   9  -2 13059.5 733.219   1
  -2  -9   1 56822.3 1711.32   1
   2   9  -1 57034.4 1576.53   1
  -2  -9   0 1006.81 221.905   1
   2   9   0 1262.73 243.873   1
   2   9   1 67446.3 1835.50   1
  -2  -9  -1 64482.3 1915.56   1
  -2  -9  -2 1048.50 233.881   1
   2   9   2 1027.26 237.814   1
   2   9   3 69693.9 2001.63   1
  -2  -9  -3 73043.9 2113.58   1
  -2  -9  -4 26.9819 85.0500   1
   2   9   4 56.9011 105.504   1
   2   9   5 5839.52 583.244   1
  -2  -9  -5 5788.73 660.725   1
   2   9   6 317.203 151.687   1
  -2  -9  -6 420.604 156.618   1
   2   9   7 2704.99 420.138   1
  -2  -9  -7 2969.28 483.854   1
   2   9   8 1935.86 367.530   1
  -2 -10   4 2104.87 336.778   1
   2  10  -4 1863.05 282.033   1
  -2 -10   3 13840.5 808.421   1
   2  10  -3 11174.7 753.093   1
  -2 -10   2 40794.9 1511.34   1
   2  10  -2 39681.5 1368.41   1
  -2 -10   1 1548.07 293.307   1
   2  10  -1 1537.27 281.720   1
  -2 -10   0 3399.57 441.825   1
   2  10   0 3490.28 423.575   1
   2  10   1 36.4894 50.8231   1
  -2 -10  -1-30.8950 30.9443   1
   2  10   2 8668.17 725.345   1
  -2 -10  -2 9867.83 796.980   1
   2  10   3 18745.8 1079.51   1
  -2 -10  -3 18552.9 1128.87   1
   2  10   4 4232.49 522.068   1
  -2 -10  -4 3832.02 531.365   1
   2  10   5 34118.5 1538.98   1
  -2 -10  -5 33897.8 1670.77   1
   2  10   6 13927.7 981.189   1
  -2 -10  -6 14860.9 1153.87   1
  -2 -11   5 9913.85 919.996   1
  -2 -11   4 19350.6 1078.06   1
  -2 -11   3 7072.88 643.660   1
   2  11  -3 5935.66 515.985   1
  -2 -11   2 29693.6 1366.66   1
   2  11  -2 27024.0 1190.92   1
  -2 -11   1 646.956 259.126   1
   2  11  -1 65.0710 89.5675   1
  -2 -11   0 703.634 187.400   1
   2  11   0 778.694 232.699   1
  -2 -11  -1 15708.0 1047.95   1
   2  11   1 15116.3 1047.83   1
  -2 -11  -2 2850.94 448.500   1
   2  11   2 2383.81 436.360   1
  -2 -11  -3 29736.4 1518.18   1
   2  11   3 28566.2 1524.02   1
  -2 -11  -4 26025.0 1475.65   1
   2  11   4 25431.4 1446.82   1
   2  11   5 13439.7 1068.42   1
  -2 -12   4 2295.72 406.245   1
  -2 -12   3 10353.3 837.445   1
  -2 -12   2 233.876 159.940   1
  -2 -12   1 31875.0 1508.67   1
   2  12  -1 29509.8 1323.46   1
  -2 -12   0 20725.6 1245.35   1
   2  12   0 18201.4 1084.67   1
  -2 -12  -1 25589.2 1421.81   1
   2  12   1 22267.7 1264.91   1
   2  12   2 1919.85 396.366   1
  -2 -12  -2 2249.51 425.110   1
  -2 -12  -3 14667.7 1099.37   1
   2  12   3 12508.3 1003.38   1
   2  12   4 150.511 95.2852   1
  -2 -13   2 15312.9 1127.01   1
  -2 -13   1 1135.59 302.246   1
  -2 -13   0 52.4943 71.7135   1
   2  13   0 80.3376 103.214   1
  -2 -13  -1 1698.55 404.170   1
   2  13   1 1469.74 323.635   1
  -2 -13  -2 18681.2 1269.03   1
   2  13   2 13990.7 1026.96   1
   2  13   3 6596.01 728.672   1
  -2 -14   0 6258.81 742.092   1
   3   0   8 626.827 228.948   1
   3   0   9 75.2171 129.627   1
   3   0  10 1153.53 292.251   1
  -3   0 -10 957.538 265.276   1
   3   0  11-0.44749 57.4708   1
  -3   0 -11-122.031 131.828   1
   3   0  12 1355.22 329.229   1
  -3   0 -12 1209.78 328.834   1
   3   0  13 10.2180 64.8108   1
  -3   0 -13 14.5250 79.3249   1
  -3   0 -14 40435.4 2005.60   1
   3   0  14 47624.4 1875.64   1
  -3   0 -15 45.4275 50.3912   1
   3   0  15-53.9038 53.5728   1
   3   0  16 9174.99 958.813   1
  -3  -1  -7 16659.4 978.245   1
   3   1   7 16837.6 959.025   1
  -3  -1  -8 7793.16 695.330   1
   3   1   8 7737.65 675.070   1
   3  -1   9 2535.15 423.188   1
   3   1   9 2311.53 399.512   1
  -3  -1  -9 2385.07 401.721   1
  -3  -1 -10 103714. 2622.12   1
   3  -1  10 105919. 2634.98   1
  -3  -1 -11 2604.30 440.374   1
   3  -1  11 3442.17 500.636   1
   3   1  11 2775.36 440.608   1
  -3  -1 -12 2521.98 435.472   1
   3  -1  12 3000.32 470.019   1
   3   1  12 2704.40 446.267   1
  -3  -1 -13 7347.13 784.261   1
   3  -1  13 9691.13 828.569   1
   3   1  13 8176.50 776.682   1
  -3  -1 -14 12963.0 1111.69   1
   3  -1  14 15771.2 1132.39   1
   3   1  14 15694.8 1099.71   1
   3  -1  15 8860.32 923.060   1
   3   1  15 8560.89 886.468   1
  -3   1 -16 4554.50 746.636   1
   3  -1  16 5771.26 767.754   1
   3  -1  17 740.754 319.116   1
  -3  -2  -5 81924.1 2034.07   1
   3   2   5 81747.0 2055.25   1
  -3  -2  -6 4403.11 494.526   1
   3   2   6 4582.11 477.855   1
  -3  -2  -7 9963.63 734.605   1
   3   2   7 9331.92 710.727   1
   3   2   8 25536.2 1240.76   1
  -3  -2  -8 26792.5 1255.36   1
  -3  -2  -9-35.6448 96.2671   1
   3   2   9 64.2139 70.0981   1
  -3  -2 -10 1815.87 367.134   1
   3  -2  10 1870.27 356.769   1
   3   2  10 1878.90 351.567   1
  -3  -2 -11 60061.1 2024.15   1
   3  -2  11 61533.1 2033.57   1
   3   2  11 62118.0 1924.06   1
  -3  -2 -12 43141.3 1785.89   1
   3  -2  12 40917.4 1760.68   1
   3   2  12 41731.1 1666.96   1
  -3  -2 -13 2956.32 493.199   1
   3  -2  13 2683.98 497.650   1
   3   2  13 3357.28 474.070   1
   3  -2  14 2586.67 494.963   1
   3  -2  15 5.48153 63.5620   1
   3  -2  16 1389.60 452.928   1
   3  -2  17 1243.25 398.802   1
  -3  -3  -4 201330. 3129.02   1
   3   3   4 195336. 3149.52   1
  -3  -3  -5 15250.2 860.262   1
   3   3   5 14746.4 818.490   1
   3   3   6 12528.5 786.279   1
  -3  -3  -6 12086.7 775.294   1
  -3  -3  -7 1188.05 279.004   1
   3   3   7 1124.11 281.645   1
   3   3   8 28035.0 1297.02   1
  -3  -3  -9-63.2553 84.0976   1
   3   3   9 34.3869 61.8264   1
  -3  -3 -10 34270.0 1525.82   1
   3   3  10 34472.9 1426.37   1
  -3  -3 -11-111.554 152.784   1
   3  -3  11 108.658 129.314   1
   3   3  11 104.194 94.9367   1
  -3  -3 -12 10774.9 939.025   1
   3  -3  12 12891.2 1001.60   1
   3   3  12 11944.6 889.899   1
   3   3  13 1483.76 352.967   1
   3  -3  13 1796.29 388.969   1
   3  -3  14 1211.72 336.850   1
   3  -3  15 2993.66 522.047   1
   3  -3  16 104757. 3004.65   1
   3   4   2 11120.3 746.585   1
   3   4   3 993.312 225.345   1
  -3  -4  -3 1118.85 251.544   1
  -3  -4  -4 3189.28 405.424   1
   3   4   4 2956.83 397.753   1
  -3  -4  -5 9068.15 669.848   1
   3   4   5 9777.67 692.481   1
  -3  -4  -6 9199.52 704.810   1
   3   4   6 8463.53 713.190   1
  -3  -4  -7 2478.08 384.240   1
   3   4   7 2749.90 400.333   1
  -3  -4  -8 38239.7 1550.46   1
   3   4   8 37859.7 1493.83   1
  -3  -4  -9 32999.9 1521.14   1
   3   4   9 34374.2 1393.33   1
   3   4  10 134.103 110.564   1
  -3  -4 -10 73.8460 83.5997   1
   3   4  11 598.139 205.880   1
  -3  -4 -11 468.723 191.821   1
   3  -4  12 66151.3 2384.71   1
   3   4  12 58207.4 2029.13   1
   3  -4  13 3429.68 555.376   1
   3  -4  14 96.8222 153.172   1
   3  -4  15 203.210 189.067   1
   3   5   0 2901.97 377.158   1
  -3  -5  -1 108213. 2328.47   1
   3   5   1 107892. 2181.01   1
   3   5   2 1257.69 275.880   1
  -3  -5  -2 1404.22 270.986   1
  -3  -5  -3 708.063 201.371   1
   3   5   3 664.785 174.339   1
  -3  -5  -4 19983.8 998.377   1
   3   5   4 18661.3 1030.93   1
  -3  -5  -5 8359.97 749.089   1
   3   5   5 7474.95 663.744   1
  -3  -5  -6 15642.6 941.937   1
   3   5   6 15272.6 925.205   1
  -3  -5  -7 4192.89 526.866   1
   3   5   7 4279.50 486.021   1
  -3  -5  -8 24970.5 1336.71   1
   3   5   8 26354.8 1205.78   1
  -3  -5  -9 31186.5 1527.11   1
   3   5   9 31859.4 1373.30   1
  -3  -5 -10 2560.61 471.444   1
   3   5  10 2634.76 416.249   1
   3   5  11 17112.1 1113.73   1
   3  -5  13 14222.5 1147.73   1
   3  -5  14 49.5605 133.941   1
   3   6  -3 5818.22 492.273   1
   3   6  -2 820.699 204.658   1
   3   6  -1 10433.9 660.749   1
   3   6   0 82.2471 187.536   1
  -3  -6   0 10.6209 44.4188   1
  -3  -6  -1 19077.9 962.675   1
   3   6   1 19605.9 940.346   1
  -3  -6  -2 37008.0 1324.89   1
   3   6   2 36710.1 1378.44   1
  -3  -6  -3 5377.60 524.063   1
   3   6   3 4840.85 530.485   1
  -3  -6  -4 1947.64 319.475   1
   3   6   4 1861.78 329.267   1
  -3  -6  -5 46776.8 1667.04   1
   3   6   5 48736.1 1611.06   1
  -3  -6  -6 88481.7 2436.39   1
   3   6   6 95142.4 2245.54   1
  -3  -6  -7 34434.7 1549.80   1
   3   6   7 35166.4 1411.28   1
   3   6   8 136.088 92.6551   1
  -3  -6  -8 249.292 129.020   1
  -3  -6  -9 18456.3 1253.54   1
   3   6   9 19409.2 1115.04   1
   3   6  10-117.530 108.869   1
   3   7  -6 7776.69 568.666   1
   3   7  -5 12724.1 716.980   1
   3   7  -4 19270.3 875.087   1
   3   7  -3 5458.75 485.904   1
   3   7  -2 65436.3 1668.07   1
   3   7  -1 48531.4 1527.58   1
  -3  -7   0 24240.5 1124.96   1
   3   7   0 24214.6 1089.06   1
  -3  -7  -1 15707.4 915.917   1
   3   7   1 16147.5 918.232   1
  -3  -7  -2 33092.8 1286.28   1
   3   7   2 33250.5 1302.30   1
  -3  -7  -3 194.057 86.7849   1
   3   7   3 248.026 122.763   1
  -3  -7  -4 24208.2 1208.95   1
   3   7   4 24892.3 1145.36   1
   3   7   5 195.081 113.016   1
  -3  -7  -5 200.252 99.3997   1
  -3  -7  -6 24331.0 1335.06   1
   3   7   6 23525.2 1159.31   1
  -3  -7  -7 32283.4 1604.64   1
   3   7   7 32507.2 1405.77   1
  -3  -7  -8 141.226 106.442   1
   3   7   8 158.522 65.9425   1
   3   7   9 4984.42 630.448   1
   3   8  -7 10466.6 611.296   1
   3   8  -6 38393.6 1244.20   1
   3   8  -5 33473.2 1208.28   1
   3   8  -4 101.212 67.1497   1
   3   8  -3 174.661 111.589   1
   3   8  -2 11544.9 757.531   1
  -3  -8   1 102555. 2449.44   1
   3   8  -1 95725.7 2151.93   1
  -3  -8   0 528.555 168.915   1
   3   8   0 578.306 156.577   1
  -3  -8  -1 52500.9 1666.08   1
   3   8   1 52662.7 1612.02   1
  -3  -8  -2 18959.9 1048.97   1
   3   8   2 20103.1 1028.24   1
  -3  -8  -3 40382.6 1580.71   1
   3   8   3 43511.6 1513.86   1
  -3  -8  -4 16357.0 1062.83   1
   3   8   4 16625.0 985.316   1
   3   8   5 749.303 206.625   1
  -3  -8  -5 889.494 250.079   1
  -3  -8  -6 14888.9 1069.53   1
   3   8   6 16279.2 1059.82   1
  -3  -8  -7 46.9628 94.9144   1
   3   8   7 20.0040 66.3237   1
   3   8   8 914.156 286.201   1
   3   9  -5 24345.1 978.116   1
   3   9  -4 1377.80 242.746   1
   3   9  -3 7744.80 614.165   1
   3   9  -2 32.9395 42.4738   1
  -3  -9   2-101.240 87.7588   1
  -3  -9   1 1082.67 266.305   1
   3   9  -1 1286.20 253.626   1
  -3  -9   0 19768.6 1077.18   1
   3   9   0 21051.9 1055.33   1
  -3  -9  -1 2944.44 424.065   1
   3   9   1 3334.13 428.533   1
  -3  -9  -2 287.317 137.731   1
   3   9   2 363.242 148.007   1
  -3  -9  -3 34702.9 1596.74   1
   3   9   3 38747.6 1594.82   1
   3   9   4 3861.56 518.019   1
  -3  -9  -4 4090.99 568.254   1
   3   9   5 21417.2 1229.13   1
  -3  -9  -5 21112.9 1286.48   1
   3   9   6 19887.7 1200.83   1
  -3  -9  -6 20479.8 1281.95   1
   3   9   7 33604.4 1607.24   1
   3  10  -4 34016.2 1307.98   1
   3  10  -3 34169.3 1373.54   1
   3  10  -2 260.104 98.3671   1
  -3 -10   2 318.719 162.755   1
   3  10  -1 33109.3 1429.29   1
  -3 -10   1 33317.6 1498.40   1
   3  10   0 46010.7 1735.37   1
  -3 -10   0 44519.8 1690.60   1
   3  10   1 11857.3 893.906   1
  -3 -10  -1 11614.7 909.991   1
  -3 -10  -2 1400.44 335.372   1
   3  10   2 1636.66 340.116   1
  -3 -10  -3 189.999 104.335   1
   3  10   3 299.333 163.605   1
  -3 -10  -4 932.041 278.330   1
   3  10   4 1107.27 275.398   1
  -3 -10  -5 2676.18 498.630   1
   3  10   5 2790.88 437.419   1
  -3 -11   3 11599.9 1015.03   1
   3  11  -2 35025.4 1456.02   1
  -3 -11   2 42405.9 1839.76   1
  -3 -11   1 330.311 162.679   1
   3  11  -1 155.994 69.2923   1
  -3 -11   0-14.2519 81.9064   1
   3  11   0-21.4518 93.6132   1
   3  11   1 14286.7 1016.48   1
  -3 -11  -1 14836.1 1080.61   1
   3  11   2 10609.2 884.392   1
  -3 -11  -2 9503.47 896.107   1
  -3 -11  -3 683.420 435.570   1
   3  11   3 237.767 186.047   1
   3  11   4 11887.7 971.778   1
  -3 -12   3 17339.2 1297.99   1
  -3 -12   2 87.5648 116.825   1
   3  12  -1 3406.73 477.351   1
  -3 -12   1 4113.53 587.772   1
   3  12   0 10.0969 38.2091   1
  -3 -12   0-15.6399 103.595   1
  -3 -12  -1 20468.7 1305.89   1
   3  12   1 17541.2 1137.75   1
   3  12   2 1590.89 338.489   1
  -3 -12  -2 1783.80 421.165   1
   3  12   3 2789.52 468.988   1
  -3 -13   1 11334.3 990.319   1
  -3 -13   0 11790.7 1062.40   1
  -3 -13  -1 3781.22 607.967   1
   3  13   1 3065.41 568.923   1
   3  13   2 135.486 155.356   1
  -3 -14   0 25690.4 1640.56   1
   4   0  13-43.6329 91.8653   1
   4   0  14 94.9929 121.724   1
   4   0  15 19.6946 69.0335   1
   4   1  11 9900.20 965.333   1
   4   1  12 264.752 154.398   1
   4  -1  13 1361.52 505.229   1
   4   1  13 1251.47 361.442   1
   4  -1  14 237.454 207.098   1
   4   1  14-39.5208 51.0060   1
   4  -1  15 8122.28 1028.39   1
   4   2   9 592.628 331.046   1
   4   2  10 1273.45 338.725   1
  -4  -2 -10 1284.64 345.224   1
  -4  -2 -11 14346.4 1146.93   1
   4   2  11 14112.0 1166.01   1
   4   2  12 1376.89 392.957   1
  -4  -2 -12 1184.69 357.302   1
   4   2  13 27545.7 1603.65   1
   4  -2  15 484.486 299.705   1
   4  -2  16 4377.55 769.052   1
   4   3   8 869.505 276.200   1
  -4  -3  -8 705.935 241.801   1
  -4  -3  -9 4704.27 592.841   1
   4   3   9 5151.47 650.043   1
  -4  -3 -10 41958.2 1904.63   1
   4   3  10 43325.4 1918.43   1
  -4  -3 -11 12273.1 1053.92   1
   4   3  11 11773.8 1019.14   1
   4   3  12 2318.49 440.077   1
   4  -3  15 212.595 246.057   1
   4  -3  16 35.0245 109.986   1
  -4  -4  -6 117999. 2904.79   1
  -4  -4  -7 9692.65 854.088   1
   4   4   7 11111.4 848.896   1
   4   4   8 1163.91 310.112   1
  -4  -4  -8 1236.42 308.658   1
  -4  -4  -9 33774.6 1652.09   1
   4   4   9 33274.1 1651.53   1
  -4  -4 -10 4555.60 629.138   1
   4   4  10 4662.57 635.990   1
   4   4  11 16900.2 1174.52   1
   4   5   4 10917.8 849.082   1
  -4  -5  -5 11477.3 896.135   1
   4   5   5 11799.1 955.598   1
  -4  -5  -6 6377.14 687.851   1
   4   5   6 6695.61 678.697   1
  -4  -5  -7 3832.43 557.345   1
   4   5   7 3848.02 553.318   1
  -4  -5  -8 44.7306 48.3707   1
   4   5   8 51.9720 67.2551   1
  -4  -5  -9 11167.3 942.973   1
   4   5   9 11123.2 949.448   1
   4   5  10 5526.61 704.292   1
   4   6   2 493.519 200.316   1
  -4  -6  -3 5084.92 638.671   1
   4   6   3 5012.62 629.251   1
   4   6   4 50.6130 44.6696   1
  -4  -6  -4 357.607 235.670   1
  -4  -6  -5-6.30177 62.0710   1
   4   6   5-14.9983 81.6610   1
  -4  -6  -6 4508.86 594.290   1
   4   6   6 4463.53 599.888   1
  -4  -6  -7 13691.1 1037.88   1
   4   6   7 13605.6 1056.87   1
  -4  -6  -8 3514.60 562.636   1
   4   6   8 3412.80 534.168   1
   4   6   9 9249.25 862.810   1
   4   7   0 4824.10 584.313   1
   4   7   1 10261.5 838.671   1
   4   7   2 20614.6 1153.15   1
  -4  -7  -3 23092.3 1301.36   1
   4   7   3 24396.4 1331.39   1
  -4  -7  -4 67090.5 2264.22   1
   4   7   4 64020.7 2144.42   1
  -4  -7  -5 351.159 181.846   1
   4   7   5 407.352 206.512   1
  -4  -7  -6 3712.94 545.923   1
   4   7   6 3804.83 539.164   1
   4   7   7 8093.19 789.240   1
   4   7   8 9710.00 856.245   1
   4   8  -3 1552.89 342.163   1
   4   8  -2 3258.13 486.515   1
   4   8  -1 1673.46 345.229   1
   4   8   0 15250.8 1069.11   1
   4   8   1 14920.8 1076.11   1
   4   8   2 1640.76 370.291   1
  -4  -8  -2 1640.18 341.185   1
  -4  -8  -3 38800.1 1723.53   1
   4   8   3 40463.5 1698.78   1
  -4  -8  -4 48.4849 70.3319   1
   4   8   4 159.700 210.858   1
  -4  -8  -5 49214.8 1949.24   1
   4   8   5 50619.9 1901.51   1
   4   8   6 7697.61 751.202   1
   4   9  -5 397.081 186.933   1
   4   9  -4 15377.4 1057.21   1
   4   9  -3 52570.8 2000.93   1
   4   9  -2 79.2043 81.9885   1
   4   9  -1 30344.6 1503.72   1
   4   9   0 2371.68 443.274   1
  -4  -9  -1 17767.7 1259.72   1
   4   9   1 19880.8 1206.45   1
  -4  -9  -2 9870.02 963.429   1
   4   9   2 9685.05 849.980   1
  -4  -9  -3 1360.77 335.505   1
   4   9   3 1525.71 334.638   1
  -4  -9  -4 340.887 187.779   1
   4   9   4 469.350 230.217   1
   4   9   5 253.923 141.590   1
   4  10  -3 15971.5 1058.20   1
   4  10  -2 203.316 127.141   1
   4  10  -1 74.0100 103.869   1
  -4 -10   0 27936.4 1616.77   1
   4  10   0 27360.7 1407.51   1
  -4 -10  -1 4040.50 632.908   1
   4  10   1 4715.66 602.365   1
  -4 -10  -2 12438.1 1021.43   1
   4  10   2 12545.7 959.341   1
  -4 -10  -3 304.143 207.953   1
   4  10   3 271.479 132.865   1
   4  10   4 2591.65 463.467   1
   4  11  -2 4626.15 581.017   1
   4  11  -1 68.8151 65.3418   1
   4  11   0 199.199 123.512   1
  -4 -11   0 118.268 69.7507   1
  -4 -11  -1 1539.61 390.850   1
   4  11   1 1462.69 370.114   1
  -4 -11  -2 26200.8 1580.08   1
   4  11   2 23047.1 1435.47   1
   4  11   3 600.965 196.108   1
   4  12   0-56.6232 50.1066   1
  -4 -12   0-257.212 210.006   1
   4  12   1 9240.28 1148.49   1
  -4 -12  -1 11660.0 1100.64   1
   4  12   2 1507.19 358.899   1
  -4 -13   1 172.605 130.769   1
   5   8   3 901.196 321.298   1
   5   8   4 234.140 194.903   1
   5   9   1 468.916 276.669   1
   5   9   2 5.99105 120.240   1
   5   9   3 41937.6 2066.97   1
   5  10  -2 7166.61 930.556   1
   5  10  -1 7173.44 884.808   1
   5  10   0 6670.01 875.596   1
   5  10   1 3336.46 608.800   1
   5  10   2 5857.86 790.757   1
   5  11  -1 11976.8 1107.32   1
   5  11   0 633.613 271.683   1
   5  11   1 6530.35 788.345   1
   5  12   0 270.034 182.075   1
   0   0   0    0.00    0.00   0
TITL p01_cr2_s1 in P2(1)/c
REM P2(1)/c (#14 in standard setting)
CELL 0.29840   4.637815   7.403433   9.484018  90.0000  90.7286  90.0000
ZERR    1.00   0.001729   0.000413   0.000600   0.0000   0.0167   0.0000
LATT  1
SYMM -x, y+1/2,-z+1/2
SFAC H B O Si Ca
UNIT 1.00 1.00 5.00 1.00 1.00
TREF
HKLF 4
END
;
_shelx_hkl_checksum              80318
loop_
_space_group_symop_operation_xyz
'x, y, z'
'-x, y+1/2, -z+1/2'
'-x, -y, -z'
'x, -y-1/2, z-1/2'
loop_
_atom_site_label
_atom_site_type_symbol
_atom_site_fract_x
_atom_site_fract_y
_atom_site_fract_z
_atom_site_U_iso_or_equiv
_atom_site_adp_type
_atom_site_occupancy
_atom_site_site_symmetry_order
_atom_site_calc_flag
_atom_site_refinement_flags_posn
Ca1 Ca 0.0056(2) 0.60809(6) 0.16715(6) 0.0106(4) Uani 1 1 d .
Si1 Si 0.4796(3) 0.27333(9) 0.08298(7) 0.0086(5) Uani 1 1 d .
B1 B 0.5757(11) 0.0862(3) -0.1563(3) 0.0077(11) Uani 1 1 d .
O1 O 0.2489(7) 0.4135(3) 0.0335(2) 0.0106(10) Uani 1 1 d .
O2 O 0.6924(8) 0.1960(3) -0.0394(2) 0.0111(9) Uani 1 1 d .
O3 O 0.6949(8) 0.3374(3) 0.2120(2) 0.0115(9) Uani 1 1 d .
O4 O 0.3074(9) 0.0952(2) 0.1431(3) 0.0119(9) Uani 1 1 d .
O5 O 0.2596(8) 0.0893(3) -0.1626(2) 0.0114(10) Uani 1 1 d D
H H 0.22(2) 0.042(8) -0.079(4) 0.04(2) Uiso 1 1 d D
loop_
_atom_site_aniso_label
_atom_site_aniso_U_11
_atom_site_aniso_U_22
_atom_site_aniso_U_33
_atom_site_aniso_U_23
_atom_site_aniso_U_13
_atom_site_aniso_U_12
Ca1 0.0207(11) 0.0052(3) 0.0059(4) -0.00010(14) -0.0018(5) -0.00023(17)
Si1 0.0185(13) 0.0034(4) 0.0038(4) 0.0000(2) -0.0015(5) 0.0002(2)
B1 0.016(4) 0.0039(8) 0.0034(9) -0.0002(8) -0.0009(16) -0.0008(10)
O1 0.020(3) 0.0051(7) 0.0066(7) 0.0002(6) -0.0020(13) 0.0016(7)
O2 0.022(3) 0.0051(7) 0.0063(7) -0.0019(6) -0.0035(12) 0.0002(7)
O3 0.023(3) 0.0058(7) 0.0051(7) -0.0013(6) -0.0045(12) 0.0004(7)
O4 0.023(3) 0.0029(7) 0.0101(8) -0.0001(6) -0.0017(13) 0.0007(7)
O5 0.021(3) 0.0065(7) 0.0070(8) -0.0005(6) -0.0020(13) 0.0000(7)
loop_
_atom_type_symbol
_atom_type_description
_atom_type_scat_dispersion_real
_atom_type_scat_dispersion_imag
_atom_type_scat_source
O O 0.0056 0.0036 'International Tables Vol C Tables 4.2.6.8 and 6.1.1.4'
Si Si 0.0522 0.0431 'International Tables Vol C Tables 4.2.6.8 and 6.1.1.4'
B B 0.0004 0.0004 'International Tables Vol C Tables 4.2.6.8 and 6.1.1.4'
Ca Ca 0.1611 0.1926 'International Tables Vol C Tables 4.2.6.8 and 6.1.1.4'
H H 0.0000 0.0000 'International Tables Vol C Tables 4.2.6.8 and 6.1.1.4'
loop_
_geom_angle_atom_site_label_1
_geom_angle_atom_site_label_2
_geom_angle_atom_site_label_3
_geom_angle
_geom_angle_site_symmetry_1
_geom_angle_site_symmetry_3
O1 Ca1 O1 74.67(12) 3_565 .
O1 Ca1 O4 109.13(12) 3_565 2
O1 Ca1 O4 137.44(8) . 2
O1 Ca1 O2 85.26(10) 3_565 3_665
O1 Ca1 O2 78.32(11) . 3_665
O4 Ca1 O2 143.26(7) 2 3_665
O1 Ca1 O5 139.35(7) 3_565 4_566
O1 Ca1 O5 75.48(8) . 4_566
O4 Ca1 O5 76.52(10) 2 4_566
O2 Ca1 O5 114.74(12) 3_665 4_566
O1 Ca1 O3 137.22(7) 3_565 2_655
O1 Ca1 O3 114.96(12) . 2_655
O4 Ca1 O3 91.26(9) 2 2_655
O2 Ca1 O3 58.77(7) 3_665 2_655
O5 Ca1 O3 80.92(7) 4_566 2_655
O1 Ca1 O3 77.78(8) 3_565 1_455
O1 Ca1 O3 82.91(10) . 1_455
O4 Ca1 O3 58.06(8) 2 1_455
O2 Ca1 O3 157.46(7) 3_665 1_455
O5 Ca1 O3 71.71(9) 4_566 1_455
O3 Ca1 O3 142.43(4) 2_655 1_455
O1 Ca1 O5 78.41(8) 3_565 3_565
O1 Ca1 O5 143.30(8) . 3_565
O4 Ca1 O5 75.19(9) 2 3_565
O2 Ca1 O5 75.01(11) 3_665 3_565
O5 Ca1 O5 139.13(5) 4_566 3_565
O3 Ca1 O5 70.89(9) 2_655 3_565
O3 Ca1 O5 115.20(12) 1_455 3_565
O1 Ca1 B1 111.24(9) 3_565 3_665
O1 Ca1 B1 97.80(12) . 3_665
O4 Ca1 B1 118.03(9) 2 3_665
O2 Ca1 B1 29.10(7) 3_665 3_665
O5 Ca1 B1 99.58(10) 4_566 3_665
O3 Ca1 B1 29.70(8) 2_655 3_665
O3 Ca1 B1 170.86(7) 1_455 3_665
O5 Ca1 B1 69.38(11) 3_565 3_665
O1 Ca1 B1 95.37(11) 3_565 4_466
O1 Ca1 B1 110.67(9) . 4_466
O4 Ca1 B1 28.41(7) 2 4_466
O2 Ca1 B1 170.85(10) 3_665 4_466
O5 Ca1 B1 70.39(11) 4_566 4_466
O3 Ca1 B1 116.53(9) 2_655 4_466
O3 Ca1 B1 29.72(8) 1_455 4_466
O5 Ca1 B1 96.15(11) 3_565 4_466
B1 Ca1 B1 145.40(7) 3_665 4_466
O1 Ca1 Si1 22.51(7) 3_565 3_565
O1 Ca1 Si1 96.09(6) . 3_565
O4 Ca1 Si1 97.91(8) 2 3_565
O2 Ca1 Si1 82.74(7) 3_665 3_565
O5 Ca1 Si1 157.77(6) 4_566 3_565
O3 Ca1 Si1 121.03(5) 2_655 3_565
O3 Ca1 Si1 86.99(6) 1_455 3_565
O5 Ca1 Si1 56.08(5) 3_565 3_565
B1 Ca1 Si1 101.96(6) 3_665 3_565
B1 Ca1 Si1 94.34(8) 4_466 3_565
O1 Ca1 Si1 94.81(8) 3_565 .
O1 Ca1 Si1 21.25(5) . .
O4 Ca1 Si1 124.10(6) 2 .
O2 Ca1 Si1 86.45(8) 3_665 .
O5 Ca1 Si1 54.51(7) 4_566 .
O3 Ca1 Si1 104.35(8) 2_655 .
O3 Ca1 Si1 80.37(8) 1_455 .
O5 Ca1 Si1 160.64(8) 3_565 .
B1 Ca1 Si1 96.97(9) 3_665 .
B1 Ca1 Si1 102.57(7) 4_466 .
Si1 Ca1 Si1 116.82(3) 3_565 .
O1 Si1 O2 115.92(13) . .
O1 Si1 O3 116.18(12) . .
O2 Si1 O3 105.27(17) . .
O1 Si1 O4 107.67(17) . .
O2 Si1 O4 105.37(13) . .
O3 Si1 O4 105.47(12) . .
O1 Si1 Ca1 33.25(8) . 3_565
O2 Si1 Ca1 89.73(9) . 3_565
O3 Si1 Ca1 147.77(8) . 3_565
O4 Si1 Ca1 97.48(10) . 3_565
O1 Si1 Ca1 31.31(9) . .
O2 Si1 Ca1 144.66(7) . .
O3 Si1 Ca1 90.19(10) . .
O4 Si1 Ca1 100.59(14) . .
Ca1 Si1 Ca1 63.18(3) 3_565 .
O1 Si1 Ca1 95.75(12) . 3_665
O2 Si1 Ca1 35.31(8) . 3_665
O3 Si1 Ca1 91.08(13) . 3_665
O4 Si1 Ca1 140.68(12) . 3_665
Ca1 Si1 Ca1 84.98(3) 3_565 3_665
Ca1 Si1 Ca1 115.04(3) . 3_665
O1 Si1 Ca1 89.55(13) . 2_545
O2 Si1 Ca1 139.01(9) . 2_545
O3 Si1 Ca1 89.23(12) . 2_545
O4 Si1 Ca1 33.81(11) . 2_545
Ca1 Si1 Ca1 97.95(5) 3_565 2_545
Ca1 Si1 Ca1 71.03(3) . 2_545
Ca1 Si1 Ca1 173.92(3) 3_665 2_545
O1 Si1 Ca1 151.82(9) . 2_645
O2 Si1 Ca1 86.93(9) . 2_645
O3 Si1 Ca1 37.40(7) . 2_645
O4 Si1 Ca1 79.54(10) . 2_645
Ca1 Si1 Ca1 174.75(2) 3_565 2_645
Ca1 Si1 Ca1 121.48(3) . 2_645
Ca1 Si1 Ca1 94.58(4) 3_665 2_645
Ca1 Si1 Ca1 82.01(3) 2_545 2_645
O1 Si1 Ca1 93.99(10) . 1_655
O2 Si1 Ca1 89.12(11) . 1_655
O3 Si1 Ca1 38.95(9) . 1_655
O4 Si1 Ca1 144.41(8) . 1_655
Ca1 Si1 Ca1 115.25(3) 3_565 1_655
Ca1 Si1 Ca1 83.32(3) . 1_655
Ca1 Si1 Ca1 60.39(3) 3_665 1_655
Ca1 Si1 Ca1 122.32(3) 2_545 1_655
Ca1 Si1 Ca1 68.78(2) 2_645 1_655
O4 B1 O5 112.9(3) 3_655 .
O4 B1 O2 108.2(2) 3_655 .
O5 B1 O2 112.3(3) . .
O4 B1 O3 106.4(3) 3_655 4_565
O5 B1 O3 110.0(2) . 4_565
O2 B1 O3 106.6(3) . 4_565
O4 B1 Ca1 117.5(3) 3_655 3_665
O5 B1 Ca1 129.59(17) . 3_665
O2 B1 Ca1 51.27(17) . 3_665
O3 B1 Ca1 55.45(14) 4_565 3_665
O4 B1 Ca1 49.6(2) 3_655 4_665
O5 B1 Ca1 131.17(16) . 4_665
O2 B1 Ca1 116.5(3) . 4_665
O3 B1 Ca1 56.88(18) 4_565 4_665
Ca1 B1 Ca1 84.65(13) 3_665 4_665
Si1 O1 Ca1 124.24(13) . 3_565
Si1 O1 Ca1 127.44(12) . .
Ca1 O1 Ca1 105.33(12) 3_565 .
B1 O2 Si1 120.5(3) . .
B1 O2 Ca1 99.6(2) . 3_665
Si1 O2 Ca1 121.07(10) . 3_665
B1 O3 Si1 120.6(3) 4_566 .
B1 O3 Ca1 94.85(14) 4_566 2_645
Si1 O3 Ca1 118.78(10) . 2_645
B1 O3 Ca1 93.40(17) 4_566 1_655
Si1 O3 Ca1 116.78(11) . 1_655
Ca1 O3 Ca1 107.90(12) 2_645 1_655
B1 O4 Si1 126.0(3) 3_655 .
B1 O4 Ca1 101.9(2) 3_655 2_545
Si1 O4 Ca1 123.00(12) . 2_545
B1 O5 Ca1 119.09(18) . 4_565
B1 O5 Ca1 119.66(16) . 3_565
Ca1 O5 Ca1 106.41(10) 4_565 3_565
B1 O5 H 99(7) . .
Ca1 O5 H 105(5) 4_565 .
Ca1 O5 H 106(5) 3_565 .
loop_
_geom_bond_atom_site_label_1
_geom_bond_atom_site_label_2
_geom_bond_distance
_geom_bond_site_symmetry_2
Ca1 O1 2.232(2) 3_565
Ca1 O1 2.234(3) .
Ca1 O4 2.328(4) 2
Ca1 O2 2.361(3) 3_665
Ca1 O5 2.466(2) 4_566
Ca1 O3 2.467(2) 2_655
Ca1 O3 2.508(3) 1_455
Ca1 O5 2.556(2) 3_565
Ca1 B1 2.985(4) 3_665
Ca1 B1 2.989(5) 4_466
Ca1 Si1 3.3653(12) 3_565
Ca1 Si1 3.4140(14) .
Si1 O1 1.559(3) .
Si1 O2 1.636(4) .
Si1 O3 1.640(2) .
Si1 O4 1.647(3) .
Si1 Ca1 3.3654(12) 3_565
Si1 Ca1 3.4990(17) 3_665
Si1 Ca1 3.5088(16) 2_545
Si1 Ca1 3.5594(13) 2_645
Si1 Ca1 3.5613(14) 1_655
B1 O4 1.453(4) 3_655
B1 O5 1.467(6) .
B1 O2 1.472(3) .
B1 O3 1.484(4) 4_565
B1 Ca1 2.985(4) 3_665
B1 Ca1 2.989(5) 4_665
O1 Ca1 2.232(2) 3_565
O2 Ca1 2.362(3) 3_665
O3 B1 1.484(4) 4_566
O3 Ca1 2.467(2) 2_645
O3 Ca1 2.508(3) 1_655
O4 B1 1.453(4) 3_655
O4 Ca1 2.328(4) 2_545
O5 Ca1 2.466(2) 4_565
O5 Ca1 2.556(2) 3_565
O5 H 0.88(2) .
