#------------------------------------------------------------------------------
#$Date: 2019-11-24 06:02:49 +0200 (Sun, 24 Nov 2019) $
#$Revision: 236893 $
#$URL: file:///home/coder/svn-repositories/cod/cif/4/34/98/4349858.cif $
#------------------------------------------------------------------------------
#
# This file is available in the Crystallography Open Database (COD),
# http://www.crystallography.net/
#
# All data on this site have been placed in the public domain by the
# contributors.
#
data_4349858
loop_
_publ_author_name
'Gorelova, Liudmila A.'
'Pakhomova, Anna S.'
'Aprilis, Georgios'
'Dubrovinsky, Leonid S.'
'Krivovichev, Sergey V.'
_publ_section_title
;
 Pentacoordinated silicon in the high-pressure modification of datolite,
 CaBSiO4(OH)
;
_journal_issue                   7
_journal_name_full               'Inorganic Chemistry Frontiers'
_journal_page_first              1653
_journal_paper_doi               10.1039/C8QI00257F
_journal_volume                  5
_journal_year                    2018
_chemical_formula_sum            'B Ca H O5 Si'
_chemical_formula_weight         159.99
_space_group_crystal_system      monoclinic
_space_group_IT_number           14
_space_group_name_Hall           '-P 2ybc'
_space_group_name_H-M_alt        'P 1 21/c 1'
_atom_sites_solution_hydrogens   difmap
_audit_creation_method           SHELXL-2014/7
_audit_update_record
;
2018-03-21 deposited with the CCDC.
2018-05-04 downloaded from the CCDC.
;
_cell_angle_alpha                90
_cell_angle_beta                 90.73(4)
_cell_angle_gamma                90
_cell_formula_units_Z            4
_cell_length_a                   4.448(10)
_cell_length_b                   6.6725(7)
_cell_length_c                   9.1900(11)
_cell_measurement_reflns_used    1054
_cell_measurement_temperature    298(2)
_cell_measurement_theta_max      17.468
_cell_measurement_theta_min      1.537
_cell_volume                     272.7(6)
_computing_structure_refinement  'SHELXL-2014/7 (Sheldrick, 2014)'
_diffrn_ambient_temperature      298(2)
_diffrn_measured_fraction_theta_full 0.321
_diffrn_measured_fraction_theta_max 0.192
_diffrn_measurement_device_type
'esperanto-CrysAlisPro-abstract goniometer imported esperanto images'
_diffrn_radiation_wavelength     0.2896
_diffrn_reflns_av_R_equivalents  0.0342
_diffrn_reflns_av_unetI/netI     0.0511
_diffrn_reflns_Laue_measured_fraction_full 0.321
_diffrn_reflns_Laue_measured_fraction_max 0.192
_diffrn_reflns_limit_h_max       2
_diffrn_reflns_limit_h_min       -2
_diffrn_reflns_limit_k_max       13
_diffrn_reflns_limit_k_min       -13
_diffrn_reflns_limit_l_max       19
_diffrn_reflns_limit_l_min       -17
_diffrn_reflns_number            1054
_diffrn_reflns_point_group_measured_fraction_full 0.321
_diffrn_reflns_point_group_measured_fraction_max 0.192
_diffrn_reflns_theta_full        10.007
_diffrn_reflns_theta_max         17.468
_diffrn_reflns_theta_min         1.537
_exptl_absorpt_coefficient_mu    1.326
_exptl_crystal_colour            colorless
_exptl_crystal_density_diffrn    3.896
_exptl_crystal_density_meas      ?
_exptl_crystal_density_method    none
_exptl_crystal_description       isosymmetric
_exptl_crystal_F_000             320
_exptl_crystal_size_max          0.010
_exptl_crystal_size_mid          0.010
_exptl_crystal_size_min          0.005
_refine_diff_density_max         0.830
_refine_diff_density_min         -0.680
_refine_diff_density_rms         0.156
_refine_ls_extinction_method     none
_refine_ls_goodness_of_fit_ref   0.917
_refine_ls_hydrogen_treatment    refall
_refine_ls_matrix_type           full
_refine_ls_number_parameters     48
_refine_ls_number_reflns         489
_refine_ls_number_restraints     1
_refine_ls_restrained_S_all      0.916
_refine_ls_R_factor_all          0.0604
_refine_ls_R_factor_gt           0.0495
_refine_ls_shift/su_max          0.000
_refine_ls_shift/su_mean         0.000
_refine_ls_structure_factor_coef Fsqd
_refine_ls_weighting_details
'w=1/[\s^2^(Fo^2^)+(0.1029P)^2^] where P=(Fo^2^+2Fc^2^)/3'
_refine_ls_weighting_scheme      calc
_refine_ls_wR_factor_gt          0.1224
_refine_ls_wR_factor_ref         0.1341
_reflns_Friedel_coverage         0.000
_reflns_number_gt                402
_reflns_number_total             489
_reflns_threshold_expression     'I > 2\s(I)'
_cod_data_source_file            c8qi00257f2.cif
_cod_data_source_block           shelx_CCDC12
_cod_depositor_comments
;
The following automatic conversions were performed:

data item '_exptl_crystal_density_meas' value 'none' was changed to
'?' -- the value is perceived as not measured.

Automatic conversion script
Id: cif_fix_values 6909 2019-04-08 15:41:33Z antanas 
;
_cod_original_sg_symbol_H-M      'P 21/c'
_cod_database_code               4349858
_shelx_shelxl_version_number     2014/7
_shelx_space_group_comment
;
The symmetry employed for this shelxl refinement is uniquely defined
by the following loop, which should always be used as a source of
symmetry information in preference to the above space-group names.
They are only intended as comments.
;
_shelx_res_file
;

    shelx.res created by SHELXL-2014/7


TITL p6_cr3_s6 in P2(1)/c
REM P2(1)/c (#14 in standard setting)
CELL 0.28960   4.448160   6.672509   9.190028  90.0000  90.7287  90.0000
ZERR    4.00   0.009607   0.000734   0.001138   0.0000   0.0391   0.0000
LATT  1
SYMM -x, y+1/2,-z+1/2
SFAC O Si B Ca H
UNIT 20.00 4.00 4.00 4.00 4.00

OMIT     0   3   1
OMIT     0   7   5
OMIT     0   1   3
OMIT     0   0   6
OMIT     0   1   5
OMIT     2  10   4
OMIT     2   0  12
OMIT     0   0   8

L.S. 20
ACTA
BOND $H
HTAB
DFIX 0.90 0.02 H O5
TEMP 25.0
FMAP 2
PLAN 250
REM TWIN 1 0 0 0 1 0 0 0 -1
REM EXTI    0.000000
EADP O1 O2 O3 O4 O5
WGHT    0.102900
FVAR      12.35716
CA1   4    0.001066    0.629268    0.181292    11.00000    0.02330    0.00896 =
         0.00467   -0.00024   -0.00254   -0.00101
SI1   2    0.532769    0.322370    0.066000    11.00000    0.02138    0.00816 =
         0.00309    0.00008   -0.00485   -0.00020
B1    3    0.593778    0.057927   -0.151193    11.00000    0.00581
O1    1    0.258460    0.460933    0.015759    11.00000    0.02083    0.00909 =
         0.00411    0.00010   -0.00373   -0.00138
O2    1    0.729133    0.176650   -0.037163    11.00000    0.02083    0.00909 =
         0.00411    0.00010   -0.00373   -0.00138
O3    1    0.712654    0.362801    0.216142    11.00000    0.02083    0.00909 =
         0.00411    0.00010   -0.00373   -0.00138
O4    1    0.307234    0.141346    0.130994    11.00000    0.02083    0.00909 =
         0.00411    0.00010   -0.00373   -0.00138
O5    1    0.268719    0.078366   -0.159156    11.00000    0.02083    0.00909 =
         0.00411    0.00010   -0.00373   -0.00138
H     5    0.173267    0.032960   -0.080059    11.00000    0.02728

HKLF 4

REM  p6_cr3_s6 in P2(1)/c
REM R1 =  0.0495 for     402 Fo > 4sig(Fo)  and  0.0604 for all     489 data
REM     48 parameters refined using      1 restraints

END

WGHT      0.0789      0.0000

REM Instructions for potential hydrogen bonds
EQIV $1 x-1, y, z
HTAB O5 O2_$1
EQIV $2 -x+1, -y, -z
HTAB O5 O2_$2
HTAB O5 O4
EQIV $3 -x, -y, -z
HTAB O5 O4_$3

REM Highest difference peak  0.830,  deepest hole -0.680,  1-sigma level  0.156
Q1    1   0.0037  0.7244  0.1792  11.00000  0.05    0.83
Q2    1   0.5257  0.4196  0.0594  11.00000  0.05    0.74
Q3    1  -0.0070  0.5435  0.1799  11.00000  0.05    0.68
Q4    1   0.5089  0.2370  0.0783  11.00000  0.05    0.54
Q5    1   0.5213 -0.0020 -0.1416  11.00000  0.05    0.48
Q6    1   0.0268  0.3220  0.0801  11.00000  0.05    0.46
Q7    1   0.9043  0.3385  0.0775  11.00000  0.05    0.45
Q8    1   0.2062  0.5758  0.1621  11.00000  0.05    0.44
Q9    1   0.4280  0.0885  0.1124  11.00000  0.05    0.44
Q10   1   0.3686  0.2765 -0.2182  11.00000  0.05    0.37
Q11   1   0.2506  0.0395  0.1474  11.00000  0.05    0.37
Q12   1   0.4215  0.0715 -0.2618  11.00000  0.05    0.36
Q13   1   0.0588  0.3965  0.0437  11.00000  0.05    0.35
Q14   1   1.0354  0.3560  0.2226  11.00000  0.05    0.35
Q15   1   0.4003  0.3424 -0.0888  11.00000  0.05    0.33
Q16   1   0.4288  0.5305  0.1290  11.00000  0.05    0.31
Q17   1   0.2091  0.2365  0.1388  11.00000  0.05    0.31
Q18   1   0.1562  0.1326 -0.2513  11.00000  0.05    0.30
Q19   1   0.2332 -0.0683 -0.1341  11.00000  0.05    0.30
Q20   1   0.2054  0.4152  0.1006  11.00000  0.05    0.29
Q21   1   0.1329  0.4193  0.1072  11.00000  0.05    0.29
Q22   1   0.1523  0.4775  0.1073  11.00000  0.05    0.29
Q23   1   0.0269  0.8169  0.1524  11.00000  0.05    0.29
Q24   1   0.5000  0.5000  0.0000  10.50000  0.05    0.29
Q25   1   0.6656  0.2782  0.2188  11.00000  0.05    0.29
Q26   1   0.4320  0.1733 -0.1838  11.00000  0.05    0.28
Q27   1   0.0298  0.1572  0.0191  11.00000  0.05    0.28
Q28   1   0.4145  0.1549 -0.0456  11.00000  0.05    0.28
Q29   1   0.2750  0.5454  0.0046  11.00000  0.05    0.27
Q30   1   0.6238  0.2641 -0.0417  11.00000  0.05    0.27
Q31   1   0.0021 -0.0958 -0.1654  11.00000  0.05    0.27
Q32   1   0.7898  0.2589  0.0299  11.00000  0.05    0.26
Q33   1   0.7466  0.2947  0.2121  11.00000  0.05    0.26
Q34   1   0.3349  0.0250 -0.2571  11.00000  0.05    0.26
Q35   1   0.3765  0.0646 -0.0194  11.00000  0.05    0.26
Q36   1   0.2172  0.3569  0.0271  11.00000  0.05    0.25
Q37   1   0.7166  0.2753  0.3322  11.00000  0.05    0.25
Q38   1   0.2912  0.0757 -0.0110  11.00000  0.05    0.25
Q39   1   0.3674  0.5209  0.0018  11.00000  0.05    0.24
Q40   1   0.3940  0.1391 -0.1320  11.00000  0.05    0.24
Q41   1   0.0002  0.0852 -0.1420  11.00000  0.05    0.24
Q42   1   0.1022  0.2986 -0.0307  11.00000  0.05    0.24
Q43   1   0.5691  0.1175  0.2385  11.00000  0.05    0.24
Q44   1  -0.4219  0.6528  0.1598  11.00000  0.05    0.24
Q45   1   0.1837  0.4392 -0.0900  11.00000  0.05    0.24
Q46   1   0.3200  0.1465  0.1668  11.00000  0.05    0.24
Q47   1   0.0631  0.4611  0.2216  11.00000  0.05    0.23
Q48   1   0.3179  0.3412  0.0206  11.00000  0.05    0.23
Q49   1   0.0949 -0.1653 -0.1175  11.00000  0.05    0.23
Q50   1   0.6547  0.4591  0.2629  11.00000  0.05    0.23
Q51   1   0.5571  0.0701 -0.0693  11.00000  0.05    0.23
Q52   1   0.5004  0.1208 -0.1380  11.00000  0.05    0.22
Q53   1   0.1539  0.1356  0.1128  11.00000  0.05    0.22
Q54   1   0.9687  0.4406  0.2230  11.00000  0.05    0.22
Q55   1   0.1536  0.5767  0.0888  11.00000  0.05    0.22
Q56   1   0.4965  0.2594 -0.1045  11.00000  0.05    0.22
Q57   1   0.4052  0.6201  0.2014  11.00000  0.05    0.21
Q58   1  -0.0908  0.7209  0.0986  11.00000  0.05    0.21
Q59   1   0.3263  0.1774  0.0577  11.00000  0.05    0.20
Q60   1   0.3369  0.4046  0.1764  11.00000  0.05    0.20
Q61   1  -0.0737  0.6959  0.2676  11.00000  0.05    0.20
Q62   1   0.6071  0.3270  0.1434  11.00000  0.05    0.20
Q63   1  -0.0307  0.6398  0.0989  11.00000  0.05    0.19
Q64   1  -0.0280 -0.0011 -0.0985  11.00000  0.05    0.19
Q65   1   0.6505  0.1327 -0.1822  11.00000  0.05    0.19
Q66   1   0.1331  0.0621  0.0202  11.00000  0.05    0.19
Q67   1   0.1704 -0.0872 -0.0520  11.00000  0.05    0.19
Q68   1   0.0670  0.1804 -0.0685  11.00000  0.05    0.18
Q69   1   0.6698 -0.0522 -0.2370  11.00000  0.05    0.18
Q70   1   0.0856  0.5450  0.2786  11.00000  0.05    0.17
Q71   1   0.2336  0.1391 -0.1717  11.00000  0.05    0.16
Q72   1   0.1356 -0.0138  0.0929  11.00000  0.05    0.16
Q73   1   0.4057  0.1747 -0.2419  11.00000  0.05    0.16
Q74   1   0.1752 -0.0559 -0.2253  11.00000  0.05    0.15
Q75   1   0.0523  0.6540  0.0908  11.00000  0.05    0.15
Q76   1   0.2437  0.0263 -0.1790  11.00000  0.05    0.14
Q77   1   0.9618  0.4180  0.2808  11.00000  0.05    0.14
Q78   1   0.8395  0.3675  0.1320  11.00000  0.05    0.14
Q79   1   0.4976  0.4052 -0.0174  11.00000  0.05    0.13
Q80   1   0.4248  0.0774 -0.1988  11.00000  0.05    0.11
Q81   1   0.5462 -0.0366 -0.0291  11.00000  0.05    0.10
Q82   1  -0.1079  0.6076  0.2697  11.00000  0.05    0.10
Q83   1   0.0738  0.6392  0.2570  11.00000  0.05    0.10
Q84   1  -0.0106  0.6258  0.2625  11.00000  0.05    0.09
Q85   1   0.7171  0.3435 -0.0393  11.00000  0.05    0.04
Q86   1   0.0526  0.5036  0.0465  11.00000  0.05    0.03
Q87   1   0.8337  0.2603  0.1409  11.00000  0.05    0.02
;
_shelx_res_checksum              32265
_shelx_hkl_file
;
   0   0   3-8.54415 68.7030   1
   0   0  -3-21.3374 83.0031   1
   0   0  -4 14510.8 1317.34   1
   0   0   4 12835.5 982.906   1
   0   0  -5-73.8395 260.709   1
   0   0   5 63.8540 129.302   1
   0   0  -6 437996. 7943.42   1
   0   0   6 426106. 7489.92   1
   0   0  -7 241.088 432.902   1
   0   0   7-68.3361 317.329   1
   0   0   8 431742. 8717.90   1
   0   0  -8 423354. 9191.43   1
   0   0  -9 97.2957 333.978   1
   0   0   9 208.758 378.433   1
   0   0  10 27724.4 2517.99   1
   0   0 -10 28178.0 2680.30   1
   0   0 -11 84.0970 443.332   1
   0   0  11-190.178 344.098   1
   0   0  12 13667.7 2044.56   1
   0   0 -12 11831.9 1818.30   1
   0   0 -13 186.001 707.229   1
   0   0  13 218.310 576.102   1
   0   0  14-86.9714 785.762   1
   0   0 -14 154.010 520.230   1
   0   0 -15-533.131 1042.36   1
   0   0  15 964.226 561.524   1
   0   0  16 22783.9 3299.54   1
   0   0 -16 20067.3 3647.98   1
   0   0  17 766.126 1148.71   1
   0   0  18-1088.81 1131.05   1
   0  -1   1 64209.2 1896.13   1
   0   1  -1 73731.7 2003.96   1
   0  -1   2 1663.23 342.977   1
   0   1  -2 1677.55 344.703   1
   0   1  -3 45189.9 2110.91   1
   0  -1   3 44971.2 2051.70   1
   0  -1   4 501919. 7794.40   1
   0  -1  -4 514454. 5531.31   1
   0   1  -4 518919. 8042.46   1
   0   1   4 511525. 5242.14   1
   0   1   5 390016. 5436.86   1
   0  -1  -5 392212. 5746.67   1
   0   1  -5 378118. 8100.06   1
   0  -1   5 399221. 7459.85   1
   0   1  -6 8772.38 1237.25   1
   0  -1  -6 9568.42 1029.46   1
   0   1   6 9251.60 919.044   1
   0  -1   6 8891.02 1139.29   1
   0   1  -7 213334. 6713.20   1
   0  -1  -7 216801. 5443.60   1
   0   1   7 213009. 5099.88   1
   0  -1   7 215624. 6377.64   1
   0  -1   8 182428. 6334.72   1
   0   1   8 182721. 5121.13   1
   0   1  -8 177663. 6606.10   1
   0  -1  -8 186099. 5574.42   1
   0   1   9 1149.38 469.795   1
   0  -1  -9 1183.78 465.235   1
   0   1  -9 1287.43 596.613   1
   0  -1   9 849.591 420.614   1
   0   1 -10 22673.2 2580.73   1
   0   1  10 30752.8 2457.64   1
   0  -1 -10 26061.5 2428.42   1
   0  -1  10 22425.1 2434.53   1
   0   1  11 115221. 5129.90   1
   0  -1 -11 113292. 5400.56   1
   0   1 -11 110091. 6154.61   1
   0  -1  11 113883. 5678.62   1
   0  -1 -12 207708. 7770.92   1
   0   1 -12 200399. 8600.72   1
   0  -1  12 205883. 7963.22   1
   0   1  12 205440. 7686.20   1
   0   1 -13 8270.34 1634.55   1
   0   1  13 6927.43 1531.74   1
   0  -1 -13 7807.16 1532.65   1
   0  -1  13 11255.4 2025.82   1
   0  -1 -14 4253.99 1431.76   1
   0   1 -14 7917.68 2420.65   1
   0  -1  14 6845.60 1733.57   1
   0   1  14 4335.59 1191.61   1
   0  -1  15 5650.09 1612.30   1
   0   1  15 7514.85 1956.22   1
   0   1 -15 5620.41 1920.62   1
   0   1  16 51087.1 4504.80   1
   0  -1  16 43632.8 4778.96   1
   0   1 -17 29122.1 4797.57   1
   0  -1  17 35243.1 4341.14   1
   0   1  17 36332.6 4375.12   1
   0  -1  18 4349.01 2083.34   1
   0  -1  19 11275.6 2746.28   1
   0  -2   0 4287.51 528.317   1
   0   2   0 4251.25 531.825   1
   0   2  -1 4060.86 625.836   1
   0  -2   1 3878.36 569.140   1
   0   2  -2 16139.6 1347.55   1
   0  -2   2 14875.9 1243.92   1
   0  -2   3 145221. 4316.21   1
   0   2  -3 149731. 4550.12   1
   0   2  -4-78.6829 263.654   1
   0  -2   4-207.175 315.695   1
   0   2  -5 719363. 12134.7   1
   0  -2   5 722977. 11120.3   1
   0   2   6 150810. 3460.12   1
   0  -2   6 175820. 5738.17   1
   0   2  -6 166627. 6149.33   1
   0  -2  -6 153605. 3436.25   1
   0   2  -7 6934.75 1355.66   1
   0  -2   7 7316.35 1215.41   1
   0  -2  -7 4488.94 1009.04   1
   0   2   7 5164.02 675.582   1
   0   2   8 96710.4 3548.33   1
   0   2  -8 93270.0 5037.48   1
   0  -2  -8 100628. 3739.18   1
   0  -2   8 95704.1 4778.23   1
   0  -2  -9 48675.6 2919.69   1
   0  -2   9 46748.6 3508.90   1
   0   2   9 45925.5 2753.74   1
   0   2  -9 44991.2 3732.98   1
   0   2 -10 6728.55 1442.89   1
   0   2  10 5024.99 965.447   1
   0  -2 -10 5158.24 975.557   1
   0  -2  10 7037.52 1310.59   1
   0  -2 -11 30497.9 2766.83   1
   0  -2  11 32054.2 3179.78   1
   0   2 -11 30073.8 3370.41   1
   0   2  11 29871.9 2612.38   1
   0  -2  12 14205.6 2260.66   1
   0   2  12 10369.7 1755.10   1
   0   2 -12 10402.9 2005.81   1
   0   2  13 91425.4 5104.53   1
   0  -2  13 88647.4 5789.53   1
   0   2 -13 81421.8 6409.93   1
   0   2  14 221.438 512.763   1
   0  -2  14 2.02845 499.093   1
   0   2 -15 147844. 8740.91   1
   0   2  15 132817. 7748.20   1
   0  -2  15 144932. 8089.98   1
   0   2  16 10991.6 2246.06   1
   0  -2  16 10153.1 2411.71   1
   0   2 -16 7061.10 2854.92   1
   0  -2  17 31547.6 4355.80   1
   0   2 -17 27372.2 4881.73   1
   0  -2  18 1392.25 1148.33   1
   0  -3   0-11.0829 134.093   1
   0   3   0 77.1483 128.577   1
   0  -3   1 8396.11 986.422   1
   0   3  -1 8176.17 941.101   1
   0  -3  -1 11805.4 930.391   1
   0   3   1 10594.5 979.547   1
   0  -3  -2 181496. 3001.12   1
   0   3  -2 182915. 5049.90   1
   0   3   2 185634. 3351.85   1
   0  -3   3 398001. 7996.97   1
   0   3  -3 399356. 8358.12   1
   0   3  -4 206993. 6822.94   1
   0  -3   4 191827. 5892.01   1
   0  -3   5 31087.3 2601.16   1
   0   3  -5 31607.7 2895.72   1
   0  -3   6 922.909 445.761   1
   0   3  -6 973.467 547.045   1
   0  -3   7 348424. 9442.74   1
   0   3  -7 338467. 10029.5   1
   0  -3   8 41873.9 3430.98   1
   0   3  -8 39730.7 3623.69   1
   0   3  -9 158708. 7466.72   1
   0  -3   9 166643. 6950.68   1
   0   3 -10 198442. 8570.54   1
   0   3  10 194011. 6360.83   1
   0  -3  10 200792. 8027.24   1
   0  -3  11 62006.3 4584.16   1
   0   3 -11 57156.2 4953.19   1
   0   3  11 69045.9 4062.47   1
   0  -3  12 1647.64 941.809   1
   0   3 -12 895.179 1221.92   1
   0   3 -13 10568.1 2500.87   1
   0  -3  13 11113.7 2078.47   1
   0  -3  14 354.774 482.622   1
   0   3 -14 1098.59 792.728   1
   0  -3  15 10758.2 2349.21   1
   0   3 -15 8909.44 2160.72   1
   0   3 -16 9276.65 2766.43   1
   0  -3  16 10979.4 2734.48   1
   0  -3  17 29354.9 4449.12   1
   0   4   0 997726. 12645.7   1
   0  -4   0 999999. 11510.1   1
   0   4  -1 9228.13 1289.62   1
   0   4   1 11459.0 1195.41   1
   0  -4  -1 10803.3 1108.70   1
   0  -4   1 9001.90 1117.46   1
   0  -4   2 249605. 6387.92   1
   0   4   2 260691. 5050.06   1
   0  -4  -2 271693. 4804.96   1
   0   4  -2 255512. 7196.91   1
   0  -4  -3 79472.7 2329.24   1
   0   4  -3 71960.8 4280.08   1
   0  -4   3 67986.3 3652.39   1
   0   4   3 78107.4 2441.34   1
   0  -4   4 36337.1 2766.95   1
   0   4  -4 38999.3 3283.39   1
   0   4  -5 371079. 10527.0   1
   0  -4   5 366303. 9258.16   1
   0   4  -6 73801.6 4802.92   1
   0  -4   6 71679.0 4521.79   1
   0  -4   7-403.988 718.750   1
   0   4  -7-85.4601 659.002   1
   0  -4   8 150543. 7020.68   1
   0   4  -8 144986. 7413.18   1
   0  -4   9 45364.6 3911.01   1
   0   4  -9 47756.3 4544.86   1
   0  -4  10 1949.55 837.034   1
   0   4 -10 1699.79 706.215   1
   0   4 -11 6264.83 1693.90   1
   0  -4  11 8588.85 1860.01   1
   0  -4  12 1282.66 1105.24   1
   0   4 -12-262.658 783.566   1
   0  -4  13 43048.6 4291.63   1
   0   4 -13 35361.7 4402.09   1
   0   4 -14 17259.1 3326.91   1
   0  -4  14 18958.4 2975.85   1
   0  -4  15 8609.69 2189.30   1
   0  -5   0 1818.03 887.475   1
   0   5   0 168.098 345.155   1
   0   5   1 18058.1 1737.41   1
   0  -5   1 23127.0 2202.99   1
   0  -5  -1 19239.3 1608.57   1
   0   5  -1 22148.4 2294.44   1
   0   5  -2 25449.3 2628.17   1
   0  -5   2 24445.2 2294.64   1
   0  -5  -2 23745.4 1767.85   1
   0   5   2 24372.7 1919.42   1
   0  -5   3 31382.1 2707.27   1
   0   5   3 30033.9 1885.00   1
   0   5  -3 30887.1 2999.80   1
   0  -5  -3 32586.2 1857.04   1
   0  -5  -4 46640.9 2076.79   1
   0  -5   4 46160.1 3591.23   1
   0   5  -4 44052.6 3718.52   1
   0   5  -5 114465. 6096.94   1
   0  -5   5 114595. 5760.36   1
   0   5  -6 45441.9 4004.07   1
   0  -5   6 46235.8 3882.23   1
   0  -5   7 355.685 442.294   1
   0   5  -7-22.9191 550.244   1
   0  -5   8 28072.0 3110.14   1
   0   5  -8 25759.4 3320.82   1
   0   5  -9 3125.48 1249.20   1
   0  -5   9 2547.60 1062.77   1
   0  -5  10 10949.4 2032.63   1
   0   5 -10 11678.7 2370.38   1
   0  -5  11 18347.8 2903.99   1
   0   5 -11 21310.0 3507.64   1
   0   5 -12 207908. 10872.9   1
   0  -5  12 228941. 10289.6   1
   0  -5  13 67087.9 5676.35   1
   0   5 -13 60642.6 6071.68   1
   0  -5  14-747.488 839.438   1
   0  -6   0 160678. 5622.11   1
   0   6   0 147133. 5888.04   1
   0   6  -1 181063. 6806.51   1
   0  -6  -1 195499. 5951.60   1
   0  -6   1 196425. 6650.80   1
   0   6   1 192822. 6370.15   1
   0   6   2 54315.5 3139.52   1
   0  -6  -2 58990.1 3035.83   1
   0  -6   2 62208.6 4030.36   1
   0   6  -2 56409.2 4119.67   1
   0  -6   3 42903.6 3512.68   1
   0   6   3 44115.1 2681.26   1
   0   6  -3 42571.1 3714.82   1
   0  -6  -3 46233.3 2620.69   1
   0  -6   4 9211.35 1627.01   1
   0   6  -4 7945.88 1613.13   1
   0   6   4 9393.49 1195.42   1
   0  -6  -4 8855.52 1143.93   1
   0  -6   5 34810.5 3411.00   1
   0   6  -6 44003.6 4150.42   1
   0  -6   6 47556.3 4055.18   1
   0  -6   7 168134. 7925.47   1
   0   6  -7 161561. 8358.92   1
   0  -6   8 41766.7 4082.44   1
   0   6  -8 43862.7 4514.81   1
   0   6  -9 4778.33 1563.00   1
   0  -6   9 4143.22 1230.78   1
   0   6 -10 932.913 1045.67   1
   0  -6  10 10631.1 2502.76   1
   0   6 -11 8199.28 2402.80   1
   0  -6  11 6539.53 2092.91   1
   0  -6  12 11010.3 2410.40   1
   0   7   0-1019.82 812.446   1
   0  -7   0-281.535 381.543   1
   0  -7  -1 18836.7 2052.37   1
   0  -7   1 16304.6 2091.79   1
   0   7  -1 16151.0 2323.87   1
   0   7   1 18000.0 2204.78   1
   0  -7   2 71135.7 4449.45   1
   0   7   2 66063.7 3807.75   1
   0   7  -2 70874.4 4895.96   1
   0  -7  -2 73531.3 3825.38   1
   0   7   3 154892. 5757.93   1
   0  -7   3 141701. 6483.59   1
   0  -7  -3 151169. 5457.38   1
   0   7  -3 135243. 6921.95   1
   0  -7  -4 2035.17 743.517   1
   0   7   4 1597.05 590.070   1
   0  -7   4 1157.80 723.425   1
   0  -7  -5 158769. 6551.04   1
   0   7  -5 173090. 9092.66   1
   0  -7   6 32071.6 3699.57   1
   0   7  -6 41934.0 4449.17   1
   0  -7   7 7418.86 1759.26   1
   0   7  -7 7739.80 1953.76   1
   0  -7   8-911.523 752.842   1
   0   7  -8-2749.57 1631.30   1
   0   7  -9 37028.6 4420.81   1
   0  -7   9 40773.5 4388.62   1
   0   7 -10 72237.5 6591.24   1
   0  -7  10 79776.0 6285.34   1
   0  -7  11 30434.4 4134.29   1
   0  -8   0 1031.56 633.469   1
   0   8   0-604.551 576.629   1
   0   8   1 682.233 539.267   1
   0  -8   1 1881.90 978.229   1
   0  -8  -1 725.781 391.746   1
   0   8  -1 906.437 453.590   1
   0   8   2 178312. 7084.45   1
   0  -8  -2 189054. 6979.06   1
   0  -8   2 174970. 7670.00   1
   0   8  -2 178528. 8628.83   1
   0   8  -3 5379.34 1466.60   1
   0  -8   3 5654.89 1365.80   1
   0   8   3 6527.93 1272.02   1
   0  -8  -3 9658.10 1641.51   1
   0   8  -4-87.6938 587.354   1
   0  -8  -4 1097.05 667.952   1
   0   8   4 840.004 547.926   1
   0   8  -5 78362.9 6109.93   1
   0  -8   5 71218.8 5372.24   1
   0   8  -6 54393.5 5231.03   1
   0   8  -7-713.624 1005.13   1
   0  -8   7 716.673 762.631   1
   0   8  -8 2509.62 1041.93   1
   0  -8   8 3284.29 1481.26   1
   0  -8   9 1278.08 1052.44   1
   0  -9   0-20.4720 396.747   1
   0   9   0 56.4055 484.834   1
   0  -9   1-228.578 519.846   1
   0   9   1-381.759 805.122   1
   0   9  -1 1070.75 917.598   1
   0  -9   2 4947.00 1380.89   1
   0   9   2 3382.52 841.463   1
   0  -9  -2 4023.12 1130.79   1
   0   9  -2 2609.67 1086.37   1
   0  -9   3 52528.2 4746.89   1
   0  -9  -3 57806.5 4310.18   1
   0   9   3 60275.5 4164.99   1
   0   9  -3 53150.0 5166.89   1
   0   9   4 1668.85 675.095   1
   0  -9   4 4828.28 1589.32   1
   0  -9  -4 3388.09 1071.75   1
   0   9  -4 3247.71 1407.56   1
   0  -9   5 27078.7 3707.74   1
   0  -9  -5 41146.6 4308.17   1
   0   9  -6 12252.9 2601.37   1
   0  -9   6 15242.8 2905.04   1
   0  -9   7 15180.7 2851.44   1
   0   9  -7 11907.0 2675.47   1
   0  -9   8 2695.80 1333.01   1
   0 -10   0 43122.3 4152.49   1
   0  10   0 36483.1 4105.27   1
   0  10  -1 101661. 7123.38   1
   0 -10   1 96817.8 6437.41   1
   0 -10  -1 116717. 6856.96   1
   0  10   1 95286.1 6119.68   1
   0 -10   2 2409.22 1053.59   1
   0 -10  -2 4968.02 1540.64   1
   0  10  -2 4089.95 1830.01   1
   0  10   3 27132.4 3223.88   1
   0 -10  -3 27986.1 3402.59   1
   0 -10   3 23803.5 3308.02   1
   0  10  -3 25215.8 3755.80   1
   0  10  -4 130.933 587.733   1
   0 -10   4-1280.58 986.773   1
   0 -10  -4-18.8428 613.040   1
   0 -10   5 3217.95 1380.60   1
   0 -10  -5 6982.93 1864.27   1
   0  10  -5 5781.40 1809.71   1
   0 -10   6 10578.1 2544.23   1
   0  11   0-168.945 658.567   1
   0 -11   0 1438.44 1134.23   1
   0  11   1 1430.55 968.684   1
   0 -11  -1-285.040 908.628   1
   0 -11   2 3292.74 1360.75   1
   0 -11  -2 2888.99 1257.89   1
   0  11   2-364.143 868.102   1
   0  11  -2 1055.77 1314.78   1
   0 -11   3 14672.2 3085.68   1
   0  11   3 14569.5 2541.63   1
   0 -11  -3 19613.0 2898.02   1
   0  11  -3 13232.0 2757.52   1
   0 -11   4 2448.07 1510.30   1
   0  12   0 10138.0 2519.67   1
   0 -12   0 9188.22 2165.73   1
   0  12   1 840.063 875.343   1
   0  12  -1 2173.94 1391.46   1
   0 -12   1 2138.17 1382.79   1
   0 -12  -2 26582.6 3729.31   1
   0 -12   2 23020.3 3967.85   1
   0  12   2 21546.1 3471.99   1
   0  12  -2 21882.6 4413.71   1
   0 -12   3 16248.8 3185.96   1
   0 -13   0 683.791 935.265   1
   0  13   0-2930.41 1939.92   1
   0 -13   1 9581.41 2933.22   1
   0  13   1 10391.9 2602.72   1
  -1   0  18-432.998 832.442   1
  -1   0  17 1832.22 1076.14   1
  -1   0  16 19232.8 2663.96   1
  -1   0  15-487.418 690.191   1
  -1   0  14 207311. 8176.55   1
  -1   0  13 131.470 529.203   1
  -1   0  12 68235.9 4426.99   1
  -1   0  11 154.749 391.845   1
  -1   0  10 319333. 8946.24   1
  -1   0   9-105.506 398.429   1
  -1   0   8 17636.1 1953.49   1
  -1   0  -6 580552. 10292.1   1
  -1   0  -7 133.448 240.443   1
  -1   0  -8 227886. 6590.14   1
   1   0   8 211263. 9061.84   1
  -1   0  -9-286.198 352.944   1
   1   0   9 1334.55 939.107   1
   1   0  10 13974.0 2617.32   1
  -1   0 -10 12310.3 1757.69   1
   1   0  11 1319.06 839.139   1
  -1   0 -11-384.658 361.664   1
   1   0  12 6611.50 2208.70   1
  -1   0 -12 4673.95 1206.87   1
  -1   0 -13 138.710 423.911   1
   1   0  13 1023.35 860.953   1
  -1   0 -14 217506. 9511.40   1
   1   0  14 221983. 12558.9   1
  -1   0 -15 131.626 801.620   1
  -1  -1  18 42302.2 4728.37   1
  -1  -1  17 8129.39 1982.26   1
  -1   1  17 6656.76 1550.93   1
  -1   1  16 1447.06 966.250   1
  -1  -1  16 1746.91 838.450   1
  -1   1  15 1818.12 544.042   1
  -1  -1  15 3113.10 1209.47   1
  -1  -1  14 15052.5 2285.26   1
  -1   1  14 13932.1 2026.05   1
  -1  -1  13 2396.72 1002.61   1
  -1   1  13 1759.75 768.411   1
  -1  -1  12 10405.6 1871.29   1
  -1   1  12 9950.05 1526.98   1
  -1  -1  11 23394.7 2648.54   1
  -1   1  11 24934.5 2373.01   1
  -1   1  10 141384. 5320.75   1
  -1  -1  10 146444. 6472.53   1
  -1   1   9 10307.6 1491.34   1
  -1  -1   9 11070.4 1819.52   1
  -1  -1   8 31115.1 3097.70   1
  -1   1  -5 223286. 6712.65   1
   1  -1   5 223510. 8214.20   1
  -1   1  -6 44601.6 2880.39   1
  -1  -1  -6 41117.5 2775.46   1
   1  -1   6 36765.3 3448.01   1
  -1   1  -7 7778.14 1249.13   1
   1  -1   7 7711.29 1664.89   1
  -1  -1  -7 8821.06 1193.82   1
  -1  -1  -8 42337.4 2600.08   1
  -1   1  -8 42809.7 3137.86   1
   1  -1   8 37274.7 3906.56   1
  -1   1  -9 24991.8 2481.89   1
  -1  -1  -9 23934.9 2059.61   1
   1  -1   9 26277.1 3286.01   1
  -1   1 -10 205804. 7360.13   1
  -1  -1 -10 198826. 6368.95   1
   1  -1  10 195088. 9646.28   1
  -1  -1 -11 62172.2 3840.01   1
  -1   1 -11 66304.8 4385.52   1
   1  -1  11 61663.9 5718.64   1
  -1  -1 -12 7446.73 1405.01   1
  -1   1 -12 7402.59 1611.35   1
   1  -1  12 8835.74 2267.88   1
  -1  -1 -13 125297. 6775.40   1
  -1   1 -13 134294. 7051.12   1
   1  -1  13 129593. 8882.74   1
  -1  -1 -14 20003.0 2718.01   1
  -1   1 -14 19863.2 2960.74   1
   1  -1  14 20195.8 3681.93   1
  -1  -1 -15 20068.5 2845.75   1
   1  -1  15 20037.7 3801.30   1
  -1   1 -15 20423.5 3217.67   1
  -1   1 -16 16602.4 3480.33   1
   1  -1  16 13754.1 3313.36   1
  -1   1 -17-1087.56 1335.87   1
   1  -1  17 2831.78 1713.81   1
   1  -1  18 75696.7 8647.78   1
  -1  -2  18 10266.2 2465.41   1
  -1  -2  17 7459.53 1947.63   1
  -1  -2  16 26847.0 3630.29   1
  -1   2  16 22506.6 2583.71   1
  -1  -2  15 70584.5 5663.62   1
  -1   2  15 70399.7 4366.64   1
  -1   2  14 12124.5 1790.40   1
  -1  -2  14 11069.1 2151.99   1
  -1  -2  13-168.353 467.207   1
  -1   2  13 284.210 287.953   1
  -1  -2  12-570.413 684.436   1
  -1   2  12-674.463 624.573   1
  -1  -2  11 14412.5 2182.99   1
  -1  -2  10 857.107 557.721   1
  -1   2  10-425.027 392.717   1
  -1  -2   9 166631. 7068.75   1
  -1   2   9 173172. 5515.68   1
  -1  -2   8 51440.4 3984.98   1
  -1  -2   7 361378. 10471.4   1
  -1   2  -3 342934. 8261.52   1
   1  -2   3 344368. 9278.20   1
   1  -2   4 398.035 385.763   1
  -1   2  -4 89.3179 370.303   1
   1  -2   5 3660.09 1057.97   1
  -1   2  -5 3987.06 895.009   1
  -1   2  -6 109542. 4662.71   1
   1  -2   6 113751. 5833.95   1
  -1  -2  -7 270052. 6728.02   1
  -1   2  -7 267359. 7747.82   1
   1  -2   7 289109. 9248.93   1
  -1   2  -8 17101.4 1993.49   1
  -1  -2  -8 15584.7 1415.76   1
   1  -2   8 19842.8 2626.29   1
  -1   2  -9 138153. 6003.31   1
  -1  -2  -9 129921. 4346.78   1
  -1  -2 -10 5336.99 944.997   1
  -1  -2 -11 97640.0 4339.50   1
  -1   2 -11 100399. 5723.19   1
   1  -2  11 110749. 6950.29   1
   1  -2  12 1140.43 1033.60   1
  -1  -2 -12 580.822 399.359   1
  -1   2 -12 616.219 728.023   1
  -1  -2 -13 48687.2 3656.39   1
  -1   2 -13 53249.5 4718.80   1
   1  -2  13 51668.0 5646.37   1
  -1  -2 -14 1794.45 698.233   1
  -1   2 -14 2126.77 1007.31   1
   1  -2  14 1578.39 1184.01   1
   1  -2  15 13653.2 3190.84   1
  -1   2 -15 12961.5 2605.66   1
  -1   2 -17 21728.7 3856.81   1
   1  -2  17 23439.3 4822.27   1
   1  -2  18 2710.35 1391.58   1
  -1  -3  16 6315.03 2051.70   1
  -1  -3  15 39605.4 4531.05   1
  -1   3  15 38127.8 2979.92   1
  -1   3  14 6688.76 1244.36   1
  -1  -3  14 7608.83 1740.28   1
  -1  -3  13 33097.7 3830.99   1
  -1   3  13 33987.5 2474.25   1
  -1  -3  12 84902.0 5782.75   1
  -1   3  12 79698.3 3534.99   1
  -1   3  11 16728.3 1491.00   1
  -1  -3  11 15778.9 2418.87   1
   1   3 -11 13144.0 2903.45   1
  -1  -3  10 31638.5 3321.27   1
   1   3 -10 29790.8 3910.60   1
  -1   3   9 8155.09 1015.32   1
  -1  -3   9 8065.59 1739.02   1
   1   3  -9 7651.67 1905.33   1
  -1  -3   8 4376.13 1273.21   1
   1   3  -8 5035.95 1438.70   1
  -1  -3   7 19452.3 2683.62   1
   1   3  -7 18255.8 2839.11   1
   1   3  -6 107422. 6343.17   1
  -1  -3   6 105708. 5918.06   1
  -1   3  -1 95111.8 4054.49   1
   1  -3   2 401.007 524.714   1
  -1   3  -2 592.746 324.997   1
  -1   3  -3 62599.2 3460.02   1
   1  -3   3 55264.8 3837.81   1
  -1   3  -4 72501.3 3684.79   1
   1  -3   4 70245.2 4230.72   1
  -1   3  -5 396695. 9061.00   1
   1  -3   5 413335. 10694.6   1
  -1   3  -6 1972.09 692.772   1
   1  -3   6 2646.09 1426.67   1
  -1   3  -7 168537. 6380.11   1
   1  -3   7 162088. 7990.07   1
  -1  -3  -8 1276.23 361.643   1
  -1   3  -8 1839.34 996.296   1
  -1  -3  -9 30171.8 1809.70   1
  -1   3  -9 28752.7 2934.65   1
   1  -3   9 32144.6 3921.52   1
  -1  -3 -10 3235.43 643.329   1
  -1   3 -10 4873.04 1650.49   1
  -1  -3 -11 147891. 4698.27   1
  -1   3 -11 161478. 7573.00   1
   1  -3  11 174566. 9440.04   1
  -1  -3 -12 28047.7 2226.06   1
  -1   3 -12 35184.9 3766.77   1
  -1   3 -13 124060. 7879.61   1
   1  -3  13 132492. 8535.83   1
  -1  -3 -13 119632. 5177.98   1
   1  -3  14 810.433 650.831   1
  -1   3 -14 276.421 847.603   1
   1  -3  15 10697.9 2823.32   1
  -1   3 -15 11037.1 2593.85   1
   1  -3  16 12706.5 3407.85   1
  -1  -4  14 127697. 7752.17   1
  -1   4  14 121520. 4639.82   1
  -1   4  13 21552.6 1768.50   1
   1   4 -13 21285.0 3995.36   1
  -1  -4  13 22606.8 3207.68   1
  -1  -4  12 23750.6 3326.45   1
  -1   4  12 21937.2 1552.78   1
   1   4 -12 19440.1 3830.40   1
  -1  -4  11 26767.1 3373.83   1
  -1   4  11 19056.6 1359.18   1
   1   4 -11 20576.0 3585.52   1
  -1  -4  10 17631.5 2546.96   1
  -1   4  10 17481.3 1231.97   1
   1   4 -10 18208.0 3190.72   1
  -1  -4   9 97819.8 6060.83   1
   1   4  -9 104980. 7326.45   1
  -1   4   9 84124.0 2790.62   1
  -1  -4   8 50055.4 4347.90   1
   1   4  -8 44712.7 4687.45   1
  -1  -4   7 8846.61 1846.66   1
   1   4  -7 9701.35 2158.79   1
  -1  -4   6 34492.4 3636.42   1
   1   4  -6 35716.7 3838.24   1
  -1  -4   5 119240. 6601.19   1
   1   4  -5 114127. 6752.72   1
  -1  -4   4 4059.58 1146.65   1
   1   4  -4 4324.06 1281.41   1
  -1   4   1 4693.72 908.211   1
  -1   4   0 99054.9 4313.94   1
   1  -4   1 19970.8 2321.51   1
  -1   4  -2 111549. 4465.17   1
   1  -4   2 96215.9 5142.29   1
  -1   4  -3 92511.6 4298.39   1
   1  -4   3 85333.4 4711.91   1
  -1   4  -4 18690.3 2013.39   1
   1  -4   4 19331.6 2422.78   1
  -1   4  -5 104219. 5045.22   1
   1  -4   5 96065.6 5749.51   1
  -1   4  -6 313212. 8792.85   1
   1  -4   6 289988. 10610.9   1
   1  -4   7 4189.30 1248.66   1
  -1   4  -7 4921.69 1269.61   1
  -1   4  -8 115271. 5884.77   1
   1  -4   8 115638. 7164.66   1
   1  -4   9 4174.79 1373.53   1
  -1   4  -9 4398.87 1870.01   1
  -1  -4  -9 2851.34 460.311   1
  -1  -4 -10 16206.8 1233.42   1
  -1   4 -10 21097.5 2743.73   1
   1  -4  10 19409.6 3093.69   1
  -1   4 -11 16510.1 2558.79   1
   1  -4  11 14876.7 2928.38   1
  -1  -4 -11 12071.3 1171.79   1
  -1   4 -12 17498.3 2832.66   1
   1  -4  12 18149.3 3433.07   1
  -1  -4 -12 12741.6 1296.69   1
  -1   4 -13 547.154 901.142   1
   1  -4  13 2169.99 1857.25   1
  -1   4 -14 26373.1 3815.44   1
   1  -4  14 30934.9 4397.40   1
   1  -4  15 4206.88 1572.72   1
  -1  -5  14 3140.24 1454.38   1
   1   5 -13-437.862 1181.18   1
  -1  -5  13-40.3280 787.804   1
  -1  -5  12-1306.69 1085.98   1
   1   5 -12-200.122 1198.23   1
  -1  -5  11 2814.80 1265.05   1
   1   5 -11 274.387 673.594   1
  -1  -5  10 109164. 7192.66   1
   1   5 -10 102374. 7571.88   1
  -1  -5   9 53145.4 4775.43   1
   1   5  -9 59599.5 5526.22   1
  -1  -5   8 29088.9 3374.41   1
   1   5  -8 30625.9 4000.99   1
  -1  -5   7 3751.43 1324.09   1
   1   5  -7 3292.13 1375.98   1
  -1  -5   6 21277.9 2797.50   1
   1   5  -6 22882.9 3113.18   1
  -1  -5   5 6807.97 1680.97   1
  -1   5   5 8375.29 962.201   1
   1   5  -5 7807.77 1767.19   1
  -1  -5   4 243816. 9196.38   1
  -1   5   4 241160. 5678.02   1
   1   5  -4 234712. 9453.36   1
  -1  -5   3 6574.75 1445.72   1
   1   5  -3 4694.79 1286.40   1
  -1   5   3 5518.69 919.745   1
  -1   5   2 168261. 5134.36   1
  -1  -5   2 164550. 6952.23   1
  -1   5   1 148809. 4956.62   1
  -1  -5   1 156829. 6476.81   1
  -1   5   0 91938.5 4079.00   1
   1  -5   0 90026.6 5248.61   1
  -1   5  -1 85315.0 4081.78   1
   1  -5   1 80285.8 4943.25   1
  -1   5  -2 363060. 8544.90   1
   1  -5   2 352550. 9783.75   1
  -1   5  -3 93142.4 4767.22   1
   1  -5   3 87596.8 5188.27   1
  -1   5  -4 14618.6 2124.08   1
   1  -5   4 6043.84 1437.31   1
   1  -5   5 1814.33 1266.65   1
  -1   5  -5 1472.40 653.926   1
  -1   5  -6 49695.5 3862.47   1
   1  -5   6 50472.4 4633.24   1
  -1   5  -7 80492.9 5051.49   1
   1  -5   7 79320.3 5969.96   1
   1  -5   8 256.717 555.096   1
  -1   5  -8 356.515 491.356   1
  -1   5  -9 79003.5 5484.91   1
   1  -5   9 82749.3 6609.64   1
  -1   5 -10 58262.5 4799.90   1
   1  -5  10 58069.0 5769.38   1
  -1   5 -11 57123.6 5021.45   1
   1  -5  11 54650.5 5770.32   1
  -1   5 -12 173.455 602.177   1
   1  -5  12 504.369 641.899   1
   1  -5  13 2774.21 1816.48   1
  -1  -6  12 2300.77 1212.73   1
  -1  -6  11 26736.6 3595.83   1
   1   6 -11 21462.0 4002.37   1
  -1  -6  10 17929.6 2964.45   1
   1   6 -10 16047.5 3195.30   1
  -1  -6   9 108467. 7292.48   1
   1   6  -9 107479. 7878.62   1
  -1  -6   8 88254.0 6379.84   1
   1   6  -8 94470.0 7152.94   1
  -1  -6   7 33872.6 3726.10   1
   1   6  -7 39660.0 4366.77   1
  -1  -6   6 38942.3 4005.04   1
  -1   6   6 37854.9 1869.78   1
   1   6  -6 41342.6 4482.23   1
  -1  -6   5 108834. 6335.10   1
  -1   6   5 103959. 3342.69   1
   1   6  -5 113865. 6924.77   1
  -1   6   4 339.080 233.002   1
  -1  -6   4 142.206 449.764   1
   1   6  -4 844.570 593.769   1
  -1  -6   3 49971.9 4277.02   1
  -1   6   3 52623.3 2832.75   1
   1   6  -3 54345.3 4691.20   1
  -1  -6   2 10344.5 1962.02   1
  -1   6   2 11215.6 1391.07   1
  -1   6   1 9.02738 572.199   1
  -1  -6   1 1922.82 815.102   1
  -1  -6   0 32685.3 2809.86   1
  -1   6   0 34895.1 2808.57   1
   1  -6   0 31166.8 3284.80   1
  -1   6  -1 192866. 6858.49   1
   1  -6   1 173865. 7658.13   1
  -1  -6  -1 195214. 6889.34   1
  -1   6  -2 97215.7 4855.94   1
   1  -6   2 102363. 5652.48   1
  -1  -6  -2 113594. 4874.40   1
  -1   6  -3 60683.7 4021.75   1
   1  -6   3 57866.8 4606.01   1
  -1  -6  -3 67540.0 3497.74   1
  -1  -6  -4 247.404 290.335   1
   1  -6   4-259.471 530.258   1
  -1   6  -4 159.858 398.599   1
   1  -6   5 5797.14 1685.22   1
  -1  -6  -5 4676.58 754.399   1
  -1   6  -5 3892.64 1062.17   1
  -1  -6  -6 66229.5 2548.35   1
  -1   6  -6 66427.2 4946.24   1
   1  -6   6 64532.0 5436.57   1
  -1   6  -7 100674. 6111.36   1
   1  -6   7 99271.8 7105.49   1
   1  -6   8 1113.38 630.740   1
  -1   6  -8 1689.14 942.713   1
   1  -6   9 7608.44 2158.06   1
  -1   6  -9 8527.21 1924.31   1
   1  -6  10 453.166 666.500   1
  -1   6 -10 228.002 554.702   1
   1  -6  11-64.5854 710.812   1
  -1   6 -11 268.862 452.707   1
   1  -6  12 423.899 930.408   1
  -1  -7  11 21322.4 3513.86   1
  -1  -7  10 11985.7 2533.30   1
   1   7 -10 10767.8 2697.49   1
  -1  -7   9 24369.9 3472.69   1
   1   7  -9 24713.5 4061.58   1
  -1  -7   8-1292.71 1181.81   1
   1   7  -8 2779.61 1460.49   1
  -1  -7   7 2311.53 1373.67   1
   1   7  -7 897.684 777.903   1
  -1   7   6 6047.65 806.994   1
  -1  -7   6 4597.45 1434.00   1
   1   7  -6 6599.28 1778.34   1
  -1  -7   5 52470.1 4436.83   1
  -1   7   5 56770.7 2896.30   1
   1   7  -5 56881.6 5143.57   1
  -1   7   4 246512. 6531.09   1
   1   7  -4 243374. 10596.3   1
  -1   7   3 52155.9 3182.93   1
  -1  -7   3 48218.0 4139.56   1
   1   7  -3 45672.9 4502.42   1
  -1  -7   2 993.365 773.155   1
  -1   7   2 654.643 524.417   1
  -1  -7   1 9069.51 1656.39   1
   1  -7  -1 8950.28 2033.37   1
  -1   7   1 8830.24 1455.02   1
  -1  -7   0 3961.35 936.879   1
   1  -7   0 4873.61 2035.57   1
  -1   7   0 5281.73 1201.66   1
  -1  -7  -1 73708.2 4204.82   1
  -1   7  -1 75800.4 4598.42   1
   1  -7   1 72650.0 5234.53   1
  -1  -7  -2 762.349 286.671   1
  -1   7  -2 1272.38 689.721   1
   1  -7   2 927.028 687.775   1
  -1  -7  -3 46228.1 2933.30   1
  -1   7  -3 45028.4 3825.17   1
   1  -7   3 41948.1 4275.77   1
  -1  -7  -4 105516. 4301.98   1
  -1   7  -4 96593.0 5918.04   1
   1  -7   4 94647.0 6722.64   1
  -1  -7  -5 13820.0 1369.34   1
   1  -7   5 12089.1 2466.84   1
  -1   7  -5 11265.7 2038.15   1
  -1   7  -6 474.834 549.053   1
  -1  -7  -6 147.405 196.337   1
   1  -7   7 49.7940 578.885   1
  -1   7  -7 649.931 732.031   1
  -1  -7  -7 74.9722 194.956   1
   1  -7   8 28936.0 4098.41   1
  -1   7  -8 28677.0 3566.42   1
   1  -7   9 4732.52 1728.84   1
  -1   7  -9 4532.06 1494.79   1
   1  -7  10 20576.0 3724.33   1
   1  -7  11 38444.2 5309.88   1
  -1  -8   9 13307.0 2593.82   1
  -1  -8   8 117660. 7896.91   1
   1   8  -8 120809. 9027.85   1
  -1  -8   7 30818.7 3988.90   1
   1   8  -7 32818.2 4528.36   1
  -1   8   7 26834.6 1885.71   1
  -1   8   6 330.247 349.862   1
  -1  -8   6 237.711 493.539   1
  -1   8   5 21026.2 2033.95   1
  -1  -8   5 20435.3 3029.36   1
   1   8  -5 20784.5 3381.24   1
  -1   8   4 7928.21 1382.98   1
  -1  -8   4 6656.15 1609.41   1
   1   8  -4 6271.90 1890.13   1
  -1   8   3 23214.2 2367.79   1
  -1  -8   3 21063.8 2902.29   1
   1   8  -3 18962.6 3089.80   1
  -1  -8   2 2583.34 1243.03   1
  -1   8   2 66.0279 347.603   1
  -1   8   1 27465.3 2815.44   1
   1  -8  -1 30156.3 3882.12   1
  -1  -8   0 228510. 8344.90   1
  -1   8   0 235579. 8499.33   1
   1  -8   0 234221. 10535.5   1
   1  -8   1 635.319 622.510   1
  -1  -8  -1 107.231 424.671   1
  -1   8  -1 810.849 622.384   1
  -1  -8  -2 8699.37 1466.73   1
  -1   8  -2 8204.24 1634.96   1
   1  -8   2 7960.48 1881.64   1
  -1   8  -3 460.577 569.168   1
  -1  -8  -3 898.104 493.179   1
   1  -8   3 1831.54 1155.06   1
  -1   8  -4 5166.28 1414.78   1
   1  -8   4 4112.53 1499.44   1
  -1  -8  -4 4860.38 1026.73   1
   1  -8   5 556.794 739.489   1
  -1   8  -5 776.039 555.663   1
  -1  -8  -5 154.390 255.264   1
  -1   8  -6 63026.0 5299.76   1
  -1  -8  -6 71854.3 3211.73   1
   1  -8   6 58309.6 5807.51   1
   1  -8   7 410.995 1139.41   1
  -1  -8  -7 113.910 200.259   1
  -1   8  -7-73.8665 455.953   1
  -1   8  -8 117449. 7645.49   1
   1  -8   8 126192. 9008.98   1
   1  -8   9-684.443 1077.72   1
  -1  -9   8 17825.8 3195.20   1
  -1  -9   7 12649.0 2668.09   1
  -1   9   7 11260.4 1402.29   1
  -1   9   6 2724.91 778.198   1
  -1  -9   6 2374.51 1073.93   1
   1   9  -6 2400.27 1063.19   1
  -1   9   5 4296.39 975.503   1
  -1  -9   5 4823.21 1514.57   1
   1   9  -5 2713.71 1292.94   1
  -1   9   4 95315.5 5209.29   1
  -1  -9   4 101882. 6766.04   1
   1   9  -4 96266.3 7907.38   1
  -1   9   3 57.0466 409.578   1
  -1  -9   3-2955.41 1684.48   1
   1   9  -3-1761.38 910.695   1
  -1   9   2 92288.1 5457.73   1
  -1  -9   2 64017.7 4118.42   1
  -1   9   1 34027.8 3423.21   1
  -1  -9   1 30651.7 3293.06   1
   1  -9  -1 33826.8 4495.10   1
  -1   9   0 3589.20 1162.16   1
   1  -9   0 2509.42 1593.47   1
  -1  -9   0 1879.66 723.509   1
   1  -9   1 10580.0 2422.96   1
  -1   9  -1 11690.4 2199.92   1
  -1  -9  -1 14155.8 2095.95   1
  -1   9  -2 1078.79 804.205   1
  -1  -9  -2 474.515 559.900   1
   1  -9   2 524.063 610.575   1
  -1   9  -3 11028.5 2224.36   1
  -1  -9  -3 9354.42 1484.04   1
   1  -9   3 9040.21 2302.14   1
  -1   9  -4 97250.5 6594.02   1
  -1  -9  -4 95058.6 4427.02   1
   1  -9   4 80280.4 7298.01   1
  -1   9  -5 372.672 622.586   1
   1  -9   5 139.481 790.361   1
  -1  -9  -5 32.2574 340.771   1
  -1  -9  -6 1133.59 565.061   1
  -1   9  -6 573.269 501.161   1
   1  -9   6 2483.07 1523.85   1
   1  -9   7 30894.1 4743.95   1
  -1 -10   6 3318.13 1293.74   1
  -1  10   6 3011.11 838.372   1
  -1 -10   5 37485.6 4425.03   1
   1  10  -5 41057.4 5576.84   1
  -1  10   5 43772.2 3508.63   1
  -1  10   4 825.165 457.609   1
   1  10  -4 1984.80 1241.80   1
  -1 -10   4 1007.97 762.058   1
  -1  10   3 41925.2 3936.82   1
  -1 -10   3 38627.5 4230.25   1
  -1  10   2 2835.43 1138.49   1
  -1 -10   2 2344.70 1031.33   1
   1 -10  -1 17509.1 3471.64   1
  -1  10   1 16434.5 2763.63   1
  -1 -10   1 12997.5 2374.71   1
  -1  10   0 1925.54 1221.27   1
   1 -10   0 359.348 672.275   1
  -1 -10   0 1233.68 601.500   1
  -1  10  -1 13504.8 2521.48   1
   1 -10   1 11298.9 2838.77   1
  -1 -10  -1 12152.8 2023.74   1
   1 -10   2 3587.52 1506.23   1
  -1  10  -2 4207.78 1549.91   1
  -1 -10  -2 5285.92 1270.01   1
  -1  10  -3 46484.0 4957.67   1
  -1 -10  -3 46852.1 3783.31   1
   1 -10   3 42700.2 5169.85   1
  -1 -10  -4 267.836 476.079   1
  -1  10  -4-1780.39 1411.00   1
   1 -10   4 270.201 1323.47   1
  -1  10  -5 26810.3 4185.35   1
  -1 -10  -5 33998.1 2908.74   1
   1 -10   5 35649.8 4995.20   1
   1 -10   6 5171.93 2392.03   1
  -1  11   5 37614.4 3430.43   1
  -1 -11   4 3839.35 1620.77   1
  -1  11   4 4633.22 1278.16   1
  -1  11   3 12606.7 2366.23   1
  -1 -11   3 10017.3 2430.10   1
  -1 -11   2 13540.7 2757.17   1
  -1  11   2 12727.4 2612.67   1
   1 -11  -1 11742.0 3178.34   1
  -1 -11   1 8867.91 2083.28   1
  -1  11   1 7082.72 1817.87   1
  -1 -11   0 1450.32 932.832   1
  -1  11   0-672.373 831.548   1
   1 -11   0-287.317 909.015   1
  -1  11  -1 81791.1 6896.57   1
  -1 -11  -1 81029.2 5564.76   1
   1 -11   1 88935.6 8450.67   1
  -1 -11  -2 281.252 475.575   1
   1 -11   2 984.012 1086.75   1
  -1  11  -3 42681.2 5173.57   1
  -1 -11  -3 51441.8 3989.73   1
   1 -11   3 41690.5 5890.16   1
   1 -11   4 31110.1 4655.54   1
  -1  12   4 1495.68 1011.53   1
  -1 -12   3 3597.47 1342.40   1
  -1  12   3 2245.85 1018.69   1
  -1  12   2-441.410 665.773   1
  -1 -12   2 280.345 555.430   1
  -1  12   1 1197.39 1104.89   1
  -1 -12   1 195.871 606.370   1
  -1 -12   0 47201.7 4556.08   1
   1 -12   0 40767.2 5789.11   1
  -1  12   0 35169.1 4537.73   1
  -1  12  -1 7565.18 2158.93   1
  -1 -12  -1 8592.44 2004.54   1
   1 -12   1 10238.6 3200.49   1
   1 -12   2 10296.3 3415.71   1
   1 -12   3 7347.53 2490.29   1
  -1  13   2 13400.9 2847.04   1
  -1 -13   1 1706.14 1256.98   1
  -1  13   1 449.945 807.885   1
   1 -13   0 1869.45 1765.13   1
  -1 -13   0 2624.25 1370.31   1
  -1  13   0 448.585 1058.14   1
   1 -13   1-3092.07 2168.54   1
  -2   0 -12 153401. 8386.37   1
  -2   0 -13-92.4992 529.154   1
  -2   0 -14 19219.6 3224.46   1
  -2   0 -15 283.075 1023.38   1
  -2   1 -13 502.785 593.687   1
  -2  -1 -13-848.569 1042.48   1
  -2   1 -14 5099.04 1618.76   1
  -2  -1 -14 4802.88 1689.70   1
  -2  -1 -15 22002.6 3786.18   1
  -2   1 -15 2504.18 1362.86   1
  -2   1 -16 1566.36 956.012   1
  -2   1 -17 28475.3 5185.95   1
  -2   2 -11 75958.9 5797.34   1
  -2   2 -12 63850.5 5652.92   1
  -2   2 -13 126029. 8111.10   1
  -2  -2 -13 154204. 8076.64   1
  -2   2 -14 8391.89 2196.67   1
  -2  -2 -14 8528.77 1964.25   1
  -2   2 -16 2983.16 1462.40   1
  -2   3 -10 3903.97 1326.68   1
  -2   3 -11 30606.6 3816.62   1
  -2   3 -12 23430.6 3372.65   1
  -2   3 -13 734.680 586.360   1
  -2   3 -14 13212.0 2847.08   1
  -2   3 -15 6707.48 2148.57   1
  -2   4  -9 19723.0 2830.20   1
  -2   4 -10 28022.3 3665.27   1
  -2   4 -11 62052.2 5462.34   1
  -2   4 -12 60718.1 5706.21   1
  -2   4 -13 878.481 662.937   1
  -2   5  -8 6623.62 1716.09   1
   2  -5   8 6337.14 2475.10   1
  -2   5  -9 1848.59 838.105   1
   2  -5   9 2121.92 1732.47   1
  -2   5 -10 24376.1 3409.58   1
   2  -5  10 23235.1 4516.06   1
  -2   5 -11 25919.4 3597.98   1
   2  -5  11 26062.0 5027.00   1
   2  -5  12 18623.9 4588.51   1
  -2   5 -12 19323.1 3276.71   1
   2  -5  13 11340.3 3713.22   1
  -2   6  -6 12711.8 2356.35   1
   2  -6   7 21900.2 4122.43   1
  -2   6  -7 25734.8 3346.54   1
   2  -6   8 30534.6 5013.42   1
  -2   6  -8 32408.4 3865.40   1
  -2   6  -9 143842. 8227.27   1
   2  -6   9 139845. 10988.3   1
   2  -6  10-579.029 1187.59   1
  -2   6 -10-176.339 463.805   1
   2  -6  11 1939.46 1521.65   1
  -2   7  -5 5935.18 1518.29   1
  -2   7  -6 41695.6 4265.75   1
   2  -7   6 36560.6 5490.06   1
   2  -7   7 5437.14 2442.08   1
  -2   7  -7 4421.25 1499.00   1
   2  -7   8 6801.80 2383.67   1
  -2   7  -8 5795.38 1634.47   1
   2  -7   9 12135.8 3164.27   1
  -2   7  -9 16051.0 3002.41   1
   2  -7  10 73338.3 8440.25   1
  -2   8  -2 17355.4 2653.06   1
  -2   8  -3 6744.57 1687.14   1
  -2   8  -4 9531.29 2034.80   1
   2  -8   5 4731.17 2203.88   1
  -2   8  -5 6008.68 1657.98   1
  -2   8  -6 111091. 7030.14   1
   2  -8   6 113042. 10141.7   1
   2  -8   7 14245.2 3714.32   1
  -2   8  -7 12473.9 2479.89   1
   2  -8   8 18334.0 4114.60   1
  -2   9   1 14884.3 2331.79   1
  -2   9   0 3135.99 1194.77   1
  -2   9  -1-587.125 752.861   1
  -2   9  -2 170055. 8725.74   1
  -2   9  -3 5158.76 1473.96   1
  -2   9  -4 36147.8 4176.04   1
  -2   9  -5 25173.3 3587.94   1
   2  -9   5 24744.1 5019.99   1
   2  -9   6 33511.1 6007.56   1
  -2   9  -6 20861.2 2960.97   1
   2  -9   7 14083.1 3930.05   1
  -2  10   5 2834.97 977.329   1
  -2  10   4 984.390 582.908   1
  -2  10   3 1040.09 767.667   1
  -2  10   2 16662.7 2505.40   1
  -2  10   1 38696.9 3902.93   1
  -2  10   0 2179.04 1201.51   1
  -2  10  -1 54820.0 5026.71   1
  -2  10  -2-175.682 640.780   1
  -2  10  -3-349.723 792.375   1
  -2  10  -4-544.636 1093.69   1
   2 -10   5-92.5900 1036.35   1
  -2  11   5 535.589 591.918   1
  -2  11   4 944.415 695.694   1
  -2  11   3 74482.2 5615.41   1
  -2  11   2 8537.87 1966.26   1
  -2  11   1 3117.00 1224.39   1
  -2  11   0-221.668 586.862   1
  -2  11  -1 21863.2 3385.40   1
  -2  11  -2 10635.4 2557.41   1
  -2  12   3 685.753 761.160   1
  -2  12   2 30183.9 3874.47   1
  -2  12   1 1549.74 939.034   1
  -2  12   0 5434.14 1829.04   1
  -2  12  -1 6202.65 2019.47   1
  -2  13   1 1270.08 1091.73   1
   0   0   0    0.00    0.00   0
TITL p6_cr3_s6 in P2(1)/c
REM P2(1)/c (#14 in standard setting)
CELL 0.28960   4.448160   6.672509   9.190028  90.0000  90.7287  90.0000
ZERR    1.00   0.009607   0.000734   0.001138   0.0000   0.0391   0.0000
LATT  1
SYMM -x, y+1/2,-z+1/2
SFAC H B O Si Ca
UNIT 1.00 1.00 5.00 1.00 1.00
TREF
HKLF 4
END
;
_shelx_hkl_checksum              47157
loop_
_space_group_symop_operation_xyz
'x, y, z'
'-x, y+1/2, -z+1/2'
'-x, -y, -z'
'x, -y-1/2, z-1/2'
loop_
_atom_site_label
_atom_site_type_symbol
_atom_site_fract_x
_atom_site_fract_y
_atom_site_fract_z
_atom_site_U_iso_or_equiv
_atom_site_adp_type
_atom_site_occupancy
_atom_site_site_symmetry_order
_atom_site_calc_flag
_atom_site_refinement_flags_posn
Ca1 Ca 0.0011(5) 0.62927(9) 0.18129(6) 0.0123(14) Uani 1 1 d .
Si1 Si 0.5328(7) 0.32237(13) 0.06600(9) 0.0109(18) Uani 1 1 d .
B1 B 0.594(3) 0.0579(4) -0.1512(4) 0.0058(5) Uiso 1 1 d .
O1 O 0.258(2) 0.4609(4) 0.0158(2) 0.011(2) Uani 1 1 d .
O2 O 0.729(2) 0.1766(3) -0.0372(2) 0.011(2) Uani 1 1 d .
O3 O 0.713(2) 0.3628(3) 0.2161(2) 0.011(2) Uani 1 1 d .
O4 O 0.3072(19) 0.1413(3) 0.1310(2) 0.011(2) Uani 1 1 d .
O5 O 0.2687(19) 0.0784(3) -0.1592(2) 0.011(2) Uani 1 1 d D
H H 0.17(2) 0.033(9) -0.080(6) 0.03(2) Uiso 1 1 d D
loop_
_atom_site_aniso_label
_atom_site_aniso_U_11
_atom_site_aniso_U_22
_atom_site_aniso_U_33
_atom_site_aniso_U_23
_atom_site_aniso_U_13
_atom_site_aniso_U_12
Ca1 0.023(4) 0.0090(3) 0.0047(2) -0.00024(16) -0.0025(6) -0.0010(4)
Si1 0.021(5) 0.0082(4) 0.0031(3) 0.0001(2) -0.0048(7) -0.0002(6)
O1 0.021(7) 0.0091(4) 0.0041(3) 0.0001(3) -0.0037(9) -0.0014(7)
O2 0.021(7) 0.0091(4) 0.0041(3) 0.0001(3) -0.0037(9) -0.0014(7)
O3 0.021(7) 0.0091(4) 0.0041(3) 0.0001(3) -0.0037(9) -0.0014(7)
O4 0.021(7) 0.0091(4) 0.0041(3) 0.0001(3) -0.0037(9) -0.0014(7)
O5 0.021(7) 0.0091(4) 0.0041(3) 0.0001(3) -0.0037(9) -0.0014(7)
loop_
_atom_type_symbol
_atom_type_description
_atom_type_scat_dispersion_real
_atom_type_scat_dispersion_imag
_atom_type_scat_source
O O 0.0056 0.0036 'International Tables Vol C Tables 4.2.6.8 and 6.1.1.4'
Si Si 0.0522 0.0431 'International Tables Vol C Tables 4.2.6.8 and 6.1.1.4'
B B 0.0004 0.0004 'International Tables Vol C Tables 4.2.6.8 and 6.1.1.4'
Ca Ca 0.1611 0.1926 'International Tables Vol C Tables 4.2.6.8 and 6.1.1.4'
H H 0.0000 0.0000 'International Tables Vol C Tables 4.2.6.8 and 6.1.1.4'
loop_
_geom_angle_atom_site_label_1
_geom_angle_atom_site_label_2
_geom_angle_atom_site_label_3
_geom_angle
_geom_angle_site_symmetry_1
_geom_angle_site_symmetry_3
O3 Ca1 O2 62.00(15) 2_655 3_665
O3 Ca1 O3 146.38(9) 2_655 1_455
O2 Ca1 O3 150.83(10) 3_665 1_455
O3 Ca1 O1 145.95(12) 2_655 3_565
O2 Ca1 O1 87.2(2) 3_665 3_565
O3 Ca1 O1 66.70(16) 1_455 3_565
O3 Ca1 O4 90.1(2) 2_655 2
O2 Ca1 O4 142.01(12) 3_665 2
O3 Ca1 O4 63.42(17) 1_455 2
O1 Ca1 O4 108.9(3) 3_565 2
O3 Ca1 O1 110.4(3) 2_655 .
O2 Ca1 O1 66.32(17) 3_665 .
O3 Ca1 O1 89.9(2) 1_455 .
O1 Ca1 O1 64.6(4) 3_565 .
O4 Ca1 O1 151.66(13) 2 .
O3 Ca1 O5 74.8(3) 2_655 3_565
O2 Ca1 O5 74.8(3) 3_665 3_565
O3 Ca1 O5 113.0(3) 1_455 3_565
O1 Ca1 O5 83.82(19) 3_565 3_565
O4 Ca1 O5 73.19(17) 2 3_565
O1 Ca1 O5 129.94(12) . 3_565
O3 Ca1 O5 82.20(18) 2_655 4_566
O2 Ca1 O5 116.5(3) 3_665 4_566
O3 Ca1 O5 74.0(3) 1_455 4_566
O1 Ca1 O5 127.45(13) 3_565 4_566
O4 Ca1 O5 81.3(2) 2 4_566
O1 Ca1 O5 82.34(19) . 4_566
O5 Ca1 O5 145.24(9) 3_565 4_566
O3 Ca1 B1 117.99(18) 2_655 4_466
O2 Ca1 B1 169.7(3) 3_665 4_466
O3 Ca1 B1 32.11(13) 1_455 4_466
O1 Ca1 B1 89.7(2) 3_565 4_466
O4 Ca1 B1 31.49(12) 2 4_466
O1 Ca1 B1 120.82(18) . 4_466
O5 Ca1 B1 95.2(3) 3_565 4_466
O5 Ca1 B1 73.0(3) 4_566 4_466
O3 Ca1 B1 30.96(13) 2_655 3_665
O2 Ca1 B1 31.05(12) 3_665 3_665
O3 Ca1 B1 174.4(3) 1_455 3_665
O1 Ca1 B1 117.05(17) 3_565 3_665
O4 Ca1 B1 117.32(18) 2 3_665
O1 Ca1 B1 88.3(3) . 3_665
O5 Ca1 B1 72.0(3) 3_565 3_665
O5 Ca1 B1 100.5(2) 4_566 3_665
B1 Ca1 B1 147.88(14) 4_466 3_665
O3 Ca1 Si1 172.2(2) 2_655 1_455
O2 Ca1 Si1 123.27(12) 3_665 1_455
O3 Ca1 Si1 29.77(9) 1_455 1_455
O1 Ca1 Si1 36.95(13) 3_565 1_455
O4 Ca1 Si1 82.55(18) 2 1_455
O1 Ca1 Si1 77.4(2) . 1_455
O5 Ca1 Si1 100.5(2) 3_565 1_455
O5 Ca1 Si1 99.09(16) 4_566 1_455
B1 Ca1 Si1 55.66(14) 4_466 1_455
B1 Ca1 Si1 153.91(9) 3_665 1_455
O3 Ca1 Si1 81.55(19) 2_655 3_665
O2 Ca1 Si1 29.80(12) 3_665 3_665
O3 Ca1 Si1 125.48(13) 1_455 3_665
O1 Ca1 Si1 77.1(2) 3_565 3_665
O4 Ca1 Si1 171.10(11) 2 3_665
O1 Ca1 Si1 36.70(13) . 3_665
O5 Ca1 Si1 101.50(16) 3_565 3_665
O5 Ca1 Si1 100.4(2) 4_566 3_665
B1 Ca1 Si1 157.33(9) 4_466 3_665
B1 Ca1 Si1 53.80(15) 3_665 3_665
Si1 Ca1 Si1 105.67(11) 1_455 3_665
O1 Si1 O3 121.4(2) . .
O1 Si1 O2 126.5(2) . .
O3 Si1 O2 109.7(4) . .
O1 Si1 O4 93.5(4) . .
O3 Si1 O4 96.2(3) . .
O2 Si1 O4 96.0(3) . .
O1 Si1 O1 79.5(5) . 3_665
O3 Si1 O1 88.3(3) . 3_665
O2 Si1 O1 87.4(3) . 3_665
O4 Si1 O1 173.0(4) . 3_665
O1 Si1 Si1 43.7(2) . 3_665
O3 Si1 Si1 106.87(12) . 3_665
O2 Si1 Si1 108.81(14) . 3_665
O4 Si1 Si1 137.2(3) . 3_665
O1 Si1 Si1 35.9(3) 3_665 3_665
O1 Si1 Ca1 103.0(2) . 1_655
O3 Si1 Ca1 43.20(18) . 1_655
O2 Si1 Ca1 103.4(3) . 1_655
O4 Si1 Ca1 138.90(12) . 1_655
O1 Si1 Ca1 45.18(14) 3_665 1_655
Si1 Si1 Ca1 68.81(10) 3_665 1_655
O1 Si1 Ca1 104.1(2) . 3_665
O3 Si1 Ca1 106.3(3) . 3_665
O2 Si1 Ca1 42.80(17) . 3_665
O4 Si1 Ca1 137.61(15) . 3_665
O1 Si1 Ca1 44.89(17) 3_665 3_665
Si1 Si1 Ca1 69.33(10) 3_665 3_665
Ca1 Si1 Ca1 74.33(11) 1_655 3_665
O1 Si1 Ca1 36.70(11) . 3_565
O3 Si1 Ca1 157.7(3) . 3_565
O2 Si1 Ca1 92.5(2) . 3_565
O4 Si1 Ca1 83.5(2) . 3_565
O1 Si1 Ca1 90.2(2) 3_665 3_565
Si1 Si1 Ca1 61.67(9) 3_665 3_565
Ca1 Si1 Ca1 130.48(7) 1_655 3_565
Ca1 Si1 Ca1 88.11(13) 3_665 3_565
O1 Si1 Ca1 35.64(13) . .
O3 Si1 Ca1 88.4(3) . .
O2 Si1 Ca1 161.8(2) . .
O4 Si1 Ca1 84.2(2) . .
O1 Si1 Ca1 90.6(2) 3_665 .
Si1 Si1 Ca1 61.54(10) 3_665 .
Ca1 Si1 Ca1 87.80(13) 1_655 .
Ca1 Si1 Ca1 130.87(7) 3_665 .
Ca1 Si1 Ca1 69.36(11) 3_565 .
O1 Si1 Ca1 152.63(13) . 2_645
O3 Si1 Ca1 34.27(15) . 2_645
O2 Si1 Ca1 80.9(2) . 2_645
O4 Si1 Ca1 81.1(2) . 2_645
O1 Si1 Ca1 105.6(3) 3_665 2_645
Si1 Si1 Ca1 135.83(14) 3_665 2_645
Ca1 Si1 Ca1 67.03(9) 1_655 2_645
Ca1 Si1 Ca1 97.69(16) 3_665 2_645
Ca1 Si1 Ca1 162.47(6) 3_565 2_645
Ca1 Si1 Ca1 117.00(8) . 2_645
O1 Si1 Ca1 83.4(3) . 2_545
O3 Si1 Ca1 80.3(3) . 2_545
O2 Si1 Ca1 122.00(18) . 2_545
O4 Si1 Ca1 27.07(13) . 2_545
O1 Si1 Ca1 150.52(18) 3_665 2_545
Si1 Si1 Ca1 122.89(17) 3_665 2_545
Ca1 Si1 Ca1 117.67(8) 1_655 2_545
Ca1 Si1 Ca1 164.55(3) 3_665 2_545
Ca1 Si1 Ca1 90.26(15) 3_565 2_545
Ca1 Si1 Ca1 62.17(9) . 2_545
Ca1 Si1 Ca1 79.74(12) 2_645 2_545
O4 B1 O3 109.9(7) 3_655 4_565
O4 B1 O2 107.2(6) 3_655 .
O3 B1 O2 105.1(6) 4_565 .
O4 B1 O5 113.8(7) 3_655 .
O3 B1 O5 107.4(6) 4_565 .
O2 B1 O5 113.1(6) . .
O4 B1 Ca1 55.2(4) 3_655 4_665
O3 B1 Ca1 55.2(4) 4_565 4_665
O2 B1 Ca1 113.1(8) . 4_665
O5 B1 Ca1 133.6(3) . 4_665
O4 B1 Ca1 121.3(8) 3_655 3_665
O3 B1 Ca1 52.5(3) 4_565 3_665
O2 B1 Ca1 52.6(4) . 3_665
O5 B1 Ca1 124.9(3) . 3_665
Ca1 B1 Ca1 81.4(3) 4_665 3_665
O4 B1 Ca1 87.2(5) 3_655 4_565
O3 B1 Ca1 92.5(4) 4_565 4_565
O2 B1 Ca1 151.2(7) . 4_565
O5 B1 Ca1 38.7(2) . 4_565
Ca1 B1 Ca1 95.59(16) 4_665 4_565
Ca1 B1 Ca1 139.33(17) 3_665 4_565
Si1 O1 Si1 100.5(5) . 3_665
Si1 O1 Ca1 117.87(18) . 3_565
Si1 O1 Ca1 97.87(12) 3_665 3_565
Si1 O1 Ca1 119.62(15) . .
Si1 O1 Ca1 98.42(13) 3_665 .
Ca1 O1 Ca1 115.4(4) 3_565 .
B1 O2 Si1 122.2(8) . .
B1 O2 Ca1 96.4(4) . 3_665
Si1 O2 Ca1 107.39(14) . 3_665
B1 O3 Si1 127.3(8) 4_566 .
B1 O3 Ca1 96.5(3) 4_566 2_645
Si1 O3 Ca1 121.59(15) . 2_645
B1 O3 Ca1 92.7(4) 4_566 1_655
Si1 O3 Ca1 107.03(17) . 1_655
Ca1 O3 Ca1 107.2(4) 2_645 1_655
B1 O4 Si1 122.4(8) 3_655 .
B1 O4 Ca1 93.3(4) 3_655 2_545
Si1 O4 Ca1 132.73(15) . 2_545
B1 O5 Ca1 127.0(3) . 3_565
B1 O5 Ca1 118.4(3) . 4_565
Ca1 O5 Ca1 100.8(3) 3_565 4_565
B1 O5 H 114(7) . .
Ca1 O5 H 96(5) 3_565 .
Ca1 O5 H 94(6) 4_565 .
loop_
_geom_bond_atom_site_label_1
_geom_bond_atom_site_label_2
_geom_bond_distance
_geom_bond_site_symmetry_2
Ca1 O3 2.215(6) 2_655
Ca1 O2 2.216(6) 3_665
Ca1 O3 2.218(6) 1_455
Ca1 O1 2.218(5) 3_565
Ca1 O4 2.219(7) 2
Ca1 O1 2.221(6) .
Ca1 O5 2.298(5) 3_565
Ca1 O5 2.333(5) 4_566
Ca1 B1 2.699(10) 4_466
Ca1 B1 2.774(10) 3_665
Ca1 Si1 3.098(4) 1_455
Ca1 Si1 3.113(4) 3_665
Si1 O1 1.595(9) .
Si1 O3 1.609(5) .
Si1 O2 1.621(6) .
Si1 O4 1.684(6) .
Si1 O1 1.880(6) 3_665
Si1 Si1 2.6771(18) 3_665
Si1 Ca1 3.098(4) 1_655
Si1 Ca1 3.113(4) 3_665
Si1 Ca1 3.282(5) 3_565
Si1 Ca1 3.351(4) 2_645
Si1 Ca1 3.582(5) 2_545
B1 O4 1.412(6) 3_655
B1 O3 1.436(8) 4_565
B1 O2 1.440(7) .
B1 O5 1.453(15) .
B1 Ca1 2.699(10) 4_665
B1 Ca1 2.774(10) 3_665
B1 Ca1 3.283(12) 4_565
O1 Si1 1.880(6) 3_665
O1 Ca1 2.218(5) 3_565
O2 Ca1 2.216(6) 3_665
O3 B1 1.436(8) 4_566
O3 Ca1 2.215(6) 2_645
O3 Ca1 2.218(6) 1_655
O4 B1 1.412(6) 3_655
O4 Ca1 2.219(7) 2_545
O5 Ca1 2.298(5) 3_565
O5 Ca1 2.333(5) 4_565
O5 H 0.90(2) .
