#------------------------------------------------------------------------------
#$Date: 2019-11-24 06:02:49 +0200 (Sun, 24 Nov 2019) $
#$Revision: 236893 $
#$URL: file:///home/coder/svn-repositories/cod/cif/4/34/98/4349847.cif $
#------------------------------------------------------------------------------
#
# This file is available in the Crystallography Open Database (COD),
# http://www.crystallography.net/
#
# All data on this site have been placed in the public domain by the
# contributors.
#
data_4349847
loop_
_publ_author_name
'Gorelova, Liudmila A.'
'Pakhomova, Anna S.'
'Aprilis, Georgios'
'Dubrovinsky, Leonid S.'
'Krivovichev, Sergey V.'
_publ_section_title
;
 Pentacoordinated silicon in the high-pressure modification of datolite,
 CaBSiO4(OH)
;
_journal_issue                   7
_journal_name_full               'Inorganic Chemistry Frontiers'
_journal_page_first              1653
_journal_paper_doi               10.1039/C8QI00257F
_journal_volume                  5
_journal_year                    2018
_chemical_formula_sum            'B Ca H O5 Si'
_chemical_formula_weight         159.99
_space_group_crystal_system      monoclinic
_space_group_IT_number           14
_space_group_name_Hall           '-P 2ybc'
_space_group_name_H-M_alt        'P 1 21/c 1'
_atom_sites_solution_hydrogens   difmap
_audit_creation_method           SHELXL-2014/7
_audit_update_record
;
2018-03-21 deposited with the CCDC.
2018-05-04 downloaded from the CCDC.
;
_cell_angle_alpha                90
_cell_angle_beta                 91.080(13)
_cell_angle_gamma                90
_cell_formula_units_Z            4
_cell_length_a                   4.526(4)
_cell_length_b                   7.2220(4)
_cell_length_c                   9.3443(3)
_cell_measurement_reflns_used    1087
_cell_measurement_temperature    298(2)
_cell_measurement_theta_max      17.235
_cell_measurement_theta_min      1.452
_cell_volume                     305.4(3)
_computing_structure_refinement  'SHELXL-2014/7 (Sheldrick, 2014)'
_diffrn_ambient_temperature      298(2)
_diffrn_measured_fraction_theta_full 0.330
_diffrn_measured_fraction_theta_max 0.176
_diffrn_measurement_device_type
'esperanto-CrysAlisPro-abstract goniometer imported esperanto images'
_diffrn_radiation_wavelength     0.2896
_diffrn_reflns_av_R_equivalents  0.0587
_diffrn_reflns_av_unetI/netI     0.0703
_diffrn_reflns_Laue_measured_fraction_full 0.330
_diffrn_reflns_Laue_measured_fraction_max 0.176
_diffrn_reflns_limit_h_max       2
_diffrn_reflns_limit_h_min       -2
_diffrn_reflns_limit_k_max       14
_diffrn_reflns_limit_k_min       -14
_diffrn_reflns_limit_l_max       19
_diffrn_reflns_limit_l_min       -18
_diffrn_reflns_number            1087
_diffrn_reflns_point_group_measured_fraction_full 0.330
_diffrn_reflns_point_group_measured_fraction_max 0.176
_diffrn_reflns_theta_full        10.007
_diffrn_reflns_theta_max         17.235
_diffrn_reflns_theta_min         1.452
_exptl_absorpt_coefficient_mu    1.185
_exptl_crystal_colour            colorless
_exptl_crystal_density_diffrn    3.479
_exptl_crystal_description       isosymmetric
_exptl_crystal_F_000             320
_exptl_crystal_size_max          0.010
_exptl_crystal_size_mid          0.010
_exptl_crystal_size_min          0.005
_refine_diff_density_max         0.491
_refine_diff_density_min         -0.753
_refine_diff_density_rms         0.137
_refine_ls_extinction_method     none
_refine_ls_goodness_of_fit_ref   0.979
_refine_ls_hydrogen_treatment    refall
_refine_ls_matrix_type           full
_refine_ls_number_parameters     77
_refine_ls_number_reflns         482
_refine_ls_number_restraints     1
_refine_ls_restrained_S_all      0.978
_refine_ls_R_factor_all          0.0616
_refine_ls_R_factor_gt           0.0520
_refine_ls_shift/su_max          0.000
_refine_ls_shift/su_mean         0.000
_refine_ls_structure_factor_coef Fsqd
_refine_ls_weighting_details
'w=1/[\s^2^(Fo^2^)+(0.0871P)^2^] where P=(Fo^2^+2Fc^2^)/3'
_refine_ls_weighting_scheme      calc
_refine_ls_wR_factor_gt          0.1225
_refine_ls_wR_factor_ref         0.1350
_reflns_Friedel_coverage         0.000
_reflns_number_gt                395
_reflns_number_total             482
_reflns_threshold_expression     'I > 2\s(I)'
_cod_data_source_file            c8qi00257f2.cif
_cod_data_source_block           shelx_CCDC1
_cod_original_sg_symbol_H-M      'P 21/c'
_cod_database_code               4349847
_shelx_shelxl_version_number     2014/7
_shelx_space_group_comment
;
The symmetry employed for this shelxl refinement is uniquely defined
by the following loop, which should always be used as a source of
symmetry information in preference to the above space-group names.
They are only intended as comments.
;
_shelx_res_file
;

    shelx.res created by SHELXL-2014/7


TITL p2_cr3_s2 in P2(1)/c
REM P2(1)/c (#14 in standard setting)
CELL 0.28960   4.526380   7.222050   9.344343  90.0000  91.0801  90.0000
ZERR    4.00   0.004006   0.000439   0.000268   0.0000   0.0130   0.0000
LATT  1
SYMM -x, y+1/2,-z+1/2
SFAC O Si B Ca H
UNIT 20.00 4.00 4.00 4.00 4.00

OMIT    -1   7   9
OMIT     0   3   1
OMIT     0   2  17
OMIT     0   5  13
OMIT     0  10   6
OMIT     1   5   1
OMIT     0   6  12

L.S. 20
ACTA
BOND $H
HTAB
DFIX 0.90 0.02 H O5
TEMP 25.0
FMAP 2
PLAN 250
REM TWIN 1 0 0 0 1 0 0 0 -1
REM EXTI    0.000000
WGHT    0.087100
FVAR      12.94636
CA1   4    0.004847    0.610064    0.169602    11.00000    0.08500    0.01184 =
         0.00346   -0.00021   -0.00107   -0.00118
SI1   2    0.487124    0.279552    0.081199    11.00000    0.09405    0.01093 =
         0.00190   -0.00035   -0.00156    0.00115
B1    3    0.592808    0.082369   -0.155187    11.00000    0.08069    0.00848 =
         0.00358    0.00002   -0.00512    0.00505
O1    1    0.252640    0.422059    0.030688    11.00000    0.06655    0.01391 =
         0.00499   -0.00055   -0.00295    0.00157
O2    1    0.702303    0.192938   -0.037294    11.00000    0.07214    0.01249 =
         0.00303   -0.00076    0.00023    0.00199
O3    1    0.704360    0.340888    0.213578    11.00000    0.08920    0.01415 =
         0.00256   -0.00028   -0.00226   -0.00400
O4    1    0.305190    0.100712    0.140327    11.00000    0.07335    0.01225 =
         0.00583   -0.00021    0.00264    0.00139
O5    1    0.262490    0.090186   -0.161367    11.00000    0.04725    0.01583 =
         0.00408    0.00080    0.00330    0.00744
H     5    0.093481    0.056197   -0.119198    11.00000    0.05589

HKLF 4

REM  p2_cr3_s2 in P2(1)/c
REM R1 =  0.0520 for     395 Fo > 4sig(Fo)  and  0.0616 for all     482 data
REM     77 parameters refined using      1 restraints

END

WGHT      0.0778      0.0000

REM Instructions for potential hydrogen bonds
EQIV $1 x-1, y, z
HTAB O5 O2_$1
EQIV $2 -x, -y, -z
HTAB O5 O4_$2

REM Highest difference peak  0.491,  deepest hole -0.753,  1-sigma level  0.137
Q1    1   0.4892  0.1239  0.1765  11.00000  0.05    0.49
Q2    1   0.3981  0.6184  0.1807  11.00000  0.05    0.44
Q3    1  -0.0009  0.3215 -0.0096  11.00000  0.05    0.42
Q4    1   0.2366 -0.0718 -0.0581  11.00000  0.05    0.41
Q5    1  -0.3724  0.5984  0.1599  11.00000  0.05    0.40
Q6    1   0.9102  0.3011  0.1721  11.00000  0.05    0.39
Q7    1   0.5167  0.3597 -0.0766  11.00000  0.05    0.39
Q8    1   0.5331  0.0859  0.2426  11.00000  0.05    0.38
Q9    1   0.8248  0.3115  0.1796  11.00000  0.05    0.36
Q10   1   0.1356  0.1920  0.1834  11.00000  0.05    0.36
Q11   1   0.0065  0.4055  0.1218  11.00000  0.05    0.36
Q12   1   0.4649  0.4030 -0.0770  11.00000  0.05    0.35
Q13   1   0.7322  0.3861  0.0288  11.00000  0.05    0.35
Q14   1   0.4974  0.2666 -0.1897  11.00000  0.05    0.35
Q15   1   0.5130  0.2734 -0.1424  11.00000  0.05    0.34
Q16   1   0.1539  0.0172 -0.0803  11.00000  0.05    0.34
Q17   1   0.0205  0.1568  0.0648  11.00000  0.05    0.33
Q18   1   0.0708  0.2989 -0.0413  11.00000  0.05    0.33
Q19   1   0.0782  0.5469  0.1181  11.00000  0.05    0.33
Q20   1   0.0723  0.6845  0.1204  11.00000  0.05    0.31
Q21   1   0.7409  0.3829 -0.0598  11.00000  0.05    0.30
Q22   1   0.5254  0.4100  0.1858  11.00000  0.05    0.29
Q23   1   0.5869  0.4973  0.2085  11.00000  0.05    0.29
Q24   1   0.1222 -0.0063 -0.2064  11.00000  0.05    0.28
Q25   1   0.4609  0.0818  0.1176  11.00000  0.05    0.28
Q26   1   0.3970  0.2364  0.0305  11.00000  0.05    0.28
Q27   1   0.6268  0.0067  0.0070  11.00000  0.05    0.27
Q28   1   0.7043  0.0115 -0.0026  11.00000  0.05    0.27
Q29   1  -0.0684  0.5343  0.2103  11.00000  0.05    0.26
Q30   1   0.7376  0.3770  0.2517  11.00000  0.05    0.26
Q31   1   0.9191  0.4479  0.2568  11.00000  0.05    0.25
Q32   1   0.2752  0.2250  0.2377  11.00000  0.05    0.25
Q33   1   0.3250  0.1259 -0.1770  11.00000  0.05    0.25
Q34   1   0.7885  0.2725  0.0871  11.00000  0.05    0.25
Q35   1   0.2535  0.5208  0.0627  11.00000  0.05    0.24
Q36   1   0.8573  0.4760  0.2625  11.00000  0.05    0.24
Q37   1   0.1776  0.0479  0.0742  11.00000  0.05    0.24
Q38   1   0.2456  0.1353 -0.1841  11.00000  0.05    0.24
Q39   1   0.7962  0.4227  0.2563  11.00000  0.05    0.24
Q40   1   0.0411  0.1571 -0.1781  11.00000  0.05    0.24
Q41   1   0.4870  0.5216  0.0293  11.00000  0.05    0.23
Q42   1   0.0468  0.5042  0.0543  11.00000  0.05    0.23
Q43   1   0.1777  0.1204  0.2366  11.00000  0.05    0.23
Q44   1   0.3986  0.2138 -0.0473  11.00000  0.05    0.22
Q45   1   0.6705  0.1795  0.2396  11.00000  0.05    0.22
Q46   1   0.4202  0.4803  0.1494  11.00000  0.05    0.22
Q47   1   0.2980  0.0245  0.1279  11.00000  0.05    0.22
Q48   1   0.0903  0.4072  0.0652  11.00000  0.05    0.22
Q49   1   0.0007  0.6825  0.2178  11.00000  0.05    0.21
Q50   1   0.7298  0.0615 -0.1733  11.00000  0.05    0.20
Q51   1   0.5061  0.2042 -0.0570  11.00000  0.05    0.20
Q52   1   0.7539  0.1026 -0.0069  11.00000  0.05    0.20
Q53   1   0.0462  0.1083 -0.0525  11.00000  0.05    0.19
Q54   1   0.0617  0.2053 -0.0127  11.00000  0.05    0.19
Q55   1   0.1325  0.2023 -0.0196  11.00000  0.05    0.19
Q56   1   0.3547  0.1597 -0.0310  11.00000  0.05    0.19
Q57   1   0.2268  0.2010 -0.0311  11.00000  0.05    0.19
Q58   1   0.1416 -0.0627 -0.1306  11.00000  0.05    0.18
Q59   1   0.6531  0.0988 -0.0718  11.00000  0.05    0.18
Q60   1   0.7422  0.1231 -0.1085  11.00000  0.05    0.17
Q61   1   0.5297  0.3821 -0.0089  11.00000  0.05    0.17
Q62   1   0.4258  0.1969  0.1315  11.00000  0.05    0.16
Q63   1   0.1953 -0.1472 -0.1227  11.00000  0.05    0.13
Q64   1   0.0180  0.1784 -0.1346  11.00000  0.05    0.10
Q65   1   0.4712 -0.0193 -0.1826  11.00000  0.05    0.07
;
_shelx_res_checksum              57078
_shelx_hkl_file
;
   0   0  -3-15.7991 91.7147   1
   0   0   3 17.0618 73.7813   1
   0   0   4 270031. 6132.62   1
   0   0  -4 264584. 5884.27   1
   0   0   5 46.8069 208.371   1
   0   0  -5-77.3873 192.528   1
   0   0   6 371039. 9082.68   1
   0   0  -6 380403. 8252.85   1
   0   0  -7-21.2986 129.513   1
   0   0   7-133.365 350.370   1
   0   0   8 283431. 10238.6   1
   0   0  -8 285087. 8852.75   1
   0   0  -9 55.2894 193.962   1
   0   0   9 351.226 551.351   1
   0   0  10 89881.8 6651.61   1
   0   0 -10 88437.5 5882.02   1
   0   0  11-333.604 785.129   1
   0   0 -11 30.8452 204.449   1
   0   0 -12 225352. 10839.2   1
   0   0  12 212395. 12722.3   1
   0   0  13-84.8898 819.850   1
   0   0 -13-504.226 845.880   1
   0   0 -14 2934.99 1219.05   1
   0   0  14 2478.79 1630.21   1
   0   0  15-750.226 874.244   1
   0   0 -15 180.378 688.675   1
   0   0  16 139322. 15128.1   1
   0   0 -16 104834. 7295.02   1
   0   0 -17-413.939 889.973   1
   0   0  17 2638.31 2426.77   1
   0   0  18 1628.05 1519.98   1
   0   0  19-326.146 751.407   1
   0  -1   1 31557.6 1638.75   1
   0   1  -1 34836.1 1667.25   1
   0   1  -2 213.914 133.052   1
   0  -1   2 289.569 176.169   1
   0  -1   3 5687.99 927.610   1
   0   1  -3 6103.13 928.418   1
   0   1   4 335807. 5769.76   1
   0  -1  -4 343191. 5487.22   1
   0   1  -4 335815. 7758.43   1
   0  -1   4 343830. 7918.95   1
   0   1   5 166721. 5340.52   1
   0   1  -5 158712. 5854.56   1
   0  -1   5 163425. 5946.06   1
   0  -1  -5 170497. 4603.57   1
   0   1   6 14.8461 32.4426   1
   0   1  -6 36.1341 127.399   1
   0  -1   6-56.4794 300.506   1
   0  -1  -7 68508.6 3728.46   1
   0   1  -7 59690.4 3841.73   1
   0   1   7 64853.9 4163.32   1
   0  -1   7 61486.1 4453.53   1
   0   1  -8 586693. 13485.4   1
   0  -1   8 571828. 15217.7   1
   0   1   8 579418. 13679.9   1
   0  -1  -8 569089. 12192.2   1
   0   1  -9 12900.3 2149.73   1
   0   1   9 17768.2 2882.06   1
   0  -1  -9 13911.0 2046.03   1
   0  -1   9 13602.9 2428.27   1
   0   1  10 8399.54 1925.69   1
   0  -1 -10 8190.99 1730.41   1
   0   1 -10 8502.73 1811.66   1
   0  -1  10 7621.99 2044.20   1
   0  -1  11 68564.9 6397.11   1
   0   1  11 57765.5 6252.43   1
   0  -1 -11 72192.4 5425.85   1
   0   1 -11 68710.6 5680.38   1
   0  -1  12 17024.3 3535.11   1
   0   1 -12 14066.7 2660.50   1
   0  -1 -12 12040.2 2214.57   1
   0   1  12 10495.8 2995.87   1
   0   1  13 1652.23 1452.95   1
   0  -1  13 1893.76 1279.13   1
   0   1 -13 2818.25 1277.48   1
   0  -1 -13 2042.05 938.545   1
   0  -1 -14 968.458 639.483   1
   0   1 -14 1783.98 1016.96   1
   0  -1  14 1365.02 1068.02   1
   0   1  14 834.655 1373.46   1
   0  -1  15 34265.7 6768.87   1
   0   1  15 35407.4 7103.88   1
   0   1 -15 38742.1 5275.80   1
   0  -1 -15 28249.4 3522.23   1
   0   1  16 184757. 16784.4   1
   0  -1  16 185761. 17309.2   1
   0  -1 -16 147725. 8963.42   1
   0   1 -16 195592. 12073.5   1
   0   1 -17 10583.9 2449.09   1
   0   1  17 7079.64 3233.56   1
   0  -1  18 1580.04 2206.18   1
   0   1 -18-385.347 548.237   1
   0   1  18 747.736 2319.41   1
   0  -1  19 97.4438 1691.33   1
   0   2   0 40496.0 1937.71   1
   0  -2   0 41145.3 1944.54   1
   0  -2   1 2319.54 567.782   1
   0   2  -1 2597.77 565.758   1
   0  -2   2 105749. 4212.94   1
   0   2  -2 115458. 4238.46   1
   0  -2   3 32786.7 2425.72   1
   0   2  -3 34381.3 2535.97   1
   0   2  -4 15091.3 1875.36   1
   0  -2   4 15726.7 1831.04   1
   0  -2   5 656245. 12958.3   1
   0   2  -5 669538. 13429.6   1
   0   2   6 361987. 8346.44   1
   0   2  -6 369950. 10097.3   1
   0   2   7 13396.2 1864.52   1
   0  -2   7 15823.8 2395.84   1
   0   2  -7 14056.8 1944.56   1
   0   2  -8 36952.1 3446.80   1
   0  -2   8 41828.0 4276.30   1
   0   2   8 32050.0 3342.46   1
   0  -2  -8 42771.4 3030.43   1
   0   2  -9 745.477 541.046   1
   0  -2   9 839.981 726.466   1
   0  -2  -9 1255.88 642.706   1
   0   2   9 996.189 679.292   1
   0   2  10 44957.0 5071.51   1
   0  -2  10 45529.9 5150.45   1
   0   2 -10 46943.5 4467.18   1
   0  -2  11 66761.1 6512.40   1
   0   2 -11 67918.2 5803.64   1
   0   2  11 71362.9 7262.83   1
   0  -2  12 2805.35 1619.64   1
   0   2  12 2524.08 1489.56   1
   0  -2 -12 1311.86 555.671   1
   0   2 -12 3577.84 1753.75   1
   0  -2  13 50185.3 6719.65   1
   0   2  13 36750.5 6002.99   1
   0  -2 -13 28001.6 3226.44   1
   0   2 -13 42748.1 5088.17   1
   0   2 -14 19791.0 3835.46   1
   0  -2 -14 13741.4 2376.99   1
   0   2  14 18372.5 4398.22   1
   0  -2  14 19356.7 4573.47   1
   0   2  15 35316.6 7301.66   1
   0   2 -15 59576.9 6876.02   1
   0  -2  15 46971.4 7992.09   1
   0   2  16 805.391 638.086   1
   0   2 -16 692.344 915.143   1
   0  -2  16-1055.94 1881.47   1
   0   2  17 1435.72 306.516   1
   0  -2  17 1155.51 1103.96   1
   0   2 -17-120.717 715.886   1
   0  -2  18 20768.8 7157.21   1
   0  -3   0-31.5303 35.9495   1
   0   3   0 65.6188 153.793   1
   0  -3   1 9390.38 1243.78   1
   0  -3  -1 8862.93 1048.95   1
   0   3   1 7556.84 851.352   1
   0   3  -1 9042.19 1274.13   1
   0  -3   2 564937. 10636.4   1
   0   3  -2 568125. 10721.6   1
   0   3  -3 268060. 7958.58   1
   0  -3   3 258640. 7751.94   1
   0  -3   4 257187. 8074.04   1
   0   3  -4 250119. 8256.03   1
   0   3  -5 5926.06 1295.44   1
   0  -3   5 6103.04 1281.10   1
   0   3  -6 12097.7 1917.61   1
   0  -3   6 11810.2 1930.46   1
   0  -3   7 75011.0 5461.66   1
   0   3  -7 72256.1 4756.83   1
   0   3   8 267.166 252.908   1
   0  -3   8 323.107 374.371   1
   0   3  -8 549.697 389.394   1
   0   3  -9 2806.32 1062.02   1
   0   3   9 916.784 305.671   1
   0  -3   9 2481.71 1179.02   1
   0   3 -10 635522. 17611.0   1
   0  -3  10 629631. 20036.0   1
   0  -3  11 64003.8 6674.02   1
   0   3 -11 71271.2 6227.69   1
   0   3 -12 2380.60 1074.58   1
   0  -3  12 2851.36 1652.55   1
   0   3  12 836.936 247.919   1
   0   3 -13 45336.3 5526.56   1
   0  -3  13 56367.0 7232.20   1
   0  -3  14 177166. 13903.0   1
   0   3 -14 188320. 12184.5   1
   0   3 -15 982.085 1119.02   1
   0  -3  15-366.562 657.745   1
   0  -3  16 22022.9 5999.71   1
   0   3 -16 24691.0 4621.81   1
   0  -3  17 809.961 1630.31   1
   0   4   0 641840. 11110.1   1
   0  -4   0 649215. 11422.1   1
   0  -4   1 136119. 5245.06   1
   0  -4  -1 122088. 4776.67   1
   0   4  -1 137271. 5553.11   1
   0   4   1 128935. 4366.67   1
   0   4  -2 380268. 9896.87   1
   0  -4  -2 368947. 7871.50   1
   0  -4   2 388823. 9511.65   1
   0  -4   3 33029.3 2936.67   1
   0   4  -3 33621.7 3094.98   1
   0  -4   4 45222.1 3678.06   1
   0   4  -4 45089.9 3829.80   1
   0   4  -5 24922.7 2929.68   1
   0  -4   5 26570.8 3115.43   1
   0   4  -6 706413. 15859.0   1
   0  -4   6 739460. 17628.4   1
   0  -4   7 1653.86 1002.71   1
   0   4  -7 1067.64 520.292   1
   0   4  -8 3364.81 1131.15   1
   0  -4   8 3673.26 1395.10   1
   0  -4   9 63103.3 6338.28   1
   0   4  -9 67293.5 5642.72   1
   0  -4  10 76901.6 7392.84   1
   0   4 -10 89224.2 7011.80   1
   0  -4  11 3889.23 1946.41   1
   0   4 -11 2963.70 1260.66   1
   0   4 -12 15169.0 3208.00   1
   0  -4  12 13603.1 3365.84   1
   0  -4  13 840.250 532.937   1
   0   4 -13 91.0382 54.1554   1
   0  -4  14 36271.8 6078.19   1
   0   4 -14 34795.9 5031.77   1
   0  -4  15 2056.73 1750.74   1
   0   4 -15 1707.16 948.516   1
   0  -4  16 9109.00 4113.90   1
   0   5   0-1.17873 152.144   1
   0  -5   0 87.2399 255.127   1
   0   5  -1 134.844 225.760   1
   0  -5   1 168.202 231.292   1
   0   5   1 195.589 233.930   1
   0  -5  -1 299.841 298.306   1
   0  -5   2 38457.8 3607.65   1
   0  -5  -2 37490.0 2967.36   1
   0   5  -2 42828.1 3620.61   1
   0  -5   3 12976.3 2293.47   1
   0   5  -3 11968.7 2083.97   1
   0   5   3 3327.16 690.268   1
   0  -5  -3 5244.63 1125.67   1
   0   5  -4 92169.3 5645.58   1
   0  -5   4 94085.2 6166.17   1
   0  -5   5 286469. 11985.3   1
   0   5  -5 263263. 9767.60   1
   0   5  -6 771.668 543.649   1
   0  -5   6 821.150 374.496   1
   0   5  -7 30342.3 3580.51   1
   0  -5   7 31288.3 4153.52   1
   0  -5   8 3125.74 1180.95   1
   0   5  -8 3867.15 1287.44   1
   0  -5   9 62520.7 6604.21   1
   0   5  -9 66233.5 5996.70   1
   0  -5  10 38243.0 5283.78   1
   0   5 -10 43027.8 5073.59   1
   0  -5  11 4978.51 2617.68   1
   0   5 -11 3877.41 1504.71   1
   0  -5  13 117801. 11118.3   1
   0   5 -13 103990. 9000.48   1
   0  -5  14 16132.9 4313.13   1
   0   6   0 346609. 9861.55   1
   0  -6   0 353720. 11156.4   1
   0   6   1 208602. 7412.81   1
   0   6  -1 233283. 8167.88   1
   0  -6   1 238607. 9480.77   1
   0  -6  -1 233373. 8581.01   1
   0   6  -2 137.866 121.004   1
   0  -6   2-189.706 208.268   1
   0  -6  -2 204.242 152.357   1
   0   6   2 177.194 201.984   1
   0   6  -3 161241. 7757.81   1
   0  -6  -3 100199. 6255.74   1
   0   6  -4 147898. 7483.04   1
   0  -6   4 144828. 8543.29   1
   0   6  -5 3893.53 1233.17   1
   0  -6   5 4778.78 1618.28   1
   0  -6   6 95321.1 7514.14   1
   0   6  -6 98441.4 6637.84   1
   0  -6   7 60384.1 6154.61   1
   0   6  -7 63324.0 5630.65   1
   0   6  -8 11791.3 2568.32   1
   0  -6   8 12136.4 2828.63   1
   0  -6   9 14387.1 3217.33   1
   0   6  -9 17746.6 3286.74   1
   0  -6  10 45458.7 6153.99   1
   0   6 -10 57170.9 6304.27   1
   0  -6  11 75828.6 8026.59   1
   0   6 -11 79274.2 7477.01   1
   0  -6  12 146705. 12618.5   1
   0   6 -12 135104. 10301.8   1
   0  -6  13 71653.3 9326.11   1
   0   7   0-257.567 478.257   1
   0  -7   0-91.1250 500.258   1
   0  -7   1 18771.9 2990.65   1
   0  -7  -1 22406.3 3152.55   1
   0   7  -1 20505.1 2676.27   1
   0   7   1 20259.0 2521.94   1
   0   7  -2 47483.0 4254.24   1
   0  -7   2 50692.4 4982.73   1
   0  -7  -2 35335.7 4029.48   1
   0   7   2 45277.4 3800.56   1
   0   7   3 31275.1 2752.66   1
   0  -7   3 76400.4 6408.78   1
   0  -7  -3 47839.6 4951.85   1
   0   7  -3 76814.7 5650.33   1
   0  -7   4 304201. 13254.4   1
   0   7  -4 308592. 11731.2   1
   0  -7   5 81867.0 7150.02   1
   0   7  -5 84453.3 6575.23   1
   0  -7   6 924.952 965.558   1
   0   7  -6 1442.87 775.307   1
   0  -7   7 55725.9 6372.33   1
   0   7  -7 58243.3 5871.72   1
   0  -7   8 36927.7 5385.47   1
   0   7  -8 39853.5 5011.58   1
   0  -7   9 4059.57 1789.25   1
   0   7  -9 3585.33 1749.34   1
   0   7 -10 115107. 9492.48   1
   0  -7  10 97341.2 9493.95   1
   0  -7  11 28180.8 5410.64   1
   0   7 -11 28849.1 4844.02   1
   0  -7  12 133.851 399.630   1
   0  -8   0 6959.02 2099.68   1
   0   8   0 7624.78 1907.03   1
   0  -8  -1 5541.30 1794.86   1
   0   8   1 7951.38 1974.96   1
   0  -8   1 6511.88 1973.88   1
   0   8  -1 7372.99 1843.16   1
   0  -8   2 43109.9 4966.95   1
   0   8  -2 44733.8 4745.84   1
   0   8   2 36590.6 3822.10   1
   0   8  -3 121779. 8001.00   1
   0   8   3 112501. 6796.37   1
   0  -8   3 99046.4 7802.75   1
   0  -8  -4 17488.0 3491.79   1
   0  -8   4 37333.1 5037.30   1
   0   8   4 11562.2 1340.76   1
   0   8  -4 44266.8 4948.18   1
   0  -8   5 64041.2 6817.40   1
   0   8  -5 83977.1 7042.60   1
   0  -8   6 18551.6 3690.43   1
   0   8  -6 22089.8 3659.53   1
   0  -8   7 13890.3 3437.22   1
   0   8  -7 13770.2 3016.63   1
   0  -8   8 9004.83 2786.80   1
   0   8  -8 10464.2 2731.32   1
   0  -8   9 4714.65 2074.08   1
   0   8  -9 7149.50 2422.53   1
   0  -8  10-703.980 736.387   1
   0  -9   0 1118.45 1019.41   1
   0   9   0 274.428 173.800   1
   0  -9   1 51977.5 6229.92   1
   0  -9  -1 37008.3 5394.23   1
   0   9   1 52571.9 5275.11   1
   0   9  -1 55955.5 5637.48   1
   0  -9   2 7239.59 2192.25   1
   0  -9  -2 3880.46 1659.09   1
   0   9   2 3841.53 1435.68   1
   0   9  -2 7788.52 2330.46   1
   0   9   3 24117.9 3359.03   1
   0  -9  -3 16803.6 3497.58   1
   0   9  -3 29426.9 4242.95   1
   0  -9   3 25165.5 4192.37   1
   0  -9  -4 4100.21 2095.25   1
   0   9   4 6981.94 1445.97   1
   0   9  -4 12756.8 3115.51   1
   0  -9   4 10083.2 3131.47   1
   0   9  -5 3048.68 1602.91   1
   0  -9   5 1673.48 954.413   1
   0  -9   6 664.154 298.487   1
   0   9  -6 1023.04 829.631   1
   0  -9   7 3768.38 1818.52   1
   0   9  -7 7041.02 2487.27   1
   0   9  -8 6817.17 2456.78   1
   0  -9   8 6133.62 2563.31   1
   0  -9   9 85719.1 9773.53   1
   0  10   0 179948. 10804.8   1
   0 -10   0 117353. 11142.6   1
   0  10   1 26211.7 4201.67   1
   0 -10   1 16152.8 4093.83   1
   0 -10  -1 20105.8 4560.34   1
   0  10  -1 27506.0 4385.98   1
   0  10   2-126.705 418.899   1
   0 -10   2 813.962 1059.14   1
   0 -10  -2 285.551 634.658   1
   0  10  -2-321.083 713.586   1
   0 -10   3 17701.1 4018.41   1
   0  10   3 12530.6 2527.03   1
   0  10  -3 20037.2 3822.22   1
   0 -10   4 33679.8 6083.95   1
   0 -10  -4 19716.0 5251.24   1
   0  10   4 26153.4 3023.56   1
   0  10  -5 37697.4 5452.14   1
   0 -10   5 38890.5 6190.12   1
   0  10  -6 71736.4 7852.71   1
   0 -10   6 77967.8 9149.97   1
   0 -10   7 94303.7 10409.2   1
   0  10  -7 72957.4 8495.28   1
   0 -10   8 12597.3 4658.96   1
   0  11   0 489.516 734.587   1
   0 -11   0 262.862 738.674   1
   0 -11  -1 14549.1 3980.84   1
   0 -11   1 20481.1 4959.91   1
   0  11   1 25796.0 4635.88   1
   0  11  -1 28463.5 4826.14   1
   0  11   2 11643.0 2672.67   1
   0 -11  -2 12209.4 3602.41   1
   0 -11   2 9270.61 3730.88   1
   0  11  -2 15448.0 3783.76   1
   0 -11  -3 1638.61 1873.82   1
   0 -11   3 1457.51 1369.67   1
   0  11   3 1083.21 806.395   1
   0  11  -3 2734.10 1458.36   1
   0 -11  -4 22363.8 5914.67   1
   0 -11   4 28335.6 6434.20   1
   0  11   4 13468.9 2374.91   1
   0 -11   5 10674.4 3764.99   1
   0  11  -5 16818.8 4343.35   1
   0 -11   6 25431.0 5849.67   1
   0  12   0-716.370 1080.95   1
   0 -12   0 7.04230 1480.19   1
   0  12  -1 60950.0 8052.11   1
   0 -12  -1 37191.2 7223.12   1
   0 -12   1 30799.7 7042.83   1
   0  12   1 57237.5 6787.71   1
   0 -12  -2 431.004 831.957   1
   0 -12   2 711.368 1003.39   1
   0  12   2 307.512 373.176   1
   0  12  -2 750.202 1056.02   1
   0  12  -3 1690.67 1415.77   1
   0 -12  -3 947.543 1140.81   1
   0  12   3 1981.67 1050.60   1
   0  12   4 1173.81 500.556   1
   0  12  -4 232.641 1191.05   1
   0 -12   5 10657.7 4171.13   1
   0 -13   0 1659.20 1680.25   1
   0  13   0-336.560 341.799   1
   0 -13  -1-214.390 513.213   1
   0  13  -1 1911.98 1191.39   1
   0  13   1 934.924 1045.18   1
   0 -13   1 2043.54 2444.66   1
   0 -13   2 7637.41 3624.08   1
   0  13  -2 15334.4 4163.53   1
   0  13   2 8256.74 2295.10   1
   0  13   3 27752.8 4328.78   1
   0 -13   3 31086.8 8968.25   1
   0 -14   0 327.952 1856.99   1
   0  14   0 3049.65 1521.25   1
   0 -14   1 5810.33 3525.62   1
   0  14   1 9302.14 2596.70   1
   0  14  -1 9626.43 3287.55   1
   0 -14   2 7612.89 3883.78   1
   0  14   2 5974.31 2030.83   1
  -1   0  19 714.997 1593.32   1
  -1   0  18 102557. 10749.2   1
  -1   0  17 1218.88 1281.31   1
  -1   0  16 6998.53 2325.09   1
  -1   0  15 481.138 608.974   1
  -1   0  14 126789. 8066.77   1
  -1   0  13 28.7737 343.275   1
  -1   0  12 18441.6 2924.77   1
  -1   0  11-365.179 505.260   1
  -1   0  10 1804.06 1004.60   1
  -1   0   9 28.6249 269.615   1
  -1   0   8 66835.6 4468.39   1
  -1   0  -6 532863. 15604.1   1
  -1   0  -7 20.7260 215.288   1
  -1   0  -8 171570. 7504.80   1
   1   0   9 15592.8 6350.29   1
  -1   0  -9-63.4724 211.402   1
  -1   0 -10 67687.3 4878.60   1
   1   0  10 94279.2 12694.4   1
   1   0  11 3546.48 3344.82   1
  -1   0 -11-45.8330 97.7635   1
  -1   0 -12 1555.71 607.790   1
   1   0  12 4541.05 3608.54   1
  -1   0 -13 382.528 116.564   1
   1   0  13-78.7840 1241.49   1
   1   0  14 107467. 16415.0   1
  -1   0 -14 107102. 6718.86   1
  -1   0 -15-149.434 657.497   1
  -1   0 -16 2652.64 1422.32   1
  -1   0 -17 7907.98 3107.88   1
  -1  -1  19 8596.35 3465.23   1
  -1  -1  18 1608.91 825.866   1
  -1   1  18 858.095 1246.66   1
  -1   1  17 8679.49 2831.79   1
  -1  -1  17 7621.97 2698.73   1
  -1  -1  16 2236.49 1214.41   1
  -1   1  16 3040.00 1553.72   1
  -1  -1  15 52333.1 5862.45   1
  -1   1  15 56361.9 6177.22   1
  -1  -1  14 59269.4 5866.99   1
  -1   1  14 56766.7 5072.04   1
  -1  -1  13 40955.4 4732.25   1
  -1   1  13 42569.0 4429.04   1
  -1   1  12 13461.3 2302.30   1
  -1  -1  12 13015.6 2555.66   1
  -1   1  11 4543.96 1270.91   1
  -1  -1  11 4227.28 1392.99   1
  -1   1  10 219257. 8331.85   1
  -1  -1  10 219493. 9291.36   1
  -1  -1   9 106541. 5976.03   1
  -1   1   9 112421. 5446.91   1
  -1  -1   8 2020.55 879.506   1
  -1   1   8 1764.88 735.954   1
  -1  -1   7 222920. 8480.94   1
  -1   1  -5 48784.2 5036.22   1
   1  -1   6 4654.23 2774.45   1
  -1   1  -6 2804.43 1046.24   1
   1  -1   7 24439.6 5691.06   1
  -1   1  -7 23454.7 2860.62   1
  -1  -1  -7 18030.3 2555.90   1
  -1   1  -8 39530.4 3853.10   1
  -1  -1  -8 39413.0 3323.34   1
   1  -1   8 38511.4 7535.83   1
  -1   1  -9 126745. 6390.18   1
  -1  -1  -9 111265. 5108.42   1
   1  -1   9 115896. 13347.1   1
  -1   1 -10 107779. 6627.22   1
  -1  -1 -10 112295. 5815.83   1
   1  -1  10 122685. 14877.0   1
  -1   1 -11 14131.3 2449.54   1
   1  -1  11 14466.9 5464.76   1
  -1  -1 -11 13363.1 2029.29   1
  -1   1 -12 14814.3 2419.02   1
   1  -1  12 16514.2 6072.30   1
  -1  -1 -12 14601.7 2196.38   1
  -1   1 -13 6977.22 1718.17   1
   1  -1  13 4232.11 2589.24   1
  -1  -1 -13 6210.90 1460.73   1
   1  -1  14 43544.0 10822.6   1
  -1  -1 -14 46907.2 4077.23   1
  -1   1 -14 43905.9 4667.29   1
   1  -1  15 34821.4 10182.2   1
  -1  -1 -15 33703.3 3923.13   1
  -1   1 -15 32150.8 3947.13   1
   1  -1  16 6375.88 4801.07   1
  -1  -1 -16 4027.95 1783.49   1
  -1   1 -16 591.151 663.758   1
   1  -1  17 10263.3 5588.65   1
  -1   1 -17 22620.6 3924.50   1
  -1   1 -18 16531.2 3443.67   1
  -1  -2  18 2066.09 1412.50   1
  -1   2  17 29989.2 5189.20   1
  -1  -2  17 28051.7 5243.93   1
  -1   2  16 1007.81 1328.29   1
  -1  -2  16 819.819 639.040   1
  -1   2  15 3950.37 1410.73   1
  -1  -2  15 5372.16 2016.19   1
  -1  -2  14 1667.13 948.424   1
  -1   2  14 1486.15 992.798   1
  -1   2  13 18072.8 2609.61   1
  -1  -2  13 15417.1 2972.82   1
  -1  -2  12 29215.3 4064.88   1
  -1   2  12 27926.3 3145.95   1
   1   2 -12 37807.9 4796.31   1
  -1   2  11 77881.1 4959.76   1
  -1  -2  11 68023.5 5794.35   1
  -1  -2  10 29007.2 3548.59   1
   1   2 -10 32800.3 3975.96   1
  -1   2  10 28524.5 2770.77   1
  -1  -2   9 35601.5 3846.27   1
   1   2  -9 38706.9 4140.58   1
  -1   2   9 33900.6 2785.55   1
   1   2  -8 83848.4 5715.93   1
  -1  -2   8 71133.7 4893.16   1
   1   2  -7 145249. 7348.26   1
  -1  -2   7 141603. 6856.76   1
  -1  -2   6 90492.1 5405.49   1
   1  -2   4 1211.44 1414.48   1
  -1   2  -4-296.511 495.762   1
  -1   2  -5 73298.5 5717.84   1
   1  -2   5 77754.0 9711.64   1
  -1   2  -6 80703.8 5494.48   1
   1  -2   6 57360.2 7852.63   1
  -1   2  -7 208471. 9028.46   1
   1  -2   7 192862. 14898.8   1
  -1   2  -8 36894.0 3649.13   1
  -1  -2  -8 35126.6 2862.21   1
   1  -2   8 35115.1 6085.88   1
  -1  -2  -9 11497.6 1535.88   1
   1  -2   9 8741.35 3254.70   1
  -1   2  -9 10857.7 2022.49   1
  -1  -2 -10 385.137 235.742   1
  -1   2 -10-262.890 719.366   1
   1  -2  10 2381.81 3042.45   1
  -1  -2 -11 84928.9 4754.91   1
  -1   2 -11 87522.8 6329.70   1
   1  -2  11 89230.8 11872.6   1
  -1  -2 -12 48847.1 3810.54   1
   1  -2  12 46526.4 8938.29   1
  -1   2 -12 48040.1 4697.16   1
  -1   2 -13 177170. 9676.52   1
   1  -2  13 168830. 19444.5   1
  -1  -2 -13 172886. 7055.45   1
  -1   2 -14 3292.60 1208.55   1
   1  -2  14 906.818 2015.29   1
  -1  -2 -14 3341.86 1022.17   1
  -1   2 -15 13435.7 2605.84   1
   1  -2  15 12758.7 6495.46   1
  -1  -2 -15 16031.4 2647.91   1
  -1   2 -16 9917.46 2484.46   1
   1  -2  16 66534.5 19816.5   1
   1  -2  17 18875.6 7820.92   1
  -1   2 -17 27269.2 4421.57   1
   1  -2  18 8647.11 5599.14   1
  -1  -3  17 27611.1 5382.76   1
  -1  -3  16 135162. 11299.1   1
  -1   3  16 155789. 11167.6   1
  -1  -3  15 31949.3 5157.76   1
  -1   3  15 34382.5 4425.27   1
   1   3 -14 2211.34 1354.54   1
  -1  -3  14 1602.07 1175.63   1
  -1   3  14 1681.30 719.753   1
  -1  -3  13-252.077 524.948   1
   1   3 -13-298.544 772.060   1
  -1   3  13 97.7164 305.737   1
  -1   3  12 1032.93 493.646   1
  -1  -3  12 1583.40 1057.97   1
   1   3 -12 948.252 630.595   1
  -1   3  11 12236.6 1880.85   1
  -1  -3  11 11404.7 2471.37   1
   1   3 -11 12739.2 2647.95   1
  -1  -3  10 34695.3 4045.40   1
   1   3 -10 40053.5 4377.54   1
  -1   3  10 36543.9 3035.83   1
  -1   3   9 56480.7 3247.33   1
  -1  -3   9 58782.6 5069.38   1
   1   3  -9 61358.8 5143.99   1
  -1  -3   8 219773. 9357.71   1
   1   3  -8 222462. 9210.61   1
   1   3  -7 32180.3 3474.24   1
  -1  -3   7 29238.9 3030.67   1
   1   3  -6 85001.7 5376.59   1
  -1  -3   6 85577.6 5356.63   1
   1   3  -5 7494.89 1663.35   1
  -1  -3   5 7857.19 1619.01   1
   1   3  -4 555404. 12870.1   1
  -1  -3   4 570119. 13401.6   1
  -1   3  -3 60370.5 5620.63   1
   1  -3   3 50063.7 7673.03   1
  -1   3  -4 365038. 12765.1   1
   1  -3   4 274734. 17992.2   1
  -1   3  -5 187543. 8636.73   1
   1  -3   5 149573. 12480.7   1
  -1   3  -6 40575.2 4082.98   1
   1  -3   6 38608.2 6091.98   1
  -1   3  -7 134949. 7290.61   1
   1  -3   7 177949. 13076.7   1
  -1   3  -8 144606. 7395.27   1
  -1  -3  -8 149455. 5302.44   1
  -1  -3  -9 11405.7 1297.79   1
   1  -3   9 15007.4 4693.03   1
  -1   3  -9 11375.4 2327.06   1
  -1  -3 -10 11845.9 1523.02   1
  -1   3 -10 12481.9 2409.84   1
  -1  -3 -11 11890.0 1588.68   1
  -1   3 -11 13097.4 2691.80   1
   1  -3  11 16842.4 4727.40   1
  -1   3 -12 28722.3 3706.30   1
   1  -3  12 31999.1 6966.44   1
  -1  -3 -12 26557.2 2447.02   1
  -1   3 -13 21887.9 3381.96   1
   1  -3  13 23527.6 6465.19   1
  -1  -3 -13 24547.5 2621.28   1
   1  -3  14 2490.54 1686.96   1
  -1   3 -14 4502.24 1464.80   1
  -1  -3 -14 4756.64 1248.30   1
  -1   3 -15 10104.4 2361.98   1
   1  -3  15 11608.7 5747.32   1
   1  -3  16 37725.6 11305.5   1
  -1   3 -16 47054.1 5590.66   1
   1  -3  17 4564.33 4422.78   1
  -1   4  15 2886.85 1092.85   1
  -1  -4  15 7356.29 3411.90   1
  -1   4  14 23887.6 3369.87   1
   1   4 -14 20088.5 3840.45   1
  -1  -4  14 21714.3 3668.30   1
  -1  -4  13 4475.78 1584.35   1
   1   4 -13 3103.79 1254.35   1
  -1   4  13 2849.91 884.682   1
  -1  -4  12 123663. 8677.97   1
  -1   4  12 125602. 5423.08   1
  -1   4  11 1494.58 590.239   1
  -1  -4  11 2999.18 1308.06   1
   1   4 -11 3047.52 1211.75   1
  -1  -4  10 2045.53 1172.84   1
   1   4 -10 1533.37 914.064   1
  -1  -4   9 73603.5 5887.66   1
  -1   4   9 61343.0 3084.11   1
   1   4  -9 80028.1 6113.45   1
  -1  -4   8 48899.4 4586.23   1
   1   4  -8 49968.4 4618.85   1
  -1  -4   7 7713.09 1783.26   1
   1   4  -7 7185.58 1691.19   1
  -1  -4   6 91.6896 251.932   1
   1   4  -6 229.875 294.594   1
   1   4  -5 52107.9 4200.72   1
  -1  -4   5 49235.1 4110.04   1
   1   4  -4 26910.6 2894.37   1
  -1  -4   4 26477.7 2949.65   1
   1   4  -3 26845.4 2850.77   1
  -1  -4   3 26689.1 2890.40   1
  -1   4  -1 17223.0 3263.92   1
   1  -4   2 3446.27 2097.43   1
  -1   4  -2 3537.46 1427.82   1
  -1   4  -3 147185. 8204.21   1
   1  -4   3 82065.5 10369.8   1
  -1   4  -4 112785. 6859.38   1
   1  -4   4 85483.9 9590.64   1
  -1   4  -5 220137. 9853.78   1
   1  -4   5 234204. 15106.3   1
  -1   4  -6 46021.0 4391.50   1
   1  -4   6 59087.6 7733.36   1
  -1   4  -7 115365. 6710.76   1
   1  -4   7 127150. 11800.5   1
  -1   4  -8 172212. 8777.21   1
  -1  -4  -8 151213. 4770.66   1
   1  -4   9 2012.38 2446.89   1
  -1   4  -9-133.304 528.015   1
  -1  -4  -9 95.1144 74.6357   1
   1  -4  10 4089.89 2832.54   1
  -1  -4 -10 1484.88 448.407   1
  -1   4 -10 2138.32 1128.15   1
  -1  -4 -11 1712.95 470.474   1
   1  -4  11 5257.38 3192.76   1
  -1   4 -11 2908.24 1175.69   1
  -1   4 -12 146306. 8965.97   1
  -1  -4 -12 134865. 5408.67   1
  -1   4 -13 9474.50 2235.63   1
  -1  -4 -13 7453.99 1380.69   1
   1  -4  13 8824.23 3838.76   1
  -1   4 -14 10446.0 2338.46   1
   1  -4  14 8872.66 3653.27   1
   1  -4  15 15899.2 5872.26   1
  -1  -5  14 290.555 785.697   1
  -1  -5  13 112689. 8791.95   1
   1   5 -13 122025. 8871.73   1
  -1   5  13 90763.0 5896.60   1
  -1  -5  12 5872.69 1777.60   1
   1   5 -12 5814.98 1795.84   1
  -1   5  12 4165.41 1026.02   1
  -1  -5  11 101599. 7847.83   1
   1   5 -11 115345. 8153.26   1
  -1   5  10 72.2221 154.113   1
  -1  -5  10-432.547 605.373   1
   1   5 -10-368.995 196.292   1
  -1  -5   9 68376.9 5957.74   1
   1   5  -9 81302.7 6636.26   1
  -1  -5   8 50297.1 4850.65   1
   1   5  -8 63913.2 6065.39   1
  -1  -5   7 54197.6 4828.65   1
   1   5  -7 66795.7 5888.03   1
  -1  -5   6 368.398 217.452   1
   1   5  -6 141.514 157.980   1
  -1  -5   5 42738.0 3784.78   1
   1   5  -5 42292.7 3895.11   1
   1   5  -4 220271. 8660.01   1
  -1  -5   4 228345. 8293.65   1
   1   5  -3 276111. 9455.10   1
  -1  -5   3 272820. 9188.79   1
   1   5  -2-88.6641 83.8980   1
  -1  -5   2 2.99489 185.525   1
  -1   5   1 273574. 12544.4   1
  -1  -5   1 312332. 9150.22   1
  -1   5   0 68923.7 6076.30   1
  -1  -5   0 91712.9 4935.40   1
  -1   5  -1 192962. 9128.63   1
  -1   5  -2 327.451 471.049   1
   1  -5   2-1569.21 1784.79   1
  -1   5  -3 332228. 11941.9   1
  -1   5  -4 45298.3 4643.45   1
   1  -5   4 45134.9 6952.68   1
  -1   5  -5 31493.0 3584.31   1
   1  -5   5 38085.6 6400.26   1
   1  -5   6-33.2366 1108.71   1
  -1   5  -6 509.391 581.993   1
  -1   5  -7 47279.9 4697.72   1
   1  -5   7 55558.0 8020.60   1
  -1   5  -8 19238.9 3182.48   1
   1  -5   8 25975.4 5923.40   1
  -1   5  -9 133737. 8640.12   1
   1  -5   9 162629. 15435.8   1
  -1   5 -10 3389.35 1339.80   1
  -1  -5 -10 1385.44 354.194   1
   1  -5  10 5085.06 2583.06   1
  -1   5 -11 38608.4 4581.27   1
   1  -5  11 46196.9 8584.75   1
  -1   5 -12 4548.25 1399.02   1
   1  -5  12 4343.32 2401.72   1
  -1   5 -13 27232.6 4054.77   1
   1  -5  13 29865.4 7485.16   1
   1  -5  14-1846.36 1948.07   1
  -1  -6  13 27713.0 4429.13   1
  -1  -6  12 986.814 889.861   1
   1   6 -12-59.1820 395.650   1
  -1  -6  11-378.644 533.501   1
   1   6 -11 482.957 564.410   1
  -1  -6  10 9644.21 2438.10   1
   1   6 -10 14791.4 3255.28   1
  -1  -6   9 21625.2 3552.01   1
   1   6  -9 28512.9 4400.60   1
  -1  -6   8 10265.7 2382.91   1
   1   6  -8 14732.3 2953.29   1
  -1  -6   7 72168.8 5854.28   1
   1   6  -7 96716.5 7373.95   1
  -1  -6   6 67485.4 5656.42   1
   1   6  -6 87631.8 7055.74   1
  -1  -6   5 168535. 8429.59   1
   1   6  -5 191105. 9069.97   1
  -1  -6   4 1385.25 828.149   1
  -1   6   4 898.207 655.169   1
   1   6  -4 1853.79 795.738   1
  -1  -6   3 70958.8 5090.80   1
   1   6  -3 80649.8 5405.32   1
  -1  -6   2 4101.14 1159.43   1
  -1   6   2 2689.15 940.077   1
   1   6  -2 4406.24 1250.46   1
  -1  -6   1 2742.22 892.316   1
  -1   6   1 1394.39 824.436   1
  -1  -6   0 846.632 506.098   1
  -1   6   0 776.754 535.938   1
  -1   6  -1 116131. 7181.36   1
  -1  -6  -1 110657. 5201.51   1
  -1   6  -2 60486.1 5355.11   1
  -1  -6  -2 55395.8 3529.67   1
  -1   6  -3 101311. 6878.22   1
  -1  -6  -3 97666.7 4344.30   1
   1  -6   4 9311.84 3316.01   1
  -1   6  -4 7289.03 1784.22   1
  -1  -6  -4 6411.87 992.205   1
  -1   6  -5 97484.4 6740.18   1
   1  -6   5 106456. 11369.7   1
  -1  -6  -5 76902.8 3182.89   1
  -1   6  -6 23355.0 3603.80   1
  -1  -6  -6 11366.5 1009.92   1
   1  -6   6 22793.3 5617.86   1
  -1   6  -7 95485.5 7360.81   1
   1  -6   7 115115. 12867.4   1
  -1   6  -8 181.496 294.319   1
   1  -6   8 1733.04 1697.86   1
  -1   6  -9 3305.28 1344.79   1
   1  -6   9 7738.96 3843.43   1
  -1   6 -10 20287.4 3574.59   1
   1  -6  10 24611.9 6447.70   1
   1  -6  11 22633.8 6738.77   1
  -1   6 -11 21547.7 3585.81   1
  -1   6 -12 1036.80 730.658   1
   1  -6  12 2455.39 2195.12   1
   1  -6  13 21797.5 6018.89   1
  -1  -7  12 1067.26 1040.64   1
  -1  -7  11 14186.2 3025.49   1
  -1  -7  10 98362.1 8010.30   1
   1   7 -10 128798. 10105.3   1
  -1  -7   9 1543.69 469.653   1
   1   7  -9 1414.03 1249.16   1
  -1  -7   8 32307.0 4384.57   1
   1   7  -8 58327.7 6809.43   1
  -1  -7   7 50820.9 5317.04   1
  -1   7   7 26657.3 1860.76   1
  -1  -7   6 9542.04 2194.84   1
  -1   7   6 6872.03 1210.59   1
   1   7  -6 12170.6 2696.61   1
  -1  -7   5 48512.5 4754.36   1
  -1   7   5 46127.4 3499.17   1
  -1  -7   4 33680.8 3832.87   1
  -1   7   4 33663.0 3281.82   1
   1   7  -4 38687.8 4159.23   1
  -1  -7   3 2237.08 1107.85   1
   1   7  -3 2561.84 1100.91   1
  -1   7   3 1306.44 702.981   1
  -1  -7   2 105232. 6343.80   1
  -1   7   2 109474. 6563.68   1
  -1  -7   1 7068.78 1601.15   1
   1   7  -1 7017.79 1754.09   1
  -1   7   1 8796.08 1946.27   1
  -1  -7   0 70680.5 4832.92   1
  -1   7   0 79518.5 5846.26   1
  -1  -7  -1 60988.9 4181.29   1
   1  -7   1 47308.9 8977.39   1
  -1  -7  -2 92702.2 4888.55   1
  -1   7  -2 105228. 6601.92   1
  -1  -7  -3-199.876 240.417   1
  -1   7  -3 297.790 317.786   1
   1  -7   3-274.221 390.754   1
  -1  -7  -4 26247.8 2220.23   1
  -1   7  -4 28534.2 3932.79   1
   1  -7   4 35617.8 6598.91   1
  -1  -7  -5 14059.9 1456.27   1
   1  -7   5 19676.3 5186.49   1
  -1   7  -5 15183.3 3023.98   1
  -1  -7  -6 824.140 282.876   1
  -1   7  -6 1535.98 1016.97   1
   1  -7   6 549.685 321.637   1
  -1   7  -7 17990.5 3351.72   1
   1  -7   7 20229.5 5686.72   1
  -1   7  -8 25374.9 4006.07   1
   1  -7   8 34688.1 7994.37   1
  -1   7  -9 2104.86 1233.61   1
   1  -7   9 5799.20 3642.89   1
  -1   7 -10 30980.0 4549.55   1
   1  -7  10 35332.2 8029.29   1
   1  -7  11 43571.4 9408.11   1
  -1  -8  10 22148.1 3877.41   1
  -1  -8   9 8243.95 2263.71   1
   1   8  -9 8834.46 2664.45   1
  -1  -8   8 36673.5 4797.38   1
   1   8  -8 47210.5 6078.40   1
  -1   8   7 596.364 351.275   1
  -1  -8   7 614.945 326.226   1
   1   8  -7 473.624 534.547   1
  -1   8   6 8088.59 1339.03   1
  -1  -8   6 12113.3 2661.82   1
  -1  -8   5 297.577 725.142   1
  -1   8   5 744.336 598.231   1
   1   8  -5 668.194 687.765   1
  -1  -8   4 26410.2 3584.10   1
  -1   8   4 26218.6 2927.57   1
   1   8  -4 33823.6 4217.30   1
  -1  -8   3 100254. 6878.62   1
  -1   8   3 92224.6 5639.68   1
  -1  -8   2 13268.7 2311.17   1
  -1   8   2 11999.9 2062.59   1
   1   8  -2 16801.8 2739.88   1
  -1  -8   1 75474.5 5605.58   1
  -1   8   1 86810.4 5919.52   1
  -1  -8   0 42427.3 3911.37   1
  -1   8   0 44043.3 4398.41   1
   1  -8   0 36426.3 8100.65   1
  -1  -8  -1 50551.9 4075.46   1
  -1   8  -1 49607.4 5052.85   1
   1  -8   2 8338.02 4061.69   1
  -1  -8  -2 7346.84 1458.85   1
  -1   8  -2 5562.96 1979.74   1
  -1  -8  -3 6597.41 1316.06   1
  -1   8  -3 6031.71 1990.23   1
   1  -8   3 4737.30 2769.15   1
  -1  -8  -4 455.423 344.245   1
  -1   8  -4 549.265 599.770   1
   1  -8   4 205.190 689.692   1
  -1   8  -5 17229.7 3381.98   1
  -1  -8  -5 13909.6 1623.63   1
   1  -8   5 21751.2 5810.11   1
  -1   8  -6 100035. 8035.04   1
  -1  -8  -6 81671.7 3726.09   1
   1  -8   6 112715. 13077.6   1
  -1   8  -7 66905.2 6569.95   1
   1  -8   7 67474.9 10834.1   1
  -1   8  -8-20.3637 278.614   1
   1  -8   8-605.271 1267.01   1
  -1   8  -9 53685.2 6258.16   1
   1  -8   9 57392.2 10325.1   1
   1  -8  10 3747.35 2938.83   1
  -1  -9   9 72337.8 7017.76   1
  -1  -9   8 839.981 708.300   1
   1   9  -8 675.646 874.385   1
  -1  -9   7 50662.5 5682.45   1
   1   9  -7 65030.8 6765.95   1
  -1   9   6 1366.32 593.486   1
  -1  -9   6 1214.08 702.214   1
   1   9  -6 1783.84 1121.92   1
  -1   9   5 83030.3 5199.58   1
  -1  -9   5 89748.9 7354.10   1
  -1   9   4-47.2722 181.097   1
  -1  -9   4 240.459 504.507   1
   1   9  -4 475.988 599.879   1
  -1   9   3 99711.9 6359.84   1
  -1  -9   3 98051.2 7201.94   1
  -1   9   2 1154.34 650.231   1
  -1  -9   2 5012.86 1876.54   1
   1   9  -2 3134.69 1472.91   1
  -1   9   1 48.0748 297.801   1
  -1  -9   1 971.327 645.447   1
   1   9  -1-142.996 445.210   1
  -1   9   0 5343.23 1679.22   1
  -1  -9   0 5640.95 1614.05   1
   1  -9   0 4310.05 2461.01   1
  -1   9  -1 2125.92 1112.96   1
  -1  -9  -1 3129.07 1093.07   1
   1  -9   1 2587.22 2300.87   1
  -1   9  -2 99.5590 358.338   1
  -1  -9  -2-111.629 456.771   1
  -1   9  -3 44824.8 5345.30   1
  -1  -9  -3 40773.2 3476.83   1
  -1   9  -4 883.689 717.275   1
   1  -9   4 1349.82 1396.06   1
  -1  -9  -4 1839.34 844.508   1
  -1   9  -5 52942.3 5959.07   1
  -1  -9  -5 55003.1 3939.47   1
   1  -9   5 63953.1 10223.1   1
  -1   9  -6 3202.50 1551.90   1
   1  -9   6 4104.97 2782.50   1
  -1  -9  -6 2675.41 820.146   1
  -1   9  -7 42128.6 5587.38   1
   1  -9   7 47378.3 9064.78   1
  -1  -9  -7 23296.7 2667.40   1
   1  -9   8 4064.34 3096.42   1
  -1   9  -8 2948.25 1385.87   1
   1  -9   9 11167.4 4839.75   1
  -1 -10   7 764.497 859.579   1
  -1  10   7-175.175 347.491   1
  -1 -10   6 48748.0 5631.49   1
   1  10  -6 52417.5 6156.54   1
  -1  10   6 36851.3 3345.00   1
  -1  10   5 46.3177 292.334   1
  -1 -10   5 675.812 667.300   1
   1  10  -5 1628.01 961.026   1
  -1  10   4 217.112 537.727   1
  -1 -10   4 336.059 327.664   1
   1  10  -4 150.635 266.732   1
  -1  10   3 1626.69 989.347   1
  -1 -10   3 1722.07 943.834   1
   1  10  -3 680.734 552.991   1
  -1  10   2 1542.72 783.469   1
  -1 -10   2 2206.60 997.416   1
   1  10  -2-422.325 1010.36   1
  -1  10   1 7274.62 2092.82   1
  -1 -10   1 7683.12 1912.26   1
   1  10  -1 7424.92 2224.40   1
  -1  10   0 9012.67 2345.43   1
   1 -10   0 5266.30 3417.71   1
  -1 -10   0 7569.58 1881.54   1
  -1  10  -1 34826.3 4757.30   1
  -1 -10  -1 34861.7 3859.59   1
  -1  10  -2 35671.7 4962.69   1
  -1 -10  -2 38523.8 3843.95   1
  -1  10  -3 37619.2 5190.42   1
  -1 -10  -3 37896.3 3863.66   1
  -1  10  -4 1366.30 1005.73   1
   1 -10   4-523.599 617.571   1
  -1 -10  -4 482.260 337.194   1
  -1 -10  -5 342.064 584.382   1
  -1  10  -5 483.105 695.289   1
   1 -10   5-1206.59 2321.21   1
  -1  10  -6 13052.3 3287.96   1
  -1 -10  -6 10981.1 2085.29   1
   1 -10   6 8784.52 4003.53   1
   1 -10   7 1073.22 2271.49   1
  -1 -11   6-1053.51 1011.10   1
  -1  11   6-130.234 270.557   1
   1  11  -5 2990.91 1609.28   1
  -1 -11   5 3418.82 1529.71   1
  -1  11   5 1225.62 521.831   1
  -1 -11   4 30393.1 4648.58   1
   1  11  -4 31693.9 4829.65   1
  -1  11   4 28998.7 3649.56   1
  -1  11   3 10836.2 2325.04   1
   1  11  -3 10354.3 2796.06   1
  -1 -11   3 9423.71 2654.67   1
  -1  11   2 12474.3 2662.17   1
   1  11  -2 16100.7 3497.08   1
  -1 -11   2 13495.8 2935.88   1
  -1  11   1 15883.3 3418.26   1
  -1 -11   1 20641.9 3441.54   1
  -1  11   0-689.834 690.116   1
  -1 -11   0 296.693 526.469   1
   1 -11   0 669.989 1257.28   1
  -1  11  -1 25618.6 4351.81   1
  -1 -11  -1 26684.8 3873.59   1
  -1  11  -2 103075. 8695.83   1
  -1 -11  -2 95730.3 7240.38   1
  -1  11  -3 1183.96 1115.97   1
   1 -11   3 775.751 1659.20   1
  -1 -11  -3 2371.18 988.161   1
  -1 -11  -4 4576.29 1458.95   1
  -1  11  -4 6690.60 2388.37   1
  -1  11  -5 2033.24 1329.27   1
   1 -11   5 4167.34 4402.15   1
   1 -11   6-367.068 1178.84   1
  -1  12   5 12343.5 2665.69   1
  -1 -12   4 3263.67 1524.88   1
  -1  12   4 3182.78 1355.35   1
   1  12  -3 620.767 796.696   1
  -1 -12   3 210.696 251.309   1
  -1  12   3 763.319 532.027   1
  -1  12   2 2673.80 1364.65   1
  -1 -12   2 5292.41 1987.59   1
  -1  12   1 3224.43 1428.65   1
  -1 -12   1 2384.97 1289.43   1
  -1  12   0 1111.25 1420.33   1
  -1 -12   0 2361.75 1287.33   1
  -1  12  -1 12607.9 3210.75   1
   1 -12   1 2550.45 2889.15   1
  -1 -12  -1 8329.43 2337.46   1
  -1 -12  -2 11160.1 2675.06   1
  -1  12  -2 12010.4 3178.26   1
   1 -12   2 2859.44 2929.12   1
  -1  12  -3 21259.5 4050.92   1
  -1 -12  -3 22078.0 3764.61   1
   1 -12   4 1324.92 1576.29   1
  -1  13   4 19562.5 3753.63   1
  -1 -13   3 31915.4 5628.11   1
  -1  13   3 40515.6 5692.96   1
  -1 -13   2 1449.87 1236.36   1
  -1  13   2 5832.09 2456.31   1
  -1 -13   1 14554.8 3686.51   1
  -1  13   1 12739.8 3254.09   1
  -1 -13   0 388.289 152.778   1
  -1  13   0 2271.94 2153.46   1
  -1  13  -1 14875.0 3955.37   1
   1 -13   1 4268.77 4995.35   1
  -1 -13  -1 13712.9 3407.09   1
  -1  13  -2-644.801 888.068   1
   1 -13   2 1185.48 2020.42   1
   1 -13   3-3382.66 3383.38   1
  -1 -14   2 512.879 825.548   1
  -1  14   2 214.312 650.498   1
  -1 -14   1-23.1616 379.944   1
  -1  14   1 535.037 1068.66   1
  -1 -14   0 25912.1 5479.47   1
  -1  14   0 38243.1 6379.59   1
  -2   0 -13 495.758 501.808   1
  -2   0 -14 154.480 93.4081   1
  -2   0 -15-502.062 725.056   1
  -2   0 -16 7627.53 2079.60   1
  -2   0 -17-681.816 974.507   1
  -2   1 -13 28866.5 3727.50   1
  -2   1 -14 292.105 570.427   1
  -2  -1 -14 91.1213 207.785   1
  -2  -1 -15 27022.1 3807.15   1
  -2   1 -15 27222.7 3969.50   1
  -2  -1 -16 10020.5 2217.45   1
  -2   1 -16 11909.0 2697.54   1
  -2   1 -17 20461.3 3625.44   1
  -2   2 -13 68524.3 5894.83   1
  -2   2 -14 9898.79 2492.89   1
  -2  -2 -14 11623.0 2086.24   1
  -2  -2 -15 15173.4 2645.86   1
  -2   2 -15 15281.7 3152.54   1
  -2   2 -16 1273.86 976.799   1
  -2   3 -12 927.699 950.962   1
  -2   3 -13 9628.76 2330.43   1
  -2   3 -14 23351.3 3836.07   1
  -2  -3 -14 24174.4 3018.25   1
  -2   3 -15 18674.5 3634.26   1
  -2   4 -12 10231.7 2229.98   1
  -2   4 -13 61087.1 6069.44   1
  -2   4 -14 54951.0 6038.05   1
  -2   5 -11 28492.2 3958.69   1
  -2   5 -12-380.815 747.008   1
  -2   6 -10 7210.74 2031.98   1
  -2   6 -11 46192.7 5333.93   1
   2  -7   9 5727.60 4869.92   1
  -2   7  -9 4317.73 1660.52   1
  -2   7 -10 13289.7 2991.35   1
   2  -7  10 14667.5 7566.76   1
   2  -7  11 7888.67 5324.41   1
   2  -8   8 29557.7 10415.6   1
  -2   8  -8 31915.5 4497.73   1
   2  -8   9 16371.6 7972.65   1
  -2   9  -7 1107.13 688.117   1
   2  -9   8 1496.38 3634.14   1
  -2  11  -4 40370.2 6244.90   1
   0   0   0    0.00    0.00   0
TITL p2_cr3_s2 in P2(1)/c
REM P2(1)/c (#14 in standard setting)
CELL 0.28960   4.526380   7.222050   9.344343  90.0000  91.0801  90.0000
ZERR    4.00   0.004006   0.000439   0.000268   0.0000   0.0130   0.0000
LATT  1
SYMM -x, y+1/2,-z+1/2
SFAC H B O Si Ca
UNIT 4.00 4.00 20.00 4.00 4.00
TREF
HKLF 4
END
;
_shelx_hkl_checksum              28397
loop_
_space_group_symop_operation_xyz
'x, y, z'
'-x, y+1/2, -z+1/2'
'-x, -y, -z'
'x, -y-1/2, z-1/2'
loop_
_atom_site_label
_atom_site_type_symbol
_atom_site_fract_x
_atom_site_fract_y
_atom_site_fract_z
_atom_site_U_iso_or_equiv
_atom_site_adp_type
_atom_site_occupancy
_atom_site_site_symmetry_order
_atom_site_calc_flag
_atom_site_refinement_flags_posn
Ca1 Ca 0.0048(6) 0.61006(10) 0.16960(6) 0.033(2) Uani 1 1 d .
Si1 Si 0.4871(10) 0.27955(15) 0.08120(9) 0.036(3) Uani 1 1 d .
B1 B 0.593(9) 0.0824(8) -0.1552(9) 0.03(2) Uani 1 1 d .
O1 O 0.253(2) 0.4221(4) 0.0307(3) 0.029(7) Uani 1 1 d .
O2 O 0.702(3) 0.1929(4) -0.0373(2) 0.029(6) Uani 1 1 d .
O3 O 0.704(2) 0.3409(4) 0.2136(2) 0.035(6) Uani 1 1 d .
O4 O 0.305(3) 0.1007(4) 0.1403(3) 0.030(7) Uani 1 1 d .
O5 O 0.262(6) 0.0902(7) -0.1614(7) 0.022(14) Uani 1 1 d D
H H 0.093(15) 0.056(11) -0.119(10) 0.06(4) Uiso 1 1 d D
loop_
_atom_site_aniso_label
_atom_site_aniso_U_11
_atom_site_aniso_U_22
_atom_site_aniso_U_33
_atom_site_aniso_U_23
_atom_site_aniso_U_13
_atom_site_aniso_U_12
Ca1 0.085(6) 0.0118(3) 0.0035(3) -0.00021(18) -0.0011(6) -0.0012(6)
Si1 0.094(9) 0.0109(4) 0.0019(3) -0.0003(2) -0.0016(8) 0.0012(8)
B1 0.08(7) 0.0085(14) 0.0036(14) 0.0000(11) -0.005(9) 0.005(7)
O1 0.07(2) 0.0139(9) 0.0050(8) -0.0006(8) -0.003(2) 0.002(3)
O2 0.07(2) 0.0125(9) 0.0030(7) -0.0008(8) 0.000(2) 0.002(2)
O3 0.09(2) 0.0141(9) 0.0026(7) -0.0003(8) -0.002(2) -0.004(3)
O4 0.07(2) 0.0123(9) 0.0058(8) -0.0002(7) 0.003(2) 0.001(2)
O5 0.05(4) 0.0158(13) 0.0041(11) 0.0008(10) 0.003(6) 0.007(5)
loop_
_atom_type_symbol
_atom_type_description
_atom_type_scat_dispersion_real
_atom_type_scat_dispersion_imag
_atom_type_scat_source
O O 0.0056 0.0036 'International Tables Vol C Tables 4.2.6.8 and 6.1.1.4'
Si Si 0.0522 0.0431 'International Tables Vol C Tables 4.2.6.8 and 6.1.1.4'
B B 0.0004 0.0004 'International Tables Vol C Tables 4.2.6.8 and 6.1.1.4'
Ca Ca 0.1611 0.1926 'International Tables Vol C Tables 4.2.6.8 and 6.1.1.4'
H H 0.0000 0.0000 'International Tables Vol C Tables 4.2.6.8 and 6.1.1.4'
loop_
_geom_angle_atom_site_label_1
_geom_angle_atom_site_label_2
_geom_angle_atom_site_label_3
_geom_angle
_geom_angle_site_symmetry_1
_geom_angle_site_symmetry_3
O1 Ca1 O1 72.6(4) 3_565 .
O1 Ca1 O4 109.6(4) 3_565 2
O1 Ca1 O4 140.14(15) . 2
O1 Ca1 O2 84.8(3) 3_565 3_665
O1 Ca1 O2 76.2(2) . 3_665
O4 Ca1 O2 142.99(13) 2 3_665
O1 Ca1 O3 138.17(13) 3_565 2_655
O1 Ca1 O3 114.8(4) . 2_655
O4 Ca1 O3 90.4(2) 2 2_655
O2 Ca1 O3 59.81(15) 3_665 2_655
O1 Ca1 O3 76.6(2) 3_565 1_455
O1 Ca1 O3 84.2(3) . 1_455
O4 Ca1 O3 59.16(17) 2 1_455
O2 Ca1 O3 156.28(10) 3_665 1_455
O3 Ca1 O3 142.76(10) 2_655 1_455
O1 Ca1 O5 137.10(17) 3_565 4_566
O1 Ca1 O5 76.8(4) . 4_566
O4 Ca1 O5 76.8(6) 2 4_566
O2 Ca1 O5 116.2(7) 3_665 4_566
O3 Ca1 O5 82.2(3) 2_655 4_566
O3 Ca1 O5 71.0(5) 1_455 4_566
O1 Ca1 O5 79.4(3) 3_565 3_565
O1 Ca1 O5 140.7(3) . 3_565
O4 Ca1 O5 75.1(5) 2 3_565
O2 Ca1 O5 74.4(6) 3_665 3_565
O3 Ca1 O5 70.6(5) 2_655 3_565
O3 Ca1 O5 115.6(7) 1_455 3_565
O5 Ca1 O5 140.3(2) 4_566 3_565
O1 Ca1 B1 95.4(5) 3_565 4_466
O1 Ca1 B1 112.5(4) . 4_466
O4 Ca1 B1 29.0(2) 2 4_466
O2 Ca1 B1 171.0(5) 3_665 4_466
O3 Ca1 B1 116.0(2) 2_655 4_466
O3 Ca1 B1 30.27(19) 1_455 4_466
O5 Ca1 B1 69.4(9) 4_566 4_466
O5 Ca1 B1 96.8(9) 3_565 4_466
O1 Ca1 B1 111.6(2) 3_565 3_665
O1 Ca1 B1 96.8(6) . 3_665
O4 Ca1 B1 117.2(4) 2 3_665
O2 Ca1 B1 29.8(2) 3_665 3_665
O3 Ca1 B1 30.1(2) 2_655 3_665
O3 Ca1 B1 171.7(3) 1_455 3_665
O5 Ca1 B1 101.2(6) 4_566 3_665
O5 Ca1 B1 68.5(10) 3_565 3_665
B1 Ca1 B1 145.2(4) 4_466 3_665
O1 Ca1 Si1 23.23(16) 3_565 3_565
O1 Ca1 Si1 94.29(19) . 3_565
O4 Ca1 Si1 98.2(3) 2 3_565
O2 Ca1 Si1 81.8(2) 3_665 3_565
O3 Ca1 Si1 121.14(14) 2_655 3_565
O3 Ca1 Si1 86.59(19) 1_455 3_565
O5 Ca1 Si1 156.5(3) 4_566 3_565
O5 Ca1 Si1 56.3(3) 3_565 3_565
B1 Ca1 Si1 94.9(6) 4_466 3_565
B1 Ca1 Si1 101.5(4) 3_665 3_565
O1 Ca1 Si1 93.0(2) 3_565 .
O1 Ca1 Si1 21.98(15) . .
O4 Ca1 Si1 125.69(13) 2 .
O2 Ca1 Si1 85.6(2) 3_665 .
O3 Ca1 Si1 104.8(2) 2_655 .
O3 Ca1 Si1 80.8(2) 1_455 .
O5 Ca1 Si1 55.1(4) 4_566 .
O5 Ca1 Si1 159.1(5) 3_565 .
B1 Ca1 Si1 103.3(5) 4_466 .
B1 Ca1 Si1 97.0(6) 3_665 .
Si1 Ca1 Si1 115.55(7) 3_565 .
O1 Si1 O2 117.9(3) . .
O1 Si1 O3 116.9(3) . .
O2 Si1 O3 105.3(5) . .
O1 Si1 O4 106.4(6) . .
O2 Si1 O4 103.9(3) . .
O3 Si1 O4 105.0(3) . .
O1 Si1 Ca1 34.11(12) . 3_565
O2 Si1 Ca1 90.8(3) . 3_565
O3 Si1 Ca1 149.79(17) . 3_565
O4 Si1 Ca1 95.4(3) . 3_565
O1 Si1 Ca1 32.19(13) . .
O2 Si1 Ca1 148.20(14) . .
O3 Si1 Ca1 90.3(3) . .
O4 Si1 Ca1 98.3(4) . .
Ca1 Si1 Ca1 64.45(7) 3_565 .
O1 Si1 Ca1 95.9(3) . 3_665
O2 Si1 Ca1 36.45(16) . 3_665
O3 Si1 Ca1 93.0(3) . 3_665
O4 Si1 Ca1 140.2(2) . 3_665
Ca1 Si1 Ca1 84.85(6) 3_565 3_665
Ca1 Si1 Ca1 117.02(6) . 3_665
O1 Si1 Ca1 94.1(3) . 1_655
O2 Si1 Ca1 90.9(3) . 1_655
O3 Si1 Ca1 39.48(17) . 1_655
O4 Si1 Ca1 144.5(2) . 1_655
Ca1 Si1 Ca1 116.81(6) 3_565 1_655
Ca1 Si1 Ca1 83.70(6) . 1_655
Ca1 Si1 Ca1 62.41(7) 3_665 1_655
O1 Si1 Ca1 152.07(11) . 2_645
O2 Si1 Ca1 85.6(3) . 2_645
O3 Si1 Ca1 37.00(16) . 2_645
O4 Si1 Ca1 80.0(3) . 2_645
Ca1 Si1 Ca1 173.21(4) 3_565 2_645
Ca1 Si1 Ca1 120.90(5) . 2_645
Ca1 Si1 Ca1 95.56(14) 3_665 2_645
Ca1 Si1 Ca1 69.07(8) 1_655 2_645
O1 Si1 Ca1 89.7(3) . 2_545
O2 Si1 Ca1 136.52(16) . 2_545
O3 Si1 Ca1 88.4(3) . 2_545
O4 Si1 Ca1 33.0(2) . 2_545
Ca1 Si1 Ca1 97.39(15) 3_565 2_545
Ca1 Si1 Ca1 69.93(8) . 2_545
Ca1 Si1 Ca1 172.87(6) 3_665 2_545
Ca1 Si1 Ca1 121.77(5) 1_655 2_545
Ca1 Si1 Ca1 81.42(5) 2_645 2_545
O4 B1 O2 109.8(13) 3_655 .
O4 B1 O3 109.0(19) 3_655 4_565
O2 B1 O3 108.4(18) . 4_565
O4 B1 O5 111(2) 3_655 .
O2 B1 O5 110(2) . .
O3 B1 O5 108.5(11) 4_565 .
O4 B1 Ca1 52.0(11) 3_655 4_665
O2 B1 Ca1 119(2) . 4_665
O3 B1 Ca1 57.3(10) 4_565 4_665
O5 B1 Ca1 131.1(5) . 4_665
O4 B1 Ca1 122(2) 3_655 3_665
O2 B1 Ca1 53.1(10) . 3_665
O3 B1 Ca1 55.4(9) 4_565 3_665
O5 B1 Ca1 127.0(6) . 3_665
Ca1 B1 Ca1 85.9(11) 4_665 3_665
Si1 O1 Ca1 122.66(18) . 3_565
Si1 O1 Ca1 125.83(16) . .
Ca1 O1 Ca1 107.4(4) 3_565 .
B1 O2 Si1 122.4(18) . .
B1 O2 Ca1 97.1(11) . 3_665
Si1 O2 Ca1 119.11(15) . 3_665
B1 O3 Si1 122.2(16) 4_566 .
B1 O3 Ca1 94.5(8) 4_566 2_645
Si1 O3 Ca1 118.67(16) . 2_645
B1 O3 Ca1 92.4(9) 4_566 1_655
Si1 O3 Ca1 115.12(15) . 1_655
Ca1 O3 Ca1 109.5(4) 2_645 1_655
B1 O4 Si1 127.6(19) 3_655 .
B1 O4 Ca1 99.0(13) 3_655 2_545
Si1 O4 Ca1 124.08(19) . 2_545
B1 O5 Ca1 118.1(9) . 4_565
B1 O5 Ca1 121.4(9) . 3_565
Ca1 O5 Ca1 105.8(7) 4_565 3_565
B1 O5 H 146(7) . .
Ca1 O5 H 74(7) 4_565 .
Ca1 O5 H 80(6) 3_565 .
loop_
_geom_bond_atom_site_label_1
_geom_bond_atom_site_label_2
_geom_bond_distance
_geom_bond_site_symmetry_2
Ca1 O1 2.198(6) 3_565
Ca1 O1 2.200(7) .
Ca1 O4 2.285(8) 2
Ca1 O2 2.318(7) 3_665
Ca1 O3 2.377(6) 2_655
Ca1 O3 2.412(7) 1_455
Ca1 O5 2.424(12) 4_566
Ca1 O5 2.481(13) 3_565
Ca1 B1 2.86(3) 4_466
Ca1 B1 2.88(3) 3_665
Ca1 Si1 3.300(4) 3_565
Ca1 Si1 3.349(4) .
Si1 O1 1.546(9) .
Si1 O2 1.614(8) .
Si1 O3 1.627(7) .
Si1 O4 1.634(7) .
Si1 Ca1 3.300(4) 3_565
Si1 Ca1 3.409(4) 3_665
Si1 Ca1 3.435(4) 1_655
Si1 Ca1 3.465(4) 2_645
Si1 Ca1 3.475(4) 2_545
B1 O4 1.406(14) 3_655
B1 O2 1.441(12) .
B1 O3 1.45(2) 4_565
B1 O5 1.50(5) .
B1 Ca1 2.86(3) 4_665
B1 Ca1 2.88(3) 3_665
O1 Ca1 2.198(6) 3_565
O2 Ca1 2.318(7) 3_665
O3 B1 1.45(2) 4_566
O3 Ca1 2.377(6) 2_645
O3 Ca1 2.412(7) 1_655
O4 B1 1.407(14) 3_655
O4 Ca1 2.285(8) 2_545
O5 Ca1 2.424(12) 4_565
O5 Ca1 2.481(13) 3_565
O5 H 0.90(2) .
