#------------------------------------------------------------------------------
#$Date: 2019-11-24 06:02:49 +0200 (Sun, 24 Nov 2019) $
#$Revision: 236893 $
#$URL: file:///home/coder/svn-repositories/cod/cif/4/34/98/4349854.cif $
#------------------------------------------------------------------------------
#
# This file is available in the Crystallography Open Database (COD),
# http://www.crystallography.net/
#
# All data on this site have been placed in the public domain by the
# contributors.
#
data_4349854
loop_
_publ_author_name
'Gorelova, Liudmila A.'
'Pakhomova, Anna S.'
'Aprilis, Georgios'
'Dubrovinsky, Leonid S.'
'Krivovichev, Sergey V.'
_publ_section_title
;
 Pentacoordinated silicon in the high-pressure modification of datolite,
 CaBSiO4(OH)
;
_journal_issue                   7
_journal_name_full               'Inorganic Chemistry Frontiers'
_journal_page_first              1653
_journal_paper_doi               10.1039/C8QI00257F
_journal_volume                  5
_journal_year                    2018
_chemical_formula_sum            'B Ca H O5 Si'
_chemical_formula_weight         159.99
_space_group_crystal_system      monoclinic
_space_group_IT_number           14
_space_group_name_Hall           '-P 2ybc'
_space_group_name_H-M_alt        'P 1 21/c 1'
_atom_sites_solution_hydrogens   difmap
_audit_creation_method           SHELXL-2014/7
_audit_update_record
;
2018-03-21 deposited with the CCDC.
2018-05-04 downloaded from the CCDC.
;
_cell_angle_alpha                90
_cell_angle_beta                 90.27(8)
_cell_angle_gamma                90
_cell_formula_units_Z            4
_cell_length_a                   4.531(4)
_cell_length_b                   6.6870(5)
_cell_length_c                   9.252(5)
_cell_measurement_reflns_used    1057
_cell_measurement_temperature    298(2)
_cell_measurement_theta_max      17.324
_cell_measurement_theta_min      2.384
_cell_volume                     280.3(3)
_computing_structure_refinement  'SHELXL-2014/7 (Sheldrick, 2014)'
_diffrn_ambient_temperature      298(2)
_diffrn_measured_fraction_theta_full 0.338
_diffrn_measured_fraction_theta_max 0.203
_diffrn_measurement_device_type
'esperanto-CrysAlisPro-abstract goniometer imported esperanto images'
_diffrn_radiation_wavelength     0.2896
_diffrn_reflns_av_R_equivalents  0.0244
_diffrn_reflns_av_unetI/netI     0.0375
_diffrn_reflns_Laue_measured_fraction_full 0.338
_diffrn_reflns_Laue_measured_fraction_max 0.203
_diffrn_reflns_limit_h_max       6
_diffrn_reflns_limit_h_min       -6
_diffrn_reflns_limit_k_max       13
_diffrn_reflns_limit_k_min       -12
_diffrn_reflns_limit_l_max       14
_diffrn_reflns_limit_l_min       -15
_diffrn_reflns_number            1057
_diffrn_reflns_point_group_measured_fraction_full 0.338
_diffrn_reflns_point_group_measured_fraction_max 0.203
_diffrn_reflns_theta_full        10.007
_diffrn_reflns_theta_max         17.324
_diffrn_reflns_theta_min         2.384
_exptl_absorpt_coefficient_mu    1.291
_exptl_crystal_colour            colorless
_exptl_crystal_density_diffrn    3.791
_exptl_crystal_density_meas      ?
_exptl_crystal_density_method    none
_exptl_crystal_description       isosymmetric
_exptl_crystal_F_000             320
_exptl_crystal_size_max          0.010
_exptl_crystal_size_mid          0.010
_exptl_crystal_size_min          0.005
_refine_diff_density_max         0.495
_refine_diff_density_min         -0.649
_refine_diff_density_rms         0.137
_refine_ls_extinction_coef       0.06(13)
_refine_ls_extinction_expression Fc^*^=kFc[1+0.001xFc^2^\l^3^/sin(2\q)]^-1/4^
_refine_ls_extinction_method     'SHELXL-2014/7 (Sheldrick 2014'
_refine_ls_goodness_of_fit_ref   0.834
_refine_ls_hydrogen_treatment    refall
_refine_ls_matrix_type           full
_refine_ls_number_parameters     54
_refine_ls_number_reflns         520
_refine_ls_number_restraints     1
_refine_ls_restrained_S_all      0.833
_refine_ls_R_factor_all          0.0529
_refine_ls_R_factor_gt           0.0415
_refine_ls_shift/su_max          0.000
_refine_ls_shift/su_mean         0.000
_refine_ls_structure_factor_coef Fsqd
_refine_ls_weighting_details
'w=1/[\s^2^(Fo^2^)+(0.1514P)^2^] where P=(Fo^2^+2Fc^2^)/3'
_refine_ls_weighting_scheme      calc
_refine_ls_wR_factor_gt          0.1372
_refine_ls_wR_factor_ref         0.1532
_reflns_Friedel_coverage         0.000
_reflns_number_gt                437
_reflns_number_total             520
_reflns_threshold_expression     'I > 2\s(I)'
_cod_data_source_file            c8qi00257f2.cif
_cod_data_source_block           shelx_CCDC8
_cod_depositor_comments
;
The following automatic conversions were performed:

data item '_exptl_crystal_density_meas' value 'none' was changed to
'?' -- the value is perceived as not measured.

Automatic conversion script
Id: cif_fix_values 6909 2019-04-08 15:41:33Z antanas 
;
_cod_original_sg_symbol_H-M      'P 21/c'
_cod_database_code               4349854
_shelx_shelxl_version_number     2014/7
_shelx_space_group_comment
;
The symmetry employed for this shelxl refinement is uniquely defined
by the following loop, which should always be used as a source of
symmetry information in preference to the above space-group names.
They are only intended as comments.
;
_shelx_res_file
;

    shelx.res created by SHELXL-2014/7


TITL Dat_p3_cr1_s1 in P2(1)/c
REM P2(1)/c (#14 in standard setting)
CELL 0.28960   4.530790   6.687009   9.251774  90.0000  90.2739  90.0000
ZERR    4.00   0.003687   0.000505   0.005282   0.0000   0.0788   0.0000
LATT  1
SYMM -x, y+1/2,-z+1/2
SFAC O Si B Ca H
UNIT 20.00 4.00 4.00 4.00 4.00

L.S. 20
ACTA
BOND $H
HTAB
DFIX 0.90 0.02 H O5
TEMP 25.0
FMAP 2
PLAN 250
REM TWIN 1 0 0 0 1 0 0 0 -1
EADP O1 O2 O3 O4 O5
WGHT    0.151400
EXTI    0.058942
FVAR      12.32735
CA1   4   -0.000329    0.630780    0.180388    11.00000    0.01322    0.00613 =
         0.00722   -0.00021    0.00321   -0.00050
SI1   2    0.530872    0.322614    0.066070    11.00000    0.01005    0.00507 =
         0.00441   -0.00050    0.00058    0.00063
B1    3    0.587712    0.057325   -0.151307    11.00000    0.01009    0.00551 =
         0.00573   -0.00095    0.00194   -0.00017
O1    1    0.261738    0.461854    0.015981    11.00000    0.01158    0.00657 =
         0.00582    0.00039    0.00180    0.00076
O2    1    0.721818    0.177192   -0.038029    11.00000    0.01158    0.00657 =
         0.00582    0.00039    0.00180    0.00076
O3    1    0.710904    0.362943    0.215277    11.00000    0.01158    0.00657 =
         0.00582    0.00039    0.00180    0.00076
O4    1    0.308730    0.142127    0.130997    11.00000    0.01158    0.00657 =
         0.00582    0.00039    0.00180    0.00076
O5    1    0.268172    0.077712   -0.160786    11.00000    0.01158    0.00657 =
         0.00582    0.00039    0.00180    0.00076
H     5    0.204543    0.072923   -0.069064    11.00000    0.14104

HKLF 4

REM  Dat_p3_cr1_s1 in P2(1)/c
REM R1 =  0.0415 for     437 Fo > 4sig(Fo)  and  0.0529 for all     520 data
REM     54 parameters refined using      1 restraints

END

WGHT      0.0695      0.1281

REM Instructions for potential hydrogen bonds
EQIV $1 x-1, y, z
HTAB O5 O2_$1
EQIV $2 -x+1, -y, -z
HTAB O5 O2_$2
HTAB O5 O4

REM Highest difference peak  0.495,  deepest hole -0.649,  1-sigma level  0.137
Q1    1   0.2461  0.1394  0.2323  11.00000  0.05    0.47
Q2    1   0.5804  0.5624  0.1944  11.00000  0.05    0.46
Q3    1   0.1354  0.0056 -0.1126  11.00000  0.05    0.45
Q4    1   0.7893  0.1754 -0.0149  11.00000  0.05    0.44
Q5    1   0.6224  0.1475  0.2188  11.00000  0.05    0.43
Q6    1   0.0565  0.5200  0.0322  11.00000  0.05    0.42
Q7    1   0.0418  0.5021  0.1163  11.00000  0.05    0.42
Q8    1   0.0000  0.5000  0.0000  10.50000  0.05    0.41
Q9    1   0.3722  0.2246  0.0925  11.00000  0.05    0.41
Q10   1   0.7713  0.2945 -0.1150  11.00000  0.05    0.40
Q11   1   0.7463  0.2550  0.0324  11.00000  0.05    0.37
Q12   1   0.1533  0.1563  0.1026  11.00000  0.05    0.36
Q13   1  -0.0017  0.2022  0.1335  11.00000  0.05    0.36
Q14   1   0.9035  0.2829  0.0322  11.00000  0.05    0.36
Q15   1   0.5000  0.0000  0.0000  10.50000  0.05    0.36
Q16   1   0.1564  0.5370  0.0770  11.00000  0.05    0.36
Q17   1   0.0648  0.5155  0.2674  11.00000  0.05    0.35
Q18   1   0.1500  0.2428  0.2225  11.00000  0.05    0.35
Q19   1   0.2545  0.5811  0.1173  11.00000  0.05    0.35
Q20   1   0.0273  0.2043 -0.0067  11.00000  0.05    0.35
Q21   1   0.8410  0.2960  0.0028  11.00000  0.05    0.35
Q22   1   0.9077  0.4362  0.1489  11.00000  0.05    0.34
Q23   1  -0.0930  0.5590  0.2670  11.00000  0.05    0.34
Q24   1   0.9691  0.4159  0.2687  11.00000  0.05    0.34
Q25   1   0.9935  0.2644  0.0638  11.00000  0.05    0.34
Q26   1   0.5956 -0.0607 -0.2221  11.00000  0.05    0.32
Q27   1   0.2143  0.0220  0.0617  11.00000  0.05    0.32
Q28   1   0.2465  0.0657 -0.2582  11.00000  0.05    0.32
Q29   1   0.5170  0.4251  0.0622  11.00000  0.05    0.32
Q30   1   0.3056  0.0381  0.1106  11.00000  0.05    0.31
Q31   1   0.3679  0.0117 -0.3091  11.00000  0.05    0.31
Q32   1   0.3483  0.0539  0.0176  11.00000  0.05    0.31
Q33   1   0.2200  0.1386  0.0506  11.00000  0.05    0.31
Q34   1   0.5609  0.2823  0.1805  11.00000  0.05    0.31
Q35   1   0.0075  0.3585 -0.0124  11.00000  0.05    0.30
Q36   1   0.2451  0.1952 -0.1565  11.00000  0.05    0.29
Q37   1   0.4025  0.2958 -0.1473  11.00000  0.05    0.29
Q38   1   0.0421  0.0790  0.1261  11.00000  0.05    0.29
Q39   1   0.7790  0.2398  0.2185  11.00000  0.05    0.28
Q40   1   0.3226  0.3658 -0.0927  11.00000  0.05    0.28
Q41   1   0.7463  0.2236  0.1900  11.00000  0.05    0.28
Q42   1   0.8773  0.2848  0.1585  11.00000  0.05    0.28
Q43   1   0.3800  0.0272 -0.1314  11.00000  0.05    0.28
Q44   1   0.5893  0.4372  0.1701  11.00000  0.05    0.28
Q45   1   0.4369 -0.0987 -0.2805  11.00000  0.05    0.28
Q46   1   0.5245 -0.0750 -0.2460  11.00000  0.05    0.27
Q47   1   0.1766  0.2811  0.1042  11.00000  0.05    0.27
Q48   1   0.1338  0.1045 -0.1732  11.00000  0.05    0.27
Q49   1   0.6281  0.3436 -0.1308  11.00000  0.05    0.27
Q50   1   0.8244  0.3945  0.2454  11.00000  0.05    0.27
Q51   1   0.0609  0.5250  0.1825  11.00000  0.05    0.26
Q52   1   0.3720  0.5966  0.1802  11.00000  0.05    0.26
Q53   1   0.3401  0.4868  0.0845  11.00000  0.05    0.26
Q54   1   0.6884  0.3474 -0.0734  11.00000  0.05    0.26
Q55   1   0.1637  0.0024  0.0038  11.00000  0.05    0.25
Q56   1   0.4094  0.2219  0.2789  11.00000  0.05    0.24
Q57   1   0.6605  0.0760 -0.0536  11.00000  0.05    0.24
Q58   1   0.5972  0.1720  0.2703  11.00000  0.05    0.24
Q59   1   0.8142  0.1378 -0.0787  11.00000  0.05    0.24
Q60   1   0.5385  0.3215 -0.1726  11.00000  0.05    0.23
Q61   1   0.4465  0.2724 -0.0618  11.00000  0.05    0.23
Q62   1  -0.1579  0.5571  0.1132  11.00000  0.05    0.23
Q63   1   0.5734  0.0639 -0.0535  11.00000  0.05    0.23
Q64   1   0.6189  0.2175 -0.1251  11.00000  0.05    0.23
Q65   1   0.4678  0.3018 -0.1916  11.00000  0.05    0.23
Q66   1   0.5984  0.0563 -0.1134  11.00000  0.05    0.23
Q67   1   0.0868  0.1553 -0.2572  11.00000  0.05    0.22
Q68   1  -0.0579  0.7068  0.2477  11.00000  0.05    0.22
Q69   1   0.4693  0.0258 -0.1705  11.00000  0.05    0.22
Q70   1   0.7497  0.4878  0.1622  11.00000  0.05    0.22
Q71   1  -0.0194  0.5382  0.1558  11.00000  0.05    0.22
Q72   1   0.1520  0.4357 -0.0330  11.00000  0.05    0.22
Q73   1   0.7551  0.3640  0.3176  11.00000  0.05    0.21
Q74   1   0.5724  0.4009 -0.0345  11.00000  0.05    0.21
Q75   1   0.5081  0.2916 -0.0433  11.00000  0.05    0.21
Q76   1   0.0009  0.5916  0.3176  11.00000  0.05    0.21
Q77   1   0.3040  0.0624 -0.0651  11.00000  0.05    0.21
Q78   1   0.3742  0.2266  0.1590  11.00000  0.05    0.21
Q79   1   0.5985  0.4395  0.2482  11.00000  0.05    0.21
Q80   1  -0.0994  0.7337  0.1429  11.00000  0.05    0.20
Q81   1   0.3786  0.1205 -0.1218  11.00000  0.05    0.20
Q82   1   0.7868  0.5197  0.2689  11.00000  0.05    0.20
Q83   1   0.3151  0.3731  0.0890  11.00000  0.05    0.19
Q84   1   0.2544  0.0811 -0.1123  11.00000  0.05    0.19
Q85   1   0.0312  0.1624 -0.1371  11.00000  0.05    0.19
Q86   1   0.5927  0.2827  0.2831  11.00000  0.05    0.18
Q87   1   0.9074  0.1237 -0.0340  11.00000  0.05    0.18
Q88   1   1.0428  0.3488  0.1460  11.00000  0.05    0.18
Q89   1   0.1833  0.4428  0.0665  11.00000  0.05    0.17
Q90   1   0.3482  0.4927 -0.0366  11.00000  0.05    0.17
Q91   1   0.0934  0.1639 -0.0931  11.00000  0.05    0.17
Q92   1   0.1938  0.4225  0.1089  11.00000  0.05    0.16
Q93   1   0.1180  0.2823 -0.0356  11.00000  0.05    0.16
Q94   1   0.4363  0.1449 -0.0474  11.00000  0.05    0.16
Q95   1   0.3120  0.2170 -0.0321  11.00000  0.05    0.16
Q96   1   0.5246  0.2833 -0.0780  11.00000  0.05    0.16
Q97   1   0.1948  0.5817 -0.0045  11.00000  0.05    0.16
Q98   1   0.0909  0.7539  0.1497  11.00000  0.05    0.16
Q99   1   0.7748  0.3760  0.1829  11.00000  0.05    0.15
Q100  1  -0.0309  0.0636 -0.0814  11.00000  0.05    0.15
Q101  1   0.2861 -0.0755 -0.1583  11.00000  0.05    0.15
Q102  1   0.1951  0.5929  0.1579  11.00000  0.05    0.15
Q103  1   0.3080  0.2053 -0.0028  11.00000  0.05    0.14
Q104  1   0.4092  0.3544  0.2008  11.00000  0.05    0.14
Q105  1   0.4397  0.4097 -0.1098  11.00000  0.05    0.14
Q106  1   0.0270  0.6185  0.1034  11.00000  0.05    0.14
Q107  1   0.0235  0.0768 -0.0383  11.00000  0.05    0.13
Q108  1  -0.0350  0.0528 -0.1572  11.00000  0.05    0.13
Q109  1   0.2842  0.5114 -0.0847  11.00000  0.05    0.11
Q110  1   0.0877  0.0955 -0.0073  11.00000  0.05    0.10
Q111  1   0.1043  0.6871  0.3064  11.00000  0.05    0.07
Q112  1   0.2578  0.1749 -0.2842  11.00000  0.05    0.05
Q113  1   0.0410  0.0481  0.0458  11.00000  0.05    0.03
;
_shelx_res_checksum              51116
_shelx_hkl_file
;
   0  -2  -1 4004.84 495.276   1
   0   2   1 4389.51 592.303   1
   0  -3   0 124.908 202.643   1
   0   3   0 151.919 255.919   1
   0  -3  -1 14310.3 988.631   1
   0   3  -1 14357.4 664.749   1
   0  -3   1 14126.4 707.741   1
   0   3   1 13746.4 1233.61   1
   0  -3  -2 242223. 4628.85   1
   0  -4   0 903036. 7438.42   1
   0   4   0 901311. 8222.50   1
   0  -4  -1 16199.6 1038.16   1
   0  -4   1 17173.5 947.635   1
   0   4   1 15706.5 1461.05   1
   0   4  -1 16850.0 824.757   1
   0   4  -2 292260. 3194.28   1
   0  -4  -2 296579. 5505.26   1
   0  -5   0-475.859 465.372   1
   0   5   0-1867.64 896.368   1
   0   5  -1 20631.1 987.680   1
   0  -5  -1 22515.7 1336.15   1
   0   5   1 22102.4 1819.50   1
   0  -5   1 20865.2 1202.32   1
   0  -5  -2 26642.7 1568.43   1
   0   5  -2 23670.7 1134.55   1
   0   5  -3 27561.3 1184.44   1
   0  -5  -3 32731.8 2045.65   1
   0  -6   0 218235. 4345.95   1
   0   6   0 220052. 5631.09   1
   0  -6  -1 212532. 4447.94   1
   0   6   1 228625. 6177.36   1
   0   6  -1 227600. 4424.18   1
   0  -6   1 220318. 4352.94   1
   0  -6  -2 63321.0 2595.43   1
   0   6  -2 62404.3 1809.24   1
   0  -6  -3 53768.9 2524.89   1
   0   6  -3 50873.4 1658.64   1
   0   6  -4 7025.31 698.768   1
   0   7   0 154.099 609.912   1
   0  -7   0 174.700 341.128   1
   0   7   1 25241.1 2319.30   1
   0  -7  -1 24340.4 1772.06   1
   0   7  -1 26194.6 1750.23   1
   0  -7   1 23594.3 1621.55   1
   0   7  -2 77519.8 2555.81   1
   0  -7  -2 81379.8 3246.59   1
   0  -7  -3 164850. 4592.66   1
   0   7  -3 164095. 3012.37   1
   0   7  -4 4064.34 509.333   1
   0  -8   0 44.4737 347.553   1
   0   8   0 1802.05 954.252   1
   0   8  -1 3538.36 1099.34   1
   0  -8  -1 3022.97 729.110   1
   0  -8   1 3076.07 654.906   1
   0  -8  -2 186803. 5003.35   1
   0   8  -2 175241. 4455.15   1
   0   8  -3 9869.72 921.909   1
   0  -8  -3 9155.16 1177.56   1
   0   8  -4 522.090 245.917   1
   0   8  -5 77615.4 2231.96   1
   0  -9   0-72.5461 416.949   1
   0  -9  -1 498.087 482.154   1
   0  -9   1-631.709 810.105   1
   0  -9  -2 7089.50 1220.88   1
   0   9  -2 6752.67 1265.15   1
   0   9  -3 60808.2 2609.99   1
   0  -9  -3 60511.5 3044.88   1
   0   9  -4 4994.78 695.160   1
   0  -9  -4 6208.06 1553.59   1
   0   9  -5 22043.8 1136.77   1
   0   9  -6 9755.57 834.746   1
   0 -10   0 56680.9 3113.24   1
   0 -10   1 120083. 4849.60   1
   0 -10  -1 127635. 4367.61   1
   0 -10  -2 9180.01 1355.62   1
   0  10  -3 30984.5 2403.46   1
   0 -10  -3 34746.0 2749.53   1
   0  10  -4-513.067 509.348   1
   0 -10  -4 505.125 487.448   1
   0  10  -5 3490.24 573.956   1
   0  10  -6 14681.0 950.759   1
   0 -11   0-219.116 695.082   1
   0 -11  -1 1556.68 760.597   1
   0 -11  -2 2543.76 1210.93   1
   0 -11  -3 23004.5 2170.54   1
   0 -12  -3 15777.1 1874.60   1
   1   0  -5 90.5145 357.848   1
  -1   0   4 266403. 5467.57   1
   1   0  -4 286004. 4478.07   1
  -1   0   3 21.7423 150.818   1
   1   0  -3-1.27413 155.648   1
  -1   0   2 411202. 4539.14   1
   1   0  -2 412003. 4434.66   1
  -1   0   1 1844.53 447.646   1
   1  -1  -5 63041.2 2821.92   1
   1   1  -5 57765.9 2555.54   1
  -1  -1   4 278698. 5673.19   1
   1   1  -4 283483. 4254.44   1
   1  -1  -4 287480. 4713.27   1
  -1   1   4 292553. 5658.32   1
   1  -1  -3 376989. 4882.30   1
  -1   1   3 387075. 4973.58   1
  -1  -1   3 380936. 4517.62   1
   1   1  -3 382219. 3870.06   1
  -1   1   2 424107. 5176.25   1
  -1  -1   2 426751. 3747.78   1
   1   1  -2 429113. 4011.91   1
   1  -1  -2 425170. 5088.50   1
   1  -1  -1 1252.60 319.698   1
  -1   1   1 1125.92 249.369   1
  -1   2   5 793.179 562.453   1
   1   2  -5 773.420 408.093   1
   1  -2  -5 918.915 445.216   1
  -1   2   4 7304.76 1036.96   1
   1  -2  -4 7845.45 865.317   1
   1   2  -4 8036.10 602.746   1
  -1   2   3 642172. 7176.34   1
   1  -2  -3 646567. 6829.79   1
   1  -2  -2 13077.4 884.832   1
  -1   2   2 12646.2 825.330   1
  -1   2   1 587658. 6174.21   1
   1  -2  -1 592788. 6285.46   1
  -1   3   6 108782. 5183.23   1
   1  -3  -6 114971. 4312.45   1
   1   3  -5 43538.5 1763.79   1
   1  -3  -5 45842.3 2296.98   1
  -1   3   5 46522.1 3341.01   1
  -1   3   4 172865. 5070.71   1
   1  -3  -4 183328. 4392.72   1
  -1   3   3 474236. 7176.72   1
   1  -3  -3 482966. 6430.42   1
  -1   3   2 156147. 3487.66   1
   1  -3  -2 160337. 3755.44   1
   1  -3  -1 300886. 4739.38   1
  -1   3   1 295821. 4874.55   1
   1  -3   0 162595. 3760.23   1
  -1   3   0 158335. 3425.87   1
  -1   4   6 50348.0 3622.34   1
   1  -4  -6 51099.5 2840.43   1
   1  -4  -5 136599. 4170.20   1
  -1   4   5 132732. 5789.13   1
  -1   4   4 3878.70 902.542   1
   1  -4  -4 3966.70 777.154   1
   1  -4  -3 46604.4 2266.20   1
  -1   4   3 46067.5 2462.92   1
  -1   4   2 108050. 3160.87   1
   1  -4  -2 109512. 3400.29   1
   1  -4  -1 9122.06 929.547   1
  -1   4   1 9137.67 925.175   1
  -1   4   0 105669. 3019.04   1
   1  -4   0 104552. 3408.21   1
  -1   4  -1 29633.8 1724.26   1
   1  -5  -6 27347.9 2052.62   1
  -1   5   6 25903.0 2763.01   1
  -1   5   5 6452.35 1431.97   1
   1  -5  -5 7095.82 1055.12   1
  -1   5   4 309878. 7359.71   1
   1  -5  -4 294306. 6144.63   1
  -1   5   3 5667.39 1011.71   1
   1  -5  -3 6144.21 1058.07   1
  -1   5   2 205313. 4529.63   1
   1  -5  -2 204671. 4924.65   1
   1  -5  -1 142369. 3896.97   1
  -1  -5   1 138881. 2771.99   1
  -1   5   1 146818. 3686.68   1
  -1   5   0 101644. 3261.64   1
   1  -5   0 100863. 3517.57   1
  -1   5  -1 98032.2 2872.25   1
   1  -6  -6 58082.7 3083.49   1
   1  -6  -5 123087. 4394.05   1
  -1   6   5 125931. 6151.12   1
  -1   6   4 229.657 804.425   1
   1  -6  -4 497.554 408.058   1
  -1   6   3 61166.8 3396.13   1
   1  -6  -3 64215.3 3283.13   1
  -1   6   2 17309.1 1621.03   1
   1  -6  -2 16050.2 1503.30   1
  -1  -6   2 14369.3 703.684   1
  -1  -6   1 1517.03 298.824   1
   1  -6  -1 1527.22 502.491   1
  -1   6   1 1762.96 551.988   1
  -1   6   0 36924.3 1936.23   1
  -1  -6   0 35483.2 1846.68   1
   1  -6   0 33787.3 2195.47   1
  -1   6  -1 201041. 4644.41   1
  -1   6  -2 140353. 3644.85   1
   1  -7  -6 11241.5 1509.70   1
   1  -7  -5 67271.3 3302.22   1
  -1   7   5 75431.7 4886.86   1
   1  -7  -4 261494. 7188.95   1
  -1   7   4 240161. 8739.05   1
   1  -7  -3 59990.6 3227.31   1
  -1   7   3 63759.2 3700.58   1
  -1  -7   2 162.616 191.130   1
  -1   7   2 172.942 504.125   1
   1  -7  -2 402.474 478.441   1
  -1   7   1 10667.4 1168.53   1
  -1  -7   1 10264.2 813.235   1
  -1  -7   0 5228.77 704.712   1
   1  -7   0 3936.19 840.526   1
  -1   7   0 4306.34 733.131   1
  -1   7  -1 87785.2 3286.36   1
  -1   7  -2 2314.96 782.590   1
  -1   7  -3 61400.1 2614.50   1
   1  -8  -6-651.385 649.499   1
  -1   8   5 26580.0 3158.64   1
   1  -8  -5 24850.5 2430.59   1
   1  -8  -4 11394.9 1730.19   1
  -1   8   4 10564.2 2106.56   1
   1  -8  -3 27441.5 2305.72   1
  -1   8   3 29501.9 2922.31   1
  -1  -8   2-53.3681 345.082   1
   1  -8  -2-74.3447 502.095   1
  -1   8   2 349.347 864.501   1
  -1   8   1 39854.5 2655.48   1
  -1  -8   1 43879.5 1814.94   1
   1  -8  -1 36918.7 2470.53   1
  -1   8   0 281186. 5855.98   1
   1  -8   0 288938. 7328.47   1
  -1  -8   0 297291. 5026.55   1
  -1   8  -1 2131.67 568.820   1
  -1  -8  -1 2578.37 641.119   1
  -1   8  -2 7934.15 1108.31   1
  -1   8  -3 1790.55 758.104   1
   1  -9  -6 3511.99 1000.05   1
   1  -9  -5 3005.34 1006.31   1
   1  -9  -4 129155. 5304.04   1
  -1   9   4 135110. 6812.80   1
  -1   9   3 3130.28 1479.60   1
   1  -9  -3 1724.99 753.240   1
   1  -9  -2 120378. 4603.58   1
  -1  -9   2 124863. 3475.92   1
   1  -9  -1 34687.0 2694.39   1
  -1   9   1 33102.3 2802.46   1
  -1  -9   1 36074.5 1821.64   1
   1  -9   0 4472.89 1145.60   1
  -1  -9   0 3932.61 785.208   1
  -1   9   0 5219.28 1192.43   1
  -1   9  -1 17052.9 1474.87   1
  -1  -9  -1 17035.5 1417.53   1
  -1   9  -2 130.720 390.600   1
  -1   9  -3 9629.95 1143.58   1
  -1   9  -4 127714. 3820.98   1
   1 -10  -6 2180.56 1012.97   1
   1 -10  -5 55786.2 3838.11   1
   1 -10  -4 188.839 779.504   1
  -1  10   3 51893.7 4262.51   1
   1 -10  -3 53064.3 3296.63   1
  -1  10   2 2245.50 1355.21   1
   1 -10  -2 2823.49 905.611   1
  -1 -10   1 21751.5 1605.50   1
  -1  10   1 22447.8 2402.35   1
   1 -10  -1 19016.7 2167.53   1
  -1  10   0 1614.44 877.541   1
  -1 -10   0 1682.00 523.156   1
   1 -10   0 2177.65 901.563   1
  -1 -10  -1 15752.5 1445.30   1
  -1  10  -1 17536.0 1813.82   1
  -1  10  -2 7474.39 1115.94   1
  -1  10  -3 56266.8 2496.89   1
  -1  10  -4 335.100 435.118   1
   1 -11  -6-294.218 810.851   1
   1 -11  -5 48871.9 3698.62   1
   1 -11  -4 4518.93 1303.16   1
   1 -11  -3 15508.5 1898.06   1
  -1  11   3 14010.8 2628.59   1
  -1  11   2 13643.2 2358.46   1
  -1  11   1 14456.4 2525.54   1
   1 -11  -1 14322.6 2031.40   1
   1 -11   0-607.647 1008.49   1
  -1  11   0 130.116 776.521   1
  -1 -11  -1 118520. 4583.61   1
  -1  11  -3 63872.4 2805.38   1
  -1  11  -4 34732.0 1982.07   1
   1 -12  -5 26547.3 2838.28   1
   1 -12  -4 169.631 786.775   1
   1 -12  -3 8708.23 1852.44   1
   1 -12  -2 2188.66 1545.41   1
  -1  12   1-1160.56 1355.84   1
  -1  12  -1 12636.7 2115.98   1
  -1  12  -2 10123.6 1702.83   1
   2   0  -9 133.183 526.765   1
   2   0  -8 761884. 10352.7   1
  -2   0   8 765844. 13915.6   1
   2   0  -7 1207.61 518.933   1
  -2   0   7 3209.04 977.147   1
  -2   0   6 20265.9 1883.09   1
   2   0  -6 25369.8 2206.02   1
   2   0  -5 128.757 375.098   1
  -2   0   5 73.4290 306.263   1
   2   0  -4 63764.8 2400.31   1
  -2   0   4 60156.2 2450.61   1
   2   0  -3 51.0216 302.857   1
  -2   0   3-69.9989 240.676   1
   2  -1  -9 157354. 5185.99   1
   2   1  -9 160973. 4762.21   1
   2   1  -8 29864.7 1941.46   1
   2  -1  -8 33079.2 2167.33   1
  -2   1   8 29292.5 2942.26   1
   2  -1  -7 5198.59 683.846   1
   2   1  -7 5421.55 632.919   1
   2   1  -6 34850.0 2007.59   1
  -2  -1   6 32815.1 2120.57   1
   2  -1  -5 282.899 411.714   1
   2   1  -5 78.9261 328.441   1
  -2   1   5 299.059 365.173   1
  -2  -1   5 42.7772 247.007   1
   2  -1  -4 497084. 7281.80   1
  -2  -1   4 491029. 6599.92   1
  -2   1   4 504755. 7042.48   1
   2   1  -4 494700. 6471.24   1
  -2   1   3 228670. 4851.02   1
   2   1  -3 231901. 4678.49   1
   2  -1  -3 229326. 5104.31   1
  -2  -1   3 233277. 4050.45   1
  -2   1   2 37061.8 2000.55   1
   2  -1  -2 41822.9 2185.56   1
   2  -2  -9 11533.0 1493.65   1
  -2   2   9 11307.1 2057.70   1
   2   2  -9 11633.8 1256.66   1
   2   2  -8 18369.6 1432.54   1
   2  -2  -8 18146.1 1738.20   1
  -2   2   8 16829.9 2416.60   1
  -2  -2   7 220320. 6290.33   1
   2   2  -7 215331. 4517.90   1
   2  -2  -7 218369. 5406.71   1
  -2   2   7 235335. 6668.50   1
   2  -2  -6 3009.12 911.309   1
  -2  -2   6 1205.55 511.083   1
  -2   2   6 2772.32 908.968   1
   2   2  -6 833.814 389.031   1
   2  -2  -5 124390. 4236.84   1
  -2  -2   5 120760. 2844.54   1
  -2   2   5 121731. 3797.67   1
   2   2  -5 123506. 2940.89   1
  -2   2   4 4742.45 747.927   1
   2  -2  -4 4053.37 770.866   1
   2   2  -4 4163.38 667.045   1
  -2  -2   4 4052.85 572.126   1
  -2  -2   3 394886. 5113.34   1
  -2   2   3 396996. 6818.89   1
   2  -2  -3 397643. 6735.96   1
   2  -2  -2 72970.9 3194.61   1
  -2   2   2 68014.4 2725.82   1
   2   3 -10 5742.63 975.803   1
   2  -3  -9 177581. 5869.03   1
   2   3  -9 177916. 4515.52   1
  -2   3   9 182413. 7695.14   1
   2  -3  -8 1101.95 628.130   1
   2   3  -8 572.832 304.340   1
  -2   3   8 1297.78 1190.20   1
   2  -3  -7 2652.93 828.425   1
   2   3  -7 2219.82 543.646   1
  -2   3   7 2267.01 860.117   1
   2   3  -6 65775.1 2184.62   1
  -2  -3   6 64761.6 3038.26   1
   2  -3  -6 64312.6 3397.15   1
  -2   3   6 64182.9 3453.61   1
   2  -3  -5 71311.2 3362.14   1
  -2  -3   5 67633.1 2240.70   1
  -2   3   5 75041.0 3090.14   1
   2   3  -5 72720.6 2253.89   1
  -2  -3   4 12256.8 833.561   1
  -2   3   4 12707.0 1245.05   1
   2  -3  -4 11925.4 1377.14   1
   2  -3  -3 12892.6 1388.92   1
  -2   3   3 11903.2 1364.09   1
  -2  -3   3 12128.6 830.258   1
  -2   3   2 46716.6 2417.77   1
   2  -3  -2 50295.1 2757.52   1
   2  -3  -1 999999. 11699.7   1
  -2   3   1 992338. 11893.2   1
   2   4 -10 5965.60 874.781   1
  -2   4   9 133.654 1043.79   1
   2   4  -9 151.049 365.407   1
   2  -4  -9 83.4641 583.877   1
   2   4  -8 175214. 4106.03   1
   2  -4  -8 162301. 5607.16   1
  -2   4   8 163811. 7855.90   1
  -2   4   7 692.700 675.642   1
   2  -4  -7 1367.88 656.426   1
   2   4  -7 2321.96 593.147   1
   2  -4  -6 150938. 5480.66   1
   2   4  -6 149697. 3103.03   1
  -2   4   6 149595. 5726.92   1
   2  -4  -5 31933.4 2421.24   1
  -2   4   5 32090.4 2214.41   1
  -2  -4   5 26701.0 1483.25   1
  -2  -4   4-147.266 155.014   1
  -2   4   4-55.8834 375.787   1
   2  -4  -4 102.856 507.159   1
   2  -4  -3 132340. 4305.78   1
  -2   4   3 130574. 4157.78   1
   2  -4  -2 4174.22 931.065   1
  -2   4   2 3902.25 810.238   1
   2  -4  -1-263.463 725.621   1
  -2   4   1 276.477 411.899   1
   2   5 -10 8764.89 943.696   1
   2   5  -9 488.181 376.210   1
   2  -5  -9 566.035 670.835   1
  -2   5   9 322.995 1325.70   1
   2  -5  -8 17421.2 1838.85   1
   2   5  -8 18552.1 1164.90   1
  -2   5   8 21175.7 3201.07   1
   2   5  -7 56883.1 1806.57   1
   2  -5  -7 50558.2 3364.03   1
   2  -5  -6 19856.5 2067.68   1
  -2   5   6 18059.9 2146.42   1
   2  -5  -5 25131.8 2188.43   1
  -2   5   5 22447.6 1966.34   1
   2  -5  -4 278723. 6890.07   1
  -2   5   4 270406. 6287.88   1
   2  -5  -3 225235. 5882.93   1
  -2   5   3 237553. 5489.01   1
  -2   5   2 78713.4 3656.69   1
   2  -5  -2 74194.2 3716.64   1
  -2   5   1 14758.1 1885.56   1
  -2   5   0 4474.97 1177.61   1
   2   6 -11 34349.3 1739.00   1
   2   6 -10 15955.1 1244.64   1
   2   6  -9 93281.5 2486.57   1
  -2   6   9 100164. 6627.38   1
   2  -6  -9 94126.4 4601.76   1
   2  -6  -8 89189.3 4508.12   1
  -2   6   8 92994.6 6376.57   1
   2   6  -8 78787.8 2055.76   1
   2  -6  -7 116848. 5513.43   1
  -2   6   7 111382. 6269.89   1
  -2   6   6 483.015 1020.79   1
   2  -6  -6 957.242 754.853   1
   2  -6  -4 2222.72 676.163   1
  -2   6   4 2847.44 678.999   1
  -2   6   3 54264.0 2835.66   1
   2  -6  -3 53940.2 2989.19   1
   2  -6  -2 2938.67 976.152   1
  -2   6   2 3319.20 782.165   1
  -2   6   1 205665. 5696.90   1
   2  -6  -1 200101. 6232.84   1
  -2   6   0 40493.1 2409.60   1
   2   7 -11 42211.5 1958.72   1
   2   7 -10 16547.4 1062.40   1
   2  -7  -9 11606.9 2206.76   1
   2  -7  -8 2528.00 1138.77   1
  -2   7   8 1249.47 1426.10   1
  -2   7   7 2347.91 1618.03   1
   2  -7  -7 123.931 711.884   1
  -2   7   6 87608.7 4892.26   1
  -2   7   5 13578.5 2021.36   1
   2  -7  -5 13316.0 1767.57   1
   2  -7  -4 17697.0 1873.11   1
  -2   7   4 17877.8 2073.26   1
  -2   7   3 40318.1 2591.52   1
   2  -7  -3 39879.8 2728.63   1
  -2   7   2 45740.5 2599.52   1
   2  -7  -2 45760.9 3291.97   1
  -2   7   1 41856.3 2799.04   1
   2  -7  -1 40515.9 3130.75   1
  -2   7   0 19903.3 1857.67   1
  -2   7  -1 7322.53 1081.30   1
   2  -8  -8 3477.35 1898.36   1
  -2   8   8 11692.6 2474.96   1
  -2   8   7 8598.97 2624.10   1
  -2   8   6 183843. 7979.91   1
  -2   8   5 284.489 1012.86   1
   2  -8  -5-15.4115 710.497   1
   2  -8  -4 3290.65 820.845   1
  -2   8   4 4132.78 1152.90   1
   2  -8  -3 25243.5 2377.24   1
  -2   8   3 22776.5 2080.79   1
  -2  -8   2 33862.4 1358.22   1
  -2   8   2 43212.3 2657.94   1
   2  -8  -2 41044.4 3306.81   1
   2  -8  -1 2420.38 1120.97   1
  -2   8   1 2176.88 687.850   1
  -2   8   0 16460.4 1817.64   1
  -2   8  -1 387.732 568.356   1
  -2   9   8 13713.5 2901.96   1
  -2   9   7 4563.84 1791.39   1
   2  -9  -7 6724.21 1837.33   1
  -2   9   6 51689.8 5149.35   1
   2  -9  -5 12689.7 2218.16   1
  -2   9   5 19172.3 2577.24   1
  -2   9   4 16514.5 2294.11   1
   2  -9  -4 16940.0 2017.98   1
   2  -9  -3 48387.8 3485.77   1
  -2   9   3 49712.1 3611.10   1
   2  -9  -2 110787. 5442.82   1
  -2   9   2 117164. 4742.40   1
  -2  -9   2 108210. 2816.72   1
  -2   9   1 22565.5 2015.17   1
   2  -9  -1 23294.1 2509.06   1
  -2   9   0 4358.35 881.578   1
  -2   9  -1 332.014 587.073   1
  -2   9  -2 221698. 6341.46   1
  -2  10   7 56961.4 5311.13   1
  -2  10   6 31242.5 4612.09   1
   2 -10  -5 2835.77 940.381   1
  -2  10   5 2491.87 1349.23   1
   2 -10  -4 2082.77 994.318   1
  -2  10   4 2879.54 1251.58   1
  -2  10   3 1369.63 980.994   1
   2 -10  -3 1312.39 782.482   1
   2 -10  -2 17885.6 2010.53   1
  -2  10   2 23025.4 2583.43   1
  -2  10   1 45005.5 2902.55   1
   2 -10  -1 41605.5 3397.47   1
  -2  10   0 604.669 552.691   1
  -2  10  -1 60922.3 3041.77   1
  -2  10  -2 961.065 920.506   1
  -2  11   6 9030.34 2406.37   1
   2 -11  -5-560.654 974.478   1
  -2  11   5 2429.28 2158.07   1
  -2  11   4 126.307 1338.10   1
   2 -11  -4 1891.19 1107.94   1
  -2  11   3 97181.3 5725.43   1
   2 -11  -3 99508.4 5597.59   1
   2 -11  -2 9688.21 1994.59   1
  -2  11   2 7710.93 1614.95   1
   2 -11  -1 3183.58 1194.35   1
  -2  11   1 4665.58 1293.38   1
  -2  11   0 11621.8 1610.19   1
  -2  11  -1 27108.9 2211.43   1
  -2  11  -2 14147.4 1510.50   1
  -2  12   5-279.241 1343.91   1
   2 -12  -4 6187.40 1550.82   1
  -2  12   4 11746.4 3051.71   1
  -2  12   3 1110.29 1301.74   1
   2 -12  -3 705.206 1063.73   1
  -2  12   2 43925.0 3780.56   1
   2 -12  -2 41071.1 4068.90   1
  -2  12   1 10003.1 1798.08   1
  -2  12  -1 8565.42 1321.70   1
  -2  12  -2 14065.5 1665.02   1
  -2  13   3 3943.87 2190.87   1
  -2  13   2 32412.3 4008.35   1
  -2  13   1-184.836 902.324   1
   3   0 -12 4946.55 1091.89   1
  -3   0  11-367.621 1070.70   1
   3   0 -11 617.652 802.758   1
   3   0 -10 12074.7 1634.21   1
  -3   0  10 13660.7 2338.89   1
   3   0  -9 208.417 542.716   1
  -3   0   9-312.080 658.437   1
  -3   0   8 8569.09 1396.50   1
   3   0  -8 9590.45 1374.97   1
   3   0  -7 139.435 408.458   1
  -3   0   7 72.8717 406.979   1
  -3   0   6 195730. 4777.75   1
   3   0  -6 199004. 5293.89   1
   3   0  -5 76.9856 478.629   1
  -3   0   5-273.310 388.224   1
  -3   0   4 390746. 6586.22   1
   3   0  -4 390375. 7780.50   1
   3   1 -12 1693.33 724.843   1
   3  -1 -12 1373.69 773.090   1
   3   1 -11 151417. 5920.18   1
   3  -1 -11 153035. 6085.13   1
  -3   1  11 149269. 7290.90   1
  -3  -1  10 116003. 5928.16   1
   3   1 -10 105186. 4660.57   1
   3  -1 -10 104758. 5063.24   1
  -3   1  10 101178. 6276.28   1
  -3   1   9 7042.79 1468.82   1
   3   1  -9 8108.50 1293.43   1
   3  -1  -9 6873.67 1275.98   1
  -3  -1   9 6941.20 1321.27   1
   3   1  -8 28880.7 2207.25   1
   3  -1  -8 28454.7 2425.27   1
  -3   1   8 30428.9 2529.62   1
  -3  -1   8 30454.2 2396.85   1
   3  -1  -7 21933.7 2048.02   1
   3   1  -7 23271.1 1298.22   1
  -3   1   7 23170.2 1873.82   1
   3  -1  -6 118547. 4317.63   1
  -3  -1   6 123103. 3584.71   1
  -3   1   6 123155. 4014.57   1
   3   1  -6 118139. 4223.99   1
  -3  -1   5 211545. 5003.02   1
  -3   1   5 209777. 5690.70   1
   3   1  -5 210276. 6183.35   1
   3  -1  -5 207639. 6085.86   1
  -3  -1   4 49015.4 2239.00   1
  -3   1   4 48468.3 2585.96   1
   3  -1  -4 50991.6 3122.36   1
   3  -2 -12 5664.37 1236.67   1
   3   2 -12 6539.34 1319.16   1
   3   2 -11 38737.4 2862.07   1
   3  -2 -11 43252.4 3336.99   1
  -3   2  11 41957.6 4176.31   1
  -3  -2  10 28446.0 2899.13   1
   3   2 -10 28768.7 2288.59   1
   3  -2 -10 25823.7 2659.43   1
  -3   2  10 24039.7 3315.85   1
   3   2  -9 34627.1 2383.23   1
   3  -2  -9 35199.8 2911.82   1
  -3  -2   9 33306.6 3048.29   1
  -3   2   9 31203.3 2903.50   1
  -3   2   8 911.295 907.718   1
  -3  -2   8 364.116 669.635   1
   3   2  -8 37.4993 451.810   1
   3  -2  -8 559.591 678.888   1
   3   2  -7 184888. 4918.42   1
   3  -2  -7 182904. 5956.15   1
  -3   2   7 187306. 5522.98   1
  -3  -2   7 192090. 4469.09   1
  -3  -2   6 10888.2 1013.07   1
   3  -2  -6 9727.05 1298.62   1
  -3   2   6 9811.45 1254.74   1
   3   2  -6 9706.18 1194.21   1
   3  -2  -5 13132.0 1576.02   1
  -3   2   5 14403.0 1635.35   1
   3  -2  -4-101.312 625.015   1
  -3  -2   4 752.439 413.310   1
  -3   2   4 1092.07 672.485   1
  -3   2   3 59316.0 2891.90   1
   3  -2  -3 53665.1 3222.92   1
   3   3 -13 7106.42 1450.97   1
   3  -3 -12 6482.44 1386.32   1
   3   3 -12 7097.20 1270.32   1
   3   3 -11 206987. 6098.71   1
   3  -3 -11 203154. 7642.61   1
  -3   3  11 205740. 9789.79   1
   3   3 -10 14862.8 1643.73   1
  -3   3  10 13265.0 2563.11   1
   3  -3 -10 12270.9 1989.10   1
   3  -3  -9 40139.4 3262.89   1
  -3  -3   9 40202.3 3080.88   1
   3   3  -9 40367.3 2250.63   1
  -3   3   9 35864.8 3343.69   1
  -3   3   8 841.429 675.013   1
   3   3  -8 1378.61 569.148   1
   3  -3  -8 1929.69 851.470   1
  -3  -3   8 719.057 518.960   1
   3  -3  -7 21244.3 2216.02   1
  -3   3   7 22240.8 1965.23   1
  -3  -3   7 22786.1 1679.57   1
   3   3  -7 23287.6 1815.66   1
   3  -3  -6 26720.6 2184.66   1
  -3  -3   6 26229.0 1488.61   1
  -3   3   6 25198.1 2078.98   1
   3   3  -6 25242.2 1835.11   1
   3  -3  -5 130960. 4866.55   1
  -3  -3   5 134221. 3520.61   1
  -3   3   5 126613. 4643.80   1
  -3   3   4 44641.3 2788.44   1
  -3  -3   4 42844.4 2032.10   1
  -3   3   3 264730. 6266.82   1
   3  -3  -3 249705. 7430.53   1
   3   4 -13 12263.0 1655.73   1
   3   4 -12 4189.31 1020.65   1
  -3   4  11 6638.71 1935.10   1
   3   4 -11 7708.43 1236.42   1
   3  -4 -11 9879.79 2061.32   1
   3   4 -10 19801.8 1631.90   1
  -3   4  10 17051.5 2991.81   1
   3  -4 -10 18138.5 2425.66   1
   3   4  -9 27949.8 1795.84   1
   3  -4  -9 30360.7 2906.15   1
  -3   4   9 30048.0 3152.08   1
   3  -4  -8 46206.9 3596.60   1
  -3   4   8 49691.4 3669.81   1
  -3  -4   8 49012.4 3175.51   1
   3   4  -8 54633.1 2619.58   1
   3   4  -7 14625.6 1246.86   1
   3  -4  -7 15538.5 2036.08   1
  -3   4   7 16784.0 1889.22   1
  -3  -4   7 15965.1 1344.44   1
  -3  -4   6 171949. 3505.25   1
  -3   4   6 169778. 5552.14   1
   3  -4  -6 173010. 5747.74   1
  -3  -4   5 19891.1 1260.32   1
  -3   4   5 20183.0 1822.82   1
   3  -4  -5 21477.6 2054.23   1
  -3   4   4 50055.0 3328.05   1
   3  -4  -4 56602.5 3681.86   1
  -3   4   3 97646.9 4331.96   1
   3  -4  -3 86916.3 4582.59   1
  -3   4   2 148519. 5120.05   1
   3   5 -13 10662.5 1398.32   1
   3   5 -12 27263.8 2057.50   1
   3   5 -11 11441.7 1183.54   1
  -3   5  11 7910.99 2016.52   1
  -3   5  10 103936. 7370.20   1
   3  -5 -10 107859. 5964.94   1
   3   5 -10 113655. 3509.50   1
   3  -5  -9 85520.7 5104.86   1
  -3   5   9 90468.0 5417.48   1
   3   5  -9 89405.4 3227.70   1
   3  -5  -8 26951.9 2847.16   1
  -3   5   8 26840.7 2939.41   1
   3   5  -8 26790.2 1676.96   1
   3  -5  -7 65691.1 4134.68   1
  -3   5   7 68823.8 4272.08   1
  -3  -5   7 63393.8 2864.61   1
   3  -5  -6 229434. 6887.12   1
  -3   5   6 220875. 6604.88   1
  -3  -5   6 212518. 3463.09   1
   3  -5  -5 50963.3 3400.87   1
  -3  -5   5 51741.0 1851.23   1
  -3   5   5 50898.6 3086.44   1
   3  -5  -4 6189.56 1240.98   1
  -3   5   4 5706.16 1192.79   1
   3  -5  -3 2209.67 990.749   1
  -3   5   3 2064.80 753.128   1
  -3   5   2 39942.4 2891.88   1
   3  -5  -2 33195.7 2880.73   1
   3   6 -12-409.202 546.113   1
   3   6 -11-225.795 455.246   1
  -3   6  10 24476.2 4303.34   1
   3   6 -10 15919.6 1337.71   1
   3  -6  -9 1265.94 1150.89   1
  -3   6   9-1953.99 1510.35   1
  -3   6   8 1349.38 1018.87   1
   3  -6  -8 2903.20 1166.77   1
   3  -6  -6 10793.1 1671.86   1
  -3  -6   6 6646.91 649.475   1
  -3   6   6 11760.5 1622.65   1
   3  -6  -5 45175.6 3329.31   1
  -3  -6   5 35868.5 1177.28   1
  -3   6   5 44214.7 3004.17   1
  -3   6   4 6954.63 1159.23   1
   3  -6  -4 7412.01 1534.67   1
   3  -6  -3-4929.50 1924.73   1
  -3   6   3 6428.43 1570.52   1
  -3   6   2 154917. 5694.36   1
   3  -6  -2 143452. 5950.63   1
  -3   7   9 5138.06 1846.16   1
  -3   7   8 1439.48 1276.30   1
   3  -7  -8 542.729 771.422   1
  -3   7   7 1971.78 1052.79   1
   3  -7  -7 2012.20 1143.40   1
   3  -7  -6 4042.99 1377.39   1
  -3   7   6 7298.09 1473.60   1
   3  -7  -5 25384.8 2834.75   1
  -3   7   5 30365.7 2620.99   1
  -3   7   4 94671.8 4310.00   1
  -3   7   3 61239.0 3580.65   1
   3  -7  -3 64055.9 4297.07   1
   3  -7  -2 1497.11 835.155   1
  -3   7   2 1709.57 775.230   1
  -3   7   1 112865. 5266.68   1
  -3   8   8 122727. 6936.94   1
  -3   8   7 2317.07 1505.23   1
   3  -8  -7-1337.39 1233.04   1
  -3   8   6 72293.2 4804.54   1
   3  -8  -5 5754.94 2130.11   1
  -3   8   5 8816.14 1516.41   1
   3  -8  -4 3923.87 1535.55   1
  -3   8   4 6883.22 1416.45   1
   3  -8  -3 1018.57 1205.82   1
  -3   8   3 1310.79 794.593   1
   3  -8  -2 10922.1 2089.84   1
  -3   8   2 15572.0 2028.58   1
  -3   8   1-931.087 822.574   1
  -3   9   7 4856.51 1704.50   1
  -3   9   6-901.583 1112.62   1
   3  -9  -5-144.554 1045.99   1
  -3   9   5 168.646 783.000   1
  -3   9   4 86144.6 4418.51   1
   3  -9  -3 461.259 1022.03   1
  -3   9   3 3827.97 1159.51   1
   3  -9  -2 7976.20 1725.62   1
  -3   9   2 8769.09 1442.98   1
  -3   9   1 65778.1 4179.83   1
  -3  10   6 4412.44 1601.31   1
  -3  10   5 71003.6 4955.94   1
   3 -10  -4-1336.26 1473.77   1
  -3  10   4 4605.36 1306.39   1
  -3  10   3 7619.29 1846.41   1
   3 -10  -3 1413.73 1560.07   1
   3 -10  -2 1143.94 965.942   1
  -3  10   2 1500.07 792.864   1
  -3  10   1 44081.7 3057.45   1
  -3  10   0 28600.3 2893.92   1
  -3  11   4 32151.9 3450.25   1
   3 -11  -3 11370.5 2320.26   1
  -3  11   3 12644.5 1896.21   1
  -3  11   2 896.862 799.888   1
  -3  11   1 52098.6 3445.79   1
  -3  11   0 2336.05 937.255   1
  -3  12   3 1719.25 1261.57   1
  -3  12   2 3911.86 1236.82   1
  -3  12   1 25843.2 2561.88   1
  -3  12   0 47990.6 3418.56   1
  -3  13   1 797.527 873.289   1
   4   0 -14 80333.7 5083.40   1
  -4   0  13 269.122 1372.42   1
   4   0 -13-1043.94 1000.35   1
   4   0 -12 9210.37 1612.22   1
  -4   0  12 11959.6 2945.67   1
   4   0 -11 54.9068 691.848   1
  -4   0  11-948.199 1005.22   1
  -4   0  10-155.815 649.342   1
   4   0 -10-492.603 765.058   1
   4   0  -9 686.492 765.656   1
  -4   0   9-221.210 498.252   1
  -4   0   8 136646. 4941.08   1
   4   0  -8 134141. 6053.76   1
  -4   0   7 2011.90 1086.48   1
  -4   0   6 92281.8 4128.05   1
   4   0  -6 90970.5 4867.71   1
  -4   0   5 189.297 439.753   1
   4   1 -15 6213.14 1561.55   1
   4   1 -14 11662.8 1897.93   1
  -4   1  13-876.891 1502.59   1
   4   1 -13 2962.65 1711.96   1
   4  -1 -13 425.767 841.996   1
   4  -1 -12 125057. 6146.70   1
   4   1 -12 113128. 5236.78   1
  -4  -1  12 108468. 6644.16   1
  -4   1  12 115754. 8042.90   1
   4   1 -11 606.657 615.996   1
   4  -1 -11 1426.14 900.931   1
   4   1 -10 44430.3 3006.09   1
   4  -1 -10 49728.6 3304.68   1
  -4   1  10 46815.0 3516.00   1
  -4  -1  10 43717.9 3247.79   1
   4   1  -9 7866.89 1354.41   1
   4  -1  -9 9911.12 1573.22   1
  -4  -1   9 11353.8 1425.35   1
  -4   1   9 11042.1 1459.07   1
  -4  -1   8 21597.5 1781.69   1
  -4   1   8 20327.9 1933.23   1
   4   1  -8 20687.9 2302.73   1
  -4  -1   7 477.858 634.076   1
  -4   1   7-108.600 505.601   1
   4   1  -7 1886.28 1360.33   1
   4  -1  -7 663.667 877.771   1
   4  -1  -6 701.620 817.627   1
  -4  -1   6 761.366 719.249   1
  -4   1   6 269.116 548.132   1
  -4  -1   5 46759.6 2691.09   1
  -4   1   5 46904.7 2997.63   1
   4  -1  -5 51008.5 3583.07   1
   4   2 -15 54820.5 3970.44   1
   4   2 -14 4360.17 2190.36   1
   4   2 -13 43265.7 3308.73   1
  -4   2  13 40034.2 4604.51   1
   4   2 -12 21010.1 2052.16   1
   4  -2 -12 29504.1 3431.49   1
  -4  -2  12 19800.7 2841.30   1
  -4   2  12 33705.3 4650.35   1
  -4  -2  11 7698.13 1881.07   1
   4   2 -11 8418.53 1382.33   1
   4  -2 -11 8247.86 1611.12   1
  -4   2  11 9445.48 2078.49   1
   4   2 -10 20844.4 2152.63   1
   4  -2 -10 21379.3 2368.23   1
  -4   2  10 19371.2 2375.59   1
  -4  -2  10 20816.6 2272.04   1
   4  -2  -9 103621. 5082.95   1
  -4   2   9 103969. 4694.43   1
  -4  -2   9 112734. 4518.87   1
   4   2  -9 111140. 4929.38   1
   4   2  -8 7842.84 1471.54   1
  -4  -2   8 8455.58 1112.08   1
  -4   2   8 6307.02 1196.58   1
  -4  -2   7 148.767 415.501   1
   4   2  -7-309.654 627.059   1
  -4   2   7 711.303 635.450   1
   4  -2  -7 1447.55 916.077   1
  -4  -2   6 11800.2 1406.91   1
   4  -2  -6 9659.20 1667.28   1
  -4   2   6 10319.3 1661.78   1
  -4   2   5 179791. 6154.73   1
   4  -2  -5 188332. 7207.90   1
   4   3 -15-382.170 992.007   1
   4   3 -14 816.148 941.190   1
   4   3 -13-527.403 668.047   1
  -4   3  12 13560.1 3460.59   1
   4   3 -12 10159.5 1457.13   1
  -4  -3  11 462.799 1106.75   1
   4   3 -11 511.476 611.908   1
   4  -3 -11-107.466 835.888   1
   4  -3 -10 110040. 5448.16   1
  -4   3  10 111276. 6092.37   1
   4   3 -10 118256. 4945.68   1
   4  -3  -9 154065. 6307.56   1
  -4   3   9 159381. 6191.13   1
  -4  -3   9 167464. 5527.34   1
   4   3  -9 171002. 5847.97   1
   4  -3  -8 23269.6 2662.70   1
  -4  -3   8 21442.8 1708.16   1
  -4   3   8 21036.0 2216.66   1
   4   3  -8 19539.6 1968.04   1
  -4  -3   7 67801.0 2983.91   1
  -4   3   7 65800.3 3617.13   1
   4  -3  -7 62346.0 4284.71   1
  -4  -3   6 30696.9 2098.37   1
  -4   3   6 28306.9 2743.28   1
   4  -3  -6 30186.8 3054.52   1
  -4   3   5 52153.2 3448.50   1
   4  -3  -5 52939.8 4041.18   1
  -4   3   4 104045. 4446.48   1
   4  -3  -4 92248.8 4933.08   1
   4   4 -15 880.369 798.239   1
   4   4 -14 52491.6 3161.41   1
   4   4 -13 46790.5 3022.41   1
   4   4 -12 1806.22 862.659   1
   4   4 -11 2430.44 898.014   1
  -4  -4  11 2969.65 1327.62   1
  -4   4  11 3165.93 1476.20   1
   4   4 -10 755.951 652.541   1
  -4   4  10-7.60831 949.450   1
  -4  -4  10 958.407 1160.34   1
   4  -4 -10 1022.52 921.856   1
   4  -4  -9 24306.7 2628.19   1
  -4   4   9 27378.2 3010.28   1
  -4  -4   9 25688.0 2180.72   1
   4   4  -9 26414.4 2145.84   1
   4  -4  -8 64301.4 4229.52   1
  -4   4   8 61603.0 3846.57   1
  -4  -4   8 69038.4 2815.61   1
  -4  -4   7 5426.44 796.824   1
   4  -4  -7 3292.06 1038.54   1
  -4   4   7 4938.93 1134.48   1
  -4  -4   6 14227.9 1365.04   1
   4  -4  -6 12637.8 2218.52   1
  -4   4   6 12008.7 1787.20   1
  -4   4   5 71750.5 4303.76   1
   4  -4  -5 71055.0 4750.05   1
  -4   4   4 424.148 750.446   1
   4   5 -13 4294.21 877.061   1
   4   5 -12 72427.6 3728.39   1
   4   5 -11 13113.1 1702.78   1
  -4  -5  10 9706.21 1497.16   1
  -4   5  10 8532.34 2099.11   1
   4  -5  -9 1525.34 917.266   1
  -4  -5   9 2756.33 802.418   1
  -4   5   9 4264.45 1437.90   1
   4  -5  -8 24456.8 2818.64   1
  -4   5   8 25615.3 2606.96   1
  -4  -5   8 25372.7 1828.88   1
  -4  -5   7 3410.88 766.808   1
   4  -5  -7 662.972 959.055   1
  -4   5   7 3019.65 1039.57   1
  -4   5   6-547.527 728.503   1
   4  -5  -6 906.457 1062.15   1
  -4  -5   6 81.7371 358.682   1
   4  -5  -5 7733.89 1745.63   1
  -4   5   5 7141.52 1530.54   1
  -4   5   4 109190. 5401.42   1
   4  -5  -4 100734. 5690.99   1
  -4   6   9 30595.0 3513.99   1
   4  -6  -8 2239.56 1383.10   1
  -4   6   8 1145.30 711.134   1
  -4  -6   7 144299. 3426.63   1
  -4   6   7 136163. 6122.49   1
   4  -6  -6 2656.50 1312.37   1
  -4   6   6 1266.05 766.994   1
  -4  -6   6 1345.53 465.137   1
  -4   6   5 4055.44 1263.00   1
   4  -6  -5 1438.21 937.609   1
  -4   6   4 33275.7 3090.84   1
   4  -6  -4 28945.1 3306.39   1
  -4   7   8 10265.4 2122.39   1
  -4   7   7 1397.79 844.645   1
  -4  -7   6 18042.5 1148.90   1
  -4   7   6 22216.5 2480.50   1
  -4   7   5 91317.6 4691.69   1
   4  -7  -4-277.006 1108.05   1
  -4   7   4 223.042 738.500   1
  -4   7   3 74677.4 4657.59   1
  -4   8   6 1574.77 949.552   1
   4  -8  -5 14705.3 3154.61   1
  -4   8   5 25244.1 2650.02   1
   4  -8  -4 10260.0 3046.64   1
  -4   8   4 30532.8 2904.63   1
  -4   8   3 297.011 790.533   1
  -4   9   5 5575.49 1414.71   1
  -4   9   4 25930.4 2796.09   1
  -4   9   3 27922.8 2866.08   1
  -5   0  13-543.285 1297.08   1
   5   0 -12 139459. 6848.65   1
  -5   0  12 134166. 6980.53   1
   5   0 -11-409.355 931.586   1
  -5   0  11 1722.79 1385.72   1
  -5   0  10 89470.0 4410.70   1
   5   0 -10 87249.9 5440.84   1
   5   0  -9-77.8057 942.834   1
  -5   0   9-230.612 601.601   1
   5   0  -8 2300.92 1143.86   1
  -5   0   8 8338.65 1466.39   1
  -5  -1  14 13191.9 2787.57   1
  -5  -1  13 2409.98 1690.97   1
   5   1 -13 1523.26 1014.37   1
   5   1 -12 4674.82 1303.31   1
  -5   1  12 2755.66 1204.73   1
  -5  -1  12 5040.29 1598.31   1
  -5   1  11 37167.4 3651.60   1
  -5  -1  11 50453.7 4141.16   1
   5   1 -11 42909.7 3771.31   1
   5  -1 -11 54333.2 4770.47   1
   5   1 -10 9353.41 1880.05   1
   5  -1 -10 9805.70 2033.90   1
  -5   1  10 8800.32 1535.24   1
  -5  -1  10 9192.77 1460.01   1
   5   1  -9 1105.61 901.991   1
   5  -1  -9 1351.74 959.809   1
  -5  -1   9 3145.85 901.873   1
  -5   1   9 1980.22 841.374   1
  -5   1   8 10792.4 1582.38   1
   5  -1  -8 11014.3 2121.15   1
  -5  -1   8 11174.0 1639.24   1
   5  -1  -7 7298.88 1639.04   1
  -5   1   7 7237.88 1383.71   1
   5   2 -14 1044.11 979.766   1
  -5  -2  14 2257.39 1656.85   1
   5   2 -13 2069.72 1100.92   1
  -5  -2  13 5684.06 2416.15   1
   5   2 -12 5957.38 1524.69   1
  -5  -2  12 5115.69 1436.80   1
  -5  -2  11 1803.35 890.112   1
   5   2 -11 2627.93 1203.22   1
  -5   2  11 1909.85 1195.56   1
   5   2 -10 12473.3 2270.49   1
   5  -2 -10 7122.65 1857.77   1
  -5   2  10 6979.04 1436.64   1
  -5  -2  10 9099.67 1257.25   1
  -5  -2   9 25398.6 2166.92   1
  -5   2   9 22870.1 2462.30   1
   5  -2  -9 23487.7 3089.10   1
  -5   2   8 2543.62 862.623   1
   5  -2  -8 3787.02 1459.08   1
  -5  -2   8 2684.79 856.613   1
  -5  -2   7 250334. 6933.56   1
  -5   2   7 246111. 8294.12   1
   5  -2  -7 248948. 9117.05   1
   5   3 -15 9986.42 1799.73   1
   5   3 -14 101.668 974.018   1
  -5  -3  13 17484.9 2803.61   1
   5   3 -13 19086.9 2532.37   1
   5   3 -12 24046.6 2798.58   1
  -5  -3  12 23090.5 2745.63   1
  -5  -3  11 28293.4 2863.34   1
   5   3 -11 29068.0 2961.49   1
  -5   3  10 2632.59 708.513   1
  -5  -3  10 4673.54 982.101   1
   5  -3  -9 7633.07 1978.87   1
  -5  -3   9 6071.68 1091.77   1
  -5   3   9 5737.95 1357.79   1
   5  -3  -8 325.659 1040.00   1
  -5   3   8 1246.84 763.446   1
  -5  -3   8 272.488 766.933   1
   5  -3  -7 7512.24 1930.07   1
  -5  -3   7 7920.97 1438.32   1
  -5   3   7 5560.78 1481.34   1
   5  -3  -6 9410.16 2016.25   1
  -5   3   6 15399.2 2329.22   1
   5   4 -13 14261.8 2178.80   1
   5   4 -12 38342.9 3248.82   1
  -5  -4  11 7393.72 1635.70   1
  -5  -4  10 7509.49 1418.28   1
  -5  -4   9 912.804 474.245   1
  -5   4   9 1698.71 1018.74   1
  -5  -4   8 64890.3 3251.92   1
  -5   4   8 56260.5 3942.04   1
   5  -4  -8 51502.6 4734.30   1
  -5  -4   7 44362.7 2761.41   1
  -5   4   7 37771.6 3585.89   1
   5  -4  -7 38657.0 4187.20   1
  -5   4   6 41614.4 3737.00   1
   5  -4  -6 38979.0 3968.06   1
  -5  -5   9 30292.5 2124.55   1
  -5  -5   8 141.341 411.650   1
  -5   5   8-394.777 755.116   1
  -5   5   7 1134.93 770.721   1
  -5  -5   7 1463.72 669.421   1
   5  -5  -6 12901.9 2731.05   1
  -5   5   6 10895.0 2046.57   1
  -5   6   6 5397.33 1714.38   1
  -5   7   5 4793.80 1571.48   1
  -6   0  12 8564.17 1960.76   1
  -6   0  11 182.535 779.768   1
  -6   0  10 2554.83 960.496   1
  -6   0   9-128.471 741.685   1
  -6  -1  13 13969.8 2599.48   1
  -6  -1  12 22818.5 2865.91   1
   6   1 -11 11947.1 2342.32   1
  -6  -1  11 16230.3 2092.50   1
  -6  -1  10 22532.9 2408.77   1
  -6   1  10 20450.7 2422.97   1
  -6  -1   9 61070.6 3941.54   1
  -6   1   9 53910.7 4096.23   1
  -6  -2  14 2.21617 947.679   1
  -6  -2  13 74899.2 6080.89   1
   6   2 -13 63590.2 5020.37   1
   6   2 -12-579.239 1160.27   1
  -6  -2  12 1160.53 977.311   1
  -6  -2  11 1977.63 895.913   1
  -6  -2  10 3924.43 1045.78   1
  -6   2   9 3130.45 1077.54   1
  -6  -2   9 3241.41 972.131   1
   6   3 -14-1037.08 1499.72   1
  -6  -3  12 5399.68 1427.16   1
  -6  -3  11 24450.3 2313.76   1
  -6  -3  10 472.685 632.660   1
  -6  -3   9 16896.1 2074.66   1
  -6   3   8 294.898 797.865   1
   0   0   0    0.00    0.00   0
TITL Dat_p3_cr1_s1 in P2(1)/c
REM P2(1)/c (#14 in standard setting)
CELL 0.28960   4.530790   6.687009   9.251774  90.0000  90.2739  90.0000
ZERR    1.00   0.003687   0.000505   0.005282   0.0000   0.0788   0.0000
LATT  1
SYMM -x, y+1/2,-z+1/2
SFAC H B O Si Ca
UNIT 1.00 1.00 5.00 1.00 1.00
TREF
HKLF 4
END
;
_shelx_hkl_checksum              60484
loop_
_space_group_symop_operation_xyz
'x, y, z'
'-x, y+1/2, -z+1/2'
'-x, -y, -z'
'x, -y-1/2, z-1/2'
loop_
_atom_site_label
_atom_site_type_symbol
_atom_site_fract_x
_atom_site_fract_y
_atom_site_fract_z
_atom_site_U_iso_or_equiv
_atom_site_adp_type
_atom_site_occupancy
_atom_site_site_symmetry_order
_atom_site_calc_flag
_atom_site_refinement_flags_posn
Ca1 Ca -0.0003(4) 0.63078(8) 0.18039(16) 0.0088(12) Uani 1 1 d .
Si1 Si 0.5309(5) 0.32261(13) 0.0661(2) 0.0065(17) Uani 1 1 d .
B1 B 0.588(2) 0.0573(5) -0.1513(9) 0.007(5) Uani 1 1 d .
O1 O 0.2617(15) 0.4619(3) 0.0160(6) 0.008(2) Uani 1 1 d .
O2 O 0.7218(15) 0.1772(3) -0.0380(7) 0.008(2) Uani 1 1 d .
O3 O 0.7109(17) 0.3629(3) 0.2153(7) 0.008(2) Uani 1 1 d .
O4 O 0.3087(15) 0.1421(3) 0.1310(6) 0.008(2) Uani 1 1 d .
O5 O 0.2682(15) 0.0777(3) -0.1608(7) 0.008(2) Uani 1 1 d D
H H 0.20(3) 0.07(3) -0.069(6) 0.14(9) Uiso 1 1 d D
loop_
_atom_site_aniso_label
_atom_site_aniso_U_11
_atom_site_aniso_U_22
_atom_site_aniso_U_33
_atom_site_aniso_U_23
_atom_site_aniso_U_13
_atom_site_aniso_U_12
Ca1 0.013(2) 0.0061(3) 0.0072(17) -0.0002(3) 0.0032(19) -0.0005(3)
Si1 0.010(3) 0.0051(4) 0.004(2) -0.0005(4) 0.001(3) 0.0006(5)
B1 0.010(10) 0.0055(10) 0.006(7) -0.0010(15) 0.002(8) -0.0002(16)
O1 0.012(4) 0.0066(4) 0.006(3) 0.0004(5) 0.002(3) 0.0008(6)
O2 0.012(4) 0.0066(4) 0.006(3) 0.0004(5) 0.002(3) 0.0008(6)
O3 0.012(4) 0.0066(4) 0.006(3) 0.0004(5) 0.002(3) 0.0008(6)
O4 0.012(4) 0.0066(4) 0.006(3) 0.0004(5) 0.002(3) 0.0008(6)
O5 0.012(4) 0.0066(4) 0.006(3) 0.0004(5) 0.002(3) 0.0008(6)
loop_
_atom_type_symbol
_atom_type_description
_atom_type_scat_dispersion_real
_atom_type_scat_dispersion_imag
_atom_type_scat_source
O O 0.0056 0.0036 'International Tables Vol C Tables 4.2.6.8 and 6.1.1.4'
Si Si 0.0522 0.0431 'International Tables Vol C Tables 4.2.6.8 and 6.1.1.4'
B B 0.0004 0.0004 'International Tables Vol C Tables 4.2.6.8 and 6.1.1.4'
Ca Ca 0.1611 0.1926 'International Tables Vol C Tables 4.2.6.8 and 6.1.1.4'
H H 0.0000 0.0000 'International Tables Vol C Tables 4.2.6.8 and 6.1.1.4'
loop_
_geom_angle_atom_site_label_1
_geom_angle_atom_site_label_2
_geom_angle_atom_site_label_3
_geom_angle
_geom_angle_site_symmetry_1
_geom_angle_site_symmetry_3
O2 Ca1 O1 65.59(10) 3_665 .
O2 Ca1 O4 142.68(9) 3_665 2
O1 Ca1 O4 151.64(9) . 2
O2 Ca1 O3 151.1(2) 3_665 1_455
O1 Ca1 O3 90.37(12) . 1_455
O4 Ca1 O3 63.18(14) 2 1_455
O2 Ca1 O3 61.7(2) 3_665 2_655
O1 Ca1 O3 109.3(2) . 2_655
O4 Ca1 O3 90.39(19) 2 2_655
O3 Ca1 O3 146.07(12) 1_455 2_655
O2 Ca1 O1 88.8(2) 3_665 3_565
O1 Ca1 O1 65.9(3) . 3_565
O4 Ca1 O1 108.1(3) 2 3_565
O3 Ca1 O1 65.9(2) 1_455 3_565
O3 Ca1 O1 147.20(16) 2_655 3_565
O2 Ca1 O5 76.47(14) 3_665 3_565
O1 Ca1 O5 130.87(18) . 3_565
O4 Ca1 O5 72.69(14) 2 3_565
O3 Ca1 O5 112.3(2) 1_455 3_565
O3 Ca1 O5 75.8(3) 2_655 3_565
O1 Ca1 O5 83.9(2) 3_565 3_565
O2 Ca1 O5 114.6(2) 3_665 4_566
O1 Ca1 O5 81.5(2) . 4_566
O4 Ca1 O5 81.8(2) 2 4_566
O3 Ca1 O5 74.8(3) 1_455 4_566
O3 Ca1 O5 80.9(2) 2_655 4_566
O1 Ca1 O5 127.43(17) 3_565 4_566
O5 Ca1 O5 145.01(11) 3_565 4_566
O2 Ca1 B1 170.5(2) 3_665 4_466
O1 Ca1 B1 121.25(11) . 4_466
O4 Ca1 B1 31.25(14) 2 4_466
O3 Ca1 B1 32.07(16) 1_455 4_466
O3 Ca1 B1 118.1(2) 2_655 4_466
O1 Ca1 B1 88.6(3) 3_565 4_466
O5 Ca1 B1 94.19(15) 3_565 4_466
O5 Ca1 B1 74.1(2) 4_566 4_466
O2 Ca1 B1 30.7(2) 3_665 3_665
O1 Ca1 B1 87.38(14) . 3_665
O4 Ca1 B1 117.78(16) 2 3_665
O3 Ca1 B1 173.7(3) 1_455 3_665
O3 Ca1 B1 31.0(2) 2_655 3_665
O1 Ca1 B1 118.3(2) 3_565 3_665
O5 Ca1 B1 73.5(2) 3_565 3_665
O5 Ca1 B1 99.0(3) 4_566 3_665
B1 Ca1 B1 148.05(10) 4_466 3_665
O2 Ca1 Si1 124.2(2) 3_665 1_455
O1 Ca1 Si1 78.47(18) . 1_455
O4 Ca1 Si1 82.02(18) 2 1_455
O3 Ca1 Si1 29.5(2) 1_455 1_455
O3 Ca1 Si1 172.20(8) 2_655 1_455
O1 Ca1 Si1 36.38(8) 3_565 1_455
O5 Ca1 Si1 100.0(2) 3_565 1_455
O5 Ca1 Si1 99.67(15) 4_566 1_455
B1 Ca1 Si1 55.2(2) 4_466 1_455
B1 Ca1 Si1 154.5(2) 3_665 1_455
O2 Ca1 Si1 29.40(6) 3_665 3_665
O1 Ca1 Si1 36.30(7) . 3_665
O4 Ca1 Si1 171.24(14) 2 3_665
O3 Ca1 Si1 125.55(9) 1_455 3_665
O3 Ca1 Si1 81.23(9) 2_655 3_665
O1 Ca1 Si1 78.28(11) 3_565 3_665
O5 Ca1 Si1 102.55(7) 3_565 3_665
O5 Ca1 Si1 99.31(10) 4_566 3_665
B1 Ca1 Si1 157.35(10) 4_466 3_665
B1 Ca1 Si1 53.47(10) 3_665 3_665
Si1 Ca1 Si1 106.26(7) 1_455 3_665
O1 Si1 O2 125.8(4) . .
O1 Si1 O3 121.9(3) . .
O2 Si1 O3 109.7(4) . .
O1 Si1 O4 93.7(3) . .
O2 Si1 O4 95.94(15) . .
O3 Si1 O4 96.6(3) . .
O1 Si1 O1 79.6(3) . 3_665
O2 Si1 O1 87.18(13) . 3_665
O3 Si1 O1 88.0(3) . 3_665
O4 Si1 O1 173.2(4) . 3_665
O1 Si1 Si1 43.63(13) . 3_665
O2 Si1 Si1 108.32(16) . 3_665
O3 Si1 Si1 106.95(14) . 3_665
O4 Si1 Si1 137.3(3) . 3_665
O1 Si1 Si1 35.9(2) 3_665 3_665
O1 Si1 Ca1 103.2(2) . 1_655
O2 Si1 Ca1 103.4(3) . 1_655
O3 Si1 Ca1 42.92(10) . 1_655
O4 Si1 Ca1 139.0(3) . 1_655
O1 Si1 Ca1 45.2(3) 3_665 1_655
Si1 Si1 Ca1 69.02(10) 3_665 1_655
O1 Si1 Ca1 104.46(13) . 3_665
O2 Si1 Ca1 42.55(9) . 3_665
O3 Si1 Ca1 105.17(18) . 3_665
O4 Si1 Ca1 137.55(11) . 3_665
O1 Si1 Ca1 44.78(7) 3_665 3_665
Si1 Si1 Ca1 69.57(4) 3_665 3_665
Ca1 Si1 Ca1 73.74(7) 1_655 3_665
O1 Si1 Ca1 36.7(2) . 3_565
O2 Si1 Ca1 92.0(3) . 3_565
O3 Si1 Ca1 158.14(16) . 3_565
O4 Si1 Ca1 83.1(3) . 3_565
O1 Si1 Ca1 90.7(3) 3_665 3_565
Si1 Si1 Ca1 61.99(12) 3_665 3_565
Ca1 Si1 Ca1 131.02(6) 1_655 3_565
Ca1 Si1 Ca1 89.01(9) 3_665 3_565
O1 Si1 Ca1 35.39(17) . .
O2 Si1 Ca1 160.8(3) . .
O3 Si1 Ca1 89.32(16) . .
O4 Si1 Ca1 84.06(14) . .
O1 Si1 Ca1 90.98(13) 3_665 .
Si1 Si1 Ca1 61.68(6) 3_665 .
Ca1 Si1 Ca1 88.61(6) 1_655 .
Ca1 Si1 Ca1 131.25(6) 3_665 .
Ca1 Si1 Ca1 68.87(8) 3_565 .
O1 Si1 Ca1 152.8(2) . 2_645
O2 Si1 Ca1 81.4(3) . 2_645
O3 Si1 Ca1 33.67(14) . 2_645
O4 Si1 Ca1 81.8(3) . 2_645
O1 Si1 Ca1 104.7(3) 3_665 2_645
Si1 Si1 Ca1 135.20(15) 3_665 2_645
Ca1 Si1 Ca1 66.19(8) 1_655 2_645
Ca1 Si1 Ca1 96.57(9) 3_665 2_645
Ca1 Si1 Ca1 162.77(5) 3_565 2_645
Ca1 Si1 Ca1 117.51(8) . 2_645
O1 Si1 Ca1 83.45(11) . 2_545
O2 Si1 Ca1 122.19(10) . 2_545
O3 Si1 Ca1 80.77(13) . 2_545
O4 Si1 Ca1 27.24(10) . 2_545
O1 Si1 Ca1 150.59(8) 3_665 2_545
Si1 Si1 Ca1 122.89(9) 3_665 2_545
Ca1 Si1 Ca1 117.83(7) 1_655 2_545
Ca1 Si1 Ca1 164.61(4) 3_665 2_545
Ca1 Si1 Ca1 89.85(9) 3_565 2_545
Ca1 Si1 Ca1 61.97(5) . 2_545
Ca1 Si1 Ca1 80.45(7) 2_645 2_545
O4 B1 O2 106.6(8) 3_655 .
O4 B1 O5 115.0(5) 3_655 .
O2 B1 O5 113.9(3) . .
O4 B1 O3 109.1(3) 3_655 4_565
O2 B1 O3 104.4(5) . 4_565
O5 B1 O3 107.4(8) . 4_565
O4 B1 Ca1 54.64(15) 3_655 4_665
O2 B1 Ca1 112.3(5) . 4_665
O5 B1 Ca1 133.5(6) . 4_665
O3 B1 Ca1 54.7(2) 4_565 4_665
O4 B1 Ca1 119.2(6) 3_655 3_665
O2 B1 Ca1 51.9(2) . 3_665
O5 B1 Ca1 125.8(3) . 3_665
O3 B1 Ca1 52.5(4) 4_565 3_665
Ca1 B1 Ca1 80.29(16) 4_665 3_665
Si1 O1 Si1 100.4(3) . 3_665
Si1 O1 Ca1 120.1(4) . .
Si1 O1 Ca1 98.92(12) 3_665 .
Si1 O1 Ca1 118.08(19) . 3_565
Si1 O1 Ca1 98.5(3) 3_665 3_565
Ca1 O1 Ca1 114.1(3) . 3_565
B1 O2 Si1 122.5(5) . .
B1 O2 Ca1 97.3(3) . 3_665
Si1 O2 Ca1 108.05(13) . 3_665
B1 O3 Si1 126.0(7) 4_566 .
B1 O3 Ca1 93.2(3) 4_566 1_655
Si1 O3 Ca1 107.6(2) . 1_655
B1 O3 Ca1 96.5(6) 4_566 2_645
Si1 O3 Ca1 122.72(14) . 2_645
Ca1 O3 Ca1 105.9(4) 1_655 2_645
B1 O4 Si1 121.4(5) 3_655 .
B1 O4 Ca1 94.11(18) 3_655 2_545
Si1 O4 Ca1 132.66(19) . 2_545
B1 O5 Ca1 127.4(2) . 3_565
B1 O5 Ca1 119.5(3) . 4_565
Ca1 O5 Ca1 100.4(3) 3_565 4_565
B1 O5 H 105(10) . .
Ca1 O5 H 86(10) 3_565 .
Ca1 O5 H 114(10) 4_565 .
loop_
_geom_bond_atom_site_label_1
_geom_bond_atom_site_label_2
_geom_bond_distance
_geom_bond_site_symmetry_2
Ca1 O2 2.234(3) 3_665
Ca1 O1 2.240(3) .
Ca1 O4 2.242(3) 2
Ca1 O3 2.242(4) 1_455
Ca1 O3 2.247(7) 2_655
Ca1 O1 2.251(9) 3_565
Ca1 O5 2.303(5) 3_565
Ca1 O5 2.359(8) 4_566
Ca1 B1 2.742(4) 4_466
Ca1 B1 2.815(7) 3_665
Ca1 Si1 3.139(3) 1_455
Ca1 Si1 3.141(3) 3_665
Si1 O1 1.601(7) .
Si1 O2 1.622(3) .
Si1 O3 1.623(10) .
Si1 O4 1.684(3) .
Si1 O1 1.882(3) 3_665
Si1 Si1 2.683(3) 3_665
Si1 Ca1 3.139(3) 1_655
Si1 Ca1 3.141(3) 3_665
Si1 Ca1 3.320(5) 3_565
Si1 Ca1 3.409(4) 2_645
Si1 Ca1 3.603(3) 2_545
B1 O4 1.426(6) 3_655
B1 O2 1.450(12) .
B1 O5 1.456(12) .
B1 O3 1.458(6) 4_565
B1 Ca1 2.742(4) 4_665
B1 Ca1 2.815(7) 3_665
O1 Si1 1.882(3) 3_665
O1 Ca1 2.251(9) 3_565
O2 Ca1 2.234(3) 3_665
O3 B1 1.458(6) 4_566
O3 Ca1 2.242(4) 1_655
O3 Ca1 2.247(7) 2_645
O4 B1 1.426(6) 3_655
O4 Ca1 2.242(3) 2_545
O5 Ca1 2.303(5) 3_565
O5 Ca1 2.359(8) 4_565
O5 H 0.90(2) .
