#------------------------------------------------------------------------------
#$Date: 2023-12-03 19:53:11 +0200 (Sun, 03 Dec 2023) $
#$Revision: 287952 $
#$URL: file:///home/coder/svn-repositories/cod/cif/4/35/07/4350772.cif $
#------------------------------------------------------------------------------
#
# This file is available in the Crystallography Open Database (COD),
# http://www.crystallography.net/
#
# All data on this site have been placed in the public domain by the
# contributors.
#
data_4350772
loop_
_publ_author_name
'Bassey, Euan N.'
'Paddison, Joseph A. M.'
'Keyzer, Evan N.'
'Lee, Jeongjae'
'Manuel, Pascal'
'da Silva, Ivan'
'Dutton, Si\^an E.'
'Grey, Clare P.'
'Cliffe, Matthew J.'
_publ_section_title
;
 Strengthening the Magnetic Interactions in Pseudobinary First-Row
 Transition Metal Thiocyanates, M(NCS)2
;
_journal_coden_ASTM              INOCAJ
_journal_issue                   16
_journal_name_full               'Inorganic Chemistry'
_journal_page_first              11627
_journal_page_last               11639
_journal_paper_doi               10.1021/acs.inorgchem.0c01478
_journal_volume                  59
_journal_year                    2020
_chemical_formula_moiety         '(Co 2+), (N1 C1 S1-)2'
_chemical_formula_structural     '(Co 2+), (N1 C1 S1-)2'
_chemical_formula_sum            'C2 Co N2 S2'
_chemical_formula_weight         175.098
_chemical_name_common            'cobalt(II) thiocyanate'
_chemical_name_systematic
;
catena[bis(mu2-thiocyanato-N,S)cobalt(II)]
;
_space_group_IT_number           12
_space_group_name_Hall           '-C 2y'
_space_group_name_H-M_alt        'C 1 2/m 1'
_symmetry_cell_setting           monoclinic
_symmetry_Int_Tables_number      12
_symmetry_space_group_name_H-M   'C 1 2/m 1'
_cell_angle_alpha                90
_cell_angle_beta                 106.4401(8)
_cell_angle_gamma                90
_cell_formula_units_Z            2
_cell_length_a                   10.6118(4)
_cell_length_b                   3.70869(11)
_cell_length_c                   6.13996(19)
_cell_measurement_temperature    1.5
_cell_volume                     231.764(13)
_diffrn_ambient_temperature      1.5
_diffrn_source                   'ISIS WISH'
_exptl_crystal_colour            red
_exptl_crystal_description       powder
_exptl_crystal_preparation       'Magnetic properties'
_exptl_crystal_recrystallization_method 'Re-crystallisation from solvent: water'
_pd_instr_location               'ISIS Pulsed Neutron and Muon Source, WISH'
_pd_proc_ls_background_function  'Chebychev polynomial'
_pd_proc_ls_profile_function     'Voigt function'
_pd_proc_ls_prof_R_factor        6.451
_pd_proc_ls_prof_wR_expected     56.592
_pd_proc_ls_prof_wR_factor       3.451
_refine_ls_extinction_method     none
_refine_ls_goodness_of_fit_all   0.0718
_refine_ls_hydrogen_treatment    N/A
_refine_ls_matrix_type           full
_refine_ls_number_constraints    0
_refine_ls_number_parameters     154
_refine_ls_number_restraints     0
_refine_ls_shift/su_max          <0.001
_refine_ls_weighting_scheme      sigma
_cod_data_source_file            CoNCS2_final_20200528.cif
_cod_data_source_block           CoNCS2
_cod_original_cell_volume        231.763(13)
_cod_original_formula_sum        'Co1 N2 C2 S2'
_cod_database_code               4350772
loop_
_space_group_symop_operation_xyz
'x, y, z'
'-x, -y, -z'
'-x, y, -z'
'x, -y, z'
'x+1/2, y+1/2, z'
'-x+1/2, -y+1/2, -z'
'-x+1/2, y+1/2, -z'
'x+1/2, -y+1/2, z'
loop_
_atom_site_aniso_label
_atom_site_aniso_U_11
_atom_site_aniso_U_22
_atom_site_aniso_U_33
_atom_site_aniso_U_13
_atom_site_aniso_U_23
_atom_site_aniso_U_12
Co1 0.0108(4) 0.0115(3) 0.0209(4) 0.0079(4) 0 0
C 0.0108(4) 0.0115(3) 0.0209(4) 0.0079(4) 0 0
N 0.0108(4) 0.0115(3) 0.0209(4) 0.0079(4) 0 0
S 0.0108(4) 0.0115(3) 0.0209(4) 0.0079(4) 0 0
loop_
_atom_site_label
_atom_site_fract_x
_atom_site_fract_y
_atom_site_fract_z
_atom_site_occupancy
Co1 0.000000 0.000000 0.000000 1.0
N -0.13799(7) 0.000000 0.17056(13) 1.0
C -0.23820(11) 0.000000 0.2171(2) 1.0
S -0.3782(2) 0.000000 0.2610(4) 1.0
loop_
_audit_author_name
_audit_author_address
'Euan Bassey'
;University of Cambridge
United Kingdom
;
