#------------------------------------------------------------------------------
#$Date: 2016-02-16 22:30:59 +0200 (Tue, 16 Feb 2016) $
#$Revision: 176467 $
#$URL: svn://www.crystallography.net/cod/cif/4/50/56/4505653.cif $
#------------------------------------------------------------------------------
#
# This file is available in the Crystallography Open Database (COD),
# http://www.crystallography.net/
#
# All data on this site have been placed in the public domain by the
# contributors.
#
data_4505653
loop_
_publ_author_name
'Purdy, Andrew P.'
'Case, Sean'
'George, Clifford'
_publ_section_title
;
 Ammonothermal Crystal Growth of Germanium and Its Alloys:&#x2009;
 Synthesis of a Hollow Metallic Crystal
;
_journal_issue                   2
_journal_name_full               'Crystal Growth &amp; Design'
_journal_page_first              121
_journal_paper_doi               10.1021/cg025590m
_journal_volume                  3
_journal_year                    2003
_chemical_formula_sum            'Ag0.72 Ge0.02 Sn0.26'
_chemical_formula_weight         109.98
_chemical_name_systematic
; 
? 
;
_space_group_IT_number           194
_symmetry_cell_setting           hexagonal
_symmetry_space_group_name_Hall  '-P 6c 2c'
_symmetry_space_group_name_H-M   'P 63/m m c'
_atom_sites_solution_hydrogens   geom
_atom_sites_solution_primary     direct
_atom_sites_solution_secondary   difmap
_audit_creation_method           SHELXL-97
_cell_angle_alpha                90.00
_cell_angle_beta                 90.00
_cell_angle_gamma                120.00
_cell_formula_units_Z            2
_cell_length_a                   2.9491(6)
_cell_length_b                   2.9491(6)
_cell_length_c                   4.7734(14)
_cell_measurement_reflns_used    481
_cell_measurement_temperature    293(2)
_cell_measurement_theta_max      23.82
_cell_measurement_theta_min      4.27
_cell_volume                     35.953(15)
_computing_cell_refinement       'Bruker SMART'
_computing_data_collection       'Bruker SMART'
_computing_data_reduction        'Bruker SHELXTL'
_computing_molecular_graphics    'Bruker SHELXTL'
_computing_publication_material  'Bruker SHELXTL'
_computing_structure_refinement  'SHELXL-97 (Sheldrick, 1997)'
_computing_structure_solution    'SHELXS-97 (Sheldrick, 1990)'
_diffrn_ambient_temperature      293(2)
_diffrn_measured_fraction_theta_full 0.927
_diffrn_measured_fraction_theta_max 0.927
_diffrn_measurement_device_type  'CCD area detector'
_diffrn_measurement_method       'phi and omega scans'
_diffrn_radiation_monochromator  graphite
_diffrn_radiation_source         'fine-focus sealed tube'
_diffrn_radiation_type           MoK\a
_diffrn_radiation_wavelength     0.71073
_diffrn_reflns_av_R_equivalents  0.0243
_diffrn_reflns_av_sigmaI/netI    0.0099
_diffrn_reflns_limit_h_max       4
_diffrn_reflns_limit_h_min       -4
_diffrn_reflns_limit_k_max       3
_diffrn_reflns_limit_k_min       -4
_diffrn_reflns_limit_l_max       6
_diffrn_reflns_limit_l_min       -7
_diffrn_reflns_number            467
_diffrn_reflns_theta_full        34.01
_diffrn_reflns_theta_max         34.01
_diffrn_reflns_theta_min         8.00
_exptl_absorpt_coefficient_mu    27.831
_exptl_absorpt_correction_T_max  0.90
_exptl_absorpt_correction_T_min  0.01
_exptl_absorpt_correction_type   integration
_exptl_absorpt_process_details   'face indexed'
_exptl_crystal_colour            black
_exptl_crystal_density_diffrn    10.46
_exptl_crystal_density_method    'not measured'
_exptl_crystal_description       'hollow hexagonal rod'
_exptl_crystal_F_000             95
_exptl_crystal_size_max          0.190
_exptl_crystal_size_mid          0.075
_exptl_crystal_size_min          0.075
_refine_diff_density_max         1.336
_refine_diff_density_min         -0.915
_refine_diff_density_rms         0.337
_refine_ls_extinction_coef       0.015(11)
_refine_ls_extinction_expression Fc^*^=kFc[1+0.001xFc^2^\l^3^/sin(2\q)]^-1/4^
_refine_ls_extinction_method     SHELXL
_refine_ls_goodness_of_fit_ref   1.294
_refine_ls_hydrogen_treatment    mixed
_refine_ls_matrix_type           full
_refine_ls_number_parameters     5
_refine_ls_number_reflns         41
_refine_ls_number_restraints     0
_refine_ls_restrained_S_all      1.294
_refine_ls_R_factor_all          0.0204
_refine_ls_R_factor_gt           0.0204
_refine_ls_shift/su_max          0.021
_refine_ls_shift/su_mean         0.008
_refine_ls_structure_factor_coef Fsqd
_refine_ls_weighting_details
'calc w=1/[\s^2^(Fo^2^)+(0.0274P)^2^+0.3242P] where P=(Fo^2^+2Fc^2^)/3'
_refine_ls_weighting_scheme      calc
_refine_ls_wR_factor_gt          0.0487
_refine_ls_wR_factor_ref         0.0487
_reflns_number_gt                40
_reflns_number_total             41
_reflns_threshold_expression     >2sigma(I)
_cod_data_source_file            cg025590msi20021207_112638.cif
_cod_data_source_block           pursc34m(4)
_cod_depositor_comments
;
The following automatic conversions were performed:

'_symmetry_cell_setting' value 'Hexagonal' changed to 'hexagonal'
according to /home/saulius/struct/CIF-dictionaries/cif_core.dic
dictionary named 'cif_core.dic' version 2.4.1 from 2010-06-29.

Automatic conversion script
Id: cif_fix_values 1715 2011-07-08 13:25:40Z adriana 
;
_cod_original_sg_symbol_H-M      P6(3)/mmc
_cod_original_formula_sum        'Ag0.72 Sn0.26 Ge0.02'
_cod_database_code               4505653
loop_
_symmetry_equiv_pos_as_xyz
'x, y, z'
'-y, x-y, z'
'-x+y, -x, z'
'-x, -y, z+1/2'
'y, -x+y, z+1/2'
'x-y, x, z+1/2'
'y, x, -z'
'x-y, -y, -z'
'-x, -x+y, -z'
'-y, -x, -z+1/2'
'-x+y, y, -z+1/2'
'x, x-y, -z+1/2'
'-x, -y, -z'
'y, -x+y, -z'
'x-y, x, -z'
'x, y, -z-1/2'
'-y, x-y, -z-1/2'
'-x+y, -x, -z-1/2'
'-y, -x, z'
'-x+y, y, z'
'x, x-y, z'
'y, x, z-1/2'
'x-y, -y, z-1/2'
'-x, -x+y, z-1/2'
loop_
_atom_site_label
_atom_site_type_symbol
_atom_site_fract_x
_atom_site_fract_y
_atom_site_fract_z
_atom_site_U_iso_or_equiv
_atom_site_adp_type
_atom_site_occupancy
_atom_site_symmetry_multiplicity
_atom_site_calc_flag
_atom_site_refinement_flags
Ag1 Ag 0.6667 0.3333 0.2500 0.0138(2) Uani 0.70(9) 12 d SP
Sn1 Sn 0.6667 0.3333 0.2500 0.0138(2) Uani 0.30(9) 12 d SP
loop_
_atom_site_aniso_label
_atom_site_aniso_U_11
_atom_site_aniso_U_22
_atom_site_aniso_U_33
_atom_site_aniso_U_23
_atom_site_aniso_U_13
_atom_site_aniso_U_12
Ag1 0.0151(3) 0.0151(3) 0.0113(3) 0.000 0.000 0.00755(15)
Sn1 0.0151(3) 0.0151(3) 0.0113(3) 0.000 0.000 0.00755(15)
loop_
_atom_type_symbol
_atom_type_description
_atom_type_scat_dispersion_real
_atom_type_scat_dispersion_imag
_atom_type_scat_source
Ag Ag -0.8971 1.1015 'International Tables Vol C Tables 4.2.6.8 and 6.1.1.4'
Sn Sn -0.6537 1.4246 'International Tables Vol C Tables 4.2.6.8 and 6.1.1.4'
loop_
_geom_angle_atom_site_label_1
_geom_angle_atom_site_label_2
_geom_angle_atom_site_label_3
_geom_angle
_geom_angle_site_symmetry_1
_geom_angle_site_symmetry_3
Sn1 Ag1 Sn1 146.239(8) 13_766 13_655
Sn1 Ag1 Ag1 0.0 13_766 13_766
Sn1 Ag1 Ag1 146.239(8) 13_655 13_766
Sn1 Ag1 Ag1 146.239(8) 13_766 13_655
Sn1 Ag1 Ag1 0.0 13_655 13_655
Ag1 Ag1 Ag1 146.239(8) 13_766 13_655
Sn1 Ag1 Sn1 60.391(16) 13_766 13_656
Sn1 Ag1 Sn1 108.992(19) 13_655 13_656
Ag1 Ag1 Sn1 60.391(16) 13_766 13_656
Ag1 Ag1 Sn1 108.992(19) 13_655 13_656
Sn1 Ag1 Sn1 108.992(19) 13_766 13_765
Sn1 Ag1 Sn1 60.391(16) 13_655 13_765
Ag1 Ag1 Sn1 108.992(19) 13_766 13_765
Ag1 Ag1 Sn1 60.391(16) 13_655 13_765
Sn1 Ag1 Sn1 146.239(8) 13_656 13_765
Sn1 Ag1 Ag1 60.391(16) 13_766 13_656
Sn1 Ag1 Ag1 108.992(19) 13_655 13_656
Ag1 Ag1 Ag1 60.391(16) 13_766 13_656
Ag1 Ag1 Ag1 108.992(19) 13_655 13_656
Sn1 Ag1 Ag1 0.0 13_656 13_656
Sn1 Ag1 Ag1 146.239(8) 13_765 13_656
Sn1 Ag1 Ag1 108.992(19) 13_766 13_765
Sn1 Ag1 Ag1 60.391(16) 13_655 13_765
Ag1 Ag1 Ag1 108.992(19) 13_766 13_765
Ag1 Ag1 Ag1 60.391(16) 13_655 13_765
Sn1 Ag1 Ag1 146.239(8) 13_656 13_765
Sn1 Ag1 Ag1 0.0 13_765 13_765
Ag1 Ag1 Ag1 146.239(8) 13_656 13_765
Sn1 Ag1 Sn1 60.391(16) 13_766 13_666
Sn1 Ag1 Sn1 146.239(8) 13_655 13_666
Ag1 Ag1 Sn1 60.391(16) 13_766 13_666
Ag1 Ag1 Sn1 146.239(8) 13_655 13_666
Sn1 Ag1 Sn1 60.391(16) 13_656 13_666
Sn1 Ag1 Sn1 146.239(8) 13_765 13_666
Ag1 Ag1 Sn1 60.391(16) 13_656 13_666
Ag1 Ag1 Sn1 146.239(8) 13_765 13_666
Sn1 Ag1 Ag1 146.239(8) 13_766 13_665
Sn1 Ag1 Ag1 60.391(16) 13_655 13_665
Ag1 Ag1 Ag1 146.239(8) 13_766 13_665
Ag1 Ag1 Ag1 60.391(16) 13_655 13_665
Sn1 Ag1 Ag1 146.239(8) 13_656 13_665
Sn1 Ag1 Ag1 60.391(16) 13_765 13_665
Ag1 Ag1 Ag1 146.239(8) 13_656 13_665
Ag1 Ag1 Ag1 60.391(16) 13_765 13_665
Sn1 Ag1 Ag1 108.992(19) 13_666 13_665
Sn1 Ag1 Sn1 146.239(8) 13_766 13_665
Sn1 Ag1 Sn1 60.391(16) 13_655 13_665
Ag1 Ag1 Sn1 146.239(8) 13_766 13_665
Ag1 Ag1 Sn1 60.391(16) 13_655 13_665
Sn1 Ag1 Sn1 146.239(8) 13_656 13_665
Sn1 Ag1 Sn1 60.391(16) 13_765 13_665
Ag1 Ag1 Sn1 146.239(8) 13_656 13_665
Ag1 Ag1 Sn1 60.391(16) 13_765 13_665
Sn1 Ag1 Sn1 108.992(19) 13_666 13_665
Ag1 Ag1 Sn1 0.0 13_665 13_665
Sn1 Ag1 Ag1 60.391(16) 13_766 13_666
Sn1 Ag1 Ag1 146.239(8) 13_655 13_666
Ag1 Ag1 Ag1 60.391(16) 13_766 13_666
Ag1 Ag1 Ag1 146.239(8) 13_655 13_666
Sn1 Ag1 Ag1 60.391(16) 13_656 13_666
Sn1 Ag1 Ag1 146.239(8) 13_765 13_666
Ag1 Ag1 Ag1 60.391(16) 13_656 13_666
Ag1 Ag1 Ag1 146.239(8) 13_765 13_666
Sn1 Ag1 Ag1 0.0 13_666 13_666
Ag1 Ag1 Ag1 108.992(19) 13_665 13_666
Sn1 Ag1 Ag1 108.992(19) 13_665 13_666
loop_
_geom_bond_atom_site_label_1
_geom_bond_atom_site_label_2
_geom_bond_distance
_geom_bond_site_symmetry_2
Ag1 Sn1 2.9318(6) 13_766
Ag1 Sn1 2.9318(6) 13_655
Ag1 Ag1 2.9318(6) 13_766
Ag1 Ag1 2.9318(6) 13_655
Ag1 Sn1 2.9318(6) 13_656
Ag1 Sn1 2.9318(6) 13_765
Ag1 Ag1 2.9318(6) 13_656
Ag1 Ag1 2.9318(6) 13_765
Ag1 Sn1 2.9318(6) 13_666
Ag1 Ag1 2.9318(6) 13_665
Ag1 Sn1 2.9318(6) 13_665
Ag1 Ag1 2.9318(6) 13_666
