#------------------------------------------------------------------------------
#$Date: 2015-08-05 20:10:24 +0300 (Wed, 05 Aug 2015) $
#$Revision: 152785 $
#$URL: svn://www.crystallography.net/cod/cif/4/51/31/4513198.cif $
#------------------------------------------------------------------------------
#
# This file is available in the Crystallography Open Database (COD),
# http://www.crystallography.net/
#
# All data on this site have been placed in the public domain by the
# contributors.
#
data_4513198
loop_
_publ_author_name
'Watkins-Curry, Pilanda'
'Burnett, Joseph Vade'
'Samanta, Tapas'
'Young, David P.'
'Stadler, Shane'
'Chan, Julia Y.'
_publ_section_title
;
 Strategic Crystal Growth and Physical Properties of Single-Crystalline
 LnCo2Al8(Ln = La--Nd, Sm, Yb)
;
_journal_issue                   7
_journal_name_full               'Crystal Growth &amp; Design'
_journal_page_first              3293
_journal_paper_doi               10.1021/acs.cgd.5b00417
_journal_volume                  15
_journal_year                    2015
_chemical_formula_moiety         'Al8 Co2 Yb'
_chemical_formula_sum            'Al8 Co2 Yb'
_chemical_formula_weight         506.74
_space_group_crystal_system      orthorhombic
_space_group_IT_number           55
_space_group_name_Hall           '-P 2 2ab'
_space_group_name_H-M_alt        'P b a m'
_symmetry_space_group_name_Hall  '-P 2 2ab'
_symmetry_space_group_name_H-M   'P b a m'
_audit_creation_method           SHELXL-2014/7
_audit_update_record
;
2015-05-27 # Formatted by publCIF
;
_cell_angle_alpha                90
_cell_angle_beta                 90
_cell_angle_gamma                90
_cell_formula_units_Z            4
_cell_length_a                   12.4110(10)
_cell_length_b                   14.4260(5)
_cell_length_c                   3.9620(5)
_cell_measurement_temperature    293(2)
_cell_volume                     709.36(11)
_computing_cell_refinement       'Bruker SAINT'
_computing_data_collection       'Bruker APEX2'
_computing_data_reduction        'Bruker SAINT'
_computing_molecular_graphics    CrystalMaker
_computing_publication_material  'publCIF (Westrip, 2014)'
_computing_structure_refinement  'SHELXL-2014/7 (Sheldrick, 2014)'
_computing_structure_solution    'SHELXS Direct Methods (Sheldrick, 2013)'
_diffrn_ambient_temperature      293(2)
_diffrn_measured_fraction_theta_full 0.993
_diffrn_measured_fraction_theta_max 0.978
_diffrn_measurement_device_type  'Bruker Kappa D8 Quest CMOS'
_diffrn_measurement_method       '\f and \w scans'
_diffrn_radiation_type           MoK\a
_diffrn_radiation_wavelength     0.71073
_diffrn_reflns_av_R_equivalents  0.0304
_diffrn_reflns_av_unetI/netI     0.0418
_diffrn_reflns_laue_measured_fraction_full 0.993
_diffrn_reflns_laue_measured_fraction_max 0.978
_diffrn_reflns_limit_h_max       17
_diffrn_reflns_limit_h_min       -17
_diffrn_reflns_limit_k_max       19
_diffrn_reflns_limit_k_min       -20
_diffrn_reflns_limit_l_max       5
_diffrn_reflns_limit_l_min       -5
_diffrn_reflns_number            1984
_diffrn_reflns_point_group_measured_fraction_full 0.993
_diffrn_reflns_point_group_measured_fraction_max 0.978
_diffrn_reflns_theta_full        25.242
_diffrn_reflns_theta_max         31.018
_diffrn_reflns_theta_min         3.267
_diffrn_source                   'I\mS microfocus tube'
_exptl_absorpt_coefficient_mu    18.581
_exptl_absorpt_correction_T_max  0.777
_exptl_absorpt_correction_T_min  0.642
_exptl_absorpt_correction_type   multi-scan
_exptl_absorpt_process_details   SADABS(2014)
_exptl_crystal_colour            silver
_exptl_crystal_density_diffrn    4.745
_exptl_crystal_density_method    'not measured'
_exptl_crystal_description       Fragment
_exptl_crystal_F_000             912
_exptl_crystal_size_max          0.030
_exptl_crystal_size_mid          0.020
_exptl_crystal_size_min          0.020
_refine_diff_density_max         1.890
_refine_diff_density_min         -1.221
_refine_diff_density_rms         0.287
_refine_ls_extinction_coef       0.0066(3)
_refine_ls_extinction_expression Fc^*^=kFc[1+0.001xFc^2^\l^3^/sin(2\q)]^-1/4^
_refine_ls_extinction_method     'SHELXL-2014/7 (Sheldrick 2014'
_refine_ls_goodness_of_fit_ref   1.089
_refine_ls_hydrogen_treatment    undef
_refine_ls_matrix_type           full
_refine_ls_number_parameters     70
_refine_ls_number_reflns         1248
_refine_ls_number_restraints     0
_refine_ls_restrained_S_all      1.089
_refine_ls_R_factor_all          0.0397
_refine_ls_R_factor_gt           0.0281
_refine_ls_shift/su_max          0.001
_refine_ls_shift/su_mean         0.000
_refine_ls_structure_factor_coef Fsqd
_refine_ls_weighting_details
'w=1/[\s^2^(Fo^2^)+(0.0249P)^2^+0.4770P] where P=(Fo^2^+2Fc^2^)/3'
_refine_ls_weighting_scheme      calc
_refine_ls_wR_factor_gt          0.0606
_refine_ls_wR_factor_ref         0.0649
_reflns_Friedel_coverage         0.000
_reflns_number_gt                1035
_reflns_number_total             1248
_reflns_threshold_expression     'I > 2\s(I)'
_cod_data_source_file            cg5b00417_si_001.cif
_cod_data_source_block           shelx
_cod_depositor_comments
'Adding full bibliography for 4513193--4513198.cif.'
_cod_database_code               4513198
_shelx_shelxl_version_number     2014/7
_shelx_space_group_comment
;
The symmetry employed for this shelxl refinement is uniquely defined
by the following loop, which should always be used as a source of
symmetry information in preference to the above space-group names.
They are only intended as comments.
;
_shelx_estimated_absorpt_t_min   0.606
_shelx_estimated_absorpt_t_max   0.708
_shelx_res_file
;

    shelx.res created by SHELXL-2014/7


TITL YbCo2Al8
CELL 0.71073  12.411  14.426   3.962  90.0000  90.0000  90.0000
ZERR    4  0.0010  0.0005  0.0005  0.0000  0.0000  0.0000
LATT  1
SYMM - X, - Y, + Z
SYMM 1/2 + X, 1/2 - Y, - Z
SYMM 1/2 - X, 1/2 + Y, - Z
SFAC Yb Co Al

UNIT     4    8   32
LIST 4
TEMP 20
SIZE 0.02 0.02 0.03
ACTA
BOND $H
FMAP 2
PLAN -20
L.S.  20

WGHT    0.024900    0.477000
EXTI    0.006555
FVAR       0.13045
YB1   1    0.341480    0.318884   10.000000    10.50000    0.00920    0.01510 =
         0.00900    0.00000    0.00000   -0.00126
CO1   2    0.034485    0.407274   10.000000    10.50000    0.00938    0.00959 =
         0.00867    0.00000    0.00000    0.00059
CO2   2    0.149994    0.098125   10.000000    10.50000    0.00694    0.00746 =
         0.00551    0.00000    0.00000    0.00036
AL1   3    0.024117    0.132977   10.500000    10.50000    0.00758    0.00938 =
         0.00861    0.00000    0.00000    0.00046
AL2   3    0.161986    0.379638   10.500000    10.50000    0.00746    0.01071 =
         0.01047    0.00000    0.00000   -0.00045
AL3   3    0.236275    0.174615   10.500000    10.50000    0.00793    0.01053 =
         0.00888    0.00000    0.00000   -0.00120
AL4   3    0.332039    0.491608   10.500000    10.50000    0.01034    0.00932 =
         0.00878    0.00000    0.00000   -0.00155
AL5   3    0.451629    0.180643   10.500000    10.50000    0.00733    0.00901 =
         0.01019    0.00000    0.00000    0.00081
AL6   3    0.096288    0.254614   10.000000    10.50000    0.01276    0.00834 =
         0.00952    0.00000    0.00000    0.00052
AL7   3    0.338055    0.045142   10.000000    10.50000    0.00663    0.01577 =
         0.01143    0.00000    0.00000    0.00191
AL8   3   10.000000   10.500000   10.500000    10.25000    0.01215    0.00661 =
         0.00595    0.00000    0.00000    0.00186
AL9   3   10.000000   10.000000   10.000000    10.25000    0.00818    0.01097 =
         0.01055    0.00000    0.00000   -0.00270
HKLF 4

REM  YbCo2Al8
REM R1 =  0.0281 for    1035 Fo > 4sig(Fo)  and  0.0397 for all    1248 data
REM     70 parameters refined using      0 restraints

END

WGHT      0.0260      1.7045

REM Highest difference peak  1.890,  deepest hole -1.221,  1-sigma level  0.287
Q1    1   0.4793  0.1732  0.0000  10.50000  0.05    1.89
Q2    1   0.3001  0.3979  0.0000  10.50000  0.05    1.33
Q3    1   0.0982  0.1667  0.0000  10.50000  0.05    1.29
Q4    1   0.3046  0.2532  0.0000  10.50000  0.05    1.19
Q5    1   0.2663  0.3491  0.0000  10.50000  0.05    1.14
Q6    1   0.2940  0.4834  0.0000  10.50000  0.05    1.12
Q7    1   0.2712  0.1464  0.0000  10.50000  0.05    1.09
Q8    1   0.1579  0.3634  0.0000  10.50000  0.05    1.07
Q9    1   0.3926  0.3762  0.0000  10.50000  0.05    1.06
Q10   1   0.4752  0.2864  0.0000  10.50000  0.05    1.05
Q11   1   0.3428  0.2794 -0.2072  11.00000  0.05    1.05
Q12   1   0.1398  0.1924  0.2087  11.00000  0.05    1.02
Q13   1   0.0387  0.2322  0.0000  10.50000  0.05    1.02
Q14   1   0.2137  0.0545  0.0000  10.50000  0.05    1.00
Q15   1   0.1967  0.3059  0.0000  10.50000  0.05    1.00
Q16   1   0.1041  0.4603  0.0000  10.50000  0.05    0.96
Q17   1   0.5983  0.4553  0.0000  10.50000  0.05    0.93
Q18   1   0.4288  0.1369  0.0000  10.50000  0.05    0.93
Q19   1   0.5201  0.4254  0.0000  10.50000  0.05    0.93
Q20   1   0.4678  0.2998 -0.5000  10.50000  0.05    0.93
;
_shelx_res_checksum              44122
_shelx_hkl_file
;
 -17  -5  -1    8.29    2.82   1
 -17  -4  -1  151.54   10.83   1
 -17  -3  -1   18.40    3.26   1
 -17  -2  -1   47.75    4.15   1
 -17  -1  -1    2.99    2.21   1
 -16  -8  -1  154.01    9.43   1
 -16  -7  -1   -0.30    1.80   1
 -16  -6  -2    0.50    2.00   1
 -16  -6  -1    6.60    2.52   1
 -16  -5  -2    0.59    1.99   1
 -16  -5  -1    0.40    1.89   1
 -16  -4  -2   55.95    5.24   1
 -16  -4  -1    8.18    2.17   1
 -16  -3  -2    2.69    2.10   1
 -16  -3  -1    4.80    2.19   1
 -16  -2  -2   36.84    4.01   1
 -16  -2  -1   45.97    3.93   1
 -16  -1  -2    8.82    2.73   1
 -16  -1  -1    9.99    2.02   1
 -15 -10  -1   18.49    2.67   1
 -15  -9  -1   53.14    4.52   1
 -15  -8  -2   29.70    3.49   1
 -15  -8  -1   30.25    3.30   1
 -15  -7  -2   13.40    3.29   1
 -15  -7  -1    2.99    1.90   1
 -15  -6  -2   52.27    4.34   1
 -15  -6  -1   21.72    2.80   1
 -15  -5  -2  166.93   10.08   1
 -15  -5  -1   36.24    3.25   1
 -15  -4  -2  190.72   10.77   1
 -15  -4  -1  133.17    7.62   1
 -15  -3  -3   82.99    8.38   1
 -15  -3  -2   78.32    5.66   1
 -15  -3  -1  146.17    8.22   1
 -15  -2  -3    5.20    2.19   1
 -15  -2  -2    8.70    2.30   1
 -15  -2  -1    0.40    1.59   1
 -15  -1  -3    9.67    2.99   1
 -15  -1  -2    1.49    1.68   1
 -15  -1  -1   23.23    2.70   1
 -14 -12  -1    3.69    2.30   1
 -14 -11  -1    5.02    1.88   1
 -14 -10  -2    4.28    2.11   1
 -14 -10  -1    6.92    1.89   1
 -14  -9  -2   51.84    4.18   1
 -14  -9  -1   57.15    4.23   1
 -14  -8  -2    2.19    2.10   1
 -14  -8  -1    1.99    1.69   1
 -14  -7  -3  247.12   16.66   1
 -14  -7  -2  290.36   15.34   1
 -14  -7  -1  371.33   16.57   1
 -14  -6  -3   34.81    4.13   1
 -14  -6  -2    5.11    2.08   1
 -14  -6  -1   41.09    3.46   1
 -14  -5  -3   93.90    7.56   1
 -14  -5  -2    4.20    1.89   1
 -14  -5  -1  169.00    7.80   1
 -14  -4  -3    3.69    2.11   1
 -14  -4  -2    0.10    2.02   1
 -14  -4  -1    2.99    1.59   1
 -14  -3  -3    8.18    2.40   1
 -14  -3  -2   27.25    3.03   1
 -14  -3  -1    2.50    1.80   1
 -14  -2  -3    0.59    1.79   1
 -14  -2  -2    1.69    1.69   1
 -14  -2  -1    4.41    1.60   1
 -14  -1  -3  167.44   10.09   1
 -14  -1  -2   17.81    2.53   1
 -14  -1  -1  281.90   11.75   1
 -13 -14  -1    2.79    2.20   1
 -13 -13  -1   20.07    2.87   1
 -13 -12  -2   51.27    4.87   1
 -13 -12  -1    7.18    2.57   1
 -13 -11  -2  463.97   21.97   1
 -13 -11  -1  292.75   14.71   1
 -13 -10  -2   22.18    2.83   1
 -13 -10  -1   22.47    2.46   1
 -13  -9  -3    6.30    2.31   1
 -13  -9  -2   26.01    3.16   1
 -13  -9  -1    7.29    1.89   1
 -13  -8  -3    1.90    2.51   1
 -13  -8  -2    5.52    1.93   1
 -13  -8  -1    5.90    2.09   1
 -13  -7  -3    4.20    2.01   1
 -13  -7  -2   25.50    2.93   1
 -13  -7  -1    6.92    1.68   1
 -13  -6  -3    0.90    2.11   1
 -13  -6  -2    1.69    1.79   1
 -13  -6  -1    2.59    1.61   1
 -13  -5  -3    2.40    2.79   1
 -13  -5  -2   52.71    4.07   1
 -13  -5  -1   -2.40    1.30   1
 -13  -4  -3   20.34    3.97   1
 -13  -4  -2   15.60    2.29   1
 -13  -4  -1   28.94    2.58   1
 -13  -3  -3  141.37    8.32   1
 -13  -3  -2  276.89   11.65   1
 -13  -3  -1  221.12    8.62   1
 -13  -2  -3   30.80    3.11   1
 -13  -2  -2   42.25    3.25   1
 -13  -2  -1   55.06    3.56   1
 -13  -1  -3  134.10    7.87   1
 -13  -1  -2  141.13    7.13   1
 -13  -1  -1  219.04   12.73   1
 -12 -15  -1   49.28    4.63   1
 -12 -14  -1   99.60    6.99   1
 -12 -13  -2    4.58    2.40   1
 -12 -13  -1   28.94    3.55   1
 -12 -12  -2   12.89    2.87   1
 -12 -12  -1    6.30    2.21   1
 -12 -11  -3   10.69    2.29   1
 -12 -11  -2    6.71    2.18   1
 -12 -11  -1   11.97    2.42   1
 -12 -10  -3    3.80    2.11   1
 -12 -10  -2    6.40    2.18   1
 -12 -10  -1    4.20    1.80   1
 -12  -9  -3   17.89    2.88   1
 -12  -9  -2    1.80    1.69   1
 -12  -9  -1   22.56    2.47   1
 -12  -8  -3  153.02    8.66   1
 -12  -8  -2   22.28    2.93   1
 -12  -8  -1  208.80   13.00   1
 -12  -7  -3   88.74    5.84   1
 -12  -7  -2   68.06    4.46   1
 -12  -7  -1  126.79    6.08   1
 -12  -6  -3   92.54    5.96   1
 -12  -6  -2  192.10   14.14   1
 -12  -6  -1  135.96    6.30   1
 -12  -5  -4    5.11    2.40   1
 -12  -5  -3   -1.10    1.60   1
 -12  -5  -2    6.20    1.89   1
 -12  -5  -1    1.39    1.39   1
 -12  -4  -4    3.31    2.29   1
 -12  -4  -3   -1.39    1.79   1
 -12  -4  -2   12.82    1.93   1
 -12  -4  -1    0.00    1.00   1
 -12  -3  -4   11.63    2.59   1
 -12  -3  -3   29.16    2.92   1
 -12  -3  -2   34.22    2.92   1
 -12  -3  -1   48.02    3.19   1
 -12  -2  -4   14.59    2.67   1
 -12  -2  -3  100.00    6.40   1
 -12  -2  -2   13.91    1.87   1
 -12  -2  -1  163.58    7.42   1
 -12  -1  -4   35.40    3.93   1
 -12  -1  -3   51.55    4.02   1
 -12  -1  -2   88.36    4.89   1
 -12  -1  -1   87.05    4.29   1
 -11 -16  -1   29.92    5.25   1
 -11 -15  -1    1.49    2.00   1
 -11 -14  -2   55.20    5.05   1
 -11 -14  -1   22.75    3.34   1
 -11 -13  -2    5.71    2.20   1
 -11 -13  -1    9.80    1.82   1
 -11 -12  -3   31.70    3.94   1
 -11 -12  -2   34.81    3.66   1
 -11 -12  -1   50.69    3.84   1
 -11 -11  -3    3.10    2.29   1
 -11 -11  -2    6.00    1.81   1
 -11 -11  -1    0.79    1.39   1
 -11 -10  -3  209.67   12.45   1
 -11 -10  -2   36.60    3.03   1
 -11 -10  -1  333.79   12.79   1
 -11  -9  -3    0.79    1.99   1
 -11  -9  -2   -1.39    1.70   1
 -11  -9  -1    2.99    1.70   1
 -11  -8  -3   84.64    5.52   1
 -11  -8  -2  110.88    5.69   1
 -11  -8  -1  117.29    4.55   1
 -11  -7  -4    2.19    1.98   1
 -11  -7  -3    1.80    1.90   1
 -11  -7  -2    0.40    1.69   1
 -11  -7  -1    2.31    1.09   1
 -11  -6  -4   17.72    2.78   1
 -11  -6  -3  150.31    8.09   1
 -11  -6  -2   21.07    1.56   1
 -11  -6  -1  206.78    6.61   1
 -11  -5  -4    0.40    1.79   1
 -11  -5  -3    7.62    2.10   1
 -11  -5  -2   -1.10    1.09   1
 -11  -5  -1    4.28    1.41   1
 -11  -4  -4  245.55   14.73   1
 -11  -4  -3  476.55   18.77   1
 -11  -4  -2  443.52   14.32   1
 -11  -4  -1  736.58   18.46   1
 -11  -3  -4    4.08    1.90   1
 -11  -3  -3    1.59    1.59   1
 -11  -3  -2    6.10    1.48   1
 -11  -3  -1    3.39    0.99   1
 -11  -2  -4   26.11    3.68   1
 -11  -2  -3    5.62    1.90   1
 -11  -2  -2   53.58    3.07   1
 -11  -2  -1    3.80    1.91   1
 -11  -1  -4    0.10    2.23   1
 -11  -1  -3    2.79    1.50   1
 -11  -1  -2    1.80    1.21   1
 -11  -1  -1    1.90    1.30   1
 -10 -16  -1    0.10    1.82   1
 -10 -15  -2    8.88    2.62   1
 -10 -15  -1   27.88    3.06   1
 -10 -14  -2  244.61   13.14   1
 -10 -14  -1   98.60    6.16   1
 -10 -13  -3   34.81    4.01   1
 -10 -13  -2   69.06    4.82   1
 -10 -13  -1   41.73    3.36   1
 -10 -12  -3   18.49    2.84   1
 -10 -12  -2   30.25    2.75   1
 -10 -12  -1   21.44    2.32   1
 -10 -11  -3    1.39    1.89   1
 -10 -11  -2    2.69    1.71   1
 -10 -11  -1    0.10    1.22   1
 -10 -10  -3   74.82    5.88   1
 -10 -10  -2  139.71    7.56   1
 -10 -10  -1  132.71    6.22   1
 -10  -9  -4   22.94    3.54   1
 -10  -9  -3   80.64    5.57   1
 -10  -9  -2   42.77    3.40   1
 -10  -9  -1  114.92    4.50   1
 -10  -8  -4  154.01    9.93   1
 -10  -8  -3  150.80    8.10   1
 -10  -8  -2  324.36   12.97   1
 -10  -8  -1  225.30    7.81   1
 -10  -7  -4   38.69    3.86   1
 -10  -7  -3   14.06    2.33   1
 -10  -7  -2   79.03    3.56   1
 -10  -7  -1   17.47    1.59   1
 -10  -6  -4   34.46    3.40   1
 -10  -6  -3    6.40    1.82   1
 -10  -6  -2   67.57    2.96   1
 -10  -6  -1    4.58    0.90   1
 -10  -5  -4    8.82    2.20   1
 -10  -5  -3    1.10    1.41   1
 -10  -5  -2   21.44    1.67   1
 -10  -5  -1    0.71    0.81   1
 -10  -4  -4  113.64    6.82   1
 -10  -4  -3   69.06    4.32   1
 -10  -4  -2  204.49    6.58   1
 -10  -4  -1   87.42    3.37   1
 -10  -3  -4    7.90    1.91   1
 -10  -3  -3    9.42    1.72   1
 -10  -3  -2   16.16    1.37   1
 -10  -3  -1   18.66    1.56   1
 -10  -2  -4   27.67    2.95   1
 -10  -2  -3    4.49    1.61   1
 -10  -2  -2   46.65    2.60   1
 -10  -2  -1    2.99    1.00   1
 -10  -1  -4   82.81    5.46   1
 -10  -1  -3   50.27    3.55   1
 -10  -1  -2  163.84    5.89   1
 -10  -1  -1   88.74    3.01   1
  -9 -17  -1  102.82    8.92   1
  -9 -16  -2    2.59    3.99   1
  -9 -16  -1   -0.79    1.58   1
  -9 -15  -2    6.00    2.50   1
  -9 -15  -1   51.55    4.02   1
  -9 -14  -3    1.21    2.62   1
  -9 -14  -2    1.59    1.99   1
  -9 -14  -1   -0.20    1.41   1
  -9 -13  -3  104.86    6.96   1
  -9 -13  -2    0.71    1.61   1
  -9 -13  -1  151.29    7.38   1
  -9 -12  -3   25.10    2.91   1
  -9 -12  -2   30.03    3.07   1
  -9 -12  -1   35.05    2.60   1
  -9 -11  -3  127.24    8.35   1
  -9 -11  -2  216.97   10.02   1
  -9 -11  -1  189.34    7.98   1
  -9 -10  -4   28.41    3.84   1
  -9 -10  -3   55.95    4.64   1
  -9 -10  -2   43.43    2.77   1
  -9 -10  -1   85.01    3.87   1
  -9  -9  -4    7.90    2.59   1
  -9  -9  -3  101.61    6.05   1
  -9  -9  -2   10.18    1.72   1
  -9  -9  -1  134.33    4.87   1
  -9  -8  -4   -0.71    2.20   1
  -9  -8  -3   10.69    2.29   1
  -9  -8  -2    0.79    1.39   1
  -9  -8  -1   16.97    1.32   1
  -9  -7  -4    2.10    2.29   1
  -9  -7  -3   10.69    2.03   1
  -9  -7  -2    0.10    1.32   1
  -9  -7  -1   18.49    1.38   1
  -9  -6  -4   12.89    2.51   1
  -9  -6  -3    9.61    1.92   1
  -9  -6  -2   26.73    2.38   1
  -9  -6  -1   13.99    1.42   1
  -9  -5  -4   98.80    6.36   1
  -9  -5  -3   49.84    3.25   1
  -9  -5  -2  179.02    6.96   1
  -9  -5  -1   66.42    2.44   1
  -9  -4  -4   10.18    2.30   1
  -9  -4  -3   84.82    4.79   1
  -9  -4  -2   15.37    1.72   1
  -9  -4  -1  157.00    4.01   1
  -9  -3  -4   61.47    3.92   1
  -9  -3  -3  589.03   19.90   1
  -9  -3  -2   95.84    4.50   1
  -9  -3  -1 1040.71   20.00   1
  -9  -2  -4    1.69    1.51   1
  -9  -2  -3   89.87    4.55   1
  -9  -2  -2    5.02    1.39   1
  -9  -2  -1  143.52    4.31   1
  -9  -1  -4   11.90    1.93   1
  -9  -1  -3   16.56    2.04   1
  -9  -1  -2   17.64    1.68   1
  -9  -1  -1   27.88    1.27   1
  -8 -18  -1    6.10    4.30   1
  -8 -17  -2   70.39    6.38   1
  -8 -17  -1  100.40    6.81   1
  -8 -16  -2    4.49    2.59   1
  -8 -16  -1    1.39    1.89   1
  -8 -15  -3  242.42   15.26   1
  -8 -15  -2  282.91   14.13   1
  -8 -15  -1  361.00   14.06   1
  -8 -14  -3   -0.30    1.90   1
  -8 -14  -2    6.50    1.99   1
  -8 -14  -1    1.10    1.70   1
  -8 -13  -3    9.92    2.90   1
  -8 -13  -2   67.57    4.77   1
  -8 -13  -1   14.21    1.81   1
  -8 -12  -3    1.99    1.80   1
  -8 -12  -2    1.69    1.90   1
  -8 -12  -1   -1.10    1.09   1
  -8 -11  -4   23.72    3.31   1
  -8 -11  -3   11.63    2.39   1
  -8 -11  -2   55.20    3.71   1
  -8 -11  -1   14.06    1.20   1
  -8 -10  -4    1.90    2.59   1
  -8 -10  -3    6.20    1.99   1
  -8 -10  -2   -0.90    1.31   1
  -8 -10  -1   12.60    1.07   1
  -8  -9  -4    9.92    3.02   1
  -8  -9  -3    9.99    2.09   1
  -8  -9  -2   26.21    2.46   1
  -8  -9  -1   19.10    1.22   1
  -8  -8  -4   10.18    3.13   1
  -8  -8  -3   11.29    2.02   1
  -8  -8  -2   21.81    1.96   1
  -8  -8  -1   17.22    1.08   1
  -8  -7  -4  622.50   26.45   1
  -8  -7  -3  335.99   12.83   1
  -8  -7  -2 1083.07   26.33   1
  -8  -7  -1  458.39   10.28   1
  -8  -6  -4    1.49    2.10   1
  -8  -6  -3    0.90    1.50   1
  -8  -6  -2    1.49    1.00   1
  -8  -6  -1    5.71    0.81   1
  -8  -5  -4   19.27    2.46   1
  -8  -5  -3   70.22    3.85   1
  -8  -5  -2   21.16    1.47   1
  -8  -5  -1  103.23    2.84   1
  -8  -4  -5   -0.40    2.09   1
  -8  -4  -4   -1.00    1.70   1
  -8  -4  -3   -0.10    1.41   1
  -8  -4  -2   -0.90    1.01   1
  -8  -4  -1    4.00    0.68   1
  -8  -3  -5   64.96    5.48   1
  -8  -3  -4  245.86   10.35   1
  -8  -3  -3  159.01    6.81   1
  -8  -3  -2  480.05   11.83   1
  -8  -3  -1  259.21    6.12   1
  -8  -2  -5    3.61    1.79   1
  -8  -2  -4    1.69    2.00   1
  -8  -2  -3    5.71    1.63   1
  -8  -2  -2    4.71    1.00   1
  -8  -2  -1    7.40    0.82   1
  -8  -1  -5   62.57    5.38   1
  -8  -1  -4  113.00    5.95   1
  -8  -1  -3  165.38    7.20   1
  -8  -1  -2  192.38    5.83   1
  -8  -1  -1  288.66    6.46   1
  -7 -18  -1    8.70    3.13   1
  -7 -17  -2   20.79    3.28   1
  -7 -17  -1   54.02    4.26   1
  -7 -16  -2    5.02    2.28   1
  -7 -16  -1    2.10    1.60   1
  -7 -15  -3   15.76    2.78   1
  -7 -15  -2   17.81    2.53   1
  -7 -15  -1   22.09    2.44   1
  -7 -14  -3   -1.10    2.20   1
  -7 -14  -2   15.92    2.31   1
  -7 -14  -1    2.10    1.60   1
  -7 -13  -3   19.27    3.51   1
  -7 -13  -2   20.70    2.37   1
  -7 -13  -1   32.26    2.73   1
  -7 -12  -4   83.17    6.75   1
  -7 -12  -3   60.53    4.36   1
  -7 -12  -2  180.36    7.79   1
  -7 -12  -1   90.63    3.24   1
  -7 -11  -4  158.51    9.82   1
  -7 -11  -3  260.82   12.27   1
  -7 -11  -2  291.38    9.56   1
  -7 -11  -1  416.57    9.80   1
  -7 -10  -4   84.64    5.89   1
  -7 -10  -3  148.35    7.31   1
  -7 -10  -2  153.26    6.44   1
  -7 -10  -1  221.41    5.36   1
  -7  -9  -4    5.20    2.42   1
  -7  -9  -3    4.00    1.60   1
  -7  -9  -2   11.63    1.43   1
  -7  -9  -1    1.59    0.60   1
  -7  -8  -4   -0.40    2.19   1
  -7  -8  -3    0.10    1.62   1
  -7  -8  -2    1.30    1.09   1
  -7  -8  -1    2.59    0.71   1
  -7  -7  -4    7.08    2.18   1
  -7  -7  -3    0.50    1.70   1
  -7  -7  -2    4.88    1.28   1
  -7  -7  -1    3.80    0.70   1
  -7  -6  -5   -1.10    2.60   1
  -7  -6  -4    8.58    2.29   1
  -7  -6  -3    5.90    2.28   1
  -7  -6  -2    9.99    1.07   1
  -7  -6  -1    6.71    0.78   1
  -7  -5  -5   13.18    3.19   1
  -7  -5  -4   34.46    3.05   1
  -7  -5  -3   45.56    2.57   1
  -7  -5  -2   76.04    2.62   1
  -7  -5  -1   71.06    2.19   1
  -7  -4  -5   45.83    4.47   1
  -7  -4  -4   55.20    3.57   1
  -7  -4  -3  125.22    5.15   1
  -7  -4  -2   95.84    3.13   1
  -7  -4  -1  201.07    4.54   1
  -7  -3  -5   89.87    6.45   1
  -7  -3  -4  145.68    7.48   1
  -7  -3  -3  229.52    8.79   1
  -7  -3  -2  288.32    7.13   1
  -7  -3  -1  372.49    7.72   1
  -7  -2  -5   53.73    4.54   1
  -7  -2  -4   81.72    4.52   1
  -7  -2  -3  135.02    5.58   1
  -7  -2  -2  176.09    4.51   1
  -7  -2  -1  237.16    5.24   1
  -7  -1  -5   46.24    4.35   1
  -7  -1  -4   60.68    3.74   1
  -7  -1  -3  113.00    4.25   1
  -7  -1  -2  118.81    3.49   1
  -7  -1  -1  221.12    5.95   1
  -6 -19  -1    1.80    2.39   1
  -6 -18  -2    6.92    2.79   1
  -6 -18  -1   -0.79    1.39   1
  -6 -17  -2    4.00    2.80   1
  -6 -17  -1    2.50    1.71   1
  -6 -16  -3   -0.10    2.02   1
  -6 -16  -2   52.71    4.07   1
  -6 -16  -1   -0.59    1.19   1
  -6 -15  -3    9.99    3.22   1
  -6 -15  -2   -3.50    2.09   1
  -6 -15  -1    5.90    1.41   1
  -6 -14  -3  267.65   13.74   1
  -6 -14  -2   92.35    6.15   1
  -6 -14  -1  398.40   15.17   1
  -6 -13  -4    3.31    2.22   1
  -6 -13  -3   21.34    2.86   1
  -6 -13  -2    2.10    1.51   1
  -6 -13  -1   38.56    1.86   1
  -6 -12  -4   16.08    2.97   1
  -6 -12  -3   65.45    4.37   1
  -6 -12  -2   20.98    1.74   1
  -6 -12  -1   94.28    3.50   1
  -6 -11  -4    3.39    1.99   1
  -6 -11  -3   -1.21    1.61   1
  -6 -11  -2    0.00    1.00   1
  -6 -11  -1    0.40    0.30   1
  -6 -10  -4  142.80    9.08   1
  -6 -10  -3   77.79    4.76   1
  -6 -10  -2  280.90    8.72   1
  -6 -10  -1  119.25    3.06   1
  -6  -9  -4   13.03    2.31   1
  -6  -9  -3   87.24    4.11   1
  -6  -9  -2   22.00    1.59   1
  -6  -9  -1  141.61    3.57   1
  -6  -8  -4   32.60    3.31   1
  -6  -8  -3  608.61   16.78   1
  -6  -8  -2   61.62    2.51   1
  -6  -8  -1  982.20   16.92   1
  -6  -7  -5   15.76    2.78   1
  -6  -7  -4   13.03    2.38   1
  -6  -7  -3   44.89    2.55   1
  -6  -7  -2   15.92    1.28   1
  -6  -7  -1   87.80    2.44   1
  -6  -6  -5   53.44    5.12   1
  -6  -6  -4  124.32    6.91   1
  -6  -6  -3  115.35    4.73   1
  -6  -6  -2  231.04    6.08   1
  -6  -6  -1  203.06    4.56   1
  -6  -5  -5   -0.20    2.11   1
  -6  -5  -4    6.60    2.00   1
  -6  -5  -3    0.59    1.00   1
  -6  -5  -2   20.70    1.27   1
  -6  -5  -1    4.41    0.71   1
  -6  -4  -5   27.67    3.58   1
  -6  -4  -4   27.98    2.64   1
  -6  -4  -3   71.91    3.22   1
  -6  -4  -2   77.09    2.46   1
  -6  -4  -1  134.33    3.01   1
  -6  -3  -5    1.10    1.70   1
  -6  -3  -4    8.88    1.79   1
  -6  -3  -3    0.59    0.89   1
  -6  -3  -2   19.01    1.13   1
  -6  -3  -1    2.40    0.71   1
  -6  -2  -5   39.82    3.79   1
  -6  -2  -4    7.08    2.39   1
  -6  -2  -3   75.52    3.65   1
  -6  -2  -2   17.14    0.99   1
  -6  -2  -1  150.80    3.44   1
  -6  -1  -5   10.82    1.97   1
  -6  -1  -4   13.91    2.24   1
  -6  -1  -3   28.84    1.72   1
  -6  -1  -2   43.56    1.72   1
  -6  -1  -1   51.27    1.58   1
  -5 -19  -1    4.80    3.20   1
  -5 -18  -2  484.00   23.32   1
  -5 -18  -1  130.64    8.00   1
  -5 -17  -2   31.25    3.24   1
  -5 -17  -1   40.45    3.43   1
  -5 -16  -3    0.50    2.10   1
  -5 -16  -2   30.25    2.86   1
  -5 -16  -1    6.50    1.48   1
  -5 -15  -3    6.10    2.62   1
  -5 -15  -2    5.38    2.18   1
  -5 -15  -1    0.71    1.31   1
  -5 -14  -3   58.52    4.59   1
  -5 -14  -2  110.88    5.48   1
  -5 -14  -1   68.89    2.49   1
  -5 -13  -4   -1.30    2.10   1
  -5 -13  -3   -2.89    1.90   1
  -5 -13  -2   -0.90    1.41   1
  -5 -13  -1    0.10    0.40   1
  -5 -12  -4   42.77    4.32   1
  -5 -12  -3    4.58    2.01   1
  -5 -12  -2  100.60    4.21   1
  -5 -12  -1    4.41    0.59   1
  -5 -11  -4    1.21    2.00   1
  -5 -11  -3    9.18    2.48   1
  -5 -11  -2    5.62    1.09   1
  -5 -11  -1   17.81    1.01   1
  -5 -10  -4   93.90    6.20   1
  -5 -10  -3  147.38    7.53   1
  -5 -10  -2  184.69    5.71   1
  -5 -10  -1  218.15    5.02   1
  -5  -9  -4    4.08    1.78   1
  -5  -9  -3    1.21    0.81   1
  -5  -9  -2    9.49    1.11   1
  -5  -9  -1    0.79    0.50   1
  -5  -8  -5   52.42    5.36   1
  -5  -8  -4  184.14    9.77   1
  -5  -8  -3  107.74    4.36   1
  -5  -8  -2  397.60    9.57   1
  -5  -8  -1  194.60    3.91   1
  -5  -7  -5   -0.90    1.90   1
  -5  -7  -4    4.58    1.58   1
  -5  -7  -3    1.30    0.89   1
  -5  -7  -2   20.34    1.26   1
  -5  -7  -1    1.49    0.49   1
  -5  -6  -5   72.25    5.61   1
  -5  -6  -4   76.74    4.73   1
  -5  -6  -3  160.02    5.57   1
  -5  -6  -2  139.95    3.79   1
  -5  -6  -1  303.46    5.92   1
  -5  -5  -5   18.49    3.10   1
  -5  -5  -4   48.72    3.77   1
  -5  -5  -3   55.80    2.69   1
  -5  -5  -2  117.07    3.25   1
  -5  -5  -1  119.25    2.84   1
  -5  -4  -5  273.57   12.90   1
  -5  -4  -4  689.59   23.11   1
  -5  -4  -3  542.89   13.98   1
  -5  -4  -2 1375.67   25.22   1
  -5  -4  -1  895.80   16.16   1
  -5  -3  -5    1.00    2.20   1
  -5  -3  -4   25.50    2.73   1
  -5  -3  -3    2.79    0.80   1
  -5  -3  -2   52.13    1.73   1
  -5  -3  -1    7.51    0.71   1
  -5  -2  -5   14.59    2.60   1
  -5  -2  -4   78.15    4.07   1
  -5  -2  -3   62.57    2.37   1
  -5  -2  -2  165.38    4.12   1
  -5  -2  -1  158.00    3.77   1
  -5  -1  -5    0.79    1.69   1
  -5  -1  -4    1.99    1.89   1
  -5  -1  -3    1.00    0.80   1
  -5  -1  -2    3.39    0.70   1
  -5  -1  -1    3.31    0.62   1
  -4 -20  -1    9.67    2.80   1
  -4 -19  -2    4.20    2.91   1
  -4 -19  -1    0.00    1.00   1
  -4 -18  -2    1.21    2.42   1
  -4 -18  -1   -1.00    2.30   1
  -4 -17  -3    9.00    4.50   1
  -4 -17  -2   34.93    3.31   1
  -4 -17  -1   13.40    2.12   1
  -4 -16  -3   51.84    4.90   1
  -4 -16  -2   21.53    2.88   1
  -4 -16  -1   76.74    4.20   1
  -4 -15  -3  168.48   10.38   1
  -4 -15  -2   29.70    3.05   1
  -4 -15  -1  261.47   10.35   1
  -4 -14  -4  100.40    8.82   1
  -4 -14  -3  170.82    8.89   1
  -4 -14  -2  197.96    9.00   1
  -4 -14  -1  256.32    5.44   1
  -4 -13  -4   44.22    4.39   1
  -4 -13  -3  121.44    6.61   1
  -4 -13  -2   67.08    4.09   1
  -4 -13  -1  173.98    4.22   1
  -4 -12  -4    3.31    2.62   1
  -4 -12  -3   23.52    3.10   1
  -4 -12  -2    4.28    1.61   1
  -4 -12  -1   37.58    1.35   1
  -4 -11  -4    7.62    2.98   1
  -4 -11  -3    9.80    2.19   1
  -4 -11  -2   10.37    1.22   1
  -4 -11  -1   17.64    0.92   1
  -4 -10  -4    2.79    2.30   1
  -4 -10  -3    1.10    0.69   1
  -4 -10  -2    6.40    1.11   1
  -4 -10  -1    0.79    0.39   1
  -4  -9  -5   40.96    4.99   1
  -4  -9  -4   16.48    4.30   1
  -4  -9  -3  121.88    5.52   1
  -4  -9  -2   23.52    1.36   1
  -4  -9  -1  197.40    4.50   1
  -4  -8  -5   60.37    5.28   1
  -4  -8  -4   40.32    4.95   1
  -4  -8  -3  136.89    6.32   1
  -4  -8  -2   85.56    2.96   1
  -4  -8  -1  252.81    5.09   1
  -4  -7  -5   84.64    6.26   1
  -4  -7  -4  109.62    8.59   1
  -4  -7  -3  206.21    8.04   1
  -4  -7  -2  192.38    4.99   1
  -4  -7  -1  359.86    6.83   1
  -4  -6  -5   42.25    4.29   1
  -4  -6  -4    7.29    2.59   1
  -4  -6  -3  108.58    4.58   1
  -4  -6  -2    4.41    0.71   1
  -4  -6  -1  206.78    4.60   1
  -4  -5  -5   15.29    2.58   1
  -4  -5  -4    0.40    1.20   1
  -4  -5  -3   31.81    2.26   1
  -4  -5  -2    1.39    0.59   1
  -4  -5  -1   66.75    1.63   1
  -4  -4  -5    4.58    2.48   1
  -4  -4  -4    0.71    1.71   1
  -4  -4  -3   12.39    1.27   1
  -4  -4  -2    0.10    0.61   1
  -4  -4  -1   24.21    0.98   1
  -4  -3  -5    1.90    2.01   1
  -4  -3  -4   -0.10    1.72   1
  -4  -3  -3   11.42    1.22   1
  -4  -3  -2    9.42    0.92   1
  -4  -3  -1   26.83    1.14   1
  -4  -2  -5   69.72    5.01   1
  -4  -2  -4   43.96    4.64   1
  -4  -2  -3  181.71    5.39   1
  -4  -2  -2  101.61    2.62   1
  -4  -2  -1  346.70    7.08   1
  -4  -1  -5  158.51    8.31   1
  -4  -1  -4  118.16    5.87   1
  -4  -1  -3  412.90   10.16   1
  -4  -1  -2  258.24    5.46   1
  -4  -1  -1  739.30   13.05   1
  -3 -20  -1   19.27    3.86   1
  -3 -19  -2   25.20    5.72   1
  -3 -19  -1   89.49    9.65   1
  -3 -18  -2    4.58    4.49   1
  -3 -18  -1    4.00    2.28   1
  -3 -17  -3    3.69    2.38   1
  -3 -17  -2   38.19    3.58   1
  -3 -17  -1   11.70    2.53   1
  -3 -16  -3    1.21    2.00   1
  -3 -16  -2    1.80    2.09   1
  -3 -16  -1   -0.20    1.31   1
  -3 -15  -3   65.93    5.03   1
  -3 -15  -2  124.10    6.91   1
  -3 -15  -1  107.95    5.20   1
  -3 -14  -4    6.00    2.50   1
  -3 -14  -3   -2.79    1.90   1
  -3 -14  -2   13.18    2.03   1
  -3 -14  -1    0.50    0.10   1
  -3 -13  -4   11.49    2.71   1
  -3 -13  -3  122.10    6.63   1
  -3 -13  -2   17.64    1.93   1
  -3 -13  -1  193.21    4.45   1
  -3 -12  -4    2.79    2.91   1
  -3 -12  -3    6.10    2.42   1
  -3 -12  -2   11.42    1.69   1
  -3 -12  -1    4.08    0.28   1
  -3 -11  -4  673.40   38.93   1
  -3 -11  -3  279.56   16.05   1
  -3 -11  -2 1261.67   48.31   1
  -3 -11  -1  413.72    7.32   1
  -3 -10  -4   10.37    3.09   1
  -3 -10  -3    2.19    0.89   1
  -3 -10  -2   19.54    1.41   1
  -3 -10  -1    3.69    0.31   1
  -3  -9  -5    7.18    3.91   1
  -3  -9  -4   17.47    3.43   1
  -3  -9  -3   15.13    1.48   1
  -3  -9  -2   43.16    2.23   1
  -3  -9  -1   19.80    0.80   1
  -3  -8  -5    1.39    3.00   1
  -3  -8  -4    0.90    1.99   1
  -3  -8  -3    3.39    0.88   1
  -3  -8  -2    2.99    0.69   1
  -3  -8  -1    8.18    0.51   1
  -3  -7  -5   22.94    3.74   1
  -3  -7  -4   41.86    4.79   1
  -3  -7  -3   59.91    3.10   1
  -3  -7  -2   72.59    2.56   1
  -3  -7  -1  104.65    2.25   1
  -3  -6  -5    1.10    2.60   1
  -3  -6  -4    0.20    1.91   1
  -3  -6  -3    0.90    0.70   1
  -3  -6  -2    5.81    0.82   1
  -3  -6  -1    1.80    0.29   1
  -3  -5  -5    9.92    3.28   1
  -3  -5  -4  105.47    5.75   1
  -3  -5  -3   51.27    2.86   1
  -3  -5  -2  224.10    5.99   1
  -3  -5  -1  142.32    3.10   1
  -3  -4  -5    1.99    3.10   1
  -3  -4  -4    0.10    1.32   1
  -3  -4  -3    3.31    0.80   1
  -3  -4  -2    7.51    0.82   1
  -3  -4  -1    7.02    0.48   1
  -3  -3  -5  361.38   24.71   1
  -3  -3  -4  256.64   15.70   1
  -3  -3  -3  941.26   22.70   1
  -3  -3  -2  528.54   11.49   1
  -3  -3  -1 1524.90   25.77   1
  -3  -2  -5    9.99    3.73   1
  -3  -2  -4    6.81    2.19   1
  -3  -2  -3   21.07    1.47   1
  -3  -2  -2   19.80    1.07   1
  -3  -2  -1   49.28    1.40   1
  -3  -1  -5   65.77    6.16   1
  -3  -1  -4  179.02    9.90   1
  -3  -1  -3  163.84    5.12   1
  -3  -1  -2  385.34    9.03   1
  -3  -1  -1  322.56    7.54   1
  -2 -20  -1   10.18    3.70   1
  -2 -19  -2   50.27    6.38   1
  -2 -19  -1   61.62    7.06   1
  -2 -18  -2    8.29    3.23   1
  -2 -18  -1    0.59    1.79   1
  -2 -17  -3   26.32    5.03   1
  -2 -17  -2   59.75    7.42   1
  -2 -17  -1   40.83    4.09   1
  -2 -16  -3   30.69    3.55   1
  -2 -16  -2   14.59    2.83   1
  -2 -16  -1   50.41    4.40   1
  -2 -15  -3  163.33   13.55   1
  -2 -15  -1  293.44    9.94   1
  -2 -14  -4   34.93    5.67   1
  -2 -14  -3   14.90    3.32   1
  -2 -14  -2   79.92    6.26   1
  -2 -14  -1   19.98    0.89   1
  -2 -13  -4   11.42    3.38   1
  -2 -13  -3    7.62    2.59   1
  -2 -13  -2   20.79    3.19   1
  -2 -13  -1   11.70    0.62   1
  -2 -12  -4    0.90    3.61   1
  -2 -12  -3   11.09    2.53   1
  -2 -12  -2    1.49    1.68   1
  -2 -12  -1   30.91    1.00   1
  -2 -11  -4    5.29    3.82   1
  -2 -11  -3   -1.21    2.11   1
  -2 -11  -2    4.49    1.70   1
  -2 -11  -1    0.20    0.20   1
  -2 -10  -4   -0.90    2.60   1
  -2 -10  -3    4.08    0.81   1
  -2 -10  -2    3.20    2.51   1
  -2 -10  -1    9.49    0.37   1
  -2  -9  -5    6.50    4.39   1
  -2  -9  -4   43.56    4.62   1
  -2  -9  -3   30.58    1.88   1
  -2  -9  -2   94.28    3.50   1
  -2  -9  -1   39.44    1.00   1
  -2  -8  -5   20.07    4.21   1
  -2  -8  -4   68.06    6.60   1
  -2  -8  -3   60.68    3.12   1
  -2  -8  -2  160.53    4.81   1
  -2  -8  -1  111.09    4.64   1
  -2  -7  -5  219.63   18.97   1
  -2  -7  -4  672.36   31.12   1
  -2  -7  -3  570.25   17.67   1
  -2  -7  -2 1417.52   29.37   1
  -2  -7  -1  961.62   19.85   1
  -2  -6  -5   37.09    5.24   1
  -2  -6  -4   61.15    5.63   1
  -2  -6  -3  109.83    4.40   1
  -2  -6  -2  131.79    4.13   1
  -2  -6  -1  207.07    4.89   1
  -2  -5  -5   76.74    7.36   1
  -2  -5  -4   52.71    3.34   1
  -2  -5  -3  190.16    7.17   1
  -2  -5  -2  124.55    3.79   1
  -2  -5  -1  364.05    8.01   1
  -2  -4  -5    5.81    2.60   1
  -2  -4  -4    0.00    1.00   1
  -2  -4  -3    3.69    1.00   1
  -2  -4  -2    0.50    0.60   1
  -2  -4  -1    5.38    0.79   1
  -2  -3  -5   16.89    3.62   1
  -2  -3  -4   81.54    5.06   1
  -2  -3  -3   50.84    2.14   1
  -2  -3  -2  230.74    5.77   1
  -2  -3  -1  111.09    2.95   1
  -2  -2  -5   20.61    3.27   1
  -2  -2  -4   17.89    2.28   1
  -2  -2  -3   47.33    1.65   1
  -2  -2  -2   68.23    2.15   1
  -2  -2  -1  106.50    2.89   1
  -2  -1  -5   54.91    5.48   1
  -2  -1  -4   47.06    4.25   1
  -2  -1  -3  131.56    3.67   1
  -2  -1  -2  110.25    2.94   1
  -2  -1  -1  226.20    5.41   1
  -1 -19  -2    8.58    2.99   1
  -1 -19  -1    6.10    3.61   1
  -1 -18  -2  180.90   16.14   1
  -1 -18  -1  188.51   11.81   1
  -1 -17  -2   20.88    3.93   1
  -1 -17  -1  134.10    9.96   1
  -1 -16  -1   40.96    3.71   1
  -1 -15  -3   -0.20    2.52   1
  -1 -15  -1   -0.30    0.41   1
  -1 -14  -4    9.49    3.39   1
  -1 -14  -3    4.41    2.81   1
  -1 -14  -2    9.12    2.72   1
  -1 -14  -1    5.11    0.50   1
  -1 -13  -4    9.49    3.39   1
  -1 -13  -3   33.76    4.76   1
  -1 -13  -2   12.89    2.80   1
  -1 -13  -1   65.77    2.11   1
  -1 -12  -4   42.64    5.49   1
  -1 -12  -3   55.06    5.34   1
  -1 -12  -2   87.05    6.16   1
  -1 -12  -1   91.97    2.49   1
  -1 -11  -4   19.54    3.80   1
  -1 -11  -3  149.33   10.02   1
  -1 -11  -2   33.29    3.35   1
  -1 -11  -1  282.58    5.72   1
  -1 -10  -5  106.92   12.61   1
  -1 -10  -4   38.69    5.35   1
  -1 -10  -3  342.25   17.02   1
  -1 -10  -2   72.93    4.78   1
  -1 -10  -1  581.29   10.61   1
  -1  -9  -5   11.09    3.60   1
  -1  -9  -4   10.63    3.00   1
  -1  -9  -3   30.25    3.41   1
  -1  -9  -2   21.44    1.94   1
  -1  -9  -1   60.37    1.55   1
  -1  -8  -5   24.21    5.02   1
  -1  -8  -4   21.44    3.52   1
  -1  -8  -3   66.91    2.94   1
  -1  -8  -2   35.05    1.54   1
  -1  -8  -1  118.59    2.40   1
  -1  -7  -5    2.59    3.09   1
  -1  -7  -4   11.22    2.68   1
  -1  -7  -3    1.39    0.80   1
  -1  -7  -2   49.56    1.83   1
  -1  -7  -1    6.00    1.18   1
  -1  -6  -5   54.76    6.66   1
  -1  -6  -4   31.36    3.58   1
  -1  -6  -3  131.79    4.82   1
  -1  -6  -2   56.25    2.10   1
  -1  -6  -1  251.54    6.03   1
  -1  -5  -5   82.45    7.63   1
  -1  -5  -4   51.41    3.15   1
  -1  -5  -3  222.31    5.67   1
  -1  -5  -2  141.85    3.33   1
  -1  -5  -1  423.95    9.47   1
  -1  -4  -5  258.57   18.01   1
  -1  -4  -4  210.83    6.97   1
  -1  -4  -3  700.66   14.29   1
  -1  -4  -2  416.98    8.58   1
  -1  -4  -1 1134.34   22.90   1
  -1  -3  -5   43.43    5.80   1
  -1  -3  -4   58.22    2.59   1
  -1  -3  -3  134.79    3.72   1
  -1  -3  -2  128.60    3.40   1
  -1  -3  -1  249.96    6.01   1
  -1  -2  -5   34.69    5.42   1
  -1  -2  -4   34.57    2.00   1
  -1  -2  -3   90.82    2.67   1
  -1  -2  -2   87.98    2.25   1
  -1  -2  -1  151.78    3.20   1
  -1  -1  -5    1.21    1.91   1
  -1  -1  -4    4.00    1.20   1
  -1  -1  -3    7.51    0.82   1
  -1  -1  -2    8.41    0.70   1
  -1  -1  -1   16.48    0.57   1
   0   0   1 1266.65   30.61   1
   0   0   2 3803.19   88.80   1
   0   0   3  751.31   21.38   1
   0   0   4 2099.47   75.14   1
   0   0   5  280.23   18.08   1
   0   2   1  128.60    2.72   1
   0   2   2   72.25    1.87   1
   0   2   3   75.00    2.42   1
   0   2   4   33.76    1.98   1
   0   2   5   40.45    3.31   1
   0   4   0  290.70    7.84   1
   0   4   1   55.50    1.34   1
   0   4   2  186.60    4.10   1
   0   4   3   22.94    0.96   1
   0   4   4   77.97    3.00   1
   0   4   5   13.99    2.02   1
   0   6   0  330.15   13.08   1
   0   6   1  127.01    2.70   1
   0   6   2  244.30    5.31   1
   0   6   3   49.42    1.97   1
   0   6   4  105.68    5.14   1
   0   6   5    7.90    2.98   1
   0   8   0  187.96    7.68   1
   0   8   1  549.43    9.84   1
   0   8   2  122.77    5.32   1
   0   8   3  331.97   10.57   1
   0   8   4   61.00    5.62   1
   0   8   5  118.81   11.34   1
   0  10   0  563.11   23.73   1
   0  10   1  165.64    3.86   1
   0  10   2  377.52   12.82   1
   0  10   3   87.61    6.18   1
   0  10   4  160.78   11.67   1
   0  10   5   47.06    7.00   1
   0  12   0  442.26   13.46   1
   0  12   1  244.61    6.57   1
   0  12   2  328.33   16.31   1
   0  12   3  129.28    8.64   1
   0  12   4  163.58   14.32   1
   0  14   0  624.50   18.99   1
   0  14   1  514.38   12.70   1
   0  16   0  153.51   10.66   1
   0  16   1   13.32    3.29   1
   0  18   0   -0.90    1.31   1
   0  18   1   16.40    4.13   1
   0  18   2   -1.99    2.79   1
   1   1   1   16.89    0.74   1
   1   1   2    8.18    0.57   1
   1   1   3    9.12    0.91   1
   1   1   4    2.50    1.11   1
   1   1   5    4.00    1.80   1
   1   2   0  102.82    2.23   1
   1   2   1  159.01    3.28   1
   1   2   2   87.24    2.24   1
   1   2   3   87.42    2.62   1
   1   2   4   36.36    2.05   1
   1   2   5   30.14    2.85   1
   1   3   0  186.60    4.10   1
   1   3   1  258.57    5.79   1
   1   3   2  140.66    3.32   1
   1   3   3  135.96    3.73   1
   1   3   4   55.50    2.68   1
   1   3   5   43.16    3.68   1
   1   4   0  543.36   11.19   1
   1   4   1 1165.54   23.22   1
   1   4   2  445.21    8.86   1
   1   4   3  721.46   14.50   1
   1   4   4  202.21    6.83   1
   1   4   5  255.36   11.83   1
   1   5   0  204.78    4.29   1
   1   5   1  395.61    8.75   1
   1   5   2  145.68    3.38   1
   1   5   3  225.90    5.71   1
   1   5   4   63.84    2.88   1
   1   5   5   92.93    9.25   1
   1   6   0   84.82    2.21   1
   1   6   1  230.13    6.67   1
   1   6   2   58.37    1.53   1
   1   6   3  135.26    3.95   1
   1   6   4   31.02    2.12   1
   1   6   5   45.43    5.66   1
   1   7   0   64.96    1.77   1
   1   7   1    4.20    0.49   1
   1   7   2   45.56    1.75   1
   1   7   3    2.10    0.29   1
   1   7   4   12.53    1.13   1
   1   8   0   47.75    1.52   1
   1   8   1  117.94    2.82   1
   1   8   2   31.58    1.35   1
   1   8   3   62.57    3.16   1
   1   8   4   13.76    2.97   1
   1   9   0   25.60    1.01   1
   1   9   1   57.76    1.98   1
   1   9   2   19.98    0.98   1
   1   9   3   31.25    3.47   1
   1   9   4   10.89    3.89   1
   1  10   0   82.63    2.55   1
   1  10   1  626.00   14.01   1
   1  10   2   69.56    1.67   1
   1  10   3  322.56   17.24   1
   1  10   4   35.52    4.29   1
   1  11   0   39.94    1.64   1
   1  11   1  292.75    7.53   1
   1  11   3  156.00   12.74   1
   1  12   0  106.71    3.72   1
   1  12   1   98.21    3.17   1
   1  13   0   17.14    0.91   1
   1  13   1   70.73    2.86   1
   1  14   0   16.48    0.97   1
   1  14   1    4.88    0.71   1
   1  15   0   10.69    0.92   1
   1  15   1   -0.90    0.49   1
   1  16   0    3.61    1.22   1
   1  16   1   42.12    3.37   1
   1  17   0   26.63    2.06   1
   1  17   1  134.10    9.50   1
   1  18   0  184.69   14.95   1
   1  18   1  208.22   13.56   1
   1  19   1    4.71    2.00   1
   1  19   2    9.18    3.21   1
   2   0   0    6.10    0.49   1
   2   0   1   35.64    1.31   1
   2   0   2    7.29    0.59   1
   2   0   3   22.28    1.32   1
   2   0   4    5.11    1.58   1
   2   0   5    7.51    2.30   1
   2   1   0  129.05    3.18   1
   2   1   1  221.12    4.46   1
   2   1   2  116.21    3.02   1
   2   1   3  132.25    3.68   1
   2   1   4   47.61    2.76   1
   2   1   5   51.12    5.72   1
   2   2   0  102.82    2.23   1
   2   2   1  102.01    2.22   1
   2   2   2   64.96    1.93   1
   2   2   3   49.98    1.84   1
   2   2   4   23.81    1.56   1
   2   2   5   13.10    2.68   1
   2   3   0  373.65    6.96   1
   2   3   1  109.83    2.31   1
   2   3   2  236.85    5.23   1
   2   3   3   52.13    1.88   1
   2   3   4   96.24    3.92   1
   2   3   5   18.92    3.57   1
   2   4   0    0.79    0.39   1
   2   4   1    8.01    0.68   1
   2   4   2    0.71    0.30   1
   2   4   3    2.79    0.70   1
   2   4   4   -0.30    0.70   1
   2   4   5    0.59    1.59   1
   2   5   0  170.30    3.92   1
   2   5   1  369.41   10.76   1
   2   5   2  116.64    2.38   1
   2   5   3  197.12    5.34   1
   2   5   4   53.44    2.49   1
   2   6   0  192.65    4.72   1
   2   6   1  229.52    7.57   1
   2   6   2  144.48    4.57   1
   2   6   3  105.47    2.88   1
   2   6   4   56.55    2.26   1
   2   7   0 1697.44   33.78   1
   2   7   1 1021.44   26.85   1
   2   7   2 1409.25   29.28   1
   2   7   3  581.29   11.09   1
   2   7   4  626.50   20.02   1
   2   8   0  219.04    5.33   1
   2   8   1  120.78    4.18   1
   2   8   2  159.26    5.30   1
   2   8   3   61.62    2.98   1
   2   8   4   64.00    5.28   1
   2   9   0  125.44    3.14   1
   2   9   1   41.99    1.94   1
   2   9   2  101.81    3.63   1
   2   9   3   27.67    1.68   1
   2  10   0    3.39    0.59   1
   2  10   1    9.00    0.72   1
   2  10   2    1.90    0.50   1
   2  10   3    3.61    0.68   1
   2  11   0    7.67    0.61   1
   2  11   1    0.40    0.40   1
   2  11   2    5.20    0.50   1
   2  12   0    2.31    0.49   1
   2  12   1   28.62    1.39   1
   2  12   2    0.90    0.30   1
   2  13   0   21.44    1.39   1
   2  13   1   13.18    0.87   1
   2  13   2   17.72    1.01   1
   2  14   0   93.90    4.07   1
   2  14   1   19.36    1.32   1
   2  15   0  148.60    5.12   1
   2  15   1  285.27   14.86   1
   2  16   0   12.82    1.50   1
   2  16   1   46.10    3.67   1
   2  17   0   52.71    3.48   1
   2  18   0   16.16    2.33   1
   2  19   1   46.51    6.27   1
   3   1   0  602.70   10.80   1
   3   1   1  326.16    7.59   1
   3   1   2  384.55    8.63   1
   3   1   3  168.22    5.19   1
   3   1   4  163.58    8.19   1
   3   1   5   65.93    4.55   1
   3   2   0   36.00    0.96   1
   3   2   1   53.29    1.61   1
   3   2   2   19.89    0.89   1
   3   2   3   22.28    1.42   1
   3   2   4    6.92    1.58   1
   3   2   5    9.00    1.62   1
   3   3   0  750.76   13.15   1
   3   3   1 1576.09   30.17   1
   3   3   2  535.00   10.64   1
   3   3   3  925.98   18.26   1
   3   3   4  237.47    7.70   1
   3   3   5  377.14   16.70   1
   3   4   0   10.50    0.58   1
   3   4   1    7.08    0.48   1
   3   4   2    7.62    0.50   1
   3   4   3    2.50    0.70   1
   3   4   4    2.50    0.70   1
   3   4   5   -0.20    2.21   1
   3   5   0  307.30    5.96   1
   3   5   1  135.49    3.26   1
   3   5   2  234.40    5.21   1
   3   5   3   55.50    1.94   1
   3   5   4  100.80    4.82   1
   3   6   0   11.42    0.68   1
   3   6   1    2.19    0.30   1
   3   6   2    8.01    0.40   1
   3   6   3    1.39    0.31   1
   3   6   4    4.88    1.02   1
   3   7   0  110.25    2.94   1
   3   7   1  111.51    2.96   1
   3   7   2   71.23    3.04   1
   3   7   3   57.15    1.66   1
   3   7   4   30.91    2.56   1
   3   8   0    5.52    0.61   1
   3   8   1    9.12    0.48   1
   3   8   2    2.79    0.70   1
   3   8   3    3.39    0.81   1
   3   8   4    0.90    0.80   1
   3   9   0   51.84    1.58   1
   3   9   1   18.32    1.20   1
   3   9   2   39.19    2.00   1
   3   9   3   15.13    1.63   1
   3  10   0   32.15    1.25   1
   3  10   1    3.39    0.81   1
   3  10   2   20.79    1.46   1
   3  10   3    2.19    0.71   1
   3  11   0 1576.09   28.58   1
   3  11   1  440.16   10.91   1
   3  11   2 1269.50   47.03   1
   3  11   3  284.93   12.15   1
   3  12   0    7.62    0.72   1
   3  12   1    4.71    0.69   1
   3  12   2    5.20    0.59   1
   3  13   0   17.64    1.09   1
   3  13   1  190.16    6.07   1
   3  13   2   14.67    1.07   1
   3  14   0   13.76    1.19   1
   3  14   1   -0.20    0.50   1
   3  14   2    9.30    1.10   1
   3  15   0  127.92    5.66   1
   3  16   0    2.79    2.00   1
   3  16   1    0.30    1.10   1
   3  17   0   36.12    2.76   1
   3  18   0    3.80    2.30   1
   4   0   0  338.19    9.56   1
   4   0   1  835.79   15.03   1
   4   0   2  243.67    6.24   1
   4   0   3  473.93   10.01   1
   4   0   4  108.58    4.79   1
   4   0   5  200.22   11.32   1
   4   1   0  371.33    6.94   1
   4   1   1  746.93   13.66   1
   4   1   2  250.91    5.39   1
   4   1   3  424.36    9.06   1
   4   1   4  108.78    4.80   1
   4   1   5  165.89    8.76   1
   4   2   0  151.78    3.45   1
   4   2   1  353.82    8.28   1
   4   2   2  103.43    2.64   1
   4   2   3  177.69    4.53   1
   4   2   4   44.22    2.39   1
   4   2   5   55.80    4.33   1
   4   3   0   16.08    0.72   1
   4   3   1   25.50    1.01   1
   4   3   2   10.18    0.70   1
   4   3   3   14.67    1.00   1
   4   3   4    3.61    0.80   1
   4   3   5    9.12    2.17   1
   4   4   0   -0.20    0.50   1
   4   4   1   25.10    1.00   1
   4   4   2    0.59    0.49   1
   4   4   3   14.52    1.07   1
   4   4   4    1.21    0.70   1
   4   4   5    7.29    2.11   1
   4   5   0    1.30    0.50   1
   4   5   1   59.91    1.86   1
   4   5   2    1.39    0.40   1
   4   5   3   37.82    1.60   1
   4   5   4   -0.59    1.09   1
   4   6   0    6.60    0.62   1
   4   6   1  212.87    5.25   1
   4   6   2    6.00    0.39   1
   4   6   3  115.56    3.65   1
   4   6   4    3.88    0.99   1
   4   7   0  249.96    6.01   1
   4   7   1  371.33    8.48   1
   4   7   2  184.42    6.52   1
   4   7   3  214.62    4.98   1
   4   7   4   96.43    6.87   1
   4   8   0  117.94    3.04   1
   4   8   1  264.71    6.51   1
   4   8   2   86.86    3.54   1
   4   8   3  138.06    7.52   1
   4   8   4   43.16    3.68   1
   4   9   0   32.04    1.25   1
   4   9   1  216.97    5.30   1
   4   9   2   24.30    1.87   1
   4   9   3  115.35    6.66   1
   4  10   0    6.81    0.63   1
   4  10   1    0.59    0.40   1
   4  10   2    5.38    1.02   1
   4  10   3    0.90    0.80   1
   4  11   0   13.99    0.90   1
   4  11   1   21.07    1.38   1
   4  11   2   10.69    1.37   1
   4  11   3    6.40    1.21   1
   4  12   0    1.00    0.60   1
   4  12   1   34.57    1.65   1
   4  12   2    4.71    1.39   1
   4  13   0   88.36    3.01   1
   4  13   1  166.15    5.93   1
   4  13   2   75.86    4.18   1
   4  14   0  225.60    6.61   1
   4  14   1  245.86    8.78   1
   4  14   2  180.63    9.68   1
   4  15   0   31.02    2.34   1
   4  15   1  279.56   14.04   1
   4  16   0   25.81    3.05   1
   4  16   1   63.52    4.94   1
   4  17   0   23.91    2.93   1
   4  18   0    1.21    1.72   1
   5   1   0    4.00    0.60   1
   5   1   1    4.00    0.60   1
   5   1   2    3.39    0.70   1
   5   1   3    1.00    0.70   1
   5   1   4    0.10    2.23   1
   5   1   5    1.59    1.79   1
   5   2   0  236.85    4.92   1
   5   2   1  157.75    3.52   1
   5   2   2  171.61    4.19   1
   5   2   3   60.37    2.33   1
   5   2   4   74.13    3.44   1
   5   2   5   10.30    2.18   1
   5   3   0   75.00    1.91   1
   5   3   1    7.62    0.72   1
   5   3   2   54.46    1.77   1
   5   3   3    3.88    0.71   1
   5   3   4   22.47    1.61   1
   5   3   5    0.10    1.92   1
   5   4   0 1729.73   29.11   1
   5   4   1  940.65   19.63   1
   5   4   2 1354.98   24.29   1
   5   4   3  515.74   12.72   1
   5   4   4  668.22   21.71   1
   5   4   5  177.69   15.73   1
   5   5   0  162.56    3.57   1
   5   5   1  119.90    3.29   1
   5   5   2  111.09    2.74   1
   5   5   3   65.45    2.27   1
   5   5   4   44.76    2.54   1
   5   5   5   20.70    3.28   1
   5   6   0  198.53    4.51   1
   5   6   1  308.35    7.02   1
   5   6   2  143.52    3.59   1
   5   6   3  169.52    5.21   1
   5   6   4   70.22    3.35   1
   5   7   0   30.36    1.10   1
   5   7   1    2.40    0.50   1
   5   7   2   20.34    0.81   1
   5   7   3    0.90    0.30   1
   5   7   4    5.29    1.52   1
   5   8   0  518.02   11.84   1
   5   8   1  202.21    5.12   1
   5   8   2  385.73   12.96   1
   5   8   3  108.78    5.63   1
   5   8   4  186.60   12.02   1
   5   9   0   15.68    1.03   1
   5   9   1    0.59    0.49   1
   5   9   2    9.99    1.33   1
   5   9   3    1.49    1.20   1
   5  10   0  222.31    5.96   1
   5  10   1  244.61    6.26   1
   5  10   2  180.63    7.80   1
   5  10   3  140.66    8.30   1
   5  11   0    5.38    0.70   1
   5  11   1   18.92    1.04   1
   5  11   2    5.29    1.01   1
   5  11   3    5.81    1.40   1
   5  12   0  137.36    4.22   1
   5  12   1    3.80    0.59   1
   5  12   2  109.62    6.49   1
   5  13   0   -0.30    0.61   1
   5  13   1    1.00    0.60   1
   5  13   2   -0.50    0.81   1
   5  14   0  124.77    4.69   1
   5  14   1   63.68    3.99   1
   5  14   2  110.88    7.58   1
   5  15   0    0.20    1.31   1
   5  15   1    1.69    1.59   1
   5  16   0   32.15    2.38   1
   5  16   1    5.81    1.30   1
   5  17   0   32.83    4.01   1
   5  17   1   38.94    4.74   1
   5  18   0  554.60   32.97   1
   6   0   0 1694.97   41.17   1
   6   0   1  765.08   13.83   1
   6   0   2 1335.90   24.85   1
   6   0   3  443.94   11.80   1
   6   0   4  669.26   22.25   1
   6   0   5  200.79   10.20   1
   6   1   0   62.73    1.74   1
   6   1   1   49.42    1.55   1
   6   1   2   44.76    1.47   1
   6   1   3   23.52    1.36   1
   6   1   4   13.69    2.22   1
   6   1   5   12.67    2.21   1
   6   2   0   27.88    1.06   1
   6   2   1  155.00    3.49   1
   6   2   2   16.89    0.99   1
   6   2   3   86.86    3.17   1
   6   2   4    2.10    1.10   1
   6   2   5   33.41    4.28   1
   6   3   0   31.58    1.12   1
   6   3   1    1.39    0.50   1
   6   3   2   19.98    0.89   1
   6   3   3    0.20    0.91   1
   6   3   4    9.99    1.58   1
   6   3   5    0.50    2.00   1
   6   4   0  100.00    2.60   1
   6   4   1  132.71    3.23   1
   6   4   2   77.79    2.29   1
   6   4   3   70.06    2.68   1
   6   4   4   29.59    2.28   1
   6   4   5   22.56    5.03   1
   6   5   0   27.67    1.05   1
   6   5   1    4.28    0.58   1
   6   5   2   19.80    1.07   1
   6   5   3    1.80    0.59   1
   6   5   4    6.00    1.08   1
   6   5   5    0.00    1.00   1
   6   6   0  303.11    6.62   1
   6   6   1  203.63    6.56   1
   6   6   2  238.70    6.49   1
   6   6   3  114.28    4.06   1
   6   6   4  108.58    8.13   1
   6   7   0   25.10    1.10   1
   6   7   1   89.11    2.64   1
   6   7   2   17.47    1.00   1
   6   7   3   48.86    1.96   1
   6   7   4    7.90    1.80   1
   6   8   0   74.65    2.25   1
   6   8   1 1034.91   21.88   1
   6   8   2   60.68    2.34   1
   6   8   3  594.87   26.83   1
   6   8   4   32.49    3.65   1
   6   9   0   30.47    1.44   1
   6   9   1  153.02    4.21   1
   6   9   2   20.70    2.09   1
   6   9   3   79.74    5.72   1
   6   9   4    9.61    1.80   1
   6  10   0  346.70    8.57   1
   6  10   1  116.42    3.67   1
   6  10   2  263.09   12.65   1
   6  10   3   73.10    5.99   1
   6  11   0   -0.40    0.59   1
   6  11   1    0.50    0.50   1
   6  11   2    0.40    1.00   1
   6  11   3   -0.20    0.91   1
   6  12   0   25.81    1.52   1
   6  12   1   99.80    3.80   1
   6  12   2   24.70    2.19   1
   6  12   3   56.10    4.64   1
   6  13   0    0.79    0.69   1
   6  13   1   37.45    2.08   1
   6  13   2    2.59    1.09   1
   6  14   0   95.26    4.10   1
   6  14   1  393.23   19.43   1
   6  14   2   84.09    5.87   1
   6  15   0    1.90    1.21   1
   6  15   1    6.92    2.31   1
   6  16   0   70.22    4.02   1
   6  16   1    1.49    1.29   1
   6  17   0    1.59    2.49   1
   6  17   1   -1.90    1.79   1
   6  18   0    3.39    1.99   1
   7   1   0  178.22    4.01   1
   7   1   1  233.48    6.42   1
   7   1   2  122.99    3.77   1
   7   1   3  122.77    4.43   1
   7   1   4   54.76    3.55   1
   7   1   5   40.96    3.84   1
   7   2   0  245.55    5.33   1
   7   2   1  227.10    5.43   1
   7   2   2  171.61    4.72   1
   7   2   3  133.40    6.01   1
   7   2   4   86.30    4.83   1
   7   2   5   42.90    6.03   1
   7   3   0  412.90    8.53   1
   7   3   1  384.55    8.24   1
   7   3   2  290.36    7.50   1
   7   3   3  213.16    6.72   1
   7   3   4  142.56    6.69   1
   7   3   5   87.42    8.04   1
   7   4   0  131.10    3.66   1
   7   4   1  206.78    4.89   1
   7   4   2   87.24    2.99   1
   7   4   3  114.92    3.86   1
   7   4   4   47.20    3.43   1
   7   4   5   36.24    4.82   1
   7   5   0  107.33    2.90   1
   7   5   1   67.90    2.14   1
   7   5   2   88.92    3.39   1
   7   5   3   41.86    1.94   1
   7   5   4   36.24    2.53   1
   7   5   5   26.83    4.97   1
   7   6   0   14.29    0.91   1
   7   6   1    5.90    0.78   1
   7   6   2   10.11    0.89   1
   7   6   3    2.99    0.80   1
   7   6   4    6.50    1.78   1
   7   7   0    7.78    0.78   1
   7   7   1    3.61    0.68   1
   7   7   2    6.50    0.71   1
   7   7   3    2.10    0.49   1
   7   7   4    5.71    1.91   1
   7   8   0    2.10    0.70   1
   7   8   1    2.89    0.88   1
   7   8   2    1.59    0.40   1
   7   8   3    0.50    0.40   1
   7   8   4    0.00    1.00   1
   7   9   0   10.82    0.92   1
   7   9   1    1.69    0.70   1
   7   9   2    9.67    0.68   1
   7   9   3    4.41    1.81   1
   7   9   4    1.69    1.69   1
   7  10   0  190.16    5.52   1
   7  10   1  220.52    5.94   1
   7  10   2  134.79    8.59   1
   7  10   3  134.10    9.26   1
   7  11   0  385.34   10.21   1
   7  11   1  437.65   11.72   1
   7  11   2  324.00   16.92   1
   7  11   3  247.75   15.43   1
   7  12   0  203.35    6.27   1
   7  12   1   91.78    4.22   1
   7  12   2  162.31    7.64   1
   7  12   3   56.55    4.36   1
   7  13   0   24.40    1.58   1
   7  13   1   32.15    2.04   1
   7  13   2   25.50    2.22   1
   7  14   0   17.72    1.77   1
   7  14   1    0.20    1.61   1
   7  14   2   15.76    2.06   1
   7  15   0   17.98    1.87   1
   7  15   1   27.35    3.24   1
   7  16   0    6.71    1.19   1
   7  16   1   -2.40    2.01   1
   7  17   0   16.97    3.63   1
   7  17   1   58.68    5.67   1
   7  18   0   20.88    4.39   1
   8   0   0   -0.50    0.91   1
   8   0   1    1.69    0.70   1
   8   0   2   -2.10    0.81   1
   8   0   3    0.71    1.21   1
   8   0   4    0.40    1.50   1
   8   0   5    0.20    1.61   1
   8   1   0  285.95    6.76   1
   8   1   1  292.75    6.84   1
   8   1   2  216.68    6.18   1
   8   1   3  176.89    6.12   1
   8   1   4  102.01    5.05   1
   8   1   5   53.88    6.61   1
   8   2   0    4.58    0.81   1
   8   2   1    6.10    0.69   1
   8   2   2    5.38    1.21   1
   8   2   3    4.49    1.10   1
   8   2   4    3.80    1.60   1
   8   2   5   -0.50    2.81   1
   8   3   0  699.07   13.75   1
   8   3   1  260.82    5.81   1
   8   3   2  543.82   21.45   1
   8   3   3  145.68    5.31   1
   8   3   4  238.08    9.57   1
   8   3   5   51.84    6.62   1
   8   4   0    0.50    0.70   1
   8   4   1    2.59    0.71   1
   8   4   2   -0.79    0.89   1
   8   4   3    0.71    0.81   1
   8   4   4    1.49    1.10   1
   8   4   5    5.02    2.28   1
   8   5   0   28.52    1.28   1
   8   5   1   98.41    2.98   1
   8   5   2   22.47    1.71   1
   8   5   3   70.22    3.02   1
   8   5   4   18.32    3.00   1
   8   6   0    0.50    0.70   1
   8   6   1    5.11    0.90   1
   8   6   2    1.39    0.80   1
   8   6   3    7.40    1.52   1
   8   6   4   -0.20    1.61   1
   8   7   0 1377.89   26.73   1
   8   7   1  472.19   11.73   1
   8   7   2 1089.66   30.37   1
   8   7   3  297.22   11.72   1
   8   7   4  593.41   33.13   1
   8   8   0   28.09    1.48   1
   8   8   1   17.47    1.34   1
   8   8   2   21.07    1.29   1
   8   8   3    4.88    2.08   1
   8   8   4    8.82    2.73   1
   8   9   0   24.90    1.50   1
   8   9   1   20.61    1.27   1
   8   9   2   20.34    1.44   1
   8   9   3    9.00    1.80   1
   8   9   4   14.59    2.83   1
   8  10   0    0.30    0.61   1
   8  10   1   13.99    1.20   1
   8  10   2    0.30    0.30   1
   8  10   3    2.79    1.60   1
   8  11   0   72.59    3.07   1
   8  11   1   14.67    1.30   1
   8  11   2   57.30    3.94   1
   8  11   3    9.80    2.00   1
   8  12   0    0.59    0.80   1
   8  12   1   -0.20    0.80   1
   8  12   2    2.99    2.21   1
   8  12   3    0.40    1.50   1
   8  13   0   97.81    4.75   1
   8  13   1   14.52    1.30   1
   8  13   2   82.26    5.26   1
   8  14   0    6.30    1.31   1
   8  14   1    0.90    1.50   1
   8  14   2    8.01    1.81   1
   8  15   0  305.20   12.23   1
   8  15   1  362.90   22.10   1
   8  16   0   -5.90    1.99   1
   8  16   1    2.59    2.61   1
   8  17   0   82.99    8.20   1
   8  17   1   84.27    7.89   1
   8  18   0    0.50    2.10   1
   9   1   0   19.10    1.22   1
   9   1   1   25.20    1.31   1
   9   1   2   16.32    1.54   1
   9   1   3   15.60    1.82   1
   9   1   4   13.18    1.89   1
   9   2   0    3.20    0.72   1
   9   2   1  143.52    3.59   1
   9   2   2    4.88    1.11   1
   9   2   3   83.36    3.65   1
   9   2   4    2.89    1.39   1
   9   3   0  121.66    3.31   1
   9   3   1 1071.91   20.95   1
   9   3   2   96.83    4.13   1
   9   3   3  662.55   15.96   1
   9   3   4   51.84    3.46   1
   9   4   0   22.66    1.24   1
   9   4   1  156.50    4.25   1
   9   4   2   17.64    1.60   1
   9   4   3  101.00    4.02   1
   9   4   4    8.29    1.61   1
   9   5   0  233.78    5.81   1
   9   5   1   72.42    2.55   1
   9   5   2  179.83    6.97   1
   9   5   3   44.89    2.95   1
   9   5   4   82.63    8.36   1
   9   6   0   28.94    1.40   1
   9   6   1    9.99    1.20   1
   9   6   2   23.14    1.64   1
   9   6   3    8.53    1.23   1
   9   6   4    5.02    2.60   1
   9   7   0    1.49    0.81   1
   9   7   1   17.14    1.41   1
   9   7   2    0.30    0.80   1
   9   7   3   10.30    1.22   1
   9   7   4    1.99    2.40   1
   9   8   0    3.80    1.09   1
   9   8   1   19.98    1.61   1
   9   8   2    1.59    0.91   1
   9   8   3   11.22    2.28   1
   9   8   4   -0.71    1.61   1
   9   9   0   11.70    1.23   1
   9   9   1  153.51    7.68   1
   9   9   2   12.39    1.20   1
   9   9   3   90.63    6.66   1
   9   9   4    5.90    2.92   1
   9  10   0   61.62    2.83   1
   9  10   1   94.48    4.67   1
   9  10   2   51.27    2.72   1
   9  11   0  258.57    8.68   1
   9  11   1  208.80    8.09   1
   9  11   2  215.80   12.34   1
   9  11   3  124.99    8.94   1
   9  12   0   30.36    2.31   1
   9  12   1   30.25    2.20   1
   9  12   2   25.70    3.04   1
   9  12   3   22.94    3.45   1
   9  13   0    3.50    1.38   1
   9  13   1  162.31   10.45   1
   9  13   2    4.49    1.70   1
   9  14   0    0.90    1.31   1
   9  14   1    1.39    1.79   1
   9  14   2   -3.20    1.79   1
   9  15   0    6.00    1.42   1
   9  15   1   42.77    4.45   1
   9  16   0   -0.40    2.19   1
   9  16   1    0.40    3.09   1
   9  17   0   37.33    5.25   1
   9  17   1   70.73    7.06   1
   9  18   0    7.08    2.71   1
  10   0   0 1018.89   28.73   1
  10   0   1  344.84    9.28   1
  10   0   2  749.66   21.36   1
  10   0   3  215.50    9.40   1
  10   0   4  419.84   18.85   1
  10   1   0  243.05    5.92   1
  10   1   1   96.24    3.53   1
  10   1   2  188.79    6.87   1
  10   1   3   55.95    3.44   1
  10   1   4   85.01    5.72   1
  10   2   0   59.75    2.16   1
  10   2   1    4.28    1.28   1
  10   2   2   51.98    2.74   1
  10   2   3    1.99    1.18   1
  10   2   4   30.47    2.76   1
  10   3   0   26.52    1.65   1
  10   3   1   19.89    1.78   1
  10   3   2   20.88    1.83   1
  10   3   3    8.53    1.58   1
  10   3   4    8.12    1.99   1
  10   4   0  293.09    8.22   1
  10   4   1  102.82    4.06   1
  10   4   2  240.87    8.69   1
  10   4   3   53.73    3.37   1
  10   4   4   98.01    8.32   1
  10   5   0   26.32    1.64   1
  10   5   1    2.10    1.19   1
  10   5   2   24.90    1.90   1
  10   5   3    3.10    1.30   1
  10   5   4   10.63    2.61   1
  10   6   0   88.92    3.39   1
  10   6   1    8.70    1.42   1
  10   6   2   76.39    3.67   1
  10   6   3    5.52    1.41   1
  10   6   4   30.91    4.00   1
  10   7   0   98.01    3.96   1
  10   7   1   21.16    1.93   1
  10   7   2   81.18    4.14   1
  10   7   3   14.06    1.42   1
  10   7   4   49.56    5.35   1
  10   8   0  384.55   11.37   1
  10   8   1  236.54    8.92   1
  10   8   2  338.93   12.52   1
  10   8   3  130.19    9.81   1
  10   8   4  153.02   11.63   1
  10   9   0   61.94    2.68   1
  10   9   1  127.92    5.43   1
  10   9   2   44.76    2.94   1
  10   9   3   82.08    6.16   1
  10  10   0  169.78    6.25   1
  10  10   1  119.68    5.47   1
  10  10   2  132.02    6.66   1
  10  10   3   86.12    6.31   1
  10  11   0    1.21    1.21   1
  10  11   1    0.90    1.20   1
  10  11   2   -1.69    1.79   1
  10  11   3   -0.30    1.90   1
  10  12   0   31.81    2.48   1
  10  12   1   24.80    2.09   1
  10  12   2   32.15    3.52   1
  10  12   3   19.10    3.41   1
  10  13   0   76.56    4.03   1
  10  13   1   42.90    4.45   1
  10  13   2   59.91    5.26   1
  10  14   0  294.12   12.35   1
  10  14   1  101.40    7.85   1
  10  14   2  191.27   14.66   1
  10  15   0   10.37    2.77   1
  10  15   1   24.90    3.39   1
  10  16   0   -1.59    3.28   1
  10  16   1    3.31    2.22   1
  10  17   0    1.80    2.79   1
  10  17   1    0.90    2.20   1
  11   1   0    0.50    1.60   1
  11   1   1    3.50    1.31   1
  11   1   2    0.30    1.31   1
  11   1   3    2.69    1.31   1
  11   1   4    0.71    1.51   1
  11   2   0   73.96    3.61   1
  11   2   1    0.71    1.31   1
  11   2   2   53.73    3.23   1
  11   2   3    0.30    1.80   1
  11   2   4   25.60    2.83   1
  11   3   0    6.50    1.27   1
  11   3   1    2.50    1.39   1
  11   3   2    5.11    1.22   1
  11   3   3    1.21    1.41   1
  11   3   4    2.31    2.01   1
  11   4   0  579.36   18.29   1
  11   4   1  710.22   21.85   1
  11   4   2  477.86   16.18   1
  11   4   3  468.72   25.98   1
  11   4   4  249.32   18.63   1
  11   5   0    0.30    1.21   1
  11   5   1    5.62    1.28   1
  11   5   2    1.99    1.30   1
  11   5   3    0.59    1.09   1
  11   5   4    4.08    3.88   1
  11   6   0   27.67    2.31   1
  11   6   1  222.90    8.36   1
  11   6   2   32.15    2.84   1
  11   6   3  133.63    6.47   1
  11   6   4   13.91    3.43   1
  11   7   0    1.21    1.30   1
  11   7   1    4.20    1.39   1
  11   7   2    1.80    1.10   1
  11   7   3    9.12    3.38   1
  11   7   4   -0.20    2.41   1
  11   8   0  135.72    5.82   1
  11   8   1  127.46    5.87   1
  11   8   2  116.64    5.18   1
  11   8   3   85.19    7.01   1
  11   9   0    0.50    1.11   1
  11   9   1    1.80    1.39   1
  11   9   2    0.00    1.00   1
  11   9   3   -1.00    2.20   1
  11  10   0   45.56    3.38   1
  11  10   1  336.72   13.21   1
  11  10   2   41.47    4.64   1
  11  10   3  226.20   15.04   1
  11  11   0   11.02    1.59   1
  11  11   1    2.40    1.30   1
  11  11   2    5.62    2.70   1
  11  11   3    3.88    3.70   1
  11  12   0   39.69    3.15   1
  11  12   1   44.62    3.07   1
  11  12   2   35.05    4.14   1
  11  13   0    3.80    1.60   1
  11  13   1    6.81    2.30   1
  11  13   2    4.49    2.59   1
  11  14   0   73.96    4.64   1
  11  14   1   16.73    3.27   1
  11  14   2   62.57    6.49   1
  11  15   0    1.10    3.21   1
  11  15   1    1.10    2.10   1
  11  16   0   -0.90    2.30   1
  11  16   1   30.58    4.53   1
  12   0   0  442.68   19.36   1
  12   0   1  147.62    6.80   1
  12   0   2  350.44   13.85   1
  12   0   3   86.68    5.21   1
  12   0   4  160.53   10.39   1
  12   1   0  123.65    5.78   1
  12   1   1   88.92    4.34   1
  12   1   2   84.64    4.78   1
  12   1   3   51.70    3.74   1
  12   1   4   36.72    3.76   1
  12   2   0   17.14    1.90   1
  12   2   1  192.38    7.21   1
  12   2   2   13.69    1.92   1
  12   2   3  107.95    5.61   1
  12   2   4    8.01    1.92   1
  12   3   0   36.97    2.43   1
  12   3   1   52.56    3.34   1
  12   3   2   23.72    2.34   1
  12   3   3   32.15    2.61   1
  12   3   4   13.10    3.11   1
  12   4   0   24.90    2.40   1
  12   4   1    0.00    1.00   1
  12   4   2   19.36    2.20   1
  12   4   3   -0.79    1.50   1
  12   4   4    6.00    2.60   1
  12   5   0   11.22    1.88   1
  12   5   1    3.61    1.29   1
  12   5   2   10.37    1.48   1
  12   5   3    2.10    1.19   1
  12   5   4    4.28    2.82   1
  12   6   0  244.92    9.39   1
  12   6   1  130.42    5.71   1
  12   6   2  227.71    9.05   1
  12   6   3   88.92    7.73   1
  12   7   0   89.87    4.74   1
  12   7   1  127.01    6.09   1
  12   7   2   70.73    4.54   1
  12   7   3   85.56    6.66   1
  12   8   0   20.34    2.35   1
  12   8   1  253.13    9.23   1
  12   8   2   21.72    2.14   1
  12   8   3  156.50    9.76   1
  12   9   0    1.99    1.38   1
  12   9   1   22.00    1.97   1
  12   9   2    4.20    2.42   1
  12   9   3   23.62    3.79   1
  12  10   0    6.20    1.89   1
  12  10   1    4.20    1.39   1
  12  10   2    4.71    2.39   1
  12  10   3    3.69    3.19   1
  12  11   0   10.18    1.79   1
  12  11   1   13.91    1.87   1
  12  11   2    6.40    2.28   1
  12  11   3    9.42    3.32   1
  12  12   0   16.97    2.64   1
  12  12   1    5.81    2.41   1
  12  12   2    9.61    2.98   1
  12  13   0    4.41    1.60   1
  12  13   1   36.97    5.23   1
  12  13   2   -2.50    2.09   1
  12  14   0   58.37    7.64   1
  12  14   1  102.62   10.13   1
  12  15   0   24.90    5.29   1
  12  15   1   42.12    6.10   1
  13   1   0  193.77    8.35   1
  13   1   1  206.21    8.90   1
  13   1   2  150.31    7.60   1
  13   1   3  122.99    7.32   1
  13   2   0   54.46    3.39   1
  13   2   1   49.00    3.36   1
  13   2   2   35.05    2.96   1
  13   2   3   31.02    2.79   1
  13   3   0  353.06   13.53   1
  13   3   1  215.50    9.10   1
  13   3   2  293.44   12.68   1
  13   3   3  136.66    7.72   1
  13   4   0   24.60    2.48   1
  13   4   1   35.52    2.74   1
  13   4   2   18.49    2.06   1
  13   4   3   17.89    2.12   1
  13   5   0   66.75    3.92   1
  13   5   1    0.90    1.90   1
  13   5   2   53.44    3.36   1
  13   5   3    1.21    1.72   1
  13   6   0    6.50    1.48   1
  13   6   1    3.61    1.52   1
  13   6   2    4.58    1.58   1
  13   6   3   -2.50    2.91   1
  13   7   0   37.45    3.18   1
  13   7   1    6.92    1.53   1
  13   7   2   31.36    2.80   1
  13   7   3    0.40    2.60   1
  13   8   0    6.20    1.49   1
  13   8   1    2.79    1.60   1
  13   8   2    4.00    1.28   1
  13   8   3    5.02    2.51   1
  13   9   0   27.77    2.74   1
  13   9   1    9.92    1.70   1
  13   9   2   23.91    3.81   1
  13   9   3    0.59    2.28   1
  13  10   0   26.83    2.59   1
  13  10   1   21.90    2.25   1
  13  10   2   24.01    4.02   1
  13  11   0  587.09   24.71   1
  13  11   1  281.90   19.48   1
  13  11   2  433.47   33.73   1
  13  12   0   53.14    3.94   1
  13  12   1   -1.39    3.40   1
  13  12   2   46.10    6.38   1
  13  13   0   15.29    2.58   1
  13  13   1   15.52    4.57   1
  13  14   0    3.61    2.89   1
  13  14   1    3.80    3.20   1
  14   0   0    0.10    4.96   1
  14   0   1   26.63    2.48   1
  14   0   2    1.59    1.79   1
  14   0   3   14.67    2.68   1
  14   1   0   25.70    2.64   1
  14   1   1  287.64   12.21   1
  14   1   2   21.53    2.41   1
  14   1   3  173.98    9.50   1
  14   2   0    0.30    2.01   1
  14   2   1    2.89    1.50   1
  14   2   2    1.49    1.78   1
  14   2   3   -0.20    1.61   1
  14   3   0   31.36    2.69   1
  14   3   1    9.49    1.91   1
  14   3   2   24.50    2.67   1
  14   3   3    4.49    1.91   1
  14   4   0    2.69    2.00   1
  14   4   1    5.71    2.01   1
  14   4   2   -0.30    1.51   1
  14   4   3    1.59    1.49   1
  14   5   0    7.67    1.77   1
  14   5   1  177.16    8.52   1
  14   5   2    5.29    1.61   1
  14   5   3  109.41   10.46   1
  14   6   0    9.42    1.78   1
  14   6   1   44.76    3.61   1
  14   6   2    6.71    2.18   1
  14   6   3   22.37    3.97   1
  14   7   0  350.44   14.98   1
  14   7   1  402.80   15.65   1
  14   7   2  279.22   14.04   1
  14   7   3  230.74   20.05   1
  14   8   0    2.31    1.61   1
  14   8   1    0.79    1.50   1
  14   8   2    3.10    3.80   1
  14   9   0   53.14    3.64   1
  14   9   1   52.27    3.90   1
  14   9   2   38.56    5.84   1
  14  10   0   13.62    2.44   1
  14  10   1    7.08    1.81   1
  14  10   2   10.30    3.02   1
  14  11   0   -1.21    1.80   1
  14  11   1   -4.49    2.59   1
  14  12   0   -1.99    2.40   1
  14  12   1   -0.90    3.61   1
  14  13   0   10.63    4.30   1
  15   1   0    2.79    1.90   1
  15   1   1   21.07    2.66   1
  15   1   2   -1.10    2.39   1
  15   1   3   11.09    2.60   1
  15   2   0   19.18    2.63   1
  15   2   1    0.79    1.99   1
  15   2   2    9.67    2.11   1
  15   2   3    1.99    1.61   1
  15   3   0   98.80    5.57   1
  15   3   1  145.44    7.72   1
  15   3   2   82.45    5.63   1
  15   3   3   86.68    6.14   1
  15   4   0  258.89   11.58   1
  15   4   1  120.56    6.81   1
  15   4   2  188.24   10.70   1
  15   5   0  221.71   10.72   1
  15   5   1   34.46    3.17   1
  15   5   2  166.41    9.80   1
  15   6   0   84.64    4.97   1
  15   6   1   24.90    2.89   1
  15   6   2   52.71    4.50   1
  15   7   0   19.10    2.62   1
  15   7   1    1.10    1.81   1
  15   7   2   11.49    4.20   1
  15   8   0   43.43    3.95   1
  15   8   1   29.48    3.37   1
  15   8   2   29.70    5.45   1
  15   9   0   58.52    4.44   1
  15   9   1   50.41    4.54   1
  15  10   0   64.32    5.29   1
  15  10   1   11.42    3.72   1
  15  11   0   48.16    4.44   1
  16   0   0  643.13   36.01   1
  16   0   1  376.36   18.24   1
  16   0   2  435.56   22.12   1
  16   1   0   12.60    2.77   1
  16   1   1    8.70    2.77   1
  16   1   2   11.02    2.19   1
  16   2   0   45.29    3.90   1
  16   2   1   44.76    4.15   1
  16   2   2   31.02    3.23   1
  16   3   0    1.90    2.01   1
  16   3   1    1.21    1.72   1
  16   3   2   -0.79    1.58   1
  16   4   0   60.37    4.66   1
  16   4   1   11.29    2.42   1
  16   4   2   58.83    4.91   1
  16   5   0   -0.71    1.81   1
  16   5   1    1.90    1.79   1
  16   5   2   -2.31    1.61   1
  16   6   0    0.90    1.71   1
  16   6   1    9.12    2.17   1
  16   6   2   -0.30    2.51   1
  16   7   0   11.70    2.67   1
  16   7   1    3.10    2.11   1
  16   8   0   54.46    5.17   1
  16   8   1  162.31    9.68   1
  16   9   0    0.71    1.61   1
  17   1   0    0.10    2.43   1
  17   1   1    3.69    1.88   1
  17   2   0  108.58    7.50   1
  17   2   1   43.56    4.62   1
  17   3   0   23.52    3.10   1
  17   3   1   15.68    2.69   1
  17   4   0  116.64    7.34   1
  17   4   1  179.56   10.45   1
  17   5   0    5.90    3.01   1
  17   5   1    6.30    2.21   1
  17   6   0    0.90    2.20   1
   0   0   0    0.00    0.00   0
;
_shelx_hkl_checksum              33194
loop_
_space_group_symop_operation_xyz
'x, y, z'
'-x, -y, z'
'x+1/2, -y+1/2, -z'
'-x+1/2, y+1/2, -z'
'-x, -y, -z'
'x, y, -z'
'-x-1/2, y-1/2, z'
'x-1/2, -y-1/2, z'
loop_
_atom_site_label
_atom_site_type_symbol
_atom_site_fract_x
_atom_site_fract_y
_atom_site_fract_z
_atom_site_U_iso_or_equiv
_atom_site_adp_type
_atom_site_occupancy
_atom_site_site_symmetry_order
_atom_site_calc_flag
_atom_site_refinement_flags_posn
_atom_site_refinement_flags_adp
_atom_site_refinement_flags_occupancy
Yb1 Yb 0.34148(2) 0.31888(2) 0.0000 0.01110(11) Uani 1 2 d S T P
Co1 Co 0.03449(7) 0.40727(5) 0.0000 0.00922(18) Uani 1 2 d S T P
Co2 Co 0.14999(6) 0.09812(5) 0.0000 0.00663(18) Uani 1 2 d S T P
Al1 Al 0.02412(15) 0.13298(12) 0.5000 0.0085(4) Uani 1 2 d S T P
Al2 Al 0.16199(15) 0.37964(13) 0.5000 0.0095(4) Uani 1 2 d S T P
Al3 Al 0.23627(15) 0.17461(12) 0.5000 0.0091(4) Uani 1 2 d S T P
Al4 Al 0.33204(16) 0.49161(13) 0.5000 0.0095(4) Uani 1 2 d S T P
Al5 Al 0.45163(15) 0.18064(12) 0.5000 0.0088(4) Uani 1 2 d S T P
Al6 Al 0.09629(15) 0.25461(11) 0.0000 0.0102(4) Uani 1 2 d S T P
Al7 Al 0.33805(14) 0.04514(14) 0.0000 0.0113(4) Uani 1 2 d S T P
Al8 Al 0.0000 0.5000 0.5000 0.0082(5) Uani 1 4 d S T P
Al9 Al 0.0000 0.0000 0.0000 0.0099(5) Uani 1 4 d S T P
loop_
_atom_site_aniso_label
_atom_site_aniso_U_11
_atom_site_aniso_U_22
_atom_site_aniso_U_33
_atom_site_aniso_U_23
_atom_site_aniso_U_13
_atom_site_aniso_U_12
Yb1 0.00920(15) 0.01510(18) 0.00900(16) 0.000 0.000 -0.00126(10)
Co1 0.0094(4) 0.0096(4) 0.0087(4) 0.000 0.000 0.0006(3)
Co2 0.0069(4) 0.0075(4) 0.0055(4) 0.000 0.000 0.0004(3)
Al1 0.0076(8) 0.0094(9) 0.0086(8) 0.000 0.000 0.0005(7)
Al2 0.0075(8) 0.0107(9) 0.0105(9) 0.000 0.000 -0.0004(6)
Al3 0.0079(9) 0.0105(9) 0.0089(8) 0.000 0.000 -0.0012(6)
Al4 0.0103(9) 0.0093(9) 0.0088(9) 0.000 0.000 -0.0015(6)
Al5 0.0073(9) 0.0090(8) 0.0102(9) 0.000 0.000 0.0008(6)
Al6 0.0128(9) 0.0083(9) 0.0095(9) 0.000 0.000 0.0005(7)
Al7 0.0066(9) 0.0158(10) 0.0114(10) 0.000 0.000 0.0019(7)
Al8 0.0121(13) 0.0066(11) 0.0059(12) 0.000 0.000 0.0019(9)
Al9 0.0082(12) 0.0110(12) 0.0105(12) 0.000 0.000 -0.0027(9)
loop_
_atom_type_symbol
_atom_type_description
_atom_type_scat_dispersion_real
_atom_type_scat_dispersion_imag
_atom_type_scat_source
Yb Yb -0.3850 5.5486 'International Tables Vol C Tables 4.2.6.8 and 6.1.1.4'
Co Co 0.3494 0.9721 'International Tables Vol C Tables 4.2.6.8 and 6.1.1.4'
Al Al 0.0645 0.0514 'International Tables Vol C Tables 4.2.6.8 and 6.1.1.4'
loop_
_geom_angle_atom_site_label_1
_geom_angle_atom_site_label_2
_geom_angle_atom_site_label_3
_geom_angle
_geom_angle_site_symmetry_1
_geom_angle_site_symmetry_3
Al1 Yb1 Al1 79.76(5) 3_556 3
Al1 Yb1 Al2 150.62(5) 3_556 1_554
Al1 Yb1 Al2 93.08(4) 3 1_554
Al1 Yb1 Al2 93.08(4) 3_556 .
Al1 Yb1 Al2 150.62(5) 3 .
Al2 Yb1 Al2 79.22(4) 1_554 .
Al1 Yb1 Al5 54.28(4) 3_556 .
Al1 Yb1 Al5 103.23(4) 3 .
Al2 Yb1 Al5 153.84(5) 1_554 .
Al2 Yb1 Al5 95.13(4) . .
Al1 Yb1 Al5 103.23(4) 3_556 1_554
Al1 Yb1 Al5 54.28(4) 3 1_554
Al2 Yb1 Al5 95.13(4) 1_554 1_554
Al2 Yb1 Al5 153.84(5) . 1_554
Al5 Yb1 Al5 78.66(4) . 1_554
Al1 Yb1 Al3 92.83(4) 3_556 .
Al1 Yb1 Al3 148.68(5) 3 .
Al2 Yb1 Al3 106.83(4) 1_554 .
Al2 Yb1 Al3 59.28(5) . .
Al5 Yb1 Al3 50.39(5) . .
Al5 Yb1 Al3 99.09(4) 1_554 .
Al1 Yb1 Al3 148.68(5) 3_556 1_554
Al1 Yb1 Al3 92.83(4) 3 1_554
Al2 Yb1 Al3 59.29(5) 1_554 1_554
Al2 Yb1 Al3 106.83(4) . 1_554
Al5 Yb1 Al3 99.09(4) . 1_554
Al5 Yb1 Al3 50.39(5) 1_554 1_554
Al3 Yb1 Al3 77.76(4) . 1_554
Al1 Yb1 Al6 140.12(2) 3_556 .
Al1 Yb1 Al6 140.12(2) 3 .
Al2 Yb1 Al6 52.87(3) 1_554 .
Al2 Yb1 Al6 52.87(3) . .
Al5 Yb1 Al6 103.44(4) . .
Al5 Yb1 Al6 103.44(4) 1_554 .
Al3 Yb1 Al6 53.99(4) . .
Al3 Yb1 Al6 53.99(4) 1_554 .
Al1 Yb1 Al4 104.47(4) 3_556 1_554
Al1 Yb1 Al4 56.80(4) 3 1_554
Al2 Yb1 Al4 49.95(5) 1_554 1_554
Al2 Yb1 Al4 98.60(4) . 1_554
Al5 Yb1 Al4 155.41(5) . 1_554
Al5 Yb1 Al4 96.95(3) 1_554 1_554
Al3 Yb1 Al4 153.00(5) . 1_554
Al3 Yb1 Al4 96.33(3) 1_554 1_554
Al6 Yb1 Al4 101.12(4) . 1_554
Al1 Yb1 Al4 56.80(4) 3_556 .
Al1 Yb1 Al4 104.47(4) 3 .
Al2 Yb1 Al4 98.60(4) 1_554 .
Al2 Yb1 Al4 49.95(5) . .
Al5 Yb1 Al4 96.95(3) . .
Al5 Yb1 Al4 155.41(5) 1_554 .
Al3 Yb1 Al4 96.33(3) . .
Al3 Yb1 Al4 153.00(5) 1_554 .
Al6 Yb1 Al4 101.12(4) . .
Al4 Yb1 Al4 76.91(4) 1_554 .
Al1 Yb1 Al9 51.62(3) 3_556 3
Al1 Yb1 Al9 51.62(3) 3 3
Al2 Yb1 Al9 101.88(4) 1_554 3
Al2 Yb1 Al9 101.88(4) . 3
Al5 Yb1 Al9 104.28(3) . 3
Al5 Yb1 Al9 104.28(3) 1_554 3
Al3 Yb1 Al9 140.86(2) . 3
Al3 Yb1 Al9 140.86(2) 1_554 3
Al6 Yb1 Al9 143.92(3) . 3
Al4 Yb1 Al9 52.93(3) 1_554 3
Al4 Yb1 Al9 52.93(3) . 3
Al6 Co1 Al8 125.322(16) . .
Al6 Co1 Al8 125.322(16) . 1_554
Al8 Co1 Al8 109.33(3) . 1_554
Al6 Co1 Al7 124.93(7) . 3_455
Al8 Co1 Al7 71.40(3) . 3_455
Al8 Co1 Al7 71.40(3) 1_554 3_455
Al6 Co1 Al7 122.30(7) . 7_665
Al8 Co1 Al7 71.25(3) . 7_665
Al8 Co1 Al7 71.25(3) 1_554 7_665
Al7 Co1 Al7 112.77(5) 3_455 7_665
Al6 Co1 Al2 69.54(5) . .
Al8 Co1 Al2 64.19(4) . .
Al8 Co1 Al2 145.48(5) 1_554 .
Al7 Co1 Al2 129.46(3) 3_455 .
Al7 Co1 Al2 74.80(5) 7_665 .
Al6 Co1 Al2 69.54(5) . 1_554
Al8 Co1 Al2 145.48(5) . 1_554
Al8 Co1 Al2 64.19(4) 1_554 1_554
Al7 Co1 Al2 129.46(3) 3_455 1_554
Al7 Co1 Al2 74.80(5) 7_665 1_554
Al2 Co1 Al2 101.04(7) . 1_554
Al6 Co1 Al5 70.44(5) . 3_455
Al8 Co1 Al5 146.21(5) . 3_455
Al8 Co1 Al5 64.66(3) 1_554 3_455
Al7 Co1 Al5 75.42(5) 3_455 3_455
Al7 Co1 Al5 129.49(3) 7_665 3_455
Al2 Co1 Al5 139.98(6) . 3_455
Al2 Co1 Al5 64.82(5) 1_554 3_455
Al6 Co1 Al5 70.44(5) . 3_456
Al8 Co1 Al5 64.66(3) . 3_456
Al8 Co1 Al5 146.21(5) 1_554 3_456
Al7 Co1 Al5 75.42(5) 3_455 3_456
Al7 Co1 Al5 129.49(3) 7_665 3_456
Al2 Co1 Al5 64.82(5) . 3_456
Al2 Co1 Al5 139.98(6) 1_554 3_456
Al5 Co1 Al5 101.01(7) 3_455 3_456
Al6 Co1 Co1 178.54(7) . 5_565
Al8 Co1 Co1 54.664(15) . 5_565
Al8 Co1 Co1 54.664(15) 1_554 5_565
Al7 Co1 Co1 56.53(5) 3_455 5_565
Al7 Co1 Co1 56.24(5) 7_665 5_565
Al2 Co1 Co1 109.62(5) . 5_565
Al2 Co1 Co1 109.62(5) 1_554 5_565
Al5 Co1 Co1 110.40(5) 3_455 5_565
Al5 Co1 Co1 110.40(5) 3_456 5_565
Al9 Co2 Al6 110.80(5) . .
Al9 Co2 Al7 124.62(6) . .
Al6 Co2 Al7 124.58(7) . .
Al9 Co2 Al3 127.32(4) . 1_554
Al6 Co2 Al3 72.48(5) . 1_554
Al7 Co2 Al3 74.40(5) . 1_554
Al9 Co2 Al3 127.32(4) . .
Al6 Co2 Al3 72.48(5) . .
Al7 Co2 Al3 74.40(5) . .
Al3 Co2 Al3 104.36(7) 1_554 .
Al9 Co2 Al4 72.60(5) . 7_654
Al6 Co2 Al4 127.63(4) . 7_654
Al7 Co2 Al4 74.09(6) . 7_654
Al3 Co2 Al4 66.99(5) 1_554 7_654
Al3 Co2 Al4 148.49(7) . 7_654
Al9 Co2 Al4 72.60(5) . 7_655
Al6 Co2 Al4 127.63(4) . 7_655
Al7 Co2 Al4 74.09(6) . 7_655
Al3 Co2 Al4 148.49(7) 1_554 7_655
Al3 Co2 Al4 66.99(5) . 7_655
Al4 Co2 Al4 103.82(7) 7_654 7_655
Al9 Co2 Al1 68.59(4) . 1_554
Al6 Co2 Al1 68.94(5) . 1_554
Al7 Co2 Al1 129.64(4) . 1_554
Al3 Co2 Al1 64.21(5) 1_554 1_554
Al3 Co2 Al1 141.41(6) . 1_554
Al4 Co2 Al1 64.34(5) 7_654 1_554
Al4 Co2 Al1 141.19(6) 7_655 1_554
Al9 Co2 Al1 68.59(4) . .
Al6 Co2 Al1 68.94(5) . .
Al7 Co2 Al1 129.64(4) . .
Al3 Co2 Al1 141.41(6) 1_554 .
Al3 Co2 Al1 64.21(5) . .
Al4 Co2 Al1 141.19(6) 7_654 .
Al4 Co2 Al1 64.34(5) 7_655 .
Al1 Co2 Al1 100.72(7) 1_554 .
Co2 Al1 Co2 100.72(7) 1_556 .
Co2 Al1 Al3 56.73(4) 1_556 .
Co2 Al1 Al3 56.73(4) . .
Co2 Al1 Al4 56.84(4) 1_556 7_655
Co2 Al1 Al4 56.83(4) . 7_655
Al3 Al1 Al4 61.65(7) . 7_655
Co2 Al1 Al9 118.71(7) 1_556 .
Co2 Al1 Al9 51.71(2) . .
Al3 Al1 Al9 105.01(6) . .
Al4 Al1 Al9 63.30(4) 7_655 .
Co2 Al1 Al9 51.71(2) 1_556 1_556
Co2 Al1 Al9 118.71(7) . 1_556
Al3 Al1 Al9 105.01(6) . 1_556
Al4 Al1 Al9 63.30(4) 7_655 1_556
Al9 Al1 Al9 91.15(5) . 1_556
Co2 Al1 Al6 51.83(4) 1_556 1_556
Co2 Al1 Al6 118.30(8) . 1_556
Al3 Al1 Al6 63.11(6) . 1_556
Al4 Al1 Al6 105.15(7) 7_655 1_556
Al9 Al1 Al6 167.25(9) . 1_556
Al9 Al1 Al6 87.85(3) 1_556 1_556
Co2 Al1 Al6 118.30(8) 1_556 .
Co2 Al1 Al6 51.83(4) . .
Al3 Al1 Al6 63.11(6) . .
Al4 Al1 Al6 105.15(7) 7_655 .
Al9 Al1 Al6 87.85(3) . .
Al9 Al1 Al6 167.25(9) 1_556 .
Al6 Al1 Al6 90.32(7) 1_556 .
Co2 Al1 Al5 112.21(5) 1_556 3_456
Co2 Al1 Al5 112.21(5) . 3_456
Al3 Al1 Al5 95.65(8) . 3_456
Al4 Al1 Al5 157.30(9) 7_655 3_456
Al9 Al1 Al5 128.43(4) . 3_456
Al9 Al1 Al5 128.43(4) 1_556 3_456
Al6 Al1 Al5 60.40(5) 1_556 3_456
Al6 Al1 Al5 60.40(5) . 3_456
Co2 Al1 Al4 111.55(5) 1_556 3_456
Co2 Al1 Al4 111.55(5) . 3_456
Al3 Al1 Al4 155.84(9) . 3_456
Al4 Al1 Al4 94.18(7) 7_655 3_456
Al9 Al1 Al4 59.83(4) . 3_456
Al9 Al1 Al4 59.83(4) 1_556 3_456
Al6 Al1 Al4 129.35(5) 1_556 3_456
Al6 Al1 Al4 129.35(5) . 3_456
Al5 Al1 Al4 108.51(8) 3_456 3_456
Co2 Al1 Yb1 169.51(6) 1_556 3_455
Co2 Al1 Yb1 89.755(19) . 3_455
Al3 Al1 Yb1 131.71(5) . 3_455
Al4 Al1 Yb1 130.72(5) 7_655 3_455
Al9 Al1 Yb1 67.56(3) . 3_455
Al9 Al1 Yb1 122.29(6) 1_556 3_455
Al6 Al1 Yb1 123.28(7) 1_556 3_455
Al6 Al1 Yb1 68.86(4) . 3_455
Al5 Al1 Yb1 63.51(4) 3_456 3_455
Al4 Al1 Yb1 63.22(4) 3_456 3_455
Co2 Al1 Yb1 89.755(19) 1_556 3_456
Co2 Al1 Yb1 169.51(6) . 3_456
Al3 Al1 Yb1 131.71(5) . 3_456
Al4 Al1 Yb1 130.72(5) 7_655 3_456
Al9 Al1 Yb1 122.29(6) . 3_456
Al9 Al1 Yb1 67.56(3) 1_556 3_456
Al6 Al1 Yb1 68.86(4) 1_556 3_456
Al6 Al1 Yb1 123.28(7) . 3_456
Al5 Al1 Yb1 63.51(4) 3_456 3_456
Al4 Al1 Yb1 63.22(4) 3_456 3_456
Yb1 Al1 Yb1 79.76(5) 3_455 3_456
Co1 Al2 Co1 101.04(7) . 1_556
Co1 Al2 Al8 55.38(4) . .
Co1 Al2 Al8 55.38(4) 1_556 .
Co1 Al2 Al4 113.28(6) . .
Co1 Al2 Al4 113.28(6) 1_556 .
Al8 Al2 Al4 101.76(8) . .
Co1 Al2 Al5 57.60(4) . 3_456
Co1 Al2 Al5 57.60(4) 1_556 3_456
Al8 Al2 Al5 59.24(5) . 3_456
Al4 Al2 Al5 160.99(10) . 3_456
Co1 Al2 Al6 51.28(4) . .
Co1 Al2 Al6 117.81(7) 1_556 .
Al8 Al2 Al6 101.57(6) . .
Al4 Al2 Al6 128.51(5) . .
Al5 Al2 Al6 61.33(5) 3_456 .
Co1 Al2 Al6 117.81(7) . 1_556
Co1 Al2 Al6 51.28(4) 1_556 1_556
Al8 Al2 Al6 101.57(6) . 1_556
Al4 Al2 Al6 128.51(5) . 1_556
Al5 Al2 Al6 61.33(5) 3_456 1_556
Al6 Al2 Al6 90.05(7) . 1_556
Co1 Al2 Yb1 89.64(2) . .
Co1 Al2 Yb1 167.94(6) 1_556 .
Al8 Al2 Yb1 136.63(3) . .
Al4 Al2 Yb1 66.55(5) . .
Al5 Al2 Yb1 126.23(5) 3_456 .
Al6 Al2 Yb1 64.92(4) . .
Al6 Al2 Yb1 118.56(7) 1_556 .
Co1 Al2 Yb1 167.93(6) . 1_556
Co1 Al2 Yb1 89.64(2) 1_556 1_556
Al8 Al2 Yb1 136.63(4) . 1_556
Al4 Al2 Yb1 66.55(5) . 1_556
Al5 Al2 Yb1 126.23(5) 3_456 1_556
Al6 Al2 Yb1 118.56(7) . 1_556
Al6 Al2 Yb1 64.92(4) 1_556 1_556
Yb1 Al2 Yb1 79.22(4) . 1_556
Co2 Al3 Co2 104.36(7) 1_556 .
Co2 Al3 Al5 116.17(5) 1_556 .
Co2 Al3 Al5 116.17(5) . .
Co2 Al3 Al1 59.06(4) 1_556 .
Co2 Al3 Al1 59.06(4) . .
Al5 Al3 Al1 169.01(9) . .
Co2 Al3 Al4 56.67(4) 1_556 7_655
Co2 Al3 Al4 56.67(4) . 7_655
Al5 Al3 Al4 109.67(8) . 7_655
Al1 Al3 Al4 59.35(7) . 7_655
Co2 Al3 Al6 117.56(8) 1_556 .
Co2 Al3 Al6 51.29(4) . .
Al5 Al3 Al6 126.20(5) . .
Al1 Al3 Al6 60.03(5) . .
Al4 Al3 Al6 101.38(6) 7_655 .
Co2 Al3 Al6 51.29(4) 1_556 1_556
Co2 Al3 Al6 117.56(8) . 1_556
Al5 Al3 Al6 126.20(5) . 1_556
Al1 Al3 Al6 60.02(5) . 1_556
Al4 Al3 Al6 101.38(6) 7_655 1_556
Al6 Al3 Al6 87.05(7) . 1_556
Co2 Al3 Yb1 88.34(2) 1_556 1_556
Co2 Al3 Yb1 164.30(6) . 1_556
Al5 Al3 Yb1 64.22(4) . 1_556
Al1 Al3 Yb1 123.37(6) . 1_556
Al4 Al3 Yb1 138.97(3) 7_655 1_556
Al6 Al3 Yb1 114.68(6) . 1_556
Al6 Al3 Yb1 63.45(4) 1_556 1_556
Co2 Al3 Yb1 164.30(6) 1_556 .
Co2 Al3 Yb1 88.34(2) . .
Al5 Al3 Yb1 64.22(4) . .
Al1 Al3 Yb1 123.37(6) . .
Al4 Al3 Yb1 138.97(3) 7_655 .
Al6 Al3 Yb1 63.45(4) . .
Al6 Al3 Yb1 114.68(6) 1_556 .
Yb1 Al3 Yb1 77.76(4) 1_556 .
Co2 Al4 Co2 103.82(7) 7_666 7_665
Co2 Al4 Al2 116.19(6) 7_666 .
Co2 Al4 Al2 116.19(6) 7_665 .
Co2 Al4 Al1 58.82(4) 7_666 7_665
Co2 Al4 Al1 58.82(4) 7_665 7_665
Al2 Al4 Al1 168.63(10) . 7_665
Co2 Al4 Al3 56.35(4) 7_666 7_665
Co2 Al4 Al3 56.35(4) 7_665 7_665
Al2 Al4 Al3 109.62(9) . 7_665
Al1 Al4 Al3 59.00(7) 7_665 7_665
Co2 Al4 Al9 50.84(3) 7_666 3_556
Co2 Al4 Al9 116.86(7) 7_665 3_556
Al2 Al4 Al9 126.92(5) . 3_556
Al1 Al4 Al9 59.42(4) 7_665 3_556
Al3 Al4 Al9 100.45(6) 7_665 3_556
Co2 Al4 Al9 116.86(7) 7_666 3
Co2 Al4 Al9 50.84(3) 7_665 3
Al2 Al4 Al9 126.92(5) . 3
Al1 Al4 Al9 59.42(4) 7_665 3
Al3 Al4 Al9 100.45(6) 7_665 3
Al9 Al4 Al9 86.99(5) 3_556 3
Co2 Al4 Al1 107.26(6) 7_666 3_556
Co2 Al4 Al1 107.26(6) 7_665 3_556
Al2 Al4 Al1 105.56(8) . 3_556
Al1 Al4 Al1 85.81(7) 7_665 3_556
Al3 Al4 Al1 144.82(9) 7_665 3_556
Al9 Al4 Al1 56.43(4) 3_556 3_556
Al9 Al4 Al1 56.43(4) 3 3_556
Co2 Al4 Al7 115.18(8) 7_666 7_665
Co2 Al4 Al7 52.03(4) 7_665 7_665
Al2 Al4 Al7 66.24(6) . 7_665
Al1 Al4 Al7 105.67(7) 7_665 7_665
Al3 Al4 Al7 62.56(6) 7_665 7_665
Al9 Al4 Al7 162.65(8) 3_556 7_665
Al9 Al4 Al7 92.54(3) 3 7_665
Al1 Al4 Al7 135.87(4) 3_556 7_665
Co2 Al4 Al7 52.03(4) 7_666 7_666
Co2 Al4 Al7 115.18(8) 7_665 7_666
Al2 Al4 Al7 66.24(6) . 7_666
Al1 Al4 Al7 105.67(7) 7_665 7_666
Al3 Al4 Al7 62.56(6) 7_665 7_666
Al9 Al4 Al7 92.54(3) 3_556 7_666
Al9 Al4 Al7 162.65(8) 3 7_666
Al1 Al4 Al7 135.87(4) 3_556 7_666
Al7 Al4 Al7 82.78(7) 7_665 7_666
Co2 Al4 Yb1 164.53(6) 7_666 .
Co2 Al4 Yb1 89.13(2) 7_665 .
Al2 Al4 Yb1 63.50(5) . .
Al1 Al4 Yb1 124.36(6) 7_665 .
Al3 Al4 Yb1 139.11(3) 7_665 .
Al9 Al4 Yb1 115.74(6) 3_556 .
Al9 Al4 Yb1 65.05(3) 3 .
Al1 Al4 Yb1 59.98(4) 3_556 .
Al7 Al4 Yb1 79.42(4) 7_665 .
Al7 Al4 Yb1 129.70(7) 7_666 .
Co2 Al4 Yb1 89.13(2) 7_666 1_556
Co2 Al4 Yb1 164.53(6) 7_665 1_556
Al2 Al4 Yb1 63.50(5) . 1_556
Al1 Al4 Yb1 124.36(6) 7_665 1_556
Al3 Al4 Yb1 139.11(3) 7_665 1_556
Al9 Al4 Yb1 65.05(3) 3_556 1_556
Al9 Al4 Yb1 115.74(6) 3 1_556
Al1 Al4 Yb1 59.98(4) 3_556 1_556
Al7 Al4 Yb1 129.70(7) 7_665 1_556
Al7 Al4 Yb1 79.42(4) 7_666 1_556
Yb1 Al4 Yb1 76.91(4) . 1_556
Co1 Al5 Co1 101.01(7) 3 3_556
Co1 Al5 Al3 112.60(5) 3 .
Co1 Al5 Al3 112.60(5) 3_556 .
Co1 Al5 Al8 55.15(4) 3 3_556
Co1 Al5 Al8 55.15(4) 3_556 3_556
Al3 Al5 Al8 101.11(7) . 3_556
Co1 Al5 Al2 57.58(4) 3 3_556
Co1 Al5 Al2 57.58(4) 3_556 3_556
Al3 Al5 Al2 159.71(9) . 3_556
Al8 Al5 Al2 58.61(5) 3_556 3_556
Co1 Al5 Al6 116.67(8) 3 3_556
Co1 Al5 Al6 50.89(4) 3_556 3_556
Al3 Al5 Al6 130.12(5) . 3_556
Al8 Al5 Al6 100.32(6) 3_556 3_556
Al2 Al5 Al6 60.18(5) 3_556 3_556
Co1 Al5 Al6 50.89(4) 3 3
Co1 Al5 Al6 116.67(8) 3_556 3
Al3 Al5 Al6 130.12(5) . 3
Al8 Al5 Al6 100.32(6) 3_556 3
Al2 Al5 Al6 60.18(5) 3_556 3
Al6 Al5 Al6 88.78(7) 3_556 3
Co1 Al5 Al1 109.96(5) 3 3_556
Co1 Al5 Al1 109.96(6) 3_556 3_556
Al3 Al5 Al1 110.36(8) . 3_556
Al8 Al5 Al1 148.53(8) 3_556 3_556
Al2 Al5 Al1 89.92(8) 3_556 3_556
Al6 Al5 Al1 59.07(5) 3_556 3_556
Al6 Al5 Al1 59.07(5) 3 3_556
Co1 Al5 Yb1 168.37(5) 3 1_556
Co1 Al5 Yb1 90.076(19) 3_556 1_556
Al3 Al5 Yb1 65.39(4) . 1_556
Al8 Al5 Yb1 136.05(3) 3_556 1_556
Al2 Al5 Yb1 128.07(5) 3_556 1_556
Al6 Al5 Yb1 67.88(4) 3_556 1_556
Al6 Al5 Yb1 120.68(7) 3 1_556
Al1 Al5 Yb1 62.21(4) 3_556 1_556
Co1 Al5 Yb1 90.076(19) 3 .
Co1 Al5 Yb1 168.36(5) 3_556 .
Al3 Al5 Yb1 65.39(4) . .
Al8 Al5 Yb1 136.05(3) 3_556 .
Al2 Al5 Yb1 128.07(5) 3_556 .
Al6 Al5 Yb1 120.68(6) 3_556 .
Al6 Al5 Yb1 67.88(4) 3 .
Al1 Al5 Yb1 62.21(4) 3_556 .
Yb1 Al5 Yb1 78.66(4) 1_556 .
Co1 Al6 Co2 177.25(9) . .
Co1 Al6 Al1 119.19(6) . .
Co2 Al6 Al1 59.23(5) . .
Co1 Al6 Al1 119.19(6) . 1_554
Co2 Al6 Al1 59.23(5) . 1_554
Al1 Al6 Al1 90.32(7) . 1_554
Co1 Al6 Al2 59.17(5) . 1_554
Co2 Al6 Al2 122.36(6) . 1_554
Al1 Al6 Al2 178.08(9) . 1_554
Al1 Al6 Al2 89.79(4) 1_554 1_554
Co1 Al6 Al2 59.17(5) . .
Co2 Al6 Al2 122.36(6) . .
Al1 Al6 Al2 89.79(4) . .
Al1 Al6 Al2 178.08(9) 1_554 .
Al2 Al6 Al2 90.05(7) 1_554 .
Co1 Al6 Al5 58.67(5) . 3_455
Co2 Al6 Al5 119.72(6) . 3_455
Al1 Al6 Al5 119.99(8) . 3_455
Al1 Al6 Al5 60.52(5) 1_554 3_455
Al2 Al6 Al5 58.49(5) 1_554 3_455
Al2 Al6 Al5 117.84(7) . 3_455
Co1 Al6 Al5 58.67(5) . 3_456
Co2 Al6 Al5 119.72(6) . 3_456
Al1 Al6 Al5 60.52(5) . 3_456
Al1 Al6 Al5 119.99(8) 1_554 3_456
Al2 Al6 Al5 117.84(7) 1_554 3_456
Al2 Al6 Al5 58.49(5) . 3_456
Al5 Al6 Al5 88.78(7) 3_455 3_456
Co1 Al6 Al3 125.28(5) . .
Co2 Al6 Al3 56.23(4) . .
Al1 Al6 Al3 56.86(5) . .
Al1 Al6 Al3 115.46(7) 1_554 .
Al2 Al6 Al3 124.73(8) 1_554 .
Al2 Al6 Al3 66.13(5) . .
Al5 Al6 Al3 175.52(8) 3_455 .
Al5 Al6 Al3 91.92(4) 3_456 .
Co1 Al6 Al3 125.28(5) . 1_554
Co2 Al6 Al3 56.23(4) . 1_554
Al1 Al6 Al3 115.46(7) . 1_554
Al1 Al6 Al3 56.86(5) 1_554 1_554
Al2 Al6 Al3 66.13(5) 1_554 1_554
Al2 Al6 Al3 124.73(8) . 1_554
Al5 Al6 Al3 91.92(4) 3_455 1_554
Al5 Al6 Al3 175.52(8) 3_456 1_554
Al3 Al6 Al3 87.05(7) . 1_554
Co1 Al6 Yb1 92.26(6) . .
Co2 Al6 Yb1 90.50(6) . .
Al1 Al6 Yb1 119.32(6) . .
Al1 Al6 Yb1 119.32(6) 1_554 .
Al2 Al6 Yb1 62.21(5) 1_554 .
Al2 Al6 Yb1 62.21(5) . .
Al5 Al6 Yb1 120.69(5) 3_455 .
Al5 Al6 Yb1 120.68(5) 3_456 .
Al3 Al6 Yb1 62.56(5) . .
Al3 Al6 Yb1 62.56(5) 1_554 .
Co1 Al6 Yb1 89.33(6) . 3_455
Co2 Al6 Yb1 87.92(5) . 3_455
Al1 Al6 Yb1 59.76(5) . 3_455
Al1 Al6 Yb1 59.76(5) 1_554 3_455
Al2 Al6 Yb1 118.74(5) 1_554 3_455
Al2 Al6 Yb1 118.74(5) . 3_455
Al5 Al6 Yb1 60.25(5) 3_455 3_455
Al5 Al6 Yb1 60.25(5) 3_456 3_455
Al3 Al6 Yb1 116.43(5) . 3_455
Al3 Al6 Yb1 116.43(5) 1_554 3_455
Yb1 Al6 Yb1 178.41(6) . 3_455
Co2 Al7 Co1 146.14(9) . 3
Co2 Al7 Co1 146.63(9) . 7_655
Co1 Al7 Co1 67.23(5) 3 7_655
Co2 Al7 Al8 136.84(2) . 3_556
Co1 Al7 Al8 52.62(3) 3 3_556
Co1 Al7 Al8 52.56(3) 7_655 3_556
Co2 Al7 Al8 136.84(2) . 3
Co1 Al7 Al8 52.62(3) 3 3
Co1 Al7 Al8 52.56(3) 7_655 3
Al8 Al7 Al8 86.31(5) 3_556 3
Co2 Al7 Al4 53.89(5) . 7_654
Co1 Al7 Al4 138.42(3) 3 7_654
Co1 Al7 Al4 103.70(6) 7_655 7_654
Al8 Al7 Al4 152.03(8) 3_556 7_654
Al8 Al7 Al4 88.78(3) 3 7_654
Co2 Al7 Al4 53.89(5) . 7_655
Co1 Al7 Al4 138.42(3) 3 7_655
Co1 Al7 Al4 103.70(6) 7_655 7_655
Al8 Al7 Al4 88.78(3) 3_556 7_655
Al8 Al7 Al4 152.03(8) 3 7_655
Al4 Al7 Al4 82.78(7) 7_654 7_655
Co1 Al8 Co1 109.33(3) 5_566 5_565
Co1 Al8 Co1 70.67(3) 5_566 1_556
Co1 Al8 Co1 180.0 5_565 1_556
Co1 Al8 Co1 180.00(3) 5_566 .
Co1 Al8 Co1 70.67(3) 5_565 .
Co1 Al8 Co1 109.33(3) 1_556 .
Co1 Al8 Al2 119.57(2) 5_566 .
Co1 Al8 Al2 119.57(2) 5_565 .
Co1 Al8 Al2 60.43(2) 1_556 .
Co1 Al8 Al2 60.43(2) . .
Co1 Al8 Al2 60.43(2) 5_566 5_566
Co1 Al8 Al2 60.43(2) 5_565 5_566
Co1 Al8 Al2 119.57(2) 1_556 5_566
Co1 Al8 Al2 119.57(2) . 5_566
Al2 Al8 Al2 180.0 . 5_566
Co1 Al8 Al5 60.18(2) 5_566 7_665
Co1 Al8 Al5 60.18(2) 5_565 7_665
Co1 Al8 Al5 119.82(2) 1_556 7_665
Co1 Al8 Al5 119.82(2) . 7_665
Al2 Al8 Al5 117.84(6) . 7_665
Al2 Al8 Al5 62.16(6) 5_566 7_665
Co1 Al8 Al5 119.82(2) 5_566 3_456
Co1 Al8 Al5 119.82(2) 5_565 3_456
Co1 Al8 Al5 60.18(2) 1_556 3_456
Co1 Al8 Al5 60.18(2) . 3_456
Al2 Al8 Al5 62.16(6) . 3_456
Al2 Al8 Al5 117.84(6) 5_566 3_456
Al5 Al8 Al5 180.0 7_665 3_456
Co1 Al8 Al7 55.98(4) 5_566 7_666
Co1 Al8 Al7 123.81(4) 5_565 7_666
Co1 Al8 Al7 56.19(4) 1_556 7_666
Co1 Al8 Al7 124.02(4) . 7_666
Al2 Al8 Al7 67.78(4) . 7_666
Al2 Al8 Al7 112.23(4) 5_566 7_666
Al5 Al8 Al7 67.98(5) 7_665 7_666
Al5 Al8 Al7 112.02(5) 3_456 7_666
Co1 Al8 Al7 124.02(4) 5_566 3_455
Co1 Al8 Al7 56.19(4) 5_565 3_455
Co1 Al8 Al7 123.81(4) 1_556 3_455
Co1 Al8 Al7 55.98(4) . 3_455
Al2 Al8 Al7 112.22(4) . 3_455
Al2 Al8 Al7 67.77(4) 5_566 3_455
Al5 Al8 Al7 112.02(5) 7_665 3_455
Al5 Al8 Al7 67.98(5) 3_456 3_455
Al7 Al8 Al7 180.0 7_666 3_455
Co1 Al8 Al7 56.19(4) 5_566 3_456
Co1 Al8 Al7 124.02(4) 5_565 3_456
Co1 Al8 Al7 55.98(4) 1_556 3_456
Co1 Al8 Al7 123.81(4) . 3_456
Al2 Al8 Al7 112.22(4) . 3_456
Al2 Al8 Al7 67.77(4) 5_566 3_456
Al5 Al8 Al7 112.02(5) 7_665 3_456
Al5 Al8 Al7 67.98(5) 3_456 3_456
Al7 Al8 Al7 93.69(5) 7_666 3_456
Al7 Al8 Al7 86.31(5) 3_455 3_456
Co1 Al8 Al7 123.81(4) 5_566 7_665
Co1 Al8 Al7 55.98(4) 5_565 7_665
Co1 Al8 Al7 124.02(4) 1_556 7_665
Co1 Al8 Al7 56.19(4) . 7_665
Al2 Al8 Al7 67.78(4) . 7_665
Al2 Al8 Al7 112.23(4) 5_566 7_665
Al5 Al8 Al7 67.98(5) 7_665 7_665
Al5 Al8 Al7 112.02(5) 3_456 7_665
Al7 Al8 Al7 86.31(5) 7_666 7_665
Al7 Al8 Al7 93.69(5) 3_455 7_665
Al7 Al8 Al7 180.0 3_456 7_665
Co2 Al9 Co2 180.0 . 5
Co2 Al9 Al1 120.30(4) . 5
Co2 Al9 Al1 59.70(4) 5 5
Co2 Al9 Al1 120.30(4) . 5_556
Co2 Al9 Al1 59.70(4) 5 5_556
Al1 Al9 Al1 91.15(5) 5 5_556
Co2 Al9 Al1 59.70(4) . 1_554
Co2 Al9 Al1 120.30(4) 5 1_554
Al1 Al9 Al1 88.85(5) 5 1_554
Al1 Al9 Al1 180.00(9) 5_556 1_554
Co2 Al9 Al1 59.70(4) . .
Co2 Al9 Al1 120.30(4) 5 .
Al1 Al9 Al1 180.0 5 .
Al1 Al9 Al1 88.85(5) 5_556 .
Al1 Al9 Al1 91.15(5) 1_554 .
Co2 Al9 Al4 56.56(4) . 7_655
Co2 Al9 Al4 123.44(4) 5 7_655
Al1 Al9 Al4 122.73(5) 5 7_655
Al1 Al9 Al4 63.74(5) 5_556 7_655
Al1 Al9 Al4 116.26(5) 1_554 7_655
Al1 Al9 Al4 57.28(5) . 7_655
Co2 Al9 Al4 123.44(4) . 3_455
Co2 Al9 Al4 56.56(4) 5 3_455
Al1 Al9 Al4 57.27(5) 5 3_455
Al1 Al9 Al4 116.26(5) 5_556 3_455
Al1 Al9 Al4 63.74(5) 1_554 3_455
Al1 Al9 Al4 122.72(5) . 3_455
Al4 Al9 Al4 180.00(5) 7_655 3_455
Co2 Al9 Al4 56.56(4) . 7_654
Co2 Al9 Al4 123.44(4) 5 7_654
Al1 Al9 Al4 63.74(5) 5 7_654
Al1 Al9 Al4 122.73(5) 5_556 7_654
Al1 Al9 Al4 57.27(5) 1_554 7_654
Al1 Al9 Al4 116.26(5) . 7_654
Al4 Al9 Al4 86.99(5) 7_655 7_654
Al4 Al9 Al4 93.01(5) 3_455 7_654
Co2 Al9 Al4 123.44(4) . 3_456
Co2 Al9 Al4 56.56(4) 5 3_456
Al1 Al9 Al4 116.26(5) 5 3_456
Al1 Al9 Al4 57.27(5) 5_556 3_456
Al1 Al9 Al4 122.73(5) 1_554 3_456
Al1 Al9 Al4 63.74(5) . 3_456
Al4 Al9 Al4 93.01(5) 7_655 3_456
Al4 Al9 Al4 86.99(5) 3_455 3_456
Al4 Al9 Al4 180.00(9) 7_654 3_456
Co2 Al9 Yb1 89.73(2) . 3_455
Co2 Al9 Yb1 90.27(2) 5 3_455
Al1 Al9 Yb1 119.18(4) 5 3_455
Al1 Al9 Yb1 119.18(4) 5_556 3_455
Al1 Al9 Yb1 60.82(4) 1_554 3_455
Al1 Al9 Yb1 60.82(4) . 3_455
Al4 Al9 Yb1 117.99(3) 7_655 3_455
Al4 Al9 Yb1 62.01(3) 3_455 3_455
Al4 Al9 Yb1 117.99(3) 7_654 3_455
Al4 Al9 Yb1 62.01(3) 3_456 3_455
Co2 Al9 Yb1 90.27(2) . 7_655
Co2 Al9 Yb1 89.73(2) 5 7_655
Al1 Al9 Yb1 60.82(4) 5 7_655
Al1 Al9 Yb1 60.82(4) 5_556 7_655
Al1 Al9 Yb1 119.18(4) 1_554 7_655
Al1 Al9 Yb1 119.18(4) . 7_655
Al4 Al9 Yb1 62.01(3) 7_655 7_655
Al4 Al9 Yb1 117.99(3) 3_455 7_655
Al4 Al9 Yb1 62.01(3) 7_654 7_655
Al4 Al9 Yb1 117.99(3) 3_456 7_655
Yb1 Al9 Yb1 180.0 3_455 7_655
loop_
_geom_bond_atom_site_label_1
_geom_bond_atom_site_label_2
_geom_bond_distance
_geom_bond_site_symmetry_2
Yb1 Al1 3.0895(15) 3_556
Yb1 Al1 3.0895(15) 3
Yb1 Al2 3.1072(14) 1_554
Yb1 Al2 3.1073(14) .
Yb1 Al5 3.1257(14) .
Yb1 Al5 3.1257(14) 1_554
Yb1 Al3 3.1561(14) .
Yb1 Al3 3.1561(14) 1_554
Yb1 Al6 3.1812(19) .
Yb1 Al4 3.1854(15) 1_554
Yb1 Al4 3.1854(15) .
Yb1 Al9 3.2707(3) 3
Co1 Al6 2.3320(18) .
Co1 Al8 2.4284(5) .
Co1 Al8 2.4284(5) 1_554
Co1 Al7 2.533(2) 3_455
Co1 Al7 2.541(2) 7_665
Co1 Al2 2.5666(13) .
Co1 Al2 2.5666(13) 1_554
Co1 Al5 2.5672(12) 3_455
Co1 Al5 2.5672(12) 3_456
Co1 Co1 2.8089(16) 5_565
Co2 Al9 2.3386(8) .
Co2 Al6 2.3539(18) .
Co2 Al7 2.456(2) .
Co2 Al3 2.5077(12) 1_554
Co2 Al3 2.5077(12) .
Co2 Al4 2.5170(13) 7_654
Co2 Al4 2.5170(13) 7_655
Co2 Al1 2.5725(13) 1_554
Co2 Al1 2.5725(13) .
Al1 Co2 2.5725(13) 1_556
Al1 Al3 2.701(3) .
Al1 Al4 2.710(3) 7_655
Al1 Al9 2.7738(12) .
Al1 Al9 2.7738(12) 1_556
Al1 Al6 2.7939(17) 1_556
Al1 Al6 2.7939(17) .
Al1 Al5 2.835(2) 3_456
Al1 Al4 2.985(3) 3_456
Al1 Yb1 3.0895(15) 3_455
Al1 Yb1 3.0895(15) 3_456
Al2 Co1 2.5666(13) 1_556
Al2 Al8 2.6564(19) .
Al2 Al4 2.658(3) .
Al2 Al5 2.752(3) 3_456
Al2 Al6 2.8004(18) .
Al2 Al6 2.8004(18) 1_556
Al2 Yb1 3.1073(14) 1_556
Al3 Co2 2.5077(12) 1_556
Al3 Al5 2.674(3) .
Al3 Al4 2.773(3) 7_655
Al3 Al6 2.8766(19) .
Al3 Al6 2.8766(19) 1_556
Al3 Yb1 3.1560(14) 1_556
Al4 Co2 2.5170(13) 7_666
Al4 Co2 2.5170(13) 7_665
Al4 Al1 2.710(3) 7_665
Al4 Al3 2.773(3) 7_665
Al4 Al9 2.8783(14) 3_556
Al4 Al9 2.8783(14) 3
Al4 Al1 2.985(3) 3_556
Al4 Al7 2.996(2) 7_665
Al4 Al7 2.996(2) 7_666
Al4 Yb1 3.1854(15) 1_556
Al5 Co1 2.5672(12) 3
Al5 Co1 2.5672(12) 3_556
Al5 Al8 2.6742(17) 3_556
Al5 Al2 2.752(3) 3_556
Al5 Al6 2.8319(19) 3_556
Al5 Al6 2.8319(19) 3
Al5 Al1 2.835(2) 3_556
Al5 Yb1 3.1257(14) 1_556
Al6 Al1 2.7939(17) 1_554
Al6 Al2 2.8004(18) 1_554
Al6 Al5 2.8319(19) 3_455
Al6 Al5 2.8319(19) 3_456
Al6 Al3 2.8766(19) 1_554
Al6 Yb1 3.3354(19) 3_455
Al7 Co1 2.533(2) 3
Al7 Co1 2.541(2) 7_655
Al7 Al8 2.8962(13) 3_556
Al7 Al8 2.8962(13) 3
Al7 Al4 2.996(2) 7_654
Al7 Al4 2.996(2) 7_655
Al8 Co1 2.4283(5) 5_566
Al8 Co1 2.4283(5) 5_565
Al8 Co1 2.4283(5) 1_556
Al8 Al2 2.6565(19) 5_566
Al8 Al5 2.6742(17) 7_665
Al8 Al5 2.6742(17) 3_456
Al8 Al7 2.8962(13) 7_666
Al8 Al7 2.8962(13) 3_455
Al8 Al7 2.8962(13) 3_456
Al8 Al7 2.8962(13) 7_665
Al9 Co2 2.3387(8) 5
Al9 Al1 2.7738(12) 5
Al9 Al1 2.7738(12) 5_556
Al9 Al1 2.7738(12) 1_554
Al9 Al4 2.8783(14) 7_655
Al9 Al4 2.8783(14) 3_455
Al9 Al4 2.8783(14) 7_654
Al9 Al4 2.8783(14) 3_456
Al9 Yb1 3.2707(3) 3_455
Al9 Yb1 3.2707(3) 7_655
