#------------------------------------------------------------------------------
#$Date: 2022-02-03 23:35:45 +0200 (Thu, 03 Feb 2022) $
#$Revision: 272490 $
#$URL: file:///home/coder/svn-repositories/cod/cif/4/51/93/4519319.cif $
#------------------------------------------------------------------------------
#
# This file is available in the Crystallography Open Database (COD),
# http://www.crystallography.net/
#
# All data on this site have been placed in the public domain by the
# contributors.
#
data_4519319
loop_
_publ_author_name
'K\"onig, Jannes'
'Spahr, Dominik'
'Bayarjargal, Lkhamsuren'
'Gavryushkin, Pavel N.'
'Sagatova, Dinara'
'Sagatov, Nursultan'
'Milman, Victor'
'Liermann, Hanns-Peter'
'Winkler, Bj\"orn'
_publ_section_title
;
 Novel Calcium sp3 Carbonate CaC2O5-I4&#x0305;2d May Be a Carbon Host in
 Earth&#x2019;s Lower Mantle
;
_journal_issue                   1
_journal_name_full               'ACS Earth and Space Chemistry'
_journal_page_first              73
_journal_page_last               80
_journal_paper_doi               10.1021/acsearthspacechem.1c00284
_journal_volume                  6
_journal_year                    2022
_chemical_formula_sum            'C2 Ca O5'
_chemical_formula_weight         144.1
_space_group_IT_number           122
_space_group_name_Hall           'I -4 2bw'
_space_group_name_H-M_alt        'I -4 2 d'
_symmetry_cell_setting           tetragonal
_symmetry_Int_Tables_number      122
_symmetry_space_group_name_Hall  'I -4 2bw'
_symmetry_space_group_name_H-M   'I -4 2 d'
_audit_update_record
;
2021-06-24 deposited with the CCDC.	2021-06-24 downloaded from the CCDC.
;
_cell_angle_alpha                90
_cell_angle_beta                 90
_cell_angle_gamma                90
_cell_formula_units_Z            8
_cell_length_a                   6.994(5)
_cell_length_b                   6.994(5)
_cell_length_c                   9.897(4)
_cell_measurement_reflns_used    87
_cell_measurement_temperature    293
_cell_measurement_theta_max      13.93
_cell_measurement_theta_min      2.38
_cell_volume                     484.1(5)
_computing_cell_refinement       'CrysAlisPro 1.171.40.84a (Rigaku OD, 2020)'
_computing_data_collection       'CrysAlisPro 1.171.40.84a (Rigaku OD, 2020)'
_computing_data_reduction        'CrysAlisPro 1.171.40.84a (Rigaku OD, 2020)'
_diffrn_ambient_temperature      293
_diffrn_detector                 'CCD plate'
_diffrn_measured_fraction_theta_full 0.71
_diffrn_measured_fraction_theta_max 0.71
_diffrn_measurement_device       'four-circle diffractometer'
_diffrn_measurement_device_type
'esperanto-CrysAlisPro-abstract goniometer imported esperanto images'
_diffrn_measurement_method       '\f scans'
_diffrn_radiation_monochromator  synchrotron
_diffrn_radiation_probe          x-ray
_diffrn_radiation_type           synchrotron
_diffrn_radiation_wavelength     0.2905
_diffrn_reflns_av_R_equivalents  0.1404
_diffrn_reflns_av_unetI/netI     0.0575
_diffrn_reflns_limit_h_max       7
_diffrn_reflns_limit_h_min       -10
_diffrn_reflns_limit_k_max       10
_diffrn_reflns_limit_k_min       -7
_diffrn_reflns_limit_l_max       16
_diffrn_reflns_limit_l_min       -16
_diffrn_reflns_number            953
_diffrn_reflns_theta_full        14.01
_diffrn_reflns_theta_max         14.01
_diffrn_reflns_theta_min         2.38
_diffrn_source                   synchrotron
_exptl_absorpt_coefficient_mu    0.236
_exptl_absorpt_correction_T_max  1
_exptl_absorpt_correction_T_min  0.07
_exptl_absorpt_correction_type   multi-scan
_exptl_absorpt_process_details
;
CrysAlisPro 1.171.40.84a (Rigaku Oxford Diffraction, 2020)
Empirical absorption correction using spherical harmonics,
implemented in SCALE3 ABSPACK scaling algorithm.
;
_exptl_crystal_density_diffrn    3.954
_exptl_crystal_description
'Submicrometer crystal obtained after compressing in a diamond anvil cell a CaCO3-CO2 solid at 34 GPa and after laser-heating to 2600 K'
_exptl_crystal_F_000             576
_exptl_crystal_size_mid          0.0001
_refine_ls_abs_structure_details
'  114 of Friedel pairs used in the refinement'
_refine_ls_extinction_method     none
_refine_ls_goodness_of_fit_gt    1.51
_refine_ls_goodness_of_fit_ref   1.30
_refine_ls_number_constraints    0
_refine_ls_number_parameters     20
_refine_ls_number_reflns         311
_refine_ls_number_restraints     0
_refine_ls_R_factor_all          0.1355
_refine_ls_R_factor_gt           0.0667
_refine_ls_shift/su_max          0.0007
_refine_ls_shift/su_mean         0.0003
_refine_ls_structure_factor_coef F
_refine_ls_weighting_details     w=1/(\s^2^(F)+0.0001F^2^)
_refine_ls_weighting_scheme      sigma
_refine_ls_wR_factor_gt          0.0646
_refine_ls_wR_factor_ref         0.0873
_reflns_number_gt                136
_reflns_number_total             311
_reflns_threshold_expression     I>3\s(I)
_cod_data_source_file            sp1c00284_si_002.cif
_cod_data_source_block           I
_cod_depositor_comments
;
The following automatic conversions were performed:

data item '_diffrn_radiation_probe' value 'X-ray' was changed to
'x-ray' in accordance with the
/home/data/users/saulius/crontab/automatic-downloads/current/ACS/lib/dictionaries/cif_core.dic
dictionary named 'cif_core.dic' version 2.4.2 last updated on
2011-04-26.

Automatic conversion script
Id: cif_fix_values 7556 2019-12-06 15:28:31Z antanas 
;
_cod_original_cell_volume        484.1(6)
_cod_original_sg_symbol_Hall     'I -4;2bw'
_cod_original_formula_sum        'C2 Ca1 O5'
_cod_database_code               4519319
loop_
_space_group_symop_id
_space_group_symop_operation_xyz
1 x,y,z
2 -x,-y,z
3 y,-x,-z
4 -y,x,-z
5 -x,y+1/2,-z+1/4
6 x,-y+1/2,-z+1/4
7 -y,-x+1/2,z+1/4
8 y,x+1/2,z+1/4
9 x+1/2,y+1/2,z+1/2
10 -x+1/2,-y+1/2,z+1/2
11 y+1/2,-x+1/2,-z+1/2
12 -y+1/2,x+1/2,-z+1/2
13 -x+1/2,y,-z+3/4
14 x+1/2,-y,-z+3/4
15 -y+1/2,-x,z+3/4
16 y+1/2,x,z+3/4
loop_
_atom_site_label
_atom_site_type_symbol
_atom_site_fract_x
_atom_site_fract_y
_atom_site_fract_z
_atom_site_adp_type
_atom_site_U_iso_or_equiv
_atom_site_site_symmetry_multiplicity
_atom_site_occupancy
_atom_site_calc_flag
_atom_site_refinement_flags
_atom_site_disorder_assembly
_atom_site_disorder_group
O003 O 0.8250(7) 0.1521(7) 0.4979(7) Uiso 0.0369(8) 16 1 d . . .
O007 O 1.0090(13) 0.3156(7) 0.3414(4) Uiso 0.0483(11) 16 1 d . . .
C009 C 0.8379(7) 0.0084(9) 0.5804(4) Uiso 0.0296(8) 16 1 d . . .
Ca01 Ca 0.4970(12) -0.25 0.625 Uani 0.0860(14) 8 1 d . . .
O004 O 1 0 0.6618(5) Uiso 0.0428(12) 8 1 d . . .
loop_
_atom_site_aniso_label
_atom_site_aniso_type_symbol
_atom_site_aniso_U_11
_atom_site_aniso_U_22
_atom_site_aniso_U_33
_atom_site_aniso_U_12
_atom_site_aniso_U_13
_atom_site_aniso_U_23
Ca01 Ca 0.122(3) 0.090(3) 0.0455(12) 0 0 -0.0408(13)
loop_
_atom_type_symbol
_atom_type_scat_dispersion_real
_atom_type_scat_dispersion_imag
_atom_type_scat_source
C -0.0010 0.0002 'International Tables Vol C tables 4.2.6.8 and 6.1.1.1'
Ca 0.0420 0.0512 'International Tables Vol C tables 4.2.6.8 and 6.1.1.1'
O -0.0009 0.0008 'International Tables Vol C tables 4.2.6.8 and 6.1.1.1'
loop_
_diffrn_standard_refln_index_h
_diffrn_standard_refln_index_k
_diffrn_standard_refln_index_l
? ? ?
loop_
_exptl_crystal_face_index_h
_exptl_crystal_face_index_k
_exptl_crystal_face_index_l
_exptl_crystal_face_perp_dist
? ? ? ?
loop_
_geom_angle_atom_site_label_1
_geom_angle_atom_site_label_2
_geom_angle_atom_site_label_3
_geom_angle_site_symmetry_1
_geom_angle_site_symmetry_2
_geom_angle_site_symmetry_3
_geom_angle
_geom_angle_publ_flag
C009 O003 C009 . . 3_666 107.5(4) ?
C009 O007 Ca01 3_666 . 9_554 113.6(3) ?
C009 O007 Ca01 3_666 . 3_666 112.5(5) ?
C009 O007 Ca01 3_666 . 4_656 113.2(5) ?
Ca01 O007 Ca01 9_554 . 3_666 103.5(3) ?
Ca01 O007 Ca01 9_554 . 4_656 107.9(3) ?
Ca01 O007 Ca01 3_666 . 4_656 105.4(3) ?
O003 C009 O003 . . 4_646 109.9(5) ?
O003 C009 O007 . . 4_646 108.0(6) ?
O003 C009 O004 . . . 117.0(5) ?
O003 C009 O007 4_646 . 4_646 110.0(6) ?
O003 C009 O004 4_646 . . 103.0(4) ?
O007 C009 O004 4_646 . . 108.9(4) ?
O007 Ca01 O007 9_445 . 3_566 72.9(2) ?
O007 Ca01 O007 9_445 . 4_646 70.5(2) ?
O007 Ca01 O007 9_445 . 14_455 175.6(6) ?
O007 Ca01 O007 9_445 . 7_655 106.8(3) ?
O007 Ca01 O007 9_445 . 8_535 109.9(3) ?
O007 Ca01 Ca01 9_445 . 2_645 102.06(12) ?
O007 Ca01 Ca01 9_445 . 2_655 77.89(12) ?
O007 Ca01 Ca01 9_445 . 3_656 140.8(4) ?
O007 Ca01 Ca01 9_445 . 11_556 38.9(2) ?
O007 Ca01 Ca01 9_445 . 4_546 144.7(3) ?
O007 Ca01 Ca01 9_445 . 12_546 35.5(2) ?
O007 Ca01 O007 3_566 . 4_646 71.9(2) ?
O007 Ca01 O007 3_566 . 14_455 109.9(3) ?
O007 Ca01 O007 3_566 . 7_655 178.8(4) ?
O007 Ca01 O007 3_566 . 8_535 107.1(4) ?
O007 Ca01 Ca01 3_566 . 2_645 142.8(4) ?
O007 Ca01 Ca01 3_566 . 2_655 38.5(2) ?
O007 Ca01 Ca01 3_566 . 3_656 143.15(16) ?
O007 Ca01 Ca01 3_566 . 11_556 36.62(16) ?
O007 Ca01 Ca01 3_566 . 4_546 102.5(3) ?
O007 Ca01 Ca01 3_566 . 12_546 78.50(18) ?
O007 Ca01 O007 4_646 . 14_455 106.8(3) ?
O007 Ca01 O007 4_646 . 7_655 109.1(4) ?
O007 Ca01 O007 4_646 . 8_535 178.8(4) ?
O007 Ca01 Ca01 4_646 . 2_645 142.6(4) ?
O007 Ca01 Ca01 4_646 . 2_655 36.1(2) ?
O007 Ca01 Ca01 4_646 . 3_656 101.9(3) ?
O007 Ca01 Ca01 4_646 . 11_556 77.11(17) ?
O007 Ca01 Ca01 4_646 . 4_546 142.72(15) ?
O007 Ca01 Ca01 4_646 . 12_546 37.54(16) ?
O007 Ca01 O007 14_455 . 7_655 70.5(2) ?
O007 Ca01 O007 14_455 . 8_535 72.9(2) ?
O007 Ca01 Ca01 14_455 . 2_645 77.89(12) ?
O007 Ca01 Ca01 14_455 . 2_655 102.06(12) ?
O007 Ca01 Ca01 14_455 . 3_656 35.5(2) ?
O007 Ca01 Ca01 14_455 . 11_556 144.7(3) ?
O007 Ca01 Ca01 14_455 . 4_546 38.9(2) ?
O007 Ca01 Ca01 14_455 . 12_546 140.8(4) ?
O007 Ca01 O007 7_655 . 8_535 71.9(2) ?
O007 Ca01 Ca01 7_655 . 2_645 36.1(2) ?
O007 Ca01 Ca01 7_655 . 2_655 142.6(4) ?
O007 Ca01 Ca01 7_655 . 3_656 37.54(16) ?
O007 Ca01 Ca01 7_655 . 11_556 142.72(15) ?
O007 Ca01 Ca01 7_655 . 4_546 77.11(17) ?
O007 Ca01 Ca01 7_655 . 12_546 101.9(3) ?
O007 Ca01 Ca01 8_535 . 2_645 38.5(2) ?
O007 Ca01 Ca01 8_535 . 2_655 142.8(4) ?
O007 Ca01 Ca01 8_535 . 3_656 78.50(18) ?
O007 Ca01 Ca01 8_535 . 11_556 102.5(3) ?
O007 Ca01 Ca01 8_535 . 4_546 36.62(16) ?
O007 Ca01 Ca01 8_535 . 12_546 143.15(16) ?
Ca01 Ca01 Ca01 2_645 . 2_655 178.6(3) ?
Ca01 Ca01 Ca01 2_645 . 3_656 60.01(15) ?
Ca01 Ca01 Ca01 2_645 . 11_556 120.79(19) ?
Ca01 Ca01 Ca01 2_645 . 4_546 60.01(15) ?
Ca01 Ca01 Ca01 2_645 . 12_546 119.18(19) ?
Ca01 Ca01 Ca01 2_655 . 3_656 119.18(19) ?
Ca01 Ca01 Ca01 2_655 . 11_556 60.01(15) ?
Ca01 Ca01 Ca01 2_655 . 4_546 120.79(19) ?
Ca01 Ca01 Ca01 2_655 . 12_546 60.01(15) ?
Ca01 Ca01 Ca01 3_656 . 11_556 179.0(2) ?
Ca01 Ca01 Ca01 3_656 . 4_546 59.98(6) ?
Ca01 Ca01 Ca01 3_656 . 12_546 119.2(3) ?
Ca01 Ca01 Ca01 11_556 . 4_546 120.8(3) ?
Ca01 Ca01 Ca01 11_556 . 12_546 59.98(6) ?
Ca01 Ca01 Ca01 4_546 . 12_546 179.0(2) ?
C009 O004 C009 . . 2_755 109.3(4) ?
loop_
_geom_bond_atom_site_label_1
_geom_bond_atom_site_label_2
_geom_bond_site_symmetry_1
_geom_bond_site_symmetry_2
_geom_bond_distance
_geom_bond_publ_flag
O003 C009 . . 1.298(8) ?
O003 C009 . 3_666 1.501(8) ?
O007 C009 . 3_666 1.323(7) ?
O007 Ca01 . 9_554 2.192(4) ?
O007 Ca01 . 3_666 2.260(9) ?
O007 Ca01 . 4_656 2.135(9) ?
C009 O004 . . 1.392(6) ?
Ca01 Ca01 . 2_645 3.49726(15) ?
Ca01 Ca01 . 2_655 3.49726(15) ?
Ca01 Ca01 . 3_656 3.498(6) ?
Ca01 Ca01 . 11_556 3.498(6) ?
Ca01 Ca01 . 4_546 3.498(6) ?
Ca01 Ca01 . 12_546 3.498(6) ?
loop_
_geom_hbond_atom_site_label_D
_geom_hbond_atom_site_label_H
_geom_hbond_atom_site_label_A
_geom_hbond_site_symmetry_D
_geom_hbond_site_symmetry_H
_geom_hbond_site_symmetry_A
_geom_hbond_distance_DH
_geom_hbond_distance_HA
_geom_hbond_distance_DA
_geom_hbond_angle_DHA
_geom_hbond_publ_flag
? ? ? ? ? ? ? ? ? ? ?
loop_
_geom_torsion_atom_site_label_1
_geom_torsion_atom_site_label_2
_geom_torsion_atom_site_label_3
_geom_torsion_atom_site_label_4
_geom_torsion_site_symmetry_1
_geom_torsion_site_symmetry_2
_geom_torsion_site_symmetry_3
_geom_torsion_site_symmetry_4
_geom_torsion
_geom_torsion_publ_flag
? ? ? ? ? ? ? ? ? ?
loop_
_refln_index_h
_refln_index_k
_refln_index_l
_refln_F_squared_calc
_refln_F_squared_meas
_refln_F_squared_sigma
_refln_observed_status
5 7 0 1.02 -2.43 1.75 <
6 8 0 7.49 5.33 2.10 <
-4 5 1 150.96 162.69 14.64 o
-5 6 1 62.91 72.35 8.68 o
4 7 1 6.42 9.39 2.43 o
-4 7 1 6.50 6.38 3.97 <
-6 7 1 72.88 83.92 7.39 o
5 8 1 2.07 4.11 1.17 o
-5 8 1 2.10 1.79 1.64 <
6 9 1 7.58 5.96 2.08 <
-6 9 1 7.58 7.30 2.65 <
5 10 1 2.37 -0.68 0.76 <
1 1 2 1180.44 1285.36 49.84 o
-1 3 2 3118.35 2991.75 75.36 o
3 3 2 78.71 81.22 14.72 o
-3 3 2 78.81 84.45 14.23 o
-2 4 2 932.22 894.74 56.64 o
-4 6 2 438.52 398.38 29.02 o
5 7 2 24.59 16.08 3.63 o
-5 7 2 24.60 9.83 4.42 <
4 8 2 22.32 22.79 5.94 o
-6 8 2 46.98 53.26 7.77 o
5 9 2 13.54 6.78 2.80 <
-5 9 2 13.52 14.72 5.58 <
0 3 3 2570.33 2478.71 122.26 o
2 3 3 1186.85 1302.42 57.14 o
-2 3 3 1183.44 1240.85 47.91 o
-1 4 3 14.63 17.62 6.13 <
3 4 3 72.50 78.92 8.72 o
-3 4 3 71.17 86.93 18.18 o
-2 5 3 87.62 98.49 12.60 o
4 5 3 25.98 19.97 6.20 o
-3 6 3 455.53 496.19 40.88 o
5 6 3 2.93 5.05 1.72 <
-5 6 3 2.98 0.32 1.11 <
4 7 3 94.57 77.96 12.99 o
-4 7 3 94.54 62.37 13.26 o
6 7 3 4.82 8.80 3.08 <
-6 7 3 4.76 0.02 0.64 <
-3 8 3 5.26 4.63 2.95 <
5 8 3 0.35 5.67 3.42 <
-7 8 3 14.19 10.09 3.96 <
6 9 3 0.91 0.65 0.20 o
-6 9 3 0.91 5.97 2.82 <
5 10 3 15.32 15.77 5.15 o
-5 10 3 15.31 15.38 6.55 <
2 2 4 7134.10 7577.96 146.71 o
-2 2 4 7130.08 7005.88 225.48 o
2 4 4 94.31 93.71 12.96 o
-2 4 4 94.51 98.00 13.25 o
4 4 4 182.30 149.63 13.46 o
-4 4 4 179.89 168.68 22.56 o
-1 5 4 115.36 75.98 15.05 o
4 6 4 171.01 112.31 17.59 o
-5 7 4 32.35 20.14 6.77 <
4 8 4 3.10 8.91 4.94 <
-4 8 4 3.06 3.60 2.13 <
6 8 4 11.88 7.58 1.96 o
-6 8 4 11.88 8.99 3.92 <
-3 9 4 1.03 1.37 0.70 <
5 9 4 21.62 0.60 6.95 <
-5 9 4 21.64 23.36 6.81 o
-4 10 4 4.46 8.69 2.42 o
1 2 5 1723.14 1750.93 56.90 o
-1 2 5 1719.94 1732.63 64.54 o
0 3 5 11.91 25.96 9.29 <
1 4 5 497.52 534.54 45.73 o
-1 4 5 498.34 528.70 49.20 o
3 4 5 817.27 803.87 30.28 o
-3 4 5 817.85 749.86 31.87 o
-2 5 5 109.17 104.20 14.20 o
4 5 5 40.90 42.50 5.34 o
-4 5 5 40.90 59.08 14.29 o
-1 6 5 36.92 19.62 8.15 <
3 6 5 246.01 301.28 37.20 o
-3 6 5 246.16 214.59 18.37 o
5 6 5 8.57 12.86 2.47 o
-5 6 5 8.34 19.50 7.14 <
-2 7 5 9.84 11.86 5.38 <
4 7 5 15.89 24.43 8.84 <
-4 7 5 15.82 21.38 5.15 o
6 7 5 4.05 9.17 2.53 o
-6 7 5 4.04 7.85 3.98 <
5 8 5 2.19 13.39 5.81 <
-5 8 5 2.21 -0.98 1.75 <
7 8 5 1.69 4.10 2.86 <
-7 8 5 1.70 -1.39 2.29 <
-4 9 5 12.54 14.01 4.39 o
6 9 5 9.38 20.18 5.10 o
-6 9 5 9.39 10.67 5.56 <
-3 10 5 11.58 4.63 2.27 <
1 1 6 124.73 199.60 31.77 o
-1 1 6 125.18 162.43 30.51 o
0 2 6 2142.20 2046.92 83.57 o
3 3 6 4124.52 3825.31 108.69 o
-3 3 6 4127.06 3720.46 158.44 o
-1 5 6 19.92 27.82 9.69 <
3 5 6 63.68 41.50 8.52 o
-3 5 6 63.67 50.94 10.13 o
5 5 6 3.75 1.26 1.03 <
-5 5 6 3.90 -3.06 4.36 <
-2 6 6 86.00 59.68 13.21 o
4 6 6 83.13 77.69 9.35 o
-4 6 6 84.17 86.42 18.47 o
-1 7 6 8.49 19.26 9.99 <
-3 7 6 0.65 5.36 3.27 <
-5 7 6 0.29 6.74 4.18 <
7 7 6 1.04 -0.78 1.67 <
-2 8 6 15.02 32.31 10.21 o
4 8 6 2.84 5.58 2.72 <
-4 8 6 2.81 6.94 2.93 <
6 8 6 5.42 3.01 1.53 <
-6 8 6 5.37 11.90 5.55 <
5 9 6 4.47 4.85 4.06 <
-4 10 6 0.49 1.61 2.85 <
0 1 7 39.54 24.18 6.97 o
1 2 7 169.31 197.96 21.94 o
-1 2 7 168.81 199.46 27.71 o
0 3 7 151.44 181.40 24.93 o
2 3 7 1233.40 1322.03 50.89 o
-2 3 7 1234.47 1217.30 62.59 o
1 4 7 199.61 164.40 21.98 o
-1 4 7 200.69 163.27 42.91 o
3 4 7 141.32 115.76 13.80 o
-3 4 7 141.38 120.13 15.94 o
0 5 7 40.98 38.89 14.62 <
2 5 7 11.07 1.79 4.16 <
-2 5 7 11.12 -4.36 5.23 <
4 5 7 36.83 34.74 7.08 o
-4 5 7 36.36 -18.87 25.06 <
-1 6 7 135.52 173.84 26.28 o
5 6 7 11.48 8.75 2.36 o
-5 6 7 11.39 2.72 4.35 <
-2 7 7 18.62 12.75 5.20 <
4 7 7 5.92 3.30 4.00 <
-4 7 7 5.94 8.57 4.30 <
6 7 7 5.28 7.49 1.90 o
-6 7 7 5.33 5.48 4.16 <
-1 8 7 24.67 28.30 11.16 <
-3 8 7 1.35 5.35 2.28 <
5 8 7 2.70 2.85 2.70 <
-5 8 7 2.74 7.90 5.44 <
-2 9 7 7.74 0.33 1.75 <
-4 9 7 11.15 16.55 5.10 o
-3 10 7 27.41 41.60 7.85 o
0 2 8 441.34 522.51 46.81 o
2 2 8 505.44 426.17 46.15 o
-2 2 8 502.35 419.99 51.44 o
1 3 8 1050.92 1013.25 55.31 o
-1 3 8 1049.77 1122.45 72.37 o
2 4 8 118.25 110.29 17.62 o
-2 4 8 118.22 117.40 25.94 o
1 5 8 88.54 72.50 16.23 o
-1 5 8 88.00 66.60 16.99 o
3 5 8 408.09 421.63 32.91 o
-3 5 8 408.06 398.03 34.99 o
0 6 8 10.93 22.02 10.72 <
-2 6 8 261.31 192.92 22.95 o
4 6 8 60.92 78.08 11.08 o
-4 6 8 60.96 108.85 23.97 o
6 6 8 5.61 1.80 2.24 <
-6 6 8 5.59 0.43 2.79 <
-1 7 8 44.77 62.11 15.84 o
-3 7 8 20.84 22.47 7.49 o
5 7 8 16.93 14.60 3.15 o
-5 7 8 16.75 14.70 7.02 <
-2 8 8 20.46 41.47 11.72 o
4 8 8 20.78 14.68 9.03 <
-4 8 8 20.71 8.90 3.13 <
6 8 8 3.53 0.33 1.72 <
-6 8 8 3.54 -2.79 2.50 <
-1 9 8 9.67 -5.49 4.30 <
-3 9 8 2.49 7.66 4.63 <
1 2 9 77.59 65.26 17.23 o
-1 2 9 78.64 54.12 16.10 o
0 3 9 1137.97 1328.16 75.79 o
2 3 9 91.50 123.61 18.43 o
-2 3 9 91.45 88.49 18.71 o
1 4 9 415.18 466.98 41.56 o
-1 4 9 415.33 471.46 48.76 o
3 4 9 63.78 62.81 10.60 o
-3 4 9 63.45 53.42 12.90 o
2 5 9 39.48 45.81 12.38 o
-2 5 9 39.66 27.75 9.66 <
4 5 9 35.02 33.38 9.62 o
-4 5 9 35.04 23.25 12.68 <
1 6 9 47.14 24.62 13.05 <
-1 6 9 46.63 33.17 11.73 <
5 6 9 8.74 9.34 2.97 o
-5 6 9 8.82 4.80 4.32 <
0 7 9 49.97 48.70 16.48 <
4 7 9 63.28 76.72 11.69 o
-4 7 9 63.35 66.93 11.74 o
6 7 9 1.54 4.12 1.95 <
-6 7 9 1.54 4.66 4.54 <
-1 8 9 30.69 25.97 10.58 <
-3 8 9 0.02 2.31 4.21 <
5 8 9 1.78 5.89 6.35 <
-5 8 9 1.78 1.62 2.70 <
-2 9 9 12.87 17.97 7.87 <
1 1 10 4.61 9.64 7.17 <
-1 1 10 4.32 26.50 15.96 <
0 2 10 1436.62 1589.72 93.79 o
3 3 10 27.95 11.10 7.94 <
-3 3 10 27.98 11.82 17.90 <
0 4 10 36.12 65.07 17.13 o
2 4 10 193.08 191.23 25.36 o
-2 4 10 194.30 193.59 30.57 o
1 5 10 8.73 21.25 8.94 <
-1 5 10 8.74 23.09 8.36 <
3 5 10 80.42 87.83 17.37 o
-3 5 10 80.47 70.15 15.15 o
5 5 10 5.02 4.27 2.90 <
-5 5 10 5.18 10.22 6.94 <
0 6 10 70.77 37.18 14.79 <
2 6 10 16.81 14.79 6.35 <
-2 6 10 17.02 15.60 7.18 <
4 6 10 1.80 -1.62 3.05 <
1 7 10 31.48 62.49 27.46 <
-1 7 10 31.71 42.86 14.65 <
3 7 10 8.47 11.98 4.49 <
-3 7 10 8.57 14.46 7.33 <
5 7 10 5.32 12.46 3.50 o
-5 7 10 5.31 10.67 9.46 <
0 8 10 3.78 17.45 11.47 <
-2 8 10 12.28 -15.12 12.20 <
4 8 10 4.83 -0.19 2.46 <
-4 8 10 4.77 5.66 3.20 <
0 1 11 264.69 366.26 38.28 o
1 2 11 23.37 21.50 10.60 <
-1 2 11 23.23 29.44 14.35 <
0 3 11 144.76 200.02 37.23 o
2 3 11 70.90 46.53 13.23 o
-2 3 11 70.45 52.32 19.04 <
1 4 11 87.23 79.53 21.21 o
-1 4 11 86.99 76.26 23.35 o
3 4 11 17.18 27.69 10.71 <
-3 4 11 17.07 23.13 8.49 <
0 5 11 100.84 67.07 16.87 o
2 5 11 9.65 22.10 11.83 <
-2 5 11 9.62 6.36 9.04 <
4 5 11 17.90 11.71 5.13 <
-4 5 11 18.05 -2.90 5.01 <
1 6 11 10.37 13.73 9.15 <
-1 6 11 10.08 2.82 4.10 <
3 6 11 108.10 108.69 17.79 o
-3 6 11 108.07 135.15 20.96 o
5 6 11 1.85 3.86 2.87 <
-5 6 11 1.88 6.95 7.90 <
0 7 11 0.02 2.64 5.05 <
2 7 11 4.59 5.17 11.43 <
-2 7 11 4.60 11.30 7.90 <
4 7 11 0.06 -3.21 4.24 <
-4 7 11 0.07 0.19 2.48 <
1 8 11 20.36 1.00 4.65 <
-1 8 11 20.37 41.30 14.12 <
-3 8 11 3.25 10.67 4.72 <
2 2 12 108.93 104.35 29.98 o
-2 2 12 109.28 86.01 38.82 <
1 3 12 56.90 72.98 21.63 o
-1 3 12 57.34 90.05 26.81 o
2 4 12 9.84 40.99 14.63 <
4 4 12 43.35 0.53 7.64 <
-4 4 12 43.22 8.54 14.94 <
1 5 12 27.04 18.33 10.24 <
-1 5 12 26.98 8.59 10.12 <
3 5 12 36.23 45.55 14.39 o
-3 5 12 36.00 26.10 10.71 <
2 6 12 47.90 21.86 9.59 <
-2 6 12 47.87 20.27 10.67 <
4 6 12 4.83 14.26 5.82 <
-4 6 12 4.83 17.23 10.64 <
1 7 12 18.63 30.53 16.63 <
-1 7 12 18.64 17.77 11.17 <
3 7 12 8.16 1.24 4.28 <
-3 7 12 8.10 10.52 7.50 <
1 2 13 56.77 41.17 14.49 <
-1 2 13 56.50 59.55 23.42 <
0 3 13 39.46 50.67 21.95 <
1 4 13 23.84 30.10 13.62 <
-1 4 13 23.90 14.16 10.76 <
3 4 13 40.37 52.81 13.54 o
-3 4 13 40.48 27.80 19.56 <
2 5 13 38.16 25.14 11.25 <
-2 5 13 38.27 20.28 9.50 <
4 5 13 1.56 0.55 8.79 <
-4 5 13 1.57 -6.96 10.95 <
-1 6 13 0.64 19.84 12.60 <
3 6 13 11.46 3.78 5.62 <
-3 6 13 11.45 7.42 6.20 <
0 7 13 78.71 138.51 35.41 o
1 1 14 39.87 21.38 19.62 <
-1 1 14 39.88 27.74 18.78 <
0 2 14 213.75 288.46 44.09 o
1 3 14 38.22 54.43 17.02 o
-1 3 14 38.26 47.82 19.45 <
3 3 14 13.54 3.58 14.98 <
-3 3 14 13.54 11.72 23.51 <
2 4 14 43.01 26.56 10.73 <
-2 4 14 42.78 52.88 24.22 <
1 5 14 39.89 34.36 14.41 <
-1 5 14 39.74 33.05 14.92 <
3 5 14 0.58 -0.36 7.26 <
-3 5 14 0.60 -5.83 4.70 <
0 6 14 22.64 25.80 13.91 <
2 3 15 16.59 -2.39 9.53 <
-2 3 15 16.66 16.10 15.03 <
1 4 15 49.82 94.97 30.49 o
-1 4 15 49.93 67.92 26.16 <
0 0 16 17.38 46.14 39.80 <
2 2 16 9.61 39.31 35.14 <
loop_
_restr_angle_atom_site_label_1
_restr_angle_site_symmetry_1
_restr_angle_atom_site_label_2
_restr_angle_site_symmetry_2
_restr_angle_atom_site_label_3
_restr_angle_site_symmetry_3
_restr_angle_target
_restr_angle_target_weight_param
? ? ? ? ? ? ? ?
loop_
_restr_distance_atom_site_label_1
_restr_distance_site_symmetry_1
_restr_distance_atom_site_label_2
_restr_distance_site_symmetry_2
_restr_distance_target
_restr_distance_target_weight_param
? ? ? ? ? ?
loop_
_restr_equal_angle_atom_site_label_1
_restr_equal_angle_site_symmetry_1
_restr_equal_angle_atom_site_label_2
_restr_equal_angle_site_symmetry_2
_restr_equal_angle_atom_site_label_3
_restr_equal_angle_site_symmetry_3
_restr_equal_angle_class_class_id
_restr_equal_angle_class_target_weight_param
? ? ? ? ? ? ? ?
loop_
_restr_equal_distance_atom_site_label_1
_restr_equal_distance_site_symmetry_1
_restr_equal_distance_atom_site_label_2
_restr_equal_distance_site_symmetry_2
_restr_equal_distance_class_class_id
_restr_equal_distance_class_target_weight_param
? ? ? ? ? ?
loop_
_restr_equal_torsion_atom_site_label_1
_restr_equal_torsion_site_symmetry_1
_restr_equal_torsion_atom_site_label_2
_restr_equal_torsion_site_symmetry_2
_restr_equal_torsion_atom_site_label_3
_restr_equal_torsion_site_symmetry_3
_restr_equal_torsion_atom_site_label_4
_restr_equal_torsion_site_symmetry_4
_restr_equal_torsion_class_class_id
_restr_equal_torsion_class_target_weight_param
? ? ? ? ? ? ? ? ? ?
loop_
_restr_torsion_atom_site_label_1
_restr_torsion_site_symmetry_1
_restr_torsion_atom_site_label_2
_restr_torsion_site_symmetry_2
_restr_torsion_atom_site_label_3
_restr_torsion_site_symmetry_3
_restr_torsion_atom_site_label_4
_restr_torsion_site_symmetry_4
_restr_torsion_angle_target
_restr_torsion_weight_param
? ? ? ? ? ? ? ? ? ?
loop_
_twin_individual_id
_twin_individual_mass_fraction_refined
_twin_individual_twin_matrix_11
_twin_individual_twin_matrix_12
_twin_individual_twin_matrix_13
_twin_individual_twin_matrix_21
_twin_individual_twin_matrix_22
_twin_individual_twin_matrix_23
_twin_individual_twin_matrix_31
_twin_individual_twin_matrix_32
_twin_individual_twin_matrix_33
? ? ? ? ? ? ? ? ? ? ?
loop_
_twin_refln_datum_id
_twin_refln_individual_id
_twin_refln_index_h
_twin_refln_index_k
_twin_refln_index_l
_twin_refln_F_squared_calc
_twin_refln_F_squared_meas
_twin_refln_F_squared_sigma
_twin_refln_include_status
? ? ? ? ? ? ? ? ?
loop_
_jana_atom_site_adp_c_label
_jana_atom_site_adp_c_type_symbol
_jana_atom_site_adp_c_111
_jana_atom_site_adp_c_112
_jana_atom_site_adp_c_113
_jana_atom_site_adp_c_122
_jana_atom_site_adp_c_123
_jana_atom_site_adp_c_133
_jana_atom_site_adp_c_222
_jana_atom_site_adp_c_223
_jana_atom_site_adp_c_233
_jana_atom_site_adp_c_333
? ? ? ? ? ? ? ? ? ? ? ?
loop_
_jana_atom_site_adp_d_label
_jana_atom_site_adp_d_type_symbol
_jana_atom_site_adp_d_1111
_jana_atom_site_adp_d_1112
_jana_atom_site_adp_d_1113
_jana_atom_site_adp_d_1122
_jana_atom_site_adp_d_1123
_jana_atom_site_adp_d_1133
_jana_atom_site_adp_d_1222
_jana_atom_site_adp_d_1223
_jana_atom_site_adp_d_1233
_jana_atom_site_adp_d_1333
_jana_atom_site_adp_d_2222
_jana_atom_site_adp_d_2223
_jana_atom_site_adp_d_2233
_jana_atom_site_adp_d_2333
_jana_atom_site_adp_d_3333
? ? ? ? ? ? ? ? ? ? ? ? ? ? ? ? ?
loop_
_jana_atom_site_adp_e_label
_jana_atom_site_adp_e_type_symbol
_jana_atom_site_adp_e_11111
_jana_atom_site_adp_e_11112
_jana_atom_site_adp_e_11113
_jana_atom_site_adp_e_11122
_jana_atom_site_adp_e_11123
_jana_atom_site_adp_e_11133
_jana_atom_site_adp_e_11222
_jana_atom_site_adp_e_11223
_jana_atom_site_adp_e_11233
_jana_atom_site_adp_e_11333
_jana_atom_site_adp_e_12222
_jana_atom_site_adp_e_12223
_jana_atom_site_adp_e_12233
_jana_atom_site_adp_e_12333
_jana_atom_site_adp_e_13333
_jana_atom_site_adp_e_22222
_jana_atom_site_adp_e_22223
_jana_atom_site_adp_e_22233
_jana_atom_site_adp_e_22333
_jana_atom_site_adp_e_23333
_jana_atom_site_adp_e_33333
? ? ? ? ? ? ? ? ? ? ? ? ? ? ? ? ? ? ? ? ? ? ?
loop_
_jana_atom_site_adp_f_label
_jana_atom_site_adp_f_type_symbol
_jana_atom_site_adp_f_111111
_jana_atom_site_adp_f_111112
_jana_atom_site_adp_f_111113
_jana_atom_site_adp_f_111122
_jana_atom_site_adp_f_111123
_jana_atom_site_adp_f_111133
_jana_atom_site_adp_f_111222
_jana_atom_site_adp_f_111223
_jana_atom_site_adp_f_111233
_jana_atom_site_adp_f_111333
_jana_atom_site_adp_f_112222
_jana_atom_site_adp_f_112223
_jana_atom_site_adp_f_112233
_jana_atom_site_adp_f_112333
_jana_atom_site_adp_f_113333
_jana_atom_site_adp_f_122222
_jana_atom_site_adp_f_122223
_jana_atom_site_adp_f_122233
_jana_atom_site_adp_f_122333
_jana_atom_site_adp_f_123333
_jana_atom_site_adp_f_133333
_jana_atom_site_adp_f_222222
_jana_atom_site_adp_f_222223
_jana_atom_site_adp_f_222233
_jana_atom_site_adp_f_222333
_jana_atom_site_adp_f_223333
_jana_atom_site_adp_f_233333
_jana_atom_site_adp_f_333333
? ? ? ? ? ? ? ? ? ? ? ? ? ? ? ? ? ? ? ? ? ? ? ? ? ? ? ? ? ?
