#------------------------------------------------------------------------------
#$Date: 2021-11-03 23:20:38 +0200 (Wed, 03 Nov 2021) $
#$Revision: 270261 $
#$URL: file:///home/coder/svn-repositories/cod/cif/4/51/91/4519121.cif $
#------------------------------------------------------------------------------
#
# This file is available in the Crystallography Open Database (COD),
# http://www.crystallography.net/
#
# All data on this site have been placed in the public domain by the
# contributors.
#
data_4519121
loop_
_publ_author_name
'Gubanov, Alexander I.'
'Smolentsev, Anton I.'
'Filatov, Evgeny'
'Kuratieva, Natalia V.'
'Danilenko, Andrey M.'
'Korenev, Sergey Vasilievich'
_publ_section_title
;
 Revisiting Sodium Hexafluoroiridates: Perspective Precursors for
 Electronic, Quantum, and Related Materials.
;
_journal_issue                   42
_journal_name_full               'ACS omega'
_journal_page_first              27697
_journal_page_last               27701
_journal_paper_doi               10.1021/acsomega.1c02722
_journal_volume                  6
_journal_year                    2021
_chemical_formula_moiety         'F6 H4 Ir Na3 O2'
_chemical_formula_sum            'F6 H4 Ir Na3 O2'
_chemical_formula_weight         411.20
_space_group_crystal_system      trigonal
_space_group_IT_number           148
_space_group_name_Hall           '-R 3'
_space_group_name_H-M_alt        'R -3 :H'
_atom_sites_solution_primary     direct
_atom_sites_solution_secondary   difmap
_audit_creation_method           SHELXL-2014/7
_cell_angle_alpha                90
_cell_angle_beta                 90
_cell_angle_gamma                120
_cell_formula_units_Z            3
_cell_length_a                   7.5963(3)
_cell_length_b                   7.5963(3)
_cell_length_c                   9.8056(4)
_cell_measurement_reflns_used    1605
_cell_measurement_temperature    293(2)
_cell_measurement_theta_max      30.46
_cell_measurement_theta_min      3.73
_cell_volume                     490.01(3)
_computing_cell_refinement       'Bruker SAINT'
_computing_data_collection       'Bruker APEX2'
_computing_data_reduction        'Bruker SAINT'
_computing_molecular_graphics    'Bruker SHELXTL'
_computing_publication_material  'Bruker SHELXTL'
_computing_structure_refinement  'Bruker SHELXTL'
_computing_structure_solution    'Bruker SHELXTL'
_diffrn_ambient_temperature      293(2)
_diffrn_detector_area_resol_mean 25
_diffrn_measured_fraction_theta_full 0.990
_diffrn_measured_fraction_theta_max 0.994
_diffrn_measurement_device_type  'Bruker Nonius X8Apex CCD area-detector'
_diffrn_measurement_method       '\f scans'
_diffrn_radiation_monochromator  graphite
_diffrn_radiation_probe          x-ray
_diffrn_radiation_type           MoK\a
_diffrn_radiation_wavelength     0.71073
_diffrn_reflns_av_R_equivalents  0.0267
_diffrn_reflns_av_unetI/netI     0.0174
_diffrn_reflns_Laue_measured_fraction_full 0.990
_diffrn_reflns_Laue_measured_fraction_max 0.994
_diffrn_reflns_limit_h_max       10
_diffrn_reflns_limit_h_min       -10
_diffrn_reflns_limit_k_max       10
_diffrn_reflns_limit_k_min       -10
_diffrn_reflns_limit_l_max       11
_diffrn_reflns_limit_l_min       -13
_diffrn_reflns_number            1590
_diffrn_reflns_point_group_measured_fraction_full 0.990
_diffrn_reflns_point_group_measured_fraction_max 0.994
_diffrn_reflns_theta_full        25.250
_diffrn_reflns_theta_max         30.457
_diffrn_reflns_theta_min         3.730
_diffrn_standards_decay_%        0
_diffrn_standards_number         0
_exptl_absorpt_coefficient_mu    20.708
_exptl_absorpt_correction_type   multi-scan
_exptl_absorpt_process_details   'Bruker SADABS'
_exptl_crystal_colour            colorless
_exptl_crystal_density_diffrn    4.180
_exptl_crystal_description       prism
_exptl_crystal_F_000             552
_exptl_crystal_size_max          0.120
_exptl_crystal_size_mid          0.060
_exptl_crystal_size_min          0.060
_exptl_transmission_factor_max   0.407
_exptl_transmission_factor_min   0.345
_refine_diff_density_max         1.170
_refine_diff_density_min         -0.694
_refine_diff_density_rms         0.161
_refine_ls_extinction_coef       0.0017(3)
_refine_ls_extinction_expression Fc^*^=kFc[1+0.001xFc^2^\l^3^/sin(2\q)]^-1/4^
_refine_ls_extinction_method     'SHELXL-2014/7 (Sheldrick 2014'
_refine_ls_goodness_of_fit_ref   1.165
_refine_ls_hydrogen_treatment    undef
_refine_ls_matrix_type           full
_refine_ls_number_parameters     22
_refine_ls_number_reflns         333
_refine_ls_number_restraints     0
_refine_ls_restrained_S_all      1.165
_refine_ls_R_factor_all          0.0126
_refine_ls_R_factor_gt           0.0126
_refine_ls_shift/su_max          0.000
_refine_ls_shift/su_mean         0.000
_refine_ls_structure_factor_coef Fsqd
_refine_ls_weighting_details
'w=1/[\s^2^(Fo^2^)+(0.0204P)^2^] where P=(Fo^2^+2Fc^2^)/3'
_refine_ls_weighting_scheme      calc
_refine_ls_wR_factor_gt          0.0316
_refine_ls_wR_factor_ref         0.0316
_reflns_Friedel_coverage         0.000
_reflns_number_gt                333
_reflns_number_total             333
_reflns_threshold_expression     >2\s(I)
_cod_data_source_file            ao1c02722_si_002.cif
_cod_data_source_block           gub002
_cod_original_cell_volume        490.01(4)
_cod_database_code               4519121
_shelx_shelxl_version_number     2014/7
_shelx_space_group_comment
;
The symmetry employed for this shelxl refinement is uniquely defined
by the following loop, which should always be used as a source of
symmetry information in preference to the above space-group names.
They are only intended as comments.
;
_shelx_estimated_absorpt_t_min   0.190
_shelx_estimated_absorpt_t_max   0.370
_shelx_res_file
;

    D:\Job\gubanov\gub002\gub002.res created by SHELXL-2014/7

REM  gub002 in R3
REM R1 =  0.0126 for    333 Fo > 4sig(Fo)  and  0.0126 for all    333 data
REM     22 parameters refined using      0 restraints
REM Highest difference peak  1.170,  deepest hole -0.694,  1-sigma level  0.161
TITL gub002 in R3
CELL 0.71073 7.5963 7.5963 9.8056 90.000 90.000 120.000
ZERR 3.0000 0.0003 0.0003 0.0004 0.000 0.000 0.000
LATT 3
SYMM -Y, X-Y, Z
SYMM -X+Y, -X, Z
SFAC F NA IR O H
UNIT 18 9 3 6 12
MERG 2
OMIT 0 180
FMAP 2
GRID
PLAN 5
EQIV $1 1/3-X+Y,-X-1/3,Z-1/3
EQIV $2 2/3-X+Y,1/3-X,1/3+Z
EQIV $3 1-X+Y,-X,Z
EQIV $4 -X+Y,-X,Z
EQIV $5 -Y,X-Y,Z
EQIV $6 -Y,X-Y-1,Z
EQIV $7 2/3+Y,1/3-X+Y,1/3-Z
EQIV $8 -Y-1/3,X-Y-2/3,1/3+Z
FREE Na1 Na1_$1
FREE Na1 Na1_$2
FREE Na1 Na1_$3
FREE Na1 Na1_$4
FREE Na1 Na1_$5
FREE Na1 Na1_$6
FREE Na1 Na1_$7
FREE Na1 Na1_$8
TEMP 20
SIZE 0.12 0.06 0.06
OMIT  -2 3 1
OMIT  -1 1 4
L.S. 15
ACTA 50.5
WGHT    0.020400
EXTI    0.001714
FVAR       0.11981
IR1   3    0.000000    0.000000    0.000000    10.16667    0.01005    0.01005 =
         0.00962    0.00000    0.00000    0.00502
F3    1    0.061748   -0.174790    0.109019    11.00000    0.03540    0.02422 =
         0.02202    0.00454   -0.00439    0.02029
NA1   2    0.166667   -0.166667    0.333333    10.50000    0.03360    0.04327 =
         0.01848    0.00189    0.00203    0.03026
O2    4    0.000000    0.000000    0.384577    10.33333    0.01200    0.01200 =
         0.01285    0.00000    0.00000    0.00600
HKLF 4

REM  gub002 in R3
REM R1 =  0.0126 for     333 Fo > 4sig(Fo)  and  0.0126 for all     333 data
REM     22 parameters refined using      0 restraints

END

WGHT      0.0204      0.0000

REM Highest difference peak  1.170,  deepest hole -0.694,  1-sigma level  0.161
Q1    1  -0.0398  0.0603  0.0366  11.00000  0.05    1.11
Q2    1   0.0000  0.0000  0.5000  10.16667  0.05    0.51
Q3    1   0.1025 -0.1009  0.0443  11.00000  0.05    0.33
Q4    1   0.0151 -0.0466  0.1637  11.00000  0.05    0.30
Q5    1  -0.1657 -0.2785  0.1543  11.00000  0.05    0.30
;
_shelx_res_checksum              40880
_shelx_hkl_file
;
   1  -2   0  582.31   19.65
   1  -2   0  575.08   22.26
   1   1   0  586.20   19.61
   1   1   0  599.25   19.78
  -2   1   0  594.26   19.67
  -2   1   0  619.05   19.68
  -1   2   0  534.42   19.64
  -1   2   0  601.86   19.67
  -1  -1   0  607.58   19.67
  -1  -1   0  561.22   19.60
   2  -1   0  588.98   19.67
   2  -1   0  574.15   19.67
   3   0   0  397.18   13.19
   0  -3   0  387.06   13.12
  -3   3   0  389.41   14.91
   3   0   0  404.53   13.19
  -3   3   0  366.99   13.21
  -3   0   0  387.78   13.16
   0   3   0  405.71   13.14
   3  -3   0  385.39   13.24
   0   3   0  380.50   13.11
   2  -4   0  849.77   27.98
   2  -4   0  824.52   31.71
   2   2   0  866.29   27.91
  -4   2   0  842.62   28.02
   2   2   0  819.05   27.91
  -2  -2   0  829.08   27.89
  -2   4   0  895.57   28.04
   4  -2   0  776.43   28.02
  -2   4   0  792.39   27.98
   4  -5   0  278.05    9.58
   1   4   0  273.51    9.42
   1   4   0  297.82    9.44
  -5   1   0  279.01    9.54
  -4   5   0  270.91    9.60
   5  -1   0  258.71    9.56
   4   1   0  656.29   20.95
  -5   4   0  579.28   21.04
   4   1   0  571.38   20.92
   4   1   0  641.95   20.94
   1  -5   0  621.32   20.85
  -4  -1   0  623.80   20.89
  -1   5   0  619.07   20.92
  -1   5   0  652.24   20.94
   5  -4   0  613.13   21.05
   3  -6   0  293.56   10.19
   3   3   0  309.51   10.15
  -6   3   0  281.32   10.29
   3  -6   0  293.66   11.68
   3   3   0  290.60   10.14
  -6   3   0  294.37   10.30
   6  -3   0  287.93   10.33
  -3  -3   0  304.01   10.08
  -3   6   0  320.72   10.32
  -3   6   0  289.64   10.26
   6   0   0  304.42   10.95
  -6   6   0  319.16   11.10
   6  -6   0  316.85   11.05
  -6   0   0  323.47   10.90
   0   6   0  315.50   10.83
   5  -7   0  178.72    6.38
  -7   2   0  181.05    6.40
   2   5   0  176.58    6.22
   7  -2   0  179.32    6.46
  -5   7   0  172.77    6.46
   5   2   0  211.73    7.62
   2  -7   0  209.10    8.84
  -7   5   0  224.24    7.84
   7  -5   0  224.22    7.85
  -2   7   0  217.04    7.65
   1   7   0  142.01    5.13
   8  -1   0  145.07    5.37
  -7   8   0  139.57    5.49
   4  -8   0  212.61    8.76
   4   4   0  208.85    7.49
  -8   4   0  215.25    7.75
  -4   8   0  217.64    7.69
   8  -4   0  216.00    7.80
   1  -8   0  119.16    5.10
  -8   7   0  106.97    4.45
   7   1   0  109.68    4.23
  -1   8   0  109.49    4.14
   8  -7   0  107.38    4.38
   3   6   0  176.12    6.29
  -6   9   0  172.42    6.60
   9  -3   0  180.57    6.64
   3  -9   0  119.49    5.37
  -9   6   0  120.83    4.75
   6   3   0  113.52    4.46
  -9   6   0  119.04    4.75
   9  -6   0  125.78    4.81
  -3   9   0  116.99    4.52
   9   0   0   93.61    3.72
  -9   9   0   86.67    3.93
   0   9   0   85.74    3.47
   2   8   0  119.58    4.47
  10  -2   0  117.70    4.79
  -8  10   0  120.56    4.98
   5 -10   0   89.96    4.35
   5   5   0   87.15    3.50
  -5  10   0   89.79    3.74
  10  -5   0   94.09    3.93
 -10   8   0  139.10    5.67
   8   2   0  141.03    5.33
 -10   8   0  141.02    5.68
  -2  10   0  137.10    5.25
  -1   0  -1  517.46   16.75
   1  -1  -1  499.87   16.79
   1  -1  -1  498.20   18.95
   1  -1  -1  523.01   16.77
  -1   0  -1  492.74   16.75
  -1   1   1  441.00   16.76
  -1   1   1  526.29   16.80
   1   0   1  521.16   16.76
   1   0   1  478.45   16.84
  -1   1   1  498.02   18.98
  -1   3  -1  210.96    7.06
  -1   3  -1  201.64    7.05
  -2  -1  -1  213.80    7.09
   3  -2  -1  203.73    7.18
  -3   2   1  201.12    7.13
   2   1   1  202.34    7.08
   2   1   1  215.34    7.10
   1  -3   1  204.03    8.11
   1  -3   1  211.40    7.00
   0  -2  -1  781.84   26.28
   2   0  -1  765.84   26.27
   2   0  -1  855.13   26.44
  -2   2  -1  771.35   26.29
  -2   2  -1  753.46   26.28
   2  -2   1  810.86   26.28
   0   2   1  754.83   26.43
  -2   0   1  793.40   26.37
   0   2   1  770.20   26.28
   5  -3  -1  346.82   11.91
  -2   5  -1  329.50   11.77
  -3  -2  -1  326.26   11.74
  -2   5  -1  356.29   11.80
  -5   3   1  354.01   11.89
   3   2   1  356.93   11.79
   2  -5   1  339.97   13.47
   3   2   1  358.12   11.78
   2  -5   1  342.86   11.67
   2  -3  -1   21.42    1.00
   1   2  -1   21.27    0.81
   1   2  -1   21.70    0.81
  -3   1  -1   19.33    0.94
   2  -3  -1   24.10    1.07
   3  -1   1   19.11    0.93
  -2   3   1   22.11    1.02
  -2   3   1   20.28    0.96
  -3   4  -1  241.64    8.79
  -3   4  -1  214.02    7.73
   4  -1  -1  216.28    7.74
  -1  -3  -1  222.15    7.66
  -3   4  -1  242.54    7.78
   1   3   1  228.88    7.67
   1   3   1  234.10    7.69
  -4   1   1  217.18    7.70
   3  -4   1  210.38    8.75
   3  -4   1  215.60    7.68
  -4   1   1  220.37    7.70
   7  -4  -1  148.38    5.41
  -3   7  -1  146.61    5.25
   3  -7   1  137.45    6.07
   4   3   1  143.39    5.20
  -7   4   1  147.85    5.37
   0   4  -1  517.14   17.62
   4  -4  -1  507.83   17.84
  -4   0  -1  509.10   17.74
   0   4  -1  547.38   17.63
  -4   4   1  541.09   20.08
  -4   4   1  510.48   17.83
   4   0   1  537.84   17.78
  -4   3  -1  315.90   10.78
   3   1  -1  306.24   10.66
   3   1  -1  324.65   10.67
   1  -4  -1  317.21   10.74
  -1   4   1  305.32   10.70
  -1   4   1  327.35   10.75
  -3  -1   1  310.86   10.62
   4  -3   1  305.33   10.75
   6  -2  -1  169.84    6.32
  -2  -4  -1  181.08    6.13
  -4   6  -1  170.25    6.29
  -4   6  -1  190.51    6.37
   2   4   1  174.30    6.17
   2   4   1  183.71    6.18
   4  -6   1  174.07    6.18
  -6   2   1  167.80    6.26
   4  -6   1  176.12    7.16
   9  -5  -1  115.18    4.55
  -4   9  -1  106.43    4.34
  -9   5   1  118.07    4.52
   5   4   1  112.31    4.26
   4  -9   1  113.08    5.12
  -1   6  -1  202.68    6.77
  -5  -1  -1  196.77    6.84
  -1   6  -1  192.80    6.78
   6  -5  -1  198.52    7.04
   5   1   1  184.94    6.88
  -6   5   1  184.82    7.00
   1  -6   1  203.67    8.00
   3  -5  -1  213.47    8.33
  -5   2  -1  215.36    7.38
   2   3  -1  219.95    7.19
   2   3  -1  217.35    7.19
   3  -5  -1  199.44    7.38
  -3   5   1  198.95    7.36
   5  -2   1  207.63    7.38
   5   0  -1  217.70    6.93
   0  -5  -1  195.06    6.82
   5   0  -1  186.74    6.87
  -5   5  -1  181.83    6.96
   0   5   1  191.52    6.83
   0   5   1  210.36    6.86
  -5   0   1  199.82    6.83
   5  -5   1  188.45    6.92
   8  -3  -1  115.19    4.38
  -5   8  -1  109.16    4.32
   3   5   1  110.13    4.14
  -8   3   1  116.02    4.32
  -2   8  -1  144.90    5.38
   8  -6  -1  155.80    5.72
   6   2   1  136.14    5.45
  -8   6   1  154.19    5.71
   2  -8   1  156.47    6.47
   1   5  -1  159.51    5.67
   1   5  -1  175.04    5.69
  -6   1  -1  161.78    5.86
   5  -6  -1  167.29    5.99
   6  -1   1  153.19    5.90
  -5   6   1  166.85    6.00
   4   2  -1  442.15   15.12
  -6   4  -1  447.62   15.31
   4   2  -1  450.86   15.12
   2  -6  -1  434.59   17.34
   2  -6  -1  435.95   15.18
  -4  -2   1  453.27   15.04
   6  -4   1  430.08   15.28
  -2   6   1  484.61   15.27
  -2   6   1  430.21   15.21
   7  -1  -1  116.42    4.30
  -6   7  -1  116.48    4.40
   1   6   1  107.87    4.12
  10  -4  -1  104.23    4.35
  -6  10  -1  104.54    4.29
   4   6   1  105.37    4.04
  10  -7  -1   87.46    3.71
  -3  10  -1   80.55    3.30
   7   3   1   77.38    3.33
 -10   7   1   80.08    3.63
 -10   7   1   82.33    3.65
   7  -7  -1   82.42    3.35
   0   7  -1   83.69    3.01
  -7   7   1   71.90    3.31
   7   0   1   79.03    3.22
   4  -7  -1  129.64    5.54
   4  -7  -1  132.44    4.88
   3   4  -1  126.72    4.66
  -7   3  -1  143.35    4.96
   7  -3   1  134.70    4.97
  -4   7   1  130.70    4.91
   6   1  -1  131.92    4.59
  -7   6  -1  114.01    4.73
   7  -6   1  128.48    4.72
  -1   7   1  120.89    4.56
   9  -2  -1  120.61    4.72
  -7   9  -1  118.79    4.82
   2   7   1  120.34    4.48
  -1   9  -1   75.27    2.90
  -9   8   1   72.43    3.34
   8   1   1   71.90    3.09
   1  -9   1   67.28    3.69
  -8   2  -1  212.98    7.38
   2   6  -1  198.87    7.07
   8  -2   1  202.67    7.42
  -6   8   1  199.98    7.46
  -8   5  -1   59.86    2.70
   3  -8  -1   61.22    3.06
   5   3  -1   62.91    2.45
  -3   8   1   61.33    2.59
   8  -5   1   61.66    2.71
   8   0  -1  142.73    5.21
  -8   8  -1  135.87    5.43
   0   8   1  134.94    5.11
   1   8  -1   78.92    3.12
  -8   9   1   80.78    3.62
   9  -1   1   86.57    3.51
  -9   4  -1   81.63    3.61
   4   5  -1   90.42    3.35
   5  -9  -1   92.73    4.18
   9  -4   1   94.50    3.76
  -5   9   1   86.11    3.64
  -9   7  -1  100.74    4.29
  -9   7  -1  112.61    4.37
   7   2  -1  101.31    3.98
   2  -9  -1  104.26    4.86
  -2   9   1  101.77    4.05
   3   7  -1   74.87    3.08
  -7  10   1   86.38    3.62
  10  -3   1   86.91    3.61
   4 -10  -1  116.10    5.13
   6   4  -1  103.53    4.13
 -10   6  -1  110.16    4.55
  10  -6   1  112.17    4.59
  -4  10   1  108.78    4.36
   0  -1  -2  616.60   20.42
   0  -1  -2  648.48   20.41
  -1   1  -2  591.03   20.38
   1   0  -2  617.91   20.53
  -1   1  -2  584.30   20.37
   1   0  -2  641.26   20.52
  -1   0   2  607.44   20.38
   0   1   2  623.12   20.42
   0   1   2  565.77   20.40
   1  -1   2  602.24   20.46
  -1   0   2  589.43   20.46
  -2   0  -2  544.55   19.40
   2  -2  -2  604.35   21.87
   2  -2  -2  618.54   19.50
   2   0   2  569.10   19.40
   0  -2   2  530.93   21.96
  -2   2   2  595.88   19.44
   3  -1  -2  748.68   25.47
  -2   3  -2  717.07   25.42
  -2   3  -2  777.19   25.43
  -1  -2  -2  771.52   25.46
   3  -1  -2  757.49   25.51
  -2   3  -2  753.67   28.82
   1   2   2  832.85   25.49
   2  -3   2  736.32   28.83
  -3   1   2  749.25   25.45
   2  -3   2  777.30   25.39
   1   2   2  717.89   25.44
  -1   4  -2  319.93   11.06
  -1   4  -2  330.89   11.07
  -3  -1  -2  336.89   11.18
   4  -3  -2  317.47   11.30
  -4   3   2  331.11   12.56
   3   1   2  332.36   11.19
  -4   3   2  335.49   11.25
   1  -4   2  316.01   12.73
   1  -3  -2  268.42    9.18
   2   1  -2  260.64    9.04
   2   1  -2  278.05    9.04
  -3   2  -2  269.18    9.16
   3  -2   2  261.71    9.12
  -2  -1   2  267.48    8.99
  -1   3   2  277.75    9.18
  -1   3   2  257.74    9.13
  -3   5  -2  211.35    7.60
  -2  -3  -2  220.81    7.58
   5  -2  -2  221.44    7.71
  -3   5  -2  226.82    7.63
   2   3   2  229.76    7.61
   2   3   2  223.98    7.60
  -5   2   2  212.89    7.63
   3  -5   2  204.03    8.68
   3  -5   2  221.39    7.50
  -2   6  -2  387.03   13.94
  -2   6  -2  424.42   13.97
  -4  -2  -2  423.13   14.02
   6  -4  -2  414.61   14.21
   2  -6   2  402.25   16.04
  -6   4   2  417.23   14.15
   4   2   2  403.76   14.04
   3  -4  -2  153.56    6.19
   1   3  -2  163.19    5.32
   3  -4  -2  157.02    5.64
  -4   1  -2  160.12    5.54
   1   3  -2  164.43    5.32
  -3   4   2  151.10    5.57
   4  -1   2  148.81    5.53
   0  -4  -2  621.81   21.73
   4   0  -2  607.65   21.69
   4   0  -2  704.01   21.73
  -4   4  -2  631.49   21.78
   4  -4   2  641.40   21.71
  -4   0   2  656.21   21.66
   0   4   2  667.96   21.74
   0   4   2  619.23   21.71
   7  -3  -2  153.75    5.65
  -4   7  -2  147.14    5.52
   3   4   2  156.10    5.49
  -7   3   2  148.78    5.56
  -7   3   2  156.46    5.58
   4  -7   2  152.69    6.40
   8  -5  -2  178.34    6.42
  -3   8  -2  159.74    6.11
   5   3   2  167.76    6.17
  -8   5   2  171.75    6.35
   3  -8   2  176.97    7.24
  -5   0  -2  317.43   10.69
   5  -5  -2  297.46   10.82
   0   5  -2  307.40   10.47
   0   5  -2  313.73   10.46
  -5   5   2  309.84   10.79
   5   0   2  309.11   10.72
  -5   3  -2  300.24   10.73
   3   2  -2  308.17   10.53
   3   2  -2  326.26   10.54
   2  -5  -2  325.93   12.15
   2  -5  -2  308.83   10.74
  -2   5   2  297.99   10.68
   5  -3   2  304.89   10.70
   6  -1  -2   95.86    3.64
  -5   6  -2   93.03    3.69
   5  -6   2   99.22    3.57
  -6   1   2   99.78    3.57
   1   5   2   92.95    3.55
  -5   9  -2  128.35    4.91
   9  -4  -2  131.32    5.02
   4   5   2  123.98    4.76
  -4  10  -2  105.02    4.26
  10  -6  -2  120.87    4.66
   6   4   2  108.31    4.32
  -1   7  -2   96.20    3.53
   7  -6  -2   99.46    3.91
   6   1   2   99.32    3.76
  -7   6   2   97.19    3.88
   1  -7   2   90.41    4.37
  -6   2  -2  547.29   18.32
   4  -6  -2  533.48   18.40
   2   4  -2  539.34   18.03
   2   4  -2  537.17   18.02
   4  -6  -2  533.49   20.65
  -4   6   2  533.63   18.35
   6  -2   2  532.46   18.33
   5   1  -2  203.95    7.18
   1  -6  -2  204.83    7.25
  -6   5  -2  210.69    7.38
   6  -5   2  215.71    7.33
  -1   6   2  194.54    7.23
   8  -2  -2  207.39    7.50
  -6   8  -2  202.68    7.56
   2   6   2  210.44    7.37
  -2   9  -2  103.99    4.01
   9  -7  -2  112.03    4.50
   2  -9   2  111.14    5.07
   7   2   2  107.23    4.24
  -9   7   2  105.56    4.45
   6  -7  -2  149.79    5.63
  -7   1  -2  158.05    5.50
   1   6  -2  144.86    5.18
   7  -1   2  141.11    5.52
  -6   7   2  152.75    5.62
   3  -7  -2  137.14    5.72
  -7   4  -2  136.94    5.07
   4   3  -2  136.50    4.79
  -3   7   2  138.43    5.03
   7  -4   2  128.19    5.04
  -7   7  -2  195.79    7.44
   7   0  -2  205.10    7.26
   0   7   2  207.60    7.27
  10  -3  -2   72.73    3.33
  -7  10  -2   79.08    3.44
   3   7   2   76.85    3.14
   0   8  -2  117.96    4.28
   0  -8   2  120.01    5.47
  -8   8   2  123.71    4.83
   8   0   2  113.06    4.62
   5  -8  -2  120.45    5.10
   3   5  -2  118.34    4.19
  -8   3  -2  118.73    4.52
   8  -3   2  114.65    4.57
  -5   8   2  115.86    4.56
   2  -8  -2  192.52    8.00
   6   2  -2  186.52    6.75
  -8   6  -2  188.61    7.07
   8  -6   2  192.28    7.02
  -2   8   2  191.11    6.90
   9  -1  -2   79.43    3.38
  -8   9  -2   89.04    3.68
   1   8   2   78.65    3.30
   2   7  -2  111.77    3.97
  -7   9   2  111.59    4.51
   9  -2   2  105.76    4.43
  -9   5  -2   77.31    3.40
   5   4  -2   81.17    3.05
   4  -9  -2   75.83    3.78
   9  -5   2   82.25    3.45
  -4   9   2   82.76    3.36
   8   1  -2   84.58    3.44
  -9   8  -2   91.35    3.82
   1  -9  -2   84.35    4.22
  -1   9   2   84.64    3.49
   4   6  -2  124.04    4.51
  -6  10   2  129.01    5.04
  10  -4   2  120.66    5.03
 -10   7  -2   82.60    3.75
   7   3  -2   84.27    3.33
  -3  10   2   84.92    3.55
   0   0  -3  761.28   25.27
   0   0  -3  759.77   25.48
   0   0   3  742.23   25.25
  -1   2  -3  714.65   23.18
   2  -1  -3  673.58   23.30
  -1   2  -3  692.05   23.34
  -1  -1  -3  652.35   23.27
   2  -1  -3  723.60   23.29
   1  -2   3  709.02   23.30
   1   1   3  657.46   23.25
  -2   1   3  714.87   23.25
   1   1  -3  341.99   11.27
   1   1  -3  338.16   11.26
  -2   1  -3  340.04   11.35
   1  -2  -3  344.84   11.42
  -2   1  -3  324.24   11.36
   2  -1   3  333.85   11.34
  -1   2   3  318.86   11.37
  -1  -1   3  335.66   11.21
  -2   4  -3  882.25   33.28
  -2  -2  -3  884.23   29.39
  -2   4  -3  888.31   29.29
   4  -2  -3  891.85   29.49
  -2   4  -3  835.41   29.29
   2  -4   3  896.92   29.20
  -4   2   3  875.21   29.38
   2  -4   3  826.99   33.27
   2   2   3  880.26   29.38
  -3   0  -3  254.11    8.94
   3  -3  -3  251.66    9.04
   0  -3   3  256.06   10.15
   3   0   3  267.65    8.95
  -3   3   3  270.46    8.99
  -3   3  -3  663.44   22.45
   3   0  -3  684.25   22.41
   0  -3  -3  638.48   22.46
   3   0  -3  676.72   22.43
  -3   3  -3  703.98   25.41
  -3   3  -3  683.03   22.43
  -3   0   3  654.95   22.34
   3  -3   3  659.31   22.39
   0   3   3  629.61   22.43
  -3  -3  -3  166.36    5.96
  -3   6  -3  160.41    5.91
  -3   6  -3  177.71    5.94
   6  -3  -3  172.54    6.14
   3   3   3  161.41    5.96
   3  -6   3  163.19    6.89
  -6   3   3  173.29    6.04
   5  -4  -3  182.22    6.55
  -1   5  -3  187.11    6.19
  -1   5  -3  181.66    6.19
  -4  -1  -3  183.53    6.40
   1  -5   3  163.29    7.30
  -5   4   3  182.82    6.47
   4   1   3  170.21    6.39
  -5   4   3  192.47    7.12
   2  -4  -3  527.39   18.29
   2   2  -3  545.54   18.02
   2   2  -3  558.68   18.02
  -4   2  -3  554.72   18.24
   4  -2   3  517.41   18.19
  -2   4   3  518.29   18.23
  -4   5  -3  202.24    7.24
  -1  -4  -3  198.39    7.20
   5  -1  -3  209.18    7.26
  -4   5  -3  219.18    7.26
   4  -5   3  208.31    7.13
   1   4   3  199.72    7.21
  -5   1   3  206.77    7.16
   8  -4  -3  299.47   10.63
  -4   8  -3  295.13   10.40
  -8   4   3  288.24   10.52
   4   4   3  293.42   10.45
   4  -8   3  315.07   12.09
  -2   7  -3  192.63    6.63
   7  -5  -3  186.17    7.01
   5   2   3  190.63    6.84
   2  -7   3  186.70    7.88
  -7   5   3  192.15    6.94
   4  -5  -3  408.53   13.79
  -5   1  -3  388.01   13.63
   1   4  -3  396.23   13.31
   1   4  -3  398.70   13.30
   4  -5  -3  393.42   15.30
   5  -1   3  403.37   13.66
  -4   5   3  396.44   13.69
   4   1  -3  168.54    5.99
   1  -5  -3  163.26    6.14
   4   1  -3  189.83    6.04
  -5   4  -3  163.23    6.16
  -1   5   3  170.31    6.12
  -4  -1   3  181.53    5.91
   5  -4   3  167.36    6.09
   7  -2  -3  150.93    5.63
  -5   7  -3  151.80    5.63
   2   5   3  156.43    5.57
  -5  10  -3   71.80    3.11
  10  -5  -3   77.25    3.40
   5   5   3   73.51    3.11
   9  -6  -3  125.31    4.98
  -3   9  -3  123.24    4.55
   3  -9   3  123.41    5.60
  -9   6   3  125.28    4.93
   6   3   3  119.70    4.74
   0   6  -3  296.27    9.73
  -6   0  -3  284.94   10.07
   0   6  -3  287.48    9.77
   6  -6  -3  285.14   10.26
   6   0   3  291.15   10.14
  -6   6   3  290.13   10.20
   0  -6   3  278.03   11.57
   3   3  -3  250.82    8.65
   3  -6  -3  244.04   10.05
   3   3  -3  263.37    8.66
   3  -6  -3  260.38    9.02
  -6   3  -3  261.66    8.98
  -3   6   3  244.49    8.94
   6  -3   3  256.58    8.94
  -6   6  -3  301.04   11.07
   6   0  -3  306.83   10.93
   6  -6   3  335.36   10.99
   0   6   3  321.34   10.99
  -6   9  -3   97.60    3.93
   9  -3  -3   94.17    3.91
   3   6   3   96.40    3.80
  -1   8  -3   96.93    3.49
   8  -7  -3  101.06    4.04
  -8   7   3   99.19    4.01
   7   1   3   89.81    3.84
   1  -8   3   92.62    4.52
   2   5  -3  260.48    8.57
  -7   2  -3  252.17    8.98
   2   5  -3  247.47    8.58
   5  -7  -3  255.06    9.10
   5  -7  -3  257.97   10.06
  -5   7   3  250.32    9.02
   7  -2   3  248.26    9.02
  -7   5  -3  170.77    6.37
   5   2  -3  171.32    6.08
   2  -7  -3  178.46    7.21
  -2   7   3  168.97    6.28
   7  -5   3  176.12    6.31
  -7   8  -3  116.27    4.76
   8  -1  -3  122.34    4.63
   1   7   3  124.48    4.61
  -2  10  -3   96.27    3.60
 -10   8   3   94.73    4.23
   8   2   3   98.02    4.03
   1   7  -3   94.23    3.27
  -1  -7   3   82.42    4.29
  -7   8   3   97.71    3.88
   8  -1   3   90.82    3.77
   4  -8  -3  182.05    7.42
  -8   4  -3  186.81    6.65
   4   4  -3  175.67    6.23
   8  -4   3  172.90    6.61
  -4   8   3  179.11    6.61
   7   1  -3  158.29    5.87
  -8   7  -3  163.63    6.22
  -1   8   3  165.57    6.05
  10  -2  -3   91.13    3.81
  -8  10  -3   90.35    3.96
   2   8   3   90.74    3.71
   0   9  -3  110.42    3.90
  -9   9   3  110.53    4.66
   9   0   3  107.23    4.50
  -9   3  -3   94.20    3.82
   3   6  -3   94.49    3.33
  -6   9   3   91.95    3.87
   9  -3   3   89.09    3.87
   6   3  -3   97.50    3.60
   3  -9  -3  103.08    4.52
  -9   6  -3   91.08    3.99
  -3   9   3   91.20    3.86
   9   0  -3   69.79    3.09
  -9   9  -3   82.43    3.55
   0   9   3   74.00    3.20
   2   8  -3  104.89    3.69
  10  -2   3  105.52    4.43
  -8  10   3  103.45    4.47
 -10   5  -3   91.26    3.92
   5 -10  -3   93.59    4.39
   5   5  -3   87.01    3.41
  -5  10   3   93.44    3.90
  10  -5   3  101.81    4.08
 -10   8  -3   85.47    3.86
   8   2  -3   85.54    3.40
  -2  10   3   83.39    3.61
   1  -1  -4   72.15    2.88
   0   1  -4   78.15    3.14
   0   1  -4   81.80    2.81
  -1   0  -4   73.81    2.86
   0   1  -4   80.96    2.80
   1  -1  -4   85.60    2.89
  -1   0  -4   81.85    2.87
   1   0   4   76.01    2.84
   0  -1   4   79.67    2.77
  -1   1   4   80.94    2.86
  -1   3  -4  301.06   10.29
  -1   3  -4  318.53   10.29
   3  -2  -4  300.05   10.53
  -2  -1  -4  305.95   10.46
  -1   3  -4  320.79   11.80
  -3   2   4  308.25   10.45
   1  -3   4  282.89   11.78
   2   1   4  300.11   10.43
  -2   2  -4  768.73   27.21
  -2   2  -4  836.71   27.21
   2   0  -4  785.72   27.22
   2   0  -4  877.42   27.24
   0  -2  -4  799.42   27.29
  -2   0   4  807.95   27.16
   2  -2   4  810.52   27.18
   0   2   4  798.16   27.26
   5  -3  -4   89.18    3.42
  -3  -2  -4   84.05    3.26
  -2   5  -4   86.93    3.09
  -2   5  -4   90.56    3.10
   2  -5   4   80.89    3.73
  -5   3   4   88.98    3.47
   3   2   4   85.21    3.26
  -5   3   4   83.01    3.27
   1   2  -4  249.46    8.11
   2  -3  -4  240.23    8.39
   2  -3  -4  243.09    9.26
   1   2  -4  238.71    8.11
  -3   1  -4  234.94    8.30
  -1  -2   4  238.04    9.35
  -2   3   4  233.74    8.32
   3  -1   4  244.25    8.29
   4  -1  -4  257.76    9.51
  -1  -3  -4  263.11    9.50
  -3   4  -4  288.63    9.44
  -3   4  -4  277.39    9.46
   4  -1  -4  285.90    9.53
   3  -4   4  283.49    9.37
   1   3   4  272.30    9.50
  -4   1   4  270.92    9.42
   7  -4  -4  146.84    5.54
  -3   7  -4  142.82    5.21
  -7   4   4  151.40    5.45
   3  -7   4  141.47    6.22
   4   3   4  148.52    5.39
  -4   0  -4  319.48   10.92
   4  -4  -4  301.89   11.02
   0  -4   4  310.82   12.37
   4   0   4  325.05   10.92
  -4   4   4  322.84   10.95
   3   1  -4  118.76    4.23
   3   1  -4  122.58    4.24
   1  -4  -4  122.81    4.42
  -4   3  -4  122.54    4.37
   4  -3   4  121.23    4.30
  -1   4   4  113.38    4.35
   6  -2  -4  257.51    9.47
  -4   6  -4  261.17    9.36
  -2  -4  -4  281.94    9.42
   2   4   4  261.31    9.40
  -6   2   4  285.30    9.40
  -4   9  -4  111.24    4.10
   9  -5  -4  105.36    4.42
   4  -9   4  107.56    5.07
   5   4   4  105.89    4.26
  -1   6  -4   88.13    2.99
  -1   6  -4   85.49    2.98
   6  -5  -4   80.65    3.45
  -5  -1  -4   84.52    3.30
   5   1   4   82.70    3.31
  -6   5   4   86.44    3.39
   1  -6   4   79.69    3.82
   2   3  -4  199.56    6.81
   3  -5  -4  205.74    7.25
   2   3  -4  207.73    6.82
  -5   2  -4  200.01    7.15
   3  -5  -4  207.10    7.95
  -3   5   4  197.87    7.17
   5  -2   4  193.04    7.10
   0  -5  -4  107.05    4.03
   5   0  -4  106.86    3.94
  -5   5  -4  112.89    4.06
   5  -5   4  108.65    3.92
   0   5   4  101.70    3.99
  -5   8  -4   84.34    3.48
   8  -3  -4   89.31    3.64
   3   5   4   93.08    3.55
  -2   8  -4  172.21    6.04
   8  -6  -4  177.49    6.61
   2  -8   4  166.91    7.37
  -8   6   4  170.35    6.48
   6   2   4  176.58    6.41
  -6   1  -4  202.12    7.04
   5  -6  -4  206.36    7.20
   6  -1   4  192.60    7.03
  -5   6   4  192.87    7.05
  -1  -5   4  183.13    7.98
   2  -6  -4  168.45    6.04
  -6   4  -4  158.56    5.98
   4   2  -4  171.28    5.74
   4   2  -4  165.30    5.71
  -2   6   4  162.10    5.97
   6  -4   4  157.64    5.90
   7  -1  -4  122.31    4.61
  -6   7  -4  126.46    4.72
   1   6   4  121.17    4.63
  10  -4  -4   80.01    3.39
  -6  10  -4   68.83    3.13
   4   6   4   74.62    3.20
  10  -7  -4   42.28    2.41
  -3  10  -4   40.97    1.80
   7   3   4   42.74    2.19
   0   7  -4  119.57    4.04
   7  -7  -4  117.98    4.72
   0  -7   4  117.85    5.33
  -7   7   4  115.23    4.66
   7   0   4  118.50    4.62
   3   4  -4  166.36    5.47
  -7   3  -4  150.76    5.87
   4  -7  -4  158.58    6.51
   4  -7  -4  159.84    5.97
   3   4  -4  157.97    5.45
   7  -3   4  156.43    5.88
  -4   7   4  160.66    5.91
  -7   6  -4  135.39    5.14
   6   1  -4  131.29    4.84
  -1   7   4  136.99    5.07
  -7   9  -4   50.46    2.45
   9  -2  -4   51.44    2.38
  -7   9  -4   51.20    2.46
   2   7   4   50.75    2.35
  -1   9  -4   67.70    2.43
   8   1   4   63.90    3.03
  -9   8   4   67.08    3.15
  -8   2  -4  124.28    4.82
   8  -2   4  121.55    4.85
  -6   8   4  126.53    4.88
   5   3  -4  104.41    3.73
   3  -8  -4  100.04    4.58
  -8   5  -4  100.50    4.13
   8  -5   4  111.66    4.14
  -3   8   4   97.21    4.07
   8   0  -4  119.89    4.55
  -8   8  -4  119.07    4.83
   0   8   4  119.90    4.67
  -8   9   4   69.79    3.12
  -1  -8   4   62.63    3.47
   9  -1   4   62.60    3.01
   5  -9  -4   84.79    3.74
   4   5  -4   73.02    2.83
  -9   4  -4   76.41    3.39
  -5   9   4   82.95    3.42
   9  -4   4   80.91    3.44
   7   2  -4   77.15    3.06
  -9   7  -4   74.43    3.47
   2  -9  -4   82.10    3.94
  -2   9   4   80.20    3.38
  10  -3   4   46.86    2.56
  -7  10   4   53.82    2.67
   6   4  -4   93.16    3.38
   4 -10  -4   91.21    4.32
 -10   6  -4   84.04    3.86
  -4  10   4   86.17    3.80
  -1   1  -5  244.16    8.69
  -1   1  -5  266.85    8.70
   1   0  -5  244.47    8.70
   0  -1  -5  245.63    8.75
   1   0  -5  267.57    8.71
   1  -1   5  259.98    8.66
  -1   0   5  251.11    8.66
   0   1   5  253.12    8.72
   0   2  -5  934.08   31.81
   2  -2  -5  999.48   35.97
   0   2  -5 1000.00   31.82
   2  -2  -5  937.76   32.02
  -2   0  -5  865.20   31.94
   2   0   5  943.90   31.93
  -2   2   5  970.82   31.96
  -2   3  -5  427.41   15.03
   3  -1  -5  465.81   15.18
  -2   3  -5  461.86   15.04
   3  -1  -5  436.56   15.17
  -2   3  -5  447.96   17.07
  -1  -2  -5  437.71   15.16
   1   2   5  429.18   15.13
  -3   1   5  426.98   15.06
   2  -3   5  468.08   14.98
  -3  -1  -5  210.86    7.46
   4  -3  -5  213.11    7.57
  -1   4  -5  212.83    7.20
  -1   4  -5  215.48    7.21
  -4   3   5  216.57    7.45
   3   1   5  200.78    7.42
   1  -4   5  214.78    8.43
   2   1  -5  492.67   15.89
   2   1  -5  457.74   15.87
   1  -3  -5  455.53   16.04
  -3   2  -5  457.34   15.97
   3  -2   5  463.01   15.92
  -2  -1   5  484.89   17.92
  -1   3   5  478.59   16.01
   5  -2  -5  266.54    9.53
  -3   5  -5  286.68    9.34
  -3   5  -5  263.08    9.33
  -2  -3  -5  263.30    9.46
  -5   2   5  284.70   10.38
   2   3   5  266.24    9.45
  -5   2   5  265.29    9.39
  -4  -2  -5  247.61    8.48
  -2   6  -5  236.79    8.19
   6  -4  -5  243.49    8.62
  -2   6  -5  237.07    8.17
   2  -6   5  222.77    9.62
   4   2   5  245.23    8.47
  -6   4   5  239.06    8.47
   3  -4  -5  416.83   14.28
   1   3  -5  423.29   13.85
   1   3  -5  422.89   13.86
   3  -4  -5  412.26   15.78
  -4   1  -5  411.63   14.16
  -1  -3   5  404.14   15.96
   4  -1   5  408.46   14.13
  -3   4   5  404.19   14.19
  -4   4  -5  394.54   14.17
   4   0  -5  449.56   14.20
   4   0  -5  403.81   14.15
   0  -4  -5  412.72   14.25
   4  -4   5  422.81   14.10
   0   4   5  414.00   14.22
  -4   0   5  405.55   14.01
  -4   7  -5  211.28    7.54
   7  -3  -5  208.36    7.77
   3   4   5  222.62    7.70
   8  -5  -5  139.83    5.41
  -3   8  -5  131.58    4.89
   5   3   5  143.81    5.27
   3  -8   5  137.54    6.11
   5  -5  -5  168.81    6.78
  -5   0  -5  184.20    6.67
  -5   5   5  193.79    6.72
   5   0   5  194.24    6.69
   0  -5   5  184.51    7.59
  -5   3  -5  156.34    5.73
   3   2  -5  157.72    5.47
   3   2  -5  170.91    5.52
   2  -5  -5  158.54    5.81
   5  -3   5  152.33    5.65
  -2   5   5  150.86    5.74
  -1  -5  -5  227.21    8.33
  -5   6  -5  238.27    8.30
   6  -1  -5  237.68    8.31
   1   5   5  235.20    8.33
  -5   9  -5   88.76    3.60
   9  -4  -5   99.76    3.96
   4   5   5   90.86    3.78
  10  -6  -5   98.68    4.18
  -4  10  -5   94.89    3.61
   6   4   5   92.24    3.97
   7  -6  -5  187.07    6.74
  -1   7  -5  177.00    6.01
   1  -7   5  174.40    7.49
   6   1   5  177.27    6.54
  -7   6   5  167.60    6.55
  -6   2  -5  356.11   12.38
   4  -6  -5  361.77   13.75
   4  -6  -5  364.32   12.52
  -4   6   5  364.77   12.41
   6  -2   5  336.43   12.34
  -2  -4   5  347.77   13.97
   1  -6  -5  135.19    5.16
  -6   5  -5  143.08    5.18
   5   1  -5  133.71    4.92
  -1   6   5  138.43    5.15
   6  -5   5  139.97    5.04
  -6   8  -5  139.66    5.31
   8  -2  -5  144.16    5.34
   2   6   5  137.81    5.31
   9  -7  -5   95.00    4.24
  -2   9  -5   99.52    3.52
   7   2   5   95.96    4.08
   2  -9   5  102.66    4.85
   6  -7  -5  165.73    6.21
  -7   1  -5  164.08    6.05
  -1  -6   5  160.83    6.90
  -6   7   5  161.60    6.08
   7  -1   5  155.69    6.05
   3  -7  -5  186.71    7.38
   4   3  -5  172.93    6.19
   3  -7  -5  183.16    6.69
  -7   4  -5  172.69    6.61
  -3   7   5  174.07    6.61
   7  -4   5  191.84    6.60
   7   0  -5  145.57    5.32
  -7   7  -5  137.13    5.49
   0   7   5  151.79    5.50
   8  -8  -5  158.64    6.08
   0  -8   5  149.73    6.75
  -8   8   5  154.56    5.95
   8   0   5  145.72    5.89
  -8   3  -5  120.05    4.68
   5  -8  -5  114.60    5.02
   8  -3   5  122.02    4.69
  -5   8   5  118.28    4.69
   6   2  -5  204.17    7.14
   2  -8  -5  206.55    8.48
  -8   6  -5  206.43    7.56
  -2   8   5  196.35    7.47
  -8   9  -5   71.55    3.40
   9  -1  -5   77.93    3.24
   1   8   5   82.22    3.38
  -2  -7   5   66.24    3.65
  -7   9   5   71.12    3.31
   9  -2   5   80.44    3.37
  -9   5  -5  138.04    5.47
   4  -9  -5  139.87    5.98
   5   4  -5  140.33    4.88
  -4   9   5  132.07    5.39
   8   1  -5   69.93    2.96
  -9   8  -5   72.89    3.39
  -1   9   5   78.73    3.30
  -6  10   5  104.82    4.34
  10  -4   5   98.18    4.34
   0   0  -6  363.16   12.57
   0   0  -6  383.35   12.58
   0   0   6  359.86   12.51
  -1   2  -6  192.66    7.45
  -1  -1  -6  181.69    6.69
   2  -1  -6  181.67    6.69
  -1   2  -6  194.89    6.59
   2  -1  -6  198.10    6.71
  -1   2  -6  181.06    6.58
   1  -2   6  190.38    6.52
   1   1   6  195.94    6.68
  -2   1   6  198.47    6.65
  -2   1  -6  336.69   11.54
   1   1  -6  353.00   11.46
   1   1  -6  332.17   11.44
   1  -2  -6  324.83   11.59
  -1  -1   6  340.70   11.37
  -1   2   6  341.77   11.55
   2  -1   6  325.94   11.48
  -2   4  -6  295.47   10.10
   4  -2  -6  282.21   10.34
  -2  -2  -6  301.58   10.32
  -2   4  -6  302.14   10.11
   2   2   6  297.60   10.28
  -4   2   6  298.23   10.22
  -3   0  -6  325.85   11.75
   3  -3  -6  347.27   11.86
   0   3  -6  338.93   11.50
   0   3  -6  355.74   11.51
   3   0   6  340.51   11.71
  -3   3   6  335.96   11.75
   0  -3   6  339.03   13.19
   3   0  -6  161.45    5.46
   0  -3  -6  150.26    5.53
  -3   3  -6  149.80    5.42
  -3   3  -6  152.78    5.41
   3   0  -6  149.24    5.44
   3  -3   6  151.98    5.36
   0   3   6  153.67    5.49
  -3   0   6  154.61    5.30
   6  -3  -6  148.59    5.62
  -3   6  -6  148.16    5.28
  -3  -3  -6  153.35    5.53
   3   3   6  144.40    5.49
  -6   3   6  153.17    5.47
   5  -4  -6  104.53    4.02
  -1   5  -6  103.18    3.52
  -4  -1  -6  101.78    3.89
  -1   5  -6  100.95    3.52
  -5   4   6  104.21    3.88
   1  -5   6   98.33    4.37
   4   1   6   93.91    3.83
   2  -4  -6  464.17   16.32
   2   2  -6  489.51   16.01
  -4   2  -6  460.94   16.22
   2   2  -6  478.39   16.02
   4  -2   6  473.18   16.16
  -2  -2   6  477.32   18.18
  -2   4   6  475.45   16.27
  -4   5  -6  210.80    7.68
   5  -1  -6  213.98    7.78
  -1  -4  -6  229.69    7.84
   1   4   6  223.38    7.81
  -4   8  -6  128.36    4.64
   8  -4  -6  123.17    5.01
   4   4   6  129.48    4.94
   7  -5  -6  127.16    4.95
  -2   7  -6  123.02    4.34
   2  -7   6  121.66    5.50
  -7   5   6  125.05    4.77
   5   2   6  124.98    4.80
   4  -5  -6  148.80    5.78
  -5   1  -6  144.71    5.42
   4  -5  -6  143.93    5.54
  -1  -4   6  146.19    6.06
   5  -1   6  150.46    5.39
  -4   5   6  146.08    5.43
   1  -5  -6  102.79    3.93
  -5   4  -6  101.69    3.85
   4   1  -6  100.56    3.68
   5  -4   6  101.37    3.74
  -1   5   6   96.24    3.86
  -5   7  -6  154.63    5.71
   7  -2  -6  158.43    5.84
   2   5   6  155.97    5.83
   9  -6  -6   61.79    3.03
  -3   9  -6   62.93    2.39
   6   3   6   61.46    2.89
   6  -6  -6  219.38    8.09
  -6   0  -6  219.57    7.94
   0  -6   6  207.35    8.96
  -6   6   6  227.38    7.96
   6   0   6  219.54    7.93
  -6   3  -6  108.49    4.21
   3  -6  -6  108.06    4.31
   3   3  -6  106.91    3.78
   3   3  -6  107.74    3.84
   3  -6  -6  113.51    4.56
  -3  -3   6  110.72    4.62
   6  -3   6  108.14    4.14
  -3   6   6  106.66    4.21
  -6   6  -6  194.37    7.08
   6   0  -6  195.41    6.95
   0   6   6  194.49    7.11
   9  -3  -6   61.24    2.77
  -6   9  -6   57.35    2.58
   3   6   6   59.93    2.74
   8  -7  -6  117.19    4.73
   1  -8   6  107.43    5.21
  -8   7   6  110.35    4.57
   7   1   6  117.96    4.63
   5  -7  -6   95.74    4.05
  -7   2  -6   99.68    3.96
  -2  -5   6   95.29    4.39
   7  -2   6   98.00    3.93
  -5   7   6  100.92    3.98
  -7   5  -6  130.01    5.00
   5   2  -6  130.15    4.61
  -2   7   6  127.94    4.99
  -7   8  -6   58.94    2.61
   8  -1  -6   56.08    2.47
   1   7   6   52.54    2.56
   7  -8  -6  100.10    4.18
  -7   8   6   89.36    3.87
  -1  -7   6   86.45    4.32
   8  -1   6   88.26    3.84
   4  -8  -6  197.62    7.99
   4   4  -6  205.23    6.70
  -8   4  -6  192.98    7.30
  -4   8   6  195.56    7.30
   8  -4   6  182.44    7.21
  -8   7  -6   65.22    2.96
   7   1  -6   64.45    2.59
  -1   8   6   63.14    2.93
  -9   3  -6   63.64    3.07
   9  -3   6   68.70    3.13
  -6   9   6   65.59    3.09
  -3  -6   6   69.22    3.45
   6   3  -6   85.47    3.18
  -9   6  -6   88.96    3.80
   3  -9  -6   83.23    4.06
  -3   9   6   83.64    3.70
  -1   0  -7  232.03    8.40
   1  -1  -7  236.57    8.42
   0   1  -7  263.31    8.36
   0   1  -7  234.80    8.33
  -1   1   7  234.76    8.35
   1   0   7  244.10    8.36
   0  -1   7  244.47    8.27
  -1   3  -7  148.38    5.17
  -1   3  -7  158.16    5.18
  -2  -1  -7  137.76    5.35
   3  -2  -7  139.26    5.38
   2   1   7  146.77    5.32
  -3   2   7  153.09    5.31
   2   0  -7  308.25   10.77
   0  -2  -7  301.19   10.85
  -2   2  -7  302.25   10.74
   2   0  -7  329.40   10.79
  -2   2  -7  330.20   10.77
  -2   0   7  311.83   10.67
   0   2   7  309.61   10.80
   2  -2   7  309.81   10.68
   5  -3  -7  159.44    5.79
  -3  -2  -7  158.02    5.69
  -2   5  -7  151.95    5.39
  -5   3   7  153.04    5.60
   3   2   7  150.15    5.64
   2  -3  -7  323.31   11.45
   1   2  -7  330.36   11.18
   1   2  -7  333.21   11.18
  -3   1  -7  332.91   11.39
  -2   3   7  334.47   11.38
   3  -1   7  317.21   11.31
  -3   4  -7  105.10    3.81
  -1  -3  -7  104.49    3.98
   4  -1  -7  103.14    3.94
   1   3   7  102.29    3.93
  -3   7  -7   90.59    3.35
   7  -4  -7   98.10    3.85
   4   3   7   85.85    3.66
   4  -4  -7  290.16   10.80
   0   4  -7  312.20   10.33
  -4   0  -7  301.72   10.71
   0   4  -7  306.33   10.33
   0  -4   7  311.87   12.00
   4   0   7  304.79   10.66
  -4   4   7  307.19   10.69
   3   1  -7  158.72    5.67
  -4   3  -7  162.22    5.78
   1  -4  -7  158.02    5.89
   4  -3   7  160.07    5.69
  -1   4   7  158.76    5.83
  -3  -1   7  160.25    6.20
  -2  -4  -7  288.52   10.04
   6  -2  -7  284.70   10.04
  -4   6  -7  277.60    9.81
   2   4   7  279.86   10.01
  -4   9  -7   53.45    2.18
   9  -5  -7   49.84    2.69
   5   4   7   59.14    2.69
   6  -5  -7  127.20    5.18
  -1   6  -7  135.25    4.56
  -5  -1  -7  127.07    5.06
   5   1   7  132.80    5.06
  -6   5   7  136.53    5.06
   1  -6   7  133.72    5.74
  -5   2  -7  126.87    4.78
   3  -5  -7  124.75    4.89
   2   3  -7  123.04    4.41
   3  -5  -7  129.85    5.07
   2   3  -7  127.37    4.40
  -2  -3   7  122.74    5.18
   5  -2   7  131.42    4.71
  -3   5   7  126.39    4.79
  -5   5  -7  165.28    6.07
   5   0  -7  167.44    6.03
   0  -5  -7  167.78    6.21
   0   5   7  167.72    6.16
  -5   8  -7   66.46    2.72
   8  -3  -7   64.98    2.98
   3   5   7   69.21    2.99
  -2   8  -7  121.74    4.16
   8  -6  -7  115.48    4.91
   6   2   7  118.08    4.82
   5  -6  -7   77.09    3.32
  -6   1  -7   72.97    3.17
  -1  -5   7   73.26    3.47
  -5   6   7   76.41    3.17
   6  -1   7   76.45    3.13
   4   2  -7  208.71    7.37
   2  -6  -7  216.57    7.82
  -6   4  -7  214.07    7.71
  -2   6   7  207.18    7.74
  -4  -2   7  217.31    8.44
  -6   7  -7   84.85    3.52
   7  -1  -7   89.67    3.56
   1   6   7   91.01    3.67
   7  -7  -7  132.30    5.25
  -7   7   7  130.01    5.10
   0  -7   7  125.18    5.71
   7   0   7  125.31    5.07
  -7   3  -7   91.02    4.00
   4  -7  -7  107.35    4.19
   4  -7  -7  103.49    4.21
   7  -3   7   89.83    3.90
  -3  -4   7  101.34    4.39
  -4   7   7  104.33    4.09
   6   1  -7   65.16    2.62
  -7   6  -7   70.03    2.96
  -1   7   7   64.00    2.94
  -8   2  -7  114.64    4.78
  -6   8   7  121.73    4.80
  -2  -6   7  115.86    5.31
   8  -2   7  122.33    4.80
  -8   5  -7  111.69    4.51
   3  -8  -7  111.24    4.87
   5   3  -7  107.40    3.93
  -3   8   7  112.70    4.53
  -8   8  -7   74.95    3.30
   8   0  -7   73.94    3.05
   0   8   7   73.71    3.34
  -9   4  -7   84.01    3.75
  -5   9   7   83.56    3.71
  -1   1  -8  331.30   11.99
  -1   1  -8  296.40   10.70
   1   0  -8  300.89   10.70
   0  -1  -8  315.39   10.79
   1  -1   8  312.33   10.62
  -1   0   8  301.03   10.61
   0   1   8  311.76   10.70
  -2   0  -8  451.97   15.58
   2  -2  -8  429.29   15.60
   0   2  -8  477.10   15.48
   0   2  -8  443.69   15.39
  -2   2   8  458.26   15.50
   2   0   8  458.52   15.51
   3  -1  -8  101.20    3.93
  -2   3  -8   98.03    3.79
  -1  -2  -8  104.91    3.99
   1   2   8  107.97    3.94
  -3   1   8  107.76    3.88
  -1   4  -8  213.19    7.34
   4  -3  -8  207.24    7.71
  -3  -1  -8  217.29    7.67
  -4   3   8  222.03    7.57
   3   1   8  201.00    7.55
  -3   2  -8  192.45    7.05
   2   1  -8  199.86    6.96
   1  -3  -8  194.28    7.16
   3  -2   8  204.72    6.98
  -1   3   8  200.19    7.10
  -2  -3  -8  187.89    6.62
   5  -2  -8  174.24    6.58
  -3   5  -8  175.16    6.32
   2   3   8  180.12    6.55
  -2   6  -8  253.30    8.77
  -4  -2  -8  241.23    9.15
   6  -4  -8  259.21    9.31
   4   2   8  269.34    9.20
   3  -4  -8  194.07    7.43
   1   3  -8  189.04    6.68
  -4   1  -8  193.74    7.02
   3  -4  -8  190.85    7.11
   4  -1   8  193.41    6.94
  -3   4   8  200.89    7.02
   4   0  -8  302.54   10.64
   0  -4  -8  309.98   10.81
  -4   4  -8  310.11   10.65
   0   4   8  299.05   10.74
   7  -3  -8  108.81    4.38
  -4   7  -8  107.12    4.03
   3   4   8  110.49    4.36
   8  -5  -8   65.86    3.04
  -3   8  -8   60.19    2.38
   5   3   8   63.84    2.92
   0   5  -8  155.82    5.37
  -5   0  -8  158.42    5.92
   5  -5  -8  165.20    6.07
   5   0   8  153.30    5.84
  -5   5   8  153.41    5.84
   2  -5  -8  206.20    7.68
  -5   3  -8  212.36    7.58
   3   2  -8  205.69    7.30
  -2   5   8  206.74    7.61
  -3  -2   8  214.83    8.19
   6  -1  -8  134.88    4.98
  -5   6  -8  127.53    4.87
   1   5   8  130.43    5.05
   7  -6  -8  115.68    4.90
   6   1   8  121.92    4.81
   4  -6  -8  142.18    5.76
  -6   2  -8  144.77    5.65
   2   4  -8  147.71    5.09
  -2  -4   8  151.49    6.15
  -4   6   8  156.52    5.68
   6  -2   8  147.91    5.57
  -6   5  -8  157.16    5.66
   5   1  -8  143.29    5.40
   1  -6  -8  154.04    5.79
  -1   6   8  145.92    5.70
  -6   8  -8  126.29    4.74
   8  -2  -8  120.94    4.84
   2   6   8  122.79    4.95
   6  -7  -8  107.68    4.50
  -7   1  -8  109.17    4.39
  -6   7   8   97.89    4.25
  -1  -6   8  101.15    4.75
   7  -1   8  112.17    4.35
   4   3  -8  127.50    4.56
  -7   4  -8  134.43    5.13
  -3   7   8  129.35    5.13
  -7   7  -8   66.29    2.89
   7   0  -8   65.69    2.71
   0   7   8   61.18    2.96
  -8   3  -8   97.22    4.22
  -5   8   8  102.33    4.24
  -8   6  -8  104.93    4.29
   6   2  -8   97.43    3.77
  -2   8   8  107.48    4.34
   0   0  -9  414.35   15.31
   0   0  -9  469.45   17.05
   0   0   9  453.32   15.25
  -1   2  -9  105.57    3.86
   2  -1  -9   96.94    3.95
  -1  -1  -9  103.33    4.00
   1   1   9  109.17    3.94
   1   1  -9  116.45    4.31
   1  -2  -9  116.29    4.47
  -2   1  -9  119.26    4.42
  -1   2   9  115.25    4.38
   2  -1   9  120.11    4.32
  -2   4  -9  186.23    6.60
   4  -2  -9  188.99    6.89
  -2  -2  -9  186.70    6.87
   2   2   9  187.07    6.81
   0   3  -9   97.72    3.61
  -3   0  -9   95.20    3.88
   3  -3  -9  104.66    4.00
   3   0   9   98.51    3.81
  -3   3   9  100.57    3.83
   3   0  -9   92.69    3.56
  -3   3  -9   89.82    3.53
   0  -3  -9   93.63    3.72
   0   3   9   93.07    3.63
  -3   6  -9   85.65    3.28
   6  -3  -9   85.18    3.66
  -3  -3  -9   84.91    3.63
   3   3   9   93.33    3.65
  -1   5  -9  151.72    5.32
  -4  -1  -9  143.93    5.74
   5  -4  -9  152.05    5.86
   4   1   9  158.74    5.72
  -4   2  -9  188.54    6.83
   2   2  -9  189.49    6.60
   2  -4  -9  193.67    6.98
  -2   4   9  177.79    6.81
  -1  -4  -9   92.66    3.80
  -4   5  -9   86.81    3.54
   5  -1  -9   90.33    3.67
   1   4   9  101.01    3.79
   8  -4  -9   71.53    3.30
  -4   8  -9   72.48    2.82
   4   4   9   70.47    3.25
   7  -5  -9   76.88    3.59
  -2   7  -9   82.95    2.97
   5   2   9   80.00    3.50
   4  -5  -9   78.34    3.39
  -5   1  -9   76.42    3.25
   1   4  -9   74.72    2.77
  -4   5   9   72.39    3.17
   5  -1   9   80.09    3.18
   1  -5  -9  157.01    5.82
  -5   4  -9  142.53    5.61
   4   1  -9  150.90    5.48
  -1   5   9  153.45    5.73
   7  -2  -9   59.51    2.80
  -5   7  -9   62.36    2.63
   2   5   9   66.94    2.93
  -6   0  -9  114.20    4.74
   6  -6  -9  116.28    4.83
   6   0   9  117.98    4.68
   3   3  -9   93.11    3.38
   3  -6  -9   88.74    3.95
  -6   3  -9   91.86    3.84
  -3   6   9   97.05    3.89
   6   0  -9   93.81    3.85
  -6   6  -9  102.49    4.00
   0   6   9  102.47    4.15
   5  -7  -9   66.53    3.28
  -7   2  -9   71.36    3.22
  -5   7   9   70.58    3.16
   5   2  -9   72.31    2.78
  -7   5  -9   69.44    3.16
  -2   7   9   73.18    3.28
  -8   4  -9   88.58    3.83
   4   4  -9   85.06    3.00
  -4   8   9   84.55    3.79
  -1   0 -10  194.76    6.93
   0   1 -10  196.73    6.85
   1  -1 -10  181.19    6.91
   3  -2 -10  127.21    4.98
  -2  -1 -10  132.60    4.98
  -1   3 -10  134.39    4.75
   2   1  10  124.65    4.87
   0  -2 -10  248.91    8.84
   2   0 -10  246.94    8.72
  -2   2 -10  241.86    8.69
   0   2  10  245.32    8.72
   5  -3 -10  151.05    5.98
  -2   5 -10  157.51    5.63
  -3  -2 -10  161.66    6.00
   3   2  10  155.77    5.91
   1   2 -10   81.51    3.14
   2  -3 -10   88.64    3.49
  -3   1 -10   79.71    3.34
  -2   3  10   80.77    3.29
  -3   4 -10  122.86    4.59
   4  -1 -10  123.22    4.75
  -1  -3 -10  122.20    4.83
   1   3  10  124.31    4.76
   7  -4 -10   75.75    3.49
  -3   7 -10   76.83    3.00
   4   3  10   81.43    3.48
   0   4 -10  190.31    6.85
   4  -4 -10  195.97    7.39
  -4   0 -10  202.32    7.32
   4   0  10  198.66    7.19
  -4   3 -10  150.02    5.63
   3   1 -10  145.43    5.50
   1  -4 -10  154.08    5.83
  -1   4  10  154.37    5.71
  -4   6 -10   98.21    3.81
  -2  -4 -10   98.69    4.14
   6  -2 -10   96.95    4.03
   2   4  10  102.32    4.11
   6  -5 -10  101.00    4.33
  -1   6 -10  103.32    3.62
  -5  -1 -10   97.56    4.20
   5   1  10  100.50    4.17
   2   3 -10  117.12    4.30
   3  -5 -10  119.94    4.84
  -5   2 -10  118.40    4.69
  -3   5  10  119.08    4.68
   0  -5 -10  114.47    4.56
   5   0 -10  108.08    4.25
  -5   5 -10  109.91    4.29
   0   5  10  107.87    4.45
  -6   1 -10  101.06    4.06
   5  -6 -10   91.78    4.08
   1   5 -10   90.80    3.27
   2  -6 -10  172.10    6.62
   4   2 -10  168.17    6.09
  -6   4 -10  168.45    6.44
  -2   6  10  173.06    6.53
   7  -1 -10   68.59    2.97
  -6   7 -10   66.93    2.94
   1   6  10   68.85    3.19
  -7   3 -10   96.22    3.88
   3   4 -10   82.35    3.03
   4  -7 -10   84.56    3.87
  -4   7  10   85.35    3.75
   6   1 -10   65.16    2.69
  -7   6 -10   64.90    2.99
  -1   7  10   64.83    3.14
   0  -1 -11  139.71    5.23
  -1   1 -11  135.87    5.13
   1   0 -11  135.39    5.13
   2  -2 -11  153.97    5.72
  -2   0 -11  149.81    5.66
   0   2 -11  146.03    5.46
  -2   3 -11  146.53    5.39
   3  -1 -11  149.73    5.55
  -1  -2 -11  142.01    5.59
  -1   4 -11  107.06    3.93
  -3  -1 -11  108.75    4.30
   4  -3 -11   97.77    4.28
   2   1 -11   94.36    3.69
   1  -3 -11   97.70    3.96
  -3   2 -11   93.32    3.79
   5  -2 -11   80.81    3.51
  -2  -3 -11   84.85    3.61
  -3   5 -11   79.80    3.27
   2   3  11   85.97    3.53
  -4  -2 -11  111.77    4.68
  -2   6 -11  111.75    4.17
   6  -4 -11  114.79    4.73
   4   2  11  115.78    4.63
  -4   1 -11   77.05    3.25
   1   3 -11   71.97    2.87
   3  -4 -11   73.76    3.34
  -4   4 -11  152.46    5.84
   0  -4 -11  165.94    6.14
   4   0 -11  150.52    5.82
   0   4  11  160.28    6.01
  -5   0 -11   98.36    4.15
   0   5 -11   95.76    3.54
   5  -5 -11   98.14    4.25
   3   2 -11  101.64    3.88
  -5   3 -11  103.62    4.19
   2  -5 -11  101.46    4.35
  -2   5  11  102.58    4.31
  -5   6 -11   46.07    2.23
   6  -1 -11   47.23    2.31
   1   5  11   50.06    2.49
  -6   2 -11  135.97    5.38
   2   4 -11  131.21    4.73
   4  -6 -11  132.96    5.51
  -6   5 -11   80.37    3.37
   5   1 -11   74.98    3.09
  -1   6  11   73.38    3.46
   0   0 -12  123.94    4.80
  -1   2 -12   98.08    3.85
  -1  -1 -12   99.36    4.02
   2  -1 -12   96.12    3.97
   1  -2 -12   68.49    3.02
  -2   1 -12   67.00    2.91
   1   1 -12   65.56    2.81
  -2  -2 -12  137.78    5.46
   4  -2 -12  138.46    5.43
  -2   4 -12  137.43    5.15
   0   3 -12   65.57    2.69
  -3   0 -12   67.90    3.01
   3  -3 -12   63.64    3.05
  -3   3 -12  104.26    4.16
   3   0 -12   99.33    4.14
   0  -3 -12  113.66    4.42
  -1   5 -12   58.97    2.41
   5  -4 -12   59.37    2.95
  -4  -1 -12   60.04    2.91
   2  -4 -12  104.84    4.39
  -4   2 -12  103.53    4.21
   2   2 -12   99.48    3.92
  -4   5 -12   54.52    2.47
   5  -1 -12   51.83    2.54
  -1  -4 -12   55.19    2.76
  -5   1 -12   85.62    3.63
   1   4 -12   75.09    3.03
   4  -5 -12   81.64    3.73
  -5   4 -12   52.15    2.52
   4   1 -12   50.06    2.34
   1  -5 -12   58.89    2.85
  -1   0 -13   76.71    3.32
   0   1 -13   77.72    3.26
   1  -1 -13   76.27    3.35
  -2  -1 -13   96.32    4.12
  -1   3 -13   95.67    3.85
   3  -2 -13  101.64    4.16
  -2   2 -13  154.98    5.77
   2   0 -13  149.10    5.78
   0  -2 -13  150.51    5.92
   2  -3 -13   90.31    4.01
   1   2 -13   95.26    3.70
  -3   1 -13   89.07    3.86
   0   0   0    0.00    0.00
;
_shelx_hkl_checksum              72724
loop_
_space_group_symop_operation_xyz
'x, y, z'
'-y, x-y, z'
'-x+y, -x, z'
'x+2/3, y+1/3, z+1/3'
'-y+2/3, x-y+1/3, z+1/3'
'-x+y+2/3, -x+1/3, z+1/3'
'x+1/3, y+2/3, z+2/3'
'-y+1/3, x-y+2/3, z+2/3'
'-x+y+1/3, -x+2/3, z+2/3'
'-x, -y, -z'
'y, -x+y, -z'
'x-y, x, -z'
'-x+2/3, -y+1/3, -z+1/3'
'y+2/3, -x+y+1/3, -z+1/3'
'x-y+2/3, x+1/3, -z+1/3'
'-x+1/3, -y+2/3, -z+2/3'
'y+1/3, -x+y+2/3, -z+2/3'
'x-y+1/3, x+2/3, -z+2/3'
loop_
_atom_site_label
_atom_site_type_symbol
_atom_site_fract_x
_atom_site_fract_y
_atom_site_fract_z
_atom_site_U_iso_or_equiv
_atom_site_adp_type
_atom_site_occupancy
_atom_site_site_symmetry_order
_atom_site_calc_flag
_atom_site_refinement_flags_posn
_atom_site_refinement_flags_adp
_atom_site_refinement_flags_occupancy
_atom_site_disorder_assembly
_atom_site_disorder_group
Ir1 Ir 0.0000 0.0000 0.0000 0.00991(12) Uani 1 6 d S T P . .
F3 F 0.0617(4) -0.1748(3) 0.1090(2) 0.0248(4) Uani 1 1 d . . . . .
Na1 Na 0.1667 -0.1667 0.3333 0.0269(4) Uani 1 2 d S . P . .
O2 O 0.0000 0.0000 0.3846(3) 0.0123(6) Uani 1 3 d S T P . .
loop_
_atom_site_aniso_label
_atom_site_aniso_U_11
_atom_site_aniso_U_22
_atom_site_aniso_U_33
_atom_site_aniso_U_23
_atom_site_aniso_U_13
_atom_site_aniso_U_12
Ir1 0.01005(12) 0.01005(12) 0.00962(14) 0.000 0.000 0.00502(6)
F3 0.0354(11) 0.0242(9) 0.0220(9) 0.0045(7) -0.0044(8) 0.0203(9)
Na1 0.0336(11) 0.0433(12) 0.0185(9) 0.0019(7) 0.0020(7) 0.0303(10)
O2 0.0120(8) 0.0120(8) 0.0128(14) 0.000 0.000 0.0060(4)
loop_
_atom_type_symbol
_atom_type_description
_atom_type_scat_dispersion_real
_atom_type_scat_dispersion_imag
_atom_type_scat_source
F F 0.0171 0.0103 'International Tables Vol C Tables 4.2.6.8 and 6.1.1.4'
Na Na 0.0362 0.0249 'International Tables Vol C Tables 4.2.6.8 and 6.1.1.4'
Ir Ir -1.4442 7.9887 'International Tables Vol C Tables 4.2.6.8 and 6.1.1.4'
O O 0.0106 0.0060 'International Tables Vol C Tables 4.2.6.8 and 6.1.1.4'
H H 0.0000 0.0000 'International Tables Vol C Tables 4.2.6.8 and 6.1.1.4'
loop_
_geom_angle_atom_site_label_1
_geom_angle_atom_site_label_2
_geom_angle_atom_site_label_3
_geom_angle
_geom_angle_site_symmetry_1
_geom_angle_site_symmetry_3
_geom_angle_publ_flag
F3 Ir1 F3 87.55(9) . 11 ?
F3 Ir1 F3 92.45(9) . 2 ?
F3 Ir1 F3 180.00(14) 11 2 ?
F3 Ir1 F3 180.0 . 10 ?
F3 Ir1 F3 92.45(9) 11 10 ?
F3 Ir1 F3 87.55(9) 2 10 ?
F3 Ir1 F3 87.55(9) . 12 ?
F3 Ir1 F3 92.45(9) 11 12 ?
F3 Ir1 F3 87.55(9) 2 12 ?
F3 Ir1 F3 92.45(9) 10 12 ?
F3 Ir1 F3 92.45(9) . 3 ?
F3 Ir1 F3 87.55(9) 11 3 ?
F3 Ir1 F3 92.45(9) 2 3 ?
F3 Ir1 F3 87.55(9) 10 3 ?
F3 Ir1 F3 180.00(12) 12 3 ?
Ir1 F3 Na1 134.43(11) . . ?
Ir1 F3 Na1 116.71(9) . 9_544 ?
Na1 F3 Na1 108.73(7) . 9_544 ?
O2 Na1 O2 180.0 16_545 . ?
O2 Na1 F3 93.18(10) 16_545 . ?
O2 Na1 F3 86.82(10) . . ?
O2 Na1 F3 86.82(10) 16_545 16_545 ?
O2 Na1 F3 93.18(10) . 16_545 ?
F3 Na1 F3 180.0 . 16_545 ?
O2 Na1 F3 75.36(6) 16_545 14 ?
O2 Na1 F3 104.64(6) . 14 ?
F3 Na1 F3 78.84(4) . 14 ?
F3 Na1 F3 101.16(4) 16_545 14 ?
O2 Na1 F3 104.64(6) 16_545 5_445 ?
O2 Na1 F3 75.36(6) . 5_445 ?
F3 Na1 F3 101.16(4) . 5_445 ?
F3 Na1 F3 78.84(4) 16_545 5_445 ?
F3 Na1 F3 180.0 14 5_445 ?
Na1 O2 Na1 115.16(6) 3 2 ?
Na1 O2 Na1 115.16(6) 3 . ?
Na1 O2 Na1 115.16(6) 2 . ?
loop_
_geom_bond_atom_site_label_1
_geom_bond_atom_site_label_2
_geom_bond_distance
_geom_bond_site_symmetry_2
_geom_bond_publ_flag
Ir1 F3 1.9361(19) . ?
Ir1 F3 1.9361(19) 11 ?
Ir1 F3 1.9361(19) 2 ?
Ir1 F3 1.9361(19) 10 ?
Ir1 F3 1.9361(19) 12 ?
Ir1 F3 1.9361(19) 3 ?
F3 Na1 2.330(2) . ?
F3 Na1 2.511(2) 9_544 ?
Na1 O2 2.2497(8) 16_545 ?
Na1 O2 2.2497(8) . ?
Na1 F3 2.330(2) 16_545 ?
Na1 F3 2.511(2) 14 ?
Na1 F3 2.511(2) 5_445 ?
O2 Na1 2.2497(8) 3 ?
O2 Na1 2.2497(8) 2 ?
