#------------------------------------------------------------------------------
#$Date: 2021-11-03 23:20:06 +0200 (Wed, 03 Nov 2021) $
#$Revision: 270260 $
#$URL: file:///home/coder/svn-repositories/cod/cif/4/51/91/4519120.cif $
#------------------------------------------------------------------------------
#
# This file is available in the Crystallography Open Database (COD),
# http://www.crystallography.net/
#
# All data on this site have been placed in the public domain by the
# contributors.
#
data_4519120
loop_
_publ_author_name
'Gubanov, Alexander I.'
'Smolentsev, Anton I.'
'Filatov, Evgeny'
'Kuratieva, Natalia V.'
'Danilenko, Andrey M.'
'Korenev, Sergey Vasilievich'
_publ_section_title
;
 Revisiting Sodium Hexafluoroiridates: Perspective Precursors for
 Electronic, Quantum, and Related Materials.
;
_journal_issue                   42
_journal_name_full               'ACS omega'
_journal_page_first              27697
_journal_page_last               27701
_journal_paper_doi               10.1021/acsomega.1c02722
_journal_volume                  6
_journal_year                    2021
_chemical_formula_moiety         'F6 H4 Ir Na2 O2'
_chemical_formula_sum            'F6 H4 Ir Na2 O2'
_chemical_formula_weight         388.21
_space_group_crystal_system      monoclinic
_space_group_IT_number           12
_space_group_name_Hall           '-C 2y'
_space_group_name_H-M_alt        'C 1 2/m 1'
_atom_sites_solution_primary     direct
_atom_sites_solution_secondary   difmap
_audit_creation_method           SHELXL-2014/7
_cell_angle_alpha                90
_cell_angle_beta                 122.388(2)
_cell_angle_gamma                90
_cell_formula_units_Z            2
_cell_length_a                   6.6328(5)
_cell_length_b                   10.0740(8)
_cell_length_c                   5.9283(5)
_cell_measurement_reflns_used    1516
_cell_measurement_temperature    150(2)
_cell_measurement_theta_max      30.03
_cell_measurement_theta_min      4.05
_cell_volume                     334.50(5)
_computing_cell_refinement       'Bruker SAINT'
_computing_data_collection       'Bruker APEX2'
_computing_data_reduction        'Bruker SAINT'
_computing_molecular_graphics    'Bruker SHELXTL'
_computing_publication_material  'Bruker SHELXTL'
_computing_structure_refinement  'Bruker SHELXTL'
_computing_structure_solution    'Bruker SHELXTL'
_diffrn_ambient_temperature      150(2)
_diffrn_detector_area_resol_mean 25
_diffrn_measured_fraction_theta_full 0.991
_diffrn_measured_fraction_theta_max 0.994
_diffrn_measurement_device_type  'Bruker Nonius X8Apex CCD area-detector'
_diffrn_measurement_method       '\f scans'
_diffrn_radiation_monochromator  graphite
_diffrn_radiation_probe          x-ray
_diffrn_radiation_type           MoK\a
_diffrn_radiation_wavelength     0.71073
_diffrn_reflns_av_R_equivalents  0.0217
_diffrn_reflns_av_unetI/netI     0.0227
_diffrn_reflns_Laue_measured_fraction_full 0.991
_diffrn_reflns_Laue_measured_fraction_max 0.994
_diffrn_reflns_limit_h_max       6
_diffrn_reflns_limit_h_min       -9
_diffrn_reflns_limit_k_max       14
_diffrn_reflns_limit_k_min       -13
_diffrn_reflns_limit_l_max       8
_diffrn_reflns_limit_l_min       -8
_diffrn_reflns_number            1505
_diffrn_reflns_point_group_measured_fraction_full 0.991
_diffrn_reflns_point_group_measured_fraction_max 0.994
_diffrn_reflns_theta_full        25.250
_diffrn_reflns_theta_max         30.027
_diffrn_reflns_theta_min         4.163
_diffrn_standards_decay_%        0
_diffrn_standards_number         0
_exptl_absorpt_coefficient_mu    20.154
_exptl_absorpt_correction_T_max  0.746
_exptl_absorpt_correction_T_min  0.447
_exptl_absorpt_correction_type   multi-scan
_exptl_absorpt_process_details   'Bruker SADABS'
_exptl_crystal_colour            'light pink'
_exptl_crystal_density_diffrn    3.854
_exptl_crystal_description       prism
_exptl_crystal_F_000             346
_exptl_crystal_size_max          0.160
_exptl_crystal_size_mid          0.120
_exptl_crystal_size_min          0.060
_refine_diff_density_max         2.126
_refine_diff_density_min         -2.007
_refine_diff_density_rms         0.199
_refine_ls_extinction_method     none
_refine_ls_goodness_of_fit_ref   1.144
_refine_ls_hydrogen_treatment    undef
_refine_ls_matrix_type           full
_refine_ls_number_parameters     36
_refine_ls_number_reflns         518
_refine_ls_number_restraints     0
_refine_ls_restrained_S_all      1.144
_refine_ls_R_factor_all          0.0144
_refine_ls_R_factor_gt           0.0144
_refine_ls_shift/su_max          0.000
_refine_ls_shift/su_mean         0.000
_refine_ls_structure_factor_coef Fsqd
_refine_ls_weighting_details
'w=1/[\s^2^(Fo^2^)+(0.0216P)^2^] where P=(Fo^2^+2Fc^2^)/3'
_refine_ls_weighting_scheme      calc
_refine_ls_wR_factor_gt          0.0357
_refine_ls_wR_factor_ref         0.0357
_reflns_Friedel_coverage         0.000
_reflns_number_gt                518
_reflns_number_total             518
_reflns_threshold_expression     >2\s(I)
_cod_data_source_file            ao1c02722_si_001.cif
_cod_data_source_block           ggg140307
_cod_original_sg_symbol_H-M      'C 2/m'
_cod_database_code               4519120
_shelx_shelxl_version_number     2014/7
_shelx_space_group_comment
;
The symmetry employed for this shelxl refinement is uniquely defined
by the following loop, which should always be used as a source of
symmetry information in preference to the above space-group names.
They are only intended as comments.
;
_shelx_estimated_absorpt_t_min   0.141
_shelx_estimated_absorpt_t_max   0.378
_shelx_res_file
;

    D:\Job\gubanov\gub002\GGG140~1\ref3\test.res created by SHELXL-2014/7

TITL test in C2/m
CELL 0.71073 6.6328 10.0740 5.9283 90.000 122.388 90.000
ZERR 2.0000 0.0005 0.0008 0.0005 0.000 0.002 0.000
LATT 7
SYMM -X, Y, -Z
SFAC O H F NA IR
UNIT 4 8 12 4 2
MERG 2
OMIT 0 180
FMAP 2
GRID
PLAN 5
TEMP -123
SIZE 0.16 0.12 0.06
OMIT 0 2 0
OMIT 0 0 1
OMIT -2 0 1
L.S. 10
ACTA 50.5
WGHT    0.021600
FVAR       0.55773
IR1   5    0.000000    0.000000    0.500000    10.25000    0.00556    0.00612 =
         0.00699    0.00000    0.00316    0.00000
NA1   4    0.402124    0.130843    0.236816    10.50000    0.01133    0.01088 =
         0.01232    0.00065    0.00489   -0.00042
F1    3    0.272609    0.000000    0.460670    10.50000    0.01078    0.02011 =
         0.01792    0.00000    0.01066    0.00000
F2    3    0.000000    0.191519    0.500000    10.50000    0.02281    0.00790 =
         0.03909    0.00000    0.01741    0.00000
F3    3    0.217830    0.000000    0.883092    10.50000    0.01411    0.04539 =
         0.00962    0.00000    0.00416    0.00000
O1W   1    0.000000    0.218947    0.000000    10.50000    0.01488    0.01172 =
         0.01588    0.00000    0.00697    0.00000
HKLF 4

REM  test in C2/m
REM R1 =  0.0144 for     518 Fo > 4sig(Fo)  and  0.0144 for all     518 data
REM     36 parameters refined using      0 restraints

END

WGHT      0.0216      0.0000

REM Highest difference peak  2.126,  deepest hole -2.007,  1-sigma level  0.199
Q1    1   0.0128  0.0000  0.6439  10.50000  0.05    2.13
Q2    1   0.0183  0.0000  0.7996  10.50000  0.05    0.71
Q3    1   0.0683  0.2277  0.1755  11.00000  0.05    0.63
Q4    1   0.5000 -0.0495  0.5000  10.50000  0.05    0.63
Q5    1   0.0000  0.1299  0.0000  10.50000  0.05    0.57
;
_shelx_res_checksum              11310
_shelx_hkl_file
;
  -2   0   0 6372.41  172.47
  -2   0   0 6195.64  172.60
  -4   0   0 5782.94  161.28
  -4   0   0 5837.54  161.71
  -6   0   0 1620.44   51.55
   1   1   0 5885.43  162.94
   1   1   0 6113.68  161.12
  -1  -1   0 5609.15  162.33
  -1  -1   0 5999.09  161.87
   3   1   0 5124.28  140.64
  -3  -1   0 5146.75  143.16
  -3   1   0 5069.00  141.00
  -5  -1   0 3768.48  107.77
  -5   1   0 3597.24  103.62
  -5   1   0 3728.65  104.01
  -5  -1   0 3595.71  107.21
  -7  -1   0 1600.14   52.88
  -7   1   0 1559.48   49.25
   0   2   0 6150.22  174.91
   0  -2   0 6248.55  173.70
   0  -2   0 6621.03  174.45
   0   2   0 6449.47  173.81
  -2  -2   0  477.84   18.58
   2   2   0  460.63   19.15
  -2  -2   0  467.64   19.89
  -4  -2   0 3511.99  103.15
  -4  -2   0 3423.07  102.19
  -6   2   0 1152.38   34.16
  -6  -2   0 1134.61   41.11
  -6   2   0 1055.50   34.06
   1  -3   0 3966.58  109.00
  -1   3   0 4091.16  111.18
   1   3   0 3934.65  114.69
  -1  -3   0 3998.04  112.84
  -1  -3   0 3915.28  114.85
  -1   3   0 4021.50  110.26
  -3  -3   0 1807.66   61.72
  -3  -3   0 2072.55   64.29
   3   3   0 2051.63   62.64
  -5  -3   0 1314.70   47.08
  -7  -3   0  988.10   39.45
   0   4   0 8091.77  219.67
   0  -4   0 7873.00  218.58
  -2  -4   0 2201.43   70.43
  -2   4   0 2278.81   66.08
   2   4   0 2282.70   72.78
  -2   4   0 2369.73   65.84
  -4  -4   0 6197.38  171.59
  -4  -4   0 5804.04  169.87
   4   4   0 5572.53  166.85
  -6  -4   0 1986.64   68.16
  -1   5   0 7692.74  221.96
   1  -5   0 7740.24  217.05
   1   5   0 8141.07  225.60
  -1  -5   0 8201.34  222.28
  -1   5   0 8104.57  220.39
  -3  -5   0 4444.73  133.88
  -3   5   0 4494.72  126.63
  -3   5   0 4508.29  126.61
   3   5   0 4579.11  135.09
  -5  -5   0 2405.66   80.15
  -7  -5   0 1388.76   53.84
   0  -6   0 6993.37  199.17
   0   6   0 7371.64  205.71
   2   6   0 2219.86   72.77
  -2  -6   0 2092.23   68.87
   2  -6   0 2085.86   59.07
  -2   6   0 2039.38   66.37
  -2   6   0 2173.15   65.81
  -4   6   0 3168.31   93.62
  -4  -6   0 3224.35  103.00
   4   6   0 3127.21  101.53
  -4   6   0 3366.16   93.94
  -6  -6   0 1276.13   51.56
  -1   7   0 1365.76   50.68
  -1   7   0 1491.82   49.02
   1   7   0 1464.75   53.55
  -1  -7   0 1349.50   47.80
   1  -7   0 1343.88   43.09
   3   7   0 1913.73   69.32
  -3   7   0 1937.75   63.03
  -3  -7   0 1926.00   67.55
  -3   7   0 1946.55   62.68
  -5   7   0 1662.90   51.95
  -5  -7   0 1619.02   62.55
   0  -8   0 4244.87  123.75
   0   8   0 4291.09  132.68
   2   8   0 1353.20   56.23
  -2   8   0 1423.94   53.43
   2  -8   0 1461.31   42.79
  -2  -8   0 1449.95   53.13
  -4   8   0 1588.96   54.10
  -4  -8   0 1539.31   60.50
   4   8   0 1529.08   59.77
  -6   8   0  678.43   24.57
  -6  -8   0  669.79   36.10
  -1  -9   0 2342.03   76.67
  -1   9   0 2267.77   82.08
   1  -9   0 2380.21   71.25
   1   9   0 2401.05   85.31
  -3   9   0 2251.23   77.44
  -3  -9   0 2307.11   80.27
   3   9   0 2191.83   82.08
  -5   9   0 1652.49   57.51
  -5  -9   0 1715.64   67.67
   0  10   0 2879.39  103.09
   0 -10   0 3000.09   91.34
  -2  10   0 1675.77   66.57
   2  10   0 1711.42   69.93
  -2 -10   0 1787.65   64.54
  -4  10   0 2159.76   76.64
  -4 -10   0 2219.39   82.34
  -1 -11   0 2062.92   71.90
   1  11   0 2078.27   83.03
  -1  11   0 2105.11   82.25
  -3  11   0 1371.42   58.91
   3  11   0 1387.82   62.04
  -3 -11   0 1420.47   58.98
   0  12   0 1085.48   56.05
   2  12   0  947.27   49.10
  -2  12   0  711.87   43.51
  -2 -12   0  804.92   40.09
  -4 -12   0 1231.68   57.66
  -4  12   0 1301.54   56.57
   1  13   0 1132.52   60.17
  -1  13   0 1192.55   61.08
  -3 -13   0  935.08   47.44
   3  13   0  931.67   51.06
  -3  13   0  918.03   49.91
   0  14   0 1583.41   76.79
  -8   0   1  854.89   32.92
  -6   0   1 1973.47   61.86
  -4   0   1 4786.16  132.97
  -4   0   1 4739.11  133.31
  -2   0   1 8220.39  222.62
   2   0  -1 7865.31  222.87
  -2   0   1 8166.05  224.02
   2   0  -1 8332.37  220.56
   0   0  -1 6320.89  167.57
   0   0   1 6054.30  167.62
   0   0  -1 6094.40  169.25
   0   0   1 6162.41  169.19
  -2   0  -1 1999.87   58.88
  -2   0  -1 2085.01   59.17
  -4   0  -1 2829.38   83.63
  -4   0  -1 2955.17   84.42
  -6   0  -1 1384.20   45.31
  -7   1   1 2479.91   75.20
  -7  -1   1 2522.09   79.33
  -5   1   1 2079.81   60.06
  -5  -1   1 1952.52   62.83
  -5   1   1 2034.76   59.52
  -3   1   1 4183.55  117.38
  -3  -1   1 4495.80  121.27
   3   1  -1 4147.89  120.63
  -3  -1   1 4311.48  119.70
  -3   1   1 4271.87  118.29
  -1   1   1 5398.67  152.31
  -1   1   1 5463.96  150.50
   1   1  -1 5475.70  148.93
   1   1  -1 5401.88  151.93
  -1  -1   1 5442.54  149.25
   1  -1  -1 5464.95  150.82
   1  -1  -1 5544.36  148.86
  -1  -1   1 5651.83  151.80
  -1  -1  -1 5154.64  145.10
  -1  -1  -1 5432.64  144.83
  -1   1  -1 5370.98  142.92
   1  -1   1 5210.96  147.75
   1   1   1 5104.36  144.10
  -1   1  -1 5165.24  144.03
  -3  -1  -1 5942.69  169.86
  -3   1  -1 5867.49  167.04
  -3   1  -1 6479.27  167.64
  -5   1  -1 1596.61   46.72
  -5   1  -1 1469.67   46.22
  -5  -1  -1 1442.99   49.01
  -7   1  -1 1232.97   39.84
  -7  -1  -1 1234.51   43.07
  -8  -2   1 1154.77   43.27
  -8   2   1 1093.56   36.59
  -6   2   1 2308.84   68.63
  -6   2   1 2474.82   69.29
  -6  -2   1 2290.85   75.53
  -4   2   1 3267.99   91.33
  -4  -2   1 3462.12   99.25
   4   2  -1 3262.64   96.04
  -4  -2   1 3230.61   96.99
  -4   2   1 3264.76   91.88
  -2   2   1 5255.16  145.77
  -2  -2   1 5454.01  147.61
   2   2  -1 5074.22  150.85
  -2  -2   1 5551.60  151.14
   2  -2  -1 5336.73  145.97
   0   2  -1 6622.12  174.29
   0   2  -1 6125.29  177.08
   0   2   1 6517.22  175.79
   0  -2  -1 6101.69  176.90
   0   2   1 6477.41  177.18
   0  -2   1 6395.28  177.64
   0  -2   1 6568.32  176.81
   2   2   1 3532.80  103.22
  -2  -2  -1 3557.79  103.93
  -2   2  -1 3685.14   99.03
  -2  -2  -1 3650.90  104.67
  -2   2  -1 3584.14   99.90
  -4  -2  -1 3396.71  100.48
  -4   2  -1 3456.50   94.11
  -4  -2  -1 3507.98  101.43
  -4   2  -1 3177.15   93.89
  -6   2  -1 1201.54   37.18
  -6  -2  -1 1210.66   43.61
  -7  -3   1 1591.42   56.52
  -7   3   1 1526.40   46.51
  -5   3   1 1819.37   51.93
  -5   3   1 1797.90   52.14
   5   3  -1 1772.21   56.32
  -5  -3   1 1806.08   60.53
  -3   3   1 5950.41  161.38
  -3  -3   1 6142.94  169.32
   3   3  -1 5859.30  167.76
  -3   3   1 5668.81  160.07
  -3  -3   1 5682.23  164.80
   1   3  -1 5746.03  155.13
   1  -3  -1 5505.97  156.26
  -1   3   1 5666.66  157.35
  -1  -3   1 5604.03  155.11
  -1   3   1 5665.61  155.41
   1   3   1 2169.01   64.32
  -1   3  -1 2164.76   63.42
   1  -3   1 2116.67   58.92
  -1  -3  -1 2063.36   65.05
  -1  -3  -1 2175.19   65.15
  -3  -3  -1 2738.38   88.08
   3   3   1 2898.67   87.07
  -3  -3  -1 3096.95   90.25
  -3   3  -1 2842.54   81.25
  -3   3  -1 2995.02   80.67
  -5  -3  -1 1249.48   45.13
  -7  -3  -1 1495.17   53.63
  -8  -4   1 1326.62   52.18
  -6   4   1 2063.38   60.43
  -6  -4   1 2095.82   71.94
  -6   4   1 2134.39   60.44
  -4   4   1 1791.30   52.18
   4   4  -1 1742.00   59.86
  -4  -4   1 1753.04   59.79
  -4   4   1 1858.64   52.92
  -2   4   1 2047.25   60.73
  -2   4   1 2153.57   63.33
  -2  -4   1 2082.16   62.94
   2  -4  -1 2035.98   59.19
   0   4  -1 3856.78  125.08
   0   4   1 4425.08  123.03
   0  -4  -1 4407.86  124.05
   0   4  -1 4426.09  120.34
   0  -4   1 4426.63  119.23
  -2  -4  -1 3852.45  116.63
   2   4   1 3902.42  115.85
  -2   4  -1 3977.54  109.06
  -2   4  -1 4019.65  112.22
  -4   4  -1 3041.39   86.01
  -4  -4  -1 3017.88   95.83
  -4   4  -1 3175.70   85.81
  -6  -4  -1  836.11   35.77
  -7  -5   1 1570.39   59.92
  -5  -5   1 2001.12   70.73
  -5   5   1 2369.33   61.22
  -5   5   1 1931.78   60.38
   5   5  -1 1905.13   67.60
   3   5  -1 5333.56  156.04
  -3   5   1 5165.70  146.60
  -1  -5   1 5077.13  143.32
   1   5  -1 4955.20  151.23
   1  -5  -1 5086.61  144.02
  -1   5   1 5391.66  147.74
  -1   5   1 5090.97  145.06
  -1  -5  -1 2704.49   85.05
  -1   5  -1 2715.43   84.77
   1  -5   1 2747.25   76.69
   1   5   1 2712.91   84.46
  -1   5  -1 2887.15   79.75
  -3   5  -1 3128.65   89.64
  -3   5  -1 3209.80   88.11
  -3  -5  -1 2980.22   96.78
   3   5   1 3045.87   96.40
  -5  -5  -1 1283.30   49.49
  -6   6   1 1934.97   58.66
  -6  -6   1 2013.81   72.04
  -4   6   1 3413.64   97.74
  -4   6   1 3238.73   96.47
   4   6  -1 3276.24  105.00
  -4  -6   1 3329.15  104.77
  -2   6   1 4792.16  137.43
  -2   6   1 4522.62  134.20
   2  -6  -1 4618.48  130.41
  -2  -6   1 4741.44  135.51
   2   6  -1 4735.68  143.18
   0   6   1 5075.18  143.45
   0   6  -1 4666.90  146.73
   0  -6  -1 4977.97  142.39
   0  -6   1 4930.26  137.00
  -2   6  -1 2869.56   87.77
   2   6   1 2858.33   90.51
  -2  -6  -1 2806.42   90.33
  -4   6  -1 2684.29   77.40
  -4  -6  -1 2656.18   87.72
  -4   6  -1 2588.93   76.87
  -6  -6  -1 1098.75   46.23
  -7  -7   1 1758.66   69.13
  -7   7   1 1816.32   53.85
  -5  -7   1 1580.05   61.44
  -5   7   1 1616.39   52.41
  -3  -7   1 2289.84   78.74
  -3   7   1 2431.29   76.30
  -3   7   1 2524.98   78.48
   3   7  -1 2475.54   84.27
  -1  -7   1 2701.99   80.61
   1  -7  -1 2714.45   80.93
  -1   7   1 2637.37   84.31
  -1   7  -1 3141.35  103.04
   1   7   1 2991.23  101.49
  -1  -7  -1 3373.38  101.89
   1  -7   1 3279.60   91.56
  -1   7  -1 3438.71   97.43
  -3   7  -1 3591.76  106.32
   3   7   1 3513.82  112.83
  -3  -7  -1 3497.30  112.45
  -5   7  -1 1197.86   37.85
  -5  -7  -1 1188.04   49.72
  -6  -8   1  965.71   47.07
  -6   8   1 1048.74   37.18
  -4  -8   1 2068.87   74.38
   4   8  -1 2114.81   75.88
  -4   8   1 2052.82   68.24
   2  -8  -1 2592.26   75.99
  -2  -8   1 2538.17   81.44
   2   8  -1 2569.43   90.49
  -2   8   1 2570.62   83.31
   0  -8   1 2029.70   62.25
   0   8   1 1999.00   70.59
   0  -8  -1 2066.92   67.61
   0   8  -1 2134.37   75.72
  -2   8  -1  920.33   38.79
  -2  -8  -1  839.91   38.66
   2   8   1  898.48   40.38
  -4   8  -1 1286.07   44.58
  -4  -8  -1 1273.36   52.97
  -5  -9   1  969.68   47.02
  -5   9   1 1008.41   40.05
  -3  -9   1 1488.93   57.96
   3   9  -1 1544.89   63.34
  -3   9   1 1607.32   57.85
   1   9  -1 1640.87   65.96
  -1   9   1 1600.79   60.38
   1  -9  -1 1645.09   53.85
  -1  -9   1 1555.07   53.85
  -1   9  -1 1655.22   65.25
  -1  -9  -1 1622.21   60.51
   1   9   1 1738.56   64.51
  -3   9  -1 1874.62   66.50
   3   9   1 1964.40   73.06
  -3  -9  -1 1840.47   70.60
  -5  -9  -1  790.73   40.21
  -5   9  -1  754.77   29.64
  -6 -10   1 1213.45   56.26
  -6  10   1 1185.07   45.98
   4  10  -1 1629.01   67.10
  -4  10   1 1551.46   61.28
  -4 -10   1 1733.45   66.27
  -2 -10   1 1945.52   65.80
   2  10  -1 1753.17   74.21
  -2  10   1 1880.54   70.27
   0  10   1 2545.88   88.80
   0 -10  -1 2420.49   80.71
   0  10  -1 2358.67   91.07
   0 -10   1 2488.15   75.64
   2  10   1 1786.03   72.73
  -2  10  -1 1920.59   72.00
  -2 -10  -1 1922.94   70.78
  -4 -10  -1 1602.75   66.14
  -4  10  -1 1645.62   58.34
  -5  11   1 1127.28   50.08
  -5 -11   1 1297.89   57.63
  -3 -11   1 2681.77   93.35
   3  11  -1 2717.88  100.94
  -3  11   1 2716.27   96.88
  -1  11   1 2546.00   92.70
  -1 -11   1 2528.35   81.09
   1  11  -1 2450.72   96.16
  -1  11  -1 1703.97   70.85
   1  11   1 1523.43   67.71
  -1 -11  -1 1761.58   64.21
  -3 -11  -1 1542.22   62.91
   3  11   1 1445.05   63.53
  -3  11  -1 1369.43   57.94
  -4  12   1 1055.21   51.33
  -4 -12   1 1077.18   51.67
   4  12  -1 1138.98   55.16
  -2  12   1  995.19   51.48
   2  12  -1 1137.11   56.42
  -2 -12   1 1034.37   44.83
   0  12  -1 1631.59   75.28
   0  12   1 1831.15   74.66
  -2  12  -1 1492.23   65.66
  -2 -12  -1 1441.46   62.20
   2  12   1 1561.18   68.37
   3  13  -1  980.08   54.74
  -3  13   1  965.24   51.84
  -3 -13   1 1006.90   48.01
  -1  13   1  877.04   49.77
   1  13  -1  809.54   50.03
  -1  13  -1  828.96   48.92
   1  13   1  777.86   47.46
   0  14   1  832.83   51.45
   0  14  -1  808.08   50.48
  -8   0   2 1888.38   62.98
  -6   0   2 3475.27  102.31
  -4   0   2 9997.65  269.61
  -4   0   2 9528.58  267.10
   4   0  -2 9827.47  267.97
  -2   0   2 5179.29  143.79
   2   0  -2 5037.84  147.49
  -2   0   2 5446.86  147.42
   0   0  -2 8164.10  229.54
   0   0   2 8490.21  226.83
   0   0  -2 8317.84  227.05
  -2   0  -2 3955.08  114.59
   2   0   2 4099.02  111.31
  -4   0  -2 3408.63   99.66
  -6   0  -2 1744.44   56.53
  -7   1   2 2167.38   65.66
  -7  -1   2 1958.39   67.54
   5   1  -2 1557.88   48.72
  -5   1   2 1551.47   48.88
  -5  -1   2 1570.83   50.97
  -5   1   2 1679.02   50.69
  -5  -1   2 1657.96   53.01
  -3   1   2 8079.74  219.60
  -3  -1   2 8511.46  224.08
   3   1  -2 7754.94  224.55
  -3   1   2 8121.50  221.99
   3  -1  -2 7879.99  221.38
  -3  -1   2 7892.68  220.02
  -3   1   2 8051.38  219.53
   1   1  -2 4788.85  126.43
   1  -1  -2 4518.02  129.56
   1   1  -2 4493.19  129.73
  -1  -1   2 4591.19  126.10
  -1   1   2 4447.27  126.42
  -1   1  -2 8907.84  233.48
   1   1   2 8393.30  233.73
  -1  -1  -2 8257.99  236.12
  -1   1  -2 8271.20  234.93
  -1  -1  -2 8866.56  235.09
   1  -1   2 8624.95  232.08
  -3   1  -2 1929.37   60.43
  -3  -1  -2 2151.87   63.94
  -3  -1  -2 1931.33   62.71
  -3   1  -2 2096.17   60.80
  -5  -1  -2 1449.58   49.32
  -5   1  -2 1429.40   46.29
  -8   2   2 1253.02   42.84
  -8  -2   2 1204.71   47.57
  -6   2   2 1028.46   35.16
  -6  -2   2 1032.86   39.62
  -6   2   2 1130.59   36.45
  -6   2   2 1055.44   35.38
  -4  -2   2 3202.54   94.83
   4  -2  -2 3206.77   89.89
  -4   2   2 3197.56   92.11
  -4  -2   2 3399.95   98.42
   4   2  -2 3312.87   98.72
  -2  -2   2  977.95   31.01
   2  -2  -2  985.96   33.21
  -2   2   2  972.39   30.94
  -2   2   2 1025.23   33.74
   2   2  -2  969.10   35.51
   0  -2   2 3898.30  107.79
   0  -2  -2 4049.74  110.54
   0   2  -2 3713.92  111.18
   0   2  -2 4012.16  108.70
   0  -2  -2 3713.05  112.23
   0   2  -2 4024.58  108.76
   0   2   2 3876.84  109.96
  -2  -2  -2 1562.03   52.00
  -2  -2  -2 1683.37   52.65
   2   2   2 1547.17   49.97
  -2   2  -2 1581.72   48.79
  -2   2  -2 1651.24   47.95
  -4   2  -2 1525.55   47.80
  -4  -2  -2 1578.70   52.59
  -6  -2  -2  912.46   35.48
  -6   2  -2  854.32   29.68
  -7  -3   2 1750.42   63.39
  -7   3   2 1839.24   56.61
  -5  -3   2 1731.21   58.25
  -5   3   2 1805.49   53.81
   5   3  -2 1730.54   58.25
  -5   3   2 1709.11   52.61
  -3   3   2 4410.91  121.01
   3  -3  -2 4151.53  118.49
  -3   3   2 4168.88  118.43
   3   3  -2 4254.16  126.47
  -3  -3   2 4164.78  120.02
   1   3  -2  342.93   17.44
   1  -3  -2  372.47   17.22
  -1   3   2  333.69   14.48
  -1  -3   2  365.13   13.65
   1   3   2 2767.30   80.66
  -1   3  -2 2392.71   77.09
   1  -3   2 2870.40   75.26
  -1  -3  -2 2822.14   83.23
  -1   3  -2 2773.57   79.91
  -3  -3  -2 1592.90   55.29
   3   3   2 1638.32   53.15
  -3   3  -2 1602.08   49.76
  -3   3  -2 1730.34   49.62
  -5  -3  -2 1600.65   55.71
  -5   3  -2 1554.44   47.92
  -8  -4   2 1518.53   58.50
  -8   4   2 1489.79   47.62
  -6  -4   2 1325.42   51.03
  -6   4   2 1327.77   43.04
   4   4  -2 3976.45  123.80
  -4  -4   2 4134.12  120.08
  -4   4   2 4072.71  115.27
   2   4  -2 4064.21  125.69
  -2   4   2 4466.78  122.85
   2  -4  -2 4150.30  120.23
  -2   4   2 4178.06  118.77
  -2  -4   2 4089.72  118.36
   0  -4  -2 8373.02  238.03
   0  -4   2 8491.77  230.83
   0   4  -2 8589.18  232.30
   0  -4   2 8417.02  230.75
   0   4   2 8613.46  235.33
   0   4  -2 8413.82  237.10
   2   4   2 3114.74   94.67
  -2  -4  -2 3068.10   96.19
  -2   4  -2 3263.45   89.47
  -2   4  -2 3049.95   90.65
  -4   4  -2 1667.00   49.80
  -4  -4  -2 1608.58   57.82
  -6  -4  -2  994.57   41.28
  -7  -5   2 2634.47   89.82
  -7   5   2 2561.61   77.45
  -5   5   2 3046.12   90.17
  -5  -5   2 2971.83   97.73
  -5   5   2 3122.81   90.19
   5   5  -2 3108.62   98.64
  -3   5   2 7288.57  202.71
   3  -5  -2 7115.45  197.45
  -3   5   2 7075.40  199.31
  -1  -5   2 3002.04   87.14
   1  -5  -2 3071.99   92.68
   1   5  -2 3065.19   95.83
  -1  -5  -2 5128.99  153.96
   1   5   2 5071.51  151.08
   1  -5   2 5269.83  142.93
  -1   5  -2 5399.25  146.77
  -1   5  -2 5314.22  150.60
  -3   5  -2 2547.52   78.02
  -3   5  -2 2798.84   78.21
   3   5   2 2702.69   85.13
  -3  -5  -2 2556.85   85.88
  -5   5  -2 1853.35   55.46
  -5  -5  -2 1972.06   67.67
  -8  -6   2 1246.69   53.39
  -8   6   2 1226.05   39.62
  -6  -6   2 1604.51   62.96
  -6   6   2 1651.95   53.08
  -4   6   2 3874.06  112.85
  -4   6   2 3690.39  110.75
   4   6  -2 3791.70  120.75
  -4  -6   2 3804.26  116.28
  -2   6   2 2305.08   70.61
  -2  -6   2 2239.45   68.79
   2   6  -2 2242.63   78.12
   2  -6  -2 2261.17   69.97
   0   6  -2 4015.31  113.12
   0  -6  -2 3979.66  119.13
   0  -6   2 3911.57  109.88
   0   6  -2 3883.43  119.59
   0   6   2 3768.34  116.04
  -2  -6  -2 2015.45   71.75
   2   6   2 2007.99   70.51
  -2   6  -2 2265.75   65.23
  -2   6  -2 2136.65   66.78
  -4   6  -2 1828.84   56.45
  -4  -6  -2 1854.85   66.62
  -7   7   2 1098.26   38.37
  -7  -7   2 1062.20   49.88
  -5  -7   2  698.82   34.96
   5   7  -2  793.55   36.46
  -5   7   2  666.19   28.64
  -3   7   2 2677.30   83.96
  -3  -7   2 2554.25   80.09
  -3   7   2 2437.70   78.82
   3   7  -2 2438.54   87.51
   3  -7  -2 2536.97   74.78
   1   7  -2 1777.07   66.61
  -1   7   2 1794.49   60.80
  -1  -7   2 1818.78   55.70
   1  -7  -2 1795.86   60.74
  -1  -7  -2 2889.68   94.34
   1  -7   2 2821.77   81.28
  -1   7  -2 2959.06   92.70
   1   7   2 2967.96   93.34
  -3  -7  -2  929.07   41.75
  -3   7  -2  990.80   35.52
  -5   7  -2  755.15   25.87
  -5  -7  -2  691.61   35.91
  -6  -8   2 1344.41   58.97
  -6   8   2 1398.12   49.43
  -4  -8   2 2604.16   87.78
  -4   8   2 2556.15   83.85
   4   8  -2 2709.39   93.35
  -2   8   2 1077.75   42.10
  -2  -8   2 1062.68   38.47
   2   8  -2 1056.82   48.82
   2  -8  -2 1056.00   38.62
   0  -8  -2 1520.53   56.07
   0   8   2 1457.82   55.55
   0   8  -2 1536.69   59.92
   0  -8   2 1573.30   47.84
   2   8   2 1183.64   48.53
  -2   8  -2 1164.47   44.59
  -2  -8  -2 1180.65   49.02
  -4   8  -2 1499.89   51.25
  -4  -8  -2 1638.76   62.57
  -5  -9   2 1274.35   55.84
  -5   9   2 1310.29   50.61
   5   9  -2 1355.66   57.57
   3   9  -2 2741.56   99.03
  -3  -9   2 2810.06   89.25
  -3   9   2 2724.97   90.71
  -1  -9   2 2082.63   64.94
   1  -9  -2 2154.44   70.33
  -1   9   2 2059.26   72.58
   1   9  -2 1922.53   78.01
  -1   9  -2 2732.61   94.78
   1   9   2 2892.15   96.13
  -1  -9  -2 2776.69   94.91
  -3  -9  -2 1425.14   58.07
  -3   9  -2 1350.96   50.06
  -6 -10   2 1101.63   54.12
  -6  10   2 1185.80   47.45
  -4 -10   2 2080.12   75.66
   4  10  -2 2151.73   82.21
  -4  10   2 1994.41   74.35
   2  10  -2 1896.59   78.03
  -2 -10   2 1864.48   64.06
  -2  10   2 2012.19   71.64
   0 -10  -2 2877.80   93.75
   0  10  -2 2632.48   98.69
   0  10   2 2753.46   95.71
  -2  10  -2 1554.00   59.88
   2  10   2 1581.53   64.88
  -2 -10  -2 1559.70   63.66
  -4 -10  -2 1131.69   53.38
  -4  10  -2 1232.81   45.25
  -5  11   2 1284.35   53.94
  -5 -11   2 1181.85   55.53
  -3 -11   2 1771.99   64.04
  -3  11   2 1734.45   68.96
   3  11  -2 1679.85   73.70
  -1  11   2 1056.71   48.14
   1  11  -2  904.98   50.20
  -1  11  -2 1370.25   59.35
  -1 -11  -2 1313.87   56.70
   1  11   2 1354.53   59.03
  -3 -11  -2 1121.40   52.38
  -3  11  -2 1073.54   45.58
  -4  12   2  954.13   47.89
   4  12  -2  839.00   49.01
  -4 -12   2  938.67   44.86
   2  12  -2 1031.25   55.60
  -2  12   2 1043.81   51.59
   0  12  -2 1568.83   70.76
   0  12   2 1617.24   68.91
   0 -12  -2 1566.68   62.53
  -2 -12  -2  849.56   44.38
   2  12   2  825.53   46.29
  -2  12  -2  797.83   41.66
   3  13  -2 1081.98   59.01
  -3  13   2 1101.95   56.92
  -1  13   2  755.94   45.62
   1  13  -2  861.05   51.46
   1  13   2  908.11   51.23
  -1  13  -2  977.99   51.65
  -8   0   3 1472.39   53.59
  -6   0   3 2881.72   87.29
   4   0  -3 2601.93   80.50
  -4   0   3 2544.62   75.78
  -4   0   3 2503.85   75.56
  -4   0   3 2655.57   80.15
  -2   0   3 1831.29   55.01
   2   0  -3 1845.35   60.03
   0   0   3 6061.84  169.46
   0   0  -3 6317.78  170.99
   0   0  -3 5997.35  173.47
  -2   0  -3 2504.96   73.92
  -2   0  -3 2311.52   74.08
  -4   0  -3 2290.11   72.54
  -9   1   3  724.63   33.26
  -9  -1   3  832.14   36.26
  -7  -1   3 1745.90   58.84
  -7   1   3 1638.74   56.10
  -7   1   3 1670.19   56.12
  -5  -1   3 3209.41   95.17
   5   1  -3 3034.64   93.91
  -5   1   3 3230.88   93.64
   5  -1  -3 3071.85   89.97
  -5  -1   3 2984.88   91.18
  -5   1   3 3036.24   90.26
  -5   1   3 3013.67   90.11
  -3  -1   3 5295.07  147.68
  -3  -1   3 5278.71  147.77
   3  -1  -3 5384.64  152.85
  -3   1   3 5177.37  147.59
  -1   1   3 4796.85  136.48
   1   1  -3 5012.22  141.08
   1  -1  -3 4819.76  140.91
  -1  -1   3 4867.89  135.80
  -1   1  -3 2464.22   75.27
  -1   1  -3 2532.63   73.64
  -1  -1  -3 2362.72   76.11
   1  -1   3 2402.54   70.71
   1   1   3 2494.25   72.85
  -1  -1  -3 2571.69   75.22
  -3   1  -3 1632.21   52.68
  -3  -1  -3 1587.39   54.40
  -5  -1  -3 1187.83   43.65
  -5   1  -3 1117.35   40.78
  -8  -2   3 1159.77   45.90
  -8   2   3 1047.56   40.80
  -6   2   3 2448.59   75.91
  -6  -2   3 2562.57   79.64
  -4  -2   3 3544.43  104.08
   4  -2  -3 3575.36  104.90
  -4   2   3 3573.26  103.23
   4   2  -3 3548.23  110.97
  -4   2   3 3720.48  106.91
  -2  -2   3 3155.87   90.87
   2   2  -3 3153.69   97.07
   2  -2  -3 3303.20   96.76
  -2   2   3 3083.25   91.55
   0   2  -3 5429.88  148.58
   0  -2   3 5131.77  146.52
   0  -2  -3 5254.26  153.49
   0   2  -3 5519.91  148.83
   0   2  -3 5157.21  151.51
   0   2   3 5310.11  149.25
  -2  -2  -3 1504.57   51.71
  -2   2  -3 1501.19   49.07
   2   2   3 1495.89   48.28
  -4   2  -3 2158.84   65.43
  -4  -2  -3 2017.26   69.15
  -7  -3   3 2103.12   72.77
  -7   3   3 2093.07   67.07
   5   3  -3 1977.18   68.71
  -5  -3   3 1968.77   64.50
  -5   3   3 2075.61   64.21
  -5   3   3 1990.33   61.97
   5  -3  -3 2004.96   58.60
  -3   3   3 2078.97   61.72
   3   3  -3 1961.32   68.49
   3  -3  -3 2019.17   64.47
  -3  -3   3 2004.84   61.36
  -1   3   3 2989.62   86.28
   1  -3  -3 2847.87   89.90
   1   3  -3 2990.04   90.15
  -1  -3   3 2869.51   83.71
  -1   3  -3 3382.22   95.51
   1   3   3 3182.97   97.05
  -1   3  -3 3156.91   97.21
   1  -3   3 3270.92   91.31
  -1   3  -3 3468.41   95.78
  -1  -3  -3 3238.13  100.80
  -3   3  -3 2178.43   67.36
  -3  -3  -3 2186.11   72.42
  -5  -3  -3 1084.80   43.70
  -5   3  -3 1081.37   37.50
  -8   4   3  699.26   29.46
  -8  -4   3  669.54   35.19
  -6   4   3 1851.93   59.63
  -6  -4   3 1838.39   64.72
  -4   4   3 3723.14  108.78
  -4   4   3 3664.35  106.06
  -4  -4   3 3613.72  107.21
   4  -4  -3 3601.71  105.06
   4   4  -3 3535.24  114.86
   2  -4  -3 3300.49  100.77
   2   4  -3 3226.22  103.13
  -2   4   3 3317.86   96.95
  -2  -4   3 3344.34   95.41
   0   4  -3 3652.65  101.58
   0   4  -3 3382.16  104.66
   0   4   3 3483.95  103.37
   0  -4   3 3484.49   98.48
   0  -4  -3 3494.86  107.34
  -2  -4  -3  720.30   31.88
  -2   4  -3  722.99   27.99
   2   4   3  688.32   29.26
  -4  -4  -3 1506.79   56.42
  -4   4  -3 1504.86   48.67
  -7  -5   3 1924.02   73.52
  -7   5   3 2086.35   66.30
  -5   5   3 2120.35   68.58
  -5  -5   3 2188.53   72.78
   5   5  -3 2278.31   78.06
   3   5  -3 2477.43   85.56
  -3  -5   3 2436.30   75.93
  -3   5   3 2583.50   77.02
   3  -5  -3 2545.00   78.28
   1  -5  -3 3052.36   95.57
   1   5  -3 3071.40   96.24
  -1   5   3 2967.03   91.47
  -1  -5   3 3077.38   87.60
  -1  -5   3 3003.38   87.35
  -1  -5  -3 2872.26   91.83
   1   5   3 2844.42   88.60
  -1   5  -3 2820.80   87.32
  -3   5  -3 1972.58   62.37
  -3  -5  -3 1946.27   69.47
  -5  -5  -3  955.17   42.27
  -5   5  -3  947.45   32.75
  -8   6   3 1206.39   43.38
  -8  -6   3 1160.24   53.52
  -6   6   3 2351.99   74.56
  -6  -6   3 2267.65   80.68
  -4   6   3 2908.86   88.49
  -4  -6   3 2890.19   89.65
   4   6  -3 2813.43   98.00
   4  -6  -3 2871.96   85.12
  -2  -6   3 2622.55   78.06
   2   6  -3 2513.00   87.88
  -2   6   3 2673.88   81.45
   2  -6  -3 2596.85   83.57
   0  -6  -3 4043.62  122.38
   0   6   3 3839.06  118.27
   0  -6   3 3916.62  110.47
   0   6  -3 3920.31  120.00
   2   6   3 1657.00   60.03
  -2   6  -3 1697.96   56.27
  -2  -6  -3 1672.93   62.45
  -4   6  -3 1746.94   55.67
  -4  -6  -3 1699.24   64.76
  -7  -7   3 1240.92   55.55
  -7   7   3 1276.39   47.14
   5   7  -3 2111.55   78.15
  -5  -7   3 2109.15   72.76
  -5   7   3 1999.61   68.55
  -3  -7   3 3324.05   99.47
   3  -7  -3 3268.98   99.84
  -3   7   3 3308.23  101.44
   3   7  -3 3265.85  111.17
  -1  -7   3 2834.43   81.63
   1  -7  -3 2694.30   90.51
  -1   7   3 2740.46   87.58
   1   7  -3 2705.01   92.64
  -1  -7  -3 1803.30   64.85
  -1   7  -3 1623.28   59.17
   1   7   3 1704.83   61.42
  -3  -7  -3 1249.58   51.87
  -3   7  -3 1230.91   44.33
  -6  -8   3 1372.24   58.13
  -6   8   3 1424.66   52.70
   4   8  -3 1179.37   53.37
  -4  -8   3 1152.93   45.28
  -4   8   3 1150.07   45.19
   2   8  -3  943.62   45.39
  -2  -8   3  940.20   34.16
  -2   8   3  918.83   38.35
   2  -8  -3  889.66   38.03
   0   8   3 2170.63   75.45
   0   8  -3 2230.83   77.83
   0  -8  -3 2199.61   78.11
  -2   8  -3 1230.40   47.40
  -2  -8  -3 1343.43   54.70
  -4  -8  -3 1232.15   53.73
  -4   8  -3 1248.56   44.20
  -7  -9   3  935.35   48.07
  -7   9   3  921.66   39.97
  -5   9   3 1169.34   48.48
  -5  -9   3 1178.22   50.73
   5   9  -3 1267.87   57.35
  -3  -9   3 1839.71   62.28
   3   9  -3 1843.69   75.48
  -3   9   3 1804.80   65.98
   1  -9  -3 1539.13   58.78
  -1   9   3 1450.03   57.33
   1   9  -3 1545.50   63.12
  -1   9  -3 1087.81   47.12
   1   9   3 1217.22   50.67
  -1  -9  -3 1179.70   51.40
  -3   9  -3  797.93   34.05
  -3  -9  -3  775.08   40.64
  -6  10   3 1210.17   52.42
  -6 -10   3 1346.02   59.04
   4  10  -3 1832.30   77.44
  -4 -10   3 1939.94   67.83
  -4  10   3 1708.34   68.32
   2  10  -3 1668.80   73.09
  -2  10   3 1794.72   67.08
  -2 -10   3 1760.08   58.96
   2 -10  -3 1756.34   63.10
   0  10   3 1776.04   69.56
   0 -10  -3 1813.70   69.98
   0  10  -3 1864.98   71.94
  -2 -10  -3  903.77   44.78
  -2  10  -3  863.00   39.40
   5  11  -3 1338.97   62.46
  -5  11   3 1293.97   56.32
  -5 -11   3 1221.71   56.01
  -3 -11   3 1416.41   54.47
   3  11  -3 1520.83   69.92
  -3  11   3 1516.72   62.18
   1  11  -3 1448.47   67.30
   1 -11  -3 1582.56   61.51
  -1  11   3 1579.55   64.50
  -1 -11  -3 1793.79   71.83
   1  11   3 1732.42   71.83
  -1  11  -3 1763.90   69.42
   4  12  -3 1442.72   68.63
  -4  12   3 1330.47   60.95
  -4 -12   3 1338.55   56.13
   2  12  -3 1318.51   66.42
  -2  12   3 1421.23   62.31
   0 -12  -3 1316.41   57.66
   0  12  -3 1357.62   61.71
   0  12   3 1188.11   58.37
  -3  13   3  853.93   49.29
   3  13  -3  985.61   56.24
  -1  13   3  782.38   45.67
   1  13  -3  747.07   48.20
  -8   0   4 1534.80   56.97
  -8   0   4 1579.61   57.57
   6   0  -4 2479.64   76.25
  -6   0   4 2279.21   74.86
  -6   0   4 2415.44   75.58
  -4   0   4 3253.33   95.16
   4   0  -4 3193.64  102.36
  -2   0   4 6812.18  186.75
   2   0  -4 6538.22  193.12
   0   0   4 4792.33  133.28
   0   0  -4 4597.71  138.56
  -2   0  -4 2617.32   83.51
  -4   0  -4  982.23   39.18
  -9  -1   4  744.99   36.90
  -9   1   4  761.93   35.40
  -9  -1   4  812.48   38.17
  -7  -1   4 2953.03   93.20
  -7   1   4 2901.15   91.45
  -5  -1   4 2134.92   68.63
   5   1  -4 2264.23   75.54
  -5  -1   4 2186.74   68.70
   5  -1  -4 2265.19   72.41
  -5   1   4 2165.54   68.36
   3   1  -4 5416.55  162.51
  -3  -1   4 5430.11  154.41
   3  -1  -4 5495.97  161.89
  -3   1   4 5519.19  154.92
  -1   1   4 1688.17   52.23
   1  -1  -4 1638.61   57.07
  -1  -1   4 1657.82   51.34
   1   1  -4 1613.02   56.43
   1   1   4 2606.75   76.06
  -1   1  -4 2492.65   79.65
  -1  -1  -4 2449.54   80.74
  -3  -1  -4 1662.72   59.74
  -3   1  -4 1720.84   58.23
  -8   2   4  897.50   38.58
  -8  -2   4  996.24   42.50
   6   2  -4 1813.97   62.04
  -6   2   4 1703.40   56.58
  -6  -2   4 1615.11   57.72
  -4  -2   4 1652.97   52.44
   4   2  -4 1591.30   60.12
  -4  -2   4 1627.38   52.45
  -4   2   4 1636.39   52.62
   4  -2  -4 1595.84   56.99
   2  -2  -4 2361.06   77.85
  -2   2   4 2357.25   71.82
   2   2  -4 2373.07   77.63
  -2  -2   4 2331.78   70.44
   0  -2   4 1442.16   44.84
   0  -2  -4 1420.88   52.38
   0   2  -4 1479.38   51.09
   0   2   4 1453.34   47.69
  -2   2  -4 1409.39   49.76
  -2  -2  -4 1430.26   52.34
  -4  -2  -4  845.03   37.67
  -4   2  -4  886.50   34.68
  -9   3   4  717.55   33.31
  -9  -3   4  649.61   36.18
  -7  -3   4 1672.26   61.74
  -7   3   4 1716.95   58.86
  -5   3   4  551.36   24.63
   5  -3  -4  602.68   25.72
  -5  -3   4  595.91   25.63
   5   3  -4  610.16   31.83
   3   3  -4 3297.70  106.46
  -3  -3   4 3314.71   97.82
  -3   3   4 3398.45   99.09
  -3  -3   4 3339.18   97.79
   3  -3  -4 3299.77  104.26
   1  -3  -4 1782.39   63.22
  -1   3   4 1942.41   59.16
   1   3  -4 1762.92   61.96
  -1  -3   4 1811.81   55.70
  -1  -3  -4 2274.11   75.96
  -1   3  -4 2214.18   72.78
   1   3   4 2280.94   71.35
  -3  -3  -4  961.37   40.02
  -3   3  -4  889.03   35.50
  -8  -4   4 1417.25   58.15
  -8   4   4 1380.93   52.25
  -6  -4   4 3038.31   99.21
  -6   4   4 3145.25   96.64
   6   4  -4 3250.86  105.30
   4  -4  -4 3135.98   96.20
   4   4  -4 2962.91  102.18
  -4  -4   4 3101.74   92.67
  -4   4   4 3027.34   92.71
  -2  -4   4 2846.38   83.57
   2   4  -4 2720.21   91.66
  -2   4   4 2876.99   86.49
   2  -4  -4 2848.51   92.11
   0   4  -4 1632.96   57.18
   0   4   4 1663.48   55.40
   0  -4  -4 1655.97   60.28
   0  -4   4 1639.53   49.97
  -2   4  -4 1921.36   63.64
  -2  -4  -4 1877.47   67.54
  -4   4  -4 1309.17   47.43
  -4  -4  -4 1447.43   55.69
  -7   5   4 2229.68   76.90
  -7  -5   4 2442.89   83.45
  -5   5   4 1645.41   55.59
  -5  -5   4 1605.34   56.32
   5   5  -4 1575.78   64.19
   3   5  -4 5039.42  149.83
  -3  -5   4 4764.83  137.06
   3  -5  -4 4837.74  143.87
  -3  -5   4 4636.77  136.99
  -3   5   4 4601.80  139.07
   1  -5  -4 2963.91   98.15
   1   5  -4 3042.74   97.33
  -1  -5   4 3046.95   88.22
  -1   5   4 3031.96   93.40
  -1  -5  -4 2942.03   97.55
  -1   5  -4 2904.89   93.11
   1   5   4 3038.28   93.78
  -3   5  -4 1309.41   46.34
  -3  -5  -4 1211.94   51.65
  -8  -6   4 1035.05   49.60
  -8   6   4 1020.73   42.74
   6   6  -4 1892.50   72.00
  -6   6   4 1753.46   62.77
  -6  -6   4 1824.17   66.59
  -4  -6   4 1869.22   62.30
   4   6  -4 1886.46   73.27
   4  -6  -4 1906.89   63.66
  -4   6   4 1855.61   63.24
  -2  -6   4 2765.11   81.32
  -2   6   4 2736.13   85.93
   2  -6  -4 2678.95   90.37
   2   6  -4 2693.66   92.20
  -2  -6   4 2632.33   81.09
   0   6  -4 2027.09   70.66
   0  -6  -4 2183.30   74.93
   0   6   4 2000.92   69.61
  -2   6  -4 1442.42   52.43
  -2  -6  -4 1478.02   58.48
  -7  -7   4 1531.93   63.83
  -7   7   4 1569.02   58.54
   5   7  -4 1277.64   56.90
  -5  -7   4 1186.42   47.32
  -5   7   4 1207.27   47.05
   3   7  -4 2065.46   78.69
   3  -7  -4 1962.38   70.87
  -3  -7   4 2067.22   65.79
  -3   7   4 2059.53   69.47
   1  -7  -4  746.96   36.26
  -1   7   4  691.14   32.22
   1   7  -4  711.03   35.29
  -1   7  -4 1168.28   46.42
   1   7   4 1166.29   48.21
  -1  -7  -4 1241.60   52.27
  -3  -7  -4 1042.21   47.06
  -3   7  -4  959.12   39.00
  -6   8   4  893.39   40.79
  -6  -8   4  948.83   43.84
  -4   8   4 1118.14   45.05
  -4  -8   4 1059.17   42.17
   4   8  -4 1084.06   53.43
  -2   8   4 1830.69   68.01
   2   8  -4 2073.34   77.01
   2  -8  -4 1972.14   72.22
  -2  -8   4 1968.78   62.34
  -2  -8   4 1919.05   62.20
   0   8   4 1717.23   63.52
   0  -8  -4 1724.53   67.64
   0   8  -4 1655.32   63.38
  -2   8  -4  985.62   41.76
  -2  -8  -4 1068.01   48.57
  -7  -9   4 1640.90   70.71
  -7   9   4 1693.17   65.22
  -5  -9   4 1308.03   53.12
   5   9  -4 1388.97   63.71
  -5   9   4 1284.40   53.65
   3   9  -4 2168.06   86.80
  -3  -9   4 2147.74   70.93
  -3   9   4 2174.52   76.97
   1  -9  -4 1214.59   52.39
  -1   9   4 1156.74   49.05
   1   9  -4 1120.33   52.15
  -1   9  -4 1445.20   56.15
  -1  -9  -4 1403.11   60.70
  -6  10   4 1398.86   59.33
  -6 -10   4 1381.87   60.45
  -4 -10   4 1570.18   59.65
   4  10  -4 1675.22   74.73
  -4  10   4 1660.63   64.99
   2  10  -4 1560.09   69.76
  -2  10   4 1609.69   63.21
   2 -10  -4 1571.50   62.84
   0  10   4 1325.34   56.85
   0 -10  -4 1295.60   58.24
   0  10  -4 1261.42   55.59
  -5 -11   4  700.00   36.96
   5  11  -4  707.20   44.73
  -5  11   4  648.79   38.37
   3  11  -4 1559.27   74.23
  -3  11   4 1570.62   65.18
   1  11  -4 1223.69   59.44
   1 -11  -4 1259.94   56.18
  -1  11   4 1261.72   56.64
  -4  12   4  916.83   49.35
   4  12  -4  999.43   57.22
  -2  12   4  730.81   41.48
   2  12  -4  740.81   47.23
  -8   0   5  916.49   40.08
  -6   0   5 1780.82   60.39
   6   0  -5 1787.74   65.22
   4   0  -5 3740.64  118.87
  -4   0   5 3641.29  109.55
   2   0  -5 2208.35   77.64
  -2   0   5 2383.39   71.78
   0   0  -5 2065.52   70.88
  -2   0  -5  700.07   32.73
  -9  -1   5 1156.08   51.18
  -9   1   5 1237.17   51.02
  -7   1   5 1892.47   65.81
  -7  -1   5 1939.20   66.76
   5   1  -5 1744.25   66.37
   5  -1  -5 1658.84   63.50
  -5   1   5 1746.00   57.71
  -5  -1   5 1717.08   57.44
   3  -1  -5 2579.38   86.20
  -3  -1   5 2479.61   77.54
   3   1  -5 2483.38   85.76
  -3   1   5 2553.23   78.16
   1  -1  -5 1446.13   55.28
  -1  -1   5 1512.80   48.89
   1   1  -5 1465.75   55.01
  -1   1   5 1533.91   49.92
  -1  -1  -5 2376.84   80.89
  -1   1  -5 2400.30   79.72
  -3   1  -5  886.87   37.43
  -3  -1  -5  814.86   38.10
  -8  -2   5 1288.28   51.48
  -8  -2   5 1225.76   50.46
  -8   2   5 1157.29   48.19
  -6  -2   5 1881.17   63.81
   6   2  -5 1937.97   71.18
  -6  -2   5 1832.56   63.63
  -6   2   5 1857.67   63.39
  -4   2   5 2695.37   83.09
   4  -2  -5 2611.81   90.91
  -4  -2   5 2706.28   82.52
   2  -2  -5 1827.69   67.03
  -2   2   5 1818.72   59.86
  -2  -2   5 1823.26   58.43
   2   2  -5 1913.04   66.65
   0   2  -5 2513.06   83.92
   0   2   5 2583.75   79.28
   0  -2  -5 2534.86   85.34
  -2   2  -5 1169.07   45.07
  -2  -2  -5 1086.77   46.95
  -9  -3   5  784.73   41.44
  -9   3   5  854.53   39.58
  -9  -3   5  781.55   41.43
  -7  -3   5 1212.16   49.16
  -7  -3   5 1246.40   49.67
  -7   3   5 1307.39   48.94
  -5   3   5 1872.95   62.35
   5   3  -5 1777.95   71.49
  -5  -3   5 1884.45   62.35
  -5  -3   5 1923.32   62.49
   5  -3  -5 1836.65   66.41
   3  -3  -5 3353.96  110.60
   3   3  -5 3447.69  111.56
  -3  -3   5 3487.65  101.56
  -3   3   5 3335.72  103.20
  -1   3   5 1522.55   52.14
   1  -3  -5 1542.70   58.05
   1   3  -5 1498.80   56.28
  -1  -3   5 1513.19   48.94
  -1  -3  -5 1603.62   61.25
  -1   3  -5 1601.56   58.35
  -3   3  -5  595.80   29.61
  -3  -3  -5  658.79   33.68
  -8   4   5 1330.57   52.12
  -8  -4   5 1256.52   55.15
  -6  -4   5 1496.73   54.96
  -6  -4   5 1482.34   55.05
  -6   4   5 1446.00   54.17
   6   4  -5 1656.13   64.66
   4  -4  -5 1486.94   59.15
   4   4  -5 1629.15   64.21
  -4   4   5 1532.45   54.17
  -4  -4   5 1591.08   53.01
  -2  -4   5 1056.68   36.75
  -2   4   5 1051.29   39.75
   2   4  -5 1003.40   44.18
   2  -4  -5 1025.14   45.27
   0   4   5 2255.38   72.73
   0  -4  -5 2261.49   79.18
   0   4  -5 2114.28   75.03
  -2  -4  -5 1089.07   48.19
  -2   4  -5 1164.09   45.10
  -7  -5   5 1397.82   56.57
  -7   5   5 1388.09   53.79
  -5  -5   5 1740.41   60.62
  -5  -5   5 1747.27   60.48
  -5   5   5 1805.33   62.10
   5   5  -5 1757.42   71.79
  -3  -5   5 2914.62   86.01
  -3   5   5 2718.95   88.84
   3  -5  -5 2830.11   96.47
   3   5  -5 2733.82   96.94
   1  -5  -5 1429.59   57.11
   1   5  -5 1415.68   54.95
  -1   5   5 1359.88   50.60
  -1   5  -5 1477.44   55.80
  -1  -5  -5 1502.04   59.76
  -8  -6   5 1140.58   53.71
  -8   6   5 1154.84   49.80
   6   6  -5 1740.14   71.18
  -6   6   5 1620.94   60.61
  -6  -6   5 1610.47   61.28
  -4   6   5 2292.60   77.88
  -4  -6   5 2387.46   75.49
   4   6  -5 2356.33   88.88
   4  -6  -5 2345.93   81.86
  -4  -6   5 2303.74   75.20
   2   6  -5 1872.57   70.09
  -2  -6   5 1841.27   58.57
   2  -6  -5 1753.34   69.17
  -2   6   5 1812.82   63.83
   0   6  -5 1978.53   69.30
   0   6   5 1928.83   67.06
   0  -6  -5 1762.30   71.05
  -2  -6  -5  867.41   43.40
  -2   6  -5  932.03   39.47
  -7   7   5 1456.00   59.12
  -7  -7   5 1558.40   63.00
  -5   7   5 1286.98   50.81
  -5  -7   5 1291.38   49.59
   5   7  -5 1236.56   60.22
  -3  -7   5 1580.39   53.90
   3   7  -5 1644.27   67.64
  -3   7   5 1507.33   58.09
   3  -7  -5 1625.08   63.76
   1   7  -5 1212.13   51.98
   1  -7  -5 1254.04   54.73
  -1   7   5 1239.58   49.50
  -1   7  -5 1913.25   68.45
  -1  -7  -5 1808.62   72.58
  -6   8   5  997.19   45.91
   6   8  -5 1069.23   54.55
  -6  -8   5  994.78   45.46
   4   8  -5 1659.56   73.46
  -4   8   5 1690.01   63.78
  -4  -8   5 1710.67   59.54
  -4  -8   5 1700.87   59.32
   2  -8  -5 1454.68   59.99
   2   8  -5 1270.98   58.02
  -2   8   5 1299.50   53.27
   0   8  -5 1161.89   49.37
   0  -8  -5 1071.69   52.36
   5   9  -5  934.14   51.70
  -5   9   5  824.45   41.35
  -5  -9   5  825.35   38.46
  -3   9   5 1156.85   50.16
   3   9  -5 1150.28   57.67
   1   9  -5  810.13   42.97
   1  -9  -5  884.66   45.94
  -1   9   5  854.13   41.41
  -4  10   5 1150.33   52.61
   4  10  -5 1201.43   61.96
  -2  10   5  969.81   46.32
   2  10  -5  930.56   50.37
   0 -10  -5 1234.47   57.19
   0  10  -5 1087.32   51.77
  -3  11   5 1673.71   70.00
   3  11  -5 1695.53   78.15
  -8   0   6 1013.68   44.73
   6   0  -6 3493.72  117.41
  -6   0   6 3436.16  107.89
  -4   0   6 2140.33   70.96
   4   0  -6 2223.00   81.37
   2   0  -6 2258.10   80.36
  -2   0   6 2260.76   72.32
   0   0  -6 1307.27   53.42
  -9  -1   6  929.66   45.26
  -9   1   6  941.61   44.61
  -7  -1   6 1465.81   55.46
  -7   1   6 1453.69   55.33
  -5  -1   6 1438.48   50.67
   5   1  -6 1451.09   60.55
   5  -1  -6 1337.22   58.59
  -5   1   6 1357.74   50.53
  -3   1   6 2305.79   72.28
  -3  -1   6 2171.23   70.62
   3   1  -6 2145.05   79.45
   3  -1  -6 2155.02   79.73
   1  -1  -6 2176.42   77.26
   1   1  -6 2060.71   75.50
  -1   1  -6 1203.70   49.47
  -1  -1  -6 1085.68   48.40
  -8   2   6  628.17   32.95
  -8  -2   6  636.62   33.79
  -6  -2   6 1641.73   59.77
  -6   2   6 1691.89   60.38
   6   2  -6 1762.58   70.92
  -4  -2   6  978.96   38.08
   4   2  -6 1005.82   47.18
  -4   2   6  961.76   38.84
   4  -2  -6  997.63   47.10
  -2  -2   6 1551.41   53.75
   2   2  -6 1679.23   63.24
   2  -2  -6 1652.86   64.22
  -2   2   6 1634.16   56.22
   0  -2  -6 1060.66   46.03
   0   2  -6  960.26   43.48
  -7  -3   6 1538.57   57.76
  -7   3   6 1442.29   56.34
   5   3  -6 1396.78   62.40
   5  -3  -6 1417.59   59.64
  -5  -3   6 1427.01   51.78
  -5   3   6 1487.90   53.48
  -3  -3   6 1411.53   49.10
  -3   3   6 1359.51   50.87
   3  -3  -6 1416.72   58.61
   3   3  -6 1446.21   58.86
   1  -3  -6  943.61   43.71
   1   3  -6  932.47   42.37
  -1   3  -6  795.63   37.96
  -1  -3  -6  792.70   40.27
  -8  -4   6  818.37   41.66
  -8   4   6  854.64   40.97
  -8  -4   6  829.89   41.73
  -6  -4   6 1673.37   60.67
  -6   4   6 1656.53   61.09
   6   4  -6 1684.33   71.93
   4   4  -6 1262.90   57.04
  -4  -4   6 1278.26   46.76
   4  -4  -6 1335.97   57.28
  -4   4   6 1287.25   49.15
  -2   4   6 2246.01   76.95
   2  -4  -6 2238.67   84.79
   2   4  -6 2515.79   85.15
   0  -4  -6 1809.32   69.13
   0   4  -6 1623.74   64.22
  -7  -5   6 1840.33   69.14
  -7  -5   6 1826.90   68.69
  -7   5   6 1826.07   68.51
  -5   5   6 1987.31   68.91
   5   5  -6 1806.23   78.18
  -5  -5   6 1949.86   66.35
   3  -5  -6 1988.82   78.44
  -3   5   6 2028.26   70.32
  -3  -5   6 1979.47   65.55
   3   5  -6 2047.75   78.06
   1  -5  -6 1377.38   59.02
   1   5  -6 1388.80   56.83
  -1  -5  -6 1083.07   51.18
  -1   5  -6 1150.33   48.61
   6   6  -6 1668.53   75.30
  -6  -6   6 1770.33   63.83
  -6  -6   6 1703.59   63.56
  -6   6   6 1686.11   64.68
  -4   6   6 1074.43   46.40
  -4  -6   6 1119.31   43.70
   4   6  -6 1219.66   57.04
   4  -6  -6 1253.24   54.49
   2   6  -6 1617.88   64.60
  -2   6   6 1502.58   58.12
   2  -6  -6 1534.53   64.95
   0  -6  -6 1027.75   48.46
   0   6  -6  895.62   43.42
  -7  -7   6  755.21   40.75
  -7   7   6  877.63   42.67
  -7  -7   6  836.87   41.96
  -5  -7   6  706.97   32.95
  -5   7   6  692.57   35.36
   5   7  -6  693.15   44.01
   3  -7  -6 1190.09   56.00
  -3   7   6 1156.62   49.41
   3   7  -6 1222.75   56.62
   1  -7  -6 1268.21   57.88
   1   7  -6 1227.29   54.19
   6   8  -6 1630.70   74.05
  -6   8   6 1398.82   61.19
  -6  -8   6 1488.23   59.60
  -6  -8   6 1496.21   59.37
  -4   8   6  905.16   43.87
   4   8  -6 1047.75   54.29
   2  -8  -6  993.28   50.65
   2   8  -6  953.86   48.18
  -2   8   6  941.04   44.46
  -5   9   6  924.34   45.16
   5   9  -6  846.03   52.17
  -3   9   6 1335.82   58.10
   3   9  -6 1414.11   66.23
  -8   0   7 1213.97   52.56
  -6   0   7 1276.39   51.11
   6   0  -7 1339.36   61.20
  -4   0   7  902.82   37.85
   4   0  -7  886.37   45.56
   2   0  -7 1091.77   50.18
   0   0  -7 1009.48   48.36
  -7   1   7 1341.03   53.24
  -7  -1   7 1258.94   51.94
   5  -1  -7 1211.24   56.88
   5   1  -7 1191.71   56.85
  -5  -1   7 1181.39   46.50
  -5   1   7 1140.48   46.47
  -3  -1   7 2154.39   72.19
   3  -1  -7 2276.54   84.08
  -3   1   7 2114.59   72.86
   3   1  -7 2196.62   82.65
   1   1  -7  860.36   41.89
   1  -1  -7  767.60   41.34
  -8  -2   7  951.87   44.72
  -8   2   7  972.77   45.04
   6   2  -7 1488.27   66.72
  -6  -2   7 1355.57   53.76
  -6   2   7 1449.23   55.51
  -4  -2   7 1346.02   51.12
   4  -2  -7 1361.49   62.61
  -4   2   7 1461.35   53.98
   4   2  -7 1460.90   62.69
   2  -2  -7 1465.83   62.49
   2   2  -7 1465.98   61.04
  -7   3   7 1405.31   57.70
  -7  -3   7 1464.65   57.46
   5   3  -7  844.55   47.20
  -5   3   7  825.36   38.23
  -5  -3   7  879.38   37.61
   5  -3  -7  925.94   48.09
   3   3  -7 1534.41   63.92
   3  -3  -7 1515.39   64.80
  -3   3   7 1451.72   55.74
   1  -3  -7  691.84   39.74
   1   3  -7  794.16   39.60
  -6   4   7 1111.25   47.88
  -6  -4   7 1130.28   46.41
   6   4  -7 1109.95   58.07
  -4  -4   7 1348.72   50.95
   4   4  -7 1416.26   62.92
   4  -4  -7 1354.78   63.01
  -4   4   7 1429.74   54.80
   2  -4  -7 1316.39   59.69
   2   4  -7 1330.49   58.15
  -7   5   7 1167.76   52.59
  -7  -5   7 1260.14   52.63
  -5   5   7  817.41   39.01
  -5  -5   7  868.24   37.37
   5   5  -7  808.13   47.54
   3  -5  -7 1306.87   61.87
   3   5  -7 1362.48   60.68
  -3   5   7 1299.36   53.17
   1   5  -7  621.04   36.73
   1  -5  -7  712.21   39.91
   6   6  -7 1256.99   64.73
  -6   6   7 1169.47   52.10
  -6  -6   7 1224.65   50.41
  -4   6   7 1175.80   50.68
   4  -6  -7 1204.86   58.30
   4   6  -7 1193.01   59.26
   2   6  -7 1179.97   55.91
   2  -6  -7 1271.46   59.30
  -5   7   7 1052.07   47.56
   5   7  -7  928.76   54.60
  -3   7   7 1771.92   66.84
   3  -7  -7 1549.61   72.76
   3   7  -7 1649.39   72.64
  -6   0   8 1263.62   52.31
   4   0  -8 1097.73   55.33
  -5  -1   8 1326.82   53.19
  -5   1   8 1343.05   53.84
   5   1  -8 1419.07   65.62
   5  -1  -8 1275.87   63.96
   3  -1  -8 1001.86   50.46
   3   1  -8  880.27   47.05
   6   2  -8 1075.44   58.34
  -6  -2   8 1082.31   46.64
  -6   2   8 1077.97   47.26
   4  -2  -8  857.33   47.52
   4   2  -8  752.30   44.62
   5   3  -8  815.14   47.98
  -5   3   8  793.99   39.00
   0   0   0    0.00    0.00
;
_shelx_hkl_checksum              94909
loop_
_space_group_symop_operation_xyz
'x, y, z'
'-x, y, -z'
'x+1/2, y+1/2, z'
'-x+1/2, y+1/2, -z'
'-x, -y, -z'
'x, -y, z'
'-x+1/2, -y+1/2, -z'
'x+1/2, -y+1/2, z'
loop_
_atom_site_label
_atom_site_type_symbol
_atom_site_fract_x
_atom_site_fract_y
_atom_site_fract_z
_atom_site_U_iso_or_equiv
_atom_site_adp_type
_atom_site_occupancy
_atom_site_site_symmetry_order
_atom_site_calc_flag
_atom_site_refinement_flags_posn
_atom_site_refinement_flags_adp
_atom_site_refinement_flags_occupancy
_atom_site_disorder_assembly
_atom_site_disorder_group
Ir1 Ir 0.0000 0.0000 0.5000 0.00633(8) Uani 1 4 d S T P . .
Na1 Na 0.4021(5) 0.1308(3) 0.2368(5) 0.0122(5) Uani 0.5 1 d . . P . .
F1 F 0.2726(5) 0.0000 0.4607(6) 0.0148(5) Uani 1 2 d S T P . .
F2 F 0.0000 0.1915(3) 0.5000 0.0229(7) Uani 1 2 d S T P . .
F3 F 0.2178(6) 0.0000 0.8831(6) 0.0241(7) Uani 1 2 d S T P . .
O1W O 0.0000 0.2189(3) 0.0000 0.0148(6) Uani 1 2 d S T P . .
loop_
_atom_site_aniso_label
_atom_site_aniso_U_11
_atom_site_aniso_U_22
_atom_site_aniso_U_33
_atom_site_aniso_U_23
_atom_site_aniso_U_13
_atom_site_aniso_U_12
Ir1 0.00556(11) 0.00612(11) 0.00699(12) 0.000 0.00316(8) 0.000
Na1 0.0113(12) 0.0109(12) 0.0123(12) 0.0007(9) 0.0049(10) -0.0004(9)
F1 0.0108(13) 0.0201(14) 0.0179(13) 0.000 0.0107(11) 0.000
F2 0.0228(16) 0.0079(13) 0.0391(19) 0.000 0.0174(15) 0.000
F3 0.0141(14) 0.045(2) 0.0096(13) 0.000 0.0042(11) 0.000
O1W 0.0149(16) 0.0117(15) 0.0159(16) 0.000 0.0070(13) 0.000
loop_
_atom_type_symbol
_atom_type_description
_atom_type_scat_dispersion_real
_atom_type_scat_dispersion_imag
_atom_type_scat_source
O O 0.0106 0.0060 'International Tables Vol C Tables 4.2.6.8 and 6.1.1.4'
H H 0.0000 0.0000 'International Tables Vol C Tables 4.2.6.8 and 6.1.1.4'
F F 0.0171 0.0103 'International Tables Vol C Tables 4.2.6.8 and 6.1.1.4'
Na Na 0.0362 0.0249 'International Tables Vol C Tables 4.2.6.8 and 6.1.1.4'
Ir Ir -1.4442 7.9887 'International Tables Vol C Tables 4.2.6.8 and 6.1.1.4'
loop_
_geom_angle_atom_site_label_1
_geom_angle_atom_site_label_2
_geom_angle_atom_site_label_3
_geom_angle
_geom_angle_site_symmetry_1
_geom_angle_site_symmetry_3
_geom_angle_publ_flag
F2 Ir1 F2 180.0 . 5_556 ?
F2 Ir1 F3 90.000(1) . . ?
F2 Ir1 F3 90.0 5_556 . ?
F2 Ir1 F3 90.0 . 5_556 ?
F2 Ir1 F3 90.000(1) 5_556 5_556 ?
F3 Ir1 F3 180.0 . 5_556 ?
F2 Ir1 F1 90.000(1) . . ?
F2 Ir1 F1 90.0 5_556 . ?
F3 Ir1 F1 89.03(13) . . ?
F3 Ir1 F1 90.97(13) 5_556 . ?
F2 Ir1 F1 90.0 . 5_556 ?
F2 Ir1 F1 90.000(1) 5_556 5_556 ?
F3 Ir1 F1 90.97(13) . 5_556 ?
F3 Ir1 F1 89.03(13) 5_556 5_556 ?
F1 Ir1 F1 180.0 . 5_556 ?
F2 Ir1 Na1 68.79(4) . 2_656 ?
F2 Ir1 Na1 111.21(4) 5_556 2_656 ?
F3 Ir1 Na1 62.57(10) . 2_656 ?
F3 Ir1 Na1 117.43(10) 5_556 2_656 ?
F1 Ir1 Na1 35.10(8) . 2_656 ?
F1 Ir1 Na1 144.90(8) 5_556 2_656 ?
F2 Ir1 Na1 111.21(4) . 6_455 ?
F2 Ir1 Na1 68.79(4) 5_556 6_455 ?
F3 Ir1 Na1 117.43(10) . 6_455 ?
F3 Ir1 Na1 62.57(10) 5_556 6_455 ?
F1 Ir1 Na1 144.90(8) . 6_455 ?
F1 Ir1 Na1 35.10(8) 5_556 6_455 ?
Na1 Ir1 Na1 180.0 2_656 6_455 ?
F2 Ir1 Na1 68.79(4) . 1_455 ?
F2 Ir1 Na1 111.21(4) 5_556 1_455 ?
F3 Ir1 Na1 117.43(10) . 1_455 ?
F3 Ir1 Na1 62.57(10) 5_556 1_455 ?
F1 Ir1 Na1 144.90(8) . 1_455 ?
F1 Ir1 Na1 35.10(8) 5_556 1_455 ?
Na1 Ir1 Na1 137.57(9) 2_656 1_455 ?
Na1 Ir1 Na1 42.43(9) 6_455 1_455 ?
F2 Ir1 Na1 111.21(4) . 5_656 ?
F2 Ir1 Na1 68.79(4) 5_556 5_656 ?
F3 Ir1 Na1 62.57(10) . 5_656 ?
F3 Ir1 Na1 117.43(10) 5_556 5_656 ?
F1 Ir1 Na1 35.10(8) . 5_656 ?
F1 Ir1 Na1 144.90(8) 5_556 5_656 ?
Na1 Ir1 Na1 42.43(9) 2_656 5_656 ?
Na1 Ir1 Na1 137.57(9) 6_455 5_656 ?
Na1 Ir1 Na1 180.0 1_455 5_656 ?
F3 Na1 F2 161.51(16) 1_554 7_556 ?
F3 Na1 F1 91.01(13) 1_554 . ?
F2 Na1 F1 96.50(12) 7_556 . ?
F3 Na1 F1 101.88(14) 1_554 5_656 ?
F2 Na1 F1 96.46(12) 7_556 5_656 ?
F1 Na1 F1 73.45(13) . 5_656 ?
F3 Na1 O1W 90.37(12) 1_554 7 ?
F2 Na1 O1W 80.40(11) 7_556 7 ?
F1 Na1 O1W 173.62(15) . 7 ?
F1 Na1 O1W 112.34(13) 5_656 7 ?
F3 Na1 O1W 77.92(13) 1_554 . ?
F2 Na1 O1W 85.93(12) 7_556 . ?
F1 Na1 O1W 84.84(12) . . ?
F1 Na1 O1W 158.29(15) 5_656 . ?
O1W Na1 O1W 89.35(10) 7 . ?
F3 Na1 Na1 53.38(9) 1_554 6 ?
F2 Na1 Na1 143.37(8) 7_556 6 ?
F1 Na1 Na1 55.65(8) . 6 ?
F1 Na1 Na1 55.67(8) 5_656 6 ?
O1W Na1 Na1 129.50(9) 7 6 ?
O1W Na1 Na1 111.51(10) . 6 ?
F3 Na1 Na1 141.92(10) 1_554 2_656 ?
F2 Na1 Na1 53.37(8) 7_556 2_656 ?
F1 Na1 Na1 55.31(11) . 2_656 ?
F1 Na1 Na1 55.27(11) 5_656 2_656 ?
O1W Na1 Na1 125.17(12) 7 2_656 ?
O1W Na1 Na1 111.96(14) . 2_656 ?
Na1 Na1 Na1 90.0 6 2_656 ?
F3 Na1 Na1 81.73(12) 1_554 7 ?
F2 Na1 Na1 80.41(12) 7_556 7 ?
F1 Na1 Na1 128.97(16) . 7 ?
F1 Na1 Na1 157.50(17) 5_656 7 ?
O1W Na1 Na1 45.18(7) 7 7 ?
O1W Na1 Na1 44.18(8) . 7 ?
Na1 Na1 Na1 134.70(9) 6 7 ?
Na1 Na1 Na1 131.81(11) 2_656 7 ?
F3 Na1 Ir1 96.46(12) 1_554 1_655 ?
F2 Na1 Ir1 98.54(9) 7_556 1_655 ?
F1 Na1 Ir1 101.52(11) . 1_655 ?
F1 Na1 Ir1 28.56(7) 5_656 1_655 ?
O1W Na1 Ir1 84.51(8) 7 1_655 ?
O1W Na1 Ir1 171.68(11) . 1_655 ?
Na1 Na1 Ir1 68.79(4) 6 1_655 ?
Na1 Na1 Ir1 76.25(11) 2_656 1_655 ?
Na1 Na1 Ir1 129.43(12) 7 1_655 ?
F3 Na1 Na1 61.10(11) 1_554 2_655 ?
F2 Na1 Na1 116.45(9) 7_556 2_655 ?
F1 Na1 Na1 145.37(8) . 2_655 ?
F1 Na1 Na1 91.58(12) 5_656 2_655 ?
O1W Na1 Na1 39.50(9) 7 2_655 ?
O1W Na1 Na1 106.72(12) . 2_655 ?
Na1 Na1 Na1 90.0 6 2_655 ?
Na1 Na1 Na1 138.29(19) 2_656 2_655 ?
Na1 Na1 Na1 70.51(10) 7 2_655 ?
Ir1 Na1 Na1 65.02(7) 1_655 2_655 ?
F3 Na1 Na1 98.02(13) 1_554 5_656 ?
F2 Na1 Na1 98.09(13) 7_556 5_656 ?
F1 Na1 Na1 36.73(8) . 5_656 ?
F1 Na1 Na1 36.71(8) 5_656 5_656 ?
O1W Na1 Na1 148.97(15) 7 5_656 ?
O1W Na1 Na1 121.58(14) . 5_656 ?
Na1 Na1 Na1 45.27(9) 6 5_656 ?
Na1 Na1 Na1 44.73(9) 2_656 5_656 ?
Na1 Na1 Na1 165.62(17) 7 5_656 ?
Ir1 Na1 Na1 64.94(8) 1_655 5_656 ?
Na1 Na1 Na1 122.03(11) 2_655 5_656 ?
Ir1 F1 Na1 135.82(12) . 6 ?
Ir1 F1 Na1 135.82(12) . . ?
Na1 F1 Na1 68.69(16) 6 . ?
Ir1 F1 Na1 116.34(13) . 2_656 ?
Na1 F1 Na1 106.55(13) 6 2_656 ?
Na1 F1 Na1 69.42(14) . 2_656 ?
Ir1 F1 Na1 116.34(13) . 5_656 ?
Na1 F1 Na1 69.42(14) 6 5_656 ?
Na1 F1 Na1 106.55(13) . 5_656 ?
Na1 F1 Na1 68.66(16) 2_656 5_656 ?
Ir1 F2 Na1 143.37(8) . 7_556 ?
Ir1 F2 Na1 143.37(8) . 8_455 ?
Na1 F2 Na1 73.27(17) 7_556 8_455 ?
Ir1 F3 Na1 143.23(9) . 1_556 ?
Ir1 F3 Na1 143.23(9) . 6_556 ?
Na1 F3 Na1 73.24(17) 1_556 6_556 ?
Na1 O1W Na1 100.99(19) 8_455 7 ?
Na1 O1W Na1 117.07(12) 8_455 . ?
Na1 O1W Na1 90.65(10) 7 . ?
Na1 O1W Na1 90.65(10) 8_455 2 ?
Na1 O1W Na1 117.07(12) 7 2 ?
Na1 O1W Na1 137.0(2) . 2 ?
loop_
_geom_bond_atom_site_label_1
_geom_bond_atom_site_label_2
_geom_bond_distance
_geom_bond_site_symmetry_2
_geom_bond_publ_flag
Ir1 F2 1.929(3) . ?
Ir1 F2 1.929(3) 5_556 ?
Ir1 F3 1.931(3) . ?
Ir1 F3 1.931(3) 5_556 ?
Ir1 F1 1.943(3) . ?
Ir1 F1 1.943(3) 5_556 ?
Ir1 Na1 3.643(3) 2_656 ?
Ir1 Na1 3.643(3) 6_455 ?
Ir1 Na1 3.643(3) 1_455 ?
Ir1 Na1 3.643(3) 5_656 ?
Na1 F3 2.210(4) 1_554 ?
Na1 F2 2.230(4) 7_556 ?
Na1 F1 2.336(4) . ?
Na1 F1 2.337(4) 5_656 ?
Na1 O1W 2.379(4) 7 ?
Na1 O1W 2.421(3) . ?
Na1 Na1 2.636(6) 6 ?
Na1 Na1 2.661(5) 2_656 ?
Na1 Na1 3.413(6) 7 ?
Na1 Ir1 3.643(3) 1_655 ?
Na1 Na1 3.671(5) 2_655 ?
Na1 Na1 3.746(5) 5_656 ?
F1 Na1 2.336(4) 6 ?
F1 Na1 2.337(4) 2_656 ?
F1 Na1 2.337(4) 5_656 ?
F2 Na1 2.230(4) 7_556 ?
F2 Na1 2.230(4) 8_455 ?
F3 Na1 2.210(4) 1_556 ?
F3 Na1 2.210(4) 6_556 ?
O1W Na1 2.379(4) 8_455 ?
O1W Na1 2.379(4) 7 ?
O1W Na1 2.421(3) 2 ?
