#------------------------------------------------------------------------------
#$Date: 2018-01-14 20:57:14 +0200 (Sun, 14 Jan 2018) $
#$Revision: 205202 $
#$URL: file:///home/coder/svn-repositories/cod/cif/5/91/00/5910007.cif $
#------------------------------------------------------------------------------
#
# This file is available in the Crystallography Open Database (COD),
# http://www.crystallography.net/
#
# All data on this site have been placed in the public domain by the
# contributors.
#
data_5910007
loop_
_publ_author_name
'Wyckoff, R. W. G.'
_publ_section_title
;
 Crystal structure of lead(II) nitrate
;
_journal_name_full               'Crystals structures, Vol. II'
_journal_year                    1951
_chemical_formula_structural     Pb(NO3)2
_chemical_formula_sum            'N2 O6 Pb'
_chemical_name_systematic        'lead(II) nitrate'
_space_group_crystal_system      cubic
_space_group_IT_number           205
_space_group_name_Hall           '-P 2ac 2ab 3'
_space_group_name_H-M_alt        'P a -3'
_cell_angle_alpha                90
_cell_angle_beta                 90
_cell_angle_gamma                90
_cell_formula_units_Z            4
_cell_length_a                   7.84
_cell_length_b                   7.84
_cell_length_c                   7.84
_cell_volume                     481.890
_cod_depositor_comments
;
 Removing symmetrically equivalent atoms and updating the atomic coordinates
 after consulting the later works of R. W. G. Wyckoff ("Crystal structures"
 Vol. II, published by Interscience Publishers, Inc., New York, 1951). The
 lattice parameters were taken from Chapter VII, text page 22 and the atomic
 coordinates were taken from Chapter VII, table page 25.

 Antanas Vaitkus,
 2018-01-14
;
_cod_original_formula_sum        'Pb N2 O6'
_cod_database_code               5910007
loop_
_space_group_symop_id
_space_group_symop_operation_xyz
1 x,y,z
2 z,x,y
3 y,z,x
4 -y+1/2,-z,x+1/2
5 z+1/2,-x+1/2,-y
6 -y,z+1/2,-x+1/2
7 -z+1/2,-x,y+1/2
8 -z,x+1/2,-y+1/2
9 y+1/2,-z+1/2,-x
10 x+1/2,-y+1/2,-z
11 -x,y+1/2,-z+1/2
12 -x+1/2,-y,z+1/2
13 -x,-y,-z
14 -z,-x,-y
15 -y,-z,-x
16 y+1/2,z,-x+1/2
17 -z+1/2,x+1/2,y
18 y,-z+1/2,x+1/2
19 z+1/2,x,-y+1/2
20 z,-x+1/2,y+1/2
21 -y+1/2,z+1/2,x
22 -x+1/2,y+1/2,z
23 x,-y+1/2,z+1/2
24 x+1/2,y,-z+1/2
loop_
_atom_site_label
_atom_site_type_symbol
_atom_site_fract_x
_atom_site_fract_y
_atom_site_fract_z
Pb1 Pb 0 0 0
N1 N 0.344 0.344 0.344
O1 O 0.266 0.291 0.467
loop_
_cod_related_entry_id
_cod_related_entry_database
_cod_related_entry_code
1 MPOD 1000182
2 MPOD 1000183
3 MPOD 1000224
