#------------------------------------------------------------------------------
#$Date: 2016-03-02 09:51:31 +0200 (Wed, 02 Mar 2016) $
#$Revision: 177123 $
#$URL: svn://www.crystallography.net/cod/cif/5/91/02/5910288.cif $
#------------------------------------------------------------------------------
#
# This file is available in the Crystallography Open Database (COD),
# http://www.crystallography.net/
#
# All data on this site have been placed in the public domain by the
# contributors.
#
data_5910288
loop_
_publ_author_name
'Wyckoff, R. W. G.'
_publ_section_title
;
Page 72 & 74 from the Structure of Crystals, vol. 3 by Wyckoff R W G. 
published by Interscience Publishers, Inc. in 1951 
;
_journal_name_full               'The Structure of Crystals'
_journal_page_first              72
_journal_page_last               74
_journal_volume                  3
_journal_year                    1951
_chemical_formula_structural     In2HgSe4
_chemical_formula_sum            'Hg In2 Se4'
_space_group_IT_number           82
_symmetry_cell_setting           tetragonal
_symmetry_Int_Tables_number      82
_symmetry_space_group_name_Hall  'I -4'
_symmetry_space_group_name_H-M   'I -4'
_audit_creation_date             2006-02-07
_audit_creation_method
;
Page 72 & 74 from the Structure of Crystals, vol. 3 by Wyckoff R W G. 
published by Interscience Publishers, Inc. in 1951 
;
_audit_update_record
'created by Girish Upreti, Portland State University'
_cell_angle_alpha                90
_cell_angle_beta                 90
_cell_angle_gamma                90
_cell_length_a                   5.763
_cell_length_b                   5.763
_cell_length_c                   11.80
_cell_volume                     391.904
_cod_original_formula_sum        'In2 Hg Se4'
_cod_database_code               5910288
loop_
_symmetry_equiv_pos_as_xyz
x,y,z
y,-x,-z
-y,x,-z
-x,-y,z
x+1/2,y+1/2,z+1/2
y+1/2,-x+1/2,-z+1/2
-y+1/2,x+1/2,-z+1/2
-x+1/2,-y+1/2,z+1/2
loop_
_atom_site_fract_x
_atom_site_fract_y
_atom_site_fract_z
_atom_site_label
0.00000 0.00000 0.00000 Hg1
0.50000 0.50000 0.50000 Hg2
0.00000 0.00000 0.50000 In1
0.50000 0.50000 0.00000 In2
0.00000 0.50000 0.25000 In3
0.50000 0.00000 0.75000 In4
0.27000 0.23000 0.13700 Se1
-0.27000 -0.23000 0.13700 Se2
-0.23000 0.27000 -0.13700 Se3
0.23000 -0.27000 -0.13700 Se4
