#------------------------------------------------------------------------------
#$Date: 2018-07-04 05:32:08 +0300 (Wed, 04 Jul 2018) $
#$Revision: 208815 $
#$URL: file:///home/coder/svn-repositories/cod/cif/6/00/05/6000528.cif $
#------------------------------------------------------------------------------
#
# This file is available in the Crystallography Open Database (COD),
# http://www.crystallography.net/
#
# All data on this site have been placed in the public domain by the
# contributors.
#
data_6000528
loop_
_publ_author_name
'Roberts, M. A.'
'Fitch, A. N.'
_publ_section_title
;
 The crystal-structures of Ag~4~Ge~7~O~16~&#x00B7;6D~2~O and
 Na~3~(ND~4~)Ge~7~O~16~&#x00B7;6D~2~O refined from high-resolution synchrotron
 radiation and neutron powder diffraction data
;
_journal_issue                   10
_journal_name_full               'Journal of Physics and Chemistry of Solids'
_journal_page_first              1209
_journal_page_last               1218
_journal_paper_doi               10.1016/0022-3697(91)90195-6
_journal_volume                  52
_journal_year                    1991
_chemical_formula_sum            'D16 Ge7 N Na3 O22'
_space_group_crystal_system      trigonal
_space_group_IT_number           160
_space_group_name_Hall           'P 3* -2'
_space_group_name_H-M_alt        'R 3 m :R'
_cell_angle_alpha                88.77(5)
_cell_angle_beta                 88.77(5)
_cell_angle_gamma                88.77(5)
_cell_formula_units_Z            1
_cell_length_a                   7.769(6)
_cell_length_b                   7.769(6)
_cell_length_c                   7.769(6)
_cell_volume                     468.60
_pd_proc_ls_prof_wR_expected     0.036
_pd_proc_ls_prof_wR_factor       0.07
_refine_ls_R_I_factor            0.039
_cod_depositor_comments
;
 Normalising the occupancies reported by the authors by dividing them by the
 atom site symmetry multiplicities.

 Antanas Vaitkus,
 2018-07-04

 Adding atomic coordinates, atomic displacement parameter values, space group
 information, R-factor values and other additional information after consulting
 the original publication. It should be noted that some of the occupancy values
 reported by the authors exceed 1; these occupancies were most likely calculated
 by multiplying the site occupancy by the site symmetry multiplicity. The
 aforementioned occupancies were purposely not modified in this revision
 and will be changed in a separate commit.

 Antanas Vaitkus,
 2018-07-04
;
_cod_original_sg_symbol_H-M      'R 3 m'
_cod_database_code               6000528
loop_
_space_group_symop_id
_space_group_symop_operation_xyz
1 x,y,z
2 z,x,y
3 y,z,x
4 y,x,z
5 z,y,x
6 x,z,y
loop_
_atom_site_label
_atom_site_type_symbol
_atom_site_site_symmetry_multiplicity
_atom_site_Wyckoff_symbol
_atom_site_fract_x
_atom_site_fract_y
_atom_site_fract_z
_atom_site_occupancy
_atom_site_B_iso_or_equiv
Ge(1) Ge 3 b 0.4836(5) 0.4836(5) -0.0187(6) 1 0.45(3)
Ge(2) Ge 1 a 0.3447(6) 0.3447(6) 0.3447(6) 1 0.59(7)
Ge(3) Ge 3 b 0.6136(5) 0.6136(5) 0.3390(5) 1 0.42(3)
O(1) O 3 b 0.3537(6) 0.3537(6) 0.1094(6) 1 0.80(7)
O(2) O 3 b 0.6134(6) 0.6134(6) 0.1028(7) 1 0.72(5)
O(3) O 6 c 0.6108(5) 0.3452(5) 0.8501(6) 1 0.66(4)
O(4) O 1 a 0.5929(6) 0.5929(6) 0.5929(6) 1 0.35(9)
O(5) O 3 b 0.3628(6) 0.3628(6) 0.5973(6) 1 0.70(5)
N N 1 a 0.7943(6) 0.7943(6) 0.7943(6) 0.958(3) 2.0(1)
D(4) D 1 a 0.7188(7) 0.7188(7) 0.7188(7) 0.958(4) 2.1(2)
D(5) D 3 b 0.8712(6) 0.8712(6) 0.7124(8) 0.956(3) 3.4(1)
Na Na 3 b 0.9027(7) 0.9027(7) 0.2944(9) 1 2.2(1)
Ow(1) O 3 b 0.1842(6) 0.1842(6) 0.8638(5) 0.980(13) 1.71(8)
D(1) D 3 b 0.2369(6) 0.2369(6) 0.9670(7) 0.9800(66) 2.27(9)
D(2) D 3 b 0.2401(6) 0.2401(6) 0.7617(8) 0.9800(66) 2.49(9)
Ow(2) O 3 b -0.0020(5) -0.0020(5) 0.5682(6) 0.9933(66) 1.90(9)
D(3) D 6 c -0.0283(7) 0.1164(6) 0.5691(7) 0.9933(66) 4.12(8)
