#------------------------------------------------------------------------------
#$Date: 2022-09-15 12:05:42 +0300 (Thu, 15 Sep 2022) $
#$Revision: 277869 $
#$URL: file:///home/coder/svn-repositories/cod/cif/6/00/06/6000630.cif $
#------------------------------------------------------------------------------
#
# This file is available in the Crystallography Open Database (COD),
# http://www.crystallography.net/
#
# All data on this site have been placed in the public domain by the
# contributors.
#
data_6000630
loop_
_publ_author_name
'Eibenstein, U.'
'Jung, W.'
_publ_section_title
;
 Zn11Rh18B8 and Zn10MRh18B8 with m = Sc, Ti, V, Cr, Mn, Fe, Co, Ni, Cu,
 Al, Si, Ge, Sn - New ternary and quaternary zinc rhodium borides
;
_journal_name_full
'Zeitschrift Fur Anorganische Und Allgemeine Chemie'
_journal_page_first              802
_journal_page_last               806
_journal_paper_doi
10.1002/(SICI)1521-3749(199805)624:5<802::AID-ZAAC802>3.0.CO;2-A
_journal_volume                  624
_journal_year                    1998
_chemical_formula_sum            'B8 Rh18 Sn Zn10'
_space_group_IT_number           127
_space_group_name_Hall           '-P 4 2ab'
_space_group_name_H-M_alt        'P 4/m b m'
_cell_angle_alpha                90.000
_cell_angle_beta                 90.000
_cell_angle_gamma                90.000
_cell_formula_units_Z            2
_cell_length_a                   17.7404(9)
_cell_length_b                   17.7404(9)
_cell_length_c                   2.8679(2)
_cell_volume                     902.59
_diffrn_reflns_number            9972
_exptl_crystal_size_rad          0.048
_refine_ls_number_parameters     56
_cod_depositor_comments
;
  The X and Y coordinates of site Zn2 were apparently swapped in the
  original publication, resulting in disagreements between interatomic
  distances present in the structure and given in the original
  publication, as well as voids. The issue was fixed by swapping the
  coordinates back.

  Andrius Merkys
  2016-01-29
;
_cod_database_code               6000630
loop_
_space_group_symop_operation_xyz
x,y,z
-y,x,z
-x,-y,z
y,-x,z
x+1/2,-y+1/2,-z
y+1/2,x+1/2,-z
-x+1/2,y+1/2,-z
-y+1/2,-x+1/2,-z
-x,-y,-z
y,-x,-z
x,y,-z
-y,x,-z
-x-1/2,y-1/2,z
-y-1/2,-x-1/2,z
x-1/2,-y-1/2,z
y-1/2,x-1/2,z
loop_
_atom_site_label
_atom_site_site_symmetry_multiplicity
_atom_site_Wyckoff_symbol
_atom_site_fract_x
_atom_site_fract_y
_atom_site_fract_z
_atom_site_U_iso_or_equiv
_atom_site_type_symbol
Rh1 8 i 0.74519(3) 0.08716(3) 0 0.0060(2) Rh
Rh2 4 g 0.58244(3) 0.08244(3) 0 0.0053(2) Rh
Rh3 8 i 0.17440(3) 0.54866(3) 0 0.0056(2) Rh
Rh4 8 i 0.90279(3) 0.06696(3) 0 0.0088(2) Rh
Rh5 8 i 0.83924(3) 0.21147(3) 0 0.0064(2) Rh
Zn1 4 h 0.05028(5) 0.55028(5) 0.5 0.0051(4) Zn
Zn2 4 h 0.70887(5) 0.20887(5) 0.5 0.0063(4) Zn
Zn3 8 j 0.31194(5) 0.53179(5) 0.5 0.0075(4) Zn
Zn4 4 h 0.16904(5) 0.66904(5) 0.5 0.0042(4) Zn
M 2 b 0 0 0.5 0.0022(6) Sn
B1 8 j 0.6659(4) 0.0388(4) 0.5 0.0044(11) B
B2 8 j 0.8348(4) 0.1236(4) 0.5 0.0064(13) B
