#------------------------------------------------------------------------------
#$Date: 2022-09-15 12:05:42 +0300 (Thu, 15 Sep 2022) $
#$Revision: 277869 $
#$URL: file:///home/coder/svn-repositories/cod/cif/6/00/02/6000271.cif $
#------------------------------------------------------------------------------
#
# This file is available in the Crystallography Open Database (COD),
# http://www.crystallography.net/
#
# All data on this site have been placed in the public domain by the
# contributors.
#
data_6000271
loop_
_publ_author_name
'Yang, J. H.'
'Choo, W. K.'
'Lee, J. H.'
'Lee, C. H.'
_publ_section_title
;
 The crystal structure of the B-site ordered complex perovskite
 Sr(Yb0.5Nb0.5)O-3
;
_journal_issue                   2
_journal_name_full               'Acta Crystallographica B'
_journal_page_first              348
_journal_page_last               354
_journal_paper_doi               10.1107/S0108768198018333
_journal_volume                  55
_journal_year                    1999
_chemical_formula_sum            'Nb0.5 O3 Sr Yb0.5'
_space_group_IT_number           14
_space_group_name_Hall           '-P 2yn'
_space_group_name_H-M_alt        'P 1 21/n 1'
_symmetry_cell_setting           monoclinic
_symmetry_space_group_name_Hall  '-P 2yn'
_symmetry_space_group_name_H-M   'P 21/n'
_cell_angle_alpha                90.0
_cell_angle_beta                 90.1262(11)
_cell_angle_gamma                90.0
_cell_formula_units_Z            2
_cell_length_a                   5.79095(8)
_cell_length_b                   5.82210(7)
_cell_length_c                   8.20358(12)
_cell_volume                     276.59
_computing_structure_refinement  RIETAN
_diffrn_ambient_temperature      295
_diffrn_measurement_device_type  'Rigaku Rotaflex'
_diffrn_radiation_probe          x-ray
_diffrn_radiation_type           'Cu K\a'
_diffrn_radiation_wavelength     1.540562
_refine_ls_goodness_of_fit_all   3.28
_refine_ls_number_parameters     28
_cod_duplicate_entry             2003131
_cod_data_source_file            sh0123.cif
_cod_data_source_block           Xray
_cod_database_code               6000271
loop_
_symmetry_equiv_pos_as_xyz
+x,+y,+z
-x+1/2,+y+1/2,-z+1/2
-x,-y,-z
+x-1/2,-y-1/2,+z-1/2
loop_
_atom_site_label
_atom_site_fract_x
_atom_site_fract_y
_atom_site_fract_z
_atom_site_U_iso_or_equiv
_atom_site_thermal_displace_type
_atom_site_occupancy
Sr(1) .006(2) .0271(3) .2511(7) .66(4) Uiso 1.0
Yb(2) .50000 .00000 .00000 .32(4) Uiso 1.0
Nb(3) .00000 .50000 .00000 .26(6) Uiso 1.0
O1(4) .19914 .77266 .03652 .663 Uiso 1.0
O2(5) .27028 .30088 -.96467 .663 Uiso 1.0
O3(6) .42994 .01538 -.26239 .663 Uiso 1.0
