#------------------------------------------------------------------------------
#$Date: 2016-02-16 03:10:39 +0200 (Tue, 16 Feb 2016) $
#$Revision: 176453 $
#$URL: svn://www.crystallography.net/cod/cif/7/01/88/7018887.cif $
#------------------------------------------------------------------------------
#
# This file is available in the Crystallography Open Database (COD),
# http://www.crystallography.net/
#
# All data on this site have been placed in the public domain by the
# contributors.
#
data_7018887
loop_
_publ_author_name
'Ben Yahia, Hamdi'
'Shikano, Masahiro'
'Koike, Shinji'
'Tatsumi, Kuniaki'
'Kobayashi, Hironori'
_publ_section_title
;
 Single crystal X-ray structure study of the Li2&#x2212;xNaxNi[PO4]F
 system
;
_journal_issue                   19
_journal_name_full               'Dalton Transactions'
_journal_page_first              5838
_journal_paper_doi               10.1039/c2dt12375d
_journal_volume                  41
_journal_year                    2012
_chemical_formula_sum            'F Na2 Ni O4 P'
_chemical_formula_weight         218.6
_chemical_name_systematic        ' ?'
_space_group_IT_number           14
_symmetry_cell_setting           monoclinic
_symmetry_Int_Tables_number      14
_symmetry_space_group_name_Hall  '-P 2ybc'
_symmetry_space_group_name_H-M   'P 1 21/c 1'
_cell_angle_alpha                90
_cell_angle_beta                 120.580(10)
_cell_angle_gamma                90
_cell_formula_units_Z            8
_cell_length_a                   13.4581(8)
_cell_length_b                   5.1991(3)
_cell_length_c                   13.6978(16)
_cell_measurement_reflns_used    7599
_cell_measurement_temperature    293
_cell_measurement_theta_max      27.43
_cell_measurement_theta_min      3.46
_cell_volume                     825.14(15)
_diffrn_ambient_temperature      293
_diffrn_measured_fraction_theta_full 0.99
_diffrn_measured_fraction_theta_max 0.99
_diffrn_measurement_device       'four-cycle diffractometer'
_diffrn_measurement_device_type  'Rigaku R-AXIS RAPID'
_diffrn_measurement_method       Multi-scan
_diffrn_radiation_monochromator  graphite
_diffrn_radiation_source         'X-ray tube'
_diffrn_radiation_type           'Mo K\a'
_diffrn_radiation_wavelength     0.71069
_diffrn_reflns_av_R_equivalents  0.0518
_diffrn_reflns_av_sigmaI/netI    0.0476
_diffrn_reflns_limit_h_max       17
_diffrn_reflns_limit_h_min       -17
_diffrn_reflns_limit_k_max       6
_diffrn_reflns_limit_k_min       -6
_diffrn_reflns_limit_l_max       17
_diffrn_reflns_limit_l_min       -17
_diffrn_reflns_number            7599
_diffrn_reflns_theta_full        27.43
_diffrn_reflns_theta_max         27.43
_diffrn_reflns_theta_min         3.46
_exptl_absorpt_coefficient_mu    5.229
_exptl_absorpt_correction_T_max  0.681
_exptl_absorpt_correction_T_min  0.676
_exptl_absorpt_correction_type   sphere
_exptl_crystal_colour            yellow
_exptl_crystal_density_diffrn    3.5188
_exptl_crystal_description       sphere
_exptl_crystal_F_000             848
_exptl_crystal_size_max          0.05
_exptl_crystal_size_mid          0.05
_exptl_crystal_size_min          0.05
_exptl_crystal_size_rad          0.05
_refine_diff_density_max         0.55
_refine_diff_density_min         -0.43
_refine_ls_extinction_method     none
_refine_ls_goodness_of_fit_gt    1.18
_refine_ls_goodness_of_fit_ref   1.18
_refine_ls_number_constraints    0
_refine_ls_number_parameters     164
_refine_ls_number_reflns         1877
_refine_ls_number_restraints     0
_refine_ls_R_factor_all          0.0408
_refine_ls_R_factor_gt           0.0408
_refine_ls_shift/su_max          0.0004
_refine_ls_shift/su_mean         0.0000
_refine_ls_structure_factor_coef Fsqd
_refine_ls_weighting_details     w=1/(\s^2^(I)+0.0004I^2^)
_refine_ls_weighting_scheme      sigma
_refine_ls_wR_factor_gt          0.0688
_refine_ls_wR_factor_ref         0.0688
_reflns_number_gt                1877
_reflns_number_total             1877
_reflns_threshold_expression     I>0\s(I)
_cod_data_source_file            c2dt12375d_2.cif
_cod_data_source_block           I
_cod_original_formula_sum        'F1 Na2 Ni1 O4 P1'
_cod_database_code               7018887
loop_
_symmetry_equiv_pos_site_id
_symmetry_equiv_pos_as_xyz
1 x,y,z
2 -x,y+1/2,-z+1/2
3 -x,-y,-z
4 x,-y+1/2,z+1/2
loop_
_atom_site_label
_atom_site_type_symbol
_atom_site_fract_x
_atom_site_fract_y
_atom_site_fract_z
_atom_site_adp_type
_atom_site_U_iso_or_equiv
_atom_site_symmetry_multiplicity
_atom_site_occupancy
_atom_site_calc_flag
Na1 Na 0.0812(5) 0.7704(5) 0.4118(5) Uani 0.016(2) 4 1 d
Na2 Na 0.8296(5) 0.7387(5) 0.9194(4) Uani 0.015(2) 4 1 d
Na3 Na 0.4189(5) 0.2579(5) 0.5824(5) Uani 0.017(2) 4 1 d
Na4 Na 0.6700(5) 0.2602(5) 0.8385(4) Uani 0.0138(19) 4 1 d
Ni1 Ni 0.17655(13) 0.28356(13) 0.35096(13) Uani 0.0086(4) 4 1 d
Ni2 Ni 0.32311(13) 0.72328(13) 0.42485(13) Uani 0.0080(4) 4 1 d
P1 P 0.9126(2) 0.2015(4) 0.8230(2) Uani 0.0077(8) 4 1 d
P2 P 0.4117(2) 0.2919(3) 0.8385(2) Uani 0.0071(7) 4 1 d
O1 O 0.3941(3) 0.5852(7) 0.8460(3) Uani 0.0138(18) 4 1 d
O2 O 0.8924(3) 0.5922(7) 0.2984(3) Uani 0.0133(18) 4 1 d
O3 O 0.3452(3) 0.3511(7) 0.3862(3) Uani 0.0113(17) 4 1 d
O4 O 0.4589(7) 0.7686(7) 0.0884(7) Uani 0.012(3) 4 1 d
O5 O 0.1303(6) 0.7172(8) 0.0964(7) Uani 0.014(2) 4 1 d
O6 O 0.3689(6) 0.2165(9) 0.7188(7) Uani 0.014(2) 4 1 d
O7 O 0.9584(7) 0.7622(6) 0.6233(7) Uani 0.011(3) 4 1 d
O8 O 0.8461(3) 0.3422(6) 0.7081(3) Uani 0.0124(17) 4 1 d
F1 F 0.7527(5) 0.0043(8) 1.0019(3) Uani 0.0115(15) 4 1 d
F2 F 0.2516(5) 0.0047(9) 0.4704(3) Uani 0.0126(14) 4 1 d
loop_
_atom_site_aniso_label
_atom_site_aniso_type_symbol
_atom_site_aniso_U_11
_atom_site_aniso_U_22
_atom_site_aniso_U_33
_atom_site_aniso_U_12
_atom_site_aniso_U_13
_atom_site_aniso_U_23
Na1 Na 0.009(2) 0.0206(18) 0.019(3) -0.0002(10) 0.007(2) 0.0032(11)
Na2 Na 0.014(2) 0.0151(14) 0.015(3) -0.0015(13) 0.006(2) -0.0010(11)
Na3 Na 0.022(3) 0.0193(17) 0.016(3) 0.0010(10) 0.013(2) 0.0008(10)
Na4 Na 0.013(2) 0.0203(15) 0.009(3) 0.0028(12) 0.006(2) 0.0016(10)
Ni1 Ni 0.0093(5) 0.0089(3) 0.0074(5) -0.0003(3) 0.0040(4) -0.0002(3)
Ni2 Ni 0.0056(5) 0.0106(3) 0.0072(5) 0.0001(3) 0.0028(4) 0.0003(4)
P1 P 0.0088(10) 0.0083(7) 0.0090(10) 0.0003(8) 0.0066(8) 0.0004(9)
P2 P 0.0045(9) 0.0103(6) 0.0078(10) -0.0005(8) 0.0041(8) 0.0008(9)
O1 O 0.020(2) 0.0102(17) 0.016(2) -0.0020(16) 0.0128(19) -0.0015(17)
O2 O 0.019(2) 0.0079(18) 0.013(2) 0.0034(16) 0.0091(19) 0.0010(17)
O3 O 0.015(2) 0.0090(19) 0.016(2) 0.0008(14) 0.0120(18) -0.0033(16)
O4 O 0.010(4) 0.016(3) 0.003(3) -0.0001(15) -0.001(3) -0.0001(16)
O5 O 0.013(3) 0.019(2) 0.010(3) -0.0007(19) 0.005(3) -0.006(2)
O6 O 0.015(3) 0.020(2) 0.004(3) -0.0001(19) 0.003(3) 0.001(2)
O7 O 0.003(3) 0.017(3) 0.006(4) 0.0014(14) -0.003(3) 0.0019(15)
O8 O 0.012(2) 0.0101(18) 0.014(2) 0.0014(15) 0.0057(18) 0.0023(16)
F1 F 0.0124(14) 0.0053(12) 0.017(2) -0.0006(10) 0.007(2) -0.0003(18)
F2 F 0.0125(14) 0.0068(11) 0.014(2) 0.0012(9) 0.0033(19) 0.0002(16)
loop_
_atom_type_symbol
_atom_type_scat_dispersion_real
_atom_type_scat_dispersion_imag
_atom_type_scat_source
F 0.0171 0.0103 'International Tables Vol C tables 4.2.6.8 and 6.1.1.1'
Na 0.0362 0.0249 'International Tables Vol C tables 4.2.6.8 and 6.1.1.1'
Ni 0.3393 1.1124 'International Tables Vol C tables 4.2.6.8 and 6.1.1.1'
O 0.0106 0.0060 'International Tables Vol C tables 4.2.6.8 and 6.1.1.1'
P 0.1023 0.0942 'International Tables Vol C tables 4.2.6.8 and 6.1.1.1'
loop_
_geom_angle_atom_site_label_1
_geom_angle_atom_site_label_2
_geom_angle_atom_site_label_3
_geom_angle_site_symmetry_1
_geom_angle_site_symmetry_3
_geom_angle
O2 Na1 O5 1_455 4_565 110.2(4)
O2 Na1 O7 1_455 3_666 57.40(19)
O2 Na1 O7 1_455 3_676 101.6(3)
O2 Na1 O8 1_455 3_666 97.5(2)
O2 Na1 F1 1_455 2_656 121.25(19)
O2 Na1 F2 1_455 1_565 162.5(3)
O5 Na1 O7 4_565 3_666 98.1(3)
O5 Na1 O7 4_565 3_676 95.7(3)
O5 Na1 O8 4_565 3_666 142.2(3)
O5 Na1 F1 4_565 2_656 78.1(3)
O5 Na1 F2 4_565 1_565 85.7(3)
O7 Na1 O7 3_666 3_676 158.0(3)
O7 Na1 O8 3_666 3_666 75.4(3)
O7 Na1 F1 3_666 2_656 63.9(2)
O7 Na1 F2 3_666 1_565 129.5(3)
O7 Na1 O8 3_676 3_666 103.4(4)
O7 Na1 F1 3_676 2_656 136.3(3)
O7 Na1 F2 3_676 1_565 68.6(3)
O8 Na1 F1 3_666 2_656 65.5(2)
O8 Na1 F2 3_666 1_565 71.9(3)
F1 Na1 F2 2_656 1_565 67.9(2)
O2 Na2 O5 4_565 3_666 97.0(4)
O2 Na2 O5 4_565 3_676 56.2(2)
O2 Na2 O6 4_565 2_656 96.7(3)
O2 Na2 O7 4_565 4_565 120.3(3)
O2 Na2 F1 4_565 1_565 121.4(2)
O2 Na2 F2 4_565 2_656 171.9(2)
O5 Na2 O5 3_666 3_676 150.6(4)
O5 Na2 O6 3_666 2_656 95.2(2)
O5 Na2 O7 3_666 4_565 92.2(2)
O5 Na2 F1 3_666 1_565 141.5(4)
O5 Na2 F2 3_666 2_656 77.0(3)
O5 Na2 O6 3_676 2_656 99.5(2)
O5 Na2 O7 3_676 4_565 92.1(2)
O5 Na2 F1 3_676 1_565 66.8(3)
O5 Na2 F2 3_676 2_656 130.8(3)
O6 Na2 O7 2_656 4_565 141.0(5)
O6 Na2 F1 2_656 1_565 79.5(3)
O6 Na2 F2 2_656 2_656 78.6(3)
O7 Na2 F1 4_565 1_565 71.1(3)
O7 Na2 F2 4_565 2_656 65.9(3)
F1 Na2 F2 1_565 2_656 64.6(3)
O1 Na3 O3 2_646 . 106.8(4)
O1 Na3 O4 2_646 4_555 57.7(2)
O1 Na3 O4 2_646 4_565 101.2(3)
O1 Na3 O6 2_646 . 108.5(3)
O1 Na3 F1 2_646 2_656 167.7(3)
O1 Na3 F2 2_646 . 121.1(2)
O3 Na3 O4 . 4_555 101.3(3)
O3 Na3 O4 . 4_565 78.3(3)
O3 Na3 O6 . . 143.8(4)
O3 Na3 F1 . 2_656 66.3(2)
O3 Na3 F2 . . 70.8(2)
O4 Na3 O4 4_555 4_565 158.1(4)
O4 Na3 O6 4_555 . 90.9(3)
O4 Na3 F1 4_555 2_656 132.3(3)
O4 Na3 F2 4_555 . 65.1(2)
O4 Na3 O6 4_565 . 102.2(4)
O4 Na3 F1 4_565 2_656 68.0(2)
O4 Na3 F2 4_565 . 132.9(3)
O6 Na3 F1 . 2_656 80.2(3)
O6 Na3 F2 . . 84.2(3)
F1 Na3 F2 2_656 . 67.4(2)
O1 Na4 O4 2_646 3_666 117.7(3)
O1 Na4 O5 2_646 3_666 98.5(4)
O1 Na4 O6 2_646 2_646 55.1(2)
O1 Na4 O6 2_646 2_656 97.2(3)
O1 Na4 F1 2_646 . 122.26(19)
O1 Na4 F2 2_646 2_656 172.2(3)
O4 Na4 O5 3_666 3_666 140.1(4)
O4 Na4 O6 3_666 2_646 89.0(3)
O4 Na4 O6 3_666 2_656 96.4(3)
O4 Na4 F1 3_666 . 70.1(3)
O4 Na4 F2 3_666 2_656 67.7(3)
O5 Na4 O6 3_666 2_646 99.4(3)
O5 Na4 O6 3_666 2_656 95.1(3)
O5 Na4 F1 3_666 . 76.8(3)
O5 Na4 F2 3_666 2_656 78.2(3)
O6 Na4 O6 2_646 2_656 150.2(3)
O6 Na4 F1 2_646 . 68.82(19)
O6 Na4 F2 2_646 2_656 132.2(3)
O6 Na4 F1 2_656 . 140.4(3)
O6 Na4 F2 2_656 2_656 76.3(2)
F1 Na4 F2 . 2_656 64.13(19)
Ni2 Ni1 O2 . 2_645 129.19(17)
Ni2 Ni1 O3 . . 46.41(11)
Ni2 Ni1 O7 . 3_666 123.42(16)
Ni2 Ni1 O8 . 3_666 47.30(9)
Ni2 Ni1 F1 . 2_656 47.17(18)
Ni2 Ni1 F2 . . 108.43(15)
O2 Ni1 O3 2_645 . 101.6(2)
O2 Ni1 O7 2_645 3_666 97.3(3)
O2 Ni1 O8 2_645 3_666 99.58(17)
O2 Ni1 F1 2_645 2_656 175.81(19)
O2 Ni1 F2 2_645 . 104.34(16)
O3 Ni1 O7 . 3_666 159.7(3)
O3 Ni1 O8 . 3_666 81.94(16)
O3 Ni1 F1 . 2_656 77.1(2)
O3 Ni1 F2 . . 84.1(2)
O7 Ni1 O8 3_666 3_666 102.16(19)
O7 Ni1 F1 3_666 2_656 84.6(3)
O7 Ni1 F2 3_666 . 84.2(3)
O8 Ni1 F1 3_666 2_656 76.33(16)
O8 Ni1 F2 3_666 . 154.27(16)
F1 Ni1 F2 2_656 . 79.54(17)
Ni1 Ni2 O1 . 4_564 129.28(13)
Ni1 Ni2 O3 . . 47.26(12)
Ni1 Ni2 O4 . 4_565 118.46(17)
Ni1 Ni2 O8 . 3_666 46.47(10)
Ni1 Ni2 F1 . 2_656 46.81(12)
Ni1 Ni2 F2 . 1_565 109.8(2)
O1 Ni2 O3 4_564 . 98.9(2)
O1 Ni2 O4 4_564 4_565 99.9(3)
O1 Ni2 O8 4_564 3_666 102.43(18)
O1 Ni2 F1 4_564 2_656 175.94(18)
O1 Ni2 F2 4_564 1_565 103.7(2)
O3 Ni2 O4 . 4_565 97.76(17)
O3 Ni2 O8 . 3_666 81.94(14)
O3 Ni2 F1 . 2_656 77.4(2)
O3 Ni2 F2 . 1_565 155.8(2)
O4 Ni2 O8 4_565 3_666 157.4(3)
O4 Ni2 F1 4_565 2_656 82.4(3)
O4 Ni2 F2 4_565 1_565 87.0(3)
O8 Ni2 F1 3_666 2_656 75.46(18)
O8 Ni2 F2 3_666 1_565 84.72(19)
F1 Ni2 F2 2_656 1_565 79.7(2)
O2 P1 O5 4_555 3_666 109.6(3)
O2 P1 O7 4_555 2_746 109.6(3)
O2 P1 O8 4_555 . 107.3(2)
O5 P1 O7 3_666 2_746 110.1(5)
O5 P1 O8 3_666 . 111.5(3)
O7 P1 O8 2_746 . 108.6(4)
O1 P2 O3 . 4_555 107.7(3)
O1 P2 O4 . 3_666 108.5(2)
O1 P2 O6 . . 110.2(3)
O3 P2 O4 4_555 3_666 109.6(4)
O3 P2 O6 4_555 . 110.9(4)
O4 P2 O6 3_666 . 109.9(5)
Na3 O1 Na4 2_656 2_656 91.7(3)
Na3 O1 Ni2 2_656 4_565 106.4(2)
Na3 O1 P2 2_656 . 103.5(3)
Na3 O1 O3 2_656 4_555 126.68(18)
Na3 O1 O4 2_656 3_666 69.6(2)
Na3 O1 O6 2_656 . 108.6(3)
Na4 O1 Ni2 2_656 4_565 111.1(2)
Na4 O1 P2 2_656 . 106.7(3)
Na4 O1 O3 2_656 4_555 125.63(18)
Na4 O1 O4 2_656 3_666 116.8(3)
Na4 O1 O6 2_656 . 73.0(2)
Ni2 O1 P2 4_565 . 130.2(3)
Ni2 O1 O3 4_565 4_555 94.6(2)
Ni2 O1 O4 4_565 3_666 131.9(3)
Ni2 O1 O6 4_565 . 144.5(3)
P2 O1 O3 . 4_555 36.0(2)
P2 O1 O4 . 3_666 35.47(18)
P2 O1 O6 . . 34.0(2)
O3 O1 O4 4_555 3_666 60.3(2)
O3 O1 O6 4_555 . 59.9(2)
O4 O1 O6 3_666 . 59.3(2)
Na1 O2 Na2 1_655 4_564 92.4(2)
Na1 O2 Ni1 1_655 2_655 104.8(2)
Na1 O2 P1 1_655 4_554 103.3(2)
Na1 O2 O5 1_655 2_645 109.0(2)
Na1 O2 O7 1_655 3_766 69.79(19)
Na1 O2 O8 1_655 4_554 126.0(2)
Na2 O2 Ni1 4_564 2_655 112.3(2)
Na2 O2 P1 4_564 4_554 107.2(3)
Na2 O2 O5 4_564 2_645 72.5(3)
Na2 O2 O7 4_564 3_766 117.4(3)
Na2 O2 O8 4_564 4_554 126.3(3)
Ni1 O2 P1 2_655 4_554 129.8(3)
Ni1 O2 O5 2_655 2_645 145.7(2)
Ni1 O2 O7 2_655 3_766 130.1(4)
Ni1 O2 O8 2_655 4_554 94.19(17)
P1 O2 O5 4_554 2_645 35.0(3)
P1 O2 O7 4_554 3_766 34.9(2)
P1 O2 O8 4_554 4_554 36.14(15)
O5 O2 O7 2_645 3_766 59.8(3)
O5 O2 O8 2_645 4_554 60.9(2)
O7 O2 O8 3_766 4_554 59.66(17)
Na3 O3 Ni1 . . 90.4(3)
Na3 O3 Ni2 . . 86.19(18)
Na3 O3 P2 . 4_554 112.3(2)
Na3 O3 O1 . 4_554 93.34(18)
Na3 O3 O4 . 2_645 90.2(3)
Na3 O3 O6 . 4_554 146.0(3)
Na3 O3 O8 . 3_666 113.7(3)
Na3 O3 F1 . 2_656 56.3(2)
Na3 O3 F2 . . 54.28(18)
Ni1 O3 Ni2 . . 86.33(18)
Ni1 O3 P2 . 4_554 128.0(2)
Ni1 O3 O1 . 4_554 99.96(17)
Ni1 O3 O4 . 2_645 160.0(2)
Ni1 O3 O6 . 4_554 113.2(2)
Ni1 O3 O8 . 3_666 48.61(12)
Ni1 O3 F1 . 2_656 51.23(16)
Ni1 O3 F2 . . 46.92(15)
Ni2 O3 P2 . 4_554 138.6(3)
Ni2 O3 O1 . 4_554 173.7(2)
Ni2 O3 O4 . 2_645 113.67(19)
Ni2 O3 O6 . 4_554 118.0(2)
Ni2 O3 O8 . 3_666 49.51(11)
Ni2 O3 F1 . 2_656 51.75(16)
Ni2 O3 F2 . . 110.4(2)
P2 O3 O1 4_554 4_554 36.32(17)
P2 O3 O4 4_554 2_645 35.1(2)
P2 O3 O6 4_554 4_554 33.84(19)
P2 O3 O8 4_554 3_666 133.8(2)
P2 O3 F1 4_554 2_656 167.0(3)
P2 O3 F2 4_554 . 110.4(2)
O1 O3 O4 4_554 2_645 60.03(17)
O1 O3 O6 4_554 4_554 59.92(19)
O1 O3 O8 4_554 3_666 135.75(16)
O1 O3 F1 4_554 2_656 132.6(2)
O1 O3 F2 4_554 . 74.2(2)
O4 O3 O6 2_645 4_554 59.2(3)
O4 O3 O8 2_645 3_666 146.6(3)
O4 O3 F1 2_645 2_656 141.3(3)
O4 O3 F2 2_645 . 120.0(2)
O6 O3 O8 4_554 3_666 100.3(2)
O6 O3 F1 4_554 2_656 157.5(2)
O6 O3 F2 4_554 . 126.2(2)
O8 O3 F1 3_666 2_656 57.43(17)
O8 O3 F2 3_666 . 93.3(2)
F1 O3 F2 2_656 . 58.61(19)
Na3 O4 Na3 4_554 4_564 158.1(5)
Na3 O4 Na4 4_554 3_666 77.4(3)
Na3 O4 Ni2 4_554 4_564 86.4(2)
Na3 O4 P2 4_554 3_666 87.5(2)
Na3 O4 O1 4_554 3_666 52.75(18)
Na3 O4 O3 4_554 2_655 110.2(3)
Na3 O4 O6 4_554 3_666 97.1(2)
Na3 O4 F1 4_554 3_666 105.7(3)
Na3 O4 F2 4_554 4_554 50.38(18)
Na3 O4 Na4 4_564 3_666 83.5(3)
Na3 O4 Ni2 4_564 4_564 83.5(2)
Na3 O4 P2 4_564 3_666 112.0(3)
Na3 O4 O1 4_564 3_666 147.9(3)
Na3 O4 O3 4_564 2_655 91.7(3)
Na3 O4 O6 4_564 3_666 94.2(2)
Na3 O4 F1 4_564 3_666 53.5(2)
Na3 O4 F2 4_564 4_554 110.2(3)
Na4 O4 Ni2 3_666 4_564 91.5(4)
Na4 O4 P2 3_666 3_666 122.3(5)
Na4 O4 O1 3_666 3_666 114.1(3)
Na4 O4 O3 3_666 2_655 151.6(4)
Na4 O4 O6 3_666 3_666 92.3(4)
Na4 O4 F1 3_666 3_666 53.8(3)
Na4 O4 F2 3_666 4_554 59.4(3)
Ni2 O4 P2 4_564 3_666 143.3(7)
Ni2 O4 O1 4_564 3_666 120.6(3)
Ni2 O4 O3 4_564 2_655 115.9(5)
Ni2 O4 O6 4_564 3_666 175.3(5)
Ni2 O4 F1 4_564 3_666 49.50(19)
Ni2 O4 F2 4_564 4_554 46.04(17)
P2 O4 O1 3_666 3_666 35.98(16)
P2 O4 O3 3_666 2_655 35.3(3)
P2 O4 O6 3_666 3_666 34.4(3)
P2 O4 F1 3_666 3_666 163.6(4)
P2 O4 F2 3_666 4_554 137.7(2)
O1 O4 O3 3_666 2_655 59.7(2)
O1 O4 O6 3_666 3_666 60.1(2)
O1 O4 F1 3_666 3_666 158.5(3)
O1 O4 F2 3_666 4_554 101.95(18)
O3 O4 O6 2_655 3_666 60.0(3)
O3 O4 F1 2_655 3_666 140.1(3)
O3 O4 F2 2_655 4_554 146.5(4)
O6 O4 F1 3_666 3_666 131.7(4)
O6 O4 F2 3_666 4_554 138.6(4)
F1 O4 F2 3_666 4_554 56.9(2)
Na1 O5 Na2 4_564 3_666 83.2(3)
Na1 O5 Na2 4_564 3_676 81.3(3)
Na1 O5 Na4 4_564 3_666 92.8(4)
Na1 O5 P1 4_564 3_666 142.0(4)
Na1 O5 O2 4_564 2_655 124.2(2)
Na1 O5 O7 4_564 4_464 113.1(3)
Na1 O5 O8 4_564 3_666 170.1(4)
Na1 O5 F1 4_564 3_666 52.5(3)
Na2 O5 Na2 3_666 3_676 150.6(5)
Na2 O5 Na4 3_666 3_666 79.8(3)
Na2 O5 P1 3_666 3_666 120.3(4)
Na2 O5 O2 3_666 2_655 152.3(4)
Na2 O5 O7 3_666 4_464 108.2(3)
Na2 O5 O8 3_666 3_666 93.5(3)
Na2 O5 F1 3_666 3_666 104.0(4)
Na2 O5 Na4 3_676 3_666 76.2(2)
Na2 O5 P1 3_676 3_666 86.4(3)
Na2 O5 O2 3_676 2_655 51.3(2)
Na2 O5 O7 3_676 4_464 100.9(3)
Na2 O5 O8 3_676 3_666 105.5(3)
Na2 O5 F1 3_676 3_666 47.2(2)
Na4 O5 P1 3_666 3_666 118.9(4)
Na4 O5 O2 3_666 2_655 101.0(2)
Na4 O5 O7 3_666 4_464 153.3(4)
Na4 O5 O8 3_666 3_666 95.7(3)
Na4 O5 F1 3_666 3_666 51.2(2)
P1 O5 O2 3_666 2_655 35.38(18)
P1 O5 O7 3_666 4_464 34.8(3)
P1 O5 O8 3_666 3_666 34.2(2)
P1 O5 F1 3_666 3_666 132.8(3)
O2 O5 O7 2_655 4_464 60.0(3)
O2 O5 O8 2_655 3_666 58.8(2)
O2 O5 F1 2_655 3_666 97.5(2)
O7 O5 O8 4_464 3_666 59.0(3)
O7 O5 F1 4_464 3_666 142.6(2)
O8 O5 F1 3_666 3_666 137.3(2)
Na2 O6 Na3 2_646 . 91.3(3)
Na2 O6 Na4 2_646 2_646 79.7(2)
Na2 O6 Na4 2_646 2_656 76.20(19)
Na2 O6 P2 2_646 . 121.1(6)
Na2 O6 O1 2_646 . 102.6(3)
Na2 O6 O3 2_646 4_555 97.0(4)
Na2 O6 O4 2_646 3_666 156.4(6)
Na3 O6 Na4 . 2_646 86.2(3)
Na3 O6 Na4 . 2_656 77.1(3)
Na3 O6 P2 . . 139.7(5)
Na3 O6 O1 . . 120.3(3)
Na3 O6 O3 . 4_555 171.3(3)
Na3 O6 O4 . 3_666 111.2(5)
Na4 O6 Na4 2_646 2_656 150.2(3)
Na4 O6 P2 2_646 . 120.3(4)
Na4 O6 O1 2_646 . 153.1(5)
Na4 O6 O3 2_646 4_555 92.9(3)
Na4 O6 O4 2_646 3_666 107.5(2)
Na4 O6 P2 2_656 . 87.5(2)
Na4 O6 O1 2_656 . 51.96(17)
Na4 O6 O3 2_656 4_555 107.2(3)
Na4 O6 O4 2_656 3_666 101.5(2)
P2 O6 O1 . . 35.80(17)
P2 O6 O3 . 4_555 35.3(3)
P2 O6 O4 . 3_666 35.7(3)
O1 O6 O3 . 4_555 60.1(3)
O1 O6 O4 . 3_666 60.6(2)
O3 O6 O4 4_555 3_666 60.8(3)
Na1 O7 Na1 3_666 3_676 158.0(3)
Na1 O7 Na2 3_666 4_564 80.7(2)
Na1 O7 Ni1 3_666 3_666 78.8(3)
Na1 O7 P1 3_666 2_756 87.1(2)
Na1 O7 O2 3_666 3_766 52.81(15)
Na1 O7 O5 3_666 4_665 97.2(3)
Na1 O7 O8 3_666 2_756 109.9(2)
Na1 O7 F1 3_666 4_554 50.24(17)
Na1 O7 F2 3_666 3_666 107.2(3)
Na1 O7 Na2 3_676 4_564 79.7(2)
Na1 O7 Ni1 3_676 3_666 91.5(3)
Na1 O7 P1 3_676 2_756 111.9(3)
Na1 O7 O2 3_676 3_766 147.4(4)
Na1 O7 O5 3_676 4_665 93.0(3)
Na1 O7 O8 3_676 2_756 92.1(2)
Na1 O7 F1 3_676 4_554 108.9(3)
Na1 O7 F2 3_676 3_666 53.4(2)
Na2 O7 Ni1 4_564 3_666 91.2(3)
Na2 O7 P1 4_564 2_756 121.6(6)
Na2 O7 O2 4_564 3_766 115.8(4)
Na2 O7 O5 4_564 4_665 90.2(4)
Na2 O7 O8 4_564 2_756 149.8(5)
Na2 O7 F1 4_564 4_554 52.9(2)
Na2 O7 F2 4_564 3_666 59.7(2)
Ni1 O7 P1 3_666 2_756 141.7(5)
Ni1 O7 O2 3_666 3_766 115.3(3)
Ni1 O7 O5 3_666 4_665 175.5(2)
Ni1 O7 O8 3_666 2_756 118.2(5)
Ni1 O7 F1 3_666 4_554 48.5(2)
Ni1 O7 F2 3_666 3_666 47.8(2)
P1 O7 O2 2_756 3_766 35.49(16)
P1 O7 O5 2_756 4_665 35.0(3)
P1 O7 O8 2_756 2_756 35.8(2)
P1 O7 F1 2_756 4_554 136.6(3)
P1 O7 F2 2_756 3_666 165.3(3)
O2 O7 O5 3_766 4_665 60.2(3)
O2 O7 O8 3_766 2_756 59.58(19)
O2 O7 F1 3_766 4_554 103.04(18)
O2 O7 F2 3_766 3_666 159.2(3)
O5 O7 O8 4_665 2_756 61.0(3)
O5 O7 F1 4_665 4_554 130.1(4)
O5 O7 F2 4_665 3_666 136.2(4)
O8 O7 F1 2_756 4_554 154.0(3)
O8 O7 F2 2_756 3_666 135.5(3)
F1 O7 F2 4_554 3_666 57.2(2)
Na1 O8 Ni1 3_666 3_666 89.6(2)
Na1 O8 Ni2 3_666 3_666 90.4(2)
Na1 O8 P1 3_666 . 111.1(3)
Na1 O8 O2 3_666 4_555 91.9(2)
Na1 O8 O3 3_666 3_666 116.0(2)
Na1 O8 O5 3_666 3_666 145.3(2)
Na1 O8 O7 3_666 2_746 89.3(3)
Na1 O8 F1 3_666 4_554 57.2(2)
Na1 O8 F2 3_666 3_656 53.6(2)
Ni1 O8 Ni2 3_666 3_666 86.23(13)
Ni1 O8 P1 3_666 . 137.6(2)
Ni1 O8 O2 3_666 4_555 173.77(18)
Ni1 O8 O3 3_666 3_666 49.45(13)
Ni1 O8 O5 3_666 3_666 116.0(2)
Ni1 O8 O7 3_666 2_746 113.22(18)
Ni1 O8 F1 3_666 4_554 52.05(14)
Ni1 O8 F2 3_666 3_656 110.97(18)
Ni2 O8 P1 3_666 . 128.2(3)
Ni2 O8 O2 3_666 4_555 99.81(16)
Ni2 O8 O3 3_666 3_666 48.54(11)
Ni2 O8 O5 3_666 3_666 113.1(3)
Ni2 O8 O7 3_666 2_746 160.5(2)
Ni2 O8 F1 3_666 4_554 52.20(17)
Ni2 O8 F2 3_666 3_656 46.40(16)
P1 O8 O2 . 4_555 36.54(14)
P1 O8 O3 . 3_666 132.6(3)
P1 O8 O5 . 3_666 34.2(2)
P1 O8 O7 . 2_746 35.6(3)
P1 O8 F1 . 4_554 167.4(3)
P1 O8 F2 . 3_656 111.1(2)
O2 O8 O3 4_555 3_666 134.4(2)
O2 O8 O5 4_555 3_666 60.25(18)
O2 O8 O7 4_555 2_746 60.76(16)
O2 O8 F1 4_555 4_554 133.3(2)
O2 O8 F2 4_555 3_656 74.65(15)
O3 O8 O5 3_666 3_666 98.7(3)
O3 O8 O7 3_666 2_746 146.1(2)
O3 O8 F1 3_666 4_554 58.8(2)
O3 O8 F2 3_666 3_656 93.01(17)
O5 O8 O7 3_666 2_746 59.9(3)
O5 O8 F1 3_666 4_554 157.4(3)
O5 O8 F2 3_666 3_656 126.6(2)
O7 O8 F1 2_746 4_554 139.9(4)
O7 O8 F2 2_746 3_656 120.7(2)
F1 O8 F2 4_554 3_656 59.00(16)
Na1 F1 Na2 2_646 1_545 92.8(3)
Na1 F1 Na3 2_646 2_646 176.7(4)
Na1 F1 Na4 2_646 . 90.8(3)
Na1 F1 Ni1 2_646 2_646 89.3(2)
Na1 F1 Ni2 2_646 2_646 90.5(2)
Na1 F1 O3 2_646 2_646 121.1(3)
Na1 F1 O4 2_646 3_666 118.4(2)
Na1 F1 O5 2_646 3_666 49.3(2)
Na1 F1 O7 2_646 4_555 65.9(2)
Na1 F1 O8 2_646 4_555 57.3(2)
Na1 F1 F2 2_646 2_646 126.1(3)
Na1 F1 F2 2_646 2_656 55.7(2)
Na2 F1 Na3 1_545 2_646 90.4(3)
Na2 F1 Na4 1_545 . 89.1(3)
Na2 F1 Ni1 1_545 2_646 92.6(2)
Na2 F1 Ni2 1_545 2_646 176.4(3)
Na2 F1 O3 1_545 2_646 125.9(2)
Na2 F1 O4 1_545 3_666 130.8(3)
Na2 F1 O5 1_545 3_666 66.1(3)
Na2 F1 O7 1_545 4_555 56.0(3)
Na2 F1 O8 1_545 4_555 128.9(3)
Na2 F1 F2 1_545 2_646 62.2(2)
Na2 F1 F2 1_545 2_656 134.6(3)
Na3 F1 Na4 2_646 . 88.3(2)
Na3 F1 Ni1 2_646 2_646 91.5(3)
Na3 F1 Ni2 2_646 2_646 86.3(3)
Na3 F1 O3 2_646 2_646 57.4(3)
Na3 F1 O4 2_646 3_666 58.6(2)
Na3 F1 O5 2_646 3_666 131.6(3)
Na3 F1 O7 2_646 4_555 116.9(2)
Na3 F1 O8 2_646 4_555 121.1(4)
Na3 F1 F2 2_646 2_646 56.48(19)
Na3 F1 F2 2_646 2_656 121.2(3)
Na4 F1 Ni1 . 2_646 178.2(4)
Na4 F1 Ni2 . 2_646 92.2(2)
Na4 F1 O3 . 2_646 126.9(3)
Na4 F1 O4 . 3_666 56.1(3)
Na4 F1 O5 . 3_666 51.9(2)
Na4 F1 O7 . 4_555 134.6(4)
Na4 F1 O8 . 4_555 127.2(2)
Na4 F1 F2 . 2_646 131.6(2)
Na4 F1 F2 . 2_656 62.75(16)
Ni1 F1 Ni2 2_646 2_646 86.0(2)
Ni1 F1 O3 2_646 2_646 51.72(17)
Ni1 F1 O4 2_646 3_666 122.4(4)
Ni1 F1 O5 2_646 3_666 129.1(3)
Ni1 F1 O7 2_646 4_555 47.0(3)
Ni1 F1 O8 2_646 4_555 51.62(12)
Ni1 F1 F2 2_646 2_646 49.35(13)
Ni1 F1 F2 2_646 2_656 116.0(2)
Ni2 F1 O3 2_646 2_646 50.83(18)
Ni2 F1 O4 2_646 3_666 48.1(2)
Ni2 F1 O5 2_646 3_666 117.3(2)
Ni2 F1 O7 2_646 4_555 124.5(3)
Ni2 F1 O8 2_646 4_555 52.34(15)
Ni2 F1 F2 2_646 2_646 114.6(3)
Ni2 F1 F2 2_646 2_656 48.86(19)
O3 F1 O4 2_646 3_666 71.1(3)
O3 F1 O5 2_646 3_666 167.3(2)
O3 F1 O7 2_646 4_555 98.3(3)
O3 F1 O8 2_646 4_555 63.81(19)
O3 F1 F2 2_646 2_646 63.7(2)
O3 F1 F2 2_646 2_656 99.4(3)
O4 F1 O5 3_666 3_666 105.0(3)
O4 F1 O7 3_666 4_555 169.3(4)
O4 F1 O8 3_666 4_555 100.3(3)
O4 F1 F2 3_666 2_646 113.5(3)
O4 F1 F2 3_666 2_656 62.8(2)
O5 F1 O7 3_666 4_555 85.2(3)
O5 F1 O8 3_666 4_555 106.0(2)
O5 F1 F2 3_666 2_646 127.8(3)
O5 F1 F2 3_666 2_656 68.5(2)
O7 F1 O8 4_555 4_555 73.4(2)
O7 F1 F2 4_555 2_646 60.5(2)
O7 F1 F2 4_555 2_656 119.8(2)
O8 F1 F2 4_555 2_646 100.54(19)
O8 F1 F2 4_555 2_656 64.44(15)
F2 F1 F2 2_646 2_656 162.0(3)
Na1 F2 Na2 1_545 2_646 79.2(3)
Na1 F2 Na3 1_545 . 161.5(4)
Na1 F2 Na4 1_545 2_646 85.2(3)
Na1 F2 Ni1 1_545 . 95.5(2)
Na1 F2 Ni2 1_545 1_545 93.1(2)
Na1 F2 O3 1_545 . 140.2(2)
Na1 F2 O4 1_545 4_555 116.6(2)
Na1 F2 O7 1_545 3_666 58.0(2)
Na1 F2 O8 1_545 3_656 54.4(2)
Na1 F2 F1 1_545 2_646 56.5(2)
Na1 F2 F1 1_545 2_656 118.2(3)
Na2 F2 Na3 2_646 . 84.5(3)
Na2 F2 Na4 2_646 2_646 73.5(2)
Na2 F2 Ni1 2_646 . 87.1(2)
Na2 F2 Ni2 2_646 1_545 159.3(3)
Na2 F2 O3 2_646 . 110.9(2)
Na2 F2 O4 2_646 4_555 119.8(3)
Na2 F2 O7 2_646 3_666 54.4(3)
Na2 F2 O8 2_646 3_656 132.2(3)
Na2 F2 F1 2_646 2_646 109.6(3)
Na2 F2 F1 2_646 2_656 53.3(2)
Na3 F2 Na4 . 2_646 81.7(2)
Na3 F2 Ni1 . . 92.6(2)
Na3 F2 Ni2 . 1_545 99.1(3)
Na3 F2 O3 . . 54.9(2)
Na3 F2 O4 . 4_555 64.49(19)
Na3 F2 O7 . 3_666 118.3(2)
Na3 F2 O8 . 3_656 143.0(4)
Na3 F2 F1 . 2_646 122.5(2)
Na3 F2 F1 . 2_656 56.13(19)
Na4 F2 Ni1 2_646 . 160.2(3)
Na4 F2 Ni2 2_646 1_545 86.8(2)
Na4 F2 O3 2_646 . 134.5(3)
Na4 F2 O4 2_646 4_555 52.8(3)
Na4 F2 O7 2_646 3_666 118.9(4)
Na4 F2 O8 2_646 3_656 109.7(2)
Na4 F2 F1 2_646 2_646 53.13(15)
Na4 F2 F1 2_646 2_656 111.4(2)
Ni1 F2 Ni2 . 1_545 112.9(3)
Ni1 F2 O3 . . 48.98(15)
Ni1 F2 O4 . 4_555 140.4(4)
Ni1 F2 O7 . 3_666 48.0(2)
Ni1 F2 O8 . 3_656 86.32(15)
Ni1 F2 F1 . 2_646 141.6(2)
Ni1 F2 F1 . 2_656 51.11(14)
Ni2 F2 O3 1_545 . 87.3(3)
Ni2 F2 O4 1_545 4_555 47.0(2)
Ni2 F2 O7 1_545 3_666 136.2(2)
Ni2 F2 O8 1_545 3_656 48.88(13)
Ni2 F2 F1 1_545 2_646 51.4(2)
Ni2 F2 F1 1_545 2_656 144.1(4)
O3 F2 O4 . 4_555 92.3(3)
O3 F2 O7 . 3_666 95.6(2)
O3 F2 O8 . 3_656 99.7(2)
O3 F2 F1 . 2_646 138.8(3)
O3 F2 F1 . 2_656 57.6(2)
O4 F2 O7 4_555 3_666 171.6(4)
O4 F2 O8 4_555 3_656 93.8(2)
O4 F2 F1 4_555 2_646 60.2(2)
O4 F2 F1 4_555 2_656 120.5(2)
O7 F2 O8 3_666 3_656 87.8(2)
O7 F2 F1 3_666 2_646 114.4(3)
O7 F2 F1 3_666 2_656 62.3(2)
O8 F2 F1 3_656 2_646 56.56(15)
O8 F2 F1 3_656 2_656 137.25(18)
F1 F2 F1 2_646 2_656 162.0(3)
loop_
_geom_bond_atom_site_label_1
_geom_bond_atom_site_label_2
_geom_bond_site_symmetry_2
_geom_bond_distance
Na1 O2 1_455 2.390(6)
Na1 O5 4_565 2.267(11)
Na1 O7 3_666 2.815(5)
Na1 O7 3_676 2.481(5)
Na1 O8 3_666 2.372(9)
Na1 F1 2_656 2.371(7)
Na1 F2 1_565 2.349(8)
Na2 O2 4_565 2.380(9)
Na2 O5 3_666 2.465(6)
Na2 O5 3_676 2.909(6)
Na2 O6 2_656 2.363(8)
Na2 O7 4_565 2.424(9)
Na2 F1 1_565 2.334(9)
Na2 F2 2_656 2.575(10)
Na3 O1 2_646 2.364(7)
Na3 O3 . 2.393(8)
Na3 O4 4_555 2.783(5)
Na3 O4 4_565 2.512(5)
Na3 O6 . 2.296(13)
Na3 F1 2_656 2.365(8)
Na3 F2 . 2.375(7)
Na4 O1 2_646 2.396(7)
Na4 O4 3_666 2.409(14)
Na4 O5 3_666 2.365(10)
Na4 O6 2_646 2.909(6)
Na4 O6 2_656 2.470(6)
Na4 F1 . 2.342(6)
Na4 F2 2_656 2.603(6)
Ni1 Ni2 . 2.8478(15)
Ni1 O2 2_645 2.026(4)
Ni1 O3 . 2.096(5)
Ni1 O7 3_666 2.032(11)
Ni1 O8 3_666 2.069(4)
Ni1 F1 2_656 2.081(4)
Ni1 F2 . 2.029(4)
Ni2 O1 4_564 2.030(5)
Ni2 O3 . 2.067(4)
Ni2 O4 4_565 2.048(7)
Ni2 O8 3_666 2.098(3)
Ni2 F1 2_656 2.094(7)
Ni2 F2 1_565 2.016(6)
P1 O2 4_555 1.557(4)
P1 O5 3_666 1.543(11)
P1 O7 2_746 1.535(9)
P1 O8 . 1.543(4)
P2 O1 . 1.555(4)
P2 O3 4_555 1.542(6)
P2 O4 3_666 1.536(8)
P2 O6 . 1.488(9)
O1 O3 4_555 2.501(6)
O1 O4 3_666 2.509(7)
O1 O6 . 2.495(8)
O2 O5 2_645 2.534(9)
O2 O7 3_766 2.527(7)
O2 O8 4_554 2.497(5)
O3 O4 2_645 2.515(11)
O3 O6 4_554 2.495(11)
O3 O8 3_666 2.731(5)
O3 F1 2_656 2.602(9)
O3 F2 . 2.763(8)
O4 O6 3_666 2.475(9)
O4 F1 3_666 2.729(10)
O4 F2 4_554 2.797(9)
O5 O7 4_464 2.523(15)
O5 O8 3_666 2.550(11)
O5 F1 3_666 2.924(12)
O7 O8 2_756 2.500(7)
O7 F1 4_554 2.768(9)
O7 F2 3_666 2.723(10)
O8 F1 4_554 2.565(6)
O8 F2 3_656 2.772(6)
F1 F2 2_646 2.630(6)
F1 F2 2_656 2.634(6)
loop_
_refln_index_h
_refln_index_k
_refln_index_l
_refln_F_squared_calc
_refln_F_squared_meas
_refln_F_squared_sigma
_refln_observed_status
2 0 0 11827.30 12739.60 316.11 o
3 0 0 0.00 -8.54 18.54 <
4 0 0 41540.90 43212.10 1554.92 o
5 0 0 3.68 19.63 31.08 <
6 0 0 2571.94 2666.66 142.33 o
7 0 0 2.15 20.18 22.18 <
8 0 0 15811.30 14840.20 502.25 o
9 0 0 1.15 -23.27 48.53 <
10 0 0 17.60 98.52 51.99 <
11 0 0 37.80 13.81 32.90 <
12 0 0 22515.60 23238.80 946.33 o
13 0 0 11.60 63.99 68.71 <
14 0 0 8243.07 9003.38 463.53 o
15 0 0 18.68 38.17 98.52 <
1 1 0 0.10 2.00 9.63 <
2 1 0 1048.87 1178.46 29.45 o
3 1 0 1.05 17.09 13.81 <
4 1 0 71175.20 67041.90 1825.94 o
5 1 0 0.37 10.18 18.72 <
6 1 0 17631.80 18507.60 396.27 o
7 1 0 6.00 -19.81 23.45 <
8 1 0 29469.90 28995.20 753.65 o
9 1 0 10.38 15.09 24.18 <
10 1 0 4698.45 4730.91 135.79 o
11 1 0 11.71 47.44 30.36 <
12 1 0 5567.02 5660.52 172.87 o
13 1 0 4.39 -18.72 31.45 <
14 1 0 943.77 1096.29 67.08 o
0 2 0 148569.00 132491.00 7310.50 o
1 2 0 0.01 4.36 10.36 <
2 2 0 59.41 80.35 12.00 o
3 2 0 1.87 -6.73 9.45 <
4 2 0 30360.70 30304.30 568.78 o
5 2 0 9.23 4.54 11.09 <
6 2 0 15049.20 15309.40 295.93 o
7 2 0 0.26 20.00 23.81 <
8 2 0 30910.90 30192.30 724.56 o
9 2 0 0.09 -8.00 18.54 <
10 2 0 984.82 1140.28 75.62 o
11 2 0 19.84 11.82 29.99 <
12 2 0 8964.09 8699.82 331.92 o
13 2 0 4.26 9.09 27.63 <
14 2 0 2388.92 2396.36 135.24 o
1 3 0 10.84 17.27 11.63 <
2 3 0 731.47 650.03 29.63 o
3 3 0 23.55 20.72 15.81 <
4 3 0 43014.10 42875.60 1146.28 o
5 3 0 43.90 38.54 19.09 <
6 3 0 9149.91 9363.85 236.85 o
7 3 0 35.71 52.17 18.00 <
8 3 0 22523.50 21195.30 1307.52 o
9 3 0 0.11 -8.00 19.45 <
10 3 0 3875.21 3907.28 139.24 o
11 3 0 6.20 6.91 23.63 <
12 3 0 1106.15 1051.94 87.07 o
13 3 0 5.59 14.91 40.72 <
0 4 0 43398.00 42076.90 1631.26 o
1 4 0 51.29 24.54 23.81 <
2 4 0 2680.65 2596.86 61.08 o
3 4 0 18.22 55.26 23.09 <
4 4 0 268.93 267.58 18.90 o
5 4 0 7.97 37.81 26.36 <
6 4 0 526.62 598.77 45.08 o
7 4 0 7.58 13.81 28.72 <
8 4 0 5302.03 5303.33 249.58 o
9 4 0 2.00 -25.09 38.54 <
10 4 0 31.13 83.07 74.35 <
11 4 0 84.43 103.61 32.90 o
12 4 0 4702.38 4398.26 205.04 o
1 5 0 8.98 29.99 25.09 <
2 5 0 3265.65 3191.08 82.71 o
3 5 0 40.07 52.53 19.27 <
4 5 0 7777.58 7609.70 149.78 o
5 5 0 51.42 72.71 23.63 o
6 5 0 654.67 645.31 37.99 o
7 5 0 52.04 76.35 26.72 <
8 5 0 4547.46 4475.52 137.24 o
9 5 0 0.24 -57.08 35.45 <
10 5 0 1296.14 1543.10 182.14 o
0 6 0 2787.01 2436.53 88.53 o
1 6 0 82.47 68.89 30.72 <
2 6 0 69.71 54.35 35.08 <
3 6 0 60.76 120.52 49.81 <
4 6 0 1117.63 989.77 55.08 o
5 6 0 0.49 20.36 22.54 <
6 6 0 937.29 771.28 51.62 o
-15 1 1 14.46 29.45 38.54 <
-14 1 1 55.72 27.08 42.35 <
-13 1 1 75.12 37.99 35.26 <
-12 1 1 81.48 71.44 37.81 <
-11 1 1 299.25 219.95 42.35 o
-10 1 1 438.82 470.44 37.81 o
-9 1 1 38.94 1.27 22.54 <
-8 1 1 1045.07 968.69 46.72 o
-7 1 1 3227.10 3103.65 78.53 o
-6 1 1 2047.28 2013.54 77.44 o
-5 1 1 556.26 534.79 48.53 o
-4 1 1 1059.26 1007.95 33.08 o
-3 1 1 1545.59 1380.05 36.17 o
-2 1 1 468.45 416.27 25.99 o
-1 1 1 359.93 282.30 36.54 o
0 1 1 429.53 383.91 13.45 o
1 1 1 433.15 401.91 17.09 o
2 1 1 1338.11 1344.05 68.35 o
3 1 1 1268.07 1200.45 32.17 o
4 1 1 496.83 478.43 25.27 o
5 1 1 2334.67 2271.48 67.62 o
6 1 1 2833.54 2710.65 78.16 o
7 1 1 1154.35 1081.21 54.35 o
8 1 1 46.86 60.17 31.08 <
9 1 1 530.76 520.24 47.26 o
10 1 1 260.68 226.13 43.26 o
11 1 1 80.56 18.54 31.99 <
12 1 1 77.71 64.53 35.81 <
13 1 1 48.63 61.08 36.54 <
14 1 1 17.09 36.17 41.44 <
-14 2 1 140.24 97.98 49.99 <
-13 2 1 52.34 34.36 32.54 <
-12 2 1 1175.11 996.14 50.72 o
-11 2 1 1841.23 1706.52 88.34 o
-10 2 1 598.06 550.24 42.90 o
-9 2 1 186.52 157.42 21.63 o
-8 2 1 564.77 480.25 50.53 o
-7 2 1 1478.46 1356.78 50.17 o
-6 2 1 859.09 796.73 31.81 o
-5 2 1 167.27 148.33 18.36 o
-4 2 1 386.52 391.91 28.36 o
-3 2 1 346.99 347.74 23.09 o
-2 2 1 193.75 172.69 24.36 o
-1 2 1 120.66 107.97 12.91 o
0 2 1 140.42 122.88 13.81 o
1 2 1 169.15 191.41 15.27 o
2 2 1 398.89 405.00 19.81 o
3 2 1 327.42 311.93 19.81 o
4 2 1 199.55 180.14 18.54 o
5 2 1 937.76 893.25 36.90 o
6 2 1 1243.13 1164.46 66.71 o
7 2 1 674.23 644.76 38.17 o
8 2 1 187.81 217.59 33.63 o
9 2 1 649.16 661.48 69.62 o
10 2 1 1602.89 1564.91 105.07 o
11 2 1 1300.54 1297.34 62.53 o
12 2 1 63.21 53.44 33.63 <
13 2 1 163.37 58.71 43.26 <
-13 3 1 246.01 141.06 43.08 o
-12 3 1 178.07 179.05 57.62 o
-11 3 1 570.52 501.70 82.34 o
-10 3 1 735.94 580.05 46.72 o
-9 3 1 355.80 317.93 43.26 o
-8 3 1 2656.77 2481.07 199.04 o
-7 3 1 4888.90 4923.96 151.42 o
-6 3 1 5288.13 4974.86 160.33 o
-5 3 1 2516.82 2561.23 80.89 o
-4 3 1 859.26 803.63 29.45 o
-3 3 1 2665.14 2627.94 51.26 o
-2 3 1 2046.10 2057.71 62.17 o
-1 3 1 3367.59 3682.43 105.98 o
0 3 1 3260.04 3320.15 101.25 o
1 3 1 2093.91 2133.69 44.72 o
2 3 1 2321.34 2155.50 45.08 o
3 3 1 1006.02 957.78 38.90 o
4 3 1 2263.54 2265.12 73.44 o
5 3 1 5956.55 5815.75 138.15 o
6 3 1 4522.63 4428.98 117.06 o
7 3 1 2682.13 2674.29 133.42 o
8 3 1 360.40 272.85 31.81 o
9 3 1 885.41 879.25 56.17 o
10 3 1 490.84 414.27 45.63 o
11 3 1 147.36 82.89 31.45 <
12 3 1 296.54 271.57 46.72 o
-12 4 1 3076.24 2953.14 291.75 o
-11 4 1 3403.98 3344.32 224.68 o
-10 4 1 891.06 837.44 68.53 o
-9 4 1 216.18 227.77 40.17 o
-8 4 1 762.80 709.84 59.80 o
-7 4 1 874.01 832.17 57.80 o
-6 4 1 276.28 317.93 27.27 o
-5 4 1 530.64 520.61 40.72 o
-4 4 1 1328.95 1391.13 43.63 o
-3 4 1 4144.69 4297.01 110.16 o
-2 4 1 3446.14 3469.75 95.25 o
-1 4 1 1615.84 2485.61 534.42 o
0 4 1 1434.11 1402.40 52.17 o
1 4 1 3799.47 3862.20 76.89 o
2 4 1 3934.91 3949.27 78.35 o
3 4 1 1205.09 1240.08 45.26 o
4 4 1 567.58 622.04 33.81 o
5 4 1 244.98 248.67 29.99 o
6 4 1 728.04 702.20 39.45 o
7 4 1 923.83 1021.58 72.17 o
8 4 1 255.20 270.12 45.44 o
9 4 1 890.90 871.25 83.44 o
10 4 1 2996.71 2803.54 124.15 o
11 4 1 3504.41 3586.08 160.33 o
-10 5 1 325.46 305.57 99.25 o
-9 5 1 317.74 393.36 69.98 o
-8 5 1 1897.15 1925.38 81.44 o
-7 5 1 3228.07 3254.16 130.15 o
-6 5 1 3202.75 3193.63 73.98 o
-5 5 1 1866.40 1943.19 58.17 o
-4 5 1 555.44 565.69 47.63 o
-3 5 1 1156.47 1329.33 70.35 o
-2 5 1 1406.36 1392.77 60.35 o
-1 5 1 1761.53 1870.84 63.99 o
0 5 1 1748.23 1825.94 106.34 o
1 5 1 1353.54 1645.62 240.49 o
2 5 1 1017.28 1072.66 40.35 o
3 5 1 624.20 638.22 47.63 o
4 5 1 1622.43 1685.25 49.08 o
5 5 1 3586.07 3712.78 91.62 o
6 5 1 3001.08 3054.02 88.71 o
7 5 1 1846.95 1860.12 67.80 o
8 5 1 378.48 474.26 51.62 o
9 5 1 360.54 231.95 141.42 <
-7 6 1 300.77 232.31 41.63 o
-6 6 1 203.59 197.05 36.90 o
-5 6 1 410.60 372.46 52.90 o
-4 6 1 1851.46 1845.03 121.06 o
-3 6 1 3048.07 3204.17 93.25 o
-2 6 1 2805.70 3041.48 125.61 o
-1 6 1 730.18 811.81 82.34 o
0 6 1 669.93 677.48 58.90 o
1 6 1 3069.44 3200.72 116.52 o
2 6 1 2950.93 3200.90 159.24 o
3 6 1 1793.31 1870.12 87.80 o
4 6 1 493.61 553.33 43.99 o
5 6 1 172.61 172.32 31.63 o
6 6 1 249.77 316.47 47.99 o
-15 0 2 3853.68 4224.30 271.21 o
-14 0 2 19.63 -3.82 52.72 <
-13 0 2 3810.67 3974.18 232.86 o
-12 0 2 1247.15 1469.12 113.61 o
-11 0 2 142.92 72.53 56.90 <
-10 0 2 1558.27 1788.32 175.60 o
-9 0 2 9382.86 9483.27 352.46 o
-8 0 2 4634.36 5204.62 191.96 o
-7 0 2 7242.00 7485.37 221.22 o
-6 0 2 11034.90 12151.00 363.92 o
-5 0 2 132.42 103.07 31.08 o
-4 0 2 12280.00 13831.20 373.01 o
-3 0 2 7586.27 7719.13 182.87 o
-2 0 2 514.01 465.71 40.54 o
0 0 2 498.07 456.08 25.09 o
1 0 2 7652.34 7738.95 178.69 o
2 0 2 12308.50 13566.70 352.83 o
3 0 2 131.83 156.87 31.81 o
4 0 2 11146.90 12072.90 351.01 o
5 0 2 7231.87 7303.41 202.68 o
6 0 2 4602.54 5069.38 154.33 o
7 0 2 9238.57 8925.95 346.83 o
8 0 2 1572.78 1715.42 135.06 o
9 0 2 152.89 154.87 54.17 <
10 0 2 1198.78 1461.12 131.06 o
11 0 2 3811.68 4055.07 205.23 o
12 0 2 22.97 44.90 68.89 <
13 0 2 3997.90 4112.15 278.66 o
-15 1 2 422.32 416.27 64.17 o
-14 1 2 22.09 -13.45 32.72 <
-13 1 2 3053.08 3134.55 101.07 o
-12 1 2 193.40 170.51 42.17 o
-11 1 2 2002.28 2044.62 93.25 o
-10 1 2 672.24 723.47 57.26 o
-9 1 2 821.12 773.46 57.26 o
-8 1 2 105.72 98.52 21.99 o
-7 1 2 1143.39 1159.92 59.26 o
-6 1 2 578.17 499.89 35.63 o
-5 1 2 7486.22 6966.03 132.88 o
-4 1 2 887.33 811.27 30.36 o
-3 1 2 10357.40 10543.20 198.14 o
-2 1 2 7406.11 8359.35 147.24 o
-1 1 2 6.81 10.72 10.00 <
0 1 2 7382.53 8927.40 330.65 o
1 1 2 10390.70 11732.90 636.76 o
2 1 2 879.52 911.06 71.62 o
3 1 2 7402.33 7318.32 206.86 o
4 1 2 589.45 527.33 26.90 o
5 1 2 1160.89 1138.83 45.26 o
6 1 2 98.14 95.98 29.99 o
7 1 2 824.12 816.18 53.26 o
8 1 2 644.36 703.47 49.26 o
9 1 2 2078.54 2093.88 83.44 o
10 1 2 192.99 199.59 44.35 o
11 1 2 2934.32 3076.75 147.78 o
12 1 2 26.75 30.17 28.54 <
13 1 2 428.21 342.10 86.89 o
-15 2 2 2383.47 2447.98 125.43 o
-14 2 2 315.62 402.45 61.26 o
-13 2 2 1850.07 1808.13 77.62 o
-12 2 2 188.87 159.60 30.36 o
-11 2 2 388.28 393.73 35.08 o
-10 2 2 205.71 235.95 36.72 o
-9 2 2 8715.00 8488.59 178.87 o
-8 2 2 6525.98 6621.39 143.79 o
-7 2 2 5584.33 5447.47 184.32 o
-6 2 2 83.70 65.26 17.63 o
-5 2 2 5.73 23.45 19.27 <
-4 2 2 4038.74 3959.82 110.52 o
-3 2 2 1915.84 1878.30 39.08 o
-2 2 2 535.40 619.31 24.18 o
-1 2 2 6077.17 5675.60 99.43 o
0 2 2 553.48 663.67 23.09 o
1 2 2 1896.03 1839.40 39.45 o
2 2 2 4016.69 4372.63 186.14 o
3 2 2 5.88 17.63 12.36 <
4 2 2 73.78 89.62 21.27 o
5 2 2 5634.61 5540.36 109.79 o
6 2 2 6530.18 6495.78 146.15 o
7 2 2 8667.76 8457.51 191.23 o
8 2 2 211.25 251.40 34.90 o
9 2 2 402.96 395.55 45.08 o
10 2 2 212.51 218.49 37.99 o
11 2 2 1834.23 1893.93 85.07 o
12 2 2 339.22 357.74 50.17 o
13 2 2 2434.85 2293.29 97.43 o
-14 3 2 387.26 377.19 73.26 o
-13 3 2 860.80 885.43 67.44 o
-12 3 2 150.98 171.23 44.90 o
-11 3 2 1380.35 1498.02 129.61 o
-10 3 2 29.53 7.27 33.08 <
-9 3 2 1461.23 1504.74 79.80 o
-8 3 2 31.86 36.90 26.18 <
-7 3 2 552.55 516.43 36.17 o
-6 3 2 130.30 158.51 22.72 o
-5 3 2 5676.85 5782.49 156.33 o
-4 3 2 530.41 530.60 20.00 o
-3 3 2 4776.36 4788.35 81.98 o
-2 3 2 3626.02 3933.82 90.89 o
-1 3 2 0.48 -2.54 13.81 <
0 3 2 3479.47 3840.93 68.35 o
1 3 2 4774.59 4935.23 77.98 o
2 3 2 510.40 537.70 29.08 o
3 3 2 5643.31 5749.95 112.88 o
4 3 2 114.32 148.51 21.63 o
5 3 2 575.59 584.96 31.08 o
6 3 2 28.15 5.09 20.00 <
7 3 2 1478.27 1530.74 58.35 o
8 3 2 34.24 40.17 22.72 <
9 3 2 1443.65 1511.47 69.44 o
10 3 2 159.04 153.24 36.17 o
11 3 2 801.02 779.09 54.90 o
12 3 2 423.98 436.08 55.62 o
-12 4 2 381.85 306.48 57.44 o
-11 4 2 253.96 224.13 73.44 o
-10 4 2 248.56 156.15 35.99 o
-9 4 2 2264.35 2151.14 84.71 o
-8 4 2 23.32 47.63 31.99 <
-7 4 2 421.48 413.00 35.63 o
-6 4 2 913.37 938.69 37.99 o
-5 4 2 473.39 506.25 29.81 o
-4 4 2 38.83 47.63 18.72 <
-3 4 2 656.37 640.22 30.54 o
-2 4 2 3535.37 3406.31 81.98 o
-1 4 2 881.29 921.42 71.44 o
0 4 2 3585.25 3600.26 168.69 o
1 4 2 680.64 610.04 55.81 o
2 4 2 35.22 114.88 51.62 <
3 4 2 443.45 560.96 41.81 o
4 4 2 965.17 1010.49 51.62 o
5 4 2 431.02 417.18 34.36 o
6 4 2 22.63 47.63 31.99 <
7 4 2 2173.25 2038.44 137.79 o
8 4 2 235.82 196.14 36.54 o
9 4 2 254.14 89.62 60.90 <
10 4 2 344.37 211.77 66.17 o
-10 5 2 111.08 110.88 41.08 <
-9 5 2 457.92 488.98 63.08 o
-8 5 2 95.26 123.61 35.26 o
-7 5 2 26.76 22.18 19.27 <
-6 5 2 444.73 547.15 35.26 o
-5 5 2 1230.16 1242.26 53.44 o
-4 5 2 21.31 55.08 19.63 <
-3 5 2 1724.25 1699.61 56.71 o
-2 5 2 52.71 38.90 23.81 <
-1 5 2 2.06 -17.45 20.90 <
0 5 2 61.34 122.70 43.44 <
1 5 2 1736.77 1655.44 51.62 o
2 5 2 23.30 37.08 20.90 <
3 5 2 1210.58 1238.08 47.08 o
4 5 2 488.13 552.42 36.36 o
5 5 2 27.68 19.81 23.27 <
6 5 2 79.32 31.27 24.18 <
7 5 2 462.83 408.09 70.17 o
8 5 2 94.61 135.60 39.99 o
-7 6 2 16.83 8.91 32.72 <
-6 6 2 38.55 25.27 30.36 <
-5 6 2 33.00 15.27 21.09 <
-4 6 2 918.20 1030.67 45.81 o
-3 6 2 6.37 16.54 23.45 <
-2 6 2 29.99 39.45 18.18 <
-1 6 2 13.90 -19.09 17.27 <
0 6 2 25.21 21.45 18.18 <
1 6 2 6.25 20.72 21.09 <
2 6 2 821.10 893.79 49.81 o
3 6 2 27.38 22.36 20.36 <
4 6 2 33.15 21.45 22.72 <
5 6 2 18.12 -9.45 22.90 <
-16 1 3 29.38 37.81 32.90 <
-15 1 3 176.95 175.23 54.90 o
-14 1 3 271.85 263.39 65.80 o
-13 1 3 93.96 107.07 32.90 o
-12 1 3 179.08 148.51 31.99 o
-11 1 3 800.90 725.29 55.99 o
-10 1 3 320.66 294.66 49.08 o
-9 1 3 366.53 327.92 38.54 o
-8 1 3 711.24 676.57 63.08 o
-7 1 3 567.35 552.42 30.54 o
-6 1 3 926.17 870.53 40.72 o
-5 1 3 3395.61 3266.52 71.98 o
-4 1 3 1009.59 1058.30 37.26 o
-3 1 3 746.39 704.57 26.54 o
-2 1 3 2536.76 2402.54 100.89 o
-1 1 3 3055.73 2641.39 81.07 o
0 1 3 681.13 660.58 25.81 o
1 1 3 1185.02 1378.59 97.43 o
2 1 3 2831.73 3050.03 165.96 o
3 1 3 1062.21 999.59 28.54 o
4 1 3 630.63 578.78 32.54 o
5 1 3 588.18 526.24 36.54 o
6 1 3 427.11 367.92 33.81 o
7 1 3 368.51 333.74 37.26 o
8 1 3 665.17 591.86 44.35 o
9 1 3 173.41 173.60 29.63 o
10 1 3 110.05 77.80 33.45 <
11 1 3 322.18 306.84 47.44 o
12 1 3 147.88 138.51 40.35 o
13 1 3 34.27 70.53 48.90 <
-15 2 3 441.99 455.35 72.89 o
-14 2 3 391.03 340.83 60.53 o
-13 2 3 156.70 145.42 31.63 o
-12 2 3 105.18 106.52 29.63 o
-11 2 3 313.11 236.49 31.27 o
-10 2 3 315.67 236.13 32.17 o
-9 2 3 475.44 506.43 92.89 o
-8 2 3 205.21 205.04 34.17 o
-7 2 3 875.62 843.08 67.08 o
-6 2 3 1914.40 1719.42 68.35 o
-5 2 3 1731.81 1621.26 42.35 o
-4 2 3 1302.18 1297.34 58.35 o
-3 2 3 354.40 410.27 37.81 o
-2 2 3 58.41 56.35 12.54 o
-1 2 3 65.55 67.44 12.72 o
0 2 3 344.86 342.47 15.09 o
1 2 3 1575.97 1556.01 38.35 o
2 2 3 1435.68 1443.12 54.90 o
3 2 3 2305.61 2386.72 93.61 o
4 2 3 817.18 777.64 33.45 o
5 2 3 233.27 240.13 31.45 o
6 2 3 403.07 385.18 35.99 o
7 2 3 382.14 355.19 36.36 o
8 2 3 263.91 195.77 33.99 o
9 2 3 97.70 68.71 33.99 <
10 2 3 168.53 182.87 35.08 o
11 2 3 441.40 369.55 48.72 o
12 2 3 389.40 301.39 47.44 o
-14 3 3 1704.97 1626.90 105.25 o
-13 3 3 1344.72 1131.56 95.98 o
-12 3 3 287.34 234.67 72.53 o
-11 3 3 1108.92 1043.40 78.16 o
-10 3 3 1200.04 1149.19 121.06 o
-9 3 3 914.07 828.90 97.25 o
-8 3 3 1102.35 1029.58 51.81 o
-7 3 3 682.70 704.38 48.35 o
-6 3 3 574.13 574.41 50.53 o
-5 3 3 1377.75 1312.43 39.26 o
-4 3 3 236.26 209.95 16.54 o
-3 3 3 5374.71 5210.44 111.61 o
-2 3 3 7140.12 7227.25 200.86 o
-1 3 3 8305.84 8015.61 127.61 o
0 3 3 4791.17 4940.68 85.43 o
1 3 3 222.32 219.40 22.54 o
2 3 3 1164.68 1243.53 85.07 o
3 3 3 611.03 580.59 34.54 o
4 3 3 815.19 856.35 71.80 o
5 3 3 997.84 977.78 45.44 o
6 3 3 962.56 887.25 43.81 o
7 3 3 1403.64 1356.05 55.26 o
8 3 3 917.85 898.34 50.72 o
9 3 3 238.40 238.13 46.17 o
10 3 3 1184.52 1082.30 73.98 o
11 3 3 1972.17 1863.57 118.34 o
-13 4 3 304.44 316.11 65.08 o
-12 4 3 274.84 236.85 40.17 o
-11 4 3 1371.09 1262.07 81.62 o
-10 4 3 2098.46 1958.64 158.51 o
-9 4 3 1501.19 1325.70 57.62 o
-8 4 3 95.69 78.53 20.36 o
-7 4 3 3967.47 4016.35 100.89 o
-6 4 3 5921.78 5951.72 141.24 o
-5 4 3 3709.77 3816.40 80.53 o
-4 4 3 1321.55 1398.59 62.89 o
-3 4 3 419.38 420.08 30.36 o
-2 4 3 330.05 323.74 26.72 o
-1 4 3 341.89 387.73 27.27 o
0 4 3 448.95 480.07 28.90 o
1 4 3 1209.27 1359.14 61.44 o
2 4 3 3194.92 3340.50 81.07 o
3 4 3 7159.19 7338.31 203.95 o
4 4 3 3286.55 3346.14 107.61 o
5 4 3 112.68 121.43 28.18 o
6 4 3 1239.95 1215.90 57.44 o
7 4 3 2541.21 2304.20 89.62 o
8 4 3 1139.76 1066.85 121.61 o
9 4 3 273.28 216.31 84.16 <
10 4 3 363.97 160.51 80.16 <
-11 5 3 1677.28 1621.45 177.96 o
-10 5 3 1821.66 1719.06 87.62 o
-9 5 3 1979.21 2063.71 183.59 o
-8 5 3 1189.98 1225.17 107.07 o
-7 5 3 534.22 516.97 43.08 o
-6 5 3 471.89 533.88 42.54 o
-5 5 3 1073.66 1113.02 57.99 o
-4 5 3 140.05 144.15 27.99 o
-3 5 3 2581.28 2654.66 96.89 o
-2 5 3 3180.59 3360.68 76.71 o
-1 5 3 3750.76 3913.28 95.25 o
0 5 3 2226.16 2282.75 61.26 o
1 5 3 155.69 188.50 22.72 o
2 5 3 905.32 921.61 45.99 o
3 5 3 524.21 515.70 39.45 o
4 5 3 512.24 610.95 54.90 o
5 5 3 1273.02 1366.78 55.99 o
6 5 3 1805.59 2041.89 154.87 o
7 5 3 2094.92 2279.29 117.61 o
8 5 3 1448.03 1433.49 131.79 o
-7 6 3 1697.71 1969.73 147.78 o
-6 6 3 3881.51 4194.31 198.14 o
-5 6 3 2801.91 2948.96 203.23 o
-4 6 3 1692.42 1761.05 161.05 o
-3 6 3 393.84 479.34 40.72 o
-2 6 3 105.75 148.51 39.99 o
-1 6 3 90.43 87.62 29.45 <
0 6 3 473.98 517.70 59.08 o
1 6 3 1618.16 1555.82 85.07 o
2 6 3 2546.14 2669.39 194.32 o
3 6 3 4643.87 4680.92 270.67 o
4 6 3 1421.38 1506.93 87.43 o
-16 0 4 3585.97 3440.66 171.41 o
-15 0 4 49.01 37.45 50.72 <
-14 0 4 250.79 253.40 70.35 o
-13 0 4 20.19 -49.26 47.63 <
-12 0 4 1579.52 1609.45 151.06 o
-11 0 4 131.54 142.51 46.17 o
-10 0 4 8711.68 8901.59 328.83 o
-9 0 4 1605.65 1481.30 62.53 o
-8 0 4 129508.00 131510.00 7654.42 o
-7 0 4 52.01 79.62 18.90 o
-6 0 4 4978.28 5639.61 114.34 o
-5 0 4 1306.60 1380.59 43.81 o
-4 0 4 52298.20 55929.30 1922.83 o
-3 0 4 2059.67 2071.71 54.71 o
-2 0 4 375.86 425.54 22.54 o
-1 0 4 2024.48 1981.91 57.26 o
0 0 4 52233.00 53735.60 2077.89 o
1 0 4 1310.31 1413.13 67.44 o
2 0 4 5171.69 5612.53 141.24 o
3 0 4 59.45 74.89 36.36 <
4 0 4 129330.00 133929.00 8047.06 o
5 0 4 1555.52 1501.11 121.43 o
6 0 4 8708.36 9046.10 442.44 o
7 0 4 122.40 185.96 44.17 o
8 0 4 1548.19 1766.32 94.89 o
9 0 4 17.62 -16.72 55.99 <
10 0 4 267.46 331.74 92.16 o
11 0 4 51.07 43.63 57.26 <
12 0 4 3564.61 3465.39 270.48 o
-16 1 4 5605.90 5916.28 205.77 o
-15 1 4 27.79 20.18 39.81 <
-14 1 4 5294.99 5585.62 187.96 o
-13 1 4 957.50 1081.02 79.07 o
-12 1 4 39448.80 39904.80 1197.54 o
-11 1 4 2366.62 2430.17 88.89 o
-10 1 4 493.52 534.60 35.81 o
-9 1 4 55.31 50.35 19.63 <
-8 1 4 3255.76 3234.71 64.53 o
-7 1 4 2696.40 2876.43 50.35 o
-6 1 4 12135.40 12771.20 220.68 o
-5 1 4 1082.46 1033.58 29.08 o
-4 1 4 48327.60 47336.00 1177.91 o
-3 1 4 1209.12 1195.18 25.63 o
-2 1 4 0.01 10.00 9.82 <
-1 1 4 1166.70 1192.82 22.72 o
0 1 4 48422.40 49704.40 2170.77 o
1 1 4 1103.72 1180.64 106.34 o
2 1 4 12189.70 13957.90 835.81 o
3 1 4 2771.94 2872.07 63.44 o
4 1 4 3218.84 3180.72 79.98 o
5 1 4 57.72 53.26 23.27 <
6 1 4 464.71 511.52 43.08 o
7 1 4 2374.37 2411.63 94.71 o
8 1 4 39677.20 39348.20 1061.21 o
9 1 4 933.13 946.69 67.44 o
10 1 4 5224.94 5528.00 162.15 o
11 1 4 23.90 17.09 38.35 <
12 1 4 5640.27 6018.98 205.23 o
-15 2 4 15.96 31.27 44.35 <
-14 2 4 1282.25 1257.53 124.15 o
-13 2 4 101.00 96.89 38.72 <
-12 2 4 1774.52 1815.04 87.62 o
-11 2 4 46.70 29.99 26.90 <
-10 2 4 772.59 780.91 74.16 o
-9 2 4 1639.69 1647.80 66.17 o
-8 2 4 44772.80 42204.80 1327.15 o
-7 2 4 1285.08 1231.90 48.35 o
-6 2 4 237.68 255.58 25.81 o
-5 2 4 762.46 834.72 23.81 o
-4 2 4 54852.10 57687.50 1555.10 o
-3 2 4 1375.99 1420.95 67.80 o
-2 2 4 17990.40 20110.80 616.40 o
-1 2 4 1336.30 1426.40 39.26 o
0 2 4 54570.40 56543.20 1306.97 o
1 2 4 773.34 847.99 39.81 o
2 2 4 267.42 327.92 20.18 o
3 2 4 1253.87 1345.33 88.53 o
4 2 4 44562.80 45005.50 1191.00 o
5 2 4 1632.43 1602.54 58.90 o
6 2 4 753.54 816.72 51.99 o
7 2 4 56.40 40.72 21.99 <
8 2 4 1795.41 1862.48 80.89 o
9 2 4 116.60 86.53 30.36 <
10 2 4 1341.30 1370.59 75.80 o
11 2 4 13.94 -10.91 25.63 <
-15 3 4 151.38 124.88 43.99 <
-14 3 4 3294.02 3499.01 169.23 o
-13 3 4 695.85 668.39 57.80 o
-12 3 4 17897.50 16939.00 744.92 o
-11 3 4 228.22 165.78 38.90 o
-10 3 4 187.81 163.78 32.17 o
-9 3 4 242.43 233.40 28.18 o
-8 3 4 176.79 148.88 31.81 o
-7 3 4 200.84 201.59 26.18 o
-6 3 4 5663.89 5702.87 128.15 o
-5 3 4 188.70 178.32 18.18 o
-4 3 4 36392.90 37291.20 1088.48 o
-3 3 4 798.96 855.08 29.99 o
-2 3 4 2.65 -4.91 14.36 <
-1 3 4 726.89 742.56 48.53 o
0 3 4 36503.00 36546.10 948.15 o
1 3 4 208.17 233.95 30.36 o
2 3 4 5731.10 5713.60 124.33 o
3 3 4 211.85 265.94 37.99 o
4 3 4 182.69 206.68 30.90 o
5 3 4 252.73 279.39 33.27 o
6 3 4 175.91 184.32 40.90 o
7 3 4 212.43 181.96 29.08 o
8 3 4 18039.60 17554.70 636.22 o
9 3 4 705.67 772.00 77.07 o
10 3 4 3228.78 3261.43 147.06 o
11 3 4 176.79 155.24 44.35 o
-13 4 4 84.44 81.44 34.72 <
-12 4 4 140.83 110.88 43.81 <
-11 4 4 131.08 96.34 27.81 o
-10 4 4 2131.47 1987.72 99.98 o
-9 4 4 221.95 175.60 36.36 o
-8 4 4 17921.40 17520.70 431.36 o
-7 4 4 418.07 437.90 22.72 o
-6 4 4 1816.30 1762.50 39.63 o
-5 4 4 26.04 14.91 14.91 <
-4 4 4 5445.55 5379.85 144.88 o
-3 4 4 2645.42 2504.52 75.26 o
-2 4 4 736.44 795.09 43.08 o
-1 4 4 2552.27 2502.88 63.62 o
0 4 4 5387.17 5425.30 108.34 o
1 4 4 21.82 45.26 38.54 <
2 4 4 1928.56 2322.19 336.83 o
3 4 4 353.50 294.66 35.99 o
4 4 4 17949.70 17644.70 383.37 o
5 4 4 233.08 265.39 34.54 o
6 4 4 2088.52 2182.23 86.71 o
7 4 4 112.44 86.34 36.17 <
8 4 4 136.20 106.34 49.26 <
9 4 4 84.35 54.35 35.99 <
-11 5 4 105.54 70.35 27.63 <
-10 5 4 249.22 207.59 44.35 o
-9 5 4 119.52 84.34 29.63 <
-8 5 4 169.56 144.51 27.27 o
-7 5 4 210.03 155.42 28.72 o
-6 5 4 3153.57 3140.37 89.07 o
-5 5 4 66.77 69.80 24.18 <
-4 5 4 5474.33 5307.87 147.42 o
-3 5 4 66.16 78.53 22.72 o
-2 5 4 0.61 11.82 14.72 <
-1 5 4 71.41 101.07 22.54 o
0 5 4 5492.66 5353.50 109.43 o
1 5 4 55.41 36.54 20.00 <
2 5 4 3134.51 3210.72 91.98 o
3 5 4 221.77 198.50 32.17 o
4 5 4 156.08 175.41 21.27 o
5 5 4 133.41 107.25 40.90 <
6 5 4 266.44 370.10 55.26 o
7 5 4 89.21 108.70 57.26 <
-7 6 4 270.04 273.03 66.53 o
-6 6 4 113.30 96.16 91.07 <
-5 6 4 67.54 125.61 40.54 o
-4 6 4 2360.48 2127.87 97.25 o
-3 6 4 75.58 83.44 33.27 <
-2 6 4 667.86 568.41 126.52 o
-1 6 4 67.00 -3.27 35.08 <
0 6 4 2351.78 2091.34 137.42 o
1 6 4 55.87 97.43 55.99 <
2 6 4 98.65 99.07 43.81 <
3 6 4 224.77 114.70 31.08 o
-16 1 5 185.58 142.69 46.90 o
-15 1 5 406.84 486.80 85.25 o
-14 1 5 97.69 109.97 36.90 <
-13 1 5 110.47 73.62 29.81 <
-12 1 5 371.79 347.19 47.63 o
-11 1 5 163.91 152.33 31.45 o
-10 1 5 205.45 195.77 23.45 o
-9 1 5 240.05 231.22 25.81 o
-8 1 5 84.00 89.62 15.63 o
-7 1 5 588.21 540.78 21.63 o
-6 1 5 1588.50 1554.19 38.90 o
-5 1 5 292.51 298.30 21.45 o
-4 1 5 2001.04 1950.46 50.17 o
-3 1 5 6195.22 6178.40 264.30 o
-2 1 5 5336.65 5610.71 102.89 o
-1 1 5 2375.45 2447.07 55.26 o
0 1 5 316.17 266.85 30.72 o
1 1 5 1631.13 1715.06 93.43 o
2 1 5 596.72 618.04 39.99 o
3 1 5 71.37 41.63 19.09 <
4 1 5 202.08 181.78 51.99 o
5 1 5 220.49 225.04 34.17 o
6 1 5 188.47 147.06 41.26 o
7 1 5 321.08 421.90 155.60 <
8 1 5 119.77 69.62 30.72 <
9 1 5 118.27 114.34 42.17 <
10 1 5 364.39 311.38 51.08 o
11 1 5 191.11 97.61 40.72 <
-16 2 5 402.31 414.99 54.71 o
-15 2 5 518.25 534.42 76.35 o
-14 2 5 220.62 227.22 58.71 o
-13 2 5 215.43 185.41 47.26 o
-12 2 5 357.47 300.11 40.17 o
-11 2 5 197.33 154.87 41.44 o
-10 2 5 165.52 120.15 34.17 o
-9 2 5 50.73 60.90 21.81 <
-8 2 5 698.44 729.65 99.07 o
-7 2 5 1397.47 1296.79 57.99 o
-6 2 5 1652.73 1564.19 55.26 o
-5 2 5 1522.65 1416.95 55.26 o
-4 2 5 1335.68 1255.89 51.08 o
-3 2 5 288.05 297.39 36.36 o
-2 2 5 304.56 242.49 30.36 o
-1 2 5 1337.02 1338.60 33.63 o
0 2 5 1807.41 1857.94 54.53 o
1 2 5 1364.89 1404.77 85.25 o
2 2 5 1456.82 1458.94 141.06 o
3 2 5 770.41 811.45 104.52 o
4 2 5 59.81 40.35 17.09 <
5 2 5 138.08 140.51 27.81 o
6 2 5 238.30 208.50 32.72 o
7 2 5 300.68 294.84 33.27 o
8 2 5 256.69 245.40 42.54 o
9 2 5 186.85 166.14 37.26 o
10 2 5 474.94 391.18 45.81 o
11 2 5 470.91 430.81 59.99 o
-15 3 5 1060.81 901.97 92.34 o
-14 3 5 594.36 612.41 61.08 o
-13 3 5 6.33 -11.82 35.81 <
-12 3 5 894.04 861.62 101.43 o
-11 3 5 1041.63 916.88 100.16 o
-10 3 5 531.84 474.07 62.35 o
-9 3 5 480.39 480.80 57.80 o
-8 3 5 363.32 312.29 36.17 o
-7 3 5 1674.12 1587.64 58.90 o
-6 3 5 2924.41 2595.58 128.33 o
-5 3 5 1484.44 1575.64 125.06 o
-4 3 5 3416.46 3385.40 114.16 o
-3 3 5 5754.85 5957.36 159.78 o
-2 3 5 5569.01 5549.63 162.51 o
-1 3 5 3379.63 3322.69 120.70 o
0 3 5 1242.80 1289.52 56.35 o
1 3 5 3515.77 3510.83 113.25 o
2 3 5 1435.14 1350.60 43.81 o
3 3 5 379.45 338.29 43.08 o
4 3 5 521.73 517.15 32.72 o
5 3 5 455.90 413.18 40.90 o
6 3 5 1037.75 943.06 51.81 o
7 3 5 941.93 949.96 55.81 o
8 3 5 5.43 9.27 23.27 <
9 3 5 592.34 510.97 59.44 o
10 3 5 1072.98 1140.28 113.97 o
-13 4 5 494.92 263.39 57.80 o
-12 4 5 1295.73 1059.03 101.98 o
-11 4 5 1786.95 1686.70 160.51 o
-10 4 5 678.04 580.05 45.26 o
-9 4 5 26.02 8.00 23.09 <
-8 4 5 3722.81 3447.93 194.68 o
-7 4 5 5422.03 5273.51 309.02 o
-6 4 5 2800.76 3066.39 126.70 o
-5 4 5 905.75 1059.39 99.25 o
-4 4 5 1560.66 1598.91 79.07 o
-3 4 5 457.82 518.79 40.90 o
-2 4 5 378.77 422.99 45.08 o
-1 4 5 1863.22 1762.69 61.26 o
0 4 5 978.35 915.43 36.17 o
1 4 5 2452.73 2364.73 92.34 o
2 4 5 5448.23 5562.18 258.49 o
3 4 5 3952.70 3748.77 128.15 o
4 4 5 21.64 30.36 23.09 <
5 4 5 675.73 796.54 84.89 o
6 4 5 1853.65 1721.42 84.53 o
7 4 5 1175.63 1072.30 71.80 o
8 4 5 594.30 685.66 45.63 o
-11 5 5 957.11 1054.12 171.41 o
-10 5 5 1589.35 1661.80 119.61 o
-9 5 5 1055.70 1144.28 126.33 o
-8 5 5 740.33 934.15 84.34 o
-7 5 5 433.10 432.26 98.70 o
-6 5 5 721.61 710.75 101.61 o
-5 5 5 228.78 169.60 26.36 o
-4 5 5 2460.54 2485.43 67.08 o
-3 5 5 3765.32 3829.48 156.15 o
-2 5 5 3623.58 3561.36 259.94 o
-1 5 5 2497.00 2665.75 130.15 o
0 5 5 204.96 215.40 21.09 o
1 5 5 844.25 802.54 46.90 o
2 5 5 505.76 478.98 74.16 o
3 5 5 621.35 637.67 64.17 o
4 5 5 1278.34 1357.14 77.25 o
5 5 5 1320.09 1202.45 99.43 o
6 5 5 1022.53 1359.87 261.21 o
-7 6 5 3630.61 4044.34 183.41 o
-6 6 5 1821.99 2146.60 109.61 o
-5 6 5 589.52 810.90 81.07 o
-4 6 5 428.64 353.92 80.71 o
-3 6 5 82.14 89.43 90.52 <
-2 6 5 73.92 28.90 41.08 <
-1 6 5 479.27 299.39 301.02 <
0 6 5 701.26 644.94 77.44 o
1 6 5 1676.02 2039.89 110.52 o
2 6 5 3588.38 4041.62 230.31 o
-17 0 6 1017.53 794.73 131.97 o
-16 0 6 4274.77 4571.86 270.48 o
-15 0 6 601.44 732.20 105.25 o
-14 0 6 127.72 202.13 69.07 <
-13 0 6 133.02 142.88 58.53 <
-12 0 6 9648.45 10351.30 272.48 o
-11 0 6 5537.48 5679.24 160.33 o
-10 0 6 954.00 905.07 47.63 o
-9 0 6 13939.00 14375.60 437.35 o
-8 0 6 3035.07 2984.04 97.43 o
-7 0 6 10.59 -5.45 19.63 <
-6 0 6 3.12 1.27 12.91 <
-5 0 6 6081.51 6265.83 125.97 o
-4 0 6 28.76 18.72 16.36 <
-3 0 6 653.03 854.17 41.08 o
-2 0 6 31.70 21.81 19.63 <
-1 0 6 6141.41 6431.43 225.40 o
0 0 6 3.03 44.35 21.45 <
1 0 6 10.72 -3.45 45.44 <
2 0 6 3119.52 2986.22 181.23 o
3 0 6 13975.30 14569.00 564.60 o
4 0 6 938.46 979.78 62.71 o
5 0 6 5691.01 5806.66 306.29 o
6 0 6 9728.96 10029.10 573.69 o
7 0 6 129.96 111.61 51.99 <
8 0 6 126.61 153.06 61.62 <
9 0 6 631.36 718.38 97.61 o
10 0 6 4187.81 4492.42 256.12 o
11 0 6 951.88 970.32 102.52 o
-16 1 6 7.39 15.27 30.72 <
-15 1 6 1682.16 1663.80 193.23 o
-14 1 6 239.34 215.95 52.53 o
-13 1 6 4867.71 4939.05 129.97 o
-12 1 6 2339.02 2432.53 81.98 o
-11 1 6 20.28 24.18 21.99 <
-10 1 6 2425.18 2643.21 63.99 o
-9 1 6 436.50 478.80 26.18 o
-8 1 6 1771.08 1789.77 43.44 o
-7 1 6 5663.55 5763.04 175.05 o
-6 1 6 20729.70 22467.90 469.71 o
-5 1 6 4333.34 4301.01 74.71 o
-4 1 6 2612.03 2561.41 44.90 o
-3 1 6 0.07 13.27 10.91 <
-2 1 6 2647.99 2595.04 49.81 o
-1 1 6 4363.99 4245.93 72.17 o
0 1 6 20602.60 21894.80 433.90 o
1 1 6 5698.11 6383.26 324.11 o
2 1 6 1726.97 1921.56 93.43 o
3 1 6 405.11 508.07 37.81 o
4 1 6 2386.62 2424.72 80.53 o
5 1 6 18.78 54.53 26.90 <
6 1 6 2315.56 2471.07 90.16 o
7 1 6 4806.50 4811.80 135.60 o
8 1 6 242.48 229.76 36.54 o
9 1 6 1724.36 1727.78 84.53 o
10 1 6 8.47 -24.36 36.90 <
-16 2 6 4253.65 4317.19 168.51 o
-15 2 6 975.82 1054.85 95.98 o
-14 2 6 652.81 796.54 104.16 o
-13 2 6 117.12 83.62 32.36 <
-12 2 6 1992.57 2037.89 93.61 o
-11 2 6 1098.03 1026.85 77.07 o
-10 2 6 286.80 266.67 38.54 o
-9 2 6 3010.66 2934.96 99.61 o
-8 2 6 285.65 248.12 29.27 o
-7 2 6 41.91 31.63 15.45 <
-6 2 6 4776.76 4967.58 144.88 o
-5 2 6 7276.69 7489.55 226.86 o
-4 2 6 3048.70 3085.29 86.53 o
-3 2 6 2637.06 2662.66 75.07 o
-2 2 6 3157.82 3049.48 53.99 o
-1 2 6 7269.70 7277.96 122.34 o
0 2 6 4822.64 4812.17 89.80 o
1 2 6 37.75 55.44 19.45 <
2 2 6 295.91 279.57 30.90 o
3 2 6 2956.10 3113.10 155.96 o
4 2 6 265.49 247.58 49.26 o
5 2 6 1100.30 1083.39 61.62 o
6 2 6 2015.99 1941.55 72.17 o
7 2 6 101.78 139.79 34.72 o
8 2 6 648.41 600.04 154.69 o
9 2 6 1041.01 1040.67 59.08 o
10 2 6 4216.94 4587.13 178.87 o
-15 3 6 1407.79 1555.28 133.06 o
-14 3 6 321.81 391.00 63.99 o
-13 3 6 1948.60 1864.84 83.98 o
-12 3 6 1256.58 1172.28 80.35 o
-11 3 6 121.18 73.80 27.08 <
-10 3 6 222.79 170.14 32.17 o
-9 3 6 16.43 8.91 17.09 <
-8 3 6 1582.96 1585.82 56.17 o
-7 3 6 1724.61 1731.24 49.62 o
-6 3 6 3575.52 3666.07 152.87 o
-5 3 6 4937.17 4860.34 183.23 o
-4 3 6 36.28 81.62 29.81 <
-3 3 6 0.35 -18.72 31.63 <
-2 3 6 36.26 14.54 24.54 <
-1 3 6 4985.07 4810.89 127.97 o
0 3 6 3578.24 3436.12 71.80 o
1 3 6 1759.87 1673.25 54.90 o
2 3 6 1586.94 1648.71 46.35 o
3 3 6 18.82 9.82 21.63 <
4 3 6 198.81 218.68 33.99 o
5 3 6 118.82 107.97 32.90 o
6 3 6 1203.79 1168.09 65.98 o
7 3 6 1916.19 1775.59 77.80 o
8 3 6 325.42 374.82 46.72 o
9 3 6 1448.18 1296.43 78.89 o
-13 4 6 591.95 602.77 46.53 o
-12 4 6 823.80 763.82 55.26 o
-11 4 6 949.71 914.15 62.17 o
-10 4 6 1967.79 2162.96 69.07 o
-9 4 6 1451.40 1350.78 57.80 o
-8 4 6 3231.32 3194.90 78.71 o
-7 4 6 245.47 242.67 40.90 o
-6 4 6 211.50 236.49 64.35 o
-5 4 6 568.24 674.21 155.60 o
-4 4 6 156.10 212.13 68.71 o
-3 4 6 90.92 81.44 43.26 <
-2 4 6 170.54 161.60 34.17 o
-1 4 6 520.09 482.62 32.54 o
0 4 6 234.88 262.48 24.90 o
1 4 6 262.70 267.03 37.08 o
2 4 6 3164.40 3161.09 123.61 o
3 4 6 1455.85 1323.51 51.81 o
4 4 6 1970.82 2230.58 112.34 o
5 4 6 979.89 1004.86 59.26 o
6 4 6 888.88 785.64 56.53 o
7 4 6 564.00 516.24 85.98 o
-11 5 6 15.52 -14.00 44.72 <
-10 5 6 117.11 157.60 51.08 o
-9 5 6 54.89 82.16 54.35 <
-8 5 6 3.77 7.45 47.63 <
-7 5 6 730.96 769.64 99.61 o
-6 5 6 518.57 460.26 43.26 o
-5 5 6 304.12 409.91 90.89 o
-4 5 6 201.96 253.40 57.62 o
-3 5 6 0.71 28.72 49.08 <
-2 5 6 176.19 161.60 61.08 <
-1 5 6 312.20 214.50 54.71 o
0 5 6 491.52 460.62 31.27 o
1 5 6 729.44 677.48 37.99 o
2 5 6 3.90 33.27 20.90 <
3 5 6 45.48 21.81 24.90 <
4 5 6 137.54 171.23 46.53 o
5 5 6 18.17 43.26 35.08 <
-7 6 6 173.20 307.38 58.90 o
-6 6 6 682.93 864.16 86.71 o
-5 6 6 359.63 187.41 133.06 <
-4 6 6 585.59 642.22 81.80 o
-3 6 6 6.21 0.91 47.44 <
-2 6 6 618.35 536.60 59.62 o
-1 6 6 336.10 206.86 63.44 o
0 6 6 751.31 902.16 72.53 o
1 6 6 171.76 241.40 56.71 o
-17 1 7 153.84 145.06 52.35 <
-16 1 7 162.33 146.51 40.54 o
-15 1 7 70.44 67.62 39.63 <
-14 1 7 63.68 46.90 25.99 <
-13 1 7 130.99 95.98 27.81 o
-12 1 7 60.40 47.99 20.90 <
-11 1 7 311.23 257.94 24.18 o
-10 1 7 470.82 452.99 30.36 o
-9 1 7 95.16 69.98 18.90 o
-8 1 7 176.72 175.05 27.08 o
-7 1 7 1932.71 1929.92 48.72 o
-6 1 7 1262.33 1299.16 35.45 o
-5 1 7 732.65 714.93 20.00 o
-4 1 7 1507.13 1442.21 51.08 o
-3 1 7 1250.75 1207.00 28.36 o
-2 1 7 788.68 798.00 55.81 o
-1 1 7 1528.07 1457.85 49.99 o
0 1 7 1621.10 1745.42 108.88 o
1 1 7 197.97 204.86 35.81 o
2 1 7 100.17 120.88 26.72 o
3 1 7 497.77 466.62 49.26 o
4 1 7 275.65 208.86 39.26 o
5 1 7 51.18 172.32 72.35 <
6 1 7 110.95 72.35 38.54 <
7 1 7 75.53 61.99 32.36 <
8 1 7 67.24 37.99 28.18 <
9 1 7 144.60 47.99 39.81 <
10 1 7 152.63 142.69 50.90 <
-16 2 7 136.36 103.79 42.90 <
-15 2 7 629.03 584.23 57.44 o
-14 2 7 1098.46 1096.29 64.17 o
-13 2 7 906.97 974.87 78.53 o
-12 2 7 500.24 442.99 45.81 o
-11 2 7 55.12 50.90 27.45 <
-10 2 7 41.37 21.63 22.90 <
-9 2 7 70.95 53.08 18.72 <
-8 2 7 258.31 245.04 46.17 o
-7 2 7 2082.59 2016.45 148.69 o
-6 2 7 2737.01 2788.09 106.34 o
-5 2 7 2907.47 2774.45 68.89 o
-4 2 7 633.18 639.31 43.08 o
-3 2 7 725.57 648.03 38.72 o
-2 2 7 2413.56 2187.68 71.44 o
-1 2 7 3310.14 3169.09 98.16 o
0 2 7 1719.72 1600.54 58.17 o
1 2 7 306.82 273.39 26.90 o
2 2 7 70.50 60.71 26.18 <
3 2 7 44.24 39.26 28.54 <
4 2 7 63.24 59.08 25.09 <
5 2 7 585.91 546.60 155.24 o
6 2 7 762.26 770.55 56.71 o
7 2 7 1322.69 1388.04 77.07 o
8 2 7 531.12 427.72 120.34 o
9 2 7 115.06 95.98 42.72 <
-15 3 7 82.77 37.99 35.26 <
-14 3 7 5.12 29.08 30.36 <
-13 3 7 115.78 55.26 35.99 <
-12 3 7 452.08 363.55 55.62 o
-11 3 7 3000.11 2879.88 176.32 o
-10 3 7 3155.83 3018.76 207.04 o
-9 3 7 2844.57 2807.90 143.06 o
-8 3 7 682.74 727.11 56.90 o
-7 3 7 1158.89 975.41 80.35 o
-6 3 7 1254.24 1232.44 69.07 o
-5 3 7 170.16 181.41 66.35 <
-4 3 7 106.48 117.97 32.72 o
-3 3 7 90.53 75.62 38.90 <
-2 3 7 155.81 133.79 30.54 o
-1 3 7 1443.40 1395.68 62.71 o
0 3 7 1004.54 901.43 48.35 o
1 3 7 691.07 684.75 49.44 o
2 3 7 2356.70 2435.44 229.04 o
3 3 7 3770.15 3702.60 334.83 o
4 3 7 2570.34 2716.10 298.84 o
5 3 7 508.34 403.73 71.26 o
6 3 7 139.99 149.06 33.45 o
7 3 7 5.01 13.27 27.27 <
8 3 7 88.53 90.16 36.90 <
-14 4 7 2168.78 2318.01 156.87 o
-13 4 7 1017.35 1044.31 116.15 o
-12 4 7 378.57 278.48 61.44 o
-11 4 7 52.21 19.63 18.54 <
-10 4 7 123.01 109.61 28.90 o
-9 4 7 242.43 172.51 35.99 o
-8 4 7 331.10 358.10 64.17 o
-7 4 7 2476.93 2832.44 169.78 o
-6 4 7 5008.39 4907.78 180.69 o
-5 4 7 5767.86 5579.81 195.96 o
-4 4 7 1208.78 1265.35 71.98 o
-3 4 7 1461.62 1411.31 90.89 o
-2 4 7 4808.30 4859.61 276.12 o
-1 4 7 6042.33 6164.58 201.95 o
0 4 7 2080.96 2307.83 105.61 o
1 4 7 311.86 314.84 44.72 o
2 4 7 283.06 235.76 35.63 o
3 4 7 141.40 165.05 39.45 o
4 4 7 47.41 31.45 25.99 <
5 4 7 399.07 411.36 61.08 o
6 4 7 848.95 875.43 74.16 o
7 4 7 2609.62 2255.30 148.69 o
-11 5 7 1887.20 2244.94 146.88 o
-10 5 7 2414.98 2395.45 162.87 o
-9 5 7 2337.46 2677.02 137.24 o
-8 5 7 430.35 607.68 95.61 o
-7 5 7 1305.99 1388.95 86.16 o
-6 5 7 1849.71 1871.02 127.61 o
-5 5 7 1360.61 1345.33 109.79 o
-4 5 7 1002.47 1347.51 217.95 o
-3 5 7 1200.03 1367.69 225.58 o
-2 5 7 1171.53 1286.25 121.79 o
-1 5 7 2233.00 2385.09 104.89 o
0 5 7 1108.59 1176.64 101.07 o
1 5 7 497.85 646.40 63.62 o
2 5 7 1949.60 2158.41 121.25 o
3 5 7 2919.34 3173.09 254.85 o
4 5 7 1613.65 1542.19 220.49 o
-6 6 7 2407.85 2599.77 160.51 o
-5 6 7 2837.80 3148.19 191.77 o
-4 6 7 507.34 378.46 92.52 o
-3 6 7 588.96 756.55 91.43 o
-2 6 7 2342.71 2415.99 158.51 o
-1 6 7 2897.43 2893.70 170.87 o
-17 0 8 1562.92 1813.22 263.58 o
-16 0 8 11845.20 12706.50 450.44 o
-15 0 8 187.11 258.85 71.26 o
-14 0 8 1068.11 1157.55 70.71 o
-13 0 8 3794.69 4076.52 167.42 o
-12 0 8 12833.90 13218.20 432.81 o
-11 0 8 102.85 123.97 38.90 o
-10 0 8 187.61 251.58 39.08 o
-9 0 8 5329.77 5270.06 192.50 o
-8 0 8 6246.53 6158.95 173.96 o
-7 0 8 1574.96 1662.34 42.17 o
-6 0 8 1559.90 1483.66 51.99 o
-5 0 8 5108.23 5071.20 109.79 o
-4 0 8 103119.00 107505.00 4608.03 o
-3 0 8 5127.70 5231.89 139.60 o
-2 0 8 1506.34 1503.47 54.35 o
-1 0 8 1639.45 1756.32 74.71 o
0 0 8 6209.56 6200.94 188.87 o
1 0 8 5410.84 5558.72 157.78 o
2 0 8 212.52 176.14 46.90 o
3 0 8 100.77 153.78 40.54 o
4 0 8 12787.60 12895.80 535.88 o
5 0 8 3848.24 4061.61 184.68 o
6 0 8 981.27 1023.22 77.62 o
7 0 8 208.80 211.22 52.72 o
8 0 8 11839.00 12383.70 495.34 o
9 0 8 1490.82 1782.68 121.43 o
-17 1 8 4.70 -16.18 32.54 <
-16 1 8 1239.71 1356.96 72.89 o
-15 1 8 2265.75 2344.19 95.98 o
-14 1 8 1200.93 1177.18 46.72 o
-13 1 8 2250.83 2358.55 66.89 o
-12 1 8 19499.30 20701.20 509.52 o
-11 1 8 241.65 233.04 24.36 o
-10 1 8 2668.18 2633.03 70.17 o
-9 1 8 4133.68 4292.83 117.06 o
-8 1 8 41424.60 41719.50 1014.49 o
-7 1 8 7676.94 7930.54 134.15 o
-6 1 8 3127.33 3206.54 49.99 o
-5 1 8 13.49 16.00 11.09 <
-4 1 8 9.09 23.63 13.09 <
-3 1 8 12.11 14.36 12.00 <
-2 1 8 3197.50 3331.23 65.26 o
-1 1 8 7662.24 7729.50 140.70 o
0 1 8 41435.70 44102.80 2083.16 o
1 1 8 4162.76 4173.77 107.79 o
2 1 8 2633.33 2721.74 171.78 o
3 1 8 216.65 237.40 31.81 o
4 1 8 19637.60 20117.00 491.70 o
5 1 8 2261.30 2304.56 103.61 o
6 1 8 1227.52 1111.74 63.99 o
7 1 8 2366.75 2348.37 172.14 o
8 1 8 1255.04 1289.70 69.44 o
9 1 8 4.23 -4.36 34.72 <
-16 2 8 6760.87 7067.28 207.23 o
-15 2 8 355.88 362.46 50.72 o
-14 2 8 1090.43 1190.64 48.90 o
-13 2 8 686.84 736.19 62.17 o
-12 2 8 14101.10 14426.90 481.71 o
-11 2 8 243.27 287.02 29.63 o
-10 2 8 2001.91 1940.83 106.34 o
-9 2 8 1740.60 1592.00 65.44 o
-8 2 8 6826.99 6662.83 227.22 o
-7 2 8 498.78 480.07 25.27 o
-6 2 8 103.82 96.89 31.45 o
-5 2 8 6084.95 7447.92 587.14 o
-4 2 8 47187.40 46823.40 1388.95 o
-3 2 8 6210.44 6109.50 101.43 o
-2 2 8 89.81 77.07 17.81 o
-1 2 8 507.96 550.60 27.27 o
0 2 8 6908.34 6866.06 135.97 o
1 2 8 1742.25 1783.41 60.53 o
2 2 8 2097.86 2233.49 163.78 o
3 2 8 220.33 235.95 35.63 o
4 2 8 14007.50 13966.10 431.90 o
5 2 8 683.23 606.77 49.99 o
6 2 8 1023.50 1187.73 63.62 o
7 2 8 340.98 296.84 73.98 o
8 2 8 6710.65 6602.12 199.77 o
-15 3 8 1245.40 1208.27 128.88 o
-14 3 8 946.00 986.14 88.53 o
-13 3 8 1515.41 1520.38 86.16 o
-12 3 8 9419.57 9543.08 323.93 o
-11 3 8 27.66 40.90 22.72 <
-10 3 8 1965.22 1929.19 69.98 o
-9 3 8 3614.89 3548.82 105.98 o
-8 3 8 18698.60 18870.20 724.38 o
-7 3 8 1074.85 1028.13 49.26 o
-6 3 8 737.78 746.74 73.44 o
-5 3 8 717.74 704.57 73.07 o
-4 3 8 0.37 -51.26 34.72 <
-3 3 8 717.71 786.91 51.99 o
-2 3 8 758.54 744.01 49.81 o
-1 3 8 1057.19 944.51 40.35 o
0 3 8 18664.20 18395.00 367.01 o
1 3 8 3705.30 3618.99 87.62 o
2 3 8 1896.45 1924.47 70.35 o
3 3 8 31.17 51.62 23.45 <
4 3 8 9538.24 10293.60 804.72 o
5 3 8 1529.05 1403.68 70.71 o
6 3 8 967.72 936.69 66.35 o
7 3 8 1272.36 1201.36 69.26 o
-14 4 8 45.34 -8.54 42.54 <
-13 4 8 323.18 357.92 113.07 o
-12 4 8 3450.20 3361.23 186.32 o
-11 4 8 1132.02 1248.26 87.07 o
-10 4 8 551.28 482.43 130.15 o
-9 4 8 2830.38 2938.96 126.70 o
-8 4 8 777.48 775.82 75.26 o
-7 4 8 7.18 38.17 47.26 <
-6 4 8 965.45 799.09 136.51 o
-5 4 8 1053.66 1113.02 105.79 o
-4 4 8 19365.20 18066.40 678.93 o
-3 4 8 1136.82 1115.56 110.52 o
-2 4 8 883.80 883.07 69.80 o
-1 4 8 7.66 -0.73 21.99 <
0 4 8 796.41 752.92 49.99 o
1 4 8 2891.98 2767.91 88.89 o
2 4 8 575.51 606.95 49.99 o
3 4 8 1098.43 1199.72 83.44 o
4 4 8 3414.32 3684.79 369.37 o
5 4 8 353.65 339.38 46.35 o
6 4 8 45.70 64.35 48.35 <
-11 5 8 134.00 205.77 63.08 o
-10 5 8 356.20 342.47 69.80 o
-9 5 8 155.44 149.06 47.99 o
-8 5 8 3249.80 3038.57 137.06 o
-7 5 8 243.23 274.12 51.44 o
-6 5 8 666.01 713.11 85.62 o
-5 5 8 18.20 -7.82 83.80 <
-4 5 8 32.48 54.71 52.35 <
-3 5 8 21.29 77.80 65.08 <
-2 5 8 704.85 732.56 54.17 o
-1 5 8 211.01 207.77 53.81 o
0 5 8 3248.59 3085.11 146.51 o
1 5 8 175.48 132.51 55.26 <
2 5 8 337.36 276.12 71.07 o
3 5 8 153.83 299.02 119.43 <
-4 6 8 1916.67 1632.53 155.78 o
-3 6 8 966.03 813.27 109.43 o
-17 1 9 113.67 80.35 49.62 <
-16 1 9 83.28 104.52 63.62 <
-15 1 9 81.48 67.26 44.17 <
-14 1 9 121.06 54.53 24.72 <
-13 1 9 3.35 25.81 23.81 <
-12 1 9 250.47 264.67 29.99 o
-11 1 9 573.01 657.30 46.35 o
-10 1 9 309.16 246.85 31.08 o
-9 1 9 404.81 400.64 28.36 o
-8 1 9 1296.90 1258.80 49.81 o
-7 1 9 805.36 805.45 26.90 o
-6 1 9 292.45 272.85 36.54 o
-5 1 9 268.90 285.21 25.09 o
-4 1 9 228.17 275.94 25.27 o
-3 1 9 270.98 320.29 33.45 o
-2 1 9 975.73 1001.77 55.99 o
-1 1 9 1079.98 1047.40 38.17 o
0 1 9 403.04 427.17 56.71 o
1 1 9 372.51 377.19 37.81 o
2 1 9 524.86 514.24 42.17 o
3 1 9 262.98 288.30 55.44 o
4 1 9 2.92 -42.54 28.54 <
5 1 9 108.44 91.43 38.90 <
6 1 9 98.40 29.63 52.53 <
7 1 9 86.32 72.17 41.44 <
8 1 9 96.86 106.89 52.53 <
-16 2 9 439.09 418.27 112.88 o
-15 2 9 1027.51 960.33 78.53 o
-14 2 9 997.40 891.25 105.43 o
-13 2 9 623.36 569.69 63.44 o
-12 2 9 409.34 430.08 51.08 o
-11 2 9 320.16 248.12 38.90 o
-10 2 9 484.59 496.98 42.17 o
-9 2 9 835.77 865.62 65.62 o
-8 2 9 1050.00 971.41 66.35 o
-7 2 9 799.12 812.36 103.25 o
-6 2 9 634.17 641.49 67.26 o
-5 2 9 214.99 227.58 33.45 o
-4 2 9 195.22 172.87 38.72 o
-3 2 9 563.09 494.07 33.45 o
-2 2 9 966.32 912.34 36.36 o
-1 2 9 875.89 785.82 45.08 o
0 2 9 899.05 849.08 49.26 o
1 2 9 407.85 409.36 52.90 o
2 2 9 303.19 305.02 71.80 o
3 2 9 468.69 660.21 48.90 o
4 2 9 747.48 727.65 52.53 o
5 2 9 826.91 671.12 53.62 o
6 2 9 1117.07 1102.66 77.98 o
7 2 9 445.20 530.24 106.34 o
-15 3 9 170.51 187.96 44.35 o
-14 3 9 574.13 565.14 63.99 o
-13 3 9 884.23 688.21 95.98 o
-12 3 9 1227.12 1239.71 139.24 o
-11 3 9 1649.75 1737.42 104.70 o
-10 3 9 1815.00 1883.02 103.61 o
-9 3 9 450.69 440.99 111.97 o
-8 3 9 1034.99 1131.19 69.62 o
-7 3 9 1066.59 974.14 102.89 o
-6 3 9 128.94 76.71 29.27 <
-5 3 9 95.90 114.34 35.26 o
-4 3 9 115.43 153.06 36.17 o
-3 3 9 121.64 126.52 32.90 o
-2 3 9 952.53 1002.50 59.62 o
-1 3 9 1217.09 1135.92 87.62 o
0 3 9 514.30 488.61 38.90 o
1 3 9 1582.91 1480.75 119.06 o
2 3 9 1872.25 1670.34 123.43 o
3 3 9 1027.31 1030.49 143.06 o
4 3 9 823.94 1000.32 149.60 o
5 3 9 680.22 654.94 86.16 o
6 3 9 144.79 73.98 37.08 <
-13 4 9 280.35 330.47 63.08 o
-12 4 9 556.55 579.14 75.62 o
-11 4 9 347.74 311.38 56.71 o
-10 4 9 208.72 229.58 75.80 o
-9 4 9 918.17 1075.93 87.80 o
-8 4 9 1169.41 1270.44 108.16 o
-7 4 9 2547.73 2492.70 166.51 o
-6 4 9 2637.98 2697.74 147.24 o
-5 4 9 901.09 942.87 183.23 o
-4 4 9 884.96 863.62 54.53 o
-3 4 9 2343.40 2367.27 105.98 o
-2 4 9 3008.44 3133.28 141.06 o
-1 4 9 975.10 985.96 72.71 o
0 4 9 822.88 828.54 64.53 o
1 4 9 218.28 249.03 53.08 o
2 4 9 346.37 311.57 72.89 o
3 4 9 670.66 532.79 62.53 o
4 4 9 298.64 255.76 65.62 o
-11 5 9 1440.17 1603.45 112.52 o
-10 5 9 1831.64 1985.00 133.61 o
-9 5 9 668.48 724.56 154.15 o
-8 5 9 415.74 397.00 50.53 o
-7 5 9 752.03 704.38 92.52 o
-6 5 9 1408.74 1585.64 98.16 o
-5 5 9 2018.34 2238.94 170.32 o
-4 5 9 2378.04 2506.88 179.05 o
-3 5 9 1176.24 1300.25 86.71 o
-2 5 9 815.35 945.60 76.53 o
-1 5 9 464.94 440.81 59.80 o
0 5 9 701.95 746.74 105.25 o
1 5 9 1709.76 2056.25 135.42 o
2 5 9 1488.57 1902.65 231.95 o
-17 0 10 504.23 544.42 99.07 o
-16 0 10 658.56 629.85 109.25 o
-15 0 10 728.04 827.99 59.44 o
-14 0 10 728.84 796.73 73.98 o
-13 0 10 988.03 948.51 72.89 o
-12 0 10 9916.09 10230.60 334.83 o
-11 0 10 584.74 630.40 56.71 o
-10 0 10 216.15 199.41 37.99 o
-9 0 10 520.18 464.08 79.44 o
-8 0 10 2542.11 2686.29 74.35 o
-7 0 10 23.40 22.36 22.36 <
-6 0 10 3992.91 4436.25 403.91 o
-5 0 10 18576.20 18377.40 481.16 o
-4 0 10 3902.42 3800.04 105.25 o
-3 0 10 24.82 63.44 36.36 <
-2 0 10 2489.99 2665.93 101.98 o
-1 0 10 487.89 527.52 54.53 o
0 0 10 218.25 217.59 66.35 o
1 0 10 565.90 612.77 54.17 o
2 0 10 10022.00 10430.90 348.28 o
3 0 10 933.48 988.86 69.80 o
4 0 10 696.85 854.35 122.15 o
5 0 10 682.37 872.71 85.07 o
6 0 10 671.51 784.73 83.62 o
7 0 10 499.21 570.05 76.89 o
-17 1 10 689.69 829.26 143.97 o
-16 1 10 2885.99 3172.54 154.51 o
-15 1 10 226.08 293.20 43.63 o
-14 1 10 2533.73 2723.92 110.34 o
-13 1 10 2175.00 2245.30 101.43 o
-12 1 10 381.36 402.45 69.07 o
-11 1 10 1460.64 1440.40 50.17 o
-10 1 10 1740.37 1773.05 92.34 o
-9 1 10 2783.25 2780.45 53.99 o
-8 1 10 13424.50 13320.40 237.40 o
-7 1 10 523.33 547.69 26.90 o
-6 1 10 6732.38 6910.41 134.88 o
-5 1 10 2.37 -2.00 17.09 <
-4 1 10 6849.20 7054.56 127.79 o
-3 1 10 528.73 556.24 31.45 o
-2 1 10 13476.20 13582.10 264.30 o
-1 1 10 2784.92 2962.23 84.89 o
0 1 10 1685.15 1705.43 91.43 o
1 1 10 1486.65 1534.92 69.62 o
2 1 10 396.99 408.09 38.90 o
3 1 10 2215.49 2306.92 79.07 o
4 1 10 2478.97 2727.19 158.69 o
5 1 10 242.62 225.22 49.99 o
6 1 10 2855.42 2867.89 101.98 o
7 1 10 661.14 707.84 71.62 o
-16 2 10 307.62 399.73 44.90 o
-15 2 10 273.85 229.76 36.72 o
-14 2 10 894.50 945.78 70.89 o
-13 2 10 2554.93 2489.79 104.34 o
-12 2 10 8818.95 8723.81 231.22 o
-11 2 10 317.53 330.11 24.18 o
-10 2 10 1137.77 1216.99 45.63 o
-9 2 10 384.62 369.55 29.81 o
-8 2 10 367.97 356.46 26.90 o
-7 2 10 187.26 183.41 17.45 o
-6 2 10 2368.77 2226.03 61.62 o
-5 2 10 4459.20 4306.83 83.62 o
-4 2 10 2321.44 2350.91 51.26 o
-3 2 10 208.87 180.87 20.00 o
-2 2 10 370.48 374.82 33.63 o
-1 2 10 394.35 385.37 40.54 o
0 2 10 1121.83 1164.10 55.26 o
1 2 10 351.68 350.28 37.45 o
2 2 10 8977.08 9483.46 474.07 o
3 2 10 2511.15 2667.75 93.61 o
4 2 10 885.28 980.68 70.35 o
5 2 10 269.92 236.13 48.72 o
6 2 10 312.78 272.30 62.53 o
-15 3 10 204.42 171.05 50.72 o
-14 3 10 1003.32 1069.21 89.43 o
-13 3 10 1302.10 1255.53 148.33 o
-12 3 10 87.06 66.53 26.72 <
-11 3 10 1986.10 1955.01 111.07 o
-10 3 10 1043.36 1100.84 72.35 o
-9 3 10 1361.47 1372.05 101.07 o
-8 3 10 4789.59 4569.31 135.60 o
-7 3 10 223.39 228.31 43.63 o
-6 3 10 2101.04 2083.88 75.98 o
-5 3 10 0.17 -23.09 28.54 <
-4 3 10 2128.60 1958.46 81.44 o
-3 3 10 224.34 245.94 45.08 o
-2 3 10 4746.73 4380.08 97.43 o
-1 3 10 1345.84 1274.43 51.08 o
0 3 10 1009.76 1068.48 60.35 o
1 3 10 1969.26 1835.58 84.89 o
2 3 10 91.38 81.07 31.27 <
3 3 10 1366.52 1502.02 179.96 o
4 3 10 984.08 1122.83 122.52 o
5 3 10 221.49 244.13 48.17 o
-13 4 10 522.97 476.62 80.89 o
-12 4 10 2354.11 2140.05 137.79 o
-11 4 10 97.64 58.53 55.26 <
-10 4 10 364.17 405.73 74.53 o
-9 4 10 18.59 45.26 45.63 <
-8 4 10 101.96 59.44 41.44 <
-7 4 10 141.73 98.70 36.17 <
-6 4 10 2857.07 3016.58 132.88 o
-5 4 10 2749.78 2478.70 172.51 o
-4 4 10 2901.94 2975.50 144.51 o
-3 4 10 128.62 87.98 51.99 <
-2 4 10 118.86 110.52 34.72 o
-1 4 10 15.78 30.54 35.81 <
0 4 10 357.73 342.29 58.90 o
1 4 10 102.34 163.42 61.08 <
2 4 10 2401.25 2171.50 129.24 o
3 4 10 474.07 450.80 42.90 o
-10 5 10 686.30 810.72 140.33 o
-9 5 10 13.41 41.08 49.44 <
-8 5 10 629.74 505.52 87.25 o
-7 5 10 21.46 -19.63 83.25 <
-6 5 10 81.83 -36.36 40.17 <
-5 5 10 42.85 98.34 44.90 <
-4 5 10 80.59 23.63 62.35 <
-3 5 10 25.31 4.00 63.80 <
-2 5 10 628.55 554.96 67.62 o
-1 5 10 12.76 -29.99 33.99 <
0 5 10 698.95 927.60 103.43 o
-17 1 11 47.22 65.44 71.44 <
-16 1 11 35.20 53.81 43.81 <
-15 1 11 436.08 439.54 53.26 o
-14 1 11 414.94 445.35 36.54 o
-13 1 11 389.15 401.54 58.53 o
-12 1 11 428.63 494.80 42.72 o
-11 1 11 175.26 161.42 30.72 o
-10 1 11 22.93 23.81 17.27 <
-9 1 11 150.01 138.33 24.54 o
-8 1 11 75.46 73.44 17.09 o
-7 1 11 239.96 224.31 29.63 o
-6 1 11 1105.89 1085.57 33.27 o
-5 1 11 922.95 933.60 58.17 o
-4 1 11 287.31 310.47 26.54 o
-3 1 11 83.84 84.71 23.27 o
-2 1 11 144.12 97.98 22.54 o
-1 1 11 23.64 4.36 18.90 <
0 1 11 208.08 209.41 31.63 o
1 1 11 381.87 343.56 54.71 o
2 1 11 386.71 425.90 38.35 o
3 1 11 490.45 442.81 46.90 o
4 1 11 360.15 280.48 48.72 o
5 1 11 41.96 -11.27 25.45 <
6 1 11 53.07 89.62 31.99 <
-16 2 11 49.63 17.63 31.99 <
-15 2 11 386.44 327.20 47.81 o
-14 2 11 808.10 750.37 71.98 o
-13 2 11 1148.14 1039.76 101.79 o
-12 2 11 176.18 140.70 40.72 o
-11 2 11 491.80 479.53 47.44 o
-10 2 11 1719.18 1688.88 122.34 o
-9 2 11 2056.86 1738.33 138.70 o
-8 2 11 1100.43 951.60 55.08 o
-7 2 11 313.62 288.84 24.54 o
-6 2 11 5.40 29.63 15.09 <
-5 2 11 5.74 9.27 17.27 <
-4 2 11 273.26 285.39 24.90 o
-3 2 11 1330.59 1317.33 66.35 o
-2 2 11 1707.78 1536.74 90.16 o
-1 2 11 2064.83 1910.47 137.06 o
0 2 11 415.01 363.01 49.62 o
1 2 11 206.91 154.69 32.72 o
2 2 11 954.39 888.52 77.25 o
3 2 11 979.07 971.78 68.53 o
4 2 11 320.23 182.50 44.90 o
5 2 11 49.02 75.62 33.81 <
-15 3 11 1208.62 1345.69 121.97 o
-14 3 11 1362.85 1364.60 112.16 o
-13 3 11 520.84 554.05 80.35 o
-12 3 11 88.22 115.06 42.54 <
-11 3 11 39.54 62.53 44.17 <
-10 3 11 130.32 145.97 47.81 o
-9 3 11 729.62 592.41 87.43 o
-8 3 11 215.25 220.86 31.63 o
-7 3 11 979.99 935.24 105.61 o
-6 3 11 1731.01 1773.59 182.14 o
-5 3 11 2069.71 2037.35 100.70 o
-4 3 11 816.91 932.70 58.35 o
-3 3 11 179.38 196.68 45.44 o
-2 3 11 856.88 918.70 65.62 o
-1 3 11 108.71 64.35 24.72 <
0 3 11 36.55 24.18 31.45 <
1 3 11 101.90 40.54 37.99 <
2 3 11 453.37 339.01 61.08 o
3 3 11 1539.41 1613.08 239.58 o
4 3 11 1047.06 978.87 153.78 o
-13 4 11 1621.86 1653.98 114.70 o
-12 4 11 176.13 168.14 53.81 o
-11 4 11 1230.62 1237.72 104.70 o
-10 4 11 3368.13 3410.67 186.32 o
-9 4 11 3085.90 3069.48 202.68 o
-8 4 11 1556.06 1547.64 119.61 o
-7 4 11 327.14 355.37 82.89 o
-6 4 11 93.38 150.15 60.90 <
-5 4 11 77.44 74.71 41.81 <
-4 4 11 305.14 325.20 55.26 o
-3 4 11 1815.91 1839.58 77.07 o
-2 4 11 2582.70 2687.93 195.77 o
-1 4 11 3803.79 3939.64 209.23 o
0 4 11 1059.03 1290.61 111.25 o
1 4 11 212.29 185.96 53.99 o
2 4 11 1403.70 1318.79 147.97 o
-9 5 11 554.73 539.69 75.26 o
-8 5 11 55.67 68.35 75.44 <
-7 5 11 1059.73 1262.26 203.41 o
-6 5 11 2170.63 2128.60 350.65 o
-5 5 11 2537.54 2663.75 144.88 o
-4 5 11 912.85 967.60 93.61 o
-3 5 11 54.19 71.07 62.71 <
-2 5 11 461.46 648.03 64.53 o
-17 0 12 248.70 278.66 77.07 o
-16 0 12 112.28 40.90 53.08 <
-15 0 12 37.55 37.81 30.54 <
-14 0 12 1577.63 1614.90 118.15 o
-13 0 12 8396.37 8601.84 241.76 o
-12 0 12 14380.00 14662.60 405.00 o
-11 0 12 900.60 916.15 45.26 o
-10 0 12 758.59 827.99 45.81 o
-9 0 12 1894.76 1994.09 74.16 o
-8 0 12 6285.99 6307.28 216.86 o
-7 0 12 3783.77 3627.71 184.87 o
-6 0 12 425.95 548.42 48.72 o
-5 0 12 3676.47 3594.26 108.88 o
-4 0 12 6277.53 6367.44 168.51 o
-3 0 12 1882.41 1996.45 88.34 o
-2 0 12 714.29 706.93 60.90 o
-1 0 12 859.14 887.25 70.89 o
0 0 12 14396.30 15354.80 444.99 o
1 0 12 8378.49 8838.88 289.21 o
2 0 12 1583.19 1565.09 91.98 o
3 0 12 41.53 35.26 31.99 <
4 0 12 115.81 77.62 59.08 <
5 0 12 245.45 210.68 60.90 o
-16 1 12 7195.12 7743.86 244.49 o
-15 1 12 3465.66 3743.32 100.52 o
-14 1 12 28.58 10.00 19.63 <
-13 1 12 239.28 177.41 49.62 o
-12 1 12 11.71 -5.82 22.36 <
-11 1 12 2350.63 2452.89 71.26 o
-10 1 12 1055.00 1047.76 35.45 o
-9 1 12 3098.28 3054.57 62.53 o
-8 1 12 23844.70 23357.50 470.98 o
-7 1 12 3207.60 3149.09 80.89 o
-6 1 12 15.16 12.54 18.18 <
-5 1 12 3145.84 3431.03 175.60 o
-4 1 12 23874.40 24616.70 520.97 o
-3 1 12 3151.49 3269.61 116.15 o
-2 1 12 1057.37 1081.75 46.72 o
-1 1 12 2446.96 2595.77 82.16 o
0 1 12 13.59 -4.36 25.27 <
1 1 12 228.91 249.58 38.72 o
2 1 12 24.61 28.18 35.81 <
3 1 12 3471.99 3662.98 108.88 o
4 1 12 7212.69 7423.02 188.14 o
-16 2 12 352.58 314.84 44.90 o
-15 2 12 65.41 75.98 30.36 <
-14 2 12 931.77 876.34 47.63 o
-13 2 12 5221.27 5074.47 163.60 o
-12 2 12 10770.10 10628.60 268.67 o
-11 2 12 1838.99 1724.33 70.71 o
-10 2 12 582.53 514.97 30.54 o
-9 2 12 6.34 -7.45 18.36 <
-8 2 12 5862.81 5622.34 151.60 o
-7 2 12 3050.43 2967.50 72.17 o
-6 2 12 16.95 10.91 19.63 <
-5 2 12 2933.27 2924.42 77.07 o
-4 2 12 5837.22 5907.55 122.52 o
-3 2 12 5.76 1.45 18.18 <
-2 2 12 543.15 488.80 29.81 o
-1 2 12 1780.50 1777.77 54.90 o
0 2 12 10814.30 10970.60 425.72 o
1 2 12 5352.50 5373.49 194.50 o
2 2 12 941.24 1038.12 144.69 o
3 2 12 74.32 71.80 35.81 <
4 2 12 362.19 282.12 51.99 o
-14 3 12 45.85 73.62 64.17 <
-13 3 12 170.13 165.24 61.80 <
-12 3 12 49.85 38.54 36.72 <
-11 3 12 476.23 498.07 58.53 o
-10 3 12 472.49 229.95 118.88 <
-9 3 12 1826.00 1637.81 93.61 o
-8 3 12 8041.72 7709.86 239.58 o
-7 3 12 2540.12 2610.49 127.43 o
-6 3 12 44.20 50.90 35.26 <
-5 3 12 2468.10 2423.08 100.70 o
-4 3 12 8110.14 7850.92 219.59 o
-3 3 12 1849.72 1866.12 82.71 o
-2 3 12 467.83 289.93 101.07 <
-1 3 12 483.97 359.92 103.07 o
0 3 12 44.60 10.36 24.36 <
1 3 12 156.37 113.79 39.45 <
2 3 12 38.34 -12.36 31.81 <
-12 4 12 5243.41 5269.70 255.21 o
-11 4 12 448.13 450.08 85.80 o
-10 4 12 45.55 55.99 35.45 <
-9 4 12 9.98 37.45 39.81 <
-8 4 12 1935.56 1881.02 141.97 o
-7 4 12 2627.27 2735.92 124.52 o
-6 4 12 174.19 131.42 50.17 <
-5 4 12 2547.66 2658.84 133.42 o
-4 4 12 1942.62 1918.83 141.42 o
-3 4 12 10.42 27.63 43.08 <
-2 4 12 52.00 21.63 41.81 <
-1 4 12 395.14 422.08 82.71 o
0 4 12 5300.35 5318.59 291.39 o
-16 1 13 502.14 568.60 81.07 o
-15 1 13 205.21 180.32 58.71 o
-14 1 13 88.53 47.44 27.45 <
-13 1 13 138.39 136.33 33.81 o
-12 1 13 195.85 166.69 27.81 o
-11 1 13 343.49 344.47 34.17 o
-10 1 13 682.43 681.84 39.08 o
-9 1 13 328.18 333.01 39.26 o
-8 1 13 2.99 16.72 17.27 <
-7 1 13 75.28 46.17 21.63 <
-6 1 13 90.50 55.81 26.90 <
-5 1 13 3.41 7.63 23.27 <
-4 1 13 389.23 440.81 38.17 o
-3 1 13 565.18 568.78 37.99 o
-2 1 13 382.23 386.82 48.53 o
-1 1 13 215.61 199.95 37.26 o
0 1 13 120.50 118.15 31.27 o
1 1 13 82.90 122.88 39.81 o
2 1 13 247.23 184.32 37.81 o
3 1 13 422.95 415.54 59.08 o
-15 2 13 298.79 239.22 47.63 o
-14 2 13 470.56 518.24 47.63 o
-13 2 13 206.02 191.59 33.63 o
-12 2 13 206.67 211.95 38.35 o
-11 2 13 870.08 790.18 76.89 o
-10 2 13 881.42 700.20 75.98 o
-9 2 13 393.97 291.57 30.72 o
-8 2 13 427.29 349.56 30.54 o
-7 2 13 78.89 59.08 19.45 o
-6 2 13 68.08 25.45 25.27 <
-5 2 13 452.02 411.36 37.26 o
-4 2 13 471.18 535.51 72.53 o
-3 2 13 732.32 694.93 45.44 o
-2 2 13 988.17 901.43 78.53 o
-1 2 13 205.62 217.40 37.08 o
0 2 13 180.02 180.69 34.72 o
1 2 13 455.74 375.91 40.72 o
2 2 13 324.21 269.39 46.72 o
-14 3 13 132.67 71.80 52.35 <
-13 3 13 387.03 324.29 73.26 o
-12 3 13 370.88 391.55 66.89 o
-11 3 13 45.41 27.08 35.99 <
-10 3 13 266.53 317.38 68.53 o
-9 3 13 692.37 613.68 111.61 o
-8 3 13 1059.94 1027.95 161.42 o
-7 3 13 1745.77 1627.26 149.60 o
-6 3 13 2108.08 2080.43 95.43 o
-5 3 13 878.57 909.79 56.17 o
-4 3 13 580.71 569.87 53.62 o
-3 3 13 283.80 239.04 89.25 <
-2 3 13 40.43 24.90 43.99 <
-1 3 13 433.54 274.12 146.51 <
0 3 13 321.45 203.04 112.34 <
1 3 13 140.32 70.71 47.99 <
-11 4 13 2246.25 2214.76 108.88 o
-10 4 13 1410.27 1575.64 139.06 o
-9 4 13 158.15 146.88 68.71 <
-8 4 13 422.07 484.62 75.62 o
-7 4 13 116.12 144.51 49.26 <
-6 4 13 103.46 76.89 53.81 <
-5 4 13 504.55 525.70 58.35 o
-4 4 13 173.41 182.32 51.44 o
-3 4 13 1164.60 1146.46 98.34 o
-2 4 13 2680.51 2797.72 180.32 o
-16 0 14 2299.15 2382.00 133.97 o
-15 0 14 9.02 65.98 45.63 <
-14 0 14 4745.85 4859.79 173.96 o
-13 0 14 1872.83 1799.40 69.80 o
-12 0 14 2700.66 2586.13 134.15 o
-11 0 14 362.35 320.65 59.99 o
-10 0 14 142.93 104.16 20.54 o
-9 0 14 1115.24 1077.21 97.25 o
-8 0 14 6295.15 6328.36 197.95 o
-7 0 14 2986.46 3110.74 123.97 o
-6 0 14 6298.50 6359.08 190.50 o
-5 0 14 1109.99 1326.60 135.42 o
-4 0 14 129.43 71.26 38.17 <
-3 0 14 311.77 309.93 52.17 o
-2 0 14 2806.11 2907.33 132.51 o
-1 0 14 1823.37 1989.54 104.52 o
0 0 14 4712.42 4955.04 191.23 o
1 0 14 8.88 51.62 50.90 <
2 0 14 2235.52 2370.00 110.16 o
-15 1 14 657.63 733.10 65.62 o
-14 1 14 294.80 166.32 71.62 <
-13 1 14 23.99 20.36 24.18 <
-12 1 14 4889.92 4739.46 121.43 o
-11 1 14 33.26 23.99 17.63 <
-10 1 14 6395.59 6241.84 123.24 o
-9 1 14 502.95 556.60 44.17 o
-8 1 14 863.19 981.23 44.72 o
-7 1 14 6.78 -22.90 23.81 <
-6 1 14 925.43 979.41 55.62 o
-5 1 14 497.66 540.97 36.17 o
-4 1 14 6339.20 6900.23 159.05 o
-3 1 14 37.76 34.17 25.45 <
-2 1 14 4831.90 5002.49 119.25 o
-1 1 14 22.19 20.90 25.99 <
0 1 14 311.06 334.11 43.63 o
1 1 14 636.01 613.68 53.26 o
-15 2 14 198.79 144.69 80.53 <
-14 2 14 2739.45 2873.88 107.43 o
-13 2 14 744.83 861.26 67.80 o
-12 2 14 1959.01 1998.09 119.25 o
-11 2 14 21.74 -0.18 21.81 <
-10 2 14 46.79 63.99 37.99 <
-9 2 14 1113.56 1108.11 82.16 o
-8 2 14 5309.24 5143.73 124.88 o
-7 2 14 250.76 240.67 28.72 o
-6 2 14 5324.66 5180.81 123.97 o
-5 2 14 1097.33 1042.12 49.99 o
-4 2 14 41.92 70.71 24.54 <
-3 2 14 19.57 16.72 27.63 <
-2 2 14 2035.40 2009.54 93.43 o
-1 2 14 693.42 861.80 68.71 o
0 2 14 2742.74 2847.71 130.15 o
1 2 14 203.45 177.60 37.81 o
-13 3 14 12.20 34.90 39.81 <
-12 3 14 1726.72 1737.24 116.88 o
-11 3 14 52.77 60.71 48.72 <
-10 3 14 3941.48 3948.91 205.04 o
-9 3 14 282.82 220.86 54.35 o
-8 3 14 1001.77 985.05 63.99 o
-7 3 14 3.64 34.36 25.81 <
-6 3 14 1052.83 1137.01 63.44 o
-5 3 14 298.30 280.12 49.81 o
-4 3 14 3918.86 4135.23 163.60 o
-3 3 14 47.11 69.98 42.35 <
-2 3 14 1688.22 1580.73 163.78 o
-1 3 14 14.29 5.27 35.99 <
-9 4 14 299.63 361.55 87.43 o
-8 4 14 1698.81 1631.26 178.69 o
-7 4 14 2.97 32.72 35.26 <
-6 4 14 1699.13 1610.18 156.69 o
-5 4 14 279.25 329.56 60.71 o
-15 1 15 297.15 142.15 87.07 <
-14 1 15 649.70 614.04 44.90 o
-13 1 15 445.61 361.19 37.45 o
-12 1 15 73.24 59.44 25.99 <
-11 1 15 26.97 31.45 20.54 <
-10 1 15 59.46 71.26 19.45 o
-9 1 15 93.55 84.71 22.72 o
-8 1 15 190.58 141.60 33.81 o
-7 1 15 172.19 195.59 31.81 o
-6 1 15 89.66 65.44 28.36 <
-5 1 15 69.36 91.80 48.90 <
-4 1 15 22.30 7.82 22.36 <
-3 1 15 64.36 62.89 25.81 <
-2 1 15 517.27 490.80 61.26 o
-1 1 15 559.46 450.44 57.08 o
0 1 15 339.21 352.65 43.44 o
-14 2 15 114.75 59.08 41.63 <
-13 2 15 37.38 27.63 40.35 <
-12 2 15 23.12 -39.45 45.81 <
-11 2 15 419.86 434.08 55.44 o
-10 2 15 925.72 718.38 115.25 o
-9 2 15 1285.41 1205.18 111.97 o
-8 2 15 183.93 175.96 40.17 o
-7 2 15 222.77 159.24 33.63 o
-6 2 15 1082.40 963.05 168.69 o
-5 2 15 1108.01 1014.31 74.71 o
-4 2 15 346.95 250.12 43.99 o
-3 2 15 26.64 27.81 39.63 <
-2 2 15 31.75 12.72 27.81 <
-1 2 15 94.90 99.61 35.08 <
-11 3 15 569.55 335.01 181.96 <
-10 3 15 1264.07 1197.91 174.51 o
-9 3 15 393.13 315.75 72.71 o
-8 3 15 187.24 166.69 51.08 o
-7 3 15 168.55 157.96 55.81 <
-6 3 15 398.49 389.73 81.80 o
-5 3 15 1221.98 1374.77 146.69 o
-4 3 15 585.91 711.47 157.78 o
-14 0 16 253.39 365.37 51.08 o
-13 0 16 2171.55 2034.08 136.88 o
-12 0 16 121.43 90.52 55.62 <
-11 0 16 116.14 68.89 27.08 <
-10 0 16 4.22 32.17 45.99 <
-9 0 16 5524.23 5738.50 267.58 o
-8 0 16 2743.87 2801.72 156.33 o
-7 0 16 5621.12 6196.76 316.47 o
-6 0 16 3.92 -8.00 28.54 <
-5 0 16 117.09 135.60 48.53 <
-4 0 16 128.74 55.62 45.44 <
-3 0 16 2240.69 2241.48 171.96 o
-2 0 16 224.54 253.76 48.17 o
-14 1 16 7.35 -13.81 38.72 <
-13 1 16 3081.39 2936.42 95.61 o
-12 1 16 6013.83 5774.13 161.42 o
-11 1 16 4150.25 3979.63 124.15 o
-10 1 16 35.00 27.27 23.81 <
-9 1 16 6.99 2.18 18.00 <
-8 1 16 1.16 25.27 28.18 <
-7 1 16 7.17 16.36 25.45 <
-6 1 16 40.29 30.36 31.63 <
-5 1 16 4124.13 4195.04 116.88 o
-4 1 16 5945.50 5938.82 146.69 o
-3 1 16 3068.65 3142.00 104.70 o
-2 1 16 8.48 51.99 29.99 <
-12 2 16 472.72 574.78 73.80 o
-11 2 16 19.75 -40.90 29.27 <
-10 2 16 3.55 26.90 35.81 <
-9 2 16 3005.85 2987.13 112.52 o
-8 2 16 3467.84 3529.92 165.60 o
-7 2 16 3119.87 3105.83 161.78 o
-6 2 16 3.15 -5.82 35.45 <
-5 2 16 21.98 13.09 38.35 <
-4 2 16 475.71 536.60 74.35 o
-12 1 17 318.77 417.18 126.52 o
-11 1 17 257.76 210.32 61.26 o
-10 1 17 146.71 162.51 50.72 o
-9 1 17 111.34 111.79 45.63 <
-8 1 17 105.49 85.62 37.26 <
-7 1 17 135.82 78.16 38.72 <
-6 1 17 312.26 314.11 86.53 o
-5 1 17 270.83 172.69 38.72 o
#BEGIN Loops that were not found in dictionaries:
loop_
_jana_cell_twin_matrix_id
_jana_cell_twin_volume_fraction
_jana_cell_twin_matrix_1_1
_jana_cell_twin_matrix_1_2
_jana_cell_twin_matrix_1_3
_jana_cell_twin_matrix_2_1
_jana_cell_twin_matrix_2_2
_jana_cell_twin_matrix_2_3
_jana_cell_twin_matrix_3_1
_jana_cell_twin_matrix_3_2
_jana_cell_twin_matrix_3_3
1 0.5478(19) 1 0 0 0 1 0 0 0 1
2 0.4522(19) 1 0 0 0 -1 0 1 0 -1
#END Loops that were not found in dictionaries
