#------------------------------------------------------------------------------
#$Date: 2016-02-16 03:10:39 +0200 (Tue, 16 Feb 2016) $
#$Revision: 176453 $
#$URL: svn://www.crystallography.net/cod/cif/7/01/88/7018889.cif $
#------------------------------------------------------------------------------
#
# This file is available in the Crystallography Open Database (COD),
# http://www.crystallography.net/
#
# All data on this site have been placed in the public domain by the
# contributors.
#
data_7018889
loop_
_publ_author_name
'Ben Yahia, Hamdi'
'Shikano, Masahiro'
'Koike, Shinji'
'Tatsumi, Kuniaki'
'Kobayashi, Hironori'
_publ_section_title
;
 Single crystal X-ray structure study of the Li2&#x2212;xNaxNi[PO4]F
 system
;
_journal_issue                   19
_journal_name_full               'Dalton Transactions'
_journal_page_first              5838
_journal_paper_doi               10.1039/c2dt12375d
_journal_volume                  41
_journal_year                    2012
_chemical_formula_moiety         'F1 Li1 Na1 Ni1 O4 P1'
_chemical_formula_structural     'F1 Li1 Na1 Ni1 O4 P1'
_chemical_formula_sum            'F Li Na Ni O4 P'
_chemical_formula_weight         202.6
_chemical_name_systematic        ' ?'
_space_group_IT_number           14
_symmetry_cell_setting           monoclinic
_symmetry_space_group_name_Hall  '-P 2ybc'
_symmetry_space_group_name_H-M   'P 1 21/c 1'
_cell_angle_alpha                90
_cell_angle_beta                 90.00(2)
_cell_angle_gamma                90
_cell_formula_units_Z            4
_cell_length_a                   6.772(4)
_cell_length_b                   11.154(6)
_cell_length_c                   5.021(3)
_cell_measurement_reflns_used    3622
_cell_measurement_temperature    293(1)
_cell_measurement_theta_max      27.47
_cell_measurement_theta_min      3.01
_cell_volume                     379.3(4)
_diffrn_ambient_temperature      293(1)
_diffrn_measured_fraction_theta_full 1
_diffrn_measured_fraction_theta_max 1
_diffrn_measurement_device       'four-cycle diffractometer'
_diffrn_measurement_device_type  'Rigaku R-AXIS RAPID'
_diffrn_measurement_method       'multi scan'
_diffrn_radiation_monochromator  graphite
_diffrn_radiation_source         'X-ray tube'
_diffrn_radiation_type           'Mo K\a'
_diffrn_radiation_wavelength     0.71069
_diffrn_reflns_av_R_equivalents  0.0316
_diffrn_reflns_av_sigmaI/netI    0.0328
_diffrn_reflns_limit_h_max       8
_diffrn_reflns_limit_h_min       -8
_diffrn_reflns_limit_k_max       14
_diffrn_reflns_limit_k_min       -14
_diffrn_reflns_limit_l_max       6
_diffrn_reflns_limit_l_min       -6
_diffrn_reflns_number            3622
_diffrn_reflns_theta_full        27.47
_diffrn_reflns_theta_max         27.47
_diffrn_reflns_theta_min         3.01
_exptl_absorpt_coefficient_mu    5.568
_exptl_absorpt_correction_T_max  0.6646
_exptl_absorpt_correction_T_min  0.6602
_exptl_absorpt_correction_type   sphere
_exptl_absorpt_process_details
'Jana2006  (Petricek, Dusek & Palatinus, 2000)'
_exptl_crystal_colour            yellow
_exptl_crystal_density_diffrn    3.5466
_exptl_crystal_description       sphere
_exptl_crystal_F_000             392
_exptl_crystal_size_rad          0.05
_refine_diff_density_max         1.20
_refine_diff_density_min         -1.18
_refine_ls_extinction_method     none
_refine_ls_goodness_of_fit_gt    1.18
_refine_ls_goodness_of_fit_ref   1.18
_refine_ls_number_constraints    0
_refine_ls_number_parameters     83
_refine_ls_number_reflns         868
_refine_ls_number_restraints     0
_refine_ls_R_factor_all          0.0229
_refine_ls_R_factor_gt           0.0228
_refine_ls_shift/su_max          0.0005
_refine_ls_shift/su_mean         0.0000
_refine_ls_structure_factor_coef Fsqd
_refine_ls_weighting_details     w=1/(\s^2^(I)+0.0012959999I^2^)
_refine_ls_weighting_scheme      sigma
_refine_ls_wR_factor_gt          0.0630
_refine_ls_wR_factor_ref         0.0630
_reflns_number_gt                867
_reflns_number_total             868
_reflns_threshold_expression     I>0\s(I)
_cod_data_source_file            c2dt12375d.cif
_cod_data_source_block           (I)
_cod_original_formula_sum        'F1 Li1 Na1 Ni1 O4 P1'
_cod_database_code               7018889
loop_
_symmetry_equiv_pos_site_id
_symmetry_equiv_pos_as_xyz
1 x,y,z
2 -x,y+1/2,-z+1/2
3 -x,-y,-z
4 x,-y+1/2,z+1/2
loop_
_atom_site_label
_atom_site_type_symbol
_atom_site_fract_x
_atom_site_fract_y
_atom_site_fract_z
_atom_site_adp_type
_atom_site_U_iso_or_equiv
_atom_site_symmetry_multiplicity
_atom_site_occupancy
_atom_site_calc_flag
Na Na 0.5099(2) 0.16529(11) 0.7480(3) Uani 0.0149(5) 4 1 d
Li Li -0.2537(8) 0.0823(4) 0.2344(15) Uani 0.0062(15) 4 1 d
Ni Ni -0.01963(7) 0.17231(3) 0.76617(9) Uani 0.00562(13) 4 1 d
P P 0.24213(13) 0.41794(6) 0.7742(2) Uani 0.0049(2) 4 1 d
O1 O -0.5461(3) 0.12388(19) 0.2372(5) Uani 0.0118(6) 4 1 d
O2 O 0.1029(4) 0.32913(19) 0.6364(5) Uani 0.0100(7) 4 1 d
O3 O 0.1937(4) 0.07442(18) 0.5745(5) Uani 0.0086(7) 4 1 d
O4 O 0.2160(4) -0.04105(18) 0.1445(4) Uani 0.0085(6) 4 1 d
F F -0.2096(3) 0.21364(17) 0.4652(3) Uani 0.0102(5) 4 1 d
loop_
_atom_site_aniso_label
_atom_site_aniso_type_symbol
_atom_site_aniso_U_11
_atom_site_aniso_U_22
_atom_site_aniso_U_33
_atom_site_aniso_U_12
_atom_site_aniso_U_13
_atom_site_aniso_U_23
Na Na 0.0140(8) 0.0140(7) 0.0166(9) 0.0026(5) -0.0015(13) 0.0005(6)
Li Li 0.009(3) 0.006(2) 0.004(3) 0.0029(17) -0.005(4) -0.0030(18)
Ni Ni 0.0059(2) 0.0049(2) 0.0060(2) -0.00009(13) 0.0005(2) -0.00021(16)
P P 0.0050(4) 0.0041(4) 0.0056(4) -0.0003(2) -0.0004(5) 0.0000(3)
O1 O 0.0079(11) 0.0123(10) 0.0152(12) -0.0029(8) -0.0004(13) -0.0013(10)
O2 O 0.0141(14) 0.0081(10) 0.0078(12) -0.0058(8) -0.0018(10) 0.0019(8)
O3 O 0.0085(13) 0.0102(11) 0.0072(11) 0.0017(9) 0.0006(10) 0.0005(8)
O4 O 0.0098(12) 0.0054(10) 0.0103(11) -0.0016(9) 0.0014(10) -0.0008(9)
F F 0.0068(10) 0.0121(9) 0.0116(9) -0.0023(7) -0.0004(8) 0.0019(8)
loop_
_atom_type_symbol
_atom_type_scat_dispersion_real
_atom_type_scat_dispersion_imag
_atom_type_scat_source
Na 0.036 0.025 'International Tables Vol C tables 4.2.6.8 and 6.1.1.1'
Li 0.000 0.000 'International Tables Vol C tables 4.2.6.8 and 6.1.1.1'
Ni 0.339 1.112 'International Tables Vol C tables 4.2.6.8 and 6.1.1.1'
P 0.102 0.094 'International Tables Vol C tables 4.2.6.8 and 6.1.1.1'
O 0.011 0.006 'International Tables Vol C tables 4.2.6.8 and 6.1.1.1'
F 0.017 0.010 'International Tables Vol C tables 4.2.6.8 and 6.1.1.1'
loop_
_geom_angle_atom_site_label_1
_geom_angle_atom_site_label_2
_geom_angle_atom_site_label_3
_geom_angle_site_symmetry_1
_geom_angle_site_symmetry_3
_geom_angle
_geom_angle_publ_flag
O1 Na O1 1_655 1_656 153.21(9) yes
O1 Na O1 1_655 4_655 97.36(9) yes
O1 Na O3 1_655 . 58.09(8) yes
O1 Na O4 1_655 3_656 103.38(9) yes
O1 Na F 1_655 1_655 65.35(8) yes
O1 Na F 1_655 4_655 127.67(8) yes
O1 Na O1 1_656 4_655 100.28(9) yes
O1 Na O3 1_656 . 97.74(9) yes
O1 Na O4 1_656 3_656 77.88(8) yes
O1 Na F 1_656 1_655 136.45(9) yes
O1 Na F 1_656 4_655 78.16(8) yes
O1 Na O3 4_655 . 104.68(9) yes
O1 Na O4 4_655 3_656 134.78(10) yes
O1 Na F 4_655 1_655 83.81(8) yes
O1 Na F 4_655 4_655 67.00(8) yes
O3 Na O4 . 3_656 120.43(9) yes
O3 Na F . 1_655 123.39(9) yes
O3 Na F . 4_655 169.50(9) yes
O4 Na F 3_656 1_655 69.64(9) yes
O4 Na F 3_656 4_655 68.48(9) yes
F Na F 1_655 4_655 63.54(8) yes
O1 Li O2 . 4_554 143.3(2) yes
O1 Li O3 . 3_556 112.8(3) yes
O1 Li O4 . 3_555 100.7(3) yes
O1 Li F . . 88.4(2) yes
O1 Li F . 4_554 85.28(19) yes
O2 Li O3 4_554 3_556 103.0(2) yes
O2 Li O4 4_554 3_555 77.9(2) yes
O2 Li F 4_554 . 71.42(18) yes
O2 Li F 4_554 4_554 59.07(13) yes
O3 Li O4 3_556 3_555 103.2(2) yes
O3 Li F 3_556 . 110.2(4) yes
O3 Li F 3_556 4_554 161.9(3) yes
O4 Li F 3_555 . 138.6(3) yes
O4 Li F 3_555 4_554 72.3(2) yes
F Li F . 4_554 68.36(15) yes
O2 Ni O2 . 4_555 97.60(10) yes
O2 Ni O3 . . 91.15(10) yes
O2 Ni O4 . 3_556 162.76(10) yes
O2 Ni F . . 79.99(9) yes
O2 Ni F . 4_555 83.11(10) yes
O2 Ni O3 4_555 . 97.88(11) yes
O2 Ni O4 4_555 3_556 93.42(10) yes
O2 Ni F 4_555 . 159.46(9) yes
O2 Ni F 4_555 4_555 79.46(9) yes
O3 Ni O4 . 3_556 100.46(10) yes
O3 Ni F . . 102.55(9) yes
O3 Ni F . 4_555 173.25(9) yes
O4 Ni F 3_556 . 85.03(9) yes
O4 Ni F 3_556 4_555 85.94(9) yes
F Ni F . 4_555 80.00(8) yes
O1 P O2 4_655 . 109.09(14) yes
O1 P O3 4_655 4_555 109.66(14) yes
O1 P O4 4_655 4_555 109.43(14) yes
O2 P O3 . 4_555 110.21(14) yes
O2 P O4 . 4_555 108.48(14) yes
O3 P O4 4_555 4_555 109.95(12) yes
loop_
_geom_bond_atom_site_label_1
_geom_bond_atom_site_label_2
_geom_bond_site_symmetry_2
_geom_bond_distance
_geom_bond_publ_flag
Na O1 1_655 2.633(4) yes
Na O1 1_656 2.528(4) yes
Na O1 4_655 2.383(4) yes
Na O3 . 2.524(3) yes
Na O4 3_656 2.379(3) yes
Na F 1_655 2.433(3) yes
Na F 4_655 2.574(3) yes
Li O1 . 2.034(6) yes
Li O2 4_554 2.656(6) yes
Li O3 3_556 2.035(6) yes
Li O4 3_555 1.974(8) yes
Li F . 1.892(6) yes
Li F 4_554 2.664(6) yes
Ni O2 . 2.043(3) yes
Ni O2 4_555 2.036(3) yes
Ni O3 . 2.051(3) yes
Ni O4 3_556 2.028(3) yes
Ni F . 2.038(2) yes
Ni F 4_555 2.067(2) yes
P O1 4_655 1.519(3) yes
P O2 . 1.532(3) yes
P O3 4_555 1.546(3) yes
P O4 4_555 1.530(3) yes
loop_
_refln_index_h
_refln_index_k
_refln_index_l
_refln_F_squared_calc
_refln_F_squared_meas
_refln_F_squared_sigma
_refln_observed_status
1 0 0 8043.58 7031.29 205.26 o
2 0 0 1181.58 1034.18 37.66 o
3 0 0 574.41 708.69 20.92 o
4 0 0 20998.84 21137.79 932.41 o
5 0 0 3986.52 3922.10 131.67 o
6 0 0 353.57 356.99 28.92 o
7 0 0 77.45 91.92 18.95 o
8 0 0 1554.06 1558.16 71.74 o
1 1 0 11.89 20.43 2.46 o
2 1 0 153.23 137.95 8.86 o
3 1 0 15.81 7.51 3.57 o
4 1 0 397.12 406.71 15.26 o
5 1 0 630.46 637.19 24.86 o
6 1 0 1998.07 1933.98 52.55 o
7 1 0 1988.46 2028.73 56.98 o
8 1 0 829.81 908.17 37.53 o
0 2 0 2359.00 2389.29 73.47 o
1 2 0 2102.98 2189.45 32.24 o
2 2 0 10636.70 11023.66 245.99 o
3 2 0 1127.50 1148.99 23.13 o
4 2 0 380.39 352.44 11.69 o
5 2 0 54.72 51.07 9.11 o
6 2 0 1528.79 1595.69 47.38 o
7 2 0 234.87 255.22 18.83 o
8 2 0 54.26 57.35 12.80 o
1 3 0 5157.06 5129.06 92.29 o
2 3 0 188.06 12103.74 370.90 o
3 3 0 823.57 768.37 16.98 o
4 3 0 953.43 982.99 23.38 o
5 3 0 1121.47 1124.26 26.09 o
6 3 0 268.53 269.25 14.27 o
7 3 0 5.10 11.32 5.66 o
8 3 0 127.63 134.63 12.67 o
0 4 0 7469.69 8179.79 256.45 o
1 4 0 4.06 11.32 1.85 o
2 4 0 3740.11 3991.63 64.97 o
3 4 0 55.96 68.30 8.00 o
4 4 0 1794.22 1778.19 36.43 o
5 4 0 10.99 16.49 6.65 o
6 4 0 40.29 42.46 7.63 o
7 4 0 121.99 112.60 9.97 o
8 4 0 354.88 353.05 18.95 o
1 5 0 2.75 24.12 4.80 o
2 5 0 21.56 20.18 2.71 o
3 5 0 7.20 8.98 2.83 o
4 5 0 516.62 510.94 15.14 o
5 5 0 700.29 727.03 21.54 o
6 5 0 747.91 739.58 23.01 o
7 5 0 520.79 523.86 21.17 o
8 5 0 805.79 826.83 29.66 o
0 6 0 3413.44 3405.01 73.96 o
1 6 0 2936.69 3037.44 50.58 o
2 6 0 22252.61 22495.24 610.61 o
3 6 0 2695.08 2596.40 55.13 o
4 6 0 565.77 562.62 27.32 o
5 6 0 19.99 13.66 4.43 o
6 6 0 3863.73 3916.32 86.39 o
7 6 0 757.18 738.72 25.10 o
8 6 0 164.30 148.90 12.80 o
1 7 0 1056.28 1065.19 17.35 o
2 7 0 22.09 21.17 2.71 o
3 7 0 1.66 4.43 2.58 o
4 7 0 3.61 4.31 3.32 o
5 7 0 2635.38 2586.31 61.78 o
6 7 0 1188.21 1189.97 34.95 o
7 7 0 1127.02 1179.14 34.21 o
0 8 0 8627.91 9188.99 315.27 o
1 8 0 3745.31 3798.43 68.17 o
2 8 0 108.06 103.12 5.05 o
3 8 0 401.25 383.45 17.23 o
4 8 0 2698.42 2750.59 63.50 o
5 8 0 1081.70 1078.97 29.66 o
6 8 0 181.32 192.71 12.06 o
7 8 0 3.25 4.06 5.41 o
1 9 0 1012.63 1007.97 17.60 o
2 9 0 110.14 106.69 5.66 o
3 9 0 1370.12 1351.30 29.16 o
4 9 0 207.80 193.69 10.83 o
5 9 0 34.53 39.26 10.95 o
6 9 0 42.17 44.55 8.61 o
0 10 0 61.91 59.44 8.00 o
1 10 0 5.19 6.52 2.34 o
2 10 0 817.76 795.82 18.21 o
3 10 0 4.53 3.08 2.58 o
4 10 0 2.78 2.83 2.95 o
5 10 0 9.17 4.92 3.20 o
6 10 0 224.81 230.61 15.14 o
1 11 0 667.66 660.82 12.31 o
2 11 0 164.53 159.61 5.78 o
3 11 0 969.91 974.87 20.55 o
4 11 0 337.48 341.12 13.66 o
5 11 0 72.87 81.96 7.75 o
0 12 0 4824.49 4885.53 156.28 o
1 12 0 1580.89 1549.55 30.89 o
2 12 0 801.65 805.91 16.74 o
3 12 0 799.05 825.35 19.07 o
4 12 0 2341.13 2339.70 54.64 o
1 13 0 134.51 149.64 7.14 o
2 13 0 10.06 7.88 2.95 o
3 13 0 612.18 619.10 15.38 o
0 14 0 440.64 443.62 34.95 o
1 14 0 801.16 784.13 35.93 o
2 14 0 2596.34 2590.74 91.68 o
-8 1 1 25.69 16.12 9.11 o
-7 1 1 17.86 22.52 8.98 o
-6 1 1 234.00 266.17 17.84 o
-5 1 1 2730.06 2707.89 70.27 o
-4 1 1 10.06 17.84 3.81 o
-3 1 1 136.05 161.21 8.24 o
-2 1 1 543.58 593.26 13.41 o
-1 1 1 3820.23 3750.93 101.89 o
0 1 1 15.36 14.52 1.97 o
1 1 1 3714.56 3729.89 59.19 o
2 1 1 449.24 482.14 11.08 o
3 1 1 138.06 166.25 9.11 o
4 1 1 8.38 14.52 3.69 o
5 1 1 2906.05 2913.15 83.56 o
6 1 1 249.61 269.37 17.11 o
7 1 1 15.44 19.81 8.37 o
8 1 1 30.95 30.03 8.98 o
-8 2 1 61.31 70.14 11.81 o
-7 2 1 230.62 254.36 19.44 o
-6 2 1 5419.58 5287.06 139.79 o
-5 2 1 1110.01 1075.90 33.84 o
-4 2 1 2077.66 2034.15 44.92 o
-3 2 1 2788.72 2817.04 84.17 o
-2 2 1 11089.96 10716.38 308.26 o
-1 2 1 3778.85 4002.46 149.88 o
0 2 1 1545.31 1380.46 22.15 o
1 2 1 4062.24 4239.10 66.82 o
2 2 1 11061.23 10813.72 238.86 o
3 2 1 2442.78 2537.09 68.05 o
4 2 1 1935.02 1908.14 37.53 o
5 2 1 1176.31 1170.65 57.22 o
6 2 1 5760.24 5793.57 214.74 o
7 2 1 263.82 291.03 15.14 o
8 2 1 73.78 114.07 17.23 o
-8 3 1 653.46 660.94 23.13 o
-7 3 1 1609.54 1630.64 118.63 o
-6 3 1 173.85 175.60 13.78 o
-5 3 1 1772.97 1732.29 73.83 o
-4 3 1 930.13 894.63 33.84 o
-3 3 1 4283.15 4499.00 95.74 o
-2 3 1 1418.94 1435.10 61.78 o
-1 3 1 422.62 427.75 20.67 o
0 3 1 3.43 4.06 1.72 o
1 3 1 343.13 349.73 12.06 o
2 3 1 1181.68 1242.02 32.49 o
3 3 1 3910.93 4171.91 80.11 o
4 3 1 1053.75 1058.05 39.13 o
5 3 1 1984.41 1987.14 71.62 o
6 3 1 164.55 186.31 11.32 o
7 3 1 1446.59 1555.70 51.68 o
8 3 1 599.60 625.13 24.12 o
-8 4 1 2062.10 2117.58 119.74 o
-7 4 1 365.36 375.33 18.21 o
-6 4 1 796.35 780.80 39.50 o
-5 4 1 836.21 838.89 22.03 o
-4 4 1 10129.02 10343.15 257.07 o
-3 4 1 3337.68 3358.87 134.01 o
-2 4 1 7358.60 7415.72 284.76 o
-1 4 1 5034.82 5305.65 177.82 o
0 4 1 11347.90 11346.93 325.61 o
1 4 1 4176.62 4519.80 82.45 o
2 4 1 6334.85 6515.43 133.27 o
3 4 1 3855.29 3861.31 151.98 o
4 4 1 11227.42 11229.41 370.16 o
5 4 1 789.22 811.08 23.63 o
6 4 1 668.80 651.10 31.50 o
7 4 1 394.27 411.01 23.50 o
8 4 1 2358.15 2382.40 163.42 o
-8 5 1 608.17 620.83 25.60 o
-7 5 1 1007.33 995.42 28.80 o
-6 5 1 273.89 271.47 13.91 o
-5 5 1 20.87 18.46 5.78 o
-4 5 1 774.27 778.96 20.06 o
-3 5 1 1369.88 1307.00 28.30 o
-2 5 1 617.79 639.66 13.78 o
-1 5 1 240.81 225.32 5.91 o
0 5 1 117.46 142.26 4.80 o
1 5 1 297.65 283.89 5.91 o
2 5 1 552.90 563.36 10.09 o
3 5 1 1315.48 1283.13 25.10 o
4 5 1 793.75 803.94 20.18 o
5 5 1 17.23 12.55 5.17 o
6 5 1 272.42 273.93 12.80 o
7 5 1 955.90 979.17 30.52 o
8 5 1 567.64 589.08 24.37 o
-7 6 1 23.69 18.09 8.00 o
-6 6 1 32.08 41.35 9.97 o
-5 6 1 203.31 224.95 12.55 o
-4 6 1 309.80 296.45 12.55 o
-3 6 1 10.51 18.58 7.26 o
-2 6 1 333.86 338.29 7.01 o
-1 6 1 31.49 29.29 2.22 o
0 6 1 1413.77 1481.50 27.69 o
1 6 1 25.76 23.01 2.58 o
2 6 1 308.55 313.31 10.46 o
3 6 1 12.72 14.40 3.20 o
4 6 1 325.81 296.57 11.44 o
5 6 1 208.55 210.68 11.32 o
6 6 1 28.50 28.18 6.65 o
7 6 1 26.54 29.41 6.15 o
-7 7 1 856.29 925.03 55.38 o
-6 7 1 5.18 9.84 5.17 o
-5 7 1 244.87 244.15 11.44 o
-4 7 1 95.54 98.32 7.63 o
-3 7 1 1310.33 1339.73 50.70 o
-2 7 1 393.72 426.64 22.64 o
-1 7 1 202.49 200.09 6.15 o
0 7 1 1290.15 1326.81 22.52 o
1 7 1 249.07 239.96 7.51 o
2 7 1 417.87 421.97 9.35 o
3 7 1 1543.83 1522.60 38.02 o
4 7 1 90.10 96.11 7.26 o
5 7 1 272.50 261.62 12.92 o
6 7 1 5.18 6.65 4.80 o
7 7 1 975.20 1033.81 50.21 o
-7 8 1 32.99 28.06 13.54 o
-6 8 1 206.96 223.23 23.87 o
-5 8 1 757.09 754.35 23.50 o
-4 8 1 5979.85 5962.77 140.29 o
-3 8 1 349.93 349.36 9.97 o
-2 8 1 404.64 387.76 9.35 o
-1 8 1 488.64 482.51 10.46 o
0 8 1 8682.31 9121.43 178.19 o
1 8 1 550.08 526.57 10.95 o
2 8 1 412.41 391.20 9.35 o
3 8 1 290.85 294.48 11.08 o
4 8 1 5735.49 5746.19 136.84 o
5 8 1 796.90 782.40 23.01 o
6 8 1 255.28 255.84 18.70 o
7 8 1 34.40 32.98 8.37 o
-6 9 1 713.59 713.74 25.23 o
-5 9 1 721.82 793.72 28.92 o
-4 9 1 554.30 554.50 15.14 o
-3 9 1 237.63 232.83 9.60 o
-2 9 1 523.52 512.66 11.94 o
-1 9 1 534.42 531.73 11.57 o
0 9 1 472.71 474.39 10.71 o
1 9 1 435.99 423.93 11.32 o
2 9 1 550.69 532.72 12.67 o
3 9 1 248.03 256.45 8.74 o
4 9 1 500.91 499.00 17.11 o
5 9 1 660.35 708.69 24.24 o
6 9 1 742.82 762.10 26.33 o
-6 10 1 2933.66 2862.33 196.15 o
-5 10 1 633.61 660.21 19.69 o
-4 10 1 1054.01 1090.29 33.10 o
-3 10 1 1236.68 1229.35 31.13 o
-2 10 1 7913.26 7850.98 153.95 o
-1 10 1 750.88 770.22 18.95 o
0 10 1 1616.36 1608.24 28.55 o
1 10 1 888.30 886.51 15.75 o
2 10 1 8025.17 7950.90 171.79 o
3 10 1 1073.86 1067.77 20.67 o
4 10 1 925.04 971.30 24.00 o
5 10 1 697.30 686.42 20.06 o
6 10 1 3213.75 3218.46 82.94 o
-5 11 1 667.99 666.85 20.67 o
-4 11 1 375.34 372.87 15.38 o
-3 11 1 25.09 25.97 3.69 o
-2 11 1 280.37 276.63 8.24 o
-1 11 1 346.26 346.90 11.08 o
0 11 1 3.76 3.94 2.09 o
1 11 1 301.78 294.35 10.95 o
2 11 1 231.70 226.43 8.49 o
3 11 1 20.90 17.47 4.18 o
4 11 1 400.82 401.29 13.66 o
5 11 1 695.40 717.43 22.15 o
-4 12 1 237.56 242.06 11.20 o
-3 12 1 347.53 353.05 9.97 o
-2 12 1 187.93 197.51 7.26 o
-1 12 1 325.78 323.64 10.58 o
0 12 1 259.07 260.39 8.49 o
1 12 1 315.11 315.03 12.06 o
2 12 1 175.90 181.02 11.20 o
3 12 1 340.22 363.27 17.11 o
4 12 1 247.16 234.06 30.64 o
-3 13 1 166.49 171.17 11.20 o
-2 13 1 137.58 136.10 9.48 o
-1 13 1 75.05 96.23 8.37 o
0 13 1 160.28 186.56 27.44 o
1 13 1 81.15 96.23 9.84 o
2 13 1 131.11 153.95 10.34 o
3 13 1 204.02 198.49 13.29 o
-1 14 1 16.08 13.91 4.92 o
0 14 1 92.86 95.00 10.21 o
1 14 1 18.22 17.35 6.15 o
-8 0 2 2491.71 2372.80 104.11 o
-7 0 2 559.94 540.10 79.99 o
-6 0 2 465.86 451.13 52.18 o
-5 0 2 303.20 308.63 22.40 o
-4 0 2 11877.50 11912.14 452.73 o
-3 0 2 2087.80 1960.68 59.68 o
-2 0 2 11158.30 10696.82 557.33 o
-1 0 2 2874.84 3187.08 85.65 o
0 0 2 24815.62 23900.69 717.43 o
1 0 2 3459.35 3659.74 79.50 o
2 0 2 12912.19 12531.36 368.19 o
3 0 2 2238.65 2227.10 65.22 o
4 0 2 11334.78 11992.49 458.51 o
5 0 2 320.54 350.35 24.73 o
6 0 2 574.73 599.66 88.97 o
7 0 2 673.03 669.80 69.16 o
8 0 2 2368.90 2417.60 107.43 o
-8 1 2 1268.79 1235.26 43.69 o
-7 1 2 1336.03 1309.21 41.96 o
-6 1 2 455.92 460.61 22.64 o
-5 1 2 657.96 671.90 22.27 o
-4 1 2 2526.43 2505.58 53.28 o
-3 1 2 1886.02 1796.40 41.47 o
-2 1 2 130.61 128.84 10.34 o
-1 1 2 607.26 611.35 9.72 o
0 1 2 48.53 39.75 2.09 o
1 1 2 659.03 643.35 9.11 o
2 1 2 150.77 153.45 5.54 o
3 1 2 1635.79 1624.73 31.50 o
4 1 2 2076.39 2143.79 45.78 o
5 1 2 550.75 574.07 19.81 o
6 1 2 405.99 430.58 17.84 o
7 1 2 1317.32 1363.73 39.01 o
8 1 2 1194.80 1229.72 34.83 o
-8 2 2 30.47 27.69 9.84 o
-7 2 2 450.82 417.41 18.83 o
-6 2 2 1711.08 1674.08 45.04 o
-5 2 2 59.43 66.45 9.35 o
-4 2 2 368.64 326.47 18.34 o
-3 2 2 1263.15 1176.68 30.27 o
-2 2 2 7957.95 8048.61 272.08 o
-1 2 2 842.70 879.37 18.95 o
0 2 2 547.74 507.98 8.49 o
1 2 2 813.45 825.97 12.67 o
2 2 2 8116.40 8510.94 176.83 o
3 2 2 1448.66 1422.06 26.09 o
4 2 2 455.03 431.32 11.94 o
5 2 2 72.99 84.42 8.24 o
6 2 2 1645.50 1665.10 40.49 o
7 2 2 408.83 426.89 16.98 o
8 2 2 36.62 38.27 8.61 o
-8 3 2 103.23 103.00 12.80 o
-7 3 2 166.95 163.91 14.15 o
-6 3 2 167.40 161.33 18.21 o
-5 3 2 875.57 845.16 32.24 o
-4 3 2 68.56 70.64 9.97 o
-3 3 2 31.24 54.27 14.40 o
-2 3 2 248.94 261.87 9.97 o
-1 3 2 34.65 40.49 3.81 o
0 3 2 4.18 5.78 1.97 o
1 3 2 29.69 33.47 3.69 o
2 3 2 291.11 315.89 6.77 o
3 3 2 31.30 47.38 5.66 o
4 3 2 84.75 89.59 7.01 o
5 3 2 815.24 806.52 21.54 o
6 3 2 201.63 213.01 12.31 o
7 3 2 173.44 184.34 10.71 o
8 3 2 98.06 103.86 12.18 o
-8 4 2 241.53 245.01 18.34 o
-7 4 2 24.02 18.70 7.75 o
-6 4 2 55.67 57.47 7.63 o
-5 4 2 176.27 175.11 9.84 o
-4 4 2 2486.74 2456.73 62.88 o
-3 4 2 389.97 394.28 12.31 o
-2 4 2 777.38 771.82 19.69 o
-1 4 2 100.06 101.15 5.41 o
0 4 2 7392.26 7741.21 151.48 o
1 4 2 94.28 98.20 3.57 o
2 4 2 803.15 802.58 14.40 o
3 4 2 372.94 388.99 11.81 o
4 4 2 2669.71 2681.43 85.53 o
5 4 2 157.12 154.56 8.00 o
6 4 2 45.71 42.70 10.21 o
7 4 2 26.79 23.13 5.78 o
8 4 2 270.35 260.02 14.40 o
-7 5 2 294.55 281.80 27.69 o
-6 5 2 1101.61 1057.07 60.79 o
-5 5 2 1127.11 1087.96 31.26 o
-4 5 2 455.94 440.55 13.17 o
-3 5 2 273.98 276.76 9.60 o
-2 5 2 553.48 529.40 29.16 o
-1 5 2 248.18 229.63 9.35 o
0 5 2 276.73 289.43 10.34 o
1 5 2 229.39 213.63 12.31 o
2 5 2 452.05 438.33 15.26 o
3 5 2 268.81 269.37 8.24 o
4 5 2 430.31 421.23 13.66 o
5 5 2 1014.24 1058.42 27.07 o
6 5 2 910.76 927.24 44.42 o
7 5 2 238.99 217.44 15.51 o
-7 6 2 440.41 425.53 22.77 o
-6 6 2 4075.19 4106.81 102.51 o
-5 6 2 723.76 741.67 60.79 o
-4 6 2 1157.98 1188.74 82.33 o
-3 6 2 1051.83 1026.80 39.01 o
-2 6 2 11092.46 11337.46 333.73 o
-1 6 2 2126.03 2176.16 41.59 o
0 6 2 4135.13 4096.11 101.89 o
1 6 2 2310.86 2344.01 48.48 o
2 6 2 11510.17 11931.83 251.04 o
3 6 2 1171.11 1158.96 37.66 o
4 6 2 1364.70 1395.48 79.00 o
5 6 2 859.93 903.00 54.88 o
6 6 2 4046.97 4067.68 120.72 o
7 6 2 370.77 371.76 19.20 o
-7 7 2 649.42 653.81 33.47 o
-6 7 2 641.12 618.00 30.27 o
-5 7 2 2441.03 2343.76 67.93 o
-4 7 2 494.98 478.08 19.20 o
-3 7 2 274.60 279.46 10.09 o
-2 7 2 68.81 65.47 4.55 o
-1 7 2 537.52 536.78 16.49 o
0 7 2 135.71 150.99 9.97 o
1 7 2 488.41 475.13 14.64 o
2 7 2 62.31 63.25 5.78 o
3 7 2 233.13 241.44 9.23 o
4 7 2 411.70 410.03 15.01 o
5 7 2 2070.59 2051.75 50.21 o
6 7 2 541.29 529.76 20.30 o
7 7 2 644.96 655.53 23.87 o
-6 8 2 141.87 154.93 16.61 o
-5 8 2 363.00 362.41 13.29 o
-4 8 2 2073.62 2074.63 49.59 o
-3 8 2 1278.01 1289.03 45.29 o
-2 8 2 798.36 794.95 18.83 o
-1 8 2 1728.76 1687.86 38.15 o
0 8 2 2634.71 2652.88 57.71 o
1 8 2 1940.76 1898.91 49.47 o
2 8 2 960.99 954.31 22.27 o
3 8 2 1343.33 1339.86 45.04 o
4 8 2 2046.94 2060.73 49.10 o
5 8 2 349.62 365.24 14.89 o
6 8 2 173.30 178.68 9.72 o
-6 9 2 27.67 32.61 8.00 o
-5 9 2 61.10 58.82 7.38 o
-4 9 2 116.18 114.81 6.77 o
-3 9 2 1097.22 1044.39 20.55 o
-2 9 2 29.84 24.12 2.71 o
-1 9 2 374.68 366.22 14.52 o
0 9 2 2.21 1.97 2.22 o
1 9 2 358.18 343.45 15.87 o
2 9 2 34.34 29.29 5.66 o
3 9 2 978.65 963.54 19.20 o
4 9 2 94.01 103.61 8.98 o
5 9 2 54.36 57.35 9.23 o
6 9 2 22.63 24.12 7.14 o
-5 10 2 42.69 46.76 7.63 o
-4 10 2 17.79 15.63 4.31 o
-3 10 2 20.00 18.09 4.55 o
-2 10 2 392.37 390.71 13.17 o
-1 10 2 85.49 86.63 8.37 o
0 10 2 119.14 123.92 9.48 o
1 10 2 95.19 101.28 8.37 o
2 10 2 425.92 425.78 16.37 o
3 10 2 23.53 23.87 3.94 o
4 10 2 16.48 16.00 3.69 o
5 10 2 50.75 48.98 8.00 o
-5 11 2 87.70 93.89 17.11 o
-4 11 2 64.01 58.82 10.95 o
-3 11 2 526.61 523.37 22.27 o
-2 11 2 109.61 113.58 8.74 o
-1 11 2 8.42 8.86 4.18 o
0 11 2 30.19 26.46 6.28 o
1 11 2 10.17 10.58 4.31 o
2 11 2 90.23 99.92 10.95 o
3 11 2 431.96 423.32 19.07 o
4 11 2 62.67 62.64 8.61 o
5 11 2 84.97 122.81 55.38 o
-4 12 2 2930.81 2905.03 90.45 o
-3 12 2 771.57 800.62 32.12 o
-2 12 2 248.00 259.78 13.17 o
-1 12 2 1274.54 1279.31 36.55 o
0 12 2 4522.19 4601.26 124.90 o
1 12 2 1154.68 1171.51 30.27 o
2 12 2 283.87 284.88 14.64 o
3 12 2 947.52 940.78 31.13 o
4 12 2 3183.89 3032.03 88.23 o
-2 13 2 98.65 97.71 11.69 o
-1 13 2 15.46 9.84 5.78 o
0 13 2 2.39 -0.86 2.83 <
1 13 2 12.76 10.34 6.40 o
2 13 2 79.83 82.94 9.35 o
-7 1 3 134.51 125.03 16.98 o
-6 1 3 407.36 404.98 31.01 o
-5 1 3 1347.70 1298.14 49.35 o
-4 1 3 89.01 99.80 14.77 o
-3 1 3 52.52 49.35 8.00 o
-2 1 3 132.20 134.01 4.31 o
-1 1 3 1643.96 1693.03 29.53 o
0 1 3 680.27 753.98 12.06 o
1 1 3 1394.94 1414.06 20.92 o
2 1 3 107.07 103.25 5.17 o
3 1 3 46.69 48.85 4.31 o
4 1 3 97.01 99.43 6.65 o
5 1 3 1207.38 1222.58 30.03 o
6 1 3 344.10 323.40 19.94 o
7 1 3 138.07 121.70 13.66 o
-7 2 3 270.23 264.70 23.75 o
-6 2 3 2692.52 2554.19 155.42 o
-5 2 3 365.95 363.39 28.67 o
-4 2 3 428.86 419.38 26.70 o
-3 2 3 2663.23 2590.00 61.16 o
-2 2 3 9152.70 9640.24 226.80 o
-1 2 3 2482.36 2440.98 47.38 o
0 2 3 927.74 865.59 14.03 o
1 2 3 2865.42 2908.97 41.59 o
2 2 3 9239.97 9578.34 194.55 o
3 2 3 2228.98 2249.87 45.29 o
4 2 3 405.64 410.15 13.41 o
5 2 3 428.20 423.69 16.49 o
6 2 3 3114.20 3051.84 103.49 o
7 2 3 275.71 287.59 17.23 o
-7 3 3 1487.15 1441.62 55.87 o
-6 3 3 715.92 689.49 32.73 o
-5 3 3 1541.01 1458.48 46.27 o
-4 3 3 136.31 143.12 15.87 o
-3 3 3 584.69 594.86 23.13 o
-2 3 3 589.98 602.74 17.47 o
-1 3 3 1099.20 1130.78 21.66 o
0 3 3 1097.83 1120.57 17.72 o
1 3 3 922.70 908.04 14.52 o
2 3 3 543.74 558.81 10.58 o
3 3 3 480.39 495.92 14.52 o
4 3 3 110.49 108.04 8.12 o
5 3 3 1447.43 1443.35 33.96 o
6 3 3 652.51 650.12 20.80 o
7 3 3 1370.29 1427.47 41.47 o
-7 4 3 442.11 432.67 28.80 o
-6 4 3 336.97 348.25 30.27 o
-5 4 3 1494.47 1389.69 35.32 o
-4 4 3 6238.85 6301.06 172.40 o
-3 4 3 239.96 236.15 15.26 o
-2 4 3 707.05 695.65 20.18 o
-1 4 3 3160.37 3165.54 62.51 o
0 4 3 18809.81 19738.75 470.08 o
1 4 3 2815.66 2828.36 47.38 o
2 4 3 667.70 642.98 13.66 o
3 4 3 293.18 308.14 9.84 o
4 4 3 6362.68 6358.16 136.84 o
5 4 3 1426.92 1415.17 35.32 o
6 4 3 403.03 423.57 25.47 o
7 4 3 448.31 462.33 21.54 o
-7 5 3 688.96 644.95 45.53 o
-6 5 3 241.71 232.46 19.07 o
-5 5 3 174.41 174.37 12.18 o
-4 5 3 888.08 858.33 32.98 o
-3 5 3 520.63 504.29 16.61 o
-2 5 3 79.15 73.34 6.77 o
-1 5 3 738.60 692.45 17.47 o
0 5 3 1417.61 1437.32 22.77 o
1 5 3 911.10 882.82 17.60 o
2 5 3 93.00 99.80 4.92 o
3 5 3 507.83 499.98 15.75 o
4 5 3 723.11 700.69 29.41 o
5 5 3 168.63 171.54 10.34 o
6 5 3 267.09 291.89 14.89 o
7 5 3 732.16 784.99 24.49 o
-6 6 3 144.32 157.88 16.00 o
-5 6 3 110.44 111.12 10.58 o
-4 6 3 247.22 235.04 11.81 o
-3 6 3 162.22 149.64 9.48 o
-2 6 3 367.65 358.10 11.69 o
-1 6 3 361.13 369.91 13.17 o
0 6 3 413.59 423.93 15.14 o
1 6 3 393.26 404.61 14.03 o
2 6 3 417.05 422.21 16.98 o
3 6 3 137.69 127.86 8.00 o
4 6 3 201.33 196.89 9.97 o
5 6 3 134.41 136.72 9.84 o
6 6 3 164.53 174.87 9.97 o
-6 7 3 188.63 184.46 13.29 o
-5 7 3 35.44 37.53 6.28 o
-4 7 3 258.24 243.78 10.58 o
-3 7 3 1204.64 1139.39 27.07 o
-2 7 3 196.01 201.57 8.61 o
-1 7 3 863.84 833.35 30.40 o
0 7 3 30.44 30.89 7.26 o
1 7 3 904.08 882.33 24.86 o
2 7 3 234.91 221.01 10.21 o
3 7 3 1081.04 1049.44 22.03 o
4 7 3 225.51 222.61 9.11 o
5 7 3 29.29 31.26 5.05 o
6 7 3 158.61 177.70 13.29 o
-6 8 3 94.31 133.03 22.89 o
-5 8 3 147.18 133.15 11.44 o
-4 8 3 2305.69 2258.24 64.97 o
-3 8 3 279.26 310.35 20.18 o
-2 8 3 767.85 747.95 28.43 o
-1 8 3 752.58 749.05 37.66 o
0 8 3 4780.53 4847.99 110.14 o
1 8 3 630.49 619.97 31.63 o
2 8 3 726.91 725.55 22.03 o
3 8 3 330.57 370.90 13.66 o
4 8 3 2386.70 2424.00 53.41 o
5 8 3 130.85 126.38 8.98 o
6 8 3 111.89 124.17 11.81 o
-5 9 3 310.36 307.89 15.63 o
-4 9 3 362.91 332.26 14.64 o
-3 9 3 293.09 264.08 19.32 o
-2 9 3 282.56 290.91 20.30 o
-1 9 3 395.26 380.13 23.38 o
0 9 3 289.54 284.51 12.18 o
1 9 3 392.88 388.00 17.35 o
2 9 3 238.56 237.01 13.29 o
3 9 3 237.11 232.70 14.52 o
4 9 3 328.61 326.10 19.94 o
5 9 3 284.55 299.28 17.60 o
-4 10 3 316.88 330.04 21.78 o
-3 10 3 1015.76 1000.34 34.46 o
-2 10 3 6603.65 6475.31 237.26 o
-1 10 3 650.29 643.22 20.18 o
0 10 3 925.34 941.76 27.56 o
1 10 3 640.60 660.70 23.87 o
2 10 3 6384.51 6224.77 183.36 o
3 10 3 980.78 973.76 30.03 o
4 10 3 364.38 356.13 22.89 o
-4 11 3 109.89 116.54 17.97 o
-3 11 3 214.05 214.00 19.94 o
-2 11 3 683.74 696.51 28.18 o
-1 11 3 477.01 488.42 41.10 o
0 11 3 14.12 12.67 5.66 o
1 11 3 393.73 406.95 17.47 o
2 11 3 592.48 588.96 24.73 o
3 11 3 256.77 250.55 18.46 o
4 11 3 134.53 103.61 17.23 o
-2 12 3 94.50 101.77 13.54 o
-1 12 3 335.73 322.41 21.04 o
0 12 3 356.64 381.23 27.32 o
1 12 3 317.88 334.84 18.34 o
2 12 3 91.18 106.81 13.66 o
-6 0 4 396.65 394.03 47.38 o
-5 0 4 860.76 810.09 59.19 o
-4 0 4 6833.59 5783.11 527.67 o
-3 0 4 1760.04 1550.28 58.70 o
-2 0 4 2328.43 2245.81 52.30 o
-1 0 4 1204.08 1240.06 33.72 o
0 0 4 9044.86 9437.69 331.76 o
1 0 4 990.78 992.09 26.33 o
2 0 4 2245.47 2178.62 53.16 o
3 0 4 2163.69 2100.60 64.73 o
4 0 4 7621.93 7506.78 207.23 o
5 0 4 843.61 811.44 28.67 o
6 0 4 363.96 373.23 22.52 o
-6 1 4 497.62 505.65 37.16 o
-5 1 4 363.30 348.75 18.95 o
-4 1 4 865.44 843.81 19.94 o
-3 1 4 1132.40 1123.64 20.43 o
-2 1 4 747.36 779.70 15.14 o
-1 1 4 525.61 528.53 12.80 o
0 1 4 334.04 328.93 8.86 o
1 1 4 456.38 446.45 10.09 o
2 1 4 627.03 642.85 14.40 o
3 1 4 920.89 925.03 19.94 o
4 1 4 700.99 711.77 21.17 o
5 1 4 295.02 305.55 12.31 o
6 1 4 432.06 429.84 17.23 o
-6 2 4 822.02 796.43 50.08 o
-5 2 4 632.08 587.11 31.50 o
-4 2 4 673.55 606.68 16.86 o
-3 2 4 135.23 125.27 6.28 o
-2 2 4 1097.76 1075.65 23.38 o
-1 2 4 421.82 422.70 12.43 o
0 2 4 1265.09 1283.25 20.92 o
1 2 4 462.04 472.91 9.72 o
2 2 4 1146.05 1162.53 20.80 o
3 2 4 147.08 145.58 7.14 o
4 2 4 752.56 750.65 17.11 o
5 2 4 715.39 701.31 18.46 o
6 2 4 857.86 835.81 23.63 o
-6 3 4 167.96 166.01 23.01 o
-5 3 4 744.70 678.05 70.27 o
-4 3 4 397.84 376.07 17.97 o
-3 3 4 477.26 418.15 15.87 o
-2 3 4 1111.08 1072.94 24.12 o
-1 3 4 909.80 913.95 19.57 o
0 3 4 885.77 894.51 17.23 o
1 3 4 989.54 1023.47 16.86 o
2 3 4 1049.94 1036.89 19.94 o
3 3 4 589.56 595.23 13.66 o
4 3 4 324.35 319.95 11.94 o
5 3 4 896.36 880.36 21.78 o
6 3 4 135.87 142.99 11.08 o
-6 4 4 27.43 24.24 8.00 o
-5 4 4 80.38 71.87 9.35 o
-4 4 4 1174.39 1057.07 64.11 o
-3 4 4 156.60 144.35 8.61 o
-2 4 4 363.68 364.25 13.17 o
-1 4 4 31.23 34.58 4.68 o
0 4 4 1828.28 1893.86 31.13 o
1 4 4 32.87 34.95 3.94 o
2 4 4 370.31 384.06 8.74 o
3 4 4 180.52 173.76 8.24 o
4 4 4 1222.50 1207.32 25.97 o
5 4 4 78.45 83.68 8.86 o
6 4 4 28.48 24.00 6.89 o
-6 5 4 602.56 603.35 46.52 o
-5 5 4 635.64 610.37 28.80 o
-4 5 4 277.92 254.24 14.15 o
-3 5 4 502.37 467.99 13.91 o
-2 5 4 986.60 987.91 36.67 o
-1 5 4 629.24 629.07 14.27 o
0 5 4 11.98 6.15 2.09 o
1 5 4 515.85 504.78 15.26 o
2 5 4 805.72 777.97 16.37 o
3 5 4 459.55 445.59 13.17 o
4 5 4 249.25 242.18 12.43 o
5 5 4 577.86 569.51 20.55 o
6 5 4 496.20 492.60 19.07 o
-5 6 4 776.12 810.71 84.05 o
-4 6 4 710.84 676.57 30.27 o
-3 6 4 1126.36 1070.97 22.52 o
-2 6 4 5491.59 5298.26 142.75 o
-1 6 4 1205.33 1214.95 67.31 o
0 6 4 688.43 732.32 27.93 o
1 6 4 1484.83 1529.24 38.02 o
2 6 4 5908.83 5958.71 128.10 o
3 6 4 986.61 964.04 24.12 o
4 6 4 702.93 725.67 19.07 o
5 6 4 957.37 1015.72 51.56 o
-5 7 4 991.57 914.07 37.53 o
-4 7 4 464.01 442.76 16.61 o
-3 7 4 811.23 774.90 18.21 o
-2 7 4 552.64 531.00 20.55 o
-1 7 4 402.18 395.39 18.95 o
0 7 4 186.50 177.70 14.15 o
1 7 4 327.14 313.18 12.92 o
2 7 4 464.31 466.39 18.34 o
3 7 4 666.91 657.01 19.69 o
4 7 4 379.62 371.76 18.70 o
5 7 4 842.76 846.02 39.87 o
-4 8 4 1360.79 1223.57 64.11 o
-3 8 4 819.47 769.97 32.61 o
-2 8 4 297.87 296.69 22.15 o
-1 8 4 855.17 855.38 33.10 o
0 8 4 1043.37 1001.08 38.89 o
1 8 4 730.61 722.84 27.56 o
2 8 4 300.39 300.38 13.78 o
3 8 4 964.72 955.79 28.80 o
4 8 4 1564.39 1494.17 44.30 o
-4 9 4 158.91 177.45 17.84 o
-3 9 4 284.49 277.99 19.94 o
-2 9 4 36.97 35.81 12.31 o
-1 9 4 29.74 37.53 11.94 o
0 9 4 324.63 336.56 21.54 o
1 9 4 36.45 38.76 9.84 o
2 9 4 45.59 55.62 10.34 o
3 9 4 281.00 288.82 25.72 o
4 9 4 161.30 153.95 17.23 o
-3 10 4 112.18 116.04 15.26 o
-2 10 4 546.24 548.22 23.75 o
-1 10 4 155.94 152.10 15.87 o
0 10 4 42.24 33.59 10.21 o
1 10 4 145.50 139.18 15.51 o
2 10 4 588.50 602.00 28.80 o
3 10 4 91.37 111.98 13.41 o
-1 11 4 98.13 119.24 18.58 o
0 11 4 492.17 546.38 35.32 o
1 11 4 104.91 111.61 18.58 o
-5 1 5 535.70 483.62 24.24 o
-4 1 5 76.82 76.30 7.63 o
-3 1 5 99.63 103.37 6.28 o
-2 1 5 478.45 473.16 14.03 o
-1 1 5 74.22 77.65 5.91 o
0 1 5 0.94 5.29 3.20 o
1 1 5 71.91 85.65 5.17 o
2 1 5 541.17 538.38 14.40 o
3 1 5 83.24 95.12 6.52 o
4 1 5 83.31 91.06 7.26 o
5 1 5 470.57 482.02 15.63 o
-5 2 5 334.92 272.57 31.50 o
-4 2 5 230.17 195.05 12.55 o
-3 2 5 606.97 614.55 16.98 o
-2 2 5 3290.79 3326.50 66.94 o
-1 2 5 1140.39 1118.35 25.84 o
0 2 5 571.20 589.69 20.18 o
1 2 5 1309.05 1312.17 26.46 o
2 2 5 3436.31 3513.67 63.37 o
3 2 5 558.05 586.86 15.38 o
4 2 5 279.67 285.74 10.46 o
5 2 5 386.26 380.74 14.52 o
-5 3 5 897.56 805.05 48.24 o
-4 3 5 433.43 425.29 15.51 o
-3 3 5 625.75 624.77 16.00 o
-2 3 5 488.65 492.23 14.77 o
-1 3 5 339.52 345.30 11.57 o
0 3 5 333.54 348.13 14.40 o
1 3 5 312.84 312.32 9.23 o
2 3 5 490.11 504.54 17.11 o
3 3 5 523.05 545.52 15.63 o
4 3 5 375.28 380.50 12.67 o
5 3 5 741.83 732.93 21.78 o
-5 4 5 157.04 147.05 11.44 o
-4 4 5 2020.02 1750.62 111.12 o
-3 4 5 894.53 830.52 23.75 o
-2 4 5 949.10 942.01 33.23 o
-1 4 5 986.43 1006.49 35.93 o
0 4 5 4175.30 4284.14 97.59 o
1 4 5 881.12 881.34 19.69 o
2 4 5 1053.87 1106.66 24.12 o
3 4 5 1104.13 1101.98 22.89 o
4 4 5 2191.54 2150.44 41.35 o
5 4 5 134.19 136.96 9.84 o
-4 5 5 664.70 643.47 24.98 o
-3 5 5 639.69 650.12 17.84 o
-2 5 5 25.53 26.33 4.92 o
-1 5 5 359.99 352.19 21.90 o
0 5 5 199.14 206.00 9.84 o
1 5 5 440.80 452.48 11.20 o
2 5 5 24.08 22.64 4.06 o
3 5 5 517.59 542.81 14.27 o
4 5 5 539.29 533.09 15.26 o
-4 6 5 19.30 20.55 7.01 o
-3 6 5 119.88 105.09 14.03 o
-2 6 5 485.36 467.01 26.83 o
-1 6 5 14.92 17.97 8.12 o
0 6 5 1.49 51.44 50.45 o
1 6 5 13.08 12.92 6.28 o
2 6 5 462.54 453.10 15.63 o
3 6 5 145.58 146.69 9.60 o
4 6 5 17.97 13.41 6.89 o
-3 7 5 76.94 84.42 12.18 o
-2 7 5 31.96 26.58 11.08 o
-1 7 5 17.58 16.49 8.37 o
0 7 5 270.95 278.73 22.52 o
1 7 5 15.07 4.06 6.65 o
2 7 5 38.25 41.84 8.37 o
3 7 5 64.67 59.68 8.86 o
-2 8 5 330.17 309.00 34.58 o
-1 8 5 377.73 377.17 22.15 o
0 8 5 2168.19 2164.34 84.05 o
1 8 5 332.09 338.53 17.60 o
2 8 5 373.66 395.63 28.18 o
-1 9 5 294.62 279.10 21.17 o
0 9 5 232.62 221.01 19.32 o
1 9 5 296.07 284.76 26.58 o
-3 0 6 474.43 396.86 40.98 o
-2 0 6 694.75 705.12 31.50 o
-1 0 6 549.47 576.16 25.35 o
0 0 6 3281.29 3578.53 172.53 o
1 0 6 448.19 454.21 21.90 o
2 0 6 690.83 733.06 26.70 o
3 0 6 583.06 577.88 22.27 o
-3 1 6 535.74 565.45 20.30 o
-2 1 6 96.18 96.23 7.38 o
-1 1 6 699.29 721.12 24.49 o
0 1 6 1114.83 1243.01 45.78 o
1 1 6 762.87 776.13 20.80 o
2 1 6 78.15 86.14 6.40 o
3 1 6 438.81 469.59 15.01 o
-3 2 6 417.79 435.99 15.14 o
-2 2 6 764.70 773.79 21.17 o
-1 2 6 348.45 366.22 14.40 o
0 2 6 115.93 126.87 13.29 o
1 2 6 423.46 439.93 17.35 o
2 2 6 814.30 836.43 22.15 o
3 2 6 339.02 361.54 13.91 o
-2 3 6 109.00 127.61 12.55 o
-1 3 6 331.01 362.77 14.27 o
0 3 6 0.00 1.23 1.85 o
1 3 6 311.02 342.10 21.17 o
2 3 6 92.09 98.69 8.61 o
-2 4 6 57.73 60.18 6.89 o
-1 4 6 91.87 100.66 8.37 o
0 4 6 873.84 907.92 22.03 o
1 4 6 80.27 58.08 23.13 o
2 4 6 50.93 28.43 14.15 o
-1 5 6 773.84 782.28 32.86 o
0 5 6 173.71 179.66 14.77 o
1 5 6 630.26 599.05 56.85 o
