#------------------------------------------------------------------------------
#$Date: 2016-02-16 03:10:39 +0200 (Tue, 16 Feb 2016) $
#$Revision: 176453 $
#$URL: svn://www.crystallography.net/cod/cif/7/02/49/7024986.cif $
#------------------------------------------------------------------------------
#
# This file is available in the Crystallography Open Database (COD),
# http://www.crystallography.net/
#
# All data on this site have been placed in the public domain by the
# contributors.
#
data_7024986
loop_
_publ_author_name
'Allan, D. R.'
'Marshall, W. G.'
'Francis, D. J.'
'Oswald, I. D. H.'
'Pulham, C. R.'
'Spanswick, C.'
_publ_section_title
;
 The crystal structures of the low-temperature and high-pressure
 polymorphs of nitric acid.
;
_journal_issue                   15
_journal_name_full
'Dalton transactions (Cambridge, England : 2003)'
_journal_page_first              3736
_journal_page_last               3743
_journal_paper_doi               10.1039/b923975h
_journal_volume                  39
_journal_year                    2010
_chemical_formula_moiety         'H1 N1 O3'
_chemical_formula_sum            'H N O3'
_chemical_formula_weight         63.01
_chemical_melting_point          231
_chemical_name_systematic        'Nitric acid'
_space_group_IT_number           14
_symmetry_cell_setting           monoclinic
_symmetry_space_group_name_Hall  '-P 2ybc'
_symmetry_space_group_name_H-M   'P 1 21/c 1'
_atom_sites_solution_hydrogens   geom
_atom_sites_solution_primary     direct
_audit_creation_date             06-09-07
_audit_creation_method           CRYSTALS_ver_12.82
_cell_angle_alpha                90
_cell_angle_beta                 90.055(4)
_cell_angle_gamma                90
_cell_formula_units_Z            16
_cell_length_a                   6.3689(3)
_cell_length_b                   8.6046(4)
_cell_length_c                   16.4141(9)
_cell_measurement_reflns_used    5370
_cell_measurement_temperature    210
_cell_measurement_theta_max      58
_cell_measurement_theta_min      5
_cell_volume                     899.52(8)
_computing_cell_refinement       'SAINT (Siemens ,1995)'
_computing_data_collection       'SMART (Siemens, 1993)'
_computing_data_reduction        'SAINT (Siemens ,1995)'
_computing_molecular_graphics    'CAMERON (Watkin et al., 1996)'
_computing_publication_material  'CRYSTALS (Betteridge et al., 2003)'
_computing_structure_refinement  'CRYSTALS (Betteridge et al., 2003)'
_computing_structure_solution    'SIR92 (Altomare et al., 1994)'
_diffrn_ambient_temperature      210
_diffrn_measured_fraction_theta_full 0.995
_diffrn_measured_fraction_theta_max 0.974
_diffrn_measurement_device_type  'Bruker SMART'
_diffrn_measurement_method       \w
_diffrn_radiation_monochromator  graphite
_diffrn_radiation_type           'Mo K\a'
_diffrn_radiation_wavelength     0.71073
_diffrn_reflns_av_R_equivalents  0.067
_diffrn_reflns_limit_h_max       8
_diffrn_reflns_limit_h_min       -8
_diffrn_reflns_limit_k_max       12
_diffrn_reflns_limit_k_min       -11
_diffrn_reflns_limit_l_max       21
_diffrn_reflns_limit_l_min       -23
_diffrn_reflns_number            16407
_diffrn_reflns_theta_full        28.786
_diffrn_reflns_theta_max         29.985
_diffrn_reflns_theta_min         2.482
_diffrn_standards_number         0
_exptl_absorpt_coefficient_mu    0.209
_exptl_absorpt_correction_T_max  0.90
_exptl_absorpt_correction_T_min  0.47
_exptl_absorpt_correction_type   multi-scan
_exptl_absorpt_process_details   'SADABS (Siemens, 1996)'
_exptl_crystal_colour            colourless
_exptl_crystal_density_diffrn    1.861
_exptl_crystal_description       cylinder
_exptl_crystal_F_000             512
_exptl_crystal_size_max          4.00
_exptl_crystal_size_mid          0.48
_exptl_crystal_size_min          0.48
_refine_diff_density_max         0.24
_refine_diff_density_min         -0.17
_refine_ls_extinction_method     None
_refine_ls_goodness_of_fit_ref   1.1800
_refine_ls_hydrogen_treatment    refxyz
_refine_ls_matrix_type           full
_refine_ls_number_parameters     161
_refine_ls_number_reflns         2538
_refine_ls_number_restraints     7
_refine_ls_R_factor_all          0.0532
_refine_ls_R_factor_gt           0.0370
_refine_ls_shift/su_max          0.000330
_refine_ls_structure_factor_coef Fsqd
_refine_ls_weighting_details
;
Method, part 1, Chebychev polynomial, (Watkin, 1994, Prince, 1982)
[weight] = 1.0/[A~0~*T~0~(x)+A~1~*T~1~(x) ... +A~n-1~]*T~n-1~(x)]
where A~i~ are the Chebychev coefficients listed below and x= Fcalc/Fmax
Method = Robust Weighting (Prince, 1982)
W = [weight] * [1-(deltaF/6*sigmaF)^2^]^2^
A~i~ are:
8.73 12.1 3.83
;
_refine_ls_weighting_scheme      calc
_refine_ls_wR_factor_all         0.1166
_refine_ls_wR_factor_gt          0.0987
_refine_ls_wR_factor_ref         0.1166
_reflns_limit_h_max              8
_reflns_limit_h_min              -8
_reflns_limit_k_max              12
_reflns_limit_k_min              0
_reflns_limit_l_max              22
_reflns_limit_l_min              0
_reflns_number_gt                1636
_reflns_number_total             2545
_reflns_threshold_expression     I>2.00u(I)
_oxford_diffrn_Wilson_B_factor   3.11
_oxford_diffrn_Wilson_scale      5.36
_oxford_refine_ls_scale          0.653(2)
_oxford_structure_analysis_title 'cp6003 in P2(1)/c'
_cod_data_source_file            b923975h.txt
_cod_data_source_block           1
_cod_depositor_comments
;
The following automatic conversions were performed:

'_symmetry_cell_setting' value 'Monoclinic' changed to 'monoclinic'
according to /home/saulius/struct/CIF-dictionaries/cif_core.dic
dictionary named 'cif_core.dic' version 2.4.2 from 2011-04-26.

Automatic conversion script
Id: cif_fix_values 1891 2012-01-12 08:04:46Z andrius 
;
_cod_original_sg_symbol_H-M      'P 1 21/c 1 '
_cod_original_formula_sum        'H1 N1 O3'
_cod_database_code               7024986
loop_
_symmetry_equiv_pos_as_xyz
x,y,z
-x,-y,-z
-x,y+1/2,-z+1/2
x,-y+1/2,z+1/2
loop_
_atom_site_label
_atom_site_type_symbol
_atom_site_fract_x
_atom_site_fract_y
_atom_site_fract_z
_atom_site_U_iso_or_equiv
_atom_site_occupancy
_atom_site_adp_type
_atom_site_refinement_flags_posn
N1 N 0.4823(2) 0.57899(11) 0.74389(8) 0.0337 1.0000 Uani .
O11 O 0.6071(3) 0.57429(16) 0.79805(10) 0.0475 1.0000 Uani .
O21 O 0.3985(2) 0.70022(14) 0.71704(8) 0.0430 1.0000 Uani .
O31 O 0.4199(2) 0.45059(17) 0.70694(9) 0.0400 1.0000 Uani D
H31 H 0.489(4) 0.382(2) 0.7334(12) 0.0500 1.0000 Uiso D
N2 N 0.0159(2) 0.42559(13) 0.61469(8) 0.0322 1.0000 Uani .
O12 O -0.1082(3) 0.41815(16) 0.66896(10) 0.0461 1.0000 Uani .
O22 O 0.0873(2) 0.54270(16) 0.58382(8) 0.0415 1.0000 Uani .
O32 O 0.0907(2) 0.29161(17) 0.58221(9) 0.0440 1.0000 Uani D
H32 H 0.032(4) 0.223(2) 0.6117(12) 0.0500 1.0000 Uiso D
N3 N 0.0146(2) 0.07847(13) 0.36896(9) 0.0338 1.0000 Uani .
O13 O -0.1050(2) 0.09047(17) 0.42423(9) 0.0480 1.0000 Uani .
O23 O 0.0875(2) -0.04085(15) 0.34044(9) 0.0427 1.0000 Uani .
O33 O 0.0806(2) 0.20894(15) 0.33063(9) 0.0429 1.0000 Uani D
H33 H 0.024(4) 0.281(2) 0.3596(13) 0.0500 1.0000 Uiso D
N4 N 0.4857(2) 0.25122(14) 0.49189(9) 0.0349 1.0000 Uani D
O14 O 0.6026(2) 0.25279(17) 0.54855(9) 0.0459 1.0000 Uani .
O24 O 0.4200(2) 0.37545(16) 0.45656(8) 0.0424 1.0000 Uani D
O34 O 0.4139(2) 0.12523(17) 0.46010(10) 0.0469 1.0000 Uani D
H24 H 0.477(6) 0.458(2) 0.481(2) 0.0500 0.5000 Uiso D
H34 H 0.480(6) 0.047(2) 0.481(2) 0.0500 0.5000 Uiso D
loop_
_atom_site_aniso_label
_atom_site_aniso_U_11
_atom_site_aniso_U_22
_atom_site_aniso_U_33
_atom_site_aniso_U_23
_atom_site_aniso_U_13
_atom_site_aniso_U_12
N1 0.0324(7) 0.0329(7) 0.0359(6) -0.0017(4) 0.0026(6) -0.0005(4)
O11 0.0525(8) 0.0453(8) 0.0447(7) -0.0050(5) -0.0114(7) 0.0049(5)
O21 0.0499(7) 0.0263(6) 0.0528(6) 0.0006(5) -0.0054(6) 0.0032(5)
O31 0.0442(7) 0.0261(5) 0.0497(6) -0.0019(5) -0.0068(6) 0.0000(5)
N2 0.0332(7) 0.0270(6) 0.0363(6) -0.0018(4) -0.0055(5) 0.0012(5)
O12 0.0466(8) 0.0478(8) 0.0437(6) -0.0048(5) 0.0102(6) 0.0031(6)
O22 0.0503(8) 0.0289(5) 0.0453(6) 0.0025(5) -0.0025(6) -0.0029(6)
O32 0.0491(8) 0.0255(5) 0.0576(7) -0.0029(5) 0.0159(6) 0.0011(6)
N3 0.0338(6) 0.0274(6) 0.0402(6) -0.0005(4) -0.0053(6) -0.0004(5)
O13 0.0480(9) 0.0476(8) 0.0484(6) -0.0013(5) 0.0116(7) -0.0004(6)
O23 0.0445(7) 0.0265(6) 0.0573(7) -0.0028(5) 0.0084(6) 0.0034(6)
O33 0.0525(8) 0.0264(5) 0.0497(6) 0.0020(5) 0.0046(6) 0.0013(6)
N4 0.0319(6) 0.0339(6) 0.0389(6) -0.0023(4) 0.0027(6) 0.0000(6)
O14 0.0487(7) 0.0434(8) 0.0456(6) -0.0024(5) -0.0090(7) 0.0004(6)
O24 0.0511(7) 0.0296(6) 0.0466(6) 0.0036(5) -0.0002(6) -0.0012(6)
O34 0.0476(8) 0.0284(6) 0.0646(8) -0.0048(6) -0.0127(7) 0.0005(6)
loop_
_atom_type_symbol
_atom_type_scat_dispersion_real
_atom_type_scat_dispersion_imag
_atom_type_scat_Cromer_Mann_a1
_atom_type_scat_Cromer_Mann_b1
_atom_type_scat_Cromer_Mann_a2
_atom_type_scat_Cromer_Mann_b2
_atom_type_scat_Cromer_Mann_a3
_atom_type_scat_Cromer_Mann_b3
_atom_type_scat_Cromer_Mann_a4
_atom_type_scat_Cromer_Mann_b4
_atom_type_scat_Cromer_Mann_c
_atom_type_scat_source
N 0.0061 0.0033 12.2126 0.0057 3.1322 9.8933 2.0125 28.9975 1.1663 0.5826
-11.5290 'International Tables Vol C 4.2.6.8 and 6.1.1.4'
H 0.0000 0.0000 0.4930 10.5109 0.3229 26.1257 0.1402 3.1424 0.0408 57.7998
0.0030 'International Tables Vol C 4.2.6.8 and 6.1.1.4'
O 0.0106 0.0060 3.0485 13.2771 2.2868 5.7011 1.5463 0.3239 0.8670 32.9089
0.2508 'International Tables Vol C 4.2.6.8 and 6.1.1.4'
loop_
_geom_angle_atom_site_label_1
_geom_angle_atom_site_label_2
_geom_angle_atom_site_label_3
_geom_angle
_geom_angle_publ_flag
O11 N1 O21 125.05(13) yes
O11 N1 O31 120.92(12) yes
O21 N1 O31 114.03(15) yes
N1 O31 H31 101.0(17) no
O12 N2 O22 127.13(14) yes
O12 N2 O32 118.75(13) yes
O22 N2 O32 114.12(14) yes
N2 O32 H32 102.3(16) no
O13 N3 O23 127.58(14) yes
O13 N3 O33 118.80(13) yes
O23 N3 O33 113.62(14) yes
N3 O33 H33 102.2(15) no
O14 N4 O24 123.06(15) yes
O14 N4 O34 123.22(15) yes
O24 N4 O34 113.71(14) yes
N4 O24 H24 109.3(10) no
N4 O34 H34 108.4(10) no
loop_
_geom_bond_atom_site_label_1
_geom_bond_atom_site_label_2
_geom_bond_distance
_geom_bond_publ_flag
N1 O11 1.193(2) yes
N1 O21 1.2518(16) yes
N1 O31 1.3213(17) yes
O31 H31 0.858(16) no
N2 O12 1.193(2) yes
N2 O22 1.2163(18) yes
N2 O32 1.3568(18) yes
O32 H32 0.851(16) no
N3 O13 1.189(2) yes
N3 O23 1.2205(16) yes
N3 O33 1.3541(17) yes
O33 H33 0.858(16) no
N4 O14 1.191(2) yes
N4 O24 1.2858(18) yes
N4 O34 1.287(2) yes
O24 H24 0.887(18) no
O34 H34 0.864(18) no
loop_
_oxford_twin_element_scale_factors
0.483(3)
0.517(3)
