#------------------------------------------------------------------------------
#$Date: 2016-03-25 16:06:50 +0200 (Fri, 25 Mar 2016) $
#$Revision: 179952 $
#$URL: svn://www.crystallography.net/cod/cif/7/02/47/7024713.cif $
#------------------------------------------------------------------------------
#
# This file is available in the Crystallography Open Database (COD),
# http://www.crystallography.net/
#
# All data on this site have been placed in the public domain by the
# contributors.
#
data_7024713
loop_
_publ_author_name
'Bobev, Svilen'
'Hullmann, Jonathan'
'Harmening, Thomas'
'P\"ottgen, Rainer'
_publ_section_title
;
 Novel ternary alkaline-earth and rare-earth metal antimonides from
 gallium or indium flux. Synthesis, structural characterization and 121Sb
 and 151Eu M\"ossbauer spectroscopy of the series A7Ga8Sb8 (A = Sr, Ba,
 Eu) and Ba7In8Sb8.
;
_journal_issue                   26
_journal_name_full
'Dalton transactions (Cambridge, England : 2003)'
_journal_page_first              6049
_journal_page_last               6055
_journal_paper_doi               10.1039/b920583g
_journal_volume                  39
_journal_year                    2010
_chemical_formula_moiety         'Eu0.88 Ga Sb'
_chemical_formula_sum            'Eu0.88 Ga Sb'
_chemical_formula_weight         324.43
_chemical_name_systematic
;
?
;
_space_group_IT_number           194
_symmetry_cell_setting           hexagonal
_symmetry_space_group_name_Hall  '-P 6c 2c'
_symmetry_space_group_name_H-M   'P 63/m m c'
_atom_sites_solution_primary     direct
_atom_sites_solution_secondary   difmap
_audit_creation_method           SHELXL-97
_cell_angle_alpha                90.00
_cell_angle_beta                 90.00
_cell_angle_gamma                120.00
_cell_formula_units_Z            4
_cell_length_a                   4.4942(8)
_cell_length_b                   4.4942(8)
_cell_length_c                   17.274(6)
_cell_measurement_reflns_used    3024
_cell_measurement_temperature    120(2)
_cell_measurement_theta_max      26.9
_cell_measurement_theta_min      2.3
_cell_volume                     302.15(13)
_computing_cell_refinement       'Bruker SMART'
_computing_data_collection       'Bruker SMART'
_computing_data_reduction        'Bruker SAINT'
_computing_molecular_graphics    'Bruker SHELXTL'
_computing_publication_material  'Bruker SHELXTL'
_computing_structure_refinement  'SHELXL-97 (Sheldrick, 1997)'
_computing_structure_solution    'SHELXS-97 (Sheldrick, 1990)'
_diffrn_ambient_temperature      120(2)
_diffrn_measured_fraction_theta_full 1.000
_diffrn_measured_fraction_theta_max 1.000
_diffrn_measurement_device_type  'CCD area detector'
_diffrn_measurement_method       'phi and omega scans'
_diffrn_radiation_monochromator  graphite
_diffrn_radiation_source         'fine-focus sealed tube'
_diffrn_radiation_type           MoK\a
_diffrn_radiation_wavelength     0.71073
_diffrn_reflns_av_R_equivalents  0.0374
_diffrn_reflns_av_sigmaI/netI    0.0148
_diffrn_reflns_limit_h_max       5
_diffrn_reflns_limit_h_min       -5
_diffrn_reflns_limit_k_max       5
_diffrn_reflns_limit_k_min       -5
_diffrn_reflns_limit_l_max       22
_diffrn_reflns_limit_l_min       -21
_diffrn_reflns_number            3024
_diffrn_reflns_theta_full        26.91
_diffrn_reflns_theta_max         26.91
_diffrn_reflns_theta_min         2.36
_exptl_absorpt_coefficient_mu    35.339
_exptl_absorpt_correction_T_max  0.2609
_exptl_absorpt_correction_T_min  0.1911
_exptl_absorpt_correction_type   multi-scan
_exptl_absorpt_process_details
;
SADABS (Sheldrick, 2003)
;
_exptl_crystal_colour            grey
_exptl_crystal_density_diffrn    7.132
_exptl_crystal_density_method    'not measured'
_exptl_crystal_description       irregular
_exptl_crystal_F_000             549
_exptl_crystal_size_max          0.07
_exptl_crystal_size_mid          0.06
_exptl_crystal_size_min          0.05
_refine_diff_density_max         0.851
_refine_diff_density_min         -2.144
_refine_diff_density_rms         0.316
_refine_ls_extinction_expression Fc^*^=kFc[1+0.001xFc^2^\l^3^/sin(2\q)]^-1/4^
_refine_ls_extinction_method     none
_refine_ls_goodness_of_fit_ref   1.282
_refine_ls_matrix_type           full
_refine_ls_number_parameters     17
_refine_ls_number_reflns         160
_refine_ls_number_restraints     0
_refine_ls_restrained_S_all      1.282
_refine_ls_R_factor_all          0.0357
_refine_ls_R_factor_gt           0.0353
_refine_ls_shift/su_max          0.000
_refine_ls_shift/su_mean         0.000
_refine_ls_structure_factor_coef Fsqd
_refine_ls_weighting_details
'calc w=1/[\s^2^(Fo^2^)+(0.0000P)^2^+20.4087P] where P=(Fo^2^+2Fc^2^)/3'
_refine_ls_weighting_scheme      calc
_refine_ls_wR_factor_gt          0.0769
_refine_ls_wR_factor_ref         0.0770
_reflns_number_gt                158
_reflns_number_total             160
_reflns_threshold_expression     >2sigma(I)
_cod_data_source_file            b920583g.txt
_cod_data_source_block           Eu0.875GaSb
_cod_depositor_comments
;
The following automatic conversions were performed:

'_symmetry_cell_setting' value 'Hexagonal' changed to 'hexagonal'
according to /home/saulius/struct/CIF-dictionaries/cif_core.dic
dictionary named 'cif_core.dic' version 2.4.2 from 2011-04-26.

Automatic conversion script
Id: cif_fix_values 1891 2012-01-12 08:04:46Z andrius 
;
_cod_original_cell_volume        302.16(13)
_cod_database_code               7024713
loop_
_symmetry_equiv_pos_as_xyz
'x, y, z'
'-y, x-y, z'
'-x+y, -x, z'
'-x, -y, z+1/2'
'y, -x+y, z+1/2'
'x-y, x, z+1/2'
'y, x, -z'
'x-y, -y, -z'
'-x, -x+y, -z'
'-y, -x, -z+1/2'
'-x+y, y, -z+1/2'
'x, x-y, -z+1/2'
'-x, -y, -z'
'y, -x+y, -z'
'x-y, x, -z'
'x, y, -z-1/2'
'-y, x-y, -z-1/2'
'-x+y, -x, -z-1/2'
'-y, -x, z'
'-x+y, y, z'
'x, x-y, z'
'y, x, z-1/2'
'x-y, -y, z-1/2'
'-x, -x+y, z-1/2'
loop_
_atom_site_label
_atom_site_type_symbol
_atom_site_fract_x
_atom_site_fract_y
_atom_site_fract_z
_atom_site_U_iso_or_equiv
_atom_site_adp_type
_atom_site_occupancy
_atom_site_symmetry_multiplicity
_atom_site_calc_flag
_atom_site_refinement_flags
Eu1 Eu 0.0000 0.0000 0.2500 0.0153(7) Uani 0.75 12 d SP
Eu2 Eu 0.0000 0.0000 0.0000 0.0172(6) Uani 1 12 d S
Sb1 Sb 0.3333 0.6667 0.12062(9) 0.0170(6) Uani 1 6 d S
Ga1 Ga 0.6667 0.3333 0.1562(4) 0.041(2) Uani 0.50 6 d SP
Ga2 Ga 0.8148(19) 0.1852(19) 0.2938(6) 0.036(3) Uani 0.17 2 d SP
loop_
_atom_site_aniso_label
_atom_site_aniso_U_11
_atom_site_aniso_U_22
_atom_site_aniso_U_33
_atom_site_aniso_U_23
_atom_site_aniso_U_13
_atom_site_aniso_U_12
Eu1 0.0139(9) 0.0139(9) 0.0183(11) 0.000 0.000 0.0069(4)
Eu2 0.0176(8) 0.0176(8) 0.0165(9) 0.000 0.000 0.0088(4)
Sb1 0.0177(7) 0.0177(7) 0.0157(9) 0.000 0.000 0.0089(4)
Ga1 0.047(3) 0.047(3) 0.031(3) 0.000 0.000 0.0233(15)
Ga2 0.035(5) 0.035(5) 0.033(5) 0.003(3) -0.003(3) 0.014(6)
loop_
_atom_type_symbol
_atom_type_description
_atom_type_scat_dispersion_real
_atom_type_scat_dispersion_imag
_atom_type_scat_source
Ga Ga 0.2307 1.6083 'International Tables Vol C Tables 4.2.6.8 and 6.1.1.4'
Eu Eu -0.1578 3.6682 'International Tables Vol C Tables 4.2.6.8 and 6.1.1.4'
Sb Sb -0.5866 1.5461 'International Tables Vol C Tables 4.2.6.8 and 6.1.1.4'
loop_
_geom_angle_atom_site_label_1
_geom_angle_atom_site_label_2
_geom_angle_atom_site_label_3
_geom_angle
_geom_angle_site_symmetry_1
_geom_angle_site_symmetry_3
Ga2 Eu1 Ga2 55.4(8) 16_456 1_455
Ga2 Eu1 Ga2 100.1(5) 16_456 17_546
Ga2 Eu1 Ga2 127.5(2) 1_455 17_546
Ga2 Eu1 Ga2 127.5(2) 16_456 3_665
Ga2 Eu1 Ga2 100.1(5) 1_455 3_665
Ga2 Eu1 Ga2 127.5(2) 17_546 3_665
Ga2 Eu1 Ga2 100.1(5) 16_456 18_666
Ga2 Eu1 Ga2 127.5(2) 1_455 18_666
Ga2 Eu1 Ga2 100.1(5) 17_546 18_666
Ga2 Eu1 Ga2 55.4(8) 3_665 18_666
Ga2 Eu1 Ga2 127.5(2) 16_456 2_545
Ga2 Eu1 Ga2 100.1(5) 1_455 2_545
Ga2 Eu1 Ga2 55.4(8) 17_546 2_545
Ga2 Eu1 Ga2 100.1(5) 3_665 2_545
Ga2 Eu1 Ga2 127.5(2) 18_666 2_545
Ga2 Eu1 Ga1 128.45(14) 16_456 16_556
Ga2 Eu1 Ga1 97.4(3) 1_455 16_556
Ga2 Eu1 Ga1 128.45(14) 17_546 16_556
Ga2 Eu1 Ga1 4.3(4) 3_665 16_556
Ga2 Eu1 Ga1 59.7(4) 18_666 16_556
Ga2 Eu1 Ga1 97.4(3) 2_545 16_556
Ga2 Eu1 Ga1 97.4(3) 16_456 1_445
Ga2 Eu1 Ga1 128.45(14) 1_455 1_445
Ga2 Eu1 Ga1 4.3(4) 17_546 1_445
Ga2 Eu1 Ga1 128.45(14) 3_665 1_445
Ga2 Eu1 Ga1 97.4(3) 18_666 1_445
Ga2 Eu1 Ga1 59.7(4) 2_545 1_445
Ga1 Eu1 Ga1 129.82(7) 16_556 1_445
Ga2 Eu1 Ga1 128.45(14) 16_456 16_446
Ga2 Eu1 Ga1 97.4(3) 1_455 16_446
Ga2 Eu1 Ga1 59.7(4) 17_546 16_446
Ga2 Eu1 Ga1 97.4(3) 3_665 16_446
Ga2 Eu1 Ga1 128.45(14) 18_666 16_446
Ga2 Eu1 Ga1 4.3(4) 2_545 16_446
Ga1 Eu1 Ga1 94.53(16) 16_556 16_446
Ga1 Eu1 Ga1 64.0(2) 1_445 16_446
Ga2 Eu1 Ga1 97.4(3) 16_456 .
Ga2 Eu1 Ga1 128.45(14) 1_455 .
Ga2 Eu1 Ga1 97.4(3) 17_546 .
Ga2 Eu1 Ga1 59.7(4) 3_665 .
Ga2 Eu1 Ga1 4.3(4) 18_666 .
Ga2 Eu1 Ga1 128.45(14) 2_545 .
Ga1 Eu1 Ga1 64.0(2) 16_556 .
Ga1 Eu1 Ga1 94.53(16) 1_445 .
Ga1 Eu1 Ga1 129.82(7) 16_446 .
Ga2 Eu1 Ga1 59.7(4) 16_456 16_456
Ga2 Eu1 Ga1 4.3(4) 1_455 16_456
Ga2 Eu1 Ga1 128.45(14) 17_546 16_456
Ga2 Eu1 Ga1 97.4(3) 3_665 16_456
Ga2 Eu1 Ga1 128.45(14) 18_666 16_456
Ga2 Eu1 Ga1 97.4(3) 2_545 16_456
Ga1 Eu1 Ga1 94.53(16) 16_556 16_456
Ga1 Eu1 Ga1 129.82(7) 1_445 16_456
Ga1 Eu1 Ga1 94.53(16) 16_446 16_456
Ga1 Eu1 Ga1 129.82(7) . 16_456
Ga2 Eu1 Ga1 4.3(4) 16_456 1_455
Ga2 Eu1 Ga1 59.7(4) 1_455 1_455
Ga2 Eu1 Ga1 97.4(3) 17_546 1_455
Ga2 Eu1 Ga1 128.45(14) 3_665 1_455
Ga2 Eu1 Ga1 97.4(3) 18_666 1_455
Ga2 Eu1 Ga1 128.45(14) 2_545 1_455
Ga1 Eu1 Ga1 129.82(7) 16_556 1_455
Ga1 Eu1 Ga1 94.53(16) 1_445 1_455
Ga1 Eu1 Ga1 129.82(7) 16_446 1_455
Ga1 Eu1 Ga1 94.53(16) . 1_455
Ga1 Eu1 Ga1 64.0(2) 16_456 1_455
Sb1 Eu2 Sb1 84.95(3) 13 13_665
Sb1 Eu2 Sb1 95.05(3) 13 1_445
Sb1 Eu2 Sb1 180.00(4) 13_665 1_445
Sb1 Eu2 Sb1 84.95(3) 13 13_565
Sb1 Eu2 Sb1 84.95(3) 13_665 13_565
Sb1 Eu2 Sb1 95.05(3) 1_445 13_565
Sb1 Eu2 Sb1 95.05(3) 13 1_545
Sb1 Eu2 Sb1 95.05(3) 13_665 1_545
Sb1 Eu2 Sb1 84.95(3) 1_445 1_545
Sb1 Eu2 Sb1 180.00(4) 13_565 1_545
Sb1 Eu2 Sb1 180.0 13 .
Sb1 Eu2 Sb1 95.05(3) 13_665 .
Sb1 Eu2 Sb1 84.95(3) 1_445 .
Sb1 Eu2 Sb1 95.05(3) 13_565 .
Sb1 Eu2 Sb1 84.95(3) 1_545 .
Sb1 Eu2 Ga1 136.18(2) 13 .
Sb1 Eu2 Ga1 84.88(9) 13_665 .
Sb1 Eu2 Ga1 95.12(9) 1_445 .
Sb1 Eu2 Ga1 136.18(2) 13_565 .
Sb1 Eu2 Ga1 43.82(2) 1_545 .
Sb1 Eu2 Ga1 43.82(2) . .
Sb1 Eu2 Ga1 43.82(2) 13 13
Sb1 Eu2 Ga1 95.12(9) 13_665 13
Sb1 Eu2 Ga1 84.88(9) 1_445 13
Sb1 Eu2 Ga1 43.82(2) 13_565 13
Sb1 Eu2 Ga1 136.18(2) 1_545 13
Sb1 Eu2 Ga1 136.18(2) . 13
Ga1 Eu2 Ga1 180.0 . 13
Sb1 Eu2 Ga1 95.12(9) 13 13_665
Sb1 Eu2 Ga1 43.82(2) 13_665 13_665
Sb1 Eu2 Ga1 136.18(2) 1_445 13_665
Sb1 Eu2 Ga1 43.82(2) 13_565 13_665
Sb1 Eu2 Ga1 136.18(2) 1_545 13_665
Sb1 Eu2 Ga1 84.88(9) . 13_665
Ga1 Eu2 Ga1 106.21(13) . 13_665
Ga1 Eu2 Ga1 73.79(13) 13 13_665
Sb1 Eu2 Ga1 84.88(9) 13 1_445
Sb1 Eu2 Ga1 136.18(2) 13_665 1_445
Sb1 Eu2 Ga1 43.82(2) 1_445 1_445
Sb1 Eu2 Ga1 136.18(2) 13_565 1_445
Sb1 Eu2 Ga1 43.82(2) 1_545 1_445
Sb1 Eu2 Ga1 95.12(9) . 1_445
Ga1 Eu2 Ga1 73.79(13) . 1_445
Ga1 Eu2 Ga1 106.21(13) 13 1_445
Ga1 Eu2 Ga1 180.00(16) 13_665 1_445
Sb1 Eu2 Ga1 43.82(2) 13 13_655
Sb1 Eu2 Ga1 43.82(2) 13_665 13_655
Sb1 Eu2 Ga1 136.18(2) 1_445 13_655
Sb1 Eu2 Ga1 95.12(9) 13_565 13_655
Sb1 Eu2 Ga1 84.88(9) 1_545 13_655
Sb1 Eu2 Ga1 136.18(2) . 13_655
Ga1 Eu2 Ga1 106.21(13) . 13_655
Ga1 Eu2 Ga1 73.79(13) 13 13_655
Ga1 Eu2 Ga1 73.79(13) 13_665 13_655
Ga1 Eu2 Ga1 106.21(13) 1_445 13_655
Sb1 Eu2 Ga1 136.18(2) 13 1_455
Sb1 Eu2 Ga1 136.18(2) 13_665 1_455
Sb1 Eu2 Ga1 43.82(2) 1_445 1_455
Sb1 Eu2 Ga1 84.88(9) 13_565 1_455
Sb1 Eu2 Ga1 95.12(9) 1_545 1_455
Sb1 Eu2 Ga1 43.82(2) . 1_455
Ga1 Eu2 Ga1 73.79(13) . 1_455
Ga1 Eu2 Ga1 106.21(13) 13 1_455
Ga1 Eu2 Ga1 106.21(13) 13_665 1_455
Ga1 Eu2 Ga1 73.79(13) 1_445 1_455
Ga1 Eu2 Ga1 180.00(16) 13_655 1_455
Ga1 Sb1 Ga1 114.86(12) . 1_565
Ga1 Sb1 Ga1 114.86(12) . 1_455
Ga1 Sb1 Ga1 114.86(12) 1_565 1_455
Ga1 Sb1 Ga2 123.4(3) . 18_676
Ga1 Sb1 Ga2 31.2(3) 1_565 18_676
Ga1 Sb1 Ga2 85.7(3) 1_455 18_676
Ga1 Sb1 Ga2 123.4(3) . 17_556
Ga1 Sb1 Ga2 85.7(3) 1_565 17_556
Ga1 Sb1 Ga2 31.2(3) 1_455 17_556
Ga2 Sb1 Ga2 55.2(6) 18_676 17_556
Ga1 Sb1 Ga2 85.7(3) . 16_566
Ga1 Sb1 Ga2 31.2(3) 1_565 16_566
Ga1 Sb1 Ga2 123.4(3) 1_455 16_566
Ga2 Sb1 Ga2 43.5(6) 18_676 16_566
Ga2 Sb1 Ga2 92.8(3) 17_556 16_566
Ga1 Sb1 Ga2 85.7(3) . 16_456
Ga1 Sb1 Ga2 123.4(3) 1_565 16_456
Ga1 Sb1 Ga2 31.2(3) 1_455 16_456
Ga2 Sb1 Ga2 92.8(3) 18_676 16_456
Ga2 Sb1 Ga2 43.5(6) 17_556 16_456
Ga2 Sb1 Ga2 113.1(4) 16_566 16_456
Ga1 Sb1 Ga2 31.2(3) . 17_656
Ga1 Sb1 Ga2 85.7(3) 1_565 17_656
Ga1 Sb1 Ga2 123.4(3) 1_455 17_656
Ga2 Sb1 Ga2 92.8(3) 18_676 17_656
Ga2 Sb1 Ga2 113.1(4) 17_556 17_656
Ga2 Sb1 Ga2 55.2(6) 16_566 17_656
Ga2 Sb1 Ga2 92.8(3) 16_456 17_656
Ga1 Sb1 Ga2 31.2(3) . 18_666
Ga1 Sb1 Ga2 123.4(3) 1_565 18_666
Ga1 Sb1 Ga2 85.7(3) 1_455 18_666
Ga2 Sb1 Ga2 113.1(4) 18_676 18_666
Ga2 Sb1 Ga2 92.8(3) 17_556 18_666
Ga2 Sb1 Ga2 92.8(3) 16_566 18_666
Ga2 Sb1 Ga2 55.2(6) 16_456 18_666
Ga2 Sb1 Ga2 43.5(6) 17_656 18_666
Ga1 Sb1 Eu2 76.40(11) . .
Ga1 Sb1 Eu2 154.55(16) 1_565 .
Ga1 Sb1 Eu2 76.40(11) 1_455 .
Ga2 Sb1 Eu2 158.1(3) 18_676 .
Ga2 Sb1 Eu2 107.6(3) 17_556 .
Ga2 Sb1 Eu2 158.1(3) 16_566 .
Ga2 Sb1 Eu2 78.5(2) 16_456 .
Ga2 Sb1 Eu2 107.6(3) 17_656 .
Ga2 Sb1 Eu2 78.5(2) 18_666 .
Ga1 Sb1 Eu2 154.55(16) . 1_565
Ga1 Sb1 Eu2 76.40(11) 1_565 1_565
Ga1 Sb1 Eu2 76.40(11) 1_455 1_565
Ga2 Sb1 Eu2 78.5(2) 18_676 1_565
Ga2 Sb1 Eu2 78.5(2) 17_556 1_565
Ga2 Sb1 Eu2 107.6(3) 16_566 1_565
Ga2 Sb1 Eu2 107.6(3) 16_456 1_565
Ga2 Sb1 Eu2 158.1(3) 17_656 1_565
Ga2 Sb1 Eu2 158.1(3) 18_666 1_565
Eu2 Sb1 Eu2 84.95(3) . 1_565
Ga1 Sb1 Eu2 76.40(11) . 1_665
Ga1 Sb1 Eu2 76.40(11) 1_565 1_665
Ga1 Sb1 Eu2 154.55(16) 1_455 1_665
Ga2 Sb1 Eu2 107.6(3) 18_676 1_665
Ga2 Sb1 Eu2 158.1(3) 17_556 1_665
Ga2 Sb1 Eu2 78.5(2) 16_566 1_665
Ga2 Sb1 Eu2 158.1(3) 16_456 1_665
Ga2 Sb1 Eu2 78.5(2) 17_656 1_665
Ga2 Sb1 Eu2 107.6(3) 18_666 1_665
Eu2 Sb1 Eu2 84.95(3) . 1_665
Eu2 Sb1 Eu2 84.95(3) 1_565 1_665
Ga2 Ga1 Ga2 87.8(8) 17_656 18_666
Ga2 Ga1 Ga2 87.8(8) 17_656 16_556
Ga2 Ga1 Ga2 87.8(8) 18_666 16_556
Ga2 Ga1 Ga2 27.3(5) 17_656 2_655
Ga2 Ga1 Ga2 68.6(6) 18_666 2_655
Ga2 Ga1 Ga2 68.6(6) 16_556 2_655
Ga2 Ga1 Ga2 68.6(6) 17_656 3_665
Ga2 Ga1 Ga2 27.3(5) 18_666 3_665
Ga2 Ga1 Ga2 68.6(6) 16_556 3_665
Ga2 Ga1 Ga2 44.4(5) 2_655 3_665
Ga2 Ga1 Ga2 68.6(6) 17_656 .
Ga2 Ga1 Ga2 68.6(6) 18_666 .
Ga2 Ga1 Ga2 27.3(5) 16_556 .
Ga2 Ga1 Ga2 44.4(5) 2_655 .
Ga2 Ga1 Ga2 44.4(5) 3_665 .
Ga2 Ga1 Sb1 75.4(2) 17_656 .
Ga2 Ga1 Sb1 75.4(2) 18_666 .
Ga2 Ga1 Sb1 156.5(6) 16_556 .
Ga2 Ga1 Sb1 89.7(2) 2_655 .
Ga2 Ga1 Sb1 89.7(2) 3_665 .
Ga2 Ga1 Sb1 129.2(4) . .
Ga2 Ga1 Sb1 156.5(6) 17_656 1_545
Ga2 Ga1 Sb1 75.4(2) 18_666 1_545
Ga2 Ga1 Sb1 75.4(2) 16_556 1_545
Ga2 Ga1 Sb1 129.2(4) 2_655 1_545
Ga2 Ga1 Sb1 89.7(2) 3_665 1_545
Ga2 Ga1 Sb1 89.7(2) . 1_545
Sb1 Ga1 Sb1 114.86(12) . 1_545
Ga2 Ga1 Sb1 75.4(2) 17_656 1_655
Ga2 Ga1 Sb1 156.5(6) 18_666 1_655
Ga2 Ga1 Sb1 75.4(2) 16_556 1_655
Ga2 Ga1 Sb1 89.7(2) 2_655 1_655
Ga2 Ga1 Sb1 129.2(4) 3_665 1_655
Ga2 Ga1 Sb1 89.7(2) . 1_655
Sb1 Ga1 Sb1 114.86(12) . 1_655
Sb1 Ga1 Sb1 114.86(12) 1_545 1_655
Ga2 Ga1 Eu1 4.8(5) 17_656 1_665
Ga2 Ga1 Eu1 91.2(4) 18_666 1_665
Ga2 Ga1 Eu1 91.2(4) 16_556 1_665
Ga2 Ga1 Eu1 32.1(3) 2_655 1_665
Ga2 Ga1 Eu1 73.0(3) 3_665 1_665
Ga2 Ga1 Eu1 73.0(3) . 1_665
Sb1 Ga1 Eu1 73.10(5) . 1_665
Sb1 Ga1 Eu1 161.3(3) 1_545 1_665
Sb1 Ga1 Eu1 73.10(5) 1_655 1_665
Ga2 Ga1 Eu1 91.2(4) 17_656 1_655
Ga2 Ga1 Eu1 91.2(4) 18_666 1_655
Ga2 Ga1 Eu1 4.8(5) 16_556 1_655
Ga2 Ga1 Eu1 73.0(3) 2_655 1_655
Ga2 Ga1 Eu1 73.0(3) 3_665 1_655
Ga2 Ga1 Eu1 32.1(3) . 1_655
Sb1 Ga1 Eu1 161.3(3) . 1_655
Sb1 Ga1 Eu1 73.10(5) 1_545 1_655
Sb1 Ga1 Eu1 73.10(5) 1_655 1_655
Eu1 Ga1 Eu1 94.53(16) 1_665 1_655
Ga2 Ga1 Eu1 91.2(4) 17_656 .
Ga2 Ga1 Eu1 4.8(5) 18_666 .
Ga2 Ga1 Eu1 91.2(4) 16_556 .
Ga2 Ga1 Eu1 73.0(3) 2_655 .
Ga2 Ga1 Eu1 32.1(3) 3_665 .
Ga2 Ga1 Eu1 73.0(3) . .
Sb1 Ga1 Eu1 73.10(5) . .
Sb1 Ga1 Eu1 73.10(5) 1_545 .
Sb1 Ga1 Eu1 161.3(3) 1_655 .
Eu1 Ga1 Eu1 94.53(16) 1_665 .
Eu1 Ga1 Eu1 94.53(16) 1_655 .
Ga1 Ga2 Ga2 126.8(5) 16_556 16_556
Ga1 Ga2 Eu1 170.9(9) 16_556 1_655
Ga2 Ga2 Eu1 62.3(4) 16_556 1_655
Ga1 Ga2 Ga2 46.1(4) 16_556 3_665
Ga2 Ga2 Ga2 89.999(2) 16_556 3_665
Eu1 Ga2 Ga2 140.1(3) 1_655 3_665
Ga1 Ga2 Ga2 46.1(4) 16_556 2_655
Ga2 Ga2 Ga2 89.999(2) 16_556 2_655
Eu1 Ga2 Ga2 140.1(3) 1_655 2_655
Ga2 Ga2 Ga2 60.001(7) 3_665 2_655
Ga1 Ga2 Ga2 133.9(4) 16_556 3_765
Ga2 Ga2 Ga2 89.998(2) 16_556 3_765
Eu1 Ga2 Ga2 39.9(2) 1_655 3_765
Ga2 Ga2 Ga2 179.998(16) 3_665 3_765
Ga2 Ga2 Ga2 120.000(4) 2_655 3_765
Ga1 Ga2 Ga2 133.9(4) 16_556 2_645
Ga2 Ga2 Ga2 89.998(2) 16_556 2_645
Eu1 Ga2 Ga2 39.9(2) 1_655 2_645
Ga2 Ga2 Ga2 120.000(4) 3_665 2_645
Ga2 Ga2 Ga2 179.998(4) 2_655 2_645
Ga2 Ga2 Ga2 60.000(2) 3_765 2_645
Ga1 Ga2 Ga2 79.0(7) 16_556 18_666
Ga2 Ga2 Ga2 52.8(5) 16_556 18_666
Eu1 Ga2 Ga2 109.3(6) 1_655 18_666
Ga2 Ga2 Ga2 37.2(5) 3_665 18_666
Ga2 Ga2 Ga2 66.52(17) 2_655 18_666
Ga2 Ga2 Ga2 142.8(5) 3_765 18_666
Ga2 Ga2 Ga2 113.48(18) 2_645 18_666
Ga1 Ga2 Ga2 79.0(7) 16_556 17_656
Ga2 Ga2 Ga2 52.8(5) 16_556 17_656
Eu1 Ga2 Ga2 109.3(6) 1_655 17_656
Ga2 Ga2 Ga2 66.52(17) 3_665 17_656
Ga2 Ga2 Ga2 37.2(5) 2_655 17_656
Ga2 Ga2 Ga2 113.48(18) 3_765 17_656
Ga2 Ga2 Ga2 142.8(5) 2_645 17_656
Ga2 Ga2 Ga2 47.0(4) 18_666 17_656
Ga1 Ga2 Ga1 101.0(7) 16_556 .
Ga2 Ga2 Ga1 25.9(3) 16_556 .
Eu1 Ga2 Ga1 88.2(4) 1_655 .
Ga2 Ga2 Ga1 67.8(3) 3_665 .
Ga2 Ga2 Ga1 67.8(3) 2_655 .
Ga2 Ga2 Ga1 112.2(3) 3_765 .
Ga2 Ga2 Ga1 112.2(3) 2_645 .
Ga2 Ga2 Ga1 32.4(3) 18_666 .
Ga2 Ga2 Ga1 32.4(3) 17_656 .
Ga1 Ga2 Sb1 73.4(3) 16_556 16_656
Ga2 Ga2 Sb1 123.27(19) 16_556 16_656
Eu1 Ga2 Sb1 102.0(4) 1_655 16_656
Ga2 Ga2 Sb1 117.6(3) 3_665 16_656
Ga2 Ga2 Sb1 68.2(3) 2_655 16_656
Ga2 Ga2 Sb1 62.4(3) 3_765 16_656
Ga2 Ga2 Sb1 111.8(3) 2_645 16_656
Ga2 Ga2 Sb1 134.5(4) 18_666 16_656
Ga2 Ga2 Sb1 92.1(5) 17_656 16_656
Ga1 Ga2 Sb1 121.1(2) . 16_656
Ga1 Ga2 Sb1 73.4(3) 16_556 16_546
Ga2 Ga2 Sb1 123.27(19) 16_556 16_546
Eu1 Ga2 Sb1 102.0(4) 1_655 16_546
Ga2 Ga2 Sb1 68.2(3) 3_665 16_546
Ga2 Ga2 Sb1 117.6(3) 2_655 16_546
Ga2 Ga2 Sb1 111.8(3) 3_765 16_546
Ga2 Ga2 Sb1 62.4(3) 2_645 16_546
Ga2 Ga2 Sb1 92.1(5) 18_666 16_546
Ga2 Ga2 Sb1 134.5(4) 17_656 16_546
Ga1 Ga2 Sb1 121.1(2) . 16_546
Sb1 Ga2 Sb1 113.1(4) 16_656 16_546
loop_
_geom_bond_atom_site_label_1
_geom_bond_atom_site_label_2
_geom_bond_distance
_geom_bond_site_symmetry_2
Eu1 Ga2 1.628(14) 16_456
Eu1 Ga2 1.628(14) 1_455
Eu1 Ga2 1.628(14) 17_546
Eu1 Ga2 1.628(14) 3_665
Eu1 Ga2 1.628(14) 18_666
Eu1 Ga2 1.628(14) 2_545
Eu1 Ga1 3.059(4) 16_556
Eu1 Ga1 3.059(4) 1_445
Eu1 Ga1 3.059(4) 16_446
Eu1 Ga1 3.059(4) .
Eu1 Ga1 3.059(4) 16_456
Eu1 Ga1 3.059(4) 1_455
Eu2 Sb1 3.3277(11) 13
Eu2 Sb1 3.3277(11) 13_665
Eu2 Sb1 3.3277(11) 1_445
Eu2 Sb1 3.3277(11) 13_565
Eu2 Sb1 3.3277(11) 1_545
Eu2 Sb1 3.3277(11) .
Eu2 Ga1 3.743(5) .
Eu2 Ga1 3.743(5) 13
Eu2 Ga1 3.743(5) 13_665
Eu2 Ga1 3.743(5) 1_445
Eu2 Ga1 3.743(5) 13_655
Eu2 Ga1 3.743(5) 1_455
Sb1 Ga1 2.6664(18) .
Sb1 Ga1 2.6664(18) 1_565
Sb1 Ga1 2.6664(18) 1_455
Sb1 Ga2 2.693(6) 18_676
Sb1 Ga2 2.693(6) 17_556
Sb1 Ga2 2.693(6) 16_566
Sb1 Ga2 2.693(6) 16_456
Sb1 Ga2 2.693(6) 17_656
Sb1 Ga2 2.693(6) 18_666
Sb1 Eu2 3.3277(11) 1_565
Sb1 Eu2 3.3277(11) 1_665
Ga1 Ga2 1.441(14) 17_656
Ga1 Ga2 1.441(14) 18_666
Ga1 Ga2 1.441(14) 16_556
Ga1 Ga2 2.643(13) 2_655
Ga1 Ga2 2.643(13) 3_665
Ga1 Ga2 2.643(13) .
Ga1 Sb1 2.6664(18) 1_545
Ga1 Sb1 2.6664(18) 1_655
Ga1 Eu1 3.059(4) 1_665
Ga1 Eu1 3.059(4) 1_655
Ga2 Ga1 1.441(14) 16_556
Ga2 Ga2 1.51(2) 16_556
Ga2 Eu1 1.629(14) 1_655
Ga2 Ga2 2.00(3) 3_665
Ga2 Ga2 2.00(3) 2_655
Ga2 Ga2 2.50(3) 3_765
Ga2 Ga2 2.50(3) 2_645
Ga2 Ga2 2.51(2) 18_666
Ga2 Ga2 2.51(2) 17_656
Ga2 Sb1 2.693(6) 16_656
Ga2 Sb1 2.693(6) 16_546
