#------------------------------------------------------------------------------
#$Date: 2016-03-25 22:17:17 +0200 (Fri, 25 Mar 2016) $
#$Revision: 180006 $
#$URL: svn://www.crystallography.net/cod/cif/7/03/00/7030076.cif $
#------------------------------------------------------------------------------
#
# This file is available in the Crystallography Open Database (COD),
# http://www.crystallography.net/
#
# All data on this site have been placed in the public domain by the
# contributors.
#
data_7030076
loop_
_publ_author_name
'Dang, Yangyang'
'Meng, Xianggao'
'Jiang, Kui'
'Zhong, Cheng'
'Chen, Xingguo'
'Qin, Jingui'
_publ_section_title
;
 A promising nonlinear optical material in the Mid-IR region: new results
 on synthesis, crystal structure and properties of noncentrosymmetric
 \b-HgBrCl.
;
_journal_issue                   27
_journal_name_full
'Dalton transactions (Cambridge, England : 2003)'
_journal_page_first              9893
_journal_page_last               9897
_journal_paper_doi               10.1039/c3dt50291k
_journal_volume                  42
_journal_year                    2013
_chemical_formula_moiety         'Br Cl Hg'
_chemical_formula_sum            'Br Cl Hg'
_chemical_formula_weight         315.95
_chemical_name_systematic
;
?
;
_space_group_IT_number           19
_symmetry_cell_setting           orthorhombic
_symmetry_space_group_name_Hall  'P 2ac 2ab'
_symmetry_space_group_name_H-M   'P 21 21 21'
_atom_sites_solution_hydrogens   geom
_atom_sites_solution_primary     direct
_atom_sites_solution_secondary   difmap
_audit_creation_method           SHELXL-97
_cell_angle_alpha                90.00
_cell_angle_beta                 90.00
_cell_angle_gamma                90.00
_cell_formula_units_Z            4
_cell_length_a                   4.1590(17)
_cell_length_b                   6.785(3)
_cell_length_c                   13.175(5)
_cell_measurement_reflns_used    1255
_cell_measurement_temperature    298(2)
_cell_measurement_theta_max      26.91
_cell_measurement_theta_min      3.38
_cell_volume                     371.8(3)
_computing_cell_refinement       'Bruker SMART'
_computing_data_collection       'Bruker SMART'
_computing_data_reduction        'Bruker SAINT'
_computing_molecular_graphics    'Bruker SHELXTL'
_computing_publication_material  'Bruker SHELXTL'
_computing_structure_refinement  'SHELXL-97 (Sheldrick, 1997)'
_computing_structure_solution    'SHELXS-97 (Sheldrick, 1990)'
_diffrn_ambient_temperature      298(2)
_diffrn_measured_fraction_theta_full 0.998
_diffrn_measured_fraction_theta_max 0.998
_diffrn_measurement_device_type  'CCD area detector'
_diffrn_measurement_method       'phi and omega scans'
_diffrn_radiation_monochromator  graphite
_diffrn_radiation_source         'fine-focus sealed tube'
_diffrn_radiation_type           MoK\a
_diffrn_radiation_wavelength     0.71073
_diffrn_reflns_av_R_equivalents  0.0654
_diffrn_reflns_av_sigmaI/netI    0.0619
_diffrn_reflns_limit_h_max       5
_diffrn_reflns_limit_h_min       -5
_diffrn_reflns_limit_k_max       8
_diffrn_reflns_limit_k_min       -8
_diffrn_reflns_limit_l_max       17
_diffrn_reflns_limit_l_min       -16
_diffrn_reflns_number            3208
_diffrn_reflns_theta_full        27.48
_diffrn_reflns_theta_max         27.48
_diffrn_reflns_theta_min         3.09
_exptl_absorpt_coefficient_mu    52.590
_exptl_absorpt_correction_T_max  0.0771
_exptl_absorpt_correction_T_min  0.0614
_exptl_absorpt_correction_type   none
_exptl_crystal_colour            colorless
_exptl_crystal_density_diffrn    5.645
_exptl_crystal_density_meas      0
_exptl_crystal_density_method    'not measured'
_exptl_crystal_description       prism
_exptl_crystal_F_000             528
_exptl_crystal_size_max          0.12
_exptl_crystal_size_mid          0.10
_exptl_crystal_size_min          0.10
_refine_diff_density_max         3.050
_refine_diff_density_min         -1.810
_refine_diff_density_rms         0.425
_refine_ls_abs_structure_details 'Flack H D (1983), Acta Cryst. A39, 876-881'
_refine_ls_abs_structure_Flack   0.00
_refine_ls_extinction_method     none
_refine_ls_goodness_of_fit_ref   1.045
_refine_ls_hydrogen_treatment    mixed
_refine_ls_matrix_type           full
_refine_ls_number_parameters     28
_refine_ls_number_reflns         848
_refine_ls_number_restraints     0
_refine_ls_restrained_S_all      1.045
_refine_ls_R_factor_all          0.0562
_refine_ls_R_factor_gt           0.0521
_refine_ls_shift/su_max          0.000
_refine_ls_shift/su_mean         0.000
_refine_ls_structure_factor_coef Fsqd
_refine_ls_weighting_details
'calc w=1/[\s^2^(Fo^2^)+(0.0725P)^2^+1.2801P] where P=(Fo^2^+2Fc^2^)/3'
_refine_ls_weighting_scheme      calc
_refine_ls_wR_factor_gt          0.1235
_refine_ls_wR_factor_ref         0.1257
_reflns_number_gt                779
_reflns_number_total             848
_reflns_threshold_expression     >2sigma(I)
_cod_data_source_file            c3dt50291k.cif
_cod_data_source_block           n:\121120a\work\121120am
_cod_depositor_comments
;
The following automatic conversions were performed:

'_symmetry_cell_setting' value 'Orthorhombic' changed to
'orthorhombic' according to
/usr/data/users/saulius/automatic-downloads/retrospective/RSC/lib/dictionaries/cif_core.dic
dictionary named 'cif_core.dic' version 2.4.2 from 2011-04-26.

Automatic conversion script
Id: cif_fix_values 2281 2013-09-26 08:29:07Z andrius 
;
_cod_original_sg_symbol_H-M      P2(1)2(1)2(1)
_cod_database_code               7030076
loop_
_symmetry_equiv_pos_as_xyz
'x, y, z'
'-x+1/2, -y, z+1/2'
'-x, y+1/2, -z+1/2'
'x+1/2, -y+1/2, -z'
loop_
_atom_site_label
_atom_site_type_symbol
_atom_site_fract_x
_atom_site_fract_y
_atom_site_fract_z
_atom_site_U_iso_or_equiv
_atom_site_adp_type
_atom_site_occupancy
_atom_site_symmetry_multiplicity
_atom_site_calc_flag
_atom_site_refinement_flags
Hg1 Hg 0.9425(2) 0.08646(13) 0.87134(5) 0.0391(3) Uani 1 1 d .
Br1 Br 1.2924(6) 0.1617(5) 0.73311(19) 0.0325(6) Uani 0.50 1 d P
Cl1 Cl 1.2924(6) 0.1617(5) 0.73311(19) 0.0325(6) Uani 0.50 1 d P
Br2 Br 0.5959(6) -0.0043(4) 1.00921(16) 0.0280(5) Uani 0.50 1 d P
Cl2 Cl 0.5959(6) -0.0043(4) 1.00921(16) 0.0280(5) Uani 0.50 1 d P
loop_
_atom_site_aniso_label
_atom_site_aniso_U_11
_atom_site_aniso_U_22
_atom_site_aniso_U_33
_atom_site_aniso_U_23
_atom_site_aniso_U_13
_atom_site_aniso_U_12
Hg1 0.0410(4) 0.0450(5) 0.0312(4) -0.0003(4) 0.0078(3) -0.0029(4)
Br1 0.0330(12) 0.0413(16) 0.0231(12) 0.0048(12) 0.0031(11) 0.0002(12)
Cl1 0.0330(12) 0.0413(16) 0.0231(12) 0.0048(12) 0.0031(11) 0.0002(12)
Br2 0.0331(12) 0.0285(13) 0.0224(11) 0.0000(11) 0.0074(10) 0.0002(12)
Cl2 0.0331(12) 0.0285(13) 0.0224(11) 0.0000(11) 0.0074(10) 0.0002(12)
loop_
_atom_type_symbol
_atom_type_description
_atom_type_scat_dispersion_real
_atom_type_scat_dispersion_imag
_atom_type_scat_source
Br Br -0.2901 2.4595 'International Tables Vol C Tables 4.2.6.8 and 6.1.1.4'
Hg Hg -2.3894 9.2266 'International Tables Vol C Tables 4.2.6.8 and 6.1.1.4'
Cl Cl 0.1484 0.1585 'International Tables Vol C Tables 4.2.6.8 and 6.1.1.4'
loop_
_geom_angle_atom_site_label_1
_geom_angle_atom_site_label_2
_geom_angle_atom_site_label_3
_geom_angle
Br1 Hg1 Br2 177.47(12)
loop_
_geom_bond_atom_site_label_1
_geom_bond_atom_site_label_2
_geom_bond_distance
Hg1 Br1 2.387(3)
Hg1 Br2 2.399(2)
