#------------------------------------------------------------------------------
#$Date: 2016-03-25 22:23:42 +0200 (Fri, 25 Mar 2016) $
#$Revision: 180010 $
#$URL: svn://www.crystallography.net/cod/cif/7/03/04/7030419.cif $
#------------------------------------------------------------------------------
#
# This file is available in the Crystallography Open Database (COD),
# http://www.crystallography.net/
#
# All data on this site have been placed in the public domain by the
# contributors.
#
data_7030419
loop_
_publ_author_name
'Wang, Peng'
'Ahmadpour, Faraz'
'Kolodiazhnyi, Taras'
'Kracher, Alfred'
'Cranswick, Lachlan M. D.'
'Mozharivskyj, Yurij'
_publ_section_title
;
 Composition, structure, bonding and thermoelectric properties of
 &quot;CuT2P3&quot; and &quot;CuT4P3&quot;, members of the T(1-x)(CuP3)x
 series with T being Si and Ge.
;
_journal_issue                   4
_journal_name_full
'Dalton transactions (Cambridge, England : 2003)'
_journal_page_first              1105
_journal_page_last               1112
_journal_paper_doi               10.1039/b914555a
_journal_volume                  39
_journal_year                    2010
_chemical_formula_sum            'Cu0.95 Ge4.48 P2.57'
_chemical_formula_weight         465.16
_chemical_name_systematic
;
?
;
_space_group_IT_number           216
_symmetry_cell_setting           cubic
_symmetry_space_group_name_Hall  'F -4 2 3'
_symmetry_space_group_name_H-M   'F -4 3 m'
_atom_sites_solution_primary     direct
_atom_sites_solution_secondary   difmap
_audit_creation_method           SHELXL-97
_cell_angle_alpha                90.00
_cell_angle_beta                 90.00
_cell_angle_gamma                90.00
_cell_formula_units_Z            1
_cell_length_a                   5.4451(14)
_cell_length_b                   5.4451(14)
_cell_length_c                   5.4451(14)
_cell_measurement_reflns_used    1054
_cell_measurement_temperature    293(2)
_cell_measurement_theta_max      34.45
_cell_measurement_theta_min      6.50
_cell_volume                     161.44(7)
_computing_cell_refinement       X-Area
_computing_data_collection       X-Area
_computing_data_reduction        X-Red32
_computing_publication_material  'SHELXL-97 (Sheldrick, 1997)'
_computing_structure_refinement  'SHELXL-97 (Sheldrick, 1997)'
_computing_structure_solution    'SHELXS-97 (Sheldrick, 1990)'
_diffrn_ambient_temperature      293(2)
_diffrn_measured_fraction_theta_full 1.000
_diffrn_measured_fraction_theta_max 1.000
_diffrn_measurement_device_type  'STOE IPDSII'
_diffrn_measurement_method       'omega scan'
_diffrn_radiation_monochromator  graphite
_diffrn_radiation_source         'fine-focus sealed tube'
_diffrn_radiation_type           MoK\a
_diffrn_radiation_wavelength     0.71073
_diffrn_reflns_av_R_equivalents  0.0422
_diffrn_reflns_av_sigmaI/netI    0.0132
_diffrn_reflns_limit_h_max       8
_diffrn_reflns_limit_h_min       -8
_diffrn_reflns_limit_k_max       8
_diffrn_reflns_limit_k_min       -8
_diffrn_reflns_limit_l_max       8
_diffrn_reflns_limit_l_min       -8
_diffrn_reflns_number            1054
_diffrn_reflns_theta_full        34.42
_diffrn_reflns_theta_max         34.42
_diffrn_reflns_theta_min         6.49
_exptl_absorpt_coefficient_mu    24.180
_exptl_absorpt_correction_T_max  0.4790
_exptl_absorpt_correction_T_min  0.0527
_exptl_absorpt_correction_type   numerical
_exptl_absorpt_process_details   X-Red
_exptl_crystal_colour            Black
_exptl_crystal_density_diffrn    4.784
_exptl_crystal_density_method    'not measured'
_exptl_crystal_description       rod
_exptl_crystal_F_000             209
_exptl_crystal_size_max          0.251
_exptl_crystal_size_mid          0.225
_exptl_crystal_size_min          0.056
_refine_diff_density_max         0.405
_refine_diff_density_min         -0.128
_refine_diff_density_rms         0.054
_refine_ls_abs_structure_details 'Flack H D (1983), Acta Cryst. A39, 876-881'
_refine_ls_abs_structure_Flack   0.00(6)
_refine_ls_extinction_coef       0.076(4)
_refine_ls_extinction_expression Fc^*^=kFc[1+0.001xFc^2^\l^3^/sin(2\q)]^-1/4^
_refine_ls_extinction_method     SHELXL
_refine_ls_goodness_of_fit_ref   1.162
_refine_ls_matrix_type           full
_refine_ls_number_parameters     6
_refine_ls_number_reflns         55
_refine_ls_number_restraints     0
_refine_ls_restrained_S_all      1.162
_refine_ls_R_factor_all          0.0058
_refine_ls_R_factor_gt           0.0058
_refine_ls_shift/su_max          0.000
_refine_ls_shift/su_mean         0.000
_refine_ls_structure_factor_coef Fsqd
_refine_ls_weighting_details
'calc w=1/[\s^2^(Fo^2^)+(0.0040P)^2^+0.0000P] where P=(Fo^2^+2Fc^2^)/3'
_refine_ls_weighting_scheme      calc
_refine_ls_wR_factor_gt          0.0120
_refine_ls_wR_factor_ref         0.0120
_reflns_number_gt                55
_reflns_number_total             55
_reflns_threshold_expression     >2sigma(I)
_cod_data_source_file            b914555a.txt
_cod_data_source_block           Cu0
_cod_depositor_comments
;
The following automatic conversions were performed:

'_symmetry_cell_setting' value 'Cubic' changed to 'cubic' according
to
/usr/data/users/saulius/automatic-downloads/retrospective/RSC/lib/dictionaries/cif_core.dic
dictionary named 'cif_core.dic' version 2.4.2 from
2011-04-26.

'_exptl_absorpt_correction_type' value 'Numerical'
changed to 'numerical' according to
/usr/data/users/saulius/automatic-downloads/retrospective/RSC/lib/dictionaries/cif_core.dic
dictionary named 'cif_core.dic' version 2.4.2 from 2011-04-26.

Automatic conversion script
Id: cif_fix_values 2281 2013-09-26 08:29:07Z andrius 
;
_cod_original_sg_symbol_H-M      F-43m
_cod_database_code               7030419
loop_
_symmetry_equiv_pos_as_xyz
'x, y, z'
'-x, -y, z'
'-x, y, -z'
'x, -y, -z'
'z, x, y'
'z, -x, -y'
'-z, -x, y'
'-z, x, -y'
'y, z, x'
'-y, z, -x'
'y, -z, -x'
'-y, -z, x'
'y, x, z'
'-y, -x, z'
'y, -x, -z'
'-y, x, -z'
'x, z, y'
'-x, z, -y'
'-x, -z, y'
'x, -z, -y'
'z, y, x'
'z, -y, -x'
'-z, y, -x'
'-z, -y, x'
'x, y+1/2, z+1/2'
'-x, -y+1/2, z+1/2'
'-x, y+1/2, -z+1/2'
'x, -y+1/2, -z+1/2'
'z, x+1/2, y+1/2'
'z, -x+1/2, -y+1/2'
'-z, -x+1/2, y+1/2'
'-z, x+1/2, -y+1/2'
'y, z+1/2, x+1/2'
'-y, z+1/2, -x+1/2'
'y, -z+1/2, -x+1/2'
'-y, -z+1/2, x+1/2'
'y, x+1/2, z+1/2'
'-y, -x+1/2, z+1/2'
'y, -x+1/2, -z+1/2'
'-y, x+1/2, -z+1/2'
'x, z+1/2, y+1/2'
'-x, z+1/2, -y+1/2'
'-x, -z+1/2, y+1/2'
'x, -z+1/2, -y+1/2'
'z, y+1/2, x+1/2'
'z, -y+1/2, -x+1/2'
'-z, y+1/2, -x+1/2'
'-z, -y+1/2, x+1/2'
'x+1/2, y, z+1/2'
'-x+1/2, -y, z+1/2'
'-x+1/2, y, -z+1/2'
'x+1/2, -y, -z+1/2'
'z+1/2, x, y+1/2'
'z+1/2, -x, -y+1/2'
'-z+1/2, -x, y+1/2'
'-z+1/2, x, -y+1/2'
'y+1/2, z, x+1/2'
'-y+1/2, z, -x+1/2'
'y+1/2, -z, -x+1/2'
'-y+1/2, -z, x+1/2'
'y+1/2, x, z+1/2'
'-y+1/2, -x, z+1/2'
'y+1/2, -x, -z+1/2'
'-y+1/2, x, -z+1/2'
'x+1/2, z, y+1/2'
'-x+1/2, z, -y+1/2'
'-x+1/2, -z, y+1/2'
'x+1/2, -z, -y+1/2'
'z+1/2, y, x+1/2'
'z+1/2, -y, -x+1/2'
'-z+1/2, y, -x+1/2'
'-z+1/2, -y, x+1/2'
'x+1/2, y+1/2, z'
'-x+1/2, -y+1/2, z'
'-x+1/2, y+1/2, -z'
'x+1/2, -y+1/2, -z'
'z+1/2, x+1/2, y'
'z+1/2, -x+1/2, -y'
'-z+1/2, -x+1/2, y'
'-z+1/2, x+1/2, -y'
'y+1/2, z+1/2, x'
'-y+1/2, z+1/2, -x'
'y+1/2, -z+1/2, -x'
'-y+1/2, -z+1/2, x'
'y+1/2, x+1/2, z'
'-y+1/2, -x+1/2, z'
'y+1/2, -x+1/2, -z'
'-y+1/2, x+1/2, -z'
'x+1/2, z+1/2, y'
'-x+1/2, z+1/2, -y'
'-x+1/2, -z+1/2, y'
'x+1/2, -z+1/2, -y'
'z+1/2, y+1/2, x'
'z+1/2, -y+1/2, -x'
'-z+1/2, y+1/2, -x'
'-z+1/2, -y+1/2, x'
loop_
_atom_site_label
_atom_site_type_symbol
_atom_site_fract_x
_atom_site_fract_y
_atom_site_fract_z
_atom_site_U_iso_or_equiv
_atom_site_adp_type
_atom_site_occupancy
_atom_site_symmetry_multiplicity
_atom_site_calc_flag
_atom_site_refinement_flags
Ge1 Ge 0.0000 0.0000 0.0000 0.01359(14) Uani 0.76 24 d SP
Cu1 Cu 0.0000 0.0000 0.0000 0.01359(14) Uani 0.24 24 d SP
P2 P 0.2500 0.2500 0.2500 0.0114(2) Uani 0.642(3) 24 d SP
Ge2 Ge 0.2500 0.2500 0.2500 0.0114(2) Uani 0.358(3) 24 d SP
loop_
_atom_site_aniso_label
_atom_site_aniso_U_11
_atom_site_aniso_U_22
_atom_site_aniso_U_33
_atom_site_aniso_U_23
_atom_site_aniso_U_13
_atom_site_aniso_U_12
Ge1 0.01359(14) 0.01359(14) 0.01359(14) 0.000 0.000 0.000
Cu1 0.01359(14) 0.01359(14) 0.01359(14) 0.000 0.000 0.000
P2 0.0114(2) 0.0114(2) 0.0114(2) 0.000 0.000 0.000
Ge2 0.0114(2) 0.0114(2) 0.0114(2) 0.000 0.000 0.000
loop_
_atom_type_symbol
_atom_type_description
_atom_type_scat_dispersion_real
_atom_type_scat_dispersion_imag
_atom_type_scat_source
P P 0.1023 0.0942 'International Tables Vol C Tables 4.2.6.8 and 6.1.1.4'
Cu Cu 0.3201 1.2651 'International Tables Vol C Tables 4.2.6.8 and 6.1.1.4'
Ge Ge 0.1547 1.8001 'International Tables Vol C Tables 4.2.6.8 and 6.1.1.4'
loop_
_geom_angle_atom_site_label_1
_geom_angle_atom_site_label_2
_geom_angle_atom_site_label_3
_geom_angle
_geom_angle_site_symmetry_1
_geom_angle_site_symmetry_3
Ge2 Ge1 P2 0.0 . .
Ge2 Ge1 Ge2 109.5 . 73_445
P2 Ge1 Ge2 109.5 . 73_445
Ge2 Ge1 P2 109.5 . 25_544
P2 Ge1 P2 109.5 . 25_544
Ge2 Ge1 P2 109.5 73_445 25_544
Ge2 Ge1 P2 109.5 . 49_454
P2 Ge1 P2 109.5 . 49_454
Ge2 Ge1 P2 109.5 73_445 49_454
P2 Ge1 P2 109.5 25_544 49_454
Ge2 Ge1 P2 109.5 . 73_445
P2 Ge1 P2 109.5 . 73_445
Ge2 Ge1 P2 0.0 73_445 73_445
P2 Ge1 P2 109.5 25_544 73_445
P2 Ge1 P2 109.5 49_454 73_445
Ge2 Ge1 Ge2 109.5 . 25_544
P2 Ge1 Ge2 109.5 . 25_544
Ge2 Ge1 Ge2 109.5 73_445 25_544
P2 Ge1 Ge2 0.0 25_544 25_544
P2 Ge1 Ge2 109.5 49_454 25_544
P2 Ge1 Ge2 109.5 73_445 25_544
Ge2 Ge1 Ge2 109.5 . 49_454
P2 Ge1 Ge2 109.5 . 49_454
Ge2 Ge1 Ge2 109.5 73_445 49_454
P2 Ge1 Ge2 109.5 25_544 49_454
P2 Ge1 Ge2 0.0 49_454 49_454
P2 Ge1 Ge2 109.5 73_445 49_454
Ge2 Ge1 Ge2 109.5 25_544 49_454
Ge2 Cu1 P2 0.0 . .
Ge2 Cu1 Ge2 109.5 . 73_445
P2 Cu1 Ge2 109.5 . 73_445
Ge2 Cu1 P2 109.5 . 25_544
P2 Cu1 P2 109.5 . 25_544
Ge2 Cu1 P2 109.5 73_445 25_544
Ge2 Cu1 P2 109.5 . 49_454
P2 Cu1 P2 109.5 . 49_454
Ge2 Cu1 P2 109.5 73_445 49_454
P2 Cu1 P2 109.5 25_544 49_454
Ge2 Cu1 P2 109.5 . 73_445
P2 Cu1 P2 109.5 . 73_445
Ge2 Cu1 P2 0.0 73_445 73_445
P2 Cu1 P2 109.5 25_544 73_445
P2 Cu1 P2 109.5 49_454 73_445
Ge2 Cu1 Ge2 109.5 . 25_544
P2 Cu1 Ge2 109.5 . 25_544
Ge2 Cu1 Ge2 109.5 73_445 25_544
P2 Cu1 Ge2 0.0 25_544 25_544
P2 Cu1 Ge2 109.5 49_454 25_544
P2 Cu1 Ge2 109.5 73_445 25_544
Ge2 Cu1 Ge2 109.5 . 49_454
P2 Cu1 Ge2 109.5 . 49_454
Ge2 Cu1 Ge2 109.5 73_445 49_454
P2 Cu1 Ge2 109.5 25_544 49_454
P2 Cu1 Ge2 0.0 49_454 49_454
P2 Cu1 Ge2 109.5 73_445 49_454
Ge2 Cu1 Ge2 109.5 25_544 49_454
Cu1 P2 Ge1 0.0 . .
Cu1 P2 Cu1 109.5 . 73
Ge1 P2 Cu1 109.5 . 73
Cu1 P2 Ge1 109.5 . 25
Ge1 P2 Ge1 109.5 . 25
Cu1 P2 Ge1 109.5 73 25
Cu1 P2 Ge1 109.5 . 49
Ge1 P2 Ge1 109.5 . 49
Cu1 P2 Ge1 109.5 73 49
Ge1 P2 Ge1 109.5 25 49
Cu1 P2 Ge1 109.5 . 73
Ge1 P2 Ge1 109.5 . 73
Cu1 P2 Ge1 0.0 73 73
Ge1 P2 Ge1 109.5 25 73
Ge1 P2 Ge1 109.5 49 73
Cu1 P2 Cu1 109.5 . 25
Ge1 P2 Cu1 109.5 . 25
Cu1 P2 Cu1 109.5 73 25
Ge1 P2 Cu1 0.0 25 25
Ge1 P2 Cu1 109.5 49 25
Ge1 P2 Cu1 109.5 73 25
Cu1 P2 Cu1 109.5 . 49
Ge1 P2 Cu1 109.5 . 49
Cu1 P2 Cu1 109.5 73 49
Ge1 P2 Cu1 109.5 25 49
Ge1 P2 Cu1 0.0 49 49
Ge1 P2 Cu1 109.5 73 49
Cu1 P2 Cu1 109.5 25 49
Cu1 Ge2 Ge1 0.0 . .
Cu1 Ge2 Cu1 109.5 . 73
Ge1 Ge2 Cu1 109.5 . 73
Cu1 Ge2 Ge1 109.5 . 25
Ge1 Ge2 Ge1 109.5 . 25
Cu1 Ge2 Ge1 109.5 73 25
Cu1 Ge2 Ge1 109.5 . 49
Ge1 Ge2 Ge1 109.5 . 49
Cu1 Ge2 Ge1 109.5 73 49
Ge1 Ge2 Ge1 109.5 25 49
Cu1 Ge2 Ge1 109.5 . 73
Ge1 Ge2 Ge1 109.5 . 73
Cu1 Ge2 Ge1 0.0 73 73
Ge1 Ge2 Ge1 109.5 25 73
Ge1 Ge2 Ge1 109.5 49 73
Cu1 Ge2 Cu1 109.5 . 25
Ge1 Ge2 Cu1 109.5 . 25
Cu1 Ge2 Cu1 109.5 73 25
Ge1 Ge2 Cu1 0.0 25 25
Ge1 Ge2 Cu1 109.5 49 25
Ge1 Ge2 Cu1 109.5 73 25
Cu1 Ge2 Cu1 109.5 . 49
Ge1 Ge2 Cu1 109.5 . 49
Cu1 Ge2 Cu1 109.5 73 49
Ge1 Ge2 Cu1 109.5 25 49
Ge1 Ge2 Cu1 0.0 49 49
Ge1 Ge2 Cu1 109.5 73 49
Cu1 Ge2 Cu1 109.5 25 49
loop_
_geom_bond_atom_site_label_1
_geom_bond_atom_site_label_2
_geom_bond_distance
_geom_bond_site_symmetry_2
Ge1 Ge2 2.3578(6) .
Ge1 P2 2.3578(6) .
Ge1 Ge2 2.3578(6) 73_445
Ge1 P2 2.3578(6) 25_544
Ge1 P2 2.3578(6) 49_454
Ge1 P2 2.3578(6) 73_445
Ge1 Ge2 2.3578(6) 25_544
Ge1 Ge2 2.3578(6) 49_454
Cu1 Ge2 2.3578(6) .
Cu1 P2 2.3578(6) .
Cu1 Ge2 2.3578(6) 73_445
Cu1 P2 2.3578(6) 25_544
Cu1 P2 2.3578(6) 49_454
Cu1 P2 2.3578(6) 73_445
Cu1 Ge2 2.3578(6) 25_544
Cu1 Ge2 2.3578(6) 49_454
P2 Cu1 2.3578(6) 73
P2 Ge1 2.3578(6) 25
P2 Ge1 2.3578(6) 49
P2 Ge1 2.3578(6) 73
P2 Cu1 2.3578(6) 25
P2 Cu1 2.3578(6) 49
Ge2 Cu1 2.3578(6) 73
Ge2 Ge1 2.3578(6) 25
Ge2 Ge1 2.3578(6) 49
Ge2 Ge1 2.3578(6) 73
Ge2 Cu1 2.3578(6) 25
Ge2 Cu1 2.3578(6) 49
