#------------------------------------------------------------------------------
#$Date: 2016-02-16 03:10:39 +0200 (Tue, 16 Feb 2016) $
#$Revision: 176453 $
#$URL: svn://www.crystallography.net/cod/cif/7/03/17/7031726.cif $
#------------------------------------------------------------------------------
#
# This file is available in the Crystallography Open Database (COD),
# http://www.crystallography.net/
#
# All data on this site have been placed in the public domain by the
# contributors.
#
data_7031726
loop_
_publ_author_name
'Ben Yahia, Hamdi'
'Mori, Daisuke'
'Shikano, Masahiro'
'Kobayashi, Hironori'
'Inaguma, Yoshiyuki'
_publ_section_title
;
 Structural, magnetic, and electrochemical properties of the high pressure
 form of Na2Co[PO4]F.
;
_journal_issue                   36
_journal_name_full
'Dalton transactions (Cambridge, England : 2003)'
_journal_page_first              13630
_journal_page_last               13636
_journal_paper_doi               10.1039/c4dt01418a
_journal_volume                  43
_journal_year                    2014
_chemical_compound_source        'high pressure synthesis'
_chemical_formula_moiety         'Co1 F1 Na2 O4 P1'
_chemical_formula_sum            'Co F Na2 O4 P'
_chemical_formula_weight         218.9
_chemical_name_systematic        ' ?'
_space_group_IT_number           176
_symmetry_cell_setting           hexagonal
_symmetry_Int_Tables_number      176
_symmetry_space_group_name_Hall  '-P 6c'
_symmetry_space_group_name_H-M   'P 63/m'
_cell_angle_alpha                90
_cell_angle_beta                 90
_cell_angle_gamma                120
_cell_formula_units_Z            6
_cell_length_a                   10.5484(15)
_cell_length_b                   10.5484(15)
_cell_length_c                   6.5261(9)
_cell_measurement_reflns_used    3491
_cell_measurement_temperature    293
_cell_measurement_theta_max      27.93
_cell_measurement_theta_min      2.23
_cell_volume                     628.87(15)
_diffrn_ambient_temperature      293
_diffrn_measured_fraction_theta_full 1
_diffrn_measured_fraction_theta_max 1
_diffrn_measurement_device       'four-cycle diffractometer'
_diffrn_measurement_device_type  'Smart Apex'
_diffrn_measurement_method       multi-scan
_diffrn_radiation_monochromator  graphite
_diffrn_radiation_probe          x-ray
_diffrn_radiation_source         'X-ray tube'
_diffrn_radiation_type           'Mo K\a'
_diffrn_radiation_wavelength     0.71069
_diffrn_reflns_av_R_equivalents  0.0513
_diffrn_reflns_av_unetI/netI     0.0472
_diffrn_reflns_limit_h_max       10
_diffrn_reflns_limit_h_min       -13
_diffrn_reflns_limit_k_max       10
_diffrn_reflns_limit_k_min       -13
_diffrn_reflns_limit_l_max       8
_diffrn_reflns_limit_l_min       -8
_diffrn_reflns_number            3491
_diffrn_reflns_theta_full        27.93
_diffrn_reflns_theta_max         27.93
_diffrn_reflns_theta_min         2.23
_exptl_absorpt_coefficient_mu    4.612
_exptl_absorpt_correction_T_max  0.917
_exptl_absorpt_correction_T_min  0.752
_exptl_absorpt_correction_type   multi-scan
_exptl_absorpt_process_details   SADABS
_exptl_crystal_colour            colorless
_exptl_crystal_density_diffrn    3.4666
_exptl_crystal_description       needle
_exptl_crystal_F_000             630
_exptl_crystal_size_max          0.060
_exptl_crystal_size_mid          0.030
_exptl_crystal_size_min          0.025
_refine_diff_density_max         0.70
_refine_diff_density_min         -0.76
_refine_ls_extinction_coef       260(140)
_refine_ls_extinction_method
'B-C type 1 Gaussian isotropic (Becker & Coppens, 1974)'
_refine_ls_goodness_of_fit_gt    1.20
_refine_ls_goodness_of_fit_ref   1.17
_refine_ls_number_constraints    0
_refine_ls_number_parameters     52
_refine_ls_number_reflns         523
_refine_ls_number_restraints     0
_refine_ls_R_factor_all          0.0621
_refine_ls_R_factor_gt           0.0349
_refine_ls_shift/su_max          0.0000
_refine_ls_shift/su_mean         0.0000
_refine_ls_structure_factor_coef Fsqd
_refine_ls_weighting_details     w=1/(\s^2^(I)+0.0009I^2^)
_refine_ls_weighting_scheme      sigma
_refine_ls_wR_factor_gt          0.0727
_refine_ls_wR_factor_ref         0.0870
_reflns_number_gt                364
_reflns_number_total             523
_reflns_threshold_expression     I>3\s(I)
_cod_data_source_file            c4dt01418a2.cif
_cod_data_source_block           I
_cod_depositor_comments
;
The following automatic conversions were performed:

'_diffrn_radiation_probe' value 'X-ray' changed to 'x-ray' according
to
/usr/data/users/saulius/crontab/automatic-downloads/rss-feeds/RSC/lib/dictionaries/cif_core.dic
dictionary named 'cif_core.dic' version 2.4.2 from 2011-04-26.

Automatic conversion script
Id: cif_fix_values 2281 2013-09-26 08:29:07Z andrius 

 Adding full bibliography for 7031726.cif.
;
_cod_original_formula_sum        'Co1 F1 Na2 O4 P1'
_cod_database_code               7031726
loop_
_symmetry_equiv_pos_site_id
_symmetry_equiv_pos_as_xyz
1 x,y,z
2 -y,x-y,z
3 -x+y,-x,z
4 -x,-y,z+1/2
5 y,-x+y,z+1/2
6 x-y,x,z+1/2
7 -x,-y,-z
8 y,-x+y,-z
9 x-y,x,-z
10 x,y,-z+1/2
11 -y,x-y,-z+1/2
12 -x+y,-x,-z+1/2
loop_
_atom_site_label
_atom_site_type_symbol
_atom_site_fract_x
_atom_site_fract_y
_atom_site_fract_z
_atom_site_adp_type
_atom_site_U_iso_or_equiv
_atom_site_site_symmetry_multiplicity
_atom_site_occupancy
_atom_site_calc_flag
Na3 Na 0.333333 0.666667 0.0291(5) Uani 0.0180(10) 4 1 d
Na2 Na 0.1699(3) 0.3149(3) 0.25 Uani 0.0188(12) 6 1 d
Na1 Na 0 0 0 Uani 0.0199(13) 2 1 d
Co Co 0.5 0 0 Uani 0.0100(4) 6 1 d
P P 0.82152(17) 0.19138(18) 0.25 Uani 0.0089(6) 6 1 d
O1 O 0.6520(5) 0.0928(5) 0.25 Uani 0.0136(18) 6 1 d
O2 O 0.8622(3) 0.2868(3) 0.4437(5) Uani 0.0134(13) 12 1 d
O3 O 0.8972(5) 0.1007(5) 0.25 Uani 0.017(2) 6 1 d
F F 0.3792(4) 0.8617(4) 0.25 Uani 0.0130(15) 6 1 d
loop_
_atom_site_aniso_label
_atom_site_aniso_type_symbol
_atom_site_aniso_U_11
_atom_site_aniso_U_22
_atom_site_aniso_U_33
_atom_site_aniso_U_12
_atom_site_aniso_U_13
_atom_site_aniso_U_23
Na3 Na 0.0169(11) 0.0169(11) 0.0202(19) 0.0084(5) 0 0
Na2 Na 0.0230(15) 0.0206(15) 0.0150(15) 0.0125(13) 0 0
Na1 Na 0.0191(15) 0.0191(15) 0.021(3) 0.0096(8) 0 0
Co Co 0.0123(5) 0.0102(5) 0.0086(4) 0.0065(4) 0.0007(3) 0.0001(3)
P P 0.0079(8) 0.0096(8) 0.0082(8) 0.0036(7) 0 0
O1 O 0.007(2) 0.017(2) 0.015(3) 0.0042(18) 0 0
O2 O 0.0139(16) 0.0133(16) 0.0097(16) 0.0044(13) 0.0005(13) 0.0004(13)
O3 O 0.018(2) 0.018(3) 0.022(3) 0.012(2) 0 0
F F 0.0113(18) 0.015(2) 0.0095(19) 0.0045(15) 0 0
loop_
_atom_type_symbol
_atom_type_scat_dispersion_real
_atom_type_scat_dispersion_imag
_atom_type_scat_source
Co 0.3494 0.9721 'International Tables Vol C tables 4.2.6.8 and 6.1.1.1'
F 0.0171 0.0103 'International Tables Vol C tables 4.2.6.8 and 6.1.1.1'
Na 0.0362 0.0249 'International Tables Vol C tables 4.2.6.8 and 6.1.1.1'
O 0.0106 0.0060 'International Tables Vol C tables 4.2.6.8 and 6.1.1.1'
P 0.1023 0.0942 'International Tables Vol C tables 4.2.6.8 and 6.1.1.1'
loop_
_geom_angle_atom_site_label_1
_geom_angle_atom_site_label_2
_geom_angle_atom_site_label_3
_geom_angle_site_symmetry_1
_geom_angle_site_symmetry_3
_geom_angle
O1 P O2 . . 106.80(18)
O1 P O2 . 10_555 106.80(18)
O1 P O3 . . 111.7(3)
O2 P O2 . 10_555 110.63(19)
O2 P O3 . . 110.43(18)
O2 P O3 10_555 . 110.43(18)
loop_
_geom_bond_atom_site_label_1
_geom_bond_atom_site_label_2
_geom_bond_site_symmetry_2
_geom_bond_distance
Na3 Na3 10_555 2.883(5)
Na3 O2 4_664 2.412(4)
Na3 O2 5_564 2.412(5)
Na3 O2 6_554 2.412(3)
Na3 F . 2.356(4)
Na3 F 2_665 2.356(3)
Na3 F 3_565 2.356(5)
Na2 O1 3_665 2.700(8)
Na2 O2 5_564 2.330(3)
Na2 O2 8_566 2.330(3)
Na2 O3 1_455 2.623(4)
Na2 O3 3_665 2.434(7)
Na2 F 2_665 2.321(7)
Na1 O3 1_455 2.474(5)
Na1 O3 2_545 2.474(5)
Na1 O3 3_665 2.474(5)
Na1 O3 4_654 2.474(5)
Na1 O3 5_564 2.474(5)
Na1 O3 6_444 2.474(5)
Co O1 . 2.150(3)
Co O1 4_654 2.150(3)
Co O2 6_544 2.009(5)
Co O2 12_665 2.009(5)
Co F 1_545 2.1340(19)
Co F 4_664 2.1340(19)
P O1 . 1.555(4)
P O2 . 1.537(3)
P O2 10_555 1.537(3)
P O3 . 1.521(7)
O1 O2 . 2.483(4)
O1 O2 3_665 2.952(7)
O1 O2 6_544 2.932(5)
O1 O2 9_546 2.932(5)
O1 O2 10_555 2.483(4)
O1 O2 12_665 2.952(7)
O1 O3 . 2.546(8)
O1 F 1_545 2.685(5)
O2 O2 10_555 2.528(4)
O2 O3 . 2.512(6)
O2 F 2_765 2.985(4)
O2 F 4_665 2.991(4)
O2 F 5_555 2.875(6)
loop_
_refln_index_h
_refln_index_k
_refln_index_l
_refln_F_squared_calc
_refln_F_squared_meas
_refln_F_squared_sigma
_refln_observed_status
0 1 0 2473.41 2488.31 37.01 o
-1 2 0 2737.94 2753.13 42.82 o
0 2 0 8220.72 8431.55 102.03 o
-2 3 0 66.06 74.32 13.17 o
-1 3 0 325.63 406.73 22.63 o
0 3 0 5240.58 5484.88 111.38 o
-3 4 0 6171.38 6460.56 111.03 o
-2 4 0 53188.00 52864.80 680.14 o
-1 4 0 6.06 16.40 12.68 <
0 4 0 639.28 588.22 35.97 o
-4 5 0 5094.44 5245.75 112.32 o
-3 5 0 2114.93 2104.17 59.64 o
-2 5 0 443.24 423.17 33.05 o
-1 5 0 1131.46 1124.26 45.92 o
0 5 0 852.16 918.16 50.11 o
-5 6 0 482.71 457.57 48.32 o
-4 6 0 4613.37 4719.69 114.57 o
-3 6 0 14.61 23.91 15.91 <
-2 6 0 14602.20 15190.40 178.80 o
-1 6 0 1415.85 1330.19 64.36 o
0 6 0 28298.00 28851.50 367.72 o
-6 7 0 1662.26 1778.62 94.67 o
-5 7 0 408.47 369.95 51.14 o
-4 7 0 178.12 330.65 50.17 o
-3 7 0 1054.84 965.85 52.29 o
-2 7 0 1535.80 1418.18 69.85 o
-1 7 0 2252.70 2266.51 103.84 o
0 7 0 185.99 240.97 38.69 o
-7 8 0 49.46 57.35 24.15 <
-6 8 0 4629.51 4602.47 158.91 o
-5 8 0 394.04 451.22 54.86 o
-4 8 0 26840.20 26461.20 458.57 o
-3 8 0 1213.46 1182.04 101.51 o
-2 8 0 4364.79 4075.67 144.32 o
-1 8 0 288.70 264.57 44.59 o
0 8 0 3566.89 3478.85 142.79 o
-8 9 0 1711.92 1754.50 100.88 o
-6 9 0 756.83 773.03 62.86 o
-5 9 0 1104.22 1080.97 97.06 o
-4 9 0 1281.90 1243.91 103.85 o
-3 9 0 56.38 71.25 41.28 <
-2 9 0 104.19 127.95 55.33 <
-1 9 0 81.81 132.15 53.15 <
0 9 0 262.57 374.75 57.03 o
-9 10 0 785.10 672.16 59.55 o
-8 10 0 12713.50 13254.70 310.66 o
-7 10 0 393.48 426.64 58.33 o
-6 10 0 1384.35 1465.56 113.39 o
-5 10 0 5.16 49.92 22.94 <
-4 10 0 2486.56 2385.57 192.27 o
-3 10 0 1308.54 1491.45 154.76 o
-2 10 0 8132.54 8744.28 556.59 o
-1 10 0 168.63 179.41 54.28 o
0 10 0 4053.50 4299.33 265.95 o
-10 11 0 20.58 37.32 37.56 <
-9 11 0 570.48 514.64 82.73 o
-8 11 0 266.79 425.40 63.74 o
-7 11 0 1026.14 1060.47 93.89 o
-6 11 0 317.34 615.17 132.97 o
-5 11 0 42.93 80.70 24.88 o
-4 11 0 328.58 401.82 87.09 o
-3 11 0 2029.65 2077.53 185.35 o
-2 11 0 434.42 668.27 112.78 o
-1 11 0 71.10 84.25 26.17 o
0 11 0 42.24 12.20 26.17 <
-11 12 0 6.77 -38.13 70.36 <
-10 12 0 538.91 452.09 235.74 <
-9 12 0 23.67 22.46 19.14 <
-8 12 0 2523.31 2458.12 196.12 o
-7 12 0 967.84 966.46 150.37 o
-6 12 0 5155.92 5279.46 308.68 o
-5 12 0 335.45 363.61 59.21 o
-4 12 0 2896.04 3010.22 228.40 o
-3 12 0 513.40 614.88 85.80 o
-2 12 0 1151.05 1292.78 140.84 o
-1 12 0 456.00 543.69 76.75 o
-10 13 0 726.21 337.95 120.46 <
-9 13 0 138.07 45.07 43.94 <
-8 13 0 6.09 29.32 37.64 <
-7 13 0 706.22 777.06 289.88 <
-6 13 0 11.42 -23.51 25.44 <
-5 13 0 176.25 194.92 40.55 o
-4 13 0 34.48 19.87 25.93 <
0 1 1 183.94 198.46 10.10 o
-1 2 1 0.63 9.37 6.95 <
0 2 1 3753.37 3874.63 45.82 o
-2 3 1 53.95 58.81 11.79 o
-1 3 1 31.56 44.02 11.87 o
0 3 1 1408.42 1286.09 30.58 o
-3 4 1 8.52 22.05 9.21 <
-2 4 1 658.54 684.61 22.95 o
-1 4 1 672.18 717.50 23.76 o
0 4 1 2689.42 2939.22 53.03 o
-4 5 1 1393.98 1381.24 39.14 o
-3 5 1 363.50 357.86 21.17 o
-2 5 1 828.30 802.46 27.64 o
-1 5 1 771.49 757.46 27.64 o
0 5 1 51.74 62.28 18.50 o
-5 6 1 869.96 869.77 40.33 o
-4 6 1 377.54 377.39 24.24 o
-3 6 1 12.91 39.34 12.36 o
-2 6 1 16.09 42.81 11.95 o
-1 6 1 2204.26 2235.33 54.03 o
0 6 1 59.66 97.09 19.39 o
-6 7 1 252.60 270.47 33.36 o
-5 7 1 2969.27 2887.13 77.67 o
-4 7 1 1720.11 1663.39 58.30 o
-3 7 1 174.28 179.90 24.72 o
-2 7 1 367.71 366.95 37.65 o
-1 7 1 908.61 950.60 46.55 o
0 7 1 240.92 287.67 31.75 o
-7 8 1 59.35 91.04 19.23 o
-6 8 1 159.55 178.20 25.61 o
-5 8 1 353.04 374.54 38.94 o
-4 8 1 25.23 50.97 26.09 <
-3 8 1 156.90 167.86 36.19 o
-2 8 1 5.13 5.90 18.74 <
-1 8 1 235.51 255.28 35.79 o
0 8 1 183.07 236.77 29.65 o
-8 9 1 1.56 24.31 13.65 <
-7 9 1 56.85 76.42 13.25 o
-6 9 1 3071.75 2996.52 95.03 o
-5 9 1 1129.22 1154.76 71.92 o
-4 9 1 1527.26 1431.22 91.66 o
-3 9 1 1566.01 1664.99 110.33 o
-2 9 1 632.33 629.16 77.16 o
-1 9 1 2.82 25.04 17.53 <
0 9 1 1911.47 2012.81 85.12 o
-9 10 1 15.96 20.36 11.15 <
-8 10 1 141.31 196.70 27.38 o
-7 10 1 70.00 106.46 21.24 o
-6 10 1 32.98 69.47 23.67 <
-5 10 1 8.16 45.07 28.51 <
-4 10 1 52.59 109.69 27.79 o
-3 10 1 522.13 576.04 74.41 o
-1 10 1 229.52 349.06 55.17 o
0 10 1 1.63 36.27 16.40 <
-10 11 1 36.59 45.32 30.21 <
-9 11 1 574.39 622.57 85.23 o
-8 11 1 26.51 53.23 22.13 <
-7 11 1 298.08 305.44 39.66 o
-6 11 1 216.54 258.66 38.94 o
-5 11 1 104.30 120.84 31.91 o
-4 11 1 675.09 749.61 69.89 o
-3 11 1 0.20 57.35 18.50 o
-2 11 1 149.17 250.41 45.07 o
-1 11 1 435.68 564.29 53.72 o
0 11 1 16.24 21.08 17.85 <
-11 12 1 9.56 -20.68 37.24 <
-10 12 1 0.77 13.89 17.45 <
-9 12 1 16.07 21.89 16.80 <
-8 12 1 31.33 32.15 21.65 <
-7 12 1 158.93 136.03 24.96 o
-6 12 1 9.94 15.02 22.70 <
-5 12 1 482.06 482.79 46.13 o
-4 12 1 0.23 -16.40 19.31 <
-3 12 1 2.96 14.70 16.80 <
-2 12 1 289.70 362.55 42.09 o
-1 12 1 651.64 558.02 64.07 o
-9 13 1 1.21 18.34 20.84 <
-8 13 1 129.96 32.47 32.31 <
-6 13 1 72.06 28.19 20.92 <
-5 13 1 129.70 74.88 25.20 <
-4 13 1 0.71 -1.45 17.85 <
0 0 2 39.29 59.21 34.90 <
0 1 2 4347.09 4159.94 57.99 o
-1 2 2 899.99 808.65 28.54 o
0 2 2 24656.50 24142.80 153.46 o
-2 3 2 8607.32 8597.49 88.60 o
0 3 2 3317.39 3194.09 55.01 o
-3 4 2 621.86 600.53 26.51 o
-2 4 2 7886.47 7928.88 89.99 o
-1 4 2 7407.74 7346.82 86.53 o
0 4 2 29437.70 30483.60 184.45 o
-4 5 2 695.30 709.61 32.89 o
-3 5 2 1479.30 1423.01 43.99 o
-2 5 2 4346.71 4339.85 73.56 o
-1 5 2 458.71 448.36 25.78 o
0 5 2 3003.61 2974.80 65.06 o
-5 6 2 2545.85 2514.00 66.73 o
-4 6 2 14933.80 15015.00 150.42 o
-3 6 2 93.59 119.88 19.55 o
-2 6 2 22800.80 23453.50 191.22 o
-1 6 2 998.41 989.81 50.59 o
0 6 2 4156.33 4192.89 106.78 o
-6 7 2 487.28 518.21 37.08 o
-5 7 2 29.32 61.71 16.32 o
-4 7 2 3011.63 2893.52 79.53 o
-3 7 2 9584.33 9650.55 126.56 o
-2 7 2 1147.51 1122.78 57.71 o
-1 7 2 651.21 562.86 47.27 o
0 7 2 174.36 192.10 28.03 o
-7 8 2 2.61 84.65 31.34 <
-6 8 2 5514.11 5598.97 120.24 o
-5 8 2 291.44 328.48 32.15 o
-4 8 2 2425.38 2485.15 102.54 o
-3 8 2 951.11 947.74 69.50 o
-2 8 2 6371.62 6464.74 137.38 o
-1 8 2 18.32 49.11 23.51 <
0 8 2 5755.03 5897.29 148.97 o
-8 9 2 135.22 145.81 23.35 o
-7 9 2 3211.79 3330.50 103.28 o
-6 9 2 358.48 367.82 37.73 o
-5 9 2 294.02 361.19 55.74 o
-4 9 2 468.53 479.33 67.06 o
-3 9 2 916.47 873.10 68.52 o
-2 9 2 1287.85 1267.60 85.26 o
-1 9 2 2041.36 2010.42 96.36 o
0 9 2 40.13 61.47 21.57 <
-9 10 2 433.78 403.77 43.30 o
-8 10 2 5717.15 5798.15 145.37 o
-7 10 2 731.17 725.88 65.69 o
-6 10 2 6020.73 6324.74 201.98 o
-5 10 2 127.59 183.04 42.33 o
-4 10 2 4696.03 4613.29 175.10 o
-3 10 2 42.33 63.01 29.48 <
-2 10 2 2889.30 2847.56 154.44 o
-1 10 2 234.05 359.23 57.84 o
0 10 2 1805.36 1860.70 123.09 o
-10 11 2 232.49 217.30 60.18 o
-9 11 2 183.18 130.06 48.71 <
-8 11 2 265.23 273.20 46.85 o
-7 11 2 203.51 210.43 38.77 o
-6 11 2 380.90 411.04 52.03 o
-5 11 2 1251.61 1210.61 90.18 o
-4 11 2 30.51 37.64 20.44 <
-3 11 2 2.24 12.60 23.02 <
-2 11 2 356.08 353.35 49.92 o
-1 11 2 7.92 63.33 30.69 <
0 11 2 1862.06 1966.46 123.82 o
-11 12 2 110.58 36.35 43.54 <
-10 12 2 3998.00 3396.74 334.81 o
-9 12 2 450.65 188.15 115.77 <
-8 12 2 1713.59 1680.14 119.37 o
-7 12 2 68.59 39.98 31.34 <
-6 12 2 3158.38 3216.62 166.56 o
-5 12 2 550.77 524.32 48.47 o
-4 12 2 4908.45 5001.20 219.72 o
-3 12 2 817.09 890.93 72.39 o
-2 12 2 2470.33 2521.50 146.31 o
-8 13 2 73.64 16.64 25.28 <
-6 13 2 1131.09 920.42 81.21 o
-5 13 2 6.47 -44.83 40.31 <
0 1 3 31.00 38.13 15.51 <
-1 2 3 966.65 1045.79 38.96 o
0 2 3 28.47 29.32 15.11 <
-2 3 3 1270.83 1238.21 42.69 o
-1 3 3 401.50 391.47 30.30 o
0 3 3 51.89 46.77 16.56 <
-3 4 3 88.30 122.30 22.38 o
-2 4 3 9.11 21.16 15.35 <
-1 4 3 343.48 360.58 30.06 o
0 4 3 600.14 595.77 36.60 o
-4 5 3 899.86 848.16 43.24 o
-3 5 3 92.20 105.09 23.67 o
-2 5 3 3892.03 3865.08 75.78 o
-1 5 3 3.34 13.57 16.96 <
0 5 3 138.96 147.10 25.69 o
-5 6 3 695.32 704.92 43.07 o
-4 6 3 448.30 504.56 38.13 o
-3 6 3 483.61 486.23 36.28 o
-2 6 3 45.39 61.07 18.90 o
-1 6 3 118.06 139.83 29.32 o
0 6 3 211.81 248.97 31.26 o
-6 7 3 156.77 175.05 27.30 o
-5 7 3 4295.54 4124.84 103.43 o
-4 7 3 21.74 37.64 17.45 <
-3 7 3 191.27 195.82 28.60 o
-2 7 3 968.15 993.97 54.30 o
-1 7 3 2627.24 2593.61 87.50 o
0 7 3 627.34 671.58 48.40 o
-7 8 3 31.52 32.71 21.73 <
-6 8 3 80.51 138.05 24.48 o
-5 8 3 47.58 60.66 19.71 o
-4 8 3 68.71 72.38 26.17 <
-3 8 3 4.53 25.04 21.24 <
-2 8 3 81.86 105.33 35.62 <
-1 8 3 540.34 549.15 49.61 o
0 8 3 756.77 722.17 58.09 o
-8 9 3 58.94 70.52 24.88 <
-7 9 3 167.51 157.60 24.80 o
-6 9 3 1437.07 1400.19 89.63 o
-5 9 3 2234.65 2351.43 107.85 o
-4 9 3 914.65 940.15 71.91 o
-3 9 3 1268.12 1187.64 80.09 o
-2 9 3 531.54 548.09 65.44 o
-1 9 3 398.48 342.05 43.06 o
0 9 3 2448.87 2338.53 98.39 o
-9 10 3 1.60 19.79 20.92 <
-8 10 3 114.85 120.12 34.01 o
-7 10 3 104.18 103.23 45.24 <
-6 10 3 614.24 626.14 68.67 o
-5 10 3 128.11 185.55 40.79 o
-4 10 3 63.36 43.94 35.14 <
-3 10 3 500.40 367.51 53.72 o
-2 10 3 62.94 67.37 33.44 <
-1 10 3 57.79 106.30 28.19 o
0 10 3 103.30 104.61 43.46 <
-10 11 3 246.89 398.74 197.75 <
-9 11 3 434.48 233.47 75.78 o
-8 11 3 25.58 52.83 46.37 <
-7 11 3 71.16 59.45 36.35 <
-6 11 3 56.54 97.82 39.98 <
-5 11 3 23.41 22.46 39.01 <
-4 11 3 124.58 192.09 28.84 o
-3 11 3 227.76 240.24 44.83 o
-2 11 3 527.88 613.18 64.31 o
-1 11 3 191.18 217.78 37.16 o
0 11 3 93.52 35.78 44.43 <
-9 12 3 151.65 139.34 70.12 <
-8 12 3 96.77 25.12 47.98 <
-7 12 3 2.10 -1.78 42.08 <
-6 12 3 10.43 -8.80 18.74 <
-5 12 3 45.37 176.50 127.22 <
-4 12 3 20.00 26.01 30.45 <
-3 12 3 42.34 27.63 19.39 <
-2 12 3 85.68 3.63 39.98 <
0 0 4 85197.00 82951.50 2186.60 o
0 1 4 534.18 485.78 37.73 o
-1 2 4 1009.28 925.68 43.48 o
0 2 4 4884.82 4707.50 89.68 o
-2 3 4 4.16 21.49 19.79 <
-1 3 4 551.91 524.15 38.87 o
0 3 4 2277.68 2123.57 63.65 o
-3 4 4 1717.50 1534.32 55.46 o
-2 4 4 25803.00 25271.50 211.98 o
-1 4 4 20.49 24.56 22.54 <
0 4 4 1257.33 1214.98 54.96 o
-4 5 4 31.13 39.50 22.46 <
-3 5 4 818.83 807.43 47.76 o
-2 5 4 131.11 142.50 27.55 o
-1 5 4 738.88 743.88 48.81 o
0 5 4 64.13 103.23 25.77 o
-5 6 4 102.07 151.30 28.43 o
-4 6 4 2841.01 2761.22 81.04 o
-3 6 4 34.23 56.95 25.93 <
-2 6 4 3750.71 3737.38 99.28 o
-1 6 4 518.44 561.27 48.72 o
0 6 4 15682.90 15825.80 304.06 o
-6 7 4 716.22 696.48 54.62 o
-5 7 4 344.84 404.50 41.20 o
-4 7 4 12.03 38.29 23.42 <
-3 7 4 798.71 797.11 49.53 o
-2 7 4 1159.48 1185.53 59.32 o
-1 7 4 922.33 975.87 60.60 o
0 7 4 932.11 946.69 61.49 o
-7 8 4 98.26 118.26 50.65 <
-6 8 4 3518.90 3435.96 104.66 o
-5 8 4 1173.65 1178.22 65.78 o
-4 8 4 14327.80 14217.90 249.00 o
-3 8 4 440.66 407.34 53.81 o
-2 8 4 3180.37 3136.87 125.35 o
-1 8 4 160.80 179.25 31.34 o
0 8 4 2454.97 2503.41 99.44 o
-8 9 4 706.46 683.60 71.58 o
-7 9 4 90.97 116.16 35.14 o
-6 9 4 529.00 545.25 51.54 o
-5 9 4 660.25 628.66 63.91 o
-4 9 4 552.03 552.29 67.62 o
-3 9 4 296.71 305.93 53.32 o
-2 9 4 11.12 22.37 35.06 <
-1 9 4 5.11 0.48 35.30 <
0 9 4 264.86 329.99 69.55 o
-9 10 4 368.91 351.57 81.35 o
-8 10 4 5318.40 5240.98 218.62 o
-7 10 4 171.84 249.85 71.81 o
-6 10 4 1277.53 1239.04 95.76 o
-5 10 4 4.95 18.42 45.48 <
-4 10 4 2017.86 1969.71 108.96 o
-3 10 4 745.50 751.07 76.67 o
-2 10 4 5243.56 5141.50 196.45 o
-1 10 4 14.60 25.85 36.51 <
0 10 4 2884.39 2639.86 222.33 o
-10 11 4 12.35 -18.58 36.03 <
-9 11 4 357.60 321.52 87.81 o
-8 11 4 186.60 121.90 56.14 <
-7 11 4 696.47 600.85 118.52 o
-6 11 4 9.67 -45.31 53.23 <
-5 11 4 5.51 -5.33 51.70 <
-4 11 4 229.27 258.74 61.80 o
-3 11 4 1130.28 1189.74 107.55 o
-2 11 4 217.83 83.69 45.64 <
-8 12 4 2108.79 2314.44 453.11 o
-7 12 4 554.56 363.06 182.74 <
-6 12 4 3104.26 2991.20 311.11 o
0 1 5 32.05 68.42 27.79 <
-1 2 5 101.97 98.31 29.81 o
0 2 5 2281.32 2092.23 70.51 o
-2 3 5 461.50 462.13 44.84 o
-1 3 5 36.80 47.74 25.85 <
0 3 5 1060.77 993.60 56.17 o
-3 4 5 34.23 38.69 26.74 <
-2 4 5 393.02 395.46 47.83 o
-1 4 5 627.79 615.03 48.64 o
0 4 5 296.14 343.90 45.24 o
-4 5 5 499.16 569.66 49.44 o
-3 5 5 249.43 226.03 34.90 o
-2 5 5 10.52 61.31 26.25 <
-1 5 5 677.63 710.69 53.08 o
0 5 5 28.03 70.28 23.75 <
-5 6 5 329.68 390.68 42.49 o
-4 6 5 255.78 291.30 35.30 o
-3 6 5 24.51 92.33 27.63 o
-2 6 5 178.00 256.96 33.04 o
-1 6 5 1419.38 1383.29 68.05 o
0 6 5 108.29 143.62 26.25 o
-6 7 5 432.05 438.27 41.52 o
-5 7 5 866.42 916.52 63.35 o
-4 7 5 1379.74 1416.05 70.15 o
-3 7 5 369.62 462.02 47.50 o
-2 7 5 122.95 163.41 31.67 o
-1 7 5 80.26 90.71 25.12 o
0 7 5 100.49 107.19 26.01 o
-7 8 5 51.87 51.78 26.09 <
-6 8 5 432.04 440.45 47.50 o
-5 8 5 249.11 278.54 43.95 o
-4 8 5 75.04 107.19 39.74 <
-3 8 5 55.53 92.97 39.42 <
-2 8 5 8.92 9.37 27.38 <
-1 8 5 39.73 84.49 29.32 <
0 8 5 1.00 5.09 28.84 <
-8 9 5 0.10 27.79 27.14 <
-7 9 5 7.23 87.48 93.78 <
-6 9 5 1655.58 1580.72 110.07 o
-5 9 5 284.00 323.53 69.15 o
-4 9 5 744.03 765.85 82.81 o
-3 9 5 756.90 747.43 83.95 o
-2 9 5 258.04 161.24 64.54 <
-1 9 5 149.44 54.85 37.40 <
0 9 5 750.07 599.08 66.17 o
-9 10 5 12.90 9.94 31.66 <
-8 10 5 78.27 24.23 61.15 <
-7 10 5 57.99 -3.15 52.02 <
-6 10 5 36.36 -12.92 43.86 <
-5 10 5 52.06 36.43 58.08 <
-4 10 5 38.10 68.58 58.32 <
-3 10 5 290.30 347.44 85.79 o
-2 10 5 45.35 26.82 55.90 <
-1 10 5 234.44 134.50 37.00 o
-6 11 5 174.10 315.61 282.32 <
-5 11 5 206.91 64.62 181.59 <
-4 11 5 617.14 660.22 336.65 <
0 0 6 888.60 800.93 144.07 o
0 1 6 498.03 448.07 46.37 o
-1 2 6 105.63 118.91 30.05 o
0 2 6 8944.06 8724.90 152.07 o
-2 3 6 1437.40 1384.85 64.25 o
-1 3 6 1244.87 1205.26 63.12 o
0 3 6 397.97 432.29 48.07 o
-3 4 6 55.74 63.17 29.00 <
-2 4 6 1632.82 1632.49 76.22 o
-1 4 6 1378.56 1254.11 77.18 o
0 4 6 10328.20 10510.30 201.32 o
-4 5 6 531.36 531.20 49.36 o
-3 5 6 151.80 228.85 39.42 o
-2 5 6 486.92 538.94 51.79 o
-1 5 6 50.21 77.06 30.05 <
0 5 6 916.40 973.41 66.98 o
-5 6 6 687.42 738.37 68.11 o
-4 6 6 6176.54 6005.00 147.64 o
-3 6 6 59.00 148.55 31.58 o
-2 6 6 4202.70 4338.09 122.79 o
-1 6 6 242.71 328.05 46.69 o
0 6 6 1338.41 1258.63 72.89 o
-6 7 6 56.41 176.25 79.00 <
-5 7 6 9.02 37.40 25.28 <
-4 7 6 760.49 840.43 62.78 o
-3 7 6 2761.64 2655.94 106.88 o
-2 7 6 175.71 304.30 82.07 o
-1 7 6 45.29 95.80 43.86 <
0 7 6 123.94 71.17 41.68 <
-7 8 6 47.86 44.67 34.25 <
-6 8 6 2979.69 2937.44 124.18 o
-5 8 6 105.82 75.04 41.36 <
-4 8 6 844.04 787.20 102.61 o
-3 8 6 131.07 131.26 77.14 <
-2 8 6 3216.29 3280.16 145.70 o
-1 8 6 10.05 40.71 46.69 <
0 8 6 2891.52 2649.71 172.77 o
-8 9 6 9.67 43.21 30.45 <
-7 9 6 1182.81 1026.77 179.87 o
-6 9 6 36.98 63.57 72.05 <
-5 9 6 57.61 39.18 65.11 <
-4 9 6 31.58 10.18 57.19 <
-3 9 6 45.18 29.08 66.32 <
-2 9 6 585.43 544.52 108.58 o
0 1 7 55.42 82.55 26.49 o
-1 2 7 61.90 148.47 29.48 o
0 2 7 22.59 66.88 26.58 <
-2 3 7 236.08 294.29 38.05 o
-1 3 7 149.48 171.66 34.57 o
0 3 7 120.44 176.74 34.17 o
-3 4 7 21.39 99.03 37.88 <
-2 4 7 0.83 101.70 41.11 <
-1 4 7 131.88 172.14 29.40 o
-4 5 7 216.94 410.61 75.21 o
-3 5 7 194.40 360.28 75.13 o
-2 5 7 1025.00 1159.42 91.22 o
-1 5 7 45.49 118.50 50.81 <
0 5 7 1.43 20.11 32.63 <
-5 6 7 76.30 150.89 65.59 <
-4 6 7 115.96 259.46 83.69 o
-3 6 7 98.15 138.53 46.04 o
-2 6 7 0.43 19.71 32.07 <
-1 6 7 18.45 55.25 33.44 <
0 6 7 45.13 130.53 79.32 <
-5 7 7 1227.50 1057.09 90.02 o
-4 7 7 3.49 -10.58 55.09 <
-3 7 7 65.05 45.40 47.01 <
-2 7 7 295.17 226.27 95.16 <
-1 7 7 798.01 796.79 174.52 o
-5 8 7 3.32 130.69 64.70 <
-4 8 7 7.01 86.75 227.62 <
0 0 8 10126.50 10041.20 466.80 o
0 1 8 66.33 179.08 38.69 o
-1 2 8 439.30 544.66 54.37 o
0 2 8 1498.92 1635.15 80.00 o
-1 3 8 592.49 906.05 109.15 o
0 3 8 810.19 903.12 97.92 o
-2 4 8 5948.37 6195.38 205.78 o
-1 4 8 10.39 440.87 230.29 <
0 4 8 761.12 1709.83 300.71 o
-2 5 8 28.05 -295.23 280.05 <
