#------------------------------------------------------------------------------
#$Date: 2016-03-25 23:10:29 +0200 (Fri, 25 Mar 2016) $
#$Revision: 180028 $
#$URL: svn://www.crystallography.net/cod/cif/7/03/22/7032249.cif $
#------------------------------------------------------------------------------
#
# This file is available in the Crystallography Open Database (COD),
# http://www.crystallography.net/
#
# All data on this site have been placed in the public domain by the
# contributors.
#
data_7032249
loop_
_publ_author_name
'Gu\'nka, Piotr A'
'Kraszewski, Karol'
'Chen, Yu-Sheng'
'Zachara, Janusz'
_publ_section_title
;
 The structure and energetics of arsenic(iii) oxide intercalated by ionic
 azides.
;
_journal_issue                   33
_journal_name_full               'Dalton transactions'
_journal_page_first              12776
_journal_page_last               12783
_journal_paper_doi               10.1039/c4dt01569j
_journal_volume                  43
_journal_year                    2014
_chemical_formula_moiety         '2(As2 O3), N3, K'
_chemical_formula_sum            'As4 K N3 O6'
_chemical_formula_weight         476.81
_chemical_name_systematic
;
 ?
;
_space_group_crystal_system      hexagonal
_space_group_IT_number           191
_space_group_name_Hall           '-P 6 2'
_space_group_name_H-M_alt        'P 6/m m m'
_symmetry_space_group_name_Hall  '-P 6 2'
_symmetry_space_group_name_H-M   'P 6/m m m'
_atom_sites_solution_primary     direct
_audit_creation_date             2014-05-26
_audit_creation_method
;
Olex2 1.2-beta
(compiled 2014.03.20 svn.r2918 for OlexSys, GUI svn.r4816)
;
_cell_angle_alpha                90
_cell_angle_beta                 90
_cell_angle_gamma                120
_cell_formula_units_Z            1
_cell_length_a                   5.2460(11)
_cell_length_b                   5.2460(11)
_cell_length_c                   9.535(2)
_cell_measurement_reflns_used    833
_cell_measurement_temperature    25(2)
_cell_measurement_theta_max      26.42
_cell_measurement_theta_min      2.44
_cell_volume                     227.25(8)
_computing_data_reduction        'SAINT v8.34A (Bruker, 2013)'
_computing_molecular_graphics    'Olex2 (Dolomanov et al., 2009)'
_computing_publication_material  'Olex2 (Dolomanov et al., 2009)'
_computing_structure_refinement  'ShelXL (Sheldrick, 2008)'
_computing_structure_solution    'ShelXS-1997 (Sheldrick, 2008)'
_diffrn_ambient_temperature      25(2)
_diffrn_detector                 'APEXII CCD area detector'
_diffrn_detector_type            'Bruker APEXII'
_diffrn_measured_fraction_theta_full 0.805
_diffrn_measured_fraction_theta_max 0.853
_diffrn_measurement_details
'0.5 degree frames measured for 0.3 seconds each'
_diffrn_measurement_device       'three-circle goniometer with fixed chi'
_diffrn_measurement_device_type  'Bruker APEX-II CCD'
_diffrn_measurement_method       '\f scans'
_diffrn_radiation_monochromator  'silicon 1 1 1 and 3 1 1'
_diffrn_radiation_type           synchrotron
_diffrn_radiation_wavelength     0.38745
_diffrn_reflns_av_R_equivalents  0.0248
_diffrn_reflns_av_unetI/netI     0.0190
_diffrn_reflns_Laue_measured_fraction_full 0.805
_diffrn_reflns_Laue_measured_fraction_max 0.853
_diffrn_reflns_limit_h_max       7
_diffrn_reflns_limit_h_min       -1
_diffrn_reflns_limit_k_max       4
_diffrn_reflns_limit_k_min       -5
_diffrn_reflns_limit_l_max       11
_diffrn_reflns_limit_l_min       -13
_diffrn_reflns_number            794
_diffrn_reflns_point_group_measured_fraction_full 0.805
_diffrn_reflns_point_group_measured_fraction_max 0.853
_diffrn_reflns_theta_full        13.443
_diffrn_reflns_theta_max         15.983
_diffrn_reflns_theta_min         2.707
_diffrn_source                   synchrotron
_diffrn_standards_number         0
_exptl_absorpt_coefficient_mu    2.860
_exptl_absorpt_correction_T_max  0.8878
_exptl_absorpt_correction_T_min  0.7213
_exptl_absorpt_correction_type   multi-scan
_exptl_absorpt_process_details
;
SADABS-2012/1 (Bruker,2012) was used for absorption correction.
wR2(int) was 0.0703 before and 0.0455 after correction.
The Ratio of minimum to maximum transmission is 0.8125.
The \l/2 correction factor is Not present.
;
_exptl_crystal_colour            colourless
_exptl_crystal_colour_primary    colourless
_exptl_crystal_density_diffrn    3.484
_exptl_crystal_description       plate
_exptl_crystal_F_000             220
_exptl_crystal_size_max          0.04
_exptl_crystal_size_mid          0.037
_exptl_crystal_size_min          0.003
_refine_diff_density_max         2.000
_refine_diff_density_min         -0.956
_refine_diff_density_rms         0.168
_refine_ls_extinction_method     none
_refine_ls_goodness_of_fit_ref   1.299
_refine_ls_hydrogen_treatment    undef
_refine_ls_matrix_type           full
_refine_ls_number_parameters     15
_refine_ls_number_reflns         157
_refine_ls_number_restraints     0
_refine_ls_restrained_S_all      1.299
_refine_ls_R_factor_all          0.0333
_refine_ls_R_factor_gt           0.0314
_refine_ls_shift/su_max          0.000
_refine_ls_shift/su_mean         0.000
_refine_ls_structure_factor_coef Fsqd
_refine_ls_weighting_details
'w=1/[\s^2^(Fo^2^)+(0.0364P)^2^+1.2150P] where P=(Fo^2^+2Fc^2^)/3'
_refine_ls_weighting_scheme      calc
_refine_ls_wR_factor_gt          0.0837
_refine_ls_wR_factor_ref         0.0846
_reflns_Friedel_coverage         0.000
_reflns_number_gt                149
_reflns_number_total             157
_reflns_threshold_expression     'I > 2\s(I)'
_iucr_refine_instructions_details
;
TITL int_25K in P6/mmm
CELL 0.38745 5.246 5.246 9.5355 90 90 120
ZERR 1 0.0011 0.0011 0.002 0 0 0
LATT 1
SYMM -Y,+X-Y,+Z
SYMM +Y-X,-X,+Z
SYMM -X,-Y,+Z
SYMM +Y,-X+Y,+Z
SYMM -Y+X,+X,+Z
SYMM +Y,+X,-Z
SYMM -Y+X,-Y,-Z
SYMM -X,-X+Y,-Z
SYMM -Y,-X,-Z
SYMM +Y-X,+Y,-Z
SYMM +X,+X-Y,-Z

SFAC N O K As
DISP As 0.273 0.685 5984.98
DISP K 0.071 0.074 161.82
DISP N 0 0.001 5.5
DISP O 0.001 0.002 20.54
UNIT 3 6 1 4

L.S. 10
PLAN  20
TEMP -248.15
BOND
fmap 2 53
acta
OMIT -2 32
REM <HKL>/home/piogun/struct/KN3_varT/int_25K.hkl</HKL>

WGHT    0.036400    1.215000
FVAR       1.40915
AS1   4    0.333333    0.666667    0.271761    10.16667    0.00740    0.00740 =
         0.02606    0.00000    0.00000    0.00370
O1    2    0.000000    0.500000    0.170431    10.25000    0.00653    0.01410 =
         0.02691    0.00000    0.00000    0.00327
K1    3    0.000000    0.000000    0.000000    10.04167    0.01281    0.01281 =
         0.03289    0.00000    0.00000    0.00641
N1    1    0.000000    0.000000    0.500000    10.04167    0.01436    0.01436 =
         0.06459    0.00000    0.00000    0.00718
N2    1    0.000000    0.000000    0.379444    10.08333    0.04401    0.04401 =
         0.06453    0.00000    0.00000    0.02201
HKLF 4

REM  int_25K in P6/mmm
REM R1 =  0.0314 for     149 Fo > 4sig(Fo)  and  0.0333 for all     157 data
REM     15 parameters refined using      0 restraints

END

WGHT      0.0364      1.2150

REM Highest difference peak  2.000,  deepest hole -0.956,  1-sigma level  0.168
Q1    1   0.3333  0.6667  0.3604  10.16667  0.05    2.00
Q2    1   0.3333  0.6667  0.1894  10.16667  0.05    0.76
Q3    1   0.0000  0.0000 -0.0823  10.08333  0.05    0.47
Q4    1   0.4371  0.8742  0.5000  10.25000  0.05    0.46
Q5    1   0.0978  0.5489  0.1415  10.50000  0.05    0.41
Q6    1   0.0911  0.1823  0.3253  10.50000  0.05    0.40
Q7    1   0.2398  0.4796  0.4193  10.50000  0.05    0.37
Q8    1   0.2109  0.0000  0.3016  10.50000  0.05    0.37
Q9    1  -0.3174 -0.3174  0.3731  10.50000  0.05    0.36
Q10   1  -0.2246 -0.4492  0.5000  10.25000  0.05    0.36
Q11   1   0.0000  0.5000  0.2172  10.25000  0.05    0.34
Q12   1   0.4314  0.8629  0.4092  10.50000  0.05    0.33
Q13   1  -0.1107 -0.2214  0.2262  10.50000  0.05    0.28
Q14   1  -0.1717 -0.3434  0.0000  10.25000  0.05    0.28
Q15   1   0.1010  0.2021  0.5000  10.25000  0.05    0.27
Q16   1   0.0000  0.7436  0.1372  10.50000  0.05    0.26
Q17   1   0.0000  0.3440  0.0960  10.50000  0.05    0.26
Q18   1  -0.0902 -0.1805  0.4173  10.50000  0.05    0.25
Q19   1   0.1346  0.4756  0.0390  11.00000  0.05    0.22
Q20   1   0.0000 -0.4072  0.4572  10.50000  0.05    0.21
;
_cod_data_source_file            allP.cif
_cod_data_source_block           int_25k
_cod_original_cell_volume        227.26(11)
_cod_database_code               7032249
#BEGIN Tags that were not found in dictionaries:
_shelxl_version_number           2014-1
_shelx_space_group_comment
;
The symmetry employed for this shelxl refinement is uniquely defined
by the following loop, which should always be used as a source of
symmetry information in preference to the above space-group names.
They are only intended as comments.
;
_olex2_refinement_description
;
1. Others
 Fixed U13: As1(0) O1(0) K1(0) N1(0) N2(0)
 Fixed U23: As1(0) O1(0) K1(0) N1(0) N2(0)
 Fixed X: As1(0.3333) O1(0) K1(0) N1(0) N2(0)
 Fixed Y: As1(0.6667) O1(0.5) K1(0) N1(0) N2(0)
 Fixed Z: K1(0) N1(0.5)
;
_shelx_res_checksum              48895
#END Tags that were not found in dictionaries
loop_
_space_group_symop_operation_xyz
'x, y, z'
'-y, x-y, z'
'-x+y, -x, z'
'-x, -y, z'
'y, -x+y, z'
'x-y, x, z'
'y, x, -z'
'x-y, -y, -z'
'-x, -x+y, -z'
'-y, -x, -z'
'-x+y, y, -z'
'x, x-y, -z'
'-x, -y, -z'
'y, -x+y, -z'
'x-y, x, -z'
'x, y, -z'
'-y, x-y, -z'
'-x+y, -x, -z'
'-y, -x, z'
'-x+y, y, z'
'x, x-y, z'
'y, x, z'
'x-y, -y, z'
'-x, -x+y, z'
loop_
_atom_site_label
_atom_site_type_symbol
_atom_site_fract_x
_atom_site_fract_y
_atom_site_fract_z
_atom_site_U_iso_or_equiv
_atom_site_adp_type
_atom_site_occupancy
_atom_site_site_symmetry_order
_atom_site_calc_flag
_atom_site_refinement_flags_posn
_atom_site_refinement_flags_adp
_atom_site_refinement_flags_occupancy
As1 As 0.3333 0.6667 0.27176(11) 0.0136(4) Uani 1 6 d S T P
O1 O 0.0000 0.5000 0.1704(6) 0.0167(10) Uani 1 4 d S T P
K1 K 0.0000 0.0000 0.0000 0.0195(8) Uani 1 24 d S T P
N1 N 0.0000 0.0000 0.5000 0.031(5) Uani 1 24 d S T P
N2 N 0.0000 0.0000 0.379(3) 0.051(5) Uani 1 12 d S T P
loop_
_atom_site_aniso_label
_atom_site_aniso_U_11
_atom_site_aniso_U_22
_atom_site_aniso_U_33
_atom_site_aniso_U_23
_atom_site_aniso_U_13
_atom_site_aniso_U_12
As1 0.0074(4) 0.0074(4) 0.0261(6) 0.000 0.000 0.00370(19)
O1 0.007(2) 0.0141(16) 0.027(3) 0.000 0.000 0.0033(10)
K1 0.0128(10) 0.0128(10) 0.033(2) 0.000 0.000 0.0064(5)
N1 0.014(5) 0.014(5) 0.065(17) 0.000 0.000 0.007(3)
N2 0.044(6) 0.044(6) 0.065(15) 0.000 0.000 0.022(3)
loop_
_atom_type_symbol
_atom_type_description
_atom_type_scat_dispersion_real
_atom_type_scat_dispersion_imag
_atom_type_scat_source
N N 0.0000 0.0010 'International Tables Vol C Tables 4.2.6.8 and 6.1.1.4'
O O 0.0010 0.0020 'International Tables Vol C Tables 4.2.6.8 and 6.1.1.4'
K K 0.0710 0.0740 'International Tables Vol C Tables 4.2.6.8 and 6.1.1.4'
As As 0.2730 0.6850 'International Tables Vol C Tables 4.2.6.8 and 6.1.1.4'
loop_
_geom_angle_atom_site_label_1
_geom_angle_atom_site_label_2
_geom_angle_atom_site_label_3
_geom_angle
_geom_angle_site_symmetry_1
_geom_angle_site_symmetry_3
O1 As1 O1 93.8(2) 3_565 .
O1 As1 O1 93.8(2) . 2_665
O1 As1 O1 93.8(2) 3_565 2_665
As1 O1 As1 114.9(3) 4_565 .
As1 O1 K1 106.46(3) 4_565 .
As1 O1 K1 106.46(3) . .
As1 O1 K1 106.46(3) 4_565 1_565
As1 O1 K1 106.46(3) . 1_565
K1 O1 K1 116.44(18) . 1_565
O1 K1 O1 94.81(12) 14_445 15_655
O1 K1 O1 50.31(5) 14 13_565
O1 K1 O1 94.81(12) 3_455 1_545
O1 K1 O1 129.69(5) 2 15_655
O1 K1 O1 63.56(18) 13 1_545
O1 K1 O1 94.81(12) 2_665 3_455
O1 K1 O1 50.31(5) 15 13_565
O1 K1 O1 50.31(5) 2 3_455
O1 K1 O1 85.19(12) 14_445 1_545
O1 K1 O1 129.69(5) . 14_445
O1 K1 O1 180.0 2 14
O1 K1 O1 50.31(5) . 2_665
O1 K1 O1 85.19(12) 3 14
O1 K1 O1 180.0 14_445 2_665
O1 K1 O1 85.19(12) . 14
O1 K1 O1 85.19(12) . 15
O1 K1 O1 50.31(5) 14_445 13
O1 K1 O1 50.31(5) 14_445 15
O1 K1 O1 94.81(12) 3 2
O1 K1 O1 129.69(5) 2_665 15
O1 K1 O1 94.81(12) 15 13
O1 K1 O1 94.81(12) . 3
O1 K1 O1 63.56(18) 2_665 14
O1 K1 O1 129.69(5) 14_445 3
O1 K1 O1 94.81(12) . 2
O1 K1 O1 50.31(5) 2_665 3
O1 K1 O1 116.44(18) 2_665 2
O1 K1 O1 50.31(5) 13 15_655
O1 K1 O1 180.0 . 13
O1 K1 O1 50.31(5) 14 15_655
O1 K1 O1 85.19(12) 3_455 13_565
O1 K1 O1 85.19(12) 14_445 3_455
O1 K1 O1 129.69(5) 2_665 13
O1 K1 O1 63.56(18) 15 3_455
O1 K1 O1 116.44(18) 13 13_565
O1 K1 O1 129.69(5) 13 3_455
O1 K1 O1 85.19(12) 3 13
O1 K1 O1 129.69(5) 14 3_455
O1 K1 O1 129.69(5) 14 1_545
O1 K1 O1 116.44(18) . 1_545
O1 K1 O1 63.56(18) 14_445 2
O1 K1 O1 94.81(12) 2_665 1_545
O1 K1 O1 63.56(18) 3 15_655
O1 K1 O1 50.31(5) 3 1_545
O1 K1 O1 85.19(12) 15 2
O1 K1 O1 50.31(5) 2 1_545
O1 K1 O1 129.69(5) 15 1_545
O1 K1 O1 85.19(12) 15_655 1_545
O1 K1 O1 85.19(12) 13 2
O1 K1 O1 63.56(18) . 13_565
O1 K1 O1 50.31(5) . 3_455
O1 K1 O1 85.19(12) 2_665 13_565
O1 K1 O1 116.44(18) 14_445 14
O1 K1 O1 129.69(5) 3 13_565
O1 K1 O1 94.81(12) 14_445 13_565
O1 K1 O1 129.69(5) 2 13_565
O1 K1 O1 94.81(12) 15 14
O1 K1 O1 94.81(12) 15_655 13_565
O1 K1 O1 116.44(18) 3 3_455
O1 K1 O1 180.0 1_545 13_565
O1 K1 O1 94.81(12) 13 14
O1 K1 O1 129.69(5) . 15_655
O1 K1 O1 180.0 15_655 3_455
O1 K1 O1 180.0 15 3
O1 K1 O1 116.44(18) 15 15_655
O1 K1 O1 85.19(12) 2_665 15_655
N2 N1 N2 180.0 13_556 .
loop_
_geom_bond_atom_site_label_1
_geom_bond_atom_site_label_2
_geom_bond_distance
_geom_bond_site_symmetry_2
As1 O1 1.796(3) 3_565
As1 O1 1.796(3) .
As1 O1 1.796(3) 2_665
O1 As1 1.796(3) 4_565
O1 K1 3.086(3) .
O1 K1 3.086(3) 1_565
K1 O1 3.086(3) 15_655
K1 O1 3.086(3) 13
K1 O1 3.086(3) 3_455
K1 O1 3.086(3) 2
K1 O1 3.086(3) 13_565
K1 O1 3.086(3) 14
K1 O1 3.086(3) 3
K1 O1 3.086(3) 14_445
K1 O1 3.086(3) 1_545
K1 O1 3.086(3) 15
K1 O1 3.086(3) 2_665
N1 N2 1.15(3) 13_556
N1 N2 1.15(3) .
