#------------------------------------------------------------------------------
#$Date: 2023-12-22 17:07:40 +0200 (Fri, 22 Dec 2023) $
#$Revision: 288505 $
#$URL: file:///home/coder/svn-repositories/cod/cif/7/03/31/7033135.cif $
#------------------------------------------------------------------------------
#
# This file is available in the Crystallography Open Database (COD),
# http://www.crystallography.net/
#
# All data on this site have been placed in the public domain by the
# contributors.
#
data_7033135
loop_
_publ_author_name
'Kim, Minsung'
'Kobayashi, Makoto'
'Kato, Hideki'
'Yamane, Hisanori'
'Sato, Yasushi'
'Kakihana, Masato'
_publ_section_title
;
 Crystal structures and luminescence properties of
 Eu&#x00B2;&#x207A;-activated new NaBa0.5Ca0.5PO&#x2084; and
 Na&#x2083;Ba&#x2082;Ca(PO&#x2084;)&#x2083;.
;
_journal_issue                   4
_journal_name_full
'Dalton transactions (Cambridge, England : 2003)'
_journal_page_first              1900
_journal_page_last               1904
_journal_paper_doi               10.1039/c4dt03024a
_journal_volume                  44
_journal_year                    2015
_chemical_formula_moiety         '2(O4 P), Ba, Ca, 2(Na)'
_chemical_formula_structural     Na2CaBa(PO4)2
_chemical_formula_sum            'Ba Ca Na2 O8 P2'
_chemical_formula_weight         413.34
_chemical_name_common
;
sodium calcium barium phosphate  
;
_chemical_name_systematic
; 
disodium monocalcium monobarium phosphate
;
_space_group_IT_number           164
_symmetry_cell_setting           trigonal
_symmetry_Int_Tables_number      164
_symmetry_space_group_name_Hall  '-P 3 2"'
_symmetry_space_group_name_H-M   'P -3 m 1'
_audit_creation_method           SHELXL-97
_cell_angle_alpha                90.00
_cell_angle_beta                 90.00
_cell_angle_gamma                120.00
_cell_formula_units_Z            1
_cell_length_a                   5.4474(4)
_cell_length_b                   5.4474(4)
_cell_length_c                   7.3624(5)
_cell_measurement_reflns_used    1864
_cell_measurement_temperature    293(2)
_cell_measurement_theta_max      27.45
_cell_measurement_theta_min      4.32
_cell_volume                     189.20(2)
_computing_cell_refinement       'RAPID-AUTO (Rigaku Corporation, 2005)'
_computing_data_collection       'RAPID-AUTO (Rigaku Corporation, 2005)'
_computing_data_reduction        'RAPID-AUTO (Rigaku Corporation, 2005)'
_computing_molecular_graphics    'VESTA (Momma & Izumi, 2008)'
_computing_publication_material  'SHELXL-97 (Sheldrick, 2008)'
_computing_structure_refinement  'SHELXL-97 (Sheldrick, 2008)'
_diffrn_ambient_temperature      293(2)
_diffrn_detector_area_resol_mean 10.0
_diffrn_measured_fraction_theta_full 0.995
_diffrn_measured_fraction_theta_max 0.995
_diffrn_measurement_device_type  'Rigaku RAXIS-RAPID II'
_diffrn_measurement_method       \w
_diffrn_radiation_monochromator  graphite
_diffrn_radiation_source         'fine-focus sealed tube'
_diffrn_radiation_type           MoK\a
_diffrn_radiation_wavelength     0.71075
_diffrn_reflns_av_R_equivalents  0.0224
_diffrn_reflns_av_sigmaI/netI    0.0102
_diffrn_reflns_limit_h_max       7
_diffrn_reflns_limit_h_min       -7
_diffrn_reflns_limit_k_max       7
_diffrn_reflns_limit_k_min       -7
_diffrn_reflns_limit_l_max       8
_diffrn_reflns_limit_l_min       -9
_diffrn_reflns_number            1852
_diffrn_reflns_theta_full        27.44
_diffrn_reflns_theta_max         27.44
_diffrn_reflns_theta_min         4.32
_exptl_absorpt_coefficient_mu    6.476
_exptl_absorpt_correction_T_max  0.884408
_exptl_absorpt_correction_T_min  0.725409
_exptl_absorpt_correction_type   numerical
_exptl_absorpt_process_details
;
(NUMABS; Higashi, 1999)
;
_exptl_crystal_colour            colorless
_exptl_crystal_density_diffrn    3.628
_exptl_crystal_density_method    'not measured'
_exptl_crystal_description       platelet
_exptl_crystal_F_000             192
_exptl_crystal_size_max          0.093
_exptl_crystal_size_mid          0.073
_exptl_crystal_size_min          0.048
_refine_diff_density_max         0.530
_refine_diff_density_min         -0.799
_refine_diff_density_rms         0.137
_refine_ls_extinction_method     none
_refine_ls_goodness_of_fit_ref   1.154
_refine_ls_matrix_type           full
_refine_ls_number_parameters     19
_refine_ls_number_reflns         193
_refine_ls_number_restraints     0
_refine_ls_restrained_S_all      1.154
_refine_ls_R_factor_all          0.0168
_refine_ls_R_factor_gt           0.0168
_refine_ls_shift/su_max          0.000
_refine_ls_shift/su_mean         0.000
_refine_ls_structure_factor_coef Fsqd
_refine_ls_weighting_details
'w=1/[\s^2^(Fo^2^)+(0.0162P)^2^+0.6331P] where P=(Fo^2^+2Fc^2^)/3'
_refine_ls_weighting_scheme      calc
_refine_ls_wR_factor_gt          0.0408
_refine_ls_wR_factor_ref         0.0408
_reflns_number_gt                193
_reflns_number_total             193
_reflns_threshold_expression     >2sigma(I)
_iucr_refine_instructions_details
;
TITL   Na2CaBaP2O8    P-3m1 (No. 164)
CELL  0.71075  5.4474  5.4474  7.3624   90.000  90.0  120.000
ZERR     1.00  0.0004  0.0004  0.0005    0.000   0.0    0.000
LATT  1
SYMM -Y,X-Y,Z
SYMM -X+Y,-X,Z
SYMM X-Y,-Y,-Z
SYMM -X,-X+Y,-Z
SYMM Y,X,-Z
SFAC        O       NA      P       CA      BA
UNIT         8       2       2       1       1
L.S.      18
acta
twin  1 0 0 0 1 0 0 0 -1  2
WGHT    0.016200    0.633100
BASF   0.50435
FVAR       0.87773
NA1   2    0.333333    0.666667    0.709378    10.16666    0.01947    0.01947 =
         0.02773    0.00000    0.00000    0.00973
CA1   4    0.000000    0.000000    0.500000    10.08333    0.00929    0.00929 =
         0.00788    0.00000    0.00000    0.00464
BA1   5    0.000000    0.000000    0.000000    10.08333    0.01793    0.01793 =
         0.00856    0.00000    0.00000    0.00897
P1    3    0.333333    0.666667    0.229417    10.16666    0.00784    0.00784 =
         0.01050    0.00000    0.00000    0.00392
O1    1    0.333333    0.666667    0.023197    10.16666    0.02268    0.02268 =
         0.00738    0.00000    0.00000    0.01134
O2    1    0.121745    0.367484    0.300481    10.50000    0.01672
REM                                           P-3m1
REM R1 =  0.1305 for    191 Fo > 4sig(Fo)  and  0.1322 for all    193 data
REM     12 parameters refined using      0 restraints

HKLF 4
END

WGHT      0.0162      0.6269

REM Highest difference peak  0.530,  deepest hole -0.799,  1-sigma level  0.137
Q1    1   0.1463  0.5731 -0.0066  10.50000  0.05    0.53
Q2    1   0.3333  0.6667  0.8640  10.16667  0.05    0.52
Q3    1   0.1128  0.0564  0.1046  10.50000  0.05    0.47
Q4    1   0.0591  0.1181  0.0860  10.50000  0.05    0.43
Q5    1   0.1871  0.3743  0.4019  10.50000  0.05    0.43
Q6    1   0.1734  0.3469  0.2419  10.50000  0.05    0.40
Q7    1   0.2365  0.6183  0.1077  10.50000  0.05    0.40
Q8    1   0.3894  0.7789  0.2779  10.50000  0.05    0.33
Q9    1   0.1640  0.1640  0.5000  10.50000  0.05    0.32
Q10   1  -0.1085  0.2621  0.3731  11.00000  0.05    0.31
Q11   1   0.0851  0.4264  0.3470  11.00000  0.05    0.29
Q12   1   0.0000  0.0000  0.6810  10.16667  0.05    0.26
Q13   1   0.2597  0.7403  0.7718  10.50000  0.05    0.26
Q14   1  -0.1216  0.1216  0.0043  10.50000  0.05    0.22
Q15   1   0.2827  0.5654  0.4642  10.50000  0.05    0.21
Q16   1   0.0284  0.3404  0.2587  11.00000  0.05    0.20
Q17   1   0.0400  0.5200  0.4454  10.50000  0.05    0.19
Q18   1  -0.1572  0.1572  0.2590  10.50000  0.05    0.19
Q19   1   0.4247  0.8494  0.7188  10.50000  0.05    0.14
Q20   1  -0.0613  0.0613  0.2291  10.50000  0.05    0.14
;
_cod_data_source_file            c4dt03024a1.cif
_cod_data_source_block           shelxl
_cod_depositor_comments
;Adding full bibliography for 7033134--7033135.cif.

The following automatic conversions were performed:

data name '_iucr_refine_instruction_details' was replaced with
'_iucr_refine_instructions_details' as specified in the replacement
file 'data/replacement-values/replacement_tags.lst'.

Automatic conversion script
Id: cif_correct_tags 9268 2022-04-12 08:56:07Z antanas 
;
_cod_database_code               7033135
_shelxl_version_number           2014-3
_shelx_res_checksum              59633
_shelx_hkl_file
;
   0   0  -2   46.41    3.30
   0   0  -2   42.77    1.90
   0   0  -3 3522.64   35.44
   0   0  -3 3544.07   39.74
   0   0  -4 5762.12   56.99
   0   0  -4 5701.01   64.02
   0   0  -5   63.02    7.69
   0   0  -5   69.25    3.96
   0   0  -6  980.91   16.50
   0   0  -6 1014.29   25.74
   0   0  -7  492.17   10.53
   0   0  -7  508.18   18.10
   0   0  -8  603.70   22.16
   0   0  -8  578.81   12.11
   0   0  -8  595.33   21.97
   0   0  -9  309.90   21.21
   0   0  -9  296.84   30.61
  -1   0   1  795.14   10.72
   0   1   1  787.80   11.20
   1  -1   1  802.86   11.44
   0  -1  -1  779.26    7.32
   0  -1  -1  812.08   11.47
  -1   1  -1  798.90   11.51
   1   0  -1  799.88   10.74
  -1   0   2 3915.88   41.77
   1  -1   2 3801.83   42.45
   1   0  -2 3919.51   41.82
   0  -1  -2 3996.64   39.07
  -1   1  -2 4006.53   44.28
   0  -1  -2 4011.12   42.55
  -1   0   3  396.76   11.70
   0   1   3  391.68    8.71
   1   0  -3  389.48    9.25
   0  -1  -3  384.26    7.54
  -1   1  -3  414.90   10.31
   0  -1  -3  387.42   10.30
  -1   0   4  931.28   16.90
   0   1   4  919.51   15.52
   1   0  -4  936.28   17.08
   0  -1  -4  905.27   17.06
   0  -1  -4  931.18   15.20
  -1   1  -4  935.95   17.54
  -1   0   5  411.60   12.79
   1   0  -5  384.26   12.54
  -1   1  -5  375.60   13.11
  -1   1  -5  405.07   13.46
   0  -1  -5  392.82   11.13
   0  -1  -5  401.22   10.23
   1   0  -6 1400.49   26.62
  -1   1  -6 1341.60   26.55
  -1   1  -6 1346.42   27.28
   1   0  -6 1356.91   20.68
   0  -1  -6 1376.25   22.08
   0  -1  -6 1353.97   24.56
  -1   1  -7  271.36   16.56
  -1   1  -7  261.09   16.26
   0  -1  -7  284.99   14.33
   1   0  -7  271.58    9.77
   0  -1  -7  286.86   10.71
   1   0  -7  272.58   15.77
   0  -1  -7  285.59   14.12
  -1   1  -8  591.88   23.50
  -1   1  -8  594.25   23.54
   0  -1  -8  607.03   21.52
   0  -1  -8  585.22   15.52
   0  -1  -8  597.31   27.85
   1   0  -8  597.82   30.93
   1   0  -8  583.83   14.32
  -1   1  -9  103.74   19.66
   0  -1  -9  101.03   16.79
   0  -1  -9  107.26   16.73
  -1   1  -9  120.60   29.38
   1   0  -9  100.56   18.63
   2  -2   1  658.03   12.40
   0   2   1  665.63   12.85
  -2   0   1  653.64   11.57
   0  -2  -1  678.74   13.23
  -2   2  -1  669.86   12.50
   2   0  -1  633.52   11.36
   0   2   2 4124.61   48.83
   2  -2   2 4082.07   49.15
   2  -2   2 4090.94   41.87
  -2   0   2 4123.76   47.52
   0  -2  -2 4181.54   49.36
   0  -2  -2 4175.76   37.07
   2   0  -2 4123.61   47.52
  -2   2  -2 4033.11   48.34
   0  -2  -2 4113.12   36.10
   2  -2   3  161.57    8.97
   0   2   3  153.76    8.36
  -2   0   3  152.41    7.59
   2  -2   3  153.48    3.46
  -2   2  -3  163.30    9.10
   0  -2  -3  159.40    3.99
   2   0  -3  149.63    7.88
   0  -2  -3  159.08   11.45
   0   2   4 1013.90   19.65
  -2   0   4  982.04   18.93
   2   0  -4 1019.68   19.74
   0  -2  -4  981.09   22.14
  -2   2  -4  973.07   20.38
   0  -2  -4  978.94   14.43
   0   2   5  465.18   18.93
  -2   0   5  477.16   15.06
   2   0  -5  456.88   15.20
   0  -2  -5  468.19   13.74
   0  -2  -5  463.80   10.90
  -2   2  -5  493.24   16.32
   0  -2  -5  480.82   11.90
   0   2   6 1368.63   25.87
  -2   0   6 1420.27   33.75
   2   0  -6 1383.34   28.35
  -2   2  -6 1393.70   29.43
   0  -2  -6 1425.70   24.65
   0  -2  -6 1407.03   23.86
   0  -2  -6 1376.28   25.52
  -2   2  -7  216.54   17.56
   0  -2  -7  216.54   12.73
   2   0  -7  214.08   16.28
   0  -2  -7  221.31   12.73
  -2   2  -7  214.51   17.05
   2   0  -7  173.98   10.75
   0  -2  -7  210.95   17.15
   2   0  -8  633.39   25.10
   0  -2  -8  639.20   20.86
   0  -2  -8  620.22   20.50
   2   0  -8  587.05   22.24
  -2   2  -8  632.64   25.66
  -2   2  -8  633.69   26.01
  -2   2  -9  198.66   22.81
   2   0  -9  191.70   33.06
   0  -2  -9  162.56   17.81
  -2   2  -9  162.64   22.53
   0  -2  -9  168.80   17.15
  -3   0   1  553.17   12.64
   3  -3   1  554.31   13.72
   0   3   1  559.67   18.61
   3  -3   1  553.22   12.58
  -3   3  -1  554.96   13.68
   3   0  -1  552.39   12.81
   0   3   2  356.52   13.20
   3  -3   2  373.29    9.61
   3  -3   2  379.15   12.66
  -3   0   2  370.55   11.38
   3   0  -2  377.87   11.56
   0  -3  -2  375.94   13.22
  -3   3  -2  370.09   12.61
   3  -3   3  501.49    9.94
   3  -3   3  497.59   15.62
  -3   0   3  490.12   13.82
   0   3   3  473.52   15.57
   3   0  -3  499.42   14.37
   0  -3  -3  484.30   15.24
  -3   3  -3  511.45   15.90
  -3   0   4 2277.27   35.69
   3  -3   4 2272.10   25.36
   0   3   4 2289.17   42.02
   3  -3   4 2288.21   38.40
   0  -3  -4 2324.13   26.90
   0  -3  -4 2284.08   24.52
  -3   3  -4 2312.20   37.63
   0  -3  -4 2309.07   36.94
   3   0  -4 2262.20   35.87
  -3   0   5  327.03   15.10
   0   3   5  328.14   15.99
   0  -3  -5  332.77   11.75
  -3   3  -5  333.97   16.46
   3   0  -5  322.11   15.41
   0  -3  -5  315.31    7.93
   0  -3  -5  340.99   15.36
   0   3   6  416.64   18.42
  -3   0   6  449.09   19.02
   0  -3  -6  433.02   11.56
   3   0  -6  434.17   18.89
   0  -3  -6  455.42   16.56
  -3   3  -6  439.79   20.60
   0  -3  -6  458.22   18.13
   0   3   7  116.97   15.20
  -3   0   7  114.55   24.70
   3   0  -7  121.58   16.97
   0  -3  -7  117.21   16.29
   0  -3  -7  113.58   10.17
  -3   3  -7  111.00   17.99
   0  -3  -8  564.38   18.78
   0  -3  -8  563.30   20.02
   3   0  -8  583.23   26.33
  -3   3  -8  603.39   27.87
  -3   3  -8  646.24   28.11
   4  -4   1  215.70   12.82
  -4   0   1  209.28   11.18
   0   4   1  199.08   13.57
   4  -4   1  217.34   11.29
  -4   4  -1  219.07   12.54
   4   0  -1  211.45   16.27
   0   4   2 1426.85   29.65
   4  -4   2 1437.19   28.90
   4  -4   2 1444.11   24.73
  -4   0   2 1433.06   26.75
   4   0  -2 1468.39   27.12
  -4   4  -2 1484.61   28.92
  -4   0   3   92.98   11.12
   4  -4   3   89.05    7.84
   4  -4   3   96.92   13.36
   0   4   3   87.74   13.50
   4   0  -3  101.96   17.14
  -4   4  -3  101.12   20.27
   0   4   4  346.56   26.58
  -4   0   4  346.53   16.15
   4  -4   4  365.37   13.16
   4  -4   4  363.41   18.66
   4   0  -4  379.41   23.69
  -4   4  -4  363.67   25.57
   4  -4   5  190.11   18.46
  -4   0   5  207.04   23.48
   0   4   5  196.13   26.84
   4   0  -5  195.53   16.53
  -4   4  -5  183.04   17.49
   0   4   6  644.40   35.40
  -4   0   6  625.43   24.11
  -4   4  -6  623.44   25.94
   4   0  -6  613.04   24.56
  -4   0   7   94.89   19.28
   0   4   7   98.22   28.44
  -4   4  -7  113.86   20.64
   4   0  -7   87.74   19.59
   5  -5   1   96.78   13.14
   0   5   1  102.61   15.92
   5  -5   1   97.41   14.73
  -5   0   1   90.38   12.64
   5   0  -1  116.74   12.96
  -5   5  -1  101.26   14.15
   0   5   2  755.40   25.63
  -5   0   2  814.32   22.84
   5  -5   2  782.43   21.09
   5  -5   2  796.05   25.23
   5   0  -2  804.39   22.92
  -5   5  -2  773.31   24.76
  -5   0   3   97.62   14.09
   0   5   3   98.19   17.49
   5  -5   3   79.88   10.83
   5  -5   3  104.60   16.83
  -5   5  -3  102.48   16.78
   5   0  -3   95.58   14.56
   0   5   4  279.93   22.59
   5  -5   4  286.99   20.84
  -5   0   4  264.38   18.28
   5  -5   4  261.99   12.57
   5   0  -4  277.57   19.36
  -5   5  -4  272.73   21.72
   5  -5   5   72.65   20.01
   0   5   5   86.71   20.45
  -5   0   5   85.14   26.64
  -5   5  -5  101.69   19.80
   5   0  -5   89.71   17.84
   6  -6   1   -0.01   26.27
  -6   0   1  108.51   16.72
   6  -6   1  122.74   19.51
   6   0  -1  101.65   26.01
  -6   6  -1  113.78   18.56
  -1   1   0 1128.57   13.15
   1   0   0 1107.01   12.62
   0  -1   0 1126.48   13.64
  -1   0   0 1106.47   12.55
   0   1   0 1125.68   10.91
   0   1   0 1094.52   10.26
   0   1   0 1103.91   13.42
   1  -1   0 1076.50   12.75
   1   0   1  794.11   10.33
  -1   1   1  795.08   10.30
  -1   0  -1  801.06   10.38
   1  -1  -1  793.09   10.34
   0   1  -1  812.32   10.38
  -1   1   2 4014.79   41.69
   1   0   2 3961.88   42.13
   1  -1  -2 4070.48   43.33
   1  -1  -2 4084.30   43.47
  -1   0  -2 4048.44   44.27
   0   1  -2 4008.20   42.81
   1   0   3  394.03    8.48
  -1   1   3  381.52    8.45
   1  -1  -3  394.36    8.76
   1  -1  -3  387.43    8.74
   0   1  -3  379.25    9.42
  -1   0  -3  405.93    9.40
  -1   1   4  949.89   18.99
   1   0   4  921.45   13.12
   1  -1  -4  952.60   16.46
  -1   0  -4  974.16   17.51
   0   1  -4  957.78   17.74
   1  -1  -4  946.14   15.81
  -1   1   5  408.64   12.07
   1   0   5  395.53    8.22
  -1   0  -5  385.79   12.14
   0   1  -5  399.49   17.60
  -1   0  -5  399.48   12.70
   1  -1  -5  402.24   10.59
   1  -1  -5  398.49   11.90
   0   1  -6 1361.42   15.86
   1  -1  -6 1340.48   25.19
  -1   0  -6 1370.42   26.01
  -1   0  -6 1397.61   26.43
   0   1  -6 1369.98   27.15
   1  -1  -6 1376.06   22.37
   1  -1  -7  284.31   14.56
   0   1  -7  253.01    5.91
  -1   0  -7  287.99   15.50
   1  -1  -7  276.94   15.31
   0   1  -7  286.20   16.46
  -1   0  -7  273.23   15.45
   1  -1  -8  568.73   16.07
   0   1  -8  611.78   23.50
   1  -1  -8  599.38   21.87
  -1   0  -8  573.95   22.05
   0   1  -8  607.85   23.54
  -1   0  -8  591.26   21.56
   1  -1  -9   97.93   11.17
  -1   0  -9  112.06   17.69
   0   1  -9  101.35   19.55
   1  -1  -9   96.52   26.75
  -1   0  -9  120.98   18.73
   0   1  -9  105.93   28.81
   1  -2  -9  327.19   20.09
   1   1  -9  304.86   24.23
   1  -2  -9  313.75   17.63
  -2   1  -9  316.67   22.91
  -2   1  -9  320.27   22.97
  -2   1  -8  937.76   28.31
   1  -2  -8  917.62   22.87
   1  -2  -8  918.68   24.74
  -2   1  -8  893.55   27.64
   1   1  -8  938.71   28.66
   1  -2  -7  107.77   11.09
   1  -2  -7  130.00   11.93
  -2   1  -7  130.23   14.50
  -2   1  -7  128.58   14.94
   1   1  -7  123.76   14.96
   1   1  -7  128.98    7.18
   1  -2  -6  571.36   15.51
  -2   1  -6  566.74   18.36
   1  -2  -6  577.02   20.27
   1   1  -6  573.67   17.91
   1  -2  -5  681.39   15.96
  -2   1  -5  700.46   22.36
   1   1  -5  693.12   21.85
   1  -2  -5  693.74   14.71
  -1   2   5  706.49   14.73
   2  -1   5  688.47   10.10
   1  -2  -4 3478.38   41.11
   1  -2  -4 3563.32   45.38
  -2   1  -4 3549.17   46.64
   1   1  -4 3520.15   47.79
   2  -1   4 3477.36   36.87
  -1  -1   4 3457.06   44.39
  -1   2   4 3455.24   40.89
   1  -2  -3  546.48   11.32
   1   1  -3  563.58   12.05
  -2   1  -3  605.08   13.59
   1  -2  -3  609.55   13.16
   2  -1   3  561.54   12.98
  -1   2   3  570.32   11.55
  -1   2   3  577.33   12.97
  -1  -1   3  556.27   12.01
   1  -2  -2 1253.59   15.37
   1  -2  -2 1260.95   19.22
  -2   1  -2 1292.10   19.57
   1   1  -2 1227.20   17.32
  -1   2   2 1256.22   19.10
   2  -1   2 1230.57   18.54
  -1   2   2 1275.25   15.52
  -1  -1   2 1256.57   17.53
  -2   1  -1 1506.92   20.51
   1  -2  -1 1470.94   16.69
   1   1  -1 1511.72   18.22
   1  -2  -1 1532.91   21.10
  -1  -1   1 1501.93   18.09
   2  -1   1 1518.72   20.26
   1   1   0 7493.44   68.74
   1  -2   0 7449.72   76.64
  -2   1   0 7354.42   74.35
   1  -2   0 7352.19   70.52
  -1   2   0 7350.80   70.95
   2  -1   0 7213.35   73.01
  -1  -1   0 7527.53   69.09
  -1   2   0 7380.38   73.97
  -2   1   1 1420.88   19.20
   1  -2   1 1425.65   17.78
   1   1   1 1430.95   15.80
   1  -2   1 1412.36   18.74
  -1  -1  -1 1435.21   15.61
   2  -1  -1 1435.24   19.27
  -1   2  -1 1418.06   18.63
  -1   2  -1 1390.56   17.28
   1   1   2 1325.02   19.52
   1   1   2 1285.09   15.45
   1  -2   2 1339.90   15.76
  -2   1   2 1317.45   19.05
  -1   2  -2 1328.46   15.29
  -1  -1  -2 1299.74   15.36
  -1   2  -2 1340.49   19.66
   2  -1  -2 1345.54   21.47
   1   1   3  591.27   12.32
  -2   1   3  606.48   12.58
  -1   2  -3  601.57   13.41
   2  -1  -3  608.42   12.72
  -1  -1  -3  626.91   10.83
  -1   2  -3  591.26    6.96
   1   1   4 3429.86   42.85
  -2   1   4 3354.70   43.02
   2  -1  -4 3357.47   43.40
  -1  -1  -4 3376.50   40.01
  -1  -1  -4 3313.76   40.12
  -1   2  -4 3365.67   44.61
   1   1   5  700.01   14.69
  -2   1   5  680.79   20.89
  -1  -1  -5  673.39   14.71
  -1   2  -5  622.60   17.10
  -1  -1  -5  700.38   15.39
  -1   2  -5  703.86   18.29
   2  -1  -5  688.56   17.19
  -2   1   6  609.40   17.89
   1   1   6  578.29   14.57
  -1  -1  -6  611.00   16.44
  -1  -1  -6  588.54   15.93
  -1   2  -6  593.41   19.62
   2  -1  -6  597.15   15.32
  -1   2  -6  579.93   24.51
   2  -1  -6  611.75   18.23
   1   1   7  118.76    9.52
  -2   1   7  122.32   13.45
  -1  -1  -7  128.13   12.54
   2  -1  -7  133.82   10.69
   2  -1  -7  126.02   13.93
  -1  -1  -7  126.27   11.97
  -1   2  -7  139.21   15.65
  -1   2  -7  112.55   15.54
  -1  -1  -8  920.12   25.66
  -1   2  -8  925.11   29.17
   2  -1  -8  924.79   27.61
  -1   2  -8  907.51   29.04
  -1  -1  -8  891.50   24.48
   2  -1  -8  909.13   27.34
   2  -1  -9  314.85   16.50
  -1   2  -9  314.76   24.77
  -1   2  -9  352.97   24.89
   2  -1  -9  351.66   22.81
  -1  -1  -9  314.96   20.99
  -1  -1  -9  297.04   20.14
   1   2  -8  399.31   22.87
  -3   1  -8  401.73   22.24
  -3   1  -8  370.43   31.19
   2  -3  -8  378.18   18.73
   2  -3  -8  383.12   19.52
   1   2  -7  271.56   18.49
  -3   1  -7  257.11   17.32
   2  -3  -7  285.09   16.58
   2  -3  -7  258.15   14.77
   2  -3  -6 1149.71   26.02
   2  -3  -6 1105.99   22.95
   1   2  -6 1060.87   25.53
  -3   1  -6 1114.22   26.25
  -2   3   6 1119.24   22.82
   3  -1   6 1057.41   16.66
   2  -3  -5  213.88   14.20
   1   2  -5  213.59   12.34
   2  -3  -5  217.55   13.21
  -3   1  -5  221.65   19.04
   3  -1   5  216.25   13.22
   3  -1   5  213.70    7.80
  -2   3   5  213.34   13.92
  -3   1  -4  703.45   22.44
   1   2  -4  670.77   16.30
   2  -3  -4  699.28   14.36
   2  -3  -4  685.71   17.67
   3  -1   4  694.98   17.59
  -2   3   4  683.02   16.95
   1   2  -3  427.72   11.36
  -3   1  -3  429.02   12.90
   2  -3  -3  429.12   13.35
   2  -3  -3  405.57   12.57
   3  -1   3  413.42   12.74
  -2   3   3  406.33    9.66
  -3   1  -2 1946.74   28.56
   1   2  -2 1980.26   26.02
   2  -3  -2 1910.32   25.19
   2  -3  -2 1912.18   28.94
   3  -1   2 1969.84   29.09
  -1  -2   2 1906.13   25.60
  -2   3   2 1928.39   26.67
   2  -3  -1  252.26    7.36
  -3   1  -1  253.00    8.92
   2  -3  -1  257.41    9.80
   1   2  -1  264.79    6.24
  -1  -2   1  266.55    6.48
   3  -1   1  259.68    9.05
  -2   3   1  261.14    7.13
   1   2   0 1023.21   12.98
   2  -3   0 1042.31   17.98
   2  -3   0  999.43   18.05
  -3   1   0 1028.25   19.97
   1   2   0  998.48   18.25
  -1  -2   0 1023.08   13.17
   3  -1   0 1034.12   17.70
  -2   3   0 1029.37   15.99
   1   2   1  258.42   10.22
   2  -3   1  264.79    8.41
  -3   1   1  269.31    9.20
   1   2   1  256.91    3.57
   2  -3   1  237.08    8.68
  -2   3  -1  273.52   11.31
   3  -1  -1  270.65    9.21
  -1  -2  -1  247.79    3.74
   2  -3   2 1950.64   24.92
  -3   1   2 1862.51   27.51
   2  -3   2 1897.10   31.12
   1   2   2 1926.28   29.66
  -1  -2  -2 1881.78   17.87
  -2   3  -2 1891.71   27.99
   3  -1  -2 1922.85   31.07
   2  -3   3  425.60   13.53
   1   2   3  416.86   13.14
  -3   1   3  421.57   12.71
   2  -3   3  428.58    8.11
  -2   3  -3  422.64   13.24
  -1  -2  -3  421.25    7.69
  -1  -2  -3  413.67    6.69
   3  -1  -3  416.69   12.98
  -3   1   4  666.28   16.72
   1   2   4  712.80   18.07
  -2   3  -4  679.65   17.99
  -1  -2  -4  677.78   12.73
   3  -1  -4  709.10   17.89
  -1  -2  -4  707.14   11.90
   1   2   5  203.59   12.01
  -3   1   5  203.51   12.48
  -1  -2  -5  206.50   10.68
  -1  -2  -5  228.11    8.67
   3  -1  -5  208.60   12.98
  -2   3  -5  223.36   13.96
   1   2   6 1083.57   24.07
  -3   1   6 1118.93   25.83
  -2   3  -6 1048.45   26.69
   3  -1  -6 1133.86   26.50
  -1  -2  -6 1113.02   21.09
  -1  -2  -6 1089.45   20.09
  -3   1   7  247.98   17.69
   1   2   7  257.58   14.86
  -1  -2  -7  236.11   12.60
  -2   3  -7  260.42   18.71
   3  -1  -7  233.94   14.37
   3  -1  -7  231.95   25.65
  -2   3  -7  265.77   19.75
  -1  -2  -7  242.14   19.20
  -3   1   8  391.12   22.13
   1   2   8  347.93   17.87
   3  -1  -8  404.56   32.21
   3  -1  -8  400.32   18.24
  -1  -2  -8  376.54   23.81
  -2   3  -8  426.00   25.16
  -1  -2  -8  392.82   25.50
  -2   3  -8  415.01   24.23
  -4   1  -7  145.30   17.85
   3  -4  -7  168.66   15.22
   3  -4  -7  164.24   18.69
   1   3  -7  154.34   18.96
  -3   4   7  160.54   14.63
   3  -4  -6  744.05   20.55
  -4   1  -6  736.83   23.72
   1   3  -6  684.09   22.63
   1   3  -6  708.35   17.37
   3  -4  -6  736.67   24.87
  -3   4   6  703.62   19.62
   4  -1   6  726.41   17.57
   1   3  -5  179.34   10.75
  -4   1  -5  193.66   14.88
   3  -4  -5  193.50   11.89
   3  -4  -5  198.13   23.36
   1   3  -5  180.89   13.45
   4  -1   5  180.98   14.69
  -3   4   5  197.36   11.44
   3  -4  -4  440.24   13.91
   3  -4  -4  451.64   17.73
   1   3  -4  422.45   19.69
   1   3  -4  431.08   13.85
  -4   1  -4  417.50   16.74
  -3   4   4  439.46   13.22
   4  -1   4  433.80   23.02
   1   3  -3  243.23   10.50
   3  -4  -3  242.15   10.28
  -4   1  -3  249.13   12.94
   3  -4  -3  243.90   14.74
   1   3  -3  239.73   11.55
  -3   4   3  232.54    9.88
   4  -1   3  249.91   18.28
  -4   1  -2 1492.98   26.66
   3  -4  -2 1458.64   33.05
   1   3  -2 1516.35   22.44
   3  -4  -2 1481.18   27.41
   1   3  -2 1445.40   26.22
  -3   4   2 1498.77   23.68
   4  -1   2 1450.84   26.08
  -4   1  -1  314.81   12.33
   1   3  -1  318.12    7.41
   3  -4  -1  299.99   10.56
   1   3  -1  303.22   12.76
   3  -4  -1  322.86   18.50
   4  -1   1  299.29   12.02
  -3   4   1  307.35   10.23
   1   3   0  425.80    6.82
   1   3   0  428.48   19.95
   1   3   0  442.16    6.66
  -4   1   0  420.60   13.36
   3  -4   0  436.86   13.74
   3  -4   0  424.97   12.63
  -3   4   0  447.15   12.37
   4  -1   0  457.81   13.96
   3  -4   1  321.59   11.52
  -4   1   1  338.82   12.45
   3  -4   1  340.87   12.16
   1   3   1  331.25   14.48
   4  -1  -1  337.36   13.05
  -3   4  -1  330.89   11.79
   3  -4   2 1430.19   26.75
   1   3   2 1428.61   28.06
  -4   1   2 1457.79   26.24
   3  -4   2 1452.47   23.37
   4  -1  -2 1444.98   26.56
  -3   4  -2 1506.62   27.11
   3  -4   3  247.68   13.77
   3  -4   3  240.10    8.46
  -4   1   3  246.67   18.31
   1   3   3  245.68   14.50
  -3   4  -3  243.27   19.48
   4  -1  -3  231.85   13.13
   3  -4   4  435.88    9.21
   1   3   4  460.96   18.48
  -4   1   4  443.91   16.59
  -3   4  -4  456.47   24.09
   4  -1  -4  437.45   17.01
   1   3   5  187.99   15.52
  -4   1   5  199.27   21.93
   4  -1  -5  206.24   15.65
  -1  -3  -5  178.90    5.00
  -3   4  -5  192.68   15.81
  -1  -3  -5  176.16    5.33
   1   3   6  730.33   23.72
  -4   1   6  722.44   24.00
  -3   4  -6  722.35   25.34
   4  -1  -6  736.29   33.22
  -1  -3  -6  662.65   13.13
  -1  -3  -6  706.05   14.28
   1   3   7  168.25   17.86
  -4   1   7  168.67   19.62
  -3   4  -7  186.88   20.71
   4  -1  -7  160.72   19.94
   1   4  -6  241.99   18.93
  -5   1  -6  273.69   20.89
   4  -5  -6  256.29   23.34
   4  -5  -6  244.06   17.62
   1   4  -6  249.09   19.58
   5  -1   6  278.65   20.61
  -4   5   6  254.19   16.46
   5  -1   6  229.91   15.89
   1   4  -5  190.68   15.67
   1   4  -5  189.97   16.21
   4  -5  -5  203.48   20.81
   1   4  -5  194.76   14.14
  -5   1  -5  207.89   18.19
   4  -5  -5  216.32   22.16
   5  -1   5  207.83   17.78
  -4   5   5  198.93   14.28
   4  -5  -4 1111.07   25.15
   1   4  -4 1182.07   25.43
   1   4  -4 1158.01   25.89
   4  -5  -4 1136.12   31.04
  -5   1  -4 1144.82   28.29
   1   4  -4 1106.56   25.85
  -4   5   4 1145.91   24.65
   5  -1   4 1105.41   28.46
   1   4  -3  183.11   11.45
   1   4  -3  182.04   14.04
  -5   1  -3  189.51   14.60
   4  -5  -3  187.51   17.24
   1   4  -3  184.99   15.83
   4  -5  -3  188.95   12.76
   5  -1   3  177.87   14.81
  -4   5   3  175.41   12.15
   4  -5  -2  176.41   12.22
   1   4  -2  182.21   14.45
   4  -5  -2  193.37   16.12
   1   4  -2  188.10    9.30
  -5   1  -2  201.68   13.81
   1   4  -2  194.34    8.72
  -4   5   2  192.66   11.68
   5  -1   2  195.51   14.00
  -5   1  -1  254.48   14.32
   1   4  -1  245.80    7.83
   4  -5  -1  241.60   15.70
   1   4  -1  234.08   22.18
   1   4  -1  240.42    9.36
   4  -5  -1  237.77   12.86
   5  -1   1  233.98   20.46
  -4   5   1  238.92   17.24
   4  -5   0 1849.78   38.04
   4  -5   0 1895.58   34.31
   1   4   0 1838.74   35.70
  -5   1   0 1903.43   34.22
   5  -1   0 1878.76   34.31
  -4   5   0 1872.20   32.28
  -5   1   1  237.88   14.42
   4  -5   1  269.06   20.10
   1   4   1  243.20   16.30
   4  -5   1  236.23   14.37
  -4   5  -1  283.65   20.52
   5  -1  -1  270.77   14.80
   4  -5   2  193.90   21.76
   1   4   2  187.35   16.69
   4  -5   2  177.24   11.96
  -5   1   2  178.02   14.16
  -4   5  -2  189.47   14.24
   5  -1  -2  179.11   14.32
   4  -5   3  173.33   15.59
   4  -5   3  160.10   10.36
   1   4   3  197.84   17.33
  -5   1   3  177.52   14.87
   5  -1  -3  164.54   22.69
  -4   5  -3  175.51   15.64
   4  -5   4 1187.54   30.90
   4  -5   4 1115.25   20.51
  -5   1   4 1123.77   28.63
   1   4   4 1158.54   32.15
   5  -1  -4 1236.00   37.32
  -4   5  -4 1184.81   30.36
   1   4   5  224.63   20.37
  -5   1   5  202.70   18.51
  -4   5  -5  196.86   19.25
   5  -1  -5  220.67   19.28
   1   4   6  252.82   22.32
  -5   1   6  242.53   31.33
  -4   5  -6  261.05   33.21
   5  -1  -6  250.82   21.94
   5  -6  -3  104.48   32.50
   1   5  -3  107.80   12.43
   1   5  -3  111.36   16.97
   5  -6  -3  121.91   15.61
  -6   1  -3  124.87   16.73
   6  -1   3  126.99   17.71
  -5   6   3  121.82   14.78
  -6   1  -2  490.82   21.59
   5  -6  -2  489.58   35.12
   5  -6  -2  470.37   20.19
  -5   6   2  489.40   19.39
   6  -1   2  454.60   21.86
   1   5  -1   70.99   16.15
   5  -6  -1    0.18   14.26
   5  -6  -1   -0.10   25.17
  -6   1  -1   -0.71   14.88
  -5   6   1   72.37   13.26
   6  -1   1   75.15   14.90
   1   5   0  222.66   20.14
  -6   1   0  225.66   17.49
   5  -6   0  238.34   17.58
   5  -6   0  236.66   19.14
  -5   6   0  239.90   16.48
   6  -1   0  221.76   17.92
   1   5   1   74.87   17.96
  -6   1   1    0.42   15.23
   5  -6   1   59.92   14.81
   5  -6   1    0.12   15.61
  -5   6  -1   83.63   14.40
   6  -1  -1   87.94   15.64
   1   5   2  470.90   25.91
   5  -6   2  488.95   23.15
  -6   1   2  464.61   22.36
   5  -6   2  445.44   19.36
   6  -1  -2  489.03   22.57
  -5   6  -2  498.54   22.49
   5  -6   3  112.19   13.32
   5  -6   3  124.81   19.02
  -6   1   3  130.24   17.88
   1   5   3  128.78   22.32
  -5   6  -3  123.41   28.64
   6  -1  -3  114.97   18.44
   2   0   0  319.71    9.22
  -2   2   0  311.63    7.68
  -2   0   0  312.40    7.29
   0   2   0  313.62    4.72
   2  -2   0  325.50    9.82
   0   2   0  313.07    8.24
   0   2   0  323.18    5.10
  -2   2   1  661.56   11.45
   2   0   1  666.05   11.15
  -2   0  -1  660.06   11.29
   0   2  -1  672.38   11.73
   0   2  -1  685.41   11.29
   0   2  -1  690.01   10.45
   2  -2  -1  669.22   11.67
   2   0   2 4022.23   45.61
  -2   2   2 4058.76   45.96
   0   2  -2 4046.78   45.14
   2  -2  -2 3956.38   45.33
  -2   0  -2 4093.44   46.12
   2  -2  -2 4091.64   48.52
   0   2  -2 4148.07   47.62
   2   0   3  153.29    7.18
  -2   2   3  154.99    6.97
   0   2  -3  150.62    5.11
   2  -2  -3  164.64   11.81
   2  -2  -3  161.33    7.08
   0   2  -3  154.07    7.52
  -2   0  -3  165.94    7.55
   2   0   4 1000.85   16.72
  -2   2   4  992.37   17.93
   0   2  -4 1021.62   19.61
   2  -2  -4 1013.97   18.31
   2  -2  -4 1012.39   19.37
  -2   0  -4 1033.04   18.98
   2   0   5  470.22   13.76
  -2   2   5  464.31   13.43
   0   2  -5  458.70    7.86
   2  -2  -5  470.19   14.24
   0   2  -5  469.17   15.34
   2  -2  -5  474.17   13.59
  -2   0  -5  472.30   18.52
   2   0   6 1382.18   23.68
  -2   2   6 1341.37   25.83
   2  -2  -6 1370.39   26.29
  -2   0  -6 1313.77   26.54
   0   2  -6 1292.49   15.24
   2  -2  -6 1356.89   25.97
   0   2  -6 1372.71   28.61
   2   0   7  205.93   12.16
  -2   2   7  218.71   14.28
   0   2  -7  218.42   16.76
   0   2  -7  224.44   17.08
  -2   0  -7  208.04   14.96
   2  -2  -7  205.53   14.30
   2  -2  -7  205.32   13.08
  -2   0  -7  216.10   14.96
  -2   0  -8  622.72   23.19
   2  -2  -8  653.08   22.78
  -2   0  -8  670.06   32.21
   0   2  -8  644.84   34.99
   0   2  -8  664.11   25.70
   2  -2  -8  645.38   21.07
  -2   0  -9  172.83   19.43
   2  -2  -9  163.31   23.29
   0   2  -9  169.78   22.84
   0   2  -9  161.61   22.28
   2  -2  -9  176.24   19.18
  -2   0  -9  175.69   19.50
  -3   2  -8  409.32   23.85
   1  -3  -8  363.58   17.15
  -3   2  -8  388.11   23.46
   2   1  -8  398.36   23.61
   1  -3  -8  387.30   28.04
   2   1  -7  270.53   18.64
  -3   2  -7  276.67   19.18
   1  -3  -7  254.98   16.36
   1  -3  -7  263.97   13.04
   1  -3  -6 1119.88   24.56
   1  -3  -6 1089.40   24.89
  -3   2  -6 1072.92   27.16
   2   1  -6 1101.37   26.47
  -2  -1   6 1104.62   25.98
   1  -3  -5  217.09    8.25
   1  -3  -5  199.91   12.49
   2   1  -5  198.51   12.89
  -3   2  -5  217.86   13.84
  -1   3   5  222.04   13.49
   3  -2   5  206.50    4.42
  -2  -1   5  215.80   12.72
   1  -3  -4  699.70   12.21
   2   1  -4  711.58   17.27
  -3   2  -4  701.33   18.86
   1  -3  -4  697.53   22.10
  -2  -1   4  719.70   16.99
  -1   3   4  687.36   18.41
  -1   3   4  698.41   12.22
   3  -2   4  737.57   18.68
   1  -3  -3  426.51    9.13
   1  -3  -3  428.06   13.25
  -3   2  -3  447.38   13.93
   2   1  -3  433.14   12.14
   3  -2   3  427.11   13.82
  -2  -1   3  424.03   11.56
  -1   3   3  436.33    9.22
  -1   3   3  440.58   14.27
   1  -3  -2 1922.62   32.24
  -3   2  -2 1880.26   28.61
   1  -3  -2 1862.20   21.46
   2   1  -2 1919.61   26.70
  -1   3   2 1897.80   21.41
  -2  -1   2 1904.99   26.30
  -1   3   2 1917.52   29.41
   3  -2   2 1811.62   28.04
   1  -3  -1  266.60    9.89
   1  -3  -1  253.19    5.16
   2   1  -1  258.54    7.49
  -3   2  -1  264.04   13.09
  -1   3   1  255.14    5.79
  -1   3   1  257.05    9.73
  -2  -1   1  260.09    7.41
   3  -2   1  261.64    9.74
   1  -3   0 1078.06   14.67
  -3   2   0 1044.03   17.85
   1  -3   0 1098.09   18.89
   2   1   0 1052.77   15.06
  -1   3   0 1057.06   17.90
   3  -2   0 1040.39   18.15
  -1   3   0 1096.29   15.58
  -2  -1   0 1078.39   16.69
   1  -3   1  260.42    8.69
   2   1   1  246.35    8.01
  -3   2   1  260.28    8.97
   3  -2  -1  253.61    9.18
  -1   3  -1  260.05    7.37
  -2  -1  -1  256.04    6.24
  -1   3  -1  237.66    7.88
  -3   2   2 1815.10   26.81
   2   1   2 1843.81   23.51
  -2  -1  -2 1873.88   23.30
   3  -2  -2 1907.86   28.00
  -1   3  -2 1895.33   26.74
  -1   3  -2 1870.10   24.37
  -3   2   3  424.00   12.25
   2   1   3  414.21    9.68
   2   1   3  416.32   16.44
   3  -2  -3  435.13   12.65
  -1   3  -3  432.99   12.68
  -1   3  -3  414.26    8.43
  -2  -1  -3  435.81    9.62
   2   1   4  713.91   16.72
  -3   2   4  647.76   15.93
  -1   3  -4  706.17   17.51
  -1   3  -4  679.54   17.38
   3  -2  -4  693.88   17.06
  -2  -1  -4  695.31   14.23
   2   1   5  204.60   10.98
  -3   2   5  202.93   11.87
   3  -2  -5  201.15   12.53
  -2  -1  -5  216.70    9.98
  -1   3  -5  201.16   13.25
   3  -2  -5  199.71   12.42
  -1   3  -5  197.93   13.08
  -3   2   6 1095.92   24.91
   2   1   6 1087.92   22.57
  -1   3  -6 1044.28   26.37
   3  -2  -6 1158.17   32.26
  -2  -1  -6 1109.48   27.18
  -2  -1  -6 1128.31   23.21
   3  -2  -6 1102.23   24.79
  -1   3  -6 1129.68   27.38
  -3   2   7  257.32   16.86
   2   1   7  250.16   13.18
  -2  -1  -7  238.11   20.93
  -1   3  -7  275.04   19.52
  -1   3  -7  282.60   19.23
   3  -2  -7  236.41   16.89
  -2  -1  -7  250.92   14.72
   3  -2  -7  262.64   15.91
  -3   2   8  392.45   21.26
   2   1   8  370.02   22.04
   3  -2  -8  383.76   18.91
  -1   3  -8  374.72   23.64
  -2  -1  -8  368.52   19.21
   3  -2  -8  382.12   21.48
  -2  -1  -8  369.66   18.67
  -1   3  -8  378.48   23.88
   2  -4  -7  116.54   12.20
   2  -4  -7  127.15   17.12
   2   2  -7  117.26   17.90
  -4   2  -7  134.68   18.67
   2  -4  -6  381.63   19.27
   2  -4  -6  388.15   18.18
   2   2  -6  389.23   19.07
  -4   2  -6  422.24   20.39
   4  -2   6  361.52   11.97
  -2   4   6  388.54   13.60
   2  -4  -5  208.52   15.41
  -4   2  -5  204.36   15.87
   2  -4  -5  200.65   13.41
   2   2  -5  180.60   19.98
   4  -2   5  194.19   15.41
  -2   4   5  199.21    9.32
   2  -4  -4 2038.98   28.13
   2  -4  -4 2019.06   41.52
   2   2  -4 2030.48   33.56
  -4   2  -4 2063.38   36.70
   4  -2   4 1969.05   35.77
  -2   4   4 2099.21   30.61
  -2  -2   4 2001.05   33.02
   2  -4  -3  484.41   17.06
   2   2  -3  503.58   13.88
   2  -4  -3  512.22   13.38
  -4   2  -3  527.59   17.25
  -2   4   3  515.22   10.58
   4  -2   3  468.14   16.49
  -2  -2   3  513.94   13.90
   2   2  -2  169.27    8.19
   2  -4  -2  166.89   11.94
  -4   2  -2  169.01   11.46
   2  -4  -2  161.63    8.91
  -2   4   2  177.69   11.82
  -2   4   2  169.07    6.25
  -2  -2   2  169.60    8.04
   4  -2   2  184.52   11.42
  -4   2  -1  365.38   17.57
   2  -4  -1  373.79   13.43
   2   2  -1  348.62   11.55
   2  -4  -1  356.89    9.07
   4  -2   1  360.24   13.15
  -2   4   1  344.84    8.31
  -2   4   1  364.88   13.10
  -2  -2   1  355.82    8.95
   2  -4   0 4379.77   55.92
   2   2   0 4241.28   46.39
  -4   2   0 4265.95   58.65
   2  -4   0 4179.39   49.99
  -2   4   0 4326.40   50.06
  -2   4   0 4350.85   54.67
   4  -2   0 4226.53   55.68
  -2  -2   0 4244.44   46.35
   2  -4   1  352.21   10.98
  -4   2   1  353.95   17.55
   2  -4   1  355.30   11.93
   2   2   1  356.23    8.62
   4  -2  -1  365.20   13.20
  -2   4  -1  346.49   11.16
  -2   4  -1  371.19   10.71
  -2  -2  -1  345.69    6.86
   2  -4   2  114.33    9.39
   2   2   2  165.80    5.03
   2  -4   2  172.88   12.41
   2   2   2  169.62   17.52
  -4   2   2  157.50   15.01
   4  -2  -2  167.09   11.17
  -2   4  -2  177.57    8.07
  -2  -2  -2  162.31    4.57
  -2   4  -2  168.70    9.80
  -4   2   3  497.28   15.83
   2   2   3  513.21   17.34
   4  -2  -3  517.90   16.50
  -2  -2  -3  507.30    8.82
  -2   4  -3  488.38   15.23
   2   2   4 2007.05   35.62
  -4   2   4 1943.81   33.75
  -2  -2  -4 2025.68   25.89
   4  -2  -4 2084.91   40.29
  -2   4  -4 1985.89   34.21
   2   2   5  186.73   14.22
  -4   2   5  196.50   14.14
  -2  -2  -5  185.76    8.27
   4  -2  -5  195.41   14.75
  -2   4  -5  199.86   15.06
  -2  -2  -5  195.83    8.67
  -4   2   6  381.48   18.77
   2   2   6  405.47   18.11
  -2   4  -6  387.60   28.28
  -2  -2  -6  374.13   13.06
  -2  -2  -6  377.53   12.59
  -2   4  -6  388.73   20.76
   4  -2  -6  389.98   19.61
   2   2   7  124.92   15.51
  -4   2   7  142.40   17.33
   4  -2  -7  135.15   17.99
  -2   4  -7  121.42   28.39
  -2   4  -7  131.91   19.48
  -2  -2  -7  124.69   17.22
  -2  -2  -7  133.51   17.87
   4  -2  -7  117.35   16.28
   3  -5  -6  499.68   17.84
   3  -5  -6  616.87   26.18
   2   3  -6  558.84   23.30
  -5   2  -6  598.79   25.97
  -3   5   6  552.28   17.79
   5  -2   6  557.73   25.55
   3  -5  -5  157.81   11.55
  -5   2  -5  171.41   18.14
   3  -5  -5  173.82   27.93
   2   3  -5  165.10   14.97
  -3   5   5  170.58   10.91
   5  -2   5  172.37   17.86
   2   3  -4  327.90   15.12
   3  -5  -4  324.00   19.90
  -5   2  -4  296.40   27.03
   3  -5  -4  326.31   12.47
   5  -2   4  320.79   18.49
  -3   5   4  346.94   12.01
   3  -5  -3  108.04   15.37
  -5   2  -3   86.55   20.90
   2   3  -3   96.87    9.74
   3  -5  -3   97.49    8.74
   5  -2   3   84.42   13.93
  -3   5   3  103.92    8.26
   2   3  -2 1220.04   21.18
   3  -5  -2 1225.62   28.79
  -5   2  -2 1175.42   26.83
   3  -5  -2 1172.92   21.28
  -3   5   2 1153.28   20.15
   5  -2   2 1163.67   33.06
   3  -5  -1  188.88   14.54
   2   3  -1  215.49   10.72
  -5   2  -1  189.00   13.56
   3  -5  -1  208.99   10.42
   2   3  -1  188.82   14.45
  -3   5   1  192.83    9.23
   5  -2   1  201.42   14.11
   2   3   0  183.43    5.86
   3  -5   0  178.11   15.28
  -5   2   0  176.24   13.19
   2   3   0  182.63   14.74
   3  -5   0  176.54   12.99
   5  -2   0  194.45   13.75
  -3   5   0  188.18    9.77
   2   3   1  176.35   15.21
   3  -5   1  194.84   11.85
  -5   2   1  206.03   13.93
   2   3   1  186.47    4.00
   3  -5   1  192.06   12.18
  -3   5  -1  192.08   11.07
   5  -2  -1  184.43   20.36
   3  -5   2 1171.95   27.70
  -5   2   2 1194.07   26.69
   2   3   2 1187.25   28.91
   3  -5   2 1208.31   25.85
   5  -2  -2 1220.82   27.27
  -3   5  -2 1199.40   30.01
   3  -5   3  105.51    9.19
   2   3   3  102.42   15.19
  -5   2   3  122.43   20.49
   5  -2  -3  101.20   13.85
  -3   5  -3  101.61   12.48
   2   3   4  301.09   19.21
  -5   2   4  329.76   18.20
   5  -2  -4  334.61   18.92
  -3   5  -4  341.25   17.81
   2   3   5  193.15   18.12
  -5   2   5  177.61   25.57
   5  -2  -5  177.62   17.89
  -3   5  -5  161.14   16.96
  -5   2   6  544.71   24.30
   2   3   6  567.31   24.96
   5  -2  -6  555.67   25.47
  -3   5  -6  548.43   24.67
   2   4  -4  226.93   15.32
  -6   2  -4  239.22   30.65
   4  -6  -4  222.72   21.37
   4  -6  -4  263.89   23.79
   6  -2   4  220.62   20.81
  -4   6   4  228.76   13.83
  -6   2  -3   64.49   25.95
   2   4  -3  114.69   11.66
   4  -6  -3  104.24   12.34
   4  -6  -3  117.73   19.43
   6  -2   3  109.38   17.49
  -4   6   3  121.44   11.53
   2   4  -2  591.85   15.30
   4  -6  -2  574.09   18.73
   2   4  -2  601.52   23.82
   4  -6  -2  594.03   25.30
  -6   2  -2  598.55   22.91
   6  -2   2  574.92   23.24
  -4   6   2  616.79   23.13
   2   4  -1   65.70    6.27
   2   4  -1   74.37    6.40
   4  -6  -1   74.29   18.30
   2   4  -1   89.50   16.59
   4  -6  -1   89.48   16.25
  -6   2  -1   71.82   15.23
  -4   6   1   79.80   10.89
   6  -2   1   95.35   15.56
  -6   2   0  229.08   17.90
   4  -6   0  221.56   17.38
   4  -6   0  234.45   15.28
   2   4   0  242.19   19.56
  -4   6   0  243.16   14.09
   6  -2   0  256.76   18.07
   4  -6   1   70.53   13.73
   4  -6   1   61.45   13.54
   2   4   1   83.31   17.65
  -6   2   1   81.27   15.16
   6  -2  -1  110.42   16.09
  -4   6  -1   67.66   12.26
   4  -6   2  575.81   21.53
   4  -6   2  589.12   19.95
   2   4   2  589.55   25.49
  -6   2   2  579.88   23.45
  -4   6  -2  584.15   28.61
   6  -2  -2  597.22   23.97
   2   4   3  132.95   19.93
  -6   2   3  129.05   17.79
   4  -6   3  116.50   19.26
   6  -2  -3  130.74   18.00
  -4   6  -3  129.58   16.51
   2   4   4  225.27   23.13
  -6   2   4  242.10   20.79
   6  -2  -4  218.75   20.94
  -4   6  -4  232.10   19.75
  -3   3   0 4566.35   54.95
   3   0   0 4609.82   56.41
   0   3   0 4630.89   44.58
   0   3   0 4651.10   56.45
  -3   0   0 4564.60   53.80
   0   3   0 4743.96   44.77
   3  -3   0 4678.91   56.22
   3  -3   0 4518.59   57.41
  -3   3   1  553.98   12.68
   3   0   1  594.43   15.58
  -3   0  -1  548.23   12.21
   0   3  -1  548.65   10.09
   3  -3  -1  526.97   12.91
   0   3  -1  542.54   13.26
   3  -3  -1  528.51   14.02
   0   3  -1  548.46   10.86
   3   0   2  368.08   10.63
  -3   3   2  363.02   10.68
   3  -3  -2  381.06   13.02
   0   3  -2  372.86    9.69
   0   3  -2  382.25   14.20
  -3   0  -2  344.21   10.24
   3  -3  -2  387.02   11.28
   0   3  -2  364.41    9.12
  -3   3   3  481.01   12.88
   3   0   3  498.39   13.33
   0   3  -3  500.22   11.97
   3  -3  -3  497.59   15.42
   0   3  -3  503.07   12.74
  -3   0  -3  482.62   12.84
   3  -3  -3  489.64   13.24
   0   3  -3  506.54   13.25
   3   0   4 2278.75   35.09
   3   0   4 2331.46   34.18
  -3   3   4 2256.02   36.80
   0   3  -4 2314.87   35.75
   3  -3  -4 2305.50   42.00
   0   3  -4 2338.59   35.38
   0   3  -4 2241.60   29.78
  -3   0  -4 2342.09   35.17
   3  -3  -4 2322.67   35.17
  -3   3   5  334.79   18.14
   3   0   5  343.66   12.38
   0   3  -5  292.73   20.22
   3  -3  -5  312.51   13.27
   3  -3  -5  340.38   15.73
  -3   0  -5  316.00   13.67
   0   3  -5  322.22   14.96
   0   3  -5  307.35    8.65
  -3   3   6  436.89   16.35
   3   0   6  430.30   13.83
   0   3  -6  449.88   19.00
   0   3  -6  414.99    9.08
   3  -3  -6  452.95   18.46
   3  -3  -6  436.73   16.94
   0   3  -6  432.54   18.81
  -3   0  -6  446.87   17.23
  -3   3   7  115.46   13.89
   3   0   7  112.03    9.96
   3  -3  -7   88.04   21.88
   3  -3  -7  100.12   14.75
  -3   0  -7  125.01   14.80
   0   3  -7  110.58   16.47
   0   3  -7  100.86   16.28
  -3   3   8  609.27   23.46
  -3   0  -8  550.42   23.59
   3  -3  -8  615.42   24.32
   3  -3  -8  648.68   24.54
   0   3  -8  565.86   26.60
  -3   0  -8  611.93   33.14
   0   3  -8  594.09   27.09
   3   1  -7  150.88   18.88
  -4   3  -7  180.98   20.74
   1  -4  -7  161.11   18.16
  -3  -1   7  164.50   18.74
   3   1  -6  726.56   24.05
   1  -4  -6  757.52   16.25
   1  -4  -6  731.06   18.43
  -4   3  -6  773.64   26.53
   1  -4  -6  740.80   24.41
  -3  -1   6  740.40   24.16
  -1   4   6  728.06   25.03
  -4   3  -5  195.35   16.77
   1  -4  -5  179.29    6.69
   3   1  -5  182.43   14.35
   1  -4  -5  188.57   23.47
  -1   4   5  158.50   24.21
   4  -3   5  166.65    5.96
  -3  -1   5  179.80   14.34
   4  -3   5  193.05   16.79
   1  -4  -4  435.05    9.19
   3   1  -4  429.04   16.02
   1  -4  -4  468.96   18.34
  -4   3  -4  444.49   19.31
   4  -3   4  469.36   18.67
  -1   4   4  435.61   18.64
  -3  -1   4  423.26   15.38
   1  -4  -3  239.17    4.06
   1  -4  -3  258.33   14.79
  -4   3  -3  244.27   14.48
   3   1  -3  248.15   11.97
  -3  -1   3  235.78   11.66
  -1   4   3  253.16   14.78
   4  -3   3  247.91   20.75
  -4   3  -2 1444.37   27.44
   3   1  -2 1495.45   25.01
   1  -4  -2 1451.31   33.25
  -1   4   2 1429.86   27.92
  -3  -1   2 1437.11   27.17
  -1   4   2 1370.53   13.19
   4  -3   2 1446.62   27.70
  -4   3  -1  313.01   12.87
   1  -4  -1  312.93   13.45
   3   1  -1  311.68   10.49
  -1   4   1  294.54   13.17
  -1   4   1  314.17    5.14
   4  -3   1  307.56   12.90
  -3  -1   1  310.52   10.24
   3   1   0  443.16   14.34
  -4   3   0  421.85   13.89
   1  -4   0  458.80   14.84
  -1   4   0  461.33    8.32
  -3  -1   0  425.42   10.80
  -1   4   0  455.94   14.02
   4  -3   0  432.01   14.26
  -4   3   1  307.44   12.55
   3   1   1  305.38    9.30
  -3  -1  -1  321.31    9.40
  -1   4  -1  327.53   11.75
   4  -3  -1  324.86   13.01
  -1   4  -1  325.03    8.95
  -4   3   2 1448.48   26.03
   3   1   2 1449.75   22.59
   4  -3  -2 1419.27   26.01
  -3  -1  -2 1403.74   21.36
  -1   4  -2 1439.27   26.41
  -1   4  -2 1440.66   23.88
  -1   4  -2 1433.57   22.99
   3   1   3  256.60    9.97
  -4   3   3  256.67   12.57
   4  -3  -3  251.04   12.97
  -3  -1  -3  256.51    9.21
  -1   4  -3  254.90   11.61
  -1   4  -3  246.44    9.38
  -1   4  -3  236.71   11.31
  -4   3   4  465.59   16.21
   3   1   4  428.39   16.46
   3   1   4  451.38   13.52
  -3  -1  -4  452.04   12.79
   4  -3  -4  449.00   16.38
  -1   4  -4  461.93   11.28
  -1   4  -4  446.15   15.95
  -1   4  -4  460.17   16.20
   3   1   5  196.54   13.39
  -4   3   5  190.06   13.76
   4  -3  -5  217.68   15.71
   4  -3  -5  193.71   14.22
  -1   4  -5  197.04   14.88
  -1   4  -5  197.63   15.01
  -1   4  -5  178.04    6.91
  -3  -1  -5  181.61   11.33
   3   1   6  725.52   21.04
  -4   3   6  716.73   22.47
   4  -3  -6  690.16   22.77
  -1   4  -6  711.36   24.10
   4  -3  -6  715.56   24.23
  -1   4  -6  758.03   24.69
  -3  -1  -6  738.39   20.31
   3   1   7  169.39   15.01
  -4   3   7  171.60   17.32
   4  -3  -7  175.95   18.00
  -1   4  -7  176.22   19.91
   4  -3  -7  159.91   18.14
  -3  -1  -7  164.26   14.86
  -3  -1  -7  172.68   22.50
  -1   4  -7  145.14   19.00
   3   2  -6  554.73   23.60
  -5   3  -6  556.14   26.10
   2  -5  -6  614.87   26.74
   5  -3   6  521.03   26.22
   2  -5  -5  186.98   18.79
   3   2  -5  158.69   15.38
  -5   3  -5  171.73   18.53
   5  -3   5  158.33   18.66
  -3  -2   5  148.69   15.38
  -5   3  -4  336.82   19.98
   3   2  -4  329.79   15.89
   2  -5  -4  348.95   28.21
   2  -5  -4  326.15    8.99
   5  -3   4  324.43   19.96
  -2   5   4  335.47    8.82
  -3  -2   4  343.84   15.82
  -5   3  -3  112.45   14.92
   3   2  -3  105.28   10.93
   2  -5  -3   97.19   23.23
   2  -5  -3   99.29    8.27
  -2   5   3  110.89   15.18
   5  -3   3   96.82   14.47
  -2   5   3  101.19    5.22
  -3  -2   3   97.95   10.80
  -5   3  -2 1205.41   27.66
   3   2  -2 1177.44   22.45
   2  -5  -2 1193.42   17.83
   2  -5  -2 1188.91   28.52
  -2   5   2 1167.97   16.48
   5  -3   2 1178.12   27.39
  -3  -2   2 1168.56   22.04
  -2   5   2 1187.13   34.28
   3   2  -1  211.65    9.57
  -5   3  -1  183.03   14.43
   2  -5  -1  213.49   15.13
   2  -5  -1  198.15    7.81
  -2   5   1  194.98   13.83
  -3  -2   1  199.45    9.28
   5  -3   1  189.20   21.04
  -2   5   1  199.23    6.92
   3   2   0  183.47    8.43
   2  -5   0  158.56    8.44
  -5   3   0  178.36   13.54
   2  -5   0  193.62   19.98
  -2   5   0  177.06   12.79
  -3  -2   0  179.99    8.04
   5  -3   0  187.30   14.01
  -2   5   0  189.68    7.84
   3   2   1  193.11    7.91
   2  -5   1  200.74   12.93
  -5   3   1  192.69   20.03
  -2   5  -1  182.78   12.04
  -3  -2  -1  190.99   10.52
   5  -3  -1  198.20   14.21
  -2   5  -1  185.55    9.26
  -5   3   2 1209.26   26.45
   3   2   2 1212.83   21.76
   3   2   2 1197.13   29.13
   5  -3  -2 1196.08   27.12
  -2   5  -2 1213.54   23.69
  -3  -2  -2 1284.14   21.36
  -2   5  -2 1222.05   23.29
   3   2   3   89.62    6.89
  -5   3   3  110.21   13.24
   3   2   3   88.74   14.46
   5  -3  -3  100.35   13.78
  -2   5  -3   94.39    9.03
  -3  -2  -3   96.36    6.44
  -2   5  -3   93.89   11.27
  -5   3   4  313.96   17.61
   3   2   4  315.08   18.77
   5  -3  -4  340.92   18.45
  -3  -2  -4  291.73    9.50
  -2   5  -4  330.51   16.67
   3   2   5  162.36   25.21
  -5   3   5  161.71   16.53
   5  -3  -5  159.37   17.38
  -3  -2  -5  149.63    9.15
  -2   5  -5  176.14   16.63
  -2   5  -5  177.64   16.91
   3   2   6  573.14   23.53
  -5   3   6  568.80   23.83
   5  -3  -6  555.96   25.51
   5  -3  -6  591.27   25.20
  -2   5  -6  605.93   25.57
  -2   5  -6  552.35   23.99
  -6   3  -5  188.96   22.93
   3   3  -5  203.58   18.07
   3  -6  -5  189.33   23.65
   6  -3   5  222.01   22.68
  -6   3  -4  853.87   30.25
   3   3  -4  854.61   31.54
   3  -6  -4  868.63   31.45
   6  -3   4  813.45   29.98
  -6   3  -3   95.62   26.26
   3   3  -3   79.21   11.46
   3  -6  -3   77.69   18.41
   6  -3   3   53.23   25.83
  -3   6   3   75.87    7.68
   3  -6  -2  181.97   10.53
   3   3  -2  175.69   11.53
  -6   3  -2  178.23   18.16
   3  -6  -2  165.45   18.93
  -3   6   2  175.54    9.21
   6  -3   2  173.96   18.31
  -3  -3   2  152.83   11.50
   3  -6  -1  219.09   27.43
   3   3  -1  189.60   10.32
   3  -6  -1  196.35   11.35
  -6   3  -1  185.43   17.26
  -3   6   1  192.89   10.03
   6  -3   1  194.78   17.75
  -3  -3   1  182.89   10.21
   3  -6   0 1206.67   24.38
  -6   3   0 1193.35   30.14
   3  -6   0 1206.85   30.19
   3   3   0 1220.64   32.70
   3   3   0 1185.75   19.70
  -3   6   0 1174.19   22.32
   6  -3   0 1167.26   30.24
  -3  -3   0 1131.87   19.27
  -6   3   1  184.55   17.51
   3   3   1  169.17    9.80
   3   3   1  204.42   19.59
   3  -6   1  169.43   15.86
  -3   6  -1  187.92   17.59
   6  -3  -1  187.30   17.61
  -6   3   2  200.29   17.50
   3   3   2  154.25   19.49
   3  -6   2  173.71   14.50
   6  -3  -2  177.35   17.77
  -3   6  -2  180.44   20.05
  -6   3   3   73.94   16.61
   3   3   3   94.98   18.69
  -3   6  -3   88.51   14.12
   6  -3  -3   93.96   17.31
   3   3   4  846.49   30.01
  -6   3   4  830.13   28.26
   6  -3  -4  813.73   29.37
  -3   6  -4  817.72   25.72
   3   3   5  175.77   21.50
  -6   3   5  191.25   20.74
   6  -3  -5  214.95   21.83
  -3   6  -5  186.03   19.70
  -7   3  -1   51.17   18.48
   4  -7  -1   -0.01   29.77
  -4   7   1   30.89   17.09
   7  -3   1   48.99   18.61
   3   4   0  117.51   22.84
  -7   3   0  124.78   20.75
   4  -7   0  134.92   20.34
   4  -7   0  127.73   15.53
  -4   7   0  124.07   13.36
   7  -3   0  125.44   20.72
  -7   3   1   55.24   18.36
   3   4   1   66.33   21.52
   4  -7   1   -0.21   16.84
  -4   7  -1   59.61   13.50
   7  -3  -1   56.51   18.99
  -4   4   0  193.84   11.39
   4   0   0  196.22   10.74
   0   4   0  189.53   12.60
  -4   0   0  175.86   10.13
   0   4   0  190.22    3.42
   4  -4   0  190.33   16.95
   4  -4   0  193.96   12.08
   0   4   0  189.45    3.54
  -4   4   1  212.82   11.40
   4   0   1  216.49   11.08
   4  -4  -1  203.46   11.66
   0   4  -1  216.98    7.09
   0   4  -1  209.40    6.28
   4  -4  -1  224.97   13.46
   0   4  -1  196.29   12.02
  -4   0  -1  192.36   10.57
   4   0   2 1438.16   25.97
  -4   4   2 1461.75   30.84
   0   4  -2 1485.27   23.45
   0   4  -2 1491.72   22.44
  -4   0  -2 1405.41   24.98
   0   4  -2 1403.78   26.17
   4  -4  -2 1503.31   29.95
   4  -4  -2 1422.24   26.81
   4   0   3   90.34   10.24
  -4   4   3  102.64   15.40
   0   4  -3   94.16    8.86
   4  -4  -3   91.51   20.67
   0   4  -3   91.98    9.24
  -4   0  -3   87.12   14.82
   0   4  -3   89.12    9.56
   4  -4  -3   96.52   10.75
  -4   4   4  373.42   20.55
   4   0   4  362.10   15.43
   0   4  -4  348.89   20.71
   0   4  -4  363.83   14.62
   4  -4  -4  360.73   18.96
   0   4  -4  345.84   12.69
  -4   0  -4  354.47   14.84
   4  -4  -4  351.79   15.30
   4   0   5  191.40   13.88
  -4   4   5  197.70   13.78
   4   0   5  205.08   14.74
   4  -4  -5  205.54   14.78
   4  -4  -5  214.85   26.44
  -4   0  -5  213.92   14.60
   0   4  -5  198.19   14.97
   0   4  -5  180.11   21.27
   0   4  -5  209.02   15.20
  -4   4   6  615.29   21.31
   4   0   6  618.66   19.87
   4  -4  -6  635.01   25.10
   0   4  -6  629.76   31.75
  -4   0  -6  649.67   22.33
   0   4  -6  648.73   23.62
   4  -4  -6  629.13   21.95
   4   0   7   90.27   13.34
  -4   4   7  104.34   16.05
   4  -4  -7   84.64   16.43
   4  -4  -7   77.81   18.64
  -4   0  -7   75.09   16.42
   0   4  -7  119.13   18.43
   0   4  -7   90.42   18.79
   1  -5  -6  268.71   22.46
   4   1  -6  250.35   21.19
  -5   4  -6  255.78   23.74
  -1   5   6  233.00   23.34
  -4  -1   6  259.63   20.87
   4   1  -5  221.86   18.02
   1  -5  -5  216.52   20.58
  -5   4  -5  219.51   21.58
   5  -4   5  206.75   20.52
  -1   5   5  208.00   21.33
  -4  -1   5  194.76   17.42
   4   1  -4 1139.02   27.51
   1  -5  -4 1130.21   31.03
  -5   4  -4 1131.38   31.20
   5  -4   4 1057.81   30.80
  -1   5   4 1158.25   40.69
   5  -4   4 1096.40   21.28
  -4  -1   4 1119.06   26.75
  -5   4  -3  213.37   17.02
   4   1  -3  180.43   13.70
   1  -5  -3  171.69   17.86
   5  -4   3  170.38   11.27
  -4  -1   3  172.17   13.23
  -1   5   3  184.31   17.74
   5  -4   3  190.86   17.38
  -5   4  -2  207.62   16.23
   4   1  -2  195.81   12.73
   1  -5  -2  212.02   16.98
  -1   5   2  181.61   16.23
  -4  -1   2  204.69   12.34
   5  -4   2  185.22   16.05
   4   1  -1  247.24   12.41
  -5   4  -1  258.28   15.61
   5  -4   1  245.60   22.81
  -4  -1   1  229.29   11.87
  -1   5   1  236.44   15.77
  -5   4   0 1859.02   34.38
   4   1   0 1885.23   31.00
  -1   5   0 1877.91   21.99
  -1   5   0 1889.35   40.22
  -4  -1   0 1832.27   29.66
   5  -4   0 1860.85   35.01
  -1   5   0 1843.45   21.67
  -5   4   1  243.96   14.85
   4   1   1  252.92   11.53
  -1   5  -1  255.84   14.19
  -1   5  -1  264.23    8.57
   5  -4  -1  287.48   22.05
  -1   5  -1  257.42    8.69
  -4  -1  -1  253.46   11.19
  -5   4   2  192.19   14.28
   4   1   2  200.23   10.88
  -4  -1  -2  174.65   10.46
   5  -4  -2  121.98   15.61
  -1   5  -2  194.48   12.60
  -1   5  -2  182.94    9.94
  -1   5  -2  185.35    9.73
   5  -4  -2  190.69   14.76
   4   1   3  170.98   16.58
  -5   4   3  187.87   21.52
   5  -4  -3  169.06   15.02
  -1   5  -3  196.16   17.34
  -4  -1  -3  162.74   10.55
   5  -4  -3  181.33   17.03
  -1   5  -3  167.90   12.18
  -1   5  -3  173.38   11.58
   4   1   4 1151.94   24.33
  -5   4   4 1164.79   27.99
   4   1   4 1146.54   29.50
   5  -4  -4 1171.67   28.97
  -4  -1  -4 1149.54   23.34
  -1   5  -4 1121.41   22.71
  -1   5  -4 1164.62   26.74
  -1   5  -4 1181.94   32.22
   5  -4  -4 1149.74   39.40
   4   1   5  207.24   17.83
  -5   4   5  200.91   16.85
   5  -4  -5  204.51   17.75
  -4  -1  -5  176.89   19.60
  -1   5  -5  189.85   16.65
   5  -4  -5  221.22   20.20
  -1   5  -5  192.99   16.41
  -1   5  -5  195.46   10.93
   4   1   6  250.06   18.87
  -5   4   6  234.98   19.16
  -4  -1  -6  248.60   23.74
   5  -4  -6  269.71   29.82
  -1   5  -6  237.79   19.98
   5  -4  -6  255.55   22.60
  -1   5  -6  242.50   19.97
   4   2  -4  239.25   17.37
  -6   4  -4  265.38   23.86
   2  -6  -4  201.04   23.57
  -2   6   4  237.90   23.22
   6  -4   4  228.02   33.67
  -4  -2   4  235.61   17.59
  -6   4  -3  122.68   19.53
   4   2  -3  117.15   14.15
   2  -6  -3  128.24   20.17
   6  -4   3  120.34   19.19
  -4  -2   3  118.05   13.94
  -2   6   3  121.17   19.48
   4   2  -2  593.55   18.84
   2  -6  -2  618.24   35.76
  -6   4  -2  589.26   24.64
  -2   6   2  576.46   33.92
   6  -4   2  625.08   26.00
  -4  -2   2  581.88   18.45
   4   2  -1   18.10   16.55
  -6   4  -1   94.73   16.30
   2  -6  -1   94.32   16.97
  -2   6   1   93.22   15.65
   6  -4   1   96.28   16.36
  -4  -2   1   77.99   10.46
  -6   4   0  234.51   26.50
   2  -6   0  243.59   18.44
   4   2   0  225.02   12.03
  -2   6   0  232.78   11.67
  -2   6   0  256.56   17.50
   6  -4   0  253.19   18.96
  -2   6   0  218.55    8.28
  -4  -2   0  231.12   16.70
  -6   4   1   84.25   15.47
   4   2   1   59.87   14.39
  -2   6  -1   84.16    8.48
  -2   6  -1    0.00   13.67
  -4  -2  -1   69.46    8.74
   6  -4  -1   84.51   15.46
  -2   6  -1   71.30    8.85
  -6   4   2  603.90   23.32
   4   2   2  591.29   20.73
   4   2   2  583.64   25.79
  -2   6  -2  588.76   20.13
  -4  -2  -2  544.92   14.59
  -2   6  -2  604.38   17.68
   6  -4  -2  592.75   23.90
  -2   6  -2  611.65   23.01
   4   2   3  107.95   10.43
  -6   4   3  138.05   16.92
   4   2   3  111.49   18.96
  -2   6  -3  120.06   13.56
  -2   6  -3  121.48   13.41
   6  -4  -3  148.53   18.40
  -2   6  -3  107.78   12.83
   4   2   4  203.36   21.34
  -6   4   4  228.20   20.24
  -2   6  -4  207.55   17.37
  -2   6  -4  228.57   17.25
   6  -4  -4  249.29   20.82
  -7   4  -1   61.14   29.15
   3  -7  -1    0.06   30.08
   7  -4   1   54.48   30.44
  -7   4   0  136.69   21.31
   4   3   0  149.92   23.53
   3  -7   0  133.57   20.50
   7  -4   0  143.71   21.93
  -7   4   1   69.38   19.07
   4   3   1   59.33   21.91
   7  -4  -1   65.61   19.29
  -5   5   0  192.57   15.08
   5   0   0  199.89   13.89
  -5   0   0  192.66   13.42
   5  -5   0  201.56   15.77
   5  -5   0  183.67   22.74
   0   5   0  191.48   16.49
  -5   5   1   89.42   13.00
   5   0   1   92.84   12.16
   0   5  -1  106.91   14.16
   5  -5  -1  106.67   15.21
   5  -5  -1   91.18   13.78
   0   5  -1   95.16    7.26
   0   5  -1   89.14    5.27
  -5   0  -1    0.16   17.71
  -5   5   2  788.97   22.22
   5   0   2  810.79   28.47
  -5   0  -2  744.78   20.83
   0   5  -2  792.74   16.02
   0   5  -2  760.70   22.54
   5  -5  -2  799.38   26.65
   5  -5  -2  759.96   22.90
   0   5  -2  808.52   17.15
   5   0   3   68.40   20.08
  -5   5   3  102.02   20.33
   0   5  -3  100.06   11.25
   5  -5  -3  125.16   17.70
   0   5  -3   85.82   13.16
  -5   0  -3   96.93   12.54
   5  -5  -3   86.17   14.20
   0   5  -3   94.62   10.20
   5   0   4  261.99   25.22
  -5   5   4  264.43   17.07
  -5   0  -4  253.40   16.50
   5  -5  -4  301.67   22.45
   0   5  -4  264.37   22.77
   0   5  -4  254.36   15.34
   5  -5  -4  268.62   17.53
   0   5  -4  264.27   14.91
   5   0   5   95.93   15.05
   5   0   5   66.46   15.86
  -5   5   5    0.22   14.85
   5  -5  -5   -0.04   15.60
   0   5  -5   94.30   14.48
   5  -5  -5   84.63   19.83
  -5   0  -5   77.04   14.81
   0   5  -5   57.30   15.19
   5   1  -3  133.39   16.61
  -6   5  -3  125.84   20.66
   6  -5   3  128.32   20.66
  -5  -1   3  135.29   16.13
  -1   6   3  155.07   21.48
   6  -5   3  116.00   14.09
   5   1  -2  489.77   20.50
  -6   5  -2  482.63   24.15
   6  -5   2  518.71   24.47
   6  -5   2  463.06   19.87
  -5  -1   2  479.89   19.60
  -1   6   2  479.80   24.86
  -6   5  -1   76.05   16.15
   5   1  -1   62.70   19.45
  -1   6   1   68.40   16.90
   6  -5   1    0.01   14.44
  -5  -1   1    0.22   18.89
   6  -5   1   78.60   16.97
  -6   5   0  247.91   18.80
   5   1   0  234.05   15.26
  -1   6   0  253.37   19.32
   6  -5   0  257.67   18.74
  -5  -1   0  227.72   14.85
   6  -5   0  239.96   19.35
  -6   5   1   79.62   16.02
   5   1   1   58.15   12.72
   6  -5  -1   68.04   16.77
  -5  -1  -1   70.21   12.15
   6  -5  -1   88.32   17.00
  -6   5   2  511.79   22.51
   5   1   2  453.39   18.51
   6  -5  -2  493.28   24.98
  -5  -1  -2  479.43   17.53
   6  -5  -2  468.28   22.68
   5   1   3   42.02   21.40
  -6   5   3  118.31   17.47
  -5  -1  -3  127.58   20.24
   6  -5  -3  139.06   21.10
  -1   6  -3  123.57   18.37
  -1   6  -3  120.92   13.03
   6  -5  -3  115.27   18.12
  -6   6   0  833.84   27.85
   6   0   0  810.84   26.15
   6  -6   0  790.18   28.01
   6  -6   0  797.70   28.68
  -6   0   0  813.45   25.74
   6   0   1  101.43   24.95
  -6   6   1  124.00   17.50
   6  -6  -1   -0.45   26.58
  -6   0  -1  108.19   15.54
   6  -6  -1   -0.13   19.50
   0   0   0    0.00    0.00
;
_shelx_hkl_checksum              94503
loop_
_symmetry_equiv_pos_as_xyz
'x, y, z'
'-y, x-y, z'
'-x+y, -x, z'
'x-y, -y, -z'
'-x, -x+y, -z'
'y, x, -z'
'-x, -y, -z'
'y, -x+y, -z'
'x-y, x, -z'
'-x+y, y, z'
'x, x-y, z'
'-y, -x, z'
loop_
_atom_site_label
_atom_site_type_symbol
_atom_site_fract_x
_atom_site_fract_y
_atom_site_fract_z
_atom_site_U_iso_or_equiv
_atom_site_adp_type
_atom_site_occupancy
_atom_site_site_symmetry_order
_atom_site_calc_flag
_atom_site_refinement_flags_posn
_atom_site_refinement_flags_adp
_atom_site_refinement_flags_occupancy
Na1 Na 0.3333 0.6667 0.7094(7) 0.0222(14) Uani 1 6 d S T P
Ca1 Ca 0.0000 0.0000 0.5000 0.0088(4) Uani 1 12 d S T P
Ba1 Ba 0.0000 0.0000 0.0000 0.0148(2) Uani 1 12 d S T P
P1 P 0.3333 0.6667 0.2294(4) 0.0087(7) Uani 1 6 d S T P
O1 O 0.3333 0.6667 0.0232(12) 0.0176(16) Uani 1 6 d S T P
O2 O 0.1217(9) 0.3675(11) 0.3005(5) 0.0167(11) Uiso 0.5 1 d . . P
loop_
_atom_site_aniso_label
_atom_site_aniso_U_11
_atom_site_aniso_U_22
_atom_site_aniso_U_33
_atom_site_aniso_U_23
_atom_site_aniso_U_13
_atom_site_aniso_U_12
Na1 0.0195(16) 0.0195(16) 0.028(3) 0.000 0.000 0.0097(8)
Ca1 0.0093(6) 0.0093(6) 0.0079(8) 0.000 0.000 0.0046(3)
Ba1 0.0179(3) 0.0179(3) 0.0086(3) 0.000 0.000 0.00897(13)
P1 0.0078(8) 0.0078(8) 0.0105(16) 0.000 0.000 0.0039(4)
O1 0.0227(18) 0.0227(18) 0.007(4) 0.000 0.000 0.0113(9)
loop_
_atom_type_symbol
_atom_type_description
_atom_type_scat_dispersion_real
_atom_type_scat_dispersion_imag
_atom_type_scat_source
O O 0.0106 0.0060 'International Tables Vol C Tables 4.2.6.8 and 6.1.1.4'
Na Na 0.0362 0.0249 'International Tables Vol C Tables 4.2.6.8 and 6.1.1.4'
P P 0.1023 0.0942 'International Tables Vol C Tables 4.2.6.8 and 6.1.1.4'
Ca Ca 0.2262 0.3064 'International Tables Vol C Tables 4.2.6.8 and 6.1.1.4'
Ba Ba -0.3244 2.2819 'International Tables Vol C Tables 4.2.6.8 and 6.1.1.4'
loop_
_exptl_crystal_face_index_h
_exptl_crystal_face_index_k
_exptl_crystal_face_index_l
_exptl_crystal_face_perp_dist
-4.83 2.28 3.39 0.0277
-3.01 -2.43 0.16 0.0332
-2.94 3.02 -5.71 0.0387
-1.88 -0.31 -6.64 0.0366
1.40 -5.06 -2.10 0.0165
2.70 -1.99 6.32 0.0133
-1.71 5.26 1.32 0.0312
-1.04 4.76 2.90 0.0294
3.37 -1.96 -5.77 0.0072
-3.27 2.46 5.75 0.0145
loop_
_geom_angle_atom_site_label_1
_geom_angle_atom_site_label_2
_geom_angle_atom_site_label_3
_geom_angle
_geom_angle_site_symmetry_1
_geom_angle_site_symmetry_3
O1 Na1 O2 91.74(18) 1_556 7_566
O1 Na1 O2 91.74(18) 1_556 6_566
O2 Na1 O2 67.7(2) 7_566 6_566
O1 Na1 O2 91.74(18) 1_556 5_556
O2 Na1 O2 52.2(2) 7_566 5_556
O2 Na1 O2 119.91(2) 6_566 5_556
O1 Na1 O2 91.74(18) 1_556 9_666
O2 Na1 O2 119.91(2) 7_566 9_666
O2 Na1 O2 52.2(2) 6_566 9_666
O2 Na1 O2 171.5(3) 5_556 9_666
O1 Na1 O2 91.74(18) 1_556 8_556
O2 Na1 O2 119.91(2) 7_566 8_556
O2 Na1 O2 171.5(3) 6_566 8_556
O2 Na1 O2 67.7(2) 5_556 8_556
O2 Na1 O2 119.91(2) 9_666 8_556
O1 Na1 O2 91.74(18) 1_556 4_666
O2 Na1 O2 171.5(3) 7_566 4_666
O2 Na1 O2 119.91(2) 6_566 4_666
O2 Na1 O2 119.91(2) 5_556 4_666
O2 Na1 O2 67.7(2) 9_666 4_666
O2 Na1 O2 52.2(2) 8_556 4_666
O1 Na1 P1 81.85(11) 1_556 7_666
O2 Na1 P1 145.68(13) 7_566 7_666
O2 Na1 P1 145.68(13) 6_566 7_666
O2 Na1 P1 94.07(12) 5_556 7_666
O2 Na1 P1 94.07(12) 9_666 7_666
O2 Na1 P1 27.88(12) 8_556 7_666
O2 Na1 P1 27.88(12) 4_666 7_666
O1 Na1 P1 81.85(11) 1_556 7_676
O2 Na1 P1 94.07(12) 7_566 7_676
O2 Na1 P1 27.88(12) 6_566 7_676
O2 Na1 P1 145.68(13) 5_556 7_676
O2 Na1 P1 27.88(12) 9_666 7_676
O2 Na1 P1 145.68(13) 8_556 7_676
O2 Na1 P1 94.07(12) 4_666 7_676
P1 Na1 P1 118.02(5) 7_666 7_676
O1 Na1 P1 81.85(11) 1_556 7_566
O2 Na1 P1 27.88(12) 7_566 7_566
O2 Na1 P1 94.07(12) 6_566 7_566
O2 Na1 P1 27.88(12) 5_556 7_566
O2 Na1 P1 145.68(13) 9_666 7_566
O2 Na1 P1 94.07(12) 8_556 7_566
O2 Na1 P1 145.68(13) 4_666 7_566
P1 Na1 P1 118.02(5) 7_666 7_566
P1 Na1 P1 118.02(5) 7_676 7_566
O1 Na1 Ca1 116.11(8) 1_556 1_565
O2 Na1 Ca1 40.66(12) 7_566 1_565
O2 Na1 Ca1 40.66(12) 6_566 1_565
O2 Na1 Ca1 85.77(13) 5_556 1_565
O2 Na1 Ca1 85.77(13) 9_666 1_565
O2 Na1 Ca1 142.4(2) 8_556 1_565
O2 Na1 Ca1 142.4(2) 4_666 1_565
P1 Na1 Ca1 162.04(18) 7_666 1_565
P1 Na1 Ca1 67.54(4) 7_676 1_565
P1 Na1 Ca1 67.54(4) 7_566 1_565
O1 Na1 Ca1 116.11(8) 1_556 .
O2 Na1 Ca1 85.77(14) 7_566 .
O2 Na1 Ca1 142.4(2) 6_566 .
O2 Na1 Ca1 40.66(12) 5_556 .
O2 Na1 Ca1 142.4(2) 9_666 .
O2 Na1 Ca1 40.66(12) 8_556 .
O2 Na1 Ca1 85.77(14) 4_666 .
P1 Na1 Ca1 67.54(4) 7_666 .
P1 Na1 Ca1 162.04(18) 7_676 .
P1 Na1 Ca1 67.54(4) 7_566 .
Ca1 Na1 Ca1 102.09(10) 1_565 .
O2 Ca1 O2 96.51(17) . 8_556
O2 Ca1 O2 83.49(17) . 2
O2 Ca1 O2 180.0 8_556 2
O2 Ca1 O2 70.9(2) . 12
O2 Ca1 O2 163.1(2) 8_556 12
O2 Ca1 O2 16.9(2) 2 12
O2 Ca1 O2 109.1(2) . 6_556
O2 Ca1 O2 16.9(2) 8_556 6_556
O2 Ca1 O2 163.1(2) 2 6_556
O2 Ca1 O2 180.0 12 6_556
O2 Ca1 O2 93.3(2) . 11
O2 Ca1 O2 109.1(2) 8_556 11
O2 Ca1 O2 70.9(2) 2 11
O2 Ca1 O2 83.49(17) 12 11
O2 Ca1 O2 96.51(17) 6_556 11
O2 Ca1 O2 86.7(2) . 5_556
O2 Ca1 O2 70.9(2) 8_556 5_556
O2 Ca1 O2 109.1(2) 2 5_556
O2 Ca1 O2 96.51(17) 12 5_556
O2 Ca1 O2 83.49(17) 6_556 5_556
O2 Ca1 O2 180.00(15) 11 5_556
O2 Ca1 O2 96.51(17) . 9_556
O2 Ca1 O2 83.49(17) 8_556 9_556
O2 Ca1 O2 96.51(17) 2 9_556
O2 Ca1 O2 86.7(2) 12 9_556
O2 Ca1 O2 93.3(2) 6_556 9_556
O2 Ca1 O2 163.1(2) 11 9_556
O2 Ca1 O2 16.9(2) 5_556 9_556
O2 Ca1 O2 83.49(17) . 3
O2 Ca1 O2 96.51(17) 8_556 3
O2 Ca1 O2 83.49(17) 2 3
O2 Ca1 O2 93.3(2) 12 3
O2 Ca1 O2 86.7(2) 6_556 3
O2 Ca1 O2 16.9(2) 11 3
O2 Ca1 O2 163.1(2) 5_556 3
O2 Ca1 O2 180.0 9_556 3
O2 Ca1 O2 16.9(2) . 10
O2 Ca1 O2 86.7(2) 8_556 10
O2 Ca1 O2 93.3(2) 2 10
O2 Ca1 O2 83.49(17) 12 10
O2 Ca1 O2 96.51(17) 6_556 10
O2 Ca1 O2 83.49(17) 11 10
O2 Ca1 O2 96.51(17) 5_556 10
O2 Ca1 O2 109.1(2) 9_556 10
O2 Ca1 O2 70.9(2) 3 10
O2 Ca1 O2 163.1(2) . 4_556
O2 Ca1 O2 93.3(2) 8_556 4_556
O2 Ca1 O2 86.7(2) 2 4_556
O2 Ca1 O2 96.51(17) 12 4_556
O2 Ca1 O2 83.49(17) 6_556 4_556
O2 Ca1 O2 96.51(17) 11 4_556
O2 Ca1 O2 83.49(17) 5_556 4_556
O2 Ca1 O2 70.9(2) 9_556 4_556
O2 Ca1 O2 109.1(2) 3 4_556
O2 Ca1 O2 180.0(2) 10 4_556
O2 Ca1 O2 180.0(2) . 7_556
O2 Ca1 O2 83.49(17) 8_556 7_556
O2 Ca1 O2 96.51(17) 2 7_556
O2 Ca1 O2 109.1(2) 12 7_556
O2 Ca1 O2 70.9(2) 6_556 7_556
O2 Ca1 O2 86.7(2) 11 7_556
O2 Ca1 O2 93.3(2) 5_556 7_556
O2 Ca1 O2 83.49(17) 9_556 7_556
O2 Ca1 O2 96.51(17) 3 7_556
O2 Ca1 O2 163.1(2) 10 7_556
O2 Ca1 O2 16.9(2) 4_556 7_556
O2 Ba1 O2 13.70(17) . 10
O2 Ba1 O2 166.30(17) . 4
O2 Ba1 O2 180.00(10) 10 4
O2 Ba1 O2 180.0 . 7
O2 Ba1 O2 166.30(17) 10 7
O2 Ba1 O2 13.70(17) 4 7
O2 Ba1 O2 114.59(15) . 9
O2 Ba1 O2 123.84(18) 10 9
O2 Ba1 O2 56.16(18) 4 9
O2 Ba1 O2 65.41(15) 7 9
O2 Ba1 O2 65.41(15) . 3
O2 Ba1 O2 56.16(18) 10 3
O2 Ba1 O2 123.84(18) 4 3
O2 Ba1 O2 114.59(15) 7 3
O2 Ba1 O2 180.0(3) 9 3
O2 Ba1 O2 72.32(18) . 11
O2 Ba1 O2 65.41(15) 10 11
O2 Ba1 O2 114.59(15) 4 11
O2 Ba1 O2 107.68(18) 7 11
O2 Ba1 O2 166.30(17) 9 11
O2 Ba1 O2 13.70(17) 3 11
O2 Ba1 O2 107.68(18) . 5
O2 Ba1 O2 114.59(15) 10 5
O2 Ba1 O2 65.41(15) 4 5
O2 Ba1 O2 72.32(18) 7 5
O2 Ba1 O2 13.70(17) 9 5
O2 Ba1 O2 166.30(17) 3 5
O2 Ba1 O2 180.0 11 5
O2 Ba1 O2 56.16(18) . 12
O2 Ba1 O2 65.41(15) 10 12
O2 Ba1 O2 114.59(15) 4 12
O2 Ba1 O2 123.84(18) 7 12
O2 Ba1 O2 107.68(18) 9 12
O2 Ba1 O2 72.32(18) 3 12
O2 Ba1 O2 65.41(15) 11 12
O2 Ba1 O2 114.59(15) 5 12
O2 Ba1 O2 123.84(18) . 6
O2 Ba1 O2 114.59(15) 10 6
O2 Ba1 O2 65.41(15) 4 6
O2 Ba1 O2 56.16(18) 7 6
O2 Ba1 O2 72.32(18) 9 6
O2 Ba1 O2 107.68(18) 3 6
O2 Ba1 O2 114.59(15) 11 6
O2 Ba1 O2 65.41(15) 5 6
O2 Ba1 O2 180.0 12 6
O2 Ba1 O2 114.59(15) . 8
O2 Ba1 O2 107.68(18) 10 8
O2 Ba1 O2 72.32(18) 4 8
O2 Ba1 O2 65.41(15) 7 8
O2 Ba1 O2 65.41(15) 9 8
O2 Ba1 O2 114.59(15) 3 8
O2 Ba1 O2 123.84(18) 11 8
O2 Ba1 O2 56.16(18) 5 8
O2 Ba1 O2 166.30(17) 12 8
O2 Ba1 O2 13.70(17) 6 8
O2 Ba1 O2 65.41(15) . 2
O2 Ba1 O2 72.32(18) 10 2
O2 Ba1 O2 107.68(18) 4 2
O2 Ba1 O2 114.59(15) 7 2
O2 Ba1 O2 114.59(15) 9 2
O2 Ba1 O2 65.41(15) 3 2
O2 Ba1 O2 56.16(18) 11 2
O2 Ba1 O2 123.84(18) 5 2
O2 Ba1 O2 13.70(17) 12 2
O2 Ba1 O2 166.30(17) 6 2
O2 Ba1 O2 180.0(2) 8 2
O1 P1 O2 109.83(18) . 3_565
O1 P1 O2 109.83(18) . 11_565
O2 P1 O2 25.3(3) 3_565 11_565
O1 P1 O2 109.83(18) . 12_665
O2 P1 O2 86.1(3) 3_565 12_665
O2 P1 O2 109.11(19) 11_565 12_665
O1 P1 O2 109.83(18) . 2_665
O2 P1 O2 109.11(19) 3_565 2_665
O2 P1 O2 128.8(3) 11_565 2_665
O2 P1 O2 25.3(3) 12_665 2_665
O1 P1 O2 109.83(18) . 10
O2 P1 O2 128.8(3) 3_565 10
O2 P1 O2 109.11(19) 11_565 10
O2 P1 O2 109.11(19) 12_665 10
O2 P1 O2 86.1(3) 2_665 10
O1 P1 O2 109.83(18) . .
O2 P1 O2 109.11(19) 3_565 .
O2 P1 O2 86.1(3) 11_565 .
O2 P1 O2 128.8(3) 12_665 .
O2 P1 O2 109.11(19) 2_665 .
O2 P1 O2 25.3(3) 10 .
O1 P1 Na1 98.15(11) . 7_666
O2 P1 Na1 149.0(2) 3_565 7_666
O2 P1 Na1 149.0(2) 11_565 7_666
O2 P1 Na1 71.74(16) 12_665 7_666
O2 P1 Na1 46.48(16) 2_665 7_666
O2 P1 Na1 46.48(16) 10 7_666
O2 P1 Na1 71.74(16) . 7_666
O1 P1 Na1 98.15(11) . 7_676
O2 P1 Na1 46.48(16) 3_565 7_676
O2 P1 Na1 71.74(16) 11_565 7_676
O2 P1 Na1 46.48(16) 12_665 7_676
O2 P1 Na1 71.74(16) 2_665 7_676
O2 P1 Na1 149.0(2) 10 7_676
O2 P1 Na1 149.0(2) . 7_676
Na1 P1 Na1 118.02(5) 7_666 7_676
O1 P1 Na1 98.15(11) . 7_566
O2 P1 Na1 71.74(16) 3_565 7_566
O2 P1 Na1 46.48(16) 11_565 7_566
O2 P1 Na1 149.0(2) 12_665 7_566
O2 P1 Na1 149.0(2) 2_665 7_566
O2 P1 Na1 71.74(16) 10 7_566
O2 P1 Na1 46.48(16) . 7_566
Na1 P1 Na1 118.02(5) 7_666 7_566
Na1 P1 Na1 118.02(5) 7_676 7_566
O1 P1 Ba1 61.76(4) . 1_565
O2 P1 Ba1 49.79(17) 3_565 1_565
O2 P1 Ba1 49.79(17) 11_565 1_565
O2 P1 Ba1 113.36(15) 12_665 1_565
O2 P1 Ba1 136.93(16) 2_665 1_565
O2 P1 Ba1 136.93(16) 10 1_565
O2 P1 Ba1 113.36(16) . 1_565
Na1 P1 Ba1 159.92(13) 7_666 1_565
Na1 P1 Ba1 68.35(6) 7_676 1_565
Na1 P1 Ba1 68.35(6) 7_566 1_565
O1 P1 Ba1 61.76(4) . .
O2 P1 Ba1 136.93(17) 3_565 .
O2 P1 Ba1 113.36(16) 11_565 .
O2 P1 Ba1 136.93(16) 12_665 .
O2 P1 Ba1 113.36(15) 2_665 .
O2 P1 Ba1 49.79(17) 10 .
O2 P1 Ba1 49.79(17) . .
Na1 P1 Ba1 68.35(6) 7_666 .
Na1 P1 Ba1 159.92(13) 7_676 .
Na1 P1 Ba1 68.35(6) 7_566 .
Ba1 P1 Ba1 99.45(5) 1_565 .
P1 O1 Na1 180.0 . 1_554
P1 O1 Ba1 93.11(16) . 1_565
Na1 O1 Ba1 86.89(16) 1_554 1_565
P1 O1 Ba1 93.11(16) . .
Na1 O1 Ba1 86.89(16) 1_554 .
Ba1 O1 Ba1 119.71(3) 1_565 .
P1 O1 Ba1 93.11(16) . 1_665
Na1 O1 Ba1 86.89(16) 1_554 1_665
Ba1 O1 Ba1 119.71(3) 1_565 1_665
Ba1 O1 Ba1 119.71(3) . 1_665
O2 O2 P1 77.35(16) 10 .
O2 O2 Ca1 81.55(10) 10 .
P1 O2 Ca1 151.1(3) . .
O2 O2 Na1 175.77(13) 10 7_566
P1 O2 Na1 105.6(2) . 7_566
Ca1 O2 Na1 96.62(19) . 7_566
O2 O2 Ba1 83.15(8) 10 .
P1 O2 Ba1 105.6(2) . .
Ca1 O2 Ba1 91.15(16) . .
Na1 O2 Ba1 93.10(18) 7_566 .
loop_
_geom_bond_atom_site_label_1
_geom_bond_atom_site_label_2
_geom_bond_distance
_geom_bond_site_symmetry_2
Na1 O1 2.310(9) 1_556
Na1 O2 2.393(4) 7_566
Na1 O2 2.393(4) 6_566
Na1 O2 2.393(4) 5_556
Na1 O2 2.393(4) 9_666
Na1 O2 2.393(4) 8_556
Na1 O2 2.393(4) 4_666
Na1 P1 3.1771(9) 7_666
Na1 P1 3.1772(9) 7_676
Na1 P1 3.1772(9) 7_566
Na1 Ca1 3.503(2) 1_565
Na1 Ca1 3.503(2) .
Ca1 O2 2.297(5) .
Ca1 O2 2.297(5) 8_556
Ca1 O2 2.297(5) 2
Ca1 O2 2.297(5) 12
Ca1 O2 2.297(5) 6_556
Ca1 O2 2.297(5) 11
Ca1 O2 2.297(5) 5_556
Ca1 O2 2.297(5) 9_556
Ca1 O2 2.297(5) 3
Ca1 O2 2.297(5) 10
Ca1 O2 2.297(5) 4_556
Ca1 O2 2.297(5) 7_556
Ba1 O2 2.831(4) .
Ba1 O2 2.831(4) 10
Ba1 O2 2.831(4) 4
Ba1 O2 2.831(4) 7
Ba1 O2 2.831(4) 9
Ba1 O2 2.831(4) 3
Ba1 O2 2.831(4) 11
Ba1 O2 2.831(4) 5
Ba1 O2 2.831(4) 12
Ba1 O2 2.831(4) 6
Ba1 O2 2.831(4) 8
Ba1 O2 2.831(4) 2
P1 O1 1.518(9) .
P1 O2 1.543(5) 3_565
P1 O2 1.543(5) 11_565
P1 O2 1.543(5) 12_665
P1 O2 1.543(5) 2_665
P1 O2 1.543(5) 10
P1 O2 1.543(5) .
P1 Na1 3.1771(9) 7_666
P1 Na1 3.1772(9) 7_676
P1 Na1 3.1772(9) 7_566
P1 Ba1 3.5699(14) 1_565
O1 Na1 2.310(9) 1_554
O1 Ba1 3.1497(5) 1_565
O1 Ba1 3.1497(5) 1_665
O2 O2 0.675(8) 10
O2 Na1 2.393(4) 7_566
