#------------------------------------------------------------------------------
#$Date: 2015-07-13 20:12:09 +0300 (Mon, 13 Jul 2015) $
#$Revision: 150352 $
#$URL: svn://www.crystallography.net/cod/cif/7/03/57/7035744.cif $
#------------------------------------------------------------------------------
#
# This file is available in the Crystallography Open Database (COD),
# http://www.crystallography.net/
#
# All data on this site have been placed in the public domain by the
# contributors.
#
data_7035744
loop_
_publ_author_name
'Armstrong, J.A.'
'Weller, M.T.'
_publ_section_title
;
 New sodalite frameworks; synthetic tugtupite and a beryllosilicate
 framework with a 3:1 Si:Be ratio
;
_journal_name_full
'DALTON TRANSACTIONS (CAMBRIDGE, ENGLAND : 2003)'
_journal_page_first              2998
_journal_page_last               3005
_journal_volume                  2006
_journal_year                    2006
_chemical_formula_sum            'Be3 Cl2 Na8 O24 Si9'
_chemical_name_systematic        'Na8 (Be3 Si9 O24) Cl2'
_space_group_IT_number           217
_symmetry_space_group_name_Hall  'I -4 2 3'
_symmetry_space_group_name_H-M   'I -4 3 m'
_cell_angle_alpha                90
_cell_angle_beta                 90
_cell_angle_gamma                90
_cell_formula_units_Z            1
_cell_length_a                   8.6894
_cell_length_b                   8.6894
_cell_length_c                   8.6894
_cell_volume                     656.099
_citation_journal_id_ASTM        DTARAF
_cod_data_source_file            Armstrong_DTARAF_2006_978.cif
_cod_data_source_block           Be3Cl2Na8O24Si9
_cod_original_cell_volume        656.0989
_cod_database_code               7035744
loop_
_symmetry_equiv_pos_as_xyz
x,y,z
y,-x,-z
-x,-y,z
-y,x,-z
x,-y,-z
-y,-x,z
-x,y,-z
y,x,z
z,x,y
x,-z,-y
-z,-x,y
-x,z,-y
z,-x,-y
-x,-z,y
-z,x,-y
x,z,y
y,z,x
y,-z,-x
-z,-y,x
-y,z,-x
z,y,x
-y,-z,x
-z,y,-x
z,-y,-x
x+1/2,y+1/2,z+1/2
y+1/2,-x+1/2,-z+1/2
-x+1/2,-y+1/2,z+1/2
-y+1/2,x+1/2,-z+1/2
x+1/2,-y+1/2,-z+1/2
-y+1/2,-x+1/2,z+1/2
-x+1/2,y+1/2,-z+1/2
y+1/2,x+1/2,z+1/2
z+1/2,x+1/2,y+1/2
x+1/2,-z+1/2,-y+1/2
-z+1/2,-x+1/2,y+1/2
-x+1/2,z+1/2,-y+1/2
z+1/2,-x+1/2,-y+1/2
-x+1/2,-z+1/2,y+1/2
-z+1/2,x+1/2,-y+1/2
x+1/2,z+1/2,y+1/2
y+1/2,z+1/2,x+1/2
y+1/2,-z+1/2,-x+1/2
-z+1/2,-y+1/2,x+1/2
-y+1/2,z+1/2,-x+1/2
z+1/2,y+1/2,x+1/2
-y+1/2,-z+1/2,x+1/2
-z+1/2,y+1/2,-x+1/2
z+1/2,-y+1/2,-x+1/2
loop_
_atom_site_label
_atom_site_type_symbol
_atom_site_fract_x
_atom_site_fract_y
_atom_site_fract_z
_atom_site_occupancy
_atom_site_U_iso_or_equiv
O1 O-2 0.3551 0.3551 0.0479 1 0.0
Cl1 Cl-1 0 0 0 1 0.0
Be1 Be+2 0.25 0.5 0 0.25 0.0
Na1 Na+1 0.1725 0.1725 0.1725 1 0.0
Si1 Si+4 0.25 0.5 0 0.75 0.0
