#------------------------------------------------------------------------------
#$Date: 2016-08-07 11:58:26 +0300 (Sun, 07 Aug 2016) $
#$Revision: 185390 $
#$URL: file:///home/coder/svn-repositories/cod/cif/7/03/96/7039607.cif $
#------------------------------------------------------------------------------
#
# This file is available in the Crystallography Open Database (COD),
# http://www.crystallography.net/
#
# All data on this site have been placed in the public domain by the
# contributors.
#
data_7039607
loop_
_publ_author_name
'Paschinger, W.'
'Rogl, G.'
'Grytsiv, A.'
'Michor, H.'
'Heinrich, P. R.'
'M\"uller, H'
'Puchegger, S.'
'Klobes, B.'
'Hermann, R. P.'
'Reinecker, M.'
'Eisenmenger-Sitter, Ch'
'Broz, P.'
'Bauer, E.'
'Giester, G.'
'Zehetbauer, M.'
'Rogl, P. F.'
_publ_section_title
;
 Ba-filled Ni-Sb-Sn based skutterudites with anomalously high lattice
 thermal conductivity.
;
_journal_issue                   27
_journal_name_full
'Dalton transactions (Cambridge, England : 2003)'
_journal_page_first              11071
_journal_page_last               11100
_journal_paper_doi               10.1039/c6dt01298a
_journal_volume                  45
_journal_year                    2016
_chemical_formula_sum            'Ba1.57 Ni8 Sb16.32 Sn7.68'
_chemical_formula_weight         3583.80
_chemical_name_systematic
;
 ?
;
_space_group_crystal_system      cubic
_space_group_IT_number           204
_space_group_name_Hall           '-I 2 2 3'
_space_group_name_H-M_alt        'I m -3'
_symmetry_space_group_name_Hall  '-I 2 2 3'
_symmetry_space_group_name_H-M   'I m -3'
_audit_creation_method           SHELXL-2013
_cell_angle_alpha                90
_cell_angle_beta                 90
_cell_angle_gamma                90
_cell_formula_units_Z            1
_cell_length_a                   9.1887(2)
_cell_length_b                   9.1887(2)
_cell_length_c                   9.1887(2)
_cell_measurement_temperature    200(2)
_cell_volume                     775.82(3)
_computing_structure_refinement  'SHELXL-2013 (Sheldrick, 2013)'
_diffrn_ambient_temperature      200(2)
_diffrn_measured_fraction_theta_full 0.993
_diffrn_measured_fraction_theta_max 0.986
_diffrn_radiation_type           MoK\a
_diffrn_radiation_wavelength     0.71069
_diffrn_reflns_av_R_equivalents  0.0078
_diffrn_reflns_av_unetI/netI     0.0122
_diffrn_reflns_Laue_measured_fraction_full 0.993
_diffrn_reflns_Laue_measured_fraction_max 0.986
_diffrn_reflns_limit_h_max       10
_diffrn_reflns_limit_h_min       -10
_diffrn_reflns_limit_k_max       15
_diffrn_reflns_limit_k_min       -14
_diffrn_reflns_limit_l_max       10
_diffrn_reflns_limit_l_min       -10
_diffrn_reflns_number            609
_diffrn_reflns_point_group_measured_fraction_full 0.993
_diffrn_reflns_point_group_measured_fraction_max 0.986
_diffrn_reflns_theta_full        25.240
_diffrn_reflns_theta_max         36.268
_diffrn_reflns_theta_min         3.135
_exptl_absorpt_coefficient_mu    26.639
_exptl_crystal_density_diffrn    7.671
_exptl_crystal_F_000             1528
_exptl_crystal_size_max          0.100
_exptl_crystal_size_mid          0.070
_exptl_crystal_size_min          0.040
_refine_diff_density_max         2.101
_refine_diff_density_min         -1.239
_refine_diff_density_rms         0.242
_refine_ls_extinction_coef       0.00117(6)
_refine_ls_extinction_expression Fc^*^=kFc[1+0.001xFc^2^\l^3^/sin(2\q)]^-1/4^
_refine_ls_extinction_method     SHELXL
_refine_ls_goodness_of_fit_ref   1.178
_refine_ls_hydrogen_treatment    undef
_refine_ls_matrix_type           full
_refine_ls_number_parameters     12
_refine_ls_number_reflns         354
_refine_ls_number_restraints     0
_refine_ls_restrained_S_all      1.178
_refine_ls_R_factor_all          0.0204
_refine_ls_R_factor_gt           0.0186
_refine_ls_shift/su_max          0.029
_refine_ls_shift/su_mean         0.010
_refine_ls_structure_factor_coef Fsqd
_refine_ls_weighting_details
;
 w=1/[\s^2^(Fo^2^)+(0.0099P)^2^+10.0390P]
 where P=(Fo^2^+2Fc^2^)/3
;
_refine_ls_weighting_scheme      calc
_refine_ls_wR_factor_gt          0.0370
_refine_ls_wR_factor_ref         0.0375
_reflns_Friedel_coverage         0.000
_reflns_number_gt                339
_reflns_number_total             354
_reflns_threshold_expression     'I > 2\s(I)'
_cod_data_source_file            c6dt01298a5.cif
_cod_data_source_block           bani4sb8sn4_200k
_cod_depositor_comments
'Adding full bibliography for 7039602--7039607.cif.'
_cod_original_cell_volume        775.82(5)
_cod_database_code               7039607
_shelx_space_group_comment
;
The symmetry employed for this shelxl refinement is uniquely defined
by the following loop, which should always be used as a source of
symmetry information in preference to the above space-group names.
They are only intended as comments.
;
_shelx_estimated_absorpt_t_min   0.176
_shelx_estimated_absorpt_t_max   0.415
_shelxl_version_number           2013-2
_shelx_res_file
;
TITL  bani4sb8sn4_
REM  BaNi4Sb8Sn4_200K
CELL 0.71069     9.1887   9.1887   9.1887  90.000  90.000  90.000
ZERR     1  0.00020  0.00020  0.00020  0.00000  0.00000  0.00000
REM SG 204 48 24 Im-3 I2/m-3 PGm3bar cubic
LATT 2
REM SG  ORGN  at Inv.cen. m-3
SYMM -X,-Y,Z
SYMM -X,Y,-Z
SYMM X,-Y,-Z
SYMM Z,X,Y
SYMM Z,-X,-Y
SYMM -Z,-X,Y
SYMM -Z,X,-Y
SYMM Y,Z,X
SYMM -Y,Z,-X
SYMM Y,-Z,-X
SYMM -Y,-Z,X
SFAC  BA  NI  SB   SN
UNIT      1.57    8   16.32    7.68
SIZE    0.100  0.070  0.040
TEMP     -73.15
EXYZ   SB1 SN1
EADP   SB1 SN1
L.S. 1
ACTA
BOND
FMAP 2
PLAN 20
WGHT    0.009900   10.039000
EXTI    0.001172
FVAR       0.10560   0.77863
BA1   1    0.000000    0.000000    0.000000    20.04167    0.00713    0.00713 =
         0.00713    0.00000    0.00000    0.00000
NI1   2    0.250000    0.250000    0.250000    10.16667    0.00582    0.00582 =
         0.00582    0.00036    0.00036    0.00036
SB1   3    0.000000    0.161014    0.341141    10.34000    0.00484    0.00648 =
         0.00981    0.00072    0.00000    0.00000
SN1   4    0.000000    0.161014    0.341141    10.16000    0.00484    0.00648 =
         0.00981    0.00072    0.00000    0.00000
HKLF 4  1.0  0 1 0  1 0 0  0 0 -1

REM   bani4sb8sn4_
REM R1 =  0.0186 for     339 Fo > 4sig(Fo)  and  0.0204 for all     354 data
REM     12 parameters refined using      0 restraints

END

WGHT      0.0126      8.3820

REM Highest difference peak  2.101,  deepest hole -1.239,  1-sigma level  0.242
Q1    1   0.0000  0.0000  0.3207  10.25000  0.05    2.10
Q2    1   0.3417  0.1603  0.1864  11.00000  0.05    1.07
Q3    1   0.1116  0.0000  0.3232  10.50000  0.05    1.01
Q4    1   0.0000  0.0000  0.4083  10.25000  0.05    1.01
Q5    1   0.0000  0.1750  0.1526  10.50000  0.05    0.98
Q6    1   0.0000  0.3249  0.3130  10.50000  0.05    0.90
Q7    1   0.0000  0.1315  0.2888  10.50000  0.05    0.83
Q8    1   0.0502  0.0000  0.4617  10.50000  0.05    0.82
Q9    1   0.0000  0.0415  0.5000  10.25000  0.05    0.74
Q10   1   0.0000  0.3522  0.5000  10.25000  0.05    0.74
Q11   1   0.1717  0.1659  0.2475  11.00000  0.05    0.73
Q12   1   0.0000  0.2891  0.1904  10.50000  0.05    0.69
Q13   1   0.0378  0.0000  0.5000  10.25000  0.05    0.65
Q14   1   0.0000  0.3263  0.2119  10.50000  0.05    0.63
Q15   1   0.0396  0.0527  0.3595  11.00000  0.05    0.62
Q16   1   0.1242  0.1526  0.1957  11.00000  0.05    0.62
Q17   1   0.0597  0.1657  0.0000  10.50000  0.05    0.62
Q18   1   0.0535  0.0000  0.3836  10.50000  0.05    0.61
Q19   1   0.1135  0.0308  0.3215  11.00000  0.05    0.59
Q20   1   0.0532  0.2656  0.2479  11.00000  0.05    0.59
;
_shelx_res_checksum              77451
_shelx_hkl_file
;
   1   1   0   11.60    0.10   1
   2   0   0   63.60    0.60   1
   2   1   1    6.00    0.10   1
  -2  -1  -1    6.10    0.10   1
   2   2   0   18.60    0.20   1
   2   2   2   46.50    0.70   1
  -2  -2  -2   46.90    0.70   1
   3   0   1 4263.00   23.00   1
   3   1   0  712.70    3.90   1
   3   1   2 1856.70   10.20   1
  -3  -1  -2 1866.10    9.60   1
   3   2   1   14.50    0.20   1
  -3  -2  -1   14.90    0.20   1
   3   3   0  570.80    3.40   1
   3   3   2  538.50    3.20   1
  -3  -3  -2  543.20    3.30   1
   4   0   0  277.90    2.40   1
   4   0   2 1208.20    6.80   1
   4   1   1    8.20    0.20   1
  -4  -1  -1    7.90    0.20   1
   4   1   3   33.50    0.40   1
  -4  -1  -3   33.40    0.40   1
   4   2   0 1049.10    5.70   1
   4   2   2 1799.90   10.10   1
  -4  -2  -2 1801.60    9.60   1
   4   3   1 2253.80   12.60   1
  -4  -3  -1 2268.30   12.10   1
   4   3   3  389.00    2.50   1
  -4  -3  -3  385.20    2.50   1
   4   4   0   10.80    0.20   1
   4   4   2  262.90    1.80   1
  -4  -4  -2  265.20    1.80   1
   4   4   4 2111.10   26.20   1
  -4  -4  -4 2108.20   26.50   1
   5   0   1   73.50    0.60   1
   5   0   3  382.90    2.50   1
   5   1   0   18.00    0.30   1
   5   1   2   24.20    0.30   1
  -5  -1  -2   24.00    0.30   1
   5   1   4   22.50    0.40   1
  -5  -1  -4   22.40    0.40   1
   5   2   1    5.50    0.20   1
  -5  -2  -1    5.20    0.20   1
   5   2   3  780.00    5.20   1
  -5  -2  -3  782.90    4.80   1
   5   3   0 2235.60   11.80   1
   5   3   2    5.30    0.30   1
  -5  -3  -2    5.80    0.20   1
   5   3   4   72.00    0.80   1
  -5  -3  -4   72.50    0.80   1
   5   4   1   14.20    0.30   1
  -5  -4  -1   14.30    0.30   1
   5   4   3 1040.30    8.10   1
  -5  -4  -3 1049.60    7.20   1
   5   5   0   24.40    0.50   1
   5   5   2    7.20    0.30   1
  -5  -5  -2    7.10    0.30   1
   5   5   4    4.20    0.30   1
  -5  -5  -4    3.80    0.20   1
   6   0   0 4145.80   31.20   1
   6   0   2  467.30    3.30   1
   6   0   4  231.10    2.00   1
   6   1   1    9.60    0.30   1
  -6  -1  -1   10.10    0.30   1
   6   1   3 2722.70   16.60   1
  -6  -1  -3 2719.90   16.60   1
   6   1   5   35.00    0.60   1
  -6  -1  -5   36.20    0.60   1
   6   2   0  546.00    3.70   1
   6   2   2  556.80    4.20   1
  -6  -2  -2  559.60    3.80   1
   6   2   4    1.70    0.20   1
  -6  -2  -4    1.40    0.20   1
   6   3   1  301.90    2.20   1
  -6  -3  -1  299.60    2.20   1
   6   3   3  289.60    2.50   1
  -6  -3  -3  296.70    2.30   1
   6   3   5  181.80    1.70   1
  -6  -3  -5  179.90    1.70   1
   6   4   0  180.10    1.60   1
   6   4   2    3.10    0.20   1
  -6  -4  -2    2.90    0.20   1
   6   4   4  569.80    4.80   1
  -6  -4  -4  565.90    4.50   1
   6   5   1   11.90    0.30   1
  -6  -5  -1   12.20    0.30   1
   6   5   3 1327.20   10.80   1
  -6  -5  -3 1353.00   10.30   1
   6   5   5   12.90    0.50   1
  -6  -5  -5   11.30    0.60   1
   6   6   0 4907.30   33.70   1
   6   6   2   19.10    0.50   1
  -6  -6  -2   20.60    0.50   1
   6   6   4   62.80    1.10   1
  -6  -6  -4   64.60    1.10   1
   6   6   6 1784.50   28.30   1
  -6  -6  -6 1714.30   25.30   1
   7   0   1   70.00    0.80   1
   7   0   3  355.30    2.80   1
   7   0   5   59.80    0.90   1
   7   1   0    1.90    0.20   1
   7   1   2   27.30    0.50   1
  -7  -1  -2   27.60    0.50   1
   7   1   4   36.60    0.60   1
  -7  -1  -4   36.30    0.70   1
   7   1   6    2.00    0.30   1
  -7  -1  -6    1.80    0.40   1
   7   2   1    3.00    0.20   1
  -7  -2  -1    2.90    0.20   1
   7   2   3 1256.00    9.30   1
  -7  -2  -3 1252.30    9.40   1
   7   2   5   19.00    0.50   1
  -7  -2  -5   17.20    0.60   1
   7   3   0 3247.70   22.10   1
   7   3   2   22.20    0.50   1
  -7  -3  -2   24.00    0.50   1
   7   3   4    6.30    0.30   1
  -7  -3  -4    6.40    0.40   1
   7   3   6 2135.10   18.50   1
  -7  -3  -6 2140.30   17.90   1
   7   4   1    2.60    0.20   1
  -7  -4  -1    2.40    0.30   1
   7   4   3 1647.20   12.50   1
  -7  -4  -3 1625.10   12.60   1
   7   4   5   18.00    0.60   1
  -7  -4  -5   18.50    0.50   1
   7   5   0   60.60    0.80   1
   7   5   2   17.40    0.50   1
  -7  -5  -2   18.70    0.50   1
   7   5   4   36.00    0.90   1
  -7  -5  -4   34.80    0.90   1
   7   5   6   34.30    1.10   1
  -7  -5  -6   33.50    0.90   1
   7   6   1   51.10    1.00   1
  -7  -6  -1   51.40    0.90   1
   7   6   3  189.50    2.40   1
  -7  -6  -3  189.10    2.20   1
   7   6   5   41.30    1.00   1
  -7  -6  -5   42.10    1.00   1
   7   7   0   29.80    0.70   1
   7   7   2   19.20    0.70   1
  -7  -7  -2   18.50    0.70   1
   7   7   4   20.90    0.90   1
  -7  -7  -4   22.20    0.80   1
   7   7   6   27.90    1.30   1
  -7  -7  -6   30.10    1.00   1
   8   0   0  902.30   10.10   1
   8   0   2  282.50    2.50   1
   8   0   4    7.70    0.40   1
   8   0   6   42.20    1.00   1
   8   1   1    0.90    0.20   1
  -8  -1  -1    1.40    0.20   1
   8   1   3   92.80    1.10   1
  -8  -1  -3   90.50    1.10   1
   8   1   5    0.70    0.40   1
  -8  -1  -5    0.80    0.40   1
   8   1   7    1.80    0.50   1
  -8  -1  -7    1.20    0.50   1
   8   2   0  374.10    3.20   1
   8   2   2  483.90    4.00   1
  -8  -2  -2  477.90    4.20   1
   8   2   4   11.50    0.50   1
  -8  -2  -4   12.50    0.60   1
   8   2   6    6.90    0.50   1
  -8  -2  -6    8.10    0.60   1
   8   3   1  406.20    3.80   1
  -8  -3  -1  414.30    3.60   1
   8   3   3  296.00    3.00   1
  -8  -3  -3  297.90    3.10   1
   8   3   5  173.40    2.00   1
  -8  -3  -5  168.80    2.20   1
   8   3   7  402.80    4.70   1
  -8  -3  -7  390.40    4.50   1
   8   4   0    2.70    0.40   1
   8   4   2   11.60    0.60   1
  -8  -4  -2   11.20    0.50   1
   8   4   4  624.10    6.20   1
  -8  -4  -4  628.10    6.10   1
   8   4   6  312.70    3.90   1
  -8  -4  -6  310.50    3.60   1
   8   5   1    9.20    0.50   1
  -8  -5  -1   10.80    0.50   1
   8   5   3   16.80    0.60   1
  -8  -5  -3   18.10    0.70   1
   8   5   5    6.40    0.50   1
  -8  -5  -5    5.70    0.60   1
   8   5   7    6.90    0.90   1
  -8  -5  -7    7.10    0.70   1
   8   6   0   28.20    0.90   1
   8   6   2   25.00    0.70   1
  -8  -6  -2   26.20    0.70   1
   8   6   4  184.20    2.90   1
  -8  -6  -4  185.00    2.40   1
   8   6   6  397.70    6.30   1
  -8  -6  -6  401.30    4.50   1
   8   7   1    4.40    0.60   1
  -8  -7  -1    5.70    0.60   1
   8   7   3   99.30    2.10   1
  -8  -7  -3  104.60    1.80   1
   8   7   5    1.80    0.70   1
  -8  -7  -5    2.40    0.60   1
   8   7   7    8.60    1.10   1
  -8  -7  -7    7.50    0.80   1
   8   8   0   27.10    1.10   1
   8   8   2    3.40    0.60   1
  -8  -8  -2    3.30    0.60   1
   8   8   4  204.40    3.50   1
  -8  -8  -4  202.40    2.90   1
   8   8   6   64.30    3.00   1
  -8  -8  -6   70.60    1.70   1
   8   8   8   83.20    9.20   1
  -8  -8  -8   77.10    3.50   1
   9   0   1 1678.20   13.30   1
   9   0   3  271.60    3.00   1
   9   0   5  826.00    8.50   1
   9   0   7 1484.30   15.80   1
   9   1   0  262.60    2.50   1
   9   1   2  598.40    5.60   1
  -9  -1  -2  606.70    5.70   1
   9   1   4  837.10    8.40   1
  -9  -1  -4  856.30    8.50   1
   9   1   6  146.90    2.20   1
  -9  -1  -6  148.30    2.30   1
   9   1   8  175.70    3.20   1
  -9  -1  -8  173.00    3.00   1
   9   2   1    7.30    0.40   1
  -9  -2  -1    6.70    0.50   1
   9   2   3  141.40    1.90   1
  -9  -2  -3  145.80    1.90   1
   9   2   5    0.90    0.50   1
  -9  -2  -5    1.40    0.40   1
   9   2   7   13.60    0.80   1
  -9  -2  -7   15.00    0.90   1
   9   3   0  111.00    1.60   1
   9   3   2  150.30    1.80   1
  -9  -3  -2  149.10    2.00   1
   9   3   4  118.00    1.80   1
  -9  -3  -4  115.30    1.70   1
   9   3   6   69.90    1.50   1
  -9  -3  -6   69.70    1.50   1
   9   3   8  119.60    2.50   1
  -9  -3  -8  118.00    2.30   1
   9   4   1    7.00    0.50   1
  -9  -4  -1    6.40    0.50   1
   9   4   3  100.70    1.60   1
  -9  -4  -3   99.40    1.60   1
   9   4   5   19.40    0.80   1
  -9  -4  -5   19.20    0.90   1
   9   4   7    1.70    0.60   1
  -9  -4  -7    1.50    0.60   1
   9   5   0  155.60    2.20   1
   9   5   2  293.70    3.40   1
  -9  -5  -2  293.80    3.50   1
   9   5   4  442.50    5.10   1
  -9  -5  -4  448.70    4.80   1
   9   5   6   99.50    2.40   1
  -9  -5  -6   93.60    1.80   1
   9   5   8   71.90    3.30   1
  -9  -5  -8   78.10    1.90   1
   9   6   1 1132.70   11.60   1
  -9  -6  -1 1132.40   10.40   1
   9   6   3  175.80    2.70   1
  -9  -6  -3  179.40    2.40   1
   9   6   5  598.20    8.80   1
  -9  -6  -5  579.60    6.20   1
   9   6   7 1111.20   19.20   1
  -9  -6  -7 1090.80   11.50   1
   9   7   0  200.40    2.80   1
   9   7   2  556.80    6.60   1
  -9  -7  -2  557.20    6.60   1
   9   7   4  760.90    9.50   1
  -9  -7  -4  764.70    8.30   1
   9   7   6  115.20    3.60   1
  -9  -7  -6  122.30    2.20   1
   9   7   8  193.30    7.20   1
  -9  -7  -8  185.20    3.40   1
   9   8   1   48.00    1.40   1
  -9  -8  -1   46.70    1.40   1
   9   8   3  128.40    2.60   1
  -9  -8  -3  128.50    2.50   1
   9   8   5   10.40    1.40   1
  -9  -8  -5    9.40    0.90   1
   9   8   7   49.50    3.70   1
  -9  -8  -7   50.90    1.70   1
   9   9   0   85.80    2.20   1
   9   9   2   56.30    1.90   1
  -9  -9  -2   59.10    2.00   1
   9   9   4   36.30    1.80   1
  -9  -9  -4   37.50    1.50   1
   9   9   6   58.80    3.50   1
  -9  -9  -6   64.60    1.90   1
  -9  -9  -8   48.00    4.40   1
  10   0   0  208.70    3.60   1
  10   0   2    9.70    0.60   1
  10   0   4  414.60    4.90   1
  10   0   6    8.80    0.80   1
  10   0   8  277.40    4.30   1
  10   1   1    2.80    0.40   1
 -10  -1  -1    3.00    0.40   1
  10   1   3   46.60    1.20   1
 -10  -1  -3   44.50    1.10   1
  10   1   5    6.70    0.80   1
 -10  -1  -5    8.10    0.70   1
  10   1   7    1.90    0.80   1
 -10  -1  -7    0.60    0.70   1
  10   1   9   17.60    1.30   1
 -10  -1  -9   18.30    1.40   1
  10   2   0    5.30    0.50   1
  10   2   2   94.20    1.70   1
 -10  -2  -2   91.30    1.50   1
  10   2   4  878.20    9.00   1
 -10  -2  -4  878.20    9.00   1
  10   2   6  255.50    3.60   1
 -10  -2  -6  259.70    3.90   1
  10   2   8  291.60    4.60   1
 -10  -2  -8  298.80    4.80   1
  10   3   1 1109.30    9.80   1
 -10  -3  -1 1083.70    9.90   1
  10   3   3  157.80    2.30   1
 -10  -3  -3  157.60    2.20   1
  10   3   5  584.20    6.60   1
 -10  -3  -5  580.40    6.60   1
  10   3   7 1023.60   12.40   1
 -10  -3  -7 1034.60   11.70   1
  10   3   9   46.20    2.20   1
 -10  -3  -9   51.60    2.10   1
  10   4   0  432.40    4.80   1
  10   4   2  877.30    8.70   1
 -10  -4  -2  868.00    8.60   1
  10   4   4  292.70    3.80   1
 -10  -4  -4  292.30    3.60   1
  10   4   6    5.20    0.90   1
 -10  -4  -6    4.90    0.80   1
  10   4   8   34.60    2.30   1
 -10  -4  -8   36.40    1.50   1
  10   5   1    9.90    0.70   1
 -10  -5  -1   10.30    0.80   1
  10   5   3   69.60    1.50   1
 -10  -5  -3   66.50    1.60   1
  10   5   5    1.30    0.70   1
 -10  -5  -5    2.50    0.70   1
  10   5   7   13.50    1.70   1
 -10  -5  -7   12.10    1.10   1
  10   5   9   26.20    2.50   1
 -10  -5  -9   31.30    1.70   1
  10   6   0    4.40    0.80   1
  10   6   2  289.60    4.10   1
 -10  -6  -2  290.00    4.20   1
  10   6   4    5.10    0.90   1
 -10  -6  -4    5.20    0.80   1
  10   6   6  120.00    3.50   1
 -10  -6  -6  123.40    2.30   1
  10   6   8    3.50    1.70   1
 -10  -6  -8    6.20    1.30   1
  10   7   1   16.40    1.00   1
 -10  -7  -1   15.30    1.10   1
  10   7   3   20.70    1.20   1
 -10  -7  -3   23.00    1.30   1
  10   7   5   22.80    1.50   1
 -10  -7  -5   23.50    1.20   1
  10   7   7   11.90    1.80   1
 -10  -7  -7   11.00    1.20   1
 -10  -7  -9    6.70    3.10   1
  10   8   0  177.00    3.30   1
  10   8   2  295.70    5.20   1
 -10  -8  -2  301.90    4.70   1
  10   8   4   42.80    1.70   1
 -10  -8  -4   44.80    1.70   1
  10   8   6    0.40    1.60   1
 -10  -8  -6   -0.60    0.90   1
 -10  -8  -8   -2.00    4.60   1
  10   9   1  582.90    9.00   1
 -10  -9  -1  580.90    7.90   1
  10   9   3   66.80    2.40   1
 -10  -9  -3   67.70    2.40   1
  10   9   5  298.10    9.30   1
 -10  -9  -5  316.20    5.70   1
  10  10   0   11.80    1.40   1
  10  10   2  145.20    4.50   1
 -10 -10  -2  144.80    3.70   1
  10  10   4  697.70   20.30   1
 -10 -10  -4  703.60   13.90   1
  11   0   1  133.80    2.20   1
  11   0   3  107.70    2.00   1
  11   0   5   67.70    1.80   1
  11   0   7  131.60    2.70   1
  11   0   9   60.30    2.50   1
  11   1   0   12.20    0.80   1
  11   1   2   43.60    1.30   1
 -11  -1  -2   45.30    1.20   1
  11   1   4   49.10    1.50   1
 -11  -1  -4   49.20    1.40   1
  11   1   6    7.90    1.00   1
 -11  -1  -6    9.20    1.00   1
  11   1   8   18.10    1.40   1
 -11  -1  -8   17.20    1.40   1
  11   1  10   27.70    2.80   1
 -11  -1 -10   21.90    3.70   1
  11   2   1    3.00    0.60   1
 -11  -2  -1    2.10    0.50   1
  11   2   3  131.60    2.20   1
 -11  -2  -3  130.50    2.10   1
  11   2   5    2.20    0.80   1
 -11  -2  -5    1.20    0.70   1
  11   2   7    8.50    1.10   1
 -11  -2  -7    6.60    1.20   1
  11   2   9   68.10    2.60   1
 -11  -2  -9   67.90    2.50   1
  11   3   0  440.60    5.20   1
  11   3   2   22.10    1.00   1
 -11  -3  -2   19.00    0.90   1
  11   3   4   60.10    1.50   1
 -11  -3  -4   58.60    1.70   1
  11   3   6  324.90    4.70   1
 -11  -3  -6  316.30    4.90   1
  11   3   8    0.20    1.20   1
 -11  -3  -8    1.20    1.30   1
  11   3  10   61.70    8.40   1
 -11  -3 -10   70.20    9.60   1
  11   4   1   11.50    0.80   1
 -11  -4  -1   11.50    0.90   1
  11   4   3  212.50    3.20   1
 -11  -4  -3  218.50    3.40   1
  11   4   5    2.60    0.90   1
 -11  -4  -5    1.00    0.80   1
  11   4   7   19.30    1.70   1
 -11  -4  -7   19.70    1.40   1
  11   4   9   91.60    5.20   1
 -11  -4  -9  104.90    4.90   1
  11   5   0    1.00    0.80   1
  11   5   2   18.30    1.00   1
 -11  -5  -2   19.00    1.10   1
  11   5   4   17.20    1.10   1
 -11  -5  -4   17.00    1.10   1
  11   5   6    1.40    1.20   1
 -11  -5  -6   -0.20    0.90   1
  11   5   8   11.50    2.00   1
 -11  -5  -8    9.60    1.40   1
  11   6   1   91.90    2.30   1
 -11  -6  -1   88.80    2.20   1
  11   6   3   64.50    2.00   1
 -11  -6  -3   62.60    2.00   1
  11   6   5   48.30    2.00   1
 -11  -6  -5   48.40    1.70   1
  11   6   7   89.00    3.90   1
 -11  -6  -7   83.60    2.60   1
  11   7   0   28.30    1.50   1
  11   7   2   41.80    1.70   1
 -11  -7  -2   37.30    1.70   1
  11   7   4   48.70    1.90   1
 -11  -7  -4   49.40    2.10   1
  11   7   6   20.30    1.80   1
 -11  -7  -6   20.40    1.50   1
  11   8   1   -0.60    1.10   1
 -11  -8  -1   -0.70    1.10   1
  11   8   3   23.50    1.70   1
 -11  -8  -3   24.90    1.60   1
  11   8   5    3.60    1.60   1
 -11  -8  -5    1.80    1.20   1
  11   9   0  194.00    5.70   1
  11   9   2    6.70    1.60   1
 -11  -9  -2    8.40    1.40   1
  11   9   4   26.60    3.80   1
 -11  -9  -4   23.70    2.50   1
  11  10   1    8.00    2.40   1
 -11 -10  -1    8.40    3.10   1
 -11 -10  -3  166.80   14.50   1
  12   0   0 2445.60   34.60   1
  12   0   2   27.20    1.20   1
  12   0   4    7.70    1.00   1
  12   0   6  907.90   12.30   1
  12   0   8  159.90    4.40   1
  12   1   1    7.90    0.90   1
 -12  -1  -1    7.60    0.80   1
  12   1   3  854.40   10.30   1
 -12  -1  -3  850.90   10.40   1
  12   1   5    6.40    1.10   1
 -12  -1  -5    5.80    1.00   1
  12   1   7   27.90    1.70   1
 -12  -1  -7   25.40    1.80   1
  12   1   9  430.10   19.70   1
 -12  -1  -9  446.80   16.80   1
  12   2   0    4.60    0.80   1
  12   2   2    8.00    0.90   1
 -12  -2  -2    8.30    0.90   1
  12   2   4  163.40    3.20   1
 -12  -2  -4  157.80    3.20   1
  12   2   6   99.40    2.50   1
 -12  -2  -6   98.60    2.70   1
  12   2   8   48.30    2.50   1
 -12  -2  -8   40.20    2.20   1
  12   3   1   41.20    1.40   1
 -12  -3  -1   40.90    1.40   1
  12   3   3   73.90    1.80   1
 -12  -3  -3   81.20    2.20   1
  12   3   5   25.30    1.40   1
 -12  -3  -5   24.30    1.40   1
  12   3   7   29.20    2.10   1
 -12  -3  -7   31.70    2.20   1
 -12  -3  -9   37.90    9.60   1
  12   4   0   42.50    1.50   1
  12   4   2  119.30    2.50   1
 -12  -4  -2  120.00    2.70   1
  12   4   4    1.60    0.90   1
 -12  -4  -4    2.10    1.00   1
  12   4   6   37.30    2.20   1
 -12  -4  -6   43.40    2.10   1
  12   4   8   13.30    5.40   1
 -12  -4  -8    8.90    4.80   1
  12   5   1    6.50    1.00   1
 -12  -5  -1    5.40    1.00   1
  12   5   3  466.40    6.50   1
 -12  -5  -3  460.90    7.90   1
  12   5   5    1.20    1.30   1
 -12  -5  -5    1.50    1.10   1
  12   5   7   21.90    3.00   1
 -12  -5  -7   18.50    3.00   1
  12   6   0  948.50   12.50   1
  12   6   2   58.80    2.00   1
 -12  -6  -2   61.00    2.30   1
  12   6   4   87.80    3.10   1
 -12  -6  -4   86.80    2.80   1
  12   6   6 1397.80   35.80   1
 -12  -6  -6 1412.00   29.80   1
  12   7   1    5.80    1.30   1
 -12  -7  -1    4.10    1.30   1
  12   7   3  831.50   14.60   1
 -12  -7  -3  854.70   14.80   1
  12   7   5    7.70    2.00   1
 -12  -7  -5    6.00    2.40   1
  12   8   0  225.90    6.10   1
  12   8   2   71.50    2.90   1
 -12  -8  -2   76.20    3.10   1
  12   8   4    1.50    4.00   1
 -12  -8  -4   -0.90    2.90   1
 -12  -9  -1   32.00    6.70   1
  13   0   1   40.10    1.80   1
  13   0   3  118.70    2.70   1
  13   0   5   29.40    1.80   1
  13   0   7   25.90    2.50   1
  13   1   0    0.50    0.80   1
  13   1   2   13.10    1.20   1
 -13  -1  -2   15.00    1.20   1
  13   1   4   21.40    1.40   1
 -13  -1  -4   23.40    1.60   1
  13   1   6    0.30    1.30   1
 -13  -1  -6   -1.30    1.20   1
  13   1   8   11.50    5.60   1
  13   2   1    1.70    1.00   1
 -13  -2  -1    3.00    1.00   1
  13   2   3  563.60    7.50   1
 -13  -2  -3  556.50    8.90   1
  13   2   5    5.30    1.20   1
 -13  -2  -5    4.80    1.20   1
  13   2   7   10.40    3.40   1
 -13  -2  -7    9.80    5.00   1
  13   3   0 1447.10   16.30   1
  13   3   2    7.50    1.10   1
 -13  -3  -2    7.30    1.10   1
  13   3   4    4.60    1.20   1
 -13  -3  -4    5.00    1.40   1
  13   3   6 1096.70   17.20   1
 -13  -3  -6 1094.90   20.90   1
  13   4   1    2.70    1.10   1
 -13  -4  -1    5.90    1.20   1
  13   4   3  758.60   12.00   1
 -13  -4  -3  759.50   13.70   1
  13   4   5    8.60    1.70   1
 -13  -4  -5    7.60    1.60   1
  13   5   0   31.70    1.70   1
  13   5   2   10.30    1.30   1
 -13  -5  -2   11.30    1.60   1
  13   5   4   26.80    2.00   1
 -13  -5  -4   23.50    2.00   1
  13   6   1   33.90    1.90   1
 -13  -6  -1   35.40    2.20   1
  13   6   3   65.30    2.80   1
 -13  -6  -3   65.80    2.80   1
  13   7   0    5.90    2.30   1
  13   7   2   14.50    2.90   1
 -13  -7  -2   10.10    3.90   1
  14   0   0  131.90    5.20   1
  14   0   2   19.70    1.60   1
  14   0   4   71.70    2.90   1
  14   0   6  390.80   27.90   1
  14   1   1   -1.40    1.10   1
 -14  -1  -1    1.20    1.10   1
  14   1   3   93.80    2.90   1
 -14  -1  -3  104.10    3.40   1
  14   1   5    0.50    2.70   1
 -14  -1  -5   -3.50    2.10   1
  14   2   0    2.90    1.10   1
  14   2   2    2.50    1.10   1
 -14  -2  -2    5.60    1.40   1
  14   2   4  103.90    3.60   1
 -14  -2  -4  109.70    5.00   1
  14   3   1   47.30    2.30   1
 -14  -3  -1   49.20    2.40   1
  14   3   3  128.40    3.80   1
 -14  -3  -3  134.60    4.50   1
  14   4   0  154.90    4.10   1
  14   4   2  101.70    3.50   1
 -14  -4  -2   97.30    4.40   1
  14   4   4   -0.70    3.20   1
  14   5   1    0.20    3.40   1
 -14  -5  -1   -1.90    3.30   1
  14   5   3   40.30    7.70   1
  15   0   1  412.10   29.40   1
  15   1   0   83.20    7.10   1
   0   0   0
;
_shelx_hkl_checksum              47125
loop_
_space_group_symop_operation_xyz
'x, y, z'
'-x, -y, z'
'-x, y, -z'
'x, -y, -z'
'z, x, y'
'z, -x, -y'
'-z, -x, y'
'-z, x, -y'
'y, z, x'
'-y, z, -x'
'y, -z, -x'
'-y, -z, x'
'x+1/2, y+1/2, z+1/2'
'-x+1/2, -y+1/2, z+1/2'
'-x+1/2, y+1/2, -z+1/2'
'x+1/2, -y+1/2, -z+1/2'
'z+1/2, x+1/2, y+1/2'
'z+1/2, -x+1/2, -y+1/2'
'-z+1/2, -x+1/2, y+1/2'
'-z+1/2, x+1/2, -y+1/2'
'y+1/2, z+1/2, x+1/2'
'-y+1/2, z+1/2, -x+1/2'
'y+1/2, -z+1/2, -x+1/2'
'-y+1/2, -z+1/2, x+1/2'
'-x, -y, -z'
'x, y, -z'
'x, -y, z'
'-x, y, z'
'-z, -x, -y'
'-z, x, y'
'z, x, -y'
'z, -x, y'
'-y, -z, -x'
'y, -z, x'
'-y, z, x'
'y, z, -x'
'-x+1/2, -y+1/2, -z+1/2'
'x+1/2, y+1/2, -z+1/2'
'x+1/2, -y+1/2, z+1/2'
'-x+1/2, y+1/2, z+1/2'
'-z+1/2, -x+1/2, -y+1/2'
'-z+1/2, x+1/2, y+1/2'
'z+1/2, x+1/2, -y+1/2'
'z+1/2, -x+1/2, y+1/2'
'-y+1/2, -z+1/2, -x+1/2'
'y+1/2, -z+1/2, x+1/2'
'-y+1/2, z+1/2, x+1/2'
'y+1/2, z+1/2, -x+1/2'
loop_
_atom_site_label
_atom_site_type_symbol
_atom_site_fract_x
_atom_site_fract_y
_atom_site_fract_z
_atom_site_U_iso_or_equiv
_atom_site_adp_type
_atom_site_occupancy
_atom_site_site_symmetry_order
_atom_site_calc_flag
_atom_site_refinement_flags_posn
_atom_site_refinement_flags_adp
_atom_site_refinement_flags_occupancy
Ba1 Ba 0.0000 0.0000 0.0000 0.0071(3) Uani 0.779(5) 24 d S T P
Ni1 Ni 0.2500 0.2500 0.2500 0.00582(15) Uani 1 6 d S T P
Sb1 Sb 0.0000 0.16101(3) 0.34114(3) 0.00704(9) Uani 0.68 2 d S T P
Sn1 Sn 0.0000 0.16101(3) 0.34114(3) 0.00704(9) Uani 0.32 2 d S T P
loop_
_atom_site_aniso_label
_atom_site_aniso_U_11
_atom_site_aniso_U_22
_atom_site_aniso_U_33
_atom_site_aniso_U_23
_atom_site_aniso_U_13
_atom_site_aniso_U_12
Ba1 0.0071(3) 0.0071(3) 0.0071(3) 0.000 0.000 0.000
Ni1 0.00582(15) 0.00582(15) 0.00582(15) 0.00036(14) 0.00036(14) 0.00036(14)
Sb1 0.00484(11) 0.00648(12) 0.00981(12) 0.00072(7) 0.000 0.000
Sn1 0.00484(11) 0.00648(12) 0.00981(12) 0.00072(7) 0.000 0.000
loop_
_atom_type_symbol
_atom_type_description
_atom_type_scat_dispersion_real
_atom_type_scat_dispersion_imag
_atom_type_scat_source
Ba Ba -0.3244 2.2819 'International Tables Vol C Tables 4.2.6.8 and 6.1.1.4'
Ni Ni 0.3393 1.1124 'International Tables Vol C Tables 4.2.6.8 and 6.1.1.4'
Sb Sb -0.5866 1.5461 'International Tables Vol C Tables 4.2.6.8 and 6.1.1.4'
Sn Sn -0.6537 1.4246 'International Tables Vol C Tables 4.2.6.8 and 6.1.1.4'
loop_
_geom_angle_atom_site_label_1
_geom_angle_atom_site_label_2
_geom_angle_atom_site_label_3
_geom_angle
_geom_angle_site_symmetry_1
_geom_angle_site_symmetry_3
Sn1 Ba1 Sn1 180.0 33 9
Sn1 Ba1 Sn1 67.295(3) 33 29
Sn1 Ba1 Sn1 112.705(3) 9 29
Sn1 Ba1 Sn1 112.705(3) 33 5
Sn1 Ba1 Sn1 67.295(3) 9 5
Sn1 Ba1 Sn1 180.0 29 5
Sn1 Ba1 Sb1 0.000(3) 33 33
Sn1 Ba1 Sb1 180.0 9 33
Sn1 Ba1 Sb1 67.295(3) 29 33
Sn1 Ba1 Sb1 112.705(3) 5 33
Sn1 Ba1 Sb1 180.0 33 9
Sn1 Ba1 Sb1 0.000(3) 9 9
Sn1 Ba1 Sb1 112.705(3) 29 9
Sn1 Ba1 Sb1 67.295(3) 5 9
Sb1 Ba1 Sb1 180.0 33 9
Sn1 Ba1 Sb1 112.705(3) 33 5
Sn1 Ba1 Sb1 67.295(3) 9 5
Sn1 Ba1 Sb1 180.0 29 5
Sn1 Ba1 Sb1 0.000(7) 5 5
Sb1 Ba1 Sb1 112.705(3) 33 5
Sb1 Ba1 Sb1 67.295(3) 9 5
Sn1 Ba1 Sb1 67.295(3) 33 29
Sn1 Ba1 Sb1 112.705(3) 9 29
Sn1 Ba1 Sb1 0.000(8) 29 29
Sn1 Ba1 Sb1 180.0 5 29
Sb1 Ba1 Sb1 67.295(3) 33 29
Sb1 Ba1 Sb1 112.705(3) 9 29
Sb1 Ba1 Sb1 180.0 5 29
Sn1 Ba1 Sb1 67.295(3) 33 25
Sn1 Ba1 Sb1 112.705(3) 9 25
Sn1 Ba1 Sb1 67.295(3) 29 25
Sn1 Ba1 Sb1 112.705(3) 5 25
Sb1 Ba1 Sb1 67.295(3) 33 25
Sb1 Ba1 Sb1 112.705(3) 9 25
Sb1 Ba1 Sb1 112.705(3) 5 25
Sb1 Ba1 Sb1 67.295(3) 29 25
Sn1 Ba1 Sn1 67.295(3) 33 25
Sn1 Ba1 Sn1 112.705(3) 9 25
Sn1 Ba1 Sn1 67.295(3) 29 25
Sn1 Ba1 Sn1 112.705(3) 5 25
Sb1 Ba1 Sn1 67.295(3) 33 25
Sb1 Ba1 Sn1 112.705(3) 9 25
Sb1 Ba1 Sn1 112.705(3) 5 25
Sb1 Ba1 Sn1 67.295(3) 29 25
Sb1 Ba1 Sn1 0.000(3) 25 25
Sn1 Ba1 Sn1 50.532(8) 33 34
Sn1 Ba1 Sn1 129.468(8) 9 34
Sn1 Ba1 Sn1 112.705(3) 29 34
Sn1 Ba1 Sn1 67.295(3) 5 34
Sb1 Ba1 Sn1 50.532(8) 33 34
Sb1 Ba1 Sn1 129.468(8) 9 34
Sb1 Ba1 Sn1 67.295(3) 5 34
Sb1 Ba1 Sn1 112.705(3) 29 34
Sb1 Ba1 Sn1 67.295(3) 25 34
Sn1 Ba1 Sn1 67.295(3) 25 34
Sn1 Ba1 Sn1 129.468(8) 33 10
Sn1 Ba1 Sn1 50.532(8) 9 10
Sn1 Ba1 Sn1 67.295(3) 29 10
Sn1 Ba1 Sn1 112.705(3) 5 10
Sb1 Ba1 Sn1 129.468(8) 33 10
Sb1 Ba1 Sn1 50.532(8) 9 10
Sb1 Ba1 Sn1 112.705(3) 5 10
Sb1 Ba1 Sn1 67.295(3) 29 10
Sb1 Ba1 Sn1 112.705(3) 25 10
Sn1 Ba1 Sn1 112.705(3) 25 10
Sn1 Ba1 Sn1 180.0 34 10
Sb1 Ni1 Sn1 83.693(7) . 45
Sb1 Ni1 Sb1 180.0 . 37
Sn1 Ni1 Sb1 96.307(7) 45 37
Sb1 Ni1 Sb1 96.308(7) . 5
Sn1 Ni1 Sb1 83.693(7) 45 5
Sb1 Ni1 Sb1 83.693(7) 37 5
Sb1 Ni1 Sb1 83.692(7) . 41
Sn1 Ni1 Sb1 96.307(7) 45 41
Sb1 Ni1 Sb1 96.307(7) 37 41
Sb1 Ni1 Sb1 180.0 5 41
Sb1 Ni1 Sb1 96.307(7) . 9
Sn1 Ni1 Sb1 180.0 45 9
Sb1 Ni1 Sb1 83.693(7) 37 9
Sb1 Ni1 Sb1 96.307(7) 5 9
Sb1 Ni1 Sb1 83.693(7) 41 9
Sb1 Ni1 Sb1 83.693(7) . 45
Sn1 Ni1 Sb1 0.000(10) 45 45
Sb1 Ni1 Sb1 96.307(7) 37 45
Sb1 Ni1 Sb1 83.693(7) 5 45
Sb1 Ni1 Sb1 96.307(7) 41 45
Sb1 Ni1 Sb1 180.0 9 45
Sb1 Ni1 Sn1 180.0 . 37
Sn1 Ni1 Sn1 96.307(7) 45 37
Sb1 Ni1 Sn1 0.000(14) 37 37
Sb1 Ni1 Sn1 83.693(7) 5 37
Sb1 Ni1 Sn1 96.307(7) 41 37
Sb1 Ni1 Sn1 83.693(7) 9 37
Sb1 Ni1 Sn1 96.307(7) 45 37
Sb1 Ni1 Sn1 96.308(7) . 5
Sn1 Ni1 Sn1 83.693(7) 45 5
Sb1 Ni1 Sn1 83.693(7) 37 5
Sb1 Ni1 Sn1 0.000(10) 5 5
Sb1 Ni1 Sn1 180.0 41 5
Sb1 Ni1 Sn1 96.307(7) 9 5
Sb1 Ni1 Sn1 83.693(7) 45 5
Sn1 Ni1 Sn1 83.693(7) 37 5
Sb1 Ni1 Sn1 83.692(7) . 41
Sn1 Ni1 Sn1 96.307(7) 45 41
Sb1 Ni1 Sn1 96.307(7) 37 41
Sb1 Ni1 Sn1 180.0 5 41
Sb1 Ni1 Sn1 0.000(14) 41 41
Sb1 Ni1 Sn1 83.693(7) 9 41
Sb1 Ni1 Sn1 96.307(7) 45 41
Sn1 Ni1 Sn1 96.307(7) 37 41
Sn1 Ni1 Sn1 180.0 5 41
Sb1 Ni1 Sn1 96.307(7) . 9
Sn1 Ni1 Sn1 180.0 45 9
Sb1 Ni1 Sn1 83.693(7) 37 9
Sb1 Ni1 Sn1 96.307(7) 5 9
Sb1 Ni1 Sn1 83.693(7) 41 9
Sb1 Ni1 Sn1 0.000(14) 9 9
Sb1 Ni1 Sn1 180.0 45 9
Sn1 Ni1 Sn1 83.693(7) 37 9
Sn1 Ni1 Sn1 96.307(7) 5 9
Sn1 Ni1 Sn1 83.693(7) 41 9
Ni1 Sb1 Ni1 126.001(9) 16_455 .
Ni1 Sb1 Sn1 108.956(5) 16_455 26_556
Ni1 Sb1 Sn1 108.956(5) . 26_556
Ni1 Sb1 Sb1 108.956(5) 16_455 26_556
Ni1 Sb1 Sb1 108.956(5) . 26_556
Sn1 Sb1 Sb1 0.000(9) 26_556 26_556
Ni1 Sb1 Sn1 108.491(5) 16_455 2
Ni1 Sb1 Sn1 108.491(5) . 2
Sn1 Sb1 Sn1 90.0 26_556 2
Sb1 Sb1 Sn1 90.0 26_556 2
Ni1 Sb1 Sb1 108.491(5) 16_455 2
Ni1 Sb1 Sb1 108.491(5) . 2
Sn1 Sb1 Sb1 90.0 26_556 2
Sb1 Sb1 Sb1 90.0 26_556 2
Sn1 Sb1 Sb1 0.000(9) 2 2
Ni1 Sb1 Ba1 80.887(6) 16_455 .
Ni1 Sb1 Ba1 80.887(6) . .
Sn1 Sb1 Ba1 154.733(4) 26_556 .
Sb1 Sb1 Ba1 154.733(4) 26_556 .
Sn1 Sb1 Ba1 64.733(4) 2 .
Sb1 Sb1 Ba1 64.733(4) 2 .
loop_
_geom_bond_atom_site_label_1
_geom_bond_atom_site_label_2
_geom_bond_distance
_geom_bond_site_symmetry_2
Ba1 Sn1 3.4662(3) 33
Ba1 Sn1 3.4662(3) 9
Ba1 Sn1 3.4662(3) 29
Ba1 Sn1 3.4662(3) 5
Ba1 Sb1 3.4662(3) 33
Ba1 Sb1 3.4662(3) 9
Ba1 Sb1 3.4662(3) 5
Ba1 Sb1 3.4662(3) 29
Ba1 Sb1 3.4662(3) 25
Ba1 Sn1 3.4662(3) 25
Ba1 Sn1 3.4662(3) 34
Ba1 Sn1 3.4662(3) 10
Ni1 Sb1 2.57817(12) .
Ni1 Sn1 2.57818(12) 45
Ni1 Sb1 2.57818(12) 37
Ni1 Sb1 2.57818(12) 5
Ni1 Sb1 2.57818(12) 41
Ni1 Sb1 2.57818(12) 9
Ni1 Sb1 2.57818(12) 45
Ni1 Sn1 2.57818(12) 37
Ni1 Sn1 2.57818(12) 5
Ni1 Sn1 2.57818(12) 41
Ni1 Sn1 2.57818(12) 9
Sb1 Ni1 2.57817(12) 16_455
Sb1 Sn1 2.9194(5) 26_556
Sb1 Sb1 2.9194(5) 26_556
Sb1 Sn1 2.9590(5) 2
Sb1 Sb1 2.9590(5) 2
