#------------------------------------------------------------------------------
#$Date: 2016-08-07 11:58:26 +0300 (Sun, 07 Aug 2016) $
#$Revision: 185390 $
#$URL: file:///home/coder/svn-repositories/cod/cif/7/03/96/7039603.cif $
#------------------------------------------------------------------------------
#
# This file is available in the Crystallography Open Database (COD),
# http://www.crystallography.net/
#
# All data on this site have been placed in the public domain by the
# contributors.
#
data_7039603
loop_
_publ_author_name
'Paschinger, W.'
'Rogl, G.'
'Grytsiv, A.'
'Michor, H.'
'Heinrich, P. R.'
'M\"uller, H'
'Puchegger, S.'
'Klobes, B.'
'Hermann, R. P.'
'Reinecker, M.'
'Eisenmenger-Sitter, Ch'
'Broz, P.'
'Bauer, E.'
'Giester, G.'
'Zehetbauer, M.'
'Rogl, P. F.'
_publ_section_title
;
 Ba-filled Ni-Sb-Sn based skutterudites with anomalously high lattice
 thermal conductivity.
;
_journal_issue                   27
_journal_name_full
'Dalton transactions (Cambridge, England : 2003)'
_journal_page_first              11071
_journal_page_last               11100
_journal_paper_doi               10.1039/c6dt01298a
_journal_volume                  45
_journal_year                    2016
_chemical_formula_sum            'Ba1.57 Ni8 Sb16.32 Sn7.68'
_chemical_formula_weight         3583.80
_chemical_name_systematic
;
 ?
;
_space_group_crystal_system      cubic
_space_group_IT_number           204
_space_group_name_Hall           '-I 2 2 3'
_space_group_name_H-M_alt        'I m -3'
_symmetry_space_group_name_Hall  '-I 2 2 3'
_symmetry_space_group_name_H-M   'I m -3'
_audit_creation_method           SHELXL-2013
_cell_angle_alpha                90
_cell_angle_beta                 90
_cell_angle_gamma                90
_cell_formula_units_Z            1
_cell_length_a                   9.1791(2)
_cell_length_b                   9.1791(2)
_cell_length_c                   9.1791(2)
_cell_measurement_temperature    100(2)
_cell_volume                     773.39(3)
_computing_structure_refinement  'SHELXL-2013 (Sheldrick, 2013)'
_diffrn_ambient_temperature      100(2)
_diffrn_measured_fraction_theta_full 0.993
_diffrn_measured_fraction_theta_max 0.986
_diffrn_radiation_type           MoK\a
_diffrn_radiation_wavelength     0.71069
_diffrn_reflns_av_R_equivalents  0.0079
_diffrn_reflns_av_unetI/netI     0.0117
_diffrn_reflns_Laue_measured_fraction_full 0.993
_diffrn_reflns_Laue_measured_fraction_max 0.986
_diffrn_reflns_limit_h_max       10
_diffrn_reflns_limit_h_min       -10
_diffrn_reflns_limit_k_max       15
_diffrn_reflns_limit_k_min       -15
_diffrn_reflns_limit_l_max       10
_diffrn_reflns_limit_l_min       -10
_diffrn_reflns_number            609
_diffrn_reflns_point_group_measured_fraction_full 0.993
_diffrn_reflns_point_group_measured_fraction_max 0.986
_diffrn_reflns_theta_full        25.240
_diffrn_reflns_theta_max         36.312
_diffrn_reflns_theta_min         3.138
_exptl_absorpt_coefficient_mu    26.723
_exptl_crystal_density_diffrn    7.695
_exptl_crystal_F_000             1528
_exptl_crystal_size_max          0.100
_exptl_crystal_size_mid          0.070
_exptl_crystal_size_min          0.040
_refine_diff_density_max         2.026
_refine_diff_density_min         -1.232
_refine_diff_density_rms         0.228
_refine_ls_extinction_coef       0.00117(5)
_refine_ls_extinction_expression Fc^*^=kFc[1+0.001xFc^2^\l^3^/sin(2\q)]^-1/4^
_refine_ls_extinction_method     SHELXL
_refine_ls_goodness_of_fit_ref   1.181
_refine_ls_hydrogen_treatment    undef
_refine_ls_matrix_type           full
_refine_ls_number_parameters     12
_refine_ls_number_reflns         354
_refine_ls_number_restraints     0
_refine_ls_restrained_S_all      1.181
_refine_ls_R_factor_all          0.0196
_refine_ls_R_factor_gt           0.0174
_refine_ls_shift/su_max          0.035
_refine_ls_shift/su_mean         0.013
_refine_ls_structure_factor_coef Fsqd
_refine_ls_weighting_details
;
 w=1/[\s^2^(Fo^2^)+(0.0059P)^2^+10.6325P]
 where P=(Fo^2^+2Fc^2^)/3
;
_refine_ls_weighting_scheme      calc
_refine_ls_wR_factor_gt          0.0322
_refine_ls_wR_factor_ref         0.0328
_reflns_Friedel_coverage         0.000
_reflns_number_gt                338
_reflns_number_total             354
_reflns_threshold_expression     'I > 2\s(I)'
_cod_data_source_file            c6dt01298a4.cif
_cod_data_source_block           bani4sb8sn4_100k
_cod_depositor_comments
'Adding full bibliography for 7039602--7039607.cif.'
_cod_original_cell_volume        773.39(5)
_cod_database_code               7039603
_shelx_space_group_comment
;
The symmetry employed for this shelxl refinement is uniquely defined
by the following loop, which should always be used as a source of
symmetry information in preference to the above space-group names.
They are only intended as comments.
;
_shelx_estimated_absorpt_t_min   0.175
_shelx_estimated_absorpt_t_max   0.415
_shelxl_version_number           2013-2
_shelx_res_file
;
TITL  bani4sb8sn4_
REM  BaNi4Sb8Sn6_100K
CELL 0.71069     9.1791   9.1791   9.1791  90.000  90.000  90.000
ZERR     1  0.00020  0.00020  0.00020  0.00000  0.00000  0.00000
REM SG 204 48 24 Im-3 I2/m-3 PGm3bar cubic
LATT 2
REM SG  ORGN  at Inv.cen. m-3
SYMM -X,-Y,Z
SYMM -X,Y,-Z
SYMM X,-Y,-Z
SYMM Z,X,Y
SYMM Z,-X,-Y
SYMM -Z,-X,Y
SYMM -Z,X,-Y
SYMM Y,Z,X
SYMM -Y,Z,-X
SYMM Y,-Z,-X
SYMM -Y,-Z,X
SFAC  BA  NI  SB   SN
UNIT      1.57    8   16.32    7.68
SIZE    0.100  0.070  0.040
TEMP     -173.15
L.S. 1
ACTA
EXYZ   SB1 SN1
EADP   SB1 SN1
BOND
FMAP 2
PLAN 20
WGHT    0.005900   10.632500
EXTI    0.001171
FVAR       0.10620   0.78281
BA1   1    0.000000    0.000000    0.000000    20.04167    0.00433    0.00433 =
         0.00433    0.00000    0.00000    0.00000
NI1   2    0.250000    0.250000    0.250000    10.16667    0.00396    0.00396 =
         0.00396    0.00023    0.00023    0.00023
SB1   3    0.000000    0.160945    0.341113    10.34000    0.00291    0.00395 =
         0.00727    0.00061    0.00000    0.00000
SN1   4    0.000000    0.160945    0.341113    10.16000    0.00291    0.00395 =
         0.00727    0.00061    0.00000    0.00000
HKLF 4  1.0  0 1 0  1 0 0  0 0 -1

REM   bani4sb8sn4_
REM R1 =  0.0174 for     338 Fo > 4sig(Fo)  and  0.0196 for all     354 data
REM     12 parameters refined using      0 restraints

END

WGHT      0.0076      9.1780

REM Highest difference peak  2.026,  deepest hole -1.232,  1-sigma level  0.228
Q1    1   0.0000  0.0000  0.3168  10.25000  0.05    2.03
Q2    1   0.0000  0.0000  0.2336  10.25000  0.05    1.13
Q3    1   0.0000  0.0000  0.4388  10.25000  0.05    1.08
Q4    1   0.3399  0.1695  0.1824  11.00000  0.05    1.02
Q5    1   0.0000  0.2659  0.1824  10.50000  0.05    0.70
Q6    1  -0.0580  0.0000  0.5000  10.25000  0.05    0.68
Q7    1   0.0984  0.0000  0.3222  10.50000  0.05    0.66
Q8    1   0.3368  0.1806  0.0917  11.00000  0.05    0.66
Q9    1   0.0000  0.0507  0.5000  10.25000  0.05    0.64
Q10   1   0.0000  0.1515  0.3057  10.50000  0.05    0.63
Q11   1   0.2018  0.2018  0.2018  10.33333  0.05    0.62
Q12   1   0.1382  0.2659  0.1910  11.00000  0.05    0.62
Q13   1   0.0000  0.0776  0.2900  10.50000  0.05    0.62
Q14   1   0.1659  0.2052  0.4231  11.00000  0.05    0.61
Q15   1   0.0358  0.1986  0.4385  11.00000  0.05    0.58
Q16   1   0.0000  0.0507  0.3854  10.50000  0.05    0.57
Q17   1   0.0000  0.2445  0.5000  10.25000  0.05    0.56
Q18   1   0.0000  0.2120  0.2202  10.50000  0.05    0.55
Q19   1   0.0768  0.0000  0.0399  10.50000  0.05    0.55
Q20   1   0.2918  0.3320  0.2106  11.00000  0.05    0.54
;
_shelx_res_checksum              26345
_shelx_hkl_file
;
   1   1   0   12.10    0.10   1
   2   0   0   63.30    0.60   1
   2   1   1    6.90    0.10   1
  -2  -1  -1    6.80    0.10   1
   2   2   0   19.70    0.20   1
   2   2   2   49.40    0.80   1
  -2  -2  -2   46.60    0.70   1
   3   0   1 4414.10   24.20   1
   3   1   0  729.00    4.20   1
   3   1   2 1909.10   10.50   1
  -3  -1  -2 1923.60    9.90   1
   3   2   1   14.50    0.20   1
  -3  -2  -1   15.30    0.20   1
   3   3   0  583.40    3.40   1
   3   3   2  558.70    3.30   1
  -3  -3  -2  558.00    3.40   1
   4   0   0  282.00    2.30   1
   4   0   2 1238.90    7.00   1
   4   1   1    8.40    0.20   1
  -4  -1  -1    8.60    0.20   1
   4   1   3   35.20    0.40   1
  -4  -1  -3   35.30    0.40   1
   4   2   0 1080.60    5.90   1
   4   2   2 1873.90   10.50   1
  -4  -2  -2 1883.90   10.00   1
   4   3   1 2340.20   12.90   1
  -4  -3  -1 2371.70   12.70   1
   4   3   3  408.00    2.60   1
  -4  -3  -3  408.50    2.60   1
   4   4   0   10.70    0.30   1
   4   4   2  279.60    2.00   1
  -4  -4  -2  285.10    1.90   1
   4   4   4 2264.90   28.20   1
  -4  -4  -4 2250.00   28.50   1
   5   0   1   78.50    0.60   1
   5   0   3  399.30    2.60   1
   5   1   0   18.20    0.30   1
   5   1   2   25.70    0.40   1
  -5  -1  -2   25.50    0.40   1
   5   1   4   24.90    0.40   1
  -5  -1  -4   24.40    0.40   1
   5   2   1    5.30    0.20   1
  -5  -2  -1    5.50    0.20   1
   5   2   3  822.40    5.60   1
  -5  -2  -3  823.10    5.00   1
   5   3   0 2351.30   12.40   1
   5   3   2    5.40    0.30   1
  -5  -3  -2    5.70    0.20   1
   5   3   4   75.20    0.80   1
  -5  -3  -4   74.70    0.80   1
   5   4   1   13.80    0.30   1
  -5  -4  -1   15.10    0.30   1
   5   4   3 1106.60    8.60   1
  -5  -4  -3 1121.40    7.70   1
   5   5   0   25.00    0.50   1
   5   5   2    8.10    0.30   1
  -5  -5  -2    8.20    0.30   1
   5   5   4    3.90    0.30   1
  -5  -5  -4    4.40    0.30   1
   6   0   0 4276.90   32.20   1
   6   0   2  494.80    3.40   1
   6   0   4  240.50    2.10   1
   6   1   1    9.30    0.30   1
  -6  -1  -1   10.50    0.20   1
   6   1   3 2884.90   18.00   1
  -6  -1  -3 2881.20   18.00   1
   6   1   5   37.60    0.60   1
  -6  -1  -5   38.00    0.70   1
   6   2   0  571.70    3.90   1
   6   2   2  589.20    4.30   1
  -6  -2  -2  585.70    4.00   1
   6   2   4    1.70    0.30   1
  -6  -2  -4    1.50    0.20   1
   6   3   1  323.10    2.30   1
  -6  -3  -1  321.40    2.40   1
   6   3   3  307.30    2.70   1
  -6  -3  -3  315.80    2.50   1
   6   3   5  196.10    1.90   1
  -6  -3  -5  196.90    1.90   1
   6   4   0  191.60    1.60   1
   6   4   2    3.00    0.20   1
  -6  -4  -2    2.60    0.20   1
   6   4   4  613.30    5.20   1
  -6  -4  -4  608.30    4.80   1
   6   5   1   12.10    0.30   1
  -6  -5  -1   12.60    0.40   1
   6   5   3 1442.80   12.40   1
  -6  -5  -3 1475.90   10.90   1
   6   5   5   13.90    0.50   1
  -6  -5  -5   13.30    0.60   1
   6   6   0 5155.10   39.20   1
   6   6   2   20.70    0.50   1
  -6  -6  -2   20.70    0.50   1
   6   6   4   72.10    1.20   1
  -6  -6  -4   71.10    1.20   1
   6   6   6 2011.80   31.70   1
  -6  -6  -6 1945.70   28.60   1
   7   0   1   76.30    0.80   1
   7   0   3  372.10    3.00   1
   7   0   5   64.60    1.00   1
   7   1   0    1.60    0.20   1
   7   1   2   29.70    0.50   1
  -7  -1  -2   29.10    0.50   1
   7   1   4   39.20    0.60   1
  -7  -1  -4   39.40    0.70   1
   7   1   6    1.20    0.30   1
  -7  -1  -6    1.20    0.40   1
   7   2   1    2.40    0.20   1
  -7  -2  -1    3.80    0.20   1
   7   2   3 1357.10    9.90   1
  -7  -2  -3 1349.40   10.20   1
   7   2   5   20.80    0.60   1
  -7  -2  -5   20.50    0.60   1
   7   3   0 3468.30   23.60   1
   7   3   2   25.80    0.60   1
  -7  -3  -2   25.80    0.50   1
   7   3   4    7.50    0.30   1
  -7  -3  -4    7.60    0.40   1
   7   3   6 2379.00   20.50   1
  -7  -3  -6 2416.90   20.10   1
   7   4   1    2.90    0.20   1
  -7  -4  -1    3.50    0.30   1
   7   4   3 1799.80   13.50   1
  -7  -4  -3 1792.80   13.50   1
   7   4   5   22.80    0.60   1
  -7  -4  -5   23.40    0.60   1
   7   5   0   71.40    0.90   1
   7   5   2   19.00    0.50   1
  -7  -5  -2   19.80    0.50   1
   7   5   4   39.30    0.90   1
  -7  -5  -4   38.70    0.90   1
   7   5   6   43.80    1.20   1
  -7  -5  -6   40.20    1.10   1
   7   6   1   57.60    1.00   1
  -7  -6  -1   56.20    0.90   1
   7   6   3  206.80    2.60   1
  -7  -6  -3  205.10    2.40   1
   7   6   5   46.20    1.10   1
  -7  -6  -5   47.30    1.10   1
   7   7   0   34.70    0.80   1
   7   7   2   23.20    0.80   1
  -7  -7  -2   24.40    0.80   1
   7   7   4   25.80    0.80   1
  -7  -7  -4   25.80    0.90   1
   7   7   6   31.70    1.40   1
  -7  -7  -6   35.20    1.10   1
   8   0   0  973.30   10.10   1
   8   0   2  299.10    2.60   1
   8   0   4    9.60    0.50   1
   8   0   6   48.30    1.10   1
   8   1   1    1.20    0.20   1
  -8  -1  -1    1.30    0.30   1
   8   1   3   99.70    1.10   1
  -8  -1  -3  100.90    1.20   1
   8   1   5    1.10    0.40   1
  -8  -1  -5    1.30    0.40   1
   8   1   7    1.60    0.50   1
  -8  -1  -7    1.20    0.50   1
   8   2   0  396.70    3.30   1
   8   2   2  527.40    4.30   1
  -8  -2  -2  519.20    4.60   1
   8   2   4   14.30    0.60   1
  -8  -2  -4   13.60    0.60   1
   8   2   6    9.30    0.50   1
  -8  -2  -6    9.90    0.60   1
   8   3   1  449.70    4.00   1
  -8  -3  -1  456.70    3.90   1
   8   3   3  313.90    3.10   1
  -8  -3  -3  315.30    3.20   1
   8   3   5  195.10    2.20   1
  -8  -3  -5  195.50    2.50   1
   8   3   7  457.50    5.20   1
  -8  -3  -7  448.20    5.00   1
   8   4   0    2.40    0.30   1
   8   4   2   11.30    0.60   1
  -8  -4  -2   14.00    0.50   1
   8   4   4  700.80    6.90   1
  -8  -4  -4  699.10    6.70   1
   8   4   6  346.10    4.20   1
  -8  -4  -6  344.90    3.90   1
   8   5   1   10.50    0.50   1
  -8  -5  -1   11.50    0.50   1
   8   5   3   19.80    0.60   1
  -8  -5  -3   21.00    0.80   1
   8   5   5    8.20    0.60   1
  -8  -5  -5    7.30    0.60   1
   8   5   7    8.90    0.90   1
  -8  -5  -7    5.70    0.70   1
   8   6   0   32.70    0.90   1
   8   6   2   26.30    0.80   1
  -8  -6  -2   30.00    0.80   1
   8   6   4  208.20    3.10   1
  -8  -6  -4  215.40    2.80   1
   8   6   6  463.20    7.00   1
  -8  -6  -6  452.90    5.00   1
   8   7   1    6.30    0.60   1
  -8  -7  -1    6.10    0.60   1
   8   7   3  120.20    2.20   1
  -8  -7  -3  118.80    1.90   1
   8   7   5    2.50    0.80   1
  -8  -7  -5    2.90    0.60   1
   8   7   7    8.10    1.20   1
  -8  -7  -7    8.90    0.90   1
   8   8   0   39.40    1.30   1
   8   8   2    4.90    0.60   1
  -8  -8  -2    3.80    0.70   1
   8   8   4  235.30    3.80   1
  -8  -8  -4  241.50    3.30   1
   8   8   6   77.50    3.00   1
  -8  -8  -6   79.80    1.80   1
   8   8   8   87.90    8.80   1
  -8  -8  -8   95.20    3.90   1
   9   0   1 1865.50   14.00   1
   9   0   3  294.70    3.30   1
   9   0   5  919.90    9.00   1
   9   0   7 1726.90   18.10   1
   9   1   0  282.10    2.70   1
   9   1   2  669.90    6.20   1
  -9  -1  -2  677.10    6.30   1
   9   1   4  953.30    9.50   1
  -9  -1  -4  951.20    9.10   1
   9   1   6  166.00    2.40   1
  -9  -1  -6  168.20    2.50   1
   9   1   8  217.70    3.70   1
  -9  -1  -8  212.10    3.50   1
   9   2   1    8.50    0.40   1
  -9  -2  -1    9.10    0.50   1
   9   2   3  161.60    2.20   1
  -9  -2  -3  162.00    2.10   1
   9   2   5    2.40    0.50   1
  -9  -2  -5    1.10    0.40   1
   9   2   7   17.50    1.00   1
  -9  -2  -7   16.40    0.90   1
   9   3   0  125.90    1.70   1
   9   3   2  165.30    2.00   1
  -9  -3  -2  164.10    2.10   1
   9   3   4  130.90    1.90   1
  -9  -3  -4  128.00    1.80   1
   9   3   6   84.00    1.70   1
  -9  -3  -6   82.40    1.60   1
   9   3   8  137.20    2.60   1
  -9  -3  -8  136.90    2.50   1
   9   4   1    7.90    0.50   1
  -9  -4  -1    8.00    0.60   1
   9   4   3  113.80    1.70   1
  -9  -4  -3  114.90    1.70   1
   9   4   5   21.70    0.90   1
  -9  -4  -5   22.10    0.90   1
   9   4   7    2.90    0.70   1
  -9  -4  -7    1.50    0.70   1
   9   5   0  176.40    2.40   1
   9   5   2  336.00    3.90   1
  -9  -5  -2  331.90    3.80   1
   9   5   4  506.30    6.00   1
  -9  -5  -4  508.50    5.30   1
   9   5   6  108.10    2.60   1
  -9  -5  -6  105.90    1.90   1
   9   5   8   89.20    3.70   1
  -9  -5  -8   98.40    2.20   1
   9   6   1 1290.40   13.00   1
  -9  -6  -1 1293.80   11.90   1
   9   6   3  197.80    2.90   1
  -9  -6  -3  199.20    2.80   1
   9   6   5  696.40    9.90   1
  -9  -6  -5  693.20    7.00   1
   9   6   7 1322.20   22.20   1
  -9  -6  -7 1334.60   13.20   1
   9   7   0  226.20    3.00   1
   9   7   2  659.60    7.40   1
  -9  -7  -2  660.50    7.60   1
   9   7   4  907.70   11.00   1
  -9  -7  -4  899.20    9.50   1
   9   7   6  147.00    4.20   1
  -9  -7  -6  139.00    2.40   1
   9   7   8  239.80    8.30   1
  -9  -7  -8  241.60    4.20   1
   9   8   1   55.40    1.50   1
  -9  -8  -1   57.30    1.60   1
   9   8   3  147.50    2.90   1
  -9  -8  -3  151.10    2.80   1
   9   8   5   11.30    1.30   1
  -9  -8  -5   12.70    1.00   1
   9   8   7   73.10    4.30   1
  -9  -8  -7   71.20    2.00   1
   9   9   0  102.80    2.30   1
   9   9   2   65.30    2.00   1
  -9  -9  -2   73.00    2.10   1
   9   9   4   44.00    2.00   1
  -9  -9  -4   47.00    1.60   1
   9   9   6   75.30    3.90   1
  -9  -9  -6   73.00    2.10   1
  -9  -9  -8   63.00    4.80   1
  10   0   0  240.80    4.00   1
  10   0   2   10.90    0.60   1
  10   0   4  449.10    5.30   1
  10   0   6   11.20    0.80   1
  10   0   8  323.10    4.90   1
  10   1   1    2.50    0.40   1
 -10  -1  -1    1.90    0.40   1
  10   1   3   52.80    1.30   1
 -10  -1  -3   54.00    1.20   1
  10   1   5    7.30    0.80   1
 -10  -1  -5    7.20    0.80   1
  10   1   7    1.70    0.80   1
 -10  -1  -7    0.90    0.70   1
  10   1   9   19.90    1.30   1
 -10  -1  -9   21.10    1.50   1
  10   2   0    5.80    0.50   1
  10   2   2  107.50    1.80   1
 -10  -2  -2  107.70    1.70   1
  10   2   4  999.80   10.00   1
 -10  -2  -4 1012.40   10.20   1
  10   2   6  293.40    4.10   1
 -10  -2  -6  307.30    4.20   1
  10   2   8  351.20    5.10   1
 -10  -2  -8  349.00    5.40   1
  10   3   1 1249.50   11.20   1
 -10  -3  -1 1232.60   11.00   1
  10   3   3  176.90    2.50   1
 -10  -3  -3  175.50    2.40   1
  10   3   5  677.80    7.40   1
 -10  -3  -5  669.60    7.40   1
  10   3   7 1226.00   14.50   1
 -10  -3  -7 1233.00   13.60   1
  10   3   9   61.20    2.50   1
 -10  -3  -9   66.40    2.40   1
  10   4   0  477.00    5.20   1
  10   4   2 1003.90    9.70   1
 -10  -4  -2  987.10    9.70   1
  10   4   4  354.70    4.30   1
 -10  -4  -4  357.80    4.30   1
  10   4   6    7.90    0.90   1
 -10  -4  -6    8.40    0.90   1
  10   4   8   51.60    2.60   1
 -10  -4  -8   50.40    1.80   1
  10   5   1   10.80    0.80   1
 -10  -5  -1   12.50    0.80   1
  10   5   3   80.70    1.60   1
 -10  -5  -3   78.50    1.70   1
  10   5   5    1.00    0.70   1
 -10  -5  -5    2.60    0.80   1
  10   5   7   18.30    1.90   1
 -10  -5  -7   18.20    1.20   1
  10   5   9   30.80    2.70   1
 -10  -5  -9   34.40    1.80   1
  10   6   0    4.90    0.90   1
  10   6   2  330.70    4.50   1
 -10  -6  -2  337.70    4.50   1
  10   6   4    8.50    1.00   1
 -10  -6  -4    5.70    0.80   1
  10   6   6  145.90    4.00   1
 -10  -6  -6  151.80    2.60   1
  10   6   8    9.10    2.00   1
 -10  -6  -8    8.70    1.30   1
  10   7   1   21.20    1.10   1
 -10  -7  -1   20.40    1.20   1
  10   7   3   26.20    1.30   1
 -10  -7  -3   26.60    1.30   1
  10   7   5   26.30    1.60   1
 -10  -7  -5   26.10    1.20   1
  10   7   7   12.50    1.90   1
 -10  -7  -7   14.80    1.30   1
 -10  -7  -9   13.60    3.90   1
  10   8   0  212.90    3.70   1
  10   8   2  359.30    5.80   1
 -10  -8  -2  359.30    5.40   1
  10   8   4   60.90    2.00   1
 -10  -8  -4   53.50    1.90   1
  10   8   6   -0.10    1.80   1
 -10  -8  -6    2.00    1.00   1
 -10  -8  -8    2.50    2.00   1
  10   9   1  709.10   10.50   1
 -10  -9  -1  705.80    9.20   1
  10   9   3   81.40    2.80   1
 -10  -9  -3   88.20    2.70   1
  10   9   5  390.10   11.00   1
 -10  -9  -5  388.00    6.70   1
  10  10   0   16.00    1.50   1
  10  10   2  191.20    5.70   1
 -10 -10  -2  179.40    4.30   1
  10  10   4  906.80   29.00   1
 -10 -10  -4  876.50   16.90   1
  11   0   1  150.00    2.40   1
  11   0   3  120.70    2.10   1
  11   0   5   76.20    1.90   1
  11   0   7  160.10    3.20   1
  11   0   9   69.70    2.50   1
  11   1   0   13.80    0.90   1
  11   1   2   52.00    1.40   1
 -11  -1  -2   50.30    1.20   1
  11   1   4   59.30    1.60   1
 -11  -1  -4   58.00    1.60   1
  11   1   6    9.60    1.00   1
 -11  -1  -6    8.90    1.00   1
  11   1   8   24.10    1.60   1
 -11  -1  -8   21.10    1.50   1
  11   1  10   38.00    3.80   1
 -11  -1 -10   35.00    4.60   1
  11   2   1    3.00    0.70   1
 -11  -2  -1    2.00    0.50   1
  11   2   3  149.60    2.40   1
 -11  -2  -3  152.00    2.30   1
  11   2   5    1.30    0.80   1
 -11  -2  -5    1.30    0.80   1
  11   2   7    8.50    1.10   1
 -11  -2  -7    8.20    1.20   1
  11   2   9   82.80    3.00   1
 -11  -2  -9   80.30    2.70   1
  11   3   0  504.50    5.80   1
  11   3   2   21.00    1.00   1
 -11  -3  -2   23.40    1.00   1
  11   3   4   66.50    1.60   1
 -11  -3  -4   64.60    1.70   1
  11   3   6  387.30    5.40   1
 -11  -3  -6  382.20    5.70   1
  11   3   8    1.30    1.20   1
 -11  -3  -8    0.80    1.30   1
  11   3  10   73.70   11.10   1
 -11  -3 -10   58.30    6.90   1
  11   4   1   11.60    0.90   1
 -11  -4  -1   11.10    0.90   1
  11   4   3  252.50    3.50   1
 -11  -4  -3  256.10    3.80   1
  11   4   5    1.50    0.90   1
 -11  -4  -5    3.40    0.90   1
  11   4   7   23.30    2.00   1
 -11  -4  -7   22.70    1.50   1
  11   4   9  142.10    6.30   1
 -11  -4  -9  143.50    5.90   1
  11   5   0    2.10    0.80   1
  11   5   2   21.50    1.10   1
 -11  -5  -2   20.70    1.20   1
  11   5   4   22.70    1.30   1
 -11  -5  -4   23.50    1.30   1
  11   5   6    0.60    1.10   1
 -11  -5  -6    0.90    0.90   1
  11   5   8   10.80    1.90   1
 -11  -5  -8   13.70    1.50   1
  11   6   1  110.50    2.50   1
 -11  -6  -1  105.00    2.30   1
  11   6   3   75.90    2.10   1
 -11  -6  -3   72.10    2.10   1
  11   6   5   57.40    2.20   1
 -11  -6  -5   56.40    1.80   1
  11   6   7  105.80    4.30   1
 -11  -6  -7  108.40    3.20   1
  11   7   0   34.30    1.60   1
  11   7   2   51.20    1.90   1
 -11  -7  -2   49.30    1.90   1
  11   7   4   62.00    2.10   1
 -11  -7  -4   68.20    2.40   1
  11   7   6   24.60    2.00   1
 -11  -7  -6   26.00    1.70   1
  11   8   1    0.80    1.10   1
 -11  -8  -1    3.30    1.20   1
  11   8   3   35.00    2.00   1
 -11  -8  -3   33.60    1.70   1
  11   8   5    1.00    1.50   1
 -11  -8  -5    2.00    1.30   1
  11   9   0  250.60    6.40   1
  11   9   2    9.20    1.50   1
 -11  -9  -2    9.80    1.60   1
  11   9   4   32.50    4.80   1
 -11  -9  -4   30.10    4.00   1
  11  10   1   16.10    3.00   1
 -11 -10  -1   11.10    2.50   1
  12   0   0 2848.60   39.40   1
  12   0   2   27.40    1.30   1
  12   0   4    9.10    1.00   1
  12   0   6 1151.90   14.80   1
  12   0   8  208.70    5.00   1
  12   1   1    8.50    0.90   1
 -12  -1  -1    7.40    0.80   1
  12   1   3 1032.10   12.00   1
 -12  -1  -3 1017.40   11.80   1
  12   1   5    6.50    1.10   1
 -12  -1  -5    8.20    1.10   1
  12   1   7   36.90    2.00   1
 -12  -1  -7   37.00    2.10   1
  12   1   9  576.70   17.60   1
 -12  -1  -9  615.40   21.50   1
  12   2   0    3.90    0.70   1
  12   2   2    8.80    0.90   1
 -12  -2  -2    8.30    0.90   1
  12   2   4  192.70    3.50   1
 -12  -2  -4  182.60    3.50   1
  12   2   6  127.70    2.90   1
 -12  -2  -6  125.70    3.20   1
  12   2   8   52.50    2.80   1
 -12  -2  -8   53.00    2.50   1
  12   3   1   47.80    1.50   1
 -12  -3  -1   51.70    1.60   1
  12   3   3   90.10    2.00   1
 -12  -3  -3   89.00    2.30   1
  12   3   5   31.40    1.50   1
 -12  -3  -5   35.50    1.60   1
  12   3   7   39.20    2.40   1
 -12  -3  -7   38.10    2.30   1
  12   4   0   51.50    1.60   1
  12   4   2  141.40    2.70   1
 -12  -4  -2  138.70    3.00   1
  12   4   4    0.70    0.90   1
 -12  -4  -4    1.50    1.00   1
  12   4   6   46.60    2.50   1
 -12  -4  -6   49.20    2.20   1
  12   4   8    6.80    4.60   1
 -12  -4  -8    6.90    5.80   1
  12   5   1    6.60    1.00   1
 -12  -5  -1    8.40    1.10   1
  12   5   3  571.90    8.00   1
 -12  -5  -3  569.40    9.20   1
  12   5   5    1.70    1.30   1
 -12  -5  -5    3.30    1.30   1
  12   5   7   25.80    3.30   1
 -12  -5  -7   20.80    3.40   1
  12   6   0 1160.70   14.70   1
  12   6   2   76.00    2.30   1
 -12  -6  -2   73.90    2.60   1
  12   6   4   96.50    3.10   1
 -12  -6  -4   95.10    3.00   1
  12   6   6 1756.70   38.70   1
 -12  -6  -6 1748.80   35.70   1
  12   7   1    5.10    1.30   1
 -12  -7  -1    5.30    1.30   1
  12   7   3 1054.40   17.80   1
 -12  -7  -3 1070.60   17.90   1
  12   7   5    9.30    2.80   1
 -12  -7  -5    7.00    2.50   1
  12   8   0  297.60    7.40   1
  12   8   2   91.40    3.30   1
 -12  -8  -2   92.90    3.50   1
  12   8   4   -0.60    2.80   1
  12   9   1   31.20    7.70   1
 -12  -9  -1   41.30    7.00   1
  13   0   1   52.20    1.90   1
  13   0   3  127.50    2.80   1
  13   0   5   40.30    2.10   1
  13   0   7   36.30    2.70   1
  13   1   0    0.30    0.90   1
  13   1   2   20.20    1.40   1
 -13  -1  -2   19.00    1.30   1
  13   1   4   26.60    1.50   1
 -13  -1  -4   33.50    1.90   1
  13   1   6    0.60    1.40   1
 -13  -1  -6    0.50    1.20   1
  13   1   8    7.40    5.30   1
  13   2   1    1.50    0.90   1
 -13  -2  -1    2.40    1.00   1
  13   2   3  691.80    8.80   1
 -13  -2  -3  695.40   10.60   1
  13   2   5    4.20    1.20   1
 -13  -2  -5    3.60    1.20   1
  13   2   7   10.30    2.70   1
 -13  -2  -7    4.20    5.60   1
  13   3   0 1766.80   19.10   1
  13   3   2   10.30    1.10   1
 -13  -3  -2    8.90    1.20   1
  13   3   4    3.50    1.20   1
 -13  -3  -4    5.30    1.30   1
  13   3   6 1377.90   22.50   1
 -13  -3  -6 1390.90   22.90   1
  13   4   1    3.00    1.00   1
 -13  -4  -1    2.20    1.10   1
  13   4   3  945.60   14.60   1
 -13  -4  -3  930.40   16.50   1
  13   4   5   12.80    1.90   1
 -13  -4  -5    9.60    1.70   1
  13   5   0   40.00    1.80   1
  13   5   2   14.50    1.30   1
 -13  -5  -2   12.50    1.70   1
  13   5   4   30.60    2.20   1
 -13  -5  -4   28.30    2.10   1
  13   6   1   44.10    2.00   1
 -13  -6  -1   49.30    2.40   1
  13   6   3   82.20    3.10   1
 -13  -6  -3   79.30    3.20   1
  13   7   0   12.70    2.40   1
  13   7   2   20.70    3.10   1
 -13  -7  -2   16.60    3.80   1
  14   0   0  153.50    5.30   1
  14   0   2   23.20    1.70   1
  14   0   4   87.90    3.20   1
  14   1   1    0.10    1.10   1
 -14  -1  -1    0.40    1.10   1
  14   1   3  117.40    3.60   1
 -14  -1  -3  124.40    3.80   1
  14   1   5    0.00    2.00   1
 -14  -1  -5    1.60    2.30   1
  14   2   0    3.60    1.20   1
  14   2   2    3.90    1.20   1
 -14  -2  -2    7.30    1.40   1
  14   2   4  128.40    4.00   1
 -14  -2  -4  132.70    5.20   1
  14   3   1   62.20    2.60   1
 -14  -3  -1   61.10    2.60   1
  14   3   3  157.90    4.30   1
 -14  -3  -3  153.30    4.70   1
  14   3   5   14.20    5.90   1
  14   4   0  178.20    4.80   1
  14   4   2  130.10    4.50   1
 -14  -4  -2  127.90    5.30   1
  14   4   4    1.00    3.10   1
  14   5   1    7.10    4.00   1
 -14  -5  -1    9.70    3.30   1
  14   5   3   41.90    7.20   1
  15   0   1  531.80   20.40   1
  15   1   0  123.50   13.50   1
  15   1   2  165.30   14.60   1
 -15  -2  -1   -3.60    3.80   1
   0   0   0
;
_shelx_hkl_checksum              63612
loop_
_space_group_symop_operation_xyz
'x, y, z'
'-x, -y, z'
'-x, y, -z'
'x, -y, -z'
'z, x, y'
'z, -x, -y'
'-z, -x, y'
'-z, x, -y'
'y, z, x'
'-y, z, -x'
'y, -z, -x'
'-y, -z, x'
'x+1/2, y+1/2, z+1/2'
'-x+1/2, -y+1/2, z+1/2'
'-x+1/2, y+1/2, -z+1/2'
'x+1/2, -y+1/2, -z+1/2'
'z+1/2, x+1/2, y+1/2'
'z+1/2, -x+1/2, -y+1/2'
'-z+1/2, -x+1/2, y+1/2'
'-z+1/2, x+1/2, -y+1/2'
'y+1/2, z+1/2, x+1/2'
'-y+1/2, z+1/2, -x+1/2'
'y+1/2, -z+1/2, -x+1/2'
'-y+1/2, -z+1/2, x+1/2'
'-x, -y, -z'
'x, y, -z'
'x, -y, z'
'-x, y, z'
'-z, -x, -y'
'-z, x, y'
'z, x, -y'
'z, -x, y'
'-y, -z, -x'
'y, -z, x'
'-y, z, x'
'y, z, -x'
'-x+1/2, -y+1/2, -z+1/2'
'x+1/2, y+1/2, -z+1/2'
'x+1/2, -y+1/2, z+1/2'
'-x+1/2, y+1/2, z+1/2'
'-z+1/2, -x+1/2, -y+1/2'
'-z+1/2, x+1/2, y+1/2'
'z+1/2, x+1/2, -y+1/2'
'z+1/2, -x+1/2, y+1/2'
'-y+1/2, -z+1/2, -x+1/2'
'y+1/2, -z+1/2, x+1/2'
'-y+1/2, z+1/2, x+1/2'
'y+1/2, z+1/2, -x+1/2'
loop_
_atom_site_label
_atom_site_type_symbol
_atom_site_fract_x
_atom_site_fract_y
_atom_site_fract_z
_atom_site_U_iso_or_equiv
_atom_site_adp_type
_atom_site_occupancy
_atom_site_site_symmetry_order
_atom_site_calc_flag
_atom_site_refinement_flags_posn
_atom_site_refinement_flags_adp
_atom_site_refinement_flags_occupancy
Ba1 Ba 0.0000 0.0000 0.0000 0.0043(2) Uani 0.783(5) 24 d S T P
Ni1 Ni 0.2500 0.2500 0.2500 0.00396(14) Uani 1 6 d S T P
Sb1 Sb 0.0000 0.16094(2) 0.34111(2) 0.00471(8) Uani 0.68 2 d S T P
Sn1 Sn 0.0000 0.16094(2) 0.34111(2) 0.00471(8) Uani 0.32 2 d S T P
loop_
_atom_site_aniso_label
_atom_site_aniso_U_11
_atom_site_aniso_U_22
_atom_site_aniso_U_33
_atom_site_aniso_U_23
_atom_site_aniso_U_13
_atom_site_aniso_U_12
Ba1 0.0043(2) 0.0043(2) 0.0043(2) 0.000 0.000 0.000
Ni1 0.00396(14) 0.00396(14) 0.00396(14) 0.00023(13) 0.00023(13) 0.00023(13)
Sb1 0.00291(10) 0.00395(11) 0.00727(11) 0.00061(7) 0.000 0.000
Sn1 0.00291(10) 0.00395(11) 0.00727(11) 0.00061(7) 0.000 0.000
loop_
_atom_type_symbol
_atom_type_description
_atom_type_scat_dispersion_real
_atom_type_scat_dispersion_imag
_atom_type_scat_source
Ba Ba -0.3244 2.2819 'International Tables Vol C Tables 4.2.6.8 and 6.1.1.4'
Ni Ni 0.3393 1.1124 'International Tables Vol C Tables 4.2.6.8 and 6.1.1.4'
Sb Sb -0.5866 1.5461 'International Tables Vol C Tables 4.2.6.8 and 6.1.1.4'
Sn Sn -0.6537 1.4246 'International Tables Vol C Tables 4.2.6.8 and 6.1.1.4'
loop_
_geom_angle_atom_site_label_1
_geom_angle_atom_site_label_2
_geom_angle_atom_site_label_3
_geom_angle
_geom_angle_site_symmetry_1
_geom_angle_site_symmetry_3
Sn1 Ba1 Sn1 180.0 33 9
Sn1 Ba1 Sn1 67.300(2) 33 29
Sn1 Ba1 Sn1 112.700(2) 9 29
Sn1 Ba1 Sb1 67.300(2) 33 25
Sn1 Ba1 Sb1 112.700(2) 9 25
Sn1 Ba1 Sb1 67.300(2) 29 25
Sn1 Ba1 Sn1 112.700(2) 33 5
Sn1 Ba1 Sn1 67.300(2) 9 5
Sn1 Ba1 Sn1 180.0 29 5
Sb1 Ba1 Sn1 112.700(2) 25 5
Sn1 Ba1 Sn1 67.300(2) 33 25
Sn1 Ba1 Sn1 112.700(2) 9 25
Sn1 Ba1 Sn1 67.300(2) 29 25
Sb1 Ba1 Sn1 0.000(3) 25 25
Sn1 Ba1 Sn1 112.700(2) 5 25
Sn1 Ba1 Sb1 112.700(2) 33 5
Sn1 Ba1 Sb1 67.300(2) 9 5
Sn1 Ba1 Sb1 180.0 29 5
Sb1 Ba1 Sb1 112.700(2) 25 5
Sn1 Ba1 Sb1 0.000(7) 5 5
Sn1 Ba1 Sb1 112.700(2) 25 5
Sn1 Ba1 Sb1 67.300(2) 33 29
Sn1 Ba1 Sb1 112.700(2) 9 29
Sn1 Ba1 Sb1 0.000(7) 29 29
Sb1 Ba1 Sb1 67.300(2) 25 29
Sn1 Ba1 Sb1 180.0 5 29
Sn1 Ba1 Sb1 67.300(2) 25 29
Sb1 Ba1 Sb1 180.0 5 29
Sn1 Ba1 Sb1 0.000(3) 33 33
Sn1 Ba1 Sb1 180.0 9 33
Sn1 Ba1 Sb1 67.300(2) 29 33
Sb1 Ba1 Sb1 67.300(2) 25 33
Sn1 Ba1 Sb1 112.700(2) 5 33
Sn1 Ba1 Sb1 67.300(2) 25 33
Sb1 Ba1 Sb1 112.700(2) 5 33
Sb1 Ba1 Sb1 67.300(2) 29 33
Sn1 Ba1 Sb1 180.0 33 9
Sn1 Ba1 Sb1 0.000(3) 9 9
Sn1 Ba1 Sb1 112.700(2) 29 9
Sb1 Ba1 Sb1 112.700(2) 25 9
Sn1 Ba1 Sb1 67.300(2) 5 9
Sn1 Ba1 Sb1 112.700(2) 25 9
Sb1 Ba1 Sb1 67.300(2) 5 9
Sb1 Ba1 Sb1 112.700(2) 29 9
Sb1 Ba1 Sb1 180.0 33 9
Sn1 Ba1 Sn1 50.518(7) 33 34
Sn1 Ba1 Sn1 129.482(7) 9 34
Sn1 Ba1 Sn1 112.700(3) 29 34
Sb1 Ba1 Sn1 67.300(2) 25 34
Sn1 Ba1 Sn1 67.300(2) 5 34
Sn1 Ba1 Sn1 67.300(2) 25 34
Sb1 Ba1 Sn1 67.300(2) 5 34
Sb1 Ba1 Sn1 112.700(3) 29 34
Sb1 Ba1 Sn1 50.518(7) 33 34
Sb1 Ba1 Sn1 129.482(7) 9 34
Sn1 Ba1 Sb1 67.300(2) 33 30
Sn1 Ba1 Sb1 112.700(2) 9 30
Sn1 Ba1 Sb1 50.518(7) 29 30
Sb1 Ba1 Sb1 112.700(3) 25 30
Sn1 Ba1 Sb1 129.482(7) 5 30
Sn1 Ba1 Sb1 112.700(3) 25 30
Sb1 Ba1 Sb1 129.482(7) 5 30
Sb1 Ba1 Sb1 50.518(7) 29 30
Sb1 Ba1 Sb1 67.300(2) 33 30
Sb1 Ba1 Sb1 112.700(2) 9 30
Sn1 Ba1 Sb1 112.700(2) 34 30
Sn1 Ni1 Sn1 180.0 45 9
Sn1 Ni1 Sn1 96.291(7) 45 41
Sn1 Ni1 Sn1 83.709(7) 9 41
Sn1 Ni1 Sb1 96.291(7) 45 37
Sn1 Ni1 Sb1 83.709(7) 9 37
Sn1 Ni1 Sb1 96.291(7) 41 37
Sn1 Ni1 Sb1 83.709(7) 45 5
Sn1 Ni1 Sb1 96.291(7) 9 5
Sn1 Ni1 Sb1 180.0 41 5
Sb1 Ni1 Sb1 83.709(7) 37 5
Sn1 Ni1 Sb1 96.291(7) 45 41
Sn1 Ni1 Sb1 83.709(7) 9 41
Sn1 Ni1 Sb1 0.000(13) 41 41
Sb1 Ni1 Sb1 96.291(7) 37 41
Sb1 Ni1 Sb1 180.0 5 41
Sn1 Ni1 Sb1 180.0 45 9
Sn1 Ni1 Sb1 0.000(13) 9 9
Sn1 Ni1 Sb1 83.709(7) 41 9
Sb1 Ni1 Sb1 83.709(7) 37 9
Sb1 Ni1 Sb1 96.291(7) 5 9
Sb1 Ni1 Sb1 83.709(7) 41 9
Sn1 Ni1 Sb1 0.000(10) 45 45
Sn1 Ni1 Sb1 180.0 9 45
Sn1 Ni1 Sb1 96.291(7) 41 45
Sb1 Ni1 Sb1 96.291(7) 37 45
Sb1 Ni1 Sb1 83.709(7) 5 45
Sb1 Ni1 Sb1 96.291(7) 41 45
Sb1 Ni1 Sb1 180.0 9 45
Sn1 Ni1 Sn1 96.291(7) 45 37
Sn1 Ni1 Sn1 83.709(7) 9 37
Sn1 Ni1 Sn1 96.291(7) 41 37
Sb1 Ni1 Sn1 0.000(13) 37 37
Sb1 Ni1 Sn1 83.709(7) 5 37
Sb1 Ni1 Sn1 96.291(7) 41 37
Sb1 Ni1 Sn1 83.709(7) 9 37
Sb1 Ni1 Sn1 96.291(7) 45 37
Sn1 Ni1 Sn1 83.709(7) 45 5
Sn1 Ni1 Sn1 96.291(7) 9 5
Sn1 Ni1 Sn1 180.0 41 5
Sb1 Ni1 Sn1 83.709(7) 37 5
Sb1 Ni1 Sn1 0.000(9) 5 5
Sb1 Ni1 Sn1 180.0 41 5
Sb1 Ni1 Sn1 96.291(7) 9 5
Sb1 Ni1 Sn1 83.709(7) 45 5
Sn1 Ni1 Sn1 83.709(7) 37 5
Sn1 Ni1 Sb1 83.709(7) 45 .
Sn1 Ni1 Sb1 96.291(7) 9 .
Sn1 Ni1 Sb1 83.708(7) 41 .
Sb1 Ni1 Sb1 180.0 37 .
Sb1 Ni1 Sb1 96.292(7) 5 .
Sb1 Ni1 Sb1 83.708(7) 41 .
Sb1 Ni1 Sb1 96.291(7) 9 .
Sb1 Ni1 Sb1 83.709(7) 45 .
Sn1 Ni1 Sb1 180.0 37 .
Sn1 Ni1 Sb1 96.292(7) 5 .
Ni1 Sb1 Ni1 125.991(9) 16_455 .
Ni1 Sb1 Sn1 108.949(5) 16_455 26_556
Ni1 Sb1 Sn1 108.948(5) . 26_556
Ni1 Sb1 Sb1 108.949(5) 16_455 26_556
Ni1 Sb1 Sb1 108.948(5) . 26_556
Sn1 Sb1 Sb1 0.000(9) 26_556 26_556
Ni1 Sb1 Sn1 108.504(5) 16_455 2
Ni1 Sb1 Sn1 108.504(5) . 2
Sn1 Sb1 Sn1 90.0 26_556 2
Sb1 Sb1 Sn1 90.0 26_556 2
Ni1 Sb1 Sb1 108.504(5) 16_455 2
Ni1 Sb1 Sb1 108.504(5) . 2
Sn1 Sb1 Sb1 90.0 26_556 2
Sb1 Sb1 Sb1 90.0 26_556 2
Sn1 Sb1 Sb1 0.000(9) 2 2
Ni1 Sb1 Ba1 80.895(5) 16_455 .
Ni1 Sb1 Ba1 80.895(5) . .
Sn1 Sb1 Ba1 154.740(4) 26_556 .
Sb1 Sb1 Ba1 154.740(4) 26_556 .
Sn1 Sb1 Ba1 64.740(4) 2 .
Sb1 Sb1 Ba1 64.740(4) 2 .
loop_
_geom_bond_atom_site_label_1
_geom_bond_atom_site_label_2
_geom_bond_distance
_geom_bond_site_symmetry_2
Ba1 Sn1 3.4621(2) 33
Ba1 Sn1 3.4621(2) 9
Ba1 Sn1 3.4621(2) 29
Ba1 Sb1 3.4621(2) 25
Ba1 Sn1 3.4621(2) 5
Ba1 Sn1 3.4621(2) 25
Ba1 Sb1 3.4621(2) 5
Ba1 Sb1 3.4621(2) 29
Ba1 Sb1 3.4621(2) 33
Ba1 Sb1 3.4621(2) 9
Ba1 Sn1 3.4621(2) 34
Ba1 Sb1 3.4621(2) 30
Ni1 Sn1 2.57559(11) 45
Ni1 Sn1 2.57559(11) 9
Ni1 Sn1 2.57559(11) 41
Ni1 Sb1 2.57559(11) 37
Ni1 Sb1 2.57559(11) 5
Ni1 Sb1 2.57559(11) 41
Ni1 Sb1 2.57559(11) 9
Ni1 Sb1 2.57559(11) 45
Ni1 Sn1 2.57559(11) 37
Ni1 Sn1 2.57559(11) 5
Ni1 Sb1 2.57559(12) .
Sb1 Ni1 2.57559(11) 16_455
Sb1 Sn1 2.9169(5) 26_556
Sb1 Sb1 2.9169(5) 26_556
Sb1 Sn1 2.9546(4) 2
Sb1 Sb1 2.9546(4) 2
