#------------------------------------------------------------------------------
#$Date: 2016-08-07 11:58:26 +0300 (Sun, 07 Aug 2016) $
#$Revision: 185390 $
#$URL: file:///home/coder/svn-repositories/cod/cif/7/03/96/7039605.cif $
#------------------------------------------------------------------------------
#
# This file is available in the Crystallography Open Database (COD),
# http://www.crystallography.net/
#
# All data on this site have been placed in the public domain by the
# contributors.
#
data_7039605
loop_
_publ_author_name
'Paschinger, W.'
'Rogl, G.'
'Grytsiv, A.'
'Michor, H.'
'Heinrich, P. R.'
'M\"uller, H'
'Puchegger, S.'
'Klobes, B.'
'Hermann, R. P.'
'Reinecker, M.'
'Eisenmenger-Sitter, Ch'
'Broz, P.'
'Bauer, E.'
'Giester, G.'
'Zehetbauer, M.'
'Rogl, P. F.'
_publ_section_title
;
 Ba-filled Ni-Sb-Sn based skutterudites with anomalously high lattice
 thermal conductivity.
;
_journal_issue                   27
_journal_name_full
'Dalton transactions (Cambridge, England : 2003)'
_journal_page_first              11071
_journal_page_last               11100
_journal_paper_doi               10.1039/c6dt01298a
_journal_volume                  45
_journal_year                    2016
_chemical_formula_sum            'Ba1.98 Ni8 Sb12.24 Sn11.76'
_chemical_formula_weight         3627.63
_chemical_name_systematic
;
 ?
;
_space_group_crystal_system      cubic
_space_group_IT_number           204
_space_group_name_Hall           '-I 2 2 3'
_space_group_name_H-M_alt        'I m -3'
_symmetry_space_group_name_Hall  '-I 2 2 3'
_symmetry_space_group_name_H-M   'I m -3'
_audit_creation_method           SHELXL-2013
_cell_angle_alpha                90
_cell_angle_beta                 90
_cell_angle_gamma                90
_cell_formula_units_Z            1
_cell_length_a                   9.1961(2)
_cell_length_b                   9.1961(2)
_cell_length_c                   9.1961(2)
_cell_measurement_temperature    200(2)
_cell_volume                     777.70(3)
_computing_structure_refinement  'SHELXL-2013 (Sheldrick, 2013)'
_diffrn_ambient_temperature      200(2)
_diffrn_measured_fraction_theta_full 0.993
_diffrn_measured_fraction_theta_max 0.989
_diffrn_radiation_type           MoK\a
_diffrn_radiation_wavelength     0.71069
_diffrn_reflns_av_R_equivalents  0.0107
_diffrn_reflns_av_unetI/netI     0.0121
_diffrn_reflns_Laue_measured_fraction_full 0.993
_diffrn_reflns_Laue_measured_fraction_max 0.989
_diffrn_reflns_limit_h_max       10
_diffrn_reflns_limit_h_min       -10
_diffrn_reflns_limit_k_max       15
_diffrn_reflns_limit_k_min       -15
_diffrn_reflns_limit_l_max       10
_diffrn_reflns_limit_l_min       -10
_diffrn_reflns_number            618
_diffrn_reflns_point_group_measured_fraction_full 0.993
_diffrn_reflns_point_group_measured_fraction_max 0.989
_diffrn_reflns_theta_full        25.240
_diffrn_reflns_theta_max         36.234
_diffrn_reflns_theta_min         3.133
_exptl_absorpt_coefficient_mu    26.816
_exptl_crystal_density_diffrn    7.746
_exptl_crystal_F_000             1547
_exptl_crystal_size_max          0.100
_exptl_crystal_size_mid          0.070
_exptl_crystal_size_min          0.040
_refine_diff_density_max         1.241
_refine_diff_density_min         -1.381
_refine_diff_density_rms         0.239
_refine_ls_extinction_coef       0.00389(14)
_refine_ls_extinction_expression Fc^*^=kFc[1+0.001xFc^2^\l^3^/sin(2\q)]^-1/4^
_refine_ls_extinction_method     SHELXL
_refine_ls_goodness_of_fit_ref   1.324
_refine_ls_hydrogen_treatment    undef
_refine_ls_matrix_type           full
_refine_ls_number_parameters     12
_refine_ls_number_reflns         357
_refine_ls_number_restraints     0
_refine_ls_restrained_S_all      1.324
_refine_ls_R_factor_all          0.0176
_refine_ls_R_factor_gt           0.0170
_refine_ls_shift/su_max          0.045
_refine_ls_shift/su_mean         0.014
_refine_ls_structure_factor_coef Fsqd
_refine_ls_weighting_details
;
 w=1/[\s^2^(Fo^2^)+(0.0139P)^2^+6.1587P]
 where P=(Fo^2^+2Fc^2^)/3
;
_refine_ls_weighting_scheme      calc
_refine_ls_wR_factor_gt          0.0415
_refine_ls_wR_factor_ref         0.0416
_reflns_Friedel_coverage         0.000
_reflns_number_gt                352
_reflns_number_total             357
_reflns_threshold_expression     'I > 2\s(I)'
_cod_data_source_file            c6dt01298a2.cif
_cod_data_source_block           bani4sb6sn6_200k
_cod_depositor_comments
'Adding full bibliography for 7039602--7039607.cif.'
_cod_original_cell_volume        777.70(5)
_cod_database_code               7039605
_shelx_space_group_comment
;
The symmetry employed for this shelxl refinement is uniquely defined
by the following loop, which should always be used as a source of
symmetry information in preference to the above space-group names.
They are only intended as comments.
;
_shelx_estimated_absorpt_t_min   0.175
_shelx_estimated_absorpt_t_max   0.413
_shelxl_version_number           2013-2
_shelx_res_file
;
TITL  bani4sb6sn6_
REM  BaNi4Sb12Sn12
CELL 0.71069     9.1961   9.1961   9.1961  90.000  90.000  90.000
ZERR     1  0.00020  0.00020  0.00020  0.00000  0.00000  0.00000
REM SG 204 48 24 Im-3 I2/m-3 PGm3bar cubic
LATT 2
REM SG  ORGN  at Inv.cen. m-3
SYMM -X,-Y,Z
SYMM -X,Y,-Z
SYMM X,-Y,-Z
SYMM Z,X,Y
SYMM Z,-X,-Y
SYMM -Z,-X,Y
SYMM -Z,X,-Y
SYMM Y,Z,X
SYMM -Y,Z,-X
SYMM Y,-Z,-X
SYMM -Y,-Z,X
SFAC  BA  NI  SB   SN
UNIT      1.98    8   12.24   11.76
SIZE    0.100  0.070  0.040
TEMP     -73.15
L.S. 1
ACTA
BOND
FMAP 2
PLAN 20
EXYZ   SB1 SN1
EADP   SB1 SN1
WGHT    0.013900    6.158700
EXTI    0.003894
FVAR       0.14035   0.98924
BA1   1    0.000000    0.000000    0.000000    20.04167    0.00589    0.00589 =
         0.00589    0.00000    0.00000    0.00000
NI1   2    0.250000    0.250000    0.250000    10.16667    0.00495    0.00495 =
         0.00495    0.00065    0.00065    0.00065
SB1   3    0.000000    0.162516    0.342412    10.25500    0.00424    0.00617 =
         0.00509    0.00002    0.00000    0.00000
SN1   4    0.000000    0.162516    0.342412    10.24500    0.00424    0.00617 =
         0.00509    0.00002    0.00000    0.00000
HKLF 4  1.0  0 1 0  1 0 0  0 0 -1

REM   bani4sb6sn6_
REM R1 =  0.0170 for     352 Fo > 4sig(Fo)  and  0.0176 for all     357 data
REM     12 parameters refined using      0 restraints

END

WGHT      0.0138      6.5380

REM Highest difference peak  1.241,  deepest hole -1.381,  1-sigma level  0.239
Q1    1   0.0000  0.2444  0.3350  10.50000  0.05    1.24
Q2    1   0.0000  0.0000  0.3212  10.25000  0.05    1.19
Q3    1   0.0000  0.0000  0.0861  10.25000  0.05    1.13
Q4    1   0.0000  0.1652  0.4181  10.50000  0.05    1.07
Q5    1   0.0770  0.1688  0.3499  11.00000  0.05    0.89
Q6    1   0.3396  0.1728  0.1765  11.00000  0.05    0.88
Q7    1   0.0000  0.0786  0.3386  10.50000  0.05    0.88
Q8    1   0.0000  0.3314  0.3319  10.50000  0.05    0.76
Q9    1   0.0000  0.1632  0.5000  10.25000  0.05    0.75
Q10   1   0.1089  0.1057  0.0000  10.50000  0.05    0.71
Q11   1   0.0000  0.1640  0.2751  10.50000  0.05    0.66
Q12   1   0.0000  0.2699  0.1744  10.50000  0.05    0.64
Q13   1   0.3339  0.2317  0.2533  11.00000  0.05    0.64
Q14   1   0.2835  0.3892  0.1521  11.00000  0.05    0.62
Q15   1   0.0000  0.3379  0.4345  10.50000  0.05    0.61
Q16   1   0.0541  0.2796  0.2434  11.00000  0.05    0.57
Q17   1   0.1440  0.3447  0.2332  11.00000  0.05    0.56
Q18   1   0.1196  0.0000  0.3397  10.50000  0.05    0.55
Q19   1   0.0000  0.0414  0.3972  10.50000  0.05    0.54
Q20   1   0.0000  0.2298  0.1337  10.50000  0.05    0.54
;
_shelx_res_checksum              65804
_shelx_hkl_file
;
   1   1   0    5.00    0.10   1
   2   0   0   60.90    0.60   1
   2   1   1    5.20    0.10   1
  -2  -1  -1    5.40    0.10   1
   2   2   0   71.80    0.50   1
   2   2   2  131.60    1.50   1
  -2  -2  -2  127.90    1.50   1
   3   0   1 5363.90   29.60   1
   3   1   0 1001.60    5.70   1
   3   1   2 2830.50   15.10   1
  -3  -1  -2 2795.20   14.50   1
   3   2   1   59.20    0.50   1
  -3  -2  -1   56.10    0.50   1
   3   3   0  828.70    4.80   1
   3   3   2  858.70    4.70   1
  -3  -3  -2  845.30    4.80   1
   4   0   0  561.70    4.60   1
   4   0   2 1971.40   11.30   1
   4   1   1    6.40    0.20   1
  -4  -1  -1    6.10    0.20   1
   4   1   3   21.00    0.30   1
  -4  -1  -3   21.40    0.30   1
   4   2   0 1347.00    7.80   1
   4   2   2 2869.00   15.30   1
  -4  -2  -2 2832.30   15.00   1
   4   3   1 3485.30   19.40   1
  -4  -3  -1 3491.60   19.20   1
   4   3   3  461.20    2.90   1
  -4  -3  -3  458.90    3.00   1
   4   4   0    4.10    0.20   1
   4   4   2  557.30    3.50   1
  -4  -4  -2  546.70    3.60   1
   4   4   4 3420.10   38.60   1
  -4  -4  -4 3269.40   39.70   1
   5   0   1  186.70    1.30   1
   5   0   3  440.80    2.70   1
   5   1   0    2.00    0.10   1
   5   1   2   91.20    0.70   1
  -5  -1  -2   88.90    0.70   1
   5   1   4   54.20    0.60   1
  -5  -1  -4   56.40    0.60   1
   5   2   1    3.80    0.20   1
  -5  -2  -1    3.90    0.20   1
   5   2   3 1485.30    8.50   1
  -5  -2  -3 1466.20    9.40   1
   5   3   0 3514.30   18.90   1
   5   3   2   11.90    0.20   1
  -5  -3  -2   12.00    0.30   1
   5   3   4  113.80    1.00   1
  -5  -3  -4  109.90    1.20   1
   5   4   1   30.40    0.50   1
  -5  -4  -1   30.00    0.50   1
   5   4   3 1967.90   13.30   1
  -5  -4  -3 1889.10   13.30   1
   5   5   0  116.90    1.20   1
   5   5   2   20.70    0.40   1
  -5  -5  -2   19.40    0.50   1
   5   5   4    5.50    0.20   1
  -5  -5  -4    6.10    0.40   1
   6   0   0 5833.40   46.30   1
   6   0   2  929.10    5.80   1
   6   0   4  324.60    2.50   1
   6   1   1    6.50    0.20   1
  -6  -1  -1    6.60    0.30   1
   6   1   3 4287.20   26.50   1
  -6  -1  -3 4232.40   26.60   1
   6   1   5   97.00    1.10   1
  -6  -1  -5   99.20    1.00   1
   6   2   0 1035.40    6.40   1
   6   2   2  863.00    5.90   1
  -6  -2  -2  850.10    5.60   1
   6   2   4    4.30    0.30   1
  -6  -2  -4    4.20    0.20   1
   6   3   1  491.60    3.40   1
  -6  -3  -1  486.30    3.40   1
   6   3   3  447.20    3.20   1
  -6  -3  -3  428.20    3.50   1
   6   3   5  210.30    1.80   1
  -6  -3  -5  204.70    2.00   1
   6   4   0  264.70    2.30   1
   6   4   2   34.60    0.50   1
  -6  -4  -2   31.60    0.50   1
   6   4   4  882.70    6.20   1
  -6  -4  -4  867.40    6.70   1
   6   5   1    3.50    0.30   1
  -6  -5  -1    2.60    0.30   1
   6   5   3 2398.40   18.30   1
  -6  -5  -3 2348.90   16.90   1
   6   5   5   65.50    1.00   1
  -6  -5  -5   66.10    1.10   1
   6   6   0 7121.00   50.70   1
   6   6   2   18.80    0.50   1
  -6  -6  -2   16.00    0.50   1
   6   6   4  153.10    1.80   1
  -6  -6  -4  158.90    2.00   1
   6   6   6 3098.30   47.30   1
  -6  -6  -6 3028.00   47.00   1
   7   0   1  126.80    1.20   1
   7   0   3  701.50    5.00   1
   7   0   5   65.20    0.90   1
   7   1   0    5.60    0.20   1
   7   1   2   22.20    0.50   1
  -7  -1  -2   21.60    0.50   1
   7   1   4   57.90    0.80   1
  -7  -1  -4   58.00    0.80   1
   7   1   6    5.10    0.40   1
  -7  -1  -6    5.00    0.40   1
   7   2   1    8.40    0.30   1
  -7  -2  -1    7.60    0.30   1
   7   2   3 2159.20   15.00   1
  -7  -2  -3 2110.30   14.40   1
   7   2   5   86.60    1.10   1
  -7  -2  -5   85.30    1.10   1
   7   3   0 5067.60   35.30   1
   7   3   2  119.00    1.30   1
  -7  -3  -2  114.50    1.10   1
   7   3   4    4.60    0.30   1
  -7  -3  -4    4.10    0.40   1
   7   3   6 3634.40   29.40   1
  -7  -3  -6 3590.00   29.20   1
   7   4   1    2.40    0.20   1
  -7  -4  -1    3.40    0.30   1
   7   4   3 2824.70   19.90   1
  -7  -4  -3 2724.90   20.70   1
   7   4   5   68.50    1.00   1
  -7  -4  -5   68.30    1.10   1
   7   5   0  108.40    1.30   1
   7   5   2   22.20    0.50   1
  -7  -5  -2   23.00    0.50   1
   7   5   4   68.40    1.10   1
  -7  -5  -4   68.00    1.10   1
   7   5   6   63.80    1.20   1
  -7  -5  -6   66.30    1.40   1
   7   6   1   86.70    1.30   1
  -7  -6  -1   83.30    1.30   1
   7   6   3  391.30    3.90   1
  -7  -6  -3  397.90    4.10   1
   7   6   5   45.30    1.00   1
  -7  -6  -5   47.20    1.20   1
   7   7   0   89.10    1.40   1
   7   7   2   10.90    0.50   1
  -7  -7  -2    9.70    0.70   1
   7   7   4   20.10    0.70   1
  -7  -7  -4   18.00    0.80   1
   7   7   6   77.10    1.50   1
  -7  -7  -6   75.10    1.90   1
   8   0   0 1669.70   16.90   1
   8   0   2  347.80    2.90   1
   8   0   4   87.50    1.20   1
   8   0   6   97.80    1.70   1
   8   1   1   13.40    0.40   1
  -8  -1  -1   14.10    0.40   1
   8   1   3  186.20    1.90   1
  -8  -1  -3  186.90    1.90   1
   8   1   5    8.20    0.50   1
  -8  -1  -5    7.60    0.50   1
   8   1   7   10.60    0.60   1
  -8  -1  -7    9.30    0.70   1
   8   2   0  684.40    5.00   1
   8   2   2  962.00    7.90   1
  -8  -2  -2  953.80    6.80   1
   8   2   4   38.00    0.70   1
  -8  -2  -4   39.70    0.80   1
   8   2   6   11.40    0.50   1
  -8  -2  -6   10.70    0.60   1
   8   3   1  792.10    6.20   1
  -8  -3  -1  787.30    6.00   1
   8   3   3  607.00    5.00   1
  -8  -3  -3  600.10    5.00   1
   8   3   5  377.90    3.70   1
  -8  -3  -5  360.10    4.00   1
   8   3   7  711.60    7.50   1
  -8  -3  -7  714.30    7.80   1
   8   4   0   20.50    0.50   1
   8   4   2   38.80    0.70   1
  -8  -4  -2   40.20    0.70   1
   8   4   4 1190.90   10.40   1
  -8  -4  -4 1162.90   10.20   1
   8   4   6  643.00    6.50   1
  -8  -4  -6  633.60    6.30   1
   8   5   1   57.70    1.00   1
  -8  -5  -1   56.10    1.00   1
   8   5   3   21.60    0.70   1
  -8  -5  -3   21.00    0.60   1
   8   5   5   29.60    0.90   1
  -8  -5  -5   26.20    0.90   1
   8   5   7   46.30    1.30   1
  -8  -5  -7   46.20    1.30   1
   8   6   0   72.80    1.20   1
   8   6   2   95.30    1.50   1
  -8  -6  -2   94.50    1.60   1
   8   6   4  200.80    2.60   1
  -8  -6  -4  198.90    2.70   1
   8   6   6  753.80    7.80   1
  -8  -6  -6  756.40    8.90   1
   8   7   1    0.70    0.40   1
  -8  -7  -1    1.60    0.50   1
   8   7   3  259.90    3.20   1
  -8  -7  -3  255.60    3.30   1
   8   7   5    2.30    0.60   1
  -8  -7  -5    2.30    0.80   1
   8   7   7    2.70    0.70   1
  -8  -7  -7    1.20    0.80   1
   8   8   0   78.30    1.70   1
   8   8   2    1.00    0.60   1
  -8  -8  -2    0.90    0.70   1
   8   8   4  431.30    5.20   1
  -8  -8  -4  438.70    5.90   1
   8   8   6  100.20    2.00   1
  -8  -8  -6  101.30    2.60   1
   8   8   8  187.00    6.10   1
  -8  -8  -8  193.40    8.60   1
   9   0   1 3015.90   21.30   1
   9   0   3  413.30    3.90   1
   9   0   5 1622.80   14.30   1
   9   0   7 2676.20   24.70   1
   9   1   0  421.00    3.70   1
   9   1   2 1199.70   10.30   1
  -9  -1  -2 1189.40    9.00   1
   9   1   4 1601.70   13.80   1
  -9  -1  -4 1620.80   13.10   1
   9   1   6  246.20    3.10   1
  -9  -1  -6  248.90    3.20   1
   9   1   8  377.00    5.10   1
  -9  -1  -8  381.40    5.00   1
   9   2   1   28.40    0.70   1
  -9  -2  -1   29.10    0.70   1
   9   2   3  259.10    2.90   1
  -9  -2  -3  256.90    2.60   1
   9   2   5    3.60    0.40   1
  -9  -2  -5    4.80    0.70   1
   9   2   7   69.40    1.60   1
  -9  -2  -7   69.40    1.50   1
   9   3   0  191.90    2.10   1
   9   3   2  268.40    3.30   1
  -9  -3  -2  270.70    2.90   1
   9   3   4  151.10    2.10   1
  -9  -3  -4  151.70    2.00   1
   9   3   6  123.80    2.10   1
  -9  -3  -6  124.20    2.10   1
   9   3   8  263.20    4.10   1
  -9  -3  -8  270.40    3.90   1
   9   4   1    3.10    0.40   1
  -9  -4  -1    3.50    0.40   1
   9   4   3  131.00    1.90   1
  -9  -4  -3  133.10    1.90   1
   9   4   5   34.70    1.00   1
  -9  -4  -5   31.80    1.00   1
   9   4   7    2.50    0.70   1
  -9  -4  -7    2.30    0.70   1
   9   5   0  187.40    2.40   1
   9   5   2  629.70    6.40   1
  -9  -5  -2  636.30    6.20   1
   9   5   4  914.20    9.30   1
  -9  -5  -4  926.70    9.80   1
   9   5   6  117.80    2.30   1
  -9  -5  -6  111.50    2.30   1
   9   5   8  188.30    3.40   1
  -9  -5  -8  193.00    4.10   1
   9   6   1 2156.70   19.70   1
  -9  -6  -1 2147.10   19.30   1
   9   6   3  265.40    3.40   1
  -9  -6  -3  272.20    3.60   1
   9   6   5 1171.70   12.70   1
  -9  -6  -5 1163.00   12.90   1
   9   6   7 2055.60   22.70   1
  -9  -6  -7 2105.00   26.40   1
   9   7   0  408.50    5.20   1
   9   7   2 1076.70   11.30   1
  -9  -7  -2 1101.70   10.90   1
   9   7   4 1474.70   14.80   1
  -9  -7  -4 1467.60   16.00   1
   9   7   6  252.30    3.90   1
  -9  -7  -6  255.70    4.60   1
   9   7   8  371.30    6.90   1
  -9  -7  -8  379.50    7.70   1
   9   8   1  103.50    2.30   1
  -9  -8  -1  107.70    2.30   1
   9   8   3  285.20    4.40   1
  -9  -8  -3  292.70    4.40   1
   9   8   5   17.00    1.10   1
  -9  -8  -5   17.00    1.30   1
   9   8   7  143.60    3.20   1
  -9  -8  -7  146.70    4.20   1
   9   9   0  140.20    2.90   1
   9   9   2  110.10    2.60   1
  -9  -9  -2  117.20    2.60   1
   9   9   4   50.50    1.80   1
  -9  -9  -4   50.00    1.80   1
   9   9   6  103.40    2.90   1
  -9  -9  -6  109.40    3.30   1
   9   9   8  121.20    5.70   1
  -9  -9  -8  115.20    7.00   1
  10   0   0  373.20    5.30   1
  10   0   2   48.80    1.00   1
  10   0   4  760.60    7.40   1
  10   0   6   22.60    0.90   1
  10   0   8  657.40    8.60   1
  10   1   1    5.50    0.50   1
 -10  -1  -1    6.10    0.50   1
  10   1   3   53.20    1.10   1
 -10  -1  -3   52.30    1.10   1
  10   1   5   28.80    0.90   1
 -10  -1  -5   27.10    1.00   1
  10   1   7    3.20    1.00   1
 -10  -1  -7    2.40    0.70   1
  10   1   9   21.90    1.50   1
 -10  -1  -9   23.50    1.40   1
  10   2   0    6.80    0.50   1
  10   2   2  226.20    2.80   1
 -10  -2  -2  225.40    2.50   1
  10   2   4 1660.60   15.20   1
 -10  -2  -4 1680.80   14.60   1
  10   2   6  310.00    4.70   1
 -10  -2  -6  307.10    3.90   1
  10   2   8  606.00    9.00   1
 -10  -2  -8  620.20    8.20   1
  10   3   1 2173.40   20.20   1
 -10  -3  -1 2185.90   18.00   1
  10   3   3  133.70    2.10   1
 -10  -3  -3  137.60    2.00   1
  10   3   5 1245.60   13.30   1
 -10  -3  -5 1248.90   12.40   1
  10   3   7 1942.70   22.50   1
 -10  -3  -7 1956.50   20.10   1
  10   3   9   39.40    1.90   1
 -10  -3  -9   44.90    2.00   1
  10   4   0  610.40    6.00   1
  10   4   2 1689.40   16.60   1
 -10  -4  -2 1695.00   14.60   1
  10   4   4  614.40    7.20   1
 -10  -4  -4  630.90    7.30   1
  10   4   6    1.30    0.80   1
 -10  -4  -6    1.40    0.90   1
  10   4   8  106.40    2.70   1
 -10  -4  -8  104.20    2.90   1
  10   5   1   19.90    0.90   1
 -10  -5  -1   18.60    0.80   1
  10   5   3  111.30    1.90   1
 -10  -5  -3  111.60    2.00   1
  10   5   5    2.00    0.80   1
 -10  -5  -5    0.00    0.70   1
  10   5   7   33.80    1.70   1
 -10  -5  -7   38.50    2.00   1
  10   5   9   52.30    2.30   1
 -10  -5  -9   59.90    2.70   1
  10   6   0   11.30    0.80   1
  10   6   2  639.80    7.10   1
 -10  -6  -2  653.70    7.40   1
  10   6   4   13.00    0.90   1
 -10  -6  -4   14.80    1.10   1
  10   6   6  211.80    3.70   1
 -10  -6  -6  217.20    4.00   1
  10   6   8   37.40    1.80   1
 -10  -6  -8   37.90    2.20   1
  10   7   1   43.00    1.40   1
 -10  -7  -1   43.80    1.50   1
  10   7   3    9.70    0.90   1
 -10  -7  -3   12.30    1.10   1
  10   7   5   65.50    1.90   1
 -10  -7  -5   60.30    2.00   1
  10   7   7   19.10    1.50   1
 -10  -7  -7   20.60    1.80   1
  10   8   0  178.00    3.30   1
  10   8   2  616.50    8.00   1
 -10  -8  -2  634.50    8.70   1
  10   8   4  103.40    2.70   1
 -10  -8  -4  110.10    2.60   1
  10   8   6   21.50    1.50   1
 -10  -8  -6   21.80    1.90   1
  10   8   8    1.10    2.30   1
 -10  -8  -8   10.30    5.60   1
  10   9   1 1219.00   15.10   1
 -10  -9  -1 1228.30   15.20   1
  10   9   3   55.90    2.30   1
 -10  -9  -3   60.00    2.20   1
  10   9   5  703.10   13.30   1
 -10  -9  -5  717.10   13.90   1
  10   9   7 1147.90   36.10   1
 -10  -9  -7 1060.70   63.50   1
  10  10   0   19.10    1.50   1
  10  10   2  328.60    6.50   1
 -10 -10  -2  334.10    6.80   1
  10  10   4 1383.70   28.00   1
 -10 -10  -4 1410.90   28.40   1
  11   0   1  317.00    3.80   1
  11   0   3   78.10    1.50   1
  11   0   5  200.50    3.10   1
  11   0   7  254.50    4.40   1
  11   0   9   45.80    2.20   1
  11   1   0    1.30    0.50   1
  11   1   2  120.40    1.90   1
 -11  -1  -2  122.60    1.90   1
  11   1   4  108.80    1.90   1
 -11  -1  -4  111.80    2.00   1
  11   1   6    2.60    1.00   1
 -11  -1  -6    2.70    0.70   1
  11   1   8   70.20    2.40   1
 -11  -1  -8   68.60    2.30   1
  11   1  10   58.60    5.60   1
 -11  -1 -10   72.30    5.20   1
  11   2   1    5.60    0.60   1
 -11  -2  -1    6.70    0.50   1
  11   2   3  321.10    4.10   1
 -11  -2  -3  332.10    3.80   1
  11   2   5    2.40    0.80   1
 -11  -2  -5    1.20    0.70   1
  11   2   7   18.80    1.40   1
 -11  -2  -7   16.30    1.10   1
  11   2   9  180.30    4.40   1
 -11  -2  -9  180.60    4.70   1
  11   3   0  941.60    9.70   1
  11   3   2   64.30    1.40   1
 -11  -3  -2   62.50    1.40   1
  11   3   4  127.60    2.30   1
 -11  -3  -4  129.00    2.40   1
  11   3   6  664.10    9.20   1
 -11  -3  -6  662.00    8.00   1
  11   3   8    8.10    1.30   1
 -11  -3  -8    7.00    1.30   1
  11   3  10  115.50   13.20   1
  11   4   1   31.20    1.10   1
 -11  -4  -1   30.60    1.10   1
  11   4   3  518.60    6.60   1
 -11  -4  -3  534.50    6.60   1
  11   4   5    6.50    1.00   1
 -11  -4  -5    5.60    1.00   1
  11   4   7   48.10    2.00   1
 -11  -4  -7   47.90    1.80   1
  11   4   9  271.50    7.60   1
 -11  -4  -9  278.70   10.00   1
  11   5   0   34.30    1.20   1
  11   5   2   45.80    1.40   1
 -11  -5  -2   43.80    1.40   1
  11   5   4   34.30    1.40   1
 -11  -5  -4   29.00    1.30   1
  11   5   6   24.00    1.50   1
 -11  -5  -6   26.30    1.60   1
  11   5   8   33.80    2.00   1
 -11  -5  -8   28.00    2.00   1
  11   6   1  214.20    3.50   1
 -11  -6  -1  219.80    3.70   1
  11   6   3   44.60    1.50   1
 -11  -6  -3   45.80    1.60   1
  11   6   5  149.00    3.10   1
 -11  -6  -5  149.30    3.40   1
  11   6   7  164.70    4.20   1
 -11  -6  -7  165.80    4.70   1
  11   7   0   17.40    1.10   1
  11   7   2  122.50    2.60   1
 -11  -7  -2  128.50    3.00   1
  11   7   4  132.60    3.40   1
 -11  -7  -4  142.40    3.20   1
  11   7   6   15.20    1.50   1
 -11  -7  -6   17.20    1.70   1
  11   8   1    1.30    1.00   1
 -11  -8  -1    3.60    1.10   1
  11   8   3   78.90    2.50   1
 -11  -8  -3   86.10    2.60   1
  11   8   5    7.10    1.30   1
 -11  -8  -5    5.30    1.20   1
  11   9   0  455.90    8.20   1
  11   9   2   26.40    1.80   1
 -11  -9  -2   22.80    1.70   1
  11   9   4   64.90    4.30   1
 -11  -9  -4   63.50    3.70   1
  11  10   1   42.50    4.60   1
 -11 -10  -1   32.30    4.70   1
 -11 -10  -3  387.00   29.70   1
  12   0   0 4605.80   56.10   1
  12   0   2   30.80    1.10   1
  12   0   4   35.80    1.20   1
  12   0   6 1882.70   24.30   1
  12   0   8  355.80    7.10   1
  12   1   1    6.10    0.70   1
 -12  -1  -1    5.50    0.70   1
  12   1   3 1754.80   17.50   1
 -12  -1  -3 1787.70   16.80   1
  12   1   5   23.80    1.40   1
 -12  -1  -5   20.10    1.00   1
  12   1   7   48.20    2.20   1
 -12  -1  -7   47.20    2.20   1
  12   1   9  979.50   56.90   1
 -12  -1  -9 1123.20   63.10   1
  12   2   0    3.20    0.70   1
  12   2   2   21.40    1.10   1
 -12  -2  -2   20.60    1.00   1
  12   2   4  327.10    5.00   1
 -12  -2  -4  339.50    4.40   1
  12   2   6  234.40    4.50   1
 -12  -2  -6  237.90    4.20   1
  12   2   8   60.80    2.50   1
 -12  -2  -8   61.30    2.90   1
  12   3   1   85.60    1.90   1
 -12  -3  -1   89.40    1.90   1
  12   3   3  131.60    2.50   1
 -12  -3  -3  133.60    2.70   1
  12   3   5   37.70    1.60   1
 -12  -3  -5   33.60    1.40   1
  12   3   7   94.00    3.10   1
 -12  -3  -7   87.10    2.60   1
  12   4   0  102.70    2.30   1
  12   4   2  183.60    3.10   1
 -12  -4  -2  182.70    3.30   1
  12   4   4    3.20    0.90   1
 -12  -4  -4    4.90    1.00   1
  12   4   6   57.90    2.30   1
 -12  -4  -6   60.30    2.10   1
  12   4   8   38.70    3.40   1
 -12  -4  -8   42.20    3.80   1
  12   5   1    2.00    0.80   1
 -12  -5  -1    3.30    0.90   1
  12   5   3  966.60   12.30   1
 -12  -5  -3  982.10   11.60   1
  12   5   5   18.70    1.60   1
 -12  -5  -5   17.00    1.50   1
  12   5   7   25.70    2.00   1
 -12  -5  -7   21.30    2.60   1
  12   6   0 1924.20   21.40   1
  12   6   2  160.10    3.40   1
 -12  -6  -2  155.70    3.20   1
  12   6   4  115.30    3.30   1
 -12  -6  -4  118.90    3.10   1
  12   6   6 2673.20   45.00   1
 -12  -6  -6 2670.40   44.00   1
  12   7   1    8.40    1.10   1
 -12  -7  -1    6.90    1.30   1
  12   7   3 1734.80   27.60   1
 -12  -7  -3 1774.10   25.30   1
  12   7   5   12.90    1.90   1
 -12  -7  -5   15.30    2.00   1
  12   8   0  512.30    9.50   1
  12   8   2  161.30    4.10   1
 -12  -8  -2  159.70    4.20   1
  12   8   4    1.20    2.90   1
 -12  -8  -4    3.60    4.50   1
  12   9   1   68.80    6.40   1
 -12  -9  -1   60.90    5.20   1
  13   0   1  102.90    2.30   1
  13   0   3  333.20    5.20   1
  13   0   5   56.00    2.20   1
  13   0   7   93.50    4.10   1
  13   1   0    2.00    0.80   1
  13   1   2   22.60    1.10   1
 -13  -1  -2   18.90    1.20   1
  13   1   4   49.20    1.90   1
 -13  -1  -4   47.10    1.80   1
  13   1   6    4.30    1.40   1
 -13  -1  -6    3.70    1.30   1
  13   2   1    3.90    0.80   1
 -13  -2  -1    3.30    0.90   1
  13   2   3 1112.10   12.90   1
 -13  -2  -3 1109.80   13.40   1
  13   2   5   32.50    1.80   1
 -13  -2  -5   37.10    1.60   1
  13   2   7    7.70    2.10   1
 -13  -2  -7    2.50    2.30   1
  13   3   0 2830.70   31.40   1
  13   3   2   67.90    2.10   1
 -13  -3  -2   73.90    2.00   1
  13   3   4    8.40    1.10   1
 -13  -3  -4    5.80    1.10   1
  13   3   6 2187.80   36.10   1
 -13  -3  -6 2233.70   34.60   1
  13   4   1    2.30    1.00   1
 -13  -4  -1    4.90    1.00   1
  13   4   3 1483.70   20.70   1
 -13  -4  -3 1538.30   21.20   1
  13   4   5   37.70    1.90   1
 -13  -4  -5   39.00    1.80   1
  13   5   0   46.10    1.90   1
  13   5   2   20.90    1.60   1
 -13  -5  -2   23.40    1.60   1
  13   5   4   49.40    2.20   1
 -13  -5  -4   50.20    2.20   1
  13   6   1   84.30    3.00   1
 -13  -6  -1   85.80    3.00   1
  13   6   3  208.60    5.40   1
 -13  -6  -3  214.10    5.10   1
  13   6   5   55.90    7.90   1
 -13  -6  -5   38.40    8.10   1
  13   7   0   51.60    3.40   1
  13   7   2   15.80    3.70   1
 -13  -7  -2   17.40    2.90   1
  13   7   4   26.70    6.60   1
  14   0   0  266.50    7.20   1
  14   0   2   99.70    2.90   1
  14   0   4   46.30    2.40   1
  14   1   1   11.50    1.30   1
 -14  -1  -1    8.90    1.30   1
  14   1   3  188.40    4.50   1
 -14  -1  -3  178.50    5.10   1
  14   1   5    9.00    2.60   1
 -14  -1  -5   16.20    2.70   1
  14   2   0    3.10    1.20   1
  14   2   2    3.60    1.10   1
 -14  -2  -2    5.20    1.30   1
  14   2   4  238.50    5.60   1
 -14  -2  -4  237.20    7.10   1
  14   3   1  110.40    3.20   1
 -14  -3  -1  105.70    3.20   1
  14   3   3  353.10    7.10   1
 -14  -3  -3  350.90    7.20   1
  14   3   5   40.80    7.40   1
 -14  -3  -5   31.00    4.90   1
  14   4   0  414.00    8.30   1
  14   4   2  245.20    6.20   1
 -14  -4  -2  242.70    5.60   1
 -14  -4  -4    1.20    4.10   1
  14   5   1   25.30    3.30   1
 -14  -5  -1   22.40    2.60   1
 -14  -5  -3   56.80    9.50   1
  14   6   0  762.10   48.00   1
  15   0   1  914.70   23.70   1
  15   1   0  162.80    7.10   1
  15   1   2  360.30   25.60   1
 -15  -1  -2  327.90   23.40   1
 -15  -2  -1    7.40    4.80   1
   0   0   0
;
_shelx_hkl_checksum              78245
loop_
_space_group_symop_operation_xyz
'x, y, z'
'-x, -y, z'
'-x, y, -z'
'x, -y, -z'
'z, x, y'
'z, -x, -y'
'-z, -x, y'
'-z, x, -y'
'y, z, x'
'-y, z, -x'
'y, -z, -x'
'-y, -z, x'
'x+1/2, y+1/2, z+1/2'
'-x+1/2, -y+1/2, z+1/2'
'-x+1/2, y+1/2, -z+1/2'
'x+1/2, -y+1/2, -z+1/2'
'z+1/2, x+1/2, y+1/2'
'z+1/2, -x+1/2, -y+1/2'
'-z+1/2, -x+1/2, y+1/2'
'-z+1/2, x+1/2, -y+1/2'
'y+1/2, z+1/2, x+1/2'
'-y+1/2, z+1/2, -x+1/2'
'y+1/2, -z+1/2, -x+1/2'
'-y+1/2, -z+1/2, x+1/2'
'-x, -y, -z'
'x, y, -z'
'x, -y, z'
'-x, y, z'
'-z, -x, -y'
'-z, x, y'
'z, x, -y'
'z, -x, y'
'-y, -z, -x'
'y, -z, x'
'-y, z, x'
'y, z, -x'
'-x+1/2, -y+1/2, -z+1/2'
'x+1/2, y+1/2, -z+1/2'
'x+1/2, -y+1/2, z+1/2'
'-x+1/2, y+1/2, z+1/2'
'-z+1/2, -x+1/2, -y+1/2'
'-z+1/2, x+1/2, y+1/2'
'z+1/2, x+1/2, -y+1/2'
'z+1/2, -x+1/2, y+1/2'
'-y+1/2, -z+1/2, -x+1/2'
'y+1/2, -z+1/2, x+1/2'
'-y+1/2, z+1/2, x+1/2'
'y+1/2, z+1/2, -x+1/2'
loop_
_atom_site_label
_atom_site_type_symbol
_atom_site_fract_x
_atom_site_fract_y
_atom_site_fract_z
_atom_site_U_iso_or_equiv
_atom_site_adp_type
_atom_site_occupancy
_atom_site_site_symmetry_order
_atom_site_calc_flag
_atom_site_refinement_flags_posn
_atom_site_refinement_flags_adp
_atom_site_refinement_flags_occupancy
Ba1 Ba 0.0000 0.0000 0.0000 0.0059(2) Uani 0.989(5) 24 d S T P
Ni1 Ni 0.2500 0.2500 0.2500 0.00495(14) Uani 1 6 d S T P
Sb1 Sb 0.0000 0.16252(2) 0.34241(2) 0.00516(10) Uani 0.51 2 d S T P
Sn1 Sn 0.0000 0.16252(2) 0.34241(2) 0.00516(10) Uani 0.49 2 d S T P
loop_
_atom_site_aniso_label
_atom_site_aniso_U_11
_atom_site_aniso_U_22
_atom_site_aniso_U_33
_atom_site_aniso_U_23
_atom_site_aniso_U_13
_atom_site_aniso_U_12
Ba1 0.0059(2) 0.0059(2) 0.0059(2) 0.000 0.000 0.000
Ni1 0.00495(14) 0.00495(14) 0.00495(14) 0.00065(12) 0.00065(12) 0.00065(12)
Sb1 0.00424(12) 0.00617(12) 0.00509(12) 0.00002(6) 0.000 0.000
Sn1 0.00424(12) 0.00617(12) 0.00509(12) 0.00002(6) 0.000 0.000
loop_
_atom_type_symbol
_atom_type_description
_atom_type_scat_dispersion_real
_atom_type_scat_dispersion_imag
_atom_type_scat_source
Ba Ba -0.3244 2.2819 'International Tables Vol C Tables 4.2.6.8 and 6.1.1.4'
Ni Ni 0.3393 1.1124 'International Tables Vol C Tables 4.2.6.8 and 6.1.1.4'
Sb Sb -0.5866 1.5461 'International Tables Vol C Tables 4.2.6.8 and 6.1.1.4'
Sn Sn -0.6537 1.4246 'International Tables Vol C Tables 4.2.6.8 and 6.1.1.4'
loop_
_geom_angle_atom_site_label_1
_geom_angle_atom_site_label_2
_geom_angle_atom_site_label_3
_geom_angle
_geom_angle_site_symmetry_1
_geom_angle_site_symmetry_3
Sb1 Ba1 Sn1 180.0 . 25
Sb1 Ba1 Sb1 180.0 . 25
Sn1 Ba1 Sb1 0.000(3) 25 25
Sb1 Ba1 Sn1 112.791(3) . 33
Sn1 Ba1 Sn1 67.210(3) 25 33
Sb1 Ba1 Sn1 67.210(3) 25 33
Sb1 Ba1 Sn1 67.209(3) . 9
Sn1 Ba1 Sn1 112.790(3) 25 9
Sb1 Ba1 Sn1 112.790(3) 25 9
Sn1 Ba1 Sn1 180.0 33 9
Sb1 Ba1 Sb1 67.210(3) . 5
Sn1 Ba1 Sb1 112.790(3) 25 5
Sb1 Ba1 Sb1 112.790(3) 25 5
Sn1 Ba1 Sb1 112.790(3) 33 5
Sn1 Ba1 Sb1 67.210(3) 9 5
Sb1 Ba1 Sb1 112.790(3) . 29
Sn1 Ba1 Sb1 67.210(3) 25 29
Sb1 Ba1 Sb1 67.210(3) 25 29
Sn1 Ba1 Sb1 67.210(3) 33 29
Sn1 Ba1 Sb1 112.790(3) 9 29
Sb1 Ba1 Sb1 180.0 5 29
Sb1 Ba1 Sn1 112.790(3) . 29
Sn1 Ba1 Sn1 67.210(3) 25 29
Sb1 Ba1 Sn1 67.210(3) 25 29
Sn1 Ba1 Sn1 67.210(3) 33 29
Sn1 Ba1 Sn1 112.790(3) 9 29
Sb1 Ba1 Sn1 180.0 5 29
Sb1 Ba1 Sn1 0.000(7) 29 29
Sb1 Ba1 Sn1 67.210(3) . 5
Sn1 Ba1 Sn1 112.790(3) 25 5
Sb1 Ba1 Sn1 112.790(3) 25 5
Sn1 Ba1 Sn1 112.790(3) 33 5
Sn1 Ba1 Sn1 67.210(3) 9 5
Sb1 Ba1 Sn1 0.000(6) 5 5
Sb1 Ba1 Sn1 180.0 29 5
Sn1 Ba1 Sn1 180.0 29 5
Sb1 Ba1 Sb1 67.209(3) . 9
Sn1 Ba1 Sb1 112.790(3) 25 9
Sb1 Ba1 Sb1 112.790(3) 25 9
Sn1 Ba1 Sb1 180.0 33 9
Sn1 Ba1 Sb1 0.000(3) 9 9
Sb1 Ba1 Sb1 67.210(3) 5 9
Sb1 Ba1 Sb1 112.790(3) 29 9
Sn1 Ba1 Sb1 112.790(3) 29 9
Sn1 Ba1 Sb1 67.210(3) 5 9
Sb1 Ba1 Sb1 112.791(3) . 33
Sn1 Ba1 Sb1 67.210(3) 25 33
Sb1 Ba1 Sb1 67.210(3) 25 33
Sn1 Ba1 Sb1 0.000(3) 33 33
Sn1 Ba1 Sb1 180.0 9 33
Sb1 Ba1 Sb1 112.790(3) 5 33
Sb1 Ba1 Sb1 67.210(3) 29 33
Sn1 Ba1 Sb1 67.210(3) 29 33
Sn1 Ba1 Sb1 112.790(3) 5 33
Sb1 Ba1 Sb1 180.0 9 33
Sb1 Ni1 Sn1 83.201(6) . 45
Sb1 Ni1 Sb1 180.0 . 37
Sn1 Ni1 Sb1 96.800(6) 45 37
Sb1 Ni1 Sb1 96.800(6) . 5
Sn1 Ni1 Sb1 83.200(6) 45 5
Sb1 Ni1 Sb1 83.200(6) 37 5
Sb1 Ni1 Sb1 83.200(6) . 41
Sn1 Ni1 Sb1 96.800(6) 45 41
Sb1 Ni1 Sb1 96.800(6) 37 41
Sb1 Ni1 Sb1 180.0 5 41
Sb1 Ni1 Sb1 96.799(6) . 9
Sn1 Ni1 Sb1 180.0 45 9
Sb1 Ni1 Sb1 83.200(6) 37 9
Sb1 Ni1 Sb1 96.800(6) 5 9
Sb1 Ni1 Sb1 83.200(6) 41 9
Sb1 Ni1 Sb1 83.201(6) . 45
Sn1 Ni1 Sb1 0.000(9) 45 45
Sb1 Ni1 Sb1 96.800(6) 37 45
Sb1 Ni1 Sb1 83.200(6) 5 45
Sb1 Ni1 Sb1 96.800(6) 41 45
Sb1 Ni1 Sb1 180.0 9 45
Sb1 Ni1 Sn1 180.0 . 37
Sn1 Ni1 Sn1 96.800(6) 45 37
Sb1 Ni1 Sn1 0.000(13) 37 37
Sb1 Ni1 Sn1 83.200(6) 5 37
Sb1 Ni1 Sn1 96.800(6) 41 37
Sb1 Ni1 Sn1 83.200(6) 9 37
Sb1 Ni1 Sn1 96.800(6) 45 37
Sb1 Ni1 Sn1 96.800(6) . 5
Sn1 Ni1 Sn1 83.200(6) 45 5
Sb1 Ni1 Sn1 83.200(6) 37 5
Sb1 Ni1 Sn1 0.000(9) 5 5
Sb1 Ni1 Sn1 180.0 41 5
Sb1 Ni1 Sn1 96.800(6) 9 5
Sb1 Ni1 Sn1 83.200(6) 45 5
Sn1 Ni1 Sn1 83.200(6) 37 5
Sb1 Ni1 Sn1 83.200(6) . 41
Sn1 Ni1 Sn1 96.800(6) 45 41
Sb1 Ni1 Sn1 96.800(6) 37 41
Sb1 Ni1 Sn1 180.0 5 41
Sb1 Ni1 Sn1 0.000(13) 41 41
Sb1 Ni1 Sn1 83.200(6) 9 41
Sb1 Ni1 Sn1 96.800(6) 45 41
Sn1 Ni1 Sn1 96.800(6) 37 41
Sn1 Ni1 Sn1 180.0 5 41
Sb1 Ni1 Sn1 96.799(6) . 9
Sn1 Ni1 Sn1 180.0 45 9
Sb1 Ni1 Sn1 83.200(6) 37 9
Sb1 Ni1 Sn1 96.800(6) 5 9
Sb1 Ni1 Sn1 83.200(6) 41 9
Sb1 Ni1 Sn1 0.000(13) 9 9
Sb1 Ni1 Sn1 180.0 45 9
Sn1 Ni1 Sn1 83.200(6) 37 9
Sn1 Ni1 Sn1 96.800(6) 5 9
Sn1 Ni1 Sn1 83.200(6) 41 9
Ni1 Sb1 Ni1 126.047(9) 16_455 .
Ni1 Sb1 Sn1 109.234(4) 16_455 26_556
Ni1 Sb1 Sn1 109.234(4) . 26_556
Ni1 Sb1 Sb1 109.234(4) 16_455 26_556
Ni1 Sb1 Sb1 109.234(4) . 26_556
Sn1 Sb1 Sb1 0.000(9) 26_556 26_556
Ni1 Sb1 Sn1 108.171(5) 16_455 2
Ni1 Sb1 Sn1 108.171(5) . 2
Sn1 Sb1 Sn1 90.0 26_556 2
Sb1 Sb1 Sn1 90.0 26_556 2
Ni1 Sb1 Sb1 108.171(5) 16_455 2
Ni1 Sb1 Sb1 108.171(5) . 2
Sn1 Sb1 Sb1 90.0 26_556 2
Sb1 Sb1 Sb1 90.0 26_556 2
Sn1 Sb1 Sb1 0.000(8) 2 2
Ni1 Sb1 Ba1 80.567(5) 16_455 .
Ni1 Sb1 Ba1 80.567(5) . .
Sn1 Sb1 Ba1 154.610(4) 26_556 .
Sb1 Sb1 Ba1 154.610(4) 26_556 .
Sn1 Sb1 Ba1 64.610(4) 2 .
Sb1 Sb1 Ba1 64.610(4) 2 .
loop_
_geom_bond_atom_site_label_1
_geom_bond_atom_site_label_2
_geom_bond_distance
_geom_bond_site_symmetry_2
Ba1 Sb1 3.4855(2) .
Ba1 Sn1 3.4855(2) 25
Ba1 Sb1 3.4855(2) 25
Ba1 Sn1 3.4855(2) 33
Ba1 Sn1 3.4855(2) 9
Ba1 Sb1 3.4855(2) 5
Ba1 Sb1 3.4855(2) 29
Ba1 Sn1 3.4855(2) 29
Ba1 Sn1 3.4855(2) 5
Ba1 Sb1 3.4855(2) 9
Ba1 Sb1 3.4855(2) 33
Ni1 Sb1 2.57972(12) .
Ni1 Sn1 2.57974(12) 45
Ni1 Sb1 2.57974(12) 37
Ni1 Sb1 2.57974(12) 5
Ni1 Sb1 2.57974(12) 41
Ni1 Sb1 2.57974(12) 9
Ni1 Sb1 2.57974(12) 45
Ni1 Sn1 2.57974(12) 37
Ni1 Sn1 2.57974(12) 5
Ni1 Sn1 2.57974(12) 41
Ni1 Sn1 2.57974(12) 9
Sb1 Ni1 2.57972(12) 16_455
Sb1 Sn1 2.8984(4) 26_556
Sb1 Sb1 2.8984(4) 26_556
Sb1 Sn1 2.9890(4) 2
Sb1 Sb1 2.9890(4) 2
