#------------------------------------------------------------------------------
#$Date: 2016-08-07 11:58:26 +0300 (Sun, 07 Aug 2016) $
#$Revision: 185390 $
#$URL: file:///home/coder/svn-repositories/cod/cif/7/03/96/7039604.cif $
#------------------------------------------------------------------------------
#
# This file is available in the Crystallography Open Database (COD),
# http://www.crystallography.net/
#
# All data on this site have been placed in the public domain by the
# contributors.
#
data_7039604
loop_
_publ_author_name
'Paschinger, W.'
'Rogl, G.'
'Grytsiv, A.'
'Michor, H.'
'Heinrich, P. R.'
'M\"uller, H'
'Puchegger, S.'
'Klobes, B.'
'Hermann, R. P.'
'Reinecker, M.'
'Eisenmenger-Sitter, Ch'
'Broz, P.'
'Bauer, E.'
'Giester, G.'
'Zehetbauer, M.'
'Rogl, P. F.'
_publ_section_title
;
 Ba-filled Ni-Sb-Sn based skutterudites with anomalously high lattice
 thermal conductivity.
;
_journal_issue                   27
_journal_name_full
'Dalton transactions (Cambridge, England : 2003)'
_journal_page_first              11071
_journal_page_last               11100
_journal_paper_doi               10.1039/c6dt01298a
_journal_volume                  45
_journal_year                    2016
_chemical_formula_sum            'Ba1.57 Ni8 Sb16.32 Sn7.68'
_chemical_formula_weight         3583.80
_chemical_name_systematic
;
 ?
;
_space_group_crystal_system      cubic
_space_group_IT_number           204
_space_group_name_Hall           '-I 2 2 3'
_space_group_name_H-M_alt        'I m -3'
_symmetry_space_group_name_Hall  '-I 2 2 3'
_symmetry_space_group_name_H-M   'I m -3'
_audit_creation_method           SHELXL-2013
_cell_angle_alpha                90
_cell_angle_beta                 90
_cell_angle_gamma                90
_cell_formula_units_Z            1
_cell_length_a                   9.1995(2)
_cell_length_b                   9.1995(2)
_cell_length_c                   9.1995(2)
_cell_measurement_temperature    300(2)
_cell_volume                     778.56(3)
_computing_structure_refinement  'SHELXL-2013 (Sheldrick, 2013)'
_diffrn_ambient_temperature      300(2)
_diffrn_measured_fraction_theta_full 0.993
_diffrn_measured_fraction_theta_max 0.967
_diffrn_radiation_type           MoK\a
_diffrn_radiation_wavelength     0.71069
_diffrn_reflns_av_R_equivalents  0.0089
_diffrn_reflns_av_unetI/netI     0.0123
_diffrn_reflns_Laue_measured_fraction_full 0.993
_diffrn_reflns_Laue_measured_fraction_max 0.967
_diffrn_reflns_limit_h_max       15
_diffrn_reflns_limit_h_min       -14
_diffrn_reflns_limit_k_max       10
_diffrn_reflns_limit_k_min       -10
_diffrn_reflns_limit_l_max       10
_diffrn_reflns_limit_l_min       -10
_diffrn_reflns_number            610
_diffrn_reflns_point_group_measured_fraction_full 0.993
_diffrn_reflns_point_group_measured_fraction_max 0.967
_diffrn_reflns_theta_full        25.240
_diffrn_reflns_theta_max         36.219
_diffrn_reflns_theta_min         3.131
_exptl_absorpt_coefficient_mu    26.546
_exptl_crystal_density_diffrn    7.644
_exptl_crystal_F_000             1528
_exptl_crystal_size_max          0.100
_exptl_crystal_size_mid          0.070
_exptl_crystal_size_min          0.040
_refine_diff_density_max         2.066
_refine_diff_density_min         -1.273
_refine_diff_density_rms         0.250
_refine_ls_extinction_coef       0.00118(10)
_refine_ls_extinction_expression Fc^*^=kFc[1+0.001xFc^2^\l^3^/sin(2\q)]^-1/4^
_refine_ls_extinction_method     SHELXL
_refine_ls_goodness_of_fit_ref   1.134
_refine_ls_hydrogen_treatment    undef
_refine_ls_matrix_type           full
_refine_ls_number_parameters     12
_refine_ls_number_reflns         354
_refine_ls_number_restraints     0
_refine_ls_restrained_S_all      1.134
_refine_ls_R_factor_all          0.0223
_refine_ls_R_factor_gt           0.0192
_refine_ls_shift/su_max          0.024
_refine_ls_shift/su_mean         0.009
_refine_ls_structure_factor_coef Fsqd
_refine_ls_weighting_details
;
 w=1/[\s^2^(Fo^2^)+(0.0220P)^2^+6.7046P]
 where P=(Fo^2^+2Fc^2^)/3
;
_refine_ls_weighting_scheme      calc
_refine_ls_wR_factor_gt          0.0475
_refine_ls_wR_factor_ref         0.0485
_reflns_Friedel_coverage         0.000
_reflns_number_gt                329
_reflns_number_total             354
_reflns_threshold_expression     'I > 2\s(I)'
_cod_data_source_file            c6dt01298a6.cif
_cod_data_source_block           bani4sb8sn4_300k
_cod_depositor_comments
'Adding full bibliography for 7039602--7039607.cif.'
_cod_original_cell_volume        778.56(5)
_cod_database_code               7039604
_shelx_space_group_comment
;
The symmetry employed for this shelxl refinement is uniquely defined
by the following loop, which should always be used as a source of
symmetry information in preference to the above space-group names.
They are only intended as comments.
;
_shelx_estimated_absorpt_t_min   0.177
_shelx_estimated_absorpt_t_max   0.417
_shelxl_version_number           2013-2
_shelx_res_file
;
TITL  bani4sb8sn4_
REM  BaNi4Sb8Sn4_300K
CELL 0.71069     9.1995   9.1995   9.1995  90.000  90.000  90.000
ZERR     1  0.00020  0.00020  0.00020  0.00000  0.00000  0.00000
REM SG 204 48 24 Im-3 I2/m-3 PGm3bar cubic
LATT 2
REM SG  ORGN  at Inv.cen. m-3
SYMM -X,-Y,Z
SYMM -X,Y,-Z
SYMM X,-Y,-Z
SYMM Z,X,Y
SYMM Z,-X,-Y
SYMM -Z,-X,Y
SYMM -Z,X,-Y
SYMM Y,Z,X
SYMM -Y,Z,-X
SYMM Y,-Z,-X
SYMM -Y,-Z,X
SFAC  BA  NI  SB   SN
UNIT      1.57    8   16.32    7.68
SIZE    0.100  0.070  0.040
TEMP     26.85
EXYZ   SB1 SN1
EADP   SB1 SN1
L.S. 1
ACTA
BOND
FMAP 2
PLAN 20
WGHT    0.022000    6.704600
EXTI    0.001175
FVAR       0.10632   0.77798
BA1   1    0.000000    0.000000    0.000000    20.04167    0.01053    0.01053 =
         0.01053    0.00000    0.00000    0.00000
NI1   2    0.250000    0.250000    0.250000    10.16667    0.00782    0.00782 =
         0.00782    0.00054    0.00054    0.00054
SB1   3    0.000000    0.161100    0.341189    10.34000    0.00684    0.00933 =
         0.01273    0.00082    0.00000    0.00000
SN1   4    0.000000    0.161100    0.341189    10.16000    0.00684    0.00933 =
         0.01273    0.00082    0.00000    0.00000
HKLF 4

REM   bani4sb8sn4_
REM R1 =  0.0192 for     329 Fo > 4sig(Fo)  and  0.0223 for all     354 data
REM     12 parameters refined using      0 restraints

END

WGHT      0.0197      7.3825

REM Highest difference peak  2.066,  deepest hole -1.273,  1-sigma level  0.250
Q1    1   0.0000  0.0000  0.3156  10.25000  0.05    2.07
Q2    1   0.3418  0.1682  0.1844  11.00000  0.05    1.01
Q3    1   0.0000  0.3278  0.3146  10.50000  0.05    0.99
Q4    1   0.1109  0.0000  0.3249  10.50000  0.05    0.90
Q5    1   0.0000  0.0000  0.4259  10.25000  0.05    0.81
Q6    1   0.0000  0.3632  0.5000  10.25000  0.05    0.79
Q7    1   0.0000  0.1702  0.1496  10.50000  0.05    0.79
Q8    1   0.0000  0.0000  0.5000  10.12500  0.05    0.78
Q9    1   0.0000  0.2685  0.1684  10.50000  0.05    0.77
Q10   1   0.0000  0.2033  0.2181  10.50000  0.05    0.72
Q11   1   0.1678  0.0832  0.3387  11.00000  0.05    0.70
Q12   1   0.0000  0.1260  0.5000  10.25000  0.05    0.65
Q13   1   0.0000  0.3071  0.4217  10.50000  0.05    0.64
Q14   1   0.0000  0.2035  0.0000  10.25000  0.05    0.63
Q15   1   0.0000  0.0000  0.0924  10.25000  0.05    0.63
Q16   1   0.0525  0.2671  0.2333  11.00000  0.05    0.62
Q17   1   0.0423  0.0563  0.3578  11.00000  0.05    0.61
Q18   1   0.0000  0.3336  0.2087  10.50000  0.05    0.60
Q19   1   0.0413  0.0000  0.4086  10.50000  0.05    0.60
Q20   1   0.0000  0.2005  0.4316  10.50000  0.05    0.57
;
_shelx_res_checksum              97393
_shelx_hkl_file
;
   1   1   0   11.40    0.10   1
   2   0   0   62.20    0.60   1
   2   1   1    5.80    0.10   1
  -2  -1  -1    6.10    0.10   1
   2   2   0   18.40    0.20   1
   2   2   2   45.60    0.70   1
  -2  -2  -2   46.70    0.80   1
   3   0   1  713.80    4.00   1
   3   1   0 4230.30   23.20   1
   3   1   2   14.20    0.20   1
  -3  -1  -2   14.20    0.20   1
   3   2   1 1854.70    9.50   1
  -3  -2  -1 1850.80   10.10   1
   3   3   0  559.50    3.20   1
   3   3   2  536.90    3.30   1
  -3  -3  -2  536.30    3.20   1
   4   0   0  279.70    2.30   1
   4   0   2 1037.70    5.60   1
   4   1   1    8.40    0.20   1
  -4  -1  -1    8.40    0.20   1
   4   1   3 2231.70   11.90   1
  -4  -1  -3 2206.60   12.10   1
   4   2   0 1200.30    6.80   1
   4   2   2 1777.40    9.50   1
  -4  -2  -2 1769.90   10.00   1
   4   3   1   31.30    0.40   1
  -4  -3  -1   31.70    0.40   1
   4   3   3  373.90    2.40   1
  -4  -3  -3  376.60    2.50   1
   4   4   0   10.30    0.20   1
   4   4   2  255.60    1.80   1
  -4  -4  -2  252.20    1.80   1
   4   4   4 2013.70   25.50   1
  -4  -4  -4 2015.80   25.30   1
   5   0   1   17.90    0.30   1
   5   0   3 2185.20   11.50   1
   5   1   0   73.00    0.60   1
   5   1   2    5.50    0.20   1
  -5  -1  -2    5.60    0.20   1
   5   1   4   14.00    0.30   1
  -5  -1  -4   14.30    0.30   1
   5   2   1   24.30    0.40   1
  -5  -2  -1   23.60    0.30   1
   5   2   3    5.80    0.20   1
  -5  -2  -3    5.10    0.30   1
   5   3   0  376.90    2.50   1
   5   3   2  758.50    4.70   1
  -5  -3  -2  757.10    5.10   1
   5   3   4 1000.90    6.90   1
  -5  -3  -4  998.30    7.80   1
   5   4   1   20.90    0.40   1
  -5  -4  -1   20.90    0.40   1
   5   4   3   70.30    0.80   1
  -5  -4  -3   70.60    0.80   1
   5   5   0   23.30    0.50   1
   5   5   2    5.70    0.30   1
  -5  -5  -2    6.00    0.30   1
   5   5   4    3.10    0.20   1
  -5  -5  -4    3.50    0.30   1
   6   0   0 4034.80   30.40   1
   6   0   2  527.80    3.60   1
   6   0   4  173.10    1.50   1
   6   1   1   10.30    0.30   1
  -6  -1  -1    9.00    0.30   1
   6   1   3  288.10    2.20   1
  -6  -1  -3  287.90    2.10   1
   6   1   5   11.30    0.40   1
  -6  -1  -5   12.00    0.30   1
   6   2   0  448.50    3.20   1
   6   2   2  538.00    3.70   1
  -6  -2  -2  541.10    4.00   1
   6   2   4    3.00    0.20   1
  -6  -2  -4    3.50    0.30   1
   6   3   1 2610.30   16.00   1
  -6  -3  -1 2625.40   16.10   1
   6   3   3  284.30    2.20   1
  -6  -3  -3  276.80    2.50   1
   6   3   5 1267.10    9.50   1
  -6  -3  -5 1238.00   10.10   1
   6   4   0  222.20    2.00   1
   6   4   2    1.00    0.20   1
  -6  -4  -2    1.60    0.20   1
   6   4   4  531.10    4.30   1
  -6  -4  -4  538.60    4.60   1
   6   5   1   32.50    0.60   1
  -6  -5  -1   30.00    0.60   1
   6   5   3  166.10    1.60   1
  -6  -5  -3  166.70    1.60   1
   6   5   5   10.50    0.60   1
  -6  -5  -5   11.80    0.50   1
   6   6   0 4595.10   32.50   1
   6   6   2   20.50    0.50   1
  -6  -6  -2   19.70    0.50   1
   6   6   4   59.20    1.10   1
  -6  -6  -4   56.40    1.10   1
   6   6   6 1522.30   22.90   1
  -6  -6  -6 1605.80   25.70   1
   7   0   1    1.80    0.20   1
   7   0   3 3084.00   21.10   1
   7   0   5   53.70    0.80   1
   7   1   0   67.50    0.80   1
   7   1   2    2.90    0.30   1
  -7  -1  -2    2.70    0.20   1
   7   1   4    2.80    0.30   1
  -7  -1  -4    2.20    0.20   1
   7   1   6   46.00    0.80   1
  -7  -1  -6   46.20    0.90   1
   7   2   1   25.40    0.50   1
  -7  -2  -1   24.30    0.50   1
   7   2   3   19.60    0.50   1
  -7  -2  -3   20.80    0.50   1
   7   2   5   16.90    0.50   1
  -7  -2  -5   16.40    0.50   1
   7   3   0  346.70    2.70   1
   7   3   2 1178.30    9.00   1
  -7  -3  -2 1184.00    8.70   1
   7   3   4 1518.20   11.90   1
  -7  -3  -4 1517.10   11.90   1
   7   3   6  175.20    2.10   1
  -7  -3  -6  174.50    2.30   1
   7   4   1   34.30    0.60   1
  -7  -4  -1   33.70    0.50   1
   7   4   3    6.40    0.40   1
  -7  -4  -3    6.10    0.30   1
   7   4   5   31.40    0.80   1
  -7  -4  -5   33.10    0.80   1
   7   5   0   54.90    0.90   1
   7   5   2   15.80    0.50   1
  -7  -5  -2   17.30    0.50   1
   7   5   4   14.80    0.50   1
  -7  -5  -4   16.10    0.60   1
   7   5   6   35.10    1.00   1
  -7  -5  -6   37.00    1.00   1
   7   6   1    2.80    0.50   1
  -7  -6  -1    2.20    0.40   1
   7   6   3 1963.00   16.60   1
  -7  -6  -3 1938.90   17.60   1
   7   6   5   28.40    0.90   1
  -7  -6  -5   29.30    1.00   1
   7   7   0   26.20    0.70   1
   7   7   2   16.70    0.70   1
  -7  -7  -2   17.50    0.70   1
   7   7   4   20.50    0.80   1
  -7  -7  -4   18.30    0.80   1
   7   7   6   28.30    1.00   1
  -7  -7  -6   22.50    1.20   1
   8   0   0  873.60    9.30   1
   8   0   2  363.20    3.10   1
   8   0   4    3.10    0.40   1
   8   0   6   24.90    0.80   1
   8   1   1    1.00    0.20   1
  -8  -1  -1    0.80    0.20   1
   8   1   3  384.50    3.40   1
  -8  -1  -3  379.40    3.70   1
   8   1   5   10.40    0.50   1
  -8  -1  -5    9.40    0.50   1
   8   1   7    6.20    0.60   1
  -8  -1  -7    5.60    0.60   1
   8   2   0  268.80    2.40   1
   8   2   2  447.80    4.00   1
  -8  -2  -2  456.60    3.90   1
   8   2   4    9.00    0.40   1
  -8  -2  -4    9.50    0.40   1
   8   2   6   23.00    0.70   1
  -8  -2  -6   22.10    0.70   1
   8   3   1   84.50    1.10   1
  -8  -3  -1   84.50    1.00   1
   8   3   3  284.20    3.00   1
  -8  -3  -3  280.40    2.80   1
   8   3   5   15.20    0.60   1
  -8  -3  -5   14.60    0.60   1
   8   3   7   89.20    1.70   1
  -8  -3  -7   86.40    1.80   1
   8   4   0    8.30    0.40   1
   8   4   2   10.50    0.60   1
  -8  -4  -2   10.60    0.50   1
   8   4   4  566.10    5.60   1
  -8  -4  -4  573.60    5.90   1
   8   4   6  167.10    2.30   1
  -8  -4  -6  169.60    2.70   1
   8   5   1    0.20    0.40   1
  -8  -5  -1    1.10    0.40   1
   8   5   3  151.80    2.10   1
  -8  -5  -3  154.10    1.90   1
   8   5   5    5.00    0.60   1
  -8  -5  -5    4.90    0.50   1
   8   5   7    1.40    0.60   1
  -8  -5  -7    3.70    0.80   1
   8   6   0   37.50    1.00   1
   8   6   2    7.00    0.60   1
  -8  -6  -2    6.00    0.50   1
   8   6   4  281.80    3.40   1
  -8  -6  -4  287.80    3.70   1
   8   6   6  342.20    4.10   1
  -8  -6  -6  349.30    5.70   1
   8   7   1    1.60    0.50   1
  -8  -7  -1    1.10    0.50   1
   8   7   3  343.60    4.10   1
  -8  -7  -3  346.80    4.40   1
   8   7   5    4.10    0.70   1
  -8  -7  -5    6.00    0.90   1
   8   7   7    6.20    0.80   1
  -8  -7  -7    6.80    1.20   1
   8   8   0   26.60    1.10   1
   8   8   2    4.40    0.60   1
  -8  -8  -2    3.10    0.60   1
   8   8   4  177.20    2.70   1
  -8  -8  -4  178.90    3.20   1
   8   8   6   61.90    1.60   1
  -8  -8  -6   56.30    2.40   1
   8   8   8   64.70    3.20   1
  -8  -8  -8   54.40    8.30   1
   9   0   1  248.60    2.40   1
   9   0   3   98.30    1.50   1
   9   0   5  141.80    2.10   1
   9   0   7  185.70    2.70   1
   9   1   0 1559.70   12.20   1
   9   1   2    5.60    0.50   1
  -9  -1  -2    4.90    0.40   1
   9   1   4    6.40    0.50   1
  -9  -1  -4    5.90    0.50   1
   9   1   6  993.90    9.30   1
  -9  -1  -6  997.60   10.40   1
   9   1   8   38.20    1.40   1
  -9  -1  -8   39.50    1.40   1
   9   2   1  547.20    5.30   1
  -9  -2  -1  548.90    5.20   1
   9   2   3  136.30    1.80   1
  -9  -2  -3  136.30    1.70   1
   9   2   5  258.50    3.20   1
  -9  -2  -5  262.80    3.20   1
   9   2   7  479.80    6.00   1
  -9  -2  -7  480.50    5.90   1
   9   3   0  262.80    3.00   1
   9   3   2  127.70    1.80   1
  -9  -3  -2  127.60    1.80   1
   9   3   4   89.10    1.50   1
  -9  -3  -4   87.10    1.50   1
   9   3   6  158.30    2.30   1
  -9  -3  -6  164.70    2.60   1
   9   3   8  111.40    2.30   1
  -9  -3  -8  117.50    2.60   1
   9   4   1  768.20    7.60   1
  -9  -4  -1  759.00    7.80   1
   9   4   3  108.90    1.70   1
  -9  -4  -3  108.30    1.80   1
   9   4   5  393.60    4.40   1
  -9  -4  -5  388.60    4.70   1
   9   4   7  650.50    7.30   1
  -9  -4  -7  647.70    8.40   1
   9   5   0  740.20    7.80   1
   9   5   2    2.10    0.50   1
  -9  -5  -2    1.40    0.50   1
   9   5   4   18.30    0.90   1
  -9  -5  -4   19.10    0.80   1
   9   5   6  497.50    5.50   1
  -9  -5  -6  507.40    7.80   1
   9   5   8    7.00    0.90   1
  -9  -5  -8    6.80    1.30   1
   9   6   1  137.80    2.20   1
  -9  -6  -1  131.70    2.10   1
   9   6   3   57.50    1.40   1
  -9  -6  -3   60.20    1.40   1
   9   6   5   84.30    1.70   1
  -9  -6  -5   84.30    2.20   1
   9   6   7  107.00    2.10   1
  -9  -6  -7  101.80    3.50   1
   9   7   0 1299.50   14.20   1
   9   7   2   10.50    0.80   1
  -9  -7  -2   11.40    0.80   1
   9   7   4    0.70    0.60   1
  -9  -7  -4    1.80    0.70   1
   9   7   6  928.40    9.80   1
  -9  -7  -6  932.20   16.80   1
   9   7   8   40.30    1.60   1
  -9  -7  -8   43.70    3.80   1
   9   8   1  144.10    2.70   1
  -9  -8  -1  148.60    3.00   1
   9   8   3  111.60    2.30   1
  -9  -8  -3  106.20    2.40   1
   9   8   5   65.10    1.90   1
  -9  -8  -5   58.20    3.10   1
   9   8   7  147.70    3.10   1
  -9  -8  -7  150.90    6.40   1
   9   9   0   69.20    2.00   1
   9   9   2   48.60    1.90   1
  -9  -9  -2   46.30    1.70   1
   9   9   4   30.20    1.50   1
  -9  -9  -4   29.90    1.70   1
   9   9   6   47.50    1.80   1
  -9  -9  -6   45.70    3.30   1
   9   9   8   37.60    4.50   1
  10   0   0  178.70    3.30   1
  10   0   2    4.20    0.50   1
  10   0   4  391.10    4.40   1
  10   0   6    7.50    0.90   1
  10   0   8  155.10    3.10   1
  10   1   1    3.40    0.50   1
 -10  -1  -1    2.60    0.40   1
  10   1   3  973.50    9.00   1
 -10  -1  -3  987.10    8.80   1
  10   1   5    8.60    0.80   1
 -10  -1  -5    7.40    0.70   1
  10   1   7   15.70    1.10   1
 -10  -1  -7   14.00    1.00   1
  10   1   9  476.60    6.80   1
 -10  -1  -9  476.20    7.80   1
  10   2   0    8.80    0.60   1
  10   2   2   76.80    1.40   1
 -10  -2  -2   79.60    1.50   1
  10   2   4  770.20    7.80   1
 -10  -2  -4  777.20    7.80   1
  10   2   6  260.40    3.90   1
 -10  -2  -6  263.60    3.90   1
  10   2   8  260.00    4.30   1
 -10  -2  -8  257.20    4.90   1
  10   3   1   37.70    1.00   1
 -10  -3  -1   39.80    1.10   1
  10   3   3  146.60    2.10   1
 -10  -3  -3  144.70    2.20   1
  10   3   5   57.70    1.50   1
 -10  -3  -5   60.20    1.40   1
  10   3   7   15.50    1.20   1
 -10  -3  -7   17.70    1.20   1
  10   3   9   58.90    2.40   1
 -10  -3  -9   54.60    2.40   1
  10   4   0  375.40    4.60   1
  10   4   2  791.50    8.30   1
 -10  -4  -2  777.30    8.20   1
  10   4   4  247.60    3.30   1
 -10  -4  -4  247.90    3.40   1
  10   4   6    4.80    0.80   1
 -10  -4  -6    4.70    1.00   1
  10   4   8   30.50    1.50   1
 -10  -4  -8   32.10    1.70   1
  10   5   1    6.70    0.80   1
 -10  -5  -1    8.50    0.90   1
  10   5   3  514.20    6.00   1
 -10  -5  -3  509.20    6.10   1
  10   5   5    2.10    0.70   1
 -10  -5  -5    1.00    0.80   1
  10   5   7   17.00    1.10   1
 -10  -5  -7   19.80    1.50   1
  10   5   9  256.90    5.10   1
 -10  -5  -9  248.20    8.10   1
  10   6   0   10.60    0.80   1
  10   6   2  225.20    3.40   1
 -10  -6  -2  225.00    3.40   1
  10   6   4    5.20    0.80   1
 -10  -6  -4    6.40    0.90   1
  10   6   6  100.50    2.20   1
 -10  -6  -6  100.70    3.30   1
  10   6   8   -0.10    0.90   1
 -10  -6  -8    1.40    1.70   1
  10   7   1    0.60    0.80   1
 -10  -7  -1    2.20    0.80   1
  10   7   3  862.10   10.20   1
 -10  -7  -3  869.60   10.40   1
  10   7   5    8.20    1.00   1
 -10  -7  -5   10.90    1.60   1
  10   7   7    9.70    1.20   1
 -10  -7  -7    8.00    2.10   1
  10   8   0  244.00    4.10   1
  10   8   2  255.50    4.50   1
 -10  -8  -2  251.30    4.20   1
  10   8   4   28.10    1.40   1
 -10  -8  -4   26.70    2.20   1
  10   8   6    3.20    1.30   1
 -10  -8  -6    3.90    1.80   1
  10   8   8    3.10    2.50   1
  10   9   1   12.30    1.30   1
 -10  -9  -1   13.20    1.30   1
  10   9   3   45.00    2.00   1
 -10  -9  -3   40.00    2.20   1
  10   9   5   26.20    1.70   1
 -10  -9  -5   19.20    2.40   1
  10   9   7    9.70    2.90   1
  10  10   0   10.10    1.50   1
  10  10   2  116.30    3.30   1
 -10 -10  -2  100.80    3.80   1
  10  10   4  554.70   11.00   1
 -10 -10  -4  563.50   17.00   1
  11   0   1   11.30    0.80   1
  11   0   3  391.40    4.80   1
  11   0   5    2.00    0.80   1
  11   0   7   23.10    1.40   1
  11   0   9  150.30    4.60   1
  11   1   0  116.80    2.10   1
  11   1   2    2.70    0.60   1
 -11  -1  -2    2.80    0.70   1
  11   1   4    9.90    0.90   1
 -11  -1  -4   10.00    0.80   1
  11   1   6   77.10    2.10   1
 -11  -1  -6   73.20    2.10   1
  11   1   8    1.30    1.10   1
 -11  -1  -8    1.40    1.20   1
  11   1  10    8.30    2.40   1
 -11  -1 -10    8.30    2.90   1
  11   2   1   37.40    1.10   1
 -11  -2  -1   36.30    1.20   1
  11   2   3   20.00    0.90   1
 -11  -2  -3   18.90    1.00   1
  11   2   5   15.20    1.10   1
 -11  -2  -5   15.20    0.90   1
  11   2   7   32.20    1.70   1
 -11  -2  -7   31.90    1.60   1
  11   2   9    5.90    1.40   1
 -11  -2  -9    9.40    1.60   1
  11   3   0   92.10    1.80   1
  11   3   2  113.80    1.90   1
 -11  -3  -2  113.10    2.10   1
  11   3   4  196.40    3.20   1
 -11  -3  -4  187.50    3.00   1
  11   3   6   53.60    1.90   1
 -11  -3  -6   49.70    1.90   1
  11   3   8   19.90    1.50   1
 -11  -3  -8   20.50    1.70   1
  11   4   1   42.20    1.40   1
 -11  -4  -1   41.00    1.40   1
  11   4   3   55.30    1.60   1
 -11  -4  -3   54.80    1.50   1
  11   4   5   16.70    1.20   1
 -11  -4  -5   13.40    1.10   1
  11   4   7   44.20    2.00   1
 -11  -4  -7   42.90    1.90   1
  11   4   9   22.60    2.50   1
 -11  -4  -9   29.70    3.50   1
  11   5   0   60.80    1.80   1
  11   5   2    0.30    0.70   1
 -11  -5  -2    1.10    0.80   1
  11   5   4    1.00    0.80   1
 -11  -5  -4    0.50    0.90   1
  11   5   6   41.40    1.60   1
 -11  -5  -6   40.00    1.90   1
  11   5   8   -0.30    1.20   1
 -11  -5  -8    5.30    1.80   1
  11   6   1    7.80    0.90   1
 -11  -6  -1    7.30    0.90   1
  11   6   3  267.10    4.40   1
 -11  -6  -3  275.70    4.20   1
  11   6   5    2.20    1.00   1
 -11  -6  -5    0.20    1.20   1
  11   6   7   16.10    1.40   1
 -11  -6  -7   20.70    1.90   1
  11   7   0  109.10    2.50   1
  11   7   2    7.80    1.20   1
 -11  -7  -2    9.80    1.10   1
  11   7   4   16.40    1.30   1
 -11  -7  -4   12.70    1.60   1
  11   7   6   63.30    2.20   1
 -11  -7  -6   64.10    3.40   1
  11   8   1   14.10    1.30   1
 -11  -8  -1   15.70    1.40   1
  11   8   3    0.40    1.30   1
 -11  -8  -3    0.90    1.20   1
  11   8   5   10.60    1.40   1
 -11  -8  -5   15.00    2.70   1
  11   9   0   47.30    2.20   1
  11   9   2   49.40    2.20   1
 -11  -9  -2   52.20    2.50   1
  11   9   4   88.10    4.70   1
 -11  -9  -4   77.60    4.90   1
  11  10   1   16.70    3.60   1
 -11 -10  -1   24.90    3.20   1
  11  10   3   57.80    8.90   1
 -11 -10  -3   43.60    5.60   1
  12   0   0 2159.90   30.90   1
  12   0   2    4.10    0.80   1
  12   0   4   34.90    1.40   1
  12   0   6  759.80   10.60   1
  12   0   8  185.10    5.50   1
  12   1   1    7.00    0.80   1
 -12  -1  -1    7.40    0.90   1
  12   1   3   34.10    1.30   1
 -12  -1  -3   32.00    1.30   1
  12   1   5    6.30    1.10   1
 -12  -1  -5    6.60    1.00   1
  12   1   7    2.80    1.30   1
 -12  -1  -7    5.30    1.40   1
  12   1   9    4.40    4.80   1
 -12  -1  -9   31.60    9.80   1
  12   2   0   27.50    1.30   1
  12   2   2    8.20    1.00   1
 -12  -2  -2    8.00    0.90   1
  12   2   4   99.40    2.50   1
 -12  -2  -4  100.50    2.30   1
  12   2   6   44.70    2.20   1
 -12  -2  -6   43.80    1.80   1
  12   2   8   61.10    2.90   1
 -12  -2  -8   59.20    2.70   1
  12   3   1  725.90    9.20   1
 -12  -3  -1  726.00    9.00   1
  12   3   3   69.90    2.10   1
 -12  -3  -3   64.90    1.70   1
  12   3   5  370.70    6.90   1
 -12  -3  -5  380.20    5.60   1
  12   3   7  682.40   12.40   1
 -12  -3  -7  674.90   12.30   1
  12   4   0    5.10    0.90   1
  12   4   2  137.30    3.00   1
 -12  -4  -2  133.90    2.90   1
  12   4   4    0.00    1.00   1
 -12  -4  -4    1.30    0.90   1
  12   4   6   73.70    2.80   1
 -12  -4  -6   73.50    2.70   1
  12   4   8   -4.00    3.10   1
 -12  -4  -8   -0.70    2.60   1
  12   5   1    4.20    1.10   1
 -12  -5  -1    5.00    1.00   1
  12   5   3   18.60    1.30   1
 -12  -5  -3   22.00    1.40   1
  12   5   5    1.30    1.30   1
 -12  -5  -5    1.80    1.30   1
  12   5   7    0.90    2.60   1
 -12  -5  -7    3.30    1.70   1
  12   6   0  768.90   10.70   1
  12   6   2   80.40    2.60   1
 -12  -6  -2   78.10    2.40   1
  12   6   4   38.10    2.00   1
 -12  -6  -4   38.80    2.30   1
  12   6   6 1137.90   24.90   1
 -12  -6  -6 1128.10   26.40   1
  12   7   1   26.40    1.80   1
 -12  -7  -1   25.90    1.60   1
  12   7   3   20.10    1.90   1
 -12  -7  -3   21.50    2.20   1
  12   7   5   12.00    2.80   1
 -12  -7  -5   17.10    2.50   1
  12   8   0  137.60    3.90   1
  12   8   2   36.30    2.20   1
 -12  -8  -2   38.20    2.30   1
  12   8   4    8.80    3.80   1
 -12  -8  -4    4.20    3.60   1
  12   9   1  362.50   14.20   1
 -12  -9  -1  349.60   18.10   1
  12   9   3   52.30    9.30   1
  13   0   1    1.90    0.90   1
  13   0   3 1226.10   14.60   1
  13   0   5   20.70    1.50   1
  13   0   7    5.60    2.20   1
  13   1   0   28.60    1.50   1
  13   1   2    1.50    1.00   1
 -13  -1  -2    3.70    1.00   1
  13   1   4    1.50    1.20   1
 -13  -1  -4    2.10    1.10   1
  13   1   6   28.60    2.20   1
 -13  -1  -6   25.90    1.80   1
  13   2   1   10.80    1.10   1
 -13  -2  -1   10.30    1.20   1
  13   2   3    6.90    1.10   1
 -13  -2  -3    5.10    1.00   1
  13   2   5   10.90    1.60   1
 -13  -2  -5   10.10    1.30   1
  13   2   7   13.70    5.10   1
 -13  -2  -7    9.10    2.50   1
  13   3   0  103.30    2.60   1
  13   3   2  466.40    7.90   1
 -13  -3  -2  463.00    6.60   1
  13   3   4  616.10   11.20   1
 -13  -3  -4  604.80   10.10   1
  13   3   6   58.10    2.90   1
 -13  -3  -6   55.20    2.60   1
  13   4   1   16.70    1.50   1
 -13  -4  -1   18.90    1.40   1
  13   4   3    5.00    1.60   1
 -13  -4  -3    4.90    1.30   1
  13   4   5   18.30    1.90   1
 -13  -4  -5   18.60    1.80   1
  13   5   0   26.60    1.80   1
  13   5   2    3.80    1.20   1
 -13  -5  -2    1.20    1.20   1
  13   5   4    7.80    1.70   1
 -13  -5  -4    5.70    1.50   1
  13   6   1    0.10    1.20   1
 -13  -6  -1    0.00    1.30   1
  13   6   3  886.10   16.40   1
 -13  -6  -3  872.70   14.10   1
 -13  -6  -5   10.00    5.10   1
  13   7   0   17.70    2.30   1
  13   7   2    9.80    3.80   1
 -13  -7  -2    2.60    2.50   1
  14   0   0  111.90    4.50   1
  14   0   2    1.70    1.20   1
  14   0   4  136.10    4.10   1
  14   1   1   -0.40    1.10   1
 -14  -1  -1   -1.30    1.10   1
  14   1   3   38.20    2.20   1
 -14  -1  -3   35.80    2.10   1
  14   1   5    2.60    3.70   1
 -14  -1  -5    0.70    2.60   1
  14   2   0   16.20    1.60   1
  14   2   2    5.90    1.40   1
 -14  -2  -2    4.00    1.20   1
  14   2   4   83.40    3.70   1
 -14  -2  -4   84.50    3.40   1
  14   3   1   83.30    3.10   1
 -14  -3  -1   77.60    2.70   1
  14   3   3  121.50    4.10   1
 -14  -3  -3  117.00    3.90   1
  14   4   0   60.40    3.10   1
  14   4   2   86.70    3.80   1
 -14  -4  -2   87.40    3.20   1
 -14  -4  -4   -1.40    3.30   1
  14   5   1   -1.80    2.70   1
 -14  -5  -1   -1.70    1.80   1
 -14  -5  -3   13.90    6.70   1
  15   0   1   76.60    6.80   1
  15   1   0  308.60   13.10   1
  15   1   2    0.10    4.80   1
  15   2   1   88.90   10.80   1
   0   0   0
;
_shelx_hkl_checksum              98545
loop_
_space_group_symop_operation_xyz
'x, y, z'
'-x, -y, z'
'-x, y, -z'
'x, -y, -z'
'z, x, y'
'z, -x, -y'
'-z, -x, y'
'-z, x, -y'
'y, z, x'
'-y, z, -x'
'y, -z, -x'
'-y, -z, x'
'x+1/2, y+1/2, z+1/2'
'-x+1/2, -y+1/2, z+1/2'
'-x+1/2, y+1/2, -z+1/2'
'x+1/2, -y+1/2, -z+1/2'
'z+1/2, x+1/2, y+1/2'
'z+1/2, -x+1/2, -y+1/2'
'-z+1/2, -x+1/2, y+1/2'
'-z+1/2, x+1/2, -y+1/2'
'y+1/2, z+1/2, x+1/2'
'-y+1/2, z+1/2, -x+1/2'
'y+1/2, -z+1/2, -x+1/2'
'-y+1/2, -z+1/2, x+1/2'
'-x, -y, -z'
'x, y, -z'
'x, -y, z'
'-x, y, z'
'-z, -x, -y'
'-z, x, y'
'z, x, -y'
'z, -x, y'
'-y, -z, -x'
'y, -z, x'
'-y, z, x'
'y, z, -x'
'-x+1/2, -y+1/2, -z+1/2'
'x+1/2, y+1/2, -z+1/2'
'x+1/2, -y+1/2, z+1/2'
'-x+1/2, y+1/2, z+1/2'
'-z+1/2, -x+1/2, -y+1/2'
'-z+1/2, x+1/2, y+1/2'
'z+1/2, x+1/2, -y+1/2'
'z+1/2, -x+1/2, y+1/2'
'-y+1/2, -z+1/2, -x+1/2'
'y+1/2, -z+1/2, x+1/2'
'-y+1/2, z+1/2, x+1/2'
'y+1/2, z+1/2, -x+1/2'
loop_
_atom_site_label
_atom_site_type_symbol
_atom_site_fract_x
_atom_site_fract_y
_atom_site_fract_z
_atom_site_U_iso_or_equiv
_atom_site_adp_type
_atom_site_occupancy
_atom_site_site_symmetry_order
_atom_site_calc_flag
_atom_site_refinement_flags_posn
_atom_site_refinement_flags_adp
_atom_site_refinement_flags_occupancy
Ba1 Ba 0.0000 0.0000 0.0000 0.0105(3) Uani 0.778(5) 24 d S T P
Ni1 Ni 0.2500 0.2500 0.2500 0.00782(16) Uani 1 6 d S T P
Sb1 Sb 0.0000 0.16110(3) 0.34119(3) 0.00963(11) Uani 0.68 2 d S T P
Sn1 Sn 0.0000 0.16110(3) 0.34119(3) 0.00963(11) Uani 0.32 2 d S T P
loop_
_atom_site_aniso_label
_atom_site_aniso_U_11
_atom_site_aniso_U_22
_atom_site_aniso_U_33
_atom_site_aniso_U_23
_atom_site_aniso_U_13
_atom_site_aniso_U_12
Ba1 0.0105(3) 0.0105(3) 0.0105(3) 0.000 0.000 0.000
Ni1 0.00782(16) 0.00782(16) 0.00782(16) 0.00054(14) 0.00054(14) 0.00054(14)
Sb1 0.00684(13) 0.00933(14) 0.01273(14) 0.00082(8) 0.000 0.000
Sn1 0.00684(13) 0.00933(14) 0.01273(14) 0.00082(8) 0.000 0.000
loop_
_atom_type_symbol
_atom_type_description
_atom_type_scat_dispersion_real
_atom_type_scat_dispersion_imag
_atom_type_scat_source
Ba Ba -0.3244 2.2819 'International Tables Vol C Tables 4.2.6.8 and 6.1.1.4'
Ni Ni 0.3393 1.1124 'International Tables Vol C Tables 4.2.6.8 and 6.1.1.4'
Sb Sb -0.5866 1.5461 'International Tables Vol C Tables 4.2.6.8 and 6.1.1.4'
Sn Sn -0.6537 1.4246 'International Tables Vol C Tables 4.2.6.8 and 6.1.1.4'
loop_
_geom_angle_atom_site_label_1
_geom_angle_atom_site_label_2
_geom_angle_atom_site_label_3
_geom_angle
_geom_angle_site_symmetry_1
_geom_angle_site_symmetry_3
Sn1 Ba1 Sn1 180.0 33 9
Sn1 Ba1 Sn1 67.288(3) 33 29
Sn1 Ba1 Sn1 112.712(3) 9 29
Sn1 Ba1 Sn1 112.712(3) 33 5
Sn1 Ba1 Sn1 67.288(3) 9 5
Sn1 Ba1 Sn1 180.0 29 5
Sn1 Ba1 Sb1 0.000(4) 33 33
Sn1 Ba1 Sb1 180.0 9 33
Sn1 Ba1 Sb1 67.288(3) 29 33
Sn1 Ba1 Sb1 112.712(3) 5 33
Sn1 Ba1 Sb1 180.0 33 9
Sn1 Ba1 Sb1 0.000(4) 9 9
Sn1 Ba1 Sb1 112.712(3) 29 9
Sn1 Ba1 Sb1 67.288(3) 5 9
Sb1 Ba1 Sb1 180.0 33 9
Sn1 Ba1 Sb1 112.712(3) 33 5
Sn1 Ba1 Sb1 67.288(3) 9 5
Sn1 Ba1 Sb1 180.0 29 5
Sn1 Ba1 Sb1 0.000(7) 5 5
Sb1 Ba1 Sb1 112.712(3) 33 5
Sb1 Ba1 Sb1 67.288(3) 9 5
Sn1 Ba1 Sb1 67.288(3) 33 29
Sn1 Ba1 Sb1 112.712(3) 9 29
Sn1 Ba1 Sb1 0.000(8) 29 29
Sn1 Ba1 Sb1 180.0 5 29
Sb1 Ba1 Sb1 67.288(3) 33 29
Sb1 Ba1 Sb1 112.712(3) 9 29
Sb1 Ba1 Sb1 180.0 5 29
Sn1 Ba1 Sb1 67.288(3) 33 25
Sn1 Ba1 Sb1 112.712(3) 9 25
Sn1 Ba1 Sb1 67.288(3) 29 25
Sn1 Ba1 Sb1 112.712(3) 5 25
Sb1 Ba1 Sb1 67.288(3) 33 25
Sb1 Ba1 Sb1 112.712(3) 9 25
Sb1 Ba1 Sb1 112.712(3) 5 25
Sb1 Ba1 Sb1 67.288(3) 29 25
Sn1 Ba1 Sn1 67.288(3) 33 25
Sn1 Ba1 Sn1 112.712(3) 9 25
Sn1 Ba1 Sn1 67.288(3) 29 25
Sn1 Ba1 Sn1 112.712(3) 5 25
Sb1 Ba1 Sn1 67.288(3) 33 25
Sb1 Ba1 Sn1 112.712(3) 9 25
Sb1 Ba1 Sn1 112.712(3) 5 25
Sb1 Ba1 Sn1 67.288(3) 29 25
Sb1 Ba1 Sn1 0.000(4) 25 25
Sn1 Ba1 Sn1 50.552(8) 33 34
Sn1 Ba1 Sn1 129.448(8) 9 34
Sn1 Ba1 Sn1 112.712(3) 29 34
Sn1 Ba1 Sn1 67.288(3) 5 34
Sb1 Ba1 Sn1 50.552(8) 33 34
Sb1 Ba1 Sn1 129.448(8) 9 34
Sb1 Ba1 Sn1 67.288(3) 5 34
Sb1 Ba1 Sn1 112.712(3) 29 34
Sb1 Ba1 Sn1 67.288(3) 25 34
Sn1 Ba1 Sn1 67.288(3) 25 34
Sn1 Ba1 Sb1 112.712(3) 33 26
Sn1 Ba1 Sb1 67.288(3) 9 26
Sn1 Ba1 Sb1 67.288(3) 29 26
Sn1 Ba1 Sb1 112.712(3) 5 26
Sb1 Ba1 Sb1 112.712(3) 33 26
Sb1 Ba1 Sb1 67.288(3) 9 26
Sb1 Ba1 Sb1 112.712(3) 5 26
Sb1 Ba1 Sb1 67.288(3) 29 26
Sb1 Ba1 Sb1 50.552(8) 25 26
Sn1 Ba1 Sb1 50.552(8) 25 26
Sn1 Ba1 Sb1 112.712(3) 34 26
Sn1 Ni1 Sn1 180.000(10) 41 5
Sn1 Ni1 Sn1 96.330(7) 41 37
Sn1 Ni1 Sn1 83.670(7) 5 37
Sn1 Ni1 Sb1 96.330(7) 41 37
Sn1 Ni1 Sb1 83.670(7) 5 37
Sn1 Ni1 Sb1 0.000(15) 37 37
Sn1 Ni1 Sb1 180.000(10) 41 5
Sn1 Ni1 Sb1 0.000(10) 5 5
Sn1 Ni1 Sb1 83.670(7) 37 5
Sb1 Ni1 Sb1 83.670(7) 37 5
Sn1 Ni1 Sb1 0.000(15) 41 41
Sn1 Ni1 Sb1 180.000(10) 5 41
Sn1 Ni1 Sb1 96.330(7) 37 41
Sb1 Ni1 Sb1 96.330(7) 37 41
Sb1 Ni1 Sb1 180.000(10) 5 41
Sn1 Ni1 Sn1 96.330(7) 41 45
Sn1 Ni1 Sn1 83.670(7) 5 45
Sn1 Ni1 Sn1 96.330(7) 37 45
Sb1 Ni1 Sn1 96.330(7) 37 45
Sb1 Ni1 Sn1 83.670(7) 5 45
Sb1 Ni1 Sn1 96.330(7) 41 45
Sn1 Ni1 Sb1 96.330(7) 41 45
Sn1 Ni1 Sb1 83.670(7) 5 45
Sn1 Ni1 Sb1 96.330(7) 37 45
Sb1 Ni1 Sb1 96.330(7) 37 45
Sb1 Ni1 Sb1 83.670(7) 5 45
Sb1 Ni1 Sb1 96.330(7) 41 45
Sn1 Ni1 Sb1 0.000(11) 45 45
Sn1 Ni1 Sb1 83.670(7) 41 9
Sn1 Ni1 Sb1 96.330(7) 5 9
Sn1 Ni1 Sb1 83.670(7) 37 9
Sb1 Ni1 Sb1 83.670(7) 37 9
Sb1 Ni1 Sb1 96.330(7) 5 9
Sb1 Ni1 Sb1 83.670(7) 41 9
Sn1 Ni1 Sb1 180.0 45 9
Sb1 Ni1 Sb1 180.0 45 9
Sn1 Ni1 Sn1 83.670(7) 41 9
Sn1 Ni1 Sn1 96.330(7) 5 9
Sn1 Ni1 Sn1 83.670(7) 37 9
Sb1 Ni1 Sn1 83.670(7) 37 9
Sb1 Ni1 Sn1 96.330(7) 5 9
Sb1 Ni1 Sn1 83.670(7) 41 9
Sn1 Ni1 Sn1 180.0 45 9
Sb1 Ni1 Sn1 180.0 45 9
Sb1 Ni1 Sn1 0.000(15) 9 9
Sn1 Ni1 Sb1 83.671(7) 41 .
Sn1 Ni1 Sb1 96.329(7) 5 .
Sn1 Ni1 Sb1 180.0 37 .
Sb1 Ni1 Sb1 180.0 37 .
Sb1 Ni1 Sb1 96.329(7) 5 .
Sb1 Ni1 Sb1 83.671(7) 41 .
Sn1 Ni1 Sb1 83.670(7) 45 .
Sb1 Ni1 Sb1 83.670(7) 45 .
Sb1 Ni1 Sb1 96.330(7) 9 .
Sn1 Ni1 Sb1 96.330(7) 9 .
Ni1 Sb1 Ni1 126.011(10) 16_455 .
Ni1 Sb1 Sn1 108.966(5) 16_455 26_556
Ni1 Sb1 Sn1 108.966(5) . 26_556
Ni1 Sb1 Sb1 108.966(5) 16_455 26_556
Ni1 Sb1 Sb1 108.966(5) . 26_556
Sn1 Sb1 Sb1 0.000(10) 26_556 26_556
Ni1 Sb1 Sn1 108.473(5) 16_455 2
Ni1 Sb1 Sn1 108.473(5) . 2
Sn1 Sb1 Sn1 90.0 26_556 2
Sb1 Sb1 Sn1 90.0 26_556 2
Ni1 Sb1 Sb1 108.473(5) 16_455 2
Ni1 Sb1 Sb1 108.473(5) . 2
Sn1 Sb1 Sb1 90.0 26_556 2
Sb1 Sb1 Sb1 90.0 26_556 2
Sn1 Sb1 Sb1 0.000(10) 2 2
Ni1 Sb1 Ba1 80.874(6) 16_455 .
Ni1 Sb1 Ba1 80.874(6) . .
Sn1 Sb1 Ba1 154.725(4) 26_556 .
Sb1 Sb1 Ba1 154.725(4) 26_556 .
Sn1 Sb1 Ba1 64.724(4) 2 .
Sb1 Sb1 Ba1 64.724(4) 2 .
loop_
_geom_bond_atom_site_label_1
_geom_bond_atom_site_label_2
_geom_bond_distance
_geom_bond_site_symmetry_2
Ba1 Sn1 3.4711(3) 33
Ba1 Sn1 3.4711(3) 9
Ba1 Sn1 3.4711(3) 29
Ba1 Sn1 3.4711(3) 5
Ba1 Sb1 3.4711(3) 33
Ba1 Sb1 3.4711(3) 9
Ba1 Sb1 3.4711(3) 5
Ba1 Sb1 3.4711(3) 29
Ba1 Sb1 3.4711(3) 25
Ba1 Sn1 3.4711(3) 25
Ba1 Sn1 3.4711(3) 34
Ba1 Sb1 3.4711(3) 26
Ni1 Sn1 2.58107(13) 41
Ni1 Sn1 2.58108(13) 5
Ni1 Sn1 2.58108(13) 37
Ni1 Sb1 2.58108(13) 37
Ni1 Sb1 2.58108(13) 5
Ni1 Sb1 2.58107(13) 41
Ni1 Sn1 2.58108(13) 45
Ni1 Sb1 2.58108(13) 45
Ni1 Sb1 2.58108(13) 9
Ni1 Sn1 2.58108(13) 9
Ni1 Sb1 2.58109(13) .
Sb1 Ni1 2.58109(13) 16_455
Sb1 Sn1 2.9220(5) 26_556
Sb1 Sb1 2.9220(5) 26_556
Sb1 Sn1 2.9641(5) 2
Sb1 Sb1 2.9641(5) 2
