#------------------------------------------------------------------------------
#$Date: 2016-08-07 11:58:26 +0300 (Sun, 07 Aug 2016) $
#$Revision: 185390 $
#$URL: file:///home/coder/svn-repositories/cod/cif/7/03/96/7039606.cif $
#------------------------------------------------------------------------------
#
# This file is available in the Crystallography Open Database (COD),
# http://www.crystallography.net/
#
# All data on this site have been placed in the public domain by the
# contributors.
#
data_7039606
loop_
_publ_author_name
'Paschinger, W.'
'Rogl, G.'
'Grytsiv, A.'
'Michor, H.'
'Heinrich, P. R.'
'M\"uller, H'
'Puchegger, S.'
'Klobes, B.'
'Hermann, R. P.'
'Reinecker, M.'
'Eisenmenger-Sitter, Ch'
'Broz, P.'
'Bauer, E.'
'Giester, G.'
'Zehetbauer, M.'
'Rogl, P. F.'
_publ_section_title
;
 Ba-filled Ni-Sb-Sn based skutterudites with anomalously high lattice
 thermal conductivity.
;
_journal_issue                   27
_journal_name_full
'Dalton transactions (Cambridge, England : 2003)'
_journal_page_first              11071
_journal_page_last               11100
_journal_paper_doi               10.1039/c6dt01298a
_journal_volume                  45
_journal_year                    2016
_chemical_formula_sum            'Ba1.98 Ni8 Sb12.24 Sn11.76'
_chemical_formula_weight         3627.63
_chemical_name_systematic
;
 ?
;
_space_group_crystal_system      cubic
_space_group_IT_number           204
_space_group_name_Hall           '-I 2 2 3'
_space_group_name_H-M_alt        'I m -3'
_symmetry_space_group_name_Hall  '-I 2 2 3'
_symmetry_space_group_name_H-M   'I m -3'
_audit_creation_method           SHELXL-2013
_cell_angle_alpha                90
_cell_angle_beta                 90
_cell_angle_gamma                90
_cell_formula_units_Z            1
_cell_length_a                   9.1854(2)
_cell_length_b                   9.1854(2)
_cell_length_c                   9.1854(2)
_cell_measurement_temperature    100(2)
_cell_volume                     774.99(3)
_computing_structure_refinement  'SHELXL-2013 (Sheldrick, 2013)'
_diffrn_ambient_temperature      100(2)
_diffrn_measured_fraction_theta_full 0.993
_diffrn_measured_fraction_theta_max 0.978
_diffrn_radiation_type           MoK\a
_diffrn_radiation_wavelength     0.71069
_diffrn_reflns_av_R_equivalents  0.0112
_diffrn_reflns_av_unetI/netI     0.0124
_diffrn_reflns_Laue_measured_fraction_full 0.993
_diffrn_reflns_Laue_measured_fraction_max 0.978
_diffrn_reflns_limit_h_max       15
_diffrn_reflns_limit_h_min       -14
_diffrn_reflns_limit_k_max       10
_diffrn_reflns_limit_k_min       -10
_diffrn_reflns_limit_l_max       10
_diffrn_reflns_limit_l_min       -10
_diffrn_reflns_number            621
_diffrn_reflns_point_group_measured_fraction_full 0.993
_diffrn_reflns_point_group_measured_fraction_max 0.978
_diffrn_reflns_theta_full        25.240
_diffrn_reflns_theta_max         36.283
_diffrn_reflns_theta_min         3.136
_exptl_absorpt_coefficient_mu    26.910
_exptl_crystal_density_diffrn    7.773
_exptl_crystal_F_000             1547
_exptl_crystal_size_max          0.100
_exptl_crystal_size_mid          0.070
_exptl_crystal_size_min          0.040
_refine_diff_density_max         1.274
_refine_diff_density_min         -1.124
_refine_diff_density_rms         0.250
_refine_ls_extinction_coef       0.00217(10)
_refine_ls_extinction_expression Fc^*^=kFc[1+0.001xFc^2^\l^3^/sin(2\q)]^-1/4^
_refine_ls_extinction_method     SHELXL
_refine_ls_goodness_of_fit_ref   1.422
_refine_ls_hydrogen_treatment    undef
_refine_ls_matrix_type           full
_refine_ls_number_parameters     12
_refine_ls_number_reflns         359
_refine_ls_number_restraints     0
_refine_ls_restrained_S_all      1.422
_refine_ls_R_factor_all          0.0176
_refine_ls_R_factor_gt           0.0172
_refine_ls_shift/su_max          0.052
_refine_ls_shift/su_mean         0.012
_refine_ls_structure_factor_coef Fsqd
_refine_ls_weighting_details
;
 w=1/[\s^2^(Fo^2^)+(0.0117P)^2^+6.6050P]
 where P=(Fo^2^+2Fc^2^)/3
;
_refine_ls_weighting_scheme      calc
_refine_ls_wR_factor_gt          0.0413
_refine_ls_wR_factor_ref         0.0414
_reflns_Friedel_coverage         0.000
_reflns_number_gt                354
_reflns_number_total             359
_reflns_threshold_expression     'I > 2\s(I)'
_cod_data_source_file            c6dt01298a1.cif
_cod_data_source_block           bani4sb6sn6_100k
_cod_depositor_comments
'Adding full bibliography for 7039602--7039607.cif.'
_cod_original_cell_volume        774.99(5)
_cod_database_code               7039606
_shelx_space_group_comment
;
The symmetry employed for this shelxl refinement is uniquely defined
by the following loop, which should always be used as a source of
symmetry information in preference to the above space-group names.
They are only intended as comments.
;
_shelx_estimated_absorpt_t_min   0.174
_shelx_estimated_absorpt_t_max   0.412
_shelxl_version_number           2013-2
_shelx_res_file
;
TITL  bani4sb6sn6_
REM  BaNi4Sb6Sn6
CELL 0.71069     9.1854   9.1854   9.1854  90.000  90.000  90.000
ZERR     1  0.00020  0.00020  0.00020  0.00000  0.00000  0.00000
REM SG 204 48 24 Im-3 I2/m-3 PGm3bar cubic
LATT 2
REM SG  ORGN  at Inv.cen. m-3
SYMM -X,-Y,Z
SYMM -X,Y,-Z
SYMM X,-Y,-Z
SYMM Z,X,Y
SYMM Z,-X,-Y
SYMM -Z,-X,Y
SYMM -Z,X,-Y
SYMM Y,Z,X
SYMM -Y,Z,-X
SYMM Y,-Z,-X
SYMM -Y,-Z,X
SFAC  BA  NI  SB   SN
UNIT      1.98    8   12.24   11.76
SIZE    0.100  0.070  0.040
TEMP     -173.15
EXYZ   SB1 SN1
EADP   SB1 SN1
L.S. 1
ACTA
BOND
FMAP 2
PLAN 20
WGHT    0.011700    6.605000
EXTI    0.002175
FVAR       0.13924   0.98885
BA1   1    0.000000    0.000000    0.000000    20.04167    0.00299    0.00299 =
         0.00299    0.00000    0.00000    0.00000
NI1   2    0.250000    0.250000    0.250000    10.16667    0.00321    0.00321 =
         0.00321    0.00040    0.00040    0.00040
SB1   3    0.000000    0.162410    0.342378    10.25500    0.00233    0.00359 =
         0.00284    0.00002    0.00000    0.00000
SN1   4    0.000000    0.162410    0.342378    10.24500    0.00233    0.00359 =
         0.00284    0.00002    0.00000    0.00000
HKLF 4

REM   bani4sb6sn6_
REM R1 =  0.0172 for     354 Fo > 4sig(Fo)  and  0.0176 for all     359 data
REM     12 parameters refined using      0 restraints

END

WGHT      0.0102      7.4339

REM Highest difference peak  1.274,  deepest hole -1.124,  1-sigma level  0.250
Q1    1   0.0000  0.2462  0.3394  10.50000  0.05    1.27
Q2    1   0.0746  0.1649  0.3504  11.00000  0.05    1.23
Q3    1   0.0000  0.1687  0.4160  10.50000  0.05    1.19
Q4    1   0.0000  0.0813  0.3356  10.50000  0.05    1.15
Q5    1   0.0000  0.0000  0.0848  10.25000  0.05    1.14
Q6    1   0.0000  0.0000  0.3294  10.25000  0.05    0.83
Q7    1   0.0000  0.3316  0.3289  10.50000  0.05    0.81
Q8    1   0.3374  0.1811  0.1754  11.00000  0.05    0.77
Q9    1  -0.1181  0.0000  0.5000  10.25000  0.05    0.75
Q10   1   0.0000  0.3394  0.4424  10.50000  0.05    0.67
Q11   1   0.2520  0.1547  0.2469  11.00000  0.05    0.66
Q12   1   0.0380  0.1621  0.2448  11.00000  0.05    0.65
Q13   1   0.0000  0.1664  0.5000  10.25000  0.05    0.65
Q14   1   0.0000  0.0420  0.4046  10.50000  0.05    0.65
Q15   1   0.0000  0.0626  0.5000  10.25000  0.05    0.64
Q16   1   0.0000  0.0928  0.0985  10.50000  0.05    0.63
Q17   1   0.0000  0.0000  0.2374  10.25000  0.05    0.63
Q18   1   0.0000  0.1589  0.2782  10.50000  0.05    0.62
Q19   1   0.0000  0.2390  0.1521  10.50000  0.05    0.62
Q20   1   0.2801  0.4023  0.1610  11.00000  0.05    0.60
;
_shelx_res_checksum              10251
_shelx_hkl_file
;
   1   1   0    6.00    0.10   1
   2   0   0   59.50    0.60   1
   2   1   1    5.40    0.10   1
  -2  -1  -1    5.40    0.10   1
   2   2   0   73.00    0.50   1
   2   2   2  131.90    1.60   1
  -2  -2  -2  132.90    1.60   1
   3   0   1 1070.10    6.10   1
   3   1   0 6698.50   36.80   1
   3   1   2   58.60    0.50   1
  -3  -1  -2   60.80    0.50   1
   3   2   1 3187.60   16.40   1
  -3  -2  -1 3214.00   16.80   1
   3   3   0  872.10    4.90   1
   3   3   2  882.60    5.00   1
  -3  -3  -2  888.90    4.90   1
   4   0   0  568.10    4.50   1
   4   0   2 1435.00    8.00   1
   4   1   1    6.20    0.20   1
  -4  -1  -1    6.30    0.20   1
   4   1   3 4033.80   22.10   1
  -4  -1  -3 4002.80   22.50   1
   4   2   0 2098.60   11.80   1
   4   2   2 3164.40   16.70   1
  -4  -2  -2 3201.70   17.30   1
   4   3   1   23.60    0.30   1
  -4  -3  -1   23.00    0.30   1
   4   3   3  479.00    3.00   1
  -4  -3  -3  483.10    3.10   1
   4   4   0    5.20    0.20   1
   4   4   2  580.40    3.90   1
  -4  -4  -2  590.30    3.60   1
   4   4   4 3608.30   43.70   1
  -4  -4  -4 3833.70   43.40   1
   5   0   1    2.40    0.20   1
   5   0   3 3978.00   21.60   1
   5   1   0  193.70    1.30   1
   5   1   2    4.10    0.20   1
  -5  -1  -2    4.00    0.20   1
   5   1   4   29.10    0.50   1
  -5  -1  -4   29.10    0.50   1
   5   2   1   90.20    0.70   1
  -5  -2  -1   92.00    0.70   1
   5   2   3   10.40    0.20   1
  -5  -2  -3   11.40    0.20   1
   5   3   0  456.80    2.80   1
   5   3   2 1555.00    9.70   1
  -5  -3  -2 1585.70    9.00   1
   5   3   4 2042.80   14.60   1
  -5  -3  -4 2124.90   14.60   1
   5   4   1   61.90    0.70   1
  -5  -4  -1   58.70    0.60   1
   5   4   3  110.70    1.20   1
  -5  -4  -3  116.90    1.10   1
   5   5   0  118.10    1.20   1
   5   5   2   22.70    0.50   1
  -5  -5  -2   24.70    0.40   1
   5   5   4    7.50    0.40   1
  -5  -5  -4    7.30    0.30   1
   6   0   0 6763.10   57.30   1
   6   0   2 1097.00    6.70   1
   6   0   4  270.50    2.30   1
   6   1   1    6.50    0.30   1
  -6  -1  -1    6.50    0.20   1
   6   1   3  504.90    3.50   1
  -6  -1  -3  512.70    3.60   1
   6   1   5    3.50    0.30   1
  -6  -1  -5    3.40    0.30   1
   6   2   0  988.90    6.20   1
   6   2   2  891.30    5.90   1
  -6  -2  -2  906.70    6.20   1
   6   2   4   30.80    0.50   1
  -6  -2  -4   32.70    0.60   1
   6   3   1 4795.10   29.80   1
  -6  -3  -1 4944.20   30.30   1
   6   3   3  448.00    3.60   1
  -6  -3  -3  460.00    3.30   1
   6   3   5 2571.00   18.90   1
  -6  -3  -5 2655.20   20.20   1
   6   4   0  337.00    2.50   1
   6   4   2    4.90    0.30   1
  -6  -4  -2    5.40    0.30   1
   6   4   4  917.30    7.30   1
  -6  -4  -4  943.10    6.60   1
   6   5   1  105.50    1.10   1
  -6  -5  -1  105.50    1.10   1
   6   5   3  218.70    2.10   1
  -6  -5  -3  224.50    1.90   1
   6   5   5   72.60    1.20   1
  -6  -5  -5   73.00    1.10   1
   6   6   0 8509.00   61.80   1
   6   6   2   16.20    0.50   1
  -6  -6  -2   17.40    0.50   1
   6   6   4  170.20    2.10   1
  -6  -6  -4  167.70    1.90   1
   6   6   6 3545.60   54.70   1
  -6  -6  -6 3574.90   53.50   1
   7   0   1    5.20    0.20   1
   7   0   3 5798.20   38.50   1
   7   0   5  123.60    1.50   1
   7   1   0  133.50    1.20   1
   7   1   2    8.40    0.30   1
  -7  -1  -2    8.10    0.30   1
   7   1   4    4.00    0.30   1
  -7  -1  -4    3.30    0.30   1
   7   1   6   94.70    1.40   1
  -7  -1  -6   93.60    1.30   1
   7   2   1   22.80    0.50   1
  -7  -2  -1   23.60    0.50   1
   7   2   3  123.40    1.20   1
  -7  -2  -3  125.80    1.40   1
   7   2   5   24.70    0.50   1
  -7  -2  -5   23.50    0.50   1
   7   3   0  721.00    5.00   1
   7   3   2 2352.70   15.90   1
  -7  -3  -2 2406.30   16.50   1
   7   3   4 3102.10   24.00   1
  -7  -3  -4 3194.80   22.30   1
   7   3   6  417.90    4.20   1
  -7  -3  -6  421.60    4.20   1
   7   4   1   58.60    0.90   1
  -7  -4  -1   58.90    0.80   1
   7   4   3    4.10    0.40   1
  -7  -4  -3    4.30    0.30   1
   7   4   5   70.60    1.20   1
  -7  -4  -5   73.70    1.10   1
   7   5   0   70.00    0.90   1
   7   5   2   90.00    1.20   1
  -7  -5  -2   94.40    1.10   1
   7   5   4   76.90    1.20   1
  -7  -5  -4   75.90    1.10   1
   7   5   6   50.40    1.20   1
  -7  -5  -6   50.50    1.10   1
   7   6   1    4.10    0.40   1
  -7  -6  -1    6.10    0.50   1
   7   6   3 4142.30   33.50   1
  -7  -6  -3 4240.60   33.80   1
   7   6   5   76.70    1.50   1
  -7  -6  -5   74.80    1.30   1
   7   7   0   93.70    1.50   1
   7   7   2   13.10    0.70   1
  -7  -7  -2   13.20    0.60   1
   7   7   4   22.80    0.80   1
  -7  -7  -4   24.00    0.70   1
   7   7   6   83.50    1.90   1
  -7  -7  -6   83.30    1.60   1
   8   0   0 1784.60   18.80   1
   8   0   2  715.10    5.10   1
   8   0   4   19.70    0.50   1
   8   0   6   85.00    1.40   1
   8   1   1   15.10    0.40   1
  -8  -1  -1   15.10    0.40   1
   8   1   3  849.90    6.40   1
  -8  -1  -3  856.00    6.80   1
   8   1   5   61.10    1.00   1
  -8  -1  -5   63.30    1.10   1
   8   1   7    1.50    0.50   1
  -8  -1  -7    1.40    0.50   1
   8   2   0  363.10    3.00   1
   8   2   2 1019.80    7.40   1
  -8  -2  -2 1019.80    8.80   1
   8   2   4   43.40    0.90   1
  -8  -2  -4   44.50    0.80   1
   8   2   6  102.90    1.70   1
  -8  -2  -6  100.40    1.60   1
   8   3   1  199.80    2.00   1
  -8  -3  -1  201.70    2.00   1
   8   3   3  628.40    5.10   1
  -8  -3  -3  638.20    5.40   1
   8   3   5   25.80    0.70   1
  -8  -3  -5   25.90    0.70   1
   8   3   7  291.90    3.60   1
  -8  -3  -7  290.00    3.50   1
   8   4   0   89.30    1.20   1
   8   4   2   45.40    0.90   1
  -8  -4  -2   44.00    0.80   1
   8   4   4 1281.90   11.10   1
  -8  -4  -4 1310.00   11.70   1
   8   4   6  217.00    2.80   1
  -8  -4  -6  216.40    2.70   1
   8   5   1   10.40    0.60   1
  -8  -5  -1   10.50    0.50   1
   8   5   3  400.70    4.30   1
  -8  -5  -3  417.80    3.90   1
   8   5   5   32.10    1.00   1
  -8  -5  -5   35.30    1.00   1
   8   5   7    1.50    0.80   1
  -8  -5  -7    1.30    0.60   1
   8   6   0  113.20    1.70   1
   8   6   2   13.40    0.60   1
  -8  -6  -2   14.10    0.60   1
   8   6   4  684.60    6.90   1
  -8  -6  -4  693.20    6.90   1
   8   6   6  860.50    9.80   1
  -8  -6  -6  863.70    8.60   1
   8   7   1   11.90    0.70   1
  -8  -7  -1   11.80    0.60   1
   8   7   3  808.70    8.60   1
  -8  -7  -3  803.00    8.20   1
   8   7   5   55.50    1.50   1
  -8  -7  -5   55.40    1.40   1
   8   7   7    2.20    0.80   1
  -8  -7  -7    1.90    0.70   1
   8   8   0   96.10    1.90   1
   8   8   2    3.50    0.70   1
  -8  -8  -2    1.60    0.60   1
   8   8   4  495.00    6.40   1
  -8  -8  -4  493.50    5.80   1
   8   8   6  116.10    2.70   1
  -8  -8  -6  110.30    2.10   1
   8   8   8  235.80    9.80   1
  -8  -8  -8  231.20    7.00   1
   9   0   1  455.10    4.00   1
   9   0   3  216.80    2.30   1
   9   0   5  204.40    2.60   1
   9   0   7  439.60    5.50   1
   9   1   0 3401.20   24.40   1
   9   1   2   32.10    0.70   1
  -9  -1  -2   32.80    0.80   1
   9   1   4    4.20    0.40   1
  -9  -1  -4    2.20    0.40   1
   9   1   6 2471.40   21.90   1
  -9  -1  -6 2505.90   22.60   1
   9   1   8  124.00    2.40   1
  -9  -1  -8  118.90    2.30   1
   9   2   1 1314.80    9.90   1
  -9  -2  -1 1321.50   11.30   1
   9   2   3  292.30    2.90   1
  -9  -2  -3  285.20    3.50   1
   9   2   5  713.50    6.80   1
  -9  -2  -5  711.80    7.10   1
   9   2   7 1270.00   12.30   1
  -9  -2  -7 1250.50   12.90   1
   9   3   0  436.30    4.20   1
   9   3   2  287.00    2.80   1
  -9  -3  -2  283.00    3.10   1
   9   3   4  145.70    2.00   1
  -9  -3  -4  145.70    2.00   1
   9   3   6  296.30    3.70   1
  -9  -3  -6  290.70    3.60   1
   9   3   8  331.30    4.80   1
  -9  -3  -8  320.00    4.70   1
   9   4   1 1819.50   14.60   1
  -9  -4  -1 1802.50   16.00   1
   9   4   3  162.20    2.10   1
  -9  -4  -3  158.50    2.20   1
   9   4   5 1042.60   10.80   1
  -9  -4  -5 1035.60   10.20   1
   9   4   7 1738.90   18.50   1
  -9  -4  -7 1754.70   17.30   1
   9   5   0 1826.80   15.80   1
   9   5   2    5.20    0.70   1
  -9  -5  -2    2.20    0.40   1
   9   5   4   37.00    1.00   1
  -9  -5  -4   37.20    1.10   1
   9   5   6 1368.60   14.90   1
  -9  -5  -6 1359.60   14.00   1
   9   5   8   19.40    1.30   1
  -9  -5  -8   19.60    1.10   1
   9   6   1  276.10    3.50   1
  -9  -6  -1  272.20    3.30   1
   9   6   3  138.60    2.30   1
  -9  -6  -3  139.40    2.20   1
   9   6   5  130.50    2.40   1
  -9  -6  -5  135.10    2.50   1
   9   6   7  282.20    4.90   1
  -9  -6  -7  285.10    4.30   1
   9   7   0 3135.70   28.40   1
   9   7   2   78.40    1.60   1
  -9  -7  -2   81.20    1.80   1
   9   7   4    5.20    0.80   1
  -9  -7  -4    4.70    0.80   1
   9   7   6 2473.90   30.20   1
  -9  -7  -6 2523.30   27.30   1
   9   7   8  178.40    4.70   1
  -9  -7  -8  180.50    3.70   1
   9   8   1  450.70    5.90   1
  -9  -8  -1  435.60    5.70   1
   9   8   3  295.10    4.10   1
  -9  -8  -3  294.50    4.40   1
   9   8   5  223.20    4.50   1
  -9  -8  -5  232.70    3.90   1
   9   8   7  460.80    8.80   1
  -9  -8  -7  453.90    7.70   1
   9   9   0  169.60    3.20   1
   9   9   2  137.10    2.90   1
  -9  -9  -2  133.10    2.90   1
   9   9   4   59.00    1.90   1
  -9  -9  -4   61.50    2.00   1
   9   9   6  127.50    3.90   1
  -9  -9  -6  125.20    3.30   1
   9   9   8  153.10    8.20   1
  -9  -9  -8  163.20    8.30   1
  10   0   0  419.00    5.80   1
  10   0   2    6.30    0.50   1
  10   0   4  671.30    6.40   1
  10   0   6   12.00    0.90   1
  10   0   8  200.30    3.50   1
  10   1   1    5.50    0.40   1
 -10  -1  -1    5.20    0.50   1
  10   1   3 2502.70   20.50   1
 -10  -1  -3 2475.00   22.90   1
  10   1   5   25.70    0.90   1
 -10  -1  -5   23.10    0.90   1
  10   1   7   47.60    1.50   1
 -10  -1  -7   45.60    1.50   1
  10   1   9 1486.50   17.70   1
 -10  -1  -9 1470.40   18.60   1
  10   2   0   50.60    1.00   1
  10   2   2  260.90    2.80   1
 -10  -2  -2  262.10    3.20   1
  10   2   4 1920.30   16.30   1
 -10  -2  -4 1905.90   18.30   1
  10   2   6  716.30    7.90   1
 -10  -2  -6  710.60    7.60   1
  10   2   8  725.40    9.60   1
 -10  -2  -8  720.30    9.20   1
  10   3   1   62.90    1.10   1
 -10  -3  -1   65.70    1.20   1
  10   3   3  152.30    2.10   1
 -10  -3  -3  148.10    2.20   1
  10   3   5  130.60    2.20   1
 -10  -3  -5  128.60    2.20   1
  10   3   7   18.30    1.10   1
 -10  -3  -7   14.90    1.00   1
  10   3   9   69.00    2.30   1
 -10  -3  -9   63.90    2.40   1
  10   4   0  812.80    7.80   1
  10   4   2 1912.80   16.30   1
 -10  -4  -2 1909.70   17.20   1
  10   4   4  743.40    8.30   1
 -10  -4  -4  719.20    8.30   1
  10   4   6   17.90    1.10   1
 -10  -4  -6   18.20    0.90   1
  10   4   8  137.90    2.90   1
 -10  -4  -8  139.30    3.10   1
  10   5   1   27.70    1.00   1
 -10  -5  -1   28.10    1.00   1
  10   5   3 1420.20   13.90   1
 -10  -5  -3 1429.10   15.00   1
  10   5   5    0.30    0.80   1
 -10  -5  -5    2.00    0.80   1
  10   5   7   73.10    2.10   1
 -10  -5  -7   70.10    2.00   1
  10   5   9  886.60   15.60   1
 -10  -5  -9  870.60   16.10   1
  10   6   0   24.70    1.00   1
  10   6   2  345.60    4.20   1
 -10  -6  -2  352.20    5.10   1
  10   6   4    4.90    1.00   1
 -10  -6  -4    2.00    0.80   1
  10   6   6  248.60    4.30   1
 -10  -6  -6  244.10    4.00   1
  10   6   8   25.30    1.80   1
 -10  -6  -8   23.20    1.50   1
  10   7   1    1.90    0.70   1
 -10  -7  -1    2.00    0.90   1
  10   7   3 2329.30   23.70   1
 -10  -7  -3 2326.20   26.30   1
  10   7   5   52.50    2.20   1
 -10  -7  -5   47.40    2.00   1
  10   7   7   19.80    1.80   1
 -10  -7  -7   24.00    1.60   1
  10   7   9 1369.60   77.20   1
 -10  -7  -9 1463.50   78.90   1
  10   8   0  745.40    9.50   1
  10   8   2  722.60    9.10   1
 -10  -8  -2  709.70   10.00   1
  10   8   4  137.80    3.10   1
 -10  -8  -4  130.70    3.00   1
  10   8   6   44.40    2.20   1
 -10  -8  -6   40.20    1.90   1
 -10  -8  -8    8.90    3.10   1
  10   9   1   25.60    1.40   1
 -10  -9  -1   25.70    1.60   1
  10   9   3   56.30    2.20   1
 -10  -9  -3   55.80    2.20   1
  10   9   5   62.30    2.80   1
 -10  -9  -5   59.20    2.40   1
  10   9   7   11.50    5.70   1
 -10  -9  -7    2.90    3.20   1
  10  10   0   19.00    1.50   1
  10  10   2  443.80    8.90   1
 -10 -10  -2  432.50    7.90   1
  10  10   4 1727.10   34.10   1
 -10 -10  -4 1753.50   34.30   1
  11   0   1    2.00    0.50   1
  11   0   3 1046.80   10.60   1
  11   0   5   44.60    1.30   1
  11   0   7   24.70    1.20   1
  11   0   9  559.40    9.60   1
  11   1   0  352.00    3.90   1
  11   1   2    5.80    0.50   1
 -11  -1  -2    5.80    0.60   1
  11   1   4   34.50    1.10   1
 -11  -1  -4   33.90    1.10   1
  11   1   6  254.90    4.00   1
 -11  -1  -6  253.20    3.80   1
  11   1   8    1.70    1.10   1
 -11  -1  -8    5.20    1.10   1
  11   1  10   40.70    4.70   1
 -11  -1 -10   37.60    3.90   1
  11   2   1  138.30    2.00   1
 -11  -2  -1  137.30    2.10   1
  11   2   3   67.60    1.50   1
 -11  -2  -3   65.90    1.40   1
  11   2   5   53.10    1.50   1
 -11  -2  -5   51.90    1.40   1
  11   2   7  156.20    3.20   1
 -11  -2  -7  149.70    2.90   1
  11   2   9   27.20    1.80   1
 -11  -2  -9   28.50    1.80   1
  11   3   0   84.40    1.50   1
  11   3   2  376.40    4.20   1
 -11  -3  -2  364.00    4.50   1
  11   3   4  603.50    7.10   1
 -11  -3  -4  609.20    7.40   1
  11   3   6   54.20    1.70   1
 -11  -3  -6   50.70    1.50   1
  11   3   8  109.00    3.00   1
 -11  -3  -8   97.80    2.80   1
  11   3  10  511.80   35.60   1
 -11  -3 -10  539.50   24.00   1
  11   4   1  128.30    2.10   1
 -11  -4  -1  125.80    2.00   1
  11   4   3  138.80    2.50   1
 -11  -4  -3  139.90    2.40   1
  11   4   5   38.60    1.50   1
 -11  -4  -5   42.60    1.50   1
  11   4   7  165.80    3.60   1
 -11  -4  -7  168.60    4.00   1
  11   4   9   74.70    3.80   1
 -11  -4  -9   75.60    4.00   1
  11   5   0  230.30    3.30   1
  11   5   2    3.40    0.70   1
 -11  -5  -2    2.40    0.80   1
  11   5   4    3.20    0.90   1
 -11  -5  -4    7.90    1.10   1
  11   5   6  179.70    3.80   1
 -11  -5  -6  178.80    3.50   1
  11   5   8    7.70    1.30   1
 -11  -5  -8    9.40    1.30   1
  11   6   1    1.50    0.70   1
 -11  -6  -1    2.30    1.00   1
  11   6   3  771.10    9.00   1
 -11  -6  -3  788.80   10.50   1
  11   6   5   31.00    1.70   1
 -11  -6  -5   30.40    1.60   1
  11   6   7   20.50    1.90   1
 -11  -6  -7   17.60    1.60   1
  11   7   0  309.20    5.20   1
  11   7   2   15.20    1.10   1
 -11  -7  -2   20.10    1.40   1
  11   7   4   55.00    1.90   1
 -11  -7  -4   54.70    2.20   1
  11   7   6  214.00    5.20   1
 -11  -7  -6  205.30    4.80   1
  11   8   1   79.00    2.40   1
 -11  -8  -1   86.90    2.60   1
  11   8   3    8.40    1.30   1
 -11  -8  -3    6.90    1.30   1
  11   8   5   40.00    2.10   1
 -11  -8  -5   42.90    2.20   1
  11   9   0   50.20    2.30   1
  11   9   2  221.70    5.30   1
 -11  -9  -2  227.10    5.00   1
  11   9   4  336.90   11.50   1
 -11  -9  -4  353.00    9.00   1
  11  10   1   77.70    6.50   1
 -11 -10  -1   67.00    6.00   1
  12   0   0 5530.60   66.90   1
  12   0   2    2.70    0.70   1
  12   0   4  121.70    2.50   1
  12   0   6 2345.80   25.00   1
  12   0   8  631.50   11.20   1
  12   1   1    6.20    0.70   1
 -12  -1  -1    6.90    0.70   1
  12   1   3  103.50    2.00   1
 -12  -1  -3  102.60    2.20   1
  12   1   5    3.50    0.90   1
 -12  -1  -5    4.00    0.90   1
  12   1   7    8.10    1.30   1
 -12  -1  -7   10.20    1.20   1
  12   1   9   75.10    5.30   1
 -12  -1  -9   96.00    7.20   1
  12   2   0   28.40    1.10   1
  12   2   2   22.40    1.00   1
 -12  -2  -2   24.30    1.10   1
  12   2   4  213.00    3.60   1
 -12  -2  -4  207.40    3.40   1
  12   2   6  191.60    3.50   1
 -12  -2  -6  186.80    3.80   1
  12   2   8  187.20    4.50   1
 -12  -2  -8  183.10    4.40   1
  12   3   1 2115.80   20.30   1
 -12  -3  -1 2082.20   20.50   1
  12   3   3  142.50    2.80   1
 -12  -3  -3  141.40    2.60   1
  12   3   5 1177.90   13.90   1
 -12  -3  -5 1164.70   13.80   1
  12   3   7 2187.70   30.60   1
 -12  -3  -7 2151.40   35.20   1
  12   4   0   43.40    1.30   1
  12   4   2  375.50    4.80   1
 -12  -4  -2  372.30    5.60   1
  12   4   4    2.50    0.90   1
 -12  -4  -4    3.40    0.90   1
  12   4   6  139.90    3.30   1
 -12  -4  -6  129.10    3.50   1
  12   4   8   -2.80    2.80   1
 -12  -4  -8   10.40    3.50   1
  12   5   1   27.50    1.10   1
 -12  -5  -1   31.90    1.50   1
  12   5   3   42.60    1.60   1
 -12  -5  -3   44.90    1.70   1
  12   5   5   21.50    1.60   1
 -12  -5  -5   23.50    1.70   1
  12   5   7   18.00    2.10   1
 -12  -5  -7   15.30    2.00   1
  12   6   0 2321.30   28.80   1
  12   6   2  283.60    4.70   1
 -12  -6  -2  289.00    5.20   1
  12   6   4   66.00    2.20   1
 -12  -6  -4   64.90    2.40   1
  12   6   6 3302.50   53.10   1
 -12  -6  -6 3408.80   60.50   1
  12   7   1   60.40    2.30   1
 -12  -7  -1   60.20    2.30   1
  12   7   3  111.90    3.00   1
 -12  -7  -3  112.10    3.30   1
  12   7   5   31.20    2.70   1
 -12  -7  -5   29.40    2.10   1
  12   8   0  435.00    8.30   1
  12   8   2   71.80    2.90   1
 -12  -8  -2   70.20    2.70   1
  12   8   4   38.60    4.80   1
 -12  -8  -4   48.50    3.80   1
  12   9   1 1402.30   77.20   1
 -12  -9  -1 1218.90   67.00   1
  13   0   1    3.40    1.00   1
  13   0   3 3406.40   37.30   1
  13   0   5   63.80    2.20   1
  13   0   7   53.10    3.40   1
  13   1   0  121.00    2.50   1
  13   1   2    5.60    0.90   1
 -13  -1  -2    6.10    0.90   1
  13   1   4    3.20    1.00   1
 -13  -1  -4    2.30    1.00   1
  13   1   6  105.80    3.20   1
 -13  -1  -6  105.50    3.30   1
  13   1   8    2.10    5.30   1
  13   2   1   28.40    1.30   1
 -13  -2  -1   28.70    1.20   1
  13   2   3   92.50    2.20   1
 -13  -2  -3   89.60    2.50   1
  13   2   5   24.60    1.60   1
 -13  -2  -5   21.60    1.60   1
  13   2   7   17.70    2.80   1
 -13  -2  -7   25.10    5.70   1
  13   3   0  363.20    5.60   1
  13   3   2 1361.20   15.60   1
 -13  -3  -2 1354.10   15.30   1
  13   3   4 1894.00   25.40   1
 -13  -3  -4 1823.00   24.90   1
  13   3   6  244.20    5.50   1
 -13  -3  -6  240.60    5.90   1
  13   4   1   58.60    1.90   1
 -13  -4  -1   58.10    2.20   1
  13   4   3    5.70    1.10   1
 -13  -4  -3    7.50    1.10   1
  13   4   5   58.50    2.40   1
 -13  -4  -5   62.40    2.40   1
  13   4   7   32.40    7.20   1
  13   5   0   72.30    2.50   1
  13   5   2   41.60    1.80   1
 -13  -5  -2   46.80    2.00   1
  13   5   4   50.30    1.90   1
 -13  -5  -4   49.20    2.10   1
  13   5   6   62.70    9.40   1
 -13  -5  -6   62.20    6.00   1
  13   6   1    2.50    1.30   1
 -13  -6  -1    3.00    1.20   1
  13   6   3 2780.20   39.90   1
 -13  -6  -3 2714.00   41.50   1
  13   6   5   37.90    5.00   1
  13   7   0  119.50    4.20   1
  13   7   2    5.60    2.30   1
 -13  -7  -2    8.40    2.30   1
  14   0   0  326.00    8.30   1
  14   0   2    7.40    1.20   1
  14   0   4  474.00    8.80   1
  14   0   6  951.00   57.40   1
  14   1   1   14.40    1.50   1
 -14  -1  -1   11.70    1.30   1
  14   1   3  127.80    3.40   1
 -14  -1  -3  133.70    3.60   1
  14   1   5   33.50    2.80   1
 -14  -1  -5   33.90    3.90   1
  14   2   0  118.20    3.20   1
  14   2   2    2.70    1.40   1
 -14  -2  -2    4.90    1.30   1
  14   2   4  298.30    6.40   1
 -14  -2  -4  294.60    7.50   1
  14   3   1  232.40    5.90   1
 -14  -3  -1  237.00    5.50   1
  14   3   3  413.10    8.00   1
 -14  -3  -3  431.60    8.10   1
  14   3   5   65.00    8.60   1
  14   4   0   55.00    2.50   1
  14   4   2  281.90    7.50   1
 -14  -4  -2  288.60    7.00   1
  14   4   4    5.70    3.00   1
 -14  -4  -4   11.80    3.80   1
  14   5   1   15.80    2.50   1
 -14  -5  -1   16.20    2.60   1
  14   5   3   47.90    6.90   1
 -14  -5  -3   45.60    7.70   1
  15   0   1  208.70    8.30   1
  15   1   0 1188.30   27.00   1
  15   1   2    9.60    5.00   1
  15   2   1  416.50   27.00   1
   0   0   0
;
_shelx_hkl_checksum              41100
loop_
_space_group_symop_operation_xyz
'x, y, z'
'-x, -y, z'
'-x, y, -z'
'x, -y, -z'
'z, x, y'
'z, -x, -y'
'-z, -x, y'
'-z, x, -y'
'y, z, x'
'-y, z, -x'
'y, -z, -x'
'-y, -z, x'
'x+1/2, y+1/2, z+1/2'
'-x+1/2, -y+1/2, z+1/2'
'-x+1/2, y+1/2, -z+1/2'
'x+1/2, -y+1/2, -z+1/2'
'z+1/2, x+1/2, y+1/2'
'z+1/2, -x+1/2, -y+1/2'
'-z+1/2, -x+1/2, y+1/2'
'-z+1/2, x+1/2, -y+1/2'
'y+1/2, z+1/2, x+1/2'
'-y+1/2, z+1/2, -x+1/2'
'y+1/2, -z+1/2, -x+1/2'
'-y+1/2, -z+1/2, x+1/2'
'-x, -y, -z'
'x, y, -z'
'x, -y, z'
'-x, y, z'
'-z, -x, -y'
'-z, x, y'
'z, x, -y'
'z, -x, y'
'-y, -z, -x'
'y, -z, x'
'-y, z, x'
'y, z, -x'
'-x+1/2, -y+1/2, -z+1/2'
'x+1/2, y+1/2, -z+1/2'
'x+1/2, -y+1/2, z+1/2'
'-x+1/2, y+1/2, z+1/2'
'-z+1/2, -x+1/2, -y+1/2'
'-z+1/2, x+1/2, y+1/2'
'z+1/2, x+1/2, -y+1/2'
'z+1/2, -x+1/2, y+1/2'
'-y+1/2, -z+1/2, -x+1/2'
'y+1/2, -z+1/2, x+1/2'
'-y+1/2, z+1/2, x+1/2'
'y+1/2, z+1/2, -x+1/2'
loop_
_atom_site_label
_atom_site_type_symbol
_atom_site_fract_x
_atom_site_fract_y
_atom_site_fract_z
_atom_site_U_iso_or_equiv
_atom_site_adp_type
_atom_site_occupancy
_atom_site_site_symmetry_order
_atom_site_calc_flag
_atom_site_refinement_flags_posn
_atom_site_refinement_flags_adp
_atom_site_refinement_flags_occupancy
Ba1 Ba 0.0000 0.0000 0.0000 0.0030(2) Uani 0.989(5) 24 d S T P
Ni1 Ni 0.2500 0.2500 0.2500 0.00321(15) Uani 1 6 d S T P
Sb1 Sb 0.0000 0.16241(2) 0.34238(2) 0.00292(9) Uani 0.51 2 d S T P
Sn1 Sn 0.0000 0.16241(2) 0.34238(2) 0.00292(9) Uani 0.49 2 d S T P
loop_
_atom_site_aniso_label
_atom_site_aniso_U_11
_atom_site_aniso_U_22
_atom_site_aniso_U_33
_atom_site_aniso_U_23
_atom_site_aniso_U_13
_atom_site_aniso_U_12
Ba1 0.0030(2) 0.0030(2) 0.0030(2) 0.000 0.000 0.000
Ni1 0.00321(15) 0.00321(15) 0.00321(15) 0.00040(12) 0.00040(12) 0.00040(12)
Sb1 0.00233(11) 0.00359(12) 0.00284(11) 0.00002(6) 0.000 0.000
Sn1 0.00233(11) 0.00359(12) 0.00284(11) 0.00002(6) 0.000 0.000
loop_
_atom_type_symbol
_atom_type_description
_atom_type_scat_dispersion_real
_atom_type_scat_dispersion_imag
_atom_type_scat_source
Ba Ba -0.3244 2.2819 'International Tables Vol C Tables 4.2.6.8 and 6.1.1.4'
Ni Ni 0.3393 1.1124 'International Tables Vol C Tables 4.2.6.8 and 6.1.1.4'
Sb Sb -0.5866 1.5461 'International Tables Vol C Tables 4.2.6.8 and 6.1.1.4'
Sn Sn -0.6537 1.4246 'International Tables Vol C Tables 4.2.6.8 and 6.1.1.4'
loop_
_geom_angle_atom_site_label_1
_geom_angle_atom_site_label_2
_geom_angle_atom_site_label_3
_geom_angle
_geom_angle_site_symmetry_1
_geom_angle_site_symmetry_3
Sn1 Ba1 Sn1 180.0 33 9
Sn1 Ba1 Sn1 67.218(3) 33 29
Sn1 Ba1 Sn1 112.782(3) 9 29
Sn1 Ba1 Sn1 112.782(3) 33 5
Sn1 Ba1 Sn1 67.218(3) 9 5
Sn1 Ba1 Sn1 180.0 29 5
Sn1 Ba1 Sb1 0.000(3) 33 33
Sn1 Ba1 Sb1 180.0 9 33
Sn1 Ba1 Sb1 67.218(3) 29 33
Sn1 Ba1 Sb1 112.782(3) 5 33
Sn1 Ba1 Sb1 180.0 33 9
Sn1 Ba1 Sb1 0.000(3) 9 9
Sn1 Ba1 Sb1 112.782(3) 29 9
Sn1 Ba1 Sb1 67.218(3) 5 9
Sb1 Ba1 Sb1 180.0 33 9
Sn1 Ba1 Sb1 112.782(3) 33 5
Sn1 Ba1 Sb1 67.218(3) 9 5
Sn1 Ba1 Sb1 180.0 29 5
Sn1 Ba1 Sb1 0.000(7) 5 5
Sb1 Ba1 Sb1 112.782(3) 33 5
Sb1 Ba1 Sb1 67.218(3) 9 5
Sn1 Ba1 Sb1 67.218(3) 33 29
Sn1 Ba1 Sb1 112.782(3) 9 29
Sn1 Ba1 Sb1 0.000(7) 29 29
Sn1 Ba1 Sb1 180.0 5 29
Sb1 Ba1 Sb1 67.218(3) 33 29
Sb1 Ba1 Sb1 112.782(3) 9 29
Sb1 Ba1 Sb1 180.0 5 29
Sn1 Ba1 Sb1 67.218(3) 33 25
Sn1 Ba1 Sb1 112.782(3) 9 25
Sn1 Ba1 Sb1 67.218(3) 29 25
Sn1 Ba1 Sb1 112.782(3) 5 25
Sb1 Ba1 Sb1 67.218(3) 33 25
Sb1 Ba1 Sb1 112.782(3) 9 25
Sb1 Ba1 Sb1 112.782(3) 5 25
Sb1 Ba1 Sb1 67.218(3) 29 25
Sn1 Ba1 Sn1 67.218(3) 33 25
Sn1 Ba1 Sn1 112.782(3) 9 25
Sn1 Ba1 Sn1 67.218(3) 29 25
Sn1 Ba1 Sn1 112.782(3) 5 25
Sb1 Ba1 Sn1 67.218(3) 33 25
Sb1 Ba1 Sn1 112.782(3) 9 25
Sb1 Ba1 Sn1 112.782(3) 5 25
Sb1 Ba1 Sn1 67.218(3) 29 25
Sb1 Ba1 Sn1 0.000(3) 25 25
Sn1 Ba1 Sn1 50.755(7) 33 34
Sn1 Ba1 Sn1 129.245(7) 9 34
Sn1 Ba1 Sn1 112.782(3) 29 34
Sn1 Ba1 Sn1 67.218(3) 5 34
Sb1 Ba1 Sn1 50.755(7) 33 34
Sb1 Ba1 Sn1 129.245(7) 9 34
Sb1 Ba1 Sn1 67.218(3) 5 34
Sb1 Ba1 Sn1 112.782(3) 29 34
Sb1 Ba1 Sn1 67.218(3) 25 34
Sn1 Ba1 Sn1 67.218(3) 25 34
Sn1 Ba1 Sn1 129.245(7) 33 10
Sn1 Ba1 Sn1 50.755(7) 9 10
Sn1 Ba1 Sn1 67.218(3) 29 10
Sn1 Ba1 Sn1 112.782(3) 5 10
Sb1 Ba1 Sn1 129.245(7) 33 10
Sb1 Ba1 Sn1 50.755(7) 9 10
Sb1 Ba1 Sn1 112.782(3) 5 10
Sb1 Ba1 Sn1 67.218(3) 29 10
Sb1 Ba1 Sn1 112.782(3) 25 10
Sn1 Ba1 Sn1 112.782(3) 25 10
Sn1 Ba1 Sn1 180.0 34 10
Sb1 Ni1 Sn1 83.223(6) . 45
Sb1 Ni1 Sb1 180.0 . 37
Sn1 Ni1 Sb1 96.777(6) 45 37
Sb1 Ni1 Sb1 96.777(6) . 5
Sn1 Ni1 Sb1 83.223(6) 45 5
Sb1 Ni1 Sb1 83.223(6) 37 5
Sb1 Ni1 Sb1 83.223(6) . 41
Sn1 Ni1 Sb1 96.777(6) 45 41
Sb1 Ni1 Sb1 96.777(6) 37 41
Sb1 Ni1 Sb1 180.0 5 41
Sb1 Ni1 Sb1 96.777(6) . 9
Sn1 Ni1 Sb1 180.0 45 9
Sb1 Ni1 Sb1 83.223(6) 37 9
Sb1 Ni1 Sb1 96.777(6) 5 9
Sb1 Ni1 Sb1 83.223(6) 41 9
Sb1 Ni1 Sb1 83.223(6) . 45
Sn1 Ni1 Sb1 0.000(9) 45 45
Sb1 Ni1 Sb1 96.777(6) 37 45
Sb1 Ni1 Sb1 83.223(6) 5 45
Sb1 Ni1 Sb1 96.777(6) 41 45
Sb1 Ni1 Sb1 180.0 9 45
Sb1 Ni1 Sn1 180.0 . 37
Sn1 Ni1 Sn1 96.777(6) 45 37
Sb1 Ni1 Sn1 0.000(13) 37 37
Sb1 Ni1 Sn1 83.223(6) 5 37
Sb1 Ni1 Sn1 96.777(6) 41 37
Sb1 Ni1 Sn1 83.223(6) 9 37
Sb1 Ni1 Sn1 96.777(6) 45 37
Sb1 Ni1 Sn1 96.777(6) . 5
Sn1 Ni1 Sn1 83.223(6) 45 5
Sb1 Ni1 Sn1 83.223(6) 37 5
Sb1 Ni1 Sn1 0.000(9) 5 5
Sb1 Ni1 Sn1 180.0 41 5
Sb1 Ni1 Sn1 96.777(6) 9 5
Sb1 Ni1 Sn1 83.223(6) 45 5
Sn1 Ni1 Sn1 83.223(6) 37 5
Sb1 Ni1 Sn1 83.223(6) . 41
Sn1 Ni1 Sn1 96.777(6) 45 41
Sb1 Ni1 Sn1 96.777(6) 37 41
Sb1 Ni1 Sn1 180.0 5 41
Sb1 Ni1 Sn1 0.000(13) 41 41
Sb1 Ni1 Sn1 83.223(6) 9 41
Sb1 Ni1 Sn1 96.777(6) 45 41
Sn1 Ni1 Sn1 96.777(6) 37 41
Sn1 Ni1 Sn1 180.0 5 41
Sb1 Ni1 Sn1 96.777(6) . 9
Sn1 Ni1 Sn1 180.0 45 9
Sb1 Ni1 Sn1 83.223(6) 37 9
Sb1 Ni1 Sn1 96.777(6) 5 9
Sb1 Ni1 Sn1 83.223(6) 41 9
Sb1 Ni1 Sn1 0.000(13) 9 9
Sb1 Ni1 Sn1 180.0 45 9
Sn1 Ni1 Sn1 83.223(6) 37 9
Sn1 Ni1 Sn1 96.777(6) 5 9
Sn1 Ni1 Sn1 83.223(6) 41 9
Ni1 Sb1 Ni1 126.029(9) 16_455 .
Ni1 Sb1 Sn1 109.225(4) 16_455 26_556
Ni1 Sb1 Sn1 109.225(5) . 26_556
Ni1 Sb1 Sb1 109.225(4) 16_455 26_556
Ni1 Sb1 Sb1 109.225(5) . 26_556
Sn1 Sb1 Sb1 0.000(9) 26_556 26_556
Ni1 Sb1 Sn1 108.193(5) 16_455 2
Ni1 Sb1 Sn1 108.193(5) . 2
Sn1 Sb1 Sn1 90.0 26_556 2
Sb1 Sb1 Sn1 90.0 26_556 2
Ni1 Sb1 Sb1 108.193(5) 16_455 2
Ni1 Sb1 Sb1 108.193(5) . 2
Sn1 Sb1 Sb1 90.0 26_556 2
Sb1 Sb1 Sb1 90.0 26_556 2
Sn1 Sb1 Sb1 0.000(8) 2 2
Ni1 Sb1 Ba1 80.579(5) 16_455 .
Ni1 Sb1 Ba1 80.579(5) . .
Sn1 Sb1 Ba1 154.622(4) 26_556 .
Sb1 Sb1 Ba1 154.622(4) 26_556 .
Sn1 Sb1 Ba1 64.622(4) 2 .
Sb1 Sb1 Ba1 64.622(4) 2 .
loop_
_geom_bond_atom_site_label_1
_geom_bond_atom_site_label_2
_geom_bond_distance
_geom_bond_site_symmetry_2
Ba1 Sn1 3.4807(2) 33
Ba1 Sn1 3.4807(2) 9
Ba1 Sn1 3.4807(2) 29
Ba1 Sn1 3.4807(2) 5
Ba1 Sb1 3.4807(2) 33
Ba1 Sb1 3.4807(2) 9
Ba1 Sb1 3.4807(2) 5
Ba1 Sb1 3.4807(2) 29
Ba1 Sb1 3.4807(2) 25
Ba1 Sn1 3.4807(2) 25
Ba1 Sn1 3.4807(2) 34
Ba1 Sn1 3.4807(2) 10
Ni1 Sb1 2.57692(12) .
Ni1 Sn1 2.57693(12) 45
Ni1 Sb1 2.57693(12) 37
Ni1 Sb1 2.57693(12) 5
Ni1 Sb1 2.57693(12) 41
Ni1 Sb1 2.57693(12) 9
Ni1 Sb1 2.57693(12) 45
Ni1 Sn1 2.57693(12) 37
Ni1 Sn1 2.57693(12) 5
Ni1 Sn1 2.57693(12) 41
Ni1 Sn1 2.57693(12) 9
Sb1 Ni1 2.57692(12) 16_455
Sb1 Sn1 2.8957(4) 26_556
Sb1 Sb1 2.8957(4) 26_556
Sb1 Sn1 2.9836(4) 2
Sb1 Sb1 2.9836(4) 2
