#------------------------------------------------------------------------------
#$Date: 2016-11-08 22:08:47 +0200 (Tue, 08 Nov 2016) $
#$Revision: 188246 $
#$URL: file:///home/coder/svn-repositories/cod/cif/7/04/07/7040781.cif $
#------------------------------------------------------------------------------
#
# This file is available in the Crystallography Open Database (COD),
# http://www.crystallography.net/
#
# All data on this site have been placed in the public domain by the
# contributors.
#
data_7040781
loop_
_publ_author_name
'Ohmagari, Hitomi'
'Ohtani, Ryo'
'Nakaya, Manabu'
'Ohba, Masaaki'
'Nakamura, Masaaki'
'Lindoy, Leonard F.'
'Sato, Osamu'
'Hayami, Shinya'
_publ_section_title
;
 Water-dependent charge-transfer-induced spin transition of Prussian blue
 analogues.
;
_journal_issue                   42
_journal_name_full
'Dalton transactions (Cambridge, England : 2003)'
_journal_page_first              16784
_journal_page_last               16788
_journal_paper_doi               10.1039/c6dt03474h
_journal_volume                  45
_journal_year                    2016
_chemical_formula_moiety         'C4.69 Co Fe0.78 N4.69 Na0.46 O1.31'
_chemical_formula_sum            'C4.69 Co Fe0.78 N4.69 Na0.46 O1.31'
_chemical_formula_weight         256.05
_space_group_crystal_system      cubic
_space_group_IT_number           225
_space_group_name_Hall           '-F 4 2 3'
_space_group_name_H-M_alt        'F m -3 m'
_symmetry_space_group_name_Hall  '-F 4 2 3'
_symmetry_space_group_name_H-M   'F m -3 m'
_atom_sites_solution_primary     direct
_atom_sites_solution_secondary   difmap
_audit_creation_date             2016-03-03
_audit_creation_method           'by CrystalStructure 4.1'
_audit_update_record
;
2016-05-12 deposited with the CCDC.
2016-09-29 downloaded from the CCDC.
;
_cell_angle_alpha                90.0000
_cell_angle_beta                 90.0000
_cell_angle_gamma                90.0000
_cell_formula_units_Z            4
_cell_length_a                   10.3323
_cell_length_b                   10.3323
_cell_length_c                   10.3323
_cell_measurement_reflns_used    25
_cell_measurement_temperature    298
_cell_measurement_theta_max      26.82
_cell_measurement_theta_min      25.08
_cell_volume                     1103.039
_computing_cell_refinement       'MSC/AFC Diffractometer Control'
_computing_data_collection
'MSC/AFC Diffractometer Control (Rigaku, 1998)'
_computing_data_reduction        'MSC/AFC Diffractometer Control'
_computing_molecular_graphics    'CrystalStructure 4.1'
_computing_publication_material  'CrystalStructure 4.1 (Rigaku, 2014)'
_computing_structure_refinement  'SHELXL2013 (Sheldrick, 2008)'
_computing_structure_solution    'Superflip (Palatinus, et al., 2007)'
_diffrn_ambient_temperature      298
_diffrn_measured_fraction_theta_full 1.000
_diffrn_measured_fraction_theta_max 1.000
_diffrn_measurement_device_type  'Rigaku AFC7R'
_diffrn_measurement_method       \w-2\q
_diffrn_radiation_type           'Mo K\a'
_diffrn_radiation_wavelength     0.71069
_diffrn_reflns_av_R_equivalents  0.0244
_diffrn_reflns_Laue_measured_fraction_full 1.000
_diffrn_reflns_Laue_measured_fraction_max 1.000
_diffrn_reflns_limit_h_max       18
_diffrn_reflns_limit_h_min       0
_diffrn_reflns_limit_k_max       18
_diffrn_reflns_limit_k_min       -18
_diffrn_reflns_limit_l_max       18
_diffrn_reflns_limit_l_min       0
_diffrn_reflns_number            1856
_diffrn_reflns_point_group_measured_fraction_full 1.000
_diffrn_reflns_point_group_measured_fraction_max 1.000
_diffrn_reflns_theta_full        25.240
_diffrn_reflns_theta_max         39.840
_diffrn_reflns_theta_min         3.415
_diffrn_standards_decay_%        -0.574
_diffrn_standards_interval_count 150
_diffrn_standards_number         3
_exptl_absorpt_coefficient_mu    2.529
_exptl_absorpt_correction_type   none
_exptl_crystal_colour            black
_exptl_crystal_density_diffrn    1.542
_exptl_crystal_density_method    'not measured'
_exptl_crystal_description       block
_exptl_crystal_F_000             495.16
_exptl_crystal_size_max          0.150
_exptl_crystal_size_mid          0.100
_exptl_crystal_size_min          0.100
_refine_diff_density_max         1.25
_refine_diff_density_min         -0.50
_refine_ls_extinction_method     none
_refine_ls_goodness_of_fit_ref   1.324
_refine_ls_number_parameters     13
_refine_ls_number_reflns         217
_refine_ls_number_restraints     0
_refine_ls_R_factor_all          0.0529
_refine_ls_R_factor_gt           0.0402
_refine_ls_shift/su_max          0.000
_refine_ls_structure_factor_coef Fsqd
_refine_ls_weighting_details
'w = 1/[\s^2^(Fo^2^)+(0.0655P)^2^+4.2823P] where P=(Fo^2^+2Fc^2^)/3'
_refine_ls_weighting_scheme      calc
_refine_ls_wR_factor_gt          0.1333
_refine_ls_wR_factor_ref         0.1473
_reflns_number_gt                153
_reflns_number_total             217
_reflns_threshold_expression     F^2^>2.0\s(F^2^)
_cod_data_source_file            c6dt03474h1.cif
_cod_data_source_block           global
_cod_depositor_comments          'Adding full bibliography for 7040781.cif.'
_cod_original_cell_volume        1103.0394
_cod_database_code               7040781
_shelxl_res_file
;

    shelxl.res created by SHELXL-2014/7

TITL ACADEMY No. 1 RT AFC
CELL  0.71069 10.33230 10.33230 10.33230 90.00000 90.00000 90.00000
ZERR  4 0.00000 0.00000 0.00000 0.00000 0.00000 0.00000
LATT 4
SYMM    +Y,    +Z,    +X
SYMM    +Z,    +X,    +Y
SYMM    +X,    +Y,    -Z
SYMM    +Y,    +Z,    -X
SYMM    +Z,    +X,    -Y
SYMM    +Y,    -Z,    -X
SYMM    +Z,    -X,    -Y
SYMM    -Z,    +X,    -Y
SYMM    -X,    +Y,    -Z
SYMM    -Y,    +Z,    -X
SYMM    +X,    -Y,    -Z
SYMM    +Y,    +X,    +Z
SYMM    +Z,    +Y,    +X
SYMM    +X,    +Z,    +Y
SYMM    +Y,    +X,    -Z
SYMM    +Z,    +Y,    -X
SYMM    +X,    +Z,    -Y
SYMM    -Z,    +Y,    -X
SYMM    -X,    +Z,    -Y
SYMM    +X,    -Z,    -Y
SYMM    +Y,    -X,    -Z
SYMM    +Z,    -Y,    -X
SYMM    -Y,    +X,    -Z
SFAC C N CO FE NA O
UNIT 18.760000 18.760000 4 3.120000 1.840000 5.240000
L.S. 20
FMAP 2
PLAN -10
WPDB -2
HTAB
BOND $H
CONF
LIST 4
TEMP 25.0
ACTA
SIZE 0.150 0.100 0.100
WGHT    0.065500    4.282300
FVAR       0.62838
CO1   3    0.500000    1.000000    0.500000    10.02083    0.01861    0.01861 =
         0.01861    0.00000    0.00000    0.00000
FE1   4    0.500000    0.500000    0.500000    10.01627    0.01523    0.01523 =
         0.01523    0.00000    0.00000    0.00000
NA1   5    0.750000    0.750000    0.750000    10.00960    0.08446    0.08446 =
         0.08446    0.00000    0.00000    0.00000
O2    6    0.500000    1.000000    0.724665    10.02737    0.07269    0.07269 =
         0.04184    0.00000    0.00000    0.00000
N1    2    0.500000    0.799092    0.500000    10.09763    0.04840    0.01347 =
         0.04840    0.00000    0.00000    0.00000
C1    1    0.500000    0.687161    0.500000    10.09763    0.02568    0.01975 =
         0.02568    0.00000    0.00000    0.00000
HKLF 4
 
REM  ACADEMY No. 1 RT AFC
REM R1 =  0.0402 for     153 Fo > 4sig(Fo)  and  0.0529 for all     217 data
REM     13 parameters refined using      0 restraints
 
END  
     
WGHT      0.0655      4.2823 

REM No hydrogen bonds found for HTAB generation

REM Highest difference peak  1.252,  deepest hole -0.500,  1-sigma level  0.213
Q1    1   0.7891  0.7109  0.7891  10.16667  0.05    1.25
Q2    1   0.5000  0.7500  0.7500  10.12500  0.05    1.00
Q3    1   0.5000  1.0000  0.6684  10.12500  0.05    0.30
Q4    1   0.5000  0.5000  0.6579  10.12500  0.05    0.14
Q5    1   0.5000  0.9323  0.7035  10.50000  0.05    0.11
Q6    1   0.5944  0.5944  0.7534  10.50000  0.05    0.11
Q7    1   0.5448  0.6406  0.7474  11.00000  0.05    0.10
Q8    1   0.6453  0.6453  0.8547  10.16667  0.05    0.07
Q9    1   0.9369  0.8109  0.8109  10.50000  0.05    0.06
Q10   1   0.5000  0.8489  0.7200  10.50000  0.05    0.06
;
_shelxl_hkl_file
;
   1   1   1  299.38    7.58
   1  -1   1  301.89    7.61
   0   0   216492.89   48.12
   0   2   016676.96   48.32
   2   0   016410.26   47.98
   0  -2   016538.68   48.17
   0  -2   2 9667.43   44.27
   2   2   0 9717.63   44.35
   0   2   2 9444.79   43.80
   2   0   2 9765.52   44.45
   2  -2   0 9880.58   44.67
   2   2   2  281.94   10.96
   2  -2   2  257.62   11.16
   3   1   1  153.15    9.64
   1   1   3  171.83    9.67
   1   3   1  175.47    9.95
   3  -1   1  163.37    9.62
   1  -3   1  159.41    9.47
   1  -1   3  162.28    9.48
   3   1   3    0.12    8.45
   1   3   3   -5.46    8.07
   3   3   1  -24.03    8.71
   3  -3   1    8.43    2.70
   1  -3   3  -11.35    8.24
   3  -1   3   -2.97    8.70
   3   3   3   63.66    5.88
   3  -3   3   62.89    5.82
   0  -4   033878.93   98.24
   0   4   034005.05   98.41
   0   0   433627.15   97.93
   4   0   033436.89   97.60
   0  -4   2 7411.27   49.26
   2   4   0 7440.14   49.31
   2  -4   0 7412.45   49.31
   0   4   2 7424.43   49.44
   0  -2   4 7355.17   49.18
   2   0   4 7391.81   49.32
   4   2   0 7358.97   49.13
   4   0   2 7337.80   49.02
   4  -2   0 7562.39   49.73
   0   2   4 7407.75   49.32
   2   4   2 2829.51   32.70
   4   2   2 2828.12   32.54
   2   2   4 2847.45   32.68
   2  -2   4 2798.58   32.63
   2  -4   2 2811.95   32.61
   4  -2   2 2886.76   33.02
   4   0   414888.42   78.85
   4  -4   014975.05   79.01
   0   4   414686.85   78.27
   0  -4   414765.00   78.50
   4   4   014656.57   78.24
   4   4   2 3281.65   39.07
   2   4   4 3293.36   39.34
   4   2   4 3303.43   39.56
   2  -4   4 3252.08   39.00
   4  -4   2 3347.96   39.38
   4  -2   4 3329.40   39.41
   4   4   4 6465.85   58.75
   4  -4   4 6508.23   59.18
   1   1   5  364.83   14.45
   1   5   1  419.14   15.15
   5   1   1  357.08   15.11
   1  -5   1  400.04   14.86
   1  -1   5  369.76   15.11
   5  -1   1  395.26   15.44
   5   3   1  276.44   14.32
   1   3   5  282.75   14.22
   1   5   3  282.17   14.28
   3   5   1  271.67   13.67
   5   1   3  279.60   14.24
   3   1   5  264.14   14.06
   1  -3   5  252.48   13.71
   3  -1   5  262.85   13.79
   5  -1   3  251.50   14.01
   5  -3   1  271.24   14.70
   3  -5   1  269.06   14.23
   1  -5   3  283.49   13.78
   3   5   3   97.13    8.43
   3   3   5  102.75    9.01
   5   3   3  114.61    8.98
   3  -5   3   92.26    8.53
   5  -3   3  124.81   12.12
   3  -3   5  108.58    8.67
   1   5   5  165.89   14.04
   5   1   5  180.92   14.32
   5   5   1  162.04   15.02
   1  -5   5  207.69   14.46
   5  -1   5  162.18   14.45
   5  -5   1  173.80   14.60
   3   5   5  243.57   16.73
   5   5   3  274.46   16.34
   5   3   5  258.80   16.38
   5  -3   5  263.48   16.34
   3  -5   5  256.44   16.15
   5  -5   3  238.22   16.25
   5   5   5   56.98    5.38
   5  -5   5   79.36    7.00
   6   0   014047.52   79.03
   0  -6   013951.26   78.74
   0   0   613802.10   78.44
   0   6   013843.74   78.49
   0  -2   6 6935.78   57.72
   6   0   2 6875.26   57.49
   0  -6   2 6880.88   57.48
   0   6   2 6792.57   57.12
   6   2   0 6876.03   57.57
   6  -2   0 7113.99   58.36
   2  -6   0 6993.13   57.82
   0   2   6 6936.72   57.74
   2   6   0 6973.60   57.96
   2   0   6 6818.01   57.22
   2   6   2 2045.43   33.11
   2   2   6 2041.56   33.18
   6   2   2 2023.99   32.99
   2  -6   2 2029.69   33.17
   2  -2   6 1965.73   32.64
   6  -2   2 2129.27   33.96
   0   6   4 6806.43   61.60
   6  -4   0 6819.14   61.75
   0  -6   4 6611.23   60.74
   0  -4   6 6680.59   60.94
   4   6   0 6730.87   61.51
   4  -6   0 6756.85   61.41
   6   0   4 6614.10   61.06
   6   4   0 6593.41   60.93
   4   0   6 6755.59   61.49
   0   4   6 6650.22   60.93
   2   6   4 3515.67   45.98
   4   2   6 3519.13   46.03
   4   6   2 3440.89   45.43
   6   2   4 3492.80   45.67
   6   4   2 3462.75   45.71
   2   4   6 3454.53   45.78
   4  -2   6 3558.23   46.63
   6  -4   2 3504.08   46.05
   4  -6   2 3483.91   46.15
   6  -2   4 3424.82   45.63
   2  -6   4 3550.22   46.13
   2  -4   6 3473.80   45.84
   4   4   6 3855.57   51.05
   4   6   4 3739.09   50.50
   6   4   4 3850.84   50.84
   4  -4   6 3815.46   50.96
   4  -6   4 3783.66   50.95
   6  -4   4 3849.55   50.71
   6   0   6 5698.67   62.97
   6  -6   0 5780.36   63.06
   6   6   0 5673.57   62.12
   0   6   6 5698.76   62.61
   0  -6   6 5696.12   62.61
   2   6   6 2692.52   44.61
   6   6   2 2636.23   44.72
   6   2   6 2665.90   44.78
   2  -6   6 2654.33   44.26
   6  -6   2 2699.64   44.74
   6  -2   6 2629.10   44.00
   6   6   4 3178.74   50.58
   6   4   6 3048.35   50.15
   4   6   6 3185.25   50.67
   6  -4   6 3260.05   51.51
   6  -6   4 3133.13   50.93
   4  -6   6 3233.87   51.06
   6   6   6 2578.04   49.54
   6  -6   6 2638.75   49.80
   7   1   1  -17.95   11.44
   1   7   1   11.44   10.51
   1   1   7    2.36   10.79
   7  -1   1   10.38   10.65
   1  -1   7    6.27    7.42
   1  -7   1   -5.67   10.73
   3   1   7   -0.68   10.62
   3   7   1  -14.72   11.34
   1   3   7  -16.49   11.59
   7   3   1   11.56   11.74
   7   1   3    8.65   11.50
   1   7   3   12.77   10.20
   1  -3   7   12.76   11.26
   3  -7   1    9.24    7.75
   7  -1   3    9.24   11.34
   1  -7   3   -6.54   11.38
   3  -1   7   11.00    7.99
   7  -3   1   11.58   10.83
   3   7   3   -4.27   13.17
   3   3   7    6.74    8.59
   7   3   3   11.46   11.95
   3  -3   7    5.15   11.28
   7  -3   3   12.37    3.95
   3  -7   3    2.01   12.30
   1   5   7   11.39    4.24
   7   1   5   18.16   12.36
   5   1   7    3.95   12.63
   5   7   1    1.24   12.21
   7   5   1   15.57    4.38
   1   7   5   15.46   11.94
   1  -5   7    7.31   13.35
   7  -5   1   10.69   12.91
   5  -1   7   18.00    4.32
   5  -7   1   23.09    4.22
   7  -1   5   18.00    4.24
   1  -7   5   13.41   12.99
   7   5   3  -16.42   13.67
   5   3   7   11.63    8.66
   3   5   7   -4.22   12.47
   3   7   5   -3.46   14.02
   7   3   5    8.74   12.09
   5   7   3    9.50   14.12
   7  -3   5   15.23   12.41
   3  -7   5   12.04    4.32
   5  -7   3   13.79   12.73
   3  -5   7    8.03   12.70
   7  -5   3    4.42   12.21
   5  -3   7   14.52   12.51
   5   7   5  -17.60   15.34
   5   5   7   13.93    4.58
   7   5   5    4.98   14.78
   5  -5   7   15.47   10.38
   7  -5   5   12.21   13.18
   5  -7   5   -7.95   13.73
   1   7   7   -6.35   13.20
   7   7   1   13.02    9.83
   7   1   7    6.96    9.16
   7  -1   7  -14.40   14.52
   1  -7   7  -28.11   14.53
   7  -7   1   12.17   12.08
   7   3   7    1.59   13.40
   3   7   7   -0.96   13.96
   7   7   3  -24.75   14.59
   3  -7   7    7.55   12.92
   7  -3   7  -23.08   14.81
   7  -7   3    8.25    5.61
   7   7   5  -13.99   15.07
   5   7   7   19.60   14.37
   7   5   7   -5.60   15.67
   5  -7   7   -3.74   15.22
   7  -5   7  -23.33   15.14
   7  -7   5  -22.39   15.50
   7   7   7    8.26   14.51
   7  -7   7   -5.50   15.15
   8   0   0 5062.67   57.02
   0   0   8 5138.21   57.50
   0  -8   0 5086.78   57.06
   0   8   0 5127.82   57.19
   8   0   2 1830.65   35.83
   0  -8   2 1911.11   37.16
   8   2   0 1874.91   36.71
   0  -2   8 1825.86   36.28
   2   8   0 1891.25   36.68
   0   8   2 1883.27   36.35
   8  -2   0 1935.98   37.36
   0   2   8 1816.94   36.03
   2  -8   0 1860.73   36.38
   2   0   8 1893.59   37.16
   2   2   8  497.51   21.78
   8   2   2  489.62   21.77
   2   8   2  512.63   21.87
   2  -2   8  506.09   22.15
   8  -2   2  474.46   22.37
   2  -8   2  573.25   21.95
   8  -4   0 2808.34   46.20
   4   0   8 2797.89   46.19
   0  -4   8 2808.24   46.66
   4   8   0 2622.43   44.92
   0   4   8 2823.71   46.62
   4  -8   0 2752.60   46.44
   8   0   4 2666.16   45.29
   0   8   4 2696.21   45.98
   0  -8   4 2694.79   45.84
   8   4   0 2705.69   45.64
   2   8   4  901.65   28.39
   8   2   4  903.94   28.91
   4   8   2  913.63   28.48
   2   4   8  919.15   28.18
   4   2   8  922.82   29.06
   8   4   2  951.36   28.90
   2  -8   4  945.20   28.72
   8  -4   2  934.67   28.80
   4  -8   2  919.33   28.39
   8  -2   4  932.23   28.72
   4  -2   8  927.18   29.06
   2  -4   8  904.66   28.61
   8   4   4 1521.87   37.33
   4   8   4 1432.57   37.04
   4   4   8 1535.75   37.40
   4  -4   8 1540.52   37.80
   8  -4   4 1570.94   38.15
   4  -8   4 1564.44   37.88
   8   0   6 1917.92   42.65
   8  -6   0 1910.97   42.13
   6  -8   0 1935.11   42.17
   8   6   0 1893.11   41.68
   6   8   0 1939.34   41.85
   0   8   6 1913.43   41.71
   6   0   8 1898.15   41.91
   0  -6   8 1916.64   41.99
   0   6   8 2023.92   42.88
   0  -8   6 1903.66   41.29
   6   2   8  930.83   31.05
   6   8   2  867.15   29.95
   2   6   8  972.53   31.67
   2   8   6  900.44   30.22
   8   2   6  916.38   30.58
   8   6   2  877.97   30.79
   2  -6   8  900.80   30.92
   8  -6   2  919.62   30.60
   8  -2   6  925.54   31.17
   6  -2   8  959.18   31.76
   2  -8   6  912.12   30.52
   6  -8   2  915.46   31.82
   4   8   6 1187.35   35.86
   4   6   8 1157.31   35.22
   6   8   4 1107.10   34.76
   6   4   8 1133.12   35.79
   8   4   6 1105.88   35.45
   8   6   4 1102.59   34.08
   4  -8   6 1056.41   33.69
   8  -6   4 1163.56   35.48
   8  -4   6 1214.37   36.33
   6  -8   4 1173.42   35.47
   6  -4   8 1165.40   35.66
   4  -6   8 1236.25   36.14
   6   8   6 1048.84   35.89
   6   6   8 1104.36   36.50
   8   6   6 1033.93   35.43
   6  -8   6 1030.86   36.05
   8  -6   6 1035.93   35.20
   6  -6   8 1030.28   36.13
   0  -8   8  797.68   31.77
   8   0   8  805.56   31.28
   8  -8   0  864.43   32.72
   8   8   0  820.28   31.82
   0   8   8  855.35   32.11
   8   2   8  264.76   21.98
   2   8   8  288.29   23.12
   8   8   2  270.25   21.69
   2  -8   8  274.60   23.57
   8  -8   2  254.60   21.32
   8  -2   8  256.92   21.67
   4   8   8  421.42   25.57
   8   4   8  434.98   26.47
   8   8   4  471.00   26.42
   4  -8   8  433.91   26.19
   8  -8   4  483.46   27.74
   8  -4   8  435.98   27.81
   6   8   8  429.00   27.07
   8   8   6  421.96   28.05
   8   6   8  406.13   28.29
   8  -6   8  448.37   28.59
   6  -8   8  443.78   27.80
   8  -8   6  443.61   29.16
   8   8   8  157.35   13.66
   8  -8   8  159.88   15.77
   1   1   9  113.32   10.82
   9   1   1  110.98   10.55
   1   9   1  112.76   11.04
   1  -1   9  120.16   10.68
   1  -9   1  136.50   10.90
   9  -1   1  101.64    9.12
   3   9   1  125.48   11.10
   1   3   9  131.04   11.40
   9   3   1  116.69    9.49
   9   1   3  112.42    9.48
   1   9   3  136.98   11.49
   3   1   9  131.05   11.57
   1  -9   3  129.71   11.86
   9  -1   3  110.89    9.56
   9  -3   1  125.86   11.62
   3  -1   9  121.74    9.55
   1  -3   9  119.18   11.55
   3  -9   1  147.60   11.32
   3   3   9  142.25   11.73
   9   3   3  126.78    9.99
   3   9   3  134.02   12.22
   9  -3   3  157.01   12.00
   3  -9   3  161.43   12.63
   3  -3   9  133.77   11.67
   9   1   5   68.27    6.54
   5   9   1   72.19    7.11
   5   1   9   58.01    5.66
   9   5   1   74.73    7.32
   1   9   5   75.49    6.96
   1   5   9   77.89    7.57
   5  -1   9   79.81    7.93
   1  -5   9   62.53    6.12
   5  -9   1   87.08    7.91
   9  -5   1   79.65    7.19
   9  -1   5   71.08    7.04
   1  -9   5   68.55    6.38
   5   9   3   89.64    8.32
   5   3   9   88.42    8.35
   3   9   5   87.46    7.57
   9   3   5  101.72    9.51
   3   5   9   87.53    8.34
   9   5   3   77.10    7.62
   3  -5   9   77.90    7.58
   9  -5   3   98.12    8.51
   5  -9   3   91.64    8.35
   9  -3   5   86.41    7.76
   5  -3   9   89.53    8.17
   3  -9   5   89.45    8.14
   5   5   9   40.52    5.45
   9   5   5   30.01    5.56
   5   9   5   12.92   16.18
   5  -9   5   39.95    5.39
   9  -5   5   21.68   16.44
   5  -5   9   41.90    5.24
   1   9   7   16.33   11.46
   7   1   9   25.15    5.29
   7   9   1   38.26    5.10
   9   7   1    6.10   16.31
   9   1   7   -1.66   16.62
   1   7   9    4.13   15.19
   9  -7   1   32.65    5.24
   7  -1   9   19.70   15.13
   1  -7   9    2.21   16.22
   9  -1   7   35.50    5.05
   7  -9   1   19.65   14.34
   1  -9   7   39.38    5.01
   7   3   9   40.63    5.41
   3   9   7   35.75    5.26
   9   7   3   37.65    5.48
   7   9   3   39.34    5.44
   3   7   9   39.50    5.20
   9   3   7   32.60    5.42
   9  -7   3    1.01   17.07
   9  -3   7   37.90    5.58
   3  -9   7   32.71    5.44
   7  -3   9   31.37    5.51
   3  -7   9   42.09    5.46
   7  -9   3   41.93    5.31
   9   7   5   24.95    5.51
   7   9   5   19.34    5.39
   7   5   9   18.75   16.51
   9   5   7   20.82    5.51
   5   9   7   17.64   16.02
   5   7   9    9.99   11.93
   7  -9   5    5.60   16.49
   5  -9   7   12.18   12.34
   5  -7   9   23.50    5.61
   7  -5   9    7.79   16.14
   9  -5   7   27.14    5.42
   9  -7   5   25.33   17.96
   7   9   7   -6.07   17.14
   9   7   7   14.58   17.85
   7   7   9    7.30   16.31
   9  -7   7   15.79   17.39
   7  -9   7   12.95    5.67
   7  -7   9   24.30   17.70
   1   9   9   63.94    6.36
   9   1   9   57.22    5.96
   9   9   1   48.40    6.12
   9  -1   9   58.85    6.04
   9  -9   1   42.98    6.20
   1  -9   9   50.89    5.99
   3   9   9   73.02    6.70
   9   3   9   84.39    7.75
   9   9   3   80.15    7.12
   9  -3   9   75.21    7.20
   3  -9   9   74.37    7.36
   9  -9   3   68.83    6.79
   9   5   9    3.50   18.85
   9   9   5    9.77   18.54
   5   9   9   40.89    6.10
   9  -9   5   29.14    6.17
   5  -9   9    7.27   18.47
   9  -5   9    6.01   18.68
   7   9   9    4.24   19.38
   9   9   7   36.28    6.19
   9   7   9   14.72   11.13
   9  -7   9    8.34   19.52
   9  -9   7  -21.72   20.72
   7  -9   9   24.89    6.38
   9   9   9   13.71   15.19
   9  -9   9   22.04   14.82
  10   0   0 4438.49   62.17
   0   0  10 4321.74   61.02
   0 -10   0 4269.62   60.27
   0  10   0 4218.53   60.26
   2   0  10 2482.12   48.65
   2  10   0 2489.99   47.58
  10  -2   0 2550.18   48.88
   0  -2  10 2568.88   48.45
   0   2  10 2492.13   47.83
   0 -10   2 2563.44   48.23
  10   0   2 2508.98   48.07
   2 -10   0 2474.17   47.40
   0  10   2 2605.34   48.42
  10   2   0 2489.41   48.28
  10   2   2 1303.17   36.63
   2   2  10 1338.61   37.31
   2  10   2 1297.09   35.88
   2 -10   2 1317.55   37.02
   2  -2  10 1325.82   36.13
  10  -2   2 1362.97   37.02
   0  10   4 2710.37   51.34
  10   4   0 2645.31   51.77
   0   4  10 2623.86   50.24
  10  -4   0 2741.99   52.19
   0  -4  10 2727.96   51.44
   0 -10   4 2618.70   50.82
   4 -10   0 2736.32   51.78
   4  10   0 2663.81   51.24
  10   0   4 2692.73   51.61
   4   0  10 2706.74   51.90
  10   2   4 1447.19   40.12
   2  10   4 1522.25   39.20
   4   2  10 1547.18   41.34
  10   4   2 1571.30   40.21
   4  10   2 1429.98   40.17
   2   4  10 1542.44   40.42
   4 -10   2 1538.90   40.77
   2 -10   4 1492.91   39.44
  10  -2   4 1548.09   40.33
  10  -4   2 1557.39   41.23
   4  -2  10 1513.21   40.59
   2  -4  10 1549.79   39.43
   4   4  10 1667.39   43.76
   4  10   4 1638.95   43.35
  10   4   4 1585.17   43.33
   4  -4  10 1588.92   42.20
  10  -4   4 1681.04   43.75
   4 -10   4 1673.00   43.14
  10   0   6 2238.77   50.32
   6 -10   0 2212.26   50.60
   0   6  10 2148.06   49.12
   0  -6  10 2080.06   49.09
   6   0  10 2281.33   50.28
  10   6   0 2304.33   51.56
   6  10   0 2119.59   48.77
  10  -6   0 2310.29   50.98
   0 -10   6 2382.24   51.14
   0  10   6 2256.31   50.31
   6   2  10 1299.62   40.18
  10   2   6 1284.43   40.21
   2  10   6 1350.61   40.03
  10   6   2 1269.00   39.67
   6  10   2 1353.47   40.82
   2   6  10 1384.22   41.92
   2  -6  10 1336.24   40.02
  10  -2   6 1388.49   40.59
   6  -2  10 1318.00   39.55
   6 -10   2 1393.21   40.70
   2 -10   6 1396.37   41.14
  10  -6   2 1375.89   40.87
   4  10   6 1452.62   43.01
  10   4   6 1398.76   43.38
   4   6  10 1532.74   44.11
   6   4  10 1548.99   45.01
   6  10   4 1490.97   44.43
  10   6   4 1387.34   41.58
   6 -10   4 1457.47   43.86
   4 -10   6 1495.84   43.47
   4  -6  10 1479.72   43.12
  10  -6   4 1493.11   44.06
  10  -4   6 1445.21   43.32
   6  -4  10 1461.37   43.70
  10   6   6 1208.80   42.15
   6   6  10 1315.94   43.26
   6  10   6 1224.15   42.37
   6  -6  10 1230.90   42.28
   6 -10   6 1284.23   43.68
  10  -6   6 1340.99   43.68
   0   8  10  946.14   37.23
  10  -8   0 1042.17   36.97
   0  10   8  928.75   36.52
  10   8   0  931.59   38.10
   8 -10   0 1004.51   38.47
   0  -8  10  959.83   37.44
   8   0  10  963.36   37.38
   0 -10   8 1014.21   38.45
   8  10   0  896.30   36.94
  10   0   8 1032.68   38.42
   8  10   2  528.95   30.17
  10   2   8  619.07   31.38
   2  10   8  547.02   29.88
   8   2  10  565.82   30.38
   2   8  10  564.69   31.78
  10   8   2  553.26   28.88
   8  -2  10  543.76   29.95
   2  -8  10  570.41   30.33
  10  -8   2  568.33   30.13
  10  -2   8  576.10   30.43
   8 -10   2  550.48   30.76
   2 -10   8  541.32   31.85
   8   4  10  615.07   33.95
   4  10   8  667.29   33.70
   4   8  10  632.16   33.33
  10   4   8  606.35   32.99
  10   8   4  576.61   31.72
   8  10   4  628.96   32.98
   4 -10   8  635.57   34.44
   4  -8  10  652.85   33.31
   8  -4  10  629.72   32.61
   8 -10   4  655.79   34.13
  10  -4   8  617.33   32.37
  10  -8   4  614.34   33.51
  10   8   6  615.64   35.90
   8   6  10  568.71   33.22
  10   6   8  576.45   33.21
   6  10   8  548.79   33.13
   8  10   6  576.19   34.43
   6   8  10  560.78   34.30
  10  -8   6  643.34   33.74
   6 -10   8  589.56   33.16
  10  -6   8  593.59   32.12
   8  -6  10  601.66   32.77
   6  -8  10  552.90   33.22
   8 -10   6  613.05   34.38
   8  10   8  249.91   20.28
  10   8   8  270.20   19.94
   8   8  10  218.81   20.12
   8 -10   8  285.42   19.26
  10  -8   8  246.29   19.74
   8  -8  10  291.31   19.78
   0  10  10 1067.65   42.33
   0 -10  10 1097.96   41.94
  10   0  10 1173.13   43.10
  10 -10   0 1156.06   44.10
  10  10   0 1144.24   43.92
  10   2  10  687.75   36.28
  10  10   2  760.07   35.04
   2  10  10  737.10   37.17
   2 -10  10  694.40   34.73
  10  -2  10  659.68   36.35
  10 -10   2  785.28   37.28
  10  10   4  730.09   26.74
  10   4  10  755.93   26.56
   4  10  10  719.59   26.57
   4 -10  10  750.27   26.48
  10  -4  10  748.25   26.62
  10 -10   4  805.33   28.23
  10   6  10  583.00   25.91
   6  10  10  599.34   25.89
  10  10   6  678.34   27.29
  10 -10   6  614.51   26.72
  10  -6  10  664.70   26.62
   6 -10  10  715.20   27.01
  10   8  10  334.53   22.10
  10  10   8  342.44   21.26
   8  10  10  336.13   22.22
   8 -10  10  345.76   21.96
  10  -8  10  356.99   22.25
  10 -10   8  354.47   22.02
  10  10  10  337.56   24.53
  10 -10  10  268.84   23.09
  11   1   1  -50.33   16.93
   1   1  11    1.86   13.97
   1  11   1  -34.48   15.61
  11  -1   1    5.59   14.62
   1  -1  11  -24.28   15.12
   1 -11   1    9.32   13.43
   3   1  11    9.16    6.32
  11   3   1   -6.61   13.84
   1  11   3    3.11   13.98
  11   1   3   10.90   14.04
   3  11   1    9.91    9.83
   1   3  11   17.72   13.69
   3  -1  11  -35.78   15.96
   3 -11   1  -12.37   16.10
   1 -11   3   -7.55   15.17
   1  -3  11  -25.08   15.57
  11  -1   3  -16.31   14.89
  11  -3   1   10.91   14.64
   3   3  11    7.45    8.07
  11   3   3   -2.03   15.46
   3  11   3  -15.21   14.16
   3  -3  11    9.93    4.88
  11  -3   3   -4.05   16.73
   3 -11   3  -15.21   16.38
   5   1  11   12.48   14.90
   1  11   5    0.84   15.36
   5  11   1  -19.24   16.16
   1   5  11   -2.31   14.36
  11   1   5    2.91   16.68
  11   5   1    4.25    7.94
  11  -5   1   -2.29   14.10
  11  -1   5   21.96   15.64
   5  -1  11   10.40   13.88
   1  -5  11    9.27   16.29
   1 -11   5   13.52   15.36
   5 -11   1   11.39    8.85
   5   3  11    5.60   16.51
  11   5   3    9.96   15.52
   5  11   3  -23.95   17.02
  11   3   5   15.44   15.93
   3  11   5   -5.37   15.44
   3   5  11  -23.99   16.61
  11  -5   3   20.89   14.72
   3 -11   5    8.85   14.77
   5 -11   3    1.20   15.19
  11  -3   5   -3.16   16.19
   5  -3  11    3.39   15.07
   3  -5  11    2.30   15.50
   5   5  11   -1.06   16.49
  11   5   5  -24.53   18.53
   5  11   5   14.21   11.86
   5  -5  11    3.64   16.16
   5 -11   5   18.90   15.66
  11  -5   5   -9.27   16.94
   1   7  11   10.69   16.16
   7   1  11   20.10   16.49
  11   1   7   13.01   14.34
   1  11   7    0.10   15.76
  11   7   1  -36.24   18.36
   7  11   1   -9.25   18.09
  11  -1   7   21.25   15.49
   1  -7  11    2.46   15.85
  11  -7   1   -2.23   16.92
   7  -1  11   20.10   16.74
   7 -11   1    2.46   16.34
   1 -11   7  -33.93   18.89
  11   3   7  -10.93   17.22
   3  11   7    4.86   16.74
   7  11   3  -15.78   18.77
  11   7   3  -18.21   18.69
   3   7  11    3.65   17.74
   7   3  11  -17.02   15.94
   7 -11   3  -14.56   17.34
  11  -3   7   14.58   17.35
  11  -7   3    4.85   16.73
   3 -11   7    0.00   17.35
   7  -3  11  -12.16   18.20
   3  -7  11  -17.02   19.68
  11   5   7   10.34   12.22
   5  11   7  -20.68   19.85
   7   5  11  -12.93   17.44
  11   7   5  -19.38   20.14
   7  11   5   -6.46   18.50
   5   7  11   16.81   18.79
   5 -11   7    5.17   18.09
   5  -7  11   11.64   16.91
   7  -5  11   -7.76   17.34
  11  -7   5  -10.34   18.63
   7 -11   5  -31.00   18.72
  11  -5   7    9.05   19.56
   7  11   7   14.03   13.06
   7   7  11   -9.93   13.22
  11   7   7   12.61   13.81
   7 -11   7  -17.66   13.56
   7  -7  11    6.28   13.31
  11  -7   7    7.68   13.23
   9   1  11    6.55   17.82
   1  11   9   25.18   17.32
   1   9  11   -1.43   16.90
  11   1   9   -4.14   19.72
   9  11   1   22.48   17.79
  11   9   1   -2.78   18.33
   1 -11   9   -8.09   16.96
   1  -9  11    9.22   16.69
  11  -1   9    6.57   16.26
   9  -1  11    9.22   16.69
   9 -11   1   -3.67   10.72
  11  -9   1   -6.75   16.98
  11   9   3    5.61   19.97
   3   9  11  -23.12   19.86
   9   3  11   26.12   18.40
   3  11   9  -13.55   19.04
   9  11   3    8.32   18.32
  11   3   9   24.77   20.37
   3  -9  11   22.00   17.93
   9 -11   3   11.06   19.31
   9  -3  11   18.59   13.02
  11  -9   3   -6.72   18.06
  11  -3   9  -17.63   20.60
   3 -11   9   11.04   17.51
   9   5  11    9.39   13.73
  11   5   9   -3.62   13.61
   9  11   5   -7.22   13.04
   5  11   9   -1.45   13.21
  11   9   5   18.77   13.27
   5   9  11   -6.50   13.42
   9  -5  11    7.95   12.25
   5  -9  11    6.86    8.90
  11  -9   5  -23.11   13.55
  11  -5   9  -12.28   13.95
   5 -11   9    9.87    7.71
   9 -11   5   -4.34   13.12
   9  11   7  -18.48   13.13
   7   9  11   -7.65   13.05
   9   7  11   -4.54   13.28
   7  11   9  -26.21   14.48
  11   9   7    8.63    8.06
  11   7   9   -1.43   14.02
   9 -11   7   -5.31   13.38
   7  -9  11    2.45   14.52
  11  -9   7    9.42   14.44
   9  -7  11    7.87   13.77
   7 -11   9    6.31    9.37
  11  -7   9   -7.63   13.72
   9  11   9  -12.58   15.17
   9   9  11    2.52   15.45
  11   9   9    8.81   10.46
   9 -11   9   21.81   14.58
  11  -9   9   -4.20   15.12
   9  -9  11    3.36   13.58
  11   1  11    0.06   13.76
  11  11   1    8.64    8.09
   1  11  11    3.85   13.87
   1 -11  11    6.12   12.91
  11  -1  11   -6.00   14.81
  11 -11   1    1.57   13.53
  11  11   3  -11.49   14.12
   3  11  11  -14.62   13.26
  11   3  11   -9.18   13.81
   3 -11  11   -7.63   13.59
  11  -3  11  -20.03   13.63
  11 -11   3    3.99   14.16
   5  11  11    8.84   13.26
  11  11   5  -11.36   13.95
  11   5  11  -12.20   14.89
  11  -5  11    9.65   13.86
  11 -11   5    3.97   14.52
   5 -11  11   -3.29   13.48
   7  11  11  -13.60   14.39
  11  11   7   10.30   15.21
  11   7  11   10.88    8.49
  11 -11   7    7.74   15.14
  11  -7  11   17.98   12.98
   7 -11  11    9.02    7.03
  11  11   9  -12.75   15.17
   9  11  11  -18.20   15.65
  11   9  11   11.62    4.96
   9 -11  11    5.40   13.87
  11 -11   9   15.36   14.70
  11  -9  11  -19.10   15.94
   0 -12   0 1287.84   41.24
   0   0  12 1383.91   41.73
  12   0   0 1368.26   41.55
   0  12   0 1381.39   40.85
  12   2   0  714.69   32.48
  12   0   2  761.73   32.42
   2 -12   0  749.51   32.72
   0 -12   2  737.17   31.37
   2   0  12  715.39   30.71
   0   2  12  687.76   30.56
   2  12   0  711.44   31.35
  12  -2   0  658.45   33.42
   0  -2  12  646.27   31.39
   0  12   2  686.37   30.83
  12   2   2  251.73   23.18
   2  12   2  298.10   24.22
   2   2  12  295.45   23.76
   2 -12   2  308.87   22.99
   2  -2  12  291.12   24.25
  12  -2   2  332.70   23.85
  12   4   0  941.33   35.87
   0   4  12  884.04   34.80
   0  12   4  834.55   34.29
   4  12   0  884.07   35.70
  12   0   4  914.27   35.15
   0 -12   4  939.75   36.69
   0  -4  12  864.96   34.81
   4   0  12  889.65   35.32
  12  -4   0  973.79   36.78
   4 -12   0  891.91   36.24
   2   4  12  378.96   26.45
  12   2   4  422.95   27.07
   2  12   4  379.57   25.22
   4  12   2  406.73   26.86
  12   4   2  417.01   28.07
   4   2  12  450.91   27.24
  12  -4   2  440.95   28.27
   2  -4  12  408.64   27.36
  12  -2   4  436.59   29.29
   2 -12   4  479.87   28.23
   4  -2  12  453.14   29.77
   4 -12   2  422.62   28.18
   4   4  12  552.48   30.53
  12   4   4  579.36   31.16
   4  12   4  572.11   33.17
   4 -12   4  538.47   30.64
  12  -4   4  570.96   32.50
   4  -4  12  523.66   31.36
   0  12   6  721.82   33.75
  12   6   0  768.45   36.31
  12  -6   0  803.69   35.55
  12   0   6  752.46   35.70
   6 -12   0  809.70   36.01
   0 -12   6  779.13   35.90
   0   6  12  759.24   35.71
   0  -6  12  668.72   33.74
   6   0  12  739.71   35.75
   6  12   0  748.89   34.60
   2   6  12  452.51   30.06
  12   6   2  414.54   30.00
   2  12   6  409.92   29.46
  12   2   6  440.99   28.21
   6   2  12  402.89   29.65
   6  12   2  465.29   29.66
   2 -12   6  412.38   29.03
  12  -2   6  432.33   27.01
   6 -12   2  470.26   28.50
  12  -6   2  438.13   27.63
   2  -6  12  399.18   29.57
   6  -2  12  484.77   30.11
  12   6   4  492.59   31.49
   4  12   6  531.64   33.21
  12   4   6  542.06   32.50
   4   6  12  510.10   31.71
   6  12   4  500.32   33.20
   6   4  12  499.72   30.85
   6  -4  12  499.72   32.29
   6 -12   4  574.20   33.12
   4 -12   6  543.31   31.58
   4  -6  12  481.55   31.92
  12  -4   6  539.47   32.91
  12  -6   4  592.40   33.17
  12   6   6  474.61   22.49
   6   6  12  471.54   23.41
   6  12   6  478.05   22.01
  12  -6   6  478.79   22.55
   6 -12   6  478.74   22.87
   6  -6  12  516.89   22.70
  12  -8   0  401.58   27.98
   8   0  12  371.46   29.23
  12   0   8  349.59   28.12
  12   8   0  369.28   29.68
   0 -12   8  411.81   29.77
   0  12   8  414.54   29.46
   8 -12   0  338.24   30.79
   0  -8  12  310.53   29.49
   8  12   0  343.60   29.83
   0   8  12  302.40   28.55
   8   2  12  155.32   11.86
  12   2   8  178.28   12.21
   8  12   2  194.55   17.00
   2   8  12  188.00   16.55
   2  12   8  198.87   17.10
  12   8   2  160.93   12.36
   2 -12   8  194.75   17.02
  12  -8   2  173.96   17.33
   2  -8  12  189.38   17.25
   8 -12   2  161.25   12.08
  12  -2   8  172.75   16.49
   8  -2  12  183.87   16.81
   4  12   8  220.42   19.14
  12   8   4  212.42   18.48
   8   4  12  255.66   19.87
   8  12   4  245.32   19.28
   4   8  12  269.96   19.11
  12   4   8  254.07   19.60
  12  -4   8  261.94   19.43
   8  -4  12  252.79   19.19
  12  -8   4  258.89   18.89
   4 -12   8  266.90   18.22
   4  -8  12  248.49   18.79
   8 -12   4  256.75   18.77
   6  12   8  213.63   20.28
  12   6   8  233.38   19.09
  12   8   6  217.35   19.12
   8   6  12  230.47   18.85
   6   8  12  241.12   19.69
   8  12   6  230.24   19.46
  12  -8   6  215.44   14.00
   6  -8  12  206.14   19.63
   6 -12   8  251.61   19.80
   8  -6  12  271.54   20.02
  12  -6   8  234.89   19.21
   8 -12   6  235.56   19.74
   8   8  12   96.84    8.48
  12   8   8  108.04   10.38
   8  12   8  123.16   11.77
   8  -8  12  115.73    9.93
   8 -12   8  115.11    9.80
  12  -8   8  119.75   10.02
  12  10   0  440.24   23.18
  12 -10   0  463.00   23.71
   0  10  12  457.04   23.12
   0  12  10  450.83   24.05
   0 -12  10  417.37   22.53
  10 -12   0  468.33   24.51
  10   0  12  466.26   24.30
  12   0  10  480.51   23.87
  10  12   0  453.14   23.10
   0 -10  12  428.14   23.10
  10  12   2  278.62   20.98
  10   2  12  296.83   20.33
   2  10  12  276.03   20.19
  12  10   2  280.20   19.53
  12   2  10  302.86   20.86
   2  12  10  272.85   20.13
  12 -10   2  317.02   21.19
  10  -2  12  242.20   20.60
   2 -10  12  263.72   20.22
   2 -12  10  318.19   21.14
  10 -12   2  326.23   21.27
  12  -2  10  291.33   20.47
   4  12  10  341.28   21.90
   4  10  12  342.21   21.57
  10  12   4  303.69   21.28
  12  10   4  294.18   20.83
  12   4  10  365.14   22.16
  10   4  12  300.92   22.04
  12  -4  10  339.73   21.61
   4 -10  12  318.38   21.48
  12 -10   4  337.82   21.29
  10  -4  12  313.67   20.49
   4 -12  10  302.34   22.31
  10 -12   4  372.72   21.85
  12   6  10  300.26   21.99
  12  10   6  289.23   21.47
   6  10  12  315.34   21.61
  10  12   6  292.57   22.49
   6  12  10  267.73   21.06
  10   6  12  286.22   22.38
  12 -10   6  303.38   22.22
   6 -12  10  306.94   22.48
  10 -12   6  305.88   22.08
   6 -10  12  243.65   21.76
  12  -6  10  296.91   21.44
  10  -6  12  341.20   21.54
   8  12  10  167.06   14.42
  12  10   8  147.59   14.16
  12   8  10  153.79   13.41
   8  10  12  155.15   13.35
  10   8  12  147.23   13.58
  10  12   8  170.51   13.69
   8 -12  10  167.91   13.69
  10  -8  12  169.32   13.84
   8 -10  12  152.95   13.44
  12 -10   8  167.85   13.26
  12  -8  10  153.81   14.13
  10 -12   8  164.76   12.88
  10  10  12  188.39   14.11
  12  10  10  181.32   14.44
  10  12  10  180.85   14.30
  12 -10  10  150.52   12.03
  10 -10  12  173.47   14.68
  10 -12  10  171.53   14.92
  12  12   0  217.17   14.18
   0  12  12  207.83   19.49
  12 -12   0  227.79   19.23
  12   0  12  233.34   20.15
   0 -12  12  207.81   20.37
   2  12  12  129.33   12.68
  12   2  12  144.31   12.76
  12  12   2  138.10   13.35
   2 -12  12  148.59   13.04
  12  -2  12  119.64   10.66
  12 -12   2  123.70   10.63
  12  12   4  153.18   13.46
  12   4  12  172.69   13.37
   4  12  12  158.21   13.20
  12  -4  12  165.68   13.47
   4 -12  12  132.62   10.90
  12 -12   4  158.87   13.47
  12   6  12  141.29   11.30
   6  12  12  152.03   13.38
  12  12   6  153.70   13.77
   6 -12  12  138.85   13.53
  12 -12   6  129.95   11.08
  12  -6  12  132.20   11.21
   1   1  13   -3.41   16.66
  13   1   1   -3.39   17.36
   1  13   1   15.36   16.80
   1  -1  13   21.29   16.78
  13  -1   1  -17.46   18.28
   1 -13   1    2.46   16.33
   1  13   3   22.25    5.55
  13   1   3    4.85   17.51
  13   3   1   -2.43   18.48
   1   3  13   11.89    5.66
   3  13   1   14.70    5.69
   3   1  13  -15.80   19.03
  13  -1   3  -18.21   18.45
   1 -13   3   -8.50   16.23
   3  -1  13  -19.45   19.60
  13  -3   1   26.69   18.48
   1  -3  13   -3.65   17.50
   3 -13   1   18.20   17.20
   3  13   3   28.20    5.72
   3   3  13   14.84   17.42
  13   3   3    0.97   19.24
   3 -13   3   32.35    5.97
  13  -3   3   24.83    5.93
   3  -3  13   -1.52   18.69
  13   5   1   16.78   18.75
  13   1   5   10.34   17.72
   1  13   5    3.88   17.18
   5   1  13   15.52   19.01
   5  13   1   -2.58   18.34
   1   5  13    2.59   17.74
   1  -5  13   24.57   16.51
  13  -5   1   12.91   17.22
   5  -1  13   23.28   16.46
   5 -13   1   11.61   16.88
  13  -1   5    1.93   12.21
   1 -13   5   19.38   16.89
   5  13   3   -8.10   18.15
   5   3  13  -21.46   19.94
   3   5  13   14.53   18.13
  13   5   3   -2.80   20.00
  13   3   5   10.51   19.65
   3  13   5   11.87    5.78
   5 -13   3   -2.79   13.37
   5  -3  13   -4.10   17.43
   3  -5  13  -24.11   19.31
  13  -3   5   13.20   10.02
  13  -5   3   21.15    6.33
   3 -13   5    5.21   18.05
  13   5   5  -11.32   13.40
   5  13   5   -4.99   13.12
   5   5  13   17.57   12.47
   5 -13   5   16.83   13.02
  13  -5   5    8.38   13.58
   5  -5  13   14.04   13.08
  13   7   1    7.68    8.94
   7   1  13    1.36   12.96
   1   7  13    9.82   11.88
   1  13   7   -7.11   13.83
   7  13   1   -5.68   12.51
  13   1   7    4.88   12.58
  13  -7   1    9.55    7.85
  13  -1   7   -0.76   13.00
   7 -13   1   -9.91   13.09
   7  -1  13    6.18    4.94
   1 -13   7   -1.47   12.75
   1  -7  13  -32.48   13.74
   3   7  13    2.17   13.07
  13   7   3  -15.87   14.18
   7  13   3   10.50    4.50
  13   3   7  -11.56   14.62
   3  13   7   14.45   13.74
   7   3  13   -2.89   13.41
   7  -3  13   -1.45   13.57
   3 -13   7  -15.88   13.39
   7 -13   3    0.00   13.81
   3  -7  13   -7.23   13.76
  13  -7   3   -0.72   14.67
  13  -3   7   18.05   13.84
  13   7   5  -19.61   15.15
   5  13   7  -15.08   14.69
   7  13   5   11.67    4.49
  13   5   7    3.08   13.07
   7   5  13  -12.06   14.89
   5   7  13    9.35    6.57
   5  -7  13   11.69    7.99
   7 -13   5   -5.99   14.56
   5 -13   7   17.47   12.69
  13  -5   7   12.18   13.97
   7  -5  13  -13.60   13.13
  13  -7   5  -15.84   14.54
  13   7   7    8.84   14.12
   7  13   7   13.68    9.83
   7   7  13   11.26   14.74
   7  -7  13    8.84   13.85
  13  -7   7  -18.64   14.30
   7 -13   7   -6.53   14.51
   1  13   9    2.44   13.61
  13   1   9   10.18   13.44
  13   9   1   17.12   13.08
   1   9  13    4.00   14.31
   9   1  13   12.52   13.78
   9  13   1   16.35   12.92
  13  -9   1   -9.92   14.89
   9  -1  13   -4.52   14.45
   9 -13   1  -21.52   14.83
   1  -9  13   15.61   12.78
  13  -1   9    0.12   14.32
   1 -13   9   13.68   10.12
   3  13   9   15.01    4.80
  13   9   3   15.76   14.68
   3   9  13   -2.50   14.47
   9  13   3    3.82   14.75
   9   3  13   16.23    4.81
  13   3   9  -31.76   15.57
   9  -3  13   11.03    8.08
   3 -13   9   14.66    4.74
  13  -3   9  -16.70   15.35
   9 -13   3    9.38   14.12
  13  -9   3   14.19   13.85
   3  -9  13    1.45   15.21
   5  13   9   16.48   14.60
   9   5  13   17.03    4.80
   5   9  13   11.55   14.75
   9  13   5   -9.05   14.28
  13   9   5   19.76   13.97
  13   5   9  -13.19   15.29
   5  -9  13  -10.71   14.54
   5 -13   9   -4.94   14.13
   9 -13   5   12.35    9.94
  13  -9   5   -8.23   14.86
  13  -5   9  -31.31   16.23
   9  -5  13   17.32   14.06
   7  13   9    0.99   15.20
   9  13   7   18.33   14.79
   9   7  13   14.87   14.70
  13   9   7    6.18   14.12
  13   7   9    8.79   14.51
   7   9  13   -1.60   16.00
  13  -7   9   12.26   14.61
   9 -13   7   -4.22   15.04
   7 -13   9  -16.36   14.84
  13  -9   7  -23.29   15.24
   7  -9  13  -24.18   15.52
   9  -7  13   11.40    8.25
   9  13   9  -10.09   15.60
   9   9  13    2.75   16.60
  13   9   9  -22.02   16.36
   9 -13   9   18.35   14.09
   9  -9  13   -3.67   15.31
  13  -9   9    8.26   15.65
  13  11   1  -11.02   15.18
   1  13  11    0.92   15.67
  13   1  11   -3.36   15.27
  11  13   1   -5.90   15.60
  11   1  13   -8.48   14.99
   1  11  13    5.18   13.23
   1 -13  11  -12.75   14.86
  11 -13   1   17.10   13.90
  13 -11   1    2.63   15.42
   1 -11  13   -1.65   15.18
  11  -1  13  -15.32   15.23
  13  -1  11   13.30   10.57
  13   3  11    1.87   15.51
  11  13   3  -17.20   15.97
   3  11  13    8.79    7.17
   3  13  11  -13.75   15.66
  13  11   3  -26.73   15.71
  11   3  13    1.84   13.67
   3 -13  11    1.86   14.92
   3 -11  13    5.32   14.26
  11  -3  13    0.11   14.41
  11 -13   3  -14.61   15.47
  13  -3  11   11.39   14.13
  13 -11   3   11.37   13.78
  11   5  13  -17.95   14.15
   5  11  13    5.32   13.69
  11  13   5    6.20   14.22
  13  11   5   -4.53   15.04
   5  13  11   10.68   14.21
  13   5  11   14.26   10.30
   5 -13  11   13.80   10.52
  13  -5  11  -23.33   16.06
   5 -11  13    4.86   10.73
  11 -13   5  -29.55   14.77
  11  -5  13    0.82   16.72
  13 -11   5    0.83   15.20
  11  13   7   -4.64   14.58
  11   7  13   16.71   14.56
   7  13  11  -15.77   16.11
  13   7  11   -0.92   15.05
  13  11   7  -12.06   16.04
   7  11  13  -23.21   15.73
   7 -13  11   -8.35   15.33
  11 -13   7  -15.76   15.10
  11  -7  13    0.92   15.62
  13  -7  11  -10.21   16.42
   7 -11  13   -6.50   16.05
  13 -11   7   -0.92   15.71
  13  13   1   -4.63   16.39
   1  13  13  -19.50   15.84
  13   1  13    7.43   10.76
   1 -13  13    7.43   14.08
  13  -1  13  -12.07   17.00
  13 -13   1    7.76    5.45
  13  13   3   10.30    5.19
   3  13  13   10.55    7.87
  13   3  13  -28.14   17.20
  13  -3  13    4.69   15.73
  13 -13   3  -23.41   16.35
   3 -13  13    3.75   15.35
   0   0  14  713.95   35.79
   0 -14   0  866.09   38.77
   0  14   0  797.55   36.80
  14   0   0  897.43   38.13
  14   2   0  478.19   30.49
  14   0   2  531.00   32.27
  14  -2   0  463.67   32.97
   2 -14   0  488.61   30.70
   0  -2  14  420.02   31.32
   0   2  14  367.33   30.19
   2  14   0  475.51   28.48
   0 -14   2  432.25   31.20
   0  14   2  480.98   30.04
   2   0  14  404.24   29.96
  14   2   2  282.60   27.01
   2   2  14  253.77   24.43
   2  14   2  243.87   18.48
  14  -2   2  253.27   17.92
   2 -14   2  303.92   24.44
   2  -2  14  229.70   17.74
   4  14   0  542.08   23.52
  14   4   0  525.60   23.52
   0 -14   4  547.20   23.30
   0   4  14  541.23   22.69
   4 -14   0  548.94   23.38
  14  -4   0  551.02   23.83
   0  14   4  571.94   23.36
  14   0   4  526.65   23.24
   4   0  14  548.20   23.58
   0  -4  14  563.97   23.69
   2   4  14  323.76   19.81
   4  14   2  307.10   20.43
  14   2   4  304.43   19.30
   2  14   4  321.82   20.40
  14   4   2  321.06   19.66
   4   2  14  356.59   20.09
  14  -2   4  344.15   20.78
   2 -14   4  313.46   19.97
  14  -4   2  314.09   20.63
   2  -4  14  318.18   20.22
   4 -14   2  309.89   19.68
   4  -2  14  292.39   19.77
   4  14   4  359.80   20.75
   4   4  14  365.47   22.19
  14   4   4  356.18   21.14
   4 -14   4  368.45   21.49
  14  -4   4  369.22   21.06
   4  -4  14  360.40   21.31
  14   0   6  503.94   23.85
   6   0  14  534.68   23.87
   6  14   0  493.12   23.34
   0  14   6  471.63   23.42
   0   6  14  524.35   23.72
  14   6   0  530.49   24.44
   6 -14   0  534.14   24.23
   0 -14   6  536.86   23.69
   0  -6  14  493.53   23.92
  14  -6   0  512.17   23.90
   6   2  14  310.66   20.08
   2   6  14  280.91   21.00
   6  14   2  333.00   20.70
   2  14   6  296.12   20.37
  14   2   6  323.62   19.81
  14   6   2  278.89   20.61
   2  -6  14  308.39   20.52
   6  -2  14  331.46   20.29
  14  -2   6  290.96   20.91
   2 -14   6  319.87   21.26
   6 -14   2  274.41   20.60
  14  -6   2  301.88   20.21
  14   4   6  367.99   21.69
   6  14   4  317.90   22.35
   4  14   6  344.91   21.11
   6   4  14  345.38   21.72
   4   6  14  325.38   21.12
  14   6   4  307.16   21.17
   6  -4  14  311.52   21.61
   4 -14   6  361.80   21.83
  14  -4   6  355.69   21.89
   6 -14   4  333.28   21.15
  14  -6   4  319.43   22.22
   4  -6  14  329.99   21.78
   6   6  14  294.27   21.16
   6  14   6  363.52   21.26
  14   6   6  290.65   21.53
   6  -6  14  328.33   21.89
  14  -6   6  327.90   21.96
   6 -14   6  309.24   22.06
  14  -8   0  228.15   20.65
  14   8   0  214.69   19.93
  14   0   8  217.39   19.13
   0  14   8  250.70   19.61
   0  -8  14  217.56   20.01
   0 -14   8  228.46   20.03
   8   0  14  232.68   20.22
   0   8  14  211.21   19.51
   8 -14   0  235.29   20.52
   8  14   0  288.46   19.29
  14   8   2  121.25   10.12
   2   8  14  134.85   12.51
   8   2  14  134.87   12.20
   8  14   2  146.60   12.18
   2  14   8  131.91   11.82
  14   2   8  131.52   12.17
  14  -2   8  132.32   12.50
   8 -14   2  142.20   12.11
   2 -14   8  136.33   10.14
   2  -8  14  137.66   11.97
   8  -2  14  125.24   12.39
  14  -8   2  148.61   12.41
   4  14   8  160.12   13.21
   8  14   4  144.75   13.09
   8   4  14  152.44   13.42
   4   8  14  167.32   13.42
  14   8   4  187.67   13.45
  14   4   8  170.46   13.27
  14  -8   4  133.19   13.29
   8 -14   4  165.40   12.98
   4 -14   8  171.67   13.70
   8  -4  14  168.14   13.58
   4  -8  14  160.71   12.96
  14  -4   8  164.26   13.48
   6  14   8  197.50   18.81
  14   8   6  161.63   13.55
  14   6   8  158.22   14.38
   8  14   6  152.14   13.35
   8   6  14  156.23   13.72
   6   8  14  174.79   13.89
   8 -14   6  174.56   13.13
   6  -8  14  180.85   13.37
  14  -8   6  175.85   14.09
   6 -14   8  164.68   13.73
  14  -6   8  147.73   11.14
   8  -6  14  157.96   13.59
   8  14   8   89.54    8.95
  14   8   8   80.89    7.83
   8   8  14   94.86    8.94
   8 -14   8   89.32    8.87
  14  -8   8   69.29    6.70
   8  -8  14   81.32    7.88
  14 -10   0  307.47   21.88
  10  14   0  281.63   21.78
  14   0  10  282.13   21.72
   0  14  10  263.95   22.17
  10 -14   0  324.70   22.12
   0 -14  10  311.40   22.49
  14  10   0  290.24   21.85
  10   0  14  296.99   23.40
   0  10  14  267.59   21.64
   0 -10  14  294.37   20.59
  14   2  10  193.17   14.13
   2  10  14  203.71   19.65
  10  14   2  211.13   20.45
  14  10   2  172.94   14.48
   2  14  10  153.57   13.96
  10   2  14  248.16   21.26
   2 -10  14  195.88   13.89
  10  -2  14  202.03   14.55
  14  -2  10  171.01   14.86
   2 -14  10  167.49   14.17
  14 -10   2  169.90   14.82
  10 -14   2  187.69   14.74
  14   4  10  221.52   21.63
   4  10  14  204.30   15.21
  10  14   4  206.17   14.53
   4  14  10  225.94   21.05
  14  10   4  200.41   14.16
  10   4  14  212.77   19.48
  10  -4  14  206.54   20.30
  10 -14   4  205.28   20.13
   4 -10  14  192.27   14.46
   4 -14  10  217.03   21.64
  14 -10   4  181.28   14.88
  14  -4  10  227.74   21.09
  14  10   6  177.16   14.69
  14   6  10  193.84   14.30
  10   6  14  226.16   20.40
  10  14   6  179.90   14.77
   6  14  10  225.06   20.49
   6  10  14  172.78   14.97
  14 -10   6  181.29   14.71
   6 -10  14  205.91   14.41
  10  -6  14  211.42   20.57
  14  -6  10  251.72   21.56
   6 -14  10  212.19   20.81
  10 -14   6  212.96   21.06
  12  14   0  118.89   10.05
  12 -14   0  128.86   11.62
   0 -12  14  129.79   11.06
  14   0  12  124.87   11.54
   0  14  12  177.01   14.02
  14 -12   0  126.70   11.27
   0 -14  12  147.71   13.37
  12   0  14  142.28   13.85
  14  12   0  153.92   13.56
   0  12  14  162.19   13.10
  14   2  12   98.70    9.15
   2  14  12   98.82    9.88
  12  14   2   89.87    8.23
  14  12   2   80.98    7.58
  12   2  14   95.00    9.08
   2  12  14   97.32    8.94
  14 -12   2   89.49    8.25
   2 -12  14   83.87    8.19
  12 -14   2   92.47    9.24
  14  -2  12   89.82    8.93
   2 -14  12   90.50    8.66
  12  -2  14   85.65    7.42
  15   1   1    4.33   14.78
   1  15   1    9.38   12.89
   1   1  15   16.55    4.47
  15  -1   1   10.58    7.99
   1 -15   1    6.49   13.40
   1  -1  15    2.90   13.79
  15   1   3   24.16    4.75
   1   3  15   24.54    4.57
  15   3   1    8.88   15.48
   3   1  15   -2.22   13.28
   1  15   3   22.02    4.49
   3  15   1    1.47   14.30
   1  -3  15   17.21    4.63
  15  -3   1    0.00   14.49
   3 -15   1   22.68    4.61
   1 -15   3   26.22    4.59
   3  -1  15   -4.44   14.97
  15  -1   3   24.32    4.72
   3  15   3   12.17   13.71
  15   3   3   27.07    4.88
   3   3  15   27.79    4.71
  15  -3   3   17.48   14.70
   3 -15   3   21.26   14.91
   3  -3  15   37.06    4.65
  15   1   5    7.87   14.52
   1  15   5   14.05    9.61
  15   5   1   12.89    9.87
   5  15   1    3.98   13.51
   5   1  15   19.50   13.98
   1   5  15   20.28   13.86
  15  -5   1   -1.40   15.12
  15  -1   5    7.10   14.50
   5 -15   1    4.73   12.42
   1  -5  15    3.21   13.38
   5  -1  15   12.01    8.04
   1 -15   5    0.10   13.00
  15   3   5   17.35   13.67
   3   5  15   11.77   14.35
   5  15   3   16.06    4.71
   3  15   5   11.05    4.77
  15   5   3    8.90    6.06
   5   3  15   -0.91   14.13
  15  -5   3   18.14   13.96
   3  -5  15    9.79   10.19
   5  -3  15   19.72   13.76
   5 -15   3   14.13   13.99
  15  -3   5   14.18   14.25
   3 -15   5    7.00   14.83
   5   5  15   12.38   13.17
  15   5   5  -35.41   15.99
   5  15   5  -26.34   14.35
   5 -15   5   14.00   14.09
   5  -5  15   -0.82   15.36
  15  -5   5   -9.05   14.84
   1  15   7   -5.76   14.09
  15   7   1   11.52   15.40
   7  15   1   13.99   14.23
   7   1  15  -14.85   14.43
  15   1   7  -33.78   16.29
   1   7  15    8.80    7.95
   7 -15   1   13.17   13.91
  15  -1   7    8.23   10.05
   7  -1  15   -4.12   14.45
  15  -7   1   13.99   14.51
   1 -15   7    0.00   13.97
   1  -7  15   17.32   13.17
   3  15   7  -23.49   13.99
   3   7  15   19.32   13.93
   7  15   3   -5.87   14.64
  15   7   3   -7.55   14.74
   7   3  15   -4.20   14.43
  15   3   7    9.23   14.36
   7 -15   3    1.68   15.14
   3 -15   7   15.94   13.96
   3  -7  15    0.00   13.65
  15  -3   7   15.95   13.51
  15  -7   3    0.00   13.78
   7  -3  15   11.76   15.44
   7   5  15    7.93   14.50
  15   7   5    8.78   14.50
   7  15   5    3.57   13.70
   5  15   7   12.26   14.61
  15   5   7   -4.20   15.91
   5   7  15  -13.76   15.38
  15  -7   5    9.65   14.21
   7 -15   5    3.59   14.95
   5  -7  15   17.47   14.15
   5 -15   7    5.31   14.40
   7  -5  15   11.40   14.61
  15  -5   7    9.66   15.14
   7  15   7   -8.21   15.46
  15   7   7    8.09   10.70
   7   7  15    8.10   10.55
   7  -7  15  -15.49   16.36
  15  -7   7   -6.41   16.14
   7 -15   7    4.93    7.17
  15   9   1    3.20    5.07
   9   1  15  -19.56   16.10
  15   1   9   10.02   10.58
   9  15   1   -3.65   15.76
   1  15   9   -5.40   14.65
   1   9  15   -6.30   15.12
   9 -15   1   -5.41   15.10
  15  -1   9   11.94    8.40
   1  -9  15  -25.73   15.47
   1 -15   9   -6.30   15.10
  15  -9   1    7.50    8.97
   9  -1  15   17.53   14.88
   3  15   9   -1.85   14.80
  15   3   9   -8.12   16.18
   3   9  15   -7.22   14.82
  15   9   3  -25.07   15.53
   9   3  15  -15.28   16.00
   9  15   3   -9.89   15.81
  15  -9   3    8.86   16.77
   3  -9  15   10.68   15.96
   9 -15   3    4.40   14.98
   9  -3  15   15.17   13.66
   3 -15   9   -7.22   16.35
  15  -3   9   -8.12   15.57
  15   5   9    2.75   16.13
   9   5  15   -6.42   14.38
  15   9   5   -2.75   15.32
   5   9  15    1.84   14.64
   9  15   5    6.41   14.05
   5  15   9  -22.93   16.94
   5 -15   9    0.00   15.89
   5  -9  15   10.10   11.06
  15  -9   5  -10.09   15.26
   9  -5  15    0.91   16.25
   9 -15   5    6.81    5.66
  15  -5   9   -3.67   15.78
  11   1  15    1.88   14.42
  15   1  11   -4.69   16.27
  11  15   1   17.78   15.24
   1  15  11    0.00   15.74
   1  11  15   18.77   14.42
  15  11   1  -18.73   16.32
  15  -1  11    9.37   15.18
  11  -1  15   -6.57   15.90
   1 -11  15   -6.56   15.39
  11 -15   1    7.49   15.94
   1 -15  11    3.75   15.69
  15 -11   1  -20.59   16.59
   0  16   0  554.52   25.26
   0   0  16  561.53   26.27
  16   0   0  568.75   25.33
   0 -16   0  578.06   25.48
   0  -2  16  341.59   22.85
   0 -16   2  398.73   22.65
   0  16   2  300.37   22.17
  16   2   0  401.03   22.52
   2   0  16  360.70   23.35
  16  -2   0  367.70   23.10
   0   2  16  344.80   21.81
   2  16   0  341.48   22.55
  16   0   2  380.53   22.16
   2 -16   0  411.28   21.93
   2   2  16  207.98   20.55
  16   2   2  209.91   19.39
   2  16   2  248.34   18.48
   2 -16   2  217.10   18.84
   2  -2  16  214.40   19.82
  16  -2   2  224.33   19.98
   4  16   0  397.03   22.45
  16   0   4  405.52   23.40
  16  -4   0  441.19   23.59
   4   0  16  389.11   23.66
   4 -16   0  439.49   22.42
   0  16   4  403.81   22.77
   0  -4  16  389.06   23.58
   0   4  16  403.79   22.97
  16   4   0  356.24   22.96
   0 -16   4  389.13   24.94
  16   4   2  283.73   20.45
   4   2  16  238.90   19.76
   2   4  16  281.07   20.52
   4  16   2  233.36   21.22
   2  16   4  239.21   20.75
  16   2   4  221.50   14.91
  16  -4   2  291.97   20.62
  16  -2   4  288.79   21.24
   4  -2  16  296.77   21.14
   2 -16   4  281.31   20.30
   4 -16   2  234.18   21.14
   2  -4  16  245.50   21.20
   4  16   4  285.60   19.94
  16   4   4  260.14   21.81
   4   4  16  251.29   21.57
   4 -16   4  307.57   21.83
   4  -4  16  284.43   21.82
  16  -4   4  296.62   21.33
   6 -16   0  350.35   22.76
  16  -6   0  393.97   24.21
   6   0  16  340.15   22.61
  16   6   0  345.25   22.27
   0 -16   6  349.00   24.24
   0  16   6  330.17   21.90
  16   0   6  378.95   23.31
   0  -6  16  395.79   23.07
   6  16   0  329.87   24.43
   0   6  16  342.72   24.88
   2   6  16  236.59   21.24
   6  16   2  248.12   20.03
   2  16   6  211.19   20.58
   6   2  16  225.39   19.10
  16   6   2  259.34   20.71
  16   2   6  227.59   21.75
   2  -6  16  294.49   20.71
  16  -2   6  237.94   21.44
   6 -16   2  242.92   21.64
   2 -16   6  237.06   21.63
  16  -6   2  221.41   20.78
   6  -2  16  241.78   21.24
  16   6   4  251.59   21.44
   6  16   4  262.16   21.87
   4   6  16  253.82   20.74
  16   4   6  256.09   21.85
   6   4  16  264.45   21.52
   4  16   6  253.43   22.33
   6 -16   4  263.05   21.89
  16  -6   4  280.70   21.28
   4  -6  16  275.06   22.47
  16  -4   6  259.63   22.46
   6  -4  16  238.80   20.76
   4 -16   6  284.28   21.24
   6   6  16  244.18   21.65
  16   6   6  258.39   22.38
   6  16   6  225.51   21.92
   6  -6  16  224.07   21.80
   6 -16   6  213.64   21.32
  16  -6   6  255.65   22.10
  16   8   0  238.60   21.96
   0  -8  16  215.73   14.19
  16  -8   0  207.97   14.75
   8  16   0  181.86   13.92
   0  16   8  233.48   21.77
   8 -16   0  217.87   18.88
   8   0  16  181.00   15.47
   0   8  16  163.38   14.93
  16   0   8  230.82   20.91
   0 -16   8  236.18   21.03
   2  16   8  120.00   11.22
   2   8  16  138.95   13.40
  16   8   2  134.71   11.07
  16   2   8  137.89   12.80
   8  16   2  136.81   12.82
   8   2  16  148.05   13.18
   2  -8  16  131.67   10.92
   8 -16   2  143.46   10.65
   2 -16   8  119.10   10.90
  16  -2   8  123.95   11.37
   8  -2  16  133.20   10.97
  16  -8   2  134.71   10.66
   4   8  16  118.17   11.71
   8  16   4  145.01   11.37
  16   8   4  129.64   11.65
  16   4   8  128.80   11.45
   8   4  16  150.53   11.58
   4  16   8  140.47   13.93
   8 -16   4  143.16   13.97
   4  -8  16  145.28   13.65
  16  -8   4  163.94   13.99
   4 -16   8  176.95   13.99
   8  -4  16  163.79   14.15
  16  -4   8  140.04   13.88
   1   1  17   -0.79   15.36
   1  17   1   19.66   14.13
  17   1   1    8.59   15.16
  17  -1   1    7.73   14.98
   1  -1  17   14.58   14.02
   1 -17   1  -17.84   14.98
   1   3  17   17.50   14.94
   3   1  17    8.51    5.83
   1  17   3  -15.49   14.24
  17   1   3   12.27   15.92
   3  17   1   13.12   15.36
  17   3   1   19.20   15.83
  17  -1   3    0.99   15.47
  17  -3   1    8.79   14.94
   3  -1  17   -7.70   14.50
   1 -17   3  -13.75   14.75
   1  -3  17   -5.94   15.89
   3 -17   1    5.33   15.14
   3  17   3    7.83   13.56
   3   3  17  -16.88   14.65
  17   3   3  -10.69   14.96
  17  -3   3   11.35   14.19
   3  -3  17   -0.13   15.61
   3 -17   3  -16.86   14.93
  17   5   1   18.70   14.93
   1  17   5    7.99   14.27
   1   5  17   19.64   14.82
   5  17   1   -5.42   14.35
   5   1  17   14.27   10.77
  17   1   5   19.61   14.13
  17  -1   5    1.73   15.07
   1  -5  17  -11.71   16.25
  17  -5   1   15.12   15.60
   1 -17   5   -3.63   15.06
   5  -1  17   12.48   15.25
   5 -17   1   -5.41   14.18
   5   3  17    5.39   14.41
   3   5  17   -8.23   15.80
  17   3   5  -11.83   15.82
  17   5   3    9.89   15.97
   3  17   5   10.81   14.72
   5  17   3  -12.74   15.63
   3  -5  17  -18.22   16.59
   3 -17   5   -2.78   15.13
  17  -3   5  -10.94   16.31
   5  -3  17  -17.31   15.38
  17  -5   3    0.85   14.91
   5 -17   3  -13.65   16.83
   5   5  17    0.00   15.60
   5  17   5   17.61   15.09
  17   5   5   10.20   17.12
   5 -17   5    8.34   14.97
   5  -5  17   -6.51   15.06
  17  -5   5    7.42   14.24
   1   7  17   -1.86   14.69
   7   1  17   21.37   15.74
  17   7   1   -2.78   16.29
   1  17   7   14.84   15.18
   7  17   1    4.63   15.36
  17   1   7   12.06   15.27
  17  -1   7    6.50   15.94
   7 -17   1   15.75   15.02
   1  -7  17    7.74    8.56
   1 -17   7   12.06   16.09
  17  -7   1    2.78   16.60
   7  -1  17  -13.00   16.20
   7   3  17   19.71   15.85
   7  17   3  -14.05   15.97
  17   7   3   -1.88   16.81
  17   3   7  -28.11   16.40
   3   7  17    7.51   10.52
   3  17   7  -19.68   15.82
   3  -7  17    9.38   14.66
  17  -3   7  -10.31   16.42
   7  -3  17   -1.88   16.04
   7 -17   3   22.47   15.39
   3 -17   7    1.88   15.62
  17  -7   3   -7.50   15.67
  18   0   0  163.96   14.27
   0   0  18  142.90   11.68
   0 -18   0  164.84   14.03
   0  18   0  159.41   13.94
  18  -2   0  103.79    9.17
   0  -2  18  130.80   12.55
   0 -18   2  107.98   10.18
   0  18   2  113.46   10.24
   2  18   0   95.11    8.72
  18   2   0  100.37    9.10
  18   0   2  108.31   10.38
   2 -18   0  107.42    9.12
   2   0  18   93.69    8.09
   0   2  18   96.44    8.10
  18   2   2   66.24    6.04
   2  18   2   54.69    5.51
   2   2  18   56.05    5.70
   2 -18   2   60.96    5.97
  18  -2   2   69.83    6.92
   2  -2  18   51.96    5.59
  18  -4   0  131.42   10.89
   4 -18   0  113.09    9.55
  18   0   4  134.61   12.78
   0  18   4  116.27   10.42
   4  18   0  147.90   13.21
   0 -18   4  116.58   11.11
   4   0  18  132.51   13.21
   0   4  18  112.18   10.56
  18   4   0  119.68   11.12
   0  -4  18  119.31   10.56
   4  18   2   77.33    7.49
  18   4   2   62.63    6.26
  18   2   4   81.45    7.11
   4   2  18   84.83    7.81
   2  18   4   77.92    7.73
   2   4  18   73.53    7.07
   2 -18   4   68.09    6.56
   2  -4  18   93.60    8.31
   4 -18   2   58.58    5.91
   4  -2  18   76.01    6.95
  18  -2   4   82.05    7.92
  18  -4   2   57.34    5.87
;
loop_
_symmetry_equiv_pos_site_id
_space_group_symop_operation_xyz
1 +X,+Y,+Z
2 +Y,+Z,+X
3 +Z,+X,+Y
4 +X,+Y,-Z
5 +Y,+Z,-X
6 +Z,+X,-Y
7 +Y,-Z,-X
8 +Z,-X,-Y
9 -Z,+X,-Y
10 -X,+Y,-Z
11 -Y,+Z,-X
12 +X,-Y,-Z
13 +Y,+X,+Z
14 +Z,+Y,+X
15 +X,+Z,+Y
16 +Y,+X,-Z
17 +Z,+Y,-X
18 +X,+Z,-Y
19 -Z,+Y,-X
20 -X,+Z,-Y
21 +X,-Z,-Y
22 +Y,-X,-Z
23 +Z,-Y,-X
24 -Y,+X,-Z
25 -X,-Y,-Z
26 -Y,-Z,-X
27 -Z,-X,-Y
28 -X,-Y,+Z
29 -Y,-Z,+X
30 -Z,-X,+Y
31 -Y,+Z,+X
32 -Z,+X,+Y
33 +Z,-X,+Y
34 +X,-Y,+Z
35 +Y,-Z,+X
36 -X,+Y,+Z
37 -Y,-X,-Z
38 -Z,-Y,-X
39 -X,-Z,-Y
40 -Y,-X,+Z
41 -Z,-Y,+X
42 -X,-Z,+Y
43 +Z,-Y,+X
44 +X,-Z,+Y
45 -X,+Z,+Y
46 -Y,+X,+Z
47 -Z,+Y,+X
48 +Y,-X,+Z
49 +X,1/2+Y,1/2+Z
50 +Y,1/2+Z,1/2+X
51 +Z,1/2+X,1/2+Y
52 +X,1/2+Y,1/2-Z
53 +Y,1/2+Z,1/2-X
54 +Z,1/2+X,1/2-Y
55 +Y,1/2-Z,1/2-X
56 +Z,1/2-X,1/2-Y
57 -Z,1/2+X,1/2-Y
58 -X,1/2+Y,1/2-Z
59 -Y,1/2+Z,1/2-X
60 +X,1/2-Y,1/2-Z
61 +Y,1/2+X,1/2+Z
62 +Z,1/2+Y,1/2+X
63 +X,1/2+Z,1/2+Y
64 +Y,1/2+X,1/2-Z
65 +Z,1/2+Y,1/2-X
66 +X,1/2+Z,1/2-Y
67 -Z,1/2+Y,1/2-X
68 -X,1/2+Z,1/2-Y
69 +X,1/2-Z,1/2-Y
70 +Y,1/2-X,1/2-Z
71 +Z,1/2-Y,1/2-X
72 -Y,1/2+X,1/2-Z
73 -X,1/2-Y,1/2-Z
74 -Y,1/2-Z,1/2-X
75 -Z,1/2-X,1/2-Y
76 -X,1/2-Y,1/2+Z
77 -Y,1/2-Z,1/2+X
78 -Z,1/2-X,1/2+Y
79 -Y,1/2+Z,1/2+X
80 -Z,1/2+X,1/2+Y
81 +Z,1/2-X,1/2+Y
82 +X,1/2-Y,1/2+Z
83 +Y,1/2-Z,1/2+X
84 -X,1/2+Y,1/2+Z
85 -Y,1/2-X,1/2-Z
86 -Z,1/2-Y,1/2-X
87 -X,1/2-Z,1/2-Y
88 -Y,1/2-X,1/2+Z
89 -Z,1/2-Y,1/2+X
90 -X,1/2-Z,1/2+Y
91 +Z,1/2-Y,1/2+X
92 +X,1/2-Z,1/2+Y
93 -X,1/2+Z,1/2+Y
94 -Y,1/2+X,1/2+Z
95 -Z,1/2+Y,1/2+X
96 +Y,1/2-X,1/2+Z
97 1/2+X,+Y,1/2+Z
98 1/2+Y,+Z,1/2+X
99 1/2+Z,+X,1/2+Y
100 1/2+X,+Y,1/2-Z
101 1/2+Y,+Z,1/2-X
102 1/2+Z,+X,1/2-Y
103 1/2+Y,-Z,1/2-X
104 1/2+Z,-X,1/2-Y
105 1/2-Z,+X,1/2-Y
106 1/2-X,+Y,1/2-Z
107 1/2-Y,+Z,1/2-X
108 1/2+X,-Y,1/2-Z
109 1/2+Y,+X,1/2+Z
110 1/2+Z,+Y,1/2+X
111 1/2+X,+Z,1/2+Y
112 1/2+Y,+X,1/2-Z
113 1/2+Z,+Y,1/2-X
114 1/2+X,+Z,1/2-Y
115 1/2-Z,+Y,1/2-X
116 1/2-X,+Z,1/2-Y
117 1/2+X,-Z,1/2-Y
118 1/2+Y,-X,1/2-Z
119 1/2+Z,-Y,1/2-X
120 1/2-Y,+X,1/2-Z
121 1/2-X,-Y,1/2-Z
122 1/2-Y,-Z,1/2-X
123 1/2-Z,-X,1/2-Y
124 1/2-X,-Y,1/2+Z
125 1/2-Y,-Z,1/2+X
126 1/2-Z,-X,1/2+Y
127 1/2-Y,+Z,1/2+X
128 1/2-Z,+X,1/2+Y
129 1/2+Z,-X,1/2+Y
130 1/2+X,-Y,1/2+Z
131 1/2+Y,-Z,1/2+X
132 1/2-X,+Y,1/2+Z
133 1/2-Y,-X,1/2-Z
134 1/2-Z,-Y,1/2-X
135 1/2-X,-Z,1/2-Y
136 1/2-Y,-X,1/2+Z
137 1/2-Z,-Y,1/2+X
138 1/2-X,-Z,1/2+Y
139 1/2+Z,-Y,1/2+X
140 1/2+X,-Z,1/2+Y
141 1/2-X,+Z,1/2+Y
142 1/2-Y,+X,1/2+Z
143 1/2-Z,+Y,1/2+X
144 1/2+Y,-X,1/2+Z
145 1/2+X,1/2+Y,+Z
146 1/2+Y,1/2+Z,+X
147 1/2+Z,1/2+X,+Y
148 1/2+X,1/2+Y,-Z
149 1/2+Y,1/2+Z,-X
150 1/2+Z,1/2+X,-Y
151 1/2+Y,1/2-Z,-X
152 1/2+Z,1/2-X,-Y
153 1/2-Z,1/2+X,-Y
154 1/2-X,1/2+Y,-Z
155 1/2-Y,1/2+Z,-X
156 1/2+X,1/2-Y,-Z
157 1/2+Y,1/2+X,+Z
158 1/2+Z,1/2+Y,+X
159 1/2+X,1/2+Z,+Y
160 1/2+Y,1/2+X,-Z
161 1/2+Z,1/2+Y,-X
162 1/2+X,1/2+Z,-Y
163 1/2-Z,1/2+Y,-X
164 1/2-X,1/2+Z,-Y
165 1/2+X,1/2-Z,-Y
166 1/2+Y,1/2-X,-Z
167 1/2+Z,1/2-Y,-X
168 1/2-Y,1/2+X,-Z
169 1/2-X,1/2-Y,-Z
170 1/2-Y,1/2-Z,-X
171 1/2-Z,1/2-X,-Y
172 1/2-X,1/2-Y,+Z
173 1/2-Y,1/2-Z,+X
174 1/2-Z,1/2-X,+Y
175 1/2-Y,1/2+Z,+X
176 1/2-Z,1/2+X,+Y
177 1/2+Z,1/2-X,+Y
178 1/2+X,1/2-Y,+Z
179 1/2+Y,1/2-Z,+X
180 1/2-X,1/2+Y,+Z
181 1/2-Y,1/2-X,-Z
182 1/2-Z,1/2-Y,-X
183 1/2-X,1/2-Z,-Y
184 1/2-Y,1/2-X,+Z
185 1/2-Z,1/2-Y,+X
186 1/2-X,1/2-Z,+Y
187 1/2+Z,1/2-Y,+X
188 1/2+X,1/2-Z,+Y
189 1/2-X,1/2+Z,+Y
190 1/2-Y,1/2+X,+Z
191 1/2-Z,1/2+Y,+X
192 1/2+Y,1/2-X,+Z
loop_
_atom_site_label
_atom_site_type_symbol
_atom_site_fract_x
_atom_site_fract_y
_atom_site_fract_z
_atom_site_U_iso_or_equiv
_atom_site_adp_type
_atom_site_occupancy
_atom_site_site_symmetry_multiplicity
_atom_site_calc_flag
Co1 Co 0.5 1.0 0.5 0.0186(4) Uani 0.9998 4 d
Fe1 Fe 0.5 0.5 0.5 0.0152(4) Uani 0.781 4 d
Na1 Na 0.75 0.75 0.75 0.084(15) Uani 0.2304 8 d
O2 O 0.5 1.0 0.725(6) 0.062(17) Uani 0.219 24 d
N1 N 0.5 0.7991(15) 0.5 0.037(2) Uani 0.781 24 d
C1 C 0.5 0.6872(6) 0.5 0.0237(10) Uani 0.781 24 d
loop_
_atom_site_aniso_label
_atom_site_aniso_U_11
_atom_site_aniso_U_22
_atom_site_aniso_U_33
_atom_site_aniso_U_12
_atom_site_aniso_U_13
_atom_site_aniso_U_23
Co1 0.0186(4) 0.0186(4) 0.0186(4) 0.0000 0.0000 0.0000
Fe1 0.0152(4) 0.0152(4) 0.0152(4) 0.0000 0.0000 0.0000
Na1 0.084(15) 0.084(15) 0.084(15) 0.0000 0.0000 0.0000
O2 0.07(2) 0.07(2) 0.04(4) 0.0000 0.0000 0.0000
N1 0.048(4) 0.013(3) 0.048(4) 0.0000 0.0000 0.0000
C1 0.0257(16) 0.020(3) 0.0257(16) 0.0000 0.0000 0.0000
loop_
_atom_type_symbol
_atom_type_description
_atom_type_scat_dispersion_real
_atom_type_scat_dispersion_imag
_atom_type_scat_source
C C 0.0033 0.0016
;
International Tables for Crystallography
(Vol. C, Tables 4.2.6.8 and 6.1.1.4)
;
N N 0.0061 0.0033
;
International Tables for Crystallography
(Vol. C, Tables 4.2.6.8 and 6.1.1.4)
;
Co Co 0.3494 0.9721
;
International Tables for Crystallography
(Vol. C, Tables 4.2.6.8 and 6.1.1.4)
;
Fe Fe 0.3463 0.8444
;
International Tables for Crystallography
(Vol. C, Tables 4.2.6.8 and 6.1.1.4)
;
Na Na 0.0362 0.0249
;
International Tables for Crystallography
(Vol. C, Tables 4.2.6.8 and 6.1.1.4)
;
O O 0.0106 0.0060
;
International Tables for Crystallography
(Vol. C, Tables 4.2.6.8 and 6.1.1.4)
;
loop_
_geom_angle_atom_site_label_1
_geom_angle_atom_site_label_2
_geom_angle_atom_site_label_3
_geom_angle
_geom_angle_publ_flag
_geom_angle_site_symmetry_1
_geom_angle_site_symmetry_3
N1 Co1 N1 180.000 yes . 12_576
N1 Co1 N1 90.000 yes . 51_554
N1 Co1 N1 90.000 yes . 54_556
N1 Co1 N1 90.000 yes . 146_455
N1 Co1 N1 90.000 yes . 155_656
N1 Co1 N1 90.000 yes 12_576 51_554
N1 Co1 N1 90.000 yes 12_576 54_556
N1 Co1 N1 90.000 yes 12_576 146_455
N1 Co1 N1 90.000 yes 12_576 155_656
N1 Co1 N1 180.000 yes 51_554 54_556
N1 Co1 N1 90.000 yes 51_554 146_455
N1 Co1 N1 90.000 yes 51_554 155_656
N1 Co1 N1 90.000 yes 54_556 146_455
N1 Co1 N1 90.000 yes 54_556 155_656
N1 Co1 N1 180.000 yes 146_455 155_656
C1 Fe1 C1 90.000 yes . 2_555
C1 Fe1 C1 90.000 yes . 3_555
C1 Fe1 C1 90.000 yes . 6_556
C1 Fe1 C1 90.000 yes . 11_656
C1 Fe1 C1 180.000 yes . 12_566
C1 Fe1 C1 90.000 yes 2_555 3_555
C1 Fe1 C1 90.000 yes 2_555 6_556
C1 Fe1 C1 180.000 yes 2_555 11_656
C1 Fe1 C1 90.000 yes 2_555 12_566
C1 Fe1 C1 180.000 yes 3_555 6_556
C1 Fe1 C1 90.000 yes 3_555 11_656
C1 Fe1 C1 90.000 yes 3_555 12_566
C1 Fe1 C1 90.000 yes 6_556 11_656
C1 Fe1 C1 90.000 yes 6_556 12_566
C1 Fe1 C1 90.000 yes 11_656 12_566
Co1 N1 C1 180.000 yes . .
Fe1 C1 O2 180.000 yes . 69_566
Fe1 C1 N1 180.000 yes . .
O2 C1 N1 0.000 yes 69_566 .
loop_
_geom_bond_atom_site_label_1
_geom_bond_atom_site_label_2
_geom_bond_distance
_geom_bond_publ_flag
_geom_bond_site_symmetry_2
Co1 N1 2.076(15) yes .
Co1 N1 2.076(15) yes 12_576
Co1 N1 2.076(15) yes 51_554
Co1 N1 2.076(15) yes 54_556
Co1 N1 2.076(15) yes 146_455
Co1 N1 2.076(15) yes 155_656
Fe1 C1 1.934(6) yes .
Fe1 C1 1.934(6) yes 2_555
Fe1 C1 1.934(6) yes 3_555
Fe1 C1 1.934(6) yes 6_556
Fe1 C1 1.934(6) yes 11_656
Fe1 C1 1.934(6) yes 12_566
O2 C1 0.91(6) yes 54_556
N1 C1 1.156(17) yes .
