#------------------------------------------------------------------------------
#$Date: 2017-02-04 15:52:39 +0200 (Sat, 04 Feb 2017) $
#$Revision: 191610 $
#$URL: file:///home/coder/svn-repositories/cod/cif/7/04/15/7041572.cif $
#------------------------------------------------------------------------------
#
# This file is available in the Crystallography Open Database (COD),
# http://www.crystallography.net/
#
# All data on this site have been placed in the public domain by the
# contributors.
#
data_7041572
loop_
_publ_author_name
'Benndorf, Christopher'
'Eckert, Hellmut'
'Janka, Oliver'
_publ_section_title
;
 Ternary rare-earth aluminium intermetallics RE10TAl3 (RE = Y, Ho, Tm, Lu;
 T = Fe, Co, Ni, Ru, Rh, Pd, Os, Ir, Pt) with an ordered anti-Co2Al5
 structure.
;
_journal_issue                   4
_journal_name_full
'Dalton transactions (Cambridge, England : 2003)'
_journal_page_first              1083
_journal_page_last               1092
_journal_paper_doi               10.1039/c6dt04314c
_journal_volume                  46
_journal_year                    2017
_chemical_formula_sum            'Al3 Ru Y10'
_chemical_formula_weight         1071.1
_chemical_name_systematic        ' ?'
_space_group_IT_number           194
_symmetry_cell_setting           hexagonal
_symmetry_Int_Tables_number      194
_symmetry_space_group_name_Hall  '-P 6c 2c'
_symmetry_space_group_name_H-M   'P 63/m m c'
_cell_angle_alpha                90
_cell_angle_beta                 90
_cell_angle_gamma                120
_cell_formula_units_Z            2
_cell_length_a                   9.5888(3)
_cell_length_b                   9.5888(3)
_cell_length_c                   9.5942(3)
_cell_measurement_reflns_used    16205
_cell_measurement_temperature    293
_cell_measurement_theta_max      32.71
_cell_measurement_theta_min      2.45
_cell_volume                     763.96(4)
_diffrn_ambient_temperature      293
_diffrn_measured_fraction_theta_full 1
_diffrn_measured_fraction_theta_max 1
_diffrn_measurement_device       'four-circle diffractometer'
_diffrn_measurement_device_type  'IPDS Stoe'
_diffrn_measurement_method       '??integration method??'
_diffrn_radiation_monochromator  graphite
_diffrn_radiation_probe          x-ray
_diffrn_radiation_source         'X-ray tube'
_diffrn_radiation_type           'Mo K\a'
_diffrn_radiation_wavelength     0.71073
_diffrn_reflns_av_R_equivalents  0.0915
_diffrn_reflns_av_unetI/netI     0.0268
_diffrn_reflns_limit_h_max       14
_diffrn_reflns_limit_h_min       -14
_diffrn_reflns_limit_k_max       14
_diffrn_reflns_limit_k_min       -14
_diffrn_reflns_limit_l_max       14
_diffrn_reflns_limit_l_min       -14
_diffrn_reflns_number            23798
_diffrn_reflns_theta_full        33.67
_diffrn_reflns_theta_max         33.67
_diffrn_reflns_theta_min         2.45
_exptl_absorpt_coefficient_mu    38.57
_exptl_absorpt_correction_T_max  0.467
_exptl_absorpt_correction_T_min  0.453
_exptl_absorpt_correction_type   numerical
_exptl_crystal_colour            silver
_exptl_crystal_density_diffrn    4.6564
_exptl_crystal_description       block
_exptl_crystal_F_000             946
_exptl_crystal_size_max          0.035
_exptl_crystal_size_mid          0.020
_exptl_crystal_size_min          0.020
_refine_diff_density_max         1.69
_refine_diff_density_min         -1.27
_refine_ls_extinction_method     none
_refine_ls_goodness_of_fit_gt    1.65
_refine_ls_goodness_of_fit_ref   1.50
_refine_ls_number_constraints    0
_refine_ls_number_parameters     20
_refine_ls_number_reflns         610
_refine_ls_number_restraints     0
_refine_ls_R_factor_all          0.0568
_refine_ls_R_factor_gt           0.0336
_refine_ls_shift/su_max          0.0002
_refine_ls_shift/su_mean         0.0001
_refine_ls_structure_factor_coef Fsqd
_refine_ls_weighting_details     w=1/(\s^2^(I)+0.0004I^2^)
_refine_ls_weighting_scheme      sigma
_refine_ls_wR_factor_gt          0.0672
_refine_ls_wR_factor_ref         0.0730
_reflns_number_gt                432
_reflns_number_total             610
_reflns_threshold_expression     I>3\s(I)
_cod_data_source_file            c6dt04314c2.cif
_cod_data_source_block           I
_cod_depositor_comments
;
The following automatic conversions were performed:

'_diffrn_radiation_probe' value 'X-ray' changed to 'x-ray' according
to
/usr/data/users/saulius/crontab/automatic-downloads/rss-feeds/RSC/lib/dictionaries/cif_core.dic
dictionary named 'cif_core.dic' version 2.4.2 from 2011-04-26.

Automatic conversion script
Id: cif_fix_values 4268 2015-11-12 08:31:59Z antanas 

 Adding full bibliography for 7041572--7041573.cif.
;
_cod_original_sg_symbol_Hall     '-P 6c;-2c'
_cod_original_formula_sum        'Al3 Ru1 Y10'
_cod_database_code               7041572
loop_
_space_group_symop_id
_space_group_symop_operation_xyz
1 x,y,z
2 -y,x-y,z
3 -x+y,-x,z
4 -x,-y,z+1/2
5 y,-x+y,z+1/2
6 x-y,x,z+1/2
7 y,x,-z
8 x-y,-y,-z
9 -x,-x+y,-z
10 -y,-x,-z+1/2
11 -x+y,y,-z+1/2
12 x,x-y,-z+1/2
13 -x,-y,-z
14 y,-x+y,-z
15 x-y,x,-z
16 x,y,-z+1/2
17 -y,x-y,-z+1/2
18 -x+y,-x,-z+1/2
19 -y,-x,z
20 -x+y,y,z
21 x,x-y,z
22 y,x,z+1/2
23 x-y,-y,z+1/2
24 -x,-x+y,z+1/2
loop_
_atom_site_label
_atom_site_type_symbol
_atom_site_fract_x
_atom_site_fract_y
_atom_site_fract_z
_atom_site_adp_type
_atom_site_U_iso_or_equiv
_atom_site_site_symmetry_multiplicity
_atom_site_occupancy
_atom_site_calc_flag
Y1 Y 0.20785(5) 0.41570(9) 0.05909(7) Uani 0.0205(2) 12 1 d
Y2 Y 0.54048(7) 0.08095(14) 0.25 Uani 0.0223(3) 6 1 d
Y3 Y 0 0 0 Uani 0.0256(5) 2 1 d
Ru Ru 0.333333 0.666667 0.25 Uani 0.0206(3) 2 1 d
Al Al 0.2257(5) 0.1128(2) 0.25 Uani 0.0263(12) 6 1 d
loop_
_atom_site_aniso_label
_atom_site_aniso_type_symbol
_atom_site_aniso_U_11
_atom_site_aniso_U_22
_atom_site_aniso_U_33
_atom_site_aniso_U_12
_atom_site_aniso_U_13
_atom_site_aniso_U_23
Y1 Y 0.0204(2) 0.0211(3) 0.0203(3) 0.01053(16) -0.00088(14) -0.0018(3)
Y2 Y 0.0235(3) 0.0223(5) 0.0206(4) 0.0112(2) 0 0
Y3 Y 0.0241(6) 0.0241(6) 0.0286(9) 0.0121(3) 0 0
Ru Ru 0.0229(4) 0.0229(4) 0.0161(5) 0.0115(2) 0 0
Al Al 0.0252(18) 0.0306(13) 0.0213(14) 0.0126(9) 0 0
loop_
_atom_type_symbol
_atom_type_scat_dispersion_real
_atom_type_scat_dispersion_imag
_atom_type_scat_source
Al 0.0645 0.0514 'International Tables Vol C tables 4.2.6.8 and 6.1.1.1'
Ru -1.2594 0.8363 'International Tables Vol C tables 4.2.6.8 and 6.1.1.1'
Y -2.7962 3.5667 'International Tables Vol C tables 4.2.6.8 and 6.1.1.1'
loop_
_geom_angle_atom_site_label_1
_geom_angle_atom_site_label_2
_geom_angle_atom_site_label_3
_geom_angle_site_symmetry_1
_geom_angle_site_symmetry_3
_geom_angle
Y1 Y1 Y1 2_665 3_565 60.00(3)
Y1 Y1 Y1 2_665 7_555 90.00(2)
Y1 Y1 Y1 2_665 9_555 145.36(3)
Y1 Y1 Y1 2_665 11_555 90.00(2)
Y1 Y1 Y2 2_665 2_555 109.51(3)
Y1 Y1 Y2 2_665 3_665 59.12(2)
Y1 Y1 Y2 2_665 5_564 90.16(3)
Y1 Y1 Y2 2_665 6_554 60.166(17)
Y1 Y1 Y3 2_665 . 148.71(3)
Y1 Y1 Ru 2_665 . 49.420(16)
Y1 Y1 Al 2_665 . 112.92(6)
Y1 Y1 Al 2_665 2_555 148.42(4)
Y1 Y1 Al 2_665 6_554 114.01(6)
Y1 Y1 Y1 3_565 7_555 145.36(2)
Y1 Y1 Y1 3_565 9_555 90.00(3)
Y1 Y1 Y1 3_565 11_555 90.00(3)
Y1 Y1 Y2 3_565 2_555 59.12(3)
Y1 Y1 Y2 3_565 3_665 109.51(2)
Y1 Y1 Y2 3_565 5_564 60.17(3)
Y1 Y1 Y2 3_565 6_554 90.16(3)
Y1 Y1 Y3 3_565 . 148.71(2)
Y1 Y1 Ru 3_565 . 49.420(19)
Y1 Y1 Al 3_565 . 148.42(3)
Y1 Y1 Al 3_565 2_555 112.92(8)
Y1 Y1 Al 3_565 6_554 114.01(9)
Y1 Y1 Y1 7_555 9_555 110.73(3)
Y1 Y1 Y1 7_555 11_555 108.18(3)
Y1 Y1 Y2 7_555 2_555 155.35(3)
Y1 Y1 Y2 7_555 3_665 60.96(2)
Y1 Y1 Y2 7_555 5_564 106.99(3)
Y1 Y1 Y2 7_555 6_554 57.92(2)
Y1 Y1 Y3 7_555 . 58.713(16)
Y1 Y1 Ru 7_555 . 124.25(2)
Y1 Y1 Al 7_555 . 56.08(5)
Y1 Y1 Al 7_555 2_555 101.71(8)
Y1 Y1 Al 7_555 6_554 60.09(10)
Y1 Y1 Y1 9_555 11_555 108.18(2)
Y1 Y1 Y2 9_555 2_555 60.96(2)
Y1 Y1 Y2 9_555 3_665 155.35(3)
Y1 Y1 Y2 9_555 5_564 57.92(2)
Y1 Y1 Y2 9_555 6_554 106.99(3)
Y1 Y1 Y3 9_555 . 58.713(18)
Y1 Y1 Ru 9_555 . 124.25(3)
Y1 Y1 Al 9_555 . 101.71(6)
Y1 Y1 Al 9_555 2_555 56.08(3)
Y1 Y1 Al 9_555 6_554 60.09(8)
Y1 Y1 Y2 11_555 2_555 58.61(2)
Y1 Y1 Y2 11_555 3_665 58.61(2)
Y1 Y1 Y2 11_555 5_564 144.83(4)
Y1 Y1 Y2 11_555 6_554 144.83(3)
Y1 Y1 Y3 11_555 . 99.33(2)
Y1 Y1 Ru 11_555 . 48.689(16)
Y1 Y1 Al 11_555 . 58.54(3)
Y1 Y1 Al 11_555 2_555 58.54(3)
Y1 Y1 Al 11_555 6_554 151.98(6)
Y2 Y1 Y2 2_555 3_665 115.84(3)
Y2 Y1 Y2 2_555 5_564 88.41(3)
Y2 Y1 Y2 2_555 6_554 145.10(4)
Y2 Y1 Y3 2_555 . 100.75(2)
Y2 Y1 Ru 2_555 . 65.06(2)
Y2 Y1 Al 2_555 . 101.20(6)
Y2 Y1 Al 2_555 2_555 53.87(8)
Y2 Y1 Al 2_555 6_554 120.56(9)
Y2 Y1 Y2 3_665 5_564 145.10(2)
Y2 Y1 Y2 3_665 6_554 88.41(3)
Y2 Y1 Y3 3_665 . 100.75(3)
Y2 Y1 Ru 3_665 . 65.064(18)
Y2 Y1 Al 3_665 . 53.87(5)
Y2 Y1 Al 3_665 2_555 101.20(5)
Y2 Y1 Al 3_665 6_554 120.56(10)
Y2 Y1 Y2 5_564 6_554 60.04(3)
Y2 Y1 Y3 5_564 . 98.59(2)
Y2 Y1 Ru 5_564 . 108.97(3)
Y2 Y1 Al 5_564 . 149.62(4)
Y2 Y1 Al 5_564 2_555 113.58(4)
Y2 Y1 Al 5_564 6_554 54.03(9)
Y2 Y1 Y3 6_554 . 98.59(2)
Y2 Y1 Ru 6_554 . 108.970(18)
Y2 Y1 Al 6_554 . 113.58(6)
Y2 Y1 Al 6_554 2_555 149.62(6)
Y2 Y1 Al 6_554 6_554 54.02(6)
Y3 Y1 Ru . . 148.02(3)
Y3 Y1 Al . . 51.49(3)
Y3 Y1 Al . 2_555 51.49(6)
Y3 Y1 Al . 6_554 52.65(6)
Ru Y1 Al . . 101.17(3)
Ru Y1 Al . 2_555 101.17(5)
Ru Y1 Al . 6_554 159.33(6)
Al Y1 Al . 2_555 55.10(9)
Al Y1 Al . 6_554 97.13(8)
Al Y1 Al 2_555 6_554 97.13(6)
Y1 Y2 Y1 2_655 3_555 61.77(3)
Y1 Y2 Y1 2_655 5_555 151.55(3)
Y1 Y2 Y1 2_655 6_655 111.62(4)
Y1 Y2 Y1 2_655 7_555 91.586(19)
Y1 Y2 Y1 2_655 9_655 61.12(2)
Y1 Y2 Y1 2_655 10_655 62.78(3)
Y1 Y2 Y1 2_655 12_555 93.99(3)
Y1 Y2 Y2 2_655 2_655 109.51(3)
Y1 Y2 Y2 2_655 3_665 147.922(18)
Y1 Y2 Ru 2_655 1_545 47.00(2)
Y1 Y2 Al 2_655 . 124.63(3)
Y1 Y2 Al 2_655 2_655 62.95(7)
Y1 Y2 Y1 3_555 5_555 111.63(3)
Y1 Y2 Y1 3_555 6_655 151.55(3)
Y1 Y2 Y1 3_555 7_555 61.117(14)
Y1 Y2 Y1 3_555 9_655 91.586(17)
Y1 Y2 Y1 3_555 10_655 93.99(3)
Y1 Y2 Y1 3_555 12_555 62.785(19)
Y1 Y2 Y2 3_555 2_655 147.922(17)
Y1 Y2 Y2 3_555 3_665 109.51(3)
Y1 Y2 Ru 3_555 1_545 46.995(16)
Y1 Y2 Al 3_555 . 62.95(3)
Y1 Y2 Al 3_555 2_655 124.63(7)
Y1 Y2 Y1 5_555 6_655 59.67(2)
Y1 Y2 Y1 5_555 7_555 109.65(4)
Y1 Y2 Y1 5_555 9_655 146.23(4)
Y1 Y2 Y1 5_555 10_655 91.59(2)
Y1 Y2 Y1 5_555 12_555 61.12(2)
Y1 Y2 Y2 5_555 2_655 89.84(3)
Y1 Y2 Y2 5_555 3_665 59.98(3)
Y1 Y2 Ru 5_555 1_545 106.885(18)
Y1 Y2 Al 5_555 . 58.67(2)
Y1 Y2 Al 5_555 2_655 118.14(3)
Y1 Y2 Y1 6_655 7_555 146.23(4)
Y1 Y2 Y1 6_655 9_655 109.65(2)
Y1 Y2 Y1 6_655 10_655 61.117(17)
Y1 Y2 Y1 6_655 12_555 91.586(16)
Y1 Y2 Y2 6_655 2_655 59.981(15)
Y1 Y2 Y2 6_655 3_665 89.84(3)
Y1 Y2 Ru 6_655 1_545 106.89(3)
Y1 Y2 Al 6_655 . 118.14(3)
Y1 Y2 Al 6_655 2_655 58.67(3)
Y1 Y2 Y1 7_555 9_655 59.667(19)
Y1 Y2 Y1 7_555 10_655 151.55(3)
Y1 Y2 Y1 7_555 12_555 111.63(2)
Y1 Y2 Y2 7_555 2_655 89.84(3)
Y1 Y2 Y2 7_555 3_665 59.98(2)
Y1 Y2 Ru 7_555 1_545 106.885(14)
Y1 Y2 Al 7_555 . 58.67(2)
Y1 Y2 Al 7_555 2_655 118.14(3)
Y1 Y2 Y1 9_655 10_655 111.62(4)
Y1 Y2 Y1 9_655 12_555 151.55(3)
Y1 Y2 Y2 9_655 2_655 59.981(17)
Y1 Y2 Y2 9_655 3_665 89.84(3)
Y1 Y2 Ru 9_655 1_545 106.88(3)
Y1 Y2 Al 9_655 . 118.14(3)
Y1 Y2 Al 9_655 2_655 58.67(3)
Y1 Y2 Y1 10_655 12_555 61.77(2)
Y1 Y2 Y2 10_655 2_655 109.51(3)
Y1 Y2 Y2 10_655 3_665 147.922(16)
Y1 Y2 Ru 10_655 1_545 46.995(19)
Y1 Y2 Al 10_655 . 124.63(3)
Y1 Y2 Al 10_655 2_655 62.95(7)
Y1 Y2 Y2 12_555 2_655 147.922(18)
Y1 Y2 Y2 12_555 3_665 109.51(4)
Y1 Y2 Ru 12_555 1_545 46.995(19)
Y1 Y2 Al 12_555 . 62.95(3)
Y1 Y2 Al 12_555 2_655 124.63(7)
Y2 Y2 Y2 2_655 3_665 60.00(4)
Y2 Y2 Ru 2_655 1_545 150.00(5)
Y2 Y2 Al 2_655 . 115.23(6)
Y2 Y2 Al 2_655 2_655 55.23(8)
Y2 Y2 Ru 3_665 1_545 150.00(3)
Y2 Y2 Al 3_665 . 55.23(4)
Y2 Y2 Al 3_665 2_655 115.23(9)
Ru Y2 Al 1_545 . 94.77(4)
Ru Y2 Al 1_545 2_655 94.77(9)
Al Y2 Al . 2_655 170.46(10)
Y1 Y3 Y1 . 2_555 117.43(2)
Y1 Y3 Y1 . 3_555 117.426(14)
Y1 Y3 Y1 . 7_555 62.574(14)
Y1 Y3 Y1 . 8_555 180.0(5)
Y1 Y3 Y1 . 9_555 62.574(15)
Y1 Y3 Al . . 64.44(5)
Y1 Y3 Al . 2_555 64.44(7)
Y1 Y3 Al . 3_555 118.67(6)
Y1 Y3 Al . 4_554 115.56(5)
Y1 Y3 Al . 5_554 115.56(7)
Y1 Y3 Al . 6_554 61.33(6)
Y1 Y3 Y1 2_555 3_555 117.43(2)
Y1 Y3 Y1 2_555 7_555 180.0(5)
Y1 Y3 Y1 2_555 8_555 62.57(2)
Y1 Y3 Y1 2_555 9_555 62.57(2)
Y1 Y3 Al 2_555 . 118.67(6)
Y1 Y3 Al 2_555 2_555 64.44(4)
Y1 Y3 Al 2_555 3_555 64.44(9)
Y1 Y3 Al 2_555 4_554 61.33(6)
Y1 Y3 Al 2_555 5_554 115.56(4)
Y1 Y3 Al 2_555 6_554 115.56(9)
Y1 Y3 Y1 3_555 7_555 62.574(15)
Y1 Y3 Y1 3_555 8_555 62.57(2)
Y1 Y3 Y1 3_555 9_555 180.0(5)
Y1 Y3 Al 3_555 . 64.44(7)
Y1 Y3 Al 3_555 2_555 118.67(7)
Y1 Y3 Al 3_555 3_555 64.44(10)
Y1 Y3 Al 3_555 4_554 115.56(7)
Y1 Y3 Al 3_555 5_554 61.33(7)
Y1 Y3 Al 3_555 6_554 115.56(10)
Y1 Y3 Y1 7_555 8_555 117.43(2)
Y1 Y3 Y1 7_555 9_555 117.426(14)
Y1 Y3 Al 7_555 . 61.33(6)
Y1 Y3 Al 7_555 2_555 115.56(4)
Y1 Y3 Al 7_555 3_555 115.56(9)
Y1 Y3 Al 7_555 4_554 118.67(6)
Y1 Y3 Al 7_555 5_554 64.44(4)
Y1 Y3 Al 7_555 6_554 64.44(9)
Y1 Y3 Y1 8_555 9_555 117.43(2)
Y1 Y3 Al 8_555 . 115.56(5)
Y1 Y3 Al 8_555 2_555 115.56(7)
Y1 Y3 Al 8_555 3_555 61.33(6)
Y1 Y3 Al 8_555 4_554 64.44(5)
Y1 Y3 Al 8_555 5_554 64.44(7)
Y1 Y3 Al 8_555 6_554 118.67(6)
Y1 Y3 Al 9_555 . 115.56(7)
Y1 Y3 Al 9_555 2_555 61.33(7)
Y1 Y3 Al 9_555 3_555 115.56(10)
Y1 Y3 Al 9_555 4_554 64.44(7)
Y1 Y3 Al 9_555 5_554 118.67(7)
Y1 Y3 Al 9_555 6_554 64.44(10)
Al Y3 Al . 2_555 64.44(8)
Al Y3 Al . 3_555 64.44(7)
Al Y3 Al . 4_554 180.0(5)
Al Y3 Al . 5_554 115.56(8)
Al Y3 Al . 6_554 115.56(7)
Al Y3 Al 2_555 3_555 64.44(12)
Al Y3 Al 2_555 4_554 115.56(8)
Al Y3 Al 2_555 5_554 180.0(5)
Al Y3 Al 2_555 6_554 115.56(12)
Al Y3 Al 3_555 4_554 115.56(7)
Al Y3 Al 3_555 5_554 115.56(12)
Al Y3 Al 3_555 6_554 180.0(5)
Al Y3 Al 4_554 5_554 64.44(8)
Al Y3 Al 4_554 6_554 64.44(7)
Al Y3 Al 5_554 6_554 64.44(12)
Y1 Ru Y1 . 2_665 81.160(19)
Y1 Ru Y1 . 3_565 81.16(2)
Y1 Ru Y1 . 10_665 135.88(2)
Y1 Ru Y1 . 11_555 82.62(2)
Y1 Ru Y1 . 12_565 135.881(14)
Y1 Ru Y2 . 1_565 138.689(15)
Y1 Ru Y2 . 2_555 67.94(2)
Y1 Ru Y2 . 3_665 67.940(18)
Y1 Ru Y1 2_665 3_565 81.16(3)
Y1 Ru Y1 2_665 10_665 82.62(2)
Y1 Ru Y1 2_665 11_555 135.88(3)
Y1 Ru Y1 2_665 12_565 135.88(2)
Y1 Ru Y2 2_665 1_565 67.94(2)
Y1 Ru Y2 2_665 2_555 138.689(15)
Y1 Ru Y2 2_665 3_665 67.94(3)
Y1 Ru Y1 3_565 10_665 135.881(14)
Y1 Ru Y1 3_565 11_555 135.88(2)
Y1 Ru Y1 3_565 12_565 82.62(2)
Y1 Ru Y2 3_565 1_565 67.941(14)
Y1 Ru Y2 3_565 2_555 67.94(2)
Y1 Ru Y2 3_565 3_665 138.689(17)
Y1 Ru Y1 10_665 11_555 81.160(19)
Y1 Ru Y1 10_665 12_565 81.16(2)
Y1 Ru Y2 10_665 1_565 67.941(15)
Y1 Ru Y2 10_665 2_555 138.689(15)
Y1 Ru Y2 10_665 3_665 67.940(18)
Y1 Ru Y1 11_555 12_565 81.16(3)
Y1 Ru Y2 11_555 1_565 138.689(15)
Y1 Ru Y2 11_555 2_555 67.94(3)
Y1 Ru Y2 11_555 3_665 67.94(3)
Y1 Ru Y2 12_565 1_565 67.940(18)
Y1 Ru Y2 12_565 2_555 67.94(2)
Y1 Ru Y2 12_565 3_665 138.689(17)
Y2 Ru Y2 1_565 2_555 120.00(3)
Y2 Ru Y2 1_565 3_665 120.00(2)
Y2 Ru Y2 2_555 3_665 120.00(3)
Y1 Al Y1 . 3_555 116.845(19)
Y1 Al Y1 . 5_555 118.72(6)
Y1 Al Y1 . 7_555 63.83(3)
Y1 Al Y1 . 11_555 62.93(6)
Y1 Al Y1 . 12_555 175.17(12)
Y1 Al Y2 . . 121.37(7)
Y1 Al Y2 . 3_665 63.18(4)
Y1 Al Y3 . . 64.07(5)
Y1 Al Y3 . 4_555 112.66(13)
Y1 Al Al . 2_555 62.45(9)
Y1 Al Al . 3_555 112.92(14)
Y1 Al Y1 3_555 5_555 118.72(11)
Y1 Al Y1 3_555 7_555 63.83(4)
Y1 Al Y1 3_555 11_555 175.17(12)
Y1 Al Y1 3_555 12_555 62.93(5)
Y1 Al Y2 3_555 . 63.18(7)
Y1 Al Y2 3_555 3_665 121.37(11)
Y1 Al Y3 3_555 . 64.07(3)
Y1 Al Y3 3_555 4_555 112.66(5)
Y1 Al Al 3_555 2_555 112.92(9)
Y1 Al Al 3_555 3_555 62.45(9)
Y1 Al Y1 5_555 7_555 123.96(12)
Y1 Al Y1 5_555 11_555 63.83(3)
Y1 Al Y1 5_555 12_555 63.83(5)
Y1 Al Y2 5_555 . 67.30(7)
Y1 Al Y2 5_555 3_665 67.30(5)
Y1 Al Y3 5_555 . 170.02(11)
Y1 Al Y3 5_555 4_555 66.019(13)
Y1 Al Al 5_555 2_555 114.01(8)
Y1 Al Al 5_555 3_555 114.01(4)
Y1 Al Y1 7_555 11_555 118.72(6)
Y1 Al Y1 7_555 12_555 118.72(11)
Y1 Al Y2 7_555 . 67.30(7)
Y1 Al Y2 7_555 3_665 67.30(5)
Y1 Al Y3 7_555 . 66.019(13)
Y1 Al Y3 7_555 4_555 170.02(11)
Y1 Al Al 7_555 2_555 114.01(8)
Y1 Al Al 7_555 3_555 114.01(4)
Y1 Al Y1 11_555 12_555 116.85(2)
Y1 Al Y2 11_555 . 121.37(7)
Y1 Al Y2 11_555 3_665 63.18(4)
Y1 Al Y3 11_555 . 112.66(13)
Y1 Al Y3 11_555 4_555 64.07(5)
Y1 Al Al 11_555 2_555 62.45(9)
Y1 Al Al 11_555 3_555 112.92(14)
Y1 Al Y2 12_555 . 63.18(7)
Y1 Al Y2 12_555 3_665 121.37(11)
Y1 Al Y3 12_555 . 112.66(5)
Y1 Al Y3 12_555 4_555 64.07(3)
Y1 Al Al 12_555 2_555 112.92(9)
Y1 Al Al 12_555 3_555 62.45(9)
Y2 Al Y2 . 3_665 69.54(8)
Y2 Al Y3 . . 120.38(8)
Y2 Al Y3 . 4_555 120.38(8)
Y2 Al Al . 2_555 175.23(10)
Y2 Al Al . 3_555 115.23(14)
Y2 Al Y3 3_665 . 120.38(4)
Y2 Al Y3 3_665 4_555 120.38(4)
Y2 Al Al 3_665 2_555 115.23(13)
Y2 Al Al 3_665 3_555 175.23(18)
Y3 Al Y3 . 4_555 104.00(11)
Y3 Al Al . 2_555 57.78(8)
Y3 Al Al . 3_555 57.78(6)
Y3 Al Al 4_555 2_555 57.78(8)
Y3 Al Al 4_555 3_555 57.78(6)
Al Al Al 2_555 3_555 60.00(14)
loop_
_geom_bond_atom_site_label_1
_geom_bond_atom_site_label_2
_geom_bond_site_symmetry_2
_geom_bond_distance
Y1 Y1 2_665 3.6097(9)
Y1 Y1 3_565 3.6097(12)
Y1 Y1 7_555 3.6335(12)
Y1 Y1 9_555 3.6335(7)
Y1 Y1 11_555 3.6632(10)
Y1 Y2 2_555 3.5162(15)
Y1 Y2 3_665 3.5162(14)
Y1 Y2 5_564 3.6280(13)
Y1 Y2 6_554 3.6280(10)
Y1 Y3 . 3.4983(8)
Y1 Ru . 2.7745(8)
Y1 Al . 3.509(3)
Y1 Al 2_555 3.509(2)
Y1 Al 6_554 3.3592(19)
Y2 Y2 2_655 3.6300(13)
Y2 Y2 3_665 3.6300(17)
Y2 Ru 1_545 3.4403(12)
Y2 Al . 3.182(5)
Y2 Al 2_655 3.183(3)
Y3 Al . 3.044(2)
Y3 Al 2_555 3.044(3)
Y3 Al 3_555 3.044(2)
Y3 Al 4_554 3.044(2)
Y3 Al 5_554 3.044(3)
Y3 Al 6_554 3.044(2)
Al Al 2_555 3.246(6)
Al Al 3_555 3.246(4)
loop_
_refln_index_h
_refln_index_k
_refln_index_l
_refln_F_squared_calc
_refln_F_squared_meas
_refln_F_squared_sigma
_refln_observed_status
0 1 0 2673.52 2316.82 387.84 o
-1 2 0 3197.35 3360.65 335.15 o
0 2 0 27.69 81.71 261.84 <
-1 3 0 24668.20 24553.50 255.43 o
0 3 0 18870.50 19136.80 315.22 o
-2 4 0 76552.50 78052.90 499.36 o
-1 4 0 1267.42 1343.79 144.12 o
0 4 0 5716.16 5756.27 210.98 o
-2 5 0 14617.10 13805.60 160.26 o
-1 5 0 8830.89 8587.48 133.99 o
0 5 0 31480.20 29145.40 257.96 o
-3 6 0 163029.00 164481.00 587.50 o
-2 6 0 405.98 356.57 127.06 <
-1 6 0 301.53 236.54 151.31 <
0 6 0 1632.97 1969.58 255.36 o
-3 7 0 4138.37 4084.49 200.02 o
-2 7 0 1202.90 1236.86 159.22 o
-1 7 0 418.38 442.15 181.53 <
0 7 0 5223.99 4894.86 240.63 o
-4 8 0 836.47 957.94 200.51 o
-3 8 0 18.39 136.37 151.30 <
-2 8 0 9059.85 9167.52 171.76 o
-1 8 0 30872.60 31205.90 248.27 o
0 8 0 7900.68 8041.02 223.07 o
-4 9 0 463.87 611.55 121.78 o
-3 9 0 920.30 1061.45 121.96 o
-2 9 0 470.96 480.28 141.29 o
-1 9 0 1134.49 1326.46 115.81 o
0 9 0 19214.40 20435.10 255.85 o
-5 10 0 45399.10 46548.50 353.26 o
-4 10 0 888.84 901.52 122.84 o
-3 10 0 71.16 150.95 116.33 <
-2 10 0 474.13 533.00 110.18 o
-1 10 0 756.02 901.17 102.28 o
0 10 0 5155.89 5782.79 162.23 o
-5 11 0 2442.34 2597.14 105.10 o
-4 11 0 1342.56 1586.56 106.32 o
-3 11 0 6267.13 6363.73 147.99 o
-2 11 0 14.37 214.57 99.29 <
-1 11 0 200.91 87.87 95.77 <
0 11 0 9.38 23.72 123.71 <
-6 12 0 6968.37 7550.25 180.16 o
-5 12 0 1.20 107.37 97.53 <
-4 12 0 663.20 813.47 111.59 o
-3 12 0 971.70 1099.05 104.74 o
-2 12 0 480.68 556.54 88.57 o
-1 12 0 145.68 187.68 79.61 <
0 12 0 204.80 194.01 111.24 <
-6 13 0 2204.08 2362.49 97.01 o
-5 13 0 881.97 971.11 87.69 o
-4 13 0 120.21 139.18 87.87 <
-3 13 0 1751.48 1755.63 88.57 o
-2 13 0 10363.20 10214.00 136.23 o
-1 13 0 162.58 62.03 72.23 <
-7 14 0 151.82 88.04 117.21 <
-6 14 0 37.39 12.65 77.15 <
-5 14 0 971.96 830.00 86.64 o
-4 14 0 2415.52 1546.35 111.42 o
-3 14 0 674.62 481.86 70.82 o
0 1 1 4241.65 4515.37 284.64 o
0 2 1 132.52 260.26 209.12 <
-1 3 1 13314.70 13151.20 158.76 o
0 3 1 71043.70 72829.50 321.36 o
-1 4 1 1232.11 1288.24 108.26 o
0 4 1 1397.85 1409.86 140.60 o
-2 5 1 296.16 373.26 84.70 o
-1 5 1 6446.63 6380.27 93.35 o
0 5 1 14575.60 13667.00 146.52 o
-2 6 1 730.33 775.88 103.16 o
-1 6 1 553.34 573.60 111.42 o
0 6 1 19993.80 19274.50 246.10 o
-3 7 1 4151.26 4096.61 116.53 o
-2 7 1 7565.00 7514.75 135.36 o
-1 7 1 399.29 517.53 129.87 o
0 7 1 499.53 475.89 174.15 <
-3 8 1 103.09 140.59 97.35 <
-2 8 1 4714.46 4734.06 109.85 o
-1 8 1 378.91 278.18 98.23 <
0 8 1 95.79 356.56 130.22 <
-4 9 1 1210.47 1325.07 82.95 o
-3 9 1 5135.85 5236.20 96.32 o
-2 9 1 1582.57 1582.72 93.67 o
-1 9 1 56.66 155.17 77.85 <
0 9 1 282.95 337.93 109.31 o
-4 10 1 704.95 800.65 81.89 o
-3 10 1 87.10 53.60 80.48 <
-2 10 1 5095.13 5297.05 90.16 o
-1 10 1 346.40 472.72 74.86 o
0 10 1 2575.15 2777.63 110.37 o
-5 11 1 124.82 252.88 69.94 o
-4 11 1 965.41 926.83 78.91 o
-3 11 1 2418.65 2510.14 85.41 o
-2 11 1 79.70 105.96 72.75 <
-1 11 1 1435.35 1582.34 73.11 o
0 11 1 45.58 46.57 87.87 <
-5 12 1 6.83 26.54 68.71 <
-4 12 1 692.92 657.77 79.08 o
-3 12 1 813.01 857.93 73.11 o
-2 12 1 38.76 97.53 58.34 <
-1 12 1 261.80 215.62 54.48 o
0 12 1 2.37 5.27 70.99 <
-6 13 1 991.81 954.07 65.72 o
-5 13 1 2910.23 2916.13 69.95 o
-4 13 1 8.03 138.83 60.45 <
-3 13 1 98.94 90.15 54.30 <
-2 13 1 0.07 62.74 53.25 <
-1 13 1 500.85 371.67 52.72 o
-6 14 1 13.38 40.24 52.19 <
-5 14 1 341.41 355.51 52.72 o
-4 14 1 1.93 -4.22 47.97 <
-3 14 1 56.86 159.56 47.45 o
0 0 2 325.85 210.36 497.35 <
0 1 2 9737.27 9629.99 260.16 o
-1 2 2 529.84 589.09 203.16 <
0 2 2 17144.40 16948.10 260.12 o
-1 3 2 78545.50 79963.60 270.38 o
0 3 2 488.33 502.79 146.04 o
-2 4 2 136.31 152.01 130.92 <
-1 4 2 226.71 316.67 91.91 o
0 4 2 8312.04 8245.27 142.96 o
-2 5 2 287.08 279.42 82.59 o
-1 5 2 119.96 219.31 78.38 <
0 5 2 86112.30 83309.80 315.66 o
-3 6 2 143.82 309.99 142.17 <
-2 6 2 671.40 754.97 101.05 o
-1 6 2 1177.39 1337.22 117.39 o
0 6 2 98.74 362.53 165.01 <
-3 7 2 11728.20 11263.80 143.13 o
-2 7 2 437.40 469.56 110.36 o
-1 7 2 3327.31 3307.57 119.87 o
0 7 2 251.15 419.47 149.72 <
-4 8 2 315.54 191.02 147.09 <
-3 8 2 7517.52 7386.37 112.33 o
-2 8 2 30803.40 30823.70 161.53 o
-1 8 2 152.19 299.27 99.46 o
0 8 2 21.14 -67.83 122.48 <
-4 9 2 9656.75 9635.32 106.88 o
-3 9 2 93.06 128.28 80.84 <
-2 9 2 2209.61 2445.83 95.96 o
-1 9 2 53.78 82.42 90.15 <
0 9 2 53.69 -43.41 114.75 <
-5 10 2 445.59 250.77 110.54 <
-4 10 2 1044.83 1160.91 77.68 o
-3 10 2 619.23 580.62 78.73 o
-2 10 2 218.80 280.82 77.67 o
-1 10 2 368.77 300.50 72.93 o
0 10 2 9457.87 10065.60 146.95 o
-5 11 2 45.61 104.56 78.02 <
-4 11 2 37.72 138.30 74.69 <
-3 11 2 15131.20 16063.30 119.03 o
-2 11 2 220.49 189.44 72.40 <
-1 11 2 122.72 170.99 72.93 <
0 11 2 1485.55 1472.68 91.56 o
-6 12 2 41.07 112.82 96.30 <
-5 12 2 402.08 455.15 68.01 o
-4 12 2 1053.44 1218.37 77.50 o
-3 12 2 4.63 14.06 69.06 <
-2 12 2 362.54 327.74 58.87 o
-1 12 2 1970.12 1862.84 65.90 o
0 12 2 59.63 55.71 72.75 <
-6 13 2 3313.24 3396.48 73.81 o
-5 13 2 175.49 196.99 56.23 o
-4 13 2 35.20 68.36 57.64 <
-3 13 2 108.83 132.68 53.42 <
-2 13 2 143.35 166.94 55.36 o
-1 13 2 1386.94 1262.84 62.04 o
-7 14 2 25.33 285.03 70.47 o
-6 14 2 473.66 352.87 51.49 o
-5 14 2 2308.76 2188.33 68.89 o
-4 14 2 14.47 101.75 49.73 <
-3 14 2 5.18 26.01 75.74 <
0 1 3 21478.60 21683.90 279.07 o
0 2 3 65890.40 67293.40 342.83 o
-1 3 3 14657.30 14286.60 137.95 o
0 3 3 2893.49 2714.10 148.70 o
-1 4 3 7001.76 6891.26 96.53 o
0 4 3 17133.80 16568.00 150.60 o
-2 5 3 40391.70 38547.80 144.11 o
-1 5 3 872.32 846.54 83.48 o
0 5 3 12610.80 12221.50 170.05 o
-2 6 3 2342.89 2366.85 117.05 o
-1 6 3 24517.30 23842.30 167.68 o
0 6 3 847.09 802.24 154.12 o
-3 7 3 526.39 605.41 114.05 o
-2 7 3 1248.54 1063.40 110.01 o
-1 7 3 1931.01 1999.10 109.84 o
0 7 3 3347.97 3238.97 149.74 o
-3 8 3 26509.80 26441.20 149.01 o
-2 8 3 3098.91 3013.97 102.46 o
-1 8 3 43.58 190.14 93.66 <
0 8 3 21027.30 21575.90 192.22 o
-4 9 3 7.86 93.31 80.66 <
-3 9 3 155.54 217.20 79.08 <
-2 9 3 3166.59 3245.92 93.67 o
-1 9 3 1996.31 2097.13 91.21 o
0 9 3 66.47 59.75 109.66 <
-4 10 3 584.48 732.28 71.88 o
-3 10 3 5625.69 5791.56 91.22 o
-2 10 3 985.39 1059.86 90.86 o
-1 10 3 1430.31 1566.18 83.48 o
0 10 3 1845.62 2031.03 111.07 o
-5 11 3 6839.57 7124.22 88.06 o
-4 11 3 157.44 96.65 75.56 <
-3 11 3 2267.23 2555.47 85.59 o
-2 11 3 4482.00 4853.61 90.51 o
-1 11 3 320.42 376.94 76.97 o
0 11 3 5767.71 5383.51 124.61 o
-5 12 3 623.93 778.32 72.93 o
-4 12 3 2979.31 3328.62 81.72 o
-3 12 3 37.20 56.23 59.75 <
-2 12 3 722.26 679.21 63.26 o
-1 12 3 3.29 94.02 58.69 <
0 12 3 29.98 -28.64 76.27 <
-6 13 3 1235.27 1188.68 59.93 o
-5 13 3 688.75 617.70 56.76 o
-4 13 3 158.95 219.84 57.29 o
-3 13 3 2795.88 2642.84 69.42 o
-2 13 3 0.10 122.48 51.49 <
-1 13 3 97.11 37.61 53.60 <
-6 14 3 2053.26 1692.20 62.39 o
-5 14 3 573.65 588.71 53.42 o
-4 14 3 2.08 57.99 50.96 <
0 0 4 118957.00 121571.00 938.04 o
0 1 4 127.75 196.82 149.55 <
-1 2 4 6572.24 6070.81 177.41 o
0 2 4 11259.90 10540.90 170.26 o
-1 3 4 409.20 474.66 95.60 o
0 3 4 14.93 128.11 132.15 <
-2 4 4 20376.50 19872.30 166.11 o
-1 4 4 1150.66 1131.61 85.94 o
0 4 4 894.90 1030.54 140.42 o
-2 5 4 287.38 336.35 99.11 o
-1 5 4 6250.55 6104.33 134.48 o
0 5 4 1042.18 1190.11 159.57 o
-3 6 4 38269.40 37729.80 268.15 o
-2 6 4 168.32 181.88 110.71 <
-1 6 4 2857.83 2762.50 119.51 o
0 6 4 294.83 372.55 156.58 <
-3 7 4 5.45 36.02 107.19 <
-2 7 4 683.34 700.30 105.79 o
-1 7 4 121.85 153.59 99.82 <
0 7 4 142.68 173.62 131.80 <
-4 8 4 521.46 601.36 131.80 o
-3 8 4 4561.01 4629.38 105.11 o
-2 8 4 380.33 298.04 97.00 o
-1 8 4 8137.53 8372.70 109.34 o
0 8 4 340.97 369.74 120.55 o
-4 9 4 219.56 540.90 77.15 o
-3 9 4 181.77 178.19 79.08 <
-2 9 4 28.65 16.52 81.89 <
-1 9 4 63.96 246.90 77.85 o
0 9 4 6267.95 6687.52 140.61 o
-5 10 4 9417.51 9811.23 140.10 o
-4 10 4 106.99 178.01 71.52 <
-3 10 4 1209.74 1283.41 79.78 o
-2 10 4 276.04 259.03 75.21 o
-1 10 4 324.19 402.25 83.82 o
0 10 4 17.95 -68.71 107.72 <
-5 11 4 88.21 82.77 68.01 <
-4 11 4 1180.58 1286.74 74.69 o
-3 11 4 115.19 175.03 75.21 <
-2 11 4 480.23 557.42 83.82 o
-1 11 4 151.65 143.57 66.95 <
0 11 4 826.66 774.28 94.37 o
-6 12 4 2727.63 2903.29 104.22 o
-5 12 4 510.41 630.35 67.48 o
-4 12 4 43.11 142.17 62.74 <
-3 12 4 575.10 735.79 61.68 o
-2 12 4 41.24 5.10 58.34 <
-1 12 4 28.62 35.50 55.18 <
0 12 4 54.21 117.39 73.98 <
-6 13 4 5.05 142.69 58.87 <
-5 13 4 32.17 67.83 58.87 <
-4 13 4 82.39 178.01 57.64 o
-3 13 4 169.75 172.22 54.65 o
-2 13 4 2179.17 1564.62 63.44 o
-7 14 4 234.08 176.79 70.64 <
-6 14 4 274.00 155.87 51.67 o
-5 14 4 3.60 -31.10 50.79 <
0 1 5 14783.80 14297.40 157.80 o
0 2 5 8460.31 8070.62 143.13 o
-1 3 5 5845.22 5525.06 97.74 o
0 3 5 95870.10 94143.50 354.56 o
-1 4 5 79.80 101.75 114.93 <
0 4 5 89.61 187.68 176.61 <
-2 5 5 9922.70 9520.43 142.76 o
-1 5 5 10505.60 10281.90 154.72 o
0 5 5 8898.40 8655.16 191.45 o
-2 6 5 2787.56 2866.52 115.82 o
-1 6 5 1471.76 1563.75 108.96 o
0 6 5 32194.30 32030.10 246.70 o
-3 7 5 4709.14 4769.18 110.56 o
-2 7 5 13601.70 13300.60 141.37 o
-1 7 5 43.82 174.15 98.06 <
0 7 5 2359.66 2727.57 133.04 o
-3 8 5 5879.80 5963.65 101.24 o
-2 8 5 3705.67 3890.83 98.25 o
-1 8 5 711.50 702.23 83.12 o
0 8 5 5280.18 5656.17 143.07 o
-4 9 5 1862.43 1995.19 82.07 o
-3 9 5 8727.16 9128.88 107.58 o
-2 9 5 621.50 611.91 85.93 o
-1 9 5 839.47 856.53 84.00 o
0 9 5 551.48 641.95 114.40 o
-4 10 5 1734.47 1819.61 83.30 o
-3 10 5 1693.83 1722.77 81.37 o
-2 10 5 10166.70 10963.50 110.22 o
-1 10 5 82.10 49.91 83.47 <
0 10 5 2089.79 2297.11 123.55 o
-5 11 5 2434.86 2576.92 80.84 o
-4 11 5 1954.86 2050.36 80.84 o
-3 11 5 1744.34 1913.62 90.33 o
-2 11 5 396.82 514.72 75.92 o
-1 11 5 2964.43 2787.32 83.30 o
0 11 5 1546.84 1466.53 99.47 o
-5 12 5 73.26 21.79 58.17 <
-4 12 5 95.07 128.99 60.80 <
-3 12 5 1488.36 1533.49 74.69 o
-2 12 5 341.37 293.30 65.02 o
-1 12 5 417.28 493.28 56.94 o
0 12 5 2.05 -85.23 70.29 <
-6 13 5 630.70 662.69 62.39 o
-5 13 5 6109.39 5767.22 83.13 o
-4 13 5 60.78 97.35 57.82 <
-3 13 5 1164.65 920.85 63.97 o
-2 13 5 0.07 38.66 93.66 <
-6 14 5 471.48 240.75 122.49 <
0 0 6 101233.00 101237.00 751.68 o
0 1 6 9513.86 8692.55 148.23 o
-1 2 6 794.36 763.58 134.26 o
0 2 6 1485.73 1396.82 137.78 o
-1 3 6 402.67 430.55 123.54 o
0 3 6 13584.00 12867.20 240.04 o
-2 4 6 8474.23 8711.48 212.20 o
-1 4 6 4256.26 4037.37 143.78 o
0 4 6 623.08 759.88 184.52 o
-2 5 6 12839.90 12191.60 155.61 o
-1 5 6 90.99 78.55 120.20 <
0 5 6 64.62 181.53 147.96 <
-3 6 6 31793.50 31836.50 254.09 o
-2 6 6 3227.46 3279.21 116.53 o
-1 6 6 559.56 612.43 103.33 o
0 6 6 3062.57 3183.02 147.81 o
-3 7 6 311.96 503.65 90.85 o
-2 7 6 2653.47 2687.18 102.64 o
-1 7 6 1173.88 1135.44 96.48 o
0 7 6 5877.61 5685.33 129.54 o
-4 8 6 1990.90 2207.50 116.69 o
-3 8 6 258.82 410.16 84.70 o
-2 8 6 52.56 149.55 87.34 <
-1 8 6 5384.08 5802.24 94.21 o
0 8 6 6544.88 6819.59 154.85 o
-4 9 6 1160.19 1278.13 80.14 o
-3 9 6 1706.31 1740.53 79.79 o
-2 9 6 402.64 438.63 77.15 o
-1 9 6 1911.99 1987.98 82.25 o
0 9 6 3469.67 3485.27 118.28 o
-5 10 6 10249.30 11037.90 152.05 o
-4 10 6 2184.68 2277.97 83.65 o
-3 10 6 239.73 348.83 80.13 o
-2 10 6 1021.53 1114.69 76.09 o
-1 10 6 62.02 147.09 76.44 <
0 10 6 69.73 330.37 92.26 o
-5 11 6 2606.67 2766.38 83.13 o
-4 11 6 23.03 58.17 73.28 <
-3 11 6 41.11 123.89 66.43 <
-2 11 6 182.62 257.27 61.86 o
-1 11 6 474.49 526.67 62.74 o
0 11 6 81.19 110.01 85.76 <
-6 12 6 1070.40 1027.35 88.04 o
-5 12 6 217.67 308.58 57.46 o
-4 12 6 33.57 36.55 55.88 <
-3 12 6 36.58 55.35 59.22 <
-2 12 6 1033.80 864.27 70.47 o
-1 12 6 234.16 220.54 56.23 o
-6 13 6 18.85 119.85 53.42 <
-5 13 6 834.28 680.79 56.06 o
-4 13 6 375.36 302.79 55.36 o
-3 13 6 1602.26 1246.16 123.72 o
0 1 7 2716.16 2622.78 154.49 o
0 2 7 12800.30 12605.30 191.84 o
-1 3 7 5643.52 5404.25 145.37 o
0 3 7 469.86 746.52 155.17 o
-1 4 7 2257.27 2405.10 119.86 o
0 4 7 4600.69 4587.27 169.79 o
-2 5 7 8244.33 8312.92 136.41 o
-1 5 7 4.99 160.79 108.60 <
0 5 7 6227.21 6158.02 193.35 o
-2 6 7 390.41 340.75 100.34 o
-1 6 7 6757.76 6896.67 113.90 o
0 6 7 136.01 185.22 123.71 <
-3 7 7 572.10 720.33 89.62 o
-2 7 7 3.12 142.17 89.80 <
-1 7 7 795.23 929.11 93.49 o
0 7 7 490.21 511.91 114.75 o
-3 8 7 6668.29 7023.90 102.47 o
-2 8 7 1952.13 2086.05 90.86 o
-1 8 7 0.06 181.53 78.90 <
0 8 7 5222.77 5696.16 139.90 o
-4 9 7 91.02 36.38 80.48 <
-3 9 7 34.63 152.36 75.39 <
-2 9 7 1512.19 1789.37 84.88 o
-1 9 7 514.57 553.56 80.66 o
0 9 7 0.23 -47.62 109.13 <
-4 10 7 42.10 140.94 77.67 <
-3 10 7 1380.29 1524.17 81.72 o
-2 10 7 0.21 42.18 71.52 <
-1 10 7 522.92 530.71 64.32 o
0 10 7 1147.20 974.81 97.88 o
-5 11 7 1690.95 1942.26 78.38 o
-4 11 7 0.72 22.49 57.29 <
-3 11 7 1341.16 1420.30 66.78 o
-2 11 7 1520.60 1440.87 69.24 o
-1 11 7 0.65 115.98 59.05 <
0 11 7 1636.68 1287.11 91.56 o
-5 12 7 139.40 11.95 59.75 <
-4 12 7 1297.70 1185.17 61.86 o
-3 12 7 3.61 -2.46 53.60 <
-2 12 7 116.44 181.00 60.45 <
-6 13 7 662.93 546.71 57.29 o
-5 13 7 2.89 11.60 80.31 <
0 0 8 142.59 174.50 339.86 <
0 1 8 153.37 160.62 142.34 <
-1 2 8 5486.36 5178.06 155.73 o
0 2 8 19035.90 18213.40 207.88 o
-1 3 8 13890.20 13877.30 129.59 o
0 3 8 6985.99 6666.28 154.51 o
-2 4 8 977.96 1227.17 170.82 o
-1 4 8 4489.27 4579.45 121.10 o
0 4 8 98.03 -47.10 133.20 <
-2 5 8 2466.61 2530.57 116.87 o
-1 5 8 2648.14 2731.81 104.39 o
0 5 8 26149.20 26858.70 227.78 o
-3 6 8 227.37 272.03 138.12 <
-2 6 8 891.22 1031.39 92.61 o
-1 6 8 4425.22 4612.39 107.04 o
0 6 8 2996.08 3158.89 133.92 o
-3 7 8 1633.05 1837.88 90.15 o
-2 7 8 3709.68 3769.34 100.53 o
-1 7 8 13.95 18.45 88.57 <
0 7 8 1044.37 1039.65 129.52 o
-4 8 8 2946.05 3271.17 127.94 o
-3 8 8 9769.16 10284.90 110.74 o
-2 8 8 9648.92 10276.10 118.13 o
-1 8 8 146.74 103.33 87.34 <
0 8 8 1225.98 1101.69 140.24 o
-4 9 8 1604.08 1722.24 89.28 o
-3 9 8 1886.09 2017.14 86.46 o
-2 9 8 53.32 199.98 79.25 <
-1 9 8 1300.69 1420.48 83.12 o
0 9 8 301.68 346.72 96.30 o
-5 10 8 46.28 86.46 107.55 <
-4 10 8 42.46 84.35 65.20 <
-3 10 8 2051.62 2053.88 74.87 o
-2 10 8 1615.79 1576.90 67.13 o
-1 10 8 39.29 105.09 65.90 <
0 10 8 3521.06 3131.64 106.68 o
-5 11 8 491.60 463.41 67.31 o
-4 11 8 643.89 541.08 60.10 o
-3 11 8 5921.36 5964.04 93.50 o
-2 11 8 996.31 1000.81 68.01 o
-1 11 8 899.41 728.77 69.59 o
-6 12 8 275.31 301.03 79.25 o
-5 12 8 1200.84 903.28 63.26 o
-4 12 8 75.15 65.02 54.30 <
-3 12 8 260.87 230.38 66.78 o
0 1 9 209.13 192.07 120.03 <
0 2 9 3338.83 3471.99 129.00 o
-1 3 9 3048.23 3085.99 92.09 o
0 3 9 2816.99 2780.86 130.93 o
-1 4 9 747.75 929.11 90.85 o
0 4 9 1870.34 1841.07 161.86 o
-2 5 9 1723.65 1670.41 92.09 o
-1 5 9 171.23 275.55 87.34 o
0 5 9 3874.29 4104.53 138.32 o
-2 6 9 11.57 86.28 80.48 <
-1 6 9 2052.66 2119.09 98.59 o
0 6 9 1130.36 1253.70 122.31 o
-3 7 9 765.16 873.75 86.64 o
-2 7 9 198.74 261.31 86.28 o
-1 7 9 349.66 495.04 87.69 o
0 7 9 136.75 166.59 121.78 <
-3 8 9 1641.63 1700.45 96.66 o
-2 8 9 1379.85 1602.02 94.55 o
-1 8 9 21.01 57.29 85.23 <
0 8 9 1148.14 1290.43 114.23 o
-4 9 9 114.62 187.33 73.98 <
-3 9 9 411.87 444.43 76.44 o
-2 9 9 722.86 588.71 72.75 o
-1 9 9 49.02 160.09 68.53 <
0 9 9 3.52 223.53 93.66 <
-4 10 9 16.04 55.71 62.38 <
-3 10 9 411.92 472.37 61.33 o
-2 10 9 165.75 266.23 63.61 o
-1 10 9 376.84 388.72 64.49 o
0 10 9 864.96 585.20 105.09 o
-5 11 9 289.88 325.63 60.98 o
-4 11 9 50.29 78.55 55.53 <
-3 11 9 904.00 784.65 62.39 o
-2 11 9 395.87 309.46 65.90 o
0 0 10 45184.90 45521.70 661.80 o
0 1 10 3425.55 3586.03 134.27 o
-1 2 10 260.18 378.00 111.41 o
0 2 10 1066.08 1322.77 110.19 o
-1 3 10 72.57 244.44 73.81 o
0 3 10 5961.57 6305.92 126.02 o
-2 4 10 4243.11 4432.35 129.53 o
-1 4 10 2087.25 2171.64 88.93 o
0 4 10 54.65 73.46 130.39 <
-2 5 10 6046.45 6306.58 100.01 o
-1 5 10 89.74 191.90 88.74 <
0 5 10 771.25 787.99 129.52 o
-3 6 10 17228.30 18006.20 203.96 o
-2 6 10 1485.52 1677.95 85.06 o
-1 6 10 406.45 376.24 92.08 o
0 6 10 1542.85 1672.32 136.90 o
-3 7 10 42.35 211.23 84.17 <
-2 7 10 1239.30 1395.52 91.38 o
-1 7 10 286.87 337.40 85.76 o
0 7 10 2909.46 3222.11 137.43 o
-4 8 10 1007.80 1181.64 110.71 o
-3 8 10 329.84 246.02 72.58 o
-2 8 10 146.20 235.30 73.10 o
-1 8 10 3189.47 3052.89 89.28 o
0 8 10 3598.94 3648.53 134.10 o
-4 9 10 196.89 189.26 64.84 <
-3 9 10 888.99 951.95 68.54 o
-2 9 10 178.27 190.84 65.55 <
-1 9 10 1141.75 978.15 79.61 o
0 9 10 2347.47 1858.12 101.23 o
-5 10 10 6013.85 5899.90 149.22 o
-4 10 10 1060.77 1050.55 65.55 o
-3 10 10 130.36 117.92 59.92 <
-2 10 10 502.23 374.13 63.09 o
-1 10 10 16.35 56.06 89.45 <
-5 11 10 1522.45 1146.86 103.68 o
0 1 11 2057.82 2219.09 105.27 o
0 2 11 882.03 1115.92 109.31 o
-1 3 11 1400.07 1589.72 83.48 o
0 3 11 15053.90 15914.90 186.54 o
-1 4 11 67.52 189.96 80.84 <
0 4 11 9.46 -3.69 118.97 <
-2 5 11 1498.94 1526.11 80.14 o
-1 5 11 1925.56 2085.16 91.03 o
0 5 11 2260.20 2399.58 142.88 o
-2 6 11 499.90 545.65 90.15 o
-1 6 11 136.19 307.00 76.62 o
0 6 11 5868.70 5878.64 147.29 o
-3 7 11 1053.72 1028.05 70.82 o
-2 7 11 2774.19 2706.11 93.14 o
-1 7 11 53.68 125.12 74.51 <
0 7 11 553.62 635.98 109.66 o
-3 8 11 839.35 833.68 72.23 o
-2 8 11 1047.34 1121.19 82.42 o
-1 8 11 136.01 223.18 72.05 o
0 8 11 921.53 988.68 119.50 o
-4 9 11 540.33 448.12 62.56 o
-3 9 11 1616.14 1308.19 70.47 o
-2 9 11 236.85 258.50 65.02 o
-1 9 11 156.15 96.12 74.33 <
-4 10 11 441.58 108.25 112.29 <
0 0 12 5310.21 5412.30 282.44 o
0 1 12 21.96 -53.77 93.66 <
-1 2 12 882.72 743.53 99.64 o
0 2 12 1906.34 2131.38 106.15 o
-1 3 12 793.83 818.57 80.13 o
0 3 12 270.30 327.92 111.94 <
-2 4 12 1704.64 1942.44 118.97 o
-1 4 12 303.36 335.30 83.65 o
0 4 12 8.52 151.13 104.56 <
-2 5 12 0.50 -104.74 66.25 <
-1 5 12 807.67 879.37 68.54 o
0 5 12 1455.85 1475.84 104.92 o
-3 6 12 2331.93 2676.02 126.01 o
-2 6 12 18.67 35.85 64.67 <
-1 6 12 595.62 679.21 68.54 o
0 6 12 302.24 456.20 110.01 o
-3 7 12 63.60 32.69 64.84 <
-2 7 12 296.32 328.44 67.66 o
-1 7 12 11.31 42.18 69.41 <
0 7 12 3.71 179.95 106.14 <
-4 8 12 280.02 345.49 97.88 o
-3 8 12 1139.39 827.36 72.05 o
-2 8 12 674.08 468.15 73.46 o
-1 8 12 799.82 269.93 93.14 <
0 1 13 1330.73 1249.14 86.46 o
0 2 13 4881.71 4672.96 118.81 o
-1 3 13 1210.92 1146.68 68.71 o
0 3 13 495.34 648.10 94.02 o
-1 4 13 652.47 750.91 69.77 o
0 4 13 1687.66 1647.37 111.77 o
-2 5 13 3426.33 3304.04 83.30 o
-1 5 13 113.55 70.29 65.02 <
0 5 13 1284.80 1099.23 95.78 o
-2 6 13 196.96 139.71 61.15 <
-1 6 13 2612.32 2304.69 81.19 o
0 6 13 217.40 219.31 77.50 <
-3 7 13 71.65 121.08 70.12 <
-2 7 13 179.75 29.35 93.14 <
0 0 14 411.51 376.42 181.18 <
0 1 14 399.67 461.82 70.64 o
-1 2 14 81.50 279.06 81.01 o
0 2 14 397.87 344.43 82.24 o
-1 3 14 1864.42 1629.28 68.71 o
0 3 14 16.79 27.41 82.94 <
-2 4 14 72.27 -47.62 77.67 <
-1 4 14 4.52 43.05 56.06 <
0 4 14 190.76 200.16 84.00 <
-2 5 14 88.46 137.07 85.05 <
-1 5 14 69.06 -284.86 221.07 <
