#------------------------------------------------------------------------------
#$Date: 2017-02-04 16:02:11 +0200 (Sat, 04 Feb 2017) $
#$Revision: 191663 $
#$URL: file:///home/coder/svn-repositories/cod/cif/7/04/16/7041604.cif $
#------------------------------------------------------------------------------
#
# This file is available in the Crystallography Open Database (COD),
# http://www.crystallography.net/
#
# All data on this site have been placed in the public domain by the
# contributors.
#
data_7041604
loop_
_publ_author_name
'Jiang, Ji-Hong'
'Zhang, Lin-Chuan'
'Huang, Ya-Xi'
'Sun, Zhi-Mei'
'Pan, Yuanming'
'Mi, Jin-Xiao'
_publ_section_title
;
 KB(PO4)F: a novel acentric deep-ultraviolet material.
;
_journal_issue                   5
_journal_name_full
'Dalton transactions (Cambridge, England : 2003)'
_journal_page_first              1677
_journal_page_last               1683
_journal_paper_doi               10.1039/c6dt04026h
_journal_volume                  46
_journal_year                    2017
_chemical_formula_sum            'B F K O4 P'
_chemical_formula_weight         163.88
_chemical_name_systematic
;
 ?
;
_space_group_crystal_system      monoclinic
_space_group_IT_number           9
_space_group_name_Hall           'C -2yc'
_space_group_name_H-M_alt        'C 1 c 1'
_symmetry_space_group_name_Hall  'C -2yc'
_symmetry_space_group_name_H-M   'C 1 c 1'
_audit_creation_method           SHELXL-2013
_cell_angle_alpha                90
_cell_angle_beta                 90.44(3)
_cell_angle_gamma                90
_cell_formula_units_Z            4
_cell_length_a                   4.2917(9)
_cell_length_b                   7.8624(15)
_cell_length_c                   12.0505(19)
_cell_measurement_reflns_used    1249
_cell_measurement_temperature    203(2)
_cell_measurement_theta_max      28.460
_cell_measurement_theta_min      1.690
_cell_volume                     406.61(13)
_computing_cell_refinement       'SAINT (Bruker, 2001)'
_computing_data_collection       'SMART (Bruker, 2001)'
_computing_data_reduction        'SAINT (Bruker, 2001)'
_computing_molecular_graphics
'DIAMOND (Brandenburg, 2011) and ATOMS (Dowty, 2004)'
_computing_publication_material  'SHELXL-2013 (Sheldrick, 2015)'
_computing_structure_refinement  'SHELXL-2013 (Sheldrick, 2015)'
_computing_structure_solution    'SHELXS-2013 (Sheldrick, 2015)'
_diffrn_ambient_temperature      203(2)
_diffrn_measured_fraction_theta_full 0.984
_diffrn_measured_fraction_theta_max 0.976
_diffrn_measurement_device_type  'Bruker Diffraction CCD area-detector'
_diffrn_measurement_method
'1265 images,\f=0, 90, 180 degree, and \D\w=0.3 degree, \c= 54.74 degree'
_diffrn_radiation_type           MoK\a
_diffrn_radiation_wavelength     0.71073
_diffrn_reflns_av_R_equivalents  0.0728
_diffrn_reflns_av_unetI/netI     0.0718
_diffrn_reflns_Laue_measured_fraction_full 0.984
_diffrn_reflns_Laue_measured_fraction_max 0.976
_diffrn_reflns_limit_h_max       4
_diffrn_reflns_limit_h_min       -5
_diffrn_reflns_limit_k_max       10
_diffrn_reflns_limit_k_min       -10
_diffrn_reflns_limit_l_max       14
_diffrn_reflns_limit_l_min       -16
_diffrn_reflns_number            1249
_diffrn_reflns_point_group_measured_fraction_full 0.901
_diffrn_reflns_point_group_measured_fraction_max 0.850
_diffrn_reflns_theta_full        25.242
_diffrn_reflns_theta_max         28.460
_diffrn_reflns_theta_min         1.690
_diffrn_standards_number         0
_exptl_absorpt_coefficient_mu    1.621
_exptl_absorpt_correction_T_max  0.940
_exptl_absorpt_correction_T_min  0.635
_exptl_absorpt_correction_type   multi-scan
_exptl_absorpt_process_details   'SMART (Bruker, 2001)'
_exptl_crystal_colour            colorless
_exptl_crystal_density_diffrn    2.677
_exptl_crystal_description       tablet
_exptl_crystal_F_000             320
_exptl_crystal_size_max          0.200
_exptl_crystal_size_mid          0.200
_exptl_crystal_size_min          0.050
_refine_diff_density_max         1.493
_refine_diff_density_min         -0.804
_refine_diff_density_rms         0.292
_refine_ls_abs_structure_details
;
 Refined as an inversion twin.
;
_refine_ls_abs_structure_Flack   0.019(3)
_refine_ls_extinction_method     none
_refine_ls_goodness_of_fit_ref   1.093
_refine_ls_hydrogen_treatment    undef
_refine_ls_matrix_type           full
_refine_ls_number_parameters     74
_refine_ls_number_reflns         604
_refine_ls_number_restraints     2
_refine_ls_restrained_S_all      1.091
_refine_ls_R_factor_all          0.0666
_refine_ls_R_factor_gt           0.0645
_refine_ls_shift/su_max          0.000
_refine_ls_shift/su_mean         0.000
_refine_ls_structure_factor_coef Fsqd
_refine_ls_weighting_details
;
 w=1/[\s^2^(Fo^2^)+(0.1389P)^2^]
 where P=(Fo^2^+2Fc^2^)/3
;
_refine_ls_weighting_scheme      calc
_refine_ls_wR_factor_gt          0.1815
_refine_ls_wR_factor_ref         0.1856
_reflns_Friedel_coverage         0.733
_reflns_Friedel_fraction_full    0.816
_reflns_Friedel_fraction_max     0.723
_reflns_number_gt                578
_reflns_number_total             604
_reflns_threshold_expression     'I > 2\s(I)'
_cod_data_source_file            c6dt04026h1.cif
_cod_data_source_block           jjh11
_cod_depositor_comments          'Adding full bibliography for 7041604.cif.'
_cod_database_code               7041604
_shelx_space_group_comment
;
The symmetry employed for this shelxl refinement is uniquely defined
by the following loop, which should always be used as a source of
symmetry information in preference to the above space-group names.
They are only intended as comments.
;
_shelx_estimated_absorpt_t_min   0.737
_shelx_estimated_absorpt_t_max   0.923
_shelxl_version_number           2013-2
_shelx_res_file
;
TITL jjh11 in Cc, KBPO4F,
CELL 0.71073   4.2917   7.8624  12.0505  90.000  90.436  90.000
ZERR    4.00   0.0009   0.0015   0.0019   0.000   0.030   0.000
LATT -7
SYMM X, -Y, 0.5+Z
SFAC B O  P  K  F
UNIT 4 16 4  4 4
TEMP -70.0
L.S. 14
BOND
FMAP 2
PLAN 20
acta
SIZE 0.2 0.2 0.05
TWIN  -1 0 0 0 1 0 0 0 1 2

WGHT    0.138900
BASF   0.01945
FVAR       0.20916
MOLE   1
K1    4    0.133005    0.348009    0.342383    11.00000    0.01986    0.02097 =
         0.00974   -0.00002    0.00044    0.00243
P1    3    0.718045    0.483486    0.622321    11.00000    0.01049    0.00862 =
         0.00953    0.00064    0.00122   -0.00083
B1    1    0.225240    0.659680    0.542090    11.00000    0.00809    0.01313 =
         0.01223    0.00755    0.00117   -0.00334
F1    5    0.102054    0.673156    0.433257    11.00000    0.02035    0.02664 =
         0.00903   -0.00007   -0.00018    0.00310
O1    2    0.466839    0.531862    0.532880    11.00000    0.01846    0.01428 =
         0.01136   -0.00104   -0.00406    0.00483
O2    2    0.981019    0.617690    0.619514    11.00000    0.01404    0.01212 =
         0.01017   -0.00444    0.00629    0.00034
O3    2    0.869365    0.320554    0.573996    11.00000    0.01243    0.01074 =
         0.02343    0.00387    0.00177   -0.00315
O4    2    0.603110    0.469147    0.736875    11.00000    0.01873    0.02145 =
         0.01464   -0.00024    0.00386   -0.00493
HKLF 4

REM  jjh11 in Cc, KBPO4F,
REM R1 =  0.0645 for     578 Fo > 4sig(Fo)  and  0.0666 for all     604 data
REM     74 parameters refined using      2 restraints

END

WGHT      0.1342      0.0000

REM Highest difference peak  1.493,  deepest hole -0.804,  1-sigma level  0.292
Q1    1   0.2000  0.2422  0.3423  11.00000  0.05    1.49
Q2    1   0.7790  0.5905  0.6236  11.00000  0.05    1.48
Q3    1   0.0696  0.2432  0.3418  11.00000  0.05    1.42
Q4    1   0.6154  0.5850  0.6178  11.00000  0.05    1.29
Q5    1   0.2374  0.4531  0.3402  11.00000  0.05    1.16
Q6    1   0.6535  0.3713  0.6242  11.00000  0.05    1.16
Q7    1   0.8032  0.3732  0.6245  11.00000  0.05    1.10
Q8    1   0.9085  0.7003  0.6288  11.00000  0.05    1.05
Q9    1   0.0429  0.4513  0.3420  11.00000  0.05    1.04
Q10   1   1.0869  0.7559  0.6162  11.00000  0.05    0.85
Q11   1   0.4109  0.6351  0.3464  11.00000  0.05    0.78
Q12   1   0.2103  0.6336  0.6201  11.00000  0.05    0.78
Q13   1   0.3465  0.3419  0.3409  11.00000  0.05    0.75
Q14   1   0.9890  0.2744  0.6172  11.00000  0.05    0.68
Q15   1   0.8677  0.2635  0.6212  11.00000  0.05    0.68
Q16   1   1.1357  0.3482  0.6119  11.00000  0.05    0.66
Q17   1   1.2516  0.3278  0.6272  11.00000  0.05    0.65
Q18   1   0.6141  0.6352  0.5419  11.00000  0.05    0.65
Q19   1   0.3137  0.4165  0.5611  11.00000  0.05    0.61
Q20   1   0.4820  0.4268  0.5464  11.00000  0.05    0.57
;
_shelx_res_checksum              39989
_shelx_hkl_file
;
  -1   1   0   38.64    2.12
  -1   1   0   39.33    1.51
  -2   2   0    5.33    0.62
  -2   2   0    5.62    1.32
  -3   3   0   85.86    5.52
  -4   4   0   29.30    3.30
  -4   6   0   11.23    2.45
  -3   5   0   20.61    2.62
  -2   4   0   24.85    2.57
  -1   3   0  971.60   16.04
   1  -3   0 1000.00   17.41
   0   2   0   56.74    2.13
   0  -2   0   57.05    2.10
   0  -2   0   57.64    2.55
  -1  -1   0   31.54    1.63
  -1  -1   0   32.93    1.83
  -2   0   0  202.93    5.75
  -2   0   0  196.17    5.87
  -3   1   0   32.62    2.44
  -3   1   0   33.38    3.00
  -4   2   0   59.04    4.85
  -5   3   0    0.44    0.78
  -3   7   0   21.92    3.91
  -2   6   0   70.48    5.01
  -1   5   0   31.11    2.81
   1  -5   0   28.39    3.08
   0   4   0    5.36    1.13
   0  -4   0    5.35    1.17
   0  -4   0    4.64    1.22
   1   3   0  842.44   12.81
  -1  -3   0  847.56   12.88
  -1  -3   0  855.64   14.81
  -2  -2   0    5.03    1.12
  -2  -2   0    3.47    0.96
  -3  -1   0   32.84    2.72
  -3  -1   0   33.85    2.99
  -4   0   0   30.57    3.05
  -4   0   0   30.35    3.05
  -5   1   0   22.12    2.88
  -2   8   0    5.31    1.48
  -1   7   0    8.86    2.13
   1  -7   0   11.56    2.82
   0   6   0  247.00    8.86
   0  -6   0  262.61    8.13
   0  -6   0  253.61    9.41
   1   5   0   30.74    2.30
  -1  -5   0   35.31    2.88
  -1  -5   0   31.55    2.64
   2   4   0   21.82    1.85
  -2  -4   0   25.09    2.62
  -2  -4   0   24.96    1.80
  -3  -3   0   75.73    5.04
  -3  -3   0   72.97    4.20
  -4  -2   0   49.32    4.25
  -4  -2   0   46.52    3.64
  -5  -1   0   18.77    3.03
  -1   9   0   29.52    3.60
   0   8   0    8.51    2.00
   0  -8   0    8.15    2.04
   1   7   0    9.39    1.82
  -1  -7   0   10.88    2.15
  -1  -7   0   10.25    2.27
   2   6   0   62.86    3.74
  -2  -6   0   61.61    4.74
  -3  -5   0   15.19    3.10
  -4  -4   0   37.39    3.99
  -5  -3   0    2.18    0.91
   0 -10   0    6.27    1.75
  -2  -8   0    9.16    2.14
  -3  -7   0   12.17    2.71
  -4  -6   0   11.66    2.25
  -4  -6  -1   14.32    2.94
  -3  -7  -1   12.94    2.66
  -2  -8  -1    4.73    1.08
   0 -10  -1    2.93    0.98
  -5  -3  -1    5.87    1.24
  -4  -4  -1   11.45    2.67
  -3  -5  -1    6.83    1.89
  -2  -6  -1   49.91    4.29
  -1  -7  -1   77.18    5.18
  -1  -7  -1   80.05    5.38
   1   7   1   76.89    4.67
   0  -8  -1    7.02    1.87
   0   8   1    7.35    1.46
   1  -9  -1   17.22    3.52
  -1   9   1   21.66    3.68
  -5  -1  -1   18.54    2.38
  -3  -3  -1   14.16    1.52
  -3  -3  -1    8.63    2.01
  -2  -4  -1   98.04    4.29
  -2  -4  -1   88.17    5.12
   2   4   1   91.90    3.88
  -1  -5  -1    0.56    0.30
  -1  -5  -1    0.64    0.45
   1   5   1    0.70    0.25
   0  -6  -1   77.96    5.27
   0  -6  -1   73.77    3.87
   0   6   1   68.00    4.17
   1  -7  -1   26.61    3.38
  -1   7   1   25.23    2.82
  -2   8   1   24.16    3.09
  -4   0  -1    0.06    0.48
  -4   0  -1   -0.29    0.45
  -3  -1  -1    3.33    1.10
  -3  -1  -1    4.35    1.01
  -2  -2  -1    5.11    1.32
  -2  -2  -1    6.34    0.72
  -1  -3  -1   52.59    3.04
  -1  -3  -1   49.62    2.72
   1   3   1   51.80    2.27
   0  -4  -1   28.57    2.53
   0  -4  -1   27.02    1.87
   0   4   1   30.99    2.17
   1  -5  -1   26.81    2.81
  -1   5   1   20.08    2.29
   2  -6  -1    6.65    1.93
  -2   6   1    6.17    1.80
  -3   7   1   11.72    2.35
  -5   3  -1    7.69    1.58
  -4   2  -1   33.25    3.44
  -3   1  -1    9.06    1.16
  -3   1  -1    5.64    1.31
  -2   0  -1    0.27    0.20
  -2   0  -1    0.10    0.20
  -1  -1  -1  184.56    3.62
  -1  -1  -1  183.08    4.56
   0  -2  -1   57.73    2.62
   0  -2  -1   58.60    2.00
   0   2   1   58.04    2.13
   1  -3  -1   62.10    3.65
  -1   3   1   60.72    3.42
   2  -4  -1   54.83    4.24
  -2   4   1   49.39    3.93
  -3   5   1   45.56    4.23
  -4   6   1    0.71    0.59
  -4   4  -1   15.93    3.00
  -3   3  -1   13.86    2.66
  -2   2  -1    7.17    0.80
  -2   2  -1    5.58    1.31
  -1   1  -1  224.95    4.76
  -1   1  -1  235.01    5.47
   0   0   1   -0.17    0.06
   1  -1  -1   76.78    2.76
  -1   1   1   67.43    2.84
  -2   2   1   97.29    2.96
  -2   2   1  102.14    4.97
  -3   3   1    0.52    0.43
  -4   4   1    3.26    0.94
  -4   6  -1   10.22    2.05
  -3   5  -1    7.56    1.88
  -2   4  -1   87.07    3.31
  -2   4  -1   84.32    5.00
  -1   3  -1   49.62    2.86
   0   2  -1   64.28    2.32
   0  -2   1   59.77    2.39
   0  -2   1   56.79    2.53
  -1  -1   1   58.73    2.66
  -1  -1   1   63.25    2.67
  -2   0   1    0.18    0.20
  -2   0   1    0.21    0.29
  -3   1   1   31.42    2.32
  -3   1   1   34.37    3.10
  -4   2   1   12.44    2.67
  -5   3   1    0.74    0.81
  -3   7  -1   12.68    2.66
  -2   6  -1   44.27    3.86
   0   4  -1   28.92    2.22
   0  -4   1   29.49    2.49
   0  -4   1   27.70    2.09
   1   3  -1   51.94    2.80
  -1  -3   1   50.38    2.34
  -1  -3   1   51.19    3.08
  -2  -2   1   85.48    4.10
  -2  -2   1   84.70    4.36
  -3  -1   1   28.02    2.59
  -3  -1   1   30.65    2.74
  -4   0   1   -0.31    0.45
  -4   0   1   -0.13    0.45
  -5   1   1    3.26    0.94
  -2   8  -1    3.14    0.90
  -1   7  -1   81.81    5.49
   0   6  -1   79.07    4.89
   0  -6   1   73.75    4.27
   0  -6   1   85.01    5.45
   1   5  -1   20.61    1.92
  -1  -5   1   19.93    1.93
  -1  -5   1   21.60    2.39
   2   4  -1   51.85    3.16
  -2  -4   1   48.71    3.84
  -3  -3   1    1.29    0.75
  -3  -3   1    1.66    0.44
  -4  -2   1    8.06    1.82
  -4  -2   1   10.48    2.54
  -1   9  -1   57.86    5.15
   0   8  -1    8.42    1.90
   0  -8   1    5.77    1.84
   1   7  -1   27.72    2.78
  -1  -7   1   28.17    2.91
  -1  -7   1   24.70    2.64
   2   6  -1    2.20    0.59
  -2  -6   1    4.52    1.63
  -3  -5   1   37.07    3.79
  -4  -4   1    3.00    0.89
  -5  -3   1    3.99    1.29
   0  10  -1    3.72    1.06
  -2  -8   1   33.93    5.39
  -3  -7   1    9.33    2.16
  -4  -6   1    2.63    0.98
  -4  -6  -2   38.26    4.03
  -3  -7  -2   17.08    3.43
  -2  -8  -2    5.25    1.18
  -1  -9  -2    4.94    1.09
   0 -10  -2   29.08    3.80
  -5  -3  -2   67.99    5.72
  -4  -4  -2   16.63    3.22
  -3  -5  -2   18.98    3.51
  -2  -6  -2   60.20    4.72
  -2  -6  -2   55.46    3.99
  -1  -7  -2   43.71    4.07
  -1  -7  -2   44.03    3.66
   0  -8  -2   15.16    3.20
   0   8   2   17.34    2.25
   1  -9  -2    5.04    1.30
  -1   9   2    7.28    1.58
  -5  -1  -2    1.60    0.71
  -4  -2  -2   30.44    3.31
  -3  -3  -2  177.69    8.12
  -2  -4  -2   97.22    5.46
  -2  -4  -2   96.72    4.46
   2   4   2   98.51    3.78
  -1  -5  -2   85.70    4.92
  -1  -5  -2   88.81    4.82
   1   5   2   86.90    3.85
   0  -6  -2    4.02    0.88
   0  -6  -2    2.44    0.96
   0   6   2    2.15    0.76
   1  -7  -2   55.61    4.87
  -1   7   2   63.52    4.76
   2  -8  -2    2.67    0.92
  -2   8   2    2.79    0.94
  -4   0  -2  121.19    6.50
  -4   0  -2  127.36    6.29
  -3  -1  -2   76.70    4.69
  -3  -1  -2   78.96    3.97
  -2  -2  -2   81.51    3.02
  -2  -2  -2   83.87    4.29
  -1  -3  -2   42.77    2.67
  -1  -3  -2   37.27    2.51
   1   3   2   37.35    1.52
   0  -4  -2  105.94    5.21
   0  -4  -2  114.29    4.03
   0   4   2  110.71    4.34
   1  -5  -2   59.34    4.53
  -1   5   2   62.25    4.12
   2  -6  -2   33.45    3.70
  -2   6   2   35.31    3.52
  -3   7   2   25.39    3.07
  -5   3  -2   78.05    6.22
  -4   2  -2   36.57    3.62
  -3   1  -2   79.81    4.27
  -3   1  -2   78.55    4.44
  -2   0  -2  277.35    6.47
  -2   0  -2  279.33    7.36
  -1  -1  -2  263.90    5.87
   0  -2  -2  247.36    6.32
   0  -2  -2  255.38    4.60
   0   2   2  252.07    5.00
   1  -3  -2   12.73    1.53
  -1   3   2   12.09    1.41
   2  -4  -2  108.77    6.11
  -2   4   2  113.95    6.13
  -3   5   2    1.37    0.52
  -4   6   2   17.76    3.19
  -4   4  -2   16.35    3.13
  -3   3  -2  190.98    8.16
  -3   3  -2  178.73    6.36
  -2   2  -2  107.70    4.35
  -2   2  -2  104.70    4.81
  -1   1  -2  311.48    6.24
  -1   1  -2  309.28    6.12
   0   0   2  242.59    4.28
   1  -1  -2  375.90    7.21
  -1   1   2  359.38    7.67
   2  -2  -2  114.32    5.01
  -2   2   2  120.24    5.38
  -3   3   2  146.90    7.62
  -4   4   2   10.49    2.42
  -4   6  -2   28.34    3.20
  -3   5  -2   18.85    3.30
  -2   4  -2   92.34    5.19
  -2   4  -2   93.75    3.75
  -1   3  -2   44.52    2.74
   0   2  -2  231.44    5.46
  -1  -1   2  312.77    6.79
  -1  -1   2  316.93    7.36
  -2   0   2  137.35    4.77
  -2   0   2  151.99    5.94
  -3   1   2   25.21    1.89
  -3   1   2   20.88    2.43
  -4   2   2   26.61    4.54
  -5   3   2   66.50    5.96
  -3   7  -2   13.13    2.46
  -2   6  -2   72.87    5.21
  -1   5  -2   90.99    4.92
   0   4  -2   96.14    4.17
   0  -4   2   97.40    4.23
   1   3  -2   10.94    1.28
  -1  -3   2    9.09    1.75
  -1  -3   2    8.24    0.76
  -2  -2   2  100.93    4.93
  -2  -2   2  104.64    4.88
  -3  -1   2   12.78    2.39
  -4   0   2  116.54    6.88
  -4   0   2  118.02    6.10
  -5   1   2   12.90    2.98
  -2   8  -2    4.22    1.15
  -1   7  -2   38.46    3.63
   0   6  -2    3.16    0.99
   1   5  -2   54.19    3.45
  -1  -5   2   38.77    3.37
  -1  -5   2   56.46    3.42
   2   4  -2  109.78    5.04
  -2  -4   2  107.98    5.79
  -3  -3   2  133.48    6.95
  -3  -3   2  127.49    6.39
  -4  -2   2   20.56    2.38
  -4  -2   2   17.04    3.12
  -5  -1   2   14.54    2.72
  -1   9  -2    3.94    1.27
   0   8  -2   12.67    2.79
   1   7  -2   59.63    4.28
  -1  -7   2   53.53    4.30
   2   6  -2   28.10    2.77
  -2  -6   2   28.40    3.15
   3   5  -2    0.83    0.38
  -3  -5   2    1.13    0.52
  -4  -4   2    8.71    1.73
  -5  -3   2   72.43    5.71
   0  10  -2   29.00    3.29
   1   9  -2    5.02    1.03
  -1  -9   2    8.94    2.17
  -2  -8   2    3.20    0.86
  -3  -7   2   30.45    3.54
  -4  -6   2   29.41    3.36
  -4  -6  -3   11.33    2.17
  -3  -7  -3    9.24    2.10
  -2  -8  -3   45.11    4.31
  -1  -9  -3    7.54    2.02
   0 -10  -3    3.06    1.07
  -5  -3  -3    4.34    0.85
  -4  -4  -3   19.71    2.53
  -3  -5  -3   42.44    4.01
  -2  -6  -3    1.87    0.76
  -2  -6  -3    0.55    0.46
  -1  -7  -3   29.06    2.83
  -1  -7  -3   26.92    3.09
   0  -8  -3   85.70    6.56
   1  -9  -3    6.03    1.66
  -5  -1  -3    0.75    0.72
  -4  -2  -3    9.71    2.30
  -3  -3  -3    3.38    0.99
  -2  -4  -3    1.44    0.46
  -2  -4  -3    1.37    0.38
  -1  -5  -3  131.82    6.45
  -1  -5  -3  125.94    5.75
   1   5   3  132.37    4.44
   0  -6  -3   13.03    2.63
   0   6   3   20.00    2.12
   1  -7  -3   38.35    4.24
  -1   7   3   35.89    3.43
   2  -8  -3    9.24    2.29
  -2   8   3   14.81    3.11
  -4   0  -3    0.22    0.45
  -3  -1  -3   47.84    3.65
  -3  -1  -3   45.60    2.70
  -2  -2  -3  164.31    6.19
  -1  -3  -3    9.33    1.74
  -1  -3  -3   13.42    1.47
   0  -4  -3   58.29    2.81
   0  -4  -3   55.29    3.88
   0   4   3   52.26    2.92
   1  -5  -3   93.20    5.87
  -1   5   3   94.43    5.21
   2  -6  -3   20.86    3.85
  -2   6   3   19.81    2.48
  -3   7   3   18.13    3.40
  -4   2  -3    9.72    1.87
  -4   2  -3    8.84    1.73
  -3   1  -3   28.35    2.59
  -2   0  -3    0.49    0.35
  -2   0  -3   -0.05    0.18
  -1  -1  -3   64.82    2.98
   0  -2  -3  149.10    5.03
   0  -2  -3  159.30    3.60
   0   2   3  155.88    3.72
   1  -3  -3    5.48    1.40
  -1   3   3    5.97    1.32
   2  -4  -3   77.59    4.95
  -2   4   3   84.20    5.24
   3  -5  -3   17.22    3.44
  -3   5   3   11.94    2.47
  -4   6   3   29.05    3.47
  -4   4  -3   18.65    2.39
  -3   3  -3    3.84    1.31
  -3   3  -3    2.96    0.87
  -2   2  -3  181.02    6.04
  -2   2  -3  185.95    6.42
  -1   1  -3   56.49    2.38
  -1   1  -3   55.07    2.57
   0   0   3    0.08    0.15
   1  -1  -3  235.39    5.72
  -1   1   3  245.31    6.58
   2  -2  -3   69.76    3.67
  -2   2   3   70.39    4.33
  -3   3   3   27.84    3.22
  -4   4   3   46.04    4.62
  -4   6  -3    8.68    1.83
  -3   5  -3   33.34    3.30
  -2   4  -3    3.00    0.91
  -1   3  -3   14.96    1.55
   0   2  -3  161.76    4.93
  -1  -1   3  209.46    6.26
  -1  -1   3  203.67    5.51
  -2   0   3    0.49    0.30
  -2   0   3    0.53    0.31
  -3   1   3   53.88    4.30
  -3   1   3   56.57    3.07
  -4   2   3   41.69    4.33
  -5   3   3    2.95    0.99
  -3   7  -3    9.67    2.26
  -2   6  -3    1.42    0.52
  -1   5  -3  132.19    6.39
   0   4  -3   48.18    3.09
   1   3  -3    5.05    1.21
  -1  -3   3    7.17    1.54
  -2  -2   3   59.87    3.81
  -2  -2   3   59.30    3.88
  -3  -1   3   53.89    4.10
  -3  -1   3   52.02    3.58
  -4   0   3    0.19    0.49
  -5   1   3   32.43    3.72
  -2   8  -3   56.68    5.15
  -1   7  -3   23.53    2.85
   0   6  -3   12.50    2.39
   1   5  -3   76.68    4.60
  -1  -5   3   84.71    5.05
   2   4  -3   48.79    3.49
  -3  -3   3   24.91    2.72
  -3  -3   3   22.94    2.61
  -4  -2   3   40.53    3.74
  -4  -2   3   43.28    3.98
  -5  -1   3   25.38    2.93
  -1   9  -3    4.70    1.27
   0   8  -3   86.29    6.19
   1   7  -3   29.55    2.89
  -1  -7   3   32.02    3.43
   2   6  -3   17.68    2.20
  -2  -6   3   16.48    3.20
   3   5  -3   18.16    2.12
  -3  -5   3   13.03    2.82
  -4  -4   3   34.29    3.35
  -4  -4   3   37.90    3.91
  -5  -3   3    4.63    1.13
   0  10  -3    4.33    1.17
   1   9  -3    5.91    1.34
   2   8  -3    6.67    1.06
  -2  -8   3   10.68    2.19
  -3  -7   3   23.21    4.07
  -4  -6   3   28.39    3.26
  -4  -6  -4    5.50    1.50
  -3  -7  -4   34.02    3.70
  -2  -8  -4    6.29    1.62
  -1  -9  -4    9.33    1.94
   0 -10  -4    7.52    1.54
  -5  -3  -4   -0.56    0.90
  -4  -4  -4   39.82    4.19
  -3  -5  -4   32.93    3.53
  -2  -6  -4   46.16    3.81
  -2  -6  -4   43.87    3.80
  -1  -7  -4   39.60    4.10
  -1  -7  -4   35.46    3.68
   0  -8  -4   22.59    4.19
   1  -9  -4   17.27    3.42
  -5  -1  -4   26.73    3.13
  -4  -2  -4   47.02    4.23
  -3  -3  -4   61.37    4.54
  -2  -4  -4  122.20    6.00
  -1  -5  -4   19.50    2.42
  -1  -5  -4   15.62    1.89
   0  -6  -4   54.16    4.78
   0   6   4   62.10    3.72
   1  -7  -4    1.08    0.53
  -1   7   4    0.76    0.48
   2  -8  -4   25.23    4.55
  -2   8   4   23.02    2.79
  -4   0  -4   12.08    2.38
  -3  -1  -4  110.72    5.90
  -2  -2  -4   66.80    3.92
  -1  -3  -4   47.10    2.73
   0  -4  -4   33.47    3.04
   0  -4  -4   36.70    2.22
   0   4   4   34.17    2.26
   1  -5  -4   33.57    3.46
  -1   5   4   29.86    2.74
   2  -6  -4   29.38    3.41
  -2   6   4   27.44    2.91
   3  -7  -4    6.76    2.03
  -3   7   4    5.19    1.32
  -4   2  -4   45.18    3.48
  -4   2  -4   46.61    3.83
  -3   1  -4  121.31    6.00
  -3   1  -4  123.36    5.62
  -2   0  -4  103.11    3.81
  -2   0  -4  102.90    4.99
  -1  -1  -4  234.31    6.57
   0  -2  -4    3.25    0.94
   0   2   4    3.48    0.70
   1  -3  -4  198.76    7.19
  -1   3   4  196.76    6.43
   2  -4  -4   27.64    2.87
  -2   4   4   32.04    3.07
   3  -5  -4   15.49    3.09
  -3   5   4   14.64    3.05
  -4   6   4   12.30    2.54
  -4   4  -4   38.64    3.62
  -3   3  -4   65.88    4.15
  -3   3  -4   66.36    4.41
  -2   2  -4   75.07    4.10
  -2   2  -4   81.02    4.13
  -1   1  -4  198.16    4.82
  -1   1  -4  193.72    5.72
   0   0   4  821.06   12.14
   1  -1  -4  127.63    4.34
  -1   1   4  115.97    4.93
  -2   2   4   76.35    4.66
   3  -3  -4   41.86    3.40
  -3   3   4   46.28    4.28
  -4   4   4   15.02    3.15
  -4   6  -4    6.74    1.25
  -3   5  -4   21.90    2.62
  -2   4  -4  125.32    5.18
  -2   4  -4  126.14    5.96
  -1   3  -4   33.76    2.48
  -1  -1   4   94.57    3.78
  -1  -1   4   88.31    4.32
   2   0  -4   20.02    1.34
  -2   0   4   21.20    2.42
  -2   0   4   23.33    1.82
  -3   1   4   10.56    2.32
  -4   2   4   38.65    4.18
  -5   3   4   10.78    2.26
  -3   7  -4   39.04    3.88
  -2   6  -4   45.72    3.95
  -1   5  -4   32.61    2.98
   0   4  -4   30.12    2.54
   1   3  -4  166.75    6.22
  -1  -3   4  165.34    6.57
  -2  -2   4   70.59    4.58
  -2  -2   4   68.08    4.31
  -3  -1   4   14.30    2.82
  -3  -1   4   15.48    1.81
  -4   0   4   45.82    4.34
  -5   1   4   49.77    4.86
  -2   8  -4    4.49    1.10
  -1   7  -4   35.06    3.73
   0   6  -4   53.41    4.25
   1   5  -4   24.53    2.62
  -1  -5   4   29.49    2.98
   2   4  -4   24.13    2.50
  -2  -4   4   25.11    2.85
  -3  -3   4   36.07    3.46
  -3  -3   4   38.08    3.62
  -4  -2   4   29.50    3.21
  -4  -2   4   35.64    3.44
  -5  -1   4   40.16    3.98
  -1   9  -4   10.93    2.37
   0   8  -4   24.12    4.17
   1   7  -4    1.32    0.39
  -1  -7   4    0.06    0.50
   2   6  -4   19.40    2.25
  -2  -6   4   21.76    2.78
   3   5  -4   13.69    1.73
  -3  -5   4   13.20    2.97
  -4  -4   4   19.19    2.46
  -4  -4   4   20.06    2.46
  -5  -3   4   11.64    2.23
  -5  -3   4   10.01    1.96
   0  10  -4   11.21    2.26
   1   9  -4   19.71    2.39
   2   8  -4   15.29    1.90
  -2  -8   4   24.32    4.27
   3   7  -4    3.76    1.01
  -3  -7   4    2.55    0.78
  -4  -6   4   10.96    2.18
  -4  -6  -5   17.90    3.30
  -3  -7  -5    5.58    1.28
  -1  -9  -5   16.30    3.17
  -4  -4  -5   14.52    3.16
  -3  -5  -5   38.03    3.75
  -2  -6  -5    3.12    1.08
  -2  -6  -5    4.31    1.16
  -1  -7  -5   47.67    4.54
   0  -8  -5    6.46    1.73
   1  -9  -5   32.20    4.04
  -5  -1  -5   28.61    3.21
  -4  -2  -5   42.25    4.10
  -3  -3  -5    5.34    1.47
  -2  -4  -5   21.64    2.38
  -1  -5  -5   38.72    3.72
  -1  -5  -5   36.49    2.92
   0  -6  -5   51.91    4.75
   1  -7  -5    3.59    1.08
  -1   7   5    2.18    0.72
   2  -8  -5   36.05    4.48
  -2   8   5   38.50    3.83
  -5   1  -5   16.60    2.90
  -4   0  -5    0.68    0.50
  -3  -1  -5    9.80    2.07
  -2  -2  -5   48.62    3.41
  -1  -3  -5   12.53    1.34
   0  -4  -5   87.10    5.36
   0  -4  -5   86.83    3.57
   0   4   5   89.83    3.68
   1  -5  -5   47.88    4.32
  -1   5   5   50.08    3.62
   2  -6  -5    2.63    0.95
  -2   6   5    2.06    0.54
   3  -7  -5    7.83    1.40
  -3   7   5    7.90    1.44
  -4   2  -5   39.72    3.39
  -3   1  -5   15.00    2.61
  -3   1  -5   14.87    1.67
  -2   0  -5   -0.11    0.38
  -2   0  -5    0.35    0.23
  -1  -1  -5  309.71    8.14
   0  -2  -5  233.75    5.65
   0   2   5  241.86    6.09
   1  -3  -5   31.10    2.84
  -1   3   5   29.32    2.44
   2  -4  -5   14.62    2.79
  -2   4   5   12.43    2.49
   3  -5  -5  108.47    7.10
  -3   5   5  105.06    7.30
  -4   6   5   17.65    3.75
  -4   4  -5   23.51    2.68
  -3   3  -5    8.93    1.79
  -3   3  -5    6.77    1.55
  -2   2  -5   69.57    3.69
  -2   2  -5   71.80    4.23
  -1   1  -5  256.00    5.95
  -1   1  -5  278.29    7.45
   0   0   5   -0.32    0.23
   1  -1  -5  167.94    5.30
  -1   1   5  157.39    6.19
   2  -2  -5  137.23    5.79
  -2   2   5  138.56    6.74
   3  -3  -5    6.06    1.62
  -3   3   5   10.75    2.44
  -4   4   5    6.64    1.62
  -4   6  -5   19.50    2.42
  -3   5  -5   32.75    3.17
  -2   4  -5   23.37    2.39
  -2   4  -5   23.48    2.27
  -1   3  -5   12.48    1.56
   0   2  -5  248.57    7.37
  -1  -1   5  117.92    5.50
   2   0  -5    1.51    0.40
  -2   0   5    0.61    0.29
  -2   0   5   -0.28    0.30
  -3   1   5   53.68    4.62
  -4   2   5   60.24    5.54
  -3   7  -5    6.62    1.62
  -2   6  -5    4.68    1.10
  -1   5  -5   37.89    3.34
   0   4  -5   76.29    4.33
   1   3  -5   24.21    2.42
  -2  -2   5   52.29    4.19
  -3  -1   5   47.41    4.25
  -3  -1   5   47.52    3.71
  -4   0   5    0.57    0.52
  -5   1   5    7.44    1.87
  -2   8  -5   15.80    2.97
  -1   7  -5   47.20    4.59
   0   6  -5   39.07    3.52
   1   5  -5   44.60    3.67
   2   4  -5    8.11    1.76
  -2  -4   5    9.88    2.13
  -3  -3   5    5.67    1.51
  -3  -3   5    6.26    1.69
  -4  -2   5   46.52    4.22
  -4  -2   5   44.68    4.03
  -5  -1   5    6.54    1.51
  -1   9  -5   20.86    3.78
   0   8  -5    9.14    2.00
   1   7  -5    3.20    0.87
  -2  -6   5    3.27    0.82
   3   5  -5   92.69    5.77
  -3  -5   5  101.60    6.74
  -4  -4   5    3.29    1.00
  -4  -4   5    3.17    0.96
  -5  -3   5    3.71    1.46
  -5  -3   5    4.14    1.02
   1   9  -5   16.82    3.29
   2   8  -5   21.53    2.64
   3   7  -5    4.20    1.14
  -3  -7   5    4.94    1.45
   4   6  -5   12.24    2.27
  -4  -6   5   12.47    2.12
  -3  -7  -6    3.95    1.14
  -2  -8  -6    2.82    0.96
  -1  -9  -6   12.08    2.66
  -4  -4  -6    0.51    0.68
  -3  -5  -6   24.30    2.98
  -3  -5  -6   22.94    2.52
  -2  -6  -6   33.70    3.31
  -2  -6  -6   33.53    3.46
  -1  -7  -6   26.95    3.29
   0  -8  -6   22.32    4.35
   1  -9  -6    1.68    0.88
  -5  -1  -6   14.52    2.86
  -4  -2  -6   13.28    2.76
  -3  -3  -6   18.62    3.22
  -2  -4  -6   26.17    2.63
  -1  -5  -6   23.09    2.78
  -1  -5  -6   24.89    2.30
   0  -6  -6    2.55    1.00
   1  -7  -6   66.02    5.99
   2  -8  -6    3.52    0.86
  -2   8   6    1.42    0.72
  -5   1  -6   12.41    2.51
  -4   0  -6   40.39    3.73
  -3  -1  -6   10.75    2.16
  -2  -2  -6   23.92    2.38
  -1  -3  -6   27.89    2.17
   0  -4  -6   26.87    1.90
   0  -4  -6   25.05    2.88
   0   4   6   29.95    2.11
   1  -5  -6    9.71    2.36
   2  -6  -6    3.55    1.38
  -2   6   6    2.40    0.94
   3  -7  -6   41.08    4.70
  -3   7   6   54.16    5.12
  -4   2  -6    9.66    1.85
  -3   1  -6   13.21    2.62
  -2   0  -6   61.36    2.90
  -2   0  -6   61.24    4.30
   0   2   6   18.08    1.60
   1  -3  -6   36.96    3.14
  -1   3   6   29.72    2.56
   2  -4  -6  187.67    8.74
  -2   4   6  193.12    8.63
   3  -5  -6   16.69    2.16
  -3   5   6   25.97    3.32
  -4   4  -6    1.54    0.66
  -3   3  -6   20.80    2.51
  -3   3  -6   20.43    2.26
  -2   2  -6   26.49    2.63
  -2   2  -6   30.24    2.23
  -1   1  -6   64.65    2.71
  -1   1  -6   46.50    3.04
   1  -1  -6  251.92    7.26
  -1   1   6  259.12    8.50
   2  -2  -6  190.17    7.10
  -2   2   6  177.30    8.16
   3  -3  -6    3.38    0.91
  -3   3   6    2.89    0.90
  -4   4   6   38.80    4.32
  -4   6  -6   11.68    2.09
  -3   5  -6   19.43    2.45
  -2   4  -6   35.99    3.02
  -2   4  -6   29.58    2.75
  -1   3  -6   34.14    2.69
   0   2  -6   28.69    2.37
  -1  -1   6  226.65    8.39
   2   0  -6    8.44    0.94
  -2   0   6    8.11    2.00
  -3   1   6  144.28    8.11
  -4   2   6   28.86    3.70
  -3   7  -6    3.03    0.63
  -2   6  -6   32.04    3.18
  -1   5  -6   27.91    2.87
   0   4  -6   27.48    2.62
   1   3  -6   13.54    2.51
  -2  -2   6   87.14    5.16
  -3  -1   6  128.29    6.28
  -3  -1   6  133.17    7.64
  -4   0   6    7.01    1.80
  -5   1   6   16.93    3.18
  -2   8  -6    5.43    0.79
  -1   7  -6   26.63    4.44
   0   6  -6    0.71    0.37
   1   5  -6    8.68    2.21
   2   4  -6  199.20    8.49
  -2  -4   6  190.03    8.99
  -3  -3   6    3.24    1.21
  -3  -3   6    1.78    0.75
  -4  -2   6   19.65    2.34
  -4  -2   6   20.94    3.69
  -5  -1   6   18.21    3.41
  -1   9  -6    8.88    1.87
   0   8  -6   17.91    2.30
   1   7  -6   53.07    4.36
   2   6  -6    2.74    0.86
  -2  -6   6    1.61    0.80
   3   5  -6   17.82    2.22
  -3  -5   6   17.64    3.44
  -4  -4   6   32.12    3.28
  -4  -4   6   27.70    3.20
  -5  -3   6    1.68    0.97
   1   9  -6    1.52    0.81
   2   8  -6    0.84    0.58
   3   7  -6   43.29    4.10
  -3  -7   6   34.84    4.02
   4   6  -6    0.45    0.67
  -3  -7  -7   13.13    2.38
  -2  -8  -7   33.16    3.48
  -1  -9  -7    0.29    0.93
  -4  -4  -7   12.89    2.40
  -3  -5  -7   37.38    3.49
  -3  -5  -7   39.44    3.86
  -2  -6  -7    7.94    1.94
  -2  -6  -7    6.33    1.33
  -1  -7  -7    5.71    1.67
   0  -8  -7   92.17    7.51
  -4  -2  -7   22.50    2.89
  -3  -3  -7    8.92    1.88
  -2  -4  -7   47.20    3.61
  -1  -5  -7   62.52    4.85
  -1  -5  -7   62.75    3.88
   0  -6  -7   17.84    3.53
   1  -7  -7   15.99    3.79
   2  -8  -7   36.51    4.49
  -5   1  -7    5.02    1.12
  -4   0  -7    0.38    0.55
  -3  -1  -7   69.45    4.97
  -2  -2  -7  145.47    6.71
  -1  -3  -7    9.30    1.78
   0  -4  -7   10.46    2.30
   0  -4  -7   11.56    1.24
   1  -5  -7  123.13    7.39
  -1   5   7  111.12    5.78
   2  -6  -7    0.03    0.65
  -2   6   7    0.91    0.58
   3  -7  -7   17.45    2.30
  -3   7   7   15.50    3.08
  -4   2  -7   19.36    2.42
  -3   1  -7   79.00    5.48
  -2   0  -7   -0.21    0.42
  -1  -1  -7  113.57    5.07
   0  -2  -7   88.02    3.53
   0   2   7   73.65    3.65
   1  -3  -7   12.61    2.36
  -1   3   7   16.86    2.05
   2  -4  -7   33.16    3.36
  -2   4   7   38.95    3.68
   3  -5  -7   11.08    2.52
  -3   5   7   12.25    2.68
  -3   3  -7   12.07    2.57
  -3   3  -7   11.26    2.18
  -2   2  -7  152.96    7.09
  -2   2  -7  147.82    5.75
  -1   1  -7  101.59    3.99
  -1   1  -7  109.65    5.03
   0   0  -7    0.13    0.25
   1  -1  -7   86.24    4.14
  -1   1   7   81.16    4.83
   2  -2  -7   83.41    4.61
  -2   2   7   80.00    5.49
  -3   3   7    8.67    1.94
  -4   4   7   11.47    2.32
  -4   6  -7   15.26    2.72
  -3   5  -7   37.57    3.63
  -3   5  -7   48.54    4.04
  -2   4  -7   50.54    3.82
  -2   4  -7   55.11    3.91
  -1   3  -7    4.87    1.39
   0   2  -7   92.01    4.86
  -1  -1   7   67.27    4.67
  -2   0   7    0.36    0.40
  -3   1   7   19.02    3.58
  -4   2   7   14.28    3.32
  -3   7  -7   18.55    2.40
  -2   6  -7    4.81    1.20
  -1   5  -7   78.30    5.22
   0   4  -7   17.58    2.17
   1   3  -7   10.03    2.07
  -2  -2   7   71.83    5.55
  -3  -1   7   13.62    2.40
  -3  -1   7   21.73    4.06
  -4   0   7   -0.32    0.59
  -2   8  -7   32.92    3.57
  -1   7  -7    6.10    1.76
   0   6  -7   15.69    3.02
   1   5  -7  110.81    6.45
   2   4  -7   26.40    2.91
  -3  -3   7   10.35    2.12
  -3  -3   7    8.20    1.96
  -4  -2   7    8.80    1.85
  -4  -2   7   12.23    2.92
   0   8  -7   89.00    6.65
   1   7  -7    7.87    1.75
   2   6  -7    0.50    0.57
   3   5  -7   10.85    2.15
  -3  -5   7   14.23    2.86
  -4  -4   7    7.57    1.81
  -4  -4   7    8.52    1.89
   1   9  -7   11.02    2.46
   2   8  -7   23.92    2.63
   3   7  -7    9.60    2.11
  -3  -7   7   14.85    3.22
   4   6  -7   21.62    3.76
  -3  -7  -8   30.10    3.19
  -2  -8  -8   -0.50    0.78
  -4  -4  -8   16.09    3.49
  -3  -5  -8    6.83    1.54
  -2  -6  -8    5.17    1.39
  -1  -7  -8   45.81    4.55
   0  -8  -8   34.89    4.33
  -4  -2  -8    9.99    2.34
  -3  -3  -8   14.09    2.65
  -2  -4  -8   68.27    4.57
  -1  -5  -8   53.13    4.44
  -1  -5  -8   49.64    3.50
   0  -6  -8   15.60    3.41
   1  -7  -8    7.10    1.91
  -4   0  -8   34.59    3.41
  -3  -1  -8   36.46    3.65
  -2  -2  -8   48.16    3.84
  -1  -3  -8   20.14    1.95
   0  -4  -8   43.04    3.90
   1  -5  -8   22.38    3.00
   2  -6  -8   45.95    4.53
  -2   6   8   46.13    4.19
   3  -7  -8    0.84    0.89
  -3   7   8    0.69    0.90
  -4   2  -8   10.36    2.30
  -3   1  -8   46.27    4.21
  -2   0  -8   27.05    2.78
  -1  -1  -8  162.59    6.38
   0  -2  -8  116.97    4.63
   0   2   8  126.10    5.07
   1  -3  -8  106.57    6.02
  -1   3   8  117.75    6.06
   2  -4  -8   18.05    3.35
  -2   4   8   16.14    2.93
   3  -5  -8   13.68    2.51
  -3   5   8   13.24    2.38
  -3   3  -8   17.92    2.12
  -2   2  -8   50.14    3.22
  -2   2  -8   45.92    3.91
  -1   1  -8  149.18    6.27
  -1   1  -8  154.35    5.25
   0   0  -8  173.33    6.14
   1  -1  -8   70.52    3.86
  -1   1   8   46.46    3.78
   2  -2  -8   20.06    2.12
  -3   3   8   87.31    6.62
  -4   4   8    1.57    0.88
  -3   5  -8    8.31    1.80
  -3   5  -8    8.77    2.07
  -2   4  -8   86.59    5.31
  -2   4  -8   79.06    5.05
  -1   3  -8   15.61    1.76
   0   2  -8  169.83    7.08
  -1  -1   8   30.68    3.23
  -2   0   8   92.95    6.45
  -3   1   8   26.55    3.31
  -4   2   8    2.58    0.72
  -3   7  -8   35.12    3.93
  -2   6  -8    2.58    0.92
  -1   5  -8   66.96    4.90
   0   4  -8   50.10    4.05
   1   3  -8   93.00    5.73
  -2  -2   8   41.66    4.31
  -3  -1   8   27.72    3.33
  -4   0   8   95.74    7.23
  -1   7  -8   38.34    4.15
   0   6  -8   16.95    3.15
   1   5  -8   23.91    4.03
   2   4  -8   19.72    2.55
  -3  -3   8   84.71    6.67
  -4  -2   8    1.82    0.77
   0   8  -8   26.38    3.21
   1   7  -8    5.62    1.36
   2   6  -8   39.00    3.94
   3   5  -8   16.10    3.12
  -3  -5   8   17.05    3.13
  -4  -4   8    1.52    0.78
   2   8  -8    5.32    1.31
   3   7  -8   -0.20    0.66
  -3  -5  -9    4.71    0.97
  -2  -6  -9   10.01    2.26
  -2  -6  -9   11.92    2.24
  -1  -7  -9   13.02    2.51
   0  -8  -9    4.97    1.59
  -4  -2  -9    9.28    2.05
  -3  -3  -9    2.99    0.82
  -2  -4  -9   13.30    2.47
  -1  -5  -9    6.68    1.64
   0  -6  -9   39.12    4.17
   1  -7  -9   13.04    2.75
  -4   0  -9    0.20    0.68
  -3  -1  -9   15.12    2.89
  -2  -2  -9    5.95    1.56
  -1  -3  -9   11.18    1.98
   0  -4  -9   36.36    3.53
   1  -5  -9   19.50    3.78
   2  -6  -9   41.98    4.30
  -4   2  -9    8.06    1.82
  -3   1  -9   17.29    3.47
  -2   0  -9    0.92    0.50
  -1  -1  -9   49.44    3.36
   0  -2  -9   78.33    3.82
  -1   3   9   28.05    2.90
   2  -4  -9   21.77    3.83
  -2   4   9   18.93    3.44
   3  -5  -9   10.80    2.64
  -3   5   9   11.85    2.65
  -4   4  -9   16.86    2.87
  -3   3  -9    1.52    0.57
  -2   2  -9    6.06    1.65
  -1   1  -9   39.57    2.60
  -1   1  -9   48.45    3.33
   0   0  -9    0.38    0.39
   1  -1  -9   40.93    3.01
  -1   1   9   36.29    3.26
   2  -2  -9   14.42    2.68
  -2   2   9   11.19    2.42
  -3   3   9    1.57    1.05
  -4   4   9    8.27    1.76
  -3   5  -9    3.91    1.39
  -3   5  -9    7.11    1.62
  -2   4  -9   17.75    2.24
  -2   4  -9   18.09    2.25
  -1   3  -9   10.51    1.98
   0   2  -9   82.46    4.98
  -1  -1   9   65.86    4.94
  -2   0   9    1.06    0.64
  -3   1   9   13.22    3.26
  -4   2   9   10.52    2.44
  -2   6  -9   13.13    2.61
  -2   6  -9   16.15    2.82
  -1   5  -9    9.86    1.77
   0   4  -9   40.58    3.78
   1   3  -9   34.38    3.49
  -2  -2   9   10.32    2.47
  -3  -1   9   11.42    2.82
  -4   0   9    0.17    0.68
  -1   7  -9   10.41    2.52
   0   6  -9   33.94    3.63
   1   5  -9   20.08    3.69
   2   4  -9   16.47    3.11
  -3  -3   9    0.41    0.63
  -4  -2   9   12.58    2.37
   0   8  -9    2.92    0.99
   1   7  -9    8.35    1.76
   2   6  -9   31.96    3.63
   3   5  -9   10.79    2.46
  -3  -5 -10    6.41    1.43
  -2  -6 -10   53.43    4.67
  -1  -7 -10    3.69    1.02
  -4  -2 -10   10.59    2.25
  -3  -3 -10   34.69    3.56
  -2  -4 -10    5.51    1.24
  -1  -5 -10    8.84    2.12
   0  -6 -10   46.63    4.65
   1  -7 -10   22.24    4.35
  -4   0 -10   45.16    4.42
  -3  -1 -10    5.39    1.60
  -2  -2 -10    2.58    0.76
  -1  -3 -10  191.68    7.70
   0  -4 -10   10.20    2.43
   1  -5 -10    9.54    2.14
   2  -6 -10   31.45    3.49
  -4   2 -10    9.75    1.89
  -3   1 -10    4.92    1.23
  -2   0 -10  132.32    7.14
  -1  -1 -10   30.99    2.64
   0  -2 -10   41.59    2.84
   1  -3 -10  140.56    7.33
  -1   3  10  147.69    8.12
   2  -4 -10   58.99    4.88
  -2   4  10   54.68    4.79
  -3   5  10   23.10    4.39
  -3   3 -10   41.69    4.16
  -2   2 -10    2.43    0.82
  -1   1 -10   29.32    2.60
  -1   1 -10   32.19    2.58
   0   0 -10  631.46   14.25
   1  -1 -10   26.89    2.24
  -1   1  10   27.47    2.86
   2  -2 -10   26.83    2.81
  -2   2  10   31.74    3.49
  -3   3  10    8.16    2.04
  -3   5 -10   10.35    2.07
  -2   4 -10    2.79    0.75
  -2   4 -10    6.93    1.30
  -1   3 -10  200.24    7.81
   0   2 -10   56.43    4.07
  -2   0  10   78.74    6.18
  -3   1  10   56.57    5.24
  -4   2  10   24.08    3.10
  -2   6 -10   70.04    5.41
  -2   6 -10   70.06    5.24
  -1   5 -10   19.31    3.42
   0   4 -10   16.64    3.05
   1   3 -10  136.40    7.58
  -2  -2  10   26.97    4.67
  -3  -1  10   53.70    5.43
  -4   0  10    7.05    1.64
  -1   7 -10    6.19    1.89
   0   6 -10   53.24    4.80
   1   5 -10    9.80    2.22
   2   4 -10   59.18    5.05
  -4  -2  10   20.35    3.95
   1   7 -10   12.73    2.33
   2   6 -10   17.15    3.23
   3   5 -10   19.38    3.32
  -3  -5 -11   19.62    2.38
  -2  -6 -11   11.94    2.50
  -3  -3 -11    7.22    1.93
  -2  -4 -11   20.79    2.46
  -1  -5 -11   15.44    3.10
   0  -6 -11    2.99    0.94
  -3  -1 -11   14.52    2.91
  -2  -2 -11   31.32    3.18
  -1  -3 -11    6.19    1.47
   0  -4 -11    3.29    1.16
   1  -5 -11   20.19    2.66
   2  -6 -11    0.65    0.91
  -3   1 -11   16.59    3.30
  -2   0 -11    0.23    0.59
  -1  -1 -11    5.88    1.15
   0  -2 -11    9.13    1.00
   1  -3 -11    0.11    0.59
   2  -4 -11    1.62    0.71
  -3   5  11   10.20    2.17
  -3   3 -11    6.46    1.43
  -2   2 -11   27.13    3.08
  -1   1 -11    5.18    1.33
   0   0 -11   -0.20    0.44
   0   0 -11    0.08    0.46
   1  -1 -11   13.21    1.69
  -1   1  11   13.84    2.73
  -2   2  11   33.62    3.80
  -3   3  11    3.25    1.09
  -3   5 -11   22.04    4.01
  -2   4 -11   22.53    2.55
  -1   3 -11    4.75    1.35
   0   2 -11    4.30    1.03
   1   1 -11   14.20    2.71
  -2   0  11   -1.04    0.63
  -3   1  11    5.96    1.86
  -2   6 -11   16.40    1.96
  -2   6 -11   18.24    2.23
  -1   5 -11   25.83    2.75
   0   4 -11    4.59    1.27
   1   3 -11    1.33    0.69
  -3  -1  11    8.62    2.05
  -1   7 -11   12.81    2.49
   0   6 -11    2.16    0.79
   1   5 -11   16.86    3.34
   2   4 -11    2.37    0.77
   3   3 -11    5.38    1.14
   2   6 -11    0.83    0.79
  -3  -3 -12   32.12    3.31
  -2  -4 -12   41.37    3.63
  -1  -5 -12    5.25    1.46
   0  -6 -12    6.98    1.63
  -3  -1 -12   48.29    4.69
  -2  -2 -12   31.11    3.08
  -1  -3 -12    9.43    1.85
   0  -4 -12   29.77    3.26
   1  -5 -12   14.68    2.94
  -3   1 -12   48.33    4.82
  -2   0 -12   15.98    2.98
  -1  -1 -12   54.12    3.91
   0  -2 -12   44.98    3.11
   1  -3 -12   49.65    4.31
   2  -4 -12    4.09    1.30
  -3   3 -12   40.39    4.18
  -2   2 -12   27.32    3.13
  -1   1 -12   48.65    3.57
   0   0 -12   48.28    3.41
   1  -1 -12   40.42    2.91
  -1   1  12   39.36    3.34
  -2   2  12    2.57    0.72
  -3   3  12   61.33    5.57
  -2   4 -12   43.49    4.06
  -1   3 -12    9.01    1.91
   0   2 -12   67.39    4.46
   1   1 -12   33.09    3.19
  -2   0  12   57.55    5.45
  -3   1  12    1.13    0.77
  -2   6 -12    1.79    0.98
  -1   5 -12   14.05    1.74
   0   4 -12   28.40    3.02
   1   3 -12   47.78    4.47
   2   2 -12    0.09    0.59
  -3  -1  12    0.91    0.85
   0   6 -12    8.07    2.17
   1   5 -12   13.25    2.88
   2   4 -12    7.58    1.85
   3   3 -12   50.81    4.75
  -2  -4 -13    2.90    0.92
  -1  -5 -13   21.18    2.76
  -2  -2 -13   11.86    2.21
  -1  -3 -13    6.47    1.42
   0  -4 -13    5.50    1.33
   1  -5 -13   13.46    2.52
  -2   0 -13    1.01    0.72
  -1  -1 -13   23.70    2.17
   1  -3 -13    0.94    0.69
  -2   2 -13   12.36    2.25
  -1   1 -13   28.13    2.40
   0   0 -13    0.05    0.52
   1  -1 -13   31.76    2.52
  -3   3  13    3.35    1.04
  -2   4 -13    2.24    0.75
  -1   3 -13    6.34    1.44
   0   2 -13   56.15    4.19
   1   1 -13   22.12    2.39
  -2   0  13   -1.18    0.80
  -3   1  13   19.15    3.66
  -1   5 -13   36.25    3.84
   0   4 -13    7.65    1.77
   1   3 -13    3.67    1.26
   2   2 -13    3.87    0.97
  -3  -1  13   21.54    4.30
   1   5 -13    9.79    2.47
   2   4 -13   18.14    3.71
  -2  -2 -14    7.22    1.54
   0  -4 -14    6.78    1.74
  -2   0 -14   33.84    3.45
   1  -3 -14   34.30    3.38
  -2   2 -14    6.49    1.67
   0   0 -14   91.05    5.04
  -1   3 -14   45.70    3.69
  -2   0  14   27.72    3.42
   0   4 -14    7.62    2.15
   1   3 -14   42.58    3.81
   2   2 -14   13.48    3.02
  -1  -1 -15   16.51    1.99
   1  -3 -15    0.78    0.85
  -1   1 -15   14.90    1.54
   0   0 -15   -0.09    0.75
   0   2 -15    8.15    1.43
   1   3 -15    0.32    0.92
   0   0 -16    8.95    1.83
   0   0   0    0.00    0.00
;
_shelx_hkl_checksum              55687
loop_
_space_group_symop_operation_xyz
'x, y, z'
'x, -y, z+1/2'
'x+1/2, y+1/2, z'
'x+1/2, -y+1/2, z+1/2'
loop_
_atom_site_label
_atom_site_type_symbol
_atom_site_fract_x
_atom_site_fract_y
_atom_site_fract_z
_atom_site_U_iso_or_equiv
_atom_site_adp_type
_atom_site_occupancy
_atom_site_site_symmetry_order
_atom_site_calc_flag
K1 K 0.1330(4) 0.3480(3) 0.3424(2) 0.0169(7) Uani 1 1 d
P1 P 0.7180(5) 0.4835(3) 0.6223(2) 0.0095(7) Uani 1 1 d
B1 B 0.225(3) 0.6597(15) 0.5421(11) 0.011(2) Uani 1 1 d
F1 F 0.1021(18) 0.6732(9) 0.4333(6) 0.0187(16) Uani 1 1 d
O1 O 0.467(2) 0.5319(10) 0.5329(7) 0.0147(17) Uani 1 1 d
O2 O 0.9810(18) 0.6177(10) 0.6195(7) 0.0121(16) Uani 1 1 d
O3 O 0.8694(19) 0.3206(9) 0.5740(8) 0.0155(18) Uani 1 1 d
O4 O 0.603(2) 0.4691(10) 0.7369(8) 0.0183(18) Uani 1 1 d
loop_
_atom_site_aniso_label
_atom_site_aniso_U_11
_atom_site_aniso_U_22
_atom_site_aniso_U_33
_atom_site_aniso_U_23
_atom_site_aniso_U_13
_atom_site_aniso_U_12
K1 0.0199(12) 0.0210(14) 0.0097(11) 0.0000(9) 0.0004(8) 0.0024(10)
P1 0.0105(12) 0.0086(12) 0.0095(15) 0.0006(9) 0.0012(9) -0.0008(9)
B1 0.008(6) 0.013(5) 0.012(6) 0.008(4) 0.001(5) -0.003(5)
F1 0.020(4) 0.027(4) 0.009(4) 0.000(3) 0.000(3) 0.003(3)
O1 0.018(4) 0.014(4) 0.011(4) -0.001(3) -0.004(3) 0.005(3)
O2 0.014(4) 0.012(3) 0.010(4) -0.004(3) 0.006(3) 0.000(3)
O3 0.012(4) 0.011(3) 0.023(5) 0.004(3) 0.002(3) -0.003(3)
O4 0.019(4) 0.021(4) 0.015(4) 0.000(3) 0.004(3) -0.005(3)
loop_
_atom_type_symbol
_atom_type_description
_atom_type_scat_dispersion_real
_atom_type_scat_dispersion_imag
_atom_type_scat_source
B B 0.0013 0.0007 'International Tables Vol C Tables 4.2.6.8 and 6.1.1.4'
O O 0.0106 0.0060 'International Tables Vol C Tables 4.2.6.8 and 6.1.1.4'
P P 0.1023 0.0942 'International Tables Vol C Tables 4.2.6.8 and 6.1.1.4'
K K 0.2009 0.2494 'International Tables Vol C Tables 4.2.6.8 and 6.1.1.4'
F F 0.0171 0.0103 'International Tables Vol C Tables 4.2.6.8 and 6.1.1.4'
loop_
_geom_angle_atom_site_label_1
_geom_angle_atom_site_label_2
_geom_angle_atom_site_label_3
_geom_angle
_geom_angle_site_symmetry_1
_geom_angle_site_symmetry_3
F1 K1 O2 128.3(2) 3_545 2_464
F1 K1 F1 110.5(3) 3_545 .
O2 K1 F1 106.3(2) 2_464 .
F1 K1 O4 84.6(2) 3_545 2_564
O2 K1 O4 71.0(3) 2_464 2_564
F1 K1 O4 75.1(2) . 2_564
F1 K1 O4 76.1(2) 3_545 4_454
O2 K1 O4 68.7(3) 2_464 4_454
F1 K1 O4 173.4(3) . 4_454
O4 K1 O4 106.4(3) 2_564 4_454
F1 K1 F1 101.2(2) 3_545 3_445
O2 K1 F1 103.5(2) 2_464 3_445
F1 K1 F1 104.4(2) . 3_445
O4 K1 F1 173.8(3) 2_564 3_445
O4 K1 F1 73.4(2) 4_454 3_445
F1 K1 O4 177.8(2) 3_545 2_464
O2 K1 O4 50.5(2) 2_464 2_464
F1 K1 O4 71.6(2) . 2_464
O4 K1 O4 96.3(3) 2_564 2_464
O4 K1 O4 101.8(3) 4_454 2_464
F1 K1 O4 77.8(2) 3_445 2_464
F1 K1 O3 82.6(2) 3_545 1_455
O2 K1 O3 144.4(2) 2_464 1_455
F1 K1 O3 71.6(2) . 1_455
O4 K1 O3 137.1(3) 2_564 1_455
O4 K1 O3 109.8(2) 4_454 1_455
F1 K1 O3 46.7(2) 3_445 1_455
O4 K1 O3 98.0(2) 2_464 1_455
F1 K1 O1 65.6(2) 3_545 .
O2 K1 O1 141.8(2) 2_464 .
F1 K1 O1 45.1(2) . .
O4 K1 O1 76.3(3) 2_564 .
O4 K1 O1 141.3(3) 4_454 .
F1 K1 O1 107.9(2) 3_445 .
O4 K1 O1 116.4(2) 2_464 .
O3 K1 O1 61.2(2) 1_455 .
F1 K1 B1 82.7(3) 3_545 3_445
O2 K1 B1 128.4(3) 2_464 3_445
F1 K1 B1 95.6(3) . 3_445
O4 K1 B1 160.5(3) 2_564 3_445
O4 K1 B1 84.8(3) 4_454 3_445
F1 K1 B1 25.0(3) 3_445 3_445
O4 K1 B1 96.9(3) 2_464 3_445
O3 K1 B1 25.9(3) 1_455 3_445
O1 K1 B1 85.0(3) . 3_445
F1 K1 P1 153.90(17) 3_545 2_464
O2 K1 P1 25.98(16) 2_464 2_464
F1 K1 P1 85.63(17) . 2_464
O4 K1 P1 79.8(2) 2_564 2_464
O4 K1 P1 88.4(2) 4_454 2_464
F1 K1 P1 94.03(17) 3_445 2_464
O4 K1 P1 25.16(17) 2_464 2_464
O3 K1 P1 122.82(19) 1_455 2_464
O1 K1 P1 129.18(16) . 2_464
B1 K1 P1 117.1(2) 3_445 2_464
F1 K1 B1 89.9(3) 3_545 .
O2 K1 B1 129.1(3) 2_464 .
F1 K1 B1 23.2(2) . .
O4 K1 B1 82.7(3) 2_564 .
O4 K1 B1 162.2(3) 4_454 .
F1 K1 B1 99.2(3) 3_445 .
O4 K1 B1 92.2(3) 2_464 .
O3 K1 B1 56.6(2) 1_455 .
O1 K1 B1 24.8(3) . .
B1 K1 B1 82.5(3) 3_445 .
P1 K1 B1 108.6(2) 2_464 .
O4 P1 O2 108.8(5) . .
O4 P1 O3 115.6(5) . .
O2 P1 O3 104.3(4) . .
O4 P1 O1 115.5(5) . .
O2 P1 O1 108.6(5) . .
O3 P1 O1 103.3(5) . .
O4 P1 K1 58.9(4) . 2_665
O2 P1 K1 51.8(3) . 2_665
O3 P1 K1 113.0(4) . 2_665
O1 P1 K1 141.7(3) . 2_665
O4 P1 K1 41.1(3) . 4
O2 P1 K1 124.5(3) . 4
O3 P1 K1 74.6(3) . 4
O1 P1 K1 126.0(3) . 4
K1 P1 K1 76.99(7) 2_665 4
F1 B1 O2 110.3(9) . 1_455
F1 B1 O1 104.1(9) . .
O2 B1 O1 114.4(9) 1_455 .
F1 B1 O3 109.5(8) . 3_455
O2 B1 O3 109.6(10) 1_455 3_455
O1 B1 O3 108.6(10) . 3_455
F1 B1 K1 59.5(5) . 3
O2 B1 K1 162.5(8) 1_455 3
O1 B1 K1 82.7(6) . 3
O3 B1 K1 65.2(6) 3_455 3
F1 B1 K1 50.7(5) . .
O2 B1 K1 102.0(6) 1_455 .
O1 B1 K1 62.2(6) . .
O3 B1 K1 147.7(8) 3_455 .
K1 B1 K1 82.5(3) 3 .
B1 F1 K1 134.0(6) . 3_455
B1 F1 K1 106.1(6) . .
K1 F1 K1 110.5(3) 3_455 .
B1 F1 K1 95.6(6) . 3
K1 F1 K1 101.2(2) 3_455 3
K1 F1 K1 104.4(2) . 3
B1 O1 P1 127.2(8) . .
B1 O1 K1 93.1(7) . .
P1 O1 K1 135.9(4) . .
B1 O2 P1 134.6(8) 1_655 .
B1 O2 K1 115.9(7) 1_655 2_665
P1 O2 K1 102.2(4) . 2_665
B1 O3 P1 129.6(8) 3_545 .
B1 O3 K1 88.8(7) 3_545 1_655
P1 O3 K1 116.6(4) . 1_655
P1 O4 K1 129.5(5) . 2_565
P1 O4 K1 118.6(5) . 4
K1 O4 K1 106.4(3) 2_565 4
P1 O4 K1 95.9(4) . 2_665
K1 O4 K1 96.3(3) 2_565 2_665
K1 O4 K1 101.8(3) 4 2_665
loop_
_geom_bond_atom_site_label_1
_geom_bond_atom_site_label_2
_geom_bond_distance
_geom_bond_site_symmetry_2
K1 F1 2.666(8) 3_545
K1 O2 2.772(9) 2_464
K1 F1 2.785(7) .
K1 O4 2.792(9) 2_564
K1 O4 2.802(9) 4_454
K1 F1 2.884(8) 3_445
K1 O4 2.968(9) 2_464
K1 O3 3.027(9) 1_455
K1 O1 3.060(9) .
K1 B1 3.333(12) 3_445
K1 P1 3.448(4) 2_464
K1 B1 3.455(13) .
P1 O4 1.474(9) .
P1 O2 1.546(8) .
P1 O3 1.552(8) .
P1 O1 1.566(9) .
P1 K1 3.448(4) 2_665
P1 K1 3.738(4) 4
B1 F1 1.414(14) .
B1 O2 1.447(15) 1_455
B1 O1 1.449(15) .
B1 O3 1.458(14) 3_455
B1 K1 3.333(12) 3
F1 K1 2.666(8) 3_455
F1 K1 2.884(8) 3
O2 B1 1.447(15) 1_655
O2 K1 2.772(9) 2_665
O3 B1 1.458(14) 3_545
O3 K1 3.027(9) 1_655
O4 K1 2.792(9) 2_565
O4 K1 2.802(9) 4
O4 K1 2.968(9) 2_665
