#------------------------------------------------------------------------------
#$Date: 2017-05-06 01:07:05 +0300 (Sat, 06 May 2017) $
#$Revision: 196431 $
#$URL: file:///home/coder/svn-repositories/cod/cif/7/04/25/7042545.cif $
#------------------------------------------------------------------------------
#
# This file is available in the Crystallography Open Database (COD),
# http://www.crystallography.net/
#
# All data on this site have been placed in the public domain by the
# contributors.
#
data_7042545
loop_
_publ_author_name
'Albino, M.'
'Clark, L.'
'Lhoste, J.'
'Payen, C.'
'Gren\`eche, J-M'
'Lightfoot, P.'
'Maisonneuve, V.'
'Leblanc, M.'
_publ_section_title
;
 A magnetisation and M\"ossbauer study of triazole
 (M1-x(2+)Mx(3+))M(3+)F5(Htaz)1-x(taz)x weberites (M = Fe, Co, Mn, Zn, Ga,
 V).
;
_journal_issue                   16
_journal_name_full
'Dalton transactions (Cambridge, England : 2003)'
_journal_page_first              5352
_journal_page_last               5362
_journal_paper_doi               10.1039/c7dt00587c
_journal_volume                  46
_journal_year                    2017
_chemical_formula_sum            'C2 Co0.93 F5 Fe1.07 N3'
_chemical_formula_weight         275.61
_chemical_name_systematic        ' ?'
_space_group_IT_number           74
_symmetry_cell_setting           orthorhombic
_symmetry_space_group_name_Hall  '-I 2b 2'
_symmetry_space_group_name_H-M   'I m m a'
_audit_update_record
;
2017-01-16 deposited with the CCDC.
2017-03-20 downloaded from the CCDC.
;
_cell_angle_alpha                90.00000
_cell_angle_beta                 90.00000
_cell_angle_gamma                90.00000
_cell_formula_units_Z            4
_cell_length_a                   9.0882(5)
_cell_length_b                   7.4479(4)
_cell_length_c                   9.4689(5)
_cell_measurement_temperature    296
_cell_volume                     640.93(6)
_computing_structure_refinement  FULLPROF
_diffrn_ambient_temperature      296(2)
_diffrn_measurement_device_type  'Xpert Panaltycal'
_diffrn_radiation_monochromator  graphite
_diffrn_radiation_source         'fine-focus sealed tube'
_diffrn_radiation_type           MoK\a
_diffrn_radiation_wavelength     0.71069
_pd_instr_location               ' ?'
_pd_meas_2theta_range_inc        0.017001
_pd_meas_2theta_range_max        99.99400
_pd_meas_2theta_range_min        5.11700
_pd_meas_number_of_points        5582
_pd_proc_2theta_range_inc        0.017001
_pd_proc_2theta_range_max        99.9290
_pd_proc_2theta_range_min        5.0520
_pd_proc_ls_pref_orient_corr     ' ?'
_pd_proc_ls_prof_R_factor        0.5718
_pd_proc_ls_prof_wR_expected     0.7326
_pd_proc_ls_prof_wR_factor       0.7308
_pd_proc_wavelength              1.540560
_pd_spec_mounting                ' ?'
_refine_ls_goodness_of_fit_all   0.9975
_refine_ls_number_parameters     56
_refine_ls_number_reflns         415
_refine_ls_number_restraints     0
_refine_ls_R_I_factor            6.3982
_cod_data_source_file            c7dt00587c2.cif
_cod_data_source_block           CoFeF5Htaz
_cod_depositor_comments
;
The following automatic conversions were performed:

'_symmetry_cell_setting' value 'Orthorhombic' changed to
'orthorhombic' according to
/home/data/users/saulius/crontab/automatic-downloads/rss-feeds/RSC/lib/dictionaries/cif_core.dic
dictionary named 'cif_core.dic' version 2.4.2 from 2011-04-26.

Automatic conversion script
Id: cif_fix_values 4973 2017-02-22 13:04:09Z antanas 

 Adding full bibliography for 7042543--7042551.cif.
;
_cod_database_code               7042545
_pd_proc_ls_prof_cr_factor       27.1042
_pd_proc_ls_prof_cwr_factor      10.4083
_pd_proc_ls_prof_cwr_expected    10.4341
_pd_proc_ls_prof_chi2            0.9951
_pd_proc_ls_prof_echi2           1.0298
loop_
_symmetry_equiv_pos_as_xyz
x,y,z
x+1/2,-y+1/2,-z+1/2
-x+1/2,y,-z+1/2
-x,-y+1/2,z
-x,-y,-z
-x+1/2,y+1/2,z+1/2
x+1/2,-y,z+1/2
x,y+1/2,-z
x+1/2,y+1/2,z+1/2
x,-y,-z
-x,y+1/2,-z
-x+1/2,-y,z+1/2
-x+1/2,-y+1/2,-z+1/2
-x,y,z
x,-y+1/2,z
x+1/2,y,-z+1/2
loop_
_atom_site_label
_atom_site_fract_x
_atom_site_fract_y
_atom_site_fract_z
_atom_site_U_iso_or_equiv
_atom_site_occupancy
_atom_site_adp_type
_atom_site_type_symbol
Co1 0.75000 0.75000 0.75000 0.0290(13) 0.93000 Uiso Co
Fe1 0.75000 0.75000 0.75000 0.0290(13) 0.07000 Uiso Fe
Fe2 0.50000 0.50000 0.50000 0.0217(14) 1.00000 Uiso Fe
F1 0.50000 0.75000 0.4246(7) 0.0256(16) 1.00000 Uiso F
F2 0.6487(4) 0.5567(5) 0.6355(3) 0.0256(16) 1.00000 Uiso F
N1 0.9240(8) 0.75000 0.5838(8) 0.025(3) 1.00000 Uiso N
N2 1.00000 0.75000 0.3676(11) 0.025(3) 1.00000 Uiso N
C1 0.8791(10) 0.75000 0.4510(11) 0.025(3) 1.00000 Uiso C
loop_
_atom_type_symbol
_atom_type_description
_atom_type_scat_dispersion_real
_atom_type_scat_dispersion_imag
_atom_type_scat_source
Co Co 0.349 0.972 'International Tables Vol C Tables 4.2.6.8 and 6.1.1.4'
Fe Fe 0.346 0.844 'International Tables Vol C Tables 4.2.6.8 and 6.1.1.4'
F F 0.0171 0.0103 'International Tables Vol C Tables 4.2.6.8 and 6.1.1.4'
N N 0.0061 0.0033 'International Tables Vol C Tables 4.2.6.8 and 6.1.1.4'
C C 0.0033 0.0016 'International Tables Vol C Tables 4.2.6.8 and 6.1.1.4'
loop_
_geom_angle_atom_site_label_1
_geom_angle_atom_site_label_2
_geom_angle_atom_site_label_3
_geom_angle
_geom_angle_site_symmetry_1
_geom_angle_site_symmetry_3
F2 Co1 F2 89.3(2) 1_555 3_656
F2 Co1 F2 180.0(3) 1_555 13_666
F2 Co1 F2 90.7(3) 1_555 15_565
F2 Co1 N1 86.8(3) 1_555 1_555
F2 Co1 N1 81.3(3) 1_555 2_466
F2 Co1 N1 93.2(4) 1_555 3_656
F2 Co1 N1 98.7(3) 1_555 4_765
F2 Co1 C1 71.3(3) 1_555 1_555
F2 Co1 C1 108.7(4) 1_555 3_656
F2 Co1 F2 90.7(3) 3_656 13_666
F2 Co1 F2 180.0(3) 3_656 15_565
F2 Co1 N1 93.2(4) 3_656 1_555
F2 Co1 N1 98.7(3) 3_656 2_466
F2 Co1 N1 86.8(3) 3_656 3_656
F2 Co1 N1 81.3(3) 3_656 4_765
F2 Co1 C1 108.7(4) 3_656 1_555
F2 Co1 C1 71.3(3) 3_656 3_656
F2 Co1 F2 89.3(2) 13_666 15_565
F2 Co1 N1 93.2(4) 13_666 1_555
F2 Co1 N1 98.7(3) 13_666 2_466
F2 Co1 N1 86.8(3) 13_666 3_656
F2 Co1 N1 81.3(3) 13_666 4_765
F2 Co1 C1 108.7(4) 13_666 1_555
F2 Co1 C1 71.3(3) 13_666 3_656
F2 Co1 N1 86.8(3) 15_565 1_555
F2 Co1 N1 81.3(3) 15_565 2_466
F2 Co1 N1 93.2(4) 15_565 3_656
F2 Co1 N1 98.7(3) 15_565 4_765
F2 Co1 C1 71.3(3) 15_565 1_555
F2 Co1 C1 108.7(4) 15_565 3_656
N1 Co1 N1 163.1(5) 1_555 2_466
N1 Co1 N1 180.0(6) 1_555 3_656
N1 Co1 C1 157.4(6) 1_555 3_656
N1 Co1 N1 180.0(4) 2_466 4_765
N1 Co1 C1 140.5(5) 2_466 1_555
N1 Co1 N1 163.1(5) 3_656 4_765
N1 Co1 C1 157.4(6) 3_656 1_555
N1 Co1 C1 140.5(5) 4_765 3_656
C1 Co1 C1 180.0(6) 1_555 3_656
F2 Fe1 F2 89.3(2) 1_555 3_656
F2 Fe1 F2 180.0(3) 1_555 13_666
F2 Fe1 F2 90.7(3) 1_555 15_565
F2 Fe1 N1 86.8(3) 1_555 1_555
F2 Fe1 N1 81.3(3) 1_555 2_466
F2 Fe1 N1 93.2(4) 1_555 3_656
F2 Fe1 N1 98.7(3) 1_555 4_765
F2 Fe1 C1 71.3(3) 1_555 1_555
F2 Fe1 C1 108.7(4) 1_555 3_656
F2 Fe1 F2 90.7(3) 3_656 13_666
F2 Fe1 F2 180.0(3) 3_656 15_565
F2 Fe1 N1 93.2(4) 3_656 1_555
F2 Fe1 N1 98.7(3) 3_656 2_466
F2 Fe1 N1 86.8(3) 3_656 3_656
F2 Fe1 N1 81.3(3) 3_656 4_765
F2 Fe1 C1 108.7(4) 3_656 1_555
F2 Fe1 C1 71.3(3) 3_656 3_656
F2 Fe1 F2 89.3(2) 13_666 15_565
F2 Fe1 N1 93.2(4) 13_666 1_555
F2 Fe1 N1 98.7(3) 13_666 2_466
F2 Fe1 N1 86.8(3) 13_666 3_656
F2 Fe1 N1 81.3(3) 13_666 4_765
F2 Fe1 C1 108.7(4) 13_666 1_555
F2 Fe1 C1 71.3(3) 13_666 3_656
F2 Fe1 N1 86.8(3) 15_565 1_555
F2 Fe1 N1 81.3(3) 15_565 2_466
F2 Fe1 N1 93.2(4) 15_565 3_656
F2 Fe1 N1 98.7(3) 15_565 4_765
F2 Fe1 C1 71.3(3) 15_565 1_555
F2 Fe1 C1 108.7(4) 15_565 3_656
N1 Fe1 N1 163.1(5) 1_555 2_466
N1 Fe1 N1 180.0(6) 1_555 3_656
N1 Fe1 C1 157.4(6) 1_555 3_656
N1 Fe1 N1 180.0(4) 2_466 4_765
N1 Fe1 C1 140.5(5) 2_466 1_555
N1 Fe1 N1 163.1(5) 3_656 4_765
N1 Fe1 C1 157.4(6) 3_656 1_555
N1 Fe1 C1 140.5(5) 4_765 3_656
C1 Fe1 C1 180.0(6) 1_555 3_656
F1 Fe2 F1 180.0(2) 1_555 5_666
F1 Fe2 F2 92.0(3) 1_555 1_555
F1 Fe2 F2 88.0(2) 1_555 5_666
F1 Fe2 F2 88.0(2) 1_555 10_566
F1 Fe2 F2 92.0(3) 1_555 14_655
F1 Fe2 F2 88.0(2) 5_666 1_555
F1 Fe2 F2 92.0(3) 5_666 5_666
F1 Fe2 F2 92.0(3) 5_666 10_566
F1 Fe2 F2 88.0(2) 5_666 14_655
F2 Fe2 F2 180.0(3) 1_555 5_666
F2 Fe2 F2 90.0(2) 1_555 10_566
F2 Fe2 F2 90.0(3) 1_555 14_655
F2 Fe2 F2 90.0(3) 5_666 10_566
F2 Fe2 F2 90.0(2) 5_666 14_655
F2 Fe2 F2 180.0(3) 10_566 14_655
Fe2 F1 Fe2 138.04(10) 1_555 4_665
Fe2 F1 F2 102.95(20) 1_555 4_665
Fe2 F1 F2 149.4(2) 1_555 8_556
Fe2 F1 F2 149.4(2) 1_555 11_656
Fe2 F1 F2 102.95(20) 1_555 15_565
Fe2 F1 N2 111.0(5) 1_555 2_465
Fe2 F1 C1 88.52(8) 1_555 1_555
Fe2 F1 C1 88.5(3) 1_555 4_665
Fe2 F1 F2 102.95(20) 4_665 1_555
Fe2 F1 F2 149.4(2) 4_665 5_666
Fe2 F1 F2 149.4(2) 4_665 10_566
Fe2 F1 F2 102.95(20) 4_665 14_655
Fe2 F1 N2 111.0(5) 4_665 2_465
Fe2 F1 C1 88.5(3) 4_665 1_555
Fe2 F1 C1 88.52(8) 4_665 4_665
F2 F1 F2 89.4(2) 1_555 4_665
F2 F1 F2 87.55(20) 1_555 5_666
F2 F1 F2 109.9(2) 1_555 8_556
F2 F1 F2 58.54(17) 1_555 10_566
F2 F1 F2 145.1(2) 1_555 11_656
F2 F1 F2 57.53(19) 1_555 14_655
F2 F1 F2 61.68(20) 1_555 15_565
F2 F1 N2 135.3(5) 1_555 2_465
F2 F1 C1 57.9(3) 1_555 1_555
F2 F1 C1 115.4(4) 1_555 4_665
F2 F1 F2 109.9(2) 4_665 5_666
F2 F1 F2 87.55(20) 4_665 8_556
F2 F1 F2 145.1(2) 4_665 10_566
F2 F1 F2 58.54(17) 4_665 11_656
F2 F1 F2 61.68(20) 4_665 14_655
F2 F1 F2 57.53(19) 4_665 15_565
F2 F1 N2 135.3(5) 4_665 2_465
F2 F1 C1 115.4(4) 4_665 1_555
F2 F1 C1 57.9(3) 4_665 4_665
F2 F1 F2 155.8(2) 5_666 8_556
F2 F1 F2 59.72(16) 5_666 10_566
F2 F1 F2 114.6(2) 5_666 11_656
F2 F1 F2 58.54(17) 5_666 14_655
F2 F1 F2 145.1(2) 5_666 15_565
F2 F1 N2 77.9(3) 5_666 2_465
F2 F1 C1 120.8(3) 5_666 1_555
F2 F1 C1 61.2(2) 5_666 4_665
F2 F1 F2 114.6(2) 8_556 10_566
F2 F1 F2 59.72(16) 8_556 11_656
F2 F1 F2 145.1(2) 8_556 14_655
F2 F1 F2 58.54(17) 8_556 15_565
F2 F1 N2 77.9(3) 8_556 2_465
F2 F1 C1 61.2(2) 8_556 1_555
F2 F1 C1 120.8(3) 8_556 4_665
F2 F1 F2 155.8(2) 10_566 11_656
F2 F1 F2 87.55(20) 10_566 14_655
F2 F1 F2 109.9(2) 10_566 15_565
F2 F1 N2 77.9(3) 10_566 2_465
F2 F1 C1 61.2(2) 10_566 1_555
F2 F1 C1 120.8(3) 10_566 4_665
F2 F1 F2 109.9(2) 11_656 14_655
F2 F1 F2 87.55(20) 11_656 15_565
F2 F1 N2 77.9(3) 11_656 2_465
F2 F1 C1 120.8(3) 11_656 1_555
F2 F1 C1 61.2(2) 11_656 4_665
F2 F1 F2 89.4(2) 14_655 15_565
F2 F1 N2 135.3(5) 14_655 2_465
F2 F1 C1 115.4(4) 14_655 1_555
F2 F1 C1 57.9(3) 14_655 4_665
F2 F1 N2 135.3(5) 15_565 2_465
F2 F1 C1 57.9(3) 15_565 1_555
F2 F1 C1 115.4(4) 15_565 4_665
N2 F1 C1 94.1(4) 2_465 1_555
N2 F1 C1 94.1(4) 2_465 4_665
C1 F1 C1 171.7(5) 1_555 4_665
Co1 F2 Fe2 147.00(14) 1_555 1_555
Co1 F2 F1 103.6(3) 1_555 1_555
Co1 F2 F1 159.63(17) 1_555 5_666
Co1 F2 F2 45.35(15) 1_555 3_656
Co1 F2 F2 136.99(20) 1_555 10_566
Co1 F2 F2 117.1(2) 1_555 14_655
Co1 F2 N1 49.5(2) 1_555 1_555
Co1 F2 N1 46.0(2) 1_555 3_656
Co1 F2 N2 107.96(18) 1_555 6_645
Co1 F2 C1 70.3(3) 1_555 1_555
Co1 F2 C1 110.3(3) 1_555 8_546
Fe1 F2 Fe2 147.00(14) 1_555 1_555
Fe1 F2 F1 103.6(3) 1_555 1_555
Fe1 F2 F1 159.63(17) 1_555 5_666
Fe1 F2 F2 45.35(15) 1_555 3_656
Fe1 F2 F2 136.99(20) 1_555 10_566
Fe1 F2 F2 117.1(2) 1_555 14_655
Fe1 F2 N1 49.5(2) 1_555 1_555
Fe1 F2 N1 46.0(2) 1_555 3_656
Fe1 F2 N2 107.96(18) 1_555 6_645
Fe1 F2 C1 70.3(3) 1_555 1_555
Fe1 F2 C1 110.3(3) 1_555 8_546
Fe2 F2 F1 45.21(16) 1_555 1_555
Fe2 F2 F1 47.24(14) 1_555 5_666
Fe2 F2 F2 165.8(2) 1_555 3_656
Fe2 F2 F2 45.01(15) 1_555 10_566
Fe2 F2 F2 102.8(2) 1_555 15_565
Fe2 F2 N1 126.9(3) 1_555 1_555
Fe2 F2 N1 121.9(3) 1_555 3_656
Fe2 F2 N2 90.3(4) 1_555 6_645
Fe2 F2 C1 101.7(4) 1_555 1_555
Fe2 F2 C1 97.6(3) 1_555 8_546
F1 F2 F1 92.45(18) 1_555 5_666
F1 F2 F2 148.6(3) 1_555 3_656
F1 F2 F2 58.99(17) 1_555 10_566
F1 F2 F2 61.2(2) 1_555 14_655
F1 F2 F2 59.16(19) 1_555 15_565
F1 F2 N1 92.3(3) 1_555 1_555
F1 F2 N1 105.6(4) 1_555 3_656
F1 F2 N2 127.2(4) 1_555 6_645
F1 F2 C1 71.6(3) 1_555 1_555
F1 F2 C1 119.9(3) 1_555 8_546
F1 F2 F2 118.8(2) 5_666 3_656
F1 F2 F2 62.47(17) 5_666 10_566
F1 F2 F2 60.14(16) 5_666 14_655
F1 F2 F2 147.3(2) 5_666 15_565
F1 F2 N1 143.5(3) 5_666 1_555
F1 F2 N1 117.7(3) 5_666 3_656
F1 F2 N2 51.7(3) 5_666 6_645
F1 F2 C1 127.7(3) 5_666 1_555
F1 F2 C1 70.8(3) 5_666 8_546
F2 F2 F2 136.4(2) 3_656 10_566
F2 F2 F2 130.3(2) 3_656 14_655
F2 F2 F2 90.00(20) 3_656 15_565
F2 F2 N1 64.8(2) 3_656 1_555
F2 F2 N1 58.9(2) 3_656 3_656
F2 F2 N2 76.57(18) 3_656 6_645
F2 F2 C1 89.6(3) 3_656 1_555
F2 F2 C1 76.8(3) 3_656 8_546
F2 F2 F2 90.00(20) 10_566 14_655
F2 F2 F2 108.2(2) 10_566 15_565
F2 F2 N1 89.7(3) 10_566 1_555
F2 F2 N1 164.0(3) 10_566 3_656
F2 F2 N2 113.5(4) 10_566 6_645
F2 F2 C1 66.9(3) 10_566 1_555
F2 F2 C1 62.3(2) 10_566 8_546
F2 F2 F2 90.0(2) 14_655 15_565
F2 F2 N1 148.7(4) 14_655 1_555
F2 F2 N1 77.7(3) 14_655 3_656
F2 F2 N2 66.9(2) 14_655 6_645
F2 F2 C1 132.8(4) 14_655 1_555
F2 F2 C1 130.8(4) 14_655 8_546
F2 F2 N1 60.5(2) 15_565 1_555
F2 F2 N1 62.3(2) 15_565 3_656
F2 F2 N2 131.5(2) 15_565 6_645
F2 F2 C1 62.2(3) 15_565 1_555
F2 F2 C1 135.5(2) 15_565 8_546
N1 F2 N1 95.6(4) 1_555 3_656
N1 F2 N2 140.2(3) 1_555 6_645
N1 F2 C1 75.49(20) 1_555 8_546
N1 F2 N2 71.15(19) 3_656 6_645
N1 F2 C1 114.5(4) 3_656 1_555
N1 F2 C1 133.7(4) 3_656 8_546
N2 F2 C1 159.6(4) 6_645 1_555
N2 F2 C1 86.9(3) 6_645 8_546
C1 F2 C1 75.2(2) 1_555 8_546
Co1 N1 Co1 107.2(2) 1_555 2_566
Co1 N1 Fe1 107.2(2) 1_555 2_566
Co1 N1 N1 135.1(7) 1_555 4_765
Co1 N1 N2 153.5(6) 1_555 1_555
Co1 N1 C1 116.9(8) 1_555 1_555
Co1 N1 C1 170.2(6) 1_555 4_765
Co1 N1 Fe1 107.2(2) 2_566 1_555
Co1 N1 F2 132.6(2) 2_566 1_555
Co1 N1 F2 77.6(2) 2_566 3_656
Co1 N1 F2 77.6(2) 2_566 13_666
Co1 N1 F2 132.6(2) 2_566 15_565
Co1 N1 N2 99.3(5) 2_566 1_555
Co1 N1 C1 136.0(8) 2_566 1_555
Co1 N1 C1 63.1(4) 2_566 4_765
Fe1 N1 Fe1 107.2(2) 1_555 2_566
Fe1 N1 N1 135.1(7) 1_555 4_765
Fe1 N1 N2 153.5(6) 1_555 1_555
Fe1 N1 C1 116.9(8) 1_555 1_555
Fe1 N1 C1 170.2(6) 1_555 4_765
Fe1 N1 F2 132.6(2) 2_566 1_555
Fe1 N1 F2 77.6(2) 2_566 3_656
Fe1 N1 F2 77.6(2) 2_566 13_666
Fe1 N1 F2 132.6(2) 2_566 15_565
Fe1 N1 N2 99.3(5) 2_566 1_555
Fe1 N1 C1 136.0(8) 2_566 1_555
Fe1 N1 C1 63.1(4) 2_566 4_765
F2 N1 F2 56.3(2) 1_555 3_656
F2 N1 F2 84.4(2) 1_555 13_666
F2 N1 F2 58.9(2) 1_555 15_565
F2 N1 N1 148.7(6) 1_555 4_765
F2 N1 N2 115.6(5) 1_555 1_555
F2 N1 C1 84.0(7) 1_555 1_555
F2 N1 C1 142.7(5) 1_555 4_765
F2 N1 F2 55.5(2) 3_656 13_666
F2 N1 F2 84.4(2) 3_656 15_565
F2 N1 N1 102.3(6) 3_656 4_765
F2 N1 N2 151.9(6) 3_656 1_555
F2 N1 C1 138.7(8) 3_656 1_555
F2 N1 C1 132.0(5) 3_656 4_765
F2 N1 F2 56.3(2) 13_666 15_565
F2 N1 N1 102.3(6) 13_666 4_765
F2 N1 N2 151.9(6) 13_666 1_555
F2 N1 C1 138.7(8) 13_666 1_555
F2 N1 C1 132.0(5) 13_666 4_765
F2 N1 N1 148.7(6) 15_565 4_765
F2 N1 N2 115.6(5) 15_565 1_555
F2 N1 C1 84.0(7) 15_565 1_555
F2 N1 C1 142.7(5) 15_565 4_765
N1 N1 N2 71.4(7) 4_765 1_555
N1 N1 C1 108.0(11) 4_765 1_555
C1 N1 C1 72.9(8) 1_555 4_765
F1 N2 F2 50.4(3) 2_565 6_654
F1 N2 F2 50.4(3) 2_565 7_564
F1 N2 F2 50.4(3) 2_565 9_554
F1 N2 F2 50.4(3) 2_565 12_664
F1 N2 N1 161.4(6) 2_565 1_555
F1 N2 N1 161.4(6) 2_565 4_765
F1 N2 C1 125.7(9) 2_565 1_555
F1 N2 C1 125.7(9) 2_565 4_765
F2 N2 F2 100.7(2) 6_654 7_564
F2 N2 F2 46.18(19) 6_654 9_554
F2 N2 F2 83.0(2) 6_654 12_664
F2 N2 N1 118.6(4) 6_654 1_555
F2 N2 N1 136.9(5) 6_654 4_765
F2 N2 C1 93.1(6) 6_654 1_555
F2 N2 C1 133.7(7) 6_654 4_765
F2 N2 F2 83.0(2) 7_564 9_554
F2 N2 F2 46.18(19) 7_564 12_664
F2 N2 N1 136.9(5) 7_564 1_555
F2 N2 N1 118.6(4) 7_564 4_765
F2 N2 C1 133.7(7) 7_564 1_555
F2 N2 C1 93.1(6) 7_564 4_765
F2 N2 F2 100.7(2) 9_554 12_664
F2 N2 N1 136.9(5) 9_554 1_555
F2 N2 N1 118.6(4) 9_554 4_765
F2 N2 C1 133.7(7) 9_554 1_555
F2 N2 C1 93.1(6) 9_554 4_765
F2 N2 N1 118.6(4) 12_664 1_555
F2 N2 N1 136.9(5) 12_664 4_765
F2 N2 C1 93.1(6) 12_664 1_555
F2 N2 C1 133.7(7) 12_664 4_765
N1 N2 C1 72.9(8) 1_555 4_765
N1 N2 C1 72.9(8) 4_765 1_555
C1 N2 C1 108.6(11) 1_555 4_765
Co1 C1 F1 71.6(3) 1_555 1_555
Co1 C1 F2 89.2(2) 1_555 8_556
Co1 C1 F2 89.2(2) 1_555 10_566
Co1 C1 N1 77.4(4) 1_555 4_765
Co1 C1 N2 148.2(7) 1_555 1_555
Co1 C1 C1 112.5(5) 1_555 4_765
Fe1 C1 F1 71.6(3) 1_555 1_555
Fe1 C1 F2 89.2(2) 1_555 8_556
Fe1 C1 F2 89.2(2) 1_555 10_566
Fe1 C1 N1 77.4(4) 1_555 4_765
Fe1 C1 N2 148.2(7) 1_555 1_555
Fe1 C1 C1 112.5(5) 1_555 4_765
F1 C1 F2 50.5(2) 1_555 1_555
F1 C1 F2 47.9(2) 1_555 8_556
F1 C1 F2 47.9(2) 1_555 10_566
F1 C1 F2 50.5(2) 1_555 15_565
F1 C1 N1 112.1(7) 1_555 1_555
F1 C1 N1 149.1(5) 1_555 4_765
F1 C1 N2 140.1(5) 1_555 1_555
F1 C1 C1 175.8(5) 1_555 4_765
F2 C1 F2 91.9(3) 1_555 8_556
F2 C1 F2 50.8(2) 1_555 10_566
F2 C1 F2 55.7(3) 1_555 15_565
F2 C1 N1 70.8(7) 1_555 1_555
F2 C1 N1 103.3(5) 1_555 4_765
F2 C1 N2 151.89(14) 1_555 1_555
F2 C1 C1 132.8(5) 1_555 4_765
F2 C1 F2 90.9(2) 8_556 10_566
F2 C1 F2 50.8(2) 8_556 15_565
F2 C1 N1 116.4(7) 8_556 1_555
F2 C1 N1 133.0(5) 8_556 4_765
F2 C1 N2 112.4(5) 8_556 1_555
F2 C1 C1 130.8(5) 8_556 4_765
F2 C1 F2 91.9(3) 10_566 15_565
F2 C1 N1 116.4(7) 10_566 1_555
F2 C1 N1 133.0(5) 10_566 4_765
F2 C1 N2 112.4(5) 10_566 1_555
F2 C1 C1 130.8(5) 10_566 4_765
F2 C1 N1 70.8(7) 15_565 1_555
F2 C1 N1 103.3(5) 15_565 4_765
F2 C1 N2 151.9(7) 15_565 1_555
F2 C1 C1 132.8(5) 15_565 4_765
N1 C1 N2 107.7(11) 1_555 1_555
N1 C1 C1 72.0(8) 1_555 4_765
N1 C1 N2 70.8(8) 4_765 1_555
loop_
_geom_bond_atom_site_label_1
_geom_bond_atom_site_label_2
_geom_bond_distance
_geom_bond_site_symmetry_2
Co1 F2 2.024(3) 1_555
Co1 F2 2.024(3) 3_656
Co1 F2 2.024(3) 13_666
Co1 F2 2.024(3) 15_565
Co1 N1 2.231(7) 1_555
Co1 N1 3.355(7) 2_466
Co1 N1 2.231(7) 3_656
Co1 N1 3.355(7) 4_765
Co1 C1 3.065(10) 1_555
Co1 C1 3.065(10) 3_656
Fe1 F2 2.024(3) 1_555
Fe1 F2 2.024(3) 3_656
Fe1 F2 2.024(3) 13_666
Fe1 F2 2.024(3) 15_565
Fe1 N1 2.231(7) 1_555
Fe1 N1 3.355(7) 2_466
Fe1 N1 2.231(7) 3_656
Fe1 N1 3.355(7) 4_765
Fe1 C1 3.065(10) 1_555
Fe1 C1 3.065(10) 3_656
Fe2 F1 1.994(2) 1_555
Fe2 F1 1.994(2) 5_666
Fe2 F2 1.911(3) 1_555
Fe2 F2 1.911(3) 5_666
Fe2 F2 1.911(3) 10_566
Fe2 F2 1.911(3) 14_655
F1 Fe2 1.994(2) 1_555
F1 Fe2 1.994(2) 4_665
F1 F2 2.808(6) 1_555
F1 F2 2.808(6) 4_665
F1 F2 2.714(4) 5_666
F1 F2 2.714(4) 8_556
F1 F2 2.714(4) 10_566
F1 F2 2.714(4) 11_656
F1 F2 2.808(6) 14_655
F1 F2 2.808(6) 15_565
F1 N2 2.767(12) 2_465
F1 C1 3.454(9) 1_555
F1 C1 3.454(9) 4_665
F2 Co1 2.024(3) 1_555
F2 Fe1 2.024(3) 1_555
F2 Fe2 1.911(3) 1_555
F2 F1 2.808(6) 1_555
F2 F1 2.714(4) 5_666
F2 F2 2.845(5) 3_656
F2 F2 2.701(4) 10_566
F2 F2 2.703(5) 14_655
F2 F2 2.879(5) 15_565
F2 N1 2.928(7) 1_555
F2 N1 3.094(7) 3_656
F2 N2 3.446(7) 6_645
F2 C1 3.084(9) 1_555
F2 C1 3.205(7) 8_546
N1 Co1 2.231(7) 1_555
N1 Co1 3.355(7) 2_566
N1 Fe1 2.231(7) 1_555
N1 Fe1 3.355(7) 2_566
N1 F2 2.928(7) 1_555
N1 F2 3.094(7) 3_656
N1 F2 3.094(7) 13_666
N1 F2 2.928(7) 15_565
N1 N1 1.381(10) 4_765
N1 N2 2.161(12) 1_555
N1 C1 1.322(13) 1_555
N1 C1 2.187(12) 4_765
N2 F1 2.767(12) 2_565
N2 F2 3.446(7) 6_654
N2 F2 3.446(7) 7_564
N2 F2 3.446(7) 9_554
N2 F2 3.446(7) 12_664
N2 N1 2.161(12) 1_555
N2 N1 2.161(12) 4_765
N2 C1 1.353(11) 1_555
N2 C1 1.353(11) 4_765
C1 Co1 3.065(10) 1_555
C1 Fe1 3.065(10) 1_555
C1 F1 3.454(9) 1_555
C1 F2 3.084(9) 1_555
C1 F2 3.205(7) 8_556
C1 F2 3.205(7) 10_566
C1 F2 3.084(9) 15_565
C1 N1 1.322(13) 1_555
C1 N1 2.187(12) 4_765
C1 N2 1.353(11) 1_555
C1 C1 2.198(13) 4_765
