#------------------------------------------------------------------------------
#$Date: 2017-05-06 01:07:05 +0300 (Sat, 06 May 2017) $
#$Revision: 196431 $
#$URL: file:///home/coder/svn-repositories/cod/cif/7/04/25/7042543.cif $
#------------------------------------------------------------------------------
#
# This file is available in the Crystallography Open Database (COD),
# http://www.crystallography.net/
#
# All data on this site have been placed in the public domain by the
# contributors.
#
data_7042543
loop_
_publ_author_name
'Albino, M.'
'Clark, L.'
'Lhoste, J.'
'Payen, C.'
'Gren\`eche, J-M'
'Lightfoot, P.'
'Maisonneuve, V.'
'Leblanc, M.'
_publ_section_title
;
 A magnetisation and M\"ossbauer study of triazole
 (M1-x(2+)Mx(3+))M(3+)F5(Htaz)1-x(taz)x weberites (M = Fe, Co, Mn, Zn, Ga,
 V).
;
_journal_issue                   16
_journal_name_full
'Dalton transactions (Cambridge, England : 2003)'
_journal_page_first              5352
_journal_page_last               5362
_journal_paper_doi               10.1039/c7dt00587c
_journal_volume                  46
_journal_year                    2017
_chemical_formula_sum            'C2 F5 Fe1.06 N3 Zn0.94'
_chemical_formula_weight         281.72
_chemical_name_systematic        ' ?'
_space_group_IT_number           74
_symmetry_cell_setting           orthorhombic
_symmetry_space_group_name_Hall  '-I 2b 2'
_symmetry_space_group_name_H-M   'I m m a'
_audit_update_record
;
2017-01-16 deposited with the CCDC.
2017-03-20 downloaded from the CCDC.
;
_cell_angle_alpha                90.00000
_cell_angle_beta                 90.00000
_cell_angle_gamma                90.00000
_cell_formula_units_Z            4
_cell_length_a                   9.0753(2)
_cell_length_b                   7.44521(17)
_cell_length_c                   9.4607(2)
_cell_measurement_temperature    296
_cell_volume                     639.24(2)
_computing_structure_refinement  FULLPROF
_diffrn_ambient_temperature      296(2)
_diffrn_measurement_device_type  'Xpert Panaltycal'
_diffrn_radiation_monochromator  graphite
_diffrn_radiation_source         'fine-focus sealed tube'
_diffrn_radiation_type           MoK\a
_diffrn_radiation_wavelength     0.71069
_pd_instr_location               ' ?'
_pd_meas_2theta_range_inc        0.017001
_pd_meas_2theta_range_max        99.99400
_pd_meas_2theta_range_min        5.11700
_pd_meas_number_of_points        5582
_pd_proc_2theta_range_inc        0.017001
_pd_proc_2theta_range_max        99.9307
_pd_proc_2theta_range_min        5.0537
_pd_proc_ls_pref_orient_corr     ' ?'
_pd_proc_ls_prof_R_factor        1.1122
_pd_proc_ls_prof_wR_expected     1.0782
_pd_proc_ls_prof_wR_factor       1.5317
_pd_proc_wavelength              1.540560
_pd_spec_mounting                ' ?'
_refine_ls_goodness_of_fit_all   1.4206
_refine_ls_number_parameters     52
_refine_ls_number_reflns         413
_refine_ls_number_restraints     0
_refine_ls_R_I_factor            4.0239
_cod_data_source_file            c7dt00587c2.cif
_cod_data_source_block           ZnFeF5Htaz
_cod_depositor_comments
;
The following automatic conversions were performed:

'_symmetry_cell_setting' value 'Orthorhombic' changed to
'orthorhombic' according to
/home/data/users/saulius/crontab/automatic-downloads/rss-feeds/RSC/lib/dictionaries/cif_core.dic
dictionary named 'cif_core.dic' version 2.4.2 from 2011-04-26.

Automatic conversion script
Id: cif_fix_values 4973 2017-02-22 13:04:09Z antanas 

 Adding full bibliography for 7042543--7042551.cif.
;
_cod_original_cell_volume        639.24(3)
_cod_database_code               7042543
_pd_proc_ls_prof_cr_factor       11.8900
_pd_proc_ls_prof_cwr_factor      7.2729
_pd_proc_ls_prof_cwr_expected    5.1198
_pd_proc_ls_prof_chi2            2.0180
_pd_proc_ls_prof_echi2           2.1286
loop_
_symmetry_equiv_pos_as_xyz
x,y,z
x+1/2,-y+1/2,-z+1/2
-x+1/2,y,-z+1/2
-x,-y+1/2,z
-x,-y,-z
-x+1/2,y+1/2,z+1/2
x+1/2,-y,z+1/2
x,y+1/2,-z
x+1/2,y+1/2,z+1/2
x,-y,-z
-x,y+1/2,-z
-x+1/2,-y,z+1/2
-x+1/2,-y+1/2,-z+1/2
-x,y,z
x,-y+1/2,z
x+1/2,y,-z+1/2
loop_
_atom_site_label
_atom_site_fract_x
_atom_site_fract_y
_atom_site_fract_z
_atom_site_U_iso_or_equiv
_atom_site_occupancy
_atom_site_adp_type
_atom_site_type_symbol
Zn1 0.75000 0.75000 0.75000 0.0278(5) 0.94000 Uiso Zn
Fe1 0.75000 0.75000 0.75000 0.0278(5) 0.06000 Uiso Fe
Fe2 0.50000 0.50000 0.50000 0.0236(7) 1.00000 Uiso Fe
F1 0.50000 0.75000 0.4240(4) 0.0308(9) 1.00000 Uiso F
F2 0.6476(2) 0.5583(3) 0.63418(19) 0.0308(9) 1.00000 Uiso F
N1 0.9241(4) 0.75000 0.5818(4) 0.01267 1.00000 Uiso N
N2 1.00000 0.75000 0.3686(6) 0.01267 1.00000 Uiso N
C1 0.8778(6) 0.75000 0.4500(5) 0.01267 1.00000 Uiso C
loop_
_atom_type_symbol
_atom_type_description
_atom_type_scat_dispersion_real
_atom_type_scat_dispersion_imag
_atom_type_scat_source
Zn Zn 0.284 1.430 'International Tables Vol C Tables 4.2.6.8 and 6.1.1.4'
Fe Fe 0.346 0.844 'International Tables Vol C Tables 4.2.6.8 and 6.1.1.4'
F F 0.0171 0.0103 'International Tables Vol C Tables 4.2.6.8 and 6.1.1.4'
N N 0.0061 0.0033 'International Tables Vol C Tables 4.2.6.8 and 6.1.1.4'
C C 0.0033 0.0016 'International Tables Vol C Tables 4.2.6.8 and 6.1.1.4'
loop_
_geom_angle_atom_site_label_1
_geom_angle_atom_site_label_2
_geom_angle_atom_site_label_3
_geom_angle
_geom_angle_site_symmetry_1
_geom_angle_site_symmetry_3
F2 Zn1 F2 90.38(13) 1_555 3_656
F2 Zn1 F2 180.00(18) 1_555 13_666
F2 Zn1 F2 89.62(15) 1_555 15_565
F2 Zn1 N1 86.52(18) 1_555 1_555
F2 Zn1 N1 81.50(15) 1_555 2_466
F2 Zn1 N1 93.48(19) 1_555 3_656
F2 Zn1 N1 98.50(16) 1_555 4_765
F2 Zn1 C1 70.90(18) 1_555 1_555
F2 Zn1 C1 109.1(2) 1_555 3_656
F2 Zn1 F2 89.62(15) 3_656 13_666
F2 Zn1 F2 180.00(18) 3_656 15_565
F2 Zn1 N1 93.48(19) 3_656 1_555
F2 Zn1 N1 98.50(16) 3_656 2_466
F2 Zn1 N1 86.52(18) 3_656 3_656
F2 Zn1 N1 81.50(15) 3_656 4_765
F2 Zn1 C1 109.1(2) 3_656 1_555
F2 Zn1 C1 70.90(18) 3_656 3_656
F2 Zn1 F2 90.38(13) 13_666 15_565
F2 Zn1 N1 93.48(19) 13_666 1_555
F2 Zn1 N1 98.50(16) 13_666 2_466
F2 Zn1 N1 86.52(18) 13_666 3_656
F2 Zn1 N1 81.50(15) 13_666 4_765
F2 Zn1 C1 109.1(2) 13_666 1_555
F2 Zn1 C1 70.90(18) 13_666 3_656
F2 Zn1 N1 86.52(18) 15_565 1_555
F2 Zn1 N1 81.50(15) 15_565 2_466
F2 Zn1 N1 93.48(19) 15_565 3_656
F2 Zn1 N1 98.50(16) 15_565 4_765
F2 Zn1 C1 70.90(18) 15_565 1_555
F2 Zn1 C1 109.1(2) 15_565 3_656
N1 Zn1 N1 163.1(2) 1_555 2_466
N1 Zn1 N1 180.0(3) 1_555 3_656
N1 Zn1 C1 157.4(3) 1_555 3_656
N1 Zn1 N1 180.00(20) 2_466 4_765
N1 Zn1 C1 140.5(2) 2_466 1_555
N1 Zn1 N1 163.1(2) 3_656 4_765
N1 Zn1 C1 157.4(3) 3_656 1_555
N1 Zn1 C1 140.5(2) 4_765 3_656
C1 Zn1 C1 180.0(3) 1_555 3_656
F2 Fe1 F2 90.38(13) 1_555 3_656
F2 Fe1 F2 180.00(18) 1_555 13_666
F2 Fe1 F2 89.62(15) 1_555 15_565
F2 Fe1 N1 86.52(18) 1_555 1_555
F2 Fe1 N1 81.50(15) 1_555 2_466
F2 Fe1 N1 93.48(19) 1_555 3_656
F2 Fe1 N1 98.50(16) 1_555 4_765
F2 Fe1 C1 70.90(18) 1_555 1_555
F2 Fe1 C1 109.1(2) 1_555 3_656
F2 Fe1 F2 89.62(15) 3_656 13_666
F2 Fe1 F2 180.00(18) 3_656 15_565
F2 Fe1 N1 93.48(19) 3_656 1_555
F2 Fe1 N1 98.50(16) 3_656 2_466
F2 Fe1 N1 86.52(18) 3_656 3_656
F2 Fe1 N1 81.50(15) 3_656 4_765
F2 Fe1 C1 109.1(2) 3_656 1_555
F2 Fe1 C1 70.90(18) 3_656 3_656
F2 Fe1 F2 90.38(13) 13_666 15_565
F2 Fe1 N1 93.48(19) 13_666 1_555
F2 Fe1 N1 98.50(16) 13_666 2_466
F2 Fe1 N1 86.52(18) 13_666 3_656
F2 Fe1 N1 81.50(15) 13_666 4_765
F2 Fe1 C1 109.1(2) 13_666 1_555
F2 Fe1 C1 70.90(18) 13_666 3_656
F2 Fe1 N1 86.52(18) 15_565 1_555
F2 Fe1 N1 81.50(15) 15_565 2_466
F2 Fe1 N1 93.48(19) 15_565 3_656
F2 Fe1 N1 98.50(16) 15_565 4_765
F2 Fe1 C1 70.90(18) 15_565 1_555
F2 Fe1 C1 109.1(2) 15_565 3_656
N1 Fe1 N1 163.1(2) 1_555 2_466
N1 Fe1 N1 180.0(3) 1_555 3_656
N1 Fe1 C1 157.4(3) 1_555 3_656
N1 Fe1 N1 180.00(20) 2_466 4_765
N1 Fe1 C1 140.5(2) 2_466 1_555
N1 Fe1 N1 163.1(2) 3_656 4_765
N1 Fe1 C1 157.4(3) 3_656 1_555
N1 Fe1 C1 140.5(2) 4_765 3_656
C1 Fe1 C1 180.0(3) 1_555 3_656
F1 Fe2 F1 180.00(12) 1_555 5_666
F1 Fe2 F2 91.59(16) 1_555 1_555
F1 Fe2 F2 88.41(11) 1_555 5_666
F1 Fe2 F2 88.41(11) 1_555 10_566
F1 Fe2 F2 91.59(16) 1_555 14_655
F1 Fe2 F2 88.41(11) 5_666 1_555
F1 Fe2 F2 91.59(16) 5_666 5_666
F1 Fe2 F2 91.59(16) 5_666 10_566
F1 Fe2 F2 88.41(11) 5_666 14_655
F2 Fe2 F2 180.00(18) 1_555 5_666
F2 Fe2 F2 90.09(14) 1_555 10_566
F2 Fe2 F2 89.91(13) 1_555 14_655
F2 Fe2 F2 89.91(13) 5_666 10_566
F2 Fe2 F2 90.09(14) 5_666 14_655
F2 Fe2 F2 180.00(18) 10_566 14_655
Fe2 F1 Fe2 137.76(6) 1_555 4_665
Fe2 F1 F2 102.73(11) 1_555 4_665
Fe2 F1 F2 149.54(12) 1_555 8_556
Fe2 F1 F2 149.54(12) 1_555 11_656
Fe2 F1 F2 102.73(11) 1_555 15_565
Fe2 F1 N2 111.1(3) 1_555 2_465
Fe2 F1 C1 88.52(4) 1_555 1_555
Fe2 F1 C1 88.52(19) 1_555 4_665
Fe2 F1 F2 102.73(11) 4_665 1_555
Fe2 F1 F2 149.54(12) 4_665 5_666
Fe2 F1 F2 149.54(12) 4_665 10_566
Fe2 F1 F2 102.73(11) 4_665 14_655
Fe2 F1 N2 111.1(3) 4_665 2_465
Fe2 F1 C1 88.52(19) 4_665 1_555
Fe2 F1 C1 88.52(19) 4_665 4_665
F2 F1 F2 89.10(13) 1_555 4_665
F2 F1 F2 87.07(11) 1_555 5_666
F2 F1 F2 109.89(13) 1_555 8_556
F2 F1 F2 58.33(10) 1_555 10_566
F2 F1 F2 144.50(14) 1_555 11_656
F2 F1 F2 57.38(11) 1_555 14_655
F2 F1 F2 61.53(12) 1_555 15_565
F2 F1 N2 135.5(3) 1_555 2_465
F2 F1 C1 58.01(15) 1_555 1_555
F2 F1 C1 115.3(2) 1_555 4_665
F2 F1 F2 109.89(13) 4_665 5_666
F2 F1 F2 87.07(11) 4_665 8_556
F2 F1 F2 144.50(14) 4_665 10_566
F2 F1 F2 58.33(10) 4_665 11_656
F2 F1 F2 61.53(12) 4_665 14_655
F2 F1 F2 57.38(11) 4_665 15_565
F2 F1 N2 135.5(3) 4_665 2_465
F2 F1 C1 115.3(2) 4_665 1_555
F2 F1 C1 58.01(15) 4_665 4_665
F2 F1 F2 156.60(14) 5_666 8_556
F2 F1 F2 59.15(9) 5_666 10_566
F2 F1 F2 115.50(13) 5_666 11_656
F2 F1 F2 58.33(10) 5_666 14_655
F2 F1 F2 144.50(14) 5_666 15_565
F2 F1 N2 78.30(19) 5_666 2_465
F2 F1 C1 120.5(2) 5_666 1_555
F2 F1 C1 61.46(13) 5_666 4_665
F2 F1 F2 115.50(13) 8_556 10_566
F2 F1 F2 59.15(9) 8_556 11_656
F2 F1 F2 144.50(14) 8_556 14_655
F2 F1 F2 58.33(10) 8_556 15_565
F2 F1 N2 78.30(19) 8_556 2_465
F2 F1 C1 61.46(13) 8_556 1_555
F2 F1 C1 120.5(2) 8_556 4_665
F2 F1 F2 156.60(14) 10_566 11_656
F2 F1 F2 87.07(11) 10_566 14_655
F2 F1 F2 109.89(13) 10_566 15_565
F2 F1 N2 78.30(19) 10_566 2_465
F2 F1 C1 61.46(13) 10_566 1_555
F2 F1 C1 120.5(2) 10_566 4_665
F2 F1 F2 109.89(13) 11_656 14_655
F2 F1 F2 87.07(11) 11_656 15_565
F2 F1 N2 78.30(19) 11_656 2_465
F2 F1 C1 120.5(2) 11_656 1_555
F2 F1 C1 61.46(13) 11_656 4_665
F2 F1 F2 89.10(13) 14_655 15_565
F2 F1 N2 135.5(3) 14_655 2_465
F2 F1 C1 115.3(2) 14_655 1_555
F2 F1 C1 58.01(15) 14_655 4_665
F2 F1 N2 135.5(3) 15_565 2_465
F2 F1 C1 58.01(15) 15_565 1_555
F2 F1 C1 115.3(2) 15_565 4_665
N2 F1 C1 94.1(2) 2_465 1_555
N2 F1 C1 94.1(2) 2_465 4_665
C1 F1 C1 171.8(3) 1_555 4_665
Zn1 F2 Fe2 147.98(8) 1_555 1_555
Zn1 F2 F1 104.20(15) 1_555 1_555
Zn1 F2 F1 158.79(10) 1_555 5_666
Zn1 F2 F2 137.73(12) 1_555 10_566
Zn1 F2 F2 117.31(11) 1_555 14_655
Zn1 F2 F2 45.19(9) 1_555 15_565
Zn1 F2 N1 49.83(12) 1_555 1_555
Zn1 F2 N1 46.01(12) 1_555 3_656
Zn1 F2 N2 107.35(10) 1_555 6_645
Zn1 F2 C1 70.57(17) 1_555 1_555
Zn1 F2 C1 109.89(14) 1_555 8_546
Fe1 F2 Fe2 147.98(8) 1_555 1_555
Fe1 F2 F1 104.20(15) 1_555 1_555
Fe1 F2 F1 158.79(10) 1_555 5_666
Fe1 F2 F2 137.73(12) 1_555 10_566
Fe1 F2 F2 117.31(11) 1_555 14_655
Fe1 F2 F2 45.19(9) 1_555 15_565
Fe1 F2 N1 49.83(12) 1_555 1_555
Fe1 F2 N1 46.01(12) 1_555 3_656
Fe1 F2 N2 107.35(10) 1_555 6_645
Fe1 F2 C1 70.57(17) 1_555 1_555
Fe1 F2 C1 109.89(14) 1_555 8_546
Fe2 F2 F1 45.63(9) 1_555 1_555
Fe2 F2 F1 47.30(8) 1_555 5_666
Fe2 F2 F2 165.39(12) 1_555 3_656
Fe2 F2 F2 45.04(9) 1_555 14_655
Fe2 F2 F2 103.24(12) 1_555 15_565
Fe2 F2 N1 127.13(17) 1_555 1_555
Fe2 F2 N1 122.38(17) 1_555 3_656
Fe2 F2 N2 90.22(19) 1_555 6_645
Fe2 F2 C1 102.0(2) 1_555 1_555
Fe2 F2 C1 97.5(2) 1_555 8_546
F1 F2 F1 92.93(10) 1_555 5_666
F1 F2 F2 148.65(16) 1_555 3_656
F1 F2 F2 59.41(10) 1_555 10_566
F1 F2 F2 61.31(11) 1_555 14_655
F1 F2 F2 59.23(11) 1_555 15_565
F1 F2 N1 92.38(15) 1_555 1_555
F1 F2 N1 106.28(19) 1_555 3_656
F1 F2 N2 127.59(20) 1_555 6_645
F1 F2 C1 71.62(17) 1_555 1_555
F1 F2 C1 120.15(16) 1_555 8_546
F1 F2 F2 118.29(12) 5_666 3_656
F1 F2 F2 62.26(10) 5_666 10_566
F1 F2 F2 60.43(9) 5_666 14_655
F1 F2 F2 147.75(12) 5_666 15_565
F1 F2 N1 143.19(13) 5_666 1_555
F1 F2 N1 117.38(15) 5_666 3_656
F1 F2 N2 51.55(14) 5_666 6_645
F1 F2 C1 127.84(17) 5_666 1_555
F1 F2 C1 70.46(15) 5_666 8_546
F2 F2 F2 136.19(12) 3_656 10_566
F2 F2 F2 130.30(12) 3_656 14_655
F2 F2 F2 90.00(11) 3_656 15_565
F2 F2 N1 64.84(12) 3_656 1_555
F2 F2 N1 58.44(11) 3_656 3_656
F2 F2 N2 76.21(10) 3_656 6_645
F2 F2 C1 89.58(17) 3_656 1_555
F2 F2 C1 76.58(14) 3_656 8_546
F2 F2 F2 90.00(11) 10_566 14_655
F2 F2 F2 108.88(13) 10_566 15_565
F2 F2 N1 89.86(14) 10_566 1_555
F2 F2 N1 164.92(18) 10_566 3_656
F2 F2 N2 113.06(20) 10_566 6_645
F2 F2 C1 67.27(14) 10_566 1_555
F2 F2 C1 62.16(14) 10_566 8_546
F2 F2 F2 90.00(12) 14_655 15_565
F2 F2 N1 148.95(18) 14_655 1_555
F2 F2 N1 77.93(13) 14_655 3_656
F2 F2 N2 67.23(13) 14_655 6_645
F2 F2 C1 132.8(2) 14_655 1_555
F2 F2 C1 130.7(2) 14_655 8_546
F2 F2 N1 60.84(12) 15_565 1_555
F2 F2 N1 62.70(12) 15_565 3_656
F2 F2 N2 131.54(14) 15_565 6_645
F2 F2 C1 62.32(15) 15_565 1_555
F2 F2 C1 135.75(15) 15_565 8_546
N1 F2 N1 95.84(18) 1_555 3_656
N1 F2 N2 139.73(16) 1_555 6_645
N1 F2 C1 75.43(11) 1_555 8_546
N1 F2 N2 70.73(10) 3_656 6_645
N1 F2 C1 114.8(2) 3_656 1_555
N1 F2 C1 132.81(19) 3_656 8_546
N2 F2 C1 159.2(2) 6_645 1_555
N2 F2 C1 86.36(18) 6_645 8_546
C1 F2 C1 75.43(13) 1_555 8_546
Zn1 N1 Zn1 106.51(11) 1_555 2_566
Zn1 N1 Fe1 106.51(11) 1_555 2_566
Zn1 N1 N1 134.8(3) 1_555 4_765
Zn1 N1 N2 154.1(3) 1_555 1_555
Zn1 N1 C1 116.6(4) 1_555 1_555
Zn1 N1 C1 169.5(3) 1_555 4_765
Zn1 N1 Fe1 106.51(11) 2_566 1_555
Zn1 N1 F2 132.40(11) 2_566 1_555
Zn1 N1 F2 77.00(10) 2_566 3_656
Zn1 N1 F2 77.00(10) 2_566 13_666
Zn1 N1 F2 132.40(11) 2_566 15_565
Zn1 N1 N2 99.4(2) 2_566 1_555
Zn1 N1 C1 136.9(4) 2_566 1_555
Zn1 N1 C1 63.0(2) 2_566 4_765
Fe1 N1 Fe1 106.51(11) 1_555 2_566
Fe1 N1 N1 134.8(3) 1_555 4_765
Fe1 N1 N2 154.1(3) 1_555 1_555
Fe1 N1 C1 116.6(4) 1_555 1_555
Fe1 N1 C1 169.5(3) 1_555 4_765
Fe1 N1 F2 132.40(11) 2_566 1_555
Fe1 N1 F2 77.00(10) 2_566 3_656
Fe1 N1 F2 77.00(10) 2_566 13_666
Fe1 N1 F2 132.40(11) 2_566 15_565
Fe1 N1 N2 99.4(2) 2_566 1_555
Fe1 N1 C1 136.9(4) 2_566 1_555
Fe1 N1 C1 63.0(2) 2_566 4_765
F2 N1 F2 56.72(11) 1_555 3_656
F2 N1 F2 84.16(13) 1_555 13_666
F2 N1 F2 58.32(12) 1_555 15_565
F2 N1 N1 148.9(3) 1_555 4_765
F2 N1 N2 115.9(2) 1_555 1_555
F2 N1 C1 83.5(4) 1_555 1_555
F2 N1 C1 143.2(3) 1_555 4_765
F2 N1 F2 54.61(11) 3_656 13_666
F2 N1 F2 84.16(13) 3_656 15_565
F2 N1 N1 102.1(3) 3_656 4_765
F2 N1 N2 152.2(3) 3_656 1_555
F2 N1 C1 138.7(4) 3_656 1_555
F2 N1 C1 131.6(3) 3_656 4_765
F2 N1 F2 56.72(11) 13_666 15_565
F2 N1 N1 102.1(3) 13_666 4_765
F2 N1 N2 152.2(3) 13_666 1_555
F2 N1 C1 138.7(4) 13_666 1_555
F2 N1 C1 131.6(3) 13_666 4_765
F2 N1 N1 148.9(3) 15_565 4_765
F2 N1 N2 115.9(2) 15_565 1_555
F2 N1 C1 83.5(4) 15_565 1_555
F2 N1 C1 143.2(3) 15_565 4_765
N1 N1 N2 71.1(4) 4_765 1_555
N1 N1 C1 108.6(6) 4_765 1_555
C1 N1 C1 73.9(5) 1_555 4_765
F1 N2 F2 50.16(16) 2_565 6_654
F1 N2 F2 50.16(16) 2_565 7_564
F1 N2 F2 50.16(16) 2_565 9_554
F1 N2 F2 50.16(16) 2_565 12_664
F1 N2 N1 161.1(3) 2_565 1_555
F1 N2 N1 161.1(3) 2_565 4_765
F1 N2 C1 124.8(5) 2_565 1_555
F1 N2 C1 124.8(5) 2_565 4_765
F2 N2 F2 100.31(12) 6_654 7_564
F2 N2 F2 45.53(10) 6_654 9_554
F2 N2 F2 83.08(12) 6_654 12_664
F2 N2 N1 118.8(2) 6_654 1_555
F2 N2 N1 137.0(2) 6_654 4_765
F2 N2 C1 92.7(3) 6_654 1_555
F2 N2 C1 133.1(4) 6_654 4_765
F2 N2 F2 83.08(12) 7_564 9_554
F2 N2 F2 45.53(10) 7_564 12_664
F2 N2 N1 137.0(2) 7_564 1_555
F2 N2 N1 118.8(2) 7_564 4_765
F2 N2 C1 133.1(4) 7_564 1_555
F2 N2 C1 92.7(3) 7_564 4_765
F2 N2 F2 100.31(12) 9_554 12_664
F2 N2 N1 137.0(2) 9_554 1_555
F2 N2 N1 118.8(2) 9_554 4_765
F2 N2 C1 133.1(4) 9_554 1_555
F2 N2 C1 92.7(3) 9_554 4_765
F2 N2 N1 118.8(2) 12_664 1_555
F2 N2 N1 137.0(2) 12_664 4_765
F2 N2 C1 92.7(3) 12_664 1_555
F2 N2 C1 133.1(4) 12_664 4_765
N1 N2 C1 74.1(4) 1_555 4_765
N1 N2 C1 74.1(4) 4_765 1_555
C1 N2 C1 110.4(7) 1_555 4_765
Zn1 C1 F1 71.88(14) 1_555 1_555
Zn1 C1 F2 89.05(13) 1_555 8_556
Zn1 C1 F2 89.05(13) 1_555 10_566
Zn1 C1 N1 77.5(2) 1_555 4_765
Zn1 C1 N2 147.0(4) 1_555 1_555
Zn1 C1 C1 112.2(3) 1_555 4_765
Fe1 C1 F1 71.88(14) 1_555 1_555
Fe1 C1 F2 89.05(13) 1_555 8_556
Fe1 C1 F2 89.05(13) 1_555 10_566
Fe1 C1 N1 77.5(2) 1_555 4_765
Fe1 C1 N2 147.0(4) 1_555 1_555
Fe1 C1 C1 112.2(3) 1_555 4_765
F1 C1 F2 50.38(14) 1_555 1_555
F1 C1 F2 48.08(12) 1_555 8_556
F1 C1 F2 48.08(12) 1_555 10_566
F1 C1 F2 50.38(14) 1_555 15_565
F1 C1 N1 112.7(3) 1_555 1_555
F1 C1 N1 149.4(2) 1_555 4_765
F1 C1 N2 141.1(3) 1_555 1_555
F1 C1 C1 175.9(3) 1_555 4_765
F2 C1 F2 91.74(14) 1_555 8_556
F2 C1 F2 50.57(13) 1_555 10_566
F2 C1 F2 55.37(14) 1_555 15_565
F2 C1 N1 71.3(3) 1_555 1_555
F2 C1 N1 103.6(2) 1_555 4_765
F2 C1 N2 151.90(9) 1_555 1_555
F2 C1 C1 132.8(3) 1_555 4_765
F2 C1 F2 91.51(13) 8_556 10_566
F2 C1 F2 50.57(13) 8_556 15_565
F2 C1 N1 116.3(3) 8_556 1_555
F2 C1 N1 132.6(2) 8_556 4_765
F2 C1 N2 113.2(3) 8_556 1_555
F2 C1 C1 130.7(3) 8_556 4_765
F2 C1 F2 91.74(14) 10_566 15_565
F2 C1 N1 116.3(3) 10_566 1_555
F2 C1 N1 132.6(2) 10_566 4_765
F2 C1 N2 113.2(3) 10_566 1_555
F2 C1 C1 130.7(3) 10_566 4_765
F2 C1 N1 71.3(3) 15_565 1_555
F2 C1 N1 103.6(2) 15_565 4_765
F2 C1 N2 151.9(4) 15_565 1_555
F2 C1 C1 132.8(3) 15_565 4_765
N1 C1 N2 106.2(6) 1_555 1_555
N1 C1 C1 71.4(4) 1_555 4_765
N1 C1 N2 69.5(4) 4_765 1_555
loop_
_geom_bond_atom_site_label_1
_geom_bond_atom_site_label_2
_geom_bond_distance
_geom_bond_site_symmetry_2
Zn1 F2 2.025(2) 1_555
Zn1 F2 2.025(2) 3_656
Zn1 F2 2.025(2) 13_666
Zn1 F2 2.025(2) 15_565
Zn1 N1 2.242(4) 1_555
Zn1 N1 3.359(4) 2_466
Zn1 N1 2.242(4) 3_656
Zn1 N1 3.359(4) 4_765
Zn1 C1 3.066(5) 1_555
Zn1 C1 3.066(5) 3_656
Fe1 F2 2.025(2) 1_555
Fe1 F2 2.025(2) 3_656
Fe1 F2 2.025(2) 13_666
Fe1 F2 2.025(2) 15_565
Fe1 N1 2.242(4) 1_555
Fe1 N1 3.359(4) 2_466
Fe1 N1 2.242(4) 3_656
Fe1 N1 3.359(4) 4_765
Fe1 C1 3.066(5) 1_555
Fe1 C1 3.066(5) 3_656
Fe2 F1 1.9954(14) 1_555
Fe2 F1 1.9954(14) 5_666
Fe2 F2 1.8958(18) 1_555
Fe2 F2 1.8958(18) 5_666
Fe2 F2 1.8958(18) 10_566
Fe2 F2 1.8958(18) 14_655
F1 Fe2 1.9954(14) 1_555
F1 Fe2 1.9954(14) 4_665
F1 F2 2.790(3) 1_555
F1 F2 2.790(3) 4_665
F1 F2 2.714(2) 5_666
F1 F2 2.714(2) 8_556
F1 F2 2.714(2) 10_566
F1 F2 2.714(2) 11_656
F1 F2 2.790(3) 14_655
F1 F2 2.790(3) 15_565
F1 N2 2.768(7) 2_465
F1 C1 3.437(5) 1_555
F1 C1 3.437(5) 4_665
F2 Zn1 2.025(2) 1_555
F2 Fe1 2.025(2) 1_555
F2 Fe2 1.8958(18) 1_555
F2 F1 2.790(3) 1_555
F2 F1 2.714(2) 5_666
F2 F2 2.874(3) 3_656
F2 F2 2.683(3) 10_566
F2 F2 2.679(3) 14_655
F2 F2 2.854(3) 15_565
F2 N1 2.929(4) 1_555
F2 N1 3.111(4) 3_656
F2 N2 3.461(4) 6_645
F2 C1 3.072(5) 1_555
F2 C1 3.204(4) 8_546
N1 Zn1 2.242(4) 1_555
N1 Zn1 3.359(4) 2_566
N1 Fe1 2.242(4) 1_555
N1 Fe1 3.359(4) 2_566
N1 F2 2.929(4) 1_555
N1 F2 3.111(4) 3_656
N1 F2 3.111(4) 13_666
N1 F2 2.929(4) 15_565
N1 N1 1.378(5) 4_765
N1 N2 2.131(7) 1_555
N1 C1 1.316(6) 1_555
N1 C1 2.188(6) 4_765
N2 F1 2.768(7) 2_565
N2 F2 3.461(4) 6_654
N2 F2 3.461(4) 7_564
N2 F2 3.461(4) 9_554
N2 F2 3.461(4) 12_664
N2 N1 2.131(7) 1_555
N2 N1 2.131(7) 4_765
N2 C1 1.350(6) 1_555
N2 C1 1.350(6) 4_765
C1 Zn1 3.066(5) 1_555
C1 Fe1 3.066(5) 1_555
C1 F1 3.437(5) 1_555
C1 F2 3.072(5) 1_555
C1 F2 3.204(4) 8_556
C1 F2 3.204(4) 10_566
C1 F2 3.072(5) 15_565
C1 N1 1.316(6) 1_555
C1 N1 2.188(6) 4_765
C1 N2 1.350(6) 1_555
C1 C1 2.218(8) 4_765
