#------------------------------------------------------------------------------
#$Date: 2017-07-08 13:21:34 +0300 (Sat, 08 Jul 2017) $
#$Revision: 198573 $
#$URL: file:///home/coder/svn-repositories/cod/cif/7/04/35/7043535.cif $
#------------------------------------------------------------------------------
#
# This file is available in the Crystallography Open Database (COD),
# http://www.crystallography.net/
#
# All data on this site have been placed in the public domain by the
# contributors.
#
data_7043535
loop_
_publ_author_name
'Zhang, Jiliang'
'Liu, Yanyan'
'Shek, Chan Hung'
'Wang, Yingmin'
'Bobev, Svilen'
_publ_section_title
;
 On the structures of the rare-earth metal germanides from the series
 REAl1&#x2212;xGe3 (RE = Nd, Sm, Gd, Tb, Dy, Ho; 0.6 &lt; x &lt; 0.9). A
 tale of vacancies at the Al sites and the concomitant structural
 modulations
;
_journal_name_full               'Dalton Trans.'
_journal_paper_doi               10.1039/C7DT01977G
_journal_year                    2017
_chemical_formula_sum            'Al0.26 Gd Ge3'
_chemical_formula_weight         382.03
_chemical_name_systematic
; 
 ? 
;
_space_group_IT_number           65
_symmetry_cell_setting           orthorhombic
_symmetry_space_group_name_Hall  '-C 2 2'
_symmetry_space_group_name_H-M   'C m m m'
_atom_sites_solution_primary     direct
_atom_sites_solution_secondary   difmap
_audit_creation_method           SHELXL-97
_audit_update_record
;
2017-05-15 deposited with the CCDC.
2017-06-15 downloaded from the CCDC.
;
_cell_angle_alpha                90.00
_cell_angle_beta                 90.00
_cell_angle_gamma                90.00
_cell_formula_units_Z            4
_cell_length_a                   4.0031(8)
_cell_length_b                   20.739(4)
_cell_length_c                   4.1624(9)
_cell_measurement_reflns_used    565
_cell_measurement_temperature    200(2)
_cell_measurement_theta_max      26.46
_cell_measurement_theta_min      4.90
_cell_volume                     345.56(12)
_computing_cell_refinement       'Bruker SMART'
_computing_data_collection       'Bruker SMART'
_computing_data_reduction        'Bruker SAINT'
_computing_molecular_graphics    'Bruker SHELXTL'
_computing_publication_material  'Bruker SHELXTL'
_computing_structure_refinement  'SHELXL-97 (Sheldrick, 1997)'
_computing_structure_solution    'SHELXS-97 (Sheldrick, 1990)'
_diffrn_ambient_temperature      200(2)
_diffrn_measured_fraction_theta_full 1.000
_diffrn_measured_fraction_theta_max 1.000
_diffrn_measurement_device_type  'CCD area detector'
_diffrn_measurement_method       'phi and omega scans'
_diffrn_radiation_monochromator  graphite
_diffrn_radiation_source         'fine-focus sealed tube'
_diffrn_radiation_type           MoK\a
_diffrn_radiation_wavelength     0.71073
_diffrn_reflns_av_R_equivalents  0.0443
_diffrn_reflns_av_sigmaI/netI    0.0214
_diffrn_reflns_limit_h_max       5
_diffrn_reflns_limit_h_min       -5
_diffrn_reflns_limit_k_max       25
_diffrn_reflns_limit_k_min       -25
_diffrn_reflns_limit_l_max       5
_diffrn_reflns_limit_l_min       -5
_diffrn_reflns_number            2072
_diffrn_reflns_theta_full        26.37
_diffrn_reflns_theta_max         26.37
_diffrn_reflns_theta_min         1.96
_exptl_absorpt_coefficient_mu    44.565
_exptl_absorpt_correction_T_max  0.5545
_exptl_absorpt_correction_T_min  0.4021
_exptl_absorpt_correction_type   multi-scan
_exptl_absorpt_process_details   SADABS
_exptl_crystal_colour            grey-silver
_exptl_crystal_density_diffrn    7.343
_exptl_crystal_density_method    'not measured'
_exptl_crystal_description       irregular
_exptl_crystal_F_000             654
_exptl_crystal_size_max          0.03
_exptl_crystal_size_mid          0.02
_exptl_crystal_size_min          0.02
_refine_diff_density_max         2.597
_refine_diff_density_min         -2.970
_refine_diff_density_rms         0.378
_refine_ls_extinction_coef       0.0012(2)
_refine_ls_extinction_expression Fc^*^=kFc[1+0.001xFc^2^\l^3^/sin(2\q)]^-1/4^
_refine_ls_extinction_method     SHELXL
_refine_ls_goodness_of_fit_ref   1.904
_refine_ls_matrix_type           full
_refine_ls_number_parameters     23
_refine_ls_number_reflns         235
_refine_ls_number_restraints     21
_refine_ls_restrained_S_all      2.267
_refine_ls_R_factor_all          0.0276
_refine_ls_R_factor_gt           0.0258
_refine_ls_shift/su_max          0.000
_refine_ls_shift/su_mean         0.000
_refine_ls_structure_factor_coef Fsqd
_refine_ls_weighting_details
'calc w=1/[\s^2^(Fo^2^)+(0.0000P)^2^+1.8755P] where P=(Fo^2^+2Fc^2^)/3'
_refine_ls_weighting_scheme      calc
_refine_ls_wR_factor_gt          0.0453
_refine_ls_wR_factor_ref         0.0455
_reflns_number_gt                218
_reflns_number_total             235
_reflns_threshold_expression     >2sigma(I)
_cod_data_source_file            c7dt01977g2.cif
_cod_data_source_block           Gd
_cod_depositor_comments
;
The following automatic conversions were performed:

'_symmetry_cell_setting' value 'Orthorhombic' changed to
'orthorhombic' according to
/home/data/users/saulius/crontab/automatic-downloads/rss-feeds/RSC/lib/dictionaries/cif_core.dic
dictionary named 'cif_core.dic' version 2.4.2 from 2011-04-26.

Automatic conversion script
Id: cif_fix_values 4973 2017-02-22 13:04:09Z antanas 
;
_cod_original_sg_symbol_H-M      Cmmm
_cod_database_code               7043535
loop_
_symmetry_equiv_pos_as_xyz
'x, y, z'
'-x, -y, z'
'-x, y, -z'
'x, -y, -z'
'x+1/2, y+1/2, z'
'-x+1/2, -y+1/2, z'
'-x+1/2, y+1/2, -z'
'x+1/2, -y+1/2, -z'
'-x, -y, -z'
'x, y, -z'
'x, -y, z'
'-x, y, z'
'-x+1/2, -y+1/2, -z'
'x+1/2, y+1/2, -z'
'x+1/2, -y+1/2, z'
'-x+1/2, y+1/2, z'
loop_
_atom_site_label
_atom_site_type_symbol
_atom_site_fract_x
_atom_site_fract_y
_atom_site_fract_z
_atom_site_U_iso_or_equiv
_atom_site_adp_type
_atom_site_occupancy
_atom_site_symmetry_multiplicity
_atom_site_calc_flag
_atom_site_refinement_flags
Gd1 Gd 0.0000 0.33211(4) 0.5000 0.0055(4) Uani 1 4 d SU
Ge1 Ge 0.0000 0.21128(9) 0.0000 0.0088(5) Uani 1 4 d SU
Ge2 Ge 0.5000 0.44168(11) 0.5000 0.0369(8) Uani 1 4 d SU
Ge3 Ge 0.0000 0.44055(11) 0.0000 0.0437(9) Uani 1 4 d SU
Al1 Al 0.5000 0.4022(11) 0.0000 0.047(4) Uani 0.27(2) 4 d SPU
loop_
_atom_site_aniso_label
_atom_site_aniso_U_11
_atom_site_aniso_U_22
_atom_site_aniso_U_33
_atom_site_aniso_U_23
_atom_site_aniso_U_13
_atom_site_aniso_U_12
Gd1 0.0050(5) 0.0060(5) 0.0055(5) 0.000 0.000 0.000
Ge1 0.0057(10) 0.0143(12) 0.0063(11) 0.000 0.000 0.000
Ge2 0.0067(13) 0.0096(13) 0.094(3) 0.000 0.000 0.000
Ge3 0.110(3) 0.0119(14) 0.0089(13) 0.000 0.000 0.000
Al1 0.077(8) 0.002(11) 0.061(8) 0.000 0.000 0.000
loop_
_atom_type_symbol
_atom_type_description
_atom_type_scat_dispersion_real
_atom_type_scat_dispersion_imag
_atom_type_scat_source
Al Al 0.0645 0.0514 'International Tables Vol C Tables 4.2.6.8 and 6.1.1.4'
Ge Ge 0.1547 1.8001 'International Tables Vol C Tables 4.2.6.8 and 6.1.1.4'
Gd Gd -0.1653 3.9035 'International Tables Vol C Tables 4.2.6.8 and 6.1.1.4'
loop_
_geom_angle_atom_site_label_1
_geom_angle_atom_site_label_2
_geom_angle_atom_site_label_3
_geom_angle
_geom_angle_site_symmetry_1
_geom_angle_site_symmetry_3
Ge1 Gd1 Ge1 145.38(8) 13_455 13_556
Ge1 Gd1 Ge1 86.96(3) 13_455 13_456
Ge1 Gd1 Ge1 82.87(3) 13_556 13_456
Ge1 Gd1 Ge1 82.87(3) 13_455 13
Ge1 Gd1 Ge1 86.96(3) 13_556 13
Ge1 Gd1 Ge1 145.38(8) 13_456 13
Ge1 Gd1 Ge2 131.35(4) 13_455 .
Ge1 Gd1 Ge2 77.63(4) 13_556 .
Ge1 Gd1 Ge2 131.35(4) 13_456 .
Ge1 Gd1 Ge2 77.63(4) 13 .
Ge1 Gd1 Ge2 77.63(4) 13_455 1_455
Ge1 Gd1 Ge2 131.35(4) 13_556 1_455
Ge1 Gd1 Ge2 77.63(4) 13_456 1_455
Ge1 Gd1 Ge2 131.35(4) 13 1_455
Ge2 Gd1 Ge2 82.75(6) . 1_455
Ge1 Gd1 Ge3 133.29(4) 13_455 1_556
Ge1 Gd1 Ge3 75.58(4) 13_556 1_556
Ge1 Gd1 Ge3 75.58(4) 13_456 1_556
Ge1 Gd1 Ge3 133.29(4) 13 1_556
Ge2 Gd1 Ge3 56.58(3) . 1_556
Ge2 Gd1 Ge3 56.58(3) 1_455 1_556
Ge1 Gd1 Ge3 75.58(4) 13_455 .
Ge1 Gd1 Ge3 133.29(4) 13_556 .
Ge1 Gd1 Ge3 133.29(4) 13_456 .
Ge1 Gd1 Ge3 75.58(4) 13 .
Ge2 Gd1 Ge3 56.58(3) . .
Ge2 Gd1 Ge3 56.58(3) 1_455 .
Ge3 Gd1 Ge3 85.56(7) 1_556 .
Ge1 Gd1 Al1 170.6(4) 13_455 1_556
Ge1 Gd1 Al1 44.0(4) 13_556 1_556
Ge1 Gd1 Al1 95.77(11) 13_456 1_556
Ge1 Gd1 Al1 99.62(10) 13 1_556
Ge2 Gd1 Al1 41.7(3) . 1_556
Ge2 Gd1 Al1 94.1(3) 1_455 1_556
Ge3 Gd1 Al1 39.9(3) 1_556 1_556
Ge3 Gd1 Al1 96.2(3) . 1_556
Ge1 Gd1 Al1 44.0(4) 13_455 1_455
Ge1 Gd1 Al1 170.6(4) 13_556 1_455
Ge1 Gd1 Al1 99.62(10) 13_456 1_455
Ge1 Gd1 Al1 95.77(11) 13 1_455
Ge2 Gd1 Al1 94.1(3) . 1_455
Ge2 Gd1 Al1 41.7(3) 1_455 1_455
Ge3 Gd1 Al1 96.2(3) 1_556 1_455
Ge3 Gd1 Al1 39.9(3) . 1_455
Al1 Gd1 Al1 126.6(7) 1_556 1_455
Ge1 Gd1 Al1 99.62(10) 13_455 1_456
Ge1 Gd1 Al1 95.77(11) 13_556 1_456
Ge1 Gd1 Al1 44.0(4) 13_456 1_456
Ge1 Gd1 Al1 170.6(4) 13 1_456
Ge2 Gd1 Al1 94.1(3) . 1_456
Ge2 Gd1 Al1 41.7(3) 1_455 1_456
Ge3 Gd1 Al1 39.9(3) 1_556 1_456
Ge3 Gd1 Al1 96.2(3) . 1_456
Al1 Gd1 Al1 76.5(3) 1_556 1_456
Al1 Gd1 Al1 80.1(3) 1_455 1_456
Ge1 Gd1 Al1 95.77(11) 13_455 .
Ge1 Gd1 Al1 99.62(10) 13_556 .
Ge1 Gd1 Al1 170.6(4) 13_456 .
Ge1 Gd1 Al1 44.0(4) 13 .
Ge2 Gd1 Al1 41.7(3) . .
Ge2 Gd1 Al1 94.1(3) 1_455 .
Ge3 Gd1 Al1 96.2(3) 1_556 .
Ge3 Gd1 Al1 39.9(3) . .
Al1 Gd1 Al1 80.1(3) 1_556 .
Al1 Gd1 Al1 76.5(3) 1_455 .
Al1 Gd1 Al1 126.6(7) 1_456 .
Al1 Ge1 Ge1 128.74(7) 13 13
Al1 Ge1 Ge1 128.74(7) 13 13_455
Ge1 Ge1 Ge1 102.51(14) 13 13_455
Al1 Ge1 Gd1 72.69(4) 13 13_455
Ge1 Ge1 Gd1 134.62(4) 13 13_455
Ge1 Ge1 Gd1 70.73(2) 13_455 13_455
Al1 Ge1 Gd1 72.69(4) 13 13_556
Ge1 Ge1 Gd1 70.73(2) 13 13_556
Ge1 Ge1 Gd1 134.62(4) 13_455 13_556
Gd1 Ge1 Gd1 145.38(8) 13_455 13_556
Al1 Ge1 Gd1 72.69(4) 13 13
Ge1 Ge1 Gd1 70.73(2) 13 13
Ge1 Ge1 Gd1 134.62(4) 13_455 13
Gd1 Ge1 Gd1 82.87(3) 13_455 13
Gd1 Ge1 Gd1 86.96(3) 13_556 13
Al1 Ge1 Gd1 72.69(4) 13 13_456
Ge1 Ge1 Gd1 134.62(4) 13 13_456
Ge1 Ge1 Gd1 70.73(2) 13_455 13_456
Gd1 Ge1 Gd1 86.96(3) 13_455 13_456
Gd1 Ge1 Gd1 82.87(3) 13_556 13_456
Gd1 Ge1 Gd1 145.38(8) 13 13_456
Al1 Ge1 Gd1 140.29(3) 13 .
Ge1 Ge1 Gd1 61.22(6) 13 .
Ge1 Ge1 Gd1 61.22(6) 13_455 .
Gd1 Ge1 Gd1 131.95(4) 13_455 .
Gd1 Ge1 Gd1 77.83(3) 13_556 .
Gd1 Ge1 Gd1 131.95(4) 13 .
Gd1 Ge1 Gd1 77.83(3) 13_456 .
Al1 Ge1 Gd1 140.29(3) 13 1_554
Ge1 Ge1 Gd1 61.22(6) 13 1_554
Ge1 Ge1 Gd1 61.22(6) 13_455 1_554
Gd1 Ge1 Gd1 77.83(3) 13_455 1_554
Gd1 Ge1 Gd1 131.95(4) 13_556 1_554
Gd1 Ge1 Gd1 77.83(3) 13 1_554
Gd1 Ge1 Gd1 131.95(4) 13_456 1_554
Gd1 Ge1 Gd1 79.42(5) . 1_554
Al1 Ge2 Al1 137.1(11) . 1_556
Al1 Ge2 Ge2 111.5(6) . 9_666
Al1 Ge2 Ge2 111.5(6) 1_556 9_666
Al1 Ge2 Ge3 47.6(2) . .
Al1 Ge2 Ge3 131.9(2) 1_556 .
Ge2 Ge2 Ge3 90.47(6) 9_666 .
Al1 Ge2 Ge3 131.9(2) . 1_656
Al1 Ge2 Ge3 47.6(2) 1_556 1_656
Ge2 Ge2 Ge3 90.47(6) 9_666 1_656
Ge3 Ge2 Ge3 179.07(12) . 1_656
Al1 Ge2 Ge3 131.9(2) . 1_556
Al1 Ge2 Ge3 47.6(2) 1_556 1_556
Ge2 Ge2 Ge3 90.47(6) 9_666 1_556
Ge3 Ge2 Ge3 92.231(17) . 1_556
Ge3 Ge2 Ge3 87.761(17) 1_656 1_556
Al1 Ge2 Ge3 47.6(2) . 1_655
Al1 Ge2 Ge3 131.9(2) 1_556 1_655
Ge2 Ge2 Ge3 90.47(6) 9_666 1_655
Ge3 Ge2 Ge3 87.761(17) . 1_655
Ge3 Ge2 Ge3 92.231(17) 1_656 1_655
Ge3 Ge2 Ge3 179.07(12) 1_556 1_655
Al1 Ge2 Gd1 74.1(4) . .
Al1 Ge2 Gd1 74.1(4) 1_556 .
Ge2 Ge2 Gd1 138.63(3) 9_666 .
Ge3 Ge2 Gd1 62.34(4) . .
Ge3 Ge2 Gd1 116.88(7) 1_656 .
Ge3 Ge2 Gd1 62.34(4) 1_556 .
Ge3 Ge2 Gd1 116.88(7) 1_655 .
Al1 Ge2 Gd1 74.1(4) . 1_655
Al1 Ge2 Gd1 74.1(4) 1_556 1_655
Ge2 Ge2 Gd1 138.63(3) 9_666 1_655
Ge3 Ge2 Gd1 116.88(7) . 1_655
Ge3 Ge2 Gd1 62.34(4) 1_656 1_655
Ge3 Ge2 Gd1 116.88(7) 1_556 1_655
Ge3 Ge2 Gd1 62.34(4) 1_655 1_655
Gd1 Ge2 Gd1 82.75(6) . 1_655
Al1 Ge3 Al1 136.7(12) 1_455 .
Al1 Ge3 Ge3 111.7(6) 1_455 9_565
Al1 Ge3 Ge3 111.7(6) . 9_565
Al1 Ge3 Ge2 130.33(19) 1_455 .
Al1 Ge3 Ge2 50.1(2) . .
Ge3 Ge3 Ge2 89.53(6) 9_565 .
Al1 Ge3 Ge2 50.1(2) 1_455 1_454
Al1 Ge3 Ge2 130.33(19) . 1_454
Ge3 Ge3 Ge2 89.53(6) 9_565 1_454
Ge2 Ge3 Ge2 179.07(12) . 1_454
Al1 Ge3 Ge2 50.1(2) 1_455 1_455
Al1 Ge3 Ge2 130.33(19) . 1_455
Ge3 Ge3 Ge2 89.53(6) 9_565 1_455
Ge2 Ge3 Ge2 87.761(17) . 1_455
Ge2 Ge3 Ge2 92.231(17) 1_454 1_455
Al1 Ge3 Ge2 130.33(19) 1_455 1_554
Al1 Ge3 Ge2 50.1(2) . 1_554
Ge3 Ge3 Ge2 89.53(6) 9_565 1_554
Ge2 Ge3 Ge2 92.231(17) . 1_554
Ge2 Ge3 Ge2 87.761(17) 1_454 1_554
Ge2 Ge3 Ge2 179.07(12) 1_455 1_554
Al1 Ge3 Gd1 74.3(4) 1_455 1_554
Al1 Ge3 Gd1 74.3(4) . 1_554
Ge3 Ge3 Gd1 137.22(3) 9_565 1_554
Ge2 Ge3 Gd1 119.70(7) . 1_554
Ge2 Ge3 Gd1 61.08(4) 1_454 1_554
Ge2 Ge3 Gd1 119.70(7) 1_455 1_554
Ge2 Ge3 Gd1 61.08(4) 1_554 1_554
Al1 Ge3 Gd1 74.3(4) 1_455 .
Al1 Ge3 Gd1 74.3(4) . .
Ge3 Ge3 Gd1 137.22(3) 9_565 .
Ge2 Ge3 Gd1 61.08(4) . .
Ge2 Ge3 Gd1 119.70(7) 1_454 .
Ge2 Ge3 Gd1 61.08(4) 1_455 .
Ge2 Ge3 Gd1 119.70(7) 1_554 .
Gd1 Ge3 Gd1 85.56(7) 1_554 .
Ge3 Al1 Ge3 136.7(12) 1_655 .
Ge3 Al1 Ge2 82.2(4) 1_655 .
Ge3 Al1 Ge2 82.2(4) . .
Ge3 Al1 Ge2 82.2(4) 1_655 1_554
Ge3 Al1 Ge2 82.2(4) . 1_554
Ge2 Al1 Ge2 137.1(11) . 1_554
Ge3 Al1 Ge1 111.7(6) 1_655 13
Ge3 Al1 Ge1 111.7(6) . 13
Ge2 Al1 Ge1 111.5(6) . 13
Ge2 Al1 Ge1 111.5(6) 1_554 13
Ge3 Al1 Gd1 137.85(15) 1_655 1_554
Ge3 Al1 Gd1 65.84(17) . 1_554
Ge2 Al1 Gd1 139.79(15) . 1_554
Ge2 Al1 Gd1 64.25(16) 1_554 1_554
Ge1 Al1 Gd1 63.3(4) 13 1_554
Ge3 Al1 Gd1 137.85(15) 1_655 .
Ge3 Al1 Gd1 65.84(17) . .
Ge2 Al1 Gd1 64.25(16) . .
Ge2 Al1 Gd1 139.79(15) 1_554 .
Ge1 Al1 Gd1 63.3(4) 13 .
Gd1 Al1 Gd1 80.1(3) 1_554 .
Ge3 Al1 Gd1 65.84(17) 1_655 1_655
Ge3 Al1 Gd1 137.85(15) . 1_655
Ge2 Al1 Gd1 64.25(16) . 1_655
Ge2 Al1 Gd1 139.79(15) 1_554 1_655
Ge1 Al1 Gd1 63.3(4) 13 1_655
Gd1 Al1 Gd1 126.6(7) 1_554 1_655
Gd1 Al1 Gd1 76.5(3) . 1_655
Ge3 Al1 Gd1 65.84(17) 1_655 1_654
Ge3 Al1 Gd1 137.85(15) . 1_654
Ge2 Al1 Gd1 139.79(15) . 1_654
Ge2 Al1 Gd1 64.25(16) 1_554 1_654
Ge1 Al1 Gd1 63.3(4) 13 1_654
Gd1 Al1 Gd1 76.5(3) 1_554 1_654
Gd1 Al1 Gd1 126.6(7) . 1_654
Gd1 Al1 Gd1 80.1(3) 1_655 1_654
loop_
_geom_bond_atom_site_label_1
_geom_bond_atom_site_label_2
_geom_bond_distance
_geom_bond_site_symmetry_2
Gd1 Ge1 3.0244(8) 13_455
Gd1 Ge1 3.0244(8) 13_556
Gd1 Ge1 3.0244(8) 13_456
Gd1 Ge1 3.0244(8) 13
Gd1 Ge2 3.0282(19) .
Gd1 Ge2 3.0282(19) 1_455
Gd1 Ge3 3.0642(19) 1_556
Gd1 Ge3 3.0642(19) .
Gd1 Al1 3.233(11) 1_556
Gd1 Al1 3.233(11) 1_455
Gd1 Al1 3.233(11) 1_456
Gd1 Al1 3.233(11) .
Ge1 Al1 2.35(2) 13
Ge1 Ge1 2.566(2) 13
Ge1 Ge1 2.566(2) 13_455
Ge1 Gd1 3.0244(8) 13_455
Ge1 Gd1 3.0244(8) 13_556
Ge1 Gd1 3.0244(8) 13
Ge1 Gd1 3.0244(8) 13_456
Ge1 Gd1 3.2574(17) 1_554
Ge2 Al1 2.236(9) .
Ge2 Al1 2.236(9) 1_556
Ge2 Ge2 2.419(5) 9_666
Ge2 Ge3 2.8876(4) .
Ge2 Ge3 2.8876(4) 1_656
Ge2 Ge3 2.8876(4) 1_556
Ge2 Ge3 2.8876(4) 1_655
Ge2 Gd1 3.0282(19) 1_655
Ge3 Al1 2.154(9) 1_455
Ge3 Al1 2.154(9) .
Ge3 Ge3 2.466(5) 9_565
Ge3 Ge2 2.8876(4) 1_454
Ge3 Ge2 2.8876(4) 1_455
Ge3 Ge2 2.8876(4) 1_554
Ge3 Gd1 3.0642(19) 1_554
Al1 Ge3 2.154(9) 1_655
Al1 Ge2 2.236(9) 1_554
Al1 Ge1 2.35(2) 13
Al1 Gd1 3.233(11) 1_554
Al1 Gd1 3.233(11) 1_655
Al1 Gd1 3.233(11) 1_654
