#------------------------------------------------------------------------------
#$Date: 2017-07-08 13:21:34 +0300 (Sat, 08 Jul 2017) $
#$Revision: 198573 $
#$URL: file:///home/coder/svn-repositories/cod/cif/7/04/35/7043540.cif $
#------------------------------------------------------------------------------
#
# This file is available in the Crystallography Open Database (COD),
# http://www.crystallography.net/
#
# All data on this site have been placed in the public domain by the
# contributors.
#
data_7043540
loop_
_publ_author_name
'Zhang, Jiliang'
'Liu, Yanyan'
'Shek, Chan Hung'
'Wang, Yingmin'
'Bobev, Svilen'
_publ_section_title
;
 On the structures of the rare-earth metal germanides from the series
 REAl1&#x2212;xGe3 (RE = Nd, Sm, Gd, Tb, Dy, Ho; 0.6 &lt; x &lt; 0.9). A
 tale of vacancies at the Al sites and the concomitant structural
 modulations
;
_journal_name_full               'Dalton Trans.'
_journal_paper_doi               10.1039/C7DT01977G
_journal_year                    2017
_chemical_formula_sum            'Al0.17 Ge3 Ho'
_chemical_formula_weight         387.42
_chemical_name_systematic
; 
 ? 
;
_space_group_IT_number           65
_symmetry_cell_setting           orthorhombic
_symmetry_space_group_name_Hall  '-C 2 2'
_symmetry_space_group_name_H-M   'C m m m'
_atom_sites_solution_primary     direct
_atom_sites_solution_secondary   difmap
_audit_creation_method           SHELXL-97
_audit_update_record
;
2017-05-15 deposited with the CCDC.
2017-06-15 downloaded from the CCDC.
;
_cell_angle_alpha                90.00
_cell_angle_beta                 90.00
_cell_angle_gamma                90.00
_cell_formula_units_Z            4
_cell_length_a                   3.9484(10)
_cell_length_b                   20.541(5)
_cell_length_c                   4.0871(10)
_cell_measurement_reflns_used    1171
_cell_measurement_temperature    200(2)
_cell_measurement_theta_max      30.45
_cell_measurement_theta_min      3.97
_cell_volume                     331.48(14)
_computing_cell_refinement       'Bruker SMART'
_computing_data_collection       'Bruker SMART'
_computing_data_reduction        'Bruker SAINT'
_computing_molecular_graphics    'Bruker SHELXTL'
_computing_publication_material  'Bruker SHELXTL'
_computing_structure_refinement  'SHELXL-97 (Sheldrick, 1997)'
_computing_structure_solution    'SHELXS-97 (Sheldrick, 1990)'
_diffrn_ambient_temperature      200(2)
_diffrn_measured_fraction_theta_full 1.000
_diffrn_measured_fraction_theta_max 1.000
_diffrn_measurement_device_type  'CCD area detector'
_diffrn_measurement_method       'phi and omega scans'
_diffrn_radiation_monochromator  graphite
_diffrn_radiation_source         'fine-focus sealed tube'
_diffrn_radiation_type           MoK\a
_diffrn_radiation_wavelength     0.71073
_diffrn_reflns_av_R_equivalents  0.0242
_diffrn_reflns_av_sigmaI/netI    0.0119
_diffrn_reflns_limit_h_max       4
_diffrn_reflns_limit_h_min       -4
_diffrn_reflns_limit_k_max       25
_diffrn_reflns_limit_k_min       -25
_diffrn_reflns_limit_l_max       5
_diffrn_reflns_limit_l_min       -5
_diffrn_reflns_number            1961
_diffrn_reflns_theta_full        26.33
_diffrn_reflns_theta_max         26.33
_diffrn_reflns_theta_min         1.98
_exptl_absorpt_coefficient_mu    50.295
_exptl_absorpt_correction_T_max  0.5192
_exptl_absorpt_correction_T_min  0.2382
_exptl_absorpt_correction_type   multi-scan
_exptl_absorpt_process_details   SADABS
_exptl_crystal_colour            grey-silver
_exptl_crystal_density_diffrn    7.763
_exptl_crystal_density_method    'not measured'
_exptl_crystal_description       irregular
_exptl_crystal_F_000             661
_exptl_crystal_size_max          0.04
_exptl_crystal_size_mid          0.04
_exptl_crystal_size_min          0.02
_refine_diff_density_max         1.701
_refine_diff_density_min         -2.121
_refine_diff_density_rms         0.289
_refine_ls_extinction_coef       0.00035(18)
_refine_ls_extinction_expression Fc^*^=kFc[1+0.001xFc^2^\l^3^/sin(2\q)]^-1/4^
_refine_ls_extinction_method     SHELXL
_refine_ls_goodness_of_fit_ref   1.173
_refine_ls_matrix_type           full
_refine_ls_number_parameters     23
_refine_ls_number_reflns         225
_refine_ls_number_restraints     21
_refine_ls_restrained_S_all      1.248
_refine_ls_R_factor_all          0.0211
_refine_ls_R_factor_gt           0.0196
_refine_ls_shift/su_max          0.004
_refine_ls_shift/su_mean         0.003
_refine_ls_structure_factor_coef Fsqd
_refine_ls_weighting_details
'calc w=1/[\s^2^(Fo^2^)+(0.0180P)^2^+12.0361P] where P=(Fo^2^+2Fc^2^)/3'
_refine_ls_weighting_scheme      calc
_refine_ls_wR_factor_gt          0.0450
_refine_ls_wR_factor_ref         0.0456
_reflns_number_gt                217
_reflns_number_total             225
_reflns_threshold_expression     >2sigma(I)
_cod_data_source_file            c7dt01977g2.cif
_cod_data_source_block           Ho
_cod_depositor_comments
;
The following automatic conversions were performed:

'_symmetry_cell_setting' value 'Orthorhombic' changed to
'orthorhombic' according to
/home/data/users/saulius/crontab/automatic-downloads/rss-feeds/RSC/lib/dictionaries/cif_core.dic
dictionary named 'cif_core.dic' version 2.4.2 from 2011-04-26.

Automatic conversion script
Id: cif_fix_values 4973 2017-02-22 13:04:09Z antanas 
;
_cod_original_sg_symbol_H-M      Cmmm
_cod_database_code               7043540
loop_
_symmetry_equiv_pos_as_xyz
'x, y, z'
'-x, -y, z'
'-x, y, -z'
'x, -y, -z'
'x+1/2, y+1/2, z'
'-x+1/2, -y+1/2, z'
'-x+1/2, y+1/2, -z'
'x+1/2, -y+1/2, -z'
'-x, -y, -z'
'x, y, -z'
'x, -y, z'
'-x, y, z'
'-x+1/2, -y+1/2, -z'
'x+1/2, y+1/2, -z'
'x+1/2, -y+1/2, z'
'-x+1/2, y+1/2, z'
loop_
_atom_site_label
_atom_site_type_symbol
_atom_site_fract_x
_atom_site_fract_y
_atom_site_fract_z
_atom_site_U_iso_or_equiv
_atom_site_adp_type
_atom_site_occupancy
_atom_site_symmetry_multiplicity
_atom_site_calc_flag
_atom_site_refinement_flags
Ho1 Ho 0.0000 0.33161(3) 0.5000 0.0055(3) Uani 1 4 d SU
Ge1 Ge 0.0000 0.21034(7) 0.0000 0.0080(4) Uani 1 4 d SU
Ge2 Ge 0.5000 0.44045(8) 0.5000 0.0277(5) Uani 1 4 d SU
Ge3 Ge 0.0000 0.43960(8) 0.0000 0.0310(5) Uani 1 4 d SU
Al1 Al 0.5000 0.4040(14) 0.0000 0.034(4) Uani 0.164(17) 4 d SPU
loop_
_atom_site_aniso_label
_atom_site_aniso_U_11
_atom_site_aniso_U_22
_atom_site_aniso_U_33
_atom_site_aniso_U_23
_atom_site_aniso_U_13
_atom_site_aniso_U_12
Ho1 0.0043(4) 0.0065(4) 0.0056(4) 0.000 0.000 0.000
Ge1 0.0045(7) 0.0132(8) 0.0062(7) 0.000 0.000 0.000
Ge2 0.0088(8) 0.0075(8) 0.0668(14) 0.000 0.000 0.000
Ge3 0.0734(16) 0.0097(8) 0.0099(8) 0.000 0.000 0.000
Al1 0.054(7) 0.001(11) 0.048(7) 0.000 0.000 0.000
loop_
_atom_type_symbol
_atom_type_description
_atom_type_scat_dispersion_real
_atom_type_scat_dispersion_imag
_atom_type_scat_source
Al Al 0.0645 0.0514 'International Tables Vol C Tables 4.2.6.8 and 6.1.1.4'
Ge Ge 0.1547 1.8001 'International Tables Vol C Tables 4.2.6.8 and 6.1.1.4'
Ho Ho -0.2175 4.6783 'International Tables Vol C Tables 4.2.6.8 and 6.1.1.4'
loop_
_geom_angle_atom_site_label_1
_geom_angle_atom_site_label_2
_geom_angle_atom_site_label_3
_geom_angle
_geom_angle_site_symmetry_1
_geom_angle_site_symmetry_3
Ge1 Ho1 Ge1 146.26(6) 13_455 13_556
Ge1 Ho1 Ge1 86.98(3) 13_455 13_456
Ge1 Ho1 Ge1 83.35(2) 13_556 13_456
Ge1 Ho1 Ge1 83.35(2) 13_455 13
Ge1 Ho1 Ge1 86.98(3) 13_556 13
Ge1 Ho1 Ge1 146.26(6) 13_456 13
Ge1 Ho1 Ge2 131.12(3) 13_455 .
Ge1 Ho1 Ge2 77.14(3) 13_556 .
Ge1 Ho1 Ge2 131.12(3) 13_456 .
Ge1 Ho1 Ge2 77.14(3) 13 .
Ge1 Ho1 Ge2 77.14(3) 13_455 1_455
Ge1 Ho1 Ge2 131.12(3) 13_556 1_455
Ge1 Ho1 Ge2 77.14(3) 13_456 1_455
Ge1 Ho1 Ge2 131.12(3) 13 1_455
Ge2 Ho1 Ge2 82.89(5) . 1_455
Ge1 Ho1 Ge3 132.83(3) 13_455 1_556
Ge1 Ho1 Ge3 75.35(3) 13_556 1_556
Ge1 Ho1 Ge3 75.35(3) 13_456 1_556
Ge1 Ho1 Ge3 132.83(3) 13 1_556
Ge2 Ho1 Ge3 56.54(2) . 1_556
Ge2 Ho1 Ge3 56.54(2) 1_455 1_556
Ge1 Ho1 Ge3 75.35(3) 13_455 .
Ge1 Ho1 Ge3 132.83(3) 13_556 .
Ge1 Ho1 Ge3 132.83(3) 13_456 .
Ge1 Ho1 Ge3 75.35(3) 13 .
Ge2 Ho1 Ge3 56.54(2) . .
Ge2 Ho1 Ge3 56.54(2) 1_455 .
Ge3 Ho1 Ge3 85.31(5) 1_556 .
Ge1 Ho1 Al1 169.2(4) 13_455 1_556
Ge1 Ho1 Al1 44.5(4) 13_556 1_556
Ge1 Ho1 Al1 96.05(12) 13_456 1_556
Ge1 Ho1 Al1 99.43(11) 13 1_556
Ge2 Ho1 Al1 41.0(3) . 1_556
Ge2 Ho1 Al1 93.4(4) 1_455 1_556
Ge3 Ho1 Al1 39.4(3) 1_556 1_556
Ge3 Ho1 Al1 95.2(4) . 1_556
Ge1 Ho1 Al1 44.5(4) 13_455 1_455
Ge1 Ho1 Al1 169.2(4) 13_556 1_455
Ge1 Ho1 Al1 99.43(11) 13_456 1_455
Ge1 Ho1 Al1 96.05(12) 13 1_455
Ge2 Ho1 Al1 93.4(4) . 1_455
Ge2 Ho1 Al1 41.0(3) 1_455 1_455
Ge3 Ho1 Al1 95.2(4) 1_556 1_455
Ge3 Ho1 Al1 39.4(3) . 1_455
Al1 Ho1 Al1 124.7(9) 1_556 1_455
Ge1 Ho1 Al1 99.43(11) 13_455 1_456
Ge1 Ho1 Al1 96.05(12) 13_556 1_456
Ge1 Ho1 Al1 44.5(4) 13_456 1_456
Ge1 Ho1 Al1 169.2(4) 13 1_456
Ge2 Ho1 Al1 93.4(4) . 1_456
Ge2 Ho1 Al1 41.0(3) 1_455 1_456
Ge3 Ho1 Al1 39.4(3) 1_556 1_456
Ge3 Ho1 Al1 95.2(4) . 1_456
Al1 Ho1 Al1 76.0(4) 1_556 1_456
Al1 Ho1 Al1 79.2(4) 1_455 1_456
Ge1 Ho1 Al1 96.05(12) 13_455 .
Ge1 Ho1 Al1 99.43(11) 13_556 .
Ge1 Ho1 Al1 169.2(4) 13_456 .
Ge1 Ho1 Al1 44.5(4) 13 .
Ge2 Ho1 Al1 41.0(3) . .
Ge2 Ho1 Al1 93.4(4) 1_455 .
Ge3 Ho1 Al1 95.2(4) 1_556 .
Ge3 Ho1 Al1 39.4(3) . .
Al1 Ho1 Al1 79.2(4) 1_556 .
Al1 Ho1 Al1 76.0(4) 1_455 .
Al1 Ho1 Al1 124.7(9) 1_456 .
Al1 Ge1 Ge1 129.53(5) 13 13
Al1 Ge1 Ge1 129.53(5) 13 13_455
Ge1 Ge1 Ge1 100.93(10) 13 13_455
Al1 Ge1 Ho1 73.13(3) 13 13_455
Ge1 Ge1 Ho1 134.23(3) 13 13_455
Ge1 Ge1 Ho1 70.85(2) 13_455 13_455
Al1 Ge1 Ho1 73.13(3) 13 13_556
Ge1 Ge1 Ho1 70.85(2) 13 13_556
Ge1 Ge1 Ho1 134.23(3) 13_455 13_556
Ho1 Ge1 Ho1 146.26(6) 13_455 13_556
Al1 Ge1 Ho1 73.13(3) 13 13
Ge1 Ge1 Ho1 70.85(2) 13 13
Ge1 Ge1 Ho1 134.23(3) 13_455 13
Ho1 Ge1 Ho1 83.35(2) 13_455 13
Ho1 Ge1 Ho1 86.98(3) 13_556 13
Al1 Ge1 Ho1 73.13(3) 13 13_456
Ge1 Ge1 Ho1 134.23(3) 13 13_456
Ge1 Ge1 Ho1 70.85(2) 13_455 13_456
Ho1 Ge1 Ho1 86.98(3) 13_455 13_456
Ho1 Ge1 Ho1 83.35(2) 13_556 13_456
Ho1 Ge1 Ho1 146.26(6) 13 13_456
Al1 Ge1 Ho1 140.64(2) 13 .
Ge1 Ge1 Ho1 60.52(4) 13 .
Ge1 Ge1 Ho1 60.52(4) 13_455 .
Ho1 Ge1 Ho1 131.37(3) 13_455 .
Ho1 Ge1 Ho1 77.75(2) 13_556 .
Ho1 Ge1 Ho1 131.37(3) 13 .
Ho1 Ge1 Ho1 77.75(2) 13_456 .
Al1 Ge1 Ho1 140.64(2) 13 1_554
Ge1 Ge1 Ho1 60.52(4) 13 1_554
Ge1 Ge1 Ho1 60.52(4) 13_455 1_554
Ho1 Ge1 Ho1 77.75(2) 13_455 1_554
Ho1 Ge1 Ho1 131.37(3) 13_556 1_554
Ho1 Ge1 Ho1 77.75(2) 13 1_554
Ho1 Ge1 Ho1 131.37(3) 13_456 1_554
Ho1 Ge1 Ho1 78.73(4) . 1_554
Al1 Ge2 Al1 139.8(14) . 1_556
Al1 Ge2 Ge2 110.1(7) . 9_666
Al1 Ge2 Ge2 110.1(7) 1_556 9_666
Al1 Ge2 Ge3 47.4(2) . .
Al1 Ge2 Ge3 132.3(2) 1_556 .
Ge2 Ge2 Ge3 90.36(5) 9_666 .
Al1 Ge2 Ge3 132.3(2) . 1_656
Al1 Ge2 Ge3 47.4(2) 1_556 1_656
Ge2 Ge2 Ge3 90.36(5) 9_666 1_656
Ge3 Ge2 Ge3 179.29(10) . 1_656
Al1 Ge2 Ge3 132.3(2) . 1_556
Al1 Ge2 Ge3 47.4(2) 1_556 1_556
Ge2 Ge2 Ge3 90.36(5) 9_666 1_556
Ge3 Ge2 Ge3 91.98(2) . 1_556
Ge3 Ge2 Ge3 88.02(2) 1_656 1_556
Al1 Ge2 Ge3 47.4(2) . 1_655
Al1 Ge2 Ge3 132.3(2) 1_556 1_655
Ge2 Ge2 Ge3 90.36(5) 9_666 1_655
Ge3 Ge2 Ge3 88.02(2) . 1_655
Ge3 Ge2 Ge3 91.98(2) 1_656 1_655
Ge3 Ge2 Ge3 179.29(10) 1_556 1_655
Al1 Ge2 Ho1 75.1(5) . .
Al1 Ge2 Ho1 75.1(5) 1_556 .
Ge2 Ge2 Ho1 138.56(2) 9_666 .
Ge3 Ge2 Ho1 62.32(3) . .
Ge3 Ge2 Ho1 117.08(5) 1_656 .
Ge3 Ge2 Ho1 62.32(3) 1_556 .
Ge3 Ge2 Ho1 117.08(5) 1_655 .
Al1 Ge2 Ho1 75.1(5) . 1_655
Al1 Ge2 Ho1 75.1(5) 1_556 1_655
Ge2 Ge2 Ho1 138.56(2) 9_666 1_655
Ge3 Ge2 Ho1 117.08(5) . 1_655
Ge3 Ge2 Ho1 62.32(3) 1_656 1_655
Ge3 Ge2 Ho1 117.08(5) 1_556 1_655
Ge3 Ge2 Ho1 62.32(3) 1_655 1_655
Ho1 Ge2 Ho1 82.89(5) . 1_655
Al1 Ge3 Al1 139.4(14) 1_455 .
Al1 Ge3 Ge3 110.3(7) 1_455 9_565
Al1 Ge3 Ge3 110.3(7) . 9_565
Al1 Ge3 Ge2 130.8(2) 1_455 .
Al1 Ge3 Ge2 49.5(2) . .
Ge3 Ge3 Ge2 89.64(5) 9_565 .
Al1 Ge3 Ge2 49.5(2) 1_455 1_454
Al1 Ge3 Ge2 130.8(2) . 1_454
Ge3 Ge3 Ge2 89.64(5) 9_565 1_454
Ge2 Ge3 Ge2 179.29(10) . 1_454
Al1 Ge3 Ge2 49.5(2) 1_455 1_455
Al1 Ge3 Ge2 130.8(2) . 1_455
Ge3 Ge3 Ge2 89.64(5) 9_565 1_455
Ge2 Ge3 Ge2 88.02(2) . 1_455
Ge2 Ge3 Ge2 91.98(2) 1_454 1_455
Al1 Ge3 Ge2 130.8(2) 1_455 1_554
Al1 Ge3 Ge2 49.5(2) . 1_554
Ge3 Ge3 Ge2 89.64(5) 9_565 1_554
Ge2 Ge3 Ge2 91.98(2) . 1_554
Ge2 Ge3 Ge2 88.02(2) 1_454 1_554
Ge2 Ge3 Ge2 179.29(10) 1_455 1_554
Al1 Ge3 Ho1 75.2(5) 1_455 1_554
Al1 Ge3 Ho1 75.2(5) . 1_554
Ge3 Ge3 Ho1 137.35(2) 9_565 1_554
Ge2 Ge3 Ho1 119.46(5) . 1_554
Ge2 Ge3 Ho1 61.14(3) 1_454 1_554
Ge2 Ge3 Ho1 119.46(5) 1_455 1_554
Ge2 Ge3 Ho1 61.14(3) 1_554 1_554
Al1 Ge3 Ho1 75.2(5) 1_455 .
Al1 Ge3 Ho1 75.2(5) . .
Ge3 Ge3 Ho1 137.35(2) 9_565 .
Ge2 Ge3 Ho1 61.14(3) . .
Ge2 Ge3 Ho1 119.46(5) 1_454 .
Ge2 Ge3 Ho1 61.14(3) 1_455 .
Ge2 Ge3 Ho1 119.46(5) 1_554 .
Ho1 Ge3 Ho1 85.31(5) 1_554 .
Ge3 Al1 Ge3 139.4(14) 1_655 .
Ge3 Al1 Ge2 83.1(5) 1_655 .
Ge3 Al1 Ge2 83.1(5) . .
Ge3 Al1 Ge2 83.1(5) 1_655 1_554
Ge3 Al1 Ge2 83.1(5) . 1_554
Ge2 Al1 Ge2 139.8(14) . 1_554
Ge3 Al1 Ge1 110.3(7) 1_655 13
Ge3 Al1 Ge1 110.3(7) . 13
Ge2 Al1 Ge1 110.1(7) . 13
Ge2 Al1 Ge1 110.1(7) 1_554 13
Ge3 Al1 Ho1 137.6(2) 1_655 1_554
Ge3 Al1 Ho1 65.4(2) . 1_554
Ge2 Al1 Ho1 139.3(2) . 1_554
Ge2 Al1 Ho1 64.0(2) 1_554 1_554
Ge1 Al1 Ho1 62.4(4) 13 1_554
Ge3 Al1 Ho1 137.6(2) 1_655 .
Ge3 Al1 Ho1 65.4(2) . .
Ge2 Al1 Ho1 64.0(2) . .
Ge2 Al1 Ho1 139.3(2) 1_554 .
Ge1 Al1 Ho1 62.4(4) 13 .
Ho1 Al1 Ho1 79.2(4) 1_554 .
Ge3 Al1 Ho1 65.4(2) 1_655 1_655
Ge3 Al1 Ho1 137.6(2) . 1_655
Ge2 Al1 Ho1 64.0(2) . 1_655
Ge2 Al1 Ho1 139.3(2) 1_554 1_655
Ge1 Al1 Ho1 62.4(4) 13 1_655
Ho1 Al1 Ho1 124.7(9) 1_554 1_655
Ho1 Al1 Ho1 76.0(4) . 1_655
Ge3 Al1 Ho1 65.4(2) 1_655 1_654
Ge3 Al1 Ho1 137.6(2) . 1_654
Ge2 Al1 Ho1 139.3(2) . 1_654
Ge2 Al1 Ho1 64.0(2) 1_554 1_654
Ge1 Al1 Ho1 62.4(4) 13 1_654
Ho1 Al1 Ho1 76.0(4) 1_554 1_654
Ho1 Al1 Ho1 124.7(9) . 1_654
Ho1 Al1 Ho1 79.2(4) 1_655 1_654
loop_
_geom_bond_atom_site_label_1
_geom_bond_atom_site_label_2
_geom_bond_distance
_geom_bond_site_symmetry_2
Ho1 Ge1 2.9692(7) 13_455
Ho1 Ge1 2.9692(7) 13_556
Ho1 Ge1 2.9692(7) 13_456
Ho1 Ge1 2.9692(7) 13
Ho1 Ge2 2.9826(14) .
Ho1 Ge2 2.9826(14) 1_455
Ho1 Ge3 3.0160(14) 1_556
Ho1 Ge3 3.0160(14) .
Ho1 Al1 3.207(13) 1_556
Ho1 Al1 3.207(13) 1_455
Ho1 Al1 3.207(13) 1_456
Ho1 Al1 3.207(13) .
Ge1 Al1 2.35(3) 13
Ge1 Ge1 2.5598(19) 13
Ge1 Ge1 2.5598(19) 13_455
Ge1 Ho1 2.9692(7) 13_455
Ge1 Ho1 2.9692(7) 13_556
Ge1 Ho1 2.9692(7) 13
Ge1 Ho1 2.9692(7) 13_456
Ge1 Ho1 3.2220(13) 1_554
Ge2 Al1 2.176(10) .
Ge2 Al1 2.176(10) 1_556
Ge2 Ge2 2.446(3) 9_666
Ge2 Ge3 2.8415(5) .
Ge2 Ge3 2.8415(5) 1_656
Ge2 Ge3 2.8415(5) 1_556
Ge2 Ge3 2.8415(5) 1_655
Ge2 Ho1 2.9826(14) 1_655
Ge3 Al1 2.105(10) 1_455
Ge3 Al1 2.105(10) .
Ge3 Ge3 2.482(3) 9_565
Ge3 Ge2 2.8415(5) 1_454
Ge3 Ge2 2.8415(5) 1_455
Ge3 Ge2 2.8415(5) 1_554
Ge3 Ho1 3.0160(14) 1_554
Al1 Ge3 2.105(10) 1_655
Al1 Ge2 2.176(10) 1_554
Al1 Ge1 2.35(3) 13
Al1 Ho1 3.207(13) 1_554
Al1 Ho1 3.207(13) 1_655
Al1 Ho1 3.207(13) 1_654
