#------------------------------------------------------------------------------
#$Date: 2017-06-28 06:24:57 +0300 (Wed, 28 Jun 2017) $
#$Revision: 198193 $
#$URL: file:///home/coder/svn-repositories/cod/cif/7/04/34/7043488.cif $
#------------------------------------------------------------------------------
#
# This file is available in the Crystallography Open Database (COD),
# http://www.crystallography.net/
#
# All data on this site have been placed in the public domain by the
# contributors.
#
data_7043488
loop_
_publ_author_name
'Sun, Wei'
'Huang, Ya-Xi'
'Pan, Yuanming'
'Mi, Jin-Xiao'
_publ_section_title
;
 Strong spin frustration and negative magnetization in LnCu3(OH)6Cl3 (Ln =
 Nd and Sm) with triangular lattices: The effects of lanthanides
;
_journal_name_full               'Dalton Trans.'
_journal_paper_doi               10.1039/C7DT01798G
_journal_year                    2017
_chemical_formula_sum            'Cl3 Cu3 H6 O6 Sm'
_chemical_formula_weight         549.37
_chemical_name_systematic
;
 ?
;
_space_group_crystal_system      trigonal
_space_group_IT_number           164
_space_group_name_Hall           '-P 3 2"'
_space_group_name_H-M_alt        'P -3 m 1'
_symmetry_space_group_name_Hall  '-P 3 2"'
_symmetry_space_group_name_H-M   'P -3 m 1'
_atom_sites_solution_hydrogens   difmap
_atom_sites_solution_primary     direct
_audit_creation_method           SHELXL-2013
_cell_angle_alpha                90
_cell_angle_beta                 90
_cell_angle_gamma                120
_cell_formula_units_Z            1
_cell_length_a                   6.8227(5)
_cell_length_b                   6.8227(5)
_cell_length_c                   5.6249(5)
_cell_measurement_reflns_used    2626
_cell_measurement_temperature    173(2)
_cell_measurement_theta_max      28.786
_cell_measurement_theta_min      3.448
_cell_volume                     226.76(3)
_computing_cell_refinement       'SAINT (Bruker, 2001)'
_computing_data_collection       'SMART (Bruker, 2001)'
_computing_data_reduction        'SAINT (Bruker, 2001)'
_computing_molecular_graphics
'DIAMOND (Brandenburg, 2011) and ATOMS (Dowty, 2004)'
_computing_publication_material  'SHELXL-2013 (Sheldrick, 2015)'
_computing_structure_refinement  'SHELXL-2013 (Sheldrick, 2015)'
_computing_structure_solution    'SHELXS-2013 (Sheldrick, 2015)'
_diffrn_ambient_temperature      173(2)
_diffrn_measured_fraction_theta_full 0.989
_diffrn_measured_fraction_theta_max 0.996
_diffrn_measurement_device_type  'Bruker Diffraction CCD area-detector'
_diffrn_measurement_method
'1265 images,\f=0, 90, 180 degree, and \D\w=0.3 degree, \c= 54.74 degree'
_diffrn_radiation_monochromator  graphite
_diffrn_radiation_source         'fine-focus sealed tube'
_diffrn_radiation_type           MoK\a
_diffrn_radiation_wavelength     0.71073
_diffrn_reflns_av_R_equivalents  0.0227
_diffrn_reflns_av_unetI/netI     0.0107
_diffrn_reflns_Laue_measured_fraction_full 0.989
_diffrn_reflns_Laue_measured_fraction_max 0.996
_diffrn_reflns_limit_h_max       9
_diffrn_reflns_limit_h_min       -9
_diffrn_reflns_limit_k_max       9
_diffrn_reflns_limit_k_min       -9
_diffrn_reflns_limit_l_max       7
_diffrn_reflns_limit_l_min       -7
_diffrn_reflns_number            2626
_diffrn_reflns_point_group_measured_fraction_full 0.989
_diffrn_reflns_point_group_measured_fraction_max 0.996
_diffrn_reflns_theta_full        25.242
_diffrn_reflns_theta_max         28.786
_diffrn_reflns_theta_min         3.448
_diffrn_standards_number         0
_exptl_absorpt_coefficient_mu    14.188
_exptl_absorpt_correction_T_max  0.833
_exptl_absorpt_correction_T_min  0.612
_exptl_absorpt_correction_type   multi-scan
_exptl_absorpt_process_details   'SMART (Bruker, 2001)'
_exptl_crystal_colour            blue
_exptl_crystal_density_diffrn    4.023
_exptl_crystal_description       prism
_exptl_crystal_F_000             254
_exptl_crystal_size_max          0.130
_exptl_crystal_size_mid          0.130
_exptl_crystal_size_min          0.070
_refine_diff_density_max         0.621
_refine_diff_density_min         -0.817
_refine_diff_density_rms         0.136
_refine_ls_extinction_coef       0.0209(15)
_refine_ls_extinction_expression Fc^*^=kFc[1+0.001xFc^2^\l^3^/sin(2\q)]^-1/4^
_refine_ls_extinction_method     SHELXL
_refine_ls_goodness_of_fit_ref   1.053
_refine_ls_hydrogen_treatment    refall
_refine_ls_matrix_type           full
_refine_ls_number_parameters     22
_refine_ls_number_reflns         247
_refine_ls_number_restraints     1
_refine_ls_restrained_S_all      1.051
_refine_ls_R_factor_all          0.0138
_refine_ls_R_factor_gt           0.0136
_refine_ls_shift/su_max          0.000
_refine_ls_shift/su_mean         0.000
_refine_ls_structure_factor_coef Fsqd
_refine_ls_weighting_details
;
 w=1/[\s^2^(Fo^2^)+(0.0170P)^2^+0.8082P]
 where P=(Fo^2^+2Fc^2^)/3
;
_refine_ls_weighting_scheme      calc
_refine_ls_wR_factor_gt          0.0352
_refine_ls_wR_factor_ref         0.0354
_reflns_Friedel_coverage         0.000
_reflns_number_gt                245
_reflns_number_total             247
_reflns_threshold_expression     'I > 2\s(I)'
_cod_data_source_file            c7dt01798g4.cif
_cod_data_source_block           smcu3
_cod_original_cell_volume        226.76(4)
_cod_database_code               7043488
_shelx_space_group_comment
;
The symmetry employed for this shelxl refinement is uniquely defined
by the following loop, which should always be used as a source of
symmetry information in preference to the above space-group names.
They are only intended as comments.
;
_shelx_estimated_absorpt_t_min   0.260
_shelx_estimated_absorpt_t_max   0.437
_shelxl_version_number           2013-2
_shelx_res_file
;

TITL SmCu3_0m_a.res in P-3m1
CELL  0.71073   6.8227   6.8227   5.6249   90.000   90.000  120.000
ZERR    1.000   0.0005   0.0005   0.0005    0.000    0.000    0.000
LATT 1
SYMM -Y, X-Y, Z
SYMM -X+Y, -X, Z
SYMM Y, X, -Z
SYMM X-Y, -Y, -Z
SYMM -X, -X+Y, -Z
SFAC O  H  Cl Cu Sm
UNIT 6  6  3  3  1
REM Old TITL SmCu3_0m in P-3m1
REM SHELXT solution in P-3m1
REM R1 0.042,  Rweak 0.006,  Alpha 0.095,  Orientation as input
REM Formula found by SHELXT:  O6 Cl3 Cu3 Sm
L.S. 10
BOND $H
FMAP 2
ACTA
PLAN 20
OMIT  0   1   2
SIZE 0.07 0.13 0.13
HTAB
EQIV $2 x, y, z-1
HTAB O1 Cl1_$2

TEMP -100.000
WGHT    0.017000    0.808200
EXTI    0.020880
FVAR       0.72938
SM1   5    0.000000    0.000000    0.500000    10.08333    0.00369    0.00369 =
         0.00930    0.00000    0.00000    0.00185
CU1   4    0.500000    0.500000    0.500000    10.25000    0.00295    0.00295 =
         0.00707    0.00101   -0.00101    0.00069
CL1   3    0.333333    0.666667    0.863885    10.16667    0.01507    0.01507 =
         0.00520    0.00000    0.00000    0.00754
CL2   3    0.000000    0.000000    0.000000    10.08333    0.01229    0.01229 =
         0.00489    0.00000    0.00000    0.00614
O1    1    0.193621    0.387243    0.367747    10.50000    0.00487    0.00531 =
         0.00423    0.00003    0.00001    0.00265
DFIX 0.82 0.02 H1 O1
H1    2    0.210314    0.420629    0.227991    10.50000    0.03310

HKLF 4

REM  SmCu3_0m_a.res in P-3m1
REM R1 =  0.0136 for     245 Fo > 4sig(Fo)  and  0.0138 for all     247 data
REM     22 parameters refined using      1 restraints

END

WGHT      0.0096      0.6587

REM Instructions for potential hydrogen bonds
HTAB O1 Cl1_$2

REM Highest difference peak  0.621,  deepest hole -0.817,  1-sigma level  0.136
Q1    1   0.0000  0.0000  0.3600  10.16667  0.05    0.62
Q2    1  -0.0924 -0.1847  0.3082  10.50000  0.05    0.57
Q3    1   0.1383  0.2765  0.5309  10.50000  0.05    0.36
Q4    1  -0.2404  0.0000  0.0000  10.50000  0.05    0.30
Q5    1   0.5120  0.8273  1.0004  11.00000  0.05    0.29
Q6    1   0.1504  0.3008  0.4352  10.50000  0.05    0.26
Q7    1   0.3955  0.6045  0.1006  10.50000  0.05    0.21
Q8    1   0.2353  0.2196  0.1436  11.00000  0.05    0.20
Q9    1   0.2421  0.4843  0.8183  10.50000  0.05    0.18
Q10   1  -0.0722 -0.1444  0.4765  10.50000  0.05    0.18
Q11   1   0.0294  0.3993  0.0452  11.00000  0.05    0.17
Q12   1   0.1939  0.0969  0.0896  10.50000  0.05    0.17
Q13   1   0.7222  0.6279  0.3471  11.00000  0.05    0.16
Q14   1   0.2565  0.5129  0.4150  10.50000  0.05    0.15
Q15   1   0.1634  0.5817  0.2920  10.50000  0.05    0.15
Q16   1   0.5011  0.3960  0.2618  11.00000  0.05    0.14
Q17   1   0.0000  0.2739  0.5000  10.50000  0.05    0.13
Q18   1   0.2366  0.7634  0.7203  10.50000  0.05    0.13
Q19   1   0.4289  0.5711  0.8831  10.50000  0.05    0.13
Q20   1   0.5739  0.7006  0.8585  11.00000  0.05    0.12
;
_shelx_res_checksum              18900
_shelx_hkl_file
;
   0  -1   0  428.16   10.50
   0  -1   0  398.06    9.90
   1   0   0  418.76   11.00
   1   0   0  428.86   10.70
   1   0   0  408.96   10.90
  -1   1   0  458.65   10.70
  -1   1   0  433.06   10.90
  -1   1   0  434.16    9.90
  -1   1   0  427.06   10.00
  -1   1   0  438.86   10.90
   1  -1   0  426.56   10.90
   1  -1   0  359.96   10.70
   0   1   0  417.16   10.40
   0   1   0  433.16   10.10
   0   1   0  437.66   10.30
   1  -1   0  435.66   10.60
  -1   0   0  389.56   10.60
   1   1   0 1773.62   40.70
  -2   1   0 1776.32   40.30
   1   1   0 1636.24   40.30
   1  -2   0 1661.93   41.20
  -2   1   0 1785.82   40.60
   1  -2   0 1783.12   40.40
  -2   1   0 1764.52   40.90
  -1  -1   0 1743.73   40.50
   2  -1   0 1767.12   39.90
  -1  -1   0 1796.82   41.10
  -1   2   0 1756.72   39.40
   0  -2   0 5018.50  114.89
   2   0   0 5344.37  115.99
  -2   2   0 5380.86  122.19
  -2   2   0 5317.17  116.29
  -2   2   0 4755.42  117.99
  -2   2   0 4607.24  117.49
   2  -2   0 4940.21  122.89
   2  -2   0 5297.77  117.59
   0   2   0 4936.91  116.39
  -2   0   0 5150.58  119.49
  -2   0   0 4869.81  116.59
   0   2   0 5345.07  117.79
  -3   1   0  941.61   24.80
   1   2   0  945.71   24.00
   1   2   0  936.51   23.70
   2  -3   0  949.11   23.90
   2  -3   0  978.80   25.20
  -3   1   0  898.01   24.30
  -2   3   0  948.81   21.50
  -1  -2   0  952.40   23.60
   3  -1   0  905.21   23.50
  -2   3   0  943.21   21.40
   2   1   0  922.91   24.30
  -3   2   0  988.00   24.70
  -3   2   0  932.91   23.90
  -3   2   0  969.90   23.60
  -3   2   0  966.10   24.80
   1  -3   0  938.91   23.90
  -1   3   0  928.01   22.10
  -1   3   0  937.41   22.30
   3  -2   0  959.70   24.10
  -2  -1   0  963.20   24.60
  -2  -1   0  945.51   25.10
  -3   3   0  913.21   21.80
  -3   3   0  861.01   24.00
  -3   3   0  890.41   22.60
   0  -3   0  927.71   20.40
   3   0   0  882.31   23.60
  -3   0   0  904.21   24.60
   0   3   0  890.01   22.40
   3  -3   0  931.91   24.70
   3  -3   0  864.71   23.30
   0   3   0  942.11   23.10
  -3   0   0  872.91   24.10
   1   3   0  202.78    8.40
   1   3   0  204.28    8.10
   3  -4   0  200.88    9.40
  -4   1   0  210.48    9.30
   3  -4   0  206.78    8.40
  -3   4   0  234.78    6.50
  -3   4   0  198.38    6.70
  -3   4   0  202.48    8.90
   4  -1   0  206.58    8.30
  -4   2   0 9528.75  212.18
   2  -4   0 9316.87  223.28
  -4   2   0 9638.94  228.88
   2  -4   0 9208.38  210.68
   2   2   0 9731.03  217.28
   4  -2   0 9999.00  219.98
  -2   4   0 9853.51  215.48
  -2  -2   0 9315.17  211.08
  -2   4   0 9400.56  213.78
  -4   3   0  210.48    7.70
  -4   3   0  203.88    8.90
   3   1   0  209.78    8.70
  -4   3   0  195.68    8.10
   1  -4   0  197.88    8.20
   4  -3   0  225.38    6.50
  -3  -1   0  194.88    9.10
  -3  -1   0  215.68    9.00
  -1   4   0  205.08    6.90
  -1   4   0  202.28    7.40
   4  -3   0  200.88    8.40
   4   0   0 4185.78   96.19
  -4   4   0 4071.89   94.49
  -4   4   0 4100.89   96.49
  -4   4   0 4297.47   93.49
   4  -4   0 4169.68   95.69
   0   4   0 4205.88   94.39
  -4   0   0 4198.88   96.99
   0   4   0 4420.86   95.49
   4  -4   0 4095.29   97.19
  -4   0   0 3921.81   97.09
  -5   1   0  828.92   25.10
   1   4   0  833.22   23.60
  -5   1   0  807.62   25.40
   4  -5   0  814.72   23.90
   4  -5   0  840.82   25.90
  -4   5   0  828.62   24.80
   5  -1   0  809.92   23.60
  -1  -4   0  850.21   22.00
  -4   5   0  849.81   22.10
  -4   5   0  849.22   21.20
  -5   2   0   75.79    5.70
   3  -5   0   94.89    5.80
  -5   2   0   98.79    6.50
   3  -5   0   97.69    6.70
   2   3   0   94.99    5.90
  -3   5   0   91.49    4.10
   5  -2   0   93.09    5.00
  -3   5   0   94.59    4.10
  -3   5   0   89.39    6.10
  -2  -3   0   95.29    5.40
  -5   3   0   96.99    6.30
   2  -5   0  101.89    7.00
   2  -5   0   91.29    5.70
   3   2   0  101.29    6.30
  -5   3   0  102.29    6.20
  -3  -2   0   83.69    5.70
   5  -3   0  110.69    4.50
   5  -3   0   90.79    5.70
  -2   5   0   95.59    4.60
  -3  -2   0   92.79    6.60
  -2   5   0  114.29    4.50
  -5   4   0  855.11   23.00
  -5   4   0  850.41   25.20
  -5   4   0  848.62   23.90
   4   1   0  832.62   24.80
  -1   5   0  818.32   22.00
  -1   5   0  861.81   23.20
   5  -4   0  816.42   24.10
  -4  -1   0  862.31   26.10
  -4  -1   0  839.52   25.10
  -5   5   0  649.34   21.00
   5   0   0  656.73   20.60
  -5   5   0  609.44   19.10
  -5   0   0  668.13   21.60
   0   5   0  599.44   18.70
  -5   0   0  610.74   21.70
   5  -5   0  695.43   20.70
   5  -5   0  655.33   22.10
  -6   1   0  223.48   11.60
   5  -6   0  219.88   10.60
   1   5   0  217.28   10.00
  -6   1   0  221.68   11.80
   5  -6   0  207.08   11.70
   6  -1   0  225.18   10.30
  -5   6   0  215.88   11.00
  -5   6   0  231.88    9.70
   4  -6   0 2906.21   69.39
   2   4   0 2866.31   69.29
   4  -6   0 2776.52   71.99
  -6   2   0 2888.01   71.29
  -6   2   0 2739.03   70.39
  -4   6   0 2924.51   70.89
  -4   6   0 2839.52   65.99
  -6   3   0 1059.19   30.80
   3  -6   0 1065.89   30.00
   3   3   0 1063.39   30.50
  -6   3   0 1027.80   31.40
   3  -6   0  996.50   31.90
  -3  -3   0 1150.78   37.00
   6  -3   0 1081.69   30.00
  -3   6   0 1059.19   26.70
   2  -6   0 2924.01   69.89
  -6   4   0 2842.12   69.89
   4   2   0 2914.21   70.79
  -6   4   0 2880.41   71.19
   2  -6   0 2764.52   72.39
  -4  -2   0 2959.90   70.99
  -2   6   0 2858.81   66.59
   6  -4   0 2814.42   69.69
  -4  -2   0 2923.71   72.59
   5   1   0  229.08   11.10
  -6   5   0  232.48   10.50
  -6   5   0  214.98   11.20
  -5  -1   0  226.38   12.20
  -5  -1   0  240.88   11.70
   6  -5   0  219.58   10.70
  -1   6   0  225.28    9.40
   6   0   0 4077.29   95.69
  -6   6   0 3999.10   93.89
  -6   6   0 3867.91   95.89
  -6   0   0 4031.70   97.19
   0   6   0 4032.20   93.79
   6  -6   0 3938.01   95.49
  -6   0   0 3938.51   97.89
   6  -7   0  113.59    8.40
   6  -7   0  127.29    9.90
  -7   1   0  111.19    9.20
   1   6   0  107.69    7.70
  -7   1   0  105.89    8.70
  -6   7   0  110.89    8.40
  -6   7   0  109.79    7.10
  -7   2   0  430.06   18.30
   5  -7   0  401.76   16.20
   2   5   0  415.36   16.30
   5  -7   0  408.86   18.50
  -7   2   0  393.66   17.30
  -5   7   0  399.56   16.90
  -5   7   0  408.76   14.40
   4  -7   0  355.36   17.00
  -7   3   0  377.96   16.50
  -7   3   0  367.36   15.90
   4  -7   0  363.46   15.10
   3   4   0  345.47   14.90
  -4   7   0  391.46   16.50
  -4   7   0  371.96   12.60
   7  -3   0  369.96   14.80
   3  -7   0  373.66   15.10
   3  -7   0  365.46   17.00
  -7   4   0  373.96   16.50
   4   3   0  352.36   15.30
  -7   4   0  377.76   15.80
   7  -4   0  383.86   15.40
  -3   7   0  373.06   12.60
   2  -7   0  440.06   18.90
  -7   5   0  379.56   16.70
   5   2   0  394.86   16.60
  -7   5   0  413.86   16.40
  -5  -2   0  401.46   18.20
  -2   7   0  403.06   14.00
   7  -5   0  417.16   16.40
  -7   6   0  102.49    8.30
   1  -7   0  119.79    9.70
   6   1   0  106.49    8.10
  -7   6   0  104.89    7.60
  -6  -1   0   97.49    8.80
  -6  -1   0  114.09    8.80
   7  -6   0   82.39    7.10
  -1   7   0  105.59    6.80
  -7   7   0   83.39    7.70
  -7   7   0   76.39    6.60
  -7   0   0   65.09    7.20
   0   7   0   80.39    6.60
   7  -7   0   86.19    7.70
  -7   0   0   68.49    7.60
   7  -8   0  576.74   22.60
  -8   1   0  579.14   24.00
  -8   1   0  542.65   24.10
   1   7   0  563.34   21.50
  -7   8   0  580.34   22.70
  -7   8   0  577.44   20.60
  -8   2   0 2039.20   56.39
  -8   2   0 1938.91   56.49
   6  -8   0 1899.71   53.69
   6  -8   0 2034.10   57.89
   2   6   0 2010.00   54.29
  -6   8   0 1954.30   54.39
  -6   8   0 1942.81   51.19
   3   5   0  102.79    8.50
   5  -8   0  130.79   10.50
  -8   3   0  104.99    9.10
   5  -8   0  101.49    8.30
  -5   8   0  108.29    6.90
  -5   8   0  107.09    8.70
   8  -3   0  119.79    8.50
   4   4   0 2861.01   74.89
  -8   4   0 2909.91   76.39
   4  -8   0 2850.61   73.89
  -8   4   0 2939.11   75.49
   4  -8   0 3042.10   78.89
  -4   8   0 2918.81   69.99
   8  -4   0 2905.01   73.99
  -4   8   0 2966.50   75.99
  -8   5   0  102.99    9.00
   5   3   0  117.79    9.20
   3  -8   0  107.79    8.40
  -8   5   0   98.09    8.50
   3  -8   0  102.59    9.50
  -3   8   0  120.39    7.10
   8  -5   0  108.59    8.40
   2  -8   0 1964.90   57.59
  -8   6   0 2020.20   55.69
  -8   6   0 2017.20   54.09
   6   2   0 1946.31   55.19
  -2   8   0 1990.60   51.29
   8  -6   0 1998.70   54.59
   1  -8   0  570.34   24.60
  -8   7   0  553.04   22.60
  -8   7   0  540.25   21.10
  -7  -1   0  574.34   24.80
   8  -7   0  558.34   22.30
  -1   8   0  580.94   20.70
  -8   8   0 1263.47   40.40
  -8   0   0 1298.37   43.50
   8  -8   0 1269.27   40.30
  -9   3   0  339.17   18.10
  -9   3   0  302.77   17.50
   3   6   0  312.27   16.60
   6  -9   0  320.57   16.40
  -6   9   0  338.17   14.80
  -6   9   0  319.87   16.60
   9  -3   0  336.37   16.00
  -9   4   0   88.59    9.10
   5  -9   0  103.09    8.90
  -9   4   0   99.89    9.80
   5  -9   0   87.39   10.90
   4   5   0   84.59    8.70
  -5   9   0   96.99    7.00
   9  -4   0   90.69    8.30
  -5   9   0   95.09    8.80
   5   4   0   89.69    9.00
  -9   5   0  108.09    9.80
  -9   5   0  112.69    9.70
   4  -9   0   99.39    8.80
  -4   9   0   89.09    9.10
   9  -5   0  104.19    8.90
  -4   9   0   95.79    7.00
   6   3   0  326.67   17.40
  -9   6   0  337.17   17.10
  -9   6   0  323.07   17.40
  -3   9   0  325.27   14.10
   9  -6   0  339.47   16.70
   0   0  -1 6245.78  145.19
   0   0  -1 6148.78  142.89
   0   0   1 6354.36  147.09
   0   0   1 6439.56  146.69
  -1   0  -1  175.98    5.90
   0   1  -1  180.38    5.00
   0   1  -1  177.48    5.00
  -1   0  -1  174.68    5.90
   0   1  -1  178.98    5.10
   0   1  -1  177.58    5.70
   1  -1  -1  164.48    5.90
   0  -1   1  176.48    5.00
   1   0   1  174.48    5.90
   1   0   1  170.98    5.70
   1   0   1  173.18    5.80
  -1   1   1  176.88    6.00
   0  -1   1  157.08    5.60
  -1   1   1  171.08    6.30
  -1   1   1  180.28    6.60
   1   0   1  172.28    4.70
  -1   1  -1  415.16    9.70
   1   0  -1  429.16   11.20
   0  -1  -1  405.16   11.50
  -1   1  -1  402.86   11.60
   0  -1  -1  407.26    9.70
   1   0  -1  370.96   11.00
  -1   1  -1  410.26    9.80
  -1   1  -1  412.56    9.60
   1   0  -1  420.56   11.40
  -1   0   1  400.16   11.20
   1  -1   1  416.76    9.80
   1  -1   1  416.46   10.70
  -1   0   1  412.06   11.30
   0   1   1  396.46   11.20
  -1   0   1  427.06   11.10
  -1   0   1  427.66   11.20
   2  -1  -1   55.29    3.30
  -1   2  -1   52.79    3.50
  -1  -1  -1   57.09    3.70
   1   1   1   55.19    3.40
   1  -2   1   56.19    3.80
  -2   1   1   58.39    3.90
  -2   1   1   58.29    3.80
   1  -2   1   49.20    3.20
  -2   1   1   53.39    2.50
  -2   1   1   64.99    3.50
   3  -2  -1  174.18    6.50
   3  -2  -1  163.98    6.50
  -2  -1  -1  173.48    7.40
  -3   2   1  177.08    6.90
  -3   2   1  161.18    7.30
   2   1   1  179.78    7.10
   1  -3   1  181.58    7.60
  -3   2   1  176.88    7.80
  -3   2   1  171.78    6.40
   1  -3   1  165.08    7.00
   2  -2  -1 8859.61  200.38
   0   2  -1 8647.33  195.58
   2  -2  -1 9179.78  205.78
   0   2  -1 8858.11  197.18
  -2   0  -1 9179.38  206.18
   0   2  -1 8536.95  198.38
  -2   0  -1 9698.93  214.08
  -2   0  -1 8575.24  207.98
  -2   2   1 7380.76  207.28
   0  -2   1 9088.29  207.18
  -2   2   1 8691.73  199.28
   2   0   1 8857.31  201.68
  -2   2   1 8138.09  201.58
  -2   1  -1   56.09    3.10
   1  -2  -1   52.89    3.00
   1   1  -1   57.39    3.30
   1  -2  -1   52.89    2.90
  -2   1  -1   59.39    3.20
   1  -2  -1   55.49    2.80
  -2   1  -1   52.29    2.90
  -1   2   1   55.79    3.30
   2  -1   1   57.29    3.20
  -1  -1   1   52.89    3.30
  -1  -1   1   56.59    3.00
   2  -1   1   56.39    2.90
  -1   2   1   55.59    3.30
   0  -2  -1 2380.56   56.39
   0  -2  -1 2501.35   54.99
   2   0  -1 2534.95   56.79
  -2   2  -1 2451.75   55.29
  -2   2  -1 2310.37   57.29
   0   2   1 2478.75   56.29
  -2   0   1 2462.95   57.19
   2  -2   1 2473.65   56.19
  -2   0   1 2477.55   57.09
   0   2   1 2443.16   57.09
   2  -2   1 2551.44   55.69
  -1  -2  -1  972.00   25.60
   3  -1  -1  936.81   25.10
  -2   3  -1 1002.00   24.30
  -3   1   1 1019.50   23.80
   2  -3   1  963.20   25.10
   2  -3   1  990.50   26.60
  -3   1   1 1001.00   26.40
   1   2   1  960.40   25.10
  -3   1   1  991.90   26.10
  -2  -2  -1 4320.17   98.59
   4  -2  -1 4348.27   97.19
  -4   2   1 4240.68   99.49
   2  -4   1 4141.29   99.39
  -4   2   1 4292.37   98.89
  -4   2   1 4435.26   96.69
   2   2   1 4217.18   98.29
  -3  -2  -1   85.29    6.00
   5  -3  -1   87.19    4.80
   3   2   1   92.19    6.20
   2  -5   1   83.39    6.40
  -5   3   1   96.59    6.40
  -5   3   1   86.89    6.50
   2  -5   1   92.29    6.00
   4  -3  -1  379.76   12.80
  -3  -1  -1  362.76   13.30
  -1   4  -1  373.16    9.60
  -1   4  -1  383.96   10.00
  -3  -1  -1  377.26   13.70
   4  -3  -1  379.06   12.90
  -4   3   1  371.26   13.40
   1  -4   1  377.96   13.70
  -4   3   1  392.26   14.20
   1  -4   1  396.46   13.10
   3   1   1  374.76   13.10
   3  -3  -1  250.47    9.00
   3  -3  -1  232.68    9.10
   0   3  -1  243.88    7.60
  -3   0  -1  243.08    9.40
   0   3  -1  241.68    7.40
  -3   0  -1  222.38    9.20
  -3   3   1  234.48    9.30
  -3   3   1  259.97    8.70
   3   0   1  253.27    9.00
  -3   3   1  260.97   10.40
  -3   1  -1  166.48    7.00
   2  -3  -1  167.58    6.50
   1   2  -1  166.28    6.40
   1   2  -1  186.88    6.70
  -3   1  -1  173.28    7.00
   2  -3  -1  168.88    5.40
  -3   1  -1  174.68    6.80
   3  -1   1  166.58    6.30
  -1  -2   1  170.38    7.00
   3  -1   1  175.08    6.30
  -2   3   1  175.08    6.70
  -2   3   1  182.98    6.70
  -1  -2   1  172.18    6.00
  -3   2  -1  990.90   24.00
   1  -3  -1  973.30   26.20
  -3   2  -1  986.50   24.90
  -3   2  -1  979.30   24.20
   1  -3  -1  993.20   24.30
   2   1  -1  986.80   25.40
  -1   3   1  959.60   24.70
  -2  -1   1  956.90   25.20
  -2  -1   1  970.60   25.90
   3  -2   1 1001.90   24.70
  -1   3   1 1049.40   25.50
   3   0  -1   34.10    3.20
  -3   3  -1   37.70    2.90
  -3   3  -1   28.10    1.60
  -3   3  -1   34.20    1.90
   3  -3   1   29.10    2.90
  -3   0   1   27.30    3.30
  -3   0   1   34.50    3.40
   0   3   1   29.90    3.20
   0   3   1   26.80    2.80
  -3   4  -1   41.30    3.30
   4  -1  -1   34.30    3.30
  -1  -3  -1   31.70    3.20
  -4   1   1   50.09    4.40
  -4   1   1   38.40    4.10
   3  -4   1   38.70    4.30
   3  -4   1   36.10    3.50
  -3   5  -1  100.49    5.80
   5  -2  -1   97.89    5.60
  -2  -3  -1  116.39    6.60
  -5   2   1   94.99    6.80
   3  -5   1   91.89    6.10
  -5   2   1   92.99    6.50
   2   3   1   93.29    6.20
   3  -5   1  100.19    7.00
  -3   6  -1   33.50    3.90
  -3   6  -1   41.20    1.90
  -3  -3  -1   30.20    3.90
  -3   6  -1   39.90    1.90
  -6   3   1   31.70    4.70
   3   3   1   38.00    4.60
   3  -6   1   31.40    4.80
   3  -6   1   30.00    4.10
  -6   3   1   34.10    4.50
   7  -4  -1   84.09    7.00
  -3   7  -1  103.89    4.70
   4   3   1  114.39    8.20
  -7   4   1   94.59    8.10
  -7   4   1  108.09    8.30
   3  -7   1  104.29    7.80
   3  -7   1  101.99    8.60
  -2   6  -1 3650.33   83.69
  -2   6  -1 3451.95   79.89
   6  -4  -1 3543.35   85.59
  -4  -2  -1 3650.33   86.99
   2  -6   1 3567.44   85.49
  -6   4   1 3496.85   87.69
   4   2   1 3620.64   86.39
   2  -6   1 3593.94   87.89
  -6   4   1 3573.74   86.49
  -1   5  -1   37.60    2.60
  -4  -1  -1   30.00    4.00
  -1   5  -1   35.30    2.80
  -4  -1  -1   37.40    4.20
   5  -4  -1   36.00    4.00
   1  -5   1   41.20    4.50
  -5   4   1   38.60    4.50
   4   1   1   41.50    4.20
  -5   4   1   49.00    4.70
  -4   0  -1 2368.86   57.99
   0   4  -1 2391.36   54.59
   4  -4  -1 2244.78   57.39
   0   4  -1 2452.75   55.19
  -4   0  -1 2381.26   58.29
   4   0   1 2247.48   56.49
  -4   4   1 2436.46   59.19
  -4   4   1 2483.25   56.09
  -4   4   1 2264.97   57.09
   3  -4  -1  356.56   13.30
   1   3  -1  365.26   11.80
   1   3  -1  374.76   12.10
  -4   1  -1  378.26   13.20
  -4   1  -1  375.16   13.10
   3  -4  -1  377.86   12.30
  -3   4   1  390.16   14.40
  -1  -3   1  381.46   10.00
   4  -1   1  362.06   12.00
  -3   4   1  377.16   11.90
  -3   4   1  361.56   12.20
  -3   4   1  396.76   12.00
  -4   2  -1 4253.77   96.39
  -4   2  -1 4209.08   96.89
   2   2  -1 4082.79   96.99
  -4   2  -1 4336.47   97.49
   2  -4  -1 4237.78   96.49
  -2   4   1 4391.56   96.59
  -2   4   1 4192.88   96.29
   4  -2   1 4385.86   96.69
  -2  -2   1 4207.68   96.49
   4  -2   1 4525.05   95.09
  -2  -2   1 4089.39   97.99
   3   1  -1   37.00    3.60
  -4   3  -1   35.10    2.90
  -4   3  -1   37.90    2.70
   1  -4  -1   37.90    2.00
  -4   3  -1   47.90    3.60
   1  -4  -1   31.20    2.80
  -1   4   1   40.90    3.70
  -3  -1   1   35.90    3.50
  -3  -1   1   41.90    4.10
   4  -3   1   38.00    3.40
  -1   4   1   31.40    3.00
  -4   4  -1 5664.43  127.99
   4   0  -1 5796.12  129.39
  -4   4  -1 5694.93  126.79
  -4   4  -1 5716.03  128.79
   0  -4  -1 5743.83  126.29
   4  -4   1 5580.14  128.49
  -4   0   1 5686.83  129.99
   0   4   1 5774.02  128.39
  -4   0   1 5528.95  130.49
   5  -1  -1    8.70    2.30
  -4   5  -1   13.70    1.40
  -4   5  -1   13.20    1.20
  -4   5  -1   11.60    2.40
   1   4   1   14.10    2.80
   4  -5   1   11.70    2.70
  -5   1   1   11.80    3.00
  -5   1   1    6.20    2.40
   4  -5   1   10.90    3.20
  -4   6  -1 2063.69   45.00
  -4   6  -1 1947.51   50.09
   6  -2  -1 2022.70   50.59
  -4   6  -1 2036.30   45.10
   4  -6   1 2072.29   51.59
   2   4   1 1946.51   51.29
  -6   2   1 2018.00   53.09
   4  -6   1 1923.41   53.79
  -6   2   1 1994.20   53.59
  -4   7  -1  412.56   15.90
  -4   7  -1  403.06   11.60
  -7   3   1  442.46   18.30
   3   4   1  390.56   16.60
  -7   3   1  424.46   18.50
   4  -7   1  413.16   16.60
   4  -7   1  431.86   18.90
  -4   8  -1 1348.97   38.60
  -4   8  -1 1343.67   33.10
   8  -4  -1 1296.37   38.90
   4   4   1 1334.17   40.10
   4  -8   1 1259.47   39.10
   4  -8   1 1341.67   42.60
  -8   4   1 1331.57   41.20
  -8   4   1 1293.07   41.70
  -4   9  -1   58.49    4.70
   9  -5  -1   58.49    7.10
  -9   5   1   52.29    7.70
   5   4   1   51.29    7.30
  -9   5   1   57.59    8.00
  -3   8  -1  282.17   10.40
   8  -5  -1  273.77   14.00
   3  -8   1  252.57   15.30
   5   3   1  264.87   14.20
  -8   5   1  280.97   14.90
  -8   5   1  287.17   15.60
  -2   7  -1   22.70    2.70
   7  -5  -1   27.30    4.30
  -5  -2  -1   24.50    4.30
  -7   5   1   15.60    3.90
   2  -7   1   27.60    4.80
  -7   5   1   22.80    4.90
   5   2   1   22.60    4.00
   6  -5  -1   23.00    3.80
  -5  -1  -1   29.10    4.50
  -1   6  -1   24.00    2.70
  -5  -1  -1   29.80    4.50
  -6   5   1   20.30    3.80
   1  -6   1   21.90    4.00
  -6   5   1   27.90    4.60
  -5   0  -1  546.25   20.30
   5  -5  -1  601.94   19.50
  -5   0  -1  641.54   20.90
   5  -5  -1  608.94   20.60
   0   5  -1  586.04   17.40
   0  -5   1  591.04   20.60
  -5   5   1  609.54   21.20
   5   0   1  604.24   19.40
  -5   5   1  607.64   19.80
   1   4  -1   44.50    3.80
  -5   1  -1   40.80    4.40
   4  -5  -1   43.00    4.70
  -5   1  -1   34.10    4.10
   4  -5  -1   36.00    3.80
  -4   5   1   38.60    3.80
  -4   5   1   43.00    3.80
   5  -1   1   44.30    3.80
  -4   5   1   33.80    4.40
  -5   2  -1   89.49    6.00
   3  -5  -1   82.09    5.20
   2   3  -1   83.79    5.40
   3  -5  -1   86.19    6.40
  -5   2  -1   73.69    5.50
  -3   5   1   80.69    5.00
   5  -2   1   78.19    4.90
  -3   5   1   99.49    5.30
  -3   5   1   82.99    6.40
  -5   3  -1  101.69    6.20
   3   2  -1   89.79    6.00
   2  -5  -1   91.99    5.50
  -5   3  -1   95.69    5.70
  -5   3  -1   97.79    5.40
  -3  -2   1   98.69    6.70
  -2   5   1   92.59    5.30
  -2   5   1   99.69    5.70
  -3  -2   1   99.49    5.90
   5  -3   1   80.89    5.30
  -5   4  -1   11.40    1.90
   4   1  -1    9.60    2.50
  -5   4  -1   11.30    2.50
   1  -5  -1   11.40    2.40
  -5   4  -1   11.30    2.20
  -1   5   1   13.10    2.60
   5  -4   1   11.20    2.50
  -4  -1   1   12.80    2.80
  -4  -1   1    7.70    2.40
  -5   5  -1  203.98   10.20
  -5   5  -1  190.68    8.90
  -5   5  -1  192.88    7.60
   5   0  -1  194.98    9.60
  -5   0   1  184.18   10.30
  -5   0   1  192.58   10.10
   5  -5   1  178.18    9.00
   0   5   1  185.38    9.00
   6  -1  -1  429.16   16.00
  -5   6  -1  435.16   13.00
  -5   6  -1  401.76   15.00
  -6   1   1  422.96   17.60
   5  -6   1  433.86   18.20
   5  -6   1  423.16   16.10
   1   5   1  381.96   15.50
  -6   1   1  413.96   17.10
  -5   7  -1   34.10    3.10
  -5   7  -1   40.10    4.70
  -7   2   1   30.50    5.20
   2   5   1   37.50    5.00
   5  -7   1   48.10    6.40
   5  -7   1   40.70    5.30
  -7   2   1   46.10    6.00
  -5   8  -1    8.20    2.00
  -5   8  -1    2.80    2.40
   5  -8   1    5.80    3.00
  -8   3   1    1.30    2.50
  -8   3   1    7.90    3.50
   5  -8   1    9.30    4.10
   3   5   1   12.50    4.00
   9  -4  -1   93.89    8.60
  -5   9  -1   88.49    5.80
  -9   4   1   88.29    9.40
  -9   4   1   79.99    9.00
   5  -9   1   91.39    9.00
   4   5   1   96.79    9.40
   9  -6  -1   41.10    6.40
  -9   6   1   38.70    6.80
   8  -6  -1 1432.46   41.60
  -2   8  -1 1369.16   36.70
  -8   6   1 1409.96   42.20
   2  -8   1 1359.46   43.60
  -8   6   1 1351.86   43.10
   6   2   1 1384.26   42.00
  -1   7  -1  175.88    8.60
   7  -6  -1  208.58   11.40
  -6  -1  -1  179.28   11.30
  -6  -1  -1  178.58   11.90
  -7   6   1  181.08   11.80
  -7   6   1  191.38   11.10
   6   1   1  183.18   10.70
   1  -7   1  186.18   11.80
   0   6  -1 1888.61   48.20
  -6   0  -1 1965.50   52.49
   6  -6  -1 1952.20   50.99
  -6   0  -1 1900.11   52.89
   6  -6  -1 1951.80   52.79
  -6   6   1 1929.61   52.99
   0  -6   1 1873.91   52.29
  -6   6   1 1949.20   51.19
   6   0   1 1977.50   52.79
  -6   1  -1   28.80    4.40
   1   5  -1   21.30    3.20
   5  -6  -1   23.30    3.60
  -6   1  -1   24.10    4.00
  -5   6   1   24.70    4.50
  -5   6   1   21.40    3.60
  -6   2  -1 3407.16   83.69
   2   4  -1 3470.55   81.99
  -6   2  -1 3457.15   83.39
   4  -6  -1 3427.06   82.09
   4  -6  -1 3505.85   85.09
  -4   6   1 3393.36   81.19
   6  -2   1 3442.96   81.09
  -4   6   1 3486.65   85.49
   3  -6  -1   38.20    4.10
  -6   3  -1   40.30    4.60
   3   3  -1   37.00    4.30
   3  -6  -1   27.20    4.40
  -6   3  -1   39.50    4.40
  -3   6   1   38.30    3.80
   6  -3   1   33.60    3.80
   2  -6  -1 2023.00   49.80
  -6   4  -1 2016.10   50.99
  -6   4  -1 1926.21   49.50
   4   2  -1 1916.61   50.99
  -4  -2   1 2073.19   50.99
  -2   6   1 1999.50   49.20
   6  -4   1 1914.91   49.80
  -4  -2   1 1962.10   52.69
   5   1  -1  442.66   16.80
  -6   5  -1  414.46   15.60
  -6   5  -1  424.56   14.60
  -1   6   1  411.66   15.10
  -5  -1   1  431.36   17.80
   6  -5   1  411.86   15.70
  -5  -1   1  439.36   16.90
  -6   6  -1 1602.44   40.60
   6   0  -1 1627.14   44.40
  -6   6  -1 1656.33   43.20
   6  -6   1 1610.34   43.60
  -6   0   1 1659.63   45.50
   0   6   1 1528.65   42.80
  -6   0   1 1561.24   46.10
  -6   7  -1   36.20    4.70
  -6   7  -1   30.20    3.40
  -7   1   1   25.60    4.80
   6  -7   1   28.90    4.70
   1   6   1   26.90    4.60
  -7   1   1   32.40    5.40
  -6   8  -1 2141.19   53.19
  -8   2   1 2188.68   60.89
  -8   2   1 2163.08   61.89
   6  -8   1 2152.78   58.79
   2   6   1 2194.68   59.39
   9  -3  -1   10.50    4.10
   6  -9   1    8.60    3.90
  -9   3   1    3.80    3.40
  -1   8  -1   65.89    6.00
   8  -7  -1   73.59    7.80
  -8   7   1   67.69    8.10
   1  -8   1   61.29    7.80
  -8   7   1   66.89    7.50
   7  -7  -1   76.59    7.30
  -7   0  -1   70.29    7.60
   0   7  -1   65.59    5.90
  -7   0  -1   73.59    7.90
  -7   7   1   77.19    7.40
   0  -7   1   58.59    7.10
  -7   7   1   75.49    7.70
   6  -7  -1  176.18   10.30
   6  -7  -1  166.68   11.30
  -7   1  -1  179.58   11.30
  -7   1  -1  185.28   11.60
   1   6  -1  176.98    9.70
  -6   7   1  176.38   11.50
  -6   7   1  166.48   10.00
   5  -7  -1   21.20    5.30
   2   5  -1   29.80    4.20
   5  -7  -1   23.60    4.40
  -7   2  -1   22.90    4.40
  -7   2  -1   25.00    5.00
   7  -2   1   18.20    3.60
  -5   7   1   18.10    3.70
  -5   7   1   18.80    4.40
   3   4  -1   97.29    7.40
  -7   3  -1  102.79    7.90
  -7   3  -1  113.09    8.20
   4  -7  -1  105.59    7.40
   4  -7  -1   96.69    8.30
   7  -3   1  104.49    7.10
  -4   7   1   80.59    7.70
  -4   7   1  101.59    6.70
  -7   4  -1  410.86   16.20
   3  -7  -1  432.56   16.00
  -7   4  -1  394.26   16.40
   3  -7  -1  400.66   18.10
   4   3  -1  411.46   16.70
  -3   7   1  400.56   14.90
   7  -4   1  394.16   15.40
  -7   5  -1   48.00    5.00
   2  -7  -1   42.60    6.20
  -7   5  -1   52.59    5.70
   5   2  -1   50.19    5.80
   2  -7  -1   45.50    5.00
  -5  -2   1   41.90    5.90
  -2   7   1   48.30    4.90
   7  -5   1   43.50    5.20
  -7   6  -1   34.90    4.70
   6   1  -1   37.70    5.20
  -7   6  -1   31.00    4.20
  -6  -1   1   18.40    4.50
  -1   7   1   29.70    4.30
   7  -6   1   29.20    4.70
  -7   7  -1   55.79    5.20
  -7   7  -1   55.79    5.80
   7  -7   1   55.49    6.40
   0   7   1   72.39    6.90
  -7   0   1   59.59    7.50
  -7   8  -1   38.50    4.40
   7  -8   1   43.40    5.90
  -8   1   1   27.80    6.40
   1   7   1   38.60    6.00
  -8   1   1   26.60    5.80
   7  -8  -1   58.19    6.90
  -8   1  -1   66.39    7.80
  -8   1  -1   53.99    7.20
   1   7  -1   52.19    6.00
   7  -8  -1   60.99    8.00
  -7   8   1   54.79    6.60
   8  -1   1   67.29    6.40
  -1  -7   1   63.99    7.50
  -7   8   1   48.50    6.90
  -8   2  -1 1412.56   43.10
   2   6  -1 1391.36   40.50
  -8   2  -1 1370.26   42.50
   6  -8  -1 1362.56   44.00
   6  -8  -1 1340.07   40.60
  -6   8   1 1358.26   40.20
  -6   8   1 1444.16   43.70
   8  -2   1 1427.76   39.20
   3   5  -1  259.87   13.70
   5  -8  -1  285.27   16.00
   5  -8  -1  288.27   13.80
  -8   3  -1  259.57   14.30
  -8   3  -1  257.17   14.30
   8  -3   1  256.47   12.50
  -5   8   1  263.07   12.70
  -5   8   1  286.47   15.40
  -8   4  -1 1304.37   39.90
  -8   4  -1 1372.66   40.00
   4   4  -1 1322.17   40.00
   4  -8  -1 1355.66   38.70
   4  -8  -1 1260.77   41.70
  -4   8   1 1291.57   41.60
   8  -4   1 1328.97   37.90
  -4   8   1 1342.17   37.40
   3  -8  -1    6.10    3.40
  -8   5  -1    6.50    2.90
  -8   5  -1    7.80    3.40
   3  -8  -1    3.40    2.50
   5   3  -1    7.20    3.30
  -3   8   1    8.30    2.80
   8  -5   1    7.60    3.10
  -8   6  -1 2101.69   57.09
   6   2  -1 2188.78   59.99
  -8   6  -1 2264.47   59.09
   2  -8  -1 2141.29   61.89
  -2   8   1 2185.78   56.99
  -6  -2   1 2193.48   62.19
   8  -6   1 2135.79   58.19
  -8   7  -1   34.30    5.50
   1  -8  -1   38.40    6.90
  -8   7  -1   41.30    5.10
  -7  -1   1   43.10    7.20
   8  -7   1   34.60    5.40
  -1   8   1   31.60    5.20
   6  -9  -1   36.30    6.70
  -9   3  -1   27.00    6.20
   9  -3   1   43.60    5.70
   5  -9  -1   68.39    7.40
   4   5  -1   57.19    7.20
   5  -9  -1   50.99    8.90
  -9   4  -1   56.99    7.40
  -9   4  -1   54.39    7.50
  -5   9   1   45.30    7.40
  -5   9   1   55.89    6.40
   9  -4   1   62.39    6.70
   4  -9  -1   89.59    8.40
  -9   5  -1   82.19    8.40
  -9   5  -1   93.49    8.80
   5   4  -1   85.29    8.80
   9  -5   1   91.49    8.10
  -4   9   1   75.79    7.20
  -4   9   1   83.89    9.30
  -9   6  -1    5.50    3.40
   9  -6   1    9.20    3.80
   0   0  -2 7409.56  175.58
   0   0  -2 7327.47  175.48
   0   0   2 7378.76  169.08
  -1   0  -2 2788.62   65.39
   0   1  -2 2876.71   64.59
  -1   0  -2 2982.80   64.19
   0   1  -2 2710.13   64.29
   0   1  -2 2954.70   64.89
   0   1  -2 2824.12   64.69
  -1   1   2 2792.62   66.09
   1   0   2 2760.92   64.89
   0  -1   2 2972.70   65.19
   0  -1   2 2833.02   63.19
  -1   1   2 2897.01   66.09
  -1   1  -2    6.20    1.60
   0  -1  -2    4.60    2.20
   1   0  -2    9.10    2.10
   1   0  -2    3.80    1.90
   1   0  -2    4.40    2.00
  -1   1  -2    7.80    1.70
   1  -1   2    6.30    1.60
   1  -1   2    5.60    0.90
   0   1   2    7.30    2.20
  -1   0   2    4.50    1.90
  -1   0   2    3.60    1.80
   1  -1   2    4.40    1.00
  -1  -1  -2  568.84   17.10
  -1   2  -2  598.64   13.90
   2  -1  -2  607.94   16.90
  -1   2  -2  612.14   17.10
   2  -1  -2  589.34   13.90
  -1   2  -2  587.94   13.80
  -2   1   2  565.34   17.30
   1   1   2  575.94   16.70
  -2   1   2  605.04   17.40
   3  -2  -2 1258.97   30.50
   3  -2  -2 1303.87   32.60
  -2  -1  -2 1244.08   33.30
  -1   3  -2 1364.46   29.60
  -3   2   2 1309.57   34.40
   2   1   2 1233.68   32.70
  -3   2   2 1268.77   34.00
   1  -3   2 1268.27   33.20
  -2   0  -2 8030.40  181.78
   0   2  -2 7581.14  177.08
   0   2  -2 7700.23  175.08
   2  -2  -2 7756.32  179.08
   0   2  -2 7899.91  171.68
   0  -2   2 7114.79  177.18
   0  -2   2 7328.87  171.58
   2   0   2 7806.82  171.78
  -2   2   2 7075.89  169.68
   2   0   2 7662.83  172.48
  -2   1  -2  600.34   16.10
   1  -2  -2  591.64   17.00
   1   1  -2  596.94   16.50
  -2   1  -2  589.84   16.20
   1   1  -2  622.24   16.60
   1  -2  -2  587.44   15.00
   2  -1   2  603.54   15.20
  -1   2   2  606.94   17.40
  -1  -1   2  610.14   15.00
   2  -1   2  617.44   15.60
  -1  -1   2  583.54   16.00
   2  -1   2  605.14   15.20
   0  -2  -2 6913.51  162.08
  -2   2  -2 6863.21  157.38
  -2   2  -2 7237.58  155.58
   2   0  -2 7041.10  160.28
   0  -2  -2 6995.40  154.08
  -2   2  -2 6970.50  156.88
   2  -2   2 6956.10  154.58
  -2   0   2 6990.40  154.68
  -2   0   2 7018.20  154.58
   0   2   2 6788.82  154.68
   2  -2   2 6591.04  153.18
   3  -1  -2  103.69    5.70
  -2   3  -2   97.59    3.30
  -1  -2  -2  103.69    6.10
  -3   1   2   99.59    6.10
   2  -3   2   96.19    5.30
  -3   1   2   97.49    6.00
   1   2   2   99.89    5.70
   1   2   2  101.89    2.90
  -2   4  -2 4869.41  107.49
   4  -2  -2 4878.71  110.79
  -2  -2  -2 4817.82  111.99
   2  -4   2 4887.21  112.39
  -4   2   2 4726.43  112.39
   2  -4   2 4871.31  110.99
  -4   2   2 4866.01  112.99
   2   2   2 4906.21  111.39
  -3  -2  -2 1378.76   38.00
   5  -3  -2 1410.36   35.90
   3   2   2 1410.86   37.60
  -5   3   2 1366.46   38.50
   2  -5   2 1391.26   38.40
  -5   3   2 1370.46   39.10
   2  -5   2 1316.97   36.70
   4  -3  -2  123.09    5.90
  -1   4  -2  122.79    3.80
   4  -3  -2  126.19    6.20
  -3  -1  -2  115.89    7.00
  -1   4  -2  122.89    3.90
   1  -4   2  114.39    6.90
  -4   3   2  115.19    7.30
  -4   3   2  118.19    7.60
   3   1   2  110.29    6.40
   0   3  -2  115.89    4.80
   3  -3  -2  119.89    5.90
   3  -3  -2  130.29    5.90
  -3   0  -2  125.99    6.60
   0   3  -2  118.19    4.90
   3   0   2  120.59    4.50
   0  -3   2  126.39    6.30
  -3   3   2  129.49    7.10
   3   0   2  126.09    6.10
   2  -3  -2 1231.38   30.60
  -3   1  -2 1308.57   31.50
  -3   1  -2 1275.77   31.70
   1   2  -2 1326.77   31.50
   2  -3  -2 1278.67   31.40
  -3   1  -2 1177.58   31.50
   1   2  -2 1237.48   31.10
  -1  -2   2 1251.47   30.70
  -1  -2   2 1249.97   31.20
   3  -1   2 1253.87   30.00
  -2   3   2 1253.27   32.70
  -1  -2   2 1270.17   29.30
  -3   2  -2   99.29    4.60
   1  -3  -2   99.59    4.20
   1  -3  -2  110.19    5.50
  -3   2  -2   95.29    4.60
  -3   2  -2   98.79    4.50
   2   1  -2   99.49    5.50
   3  -2   2  101.79    4.80
  -1   3   2  104.29    5.90
  -2  -1   2   97.99    5.50
  -2  -1   2   97.59    3.80
  -2  -1   2   97.69    5.20
   0  -3  -2 1016.90   28.10
  -3   3  -2 1065.69   25.30
  -3   3  -2 1046.60   24.50
  -3   3  -2 1065.29   24.80
   0  -3  -2 1043.80   25.00
   3   0  -2 1060.09   28.40
   3  -3   2 1100.49   25.80
   3  -3   2 1074.59   27.40
  -3   0   2 1037.90   28.80
  -3   0   2 1054.09   28.70
   0   3   2 1064.29   28.30
  -3   4  -2 1179.58   28.00
   4  -1  -2 1179.68   31.70
  -1  -3  -2 1190.28   31.90
   3  -4   2 1178.88   31.00
  -4   1   2 1175.98   32.40
   1   3   2 1137.49   31.40
  -4   1   2 1180.98   26.90
  -4   1   2 1139.49   32.50
   5  -2  -2   22.20    3.20
  -2  -3  -2   20.20    3.30
  -3   5  -2   21.40    2.30
   3  -5   2   23.00    3.50
  -5   2   2   25.10    4.00
  -5   2   2   22.10    3.80
   2   3   2   33.40    4.10
   3  -5   2   24.20    3.80
  -5   2   2   22.50    2.00
  -3  -3  -2  287.67   13.10
  -3   6  -2  282.37   10.40
  -6   3   2  274.27   14.00
   3  -6   2  262.67   12.20
   3  -6   2  275.77   13.80
   3   3   2  276.67   13.00
  -6   3   2  280.17   13.70
  -3   7  -2  501.05   12.50
  -7   4   2  500.55   21.40
  -7   4   2  459.05   20.30
   4   3   2  512.25   20.20
   3  -7   2  542.25   21.80
  -2   6  -2 2778.02   62.89
   6  -4  -2 2778.72   69.99
  -4  -2  -2 2820.22   71.39
  -2   6  -2 2917.71   63.29
  -6   4   2 2842.92   72.99
   4   2   2 2824.12   70.79
  -6   4   2 2890.61   72.29
   2  -6   2 2720.33   71.49
   5  -4  -2  550.14   17.60
  -4  -1  -2  550.54   19.30
  -1   5  -2  519.75   14.30
  -1   5  -2  551.14   14.50
   5  -4  -2  554.14   18.20
   1  -5   2  538.25   19.00
   4   1   2  540.85   18.50
  -5   4   2  551.94   19.70
  -5   4   2  505.35   19.80
   0   4  -2 4887.21  113.59
  -4   0  -2 4946.51  112.29
   4  -4  -2 4596.64  110.59
   4  -4  -2 4897.81  111.19
  -4   0  -2 4867.61  112.19
   0   4  -2 4915.91  108.39
  -4   4   2 4731.83  112.59
  -4   4   2 4792.42  114.39
   4   0   2 4892.81  107.79
   0  -4   2 4749.42  111.39
   4   0   2 4976.30  111.09
  -4   1  -2  119.29    6.50
   3  -4  -2  112.59    6.60
  -4   1  -2  111.59    6.50
   1   3  -2  113.99    5.70
   3  -4  -2  109.69    5.70
   1   3  -2  123.59    5.90
  -3   4   2  121.19    7.80
  -3   4   2  125.09    7.10
  -1  -3   2  115.29    6.00
   4  -1   2  123.19    5.90
   4  -1   2  122.99    5.20
   2   2  -2 5022.40  111.09
  -4   2  -2 4905.11  110.09
  -4   2  -2 4985.90  110.29
   2  -4  -2 4715.03  109.19
  -4   2  -2 4729.43  110.09
   4  -2   2 5038.80  107.29
  -2  -2   2 4753.52  111.09
   4  -2   2 4862.81  109.29
  -2   4   2 4815.92  111.49
   3   1  -2 1105.09   30.90
  -4   3  -2 1107.09   28.40
  -4   3  -2 1167.08   28.90
   1  -4  -2 1178.68   29.40
  -4   3  -2 1178.28   28.60
   1  -4  -2 1167.68   28.50
  -1   4   2 1157.98   30.90
  -3  -1   2 1170.88   30.70
   4  -3   2 1143.99   29.70
  -3  -1   2 1133.09   31.50
   4   0  -2 4585.54  104.49
  -4   4  -2 4534.75  100.89
  -4   4  -2 4518.95  102.19
  -4   4  -2 4580.44   99.49
   0  -4  -2 4379.06  102.79
  -4   0   2 4500.95  104.89
   4  -4   2 4371.66  102.99
   0   4   2 4477.55  103.99
   5  -1  -2  155.78    8.60
  -1  -4  -2  162.68    8.30
  -4   5  -2  169.58    6.80
  -5   1   2  157.88    9.50
   4  -5   2  160.28    8.50
  -5   1   2  163.28    9.40
   1   4   2  159.28    8.70
   6  -2  -2 3863.81   92.59
  -4   6  -2 3911.71   89.09
   4  -6   2 3923.91   96.19
  -6   2   2 3891.31   95.99
  -6   2   2 3821.12   95.09
   4  -6   2 3886.21   92.79
   2   4   2 3909.01   93.99
  -7   3   2   93.19    8.60
  -7   3   2   90.59    8.30
   4  -7   2  101.19    8.80
   4  -7   2   88.49    7.50
   8  -4  -2 1985.70   54.69
  -4   8  -2 1966.30   45.00
  -8   4   2 1981.20   57.09
  -8   4   2 1958.10   58.09
   4  -8   2 1986.70   57.89
   4  -8   2 2007.60   54.89
   4   4   2 1949.51   55.79
  -3   8  -2  212.38    7.90
   8  -5  -2  219.88   12.90
  -8   5   2  204.38   13.50
   3  -8   2  206.18   13.70
   5   3   2  201.38   12.70
  -8   5   2  228.28   14.60
  -2   7  -2   71.59    4.20
  -5  -2  -2   81.49    7.60
   7  -5  -2   64.69    6.70
  -7   5   2   77.39    7.80
   5   2   2   69.09    6.80
  -7   5   2   60.09    7.50
   2  -7   2   83.59    8.10
  -5  -1  -2  517.65   19.90
  -1   6  -2  520.35   15.10
   6  -5  -2  508.45   18.80
  -6   5   2  506.45   20.00
   5   1   2  518.75   19.10
   1  -6   2  499.45   19.60
  -6   5   2  510.15   20.80
   5  -5  -2   88.89    6.20
  -5   0  -2   76.99    6.60
   0   5  -2   79.79    4.90
   5  -5  -2   82.09    6.30
  -5   0  -2   86.19    6.80
  -5   5   2   77.79    6.70
  -5   5   2   80.29    7.20
   5   0   2   75.69    4.50
   5   0   2   88.39    6.10
   0  -5   2   78.29    6.20
  -5   1  -2  521.85   18.30
   1   4  -2  535.05   16.90
   4  -5  -2  528.35   18.50
   4  -5  -2  525.65   17.20
  -5   1  -2  562.34   18.80
   5  -1   2  531.65   15.80
  -4   5   2  540.45   19.00
   5  -1   2  564.24   17.20
  -4   5   2  533.85   20.30
  -1  -4   2  535.25   17.80
   3  -5  -2 1335.37   33.70
   3  -5  -2 1310.37   36.30
   2   3  -2 1280.67   34.40
  -5   2  -2 1357.56   34.80
  -5   2  -2 1292.47   34.70
  -3   5   2 1280.57   35.10
   5  -2   2 1285.47   32.80
  -3   5   2 1268.57   37.30
  -2  -3   2 1274.87   35.00
   2  -5  -2   20.40    2.60
  -5   3  -2   24.40    3.00
  -5   3  -2   25.70    3.00
   3   2  -2   21.00    3.30
  -2   5   2   23.60    3.50
  -3  -2   2   32.00    3.30
   5  -3   2   18.90    2.70
  -3  -2   2   25.50    3.60
  -5   4  -2  166.08    7.50
   1  -5  -2  166.08    7.20
   4   1  -2  163.38    9.00
  -5   4  -2  162.98    7.10
  -1   5   2  160.48    8.50
  -4  -1   2  176.68    9.70
   5  -4   2  168.28    8.20
  -4  -1   2  169.68    8.80
  -5   5  -2  673.63   18.10
  -5   5  -2  686.03   19.60
   5   0  -2  677.73   22.50
  -5   0   2  719.93   23.20
  -5   0   2  660.63   23.40
   5  -5   2  677.43   21.50
   0   5   2  642.44   21.80
   6  -1  -2  184.28   10.20
  -5   6  -2  194.28    8.40
  -5   6  -2  185.08    6.40
   1   5   2  191.78   10.50
  -6   1   2  202.48   11.40
   5  -6   2  178.48    9.80
  -5   7  -2  478.05   12.40
   2   5   2  473.95   19.50
   5  -7   2  460.55   18.50
  -7   2   2  498.95   21.30
  -7   2   2  485.15   20.40
  -5   8  -2  328.77    9.60
   3   5   2  329.37   16.90
   5  -8   2  327.27   18.20
   5  -8   2  362.76   16.60
  -8   3   2  352.46   18.60
  -8   3   2  328.67   17.50
   8  -6  -2 2254.87   61.29
  -2   8  -2 2203.68   54.59
  -8   6   2 2288.07   64.79
  -8   6   2 2297.57   63.39
   2  -8   2 2199.58   63.29
   7  -6  -2  111.49    8.60
  -1   7  -2  100.29    6.00
  -6  -1  -2   92.29    8.40
   1  -7   2   97.49    8.70
  -7   6   2   95.69    8.70
  -7   6   2   89.89    9.10
   0   6  -2 2676.63   65.39
   6  -6  -2 2777.52   68.69
   6  -6  -2 2739.53   69.49
  -6   0  -2 2732.73   70.59
  -6   0  -2 2799.02   70.79
  -6   6   2 2653.93   70.09
  -6   6   2 2701.13   71.99
   6   0   2 2733.73   64.59
   0  -6   2 2694.13   69.39
   1   5  -2  499.35   16.90
  -6   1  -2  485.55   18.90
  -6   1  -2  458.15   18.50
   5  -6  -2  540.25   19.80
   5  -6  -2  506.25   17.90
  -1  -5   2  483.65   18.10
   6  -1   2  511.55   16.10
  -5   6   2  523.05   19.30
  -5   6   2  502.05   20.80
   4  -6  -2 2769.32   66.99
  -6   2  -2 2704.23   68.29
  -6   2  -2 2807.62   68.39
   2   4  -2 2698.73   67.29
   4  -6  -2 2791.22   69.99
   6  -2   2 2768.62   65.49
  -2  -4   2 2860.11   67.39
  -4   6   2 2656.93   68.29
  -4   6   2 2700.33   71.59
   3   3  -2  282.97   12.30
  -6   3  -2  262.57   11.60
  -6   3  -2  259.97   11.50
   3  -6  -2  259.07   13.10
   3  -6  -2  269.87   11.10
  -3   6   2  276.07   12.10
  -3  -3   2  272.07   12.70
   6  -3   2  249.38   10.60
  -6   4  -2 3866.01   91.49
  -6   4  -2 3931.31   91.39
   4   2  -2 3923.21   94.09
   2  -6  -2 3917.81   90.89
  -4  -2   2 3818.12   94.59
  -2   6   2 3912.41   92.99
   6  -4   2 3928.01   91.79
   5   1  -2  186.68   10.60
  -6   5  -2  183.48    8.40
  -6   5  -2  188.88    9.00
  -1   6   2  193.08   10.20
   6  -5   2  190.78    9.70
  -5  -1   2  192.18   11.40
  -6   6  -2 2340.27   57.09
  -6   6  -2 2328.47   55.39
   6   0  -2 2325.17   60.99
   0   6   2 2290.07   60.49
  -6   0   2 2324.97   62.99
  -6   0   2 2373.36   61.89
   6  -6   2 2301.47   59.59
  -6   7  -2  523.65   15.40
  -7   1   2  531.65   22.80
   6  -7   2  499.75   20.00
   1   6   2  510.05   20.70
  -7   1   2  537.35   21.90
  -6   8  -2 1560.64   38.30
   6  -8   2 1476.75   45.40
  -8   2   2 1624.74   48.90
   2   6   2 1626.34   47.50
  -8   2   2 1595.04   49.70
   8  -7  -2  216.18   13.20
  -1   8  -2  193.08   10.20
   1  -8   2  236.28   14.60
  -8   7   2  216.18   14.60
  -8   7   2  202.08   13.60
  -7   0  -2  734.93   27.30
   0   7  -2  704.53   22.70
   7  -7  -2  691.13   25.20
   0  -7   2  719.63   26.40
  -7   7   2  704.03   26.60
  -7   7   2  678.03   27.60
   1   6  -2  104.29    7.30
  -7   1  -2  115.29    9.00
   6  -7  -2   91.39    7.70
  -7   1  -2   90.79    8.50
   6  -7  -2  103.59    8.80
  -6   7   2  112.89    9.70
   7  -1   2   93.39    6.40
  -1  -6   2  110.39    8.30
  -6   7   2  103.09    8.50
  -7   2  -2   94.19    7.70
   5  -7  -2   68.19    6.20
   5  -7  -2   62.99    7.00
   2   5  -2   69.79    6.30
  -7   2  -2   62.79    6.60
  -5   7   2   77.69    7.20
   7  -2   2   72.69    5.60
  -2  -5   2   71.89    6.20
  -5   7   2   73.39    7.90
   3   4  -2  513.15   19.30
   4  -7  -2  536.15   18.50
  -7   3  -2  496.65   19.00
   4  -7  -2  495.75   20.70
  -7   3  -2  510.15   19.20
   7  -3   2  483.05   17.10
  -4   7   2  486.65   19.00
  -4   7   2  513.85   21.90
   3  -7  -2   96.99    6.80
  -7   4  -2  111.69    7.60
   4   3  -2   94.49    7.80
   3  -7  -2   94.69    8.60
  -7   4  -2   96.19    7.20
   7  -4   2   88.99    6.60
  -4  -3   2   97.99    8.30
  -3   7   2   94.89    7.40
   2  -7  -2  517.65   17.50
  -7   5  -2  476.95   17.60
  -7   5  -2  479.55   17.40
   5   2  -2  468.45   19.40
   7  -5   2  479.95   18.00
  -2   7   2  497.45   18.80
  -5  -2   2  470.75   20.30
  -7   6  -2  508.55   17.60
   6   1  -2  542.35   21.30
   7  -6   2  524.55   19.80
  -6  -1   2  541.95   22.50
  -1   7   2  506.05   20.10
  -7   7  -2   24.70    3.40
  -7   0   2   25.60    5.80
   0   7   2   21.80    4.80
   7  -7   2   13.10    3.90
  -7   8  -2  148.39    7.70
   1   7   2  146.49   11.40
   7  -8   2  159.08   11.10
  -8   1   2  187.58   13.70
  -8   1  -2  225.88   14.10
   7  -8  -2  203.18   13.90
   7  -8  -2  206.08   12.50
   1   7  -2  212.78   11.70
  -8   1  -2  199.48   13.50
  -7   8   2  188.78   12.80
  -1  -7   2  200.98   12.60
  -7   8   2  214.48   14.70
  -8   2  -2 2186.28   60.99
  -8   2  -2 2261.07   61.29
   6  -8  -2 2247.58   62.69
   6  -8  -2 2153.88   58.79
   2   6  -2 2214.18   58.69
  -6   8   2 2182.28   63.49
   8  -2   2 2222.58   56.19
  -6   8   2 2183.88   60.29
  -2  -6   2 2175.38   59.19
  -8   3  -2  202.88   12.00
   5  -8  -2  198.88   11.30
   3   5  -2  197.98   11.80
   5  -8  -2  192.18   13.10
  -8   3  -2  192.58   12.10
  -5   8   2  196.58   13.60
  -5   8   2  198.58   11.90
   8  -3   2  182.98   10.00
   4  -8  -2 2025.30   51.89
   4  -8  -2 1855.71   55.39
  -8   4  -2 1926.01   52.69
  -8   4  -2 1960.90   52.59
   4   4  -2 1849.31   52.99
  -4   8   2 1913.51   56.69
  -4   8   2 1884.01   52.29
   8  -4   2 1848.02   50.19
   5   3  -2  337.17   16.60
  -8   5  -2  318.67   14.70
   3  -8  -2  317.97   17.30
   3  -8  -2  320.27   14.40
  -8   5  -2  296.67   14.50
   8  -5   2  309.17   14.30
  -3   8   2  332.87   15.60
  -5  -3   2  318.97   17.00
   6   2  -2 1580.34   47.00
  -8   6  -2 1529.95   43.10
  -2   8   2 1547.05   45.10
   8  -6   2 1585.54   44.50
  -6  -2   2 1544.55   48.10
  -8   7  -2  155.68    9.30
   7   1  -2  154.18   12.40
  -1   8   2  151.78   11.10
   8  -7   2  152.18   10.70
  -7  -1   2  148.89   12.30
   0   0  -3 3844.92   92.79
   0   0   3 4136.39   91.29
   0   0   3 4166.58   92.19
   0   1  -3    1.50    1.40
  -1   0  -3   -1.30    1.30
   0   1  -3    0.30    1.20
   0   1  -3    7.50    2.20
   1  -1  -3   -1.40    1.30
  -1   1   3    1.60    1.50
   0  -1   3    0.10    0.90
  -1   1   3    6.10    2.10
   1   0   3   -1.00    1.00
   0  -1   3   -1.40    0.70
  -1   1  -3   32.30    3.10
   0  -1  -3   28.70    3.40
  -1   1  -3   29.90    3.10
  -1   0   3   26.00    2.70
   0   1   3   34.00    3.40
   1  -1   3   29.40    2.20
  -1   0   3   26.70    2.90
  -1   2  -3  547.75   15.50
  -1  -1  -3  566.74   17.90
  -1   2  -3  544.95   15.30
   2  -1  -3  543.75   17.50
  -2   1   3  565.54   17.80
  -2   1   3  551.54   17.40
   1   1   3  552.94   17.10
   3  -2  -3   54.89    2.90
  -2  -1  -3   43.40    4.30
  -1   3  -3   47.10    3.10
   3  -2  -3   58.09    4.50
  -1   3  -3   52.19    2.90
  -3   2   3   52.29    5.00
   2   1   3   52.99    4.30
  -3   2   3   46.90    4.70
  -2   0  -3 5635.84  129.29
   0   2  -3 5762.42  127.29
   0   2  -3 5849.71  127.99
   0   2  -3 5948.80  128.69
   2  -2  -3 5714.33  129.59
   0   2  -3 5450.96  127.49
   0  -2   3 5617.04  126.79
  -2   2   3 5500.65  130.29
   2   0   3 5885.81  128.49
  -2   2   3 5661.93  130.29
   1  -2  -3  523.05   17.50
   1   1  -3  556.64   17.00
   1   1  -3  555.94   16.90
  -2   1  -3  578.74   17.00
  -2   1  -3  536.55   16.40
   1   1  -3  564.54   17.00
   1   1  -3  593.54   14.80
  -1   2   3  536.85   17.60
   2  -1   3  568.34   15.00
   2  -1   3  541.65   14.70
  -1  -1   3  548.45   15.50
   2   0  -3 2508.75   61.19
  -2   2  -3 2650.63   59.49
   0  -2  -3 2624.34   55.99
  -2   2  -3 2516.95   58.69
   0  -2  -3 2603.34   62.19
  -2   0   3 2542.15   60.69
  -2   0   3 2490.25   60.79
   2  -2   3 2520.35   59.19
   0   2   3 2498.35   61.39
  -2   3  -3   12.50    1.50
  -2   3  -3   12.40    1.40
  -1  -2  -3   10.60    2.70
   3  -1  -3    7.90    2.10
   2  -3   3   11.90    2.50
  -3   1   3   11.20    2.80
  -3   1   3   11.30    2.70
   1   2   3    9.70    2.30
   4  -2  -3 3273.57   77.89
  -2   4  -3 3281.07   71.89
  -2  -2  -3 3301.27   79.29
  -2   4  -3 3272.27   71.79
   2   2   3 3269.17   78.29
  -4   2   3 3216.58   79.59
  -4   2   3 3238.18   79.99
  -2   5  -3   44.70    2.20
  -3  -2  -3   46.30    5.20
   5  -3  -3   49.60    4.70
  -2   5  -3   44.30    2.00
   3   2   3   45.20    4.90
   2  -5   3   39.20    4.90
  -5   3   3   44.60    5.80
  -5   3   3   34.30    5.10
  -3  -1  -3  102.09    7.10
   4  -3  -3   96.79    6.20
  -1   4  -3  111.29    4.60
   4  -3  -3  114.19    5.30
  -1   4  -3   99.79    4.60
  -4   3   3  102.29    7.50
  -4   3   3  106.49    7.70
   1  -4   3   91.99    6.40
   3   1   3  106.19    6.60
   0   3  -3  321.37   10.40
  -3   0  -3  282.37   12.10
   0   3  -3  309.37   10.50
   0   3  -3  313.87   10.60
   3  -3  -3  306.67   11.70
   3   0   3  326.57   11.70
  -3   3   3  288.97   12.80
   3   0   3  324.97    8.50
  -3   3   3  313.37   13.40
   0  -3   3  308.87   11.30
   2  -3  -3   48.20    4.10
   2  -3  -3   52.79    3.40
  -3   1  -3   50.89    4.20
   1   2  -3   46.30    3.80
   1   2  -3   56.99    4.10
   2  -3  -3   48.50    4.10
  -2   3   3   49.50    4.80
  -1  -2   3   60.49    3.60
  -2   3   3   54.39    4.90
  -1  -2   3   49.20    3.40
   3  -1   3   49.90    3.00
   1  -3  -3   18.70    2.70
  -3   2  -3   13.70    2.10
   2   1  -3   13.50    2.80
   1  -3  -3   11.20    1.40
  -3   2  -3   10.70    2.20
  -1   3   3   12.90    2.80
   3  -2   3   10.10    1.90
  -2  -1   3   10.20    2.20
  -2  -1   3   11.40    2.00
  -3   3  -3  773.62   19.80
  -3   3  -3  797.22   20.50
   0  -3  -3  769.62   23.60
   3   0  -3  752.42   23.10
   0   3   3  773.72   23.60
   3  -3   3  801.02   21.80
  -3   0   3  762.22   23.00
  -3   0   3  794.12   23.30
  -1  -3  -3    4.00    1.80
  -3   4  -3    5.00    0.90
  -3   4  -3    5.30    1.00
   4  -1  -3    5.30    2.00
  -4   1   3    1.90    1.60
   3  -4   3    4.70    1.80
  -4   1   3    3.30    2.20
   1   3   3    3.00    1.80
   5  -2  -3   75.49    6.10
  -2  -3  -3   67.99    6.20
  -5   2   3   88.59    7.30
  -5   2   3   66.49    6.50
   3  -5   3   76.19    6.00
   2   3   3   70.39    6.20
  -3  -3  -3  172.48   10.70
  -6   3   3  179.08   11.70
   3   3   3  180.48   10.60
  -6   3   3  180.78   11.50
   3  -6   3  178.38   11.10
  -7   4   3    7.40    3.30
   4   3   3   10.00    3.60
   3  -7   3   10.10    4.30
  -7   4   3   10.80    4.00
  -2   6  -3 2278.37   51.69
  -4  -2  -3 2235.18   60.39
  -6   4   3 2312.27   61.79
   2  -6   3 2211.78   59.79
   4   2   3 2312.17   59.49
  -6   4   3 2236.78   62.29
  -4  -1  -3  422.46   17.00
   5  -4  -3  409.36   14.00
  -1   5  -3  423.26   12.50
   4   1   3  410.76   15.90
  -5   4   3  423.26   17.70
  -5   4   3  402.26   17.90
   1  -5   3  409.36   16.20
   4  -4  -3 1781.92   44.20
   4  -4  -3 1718.63   44.20
   0   4  -3 1739.23   42.80
   4  -4  -3 1754.42   44.00
  -4   0  -3 1718.13   46.40
   4   0   3 1730.13   40.40
  -4   4   3 1771.42   48.60
   0  -4   3 1805.22   45.20
  -4   4   3 1699.93   47.00
   4   0   3 1790.62   44.70
  -4   1  -3  101.89    6.60
   3  -4  -3  100.29    5.50
   1   3  -3  103.99    5.90
   3  -4  -3   94.29    5.70
  -3   4   3  105.29    7.80
  -1  -3   3   94.39    5.40
  -3   4   3  101.09    7.30
   4  -1   3  107.59    4.70
  -1  -3   3   97.69    5.40
   2   2  -3 3194.08   77.09
  -4   2  -3 3157.38   76.29
   2  -4  -3 3293.17   76.89
   2  -4  -3 3265.07   74.49
  -2   4   3 3233.18   78.79
  -2  -2   3 3277.37   76.49
   4  -2   3 3264.87   74.59
  -2  -2   3 3358.86   73.79
   1  -4  -3    6.20    1.40
   3   1  -3    5.30    2.10
  -4   3  -3    6.60    1.60
  -4   3  -3    3.40    1.10
  -4   3  -3    2.60    1.30
   1  -4  -3    3.00    1.40
  -3  -1   3    4.50    1.90
  -1   4   3    2.60    1.90
  -3  -1   3    1.60    1.20
   4  -3   3    3.20    1.50
  -4   4  -3 3569.74   76.09
  -4   4  -3 3336.07   77.09
   0  -4  -3 3422.06   81.69
  -4   4  -3 3487.85   77.59
   4   0  -3 3381.06   82.39
   0   4   3 3410.86   82.49
  -4   0   3 3386.86   82.89
   4  -4   3 3260.77   80.09
  -4   0   3 3445.26   82.39
  -4   5  -3  198.28    6.00
  -1  -4  -3  211.18   11.20
  -4   5  -3  196.68    6.20
   5  -1  -3  213.38   10.90
   1   4   3  206.18   10.90
   4  -5   3  195.48    9.80
  -5   1   3  216.08   11.70
  -5   1   3  205.78   11.20
   6  -2  -3 1411.06   40.30
   2   4   3 1430.86   41.20
   4  -6   3 1405.36   39.90
  -6   2   3 1469.35   43.20
  -6   2   3 1401.66   42.00
  -7   3   3   19.70    5.00
   4  -7   3   12.90    3.80
   3   4   3   11.30    3.80
  -7   3   3   12.70    4.30
  -8   4   3 1627.74   52.49
  -8   4   3 1759.72   52.49
   4   4   3 1652.03   50.29
   4  -8   3 1690.63   52.09
  -3   8  -3  145.99    5.90
   8  -5  -3  136.59   10.30
  -8   5   3  132.09   12.10
   3  -8   3  144.19   11.70
  -8   5   3  158.38   12.60
  -5  -2  -3  148.89   10.70
   7  -5  -3  141.79    9.80
  -2   7  -3  142.79    6.20
  -7   5   3  152.38   11.90
   2  -7   3  152.18   10.90
  -7   5   3  142.29   11.20
  -5  -1  -3    3.30    2.40
  -1   6  -3    2.10    1.30
   6  -5  -3    2.30    2.20
  -6   5   3   -2.00    1.80
  -6   5   3   28.50    5.90
   1  -6   3   -0.90    1.70
   5  -5  -3    6.50    2.50
   5  -5  -3    4.00    2.30
   0   5  -3    4.50    1.70
  -5   0  -3    3.50    2.30
   0  -5   3    0.90    1.60
  -5   5   3    4.00    2.90
  -5   5   3   16.70    4.10
   1   4  -3  409.56   14.30
   4  -5  -3  403.06   14.30
   4  -5  -3  407.76   15.60
  -5   1  -3  395.26   15.90
  -1  -4   3  399.16   14.50
   5  -1   3  393.86   12.40
  -4   5   3  390.96   17.60
  -4   5   3  421.96   17.10
   2   3  -3   39.80    4.30
  -5   2  -3   48.20    4.70
   3  -5  -3   41.90    3.70
  -5   2  -3   47.80    4.30
   5  -2   3   42.90    3.60
  -2  -3   3   47.30    3.70
  -2  -3   3   44.60    4.20
  -3   5   3   37.80    5.30
  -3   5   3   41.50    5.10
   2  -5  -3   75.19    4.70
  -5   3  -3   81.89    5.10
  -5   3  -3   73.69    5.20
   3   2  -3   69.69    5.90
   5  -3   3   75.69    5.10
  -3  -2   3   67.89    5.70
  -2   5   3   72.09    6.30
  -3  -2   3   78.69    3.90
   4   1  -3  198.48   10.70
   1  -5  -3  205.48    7.70
  -5   4  -3  207.08    7.90
  -5   4  -3  190.88    8.20
  -4  -1   3  203.78   10.90
  -1   5   3  198.38   10.70
   5  -4   3  200.78    9.30
  -5   5  -3   37.80    3.10
   5   0  -3   49.99    5.50
   5  -5   3   41.80    4.70
  -5   0   3   40.40    5.20
  -5   0   3   31.40    4.50
   0   5   3   39.80    5.10
   6  -1  -3   88.19    7.50
  -5   6  -3   96.59    4.20
   1   5   3  102.19    8.30
  -6   1   3  102.59    8.40
  -6   1   3   88.89    8.30
   5  -6   3  102.79    7.50
  -7   2   3  432.56   19.70
   5  -7   3  398.26   17.40
   2   5   3  396.86   18.50
  -7   2   3  406.96   20.00
  -8   3   3   16.00    5.00
   5  -8   3   11.00    3.80
   3   5   3   16.70    5.00
  -8   3   3    7.20    3.90
  -2   8  -3  741.23   21.70
   8  -6  -3  758.62   27.60
  -8   6   3  789.12   31.80
  -8   6   3  748.63   30.00
   2  -8   3  736.93   28.90
  -6  -1  -3   99.09    9.20
   7  -6  -3   93.89    8.00
  -1   7  -3  100.89    6.20
   1  -7   3   98.89    8.80
  -7   6   3  108.99    9.90
  -7   6   3  101.29   10.20
  -6   0  -3 2131.59   57.89
   6  -6  -3 2078.39   55.19
   0   6  -3 2062.99   52.09
   6  -6  -3 2098.79   55.09
   0  -6   3 2109.09   55.99
  -6   6   3 2081.79   59.69
  -6   6   3 2054.09   57.99
   5  -6  -3    0.10    1.50
   1   5  -3    2.40    1.80
  -6   1  -3    1.20    1.90
   5  -6  -3    0.00    1.90
  -1  -5   3    0.40    1.60
  -5   6   3    4.30    3.10
  -5   6   3    3.40    2.60
   6  -1   3    1.00    1.30
   4  -6  -3 2228.98   55.59
  -6   2  -3 2292.77   56.99
   2   4  -3 2180.28   56.69
  -6   2  -3 2238.88   57.99
   4  -6  -3 2236.48   58.79
  -4   6   3 2196.98   59.19
  -2  -4   3 2245.38   55.29
   6  -2   3 2217.68   53.79
  -4   6   3 2157.88   61.19
  -6   3  -3  177.48    9.50
   3   3  -3  169.48    9.80
  -6   3  -3  184.48    9.10
   3  -6  -3  185.38    8.70
  -3  -3   3  162.38    9.50
  -3   6   3  175.68   10.60
   6  -3   3  172.78    8.40
  -6   4  -3 1330.97   36.80
  -6   4  -3 1413.36   36.20
   2  -6  -3 1429.96   35.90
   4   2  -3 1392.76   39.90
  -2   6   3 1375.16   40.00
  -4  -2   3 1382.16   39.90
   6  -4   3 1359.26   37.00
  -6   5  -3   90.29    5.70
   5   1  -3   86.89    7.70
  -1   6   3   87.99    7.60
  -5  -1   3   92.89    8.20
   6  -5   3   99.59    7.00
  -6   6  -3 1927.51   46.50
   6   0  -3 1911.91   53.19
   0   6   3 1889.51   52.89
   6  -6   3 1951.10   51.29
  -6   0   3 1856.41   54.29
  -6   7  -3   19.60    2.40
   1   6   3   22.30    5.00
  -7   1   3   12.50    4.50
   6  -7   3   25.00    5.00
  -8   2   3 1190.08   41.70
   6  -8   3 1146.49   37.50
   2   6   3 1220.48   40.00
   0   7  -3   47.10    5.20
   7  -7  -3   51.99    6.50
  -7   0  -3   74.09    8.30
  -7   7   3   45.10    7.70
  -7   7   3   58.39    7.90
   0  -7   3   56.19    6.70
   1   6  -3   94.29    7.20
   6  -7  -3  109.49    8.20
  -7   1  -3   93.29    8.80
   6  -7  -3  114.39    9.20
  -1  -6   3   91.19    7.70
  -6   7   3   96.69    9.70
  -6   7   3   96.79    9.10
   5  -7  -3  147.19    9.10
  -7   2  -3  140.79    9.60
   5  -7  -3  139.19   10.20
   2   5  -3  145.99    9.30
  -7   2  -3  128.39    9.60
   7  -2   3  143.19    7.60
  -5   7   3  144.39   11.30
  -5   7   3  140.79   10.60
  -7   3  -3    4.70    2.60
   4  -7  -3   11.80    4.30
   4  -7  -3   11.50    2.90
   3   4  -3   13.00    3.70
  -7   3  -3   10.10    3.30
  -4   7   3    7.10    3.40
   7  -3   3   13.20    3.00
  -4   7   3    5.00    3.50
  -7   4  -3   11.10    3.00
   3  -7  -3   15.10    3.10
   4   3  -3   18.70    4.40
  -7   4  -3   16.80    3.70
   7  -4   3   22.70    4.10
  -4  -3   3    9.30    3.30
  -3   7   3   14.50    4.10
  -7   5  -3  396.36   15.50
   5   2  -3  396.66   18.20
  -5  -2   3  418.16   18.70
  -2   7   3  397.76   17.90
   7  -5   3  399.86   16.10
   6   1  -3   15.10    4.30
  -7   6  -3   19.20    3.40
   7  -6   3   12.50    3.60
  -6  -1   3   20.20    5.30
  -1   7   3   17.00    4.60
  -7   7  -3   61.79    5.00
  -7   0   3   72.99    8.80
   7  -7   3   62.29    7.00
   0   7   3   66.39    7.90
  -8   2  -3  702.63   27.80
   6  -8  -3  769.52   29.10
   2   6  -3  758.82   26.50
   6  -8  -3  744.83   26.20
  -6   8   3  723.73   30.50
  -6   8   3  785.62   29.30
   3   5  -3  148.89   10.60
   5  -8  -3  150.98   11.80
  -8   3  -3  143.79   10.00
   5  -8  -3  166.18   10.10
  -8   3  -3  129.79   10.20
  -5   8   3  159.18   13.10
   8  -3   3  135.89   10.30
  -5   8   3  154.88   11.80
   4   4  -3 1590.34   47.50
   4  -8  -3 1590.74   49.50
  -8   4  -3 1588.24   46.30
  -4   8   3 1615.34   51.39
  -4   8   3 1669.83   48.60
   8  -4   3 1621.84   43.90
   3  -8  -3   16.30    5.50
  -8   5  -3    6.60    2.80
   5   3  -3    2.80    3.10
   8  -5   3    6.70    3.10
  -3   8   3   11.30    4.20
  -5  -3   3   21.40    5.50
   6   2  -3 1131.29   38.00
  -8   6  -3 1166.08   34.10
   8  -6   3 1096.19   34.60
  -6  -2   3 1132.09   38.90
  -2   8   3 1166.98   37.80
   0   0  -4 2033.50   50.89
   0   0   4 2007.30   48.20
   0   0   4 1989.70   49.00
   0   1  -4  511.35   16.90
  -1   0  -4  505.05   17.40
   1   0   4  517.55   16.10
   0  -1   4  486.05   13.90
  -1   1   4  512.55   17.10
  -1   1   4  517.15   16.80
   0  -1   4  508.15   14.50
   0  -1  -4  885.41   26.60
   1   0  -4  835.22   25.80
  -1   1  -4  918.21   25.70
   1  -1   4  910.41   22.70
  -1   0   4  891.01   24.90
   0   1   4  880.31   25.80
  -1   0   4  888.21   24.20
   1  -1   4  906.81   22.10
   2  -1  -4  126.89    7.80
  -1  -1  -4  139.89    8.30
  -1   2  -4  141.29    7.10
   2  -1  -4  143.39    8.20
  -1   2  -4  143.09    7.20
  -2   1   4  134.39    7.60
   1   1   4  144.59    7.80
  -2   1   4  131.99    7.70
  -2  -1  -4  252.87   12.20
   3  -2  -4  261.17   12.10
  -1   3  -4  280.67   10.50
   3  -2  -4  273.17    8.20
  -3   2   4  289.37   12.80
   2   1   4  286.67   11.90
  -3   2   4  252.07   12.20
   2  -2  -4 5631.64  131.79
   2  -2  -4 5631.84  131.79
  -2   0  -4 5590.14  131.29
   0   2  -4 5981.10  131.09
   0   2  -4 5717.93  129.89
   2   0   4 5833.52  129.79
  -2   2   4 5718.63  131.79
  -2   2   4 5628.34  131.89
   0  -2   4 5642.54  125.29
   1  -2  -4  137.89    8.20
   1   1  -4  130.49    7.50
   1   1  -4  142.59    5.80
  -2   1  -4  129.99    7.30
  -1   2   4  131.89    8.00
  -1  -1   4  132.69    6.10
   2  -1   4  145.19    5.90
  -2   2  -4 5566.04  122.99
   0  -2  -4 5214.38  125.19
   2   0  -4 5476.15  124.99
  -2   2  -4 5205.08  122.29
  -2   0   4 5456.85  123.49
   0   2   4 5490.45  125.09
  -2   0   4 5323.67  122.99
   3  -1  -4  420.36   16.10
  -2   3  -4  413.06   13.50
  -1  -2  -4  437.36   16.60
  -3   1   4  420.96   16.00
  -3   1   4  419.06   15.90
   1   2   4  396.76   15.50
  -2  -2  -4 1739.43   48.00
   4  -2  -4 1784.02   47.20
  -2   4  -4 1757.82   42.60
   2   2   4 1700.63   46.50
  -4   2   4 1776.02   48.10
  -4   2   4 1769.22   48.30
  -3  -2  -4  418.16   17.90
   5  -3  -4  417.76   16.70
  -2   5  -4  414.76   12.90
  -5   3   4  424.86   18.90
   3   2   4  419.66   17.00
  -5   3   4  406.96   18.20
   4  -3  -4  682.83   22.70
  -1   4  -4  711.03   20.20
  -3  -1  -4  693.93   23.90
   3   1   4  682.83   22.40
  -4   3   4  705.33   24.50
  -4   3   4  677.13   24.30
  -3   0  -4  158.88    9.30
   0   3  -4  174.88    8.30
   3  -3  -4  172.78    9.30
  -3   3   4  177.08   10.10
  -3   3   4  171.48   10.00
   2  -3  -4  253.97   11.70
   2  -3  -4  273.87   12.00
  -3   1  -4  267.47   11.50
   1   2  -4  259.37   11.20
  -2   3   4  257.67   12.50
  -1  -2   4  268.87    9.30
  -2   3   4  256.17   12.40
   1  -3  -4  428.76   11.60
   1  -3  -4  433.26   16.20
   2   1  -4  394.96   15.50
  -3   2  -4  397.26   14.20
  -2  -1   4  419.16   14.40
  -1   3   4  438.06   16.70
   3   0  -4  145.69    8.70
   0  -3  -4  148.59    8.90
  -3   3  -4  144.29    6.90
  -3   0   4  152.88    8.30
  -3   0   4  150.88    8.40
   0   3   4  144.99    8.90
  -1  -3  -4  422.06   17.10
  -3   4  -4  422.26   12.90
   4  -1  -4  426.56   16.80
  -4   1   4  411.06   16.70
   1   3   4  422.56   16.80
  -4   1   4  425.86   17.00
  -2  -3  -4  789.42   27.00
   5  -2  -4  791.82   26.20
  -3   5  -4  809.02   20.60
  -5   2   4  791.02   27.60
  -5   2   4  762.42   27.00
   2   3   4  783.82   26.40
  -3   6  -4   42.40    3.00
  -3  -3  -4   46.70    6.10
   3   3   4   37.70    5.30
  -6   3   4   40.50    6.10
  -6   3   4   43.30    6.70
  -3   7  -4  136.59    5.90
  -7   4   4  144.49   11.80
  -7   4   4  149.49   12.30
  -4  -2  -4 2940.71   75.99
  -2   6  -4 2871.41   67.19
  -6   4   4 2853.41   77.59
  -6   4   4 2882.31   76.69
  -1   5  -4   87.19    5.40
  -4  -1  -4   99.09    8.30
  -1   5  -4   90.49    5.50
  -5   4   4   90.99    8.40
  -5   4   4   80.49    8.20
  -4   0  -4 3441.66   85.59
   4  -4  -4 3497.85   81.59
   4  -4  -4 3466.05   82.39
   0   4  -4 3436.46   81.89
  -4   4   4 3501.45   87.69
  -4   4   4 3505.15   86.79
  -4   1  -4  702.43   23.00
   3  -4  -4  690.33   22.40
   3  -4  -4  700.53   20.30
   1   3  -4  674.23   21.70
  -3   4   4  682.23   24.10
  -3   4   4  668.23   24.50
  -1  -3   4  670.13   19.20
   4  -1   4  717.43   18.20
   2  -4  -4 1770.42   41.70
   2  -4  -4 1753.92   45.80
  -4   2  -4 1640.04   44.60
   2   2  -4 1724.13   45.50
   2  -4  -4 1735.93   45.60
   4  -2   4 1724.63   41.90
  -2   4   4 1717.23   47.40
  -2  -2   4 1757.72   43.80
   3   1  -4  439.36   16.90
   1  -4  -4  413.26   16.20
  -4   3  -4  427.66   14.60
  -1   4   4  421.56   17.30
   4  -3   4  429.76   14.30
  -3  -1   4  415.56   15.70
   0  -4  -4 3866.91   91.19
   4   0  -4 3696.93   91.09
  -4   4  -4 3764.32   86.19
   4  -4   4 3824.12   88.49
  -4   0   4 3597.54   90.89
   0   4   4 3735.43   91.49
  -4   5  -4   88.49    4.70
   5  -1  -4   90.49    7.60
   4  -5   4  105.39    7.30
  -5   1   4   90.29    7.90
  -5   1   4  100.79    8.10
   1   4   4   90.29    7.80
   6  -2  -4 2656.83   68.09
  -4   6  -4 2609.04   59.09
  -6   2   4 2541.25   69.19
  -6   2   4 2585.34   70.19
   2   4   4 2601.24   68.79
  -4   7  -4  192.58    6.40
   3   4   4  196.18   12.80
  -7   3   4  205.58   14.00
  -7   3   4  187.78   13.20
  -2   7  -4  124.09    6.30
  -5  -2  -4  139.89   11.10
   7  -5  -4  100.89    8.70
  -7   5   4  146.39   12.30
  -5  -1  -4  302.97   15.90
   6  -5  -4  292.97   13.80
  -1   6  -4  285.97   11.20
  -6   5   4  288.67   16.50
  -6   5   4  300.87   16.30
   1  -6   4  273.57   14.10
   0   5  -4  177.98    8.80
  -5   0  -4  159.48   10.80
   5  -5  -4  176.48    9.70
  -5   5   4  193.18   12.20
  -5   5   4  173.88   12.00
   0  -5   4  176.88    9.80
  -5   1  -4   84.19    7.30
   4  -5  -4   80.79    6.50
   1   4  -4   88.39    6.50
   4  -5  -4   77.79    5.70
  -4   5   4   88.39    8.10
  -1  -4   4   88.99    6.00
  -4   5   4   87.19    8.30
   2   3  -4  406.36   16.10
   3  -5  -4  425.36   14.10
  -5   2  -4  391.36   16.00
  -2  -3   4  418.76   14.80
  -3   5   4  432.36   18.40
   5  -2   4  416.36   13.30
  -3   5   4  397.66   18.40
  -5   3  -4  747.93   23.60
   3   2  -4  742.53   24.90
  -2   5   4  746.13   26.30
  -3  -2   4  775.32   24.20
   5  -3   4  788.92   22.20
   4   1  -4   87.29    7.50
  -5   4  -4   82.09    5.70
   5  -4   4   81.19    5.90
  -4  -1   4   85.39    7.10
  -1   5   4   88.49    7.70
   5   0  -4  126.39    9.20
  -5   5  -4  107.19    6.00
   5  -5   4   92.89    6.90
   0   5   4  114.19    8.90
  -5   0   4   95.49    8.30
   6  -1  -4  353.86   16.60
  -5   6  -4  365.06   11.50
   5  -6   4  348.97   15.40
  -6   1   4  345.17   17.70
   1   5   4  350.86   17.20
  -5   7  -4  109.79    4.80
  -7   2   4  120.39   11.00
   2   5   4  112.09   10.10
   7  -6  -4  474.35   19.30
  -1   7  -4  419.86   15.30
   1  -7   4  423.16   19.30
  -7   6   4  415.66   21.70
  -7   6   4  424.66   21.30
   0   6  -4 1218.88   34.30
  -6   0  -4 1249.28   39.70
   6  -6  -4 1189.18   36.20
  -6   6   4 1242.18   41.50
  -6   6   4 1264.67   40.60
   0  -6   4 1189.58   39.20
   5  -6  -4  303.97   13.20
  -6   1  -4  276.07   14.90
   1   5  -4  260.47   12.60
  -5   6   4  291.87   15.80
  -5   6   4  345.47   18.00
  -6   2  -4 2680.53   71.89
   2   4  -4 2775.62   70.89
   4  -6  -4 2961.80   69.09
   4  -6  -4 2841.12   72.19
  -4   6   4 2766.92   74.59
  -4   6   4 2881.21   76.49
   3   3  -4   40.40    5.40
  -6   3  -4   30.00    4.50
   6  -3   4   35.70    4.00
  -3   6   4   39.50    6.30
  -3   6   4   38.20    6.10
  -3  -3   4   43.40    4.90
   4   2  -4 2538.25   67.69
  -6   4  -4 2533.25   64.39
  -2   6   4 2641.94   69.09
   6  -4   4 2689.03   63.89
  -4  -2   4 2501.25   66.49
   5   1  -4  350.56   16.90
  -6   5  -4  349.67   13.70
  -5  -1   4  368.06   17.20
   6  -5   4  372.26   15.00
  -1   6   4  362.86   17.30
   6   0  -4 1336.77   41.10
  -6   6  -4 1273.87   34.30
   6  -6   4 1294.37   38.00
   0   6   4 1313.97   41.20
  -6   0   4 1324.57   41.80
  -6   7  -4  285.17   10.50
   1   6   4  290.67   16.60
   6  -7   4  291.27   14.90
  -7   1   4  276.97   16.90
  -7   1  -4  448.36   20.70
   1   6  -4  429.56   17.40
   6  -7  -4  422.16   17.70
  -6   7   4  409.86   21.60
  -6   7   4  418.06   20.80
  -7   2  -4  117.79    9.90
   2   5  -4  125.39    9.10
   5  -7  -4  113.89    9.50
   5  -7  -4  109.99    7.90
  -5   7   4  137.79   11.30
  -5   7   4  111.09   10.80
   3   4  -4  147.59   10.30
  -7   3  -4  153.78   10.50
   4  -7  -4  140.79   10.70
  -4   7   4  133.79   11.90
  -4   7   4  154.98   11.90
  -7   4  -4  184.98   10.90
   4   3  -4  192.98   12.30
  -3   7   4  205.68   14.10
  -3   7   4  201.58   13.30
  -4  -3   4  193.18   11.60
   7  -4   4  184.48    9.80
  -7   5  -4  111.49    7.90
   5   2  -4  101.99    9.40
   7  -5   4  100.59    7.70
  -5  -2   4  105.69    9.20
  -2   7   4  106.39    9.70
  -7   6  -4  275.07   12.40
   6   1  -4  276.67   15.80
   7  -6   4  291.07   14.00
  -1   7   4  270.97   15.80
  -6  -1   4  280.37   16.20
   0   0  -5 2116.49   54.99
   0   0   5 2096.89   51.09
  -1   0  -5   80.89    6.80
   0   1  -5   94.99    7.10
   1  -1  -5  100.09    7.60
   0  -1   5   93.29    4.70
  -1   1   5   95.79    6.70
  -1   1   5   97.39    6.40
   0  -1  -5    2.10    1.90
   1   0  -5    1.40    1.80
  -1   1  -5    1.90    1.60
   0   1   5    7.30    2.20
   0   1   5    2.20    1.70
  -1   0   5    0.70    1.10
   1  -1   5    2.50    1.00
   2  -1  -5  169.28   10.20
  -1   2  -5  162.78    9.10
  -1  -1  -5  155.98    9.80
   2  -1  -5  173.28   10.20
  -2   1   5  166.28    9.00
  -2   1   5  179.28    9.60
   3  -2  -5  108.89    8.20
  -2  -1  -5  100.79    8.20
  -1   3  -5  101.59    6.90
  -3   2   5  122.59    8.40
  -3   2   5   83.09    7.20
  -2   0  -5 1001.20   31.00
   2  -2  -5 1001.00   31.20
   2  -2  -5  998.60   31.20
   0   2  -5  969.20   29.40
  -2   2   5 1023.90   30.50
  -2   2   5  995.00   30.70
  -2   1  -5  163.68    9.60
   1   1  -5  185.98   10.10
   1   1  -5  182.28   10.10
   1  -2  -5  158.68    9.90
  -1   2   5  170.98    9.90
  -1   2   5  177.58    9.80
  -1  -1   5  174.48    7.50
   2   0  -5 3504.85   86.09
   0  -2  -5 3535.35   86.29
  -2   2  -5 3396.66   83.79
  -2   0   5 3505.85   82.79
   0   2   5 3469.15   85.69
   3  -1  -5   31.50    5.00
  -1  -2  -5   34.60    5.20
  -2   3  -5   29.50    4.00
   1   2   5   34.10    4.70
  -3   1   5   31.40    4.30
  -2   4  -5 1658.23   43.40
  -2  -2  -5 1706.83   48.30
   4  -2  -5 1720.83   47.60
  -4   2   5 1713.13   47.80
  -4   2   5 1609.94   47.10
  -2   5  -5   63.59    5.10
  -3  -2  -5   63.69    7.40
  -5   3   5   69.49    7.90
  -5   3   5   61.39    7.10
   4  -3  -5    3.00    2.40
  -1   4  -5    0.40    1.30
  -3  -1  -5    4.10    2.70
  -4   3   5   -0.10    2.30
  -4   3   5    4.40    2.60
   0   3  -5  251.77   11.90
   3  -3  -5  286.47   13.70
  -3   0  -5  270.87   13.60
  -3   3   5  264.27   13.70
  -3   3   5  281.97   14.00
  -3   1  -5   91.39    7.40
   2  -3  -5  104.69    7.90
   1   2  -5   88.39    7.00
   2  -3  -5  101.99    7.90
   1   2  -5   83.09    6.90
  -2   3   5   96.49    7.90
  -2   3   5  100.49    8.00
   2   1  -5   24.80    4.40
  -3   2  -5   33.10    4.30
   1  -3  -5   37.80    5.00
  -1   3   5   42.10    5.50
  -2  -1   5   30.30    3.60
   0  -3  -5   73.89    6.90
   3   0  -5   69.19    6.80
  -3   3  -5   81.89    6.10
  -3   0   5   76.19    6.20
   0   3   5   84.09    7.30
  -1  -3  -5  143.19    9.90
   4  -1  -5  130.69    9.50
  -3   4  -5  135.69    7.60
   1   3   5  118.79    9.00
  -4   1   5  130.19    9.10
  -3   5  -5   51.49    4.50
   5  -2  -5   28.60    4.90
  -2  -3  -5   39.50    5.90
  -5   2   5   35.70    5.90
  -3   6  -5   81.59    5.50
  -6   3   5   81.89    9.10
  -4  -2  -5  744.53   28.80
  -2   6  -5  717.13   22.20
  -2   6  -5  731.93   22.40
  -6   4   5  745.53   29.40
  -6   4   5  723.73   28.60
  -1   5  -5   66.69    5.70
  -1   5  -5   65.49    5.60
  -4  -1  -5   64.39    7.60
  -5   4   5   81.39    8.60
  -5   4   5   76.79    8.20
   0   4  -5 2291.47   57.99
  -4   0  -5 2257.67   61.09
  -4   4   5 2181.98   61.69
  -4   4   5 2295.27   62.09
   3  -4  -5    2.00    1.40
   1   3  -5    0.90    1.70
  -4   1  -5    2.10    2.20
  -3   4   5    0.00    2.00
  -3   4   5    3.20    2.70
  -4   2  -5 1673.83   45.70
   2   2  -5 1630.24   46.20
  -2   4   5 1659.73   48.20
  -2   4   5 1744.63   49.00
  -4   3  -5  140.99    8.40
   3   1  -5  121.29    9.10
  -1   4   5  164.18   10.70
  -3  -1   5  135.19    8.30
  -4   4  -5  763.92   23.20
   4   0  -5  714.83   26.40
   0   4   5  782.72   27.20
  -4   0   5  747.63   25.70
  -4   5  -5  163.68    8.20
   5  -1  -5  177.58   11.60
  -5   1   5  166.38   11.20
   1   4   5  145.79   10.60
  -4   6  -5 1672.73   42.20
  -6   2   5 1668.43   50.59
   6  -5  -5  145.89    9.80
  -5  -1  -5  162.88   12.30
  -1   6  -5  153.58    8.80
  -6   5   5  169.38   13.00
  -6   5   5  142.49   11.90
   5  -5  -5   24.80    4.10
  -5   0  -5   15.90    4.70
   0   5  -5   24.60    4.10
  -5   5   5   29.80    6.10
  -5   5   5   25.80    6.20
  -5   1  -5   72.49    7.60
   4  -5  -5   75.89    6.00
   1   4  -5   70.49    6.60
  -4   5   5   70.59    8.10
  -4   5   5   77.39    8.30
  -5   2  -5   65.79    6.80
   2   3  -5   72.59    7.00
  -3   5   5   64.29    7.60
  -3   5   5   66.69    7.70
  -5   3  -5   28.90    4.60
   3   2  -5   36.70    5.50
  -2   5   5   37.80    6.10
  -5   4  -5  156.98    9.20
   4   1  -5  168.68   11.10
   5  -4   5  168.08    8.90
  -1   5   5  153.58   11.40
  -4  -1   5  160.98   10.10
  -5   5  -5   59.99    5.30
   5   0  -5   55.49    7.10
   0   5   5   71.59    7.80
  -5   0   5   59.49    6.90
   6  -1  -5    7.40    3.20
  -5   6  -5    6.90    2.20
  -6   1   5   13.10    4.70
   1   5   5    3.80    2.90
   0   6  -5 1001.00   31.50
  -6   0  -5 1048.30   36.80
   6  -6  -5  984.20   32.20
  -6   6   5 1072.09   38.40
  -6   6   5 1089.79   38.00
  -6   1  -5  151.08   11.50
   1   5  -5  148.39    9.90
  -5   6   5  152.18   12.20
  -5   6   5  162.48   12.90
  -6   2  -5  759.92   27.60
   2   4  -5  743.73   26.30
  -4   6   5  744.43   29.10
  -4   6   5  765.72   30.10
   3   3  -5   75.09    7.80
  -6   3  -5   71.79    7.40
  -3   6   5   73.49    8.60
  -3   6   5   81.99    9.20
   4   2  -5 1739.73   50.89
  -6   4  -5 1720.93   47.80
  -2   6   5 1739.43   52.19
  -6   5  -5   12.30    3.40
   5   1  -5    4.00    3.20
  -5  -1   5    6.00    3.10
  -1   6   5    5.50    3.40
   6  -5   5    7.60    3.00
   6   0  -5 1226.28   40.80
  -6   6  -5 1271.57   34.90
  -6   0   5 1283.17   41.20
   0   6   5 1241.48   41.30
   6  -6   5 1210.88   37.20
   0   0  -6 2988.80   76.69
   0   1  -6   11.80    3.60
  -1   0  -6   20.10    4.90
   1  -1  -6   18.30    4.60
  -1   1   6   10.50    2.90
   1   0  -6  612.64   23.40
  -1   1  -6  643.24   23.40
   0  -1  -6  626.54   23.90
   0   1   6  617.64   20.90
   2  -1  -6  351.06   16.90
   2  -1  -6  322.47   16.20
  -1  -1  -6  381.36   17.40
  -1   2  -6  345.77   15.60
  -2   1   6  334.27   14.30
  -2  -1  -6   58.29    7.00
  -1   3  -6   58.19    6.10
   3  -2  -6   63.59    7.20
  -3   2   6   41.60    5.50
   0   2  -6 1896.51   52.09
   2  -2  -6 1969.90   54.19
  -2   0  -6 1913.21   53.69
   2  -2  -6 1896.31   53.89
  -2   2   6 1938.91   51.99
   1   1  -6  340.47   16.10
   1  -2  -6  351.26   16.60
   1   1  -6  334.87   16.10
  -2   1  -6  331.07   15.80
  -1   2   6  348.47   15.40
   0  -2  -6 1876.81   52.49
   2   0  -6 1814.42   51.99
  -2   2  -6 1810.12   50.19
   0   2   6 1825.92   49.70
  -1  -2  -6  439.76   19.80
   3  -1  -6  446.66   20.10
  -2   3  -6  440.16   17.90
  -3   1   6  451.05   17.90
  -2   4  -6 2218.78   57.39
  -2  -2  -6 2274.97   62.19
   4  -2  -6 2171.08   61.29
  -4   2   6 2154.58   59.89
  -3  -2  -6    0.60    2.40
  -2   5  -6   -0.40    1.70
  -5   3   6   -2.90    2.50
  -1   4  -6  342.87   15.20
  -3  -1  -6  349.37   18.00
  -4   3   6  376.86   17.80
  -3   0  -6  449.95   19.70
   3  -3  -6  411.86   18.90
   0   3  -6  428.16   17.90
   0   3  -6  403.76   17.60
  -3   3   6  450.85   19.30
   2  -3  -6   63.59    7.10
   2  -3  -6   71.79    7.40
   1   2  -6   63.09    6.80
  -3   1  -6   63.99    7.20
  -2   3   6   61.99    6.80
   1  -3  -6  455.85   19.60
  -3   2  -6  436.36   18.50
   2   1  -6  445.36   19.40
  -1   3   6  439.96   19.00
  -3   3  -6  182.18   10.80
   0  -3  -6  175.68   11.80
   3   0  -6  187.28   12.20
  -3   0   6  175.08   13.30
   4  -1  -6   35.60    6.00
  -3   4  -6   28.40    4.60
  -1  -3  -6   33.40    5.70
  -4   1   6   30.70    4.80
   5  -2  -6  523.05   26.40
  -3   5  -6  480.65   18.30
  -5   2   6  483.85   21.50
  -4  -1  -6  191.38   13.70
  -1   5  -6  177.88   10.60
  -5   4   6  176.68   12.90
   0   4  -6 1348.97   40.10
  -4   0  -6 1307.37   42.70
  -4   4   6 1401.36   43.30
  -4   1  -6  395.46   18.50
   1   3  -6  380.36   17.30
  -3   4   6  377.66   18.60
  -3   4   6  375.76   18.50
   2   2  -6 2080.89   59.19
  -4   2  -6 2169.28   59.09
  -2   4   6 2225.78   61.39
  -2   4   6 2208.98   61.19
  -4   3  -6   32.60    5.30
   3   1  -6   37.80    6.10
  -1   4   6   27.30    6.20
   4   0  -6 1813.02   52.09
  -4   4  -6 1648.83   47.20
  -4   0   6 1741.63   60.99
  -4   5  -6  346.07   14.80
   5  -1  -6  316.07   17.30
  -5   1   6  328.77   16.90
  -5   1  -6  171.88   12.60
   1   4  -6  191.38   12.00
  -4   5   6  184.58   13.40
  -4   5   6  192.28   13.80
  -5   2  -6    1.90    2.80
   2   3  -6    0.10    2.20
  -3   5   6    1.90    3.00
  -3   5   6    3.20    3.60
   3   2  -6  483.55   21.60
  -5   3  -6  488.65   20.30
  -2   5   6  483.35   22.80
  -2   5   6  495.15   22.70
  -5   4  -6  339.37   15.60
   4   1  -6  330.97   17.90
  -1   5   6  326.37   19.90
   0   0  -7  941.81   32.90
   1  -1  -7  101.19    9.60
  -1   0  -7   92.89    9.10
   0   1  -7  112.69    9.70
   1   0  -7   75.39    8.50
   0  -1  -7   91.19    9.10
  -1   1  -7   82.69    8.50
   1   0  -7   74.69    8.40
   2  -1  -7   10.60    4.30
  -1   2  -7   14.00    4.40
  -1  -1  -7   15.30    4.60
  -1   3  -7  196.48   12.30
   3  -2  -7  216.38   14.30
  -2  -1  -7  203.38   14.00
  -2   0  -7  793.82   29.70
   2  -2  -7  760.32   29.50
   0   2  -7  764.32   28.20
  -2   1  -7   23.00    5.60
   1  -2  -7    5.30    3.30
   1   1  -7    6.90    3.50
   1   1  -7   10.40    3.90
  -2   2  -7 1357.36   41.90
   0  -2  -7 1303.27   42.90
   2   0  -7 1365.96   43.30
   3  -1  -7  110.09   10.60
  -2   3  -7  101.09    9.00
  -1  -2  -7  110.89   10.20
   0   3  -7    2.40    3.10
   0   3  -7    8.40    3.80
  -3   0  -7    4.20    3.20
  -3   3   7    6.30    3.40
   1   2  -7  187.48   12.90
  -3   1  -7  208.08   13.60
  -2   3   7  200.78   12.70
  -3   2  -7  102.99    9.40
   2   1  -7  102.49    9.70
  -1   3   7  101.19    9.20
   3   0  -7   22.00    5.70
  -3   3  -7   21.60    5.10
   0   3   7   24.60    5.50

_computing_structure_solution     'SHELXT 2014/4 (Sheldrick, 2014)'
;
_shelx_hkl_checksum              22676
loop_
_space_group_symop_operation_xyz
'x, y, z'
'-y, x-y, z'
'-x+y, -x, z'
'y, x, -z'
'x-y, -y, -z'
'-x, -x+y, -z'
'-x, -y, -z'
'y, -x+y, -z'
'x-y, x, -z'
'-y, -x, z'
'-x+y, y, z'
'x, x-y, z'
loop_
_atom_site_label
_atom_site_type_symbol
_atom_site_fract_x
_atom_site_fract_y
_atom_site_fract_z
_atom_site_U_iso_or_equiv
_atom_site_adp_type
_atom_site_occupancy
_atom_site_site_symmetry_order
_atom_site_calc_flag
_atom_site_refinement_flags_posn
_atom_site_refinement_flags_adp
_atom_site_refinement_flags_occupancy
Sm1 Sm 0.0000 0.0000 0.5000 0.00556(16) Uani 1 12 d S T P
Cu1 Cu 0.5000 0.5000 0.5000 0.00467(16) Uani 1 4 d S T P
Cl1 Cl 0.3333 0.6667 0.8639(2) 0.0118(3) Uani 1 6 d S T P
Cl2 Cl 0.0000 0.0000 0.0000 0.0098(4) Uani 1 12 d S T P
O1 O 0.1936(2) 0.3872(4) 0.3677(4) 0.0048(4) Uani 1 2 d DS T P
H1 H 0.210(5) 0.421(10) 0.228(4) 0.033(14) Uiso 1 2 d DS . P
loop_
_atom_site_aniso_label
_atom_site_aniso_U_11
_atom_site_aniso_U_22
_atom_site_aniso_U_33
_atom_site_aniso_U_23
_atom_site_aniso_U_13
_atom_site_aniso_U_12
Sm1 0.00369(17) 0.00369(17) 0.0093(2) 0.000 0.000 0.00185(8)
Cu1 0.0029(2) 0.0029(2) 0.0071(3) 0.00101(8) -0.00101(8) 0.00069(18)
Cl1 0.0151(4) 0.0151(4) 0.0052(5) 0.000 0.000 0.0075(2)
Cl2 0.0123(5) 0.0123(5) 0.0049(7) 0.000 0.000 0.0061(3)
O1 0.0049(7) 0.0053(9) 0.0042(9) 0.0000(8) 0.0000(4) 0.0027(5)
loop_
_atom_type_symbol
_atom_type_description
_atom_type_scat_dispersion_real
_atom_type_scat_dispersion_imag
_atom_type_scat_source
O O 0.0106 0.0060 'International Tables Vol C Tables 4.2.6.8 and 6.1.1.4'
H H 0.0000 0.0000 'International Tables Vol C Tables 4.2.6.8 and 6.1.1.4'
Cl Cl 0.1484 0.1585 'International Tables Vol C Tables 4.2.6.8 and 6.1.1.4'
Cu Cu 0.3201 1.2651 'International Tables Vol C Tables 4.2.6.8 and 6.1.1.4'
Sm Sm -0.1638 3.4418 'International Tables Vol C Tables 4.2.6.8 and 6.1.1.4'
loop_
_geom_angle_atom_site_label_1
_geom_angle_atom_site_label_2
_geom_angle_atom_site_label_3
_geom_angle
_geom_angle_site_symmetry_1
_geom_angle_site_symmetry_3
O1 Sm1 O1 180.0 9_556 3
O1 Sm1 O1 69.11(5) 9_556 .
O1 Sm1 O1 110.89(5) 3 .
O1 Sm1 O1 110.89(5) 9_556 8_556
O1 Sm1 O1 69.11(5) 3 8_556
O1 Sm1 O1 69.11(5) . 8_556
O1 Sm1 O1 69.11(5) 9_556 2
O1 Sm1 O1 110.89(5) 3 2
O1 Sm1 O1 110.89(5) . 2
O1 Sm1 O1 180.0 8_556 2
O1 Sm1 O1 110.89(5) 9_556 7_556
O1 Sm1 O1 69.11(5) 3 7_556
O1 Sm1 O1 180.0 . 7_556
O1 Sm1 O1 110.89(5) 8_556 7_556
O1 Sm1 O1 69.11(5) 2 7_556
O1 Sm1 Cl2 108.01(5) 9_556 .
O1 Sm1 Cl2 71.99(5) 3 .
O1 Sm1 Cl2 71.99(5) . .
O1 Sm1 Cl2 108.01(5) 8_556 .
O1 Sm1 Cl2 71.99(5) 2 .
O1 Sm1 Cl2 108.01(5) 7_556 .
O1 Sm1 Cl2 71.99(5) 9_556 1_556
O1 Sm1 Cl2 108.01(5) 3 1_556
O1 Sm1 Cl2 108.01(5) . 1_556
O1 Sm1 Cl2 71.99(5) 8_556 1_556
O1 Sm1 Cl2 108.01(5) 2 1_556
O1 Sm1 Cl2 71.99(5) 7_556 1_556
Cl2 Sm1 Cl2 180.0 . 1_556
O1 Sm1 Cu1 90.0 9_556 .
O1 Sm1 Cu1 90.0 3 .
O1 Sm1 Cu1 34.55(2) . .
O1 Sm1 Cu1 34.55(2) 8_556 .
O1 Sm1 Cu1 145.45(2) 2 .
O1 Sm1 Cu1 145.45(2) 7_556 .
Cl2 Sm1 Cu1 90.0 . .
Cl2 Sm1 Cu1 90.0 1_556 .
O1 Sm1 Cu1 90.0 9_556 1_445
O1 Sm1 Cu1 90.0 3 1_445
O1 Sm1 Cu1 145.45(2) . 1_445
O1 Sm1 Cu1 145.45(2) 8_556 1_445
O1 Sm1 Cu1 34.55(2) 2 1_445
O1 Sm1 Cu1 34.55(2) 7_556 1_445
Cl2 Sm1 Cu1 90.0 . 1_445
Cl2 Sm1 Cu1 90.0 1_556 1_445
Cu1 Sm1 Cu1 180.0 . 1_445
O1 Sm1 Cu1 34.55(2) 9_556 3_565
O1 Sm1 Cu1 145.45(2) 3 3_565
O1 Sm1 Cu1 34.55(2) . 3_565
O1 Sm1 Cu1 90.0 8_556 3_565
O1 Sm1 Cu1 90.0 2 3_565
O1 Sm1 Cu1 145.45(2) 7_556 3_565
Cl2 Sm1 Cu1 90.0 . 3_565
Cl2 Sm1 Cu1 90.0 1_556 3_565
Cu1 Sm1 Cu1 60.0 . 3_565
Cu1 Sm1 Cu1 120.0 1_445 3_565
O1 Sm1 Cu1 34.55(2) 9_556 2
O1 Sm1 Cu1 145.45(2) 3 2
O1 Sm1 Cu1 90.0 . 2
O1 Sm1 Cu1 145.45(2) 8_556 2
O1 Sm1 Cu1 34.55(2) 2 2
O1 Sm1 Cu1 90.0 7_556 2
Cl2 Sm1 Cu1 90.0 . 2
Cl2 Sm1 Cu1 90.0 1_556 2
Cu1 Sm1 Cu1 120.0 . 2
Cu1 Sm1 Cu1 60.0 1_445 2
Cu1 Sm1 Cu1 60.0 3_565 2
O1 Cu1 O1 180.0 . 7_666
O1 Cu1 O1 87.33(13) . 8_556
O1 Cu1 O1 92.67(13) 7_666 8_556
O1 Cu1 O1 92.67(13) . 2_665
O1 Cu1 O1 87.33(13) 7_666 2_665
O1 Cu1 O1 180.0 8_556 2_665
O1 Cu1 Sm1 136.34(7) . 1_665
O1 Cu1 Sm1 43.66(7) 7_666 1_665
O1 Cu1 Sm1 136.34(7) 8_556 1_665
O1 Cu1 Sm1 43.66(7) 2_665 1_665
O1 Cu1 Sm1 43.66(7) . .
O1 Cu1 Sm1 136.34(7) 7_666 .
O1 Cu1 Sm1 43.66(7) 8_556 .
O1 Cu1 Sm1 136.34(7) 2_665 .
Sm1 Cu1 Sm1 180.0 1_665 .
Sm1 Cl2 Sm1 180.0 1_554 .
Cu1 O1 Cu1 119.30(11) 3_565 .
Cu1 O1 Sm1 101.78(7) 3_565 .
Cu1 O1 Sm1 101.78(7) . .
Cu1 O1 H1 106.4(19) 3_565 .
Cu1 O1 H1 106.4(19) . .
Sm1 O1 H1 122(4) . .
loop_
_geom_bond_atom_site_label_1
_geom_bond_atom_site_label_2
_geom_bond_distance
_geom_bond_site_symmetry_2
Sm1 O1 2.406(2) 9_556
Sm1 O1 2.406(2) 3
Sm1 O1 2.406(2) .
Sm1 O1 2.406(2) 8_556
Sm1 O1 2.406(2) 2
Sm1 O1 2.406(2) 7_556
Sm1 Cl2 2.8124(3) .
Sm1 Cl2 2.8124(3) 1_556
Sm1 Cu1 3.4114(3) .
Sm1 Cu1 3.4114(3) 1_445
Sm1 Cu1 3.4114(3) 3_565
Sm1 Cu1 3.4114(3) 2
Cu1 O1 1.9765(11) .
Cu1 O1 1.9765(11) 7_666
Cu1 O1 1.9765(11) 8_556
Cu1 O1 1.9765(11) 2_665
Cu1 Sm1 3.4114(3) 1_665
Cl2 Sm1 2.8124(3) 1_554
O1 Cu1 1.9765(11) 3_565
O1 H1 0.81(2) .
loop_
_geom_hbond_atom_site_label_D
_geom_hbond_atom_site_label_H
_geom_hbond_atom_site_label_A
_geom_hbond_distance_DH
_geom_hbond_distance_HA
_geom_hbond_distance_DA
_geom_hbond_angle_DHA
_geom_hbond_site_symmetry_A
O1 H1 Cl1 0.81(2) 2.51(3) 3.280(2) 159(6) 1_554
