#------------------------------------------------------------------------------
#$Date: 2017-09-19 06:51:40 +0300 (Tue, 19 Sep 2017) $
#$Revision: 201014 $
#$URL: file:///home/coder/svn-repositories/cod/cif/7/04/42/7044262.cif $
#------------------------------------------------------------------------------
#
# This file is available in the Crystallography Open Database (COD),
# http://www.crystallography.net/
#
# All data on this site have been placed in the public domain by the
# contributors.
#
data_7044262
loop_
_publ_author_name
'Freccero, Riccardo'
'SOLOKHA, PAVLO'
'Proserpio, Davide M.'
'Saccone, Adriana'
'De Negri, Serena'
_publ_section_title
;
 A new glance on the R2MGe6 (R = rare earth metal, M=another metal)
 compounds. An experimental and theoretical study of R2PdGe6 germanides
;
_journal_name_full               'Dalton Trans.'
_journal_paper_doi               10.1039/C7DT02686B
_journal_year                    2017
_chemical_formula_moiety         'Ge6 Pd Pr2'
_chemical_formula_sum            'Ge6 Pd Pr2'
_chemical_formula_weight         823.76
_space_group_crystal_system      monoclinic
_space_group_IT_number           12
_space_group_name_Hall           '-C 2y'
_space_group_name_H-M_alt        'C 1 2/m 1'
_symmetry_space_group_name_Hall  '-C 2y'
_symmetry_space_group_name_H-M   'C 1 2/m 1'
_audit_creation_method           SHELXL-2014/7
_cell_angle_alpha                90
_cell_angle_beta                 100.391(3)
_cell_angle_gamma                90
_cell_formula_units_Z            4
_cell_length_a                   8.157(2)
_cell_length_b                   8.328(2)
_cell_length_c                   11.195(2)
_cell_measurement_reflns_used    1062
_cell_measurement_temperature    295(2)
_cell_measurement_theta_max      30.626
_cell_measurement_theta_min      3.679
_cell_volume                     748.0(3)
_computing_structure_refinement  'SHELXL-2014/7 (Sheldrick, 2014)'
_diffrn_ambient_temperature      295(2)
_diffrn_measured_fraction_theta_full 1.000
_diffrn_measured_fraction_theta_max 0.953
_diffrn_measurement_device_type  'Bruker APEXII'
_diffrn_measurement_method       '\w scans'
_diffrn_radiation_monochromator  graphite
_diffrn_radiation_source         'fine-focus sealed tube'
_diffrn_radiation_type           MoK\a
_diffrn_radiation_wavelength     0.71073
_diffrn_reflns_av_R_equivalents  0.038
_diffrn_reflns_av_unetI/netI     0.0246
_diffrn_reflns_Laue_measured_fraction_full 1.000
_diffrn_reflns_Laue_measured_fraction_max 0.953
_diffrn_reflns_limit_h_max       11
_diffrn_reflns_limit_h_min       -11
_diffrn_reflns_limit_k_max       11
_diffrn_reflns_limit_k_min       0
_diffrn_reflns_limit_l_max       16
_diffrn_reflns_limit_l_min       0
_diffrn_reflns_number            1262
_diffrn_reflns_point_group_measured_fraction_full 1.000
_diffrn_reflns_point_group_measured_fraction_max 0.953
_diffrn_reflns_theta_full        25.242
_diffrn_reflns_theta_max         31.467
_diffrn_reflns_theta_min         1.849
_diffrn_standards_decay_%        0
_diffrn_standards_interval_count 0
_diffrn_standards_interval_time  0
_diffrn_standards_number         0
_exptl_absorpt_coefficient_mu    38.733
_exptl_absorpt_correction_type   multi-scan
_exptl_absorpt_process_details   'Bruker TWINABS'
_exptl_crystal_colour            'metallic grey'
_exptl_crystal_density_diffrn    7.314
_exptl_crystal_density_method    'not measured'
_exptl_crystal_description       'irregularly shaped'
_exptl_crystal_F_000             1424
_exptl_crystal_size_max          0.04
_exptl_crystal_size_mid          0.04
_exptl_crystal_size_min          0.03
_exptl_transmission_factor_max   0.746
_exptl_transmission_factor_min   0.519
_refine_diff_density_max         4.351
_refine_diff_density_min         -5.293
_refine_diff_density_rms         1.251
_refine_ls_extinction_coef       0.00023(9)
_refine_ls_extinction_expression Fc^*^=kFc[1+0.001xFc^2^\l^3^/sin(2\q)]^-1/4^
_refine_ls_extinction_method     'SHELXL-2014/7 (Sheldrick 2014'
_refine_ls_goodness_of_fit_ref   1.453
_refine_ls_hydrogen_treatment    undef
_refine_ls_matrix_type           full
_refine_ls_number_parameters     51
_refine_ls_number_reflns         1262
_refine_ls_number_restraints     0
_refine_ls_restrained_S_all      1.453
_refine_ls_R_factor_all          0.0501
_refine_ls_R_factor_gt           0.0357
_refine_ls_shift/su_max          0.002
_refine_ls_shift/su_mean         0.000
_refine_ls_structure_factor_coef Fsqd
_refine_ls_weighting_details
'w=1/[\s^2^(Fo^2^)+(0.0578P)^2^+0.4689P] where P=(Fo^2^+2Fc^2^)/3'
_refine_ls_weighting_scheme      calc
_refine_ls_wR_factor_gt          0.1166
_refine_ls_wR_factor_ref         0.1209
_reflns_Friedel_coverage         0.000
_reflns_number_gt                1062
_reflns_number_total             1262
_reflns_threshold_expression     'I > 2\s(I)'
_cod_data_source_file            c7dt02686b7.cif
_cod_data_source_block           shelx
_cod_original_cell_volume        748.1(3)
_cod_database_code               7044262
_shelx_space_group_comment
;
The symmetry employed for this shelxl refinement is uniquely defined
by the following loop, which should always be used as a source of
symmetry information in preference to the above space-group names.
They are only intended as comments.
;
_shelx_res_file
;

    shelx.res created by SHELXL-2014/7


TITL twin4 in C2/m
CELL  0.71073   8.1574   8.3282  11.1952   90.000  100.391   90.000
ZERR     4.00   0.0017   0.0018   0.0024    0.000    0.003    0.000
LATT   7
SYMM  - X,   Y, - Z
SFAC  GE   PD   PR
UNIT  24 4 8
FMAP   2
PLAN   20
BOND
acta
L.S.   6
WGHT    0.057800    0.468900
EXTI    0.000226
BASF   0.42285
FVAR       0.10437
MOLE    1
PR1   3    0.083208    0.249625    0.334905    11.00000    0.00398    0.00471 =
         0.00458    0.00015   -0.00122   -0.00035
PD1   2    0.197871    0.000000    0.789939    10.50000    0.00542    0.00603 =
         0.00475    0.00000   -0.00062    0.00000
GE1   1    0.145340    0.000000    0.560863    10.50000    0.00358    0.00871 =
         0.00469    0.00000    0.00039    0.00000
GE2   1    0.358046    0.000000    0.424330    10.50000    0.00519    0.00806 =
         0.00842    0.00000   -0.00081    0.00000
GE3   1    0.498086    0.000000    0.111147    10.50000    0.00651    0.00755 =
         0.00627    0.00000   -0.00043    0.00000
GE4   1    0.057269    0.000000    0.111502    10.50000    0.00752    0.00722 =
         0.00623    0.00000    0.00271    0.00000
GE5   1    0.277829    0.222702    0.111299    11.00000    0.00672    0.00716 =
         0.00544   -0.00099    0.00006    0.00035
HKLF    5

REM  twin4 in C2/m
REM R1 =  0.0357 for    1062 Fo > 4sig(Fo)  and  0.0501 for all    1262 data
REM     51 parameters refined using      0 restraints

END

WGHT      0.0580      0.4337

REM Highest difference peak  4.351,  deepest hole -5.293,  1-sigma level  1.251
Q1    1   0.0129  0.0000  0.1393  10.50000  0.05    4.35
Q2    1   0.6255  0.0000  0.1000  10.50000  0.05    4.29
Q3    1   0.4339  0.0000  0.5128  10.50000  0.05    4.10
Q4    1   0.2468  0.2492  0.0623  11.00000  0.05    4.08
Q5    1   0.1526  0.3788  0.3383  11.00000  0.05    4.02
Q6    1   0.2788  0.0000  0.6716  10.50000  0.05    4.00
Q7    1   0.0000  0.0000  0.0000  10.25000  0.05    3.95
Q8    1   0.4739  0.0000  0.2587  10.50000  0.05    3.89
Q9    1  -0.0645  0.1289  0.1502  11.00000  0.05    3.75
Q10   1   0.3103  0.1183  0.0513  11.00000  0.05    3.74
Q11   1   0.1002  0.2453  0.2294  11.00000  0.05    3.72
Q12   1   0.1464  0.0000  0.7033  10.50000  0.05    3.71
Q13   1   0.1687  0.1189  0.0695  11.00000  0.05    3.70
Q14   1   0.2511  0.0000  0.0665  10.50000  0.05    3.67
Q15   1   0.5687  0.0000  0.3472  10.50000  0.05    3.66
Q16   1   0.3217  0.2518  0.4182  11.00000  0.05    3.61
Q17   1   0.3842  0.0000  0.0329  10.50000  0.05    3.59
Q18   1   0.2646  0.1252  0.4302  11.00000  0.05    3.56
Q19   1   0.5000  0.0000  0.0000  10.25000  0.05    3.53
Q20   1   0.1204 -0.1191  0.5974  11.00000  0.05    3.53
;
_shelx_res_checksum              23971
_shelx_hkl_file
;
  -2   0   1 -0.4828 1.34186  -2
   2   0   0 -0.4828 1.34186   1
  -4   0   2 49.6529 1.85928  -2
   4   0   0 49.6529 1.85928   1
  -6   0   3 428.680 8.79572  -2
   6   0   0 428.680 8.79572   1
  -8   0   4 84.6138 5.33549  -2
   8   0   0 84.6138 5.33549   1
 -10   0   5 103.739 7.56999  -2
  10   0   0 103.739 7.56999   1
   1   1   0 10.5587 0.45553   1
   3   1   0 151.202 2.16329   1
   5   1   0 1.14216 0.88631   1
   7   1   0 167.789 4.06468   1
   9   1   0 78.0631 4.24127   1
  11   1   0 -1.2960 4.38363   1
   0   2   0 12.4086 1.10551  -2
   0   2   0 12.4086 1.10551   1
  -2   2   1 7.01428 0.73913  -2
   2   2   0 7.01428 0.73913   1
  -4   2   2 4.04081 1.19860  -2
   4   2   0 4.04081 1.19860   1
  -6   2   3 2779.71 36.0301  -2
   6   2   0 2779.71 36.0301   1
  -8   2   4 107.025 4.33532  -2
   8   2   0 107.025 4.33532   1
 -10   2   5 152.485 5.88052  -2
  10   2   0 152.485 5.88052   1
   1   3   0 18.2110 0.93539   1
   3   3   0 241.083 3.61077   1
   5   3   0 41.3981 1.61862   1
   7   3   0 324.772 6.69464   1
   9   3   0 10.1781 3.78446   1
  11   3   0 14.4808 7.26033   1
   0   4   0 9861.17 154.697  -2
   0   4   0 9861.17 154.697   1
  -2   4   1 39.2025 1.52747  -2
   2   4   0 39.2025 1.52747   1
  -4   4   2 79.2730 2.23682  -2
   4   4   0 79.2730 2.23682   1
  -6   4   3 292.918 5.25578  -2
   6   4   0 292.918 5.25578   1
  -8   4   4 78.4333 3.97988  -2
   8   4   0 78.4333 3.97988   1
 -10   4   5 95.6112 5.89694  -2
  10   4   0 95.6112 5.89694   1
   1   5   0 1.46239 1.09240   1
   3   5   0 31.3624 1.57592   1
   5   5   0 26.7338 1.97759   1
   7   5   0 40.2115 3.38477   1
   9   5   0 136.233 5.52616   1
   0   6   0 20.0150 2.34281  -2
   0   6   0 20.0150 2.34281   1
  -2   6   1 30.0183 2.02705  -2
   2   6   0 30.0183 2.02705   1
  -4   6   2 38.2229 2.42746  -2
   4   6   0 38.2229 2.42746   1
  -6   6   3 1634.61 25.0753  -2
   6   6   0 1634.61 25.0753   1
  -8   6   4 83.8387 4.76165  -2
   8   6   0 83.8387 4.76165   1
   1   7   0 8.54658 1.76555   1
   3   7   0 157.421 3.58761   1
   5   7   0 59.4202 3.28485   1
   7   7   0 265.224 7.70251   1
   9   7   0 4.34255 5.10746   1
   0   8   0 3502.37 66.6877  -2
   0   8   0 3502.37 66.6877   1
  -2   8   1 121.809 3.69502  -2
   2   8   0 121.809 3.69502   1
  -4   8   2 136.049 4.59464  -2
   4   8   0 136.049 4.59464   1
  -6   8   3 115.757 5.77091  -2
   6   8   0 115.757 5.77091   1
  -8   8   4 68.0542 6.76917  -2
   8   8   0 68.0542 6.76917   1
   1   9   0 0.74655 2.44135   1
   3   9   0 7.47431 2.90200   1
   5   9   0 17.1205 3.79118   1
   7   9   0 4.71471 5.09445   1
   0  10   0 46.6403 4.71866  -2
   0  10   0 46.6403 4.71866   1
  -2  10   1 116.467 4.87323  -2
   2  10   0 116.467 4.87323   1
  -4  10   2 85.4776 4.82969  -2
   4  10   0 85.4776 4.82969   1
  -6  10   3 653.776 24.3600  -2
   6  10   0 653.776 24.3600   1
   1  11   0 7.22972 3.91565   1
   3  11   0 69.6715 4.58068   1
 -10   0   4 303.273 9.63797  -2
 -10   0   1 303.273 9.63797   1
  -8   0   3 139.771 5.81592  -2
  -8   0   1 139.771 5.81592   1
  -6   0   2 31.9438 2.24351  -2
  -6   0   1 31.9438 2.24351   1
  -4   0   1 9999.99 156.952  -2
  -4   0   1 9999.99 156.952   1
   2   0   0 0.31062 1.33903  -2
  -2   0   1 0.31062 1.33903   1
   0   0   1 12.3335 0.47776  -2
   0   0   1 12.3335 0.47776   1
  -2   0   2 538.545 9.78313  -2
   2   0   1 538.545 9.78313   1
  -4   0   3 114.400 3.22779  -2
   4   0   1 114.400 3.22779   1
  -6   0   4 186.153 5.08099  -2
   6   0   1 186.153 5.08099   1
  -8   0   5 75.6734 5.34709  -2
   8   0   1 75.6734 5.34709   1
 -10   0   6 733.494 19.6684  -2
  10   0   1 733.494 19.6684   1
 -11   1   1 46.1099 4.76865   1
  -9   1   1 4.84392 3.16719   1
  -7   1   1 114.604 3.39807   1
  -5   1   1 -0.3401 0.92115   1
  -3   1   1 33.5941 1.00385   1
  -1   1   1 57.6881 1.14442   1
   1   1   1 51.6474 1.07604   1
   3   1   1 173.654 2.60440   1
   5   1   1 117.844 2.44343   1
   7   1   1 17.5251 2.32230   1
   9   1   1 138.804 5.23577   1
  11   1   1 -1.4529 4.70471   1
 -10   2   4 969.743 16.4036  -2
 -10   2   1 969.743 16.4036   1
  -8   2   3 23.6181 3.41328  -2
  -8   2   1 23.6181 3.41328   1
  -6   2   2 41.8984 2.20433  -2
  -6   2   1 41.8984 2.20433   1
  -4   2   1 54.3869 1.54595  -2
  -4   2   1 54.3869 1.54595   1
   2   2   0 5.03164 0.88611  -2
  -2   2   1 5.03164 0.88611   1
   0   2   1 34.2921 1.04984  -2
   0   2   1 34.2921 1.04984   1
  -2   2   2 5977.67 69.3035  -2
   2   2   1 5977.67 69.3035   1
  -4   2   3 285.802 3.72200  -2
   4   2   1 285.802 3.72200   1
  -6   2   4 462.492 7.20107  -2
   6   2   1 462.492 7.20107   1
  -8   2   5 768.181 12.9618  -2
   8   2   1 768.181 12.9618   1
 -10   2   6 1.26919 4.64126  -2
  10   2   1 1.26919 4.64126   1
 -11   3   1 119.261 9.34815   1
  -9   3   1 15.7771 3.74756   1
  -7   3   1 174.299 4.83064   1
  -5   3   1 1.16801 1.25040   1
  -3   3   1 42.3534 1.35512   1
  -1   3   1 125.688 1.96659   1
   1   3   1 201.728 2.89920   1
   3   3   1 412.747 5.35426   1
   5   3   1 6.29092 1.62999   1
   7   3   1 102.049 3.65855   1
   9   3   1 59.5553 4.20062   1
  11   3   1 6.53254 12.7993   1
 -10   4   4 235.048 7.48567  -2
 -10   4   1 235.048 7.48567   1
  -8   4   3 147.127 4.86789  -2
  -8   4   1 147.127 4.86789   1
  -6   4   2 0.51794 2.51883  -2
  -6   4   1 0.51794 2.51883   1
  -4   4   1 6910.29 87.5701  -2
  -4   4   1 6910.29 87.5701   1
   2   4   0 37.1888 1.36617  -2
  -2   4   1 37.1888 1.36617   1
   0   4   1 39.2483 1.30010  -2
   0   4   1 39.2483 1.30010   1
  -2   4   2 295.332 4.50201  -2
   2   4   1 295.332 4.50201   1
  -4   4   3 101.565 2.73181  -2
   4   4   1 101.565 2.73181   1
  -6   4   4 145.687 3.70066  -2
   6   4   1 145.687 3.70066   1
  -8   4   5 92.9310 4.20568  -2
   8   4   1 92.9310 4.20568   1
 -10   4   6 590.713 11.5412  -2
  10   4   1 590.713 11.5412   1
  -9   5   1 10.5010 3.64591   1
  -7   5   1 47.0073 2.89958   1
  -5   5   1 3.28379 1.73334   1
  -3   5   1 11.1309 1.40866   1
  -1   5   1 2.98302 1.08021   1
   1   5   1 1.18239 1.08872   1
   3   5   1 12.4842 1.45547   1
   5   5   1 212.174 4.46800   1
   7   5   1 2.57421 2.74403   1
   9   5   1 170.835 5.60886   1
  -8   6   3 0.43319 4.53361  -2
  -8   6   1 0.43319 4.53361   1
  -6   6   2 109.831 4.39070  -2
  -6   6   1 109.831 4.39070   1
  -4   6   1 1.08015 2.14270  -2
  -4   6   1 1.08015 2.14270   1
   2   6   0 26.8842 1.98959  -2
  -2   6   1 26.8842 1.98959   1
   0   6   1 94.4046 2.23185  -2
   0   6   1 94.4046 2.23185   1
  -2   6   2 2767.64 32.2612  -2
   2   6   1 2767.64 32.2612   1
  -4   6   3 181.783 3.73583  -2
   4   6   1 181.783 3.73583   1
  -6   6   4 259.774 5.71315  -2
   6   6   1 259.774 5.71315   1
  -8   6   5 653.264 11.1442  -2
   8   6   1 653.264 11.1442   1
  -9   7   1 22.6516 5.36510   1
  -7   7   1 136.966 5.58522   1
  -5   7   1 1.13008 2.44692   1
  -3   7   1 27.6317 2.23609   1
  -1   7   1 92.6516 2.94991   1
   1   7   1 169.892 3.62596   1
  -3   7   3 505.038 23.9457  -2
   3   7   1 505.038 23.9457   1
  -5   7   4 -9.9298 12.5317  -2
   5   7   1 -9.9298 12.5317   1
   7   7   1 109.752 5.28129   1
   9   7   1 35.0292 10.7149   1
  -8   8   3 162.484 7.80892  -2
  -8   8   1 162.484 7.80892   1
  -6   8   2 28.0523 4.75965  -2
  -6   8   1 28.0523 4.75965   1
  -4   8   1 2623.29 38.9902  -2
  -4   8   1 2623.29 38.9902   1
   2   8   0 125.932 3.78868  -2
  -2   8   1 125.932 3.78868   1
   0   8   1 102.444 3.44676  -2
   0   8   1 102.444 3.44676   1
  -2   8   2 94.2081 3.49884  -2
   2   8   1 94.2081 3.49884   1
  -4   8   3 83.8632 3.88192  -2
   4   8   1 83.8632 3.88192   1
  -6   8   4 74.5171 5.28883  -2
   6   8   1 74.5171 5.28883   1
  -8   8   5 117.670 9.53619  -2
   8   8   1 117.670 9.53619   1
  -7   9   1 10.4175 4.86168   1
  -5   9   1 0.30641 3.82111   1
  -3   9   1 6.96406 3.07317   1
  -1   9   1 -0.7222 2.67194   1
   1   9   1 3.79819 2.42309   1
  -3   9   3 -9.1807 12.8388  -2
   3   9   1 -9.1807 12.8388   1
   5   9   1 118.940 5.82973   1
   7   9   1 -0.1242 6.72961   1
  -6  10   2 138.820 12.9523  -2
  -6  10   1 138.820 12.9523   1
  -4  10   1 9.99858 4.03783  -2
  -4  10   1 9.99858 4.03783   1
   2  10   0 113.738 4.99934  -2
  -2  10   1 113.738 4.99934   1
   0  10   1 140.544 4.85405  -2
   0  10   1 140.544 4.85405   1
  -2  10   2 972.440 16.8144  -2
   2  10   1 972.440 16.8144   1
  -4  10   3 105.203 5.86658  -2
   4  10   1 105.203 5.86658   1
  -6  10   4 100.870 8.50650  -2
   6  10   1 100.870 8.50650   1
  -3  11   1 12.9902 3.83624   1
  -1  11   1 47.3469 4.08868   1
   1  11   1 82.6122 5.08045   1
   3  11   1 141.489 6.28225   1
 -10   0   3 68.3534 5.99938  -2
 -10   0   2 68.3534 5.99938   1
  -8   0   2 3380.56 75.4717  -2
  -8   0   2 3380.56 75.4717   1
  -6   0   1 32.0132 2.54446  -2
  -6   0   2 32.0132 2.54446   1
   4   0   0 47.0755 1.87335  -2
  -4   0   2 47.0755 1.87335   1
   2   0   1 532.875 8.68260  -2
  -2   0   2 532.875 8.68260   1
   0   0   2 154.376 2.95961  -2
   0   0   2 154.376 2.95961   1
  -2   0   3 314.340 5.35418  -2
   2   0   2 314.340 5.35418   1
  -4   0   4 25.7232 2.12406  -2
   4   0   2 25.7232 2.12406   1
  -6   0   5 1307.37 23.9541  -2
   6   0   2 1307.37 23.9541   1
  -8   0   6 468.114 11.7330  -2
   8   0   2 468.114 11.7330   1
 -10   0   7 510.335 15.2105  -2
  10   0   2 510.335 15.2105   1
 -11   1   2 43.6476 4.55607   1
  -9   1   2 -1.1233 2.75970   1
  -7   1   2 33.3104 2.47895   1
  -5   1   2 0.20711 1.10841   1
  -3   1   2 173.220 2.44859   1
  -1   1   2 13.0272 0.72636   1
   1   1   2 9.13005 0.71314   1
   3   1   2 1.13485 0.90666   1
   5   1   2 283.648 4.21647   1
   7   1   2 11.5039 2.38585   1
   9   1   2 28.4888 3.78443   1
  11   1   2 1.34427 8.67262   1
 -10   2   3 133.637 5.37624  -2
 -10   2   2 133.637 5.37624   1
  -8   2   2 189.543 5.02803  -2
  -8   2   2 189.543 5.02803   1
  -6   2   1 41.0043 2.01345  -2
  -6   2   2 41.0043 2.01345   1
   4   2   0 1.64635 1.20338  -2
  -4   2   2 1.64635 1.20338   1
   2   2   1 5919.44 65.6766  -2
  -2   2   2 5919.44 65.6766   1
   0   2   2 449.306 5.51636  -2
   0   2   2 449.306 5.51636   1
  -2   2   3 956.589 10.8754  -2
   2   2   2 956.589 10.8754   1
  -4   2   4 1982.43 22.3379  -2
   4   2   2 1982.43 22.3379   1
  -6   2   5 166.492 3.83762  -2
   6   2   2 166.492 3.83762   1
  -8   2   6 585.406 10.5053  -2
   8   2   2 585.406 10.5053   1
 -10   2   7 -4.9162 4.63098  -2
  10   2   2 -4.9162 4.63098   1
 -11   3   2 73.3765 5.45734   1
  -9   3   2 -0.4319 3.41740   1
  -7   3   2 40.5359 2.64743   1
  -5   3   2 19.9950 1.45928   1
  -3   3   2 359.824 4.51564   1
  -1   3   2 150.751 2.38131   1
   1   3   2 58.2210 1.53922   1
   3   3   2 83.3221 1.86143   1
   5   3   2 106.128 2.77447   1
   7   3   2 -0.3405 2.47042   1
   9   3   2 14.6440 3.84332   1
 -10   4   3 40.4193 5.10015  -2
 -10   4   2 40.4193 5.10015   1
  -8   4   2 2642.41 40.1104  -2
  -8   4   2 2642.41 40.1104   1
  -6   4   1 8.52540 2.51613  -2
  -6   4   2 8.52540 2.51613   1
   4   4   0 82.6691 2.18284  -2
  -4   4   2 82.6691 2.18284   1
   2   4   1 278.064 3.84629  -2
  -2   4   2 278.064 3.84629   1
   0   4   2 109.570 1.88834  -2
   0   4   2 109.570 1.88834   1
  -2   4   3 185.358 3.24562  -2
   2   4   2 185.358 3.24562   1
  -4   4   4 43.1025 2.05063  -2
   4   4   2 43.1025 2.05063   1
  -6   4   5 867.093 13.1477  -2
   6   4   2 867.093 13.1477   1
  -8   4   6 297.955 6.46371  -2
   8   4   2 297.955 6.46371   1
 -10   4   7 555.082 11.1299  -2
  10   4   2 555.082 11.1299   1
  -9   5   2 3.09024 3.86906   1
  -7   5   2 11.0561 2.69985   1
  -5   5   2 10.4335 1.81537   1
  -3   5   2 18.1427 1.50118   1
  -1   5   2 21.1893 1.36258   1
   1   5   2 84.9298 2.16196   1
   3   5   2 38.0295 1.73950   1
   5   5   2 334.533 5.78957   1
   7   5   2 26.3798 3.08423   1
   9   5   2 28.5068 3.86702   1
  -8   6   2 55.3738 5.40037  -2
  -8   6   2 55.3738 5.40037   1
  -6   6   1 111.564 4.66953  -2
  -6   6   2 111.564 4.66953   1
   4   6   0 35.6287 2.84823  -2
  -4   6   2 35.6287 2.84823   1
   2   6   1 2800.01 34.2199  -2
  -2   6   2 2800.01 34.2199   1
   0   6   2 260.913 4.03991  -2
   0   6   2 260.913 4.03991   1
  -2   6   3 453.187 6.39888  -2
   2   6   2 453.187 6.39888   1
  -4   6   4 1410.84 20.0496  -2
   4   6   2 1410.84 20.0496   1
  -6   6   5 52.9591 3.29425  -2
   6   6   2 52.9591 3.29425   1
  -8   6   6 273.363 6.54805  -2
   8   6   2 273.363 6.54805   1
  -9   7   2 -4.7441 4.63340   1
  -7   7   2 21.7027 4.86001   1
  -5   7   2 28.5980 2.95034   1
  -3   7   2 280.046 5.56127   1
  -1   7   2 148.494 3.38252   1
   1   7   2 95.1630 2.84196   1
   3   7   2 110.875 3.40865   1
  -5   7   5 55.0010 14.2293  -2
   5   7   2 55.0010 14.2293   1
   7   7   2 -2.9595 3.54066   1
  -8   8   2 1182.05 27.0242  -2
  -8   8   2 1182.05 27.0242   1
  -6   8   1 23.0855 4.72522  -2
  -6   8   2 23.0855 4.72522   1
   4   8   0 138.758 4.21301  -2
  -4   8   2 138.758 4.21301   1
   2   8   1 88.0432 3.52664  -2
  -2   8   2 88.0432 3.52664   1
   0   8   2 82.2680 3.04451  -2
   0   8   2 82.2680 3.04451   1
  -2   8   3 81.4618 3.19861  -2
   2   8   2 81.4618 3.19861   1
  -4   8   4 83.4563 4.16011  -2
   4   8   2 83.4563 4.16011   1
  -6   8   5 284.785 7.14251  -2
   6   8   2 284.785 7.14251   1
  -7   9   2 14.0798 4.62615   1
  -5   9   2 7.11751 3.32681   1
  -3   9   2 6.48817 3.16057   1
  -1   9   2 19.5146 2.90646   1
   1   9   2 61.6618 3.07215   1
  -3   9   4 74.8879 13.4801  -2
   3   9   2 74.8879 13.4801   1
   5   9   2 186.801 7.02722   1
   7   9   2 12.8810 7.21203   1
  -6  10   1 137.544 13.4323  -2
  -6  10   2 137.544 13.4323   1
   4  10   0 88.5849 5.18569  -2
  -4  10   2 88.5849 5.18569   1
   2  10   1 982.753 17.0438  -2
  -2  10   2 982.753 17.0438   1
   0  10   2 132.753 4.87269  -2
   0  10   2 132.753 4.87269   1
  -2  10   3 146.016 5.35795  -2
   2  10   2 146.016 5.35795   1
  -4  10   4 826.222 16.5584  -2
   4  10   2 826.222 16.5584   1
  -6  10   5 38.0144 14.2823  -2
   6  10   2 38.0144 14.2823   1
  -3  11   2 127.734 5.56499   1
  -1  11   2 67.9512 4.44288   1
   1  11   2 39.4607 4.01055   1
   3  11   2 48.3681 4.66280   1
 -10   0   2 77.9753 5.94964  -2
 -10   0   3 77.9753 5.94964   1
  -8   0   1 142.066 5.96460  -2
  -8   0   3 142.066 5.96460   1
   6   0   0 416.702 7.63000  -2
  -6   0   3 416.702 7.63000   1
   4   0   1 115.365 2.74082  -2
  -4   0   3 115.365 2.74082   1
   2   0   2 311.820 5.32672  -2
  -2   0   3 311.820 5.32672   1
   0   0   3 2.05445 1.11573  -2
   0   0   3 2.05445 1.11573   1
  -2   0   4 1718.99 27.2217  -2
   2   0   3 1718.99 27.2217   1
  -4   0   5 1794.11 31.9648  -2
   4   0   3 1794.11 31.9648   1
  -6   0   6 1801.56 32.5572  -2
   6   0   3 1801.56 32.5572   1
  -8   0   7 74.5972 5.46017  -2
   8   0   3 74.5972 5.46017   1
 -10   0   8 410.151 13.5950  -2
  10   0   3 410.151 13.5950   1
 -11   1   3 14.9096 4.44891   1
  -9   1   3 3.50830 2.77329   1
  -7   1   3 124.295 3.21025   1
  -5   1   3 29.6309 1.28712   1
  -3   1   3 92.3730 1.65863   1
  -1   1   3 104.452 1.71516   1
   1   1   3 277.521 3.42426   1
   3   1   3 71.8760 1.55583   1
   5   1   3 50.4137 2.18747   1
   7   1   3 1.09078 2.40090   1
   9   1   3 59.7783 4.33214   1
 -10   2   2 138.381 5.85775  -2
 -10   2   3 138.381 5.85775   1
  -8   2   1 20.0714 3.01615  -2
  -8   2   3 20.0714 3.01615   1
   6   2   0 2748.18 32.3488  -2
  -6   2   3 2748.18 32.3488   1
   4   2   1 275.582 3.80394  -2
  -4   2   3 275.582 3.80394   1
   2   2   2 940.235 11.2269  -2
  -2   2   3 940.235 11.2269   1
   0   2   3 3059.93 34.0418  -2
   0   2   3 3059.93 34.0418   1
  -2   2   4 624.417 7.27159  -2
   2   2   3 624.417 7.27159   1
  -4   2   5 592.669 7.92460  -2
   4   2   3 592.669 7.92460   1
  -6   2   6 209.469 4.38193  -2
   6   2   3 209.469 4.38193   1
  -8   2   7 1026.45 16.7464  -2
   8   2   3 1026.45 16.7464   1
 -10   2   8 143.687 6.69556  -2
  10   2   3 143.687 6.69556   1
 -11   3   3 16.0091 4.61314   1
  -9   3   3 2.13280 3.96477   1
  -7   3   3 254.342 5.30192   1
  -5   3   3 5.16681 1.47501   1
  -3   3   3 319.924 4.13318   1
  -1   3   3 1.05763 0.89709   1
   1   3   3 53.2765 1.39947   1
   3   3   3 13.5801 1.17287   1
   5   3   3 22.1656 1.82142   1
   7   3   3 3.29067 2.63056   1
   9   3   3 19.7810 3.91821   1
 -10   4   2 35.8244 4.70286  -2
 -10   4   3 35.8244 4.70286   1
  -8   4   1 156.390 5.02734  -2
  -8   4   3 156.390 5.02734   1
   6   4   0 285.315 5.00437  -2
  -6   4   3 285.315 5.00437   1
   4   4   1 90.4302 2.17747  -2
  -4   4   3 90.4302 2.17747   1
   2   4   2 175.175 2.72415  -2
  -2   4   3 175.175 2.72415   1
   0   4   3 19.2360 1.53914  -2
   0   4   3 19.2360 1.53914   1
  -2   4   4 986.205 11.9544  -2
   2   4   3 986.205 11.9544   1
  -4   4   5 1147.40 15.3326  -2
   4   4   3 1147.40 15.3326   1
  -6   4   6 1682.39 24.1290  -2
   6   4   3 1682.39 24.1290   1
  -8   4   7 32.0185 3.96670  -2
   8   4   3 32.0185 3.96670   1
 -10   4   8 292.266 10.3702  -2
  10   4   3 292.266 10.3702   1
  -9   5   3 1.09139 3.87823   1
  -7   5   3 35.3226 2.97951   1
  -5   5   3 93.5186 3.00229   1
  -3   5   3 0.81181 1.22085   1
  -1   5   3 211.986 3.41985   1
   1   5   3 301.645 4.14376   1
   3   5   3 94.1844 2.59520   1
   5   5   3 44.0924 2.54453   1
   7   5   3 0.05432 2.81834   1
   9   5   3 72.1801 4.48873   1
  -8   6   1 -0.2139 4.58517  -2
  -8   6   3 -0.2139 4.58517   1
   6   6   0 1554.37 23.7220  -2
  -6   6   3 1554.37 23.7220   1
   4   6   1 191.016 4.67529  -2
  -4   6   3 191.016 4.67529   1
   2   6   2 454.722 6.47371  -2
  -2   6   3 454.722 6.47371   1
   0   6   3 1890.32 22.4919  -2
   0   6   3 1890.32 22.4919   1
  -2   6   4 193.993 3.76689  -2
   2   6   3 193.993 3.76689   1
  -4   6   5 184.822 4.44495  -2
   4   6   3 184.822 4.44495   1
  -6   6   6 24.5871 4.00441  -2
   6   6   3 24.5871 4.00441   1
  -8   6   7 532.983 10.5825  -2
   8   6   3 532.983 10.5825   1
  -9   7   3 10.4211 4.56296   1
  -7   7   3 221.890 6.87552   1
  -5   7   3 29.4413 2.72170   1
  -3   7   3 281.433 5.62326   1
  -1   7   3 20.7977 2.16434   1
   1   7   3 3.95960 1.82344   1
  -3   7   4 24.2220 12.4683  -2
   3   7   3 24.2220 12.4683   1
  -5   7   6 11.4131 15.1452  -2
   5   7   3 11.4131 15.1452   1
   7   7   3 7.80217 3.83234   1
   9   7   3 4.26481 12.6137   1
  -8   8   1 149.900 7.08329  -2
  -8   8   3 149.900 7.08329   1
   6   8   0 115.060 4.93855  -2
  -6   8   3 115.060 4.93855   1
   4   8   1 76.3566 3.64300  -2
  -4   8   3 76.3566 3.64300   1
   2   8   2 81.1508 3.70331  -2
  -2   8   3 81.1508 3.70331   1
   0   8   3 69.2005 3.27055  -2
   0   8   3 69.2005 3.27055   1
  -2   8   4 264.090 5.06193  -2
   2   8   3 264.090 5.06193   1
  -4   8   5 317.017 6.83615  -2
   4   8   3 317.017 6.83615   1
  -6   8   6 1272.16 22.3889  -2
   6   8   3 1272.16 22.3889   1
  -7   9   3 10.5537 4.24909   1
  -5   9   3 56.5325 3.90877   1
  -3   9   3 2.83233 3.06866   1
  -1   9   3 136.640 4.59709   1
   1   9   3 171.675 4.98044   1
  -3   9   5 51.5631 15.3393  -2
   3   9   3 51.5631 15.3393   1
  -5   9   6 62.0157 17.0155  -2
   5   9   3 62.0157 17.0155   1
   7   9   3 2.76137 13.7805   1
   6  10   0 621.879 18.7266  -2
  -6  10   3 621.879 18.7266   1
   4  10   1 102.181 5.23317  -2
  -4  10   3 102.181 5.23317   1
   2  10   2 150.962 5.45900  -2
  -2  10   3 150.962 5.45900   1
   0  10   3 1036.38 16.5146  -2
   0  10   3 1036.38 16.5146   1
  -2  10   4 30.1756 4.16625  -2
   2  10   3 30.1756 4.16625   1
  -4  10   5 39.1923 5.12101  -2
   4  10   3 39.1923 5.12101   1
  -3  11   3 111.613 5.22695   1
  -1  11   3 9.44042 3.69175   1
   1  11   3 8.07733 3.70693   1
   3  11   3 6.58991 5.48040   1
 -10   0   1 310.939 9.50682  -2
 -10   0   4 310.939 9.50682   1
   8   0   0 75.6167 5.89335  -2
  -8   0   4 75.6167 5.89335   1
   6   0   1 189.419 4.37798  -2
  -6   0   4 189.419 4.37798   1
   4   0   2 24.0377 2.01537  -2
  -4   0   4 24.0377 2.01537   1
   2   0   3 1682.22 26.6461  -2
  -2   0   4 1682.22 26.6461   1
   0   0   4 3027.34 52.2576  -2
   0   0   4 3027.34 52.2576   1
  -2   0   5 4198.83 65.9683  -2
   2   0   4 4198.83 65.9683   1
  -4   0   6 485.172 9.57136  -2
   4   0   4 485.172 9.57136   1
  -6   0   7 598.849 12.1007  -2
   6   0   4 598.849 12.1007   1
  -8   0   8 46.1367 5.46218  -2
   8   0   4 46.1367 5.46218   1
 -10   0   9 105.818 8.51741  -2
  10   0   4 105.818 8.51741   1
 -11   1   4 33.8058 4.59760   1
  -9   1   4 21.5634 3.20133   1
  -7   1   4 142.009 3.33309   1
  -5   1   4 201.143 3.12057   1
  -3   1   4 58.8262 1.38399   1
  -1   1   4 248.726 3.25252   1
   1   1   4 42.8803 1.12063   1
   3   1   4 2.02102 0.96168   1
   5   1   4 107.081 3.07225   1
   7   1   4 1.40222 2.45410   1
   9   1   4 149.567 5.75135   1
 -10   2   1 950.519 17.4253  -2
 -10   2   4 950.519 17.4253   1
   8   2   0 107.125 3.69579  -2
  -8   2   4 107.125 3.69579   1
   6   2   1 452.520 6.14331  -2
  -6   2   4 452.520 6.14331   1
   4   2   2 1939.35 21.8619  -2
  -4   2   4 1939.35 21.8619   1
   2   2   3 621.435 7.60550  -2
  -2   2   4 621.435 7.60550   1
   0   2   4 553.797 6.46544  -2
   0   2   4 553.797 6.46544   1
  -2   2   5 890.271 10.2398  -2
   2   2   4 890.271 10.2398   1
  -4   2   6 1302.33 15.7460  -2
   4   2   4 1302.33 15.7460   1
  -6   2   7 598.269 9.68209  -2
   6   2   4 598.269 9.68209   1
  -8   2   8 704.723 13.3567  -2
   8   2   4 704.723 13.3567   1
 -10   2   9 63.5558 5.14671  -2
  10   2   4 63.5558 5.14671   1
 -11   3   4 81.0668 6.16232   1
  -9   3   4 2.86823 3.87860   1
  -7   3   4 309.865 6.39260   1
  -5   3   4 38.5241 1.76523   1
  -3   3   4 1.10837 1.07268   1
  -1   3   4 87.0408 1.81958   1
   1   3   4 16.0203 1.02555   1
   3   3   4 1.36711 1.19559   1
   5   3   4 40.6133 2.59001   1
   7   3   4 25.0624 3.05619   1
   9   3   4 55.3332 4.44475   1
 -10   4   1 239.592 8.19058  -2
 -10   4   4 239.592 8.19058   1
   8   4   0 84.1583 3.97140  -2
  -8   4   4 84.1583 3.97140   1
   6   4   1 147.822 3.48536  -2
  -6   4   4 147.822 3.48536   1
   4   4   2 42.3078 1.96845  -2
  -4   4   4 42.3078 1.96845   1
   2   4   3 967.782 12.3111  -2
  -2   4   4 967.782 12.3111   1
   0   4   4 1796.88 21.2245  -2
   0   4   4 1796.88 21.2245   1
  -2   4   5 3465.52 40.6005  -2
   2   4   4 3465.52 40.6005   1
  -4   4   6 264.536 5.01637  -2
   4   4   4 264.536 5.01637   1
  -6   4   7 381.001 7.01873  -2
   6   4   4 381.001 7.01873   1
  -8   4   8 60.9568 4.32808  -2
   8   4   4 60.9568 4.32808   1
  -9   5   4 56.8916 4.63587   1
  -7   5   4 26.9935 3.20724   1
  -5   5   4 288.848 5.51469   1
  -3   5   4 113.394 2.88737   1
  -1   5   4 226.507 3.59710   1
   1   5   4 36.6990 1.71730   1
   3   5   4 3.63811 1.58545   1
   5   5   4 121.468 3.62318   1
   7   5   4 9.96513 3.08479   1
  -9   5   9 403.773 28.5026  -2
   9   5   4 403.773 28.5026   1
 -10   6   1 609.956 29.8339  -2
 -10   6   4 609.956 29.8339   1
   8   6   0 74.7882 4.48246  -2
  -8   6   4 74.7882 4.48246   1
   6   6   1 244.506 5.71040  -2
  -6   6   4 244.506 5.71040   1
   4   6   2 1380.64 21.0001  -2
  -4   6   4 1380.64 21.0001   1
   2   6   3 190.009 3.76184  -2
  -2   6   4 190.009 3.76184   1
   0   6   4 128.006 2.80683  -2
   0   6   4 128.006 2.80683   1
  -2   6   5 212.012 4.24799  -2
   2   6   4 212.012 4.24799   1
  -4   6   6 530.376 8.76531  -2
   4   6   4 530.376 8.76531   1
  -6   6   7 275.374 7.37604  -2
   6   6   4 275.374 7.37604   1
  -8   6   8 564.152 11.0642  -2
   8   6   4 564.152 11.0642   1
  -9   7   4 7.80902 4.55572   1
  -7   7   4 271.898 8.21520   1
  -5   7   4 1.64153 2.46433   1
  -3   7   4 4.01267 2.28956   1
  -1   7   4 20.0708 2.17683   1
   1   7   4 2.51182 1.83950   1
  -3   7   5 33.9168 15.0610  -2
   3   7   4 33.9168 15.0610   1
  -5   7   7 -2.8629 15.7379  -2
   5   7   4 -2.8629 15.7379   1
   7   7   4 27.9886 4.11967   1
   8   8   0 60.3753 4.89258  -2
  -8   8   4 60.3753 4.89258   1
   6   8   1 71.2886 4.58973  -2
  -6   8   4 71.2886 4.58973   1
   4   8   2 80.4051 3.81291  -2
  -4   8   4 80.4051 3.81291   1
   2   8   3 260.505 5.74284  -2
  -2   8   4 260.505 5.74284   1
   0   8   4 516.224 8.36413  -2
   0   8   4 516.224 8.36413   1
  -2   8   5 2238.35 31.2153  -2
   2   8   4 2238.35 31.2153   1
  -4   8   6 44.4235 3.88526  -2
   4   8   4 44.4235 3.88526   1
  -6   8   7 124.530 5.74433  -2
   6   8   4 124.530 5.74433   1
  -7   9   4 5.76438 4.01685   1
  -5   9   4 178.920 5.46971   1
  -3   9   4 81.4705 3.93032   1
  -1   9   4 123.766 4.16624   1
   1   9   4 23.6397 3.01397   1
  -3   9   6 4.72446 15.1451  -2
   3   9   4 4.72446 15.1451   1
  -5   9   7 167.744 20.8578  -2
   5   9   4 167.744 20.8578   1
   6  10   1 97.8550 14.6611  -2
  -6  10   4 97.8550 14.6611   1
   4  10   2 819.502 14.9857  -2
  -4  10   4 819.502 14.9857   1
   2  10   3 25.9469 4.12651  -2
  -2  10   4 25.9469 4.12651   1
   0  10   4 17.2821 3.54674  -2
   0  10   4 17.2821 3.54674   1
  -2  10   5 5.76640 4.05063  -2
   2  10   4 5.76640 4.05063   1
  -4  10   6 138.707 6.26707  -2
   4  10   4 138.707 6.26707   1
  -3  11   4 5.51165 4.70325   1
  -1  11   4 11.9445 3.75163   1
   1  11   4 7.47018 3.71382   1
   3  11   4 3.39878 9.25829   1
  10   0   0 136.122 7.60902  -2
 -10   0   5 136.122 7.60902   1
   8   0   1 75.7603 4.95262  -2
  -8   0   5 75.7603 4.95262   1
   6   0   2 1248.20 24.3562  -2
  -6   0   5 1248.20 24.3562   1
   4   0   3 1810.35 32.1293  -2
  -4   0   5 1810.35 32.1293   1
   2   0   4 4164.61 65.4438  -2
  -2   0   5 4164.61 65.4438   1
   0   0   5 921.230 16.3369  -2
   0   0   5 921.230 16.3369   1
  -2   0   6 636.487 10.5601  -2
   2   0   5 636.487 10.5601   1
  -4   0   7 8.93916 2.65229  -2
   4   0   5 8.93916 2.65229   1
  -6   0   8 192.112 5.71089  -2
   6   0   5 192.112 5.71089   1
  -8   0   9 66.3885 5.81007  -2
   8   0   5 66.3885 5.81007   1
 -10   0  10 272.233 19.0111  -2
  10   0   5 272.233 19.0111   1
 -11   1   5 44.9358 4.99925   1
  -9   1   5 115.704 4.49731   1
  -7   1   5 6.77933 1.75003   1
  -5   1   5 264.316 3.76709   1
  -3   1   5 12.3887 0.93580   1
  -1   1   5 19.9785 0.95389   1
  -1   1   5 81.1147 7.72526  -2
   1   1   5 81.1147 7.72526   1
   3   1   5 5.61072 1.15923   1
  -5   1   8 453.334 23.7381  -2
   5   1   5 453.334 23.7381   1
   7   1   5 4.29449 2.56475   1
   9   1   5 50.8668 4.52064   1
  10   2   0 161.421 6.81480  -2
 -10   2   5 161.421 6.81480   1
   8   2   1 731.925 11.6444  -2
  -8   2   5 731.925 11.6444   1
   6   2   2 168.528 3.41317  -2
  -6   2   5 168.528 3.41317   1
   4   2   3 586.385 7.37237  -2
  -4   2   5 586.385 7.37237   1
   2   2   4 870.285 10.5132  -2
  -2   2   5 870.285 10.5132   1
   0   2   5 1378.31 15.5711  -2
   0   2   5 1378.31 15.5711   1
  -2   2   6 1437.50 16.3052  -2
   2   2   5 1437.50 16.3052   1
  -4   2   7 1654.41 19.8923  -2
   4   2   5 1654.41 19.8923   1
  -6   2   8 168.175 4.10318  -2
   6   2   5 168.175 4.10318   1
  -8   2   9 157.337 5.29205  -2
   8   2   5 157.337 5.29205   1
 -10   2  10 621.055 18.3170  -2
  10   2   5 621.055 18.3170   1
 -11   3   5 118.711 6.58314   1
  -9   3   5 29.7614 4.20952   1
   7   3   1 66.8206 8.69514  -2
  -7   3   5 66.8206 8.69514   1
  -5   3   5 132.211 3.05409   1
  -3   3   5 2.70567 1.13394   1
  -1   3   5 4.88252 0.82831   1
   1   3   5 10.9600 1.08777   1
   3   3   5 15.0299 1.41515   1
   5   3   5 73.8396 3.14376   1
   7   3   5 69.0555 3.67930   1
   9   3   5 10.3214 4.04214   1
  10   4   0 103.854 6.69595  -2
 -10   4   5 103.854 6.69595   1
   8   4   1 90.7206 3.87320  -2
  -8   4   5 90.7206 3.87320   1
   6   4   2 830.690 11.6316  -2
  -6   4   5 830.690 11.6316   1
   4   4   3 1113.55 13.6206  -2
  -4   4   5 1113.55 13.6206   1
   2   4   4 3464.58 45.0717  -2
  -2   4   5 3464.58 45.0717   1
   0   4   5 492.517 6.35169  -2
   0   4   5 492.517 6.35169   1
  -2   4   6 357.713 4.73305  -2
   2   4   5 357.713 4.73305   1
  -4   4   7 16.8958 2.20067  -2
   4   4   5 16.8958 2.20067   1
  -6   4   8 154.953 4.48225  -2
   6   4   5 154.953 4.48225   1
  -8   4   9 65.0733 4.48024  -2
   8   4   5 65.0733 4.48024   1
  -9   5   5 166.350 6.30004   1
  -7   5   5 42.8546 3.46085   1
  -5   5   5 256.839 5.19402   1
  -3   5   5 13.1008 1.86825   1
  -1   5   5 22.6226 1.76054   1
   1   5   5 98.8333 2.83899   1
   3   5   5 41.3421 2.12785   1
   5   5   5 336.086 6.88929   1
   7   5   5 8.13331 3.56939   1
   9   5   5 84.3427 6.76959   1
  10   6   0 111.843 12.0683  -2
 -10   6   5 111.843 12.0683   1
   8   6   1 629.510 11.5150  -2
  -8   6   5 629.510 11.5150   1
   6   6   2 49.7704 3.22706  -2
  -6   6   5 49.7704 3.22706   1
   4   6   3 192.122 4.47860  -2
  -4   6   5 192.122 4.47860   1
   2   6   4 210.116 4.04683  -2
  -2   6   5 210.116 4.04683   1
   0   6   5 492.031 7.34327  -2
   0   6   5 492.031 7.34327   1
  -2   6   6 627.716 9.09140  -2
   2   6   5 627.716 9.09140   1
  -4   6   7 1176.44 17.2119  -2
   4   6   5 1176.44 17.2119   1
  -6   6   8 94.4945 4.80842  -2
   6   6   5 94.4945 4.80842   1
  -8   6   9 109.021 5.85900  -2
   8   6   5 109.021 5.85900   1
  -9   7   5 6.25368 5.35633   1
  -7   7   5 6.30509 3.43936   1
  -5   7   5 46.3060 3.11187   1
  -3   7   5 0.69405 2.32186   1
  -1   7   5 0.50738 2.02228   1
   1   7   5 -1.7950 1.94860   1
  -3   7   6 47.7595 16.3895  -2
   3   7   5 47.7595 16.3895   1
  -5   7   8 1.73129 16.9698  -2
   5   7   5 1.73129 16.9698   1
  -7   7   8 142.684 26.6421  -2
   7   7   5 142.684 26.6421   1
   8   8   1 98.2852 5.92564  -2
  -8   8   5 98.2852 5.92564   1
   6   8   2 270.940 6.16348  -2
  -6   8   5 270.940 6.16348   1
   4   8   3 315.416 6.40620  -2
  -4   8   5 315.416 6.40620   1
   2   8   4 2250.92 33.0565  -2
  -2   8   5 2250.92 33.0565   1
   0   8   5 93.4991 3.56046  -2
   0   8   5 93.4991 3.56046   1
  -2   8   6 85.5442 3.65475  -2
   2   8   5 85.5442 3.65475   1
  -4   8   7 62.4975 4.06945  -2
   4   8   5 62.4975 4.06945   1
  -6   8   8 90.3518 5.30915  -2
   6   8   5 90.3518 5.30915   1
  -7   9   5 12.7903 6.11772   1
  -5   9   5 141.200 4.93291   1
  -3   9   5 10.4279 3.13238   1
  -1   9   5 16.2588 2.81247   1
   1   9   5 62.9699 3.67744   1
  -3   9   6 88.0626 16.8137  -2
   3   9   5 88.0626 16.8137   1
   5   9   5 213.563 7.06199   1
   6  10   2 -30.207 13.9119  -2
  -6  10   5 -30.207 13.9119   1
   4  10   3 32.7999 4.33964  -2
  -4  10   5 32.7999 4.33964   1
   2  10   4 2.99132 3.52823  -2
  -2  10   5 2.99132 3.52823   1
   0  10   5 111.759 4.66866  -2
   0  10   5 111.759 4.66866   1
  -2  10   6 181.860 5.92950  -2
   2  10   5 181.860 5.92950   1
  -4  10   7 687.143 18.2419  -2
   4  10   5 687.143 18.2419   1
  -3  11   5 5.36780 5.35375   1
  -1  11   5 5.62369 3.66273   1
   1  11   5 6.39441 4.84044   1
  10   0   1 727.335 19.8121  -2
 -10   0   6 727.335 19.8121   1
   8   0   2 491.095 10.4188  -2
  -8   0   6 491.095 10.4188   1
   6   0   3 1760.62 28.4614  -2
  -6   0   6 1760.62 28.4614   1
   4   0   4 477.195 8.28457  -2
  -4   0   6 477.195 8.28457   1
   2   0   5 621.093 10.2897  -2
  -2   0   6 621.093 10.2897   1
   0   0   6 0.79377 1.53778  -2
   0   0   6 0.79377 1.53778   1
  -2   0   7 273.412 5.18851  -2
   2   0   6 273.412 5.18851   1
  -4   0   8 56.4053 3.48526  -2
   4   0   6 56.4053 3.48526   1
  -6   0   9 449.177 9.92509  -2
   6   0   6 449.177 9.92509   1
  -8   0  10 171.683 7.48916  -2
   8   0   6 171.683 7.48916   1
 -10   0  11 15.1189 13.1267  -2
  10   0   6 15.1189 13.1267   1
 -11   1   6 11.4507 4.43822   1
  -9   1   6 141.790 5.04633   1
  -7   1   6 1.87071 1.87116   1
  -5   1   6 38.1728 1.79485   1
  -3   1   6 9.16160 0.90741   1
  -1   1   6 79.9449 1.75079   1
   1   1   6 140.405 2.42714   1
   3   1   6 6.19476 1.30267   1
   5   1   6 101.387 3.35657   1
  -7   1  10 204.599 21.2975  -2
   7   1   6 204.599 21.2975   1
   9   1   6 7.48432 4.46142   1
  10   2   1 15.3899 4.22292  -2
 -10   2   6 15.3899 4.22292   1
   8   2   2 563.449 8.74677  -2
  -8   2   6 563.449 8.74677   1
   6   2   3 191.489 3.68574  -2
  -6   2   6 191.489 3.68574   1
   4   2   4 1255.47 15.1150  -2
  -4   2   6 1255.47 15.1150   1
   2   2   5 1430.68 17.0249  -2
  -2   2   6 1430.68 17.0249   1
   0   2   6 2251.97 25.2542  -2
   0   2   6 2251.97 25.2542   1
  -2   2   7 293.059 3.93927  -2
   2   2   6 293.059 3.93927   1
  -4   2   8 357.141 5.18156  -2
   4   2   6 357.141 5.18156   1
  -6   2   9 1503.97 21.7958  -2
   6   2   6 1503.97 21.7958   1
  -8   2  10 86.3355 4.78705  -2
   8   2   6 86.3355 4.78705   1
 -11   3   6 14.7154 6.65082   1
  -9   3   6 87.5648 4.71964   1
   7   3   2 -0.3001 8.67212  -2
  -7   3   6 -0.3001 8.67212   1
  -5   3   6 14.9151 1.79235   1
   3   3   4 8.81431 8.70428  -2
  -3   3   6 8.81431 8.70428   1
  -1   3   6 4.68344 0.98582   1
   1   3   6 9.72921 1.18648   1
   3   3   6 29.1144 1.67628   1
   5   3   6 10.8032 2.41631   1
   7   3   6 178.341 5.28552   1
   9   3   6 22.5899 4.82656   1
  10   4   1 570.064 15.0841  -2
 -10   4   6 570.064 15.0841   1
   8   4   2 293.476 6.64429  -2
  -8   4   6 293.476 6.64429   1
   6   4   3 1572.27 23.7783  -2
  -6   4   6 1572.27 23.7783   1
   4   4   4 261.895 4.39426  -2
  -4   4   6 261.895 4.39426   1
   2   4   5 360.981 5.33598  -2
  -2   4   6 360.981 5.33598   1
   0   4   6 6.87514 1.64459  -2
   0   4   6 6.87514 1.64459   1
  -2   4   7 195.094 3.34042  -2
   2   4   6 195.094 3.34042   1
  -4   4   8 58.2216 2.74586  -2
   4   4   6 58.2216 2.74586   1
  -6   4   9 310.525 6.78484  -2
   6   4   6 310.525 6.78484   1
  -8   4  10 180.461 6.37928  -2
   8   4   6 180.461 6.37928   1
  -9   5   6 158.153 6.32863   1
   7   5   2 31.5257 11.1025  -2
  -7   5   6 31.5257 11.1025   1
  -5   5   6 38.3508 2.68802   1
  -3   5   6 27.5525 2.13407   1
  -1   5   6 142.894 3.24467   1
   1   5   6 242.288 4.22400   1
   3   5   6 58.8942 2.39378   1
   5   5   6 172.899 5.73830   1
  -7   5  10 69.8944 22.6375  -2
   7   5   6 69.8944 22.6375   1
  -7   5   9 669.958 39.1741  -2
   7   5   6 669.958 39.1741   1
  10   6   1 10.3965 8.56583  -2
 -10   6   6 10.3965 8.56583   1
   8   6   2 264.028 6.69471  -2
  -8   6   6 264.028 6.69471   1
   6   6   3 28.2345 3.06689  -2
  -6   6   6 28.2345 3.06689   1
   4   6   4 524.540 8.53543  -2
  -4   6   6 524.540 8.53543   1
   2   6   5 622.883 8.74597  -2
  -2   6   6 622.883 8.74597   1
   0   6   6 1559.71 19.8338  -2
   0   6   6 1559.71 19.8338   1
  -2   6   7 155.460 3.48045  -2
   2   6   6 155.460 3.48045   1
  -4   6   8 246.345 5.46221  -2
   4   6   6 246.345 5.46221   1
  -6   6   9 924.351 19.0017  -2
   6   6   6 924.351 19.0017   1
  -8   6  10 23.8906 8.72094  -2
   8   6   6 23.8906 8.72094   1
  -9   7   6 42.3515 7.60285   1
  -7   7   6 -4.1228 3.47916   1
  -5   7   6 6.88616 2.67543   1
  -3   7   6 8.37033 2.45895   1
  -1   7   6 4.89730 2.13153   1
   1   7   6 4.21805 2.11886   1
   3   7   6 53.7086 3.30397   1
   5   7   6 3.11502 3.79124   1
  -7   7   9 231.192 29.3427  -2
   7   7   6 231.192 29.3427   1
   8   8   2 59.1835 7.99550  -2
  -8   8   6 59.1835 7.99550   1
   6   8   3 1211.43 18.0841  -2
  -6   8   6 1211.43 18.0841   1
   4   8   4 41.4436 3.42422  -2
  -4   8   6 41.4436 3.42422   1
   2   8   5 85.4759 3.80484  -2
  -2   8   6 85.4759 3.80484   1
   0   8   6 51.4330 3.26008  -2
   0   8   6 51.4330 3.26008   1
  -2   8   7 103.530 3.89016  -2
   2   8   6 103.530 3.89016   1
  -4   8   8 67.2225 5.07509  -2
   4   8   6 67.2225 5.07509   1
  -6   8   9 144.742 7.13177  -2
   6   8   6 144.742 7.13177   1
  -7   9   6 -1.0051 5.66679   1
  -5   9   6 21.2415 3.31051   1
  -3   9   6 18.5533 3.31569   1
  -1   9   6 95.0014 3.80569   1
  -1   9   6 250.906 20.3516  -2
   1   9   6 250.906 20.3516   1
  -3   9   7 131.382 18.4100  -2
   3   9   6 131.382 18.4100   1
   5   9   6 90.6000 6.40420   1
   4  10   4 137.968 6.14003  -2
  -4  10   6 137.968 6.14003   1
   2  10   5 177.527 6.40361  -2
  -2  10   6 177.527 6.40361   1
   0  10   6 858.455 16.7722  -2
   0  10   6 858.455 16.7722   1
  -2  10   7 60.5814 5.75950  -2
   2  10   6 60.5814 5.75950   1
  -4  10   8 144.459 14.6801  -2
   4  10   6 144.459 14.6801   1
  -1  11   6 -4.6480 8.61028   1
   1  11   6 7.38445 7.13825   1
  10   0   2 486.376 18.4100  -2
 -10   0   7 486.376 18.4100   1
   8   0   3 69.8439 4.65049  -2
  -8   0   7 69.8439 4.65049   1
   6   0   4 580.574 10.2787  -2
  -6   0   7 580.574 10.2787   1
   4   0   5 7.01942 1.73630  -2
  -4   0   7 7.01942 1.73630   1
   2   0   6 264.053 4.93326  -2
  -2   0   7 264.053 4.93326   1
   0   0   7 51.1159 2.38005  -2
   0   0   7 51.1159 2.38005   1
  -2   0   8 483.311 8.50172  -2
   2   0   7 483.311 8.50172   1
  -4   0   9 93.8300 4.20336  -2
   4   0   7 93.8300 4.20336   1
  -6   0  10 106.225 5.01169  -2
   6   0   7 106.225 5.01169   1
  -8   0  11 1707.12 41.8712  -2
   8   0   7 1707.12 41.8712   1
 -11   1   7 -2.5699 4.83213   1
  -9   1   7 22.6927 4.03469   1
   7   1   3 12.3046 8.61616  -2
  -7   1   7 12.3046 8.61616   1
  -5   1   7 132.421 2.99261   1
   3   1   5 10.0136 7.21226  -2
  -3   1   7 10.0136 7.21226   1
  -1   1   7 151.068 2.80562   1
   1   1   7 33.5360 1.54901   1
   3   1   7 103.881 2.57456   1
   5   1   7 24.4151 2.43634   1
   7   1   7 35.6822 3.88894   1
   9   1   7 -1.3285 5.07564   1
  10   2   2 2.94570 5.26720  -2
 -10   2   7 2.94570 5.26720   1
   8   2   3 978.686 13.8515  -2
  -8   2   7 978.686 13.8515   1
   6   2   4 582.009 8.07747  -2
  -6   2   7 582.009 8.07747   1
   4   2   5 1584.64 18.9693  -2
  -4   2   7 1584.64 18.9693   1
   2   2   6 280.424 3.95951  -2
  -2   2   7 280.424 3.95951   1
   0   2   7 474.663 6.12380  -2
   0   2   7 474.663 6.12380   1
  -2   2   8 2664.16 29.9604  -2
   2   2   7 2664.16 29.9604   1
  -4   2   9 52.5555 2.58710  -2
   4   2   7 52.5555 2.58710   1
  -6   2  10 22.9971 3.67573  -2
   6   2   7 22.9971 3.67573   1
  -8   2  11 235.091 7.13562  -2
   8   2   7 235.091 7.13562   1
 -11   3   7 30.3050 10.5330   1
  -9   3   7 7.71783 4.10467   1
  -7   3   7 12.0616 2.24465   1
  -5   3   7 32.1163 1.95651   1
  -3   3   7 30.9497 1.76317   1
  -1   3   7 15.0984 1.29774   1
   1   3   7 3.83364 1.26908   1
   3   3   7 215.791 3.78018   1
   5   3   7 55.4996 3.44554   1
  -7   3  11 50.4536 21.7714  -2
   7   3   7 50.4536 21.7714   1
   9   3   7 -6.3631 7.78980   1
  10   4   2 518.858 12.4194  -2
 -10   4   7 518.858 12.4194   1
   8   4   3 30.4541 3.88604  -2
  -8   4   7 30.4541 3.88604   1
   6   4   4 2887.72 106.515  -2
  -6   4   7 2887.72 106.515   1
   4   4   5 23.6021 2.19361  -2
  -4   4   7 23.6021 2.19361   1
   2   4   6 195.959 3.57215  -2
  -2   4   7 195.959 3.57215   1
   0   4   7 54.1011 2.43792  -2
   0   4   7 54.1011 2.43792   1
  -2   4   8 308.148 4.90591  -2
   2   4   7 308.148 4.90591   1
  -4   4   9 119.726 4.22703  -2
   4   4   7 119.726 4.22703   1
  -6   4  10 135.127 5.58218  -2
   6   4   7 135.127 5.58218   1
  -8   4  11 1301.59 25.6363  -2
   8   4   7 1301.59 25.6363   1
  -9   5   7 25.4435 4.02699   1
   7   5   3 0.80567 11.7170  -2
  -7   5   7 0.80567 11.7170   1
  -5   5   7 189.625 4.62582   1
  -3   5   7 60.7757 2.48488   1
  -1   5   7 263.370 4.83828   1
   1   5   7 96.8499 3.06326   1
   3   5   7 19.3762 2.70718   1
   5   5   7 3.86470 3.60802   1
  -7   5  10 217.092 28.0449  -2
   7   5   7 217.092 28.0449   1
   8   6   3 505.142 9.80797  -2
  -8   6   7 505.142 9.80797   1
   6   6   4 272.197 5.80268  -2
  -6   6   7 272.197 5.80268   1
   4   6   5 1174.05 17.0642  -2
  -4   6   7 1174.05 17.0642   1
   2   6   6 159.024 3.89583  -2
  -2   6   7 159.024 3.89583   1
   0   6   7 329.343 5.92080  -2
   0   6   7 329.343 5.92080   1
  -2   6   8 1460.82 20.7892  -2
   2   6   7 1460.82 20.7892   1
  -4   6   9 7.76921 3.56666  -2
   4   6   7 7.76921 3.56666   1
  -6   6  10 7.72886 4.91862  -2
   6   6   7 7.72886 4.91862   1
  -7   7   7 14.4869 3.42987   1
  -5   7   7 3.97504 2.77101   1
  -3   7   7 52.0447 3.21337   1
  -1   7   7 4.59158 2.37662   1
   1   7   7 25.6789 2.68461   1
   3   7   7 197.056 5.98994   1
   5   7   7 59.9245 5.18934   1
  -7   7  10 113.609 27.0351  -2
   7   7   7 113.609 27.0351   1
   6   8   4 118.727 5.00285  -2
  -6   8   7 118.727 5.00285   1
   4   8   5 60.3962 3.99596  -2
  -4   8   7 60.3962 3.99596   1
   2   8   6 106.415 4.38265  -2
  -2   8   7 106.415 4.38265   1
   0   8   7 63.8861 4.10128  -2
   0   8   7 63.8861 4.10128   1
  -2   8   8 121.120 4.53101  -2
   2   8   7 121.120 4.53101   1
  -4   8   9 166.332 6.06367  -2
   4   8   7 166.332 6.06367   1
  -6   8  10 154.344 14.7220  -2
   6   8   7 154.344 14.7220   1
  -5   9   7 111.609 4.86160   1
  -3   9   7 51.8150 4.06012   1
  -1   9   7 157.401 5.52498   1
  -1   9   7 164.723 18.9596  -2
   1   9   7 164.723 18.9596   1
  -3   9   8 66.9859 18.5512  -2
   3   9   7 66.9859 18.5512   1
   5   9   7 24.4939 9.65834   1
   4  10   5 651.402 17.4803  -2
  -4  10   7 651.402 17.4803   1
   2  10   6 61.8611 4.65048  -2
  -2  10   7 61.8611 4.65048   1
   0  10   7 174.195 6.02044  -2
   0  10   7 174.195 6.02044   1
  -2  10   8 621.396 17.2840  -2
   2  10   7 621.396 17.2840   1
  -1  11   7 -2.3744 8.88233   1
  10   0   3 385.252 12.7023  -2
 -10   0   8 385.252 12.7023   1
   8   0   4 50.5188 4.48439  -2
  -8   0   8 50.5188 4.48439   1
   6   0   5 183.612 5.07003  -2
  -6   0   8 183.612 5.07003   1
   4   0   6 56.0299 3.11808  -2
  -4   0   8 56.0299 3.11808   1
   2   0   7 452.259 8.88649  -2
  -2   0   8 452.259 8.88649   1
   0   0   8 52.0188 2.67162  -2
   0   0   8 52.0188 2.67162   1
  -2   0   9 387.979 8.14131  -2
   2   0   8 387.979 8.14131   1
  -4   0  10 4074.43 81.1367  -2
   4   0   8 4074.43 81.1367   1
  -6   0  11 147.435 6.57866  -2
   6   0   8 147.435 6.57866   1
  -8   0  12 -7.5063 8.26920  -2
   8   0   8 -7.5063 8.26920   1
 -11   1   8 -2.5238 4.96524   1
  -9   1   8 69.3705 4.43903   1
   7   1   4 5.50579 9.39289  -2
  -7   1   8 5.50579 9.39289   1
  -5   1   8 301.471 4.62297   1
  -3   1   8 5.92839 1.46402   1
  -1   1   8 25.8893 1.59496   1
   1   1   8 91.9682 2.72846   1
   3   1   8 43.4820 2.60234   1
  -5   1  11 7.03249 18.6663  -2
   5   1   8 7.03249 18.6663   1
   7   1   8 24.9176 4.47273   1
  10   2   3 134.254 7.01627  -2
 -10   2   8 134.254 7.01627   1
   8   2   4 672.760 10.5489  -2
  -8   2   8 672.760 10.5489   1
   6   2   5 149.698 3.51706  -2
  -6   2   8 149.698 3.51706   1
   4   2   6 337.996 5.11061  -2
  -4   2   8 337.996 5.11061   1
   2   2   7 2605.57 34.0867  -2
  -2   2   8 2605.57 34.0867   1
   0   2   8 28.1509 1.85706  -2
   0   2   8 28.1509 1.85706   1
  -2   2   9 185.044 3.55361  -2
   2   2   8 185.044 3.55361   1
  -4   2  10 144.597 4.27150  -2
   4   2   8 144.597 4.27150   1
  -6   2  11 112.490 5.26807  -2
   6   2   8 112.490 5.26807   1
  -8   2  12 62.8328 6.42802  -2
   8   2   8 62.8328 6.42802   1
  -9   3   8 23.7712 5.37423   1
  -7   3   8 57.8395 2.82615   1
  -5   3   8 98.7471 3.47110   1
  -3   3   8 71.0150 2.64291   1
  -1   3   8 111.822 3.11005   1
   1   3   8 155.292 3.22517   1
   3   3   8 47.1974 2.42521   1
   5   3   8 2.48887 3.35418   1
   7   3   8 57.0114 5.29434   1
  10   4   3 292.401 18.4765  -2
 -10   4   8 292.401 18.4765   1
   8   4   4 64.1830 3.89381  -2
  -8   4   8 64.1830 3.89381   1
   6   4   5 151.124 4.13647  -2
  -6   4   8 151.124 4.13647   1
   4   4   6 67.1331 2.69259  -2
  -4   4   8 67.1331 2.69259   1
   2   4   7 314.792 5.30800  -2
  -2   4   8 314.792 5.30800   1
   0   4   8 80.6491 2.72163  -2
   0   4   8 80.6491 2.72163   1
  -2   4   9 395.495 5.99892  -2
   2   4   8 395.495 5.99892   1
  -4   4  10 2875.36 46.7621  -2
   4   4   8 2875.36 46.7621   1
  -6   4  11 67.6023 5.98957  -2
   6   4   8 67.6023 5.98957   1
  -8   4  12 16.4894 12.0938  -2
   8   4   8 16.4894 12.0938   1
   9   5   4 205.449 23.1759  -2
  -9   5   8 205.449 23.1759   1
  -7   5   8 10.2788 2.88293   1
  -5   5   8 378.688 7.46285   1
  -3   5   8 13.7604 2.15295   1
  -1   5   8 -0.1800 1.89741   1
  -1   5   8 28.2146 17.2181  -2
   1   5   8 28.2146 17.2181   1
   3   5   8 27.0294 3.16922   1
  -5   5  10 23.0077 19.1749  -2
   5   5   8 23.0077 19.1749   1
   7   5   8 11.7980 6.37849   1
   8   6   4 558.333 11.4909  -2
  -8   6   8 558.333 11.4909   1
   6   6   5 91.4278 4.27324  -2
  -6   6   8 91.4278 4.27324   1
   4   6   6 247.507 5.68141  -2
  -4   6   8 247.507 5.68141   1
   2   6   7 1469.14 20.0211  -2
  -2   6   8 1469.14 20.0211   1
   0   6   8 1.78368 2.62379  -2
   0   6   8 1.78368 2.62379   1
  -2   6   9 28.4583 3.03301  -2
   2   6   8 28.4583 3.03301   1
  -4   6  10 41.5523 4.75732  -2
   4   6   8 41.5523 4.75732   1
  -6   6  11 160.915 8.43907  -2
   6   6   8 160.915 8.43907   1
  -7   7   8 69.3923 4.24682   1
  -5   7   8 19.3047 3.09375   1
  -3   7   8 88.9587 3.87745   1
  -1   7   8 119.261 4.33126   1
   1   7   8 128.634 4.24422   1
   3   7   8 36.4883 3.80107   1
   5   7   8 -4.0526 4.53396   1
   6   8   5 85.5676 4.81600  -2
  -6   8   8 85.5676 4.81600   1
   4   8   6 64.2797 4.04242  -2
  -4   8   8 64.2797 4.04242   1
   2   8   7 120.053 4.72731  -2
  -2   8   8 120.053 4.72731   1
   0   8   8 137.701 4.46106  -2
   0   8   8 137.701 4.46106   1
  -2   8   9 3110.48 71.2214  -2
   2   8   8 3110.48 71.2214   1
  -4   8  10 1268.39 24.6707  -2
   4   8   8 1268.39 24.6707   1
  -5   9   8 211.154 6.87011   1
  -3   9   8 13.1480 3.60232   1
  -1   9   8 0.50189 3.51139   1
  -1   9   8 101.214 14.8123  -2
   1   9   8 101.214 14.8123   1
   3   9   8 20.5860 4.12346   1
   4  10   6 135.298 14.2614  -2
  -4  10   8 135.298 14.2614   1
   2  10   7 576.473 16.3164  -2
  -2  10   8 576.473 16.3164   1
   0  10   8 41.9739 5.81340  -2
   0  10   8 41.9739 5.81340   1
  -2  10   9 63.1083 13.3958  -2
   2  10   8 63.1083 13.3958   1
  10   0   4 96.5740 9.15569  -2
 -10   0   9 96.5740 9.15569   1
   8   0   5 68.2419 6.45660  -2
  -8   0   9 68.2419 6.45660   1
   6   0   6 427.421 10.3104  -2
  -6   0   9 427.421 10.3104   1
   4   0   7 130.559 8.05531  -2
  -4   0   9 130.559 8.05531   1
   2   0   8 350.486 7.41318  -2
  -2   0   9 350.486 7.41318   1
   0   0   9 5316.56 92.0224  -2
   0   0   9 5316.56 92.0224   1
  -2   0  10 86.9308 3.83288  -2
   2   0   9 86.9308 3.83288   1
  -4   0  11 22.0124 4.82057  -2
   4   0   9 22.0124 4.82057   1
  -6   0  12 280.474 9.29307  -2
   6   0   9 280.474 9.29307   1
  -8   0  13 70.0340 9.90383  -2
   8   0   9 70.0340 9.90383   1
 -11   1   9 25.2435 8.96505   1
   9   1   5 192.051 22.0126  -2
  -9   1   9 192.051 22.0126   1
   7   1   5 20.3862 7.96190  -2
  -7   1   9 20.3862 7.96190   1
   5   1   6 51.6385 9.31603  -2
  -5   1   9 51.6385 9.31603   1
   3   1   8 75.4127 11.8363  -2
  -3   1   9 75.4127 11.8363   1
  -1   1   9 31.2902 1.83919   1
   1   1   9 -1.0511 1.72744   1
   3   1   9 31.2385 3.10032   1
  -5   1  12 30.8623 20.7399  -2
   5   1   9 30.8623 20.7399   1
   7   1   9 80.2688 5.51734   1
  10   2   4 58.5322 9.94513  -2
 -10   2   9 58.5322 9.94513   1
   8   2   5 149.516 5.18407  -2
  -8   2   9 149.516 5.18407   1
   6   2   6 1455.27 21.0435  -2
  -6   2   9 1455.27 21.0435   1
   4   2   7 49.1203 2.39735  -2
  -4   2   9 49.1203 2.39735   1
   2   2   8 183.688 3.98302  -2
  -2   2   9 183.688 3.98302   1
   0   2   9 77.0445 2.59139  -2
   0   2   9 77.0445 2.59139   1
  -2   2  10 36.3194 2.36616  -2
   2   2   9 36.3194 2.36616   1
  -4   2  11 196.826 5.12005  -2
   4   2   9 196.826 5.12005   1
  -6   2  12 1144.03 20.3195  -2
   6   2   9 1144.03 20.3195   1
  -8   2  13 39.0374 15.2029  -2
   8   2   9 39.0374 15.2029   1
  -9   3   9 73.6849 7.31739   1
  -7   3   9 80.9845 3.66990   1
  -5   3   9 31.3034 2.79014   1
  -3   3   9 251.618 5.50569   1
  -1   3   9 37.1301 2.47176   1
   1   3   9 5.94357 2.07709   1
   3   3   9 64.4753 3.39458   1
   5   3   9 3.14828 4.71081   1
   7   3   9 177.291 12.8967   1
   8   4   5 64.8112 5.06121  -2
  -8   4   9 64.8112 5.06121   1
   6   4   6 307.000 7.57795  -2
  -6   4   9 307.000 7.57795   1
   4   4   7 116.669 3.77323  -2
  -4   4   9 116.669 3.77323   1
   2   4   8 398.019 6.90408  -2
  -2   4   9 398.019 6.90408   1
   0   4   9 3868.89 53.7220  -2
   0   4   9 3868.89 53.7220   1
  -2   4  10 28.1237 2.87196  -2
   2   4   9 28.1237 2.87196   1
  -4   4  11 5.88146 4.41775  -2
   4   4   9 5.88146 4.41775   1
  -6   4  12 221.626 8.35080  -2
   6   4   9 221.626 8.35080   1
  -9   5   9 212.219 8.75057   1
  -7   5   9 0.68082 2.92084   1
  -5   5   9 10.7806 2.87111   1
  -3   5   9 81.8957 3.45839   1
  -1   5   9 16.1904 2.55977   1
   1   5   9 2.09067 2.48606   1
   3   5   9 2.17704 3.36305   1
  -5   5  12 79.7427 24.1622  -2
   5   5   9 79.7427 24.1622   1
   7   5   9 15.7021 13.7331   1
   8   6   5 112.177 5.76419  -2
  -8   6   9 112.177 5.76419   1
   6   6   6 884.443 14.6451  -2
  -6   6   9 884.443 14.6451   1
   4   6   7 1.68928 2.84162  -2
  -4   6   9 1.68928 2.84162   1
   2   6   8 29.7908 3.01922  -2
  -2   6   9 29.7908 3.01922   1
   0   6   9 15.5870 3.21780  -2
   0   6   9 15.5870 3.21780   1
  -2   6  10 100.188 4.72307  -2
   2   6   9 100.188 4.72307   1
  -4   6  11 234.452 8.80636  -2
   4   6   9 234.452 8.80636   1
  -7   7   9 82.9848 4.55471   1
  -5   7   9 41.5871 3.64441   1
  -3   7   9 191.275 5.81459   1
   1   7   9 -1.7513 16.3697  -2
  -1   7   9 -1.7513 16.3697   1
   1   7   9 4.08478 2.88252   1
   3   7   9 60.8062 4.90130   1
   5   7   9 14.8572 6.74164   1
   6   8   6 127.430 5.17443  -2
  -6   8   9 127.430 5.17443   1
   4   8   7 153.227 5.19822  -2
  -4   8   9 153.227 5.19822   1
   2   8   8 391.697 8.26894  -2
  -2   8   9 391.697 8.26894   1
   0   8   9 1660.23 25.6297  -2
   0   8   9 1660.23 25.6297   1
  -2   8  10 14.7786 5.17099  -2
   2   8   9 14.7786 5.17099   1
  -4   8  11 48.8089 10.8632  -2
   4   8   9 48.8089 10.8632   1
  -5   9   9 26.1004 7.05035   1
  -3   9   9 32.9283 3.95034   1
  -1   9   9 10.1325 3.48676   1
  -1   9   9 66.6935 14.9367  -2
   1   9   9 66.6935 14.9367   1
   3   9   9 13.1988 7.18816   1
  10   0   5 274.806 14.0894  -2
 -10   0  10 274.806 14.0894   1
   8   0   6 152.610 7.69452  -2
  -8   0  10 152.610 7.69452   1
   6   0   7 102.742 5.00541  -2
  -6   0  10 102.742 5.00541   1
   4   0   8 3761.66 86.2966  -2
  -4   0  10 3761.66 86.2966   1
   2   0   9 79.7122 4.25328  -2
  -2   0  10 79.7122 4.25328   1
   0   0  10 59.3329 3.32641  -2
   0   0  10 59.3329 3.32641   1
  -2   0  11 282.363 8.00286  -2
   2   0  10 282.363 8.00286   1
  -4   0  12 80.6995 5.82273  -2
   4   0  10 80.6995 5.82273   1
  -6   0  13 127.716 7.62236  -2
   6   0  10 127.716 7.62236   1
   9   1   5 9.71359 15.9045  -2
  -9   1  10 9.71359 15.9045   1
   7   1   6 231.509 11.8663  -2
  -7   1  10 231.509 11.8663   1
   5   1   7 38.0086 10.2142  -2
  -5   1  10 38.0086 10.2142   1
   3   1   9 17.1613 11.7030  -2
  -3   1  10 17.1613 11.7030   1
  -1   1  10 4.99457 1.89888   1
   1   1  10 2.50869 1.88511   1
   3   1  10 46.3992 3.35732   1
   5   1  10 6.15322 3.59263   1
   7   1  10 71.5467 5.71165   1
   8   2   6 92.6258 4.78913  -2
  -8   2  10 92.6258 4.78913   1
   6   2   7 22.6281 3.57092  -2
  -6   2  10 22.6281 3.57092   1
   4   2   8 140.043 3.81342  -2
  -4   2  10 140.043 3.81342   1
   2   2   9 40.5025 2.55751  -2
  -2   2  10 40.5025 2.55751   1
   0   2  10 300.476 5.53789  -2
   0   2  10 300.476 5.53789   1
  -2   2  11 1843.25 23.3519  -2
   2   2  10 1843.25 23.3519   1
  -4   2  12 37.6229 3.72943  -2
   4   2  10 37.6229 3.72943   1
  -6   2  13 240.943 7.47340  -2
   6   2  10 240.943 7.47340   1
   9   3   5 -25.439 17.8339  -2
  -9   3  10 -25.439 17.8339   1
   7   3   6 283.892 20.1290  -2
  -7   3  10 283.892 20.1290   1
   5   3   7 28.8616 13.0816  -2
  -5   3  10 28.8616 13.0816   1
   3   3   8 70.2765 17.6629  -2
  -3   3  10 70.2765 17.6629   1
  -1   3  10 25.3663 2.63230   1
   1   3  10 18.5283 2.45946   1
   3   3  10 140.968 6.70113   1
   5   3  10 14.0662 5.03968   1
   7   3  10 154.655 13.3347   1
   8   4   6 162.463 6.45317  -2
  -8   4  10 162.463 6.45317   1
   6   4   7 142.175 4.77361  -2
  -6   4  10 142.175 4.77361   1
   4   4   8 2846.14 40.0881  -2
  -4   4  10 2846.14 40.0881   1
   2   4   9 28.9245 2.92546  -2
  -2   4  10 28.9245 2.92546   1
   0   4  10 21.2156 2.85663  -2
   0   4  10 21.2156 2.85663   1
  -2   4  11 203.783 5.31116  -2
   2   4  10 203.783 5.31116   1
  -4   4  12 72.7975 6.23818  -2
   4   4  10 72.7975 6.23818   1
  -6   4  13 109.372 7.79151  -2
   6   4  10 109.372 7.79151   1
   7   5   6 84.8054 22.5473  -2
  -7   5  10 84.8054 22.5473   1
   5   5   7 -8.9840 13.8441  -2
  -5   5  10 -8.9840 13.8441   1
  -3   5  10 4.09696 2.65289   1
   1   5   9 -4.1511 18.1397  -2
  -1   5  10 -4.1511 18.1397   1
  -1   5  11 21.3512 13.8813  -2
   1   5  10 21.3512 13.8813   1
   3   5  10 5.43024 3.83788   1
   5   5  10 22.0435 6.49427   1
   8   6   6 12.6840 6.60346  -2
  -8   6  10 12.6840 6.60346   1
   6   6   7 0.01034 4.73874  -2
  -6   6  10 0.01034 4.73874   1
   4   6   8 45.9279 3.76280  -2
  -4   6  10 45.9279 3.76280   1
   2   6   9 97.3447 4.09150  -2
  -2   6  10 97.3447 4.09150   1
   0   6  10 321.085 6.83724  -2
   0   6  10 321.085 6.83724   1
  -2   6  11 1050.47 18.4250  -2
   2   6  10 1050.47 18.4250   1
  -4   6  12 41.7171 6.57891  -2
   4   6  10 41.7171 6.57891   1
  -7   7  10 147.766 8.35288   1
  -5   7  10 16.5350 4.56194   1
  -3   7  10 11.5744 3.58446   1
   1   7  10 4.49551 17.6416  -2
  -1   7  10 4.49551 17.6416   1
   1   7   9 81.0989 22.6134  -2
  -1   7  10 81.0989 22.6134   1
  -1   7  10 43.9609 24.1951  -2
   1   7  10 43.9609 24.1951   1
   3   7  10 160.136 7.43945   1
   6   8   7 179.141 19.3985  -2
  -6   8  10 179.141 19.3985   1
   4   8   8 1248.03 25.6826  -2
  -4   8  10 1248.03 25.6826   1
   2   8   9 4.17829 3.99023  -2
  -2   8  10 4.17829 3.99023   1
   0   8  10 5.31034 4.16144  -2
   0   8  10 5.31034 4.16144   1
  -2   8  11 120.115 6.58619  -2
   2   8  10 120.115 6.58619   1
  -3   9  10 -1.0329 9.38915   1
  -1   9  10 16.7107 5.40105   1
  10   0   6 -22.785 11.4665  -2
 -10   0  11 -22.785 11.4665   1
   8   0   7 1659.86 40.2141  -2
  -8   0  11 1659.86 40.2141   1
   6   0   8 118.377 5.64113  -2
  -6   0  11 118.377 5.64113   1
   4   0   9 24.1011 3.86771  -2
  -4   0  11 24.1011 3.86771   1
   2   0  10 259.178 8.93196  -2
  -2   0  11 259.178 8.93196   1
   0   0  11 86.0212 4.61372  -2
   0   0  11 86.0212 4.61372   1
  -2   0  12 129.821 4.72977  -2
   2   0  11 129.821 4.72977   1
  -4   0  13 78.5189 6.21717  -2
   4   0  11 78.5189 6.21717   1
  -6   0  14 459.079 13.5077  -2
   6   0  11 459.079 13.5077   1
   9   1   6 -3.6129 11.0139  -2
  -9   1  11 -3.6129 11.0139   1
   9   1   7 -8.0323 18.3079  -2
  -9   1  11 -8.0323 18.3079   1
   7   1   7 19.8446 14.0037  -2
  -7   1  11 19.8446 14.0037   1
   5   1   8 -1.6362 10.7906  -2
  -5   1  11 -1.6362 10.7906   1
   5   1   9 32.1267 15.0599  -2
  -5   1  11 32.1267 15.0599   1
   3   1  10 31.1979 11.8050  -2
  -3   1  11 31.1979 11.8050   1
  -1   1  11 4.29244 2.04665   1
   1   1  11 15.8618 2.31994   1
   3   1  11 54.9999 3.70372   1
   5   1  11 66.1103 4.58069   1
   7   1  11 20.8043 6.57580   1
   8   2   7 239.662 9.80541  -2
  -8   2  11 239.662 9.80541   1
   6   2   8 99.0374 4.94503  -2
  -6   2  11 99.0374 4.94503   1
   4   2   9 197.833 5.26857  -2
  -4   2  11 197.833 5.26857   1
   2   2  10 1804.92 25.8189  -2
  -2   2  11 1804.92 25.8189   1
   0   2  11 43.4382 2.92185  -2
   0   2  11 43.4382 2.92185   1
  -2   2  12 380.393 7.63208  -2
   2   2  11 380.393 7.63208   1
  -4   2  13 557.450 10.8063  -2
   4   2  11 557.450 10.8063   1
  -6   2  14 46.4751 6.75149  -2
   6   2  11 46.4751 6.75149   1
   9   3   6 -17.979 18.6212  -2
  -9   3  11 -17.979 18.6212   1
   7   3   8 49.7694 18.2768  -2
  -7   3  11 49.7694 18.2768   1
   7   3   7 15.7920 15.5602  -2
  -7   3  11 15.7920 15.5602   1
   5   3   8 -12.030 13.7369  -2
  -5   3  11 -12.030 13.7369   1
   3   3   9 108.146 11.5612  -2
  -3   3  11 108.146 11.5612   1
  -1   3  11 36.1168 2.95823   1
   1   3  11 89.1716 3.60182   1
   3   3  11 141.619 7.10598   1
   5   3  11 24.0120 6.26421   1
   8   4   7 1225.19 23.4734  -2
  -8   4  11 1225.19 23.4734   1
   6   4   8 69.8272 4.15541  -2
  -6   4  11 69.8272 4.15541   1
   4   4   9 4.55254 2.72577  -2
  -4   4  11 4.55254 2.72577   1
   2   4  10 214.051 5.10597  -2
  -2   4  11 214.051 5.10597   1
   0   4  11 76.8484 3.55170  -2
   0   4  11 76.8484 3.55170   1
  -2   4  12 101.637 4.57359  -2
   2   4  11 101.637 4.57359   1
  -4   4  13 80.1226 6.91918  -2
   4   4  11 80.1226 6.91918   1
   7   5   8 51.2867 16.0775  -2
  -7   5  11 51.2867 16.0775   1
   5   5   8 -6.3870 15.5635  -2
  -5   5  11 -6.3870 15.5635   1
   3   5   9 -12.320 11.8256  -2
  -3   5  11 -12.320 11.8256   1
   1   5  10 21.6305 13.2462  -2
  -1   5  11 21.6305 13.2462   1
   1   5  11 0.26652 3.19463   1
   3   5  11 13.5485 5.55304   1
   5   5  11 86.9934 14.4572   1
   6   6   8 145.355 5.89353  -2
  -6   6  11 145.355 5.89353   1
   4   6   9 234.792 6.55805  -2
  -4   6  11 234.792 6.55805   1
   2   6  10 1100.48 16.8056  -2
  -2   6  11 1100.48 16.8056   1
   0   6  11 45.6963 3.86081  -2
   0   6  11 45.6963 3.86081   1
  -2   6  12 276.500 7.31381  -2
   2   6  11 276.500 7.31381   1
  -4   6  13 461.825 28.3291  -2
   4   6  11 461.825 28.3291   1
  -5   7  11 7.51748 3.93241   1
  -3   7  11 82.6662 4.96547   1
  -1   7  11 58.7264 4.22157   1
   1   7  11 121.117 5.72417   1
   3   7  11 172.447 18.5811   1
   4   8   9 -6.7395 8.10686  -2
  -4   8  11 -6.7395 8.10686   1
   2   8  10 100.236 5.52704  -2
  -2   8  11 100.236 5.52704   1
   0   8  11 66.3210 4.67069  -2
   0   8  11 66.3210 4.67069   1
  -2   8  12 80.1110 11.9840  -2
   2   8  11 80.1110 11.9840   1
   8   0   8 -0.4591 6.86786  -2
  -8   0  12 -0.4591 6.86786   1
   6   0   9 265.834 10.0333  -2
  -6   0  12 265.834 10.0333   1
   4   0  10 62.9662 4.80533  -2
  -4   0  12 62.9662 4.80533   1
   2   0  11 118.991 5.42879  -2
  -2   0  12 118.991 5.42879   1
   0   0  12 48.6931 4.16111  -2
   0   0  12 48.6931 4.16111   1
  -2   0  13 455.212 11.7543  -2
   2   0  12 455.212 11.7543   1
  -4   0  14 1107.54 24.6147  -2
   4   0  12 1107.54 24.6147   1
  -6   0  15 408.303 14.4707  -2
   6   0  12 408.303 14.4707   1
   9   1   7 -9.0430 12.1295  -2
  -9   1  12 -9.0430 12.1295   1
   7   1   9 33.6250 18.1813  -2
  -7   1  12 33.6250 18.1813   1
   7   1   8 32.4146 14.3272  -2
  -7   1  12 32.4146 14.3272   1
   5   1   9 35.4131 13.5225  -2
  -5   1  12 35.4131 13.5225   1
   5   1  10 25.9626 16.2360  -2
  -5   1  12 25.9626 16.2360   1
  -3   1  12 95.7113 4.88330   1
  -1   1  12 7.74852 3.16327   1
   1   1  12 33.3183 2.76258   1
   3   1  12 64.0476 4.59755   1
   5   1  12 49.2211 5.01051   1
   8   2   8 58.1162 5.89977  -2
  -8   2  12 58.1162 5.89977   1
   6   2   9 1060.27 20.9949  -2
  -6   2  12 1060.27 20.9949   1
   2   2  11 365.533 7.43520  -2
  -2   2  12 365.533 7.43520   1
   0   2  12 666.357 10.6566  -2
   0   2  12 666.357 10.6566   1
  -2   2  13 114.437 5.11494  -2
   2   2  12 114.437 5.11494   1
  -4   2  14 62.8343 5.30269  -2
   4   2  12 62.8343 5.30269   1
   7   3   9 185.227 21.8439  -2
  -7   3  12 185.227 21.8439   1
   7   3   8 84.9281 16.0732  -2
  -7   3  12 84.9281 16.0732   1
   5   3   9 -23.383 13.1141  -2
  -5   3  12 -23.383 13.1141   1
   3   3  10 287.816 19.8211  -2
  -3   3  12 287.816 19.8211   1
  -1   3  12 57.2664 3.41955   1
   1   3  12 4.77894 2.80860   1
   3   3  12 31.2479 5.72788   1
   5   3  12 43.0291 6.74036   1
   8   4   8 12.6309 7.09278  -2
  -8   4  12 12.6309 7.09278   1
   6   4   9 234.488 7.66586  -2
  -6   4  12 234.488 7.66586   1
   4   4  10 71.2173 3.73608  -2
  -4   4  12 71.2173 3.73608   1
   2   4  11 99.8567 4.06964  -2
  -2   4  12 99.8567 4.06964   1
   0   4  12 63.3954 3.69325  -2
   0   4  12 63.3954 3.69325   1
  -2   4  13 309.648 7.69539  -2
   2   4  12 309.648 7.69539   1
  -4   4  14 795.122 19.4054  -2
   4   4  12 795.122 19.4054   1
  -7   5  12 8.53133 6.16609   1
   5   5   9 42.2849 17.8720  -2
  -5   5  12 42.2849 17.8720   1
   3   5  10 22.2864 14.4735  -2
  -3   5  12 22.2864 14.4735   1
   1   5  11 -2.0873 13.2330  -2
  -1   5  12 -2.0873 13.2330   1
   1   5  12 60.1595 4.45849   1
   3   5  12 85.6726 7.30490   1
   6   6   9 673.526 16.1816  -2
  -6   6  12 673.526 16.1816   1
   4   6  10 33.9898 4.00202  -2
  -4   6  12 33.9898 4.00202   1
   2   6  11 225.900 5.94498  -2
  -2   6  12 225.900 5.94498   1
   0   6  12 601.745 10.9567  -2
   0   6  12 601.745 10.9567   1
  -2   6  13 40.1698 4.89672  -2
   2   6  12 40.1698 4.89672   1
  -5   7  12 6.95044 9.50214   1
  -3   7  12 216.028 7.38772   1
  -1   7  12 76.2411 5.11180   1
   1   7  12 7.37176 4.10557   1
   0   8  12 122.231 20.2363  -2
   0   8  12 122.231 20.2363   1
   8   0   9 64.6078 10.7796  -2
  -8   0  13 64.6078 10.7796   1
   6   0  10 150.807 8.47571  -2
  -6   0  13 150.807 8.47571   1
   4   0  11 63.6097 5.21657  -2
  -4   0  13 63.6097 5.21657   1
   2   0  12 429.093 11.0023  -2
  -2   0  13 429.093 11.0023   1
   0   0  13 1422.61 29.6511  -2
   0   0  13 1422.61 29.6511   1
  -2   0  14 668.225 18.9027  -2
   2   0  13 668.225 18.9027   1
  -4   0  15 74.7907 8.39400  -2
   4   0  13 74.7907 8.39400   1
   7   1  10 74.8681 18.7143  -2
  -7   1  13 74.8681 18.7143   1
   7   1   9 161.831 19.5840  -2
  -7   1  13 161.831 19.5840   1
  -5   1  13 -1.3379 3.74931   1
  -3   1  13 2.19655 3.68637   1
  -1   1  13 114.091 5.25015   1
   1   1  13 49.9132 4.59934   1
   3   1  13 6.63571 4.56257   1
   5   1  13 37.4202 6.56243   1
   8   2   9 15.6616 7.17079  -2
  -8   2  13 15.6616 7.17079   1
   6   2  10 202.281 7.83642  -2
  -6   2  13 202.281 7.83642   1
   4   2  11 504.531 9.80373  -2
  -4   2  13 504.531 9.80373   1
   2   2  12 114.798 4.67336  -2
  -2   2  13 114.798 4.67336   1
   0   2  13 28.2137 3.82935  -2
   0   2  13 28.2137 3.82935   1
  -2   2  14 26.6630 4.54245  -2
   2   2  13 26.6630 4.54245   1
  -4   2  15 427.322 11.4139  -2
   4   2  13 427.322 11.4139   1
   7   3   9 291.014 23.7759  -2
  -7   3  13 291.014 23.7759   1
   7   3  10 259.927 24.6311  -2
  -7   3  13 259.927 24.6311   1
   5   3  10 22.9131 16.2244  -2
  -5   3  13 22.9131 16.2244   1
  -3   3  13 5.25222 3.51438   1
  -1   3  13 63.2072 3.81613   1
   1   3  13 39.3990 4.09660   1
   3   3  13 15.8087 5.80175   1
   6   4  10 104.002 5.46204  -2
  -6   4  13 104.002 5.46204   1
   4   4  11 69.7703 4.37560  -2
  -4   4  13 69.7703 4.37560   1
   2   4  12 300.709 6.56808  -2
  -2   4  13 300.709 6.56808   1
   0   4  13 1069.74 16.4288  -2
   0   4  13 1069.74 16.4288   1
  -2   4  14 685.005 14.8671  -2
   2   4  13 685.005 14.8671   1
   5   5  10 3.94257 16.3590  -2
  -5   5  13 3.94257 16.3590   1
   3   5  11 -9.7031 15.1524  -2
  -3   5  13 -9.7031 15.1524   1
   1   5  12 173.168 17.9609  -2
  -1   5  13 173.168 17.9609   1
   1   5  13 46.5940 4.59431   1
   4   6  11 472.892 12.3618  -2
  -4   6  13 472.892 12.3618   1
   2   6  12 44.7396 4.34933  -2
  -2   6  13 44.7396 4.34933   1
   0   6  13 7.26809 4.08041  -2
   0   6  13 7.26809 4.08041   1
  -3   7  13 14.3866 11.0887   1
  -1   7  13 27.1956 11.9747   1
   6   0  11 421.744 13.8585  -2
  -6   0  14 421.744 13.8585   1
   4   0  12 1031.26 26.5479  -2
  -4   0  14 1031.26 26.5479   1
   2   0  13 667.773 18.2597  -2
  -2   0  14 667.773 18.2597   1
   0   0  14 129.081 7.19808  -2
   0   0  14 129.081 7.19808   1
  -2   0  15 40.3924 9.60206  -2
   2   0  14 40.3924 9.60206   1
  -7   1  14 1.74691 6.58854   1
   5   1  12 128.067 18.9671  -2
  -5   1  14 128.067 18.9671   1
   3   1  13 8.21848 15.7036  -2
  -3   1  14 8.21848 15.7036   1
  -1   1  14 7.41089 4.21298   1
   1   1  14 16.3243 5.17777   1
   3   1  14 7.86791 5.63118   1
   6   2  11 27.4590 4.54530  -2
  -6   2  14 27.4590 4.54530   1
   4   2  12 51.0786 4.33325  -2
  -4   2  14 51.0786 4.33325   1
   2   2  13 27.1144 4.03782  -2
  -2   2  14 27.1144 4.03782   1
   0   2  14 383.803 8.21508  -2
   0   2  14 383.803 8.21508   1
  -2   2  15 783.856 17.2574  -2
   2   2  14 783.856 17.2574   1
  -5   3  14 104.128 7.59499   1
  -3   3  14 26.7560 4.21813   1
  -1   3  14 2.27536 3.77917   1
   1   3  14 9.98021 3.90060   1
   3   3  14 17.8254 10.1907   1
   6   4  11 319.238 29.5576  -2
  -6   4  14 319.238 29.5576   1
   4   4  12 782.477 15.2279  -2
  -4   4  14 782.477 15.2279   1
   2   4  13 681.571 12.5412  -2
  -2   4  14 681.571 12.5412   1
   0   4  14 72.2911 4.46025  -2
   0   4  14 72.2911 4.46025   1
  -2   4  15 18.2687 8.51455  -2
   2   4  14 18.2687 8.51455   1
  -3   5  14 37.2617 5.85543   1
   1   5  13 99.0726 27.7868  -2
  -1   5  14 99.0726 27.7868   1
   1   5  14 22.8985 6.13845   1
   2   6  13 5.82145 10.5643  -2
  -2   6  14 5.82145 10.5643   1
   6   0  12 316.926 20.0296  -2
  -6   0  15 316.926 20.0296   1
   4   0  13 63.4435 7.08457  -2
  -4   0  15 63.4435 7.08457   1
   2   0  14 47.5683 6.21003  -2
  -2   0  15 47.5683 6.21003   1
   0   0  15 55.3246 6.22565  -2
   0   0  15 55.3246 6.22565   1
  -5   1  15 -1.4809 6.47307   1
  -3   1  15 -3.3370 4.77763   1
  -1   1  15 12.5562 3.98070   1
   1   1  15 24.1349 6.09772   1
   4   2  13 375.961 9.51554  -2
  -4   2  15 375.961 9.51554   1
   2   2  14 778.033 13.9531  -2
  -2   2  15 778.033 13.9531   1
   0   2  15 395.761 9.57484  -2
   0   2  15 395.761 9.57484   1
  -2   2  16 89.1127 17.7262  -2
   2   2  15 89.1127 17.7262   1
  -5   3  15 -0.8505 10.7303   1
  -3   3  15 2.73888 4.19592   1
  -1   3  15 4.39677 4.14130   1
   1   3  15 14.2044 10.4769   1
   2   4  14 19.9810 7.78356  -2
  -2   4  15 19.9810 7.78356   1
   0   4  15 63.2732 11.6036  -2
   0   4  15 63.2732 11.6036   1
  -1   1  16 52.5222 6.89117   1
   2   2  15 62.8622 12.1256  -2
  -2   2  16 62.8622 12.1256   1
   0   0   0    0.00    0.00   0
;
_shelx_hkl_checksum              81452
loop_
_space_group_symop_operation_xyz
'x, y, z'
'-x, y, -z'
'x+1/2, y+1/2, z'
'-x+1/2, y+1/2, -z'
'-x, -y, -z'
'x, -y, z'
'-x+1/2, -y+1/2, -z'
'x+1/2, -y+1/2, z'
loop_
_atom_site_label
_atom_site_type_symbol
_atom_site_fract_x
_atom_site_fract_y
_atom_site_fract_z
_atom_site_U_iso_or_equiv
_atom_site_adp_type
_atom_site_occupancy
_atom_site_site_symmetry_order
_atom_site_calc_flag
_atom_site_refinement_flags_posn
_atom_site_refinement_flags_adp
_atom_site_refinement_flags_occupancy
Pr1 Pr 0.0832(3) 0.24962(7) 0.33491(4) 0.0047(2) Uani 1 1 d . . .
Pd1 Pd 0.1979(2) 0.0000 0.78994(10) 0.0056(2) Uani 1 2 d S T P
Ge1 Ge 0.1453(6) 0.0000 0.56086(15) 0.0057(3) Uani 1 2 d S T P
Ge2 Ge 0.3580(6) 0.0000 0.42433(15) 0.0075(3) Uani 1 2 d S T P
Ge3 Ge 0.4981(3) 0.0000 0.11115(16) 0.0070(5) Uani 1 2 d S T P
Ge4 Ge 0.0573(3) 0.0000 0.11150(17) 0.0068(5) Uani 1 2 d S T P
Ge5 Ge 0.2778(4) 0.22270(12) 0.11130(9) 0.0066(2) Uani 1 1 d . . .
loop_
_atom_site_aniso_label
_atom_site_aniso_U_11
_atom_site_aniso_U_22
_atom_site_aniso_U_33
_atom_site_aniso_U_23
_atom_site_aniso_U_13
_atom_site_aniso_U_12
Pr1 0.0040(4) 0.0047(3) 0.0046(3) 0.0001(2) -0.0012(9) -0.0004(2)
Pd1 0.0054(5) 0.0060(5) 0.0047(5) 0.000 -0.0006(6) 0.000
Ge1 0.0036(8) 0.0087(7) 0.0047(7) 0.000 0.0004(12) 0.000
Ge2 0.0052(8) 0.0081(7) 0.0084(7) 0.000 -0.0008(14) 0.000
Ge3 0.0065(14) 0.0075(8) 0.0063(8) 0.000 -0.0004(7) 0.000
Ge4 0.0075(14) 0.0072(8) 0.0062(8) 0.000 0.0027(7) 0.000
Ge5 0.0067(5) 0.0072(5) 0.0054(4) -0.0010(3) 0.0001(8) 0.0004(11)
loop_
_atom_type_symbol
_atom_type_description
_atom_type_scat_dispersion_real
_atom_type_scat_dispersion_imag
_atom_type_scat_source
Ge Ge 0.1547 1.8001 'International Tables Vol C Tables 4.2.6.8 and 6.1.1.4'
Pd Pd -0.9988 1.0072 'International Tables Vol C Tables 4.2.6.8 and 6.1.1.4'
Pr Pr -0.2180 2.8214 'International Tables Vol C Tables 4.2.6.8 and 6.1.1.4'
loop_
_geom_angle_atom_site_label_1
_geom_angle_atom_site_label_2
_geom_angle_atom_site_label_3
_geom_angle
_geom_angle_site_symmetry_1
_geom_angle_site_symmetry_3
Ge2 Pr1 Ge2 142.66(6) 3_455 .
Ge2 Pr1 Ge1 81.34(5) 3_455 7_556
Ge2 Pr1 Ge1 84.47(12) . 7_556
Ge2 Pr1 Ge1 84.17(13) 3_455 5_556
Ge2 Pr1 Ge1 83.07(5) . 5_556
Ge1 Pr1 Ge1 137.00(6) 7_556 5_556
Ge2 Pr1 Ge5 135.52(5) 3_455 .
Ge2 Pr1 Ge5 76.89(8) . .
Ge1 Pr1 Ge5 85.44(9) 7_556 .
Ge1 Pr1 Ge5 130.70(5) 5_556 .
Ge2 Pr1 Ge5 77.23(8) 3_455 8_455
Ge2 Pr1 Ge5 135.88(4) . 8_455
Ge1 Pr1 Ge5 130.16(5) 7_556 8_455
Ge1 Pr1 Ge5 84.74(9) 5_556 8_455
Ge5 Pr1 Ge5 79.61(3) . 8_455
Ge2 Pr1 Pd1 99.16(11) 3_455 5_556
Ge2 Pr1 Pd1 97.15(6) . 5_556
Ge1 Pr1 Pd1 176.34(5) 7_556 5_556
Ge1 Pr1 Pd1 46.61(5) 5_556 5_556
Ge5 Pr1 Pd1 91.72(5) . 5_556
Ge5 Pr1 Pd1 46.80(4) 8_455 5_556
Ge2 Pr1 Pd1 96.49(6) 3_455 7_556
Ge2 Pr1 Pd1 98.59(11) . 7_556
Ge1 Pr1 Pd1 46.89(5) 7_556 7_556
Ge1 Pr1 Pd1 176.06(6) 5_556 7_556
Ge5 Pr1 Pd1 46.79(4) . 7_556
Ge5 Pr1 Pd1 91.61(5) 8_455 7_556
Pd1 Pr1 Pd1 129.49(4) 5_556 7_556
Ge2 Pr1 Ge4 137.03(10) 3_455 .
Ge2 Pr1 Ge4 76.12(5) . .
Ge1 Pr1 Ge4 131.65(11) 7_556 .
Ge1 Pr1 Ge4 84.36(5) 5_556 .
Ge5 Pr1 Ge4 47.36(5) . .
Ge5 Pr1 Ge4 60.55(5) 8_455 .
Pd1 Pr1 Ge4 46.09(5) 5_556 .
Pd1 Pr1 Ge4 92.56(5) 7_556 .
Ge2 Pr1 Ge3 75.93(5) 3_455 3_455
Ge2 Pr1 Ge3 136.57(10) . 3_455
Ge1 Pr1 Ge3 84.11(5) 7_556 3_455
Ge1 Pr1 Ge3 130.73(10) 5_556 3_455
Ge5 Pr1 Ge3 60.52(5) . 3_455
Ge5 Pr1 Ge3 47.26(5) 8_455 3_455
Pd1 Pr1 Ge3 92.49(4) 5_556 3_455
Pd1 Pr1 Ge3 46.06(5) 7_556 3_455
Ge4 Pr1 Ge3 80.82(3) . 3_455
Ge2 Pr1 Ge1 101.54(7) 3_455 .
Ge2 Pr1 Ge1 46.65(14) . .
Ge1 Pr1 Ge1 97.85(6) 7_556 .
Ge1 Pr1 Ge1 46.24(14) 5_556 .
Ge5 Pr1 Ge1 122.33(9) . .
Ge5 Pr1 Ge1 130.20(9) 8_455 .
Pd1 Pr1 Ge1 85.62(6) 5_556 .
Pd1 Pr1 Ge1 137.06(10) 7_556 .
Ge4 Pr1 Ge1 99.82(4) . .
Ge3 Pr1 Ge1 176.58(12) 3_455 .
Ge2 Pr1 Ge2 47.57(13) 3_455 7_556
Ge2 Pr1 Ge2 99.61(6) . 7_556
Ge1 Pr1 Ge2 45.34(13) 7_556 7_556
Ge1 Pr1 Ge2 96.90(7) 5_556 7_556
Ge5 Pr1 Ge2 130.43(10) . 7_556
Ge5 Pr1 Ge2 123.92(9) 8_455 7_556
Pd1 Pr1 Ge2 137.15(11) 5_556 7_556
Pd1 Pr1 Ge2 86.37(7) 7_556 7_556
Ge4 Pr1 Ge2 175.40(10) . 7_556
Ge3 Pr1 Ge2 101.53(4) 3_455 7_556
Ge1 Pr1 Ge2 78.07(3) . 7_556
Ge1 Pd1 Ge4 116.23(14) . 5_556
Ge1 Pd1 Ge3 114.76(14) . 5_656
Ge4 Pd1 Ge3 129.02(7) 5_556 5_656
Ge1 Pd1 Ge5 115.22(3) . 7_556
Ge4 Pd1 Ge5 79.42(8) 5_556 7_556
Ge3 Pd1 Ge5 79.44(8) 5_656 7_556
Ge1 Pd1 Ge5 115.21(3) . 4_546
Ge4 Pd1 Ge5 79.42(8) 5_556 4_546
Ge3 Pd1 Ge5 79.44(8) 5_656 4_546
Ge5 Pd1 Ge5 129.57(6) 7_556 4_546
Ge1 Pd1 Pr1 65.28(9) . 5_556
Ge4 Pd1 Pr1 67.13(6) 5_556 5_556
Ge3 Pd1 Pr1 139.08(4) 5_656 5_556
Ge5 Pd1 Pr1 139.94(11) 7_556 5_556
Ge5 Pd1 Pr1 66.27(6) 4_546 5_556
Ge1 Pd1 Pr1 65.28(8) . 2_556
Ge4 Pd1 Pr1 67.13(6) 5_556 2_556
Ge3 Pd1 Pr1 139.08(4) 5_656 2_556
Ge5 Pd1 Pr1 66.27(6) 7_556 2_556
Ge5 Pd1 Pr1 139.94(11) 4_546 2_556
Pr1 Pd1 Pr1 80.39(6) 5_556 2_556
Ge1 Pd1 Pr1 64.22(9) . 7_556
Ge4 Pd1 Pr1 138.95(4) 5_556 7_556
Ge3 Pd1 Pr1 67.25(6) 5_656 7_556
Ge5 Pd1 Pr1 66.22(6) 7_556 7_556
Ge5 Pd1 Pr1 140.10(11) 4_546 7_556
Pr1 Pd1 Pr1 129.49(4) 5_556 7_556
Pr1 Pd1 Pr1 78.52(2) 2_556 7_556
Ge1 Pd1 Pr1 64.22(8) . 4_546
Ge4 Pd1 Pr1 138.95(4) 5_556 4_546
Ge3 Pd1 Pr1 67.25(6) 5_656 4_546
Ge5 Pd1 Pr1 140.10(11) 7_556 4_546
Ge5 Pd1 Pr1 66.22(6) 4_546 4_546
Pr1 Pd1 Pr1 78.52(2) 5_556 4_546
Pr1 Pd1 Pr1 129.49(4) 2_556 4_546
Pr1 Pd1 Pr1 80.61(7) 7_556 4_546
Ge2 Ge1 Ge1 110.98(11) . 5_556
Ge2 Ge1 Pd1 127.6(2) . .
Ge1 Ge1 Pd1 121.5(2) 5_556 .
Ge2 Ge1 Pr1 72.85(16) . 7_556
Ge1 Ge1 Pr1 137.86(5) 5_556 7_556
Pd1 Ge1 Pr1 68.89(7) . 7_556
Ge2 Ge1 Pr1 72.85(16) . 4_546
Ge1 Ge1 Pr1 137.86(5) 5_556 4_546
Pd1 Ge1 Pr1 68.89(7) . 4_546
Pr1 Ge1 Pr1 84.16(12) 7_556 4_546
Ge2 Ge1 Pr1 138.15(4) . 5_556
Ge1 Ge1 Pr1 68.75(15) 5_556 5_556
Pd1 Ge1 Pr1 68.11(7) . 5_556
Pr1 Ge1 Pr1 136.99(6) 7_556 5_556
Pr1 Ge1 Pr1 81.24(3) 4_546 5_556
Ge2 Ge1 Pr1 138.15(4) . 2_556
Ge1 Ge1 Pr1 68.75(15) 5_556 2_556
Pd1 Ge1 Pr1 68.11(7) . 2_556
Pr1 Ge1 Pr1 81.24(3) 7_556 2_556
Pr1 Ge1 Pr1 136.99(6) 4_546 2_556
Pr1 Ge1 Pr1 82.49(13) 5_556 2_556
Ge2 Ge1 Pr1 63.45(6) . .
Ge1 Ge1 Pr1 65.01(7) 5_556 .
Pd1 Ge1 Pr1 140.09(2) . .
Pr1 Ge1 Pr1 82.15(6) 7_556 .
Pr1 Ge1 Pr1 136.28(14) 4_546 .
Pr1 Ge1 Pr1 133.76(14) 5_556 .
Pr1 Ge1 Pr1 81.16(6) 2_556 .
Ge2 Ge1 Pr1 63.45(6) . 6
Ge1 Ge1 Pr1 65.01(7) 5_556 6
Pd1 Ge1 Pr1 140.09(2) . 6
Pr1 Ge1 Pr1 136.28(14) 7_556 6
Pr1 Ge1 Pr1 82.15(6) 4_546 6
Pr1 Ge1 Pr1 81.16(6) 5_556 6
Pr1 Ge1 Pr1 133.76(14) 2_556 6
Pr1 Ge1 Pr1 79.75(4) . 6
Ge1 Ge2 Ge2 103.56(10) . 5_656
Ge1 Ge2 Pr1 136.04(4) . 8
Ge2 Ge2 Pr1 72.44(17) 5_656 8
Ge1 Ge2 Pr1 136.04(4) . 3_545
Ge2 Ge2 Pr1 72.44(17) 5_656 3_545
Pr1 Ge2 Pr1 85.78(14) 8 3_545
Ge1 Ge2 Pr1 69.90(16) . .
Ge2 Ge2 Pr1 135.83(4) 5_656 .
Pr1 Ge2 Pr1 83.04(2) 8 .
Pr1 Ge2 Pr1 142.66(6) 3_545 .
Ge1 Ge2 Pr1 69.90(16) . 6
Ge2 Ge2 Pr1 135.83(4) 5_656 6
Pr1 Ge2 Pr1 142.66(6) 8 6
Pr1 Ge2 Pr1 83.04(2) 3_545 6
Pr1 Ge2 Pr1 84.60(13) . 6
Ge1 Ge2 Pr1 61.82(6) . 7_556
Ge2 Ge2 Pr1 60.00(7) 5_656 7_556
Pr1 Ge2 Pr1 80.40(6) 8 7_556
Pr1 Ge2 Pr1 132.43(13) 3_545 7_556
Pr1 Ge2 Pr1 80.39(6) . 7_556
Pr1 Ge2 Pr1 131.70(14) 6 7_556
Ge1 Ge2 Pr1 61.82(6) . 4_546
Ge2 Ge2 Pr1 60.00(7) 5_656 4_546
Pr1 Ge2 Pr1 132.43(13) 8 4_546
Pr1 Ge2 Pr1 80.40(6) 3_545 4_546
Pr1 Ge2 Pr1 131.70(14) . 4_546
Pr1 Ge2 Pr1 80.39(6) 6 4_546
Pr1 Ge2 Pr1 76.37(4) 7_556 4_546
Ge3 Ge3 Pd1 104.43(12) 5_655 5_656
Ge3 Ge3 Ge5 97.73(8) 5_655 6
Pd1 Ge3 Ge5 128.88(7) 5_656 6
Ge3 Ge3 Ge5 97.73(8) 5_655 .
Pd1 Ge3 Ge5 128.88(7) 5_656 .
Ge5 Ge3 Ge5 91.81(14) 6 .
Ge3 Ge3 Pr1 137.10(5) 5_655 8
Pd1 Ge3 Pr1 66.69(6) 5_656 8
Ge5 Ge3 Pr1 120.95(9) 6 8
Ge5 Ge3 Pr1 65.73(5) . 8
Ge3 Ge3 Pr1 137.10(5) 5_655 3_545
Pd1 Ge3 Pr1 66.69(6) 5_656 3_545
Ge5 Ge3 Pr1 65.73(5) 6 3_545
Ge5 Ge3 Pr1 120.95(9) . 3_545
Pr1 Ge3 Pr1 80.21(5) 8 3_545
Ge4 Ge4 Pd1 104.30(13) 5 5_556
Ge4 Ge4 Ge5 97.69(8) 5 .
Pd1 Ge4 Ge5 128.99(7) 5_556 .
Ge4 Ge4 Ge5 97.69(8) 5 6
Pd1 Ge4 Ge5 128.99(7) 5_556 6
Ge5 Ge4 Ge5 91.73(13) . 6
Ge4 Ge4 Pr1 137.14(5) 5 6
Pd1 Ge4 Pr1 66.78(6) 5_556 6
Ge5 Ge4 Pr1 120.95(8) . 6
Ge5 Ge4 Pr1 65.82(6) 6 6
Ge4 Ge4 Pr1 137.14(5) 5 .
Pd1 Ge4 Pr1 66.78(6) 5_556 .
Ge5 Ge4 Pr1 65.82(6) . .
Ge5 Ge4 Pr1 120.95(8) 6 .
Pr1 Ge4 Pr1 80.13(5) 6 .
Ge5 Ge5 Pd1 104.71(6) 7 7_556
Ge5 Ge5 Ge3 97.56(13) 7 .
Pd1 Ge5 Ge3 130.57(13) 7_556 .
Ge5 Ge5 Ge4 97.50(13) 7 .
Pd1 Ge5 Ge4 130.44(13) 7_556 .
Ge3 Ge5 Ge4 88.23(5) . .
Ge5 Ge5 Pr1 137.9(2) 7 .
Pd1 Ge5 Pr1 66.99(6) 7_556 .
Ge3 Ge5 Pr1 119.57(6) . .
Ge4 Ge5 Pr1 66.83(8) . .
Ge5 Ge5 Pr1 138.0(2) 7 8
Pd1 Ge5 Pr1 66.92(5) 7_556 8
Ge3 Ge5 Pr1 67.01(8) . 8
Ge4 Ge5 Pr1 119.60(6) . 8
Pr1 Ge5 Pr1 79.03(3) . 8
loop_
_geom_bond_atom_site_label_1
_geom_bond_atom_site_label_2
_geom_bond_distance
_geom_bond_site_symmetry_2
Pr1 Ge2 3.064(4) 3_455
Pr1 Ge2 3.089(4) .
Pr1 Ge1 3.111(4) 7_556
Pr1 Ge1 3.153(4) 5_556
Pr1 Ge5 3.205(3) .
Pr1 Ge5 3.206(3) 8_455
Pr1 Pd1 3.221(2) 5_556
Pr1 Pd1 3.224(2) 7_556
Pr1 Ge4 3.2297(16) .
Pr1 Ge3 3.2369(15) 3_455
Pr1 Ge1 3.2428(14) .
Pr1 Ge2 3.3730(15) 7_556
Pd1 Ge1 2.523(2) .
Pd1 Ge4 2.525(3) 5_556
Pd1 Ge3 2.527(3) 5_656
Pd1 Ge5 2.5526(12) 7_556
Pd1 Ge5 2.5526(12) 4_546
Pd1 Pr1 3.221(2) 5_556
Pd1 Pr1 3.221(2) 2_556
Pd1 Pr1 3.224(2) 7_556
Pd1 Pr1 3.224(2) 4_546
Ge1 Ge2 2.511(8) .
Ge1 Ge1 2.513(8) 5_556
Ge1 Pr1 3.111(4) 7_556
Ge1 Pr1 3.111(4) 4_546
Ge1 Pr1 3.153(4) 5_556
Ge1 Pr1 3.153(4) 2_556
Ge1 Pr1 3.2428(14) 6
Ge2 Ge2 2.611(8) 5_656
Ge2 Pr1 3.064(4) 8
Ge2 Pr1 3.064(4) 3_545
Ge2 Pr1 3.089(4) 6
Ge2 Pr1 3.3730(15) 7_556
Ge2 Pr1 3.3730(15) 4_546
Ge3 Ge3 2.494(4) 5_655
Ge3 Pd1 2.527(3) 5_656
Ge3 Ge5 2.582(3) 6
Ge3 Ge5 2.582(3) .
Ge3 Pr1 3.2369(15) 8
Ge3 Pr1 3.2369(15) 3_545
Ge4 Ge4 2.503(4) 5
Ge4 Pd1 2.525(3) 5_556
Ge4 Ge5 2.584(3) .
Ge4 Ge5 2.584(3) 6
Ge4 Pr1 3.2297(16) 6
Ge5 Ge5 2.493(2) 7
Ge5 Pd1 2.5527(12) 7_556
Ge5 Pr1 3.206(3) 8
loop_
_twin_individual_id
_twin_individual_mass_fraction_refined
_twin_individual_twin_matrix_11
_twin_individual_twin_matrix_12
_twin_individual_twin_matrix_13
_twin_individual_twin_matrix_21
_twin_individual_twin_matrix_22
_twin_individual_twin_matrix_23
_twin_individual_twin_matrix_31
_twin_individual_twin_matrix_32
_twin_individual_twin_matrix_33
1 0.577(5) 1 0 0 0 1 0 0 0 1
2 0.423(5) 1 0 -0.5 0 -1 0 0 0 -1
