#------------------------------------------------------------------------------
#$Date: 2017-09-19 06:48:38 +0300 (Tue, 19 Sep 2017) $
#$Revision: 201013 $
#$URL: file:///home/coder/svn-repositories/cod/cif/7/04/42/7044261.cif $
#------------------------------------------------------------------------------
#
# This file is available in the Crystallography Open Database (COD),
# http://www.crystallography.net/
#
# All data on this site have been placed in the public domain by the
# contributors.
#
data_7044261
loop_
_publ_author_name
'Freccero, Riccardo'
'SOLOKHA, PAVLO'
'Proserpio, Davide M.'
'Saccone, Adriana'
'De Negri, Serena'
_publ_section_title
;
 A new glance on the R2MGe6 (R = rare earth metal, M=another metal)
 compounds. An experimental and theoretical study of R2PdGe6 germanides
;
_journal_name_full               'Dalton Trans.'
_journal_paper_doi               10.1039/C7DT02686B
_journal_year                    2017
_chemical_formula_moiety         'Ge6 La2 Pd'
_chemical_formula_sum            'Ge6 La2 Pd'
_chemical_formula_weight         819.76
_space_group_crystal_system      monoclinic
_space_group_IT_number           12
_space_group_name_Hall           '-C 2y'
_space_group_name_H-M_alt        'C 1 2/m 1'
_symmetry_space_group_name_Hall  '-C 2y'
_symmetry_space_group_name_H-M   'C 1 2/m 1'
_audit_creation_method           SHELXL-2014/7
_cell_angle_alpha                90
_cell_angle_beta                 100.4770(10)
_cell_angle_gamma                90
_cell_formula_units_Z            4
_cell_length_a                   8.2163(8)
_cell_length_b                   8.4161(9)
_cell_length_c                   11.2943(12)
_cell_measurement_reflns_used    1030
_cell_measurement_temperature    295(2)
_cell_measurement_theta_max      31.61
_cell_measurement_theta_min      3.49
_cell_volume                     767.97(14)
_computing_structure_refinement  'SHELXL-2014/7 (Sheldrick, 2014)'
_diffrn_ambient_temperature      295(2)
_diffrn_measured_fraction_theta_full 0.960
_diffrn_measured_fraction_theta_max 0.801
_diffrn_measurement_device_type  'Bruker APEXII'
_diffrn_measurement_method       '\w scans'
_diffrn_radiation_monochromator  graphite
_diffrn_radiation_source         'fine-focus sealed tube'
_diffrn_radiation_type           MoK\a
_diffrn_radiation_wavelength     0.71073
_diffrn_reflns_av_R_equivalents  0.0093
_diffrn_reflns_av_unetI/netI     0.0218
_diffrn_reflns_Laue_measured_fraction_full 0.960
_diffrn_reflns_Laue_measured_fraction_max 0.801
_diffrn_reflns_limit_h_max       10
_diffrn_reflns_limit_h_min       -10
_diffrn_reflns_limit_k_max       12
_diffrn_reflns_limit_k_min       0
_diffrn_reflns_limit_l_max       16
_diffrn_reflns_limit_l_min       0
_diffrn_reflns_number            1083
_diffrn_reflns_point_group_measured_fraction_full 0.960
_diffrn_reflns_point_group_measured_fraction_max 0.801
_diffrn_reflns_theta_full        25.242
_diffrn_reflns_theta_max         31.56
_diffrn_reflns_theta_min         1.83
_diffrn_standards_decay_%        0
_diffrn_standards_interval_count 0
_diffrn_standards_interval_time  0
_diffrn_standards_number         0
_exptl_absorpt_coefficient_mu    36.168
_exptl_absorpt_correction_type   multi-scan
_exptl_absorpt_process_details   'Bruker TWINABS'
_exptl_crystal_colour            'metallic grey'
_exptl_crystal_density_diffrn    7.090
_exptl_crystal_density_method    'not measured'
_exptl_crystal_description       'irregularly shaped'
_exptl_crystal_F_000             1408
_exptl_crystal_size_max          0.04
_exptl_crystal_size_mid          0.04
_exptl_crystal_size_min          0.03
_exptl_transmission_factor_max   0.746
_exptl_transmission_factor_min   0.434
_refine_diff_density_max         2.334
_refine_diff_density_min         -2.613
_refine_diff_density_rms         0.517
_refine_ls_extinction_coef       0.00027(6)
_refine_ls_extinction_expression Fc^*^=kFc[1+0.001xFc^2^\l^3^/sin(2\q)]^-1/4^
_refine_ls_extinction_method     'SHELXL-2014/7 (Sheldrick 2014'
_refine_ls_goodness_of_fit_ref   1.200
_refine_ls_hydrogen_treatment    undef
_refine_ls_matrix_type           full
_refine_ls_number_parameters     51
_refine_ls_number_reflns         1083
_refine_ls_number_restraints     0
_refine_ls_restrained_S_all      1.200
_refine_ls_R_factor_all          0.0254
_refine_ls_R_factor_gt           0.0242
_refine_ls_shift/su_max          0.001
_refine_ls_shift/su_mean         0.000
_refine_ls_structure_factor_coef Fsqd
_refine_ls_weighting_details
'w=1/[\s^2^(Fo^2^)+(0.0379P)^2^+16.6606P] where P=(Fo^2^+2Fc^2^)/3'
_refine_ls_weighting_scheme      calc
_refine_ls_wR_factor_gt          0.0773
_refine_ls_wR_factor_ref         0.0778
_reflns_Friedel_coverage         0.000
_reflns_number_gt                1030
_reflns_number_total             1083
_reflns_threshold_expression     'I > 2\s(I)'
_cod_data_source_file            c7dt02686b3.cif
_cod_data_source_block           shelx
_cod_database_code               7044261
_shelx_space_group_comment
;
The symmetry employed for this shelxl refinement is uniquely defined
by the following loop, which should always be used as a source of
symmetry information in preference to the above space-group names.
They are only intended as comments.
;
_shelx_res_file
;

    shelx.res created by SHELXL-2014/7


TITL twin4 in C2/m
CELL 0.71073   8.2163   8.4161  11.2943  90.000 100.477  90.000
ZERR    4.00   0.0008   0.0009   0.0012   0.000   0.001   0.000
LATT   7
SYMM  - X,   Y, - Z
SFAC  GE   PD   LA
UNIT  24 4 8
FMAP   2
PLAN   20
BOND
acta
L.S.   6
WGHT    0.037900   16.660603
EXTI    0.000265
BASF   0.41344
FVAR       0.10896
MOLE    1
LA1   3    0.084018    0.249805    0.333545    11.00000    0.00409    0.00450 =
         0.00463    0.00010   -0.00002   -0.00015
PD1   2    0.198539    0.000000    0.793560    10.50000    0.00584    0.00597 =
         0.00767    0.00000    0.00164    0.00000
GE1   1    0.497022    0.000000    0.109270    10.50000    0.01172    0.00879 =
         0.00650    0.00000    0.00191    0.00000
GE2   1    0.358501    0.000000    0.428146    10.50000    0.00624    0.00708 =
         0.00844    0.00000    0.00249    0.00000
GE3   1    0.057738    0.000000    0.109744    10.50000    0.01324    0.00831 =
         0.00673    0.00000    0.00391    0.00000
GE4   1    0.277329    0.222064    0.109427    11.00000    0.00825    0.01129 =
         0.00539   -0.00080    0.00141   -0.00043
GE5   1    0.143774    0.000000    0.562194    10.50000    0.00428    0.00839 =
         0.00500    0.00000    0.00180    0.00000
HKLF    5

REM  twin4 in C2/m
REM R1 =  0.0242 for    1030 Fo > 4sig(Fo)  and  0.0254 for all    1083 data
REM     51 parameters refined using      0 restraints

END

WGHT      0.0339     16.8386

REM Highest difference peak  2.334,  deepest hole -2.613,  1-sigma level  0.517
Q1    1   0.0744  0.2466  0.2776  11.00000  0.05    2.33
Q2    1   0.1285  0.0000  0.4987  10.50000  0.05    2.32
Q3    1   0.1006  0.2496  0.3907  11.00000  0.05    2.08
Q4    1   0.2818  0.0205  0.2284  11.00000  0.05    2.05
Q5    1   0.6647  0.0000  0.0260  10.50000  0.05    1.88
Q6    1   0.2749  0.3446  0.1107  11.00000  0.05    1.72
Q7    1   0.3951  0.0987  0.0961  11.00000  0.05    1.63
Q8    1   0.5733  0.0000  0.1793  10.50000  0.05    1.54
Q9    1   0.2616  0.2781  0.0525  11.00000  0.05    1.52
Q10   1   0.0835 -0.1076  0.7827  11.00000  0.05    1.50
Q11   1   0.3588  0.0000  0.0259  10.50000  0.05    1.49
Q12   1   0.2956  0.2874  0.1722  11.00000  0.05    1.46
Q13   1   0.3517 -0.0255  0.6919  11.00000  0.05    1.43
Q14   1   0.1597  0.1188  0.1146  11.00000  0.05    1.39
Q15   1   0.2516  0.1219  0.2749  11.00000  0.05    1.28
Q16   1   0.3747  0.0866  0.0112  11.00000  0.05    1.27
Q17   1   0.3525  0.0000  0.3976  10.50000  0.05    1.22
Q18   1  -0.0005  0.0000  0.0535  10.50000  0.05    1.21
Q19   1  -0.0362  0.1619  0.2792  11.00000  0.05    1.19
Q20   1   0.3447  0.1472  0.0355  11.00000  0.05    1.18
;
_shelx_res_checksum              76681
_shelx_hkl_file
;
   2   0   0 2.82322 0.27126  -1
  -2   0   1 2.82322 0.27126   2
   4   0   0 40.6456 1.09823  -1
  -4   0   2 40.6456 1.09823   2
   6   0   0 448.668 11.6285  -1
  -6   0   3 448.668 11.6285   2
   8   0   0 72.8162 1.99752  -1
  -8   0   4 72.8162 1.99752   2
  10   0   0 111.712 5.00925  -1
 -10   0   5 111.712 5.00925   2
   1   1   0 5.45194 0.13615   2
   3   1   0 102.114 1.54700   2
   5   1   0 0.49246 0.21151   2
   7   1   0 118.737 3.53419   2
   0   2   0 14.6803 0.40835  -1
   0   2   0 14.6803 0.40835   2
   2   2   0 8.34500 0.23252  -1
  -2   2   1 8.34500 0.23252   2
   4   2   0 1.59293 0.18701  -1
  -4   2   2 1.59293 0.18701   2
   6   2   0 2816.89 44.7841  -1
  -6   2   3 2816.89 44.7841   2
   8   2   0 121.911 2.45600  -1
  -8   2   4 121.911 2.45600   2
  10   2   0 154.397 4.02550  -1
 -10   2   5 154.397 4.02550   2
   1   3   0 11.5968 0.30470   2
   3   3   0 172.168 2.74876   2
   5   3   0 26.6728 0.56771   2
   7   3   0 256.186 7.26687   2
   7   3   0 451.068 21.6551  -1
  -7   3   3 451.068 21.6551   2
   0   4   0 9999.99 201.943  -1
   0   4   0 9999.99 201.943   2
   2   4   0 36.8912 0.69123  -1
  -2   4   1 36.8912 0.69123   2
   4   4   0 81.9964 1.39232  -1
  -4   4   2 81.9964 1.39232   2
   6   4   0 287.139 5.02467  -1
  -6   4   3 287.139 5.02467   2
   8   4   0 76.1835 1.84888  -1
  -8   4   4 76.1835 1.84888   2
  10   4   0 93.8084 3.15730  -1
 -10   4   5 93.8084 3.15730   2
   1   5   0 0.83310 0.18631   2
   3   5   0 24.1975 0.65315   2
   5   5   0 18.8494 0.60645   2
   7   5   0 31.2847 2.33539   2
   0   6   0 45.5569 1.26216  -1
   0   6   0 45.5569 1.26216   2
   2   6   0 35.5377 0.82070  -1
  -2   6   1 35.5377 0.82070   2
   4   6   0 34.2283 0.73931  -1
  -4   6   2 34.2283 0.73931   2
   6   6   0 1593.47 28.4358  -1
  -6   6   3 1593.47 28.4358   2
   8   6   0 95.8412 2.50579  -1
  -8   6   4 95.8412 2.50579   2
  10   6   0 94.0708 2.87305  -1
 -10   6   5 94.0708 2.87305   2
   1   7   0 9.39081 0.48900   2
   3   7   0 129.638 2.86169   2
   5   7   0 45.5949 1.54801   2
   7   7   0 454.671 22.0326  -1
  -7   7   4 454.671 22.0326   2
   0   8   0 3836.64 84.7676  -1
   0   8   0 3836.64 84.7676   2
   2   8   0 134.054 2.32527  -1
  -2   8   1 134.054 2.32527   2
   4   8   0 145.246 2.87323  -1
  -4   8   2 145.246 2.87323   2
   6   8   0 120.711 2.86090  -1
  -6   8   3 120.711 2.86090   2
   8   8   0 72.4013 2.60840  -1
  -8   8   4 72.4013 2.60840   2
   1   9   0 0.19932 0.66224   2
   0  10   0 60.1522 2.27796  -1
   0  10   0 60.1522 2.27796   2
   2  10   0 129.315 2.92357  -1
  -2  10   1 129.315 2.92357   2
   4  10   0 83.7979 2.36668  -1
  -4  10   2 83.7979 2.36668   2
   6  10   0 656.686 24.0286  -1
  -6  10   3 656.686 24.0286   2
   2  12   0 110.600 8.00296  -1
  -2  12   1 110.600 8.00296   2
 -10   0   1 322.787 9.90504  -1
 -10   0   4 322.787 9.90504   2
  -8   0   1 140.777 3.47373  -1
  -8   0   3 140.777 3.47373   2
  -6   0   1 48.9385 1.36752  -1
  -6   0   2 48.9385 1.36752   2
  -4   0   1 9368.18 292.263  -1
  -4   0   1 9368.18 292.263   2
  -2   0   1 4.04202 0.29856  -1
   2   0   0 4.04202 0.29856   2
   0   0   1 2.46473 0.15925  -1
   0   0   1 2.46473 0.15925   2
   2   0   1 531.583 11.7876  -1
  -2   0   2 531.583 11.7876   2
   4   0   1 98.8044 2.67600  -1
  -4   0   3 98.8044 2.67600   2
   6   0   1 174.658 4.15110  -1
  -6   0   4 174.658 4.15110   2
   8   0   1 60.8658 2.35884  -1
  -8   0   5 60.8658 2.35884   2
  10   0   1 905.092 26.7473  -1
 -10   0   6 905.092 26.7473   2
  -7   1   1 87.2756 2.35168   2
  -5   1   1 0.57481 0.22119   2
  -3   1   1 18.4377 0.42567   2
  -1   1   1 38.7514 0.61006   2
   1   1   1 34.0718 0.54920   2
   3   1   1 125.427 1.99223   2
   3   1   1 342.460 16.4409  -1
  -3   1   2 342.460 16.4409   2
  -3   1   3 342.460 16.4409   2
   5   1   1 79.5885 1.48323   2
   7   1   1 15.3982 0.86563   2
 -10   2   1 1020.56 23.6920  -1
 -10   2   4 1020.56 23.6920   2
  -8   2   1 33.1656 0.87590  -1
  -8   2   3 33.1656 0.87590   2
  -6   2   1 51.8085 1.01564  -1
  -6   2   2 51.8085 1.01564   2
  -4   2   1 39.8725 0.66136  -1
  -4   2   1 39.8725 0.66136   2
  -2   2   1 8.14959 0.21767  -1
   2   2   0 8.14959 0.21767   2
   0   2   1 29.1160 0.50065  -1
   0   2   1 29.1160 0.50065   2
   2   2   1 6026.11 95.1640  -1
  -2   2   2 6026.11 95.1640   2
   4   2   1 318.426 4.78763  -1
  -4   2   3 318.426 4.78763   2
   6   2   1 418.440 7.20921  -1
  -6   2   4 418.440 7.20921   2
   8   2   1 820.911 14.7885  -1
  -8   2   5 820.911 14.7885   2
  10   2   1 11.9983 0.76035  -1
 -10   2   6 11.9983 0.76035   2
  -7   3   1 136.830 4.04317   2
  -5   3   1 1.84753 0.20058   2
  -3   3   1 27.3500 0.50581   2
  -1   3   1 88.9444 1.43881   2
   1   3   1 145.771 2.28912   2
   3   3   1 304.196 4.50792   2
   5   3   1 3.17542 0.23588   2
   7   3   1 83.2838 3.14797   2
 -10   4   1 241.996 6.04875  -1
 -10   4   4 241.996 6.04875   2
  -8   4   1 172.069 3.64020  -1
  -8   4   3 172.069 3.64020   2
  -6   4   1 6.74429 0.36481  -1
  -6   4   2 6.74429 0.36481   2
  -4   4   1 7169.57 105.020  -1
  -4   4   1 7169.57 105.020   2
  -2   4   1 35.5032 0.65455  -1
   2   4   0 35.5032 0.65455   2
   0   4   1 31.5649 0.60814  -1
   0   4   1 31.5649 0.60814   2
   2   4   1 280.760 4.47809  -1
  -2   4   2 280.760 4.47809   2
   4   4   1 84.3775 1.36703  -1
  -4   4   3 84.3775 1.36703   2
   6   4   1 130.486 2.55941  -1
  -6   4   4 130.486 2.55941   2
   8   4   1 81.2570 1.94988  -1
  -8   4   5 81.2570 1.94988   2
  10   4   1 652.820 13.8590  -1
 -10   4   6 652.820 13.8590   2
  -7   5   1 33.2439 2.40623   2
  -5   5   1 1.02660 0.27878   2
  -3   5   1 6.21552 0.32094   2
  -1   5   1 1.42551 0.21046   2
   1   5   1 0.70322 0.18965   2
   3   5   1 11.8456 0.43386   2
   5   5   1 223.746 11.6354  -1
  -5   5   3 223.746 11.6354   2
   5   5   1 157.421 3.79556   2
 -10   6   1 617.357 15.0425  -1
 -10   6   4 617.357 15.0425   2
  -8   6   1 0.93385 0.48914  -1
  -8   6   3 0.93385 0.48914   2
  -6   6   1 142.040 2.79952  -1
  -6   6   2 142.040 2.79952   2
  -4   6   1 2.02991 0.31069  -1
  -4   6   1 2.02991 0.31069   2
  -2   6   1 36.0764 0.72895  -1
   2   6   0 36.0764 0.72895   2
   0   6   1 98.2627 1.59761  -1
   0   6   1 98.2627 1.59761   2
   2   6   1 3018.68 48.8771  -1
  -2   6   2 3018.68 48.8771   2
   4   6   1 229.036 3.96409  -1
  -4   6   3 229.036 3.96409   2
   6   6   1 240.157 4.54124  -1
  -6   6   4 240.157 4.54124   2
   8   6   1 719.751 14.1420  -1
  -8   6   5 719.751 14.1420   2
  10   6   1 1.73284 0.93588  -1
 -10   6   6 1.73284 0.93588   2
  -5   7   1 2.51529 0.46263   2
  -3   7   1 19.7394 0.72803   2
  -1   7   1 68.5957 1.64175   2
   1   7   1 123.982 2.76675   2
   5   7   1 3.84150 0.55833   2
   7   7   1 92.2552 5.57803  -1
  -7   7   5 92.2552 5.57803   2
  -8   8   1 199.103 5.63767  -1
  -8   8   3 199.103 5.63767   2
  -6   8   1 21.6787 1.15753  -1
  -6   8   2 21.6787 1.15753   2
  -4   8   1 2830.71 48.7042  -1
  -4   8   1 2830.71 48.7042   2
  -2   8   1 133.128 2.43815  -1
   2   8   0 133.128 2.43815   2
   0   8   1 110.746 2.16633  -1
   0   8   1 110.746 2.16633   2
   2   8   1 82.4449 1.71888  -1
  -2   8   2 82.4449 1.71888   2
   4   8   1 74.2319 1.78170  -1
  -4   8   3 74.2319 1.78170   2
   6   8   1 74.3101 2.11373  -1
  -6   8   4 74.3101 2.11373   2
   8   8   1 101.615 2.96347  -1
  -8   8   5 101.615 2.96347   2
  -3   9   1 3.34100 1.07008   2
  -1   9   1 0.39374 0.65467   2
   1   9   1 1.80340 0.57500   2
  -6  10   1 197.424 7.96043  -1
  -6  10   2 197.424 7.96043   2
  -4  10   1 15.7300 0.98212  -1
  -4  10   1 15.7300 0.98212   2
  -2  10   1 128.183 2.90461  -1
   2  10   0 128.183 2.90461   2
   0  10   1 148.805 3.28658  -1
   0  10   1 148.805 3.28658   2
   2  10   1 1063.62 23.3808  -1
  -2  10   2 1063.62 23.3808   2
   4  10   1 124.835 3.05244  -1
  -4  10   3 124.835 3.05244   2
   6  10   1 87.5192 6.36033  -1
  -6  10   4 87.5192 6.36033   2
  -2  12   1 132.047 7.35082  -1
   2  12   0 132.047 7.35082   2
   0  12   1 111.509 5.08288  -1
   0  12   1 111.509 5.08288   2
   2  12   1 31.8107 4.04084  -1
  -2  12   2 31.8107 4.04084   2
 -10   0   2 91.7462 3.28672  -1
 -10   0   3 91.7462 3.28672   2
  -8   0   2 3726.56 95.2311  -1
  -8   0   2 3726.56 95.2311   2
  -6   0   2 50.9561 1.40345  -1
  -6   0   1 50.9561 1.40345   2
  -4   0   2 39.8066 1.07026  -1
   4   0   0 39.8066 1.07026   2
  -2   0   2 544.552 12.0454  -1
   2   0   1 544.552 12.0454   2
   0   0   2 105.493 2.17260  -1
   0   0   2 105.493 2.17260   2
   2   0   2 286.467 6.24274  -1
  -2   0   3 286.467 6.24274   2
   4   0   2 12.3168 0.57453  -1
  -4   0   4 12.3168 0.57453   2
   6   0   2 1540.28 34.6258  -1
  -6   0   5 1540.28 34.6258   2
   8   0   2 434.458 11.1001  -1
  -8   0   6 434.458 11.1001   2
  10   0   2 535.943 13.7277  -1
 -10   0   7 535.943 13.7277   2
  -9   1   2 0.68429 0.65901   2
  -7   1   2 17.8092 0.72225   2
  -5   1   2 1.03789 0.23911   2
  -1   1   2 8.85049 0.23516   2
   1   1   2 7.00320 0.21001   2
   3   1   2 2.00039 0.16505   2
   3   1   2 32.9132 2.58515  -1
  -3   1   4 32.9132 2.58515   2
   7   1   2 7.70410 0.81137   2
 -10   2   2 153.806 3.33328  -1
 -10   2   3 153.806 3.33328   2
  -8   2   2 179.795 3.27316  -1
  -8   2   2 179.795 3.27316   2
  -6   2   2 51.5792 1.01120  -1
  -6   2   1 51.5792 1.01120   2
  -4   2   2 1.09596 0.15862  -1
   4   2   0 1.09596 0.15862   2
  -2   2   2 5989.21 93.7705  -1
   2   2   1 5989.21 93.7705   2
   0   2   2 552.579 9.28346  -1
   0   2   2 552.579 9.28346   2
   2   2   2 890.642 13.0641  -1
  -2   2   3 890.642 13.0641   2
   4   2   2 2147.61 30.3961  -1
  -4   2   4 2147.61 30.3961   2
   6   2   2 132.810 2.41867  -1
  -6   2   5 132.810 2.41867   2
   8   2   2 563.338 10.0958  -1
  -8   2   6 563.338 10.0958   2
  10   2   2 3.04630 0.64325  -1
 -10   2   7 3.04630 0.64325   2
  -7   3   2 25.1964 1.10609   2
  -5   3   2 16.0715 0.44445   2
  -3   3   2 276.068 4.30969   2
  -1   3   2 111.065 1.77835   2
   1   3   2 44.6030 0.80717   2
   3   3   2 70.7184 1.16811   2
   5   3   2 72.4358 1.66801   2
   7   3   2 0.89236 0.75116   2
 -10   4   2 40.4849 1.44094  -1
 -10   4   3 40.4849 1.44094   2
  -8   4   2 2642.57 47.7793  -1
  -8   4   2 2642.57 47.7793   2
  -6   4   2 7.18081 0.37500  -1
  -6   4   1 7.18081 0.37500   2
  -4   4   2 84.0338 1.35141  -1
   4   4   0 84.0338 1.35141   2
  -2   4   2 287.832 5.10094  -1
   2   4   1 287.832 5.10094   2
   0   4   2 93.6056 1.49002  -1
   0   4   2 93.6056 1.49002   2
   2   4   2 175.043 2.83985  -1
  -2   4   3 175.043 2.83985   2
   4   4   2 33.0535 0.70312  -1
  -4   4   4 33.0535 0.70312   2
   6   4   2 1013.54 18.1572  -1
  -6   4   5 1013.54 18.1572   2
   8   4   2 269.050 5.41258  -1
  -8   4   6 269.050 5.41258   2
  10   4   2 561.013 11.9927  -1
 -10   4   7 561.013 11.9927   2
  -7   5   2 9.40524 1.34253   2
  -5   5   2 6.25782 0.43781   2
  -3   5   2 20.4445 0.54449   2
  -1   5   2 13.6345 0.40729   2
   1   5   2 64.8730 1.14331   2
   3   5   2 24.4704 0.60075   2
   5   5   2 274.919 7.31729   2
 -10   6   2 198.852 4.72947  -1
 -10   6   3 198.852 4.72947   2
  -8   6   2 50.1975 1.43270  -1
  -8   6   2 50.1975 1.43270   2
  -6   6   2 137.347 3.22153  -1
  -6   6   1 137.347 3.22153   2
  -4   6   2 32.7602 0.72214  -1
   4   6   0 32.7602 0.72214   2
  -2   6   2 2910.38 45.3940  -1
   2   6   1 2910.38 45.3940   2
   0   6   2 315.150 4.78608  -1
   0   6   2 315.150 4.78608   2
   2   6   2 436.030 7.70761  -1
  -2   6   3 436.030 7.70761   2
   4   6   2 1586.57 24.5090  -1
  -4   6   4 1586.57 24.5090   2
   6   6   2 31.8968 0.95909  -1
  -6   6   5 31.8968 0.95909   2
   8   6   2 243.975 4.70248  -1
  -8   6   6 243.975 4.70248   2
  -7   7   2 19.2030 1.98678   2
  -5   7   2 24.0131 0.96138   2
  -3   7   2 219.282 4.29573   2
  -1   7   2 117.556 2.71155   2
   1   7   2 68.0161 2.11994   2
   3   7   2 94.5425 2.39041   2
   5   7   2 55.0594 3.75109  -1
  -5   7   5 55.0594 3.75109   2
  -8   8   2 1251.10 28.4044  -1
  -8   8   2 1251.10 28.4044   2
  -6   8   2 20.7675 0.95813  -1
  -6   8   1 20.7675 0.95813   2
  -4   8   2 155.948 2.96000  -1
   4   8   0 155.948 2.96000   2
  -2   8   2 87.1099 1.93398  -1
   2   8   1 87.1099 1.93398   2
   0   8   2 77.0589 1.76460  -1
   0   8   2 77.0589 1.76460   2
   2   8   2 73.0900 1.89324  -1
  -2   8   3 73.0900 1.89324   2
   4   8   2 78.7750 1.80018  -1
  -4   8   4 78.7750 1.80018   2
   6   8   2 371.292 8.45295  -1
  -6   8   5 371.292 8.45295   2
   8   8   2 68.3427 2.29313  -1
  -8   8   6 68.3427 2.29313   2
  -3   9   2 5.81515 0.88474   2
  -3   9   2 12.4753 2.25920  -1
   3   9   1 12.4753 2.25920   2
  -1   9   2 10.9309 1.06804   2
   1   9   2 134.705 7.29197  -1
  -1   9   3 134.705 7.29197   2
   1   9   2 47.6522 2.10099   2
   3   9   2 25.7720 1.46277   2
  -6  10   2 192.455 7.76630  -1
  -6  10   1 192.455 7.76630   2
  -4  10   2 85.7317 2.36989  -1
   4  10   0 85.7317 2.36989   2
  -2  10   2 1071.26 21.0821  -1
   2  10   1 1071.26 21.0821   2
   0  10   2 159.637 3.31107  -1
   0  10   2 159.637 3.31107   2
   2  10   2 148.190 3.12629  -1
  -2  10   3 148.190 3.12629   2
   4  10   2 921.921 19.5417  -1
  -4  10   4 921.921 19.5417   2
   6  10   2 2.94997 1.90781  -1
  -6  10   5 2.94997 1.90781   2
  -2  12   2 33.5274 2.97986  -1
   2  12   1 33.5274 2.97986   2
   0  12   2 62.4363 3.54768  -1
   0  12   2 62.4363 3.54768   2
 -10   0   3 90.9728 2.85842  -1
 -10   0   2 90.9728 2.85842   2
  -8   0   3 143.637 4.03172  -1
  -8   0   1 143.637 4.03172   2
  -6   0   3 445.081 11.5617  -1
   6   0   0 445.081 11.5617   2
  -4   0   3 92.5522 2.17476  -1
   4   0   1 92.5522 2.17476   2
  -2   0   3 283.949 6.33866  -1
   2   0   2 283.949 6.33866   2
   0   0   3 1.02320 0.27693  -1
   0   0   3 1.02320 0.27693   2
   2   0   3 1972.91 42.6264  -1
  -2   0   4 1972.91 42.6264   2
   4   0   3 1787.25 38.5685  -1
  -4   0   5 1787.25 38.5685   2
   6   0   3 1831.86 45.3722  -1
  -6   0   6 1831.86 45.3722   2
   8   0   3 78.9487 2.47075  -1
  -8   0   7 78.9487 2.47075   2
  10   0   3 428.443 11.1259  -1
 -10   0   8 428.443 11.1259   2
  -9   1   3 0.25006 2.03356  -1
  -9   1   1 0.25006 2.03356   2
  -9   1   3 0.40895 0.65714   2
  -7   1   3 102.578 2.52741   2
  -5   1   3 17.8714 0.54368   2
  -1   1   3 71.7426 1.13036   2
   1   1   3 183.015 2.98660   2
   3   1   3 42.8297 0.83287   2
   5   1   3 46.0993 1.15337   2
   5   1   3 249.419 12.5690  -1
  -5   1   5 249.419 12.5690   2
 -10   2   3 154.796 3.35499  -1
 -10   2   2 154.796 3.35499   2
  -8   2   3 32.5928 0.93336  -1
  -8   2   1 32.5928 0.93336   2
  -6   2   3 2826.34 48.1713  -1
   6   2   0 2826.34 48.1713   2
  -4   2   3 322.635 4.78767  -1
   4   2   1 322.635 4.78767   2
  -2   2   3 890.817 13.0610  -1
   2   2   2 890.817 13.0610   2
   0   2   3 3398.37 57.0938  -1
   0   2   3 3398.37 57.0938   2
   2   2   3 579.068 8.52492  -1
  -2   2   4 579.068 8.52492   2
   4   2   3 561.316 8.29806  -1
  -4   2   5 561.316 8.29806   2
   6   2   3 229.803 4.02621  -1
  -6   2   6 229.803 4.02621   2
   8   2   3 1170.63 20.6677  -1
  -8   2   7 1170.63 20.6677   2
  10   2   3 140.849 3.11820  -1
 -10   2   8 140.849 3.11820   2
  -9   3   3 5.97012 1.27655   2
  -5   3   3 6.29320 0.29545   2
  -3   3   3 233.798 3.68203   2
  -1   3   3 1.34032 0.14442   2
   1   3   3 28.6950 0.58789   2
   3   3   3 5.01215 0.23648   2
   5   3   3 24.0605 0.82799   2
 -10   4   3 39.2321 1.42841  -1
 -10   4   2 39.2321 1.42841   2
  -8   4   3 172.705 3.43265  -1
  -8   4   1 172.705 3.43265   2
  -6   4   3 303.438 5.48619  -1
   6   4   0 303.438 5.48619   2
  -4   4   3 85.0763 1.44709  -1
   4   4   1 85.0763 1.44709   2
  -2   4   3 173.488 2.74948  -1
   2   4   2 173.488 2.74948   2
   0   4   3 10.2568 0.38638  -1
   0   4   3 10.2568 0.38638   2
   2   4   3 1192.68 17.3856  -1
  -2   4   4 1192.68 17.3856   2
   4   4   3 1107.39 16.2689  -1
  -4   4   5 1107.39 16.2689   2
   6   4   3 1751.86 31.2261  -1
  -6   4   6 1751.86 31.2261   2
   8   4   3 31.6910 1.09417  -1
  -8   4   7 31.6910 1.09417   2
  10   4   3 294.283 6.58076  -1
 -10   4   8 294.283 6.58076   2
  -7   5   3 30.4340 1.30247   2
  -3   5   3 0.72426 0.28027   2
  -1   5   3 151.964 2.68977   2
   1   5   3 217.918 4.28445   2
   3   5   3 66.2035 1.39584   2
   5   5   3 49.4840 1.61996   2
 -10   6   3 199.653 5.27947  -1
 -10   6   2 199.653 5.27947   2
  -8   6   3 1.20215 0.46451  -1
  -8   6   1 1.20215 0.46451   2
  -6   6   3 1579.82 25.8550  -1
   6   6   0 1579.82 25.8550   2
  -4   6   3 229.964 3.75670  -1
   4   6   1 229.964 3.75670   2
  -2   6   3 422.725 6.70503  -1
   2   6   2 422.725 6.70503   2
   0   6   3 2113.18 34.8758  -1
   0   6   3 2113.18 34.8758   2
   2   6   3 157.240 2.63527  -1
  -2   6   4 157.240 2.63527   2
   4   6   3 169.823 3.10277  -1
  -4   6   5 169.823 3.10277   2
   6   6   3 27.1129 1.06855  -1
  -6   6   6 27.1129 1.06855   2
   8   6   3 594.333 13.4686  -1
  -8   6   7 594.333 13.4686   2
  -5   7   3 24.1200 1.14661   2
  -3   7   3 211.357 5.11926   2
  -3   7   3 481.894 23.2279  -1
   3   7   1 481.894 23.2279   2
  -1   7   3 15.6960 0.83021   2
   1   7   3 1.96555 0.40226   2
   3   7   3 1.63361 1.66555  -1
  -3   7   5 1.63361 1.66555   2
   3   7   3 0.32290 0.43453   2
  -8   8   3 198.152 4.95818  -1
  -8   8   1 198.152 4.95818   2
  -6   8   3 123.321 3.21289  -1
   6   8   0 123.321 3.21289   2
  -4   8   3 81.8750 1.72138  -1
   4   8   1 81.8750 1.72138   2
  -2   8   3 77.2173 1.62284  -1
   2   8   2 77.2173 1.62284   2
   0   8   3 59.9360 1.34444  -1
   0   8   3 59.9360 1.34444   2
   2   8   3 328.033 5.91321  -1
  -2   8   4 328.033 5.91321   2
   4   8   3 292.259 5.63045  -1
  -4   8   5 292.259 5.63045   2
   6   8   3 1337.78 27.4041  -1
  -6   8   6 1337.78 27.4041   2
   8   8   3 4.35512 1.30401  -1
  -8   8   7 4.35512 1.30401   2
  -3   9   3 3.09997 1.04506   2
   1   9   3 134.507 4.80050   2
  -6  10   3 636.353 19.9516  -1
   6  10   0 636.353 19.9516   2
  -4  10   3 119.579 2.88150  -1
   4  10   1 119.579 2.88150   2
  -2  10   3 150.859 3.16951  -1
   2  10   2 150.859 3.16951   2
   0  10   3 1128.70 19.6639  -1
   0  10   3 1128.70 19.6639   2
   2  10   3 20.7082 0.90980  -1
  -2  10   4 20.7082 0.90980   2
   4  10   3 24.8050 1.02378  -1
  -4  10   5 24.8050 1.02378   2
   6  10   3 8.43210 1.52707  -1
  -6  10   6 8.43210 1.52707   2
   0  12   3 71.8712 5.97994  -1
   0  12   3 71.8712 5.97994   2
 -10   0   4 327.351 8.82584  -1
 -10   0   1 327.351 8.82584   2
  -8   0   4 74.3266 2.32017  -1
   8   0   0 74.3266 2.32017   2
  -6   0   4 175.741 4.75525  -1
   6   0   1 175.741 4.75525   2
  -4   0   4 13.0095 0.62024  -1
   4   0   2 13.0095 0.62024   2
  -2   0   4 1968.34 39.5441  -1
   2   0   3 1968.34 39.5441   2
   0   0   4 2738.21 54.9262  -1
   0   0   4 2738.21 54.9262   2
   2   0   4 4148.52 89.5600  -1
  -2   0   5 4148.52 89.5600   2
   4   0   4 560.344 12.2028  -1
  -4   0   6 560.344 12.2028   2
   6   0   4 604.813 15.2326  -1
  -6   0   7 604.813 15.2326   2
   8   0   4 51.7188 1.86793  -1
  -8   0   8 51.7188 1.86793   2
  10   0   4 132.007 3.92594  -1
 -10   0   9 132.007 3.92594   2
  -9   1   4 10.3695 0.85172   2
  -7   1   4 94.0873 2.35435   2
  -5   1   4 147.736 2.81729   2
  -1   1   4 168.022 2.54683   2
   1   1   4 44.4488 0.85885   2
   3   1   4 0.81635 0.19367   2
 -10   2   4 1014.47 18.5688  -1
 -10   2   1 1014.47 18.5688   2
  -8   2   4 125.352 2.54989  -1
   8   2   0 125.352 2.54989   2
  -6   2   4 425.410 7.12779  -1
   6   2   1 425.410 7.12779   2
  -4   2   4 2122.44 33.0465  -1
   4   2   2 2122.44 33.0465   2
  -2   2   4 573.516 8.43583  -1
   2   2   3 573.516 8.43583   2
   0   2   4 472.493 7.28439  -1
   0   2   4 472.493 7.28439   2
   2   2   4 1047.01 15.3602  -1
  -2   2   5 1047.01 15.3602   2
   4   2   4 1502.19 22.0124  -1
  -4   2   6 1502.19 22.0124   2
   6   2   4 583.583 10.4060  -1
  -6   2   7 583.583 10.4060   2
   8   2   4 636.172 11.4011  -1
  -8   2   8 636.172 11.4011   2
  10   2   4 103.871 2.49640  -1
 -10   2   9 103.871 2.49640   2
  -9   3   4 2.39639 1.08921   2
  -7   3   4 222.721 4.96165   2
  -5   3   4 24.5999 0.56415   2
  -3   3   4 1.49209 0.18174   2
  -1   3   4 54.4744 0.98357   2
   1   3   4 16.8500 0.49091   2
   3   3   4 2.68927 0.25390   2
   5   3   4 18.3904 0.77216   2
 -10   4   4 239.694 5.51435  -1
 -10   4   1 239.694 5.51435   2
  -8   4   4 76.2369 1.88618  -1
   8   4   0 76.2369 1.88618   2
  -6   4   4 133.519 2.23568  -1
   6   4   1 133.519 2.23568   2
  -4   4   4 33.0051 0.64265  -1
   4   4   2 33.0051 0.64265   2
  -2   4   4 1193.27 18.9124  -1
   2   4   3 1193.27 18.9124   2
   0   4   4 1891.63 31.7185  -1
   0   4   4 1891.63 31.7185   2
   2   4   4 3743.82 53.0325  -1
  -2   4   5 3743.82 53.0325   2
   4   4   4 296.425 4.48417  -1
  -4   4   6 296.425 4.48417   2
   6   4   4 376.936 6.95423  -1
  -6   4   7 376.936 6.95423   2
   8   4   4 68.5525 1.88383  -1
  -8   4   8 68.5525 1.88383   2
  10   4   4 107.195 4.01528  -1
 -10   4   9 107.195 4.01528   2
  -7   5   4 13.4234 1.15116   2
  -5   5   4 230.845 4.06713   2
  -3   5   4 76.0321 1.55065   2
  -1   5   4 171.147 3.15928   2
   1   5   4 40.1903 0.91671   2
   3   5   4 0.33516 0.26016   2
   5   5   4 83.9939 4.26353  -1
  -5   5   6 83.9939 4.26353   2
   5   5   4 83.9595 3.01435   2
 -10   6   4 642.135 20.2745  -1
 -10   6   1 642.135 20.2745   2
  -8   6   4 100.503 3.10870  -1
   8   6   0 100.503 3.10870   2
  -6   6   4 242.119 4.64147  -1
   6   6   1 242.119 4.64147   2
  -4   6   4 1551.61 25.1262  -1
   4   6   2 1551.61 25.1262   2
  -2   6   4 159.561 2.76094  -1
   2   6   3 159.561 2.76094   2
   0   6   4 98.1894 1.80631  -1
   0   6   4 98.1894 1.80631   2
   2   6   4 242.935 4.12865  -1
  -2   6   5 242.935 4.12865   2
   4   6   4 628.372 11.3323  -1
  -4   6   6 628.372 11.3323   2
   6   6   4 254.093 5.54697  -1
  -6   6   7 254.093 5.54697   2
   8   6   4 541.940 12.3666  -1
  -8   6   8 541.940 12.3666   2
  -5   7   4 1.24121 0.58936   2
  -5   7   4 20.6789 2.15227  -1
   5   7   2 20.6789 2.15227   2
  -3   7   4 11.1240 0.66714   2
  -1   7   4 12.3146 0.78014   2
   1   7   4 6.22337 0.59224   2
   3   7   4 3.76245 0.70520   2
  -8   8   4 73.9747 2.25047  -1
   8   8   0 73.9747 2.25047   2
  -6   8   4 76.9280 1.96078  -1
   6   8   1 76.9280 1.96078   2
  -4   8   4 79.0970 2.04126  -1
   4   8   2 79.0970 2.04126   2
  -2   8   4 339.921 6.09967  -1
   2   8   3 339.921 6.09967   2
   0   8   4 504.998 8.93174  -1
   0   8   4 504.998 8.93174   2
   2   8   4 2538.56 48.6489  -1
  -2   8   5 2538.56 48.6489   2
   4   8   4 39.4047 1.16302  -1
  -4   8   6 39.4047 1.16302   2
   6   8   4 100.467 2.59752  -1
  -6   8   7 100.467 2.59752   2
   8   8   4 97.7857 6.04719  -1
  -8   8   8 97.7857 6.04719   2
  -3   9   4 53.2602 3.10929   2
  -1   9   4 106.390 3.94959   2
   1   9   4 26.0858 1.49923   2
  -6  10   4 93.9194 3.54310  -1
   6  10   1 93.9194 3.54310   2
  -4  10   4 886.770 16.7191  -1
   4  10   2 886.770 16.7191   2
  -2  10   4 21.6069 0.86903  -1
   2  10   3 21.6069 0.86903   2
   0  10   4 7.61158 0.60660  -1
   0  10   4 7.61158 0.60660   2
   2  10   4 4.81282 0.60559  -1
  -2  10   5 4.81282 0.60559   2
   4  10   4 162.385 3.71409  -1
  -4  10   6 162.385 3.71409   2
 -10   0   5 109.265 3.34232  -1
  10   0   0 109.265 3.34232   2
  -8   0   5 61.5637 2.45309  -1
   8   0   1 61.5637 2.45309   2
  -6   0   5 1539.04 33.9743  -1
   6   0   2 1539.04 33.9743   2
  -4   0   5 1739.04 38.4337  -1
   4   0   3 1739.04 38.4337   2
  -2   0   5 4152.79 83.1658  -1
   2   0   4 4152.79 83.1658   2
   0   0   5 1016.51 20.3464  -1
   0   0   5 1016.51 20.3464   2
   2   0   5 567.158 12.3430  -1
  -2   0   6 567.158 12.3430   2
   4   0   5 5.24759 0.53717  -1
  -4   0   7 5.24759 0.53717   2
   6   0   5 201.750 5.37237  -1
  -6   0   8 201.750 5.37237   2
   8   0   5 47.6896 2.00372  -1
  -8   0   9 47.6896 2.00372   2
  10   0   5 270.645 7.32150  -1
 -10   0  10 270.645 7.32150   2
  -9   1   5 85.9584 4.72580   2
  -7   1   5 2.88780 0.42543   2
  -5   1   5 430.073 25.4930  -1
   5   1   2 430.073 25.4930   2
  -3   1   5 13.7478 0.37574   2
  -1   1   5 2.78879 0.26222   2
   5   1   5 196.016 4.68662   2
 -10   2   5 153.485 3.15800  -1
  10   2   0 153.485 3.15800   2
  -8   2   5 839.151 15.3517  -1
   8   2   1 839.151 15.3517   2
  -6   2   5 132.872 2.52568  -1
   6   2   2 132.872 2.52568   2
  -4   2   5 549.215 8.53685  -1
   4   2   3 549.215 8.53685   2
  -2   2   5 1039.99 16.0068  -1
   2   2   4 1039.99 16.0068   2
   0   2   5 1505.54 21.9742  -1
   0   2   5 1505.54 21.9742   2
   2   2   5 1525.71 22.3643  -1
  -2   2   6 1525.71 22.3643   2
   4   2   5 1534.08 22.4944  -1
  -4   2   7 1534.08 22.4944   2
   6   2   5 285.545 5.25425  -1
  -6   2   8 285.545 5.25425   2
   8   2   5 161.792 3.20738  -1
  -8   2   9 161.792 3.20738   2
  10   2   5 611.639 14.4804  -1
 -10   2  10 611.639 14.4804   2
  -7   3   5 9.04870 0.75580   2
  -5   3   5 89.6465 1.58698   2
  -3   3   5 3.54057 0.23950   2
  -1   3   5 0.58094 0.24044   2
   1   3   5 5.60743 0.34223   2
   3   3   5 8.62966 0.47167   2
   5   3   5 57.6299 1.84415   2
 -10   4   5 91.9220 2.31658  -1
  10   4   0 91.9220 2.31658   2
  -8   4   5 81.8736 2.00697  -1
   8   4   1 81.8736 2.00697   2
  -6   4   5 1025.65 15.8913  -1
   6   4   2 1025.65 15.8913   2
  -4   4   5 1089.70 16.8388  -1
   4   4   3 1089.70 16.8388   2
  -2   4   5 3777.35 63.6966  -1
   2   4   4 3777.35 63.6966   2
   0   4   5 587.870 9.08491  -1
   0   4   5 587.870 9.08491   2
   2   4   5 306.866 4.45931  -1
  -2   4   6 306.866 4.45931   2
   4   4   5 18.6733 0.56956  -1
  -4   4   7 18.6733 0.56956   2
   6   4   5 153.463 3.24199  -1
  -6   4   8 153.463 3.24199   2
   8   4   5 48.1517 1.55450  -1
  -8   4   9 48.1517 1.55450   2
  -7   5   5 23.0565 1.21521   2
  -5   5   5 214.965 4.33268   2
  -3   5   5 18.2274 0.57623   2
  -1   5   5 5.29803 0.38581   2
   1   5   5 57.0096 1.41581   2
   3   5   5 32.4733 1.06610   2
   5   5   5 289.914 13.1339   2
  -8   6   5 711.474 18.5732  -1
   8   6   1 711.474 18.5732   2
  -6   6   5 31.5833 0.94052  -1
   6   6   2 31.5833 0.94052   2
  -4   6   5 165.336 3.24282  -1
   4   6   3 165.336 3.24282   2
  -2   6   5 249.836 4.38840  -1
   2   6   4 249.836 4.38840   2
   0   6   5 557.977 9.55637  -1
   0   6   5 557.977 9.55637   2
   2   6   5 624.114 10.7686  -1
  -2   6   6 624.114 10.7686   2
   4   6   5 1182.88 20.2099  -1
  -4   6   7 1182.88 20.2099   2
   6   6   5 163.034 3.76782  -1
  -6   6   8 163.034 3.76782   2
   8   6   5 119.019 3.27982  -1
  -8   6   9 119.019 3.27982   2
  -5   7   5 46.0210 3.10073  -1
   5   7   3 46.0210 3.10073   2
  -1   7   5 0.00626 0.45991   2
   1   7   5 1.23316 0.48207   2
   3   7   5 19.6211 1.82606   2
   5   7   5 20.3502 2.46424  -1
  -5   7   7 20.3502 2.46424   2
  -8   8   5 103.031 3.89315  -1
   8   8   1 103.031 3.89315   2
  -6   8   5 369.134 7.71419  -1
   6   8   2 369.134 7.71419   2
  -4   8   5 291.036 5.71544  -1
   4   8   3 291.036 5.71544   2
  -2   8   5 2484.43 42.8064  -1
   2   8   4 2484.43 42.8064   2
   0   8   5 105.447 2.14802  -1
   0   8   5 105.447 2.14802   2
   2   8   5 57.6660 1.46271  -1
  -2   8   6 57.6660 1.46271   2
   4   8   5 72.7425 1.64813  -1
  -4   8   7 72.7425 1.64813   2
   6   8   5 80.0816 2.23713  -1
  -6   8   8 80.0816 2.23713   2
  -3   9   5 11.0327 1.15509   2
  -1   9   5 3.23023 0.82666   2
   1   9   5 34.6742 1.81216   2
  -6  10   5 1.31222 0.80480  -1
   6  10   2 1.31222 0.80480   2
  -4  10   5 24.6217 1.03999  -1
   4  10   3 24.6217 1.03999   2
  -2  10   5 5.70392 0.63671  -1
   2  10   4 5.70392 0.63671   2
   0  10   5 124.978 2.56973  -1
   0  10   5 124.978 2.56973   2
   2  10   5 171.978 3.57304  -1
  -2  10   6 171.978 3.57304   2
   4  10   5 710.946 13.3133  -1
  -4  10   7 710.946 13.3133   2
 -10   0   6 886.922 23.0453  -1
  10   0   1 886.922 23.0453   2
  -8   0   6 434.828 11.4595  -1
   8   0   2 434.828 11.4595   2
  -6   0   6 1794.97 39.6084  -1
   6   0   3 1794.97 39.6084   2
  -4   0   6 540.547 12.0639  -1
   4   0   4 540.547 12.0639   2
  -2   0   6 543.511 10.9556  -1
   2   0   5 543.511 10.9556   2
   0   0   6 4.90359 0.36995  -1
   0   0   6 4.90359 0.36995   2
   2   0   6 245.973 5.51007  -1
  -2   0   7 245.973 5.51007   2
   4   0   6 44.6523 1.31802  -1
  -4   0   8 44.6523 1.31802   2
   6   0   6 383.570 9.85516  -1
  -6   0   9 383.570 9.85516   2
   8   0   6 284.975 7.56081  -1
  -8   0  10 284.975 7.56081   2
  10   0   6 9.29488 2.43794  -1
 -10   0  11 9.29488 2.43794   2
  -9   1   6 116.310 4.37862   2
  -7   1   6 3.03745 0.46344   2
  -7   1   6 5.92239 1.33418  -1
   7   1   3 5.92239 1.33418   2
  -5   1   6 7.41629 0.39486   2
  -3   1   6 3.53375 0.25292   2
  -3   1   6 11.1297 2.20514  -1
   3   1   5 11.1297 2.20514   2
  -1   1   6 70.8426 1.39807   2
  -1   1   6 102.828 5.20134  -1
   1   1   5 102.828 5.20134   2
   1   1   6 117.347 2.63545   2
   3   1   6 4.32244 0.53655   2
   5   1   6 88.9245 2.35804   2
 -10   2   6 11.5528 0.70242  -1
  10   2   1 11.5528 0.70242   2
  -8   2   6 562.372 10.3999  -1
   8   2   2 562.372 10.3999   2
  -6   2   6 219.945 3.59967  -1
   6   2   3 219.945 3.59967   2
  -4   2   6 1508.93 23.2614  -1
   4   2   4 1508.93 23.2614   2
  -2   2   6 1488.58 21.8080  -1
   2   2   5 1488.58 21.8080   2
   0   2   6 2144.77 31.2639  -1
   0   2   6 2144.77 31.2639   2
   2   2   6 540.251 8.29196  -1
  -2   2   7 540.251 8.29196   2
   4   2   6 341.654 5.37426  -1
  -4   2   8 341.654 5.37426   2
   6   2   6 1482.53 26.0755  -1
  -6   2   9 1482.53 26.0755   2
   8   2   6 97.1879 2.13757  -1
  -8   2  10 97.1879 2.13757   2
  10   2   6 2.57963 1.24523  -1
 -10   2  11 2.57963 1.24523   2
  -9   3   6 60.1302 2.70464   2
  -7   3   6 0.20863 0.49809   2
  -5   3   6 2.62889 0.28605   2
  -3   3   6 3.68828 0.26944   2
  -1   3   6 5.19067 0.40779   2
   1   3   6 10.5343 0.58014   2
   3   3   6 22.6958 0.92218   2
 -10   4   6 638.609 14.1271  -1
  10   4   1 638.609 14.1271   2
  -8   4   6 266.235 5.97069  -1
   8   4   2 266.235 5.97069   2
  -6   4   6 1727.33 26.6529  -1
   6   4   3 1727.33 26.6529   2
  -4   4   6 292.100 5.11569  -1
   4   4   4 292.100 5.11569   2
  -2   4   6 302.096 4.76009  -1
   2   4   5 302.096 4.76009   2
   0   4   6 9.42369 0.82412  -1
   0   4   6 9.42369 0.82412   2
   2   4   6 173.709 2.98544  -1
  -2   4   7 173.709 2.98544   2
   4   4   6 52.4557 1.13714  -1
  -4   4   8 52.4557 1.13714   2
   6   4   6 272.399 6.41920  -1
  -6   4   9 272.399 6.41920   2
   8   4   6 290.442 6.92184  -1
  -8   4  10 290.442 6.92184   2
  -7   5   6 5.83586 0.85587   2
  -3   5   6 14.7965 0.68823   2
  -1   5   6 116.623 2.45523   2
   1   5   6 194.696 4.20602   2
   3   5   6 46.7306 1.63883   2
   5   5   6 140.092 6.73230   2
 -10   6   6 0.02683 1.75496  -1
  10   6   1 0.02683 1.75496   2
  -8   6   6 246.722 8.06596  -1
   8   6   2 246.722 8.06596   2
  -6   6   6 26.2672 0.84086  -1
   6   6   3 26.2672 0.84086   2
  -4   6   6 615.092 11.3703  -1
   4   6   4 615.092 11.3703   2
  -2   6   6 629.259 11.5203  -1
   2   6   5 629.259 11.5203   2
   0   6   6 1614.33 26.1714  -1
   0   6   6 1614.33 26.1714   2
   2   6   6 289.234 5.15808  -1
  -2   6   7 289.234 5.15808   2
   4   6   6 241.111 4.38202  -1
  -4   6   8 241.111 4.38202   2
   6   6   6 904.362 21.8164  -1
  -6   6   9 904.362 21.8164   2
   8   6   6 26.7231 2.13385  -1
  -8   6  10 26.7231 2.13385   2
  -5   7   6 0.44447 0.66257   2
  -3   7   6 8.87451 0.94815   2
  -1   7   6 1.07644 0.52764   2
  -1   7   6 3.27323 1.94755  -1
   1   7   6 3.27323 1.94755   2
   3   7   6 44.6250 2.76508   2
  -8   8   6 63.7630 2.80267  -1
   8   8   2 63.7630 2.80267   2
  -6   8   6 1348.93 24.7251  -1
   6   8   3 1348.93 24.7251   2
  -4   8   6 40.8305 1.22182  -1
   4   8   4 40.8305 1.22182   2
  -2   8   6 58.0971 1.37435  -1
   2   8   5 58.0971 1.37435   2
   0   8   6 49.6590 1.35271  -1
   0   8   6 49.6590 1.35271   2
   2   8   6 80.9303 1.89687  -1
  -2   8   7 80.9303 1.89687   2
   4   8   6 51.0969 1.42860  -1
  -4   8   8 51.0969 1.42860   2
   6   8   6 121.475 3.34294  -1
  -6   8   9 121.475 3.34294   2
  -3   9   6 10.1366 1.51476   2
  -1   9   6 80.8670 3.24793   2
   1   9   6 141.296 5.12466   2
  -4  10   6 168.496 3.59907  -1
   4  10   4 168.496 3.59907   2
  -2  10   6 168.087 3.57607  -1
   2  10   5 168.087 3.57607   2
   0  10   6 917.451 17.0058  -1
   0  10   6 917.451 17.0058   2
   2  10   6 107.171 2.67786  -1
  -2  10   7 107.171 2.67786   2
   4  10   6 125.044 3.35293  -1
  -4  10   8 125.044 3.35293   2
 -10   0   7 534.794 14.1315  -1
  10   0   2 534.794 14.1315   2
  -8   0   7 81.1887 2.56772  -1
   8   0   3 81.1887 2.56772   2
  -6   0   7 585.271 13.1088  -1
   6   0   4 585.271 13.1088   2
  -4   0   7 3.99148 0.53156  -1
   4   0   5 3.99148 0.53156   2
  -2   0   7 239.016 4.94009  -1
   2   0   6 239.016 4.94009   2
   0   0   7 46.8040 1.20589  -1
   0   0   7 46.8040 1.20589   2
   2   0   7 395.889 8.75235  -1
  -2   0   8 395.889 8.75235   2
   4   0   7 233.296 5.32000  -1
  -4   0   9 233.296 5.32000   2
   6   0   7 99.9507 2.97065  -1
  -6   0  10 99.9507 2.97065   2
   8   0   7 1646.90 41.0417  -1
  -8   0  11 1646.90 41.0417   2
  -9   1   7 5.38682 0.76361   2
  -7   1   7 0.46555 0.46969   2
  -5   1   7 108.376 2.04904   2
  -5   1   7 172.643 8.80312  -1
   5   1   4 172.643 8.80312   2
  -3   1   7 7.09416 0.36429   2
  -1   1   7 122.342 2.23926   2
   1   1   7 31.7787 1.03329   2
   3   1   7 61.5968 1.81819   2
   5   1   7 6.29852 0.65325   2
 -10   2   7 3.39183 0.60065  -1
  10   2   2 3.39183 0.60065   2
  -8   2   7 1166.52 21.2584  -1
   8   2   3 1166.52 21.2584   2
  -6   2   7 564.389 8.94971  -1
   6   2   4 564.389 8.94971   2
  -4   2   7 1522.11 22.5640  -1
   4   2   5 1522.11 22.5640   2
  -2   2   7 534.417 7.87755  -1
   2   2   6 534.417 7.87755   2
   0   2   7 450.796 7.34404  -1
   0   2   7 450.796 7.34404   2
   2   2   7 2619.55 38.3465  -1
  -2   2   8 2619.55 38.3465   2
   4   2   7 68.9654 1.31433  -1
  -4   2   9 68.9654 1.31433   2
   6   2   7 45.4627 1.22254  -1
  -6   2  10 45.4627 1.22254   2
   8   2   7 245.971 4.71471  -1
  -8   2  11 245.971 4.71471   2
  -9   3   7 1.56244 1.15444   2
  -7   3   7 7.12609 0.71780   2
  -5   3   7 29.4447 0.72515   2
  -3   3   7 15.6542 0.52761   2
  -1   3   7 10.5537 0.52740   2
   1   3   7 3.02739 0.45858   2
   3   3   7 145.985 3.64370   2
   5   3   7 26.8746 1.50152   2
 -10   4   7 559.020 13.3850  -1
  10   4   2 559.020 13.3850   2
  -8   4   7 28.3438 1.48395  -1
   8   4   3 28.3438 1.48395   2
  -6   4   7 370.625 6.95558  -1
   6   4   4 370.625 6.95558   2
  -4   4   7 18.7439 0.61498  -1
   4   4   5 18.7439 0.61498   2
  -2   4   7 169.832 2.89884  -1
   2   4   6 169.832 2.89884   2
   0   4   7 47.0467 0.97832  -1
   0   4   7 47.0467 0.97832   2
   2   4   7 273.337 4.58142  -1
  -2   4   8 273.337 4.58142   2
   4   4   7 264.002 4.88649  -1
  -4   4   9 264.002 4.88649   2
   6   4   7 136.024 3.52066  -1
  -6   4  10 136.024 3.52066   2
   8   4   7 1199.31 26.7019  -1
  -8   4  11 1199.31 26.7019   2
  -7   5   7 3.11184 0.78568   2
  -5   5   7 151.883 4.39517   2
  -3   5   7 53.0320 1.42831   2
  -1   5   7 205.291 4.15421   2
   1   5   7 91.3232 2.18286   2
   3   5   7 7.09198 0.76856   2
   5   5   7 26.5647 3.32486  -1
  -5   5   9 26.5647 3.32486   2
   5   5   7 0.95498 0.95540   2
  -8   6   7 602.902 15.8894  -1
   8   6   3 602.902 15.8894   2
  -6   6   7 251.368 5.28409  -1
   6   6   4 251.368 5.28409   2
  -4   6   7 1178.19 21.5621  -1
   4   6   5 1178.19 21.5621   2
  -2   6   7 296.480 5.21417  -1
   2   6   6 296.480 5.21417   2
   0   6   7 320.258 5.41879  -1
   0   6   7 320.258 5.41879   2
   2   6   7 1499.55 25.5627  -1
  -2   6   8 1499.55 25.5627   2
   4   6   7 6.64673 0.59468  -1
  -4   6   9 6.64673 0.59468   2
   6   6   7 3.43338 0.85023  -1
  -6   6  10 3.43338 0.85023   2
  -3   7   7 29.7362 1.64153   2
   1   7   7 21.8399 2.50080  -1
  -1   7   7 21.8399 2.50080   2
   1   7   7 17.7386 1.03686   2
   3   7   7 159.959 7.74711   2
   5   7   7 34.0289 2.50455   2
  -8   8   7 -0.0334 1.00738  -1
   8   8   3 -0.0334 1.00738   2
  -6   8   7 98.2244 2.26944  -1
   6   8   4 98.2244 2.26944   2
  -4   8   7 68.8887 1.82592  -1
   4   8   5 68.8887 1.82592   2
  -2   8   7 82.6304 1.96425  -1
   2   8   6 82.6304 1.96425   2
   0   8   7 47.4204 1.44764  -1
   0   8   7 47.4204 1.44764   2
   2   8   7 112.342 2.47544  -1
  -2   8   8 112.342 2.47544   2
   4   8   7 277.833 5.47037  -1
  -4   8   9 277.833 5.47037   2
   6   8   7 194.468 10.4184  -1
  -6   8  10 194.468 10.4184   2
  -3   9   7 42.9792 2.86519   2
  -1   9   7 142.538 5.20874   2
   1   9   7 59.5560 3.77021   2
  -4  10   7 723.631 14.6759  -1
   4  10   5 723.631 14.6759   2
  -2  10   7 105.648 2.48800  -1
   2  10   6 105.648 2.48800   2
   0  10   7 150.957 3.23358  -1
   0  10   7 150.957 3.23358   2
   2  10   7 647.244 13.2150  -1
  -2  10   8 647.244 13.2150   2
 -10   0   8 415.628 11.1448  -1
  10   0   3 415.628 11.1448   2
  -8   0   8 49.9882 1.83991  -1
   8   0   4 49.9882 1.83991   2
  -6   0   8 192.619 5.13303  -1
   6   0   5 192.619 5.13303   2
  -4   0   8 44.2291 1.34195  -1
   4   0   6 44.2291 1.34195   2
  -2   0   8 378.518 7.73666  -1
   2   0   7 378.518 7.73666   2
   0   0   8 178.257 3.80921  -1
   0   0   8 178.257 3.80921   2
   2   0   8 367.250 8.17909  -1
  -2   0   9 367.250 8.17909   2
   4   0   8 3997.97 85.9829  -1
  -4   0  10 3997.97 85.9829   2
   6   0   8 125.773 3.64960  -1
  -6   0  11 125.773 3.64960   2
   8   0   8 0.55782 0.77139  -1
  -8   0  12 0.55782 0.77139   2
  -9   1   8 62.8461 3.95590   2
  -7   1   8 1.10703 0.51907   2
  -5   1   8 225.220 4.04871   2
  -3   1   8 2.78807 0.33579   2
  -1   1   8 6.28225 0.47800   2
   1   1   8 43.3302 1.30714   2
   3   1   8 39.3728 1.42071   2
   5   1   8 3.75060 0.65435   2
 -10   2   8 139.552 2.97269  -1
  10   2   3 139.552 2.97269   2
  -8   2   8 623.368 11.5243  -1
   8   2   4 623.368 11.5243   2
  -6   2   8 283.288 4.62217  -1
   6   2   5 283.288 4.62217   2
  -4   2   8 343.054 5.52294  -1
   4   2   6 343.054 5.52294   2
  -2   2   8 2493.53 36.3132  -1
   2   2   7 2493.53 36.3132   2
   0   2   8 40.0789 0.88170  -1
   0   2   8 40.0789 0.88170   2
   2   2   8 283.254 4.69187  -1
  -2   2   9 283.254 4.69187   2
   4   2   8 146.331 2.49139  -1
  -4   2  10 146.331 2.49139   2
   6   2   8 142.590 3.02500  -1
  -6   2  11 142.590 3.02500   2
   8   2   8 28.4262 1.29087  -1
  -8   2  12 28.4262 1.29087   2
  -9   3   8 17.4565 2.13438   2
  -7   3   8 30.2520 1.68543   2
  -5   3   8 69.5949 1.51005   2
  -5   3   8 71.5094 4.59333  -1
   5   3   6 71.5094 4.59333   2
  -3   3   8 58.7984 1.19073   2
  -1   3   8 60.8718 1.61619   2
   1   3   8 93.1592 2.26898   2
   3   3   8 53.3958 1.69159   2
   5   3   8 3.26845 0.83251   2
 -10   4   8 287.226 7.22232  -1
  10   4   3 287.226 7.22232   2
  -8   4   8 67.3599 2.46189  -1
   8   4   4 67.3599 2.46189   2
  -6   4   8 149.438 2.86326  -1
   6   4   5 149.438 2.86326   2
  -4   4   8 48.4602 1.11917  -1
   4   4   6 48.4602 1.11917   2
  -2   4   8 270.019 5.01551  -1
   2   4   7 270.019 5.01551   2
   0   4   8 217.915 3.55385  -1
   0   4   8 217.915 3.55385   2
   2   4   8 416.847 6.87743  -1
  -2   4   9 416.847 6.87743   2
   4   4   8 2884.44 48.1933  -1
  -4   4  10 2884.44 48.1933   2
   6   4   8 55.2428 1.88696  -1
  -6   4  11 55.2428 1.88696   2
   8   4   8 4.07936 1.19771  -1
  -8   4  12 4.07936 1.19771   2
  -7   5   8 11.4887 1.72080   2
  -5   5   8 324.047 10.7756   2
  -3   5   8 11.5535 0.70848   2
  -1   5   8 5.16810 0.56384   2
   1   5   8 8.05894 0.62958   2
   3   5   8 17.1200 1.40583   2
   5   5   8 5.40302 1.38553   2
  -8   6   8 531.134 12.7406  -1
   8   6   4 531.134 12.7406   2
  -6   6   8 161.595 3.36374  -1
   6   6   5 161.595 3.36374   2
  -4   6   8 239.465 4.65087  -1
   4   6   6 239.465 4.65087   2
  -2   6   8 1503.86 27.2156  -1
   2   6   7 1503.86 27.2156   2
   0   6   8 0.91655 0.50507  -1
   0   6   8 0.91655 0.50507   2
   2   6   8 53.2528 1.30568  -1
  -2   6   9 53.2528 1.30568   2
   4   6   8 39.1472 1.20052  -1
  -4   6  10 39.1472 1.20052   2
   6   6   8 201.465 5.05137  -1
  -6   6  11 201.465 5.05137   2
  -3   7   8 74.7356 4.07814   2
  -1   7   8 79.0427 2.52259   2
   1   7   8 90.5794 3.42679   2
   3   7   8 40.4152 2.82162   2
   5   7   8 1.48883 1.29983   2
  -8   8   8 103.645 6.08255  -1
   8   8   4 103.645 6.08255   2
  -6   8   8 77.0333 2.10950  -1
   6   8   5 77.0333 2.10950   2
  -4   8   8 50.8691 1.43198  -1
   4   8   6 50.8691 1.43198   2
  -2   8   8 111.505 2.64055  -1
   2   8   7 111.505 2.64055   2
   0   8   8 247.020 4.88779  -1
   0   8   8 247.020 4.88779   2
   2   8   8 406.706 7.78177  -1
  -2   8   9 406.706 7.78177   2
   4   8   8 1282.01 23.6296  -1
  -4   8  10 1282.01 23.6296   2
  -1   9   8 4.75993 1.07332   2
  -4  10   8 129.948 3.68458  -1
   4  10   6 129.948 3.68458   2
  -2  10   8 636.918 13.0198  -1
   2  10   7 636.918 13.0198   2
   0  10   8 17.4621 1.04476  -1
   0  10   8 17.4621 1.04476   2
   2  10   8 0.73071 1.19776  -1
  -2  10   9 0.73071 1.19776   2
 -10   0   9 129.981 3.97984  -1
  10   0   4 129.981 3.97984   2
  -8   0   9 44.9361 1.76232  -1
   8   0   5 44.9361 1.76232   2
  -6   0   9 368.674 9.49786  -1
   6   0   6 368.674 9.49786   2
  -4   0   9 226.059 5.28499  -1
   4   0   7 226.059 5.28499   2
  -2   0   9 341.969 7.04279  -1
   2   0   8 341.969 7.04279   2
   0   0   9 5654.33 113.111  -1
   0   0   9 5654.33 113.111   2
   2   0   9 62.4133 1.77685  -1
  -2   0  10 62.4133 1.77685   2
   4   0   9 55.5539 1.67984  -1
  -4   0  11 55.5539 1.67984   2
   6   0   9 334.017 8.76384  -1
  -6   0  12 334.017 8.76384   2
   8   0   9 37.8606 1.81913  -1
  -8   0  13 37.8606 1.81913   2
  -9   1   9 142.408 7.61267   2
  -7   1   9 15.7291 0.98787   2
  -5   1   9 4.52221 0.47006   2
  -3   1   9 107.678 2.16508   2
  -1   1   9 24.4788 0.79241   2
   1   1   9 2.09713 0.54161   2
   3   1   9 5.37564 0.74962   2
 -10   2   9 104.374 2.73316  -1
  10   2   4 104.374 2.73316   2
  -8   2   9 154.808 3.62931  -1
   8   2   5 154.808 3.62931   2
  -6   2   9 1452.11 23.6340  -1
   6   2   6 1452.11 23.6340   2
  -4   2   9 67.9194 1.48738  -1
   4   2   7 67.9194 1.48738   2
  -2   2   9 267.931 4.54455  -1
   2   2   8 267.931 4.54455   2
   0   2   9 75.7402 1.49925  -1
   0   2   9 75.7402 1.49925   2
   2   2   9 44.6195 1.12859  -1
  -2   2  10 44.6195 1.12859   2
   4   2   9 135.836 2.72802  -1
  -4   2  11 135.836 2.72802   2
   6   2   9 1135.57 22.8482  -1
  -6   2  12 1135.57 22.8482   2
   8   2   9 45.1310 2.33498  -1
  -8   2  13 45.1310 2.33498   2
  -9   3   9 53.0882 3.68222   2
  -7   3   9 66.3855 2.87905   2
  -5   3   9 9.37773 0.56500   2
  -3   3   9 175.123 3.37829   2
  -1   3   9 36.1824 1.31091   2
   1   3   9 1.07525 0.50151   2
   3   3   9 20.3249 1.12121   2
   5   3   9 0.04738 0.82880   2
  -8   4   9 46.3342 1.75757  -1
   8   4   5 46.3342 1.75757   2
  -6   4   9 271.995 4.97405  -1
   6   4   6 271.995 4.97405   2
  -4   4   9 259.305 4.73742  -1
   4   4   7 259.305 4.73742   2
  -2   4   9 397.362 6.64355  -1
   2   4   8 397.362 6.64355   2
   0   4   9 4066.33 67.8754  -1
   0   4   9 4066.33 67.8754   2
   2   4   9 15.6865 0.68770  -1
  -2   4  10 15.6865 0.68770   2
   4   4   9 18.0525 0.81269  -1
  -4   4  11 18.0525 0.81269   2
   6   4   9 245.374 6.43188  -1
  -6   4  12 245.374 6.43188   2
  -7   5   9 0.58212 1.26808   2
  -3   5   9 43.0537 1.63277   2
  -1   5   9 9.09361 0.75659   2
   1   5   9 2.36289 0.65288   2
   3   5   9 0.48820 0.88579   2
   5   5   9 27.8004 2.44560   2
  -8   6   9 116.156 3.34808  -1
   8   6   5 116.156 3.34808   2
  -6   6   9 886.526 16.6798  -1
   6   6   6 886.526 16.6798   2
  -4   6   9 6.30561 0.53745  -1
   4   6   7 6.30561 0.53745   2
  -2   6   9 54.2955 1.30614  -1
   2   6   8 54.2955 1.30614   2
   0   6   9 12.6364 0.68999  -1
   0   6   9 12.6364 0.68999   2
   2   6   9 125.243 2.51401  -1
  -2   6  10 125.243 2.51401   2
   4   6   9 187.512 3.78834  -1
  -4   6  11 187.512 3.78834   2
   6   6   9 671.784 15.2792  -1
  -6   6  12 671.784 15.2792   2
  -1   7   9 31.8166 1.44999   2
   1   7   9 0.68946 1.18836   2
   3   7   9 22.0327 2.28747   2
   3   7   9 25.8576 3.05792  -1
  -3   7  10 25.8576 3.05792   2
   5   7   9 3.56512 1.47854   2
  -6   8   9 121.411 3.00677  -1
   6   8   6 121.411 3.00677   2
  -4   8   9 263.162 5.28983  -1
   4   8   7 263.162 5.28983   2
  -2   8   9 407.418 8.99297  -1
   2   8   8 407.418 8.99297   2
   0   8   9 1726.21 34.3129  -1
   0   8   9 1726.21 34.3129   2
   2   8   9 9.60095 0.77006  -1
  -2   8  10 9.60095 0.77006   2
   4   8   9 3.29207 0.71286  -1
  -4   8  11 3.29207 0.71286   2
  -1   9   9 4.21656 1.52246   2
 -10   0  10 262.226 7.32619  -1
  10   0   5 262.226 7.32619   2
  -8   0  10 283.462 7.74928  -1
   8   0   6 283.462 7.74928   2
  -6   0  10 97.3365 2.90807  -1
   6   0   7 97.3365 2.90807   2
  -4   0  10 3861.41 85.0906  -1
   4   0   8 3861.41 85.0906   2
  -2   0  10 58.1988 1.70295  -1
   2   0   9 58.1988 1.70295   2
   0   0  10 156.385 3.72794  -1
   0   0  10 156.385 3.72794   2
   2   0  10 323.277 7.30886  -1
  -2   0  11 323.277 7.30886   2
   4   0  10 27.9078 1.30303  -1
  -4   0  12 27.9078 1.30303   2
   6   0  10 41.1488 2.00003  -1
  -6   0  13 41.1488 2.00003   2
  -7   1  10 109.832 3.59618   2
  -5   1  10 7.77866 0.87556   2
  -3   1  10 0.55726 0.45889   2
  -1   1  10 1.25761 0.40044   2
   1   1  10 0.91537 0.67137   2
   3   1  10 38.9128 1.56452   2
 -10   2  10 611.234 16.2102  -1
  10   2   5 611.234 16.2102   2
  -8   2  10 93.3574 2.70685  -1
   8   2   6 93.3574 2.70685   2
  -6   2  10 44.3448 1.16846  -1
   6   2   7 44.3448 1.16846   2
  -4   2  10 138.483 2.93396  -1
   4   2   8 138.483 2.93396   2
  -2   2  10 42.8718 1.08463  -1
   2   2   9 42.8718 1.08463   2
   0   2  10 250.357 4.24923  -1
   0   2  10 250.357 4.24923   2
   2   2  10 2081.60 34.8666  -1
  -2   2  11 2081.60 34.8666   2
   4   2  10 101.682 2.09220  -1
  -4   2  12 101.682 2.09220   2
   6   2  10 201.272 4.51384  -1
  -6   2  13 201.272 4.51384   2
  -7   3  10 162.968 6.09260   2
  -5   3  10 16.5643 2.08541   2
  -3   3  10 0.58709 0.54169   2
  -1   3  10 4.73489 0.65827   2
   1   3  10 13.0260 0.98691   2
   1   3  10 49.2997 3.82446  -1
  -1   3  11 49.2997 3.82446   2
   3   3  10 105.665 2.95474   2
   5   3  10 10.6783 1.79441   2
  -8   4  10 287.908 7.19994  -1
   8   4   6 287.908 7.19994   2
  -6   4  10 136.114 2.70265  -1
   6   4   7 136.114 2.70265   2
  -4   4  10 2841.38 48.8818  -1
   4   4   8 2841.38 48.8818   2
  -2   4  10 15.1724 0.66585  -1
   2   4   9 15.1724 0.66585   2
   0   4  10 62.2866 1.34195  -1
   0   4  10 62.2866 1.34195   2
   2   4  10 225.599 4.11048  -1
  -2   4  11 225.599 4.11048   2
   4   4  10 32.6426 1.05756  -1
  -4   4  12 32.6426 1.05756   2
   6   4  10 41.5412 1.72715  -1
  -6   4  13 41.5412 1.72715   2
  -5   5  10 2.53800 1.40475   2
  -3   5  10 0.36399 0.77895   2
  -1   5  10 4.60457 0.70641   2
   1   5  10 11.3571 1.29777   2
   5   5  10 19.7269 2.32739   2
  -8   6  10 25.7213 1.61980  -1
   8   6   6 25.7213 1.61980   2
  -6   6  10 1.80285 0.56895  -1
   6   6   7 1.80285 0.56895   2
  -4   6  10 36.3576 1.19724  -1
   4   6   8 36.3576 1.19724   2
  -2   6  10 128.526 3.08644  -1
   2   6   9 128.526 3.08644   2
   0   6  10 309.102 6.02374  -1
   0   6  10 309.102 6.02374   2
   2   6  10 1182.01 20.3100  -1
  -2   6  11 1182.01 20.3100   2
   4   6  10 88.2505 2.10741  -1
  -4   6  12 88.2505 2.10741   2
  -1   7  10 6.73473 1.06643   2
   1   7  10 22.4305 2.34507   2
   3   7  10 163.845 8.39519  -1
  -3   7  11 163.845 8.39519   2
   3   7  10 119.743 6.40216   2
   5   7  10 21.2590 2.63452   2
  -6   8  10 181.147 5.55742  -1
   6   8   7 181.147 5.55742   2
  -4   8  10 1217.93 22.8556  -1
   4   8   8 1217.93 22.8556   2
  -2   8  10 9.09275 0.88432  -1
   2   8   9 9.09275 0.88432   2
   0   8  10 1.76499 0.69279  -1
   0   8  10 1.76499 0.69279   2
   2   8  10 108.058 2.51983  -1
  -2   8  11 108.058 2.51983   2
   4   8  10 37.4528 2.15614  -1
  -4   8  12 37.4528 2.15614   2
 -10   0  11 9.65167 1.83439  -1
  10   0   6 9.65167 1.83439   2
  -8   0  11 1618.59 41.6535  -1
   8   0   7 1618.59 41.6535   2
  -6   0  11 123.679 3.16826  -1
   6   0   8 123.679 3.16826   2
  -4   0  11 55.6277 1.70111  -1
   4   0   9 55.6277 1.70111   2
  -2   0  11 316.517 7.93113  -1
   2   0  10 316.517 7.93113   2
   0   0  11 21.9170 1.11741  -1
   0   0  11 21.9170 1.11741   2
   2   0  11 44.0049 1.63338  -1
  -2   0  12 44.0049 1.63338   2
   4   0  11 107.324 3.05336  -1
  -4   0  13 107.324 3.05336   2
   6   0  11 622.644 21.4404  -1
  -6   0  14 622.644 21.4404   2
  -5   1  11 6.02981 1.06853   2
  -3   1  11 10.3936 0.94490   2
  -1   1  11 1.22734 0.50854   2
   1   1  11 13.3675 1.04223   2
   3   1  11 46.0102 1.95002   2
 -10   2  11 2.57352 1.45614  -1
  10   2   6 2.57352 1.45614   2
  -8   2  11 229.327 5.79252  -1
   8   2   7 229.327 5.79252   2
  -6   2  11 139.217 2.76027  -1
   6   2   8 139.217 2.76027   2
  -4   2  11 134.958 2.91186  -1
   4   2   9 134.958 2.91186   2
  -2   2  11 1986.87 34.2791  -1
   2   2  10 1986.87 34.2791   2
   0   2  11 136.977 2.63620  -1
   0   2  11 136.977 2.63620   2
   2   2  11 329.826 5.83527  -1
  -2   2  12 329.826 5.83527   2
   4   2  11 561.595 9.70219  -1
  -4   2  13 561.595 9.70219   2
   6   2  11 17.6862 1.07736  -1
  -6   2  14 17.6862 1.07736   2
  -5   3  11 0.03324 1.32126   2
  -3   3  11 46.4268 3.05755   2
   1   3  11 69.0398 2.66331   2
   3   3  11 120.818 3.80990   2
   5   3  11 5.86269 1.61347   2
  -8   4  11 1209.00 28.3086  -1
   8   4   7 1209.00 28.3086   2
  -6   4  11 55.7488 1.41938  -1
   6   4   8 55.7488 1.41938   2
  -4   4  11 18.2729 0.83656  -1
   4   4   9 18.2729 0.83656   2
  -2   4  11 226.864 4.17919  -1
   2   4  10 226.864 4.17919   2
   0   4  11 28.1718 0.95207  -1
   0   4  11 28.1718 0.95207   2
   2   4  11 37.1632 1.11587  -1
  -2   4  12 37.1632 1.11587   2
   4   4  11 111.625 2.48398  -1
  -4   4  13 111.625 2.48398   2
   6   4  11 469.166 18.5080  -1
  -6   4  14 469.166 18.5080   2
  -3   5  11 0.35363 1.15265   2
  -1   5  11 7.06201 0.91758   2
   1   5  11 0.97606 1.03495   2
   5   5  11 64.3654 4.18867   2
  -6   6  11 199.683 4.16782  -1
   6   6   8 199.683 4.16782   2
  -4   6  11 184.102 3.85929  -1
   4   6   9 184.102 3.85929   2
  -2   6  11 1125.61 19.3319  -1
   2   6  10 1125.61 19.3319   2
   0   6  11 118.271 2.82600  -1
   0   6  11 118.271 2.82600   2
   2   6  11 196.408 3.98376  -1
  -2   6  12 196.408 3.98376   2
   4   6  11 477.209 8.97142  -1
  -4   6  13 477.209 8.97142   2
  -1   7  11 51.5075 3.53567   2
   1   7  11 83.0819 4.88645   2
   3   7  11 115.123 6.34682   2
  -6   8  11 2.37839 1.16858  -1
   6   8   8 2.37839 1.16858   2
  -4   8  11 1.81554 0.77626  -1
   4   8   9 1.81554 0.77626   2
  -2   8  11 98.8005 2.53580  -1
   2   8  10 98.8005 2.53580   2
   0   8  11 36.8074 1.46293  -1
   0   8  11 36.8074 1.46293   2
  -8   0  12 0.41887 1.08002  -1
   8   0   8 0.41887 1.08002   2
  -6   0  12 328.892 9.57825  -1
   6   0   9 328.892 9.57825   2
  -4   0  12 27.4058 1.57973  -1
   4   0  10 27.4058 1.57973   2
  -2   0  12 43.2210 1.91967  -1
   2   0  11 43.2210 1.91967   2
   0   0  12 92.7679 3.06163  -1
   0   0  12 92.7679 3.06163   2
   2   0  12 727.411 19.7194  -1
  -2   0  13 727.411 19.7194   2
   4   0  12 1125.39 30.2172  -1
  -4   0  14 1125.39 30.2172   2
   6   0  12 320.575 16.7949  -1
  -6   0  15 320.575 16.7949   2
  -5   1  12 19.9799 3.31130  -1
   5   1   9 19.9799 3.31130   2
  -3   1  12 89.5639 3.42053   2
  -1   1  12 5.33417 0.66936   2
   1   1  12 15.4983 1.12123   2
   3   1  12 17.8731 1.37957   2
   5   1  12 41.8905 3.29832   2
  -8   2  12 28.1386 1.45617  -1
   8   2   8 28.1386 1.45617   2
  -6   2  12 1122.10 19.5450  -1
   6   2   9 1122.10 19.5450   2
  -4   2  12 99.2546 2.12073  -1
   4   2  10 99.2546 2.12073   2
  -2   2  12 313.499 6.06335  -1
   2   2  11 313.499 6.06335   2
   0   2  12 758.261 13.8578  -1
   0   2  12 758.261 13.8578   2
   2   2  12 78.3076 1.75689  -1
  -2   2  13 78.3076 1.75689   2
   4   2  12 15.8745 0.83295  -1
  -4   2  14 15.8745 0.83295   2
   6   2  12 3.39636 1.35823  -1
  -6   2  15 3.39636 1.35823   2
  -3   3  12 172.454 8.44600   2
  -1   3  12 43.6048 2.41599   2
   1   3  12 0.32848 1.08325   2
   3   3  12 2.51439 1.27612   2
   5   3  12 22.3286 2.59674   2
  -8   4  12 3.46067 0.99331  -1
   8   4   8 3.46067 0.99331   2
  -6   4  12 250.351 4.70978  -1
   6   4   9 250.351 4.70978   2
  -4   4  12 32.3491 1.09539  -1
   4   4  10 32.3491 1.09539   2
  -2   4  12 36.9387 1.21990  -1
   2   4  11 36.9387 1.21990   2
   0   4  12 101.327 2.27589  -1
   0   4  12 101.327 2.27589   2
   2   4  12 487.305 8.49525  -1
  -2   4  13 487.305 8.49525   2
   4   4  12 781.012 14.3420  -1
  -4   4  14 781.012 14.3420   2
  -3   5  12 17.1357 2.26206   2
  -3   5  12 22.2948 3.53424  -1
   3   5  10 22.2948 3.53424   2
  -1   5  12 3.50138 1.15195   2
   1   5  12 35.6736 2.28602   2
  -6   6  12 681.154 13.0121  -1
   6   6   9 681.154 13.0121   2
  -4   6  12 87.4998 2.32506  -1
   4   6  10 87.4998 2.32506   2
  -2   6  12 193.655 3.71878  -1
   2   6  11 193.655 3.71878   2
   0   6  12 628.053 12.5899  -1
   0   6  12 628.053 12.5899   2
   2   6  12 21.4316 1.17338  -1
  -2   6  13 21.4316 1.17338   2
   4   6  12 0.13567 1.54934  -1
  -4   6  14 0.13567 1.54934   2
  -3   7  12 155.744 7.92389   2
  -1   7  12 56.0681 3.86238   2
   1   7  12 4.81769 1.72363   2
  -2   8  12 25.5796 1.99190  -1
   2   8  11 25.5796 1.99190   2
   0   8  12 96.3931 6.00755  -1
   0   8  12 96.3931 6.00755   2
  -8   0  13 36.3250 2.55180  -1
   8   0   9 36.3250 2.55180   2
  -6   0  13 40.5665 1.97823  -1
   6   0  10 40.5665 1.97823   2
  -4   0  13 105.039 3.59938  -1
   4   0  11 105.039 3.59938   2
  -2   0  13 722.223 23.7588  -1
   2   0  12 722.223 23.7588   2
   0   0  13 1642.33 52.9855  -1
   0   0  13 1642.33 52.9855   2
   2   0  13 729.648 19.8220  -1
  -2   0  14 729.648 19.8220   2
   4   0  13 135.430 4.35688  -1
  -4   0  15 135.430 4.35688   2
  -5   1  13 4.67726 2.23811  -1
   5   1  10 4.67726 2.23811   2
  -3   1  13 1.67087 0.86486   2
  -1   1  13 66.3621 2.79566   2
   1   1  13 38.1348 2.04729   2
   3   1  13 4.06996 1.35665   2
   5   1  13 5.24607 1.76468   2
  -8   2  13 44.1139 2.41817  -1
   8   2   9 44.1139 2.41817   2
  -6   2  13 196.654 3.79640  -1
   6   2  10 196.654 3.79640   2
  -4   2  13 560.619 9.97929  -1
   4   2  11 560.619 9.97929   2
  -2   2  13 75.9044 1.88264  -1
   2   2  12 75.9044 1.88264   2
   0   2  13 2.37863 0.58100  -1
   0   2  13 2.37863 0.58100   2
   2   2  13 24.1154 1.02705  -1
  -2   2  14 24.1154 1.02705   2
   4   2  13 522.709 9.52298  -1
  -4   2  15 522.709 9.52298   2
  -3   3  13 14.1690 1.98843   2
  -1   3  13 20.6940 2.39538   2
   1   3  13 17.0387 1.82539   2
   3   3  13 4.47224 1.72731   2
  -6   4  13 36.4019 1.21893  -1
   6   4  10 36.4019 1.21893   2
  -4   4  13 110.527 2.51757  -1
   4   4  11 110.527 2.51757   2
  -2   4  13 479.286 9.10449  -1
   2   4  12 479.286 9.10449   2
   0   4  13 1098.60 19.9415  -1
   0   4  13 1098.60 19.9415   2
   2   4  13 700.315 12.9076  -1
  -2   4  14 700.315 12.9076   2
   4   4  13 69.2137 2.98873  -1
  -4   4  15 69.2137 2.98873   2
  -3   5  13 10.0217 3.56413  -1
   3   5  11 10.0217 3.56413   2
  -3   5  13 7.85281 1.80536   2
  -1   5  13 79.6788 4.86351   2
   1   5  13 36.5107 2.42957   2
  -6   6  13 133.432 4.38937  -1
   6   6  10 133.432 4.38937   2
  -4   6  13 490.960 10.1753  -1
   4   6  11 490.960 10.1753   2
  -2   6  13 20.1296 1.26901  -1
   2   6  12 20.1296 1.26901   2
   0   6  13 6.73364 0.84746  -1
   0   6  13 6.73364 0.84746   2
   2   6  13 2.10622 1.01345  -1
  -2   6  14 2.10622 1.01345   2
  -3   7  13 20.6684 2.48062   2
  -6   0  14 629.840 17.8836  -1
   6   0  11 629.840 17.8836   2
  -4   0  14 1109.84 30.9474  -1
   4   0  12 1109.84 30.9474   2
  -2   0  14 730.463 24.0825  -1
   2   0  13 730.463 24.0825   2
   0   0  14 247.908 8.79540  -1
   0   0  14 247.908 8.79540   2
   2   0  14 33.8021 1.80496  -1
  -2   0  15 33.8021 1.80496   2
   4   0  14 42.0941 3.51651  -1
  -4   0  16 42.0941 3.51651   2
  -5   1  14 116.568 5.10483  -1
   5   1  11 116.568 5.10483   2
  -3   1  14 21.2963 1.65797   2
  -1   1  14 2.87831 0.99595   2
   1   1  14 2.61441 1.51889   2
   3   1  14 1.21987 1.51806   2
  -6   2  14 16.4251 0.93436  -1
   6   2  11 16.4251 0.93436   2
  -4   2  14 13.5351 0.91139  -1
   4   2  12 13.5351 0.91139   2
  -2   2  14 24.9778 1.29939  -1
   2   2  13 24.9778 1.29939   2
   0   2  14 504.516 11.9709  -1
   0   2  14 504.516 11.9709   2
   2   2  14 829.067 17.3451  -1
  -2   2  15 829.067 17.3451   2
   4   2  14 336.378 17.2320  -1
  -4   2  16 336.378 17.2320   2
  -3   3  14 7.97158 1.83300   2
  -1   3  14 2.88945 1.56411   2
   1   3  14 0.41379 1.46804   2
  -6   4  14 466.822 9.68447  -1
   6   4  11 466.822 9.68447   2
  -4   4  14 782.708 14.6134  -1
   4   4  12 782.708 14.6134   2
  -2   4  14 689.595 13.7645  -1
   2   4  13 689.595 13.7645   2
   0   4  14 137.303 3.24427  -1
   0   4  14 137.303 3.24427   2
   2   4  14 15.8160 0.97537  -1
  -2   4  15 15.8160 0.97537   2
  -3   5  14 56.7213 5.11494  -1
   3   5  12 56.7213 5.11494   2
  -3   5  14 24.0788 2.80216   2
  -1   5  14 1.66876 1.64369   2
   1   5  14 3.60909 2.11498   2
  -4   6  14 2.33771 1.78972  -1
   4   6  12 2.33771 1.78972   2
  -2   6  14 3.16502 1.33251  -1
   2   6  13 3.16502 1.33251   2
   0   6  14 228.717 8.56945  -1
   0   6  14 228.717 8.56945   2
  -6   0  15 345.848 12.5653  -1
   6   0  12 345.848 12.5653   2
  -4   0  15 130.781 5.19215  -1
   4   0  13 130.781 5.19215   2
  -2   0  15 36.1630 2.38017  -1
   2   0  14 36.1630 2.38017   2
   0   0  15 25.5678 2.66712  -1
   0   0  15 25.5678 2.66712   2
   2   0  15 80.0564 4.89430  -1
  -2   0  16 80.0564 4.89430   2
  -3   1  15 1.56632 1.01781   2
  -1   1  15 -0.3712 1.36927   2
   1   1  15 11.4697 1.98947   2
  -6   2  15 2.65307 0.90943  -1
   6   2  12 2.65307 0.90943   2
  -4   2  15 521.563 11.3824  -1
   4   2  13 521.563 11.3824   2
  -2   2  15 854.957 19.8729  -1
   2   2  14 854.957 19.8729   2
   0   2  15 460.107 11.0160  -1
   0   2  15 460.107 11.0160   2
   2   2  15 190.844 10.1755  -1
  -2   2  16 190.844 10.1755   2
  -3   3  15 3.96462 1.60430   2
  -1   3  15 3.54275 1.63642   2
  -4   4  15 69.6564 2.69223  -1
   4   4  13 69.6564 2.69223   2
  -2   4  15 15.9115 1.39098  -1
   2   4  14 15.9115 1.39098   2
   0   4  15 44.6593 2.82541  -1
   0   4  15 44.6593 2.82541   2
  -3   1  16 3.11634 1.49277   2
   0   0   0    0.00    0.00   0
;
_shelx_hkl_checksum              71457
loop_
_space_group_symop_operation_xyz
'x, y, z'
'-x, y, -z'
'x+1/2, y+1/2, z'
'-x+1/2, y+1/2, -z'
'-x, -y, -z'
'x, -y, z'
'-x+1/2, -y+1/2, -z'
'x+1/2, -y+1/2, z'
loop_
_atom_site_label
_atom_site_type_symbol
_atom_site_fract_x
_atom_site_fract_y
_atom_site_fract_z
_atom_site_U_iso_or_equiv
_atom_site_adp_type
_atom_site_occupancy
_atom_site_site_symmetry_order
_atom_site_calc_flag
_atom_site_refinement_flags_posn
_atom_site_refinement_flags_adp
_atom_site_refinement_flags_occupancy
La1 La 0.08402(14) 0.24980(6) 0.33354(3) 0.00451(13) Uani 1 1 d . . .
Pd1 Pd 0.19854(18) 0.0000 0.79356(6) 0.00644(17) Uani 1 2 d S T P
Ge1 Ge 0.4970(2) 0.0000 0.10927(12) 0.0090(4) Uani 1 2 d S T P
Ge2 Ge 0.3585(3) 0.0000 0.42815(11) 0.0071(2) Uani 1 2 d S T P
Ge3 Ge 0.0577(2) 0.0000 0.10974(13) 0.0092(4) Uani 1 2 d S T P
Ge4 Ge 0.2773(3) 0.22206(8) 0.10943(6) 0.00829(19) Uani 1 1 d . . .
Ge5 Ge 0.1438(3) 0.0000 0.56219(10) 0.0058(2) Uani 1 2 d S T P
loop_
_atom_site_aniso_label
_atom_site_aniso_U_11
_atom_site_aniso_U_22
_atom_site_aniso_U_33
_atom_site_aniso_U_23
_atom_site_aniso_U_13
_atom_site_aniso_U_12
La1 0.0041(2) 0.00450(18) 0.00463(18) 0.00010(17) 0.0000(4) -0.0002(2)
Pd1 0.0058(4) 0.0060(3) 0.0077(3) 0.000 0.0016(5) 0.000
Ge1 0.0117(12) 0.0088(7) 0.0065(6) 0.000 0.0019(6) 0.000
Ge2 0.0062(7) 0.0071(5) 0.0084(5) 0.000 0.0025(10) 0.000
Ge3 0.0132(12) 0.0083(6) 0.0067(6) 0.000 0.0039(6) 0.000
Ge4 0.0083(4) 0.0113(5) 0.0054(3) -0.0008(2) 0.0014(6) -0.0004(7)
Ge5 0.0043(7) 0.0084(5) 0.0050(5) 0.000 0.0018(9) 0.000
loop_
_atom_type_symbol
_atom_type_description
_atom_type_scat_dispersion_real
_atom_type_scat_dispersion_imag
_atom_type_scat_source
Ge Ge 0.1547 1.8001 'International Tables Vol C Tables 4.2.6.8 and 6.1.1.4'
Pd Pd -0.9988 1.0072 'International Tables Vol C Tables 4.2.6.8 and 6.1.1.4'
La La -0.2871 2.4523 'International Tables Vol C Tables 4.2.6.8 and 6.1.1.4'
loop_
_geom_angle_atom_site_label_1
_geom_angle_atom_site_label_2
_geom_angle_atom_site_label_3
_geom_angle
_geom_angle_site_symmetry_1
_geom_angle_site_symmetry_3
Ge2 La1 Ge2 140.67(4) 3_455 .
Ge2 La1 Ge5 81.13(4) 3_455 7_556
Ge2 La1 Ge5 84.40(5) . 7_556
Ge2 La1 Ge5 83.87(5) 3_455 5_556
Ge2 La1 Ge5 82.26(4) . 5_556
Ge5 La1 Ge5 137.00(4) 7_556 5_556
Ge2 La1 Ge4 136.40(3) 3_455 .
Ge2 La1 Ge4 78.02(4) . .
Ge5 La1 Ge4 85.65(5) 7_556 .
Ge5 La1 Ge4 130.42(3) 5_556 .
Ge2 La1 Ge4 78.01(4) 3_455 8_455
Ge2 La1 Ge4 136.60(3) . 8_455
Ge5 La1 Ge4 130.07(3) 7_556 8_455
Ge5 La1 Ge4 84.90(5) 5_556 8_455
Ge4 La1 Ge4 79.428(18) . 8_455
Ge2 La1 Pd1 97.01(4) 3_455 7_556
Ge2 La1 Pd1 99.55(5) . 7_556
Ge5 La1 Pd1 47.31(3) 7_556 7_556
Ge5 La1 Pd1 175.65(3) 5_556 7_556
Ge4 La1 Pd1 46.75(2) . 7_556
Ge4 La1 Pd1 91.11(3) 8_455 7_556
Ge2 La1 Ge3 137.75(5) 3_455 .
Ge2 La1 Ge3 76.91(4) . .
Ge5 La1 Ge3 131.63(5) 7_556 .
Ge5 La1 Ge3 84.29(3) 5_556 .
Ge4 La1 Ge3 47.14(3) . .
Ge4 La1 Ge3 60.63(3) 8_455 .
Pd1 La1 Ge3 92.26(3) 7_556 .
Ge2 La1 Pd1 99.56(5) 3_455 5_556
Ge2 La1 Pd1 97.37(4) . 5_556
Ge5 La1 Pd1 175.98(3) 7_556 5_556
Ge5 La1 Pd1 46.98(3) 5_556 5_556
Ge4 La1 Pd1 91.18(3) . 5_556
Ge4 La1 Pd1 46.65(2) 8_455 5_556
Pd1 La1 Pd1 128.71(3) 7_556 5_556
Ge3 La1 Pd1 45.83(4) . 5_556
Ge2 La1 Ge1 76.76(3) 3_455 3_455
Ge2 La1 Ge1 137.73(5) . 3_455
Ge5 La1 Ge1 84.22(3) 7_556 3_455
Ge5 La1 Ge1 130.68(5) 5_556 3_455
Ge4 La1 Ge1 60.62(3) . 3_455
Ge4 La1 Ge1 47.04(3) 8_455 3_455
Pd1 La1 Ge1 45.82(4) 7_556 3_455
Ge3 La1 Ge1 80.829(19) . 3_455
Pd1 La1 Ge1 92.08(3) 5_556 3_455
Ge2 La1 Ge5 100.10(4) 3_455 .
Ge2 La1 Ge5 46.21(7) . .
Ge5 La1 Ge5 98.01(3) 7_556 .
Ge5 La1 Ge5 45.74(8) 5_556 .
Ge4 La1 Ge5 122.89(6) . .
Ge4 La1 Ge5 129.98(6) 8_455 .
Pd1 La1 Ge5 137.87(6) 7_556 .
Ge3 La1 Ge5 100.10(3) . .
Pd1 La1 Ge5 85.78(4) 5_556 .
Ge1 La1 Ge5 175.87(7) 3_455 .
Ge2 La1 Ge2 46.59(8) 3_455 7_556
Ge2 La1 Ge2 99.15(3) . 7_556
Ge5 La1 Ge2 45.36(7) 7_556 7_556
Ge5 La1 Ge2 97.09(4) 5_556 7_556
Ge4 La1 Ge2 130.60(6) . 7_556
Ge4 La1 Ge2 123.54(5) 8_455 7_556
Pd1 La1 Ge2 86.55(4) 7_556 7_556
Ge3 La1 Ge2 175.65(7) . 7_556
Pd1 La1 Ge2 137.40(6) 5_556 7_556
Ge1 La1 Ge2 101.23(3) 3_455 7_556
Ge5 La1 Ge2 78.130(17) . 7_556
Ge3 Pd1 Ge1 129.89(4) 5_556 5_656
Ge3 Pd1 Ge5 115.55(9) 5_556 .
Ge1 Pd1 Ge5 114.56(9) 5_656 .
Ge3 Pd1 Ge4 79.80(5) 5_556 7_556
Ge1 Pd1 Ge4 79.79(5) 5_656 7_556
Ge5 Pd1 Ge4 114.73(2) . 7_556
Ge3 Pd1 Ge4 79.80(5) 5_556 4_546
Ge1 Pd1 Ge4 79.79(5) 5_656 4_546
Ge5 Pd1 Ge4 114.73(2) . 4_546
Ge4 Pd1 Ge4 130.54(4) 7_556 4_546
Ge3 Pd1 La1 138.81(3) 5_556 7_556
Ge1 Pd1 La1 67.35(4) 5_656 7_556
Ge5 Pd1 La1 63.94(5) . 7_556
Ge4 Pd1 La1 66.08(4) 7_556 7_556
Ge4 Pd1 La1 140.21(7) 4_546 7_556
Ge3 Pd1 La1 138.81(3) 5_556 4_546
Ge1 Pd1 La1 67.35(4) 5_656 4_546
Ge5 Pd1 La1 63.94(5) . 4_546
Ge4 Pd1 La1 140.21(7) 7_556 4_546
Ge4 Pd1 La1 66.08(4) 4_546 4_546
La1 Pd1 La1 80.51(4) 7_556 4_546
Ge3 Pd1 La1 67.08(4) 5_556 5_556
Ge1 Pd1 La1 139.03(3) 5_656 5_556
Ge5 Pd1 La1 64.78(5) . 5_556
Ge4 Pd1 La1 139.96(7) 7_556 5_556
Ge4 Pd1 La1 66.16(4) 4_546 5_556
La1 Pd1 La1 128.71(3) 7_556 5_556
La1 Pd1 La1 78.064(12) 4_546 5_556
Ge3 Pd1 La1 67.08(4) 5_556 2_556
Ge1 Pd1 La1 139.03(3) 5_656 2_556
Ge5 Pd1 La1 64.78(5) . 2_556
Ge4 Pd1 La1 66.16(4) 7_556 2_556
Ge4 Pd1 La1 139.96(7) 4_546 2_556
La1 Pd1 La1 78.064(12) 7_556 2_556
La1 Pd1 La1 128.71(3) 4_546 2_556
La1 Pd1 La1 80.18(4) 5_556 2_556
Ge1 Ge1 Pd1 103.53(10) 5_655 5_656
Ge1 Ge1 Ge4 98.06(7) 5_655 6
Pd1 Ge1 Ge4 128.96(5) 5_656 6
Ge1 Ge1 Ge4 98.06(7) 5_655 .
Pd1 Ge1 Ge4 128.96(5) 5_656 .
Ge4 Ge1 Ge4 91.98(9) 6 .
Ge1 Ge1 La1 136.91(4) 5_655 8
Pd1 Ge1 La1 66.83(4) 5_656 8
Ge4 Ge1 La1 121.09(6) 6 8
Ge4 Ge1 La1 65.83(4) . 8
Ge1 Ge1 La1 136.91(4) 5_655 3_545
Pd1 Ge1 La1 66.83(4) 5_656 3_545
Ge4 Ge1 La1 65.83(4) 6 3_545
Ge4 Ge1 La1 121.09(6) . 3_545
La1 Ge1 La1 80.13(4) 8 3_545
Ge5 Ge2 Ge2 105.70(7) . 5_656
Ge5 Ge2 La1 136.78(2) . 8
Ge2 Ge2 La1 72.07(8) 5_656 8
Ge5 Ge2 La1 136.78(2) . 3_545
Ge2 Ge2 La1 72.07(8) 5_656 3_545
La1 Ge2 La1 84.92(6) 8 3_545
Ge5 Ge2 La1 70.47(8) . 6
Ge2 Ge2 La1 136.56(2) 5_656 6
La1 Ge2 La1 140.67(4) 8 6
La1 Ge2 La1 82.269(15) 3_545 6
Ge5 Ge2 La1 70.47(8) . .
Ge2 Ge2 La1 136.56(2) 5_656 .
La1 Ge2 La1 82.269(15) 8 .
La1 Ge2 La1 140.67(4) 3_545 .
La1 Ge2 La1 84.53(6) 6 .
Ge5 Ge2 La1 62.26(3) . 7_556
Ge2 Ge2 La1 61.34(4) 5_656 7_556
La1 Ge2 La1 81.18(4) 8 7_556
La1 Ge2 La1 133.41(8) 3_545 7_556
La1 Ge2 La1 132.72(8) 6 7_556
La1 Ge2 La1 80.85(3) . 7_556
Ge5 Ge2 La1 62.26(3) . 4_546
Ge2 Ge2 La1 61.34(4) 5_656 4_546
La1 Ge2 La1 133.41(8) 8 4_546
La1 Ge2 La1 81.18(4) 3_545 4_546
La1 Ge2 La1 80.85(3) 6 4_546
La1 Ge2 La1 132.72(8) . 4_546
La1 Ge2 La1 77.01(3) 7_556 4_546
Ge3 Ge3 Pd1 103.44(11) 5 5_556
Ge3 Ge3 Ge4 97.92(7) 5 6
Pd1 Ge3 Ge4 129.07(5) 5_556 6
Ge3 Ge3 Ge4 97.92(7) 5 .
Pd1 Ge3 Ge4 129.07(5) 5_556 .
Ge4 Ge3 Ge4 92.00(9) 6 .
Ge3 Ge3 La1 136.97(4) 5 6
Pd1 Ge3 La1 67.09(4) 5_556 6
Ge4 Ge3 La1 65.77(4) 6 6
Ge4 Ge3 La1 121.07(6) . 6
Ge3 Ge3 La1 136.97(4) 5 .
Pd1 Ge3 La1 67.09(4) 5_556 .
Ge4 Ge3 La1 121.07(6) 6 .
Ge4 Ge3 La1 65.77(4) . .
La1 Ge3 La1 80.18(4) 6 .
Ge4 Ge4 Pd1 103.78(4) 7 7_556
Ge4 Ge4 Ge3 97.94(9) 7 .
Pd1 Ge4 Ge3 130.73(8) 7_556 .
Ge4 Ge4 Ge1 97.81(9) 7 .
Pd1 Ge4 Ge1 130.83(8) 7_556 .
Ge3 Ge4 Ge1 88.01(3) . .
Ge4 Ge4 La1 137.94(13) 7 .
Pd1 Ge4 La1 67.17(4) 7_556 .
Ge3 Ge4 La1 67.08(5) . .
Ge1 Ge4 La1 119.53(4) . .
Ge4 Ge4 La1 137.77(13) 7 8
Pd1 Ge4 La1 67.19(4) 7_556 8
Ge3 Ge4 La1 119.55(4) . 8
Ge1 Ge4 La1 67.13(5) . 8
La1 Ge4 La1 78.812(18) . 8
Ge5 Ge5 Ge2 110.62(7) 5_556 .
Ge5 Ge5 Pd1 122.69(14) 5_556 .
Ge2 Ge5 Pd1 126.69(13) . .
Ge5 Ge5 La1 137.79(3) 5_556 7_556
Ge2 Ge5 La1 72.38(8) . 7_556
Pd1 Ge5 La1 68.76(4) . 7_556
Ge5 Ge5 La1 137.79(3) 5_556 4_546
Ge2 Ge5 La1 72.38(8) . 4_546
Pd1 Ge5 La1 68.76(4) . 4_546
La1 Ge5 La1 84.20(6) 7_556 4_546
Ge5 Ge5 La1 69.58(8) 5_556 5_556
Ge2 Ge5 La1 138.12(2) . 5_556
Pd1 Ge5 La1 68.25(5) . 5_556
La1 Ge5 La1 137.00(4) 7_556 5_556
La1 Ge5 La1 81.074(15) 4_546 5_556
Ge5 Ge5 La1 69.58(8) 5_556 2_556
Ge2 Ge5 La1 138.12(2) . 2_556
Pd1 Ge5 La1 68.25(5) . 2_556
La1 Ge5 La1 81.074(15) 7_556 2_556
La1 Ge5 La1 137.00(4) 4_546 2_556
La1 Ge5 La1 82.78(6) 5_556 2_556
Ge5 Ge5 La1 64.68(4) 5_556 .
Ge2 Ge5 La1 63.33(3) . .
Pd1 Ge5 La1 140.368(15) . .
La1 Ge5 La1 81.99(3) 7_556 .
La1 Ge5 La1 135.70(8) 4_546 .
La1 Ge5 La1 134.26(8) 5_556 .
La1 Ge5 La1 81.64(4) 2_556 .
Ge5 Ge5 La1 64.68(4) 5_556 6
Ge2 Ge5 La1 63.33(3) . 6
Pd1 Ge5 La1 140.368(16) . 6
La1 Ge5 La1 135.70(8) 7_556 6
La1 Ge5 La1 81.99(3) 4_546 6
La1 Ge5 La1 81.64(4) 5_556 6
La1 Ge5 La1 134.26(8) 2_556 6
La1 Ge5 La1 79.24(3) . 6
loop_
_geom_bond_atom_site_label_1
_geom_bond_atom_site_label_2
_geom_bond_distance
_geom_bond_site_symmetry_2
La1 Ge2 3.1191(19) 3_455
La1 Ge2 3.1259(19) .
La1 Ge5 3.1408(18) 7_556
La1 Ge5 3.1798(19) 5_556
La1 Ge4 3.2321(18) .
La1 Ge4 3.2393(17) 8_455
La1 Pd1 3.2587(12) 7_556
La1 Ge3 3.2646(11) .
La1 Pd1 3.2648(12) 5_556
La1 Ge1 3.2715(12) 3_455
La1 Ge5 3.2968(10) .
La1 Ge2 3.3822(10) 7_556
Pd1 Ge3 2.542(2) 5_556
Pd1 Ge1 2.542(2) 5_656
Pd1 Ge5 2.5697(13) .
Pd1 Ge4 2.5754(8) 7_556
Pd1 Ge4 2.5754(8) 4_546
Pd1 La1 3.2587(12) 7_556
Pd1 La1 3.2587(12) 4_546
Pd1 La1 3.2647(12) 5_556
Pd1 La1 3.2647(12) 2_556
Ge1 Ge1 2.478(3) 5_655
Ge1 Pd1 2.542(2) 5_656
Ge1 Ge4 2.598(2) 6
Ge1 Ge4 2.599(2) .
Ge1 La1 3.2715(12) 8
Ge1 La1 3.2715(12) 3_545
Ge2 Ge5 2.525(4) .
Ge2 Ge2 2.582(5) 5_656
Ge2 La1 3.1191(19) 8
Ge2 La1 3.1191(19) 3_545
Ge2 La1 3.1259(19) 6
Ge2 La1 3.3822(10) 7_556
Ge2 La1 3.3822(10) 4_546
Ge3 Ge3 2.488(3) 5
Ge3 Pd1 2.542(2) 5_556
Ge3 Ge4 2.598(2) 6
Ge3 Ge4 2.598(2) .
Ge3 La1 3.2645(11) 6
Ge4 Ge4 2.4757(13) 7
Ge4 Pd1 2.5753(8) 7_556
Ge4 La1 3.2393(17) 8
Ge5 Ge5 2.520(5) 5_556
Ge5 La1 3.1408(18) 7_556
Ge5 La1 3.1408(18) 4_546
Ge5 La1 3.1798(19) 5_556
Ge5 La1 3.1798(19) 2_556
Ge5 La1 3.2968(10) 6
loop_
_twin_individual_id
_twin_individual_mass_fraction_refined
_twin_individual_twin_matrix_11
_twin_individual_twin_matrix_12
_twin_individual_twin_matrix_13
_twin_individual_twin_matrix_21
_twin_individual_twin_matrix_22
_twin_individual_twin_matrix_23
_twin_individual_twin_matrix_31
_twin_individual_twin_matrix_32
_twin_individual_twin_matrix_33
1 0.586(5) 1 0 0 0 1 0 0 0 1
2 0.414(5) 1 0 -0.5 0 -1 0 0 0 -1
