#------------------------------------------------------------------------------
#$Date: 2019-11-17 10:14:22 +0200 (Sun, 17 Nov 2019) $
#$Revision: 229289 $
#$URL: file:///home/coder/svn-repositories/cod/cif/7/04/71/7047198.cif $
#------------------------------------------------------------------------------
#
# This file is available in the Crystallography Open Database (COD),
# http://www.crystallography.net/
#
# All data on this site have been placed in the public domain by the
# contributors.
#
data_7047198
loop_
_publ_author_name
'Schubert, Lea'
'Doerenkamp, Carsten'
'Haverkamp, Sandra'
'Heletta, Lukas'
'Eckert, Hellmut'
'P\"ottgen, Rainer'
_publ_section_title
;
 Sc<sub>5</sub>Pd<sub>4</sub>Si<sub>6</sub>- crystal structure and
 <sup>29</sup>Si/<sup>45</sup>Sc solid state MAS NMR spectroscopic
 investigations.
;
_journal_issue                   37
_journal_name_full
'Dalton transactions (Cambridge, England : 2003)'
_journal_page_first              13025
_journal_page_last               13031
_journal_paper_doi               10.1039/c8dt02083c
_journal_volume                  47
_journal_year                    2018
_chemical_formula_sum            'Pd4 Sc5 Si6'
_chemical_formula_weight         818.9
_space_group_IT_number           71
_space_group_name_Hall           '-I 2 2'
_space_group_name_H-M_alt        'I m m m'
_symmetry_cell_setting           orthorhombic
_symmetry_Int_Tables_number      71
_symmetry_space_group_name_Hall  '-I 2 2'
_symmetry_space_group_name_H-M   'I m m m'
_cell_angle_alpha                90
_cell_angle_beta                 90
_cell_angle_gamma                90
_cell_formula_units_Z            2
_cell_length_a                   3.9767(3)
_cell_length_b                   9.4598(7)
_cell_length_c                   13.159(1)
_cell_measurement_temperature    293
_cell_volume                     495.03(6)
_diffrn_ambient_temperature      293
_diffrn_measured_fraction_theta_full 0.99
_diffrn_measured_fraction_theta_max 0.99
_diffrn_measurement_device       'four-circle diffractometer'
_diffrn_measurement_device_type  'IPDS Stoe'
_diffrn_measurement_method       '??integration method??'
_diffrn_radiation_monochromator  graphite
_diffrn_radiation_probe          x-ray
_diffrn_radiation_type           X-ray
_diffrn_radiation_wavelength     0.71359
_diffrn_reflns_av_R_equivalents  0.0194
_diffrn_reflns_av_unetI/netI     0.006
_diffrn_reflns_limit_h_max       5
_diffrn_reflns_limit_h_min       -6
_diffrn_reflns_limit_k_max       14
_diffrn_reflns_limit_k_min       -14
_diffrn_reflns_limit_l_max       19
_diffrn_reflns_limit_l_min       -20
_diffrn_reflns_number            3526
_diffrn_reflns_theta_full        33.44
_diffrn_reflns_theta_max         33.44
_diffrn_reflns_theta_min         2.66
_exptl_absorpt_coefficient_mu    11.0
_exptl_crystal_density_diffrn    5.49
_exptl_crystal_F_000             746
_refine_diff_density_max         0.35
_refine_diff_density_min         -0.26
_refine_ls_extinction_coef       450(30)
_refine_ls_extinction_method
'B-C type 1 Lorentzian isotropic (Becker & Coppens, 1974)'
_refine_ls_goodness_of_fit_gt    0.97
_refine_ls_goodness_of_fit_ref   0.96
_refine_ls_number_constraints    0
_refine_ls_number_parameters     29
_refine_ls_number_reflns         578
_refine_ls_number_restraints     0
_refine_ls_R_factor_all          0.0124
_refine_ls_R_factor_gt           0.0096
_refine_ls_shift/su_max          0.0197
_refine_ls_shift/su_mean         0.0038
_refine_ls_structure_factor_coef Fsqd
_refine_ls_weighting_details     w=1/(\s^2^(I)+0.0004I^2^)
_refine_ls_weighting_scheme      sigma
_refine_ls_wR_factor_gt          0.0235
_refine_ls_wR_factor_ref         0.0245
_reflns_number_gt                529
_reflns_number_total             578
_reflns_threshold_expression     I>3\s(I)
_cod_data_source_file            c8dt02083c1.cif
_cod_data_source_block           I
_cod_depositor_comments
;
The following automatic conversions were performed:

'_diffrn_radiation_probe' value 'X-ray' changed to 'x-ray' according
to
/home/data/users/saulius/crontab/automatic-downloads/rss-feeds/RSC/lib/dictionaries/cif_core.dic
dictionary named 'cif_core.dic' version 2.4.2 from 2011-04-26.

Automatic conversion script
Id: cif_fix_values 4973 2017-02-22 13:04:09Z antanas 

 Adding full bibliography for 7047198.cif.
;
_cod_original_cell_volume        495.0
_cod_original_sg_symbol_Hall     '-I -2x;-2y;-2z'
_cod_database_code               7047198
loop_
_space_group_symop_id
_space_group_symop_operation_xyz
1 x,y,z
2 -x,-y,z
3 -x,y,-z
4 x,-y,-z
5 -x,-y,-z
6 x,y,-z
7 x,-y,z
8 -x,y,z
9 x+1/2,y+1/2,z+1/2
10 -x+1/2,-y+1/2,z+1/2
11 -x+1/2,y+1/2,-z+1/2
12 x+1/2,-y+1/2,-z+1/2
13 -x+1/2,-y+1/2,-z+1/2
14 x+1/2,y+1/2,-z+1/2
15 x+1/2,-y+1/2,z+1/2
16 -x+1/2,y+1/2,z+1/2
loop_
_atom_site_label
_atom_site_type_symbol
_atom_site_fract_x
_atom_site_fract_y
_atom_site_fract_z
_atom_site_adp_type
_atom_site_U_iso_or_equiv
_atom_site_site_symmetry_multiplicity
_atom_site_occupancy
_atom_site_calc_flag
Sc1 Sc 0 0 0 Uani 0.00910(15) 2 1 d
Sc2 Sc 0 0 0.27248(3) Uani 0.00553(9) 4 1 d
Sc3 Sc 0 0.17190(4) 0.5 Uani 0.00582(9) 4 1 d
Pd Pd 0 0.267282(12) 0.168439(10) Uani 0.00613(4) 8 1 d
Si1 Si 0 0.37633(5) 0.35364(4) Uani 0.00648(11) 8 1 d
Si2 Si 0.5 0 0.41114(5) Uani 0.00546(14) 4 1 d
loop_
_atom_site_aniso_label
_atom_site_aniso_type_symbol
_atom_site_aniso_U_11
_atom_site_aniso_U_22
_atom_site_aniso_U_33
_atom_site_aniso_U_12
_atom_site_aniso_U_13
_atom_site_aniso_U_23
Sc1 Sc 0.0098(3) 0.0099(2) 0.0076(3) 0 0 0
Sc2 Sc 0.00548(17) 0.00596(15) 0.00514(17) 0 0 0
Sc3 Sc 0.00689(16) 0.00527(16) 0.00531(17) 0 0 0
Pd Pd 0.00589(7) 0.00546(7) 0.00705(7) 0 0 0.00081(3)
Si1 Si 0.00554(19) 0.00549(16) 0.0084(2) 0 0 0.00083(13)
Si2 Si 0.0062(3) 0.0051(2) 0.0051(2) 0 0 0
loop_
_atom_type_symbol
_atom_type_scat_dispersion_real
_atom_type_scat_dispersion_imag
_atom_type_scat_source
Pd -0.9757 1.0318 'International Tables Vol C tables 4.2.6.8 and 6.1.1.1'
Sc 0.2568 0.3799 'International Tables Vol C tables 4.2.6.8 and 6.1.1.1'
Si 0.0844 0.0726 'International Tables Vol C tables 4.2.6.8 and 6.1.1.1'
loop_
_geom_bond_atom_site_label_1
_geom_bond_atom_site_label_2
_geom_bond_site_symmetry_2
_geom_bond_distance
Sc1 Sc2 . 3.5855(7)
Sc1 Sc2 3_555 3.5855(7)
Sc1 Pd . 3.3624(4)
Sc1 Pd 2_555 3.3624(4)
Sc1 Pd 3_555 3.3624(4)
Sc1 Pd 4_555 3.3624(4)
Sc1 Si1 9_444 3.0053(5)
Sc1 Si1 9_544 3.0053(5)
Sc1 Si1 10_454 3.0053(5)
Sc1 Si1 10_554 3.0053(5)
Sc1 Si1 11_445 3.0053(5)
Sc1 Si1 11_545 3.0053(5)
Sc1 Si1 12_455 3.0053(5)
Sc1 Si1 12_555 3.0053(5)
Sc2 Sc3 . 3.4071(6)
Sc2 Sc3 2_555 3.4071(6)
Sc2 Pd . 2.8753(4)
Sc2 Pd 2_555 2.8753(4)
Sc2 Pd 11_445 3.0667(3)
Sc2 Pd 11_545 3.0667(3)
Sc2 Pd 12_455 3.0667(3)
Sc2 Pd 12_555 3.0667(3)
Sc2 Si1 11_445 2.8419(5)
Sc2 Si1 11_545 2.8419(5)
Sc2 Si1 12_455 2.8419(5)
Sc2 Si1 12_555 2.8419(5)
Sc2 Si2 1_455 2.6987(6)
Sc2 Si2 . 2.6987(6)
Sc3 Sc3 2_555 3.2522(7)
Sc3 Pd 10_455 3.0327(4)
Sc3 Pd 10_555 3.0327(4)
Sc3 Pd 12_455 3.0327(4)
Sc3 Pd 12_555 3.0327(4)
Sc3 Si1 . 2.7294(6)
Sc3 Si1 3_556 2.7294(6)
Sc3 Si2 1_455 2.8222(5)
Sc3 Si2 . 2.8222(5)
Sc3 Si2 3_556 2.8222(5)
Sc3 Si2 3_656 2.8222(5)
Pd Pd 12_455 2.9442(4)
Pd Pd 12_555 2.9442(4)
Pd Si1 . 2.6464(6)
Pd Si1 12_455 2.4256(4)
Pd Si1 12_555 2.4256(4)
Pd Si2 11_555 2.4378(4)
Si1 Si1 2_565 2.3398(7)
Si2 Si2 3_656 2.3386(10)
loop_
_refln_index_h
_refln_index_k
_refln_index_l
_refln_F_squared_calc
_refln_F_squared_meas
_refln_F_squared_sigma
_refln_observed_status
4 0 0 93432.80 92363.60 144.03 o
6 0 0 38743.90 38175.60 116.61 o
1 1 0 50.75 58.37 102.15 <
3 1 0 111.79 74.68 47.21 <
5 1 0 45.14 -27.46 48.92 <
0 2 0 42953.50 42769.20 153.89 o
2 2 0 25239.70 25702.30 77.39 o
4 2 0 10563.70 10446.20 48.55 o
6 2 0 5136.20 5142.05 59.45 o
1 3 0 18333.20 17720.60 79.19 o
3 3 0 8090.85 8085.98 54.61 o
5 3 0 3516.38 3496.00 59.39 o
2 4 0 48917.00 49075.30 85.87 o
4 4 0 21592.10 21231.80 56.01 o
1 5 0 9.27 40.34 36.05 <
3 5 0 32.16 66.94 43.77 <
5 5 0 33.76 51.49 45.49 <
0 6 0 1382.90 1295.44 51.61 o
2 6 0 1141.23 1190.35 40.39 o
4 6 0 779.02 836.46 36.93 o
1 7 0 20131.60 20297.90 45.80 o
3 7 0 12025.70 12108.50 47.74 o
5 7 0 6989.81 6738.82 55.22 o
0 8 0 51441.30 50768.90 98.29 o
2 8 0 39912.80 39743.40 58.02 o
4 8 0 21938.30 21642.30 64.62 o
1 9 0 31950.10 31766.00 48.72 o
3 9 0 21219.70 21300.20 42.80 o
0 10 0 82.48 90.12 46.35 <
2 10 0 83.83 132.18 30.04 o
4 10 0 84.05 71.24 30.90 <
1 11 0 38159.20 38059.40 55.81 o
3 11 0 27868.70 28049.00 48.22 o
0 12 0 6195.35 6268.28 55.20 o
2 12 0 5388.30 5512.46 41.37 o
1 13 0 5489.38 5399.78 41.37 o
0 14 0 291.95 242.07 54.94 o
1 0 1 9318.67 9084.71 116.79 o
3 0 1 3786.20 3792.96 62.11 o
5 0 1 1620.04 1643.10 46.41 o
0 1 1 706.89 644.12 100.16 o
2 1 1 368.85 359.01 37.79 o
4 1 1 151.84 159.65 30.04 o
6 1 1 78.89 94.41 33.47 <
1 2 1 2709.19 2569.63 55.41 o
3 2 1 1305.98 1311.87 33.53 o
5 2 1 715.81 697.28 35.21 o
0 3 1 4316.12 4012.90 55.72 o
2 3 1 2308.93 2275.77 39.64 o
4 3 1 751.38 749.76 29.20 o
6 3 1 452.68 493.65 65.25 o
1 4 1 51726.20 50768.60 69.39 o
3 4 1 25338.30 25185.80 44.17 o
5 4 1 10806.80 10641.60 34.62 o
0 5 1 18871.90 18192.20 47.18 o
2 5 1 13086.90 13284.80 41.08 o
4 5 1 6301.33 6202.49 32.79 o
1 6 1 7318.99 7315.68 28.63 o
3 6 1 4110.27 4184.92 33.61 o
5 6 1 2284.35 2274.03 30.95 o
0 7 1 4822.46 4848.48 44.06 o
2 7 1 3589.84 3504.48 28.44 o
4 7 1 1952.33 1996.86 26.65 o
1 8 1 7263.18 7172.70 23.36 o
3 8 1 4590.22 4754.99 28.44 o
5 8 1 2486.49 2478.98 34.39 o
0 9 1 574.06 522.97 38.64 o
2 9 1 494.15 491.13 21.47 o
4 9 1 330.54 365.70 30.05 o
1 10 1 18.59 32.61 19.74 <
3 10 1 24.62 27.46 22.31 <
0 11 1 416.98 443.00 39.49 o
2 11 1 383.14 413.79 20.60 o
4 11 1 310.47 330.49 28.33 o
1 12 1 1238.94 1297.21 25.77 o
3 12 1 791.35 790.04 23.19 o
0 13 1 6618.71 6288.04 47.45 o
2 13 1 5640.70 5765.59 25.86 o
1 14 1 1182.07 1251.56 33.50 o
0 0 2 20196.40 20326.40 243.04 o
2 0 2 11352.40 11239.80 82.52 o
4 0 2 4874.88 4923.14 56.91 o
6 0 2 2323.96 2463.19 59.32 o
1 1 2 234.62 214.73 70.43 o
3 1 2 75.90 49.78 36.05 <
5 1 2 20.52 48.06 28.32 <
0 2 2 12465.40 12198.40 88.49 o
2 2 2 7238.04 6966.40 43.49 o
4 2 2 3138.27 3202.26 38.74 o
6 2 2 1273.30 1281.72 43.81 o
1 3 2 26164.50 25659.50 59.37 o
3 3 2 11699.90 11850.30 41.78 o
5 3 2 5095.17 5073.91 32.75 o
0 4 2 20044.40 19618.90 54.84 o
2 4 2 12527.80 12731.90 43.74 o
4 4 2 5767.61 5778.64 31.06 o
1 5 2 1997.38 1973.89 27.56 o
3 5 2 956.16 933.85 28.35 o
5 5 2 473.00 430.99 30.05 o
0 6 2 16727.60 16414.90 48.46 o
2 6 2 11854.00 11894.50 37.44 o
4 6 2 5914.36 5828.17 33.64 o
1 7 2 6378.61 6425.27 26.82 o
3 7 2 4013.99 3961.00 36.18 o
5 7 2 2206.33 2155.22 35.25 o
0 8 2 11534.20 11396.90 46.10 o
2 8 2 9014.16 9001.26 26.85 o
4 8 2 5357.48 5355.80 29.30 o
1 9 2 515.79 504.04 19.75 o
3 9 2 353.41 391.46 19.74 o
0 10 2 591.44 636.29 32.63 o
2 10 2 471.78 462.77 20.61 o
4 10 2 251.82 284.13 24.89 o
1 11 2 5522.01 5483.05 24.14 o
3 11 2 4030.49 3938.72 24.97 o
0 12 2 99.19 82.40 41.20 <
2 12 2 70.39 90.98 21.46 o
1 13 2 1468.54 1441.74 28.35 o
0 14 2 460.44 540.01 43.78 o
1 0 3 55327.20 54218.20 168.63 o
3 0 3 22785.30 22953.60 68.02 o
5 0 3 10355.40 10703.80 64.91 o
0 1 3 110.16 143.39 110.76 <
2 1 3 67.96 89.27 44.63 <
4 1 3 10.34 42.05 31.75 <
6 1 3 17.90 18.88 33.47 <
3 2 3 56974.90 57272.10 72.50 o
5 2 3 24802.70 24563.50 49.01 o
0 3 3 6033.33 5994.86 57.59 o
2 3 3 3456.49 3441.19 39.70 o
4 3 3 1266.05 1289.71 31.79 o
1 4 3 50232.20 49698.00 66.76 o
3 4 3 27195.20 27199.40 53.06 o
5 4 3 12482.10 12438.60 43.33 o
0 5 3 34239.10 33367.90 55.58 o
2 5 3 23900.90 24336.90 53.13 o
4 5 3 11666.90 11703.80 35.54 o
1 6 3 24513.40 24844.40 38.19 o
3 6 3 14363.80 14251.90 39.17 o
5 6 3 7382.67 7239.07 33.66 o
0 7 3 20758.80 21106.70 54.66 o
2 7 3 15995.10 16111.70 32.31 o
4 7 3 8882.02 8899.45 32.85 o
1 8 3 224.20 273.84 21.46 o
3 8 3 213.79 224.90 30.04 o
5 8 3 205.76 226.61 30.90 o
0 9 3 27915.90 27310.80 55.60 o
2 9 3 22677.60 22615.40 30.66 o
4 9 3 14302.60 14387.30 39.05 o
1 10 3 10159.20 10043.40 25.98 o
3 10 3 7215.58 7233.37 27.62 o
0 11 3 10793.30 10809.60 42.44 o
2 11 3 9329.70 9406.22 25.08 o
1 12 3 4558.00 4607.40 27.56 o
3 12 3 3236.35 3193.65 29.25 o
0 13 3 24911.60 24646.80 56.86 o
2 13 3 21451.30 21207.90 34.02 o
1 14 3 1384.43 1407.26 34.37 o
0 0 4 7418.68 7452.62 130.41 o
2 0 4 4782.58 4566.88 70.11 o
4 0 4 2625.09 2557.89 53.34 o
6 0 4 911.21 811.59 59.26 o
1 1 4 36963.40 36643.00 107.18 o
3 1 4 16007.30 16295.10 45.51 o
5 1 4 6419.19 6514.84 37.96 o
0 2 4 24096.90 24063.20 81.70 o
2 2 4 14320.80 14185.70 52.73 o
4 2 4 6044.64 6071.77 33.66 o
1 3 4 1457.06 1416.99 43.04 o
3 3 4 805.86 758.52 32.64 o
5 3 4 360.82 365.71 28.33 o
0 4 4 339.49 320.34 36.07 o
2 4 4 235.62 248.97 33.48 o
4 4 4 154.47 178.53 29.18 o
1 5 4 14802.80 14953.20 36.01 o
3 5 4 7650.97 7683.04 38.06 o
5 5 4 3834.27 3767.68 34.43 o
0 6 4 26653.10 27040.60 63.30 o
2 6 4 18958.60 18757.10 42.10 o
4 6 4 9996.09 9755.43 35.48 o
1 7 4 2283.89 2296.94 24.96 o
3 7 4 1278.75 1301.73 29.21 o
5 7 4 512.20 500.54 30.05 o
0 8 4 8201.23 8201.24 44.17 o
2 8 4 6488.35 6459.18 24.18 o
4 8 4 3495.60 3576.64 31.84 o
1 9 4 12683.80 12594.00 26.06 o
3 9 4 8456.40 8516.70 26.79 o
0 10 4 2467.06 2405.01 36.99 o
2 10 4 2089.81 2067.67 20.63 o
4 10 4 1422.21 1459.71 25.77 o
1 11 4 122.10 172.52 22.32 o
3 11 4 84.81 102.99 24.03 o
0 12 4 3142.95 3239.38 37.86 o
2 12 4 2654.14 2675.46 24.08 o
1 13 4 5368.12 5470.65 32.75 o
0 14 4 53.35 123.59 43.77 <
1 0 5 3109.93 2909.18 77.81 o
3 0 5 1537.63 1613.86 51.59 o
5 0 5 764.17 711.04 42.94 o
0 1 5 639.08 557.11 68.78 o
2 1 5 364.89 350.36 54.96 o
4 1 5 159.18 174.24 30.04 o
1 2 5 21987.50 21768.30 66.45 o
3 2 5 11351.70 11568.90 45.21 o
5 2 5 5260.08 5201.92 41.37 o
0 3 5 17017.60 16833.80 70.27 o
2 3 5 11072.60 11162.30 45.35 o
4 3 5 4892.67 5047.86 33.62 o
1 4 5 7603.28 7324.07 42.59 o
3 4 5 3904.04 3961.65 37.92 o
5 4 5 2009.86 1932.32 33.52 o
0 5 5 4428.72 4363.10 43.22 o
2 5 5 3063.53 3065.13 34.46 o
4 5 5 1707.28 1616.66 29.22 o
1 6 5 24831.40 24858.70 36.32 o
3 6 5 14996.40 14947.40 37.43 o
5 6 5 7669.92 7565.04 45.75 o
0 7 5 5727.80 5875.88 44.94 o
2 7 5 4432.92 4381.46 26.73 o
4 7 5 2389.69 2405.92 30.10 o
1 8 5 3451.90 3490.94 24.98 o
3 8 5 2321.90 2346.73 25.80 o
0 9 5 1004.39 963.87 43.81 o
2 9 5 881.26 922.45 21.47 o
4 9 5 654.05 634.55 30.91 o
1 10 5 2781.36 2782.28 24.95 o
3 10 5 1974.18 2006.21 29.23 o
0 11 5 3930.17 3942.74 35.30 o
2 11 5 3261.34 3248.23 23.23 o
1 12 5 888.82 923.24 27.48 o
3 12 5 639.61 714.39 26.62 o
0 13 5 2891.16 2890.09 40.43 o
2 13 5 2601.06 2606.47 28.38 o
2 0 6 70403.40 71578.50 126.98 o
4 0 6 31919.20 32283.10 98.88 o
1 1 6 152.68 200.88 48.08 o
3 1 6 108.71 126.17 41.20 o
5 1 6 73.66 76.39 32.61 <
2 2 6 69450.90 71605.40 89.50 o
4 2 6 33051.10 33806.70 58.30 o
1 3 6 6371.95 6278.29 49.46 o
3 3 6 3764.92 3726.82 37.05 o
5 3 6 1522.64 1452.13 36.09 o
0 4 6 11023.10 10817.40 56.82 o
2 4 6 7558.14 7656.32 38.99 o
4 4 6 4114.23 4149.54 33.59 o
1 5 6 797.91 877.21 28.35 o
3 5 6 538.70 535.81 28.34 o
5 5 6 470.03 395.78 37.78 o
0 6 6 23284.50 23570.20 55.70 o
2 6 6 18054.80 18064.30 38.50 o
4 6 6 10192.80 9992.13 38.94 o
1 7 6 15537.50 15504.80 30.56 o
3 7 6 10066.70 10054.50 36.36 o
5 7 6 5368.07 5052.47 48.26 o
0 8 6 7756.20 7731.20 44.12 o
2 8 6 6271.48 6224.59 25.90 o
4 8 6 3710.91 3683.84 31.85 o
1 9 6 25923.90 25732.20 33.39 o
3 9 6 18518.60 18506.50 30.48 o
0 10 6 9080.80 9146.27 51.90 o
2 10 6 7628.08 7603.17 25.04 o
4 10 6 4872.11 4892.06 31.87 o
1 11 6 28079.30 27968.20 37.74 o
3 11 6 20280.00 20329.10 33.12 o
0 12 6 149.66 248.91 36.91 o
2 12 6 153.16 145.06 23.17 o
1 13 6 7222.48 7289.70 31.07 o
1 0 7 1016.60 950.07 91.14 o
3 0 7 411.20 401.83 49.80 o
5 0 7 338.73 370.85 56.66 o
0 1 7 10879.40 10870.60 63.10 o
2 1 7 7500.90 7533.14 60.70 o
4 1 7 3410.55 3414.84 43.04 o
1 2 7 913.90 898.22 45.56 o
3 2 7 685.52 665.60 37.79 o
5 2 7 324.86 360.54 41.21 o
0 3 7 14892.30 14862.70 65.98 o
2 3 7 9856.18 10058.90 44.32 o
4 3 7 4744.84 4889.43 44.81 o
1 4 7 35686.70 36333.00 54.97 o
3 4 7 20424.60 20884.10 63.91 o
5 4 7 9949.96 9830.48 44.97 o
0 5 7 1260.81 1241.42 42.13 o
2 5 7 1004.01 1059.37 28.35 o
4 5 7 550.80 596.73 46.36 o
1 6 7 4521.16 4557.98 29.33 o
3 6 7 2903.95 2915.26 34.42 o
5 6 7 1485.62 1484.70 48.97 o
0 7 7 18316.40 18458.30 55.16 o
2 7 7 14382.40 14347.50 33.06 o
4 7 7 8032.65 8021.62 37.14 o
1 8 7 2432.91 2419.04 23.23 o
3 8 7 1861.74 1896.15 27.51 o
0 9 7 3624.13 3515.84 37.89 o
2 9 7 2859.43 2857.08 24.95 o
4 9 7 1553.71 1648.04 32.65 o
1 10 7 36.51 -23.17 23.17 <
3 10 7 18.74 20.60 23.17 <
0 11 7 3005.60 2893.26 41.30 o
2 11 7 2608.21 2575.64 26.66 o
1 12 7 1682.67 1661.12 29.22 o
0 13 7 1033.80 1081.36 41.23 o
0 0 8 317.80 285.09 77.28 o
2 0 8 287.02 293.62 52.37 o
4 0 8 229.14 323.61 72.96 o
1 1 8 4094.19 4097.48 45.78 o
3 1 8 2055.94 2035.72 49.02 o
5 1 8 1015.46 1082.21 45.52 o
0 2 8 18203.30 18739.80 65.37 o
2 2 8 12885.40 13001.80 55.81 o
4 2 8 6666.84 6680.40 52.65 o
1 3 8 283.14 281.61 36.06 o
3 3 8 170.09 164.81 36.91 o
5 3 8 127.54 97.85 43.77 <
0 4 8 13644.10 13815.20 55.09 o
2 4 8 10424.40 10531.50 40.81 o
4 4 8 5663.44 5627.81 37.94 o
1 5 8 19146.60 19299.70 37.75 o
3 5 8 11752.10 12029.00 53.78 o
5 5 8 5968.23 5735.93 41.38 o
0 6 8 19804.40 20542.30 68.46 o
2 6 8 15394.00 15262.60 33.98 o
4 6 8 9032.14 8966.14 51.00 o
1 7 8 1257.52 1282.10 24.06 o
3 7 8 885.85 925.85 26.62 o
0 8 8 1279.47 1268.30 36.95 o
2 8 8 1088.49 1100.43 25.77 o
4 8 8 751.75 740.22 35.21 o
1 9 8 3252.27 3347.13 30.98 o
3 9 8 2394.86 2361.99 24.08 o
0 10 8 2488.40 2432.99 43.86 o
2 10 8 2122.51 2135.44 25.79 o
1 11 8 187.46 193.99 26.61 o
3 11 8 163.26 163.08 25.75 o
0 12 8 81.62 18.88 40.34 <
2 12 8 79.78 104.71 27.46 o
1 13 8 8814.61 8677.33 35.42 o
1 0 9 54629.80 57536.30 127.36 o
3 0 9 31875.10 32855.50 84.95 o
5 0 9 17136.30 17594.60 77.39 o
0 1 9 1989.77 2036.62 55.95 o
2 1 9 1454.65 1495.02 42.13 o
4 1 9 744.97 699.89 33.49 o
1 2 9 42183.00 43264.60 66.16 o
3 2 9 25149.40 25608.30 54.49 o
5 2 9 12697.90 12814.60 55.46 o
0 3 9 1209.42 1212.09 50.72 o
2 3 9 964.52 949.35 32.65 o
4 3 9 616.65 631.11 45.51 o
1 4 9 33294.70 34001.70 49.96 o
3 4 9 21350.00 21540.90 51.61 o
5 4 9 11550.20 11428.00 57.14 o
0 5 9 3433.64 3576.82 47.39 o
2 5 9 2721.86 2728.00 30.98 o
4 5 9 1535.69 1542.39 38.67 o
1 6 9 7919.58 7932.89 32.88 o
3 6 9 5329.06 5461.47 43.97 o
0 7 9 23500.20 22805.30 64.98 o
2 7 9 19226.00 19345.40 34.92 o
4 7 9 11878.90 11873.50 40.71 o
1 8 9 4255.30 4354.11 31.88 o
3 8 9 3266.39 3270.61 31.84 o
0 9 9 12311.00 12239.10 46.84 o
2 9 9 10469.00 10529.20 30.29 o
4 9 9 6906.33 6917.65 50.90 o
1 10 9 3283.23 3295.75 29.26 o
3 10 9 2367.15 2296.49 28.37 o
0 11 9 19700.70 19989.90 52.29 o
2 11 9 17187.20 17189.70 35.65 o
1 12 9 4751.90 4696.17 37.04 o
0 13 9 8807.65 9001.28 58.75 o
0 0 10 3162.55 3132.97 73.26 o
2 0 10 2562.10 2563.89 55.08 o
4 0 10 1455.81 1574.14 48.12 o
1 1 10 2947.82 2923.66 45.66 o
3 1 10 1722.00 1761.32 40.40 o
5 1 10 811.16 916.29 42.94 o
0 2 10 7535.98 7685.83 57.20 o
2 2 10 5754.14 5777.03 40.59 o
4 2 10 3097.37 3164.50 37.86 o
1 3 10 10003.40 10026.30 41.68 o
3 3 10 6233.55 6409.84 51.78 o
5 3 10 3002.76 2982.32 46.45 o
0 4 10 4.50 36.90 43.77 <
2 4 10 4.69 -15.45 31.75 <
4 4 10 27.05 7.72 40.34 <
1 5 10 186.28 199.15 24.89 o
3 5 10 149.32 94.42 30.90 o
0 6 10 13116.00 12963.90 53.91 o
2 6 10 10505.20 10392.20 34.66 o
4 6 10 6174.61 6265.77 41.39 o
1 7 10 130.29 175.96 24.03 o
3 7 10 111.62 50.64 27.47 <
0 8 10 5281.31 5339.03 49.15 o
2 8 10 4401.86 4436.83 28.42 o
4 8 10 2751.09 2638.59 33.54 o
1 9 10 1293.02 1269.81 29.21 o
3 9 10 904.92 983.35 29.20 o
0 10 10 1503.04 1487.38 40.39 o
2 10 10 1258.40 1233.62 24.91 o
1 11 10 2146.42 2221.35 31.81 o
0 12 10 2271.64 2262.79 48.14 o
1 0 11 35287.10 35895.50 91.96 o
3 0 11 22279.40 22542.20 99.78 o
5 0 11 11117.50 10898.70 72.70 o
0 1 11 790.05 787.74 46.39 o
2 1 11 638.78 684.45 37.79 o
4 1 11 282.63 234.35 48.93 o
1 2 11 17.84 27.46 36.05 <
3 2 11 31.20 18.88 34.33 <
5 2 11 39.09 -11.16 44.63 <
0 3 11 15221.50 15060.20 61.98 o
2 3 11 11840.60 11804.00 50.35 o
4 3 11 6949.19 6927.69 39.70 o
1 4 11 19261.00 19368.00 41.14 o
3 4 11 12965.10 12971.10 50.32 o
0 5 11 481.75 512.61 42.07 o
2 5 11 402.80 377.76 29.19 o
4 5 11 253.94 282.41 37.77 o
1 6 11 1350.13 1331.92 29.22 o
3 6 11 1028.26 1002.38 27.49 o
0 7 11 3155.68 3145.74 40.45 o
2 7 11 2750.35 2779.30 29.25 o
4 7 11 2021.30 1989.87 33.52 o
1 8 11 23496.20 23108.80 43.75 o
3 8 11 16631.50 16633.60 37.38 o
0 9 11 1621.30 1582.08 42.97 o
2 9 11 1309.89 1338.49 26.63 o
1 10 11 663.38 731.59 28.34 o
3 10 11 459.27 533.14 52.37 o
0 11 11 6101.55 6167.00 52.60 o
2 11 11 5339.54 5174.74 39.64 o
1 12 11 336.26 405.18 37.77 o
0 0 12 58392.20 60665.40 192.50 o
2 0 12 46159.90 47396.30 103.01 o
4 0 12 26923.40 26550.30 76.24 o
1 1 12 166.92 175.97 36.05 o
3 1 12 111.58 79.82 35.19 <
0 2 12 21611.90 21454.20 70.24 o
2 2 12 17532.20 17660.10 47.98 o
4 2 12 11049.80 11194.60 45.01 o
1 3 12 100.50 125.31 31.76 o
3 3 12 81.87 109.86 32.61 o
0 4 12 25651.30 26242.30 67.76 o
2 4 12 20855.40 21105.10 44.58 o
4 4 12 12573.90 13070.50 43.33 o
1 5 12 4185.41 4191.46 36.19 o
3 5 12 2931.49 2879.27 44.73 o
0 6 12 3160.18 3143.21 43.03 o
2 6 12 2750.66 2747.50 29.25 o
4 6 12 1940.10 1958.80 39.54 o
1 7 12 8145.74 8136.00 33.70 o
3 7 12 6101.19 6172.39 37.08 o
0 8 12 8375.09 8254.54 46.67 o
2 8 12 7050.80 7062.07 31.93 o
1 9 12 16852.90 16777.00 40.00 o
3 9 12 12606.40 12344.20 38.99 o
0 10 12 1469.50 1519.93 41.24 o
2 10 12 1323.02 1286.92 33.50 o
1 11 12 12464.40 12142.80 40.72 o
1 0 13 136.88 116.73 53.22 <
3 0 13 82.43 81.54 56.65 <
0 1 13 616.11 542.73 45.51 o
2 1 13 517.42 595.88 38.64 o
4 1 13 376.41 390.60 44.64 o
1 2 13 1718.97 1704.67 36.96 o
3 2 13 1296.51 1366.02 38.66 o
0 3 13 13.24 54.93 53.21 <
2 3 13 9.19 55.78 38.62 <
4 3 13 1.33 28.32 32.61 <
1 4 13 7957.23 8088.58 37.17 o
3 4 13 5266.70 5360.68 38.78 o
0 5 13 8548.07 8520.99 57.08 o
2 5 13 7067.06 6998.66 35.39 o
4 5 13 4348.18 4389.83 39.61 o
1 6 13 4906.30 4839.87 31.02 o
3 6 13 3754.30 3703.75 34.43 o
0 7 13 347.63 376.01 37.77 o
2 7 13 279.64 276.41 27.47 o
1 8 13 424.31 383.75 28.33 o
3 8 13 330.28 340.80 34.34 o
0 9 13 218.02 211.16 41.20 o
2 9 13 204.84 224.89 31.76 o
1 10 13 521.64 565.79 36.06 o
0 11 13 189.71 166.52 42.92 o
0 0 14 7.46 52.35 63.51 <
2 0 14 2.53 84.11 71.23 <
4 0 14 7.68 -31.75 54.93 <
1 1 14 528.83 536.65 43.79 o
3 1 14 412.84 472.18 39.49 o
0 2 14 10132.40 9988.00 62.37 o
2 2 14 8423.32 8595.35 40.63 o
4 2 14 5327.82 5378.98 46.53 o
1 3 14 92.94 99.56 34.33 <
3 3 14 92.08 85.83 45.49 <
0 4 14 9883.50 9914.82 53.67 o
2 4 14 8204.84 8137.41 43.20 o
4 4 14 5020.93 5235.51 43.08 o
1 5 14 11690.80 11621.80 39.87 o
3 5 14 8335.14 8355.37 43.19 o
0 6 14 12346.10 12161.40 52.89 o
2 6 14 10546.90 10454.90 39.81 o
1 7 14 2091.96 2160.32 33.53 o
3 7 14 1499.75 1467.53 37.81 o
0 8 14 219.74 224.89 39.48 o
2 8 14 218.51 231.76 36.05 o
1 9 14 1345.26 1378.88 34.36 o
0 10 14 2032.40 2103.35 44.70 o
1 0 15 21560.40 21267.10 160.85 o
3 0 15 15432.40 15954.30 72.96 o
0 1 15 3351.47 3274.34 62.84 o
2 1 15 2761.57 2787.84 47.31 o
4 1 15 1676.31 1684.28 41.25 o
1 2 15 29406.50 29788.10 73.89 o
3 2 15 21660.30 22398.00 53.23 o
0 3 15 557.04 579.58 44.65 o
2 3 15 462.05 463.61 38.63 o
1 4 15 4653.65 4660.90 38.77 o
3 4 15 3473.49 3613.37 38.72 o
0 5 15 6844.19 6917.36 50.06 o
2 5 15 5863.94 5738.78 44.83 o
1 6 15 9209.55 9140.46 42.36 o
3 6 15 7019.00 6995.94 44.87 o
0 7 15 1712.25 1722.20 42.97 o
2 7 15 1521.81 1600.75 34.37 o
1 8 15 1656.80 1594.04 40.39 o
0 9 15 22702.90 22623.70 66.36 o
0 0 16 3159.53 3088.35 74.00 o
2 0 16 2620.79 2496.65 66.22 o
1 1 16 1611.82 1643.11 53.28 o
3 1 16 1050.40 1065.06 50.68 o
0 2 16 56.39 24.89 45.49 <
2 2 16 52.25 24.03 39.48 <
1 3 16 1521.81 1508.90 39.53 o
3 3 16 1189.77 1155.37 40.37 o
0 4 16 2632.47 2654.99 48.16 o
2 4 16 2293.78 2268.92 42.99 o
1 5 16 1057.92 1063.37 35.22 o
3 5 16 762.12 676.67 36.93 o
0 6 16 1494.53 1590.43 57.57 o
2 6 16 1314.61 1285.20 37.80 o
1 7 16 2.01 30.04 36.05 <
0 8 16 5107.51 5032.57 49.97 o
1 0 17 3731.32 3707.41 63.70 o
3 0 17 2686.90 2754.56 59.34 o
0 1 17 970.04 986.01 51.53 o
2 1 17 846.04 828.73 43.80 o
1 2 17 6871.74 6820.44 53.50 o
3 2 17 5118.70 5246.25 50.83 o
0 3 17 6633.51 6504.29 57.80 o
2 3 17 5522.98 5738.52 47.40 o
1 4 17 818.39 834.72 42.94 o
0 5 17 652.95 614.80 55.81 o
2 5 17 637.06 612.21 36.92 o
1 6 17 9447.10 9443.39 49.27 o
0 7 17 1234.74 1302.30 46.39 o
0 0 18 18827.50 19334.70 112.34 o
2 0 18 16612.40 16642.80 81.70 o
1 1 18 2996.11 2930.80 48.17 o
0 2 18 10803.00 10580.30 75.30 o
2 2 18 9313.13 9228.84 57.91 o
1 3 18 1690.45 1718.69 47.26 o
0 4 18 15235.50 15105.90 67.73 o
2 4 18 13265.00 12835.80 52.02 o
1 5 18 124.26 66.09 40.34 <
0 6 18 1665.28 1548.49 53.28 o
1 0 19 414.48 392.33 70.40 o
0 1 19 237.80 242.06 57.51 o
2 1 19 197.81 205.15 45.49 o
1 2 19 16.76 7.72 54.07 <
0 3 19 2815.55 2593.15 86.87 o
1 4 19 3135.33 2937.02 55.92 o
0 5 19 41.19 21.46 54.07 <
0 0 20 1256.20 1120.20 90.20 o
1 1 20 84.96 136.47 74.67 <
0 2 20 2064.34 1763.86 67.05 o
