#------------------------------------------------------------------------------
#$Date: 2019-11-08 01:00:59 +0200 (Fri, 08 Nov 2019) $
#$Revision: 224390 $
#$URL: file:///home/coder/svn-repositories/cod/cif/7/04/88/7048838.cif $
#------------------------------------------------------------------------------
#
# This file is available in the Crystallography Open Database (COD),
# http://www.crystallography.net/
#
# All data on this site have been placed in the public domain by the
# contributors.
#
data_7048838
loop_
_publ_author_name
'Lin, Jian'
'Liu, Qi'
'Yue, Zenghui'
'Diefenbach, Kariem'
'Cheng, Liwei'
'Lin, Yuejian'
'Wang, Jian-Qiang'
_publ_section_title
;
 Expansion of the structural diversity of f-element bearing molybdate
 iodates: synthesis, structures, and optical properties.
;
_journal_issue                   15
_journal_name_full
'Dalton transactions (Cambridge, England : 2003)'
_journal_page_first              4823
_journal_page_last               4829
_journal_paper_doi               10.1039/c8dt05120h
_journal_volume                  48
_journal_year                    2019
_chemical_formula_moiety         I4MoO15Pr
_chemical_formula_sum            'I4 Mo O15 Pr'
_chemical_formula_weight         984.45
_chemical_melting_point          ?
_chemical_name_common            'Praseodymium molybdate iodate'
_space_group_crystal_system      monoclinic
_space_group_IT_number           4
_space_group_name_Hall           'P 2yb'
_space_group_name_H-M_alt        'P 1 21 1'
_symmetry_space_group_name_Hall  'P 2yb'
_symmetry_space_group_name_H-M   'P 1 21 1'
_audit_creation_method           SHELXL-2014/7
_audit_update_record
;
2019-01-25 deposited with the CCDC.
2019-02-01 downloaded from the CCDC.
;
_cell_angle_alpha                90
_cell_angle_beta                 115.065(4)
_cell_angle_gamma                90
_cell_formula_units_Z            2
_cell_length_a                   6.9871(12)
_cell_length_b                   14.114(2)
_cell_length_c                   7.0873(12)
_cell_measurement_reflns_used    2901
_cell_measurement_temperature    173(2)
_cell_measurement_theta_max      27.537
_cell_measurement_theta_min      2.886
_cell_volume                     633.10(18)
_computing_cell_refinement       'Bruker SAINT'
_computing_data_collection       'Bruker APEX2'
_computing_data_reduction        'Bruker SAINT'
_computing_molecular_graphics    'Bruker SHELXTL'
_computing_publication_material  'Bruker SHELXTL'
_computing_structure_refinement  'SHELXL-2014/7 (Sheldrick, 2014)'
_diffrn_ambient_temperature      173(2)
_diffrn_measured_fraction_theta_full 1.000
_diffrn_measured_fraction_theta_max 0.999
_diffrn_measurement_device_type  'Bruker APEX-II'
_diffrn_measurement_method       '0.5 wide w/ exposures'
_diffrn_radiation_type           MoK\a
_diffrn_radiation_wavelength     0.71073
_diffrn_reflns_av_R_equivalents  0.0499
_diffrn_reflns_av_unetI/netI     0.0351
_diffrn_reflns_Laue_measured_fraction_full 1.000
_diffrn_reflns_Laue_measured_fraction_max 0.999
_diffrn_reflns_limit_h_max       8
_diffrn_reflns_limit_h_min       -9
_diffrn_reflns_limit_k_max       18
_diffrn_reflns_limit_k_min       -18
_diffrn_reflns_limit_l_max       9
_diffrn_reflns_limit_l_min       -9
_diffrn_reflns_number            15323
_diffrn_reflns_point_group_measured_fraction_full 0.999
_diffrn_reflns_point_group_measured_fraction_max 0.997
_diffrn_reflns_theta_full        25.242
_diffrn_reflns_theta_max         27.537
_diffrn_reflns_theta_min         2.886
_diffrn_source                   'Turbo X-ray Source'
_exptl_absorpt_coefficient_mu    14.629
_exptl_absorpt_correction_T_max  0.746
_exptl_absorpt_correction_T_min  0.500
_exptl_absorpt_correction_type   multi-scan
_exptl_absorpt_process_details   SHELTXPREP
_exptl_crystal_colour            Green
_exptl_crystal_density_diffrn    5.164
_exptl_crystal_density_meas      ?
_exptl_crystal_density_method    'Not measured'
_exptl_crystal_description       Tablet
_exptl_crystal_F_000             866
_exptl_crystal_size_max          0.07
_exptl_crystal_size_mid          0.04
_exptl_crystal_size_min          0.02
_refine_diff_density_max         1.240
_refine_diff_density_min         -0.911
_refine_diff_density_rms         0.211
_refine_ls_abs_structure_details
;
 Flack x determined using 1344 quotients [(I+)-(I-)]/[(I+)+(I-)]
 (Parsons, Flack and Wagner, Acta Cryst. B69 (2013) 249-259).
;
_refine_ls_abs_structure_Flack   0.041(10)
_refine_ls_extinction_coef       0.0225(5)
_refine_ls_extinction_expression Fc^*^=kFc[1+0.001xFc^2^\l^3^/sin(2\q)]^-1/4^
_refine_ls_extinction_method     'SHELXL-2014/7 (Sheldrick 2014'
_refine_ls_goodness_of_fit_ref   1.110
_refine_ls_hydrogen_treatment    undef
_refine_ls_matrix_type           full
_refine_ls_number_parameters     191
_refine_ls_number_reflns         2901
_refine_ls_number_restraints     19
_refine_ls_restrained_S_all      1.107
_refine_ls_R_factor_all          0.0178
_refine_ls_R_factor_gt           0.0175
_refine_ls_shift/su_max          0.000
_refine_ls_shift/su_mean         0.000
_refine_ls_structure_factor_coef Fsqd
_refine_ls_weighting_details
'w=1/[\s^2^(Fo^2^)+(0.0138P)^2^] where P=(Fo^2^+2Fc^2^)/3'
_refine_ls_weighting_scheme      calc
_refine_ls_wR_factor_gt          0.0412
_refine_ls_wR_factor_ref         0.0413
_reflns_Friedel_coverage         0.916
_reflns_Friedel_fraction_full    0.998
_reflns_Friedel_fraction_max     0.994
_reflns_number_gt                2879
_reflns_number_total             2901
_reflns_threshold_expression     'I > 2\s(I)'
_cod_data_source_file            c8dt05120h2.cif
_cod_data_source_block           Pr
_cod_depositor_comments
;
The following automatic conversions were performed:

'_chemical_melting_point' value 'N/A' was changed to '?' - the value
is undefined or not given.

'_exptl_crystal_density_meas' value 'Not measured' was changed to '?'
- the value is perceived as not measured.

Automatic conversion script
Id: cif_fix_values 4973 2017-02-22 13:04:09Z antanas 

 Adding full bibliography for 7048837--7048847.cif.
;
_cod_original_cell_volume        633.11(19)
_cod_database_code               7048838
_shelx_shelxl_version_number     2014/7
_shelx_space_group_comment
;
The symmetry employed for this shelxl refinement is uniquely defined
by the following loop, which should always be used as a source of
symmetry information in preference to the above space-group names.
They are only intended as comments.
;
_shelx_res_file
;

    test.res created by SHELXL-2014/7


TITL save_a.res in P2(1)
REM Old TITL save in P2(1)

REM SHELXT solution in P2(1)
REM R1 0.078,  Rweak 0.053,  Alpha 0.012,  Orientation as input
REM Flack x =  0.037 ( 0.019 ) from Parsons' quotients
REM Formula found by SHELXT:  O12 Mo I5

CELL  0.71073   6.9871  14.1142   7.0873   90.000  115.065   90.000
ZERR    2.000   0.0012   0.0023   0.0012    0.000    0.004    0.000
LATT -1
SYMM -X, 1/2+Y, -Z
SFAC O MO I PR
UNIT 30 2 8 2
TEMP 23.000
L.S. 20
ACTA
ISOR 0.005 O12 O13 O14
BOND $H
LIST 6
FMAP 2
PLAN 20
WGHT    0.013800
EXTI    0.022498
FVAR       0.34774
PR1   4    1.067671    0.141534    0.913098    11.00000    0.00579    0.00514 =
         0.00666    0.00059    0.00357    0.00056
I1    3    0.246471    0.728083    0.657075    11.00000    0.00585    0.00658 =
         0.00499    0.00020    0.00220   -0.00088
I2    3    0.844991    0.512383    0.549456    11.00000    0.00532    0.00596 =
         0.00503    0.00018    0.00201    0.00008
I3    3    0.469239    0.236348    0.736718    11.00000    0.00501    0.00582 =
         0.00528    0.00031    0.00241    0.00003
I4    3    0.236408    0.388620    0.193214    11.00000    0.00554    0.00545 =
         0.00517   -0.00021    0.00195    0.00023
MO1   2    0.406061    0.478998    0.706326    11.00000    0.00460    0.00619 =
         0.00534   -0.00087    0.00235    0.00018
O1    1    0.236660    0.381621    0.453640    11.00000    0.00691    0.00995 =
         0.00143    0.00081    0.00145   -0.00032
O2    1    0.766822    0.577480    0.308287    11.00000    0.01100    0.00784 =
         0.00789    0.00265    0.00412    0.00352
O3    1    0.476736    0.742234    0.607181    11.00000    0.00933    0.01415 =
         0.00883   -0.00300    0.00657   -0.00308
O4    1    0.261151    0.435308    0.833959    11.00000    0.01019    0.01249 =
         0.00736    0.00042    0.00606    0.00120
O5    1    0.701527    0.164564    0.848870    11.00000    0.00526    0.01236 =
         0.01120    0.00387    0.00106   -0.00218
O6    1    0.605951    0.545551    0.889597    11.00000    0.01026    0.01383 =
         0.00552   -0.00490    0.00134   -0.00456
O7    1    0.041086    0.480972    0.093634    11.00000    0.01380    0.00910 =
         0.01380    0.00250    0.00352    0.00775
O8    1    0.225633    0.571252    0.547416    11.00000    0.00775    0.00907 =
         0.01032    0.00026    0.00187    0.00428
O9    1    0.061341    0.290295    0.082236    11.00000    0.00520    0.00978 =
         0.00980   -0.00203   -0.00044    0.00250
O10   1    0.600793    0.352664    0.804203    11.00000    0.00694    0.00550 =
         0.00836   -0.00063   -0.00018   -0.00280
O11   1    0.251867    0.860826    0.737179    11.00000    0.01034    0.00631 =
         0.01590    0.00014    0.00321   -0.00040
O12   1    0.572277    0.486517    0.507324    11.00000    0.00638    0.01233 =
         0.00848   -0.00104    0.00578   -0.00333
O13   1    0.391444    0.232437    0.952647    11.00000    0.00928    0.01346 =
         0.00659   -0.00172    0.00647   -0.00449
O14   1    0.043244    0.748406    0.401229    11.00000    0.00871    0.01179 =
         0.00512   -0.00064   -0.00287    0.00276
O15   1    0.907031    0.611063    0.727949    11.00000    0.01082    0.00947 =
         0.00835   -0.00461    0.00350   -0.00633
HKLF 4

REM  save_a.res in P2(1)
REM R1 =  0.0175 for    2879 Fo > 4sig(Fo)  and  0.0178 for all    2901 data
REM    191 parameters refined using     19 restraints

END

WGHT      0.0138      0.0000

REM Highest difference peak  1.240,  deepest hole -0.911,  1-sigma level  0.211
Q1    1   0.9209  0.1436  0.8296  11.00000  0.05    1.24
Q2    1   1.2020  0.1452  1.0288  11.00000  0.05    1.21
Q3    1   0.9742  0.5095  0.6598  11.00000  0.05    0.99
Q4    1   0.9669  0.1437  0.7694  11.00000  0.05    0.96
Q5    1   0.1551  0.7264  0.5226  11.00000  0.05    0.96
Q6    1   0.5620  0.4724  0.7942  11.00000  0.05    0.94
Q7    1   0.2326  0.8395  0.8394  11.00000  0.05    0.93
Q8    1   0.7361  0.5157  0.4352  11.00000  0.05    0.93
Q9    1   0.3625  0.7294  0.7843  11.00000  0.05    0.91
Q10   1   0.1068  0.3858  0.0851  11.00000  0.05    0.90
Q11   1   0.5976  0.2352  0.8687  11.00000  0.05    0.86
Q12   1   0.3362  0.2374  0.6636  11.00000  0.05    0.83
Q13   1   0.2551  0.9081  0.8418  11.00000  0.05    0.82
Q14   1   0.0896  0.7412  0.5755  11.00000  0.05    0.75
Q15   1   0.0626  0.6880  0.3707  11.00000  0.05    0.74
Q16   1   0.2120  0.6416  0.8410  11.00000  0.05    0.74
Q17   1   0.2741  0.4791  0.6168  11.00000  0.05    0.73
Q18   1  -0.1712  0.7351  0.2792  11.00000  0.05    0.73
Q19   1  -0.0227  0.2804  0.0965  11.00000  0.05    0.71
Q20   1   0.4488  0.4516  1.0008  11.00000  0.05    0.69
;
_shelx_res_checksum              14396
loop_
_space_group_symop_operation_xyz
'x, y, z'
'-x, y+1/2, -z'
loop_
_atom_site_label
_atom_site_type_symbol
_atom_site_fract_x
_atom_site_fract_y
_atom_site_fract_z
_atom_site_U_iso_or_equiv
_atom_site_adp_type
_atom_site_occupancy
_atom_site_site_symmetry_order
_atom_site_calc_flag
_atom_site_refinement_flags_adp
Pr1 Pr 1.06767(7) 0.14153(3) 0.91310(7) 0.00554(12) Uani 1 1 d .
I1 I 0.24647(8) 0.72808(4) 0.65708(8) 0.00584(13) Uani 1 1 d .
I2 I 0.84499(8) 0.51238(4) 0.54946(8) 0.00550(13) Uani 1 1 d .
I3 I 0.46924(8) 0.23635(4) 0.73672(8) 0.00529(13) Uani 1 1 d .
I4 I 0.23641(8) 0.38862(4) 0.19321(8) 0.00550(13) Uani 1 1 d .
Mo1 Mo 0.40606(11) 0.47900(5) 0.70633(11) 0.00529(16) Uani 1 1 d .
O1 O 0.2367(9) 0.3816(4) 0.4536(8) 0.0062(12) Uani 1 1 d .
O2 O 0.7668(9) 0.5775(4) 0.3083(9) 0.0089(13) Uani 1 1 d .
O3 O 0.4767(9) 0.7422(5) 0.6072(9) 0.0098(12) Uani 1 1 d .
O4 O 0.2612(9) 0.4353(4) 0.8340(9) 0.0092(13) Uani 1 1 d .
O5 O 0.7015(10) 0.1646(4) 0.8489(9) 0.0104(13) Uani 1 1 d .
O6 O 0.6060(10) 0.5456(5) 0.8896(9) 0.0106(12) Uani 1 1 d .
O7 O 0.0411(10) 0.4810(5) 0.0936(9) 0.0130(13) Uani 1 1 d .
O8 O 0.2256(10) 0.5713(4) 0.5474(9) 0.0097(13) Uani 1 1 d .
O9 O 0.0613(10) 0.2903(4) 0.0822(9) 0.0095(13) Uani 1 1 d .
O10 O 0.6008(10) 0.3527(4) 0.8042(9) 0.0081(12) Uani 1 1 d .
O11 O 0.2519(10) 0.8608(4) 0.7372(10) 0.0117(13) Uani 1 1 d .
O12 O 0.5723(9) 0.4865(4) 0.5073(9) 0.0082(13) Uani 1 1 d U
O13 O 0.3914(9) 0.2324(5) 0.9526(8) 0.0087(12) Uani 1 1 d U
O14 O 0.0432(9) 0.7484(5) 0.4012(9) 0.0105(13) Uani 1 1 d U
O15 O 0.9070(10) 0.6111(4) 0.7279(9) 0.0097(13) Uani 1 1 d .
loop_
_atom_site_aniso_label
_atom_site_aniso_U_11
_atom_site_aniso_U_22
_atom_site_aniso_U_33
_atom_site_aniso_U_23
_atom_site_aniso_U_13
_atom_site_aniso_U_12
Pr1 0.0058(2) 0.0051(2) 0.0067(2) 0.00059(17) 0.00357(19) 0.00056(17)
I1 0.0059(3) 0.0066(3) 0.0050(2) 0.00020(19) 0.0022(2) -0.0009(2)
I2 0.0053(3) 0.0060(2) 0.0050(3) 0.00018(18) 0.0020(2) 0.0001(2)
I3 0.0050(3) 0.0058(2) 0.0053(2) 0.00031(19) 0.0024(2) 0.0000(2)
I4 0.0055(3) 0.0055(2) 0.0052(2) -0.00021(19) 0.0019(2) 0.0002(2)
Mo1 0.0046(4) 0.0062(3) 0.0053(3) -0.0009(3) 0.0024(3) 0.0002(3)
O1 0.007(3) 0.010(3) 0.001(3) 0.001(2) 0.001(2) 0.000(2)
O2 0.011(3) 0.008(3) 0.008(3) 0.003(2) 0.004(3) 0.004(2)
O3 0.009(3) 0.014(3) 0.009(3) -0.003(3) 0.007(2) -0.003(3)
O4 0.010(3) 0.012(3) 0.007(3) 0.000(2) 0.006(3) 0.001(2)
O5 0.005(3) 0.012(3) 0.011(3) 0.004(2) 0.001(3) -0.002(3)
O6 0.010(3) 0.014(3) 0.006(3) -0.005(3) 0.001(3) -0.005(3)
O7 0.014(3) 0.009(3) 0.014(3) 0.003(3) 0.004(3) 0.008(3)
O8 0.008(3) 0.009(3) 0.010(3) 0.000(2) 0.002(3) 0.004(3)
O9 0.005(3) 0.010(3) 0.010(3) -0.002(3) 0.000(3) 0.002(3)
O10 0.007(3) 0.005(3) 0.008(3) -0.001(2) 0.000(3) -0.003(2)
O11 0.010(4) 0.006(3) 0.016(3) 0.000(3) 0.003(3) 0.000(3)
O12 0.006(3) 0.012(3) 0.008(3) -0.001(2) 0.006(2) -0.003(2)
O13 0.009(3) 0.013(3) 0.007(3) -0.002(2) 0.006(2) -0.004(2)
O14 0.009(3) 0.012(3) 0.005(3) -0.001(2) -0.003(2) 0.003(2)
O15 0.011(3) 0.009(3) 0.008(3) -0.005(2) 0.004(3) -0.006(3)
loop_
_atom_type_symbol
_atom_type_description
_atom_type_scat_dispersion_real
_atom_type_scat_dispersion_imag
_atom_type_scat_source
O O 0.0106 0.0060 'International Tables Vol C Tables 4.2.6.8 and 6.1.1.4'
Mo Mo -1.6832 0.6857 'International Tables Vol C Tables 4.2.6.8 and 6.1.1.4'
I I -0.4742 1.8119 'International Tables Vol C Tables 4.2.6.8 and 6.1.1.4'
Pr Pr -0.2180 2.8214 'International Tables Vol C Tables 4.2.6.8 and 6.1.1.4'
loop_
_geom_angle_atom_site_label_1
_geom_angle_atom_site_label_2
_geom_angle_atom_site_label_3
_geom_angle
_geom_angle_site_symmetry_1
_geom_angle_site_symmetry_3
O7 Pr1 O9 139.4(2) 2_646 1_656
O7 Pr1 O5 79.7(2) 2_646 .
O9 Pr1 O5 74.8(2) 1_656 .
O7 Pr1 O2 82.6(2) 2_646 2_746
O9 Pr1 O2 137.6(2) 1_656 2_746
O5 Pr1 O2 131.9(2) . 2_746
O7 Pr1 O6 72.8(2) 2_646 2_747
O9 Pr1 O6 113.2(2) 1_656 2_747
O5 Pr1 O6 144.6(2) . 2_747
O2 Pr1 O6 66.3(2) 2_746 2_747
O7 Pr1 O13 138.8(2) 2_646 1_655
O9 Pr1 O13 73.0(2) 1_656 1_655
O5 Pr1 O13 141.4(2) . 1_655
O2 Pr1 O13 67.51(19) 2_746 1_655
O6 Pr1 O13 69.5(2) 2_747 1_655
O7 Pr1 O15 75.1(2) 2_646 2_747
O9 Pr1 O15 69.9(2) 1_656 2_747
O5 Pr1 O15 80.15(19) . 2_747
O2 Pr1 O15 136.61(19) 2_746 2_747
O6 Pr1 O15 71.67(19) 2_747 2_747
O13 Pr1 O15 107.52(19) 1_655 2_747
O7 Pr1 O14 125.0(2) 2_646 2_646
O9 Pr1 O14 81.7(2) 1_656 2_646
O5 Pr1 O14 81.32(19) . 2_646
O2 Pr1 O14 73.2(2) 2_746 2_646
O6 Pr1 O14 132.95(19) 2_747 2_646
O13 Pr1 O14 73.65(19) 1_655 2_646
O15 Pr1 O14 149.3(2) 2_747 2_646
O14 I1 O3 100.1(3) . .
O14 I1 O11 92.9(3) . .
O3 I1 O11 92.4(3) . .
O14 I1 O8 84.5(3) . .
O3 I1 O8 88.5(3) . .
O11 I1 O8 177.3(2) . .
O2 I2 O15 99.0(3) . .
O2 I2 O12 94.0(3) . .
O15 I2 O12 101.1(3) . .
O5 I3 O13 98.4(3) . .
O5 I3 O10 97.5(3) . .
O13 I3 O10 95.9(3) . .
O9 I4 O7 97.2(3) . .
O9 I4 O1 96.2(3) . .
O7 I4 O1 96.3(3) . .
O6 Mo1 O4 105.4(3) . .
O6 Mo1 O8 101.7(3) . .
O4 Mo1 O8 99.9(3) . .
O6 Mo1 O12 88.7(3) . .
O4 Mo1 O12 161.1(3) . .
O8 Mo1 O12 89.1(3) . .
O6 Mo1 O1 161.9(3) . .
O4 Mo1 O1 88.3(2) . .
O8 Mo1 O1 87.1(2) . .
O12 Mo1 O1 75.5(2) . .
O6 Mo1 O10 90.5(3) . .
O4 Mo1 O10 88.1(2) . .
O8 Mo1 O10 163.0(2) . .
O12 Mo1 O10 79.2(2) . .
O1 Mo1 O10 78.0(2) . .
I4 O1 Mo1 124.1(3) . .
I2 O2 Pr1 138.4(3) . 2_756
I3 O5 Pr1 147.8(3) . .
Mo1 O6 Pr1 165.4(3) . 2_757
I4 O7 Pr1 151.4(4) . 2_656
Mo1 O8 I1 122.8(3) . .
I4 O9 Pr1 137.1(3) . 1_454
I3 O10 Mo1 118.2(3) . .
I2 O12 Mo1 134.9(3) . .
I3 O13 Pr1 119.7(3) . 1_455
I1 O14 Pr1 127.8(3) . 2_656
I2 O15 Pr1 137.3(3) . 2_757
loop_
_geom_bond_atom_site_label_1
_geom_bond_atom_site_label_2
_geom_bond_distance
_geom_bond_site_symmetry_2
Pr1 O7 2.384(6) 2_646
Pr1 O9 2.427(6) 1_656
Pr1 O5 2.423(6) .
Pr1 O2 2.481(6) 2_746
Pr1 O6 2.508(6) 2_747
Pr1 O13 2.511(6) 1_655
Pr1 O15 2.511(6) 2_747
Pr1 O14 2.525(6) 2_646
I1 O14 1.790(6) .
I1 O3 1.799(6) .
I1 O11 1.953(6) .
I1 O8 2.330(6) .
I2 O2 1.809(6) .
I2 O15 1.806(6) .
I2 O12 1.836(6) .
I3 O5 1.789(6) .
I3 O13 1.829(5) .
I3 O10 1.843(6) .
I4 O9 1.796(6) .
I4 O7 1.801(6) .
I4 O1 1.848(5) .
Mo1 O6 1.727(6) .
Mo1 O4 1.732(6) .
Mo1 O8 1.830(6) .
Mo1 O12 2.176(5) .
Mo1 O1 2.168(6) .
Mo1 O10 2.171(6) .
O2 Pr1 2.481(6) 2_756
O6 Pr1 2.508(6) 2_757
O7 Pr1 2.384(6) 2_656
O9 Pr1 2.427(6) 1_454
O13 Pr1 2.511(6) 1_455
O14 Pr1 2.525(6) 2_656
O15 Pr1 2.511(6) 2_757
