#------------------------------------------------------------------------------
#$Date: 2019-03-23 02:14:12 +0200 (Sat, 23 Mar 2019) $
#$Revision: 214297 $
#$URL: file:///home/coder/svn-repositories/cod/cif/7/04/94/7049414.cif $
#------------------------------------------------------------------------------
#
# This file is available in the Crystallography Open Database (COD),
# http://www.crystallography.net/
#
# All data on this site have been placed in the public domain by the
# contributors.
#
data_7049414
loop_
_publ_author_name
'Gui, Xin'
'Finkelstein, Gregory'
'Graf, David'
'Wei, Kaya'
'Zhang, Dongzhou'
'Baumbach, Ryan'
'Dera, Przemslaw'
'Xie, Weiwei'
_publ_section_title
;
 Enhanced N\'eel Temperature in EuSnP under Pressure
;
_journal_name_full               'Dalton Transactions'
_journal_paper_doi               10.1039/C9DT00449A
_journal_year                    2019
_chemical_formula_sum            'Eu P Sn'
_chemical_formula_weight         301.62
_chemical_name_systematic
;
 ?
;
_space_group_crystal_system      tetragonal
_space_group_IT_number           129
_space_group_name_Hall           '-P 4a 2a'
_space_group_name_H-M_alt        'P 4/n m m'
_symmetry_space_group_name_Hall  '-P 4a 2a'
_symmetry_space_group_name_H-M   'P 4/n m m :2'
_audit_creation_method           SHELXL-2013
_cell_angle_alpha                90
_cell_angle_beta                 90
_cell_angle_gamma                90
_cell_formula_units_Z            2
_cell_length_a                   4.2229(6)
_cell_length_b                   4.2229(6)
_cell_length_c                   8.6314(17)
_cell_measurement_reflns_used    703
_cell_measurement_temperature    293(2)
_cell_measurement_theta_max      38.971
_cell_measurement_theta_min      2.360
_cell_volume                     153.92(4)
_computing_cell_refinement       GSE_ADA/RSV
_computing_data_collection       GSE_ADA/RSV
_computing_data_reduction        GSE_ADA/RSV
_computing_molecular_graphics    GSE_ADA/RSV
_computing_publication_material  GSE_ADA/RSV
_computing_structure_refinement  'SHELXL-2013 (Sheldrick, 2013)'
_computing_structure_solution    'SHELXS-97 (Sheldrick 2008)'
_diffrn_ambient_temperature      293(2)
_diffrn_measured_fraction_theta_full 0.852
_diffrn_measured_fraction_theta_max 0.523
_diffrn_measurement_device_type  'synchrotron x-ray CCD'
_diffrn_measurement_method       '\f and \w scans'
_diffrn_radiation_type           synchrotron
_diffrn_radiation_wavelength     0.4335
_diffrn_reflns_av_R_equivalents  0.0956
_diffrn_reflns_av_unetI/netI     0.0394
_diffrn_reflns_Laue_measured_fraction_full 0.852
_diffrn_reflns_Laue_measured_fraction_max 0.523
_diffrn_reflns_limit_h_max       2
_diffrn_reflns_limit_h_min       -3
_diffrn_reflns_limit_k_max       5
_diffrn_reflns_limit_k_min       -5
_diffrn_reflns_limit_l_max       10
_diffrn_reflns_limit_l_min       -15
_diffrn_reflns_number            703
_diffrn_reflns_point_group_measured_fraction_full 0.852
_diffrn_reflns_point_group_measured_fraction_max 0.523
_diffrn_reflns_theta_full        25.242
_diffrn_reflns_theta_max         38.971
_diffrn_reflns_theta_min         2.360
_exptl_absorpt_coefficient_mu    7.493
_exptl_absorpt_correction_type   none
_exptl_absorpt_process_details   None
_exptl_crystal_colour            Silver
_exptl_crystal_density_diffrn    6.508
_exptl_crystal_density_meas      ?
_exptl_crystal_density_method    'Not measured'
_exptl_crystal_description       Plate
_exptl_crystal_F_000             256
_exptl_crystal_size_max          0.025
_exptl_crystal_size_mid          0.020
_exptl_crystal_size_min          0.015
_exptl_transmission_factor_max   0.7434
_exptl_transmission_factor_min   0.3457
_refine_diff_density_max         4.304
_refine_diff_density_min         -4.470
_refine_diff_density_rms         0.851
_refine_ls_extinction_coef       None
_refine_ls_extinction_expression Fc^*^=kFc[1+0.001xFc^2^\l^3^/sin(2\q)]^-1/4^
_refine_ls_extinction_method     SHELXL
_refine_ls_goodness_of_fit_ref   1.315
_refine_ls_hydrogen_treatment    undef
_refine_ls_matrix_type           full
_refine_ls_number_parameters     10
_refine_ls_number_reflns         161
_refine_ls_number_restraints     0
_refine_ls_restrained_S_all      1.315
_refine_ls_R_factor_all          0.0544
_refine_ls_R_factor_gt           0.0544
_refine_ls_shift/su_max          0.111
_refine_ls_shift/su_mean         0.010
_refine_ls_structure_factor_coef Fsqd
_refine_ls_weighting_details
'w=1/[\s^2^(Fo^2^)+(0.0556P)^2^+19.8607P] where P=(Fo^2^+2Fc^2^)/3'
_refine_ls_weighting_scheme      calc
_refine_ls_wR_factor_gt          0.1666
_refine_ls_wR_factor_ref         0.1666
_reflns_Friedel_coverage         0.000
_reflns_number_gt                161
_reflns_number_total             161
_reflns_threshold_expression     'I > 2\s(I)'
_cod_data_source_file            c9dt00449a2.cif
_cod_data_source_block           EuSnP-p2
_cod_depositor_comments
;
The following automatic conversions were performed:

'_exptl_absorpt_correction_type' value 'None' changed to 'none'
according to
/home/data/users/saulius/crontab/automatic-downloads/rss-feeds/RSC/lib/dictionaries/cif_core.dic
dictionary named 'cif_core.dic' version 2.4.2 from 2011-04-26.

'_exptl_crystal_density_meas' value 'None' was changed to '?' - the
value is perceived as not measured.

Automatic conversion script
Id: cif_fix_values 4973 2017-02-22 13:04:09Z antanas 
;
_cod_original_cell_volume        153.92(5)
_cod_database_code               7049414
_shelx_space_group_comment
;
The symmetry employed for this shelxl refinement is uniquely defined
by the following loop, which should always be used as a source of
symmetry information in preference to the above space-group names.
They are only intended as comments.
;
_shelxl_version_number           2013-4
_shelx_res_file
;
TITL EuSnP-p2 in P4/nmm
CELL 0.71073   4.22290   4.22290   8.63140  90.0000  90.0000  90.0000
ZERR    2.00   0.00060   0.00060   0.00173   0.0000   0.0000   0.0000
LATT  1
SYMM 0.5-X, 0.5-Y, Z
SYMM 0.5-Y, X, Z
SYMM Y, 0.5-X, Z
SYMM -X, 0.5+Y, -Z
SYMM 0.5+X, -Y, -Z
SYMM 0.5+Y, 0.5+X, -Z
SYMM -Y, -X, -Z
SFAC P SN EU
UNIT 2 2 2

L.S. 10
ACTA

WGHT    0.055600   19.860699
EXTI    0.000000
FVAR       0.52854
MOLE   1
EU1   3    0.250000    0.250000    0.671270    10.12500    0.01404    0.01404 =
         0.00984    0.00000    0.00000    0.00000
SN2   2    0.250000    0.250000    0.051997    10.12500    0.02462    0.02462 =
         0.01110    0.00000    0.00000    0.00000
P3    1    0.250000    0.250000    0.336499    10.12500    0.00586    0.00586 =
         0.00532    0.00000    0.00000    0.00000
HKLF 4

REM  EuSnP-p2 in P4/nmm
REM R1 =  0.0544 for     161 Fo > 4sig(Fo)  and  0.0544 for all     161 data
REM     11 parameters refined using      0 restraints

END

WGHT      0.0556     19.8608

REM Highest difference peak  4.304,  deepest hole -4.470,  1-sigma level  0.851
Q1    1   0.2500  0.2500  0.8507  10.12500  0.05    4.30
Q2    1   0.4314  0.0686 -0.0948  10.50000  0.05    2.76
Q3    1   0.2500 -0.1313  0.4594  10.50000  0.05    2.71
Q4    1   0.2500 -0.0990  0.3445  10.50000  0.05    2.64
Q5    1   0.2500  0.2500 -0.0336  10.12500  0.05    2.49
Q6    1   0.4209  0.0791  0.7909  10.50000  0.05    2.45
Q7    1   0.4388  0.0612  0.4135  10.50000  0.05    2.34
Q8    1   0.5740  0.2500  0.8537  10.50000  0.05    2.30
Q9    1   0.5867  0.2500 -0.0287  10.50000  0.05    2.04
Q10   1   0.2500 -0.0385  0.2244  10.50000  0.05    1.92
Q11   1   0.4599  0.1165  0.6603  11.00000  0.05    1.83
Q12   1   0.2500  0.2500  0.7537  10.12500  0.05    1.83
Q13   1   0.4479  0.0521  0.2813  10.50000  0.05    1.77
Q14   1   0.4172  0.1459  0.5357  11.00000  0.05    1.58
Q15   1   0.4208 -0.0732  0.6603  11.00000  0.05    1.56
Q16   1   0.2500  0.2500  0.4636  10.12500  0.05    1.48
Q17   1   0.2500 -0.0585  0.5974  10.50000  0.05    1.48
Q18   1   0.4673  0.1214  0.0404  11.00000  0.05    1.47
Q19   1   0.3773  0.1227  0.1731  10.50000  0.05    1.41
Q20   1   0.5725  0.2500  0.7295  10.50000  0.05    1.40
;
_shelx_res_checksum              6597
_shelx_hkl_file
;
  -2   3   2  911.86    0.74
  -1   1  -1   99.35    1.81
   0   2   7  685.61    2.84
   0   1   5 3716.09    1.54
   0   1   3 1262.94    0.58
   0  -2  -3 4874.59    1.09
   1   0   8 1293.87    3.54
   1   0   6 1100.72    2.37
   1   0   5 3264.63    3.44
   1  -1   8 1596.35    3.31
   1  -1   5  896.74    2.42
   1  -1   4  237.28    2.01
   1  -1   3 6705.78    1.49
   1  -2   2 2763.39    6.13
   1  -2   1  595.91    1.41
   1  -3   0 4992.69    1.11
   2  -2   6  772.23    5.06
   2  -2   5  577.32    3.41
   2  -3   5 1902.64    4.76
  -2   3   1  304.36    1.17
  -2   3  -1  344.91    2.03
  -2   2  -3 3654.06    2.03
  -2   2  -4  173.93    2.69
  -2   2  -5  628.87    2.83
  -1   2   6  730.29    2.04
  -1   2   5 2501.38    1.22
  -1   2   4   19.18    0.86
  -1   1  -2   14.37    0.98
  -1   1  -3 6738.19    1.34
  -1   1  -4  238.20    2.25
  -1   0  -5 3700.22    2.53
  -1   0  -6  963.33    1.58
  -1  -1  -6 1277.77    3.00
  -1  -1  -7  936.70    3.09
  -1  -1  -8 1539.55    3.48
   0   1   6 1089.51    1.94
   0   0   8 1986.57    2.98
   0   0   7 1077.58    1.83
   0   0   6 1620.62    2.37
   0   0   5 1353.71    1.26
   0  -1   8  840.41    5.30
   0  -1  -3 1389.25    0.95
   0  -2  -4  206.08    1.31
   0  -3  -4   20.81    1.11
   0  -3  -5 1661.38    1.29
   1  -2   6  778.08    2.49
   1  -2   5 2591.40    1.91
   1  -2   3  823.30    1.83
   1  -3   6  735.52    4.63
   1  -3   5  528.87    3.58
   1  -3   4  139.16    2.87
   1  -3   3 3274.61    2.51
   1  -4   3  228.69    3.14
   1  -4   2  948.49    2.43
   1  -4   1  230.81    2.15
  -2   3  -2 1252.95    1.75
  -2   3  -3  375.02    2.49
  -2   2  -6  810.15    2.89
  -1   2   1  613.71    0.22
  -1   2  -1  625.78    0.75
  -1   2  -2 2945.72    1.16
  -1   2  -3  865.41    1.42
  -1   2  -5 2246.44    2.13
  -1   1   8 1608.24    3.34
  -1   1   7 1019.10    2.52
  -1   1   6 1341.17    1.30
  -1   1  -5 1041.84    1.60
  -1   1  -6 1483.08    1.81
  -1   1  -7 1041.78    2.44
  -1   1  -8 1695.08    3.20
  -1   0   8  865.44    3.34
  -1   0  -8  908.70    2.72
  -1  -1   8 1486.21    3.02
   0   0   3 9999.00    1.00
   0   0   2   17.31    0.49
   0   0  -2   16.98    0.70
   0  -1   6 1111.89    1.90
   0  -1   5 3863.33    1.68
   0  -1   3 1392.61    1.05
   0  -1  -5 3939.85    1.76
   0  -1  -6 1113.73    2.24
   0  -2   7  831.04    3.46
   0  -2   6 1285.64    2.00
   0  -2   5  916.00    1.72
   0  -2   4  200.33    2.62
   0  -2  -5  917.08    1.08
   0  -2  -6 1136.59    1.55
   0  -2  -7  730.19    2.14
   0  -2  -8 1266.99    2.43
   0  -3   6  592.09    3.33
   0  -3   5 1861.74    3.87
   0  -3  -6  540.92    1.52
  -2   2   6  835.10    2.38
  -1   3  -3 3157.67    2.13
  -1   3  -4  126.49    2.03
  -1   3  -5  535.93    2.74
  -1   3  -6 1086.80    3.83
  -1   1   4  233.73    1.20
  -1   0   6  963.70    2.78
  -1   0   5 3283.08    1.47
  -1  -1   7 1017.63    3.92
  -1  -1   6 1304.34    2.23
   0   1  -2 4049.22    1.12
   0   1  -3 1348.14    1.76
   0   1  -5 3390.09    1.64
   0   1  -6 1131.38    2.41
   0   1  -8  814.08    2.35
   0   0  -5 1197.32    1.22
   0   0  -6 1588.39    1.72
   0   0  -7 1133.22    1.82
   0   0  -8 1955.26    2.25
   0  -1   2 3600.21    1.11
   0  -1   1  880.00    0.53
   0  -1  -8  717.64    4.25
   0  -2   3 5526.57    1.21
   0  -3   3  598.71    1.78
   0  -3   2 1581.03    1.31
   0  -3   1  364.22    1.45
   0  -4   3 2109.06    2.88
  -1   4  -2  848.51    2.75
  -1   3   0 4916.90    1.05
  -1   1   3 5905.64    0.80
   0   3  -5 1736.72    3.72
   0   3  -6  450.10    4.18
   0   2  -3 5356.36    1.99
   0   2  -4  190.62    2.43
   0   2  -5  804.55    2.89
   0   2  -6 1115.63    2.43
   0   2  -7  798.62    3.05
   0   1  -1  777.79    0.78
   1   1  -7  935.26    3.81
   1   1  -8 1435.93    6.73
   1   0  -5 3123.21    2.29
   1   0  -6  986.08    2.65
   1   0  -8  578.54    2.95
   1  -1  -5  994.97    1.48
   1  -1  -6 1108.59    2.42
   1  -1  -7  965.41    4.90
   1  -1  -8 1617.67    3.84
   1  -2  -6  731.95    1.46
  -1   1  -1  103.01    1.01
   0  -2  -3 5235.73    0.44
  -2   3   1  262.37    0.64
  -2   3  -1  324.07    0.65
  -2   2  -3 3821.65    1.07
  -2   2  -4  152.32    0.95
  -2   2  -5  646.48    1.31
  -1   1  -3 6542.82    0.64
  -1   1  -4  206.66    0.69
  -1   0  -5 3471.54    1.01
  -1  -1  -6 1244.77    1.10
  -1  -1  -7  950.83    1.88
  -1  -1  -8 1777.65    1.80
  -1  -2  -8  608.31    1.60
   0  -1  -3 1375.63    0.30
   0  -2  -4  219.96    0.60
   0  -3  -5 1584.95    0.82
  -3   4  -2  488.80    1.39
  -3   4  -3  138.09    1.77
  -3   4  -5  558.75    1.84
  -3   4  -6  166.42    1.97
  -3   4  -8  192.95    2.17
  -2   3  -2 1247.85    1.02
  -2   3  -3  425.41    1.14
  -2   3  -5 1382.80    2.06
  -2   3  -6  404.27    1.30
  -2   2  -6  885.12    1.39
  -2   2  -7  663.59    1.69
  -2   2  -8 1192.93    2.14
  -2   2  -9  175.52    2.11
  -2   2 -10  489.80    2.05
  -2   1 -10  383.23    2.60
  -2   1 -13  525.74    2.86
  -1   2   1  593.51    0.17
  -1   2  -1  674.66    0.55
  -1   2  -2 2929.12    0.81
  -1   2  -3  898.63    0.78
  -1   1  -5 1018.84    1.65
  -1   1  -7 1047.05    1.08
  -1   1  -8 1766.92    1.73
  -1   1  -9  202.69    1.72
  -1   0  -7   82.52    1.20
  -1   0  -8  916.81    1.13
  -1   0  -9  132.54    1.46
  -1   0 -10  531.43    1.97
  -1  -1  -9  203.03    1.50
  -1  -1 -10  649.43    1.38
  -1  -1 -11  975.39    1.71
  -1  -2 -10  421.99    1.66
   0   0   2   15.92    0.41
   0   0   1   67.87    0.13
   0   0  -2   15.52    0.20
   0  -1  -4   11.07    0.43
   0  -1  -5 3559.60    0.46
   0  -1  -6 1217.72    0.79
   0  -2  -5  950.27    0.79
   0  -2  -6 1097.88    0.65
   0  -2  -7  812.79    1.09
   0  -2  -8 1605.48    1.42
   0  -3  -6  500.87    0.80
  -2   4  -2   19.52    1.22
  -2   4  -3 1519.41    1.23
  -2   4  -4   78.36    1.51
  -2   4  -5  316.22    1.53
  -2   4  -6  489.36    1.71
  -2   4  -7  307.86    1.52
  -2   4  -8  590.74    2.38
  -2   4 -10  286.85    2.39
  -2   4 -11  379.10    2.95
  -2   3 -10  296.43    2.04
  -2   3 -13  351.43    3.49
  -2   2 -12  150.44    3.48
  -1   3  -2   25.19    0.64
  -1   3  -3 3207.54    0.64
  -1   3  -4  149.02    1.43
  -1   3  -5  566.62    2.12
  -1   3  -6  828.43    1.34
  -1   3  -7  543.60    2.44
  -1   3  -8  907.59    1.80
  -1   3  -9  159.13    2.33
  -1   3 -10  469.46    2.99
  -1   3 -11  686.72    2.32
  -1   3 -12  140.02    3.18
  -1   2  -8  688.43    1.15
  -1   2  -9  123.07    1.94
  -1   2 -10  427.64    1.79
  -1   2 -13  456.56    3.04
  -1   1 -10  711.48    1.51
  -1   1 -11 1017.91    2.27
  -1   1 -12  185.85    2.13
  -1   1 -13  112.99    2.03
  -1   1 -14  224.02    3.09
  -1   1 -15  219.01    3.35
  -1   0 -13  626.65    2.16
  -1  -1 -14  187.73    3.11
   0   1  -3 1339.29    0.61
   0   1  -5 3445.07    0.97
   0   1  -6 1156.45    1.18
   0   1  -8  888.73    1.24
   0   1  -9  126.85    2.25
   0   1 -10  508.76    2.02
   0   0  -5 1258.73    0.56
   0   0  -6 1615.89    0.89
   0   0  -7 1169.60    0.92
   0   0  -8 1986.93    1.40
   0   0  -9  245.74    1.38
   0   0 -10  748.22    1.23
   0   0 -11 1127.67    1.58
   0   0 -12  144.62    1.80
   0   0 -13  127.36    2.03
   0  -1   1  733.47    0.32
   0  -1  -8  766.20    1.14
   0  -1  -9  135.57    1.18
   0  -1 -10  463.89    1.30
   0  -1 -13  577.32    2.30
   0  -2  -9  195.23    1.12
   0  -2 -10  587.15    1.31
   0  -2 -11  733.40    2.00
  -1   5  -5  209.29    2.71
  -1   5  -6  266.06    2.13
  -1   5  -7  158.51    2.34
  -1   5  -8  359.52    2.85
  -1   4  -2  835.57    1.16
  -1   4  -3  259.20    1.68
  -1   4  -5  983.08    2.14
  -1   4  -6  331.21    2.07
  -1   4  -8  319.29    2.55
  -1   4 -10  202.96    2.54
  -1   3   0 4640.39    0.53
   0   4  -8  727.26    2.95
   0   4  -9  125.78    2.75
   0   4 -10  309.58    3.14
   0   4 -11  474.80    3.91
   0   3  -5 1831.92    1.32
   0   3  -6  540.61    1.64
   0   3 -10  323.18    2.87
   0   3 -13  408.27    2.81
   0   2  -3 5281.72    0.90
   0   2  -4  179.30    0.98
   0   2  -5  824.86    0.97
   0   2  -6 1179.47    1.11
   0   2  -7  853.81    2.34
   0   2  -8 1547.76    1.67
   0   2 -10  624.65    2.07
   0   2 -11  948.03    2.44
   0   2 -12  150.50    3.04
   0   2 -13   89.14    2.36
   0   1  -1  732.31    0.26
   0   1 -13  653.22    4.09
   0   0 -14  189.02    2.52
   1   1  -7  990.91    2.75
   1   1  -8 1760.31    1.77
   1   1  -9  193.68    1.54
   1   1 -10  610.34    2.34
   1   1 -11  993.51    2.03
   1   1 -12  164.57    3.68
   1   1 -14  185.54    4.60
   1   0  -5 3436.20    0.83
   1   0  -6  953.40    0.78
   1   0  -8  950.19    1.46
   1   0  -9  133.19    1.54
   1   0 -10  498.31    2.33
   1   0 -13  586.12    2.62
   1  -1  -5  951.74    1.00
   1  -1  -6 1141.48    1.05
   1  -1  -7  939.13    1.93
   1  -1  -8 1777.53    1.21
   1  -1  -9  185.14    2.01
   1  -1 -10  618.76    3.95
   1  -1 -11  949.97    1.96
   1  -1 -12  129.00    1.98
   1  -2  -6  686.69    0.90
   1  -2  -8  641.69    1.01
   1  -2  -9  102.20    2.00
   1  -2 -10  349.82    1.78
  -2   3   2  960.26    0.31
  -1   3   9  129.22    1.93
  -1   3   8  934.87    1.54
   0   2  10  703.65    2.59
   0   2   9  172.35    2.17
   0   2   8 1470.29    1.65
   0   2   7  757.92    1.41
   0   1  10  423.26    2.52
   0   1   9  120.00    1.78
   0   1   5 3952.91    0.86
   0   1   3 1487.52    0.53
   0  -2  -3 4959.05    0.51
   1   0   9  163.51    3.59
   1   0   8  850.90    2.05
   1   0   6 1175.76    1.33
   1   0   5 3818.35    1.70
   1  -1   8 1745.64    2.00
   1  -1   5  944.77    1.14
   1  -1   4  234.43    0.78
   1  -1   3 7267.52    1.04
   1  -1   2   18.05    0.78
   1  -2   2 2743.09    3.45
   1  -2   1  580.55    0.62
  -1   2   8  680.92    1.09
  -3   4   1  139.03    0.72
  -2   3   8  363.60    1.29
  -2   3   6  257.21    0.67
  -2   3   1  344.48    0.55
  -2   3  -1  348.67    0.77
  -2   2  -3 3765.62    1.12
  -2   2  -4  145.50    1.20
  -2   2  -5  631.15    1.40
  -1   2  10  538.04    2.23
  -1   2   7   73.37    0.86
  -1   2   6  804.03    0.67
  -1   2   5 2717.13    0.65
  -1   1  10  686.72    2.79
  -1   1   9  189.96    2.10
  -1   1  -3 6534.50    0.87
  -1   1  -4  260.97    0.71
  -1   0  -5 3412.18    0.98
  -1   0  -6 1093.44    1.06
  -1  -1  -6 1138.56    1.47
   0   1   7   86.68    0.93
   0   1   6 1196.53    0.88
   0   0   9  209.06    2.09
   0   0   8 2166.67    1.45
   0   0   7 1189.09    2.03
   0   0   6 1625.03    0.82
   0   0   5 1427.59    0.68
   0  -1   8  846.36    2.32
   0  -1  -3 1394.92    0.29
   0  -2  -4  196.55    0.77
   1  -2   5 2331.45    1.75
   1  -2   3  730.05    0.68
  -3   4   5  425.92    0.63
  -3   4  -1  181.28    1.09
  -3   4  -2  575.88    1.04
  -3   4  -3  143.75    1.40
  -2   3   5 1380.81    0.45
  -2   3   4   21.97    0.27
  -2   3  -2  782.12    0.35
  -2   3  -3  408.67    1.21
  -2   3  -5 1464.74    1.56
  -2   3  -6  402.33    1.78
  -2   2   9  152.80    1.68
  -2   2   8 1168.50    1.17
  -2   2   7  636.35    0.97
  -2   2  -6  930.32    2.65
  -2   2  -7  577.93    1.40
  -1   2   1  610.76    0.17
  -1   2  -1  669.90    0.45
  -1   2  -2 2910.92    0.58
  -1   2  -5 2269.35    0.72
  -1   1   8 1793.67    1.69
  -1   1   7 1047.47    1.07
  -1   1   6 1470.54    1.04
  -1   1  -5 1101.02    0.98
  -1   1  -6 1416.63    0.93
  -1   1  -7 1011.11    1.56
  -1   0   9  151.34    1.80
  -1   0   8  819.97    1.68
  -1  -1   8 1681.27    2.03
   0  -1   6 1119.95    2.21
   0  -1   5 3778.48    1.03
   0  -1   3 1570.33    0.76
   0  -1  -5 3817.02    0.66
   0  -1  -6 1163.58    1.08
   0  -2   6 1181.10    1.46
   0  -2   5 1015.69    0.85
   0  -2   4  214.34    0.91
  -2   4   0 2490.40    0.66
  -2   4  -3 1650.50    1.53
  -2   4  -5  295.81    1.53
  -2   2   6  956.57    1.05
  -1   3  -2   20.50    0.67
  -1   3  -3 3434.27    1.27
  -1   3  -4  129.19    1.23
  -1   3  -5  536.67    1.84
  -1   3  -6  825.74    1.75
  -1   3  -7  516.22    1.63
  -1   1   4  234.90    0.53
  -1   0   6 1095.31    0.97
  -1   0   5 3583.18    1.19
  -1  -1   7  988.53    1.53
  -1  -1   6 1278.02    1.02
   0   1  -2 4028.70    0.45
   0   1  -3 1450.37    0.58
   0   1  -5 3722.09    0.76
   0   1  -6 1205.63    0.93
   0   1  -7   84.50    1.33
   0   0  -5 1298.40    0.78
   0   0  -6 1522.89    0.93
   0   0  -7 1053.21    1.26
   0  -1   2 4116.34    0.64
   0  -1   1  927.47    0.49
   0  -2   3 5775.93    1.05
  -2   5  -2  424.86    1.41
  -2   5  -3  173.40    1.55
  -1   4  -2  958.61    1.10
  -1   4  -3  283.47    1.21
  -1   4  -5  912.05    1.52
  -1   4  -6  291.91    2.00
  -1   3   0 5627.17    0.41
   0   3  -5 1819.27    1.18
   0   3  -6  551.92    1.84
   0   2  -3 4671.15    0.55
   0   2  -4  202.25    0.95
   0   2  -5  864.57    1.02
   0   2  -6 1219.77    1.11
   0   2  -7  803.17    1.17
   0   1  -1  839.19    0.31
   1   1  -7  917.76    1.70
   1   0  -5 3424.75    1.49
   1   0  -6  981.09    0.93
   1  -1  -5  939.08    0.77
  -1   1  -1   88.32    0.94
   0   1   5 2646.07    1.39
   0   1   3 1071.35    0.68
   0  -2  -3 4261.40    0.49
   1   0   7  111.35    2.59
   1   0   6  865.74    1.45
   1   0   5 3036.53    1.08
   1  -1   5  818.71    0.95
   1  -1   4  208.01    1.71
   1  -1   3 5419.06    0.69
   1  -2   2 2373.67    2.77
   1  -2   1  519.47    0.56
   1  -3   0 4472.31    0.60
   1  -5   0 1303.95    1.21
   2  -2   7  444.08    3.10
   2  -2   6  703.03    2.76
   2  -2   5  512.12    1.93
   2  -3   6  297.20    2.37
   2  -3   5 1071.22    2.16
   2  -4   5  222.11    2.47
   2  -4   3 1286.75    1.79
  -1   1  -3 5628.94    0.85
  -1   1  -4  194.73    0.79
  -1   0  -5 2834.75    1.33
  -1   0  -6  885.83    1.59
  -1  -1  -6 1083.32    1.59
  -1  -1  -7  683.36    1.36
  -1  -1  -8 1409.04    1.31
  -1  -2  -8  520.36    2.08
   0   0   7  740.68    1.85
   0   0   6 1122.23    1.01
   0   0   5  945.80    0.56
   0  -1  -3 1178.75    0.47
   0  -2  -4  174.46    0.47
   0  -3  -5 1351.45    0.57
   0  -4  -5  264.93    0.62
   1  -2   6  660.43    1.33
   1  -2   5 2104.41    1.37
   1  -2   3  654.20    0.81
   1  -3   7  398.36    2.58
   1  -3   6  645.65    2.10
   1  -3   5  492.45    1.71
   1  -3   4  117.35    1.22
   1  -3   3 2833.22    0.97
   1  -4   6  261.92    2.53
   1  -4   5  831.07    2.07
   1  -4   3  244.07    1.22
   1  -4   2  865.49    1.24
   1  -4   1  219.05    1.09
   1  -5   3  902.02    1.98
  -1   2   1  474.61    0.17
  -1   2  -1  509.41    0.58
  -1   2  -2 2221.12    0.71
  -1   2  -3  618.23    0.88
  -1   2  -5 1781.14    1.12
  -1   1  -5  790.80    0.67
  -1   1  -6 1102.78    1.56
  -1   1  -7  818.68    1.27
  -1   0  -8  682.93    1.54
  -1   0  -9  101.29    2.00
  -1  -1  -9  155.67    1.69
   0   0   4  241.31    0.98
   0   0   3 7701.68    0.49
   0   0   2   15.21    0.20
   0   0   1   60.55    0.25
   0   0  -2   14.12    0.36
   0   0  -3 8130.58    0.43
   0  -1   6  988.48    1.11
   0  -1   5 3174.99    0.82
   0  -1   4   13.24    0.80
   0  -1   3 1129.59    0.40
   0  -1  -5 2965.63    1.35
   0  -1  -6  938.95    0.65
   0  -2   7 1015.50    1.57
   0  -2   6 1068.01    1.52
   0  -2   5  709.77    1.42
   0  -2   4  161.17    0.80
   0  -2  -5  783.17    0.65
   0  -2  -6  970.75    0.63
   0  -2  -7  678.01    1.13
   0  -2  -8 1306.94    1.12
   0  -3   7   47.28    2.26
   0  -3   6  456.70    1.55
   0  -3   5 1520.80    1.16
   0  -3  -6  495.61    0.83
   0  -3  -7   56.51    0.92
   0  -4   6  479.59    2.33
   0  -4   5  325.98    1.61
   0  -4  -6  423.29    0.65
   0  -4  -7  265.33    0.92
   0  -5   3  175.72    1.86
   0  -5  -5  407.50    0.43
  -1   1   4  150.52    0.56
  -1   0   6  681.88    2.11
  -1   0   5 2940.21    0.90
  -1  -1   7 1150.89    1.60
  -1  -1   6  919.50    1.11
   0   1  -2 3149.13    0.36
   0   1  -3 1115.43    0.50
   0   1  -5 2889.63    1.43
   0   1  -6  909.18    1.02
   0   1  -8  632.59    1.46
   0   0  -5  973.81    0.62
   0   0  -6 1175.35    0.75
   0   0  -7  915.05    0.94
   0   0  -8 1442.53    1.11
   0   0  -9  165.57    2.31
   0  -1   2 3176.31    0.42
   0  -1   1  646.54    0.22
   0  -1  -8  631.65    1.08
   0  -1  -9  110.70    1.17
   0  -1 -10  356.09    1.45
   0  -2   3 4299.51    0.93
   0  -2  -9  151.81    1.62
   0  -2 -10  354.45    2.27
   0  -3   3  475.42    0.85
   0  -3   2 1406.46    0.92
   0  -3   1  324.77    0.77
   0  -4   3 1831.07    1.02
   0  -4  -8  488.15    0.89
  -1   1   3 5225.46    0.54
  -1   0   4   10.82    0.65
   0   2  -3 4291.75    1.03
   0   2  -4  145.71    1.23
   0   2  -5  595.05    0.92
   0   2  -6  840.58    1.59
   0   1  -1  614.37    0.38
   1   1  -7  770.00    2.39
   1   1  -8 1098.88    1.50
   1   0  -5 2689.44    1.24
   1   0  -6  792.26    1.01
   1   0  -8  662.29    1.49
   1   0  -9  105.11    1.93
   1  -1  -5  737.67    0.92
   1  -1  -6  866.77    1.08
   1  -1  -7  756.60    0.80
   1  -1  -8 1355.58    1.28
   1  -1  -9  136.00    1.65
   1  -1 -10  486.89    2.55
   1  -2  -6  564.74    1.00
   1  -2  -8  508.65    1.11
   1  -2 -10  278.08    2.23
   1  -3  -7  384.49    0.93
   1  -3  -8  711.68    1.06
   0   0   0    0.00    0.00
;
_shelx_hkl_checksum              21586
loop_
_space_group_symop_operation_xyz
'x, y, z'
'-x+1/2, -y+1/2, z'
'-y+1/2, x, z'
'y, -x+1/2, z'
'-x, y+1/2, -z'
'x+1/2, -y, -z'
'y+1/2, x+1/2, -z'
'-y, -x, -z'
'-x, -y, -z'
'x-1/2, y-1/2, -z'
'y-1/2, -x, -z'
'-y, x-1/2, -z'
'x, -y-1/2, z'
'-x-1/2, y, z'
'-y-1/2, -x-1/2, z'
'y, x, z'
loop_
_atom_site_label
_atom_site_type_symbol
_atom_site_fract_x
_atom_site_fract_y
_atom_site_fract_z
_atom_site_U_iso_or_equiv
_atom_site_adp_type
_atom_site_occupancy
_atom_site_site_symmetry_order
_atom_site_calc_flag
_atom_site_refinement_flags_posn
_atom_site_refinement_flags_adp
_atom_site_refinement_flags_occupancy
Eu1 Eu 0.2500 0.2500 0.6713(2) 0.0126(8) Uani 1 8 d S T P
Sn2 Sn 0.2500 0.2500 0.0520(3) 0.0201(9) Uani 1 8 d S T P
P3 P 0.2500 0.2500 0.3365(10) 0.0057(19) Uani 1 8 d S T P
loop_
_atom_site_aniso_label
_atom_site_aniso_U_11
_atom_site_aniso_U_22
_atom_site_aniso_U_33
_atom_site_aniso_U_23
_atom_site_aniso_U_13
_atom_site_aniso_U_12
Eu1 0.0140(10) 0.0140(10) 0.0098(7) 0.000 0.000 0.000
Sn2 0.0246(14) 0.0246(14) 0.0111(11) 0.000 0.000 0.000
P3 0.006(3) 0.006(3) 0.005(3) 0.000 0.000 0.000
loop_
_atom_type_symbol
_atom_type_description
_atom_type_scat_dispersion_real
_atom_type_scat_dispersion_imag
_atom_type_scat_source
P P 0.1023 0.0942 'International Tables Vol C Tables 4.2.6.8 and 6.1.1.4'
Sn Sn -0.6537 1.4246 'International Tables Vol C Tables 4.2.6.8 and 6.1.1.4'
Eu Eu -0.1578 3.6682 'International Tables Vol C Tables 4.2.6.8 and 6.1.1.4'
loop_
_geom_angle_atom_site_label_1
_geom_angle_atom_site_label_2
_geom_angle_atom_site_label_3
_geom_angle
_geom_angle_site_symmetry_1
_geom_angle_site_symmetry_3
P3 Eu1 P3 88.71(17) . 9_556
P3 Eu1 P3 88.71(17) . 9_666
P3 Eu1 P3 177.4(3) 9_556 9_666
P3 Eu1 P3 88.71(17) . 9_566
P3 Eu1 P3 89.971(8) 9_556 9_566
P3 Eu1 P3 89.971(8) 9_666 9_566
P3 Eu1 P3 88.71(17) . 9_656
P3 Eu1 P3 89.971(8) 9_556 9_656
P3 Eu1 P3 89.971(9) 9_666 9_656
P3 Eu1 P3 177.4(3) 9_566 9_656
P3 Eu1 Sn2 180.0 . 1_556
P3 Eu1 Sn2 91.29(17) 9_556 1_556
P3 Eu1 Sn2 91.29(17) 9_666 1_556
P3 Eu1 Sn2 91.29(17) 9_566 1_556
P3 Eu1 Sn2 91.29(17) 9_656 1_556
P3 Eu1 Sn2 128.66(4) . 9_666
P3 Eu1 Sn2 142.63(18) 9_556 9_666
P3 Eu1 Sn2 39.94(17) 9_666 9_666
P3 Eu1 Sn2 90.80(11) 9_566 9_666
P3 Eu1 Sn2 90.80(11) 9_656 9_666
Sn2 Eu1 Sn2 51.34(4) 1_556 9_666
P3 Eu1 Sn2 128.66(4) . 9_566
P3 Eu1 Sn2 90.80(11) 9_556 9_566
P3 Eu1 Sn2 90.80(11) 9_666 9_566
P3 Eu1 Sn2 39.94(17) 9_566 9_566
P3 Eu1 Sn2 142.63(18) 9_656 9_566
Sn2 Eu1 Sn2 51.34(4) 1_556 9_566
Sn2 Eu1 Sn2 67.03(4) 9_666 9_566
P3 Eu1 Sn2 128.66(4) . 9_656
P3 Eu1 Sn2 90.80(11) 9_556 9_656
P3 Eu1 Sn2 90.80(11) 9_666 9_656
P3 Eu1 Sn2 142.63(18) 9_566 9_656
P3 Eu1 Sn2 39.94(17) 9_656 9_656
Sn2 Eu1 Sn2 51.34(4) 1_556 9_656
Sn2 Eu1 Sn2 67.03(4) 9_666 9_656
Sn2 Eu1 Sn2 102.69(8) 9_566 9_656
P3 Eu1 Sn2 128.66(4) . 9_556
P3 Eu1 Sn2 39.94(17) 9_556 9_556
P3 Eu1 Sn2 142.63(18) 9_666 9_556
P3 Eu1 Sn2 90.80(11) 9_566 9_556
P3 Eu1 Sn2 90.80(11) 9_656 9_556
Sn2 Eu1 Sn2 51.34(4) 1_556 9_556
Sn2 Eu1 Sn2 102.69(8) 9_666 9_556
Sn2 Eu1 Sn2 67.03(4) 9_566 9_556
Sn2 Eu1 Sn2 67.03(4) 9_656 9_556
P3 Eu1 Eu1 45.28(4) . 9_556
P3 Eu1 Eu1 43.43(16) 9_556 9_556
P3 Eu1 Eu1 134.00(19) 9_666 9_556
P3 Eu1 Eu1 89.09(12) 9_566 9_556
P3 Eu1 Eu1 89.09(12) 9_656 9_556
Sn2 Eu1 Eu1 134.72(4) 1_556 9_556
Sn2 Eu1 Eu1 173.94(6) 9_666 9_556
Sn2 Eu1 Eu1 116.07(2) 9_566 9_556
Sn2 Eu1 Eu1 116.07(2) 9_656 9_556
Sn2 Eu1 Eu1 83.37(4) 9_556 9_556
P3 Eu1 Eu1 45.28(4) . 9_656
P3 Eu1 Eu1 89.09(12) 9_556 9_656
P3 Eu1 Eu1 89.09(12) 9_666 9_656
P3 Eu1 Eu1 134.00(19) 9_566 9_656
P3 Eu1 Eu1 43.43(16) 9_656 9_656
Sn2 Eu1 Eu1 134.72(4) 1_556 9_656
Sn2 Eu1 Eu1 116.07(2) 9_666 9_656
Sn2 Eu1 Eu1 173.94(6) 9_566 9_656
Sn2 Eu1 Eu1 83.37(4) 9_656 9_656
Sn2 Eu1 Eu1 116.07(2) 9_556 9_656
Eu1 Eu1 Eu1 60.33(4) 9_556 9_656
P3 Sn2 Sn2 106.73(9) . 9
P3 Sn2 Sn2 106.73(9) . 9_665
Sn2 Sn2 Sn2 146.54(18) 9 9_665
P3 Sn2 Sn2 106.73(9) . 9_565
Sn2 Sn2 Sn2 85.25(5) 9 9_565
Sn2 Sn2 Sn2 85.25(5) 9_665 9_565
P3 Sn2 Sn2 106.73(9) . 9_655
Sn2 Sn2 Sn2 85.25(5) 9 9_655
Sn2 Sn2 Sn2 85.25(5) 9_665 9_655
Sn2 Sn2 Sn2 146.54(18) 9_565 9_655
P3 Sn2 Eu1 180.0 . 1_554
Sn2 Sn2 Eu1 73.27(9) 9 1_554
Sn2 Sn2 Eu1 73.27(9) 9_665 1_554
Sn2 Sn2 Eu1 73.27(9) 9_565 1_554
Sn2 Sn2 Eu1 73.27(9) 9_655 1_554
P3 Sn2 Eu1 51.34(4) . 9_666
Sn2 Sn2 Eu1 158.07(12) 9 9_666
Sn2 Sn2 Eu1 55.39(6) 9_665 9_666
Sn2 Sn2 Eu1 100.36(5) 9_565 9_666
Sn2 Sn2 Eu1 100.36(5) 9_655 9_666
Eu1 Sn2 Eu1 128.66(4) 1_554 9_666
P3 Sn2 Eu1 51.34(4) . 9_656
Sn2 Sn2 Eu1 100.36(5) 9 9_656
Sn2 Sn2 Eu1 100.36(5) 9_665 9_656
Sn2 Sn2 Eu1 158.07(12) 9_565 9_656
Sn2 Sn2 Eu1 55.39(6) 9_655 9_656
Eu1 Sn2 Eu1 128.66(4) 1_554 9_656
Eu1 Sn2 Eu1 67.03(4) 9_666 9_656
P3 Sn2 Eu1 51.34(4) . 9_566
Sn2 Sn2 Eu1 100.36(5) 9 9_566
Sn2 Sn2 Eu1 100.36(5) 9_665 9_566
Sn2 Sn2 Eu1 55.39(6) 9_565 9_566
Sn2 Sn2 Eu1 158.07(12) 9_655 9_566
Eu1 Sn2 Eu1 128.66(4) 1_554 9_566
Eu1 Sn2 Eu1 67.03(4) 9_666 9_566
Eu1 Sn2 Eu1 102.69(7) 9_656 9_566
P3 Sn2 Eu1 51.34(4) . 9_556
Sn2 Sn2 Eu1 55.39(6) 9 9_556
Sn2 Sn2 Eu1 158.07(12) 9_665 9_556
Sn2 Sn2 Eu1 100.36(5) 9_565 9_556
Sn2 Sn2 Eu1 100.36(5) 9_655 9_556
Eu1 Sn2 Eu1 128.66(4) 1_554 9_556
Eu1 Sn2 Eu1 102.69(7) 9_666 9_556
Eu1 Sn2 Eu1 67.03(4) 9_656 9_556
Eu1 Sn2 Eu1 67.03(4) 9_566 9_556
Sn2 P3 Eu1 180.0 . .
Sn2 P3 Eu1 88.71(17) . 9_556
Eu1 P3 Eu1 91.29(17) . 9_556
Sn2 P3 Eu1 88.71(17) . 9_666
Eu1 P3 Eu1 91.29(17) . 9_666
Eu1 P3 Eu1 177.4(3) 9_556 9_666
Sn2 P3 Eu1 88.71(17) . 9_656
Eu1 P3 Eu1 91.29(17) . 9_656
Eu1 P3 Eu1 89.971(8) 9_556 9_656
Eu1 P3 Eu1 89.971(8) 9_666 9_656
Sn2 P3 Eu1 88.71(17) . 9_566
Eu1 P3 Eu1 91.29(17) . 9_566
Eu1 P3 Eu1 89.971(8) 9_556 9_566
Eu1 P3 Eu1 89.971(8) 9_666 9_566
Eu1 P3 Eu1 177.4(3) 9_656 9_566
loop_
_geom_bond_atom_site_label_1
_geom_bond_atom_site_label_2
_geom_bond_distance
_geom_bond_site_symmetry_2
Eu1 P3 2.890(8) .
Eu1 P3 2.9868(5) 9_556
Eu1 P3 2.9868(5) 9_666
Eu1 P3 2.9868(5) 9_566
Eu1 P3 2.9868(5) 9_656
Eu1 Sn2 3.286(3) 1_556
Eu1 Sn2 3.824(2) 9_666
Eu1 Sn2 3.824(2) 9_566
Eu1 Sn2 3.824(2) 9_656
Eu1 Sn2 3.824(2) 9_556
Eu1 Eu1 4.202(3) 9_556
Eu1 Eu1 4.202(3) 9_656
Sn2 P3 2.456(9) .
Sn2 Sn2 3.1180(15) 9
Sn2 Sn2 3.1180(15) 9_665
Sn2 Sn2 3.1180(15) 9_565
Sn2 Sn2 3.1180(15) 9_655
Sn2 Eu1 3.286(3) 1_554
Sn2 Eu1 3.824(2) 9_666
Sn2 Eu1 3.824(2) 9_656
Sn2 Eu1 3.824(2) 9_566
Sn2 Eu1 3.824(2) 9_556
P3 Eu1 2.9868(5) 9_556
P3 Eu1 2.9868(5) 9_666
P3 Eu1 2.9868(5) 9_656
P3 Eu1 2.9868(5) 9_566
