#------------------------------------------------------------------------------
#$Date: 2019-03-23 02:14:02 +0200 (Sat, 23 Mar 2019) $
#$Revision: 214296 $
#$URL: file:///home/coder/svn-repositories/cod/cif/7/04/94/7049413.cif $
#------------------------------------------------------------------------------
#
# This file is available in the Crystallography Open Database (COD),
# http://www.crystallography.net/
#
# All data on this site have been placed in the public domain by the
# contributors.
#
data_7049413
loop_
_publ_author_name
'Gui, Xin'
'Finkelstein, Gregory'
'Graf, David'
'Wei, Kaya'
'Zhang, Dongzhou'
'Baumbach, Ryan'
'Dera, Przemslaw'
'Xie, Weiwei'
_publ_section_title
;
 Enhanced N\'eel Temperature in EuSnP under Pressure
;
_journal_name_full               'Dalton Transactions'
_journal_paper_doi               10.1039/C9DT00449A
_journal_year                    2019
_chemical_formula_sum            'Eu P Sn'
_chemical_formula_weight         301.62
_chemical_name_systematic
;
 ?
;
_space_group_crystal_system      tetragonal
_space_group_IT_number           129
_space_group_name_Hall           '-P 4a 2a'
_space_group_name_H-M_alt        'P 4/n m m'
_symmetry_space_group_name_Hall  '-P 4a 2a'
_symmetry_space_group_name_H-M   'P 4/n m m :2'
_audit_creation_method           SHELXL-2013
_cell_angle_alpha                90
_cell_angle_beta                 90
_cell_angle_gamma                90
_cell_formula_units_Z            2
_cell_length_a                   4.1239(6)
_cell_length_b                   4.1239(6)
_cell_length_c                   8.4590(17)
_cell_measurement_reflns_used    302
_cell_measurement_temperature    293(2)
_cell_measurement_theta_max      37.798
_cell_measurement_theta_min      4.820
_cell_volume                     143.86(4)
_computing_cell_refinement       GSE_ADA/RSV
_computing_data_collection       GSE_ADA/RSV
_computing_data_reduction        GSE_ADA/RSV
_computing_molecular_graphics    GSE_ADA/RSV
_computing_publication_material  GSE_ADA/RSV
_computing_structure_refinement  'SHELXL-2013 (Sheldrick, 2013)'
_computing_structure_solution    'SHELXS-97 (Sheldrick 2008)'
_diffrn_ambient_temperature      293(2)
_diffrn_measured_fraction_theta_full 0.515
_diffrn_measured_fraction_theta_max 0.287
_diffrn_measurement_device_type  'synchrotron x-ray CCD'
_diffrn_measurement_method       '\f and \w scans'
_diffrn_radiation_type           synchrotron
_diffrn_radiation_wavelength     0.4335
_diffrn_reflns_av_R_equivalents  0.0789
_diffrn_reflns_av_unetI/netI     0.0293
_diffrn_reflns_Laue_measured_fraction_full 0.515
_diffrn_reflns_Laue_measured_fraction_max 0.287
_diffrn_reflns_limit_h_max       2
_diffrn_reflns_limit_h_min       -1
_diffrn_reflns_limit_k_max       3
_diffrn_reflns_limit_k_min       -4
_diffrn_reflns_limit_l_max       14
_diffrn_reflns_limit_l_min       -9
_diffrn_reflns_number            302
_diffrn_reflns_point_group_measured_fraction_full 0.515
_diffrn_reflns_point_group_measured_fraction_max 0.287
_diffrn_reflns_theta_full        25.242
_diffrn_reflns_theta_max         37.798
_diffrn_reflns_theta_min         4.820
_exptl_absorpt_coefficient_mu    8.250
_exptl_absorpt_correction_type   none
_exptl_absorpt_process_details   None
_exptl_crystal_colour            Metallic
_exptl_crystal_density_diffrn    6.963
_exptl_crystal_density_meas      ?
_exptl_crystal_density_method    'Not measured'
_exptl_crystal_description       Plate
_exptl_crystal_F_000             256
_exptl_crystal_size_max          0.025
_exptl_crystal_size_mid          0.020
_exptl_crystal_size_min          0.015
_exptl_transmission_factor_max   0.7434
_exptl_transmission_factor_min   0.3457
_refine_diff_density_max         1.181
_refine_diff_density_min         -0.831
_refine_diff_density_rms         0.305
_refine_ls_extinction_coef       None
_refine_ls_extinction_expression Fc^*^=kFc[1+0.001xFc^2^\l^3^/sin(2\q)]^-1/4^
_refine_ls_extinction_method     SHELXL
_refine_ls_goodness_of_fit_ref   1.348
_refine_ls_hydrogen_treatment    undef
_refine_ls_matrix_type           full
_refine_ls_number_parameters     10
_refine_ls_number_reflns         77
_refine_ls_number_restraints     0
_refine_ls_restrained_S_all      1.348
_refine_ls_R_factor_all          0.0264
_refine_ls_R_factor_gt           0.0264
_refine_ls_shift/su_max          0.000
_refine_ls_shift/su_mean         0.000
_refine_ls_structure_factor_coef Fsqd
_refine_ls_weighting_details
'w=1/[\s^2^(Fo^2^)+(0.0289P)^2^+2.5984P] where P=(Fo^2^+2Fc^2^)/3'
_refine_ls_weighting_scheme      calc
_refine_ls_wR_factor_gt          0.0699
_refine_ls_wR_factor_ref         0.0699
_reflns_Friedel_coverage         0.000
_reflns_number_gt                77
_reflns_number_total             77
_reflns_threshold_expression     'I > 2\s(I)'
_cod_data_source_file            c9dt00449a3.cif
_cod_data_source_block           EuSnP-p3
_cod_depositor_comments
;
The following automatic conversions were performed:

'_exptl_absorpt_correction_type' value 'None' changed to 'none'
according to
/home/data/users/saulius/crontab/automatic-downloads/rss-feeds/RSC/lib/dictionaries/cif_core.dic
dictionary named 'cif_core.dic' version 2.4.2 from 2011-04-26.

'_exptl_crystal_density_meas' value 'None' was changed to '?' - the
value is perceived as not measured.

Automatic conversion script
Id: cif_fix_values 4973 2017-02-22 13:04:09Z antanas 
;
_cod_original_cell_volume        143.86(5)
_cod_database_code               7049413
_shelx_space_group_comment
;
The symmetry employed for this shelxl refinement is uniquely defined
by the following loop, which should always be used as a source of
symmetry information in preference to the above space-group names.
They are only intended as comments.
;
_shelxl_version_number           2013-4
_shelx_res_file
;
TITL EuSnP-p3 in P4/nmm
CELL 0.71073   4.12390   4.12390   8.45900  90.0000  90.0000  90.0000
ZERR    2.00   0.00058   0.00058   0.00169   0.0000   0.0000   0.0000
LATT  1
SYMM 0.5-X, 0.5-Y, Z
SYMM 0.5-Y, X, Z
SYMM Y, 0.5-X, Z
SYMM -X, 0.5+Y, -Z
SYMM 0.5+X, -Y, -Z
SYMM 0.5+Y, 0.5+X, -Z
SYMM -Y, -X, -Z
SFAC P SN EU
UNIT 2 2 2

L.S. 10
ACTA

WGHT    0.028900    2.598400
EXTI    0.001260
FVAR       0.59038
MOLE   1
EU1   3    0.250000    0.250000    0.673620    10.12500    0.01092    0.01092 =
         0.00989    0.00000    0.00000    0.00000
SN2   2    0.250000    0.250000    0.051598    10.12500    0.02081    0.02081 =
         0.01180    0.00000    0.00000    0.00000
P3    1    0.250000    0.250000    0.339522    10.12500    0.00968    0.00968 =
         0.00936    0.00000    0.00000    0.00000
HKLF 4

REM  EuSnP-p3 in P4/nmm
REM R1 =  0.0264 for      77 Fo > 4sig(Fo)  and  0.0264 for all      77 data
REM     11 parameters refined using      0 restraints

END

WGHT      0.0289      2.5970

REM Highest difference peak  1.181,  deepest hole -0.831,  1-sigma level  0.305
Q1    1   0.2500  0.1212  0.8513  10.50000  0.05    1.18
Q2    1   0.2500  0.2500  0.1443  10.12500  0.05    1.14
Q3    1   0.5204  0.1048  0.3266  11.00000  0.05    0.77
Q4    1   0.2500  0.2500  0.4463  10.12500  0.05    0.75
Q5    1   0.2500  0.1358  0.4765  10.50000  0.05    0.73
Q6    1   0.4959 -0.0683  0.0765  11.00000  0.05    0.66
Q7    1  -0.2500  0.2500  0.4593  10.25000  0.05    0.55
Q8    1   0.4852  0.0148  0.7229  10.50000  0.05    0.53
Q9    1   0.2500  0.1121  0.2342  10.50000  0.05    0.48
Q10   1   0.4715  0.1078 -0.0235  11.00000  0.05    0.33
Q11   1   0.2500  0.2500  0.7339  10.12500  0.05    0.29
Q12   1   0.4097  0.0903  0.1059  10.50000  0.05    0.23
Q13   1   0.4167  0.2500  0.6460  10.50000  0.05    0.17
Q14   1   0.5389  0.0954  0.5746  11.00000  0.05    0.16
Q15   1   0.2500  0.0319  0.0216  10.50000  0.05    0.03
;
_shelx_res_checksum              42040
_shelx_hkl_file
;
   0  -1  -4   27.40    0.93
   1   0  -7  135.17    2.26
   1   0  -6 1992.36    3.19
   1   0  -5 3890.96    2.66
   1   1  -8 2227.18    5.45
   1   1  -6 1498.04    2.60
   1   1  -5 1457.59    1.42
   1   1  -4  169.04    1.48
   1   1  -3 8432.97    1.21
   1   2  -2 3055.61    1.64
   2   2  -6  932.64    3.67
  -1  -2  -1  633.21    0.26
   0  -1  -6 2037.44    1.49
   0  -1  -5 3922.50    1.36
   0   0  -8 2472.39    2.89
   0   0  -7  861.77    2.38
   0   0  -6 1508.23    3.11
   0   0  -5 1723.82    1.45
   0   1  -8  889.69    3.53
   0   1   3 2045.03    0.52
   1   2  -6 1314.10    2.29
   1   2  -5 2770.21    1.68
   1   2  -3 1314.80    1.85
   1   3  -6  918.39    2.87
   1   3  -5  760.99    3.33
   1   3  -3 4111.79    2.11
  -1  -2  -3 1251.81    0.40
  -1  -2   1  786.56    0.59
  -1  -2   2 3012.35    0.94
  -1  -2   3 1235.37    1.26
  -1  -2   5 2675.19    2.09
   0   0  -4  230.47    1.10
   0   0  -3 9999.00    0.61
   0   1  -7  132.88    2.21
   0   1  -6 1709.13    1.88
   0   1  -5 4473.89    1.64
   0   1  -3 2027.52    1.30
   0   1   5 4153.07    1.08
   0   1   6 1847.90    1.43
  -1  -3   3 4026.25    1.62
  -1  -3   5  756.17    2.33
   0  -1   2 4126.63    0.63
   0  -1   3 1868.20    0.73
   0  -1   5 3825.61    2.54
   0  -1   6 1709.83    2.14
   0  -1   7  151.12    2.08
   0  -1   8  775.43    2.58
   0   0   5 1540.80    6.18
   0   0   6 1723.34    1.97
   0   0   7 1151.99    1.49
   0   0   8 2782.80    2.69
   0   1  -2 4735.87    0.89
   0   1   7  134.75    2.95
   0   1   8  720.63    2.83
   0  -3   5 1517.35    2.44
   0  -3   6  763.93    4.06
   0  -2   3 5820.61    2.05
   0  -2   5  920.93    1.42
   0  -2   6 1168.92    2.78
   0  -2   7  764.64    4.05
   1  -1   7  800.85    3.09
   1  -1   8 1773.92    4.08
   1   0   6 1571.07    2.68
   1   0   8  617.94    2.31
   1   1   7  857.72    2.56
   1   1   8 1824.16    2.89
  -1  -2  -1  563.77    0.19
   0   1   3 2215.79    0.48
  -1  -2   1  769.15    0.43
  -1  -2   2 3142.39    0.60
  -1  -2   3 1296.46    0.67
  -1  -2   5 2914.73    1.20
   0   1   5 4020.91    0.47
   0   1   6 1859.71    0.74
  -1  -3   3 3772.38    0.65
  -1  -3   4  116.64    1.08
  -1  -3   5  779.59    1.34
  -1  -3   6  942.28    1.62
  -1  -3   7  495.49    1.33
  -1  -3   8 1372.91    1.74
  -1  -3   9  163.10    2.46
  -1  -2   7  136.88    1.41
   0  -1   2 4342.16    0.32
   0  -1   3 1764.17    0.67
   0  -1   5 3663.65    0.94
   0  -1   6 1843.20    1.09
   0  -1   7  147.87    1.35
   0  -1   8  851.91    1.43
   0  -1   9  381.46    1.21
   0  -1  10  724.12    1.54
   0   0   5 1626.48    0.51
   0   0   6 1722.38    0.67
   0   0   7 1170.02    0.99
   0   0   8 2800.98    0.87
   0   0   9  218.04    0.92
   0   0  10  687.98    1.21
   0   0  11 1279.12    4.63
   0   1   7  127.98    1.59
   0   1   8  749.91    1.17
  -1  -4   6  519.22    1.51
  -1  -4   8  343.75    2.50
   0  -4   8  897.88    2.74
   0  -4   9  115.80    2.56
   0  -4  10  283.09    2.96
   0  -4  11  547.72    2.70
   0  -3   5 1766.81    1.05
   0  -3   6  831.21    1.43
   0  -3   7  114.28    1.33
   0  -3   8  451.26    2.20
   0  -3   9  210.73    2.35
   0  -3  10  451.22    1.85
   0  -3  13  519.97    2.50
   0  -2   3 5565.92    0.77
   0  -2   4  154.37    0.76
   0  -2   5 1061.03    1.12
   0  -2   6 1263.09    0.95
   0  -2   7  773.81    1.45
   0  -2   8 1925.97    1.71
   0  -2  10  546.13    2.50
   0  -2  11 1105.75    1.60
   0  -2  12  109.08    1.87
   0  -2  14  246.57    2.79
   1  -1   7  897.45    1.47
   1  -1   8 2137.21    1.77
   1  -1  10  601.89    1.96
   1  -1  11 1217.00    1.42
   1  -1  12  132.86    1.84
   1   0   6 1549.75    1.18
   1   0   8  700.57    2.10
   1   0   9  325.97    1.44
   1   0  10  467.09    1.42
   1   0  13  766.64    3.24
   1   1   7  896.34    1.09
   1   1   8 2146.32    1.53
   1   1   9  171.14    1.14
   0  -1  -9  296.27    1.53
   1   0  -8  841.62    2.33
   1   0  -7  150.20    1.23
   1   0  -6 1796.36    0.94
   1   0  -5 3888.76    0.76
   1   1  -6 1451.21    0.95
   1   1  -5 1417.41    0.79
   1   1  -4  186.67    1.33
   1   2  -2 3050.08    0.49
  -1  -2  -1  653.15    0.16
   0  -1  -7  157.51    0.96
   0  -1  -6 2110.95    0.70
   0  -1  -5 4299.45    0.84
   0   0  -9  220.62    1.76
   0   0  -8 2897.01    1.28
   0   0  -7 1103.78    1.05
   0   0  -5 1804.67    0.65
   0   1  -8  885.13    1.12
   0   1   3 2226.61    0.26
   1   2  -5 2673.41    1.06
   1   2  -3 1159.01    0.93
  -1  -2  -3 1301.79    0.23
  -1  -2   1  824.47    0.46
  -1  -2   2 3010.47    0.38
  -1  -2   3 1321.60    0.62
  -1  -2   5 2874.90    0.78
   0   0  -4  256.19    0.55
   0   0  -2   31.75    0.26
   0   0   2   32.24    0.47
   0   1  -7  165.50    1.38
   0   1  -6 1726.64    0.88
   0   1  -5 4057.68    1.01
   0   1  -4   35.45    0.47
   0   1  -3 1919.16    0.36
   0   1   4   31.67    0.54
   0   1   5 3940.41    0.52
   0   1   6 1742.75    0.93
  -1  -3   2   31.63    0.57
  -1  -3   3 3990.83    0.79
  -1  -3   4  115.99    1.28
  -1  -3   5  713.99    0.90
  -1  -3   6  844.57    1.65
  -1  -2   7  133.05    1.63
   0  -1   2 4406.18    0.36
   0  -1   3 1975.88    0.44
   0  -1   5 3637.23    0.77
   0  -1   6 1705.90    1.59
   0   0   5 1754.35    0.55
   0   0   6 1665.88    1.36
   0   0   7  996.93    1.01
   0   1  -2 4963.34    0.50
   0  -3   5 1834.30    1.52
   0  -3   6  829.52    2.16
   0  -2   3 5735.34    0.72
   0  -2   4  176.96    1.34
   0  -2   5  993.91    1.12
   0  -2   6 1165.53    1.50
   0  -2   7  728.61    1.53
   1  -1   7  767.35    1.24
   1   0   6 1329.57    1.26
   1   0  -6 1407.54    1.03
   1   0  -5 3198.56    0.86
   1   1  -6 1342.61    1.15
   1   1  -5 1250.69    0.85
   1   1  -4  183.22    1.03
   1   1  -3 7220.38    0.63
   1   2  -2 2650.61    0.52
   2   2  -6  931.80    1.49
   2   3  -6  630.67    1.78
   2   3  -5 1185.12    1.40
   0  -1  -5 2998.06    1.23
   0   0  -6 1282.56    1.36
   0   0  -5 1399.32    0.58
   0   1   3 1805.49    0.42
   1   2  -7  109.41    1.51
   1   2  -6 1164.76    1.98
   1   2  -5 2497.78    0.96
   1   2  -3 1160.34    0.66
   1   3  -6  837.92    1.40
   1   3  -5  656.05    1.19
   1   3  -4  105.54    1.51
   1   3  -3 3620.46    1.15
  -1  -2   1  671.70    0.78
  -1  -2   2 2513.92    0.72
  -1  -2   3  963.97    0.90
  -1  -2   5 2462.91    1.63
   0   0  -4  213.98    1.39
   0   0  -2   27.65    0.62
   0   0   2   29.14    0.21
   0   1  -7  124.87    1.48
   0   1  -6 1551.63    0.84
   0   1  -5 3559.76    0.69
   0   1  -3 1733.86    0.46
   0   1   4   27.99    0.45
   0   1   5 3508.69    0.39
   0   1   6 1629.24    0.96
   0  -1   2 3693.90    0.29
   0  -1   3 1678.35    0.46
   0  -1   5 3228.00    0.71
   0  -1   6 1466.17    0.97
   0  -1   7  123.09    1.11
   0  -1   8  632.88    1.69
   0   0   5 1347.08    0.46
   0   0   6 1570.96    0.69
   0   0   7  916.66    1.10
   0   0   8 2456.71    1.25
   0   0   9  134.92    2.68
   0   1  -2 4260.61    0.37
   0   1   7  103.25    0.73
   0   1   8  678.86    0.76
   0  -2   3 4684.01    0.68
   0  -2   4  134.00    1.43
   0  -2   5  846.41    1.67
   0  -2   6 1576.78    1.29
   1  -1   7  696.89    1.38
   1  -1   8 1547.60    2.08
   1   0   6 1412.34    0.93
   1   0   7  115.27    1.40
   1   0   8  580.04    1.27
   1   0   9  254.95    1.15
   1   1   7  703.40    1.08
   1   1   8 1782.45    1.03
   1   1   9  140.77    1.44
   0   0   0    0.00    0.00
;
_shelx_hkl_checksum              49833
loop_
_space_group_symop_operation_xyz
'x, y, z'
'-x+1/2, -y+1/2, z'
'-y+1/2, x, z'
'y, -x+1/2, z'
'-x, y+1/2, -z'
'x+1/2, -y, -z'
'y+1/2, x+1/2, -z'
'-y, -x, -z'
'-x, -y, -z'
'x-1/2, y-1/2, -z'
'y-1/2, -x, -z'
'-y, x-1/2, -z'
'x, -y-1/2, z'
'-x-1/2, y, z'
'-y-1/2, -x-1/2, z'
'y, x, z'
loop_
_atom_site_label
_atom_site_type_symbol
_atom_site_fract_x
_atom_site_fract_y
_atom_site_fract_z
_atom_site_U_iso_or_equiv
_atom_site_adp_type
_atom_site_occupancy
_atom_site_site_symmetry_order
_atom_site_calc_flag
_atom_site_refinement_flags_posn
_atom_site_refinement_flags_adp
_atom_site_refinement_flags_occupancy
Eu1 Eu 0.2500 0.2500 0.67362(14) 0.0106(6) Uani 1 8 d S T P
Sn2 Sn 0.2500 0.2500 0.05160(19) 0.0178(7) Uani 1 8 d S T P
P3 P 0.2500 0.2500 0.3395(6) 0.010(2) Uani 1 8 d S T P
loop_
_atom_site_aniso_label
_atom_site_aniso_U_11
_atom_site_aniso_U_22
_atom_site_aniso_U_33
_atom_site_aniso_U_23
_atom_site_aniso_U_13
_atom_site_aniso_U_12
Eu1 0.0109(9) 0.0109(9) 0.0099(4) 0.000 0.000 0.000
Sn2 0.0208(11) 0.0208(11) 0.0118(6) 0.000 0.000 0.000
P3 0.010(4) 0.010(4) 0.009(2) 0.000 0.000 0.000
loop_
_atom_type_symbol
_atom_type_description
_atom_type_scat_dispersion_real
_atom_type_scat_dispersion_imag
_atom_type_scat_source
P P 0.1023 0.0942 'International Tables Vol C Tables 4.2.6.8 and 6.1.1.4'
Sn Sn -0.6537 1.4246 'International Tables Vol C Tables 4.2.6.8 and 6.1.1.4'
Eu Eu -0.1578 3.6682 'International Tables Vol C Tables 4.2.6.8 and 6.1.1.4'
loop_
_geom_angle_atom_site_label_1
_geom_angle_atom_site_label_2
_geom_angle_atom_site_label_3
_geom_angle
_geom_angle_site_symmetry_1
_geom_angle_site_symmetry_3
P3 Eu1 P3 87.82(11) . 9_556
P3 Eu1 P3 87.82(11) . 9_666
P3 Eu1 P3 175.6(2) 9_556 9_666
P3 Eu1 P3 87.82(11) . 9_566
P3 Eu1 P3 89.917(9) 9_556 9_566
P3 Eu1 P3 89.917(9) 9_666 9_566
P3 Eu1 P3 87.82(11) . 9_656
P3 Eu1 P3 89.917(9) 9_556 9_656
P3 Eu1 P3 89.917(9) 9_666 9_656
P3 Eu1 P3 175.6(2) 9_566 9_656
P3 Eu1 Sn2 180.0 . 1_556
P3 Eu1 Sn2 92.18(11) 9_556 1_556
P3 Eu1 Sn2 92.18(11) 9_666 1_556
P3 Eu1 Sn2 92.18(11) 9_566 1_556
P3 Eu1 Sn2 92.18(11) 9_656 1_556
P3 Eu1 Sn2 128.56(3) . 9_666
P3 Eu1 Sn2 143.62(12) 9_556 9_666
P3 Eu1 Sn2 40.74(11) 9_666 9_666
P3 Eu1 Sn2 91.36(7) 9_566 9_666
P3 Eu1 Sn2 91.36(7) 9_656 9_666
Sn2 Eu1 Sn2 51.44(3) 1_556 9_666
P3 Eu1 Sn2 128.56(3) . 9_566
P3 Eu1 Sn2 91.36(7) 9_556 9_566
P3 Eu1 Sn2 91.36(7) 9_666 9_566
P3 Eu1 Sn2 40.74(11) 9_566 9_566
P3 Eu1 Sn2 143.62(12) 9_656 9_566
Sn2 Eu1 Sn2 51.44(3) 1_556 9_566
Sn2 Eu1 Sn2 67.14(3) 9_666 9_566
P3 Eu1 Sn2 128.56(3) . 9_656
P3 Eu1 Sn2 91.36(7) 9_556 9_656
P3 Eu1 Sn2 91.36(7) 9_666 9_656
P3 Eu1 Sn2 143.62(12) 9_566 9_656
P3 Eu1 Sn2 40.74(11) 9_656 9_656
Sn2 Eu1 Sn2 51.44(3) 1_556 9_656
Sn2 Eu1 Sn2 67.14(3) 9_666 9_656
Sn2 Eu1 Sn2 102.88(5) 9_566 9_656
P3 Eu1 Sn2 128.56(3) . 9_556
P3 Eu1 Sn2 40.74(11) 9_556 9_556
P3 Eu1 Sn2 143.62(12) 9_666 9_556
P3 Eu1 Sn2 91.36(7) 9_566 9_556
P3 Eu1 Sn2 91.36(7) 9_656 9_556
Sn2 Eu1 Sn2 51.44(3) 1_556 9_556
Sn2 Eu1 Sn2 102.88(5) 9_666 9_556
Sn2 Eu1 Sn2 67.14(3) 9_566 9_556
Sn2 Eu1 Sn2 67.14(3) 9_656 9_556
P3 Eu1 Eu1 90.0 . 1_455
P3 Eu1 Eu1 45.042(4) 9_556 1_455
P3 Eu1 Eu1 134.958(4) 9_666 1_455
P3 Eu1 Eu1 45.042(5) 9_566 1_455
P3 Eu1 Eu1 134.958(4) 9_656 1_455
Sn2 Eu1 Eu1 90.0 1_556 1_455
Sn2 Eu1 Eu1 123.569(14) 9_666 1_455
Sn2 Eu1 Eu1 56.431(14) 9_566 1_455
Sn2 Eu1 Eu1 123.569(14) 9_656 1_455
Sn2 Eu1 Eu1 56.431(14) 9_556 1_455
P3 Eu1 Eu1 90.0 . 1_655
P3 Eu1 Eu1 134.958(4) 9_556 1_655
P3 Eu1 Eu1 45.042(4) 9_666 1_655
P3 Eu1 Eu1 134.958(5) 9_566 1_655
P3 Eu1 Eu1 45.042(5) 9_656 1_655
Sn2 Eu1 Eu1 90.0 1_556 1_655
Sn2 Eu1 Eu1 56.431(14) 9_666 1_655
Sn2 Eu1 Eu1 123.569(14) 9_566 1_655
Sn2 Eu1 Eu1 56.431(14) 9_656 1_655
Sn2 Eu1 Eu1 123.569(14) 9_556 1_655
Eu1 Eu1 Eu1 180.0 1_455 1_655
P3 Sn2 Sn2 106.67(6) . 9
P3 Sn2 Sn2 106.67(6) . 9_665
Sn2 Sn2 Sn2 146.67(12) 9 9_665
P3 Sn2 Sn2 106.67(6) . 9_565
Sn2 Sn2 Sn2 85.28(3) 9 9_565
Sn2 Sn2 Sn2 85.28(3) 9_665 9_565
P3 Sn2 Sn2 106.67(6) . 9_655
Sn2 Sn2 Sn2 85.28(3) 9 9_655
Sn2 Sn2 Sn2 85.28(3) 9_665 9_655
Sn2 Sn2 Sn2 146.67(12) 9_565 9_655
P3 Sn2 Eu1 180.0 . 1_554
Sn2 Sn2 Eu1 73.33(6) 9 1_554
Sn2 Sn2 Eu1 73.33(6) 9_665 1_554
Sn2 Sn2 Eu1 73.33(6) 9_565 1_554
Sn2 Sn2 Eu1 73.33(6) 9_655 1_554
P3 Sn2 Eu1 51.44(3) . 9_666
Sn2 Sn2 Eu1 158.11(8) 9 9_666
Sn2 Sn2 Eu1 55.22(4) 9_665 9_666
Sn2 Sn2 Eu1 100.30(3) 9_565 9_666
Sn2 Sn2 Eu1 100.30(3) 9_655 9_666
Eu1 Sn2 Eu1 128.56(3) 1_554 9_666
P3 Sn2 Eu1 51.44(3) . 9_656
Sn2 Sn2 Eu1 100.30(3) 9 9_656
Sn2 Sn2 Eu1 100.30(3) 9_665 9_656
Sn2 Sn2 Eu1 158.11(8) 9_565 9_656
Sn2 Sn2 Eu1 55.22(4) 9_655 9_656
Eu1 Sn2 Eu1 128.56(3) 1_554 9_656
Eu1 Sn2 Eu1 67.14(3) 9_666 9_656
P3 Sn2 Eu1 51.44(3) . 9_566
Sn2 Sn2 Eu1 100.30(3) 9 9_566
Sn2 Sn2 Eu1 100.30(3) 9_665 9_566
Sn2 Sn2 Eu1 55.22(4) 9_565 9_566
Sn2 Sn2 Eu1 158.11(8) 9_655 9_566
Eu1 Sn2 Eu1 128.56(3) 1_554 9_566
Eu1 Sn2 Eu1 67.14(3) 9_666 9_566
Eu1 Sn2 Eu1 102.88(5) 9_656 9_566
P3 Sn2 Eu1 51.44(3) . 9_556
Sn2 Sn2 Eu1 55.22(4) 9 9_556
Sn2 Sn2 Eu1 158.11(8) 9_665 9_556
Sn2 Sn2 Eu1 100.30(3) 9_565 9_556
Sn2 Sn2 Eu1 100.30(3) 9_655 9_556
Eu1 Sn2 Eu1 128.56(3) 1_554 9_556
Eu1 Sn2 Eu1 102.88(5) 9_666 9_556
Eu1 Sn2 Eu1 67.14(3) 9_656 9_556
Eu1 Sn2 Eu1 67.14(3) 9_566 9_556
Sn2 P3 Eu1 180.0 . .
Sn2 P3 Eu1 87.82(11) . 9_556
Eu1 P3 Eu1 92.18(11) . 9_556
Sn2 P3 Eu1 87.82(11) . 9_666
Eu1 P3 Eu1 92.18(11) . 9_666
Eu1 P3 Eu1 175.6(2) 9_556 9_666
Sn2 P3 Eu1 87.82(11) . 9_656
Eu1 P3 Eu1 92.18(11) . 9_656
Eu1 P3 Eu1 89.917(9) 9_556 9_656
Eu1 P3 Eu1 89.917(9) 9_666 9_656
Sn2 P3 Eu1 87.82(11) . 9_566
Eu1 P3 Eu1 92.18(11) . 9_566
Eu1 P3 Eu1 89.917(8) 9_556 9_566
Eu1 P3 Eu1 89.917(8) 9_666 9_566
Eu1 P3 Eu1 175.6(2) 9_656 9_566
loop_
_geom_bond_atom_site_label_1
_geom_bond_atom_site_label_2
_geom_bond_distance
_geom_bond_site_symmetry_2
Eu1 P3 2.826(5) .
Eu1 P3 2.9182(5) 9_556
Eu1 P3 2.9182(5) 9_666
Eu1 P3 2.9182(5) 9_566
Eu1 P3 2.9182(5) 9_656
Eu1 Sn2 3.1973(19) 1_556
Eu1 Sn2 3.7291(14) 9_666
Eu1 Sn2 3.7291(14) 9_566
Eu1 Sn2 3.7291(14) 9_656
Eu1 Sn2 3.7291(14) 9_556
Eu1 Eu1 4.1239(6) 1_455
Eu1 Eu1 4.1239(6) 1_655
Sn2 P3 2.436(6) .
Sn2 Sn2 3.0439(10) 9
Sn2 Sn2 3.0439(10) 9_665
Sn2 Sn2 3.0439(10) 9_565
Sn2 Sn2 3.0439(10) 9_655
Sn2 Eu1 3.1973(19) 1_554
Sn2 Eu1 3.7291(14) 9_666
Sn2 Eu1 3.7291(14) 9_656
Sn2 Eu1 3.7291(14) 9_566
Sn2 Eu1 3.7291(14) 9_556
P3 Eu1 2.9182(5) 9_556
P3 Eu1 2.9182(5) 9_666
P3 Eu1 2.9182(5) 9_656
P3 Eu1 2.9182(5) 9_566
