#------------------------------------------------------------------------------
#$Date: 2019-11-17 13:39:57 +0200 (Sun, 17 Nov 2019) $
#$Revision: 230218 $
#$URL: file:///home/coder/svn-repositories/cod/cif/7/05/77/7057771.cif $
#------------------------------------------------------------------------------
#
# This file is available in the Crystallography Open Database (COD),
# http://www.crystallography.net/
#
# All data on this site have been placed in the public domain by the
# contributors.
#
data_7057771
loop_
_publ_author_name
'Wang, Ming-Qing'
'Huang, Ya-Xi'
'Pan, Yuanming'
'Mi, Jin-Xiao'
_publ_section_title
;
 BaCu(OH)3Cl: a new one-dimensional Mott insulator with a CuO2 chessboard
 layer
;
_journal_issue                   22
_journal_name_full               'New Journal of Chemistry'
_journal_page_first              18077
_journal_paper_doi               10.1039/C8NJ04266G
_journal_volume                  42
_journal_year                    2018
_chemical_formula_sum            'Ba Cl Cu H3 O3'
_chemical_formula_weight         287.35
_space_group_crystal_system      monoclinic
_space_group_IT_number           11
_space_group_name_Hall           '-P 2yb'
_space_group_name_H-M_alt        'P 1 21/m 1'
_symmetry_space_group_name_Hall  '-P 2yb'
_symmetry_space_group_name_H-M   'P 1 21/m 1'
_atom_sites_solution_hydrogens   difmap
_atom_sites_solution_primary     direct
_audit_creation_method           SHELXL-2013
_audit_update_record
;
2018-07-30 deposited with the CCDC.
2018-10-01 downloaded from the CCDC.
;
_cell_angle_alpha                90
_cell_angle_beta                 100.43(3)
_cell_angle_gamma                90
_cell_formula_units_Z            2
_cell_length_a                   4.1335(8)
_cell_length_b                   6.6740(13)
_cell_length_c                   9.1613(18)
_cell_measurement_reflns_used    1537
_cell_measurement_temperature    203(2)
_cell_measurement_theta_max      28.668
_cell_measurement_theta_min      2.260
_cell_volume                     248.56(9)
_computing_cell_refinement       'SAINT (Bruker, 2001)'
_computing_data_collection       'SMART (Bruker, 2001)'
_computing_data_reduction        'SAINT (Bruker, 2001)'
_computing_molecular_graphics
'DIAMOND (Brandenburg, 2011) and ATOMS (Dowty, 2004)'
_computing_publication_material  'SHELXL-2013 (Sheldrick, 2015)'
_computing_structure_refinement  'SHELXL-2013 (Sheldrick, 2015)'
_computing_structure_solution    'SHELXS-2013 (Sheldrick, 2015)'
_diffrn_ambient_temperature      203(2)
_diffrn_measured_fraction_theta_full 0.992
_diffrn_measured_fraction_theta_max 0.921
_diffrn_measurement_device_type  'Bruker Diffraction CCD area-detector'
_diffrn_measurement_method
'1265 images,\f=0, 90, 180 degree, and \D\w=0.3 degree, \c= 54.74 degree'
_diffrn_radiation_type           MoK\a
_diffrn_radiation_wavelength     0.71073
_diffrn_reflns_av_R_equivalents  0.0213
_diffrn_reflns_av_unetI/netI     0.0293
_diffrn_reflns_Laue_measured_fraction_full 0.992
_diffrn_reflns_Laue_measured_fraction_max 0.921
_diffrn_reflns_limit_h_max       5
_diffrn_reflns_limit_h_min       -5
_diffrn_reflns_limit_k_max       8
_diffrn_reflns_limit_k_min       -5
_diffrn_reflns_limit_l_max       12
_diffrn_reflns_limit_l_min       -11
_diffrn_reflns_number            1537
_diffrn_reflns_point_group_measured_fraction_full 0.992
_diffrn_reflns_point_group_measured_fraction_max 0.921
_diffrn_reflns_theta_full        25.242
_diffrn_reflns_theta_max         28.668
_diffrn_reflns_theta_min         2.260
_diffrn_standards_number         0
_exptl_absorpt_coefficient_mu    12.558
_exptl_absorpt_correction_T_max  0.912
_exptl_absorpt_correction_T_min  0.867
_exptl_absorpt_correction_type   multi-scan
_exptl_absorpt_process_details   'SMART (Bruker, 2001)'
_exptl_crystal_colour            blue
_exptl_crystal_density_diffrn    3.839
_exptl_crystal_description       prism
_exptl_crystal_F_000             258
_exptl_crystal_size_max          0.150
_exptl_crystal_size_mid          0.100
_exptl_crystal_size_min          0.100
_refine_diff_density_max         0.756
_refine_diff_density_min         -1.201
_refine_diff_density_rms         0.255
_refine_ls_extinction_method     none
_refine_ls_goodness_of_fit_ref   1.034
_refine_ls_hydrogen_treatment    refall
_refine_ls_matrix_type           full
_refine_ls_number_parameters     41
_refine_ls_number_reflns         641
_refine_ls_number_restraints     2
_refine_ls_restrained_S_all      1.032
_refine_ls_R_factor_all          0.0270
_refine_ls_R_factor_gt           0.0254
_refine_ls_shift/su_max          0.000
_refine_ls_shift/su_mean         0.000
_refine_ls_structure_factor_coef Fsqd
_refine_ls_weighting_details
;
 w=1/[\s^2^(Fo^2^)+(0.0408P)^2^]
 where P=(Fo^2^+2Fc^2^)/3
;
_refine_ls_weighting_scheme      calc
_refine_ls_wR_factor_gt          0.0617
_refine_ls_wR_factor_ref         0.0628
_reflns_Friedel_coverage         0.000
_reflns_number_gt                610
_reflns_number_total             641
_reflns_threshold_expression     'I > 2\s(I)'
_cod_data_source_file            c8nj04266g2.cif
_cod_data_source_block           mi
_cod_depositor_comments          'Adding full bibliography for 7057771.cif.'
_cod_database_code               7057771
_shelx_space_group_comment
;
The symmetry employed for this shelxl refinement is uniquely defined
by the following loop, which should always be used as a source of
symmetry information in preference to the above space-group names.
They are only intended as comments.
;
_shelx_estimated_absorpt_t_min   0.255
_shelx_estimated_absorpt_t_max   0.367
_shelxl_version_number           2013-2
_shelx_res_file
;
TITL Mi in P2(1)/m
CELL 0.71073   4.1335   6.6740   9.1613  90.000 100.428  90.000
ZERR    2.00   0.0008   0.0013   0.0018   0.000   0.030   0.000
LATT  1
SYMM -X, 0.5+Y, -Z
SFAC O CL CU BA H
UNIT 6 2  2  2  6

OMIT    -1   4   2
L.S. 14
BOND $H
HTAB
EQIV $1 -x+1, -y+1, -z+1
HTAB O2 Cl1_$1

FMAP 2
PLAN 35
ACTA
TEMP -70
SIZE 0.1 0.1 0.15

WGHT    0.040800
FVAR       0.23322
BA1   4    0.183251    0.250000    0.311224    10.50000    0.00828    0.03288 =
         0.00845    0.00000    0.00170    0.00000
CU1   3    0.500000    0.500000    0.000000    10.50000    0.01715    0.01072 =
         0.00810    0.00005    0.00148    0.00264
CL1   2    0.790058    0.250000    0.581854    10.50000    0.01371    0.01894 =
         0.01278    0.00000    0.00173    0.00000
O1    1    0.238442    0.250000    0.004064    10.50000    0.01736    0.01535 =
         0.01240    0.00000    0.00129    0.00000
O2    1    0.638473    0.469639    0.206874    11.00000    0.02456    0.01269 =
         0.00990   -0.00077   -0.00008   -0.00103
DFIX 0.82 0.02 O1 H1
DFIX 0.82 0.02 O2 H2
H1    5    0.127480    0.250000   -0.079695    10.50000    0.04242
H2    5    0.667721    0.584972    0.239268    11.00000    0.05187
HKLF 4

REM  Mi in P2(1)/m
REM R1 =  0.0254 for     610 Fo > 4sig(Fo)  and  0.0270 for all     641 data
REM     41 parameters refined using      2 restraints

END

WGHT      0.0307      0.0000

REM Instructions for potential hydrogen bonds
HTAB O2 Cl1_$1

REM Highest difference peak  0.756,  deepest hole -1.201,  1-sigma level  0.255
Q1    1   0.5177  0.2500  0.3224  10.50000  0.05    0.76
Q2    1   0.7655  0.7500  0.2195  10.50000  0.05    0.75
Q3    1   0.6779  0.0582  0.4865  11.00000  0.05    0.59
Q4    1   0.6246  0.2500  0.1815  10.50000  0.05    0.59
Q5    1   0.5463  0.7500  0.1944  10.50000  0.05    0.58
Q6    1   0.8041  0.5423 -0.0014  11.00000  0.05    0.58
Q7    1   0.0877  0.5311 -0.0211  11.00000  0.05    0.57
Q8    1   0.8401  0.3679  0.2773  11.00000  0.05    0.57
Q9    1   0.1976  0.0584  0.0722  11.00000  0.05    0.57
Q10   1   0.7639  0.3512  0.1536  11.00000  0.05    0.56
Q11   1   0.3643  0.7500  0.1731  10.50000  0.05    0.55
Q12   1   1.0363  0.2500  0.5151  10.50000  0.05    0.54
Q13   1  -0.0522  0.0839 -0.0014  11.00000  0.05    0.52
Q14   1   0.6062  0.3973  0.3957  11.00000  0.05    0.50
Q15   1   0.3906  0.2500 -0.0193  10.50000  0.05    0.50
Q16   1   0.2677  0.5374  0.1559  11.00000  0.05    0.48
Q17   1   0.8850  0.5602  0.2275  11.00000  0.05    0.47
Q18   1   0.6680  0.5855  0.4412  11.00000  0.05    0.47
Q19   1  -0.1381  0.2500  0.2718  10.50000  0.05    0.47
Q20   1   0.7202  0.3339  0.3228  11.00000  0.05    0.46
Q21   1  -0.2432  0.2500  0.3199  10.50000  0.05    0.46
Q22   1   0.7466  0.6268  0.2884  11.00000  0.05    0.44
Q23   1   0.9861  0.1034  0.4468  11.00000  0.05    0.44
Q24   1   1.1355  0.0408  0.5355  11.00000  0.05    0.43
Q25   1  -0.1232  0.0012 -0.1029  11.00000  0.05    0.43
Q26   1   0.2672  0.6049  0.0595  11.00000  0.05    0.43
Q27   1   0.5660  0.6026  0.3181  11.00000  0.05    0.42
Q28   1   0.1134  0.1485  0.4512  11.00000  0.05    0.42
Q29   1   0.3414  0.2500  0.1799  10.50000  0.05    0.42
Q30   1   0.7810  0.2500  0.0868  10.50000  0.05    0.41
Q31   1   0.9061  0.4366  0.1174  11.00000  0.05    0.41
Q32   1   0.4636  0.6414  0.2629  11.00000  0.05    0.41
Q33   1   0.3351  0.1903 -0.1156  11.00000  0.05    0.41
Q34   1   0.5869  0.2500 -0.0924  10.50000  0.05    0.41
Q35   1   0.4632  0.1930  0.5986  11.00000  0.05    0.41
;
_shelx_res_checksum              64745
_shelx_hkl_file
;
   1   0   0   25.03    1.04
   2   0   0  106.50    3.54
   4   0   0   18.33    1.65
   5   0   0   55.62    3.20
   0   1   0   -0.23    0.10
   0   1   0   -0.19    0.05
  -1  -1   0  261.85    6.97
  -1   1   0  272.86    7.43
   1   1   0  266.50    6.66
   1   1   0  258.78    7.29
   2  -1   0  158.30    4.88
  -2  -1   0  155.09    4.71
   2   1   0  154.71    4.90
  -3  -1   0   11.28    0.97
   3  -1   0    9.27    1.22
   3   1   0   10.16    1.21
   4  -1   0   94.17    4.07
   4   1   0   98.22    4.17
   5   1   0   20.99    1.92
   0   2   0  172.79    4.69
   0   2   0  172.98    4.97
  -1  -2   0  495.16   12.57
   1   2   0  488.60   12.16
  -1   2   0  482.50   13.36
   1   2   0  491.30   13.18
  -2  -2   0  568.86   14.82
  -2   2   0  555.55   15.83
   2   2   0  585.16   14.18
   2   2   0  566.18   15.63
  -3  -2   0  112.39    4.04
   3   2   0  114.21    4.38
  -3   2   0  115.63    4.57
   4   2   0    6.09    1.15
  -4   2   0    8.01    1.29
   5   2   0  156.01    6.40
   0   3   0    0.03    0.12
   0   3   0    0.07    0.29
   1   3   0  200.41    6.20
  -1   3   0  214.16    6.12
   1   3   0  209.96    5.65
  -1   3   0  209.94    6.45
  -2   3   0   68.82    3.01
   2   3   0   64.71    2.15
   3   3   0    4.90    0.99
  -3   3   0    4.17    0.90
  -4   3   0   53.83    2.96
   4   3   0   58.17    3.14
   5   3   0   17.34    2.33
  -5   3   0   19.00    1.72
   0   4   0  870.32   21.86
   0   4   0  862.53   23.16
   1   4   0    9.72    1.00
  -1   4   0   10.72    0.95
   1   4   0    8.32    0.68
  -1   4   0    9.32    1.16
  -2   4   0   29.26    1.85
   2   4   0   29.94    1.91
  -2   4   0   32.06    2.15
   3   4   0  261.62    8.44
  -3   4   0  250.93    8.28
  -4   4   0   11.77    1.60
   4   4   0   16.82    1.68
   0   5   0    0.15    0.27
   0   5   0   -0.26    0.45
  -1   5   0   45.39    2.33
  -1   5   0   44.27    2.34
   1   5   0   45.45    1.98
   1   5   0   48.86    2.39
   2   5   0   51.39    2.72
  -2   5   0   54.08    2.82
   3   5   0    5.61    1.18
  -3   5   0    4.50    0.93
  -4   5   0   40.75    2.77
   4   5   0   38.07    2.67
   0   6   0   33.64    1.87
   0   6   0   30.52    1.95
   1   6   0  112.71    4.32
  -1   6   0  105.07    4.30
  -1   6   0  102.61    4.13
  -2   6   0  168.30    6.18
   2   6   0  167.95    6.19
  -3   6   0   19.09    1.75
   3   6   0   17.07    1.70
   0   7   0   -0.40    0.53
   0   7   0   -0.30    0.28
   1   7   0   27.07    1.98
  -1   7   0   28.67    2.03
  -2   7   0    5.80    1.06
   2   7   0    5.46    1.06
   3   7   0    1.53    0.67
   1   8   0    3.15    0.78
  -1   8   0    2.19    0.58
  -2   8   0    1.02    0.60
   2   8   0    3.45    0.86
   4   0  -1   71.00    3.19
  -4   0   1   62.50    3.29
   3   0  -1   33.50    1.92
  -3   0   1   39.76    2.12
   2   0  -1 1000.00   26.25
  -1   0   1    0.32    0.11
   1   0  -1    0.44    0.25
   0   0  -1    9.53    0.46
   0   0   1   10.70    0.43
   0   0   1    9.86    0.40
   1   0   1  928.70   22.73
   1   0   1  927.11   24.24
   2   0   1    6.42    0.82
  -3   0  -1   55.83    2.44
   3   0   1   54.72    2.68
   4   0   1  280.57    9.18
   5   0   1   21.60    1.96
   5   1  -1   16.20    1.60
  -4  -1   1   19.54    1.64
   4  -1  -1   20.66    1.63
  -4   1   1   19.73    1.42
   4   1  -1   18.90    1.62
   3  -1  -1  101.25    3.66
  -3  -1   1   94.21    3.77
   3   1  -1   96.74    3.74
  -2  -1   1   45.31    2.01
   2  -1  -1   46.65    1.85
   2   1  -1   46.43    1.93
  -1  -1   1   37.37    1.48
  -1   1   1   34.52    1.33
   1   1  -1   35.30    1.38
  -1   1   1   35.87    1.26
   0   1  -1  361.76    9.81
   0   1   1  359.35    9.01
   0   1   1  360.13    9.39
  -1  -1  -1   59.45    1.76
  -1   1  -1   59.84    2.31
   1   1   1   60.05    2.11
   1   1   1   62.64    1.96
   2  -1   1  137.59    4.58
  -2  -1  -1  140.69    4.11
   2   1   1  137.89    4.51
   3  -1   1  169.55    5.71
   3   1   1  159.90    5.65
   4   1   1    0.80    0.63
  -5   1  -1   83.33    4.60
   5   1   1   78.65    4.14
   5   2  -1   34.00    2.46
   4   2  -1  231.58    7.93
  -4   2   1  242.19    7.67
  -3  -2   1   74.18    3.21
   3   2  -1   74.92    3.24
  -3   2   1   78.32    3.16
  -3   2   1   73.57    3.23
  -2  -2   1   38.87    1.89
  -2   2   1   41.13    1.88
  -2   2   1   40.31    1.85
   2   2  -1   42.55    1.92
  -1  -2   1  766.82   20.00
   1   2  -1  792.66   20.80
   1   2  -1  809.11   19.09
  -1   2   1  824.83   19.75
  -1   2   1  746.95   20.66
   0   2   1  473.77   11.96
   0   2   1  472.56   12.45
   0   2  -1  473.60   12.88
   1   2   1  222.55    6.45
  -1   2  -1  225.56    6.89
   1   2   1  225.48    6.06
  -2  -2  -1  152.62    4.35
  -2   2  -1  143.00    5.18
   2   2   1  144.20    4.83
   2   2   1  145.91    4.29
  -3   2  -1  251.93    8.62
   3   2   1  261.32    8.16
  -4   2  -1   37.13    2.69
   4   2   1   41.17    2.54
   5   2   1   12.27    1.77
   5   3  -1    8.71    1.39
   4   3  -1    9.12    1.38
  -4   3   1   10.95    1.44
  -3   3   1   88.55    3.65
   3   3  -1   83.05    3.64
  -2  -3   1   21.52    1.38
  -2   3   1   24.24    1.48
  -2   3   1   24.87    1.45
   2   3  -1   17.18    1.36
  -1   3   1   42.01    1.74
   1   3  -1   40.68    1.39
   1   3  -1   42.84    1.89
  -1   3   1   39.33    1.82
   0   3  -1  135.71    4.43
   0   3  -1  137.01    4.01
   0   3   1  137.23    4.09
   0   3   1  134.95    4.09
  -1   3  -1   56.96    2.64
   1   3   1   54.89    2.06
   1   3   1   56.16    2.24
   2   3   1   93.60    3.52
   2   3   1   86.63    2.99
  -2   3  -1   90.80    3.88
  -3   3  -1  143.92    5.72
   3   3   1  139.77    5.29
   4   3   1    1.53    0.61
  -5   3  -1   49.97    3.08
   4   4  -1   33.97    2.42
  -4   4   1   37.39    2.47
  -3  -4   1   19.37    1.46
  -3   4   1   18.04    1.56
   3   4  -1   20.64    1.71
  -2   4   1  450.79   12.79
  -2   4   1  482.10   13.24
   2   4  -1  448.17   13.23
   1   4  -1    0.67    0.45
  -1   4   1    1.24    0.37
   1   4  -1    0.56    0.19
  -1   4   1    0.58    0.45
   0   4   1    3.88    0.61
   0   4  -1    6.53    0.94
   0   4  -1    5.88    0.70
   0   4   1    4.67    0.66
   1   4   1  481.39   12.98
   1   4   1  501.24   13.86
  -1   4  -1  506.12   13.39
  -1   4  -1  498.69   14.41
   2   4   1    0.22    0.60
  -2   4  -1    1.26    0.79
   3   4   1   20.51    1.77
  -3   4  -1   22.34    2.04
  -4   4  -1  145.84    5.90
   4   4   1  143.10    5.86
   4   5  -1    4.82    1.02
  -4   5   1    7.03    1.23
   3   5  -1   23.80    1.89
  -3   5   1   19.55    1.69
   2   5  -1   15.57    1.50
  -2   5   1   16.44    1.45
  -1   5   1    7.19    0.97
   1   5  -1    5.60    1.06
  -1   5   1    7.50    0.99
   0   5  -1  113.42    3.84
   0   5  -1  114.71    4.19
   0   5   1   94.40    3.77
   0   5   1  116.17    3.91
   1   5   1    4.63    0.71
   1   5   1    5.91    0.95
  -1   5  -1    2.67    0.99
  -1   5  -1    5.63    0.86
   2   5   1   41.30    2.36
  -2   5  -1   41.24    2.72
  -2   5  -1   43.79    2.46
   3   5   1   44.80    2.73
  -3   5  -1   47.77    2.83
   4   5   1    1.61    0.71
  -4   5  -1    2.55    0.77
   3   6  -1   22.05    1.94
  -3   6   1   24.23    2.07
  -2   6   1    9.18    1.35
   2   6  -1   10.54    1.46
  -1   6   1  173.35    6.05
   1   6  -1  171.13    6.03
   0   6  -1  120.39    4.68
   0   6   1  122.86    4.37
   0   6  -1  119.09    4.31
   0   6   1  117.98    4.35
  -1   6  -1   19.38    1.76
   1   6   1   21.72    1.63
  -1   6  -1   23.65    1.67
   2   6   1   52.30    2.85
  -2   6  -1   51.39    2.92
   3   6   1   90.56    4.33
  -3   6  -1   96.74    4.56
  -3   7   1   14.23    1.91
   3   7  -1   17.06    1.73
   2   7  -1    2.58    0.78
  -2   7   1    2.81    0.79
  -1   7   1    7.90    1.23
   1   7  -1    5.32    1.10
   0   7  -1   11.09    1.48
   0   7   1   12.31    1.17
  -1   7  -1   12.75    1.59
  -1   7  -1   12.83    1.60
   1   7   1   12.55    1.56
   2   7   1   10.65    1.47
  -2   7  -1   13.62    1.74
   3   7   1   31.90    2.45
  -2   8   1   82.46    4.32
   2   8  -1   80.27    4.21
  -1   8   1    0.29    0.44
   1   8  -1    0.71    0.52
   0   8  -1    3.29    0.76
  -1   8  -1   97.19    4.43
   1   8   1  101.40    4.50
  -2   8  -1    6.16    1.17
   2   8   1    3.95    0.92
   4   0  -2  360.92   10.88
  -4   0   2  362.52   11.32
   3   0  -2   21.24    1.36
  -2   0   2   27.19    1.12
   2   0  -2   26.51    1.24
  -2   0   2   28.48    1.57
  -1   0   2  999.89   23.72
   1   0  -2  988.93   25.17
  -1   0   2  937.62   24.42
   0   0  -2   13.94    0.77
   0   0   2   14.60    0.72
   0   0   2   13.60    0.63
   1   0   2   59.49    2.24
   1   0   2   61.59    2.09
   2   0   2  500.17   13.99
   3   0   2   16.32    1.59
   4   0   2    3.50    0.95
   5   0   2  112.96    5.18
  -4  -1   2   56.28    3.06
   4   1  -2   51.49    2.67
  -4   1   2   49.54    2.98
   3  -1  -2   18.06    1.32
  -3  -1   2   18.25    1.42
  -2  -1   2  254.83    6.35
  -2  -1   2  248.47    7.39
   2  -1  -2  253.17    6.96
   2   1  -2  251.47    7.22
  -2   1   2  244.73    6.86
  -1  -1   2   67.28    2.45
  -1  -1   2   69.91    1.80
   1   1  -2   66.07    2.24
  -1   1   2   71.12    2.24
   0  -1   2   93.71    2.63
   0  -1   2   90.93    2.84
   0   1   2   94.73    2.70
   0   1   2   94.13    2.79
   0   1  -2   88.77    3.18
  -1   1  -2  313.44    9.05
   1   1   2  303.84    8.19
   1   1   2  310.63    8.62
  -2  -1  -2   34.01    1.27
   2   1   2   30.57    1.71
   2   1   2   34.33    1.55
  -2   1  -2   32.23    1.93
  -3   1  -2  117.99    4.95
   3   1   2  117.78    4.54
   4   1   2  109.99    4.82
  -4   1  -2  116.88    5.36
  -5   1  -2    0.52    0.44
   5   1   2    1.84    0.69
   5   2  -2    3.61    0.89
  -5   2   2    2.28    0.79
  -4  -2   2   47.11    2.77
  -4   2   2   42.38    2.38
   4   2  -2   42.72    2.53
  -3  -2   2  461.08   13.30
  -3   2   2  473.87   12.82
   3   2  -2  463.82   13.39
  -2  -2   2  279.55    8.10
  -2   2   2  267.34    7.71
   2   2  -2  271.96    8.00
  -2   2   2  274.84    7.68
  -1  -2   2  138.89    4.37
   1   2  -2  130.10    3.44
  -1   2   2  140.63    4.14
  -1   2   2  135.98    3.70
   1   2  -2  142.73    4.36
   0   2  -2  236.51    6.99
   0   2   2  224.87    6.20
   0   2   2  220.96    6.17
   1   2   2  291.86    8.02
  -1   2  -2  296.43    9.00
   1   2   2  299.33    8.37
  -2  -2  -2   41.28    1.59
   2   2   2   45.81    1.96
   2   2   2   45.15    2.16
  -2   2  -2   50.69    2.60
   3   2   2   95.02    3.93
  -3   2  -2   92.15    4.32
  -4   2  -2  152.96    6.57
   4   2   2  153.02    6.00
   5   3  -2   45.58    2.94
   4   3  -2   35.69    2.37
  -4   3   2   38.69    2.33
  -3  -3   2   11.53    1.39
   3   3  -2   14.05    1.39
  -3   3   2   12.13    1.17
  -2  -3   2  122.72    4.38
  -2   3   2  121.60    3.94
  -1  -3   2   83.72    3.16
   1   3  -2   82.24    3.11
   1   3  -2   83.17    2.37
  -1   3   2   83.08    2.52
  -1   3   2   79.27    2.95
   0   3   2   84.35    2.77
   0   3  -2   88.71    3.42
   0   3   2   86.85    2.94
   1   3   2  224.44    6.62
   1   3   2  217.61    6.35
  -1   3  -2  223.12    7.36
   2   3   2    7.35    1.07
  -2   3  -2    4.41    1.06
   2   3   2    9.21    1.01
  -3   3  -2   60.43    3.47
   3   3   2   61.67    3.05
  -4   3  -2   89.50    4.79
   4   3   2   97.29    4.47
  -5   4   2   16.87    2.05
  -4   4   2  194.41    7.01
   4   4  -2  190.25    7.10
  -3  -4   2    9.58    1.27
  -3   4   2    9.87    1.34
   3   4  -2   11.66    1.48
  -2  -4   2   12.43    1.15
  -2   4   2   10.03    1.20
   2   4  -2   12.97    1.27
  -1   4   2  153.52    5.54
   1   4  -2  203.23    5.93
   0   4   2    0.09    0.20
   0   4  -2    0.06    0.14
   0   4   2   -0.04    0.30
   0   4  -2   -0.60    0.57
   1   4   2    6.98    0.90
   1   4   2    4.20    0.73
  -1   4  -2    4.00    1.13
   2   4   2  245.10    7.49
   2   4   2  261.50    8.04
  -2   4  -2  253.46    8.86
  -3   4  -2   13.80    1.96
   3   4   2   11.32    1.53
   4   4   2    0.60    0.59
  -4   5   2   24.56    2.07
   4   5  -2   24.58    2.04
  -3   5   2    4.33    0.95
   3   5  -2    5.86    1.19
  -2   5   2   94.93    4.04
   2   5  -2   93.55    3.99
  -1   5   2    6.62    0.95
   1   5  -2   10.63    1.32
   0   5   2   14.65    1.16
   0   5  -2   14.17    1.59
   0   5  -2   16.15    1.12
   0   5   2   14.58    1.14
  -1   5  -2   73.35    3.20
  -1   5  -2   75.47    3.77
   1   5   2   80.19    3.20
   2   5   2   21.91    1.70
  -2   5  -2   22.58    2.22
   3   5   2   55.09    3.14
  -3   5  -2   58.88    3.76
  -4   5  -2   32.83    2.66
  -3   6   2  128.63    5.54
   3   6  -2  127.11    5.39
  -2   6   2   75.97    3.64
   2   6  -2   69.78    3.53
  -1   6   2   14.27    1.34
   1   6  -2   14.92    1.51
   0   6   2   84.49    3.26
   0   6   2   84.17    3.43
   0   6  -2   80.30    3.29
   0   6  -2   76.39    3.62
   1   6   2  104.47    3.97
  -1   6  -2  100.48    4.15
   1   6   2  101.83    4.02
  -1   6  -2   99.94    4.53
  -2   6  -2    5.01    0.97
  -2   6  -2    5.58    1.41
   2   6   2    4.87    0.98
  -3   6  -2   24.75    2.09
   3   6   2   28.76    2.19
   3   7  -2    2.08    0.77
  -3   7   2    3.01    0.76
   2   7  -2   12.10    1.66
  -2   7   2   14.79    1.88
   1   7  -2   20.04    1.82
  -1   7   2   25.52    1.94
   0   7  -2    9.37    1.46
   0   7   2   11.59    1.44
  -1   7  -2   36.89    2.57
  -1   7  -2   41.30    2.45
   1   7   2   37.33    2.27
   2   7   2    2.83    0.71
  -2   7  -2    0.96    0.46
  -2   8   2    2.65    0.79
   2   8  -2    2.87    0.84
  -1   8   2   82.28    3.98
   1   8  -2   81.00    3.99
   0   8  -2    3.35    0.83
  -1   8  -2    0.47    0.37
   2   8   2   57.25    3.29
  -5   0   3   40.92    2.88
  -4   0   3   62.77    3.44
  -3   0   3  469.42   12.14
   3   0  -3  467.82   13.00
  -3   0   3  462.68   13.42
  -2   0   3   89.24    2.75
  -2   0   3   89.84    3.47
   2   0  -3   92.16    2.90
  -1   0   3    0.92    0.23
   1   0  -3    1.36    0.32
  -1   0   3    0.75    0.26
   0   0  -3  763.29   20.00
   0   0   3  735.32   18.73
   0   0   3  754.39   18.69
   1   0   3    1.97    0.44
   2   0   3    4.80    0.94
   3   0   3  364.17   11.19
   4   0   3    5.05    1.10
  -5   1   3    1.94    0.56
  -4  -1   3  107.60    4.79
   4   1  -3  108.23    4.24
  -4   1   3  103.96    4.78
   3  -1  -3  162.42    5.03
  -3  -1   3  167.83    5.86
   3   1  -3  158.33    5.29
  -2  -1   3    9.62    0.93
  -2  -1   3   10.32    0.48
   2  -1  -3   10.25    0.62
  -2   1   3   10.91    0.76
   2   1  -3    9.92    0.81
  -1  -1   3  552.70   14.00
  -1  -1   3  559.88   14.91
  -1   1   3  573.57   14.37
   1   1  -3  589.21   15.28
   0  -1   3  218.95    6.03
   0  -1   3  208.00    5.78
   0   1   3  218.71    5.95
   0   1   3  214.63    6.00
   0   1  -3  218.10    6.65
   1   1   3  215.88    6.25
  -1   1  -3  209.07    6.71
   1   1   3  202.07    5.98
  -2   1  -3  330.12    9.87
   2   1   3  312.72    8.66
   2   1   3  287.55    9.16
  -3   1  -3    7.42    1.31
   3   1   3    6.76    1.19
   4   1   3  105.51    4.73
  -4   1  -3  103.84    5.20
  -5   2   3  166.16    7.12
  -4  -2   3   13.36    1.73
   4   2  -3   15.37    1.44
  -4   2   3   13.88    1.26
  -3  -2   3   34.56    2.20
   3   2  -3   29.58    1.90
  -3   2   3   36.53    1.90
  -2  -2   3  417.57   11.97
  -2   2   3  435.81   11.42
   2   2  -3  421.83   11.92
  -1  -2   3  107.08    3.87
  -1   2   3  118.97    3.61
   1   2  -3  113.41    3.85
   0   2   3  156.99    4.70
   0   2   3  156.78    4.51
   0   2  -3  158.70    5.45
  -1   2  -3  317.58    9.91
   1   2   3  320.02    8.84
   1   2   3  324.61    9.10
   2   2   3  276.84    8.03
   2   2   3  281.67    8.48
  -2   2  -3  274.25    9.15
  -3   2  -3    8.92    1.51
   3   2   3    7.40    1.27
   3   2   3    7.42    0.92
   4   2   3   46.84    2.94
  -4   2  -3   50.47    3.39
   5   3  -3    1.50    0.71
  -4  -3   3   63.91    3.50
  -4   3   3   65.42    3.21
   4   3  -3   66.00    3.31
  -3  -3   3  147.21    5.59
   3   3  -3  150.42    5.37
  -3   3   3  144.85    5.22
  -2  -3   3   18.84    1.45
  -1  -3   3  319.91    9.45
  -1   3   3  321.44    8.61
   1   3  -3  334.89    9.64
  -1   3   3  334.00    9.13
   0   3   3   90.94    3.20
   0   3   3   92.69    2.94
   0   3  -3   93.91    3.86
  -1   3  -3   77.24    3.70
   1   3   3   80.05    3.01
   1   3   3   81.52    3.05
  -2   3  -3  262.46    9.07
   2   3   3  254.62    7.75
   2   3   3  268.89    8.17
  -3   3  -3    3.75    1.04
   3   3   3    6.76    1.21
  -4   3  -3   83.93    4.73
   4   3   3   79.66    4.07
  -4  -4   3   39.31    2.61
   4   4  -3   36.13    2.46
  -4   4   3   36.36    2.46
  -3  -4   3  245.73    8.25
   3   4  -3  243.48    8.15
  -3   4   3  238.86    7.93
  -2  -4   3   23.18    1.69
   2   4  -3   19.06    1.60
   1   4  -3    3.59    0.90
  -1   4   3    3.45    0.65
   0   4   3  382.27   10.47
   0   4   3  375.04   10.45
  -1   4  -3    2.21    1.08
   1   4   3    1.30    0.55
   1   4   3    1.90    0.56
   2   4   3    2.00    0.53
   2   4   3    3.81    0.93
  -2   4  -3    2.93    1.15
  -3   4  -3  176.15    7.48
   3   4   3  182.83    6.59
   4   4   3    3.55    1.01
  -4   4  -3    5.35    1.40
   4   5  -3   44.33    2.87
  -4   5   3   42.79    2.83
  -3  -5   3   46.24    2.77
  -3   5   3   43.66    2.70
   3   5  -3   46.14    2.82
   2   5  -3    0.30    0.54
  -2   5   3    0.56    0.42
   1   5  -3  155.97    5.77
  -1   5   3  163.24    5.57
   0   5   3   67.81    2.67
   0   5  -3   69.52    2.80
   0   5  -3   72.11    3.52
   0   5   3   72.11    3.04
  -1   5  -3   79.68    4.16
   1   5   3   80.72    3.29
   1   5   3   79.57    3.31
  -2   5  -3   95.35    4.96
   2   5   3   99.57    4.11
   3   5   3    2.88    0.78
  -3   5  -3    1.77    1.04
  -3   6   3    9.05    1.46
   3   6  -3    6.97    1.26
   2   6  -3  116.83    4.94
  -2   6   3  122.37    4.98
  -1   6   3   55.59    2.82
   1   6  -3   51.31    2.86
   0   6  -3    9.78    1.54
   0   6   3   12.67    1.18
   0   6  -3    9.69    0.92
  -1   6  -3   72.51    3.37
  -1   6  -3   72.82    4.01
   1   6   3   73.40    3.27
   1   6   3   78.90    3.37
   2   6   3   81.07    3.75
  -2   6  -3   79.45    4.55
  -2   6  -3   78.60    3.83
   3   6   3    1.45    0.66
  -3   6  -3    0.98    0.35
  -2   7   3    5.20    1.00
   2   7  -3    4.40    1.02
  -1   7   3   48.37    2.78
   1   7  -3   49.28    2.92
   0   7  -3   12.30    1.70
   0   7   3   12.42    1.52
  -1   7  -3    7.48    1.19
  -1   7  -3    8.88    1.52
  -2   7  -3   60.40    3.43
   2   7   3   64.10    3.35
  -2   7  -3   61.25    3.83
  -1   8   3    3.47    0.86
   1   8  -3    3.61    0.92
   0   8  -3   71.99    3.88
   0   8   3   69.17    3.49
  -1   8  -3    4.32    1.04
  -5   0   4  100.15    5.09
  -4   0   4   25.59    2.09
   3   0  -4   47.21    2.08
  -3   0   4   48.37    2.72
  -2   0   4  237.52    7.61
   2   0  -4  257.86    7.00
  -2   0   4  249.97    6.69
   1   0  -4   20.79    1.19
  -1   0   4   23.92    1.32
  -1   0   4   22.18    1.07
   0   0  -4  187.18    5.93
   0   0   4  194.19    5.48
   0   0   4  188.87    5.37
  -1   0  -4  621.92   17.67
   1   0   4  644.99   16.40
   2   0   4   -0.13    0.22
   3   0   4    9.09    1.37
  -4   0  -4  137.01    6.36
  -5  -1   4   76.99    4.33
  -5   1   4   74.89    4.34
  -4  -1   4    4.38    1.00
  -4   1   4    4.82    1.06
  -3  -1   4  177.39    6.38
  -3   1   4  173.43    6.36
  -3   1   4  178.53    5.39
   3   1  -4  177.08    5.70
   2  -1  -4  260.03    6.85
  -2  -1   4  249.28    7.85
  -2  -1   4  252.15    6.56
   2   1  -4  259.01    7.39
  -2   1   4  249.71    7.03
  -1  -1   4   19.35    0.89
  -1  -1   4   19.16    1.24
   1  -1  -4   18.61    0.85
  -1   1   4   16.90    1.10
   1   1  -4   20.19    1.29
  -1   1   4   18.27    1.05
   0  -1   4  497.59   12.80
   0  -1   4  502.62   13.12
   0  -1  -4  486.17   13.60
   0   1   4  507.15   13.01
   0   1   4  499.59   12.74
   0   1  -4  496.98   14.19
   1  -1   4  158.73    4.84
  -1   1  -4  152.27    5.53
   1   1   4  157.45    4.94
   1   1   4  155.36    5.05
  -2   1  -4  125.96    5.14
   2   1   4  127.79    4.71
   2   1   4  128.05    4.47
   3   1   4  255.12    8.48
  -3   1  -4  251.01    9.09
   4   1   4    0.42    0.54
  -4   1  -4    1.73    0.63
  -5  -2   4    3.81    0.99
  -5   2   4    1.70    0.73
  -4  -2   4  180.78    7.09
   4   2  -4  185.18    6.46
  -3  -2   4   10.30    1.46
  -3   2   4    6.31    0.87
   3   2  -4    6.30    1.07
   2   2  -4   16.09    1.27
  -2   2   4   17.66    1.18
  -1  -2   4  357.94   10.50
   1   2  -4  381.02   10.80
  -1   2   4  378.40   10.06
   0   2  -4  121.53    4.80
   0   2   4  127.09    3.85
   0   2   4  125.51    4.08
   1   2   4   -0.04    0.39
   1   2   4   -0.25    0.35
  -1   2  -4    1.42    0.71
   2   2   4  300.56    8.88
  -2   2  -4  298.15   10.03
   2   2   4  309.40    9.28
  -3   2  -4   56.37    3.47
   3   2   4   52.45    2.97
   3   2   4   56.06    2.74
  -4   2  -4   13.96    2.07
   4   2   4   23.87    2.05
  -4  -3   4    3.57    0.86
   4   3  -4    0.41    0.44
  -4   3   4    1.45    0.46
  -3  -3   4  108.41    4.64
  -3   3   4  105.43    4.16
   3   3  -4  104.72    4.28
  -2  -3   4  159.54    5.70
   2   3  -4  157.19    5.42
  -1  -3   4    2.53    0.59
   1   3  -4    3.67    0.94
  -1   3   4    2.78    0.57
   0   3  -4  419.97   12.62
   0   3   4  411.03   11.19
   0   3   4  401.83   11.21
   1   3   4   77.86    3.26
   1   3   4   82.94    3.13
  -1   3  -4   87.55    4.18
   2   3   4  101.65    4.05
  -2   3  -4  102.56    4.88
   2   3   4   97.40    3.89
  -3   3  -4  156.31    6.74
   3   3   4  149.96    5.37
   3   3   4  148.62    5.82
   4   3   4    1.53    0.75
  -4   3  -4    0.34    0.62
  -4  -4   4   10.59    1.63
   4   4  -4    8.93    1.43
  -4   4   4   15.44    1.85
  -3  -4   4   30.65    2.22
  -3   4   4   27.12    1.95
   3   4  -4   27.02    2.04
  -2  -4   4  154.53    5.69
  -2   4   4  146.87    5.30
   2   4  -4  149.50    5.47
  -1   4   4    3.78    0.73
   1   4  -4    3.77    1.04
   0   4   4   68.25    2.50
   0   4   4   64.36    2.85
   0   4  -4   63.54    3.42
  -1   4  -4  276.67    9.74
   1   4   4  277.28    8.32
   2   4   4    0.97    0.42
  -2   4  -4    0.38    0.70
   2   4   4   -0.39    0.46
   3   4   4    7.88    1.33
  -3   4  -4    9.29    1.81
  -4   4  -4   81.82    5.11
  -4  -5   4    4.54    0.95
  -4   5   4    6.75    1.26
   4   5  -4    6.07    1.20
  -3  -5   4   75.96    3.92
  -3   5   4   74.84    3.68
   3   5  -4   72.55    3.66
  -2   5   4   93.98    4.07
   2   5  -4   89.38    4.03
  -1   5   4   11.48    1.34
   1   5  -4   10.89    1.56
   0   5   4  130.53    4.78
   0   5  -4  133.07    5.53
   1   5   4   59.19    2.81
   1   5   4   56.06    2.66
  -1   5  -4   53.90    3.56
   2   5   4   40.86    2.43
   2   5   4   43.63    2.48
  -2   5  -4   40.49    3.26
   3   5   4  103.84    4.67
  -3   5  -4  106.13    5.72
  -3   6   4    8.67    1.43
   3   6  -4   11.76    1.70
   2   6  -4    0.20    0.55
  -2   6   4    0.44    0.37
   1   6  -4  103.34    4.57
  -1   6   4   96.73    4.20
   0   6  -4   35.03    2.57
   0   6   4   31.91    2.07
   1   6   4   -0.13    0.27
  -1   6  -4    0.39    0.25
  -1   6  -4    0.25    0.84
   2   6   4   82.68    3.87
  -2   6  -4   80.76    4.77
   3   6   4   23.08    1.98
  -3   6  -4   20.86    3.00
   2   7  -4   31.62    2.39
  -2   7   4   30.76    2.29
   1   7  -4    0.27    0.62
  -1   7   4    0.55    0.36
   0   7  -4   80.17    4.15
   0   7   4   79.87    3.78
  -1   7  -4   14.51    1.40
  -1   7  -4   17.05    2.22
  -2   7  -4   23.30    1.97
  -2   7  -4   24.51    2.90
   1   8  -4    3.39    0.96
  -1   8   4    1.65    0.62
   0   8  -4   14.09    2.00
   0   8   4   14.43    1.87
  -1   8  -4   36.31    2.79
  -5   0   5   37.49    2.89
  -4   0   5   76.62    4.03
  -3   0   5   30.74    2.13
  -2   0   5  121.29    3.69
   2   0  -5  116.33    3.68
  -1   0   5  425.91   11.26
  -1   0   5  429.38   11.79
   1   0  -5  435.20   12.12
   0   0   5    4.58    0.70
   0   0   5    4.77    0.62
   0   0  -5    5.97    0.91
  -1   0  -5  148.43    5.35
   1   0   5  142.79    4.78
   2   0   5  196.78    6.34
  -2   0  -5  191.67    7.08
  -3   0  -5   26.91    2.26
  -4   0  -5   10.10    1.87
  -5  -1   5   70.88    4.17
  -5   1   5   64.29    4.05
  -4  -1   5  142.78    6.19
  -4   1   5  154.33    6.34
  -3  -1   5    0.76    0.44
  -3   1   5    0.74    0.27
  -3   1   5    0.92    0.38
   3   1  -5    0.82    0.54
  -2  -1   5  278.69    8.73
  -2  -1   5  287.84    7.49
  -2   1   5  287.80    7.92
  -2   1   5  280.25    8.69
   2   1  -5  285.35    8.26
   1  -1  -5  178.02    5.54
  -1  -1   5  182.76    5.93
  -1  -1   5  189.31    5.30
   1   1  -5  190.28    6.14
  -1   1   5  190.07    5.55
  -1   1   5  194.45    5.84
   0  -1   5   67.11    2.50
   0  -1  -5   67.28    2.66
   0  -1   5   66.09    2.62
   0   1   5   64.74    2.31
   0   1   5   65.20    2.62
   0   1  -5   65.07    3.09
   1  -1   5  287.85    8.57
  -1   1  -5  318.41    9.74
  -2   1  -5   34.90    2.42
   2   1   5   33.82    2.22
   2   1   5   31.09    1.96
   3   1   5   75.97    3.76
  -3   1  -5   77.24    4.22
  -4   1  -5   83.54    4.89
   4   1   5   87.41    4.38
  -5  -2   5    1.30    0.52
  -5   2   5    0.10    0.42
  -4  -2   5    3.90    0.92
  -4   2   5    2.90    0.87
  -3  -2   5  208.46    7.23
  -3   2   5  184.16    6.18
   3   2  -5  205.29    6.60
  -2  -2   5   23.23    1.70
  -2   2   5   19.09    1.31
   2   2  -5   24.22    1.63
  -1  -2   5    8.28    1.11
  -1  -2   5    8.76    0.62
  -1   2   5    9.04    1.03
   1   2  -5    9.30    1.38
   0   2   5  434.91   12.03
   0   2   5  439.48   12.16
   0   2   5  447.40   11.60
   0   2  -5  454.80   13.52
   1   2   5   46.85    2.34
   1   2   5   44.22    2.22
  -1   2  -5   41.32    2.70
   2   2   5    2.76    0.77
  -2   2  -5    2.69    0.91
   2   2   5    3.08    1.00
   3   2   5  132.12    5.08
   3   2   5  132.32    5.38
  -3   2  -5  130.42    6.07
   4   2   5    6.31    1.27
  -4   2  -5    5.99    1.49
  -5  -3   5   44.68    3.22
  -4  -3   5  117.64    5.43
  -4   3   5  117.90    4.73
   4   3  -5  118.25    4.93
  -3  -3   5   -0.07    0.23
  -3   3   5    0.23    0.29
   3   3  -5    0.46    0.50
  -2  -3   5  231.25    7.71
   2   3  -5  230.60    7.42
  -2   3   5  228.41    7.05
  -1  -3   5   97.41    3.96
   1   3  -5   99.03    4.12
  -1   3   5   93.94    3.59
   0   3   5   49.20    2.01
   0   3   5   45.34    2.28
   1   3   5  198.00    6.30
  -1   3  -5  193.32    7.51
   1   3   5  196.06    6.37
  -2   3  -5   37.32    2.87
   2   3   5   35.69    2.20
   2   3   5   36.71    2.20
   3   3   5   54.70    2.93
   3   3   5   57.35    3.21
  -3   3  -5   56.50    3.83
  -4   3  -5   70.55    4.62
  -4  -4   5   50.69    3.28
  -4   4   5   54.58    3.06
   4   4  -5   55.21    3.16
  -3  -4   5    7.73    1.34
  -3   4   5    7.91    1.22
   3   4  -5    9.19    1.44
  -2  -4   5   54.81    3.06
   2   4  -5   54.01    2.88
  -2   4   5   57.14    2.78
  -1   4   5  184.00    6.04
   1   4  -5  181.15    6.61
   0   4  -5    2.34    1.17
   0   4   5    2.31    0.65
   1   4   5   76.30    3.18
   1   4   5   79.57    3.46
  -1   4  -5   75.74    4.34
   2   4   5  106.09    4.38
   2   4   5  108.32    4.38
  -2   4  -5   99.10    5.31
  -3   4  -5    9.59    1.88
   3   4   5    8.01    1.38
  -4  -5   5   48.26    3.27
   4   5  -5   53.58    3.23
  -4   5   5   57.28    3.34
  -3  -5   5    0.85    0.47
   3   5  -5    2.47    0.76
  -3   5   5    0.30    0.38
   2   5  -5   83.98    3.91
  -2   5   5   79.18    3.68
  -1   5   5   67.81    3.21
   1   5  -5   70.00    3.61
   0   5   5   20.60    1.60
   0   5  -5   20.93    2.43
  -1   5  -5  154.09    6.74
   1   5   5  146.88    5.42
   1   5   5  147.30    5.45
   2   5   5    7.93    1.22
  -2   5  -5    7.06    1.72
   2   5   5   11.17    1.49
   3   5   5   31.56    2.39
  -3   5  -5   37.58    3.27
  -3   6   5   60.28    3.47
   3   6  -5   66.73    3.65
  -2   6   5   13.15    1.67
   2   6  -5   14.81    1.84
  -1   6   5    4.81    0.99
   1   6  -5    2.93    1.01
   0   6   5   99.19    4.23
   0   6  -5   96.87    4.74
  -1   6  -5   16.32    2.40
   1   6   5   16.24    1.51
   2   6   5    1.36    0.53
  -2   6  -5    0.21    0.92
  -2   7   5   55.84    3.29
   2   7  -5   54.32    3.30
   1   7  -5   14.70    2.07
  -1   7   5   16.40    1.58
   0   7  -5   11.67    1.79
   0   7   5   13.36    1.71
  -1   7  -5   30.64    2.82
   1   7   5   34.87    2.31
  -2   7  -5    5.98    1.77
  -2   7  -5    7.65    1.27
   0   8   5    2.21    0.69
  -5   0   6   19.37    2.58
  -4   0   6  112.35    5.27
  -3   0   6   96.01    4.34
  -2   0   6   12.12    0.88
  -2   0   6   11.37    1.35
   1   0  -6  299.14    9.39
  -1   0   6  312.84    9.06
  -1   0   6  318.54    8.62
   0   0  -6  273.89    8.75
   0   0   6  272.67    7.95
   0   0   6  279.66    7.85
   1   0   6   58.84    2.73
  -1   0  -6   63.37    3.16
  -2   0  -6   53.32    3.16
   2   0   6   52.62    2.73
  -3   0  -6  128.71    5.96
  -5  -1   6   11.94    1.92
  -5   1   6   11.40    1.88
  -4  -1   6  101.46    5.02
  -4   1   6  106.24    5.14
  -3  -1   6  213.49    7.63
  -3   1   6  212.67    7.58
  -2  -1   6    4.13    0.82
   2   1  -6    4.61    0.83
  -2   1   6    4.68    0.88
  -2   1   6    6.16    0.80
  -1  -1   6  377.69    9.87
   1  -1  -6  335.75   10.47
  -1  -1   6  372.68   10.57
  -1   1   6  373.27   10.38
  -1   1   6  366.50   10.11
   1   1  -6  377.65   11.19
   0  -1  -6  110.61    4.12
   0  -1   6  113.31    3.83
   0  -1   6  113.26    3.93
   0   1   6  109.66    3.58
   0   1   6  100.63    3.92
   0   1  -6  111.40    4.63
  -1  -1  -6   70.18    3.33
   1  -1   6   74.74    3.08
   1   1   6   74.17    3.17
  -1   1  -6   72.46    3.66
  -2  -1  -6  182.86    7.02
  -2   1  -6  184.60    7.25
   2   1   6  192.92    6.46
  -3  -1  -6   11.21    1.71
  -3   1  -6    9.11    1.65
  -4  -2   6    8.21    1.48
  -4   2   6    5.96    1.24
  -3  -2   6   12.56    1.70
  -3   2   6    8.37    1.04
   3   2  -6    8.68    1.16
  -3   2   6    7.18    1.23
  -2  -2   6  400.27   11.47
   2   2  -6  320.86   11.08
  -2   2   6  401.58   11.33
  -2   2   6  398.10   10.64
  -1  -2   6    5.67    0.90
  -1  -2   6    9.60    0.73
   1   2  -6    7.66    1.46
  -1   2   6    8.75    1.05
  -1   2   6    8.65    1.04
   0  -2  -6    0.53    0.26
   0  -2   6    0.32    0.30
   0   2   6    0.17    0.16
   0   2  -6    0.19    0.77
   0   2   6   -0.01    0.42
  -1   2  -6  295.58   10.25
   1   2   6  300.24    9.16
   1   2   6  306.45    9.09
   2   2   6    2.22    0.84
  -2   2  -6    2.46    0.84
   2   2   6    0.87    0.42
  -3   2  -6    9.45    1.70
   3   2   6   10.60    1.55
   3   2   6   13.80    1.68
  -4  -3   6   83.32    4.45
  -4   3   6   78.73    4.42
  -3  -3   6  136.93    5.84
   3   3  -6  140.99    5.41
  -3   3   6  143.90    5.10
  -2  -3   6    3.58    0.80
   2   3  -6    2.60    0.94
  -2   3   6    3.85    0.74
  -1  -3   6  232.57    7.56
   1   3  -6  221.88    7.91
  -1   3   6  227.77    7.12
   0   3  -6  112.14    5.18
   0   3   6  109.47    4.20
   1   3   6   81.19    3.53
   1   3   6   70.77    3.22
  -1   3  -6   77.08    4.28
  -2   3  -6  145.85    6.61
   2   3   6  147.26    5.56
   2   3   6  142.62    5.47
   3   3   6    2.37    0.61
   3   3   6    2.90    0.90
  -3   3  -6    1.30    0.90
  -4  -4   6   64.97    3.88
   4   4  -6   64.79    3.54
  -4   4   6   65.04    3.37
  -3  -4   6   50.06    3.20
  -3   4   6   54.28    2.86
   3   4  -6   52.56    3.01
  -2  -4   6    3.55    0.84
  -2   4   6    5.86    0.98
   2   4  -6    4.97    1.09
   1   4  -6  157.07    6.17
  -1   4   6  158.86    5.61
   0   4  -6  135.10    6.07
   0   4   6  144.03    5.15
   1   4   6   18.99    1.49
  -1   4  -6   20.04    2.60
   1   4   6   17.49    1.52
   2   4   6   37.22    2.36
   2   4   6   38.62    2.46
  -2   4  -6   35.81    3.14
  -3   4  -6   77.35    4.92
   3   4   6   80.49    4.07
  -4  -5   6   36.05    3.13
   4   5  -6   42.13    2.87
  -4   5   6   40.65    2.68
  -3  -5   6   88.90    4.58
   3   5  -6   86.65    4.27
  -3   5   6   89.20    4.14
   2   5  -6    2.80    0.95
  -2   5   6    3.00    0.74
   1   5  -6  143.24    5.98
  -1   5   6  149.68    5.55
   0   5   6   26.32    1.89
   0   5  -6   25.15    2.50
   1   5   6   28.78    2.06
  -1   5  -6   24.35    3.02
   2   5   6   68.59    3.55
  -2   5  -6   68.41    4.60
   2   5   6   68.89    3.43
   3   5   6    3.34    0.95
  -3   6   6    6.01    1.20
   3   6  -6    5.03    1.12
  -2   6   6  103.21    4.62
   2   6  -6   97.64    4.71
   1   6  -6    3.97    1.16
  -1   6   6    2.32    0.69
   0   6  -6    1.88    1.04
   0   6   6    3.07    0.77
   1   6   6   99.08    4.41
  -1   6  -6   91.44    5.21
  -2   6  -6    2.05    1.29
  -1   7   6   46.32    2.92
   1   7  -6   46.47    3.25
   0   7  -6   27.22    2.54
   0   7   6   23.00    1.91
   1   7   6   22.20    1.86
  -1   7  -6   21.81    2.93
  -4   0   7    5.74    1.28
  -3   0   7  262.96    8.99
  -2   0   7   69.36    2.73
  -2   0   7   72.60    3.42
   1   0  -7   57.55    3.02
  -1   0   7   57.60    2.51
  -1   0   7   60.78    2.78
   0   0  -7  242.41    8.21
   0   0   7  239.68    7.35
   0   0   7  245.56    7.21
  -1   0  -7  132.70    5.47
   1   0   7  135.44    4.91
  -2   0  -7   79.66    4.14
   2   0   7   73.66    3.54
  -3   0  -7   72.82    4.31
  -4  -1   7    5.47    1.20
  -4   1   7    6.78    1.30
  -3  -1   7  106.84    4.81
  -3   1   7  103.59    4.73
  -2  -1   7  140.84    5.48
   2   1  -7  140.39    5.06
  -2   1   7  145.40    5.37
  -2   1   7  144.19    4.78
  -1  -1   7    1.73    0.49
  -1  -1   7    1.31    0.40
   1   1  -7    4.88    1.33
  -1   1   7    1.56    0.43
  -1   1   7    0.89    0.50
   0  -1   7  222.78    6.86
   0  -1   7  220.30    6.74
   0  -1  -7  216.70    7.30
   0   1   7  217.52    6.93
  -1  -1  -7   80.08    3.76
   1  -1   7   78.30    3.36
   1   1   7   79.69    3.48
  -1   1  -7   78.47    4.04
  -2  -1  -7   31.51    2.41
   2   1   7   34.65    2.26
  -2   1  -7   40.21    2.84
  -3  -1  -7   88.96    4.82
  -3   1  -7   86.17    4.90
  -4  -2   7  125.63    5.82
  -4   2   7  120.93    5.77
  -3  -2   7    6.30    1.20
  -3   2   7    5.75    1.15
  -3   2   7    7.31    1.00
  -2  -2   7   36.18    2.35
  -2   2   7   36.37    2.31
   2   2  -7   36.88    2.34
  -2   2   7   35.69    2.02
  -1  -2   7  338.79   10.34
  -1  -2   7  342.69    9.41
  -1   2   7  347.33    9.95
  -1   2   7  347.24   10.03
   0  -2   7   21.31    1.48
   0   2   7   24.78    1.75
   0   2  -7   22.03    2.28
  -1  -2  -7    2.98    0.72
   1   2   7    3.77    0.83
  -1   2  -7    3.60    1.14
   2   2   7  306.79    9.85
  -2   2  -7  319.54   11.30
  -3   2  -7    1.94    0.94
   3   2   7    3.31    0.90
  -4  -3   7    6.70    1.35
  -4   3   7    7.24    1.36
  -3  -3   7   73.12    4.01
  -3   3   7   76.25    3.98
  -3   3   7   75.04    3.39
   3   3  -7   77.44    3.64
  -2  -3   7  128.91    5.28
   2   3  -7  126.77    5.21
  -2   3   7  127.27    4.79
  -1  -3   7    6.49    1.08
  -1   3   7    5.64    0.96
   1   3  -7    7.90    1.52
   0   3  -7  146.83    6.35
   0   3   7  140.41    5.24
   1   3   7   39.57    2.47
  -1   3  -7   46.95    3.35
   1   3   7   46.61    2.48
  -2   3  -7   14.78    2.31
   2   3   7   13.71    1.75
   2   3   7   16.16    1.51
   3   3   7   76.45    3.86
   3   3   7   71.80    3.90
  -3   3  -7   73.78    4.81
  -4  -4   7    2.96    0.86
  -4   4   7    0.92    0.54
  -3  -4   7  147.25    6.38
   3   4  -7  143.45    5.89
  -3   4   7  149.56    5.63
  -2  -4   7   29.56    2.29
   2   4  -7   37.04    2.61
  -2   4   7   37.43    2.28
   1   4  -7   18.94    2.25
  -1   4   7   19.00    1.60
   0   4  -7  135.57    6.31
   0   4   7  142.08    5.31
   1   4   7   77.66    3.84
  -1   4  -7   86.97    4.95
   2   4   7   32.95    2.32
  -2   4  -7   30.69    2.99
   2   4   7   33.94    2.29
   3   4   7   43.04    2.75
   3   4   7   41.36    2.87
  -3  -5   7   52.13    3.38
   3   5  -7   50.52    3.14
  -3   5   7   43.86    2.79
   2   5  -7   37.21    2.66
  -2   5   7   37.84    2.44
   1   5  -7    2.05    0.91
  -1   5   7    1.09    0.42
   0   5   7   85.52    3.93
   0   5  -7   85.80    4.77
  -1   5  -7   31.99    3.08
   1   5   7   32.71    2.27
   2   5   7   30.82    2.25
  -2   5  -7   21.13    3.09
   2   6  -7   16.93    2.14
  -2   6   7   14.76    1.87
   1   6  -7  113.42    5.44
  -1   6   7  115.96    5.03
   0   6  -7    2.01    1.14
   0   6   7    2.47    0.67
   1   6   7    0.76    0.40
  -1   6  -7    1.71    1.05
   0   7   7   23.27    2.07
  -4   0   8   11.73    1.81
  -3   0   8   21.24    1.89
  -2   0   8  231.71    7.77
  -2   0   8  222.55    6.82
  -1   0   8   42.90    2.21
   0   0   8   73.33    3.22
  -1   0  -8  218.15    8.11
   1   0   8  218.04    7.26
  -2   0  -8  156.62    6.69
   2   0   8  144.99    5.77
  -3   0  -8   35.79    2.97
  -4  -1   8   80.81    4.51
  -4   1   8   80.99    4.44
  -3  -1   8    1.53    0.49
  -3   1   8    1.31    0.49
  -2  -1   8   98.78    4.33
  -2   1   8   93.24    3.67
  -2   1   8   97.06    4.20
  -1  -1   8   76.33    3.08
  -1  -1   8   79.57    3.55
  -1   1   8   79.92    3.34
   0  -1  -8    2.43    0.73
   0  -1   8    2.66    0.67
   0   1   8    2.64    0.74
   0   1  -8    2.92    1.03
  -1  -1  -8   66.87    3.57
   1  -1   8   67.69    3.20
  -1   1  -8   67.53    3.88
   1   1   8   70.49    3.34
  -2  -1  -8   36.88    2.70
  -2   1  -8   32.71    2.75
   2   1   8   35.71    2.37
  -3  -1  -8    3.09    1.03
  -3   1  -8    1.66    0.76
  -4  -2   8   27.21    2.45
  -4   2   8   31.02    2.58
  -3  -2   8  184.29    7.16
  -3   2   8  174.91    6.29
  -3   2   8  192.02    7.22
  -2  -2   8   31.31    2.25
  -2   2   8   32.93    1.99
  -2   2   8   31.62    2.16
  -1  -2   8    6.52    1.12
  -1   2   8    7.33    1.11
  -1   2   8    4.46    0.73
   1   2  -8    3.84    1.26
   0  -2   8  330.83    9.73
   0   2   8  337.00   10.14
   0   2  -8  332.94   11.57
  -1  -2  -8    3.86    0.93
   1   2   8    4.41    0.91
  -1   2  -8    2.32    1.01
  -2  -2  -8    0.77    0.49
  -2   2  -8   -0.17    0.42
   2   2   8    0.87    0.33
  -3  -2  -8  224.89    9.13
   3   2   8  216.36    8.13
  -4  -3   8   66.40    4.18
  -4   3   8   64.25    4.05
  -3  -3   8    0.39    0.27
  -3   3   8    0.07    0.27
  -3   3   8    0.16    0.32
  -2  -3   8   53.17    3.19
   2   3  -8   55.86    3.25
  -2   3   8   59.24    3.17
  -2   3   8   56.97    2.90
  -1  -3   8   55.52    3.06
   1   3  -8   48.37    3.35
  -1   3   8   53.71    2.81
   0   3   8    0.34    0.43
   0   3  -8    0.13    0.88
  -1   3  -8   68.41    4.25
   1   3   8   64.52    3.37
  -2  -3  -8   22.00    1.90
  -2   3  -8   20.31    2.74
   2   3   8   20.55    1.81
  -3  -4   8    8.24    1.54
  -3   4   8    7.56    1.26
  -3   4   8    7.05    1.13
   3   4  -8   10.69    1.58
  -2  -4   8  134.52    5.78
  -2   4   8  135.76    5.33
   2   4  -8  133.20    5.86
  -1   4   8   27.30    2.00
   1   4  -8   28.62    2.53
   0   4   8   25.85    2.00
   0   4  -8   37.63    3.12
  -1   4  -8  120.13    6.32
   1   4   8  129.41    5.30
  -2   4  -8   80.20    5.12
   2   4   8   83.91    4.18
  -3   5   8    1.64    0.62
   3   5  -8    2.86    0.80
  -2   5   8   48.00    2.92
   2   5  -8   48.85    3.28
   1   5  -8   24.02    2.36
  -1   5   8   25.67    2.03
   0   5   8    4.24    0.87
   0   5  -8    6.02    1.54
  -1   5  -8   17.76    2.72
   1   5   8   19.38    1.79
   2   5   8   13.18    1.78
   2   6  -8    5.95    1.28
   1   6  -8    7.81    1.59
  -1   6   8    5.76    1.11
   0   6   8  102.93    4.76
   0   6  -8  106.49    5.66
   1   6   8    0.40    0.45
  -4   0   9  173.09    7.43
  -3   0   9    4.37    0.87
  -2   0   9   75.12    3.73
  -1   0   9  267.47    8.59
  -1   0   9  280.96    8.41
   0   0  -9  131.78    5.75
   0   0   9  136.86    5.04
  -1   0  -9   45.75    3.10
   1   0   9   46.39    2.72
  -2   0  -9   96.35    5.16
   2   0   9  104.14    4.65
  -4  -1   9   25.59    3.06
  -4   1   9   26.84    2.37
  -3  -1   9   80.13    4.12
  -3   1   9   70.56    3.92
  -2  -1   9    4.24    0.92
  -2   1   9    4.85    0.90
  -2   1   9    5.23    1.01
  -1  -1   9   60.84    3.08
  -1  -1   9   55.98    2.68
  -1   1   9   60.72    2.93
   0  -1   9   71.45    3.27
   0   1   9   72.32    3.41
   0   1  -9   69.19    4.01
  -1  -1  -9    0.47    0.55
   1  -1   9    0.23    0.41
   1   1   9    0.05    0.37
  -1   1  -9    0.08    0.55
  -2  -1  -9   38.68    2.95
  -2   1  -9   37.99    3.04
   2   1   9   40.49    2.61
  -3  -2   9   19.69    1.87
  -3   2   9   17.48    1.70
  -2  -2   9  240.03    8.36
  -2   2   9  230.40    8.00
  -2   2   9  232.46    7.59
  -1  -2   9   24.98    1.95
  -1   2   9   30.16    2.03
   1   2  -9   29.58    2.52
   0  -2   9    5.09    0.87
   0   2  -9    4.87    1.47
   0   2   9    3.21    0.84
  -1   2  -9  344.52   12.33
   1   2   9  342.01   10.78
  -2   2  -9    0.86    0.70
   2   2   9    0.85    0.44
  -3  -3   9   64.90    3.85
  -3   3   9   65.91    3.79
  -3   3   9   63.73    3.26
  -2  -3   9    3.80    0.93
   2   3  -9    4.96    1.12
  -2   3   9    3.37    0.73
  -2   3   9    4.17    0.79
  -1  -3   9   51.06    3.00
   1   3  -9   51.87    3.60
  -1   3   9   52.12    2.88
   0   3   9   37.22    2.53
   0   3  -9   41.37    3.34
  -1   3  -9    0.44    0.67
   1   3   9    0.73    0.40
   2   3   9   27.81    2.21
  -2   3  -9   22.55    3.03
  -3  -4   9    7.31    1.27
  -3   4   9    3.71    0.92
  -3   4   9    6.63    1.14
  -2  -4   9   34.82    2.59
   2   4  -9   35.04    2.67
  -2   4   9   32.00    2.26
  -1   4   9  161.16    6.14
   1   4  -9  160.13    6.93
   0   4  -9   82.29    4.87
   0   4   9   78.04    3.91
   1   4   9   22.08    1.93
  -1   4  -9   27.35    3.45
   2   5  -9    1.39    0.83
  -2   5   9    0.35    0.37
   1   5  -9   16.57    2.34
  -1   5   9   13.65    1.83
   0   5   9   28.23    2.24
   0   5  -9   30.41    2.95
  -3   0  10  205.69    7.96
  -2   0  10   18.94    1.68
  -1   0  10   35.24    2.13
   0   0  10  260.78    8.48
  -1   0 -10   86.49    4.77
   1   0  10   85.56    4.08
  -2   0 -10   63.84    4.20
  -3  -1  10    6.01    1.14
  -3   1  10    3.66    0.92
  -2  -1  10   66.23    3.58
  -2   1  10   65.64    3.45
  -2   1  10   63.28    3.36
  -1   1  10   24.40    1.81
   0  -1  10   23.64    1.77
   0   1  10   24.92    1.91
   0   1 -10   25.42    2.90
   1  -1  10   68.56    3.54
   1   1  10   67.59    3.59
  -1   1 -10   75.22    4.43
  -2  -1 -10    5.16    1.22
  -2   1 -10    8.56    1.77
  -3  -2  10   47.45    3.20
  -3   2  10   49.77    3.19
  -2  -2  10   29.79    2.26
  -2   2  10   29.37    2.06
  -1  -2  10  322.91   10.31
  -1   2  10  311.62   10.05
   0  -2  10   10.91    1.39
   0   2  10   10.35    1.48
   0   2 -10   10.50    1.95
  -1   2 -10    0.76    0.90
   1   2  10    1.86    0.60
  -3   3  10    7.91    1.34
  -2  -3  10   38.29    2.72
  -2   3  10   40.74    2.53
  -1  -3  10   18.61    1.73
  -1   3  10   18.27    1.68
   1   3 -10   20.65    2.67
   0   3 -10   14.21    2.38
   0   3  10   14.55    1.87
  -1   3 -10   60.90    4.38
   1   3  10   61.73    3.48
  -2  -4  10   12.37    1.80
  -2   4  10   11.27    1.60
   2   4 -10   14.39    2.11
  -1   4  10   18.41    1.76
   1   4 -10   19.33    2.58
   0   4  10  154.55    6.31
   0   4 -10  153.86    7.35
  -3   0  11    9.54    1.51
  -1   0  11   36.09    2.25
   0   0  11   29.03    2.08
   1   0  11   70.78    3.70
  -3  -1  11   23.31    2.19
  -3   1  11   25.62    2.14
  -2  -1  11    2.07    0.59
  -1   1  11   54.90    3.01
   0  -1  11   33.61    2.22
   0   1  11   36.57    2.42
   1  -1  11    8.46    1.37
  -1   1 -11    8.76    1.76
  -3   2  11  128.36    5.89
  -2  -2  11   13.54    1.83
  -2   2  11   12.24    1.55
  -1   2  11   17.65    1.63
   0   2 -11  162.53    7.45
   0   2  11  161.73    6.36
  -1   2 -11   11.28    2.16
  -2  -3  11    0.90    0.46
  -2   3  11    1.23    0.52
  -1   3  11   52.13    3.17
   0   3 -11   18.83    2.83
   1   4 -11   25.44    3.07
  -1   1  12    2.12    0.66
   0  -1  12   65.20    3.42
   0   0   0    0.00    0.00
;
_shelx_hkl_checksum              34277
loop_
_space_group_symop_operation_xyz
'x, y, z'
'-x, y+1/2, -z'
'-x, -y, -z'
'x, -y-1/2, z'
loop_
_atom_site_label
_atom_site_type_symbol
_atom_site_fract_x
_atom_site_fract_y
_atom_site_fract_z
_atom_site_U_iso_or_equiv
_atom_site_adp_type
_atom_site_occupancy
_atom_site_site_symmetry_order
_atom_site_calc_flag
_atom_site_refinement_flags_posn
_atom_site_refinement_flags_adp
_atom_site_refinement_flags_occupancy
Ba1 Ba 0.18325(8) 0.2500 0.31122(3) 0.01652(15) Uani 1 2 d S T P
Cu1 Cu 0.5000 0.5000 0.0000 0.01209(19) Uani 1 2 d S . P
Cl1 Cl 0.7901(3) 0.2500 0.58185(15) 0.0152(3) Uani 1 2 d S T P
O1 O 0.2384(11) 0.2500 0.0041(5) 0.0152(9) Uani 1 2 d DS T P
O2 O 0.6385(8) 0.4696(5) 0.2069(3) 0.0161(6) Uani 1 1 d D . .
H1 H 0.127(17) 0.2500 -0.080(4) 0.04(3) Uiso 1 2 d DS . P
H2 H 0.668(15) 0.585(5) 0.239(7) 0.05(2) Uiso 1 1 d D . .
loop_
_atom_site_aniso_label
_atom_site_aniso_U_11
_atom_site_aniso_U_22
_atom_site_aniso_U_33
_atom_site_aniso_U_23
_atom_site_aniso_U_13
_atom_site_aniso_U_12
Ba1 0.0083(2) 0.0329(2) 0.0085(2) 0.000 0.00170(13) 0.000
Cu1 0.0172(4) 0.0107(3) 0.0081(3) 0.0000(2) 0.0015(3) 0.0026(3)
Cl1 0.0137(7) 0.0189(7) 0.0128(6) 0.000 0.0017(5) 0.000
O1 0.017(2) 0.015(2) 0.012(2) 0.000 0.0013(17) 0.000
O2 0.0246(16) 0.0127(14) 0.0099(13) -0.0008(11) -0.0001(12) -0.0010(12)
loop_
_atom_type_symbol
_atom_type_description
_atom_type_scat_dispersion_real
_atom_type_scat_dispersion_imag
_atom_type_scat_source
O O 0.0106 0.0060 'International Tables Vol C Tables 4.2.6.8 and 6.1.1.4'
Cl Cl 0.1484 0.1585 'International Tables Vol C Tables 4.2.6.8 and 6.1.1.4'
Cu Cu 0.3201 1.2651 'International Tables Vol C Tables 4.2.6.8 and 6.1.1.4'
Ba Ba -0.3244 2.2819 'International Tables Vol C Tables 4.2.6.8 and 6.1.1.4'
H H 0.0000 0.0000 'International Tables Vol C Tables 4.2.6.8 and 6.1.1.4'
loop_
_geom_angle_atom_site_label_1
_geom_angle_atom_site_label_2
_geom_angle_atom_site_label_3
_geom_angle
_geom_angle_site_symmetry_1
_geom_angle_site_symmetry_3
O2 Ba1 O2 65.94(13) . 4_565
O2 Ba1 O2 139.28(12) . 4_465
O2 Ba1 O2 99.76(10) 4_565 4_465
O2 Ba1 O2 99.76(10) . 1_455
O2 Ba1 O2 139.28(12) 4_565 1_455
O2 Ba1 O2 65.44(13) 4_465 1_455
O2 Ba1 O1 57.74(9) . .
O2 Ba1 O1 57.74(9) 4_565 .
O2 Ba1 O1 82.09(10) 4_465 .
O2 Ba1 O1 82.09(10) 1_455 .
O2 Ba1 Cl1 76.96(7) . .
O2 Ba1 Cl1 76.96(7) 4_565 .
O2 Ba1 Cl1 139.42(7) 4_465 .
O2 Ba1 Cl1 139.42(7) 1_455 .
O1 Ba1 Cl1 124.89(9) . .
O2 Ba1 Cl1 139.48(7) . 1_455
O2 Ba1 Cl1 139.48(7) 4_565 1_455
O2 Ba1 Cl1 76.55(7) 4_465 1_455
O2 Ba1 Cl1 76.55(7) 1_455 1_455
O1 Ba1 Cl1 154.54(9) . 1_455
Cl1 Ba1 Cl1 80.57(4) . 1_455
O2 Ba1 Cl1 129.37(7) . 3_656
O2 Ba1 Cl1 65.71(7) 4_565 3_656
O2 Ba1 Cl1 64.03(7) 4_465 3_656
O2 Ba1 Cl1 126.91(7) 1_455 3_656
O1 Ba1 Cl1 105.84(2) . 3_656
Cl1 Ba1 Cl1 78.50(2) . 3_656
Cl1 Ba1 Cl1 77.07(2) 1_455 3_656
O2 Ba1 Cl1 65.71(7) . 3_666
O2 Ba1 Cl1 129.37(7) 4_565 3_666
O2 Ba1 Cl1 126.91(7) 4_465 3_666
O2 Ba1 Cl1 64.03(7) 1_455 3_666
O1 Ba1 Cl1 105.84(2) . 3_666
Cl1 Ba1 Cl1 78.50(3) . 3_666
Cl1 Ba1 Cl1 77.07(2) 1_455 3_666
Cl1 Ba1 Cl1 147.72(5) 3_656 3_666
O2 Ba1 Cu1 66.96(7) . 2_645
O2 Ba1 Cu1 28.70(6) 4_565 2_645
O2 Ba1 Cu1 82.70(7) 4_465 2_645
O2 Ba1 Cu1 110.82(6) 1_455 2_645
O1 Ba1 Cu1 31.74(5) . 2_645
Cl1 Ba1 Cu1 104.95(3) . 2_645
Cl1 Ba1 Cu1 152.574(10) 1_455 2_645
Cl1 Ba1 Cu1 77.80(2) 3_656 2_645
Cl1 Ba1 Cu1 130.25(2) 3_666 2_645
O2 Ba1 Cu1 28.70(6) . .
O2 Ba1 Cu1 66.96(7) 4_565 .
O2 Ba1 Cu1 110.82(6) 4_465 .
O2 Ba1 Cu1 82.70(7) 1_455 .
O1 Ba1 Cu1 31.74(5) . .
Cl1 Ba1 Cu1 104.95(3) . .
Cl1 Ba1 Cu1 152.574(10) 1_455 .
Cl1 Ba1 Cu1 130.25(2) 3_656 .
Cl1 Ba1 Cu1 77.80(2) 3_666 .
Cu1 Ba1 Cu1 53.008(15) 2_645 .
O2 Ba1 Ba1 40.28(7) . 1_655
O2 Ba1 Ba1 40.28(7) 4_565 1_655
O2 Ba1 Ba1 140.05(7) 4_465 1_655
O2 Ba1 Ba1 140.05(7) 1_455 1_655
O1 Ba1 Ba1 75.08(9) . 1_655
Cl1 Ba1 Ba1 49.81(3) . 1_655
Cl1 Ba1 Ba1 130.38(3) 1_455 1_655
Cl1 Ba1 Ba1 91.10(2) 3_656 1_655
Cl1 Ba1 Ba1 91.10(2) 3_666 1_655
Cu1 Ba1 Ba1 60.78(2) 2_645 1_655
Cu1 Ba1 Ba1 60.78(2) . 1_655
O2 Cu1 O2 180.0 3_665 .
O2 Cu1 O1 92.39(15) 3_665 .
O2 Cu1 O1 87.61(15) . .
O2 Cu1 O1 87.61(15) 3_665 3_665
O2 Cu1 O1 92.39(15) . 3_665
O1 Cu1 O1 180.0 . 3_665
O2 Cu1 Ba1 136.78(10) 3_665 .
O2 Cu1 Ba1 43.22(10) . .
O1 Cu1 Ba1 49.14(11) . .
O1 Cu1 Ba1 130.86(11) 3_665 .
O2 Cu1 Ba1 43.22(10) 3_665 3_665
O2 Cu1 Ba1 136.78(10) . 3_665
O1 Cu1 Ba1 130.85(11) . 3_665
O1 Cu1 Ba1 49.14(11) 3_665 3_665
Ba1 Cu1 Ba1 180.0 . 3_665
Ba1 Cl1 Ba1 80.57(4) . 1_655
Ba1 Cl1 Ba1 101.50(3) . 3_666
Ba1 Cl1 Ba1 102.93(2) 1_655 3_666
Ba1 Cl1 Ba1 101.50(2) . 3_656
Ba1 Cl1 Ba1 102.93(2) 1_655 3_656
Ba1 Cl1 Ba1 147.72(5) 3_666 3_656
Cu1 O1 Cu1 113.8(2) . 2_645
Cu1 O1 Ba1 99.11(13) . .
Cu1 O1 Ba1 99.11(13) 2_645 .
Cu1 O1 H1 101(3) . .
Cu1 O1 H1 101(3) 2_645 .
Ba1 O1 H1 142(6) . .
Cu1 O2 Ba1 108.07(13) . .
Cu1 O2 Ba1 119.55(14) . 1_655
Ba1 O2 Ba1 99.76(10) . 1_655
Cu1 O2 H2 105(5) . .
Ba1 O2 H2 116(4) . .
Ba1 O2 H2 109(5) 1_655 .
loop_
_geom_bond_atom_site_label_1
_geom_bond_atom_site_label_2
_geom_bond_distance
_geom_bond_site_symmetry_2
Ba1 O2 2.693(3) .
Ba1 O2 2.693(3) 4_565
Ba1 O2 2.712(3) 4_465
Ba1 O2 2.712(3) 1_455
Ba1 O1 2.864(4) .
Ba1 Cl1 3.1917(18) .
Ba1 Cl1 3.2012(15) 1_455
Ba1 Cl1 3.4739(7) 3_656
Ba1 Cl1 3.4739(7) 3_666
Ba1 Cu1 3.7388(8) 2_645
Ba1 Cu1 3.7388(8) .
Ba1 Ba1 4.1335(8) 1_655
Cu1 O2 1.889(3) 3_665
Cu1 O2 1.889(3) .
Cu1 O1 1.992(2) .
Cu1 O1 1.992(2) 3_665
Cu1 Ba1 3.7389(8) 3_665
Cl1 Ba1 3.2011(15) 1_655
Cl1 Ba1 3.4739(7) 3_666
Cl1 Ba1 3.4739(7) 3_656
O1 Cu1 1.992(2) 2_645
O1 H1 0.82(2) .
O2 Ba1 2.712(3) 1_655
O2 H2 0.83(2) .
loop_
_geom_hbond_atom_site_label_D
_geom_hbond_atom_site_label_H
_geom_hbond_atom_site_label_A
_geom_hbond_distance_DH
_geom_hbond_distance_HA
_geom_hbond_distance_DA
_geom_hbond_angle_DHA
_geom_hbond_site_symmetry_A
O2 H2 Cl1 0.83(2) 2.93(5) 3.410(3) 119(5) 3_666
