#------------------------------------------------------------------------------
#$Date: 2019-11-17 14:32:48 +0200 (Sun, 17 Nov 2019) $
#$Revision: 230518 $
#$URL: file:///home/coder/svn-repositories/cod/cif/7/05/73/7057343.cif $
#------------------------------------------------------------------------------
#
# This file is available in the Crystallography Open Database (COD),
# http://www.crystallography.net/
#
# All data on this site have been placed in the public domain by the
# contributors.
#
data_7057343
loop_
_publ_author_name
'Zadesenets, Andrey V.'
'Filatov, Evgeniy Yu.'
'Plyusnin, Pavel E.'
'Asanova, Tatyana I.'
'Korolkov, Ilya V.'
'Baidina, Iraida A.'
'Shlyakhova, Elena V.'
'Asanov, Igor P.'
'Korenev, Sergey V.'
_publ_section_title
;
 Complex salts of Pd(ii) and Pt(ii) with Co(ii) and Ni(ii) aqua-cations as
 single-source precursors for bimetallic nanoalloys and mixed oxides
;
_journal_issue                   11
_journal_name_full               'New Journal of Chemistry'
_journal_page_first              8843
_journal_paper_doi               10.1039/C8NJ00956B
_journal_volume                  42
_journal_year                    2018
_chemical_formula_moiety         Ba[Pt(NO2)4]*3H2O
_chemical_formula_sum            'Ba H6 N4 O11 Pt'
_chemical_formula_weight         570.52
_chemical_name_common            'barium tetranitroplatinate(II) trihydrate'
_chemical_name_systematic        'barium tetranitroplatinate(II) trihydrate'
_space_group_crystal_system      triclinic
_space_group_IT_number           2
_space_group_name_Hall           '-P 1'
_space_group_name_H-M_alt        'P -1'
_symmetry_space_group_name_Hall  '-P 1'
_symmetry_space_group_name_H-M   'P -1'
_atom_sites_solution_hydrogens   difmap
_audit_creation_method           SHELXL-2016/4
_audit_update_record
;
2017-12-10 deposited with the CCDC.
2018-04-06 downloaded from the CCDC.
;
_cell_angle_alpha                81.036(2)
_cell_angle_beta                 71.001(2)
_cell_angle_gamma                60.479(2)
_cell_formula_units_Z            2
_cell_length_a                   8.3841(7)
_cell_length_b                   8.4220(7)
_cell_length_c                   9.5643(8)
_cell_measurement_reflns_used    7763
_cell_measurement_temperature    296(2)
_cell_measurement_theta_max      31.18
_cell_measurement_theta_min      2.25
_cell_volume                     555.65(8)
_computing_structure_refinement  'SHELXL-2016/4 (Sheldrick, 2016)'
_diffrn_ambient_temperature      296(2)
_diffrn_measured_fraction_theta_full 0.600
_diffrn_measured_fraction_theta_max 0.658
_diffrn_measurement_device_type  'Bruker Apex DUO'
_diffrn_measurement_method       '\f and \w scans'
_diffrn_radiation_type           MoK\a
_diffrn_radiation_wavelength     0.71073
_diffrn_reflns_av_R_equivalents  0.0278
_diffrn_reflns_av_unetI/netI     0.0315
_diffrn_reflns_Laue_measured_fraction_full 0.600
_diffrn_reflns_Laue_measured_fraction_max 0.658
_diffrn_reflns_limit_h_max       12
_diffrn_reflns_limit_h_min       -12
_diffrn_reflns_limit_k_max       12
_diffrn_reflns_limit_k_min       -12
_diffrn_reflns_limit_l_max       13
_diffrn_reflns_limit_l_min       -13
_diffrn_reflns_number            7763
_diffrn_reflns_point_group_measured_fraction_full 0.600
_diffrn_reflns_point_group_measured_fraction_max 0.658
_diffrn_reflns_theta_full        25.242
_diffrn_reflns_theta_max         31.179
_diffrn_reflns_theta_min         2.252
_diffrn_source                   'fine-focus sealed tube'
_diffrn_standards_decay_%        0
_diffrn_standards_interval_time  1
_diffrn_standards_number         0
_exptl_absorpt_coefficient_mu    16.158
_exptl_absorpt_correction_type   multi-scan
_exptl_crystal_colour            'pale yellow'
_exptl_crystal_density_diffrn    3.410
_exptl_crystal_description       prismatic
_exptl_crystal_F_000             512
_exptl_crystal_size_max          0.250
_exptl_crystal_size_mid          0.130
_exptl_crystal_size_min          0.090
_exptl_transmission_factor_max   0.3242
_exptl_transmission_factor_min   0.1071
_refine_diff_density_max         1.888
_refine_diff_density_min         -0.731
_refine_diff_density_rms         0.143
_refine_ls_extinction_coef       0.0020(2)
_refine_ls_extinction_expression Fc^*^=kFc[1+0.001xFc^2^\l^3^/sin(2\q)]^-1/4^
_refine_ls_extinction_method     'SHELXL-2016/4 (Sheldrick 2016)'
_refine_ls_goodness_of_fit_ref   1.072
_refine_ls_hydrogen_treatment    refall
_refine_ls_matrix_type           full
_refine_ls_number_parameters     182
_refine_ls_number_reflns         2364
_refine_ls_number_restraints     9
_refine_ls_restrained_S_all      1.074
_refine_ls_R_factor_all          0.0157
_refine_ls_R_factor_gt           0.0152
_refine_ls_shift/su_max          0.143
_refine_ls_shift/su_mean         0.007
_refine_ls_structure_factor_coef Fsqd
_refine_ls_weighting_details
'w=1/[\s^2^(Fo^2^)+(0.0097P)^2^] where P=(Fo^2^+2Fc^2^)/3'
_refine_ls_weighting_scheme      calc
_refine_ls_wR_factor_gt          0.0378
_refine_ls_wR_factor_ref         0.0380
_reflns_Friedel_coverage         0.000
_reflns_number_gt                2313
_reflns_number_total             2364
_reflns_threshold_expression     'I > 2\s(I)'
_cod_data_source_file            c8nj00956b2.cif
_cod_data_source_block           BaPt
_cod_depositor_comments
'Adding full bibliography for 7057339--7057343.cif.'
_cod_database_code               7057343
_shelx_shelxl_version_number     2016/4
_shelx_space_group_comment
;
The symmetry employed for this shelxl refinement is uniquely defined
by the following loop, which should always be used as a source of
symmetry information in preference to the above space-group names.
They are only intended as comments.
;
_shelx_estimated_absorpt_t_min   0.107
_shelx_estimated_absorpt_t_max   0.324
_shelx_res_file
;
REM  mo_baid0613_1m in P-1
REM R1 =  0.0152 for   2313 Fo > 4sig(Fo)  and  0.0157 for all   2364 data
REM    182 parameters refined using      9 restraints
REM Highest difference peak  1.889,  deepest hole -0.731,  1-sigma level  0.143
TITL mo_baid0613_1m in P-1
 D:\KIV-Job\KIV\2017\ZADESE~1\baid0613\baid0613\a.res created by SHELXL-2016/4 at 14:11:35 on 10-Dec-2017
CELL 0.71073 8.3841 8.4220 9.5643 81.036 71.001 60.479
ZERR 2.0000 0.0007 0.0007 0.0008 0.002 0.002 0.002
LATT 1
SFAC N H O BA PT
UNIT 8 12 22 2 2
MERG 2
OMIT 0 180
FMAP 2
GRID
PLAN 10
TEMP 23
SIZE 0.13 0.09 0.25
BOND
DFIX 0.95 0.05 o1w h1w1
DFIX 0.95 0.05 o1w h2w1
DFIX 1.8 0.05 h1w1 h2w1
DFIX 0.95 0.05 o2w h1w2
DFIX 0.95 0.05 o2w h2w2
DFIX 1.8 0.05 h1w2 h2w2
DFIX 0.95 0.05 o3w h1w3
DFIX 0.95 0.05 o3w h2w3
DFIX 1.8 0.05 h1w3 h2w3
L.S. 1
ACTA
WGHT    0.009700
EXTI    0.001999
FVAR       0.12784
BA1   4    0.272848    0.065352    0.355613    11.00000    0.00838    0.00771 =
         0.00960   -0.00061   -0.00265   -0.00407
PT1   5    0.500000   -0.500000    0.500000    10.50000    0.00672    0.00486 =
         0.00910   -0.00028   -0.00212   -0.00272
PT2   5    0.500000   -0.500000    0.000000    10.50000    0.01021    0.00820 =
         0.00930   -0.00081   -0.00313   -0.00458
O41   3    0.238417   -0.193201    0.196169    11.00000    0.01602    0.01757 =
         0.02483   -0.00942   -0.00107   -0.00637
N1    1    0.214642   -0.335249    0.573557    11.00000    0.00887    0.00782 =
         0.01370   -0.00035   -0.00403   -0.00331
O31   3    0.811510   -0.752860    0.113456    11.00000    0.02427    0.01925 =
         0.03032    0.00687   -0.01773   -0.00993
O11   3    0.107322   -0.400237    0.640001    11.00000    0.01290    0.01260 =
         0.02308   -0.00154    0.00173   -0.00728
N2    1    0.435119   -0.666340    0.427022    11.00000    0.00833    0.00868 =
         0.01057   -0.00054   -0.00145   -0.00416
O21   3    0.492832   -0.828617    0.469423    11.00000    0.01754    0.00752 =
         0.02357    0.00332   -0.01117   -0.00677
N3    1    0.238091   -0.378421   -0.027688    11.00000    0.01413    0.01211 =
         0.01794   -0.00245   -0.00656   -0.00537
N4    1    0.410413   -0.299712    0.143563    11.00000    0.01569    0.00965 =
         0.01219    0.00034   -0.00388   -0.00715
O22   3    0.330043   -0.607602    0.345247    11.00000    0.02034    0.01240 =
         0.01882    0.00276   -0.01258   -0.00760
O42   3    0.528372   -0.280994    0.181799    11.00000    0.01971    0.02539 =
         0.02974   -0.01152   -0.00913   -0.00987
O32   3    0.121331   -0.432738    0.043649    11.00000    0.01604    0.02164 =
         0.03689    0.00394   -0.00786   -0.01129
O12   3    0.141804   -0.167098    0.549008    11.00000    0.00824    0.00461 =
         0.02527    0.00111   -0.00508    0.00082
O1W   3    0.197563    0.189210    0.086753    11.00000    0.01694    0.01722 =
         0.01657    0.00210   -0.00752   -0.00484
O2W   3   -0.099892   -0.225773    0.369900    11.00000    0.02842    0.04910 =
         0.01921   -0.01320    0.00361   -0.02558
O3W   3    0.613611    0.028939    0.164359    11.00000    0.04821    0.05996 =
         0.03414   -0.03154    0.02575   -0.04653
H1W1  2    0.253626    0.258710    0.094487    11.00000    0.13367
H2W1  2    0.096910    0.195460    0.058371    11.00000    0.19193
H1W2  2   -0.007529   -0.200003    0.312200    11.00000    0.07838
H2W2  2   -0.128744   -0.324974    0.354748    11.00000    0.10406
H1W3  2    0.677870   -0.056210    0.076578    11.00000    0.03861
H2W3  2    0.644141    0.135588    0.140352    11.00000    0.07185
HKLF 4




REM  mo_baid0613_1m in P-1
REM R1 =  0.0152 for    2313 Fo > 4sig(Fo)  and  0.0157 for all    2364 data
REM    182 parameters refined using      9 restraints

END

WGHT      0.0097      0.0000

REM Highest difference peak  1.888,  deepest hole -0.731,  1-sigma level  0.143
Q1    1   0.5769 -0.4756  0.4575  11.00000  0.05    1.89
Q2    1   0.4220 -0.5245  0.0446  11.00000  0.05    1.86
Q3    1   0.3426  0.1016  0.3162  11.00000  0.05    1.47
Q4    1   0.1969  0.0350  0.3965  11.00000  0.05    1.22
Q5    1   0.3169 -0.3862  0.5234  11.00000  0.05    0.63
Q6    1   0.3162 -0.5288  0.5588  11.00000  0.05    0.60
Q7    1   0.4417 -0.5969  0.4692  11.00000  0.05    0.55
Q8    1   0.5629 -0.5788  0.4536  11.00000  0.05    0.54
Q9    1   0.4522 -0.7944  0.5666  11.00000  0.05    0.52
Q10   1   0.3470  0.2036  0.1454  11.00000  0.05    0.49
;
_shelx_res_checksum              11433
loop_
_space_group_symop_operation_xyz
'x, y, z'
'-x, -y, -z'
loop_
_atom_site_label
_atom_site_type_symbol
_atom_site_fract_x
_atom_site_fract_y
_atom_site_fract_z
_atom_site_U_iso_or_equiv
_atom_site_adp_type
_atom_site_occupancy
_atom_site_site_symmetry_order
_atom_site_calc_flag
_atom_site_refinement_flags_posn
_atom_site_refinement_flags_occupancy
BA1 Ba 0.27285(2) 0.06535(2) 0.35561(2) 0.00835(5) Uani 1 1 d . .
PT1 Pt 0.500000 -0.500000 0.500000 0.00690(5) Uani 1 2 d S P
PT2 Pt 0.500000 -0.500000 0.000000 0.00894(5) Uani 1 2 d S P
O41 O 0.2384(4) -0.1932(4) 0.1962(3) 0.0203(5) Uani 1 1 d . .
N1 N 0.2146(4) -0.3352(4) 0.5736(3) 0.0102(5) Uani 1 1 d . .
O31 O 0.8115(4) -0.7529(4) 0.1135(3) 0.0229(5) Uani 1 1 d . .
O11 O 0.1073(4) -0.4002(3) 0.6400(3) 0.0173(5) Uani 1 1 d . .
N2 N 0.4351(4) -0.6663(4) 0.4270(3) 0.0094(5) Uani 1 1 d . .
O21 O 0.4928(4) -0.8286(3) 0.4694(3) 0.0148(4) Uani 1 1 d . .
N3 N 0.2381(4) -0.3784(4) -0.0277(3) 0.0143(5) Uani 1 1 d . .
N4 N 0.4104(4) -0.2997(4) 0.1436(3) 0.0121(5) Uani 1 1 d . .
O22 O 0.3300(4) -0.6076(3) 0.3452(3) 0.0157(4) Uani 1 1 d . .
O42 O 0.5284(4) -0.2810(4) 0.1818(3) 0.0233(6) Uani 1 1 d . .
O32 O 0.1213(4) -0.4327(4) 0.0436(3) 0.0242(6) Uani 1 1 d . .
O12 O 0.1418(3) -0.1671(3) 0.5490(3) 0.0145(4) Uani 1 1 d . .
O1W O 0.1976(4) 0.1892(4) 0.0868(3) 0.0179(5) Uani 1 1 d D .
O2W O -0.0999(5) -0.2258(5) 0.3699(3) 0.0302(7) Uani 1 1 d D .
O3W O 0.6136(6) 0.0289(6) 0.1644(4) 0.0443(10) Uani 1 1 d D .
H1W1 H 0.254(17) 0.259(15) 0.094(14) 0.13(4) Uiso 1 1 d D .
H2W1 H 0.097(17) 0.20(2) 0.058(16) 0.19(7) Uiso 1 1 d D .
H1W2 H -0.008(10) -0.200(12) 0.312(9) 0.08(2) Uiso 1 1 d D .
H2W2 H -0.129(13) -0.325(11) 0.355(11) 0.10(3) Uiso 1 1 d D .
H1W3 H 0.678(8) -0.056(7) 0.077(5) 0.039(15) Uiso 1 1 d D .
H2W3 H 0.644(11) 0.136(8) 0.140(8) 0.07(2) Uiso 1 1 d D .
loop_
_atom_site_aniso_label
_atom_site_aniso_U_11
_atom_site_aniso_U_22
_atom_site_aniso_U_33
_atom_site_aniso_U_23
_atom_site_aniso_U_13
_atom_site_aniso_U_12
BA1 0.00838(9) 0.00771(8) 0.00960(8) -0.00061(6) -0.00265(6) -0.00407(7)
PT1 0.00672(8) 0.00486(8) 0.00910(8) -0.00028(5) -0.00212(6) -0.00272(7)
PT2 0.01021(8) 0.00820(8) 0.00930(8) -0.00081(5) -0.00313(6) -0.00458(7)
O41 0.0160(12) 0.0176(12) 0.0248(13) -0.0094(10) -0.0011(10) -0.0064(11)
N1 0.0089(11) 0.0078(11) 0.0137(12) -0.0004(9) -0.0040(9) -0.0033(11)
O31 0.0243(13) 0.0193(13) 0.0303(14) 0.0069(11) -0.0177(12) -0.0099(13)
O11 0.0129(11) 0.0126(11) 0.0231(12) -0.0015(9) 0.0017(9) -0.0073(10)
N2 0.0083(11) 0.0087(11) 0.0106(11) -0.0005(9) -0.0015(9) -0.0042(11)
O21 0.0175(11) 0.0075(10) 0.0236(12) 0.0033(9) -0.0112(10) -0.0068(10)
N3 0.0141(12) 0.0121(12) 0.0179(13) -0.0024(10) -0.0066(10) -0.0054(12)
N4 0.0157(12) 0.0096(12) 0.0122(11) 0.0003(9) -0.0039(10) -0.0071(12)
O22 0.0203(12) 0.0124(11) 0.0188(11) 0.0028(9) -0.0126(10) -0.0076(11)
O42 0.0197(12) 0.0254(14) 0.0297(14) -0.0115(11) -0.0091(11) -0.0099(13)
O32 0.0160(12) 0.0216(14) 0.0369(16) 0.0039(12) -0.0079(12) -0.0113(12)
O12 0.0082(10) 0.0046(10) 0.0253(12) 0.0011(9) -0.0051(9) 0.0008(9)
O1W 0.0169(12) 0.0172(12) 0.0166(12) 0.0021(10) -0.0075(10) -0.0048(11)
O2W 0.0284(15) 0.049(2) 0.0192(13) -0.0132(13) 0.0036(11) -0.0256(17)
O3W 0.048(2) 0.060(2) 0.0341(17) -0.0315(16) 0.0258(15) -0.047(2)
loop_
_atom_type_symbol
_atom_type_description
_atom_type_scat_dispersion_real
_atom_type_scat_dispersion_imag
_atom_type_scat_source
N N 0.0061 0.0033 'International Tables Vol C Tables 4.2.6.8 and 6.1.1.4'
H H 0.0000 0.0000 'International Tables Vol C Tables 4.2.6.8 and 6.1.1.4'
O O 0.0106 0.0060 'International Tables Vol C Tables 4.2.6.8 and 6.1.1.4'
Ba Ba -0.3244 2.2819 'International Tables Vol C Tables 4.2.6.8 and 6.1.1.4'
Pt Pt -1.7033 8.3905 'International Tables Vol C Tables 4.2.6.8 and 6.1.1.4'
loop_
_geom_angle_atom_site_label_1
_geom_angle_atom_site_label_2
_geom_angle_atom_site_label_3
_geom_angle
_geom_angle_site_symmetry_1
_geom_angle_site_symmetry_3
O3W BA1 O2W 126.26(8) . 2_556
O3W BA1 O1W 75.08(11) . .
O2W BA1 O1W 131.50(10) 2_556 .
O3W BA1 O21 83.02(11) . 2_646
O2W BA1 O21 74.86(9) 2_556 2_646
O1W BA1 O21 152.76(8) . 2_646
O3W BA1 O12 136.50(11) . .
O2W BA1 O12 73.29(8) 2_556 .
O1W BA1 O12 124.18(7) . .
O21 BA1 O12 63.87(6) 2_646 .
O3W BA1 O21 63.50(8) . 1_565
O2W BA1 O21 63.14(7) 2_556 1_565
O1W BA1 O21 122.01(6) . 1_565
O21 BA1 O21 58.43(7) 2_646 1_565
O12 BA1 O21 113.80(6) . 1_565
O3W BA1 O12 156.59(11) . 2_556
O2W BA1 O12 69.92(8) 2_556 2_556
O1W BA1 O12 81.53(7) . 2_556
O21 BA1 O12 119.62(6) 2_646 2_556
O12 BA1 O12 59.87(8) . 2_556
O21 BA1 O12 131.63(7) 1_565 2_556
O3W BA1 O42 62.97(8) . .
O2W BA1 O42 146.63(10) 2_556 .
O1W BA1 O42 80.70(8) . .
O21 BA1 O42 74.95(7) 2_646 .
O12 BA1 O42 80.90(7) . .
O21 BA1 O42 110.99(7) 1_565 .
O12 BA1 O42 114.45(6) 2_556 .
O3W BA1 O22 65.95(9) . 1_565
O2W BA1 O22 71.00(8) 2_556 1_565
O1W BA1 O22 85.07(7) . 1_565
O21 BA1 O22 100.76(6) 2_646 1_565
O12 BA1 O22 143.81(7) . 1_565
O21 BA1 O22 42.34(6) 1_565 1_565
O12 BA1 O22 111.49(6) 2_556 1_565
O42 BA1 O22 128.89(7) . 1_565
O3W BA1 O41 96.55(8) . .
O2W BA1 O41 135.56(7) 2_556 .
O1W BA1 O41 64.91(7) . .
O21 BA1 O41 102.48(7) 2_646 .
O12 BA1 O41 66.51(7) . .
O21 BA1 O41 152.38(7) 1_565 .
O12 BA1 O41 73.98(7) 2_556 .
O42 BA1 O41 41.51(6) . .
O22 BA1 O41 148.78(7) 1_565 .
O3W BA1 O11 122.47(11) . 2_556
O2W BA1 O11 70.15(9) 2_556 2_556
O1W BA1 O11 62.60(8) . 2_556
O21 BA1 O11 144.60(7) 2_646 2_556
O12 BA1 O11 100.18(6) . 2_556
O21 BA1 O11 108.15(6) 1_565 2_556
O12 BA1 O11 41.56(6) 2_556 2_556
O42 BA1 O11 136.48(7) . 2_556
O22 BA1 O11 73.02(6) 1_565 2_556
O41 BA1 O11 98.63(7) . 2_556
N2 PT1 N2 180.0 2_646 .
N2 PT1 N1 93.68(10) 2_646 .
N2 PT1 N1 86.32(10) . .
N2 PT1 N1 86.32(10) 2_646 2_646
N2 PT1 N1 93.68(10) . 2_646
N1 PT1 N1 180.0 . 2_646
N3 PT2 N3 180.0 2_645 .
N3 PT2 N4 89.41(11) 2_645 2_645
N3 PT2 N4 90.59(11) . 2_645
N3 PT2 N4 90.59(11) 2_645 .
N3 PT2 N4 89.41(11) . .
N4 PT2 N4 180.0 2_645 .
N4 O41 BA1 99.25(16) . .
O11 N1 O12 118.4(3) . .
O11 N1 PT1 120.1(2) . .
O12 N1 PT1 121.45(16) . .
N1 O11 BA1 98.68(19) . 2_556
O22 N2 O21 118.9(2) . .
O22 N2 PT1 120.49(19) . .
O21 N2 PT1 120.49(18) . .
N2 O21 BA1 137.60(16) . 2_646
N2 O21 BA1 100.59(15) . 1_545
BA1 O21 BA1 121.57(7) 2_646 1_545
O32 N3 O31 119.1(3) . 2_645
O32 N3 PT2 119.5(2) . .
O31 N3 PT2 121.40(19) 2_645 .
O41 N4 O42 118.0(3) . .
O41 N4 PT2 121.63(19) . .
O42 N4 PT2 120.4(2) . .
N2 O22 BA1 97.71(15) . 1_545
N4 O42 BA1 100.8(2) . .
N1 O12 BA1 134.78(18) . .
N1 O12 BA1 100.68(14) . 2_556
BA1 O12 BA1 120.13(8) . 2_556
loop_
_geom_bond_atom_site_label_1
_geom_bond_atom_site_label_2
_geom_bond_distance
_geom_bond_site_symmetry_2
BA1 O3W 2.741(3) .
BA1 O2W 2.742(3) 2_556
BA1 O1W 2.770(2) .
BA1 O21 2.806(2) 2_646
BA1 O12 2.851(2) .
BA1 O21 2.935(2) 1_565
BA1 O12 2.983(2) 2_556
BA1 O42 2.983(3) .
BA1 O22 3.002(2) 1_565
BA1 O41 3.015(2) .
BA1 O11 3.034(3) 2_556
PT1 N2 2.012(2) 2_646
PT1 N2 2.012(2) .
PT1 N1 2.020(3) .
PT1 N1 2.020(3) 2_646
PT2 N3 2.005(3) 2_645
PT2 N3 2.005(3) .
PT2 N4 2.024(3) 2_645
PT2 N4 2.024(3) .
O41 N4 1.237(4) .
N1 O11 1.232(3) .
N1 O12 1.253(3) .
O31 N3 1.247(4) 2_645
O11 BA1 3.034(3) 2_556
N2 O22 1.237(3) .
N2 O21 1.253(3) .
O21 BA1 2.806(2) 2_646
O21 BA1 2.936(2) 1_545
N3 O32 1.242(3) .
N3 O31 1.247(4) 2_645
N4 O42 1.242(3) .
O22 BA1 3.002(2) 1_545
O12 BA1 2.983(2) 2_556
O2W BA1 2.742(3) 2_556
