#------------------------------------------------------------------------------
#$Date: 2021-10-06 19:00:37 +0300 (Wed, 06 Oct 2021) $
#$Revision: 269742 $
#$URL: file:///home/coder/svn-repositories/cod/cif/7/06/09/7060927.cif $
#------------------------------------------------------------------------------
#
# This file is available in the Crystallography Open Database (COD),
# http://www.crystallography.net/
#
# All data on this site have been placed in the public domain by the
# contributors.
#
data_7060927
loop_
_publ_author_name
'Chen, Zhen'
'Zeng, Hao'
'Han, Shujuan'
'Yang, Zhihua'
'Pan, Shilie'
_publ_section_title
;
 From BaCl2 to Ba(NO3)Cl: significantly enhanced birefringence derived
 from \p-conjugated [NO3]
;
_journal_issue                   37
_journal_name_full               'New Journal of Chemistry'
_journal_page_first              17544
_journal_page_last               17550
_journal_paper_doi               10.1039/D1NJ03282H
_journal_volume                  45
_journal_year                    2021
_chemical_formula_moiety         'Ba Cl N O3'
_chemical_formula_sum            'Ba Cl N O3'
_chemical_formula_weight         234.80
_space_group_crystal_system      orthorhombic
_space_group_IT_number           62
_space_group_name_Hall           '-P 2ac 2n'
_space_group_name_H-M_alt        'P n m a'
_audit_creation_date             2020-12-26
_audit_creation_method
;
Olex2 1.3
(compiled 2020.11.12 svn.r5f609507 for OlexSys, GUI svn.r6226)
;
_audit_update_record
;
2021-03-30 deposited with the CCDC.	2021-08-23 downloaded from the CCDC.
;
_cell_angle_alpha                90
_cell_angle_beta                 90
_cell_angle_gamma                90
_cell_formula_units_Z            4
_cell_length_a                   8.9108(6)
_cell_length_b                   5.2991(4)
_cell_length_c                   8.3414(6)
_cell_measurement_reflns_used    1900
_cell_measurement_temperature    302.0
_cell_measurement_theta_max      27.421
_cell_measurement_theta_min      3.345
_cell_volume                     393.87(5)
_computing_cell_refinement       'SAINT V8.38A (Bruker, 2018)'
_computing_data_collection       'Bruker APEX2'
_computing_data_reduction        'SAINT V8.38A (Bruker, 2018)'
_computing_molecular_graphics    'Olex2 1.3 (Dolomanov et al., 2009)'
_computing_publication_material  'Olex2 1.3 (Dolomanov et al., 2009)'
_computing_structure_refinement  'XL  (Sheldrick, 2008)'
_computing_structure_solution    'SHELXT 2014/5 (Sheldrick, 2014)'
_diffrn_ambient_temperature      302.0
_diffrn_measured_fraction_theta_full 0.962
_diffrn_measured_fraction_theta_max 0.960
_diffrn_measurement_device_type  'Bruker APEX-II CCD'
_diffrn_measurement_method       '\f and \w scans'
_diffrn_radiation_type           MoK\a
_diffrn_radiation_wavelength     0.71073
_diffrn_reflns_av_R_equivalents  0.0523
_diffrn_reflns_av_unetI/netI     0.0270
_diffrn_reflns_Laue_measured_fraction_full 0.962
_diffrn_reflns_Laue_measured_fraction_max 0.960
_diffrn_reflns_limit_h_max       11
_diffrn_reflns_limit_h_min       -10
_diffrn_reflns_limit_k_max       6
_diffrn_reflns_limit_k_min       -6
_diffrn_reflns_limit_l_max       10
_diffrn_reflns_limit_l_min       -10
_diffrn_reflns_number            4077
_diffrn_reflns_point_group_measured_fraction_full 0.962
_diffrn_reflns_point_group_measured_fraction_max 0.960
_diffrn_reflns_theta_full        25.242
_diffrn_reflns_theta_max         27.504
_diffrn_reflns_theta_min         3.345
_diffrn_source_current           1.39
_diffrn_source_power             0.0695
_diffrn_source_voltage           50.0
_exptl_absorpt_coefficient_mu    10.608
_exptl_absorpt_correction_T_max  0.5487
_exptl_absorpt_correction_T_min  0.3780
_exptl_absorpt_correction_type   multi-scan
_exptl_absorpt_process_details
;
SADABS-2016/2 (Bruker,2016/2) was used for absorption correction. 
wR2(int) was 0.0743 before and 0.0566 after correction. 
The Ratio of minimum to maximum transmission is 0.6889. 
The \l/2 correction factor is Not present. 
;
_exptl_crystal_colour            'clear light colourless'
_exptl_crystal_colour_lustre     clear
_exptl_crystal_colour_modifier   light
_exptl_crystal_colour_primary    colourless
_exptl_crystal_density_diffrn    3.960
_exptl_crystal_description       block
_exptl_crystal_F_000             416
_exptl_crystal_size_max          0.122
_exptl_crystal_size_mid          0.077
_exptl_crystal_size_min          0.069
_refine_diff_density_max         0.766
_refine_diff_density_min         -0.762
_refine_diff_density_rms         0.168
_refine_ls_extinction_coef       0.0022(4)
_refine_ls_extinction_expression Fc^*^=kFc[1+0.001xFc^2^\l^3^/sin(2\q)]^-1/4^
_refine_ls_extinction_method     'SHELXL-2016/6 (Sheldrick 2016)'
_refine_ls_goodness_of_fit_ref   1.005
_refine_ls_hydrogen_treatment    undef
_refine_ls_matrix_type           full
_refine_ls_number_parameters     35
_refine_ls_number_reflns         478
_refine_ls_number_restraints     0
_refine_ls_restrained_S_all      1.005
_refine_ls_R_factor_all          0.0236
_refine_ls_R_factor_gt           0.0166
_refine_ls_shift/su_max          0.001
_refine_ls_shift/su_mean         0.000
_refine_ls_structure_factor_coef Fsqd
_refine_ls_weighting_details
'w=1/[\s^2^(Fo^2^)+(0.0104P)^2^] where P=(Fo^2^+2Fc^2^)/3'
_refine_ls_weighting_scheme      calc
_refine_ls_wR_factor_gt          0.0277
_refine_ls_wR_factor_ref         0.0295
_reflns_Friedel_coverage         0.000
_reflns_number_gt                420
_reflns_number_total             478
_reflns_threshold_expression     'I > 2\s(I)'
_iucr_refine_instructions_details
;
TITL 11_a.res in Pnma
    11.res
    created by SHELXL-2016/6 at 22:14:48 on 26-Dec-2020
REM Old TITL 11 in Pnma
REM SHELXT solution in Pnma
REM R1 0.031, Rweak 0.001, Alpha 0.011, Orientation as input
REM Formula found by SHELXT: N O3 Cl Ba
CELL 0.71073 8.9108 5.2991 8.3414 90 90 90
ZERR 4 0.0006 0.0004 0.0006 0 0 0
LATT 1
SYMM 0.5-X,-Y,0.5+Z
SYMM -X,0.5+Y,-Z
SYMM 0.5+X,0.5-Y,0.5-Z
SFAC Ba Cl N O
UNIT 4 4 4 12

L.S. 4 0 0
PLAN  5
SIZE 0.069 0.077 0.122
TEMP 28.85
CONF
list 4
MORE -1
fmap 2 53
acta
REM <olex2.extras>
REM <HklSrc "%.\\11.hkl">
REM </olex2.extras>

WGHT    0.010400
EXTI    0.002151
FVAR       0.44897
BA1   1    0.265143    0.750000    0.888165    10.50000    0.01848    0.01624 =
         0.01853    0.00000    0.00111    0.00000
N1    3    0.500185    0.250000    0.673948    10.50000    0.02064    0.01835 =
         0.01580    0.00000    0.00521    0.00000
O1    4    0.432271    0.453822    0.650362    11.00000    0.02980    0.02636 =
         0.02718    0.00121   -0.00088    0.01168
O2    4    0.634080    0.250000    0.712979    10.50000    0.01288    0.02878 =
         0.03870    0.00000   -0.00194    0.00000
CL1   2    0.118607    0.750000    0.546913    10.50000    0.02106    0.01811 =
         0.01975    0.00000    0.00050    0.00000
HKLF 4




REM  11_a.res in Pnma
REM R1 =  0.0166 for     420 Fo > 4sig(Fo)  and  0.0236 for all     478 data
REM     35 parameters refined using      0 restraints

END  
     
WGHT      0.0104      0.0000 

REM Highest difference peak  0.766,  deepest hole -0.762,  1-sigma level  0.168
Q1    1   0.2728  0.8659  0.9503  11.00000  0.05    0.77
Q2    1   0.3238  0.7500  1.0434  10.50000  0.05    0.69
Q3    1   0.2172  0.7500  0.8837  10.50000  0.05    0.61
Q4    1   0.0605  0.7500  0.4359  10.50000  0.05    0.58
Q5    1  -0.0568  0.7500  0.4478  10.50000  0.05    0.57

  REM The information below was added by Olex2.
  REM
  REM R1 = 0.0166 for 420 Fo > 4sig(Fo) and 0.0236 for all 4385 data
  REM 35 parameters refined using n/a restraints
  REM Highest difference peak 0.77, deepest hole -0.76
  REM Mean Shift 0, Max Shift 0.001.

  REM +++ Tabular Listing of Refinement Information +++
  REM R1_all = 0.0236
  REM R1_gt = 0.0166
  REM wR_ref = 0.0295
  REM GOOF = 1.005
  REM Shift_max = 0.001
  REM Shift_mean = 0
  REM Reflections_all = 4385
  REM Reflections_gt = 420
  REM Parameters = 35
  REM Hole = -0.76
  REM Peak = 0.77
  REM Flack = n/a

  
;
_cod_data_source_file            d1nj03282h2.cif
_cod_data_source_block           11
_cod_depositor_comments
;
The following automatic conversions were performed:

data item '_exptl_absorpt_correction_type' value 'Multi-scan' was
changed to 'multi-scan' in accordance with the
/home/data/users/saulius/crontab/automatic-downloads/rss-feeds/RSC/lib/dictionaries/cif_core.dic
dictionary named 'cif_core.dic' version 2.4.2 last updated on
2011-04-26.

Automatic conversion script
Id: cif_fix_values 7556 2019-12-06 15:28:31Z antanas 

 Adding full bibliography for 7060927.cif.
;
_cod_database_code               7060927
_shelx_shelxl_version_number     2016/6
_shelx_space_group_comment
;
The symmetry employed for this shelxl refinement is uniquely defined
by the following loop, which should always be used as a source of
symmetry information in preference to the above space-group names.
They are only intended as comments.
;
_shelx_estimated_absorpt_t_max   0.528
_shelx_estimated_absorpt_t_min   0.358
_olex2_refinement_description
;
;
_olex2_submission_special_instructions 'No special instructions were received'
loop_
_space_group_symop_operation_xyz
'x, y, z'
'-x+1/2, -y, z+1/2'
'-x, y+1/2, -z'
'x+1/2, -y+1/2, -z+1/2'
'-x, -y, -z'
'x-1/2, y, -z-1/2'
'x, -y-1/2, z'
'-x-1/2, y-1/2, z-1/2'
loop_
_atom_site_label
_atom_site_type_symbol
_atom_site_fract_x
_atom_site_fract_y
_atom_site_fract_z
_atom_site_U_iso_or_equiv
_atom_site_adp_type
_atom_site_occupancy
_atom_site_site_symmetry_order
_atom_site_calc_flag
_atom_site_refinement_flags_posn
_atom_site_refinement_flags_adp
_atom_site_refinement_flags_occupancy
_atom_site_disorder_assembly
_atom_site_disorder_group
Ba1 Ba 0.26514(3) 0.750000 0.88816(3) 0.01775(12) Uani 1 2 d S T P . .
N1 N 0.5002(4) 0.250000 0.6739(4) 0.0183(8) Uani 1 2 d S T P . .
O1 O 0.4323(3) 0.4538(4) 0.6504(2) 0.0278(5) Uani 1 1 d . . . . .
O2 O 0.6341(4) 0.250000 0.7130(3) 0.0268(7) Uani 1 2 d S T P . .
Cl1 Cl 0.11861(12) 0.750000 0.54691(11) 0.0196(2) Uani 1 2 d S T P . .
loop_
_atom_site_aniso_label
_atom_site_aniso_U_11
_atom_site_aniso_U_22
_atom_site_aniso_U_33
_atom_site_aniso_U_23
_atom_site_aniso_U_13
_atom_site_aniso_U_12
Ba1 0.0185(2) 0.01624(15) 0.01853(14) 0.000 0.00111(10) 0.000
N1 0.021(3) 0.0184(19) 0.0158(17) 0.000 0.0052(14) 0.000
O1 0.0298(16) 0.0264(12) 0.0272(11) 0.0012(8) -0.0009(9) 0.0117(10)
O2 0.013(2) 0.0288(18) 0.0387(18) 0.000 -0.0019(13) 0.000
Cl1 0.0211(7) 0.0181(5) 0.0198(5) 0.000 0.0005(4) 0.000
loop_
_atom_type_symbol
_atom_type_description
_atom_type_scat_dispersion_real
_atom_type_scat_dispersion_imag
_atom_type_scat_source
Ba Ba -0.3244 2.2819 'International Tables Vol C Tables 4.2.6.8 and 6.1.1.4'
Cl Cl 0.1484 0.1585 'International Tables Vol C Tables 4.2.6.8 and 6.1.1.4'
N N 0.0061 0.0033 'International Tables Vol C Tables 4.2.6.8 and 6.1.1.4'
O O 0.0106 0.0060 'International Tables Vol C Tables 4.2.6.8 and 6.1.1.4'
loop_
_diffrn_refln_index_h
_diffrn_refln_index_k
_diffrn_refln_index_l
_diffrn_refln_intensity_net
_diffrn_refln_intensity_u
0 1 0 0 0.7
0 1 0 1.1 2.7
0 -1 0 0 0.9
0 -1 0 0.2 2.8
0 -2 0 9999 268.77
0 -2 0 8857.61 229.68
0 2 0 8914.71 229.88
0 3 0 1 2.3
0 -3 0 6 3.2
0 3 0 7 8.9
0 -3 0 -1.8 8.7
0 -4 0 5393.16 149.59
0 4 0 5683.33 192.28
0 -4 0 5576.74 194.28
0 4 0 5647.04 149.99
0 5 0 4.9 4.8
0 5 0 -21.5 20.4
0 -5 0 -18.2 20.5
0 -6 0 2215.08 129.09
0 6 0 2230.68 126.29
0 0 1 1 0.6
0 0 1 1.9 1.5
0 0 -1 0.3 0.4
0 0 -1 0.2 1.3
0 -1 -1 1433.86 38.1
0 -1 1 1409.76 49.5
0 1 1 1456.85 48.5
0 1 -1 1397.66 49.2
0 1 1 1352.96 37.8
0 -1 -1 1439.36 48.5
0 2 1 1.4 4.4
0 2 1 -2.4 1.2
0 -2 1 -2.2 5.3
0 2 -1 4.3 6.1
0 -2 1 0.6 1.6
0 -2 -1 -0.4 4.5
0 -2 -1 3.9 2.2
0 3 1 1738.23 53.19
0 -3 -1 1765.22 53.49
0 -3 -1 1788.92 79.59
0 3 1 1675.43 76.59
0 -3 1 1778.02 81.09
0 -3 1 1769.82 53.79
0 3 -1 1754.02 78.99
0 -4 -1 -2.1 5.2
0 -4 1 3.6 13.7
0 4 1 1.8 3.3
0 -4 -1 10 12.7
0 4 1 -2.7 14.4
0 4 -1 -19.1 12.5
0 -4 1 -2.2 5.1
0 -5 -1 373.36 47
0 -5 1 388.96 50.19
0 5 1 333.27 51.39
0 5 1 418.96 23.1
0 5 -1 446.56 51.59
0 -6 1 13.7 15.3
0 -6 -1 -10.4 14.2
0 -6 1 35.8 36
0 6 -1 16.9 35.8
0 6 1 67.99 39
0 6 1 -3.7 6.8
0 -6 -1 -57.79 32.5
0 0 -2 149.09 11.7
0 0 2 135.79 11.3
0 0 2 145.19 6.3
0 0 -2 133.69 6.1
0 -1 2 -0.2 2.9
0 1 2 -0.5 2.8
0 1 2 1.4 1.1
0 -1 -2 3.3 1.4
0 -1 2 0.1 3.4
0 -1 -2 3 3.6
0 2 2 378.56 27.7
0 -2 -2 431.06 17
0 -2 -2 435.56 29.7
0 2 2 446.46 17.3
0 2 -2 481.65 31.8
0 -2 2 441.66 31.6
0 -3 2 -1.4 3.1
0 -3 2 -2.1 9.7
0 3 -2 0.1 10.4
0 3 2 -1.7 2
0 -3 -2 -2.3 2.6
0 3 2 -3.3 7.2
0 -3 -2 -8.9 7.8
0 4 -2 142.09 31.5
0 4 2 149.19 12.1
0 -4 -2 112.09 26.2
0 -4 2 117.29 29.8
0 -4 -2 133.39 13.2
0 4 2 166.68 31.7
0 -5 -2 32.8 26.4
0 -5 2 4.5 9
0 5 2 1.3 4.5
0 5 2 30.1 22
0 5 -2 -14.9 23.7
0 -5 2 -5.8 22.8
0 6 -2 9.3 39.8
0 -6 -2 103.99 19.2
0 6 2 146.49 43.8
0 -6 -2 55.49 37.8
0 6 2 76.59 12.7
0 0 -3 1.6 4
0 0 -3 0.9 1.4
0 0 3 0.9 1.2
0 0 3 -3.8 3.1
0 1 3 6951.6 191.88
0 -1 -3 7101.69 192.88
0 1 3 6680.23 171.78
0 -1 3 6835.82 191.28
0 -1 -3 6787.62 171.58
0 -2 3 -8.3 6.1
0 2 3 1.5 1.7
0 -2 -3 -5.6 5.9
0 -2 -3 1.8 2
0 3 -3 4327.07 151.68
0 -3 3 4333.17 151.98
0 -3 -3 4208.48 114.79
0 -3 3 4288.67 116.29
0 -3 -3 4198.28 147.39
0 4 3 1.9 3.4
0 -4 -3 -12 13
0 -4 3 -26.6 14.5
0 4 -3 6.5 16.6
0 4 3 12.4 15.3
0 -4 3 4.2 5.9
0 -5 -3 1706.63 100.99
0 -5 3 1491.45 98.19
0 5 -3 1711.13 100.79
0 5 3 1602.84 57.39
0 5 3 1572.94 95.39
0 -6 3 34.6 37.5
0 6 -3 -18.5 41.3
0 6 3 -5.2 40.8
0 6 3 -2 6.8
0 -6 -3 11.3 39.6
0 -6 3 40.3 18.5
0 -6 -3 -1.2 15.9
0 0 -4 4557.14 119.29
0 0 4 4708.63 142.09
0 0 4 4723.33 119.99
0 0 -4 4643.54 141.99
0 -1 -4 2.2 2.2
0 1 -4 11.2 7.1
0 -1 4 0.7 5.4
0 1 4 5 7.4
0 -1 4 -0.6 1.7
0 1 4 0.1 1.7
0 -1 -4 9.1 5.8
0 -2 4 1679.53 75.29
0 -2 -4 1624.44 48.9
0 -2 4 1621.24 71.49
0 -2 -4 1580.34 73.09
0 2 4 1696.23 49.99
0 2 4 1596.34 70.89
0 -3 4 7.5 13.3
0 3 4 -1.3 9.7
0 3 4 -0.3 2.8
0 -3 -4 4.4 3.8
0 -3 -4 -1.7 10.1
0 -4 -4 1433.06 50.79
0 -4 4 1424.76 57.99
0 -4 4 1620.34 91.69
0 4 4 1467.65 82.79
0 -4 -4 1460.45 83.79
0 4 4 1451.85 50.69
0 -5 4 -13.9 11.3
0 5 4 11.9 25.2
0 5 4 -0.1 5
0 -5 -4 35.4 29.7
0 -5 4 -8 24.5
0 -5 -4 3.4 10.1
0 -6 -4 605.94 44.3
0 6 4 618.94 82.39
0 -6 4 402.06 67.09
0 6 4 597.84 32.5
0 -6 -4 669.03 82.69
0 -6 4 497.85 41.8
0 0 -5 -10.4 6.7
0 0 5 0 2.3
0 0 -5 -4.2 2.4
0 0 5 3.8 7.4
0 1 -5 4.8 9.5
0 -1 5 6.1 2.8
0 1 5 6.2 2.9
0 -1 -5 7.2 3.3
0 1 5 -2 8.3
0 -1 5 5.7 8.6
0 -1 -5 9.9 9.1
0 -2 5 3.3 3.3
0 2 5 -4.2 9
0 -2 -5 5 3.3
0 2 5 0.8 3.1
0 -2 5 2.8 10.6
0 -2 -5 6 10.2
0 3 5 89.09 22
0 3 5 113.79 10.2
0 -3 5 75.49 21.4
0 -3 -5 89.19 21.1
0 -3 -5 90.09 10.3
0 4 5 2.7 4
0 -4 -5 2.3 7.6
0 -4 5 -8.2 20.6
0 -4 -5 8.4 20.1
0 4 5 15.3 18.2
0 -4 5 20.9 22.2
0 -4 5 -8.5 7.9
0 -5 -5 1.7 12
0 5 5 12.1 6.2
0 -5 -5 15.1 30
0 -5 5 -27.3 13.5
0 5 5 30.4 26
0 -6 -5 6 21.7
0 6 5 4.6 8.5
0 6 5 10.9 45.4
0 -6 -5 -35.9 47.6
0 -6 5 -11.7 48
0 0 -6 301.77 31.9
0 0 -6 268.87 14.4
0 -1 6 -1.2 2.7
0 1 6 2.8 11.2
0 -1 -6 5 3.4
0 1 -6 5.6 12.3
0 1 6 -3.3 2.4
0 -1 -6 4.1 10.1
0 -2 6 741.63 29
0 2 6 697.43 49.5
0 -2 -6 754.12 52.49
0 -2 6 619.54 46.8
0 -2 -6 721.63 28.6
0 2 6 714.73 28.9
0 -3 6 -0.2 4.1
0 -3 6 -6.5 14.6
0 3 6 2.6 3.6
0 3 6 12.4 17.2
0 -3 -6 -2.6 5.4
0 -3 -6 0.4 14.8
0 -3 6 1.8 18.6
0 -4 -6 330.87 47.6
0 -4 6 220.38 17.5
0 4 6 246.98 17.9
0 -4 6 218.08 44.7
0 -4 6 238.58 43.6
0 -4 6 195.68 22.2
0 4 6 238.08 44.2
0 -5 -6 -2.3 15.1
0 -5 6 26.4 16.1
0 -5 6 -68.79 34.3
0 5 6 -3.6 6.9
0 5 6 9 39.7
0 -5 -6 -10.7 34
0 -5 6 18 43.2
0 0 7 -2.1 2.9
0 0 -7 2.6 4.3
0 0 -7 -19.5 11
0 0 7 -11.1 13.6
0 -1 -7 1426.96 46.9
0 -1 -7 1397.76 75.99
0 -1 7 1432.96 47.6
0 1 7 1351.16 74.49
0 1 -7 1344.37 75.69
0 1 7 1491.35 48.3
0 -1 7 1423.96 75.79
0 -2 7 7.5 4.3
0 -2 -7 3.9 15.8
0 -2 -7 3.4 5.8
0 -2 7 -17.2 16.3
0 -2 7 -5.1 14.9
0 2 7 0.5 3.5
0 2 7 -19.3 14.6
0 -3 -7 888.31 69.09
0 -3 7 946.11 72.69
0 -3 7 923.51 68.59
0 -3 -7 889.41 37
0 3 7 900.31 67.69
0 3 7 851.81 36.5
0 -3 7 862.61 36.3
0 4 7 -0.3 5.9
0 4 7 -20.8 24.3
0 -4 -7 -26 26
0 -4 7 -16.9 32.2
0 -4 7 4 30.9
0 -4 7 7.4 6.6
0 -5 7 596.24 70.99
0 5 7 589.14 32.4
0 -5 7 488.65 73.49
0 -5 7 567.24 32.5
0 5 7 618.04 79.69
0 -5 7 456.25 74.99
0 -5 -7 400.46 70.69
0 0 8 501.45 24.1
0 0 8 418.86 44.4
0 0 -8 481.85 47.7
0 0 -8 483.15 26.6
0 -1 8 -18.9 16.8
0 -1 8 -5.5 4.5
0 1 8 2.5 4.1
0 -1 -8 3.4 6.5
0 -1 -8 -20 18.4
0 1 8 10 18.8
0 1 -8 9.6 20.9
0 -2 -8 356.96 21.6
0 -2 8 310.17 44.5
0 -2 8 334.47 20.5
0 -2 -8 400.86 47.4
0 2 8 358.36 45.7
0 2 8 343.37 20.8
0 -2 8 256.17 46.5
0 3 8 -5.5 5.5
0 -3 8 -2.8 5.6
0 -3 8 -23.1 25
0 -3 8 -3.4 31.9
0 -3 -8 -7.7 10.2
0 -3 -8 -15.8 26
0 3 8 7.6 25.6
0 -4 8 307.07 55.89
0 4 8 252.67 21
0 -4 8 251.27 54.09
0 -4 -8 198.28 51.19
0 -4 8 280.47 21.6
0 4 8 260.07 62.69
0 -4 -8 204.78 28.2
0 0 9 5.3 5.3
0 0 9 -16.9 22.5
0 0 -9 -17.9 21.7
0 1 9 36.7 8.2
0 -1 -9 -6.1 24.7
0 1 9 16.2 24.8
0 -1 9 29.8 8
0 -1 9 9.1 25.4
0 -2 9 21.8 27.7
0 2 9 15.3 26.4
0 2 9 1.8 6.1
0 -2 9 26.9 30.3
0 -2 -9 7.3 11.3
0 -2 -9 1.1 28.4
0 -2 9 -9 6
0 -3 9 54.49 46.7
0 -3 9 93.69 41.7
0 3 9 49.9 36.4
0 -3 9 58.89 11.8
0 -3 -9 45.1 40
0 -3 -9 74.49 15.5
0 3 9 42.1 11
0 0 -10 42.9 38.8
0 0 10 74.49 34.1
0 1 10 35.3 36.2
0 -1 -10 59.69 37.2
0 -1 10 61.09 35.3
0 -2 10 153.88 49.4
0 -2 10 117.69 45.1
0 2 10 166.98 49.4
0 -2 10 280.67 22
0 2 10 232.18 20.3
0 -2 -10 252.87 60.29
0 -2 -10 277.27 29.2
-1 -1 0 0.2 2.3
-1 1 0 2.4 3
1 -1 0 0.8 1
-1 -1 0 0 0.9
1 1 0 -2.2 2.4
-1 1 0 0.3 0.9
1 -1 0 2.4 3.1
1 1 0 -0.4 0.9
1 2 0 0.7 1.5
1 -2 0 0.8 6
-1 -2 0 -3 4.6
-1 -2 0 1.6 1.9
1 2 0 8.3 6.2
1 -2 0 1.8 1.8
-1 2 0 -0.9 5.5
-1 2 0 0.2 1.6
-1 -3 0 12.6 10.6
-1 3 0 1.5 2.2
1 3 0 -2.1 8.5
1 -3 0 2.8 3.1
1 -3 0 -2.7 8.4
1 3 0 2.5 2.2
-1 -3 0 -2.2 2.8
-1 3 0 -4.6 13.3
-1 -4 0 -2.8 14.1
1 -4 0 -2.2 4.5
-1 4 0 0.9 3.4
1 4 0 8.1 3.5
1 4 0 11.1 13.6
1 -4 0 -0.7 12.3
-1 -4 0 -3.6 4.6
-1 4 0 2 11.7
-1 5 0 38.3 22
1 5 0 12 21.7
1 5 0 -0.1 4.2
1 -5 0 0.1 25.4
-1 5 0 1.8 4.2
1 -5 0 9.9 8.1
-1 -5 0 -34.5 17.4
1 -6 0 -10 30.2
1 -6 0 -8.8 15.1
1 6 0 -47.9 32.5
-1 -6 0 -15.4 17.1
-1 6 0 19.3 35.4
-1 0 -1 24.9 2
-1 0 -1 31.5 4.5
1 0 1 28.8 2.1
1 0 -1 30.3 3.4
-1 0 1 26.8 3.3
1 0 1 30 5.4
1 -1 1 2273.57 73.49
-1 1 1 2297.07 59.89
-1 1 1 2361.06 71.39
-1 -1 -1 2312.77 71.39
-1 -1 -1 2306.07 60.39
1 1 1 2208.78 60.09
-1 1 -1 2361.06 74.19
-1 -1 1 2632.14 79.69
1 1 1 2308.67 71.39
1 -1 -1 2293.77 59.69
-1 -2 -1 523.65 19.2
1 2 -1 508.75 32
-1 -2 -1 533.45 31.9
1 -2 1 526.55 19.5
1 -2 1 503.05 33.5
-1 2 1 469.05 18.5
-1 2 1 489.45 31.5
-1 2 -1 535.75 33.4
1 -2 -1 522.05 32.1
1 2 1 517.85 18.9
1 -2 -1 534.05 19
-1 -2 1 526.25 19.2
-1 -2 1 564.24 34
1 2 1 516.45 31.4
1 -3 1 1120.99 61.69
-1 3 1 1089.59 58.49
-1 3 1 1102.09 37.2
-1 -3 -1 1129.69 37.5
1 3 -1 1163.58 60.39
1 -3 1 1119.59 37.7
-1 -3 -1 1034.2 57.39
1 3 1 1130.19 59.09
-1 -3 1 1099.59 61.29
1 3 1 1133.49 37.3
-1 -3 1 1107.59 37.5
1 -3 -1 1003.9 64.19
1 -3 -1 1079.99 36.9
-1 3 -1 1156.98 61.29
1 -4 1 36.8 20
-1 -4 -1 67.59 10.7
-1 4 1 76.19 8.6
-1 -4 -1 105.59 24.3
1 4 -1 61.29 20.6
1 -4 1 85.79 10.7
-1 4 1 58.19 18.8
-1 -4 1 44.3 17.3
1 -4 -1 62.19 9.5
1 4 1 74.49 23.1
1 4 1 57.89 8
1 -4 -1 74.69 20.2
-1 4 -1 48.6 17.8
1 -5 1 633.94 61.59
-1 5 1 663.73 60.99
-1 -5 -1 713.53 62.59
-1 5 1 634.14 30
1 5 -1 544.75 56.89
1 -5 -1 644.34 60.19
1 -5 -1 576.64 30.4
1 5 1 619.44 29.3
1 5 1 664.53 60.69
-1 -5 1 649.14 61.29
-1 5 -1 670.03 61.89
1 -6 1 35.2 16.7
-1 6 1 68.29 38.4
1 6 -1 62.79 40.9
1 -6 1 7.9 34.3
-1 -6 -1 30.4 17.4
1 6 1 42 9.4
1 -6 -1 37.6 15.9
-1 6 -1 48.2 39.2
1 6 1 57.09 38
1 -6 -1 21.7 31.6
1 0 2 4496.65 125.79
1 0 2 4384.66 112.79
-1 0 -2 4628.54 112.99
-1 0 2 4546.75 111.69
1 0 -2 4530.95 111.39
-1 0 -2 4584.54 126.39
1 0 -2 4382.86 122.09
-1 0 2 4521.55 121.99
1 -1 2 1010 30
-1 1 2 1024.4 29.5
1 -1 2 1057.89 44.8
-1 1 2 1036.6 40.7
-1 -1 -2 1076.99 43
-1 -1 -2 1022.8 30.1
1 -1 2 1066.99 43
1 1 2 1045.3 43
1 -1 -2 1014.2 29.2
1 1 2 1018.9 30.1
-1 -1 2 1096.79 42.4
-1 -2 -2 4973.7 148.09
1 -2 2 4866.91 151.98
-1 -2 -2 4954.1 124.59
1 2 -2 4795.22 147.19
-1 2 2 4747.62 123.89
-1 2 2 4632.84 145.29
-1 -2 2 5055.09 150.28
1 -2 -2 4600.94 145.69
1 2 2 4769.92 124.29
1 2 2 4767.72 146.69
-1 2 -2 4797.72 151.08
1 -2 -2 4790.02 123.49
-1 3 2 105.19 27.2
-1 -3 -2 94.79 8.8
-1 3 2 93.39 8.3
1 -3 2 73.89 19.5
1 3 -2 79.89 20.1
1 -3 2 81.49 8.8
-1 -3 -2 88.49 20.2
1 3 2 83.59 19
-1 3 -2 127.79 24.8
1 3 2 101.09 8.5
-1 -3 2 75.89 19.5
-1 -3 2 86.29 8.7
1 -3 -2 82.49 8.5
-1 4 2 1934.91 93.89
-1 4 2 1917.31 61.39
1 -4 2 2024.2 64.09
1 -4 2 2042.3 100.79
1 4 -2 1883.71 97.99
-1 -4 -2 1936.91 95.09
1 4 2 1820.72 92.09
1 -4 -2 2003.6 62.09
-1 -4 2 1891.41 100.49
1 4 2 1934.61 61.39
-1 4 -2 1848.81 94.49
-1 -4 2 1925.51 62.49
1 -4 -2 1973.5 95.99
-1 5 2 232.78 16.9
-1 -5 -2 193.88 38.4
1 5 -2 174.88 39.1
-1 5 2 231.28 41.4
1 -5 2 221.68 45.6
-1 -5 2 122.79 30.2
-1 5 -2 218.48 41.7
1 5 2 218.68 40.8
1 -5 -2 201.08 19.5
1 5 2 228.18 16.7
1 -5 -2 218.18 42.7
1 6 -2 692.83 82.49
-1 6 2 851.71 39
1 -6 2 833.32 82.89
-1 -6 -2 966.8 105.29
-1 6 2 765.12 82.49
1 -6 2 725.73 42.4
-1 6 -2 671.33 83.29
1 6 2 775.22 83.69
1 6 2 847.02 38.1
1 -6 -2 787.52 81.49
-1 -6 2 791.42 43.5
1 -6 -2 685.83 41.6
-1 0 -3 1213.78 35.6
1 0 -3 1261.27 34.4
-1 0 3 1234.48 34.7
1 0 3 1272.27 36
-1 0 -3 1208.98 50.19
-1 0 3 1255.67 47.7
1 0 3 1222.58 50.09
-1 1 3 1845.82 65.79
-1 -1 -3 1878.41 51.29
1 -1 3 1858.71 51.09
-1 -1 -3 1777.02 69.49
-1 1 3 1802.72 50.29
1 -1 -3 1906.71 50.19
1 -1 -3 1854.71 66.29
1 1 3 1860.51 51.39
-1 -1 3 1759.42 64.69
1 1 3 1857.61 68.69
-1 2 3 10.1 3
-1 -2 -3 6.9 7.7
-1 -2 -3 6.6 2.9
1 -2 3 8.1 8.7
-1 2 3 18.8 8.5
1 -2 -3 14.6 7.6
1 2 3 9.2 3.1
1 2 3 13.2 8.3
-1 -2 3 3.6 6.4
1 -2 -3 7 2.8
-1 -3 -3 855.51 52.39
1 3 -3 850.41 53.39
-1 -3 -3 821.32 30.3
1 -3 3 794.22 30.8
-1 3 3 668.03 54.39
-1 3 3 827.92 30.2
1 -3 3 808.02 53.89
1 3 3 794.22 50.39
-1 3 -3 829.92 54.29
1 3 3 815.52 30.2
-1 -3 3 866.11 55.59
-1 -3 3 797.32 30.5
1 -3 -3 778.92 29.3
1 4 -3 77.49 26.1
-1 4 3 101.29 24.9
-1 -4 -3 100.79 25.8
1 -4 3 91.69 29.8
-1 -4 -3 94.39 11.8
1 -4 3 105.39 13.3
-1 4 3 85.39 9.7
1 4 3 107.59 10.4
-1 -4 3 141.09 31.4
1 -4 -3 87.29 11
1 -4 -3 77.79 23.3
1 4 3 102.59 24.5
-1 4 -3 98.79 28.2
-1 5 3 577.34 29.4
1 -5 3 599.14 64.49
1 5 -3 512.25 58.29
-1 -5 -3 481.75 58.19
-1 5 3 589.14 61.29
-1 -5 3 600.14 63.39
1 5 3 622.84 60.89
1 5 3 580.14 29.3
1 -5 -3 623.04 62.99
-1 5 -3 582.34 63.79
-1 -5 3 576.74 32
-1 6 3 19.5 9.2
1 6 -3 15.9 40.4
1 -6 3 49.4 50.59
1 -6 3 42.5 19.3
-1 6 3 54.69 44.6
-1 -6 -3 41.9 17.3
-1 6 -3 82.49 44.2
1 -6 -3 -11.3 16.2
1 6 3 20.6 9.2
1 6 3 34.6 41.9
-1 -6 3 31 38.1
-1 -6 3 12.6 18.8
1 -6 -3 42.3 38.1
1 0 -4 101.19 6.5
1 0 -4 108.99 14.8
1 0 4 107.99 18.1
-1 0 4 106.19 7
-1 0 -4 118.59 19.7
-1 0 4 107.69 13.9
1 0 4 108.29 7.5
-1 0 -4 101.39 7.2
-1 1 4 5.4 2.5
1 -1 4 7.5 2.7
-1 -1 -4 8.4 7.4
-1 1 4 5 6.2
1 -1 4 11.5 7.9
1 1 4 4.9 2.5
-1 1 -4 1.9 7.5
1 -1 -4 0.3 1.9
-1 -1 4 6.5 2.6
1 -1 -4 11.4 6.8
-1 -1 4 -0.6 5.5
1 1 4 -4.7 6.1
-1 2 4 22.3 4.5
1 -2 4 8.4 10.1
-1 2 4 36.7 12.6
1 -2 4 2.3 8.6
-1 -2 -4 10.5 9
-1 -2 -4 14.3 4.2
1 -2 4 16.7 4.1
-1 -2 4 19.4 9.4
-1 -2 4 25.6 12.1
1 2 4 20.2 4.2
1 -2 -4 7.3 9.2
1 -2 -4 19.8 4.3
1 2 4 15.3 8.8
1 -3 4 50.39 18.6
-1 3 4 79.89 19.6
-1 -3 -4 73.29 19.8
-1 -3 -4 74.39 8.8
-1 3 4 63.79 7.7
1 3 4 61.89 18.5
1 3 4 55.69 7.5
-1 -3 4 28.9 15.4
1 -3 -4 63.29 7.9
1 -3 -4 61.89 22.1
-1 -4 -4 45.3 9.6
1 -4 4 -12.7 19.6
-1 4 4 41.9 8.3
1 -4 4 37.2 9.1
-1 -4 -4 41.2 20.2
-1 4 4 40.6 20.1
1 -4 -4 50.49 20.2
1 4 4 42.6 19
-1 -4 4 16.6 19.6
1 -4 -4 34.7 8.8
1 4 4 35 7.7
-1 5 4 -0.1 5.5
-1 -5 -4 4 10.4
1 -5 4 -13.1 26.3
-1 -5 -4 -15.4 23.4
-1 5 4 -14.3 24.4
1 5 -4 9.8 28.7
1 -5 4 5.2 11.3
-1 -5 4 -3.6 10.9
1 -5 -4 -27.2 25.2
1 5 4 2.1 5.6
1 5 4 5.6 22.9
1 6 -4 70.99 48.3
1 -6 4 -10.1 21.5
-1 6 4 20.8 9.1
-1 -6 -4 -26.5 18.8
1 -6 4 -31.9 43.4
-1 6 4 10.7 43.8
1 -6 -4 38.3 19.4
-1 -6 4 -48.3 41.9
1 6 4 9.9 7.5
1 6 4 -10.5 41.1
1 -6 -4 -18.5 43.3
1 0 -5 113.09 19.7
1 0 -5 122.19 8.3
-1 0 5 103.39 18.3
1 0 5 122.29 8.8
-1 0 -5 146.29 19.8
-1 0 -5 130.89 9.1
1 0 5 111.49 19.5
-1 0 5 128.69 8.7
-1 -1 -5 3422.56 120.29
-1 -1 -5 3297.07 90.69
-1 1 5 3323.87 115.59
-1 1 5 3369.06 90.29
1 -1 5 3336.17 90.89
1 1 -5 3397.26 116.69
1 -1 5 3235.48 117.59
1 -1 -5 3350.26 116.49
1 1 5 3357.66 119.09
1 1 5 3343.37 91.19
-1 -1 5 3192.18 114.09
-1 -1 5 3336.07 89.89
1 -2 5 86.89 8.2
-1 2 5 78.39 8.2
1 -2 5 116.29 24.5
-1 -2 -5 110.79 23.1
1 -2 5 73.69 19.2
-1 -2 -5 83.09 8.7
-1 2 5 76.19 18.3
-1 -2 5 80.39 7.9
-1 -2 5 88.79 19.1
1 2 5 87.29 8.4
1 -2 -5 111.09 22.7
1 -2 -5 89.89 8.3
-1 -2 5 63.99 17.5
1 2 5 59.79 16.2
1 -3 5 2163.88 65.19
-1 -3 -5 2161.28 99.39
-1 3 5 2106.59 64.49
1 -3 5 2141.19 98.49
-1 3 5 1940.01 93.39
1 -3 5 2004.5 99.89
1 3 5 2130.69 97.19
1 -3 -5 2165.98 97.19
-1 -3 5 1986.3 97.49
1 3 5 2122.89 65.09
1 -3 -5 2086.39 63.29
-1 -3 5 2063.59 94.59
1 -4 5 30.2 26
-1 4 5 35.7 20.6
-1 4 5 43.7 8.8
-1 -4 -5 29.5 24.5
1 -4 5 16.2 22.2
1 -4 5 18.3 10.2
1 4 5 37.5 8.4
-1 -4 5 33.9 23.5
-1 -4 5 56.09 25.2
1 -4 -5 39.7 8.9
1 4 5 13.2 17.9
1 -4 -5 22.7 22.9
-1 -5 -5 1028.7 85.99
-1 5 5 976.1 80.99
1 -5 5 982 89.69
-1 5 5 1130.19 44.7
1 -5 5 937.31 46.4
-1 -5 -5 955.6 45.3
1 -5 -5 1129.89 86.99
1 5 5 1005.9 80.59
-1 6 5 1.9 8.3
1 -6 5 15.3 50.89
-1 6 5 47.8 52.99
1 6 5 4.4 8.2
-1 -6 5 -3.5 49.6
1 -6 -5 -9.7 24.2
1 -6 -5 25.9 51.59
1 6 5 83.99 51.39
-1 0 -6 2327.17 97.99
-1 0 6 2380.16 94.49
-1 0 -6 2398.46 68.39
-1 0 6 2364.46 67.99
1 0 6 2311.17 68.49
1 0 6 2324.87 96.69
1 0 -6 2350.06 94.89
1 0 -6 2372.66 66.79
-1 -1 -6 63.69 19.5
1 -1 6 52.19 7.1
1 1 -6 44.5 15.7
-1 -1 -6 56.09 7.6
-1 1 6 46.7 6.6
-1 1 6 60.99 16.5
1 -1 6 44.6 15.9
-1 -1 6 49.6 6.7
1 1 6 46.4 15.4
-1 -1 6 40.9 14.4
1 -1 -6 56.59 17.4
1 1 6 38.3 6.4
1 -1 -6 42.1 6.6
-1 1 -6 23.1 14.8
1 -2 6 2426.96 107.39
-1 -2 -6 2261.87 67.59
-1 2 6 2230.48 67.09
1 -2 6 2134.99 97.09
1 -2 6 2220.68 67.49
-1 2 6 2073.19 94.69
-1 -2 -6 2282.37 101.49
1 -2 -6 2298.47 99.09
-1 -2 6 2237.58 95.79
1 2 6 2265.07 67.99
1 2 6 2148.29 97.59
-1 -2 6 2281.57 101.59
-1 -2 6 2257.77 66.69
1 -2 -6 2159.08 65.69
-1 3 6 58.89 21.7
-1 -3 -6 80.69 25.7
-1 -3 -6 79.19 10.9
1 -3 6 66.49 9.3
1 -3 6 44.7 25.2
-1 3 6 68.89 9.1
1 -3 6 53.79 21.4
1 -3 -6 76.19 10.4
-1 -3 6 84.99 9.8
1 3 6 79.29 9.7
-1 -3 6 55.39 19.4
1 -3 -6 63.09 23.5
-1 -3 6 73.19 23.5
1 3 6 70.39 22.7
1 -4 6 1235.88 47.7
1 -4 6 1107.69 85.49
1 -4 6 1280.37 84.79
1 -4 6 1210.58 50.29
-1 -4 -6 1345.17 87.99
-1 4 6 1291.97 48.1
-1 4 6 1250.07 81.99
1 -4 -6 1236.38 83.59
1 -4 -6 1238.38 47.2
-1 -4 6 1300.07 83.09
1 4 6 1305.27 85.19
1 4 6 1245.08 47.7
-1 5 6 -1.6 6.9
1 -5 6 -40.6 44.4
-1 5 6 3.3 31
1 -5 6 -8.7 42.7
1 -5 6 36.9 16.5
-1 -5 -6 -13.5 16.4
1 -5 6 -7.3 7.4
-1 -5 -6 45.9 36.8
1 -5 -6 -30.1 37.6
-1 -5 6 -17.4 15.5
-1 -5 6 9.7 42.7
-1 -5 6 -23.3 38.9
1 5 6 5.3 7.5
1 5 6 -18.9 31.5
1 -5 -6 15.9 15.1
1 0 -7 66.69 8.3
1 0 7 50.19 17.4
1 0 -7 15.5 15.2
1 0 7 56.99 8.7
-1 0 7 53.69 17
-1 0 -7 44.9 7.8
-1 0 -7 25 15.5
-1 0 7 65.19 8
1 -1 7 240.08 32.2
1 -1 7 236.68 15.4
1 1 -7 165.18 30.3
-1 1 7 222.38 30.9
-1 1 7 238.28 14.8
-1 -1 -7 236.48 33.3
-1 1 -7 251.17 34
-1 -1 7 255.27 15.1
1 -1 -7 289.47 34.2
-1 -1 7 217.08 31
1 1 7 223.28 32.4
1 1 7 235.98 15.3
1 -1 -7 234.28 14.7
1 -2 7 -0.6 16.5
-1 2 7 -13.4 17
1 -2 7 10.7 17
1 -2 7 2.7 4.3
-1 2 7 -0.3 3.9
-1 -2 -7 14.3 16
-1 -2 -7 3.4 6.1
-1 -2 7 32.5 19.2
1 2 7 2.9 4
1 2 7 10.3 17.4
-1 -2 7 2.9 16.8
1 -2 -7 1 5.5
-1 -2 7 8.4 4.7
-1 3 7 125.99 12.7
1 -3 7 126.29 13
1 -3 7 49.3 29.3
-1 -3 -7 71.09 30.3
1 -3 7 60.19 28.8
-1 3 7 74.69 25.5
1 -3 -7 130.19 32.3
1 3 7 94.49 29.5
-1 -3 7 31.9 44.3
1 3 7 117.59 12.2
1 -3 -7 102.99 13.8
-1 -3 7 112.09 12.3
-1 4 7 27.9 26.8
-1 -4 -7 14.9 12.4
-1 4 7 6.8 6.9
1 -4 7 6.8 7.2
1 -4 7 -31.6 30.7
-1 -4 -7 40.7 29
-1 -4 7 0.5 6.8
-1 -4 7 29.8 31.3
-1 -4 7 -6.2 30.9
1 -4 -7 -19 24.9
1 4 7 38.5 30.9
-1 -5 -7 59.99 46.3
1 -5 7 -21.1 48.6
-1 5 7 117.69 16
1 -5 7 98.09 52.39
-1 -5 -7 94.29 22.9
1 -5 7 83.09 14.2
1 -5 7 71.19 26.8
-1 5 7 110.99 48.7
-1 -5 7 123.09 53.69
1 -5 -7 125.39 52.59
-1 -5 7 97.99 16.3
1 5 7 96.89 15
-1 -5 7 28.9 48.5
1 5 7 75.79 46.2
1 -5 -7 107.19 20.8
-1 0 -8 994.5 69.49
1 0 8 909.41 65.29
-1 0 8 988.7 64.29
1 0 -8 1028.8 68.09
-1 0 8 979.1 37.1
-1 0 -8 990.5 38
1 0 8 963.7 37.8
-1 1 8 20.3 5.6
-1 -1 -8 -4.4 21.3
1 -1 8 19.3 6.1
1 -1 8 11.5 22.1
-1 -1 -8 10.4 7.6
-1 1 8 22.8 21.6
-1 1 -8 4.1 21.1
1 1 8 7.4 19.8
-1 -1 8 8.9 5
-1 -1 8 27.2 20.1
1 -1 -8 2.8 6.5
1 1 8 15.6 5.3
1 -1 -8 19.7 22
-1 2 8 623.84 56.39
1 -2 8 681.83 62.69
-1 2 8 683.03 30.9
-1 -2 -8 650.83 61.29
1 -2 8 680.13 31.1
1 -2 8 643.84 59.99
-1 -2 8 604.54 56.89
-1 -2 8 700.13 30.6
1 2 8 670.43 30.8
1 2 8 634.44 58.19
1 -2 -8 628.64 58.19
1 -2 -8 727.63 37.6
-1 3 8 4.9 6.1
-1 -3 -8 5.4 11.2
-1 -3 -8 7.3 26.6
1 -3 8 -3.1 6.2
1 -3 8 -36.3 27.9
-1 3 8 8.4 24.5
-1 -3 8 48.2 28.6
-1 -3 8 -15 5.9
1 -3 -8 12.4 27.9
-1 -3 8 12.7 28.2
1 3 8 -1.7 5.4
1 3 8 -2.8 25.4
-1 4 8 516.15 29.4
1 -4 8 482.45 71.99
-1 4 8 553.94 68.29
1 -4 8 476.25 28.9
-1 -4 -8 497.55 72.99
-1 -4 -8 440.06 38.8
1 4 8 475.75 66.99
1 -4 -8 563.44 74.49
-1 -4 8 307.47 60.99
1 -4 -8 447.16 31.9
1 4 8 491.05 29
-1 -4 8 459.85 68.89
-1 0 -9 -2.3 12.3
-1 0 9 -0.9 5.2
-1 0 9 22.9 40.1
1 0 9 -4.6 5.3
1 0 9 -14.1 23.1
-1 0 -9 19.7 24.5
1 -1 9 1157.68 81.79
-1 -1 -9 1317.27 88.79
1 -1 9 1281.67 48.1
-1 1 9 1312.37 47.8
-1 1 9 1221.28 80.99
-1 -1 9 1266.47 47.3
1 1 9 1283.87 48
1 1 9 1199.98 83.29
1 -1 -9 1250.37 45.7
1 -1 -9 1237.88 82.29
-1 2 9 -20.1 25.8
1 -2 9 32.3 29.9
-1 -2 -9 36.8 12.6
-1 2 9 6.4 6
1 -2 9 9.6 7.1
1 -2 9 1.2 29.2
-1 -2 -9 6.9 31.7
-1 -2 9 -14.4 29.3
1 -2 -9 -9.8 10.3
1 -2 -9 42 28.4
1 2 9 1.8 9.8
-1 -2 9 -11.2 27
-1 -2 9 10.4 6.7
1 2 9 22.2 26.7
-1 -3 -9 944.61 91.19
-1 3 9 974.8 82.29
-1 -3 -9 986.6 47.7
1 -3 9 1005.3 44.1
-1 3 9 1117.19 47
1 -3 9 1090.49 95.09
-1 -3 9 986.4 91.19
1 -3 -9 1112.19 90.89
1 3 9 1117.99 89.79
-1 -3 9 893.91 84.39
1 3 9 1082.69 45.7
1 0 10 241.68 49.1
-1 0 10 343.47 22.5
-1 0 10 419.46 58.99
1 0 10 354.06 23.5
-1 0 -10 226.78 49.9
1 0 -10 259.47 49.9
-1 1 10 35.8 34.2
-1 -1 -10 -8.8 34.9
1 -1 10 5 7.3
1 -1 10 19.2 35.3
-1 -1 -10 -24.1 14.2
1 1 10 -1.4 7.2
1 1 10 -34.2 62.39
-1 -1 10 -0.3 30
-1 -1 10 -7 7.6
1 -1 -10 25.1 37.4
-1 -2 -10 246.18 32.5
-1 2 10 303.47 22
1 -2 10 293.87 23
-1 -2 -10 241.48 65.89
-1 2 10 279.47 56.19
1 -2 10 121.29 49.1
1 -2 -10 267.07 59.59
1 2 10 324.67 23
-1 -2 10 221.98 49.5
-1 -2 10 306.17 22.9
1 2 10 281.07 54.29
-1 -2 10 191.78 52.59
2 1 0 3.3 3.3
2 -1 0 2.2 3.9
2 -1 0 8.5 1.8
-2 1 0 4.3 1.6
-2 -1 0 5 3.2
-2 1 0 1.6 3.3
-2 -2 0 5384.86 133.59
-2 -2 0 5341.17 154.28
-2 2 0 5012.1 132.79
2 -2 0 5074.19 132.29
2 -2 0 5352.56 157.98
2 2 0 5118.29 153.08
2 2 0 4998.9 131.59
-2 2 0 5131.29 156.28
2 -3 0 118.39 23.6
2 -3 0 86.39 8.5
-2 -3 0 96.99 8.8
-2 3 0 117.29 22.7
-2 3 0 84.39 8
-2 -3 0 103.89 21.1
2 3 0 99.29 19
2 3 0 99.49 8.2
-2 -4 0 1742.13 57.79
-2 4 0 1762.22 57.39
-2 4 0 1801.12 90.79
2 4 0 1814.42 56.59
2 -4 0 1765.82 91.39
2 -4 0 1722.53 56.79
2 5 0 12.7 5.6
-2 5 0 8.9 21.6
-2 -5 0 -17 14.5
-2 -5 0 -1.1 19.5
2 -5 0 9.3 8.4
2 -5 0 0.2 21.6
-2 5 0 9.3 6.2
2 5 0 29.1 22.3
-2 -6 0 904.81 47.1
-2 6 0 798.02 96.39
2 -6 0 830.92 43.7
-2 0 -1 35.7 2.6
2 0 1 32.4 6.1
-2 0 -1 39.5 8.6
2 0 1 31.3 2.4
-2 1 1 3632.64 91.59
2 -1 1 3629.04 92.09
2 -1 1 3577.84 92.89
-2 -1 -1 3700.63 104.89
2 1 -1 3672.83 102.29
-2 -1 -1 3698.23 92.49
-2 1 1 3723.43 104.99
2 -1 -1 3750.42 104.19
2 1 1 3519.55 92.09
2 1 1 3612.74 104.69
-2 -1 1 3626.84 103.19
2 -2 1 184.18 10
-2 -2 -1 195.88 10.4
-2 2 1 190.58 9.8
-2 2 1 183.08 18.9
2 -2 1 157.08 19.3
2 2 -1 152.18 17.2
-2 -2 -1 160.28 17.3
-2 2 -1 176.48 19.8
2 2 1 187.58 18.4
2 2 1 186.48 9.6
2 -2 -1 178.68 9.3
2 -2 -1 176.68 18.9
-2 -2 1 176.88 19.1
-2 -2 1 170.38 13.9
2 3 -1 1285.47 64.99
-2 -3 -1 1317.37 65.99
-2 3 1 1349.36 67.19
2 -3 1 1547.85 86.09
-2 3 1 1327.27 43.4
-2 -3 -1 1366.36 43.7
2 -3 1 1346.47 43.7
2 3 1 1321.97 65.89
2 -3 -1 1424.86 69.39
2 -3 -1 1338.97 42.7
-2 -3 1 1237.58 65.69
-2 -3 1 1333.07 43.3
2 3 1 1370.06 43
2 -4 1 15.2 14.4
-2 -4 -1 11 14.6
-2 4 1 8.2 14.1
-2 -4 -1 -11.4 4.8
-2 4 1 0.9 3.4
2 -4 1 -2.4 4.8
2 4 -1 22.7 15.3
2 -4 -1 17.9 14.4
-2 4 -1 -17.2 13.4
2 4 1 -18.7 13.1
-2 -4 1 4.4 5.4
2 -4 -1 -3.9 4.9
-2 -4 1 4.4 13.7
2 4 1 -1.5 3.2
-2 -5 -1 824.42 68.69
2 5 -1 791.52 67.09
-2 5 1 907.01 37.5
2 -5 1 888.41 72.39
2 -5 1 851.41 38.1
-2 5 1 842.92 67.29
2 -5 -1 971.7 73.99
-2 -5 1 1023.5 75.29
-2 5 -1 715.53 66.09
2 5 1 837.72 35.8
2 5 1 851.71 67.99
2 -5 -1 874.91 37.7
-2 -6 -1 19 16.8
2 -6 1 -3.5 15
-2 -6 -1 -26.3 56.49
-2 6 1 17.2 35.7
2 -6 1 7.7 36.4
2 6 -1 12 40.6
-2 6 -1 8.6 36.6
2 6 1 -4.8 5.9
2 6 1 -20.3 37.1
2 -6 -1 -16 32.5
-2 -6 1 -13.7 16.5
-2 -6 1 -37.8 34.1
2 -6 -1 -4.2 15
-2 0 2 389.56 17.8
2 0 2 374.66 13.3
2 0 -2 395.06 17.9
-2 0 -2 399.56 13.7
2 0 2 416.46 22.9
-2 0 -2 384.26 22.3
2 -1 2 528.85 28.8
2 -1 2 502.75 17.1
2 -1 2 506.35 29.7
-2 -1 -2 508.45 27.7
-2 1 2 499.05 25.2
-2 1 2 485.35 16
-2 -1 -2 492.35 17.1
-2 -1 2 507.95 25.8
2 1 2 497.15 17.2
2 1 2 496.15 27.2
2 -1 -2 516.65 25.2
2 -2 2 100.09 7.7
-2 2 2 91.59 6.8
-2 2 2 108.99 18
-2 -2 -2 98.09 17.3
2 2 -2 112.59 18.6
-2 -2 -2 90.39 7.1
2 -2 2 126.09 17.5
-2 -2 2 102.89 15.1
2 2 2 91.19 7
2 -2 -2 103.59 6.8
2 2 2 107.79 18.5
-2 2 -2 75.19 16.2
2 -2 -2 60.69 17.5
2 3 -2 269.67 28.3
2 -3 2 273.97 15.5
-2 3 2 258.17 14.4
-2 -3 -2 281.67 15.4
-2 -3 -2 262.87 28.8
2 -3 2 250.77 31
-2 3 2 246.18 27.5
2 3 2 258.77 28.2
2 -3 -2 294.57 29.1
2 3 2 255.47 15.9
-2 3 -2 261.27 29.4
-2 -3 2 288.47 15.5
-2 -3 2 278.07 30.4
2 -3 -2 251.57 14.2
2 4 -2 95.89 23.7
2 -4 2 89.49 25.7
-2 -4 -2 76.39 11.5
-2 -4 -2 75.39 22.6
-2 4 2 93.19 10.1
2 -4 2 88.59 12.3
-2 4 2 79.39 22.5
-2 4 -2 66.89 26
2 -4 -2 84.99 22
2 4 2 65.69 24.1
-2 -4 2 68.59 11.3
2 -4 -2 74.79 10.4
-2 -4 2 50.29 21.3
2 4 2 79.49 9.4
2 -5 2 33.4 28.4
2 5 -2 25.3 30.5
-2 -5 -2 37.9 27.7
-2 5 2 46.6 9.8
-2 5 2 56.69 28
2 -5 -2 34.7 25.6
2 5 2 28.5 25.6
-2 -5 2 31.4 26.3
2 -5 -2 63.59 11.2
2 5 2 76.19 10.3
-2 5 -2 34.7 27.4
-2 6 2 42 42.6
2 -6 2 68.69 40.4
2 6 -2 34.4 42.1
2 -6 2 22.9 17.7
-2 -6 -2 3.2 33.3
-2 6 2 45.7 10.1
-2 -6 -2 28 18.9
-2 6 -2 61.39 43.2
2 6 2 25.6 38.3
-2 -6 2 45.7 18.5
2 -6 -2 27.3 16.4
2 -6 -2 96.99 42
2 6 2 44.5 11.3
-2 -6 2 -38.2 37.7
2 0 -3 75.49 11.7
-2 0 3 81.99 12.7
2 0 3 51.89 10.7
-2 0 3 60.39 4.2
2 0 3 60.09 5
-2 0 -3 81.69 14.9
-2 0 -3 53.29 5
-2 1 3 3272.67 86.79
-2 -1 -3 3362.36 88.59
2 -1 3 3368.36 88.59
-2 1 3 3237.48 102.79
2 -1 3 3187.18 107.99
-2 -1 -3 3485.65 110.69
-2 -1 3 3576.24 106.39
2 -1 -3 3397.46 103.59
2 1 3 3359.86 88.69
-2 -1 3 3467.45 102.59
2 -1 -3 3370.46 86.19
2 1 3 3368.96 109.29
-2 2 3 3.9 2.3
2 -2 3 2.6 2.2
2 -2 3 4.8 7.9
2 -2 3 -4.9 8.8
-2 2 3 -4.7 6.1
-2 -2 -3 10.1 8.4
-2 -2 -3 -2.6 2.2
-2 -2 3 0 7.8
2 2 3 -5 7
2 2 3 1.8 2
2 -2 -3 -0.5 2.1
2 -2 -3 8.5 9.1
2 3 -3 1838.62 85.49
2 -3 3 1838.22 57.29
-2 3 3 1849.31 56.09
2 -3 3 1886.81 89.39
-2 3 3 1746.23 81.09
-2 -3 -3 1819.72 56.39
-2 -3 -3 1833.22 83.79
-2 -3 3 1868.11 87.29
2 -3 -3 1914.81 84.29
-2 -3 3 1838.52 56.59
2 3 3 1792.92 56.09
2 3 3 1829.72 83.49
2 -3 -3 1870.51 55.19
-2 4 3 12.1 16.7
2 4 -3 -6.8 14.7
-2 4 3 6.7 4
-2 -4 -3 0.7 5.3
2 -4 3 0 6.4
2 -4 3 -0.7 16.4
2 -4 -3 2.2 5.5
2 -4 -3 9.5 14.9
2 4 3 -21.2 24.3
-2 -4 3 19 15.8
-2 4 -3 -12.7 16.9
2 4 3 5.1 3.8
2 5 -3 878.81 72.99
-2 -5 -3 964.6 43.3
-2 5 3 978.3 76.39
-2 -5 -3 1059.59 78.89
-2 5 3 1051.79 42.7
2 5 3 1025.3 77.59
2 -5 -3 1028.7 42.7
2 -5 -3 1141.89 81.89
-2 5 -3 1098.09 82.09
2 5 3 1045.9 42
2 -6 3 -25.5 41.3
2 6 -3 13.7 41.7
-2 -6 -3 -25 16.6
-2 6 3 -8.1 7
-2 6 3 -43.9 37.7
-2 6 -3 43.3 42
2 -6 -3 -10 37.8
2 6 3 -21.2 45.6
-2 -6 3 -12.8 18.4
2 6 3 -9.2 6.8
2 -6 -3 1.6 16.7
-2 -6 3 -18 36.8
-2 0 -4 2568.34 69.89
2 0 4 2526.85 91.99
-2 0 -4 2632.14 93.29
-2 0 4 2544.35 85.59
2 0 4 2494.35 69.69
-2 0 4 2495.75 67.79
2 0 -4 2579.24 85.79
-2 1 4 103.99 7.3
2 -1 4 125.49 17.4
2 -1 4 118.59 8.3
-2 -1 -4 120.49 8.5
-2 1 4 116.69 15.7
-2 -1 -4 122.99 17.6
-2 1 -4 119.29 21.6
2 1 4 121.39 8.3
2 -1 -4 110.69 7
-2 -1 4 118.19 15.4
2 1 4 131.69 18
2 -1 -4 133.79 16.5
-2 -1 4 118.89 7.4
-2 2 4 2997.9 108.89
-2 -2 -4 3158.88 86.49
2 -2 4 3102.29 114.29
-2 -2 -4 3129.39 114.69
-2 2 4 3214.98 85.89
2 -2 4 3210.28 118.89
2 2 4 3202.98 115.09
-2 -2 4 3385.26 115.99
2 -2 -4 3174.28 111.59
2 -2 -4 3038.7 83.79
-2 -2 4 3167.78 109.19
2 2 4 2857.51 90.09
-2 -3 -4 229.08 16
2 -3 4 231.98 14.7
-2 -3 -4 199.78 28.5
2 -3 4 237.48 32.4
-2 3 4 217.68 27.6
2 -3 4 251.07 33.3
2 -3 -4 254.27 30.1
2 3 4 261.17 30.8
2 -3 -4 213.18 13.5
-2 -3 4 236.68 30.8
2 3 4 212.58 14.1
-2 4 4 1361.16 48.3
2 -4 4 1430.76 86.39
-2 -4 -4 1420.86 86.29
2 -4 4 1207.88 50.39
-2 4 4 1372.26 78.89
2 4 4 1373.26 48.5
-2 -4 4 1328.67 82.09
2 4 4 1421.26 83.49
2 -4 -4 1345.47 80.69
2 -4 -4 1369.56 46.8
-2 -5 -4 3.2 11.4
-2 -5 -4 26.1 25.9
-2 5 4 32.4 9.2
2 -5 4 34 33.9
2 -5 4 30.9 12.6
-2 5 4 78.49 32.9
2 5 4 7.7 6.8
-2 -5 4 9.6 19.7
2 5 4 -4.7 24.4
2 -5 -4 32.6 11.7
2 -5 -4 29.8 27.9
2 -6 4 620.34 45.6
2 6 -4 524.25 77.79
-2 -6 -4 562.24 91.39
2 -6 4 461.95 107.59
-2 6 4 599.94 33.3
-2 6 4 614.04 85.89
2 -6 -4 566.54 41.3
2 -6 -4 503.45 79.39
2 6 4 649.64 33.3
-2 -6 4 779.82 90.19
2 0 -5 776.52 43
2 0 5 804.42 47.2
-2 0 5 804.72 27.2
-2 0 5 775.42 42.8
2 0 5 825.52 33.8
-2 0 -5 799.42 28.6
-2 0 -5 844.92 49.2
-2 1 5 545.85 37.6
-2 -1 -5 690.03 26
2 -1 5 683.63 25.8
-2 1 5 684.83 24.7
2 -1 5 657.53 44
-2 -1 -5 647.84 44.2
2 1 5 690.03 44.8
-2 -1 5 692.03 24.4
-2 -1 5 708.63 41.4
-2 1 -5 737.53 46.7
2 1 5 697.13 25.9
2 -1 -5 672.63 23.5
-2 -2 -5 137.09 11
2 -2 5 144.09 27.8
-2 2 5 163.48 10.9
-2 2 5 110.69 21.3
-2 -2 -5 178.48 25.1
2 -2 5 142.99 25.7
2 -2 5 133.59 10.7
2 -2 -5 108.29 21.3
2 2 5 141.19 10.7
2 2 5 114.99 23.5
-2 -2 5 139.59 10.1
-2 -2 5 186.68 26.1
2 -2 -5 136.89 10.1
-2 -2 5 99.49 21.1
-2 -3 -5 264.27 17.3
2 -3 5 251.27 35
2 -3 5 204.08 34.3
-2 3 5 269.47 32.9
-2 3 5 266.67 16.1
-2 -3 -5 297.37 35.8
2 -3 5 281.77 16.8
2 -3 -5 273.47 15.9
-2 -3 5 243.88 31.7
2 3 5 272.47 16.9
2 3 5 243.88 33.1
-2 -3 5 333.07 39.3
2 -3 -5 259.67 34.7
-2 4 5 200.78 15.6
2 -4 5 206.38 41.7
2 -4 5 173.68 37.3
2 -4 5 191.88 15.5
-2 4 5 193.68 36.5
-2 -4 -5 199.08 37.1
-2 -4 5 139.49 31.2
2 -4 -5 203.48 16.2
2 4 5 200.18 15.4
2 4 5 117.89 34.5
2 -4 -5 215.48 38.7
-2 -5 -5 304.37 52.19
-2 5 5 372.66 63.79
-2 -5 -5 262.47 27.3
-2 5 5 268.87 20.6
2 -5 5 216.98 27.2
2 -5 5 219.68 51.49
2 -5 5 241.78 58.39
2 5 5 208.88 45.7
2 5 5 286.07 21.1
-2 -5 5 207.38 44.8
2 -5 -5 323.27 59.09
-2 0 6 821.12 50.09
-2 0 -6 988.4 58.89
-2 0 -6 1024.2 35.1
2 0 6 967.9 34.6
2 0 6 954.3 57.59
-2 0 6 1055.79 34
-2 -1 -6 19.4 5.9
2 -1 6 20.4 13.3
2 -1 6 29.6 6
-2 -1 -6 11.9 12.7
-2 1 6 23.9 13
-2 1 6 19.4 4.7
2 1 6 16.8 4.6
-2 1 -6 23.2 14.2
-2 -1 6 19.1 4.9
2 1 6 27.6 15
-2 -1 6 17.8 11.6
2 -2 6 467.55 44.8
-2 -2 -6 455.75 22.4
-2 -2 -6 432.96 41.2
-2 2 6 435.06 20.8
2 -2 6 467.65 42.6
2 -2 6 426.86 21.3
-2 2 6 429.96 37.9
-2 -2 6 433.36 40.7
2 2 6 438.16 21.6
2 2 6 443.96 41.7
2 -2 -6 419.86 38.8
2 -2 -6 425.76 19.5
-2 -2 6 461.55 39.3
-2 -3 -6 7.7 16.2
-2 3 6 -17.7 14.3
2 -3 6 14 20.2
2 -3 6 -3.3 4.1
2 -3 6 -8.6 17.5
2 -3 -6 19 17.7
-2 -3 6 -5 17.6
-2 -3 6 20.4 16.2
2 -3 -6 5.6 5.6
-2 -3 6 3.5 4.6
2 3 6 4.6 4
2 3 6 13.4 18.2
-2 -4 -6 360.26 25.6
2 -4 6 393.66 23.4
2 -4 6 421.96 77.99
-2 4 6 433.46 24.1
2 -4 6 385.06 27.2
-2 -4 -6 416.26 54.29
-2 4 6 431.96 51.09
2 -4 -6 402.56 52.39
-2 -4 6 580.04 73.89
-2 -4 6 322.17 50.79
2 4 6 400.26 23.6
2 -4 -6 392.66 23.4
2 4 6 383.66 56.59
-2 -4 6 320.27 26.3
2 -5 6 6.9 8.1
-2 -5 -6 25.7 18.2
2 -5 6 47.5 43.7
2 -5 6 33.5 17.8
-2 5 6 1.9 32.1
-2 -5 6 1.7 17.2
-2 -5 6 26.8 38.5
2 5 6 4.1 34.6
-2 -5 6 12.9 39.8
2 -5 -6 -3.4 13.5
2 5 6 16 8.3
2 -5 -6 64.99 38.6
2 0 7 244.08 15.6
-2 0 -7 253.77 16.3
-2 0 7 271.37 31.8
2 0 7 271.77 34.9
-2 0 -7 271.07 35.3
-2 0 7 252.17 14.9
2 -1 7 1545.85 50.59
-2 1 7 1526.65 49
-2 -1 -7 1452.35 49.8
-2 1 7 1339.47 73.09
2 -1 7 1477.55 79.69
2 -1 -7 1513.75 46.9
-2 1 -7 1606.14 84.99
2 1 7 1476.25 49.99
-2 -1 7 1332.87 72.79
-2 -1 7 1584.44 57.39
2 1 7 1480.05 81.09
2 -1 -7 1469.35 76.49
-2 2 7 354.76 38.7
2 -2 7 334.27 42.7
2 -2 7 206.78 40.2
-2 2 7 294.07 17.5
-2 -2 -7 304.47 39.1
2 -2 7 309.57 18.7
2 -2 -7 310.77 17.3
2 2 7 287.57 18.1
-2 -2 7 291.77 17.4
2 2 7 320.27 48.2
-2 -2 7 258.27 35.5
2 -2 -7 325.37 38.8
-2 3 7 1114.49 73.19
-2 -3 -7 1174.58 81.39
-2 3 7 1139.09 43.3
2 -3 7 1174.68 79.69
2 -3 7 1119.19 43.7
2 -3 7 1190.28 86.09
-2 -3 7 1149.08 42.4
2 -3 -7 1037.6 72.69
-2 -3 7 1074.89 72.59
2 -3 -7 1154.18 42
2 3 7 1099.09 76.99
2 3 7 1116.49 43.7
-2 4 7 162.68 16.1
-2 -4 -7 112.99 38
2 -4 7 75.59 40.9
2 -4 7 117.89 41
-2 4 7 131.59 35.3
-2 -4 -7 135.29 18.7
2 -4 7 161.78 18.2
2 4 7 133.19 15.1
-2 -4 7 126.99 15.6
-2 -4 7 152.28 39.3
-2 -4 7 164.88 42.2
2 4 7 114.09 42.8
2 -4 -7 101.09 35.8
2 -4 -7 139.29 17.1
2 -5 7 452.75 109.99
-2 5 7 534.25 31.5
2 -5 7 511.05 30.9
-2 5 7 465.85 97.89
2 -5 7 480.95 75.39
2 -5 7 442.96 45.3
2 5 7 543.55 31.5
-2 -5 7 338.67 86.89
-2 -5 7 551.04 32.3
2 -5 -7 493.25 36
2 5 7 579.94 81.79
2 0 -8 997.8 65.59
-2 0 -8 916.11 68.49
2 0 8 928.41 37
-2 0 8 914.31 35.4
2 0 8 909.71 65.59
-2 0 8 912.01 61.49
-2 1 8 92.99 27.1
2 -1 8 130.59 12.6
-2 -1 -8 111.29 30.9
-2 1 8 117.29 11.7
2 -1 8 105.89 32.2
2 1 8 94.19 27.8
-2 1 -8 98.59 30.6
-2 -1 8 119.19 11.6
2 1 8 96.79 11.2
2 -1 -8 141.29 12.5
-2 -1 8 61.09 22.7
2 -1 -8 159.48 34.8
2 -2 8 881.61 37.4
2 -2 8 931.71 72.39
-2 2 8 930.71 37.2
2 -2 8 827.32 72.59
-2 2 8 858.31 64.69
2 -2 -8 923.11 67.39
2 -2 -8 902.51 35.1
-2 -2 8 884.51 71.49
-2 -2 8 950.6 66.49
2 2 8 904.81 37.8
-2 -2 8 882.81 36.1
-2 3 8 105.79 38.6
-2 -3 -8 74.19 15.2
-2 -3 -8 31.4 38.9
2 -3 8 158.18 38.8
-2 3 8 123.79 13.7
2 -3 8 85.19 38.5
2 -3 -8 50.39 33.4
2 -3 -8 110.09 15.9
-2 -3 8 47.5 31
-2 -3 8 110.89 14
2 3 8 150.28 40.3
-2 -3 8 33.9 30.8
-2 -4 -8 584.04 77.49
2 -4 8 360.36 63.09
-2 4 8 578.34 32.2
-2 4 8 351.26 58.89
2 -4 8 545.15 30.6
-2 -4 -8 557.74 39.1
2 -4 -8 685.33 75.39
2 4 8 512.05 30.2
2 4 8 529.15 70.09
-2 -4 8 387.96 64.89
-2 -4 8 529.65 31.1
-2 -4 8 607.14 73.49
2 0 9 -12.7 24.3
-2 0 -9 -16.3 25.5
-2 0 9 -11.7 21.2
2 0 9 -6.5 5.1
-2 0 -9 -13.5 10
-2 0 9 7.3 5.3
2 0 -9 -14.6 22.5
-2 -1 -9 24.1 32.6
-2 1 9 -7.2 5.1
2 -1 9 5.2 31.6
-2 -1 -9 -13.2 10.9
-2 1 9 3.6 22.3
2 -1 9 5.8 5.7
-2 -1 9 15.3 23.6
2 1 9 5 31.3
2 -1 -9 28.1 27
2 -1 -9 14.6 8.9
-2 -1 9 9.4 6.4
-2 2 9 31.4 30.4
-2 -2 -9 4.2 13.8
-2 -2 -9 -21.9 32
2 -2 9 32 9
-2 2 9 22.1 7.5
2 -2 9 55.99 32.6
-2 -2 9 24.8 8.5
2 2 9 20.3 7.6
2 2 9 1.3 28.3
-2 -2 9 -6.9 26.9
-2 -2 9 20.4 32.1
2 -2 -9 0.4 31.6
2 -3 9 -5 7.6
-2 -3 -9 3.4 17.3
-2 -3 -9 1.2 37.9
2 -3 9 1 41.2
-2 -3 9 8.7 8.3
2 -3 -9 25.2 37.5
2 3 9 5.3 6.9
2 3 9 -4.7 37
2 -3 -9 -14.8 12.8
-2 -3 9 16.1 37.6
-2 -3 9 -8.7 33.6
-2 0 10 543.95 28.4
2 0 10 504.55 28.3
-2 0 10 476.95 62.09
-2 0 -10 545.85 76.69
2 0 10 482.75 68.49
-2 0 -10 456.15 33.2
2 0 -10 436.96 64.19
2 -1 10 106.89 42.9
-2 -1 -10 89.09 43.5
-2 1 10 142.89 15.6
2 -1 10 164.08 16.7
-2 1 10 57.59 36.5
2 -1 -10 134.49 44.5
-2 -1 10 131.29 16.1
2 1 10 140.89 47.3
-2 -1 10 138.29 40.7
2 1 10 145.89 16.1
-2 -2 -10 321.57 64.59
2 -2 10 293.27 23.3
2 -2 10 197.28 55.09
2 -2 10 424.26 69.69
-2 2 10 321.57 23
-2 -2 -10 257.97 34.7
2 -2 -10 281.17 26.1
2 2 10 257.47 52.99
2 2 10 302.97 23.1
-2 -2 10 261.77 53.09
3 -1 0 -5.5 4.5
-3 -1 0 -4.3 2.7
-3 1 0 -2.2 3.7
3 1 0 1.4 3.3
-3 2 0 1.5 1.9
-3 2 0 6.8 7.2
3 -2 0 1.2 2
-3 -2 0 10.5 6.8
-3 -2 0 2.8 2.2
3 2 0 1.1 5.8
-3 -3 0 4.9 9.1
3 3 0 1.2 2.5
3 -3 0 -1.4 3.4
3 -3 0 11.2 10.4
-3 3 0 -1.7 2.5
-3 -3 0 8.8 3.6
3 3 0 12.7 9.8
-3 3 0 2 9.4
3 4 0 -16.3 13.8
3 -4 0 -8.9 15.3
3 4 0 -0.7 3.5
3 -4 0 -1.6 4.8
-3 -4 0 -10.4 13.3
-3 4 0 -1.2 3.9
-3 -4 0 -1.5 5.5
3 -5 0 24.3 26.9
3 5 0 -13.2 23
-3 5 0 2 5.5
-3 5 0 -18.5 22.9
3 -5 0 -17.2 8.1
3 -6 0 -2.6 38.7
-3 6 0 -34.1 36.1
3 -6 0 22.9 15.7
3 6 0 -41.9 38.1
-3 -6 0 48.6 44.9
-3 -6 0 41 18
-3 0 -1 1253.47 34.3
3 0 1 1270.67 43.7
-3 0 -1 1344.47 44.4
3 -1 1 4436.96 116.59
-3 -1 -1 4663.13 129.99
-3 1 1 4470.45 129.09
3 1 -1 4602.44 124.79
3 -1 1 4719.33 134.49
-3 -1 -1 4685.03 116.49
3 -1 1 4532.55 115.89
3 -1 -1 4788.02 128.39
3 1 1 4708.53 130.39
-3 -1 1 4771.22 125.09
-3 -2 -1 550.54 32.7
-3 2 1 537.35 34.3
3 -2 1 551.14 36.1
3 2 -1 544.65 32.2
-3 -2 -1 551.04 20
3 -2 1 520.75 20
-3 2 1 519.05 19.7
3 -2 -1 550.54 34.2
3 2 1 544.75 32.5
-3 2 -1 576.84 35.8
-3 -2 1 583.54 33.1
3 2 1 531.15 19.4
-3 -2 1 489.25 18.8
3 -2 -1 541.25 18.7
3 -3 1 3148.68 122.59
-3 -3 -1 3288.87 118.69
-3 3 1 3144.79 89.29
-3 -3 -1 3211.38 89.59
-3 3 1 3124.29 119.49
3 3 -1 3119.29 116.09
3 -3 1 3201.58 89.69
3 3 1 3300.47 118.79
3 3 1 3530.65 93.69
-3 -3 1 3273.27 89.79
3 -3 -1 3194.48 90.69
-3 -3 1 3056.39 116.99
3 -3 -1 3273.97 121.09
-3 3 -1 3193.08 121.89
3 -4 1 389.16 42.4
3 4 -1 259.07 34.1
-3 -4 -1 335.27 37.9
3 -4 1 348.57 19.6
-3 4 1 368.16 40.1
-3 4 1 343.67 19.5
-3 -4 -1 297.27 29.2
3 -4 -1 309.77 38.6
3 -4 -1 337.17 18.9
3 4 1 348.77 39.1
3 4 1 351.76 18.7
-3 -4 1 320.37 19.5
-3 -4 1 392.06 41.3
-3 4 -1 310.87 39.7
-3 5 1 970.5 75.39
-3 5 1 1105.59 43.3
3 5 -1 1077.89 74.89
3 -5 1 1060.29 81.49
3 -5 1 1098.59 43.4
3 -5 -1 1062.59 42.4
-3 5 -1 954.4 75.79
3 5 1 1061.49 41.1
3 5 1 1021.6 76.49
3 -5 -1 1132.89 80.69
3 -6 1 206.08 54.19
-3 -6 -1 33 32.8
-3 6 1 111.39 20.1
3 6 -1 178.28 49.1
3 -6 1 113.19 20.7
-3 6 1 94.79 44
-3 -6 -1 66.59 20.4
3 -6 -1 132.49 22.7
-3 6 -1 157.48 49.6
3 6 1 136.09 15.4
3 -6 -1 145.69 46.5
-3 -6 1 66.89 39
-3 -6 1 68.49 19.9
3 6 1 131.29 46
-3 0 -2 8522.25 225.08
3 0 2 8266.27 207.08
-3 0 -2 8539.85 207.78
3 0 2 8269.07 224.38
-3 1 2 524.85 26.4
3 -1 2 511.75 29.5
-3 -1 -2 558.94 30.2
3 -1 2 525.65 18
3 1 2 518.95 29
3 1 2 513.65 17.9
3 -1 -2 521.65 25
-3 -1 2 541.65 26
-3 2 2 2912.81 80.29
3 -2 2 3001.6 108.09
-3 2 2 3040.8 103.59
3 -2 2 3100.19 81.39
3 -2 2 2976 82.09
-3 -2 -2 3006 81.49
3 2 -2 2989 99.59
-3 -2 -2 3048.79 104.09
3 -2 -2 3105.59 102.59
3 -2 -2 2975.5 78.89
-3 -2 2 2967.4 102.69
3 2 2 2941.11 102.49
3 2 2 3038.5 81.29
-3 -2 2 3134.89 80.89
3 -3 2 383.86 18.7
3 -3 2 389.36 38.5
-3 -3 -2 375.06 18.8
-3 -3 -2 360.26 33.5
3 3 -2 356.16 37
-3 3 2 364.56 34.7
-3 3 2 402.36 18.4
-3 3 -2 393.96 37.7
-3 -3 2 390.06 18.5
-3 -3 2 328.77 45
3 3 2 383.16 34
3 3 2 373.56 17.9
3 -3 -2 385.96 17.9
3 -3 -2 404.16 34.7
-3 4 2 2382.76 73.99
-3 -4 -2 2275.37 107.69
3 -4 2 2446.66 74.79
-3 4 2 2482.35 111.09
3 4 -2 2455.45 108.29
3 4 2 2432.56 109.89
-3 -4 2 2415.86 74.49
-3 -4 2 2364.86 111.29
3 -4 -2 2546.15 111.99
3 4 2 2322.97 72.49
3 -4 -2 2488.55 72.99
-3 4 -2 2451.25 112.79
-3 5 2 146.29 39.2
-3 -5 -2 189.58 63.29
3 5 -2 158.08 38.6
-3 5 2 130.19 13.9
-3 -5 -2 86.59 15.4
3 -5 2 85.39 32
-3 -5 2 95.49 15.3
3 -5 -2 118.19 16.1
3 5 2 127.09 13.1
3 -5 -2 84.99 32.2
3 5 2 138.79 35.3
-3 5 -2 102.99 32.5
3 -6 2 946.61 64.29
-3 -6 -2 1001.4 91.09
-3 6 2 1051.09 92.19
3 6 -2 1176.38 98.49
-3 6 2 1031.1 46.1
-3 -6 -2 1000.7 51.39
3 6 2 947.01 95.29
3 6 2 973.1 42.7
-3 -6 2 936.41 87.49
3 -6 -2 946.81 96.49
-3 0 -3 88.59 15.4
3 0 3 89.59 15.7
-3 0 3 76.79 9.6
3 0 -3 98.29 12.9
-3 0 -3 81.29 6.3
3 0 3 83.09 6.1
-3 -1 -3 554.54 33.6
-3 -1 -3 500.55 19
-3 1 3 501.85 27.5
3 -1 3 471.85 31.3
3 -1 3 524.65 19.1
-3 1 3 505.15 17.2
3 1 3 483.25 18.7
-3 1 -3 518.85 19.2
-3 -1 3 554.44 27.1
3 1 3 512.65 32.5
-3 -1 3 526.55 28.7
3 -1 -3 506.05 27.6
3 -2 3 2.4 2.5
-3 -2 -3 3.1 8.4
-3 -2 -3 2.6 2.7
-3 2 3 -1.3 1.9
-3 2 3 -0.7 7.8
3 -2 3 -6.7 7.7
3 -2 3 14.5 9.8
3 2 3 2.7 2.6
3 2 3 11.3 8.6
3 -2 -3 1.2 2.3
3 -2 -3 1.8 6.1
-3 -2 3 9.8 7.9
3 3 -3 621.84 44.6
-3 -3 -3 710.83 28.1
-3 3 3 648.74 51.39
3 -3 3 746.03 53.79
-3 -3 -3 663.93 47.4
3 -3 3 708.33 28.4
-3 3 3 701.93 27.1
-3 -3 3 686.03 27.1
3 3 3 709.53 27.4
3 -3 -3 672.53 50.69
3 3 3 659.93 47.3
-3 -3 3 699.83 49.7
-3 -4 -3 -17.6 14.2
-3 4 3 33.8 18.4
-3 4 3 20.2 5.9
3 -4 3 15.1 19
3 4 -3 31.9 19.2
3 -4 -3 28.2 7.3
-3 -4 3 11.6 7.3
3 -4 -3 6.3 16.7
3 4 3 26.2 18.3
-3 -4 3 -5 18.3
3 4 3 25.6 6.5
-3 5 3 98.89 33.3
3 -5 3 71.49 34.4
3 5 -3 165.38 62.99
-3 5 3 112.69 13.3
-3 -5 -3 90.79 14.9
3 -5 3 66.09 16.4
-3 -5 3 65.89 30.9
3 5 3 88.19 11.8
3 -5 -3 83.99 31.1
-3 -5 3 95.09 16.5
3 5 3 84.99 32.4
-3 5 -3 21.8 33.3
3 -5 -3 123.29 16.3
-3 -6 -3 -33.9 36
-3 6 3 -2.4 43.3
3 -6 3 18.5 24
3 -6 3 -19.1 47.2
3 6 -3 17.5 43
-3 6 3 9.7 8.7
3 -6 -3 12.9 18.9
3 -6 -3 2.8 41.9
-3 -6 3 47.1 41.5
-3 6 -3 -41.1 45.7
3 6 3 10.5 7.6
3 6 3 33.7 48
3 0 4 672.43 24.1
3 0 -4 715.23 34.7
-3 0 4 670.13 21.7
-3 0 -4 651.73 40.4
-3 0 -4 668.73 24.2
3 0 4 632.94 39.7
-3 0 4 666.03 33.7
-3 1 4 237.28 11.2
-3 -1 -4 234.38 12.7
3 -1 4 231.78 12.4
3 -1 4 257.67 25.2
-3 1 4 249.38 21.4
-3 -1 -4 234.68 24.1
-3 -1 4 255.77 20.8
-3 1 -4 223.98 12.4
-3 -1 4 263.17 22.4
-3 1 -4 253.37 25.8
-3 -1 4 248.78 11.1
3 -1 -4 279.07 22.6
3 1 4 209.08 23.4
3 1 4 223.38 12.4
-3 -2 -4 1084.79 37
-3 -2 -4 1143.79 59.99
-3 2 4 1099.09 35.8
3 -2 4 1062.49 58.59
3 -2 4 1075.59 61.69
-3 2 4 1103.79 55.39
3 -2 4 1128.19 37.2
3 -2 -4 1052.09 54.39
-3 -2 4 1150.68 57.99
3 2 4 1073.99 36.8
3 2 4 1094.39 58.89
-3 -2 4 1158.78 53.69
3 -2 -4 1083.99 33.8
3 -3 4 73.19 21.9
3 -3 4 130.09 12.2
-3 3 4 122.69 10.5
3 -3 4 124.19 26.8
-3 3 4 105.39 23.4
3 -3 4 118.39 10.7
-3 -3 -4 149.29 11.8
3 3 4 123.49 10.7
3 -3 -4 107.29 35
-3 -3 4 104.49 25.6
3 -3 -4 136.89 10.4
-3 4 4 358.36 20.9
3 -4 4 374.26 21.3
3 -4 4 407.86 24.1
-3 4 4 346.07 42.8
-3 -4 -4 448.86 47.6
3 -4 4 381.76 48.9
3 -4 -4 399.46 45
3 -4 -4 378.16 20.4
-3 -4 4 346.67 22.1
3 4 4 363.56 20.9
3 4 4 310.77 48.3
-3 5 4 90.49 13.9
3 -5 4 81.69 36.4
-3 5 4 97.59 34.9
3 -5 4 63.99 15.5
3 5 -4 125.69 36.7
3 5 4 98.19 12.8
3 5 4 71.79 31.6
-3 -5 4 102.49 17
3 -5 -4 65.29 33.1
-3 -5 4 97.99 35.9
3 -5 -4 100.89 14.7
3 -6 4 174.68 58.29
3 -6 4 143.69 28.8
-3 6 4 174.48 18.7
-3 -6 -4 179.38 55.59
-3 6 4 271.77 63.59
3 6 -4 233.38 115.49
3 6 4 206.58 64.09
3 6 4 177.48 18.2
-3 -6 4 178.58 73.19
3 -6 -4 157.68 57.19
3 -6 -4 128.19 22.4
3 0 5 175.58 23.8
3 0 -5 183.38 20.1
-3 0 -5 189.68 23.8
-3 0 5 206.68 10.8
-3 0 -5 207.68 12.5
3 0 5 200.78 12.1
-3 0 5 191.08 20.9
3 -1 5 1749.43 81.59
3 -1 5 1921.71 57.09
-3 -1 -5 1885.41 56.99
-3 1 5 1865.01 74.79
-3 -1 -5 1847.02 83.69
-3 1 5 1947.01 54.79
3 -1 -5 1904.81 75.89
-3 -1 5 1950.1 74.99
-3 1 -5 1889.91 84.39
-3 1 -5 1859.71 56.59
3 1 5 1874.81 83.29
3 1 5 1874.91 56.69
-3 -1 5 1944.21 54.09
3 -2 5 165.18 12
-3 2 5 149.09 24.9
3 -2 5 159.18 27.8
3 -2 5 127.49 25.5
-3 2 5 159.08 10.9
-3 -2 -5 107.79 23.9
3 -2 -5 156.88 10.1
3 2 5 163.58 11.9
-3 -2 5 159.68 25.2
3 -2 -5 169.68 23.8
-3 -2 5 202.58 26.2
3 2 5 173.78 29
3 -3 5 1325.47 46
-3 -3 -5 1342.77 76.19
-3 3 5 1143.79 68.09
-3 3 5 1374.56 48.2
-3 -3 -5 1342.07 47.9
3 -3 5 1258.17 78.79
-3 -3 5 1321.17 74.99
3 3 5 1274.97 74.49
3 3 5 1360.46 46.3
-3 -3 5 1260.77 68.79
3 -3 -5 1326.57 84.39
3 -3 -5 1335.17 42.7
3 -4 5 78.59 29.9
-3 -4 -5 85.29 14.6
-3 4 5 62.79 24.4
3 -4 5 95.29 11.9
3 -4 5 77.79 32.6
-3 4 5 79.49 10.8
-3 -4 -5 115.29 32.3
3 4 5 110.79 30.7
3 -4 -5 100.89 12.4
3 -4 -5 103.19 28.9
-3 -4 5 57.79 12.1
-3 -4 5 82.09 29.7
3 4 5 92.19 11.1
3 -5 5 547.85 37.7
3 -5 5 724.63 81.19
-3 5 5 670.63 33.2
-3 5 5 707.13 71.59
3 -5 5 716.03 34.2
-3 -5 -5 648.94 39.1
3 -5 5 736.53 78.69
-3 -5 5 587.94 70.39
3 5 5 678.93 33.2
3 5 5 641.14 71.79
3 -5 -5 672.23 33.8
-3 -5 5 553.24 38.2
3 -5 -5 787.52 76.99
3 0 -6 1451.65 66.99
-3 0 -6 1431.16 75.19
-3 0 6 1509.65 45.1
-3 0 6 1372.86 65.09
3 0 6 1459.15 74.59
3 0 6 1427.46 47.1
3 -1 6 5.1 4
-3 1 6 8.3 12.8
3 -1 6 14.9 14.2
-3 -1 -6 0.8 4.8
-3 1 6 2.1 3.1
-3 -1 -6 6.1 11.9
-3 -1 6 2.8 10.8
-3 -1 6 7.9 3.5
3 -1 -6 -14 9.2
3 1 6 1.8 13.8
-3 1 -6 16.2 15.1
3 -1 -6 4.8 3.2
3 1 6 3.3 3.2
-3 1 -6 5.7 5.1
3 -2 6 725.03 57.29
-3 -2 -6 812.92 68.69
3 -2 6 773.52 31.2
-3 2 6 750.62 50.49
-3 -2 -6 754.82 31.4
3 -2 6 735.53 54.89
-3 -2 6 774.42 53.29
-3 -2 6 791.02 29
3 2 6 734.63 30.7
3 2 6 777.22 65.99
-3 -2 6 697.73 48.7
3 -2 -6 753.82 50.69
-3 3 6 1.7 4.2
-3 -3 -6 33.6 20.5
-3 3 6 -1.3 14.6
-3 -3 -6 7 7.6
3 -3 6 19.3 22.4
3 -3 6 13.2 6
3 -3 6 15.8 23.5
3 -3 -6 18.6 6.7
3 3 6 8.8 4.6
3 3 6 21.8 21.1
-3 -3 6 19.8 17.2
-3 -3 6 5.3 20.2
3 -3 -6 -11.6 16.7
-3 4 6 597.74 29.2
3 -4 6 524.55 32.5
3 -4 6 587.14 29.4
3 -4 6 368.26 68.59
-3 -4 -6 593.24 62.59
-3 -4 -6 585.94 32.8
-3 4 6 476.15 51.39
3 -4 6 628.74 67.49
-3 -4 6 501.25 31
3 4 6 582.34 29.1
-3 -4 6 498.55 54.69
3 -4 -6 607.24 27.9
3 4 6 584.64 59.89
-3 -4 6 472.85 58.99
3 -4 -6 562.54 59.49
-3 -5 -6 -1.7 19.1
-3 5 6 -36.7 33.2
3 -5 6 4.4 7.5
3 -5 6 29.3 20
3 -5 6 -28.6 45.2
3 -5 6 -0.5 48.5
-3 -5 -6 8 44.8
3 5 6 -1.2 7
-3 -5 6 -44.7 41.4
3 5 6 60.39 72.49
-3 -5 6 15 38.2
3 -5 -6 -42 37.6
-3 0 7 12.1 4.2
3 0 -7 -6.3 13.4
-3 0 -7 6.6 6.7
3 0 7 6.6 4.4
3 0 7 9.4 16.8
-3 0 -7 -15.8 14.2
-3 0 7 25.2 14
3 -1 7 2.5 4.2
-3 1 7 -6.3 13.6
-3 1 7 10.4 4.3
-3 -1 -7 33.6 22
3 -1 7 0.3 16.5
3 1 7 2.7 3.8
3 -1 -7 7.9 4.6
3 -1 -7 6.4 12.9
-3 1 -7 5.6 17.6
-3 -1 7 8 14.5
-3 -2 -7 -12.3 17.8
-3 -2 -7 0 7.5
3 -2 7 2.8 4.5
-3 2 7 5 4
3 -2 7 16.1 21.8
-3 2 7 -23.1 14.2
3 -2 7 -9.7 20.8
3 2 7 -23.7 17.2
-3 -2 7 -4 4.5
-3 -2 7 25.2 17.2
-3 -2 7 24.1 18.9
3 2 7 -0.9 4.1
-3 3 7 29.4 7.7
-3 -3 -7 76.69 30.6
3 -3 7 33.1 8.5
3 -3 7 59.99 58.09
-3 3 7 -0.8 20.5
3 -3 7 5.8 28
-3 -3 -7 38.6 11.7
-3 -3 7 22.7 7.2
3 -3 -7 43.5 8.2
-3 -3 7 47.9 26.8
3 3 7 34.4 26.4
3 -3 -7 24.7 21.8
-3 -3 7 19.6 22.1
3 3 7 26.4 7.2
-3 -4 -7 13.4 15.5
3 -4 7 -1.2 7.8
3 -4 7 -68.69 39.5
-3 4 7 4.3 7.1
3 -4 7 -41 36.6
-3 4 7 -9 27.8
3 -4 7 -2.6 16
3 4 7 -6.3 6.6
3 4 7 26.8 32.6
-3 -4 7 15 32.9
-3 -4 7 -0.8 30.7
3 -4 -7 -7.4 27.9
-3 -4 7 15.1 8.4
-3 0 -8 70.79 25.3
3 0 8 81.89 26.9
3 0 -8 82.69 23.2
3 0 8 113.99 11.9
-3 0 8 124.39 11.5
-3 0 8 89.39 24.1
-3 -1 -8 61.29 25.7
-3 1 8 34.9 7.7
-3 1 8 30.9 19.5
3 -1 8 32.7 23.2
3 -1 8 26.4 7.1
-3 -1 8 41.2 21.8
-3 1 -8 54.59 25.7
3 -1 -8 7.7 19.7
3 1 8 36.9 7.8
-3 -1 8 31.8 7.4
3 1 8 42.8 26
-3 2 8 230.78 39.3
3 -2 8 191.18 41
-3 2 8 318.57 19.3
-3 -2 -8 284.37 23.6
3 -2 8 280.77 48.2
-3 -2 -8 282.77 49.4
3 -2 8 309.87 20.7
3 2 8 298.37 19.9
-3 -2 8 243.38 39.9
3 -2 -8 286.97 18.1
-3 -2 8 279.97 45.8
-3 -2 8 310.67 19.1
3 2 8 258.67 43.6
-3 -3 -8 -14.2 27.6
3 -3 8 15.5 8
3 -3 8 1.2 36.3
-3 3 8 8.6 25
-3 3 8 17 7.6
3 -3 8 70.99 38.1
3 3 8 7.6 29.6
3 -3 -8 24.9 9.6
3 3 8 -1.4 6
-3 -3 8 13.9 8.3
-3 -3 8 28.8 27
3 -3 -8 1.4 28.4
-3 -3 8 38.6 28.4
-3 4 8 115.49 44.2
3 -4 8 9.8 47.6
3 -4 8 92.99 15
3 4 8 82.19 46.7
-3 -4 8 81.29 46.8
3 -4 -8 -9.3 46.8
3 -4 -8 97.29 16.9
-3 -4 8 134.99 17
3 4 8 122.19 15.4
-3 0 -9 -34.8 25.4
-3 0 -9 20.2 11.9
-3 0 9 -0.5 5.6
-3 0 9 0.5 23.2
3 0 -9 -2.1 21.9
3 0 9 9.6 26.3
3 -1 9 614.94 67.19
-3 -1 -9 593.24 66.79
-3 -1 -9 575.64 33.9
-3 1 9 586.84 58.29
-3 1 9 648.54 30.3
3 -1 9 683.53 33.1
3 1 9 685.03 33.3
-3 -1 9 593.54 57.09
3 1 9 580.04 67.79
-3 -1 9 680.43 30.6
3 -1 -9 531.45 58.09
-3 -2 -9 -39.2 34.8
3 -2 9 12.9 32.8
3 -2 9 -65.39 32.6
3 -2 9 7.8 7
-3 2 9 -0.4 6.2
-3 -2 -9 -19.6 27.5
-3 2 9 -8.7 26.2
-3 -2 9 2.4 27.4
3 2 9 32.4 32.5
-3 -2 9 -9 32.6
-3 -2 9 10.6 7.5
3 2 9 -0.7 6.4
3 -2 -9 9.3 9.6
-3 3 9 416.16 26.7
3 -3 9 428.06 27.2
3 -3 9 324.77 62.49
3 -3 -9 344.07 70.09
3 3 9 427.06 69.69
-3 -3 9 437.66 26.8
-3 -3 9 263.67 56.29
3 3 9 401.46 26
-3 0 -10 173.98 49.3
-3 0 10 205.08 43.6
3 0 -10 224.88 48.1
3 0 10 284.17 56.49
3 0 10 271.67 21.1
-3 0 10 303.47 21.1
3 -1 10 42.8 43.7
3 -1 10 55.19 11.6
-3 1 10 53.29 11.4
-3 -1 -10 71.79 50.19
-3 -1 -10 62.99 19.7
-3 1 10 27.2 34.2
3 1 10 51.09 46.1
-3 -1 10 42.1 37
-3 -1 10 66.99 11.8
3 1 10 68.79 12
4 -1 0 1232.58 47.7
-4 -1 0 1217.58 41.7
4 1 0 1242.48 43.1
4 -2 0 1739.93 70.99
4 2 0 1790.22 67.09
-4 -2 0 1701.83 48.8
-4 2 0 1651.83 69.89
-4 2 0 1650.23 49.7
-4 -2 0 1754.52 65.19
-4 3 0 229.68 28.6
4 3 0 218.68 26.4
-4 -3 0 237.98 14.2
-4 3 0 259.77 14.8
4 -3 0 250.27 13.5
-4 -3 0 255.27 26.7
4 -4 0 935.41 66.09
-4 4 0 981.5 38.1
-4 -4 0 1015.7 64.99
4 -4 0 967.8 36.5
-4 4 0 943.41 65.09
-4 -4 0 950.1 37.5
4 4 0 974.4 63.49
-4 5 0 474.55 56.59
4 5 0 317.17 78.49
-4 -5 0 386.46 27.1
4 -5 0 420.36 29
4 -5 0 483.75 58.39
-4 6 0 410.66 69.39
4 -6 0 213.78 52.39
-4 -6 0 231.88 50.69
4 6 0 449.56 70.09
4 0 1 9.2 4.7
-4 0 -1 9.5 4.3
-4 -1 -1 1617.14 55.19
4 -1 1 1461.75 55.19
-4 1 1 1537.45 52.79
4 -1 1 1534.05 58.29
4 1 1 1553.94 54.69
4 -1 -1 1498.95 51.39
-4 2 1 469.45 33.1
4 2 -1 498.45 30.5
-4 -2 -1 503.35 19
-4 -2 -1 522.35 31.7
-4 2 1 470.55 18.8
4 -2 1 482.55 18.9
4 -2 1 515.75 18.3
4 -2 1 501.45 35.1
-4 -2 1 483.05 18.5
4 -2 -1 510.25 33.3
-4 -2 1 485.15 29.5
-4 2 -1 506.35 35.6
4 2 1 472.85 31
-4 -3 -1 766.12 47.6
4 3 -1 680.73 45.2
4 -3 1 811.92 52.69
-4 3 1 702.93 48.4
-4 -3 -1 728.43 27.7
4 -3 1 712.33 27.6
-4 3 1 747.33 27.8
-4 3 -1 638.34 46.9
4 3 1 748.23 47.2
-4 -3 1 724.13 27.5
4 -3 -1 725.43 25.9
4 3 1 594.14 29.4
-4 -3 1 679.83 44.3
4 -3 -1 725.93 50.29
4 -4 1 84.99 25.2
4 -4 1 68.29 10.6
-4 -4 -1 65.29 10.4
-4 4 1 66.29 25
-4 4 1 65.29 9.3
4 4 -1 69.29 20.7
-4 -4 -1 87.79 23.4
4 4 1 77.19 23.2
4 -4 -1 57.69 25
4 -4 -1 67.39 10.4
-4 -4 1 47.2 19.1
-4 4 -1 42.1 20.8
4 4 1 75.59 8.7
-4 -4 1 69.49 10.4
4 -5 1 445.26 57.19
4 5 -1 417.16 67.49
-4 -5 -1 362.56 27.1
4 -5 1 415.06 25.8
-4 5 1 426.96 24.6
-4 -5 1 412.96 27.6
4 -5 -1 532.15 77.09
-4 -5 1 337.07 47.9
4 5 1 397.66 59.49
4 5 1 409.96 22.5
-4 5 -1 355.26 55.29
4 -5 -1 407.96 24.6
-4 -6 -1 64.09 40.5
4 6 -1 37.3 44.6
-4 6 1 -20.3 41.9
4 -6 1 66.39 46.4
4 -6 1 48.5 19
-4 6 1 49.5 12.3
4 6 1 114.69 48.1
-4 -6 1 87.79 44.4
4 -6 -1 -7 16.8
-4 6 -1 39.7 41.1
4 -6 -1 87.49 43.7
4 0 2 8.9 5.6
-4 0 -2 -2.6 4.5
-4 0 -2 -0.5 1.6
4 -1 2 17.5 3.2
-4 -1 -2 16.6 3.4
4 -1 2 17 7.2
4 -1 2 13.5 7.9
-4 -1 -2 25.1 8.8
-4 1 2 17.7 6.8
4 1 2 14.3 2.9
4 -1 -2 24.2 6.8
4 1 2 4.1 6.6
-4 -2 -2 7.6 2.9
-4 2 2 3.5 7.7
4 2 -2 -7.4 6.2
4 -2 2 1.6 2.4
4 -2 2 5.9 2.9
-4 -2 -2 -4.8 6.2
-4 2 2 1.2 1.9
4 -2 -2 4.1 7.8
4 2 2 2.8 2.3
4 2 2 0.3 7.2
-4 -2 2 -1.3 7.4
-4 -3 -2 40.4 7.5
-4 -3 -2 56.39 16.9
4 -3 2 46.5 7.8
4 3 -2 14.4 12.8
-4 3 2 43.1 7.2
4 -3 2 30.6 18.5
-4 3 2 43.5 15.9
-4 -3 2 5.3 12.8
4 3 2 38.5 6.6
4 3 2 43.3 14.9
4 -3 -2 46.6 15.6
4 -3 -2 47.5 6.1
-4 -3 2 39 6.6
-4 4 2 -13.9 15.8
-4 4 2 0.9 3.9
-4 -4 -2 19 17.3
4 4 -2 11.8 19.1
4 -4 2 6.9 19.6
-4 -4 -2 0.3 7.5
4 -4 2 -4 6.8
-4 -4 2 -11 17.2
4 4 2 0.4 3.7
4 4 2 4 16.2
-4 4 -2 -24.6 20.6
-4 -4 2 1.2 7.3
4 -4 -2 22.2 16.5
4 -4 -2 9.4 5.6
-4 -5 -2 -9.2 39.5
4 -5 2 42.9 30.3
-4 5 2 7.8 6.5
-4 -5 -2 -14.8 11.2
4 -5 2 11.5 11.5
4 5 -2 10.4 29.1
-4 5 2 -21.5 25.9
4 5 2 52.39 27.5
-4 -5 2 -10.1 11.3
-4 5 -2 -9.5 29.8
4 5 2 -2.9 5.4
-4 -5 2 44.8 27.4
4 -5 -2 -9.9 9
4 -5 -2 -44.2 25.3
-4 6 2 9.3 8.6
4 -6 2 37.4 47.2
-4 -6 -2 -2.3 39.4
-4 6 2 -64.09 38.8
4 -6 2 -12.4 19.7
4 6 -2 15 46
-4 -6 -2 42.4 26.8
4 -6 -2 5.4 16.3
-4 -6 2 10 45.4
-4 6 -2 33.5 47
4 6 2 2.8 7.2
4 6 2 10.1 46.2
-4 -6 2 -7.9 26.9
4 -6 -2 16.3 48.8
-4 0 3 357.86 18.4
4 0 3 372.26 14.9
-4 0 -3 370.86 15.3
-4 0 -3 414.46 28.9
4 0 3 348.87 26.4
-4 -1 -3 1037.1 33.4
-4 -1 -3 1049.59 50.99
4 -1 3 1052.19 33.2
-4 1 3 1117.39 44.3
4 -1 3 1048.4 50.79
4 -1 -3 1078.49 42.5
4 1 3 1020.9 50.49
-4 1 -3 1056.29 33.6
4 1 3 1079.99 33.3
-4 -1 3 1081.79 40.2
-4 -1 3 1087.39 43.6
4 -2 3 519.25 37.3
-4 -2 -3 486.85 36
-4 2 3 471.75 18.9
-4 -2 -3 473.65 20.3
4 -2 3 513.85 21.5
4 -2 3 505.65 39.6
-4 2 3 468.15 33.8
4 -2 3 507.25 20.4
4 -2 -3 490.45 32.1
4 2 3 507.25 36.1
-4 -2 3 504.15 34.2
-4 -3 -3 659.53 49
4 -3 3 702.33 53.89
4 -3 3 712.93 29.5
-4 3 3 717.13 28
-4 3 3 719.83 49.2
-4 -3 -3 729.13 29.1
4 3 -3 727.83 46.6
4 -3 3 726.33 28.5
-4 -3 3 705.33 27.9
4 3 3 725.83 28.2
4 -3 -3 701.23 47.8
-4 -3 3 703.13 49.2
4 3 3 725.23 49.9
4 -4 3 126.39 30.6
-4 4 3 203.78 36.1
4 4 -3 177.88 32.5
4 -4 3 194.08 17.6
-4 -4 -3 187.98 34.5
-4 4 3 177.58 14.3
-4 -4 3 193.08 16.6
4 -4 -3 207.78 14.9
4 4 3 195.38 14.4
4 -4 -3 204.98 37.1
4 4 3 187.68 35.6
4 5 -3 387.56 52.89
-4 5 3 376.66 23.2
4 -5 3 349.27 56.79
-4 5 3 349.47 55.89
-4 -5 -3 327.07 64.29
-4 -5 -3 349.87 27.6
-4 -5 3 319.27 52.19
4 -5 -3 456.65 58.99
4 5 3 366.36 21.6
-4 -5 3 323.47 28.9
4 -5 -3 360.46 23.2
-4 6 3 83.49 15.4
-4 6 3 79.49 56.49
-4 -6 -3 63.89 44.5
4 -6 3 64.59 56.69
4 6 -3 76.39 67.69
4 -6 3 28.6 24
4 6 3 76.49 13
4 -6 -3 42.9 51.79
-4 -6 3 94.09 49.99
4 6 3 161.28 56.69
4 -6 -3 27.7 17.9
4 0 4 3473.65 93.69
-4 0 -4 3337.07 92.99
4 0 -4 3599.14 104.59
-4 0 4 3482.25 104.09
4 0 4 3405.76 119.29
-4 0 -4 3448.65 120.49
-4 -1 -4 411.66 18.2
4 -1 4 413.96 18
-4 1 4 445.16 28
4 -1 4 359.16 31.8
-4 -1 -4 468.65 35.5
-4 -1 4 465.45 30.7
4 -1 -4 411.76 26.9
-4 -1 4 408.36 25.9
4 1 4 373.96 32.3
4 1 4 376.56 17.5
-4 1 -4 404.46 18.1
4 -2 4 2997.7 115.69
-4 -2 -4 2440.96 129.19
-4 2 4 2800.52 102.29
4 -2 4 2786.62 110.99
-4 2 4 2813.22 77.69
-4 -2 -4 2758.12 80.09
4 -2 4 2916.71 80.09
4 2 4 2773.92 79.29
4 2 4 2948.3 133.09
-4 -2 4 2929.51 97.99
-4 -2 4 2827.22 103.39
4 -2 -4 2799.42 100.69
4 -3 4 89.89 24.2
-4 -3 -4 135.19 27.3
4 -3 4 105.99 10.4
-4 3 4 117.99 25.3
4 -3 4 108.69 12
4 -3 4 108.79 26.8
-4 3 4 111.49 10
-4 -3 4 109.79 25.1
4 -3 -4 136.69 28.1
4 3 4 99.59 24.5
4 3 4 123.89 10.7
4 -4 4 1631.94 55.99
-4 4 4 1394.36 83.89
-4 -4 -4 1518.95 89.79
4 -4 4 1537.15 95.59
-4 4 4 1554.54 53.09
4 -4 4 1455.35 90.19
4 -4 4 1592.94 54.19
-4 -4 4 1459.25 53.89
4 4 4 1583.84 53.29
4 -4 -4 1549.64 50.09
4 4 4 1538.95 88.99
-4 -5 -4 153.98 22.4
-4 5 4 166.38 16.8
-4 -5 -4 236.48 47.4
4 -5 4 175.38 16.7
4 -5 4 136.29 42.7
-4 5 4 97.19 37.5
-4 -5 4 137.59 37.7
4 5 4 203.08 44.7
4 5 4 183.68 20.4
4 -5 -4 164.88 18.6
4 -5 -4 150.18 42.2
4 0 5 17.4 4.5
-4 0 -5 18.1 12.9
-4 0 5 12.1 3.6
-4 0 -5 20.2 5
4 0 5 2.5 12.1
-4 0 5 -1.1 8.3
4 0 -5 9.1 9
-4 1 5 627.94 38.4
-4 -1 -5 669.63 54.69
-4 1 5 651.33 23.3
4 -1 5 615.04 25.4
4 -1 5 676.33 47.4
4 -1 -5 656.13 39
4 1 5 636.94 25.5
-4 -1 5 612.24 37.1
-4 -1 5 647.44 39.7
-4 2 5 115.99 22
-4 2 5 102.49 8.9
4 -2 5 99.09 22.5
-4 -2 -5 72.39 20.4
4 -2 5 102.29 9.9
4 -2 5 120.49 26.6
4 2 5 96.19 9.6
4 2 5 57.39 18.5
4 -2 -5 121.69 22.5
-4 -2 5 96.89 19.6
-4 -2 5 32.4 24.7
-4 3 5 332.57 37.3
4 -3 5 425.66 46.6
-4 3 5 396.66 20.4
4 -3 5 331.57 43.6
-4 -3 -5 349.67 41.5
4 -3 5 425.86 24
4 -3 5 408.36 21.7
4 3 5 406.66 21.2
4 -3 -5 372.96 38.8
-4 -3 5 394.46 37.3
4 3 5 393.06 43.1
4 -4 5 -13.4 25.6
-4 -4 -5 -11.2 10.4
-4 4 5 6.7 5.6
-4 4 5 -20 20.1
4 -4 5 -10.3 25.8
4 -4 5 9 5.7
-4 -4 5 -23.7 22.7
4 4 5 0.8 5.3
4 -4 -5 -0.5 6.7
-4 -4 5 6.7 24.3
-4 -4 5 21.3 10.5
4 4 5 25.7 23.6
-4 -5 -5 229.48 31.5
4 -5 5 167.58 53.09
4 -5 5 231.38 29.8
-4 5 5 337.97 57.69
-4 -5 -5 238.68 55.29
4 -5 5 311.97 92.09
-4 5 5 224.48 19.8
4 -5 5 236.78 19.7
4 5 5 319.37 58.69
-4 -5 5 145.99 45.5
4 5 5 233.68 19.4
4 -5 -5 207.08 49.4
-4 -5 5 215.38 31.4
-4 0 -6 151.18 27.8
4 0 -6 251.77 26.5
-4 0 6 209.78 12.3
-4 0 -6 242.28 15.3
-4 0 6 253.47 26.5
4 0 6 221.28 31.6
4 0 6 200.98 13.7
4 -1 6 38.5 17.6
-4 1 6 48.8 6.8
4 -1 6 46.5 7.6
-4 -1 -6 65.19 20.5
-4 1 -6 30.8 7.7
4 1 6 63.59 21.2
-4 -1 6 47.9 6.9
4 -1 -6 53.49 16.9
-4 1 -6 47 18.8
4 1 6 59.69 8.2
-4 -1 6 44.6 16.9
-4 -2 -6 104.59 27.1
4 -2 6 198.28 36.1
-4 2 6 216.58 27.6
4 -2 6 156.18 32.6
-4 2 6 168.08 12
4 -2 6 168.88 13.4
4 2 6 109.09 25.4
4 2 6 158.78 13
4 -2 -6 203.68 26.9
-4 -2 6 155.78 11.3
-4 -2 6 131.09 25
4 -3 6 116.09 34
-4 -3 -6 92.19 29.9
4 -3 6 102.09 11.9
-4 3 6 104.69 11
-4 3 6 112.29 30.1
4 -3 6 129.19 38.1
-4 -3 -6 100.99 14
-4 -3 6 109.59 30.2
-4 -3 6 35.9 24.1
4 3 6 95.99 11.5
4 3 6 137.79 32.5
4 -3 -6 87.49 24.3
-4 4 6 121.39 36.1
4 -4 6 57.09 16.2
-4 4 6 112.59 13.2
4 -4 6 81.09 39.1
4 -4 6 42.3 35.4
4 -4 6 90.39 16.4
4 4 6 67.39 31.9
4 -4 -6 112.29 14.4
-4 -4 6 112.19 31.5
-4 -4 6 165.68 39.9
4 -5 6 2 8.3
4 -5 6 -22.3 51.79
-4 5 6 38.1 54.79
4 -5 6 -21.8 48.5
-4 -5 -6 -28.1 41.7
4 -5 6 14.2 23.5
-4 -5 6 -7.9 42.7
-4 -5 6 -63.79 40.2
4 5 6 13.1 8.1
4 -5 -6 10.3 13.2
4 5 6 33 47.7
-4 0 -7 192.88 37
4 0 7 192.98 35.6
-4 0 7 225.38 13.7
4 0 7 229.58 15.6
-4 0 7 183.98 28.1
-4 0 -7 187.68 21.9
4 0 -7 216.68 29.4
4 -1 7 2025.9 65.49
4 -1 7 2046.6 101.79
-4 1 7 2178.58 63.59
-4 -1 -7 1972.4 101.19
4 1 7 2067.29 65.99
-4 -1 7 2094.69 62.49
-4 1 -7 2215.88 107.19
-4 -1 7 1975.1 87.89
4 1 7 2098.59 103.19
4 -2 7 98.49 30.3
4 -2 7 103.59 29.6
-4 2 7 128.79 11.7
-4 -2 -7 133.79 31
4 -2 7 129.39 13
-4 -2 -7 139.29 16.6
-4 2 7 101.19 24.5
4 2 7 101.79 11.7
-4 -2 7 93.29 28
-4 -2 7 110.79 11.4
4 2 7 101.09 29.9
4 -2 -7 99.39 25.9
-4 -2 7 88.09 24.5
-4 -3 -7 1413.56 56.09
4 -3 7 1482.35 95.99
4 -3 7 1384.06 99.19
-4 3 7 1443.36 84.99
-4 3 7 1554.04 53.09
4 -3 7 1526.95 56.39
-4 -3 7 1529.65 100.59
-4 -3 7 1546.05 51.89
4 3 7 1527.45 54.89
4 3 7 1505.65 93.89
-4 -3 7 1492.75 91.19
4 -3 -7 1518.55 86.79
-4 4 7 96.19 14.4
4 -4 7 105.29 14.9
4 -4 7 78.29 21.2
-4 -4 -7 68.79 39.8
-4 -4 -7 40.9 18.9
4 -4 7 109.19 45.9
-4 4 7 80.69 34.4
4 4 7 88.39 38.8
-4 -4 7 95.29 13.8
-4 -4 7 110.69 39.7
4 4 7 100.79 14
-4 0 -8 837.52 68.59
4 0 8 776.12 64.79
4 0 -8 1022.4 63.49
-4 0 8 866.91 33.6
-4 0 -8 829.32 37.4
-4 0 8 892.71 64.19
4 0 8 854.81 35.9
-4 1 8 71.99 10.3
4 -1 8 85.19 30.3
-4 -1 -8 64.59 30.2
4 -1 8 62.59 10.2
-4 1 8 64.69 29
-4 -1 -8 83.89 13.8
-4 -1 8 55.79 23.1
4 1 8 91.89 11.5
4 1 8 49.2 27.9
-4 -1 8 78.39 10.3
-4 2 8 688.83 59.39
4 -2 8 826.92 72.39
4 -2 8 801.12 76.49
-4 -2 -8 752.32 37.9
-4 2 8 813.42 33.7
4 -2 -8 897.71 65.09
-4 -2 8 589.04 57.29
-4 -2 8 774.52 32.5
-4 -2 8 794.02 65.99
4 2 8 705.23 68.69
-4 -3 -8 49.9 16.6
4 -3 8 -20.9 37.5
4 -3 8 66.69 43.1
-4 -3 -8 20.3 37.4
-4 3 8 -11.9 26.4
4 -3 8 27.8 9
-4 3 8 40.8 9.8
-4 -3 8 20 8.4
4 3 8 58.69 37.3
-4 -3 8 41.5 40.1
4 3 8 36 9.6
4 -3 -8 53.69 32.5
4 0 9 -7.4 5.8
4 0 9 -3.3 30.2
4 0 -9 -19.1 25.6
-4 0 9 -45.7 25.6
-4 0 9 -12.7 5.9
-4 -1 -9 2.7 15.4
-4 1 9 -16.8 25
-4 1 9 1.6 6.8
4 -1 9 8.3 6.4
4 -1 9 -22.9 29.8
-4 -1 9 19.5 26
4 1 9 -25.8 31.2
-4 -1 9 3.5 6.7
4 1 9 -9.8 6.4
-4 -2 -9 3.3 17.9
4 -2 9 3.4 7.6
-4 2 9 7.1 28.4
-4 2 9 6.2 6.9
-4 -2 -9 1.7 42.6
4 -2 9 58.69 40.5
4 -2 9 48.1 40.9
4 2 9 18.5 38
4 -2 -9 -5.3 32.3
-4 -2 9 67.59 37
4 2 9 13.6 7.3
-4 -2 9 -6.5 7.5
-4 -2 9 56.39 31.9
-4 3 9 3.5 10
4 -3 9 -43.9 53.89
4 -3 9 -12.7 8.4
-4 -3 -9 62.39 46.4
4 -3 9 -42.4 55.09
4 3 9 6.9 47.9
-4 -3 9 54.99 46.1
-4 -3 9 12.9 9.9
4 3 9 15.4 8.3
4 0 10 502.85 29.2
-4 0 10 492.85 27.5
-4 -1 -10 13.6 45.7
4 -1 10 21.9 10
-4 -1 -10 -6 25.2
-4 1 10 29.8 9.3
4 1 10 27.8 9.7
-4 -1 10 15.6 38.7
-4 -1 10 41.6 10.6
4 1 10 4.1 53.19
5 1 0 0.4 4.6
5 -1 0 8.3 7.1
5 -1 0 -0.1 4.5
5 2 0 16.3 10.5
-5 -2 0 -1.2 9
5 -2 0 15.5 9.4
-5 2 0 -1.2 9.1
-5 2 0 -3.7 2.3
5 -3 0 -10.2 12.7
5 3 0 -5.3 11.2
-5 3 0 6.8 3.7
-5 -3 0 3.2 4.3
-5 -3 0 13.2 10.9
-5 3 0 4.2 11.7
-5 4 0 35 20.6
-5 -4 0 0.4 7.5
-5 4 0 -1.8 4.4
5 -4 0 7.5 6
5 4 0 -6.9 16.3
5 5 0 3.8 25.3
5 -5 0 -3.4 9.8
-5 -5 0 -22.3 23.6
-5 -5 0 2.8 12.2
-5 5 0 -16.9 23.8
5 -5 0 12.1 28.1
5 -6 0 -42.1 45
-5 6 0 76.59 46.3
5 6 0 43.1 64.19
-5 -6 0 9.1 38.6
5 0 1 125.69 12.7
-5 -1 -1 2852.41 86.19
5 -1 1 2578.84 86.19
5 1 1 2691.53 85.29
-5 -2 -1 20.5 4.7
-5 -2 -1 30.8 10.8
5 -2 1 43 14.2
-5 2 1 42.9 13.4
5 2 -1 12.1 8.7
-5 -2 1 29.6 9.6
5 -2 -1 36.7 13.6
5 2 1 31.2 11.7
5 -3 1 1352.56 42.2
-5 3 1 1261.47 67.89
5 -3 1 1352.66 43.1
5 3 -1 1259.97 63.79
-5 -3 -1 1393.96 44.6
5 -3 1 1199.98 72.19
-5 3 1 1395.06 44.8
-5 -3 -1 1451.15 67.69
5 -3 -1 1386.66 69.89
5 3 1 1276.07 66.29
-5 -3 1 1368.46 64.79
-5 -3 1 1320.67 43.5
-5 3 -1 1219.98 69.79
-5 4 1 -18.6 18.1
-5 4 1 37.5 8.1
5 4 -1 15.9 18.8
-5 -4 -1 41.8 9.5
5 -4 1 38.8 8.7
5 -4 1 -12 18.5
5 4 1 49.3 21.1
-5 4 -1 64.59 26.2
-5 -4 1 35.9 9.1
5 4 1 29.9 6.6
5 -4 -1 30.7 7.6
-5 5 1 918.11 74.39
-5 5 1 885.41 38.6
-5 -5 -1 804.82 40.3
-5 -5 -1 747.93 67.09
5 5 -1 837.92 69.99
5 -5 1 914.61 82.29
5 5 1 819.72 71.19
-5 5 -1 825.52 81.29
5 -5 -1 870.01 36.6
-5 -5 1 832.62 69.99
-5 -5 1 870.71 41.6
5 -5 -1 823.52 73.99
-5 6 1 82.59 57.99
-5 -6 -1 30.7 48.3
5 -6 1 -49.9 22.3
-5 6 1 10.1 9.5
5 6 -1 11.8 50.89
5 -6 1 3 51.39
-5 6 -1 22.9 46.9
-5 -6 1 48 43.1
5 -6 -1 8.4 62.09
-5 0 -2 2092.69 73.19
5 0 2 2030.9 72.39
-5 0 -2 1994.5 55.59
-5 -1 -2 428.36 28.1
5 -1 2 412.66 30.4
-5 -1 -2 404.06 16
5 -1 2 414.26 28.4
5 1 2 415.56 27.2
-5 1 -2 400.86 16.1
-5 -2 -2 3179.38 106.69
5 -2 2 3003.1 80.69
5 -2 2 3010.7 108.19
5 -2 2 2921.01 110.79
5 -2 2 2782.32 81.09
-5 2 2 2915.01 102.79
5 2 -2 3021.5 95.99
-5 2 2 3023.4 80.89
-5 -2 -2 3062.79 82.29
-5 -2 2 3137.29 97.89
5 -2 -2 3091.59 101.19
5 2 2 2886.41 104.19
5 -3 2 395.66 42.6
5 3 -2 393.76 34.5
-5 3 2 450.35 20.5
-5 -3 -2 409.86 36.6
5 -3 2 451.95 19.7
5 -3 2 456.95 21
-5 -3 -2 430.06 20.6
-5 3 2 414.06 37.4
-5 -3 2 374.46 19.9
5 3 2 406.86 18.8
5 3 2 426.76 37.3
5 -3 -2 546.95 40.2
-5 -4 -2 1133.29 44.1
-5 4 2 1133.79 42.5
-5 4 2 1191.98 74.59
5 -4 2 1134.49 41.6
5 4 -2 1139.79 69.59
5 -4 2 1239.58 80.79
5 -4 2 1189.78 43.4
5 4 2 1138.79 40.9
5 4 2 1099.39 71.29
-5 -4 2 1168.48 43.7
5 -4 -2 1236.98 40.9
5 -4 -2 1233.68 73.69
-5 5 2 109.59 14.2
5 5 -2 76.09 32
-5 5 2 79.39 33.9
5 -5 2 96.49 40
5 -5 2 155.88 19.6
-5 -5 -2 103.59 33.5
-5 -5 -2 121.99 21.5
-5 -5 2 126.69 37.2
5 5 2 195.58 41.7
-5 -5 2 122.49 18.4
5 5 2 103.59 12.3
5 -5 -2 51.69 35.4
-5 5 -2 102.79 38.4
5 -5 -2 117.69 15.8
-5 -6 -2 523.75 78.89
5 -6 2 425.46 96.99
-5 6 2 646.44 35.2
5 -6 2 569.14 40.5
5 6 -2 652.53 84.69
5 6 2 880.81 172.58
5 6 2 591.34 31.1
-5 -6 2 365.56 65.69
5 0 3 521.75 34.1
-5 0 -3 552.64 35.2
-5 0 -3 501.35 19.7
-5 1 3 665.03 31.9
5 -1 3 630.64 22.4
-5 -1 -3 694.73 53.89
-5 -1 -3 627.84 23.2
5 1 3 621.14 46.3
5 1 3 608.24 22.1
-5 1 -3 635.94 23.4
-5 2 3 153.48 9.6
-5 2 3 154.18 21.5
-5 -2 -3 153.18 11.2
5 -2 3 162.08 23.8
5 -2 3 163.68 10.6
-5 -2 -3 152.78 22.1
-5 -2 3 153.18 19.8
5 2 3 152.38 10
5 -2 -3 161.38 19.7
-5 -2 3 160.18 18.2
5 2 3 158.28 21.8
-5 3 3 213.48 13.6
5 -3 3 208.28 13.8
5 -3 3 236.98 32.1
-5 3 3 238.68 32.8
-5 -3 -3 256.57 31.9
5 -3 3 235.68 39.6
-5 -3 -3 219.18 15.2
5 -3 3 213.98 15.5
5 3 3 213.78 13.3
5 3 3 231.78 30.9
5 -3 -3 200.58 30.3
5 -4 3 176.58 17
-5 4 3 148.49 33.9
-5 4 3 150.78 13.2
-5 -4 -3 169.58 39
-5 -4 -3 149.99 17.2
5 4 -3 103.89 35
5 -4 3 102.39 36.1
5 -4 3 148.79 13.2
-5 -4 3 120.99 27.8
5 -4 -3 135.39 32.4
5 4 3 131.09 32.2
5 4 3 134.09 12.6
-5 -4 3 133.09 17.2
-5 -5 -3 231.68 26.1
5 5 -3 240.68 44.2
-5 5 3 285.87 51.29
5 -5 3 189.08 49.4
-5 5 3 239.98 19.4
5 -5 3 255.17 22.7
-5 -5 -3 205.48 47.7
5 5 3 303.77 50.29
-5 -5 3 151.98 40.5
5 -5 -3 208.38 19.1
5 -5 -3 259.07 54.89
5 5 3 216.48 17.7
5 0 4 823.42 28.2
-5 0 -4 791.22 28.8
-5 0 -4 813.12 48.7
5 0 4 829.52 48.1
5 -1 4 5.5 11
-5 -1 -4 9.4 4.2
5 -1 4 4.6 3.1
-5 -1 -4 -3.6 10.8
-5 1 4 9.1 7.7
5 -1 -4 3.4 7.4
5 1 4 11.9 11.8
-5 -1 4 5.6 7
-5 1 -4 7.3 4.3
5 1 4 5 3
-5 -2 -4 368.46 18.4
-5 2 4 343.57 30.8
-5 2 4 338.67 15.7
5 -2 4 331.97 36.2
-5 -2 -4 373.26 35.4
5 -2 4 323.97 16.9
5 -2 4 320.57 34.9
-5 -2 4 326.37 26.6
5 -2 -4 325.77 28.8
-5 -2 4 350.86 31.1
5 2 4 346.47 17.1
5 2 4 342.17 33.8
5 -3 4 17.3 5.4
-5 3 4 31.8 20.1
-5 3 4 11.4 5.3
-5 -3 -4 12.9 6.9
-5 -3 -4 35.4 19.1
5 -3 4 8.7 20.3
5 -3 4 38.7 19.2
5 -3 4 14.2 6.8
5 3 4 23.8 5.8
-5 -3 4 25.6 6.9
-5 -3 4 21.6 16
5 3 4 23.6 16.3
-5 4 4 242.38 42.4
5 -4 4 179.98 40.9
-5 4 4 280.67 18.4
5 -4 4 322.97 22.2
-5 -4 -4 303.37 22.8
5 -4 4 278.27 18.9
5 -4 4 359.16 56.19
-5 -4 4 349.57 44.3
5 4 4 288.87 18.4
5 -4 -4 302.77 41
5 4 4 258.77 43.3
5 -5 4 101.69 47.1
5 -5 4 -49.1 40
5 -5 4 -20.7 18
5 -5 4 0 6.9
-5 5 4 -1.1 29.9
-5 5 4 -0.6 6.9
-5 -5 -4 -14.4 17
-5 -5 -4 -5.3 32.2
5 5 4 -15.1 34.4
5 5 4 8.1 6.6
-5 -5 4 45.2 19.6
5 -5 -4 6.5 10
-5 -5 4 8.2 34.6
-5 0 5 508.65 29.9
5 0 5 460.05 20.8
5 0 5 432.96 38.2
-5 0 -5 484.55 40.9
-5 0 -5 494.95 22.1
-5 -1 -5 1126.29 65.09
5 -1 5 1169.58 39.7
-5 -1 -5 1180.98 40.8
-5 1 5 1255.37 54.39
5 -1 5 1148.09 65.19
5 -1 -5 1280.07 54.89
-5 -1 5 1195.68 51.29
5 1 5 1145.89 64.99
-5 1 -5 1102.79 43.3
-5 -1 5 1206.98 55.09
5 1 5 1155.78 39.4
-5 2 5 399.86 35.4
5 -2 5 384.76 19.9
5 -2 5 360.56 41.4
-5 -2 -5 418.36 38.9
5 -2 5 401.36 39.6
-5 2 5 392.16 18.3
5 -2 -5 416.66 33.3
-5 -2 5 418.56 32.6
5 2 5 384.06 19.4
5 2 5 377.46 39.1
5 -3 5 835.72 68.99
5 -3 5 840.22 66.09
5 -3 5 847.82 34.4
-5 -3 5 831.62 52.69
5 3 5 818.12 33.3
5 3 5 852.91 62.19
-5 4 5 237.78 45.4
5 -4 5 140.59 40.2
-5 -4 -5 264.37 26.1
5 -4 5 221.58 18.1
-5 4 5 238.68 18
5 -4 5 255.47 53.89
-5 -4 -5 236.28 43.2
5 4 5 242.68 17.5
-5 -4 5 319.27 44.4
-5 -4 5 144.09 37.5
5 4 5 226.08 44.4
5 -4 -5 291.77 49.2
-5 5 5 441.26 28.1
-5 -5 -5 516.75 75.09
5 -5 5 360.36 38.1
5 -5 5 390.86 79.89
-5 -5 -5 414.46 48
5 -5 5 430.46 26.7
5 -5 5 357.26 67.29
-5 5 5 476.35 66.19
5 5 5 425.06 25.7
5 5 5 502.05 77.89
-5 -5 5 344.57 78.29
-5 -5 5 335.07 60.09
5 0 -6 712.73 42.5
-5 0 -6 701.63 54.09
5 0 6 692.53 28.8
5 0 6 734.13 53.39
-5 0 6 706.03 41.8
-5 0 6 721.53 25.8
5 -1 6 547.95 48
5 -1 6 594.14 26
-5 1 6 611.74 41.1
-5 -1 -6 596.64 50.09
-5 1 6 595.94 23.5
-5 -1 6 624.24 39.6
5 1 6 554.74 25.4
-5 -1 6 604.04 23.2
5 1 6 626.74 50.59
5 -1 -6 612.94 40.6
-5 -2 -6 832.02 63.19
-5 2 6 849.52 53.49
5 -2 6 834.82 34
-5 2 6 859.31 32.1
5 -2 6 829.52 62.89
5 -2 6 800.62 65.89
5 2 6 900.21 62.99
5 2 6 851.61 33.9
-5 -2 6 809.82 50.19
5 -2 -6 871.11 53.59
-5 3 6 546.25 63.19
5 -3 6 555.84 61.79
-5 3 6 466.55 23.8
5 -3 6 474.35 56.89
-5 -3 -6 461.65 27.8
5 -3 6 477.55 25.3
-5 -3 6 470.65 45.6
5 -3 -6 489.65 46.1
-5 -3 6 456.55 49.1
5 3 6 438.06 53.39
5 3 6 483.55 25
5 -4 6 522.85 69.39
5 -4 6 372.76 34.4
5 -4 6 405.76 25.3
-5 -4 -6 455.55 63.09
-5 -4 -6 351.66 31
-5 4 6 453.05 54.59
5 -4 6 378.16 66.49
-5 4 6 391.06 23.7
-5 -4 6 324.47 47.9
5 -4 -6 430.26 56.59
5 4 6 426.26 61.89
-5 -4 6 419.16 59.49
5 4 6 381.06 23.5
-5 0 7 93.49 20.6
5 0 7 53.99 8.9
5 0 7 27.4 22.6
-5 0 -7 53.39 23.2
-5 0 7 49.99 7.7
5 0 -7 37.4 17
5 -1 7 40.9 23.8
-5 1 7 10 16
-5 1 7 14.8 5.4
5 -1 7 0.3 5.1
-5 -1 -7 10.7 23
-5 -1 -7 -3.7 8.2
5 1 7 -3.5 20.7
5 1 7 12.2 5.2
5 -1 -7 -9.7 14.7
-5 -1 7 13.3 5.2
-5 -1 7 14.9 17.7
-5 1 -7 14.1 9.1
-5 -1 7 24.7 16.6
5 -2 7 3.3 5.7
-5 2 7 19.5 20.6
-5 2 7 16.4 5.7
5 -2 7 6.2 26.2
5 -2 7 3 25.8
-5 -2 -7 0.4 9.7
5 2 7 17.3 6.5
-5 -2 7 9.1 6.1
5 2 7 9.2 24.5
-5 -2 7 11.2 18.5
5 -2 -7 25 19.4
-5 -2 7 -31 18.4
5 -3 7 73.59 40.7
5 -3 7 4.4 6.8
-5 3 7 -55.99 22.4
5 -3 7 -14.8 34.3
-5 3 7 -7.9 5.7
-5 -3 -7 8.6 14
-5 -3 -7 -31.9 27.4
5 3 7 49.6 46.1
5 3 7 -7.7 5.7
5 -3 -7 -12.4 23.8
-5 -3 7 -27.2 26.9
-5 -3 7 10.4 6.8
-5 -3 7 32.8 26.3
5 -4 7 2 20.9
5 -4 7 19.1 9
5 -4 7 -20.1 47
5 -4 7 -2.2 54.39
-5 -4 -7 -13.4 40.7
-5 4 7 -13.4 39
-5 4 7 4.6 8
-5 -4 7 14.3 9.8
-5 -4 7 64.69 41.4
-5 -4 7 92.49 26
-5 -4 7 22.2 36.2
5 4 7 4.9 7.5
5 -4 -7 16.4 35.8
5 4 7 1.1 40.6
5 0 8 217.88 42.5
-5 0 8 283.07 38.5
-5 0 8 270.07 16.6
-5 0 -8 273.47 23.2
5 0 8 236.98 17.8
-5 -1 -8 133.79 20.2
5 -1 8 167.18 41.1
-5 1 8 151.88 13.6
-5 1 8 164.08 31.3
-5 -1 8 151.88 30.4
5 -1 -8 162.58 31.5
-5 -1 8 131.19 32.6
-5 -1 8 172.88 13.9
5 1 8 156.78 40.1
5 -2 8 71.19 41.5
5 -2 8 77.99 12
-5 -2 -8 76.79 16.4
5 -2 8 95.09 39.8
-5 -2 -8 131.09 37.1
-5 2 8 56.29 28
-5 2 8 94.49 12.4
-5 -2 8 103.59 12.4
5 2 8 90.99 42.4
5 2 8 85.09 12.7
-5 -2 8 83.19 29.3
-5 -2 8 67.19 27.1
5 -2 -8 85.59 32.8
-5 -3 -8 64.19 39.8
5 -3 8 81.59 13.5
-5 3 8 68.89 12.3
-5 3 8 47.3 33.7
-5 -3 -8 27.8 23.1
5 -3 8 -14.2 42.8
-5 -3 8 19.2 36.1
5 3 8 8.6 42.7
5 -3 -8 90.99 38.3
5 3 8 87.79 13.5
-5 -3 8 80.19 12.5
-5 -3 8 53.99 31.6
-5 0 9 321.57 20.5
5 0 9 317.67 56.59
5 0 9 350.06 22.6
-5 0 9 224.38 41.1
-5 0 -9 256.07 51.39
-5 0 -9 223.38 28.5
-5 1 9 466.75 24.5
-5 -1 -9 505.95 67.99
-5 -1 -9 364.06 37
5 -1 9 271.17 53.19
5 -1 9 462.35 26.8
-5 1 9 473.35 53.89
5 -1 -9 454.25 56.99
5 1 9 429.36 25.9
5 1 9 369.16 59.69
-5 -1 9 431.56 24.3
-5 -1 9 263.77 48.5
5 -2 9 384.26 68.69
-5 2 9 254.37 48.5
-5 -2 -9 306.17 49.99
5 -2 9 368.96 24.9
-5 2 9 381.56 24.1
-5 -2 -9 226.88 54.59
5 -2 -9 328.47 54.69
5 2 9 343.07 24.2
-5 -2 9 267.87 47.8
-5 -2 9 411.36 32
5 2 9 426.66 70.59
6 -1 0 1314.97 51.09
6 -1 0 1315.57 47.8
6 2 0 1151.58 52.39
6 -2 0 1249.77 58.89
-6 -2 0 1233.08 50.49
-6 3 0 935.11 60.59
6 -3 0 1078.19 63.09
6 3 0 1054.49 57.69
6 4 0 907.01 64.29
6 -4 0 1031.2 70.99
-6 -4 0 960.3 39.2
-6 -4 0 1104.49 65.19
-6 4 0 885.91 66.69
6 -5 0 419.56 24.7
6 5 0 323.67 51.29
6 -5 0 317.27 70.29
-6 -5 0 468.85 58.99
-6 5 0 471.55 60.59
6 0 1 1113.09 52.89
6 -1 1 1159.48 50.69
-6 -1 -1 1157.58 46
6 -1 1 1056.89 46.4
6 1 1 1094.79 45.3
6 2 -1 465.55 28.4
-6 -2 -1 460.45 31
6 -2 1 417.26 32.2
6 -2 1 441.56 47.3
-6 2 1 508.95 34.9
6 -2 -1 446.36 32
-6 -2 1 467.65 26.6
6 2 1 450.65 31.8
6 3 -1 952.5 53.19
6 -3 1 965.7 61.69
-6 3 1 960.8 59.59
-6 3 1 978.1 35.7
-6 -3 -1 1002.3 36
-6 -3 1 1049.2 39.5
6 3 1 975.3 56.99
6 -3 -1 1018.2 59.39
6 -4 1 364.56 20.5
6 4 -1 370.66 40.3
-6 4 1 404.66 47.5
6 -4 1 343.37 18.9
-6 -4 -1 294.17 41.5
-6 -4 -1 449.66 29.1
6 -4 1 240.28 53.99
-6 4 1 375.66 21.4
6 4 1 287.27 40.8
-6 4 -1 362.56 47.9
-6 -4 1 342.77 22.8
-6 -4 1 354.96 39
6 -4 -1 394.86 45.7
6 -5 1 228.58 50.69
-6 5 1 422.86 57.69
-6 -5 -1 233.88 45.3
-6 5 1 309.27 22.7
-6 -5 -1 292.67 32.8
6 5 -1 172.78 41.4
6 -5 1 291.77 33.9
6 5 1 359.56 55.59
-6 -5 1 229.68 44.7
6 -5 -1 321.47 21.8
-6 0 -2 125.59 8.3
-6 0 -2 118.59 16.7
6 0 2 124.09 15.7
6 -1 2 331.27 27.3
-6 -1 -2 409.26 28.5
-6 -1 -2 390.06 16.1
6 1 2 404.16 27.8
6 -2 2 201.98 24.1
-6 -2 -2 170.68 22.1
-6 2 2 177.28 23.1
6 -2 2 170.78 30.2
-6 -2 -2 174.48 11.3
6 -2 -2 184.08 20.7
6 2 2 178.28 22.2
-6 3 2 243.18 32.6
-6 -3 -2 203.48 14.9
-6 3 2 214.28 13.7
6 -3 2 273.67 38.4
6 -3 2 142.89 27.4
6 -3 2 211.88 13
6 3 -2 178.68 26.3
6 3 2 206.28 29
6 -3 -2 242.98 30.3
-6 -4 -2 56.89 12.1
-6 -4 -2 52.49 24.4
6 -4 2 74.79 9.8
-6 4 2 54.19 28.5
6 -4 2 57.49 11.5
-6 4 2 79.19 10.9
6 4 -2 81.29 27.5
6 -4 2 39.7 28.6
-6 -4 2 70.89 22.9
6 -4 -2 88.89 26.9
6 4 2 79.19 25.7
-6 -4 2 76.49 12.8
-6 5 2 121.69 15.3
-6 -5 -2 99.69 18.6
6 -5 2 165.78 23.1
-6 -5 -2 107.49 38.1
6 5 -2 122.09 36.1
-6 5 2 108.19 38.1
6 -5 2 157.78 48.1
6 -5 -2 131.49 40.7
6 5 2 104.39 41.1
-6 -5 2 48 33.7
6 0 3 982.6 49.8
-6 0 -3 920.81 31.2
-6 0 -3 912.71 49.3
-6 -1 -3 1178.68 58.09
6 -1 3 1159.88 60.89
6 -1 3 1192.68 58.89
-6 -1 -3 1195.88 38.5
6 1 3 1257.17 58.49
-6 1 -3 1238.68 38.8
-6 -2 -3 669.43 26.4
6 -2 3 715.23 50.49
6 -2 3 676.13 25
6 -2 3 670.13 46
-6 -2 -3 680.63 45
-6 2 3 642.54 40.7
6 2 3 643.14 43.5
6 -2 -3 687.83 37.6
6 -3 3 892.91 61.39
6 -3 3 959.9 33.9
-6 3 3 917.21 57.39
-6 -3 -3 907.51 35.1
6 -3 3 952.9 35.7
-6 3 3 950.7 34.2
-6 -3 3 744.13 53.29
6 3 3 877.71 57.79
6 -3 -3 945.71 54.79
6 -4 3 440.06 23.1
-6 -4 -3 458.95 27.6
6 -4 3 462.35 26.1
-6 -4 -3 470.65 50.29
6 4 -3 409.76 44.3
-6 4 3 499.15 25
6 -4 3 479.05 60.69
6 -4 3 420.56 54.19
6 4 3 525.65 53.39
-6 -4 3 356.36 43.9
-6 -5 -3 286.77 32.7
6 -5 3 287.47 64.99
6 -5 3 379.26 30
-6 -5 -3 461.95 65.89
-6 5 3 441.46 67.89
6 -5 3 397.86 23.7
-6 5 3 416.96 26.4
-6 -5 3 292.47 62.59
6 5 3 444.76 66.39
-6 -5 3 435.76 35.7
6 -5 -3 275.37 52.49
-6 0 -4 1641.14 75.09
-6 0 -4 1576.24 49.4
6 0 4 1539.95 72.59
6 0 4 1606.64 47.7
-6 -1 -4 382.06 19.2
6 -1 4 408.06 18
6 -1 4 411.86 35.4
-6 -1 -4 417.06 35.9
6 1 4 432.36 35.8
6 1 4 401.66 17.7
-6 1 -4 401.06 19.3
6 -2 4 862.91 55.99
-6 -2 -4 906.21 57.19
-6 2 4 868.71 49
6 -2 4 839.62 32.5
6 -2 4 850.91 31.4
-6 -2 -4 852.41 32.7
6 2 4 807.32 53.49
6 -2 -4 900.01 45.5
-6 -2 4 837.92 44.1
-6 3 4 363.46 40.8
-6 3 4 363.56 19
6 -3 4 324.97 47.2
6 -3 4 334.67 21.3
6 -3 4 293.67 44.8
6 -3 4 347.07 19.2
-6 -3 4 350.36 33.7
6 -3 -4 440.36 39.4
-6 -3 4 272.17 35.1
6 3 4 337.57 18.4
6 3 4 378.66 39.4
-6 4 4 643.64 60.59
6 -4 4 659.83 66.19
-6 -4 -4 634.34 35.8
6 -4 4 722.33 41.9
6 -4 4 674.93 74.59
-6 4 4 695.03 31.4
-6 -4 -4 669.03 62.59
6 -4 4 699.93 31.2
-6 -4 4 626.64 58.49
6 4 4 729.23 66.09
6 4 4 621.54 28.8
-6 -4 4 609.74 32.7
6 -4 -4 681.63 57.69
-6 -5 -4 162.88 80.19
6 -5 4 -0.4 45.1
6 -5 4 136.69 57.09
-6 5 4 124.19 58.19
-6 5 4 124.99 17.1
6 -5 4 126.09 15.8
-6 -5 -4 113.99 27.4
6 -5 -4 114.09 42.6
6 5 4 176.88 57.59
6 5 4 128.69 14.8
-6 -5 4 119.99 24.6
-6 -5 4 136.99 40.5
6 0 5 5.1 3.5
-6 0 -5 2.3 14.3
-6 0 -5 -10.6 5.3
6 0 5 20.8 14.8
6 -1 5 74.79 21.9
6 -1 5 123.59 10.2
-6 1 5 136.69 21
-6 -1 -5 116.59 12.3
-6 -1 -5 113.69 25.7
6 1 5 122.39 26.5
-6 1 -5 131.99 12.7
6 -1 -5 138.79 19.6
6 1 5 119.19 10.2
6 -2 5 26.7 20.2
-6 -2 -5 26.5 8.2
6 -2 5 23.8 6.1
-6 2 5 37.9 18.2
6 -2 5 25.9 21.5
-6 -2 5 27.3 16.1
6 2 5 36 6.6
6 -2 -5 19.5 14.2
-6 -2 5 6 12.5
6 2 5 34 18.3
6 -3 5 156.48 13.8
6 -3 5 170.18 40.7
-6 3 5 172.38 14.1
-6 -3 -5 180.88 18.7
-6 3 5 165.28 33.1
6 -3 5 160.28 17.3
6 -3 5 135.69 40
-6 -3 -5 211.18 36.1
-6 -3 5 178.98 17.6
6 3 5 187.88 39.4
-6 -3 5 97.89 26.9
-6 -3 5 183.78 29
6 -3 -5 197.88 33.3
6 3 5 179.88 13.7
-6 -4 -5 22.8 15.3
6 -4 5 35.2 37.8
6 -4 5 7.2 7.2
-6 -4 -5 -25.2 27
6 -4 5 3 14.3
6 -4 5 -69.29 36.2
-6 4 5 -9.8 6
-6 4 5 10 28.8
-6 -4 5 7.4 25.2
6 -4 -5 -0.6 27
-6 -4 5 8.5 29.9
-6 -4 5 28.1 14.9
6 4 5 2.2 6.9
6 4 5 4 30.1
6 0 6 190.78 34
-6 0 6 194.68 23.3
6 0 6 219.58 14.2
6 -1 6 134.29 11.9
-6 -1 -6 120.59 15.8
-6 1 6 160.98 24.3
6 -1 6 190.58 34
-6 -1 6 109.89 29.1
6 1 6 136.79 29.8
6 1 6 142.89 11.8
-6 -1 6 184.18 22.4
6 -1 -6 170.88 24.2
6 -2 6 255.27 53.79
6 -2 6 345.37 20.1
6 -2 6 425.06 48.8
-6 -2 -6 280.67 23
-6 2 6 324.97 37.2
6 -2 -6 394.66 36.9
-6 -2 6 366.16 32.6
-6 -2 6 301.27 36.9
6 2 6 323.77 46.7
6 2 6 337.47 19.2
-6 3 6 76.39 11.1
-6 -3 -6 20.2 25.8
6 -3 6 57.89 34.4
6 -3 6 36.7 14.5
-6 3 6 97.69 31.1
6 -3 6 108.09 37.5
6 -3 6 52.99 9.5
6 3 6 89.69 11.5
6 3 6 71.79 33.7
-6 -3 6 51.69 24.1
-6 -3 6 72.19 28
6 -3 -6 98.29 26.1
6 -4 6 142.19 53.89
-6 -4 -6 108.79 42.2
6 -4 6 132.59 16.7
-6 4 6 159.88 44.2
-6 -4 -6 89.09 26.1
-6 4 6 157.98 16.8
6 -4 6 141.59 54.79
-6 -4 6 130.19 43.9
6 4 6 135.49 15.3
6 -4 -6 92.39 40.2
-6 -4 6 126.99 38.5
6 4 6 229.18 55.99
-6 0 7 103.69 21.2
6 0 7 114.39 11.6
-6 0 -7 87.09 13.7
6 0 7 115.69 31.4
-6 -1 -7 324.07 60.99
6 -1 7 537.75 26.1
-6 1 7 572.94 43.8
-6 -1 -7 498.95 43.5
6 -1 -7 538.75 43.7
6 1 7 538.85 26.1
-6 -1 7 563.94 40.8
-6 -1 7 546.75 44.6
-6 -2 -7 102.49 19.5
6 -2 7 100.59 19.1
6 -2 7 49.3 34.3
-6 -2 -7 65.69 29.9
-6 2 7 97.99 30.6
6 -2 7 111.89 34.5
6 -2 -7 150.28 29.3
-6 -2 7 78.29 27.1
6 2 7 132.59 13
-6 -2 7 116.49 12.2
6 2 7 176.48 43
-6 -2 7 121.29 28.4
-6 3 7 273.27 44.9
-6 -3 -7 204.78 48.1
-6 3 7 345.37 22.2
6 -3 7 379.56 23.7
6 -3 7 212.78 54.09
-6 -3 -7 275.47 33.4
6 -3 7 422.56 67.69
6 3 7 382.26 59.89
6 3 7 338.87 22
-6 -3 7 422.86 56.69
-6 -3 7 349.67 21.2
-6 -3 7 393.06 47.1
6 -3 -7 413.76 53.39
-6 0 -8 389.16 29.6
-6 0 8 462.95 46.2
6 0 8 447.76 24.4
6 0 8 444.46 60.59
-6 -1 -8 60.59 33
6 -1 8 49.4 10.2
-6 1 8 72.19 10.5
-6 -1 -8 65.09 17.3
6 -1 8 84.89 35.3
-6 1 8 17.5 23.7
-6 -1 8 -3.1 29.3
6 1 8 29.9 8.6
6 -1 -8 46.5 25
6 1 8 51.69 34.2
6 -2 8 360.66 63.99
6 -2 8 382.26 67.09
6 -2 8 356.66 23.1
-6 -2 -8 326.17 60.59
-6 2 8 333.27 21.1
-6 2 8 223.08 41
6 -2 -8 391.66 49.8
-6 -2 8 331.67 20.7
6 2 8 325.27 21.8
-6 -2 8 258.27 43.9
6 2 8 370.26 63.09
-6 0 -9 12.9 44.5
-6 0 9 18.2 8.3
6 0 9 -14.8 41.8
6 0 9 12.1 7.8
-6 1 9 -5.3 7.9
6 -1 9 -2.8 7.6
-6 -1 -9 19.9 44.3
-6 1 9 -0.2 51.49
6 -1 9 85.99 49.1
-6 -1 9 -85.59 38.4
-6 -1 9 -9 34
-6 -1 9 2.3 8.1
6 -1 -9 33 35.2
6 1 9 -5.1 7.3
6 1 9 50.69 49.8
7 -2 0 -8.8 9.3
7 -2 0 16.2 13.4
7 2 0 13.5 10.7
-7 -2 0 -16.8 7.7
7 3 0 -33.3 13.9
7 -3 0 -19.6 16.8
-7 -4 0 3.7 18.7
-7 -4 0 16.4 10.7
7 4 0 -30.4 18.7
7 5 0 -0.5 32.3
7 -5 0 4.1 37.1
-7 5 0 32 35.9
-7 -5 0 43.7 32.4
-7 -5 0 -27.2 18.1
7 0 1 224.28 20.8
7 0 1 245.78 19.2
-7 -1 -1 332.57 23.3
7 -1 1 362.26 28.9
7 -1 1 288.97 23.7
7 1 1 323.87 22.8
-7 -2 -1 458.75 31.7
7 -2 1 431.96 33.4
7 -2 1 453.55 38.1
7 -2 -1 418.96 31.1
7 2 1 458.85 32.9
-7 3 1 220.38 15.1
7 -3 1 252.07 36.8
-7 3 1 224.58 35
7 3 -1 222.68 29
-7 -3 1 235.08 27.3
7 3 1 223.48 36.2
7 -3 -1 246.58 34.9
7 -4 1 102.29 32.4
7 4 -1 189.78 36
-7 4 1 187.28 40
-7 -4 -1 187.18 34.2
-7 4 1 180.48 15.6
-7 -4 -1 123.49 16.5
7 4 1 148.39 32.8
-7 -4 1 151.08 20.6
-7 -4 1 143.69 27.8
7 -4 -1 142.49 33.6
7 5 -1 54.09 35.9
-7 5 1 111.79 44
-7 -5 -1 99.29 21.8
7 -5 1 27.6 42.9
-7 -5 -1 107.19 39.3
7 5 1 86.69 51.59
-7 -5 1 138.19 22.5
-7 -5 1 53.89 33.3
7 -5 -1 63.69 40.2
7 0 2 1029.3 47.9
7 -1 2 554.54 39
-7 -1 -2 517.45 35
7 -1 2 515.95 34.7
7 1 2 521.15 33.4
7 -2 2 741.53 47.1
7 -2 2 818.12 53.29
-7 2 2 719.03 41.4
-7 -2 -2 789.82 28.5
7 2 2 734.13 44.9
7 -2 -2 725.23 38.3
-7 3 2 194.78 13.7
-7 -3 -2 173.28 15.9
7 -3 2 147.89 32.9
-7 3 2 218.58 36.3
7 -3 -2 232.68 34.5
-7 -4 -2 463.45 51.59
-7 -4 -2 548.45 30.1
-7 4 2 519.35 56.39
7 4 -2 545.45 47
7 -4 2 506.05 57.79
7 -4 2 529.65 62.59
-7 4 2 557.44 27.2
-7 -4 2 503.05 47.6
7 -4 -2 541.75 55.79
-7 -4 2 507.75 29.7
7 4 2 528.15 54.19
7 5 -2 184.48 44.8
-7 -5 -2 199.58 47.8
7 -5 2 166.18 61.99
7 -5 -2 262.07 60.19
-7 -5 2 144.29 42.6
-7 -5 2 183.48 25.4
7 5 2 209.78 54.99
7 0 3 237.18 25.4
7 -1 3 501.05 44.4
-7 -1 -3 497.05 21.7
7 -1 3 524.25 38.4
-7 1 -3 536.25 22.3
7 1 3 533.55 37.8
-7 2 3 586.84 37.7
-7 -2 -3 538.25 24.5
7 -2 3 623.64 49.6
7 -2 3 596.94 44.6
7 2 3 599.14 43.5
7 -3 3 430.56 50.39
-7 3 3 402.66 40.8
-7 -3 -3 356.76 40.7
7 -3 3 276.77 40.1
7 3 3 322.17 38.4
7 -3 -3 366.36 36.2
-7 -3 3 346.97 31.7
7 -4 3 251.27 49.5
-7 -4 -3 177.18 40.1
-7 -4 -3 172.68 25.1
7 -4 3 181.68 15
-7 4 3 192.08 16.3
7 -4 3 166.18 19
-7 4 3 279.57 47.9
7 -4 -3 201.28 36.1
7 4 3 174.88 37.3
-7 -4 3 144.69 33.4
-7 -4 3 156.68 18.7
-7 5 3 225.68 21.6
7 -5 3 175.78 17.6
7 -5 3 15.3 65.69
-7 -5 -3 176.88 46.4
7 -5 3 187.58 26.7
7 5 3 229.58 58.99
-7 -5 3 176.28 26
-7 -5 3 62.29 39.6
-7 0 -4 -0.5 5.6
7 0 4 -14.4 12
7 -1 4 48 19.4
-7 -1 -4 85.99 10.9
7 -1 4 48.4 20.7
7 1 4 111.89 22.6
-7 1 -4 67.59 9.9
7 -2 4 -5.1 19.2
7 -2 4 3.5 4.1
-7 -2 -4 1 7
-7 2 4 23.5 14.4
7 -2 4 -5.2 17.7
7 -2 -4 20.9 12.3
7 2 4 -8.2 18
7 -3 4 74.29 12.6
7 -3 4 93.39 10.4
7 -3 4 98.79 31.7
-7 -3 -4 31.3 22.5
-7 3 4 65.19 24.3
-7 -3 -4 87.19 13.4
-7 -3 4 100.29 21.4
-7 -3 4 74.79 21.1
7 -3 -4 89.69 24.1
7 3 4 85.29 24.8
7 -4 4 -22.1 34.8
7 -4 4 -6 6.4
7 -4 4 -27.9 38
7 -4 4 -4 13.1
-7 4 4 7.6 7.3
-7 -4 -4 49.4 30.4
-7 4 4 11.3 32.3
-7 -4 4 12.2 15.2
7 4 4 -6.1 31.3
-7 -4 4 -20.3 30.4
7 -4 -4 23.3 28.8
-7 -4 4 -7.9 43.2
7 0 5 330.57 36.6
-7 0 -5 336.77 20.3
7 0 5 333.17 16.9
7 -1 5 813.82 57.59
7 -1 5 795.72 30.1
-7 -1 -5 826.72 39
7 1 5 762.82 63.99
7 -2 5 293.57 41
-7 -2 -5 264.07 20.9
-7 -2 -5 323.57 43
7 -2 5 308.77 20.5
7 -2 5 270.47 16.3
7 2 5 316.97 39.7
7 -3 5 651.23 69.19
7 -3 5 564.54 30.6
-7 -3 -5 509.45 54.19
-7 3 5 556.84 51.99
7 -3 5 586.84 27.3
7 -3 5 599.14 60.69
7 -3 -5 636.54 48.5
-7 -3 5 634.44 43.9
7 3 5 617.34 59.89
-7 -3 5 458.25 44.8
7 -4 5 139.99 51.69
7 -4 5 168.88 22.9
-7 4 5 193.98 17.9
-7 -4 -5 103.29 28.6
7 -4 5 208.38 18
-7 4 5 158.48 40
7 4 5 219.48 91.09
-7 -4 5 100.09 34.7
-7 -4 5 112.29 33.6
7 -4 -5 223.08 42.9
-7 0 -6 875.21 65.79
7 0 6 900.41 63.49
7 0 6 898.61 34.2
-7 0 -6 902.81 37.7
-7 -1 -6 636.24 54.59
7 -1 6 593.04 26.2
7 -1 6 610.34 54.99
-7 -1 -6 556.74 29.6
7 1 6 564.74 53.59
7 1 6 600.74 26.4
-7 -2 -6 590.94 42.7
7 -2 6 650.23 63.09
-7 2 6 825.32 67.39
7 -2 6 776.42 71.59
7 -2 6 761.32 31.3
-7 -2 -6 673.93 61.89
7 -2 -6 677.13 59.89
7 2 6 758.52 31.1
7 2 6 755.32 64.69
-7 3 6 362.06 21.3
7 -3 6 367.46 27.6
-7 3 6 331.27 48.8
-7 -3 -6 289.97 50.09
-7 -3 -6 266.57 29.4
7 -3 6 297.47 52.79
7 -3 6 320.27 58.99
7 -3 6 373.76 22.6
7 3 6 363.06 57.99
7 -3 -6 338.57 46.7
-7 -3 6 425.26 42.7
7 0 7 25.2 28
7 0 7 1.1 5.6
-7 0 -7 -12.3 25.6
-7 0 -7 -26.1 12.7
7 -1 7 90.89 34.7
7 -1 7 54.19 9.8
-7 -1 -7 88.69 15.8
-7 1 7 63.09 22.2
-7 -1 -7 97.99 31.3
7 1 7 57.29 10.1
7 1 7 113.99 37.5
7 -1 -7 38.2 20.3
7 -2 7 26.8 38.3
7 -2 7 -27.7 40.9
-7 -2 -7 -7.4 15.8
7 -2 7 34.3 8.9
-7 2 7 31.5 25.7
-7 -2 -7 -1.4 32.1
7 -2 -7 38.4 24.3
7 2 7 49.5 34.5
7 2 7 37.8 8.6
-7 3 7 60.29 11.6
7 -3 7 40.7 20.4
7 -3 7 41.6 10.3
7 -3 7 76.19 52.99
-7 -3 -7 103.99 44.4
-7 -3 7 30.8 35.4
-7 -3 7 -23.9 28.3
7 3 7 42.6 10.1
-7 0 8 192.58 35.1
7 0 8 177.18 46.7
-7 0 -8 192.68 49.99
-7 -1 -8 90.79 36.1
7 -1 8 41 45.1
-7 -1 -8 88.79 41.9
-7 1 8 177.48 32.8
7 -1 8 123.79 14.5
-7 -1 8 70.19 26.5
7 1 8 96.69 45.8
7 1 8 120.09 13.9
7 -2 8 229.18 19.6
7 -2 8 157.88 59.29
-7 -2 -8 149.88 55.09
-7 2 8 214.58 41.9
-7 -2 8 141.49 35.5
-7 -2 8 147.99 44.4
7 2 8 243.48 18.8
7 -2 -8 275.37 43.1
8 -2 0 2123.69 80.39
8 -2 0 2281.87 85.89
-8 -3 0 473.35 36.4
8 3 0 361.56 37
8 -3 0 475.35 45.9
8 -3 0 523.25 44.4
8 -4 0 946.41 73.79
8 4 0 881.11 63.49
-8 -4 0 881.41 40
-8 -4 0 890.11 62.39
8 -1 1 302.17 24.9
8 -1 1 337.87 30.3
8 -2 1 276.67 34.6
8 -2 1 278.17 32.9
-8 -2 -1 289.57 27
8 2 1 314.17 29.2
-8 -3 -1 132.49 26.2
-8 -3 -1 162.58 15.4
8 -3 1 153.18 34.6
8 -3 1 138.39 29.1
8 3 1 125.19 26
8 -3 -1 201.28 31.3
-8 -4 -1 131.99 31.2
8 -4 1 156.68 38.6
8 -4 1 184.88 43.1
-8 -4 -1 195.18 22.1
8 4 -1 135.19 32.3
-8 -4 1 169.78 32.2
8 4 1 187.58 37.7
8 -4 -1 107.89 35.2
8 0 2 81.19 16.2
-8 -1 -2 25.2 12
8 -1 2 20.8 13.6
8 -1 2 10.2 15.7
8 1 2 23.2 11.8
8 -2 2 50.69 21.4
-8 -2 -2 37.6 14.6
8 -2 2 49.1 20
-8 -2 -2 37.4 8
8 2 2 14.9 15.7
-8 -3 -2 42.5 20.2
8 -3 2 10.3 20.6
-8 3 2 10.3 6.4
8 -3 2 5.3 24.4
8 -3 -2 43.3 19.1
8 3 2 -1.6 17.7
-8 4 2 49.3 11.1
-8 4 2 26.8 31.3
8 4 -2 61.39 27.6
8 -4 2 17.8 35.6
8 -4 -2 -2.5 27.5
8 4 2 80.39 36.3
8 0 3 416.36 34.6
-8 0 -3 414.36 19.9
8 -1 3 1065.99 62.79
-8 -2 -3 314.17 19.2
8 -2 3 317.97 37.5
8 -2 3 313.37 45.4
8 2 3 308.57 35.2
8 -3 3 702.53 65.39
-8 -3 -3 702.23 33.3
-8 -3 -3 673.13 55.79
8 3 3 806.62 58.29
8 -4 3 126.79 46.7
-8 -4 -3 204.98 42.9
-8 4 3 191.98 18.5
-8 -4 -3 165.58 22.5
-8 4 3 200.78 46.3
8 4 3 169.68 48.1
-8 -4 3 212.48 35.4
8 -4 -3 232.08 43.1
8 0 4 380.46 37.2
-8 0 -4 312.97 19.4
-8 -1 -4 614.64 27.3
8 -1 4 553.34 46.5
-8 -1 -4 604.64 47.1
8 -1 4 616.64 51.69
8 1 4 608.44 46.2
-8 -2 -4 468.75 25.9
8 -2 4 523.55 67.99
8 -2 4 475.55 48.4
-8 -2 -4 554.44 48.5
8 2 4 465.55 45.4
8 -3 4 480.45 63.49
-8 -3 -4 496.45 53.79
-8 3 4 364.96 46.7
8 -3 4 471.35 57.49
8 3 4 477.85 53.09
8 -3 -4 443.76 40.7
-8 -4 -4 175.08 46
8 -4 4 187.18 53.49
-8 -4 -4 165.58 29.2
-8 4 4 211.78 18.8
-8 -4 4 124.59 32.1
8 4 4 251.87 52.59
-8 -4 4 129.69 29.9
-8 0 -5 75.79 12.6
8 0 5 170.98 30
8 -1 5 48 27.8
-8 -1 -5 14.5 19.7
8 -1 5 -6.6 19
8 1 5 -6.8 19.9
-8 -2 -5 37.5 26.2
-8 -2 -5 89.49 15.8
8 -2 5 47.4 28.9
8 -2 5 49.9 32.4
8 2 5 53.89 25.8
8 -3 5 -10.7 35
-8 3 5 35.5 29.5
8 -3 5 1.6 51.09
-8 -3 -5 -20.2 15.5
8 3 5 -32.2 50.99
8 -3 -5 12.3 22.7
8 0 6 154.78 35.3
-8 0 -6 63.69 31.6
-8 -1 -6 113.39 17.4
8 -1 6 25.6 29.5
8 -1 6 78.09 30.1
-8 -1 -6 21.6 28.5
8 1 6 101.79 31.1
8 -2 6 35.1 8
8 -2 6 -3.5 34.9
-8 -2 -6 15.2 15.7
-8 -2 -6 14.7 29.7
8 2 6 31.7 35.9
-8 -3 -6 87.09 42.9
-8 3 6 6.6 54.49
8 -3 6 31.7 9.3
8 -3 6 60.99 49.2
8 3 6 63.09 46.3
8 -3 -6 78.49 29.8
-8 0 -7 312.37 60.39
8 0 7 366.56 53.69
8 -1 7 237.58 17.3
8 -1 7 144.79 50.19
8 -1 7 211.28 59.69
8 1 7 187.88 82.49
8 -2 7 364.96 22.4
8 -2 7 314.37 31.2
-8 -2 -7 266.07 52.59
8 2 7 395.36 69.29
9 -3 0 -9 20.1
9 4 0 -19.2 27.4
-9 -4 0 -23.1 27.3
9 -4 0 -65.99 33.3
9 -4 0 -36.8 34.8
9 -2 1 551.14 40.6
-9 -3 -1 122.59 26.1
9 -3 1 127.79 30.3
9 -3 1 225.08 41.6
9 -3 -1 192.38 32.6
9 3 1 136.89 30.4
9 -3 -1 219.78 33.3
9 4 -1 293.97 40.3
9 -4 1 357.46 56.89
9 -4 1 374.06 60.19
-9 -4 -1 406.46 52.69
-9 -4 1 419.76 44.7
9 4 1 312.17 56.39
9 0 2 625.64 37.3
9 -1 2 987.7 51.69
9 -1 2 1138.69 63.59
9 1 2 982.5 49.5
9 -2 2 348.07 45.9
-9 -2 -2 353.76 34
9 -2 2 311.97 35.6
9 2 2 327.27 38.1
-9 -3 -2 745.23 57.89
9 -3 2 869.91 73.89
9 -3 2 851.61 64.39
-9 -3 -2 778.42 35.5
9 3 2 661.83 72.79
9 -3 -2 837.72 51.59
9 -4 2 404.56 62.79
-9 -4 -2 249.68 47.2
9 -4 2 137.19 64.79
-9 -4 -2 196.08 25.3
9 -4 -2 240.78 45.7
9 4 2 251.07 49.4
-9 0 -3 82.99 11.1
9 0 3 76.59 24.5
9 0 3 74.69 19.4
-9 -1 -3 104.49 23.2
9 -1 3 162.48 34.7
9 -1 3 107.09 25.1
9 1 3 115.59 23.1
9 -2 3 18.1 26.6
9 -2 3 2.7 21.2
-9 -2 -3 59.39 23
-9 -2 -3 19.5 9.8
9 2 3 9.1 18.5
9 -3 3 156.18 44.1
-9 -3 -3 199.28 41.7
-9 0 -4 -7.1 9.7
9 0 4 9.5 19.9
9 -1 4 203.18 40.3
-9 -1 -4 141.19 30.5
9 -1 4 121.49 28.4
-9 -1 -4 141.69 16.1
9 1 4 140.09 30.5
9 -2 4 23.6 38.6
-9 -2 -4 33.3 25.6
9 -2 4 -2.7 24.7
-9 -2 -4 8.5 13.3
9 2 4 -15.9 24.1
-9 -3 -4 32.5 20.3
9 -3 4 21.7 44.8
9 -3 4 74.39 42.6
-9 -3 -4 99.39 31.8
9 3 4 122.09 36.3
9 0 5 442.36 54.89
9 -1 5 438.36 61.99
9 -1 5 359.96 52.49
-9 -1 -5 292.17 56.29
9 1 5 318.97 44.2
-9 -2 -5 417.46 54.49
-9 -2 -5 271.77 30
9 -2 5 401.26 67.79
9 -2 5 273.87 52.59
-9 0 -6 153.98 21.9
9 0 6 262.17 50.39
9 -1 6 -2.5 37.7
9 -1 6 20.8 46.8
-9 -1 -6 0.2 37
9 1 6 54.89 37.6
9 -2 6 234.88 56.09
-9 -2 -6 190.38 48.6
9 2 6 271.07 56.39
10 -3 0 227.98 39.2
10 -3 1 54.49 33.5
10 -3 1 117.59 37.9
10 -1 2 -8.1 15.9
10 -2 2 51.99 30.9
10 -3 2 14.9 34.8
-10 -3 -2 24.6 26.8
10 -3 2 -27.2 52.59
-10 -3 -2 10 17.1
10 3 2 -14 28.1
10 0 3 293.17 36.4
10 0 3 295.17 43.5
10 -1 3 165.48 29.6
10 -1 3 137.19 46.3
10 1 3 124.89 26.2
-10 -2 -3 199.48 35.5
10 -2 3 314.87 45.9
10 2 3 262.67 38.2
10 0 4 312.97 53.09
10 0 4 264.67 44
10 -1 4 426.96 56.39
10 1 4 498.75 50.69
-10 -2 -4 78.19 19.9
-10 -2 -4 110.89 35
10 -2 4 129.39 49.9
10 -2 4 137.39 44.8
10 2 4 206.48 40
-10 0 -5 66.39 17.9
10 0 5 99.39 40.4
10 -1 5 65.99 39.8
10 -1 5 151.58 57.49
10 1 5 -4.5 37
11 0 3 87.49 29.8
11 -1 3 32.5 31.3
11 -1 3 42.2 39.4
loop_
_exptl_crystal_face_index_h
_exptl_crystal_face_index_k
_exptl_crystal_face_index_l
_exptl_crystal_face_perp_dist
-1.00 0.00 1.00 0.0630
1.00 0.00 -1.00 0.0410
0.00 0.00 1.00 0.0340
0.00 0.00 -1.00 0.0320
1.00 0.00 0.00 0.0500
1.00 -1.00 1.00 0.0440
-1.00 1.00 -1.00 0.0340
-1.00 -1.00 0.00 0.0440
1.00 -1.00 -1.00 0.0430
1.00 1.00 1.00 0.0520
-1.00 0.00 -1.00 0.0530
1.00 0.00 1.00 0.0470
0.00 1.00 -1.00 0.0220
-1.00 1.00 0.00 0.0240
1.00 -1.00 0.00 0.0350
0.00 1.00 0.00 0.0300
1.00 1.00 0.00 0.0440
loop_
_geom_angle_atom_site_label_1
_geom_angle_atom_site_label_2
_geom_angle_atom_site_label_3
_geom_angle
_geom_angle_site_symmetry_1
_geom_angle_site_symmetry_3
_geom_angle_publ_flag
O1 Ba1 N1 21.84(4) 2_565 2_565 ?
O1 Ba1 N1 146.83(5) 7_575 2_565 ?
O1 Ba1 N1 21.84(4) 8_666 2_565 ?
O1 Ba1 N1 146.83(5) . 2_565 ?
O1 Ba1 O1 126.60(3) 7_575 8_666 ?
O1 Ba1 O1 64.65(8) 7_575 . ?
O1 Ba1 O1 168.60(7) . 8_666 ?
O1 Ba1 O1 168.60(7) 7_575 2_565 ?
O1 Ba1 O1 126.60(3) . 2_565 ?
O1 Ba1 O1 42.09(8) 8_666 2_565 ?
O1 Ba1 O2 118.50(7) . 6_567 ?
O1 Ba1 O2 70.21(7) 8_666 6_567 ?
O1 Ba1 O2 70.21(7) 2_565 6_557 ?
O1 Ba1 O2 118.50(7) 7_575 6_557 ?
O1 Ba1 O2 62.46(7) 7_575 6_567 ?
O1 Ba1 O2 62.46(7) . 6_557 ?
O1 Ba1 O2 107.00(7) 8_666 6_557 ?
O1 Ba1 O2 107.00(7) 2_565 6_567 ?
O1 Ba1 Cl1 70.50(4) 7_575 2_575 ?
O1 Ba1 Cl1 67.32(5) . 6_657 ?
O1 Ba1 Cl1 100.92(4) 8_666 2_565 ?
O1 Ba1 Cl1 124.69(5) . 2_575 ?
O1 Ba1 Cl1 70.50(4) . 2_565 ?
O1 Ba1 Cl1 65.35(4) 8_666 2_575 ?
O1 Ba1 Cl1 65.35(4) 2_565 2_565 ?
O1 Ba1 Cl1 116.95(4) 2_565 6_657 ?
O1 Ba1 Cl1 114.65(4) 2_565 . ?
O1 Ba1 Cl1 116.95(4) 8_666 6_657 ?
O1 Ba1 Cl1 100.92(4) 2_565 2_575 ?
O1 Ba1 Cl1 66.25(4) 7_575 . ?
O1 Ba1 Cl1 124.69(5) 7_575 2_565 ?
O1 Ba1 Cl1 66.25(4) . . ?
O1 Ba1 Cl1 114.65(4) 8_666 . ?
O1 Ba1 Cl1 67.32(5) 7_575 6_657 ?
O2 Ba1 N1 85.75(6) 6_567 2_565 ?
O2 Ba1 N1 85.75(6) 6_557 2_565 ?
O2 Ba1 O2 122.93(10) 6_557 6_567 ?
O2 Ba1 Cl1 65.43(5) 6_557 . ?
O2 Ba1 Cl1 115.41(6) 6_557 6_657 ?
O2 Ba1 Cl1 60.27(5) 6_557 2_565 ?
O2 Ba1 Cl1 60.27(5) 6_567 2_575 ?
O2 Ba1 Cl1 115.41(6) 6_567 6_657 ?
O2 Ba1 Cl1 170.99(6) 6_567 2_565 ?
O2 Ba1 Cl1 65.43(5) 6_567 . ?
O2 Ba1 Cl1 170.99(6) 6_557 2_575 ?
Cl1 Ba1 N1 86.15(4) 2_575 2_565 ?
Cl1 Ba1 N1 110.59(6) . 2_565 ?
Cl1 Ba1 N1 125.01(6) 6_657 2_565 ?
Cl1 Ba1 N1 86.15(4) 2_565 2_565 ?
Cl1 Ba1 Cl1 124.40(2) . 6_657 ?
Cl1 Ba1 Cl1 115.21(3) 2_575 2_565 ?
Cl1 Ba1 Cl1 121.414(18) . 2_565 ?
Cl1 Ba1 Cl1 66.62(2) 2_575 6_657 ?
Cl1 Ba1 Cl1 66.62(2) 2_565 6_657 ?
Cl1 Ba1 Cl1 121.414(18) . 2_575 ?
O1 N1 Ba1 63.17(18) . 2_564 ?
O1 N1 Ba1 63.17(18) 7_565 2_564 ?
O1 N1 O1 119.0(4) . 7_565 ?
O2 N1 Ba1 150.0(2) . 2_564 ?
O2 N1 O1 120.47(19) . 7_565 ?
O2 N1 O1 120.47(19) . . ?
Ba1 O1 Ba1 112.75(7) . 2_564 ?
N1 O1 Ba1 126.84(19) . . ?
N1 O1 Ba1 95.00(18) . 2_564 ?
Ba1 O2 Ba1 122.93(10) 6_657 6_647 ?
N1 O2 Ba1 107.45(10) . 6_647 ?
N1 O2 Ba1 107.45(10) . 6_657 ?
Ba1 Cl1 Ba1 104.24(2) . 2_564 ?
Ba1 Cl1 Ba1 113.38(2) 2_564 6_557 ?
Ba1 Cl1 Ba1 104.89(3) . 6_557 ?
Ba1 Cl1 Ba1 104.24(2) . 2_574 ?
Ba1 Cl1 Ba1 113.38(2) 2_574 6_557 ?
Ba1 Cl1 Ba1 115.21(3) 2_564 2_574 ?
loop_
_geom_bond_atom_site_label_1
_geom_bond_atom_site_label_2
_geom_bond_distance
_geom_bond_site_symmetry_2
_geom_bond_publ_flag
Ba1 N1 3.357(4) 2_565 ?
Ba1 O1 3.007(2) 2_565 ?
Ba1 O1 2.9353(19) 7_575 ?
Ba1 O1 2.9353(19) . ?
Ba1 O1 3.007(2) 8_666 ?
Ba1 O2 3.0159(15) 6_567 ?
Ba1 O2 3.0159(15) 6_557 ?
Ba1 Cl1 3.1380(6) 2_565 ?
Ba1 Cl1 3.1380(6) 2_575 ?
Ba1 Cl1 3.1958(11) 6_657 ?
Ba1 Cl1 3.1317(10) . ?
N1 O1 1.254(3) 7_565 ?
N1 O1 1.254(3) . ?
N1 O2 1.237(4) . ?
loop_
_geom_torsion_atom_site_label_1
_geom_torsion_atom_site_label_2
_geom_torsion_atom_site_label_3
_geom_torsion_atom_site_label_4
_geom_torsion
_geom_torsion_site_symmetry_1
_geom_torsion_site_symmetry_2
_geom_torsion_site_symmetry_3
_geom_torsion_site_symmetry_4
_geom_torsion_publ_flag
Ba1 N1 O1 Ba1 123.4(2) 2_564 . . . ?
Ba1 N1 O2 Ba1 67.06(10) 2_564 . . 6_657 ?
Ba1 N1 O2 Ba1 -67.06(10) 2_564 . . 6_647 ?
O1 N1 O1 Ba1 -30.8(3) 7_565 . . 2_564 ?
O1 N1 O1 Ba1 92.6(3) 7_565 . . . ?
O1 N1 O2 Ba1 21.3(4) 7_565 . . 6_647 ?
O1 N1 O2 Ba1 155.4(2) 7_565 . . 6_657 ?
O1 N1 O2 Ba1 -155.4(2) . . . 6_647 ?
O1 N1 O2 Ba1 -21.3(4) . . . 6_657 ?
O2 N1 O1 Ba1 146.0(3) . . . 2_564 ?
O2 N1 O1 Ba1 -90.6(4) . . . . ?
