#------------------------------------------------------------------------------
#$Date: 2022-09-15 14:30:03 +0300 (Thu, 15 Sep 2022) $
#$Revision: 277873 $
#$URL: file:///home/coder/svn-repositories/cod/cif/7/10/09/7100933.cif $
#------------------------------------------------------------------------------
#
# This file is available in the Crystallography Open Database (COD),
# http://www.crystallography.net/
#
# All data on this site have been placed in the public domain by the
# contributors.
#
data_7100933
loop_
_publ_author_name
'T. Pretsch'
'K.W. Chapman'
'C.J. Kepert'
_publ_section_title
;
Dehydration of the nanoporous coordination framework
ErIII[CoIII(CN)6]4H2O: single crystal to single
crystal transformation and negative thermal
expansion in ErIII[CoIII(CN)6]
;
_journal_name_full               'Chemical Communications'
_journal_paper_doi               10.1039/b601344a
_journal_year                    2006
_chemical_formula_moiety         'C6 Co Er N6'
_chemical_formula_sum            'C6 Co Er N6'
_chemical_formula_weight         382.31
_chemical_name_common            erbium(iii)-hexacyanocobaltate(iii)
_space_group_IT_number           194
_space_group_name_Hall           '-P 6c 2c'
_space_group_name_H-M_alt        'P 63/m m c'
_symmetry_cell_setting           hexagonal
_symmetry_space_group_name_Hall  '-P 6c 2c'
_symmetry_space_group_name_H-M   'P 63/m m c'
_cell_angle_alpha                90.00
_cell_angle_beta                 90.00
_cell_angle_gamma                120.00
_cell_formula_units_Z            2
_cell_length_a                   7.3782(2)
_cell_length_b                   7.3782(2)
_cell_length_c                   13.0222(6)
_cell_measurement_temperature    300(2)
_cell_volume                     613.93(4)
_diffrn_ambient_temperature      300(2)
_exptl_crystal_density_diffrn    2.068
_cod_depositor_comments
;
The following automatic conversions were performed:
'_symmetry_cell_setting' value 'Hexagonal' changed to 'hexagonal'
according to '/home/saulius/struct/CIF-dictionaries/cif_core.dic'
dictionary named 'cif_core.dic' version 2.4.1 from 2010-06-29.

Automatic conversion script
Id: cif_fix_enum 1527 2010-12-29 10:47:43Z saulius 
;
_cod_database_code               7100933
loop_
_symmetry_equiv_pos_as_xyz
'x, y, z'
'-y, x-y, z'
'-x+y, -x, z'
'-x, -y, z+1/2'
'y, -x+y, z+1/2'
'x-y, x, z+1/2'
'y, x, -z'
'x-y, -y, -z'
'-x, -x+y, -z'
'-y, -x, -z+1/2'
'-x+y, y, -z+1/2'
'x, x-y, -z+1/2'
'-x, -y, -z'
'y, -x+y, -z'
'x-y, x, -z'
'x, y, -z-1/2'
'-y, x-y, -z-1/2'
'-x+y, -x, -z-1/2'
'-y, -x, z'
'-x+y, y, z'
'x, x-y, z'
'y, x, z-1/2'
'x-y, -y, z-1/2'
'-x, -x+y, z-1/2'
loop_
_atom_site_label
_atom_site_type_symbol
_atom_site_fract_x
_atom_site_fract_y
_atom_site_fract_z
_atom_site_U_iso_or_equiv
_atom_site_adp_type
_atom_site_occupancy
_atom_site_symmetry_multiplicity
_atom_site_calc_flag
_atom_site_refinement_flags
_atom_site_disorder_assembly
_atom_site_disorder_group
Er1 Er 0.3333 0.6667 0.2500 0.01238(7) Uani 1 12 d S . .
Co1 Co 1.0000 1.0000 0.0000 0.01218(13) Uani 1 12 d S . .
C1 C 0.7599(4) 0.87997(18) 0.08450(16) 0.0209(4) Uani 1 2 d S . .
N1 N 0.6155(3) 0.80776(17) 0.13684(16) 0.0334(5) Uani 1 2 d S . .
loop_
_atom_site_aniso_label
_atom_site_aniso_U_11
_atom_site_aniso_U_22
_atom_site_aniso_U_33
_atom_site_aniso_U_23
_atom_site_aniso_U_13
_atom_site_aniso_U_12
Er1 0.01330(8) 0.01330(8) 0.01053(10) 0.000 0.000 0.00665(4)
Co1 0.01312(18) 0.01312(18) 0.0103(3) 0.000 0.000 0.00656(9)
C1 0.0191(10) 0.0247(8) 0.0172(9) 0.0002(4) 0.0005(8) 0.0096(5)
N1 0.0224(11) 0.0451(11) 0.0251(10) 0.0032(4) 0.0063(8) 0.0112(5)
loop_
_geom_bond_atom_site_label_1
_geom_bond_atom_site_label_2
_geom_bond_distance
_geom_bond_site_symmetry_2
_geom_bond_publ_flag
Er1 N1 2.329(2) 16_556 ?
Er1 N1 2.329(2) 3_565 ?
Er1 N1 2.329(2) 17_666 ?
Er1 N1 2.329(2) 2_665 ?
Er1 N1 2.329(2) 18_566 ?
Er1 N1 2.329(2) . ?
Co1 C1 1.888(2) 15_655 ?
Co1 C1 1.888(2) 13_775 ?
Co1 C1 1.888(2) 14_565 ?
Co1 C1 1.888(2) 2_765 ?
Co1 C1 1.888(2) 3_675 ?
Co1 C1 1.888(2) . ?
C1 N1 1.147(3) . ?
