#------------------------------------------------------------------------------
#$Date: 2022-09-15 14:30:03 +0300 (Thu, 15 Sep 2022) $
#$Revision: 277873 $
#$URL: file:///home/coder/svn-repositories/cod/cif/7/10/09/7100932.cif $
#------------------------------------------------------------------------------
#
# This file is available in the Crystallography Open Database (COD),
# http://www.crystallography.net/
#
# All data on this site have been placed in the public domain by the
# contributors.
#
data_7100932
loop_
_publ_author_name
'T. Pretsch'
'K.W. Chapman'
'C.J. Kepert'
_publ_section_title
;
Dehydration of the nanoporous coordination framework
ErIII[CoIII(CN)6]4H2O: single crystal to single
crystal transformation and negative thermal
expansion in ErIII[CoIII(CN)6]
;
_journal_name_full               'Chemical Communications'
_journal_paper_doi               10.1039/b601344a
_journal_year                    2006
_chemical_formula_moiety         'C6 Co Er N6'
_chemical_formula_sum            'C6 Co Er N6'
_chemical_formula_weight         382.31
_chemical_name_common            erbium(iii)-hexacyanocobaltate(iii)
_space_group_IT_number           194
_space_group_name_Hall           '-P 6c 2c'
_space_group_name_H-M_alt        'P 63/m m c'
_symmetry_cell_setting           hexagonal
_symmetry_space_group_name_Hall  '-P 6c 2c'
_symmetry_space_group_name_H-M   'P 63/m m c'
_cell_angle_alpha                90.00
_cell_angle_beta                 90.00
_cell_angle_gamma                120.00
_cell_formula_units_Z            2
_cell_length_a                   7.3828(2)
_cell_length_b                   7.3828(2)
_cell_length_c                   13.0303(6)
_cell_measurement_temperature    225(2)
_cell_volume                     615.07(4)
_diffrn_ambient_temperature      225(2)
_exptl_crystal_density_diffrn    2.064
_cod_depositor_comments
;
The following automatic conversions were performed:
'_symmetry_cell_setting' value 'Hexagonal' changed to 'hexagonal'
according to '/home/saulius/struct/CIF-dictionaries/cif_core.dic'
dictionary named 'cif_core.dic' version 2.4.1 from 2010-06-29.

Automatic conversion script
Id: cif_fix_enum 1527 2010-12-29 10:47:43Z saulius 
;
_cod_database_code               7100932
loop_
_symmetry_equiv_pos_as_xyz
'x, y, z'
'-y, x-y, z'
'-x+y, -x, z'
'-x, -y, z+1/2'
'y, -x+y, z+1/2'
'x-y, x, z+1/2'
'y, x, -z'
'x-y, -y, -z'
'-x, -x+y, -z'
'-y, -x, -z+1/2'
'-x+y, y, -z+1/2'
'x, x-y, -z+1/2'
'-x, -y, -z'
'y, -x+y, -z'
'x-y, x, -z'
'x, y, -z-1/2'
'-y, x-y, -z-1/2'
'-x+y, -x, -z-1/2'
'-y, -x, z'
'-x+y, y, z'
'x, x-y, z'
'y, x, z-1/2'
'x-y, -y, z-1/2'
'-x, -x+y, z-1/2'
loop_
_atom_site_label
_atom_site_type_symbol
_atom_site_fract_x
_atom_site_fract_y
_atom_site_fract_z
_atom_site_U_iso_or_equiv
_atom_site_adp_type
_atom_site_occupancy
_atom_site_symmetry_multiplicity
_atom_site_calc_flag
_atom_site_refinement_flags
_atom_site_disorder_assembly
_atom_site_disorder_group
Er1 Er 0.3333 0.6667 0.2500 0.01015(6) Uani 1 12 d S . .
Co1 Co 1.0000 1.0000 0.0000 0.01018(11) Uani 1 12 d S . .
C1 C 0.7603(3) 0.88016(16) 0.08427(14) 0.0175(4) Uani 1 2 d S . .
N1 N 0.6158(3) 0.80792(15) 0.13681(14) 0.0268(4) Uani 1 2 d S . .
loop_
_atom_site_aniso_label
_atom_site_aniso_U_11
_atom_site_aniso_U_22
_atom_site_aniso_U_33
_atom_site_aniso_U_23
_atom_site_aniso_U_13
_atom_site_aniso_U_12
Er1 0.01098(7) 0.01098(7) 0.00848(9) 0.000 0.000 0.00549(3)
Co1 0.01090(16) 0.01090(16) 0.0087(2) 0.000 0.000 0.00545(8)
C1 0.0169(9) 0.0202(7) 0.0143(8) -0.0002(3) -0.0004(7) 0.0085(4)
N1 0.0187(9) 0.0358(8) 0.0203(8) 0.0023(3) 0.0046(7) 0.0093(4)
loop_
_geom_bond_atom_site_label_1
_geom_bond_atom_site_label_2
_geom_bond_distance
_geom_bond_site_symmetry_2
_geom_bond_publ_flag
Er1 N1 2.3320(18) 16_556 ?
Er1 N1 2.3320(18) 3_565 ?
Er1 N1 2.3320(18) 17_666 ?
Er1 N1 2.3320(18) 2_665 ?
Er1 N1 2.3320(18) 18_566 ?
Er1 N1 2.3320(18) . ?
Co1 C1 1.885(2) 3_675 ?
Co1 C1 1.885(2) 15_655 ?
Co1 C1 1.885(2) 13_775 ?
Co1 C1 1.885(2) 14_565 ?
Co1 C1 1.885(2) . ?
Co1 C1 1.885(2) 2_765 ?
C1 N1 1.150(3) . ?
