#------------------------------------------------------------------------------
#$Date: 2016-03-26 02:34:10 +0200 (Sat, 26 Mar 2016) $
#$Revision: 180145 $
#$URL: svn://www.crystallography.net/cod/cif/7/10/42/7104207.cif $
#------------------------------------------------------------------------------
#
# This file is available in the Crystallography Open Database (COD),
# http://www.crystallography.net/
#
# All data on this site have been placed in the public domain by the
# contributors.
#
data_7104207
loop_
_publ_author_name
'Yashima, Masatomo'
'Komatsu, Takafumi'
_publ_section_title
;
 Order-disorder and displacive components in the
 ferroelectric-paraelectric phase transition of potassium titanyl
 phosphate KTiOPO4.
;
_journal_issue                   9
_journal_name_full
'Chemical communications (Cambridge, England)'
_journal_page_first              1070
_journal_page_last               1072
_journal_paper_doi               10.1039/b817280c
_journal_volume                  34
_journal_year                    2009
_chemical_name_common            'Pnna KTP'
_space_group_IT_number           52
_symmetry_Int_Tables_number      52
_symmetry_space_group_name_Hall  '-P 2a 2bc'
_symmetry_space_group_name_H-M   'P n n a'
_cell_angle_alpha                90
_cell_angle_beta                 90
_cell_angle_gamma                90
_cell_length_a                   12.96100(79)
_cell_length_b                   10.53218(54)
_cell_length_c                   6.49534(39)
_pd_phase_name                   'Pnna KTP'
_cod_data_source_file            b817280c.txt
_cod_data_source_block           2
_cod_database_code               7104207
loop_
_symmetry_equiv_pos_as_xyz
'x, y, z'
'-x, -y, -z'
'-x+1/2, -y, z'
'x+1/2, y, -z'
'-x+1/2, y+1/2, -z+1/2'
'x+1/2, -y+1/2, z+1/2'
'x, -y+1/2, -z+1/2'
'-x, y+1/2, z+1/2'
loop_
_atom_site_label
_atom_site_occupancy
_atom_site_fract_x
_atom_site_fract_y
_atom_site_fract_z
_atom_site_thermal_displace_type
_atom_site_B_iso_or_equiv
_atom_site_type_symbol
Ti1 1.0 0.62106(78) 0.25000 0.25000 Biso 1.27(13) Ti
Ti2 1.0 0.50000 0.50000 0.50000 Biso 1.27(13) Ti
O3 1.0 0.5259(4) 0.12418(56) 0.20747(82) Biso 2.95(4) O
P1 1.0 0.75000 0.50000 0.416(1) Biso 1.78(10) P
O1 1.0 0.76485(41) 0.6150(5) 0.27906(76) Biso 2.95(4) O
O2 1.0 0.84606(38) 0.47995(66) 0.55326(77) Biso 2.95(4) O
P2 1.0 0.42735(57) 0.75000 0.25000 Biso 1.78(10) P
O4 1.0 0.35984(48) 0.7197(6) 0.06352(81) Biso 2.95(4) O
O5 1.0 0.50040(44) 0.8647(5) 0.20799(79) Biso 2.95(4) O
K1 0.51(3) 0.6228(18) 0.6790(26) -0.010(3) Biso 4.6(3) K
K2 0.49(3) 0.357(2) 0.4053(25) 0.0588(38) Biso 4.6(3) K
