#------------------------------------------------------------------------------
#$Date: 2016-02-16 03:10:39 +0200 (Tue, 16 Feb 2016) $
#$Revision: 176453 $
#$URL: svn://www.crystallography.net/cod/cif/7/11/51/7115193.cif $
#------------------------------------------------------------------------------
#
# This file is available in the Crystallography Open Database (COD),
# http://www.crystallography.net/
#
# All data on this site have been placed in the public domain by the
# contributors.
#
data_7115193
loop_
_publ_author_name
'Jensen, Paul'
'Batten, Stuart R.'
'Fallon, Gary D.'
'Moubaraki, Boujemaa'
'Murray, Keith S.'
'Price, David J.'
_publ_contact_author
;
    Prof. K.S. Murray
    Department of Chemistry
    Monash University
    Clayton, Vic. 3168
    AUSTRALIA
;
_publ_section_title
;
 Structural isomers of M(dca)2 molecule-based magnets. Crystal structure
 of tetrahedrally coordinated sheet-like \b-Zn(dca)2 and \b-Co/Zn(dca)2,
 and the octahedrally coordinated rutile-like \a-Co(dca)2, where dca-- =
 dicyanamide, N(CN)2&#x2212;, and magnetism of \b-Co(dca)2
;
_journal_issue                   2
_journal_name_full               'Chemical Communications'
_journal_page_first              177
_journal_paper_doi               10.1039/a808777f
_journal_year                    1999
_chemical_formula_moiety         'C4 Co N6 '
_chemical_formula_sum            'C4 Co N6'
_chemical_formula_weight         191.02
_space_group_IT_number           58
_symmetry_cell_setting           orthorhombic
_symmetry_Int_Tables_number      58
_symmetry_space_group_name_Hall  '-P 2 2n'
_symmetry_space_group_name_H-M   'P n n m'
_audit_creation_date             'Tue Oct 13 14:58:16 1998'
_audit_creation_method           'from TEXRAY.INF file'
_cell_angle_alpha                90
_cell_angle_beta                 90
_cell_angle_gamma                90
_cell_formula_units_Z            2
_cell_length_a                   7.0433(2)
_cell_length_b                   5.9748(3)
_cell_length_c                   7.4039(4)
_cell_measurement_reflns_used    0
_cell_measurement_temperature    123.2
_cell_measurement_theta_max      0.0
_cell_measurement_theta_min      0.0
_cell_volume                     311.57(2)
_computing_cell_refinement       'MSC/AFC Diffractometer Control'
_computing_data_collection       'MSC/AFC Diffractometer Control'
_computing_data_reduction        teXsan
_computing_publication_material  teXsan
_computing_structure_refinement  teXsan
_diffrn_ambient_temperature      123.2
_diffrn_measurement_device       'Nonius KappaCCD diffractometer'
_diffrn_measurement_method       'omega scans with profile analysis'
_diffrn_orient_matrix_UB_11      0.00000
_diffrn_orient_matrix_UB_12      0.00000
_diffrn_orient_matrix_UB_13      0.00000
_diffrn_orient_matrix_UB_21      0.00000
_diffrn_orient_matrix_UB_22      0.00000
_diffrn_orient_matrix_UB_23      0.00000
_diffrn_orient_matrix_UB_31      0.00000
_diffrn_orient_matrix_UB_32      0.00000
_diffrn_orient_matrix_UB_33      0.00000
_diffrn_radiation_detector       CCD
_diffrn_radiation_monochromator  graphite
_diffrn_radiation_source         'X-ray tube'
_diffrn_radiation_type           MoKalpha
_diffrn_radiation_wavelength     0.7107
_diffrn_reflns_av_R_equivalents  0.047
_diffrn_reflns_limit_h_max       0
_diffrn_reflns_limit_h_min       -8
_diffrn_reflns_limit_k_max       7
_diffrn_reflns_limit_k_min       0
_diffrn_reflns_limit_l_max       9
_diffrn_reflns_limit_l_min       0
_diffrn_reflns_number            4200
_diffrn_reflns_theta_max         28.26
_diffrn_standards_decay_%        0.00
_diffrn_standards_interval_count 0
_diffrn_standards_number         0
_exptl_absorpt_coefficient_mu    2.681
_exptl_absorpt_correction_type   none
_exptl_crystal_colour            pink
_exptl_crystal_density_diffrn    2.036
_exptl_crystal_description       acicular
_exptl_crystal_F_000             186.00
_exptl_crystal_size_max          0.100
_exptl_crystal_size_mid          0.030
_exptl_crystal_size_min          0.030
_refine_diff_density_max         0.40
_refine_diff_density_min         -0.45
_refine_ls_extinction_method     none
_refine_ls_goodness_of_fit_obs   2.566
_refine_ls_matrix_type           full
_refine_ls_number_parameters     29
_refine_ls_number_reflns         336
_refine_ls_number_restraints     0
_refine_ls_R_factor_obs          0.0281
_refine_ls_shift/esd_max         0.0000
_refine_ls_structure_factor_coef F
_refine_ls_weighting_scheme      sigma
_refine_ls_wR_factor_obs         0.0285
_reflns_number_observed          336
_reflns_number_total             473
_reflns_observed_criterion       3.00
_cod_data_source_file            808777f.txt
_cod_data_source_block           alphaCo(dca)2
_cod_original_sg_symbol_H-M      'P n n m    '
_cod_original_formula_sum        'C4 Co N6 '
_cod_database_code               7115193
loop_
_symmetry_equiv_pos_as_xyz
'   +x,   +y,   +z'
'   -x,   -y,   +z'
1/2+x,1/2-y,1/2-z
1/2-x,1/2+y,1/2-z
'   -x,   -y,   -z'
'   +x,   +y,   -z'
1/2-x,1/2+y,1/2+z
1/2+x,1/2-y,1/2+z
loop_
_atom_site_aniso_label
_atom_site_aniso_U_11
_atom_site_aniso_U_22
_atom_site_aniso_U_33
_atom_site_aniso_U_12
_atom_site_aniso_U_13
_atom_site_aniso_U_23
Co(1) 0.0101(3) 0.0158(4) 0.0073(3) -0.0003(3) 0.0000 0.0000
N(1) 0.015(1) 0.020(1) 0.010(1) 0.0018(9) -0.0006(8) -0.0015(9)
N(2) 0.015(1) 0.024(2) 0.005(1) -0.008(1) 0.0000 0.0000
C(1) 0.011(1) 0.016(1) 0.017(1) -0.0006(9) -0.0061(9) 0.005(1)
loop_
_atom_site_label
_atom_site_fract_x
_atom_site_fract_y
_atom_site_fract_z
_atom_site_U_iso_or_equiv
_atom_site_thermal_displace_type
Co(1) 0.0000 0.0000 0.0000 0.0111(2) Uij
N(1) -0.0953(3) 0.2089(3) 0.2079(3) 0.0153(6) Uij
N(2) 0.2725(4) 0.1620(5) 0.0000 0.0146(8) Uij
C(1) -0.1519(3) 0.2644(4) 0.3474(4) 0.0147(6) Uij
loop_
_atom_type_symbol
_atom_type_oxidation_number
_atom_type_number_in_cell
_atom_type_scat_dispersion_real
_atom_type_scat_dispersion_imag
_atom_type_scat_source
Co 0 2 0.349 0.972 'International Tables'
C 0 8 0.003 0.002 'International Tables'
N 0 12 0.006 0.003 'International Tables'
loop_
_geom_angle_atom_site_label_1
_geom_angle_atom_site_label_2
_geom_angle_atom_site_label_3
_geom_angle
_geom_angle_publ_flag
N(1) Co(1) N(1) 85.3(1) yes
N(1) Co(1) N(1) 180.0 yes
N(1) Co(1) N(1) 94.7(1) yes
N(1) Co(1) N(2) 91.02(7) yes
N(1) Co(1) N(2) 88.98(7) yes
N(1) Co(1) N(1) 94.7(1) yes
N(1) Co(1) N(1) 180.0 yes
N(1) Co(1) N(2) 88.98(7) yes
N(1) Co(1) N(2) 91.02(7) yes
N(1) Co(1) N(1) 85.3(1) yes
N(1) Co(1) N(2) 88.98(7) yes
N(1) Co(1) N(2) 91.02(7) yes
N(1) Co(1) N(2) 91.02(7) yes
N(1) Co(1) N(2) 88.98(7) yes
N(2) Co(1) N(2) 180.0 yes
Co(1) N(1) C(1) 159.9(2) yes
Co(1) N(2) C(1) 120.6(1) yes
Co(1) N(2) C(1) 120.6(1) yes
C(1) N(2) C(1) 117.1(3) yes
N(1) C(1) N(2) 175.2(3) yes
loop_
_geom_bond_atom_site_label_1
_geom_bond_atom_site_label_2
_geom_bond_distance
_geom_bond_publ_flag
Co(1) N(1) 2.092(2) yes
Co(1) N(1) 2.092(2) yes
Co(1) N(1) 2.092(2) yes
Co(1) N(1) 2.092(2) yes
Co(1) N(2) 2.150(3) yes
Co(1) N(2) 2.150(3) yes
N(1) C(1) 1.155(3) yes
N(2) C(1) 1.324(3) yes
N(2) C(1) 1.324(3) yes
