#------------------------------------------------------------------------------
#$Date: 2019-02-16 01:08:36 +0200 (Sat, 16 Feb 2019) $
#$Revision: 213669 $
#$URL: file:///home/coder/svn-repositories/cod/cif/7/12/29/7122998.cif $
#------------------------------------------------------------------------------
#
# This file is available in the Crystallography Open Database (COD),
# http://www.crystallography.net/
#
# All data on this site have been placed in the public domain by the
# contributors.
#
data_7122998
loop_
_publ_author_name
'Evans, Hayden'
'Deng, Zeyu'
'Collings, Ines'
'Wu, Yue'
'Andrews, Jessica L.'
'Pilar, Kartik'
'Tuffnell, Joshua Mark'
'Wu, Guang'
'Wang, John'
'Dutton, S. E. E.'
'Bristowe, Paul'
'Seshadri, Ram'
'Cheetham, Anthony K.'
_publ_section_title
;
 Polymorphism in M(H2PO2)3 (M = V, Al, Ga) compounds with the
 perovskite-related ReO3 structure.
;
_journal_name_full               'Chemical Communications'
_journal_paper_doi               10.1039/C9CC00118B
_journal_year                    2019
_chemical_formula_sum            'H6 O6 P3 V'
_chemical_formula_weight         245.90
_space_group_crystal_system      monoclinic
_space_group_IT_number           14
_space_group_name_Hall           '-P 2ybc'
_space_group_name_H-M_alt        'P 1 21/c 1'
_symmetry_space_group_name_Hall  '-P 2ybc'
_symmetry_space_group_name_H-M   'P 1 21/c 1'
_atom_sites_solution_hydrogens   difmap
_audit_creation_method           SHELXL-2014/7
_audit_update_record
;
2019-01-03 deposited with the CCDC.
2019-02-06 downloaded from the CCDC.
;
_cell_angle_alpha                90
_cell_angle_beta                 106.29(2)
_cell_angle_gamma                90
_cell_formula_units_Z            4
_cell_length_a                   11.922(8)
_cell_length_b                   7.542(6)
_cell_length_c                   8.860(6)
_cell_measurement_reflns_used    491
_cell_measurement_temperature    273(2)
_cell_measurement_theta_max      16.4
_cell_measurement_theta_min      3.6
_cell_volume                     764.7(10)
_computing_structure_refinement  'SHELXL-2014/7 (Sheldrick, 2014)'
_diffrn_ambient_temperature      273(2)
_diffrn_measured_fraction_theta_full 0.993
_diffrn_measured_fraction_theta_max 0.993
_diffrn_measurement_device_type  'Bruker APEXII'
_diffrn_measurement_method       'omega scan'
_diffrn_radiation_type           MoK\a
_diffrn_radiation_wavelength     0.71073
_diffrn_reflns_av_R_equivalents  0.0636
_diffrn_reflns_av_unetI/netI     0.1312
_diffrn_reflns_Laue_measured_fraction_full 0.993
_diffrn_reflns_Laue_measured_fraction_max 0.993
_diffrn_reflns_number            1215
_diffrn_reflns_point_group_measured_fraction_full 0.993
_diffrn_reflns_point_group_measured_fraction_max 0.993
_diffrn_reflns_theta_full        24.151
_diffrn_reflns_theta_max         24.151
_diffrn_reflns_theta_min         1.780
_exptl_absorpt_coefficient_mu    1.898
_exptl_absorpt_correction_T_max  0.745019
_exptl_absorpt_correction_T_min  0.574231
_exptl_absorpt_correction_type   multi-scan
_exptl_absorpt_process_details   twinabs
_exptl_crystal_colour            green
_exptl_crystal_density_diffrn    2.136
_exptl_crystal_description       sheet
_exptl_crystal_F_000             488
_refine_diff_density_max         1.423
_refine_diff_density_min         -1.600
_refine_diff_density_rms         0.315
_refine_ls_extinction_method     none
_refine_ls_goodness_of_fit_ref   1.095
_refine_ls_hydrogen_treatment    refall
_refine_ls_matrix_type           full
_refine_ls_number_parameters     95
_refine_ls_number_reflns         1215
_refine_ls_number_restraints     34
_refine_ls_restrained_S_all      1.079
_refine_ls_R_factor_all          0.2330
_refine_ls_R_factor_gt           0.1509
_refine_ls_shift/su_max          0.054
_refine_ls_shift/su_mean         0.004
_refine_ls_structure_factor_coef Fsqd
_refine_ls_weighting_details
'w=1/[\s^2^(Fo^2^)+(0.1327P)^2^+80.3330P] where P=(Fo^2^+2Fc^2^)/3'
_refine_ls_weighting_scheme      calc
_refine_ls_wR_factor_gt          0.3856
_refine_ls_wR_factor_ref         0.4204
_reflns_Friedel_coverage         0.000
_reflns_number_gt                691
_reflns_number_total             1215
_reflns_threshold_expression     'I > 2\s(I)'
_cod_data_source_file            c9cc00118b5.cif
_cod_data_source_block           twin_file_a
_cod_database_code               7122998
_shelx_shelxl_version_number     2014/7
_shelx_space_group_comment
;
The symmetry employed for this shelxl refinement is uniquely defined
by the following loop, which should always be used as a source of
symmetry information in preference to the above space-group names.
They are only intended as comments.
;
_shelx_res_file
;

    twin_file_a.res created by SHELXL-2014/7

TITL twin_file_a.res in P2(1)/c
CELL  0.71073  11.9219   7.5424   8.8599   90.000  106.294   90.000
ZERR    4.000   0.0084   0.0055   0.0064    0.000    0.020    0.000
LATT 1
SYMM -X, 1/2+Y, 1/2-Z
SFAC O  H  P  V
UNIT 24  24  12  4
L.S. 10
ACTA
BOND $H
FMAP 2
PLAN 20
eadp H1 H2 H3 H4 H5 H6
sadi .001 P1 H1 P1 H2 P2 H3 P2 H4 P3 H5 P3 H6
sadi .001 H5 O009 H6 O009 H4 O00B H3 O00B H2 O006 H1 O006
sadi .001 H2 H1 H3 H4 H5 H6
eadp O006 O009 O00B O00A
DFIX 1.3 .01 P3 H5
TEMP 0.000
WGHT    0.132700   80.333000
FVAR       0.70030
V001  4    1.000000    0.500000    0.500000    10.50000    0.04384    0.02152 =
         0.02404    0.00384    0.01989   -0.00160
V002  4    0.500000    0.500000    0.500000    10.50000    0.02856    0.02580 =
         0.02905    0.00638    0.01348   -0.00129
P1    3    0.931812    0.644664    0.795474    11.00000    0.04244    0.02473 =
         0.03103   -0.00179    0.02024   -0.00103
H2    2    0.851202    0.714392    0.680178    11.00000    0.08216
H1    2    0.893789    0.508820    0.857142    11.00000    0.08216
P3    3    0.401656    0.343753    0.150418    11.00000    0.04011    0.03990 =
         0.02344   -0.00790    0.01010    0.00599
H6    2    0.297298    0.334808    0.053225    11.00000    0.08216
H5    2    0.464778    0.467334    0.112196    11.00000    0.08216
P2    3    0.733270    0.354769    0.414705    11.00000    0.04236    0.05168 =
         0.08759   -0.03699    0.03290   -0.01528
H4    2    0.704102    0.353514    0.261761    11.00000    0.08216
H3    2    0.802165    0.223852    0.475730    11.00000    0.08216
O006  1    1.025717    0.572851    0.722963    11.00000    0.04251    0.07409 =
         0.07441   -0.01126    0.01847    0.00248
O007  1    0.830883    0.488848    0.465302    11.00000    0.05080    0.03669 =
         0.05868   -0.00476    0.00417   -0.00334
O008  1    0.988221    0.741157    0.945918    11.00000    0.06340    0.02173 =
         0.04600   -0.00935    0.02213    0.00110
O009  1    0.389481    0.386493    0.311060    11.00000    0.04251    0.07409 =
         0.07441   -0.01126    0.01847    0.00248
O00A  1    0.463026    0.179607    0.146316    11.00000    0.04251    0.07409 =
         0.07441   -0.01126    0.01847    0.00248
O00B  1    0.633548    0.365258    0.474815    11.00000    0.04251    0.07409 =
         0.07441   -0.01126    0.01847    0.00248
HKLF 4

REM  twin_file_a.res in P2(1)/c
REM R1 =  0.1509 for     691 Fo > 4sig(Fo)  and  0.2330 for all    1215 data
REM     95 parameters refined using     34 restraints

END

WGHT      0.1201     83.9372

REM Highest difference peak  1.423,  deepest hole -1.600,  1-sigma level  0.315
Q1    1   0.5667  0.3316  0.5679  11.00000  0.05    1.42
Q2    1   1.0025  0.4953  0.8611  11.00000  0.05    1.41
Q3    1   0.6329  0.4070  0.3832  11.00000  0.05    1.27
Q4    1   0.5012  0.4905  0.1406  11.00000  0.05    1.20
Q5    1   0.4166  0.0854  0.1716  11.00000  0.05    1.03
Q6    1   0.9803  0.5122  0.3798  11.00000  0.05    0.96
Q7    1   0.5562  0.3201  0.3029  11.00000  0.05    0.96
Q8    1   0.8219  0.2860  0.3667  11.00000  0.05    0.93
Q9    1   0.9147  0.4902  0.9142  11.00000  0.05    0.89
Q10   1   0.4202  0.6362  0.1635  11.00000  0.05    0.87
Q11   1   0.8642  0.5142  0.6513  11.00000  0.05    0.86
Q12   1   0.4895  0.2690  0.0607  11.00000  0.05    0.85
Q13   1   0.9047  0.3518  0.4951  11.00000  0.05    0.82
Q14   1   0.3445  0.3920  0.1536  11.00000  0.05    0.79
Q15   1   0.9524  0.5022  0.6791  11.00000  0.05    0.79
Q16   1   0.7406  0.1496  0.5322  11.00000  0.05    0.77
Q17   1   0.3174  0.2750  0.1918  11.00000  0.05    0.76
Q18   1   0.8975  0.5138  0.4426  11.00000  0.05    0.75
Q19   1   0.6995  0.5013  0.5254  11.00000  0.05    0.75
Q20   1   0.8792  0.6566  0.4747  11.00000  0.05    0.74
;
_shelx_res_checksum              68916
_shelx_hkl_file
;
   0   0   1    7.70    6.80
   0   0   2 2116.09   32.80
   0   0   3   25.70   16.30
   0   0   4  947.31   50.59
   0   0   5   65.79   51.59
   0   0   6 1546.65   57.79
   0   0   7   49.60   43.80
   0   0   8  334.87   83.39
   0   0   9   25.90  134.99
   0  -1   0    7.30    9.00
   0  -1   1 9999.00   79.59
   0  -1   2 1063.19   17.00
   0  -1   3 4847.81   56.49
   0  -1   4  526.35   23.50
   0  -1   5 1132.49   35.80
   0  -1   6   24.90   15.70
   0  -1   7  432.06   52.89
   0  -1   8  111.89   59.69
   0  -1   9  451.05   94.49
   0  -2   0  630.44   25.70
   0  -2   1 9701.53   83.79
   0  -2   2 1556.04   20.30
   0  -2   3   40.70   16.90
   0  -2   4 1451.95   43.30
   0  -2   5   32.30   30.10
   0  -2   6  677.73   25.50
   0  -2   7  259.57   60.39
   0  -2   8  362.86   55.09
   0  -2   9   35.20   82.99
   0  -3   0   11.50   15.40
   0  -3   1 1942.21   31.40
   0  -3   2  575.04   17.20
   0  -3   3  346.67   17.80
   0  -3   4  157.28   23.10
   0  -3   5 2865.11   88.89
   0  -3   6   43.10   24.70
   0  -3   7  667.63   63.59
   0  -3   8   49.90   48.40
   0  -3   9  188.28   98.29
   0  -4   0   72.39   22.80
   0  -4   1   59.49   23.90
   0  -4   2 4370.46   62.49
   0  -4   3   86.29   32.10
   0  -4   4 1167.38   46.50
   0  -4   5   44.90   46.00
   0  -4   6  164.88   27.30
   0  -4   7   10.60   65.49
   0  -4   8  252.87   59.19
   0  -5   0    8.70   29.30
   0  -5   1 1099.69   46.00
   0  -5   2  164.58   23.20
   0  -5   3 1219.68   56.79
   0  -5   4  794.12   46.80
   0  -5   5  549.05   64.39
   0  -5   6   34.20   30.30
   0  -5   7  258.27   85.69
   0  -6   0 3022.30  146.99
   0  -6   1  490.05   60.89
   0  -6   2  498.85   32.70
   0  -6   3   33.90   54.19
   0  -6   4  537.45   45.50
   0  -6   5  181.28   68.69
   0  -6   6  501.85   51.89
   0  -6   7    0.00   90.89
   0  -7   0    0.00   67.89
   0  -7   1  529.25   88.59
   0  -7   2   85.79   36.20
   0  -7   3 1999.60  104.29
   0  -7   4   80.59   48.80
   0  -7   5    0.00   75.79
   0  -8   0  887.11  139.29
   0  -8   1   90.19   94.29
   0  -8   2  260.87   46.20
   0  -8   3  227.78  117.19
   1   0  -9   37.40  134.29
   1   0  -8   82.99   68.49
   1   0  -7   22.70   73.49
   1   0  -6  321.47   28.40
   1   0  -5   39.30   35.10
   1   0  -4 2852.41  103.69
   1   0  -3    5.80   17.20
   1   0  -2 3022.10   47.40
   1   0  -1    7.20    8.40
   1   0   0   11.50    9.50
   1   0   1   14.20   10.70
   1   0   2 5836.92   71.59
   1   0   3   15.80   16.50
   1   0   4  781.42   45.50
   1   0   5    0.00   44.70
   1   0   6  455.55   36.60
   1   0   7    0.00   72.59
   1   0   8  159.08   95.39
   1   0   9   11.90  138.59
   1  -1  -9    0.00   84.59
   1  -1  -8  181.18   54.59
   1  -1  -7  132.79   46.00
   1  -1  -6  150.58   19.40
   1  -1  -5   61.49   20.50
   1  -1  -4  181.78   20.30
   1  -1  -3 1544.15   26.60
   1  -1  -2 1295.67   19.20
   1  -1  -1  113.19    8.70
   1  -1   0    3.00    8.00
   1  -1   1   36.20    8.10
   1  -1   2 1770.82   22.30
   1  -1   3  303.97   16.10
   1  -1   4   21.10   20.20
   1  -1   5  561.74   35.10
   1  -1   6 1740.03   37.70
   1  -1   7  307.97   62.79
   1  -1   8  216.98   59.29
   1  -1   9  222.68   93.79
   1  -2  -9   69.39   90.39
   1  -2  -8    0.00   42.00
   1  -2  -7  132.59   49.00
   1  -2  -6   92.19   20.20
   1  -2  -5  567.14   46.50
   1  -2  -4  676.23   32.30
   1  -2  -3  569.54   19.20
   1  -2  -2  342.57   11.90
   1  -2  -1 1416.96   22.10
   1  -2   0  247.18   14.20
   1  -2   1 3556.14   36.00
   1  -2   2   27.60    9.90
   1  -2   3 1027.10   26.40
   1  -2   4  355.46   26.90
   1  -2   5   89.49   42.40
   1  -2   6   36.90   20.00
   1  -2   7    0.00   58.29
   1  -2   8   67.09   48.70
   1  -2   9    0.00   95.49
   1  -3  -9    0.00   83.39
   1  -3  -8   57.29   44.90
   1  -3  -7   67.29   57.09
   1  -3  -6   81.89   21.70
   1  -3  -5  106.79   28.10
   1  -3  -4  140.09   20.10
   1  -3  -3  310.47   23.30
   1  -3  -2  286.17   15.10
   1  -3  -1 1335.47   26.60
   1  -3   0   65.19   12.20
   1  -3   1  112.39   14.70
   1  -3   2  160.08   14.30
   1  -3   3  285.27   32.20
   1  -3   4   83.59   25.10
   1  -3   5  743.63   48.10
   1  -3   6   37.40   24.60
   1  -3   7  542.35   69.89
   1  -3   8   61.39   54.89
   1  -4  -8   78.29   54.49
   1  -4  -7   63.59   68.59
   1  -4  -6  162.98   26.70
   1  -4  -5   12.70   31.10
   1  -4  -4  685.23   33.70
   1  -4  -3   49.40   29.40
   1  -4  -2   36.00   15.50
   1  -4  -1  226.58   26.00
   1  -4   0  542.35   28.40
   1  -4   1   91.79   34.10
   1  -4   2 1634.24   36.30
   1  -4   3    0.00   30.90
   1  -4   4  653.33   46.30
   1  -4   5   60.59   45.60
   1  -4   6   28.50   26.90
   1  -4   7    0.00   70.39
   1  -4   8   48.30   56.39
   1  -5  -8  185.68   57.79
   1  -5  -7    0.00   80.29
   1  -5  -6   15.30   31.60
   1  -5  -5  123.19   56.19
   1  -5  -4  554.64   39.60
   1  -5  -3   75.69   46.70
   1  -5  -2  220.78   25.30
   1  -5  -1   58.39   35.40
   1  -5   0   11.30   23.40
   1  -5   1   77.49   49.00
   1  -5   2  577.44   25.60
   1  -5   3    9.00   36.40
   1  -5   4  193.18   41.80
   1  -5   5    0.00   58.09
   1  -5   6  756.42   43.70
   1  -5   7    0.00   82.49
   1  -6  -7  143.29   88.89
   1  -6  -6   32.30   37.70
   1  -6  -5  157.08   71.59
   1  -6  -4  168.48   40.10
   1  -6  -3   24.10   53.69
   1  -6  -2  135.09   27.10
   1  -6  -1   36.50   60.89
   1  -6   0  184.18   52.49
   1  -6   1  185.78   55.19
   1  -6   2  465.45   31.00
   1  -6   3  209.68   55.89
   1  -6   4  130.59   42.20
   1  -6   5   40.40   59.39
   1  -6   6   74.99   41.30
   1  -7  -5   56.89   75.89
   1  -7  -4   60.09   44.30
   1  -7  -3  227.18   62.49
   1  -7  -2   35.90   32.60
   1  -7  -1   60.59   88.69
   1  -7   0    6.10   48.80
   1  -7   1   16.40   83.19
   1  -7   2  221.08   37.50
   1  -7   3   55.99   74.59
   1  -7   4   40.70   44.40
   1  -7   5  188.28   84.39
   1  -8  -3   59.29  107.49
   1  -8  -2   40.50   45.10
   1  -8  -1  159.78   94.19
   1  -8   0  113.59   64.39
   1  -8   1    0.60   95.59
   1  -8   2   30.10   45.70
   1  -8   3   19.60   96.89
   2   0 -10  260.77   84.79
   2   0  -9    0.00  114.29
   2   0  -8    0.00   58.59
   2   0  -7    0.70   87.99
   2   0  -6 7081.59  145.49
   2   0  -5   27.90   51.59
   2   0  -4 3283.37  102.99
   2   0  -3   27.20   16.30
   2   0  -2  284.37   14.10
   2   0  -1   11.70   10.20
   2   0   0 9894.81  249.58
   2   0   1   20.90   12.80
   2   0   2  181.28   13.40
   2   0   3   25.20   22.00
   2   0   4 1510.15   53.89
   2   0   5    9.00   48.60
   2   0   6   44.20   24.80
   2   0   7   10.20   93.19
   2   0   8  681.13  125.89
   2   0   9   13.90  181.28
   2  -1 -10  155.28   57.89
   2  -1  -9  858.41   78.79
   2  -1  -8   98.49   40.60
   2  -1  -7 1160.28   54.49
   2  -1  -6  452.25   22.70
   2  -1  -5 1323.77   41.80
   2  -1  -4  211.18   20.20
   2  -1  -3 2358.36   37.00
   2  -1  -2 1985.00   24.20
   2  -1  -1 1259.67   17.30
   2  -1   0   20.40    9.30
   2  -1   1  263.07   11.70
   2  -1   2 3858.11   38.00
   2  -1   3 1089.49   23.40
   2  -1   4  532.25   28.10
   2  -1   5 1739.93   69.39
   2  -1   6   85.59   22.20
   2  -1   7  169.38   60.29
   2  -1   8   26.70   56.89
   2  -1   9   88.69  127.99
   2  -2  -9   80.29   66.99
   2  -2  -8  789.72   57.39
   2  -2  -7  837.32   52.99
   2  -2  -6  560.14   21.90
   2  -2  -5  794.32   39.10
   2  -2  -4 1150.08   32.30
   2  -2  -3  690.23   19.40
   2  -2  -2 2153.28   26.70
   2  -2  -1 1449.06   22.80
   2  -2   0  787.52   24.00
   2  -2   1   29.80   11.70
   2  -2   2  187.28   11.30
   2  -2   3 2347.36   38.70
   2  -2   4  814.32   34.90
   2  -2   5  350.46   39.50
   2  -2   6  442.76   26.90
   2  -2   7  126.99   64.79
   2  -2   8  112.89   57.99
   2  -3  -9  176.68   82.29
   2  -3  -8   75.09   43.60
   2  -3  -7   27.30   56.99
   2  -3  -6   35.20   21.50
   2  -3  -5 3636.04   98.59
   2  -3  -4  132.39   20.00
   2  -3  -3  555.04   20.00
   2  -3  -2   70.49   12.80
   2  -3  -1 3515.75   45.70
   2  -3   0   44.30   18.00
   2  -3   1 2886.41   55.09
   2  -3   2   22.70   13.00
   2  -3   3  823.12   38.90
   2  -3   4    0.00   24.20
   2  -3   5   66.49   46.50
   2  -3   6  174.08   26.80
   2  -3   7   19.00   68.59
   2  -3   8   48.50   54.49
   2  -4  -8  750.02   67.79
   2  -4  -7  270.97   71.19
   2  -4  -6   56.29   25.30
   2  -4  -5   51.69   32.80
   2  -4  -4  948.91   34.10
   2  -4  -3   96.49   27.40
   2  -4  -2 5181.08   71.89
   2  -4  -1   55.19   35.10
   2  -4   0 1439.96   51.49
   2  -4   1  267.07   46.30
   2  -4   2 2171.58   44.20
   2  -4   3   36.20   34.70
   2  -4   4  164.88   35.10
   2  -4   5  114.09   54.29
   2  -4   6  404.76   37.60
   2  -4   7   20.60   79.09
   2  -4   8  137.69   64.49
   2  -5  -8   37.50   57.49
   2  -5  -7  389.56   80.99
   2  -5  -6  181.88   34.80
   2  -5  -5  319.77   63.09
   2  -5  -4  767.42   39.80
   2  -5  -3  899.21   57.89
   2  -5  -2  344.97   22.80
   2  -5  -1  915.71   50.69
   2  -5   0   23.10   25.40
   2  -5   1  569.74   54.09
   2  -5   2  317.87   25.40
   2  -5   3  121.19   42.00
   2  -5   4   30.10   39.20
   2  -5   5   39.30   66.19
   2  -5   6   23.90   32.00
   2  -5   7  227.38   86.49
   2  -6  -7   29.40   84.29
   2  -6  -6 1254.97   66.99
   2  -6  -5  218.18   75.09
   2  -6  -4  247.08   39.30
   2  -6  -3   82.69   54.29
   2  -6  -2   47.30   26.60
   2  -6  -1    0.00   55.99
   2  -6   0  310.97   50.29
   2  -6   1   50.59   54.79
   2  -6   2  170.08   28.40
   2  -6   3  296.27   62.29
   2  -6   4   61.69   40.20
   2  -6   5   14.90   68.39
   2  -6   6  192.28   43.80
   2  -7  -5   59.09   79.29
   2  -7  -4   87.89   44.40
   2  -7  -3 1416.96  101.99
   2  -7  -2   58.09   32.50
   2  -7  -1   55.09   83.39
   2  -7   0   60.69   50.99
   2  -7   1  255.97   90.89
   2  -7   2   34.40   31.00
   2  -7   3  346.17   79.69
   2  -7   4   23.70   49.70
   2  -7   5  360.36   78.89
   2  -8  -3   50.59  115.29
   2  -8  -2  367.36   50.99
   2  -8  -1  281.57   95.89
   2  -8   0  312.97   72.09
   2  -8   1    0.00   96.09
   2  -8   2  125.09   49.20
   3   0 -10   67.59   71.69
   3   0  -9    0.00   91.89
   3   0  -8   37.30   58.59
   3   0  -7   28.10   86.49
   3   0  -6   92.39   24.80
   3   0  -5   10.00   26.80
   3   0  -4 1091.99   51.39
   3   0  -3   16.30   19.10
   3   0  -2  120.89   13.90
   3   0  -1   14.80   12.50
   3   0   0 2192.58   57.59
   3   0   1   15.90   21.20
   3   0   2 1441.96   30.20
   3   0   3   11.50   19.50
   3   0   4 1743.93   65.89
   3   0   5   74.19   47.40
   3   0   6   25.40   26.10
   3   0   7  118.39   97.59
   3   0   8   86.59  131.99
   3  -1 -10   52.69   50.59
   3  -1  -9  101.39   79.79
   3  -1  -8  200.68   40.00
   3  -1  -7  449.46   50.99
   3  -1  -6   22.80   19.00
   3  -1  -5  149.99   21.30
   3  -1  -4  520.95   23.70
   3  -1  -3  287.37   16.00
   3  -1  -2  500.15   12.60
   3  -1  -1 2217.38   25.70
   3  -1   0 7021.70  116.19
   3  -1   1 1138.39   31.00
   3  -1   2  502.65   13.40
   3  -1   3   35.80   18.50
   3  -1   4  809.22   33.80
   3  -1   5  108.39   34.80
   3  -1   6  168.98   21.90
   3  -1   7    1.70   66.09
   3  -1   8   55.29   73.59
   3  -2  -9    0.00   67.79
   3  -2  -8   16.80   39.00
   3  -2  -7  185.88   52.39
   3  -2  -6   40.40   17.90
   3  -2  -5  763.82   46.00
   3  -2  -4 1570.54   42.90
   3  -2  -3  382.86   21.80
   3  -2  -2 1930.51   24.30
   3  -2  -1 1571.34   23.70
   3  -2   0  351.16   17.10
   3  -2   1 1603.24   36.00
   3  -2   2  398.66   16.10
   3  -2   3  326.27   29.20
   3  -2   4  902.91   43.10
   3  -2   5  382.26   49.40
   3  -2   6   29.10   23.80
   3  -2   7  290.97   64.99
   3  -2   8  144.89   65.29
   3  -3  -9   33.10   63.99
   3  -3  -8   73.69   43.30
   3  -3  -7  181.68   55.49
   3  -3  -6  218.48   23.00
   3  -3  -5   40.30   27.30
   3  -3  -4  104.49   22.60
   3  -3  -3  600.24   34.10
   3  -3  -2   20.20   13.60
   3  -3  -1 1292.77   41.30
   3  -3   0  262.97   21.20
   3  -3   1 2936.31   50.79
   3  -3   2  534.35   20.70
   3  -3   3  659.23   39.00
   3  -3   4   42.40   26.00
   3  -3   5  104.79   38.80
   3  -3   6   35.60   25.70
   3  -3   7    0.00   88.29
   3  -3   8    2.00   71.19
   3  -4  -9  121.29  110.69
   3  -4  -8   37.90   50.09
   3  -4  -7   72.39   56.19
   3  -4  -6   86.69   26.80
   3  -4  -5  396.66   41.90
   3  -4  -4 1203.38   46.30
   3  -4  -3  805.22   39.00
   3  -4  -2   41.90   17.40
   3  -4  -1    6.50   47.10
   3  -4   0  737.03   49.50
   3  -4   1  255.17   53.29
   3  -4   2   76.49   16.30
   3  -4   3    5.10   51.09
   3  -4   4  545.15   46.60
   3  -4   5    4.70   66.99
   3  -4   6   23.70   32.60
   3  -4   7    2.40   81.49
   3  -5  -8   12.00   52.19
   3  -5  -7  267.17   80.99
   3  -5  -6   11.60   31.20
   3  -5  -5   53.89   55.29
   3  -5  -4  753.22   46.90
   3  -5  -3    8.00   38.10
   3  -5  -2  354.66   23.50
   3  -5  -1  211.58   55.19
   3  -5   0 2066.69   87.99
   3  -5   1  316.97   57.09
   3  -5   2  232.08   27.30
   3  -5   3   70.49   42.40
   3  -5   4  466.35   50.59
   3  -5   5    0.00   67.99
   3  -5   6   23.10   33.00
   3  -5   7   86.09   96.79
   3  -6  -7   67.89   85.09
   3  -6  -6   83.29   43.20
   3  -6  -5  251.57   72.49
   3  -6  -4  348.77   44.40
   3  -6  -3   38.70   56.99
   3  -6  -2   92.19   25.80
   3  -6  -1    0.00   55.99
   3  -6   0   36.50   38.00
   3  -6   1  175.38   77.89
   3  -6   2  133.39   28.10
   3  -6   3  108.99   57.89
   3  -6   4  152.18   43.30
   3  -6   5  201.18   70.59
   3  -6   6   33.40   36.50
   3  -7  -5    1.60   76.49
   3  -7  -4   76.79   48.10
   3  -7  -3    0.00   72.89
   3  -7  -2   54.19   32.20
   3  -7  -1  439.06   90.99
   3  -7   0   55.79   44.40
   3  -7   1  539.95   87.79
   3  -7   2   28.90   34.20
   3  -7   3    0.00   77.69
   3  -7   4   56.19   49.40
   3  -8  -3  199.48   98.69
   3  -8  -2   52.59   49.30
   3  -8  -1  204.78   96.29
   3  -8   0    3.10   57.59
   3  -8   1   26.40  108.09
   3  -8   2   44.10   45.20
   4   0 -10  265.47   77.99
   4   0  -9  119.59   92.29
   4   0  -8   77.29   58.99
   4   0  -7  113.59   74.79
   4   0  -6  763.52   34.20
   4   0  -5    0.00   53.19
   4   0  -4  806.52   45.80
   4   0  -3   15.60   21.00
   4   0  -2 4297.77   54.69
   4   0  -1   16.70   26.40
   4   0   0 2035.90   55.69
   4   0   1   39.50   38.10
   4   0   2 2191.58   45.00
   4   0   3    0.00   38.80
   4   0   4 1101.59   57.09
   4   0   5    2.00   39.80
   4   0   6  468.95   36.80
   4   0   7    0.00  123.09
   4   0   8  802.92  170.48
   4  -1 -10  219.48   50.49
   4  -1  -9  711.63   79.89
   4  -1  -8   54.29   40.90
   4  -1  -7  207.38   45.90
   4  -1  -6  265.77   19.80
   4  -1  -5  223.58   34.10
   4  -1  -4  144.49   20.20
   4  -1  -3  595.14   19.90
   4  -1  -2   48.50    8.90
   4  -1  -1 2514.05   36.40
   4  -1   0  150.68   12.80
   4  -1   1 1875.91   33.60
   4  -1   2  129.79   11.60
   4  -1   3  161.48   30.40
   4  -1   4  243.58   25.90
   4  -1   5  349.96   61.39
   4  -1   6   19.30   21.70
   4  -1   7  472.85   83.69
   4  -1   8   80.49   71.29
   4  -2  -9  267.27   69.39
   4  -2  -8  869.81   55.89
   4  -2  -7  129.19   48.40
   4  -2  -6  617.24   26.00
   4  -2  -5   24.40   29.50
   4  -2  -4  427.96   26.50
   4  -2  -3  738.63   24.50
   4  -2  -2  176.38   12.50
   4  -2  -1 1029.40   31.30
   4  -2   0  600.94   28.30
   4  -2   1   86.19   28.20
   4  -2   2  304.47   14.90
   4  -2   3    0.00   29.70
   4  -2   4  680.23   39.20
   4  -2   5  941.41   53.29
   4  -2   6 1106.29   40.60
   4  -2   7  163.68   81.89
   4  -2   8  154.78   69.29
   4  -3  -9  114.19   63.99
   4  -3  -8   15.60   43.30
   4  -3  -7  388.26   55.49
   4  -3  -6   35.40   23.70
   4  -3  -5 2392.86   85.99
   4  -3  -4  145.39   24.20
   4  -3  -3  973.10   41.10
   4  -3  -2  135.19   16.50
   4  -3  -1  681.13   36.70
   4  -3   0   79.39   21.10
   4  -3   1   74.59   31.90
   4  -3   2  159.08   14.80
   4  -3   3 3671.63   92.99
   4  -3   4   47.10   30.70
   4  -3   5  658.93   57.59
   4  -3   6   50.09   26.30
   4  -3   7   69.39   84.59
   4  -4  -9    1.80  110.99
   4  -4  -8  955.50   68.09
   4  -4  -7  104.69   68.89
   4  -4  -6  263.27   27.70
   4  -4  -5   92.49   44.90
   4  -4  -4  765.32   45.20
   4  -4  -3  100.19   34.80
   4  -4  -2  374.66   22.90
   4  -4  -1  242.38   52.79
   4  -4   0 2204.68   71.39
   4  -4   1   14.00   40.00
   4  -4   2  908.11   28.50
   4  -4   3   27.90   53.69
   4  -4   4  446.96   46.90
   4  -4   5  291.37   69.19
   4  -4   6 1135.29   54.89
   4  -4   7    0.00   94.99
   4  -5  -8    0.00   57.99
   4  -5  -7  352.96   80.09
   4  -5  -6  101.89   32.60
   4  -5  -5  517.65   64.59
   4  -5  -4  575.44   41.60
   4  -5  -3  247.48   43.80
   4  -5  -2   44.80   21.90
   4  -5  -1  672.33   58.19
   4  -5   0   43.10   33.30
   4  -5   1 1006.00   64.89
   4  -5   2 1194.88   38.50
   4  -5   3  304.57   66.59
   4  -5   4   19.00   42.80
   4  -5   5  363.26   78.59
   4  -5   6   52.99   34.40
   4  -6  -7    0.00   90.89
   4  -6  -6  192.98   41.90
   4  -6  -5    0.00   69.79
   4  -6  -4  250.67   41.90
   4  -6  -3   55.09   62.49
   4  -6  -2  401.76   32.70
   4  -6  -1    3.10   80.19
   4  -6   0  102.49   39.80
   4  -6   1    0.00   74.29
   4  -6   2  656.73   36.70
   4  -6   3   24.10   64.99
   4  -6   4   62.69   51.29
   4  -6   5  119.29   81.59
   4  -7  -5   34.70   76.19
   4  -7  -4    0.00   43.40
   4  -7  -3  490.75   78.49
   4  -7  -2   67.79   32.10
   4  -7  -1  314.17   88.39
   4  -7   0    9.70   42.80
   4  -7   1  844.92   89.89
   4  -7   2    1.10   37.70
   4  -7   3   37.50   71.49
   4  -7   4   23.30   48.40
   4  -8  -3   65.19   40.40
   4  -8  -2  470.15   54.89
   4  -8  -1   78.39  105.29
   4  -8   0  209.98   65.89
   4  -8   1  102.99  103.99
   5   0 -10  287.97   80.09
   5   0  -9  192.78  110.99
   5   0  -8  192.88   68.29
   5   0  -7   40.00   42.90
   5   0  -6 1136.69   49.60
   5   0  -5   27.60   44.40
   5   0  -4 1411.06   53.69
   5   0  -3    6.70   22.00
   5   0  -2 1851.01   40.00
   5   0  -1    0.00   36.70
   5   0   0 1410.56   59.59
   5   0   1   26.60   45.90
   5   0   2  989.30   33.80
   5   0   3   63.89   63.99
   5   0   4  387.96   43.30
   5   0   5   58.59   85.89
   5   0   6    0.00   38.50
   5   0   7   23.90  150.98
   5   0   8  111.09  141.39
   5  -1 -10   54.69   49.80
   5  -1  -9   79.89   76.69
   5  -1  -8  229.78   52.79
   5  -1  -7  663.33   61.39
   5  -1  -6  764.42   26.90
   5  -1  -5  439.16   34.50
   5  -1  -4  582.44   28.30
   5  -1  -3   61.69   17.30
   5  -1  -2  365.76   13.40
   5  -1  -1  122.39   25.30
   5  -1   0  220.08   17.40
   5  -1   1   36.00   23.20
   5  -1   2   34.20   12.70
   5  -1   3    0.00   26.50
   5  -1   4  163.88   23.00
   5  -1   5  300.37   57.29
   5  -1   6   46.60   27.30
   5  -1   7    0.00   79.49
   5  -2  -9    6.20   66.89
   5  -2  -8   95.79   37.80
   5  -2  -7  608.44   58.59
   5  -2  -6  237.38   23.40
   5  -2  -5  620.74   40.90
   5  -2  -4  812.82   33.60
   5  -2  -3  408.76   30.70
   5  -2  -2  434.76   16.80
   5  -2  -1   17.50   27.90
   5  -2   0   32.90   15.00
   5  -2   1  425.36   47.00
   5  -2   2   53.29   13.90
   5  -2   3   18.80   33.20
   5  -2   4  320.67   34.60
   5  -2   5  174.98   53.79
   5  -2   6   64.19   29.70
   5  -2   7   28.30   92.49
   5  -3  -9   10.50   84.09
   5  -3  -8    7.60   44.50
   5  -3  -7  331.37   61.29
   5  -3  -6  745.63   34.80
   5  -3  -5  386.26   46.50
   5  -3  -4   87.19   23.50
   5  -3  -3 1333.57   39.50
   5  -3  -2   16.20   13.90
   5  -3  -1  505.75   33.30
   5  -3   0   11.80   21.00
   5  -3   1    0.00   83.99
   5  -3   2   22.10   14.90
   5  -3   3  154.98   50.79
   5  -3   4    1.70   41.00
   5  -3   5    0.00   64.29
   5  -3   6   62.49   33.10
   5  -3   7  114.59   89.49
   5  -4  -8   55.39   55.19
   5  -4  -7  218.78   65.09
   5  -4  -6  375.46   30.80
   5  -4  -5  224.08   43.70
   5  -4  -4  245.28   34.40
   5  -4  -3   68.89   50.69
   5  -4  -2  100.99   16.10
   5  -4  -1   71.59   39.50
   5  -4   0    8.70   21.50
   5  -4   1  178.78   48.10
   5  -4   2  498.45   23.80
   5  -4   3  136.09   59.99
   5  -4   4  218.48   43.00
   5  -4   5  123.79   76.59
   5  -4   6   26.10   35.40
   5  -5  -8   82.79   57.69
   5  -5  -7  131.49   86.29
   5  -5  -6  596.84   40.20
   5  -5  -5   93.29   58.39
   5  -5  -4  130.79   38.50
   5  -5  -3   33.50   41.50
   5  -5  -2 1083.69   39.30
   5  -5  -1    0.00   65.09
   5  -5   0   27.50   27.80
   5  -5   1    0.00   59.19
   5  -5   2   64.79   26.90
   5  -5   3    0.00   67.79
   5  -5   4   84.79   43.80
   5  -5   5  158.38   85.49
   5  -5   6   27.10   40.50
   5  -6  -7  127.69   81.89
   5  -6  -6  171.88   44.80
   5  -6  -5   65.29   60.49
   5  -6  -4  107.99   40.10
   5  -6  -3    7.80   59.29
   5  -6  -2   96.79   28.00
   5  -6  -1  195.78   75.19
   5  -6   0   35.10   29.80
   5  -6   1   39.50   80.59
   5  -6   2   26.40   31.00
   5  -6   3  111.89   69.19
   5  -6   4   80.99   53.79
   5  -6   5   86.89   48.50
   5  -7  -5   40.70   86.59
   5  -7  -4   14.80   49.90
   5  -7  -3  344.87   76.99
   5  -7  -2   27.60   35.60
   5  -7  -1  188.58   90.89
   5  -7   0   35.90   32.10
   5  -7   1    0.00   83.49
   5  -7   2   49.90   36.30
   5  -7   3  102.49   80.69
   5  -8  -2  179.18   66.59
   5  -8  -1    4.00  100.59
   6   0 -10  323.47   84.79
   6   0  -9   56.19  126.79
   6   0  -8  670.13   82.89
   6   0  -7   26.20   74.99
   6   0  -6 1170.48   50.59
   6   0  -5   39.20   48.80
   6   0  -4 1948.80   64.49
   6   0  -3   49.99   40.00
   6   0  -2 4375.86   75.79
   6   0  -1   26.30   43.50
   6   0   0   83.99   34.20
   6   0   1   75.09   44.30
   6   0   2 2174.68   58.59
   6   0   3   49.20   75.59
   6   0   4 1421.26   91.19
   6   0   5    0.00   90.09
   6   0   6   24.20   48.30
   6   0   7   87.39  139.39
   6  -1  -9  706.83   82.39
   6  -1  -8   37.40   55.99
   6  -1  -7  465.05   62.99
   6  -1  -6   30.70   17.80
   6  -1  -5 4114.19   79.19
   6  -1  -4 1040.40   33.90
   6  -1  -3  757.72   31.00
   6  -1  -2   86.29   12.60
   6  -1  -1 1015.10   29.60
   6  -1   0  301.27   21.60
   6  -1   1 3007.30   58.99
   6  -1   2   80.49   18.00
   6  -1   3  442.96   47.10
   6  -1   4  259.47   37.10
   6  -1   5  372.26   70.49
   6  -1   6   18.80   31.30
   6  -1   7  385.46   86.89
   6  -2  -9    4.70   87.79
   6  -2  -8  421.06   54.49
   6  -2  -7  216.08   56.89
   6  -2  -6  827.72   31.40
   6  -2  -5   37.10   38.50
   6  -2  -4 1111.49   41.80
   6  -2  -3   41.20   30.90
   6  -2  -2  754.82   20.60
   6  -2  -1 1786.62   47.90
   6  -2   0 2419.76   71.49
   6  -2   1  584.54   37.60
   6  -2   2  671.13   21.90
   6  -2   3   71.59   47.60
   6  -2   4  375.26   42.40
   6  -2   5  266.97   69.79
   6  -2   6  265.67   33.60
   6  -2   7  183.08  108.79
   6  -3  -9  252.17   85.49
   6  -3  -8    0.00   47.80
   6  -3  -7  429.86   68.39
   6  -3  -6  200.08   27.00
   6  -3  -5   56.29   44.70
   6  -3  -4  131.49   24.90
   6  -3  -3 4033.20   91.99
   6  -3  -2   12.20   13.60
   6  -3  -1 4564.64   83.69
   6  -3   0   16.80   22.00
   6  -3   1    0.00   50.09
   6  -3   2  108.69   18.70
   6  -3   3 1153.98   74.09
   6  -3   4   39.30   41.60
   6  -3   5    8.70   68.39
   6  -3   6   37.00   34.30
   6  -4  -8  177.08   60.09
   6  -4  -7  227.08   69.49
   6  -4  -6  362.46   33.40
   6  -4  -5  115.39   53.29
   6  -4  -4  805.92   46.10
   6  -4  -3   94.39   53.39
   6  -4  -2  633.54   25.60
   6  -4  -1  534.15   47.30
   6  -4   0 4361.76  122.59
   6  -4   1  226.38   51.69
   6  -4   2  308.47   26.20
   6  -4   3    0.00   62.59
   6  -4   4   15.30   48.60
   6  -4   5   61.89   79.19
   6  -4   6  315.97   41.60
   6  -5  -7  648.64   82.79
   6  -5  -6   46.80   30.80
   6  -5  -5  417.26   66.09
   6  -5  -4  550.84   49.90
   6  -5  -3  578.84   65.99
   6  -5  -2   59.19   23.00
   6  -5  -1  794.92   58.99
   6  -5   0  245.18   33.90
   6  -5   1  531.65   61.79
   6  -5   2  400.56   32.30
   6  -5   3  134.99   81.19
   6  -5   4  177.78   56.09
   6  -5   5  162.58   91.99
   6  -6  -6  281.77   45.40
   6  -6  -5   78.59   69.79
   6  -6  -4  171.98   43.20
   6  -6  -3    0.00   64.29
   6  -6  -2  700.83   39.90
   6  -6  -1  135.69   76.59
   6  -6   0   37.60   31.60
   6  -6   1  154.78   86.39
   6  -6   2  280.77   38.50
   6  -6   3  149.39   79.29
   6  -6   4  198.08   68.19
   6  -7  -5  691.73  105.99
   6  -7  -4    0.00   49.20
   6  -7  -3   52.29   70.29
   6  -7  -2   27.80   35.60
   6  -7  -1   79.69   80.29
   6  -7   0   12.70   40.70
   6  -7   1  954.60   97.09
   6  -7   2   27.10   38.60
   7   0  -9   42.40  127.79
   7   0  -8    0.00   90.59
   7   0  -7   12.00   92.69
   7   0  -6  199.88   28.30
   7   0  -5    6.70   34.40
   7   0  -4 1243.78   55.59
   7   0  -3    4.60   62.39
   7   0  -2   22.50   19.30
   7   0  -1    0.00   42.40
   7   0   0   64.09   37.00
   7   0   1    7.50   52.99
   7   0   2  333.67   31.40
   7   0   3   45.60   83.09
   7   0   4   85.49   55.59
   7   0   5  109.39  116.49
   7   0   6   90.09   56.99
   7  -1  -9  184.48   89.69
   7  -1  -8  351.16   57.19
   7  -1  -7  209.38   61.19
   7  -1  -6   64.69   21.00
   7  -1  -5    0.00   34.40
   7  -1  -4  328.27   25.70
   7  -1  -3  333.87   29.70
   7  -1  -2  744.63   23.30
   7  -1  -1  378.76   56.49
   7  -1   0   11.40   14.20
   7  -1   1    0.50   45.20
   7  -1   2  141.89   21.30
   7  -1   3   40.80   53.99
   7  -1   4  141.09   39.00
   7  -1   5  123.09   69.09
   7  -1   6  170.68   43.80
   7  -2  -9   28.80   79.99
   7  -2  -8   19.20   48.10
   7  -2  -7   73.39   64.39
   7  -2  -6   63.09   21.10
   7  -2  -5  485.55   48.90
   7  -2  -4  618.74   38.30
   7  -2  -3  262.37   34.80
   7  -2  -2   15.70   13.20
   7  -2  -1  140.59   34.30
   7  -2   0    7.50   18.20
   7  -2   1  380.66   33.60
   7  -2   2  139.99   19.50
   7  -2   3  180.48   59.69
   7  -2   4   96.89   43.30
   7  -2   5  138.39   71.59
   7  -2   6   35.00   34.00
   7  -3  -9  170.38   98.29
   7  -3  -8    1.60   54.69
   7  -3  -7  398.96   67.39
   7  -3  -6   65.69   26.00
   7  -3  -5  489.95   50.99
   7  -3  -4   40.40   29.80
   7  -3  -3  508.65   51.29
   7  -3  -2  118.19   17.30
   7  -3  -1  219.88   49.90
   7  -3   0  110.99   26.40
   7  -3   1    0.00   48.90
   7  -3   2    9.60   21.60
   7  -3   3   89.79   73.29
   7  -3   4   50.69   46.40
   7  -3   5  418.66   85.39
   7  -3   6   37.90   36.60
   7  -4  -8    0.00   56.89
   7  -4  -7   54.29   77.69
   7  -4  -6   30.80   29.80
   7  -4  -5   49.00   67.79
   7  -4  -4  850.71   46.30
   7  -4  -3   94.29   58.89
   7  -4  -2   74.29   21.60
   7  -4  -1   30.10   51.49
   7  -4   0   40.20   26.20
   7  -4   1  120.29   54.79
   7  -4   2  282.47   32.10
   7  -4   3  141.19   75.19
   7  -4   4  149.99   52.39
   7  -4   5    0.00   85.89
   7  -5  -7   34.40   74.59
   7  -5  -6   32.20   32.60
   7  -5  -5   74.79   67.59
   7  -5  -4   82.89   41.80
   7  -5  -3  160.58   67.39
   7  -5  -2  103.99   26.50
   7  -5  -1    0.00   61.49
   7  -5   0    9.40   27.70
   7  -5   1   46.60   63.79
   7  -5   2   16.60   29.10
   7  -5   3  142.19   84.89
   7  -5   4  116.09   56.89
   7  -6  -6   65.49   37.50
   7  -6  -5    0.00   70.69
   7  -6  -4  330.97   51.59
   7  -6  -3   66.89   68.39
   7  -6  -2   76.99   30.30
   7  -6  -1    0.00   82.59
   7  -6   0   26.50   34.10
   7  -6   1  125.39   82.79
   7  -6   2  186.88   38.30
   7  -6   3  103.29   92.59
   7  -7  -4    9.30   48.70
   7  -7  -3    0.00   80.79
   7  -7  -2   25.70   36.70
   7  -7  -1   86.39   95.29
   7  -7   0    5.60   36.60
   7  -7   1   46.00   45.20
   8   0  -9   42.50  131.49
   8   0  -8 1047.20  120.39
   8   0  -7    0.00   96.99
   8   0  -6  139.89   29.70
   8   0  -5  120.19   55.09
   8   0  -4  592.44   44.50
   8   0  -3    0.00   74.79
   8   0  -2 4453.65   93.09
   8   0  -1   88.29   51.29
   8   0   0 1403.06   84.89
   8   0   1   37.40   58.79
   8   0   2  280.57   32.10
   8   0   3   37.50   79.99
   8   0   4   63.59   62.79
   8   0   5    0.00  107.79
   8   0   6  164.48   57.39
   8  -1  -9   99.59   89.19
   8  -1  -8  114.19   54.99
   8  -1  -7   33.80   65.69
   8  -1  -6  710.83   30.20
   8  -1  -5 2677.03   62.19
   8  -1  -4  137.89   23.40
   8  -1  -3  434.36   35.00
   8  -1  -2  186.98   20.00
   8  -1  -1 1306.37   43.50
   8  -1   0    7.70   20.00
   8  -1   1  866.71   50.69
   8  -1   2   75.19   23.00
   8  -1   3  296.97   57.49
   8  -1   4   33.90   43.20
   8  -1   5  193.88   79.59
   8  -1   6   45.90   38.10
   8  -2  -9  168.98   92.89
   8  -2  -8  207.68   56.59
   8  -2  -7    0.80   65.09
   8  -2  -6  615.44   33.20
   8  -2  -5  197.78   52.79
   8  -2  -4  368.76   34.50
   8  -2  -3 1190.58   48.90
   8  -2  -2   52.99   16.40
   8  -2  -1  201.38   32.50
   8  -2   0  326.57   28.80
   8  -2   1  197.28   62.39
   8  -2   2  152.98   25.60
   8  -2   3   81.09   66.39
   8  -2   4  207.88   47.20
   8  -2   5  124.29   86.49
   8  -3  -8    0.00   54.39
   8  -3  -7 1764.62   88.89
   8  -3  -6  261.87   29.80
   8  -3  -5   49.90   56.09
   8  -3  -4   88.89   39.90
   8  -3  -3  990.60   73.09
   8  -3  -2  146.99   22.40
   8  -3  -1  343.67   49.50
   8  -3   0   52.99   29.10
   8  -3   1   37.30   59.29
   8  -3   2  137.49   27.20
   8  -3   3  217.68   87.09
   8  -3   4   41.70   47.00
   8  -3   5  100.39  107.99
   8  -4  -8   16.00   63.49
   8  -4  -7  120.09   80.19
   8  -4  -6  987.10   48.90
   8  -4  -5   21.40   68.49
   8  -4  -4  323.37   42.40
   8  -4  -3  386.06   61.69
   8  -4  -2   31.20   22.50
   8  -4  -1  292.67   54.79
   8  -4   0  415.96   40.80
   8  -4   1   62.49   68.09
   8  -4   2  213.38   36.50
   8  -4   3   33.10   79.19
   8  -4   4  108.89   53.59
   8  -5  -7  235.98   93.49
   8  -5  -6  403.46   39.60
   8  -5  -5  251.07   78.69
   8  -5  -4    0.00   43.10
   8  -5  -3  784.62   79.39
   8  -5  -2   27.30   27.00
   8  -5  -1    0.00   62.29
   8  -5   0   25.30   28.20
   8  -5   1  203.28   68.79
   8  -5   2  136.89   34.70
   8  -5   3   91.99   89.89
   8  -6  -5   61.79   81.59
   8  -6  -4   80.89   53.19
   8  -6  -3    0.00   79.09
   8  -6  -2  742.73   49.00
   8  -6  -1   21.80   80.69
   8  -6   0  127.49   42.90
   8  -6   1  114.19  104.29
   8  -6   2   91.39   36.50
   8  -7  -2   11.80   46.10
   8  -7  -1    0.00  216.78
   9   0  -9    0.00  163.58
   9   0  -8   38.50  119.09
   9   0  -7    0.00  118.99
   9   0  -6   27.50   31.30
   9   0  -5    0.00   81.49
   9   0  -4 1338.47   88.89
   9   0  -3    0.00   82.39
   9   0  -2   56.39   26.30
   9   0  -1    0.00   56.79
   9   0   0 1464.35   91.29
   9   0   1   28.20   73.39
   9   0   2   15.00   33.10
   9   0   3    3.60   96.89
   9   0   4  552.84  108.09
   9   0   5   88.99  131.39
   9  -1  -9   42.50  115.49
   9  -1  -8    0.00   66.39
   9  -1  -7  124.99   80.89
   9  -1  -6   57.49   24.80
   9  -1  -5  116.69   54.39
   9  -1  -4  388.26   36.30
   9  -1  -3  202.78   53.89
   9  -1  -2   36.20   21.00
   9  -1  -1  189.08   49.20
   9  -1   0  400.86   37.40
   9  -1   1  481.35   59.19
   9  -1   2   31.20   25.10
   9  -1   3  171.28   68.79
   9  -1   4    0.00   60.19
   9  -1   5  197.08  103.69
   9  -2  -8    0.00   61.89
   9  -2  -7  406.76   80.09
   9  -2  -6   28.40   26.40
   9  -2  -5   71.69   52.69
   9  -2  -4  348.27   41.80
   9  -2  -3  726.13   59.79
   9  -2  -2  117.19   21.00
   9  -2  -1  966.00   61.29
   9  -2   0   15.80   31.40
   9  -2   1  521.25   69.39
   9  -2   2   57.99   26.90
   9  -2   3   66.99   79.29
   9  -2   4   84.39   58.49
   9  -2   5   51.29   38.50
   9  -3  -8    4.30   68.09
   9  -3  -7  114.09   84.09
   9  -3  -6   51.79   27.80
   9  -3  -5  254.07   63.39
   9  -3  -4    3.10   40.60
   9  -3  -3   15.10   71.39
   9  -3  -2   50.39   22.40
   9  -3  -1  483.55   58.89
   9  -3   0  196.38   37.30
   9  -3   1   27.10   73.79
   9  -3   2   86.69   34.70
   9  -3   3    0.20   86.99
   9  -3   4   44.70   65.59
   9  -4  -7  186.68   93.19
   9  -4  -6   13.00   32.60
   9  -4  -5   84.29   75.59
   9  -4  -4  217.18   46.60
   9  -4  -3  223.08   73.09
   9  -4  -2   36.10   29.40
   9  -4  -1   26.60   66.39
   9  -4   0  328.77   44.10
   9  -4   1   81.89   77.99
   9  -4   2  144.39   38.90
   9  -4   3    0.40   96.39
   9  -5  -6   52.29   40.30
   9  -5  -5    0.00   83.39
   9  -5  -4    0.00   55.79
   9  -5  -3   16.50   83.09
   9  -5  -2   34.70   29.60
   9  -5  -1    0.60   67.19
   9  -5   0  248.28   49.80
   9  -5   1  102.29   76.89
   9  -5   2   43.40   35.10
   9  -6  -4  389.46   67.49
   9  -6  -3    0.00   91.99
   9  -6  -2   26.70   34.50
   9  -6  -1   41.20  105.59
   9  -6   0  108.79   47.40
   9  -6   1  134.69   79.99
  10   0  -8  836.72  153.88
  10   0  -7    0.00  147.09
  10   0  -6  601.44   59.89
  10   0  -5   78.79   85.39
  10   0  -4   34.90   53.69
  10   0  -3   43.60   80.19
  10   0  -2   40.40   32.60
  10   0  -1   21.20   72.89
  10   0   0  562.94   62.79
  10   0   1   25.70   93.89
  10   0   2  609.14   57.09
  10   0   3   39.80  104.69
  10   0   4  101.49   95.49
  10  -1  -8    7.20   65.99
  10  -1  -7  208.68   78.19
  10  -1  -6   19.60   27.10
  10  -1  -5  905.21   67.39
  10  -1  -4  117.79   38.30
  10  -1  -3    0.00   57.19
  10  -1  -2   95.89   23.60
  10  -1  -1  313.67   59.99
  10  -1   0   12.90   30.00
  10  -1   1    0.00   68.89
  10  -1   2  443.46   36.90
  10  -1   3  539.35   93.59
  10  -1   4   41.60   62.59
  10  -2  -8   58.39   65.69
  10  -2  -7   45.40   88.29
  10  -2  -6  224.18   33.70
  10  -2  -5  175.38   67.19
  10  -2  -4  104.69   41.60
  10  -2  -3   44.90   64.99
  10  -2  -2  521.55   32.00
  10  -2  -1  298.77   70.19
  10  -2   0  286.27   43.60
  10  -2   1   88.99   67.29
  10  -2   2  191.38   39.90
  10  -2   3   91.99   86.39
  10  -2   4  136.09   69.29
  10  -3  -7  137.39   88.79
  10  -3  -6   73.29   33.30
  10  -3  -5  319.77   66.99
  10  -3  -4  114.19   44.70
  10  -3  -3  976.50   85.19
  10  -3  -2  126.29   30.70
  10  -3  -1  818.12   73.59
  10  -3   0   56.29   38.20
  10  -3   1  543.65   94.89
  10  -3   2   43.40   37.90
  10  -3   3   89.89   93.09
  10  -4  -7   24.70   60.89
  10  -4  -6  202.88   38.30
  10  -4  -5  173.88   78.29
  10  -4  -4  279.47   51.49
  10  -4  -3  160.08   76.29
  10  -4  -2  740.23   45.30
  10  -4  -1   18.20   76.89
  10  -4   0  313.77   46.30
  10  -4   1    0.00   87.69
  10  -4   2   75.09   40.80
  10  -5  -5    0.00   89.79
  10  -5  -4   46.10   56.39
  10  -5  -3  797.72   87.39
  10  -5  -2   14.40   32.90
  10  -5  -1    0.00   75.89
  10  -5   0   28.40   43.40
  10  -5   1   62.69   51.69
  11   0  -8    0.00  127.59
  11   0  -7    0.00  132.99
  11   0  -6  526.95   65.19
  11   0  -5    0.00  110.89
  11   0  -4   53.09   62.99
  11   0  -3   10.80   99.39
  11   0  -2  138.09   43.00
  11   0  -1    0.00   96.29
  11   0   0   40.90   56.89
  11   0   1    0.00  118.79
  11   0   2   51.79   46.00
  11   0   3  111.59  134.89
  11  -1  -8  143.89   54.69
  11  -1  -7   45.50   84.79
  11  -1  -6   53.79   37.30
  11  -1  -5   32.30   66.19
  11  -1  -4    0.00   41.70
  11  -1  -3   13.00   70.29
  11  -1  -2  415.46   35.50
  11  -1  -1  290.07   70.29
  11  -1   0   10.90   35.30
  11  -1   1  231.58   81.59
  11  -1   2   19.30   31.90
  11  -1   3  153.08   90.09
  11  -2  -7  171.68  104.19
  11  -2  -6   75.89   31.10
  11  -2  -5  296.67   68.39
  11  -2  -4  144.09   45.30
  11  -2  -3   49.99   79.49
  11  -2  -2   43.30   30.90
  11  -2  -1    0.00   67.49
  11  -2   0   47.60   37.70
  11  -2   1   19.00   76.49
  11  -2   2   58.29   39.30
  11  -2   3  135.49  103.29
  11  -3  -7   70.59   49.30
  11  -3  -6   32.30   33.90
  11  -3  -5   46.10   82.39
  11  -3  -4    0.00   44.90
  11  -3  -3  466.45   87.29
  11  -3  -2   93.49   34.40
  11  -3  -1  475.25   93.29
  11  -3   0   22.60   40.00
  11  -3   1  153.78   87.09
  11  -3   2   57.59   39.20
  11  -4  -5  162.48   85.19
  11  -4  -4  219.58   52.59
  11  -4  -3   37.80   95.29
  11  -4  -2   18.80   35.90
  11  -4  -1   90.89   85.49
  11  -4   0   33.60   48.60
  11  -4   1   20.20   41.60
  11  -5  -3   50.49   36.20
  11  -5  -2  115.89   37.70
  11  -5  -1    8.10  121.99
  12   0  -7   58.29   57.89
  12   0  -6  237.98   62.09
  12   0  -5   73.89  105.19
  12   0  -4  547.75  107.49
  12   0  -3    0.00  107.29
  12   0  -2  298.87   50.19
  12   0  -1   22.80  119.59
  12   0   0  435.66   89.69
  12   0   1   23.90  130.29
  12   0   2  185.98   59.19
  12  -1  -7  210.78   42.50
  12  -1  -6   65.69   42.50
  12  -1  -5  184.98   76.59
  12  -1  -4  129.69   60.09
  12  -1  -3  837.52   93.89
  12  -1  -2   14.00   30.20
  12  -1  -1  736.43   82.79
  12  -1   0  414.36   59.39
  12  -1   1  135.19   85.99
  12  -1   2  112.79   52.59
  12  -2  -6  273.57   45.40
  12  -2  -5    0.00   84.49
  12  -2  -4   11.10   57.99
  12  -2  -3   27.20   86.99
  12  -2  -2  391.76   45.90
  12  -2  -1   10.00   77.79
  12  -2   0  109.59   49.99
  12  -2   1   40.90   98.59
  12  -3  -5  749.82  107.19
  12  -3  -4   86.49   65.79
  12  -3  -3   48.20   94.59
  12  -3  -2    8.30   36.50
  12  -3  -1    0.00   86.99
  12  -3   0  116.09   58.79
  12  -4  -4    0.00   99.19
  12  -4  -3   85.09   44.00
  12  -4  -2  280.07   47.80
  12  -4  -1    0.00  252.17
  13   0  -5   56.39  130.79
  13   0  -4    2.30   95.29
  13   0  -3    0.00  134.39
  13   0  -2   28.60   51.49
  13   0  -1   17.70  130.79
  13   0   0    0.00   59.69
  13  -1  -5    0.00  103.29
  13  -1  -4   23.50   62.29
  13  -1  -3   19.20   90.49
  13  -1  -2   43.80   37.20
  13  -1  -1    0.00   86.19
  13  -1   0    5.00   41.10
  13  -2  -4  296.07   69.59
  13  -2  -3   17.10   68.59
  13  -2  -2   67.09   39.70
  13  -2  -1    5.70   96.99

_computing_structure_solution     'SHELXT 2014/4 (Sheldrick, 2014)'
;
_shelx_hkl_checksum              25032
loop_
_space_group_symop_operation_xyz
'x, y, z'
'-x, y+1/2, -z+1/2'
'-x, -y, -z'
'x, -y-1/2, z-1/2'
loop_
_atom_site_label
_atom_site_type_symbol
_atom_site_fract_x
_atom_site_fract_y
_atom_site_fract_z
_atom_site_U_iso_or_equiv
_atom_site_adp_type
_atom_site_occupancy
_atom_site_site_symmetry_order
_atom_site_calc_flag
_atom_site_refinement_flags_posn
_atom_site_refinement_flags_occupancy
V001 V 1.0000 0.5000 0.5000 0.0277(17) Uani 1 2 d S P
V002 V 0.5000 0.5000 0.5000 0.0267(17) Uani 1 2 d S P
P1 P 0.9318(6) 0.6447(9) 0.7955(8) 0.0307(18) Uani 1 1 d D .
H2 H 0.8512(16) 0.714(4) 0.680(2) 0.08(5) Uiso 1 1 d D .
H1 H 0.8938(19) 0.509(2) 0.857(3) 0.08(5) Uiso 1 1 d D .
P3 P 0.4017(6) 0.3438(10) 0.1504(8) 0.0342(19) Uani 1 1 d D .
H6 H 0.2973(12) 0.335(6) 0.053(2) 0.08(5) Uiso 1 1 d D .
H5 H 0.4648(18) 0.467(3) 0.112(2) 0.08(5) Uiso 1 1 d D .
P2 P 0.7333(7) 0.3548(12) 0.4147(10) 0.058(3) Uani 1 1 d D .
H4 H 0.704(2) 0.354(7) 0.2618(12) 0.08(5) Uiso 1 1 d D .
H3 H 0.8022(18) 0.224(3) 0.476(3) 0.08(5) Uiso 1 1 d D .
O006 O 1.0257(13) 0.573(3) 0.723(2) 0.063(4) Uani 1 1 d D .
O007 O 0.8309(18) 0.489(3) 0.465(3) 0.051(6) Uani 1 1 d . .
O008 O 0.9882(17) 0.741(3) 0.946(2) 0.042(5) Uani 1 1 d . .
O009 O 0.3895(15) 0.386(3) 0.3111(17) 0.063(4) Uani 1 1 d D .
O00A O 0.4630(19) 0.180(3) 0.146(3) 0.063(4) Uani 1 1 d . .
O00B O 0.6335(13) 0.365(3) 0.475(2) 0.063(4) Uani 1 1 d D .
loop_
_atom_site_aniso_label
_atom_site_aniso_U_11
_atom_site_aniso_U_22
_atom_site_aniso_U_33
_atom_site_aniso_U_23
_atom_site_aniso_U_13
_atom_site_aniso_U_12
V001 0.044(4) 0.022(3) 0.024(3) 0.004(3) 0.020(3) -0.002(3)
V002 0.029(3) 0.026(3) 0.029(3) 0.006(3) 0.013(3) -0.001(3)
P1 0.042(4) 0.025(4) 0.031(4) -0.002(3) 0.020(3) -0.001(3)
P3 0.040(4) 0.040(4) 0.023(4) -0.008(3) 0.010(3) 0.006(4)
P2 0.042(5) 0.052(6) 0.088(7) -0.037(5) 0.033(5) -0.015(4)
O006 0.043(6) 0.074(8) 0.074(8) -0.011(7) 0.018(6) 0.002(6)
O007 0.051(13) 0.037(12) 0.059(13) -0.005(11) 0.004(11) -0.003(11)
O008 0.063(13) 0.022(10) 0.046(12) -0.009(10) 0.022(10) 0.001(10)
O009 0.043(6) 0.074(8) 0.074(8) -0.011(7) 0.018(6) 0.002(6)
O00A 0.043(6) 0.074(8) 0.074(8) -0.011(7) 0.018(6) 0.002(6)
O00B 0.043(6) 0.074(8) 0.074(8) -0.011(7) 0.018(6) 0.002(6)
loop_
_atom_type_symbol
_atom_type_description
_atom_type_scat_dispersion_real
_atom_type_scat_dispersion_imag
_atom_type_scat_source
O O 0.0106 0.0060 'International Tables Vol C Tables 4.2.6.8 and 6.1.1.4'
H H 0.0000 0.0000 'International Tables Vol C Tables 4.2.6.8 and 6.1.1.4'
P P 0.1023 0.0942 'International Tables Vol C Tables 4.2.6.8 and 6.1.1.4'
V V 0.3005 0.5294 'International Tables Vol C Tables 4.2.6.8 and 6.1.1.4'
loop_
_geom_angle_atom_site_label_1
_geom_angle_atom_site_label_2
_geom_angle_atom_site_label_3
_geom_angle
_geom_angle_site_symmetry_1
_geom_angle_site_symmetry_3
O007 V001 O007 180.0 3_766 .
O007 V001 O006 88.1(8) 3_766 .
O007 V001 O006 91.9(8) . .
O007 V001 O006 91.9(8) 3_766 3_766
O007 V001 O006 88.1(8) . 3_766
O006 V001 O006 180.0 . 3_766
O007 V001 O008 89.8(8) 3_766 4_575
O007 V001 O008 90.2(8) . 4_575
O006 V001 O008 87.1(8) . 4_575
O006 V001 O008 92.9(8) 3_766 4_575
O007 V001 O008 90.2(8) 3_766 2_746
O007 V001 O008 89.8(8) . 2_746
O006 V001 O008 92.9(8) . 2_746
O006 V001 O008 87.1(8) 3_766 2_746
O008 V001 O008 180.0 4_575 2_746
O00B V002 O00B 180.0 . 3_666
O00B V002 O00A 93.2(9) . 4_566
O00B V002 O00A 86.8(9) 3_666 4_566
O00B V002 O00A 86.8(9) . 2_655
O00B V002 O00A 93.2(9) 3_666 2_655
O00A V002 O00A 180.0 4_566 2_655
O00B V002 O009 92.8(8) . .
O00B V002 O009 87.2(8) 3_666 .
O00A V002 O009 92.2(9) 4_566 .
O00A V002 O009 87.8(9) 2_655 .
O00B V002 O009 87.2(8) . 3_666
O00B V002 O009 92.8(8) 3_666 3_666
O00A V002 O009 87.8(9) 4_566 3_666
O00A V002 O009 92.2(9) 2_655 3_666
O009 V002 O009 180.0 . 3_666
O008 P1 O006 110.1(11) . .
O008 P1 H2 123.3(16) . .
O006 P1 H2 106.2(10) . .
O008 P1 H1 97.5(14) . .
O006 P1 H1 106.2(10) . .
H2 P1 H1 112.4(14) . .
O00A P3 O009 113.0(13) . .
O00A P3 H6 110(2) . .
O009 P3 H6 108.0(10) . .
O00A P3 H5 105.9(16) . .
O009 P3 H5 108.0(10) . .
H6 P3 H5 112.4(14) . .
O00B P2 O007 120.1(13) . .
O00B P2 H4 112.3(11) . .
O007 P2 H4 106(2) . .
O00B P2 H3 112.3(11) . .
O007 P2 H3 92.3(15) . .
H4 P2 H3 112.4(14) . .
P1 O006 V001 125.8(10) . .
P2 O007 V001 138.6(14) . .
P1 O008 V001 131.9(13) . 2_756
P3 O009 V002 131.6(10) . .
P3 O00A V002 143.1(16) . 2_645
P2 O00B V002 149.1(15) . .
loop_
_geom_bond_atom_site_label_1
_geom_bond_atom_site_label_2
_geom_bond_distance
_geom_bond_site_symmetry_2
V001 O007 1.95(2) 3_766
V001 O007 1.95(2) .
V001 O006 1.990(19) .
V001 O006 1.990(19) 3_766
V001 O008 2.006(19) 4_575
V001 O008 2.006(19) 2_746
V002 O00B 1.954(16) .
V002 O00B 1.954(16) 3_666
V002 O00A 2.01(2) 4_566
V002 O00A 2.01(2) 2_655
V002 O009 2.008(16) .
V002 O009 2.008(16) 3_666
P1 O008 1.50(2) .
P1 O006 1.537(17) .
P1 H2 1.301(8) .
P1 H1 1.301(8) .
P3 O00A 1.44(2) .
P3 O009 1.506(16) .
P3 H6 1.301(8) .
P3 H5 1.301(8) .
P2 O00B 1.435(16) .
P2 O007 1.51(2) .
P2 H4 1.301(8) .
P2 H3 1.301(8) .
O008 V001 2.006(19) 2_756
O00A V002 2.01(2) 2_645
