#------------------------------------------------------------------------------
#$Date: 2019-02-16 01:08:10 +0200 (Sat, 16 Feb 2019) $
#$Revision: 213667 $
#$URL: file:///home/coder/svn-repositories/cod/cif/7/12/29/7122996.cif $
#------------------------------------------------------------------------------
#
# This file is available in the Crystallography Open Database (COD),
# http://www.crystallography.net/
#
# All data on this site have been placed in the public domain by the
# contributors.
#
data_7122996
loop_
_publ_author_name
'Evans, Hayden'
'Deng, Zeyu'
'Collings, Ines'
'Wu, Yue'
'Andrews, Jessica L.'
'Pilar, Kartik'
'Tuffnell, Joshua Mark'
'Wu, Guang'
'Wang, John'
'Dutton, S. E. E.'
'Bristowe, Paul'
'Seshadri, Ram'
'Cheetham, Anthony K.'
_publ_section_title
;
 Polymorphism in M(H2PO2)3 (M = V, Al, Ga) compounds with the
 perovskite-related ReO3 structure.
;
_journal_name_full               'Chemical Communications'
_journal_paper_doi               10.1039/C9CC00118B
_journal_year                    2019
_chemical_formula_sum            'Al H6 O6 P3'
_chemical_formula_weight         221.94
_space_group_crystal_system      monoclinic
_space_group_IT_number           15
_space_group_name_Hall           '-C 2yc'
_space_group_name_H-M_alt        'C 1 2/c 1'
_symmetry_space_group_name_Hall  '-C 2yc'
_symmetry_space_group_name_H-M   'C 1 2/c 1'
_atom_sites_solution_hydrogens   difmap
_audit_creation_method           SHELXL-2014/7
_audit_update_record
;
2019-01-03 deposited with the CCDC.
2019-02-06 downloaded from the CCDC.
;
_cell_angle_alpha                90
_cell_angle_beta                 109.77(2)
_cell_angle_gamma                90
_cell_formula_units_Z            4
_cell_length_a                   11.953(13)
_cell_length_b                   7.809(8)
_cell_length_c                   7.868(9)
_cell_measurement_reflns_used    258
_cell_measurement_temperature    100(2)
_cell_measurement_theta_max      22.25
_cell_measurement_theta_min      3.62
_cell_volume                     691.1(13)
_computing_structure_refinement  'SHELXL-2014/7 (Sheldrick, 2014)'
_diffrn_ambient_temperature      100(2)
_diffrn_measured_fraction_theta_full 0.994
_diffrn_measured_fraction_theta_max 0.967
_diffrn_measurement_device_type  BrukerAPEXII
_diffrn_radiation_type           MoK\a
_diffrn_radiation_wavelength     0.71073
_diffrn_reflns_av_R_equivalents  0.0905
_diffrn_reflns_av_unetI/netI     0.0963
_diffrn_reflns_Laue_measured_fraction_full 0.994
_diffrn_reflns_Laue_measured_fraction_max 0.967
_diffrn_reflns_limit_h_max       15
_diffrn_reflns_limit_h_min       -14
_diffrn_reflns_limit_k_max       10
_diffrn_reflns_limit_k_min       -10
_diffrn_reflns_limit_l_max       10
_diffrn_reflns_limit_l_min       -8
_diffrn_reflns_number            2843
_diffrn_reflns_point_group_measured_fraction_full 0.994
_diffrn_reflns_point_group_measured_fraction_max 0.967
_diffrn_reflns_theta_full        25.242
_diffrn_reflns_theta_max         28.468
_diffrn_reflns_theta_min         3.176
_exptl_absorpt_coefficient_mu    0.960
_exptl_absorpt_correction_T_max  0.7457
_exptl_absorpt_correction_T_min  0.6240
_exptl_absorpt_correction_type   multi-scan
_exptl_absorpt_process_details   sadabs
_exptl_crystal_colour            clear
_exptl_crystal_density_diffrn    2.133
_exptl_crystal_description       plate
_exptl_crystal_F_000             448
_refine_diff_density_max         0.587
_refine_diff_density_min         -0.502
_refine_diff_density_rms         0.141
_refine_ls_extinction_method     none
_refine_ls_goodness_of_fit_ref   0.973
_refine_ls_hydrogen_treatment    refxyz
_refine_ls_matrix_type           full
_refine_ls_number_parameters     57
_refine_ls_number_reflns         849
_refine_ls_number_restraints     3
_refine_ls_restrained_S_all      0.972
_refine_ls_R_factor_all          0.0934
_refine_ls_R_factor_gt           0.0462
_refine_ls_shift/su_max          0.000
_refine_ls_shift/su_mean         0.000
_refine_ls_structure_factor_coef Fsqd
_refine_ls_weighting_details
'w=1/[\s^2^(Fo^2^)+(0.0350P)^2^] where P=(Fo^2^+2Fc^2^)/3'
_refine_ls_weighting_scheme      calc
_refine_ls_wR_factor_gt          0.0784
_refine_ls_wR_factor_ref         0.0923
_reflns_Friedel_coverage         0.000
_reflns_number_gt                552
_reflns_number_total             849
_reflns_threshold_expression     'I > 2\s(I)'
_cod_data_source_file            c9cc00118b2.cif
_cod_data_source_block           JLA_2_134_ALH2PO23_0m
_cod_original_cell_volume        691.0(13)
_cod_database_code               7122996
_shelx_shelxl_version_number     2014/7
_shelx_space_group_comment
;
The symmetry employed for this shelxl refinement is uniquely defined
by the following loop, which should always be used as a source of
symmetry information in preference to the above space-group names.
They are only intended as comments.
;
_shelx_res_file
;

    JLA_2_134_ALH2PO23_0m.res created by SHELXL-2014/7

TITL JLA_2_134_ALH2PO23_0m_a.res in C2/c
CELL  0.71073  11.9527   7.8087   7.8677   90.000  109.771   90.000
ZERR    4.000   0.0126   0.0082   0.0085    0.000    0.023    0.000
LATT 7
SYMM -X, Y, 1/2-Z
SFAC O  H  Al P
UNIT 24  24  4  12
L.S. 10
ACTA
BOND $H
FMAP 2
PLAN 20
sadi .001 P1 H01 P1 H02 P2 H03
eadp H01 H02 H03
TEMP -173.130
WGHT    0.035000
FVAR       0.19530
P1    4    0.831849    0.605108    0.190977    11.00000    0.01137    0.00828 =
         0.00806   -0.00119    0.00248   -0.00032
H01   2    0.908318    0.514387    0.316030    11.00000   10.01000
H02   2    0.893454    0.705832    0.124331    11.00000   10.01000
P2    4    0.500000    0.624091    0.250000    10.50000    0.01033    0.00938 =
         0.00968    0.00000    0.00013    0.00000
AL1   3    0.750000    0.750000    0.500000    10.50000    0.00878    0.00870 =
         0.00680    0.00010    0.00088    0.00052
O2    1    0.757842    0.717432    0.267770    11.00000    0.01439    0.01253 =
         0.00668   -0.00024    0.00412    0.00264
O3    1    0.582193    0.728461    0.403571    11.00000    0.00998    0.01519 =
         0.00917   -0.00246    0.00090   -0.00206
O1    1    0.762975    0.488665    0.038330    11.00000    0.01801    0.00927 =
         0.00692   -0.00082    0.00138    0.00236
H03   2    0.557503    0.515434    0.184550    11.00000   10.01000
HKLF 4

REM  JLA_2_134_ALH2PO23_0m_a.res in C2/c
REM R1 =  0.0462 for     552 Fo > 4sig(Fo)  and  0.0934 for all     849 data
REM     57 parameters refined using      3 restraints

END

WGHT      0.0344      0.0000

REM Highest difference peak  0.587,  deepest hole -0.502,  1-sigma level  0.141
Q1    1   0.5000  0.5000  0.0000  10.50000  0.05    0.59
Q2    1   0.7632  0.7555  0.3365  11.00000  0.05    0.58
Q3    1   0.7811  0.5608  0.1156  11.00000  0.05    0.56
Q4    1   0.5988  0.4967  0.2608  11.00000  0.05    0.53
Q5    1   0.5207  0.3733  0.0990  11.00000  0.05    0.52
Q6    1   0.7917  0.8738  0.2963  11.00000  0.05    0.51
Q7    1   0.5187  0.5219  0.1373  11.00000  0.05    0.49
Q8    1   1.0228  0.6810  0.1587  11.00000  0.05    0.48
Q9    1   0.7500  0.7500  0.0000  10.50000  0.05    0.46
Q10   1   1.0154  0.5825  0.4184  11.00000  0.05    0.46
Q11   1   0.8225  0.4366  0.3240  11.00000  0.05    0.45
Q12   1   0.7463  0.8749  0.1399  11.00000  0.05    0.42
Q13   1   0.6543  0.7520  0.4584  11.00000  0.05    0.42
Q14   1   0.9114  0.5785  0.2930  11.00000  0.05    0.41
Q15   1   0.7607  0.6378  0.2839  11.00000  0.05    0.41
Q16   1   0.6812  0.7855  0.1162  11.00000  0.05    0.40
Q17   1   0.8866  0.5511  0.2804  11.00000  0.05    0.40
Q18   1   0.5376  0.3999  0.2358  11.00000  0.05    0.39
Q19   1   0.6653  0.8503  0.2247  11.00000  0.05    0.39
Q20   1   0.7695  0.6398  0.4202  11.00000  0.05    0.39
;
_shelx_res_checksum              25486
_shelx_hkl_file
;
   2   0   0  570.82    7.72
   2   0   0  557.63    7.12
   4   0   0  384.60   10.06
   6   0   0   35.78    5.79
   8   0   0   95.92    7.30
   8   0   0  102.69    8.89
  10   0   0   52.21    6.99
  10   0   0   50.42    8.01
  12   0   0  489.20   19.21
  12   0   0  479.49   16.55
  14   0   0   31.92    9.39
   1  -1   0    3.30    2.48
   1  -1   0   -3.26    2.17
  -1  -1   0   -0.99    1.90
   1   1   0    0.47    1.66
  -1   1   0   -0.93    2.21
   1   1   0   -1.94    2.00
   1   1   0    0.32    1.96
  -1   1   0    0.42    2.43
   3  -1   0  551.89   10.65
   3   1   0  565.65    6.34
  -3   1   0  576.26   10.83
   3   1   0  582.63    9.79
   5  -1   0   24.71    5.09
  -5   1   0   25.41    4.94
   5   1   0   22.86    4.65
   5   1   0   21.99    3.24
   7  -1   0    8.07    5.08
   7   1   0   11.93    3.46
   7   1   0    0.69    4.27
   9  -1   0   64.27    8.74
   9  -1   0   88.52    8.39
   9   1   0   82.13    7.07
   9   1   0   76.55    8.75
  11  -1   0    0.59    6.38
  11  -1   0    0.29    5.60
  11   1   0    9.45    6.52
  11   1   0    2.19    4.91
  13  -1   0   13.52    7.87
  13  -1   0   -7.19    5.75
  13   1   0    4.75    6.80
  13   1   0    6.61    6.26
   0   2   0  137.38    6.39
   0   2   0  137.74    5.99
   2  -2   0    1.26    3.52
   2   2   0    0.75    2.93
   2   2   0    1.43    2.49
   2   2   0   -1.20    3.57
  -2   2   0   -1.57    3.42
  -2   2   0    2.79    4.06
   4  -2   0    9.71    4.40
  -4   2   0   14.53    4.71
   4   2   0   17.73    1.77
   4   2   0   16.94    4.25
   4   2   0   14.76    3.81
   6  -2   0  211.58   10.35
   6   2   0  211.58    5.84
  -6   2   0  207.78   10.66
   6   2   0  207.33    9.63
   6   2   0  218.15    9.33
   8  -2   0    8.39    5.66
   8   2   0   27.31    5.81
   8   2   0   20.91    3.78
   8   2   0   17.85    5.71
  10  -2   0    0.84    5.81
  10  -2   0   12.35    6.97
  10   2   0    1.44    5.30
  10   2   0    3.53    5.52
  12  -2   0   28.83    9.21
  12  -2   0   18.08    7.25
  12   2   0    5.62    6.61
  12   2   0   21.80    7.10
  14  -2   0    8.11    7.37
  14  -2   0   12.08    8.53
  14   2   0    9.76    7.49
  -1   3   0   27.88    4.88
   1   3   0   22.14    3.99
  -1   3   0   29.57    4.78
   1   3   0   28.88    4.64
   3  -3   0   98.55    7.00
  -3   3   0   80.21    6.58
   3   3   0   71.03    6.28
   3   3   0   77.30    4.69
   3   3   0   79.75    5.41
   5  -3   0   -1.17    4.47
  -5   3   0    1.36    4.57
   5   3   0   -1.94    3.43
   5   3   0    0.88    4.22
   7  -3   0   -2.76    5.10
   7   3   0   -1.65    4.03
  -7   3   0    5.97    5.58
   7   3   0   -6.65    4.21
   9  -3   0   67.14    9.10
   9   3   0   76.54    8.34
   9   3   0   71.35    8.74
  11  -3   0   -3.86    6.17
  11  -3   0   -4.47    7.01
  11   3   0    0.49    5.54
  11   3   0   18.61    6.87
  13  -3   0   -3.26    7.23
  13  -3   0   -0.14    8.23
  13   3   0    2.81    6.69
  13   3   0    7.83    6.80
   0   4   0   52.15    5.80
   0   4   0   40.24    5.87
   2   4   0  202.94    7.93
  -2   4   0  196.13   10.04
  -2   4   0  193.12    9.52
   2   4   0  201.91    9.87
   4  -4   0  116.56    8.59
   4   4   0  120.72    8.95
   4   4   0  116.76    7.31
   4   4   0  114.24    5.99
  -4   4   0  116.43    9.25
   6  -4   0  957.10   20.58
  -6   4   0  942.89   22.61
   6   4   0  975.09   21.15
   6   4   0  966.03   17.50
   6   4   0  972.17   12.58
   8  -4   0   61.45    8.87
   8   4   0   43.80    6.75
   8   4   0   43.52    7.70
  -8   4   0   47.47    8.68
  10  -4   0   39.28    9.00
  10  -4   0   52.23    9.40
  10   4   0   49.24    8.63
  10   4   0   36.45    7.15
  12  -4   0    1.71    7.64
  12  -4   0   -1.44    7.41
  12   4   0    3.42    6.54
  12   4   0   19.31    7.61
  -1   5   0   15.62    5.34
  -1   5   0   13.32    5.20
   1   5   0   14.91    4.73
   1   5   0    8.37    5.30
  -3  -5   0  184.84    4.75
   3  -5   0  202.00   10.42
   3   5   0  193.23   11.30
  -3   5   0  193.57   10.87
   3   5   0  199.44    8.80
   5  -5   0   10.97    5.81
   5   5   0    7.03    5.85
   5   5   0   -1.00    3.38
  -5   5   0   -1.25    5.78
   5   5   0    5.68    4.38
   7  -5   0    0.37    6.23
  -7   5   0    0.96    6.64
   7   5   0   -5.52    5.32
   7   5   0    7.51    4.88
   9  -5   0  196.68   14.53
   9  -5   0  197.90   13.97
   9   5   0  188.32   13.89
   9   5   0  218.39   11.83
  -9   5   0  194.74   14.99
  11  -5   0   29.70    9.61
  11  -5   0   35.89    9.41
  11   5   0   20.01    8.55
  13  -5   0   16.04    9.26
  13  -5   0    4.07    9.13
  13   5   0    6.08    8.04
   0   6   0  125.97   10.75
   0   6   0  167.71   10.82
  -2  -6   0   33.11    4.16
  -2   6   0   29.60    7.31
   2   6   0   23.65    6.96
  -2   6   0   21.94    6.84
   2   6   0   28.04    6.02
   4  -6   0    2.33    5.70
   4   6   0   -4.18    5.62
   4   6   0    7.81    4.51
  -4   6   0    5.04    6.36
  -4   6   0    8.79    6.31
   6  -6   0    3.63    6.40
  -6   6   0   -0.88    6.78
   6   6   0    7.88    6.27
   8  -6   0    0.41    7.01
   8  -6   0    9.26    7.55
   8   6   0  -10.26    6.27
   8   6   0    7.22    6.67
  -8   6   0    3.90    7.59
  10  -6   0   11.13    8.08
  10  -6   0    8.28    8.01
 -10   6   0   16.23    9.40
  10   6   0   23.95    8.65
  12  -6   0   71.00   13.01
  12  -6   0   69.72   12.04
  12   6   0   57.94   11.40
   1  -7   0   14.73    5.28
  -1  -7   0    6.02    4.95
   1   7   0    5.87    5.88
  -1   7   0    2.84    6.84
   1   7   0   -3.99    6.21
  -1   7   0   -0.61    5.87
   3  -7   0    1.23    5.87
   3   7   0    9.58    5.37
  -3   7   0   19.35    7.66
  -3   7   0    6.58    6.86
   3   7   0   13.82    6.77
   5  -7   0   14.76    6.98
   5  -7   0   39.69    8.14
   5   7   0   19.00    8.13
  -5   7   0   28.04    8.70
   7  -7   0   46.57    9.30
   7  -7   0   11.08    7.80
  -7   7   0   32.34   10.02
   7   7   0   27.70    8.61
   9  -7   0   -2.63    7.75
   9  -7   0   -1.13    7.71
  -9   7   0   -0.10    8.39
   9   7   0   13.66    8.17
  11  -7   0   14.41    9.81
  11  -7   0   -5.36    8.21
  11   7   0   -3.09    8.06
   0   8   0  272.86   15.34
   0   8   0  267.85   16.98
   2  -8   0   21.94    7.61
   2  -8   0   10.44    5.98
  -2   8   0    6.97    7.87
   2   8   0   20.53    7.04
  -2   8   0   -0.25    7.10
   2   8   0   19.42    8.89
   4  -8   0   39.33    8.57
   4  -8   0   35.23    8.14
   4   8   0   48.91   10.78
  -4   8   0   55.33   10.54
  -4   8   0   32.22   10.10
   6  -8   0   -8.09    6.91
   6  -8   0   -2.38    6.58
  -6   8   0    3.14    8.55
   6   8   0    6.79    8.50
   8  -8   0   28.98    9.79
   8  -8   0   17.26    9.02
   8   8   0   29.57    9.69
  -8   8   0   25.20   10.26
   1   9   0    3.93    8.96
  -1   9   0   -3.06    8.18
  -1   9   0  -13.11    6.44
   3  -9   0  104.18   11.90
   3  -9   0  118.64   11.66
  -3   9   0  108.03   14.31
   3   9   0  119.06   14.75
  -3   9   0  107.97   13.84
   5  -9   0    8.33    8.11
   5  -9   0   14.47    8.14
   5   9   0   13.26    9.53
  -5   9   0   -5.75    8.69
   7  -9   0    6.10    8.23
   7  -9   0    0.58    7.63
  -7   9   0    0.70    9.56
   7   9   0    8.69    9.52
   0  10   0   32.30   11.66
   2  10   0    0.62   10.09
  -2  10   0   10.52   10.73
  -2  10   0   10.49    9.77
   4 -10   0   12.47    8.55
  -4  10   0    8.11   10.13
   4  10   0   11.68   10.62
  14   0  -1   -8.63    5.90
  12   0  -1   -0.14    5.12
  12   0  -1    2.43    6.04
  10   0  -1   -5.44    5.13
   8   0  -1   12.99    5.11
   6   0  -1    3.81    3.97
  -6   0   1    2.08    3.21
  -4   0   1   -2.23    2.65
   4   0  -1   -4.08    3.24
  -2   0   1   -2.06    2.17
  -2   0   1   -0.48    2.02
   2   0  -1   -0.22    2.15
   0   0   1    1.40    2.11
   0   0  -1    1.61    2.13
   0   0  -1   -0.16    1.97
   0   0   1    2.96    2.07
   2   0   1   -5.82    3.42
   2   0   1   -2.73    2.78
   4   0   1    0.77    3.19
   4   0   1   -0.74    4.28
   6   0   1   -4.57    4.53
   6   0   1   -0.68    3.45
   8   0   1    3.02    4.23
   8   0   1   -2.41    5.39
  10   0   1    1.91    5.95
  10   0   1    7.14    5.21
  12   0   1    4.42    5.51
  12   0   1   -4.20    6.63
  14   0   1    3.56    7.62
  15  -1  -1   32.04    9.43
  15   1  -1   48.66   10.47
  13  -1  -1    2.88    6.20
  13  -1  -1   19.81    7.92
  13   1  -1   18.16    7.51
  11  -1  -1    0.84    5.98
  11   1  -1   -1.53    5.13
  11   1  -1   -4.12    4.33
   9  -1  -1   98.14    9.03
   9   1  -1   92.81    8.19
   7  -1  -1  113.31    8.48
   7   1  -1  120.96    7.88
  -7   1   1  124.29    8.03
   5  -1  -1   97.97    6.87
   5   1  -1  104.98    6.30
  -5   1   1   87.96    6.53
   3  -1  -1  283.35    8.21
  -3  -1   1  299.98    5.56
   3   1  -1  282.89    5.79
  -3   1   1  290.90    8.09
  -1  -1   1  288.02    5.30
   1   1  -1  282.74    5.86
  -1   1   1  293.81    6.21
   1   1  -1  288.74    5.19
  -1   1   1  279.80    6.55
   1  -1   1   24.55    3.63
   1  -1   1   24.25    2.22
   1  -1   1   28.70    3.60
   1   1   1   23.31    2.97
  -1   1  -1   22.96    2.32
   1   1   1   26.14    3.93
   1   1   1   22.42    2.65
   3  -1   1  329.48    8.90
   3  -1   1  341.76    9.77
   3   1   1  334.26    7.07
   3   1   1  331.95    9.53
   3   1   1  335.23    7.49
   5  -1   1  305.67   11.20
   5  -1   1  284.41    9.61
   5   1   1  286.08   11.00
   5   1   1  295.40    8.67
   5   1   1  287.43    8.14
   7  -1   1   97.25    7.87
   7  -1   1   94.39    8.81
   7   1   1  109.12    7.62
   7   1   1  104.30    6.97
   7   1   1  112.00    9.16
   9  -1   1   26.80    6.43
   9  -1   1   19.90    7.07
   9   1   1   18.03    6.60
   9   1   1   27.99    5.67
   9   1   1   30.70    5.96
  11  -1   1   46.17    9.40
  11  -1   1   44.00    8.03
  11   1   1   55.30    9.50
  11   1   1   48.55    7.46
  13  -1   1   -0.48    6.62
  13  -1   1   -5.95    6.59
  13   1   1    8.30    7.41
  14  -2  -1   10.08    7.27
  14  -2  -1    5.43    7.66
  14   2  -1   15.71    7.45
  14   2  -1   -4.95    6.40
  12  -2  -1  174.50   14.24
  12   2  -1  171.64   12.57
  12   2  -1  187.58   13.41
  10  -2  -1   17.82    6.89
  10   2  -1    3.00    5.19
 -10   2   1   18.85    6.59
   8  -2  -1   13.19    5.73
  -8   2   1   13.46    5.42
   8   2  -1   10.66    4.59
   6  -2  -1  209.72   10.36
   6   2  -1  188.92    7.82
  -6   2   1  196.82    9.28
   4  -2  -1    8.43    4.17
  -4   2   1    0.02    4.04
   4   2  -1   -0.90    2.50
   4   2  -1   -2.38    3.70
   4   2  -1   -0.68    1.48
  -2  -2   1   21.75    2.42
  -2  -2   1   29.27    2.52
  -2  -2   1   34.79    2.74
   2   2  -1   22.87    2.37
  -2   2   1   34.77    4.98
   2   2  -1   27.86    2.75
   2   2  -1   40.16    4.70
   0  -2   1  935.01    9.95
   0  -2   1  971.71   11.36
   0   2  -1  959.45   12.49
   0   2   1  942.70   13.27
   0   2   1  925.34   10.40
   0   2   1  949.39   12.65
   0   2  -1  955.02   11.58
   2  -2   1   62.76    5.13
   2  -2   1   70.30    5.45
   2   2   1   59.77    5.13
   2   2   1   72.20    3.86
   2   2   1   77.27    5.93
  -2   2  -1   78.37    6.48
  -2   2  -1   65.55    5.07
   4  -2   1   28.19    5.26
   4  -2   1   38.86    5.81
   4   2   1   22.76    4.28
   4   2   1   32.01    5.12
   4   2   1   29.74    3.06
   6  -2   1  200.47   10.13
   6  -2   1  192.78   10.52
   6   2   1  188.57    8.80
   6   2   1  210.05   10.54
   6   2   1  190.76    6.85
   8  -2   1    1.45    6.11
   8  -2   1   -4.53    4.83
   8   2   1    2.60    4.56
   8   2   1    6.87    3.56
   8   2   1    1.63    5.23
  10  -2   1   25.10    7.86
  10  -2   1   22.72    7.02
  10   2   1   16.76    5.80
  10   2   1   14.06    6.84
  12  -2   1  119.32   13.42
  12  -2   1  132.93   12.39
  12   2   1   91.69   11.56
  14  -2   1   -3.85    7.24
  14  -2   1   17.16    9.70
  14   2   1   -2.15    7.27
  13  -3  -1   34.15    8.91
  13  -3  -1   29.89    9.53
  13   3  -1   31.10    9.12
  11  -3  -1   16.00    7.78
 -11   3   1    7.01    7.05
  11   3  -1   14.74    5.78
  11   3  -1    4.71    6.08
   9  -3  -1  136.16   11.31
   9   3  -1  137.88    9.31
  -9   3   1  155.99   12.07
   9   3  -1  150.34   11.24
   7  -3  -1   15.85    5.83
  -7   3   1   21.97    6.06
   7   3  -1    9.33    4.00
   7   3  -1   10.41    5.41
   5  -3  -1    8.17    4.67
  -5   3   1   -1.44    4.23
   5   3  -1    3.04    2.94
   5   3  -1   -1.98    4.15
  -3  -3   1  276.08    4.40
   3   3  -1  272.68    9.91
  -3   3   1  266.22   10.35
   3   3  -1  276.05    5.91
  -1  -3   1  307.02    7.19
   1   3  -1  308.79    9.61
  -1   3   1  288.07    9.53
   1   3  -1  299.79    8.33
   1  -3   1   80.82    5.64
   1  -3   1   82.36    6.00
   1   3   1   79.69    6.20
  -1   3  -1   76.05    6.47
   1   3   1   91.32    6.84
   1   3   1   96.34    6.31
  -1   3  -1   80.61    5.92
   3  -3   1  236.38    9.83
   3  -3   1  234.76    9.51
   3   3   1  239.93    9.85
  -3   3  -1  233.06   10.56
   3   3   1  233.98    9.38
   3   3   1  232.03    5.17
  -3   3  -1  244.38    8.76
   5  -3   1   51.69    6.65
   5  -3   1   40.13    6.44
  -5   3  -1   38.91    7.17
   5   3   1   45.86    5.99
   5   3   1   39.81    2.93
   5   3   1   39.05    5.78
   7  -3   1    3.04    5.23
   7  -3   1    2.19    5.48
   7   3   1    6.88    5.39
   7   3   1    7.56    2.88
   7   3   1   -1.28    4.36
   9  -3   1  195.63   13.54
   9  -3   1  174.49   13.52
   9   3   1  183.55   12.60
   9   3   1  182.76   11.40
  11  -3   1   86.12   11.66
  11  -3   1   88.82   11.48
  11   3   1   91.07   10.77
  11   3   1   84.22    9.91
  13  -3   1   19.10    9.64
  13  -3   1   24.42    9.17
  13   3   1   55.88   10.68
  14  -4  -1   -9.58    6.95
  14  -4  -1    0.74    8.60
  14   4  -1  -11.24    6.98
  12  -4  -1    8.65    8.17
  12   4  -1   -2.15    6.83
  10  -4  -1   -2.57    6.71
  10   4  -1   -0.36    4.59
 -10   4   1    7.38    6.80
  10   4  -1    3.67    6.27
   8  -4  -1    8.32    6.48
   8   4  -1   -1.24    3.88
   8   4  -1   -7.72    4.86
  -8   4   1    2.09    5.97
   6  -4  -1   99.00    9.16
   6   4  -1  101.69    9.26
   6   4  -1   83.81    6.22
  -6   4   1   94.80    9.59
   4   4  -1  115.42    9.18
  -4   4   1  104.49    8.89
   4   4  -1   99.88    5.03
  -2  -4   1    3.53    2.59
   2   4  -1   -0.48    3.13
   2   4  -1    1.84    4.23
  -2   4   1   -4.14    4.08
  -2   4   1    1.99    4.33
   0  -4   1   -2.30    3.10
   0   4  -1   -5.31    3.79
   0   4   1    5.25    4.29
   0   4   1   -3.34    3.71
   0   4  -1    0.84    3.95
   2  -4   1   10.11    4.30
   2  -4   1    6.30    4.17
  -2   4  -1    7.03    4.13
   2   4   1   10.60    4.02
  -2   4  -1    8.31    5.20
   2   4   1   11.48    4.86
   4  -4   1    5.00    4.86
   4  -4   1    2.00    4.78
   4   4   1    6.22    4.81
  -4   4  -1   -2.89    5.13
   4   4   1    1.24    4.00
   4   4   1    6.95    3.77
   6  -4   1   98.57    9.54
   6  -4   1   78.49    8.76
   6   4   1   93.54    8.79
  -6   4  -1   80.58    9.69
   6   4   1   82.94    8.16
   8  -4   1   47.94    8.67
   8  -4   1   59.25    8.48
   8   4   1   56.87    8.32
   8   4   1   54.87    8.03
  10  -4   1   -3.77    6.90
  10  -4   1    4.22    6.70
  10   4   1    0.07    6.03
  10   4   1   -4.60    5.45
  12  -4   1   -2.41    7.41
  12  -4   1    7.15    8.72
  12   4   1    6.97    6.88
  12   4   1  -11.60    6.46
  13  -5  -1    6.11    7.98
  13  -5  -1   -3.56    8.35
  13   5  -1   14.39    8.35
  11  -5  -1   23.87    8.77
 -11   5   1   43.80   10.27
  11   5  -1   27.10    8.57
   9  -5  -1    0.10    6.92
   9   5  -1   -2.07    6.21
  -9   5   1    9.69    7.48
   7  -5  -1   88.97    9.90
   7   5  -1   97.09    7.57
  -7   5   1   70.76    9.23
   7   5  -1   69.76    9.38
   5  -5  -1    5.48    5.24
   5   5  -1    7.93    3.03
  -5   5   1   -0.36    5.27
   5   5  -1    7.85    5.41
  -3  -5   1   93.82    4.77
  -3   5   1   85.73    8.99
  -3   5   1   69.04    8.07
   3   5  -1   96.04    6.61
   3   5  -1  100.68    9.33
  -1  -5   1   73.50    5.75
  -1   5   1   65.13    7.67
   1   5  -1   65.20    7.81
   1   5  -1   70.75    7.10
  -1   5   1   66.63    7.44
   1  -5   1  114.60    8.02
   1  -5   1  120.35    7.80
   1   5   1  109.71    8.44
   1   5   1   93.81    8.76
  -1   5  -1  130.20    9.98
  -1   5  -1  118.29    9.40
   3  -5   1   -0.79    4.64
   3  -5   1   -5.90    4.39
   3   5   1    3.28    4.12
  -3   5  -1   -1.83    4.46
   3   5   1   -7.47    4.70
  -3   5  -1    1.42    5.61
   5  -5   1  138.71   10.86
   5  -5   1  139.46   10.66
  -5   5  -1  142.75   13.07
   5   5   1  136.57   10.23
   5   5   1  120.71   10.65
   5   5   1  126.81    8.24
   7  -5   1    8.35    6.49
   7  -5   1    0.56    6.09
   7   5   1   -2.23    5.16
   7   5   1    7.52    6.22
  -7   5  -1    1.23    7.37
   9  -5   1   61.32   10.05
   9  -5   1   66.62   10.54
   9   5   1   52.60    9.21
   9   5   1   56.00    8.69
  11  -5   1   20.09    9.42
  11  -5   1   17.63    8.91
  11   5   1   21.11    7.73
  11   5   1   25.19    8.27
  12  -6  -1   30.00    9.82
  12  -6  -1   17.17    9.60
 -12   6   1   24.94   10.10
  12   6  -1   21.54    9.43
  10  -6  -1   11.61    8.03
 -10   6   1   13.23    8.73
  10   6  -1   -2.08    6.88
   8  -6  -1   -0.34    6.51
   8   6  -1    7.32    6.80
  -8   6   1   -3.62    6.19
   6  -6  -1  258.32   14.97
   6   6  -1  216.55   14.96
  -6   6   1  256.82   14.89
  -4   6   1   24.56    7.38
   4   6  -1    9.06    6.17
  -4   6   1   20.74    7.48
   4   6  -1   27.84    4.90
  -2  -6   1   24.85    4.28
  -2   6   1   10.40    6.12
   2   6  -1   31.38    7.31
  -2   6   1   22.99    6.52
   2   6  -1   30.16    6.02
   0  -6   1   51.34    6.09
   0   6  -1   44.01    7.82
   0   6   1   35.87    7.43
   0   6  -1   65.12    8.30
   0   6   1   34.07    7.02
   2  -6   1   18.01    5.34
   2  -6   1    3.68    5.20
   2   6   1    9.72    6.26
  -2   6  -1    8.48    5.58
  -2   6  -1   11.54    6.91
   2   6   1    9.96    5.52
   4  -6   1   20.39    6.51
   4  -6   1   15.12    6.12
   4   6   1   23.61    5.59
   4   6   1   26.26    7.35
  -4   6  -1   32.89    8.62
  -4   6  -1   18.86    6.13
   6  -6   1  177.73   13.46
   6  -6   1  170.82   13.12
   6   6   1  187.14   14.23
  -6   6  -1  188.96   15.24
   6   6   1  182.29   12.48
   8  -6   1   16.55    7.87
   8  -6   1    9.91    7.25
   8   6   1    7.27    6.68
   8   6   1   12.46    6.27
  10  -6   1    8.29    7.94
  10  -6   1   10.76    8.41
  10   6   1    3.42    7.39
  11  -7  -1   -1.90    7.61
  11  -7  -1   -1.98    8.43
  11   7  -1    3.89    8.68
 -11   7   1    9.06    9.12
   9  -7  -1   74.62   11.78
   9   7  -1  112.59   14.46
  -9   7   1  109.74   14.06
   7  -7  -1   30.64    8.81
  -7   7   1   33.85    8.99
   7   7  -1   55.04   10.11
   5  -7  -1    9.30    6.64
  -5   7   1   -0.16    6.62
   5   7  -1    7.77    7.46
  -3   7   1  130.28   12.94
   3   7  -1  133.55   13.26
   3   7  -1  123.95    9.56
  -3   7   1  139.05   13.01
  -1  -7   1    6.55    4.79
  -1   7   1    4.36    6.02
   1   7  -1   10.67    7.21
   1   7  -1   -1.12    5.58
  -1   7   1    9.98    7.25
   1  -7   1   -0.52    4.78
   1  -7   1    3.57    5.16
  -1   7  -1    5.58    6.71
   1   7   1   11.94    6.33
   1   7   1   -3.54    6.05
  -1   7  -1   10.90    6.85
   3  -7   1  178.18   12.31
   3  -7   1  193.26   12.17
  -3   7  -1  181.41   15.18
  -3   7  -1  180.72   12.74
   3   7   1  177.82   14.34
   3   7   1  177.88   11.67
   5  -7   1   72.68    9.78
   5  -7   1   76.50   10.23
  -5   7  -1   58.06   11.43
   5   7   1   60.09   10.33
   7  -7   1   30.59    8.72
   7  -7   1   32.06    9.01
  -7   7  -1   33.40   10.32
   7   7   1   11.07    8.01
   9  -7   1   43.97   10.81
   9  -7   1   54.43   10.99
   9   7   1   49.54   10.60
  10  -8  -1   12.36    9.71
  10  -8  -1   32.23   10.41
 -10   8   1   44.06   12.19
   8  -8  -1   -5.69    7.66
  -8   8   1   -4.48    7.99
   8   8  -1   16.30    9.28
   6  -8  -1    3.87    7.33
  -6   8   1   10.19    8.15
   6   8  -1   13.45    8.71
   4  -8  -1   -3.49    7.00
   4   8  -1    7.41    8.02
  -4   8   1   -7.35    7.53
  -4   8   1   15.01    7.92
  -2   8   1    3.44    7.24
   2   8  -1  -11.00    7.99
  -2   8   1   -1.91    7.59
   2   8  -1   -4.57    7.91
   0  -8   1  122.58   10.63
   0   8  -1  151.72   14.50
   0   8   1  151.86   14.93
   0   8   1  127.05   12.31
   0   8  -1  127.94   12.36
   2  -8   1   93.54    9.92
   2  -8   1   89.94   10.27
   2   8   1   91.75   10.36
  -2   8  -1  105.72   12.40
  -2   8  -1  100.52   12.73
   2   8   1   94.86   13.02
   4  -8   1   -0.03    5.89
   4  -8   1   -4.04    6.31
  -4   8  -1    1.08    8.50
   4   8   1    8.37    8.10
  -4   8  -1   -2.81    6.95
   6  -8   1   10.79    7.90
   6  -8   1    0.86    7.11
   6   8   1    6.06    8.17
  -6   8  -1    4.51    8.75
   8  -8   1  -10.64    7.30
   8  -8   1   -6.68    7.46
   8   8   1   14.50    9.13
   7  -9  -1   -1.21    8.40
   7  -9  -1    9.21    8.50
  -7   9   1    1.86    9.29
   7   9  -1   -4.21    9.18
   5  -9  -1   30.57    9.67
   5   9  -1   44.86   11.71
  -5   9   1   45.34   11.16
   3  -9  -1   -2.37    7.38
   3   9  -1   16.29    9.70
  -3   9   1   12.85    8.87
  -3   9   1   19.72    9.65
  -1   9   1   91.29   12.32
  -1   9   1  110.92   14.41
   1   9  -1  110.40   14.34
  -1   9  -1   -4.64    7.77
  -1   9  -1    5.79    9.09
   1   9   1    8.66    9.33
   1   9   1   -9.67    6.69
   3  -9   1    8.20    7.44
   3  -9   1   11.61    6.96
   3   9   1   18.95    9.81
  -3   9  -1   20.77    9.83
  -3   9  -1   25.79    9.38
   5  -9   1    6.22    7.94
   5  -9   1   -0.06    7.19
   5   9   1    2.41    9.43
  -5   9  -1    8.39    9.49
   4 -10  -1   15.06    8.91
  -4  10   1   16.78    9.92
   4  10  -1   13.38   11.32
   2  10  -1    9.03    9.88
  -2  10   1    5.47    8.83
  -2  10   1   14.94   10.21
   0  10  -1   60.22   12.86
   0  10   1   39.25   12.01
  -2  10  -1  -11.69    8.40
  -2  10  -1    0.16    9.20
   2  10   1    7.77   10.12
  14   0  -2   35.57    8.44
  12   0  -2   30.90    7.43
  10   0  -2   19.21    5.99
   8   0  -2    6.26    4.39
  -8   0   2    2.20    3.52
  -6   0   2  570.45   10.44
   6   0  -2  595.66   11.95
  -4   0   2   35.93    3.90
  -4   0   2   36.19    4.45
   4   0  -2   40.24    4.04
  -2   0   2  757.65   11.17
   0   0   2  180.87    7.23
   0   0   2  187.48    6.72
   2   0   2   92.88    6.53
   2   0   2   89.87    6.34
   4   0   2   11.44    5.17
   4   0   2   -1.25    2.04
   4   0   2    3.91    3.67
   6   0   2  386.52   14.49
   6   0   2  380.24    8.70
   6   0   2  392.04   12.14
   8   0   2   20.43    4.51
   8   0   2   15.13    6.91
   8   0   2   22.18    5.62
  10   0   2  138.12   13.05
  10   0   2  139.17   10.88
  12   0   2   25.45    8.99
  15  -1  -2   19.17    8.25
  13  -1  -2   -2.95    6.48
  13   1  -2   -6.19    5.43
  11  -1  -2    3.29    5.82
 -11   1   2   -8.67    4.61
  11   1  -2    6.04    5.26
   9  -1  -2  111.57    9.16
  -9   1   2  108.21    8.67
   9   1  -2   93.86    7.73
   7  -1  -2   31.19    5.53
  -7  -1   2   38.67    3.66
   7   1  -2   31.72    4.70
  -7   1   2   34.27    5.31
   5  -1  -2   58.95    5.44
  -5  -1   2   52.16    3.60
  -5  -1   2   60.21    4.60
   5   1  -2   48.72    4.00
  -5   1   2   53.62    5.39
  -3  -1   2  383.77    8.02
  -3   1   2  382.13    9.53
   3   1  -2  378.43    4.86
  -3   1   2  369.80    9.28
  -1  -1   2  109.44    6.01
  -1  -1   2  113.04    4.25
  -1   1   2  113.01    6.33
  -1   1   2  111.95    6.24
   1   1  -2  111.12    4.25
   1  -1   2  161.80    7.35
   1  -1   2  161.37    6.93
   1   1   2  158.12    5.80
   1   1   2  168.54    7.77
   1   1   2  164.35    6.47
   3  -1   2   78.15    6.54
   3  -1   2   83.44    6.63
   3   1   2   77.17    6.89
   3   1   2   67.82    4.60
   3   1   2   70.42    5.17
   5  -1   2    1.92    4.72
   5  -1   2   -0.30    3.95
   5   1   2   -9.72    4.39
   5   1   2    0.90    2.77
   5   1   2    5.35    3.53
   7  -1   2   18.51    6.51
   7  -1   2    9.94    5.40
   7   1   2   10.87    6.16
   7   1   2   16.97    4.21
   7   1   2   13.84    4.42
   9  -1   2  115.40   11.46
   9  -1   2  143.38   11.08
   9   1   2  110.83   11.23
   9   1   2  125.92    8.88
   9   1   2  130.68    9.40
  11  -1   2   21.46    7.50
  11  -1   2   30.83    9.33
  11   1   2   18.72    8.09
  13  -1   2   31.47   10.16
  13  -1   2   14.60    8.41
  13   1   2   19.90    8.88
  14  -2  -2   -4.99    7.01
  14   2  -2    3.89    6.95
  12  -2  -2   10.39    6.70
  12   2  -2    3.05    5.11
 -12   2   2   -1.16    5.93
  10  -2  -2    9.52    6.25
  10   2  -2    7.25    4.89
 -10   2   2    7.52    5.59
   8  -2  -2    1.88    5.06
   8   2  -2    0.56    3.54
  -8   2   2   -0.07    4.46
   6  -2  -2   31.24    5.47
   6   2  -2   27.86    3.64
  -6   2   2   29.99    5.49
  -4  -2   2  487.24    8.43
  -4   2   2  467.60   11.84
   4   2  -2  462.05    5.44
  -2  -2   2   17.42    3.45
  -2   2   2   16.79    4.28
   2   2  -2   13.35    3.85
  -2   2   2   21.72    4.30
   0  -2   2    4.98    3.01
   0  -2   2    9.72    3.67
   0   2  -2   -0.16    2.56
   0   2   2    5.37    3.98
   0   2   2    6.47    3.52
   0   2   2    1.38    3.71
   2  -2   2  168.72    8.22
   2  -2   2  178.28    8.19
   2   2   2  182.18    6.66
   2   2   2  185.93    8.96
   2   2   2  179.23    7.28
  -2   2  -2  175.61    5.48
   4  -2   2   -0.20    4.61
   4  -2   2    8.13    4.34
   4   2   2    5.11    4.82
   4   2   2   -1.50    3.08
   4   2   2    4.85    3.16
   6  -2   2    1.19    5.11
   6  -2   2   -7.18    4.16
   6   2   2    3.05    3.78
   6   2   2    4.58    3.28
   6   2   2   -2.37    4.96
   8  -2   2   24.13    7.41
   8  -2   2   29.25    6.85
   8   2   2   23.98    4.93
   8   2   2   22.10    7.13
   8   2   2   26.76    5.38
  10  -2   2   23.17    7.48
  10  -2   2    8.02    7.73
  10   2   2    6.99    6.47
  12  -2   2   24.14    8.57
  12  -2   2   18.02    8.64
  12   2   2   10.83    7.45
  15  -3  -2   34.98   10.17
  15   3  -2   43.23   10.59
  13  -3  -2    2.34    7.41
  13   3  -2   10.74    7.92
  11  -3  -2    3.20    6.52
 -11   3   2   14.76    7.20
  11   3  -2   16.65    7.45
   9  -3  -2   14.19    6.67
  -9   3   2   20.63    6.49
   9   3  -2   12.08    4.35
   9   3  -2   23.45    7.18
   7  -3  -2   -2.69    4.91
  -7   3   2    1.59    4.55
   7   3  -2   -3.74    4.26
   7   3  -2    4.49    3.23
  -5  -3   2   71.46    4.06
   5   3  -2   59.19    3.97
   5   3  -2   45.99    6.08
  -5   3   2   62.07    7.22
  -3  -3   2   78.03    5.09
   3   3  -2   81.12    6.88
  -3   3   2   66.16    6.58
  -1  -3   2    5.69    3.44
  -1  -3   2   15.66    2.95
  -1   3   2    6.65    3.73
  -1   3   2   10.31    4.40
  -1   3   2    6.09    4.60
   1   3  -2   11.79    3.80
   1  -3   2    3.91    3.53
   1  -3   2    3.61    4.02
   1   3   2    2.65    3.17
   1   3   2    1.58    3.84
   1   3   2   -1.05    4.04
  -1   3  -2    1.16    3.05
   1   3   2   -4.51    3.63
   3  -3   2  130.74    8.74
   3  -3   2  134.48    8.72
   3   3   2  114.95    8.62
   3   3   2  129.93    5.81
   3   3   2  141.87    8.23
   5  -3   2   24.61    5.93
   5  -3   2   32.47    6.33
   5   3   2   49.31    7.17
   5   3   2   41.93    4.02
   5   3   2   38.17    5.74
   7  -3   2   85.08    9.49
   7  -3   2   86.84   10.11
   7   3   2  104.59    8.76
   7   3   2   93.21   10.06
   7   3   2  107.03    8.73
   9  -3   2   14.20    7.75
   9  -3   2   10.73    6.83
   9   3   2   14.92    7.28
   9   3   2   15.74    5.88
  11  -3   2   10.72    7.84
  11  -3   2   17.73    9.08
  11   3   2    4.52    7.32
  13  -3   2    4.81    7.91
  13  -3   2   -4.05    8.77
  13   3   2   -4.13    7.55
  14  -4  -2  -12.34    7.21
  14   4  -2   -4.10    7.77
  12  -4  -2  204.38   15.47
  12   4  -2  201.16   15.39
 -12   4   2  180.85   15.50
  10  -4  -2   34.25    8.60
 -10   4   2   17.32    7.29
  10   4  -2   12.27    7.08
   8  -4  -2  187.60   12.69
  -8   4   2  176.29   11.92
   8   4  -2  170.89    7.80
   8   4  -2  176.11   12.25
   6  -4  -2   32.68    6.86
   6   4  -2   31.55    3.75
  -6   4   2   39.54    6.91
   6   4  -2   32.44    6.55
  -4  -4   2    0.47    2.18
  -4   4   2    2.51    4.57
   4   4  -2   -1.09    4.33
  -2  -4   2    7.02    2.70
  -2  -4   2    6.79    3.43
  -2   4   2    5.55    4.40
   2   4  -2    5.62    4.16
  -2   4   2    6.71    5.14
   0  -4   2  522.29   10.70
   0  -4   2  539.14   12.36
   0   4  -2  513.86   12.94
   0   4   2  544.61   15.00
   0   4   2  541.42   13.88
   2  -4   2   58.03    6.70
   2  -4   2   43.95    5.77
   2   4   2   54.70    6.71
  -2   4  -2   43.53    5.37
   2   4   2   50.27    6.25
   2   4   2   48.24    4.51
   2   4   2   54.51    7.02
   4  -4   2  266.90   12.15
   4  -4   2  261.26   12.18
   4   4   2  272.40   11.69
   4   4   2  266.57    7.42
   4   4   2  256.29   12.16
   6  -4   2   31.91    7.05
   6  -4   2   40.70    7.78
   6   4   2   39.30    7.27
   6   4   2   40.52    6.80
   8  -4   2    2.13    6.93
   8  -4   2    2.86    6.57
   8   4   2    6.16    6.25
   8   4   2    6.93    5.92
  10  -4   2   -5.23    7.01
  10  -4   2   16.27    8.52
  10   4   2    1.21    6.08
  10   4   2   14.20    7.02
  12  -4   2   91.42   13.03
  12  -4   2   89.27   13.19
  12   4   2   74.22   11.73
  13  -5  -2   19.39    9.53
  13   5  -2   15.46    8.51
 -13   5   2    1.46    7.46
  11  -5  -2    7.69    7.99
 -11   5   2   25.58    9.04
  11   5  -2   15.12    8.53
   9  -5  -2  128.98   12.19
  -9   5   2  133.32   13.10
   9   5  -2  128.35   12.44
   7  -5  -2   21.71    7.22
  -7   5   2   27.89    7.52
   7   5  -2   32.31    7.74
  -5   5   2   19.61    6.13
   5   5  -2   14.82    6.35
  -3  -5   2  100.02    5.96
  -3   5   2   95.54    9.93
   3   5  -2   97.28    9.39
  -3   5   2  107.08    9.73
   3   5  -2   88.15    6.78
  -1  -5   2   36.27    5.16
  -1  -5   2   35.66    4.77
  -1   5   2   39.63    7.10
   1   5  -2   42.36    6.19
   1   5  -2   37.64    6.36
  -1   5   2   41.59    6.98
   1  -5   2   59.70    6.64
   1  -5   2   65.95    6.61
  -1   5  -2   65.07    7.14
   1   5   2   41.17    6.93
   1   5   2   72.22    7.80
  -1   5  -2   47.27    7.55
   3  -5   2  236.07   11.56
   3  -5   2  213.40   11.76
   3   5   2  232.68   12.17
   3   5   2  238.54   12.31
   3   5   2  237.01   10.91
  -3   5  -2  243.00   10.97
   5  -5   2   63.75    8.95
   5  -5   2   45.07    7.96
   5   5   2   38.66    7.19
   5   5   2   63.34    7.42
   5   5   2   48.88    7.98
   7  -5   2   28.36    7.77
   7  -5   2   30.14    8.18
   7   5   2   31.52    7.75
   7   5   2   29.06    7.30
   9  -5   2   11.75    8.64
   9  -5   2   42.90   10.14
   9   5   2   33.85    7.91
   9   5   2   40.07    8.28
  11  -5   2   13.08    9.05
  11  -5   2   10.43    9.18
  11   5   2    5.62    7.31
  12  -6  -2   10.19    9.40
  12   6  -2    0.54    8.60
 -12   6   2   18.91    9.47
  10  -6  -2   17.31    8.52
  10   6  -2   30.73    9.60
 -10   6   2   23.75    8.95
   8  -6  -2   -2.51    6.63
  -8   6   2   -4.33    5.80
   8   6  -2   -3.62    6.47
   6  -6  -2   41.02    8.31
  -6   6   2   33.38    7.77
   6   6  -2   48.06    9.31
   4   6  -2    3.59    6.36
  -4   6   2    6.74    6.09
  -2  -6   2   14.09    4.29
  -2  -6   2   13.98    4.46
   2   6  -2    0.87    5.88
  -2   6   2   10.92    6.26
   2   6  -2    2.81    4.94
  -2   6   2   -2.36    5.99
   0  -6   2   18.64    5.15
   0  -6   2   22.86    5.43
   0   6  -2   18.45    6.49
   0   6   2   14.15    6.40
   0   6  -2   19.07    6.59
   0   6   2   20.43    6.96
   2  -6   2   60.79    7.76
   2  -6   2   72.32    8.09
   2   6   2   67.95    9.17
   2   6   2   81.72    8.92
  -2   6  -2   76.74    8.66
  -2   6  -2   78.62   10.46
   4  -6   2   -1.77    5.61
   4  -6   2    3.18    5.81
   4   6   2    1.08    5.01
   4   6   2   -2.44    5.84
  -4   6  -2    4.56    5.37
   6  -6   2   48.33    9.08
   6  -6   2   44.10    8.78
   6   6   2   26.49    7.86
   6   6   2   19.59    7.04
   8  -6   2   22.25    8.47
   8  -6   2   28.55    8.67
   8   6   2   24.23    8.14
   8   6   2   30.50    7.91
  10  -6   2    9.17    9.61
  10  -6   2   16.35    9.33
  10   6   2   21.22    8.59
  10   6   2   19.06    7.75
  11  -7  -2    6.74    9.15
  11   7  -2    3.62    8.65
 -11   7   2    1.53    8.57
   9  -7  -2   32.04    9.43
   9   7  -2   24.43    9.24
  -9   7   2   24.97    9.03
   7  -7  -2    4.29    7.38
   7   7  -2    6.43    7.76
  -7   7   2   -5.21    6.54
  -5   7   2    1.58    6.69
   5   7  -2    5.79    7.00
  -3   7   2    3.68    6.61
   3   7  -2   -0.70    6.67
  -3   7   2    8.73    7.01
  -1  -7   2    2.58    4.94
  -1  -7   2   10.79    5.12
  -1   7   2   14.20    7.74
   1   7  -2    3.09    6.83
   1   7  -2    0.77    5.81
  -1   7   2    7.04    6.64
   1  -7   2   46.44    7.30
   1  -7   2   60.16    7.77
   1   7   2   57.50    8.89
   1   7   2   56.39    9.62
  -1   7  -2   41.99    8.55
  -1   7  -2   61.84    9.66
   3  -7   2    6.15    6.41
   3  -7   2   -5.33    5.64
  -3   7  -2    6.07    7.77
  -3   7  -2   -1.56    5.84
   3   7   2    6.83    6.30
   3   7   2   -2.48    6.41
   5  -7   2   42.22    8.87
   5  -7   2   36.87    8.74
   5   7   2   34.02    9.18
   7  -7   2    1.69    7.69
   7  -7   2   -5.01    7.41
   7   7   2    3.48    7.16
   7   7   2    6.54    7.01
   9  -7   2   11.63    8.42
   9  -7   2    0.92    8.56
   9   7   2   19.42    9.03
  10  -8  -2   -1.89    8.33
  10   8  -2   14.64   10.23
 -10   8   2    3.07    8.73
   8  -8  -2    3.46    8.00
   8   8  -2   13.61    9.18
  -8   8   2   -6.65    7.12
   6  -8  -2  146.19   13.91
   6   8  -2  144.31   14.85
  -6   8   2  142.53   14.75
  -4   8   2   26.65    8.88
   4   8  -2   25.90    9.81
  -2   8   2  155.67   15.13
   2   8  -2  136.01   13.94
  -2   8   2  134.91   13.51
   0  -8   2   -0.21    7.14
   0   8  -2    7.97    7.66
   0   8   2   -4.33    6.54
   0   8   2  -14.93    6.42
   0   8  -2    3.99    7.11
   2  -8   2    8.13    6.67
   2  -8   2    9.56    6.39
  -2   8  -2   25.29    9.51
   2   8   2   17.84    8.67
  -2   8  -2   36.66    8.98
   2   8   2   14.29    7.41
   4  -8   2    2.59    6.92
   4  -8   2   -1.95    6.83
  -4   8  -2  -10.55    6.36
   4   8   2   -3.19    7.11
   6  -8   2   94.86   12.08
   6  -8   2  106.01   12.80
   6   8   2  105.16   13.59
   8  -8   2   13.15    9.32
   8  -8   2    1.14    7.93
   8   8   2   17.01    9.28
   7  -9  -2   -0.21    8.45
   7   9  -2   15.63   10.28
  -7   9   2   26.28    9.90
   5  -9  -2   16.27    9.31
   5   9  -2   26.17   10.90
  -5   9   2   28.68    9.97
  -3   9   2   85.95   12.69
   3   9  -2   88.24   13.75
  -3   9   2   74.74   12.83
  -1   9   2    9.64    8.05
  -1   9   2   15.58    9.88
   1   9  -2    7.33    9.18
   1   9   2   13.73    8.31
  -1   9  -2   18.07    9.45
   1   9   2    1.24    9.04
  -1   9  -2   11.97    9.23
   3  -9   2   23.81    7.91
  -3   9  -2   14.21    8.92
   3   9   2   34.89   11.14
   5  -9   2   18.68    8.83
   5  -9   2   16.90    8.96
   5   9   2   -9.26    7.85
  -4  10   2   21.27   10.01
  -2  10   2   -8.18    8.40
  -2  10   2   10.44    9.83
   2  10  -2  -11.92    9.28
   0  10   2   34.84   12.20
   0  10  -2   42.83   12.33
  14   0  -3   -4.82    5.91
  12   0  -3   15.42    6.26
 -10   0   3   -2.86    3.83
  10   0  -3   -5.68    4.46
   8   0  -3    3.47    3.90
  -8   0   3   -1.76    3.27
  -6   0   3    6.61    3.48
   6   0  -3    2.88    3.40
  -6   0   3    5.57    3.75
  -4   0   3   -0.58    3.88
  -4   0   3   -2.00    3.42
  -2   0   3    8.48    4.13
  -2   0   3    0.30    2.99
   0   0   3   -1.05    3.65
   0   0   3    1.76    4.15
   2   0   3    6.99    4.63
   2   0   3   -1.25    3.60
   4   0   3    8.57    4.18
   4   0   3   -2.02    4.65
   6   0   3   -1.01    2.42
   6   0   3   -1.02    5.35
   6   0   3   -0.02    4.55
   8   0   3    7.70    6.80
   8   0   3    1.91    5.24
  10   0   3   -3.34    6.97
  10   0   3   -4.75    5.26
  12   0   3   -1.86    7.19
  15  -1  -3   54.21    9.83
  13  -1  -3   73.22    9.74
  13   1  -3   59.33    8.68
  11  -1  -3   62.40    8.56
 -11   1   3   61.01    7.89
  11   1  -3   64.40    7.57
   9  -1  -3   -7.33    4.27
  -9  -1   3    1.95    3.08
  -9   1   3    1.75    4.36
   9   1  -3    2.56    4.04
  -7  -1   3   62.31    4.41
   7  -1  -3   48.38    6.03
   7   1  -3   52.51    5.03
  -7   1   3   48.84    6.01
  -5  -1   3   90.51    4.89
  -5  -1   3   92.89    6.90
   5   1  -3   92.19    4.75
  -5   1   3   91.12    7.24
  -5   1   3   97.23    6.97
  -3  -1   3  302.55    9.55
  -3   1   3  304.40   10.26
  -3   1   3  294.43    9.60
  -1  -1   3  237.73    6.96
  -1  -1   3  251.35    9.34
  -1   1   3  247.88    8.96
  -1   1   3  233.82    8.40
   1  -1   3   60.98    5.87
   1  -1   3   53.58    5.59
   1   1   3   55.01    4.28
   1   1   3   60.58    6.21
   1   1   3   61.51    5.68
   3  -1   3   13.66    4.72
   3  -1   3   10.90    4.97
   3   1   3    9.70    2.77
   3   1   3    9.24    4.88
   3   1   3    8.14    3.85
   5  -1   3    2.15    5.32
   5  -1   3    5.22    4.75
   5   1   3   10.81    3.04
   5   1   3    7.22    4.36
   5   1   3   14.62    5.81
   7  -1   3   76.12    8.47
   7  -1   3   63.13    9.16
   7   1   3   54.20    8.56
   7   1   3   82.62    7.81
   9  -1   3   65.07   10.24
   9  -1   3   59.84    8.78
   9   1   3   59.04    7.68
   9   1   3   59.25   10.01
  11  -1   3   22.24    8.94
  11  -1   3   22.50    7.70
  11   1   3   27.34    9.21
  14  -2  -3   18.98    8.06
  12  -2  -3   45.50    8.74
 -12   2   3   87.15    9.95
  10  -2  -3   42.28    7.59
 -10   2   3   45.95    7.16
  10   2  -3   42.25    5.69
   8  -2  -3  176.34   10.42
  -8   2   3  160.77    9.79
   8   2  -3  169.05    7.04
  -6  -2   3  106.72    6.54
   6   2  -3  119.65    4.40
  -6   2   3  105.75    8.36
  -4  -2   3    7.30    3.43
  -4   2   3    6.40    4.51
  -4   2   3    5.36    4.21
  -2  -2   3  115.88    3.90
  -2  -2   3  106.38    7.37
  -2   2   3  104.63    7.83
   2   2  -3  119.05    5.45
  -2   2   3  115.20    7.89
   2   2  -3  107.46    6.33
   0  -2   3  219.09    7.60
   0  -2   3  218.47    8.96
   0   2   3  223.29    8.71
   0   2   3  233.92    8.93
   0   2  -3  211.14    6.38
   0   2   3  231.32    9.70
   2  -2   3  116.56    8.20
   2  -2   3  113.95    7.97
   2   2   3  119.74    6.99
   2   2   3  105.20    6.51
   2   2   3  104.81    8.11
   4  -2   3  253.48   11.47
   4  -2   3  240.03   11.13
   4   2   3  248.15    8.63
   4   2   3  247.45    9.93
   4   2   3  259.69   12.28
   6  -2   3   71.93    8.69
   6  -2   3   50.79    8.23
   6   2   3   81.89    6.65
   6   2   3   66.51    9.20
   6   2   3   64.91    6.72
   8  -2   3    3.26    6.92
   8  -2   3    6.44    6.34
   8   2   3   13.47    7.11
   8   2   3   12.83    5.08
  10  -2   3   47.83    9.06
  10  -2   3   72.48   11.26
  10   2   3   30.46    8.99
  12  -2   3   29.62    9.79
  12  -2   3   37.72    9.49
  12   2   3   44.34   10.55
  15  -3  -3   -7.03    7.01
  15   3  -3    5.34    8.59
  13  -3  -3    2.97    7.08
  13   3  -3    2.77    7.31
 -13   3   3    5.90    7.10
  11  -3  -3   41.89    8.53
 -11   3   3   48.84    8.75
  11   3  -3   30.33    8.30
   9  -3  -3  150.26   11.51
  -9   3   3  167.92   11.60
   7  -3  -3  186.58   11.41
  -7  -3   3  182.67    7.13
   7   3  -3  194.52   10.81
   7   3  -3  190.24    5.37
  -7   3   3  196.14   10.88
  -5  -3   3   82.60    5.68
   5   3  -3   77.22    7.37
  -5   3   3   99.52    8.83
  -3  -3   3   24.65    4.29
  -3   3   3   29.29    5.47
   3   3  -3   27.38    5.09
  -3   3   3   35.05    5.43
  -1  -3   3   -3.31    2.39
  -1  -3   3    1.05    3.52
  -1   3   3   -2.14    3.73
  -1   3   3    2.52    4.47
   1   3  -3   -4.63    3.09
  -1   3   3    5.89    4.70
   1  -3   3  170.12    7.83
   1  -3   3  169.42    9.06
   1   3   3  177.92    9.03
  -1   3  -3  180.02    6.67
   1   3   3  160.23    8.08
   1   3   3  155.59    9.66
   3  -3   3  164.02    9.79
   3  -3   3  156.90    9.89
   3   3   3  149.83    7.87
   3   3   3  168.44   10.61
   3   3   3  167.20    8.81
   5  -3   3  103.81    9.68
   5  -3   3  100.87    9.20
   5   3   3  100.78    9.87
   5   3   3  108.54    7.18
   5   3   3  100.71    8.00
   7  -3   3   69.70    9.75
   7  -3   3   68.82    9.71
   7   3   3   76.42   10.10
   7   3   3   64.52    7.33
   9  -3   3    5.23    7.13
   9  -3   3    7.14    7.42
   9   3   3   17.22    7.56
  11  -3   3    8.78    8.24
  11  -3   3   -7.66    7.10
  11   3   3   -7.58    7.01
  14  -4  -3    9.04    8.51
  14   4  -3   16.55    9.22
 -14   4   3   12.73    8.97
  12  -4  -3   -4.58    6.67
  12   4  -3    0.66    7.75
 -12   4   3    2.05    6.94
  10  -4  -3  -10.64    5.96
  10   4  -3    3.61    6.59
 -10   4   3    5.02    6.33
   8  -4  -3    7.60    5.98
  -8   4   3    1.27    5.40
   8   4  -3    0.99    5.66
  -6  -4   3   18.86    3.63
   6   4  -3    7.16    5.26
  -6   4   3    3.08    5.35
  -4  -4   3  121.52    6.30
  -4   4   3  137.30    9.98
   4   4  -3  127.84    9.23
  -2  -4   3   48.38    5.36
  -2  -4   3   51.40    3.59
  -2   4   3   27.11    5.48
  -2   4   3   64.31    7.64
   2   4  -3   43.69    6.05
  -2   4   3   58.62    7.64
   0  -4   3    7.27    4.35
   0  -4   3   13.22    3.74
   0   4   3   10.00    4.23
   0   4  -3   10.70    4.06
   0   4   3   15.65    5.63
   0   4   3    8.93    5.01
   2  -4   3   -1.92    4.17
   2  -4   3    6.41    4.79
   2   4   3   -0.48    5.33
  -2   4  -3    4.01    3.48
   2   4   3    5.26    5.01
   2   4   3   -0.09    3.61
   2   4   3    0.79    4.31
   4  -4   3    8.08    5.59
   4  -4   3    3.19    5.35
   4   4   3   -8.14    3.18
   4   4   3    0.89    4.62
   4   4   3    5.90    5.90
   6  -4   3    0.06    5.85
   6  -4   3   -1.90    6.06
   6   4   3    5.14    5.17
   6   4   3   13.50    6.62
   8  -4   3   42.33    9.18
   8  -4   3   23.88    8.48
   8   4   3   25.41    6.63
   8   4   3   36.65    9.04
  10  -4   3   14.16    8.74
  10  -4   3    4.63    7.60
  10   4   3    1.66    7.08
  13  -5  -3   24.21    9.65
 -13   5   3   30.70    9.99
  13   5  -3   31.32   10.26
  11  -5  -3   -0.17    7.89
 -11   5   3   -2.10    6.81
  11   5  -3    6.34    7.66
   9  -5  -3   68.53   10.19
   9   5  -3   69.38   10.24
  -9   5   3   62.11    9.97
   7   5  -3   22.12    7.33
  -7   5   3   25.70    7.23
  -5  -5   3   51.26    4.76
   5   5  -3   58.93    8.46
  -5   5   3   46.62    7.46
  -3  -5   3    6.98    2.60
  -3  -5   3   -0.53    3.41
  -3   5   3    7.20    5.46
   3   5  -3    5.41    4.96
  -1  -5   3  111.99    8.31
  -1  -5   3  115.81    6.63
  -1   5   3  102.99   10.05
  -1   5   3   97.83    9.40
   1   5  -3  103.88    8.69
   1  -5   3    5.51    5.21
   1  -5   3   11.92    4.71
   1   5   3   13.09    4.56
   1   5   3    9.25    5.47
  -1   5  -3    6.99    4.64
   1   5   3    9.20    5.83
   3  -5   3   69.19    8.36
   3  -5   3   95.22    8.73
  -3   5  -3   90.02    7.66
   3   5   3   88.17    9.89
   3   5   3   96.98    9.66
   3   5   3   92.40    9.55
   3   5   3   84.41    6.45
   5  -5   3   15.05    6.82
   5  -5   3   17.28    6.96
   5   5   3    5.95    5.68
   5   5   3   13.31    6.66
   5   5   3   19.66    6.68
   7  -5   3   19.75    7.68
   7  -5   3   26.61    8.43
   7   5   3   22.19    7.52
   7   5   3   23.99    7.12
   9  -5   3   -8.50    7.11
   9  -5   3    7.89    7.94
   9   5   3   -1.76    6.70
  12  -6  -3   46.45   10.90
 -12   6   3   36.62   10.69
  12   6  -3   25.38   10.14
  10  -6  -3    8.61    8.36
 -10   6   3   -2.05    6.92
  10   6  -3   11.56    8.27
   8  -6  -3    3.87    6.85
   8   6  -3   16.29    8.16
  -8   6   3   26.87    8.14
  -6   6   3   55.82    8.98
   6   6  -3  100.95   11.63
  -4   6   3   81.78   10.43
   4   6  -3   54.65    9.23
  -2  -6   3  197.82    9.98
   2   6  -3  204.76   12.87
  -2   6   3  195.26   13.52
  -2   6   3  199.86   13.07
   0  -6   3   48.08    6.19
   0  -6   3   47.07    6.89
   0   6   3   42.47    8.17
   0   6   3   43.11    8.28
   0   6  -3   46.61    7.77
   2  -6   3   15.94    6.10
   2  -6   3   10.33    5.57
   2   6   3   10.56    6.75
   2   6   3   24.04    6.85
  -2   6  -3   16.92    5.51
   4  -6   3   20.45    7.12
   4  -6   3   11.31    6.91
   4   6   3   27.37    7.72
   4   6   3   21.16    6.86
   4   6   3   25.88    7.82
   6  -6   3   63.72   10.10
   6  -6   3   57.79    9.63
   6   6   3   53.52    9.70
   6   6   3   48.43    9.17
   8  -6   3   27.00    9.46
   8  -6   3   41.62   10.05
   8   6   3   25.72    8.18
   8   6   3   26.45    8.39
  11  -7  -3   27.11   10.36
 -11   7   3   53.86   11.65
  11   7  -3   27.05   10.22
   9  -7  -3   13.01    9.42
  -9   7   3   30.90    9.47
   9   7  -3   16.51    9.02
   7  -7  -3  -18.39    6.52
  -7   7   3    1.55    7.08
   7   7  -3   -6.66    6.90
   5   7  -3   39.68    9.47
  -5   7   3   56.66   10.01
  -3   7   3  115.08   12.44
  -3   7   3  106.82   12.07
   3   7  -3  109.75   12.21
  -1  -7   3   99.17    9.02
  -1   7   3   90.14   11.48
   1   7  -3   86.46   10.47
  -1   7   3   87.96   10.76
   1  -7   3   94.18    9.67
   1  -7   3   73.02    8.07
   1   7   3   72.14   10.77
   1   7   3   99.35   11.26
  -1   7  -3   67.52    9.41
   3  -7   3   13.05    6.77
   3  -7   3   18.95    7.49
  -3   7  -3   12.12    6.55
   3   7   3    6.83    7.05
   3   7   3    6.76    7.55
   5  -7   3    5.42    6.94
   5  -7   3    1.54    6.60
   5   7   3   -0.19    6.85
   7  -7   3   34.90    9.59
   7  -7   3   19.35    9.08
   7   7   3   39.93    9.79
   7   7   3   28.68    9.15
  10  -8  -3   46.72   11.68
  10   8  -3   59.78   12.76
 -10   8   3   62.88   12.10
   8  -8  -3   47.33   10.58
  -8   8   3   10.25    8.48
   8   8  -3   35.49   10.85
  -6   8   3   16.81    8.30
   6   8  -3   16.08    9.17
   4   8  -3    6.58    7.95
  -4   8   3    7.19    7.86
   2   8  -3    5.49    8.10
  -2   8   3    2.70    7.13
  -2   8   3    3.77    7.96
   0  -8   3    9.59    6.02
   0   8   3    7.20    8.07
   0   8   3    5.35    7.23
   0   8  -3    9.61    7.28
   2  -8   3   93.22   10.74
   2   8   3   95.83   11.85
  -2   8  -3   95.32   11.18
   2   8   3   83.50   12.22
   4  -8   3   22.20    8.45
   4  -8   3    4.32    7.03
   4   8   3   34.41    9.78
   6  -8   3   19.34    9.07
   6  -8   3    2.23    7.50
   6   8   3   17.11    9.10
   7  -9  -3   87.74   12.88
   7   9  -3   51.86   12.26
  -7   9   3   49.96   11.49
   5   9  -3    5.13    9.78
  -5   9   3   -0.73    7.93
   3   9  -3   23.91   10.51
  -3   9   3   23.27    9.63
  -1   9   3   -3.62    8.82
   1   9  -3   -8.80    8.04
  -1   9   3   -4.21    7.83
  -1   9  -3   24.86    9.38
   1   9   3   15.75    8.59
   1   9   3    9.59    9.50
   3  -9   3    2.23    7.14
   3   9   3    5.62    9.41
  12   0  -4  167.97   11.16
 -10   0   4  202.44    9.47
  10   0  -4  191.60   10.32
  -8   0   4  981.72   16.24
   8   0  -4 1000.00   16.79
  -6   0   4   21.29    5.03
  -6   0   4   26.72    4.78
  -4   0   4  112.79    8.19
  -2   0   4   76.44    5.82
  -2   0   4   68.25    6.38
   0   0   4  346.29   10.99
   0   0   4  345.12   11.78
   2   0   4  269.98   11.81
   2   0   4  276.77   11.64
   4   0   4  886.74   20.19
   4   0   4  917.84   19.49
   6   0   4   -4.86    6.01
   6   0   4    0.66    4.87
   8   0   4    6.94    6.02
   8   0   4    4.36    7.07
  10   0   4   11.70    6.84
  10   0   4    2.73    8.02
  13  -1  -4    5.53    6.50
  11  -1  -4   67.92    8.56
  11   1  -4   69.85    7.39
 -11   1   4   66.99    7.79
   9  -1  -4   40.37    6.40
  -9  -1   4   42.75    4.84
  -9   1   4   40.89    6.32
   9   1  -4   38.44    5.38
  -7  -1   4   39.56    5.68
  -7  -1   4   45.27    4.76
   7  -1  -4   43.31    6.03
   7   1  -4   49.19    4.58
  -7   1   4   30.75    5.73
  -7   1   4   39.24    5.98
  -5  -1   4  237.21   10.24
  -5   1   4  251.55   10.01
  -5   1   4  248.95   10.78
  -3  -1   4    2.30    4.11
  -3   1   4   -1.84    4.07
  -1  -1   4    7.54    4.34
  -1  -1   4    3.89    3.43
  -1   1   4   -4.05    3.88
  -1   1   4    1.45    4.19
   1  -1   4   41.35    5.66
   1  -1   4   64.65    6.89
   1   1   4   43.82    5.67
   1   1   4   44.07    6.39
   3  -1   4  109.50    8.76
   3  -1   4  126.93    9.40
   3   1   4  112.01    5.13
   3   1   4  105.26    9.60
   3   1   4  122.97    9.18
   5  -1   4   48.33    7.55
   5  -1   4   53.03    8.21
   5   1   4   55.91    8.50
   5   1   4   53.11    7.18
   7  -1   4  170.72   12.13
   7  -1   4  200.78   14.81
   7   1   4  183.68   11.79
   7   1   4  169.70   13.76
   9  -1   4   -8.72    5.81
   9  -1   4   -7.25    7.12
   9   1   4    2.07    5.73
   9   1   4   -6.50    6.78
  11  -1   4   -2.19    6.47
  11  -1   4    7.69    8.63
  11   1   4    4.34    7.85
  14  -2  -4   34.18    8.87
  12  -2  -4    8.88    6.27
 -12   2   4    2.97    5.92
  10  -2  -4    0.76    5.17
 -10   2   4    9.28    5.59
  -8  -2   4   41.37    5.76
   8  -2  -4   47.41    6.97
  -8   2   4   32.20    6.27
   8   2  -4   37.64    3.78
  -6  -2   4    0.20    4.06
  -6  -2   4    6.60    3.04
  -6   2   4    2.32    4.51
  -6   2   4    1.45    4.65
  -4  -2   4  105.28    7.84
  -4   2   4   83.74    7.53
  -4   2   4   86.18    8.07
  -2  -2   4  228.70    6.42
  -2  -2   4  231.30   10.23
  -2   2   4  234.21   11.01
   0  -2   4    6.17    3.72
   0  -2   4   15.32    5.20
   0   2   4    7.33    4.73
   0   2  -4    4.35    2.56
   0   2   4    6.72    4.31
   2  -2   4   24.65    5.66
   2  -2   4   20.25    5.30
   2   2   4   22.41    6.33
   2   2   4   29.60    4.61
   2   2   4   25.84    5.27
   4  -2   4   69.17    8.29
   4  -2   4   60.37    8.07
   4   2   4   66.71    5.69
   4   2   4   67.07    7.22
   4   2   4   91.75   10.06
   6  -2   4   16.01    6.69
   6  -2   4    4.55    6.55
   6   2   4   17.69    7.25
   6   2   4    5.32    5.56
   8  -2   4   47.25    9.61
   8  -2   4   38.98    8.50
   8   2   4   46.93   11.44
   8   2   4   47.93    9.58
  10  -2   4   53.46   11.13
  10  -2   4   69.46   11.02
  10   2   4   69.70   12.39
  15  -3  -4    7.43    8.24
  15   3  -4   -5.30    7.89
  13  -3  -4   -6.53    6.70
 -13   3   4   -1.20    6.52
  11  -3  -4   18.90    7.30
 -11   3   4   23.24    7.24
   9  -3  -4   21.84    6.72
  -9   3   4   18.42    6.54
  -7  -3   4    6.24    4.29
  -7   3   4   13.04    5.79
  -5  -3   4   43.20    5.45
  -5   3   4   34.24    6.59
   5   3  -4   41.49    6.31
  -5   3   4   44.27    6.86
  -3  -3   4   24.97    5.20
  -3   3   4   39.50    6.23
   3   3  -4   32.70    5.46
  -3   3   4   38.15    6.65
  -1  -3   4   27.20    4.00
  -1  -3   4   25.81    5.51
  -1   3   4   35.41    6.03
   1   3  -4   26.82    4.51
  -1   3   4   31.57    6.25
   1  -3   4  120.48    9.29
   1  -3   4  115.19    8.29
  -1   3  -4  108.91    5.55
   1   3   4  127.64   10.14
   1   3   4  115.72    8.47
   1   3   4  112.26    8.56
   3  -3   4    7.51    5.20
   3  -3   4   -1.04    4.88
   3   3   4    9.44    4.29
   3   3   4    2.16    5.51
   3   3   4    4.32    4.55
   5  -3   4    9.13    6.25
   5  -3   4    9.68    6.31
   5   3   4   14.73    7.18
   5   3   4    8.75    4.67
   5   3   4   15.59    4.95
   7  -3   4   24.82    7.34
   7  -3   4   26.40    8.28
   7   3   4   17.03    7.77
   9  -3   4    6.57    8.29
   9  -3   4    7.46    7.33
   9   3   4   -1.12    7.10
  11  -3   4    8.91    8.00
  11  -3   4    8.96    8.74
  11   3   4   -3.39    7.33
  14  -4  -4  162.99   15.26
  14   4  -4  215.95   18.34
 -14   4   4  173.61   16.06
  12  -4  -4   -3.14    6.72
 -12   4   4   -4.74    6.42
  12   4  -4   16.42    8.32
  10  -4  -4   31.79    8.44
 -10   4   4   12.82    7.07
  10   4  -4   23.86    8.09
  -8   4   4   -8.75    4.90
   8   4  -4    0.07    5.95
  -6  -4   4  206.73    8.82
  -6   4   4  230.49   12.90
   6   4  -4  217.28   12.24
  -4  -4   4  197.07    8.74
  -4   4   4  177.75   11.38
   4   4  -4  193.43   10.94
  -2  -4   4  851.98   17.40
  -2  -4   4  843.91   10.56
  -2   4   4  862.01   20.19
   2   4  -4  866.47   17.67
  -2   4   4  862.15   18.85
   0  -4   4    2.66    4.87
   0  -4   4   -1.80    3.43
   0   4   4    7.27    4.43
   0   4   4    8.90    5.19
   0   4  -4    4.31    3.66
   0   4   4    6.16    5.37
   2  -4   4   23.25    6.44
   2  -4   4   26.15    5.95
   2   4   4   27.77    5.51
   2   4   4   25.22    5.94
  -2   4  -4   20.06    3.99
   2   4   4   25.63    7.37
   4  -4   4   11.31    5.91
   4  -4   4    6.50    5.76
   4   4   4    4.30    4.40
   4   4   4    2.32    4.90
   4   4   4   -0.74    6.47
   6  -4   4   80.65   10.09
   6  -4   4   43.92    8.97
   6   4   4   53.03    9.53
   6   4   4   87.91   10.84
   8  -4   4   27.94    8.44
   8  -4   4   44.60    9.96
   8   4   4   24.18    8.94
  10  -4   4  188.70   16.61
  10  -4   4  177.67   16.92
  10   4   4  139.86   15.08
  13  -5  -4   13.91    8.98
  13   5  -4    1.92    8.37
 -13   5   4    4.87    8.45
  11  -5  -4   59.61   10.58
  11   5  -4   49.18   10.66
 -11   5   4   55.35   10.32
   9  -5  -4   12.71    7.58
  -9   5   4    0.84    6.32
   9   5  -4    6.46    7.12
  -7   5   4   21.90    7.18
   7   5  -4   29.16    7.79
  -5  -5   4   75.49    6.35
   5   5  -4   93.04    9.84
  -5   5   4   71.65    9.49
  -3  -5   4  107.23    8.43
   3   5  -4  102.29    9.46
  -3   5   4  103.97   10.89
  -1  -5   4   67.62    5.70
  -1  -5   4   67.46    7.59
  -1   5   4   61.14    8.73
  -1   5   4   52.53    8.37
  -1   5   4   57.71    7.36
   1   5  -4   63.31    7.45
   1  -5   4  271.66   13.47
   1  -5   4  286.95   11.64
   1   5   4  285.10   14.28
   1   5   4  269.52   11.65
  -1   5  -4  295.92   11.10
   1   5   4  278.12   13.78
   3  -5   4    3.37    5.47
   3  -5   4    1.57    5.61
   3   5   4   -6.95    4.91
   3   5   4   -0.56    6.26
   3   5   4    0.70    4.70
   3   5   4    5.31    6.26
   5  -5   4    9.94    6.96
   5  -5   4    6.25    7.01
   5   5   4    1.99    5.81
   5   5   4   11.92    6.92
   7  -5   4   18.76    8.28
   7  -5   4   34.83    9.47
   7   5   4   35.01    9.16
   9  -5   4   42.21   10.12
   9  -5   4   57.68   11.49
   9   5   4   42.19   10.16
  12  -6  -4   -2.38    8.51
 -12   6   4    7.79    8.63
  12   6  -4   -4.91    8.08
  10  -6  -4   40.68   10.07
 -10   6   4   33.13    9.57
  10   6  -4   50.15   10.67
   8   6  -4   66.07   10.66
  -8   6   4   83.91   11.77
  -6   6   4    2.70    6.12
   6   6  -4   -2.58    6.30
  -4  -6   4    7.29    4.95
   4   6  -4   20.11    7.41
  -4   6   4   11.06    7.06
  -2  -6   4    1.10    4.61
   2   6  -4    2.48    5.44
  -2   6   4    2.80    6.51
  -2   6   4    5.02    6.50
   0  -6   4    9.90    5.75
   0   6   4    7.39    6.80
   0   6   4   17.77    7.21
   0   6  -4    4.61    5.51
   2  -6   4   74.93    8.67
   2  -6   4   76.93    9.69
   2   6   4   99.45   11.04
   2   6   4   80.16   10.20
   4  -6   4  102.91   10.93
   4  -6   4   74.23   10.40
   4   6   4  101.59   12.16
   4   6   4  120.56   11.86
   4   6   4  110.46   11.55
   6  -6   4    0.92    7.14
   6  -6   4    5.39    7.86
   6   6   4   -2.87    6.22
   6   6   4    1.42    7.18
   8  -6   4    3.52    8.18
   8  -6   4    6.14    8.22
   8   6   4   -3.69    7.00
  11  -7  -4    1.11    8.67
  11   7  -4   -4.92    8.41
 -11   7   4    4.32    8.24
   9  -7  -4    6.68    8.26
   9   7  -4    2.28    8.24
  -9   7   4   -3.75    7.01
  -7   7   4   13.10    7.92
   7   7  -4    3.64    7.58
  -5   7   4   -5.09    6.73
   5   7  -4   -1.40    6.82
   3   7  -4    3.79    7.29
  -3   7   4   29.43    8.39
  -1  -7   4   37.30    7.04
  -1   7   4   32.02    9.12
   1   7  -4   37.19    8.20
  -1   7   4   53.83    9.90
   1  -7   4    6.02    6.54
   1   7   4    7.16    7.62
   1   7   4    2.24    6.56
  -1   7  -4   -3.74    5.21
   3  -7   4   17.25    7.69
   3   7   4   10.86    7.19
   3   7   4    6.25    7.31
   5  -7   4  -10.48    7.08
   5  -7   4   10.26    7.81
   5   7   4   12.58    7.58
   7  -7   4   27.23    9.41
   7  -7   4    8.98    8.31
   7   7   4   13.23    8.57
   8  -8  -4  102.43   13.59
   8   8  -4  115.93   15.34
  -8   8   4  121.30   14.49
  -6   8   4   -2.12    7.83
   6   8  -4   10.51    9.16
  -4   8   4   38.52   10.22
   4   8  -4   36.02    9.84
   2   8  -4    0.39    7.27
  -2   8   4   10.01    8.62
  -2   8   4   12.10    8.70
   0  -8   4   58.66    9.27
   0   8  -4   74.44   11.05
   0   8   4   43.27   10.29
   0   8   4   40.19   10.49
   2  -8   4   15.65    7.86
   2   8   4   22.56    8.82
   2   8   4   17.23    8.50
   4  -8   4  100.67   12.63
   4   8   4  104.35   13.60
  -7   9   4   11.98    9.66
  -5   9   4   87.61   13.70
   5   9  -4   69.61   12.90
   3   9  -4   -3.56    8.94
  -3   9   4   -1.19    8.34
  -1   9   4   13.69    9.09
  -1   9   4   26.99   10.49
   1   9  -4    5.83    8.42
   1   9   4   42.05   10.76
   1   9   4   30.58   10.78
  10   0  -5    4.10    4.50
 -10   0   5    2.34    4.58
   8   0  -5   -4.77    3.76
  -8   0   5    4.30    4.51
  -8   0   5   -6.95    4.94
  -6   0   5   -3.01    4.68
  -6   0   5   -2.42    4.10
  -4   0   5    5.99    4.94
  -2   0   5    0.75    3.70
  -2   0   5    3.11    4.63
   0   0   5   -7.35    3.99
   0   0   5   -7.42    4.26
   2   0   5    1.41    5.38
   2   0   5   -2.18    5.32
   4   0   5   -1.60    5.99
   4   0   5    0.35    5.12
   6   0   5   10.81    7.41
   6   0   5   -5.16    5.63
   8   0   5   -1.08    7.67
   8   0   5   -5.33    5.67
  10   0   5    7.21    7.08
  10   0   5  -12.82    7.47
  13  -1  -5    0.89    5.73
  11  -1  -5   31.31    6.91
 -11   1   5   43.30    7.11
   9  -1  -5  104.02    8.74
  -9  -1   5  117.01    9.36
  -9   1   5  112.70    9.47
  -7  -1   5   35.31    6.51
  -7  -1   5   43.02    5.35
  -7   1   5   26.43    5.71
   7   1  -5   36.73    4.37
  -7   1   5   32.05    6.71
  -5  -1   5  226.22   10.89
  -5   1   5  230.41   11.15
  -5   1   5  224.90   11.86
  -3  -1   5  107.22    8.61
  -3  -1   5  120.20    6.62
  -3   1   5  127.02    9.44
  -1  -1   5   37.90    5.37
  -1  -1   5   27.04    5.84
  -1   1   5   30.43    5.70
  -1   1   5   22.01    6.11
   1  -1   5   33.13    6.24
   1  -1   5   41.52    7.04
   1   1   5   32.59    6.88
   1   1   5   44.68    6.59
   3  -1   5  186.24   12.18
   3  -1   5  176.12   11.43
   3   1   5  166.16   12.26
   3   1   5  175.66   11.50
   5  -1   5   25.07    7.18
   5  -1   5   29.83    7.88
   5   1   5   26.45    8.33
   5   1   5   26.12    7.19
   7  -1   5  144.05   12.62
   7  -1   5  161.66   14.32
   7   1   5  155.19   14.81
   7   1   5  155.14   12.67
   9  -1   5   34.19    8.67
   9  -1   5   45.37   11.52
   9   1   5   44.03   10.93
  14  -2  -5   57.53    9.81
  12  -2  -5   19.52    7.28
 -12   2   5   11.94    6.59
  10  -2  -5   11.55    6.01
 -10   2   5   11.45    6.39
  -8  -2   5  255.57   11.73
  -8   2   5  263.21   12.97
  -6  -2   5    1.04    4.83
  -6   2   5    6.07    5.43
  -6   2   5    2.83    5.29
  -4  -2   5   12.30    5.29
  -4   2   5    7.51    5.58
  -4   2   5    1.24    4.92
  -2  -2   5  203.45   10.93
  -2  -2   5  192.54    7.52
  -2   2   5  186.54   10.98
   0  -2   5   13.28    4.82
   0  -2   5   20.94    6.08
   0   2   5   17.89    5.95
   0   2   5   10.96    5.28
   0   2  -5    8.74    2.71
   2  -2   5    0.14    5.10
   2  -2   5    8.60    5.52
   2   2   5   13.73    6.22
   2   2   5    1.71    4.93
   4  -2   5  235.04   13.65
   4  -2   5  261.70   13.87
   4   2   5  245.34   14.71
   4   2   5  250.77   12.45
   6  -2   5    3.62    7.19
   6  -2   5    4.72    6.59
   6   2   5    0.64    6.94
   6   2   5   12.90    6.02
   8  -2   5   10.48    6.97
   8  -2   5   13.13    8.13
   8   2   5   -5.61    7.45
  10  -2   5   91.17   14.07
  10  -2   5   64.88   11.01
  10   2   5   57.66   11.78
  15  -3  -5   24.91    9.05
  15   3  -5   38.89   10.32
  13  -3  -5   34.98    9.01
 -13   3   5   17.37    7.58
  11  -3  -5  124.90   11.78
 -11   3   5  135.51   12.24
   9  -3  -5   29.49    7.44
  -9  -3   5   28.15    6.05
  -9   3   5   18.85    6.82
  -7  -3   5   -6.25    4.66
  -7   3   5   -1.33    5.30
  -5  -3   5  108.78    8.77
  -5   3   5   98.90    9.73
   5   3  -5  110.62    9.02
  -5   3   5  112.76   10.05
  -3  -3   5  115.46    9.00
  -3  -3   5  120.32    4.71
  -3   3   5  110.70   10.01
  -3   3   5  114.89    9.72
   3   3  -5  111.79    8.12
  -1  -3   5   88.30    6.36
  -1  -3   5   85.83    8.98
  -1   3   5   67.66    8.90
   1   3  -5   77.64    6.28
  -1   3   5   64.60    7.94
   1  -3   5  305.55   11.70
   1  -3   5  304.07   14.13
   1   3   5  285.59   14.13
   1   3   5  297.12   12.96
   3  -3   5   65.82    8.72
   3  -3   5   69.09    8.65
   3   3   5   62.57    9.55
   3   3   5   86.70    7.66
   3   3   5   59.21    7.80
   5  -3   5    5.51    6.45
   5  -3   5    4.67    6.85
   5   3   5    1.66    6.83
   5   3   5   -2.22    5.20
   7  -3   5   50.06    9.77
   7  -3   5   42.15    9.76
   7   3   5   37.25    9.72
   9  -3   5   44.72   10.94
   9  -3   5   39.16   10.02
   9   3   5   39.23   10.70
  14  -4  -5   21.18    8.80
  14   4  -5   23.39    9.32
 -14   4   5    5.01    7.97
  12  -4  -5   -1.92    7.12
  12   4  -5   13.07    8.53
 -12   4   5    7.08    7.65
  10  -4  -5    5.25    6.73
 -10   4   5    9.87    7.26
  10   4  -5   -7.26    6.53
  -8   4   5    1.15    5.98
   8   4  -5   10.89    6.91
  -6  -4   5    2.81    4.75
   6   4  -5    4.52    5.76
  -6   4   5    1.55    6.09
  -4  -4   5   35.57    6.09
  -4   4   5   31.23    7.30
   4   4  -5   29.72    6.51
  -4   4   5   30.89    7.34
  -2  -4   5  102.51    9.38
  -2   4   5  112.84    9.98
   2   4  -5  115.61    8.91
  -2   4   5   89.52   10.31
   0  -4   5   24.77    5.33
   0  -4   5   13.28    5.93
   0   4   5   23.10    7.39
   0   4   5   20.75    6.52
   0   4  -5   25.61    4.62
   0   4   5   30.55    8.13
   2  -4   5    3.56    5.28
   2  -4   5   -2.77    5.25
   2   4   5    3.95    5.26
   2   4   5    3.90    6.81
   2   4   5    6.13    5.18
   4  -4   5    1.56    6.14
   4  -4   5   -2.79    5.86
   4   4   5   -1.31    4.86
   4   4   5   -0.80    6.94
   6  -4   5    0.93    7.43
   6  -4   5   -7.65    6.14
   6   4   5    0.22    7.34
   8  -4   5    7.31    8.52
   8  -4   5   -9.59    7.62
   8   4   5    6.25    8.13
  13  -5  -5    4.14    8.08
 -13   5   5   -6.60    7.34
  13   5  -5    6.67    9.37
  11  -5  -5   32.21    9.51
  11   5  -5   41.32   10.04
 -11   5   5   17.76    8.58
   9   5  -5    6.72    7.56
  -9   5   5   23.69    8.21
   7   5  -5   45.57    8.55
  -7   5   5   36.82    8.67
  -5  -5   5    1.77    4.48
   5   5  -5   11.12    6.41
  -5   5   5    4.35    6.35
  -3  -5   5  109.21    9.93
   3   5  -5  120.44   10.19
  -3   5   5  118.37   11.48
  -3   5   5  125.47   10.76
  -1  -5   5    1.39    5.61
  -1   5   5    5.27    6.50
  -1   5   5   -0.39    5.51
   1   5  -5    1.84    4.68
   1  -5   5   71.64    7.95
   1  -5   5   80.96    9.78
   1   5   5   76.88    9.37
   1   5   5   76.61    8.39
   1   5   5   84.82   10.97
   3  -5   5   19.91    6.77
   3  -5   5   23.73    7.48
   3   5   5   16.82    6.49
   3   5   5   25.72    8.07
   3   5   5   21.35    8.32
   5  -5   5   35.21    8.68
   5  -5   5   33.28    9.11
   5   5   5   33.16    9.01
   7  -5   5   -9.89    7.49
   7  -5   5   -7.01    7.20
   7   5   5    3.36    7.70
  12  -6  -5    4.46    8.44
 -12   6   5   -2.53    8.06
  12   6  -5   16.56    9.25
  10  -6  -5   14.21    8.34
  10   6  -5    0.29    7.58
 -10   6   5    2.81    7.41
  -8   6   5   41.39    9.56
   8   6  -5   48.63   10.13
   6   6  -5   18.77    7.96
  -6   6   5   16.81    7.99
  -4  -6   5   -9.74    4.39
  -4   6   5    7.81    6.94
   4   6  -5   -2.18    6.03
  -2  -6   5  201.25   12.16
   2   6  -5  194.52   12.29
  -2   6   5  206.16   15.12
   0  -6   5    4.63    6.02
   0   6   5    6.03    6.82
   0   6   5   -4.12    5.23
   0   6   5   11.45    6.75
   2  -6   5   -3.39    5.98
   2   6   5   -0.11    6.21
   2   6   5   -6.20    6.71
   4  -6   5   55.03    9.44
   4  -6   5   43.02    9.54
   4   6   5   68.92    9.67
   4   6   5   52.98   10.43
   4   6   5   58.66   10.42
   6  -6   5   -3.02    7.53
   6  -6   5   -6.04    6.88
   6   6   5   20.86    9.03
  11  -7  -5   53.59   11.83
  11   7  -5   30.98   10.80
 -11   7   5   48.90   11.92
   9  -7  -5   13.88    9.59
  -9   7   5   -1.40    7.97
   9   7  -5   15.47    9.25
   7   7  -5   22.21    9.20
  -7   7   5   13.62    8.45
   5   7  -5  150.32   14.07
  -5   7   5  119.51   13.62
  -3   7   5   28.30    9.38
   3   7  -5   17.15    7.93
  -1  -7   5    8.07    6.42
  -1   7   5    2.73    7.51
   1  -7   5   72.40   10.19
   1   7   5   53.88   10.32
   1   7   5   64.39   10.73
   3  -7   5   18.50    8.55
   3   7   5   16.94    8.37
   3   7   5   25.41    8.79
   5  -7   5   24.61    9.68
   8   8  -5   78.44   13.37
  -8   8   5   77.89   13.27
   6   8  -5    8.11    9.03
  -6   8   5   19.77    9.50
   4   8  -5   22.70    9.37
  -4   8   5   16.66    9.19
  -2   8   5   -0.48    8.22
   2   8  -5   -7.85    7.31
   0  -8   5    9.11    6.98
   0   8   5   13.95    8.77
   0   8   5   21.49    9.27
   2  -8   5   32.86    9.13
   2   8   5   24.80    9.53
   2   8   5    2.88    8.20
   3   9  -5    0.28    9.04
  -3   9   5    2.74    9.08
  -1   9   5   34.25   11.06
 -10   0   6   26.51    7.48
  -8   0   6  137.22   10.08
  -8   0   6  152.55   11.51
  -6   0   6   -0.68    5.02
  -6   0   6   -6.48    5.37
  -4   0   6   30.53    6.87
  -2   0   6  331.96   14.90
  -2   0   6  325.46   12.33
   0   0   6   -2.02    4.89
   0   0   6   -2.06    5.13
   2   0   6   39.85    8.20
   2   0   6   40.84    8.52
   4   0   6  173.16   13.69
   4   0   6  161.60   13.33
   6   0   6    9.11    7.28
   6   0   6   -5.38    8.21
   8   0   6   -6.54    8.59
   8   0   6    7.99    7.35
  11  -1  -6  128.94   10.27
 -11   1   6  131.79   13.16
   9  -1  -6    2.16    5.13
  -9  -1   6    9.25    6.19
  -9   1   6   14.39    6.16
  -9   1   6   -3.00    5.97
  -7  -1   6    3.92    4.96
  -7  -1   6    4.81    6.18
  -7   1   6   -0.44    5.87
  -7   1   6   10.42    5.51
  -5  -1   6   54.55    7.81
  -5   1   6   71.89    8.58
  -5   1   6   63.33    8.86
  -3  -1   6    7.72    4.07
  -3  -1   6    1.07    5.12
  -3   1   6    7.56    6.12
  -1  -1   6    5.28    5.01
  -1  -1   6    5.56    5.30
  -1   1   6   14.83    6.30
  -1   1   6    7.28    5.70
   1  -1   6  236.16   12.77
   1  -1   6  229.35   13.90
   1   1   6  250.64   14.12
   1   1   6  238.39   13.33
   3  -1   6   30.52    7.92
   3  -1   6   16.74    7.38
   3   1   6   21.84    8.01
   3   1   6    3.44    6.14
   5  -1   6   15.80    7.33
   5  -1   6   10.71    7.58
   5   1   6    3.87    6.54
   5   1   6   17.20    8.35
   7  -1   6   56.53   11.20
   7  -1   6   26.18    8.51
   7   1   6   39.13    9.24
   7   1   6   44.90   11.15
   9  -1   6   -3.59    7.29
   9  -1   6   -1.64    8.89
   9   1   6    2.73    9.43
  12  -2  -6    4.85    6.09
 -12   2   6   13.96    8.13
 -10  -2   6    4.02    6.01
  10  -2  -6    6.50    5.70
 -10   2   6    2.39    6.23
  -8  -2   6    8.59    6.13
  -8   2   6   -6.28    5.58
  -8   2   6    9.26    6.13
  -6  -2   6    2.89    5.35
  -6   2   6   13.21    6.35
  -6   2   6    4.78    5.81
  -4  -2   6    8.82    5.87
  -4   2   6    5.49    6.14
  -4   2   6   11.06    6.45
  -2  -2   6   -0.15    5.01
  -2  -2   6   -2.66    3.73
  -2   2   6   -5.00    5.38
  -2   2   6   11.05    5.95
   2   2  -6    2.15    3.63
   0  -2   6    3.23    5.45
   0  -2   6   10.59    6.86
   0   2   6   14.22    6.50
   0   2   6    8.23    6.30
   2  -2   6   22.36    7.10
   2  -2   6   36.32    7.41
   2   2   6   50.77    8.37
   2   2   6   38.10    8.48
   4  -2   6   23.56    8.12
   4  -2   6   17.26    7.40
   4   2   6   29.32    8.55
   4   2   6   14.80    6.47
   6  -2   6    0.22    8.01
   6  -2   6   12.28    7.34
   6   2   6    7.28    6.52
   6   2   6   10.66    8.37
   8  -2   6   15.66   10.23
   8  -2   6   29.84    9.20
   8   2   6   30.65    9.86
  13  -3  -6    7.92    7.21
 -13   3   6   -7.87    8.57
  11  -3  -6   12.25    7.35
 -11   3   6   30.50    8.44
  -9  -3   6   13.76    6.08
  -9   3   6   11.69    6.97
  -7  -3   6    1.68    5.28
  -7   3   6    0.01    6.28
  -7   3   6    2.21    6.16
  -5  -3   6   94.25    9.42
  -5   3   6  107.48   11.27
   5   3  -6  117.50    9.60
  -5   3   6  105.91   10.56
  -3  -3   6    9.97    5.84
   3   3  -6   22.32    5.35
  -3   3   6   23.43    7.54
  -3   3   6    5.62    6.56
  -1  -3   6   65.20    9.34
  -1  -3   6   59.93    6.55
  -1   3   6   60.55    8.95
  -1   3   6   62.45    9.56
   1  -3   6   12.74    6.67
   1  -3   6    9.07    5.72
   1   3   6   17.04    7.76
   1   3   6   13.58    6.35
   3  -3   6   28.47    7.51
   3  -3   6   31.31    8.18
   3   3   6   31.82    9.05
   3   3   6   34.96    8.04
   5  -3   6    6.92    7.80
   5  -3   6    2.37    7.29
   5   3   6    6.90    8.04
   5   3   6    1.67    6.35
   7  -3   6   81.31   12.51
   7  -3   6   46.20    9.96
   7   3   6   56.51   11.27
  14   4  -6   25.31   10.41
  12  -4  -6   -3.33    7.00
 -12   4   6    0.12    7.22
  12   4  -6    8.26    8.63
  10  -4  -6   13.00    7.46
  10   4  -6   33.11    8.99
 -10   4   6   20.69    8.19
  -8  -4   6  237.73   12.71
   8   4  -6  236.80   14.34
  -8   4   6  241.62   15.40
  -6  -4   6    9.17    5.60
  -6   4   6    5.44    6.48
   6   4  -6    0.58    5.82
  -6   4   6   -9.39    6.42
  -4  -4   6   72.38    8.23
  -4   4   6   58.89    9.37
   4   4  -6   52.77    7.70
  -4   4   6   52.51    9.10
  -2  -4   6   99.34   10.56
  -2   4   6  102.44   11.63
   2   4  -6  114.69    8.64
  -2   4   6   93.15   10.32
   0  -4   6   -1.14    5.79
   0   4   6   -5.81    6.08
   0   4   6    6.88    7.63
   2  -4   6    6.53    6.71
   2  -4   6   22.11    6.52
   2   4   6   10.94    7.77
   2   4   6   12.17    6.71
   4  -4   6  146.89   13.13
   4  -4   6  163.75   13.47
   4   4   6  141.56   13.90
   6  -4   6    8.85    7.64
   6  -4   6    8.52    7.83
   6   4   6    0.75    8.24
  13  -5  -6   -1.46    7.84
  13   5  -6   -8.10    8.15
 -13   5   6   -2.70    8.11
  11  -5  -6   54.27   10.23
 -11   5   6   49.23   10.45
  11   5  -6   50.51   11.00
  -9   5   6    0.67    7.01
   9   5  -6    0.34    7.59
   7   5  -6   -4.61    6.19
  -7   5   6   -3.51    7.11
  -5  -5   6  220.28   12.30
  -5   5   6  221.52   15.48
  -5   5   6  220.85   14.48
   5   5  -6  212.79   13.39
  -3  -5   6   15.54    6.84
   3   5  -6    4.40    5.48
  -3   5   6   13.86    7.57
  -3   5   6   14.45    7.29
  -1  -5   6    6.61    6.41
  -1   5   6   -2.43    6.60
  -1   5   6   -3.77    5.70
   1  -5   6   73.12   10.26
   1   5   6   80.72    9.90
   1   5   6   91.56   12.17
   3  -5   6    3.81    8.48
   3  -5   6   -2.83    6.93
   3   5   6    6.36    8.10
   5  -5   6    5.42    7.53
   5  -5   6   12.45    8.09
   5   5   6    8.93    8.49
  10  -6  -6   -5.84    8.19
 -10   6   6    2.74    8.09
  10   6  -6   -4.22    8.27
   8   6  -6   27.63    8.69
  -8   6   6    5.86    7.76
  -6   6   6   17.18    8.67
   6   6  -6   -7.84    6.56
  -4  -6   6   21.84    6.75
   4   6  -6   32.07    8.17
  -4   6   6   22.89    8.94
  -2  -6   6   78.39   10.29
  -2   6   6   69.30   11.38
  -2   6   6   65.73    9.60
   0  -6   6   24.94    8.03
   0   6   6   -0.53    6.60
   0   6   6   18.24    8.51
   2  -6   6    0.13    6.65
   2   6   6   19.62    9.16
   2   6   6   -1.66    5.90
   4  -6   6    2.80    7.43
   4   6   6    9.95    9.23
   4   6   6    4.11    8.13
   9   7  -6  -15.13    8.37
  -9   7   6  -14.01    7.63
   7   7  -6   44.91   10.40
  -7   7   6   22.06    9.87
  -5   7   6    0.01    8.02
   5   7  -6   -7.68    7.42
  -3   7   6   46.77   11.00
  -1  -7   6   -1.78    6.80
  -1   7   6    3.35    8.24
   1  -7   6   18.34    8.35
   1   7   6   10.41    9.02
   3  -7   6   -0.43    7.76
   3   7   6  -17.62    7.28
  -6   8   6   14.06    9.51
   6   8  -6   10.10    9.01
  -4   8   6   18.16   10.18
  -2   8   6  114.94   15.35
   0  -8   6    5.74    7.56
   0   8   6   11.19    9.23
 -10   0   7   -7.35    6.45
  -8   0   7   -3.50    6.31
  -8   0   7    6.03    5.68
  -6   0   7   -5.11    6.26
  -4   0   7    0.76    6.39
  -2   0   7    1.25    5.44
  -2   0   7   -3.92    6.36
   0   0   7   -5.14    5.92
   0   0   7  -10.33    5.57
   2   0   7   -0.50    7.40
   2   0   7   -1.61    6.20
   4   0   7   -1.89    8.14
   4   0   7   -5.21    6.78
   6   0   7    8.34    9.54
   6   0   7   -8.11    6.95
 -11  -1   7  107.46   11.18
  -9  -1   7   34.87    8.40
  -9   1   7   50.60    8.45
  -9   1   7   27.15    8.51
  -7  -1   7    1.45    6.57
  -7  -1   7   13.39    5.73
  -7   1   7   14.28    6.82
  -7   1   7    5.42    6.87
  -5  -1   7   20.74    7.44
  -5   1   7   29.02    8.34
  -3  -1   7   11.49    5.08
  -3  -1   7   -3.73    6.32
  -3   1   7   -1.92    5.67
  -1  -1   7   22.17    6.68
  -1  -1   7   14.59    6.35
  -1   1   7   19.65    7.66
  -1   1   7   25.50    7.47
   1  -1   7   96.38   10.76
   1  -1   7  128.84   11.66
   1   1   7  111.72   11.82
   1   1   7  125.25   12.30
   3  -1   7   19.60    8.17
   3  -1   7   15.67    7.86
   3   1   7   30.36    9.10
   3   1   7   18.87    7.31
   5  -1   7   -3.03    7.64
   5  -1   7   -2.12    7.94
   5   1   7    0.84    8.59
   5   1   7   -6.27    6.34
   7  -1   7   20.85    9.09
   7  -1   7    9.29   10.51
   7   1   7    7.81    7.70
   7   1   7   16.18   10.22
  10  -2  -7   -7.14    5.33
 -10  -2   7   -3.67    6.18
 -10   2   7   11.41    7.01
  -8  -2   7  137.19   12.09
  -8   2   7  180.96   13.05
  -8   2   7  141.15   12.81
  -6  -2   7   42.49    8.21
  -6   2   7   23.64    7.28
  -6   2   7   36.53    8.26
  -4  -2   7   37.67    8.11
  -4   2   7   24.10    8.08
  -2  -2   7  142.13    9.57
  -2  -2   7  111.01   10.74
  -2   2   7  137.29   12.62
   0  -2   7   -8.04    5.18
   0  -2   7   10.41    6.88
   0   2   7    0.16    6.45
   0   2   7   -4.57    6.64
   2  -2   7   11.14    7.52
   2  -2   7   -3.59    6.66
   2   2   7    7.18    7.20
   2   2   7   21.44    8.43
   4  -2   7   92.51   12.00
   4  -2   7  134.58   13.59
   4   2   7  103.43   11.70
   4   2   7  107.37   13.57
   6  -2   7   25.27    9.99
   6  -2   7   19.77    8.52
   6   2   7    0.63    7.02
   6   2   7   31.18   11.18
  11  -3  -7   16.32    7.11
 -11   3   7   30.08    8.76
  -9  -3   7    0.12    6.57
  -9   3   7    4.48    7.19
  -7  -3   7   -0.98    6.06
  -7   3   7    1.36    6.34
  -7   3   7    0.93    7.21
  -5  -3   7  209.73   13.76
  -5   3   7  210.35   14.44
   5   3  -7  215.27   12.09
  -5   3   7  225.67   15.70
  -3  -3   7   46.51    8.19
  -3   3   7   55.83   10.07
  -3   3   7   68.93   10.47
  -1  -3   7    7.45    7.49
  -1   3   7   -3.45    6.44
  -1   3   7    0.61    7.49
   1  -3   7   25.54    8.74
   1  -3   7   50.20    8.45
   1   3   7   21.04    7.63
   1   3   7   38.41   10.01
   3  -3   7   -2.79    6.97
   3  -3   7   -5.19    6.73
   3   3   7    6.19    6.88
   3   3   7   -0.12    7.63
   5  -3   7    8.39    8.53
   5  -3   7  -14.65    6.46
   5   3   7    9.66    9.62
  12  -4  -7    5.38    7.70
 -12   4   7   27.37    9.53
  12   4  -7   25.44    9.79
  10   4  -7   -2.12    7.71
 -10   4   7    1.74    7.88
  -8  -4   7   18.70    7.27
  -8   4   7    6.25    7.83
   8   4  -7   18.68    7.89
  -6  -4   7    2.19    5.94
   6   4  -7   -4.56    6.03
  -6   4   7    2.87    7.82
  -6   4   7   -2.01    7.15
  -4  -4   7   -1.11    6.05
  -4   4   7   -6.56    6.13
  -4   4   7    2.81    7.01
   4   4  -7    2.11    7.02
  -2  -4   7   17.92    7.60
  -2   4   7    4.09    7.59
  -2   4   7    9.24    7.65
   0  -4   7   18.97    8.41
   0   4   7   20.04    7.74
   0   4   7   34.93   10.50
   2  -4   7  -11.54    6.46
   2   4   7   -4.94    8.17
   2   4   7    8.85    7.11
   4  -4   7   27.10    9.14
   4  -4   7   17.01    8.78
   4   4   7   10.51    9.18
  11  -5  -7    0.78    7.31
 -11   5   7   -0.65    8.62
  11   5  -7   10.29    8.86
   9   5  -7   22.87    8.68
  -9   5   7   25.77    9.30
  -7   5   7   -3.31    7.12
   7   5  -7    6.66    6.89
  -5  -5   7   52.97    9.23
   5   5  -7   62.02    9.28
  -5   5   7   46.33    9.95
  -5   5   7   57.87   10.46
  -3  -5   7    7.81    6.72
  -3   5   7    6.94    7.87
  -3   5   7   13.86    7.91
  -1  -5   7   17.55    8.80
  -1   5   7    3.73    7.22
  -1   5   7    6.43    8.57
   1  -5   7   -0.78    6.67
   1   5   7   -0.94    6.84
   1   5   7    2.00    8.21
   3  -5   7   25.73    8.73
   3   5   7   15.74    9.56
 -10   6   7   20.13   10.05
  10   6  -7   17.52    9.57
   8   6  -7   31.79    9.22
  -8   6   7   24.16    9.66
   6   6  -7   19.01    8.62
  -6   6   7   -3.06    7.41
  -4  -6   7    6.23    7.09
  -4   6   7    8.26    7.92
  -4   6   7   -1.62    7.34
  -2  -6   7   91.37   11.69
  -2   6   7  103.13   12.43
  -2   6   7   90.80   12.86
   0  -6   7   16.79    9.17
   0   6   7   23.18    9.99
   2  -6   7   27.58    9.54
   2   6   7   22.21    9.97
   7   7  -7    6.31    8.32
  -7   7   7    3.50    9.22
  -5   7   7   19.26   10.26
  -3   7   7    0.83    8.54
  -1  -7   7    0.60    7.93
  -1   7   7   -2.33    8.42
   1  -7   7  127.88   14.00
   1   7   7  102.94   14.30
 -10   0   8   18.34    8.92
  -8   0   8  195.39   13.68
  -8   0   8  188.75   15.39
  -6   0   8  127.91   13.71
  -4   0   8  231.33   16.05
  -2   0   8   49.44   10.05
  -2   0   8   50.61    8.72
   0   0   8   -6.50    7.19
   0   0   8   -8.63    6.47
   2   0   8   -9.74    7.28
   2   0   8   -2.26    6.80
   4   0   8  109.55   14.22
   4   0   8   56.37   10.55
 -11  -1   8   13.47    8.64
 -11   1   8   17.65    8.82
  -9  -1   8   -0.60    7.16
  -9   1   8   11.67    7.19
  -9   1   8   14.03    8.05
  -7  -1   8    2.57    7.46
  -7   1   8   -8.16    6.38
  -7   1   8    2.60    7.36
  -5  -1   8   95.21   11.60
  -5   1   8  106.93   12.25
  -3  -1   8   32.17    9.06
  -3   1   8   45.82    9.30
  -1  -1   8   67.82   11.02
  -1  -1   8   93.12    9.94
  -1   1   8   75.89   11.24
  -1   1   8   67.66   10.68
   1  -1   8   10.09    7.36
   1  -1   8   14.81    7.95
   1   1   8   28.52    9.22
   1   1   8   31.93    9.16
   3  -1   8   -6.71    6.96
   3  -1   8   -4.57    8.28
   3   1   8    3.73    8.70
   3   1   8   17.41    8.29
   5  -1   8    5.97    9.81
   5  -1   8   -4.70    7.20
   5   1   8    5.59    7.48
   5   1   8   10.36    9.58
 -10  -2   8   27.26    8.70
 -10   2   8   20.91    8.31
 -10   2   8   39.51    9.97
  -8  -2   8    2.28    7.28
  -8   2   8    5.84    7.22
  -8   2   8    2.68    7.34
  -6  -2   8   21.72    7.96
  -6   2   8    5.94    7.84
  -6   2   8   21.18    8.58
  -4  -2   8   60.52   10.61
  -4   2   8   59.69   10.74
  -2  -2   8   23.29    7.88
  -2   2   8   28.85    9.18
   0  -2   8   74.84   10.80
   0   2   8   49.19   10.93
   0   2   8   63.94   10.48
   2  -2   8   52.02   10.62
   2  -2   8   72.42   10.79
   2   2   8   62.07   10.77
   2   2   8   68.28   11.90
   4  -2   8   -0.70    8.67
   4  -2   8    8.69    8.88
   4   2   8    2.93    8.07
   4   2   8   -4.68    9.81
 -11   3   8   -0.68    7.96
  -9  -3   8    7.99    7.65
  -9   3   8   19.15    8.62
  -9   3   8    3.92    8.13
  -7  -3   8   15.79    8.16
  -7   3   8   16.92    8.90
  -7   3   8    5.99    8.40
  -5  -3   8    5.46    7.76
  -5   3   8   17.98    8.84
  -5   3   8    6.14    7.86
  -3  -3   8   15.76    8.07
  -3   3   8    2.23    7.83
  -3   3   8   -0.63    8.12
  -1  -3   8   24.49    8.36
  -1   3   8   27.85    9.04
   1  -3   8   15.71    8.59
   1   3   8   22.02   10.55
   1   3   8   33.63    9.35
   3  -3   8    5.27    8.41
   3   3   8    9.45    7.81
   3   3   8  -10.39    8.08
 -12   4   8   45.19   11.10
  12   4  -8   70.40   12.25
  10   4  -8  107.55   12.92
 -10   4   8  107.84   14.00
  -8  -4   8   27.31    8.43
  -8   4   8    9.90    9.02
  -8   4   8   21.54    9.76
   8   4  -8   13.07    7.80
  -6  -4   8   -3.89    7.02
  -6   4   8   -4.12    7.94
  -6   4   8   -5.64    7.38
  -4  -4   8   11.21    7.87
  -4   4   8   -5.01    7.33
  -4   4   8   -5.05    6.97
  -2  -4   8  108.97   12.02
  -2   4   8   83.54   12.19
  -2   4   8   71.94   12.12
   0  -4   8   40.26   10.22
   0   4   8   54.08   11.03
   2  -4   8   84.50   12.90
   2   4   8  115.57   15.32
   2   4   8   86.39   12.26
  -9   5   8   42.72   11.07
   9   5  -8   39.21   10.02
  -7   5   8   70.71   13.04
  -7   5   8   41.90   11.15
  -5  -5   8   22.85    8.49
  -5   5   8   -6.53    8.01
  -5   5   8   -6.40    8.55
  -3  -5   8    9.03    7.44
  -3   5   8    0.71    8.19
  -3   5   8   -6.64    7.51
  -1  -5   8    3.70    8.33
  -1   5   8   -0.57    8.37
  -1   5   8    5.99    7.84
   1  -5   8  122.03   14.53
   1   5   8  137.03   16.30
   8   6  -8   27.30   11.91
  -8   6   8   10.14    9.14
  -6   6   8   49.15   12.13
  -4  -6   8   33.16    9.14
  -4   6   8   18.49    9.66
  -4   6   8   31.02   10.35
  -2  -6   8    2.89    8.05
  -2   6   8   -2.79    8.19
  -2   6   8   -2.90    8.32
   0  -6   8   -1.64    8.52
   0   6   8   14.18   10.24
 -12   0   9    9.58    9.25
 -10   0   9   -0.80    8.26
  -8   0   9   -4.87    7.61
  -8   0   9   -3.37    6.92
  -6   0   9   13.06    8.89
  -4   0   9    7.60    7.85
  -2   0   9   -3.10    8.29
  -2   0   9   -0.49    7.35
   0   0   9   -9.17    7.52
   0   0   9   -7.47    7.70
   2   0   9   11.96    9.71
   2   0   9   -0.28    7.89
 -11  -1   9   -3.33    8.21
 -11   1   9    1.39    8.87
  -9  -1   9   -5.11    8.13
  -9   1   9   -1.71    7.50
  -9   1   9    4.52    8.39
  -7  -1   9  -11.52    7.59
  -7   1   9    1.32    7.51
  -7   1   9   -0.63    8.21
  -5  -1   9  129.45   14.27
  -5   1   9  118.87   14.41
  -3  -1   9   29.11    9.95
  -3   1   9   16.70    9.18
  -1  -1   9   90.77   13.29
  -1   1   9  108.12   13.87
  -1   1   9  104.28   12.97
   1  -1   9    7.71    8.89
   1  -1   9    2.65    7.93
   1   1   9   -9.83    8.42
   1   1   9   11.50    9.55
 -10  -2   9   45.64   10.66
 -10   2   9   28.15    9.38
 -10   2   9   49.57   11.19
  -8  -2   9   17.04    8.69
  -8   2   9   50.74   11.01
  -8   2   9   41.38    9.98
  -6  -2   9    6.41    8.82
  -6   2   9   13.80    9.09
  -6   2   9    4.82    8.36
  -4  -2   9   75.36   12.17
  -4   2   9   75.69   12.43
  -2  -2   9   30.38    9.72
  -2   2   9   39.87   10.67
   0  -2   9    3.08    7.95
   0   2   9   13.39    8.78
   0   2   9   28.07   10.70
   2  -2   9   20.66    9.30
   2   2   9   47.61   11.07
   2   2   9   59.89   13.31
 -11   3   9   85.41   13.42
  -9  -3   9   34.23   10.39
  -9   3   9   28.65   10.88
  -9   3   9   41.44   10.94
  -7  -3   9   86.34   12.16
  -7   3   9   85.96   12.86
  -7   3   9   93.55   13.25
  -5  -3   9    2.01    8.15
  -5   3   9   -2.13    8.27
  -5   3   9   14.86    9.38
  -3  -3   9   -6.19    7.67
  -3   3   9  -13.51    7.43
  -3   3   9   -7.02    8.56
  -1  -3   9   17.78    8.39
  -1   3   9    3.16    8.68
   1  -3   9  115.50   14.35
   1   3   9  123.04   16.20
   1   3   9  124.38   14.43
  -8  -4   9   -4.99    7.91
  -8   4   9    0.09    8.52
  -8   4   9  -11.85    7.89
  -6  -4   9    7.69    8.23
  -6   4   9    9.60    9.19
  -6   4   9   -7.55    8.43
  -4  -4   9   -1.12    8.55
  -4   4   9   13.27    9.54
  -4   4   9  -10.46    7.67
  -2  -4   9   -1.38    7.67
  -2   4   9   -3.87    8.70
  -2   4   9   -6.58    8.46
   0  -4   9   25.46    9.51
   0   4   9   -8.35    7.69
  -7   5   9   11.37   10.07
  -7   5   9   15.56    9.97
  -5  -5   9   -9.73    8.08
  -5   5   9    1.87    8.69
  -5   5   9   -3.81    9.06
  -3  -5   9    6.72    8.62
  -3   5   9   -3.82    8.56
  -3   5   9    7.44    9.16
  -8   0  10   -1.21    9.47
  -6   0  10    8.27   10.30
  -4   0  10   63.46   12.24
  -2   0  10    6.09    9.07
  -9  -1  10   12.70   10.54
  -9   1  10   12.69   10.24
  -7  -1  10   54.33   12.54
  -7   1  10   63.02   12.24
  -7   1  10   55.95   12.65
  -5  -1  10   -5.35    8.06
  -5   1  10   -9.60    8.99
  -3  -1  10    1.42    8.48
  -3   1  10    2.29    9.13
  -1  -1  10   36.60   12.07
  -1   1  10   37.14   11.60
  -1   1  10   21.23   10.42
  -8  -2  10    5.38    9.85
  -8   2  10  -11.77    7.34
  -8   2  10   -5.67    8.70
  -6  -2  10   15.77    9.90
  -6   2  10   34.01   11.36
  -6   2  10   17.45   10.30
  -4  -2  10    1.68    8.89
  -4   2  10   17.30   11.03
  -2  -2  10   -4.93    9.20
  -2   2  10    0.31    9.59
  -7   3  10   -3.67    8.84
  -5  -3  10   21.88   10.29
  -5   3  10   26.20   11.04
  -5   3  10   30.62   10.89
  -3   3  10   14.29   10.45
   0   0   0    0.00    0.00
;
_shelx_hkl_checksum              6379
loop_
_space_group_symop_operation_xyz
'x, y, z'
'-x, y, -z+1/2'
'x+1/2, y+1/2, z'
'-x+1/2, y+1/2, -z+1/2'
'-x, -y, -z'
'x, -y, z-1/2'
'-x+1/2, -y+1/2, -z'
'x+1/2, -y+1/2, z-1/2'
loop_
_atom_site_label
_atom_site_type_symbol
_atom_site_fract_x
_atom_site_fract_y
_atom_site_fract_z
_atom_site_U_iso_or_equiv
_atom_site_adp_type
_atom_site_occupancy
_atom_site_site_symmetry_order
_atom_site_calc_flag
_atom_site_refinement_flags_posn
_atom_site_refinement_flags_adp
_atom_site_refinement_flags_occupancy
P1 P 0.83185(9) 0.60511(13) 0.19098(14) 0.0094(3) Uani 1 1 d D . .
H01 H 0.908(3) 0.514(4) 0.316(4) 0.010 Uiso 1 1 d D U .
H02 H 0.893(2) 0.706(4) 0.124(4) 0.010 Uiso 1 1 d D U .
P2 P 0.5000 0.6241(2) 0.2500 0.0106(4) Uani 1 2 d DS T P
Al1 Al 0.7500 0.7500 0.5000 0.0085(4) Uani 1 2 d S . P
O2 O 0.7578(2) 0.7174(4) 0.2678(3) 0.0111(7) Uani 1 1 d . . .
O3 O 0.5822(2) 0.7285(4) 0.4036(4) 0.0120(6) Uani 1 1 d . . .
O1 O 0.7630(2) 0.4887(3) 0.0383(4) 0.0121(7) Uani 1 1 d . . .
H03 H 0.558(2) 0.515(3) 0.185(4) 0.010 Uiso 1 1 d D U .
loop_
_atom_site_aniso_label
_atom_site_aniso_U_11
_atom_site_aniso_U_22
_atom_site_aniso_U_33
_atom_site_aniso_U_23
_atom_site_aniso_U_13
_atom_site_aniso_U_12
P1 0.0114(5) 0.0083(5) 0.0081(6) -0.0012(4) 0.0025(4) -0.0003(5)
P2 0.0103(7) 0.0094(8) 0.0097(8) 0.000 0.0001(6) 0.000
Al1 0.0088(8) 0.0087(9) 0.0068(8) 0.0001(7) 0.0009(7) 0.0005(7)
O2 0.0144(15) 0.0125(16) 0.0067(14) -0.0002(11) 0.0041(12) 0.0026(12)
O3 0.0100(14) 0.0152(16) 0.0092(14) -0.0025(12) 0.0009(11) -0.0021(12)
O1 0.0180(16) 0.0093(15) 0.0069(15) -0.0008(11) 0.0014(12) 0.0024(12)
loop_
_atom_type_symbol
_atom_type_description
_atom_type_scat_dispersion_real
_atom_type_scat_dispersion_imag
_atom_type_scat_source
O O 0.0106 0.0060 'International Tables Vol C Tables 4.2.6.8 and 6.1.1.4'
H H 0.0000 0.0000 'International Tables Vol C Tables 4.2.6.8 and 6.1.1.4'
Al Al 0.0645 0.0514 'International Tables Vol C Tables 4.2.6.8 and 6.1.1.4'
P P 0.1023 0.0942 'International Tables Vol C Tables 4.2.6.8 and 6.1.1.4'
loop_
_geom_angle_atom_site_label_1
_geom_angle_atom_site_label_2
_geom_angle_atom_site_label_3
_geom_angle
_geom_angle_site_symmetry_1
_geom_angle_site_symmetry_3
O2 P1 O1 115.65(18) . .
O2 P1 H01 111.7(15) . .
O1 P1 H01 109.1(15) . .
O2 P1 H02 107.3(14) . .
O1 P1 H02 105.9(13) . .
H01 P1 H02 107(2) . .
O3 P2 O3 114.8(2) . 2_655
O3 P2 H03 112.3(13) . .
O3 P2 H03 108.8(14) 2_655 .
O2 Al1 O2 180.0 7_666 .
O2 Al1 O1 90.39(12) 7_666 6_566
O2 Al1 O1 89.62(12) . 6_566
O2 Al1 O1 89.61(12) 7_666 4_655
O2 Al1 O1 90.38(12) . 4_655
O1 Al1 O1 180.00(17) 6_566 4_655
O2 Al1 O3 89.59(12) 7_666 7_666
O2 Al1 O3 90.41(12) . 7_666
O1 Al1 O3 90.29(12) 6_566 7_666
O1 Al1 O3 89.71(12) 4_655 7_666
O2 Al1 O3 90.41(12) 7_666 .
O2 Al1 O3 89.59(12) . .
O1 Al1 O3 89.71(12) 6_566 .
O1 Al1 O3 90.29(12) 4_655 .
O3 Al1 O3 180.0 7_666 .
P1 O2 Al1 134.18(17) . .
P2 O3 Al1 132.90(18) . .
P1 O1 Al1 135.71(17) . 4_645
loop_
_geom_bond_atom_site_label_1
_geom_bond_atom_site_label_2
_geom_bond_distance
_geom_bond_site_symmetry_2
P1 O2 1.509(3) .
P1 O1 1.509(3) .
P1 H01 1.30(2) .
P1 H02 1.30(2) .
P2 O3 1.512(3) .
P2 O3 1.512(3) 2_655
P2 H03 1.30(2) .
Al1 O2 1.878(3) 7_666
Al1 O2 1.878(3) .
Al1 O1 1.886(3) 6_566
Al1 O1 1.886(3) 4_655
Al1 O3 1.897(3) 7_666
Al1 O3 1.897(3) .
O1 Al1 1.886(3) 4_645
