#------------------------------------------------------------------------------
#$Date: 2019-05-22 03:18:52 +0300 (Wed, 22 May 2019) $
#$Revision: 215362 $
#$URL: file:///home/coder/svn-repositories/cod/cif/7/12/35/7123506.cif $
#------------------------------------------------------------------------------
#
# This file is available in the Crystallography Open Database (COD),
# http://www.crystallography.net/
#
# All data on this site have been placed in the public domain by the
# contributors.
#
data_7123506
loop_
_publ_author_name
'Mao, Fei Fei'
'Hu, Chun-Li'
'Chen, Jin'
'Tang, Ruling'
'Wu, BaoLin'
'Mao, Jiang-Gao'
_publ_section_title
;
 (H3O)HCs2Nb(IO3)9 and SrNbO(IO3)5: A Facile Synthetic Method of Using
 Hydrofluoric Acid as Solubilizer
;
_journal_name_full               'Chemical Communications'
_journal_paper_doi               10.1039/C9CC02774B
_journal_year                    2019
_chemical_formula_sum            'Cs2 H4 I9 Nb O28'
_chemical_formula_weight         1952.86
_space_group_crystal_system      monoclinic
_space_group_IT_number           4
_space_group_name_Hall           'P 2yb'
_space_group_name_H-M_alt        'P 1 21 1'
_symmetry_space_group_name_Hall  'P 2yb'
_symmetry_space_group_name_H-M   'P 1 21 1'
_audit_creation_method           SHELXL-2018/3
_audit_update_record
;
2019-05-17 deposited with the CCDC.    2019-05-20 downloaded from the CCDC.
;
_cell_angle_alpha                90
_cell_angle_beta                 98.469(6)
_cell_angle_gamma                90
_cell_formula_units_Z            2
_cell_length_a                   12.5917(7)
_cell_length_b                   7.9965(4)
_cell_length_c                   14.3252(8)
_cell_measurement_reflns_used    5338
_cell_measurement_temperature    293(2)
_cell_measurement_theta_max      29.2390
_cell_measurement_theta_min      3.8540
_cell_volume                     1426.67(14)
_computing_cell_refinement       'CrysAlisPro, Agilent Technologies'
_computing_data_collection       'CrysAlisPro, Agilent Technologies'
_computing_data_reduction        'CrysAlisPro, Agilent Technologies'
_computing_molecular_graphics    'SHELXL-2018/3 (Sheldrick, 2018)'
_computing_publication_material  'DIAMOND 3.0'
_computing_structure_refinement  'SHELXL-2018/3 (Sheldrick, 2018)'
_computing_structure_solution    'SHELXL-2018/3 (Sheldrick, 2018)'
_diffrn_ambient_temperature      293(2)
_diffrn_measured_fraction_theta_full 0.996
_diffrn_measured_fraction_theta_max 0.996
_diffrn_measurement_device_type  'SuperNova, Dual, Cu at zero, Atlas'
_diffrn_measurement_method       '\w scans'
_diffrn_radiation_type           MoK\a
_diffrn_radiation_wavelength     0.71073
_diffrn_reflns_av_R_equivalents  0.0502
_diffrn_reflns_av_unetI/netI     0.0660
_diffrn_reflns_Laue_measured_fraction_full 0.996
_diffrn_reflns_Laue_measured_fraction_max 0.996
_diffrn_reflns_limit_h_max       15
_diffrn_reflns_limit_h_min       -15
_diffrn_reflns_limit_k_max       9
_diffrn_reflns_limit_k_min       -8
_diffrn_reflns_limit_l_max       17
_diffrn_reflns_limit_l_min       -17
_diffrn_reflns_number            10736
_diffrn_reflns_point_group_measured_fraction_full 0.863
_diffrn_reflns_point_group_measured_fraction_max 0.855
_diffrn_reflns_theta_full        25.242
_diffrn_reflns_theta_max         26.020
_diffrn_reflns_theta_min         3.374
_diffrn_source                   'fine-focus sealed X-ray tube'
_exptl_absorpt_coefficient_mu    12.781
_exptl_absorpt_correction_T_max  0.151
_exptl_absorpt_correction_T_min  0.071
_exptl_absorpt_correction_type   multi-scan
_exptl_absorpt_process_details   gaussian
_exptl_crystal_colour            Colorless
_exptl_crystal_density_diffrn    4.546
_exptl_crystal_density_method    'not measured'
_exptl_crystal_description       PLATE
_exptl_crystal_F_000             1712
_exptl_crystal_size_max          0.2024
_exptl_crystal_size_mid          0.1555
_exptl_crystal_size_min          0.0329
_refine_diff_density_max         2.683
_refine_diff_density_min         -1.662
_refine_diff_density_rms         0.316
_refine_ls_abs_structure_details
;
 Flack x determined using 1543 quotients [(I+)-(I-)]/[(I+)+(I-)]
 (Parsons, Flack and Wagner, Acta Cryst. B69 (2013) 249-259).
;
_refine_ls_abs_structure_Flack   -0.06(4)
_refine_ls_extinction_method     none
_refine_ls_goodness_of_fit_ref   1.039
_refine_ls_hydrogen_treatment    undef
_refine_ls_matrix_type           full
_refine_ls_number_parameters     361
_refine_ls_number_reflns         4814
_refine_ls_number_restraints     13
_refine_ls_restrained_S_all      1.039
_refine_ls_R_factor_all          0.0414
_refine_ls_R_factor_gt           0.0380
_refine_ls_shift/su_max          0.000
_refine_ls_shift/su_mean         0.000
_refine_ls_structure_factor_coef Fsqd
_refine_ls_weighting_details
'w=1/[\s^2^(Fo^2^)+(0.0359P)^2^] where P=(Fo^2^+2Fc^2^)/3'
_refine_ls_weighting_scheme      calc
_refine_ls_wR_factor_gt          0.0817
_refine_ls_wR_factor_ref         0.0850
_reflns_Friedel_coverage         0.596
_reflns_Friedel_fraction_full    0.708
_reflns_Friedel_fraction_max     0.691
_reflns_number_gt                4497
_reflns_number_total             4814
_reflns_threshold_expression     'I > 2\s(I)'
_cod_data_source_file            c9cc02774b2.cif
_cod_data_source_block           shelx
_cod_depositor_comments
;
The following automatic conversions were performed:

'_geom_bond_publ_flag' value 'NO' changed to 'no' according to
/home/data/users/saulius/crontab/automatic-downloads/rss-feeds/RSC/lib/dictionaries/cif_core.dic
dictionary named 'cif_core.dic' version 2.4.2 from 2011-04-26 (2
times).

Automatic conversion script
Id: cif_fix_values 4973 2017-02-22 13:04:09Z antanas 
;
_cod_original_cell_volume        1426.67(13)
_cod_database_code               7123506
_shelx_shelxl_version_number     2018/3
_shelx_space_group_comment
;
The symmetry employed for this shelxl refinement is uniquely defined
by the following loop, which should always be used as a source of
symmetry information in preference to the above space-group names.
They are only intended as comments.
;
_shelx_res_file
;
TITL (H3O)HCs2Nb(IO3)9 in P2(1)
    shelx.res
    created by SHELXL-2018/3 at 11:07:27 on 17-May-2019
CELL  0.71073  12.5917   7.9965  14.3252   90.000   98.469   90.000
ZERR     2.00   0.0007   0.0004   0.0008    0.000    0.006    0.000
LATT  -1
SYMM  - X, 1/2 + Y, - Z
SFAC  O    H    NB   I    CS
UNIT  56 8 2 18 4
MERG   2
OMIT    -2   0   4
OMIT     9   1   3
OMIT     8   1   2
OMIT     2  -6   6
OMIT    -8  -3   9
OMIT    -3   1   3
OMIT    11   5   3
OMIT     1   0   4
ISOR 0.003 0.006 O3 O13
FMAP   2
PLAN  100
ACTA
BOND
L.S.  14
WGHT    0.035900
FVAR       0.04601
CS1   5    0.429841    0.037880    0.912960    11.00000    0.03685    0.03116 =
         0.03348    0.00203    0.00240    0.00224
CS2   5    0.565985    0.000955    0.597071    11.00000    0.02941    0.03352 =
         0.03080    0.00607    0.00304    0.00676
NB1   3    0.499770    0.501639    0.745770    11.00000    0.01057    0.01292 =
         0.01225   -0.00047    0.00021   -0.00041
I1    4    0.717003    0.547632    0.602880    11.00000    0.01376    0.01515 =
         0.01072   -0.00016    0.00157   -0.00101
I2    4    0.738610    0.295496    0.863745    11.00000    0.01266    0.01189 =
         0.01367    0.00159    0.00184    0.00046
I3    4    0.711975    0.794557    0.859219    11.00000    0.01660    0.01275 =
         0.01454   -0.00268    0.00002   -0.00240
I4    4    0.269705    0.716048    0.609159    11.00000    0.01536    0.01159 =
         0.01438    0.00189    0.00124   -0.00034
I5    4    0.283941    0.546917    0.888807    11.00000    0.01542    0.01400 =
         0.01205    0.00113    0.00398    0.00159
I6    4    0.279967    0.211559    0.659997    11.00000    0.01443    0.01144 =
         0.01263   -0.00134    0.00239   -0.00072
I7    4    0.016674    0.957784    0.488015    11.00000    0.01309    0.01694 =
         0.01663   -0.00108    0.00070    0.00146
I8    4    0.047900    0.166201    0.757526    11.00000    0.01834    0.01940 =
         0.01435   -0.00028    0.00438    0.00279
I9    4    0.016992   -0.439859    1.010280    11.00000    0.01122    0.02034 =
         0.01513    0.00018    0.00160    0.00049
O1    1    0.648033    0.664312    0.504276    11.00000    0.01707    0.02563 =
         0.01532    0.01006    0.00029    0.00453
O2    1    0.753642    0.714329    0.685178    11.00000    0.03373    0.01518 =
         0.02265   -0.00948    0.00212   -0.00120
O3    1    0.586757    0.481490    0.645605    11.00000    0.01541    0.01876 =
         0.01524    0.00100    0.00725   -0.00439
O4    1    0.781387    0.324384    0.750614    11.00000    0.03233    0.02722 =
         0.01683    0.00684    0.01344    0.00723
O5    1    0.769153    0.496837    0.916461    11.00000    0.03436    0.00868 =
         0.03876   -0.00963   -0.00548   -0.00341
O6    1    0.593808    0.334675    0.825914    11.00000    0.00844    0.02209 =
         0.02656    0.00722    0.00023    0.00288
O7    1    0.671134    0.992071    0.807473    11.00000    0.04334    0.01111 =
         0.03211    0.00202   -0.00723    0.00112
O8    1    0.586655    0.683394    0.804686    11.00000    0.01007    0.02862 =
         0.01548   -0.00486    0.00011   -0.00795
O9    1    0.666841    0.819488    0.970590    11.00000    0.04360    0.02345 =
         0.01402   -0.00996    0.00387   -0.00617
O10   1    0.405917    0.664695    0.680728    11.00000    0.01424    0.01218 =
         0.02593    0.00702   -0.00436   -0.00378
O11   1    0.328420    0.783968    0.510801    11.00000    0.03157    0.02350 =
         0.01762    0.00964    0.00992    0.00277
O12   1    0.238108    0.505596    0.575986    11.00000    0.04295    0.00924 =
         0.03537    0.00730   -0.01021   -0.00278
O13   1    0.418509    0.494472    0.853352    11.00000    0.01119    0.01958 =
         0.01355   -0.00170    0.00149    0.00198
O14   1    0.337565    0.696230    0.976134    11.00000    0.03624    0.01938 =
         0.02024   -0.01289    0.00866   -0.00065
O15   1    0.233307    0.680612    0.792886    11.00000    0.02413    0.03054 =
         0.01532    0.01511    0.00973    0.00928
O16   1    0.414414    0.316291    0.683546    11.00000    0.01338    0.01369 =
         0.01851   -0.00023    0.00170   -0.00043
O17   1    0.335186    0.010969    0.691130    11.00000    0.02666    0.00876 =
         0.02561    0.00366    0.00457    0.00184
O18   1    0.239090    0.274993    0.772321    11.00000    0.02683    0.02402 =
         0.01030    0.00063    0.00686    0.00330
O19   1    0.091739    0.767969    0.520963    11.00000    0.01660    0.02168 =
         0.02295   -0.01061    0.00181    0.00342
O20   1   -0.020010    0.916902    0.362444    11.00000    0.03510    0.02555 =
         0.02552   -0.00211   -0.00210    0.00266
O21   1    0.124334    1.104872    0.478766    11.00000    0.01671    0.03055 =
         0.01746    0.00398   -0.00018   -0.00642
O22   1    0.105932    0.068971    0.663445    11.00000    0.01573    0.02312 =
         0.02158   -0.00151    0.00040    0.00736
O23   1    0.089500    0.012424    0.846673    11.00000    0.02542    0.02595 =
         0.02445    0.01015   -0.00139    0.00708
O24   1   -0.091460    0.087459    0.712868    11.00000    0.03839    0.03421 =
         0.02287   -0.00521    0.00276    0.00237
O25   1    0.058889   -0.266334    1.089600    11.00000    0.01750    0.02251 =
         0.02421   -0.00470   -0.00014   -0.00338
O26   1    0.099367   -0.606458    1.065384    11.00000    0.01138    0.02704 =
         0.04176    0.01172    0.00157    0.00525
O27   1    0.097510   -0.383640    0.921419    11.00000    0.02471    0.04636 =
         0.02710    0.01237    0.01294    0.01127
O1H   1   -0.016641   -0.279574    0.725255    11.00000    0.02754    0.03015 =
         0.04265   -0.01948   -0.00854    0.00728
HKLF    4




REM  (H3O)HCs2Nb(IO3)9 in P2(1)
REM wR2 = 0.0850, GooF = S = 1.039, Restrained GooF = 1.039 for all data
REM R1 = 0.0380 for 4497 Fo > 4sig(Fo) and 0.0414 for all 4814 data
REM 361 parameters refined using 13 restraints

END

WGHT      0.0358      0.0000

REM Highest difference peak  2.683,  deepest hole -1.662,  1-sigma level  0.316
Q1    1   0.0896 -0.2171  0.8184  11.00000  0.05    2.68
Q2    1   0.2236  0.2094  0.7006  11.00000  0.05    1.25
Q3    1  -0.1356  0.2261  0.6319  11.00000  0.05    1.24
Q4    1   0.1577  1.2413  0.5026  11.00000  0.05    1.14
Q5    1  -0.0871  0.2358  0.6966  11.00000  0.05    1.10
Q6    1   0.7620  0.7993  0.8204  11.00000  0.05    1.09
Q7    1   0.0431 -0.3417  1.1395  11.00000  0.05    1.07
Q8    1   0.6201 -0.0116  0.5485  11.00000  0.05    1.05
Q9    1   0.6847  0.2889  0.9028  11.00000  0.05    1.04
Q10   1   0.1211 -0.4438  1.1133  11.00000  0.05    1.04
Q11   1   0.3610  0.7034  0.7128  11.00000  0.05    1.04
Q12   1   0.1406  0.1839  0.6683  11.00000  0.05    1.03
Q13   1   0.7194  0.2277  0.7668  11.00000  0.05    1.00
Q14   1   0.6533  0.8135  0.9037  11.00000  0.05    0.99
Q15   1   0.1411 -0.0335  0.7856  11.00000  0.05    0.99
Q16   1   0.4239  0.7970  0.7721  11.00000  0.05    0.98
Q17   1   0.3425  0.5460  0.8526  11.00000  0.05    0.98
Q18   1   0.4649  0.2032  0.7769  11.00000  0.05    0.96
Q19   1   0.1536 -0.2068  1.0278  11.00000  0.05    0.95
Q20   1   0.7704  0.5664  0.5674  11.00000  0.05    0.95
Q21   1   0.3831  0.0391  0.9390  11.00000  0.05    0.95
Q22   1   0.3975  0.5001  0.6538  11.00000  0.05    0.95
Q23   1   0.1267  0.4744  0.4960  11.00000  0.05    0.95
Q24   1   0.4529 -0.0073  0.9647  11.00000  0.05    0.94
Q25   1   0.7609  0.2207  0.9383  11.00000  0.05    0.93
Q26   1  -0.0579 -0.3457  1.0623  11.00000  0.05    0.93
Q27   1   0.1821  0.5895  0.6805  11.00000  0.05    0.93
Q28   1   0.5394  0.0467  0.5544  11.00000  0.05    0.93
Q29   1  -0.0834  0.9432  0.3943  11.00000  0.05    0.93
Q30   1   0.4338 -0.0892  1.0162  11.00000  0.05    0.93
Q31   1   0.3572  0.3860  0.6911  11.00000  0.05    0.92
Q32   1  -0.0136  0.1031  0.7998  11.00000  0.05    0.91
Q33   1   0.4526  0.0990  0.9619  11.00000  0.05    0.91
Q34   1   0.1581  0.4605  0.8176  11.00000  0.05    0.90
Q35   1   0.7943  0.2987  0.8186  11.00000  0.05    0.90
Q36   1   0.3813  0.4774  0.7176  11.00000  0.05    0.90
Q37   1   0.0985  0.6640  0.5462  11.00000  0.05    0.89
Q38   1   0.2251  0.5527  0.9272  11.00000  0.05    0.89
Q39   1   0.2955  0.5582  0.6180  11.00000  0.05    0.89
Q40   1   0.1820  0.2392  0.9056  11.00000  0.05    0.88
Q41   1   0.1297  0.0572  0.9560  11.00000  0.05    0.88
Q42   1   0.1624  0.4036  0.6243  11.00000  0.05    0.88
Q43   1   0.8262  0.5549  0.7012  11.00000  0.05    0.88
Q44   1  -0.0484  1.0007  0.3179  11.00000  0.05    0.87
Q45   1   0.2145  0.0194  0.6357  11.00000  0.05    0.87
Q46   1   0.1241 -0.7699  1.0058  11.00000  0.05    0.86
Q47   1   0.0756  0.9250  0.4547  11.00000  0.05    0.86
Q48   1   0.5846  0.9937  0.9811  11.00000  0.05    0.86
Q49   1   0.1570  0.7294  0.5188  11.00000  0.05    0.85
Q50   1  -0.0899 -0.2725  0.6932  11.00000  0.05    0.85
Q51   1   0.6241 -0.1865  0.6198  11.00000  0.05    0.85
Q52   1   0.2360  0.7915  0.8641  11.00000  0.05    0.85
Q53   1   0.8201  0.4626  0.8865  11.00000  0.05    0.85
Q54   1   0.1922  0.7911  0.4251  11.00000  0.05    0.85
Q55   1   0.0813  0.7830  0.5506  11.00000  0.05    0.85
Q56   1   0.1063  0.1497  0.7170  11.00000  0.05    0.84
Q57   1   0.1225  0.6950  0.6053  11.00000  0.05    0.84
Q58   1   0.6367  0.4963  0.8361  11.00000  0.05    0.84
Q59   1   0.1183  0.9340  0.3239  11.00000  0.05    0.84
Q60   1   0.1152 -0.3011  0.9670  11.00000  0.05    0.83
Q61   1   0.1832 -0.2998  0.9407  11.00000  0.05    0.83
Q62   1   0.5939  0.3661  0.6682  11.00000  0.05    0.83
Q63   1   0.0636 -0.7097  1.0320  11.00000  0.05    0.82
Q64   1   0.1452  0.4923  0.7420  11.00000  0.05    0.82
Q65   1  -0.1406  0.1664  0.7158  11.00000  0.05    0.82
Q66   1   0.3616  0.3816  0.9202  11.00000  0.05    0.81
Q67   1   0.6997  0.3636  0.6410  11.00000  0.05    0.81
Q68   1   0.3674  0.0913  0.5995  11.00000  0.05    0.81
Q69   1   0.6378  0.6697  0.7879  11.00000  0.05    0.81
Q70   1   0.0834 -0.2573  1.0342  11.00000  0.05    0.81
Q71   1   0.2810  0.2060  0.7610  11.00000  0.05    0.81
Q72   1   0.7205  0.8802  0.9164  11.00000  0.05    0.81
Q73   1   0.0994  0.3637  0.8001  11.00000  0.05    0.81
Q74   1   0.3191  0.7214  0.5715  11.00000  0.05    0.80
Q75   1  -0.0805 -0.3479  0.7300  11.00000  0.05    0.80
Q76   1   0.3047  0.6152  0.9455  11.00000  0.05    0.80
Q77   1   0.0048 -0.2749  1.0178  11.00000  0.05    0.80
Q78   1   0.4198  0.5665  0.8416  11.00000  0.05    0.79
Q79   1   0.3849  0.5468  0.9800  11.00000  0.05    0.79
Q80   1   0.2182  1.1206  0.5087  11.00000  0.05    0.79
Q81   1   0.3995  0.5227  0.9990  11.00000  0.05    0.78
Q82   1   0.5012  0.6163  0.8961  11.00000  0.05    0.78
Q83   1   0.3751  0.5817  0.6791  11.00000  0.05    0.78
Q84   1   0.4345 -0.0018  0.8168  11.00000  0.05    0.78
Q85   1  -0.0556 -0.4971  0.7971  11.00000  0.05    0.78
Q86   1   0.6194  0.5091  0.8010  11.00000  0.05    0.78
Q87   1   0.5727  0.7137  0.7725  11.00000  0.05    0.76
Q88   1   0.0748 -0.4345  0.9665  11.00000  0.05    0.76
Q89   1   0.2682  0.4094  0.6726  11.00000  0.05    0.76
Q90   1  -0.0831  1.0178  0.4419  11.00000  0.05    0.76
Q91   1   0.1815 -0.5032  1.1601  11.00000  0.05    0.76
Q92   1   0.5424  0.5245  0.6992  11.00000  0.05    0.76
Q93   1  -0.0421  0.9419  0.5347  11.00000  0.05    0.76
Q94   1   0.5751  0.5673  0.6416  11.00000  0.05    0.76
Q95   1   0.8011  0.6686  0.8035  11.00000  0.05    0.76
Q96   1   0.1094 -0.0352  0.5995  11.00000  0.05    0.75
Q97   1   0.0512 -0.0313  0.7623  11.00000  0.05    0.75
Q98   1   0.1976 -0.3392  0.9569  11.00000  0.05    0.75
Q99   1   0.7324  0.9779  0.8183  11.00000  0.05    0.75
Q100  1   0.8173  0.1673  0.7781  11.00000  0.05    0.75
;
_shelx_res_checksum              64297
loop_
_space_group_symop_operation_xyz
'x, y, z'
'-x, y+1/2, -z'
loop_
_atom_site_label
_atom_site_type_symbol
_atom_site_fract_x
_atom_site_fract_y
_atom_site_fract_z
_atom_site_U_iso_or_equiv
_atom_site_adp_type
_atom_site_occupancy
_atom_site_site_symmetry_order
_atom_site_calc_flag
_atom_site_refinement_flags_adp
Cs1 Cs 0.42984(11) 0.03788(18) 0.91296(9) 0.0341(3) Uani 1 1 d .
Cs2 Cs 0.56599(11) 0.00096(17) 0.59707(9) 0.0314(3) Uani 1 1 d .
Nb1 Nb 0.49977(14) 0.5016(2) 0.74577(10) 0.0121(3) Uani 1 1 d .
I1 I 0.71700(9) 0.54763(15) 0.60288(7) 0.0132(2) Uani 1 1 d .
I2 I 0.73861(9) 0.29550(14) 0.86374(7) 0.0127(2) Uani 1 1 d .
I3 I 0.71197(9) 0.79456(14) 0.85922(8) 0.0149(3) Uani 1 1 d .
I4 I 0.26970(9) 0.71605(14) 0.60916(7) 0.0139(3) Uani 1 1 d .
I5 I 0.28394(9) 0.54692(15) 0.88881(7) 0.0136(2) Uani 1 1 d .
I6 I 0.27997(9) 0.21156(14) 0.66000(7) 0.0128(2) Uani 1 1 d .
I7 I 0.01667(9) 0.95778(15) 0.48801(8) 0.0157(3) Uani 1 1 d .
I8 I 0.04790(9) 0.16620(15) 0.75753(7) 0.0172(3) Uani 1 1 d .
I9 I 0.01699(9) -0.43986(16) 1.01028(7) 0.0156(3) Uani 1 1 d .
O1 O 0.6480(10) 0.6643(16) 0.5043(7) 0.020(3) Uani 1 1 d .
O2 O 0.7536(11) 0.7143(16) 0.6852(8) 0.024(3) Uani 1 1 d .
O3 O 0.5868(9) 0.4815(15) 0.6456(7) 0.016(3) Uani 1 1 d U
O4 O 0.7814(11) 0.3244(17) 0.7506(8) 0.024(3) Uani 1 1 d .
O5 O 0.7692(12) 0.4968(15) 0.9165(9) 0.028(3) Uani 1 1 d .
O6 O 0.5938(9) 0.3347(15) 0.8259(8) 0.019(3) Uani 1 1 d .
O7 O 0.6711(12) 0.9921(16) 0.8075(9) 0.030(4) Uani 1 1 d .
O8 O 0.5867(9) 0.6834(17) 0.8047(7) 0.018(3) Uani 1 1 d .
O9 O 0.6668(12) 0.8195(16) 0.9706(8) 0.027(3) Uani 1 1 d .
O10 O 0.4059(10) 0.6647(15) 0.6807(8) 0.018(3) Uani 1 1 d .
O11 O 0.3284(11) 0.7840(17) 0.5108(8) 0.024(3) Uani 1 1 d .
O12 O 0.2381(12) 0.5056(15) 0.5760(9) 0.031(4) Uani 1 1 d .
O13 O 0.4185(9) 0.4945(14) 0.8534(7) 0.015(3) Uani 1 1 d U
O14 O 0.3376(11) 0.6962(16) 0.9761(8) 0.025(3) Uani 1 1 d .
O15 O 0.2333(10) 0.6806(17) 0.7929(8) 0.023(3) Uani 1 1 d .
O16 O 0.4144(9) 0.3163(14) 0.6835(7) 0.015(3) Uani 1 1 d .
O17 O 0.3352(11) 0.0110(14) 0.6911(8) 0.020(3) Uani 1 1 d .
O18 O 0.2391(10) 0.2750(16) 0.7723(8) 0.020(3) Uani 1 1 d .
O19 O 0.0917(10) 0.7680(16) 0.5210(8) 0.021(3) Uani 1 1 d .
O20 O -0.0200(11) 0.9169(17) 0.3624(8) 0.029(3) Uani 1 1 d .
O21 O 0.1243(10) 1.1049(16) 0.4788(8) 0.022(3) Uani 1 1 d .
O22 O 0.1059(10) 0.0690(16) 0.6634(7) 0.020(3) Uani 1 1 d .
O23 O 0.0895(11) 0.0124(16) 0.8467(8) 0.026(3) Uani 1 1 d .
O24 O -0.0915(12) 0.0875(17) 0.7129(8) 0.032(4) Uani 1 1 d .
O25 O 0.0589(10) -0.2663(16) 1.0896(8) 0.022(3) Uani 1 1 d .
O26 O 0.0994(10) -0.6065(17) 1.0654(9) 0.027(3) Uani 1 1 d .
O27 O 0.0975(11) -0.3836(18) 0.9214(8) 0.032(3) Uani 1 1 d .
O1H O -0.0166(11) -0.2796(18) 0.7253(10) 0.035(4) Uani 1 1 d .
loop_
_atom_site_aniso_label
_atom_site_aniso_U_11
_atom_site_aniso_U_22
_atom_site_aniso_U_33
_atom_site_aniso_U_23
_atom_site_aniso_U_13
_atom_site_aniso_U_12
Cs1 0.0369(8) 0.0312(8) 0.0335(6) 0.0020(6) 0.0024(6) 0.0022(7)
Cs2 0.0294(8) 0.0335(8) 0.0308(7) 0.0061(6) 0.0030(6) 0.0068(6)
Nb1 0.0106(7) 0.0129(8) 0.0122(7) -0.0005(6) 0.0002(6) -0.0004(5)
I1 0.0138(6) 0.0152(5) 0.0107(5) -0.0002(5) 0.0016(4) -0.0010(5)
I2 0.0127(6) 0.0119(5) 0.0137(5) 0.0016(4) 0.0018(4) 0.0005(5)
I3 0.0166(6) 0.0128(5) 0.0145(5) -0.0027(5) 0.0000(5) -0.0024(5)
I4 0.0154(6) 0.0116(5) 0.0144(5) 0.0019(5) 0.0012(5) -0.0003(5)
I5 0.0154(6) 0.0140(5) 0.0120(5) 0.0011(5) 0.0040(4) 0.0016(5)
I6 0.0144(6) 0.0114(5) 0.0126(5) -0.0013(4) 0.0024(4) -0.0007(5)
I7 0.0131(6) 0.0169(6) 0.0166(6) -0.0011(4) 0.0007(5) 0.0015(5)
I8 0.0183(6) 0.0194(6) 0.0143(5) -0.0003(5) 0.0044(5) 0.0028(5)
I9 0.0112(6) 0.0203(6) 0.0151(5) 0.0002(5) 0.0016(4) 0.0005(5)
O1 0.017(7) 0.026(7) 0.015(6) 0.010(5) 0.000(5) 0.005(6)
O2 0.034(8) 0.015(6) 0.023(6) -0.009(6) 0.002(6) -0.001(6)
O3 0.015(4) 0.019(4) 0.015(4) 0.001(3) 0.007(3) -0.004(3)
O4 0.032(8) 0.027(7) 0.017(6) 0.007(6) 0.013(6) 0.007(6)
O5 0.034(9) 0.009(6) 0.039(7) -0.010(6) -0.005(7) -0.003(6)
O6 0.008(7) 0.022(7) 0.027(6) 0.007(6) 0.000(5) 0.003(6)
O7 0.043(10) 0.011(6) 0.032(7) 0.002(6) -0.007(7) 0.001(6)
O8 0.010(6) 0.029(7) 0.015(6) -0.005(6) 0.000(5) -0.008(6)
O9 0.044(9) 0.023(8) 0.014(6) -0.010(6) 0.004(6) -0.006(7)
O10 0.014(6) 0.012(6) 0.026(6) 0.007(5) -0.004(5) -0.004(5)
O11 0.032(8) 0.024(7) 0.018(6) 0.010(6) 0.010(6) 0.003(6)
O12 0.043(10) 0.009(7) 0.035(7) 0.007(6) -0.010(7) -0.003(6)
O13 0.011(4) 0.020(4) 0.014(4) -0.002(3) 0.001(3) 0.002(3)
O14 0.036(8) 0.019(7) 0.020(6) -0.013(6) 0.009(6) -0.001(6)
O15 0.024(7) 0.031(8) 0.015(6) 0.015(6) 0.010(5) 0.009(6)
O16 0.013(7) 0.014(6) 0.019(6) 0.000(5) 0.002(5) 0.000(5)
O17 0.027(8) 0.009(7) 0.026(6) 0.004(5) 0.005(6) 0.002(5)
O18 0.027(7) 0.024(7) 0.010(5) 0.001(5) 0.007(5) 0.003(6)
O19 0.017(7) 0.022(7) 0.023(6) -0.011(5) 0.002(5) 0.003(5)
O20 0.035(9) 0.026(8) 0.026(7) -0.002(6) -0.002(6) 0.003(7)
O21 0.017(7) 0.031(8) 0.017(6) 0.004(5) 0.000(5) -0.006(6)
O22 0.016(7) 0.023(7) 0.022(6) -0.002(6) 0.000(5) 0.007(6)
O23 0.025(8) 0.026(8) 0.024(6) 0.010(6) -0.001(6) 0.007(6)
O24 0.038(9) 0.034(9) 0.023(7) -0.005(6) 0.003(6) 0.002(7)
O25 0.017(7) 0.023(7) 0.024(7) -0.005(6) 0.000(6) -0.003(6)
O26 0.011(7) 0.027(8) 0.042(8) 0.012(7) 0.002(6) 0.005(6)
O27 0.025(8) 0.046(9) 0.027(7) 0.012(6) 0.013(6) 0.011(7)
O1H 0.028(8) 0.030(8) 0.043(8) -0.019(7) -0.009(7) 0.007(7)
loop_
_atom_type_symbol
_atom_type_description
_atom_type_scat_dispersion_real
_atom_type_scat_dispersion_imag
_atom_type_scat_source
O O 0.0106 0.0060 'International Tables Vol C Tables 4.2.6.8 and 6.1.1.4'
H H 0.0000 0.0000 'International Tables Vol C Tables 4.2.6.8 and 6.1.1.4'
Nb Nb -2.0727 0.6215 'International Tables Vol C Tables 4.2.6.8 and 6.1.1.4'
I I -0.4742 1.8119 'International Tables Vol C Tables 4.2.6.8 and 6.1.1.4'
Cs Cs -0.3680 2.1192 'International Tables Vol C Tables 4.2.6.8 and 6.1.1.4'
loop_
_geom_angle_atom_site_label_1
_geom_angle_atom_site_label_2
_geom_angle_atom_site_label_3
_geom_angle
_geom_angle_site_symmetry_1
_geom_angle_site_symmetry_3
O9 Cs1 O14 106.2(4) 2_647 1_545
O9 Cs1 O17 116.9(3) 2_647 .
O14 Cs1 O17 97.3(3) 1_545 .
O9 Cs1 O14 81.9(3) 2_647 2_647
O14 Cs1 O14 121.5(3) 1_545 2_647
O17 Cs1 O14 131.2(3) . 2_647
O9 Cs1 O9 128.5(2) 2_647 1_545
O14 Cs1 O9 80.5(3) 1_545 1_545
O17 Cs1 O9 112.5(3) . 1_545
O14 Cs1 O9 54.3(3) 2_647 1_545
O9 Cs1 O18 68.2(3) 2_647 .
O14 Cs1 O18 112.8(3) 1_545 .
O17 Cs1 O18 48.8(3) . .
O14 Cs1 O18 123.3(3) 2_647 .
O9 Cs1 O18 156.5(3) 1_545 .
O9 Cs1 O6 89.9(3) 2_647 .
O14 Cs1 O6 162.4(3) 1_545 .
O17 Cs1 O6 81.1(3) . .
O14 Cs1 O6 52.7(3) 2_647 .
O9 Cs1 O6 83.9(3) 1_545 .
O18 Cs1 O6 79.4(3) . .
O9 Cs1 O7 135.2(3) 2_647 1_545
O14 Cs1 O7 113.6(3) 1_545 1_545
O17 Cs1 O7 78.0(3) . 1_545
O14 Cs1 O7 60.5(3) 2_647 1_545
O9 Cs1 O7 45.3(3) 1_545 1_545
O18 Cs1 O7 111.5(3) . 1_545
O6 Cs1 O7 48.8(3) . 1_545
O9 Cs1 O13 76.8(3) 2_647 2_647
O14 Cs1 O13 79.5(3) 1_545 2_647
O17 Cs1 O13 166.2(3) . 2_647
O14 Cs1 O13 45.2(3) 2_647 2_647
O9 Cs1 O13 53.9(3) 1_545 2_647
O18 Cs1 O13 144.8(3) . 2_647
O6 Cs1 O13 97.8(3) . 2_647
O7 Cs1 O13 90.9(3) 1_545 2_647
O9 Cs1 O13 54.5(3) 2_647 .
O14 Cs1 O13 155.0(3) 1_545 .
O17 Cs1 O13 81.1(3) . .
O14 Cs1 O13 75.1(3) 2_647 .
O9 Cs1 O13 123.4(3) 1_545 .
O18 Cs1 O13 48.3(3) . .
O6 Cs1 O13 42.4(3) . .
O7 Cs1 O13 90.6(3) 1_545 .
O13 Cs1 O13 107.5(3) 2_647 .
O9 Cs1 O5 51.1(3) 2_647 2_647
O14 Cs1 O5 55.2(3) 1_545 2_647
O17 Cs1 O5 116.6(3) . 2_647
O14 Cs1 O5 110.0(3) 2_647 2_647
O9 Cs1 O5 115.8(3) 1_545 2_647
O18 Cs1 O5 87.4(3) . 2_647
O6 Cs1 O5 140.9(3) . 2_647
O7 Cs1 O5 161.1(3) 1_545 2_647
O13 Cs1 O5 72.7(3) 2_647 2_647
O13 Cs1 O5 103.1(3) . 2_647
O9 Cs1 I6 93.6(2) 2_647 .
O14 Cs1 I6 114.1(2) 1_545 .
O17 Cs1 I6 24.9(2) . .
O14 Cs1 I6 123.2(2) 2_647 .
O9 Cs1 I6 131.0(2) 1_545 .
O18 Cs1 I6 26.6(2) . .
O6 Cs1 I6 70.84(18) . .
O7 Cs1 I6 88.30(19) 1_545 .
O13 Cs1 I6 165.38(19) 2_647 .
O13 Cs1 I6 57.88(15) . .
O5 Cs1 I6 109.98(18) 2_647 .
O7 Cs2 O11 110.0(3) 1_545 2_646
O7 Cs2 O1 132.0(3) 1_545 2_646
O11 Cs2 O1 82.5(3) 2_646 2_646
O7 Cs2 O1 105.2(3) 1_545 1_545
O11 Cs2 O1 102.3(3) 2_646 1_545
O1 Cs2 O1 117.3(2) 2_646 1_545
O7 Cs2 O17 83.3(3) 1_545 .
O11 Cs2 O17 129.0(3) 2_646 .
O1 Cs2 O17 56.4(3) 2_646 .
O1 Cs2 O17 121.9(3) 1_545 .
O7 Cs2 O2 56.7(3) 1_545 1_545
O11 Cs2 O2 110.3(3) 2_646 1_545
O1 Cs2 O2 162.1(3) 2_646 1_545
O1 Cs2 O2 49.1(3) 1_545 1_545
O17 Cs2 O2 117.4(3) . 1_545
O7 Cs2 O16 81.4(3) 1_545 .
O11 Cs2 O16 87.0(3) 2_646 .
O1 Cs2 O16 52.4(3) 2_646 .
O1 Cs2 O16 165.6(3) 1_545 .
O17 Cs2 O16 45.2(3) . .
O2 Cs2 O16 137.8(3) 1_545 .
O7 Cs2 O11 123.2(3) 1_545 1_545
O11 Cs2 O11 125.54(19) 2_646 1_545
O1 Cs2 O11 54.4(3) 2_646 1_545
O1 Cs2 O11 75.6(3) 1_545 1_545
O17 Cs2 O11 54.2(3) . 1_545
O2 Cs2 O11 107.8(3) 1_545 1_545
O16 Cs2 O11 90.0(3) . 1_545
O7 Cs2 O10 80.9(3) 1_545 1_545
O11 Cs2 O10 168.9(3) 2_646 1_545
O1 Cs2 O10 88.9(3) 2_646 1_545
O1 Cs2 O10 75.4(3) 1_545 1_545
O17 Cs2 O10 48.7(3) . 1_545
O2 Cs2 O10 76.7(3) 1_545 1_545
O16 Cs2 O10 93.3(3) . 1_545
O11 Cs2 O10 43.4(3) 1_545 1_545
O7 Cs2 O3 173.1(3) 1_545 2_646
O11 Cs2 O3 76.6(3) 2_646 2_646
O1 Cs2 O3 45.4(3) 2_646 2_646
O1 Cs2 O3 74.6(3) 1_545 2_646
O17 Cs2 O3 91.0(3) . 2_646
O2 Cs2 O3 123.7(3) 1_545 2_646
O16 Cs2 O3 97.3(3) . 2_646
O11 Cs2 O3 49.9(3) 1_545 2_646
O10 Cs2 O3 92.4(3) 1_545 2_646
O7 Cs2 O12 114.4(4) 1_545 2_646
O11 Cs2 O12 45.6(3) 2_646 2_646
O1 Cs2 O12 107.0(3) 2_646 2_646
O1 Cs2 O12 57.0(3) 1_545 2_646
O17 Cs2 O12 162.2(3) . 2_646
O2 Cs2 O12 76.3(3) 1_545 2_646
O16 Cs2 O12 132.4(3) . 2_646
O11 Cs2 O12 112.4(3) 1_545 2_646
O10 Cs2 O12 132.1(3) 1_545 2_646
O3 Cs2 O12 71.5(3) 2_646 2_646
O7 Cs2 I1 80.2(2) 1_545 1_545
O11 Cs2 I1 114.8(2) 2_646 1_545
O1 Cs2 I1 137.8(2) 2_646 1_545
O1 Cs2 I1 25.28(18) 1_545 1_545
O17 Cs2 I1 115.95(19) . 1_545
O2 Cs2 I1 25.67(19) 1_545 1_545
O16 Cs2 I1 155.29(19) . 1_545
O11 Cs2 I1 86.5(2) 1_545 1_545
O10 Cs2 I1 67.6(2) 1_545 1_545
O3 Cs2 I1 99.02(18) 2_646 1_545
O12 Cs2 I1 70.89(19) 2_646 1_545
O10 Nb1 O3 94.1(5) . .
O10 Nb1 O8 88.2(5) . .
O3 Nb1 O8 92.3(5) . .
O10 Nb1 O16 92.1(5) . .
O3 Nb1 O16 86.1(5) . .
O8 Nb1 O16 178.4(5) . .
O10 Nb1 O13 92.6(5) . .
O3 Nb1 O13 172.8(5) . .
O8 Nb1 O13 90.3(5) . .
O16 Nb1 O13 91.2(5) . .
O10 Nb1 O6 174.6(5) . .
O3 Nb1 O6 91.0(5) . .
O8 Nb1 O6 90.1(5) . .
O16 Nb1 O6 89.7(5) . .
O13 Nb1 O6 82.3(5) . .
O10 Nb1 Cs1 131.1(4) . .
O3 Nb1 Cs1 119.6(4) . .
O8 Nb1 Cs1 121.4(3) . .
O16 Nb1 Cs1 59.4(3) . .
O13 Nb1 Cs1 53.5(3) . .
O6 Nb1 Cs1 46.3(4) . .
O2 I1 O1 100.2(6) . .
O2 I1 O3 98.3(6) . .
O1 I1 O3 93.3(5) . .
O2 I1 Cs2 55.1(4) . 1_565
O1 I1 Cs2 50.0(4) . 1_565
O3 I1 Cs2 80.4(4) . 1_565
O2 I1 Cs2 128.1(4) . 2_656
O1 I1 Cs2 42.1(4) . 2_656
O3 I1 Cs2 61.1(3) . 2_656
Cs2 I1 Cs2 73.90(3) 1_565 2_656
O5 I2 O4 101.0(7) . .
O5 I2 O6 96.4(6) . .
O4 I2 O6 97.3(6) . .
O9 I3 O7 99.3(7) . .
O9 I3 O8 93.8(6) . .
O7 I3 O8 94.2(6) . .
O9 I3 Cs1 52.9(4) . 1_565
O7 I3 Cs1 58.0(5) . 1_565
O8 I3 Cs1 67.4(4) . 1_565
O9 I3 Cs2 126.3(4) . 1_565
O7 I3 Cs2 39.9(4) . 1_565
O8 I3 Cs2 65.8(4) . 1_565
Cs1 I3 Cs2 73.55(3) 1_565 1_565
O9 I3 Cs1 34.8(4) . 2_657
O7 I3 Cs1 126.2(5) . 2_657
O8 I3 Cs1 71.5(3) . 2_657
Cs1 I3 Cs1 68.84(2) 1_565 2_657
Cs2 I3 Cs1 131.12(4) 1_565 2_657
O11 I4 O12 100.4(7) . .
O11 I4 O10 92.6(6) . .
O12 I4 O10 95.0(6) . .
O11 I4 O19 89.7(5) . .
O12 I4 O19 82.6(5) . .
O10 I4 O19 176.9(5) . .
O11 I4 Cs2 42.4(4) . 2_656
O12 I4 Cs2 62.6(5) . 2_656
O10 I4 Cs2 78.1(4) . 2_656
O19 I4 Cs2 102.4(3) . 2_656
O11 I4 Cs2 49.7(4) . 1_565
O12 I4 Cs2 129.6(5) . 1_565
O10 I4 Cs2 55.4(4) . 1_565
O19 I4 Cs2 127.7(3) . 1_565
Cs2 I4 Cs2 71.15(2) 2_656 1_565
O15 I5 O14 101.2(6) . .
O15 I5 O13 99.2(5) . .
O14 I5 O13 94.3(6) . .
O15 I5 Cs1 134.2(5) . 2_657
O14 I5 Cs1 49.3(4) . 2_657
O13 I5 Cs1 57.9(3) . 2_657
O15 I5 Cs1 67.5(5) . 1_565
O14 I5 Cs1 39.3(4) . 1_565
O13 I5 Cs1 80.5(4) . 1_565
Cs1 I5 Cs1 69.73(3) 2_657 1_565
O15 I5 Cs1 134.7(4) . .
O14 I5 Cs1 116.5(4) . .
O13 I5 Cs1 56.1(4) . .
Cs1 I5 Cs1 68.48(3) 2_657 .
Cs1 I5 Cs1 131.07(4) 1_565 .
O17 I6 O18 100.3(6) . .
O17 I6 O16 92.8(6) . .
O18 I6 O16 94.7(5) . .
O17 I6 O22 83.9(5) . .
O18 I6 O22 75.3(5) . .
O16 I6 O22 168.6(4) . .
O17 I6 Cs1 50.0(4) . .
O18 I6 Cs1 57.8(4) . .
O16 I6 Cs1 72.8(3) . .
O22 I6 Cs1 96.9(2) . .
O17 I6 Cs2 51.3(4) . .
O18 I6 Cs2 131.4(4) . .
O16 I6 Cs2 55.7(4) . .
O22 I6 Cs2 127.6(3) . .
Cs1 I6 Cs2 75.78(3) . .
O19 I7 O21 101.3(6) . .
O19 I7 O20 98.8(5) . .
O21 I7 O20 97.3(6) . .
O23 I8 O22 97.4(6) . .
O23 I8 O24 99.9(6) . .
O22 I8 O24 93.5(6) . .
O27 I9 O26 98.5(6) . .
O27 I9 O25 96.3(6) . .
O26 I9 O25 101.3(5) . .
I1 O1 Cs2 115.3(6) . 2_656
I1 O1 Cs2 104.7(5) . 1_565
Cs2 O1 Cs2 103.4(3) 2_656 1_565
I1 O2 Cs2 99.2(5) . 1_565
I1 O3 Nb1 145.3(6) . .
I1 O3 Cs2 92.2(4) . 2_656
Nb1 O3 Cs2 114.7(4) . 2_656
I2 O5 Cs1 103.3(6) . 2_657
I2 O6 Nb1 138.3(7) . .
I2 O6 Cs1 112.9(5) . .
Nb1 O6 Cs1 108.9(4) . .
I3 O7 Cs2 118.5(5) . 1_565
I3 O7 Cs1 97.2(6) . 1_565
Cs2 O7 Cs1 98.0(4) 1_565 1_565
I3 O8 Nb1 157.3(8) . .
I3 O9 Cs1 126.4(6) . 2_657
I3 O9 Cs1 102.8(5) . 1_565
Cs1 O9 Cs1 95.8(4) 2_657 1_565
Nb1 O10 I4 148.5(7) . .
Nb1 O10 Cs2 109.3(5) . 1_565
I4 O10 Cs2 99.2(4) . 1_565
I4 O11 Cs2 115.3(6) . 2_656
I4 O11 Cs2 107.7(5) . 1_565
Cs2 O11 Cs2 97.4(4) 2_656 1_565
I4 O12 Cs2 92.5(6) . 2_656
I5 O13 Nb1 142.6(6) . .
I5 O13 Cs1 95.9(4) . 2_657
Nb1 O13 Cs1 117.2(4) . 2_657
I5 O13 Cs1 99.3(4) . .
Nb1 O13 Cs1 101.5(4) . .
Cs1 O13 Cs1 83.4(2) 2_657 .
I5 O14 Cs1 119.7(5) . 1_565
I5 O14 Cs1 107.0(5) . 2_657
Cs1 O14 Cs1 97.4(4) 1_565 2_657
I6 O16 Nb1 146.9(7) . .
I6 O16 Cs2 98.0(4) . .
Nb1 O16 Cs2 114.4(5) . .
I6 O17 Cs1 105.1(5) . .
I6 O17 Cs2 104.4(5) . .
Cs1 O17 Cs2 100.3(3) . .
I6 O18 Cs1 95.7(5) . .
I7 O19 I4 132.9(6) . .
I8 O22 I6 105.9(5) . .
loop_
_geom_bond_atom_site_label_1
_geom_bond_atom_site_label_2
_geom_bond_distance
_geom_bond_site_symmetry_2
_geom_bond_publ_flag
Cs1 O9 3.152(13) 2_647 ?
Cs1 O14 3.153(14) 1_545 ?
Cs1 O17 3.233(11) . ?
Cs1 O14 3.367(13) 2_647 ?
Cs1 O9 3.451(14) 1_545 ?
Cs1 O18 3.464(12) . ?
Cs1 O6 3.494(13) . ?
Cs1 O7 3.606(16) 1_545 ?
Cs1 O13 3.618(10) 2_647 ?
Cs1 O13 3.748(12) . ?
Cs1 O5 3.763(16) 2_647 ?
Cs1 I6 4.0752(16) . no
Cs2 O7 3.109(12) 1_545 ?
Cs2 O11 3.144(14) 2_646 ?
Cs2 O1 3.150(12) 2_646 ?
Cs2 O1 3.238(13) 1_545 ?
Cs2 O17 3.380(14) . ?
Cs2 O2 3.399(13) 1_545 ?
Cs2 O16 3.497(12) . ?
Cs2 O11 3.521(14) 1_545 ?
Cs2 O10 3.666(12) 1_545 ?
Cs2 O3 3.720(11) 2_646 ?
Cs2 O12 3.746(16) 2_646 ?
Cs2 I1 4.0886(18) 1_545 no
Nb1 O10 1.908(11) . ?
Nb1 O3 1.936(12) . ?
Nb1 O8 1.936(12) . ?
Nb1 O16 1.966(11) . ?
Nb1 O13 1.972(12) . ?
Nb1 O6 2.025(11) . ?
I1 O2 1.794(12) . ?
I1 O1 1.805(10) . ?
I1 O3 1.908(12) . ?
I2 O5 1.796(12) . ?
I2 O4 1.796(12) . ?
I2 O6 1.851(12) . ?
I3 O9 1.782(12) . ?
I3 O7 1.788(12) . ?
I3 O8 1.878(11) . ?
I4 O11 1.770(12) . ?
I4 O12 1.778(12) . ?
I4 O10 1.909(11) . ?
I4 O19 2.441(11) . ?
I5 O15 1.783(11) . ?
I5 O14 1.788(11) . ?
I5 O13 1.886(12) . ?
I6 O17 1.779(11) . ?
I6 O18 1.832(12) . ?
I6 O16 1.874(12) . ?
I6 O22 2.477(13) . ?
I7 O19 1.813(12) . ?
I7 O21 1.814(12) . ?
I7 O20 1.820(12) . ?
I8 O23 1.795(11) . ?
I8 O22 1.801(12) . ?
I8 O24 1.885(14) . ?
I9 O27 1.797(13) . ?
I9 O26 1.798(12) . ?
I9 O25 1.822(12) . ?
