#------------------------------------------------------------------------------
#$Date: 2020-03-05 01:33:12 +0200 (Thu, 05 Mar 2020) $
#$Revision: 248808 $
#$URL: file:///home/coder/svn-repositories/cod/cif/7/12/59/7125922.cif $
#------------------------------------------------------------------------------
#
# This file is available in the Crystallography Open Database (COD),
# http://www.crystallography.net/
#
# All data on this site have been placed in the public domain by the
# contributors.
#
data_7125922
loop_
_publ_author_name
'Wilson, Richard E.'
'Carter, Tyler J.'
'Autillo, Matthieu'
'Stegman, Samantha'
_publ_section_title
;
 Thiocyanate complexes of the lanthanides, Am and Cm.
;
_journal_issue                   17
_journal_name_full
'Chemical communications (Cambridge, England)'
_journal_page_first              2622
_journal_page_last               2625
_journal_paper_doi               10.1039/c9cc07612c
_journal_volume                  56
_journal_year                    2020
_chemical_formula_sum            'C39 Am N11 S7'
_chemical_formula_weight         1089.92
_space_group_crystal_system      cubic
_space_group_IT_number           221
_space_group_name_Hall           '-P 4 2 3'
_space_group_name_H-M_alt        'P m -3 m'
_audit_creation_method           SHELXL-2014/7
_audit_update_record
;
2019-09-26 deposited with the CCDC.	2020-01-13 downloaded from the CCDC.
;
_cell_angle_alpha                90
_cell_angle_beta                 90
_cell_angle_gamma                90
_cell_formula_units_Z            1
_cell_length_a                   11.3641(18)
_cell_length_b                   11.3641(18)
_cell_length_c                   11.3641(18)
_cell_measurement_reflns_used    25900
_cell_measurement_temperature    100(2)
_cell_measurement_theta_max      33.101
_cell_measurement_theta_min      1.792
_cell_volume                     1467.6(4)
_computing_structure_refinement  'SHELXL-2014/7 (Sheldrick, 2014)'
_diffrn_ambient_temperature      100(2)
_diffrn_measured_fraction_theta_full 1.000
_diffrn_measured_fraction_theta_max 0.978
_diffrn_radiation_type           MoK\a
_diffrn_radiation_wavelength     0.71073
_diffrn_reflns_av_R_equivalents  0.0633
_diffrn_reflns_av_unetI/netI     0.0156
_diffrn_reflns_Laue_measured_fraction_full 1.000
_diffrn_reflns_Laue_measured_fraction_max 0.978
_diffrn_reflns_limit_h_max       16
_diffrn_reflns_limit_h_min       -16
_diffrn_reflns_limit_k_max       16
_diffrn_reflns_limit_k_min       -16
_diffrn_reflns_limit_l_max       17
_diffrn_reflns_limit_l_min       -17
_diffrn_reflns_number            25900
_diffrn_reflns_point_group_measured_fraction_full 1.000
_diffrn_reflns_point_group_measured_fraction_max 0.978
_diffrn_reflns_theta_full        25.242
_diffrn_reflns_theta_max         33.101
_diffrn_reflns_theta_min         1.792
_exptl_absorpt_coefficient_mu    1.587
_exptl_absorpt_correction_T_max  0.4352
_exptl_absorpt_correction_T_min  0.3743
_exptl_absorpt_correction_type   multi-scan
_exptl_absorpt_process_details   SADABS
_exptl_crystal_colour            pink
_exptl_crystal_density_diffrn    1.233
_exptl_crystal_description       plate
_exptl_crystal_F_000             518
_exptl_crystal_size_max          0.100
_exptl_crystal_size_mid          0.075
_exptl_crystal_size_min          0.050
_refine_diff_density_max         1.952
_refine_diff_density_min         -2.582
_refine_diff_density_rms         0.154
_refine_ls_extinction_method     none
_refine_ls_goodness_of_fit_ref   1.087
_refine_ls_hydrogen_treatment    undef
_refine_ls_matrix_type           full
_refine_ls_number_parameters     28
_refine_ls_number_reflns         609
_refine_ls_number_restraints     1
_refine_ls_restrained_S_all      1.099
_refine_ls_R_factor_all          0.0446
_refine_ls_R_factor_gt           0.0434
_refine_ls_shift/su_max          0.004
_refine_ls_shift/su_mean         0.000
_refine_ls_structure_factor_coef Fsqd
_refine_ls_weighting_details
'w=1/[\s^2^(Fo^2^)+(0.0823P)^2^+1.5000P] where P=(Fo^2^+2Fc^2^)/3'
_refine_ls_weighting_scheme      calc
_refine_ls_wR_factor_gt          0.1121
_refine_ls_wR_factor_ref         0.1127
_reflns_Friedel_coverage         0.000
_reflns_number_gt                601
_reflns_number_total             609
_reflns_threshold_expression     'I > 2\s(I)'
_cod_data_source_file            c9cc07612c2.cif
_cod_data_source_block           rew
_cod_depositor_comments
'Adding full bibliography for 7125915--7125930.cif.'
_cod_original_cell_volume        1467.6(7)
_cod_database_code               7125922
_shelx_shelxl_version_number     2014/7
_shelx_space_group_comment
;
The symmetry employed for this shelxl refinement is uniquely defined
by the following loop, which should always be used as a source of
symmetry information in preference to the above space-group names.
They are only intended as comments.
;
_shelx_estimated_absorpt_t_min   0.857
_shelx_estimated_absorpt_t_max   0.925
_shelx_res_file
;

    rew.res created by SHELXL-2014/7


TITL sad in Pm-3m
CELL 0.71073  11.36410  11.36410  11.36410  90.0000  90.0000  90.0000
ZERR    1.00   0.00180   0.00180   0.00180   0.0000   0.0000   0.0000
LATT  1
SYMM -X, -Y, Z
SYMM -X, Y, -Z
SYMM X, -Y, -Z
SYMM Z, X, Y
SYMM Z, -X, -Y
SYMM -Z, -X, Y
SYMM -Z, X, -Y
SYMM Y, Z, X
SYMM -Y, Z, -X
SYMM Y, -Z, -X
SYMM -Y, -Z, X
SYMM Y, X, -Z
SYMM -Y, -X, -Z
SYMM Y, -X, Z
SYMM -Y, X, Z
SYMM X, Z, -Y
SYMM -X, Z, Y
SYMM -X, -Z, -Y
SYMM X, -Z, Y
SYMM Z, Y, -X
SYMM Z, -Y, X
SYMM -Z, Y, X
SYMM -Z, -Y, -X
SFAC C N S
SFAC Am 36.671 0.484 24.099 3.206 17.342 14.314 3.493 102.273 13.359 -7.899 =
 4.513 18900 3 243
UNIT 39 11 7 1
TEMP -173.00
SIZE 0.100 0.075 0.050
EADP C2 C3
DFIX 1.55 C4 C5
ACTA
L.S. 10
BOND
FMAP 2
PLAN 5

WGHT    0.082300    1.500000
FVAR       0.17210
AM1   4    0.000000    0.000000    0.000000    10.02083    0.02603    0.02603 =
         0.02603    0.00000    0.00000    0.00000
N2    2    0.000000    0.000000    0.500000    10.06250    0.18515    0.18515 =
         0.05584    0.00000    0.00000    0.00000
C2    1    0.000000    0.110239    0.418237    10.25000    0.14245    0.23704 =
         0.13098    0.10479    0.00000    0.00000
N3    2    0.500000    0.500000    0.500000    10.02083    0.03980    0.03980 =
         0.03980    0.00000    0.00000    0.00000
C3    1    0.000000    0.231891    0.500000    10.25000    0.14245    0.23704 =
         0.13098    0.10479    0.00000    0.00000
C4    1    0.404836    0.404836    0.500000    10.08333    0.07213    0.07213 =
         0.04139    0.00000    0.00000   -0.02830
C5    1    0.298228    0.500000    0.500000    10.08333    0.15836    0.09427 =
         0.09427    0.00000    0.00000    0.00000
S1    3    0.262008    0.262008    0.262008    10.14583    0.11114    0.11114 =
         0.11114   -0.03524   -0.03524   -0.03524
C1    1    0.182808    0.182808    0.182808    10.14583    0.07293    0.07293 =
         0.07293   -0.01594   -0.01594   -0.01594
N1    2    0.125750    0.125750    0.125750    10.14583    0.08842    0.08842 =
         0.08842   -0.02111   -0.02111   -0.02111
HKLF 4

REM  sad in Pm-3m
REM R1 =  0.0434 for     601 Fo > 4sig(Fo)  and  0.0446 for all     609 data
REM     28 parameters refined using      1 restraints

END

WGHT      0.0902      0.0000

REM Highest difference peak  1.952,  deepest hole -2.582,  1-sigma level  0.154
Q1    1   0.2671  0.5000  0.5000  10.12500  0.05    1.95
Q2    1   0.0000  0.5000  0.5000  10.06250  0.05    1.08
Q3    1   0.0000  0.0000  0.1039  10.12500  0.05    1.07
Q4    1   0.0599  0.0599  0.0599  10.16667  0.05    0.82
Q5    1   0.1484  0.1484  0.0512  10.50000  0.05    0.71
;
_shelx_res_checksum              83514
loop_
_space_group_symop_operation_xyz
'x, y, z'
'-x, -y, z'
'-x, y, -z'
'x, -y, -z'
'z, x, y'
'z, -x, -y'
'-z, -x, y'
'-z, x, -y'
'y, z, x'
'-y, z, -x'
'y, -z, -x'
'-y, -z, x'
'y, x, -z'
'-y, -x, -z'
'y, -x, z'
'-y, x, z'
'x, z, -y'
'-x, z, y'
'-x, -z, -y'
'x, -z, y'
'z, y, -x'
'z, -y, x'
'-z, y, x'
'-z, -y, -x'
'-x, -y, -z'
'x, y, -z'
'x, -y, z'
'-x, y, z'
'-z, -x, -y'
'-z, x, y'
'z, x, -y'
'z, -x, y'
'-y, -z, -x'
'y, -z, x'
'-y, z, x'
'y, z, -x'
'-y, -x, z'
'y, x, z'
'-y, x, -z'
'y, -x, -z'
'-x, -z, y'
'x, -z, -y'
'x, z, y'
'-x, z, -y'
'-z, -y, x'
'-z, y, -x'
'z, -y, -x'
'z, y, x'
loop_
_atom_site_label
_atom_site_type_symbol
_atom_site_fract_x
_atom_site_fract_y
_atom_site_fract_z
_atom_site_U_iso_or_equiv
_atom_site_adp_type
_atom_site_occupancy
_atom_site_site_symmetry_order
_atom_site_calc_flag
_atom_site_refinement_flags_posn
_atom_site_refinement_flags_adp
_atom_site_refinement_flags_occupancy
Am1 Am 0.0000 0.0000 0.0000 0.0260(2) Uani 1 48 d S T P
N2 N 0.0000 0.0000 0.5000 0.142(14) Uani 1 16 d S T P
C2 C 0.0000 0.110(3) 0.418(2) 0.170(10) Uani 0.5 2 d S T P
N3 N 0.5000 0.5000 0.5000 0.040(4) Uani 1 48 d S T P
C3 C 0.0000 0.232(2) 0.5000 0.170(10) Uani 1 4 d S T P
C4 C 0.4048(16) 0.4048(16) 0.5000 0.062(7) Uani 0.3333 4 d DS T P
C5 C 0.298(2) 0.5000 0.5000 0.116(13) Uani 0.6666 8 d DS T P
S1 S 0.2620(2) 0.2620(2) 0.2620(2) 0.111(2) Uani 0.875 6 d S T P
C1 C 0.1828(7) 0.1828(7) 0.1828(7) 0.073(4) Uani 0.875 6 d S T P
N1 N 0.1258(7) 0.1258(7) 0.1258(7) 0.088(4) Uani 0.875 6 d S T P
loop_
_atom_site_aniso_label
_atom_site_aniso_U_11
_atom_site_aniso_U_22
_atom_site_aniso_U_33
_atom_site_aniso_U_23
_atom_site_aniso_U_13
_atom_site_aniso_U_12
Am1 0.0260(2) 0.0260(2) 0.0260(2) 0.000 0.000 0.000
N2 0.19(2) 0.19(2) 0.056(13) 0.000 0.000 0.000
C2 0.142(12) 0.24(3) 0.131(17) 0.105(19) 0.000 0.000
N3 0.040(4) 0.040(4) 0.040(4) 0.000 0.000 0.000
C3 0.142(12) 0.24(3) 0.131(17) 0.105(19) 0.000 0.000
C4 0.072(11) 0.072(11) 0.041(10) 0.000 0.000 -0.028(13)
C5 0.16(4) 0.094(14) 0.094(14) 0.000 0.000 0.000
S1 0.111(2) 0.111(2) 0.111(2) -0.0352(14) -0.0352(14) -0.0352(14)
C1 0.073(4) 0.073(4) 0.073(4) -0.016(3) -0.016(3) -0.016(3)
N1 0.088(4) 0.088(4) 0.088(4) -0.021(4) -0.021(4) -0.021(4)
loop_
_atom_type_symbol
_atom_type_description
_atom_type_scat_dispersion_real
_atom_type_scat_dispersion_imag
_atom_type_scat_source
C C 0.0033 0.0016 'International Tables Vol C Tables 4.2.6.8 and 6.1.1.4'
N N 0.0061 0.0033 'International Tables Vol C Tables 4.2.6.8 and 6.1.1.4'
S S 0.1246 0.1234 'International Tables Vol C Tables 4.2.6.8 and 6.1.1.4'
Am Am -7.8990 4.5130 'International Tables Vol C Tables 4.2.6.8 and 6.1.1.4'
loop_
_geom_angle_atom_site_label_1
_geom_angle_atom_site_label_2
_geom_angle_atom_site_label_3
_geom_angle
_geom_angle_site_symmetry_1
_geom_angle_site_symmetry_3
N1 Am1 N1 109.5 25 28
N1 Am1 N1 70.5 25 4
N1 Am1 N1 180.0(6) 28 4
N1 Am1 N1 109.5 25 27
N1 Am1 N1 109.5 28 27
N1 Am1 N1 70.5 4 27
N1 Am1 N1 70.5 25 3
N1 Am1 N1 70.5 28 3
N1 Am1 N1 109.5 4 3
N1 Am1 N1 180.0(9) 27 3
N1 Am1 N1 109.5 25 26
N1 Am1 N1 109.5 28 26
N1 Am1 N1 70.5 4 26
N1 Am1 N1 109.5 27 26
N1 Am1 N1 70.5 3 26
N1 Am1 N1 70.5 25 2
N1 Am1 N1 70.5 28 2
N1 Am1 N1 109.5 4 2
N1 Am1 N1 70.5 27 2
N1 Am1 N1 109.5 3 2
N1 Am1 N1 180.0(9) 26 2
N1 Am1 N1 180.0(9) 25 .
N1 Am1 N1 70.5 28 .
N1 Am1 N1 109.5 4 .
N1 Am1 N1 70.5 27 .
N1 Am1 N1 109.5 3 .
N1 Am1 N1 70.5 26 .
N1 Am1 N1 109.5 2 .
N1 Am1 C1 0.0(4) 25 25
N1 Am1 C1 109.5 28 25
N1 Am1 C1 70.5 4 25
N1 Am1 C1 109.5 27 25
N1 Am1 C1 70.5 3 25
N1 Am1 C1 109.471(1) 26 25
N1 Am1 C1 70.529(1) 2 25
N1 Am1 C1 180.0(4) . 25
N1 Am1 C1 70.5 25 4
N1 Am1 C1 180.0(4) 28 4
N1 Am1 C1 0.0(6) 4 4
N1 Am1 C1 70.5 27 4
N1 Am1 C1 109.5 3 4
N1 Am1 C1 70.5 26 4
N1 Am1 C1 109.5 2 4
N1 Am1 C1 109.5 . 4
C1 Am1 C1 70.529(1) 25 4
N1 Am1 C1 109.5 25 28
N1 Am1 C1 0.00(16) 28 28
N1 Am1 C1 180.0(4) 4 28
N1 Am1 C1 109.5 27 28
N1 Am1 C1 70.5 3 28
N1 Am1 C1 109.5 26 28
N1 Am1 C1 70.5 2 28
N1 Am1 C1 70.5 . 28
C1 Am1 C1 109.471(1) 25 28
C1 Am1 C1 180.0 4 28
N1 Am1 C1 109.471(1) 25 27
N1 Am1 C1 109.5 28 27
N1 Am1 C1 70.5 4 27
N1 Am1 C1 0.00(18) 27 27
N1 Am1 C1 180.0(4) 3 27
N1 Am1 C1 109.5 26 27
N1 Am1 C1 70.5 2 27
N1 Am1 C1 70.529(1) . 27
C1 Am1 C1 109.471(1) 25 27
C1 Am1 C1 70.5 4 27
C1 Am1 C1 109.5 28 27
C2 N2 C2 180.0(16) 37 13_556
C2 N2 C2 110.8(12) 37 26_556
C2 N2 C2 69.2(12) 13_556 26_556
C2 N2 C2 69.2(12) 37 2
C2 N2 C2 110.8(12) 13_556 2
C2 N2 C2 180.0 26_556 2
C2 N2 C2 107(2) 37 38
C2 N2 C2 73(2) 13_556 38
C2 N2 C2 110.8(12) 26_556 38
C2 N2 C2 69.2(12) 2 38
C2 N2 C2 110.8(12) 37 25_556
C2 N2 C2 69.2(12) 13_556 25_556
C2 N2 C2 107(2) 26_556 25_556
C2 N2 C2 73(2) 2 25_556
C2 N2 C2 110.8(12) 38 25_556
C2 N2 C2 73(2) 37 14_556
C2 N2 C2 107(2) 13_556 14_556
C2 N2 C2 69.2(12) 26_556 14_556
C2 N2 C2 110.8(12) 2 14_556
C2 N2 C2 180.0 38 14_556
C2 N2 C2 69.2(12) 25_556 14_556
C2 N2 C2 69.2(12) 37 .
C2 N2 C2 110.8(12) 13_556 .
C2 N2 C2 73(2) 26_556 .
C2 N2 C2 107(2) 2 .
C2 N2 C2 69.2(12) 38 .
C2 N2 C2 180.0 25_556 .
C2 N2 C2 110.8(12) 14_556 .
N2 C2 C3 109.5(18) . .
N2 C2 C2 55.4(6) . 37
C3 C2 C2 125.9(5) . 37
N2 C2 C2 55.4(6) . 38
C3 C2 C2 125.9(5) . 38
C2 C2 C2 89.999(1) 37 38
N2 C2 C2 53.4(12) . 26_556
C3 C2 C2 56.1(11) . 26_556
C2 C2 C2 90.000(3) 37 26_556
C2 C2 C2 90.000(1) 38 26_556
C4 N3 C4 120.0 . 33_666
C4 N3 C4 180.0(9) . 25_666
C4 N3 C4 60.000(2) 33_666 25_666
C4 N3 C4 60.000(1) . 9
C4 N3 C4 180.0 33_666 9
C4 N3 C4 120.000(1) 25_666 9
C4 N3 C4 120.000(1) . 29_666
C4 N3 C4 60.0 33_666 29_666
C4 N3 C4 60.0 25_666 29_666
C4 N3 C4 120.0 9 29_666
C4 N3 C4 60.000(1) . 5
C4 N3 C4 120.000(2) 33_666 5
C4 N3 C4 120.000(2) 25_666 5
C4 N3 C4 60.000(2) 9 5
C4 N3 C4 180.0 29_666 5
C4 N3 C4 120.0 . 35_655
C4 N3 C4 90.000(3) 33_666 35_655
C4 N3 C4 60.000(2) 25_666 35_655
C4 N3 C4 90.000(2) 9 35_655
C4 N3 C4 120.000(2) 29_666 35_655
C4 N3 C4 60.000(2) 5 35_655
C4 N3 C4 120.000(1) . 7_665
C4 N3 C4 120.000(2) 33_666 7_665
C4 N3 C4 60.0 25_666 7_665
C4 N3 C4 60.0 9 7_665
C4 N3 C4 90.000(2) 29_666 7_665
C4 N3 C4 90.000(1) 5 7_665
C4 N3 C4 60.000(1) 35_655 7_665
C4 N3 C4 60.0 . 31_556
C4 N3 C4 60.0 33_666 31_556
C4 N3 C4 120.000(2) 25_666 31_556
C4 N3 C4 120.000(2) 9 31_556
C4 N3 C4 90.000(2) 29_666 31_556
C4 N3 C4 90.000(3) 5 31_556
C4 N3 C4 120.000(1) 35_655 31_556
C4 N3 C4 180.0 7_665 31_556
C4 N3 C4 90.000(3) . 27_565
C4 N3 C4 120.000(1) 33_666 27_565
C4 N3 C4 90.000(1) 25_666 27_565
C4 N3 C4 60.000(1) 9 27_565
C4 N3 C4 60.000(1) 29_666 27_565
C4 N3 C4 120.000(2) 5 27_565
C4 N3 C4 120.000(1) 35_655 27_565
C4 N3 C4 60.000(1) 7_665 27_565
C4 N3 C4 120.000(2) 31_556 27_565
C4 N3 C4 90.000(1) . 3_656
C4 N3 C4 60.0 33_666 3_656
C4 N3 C4 90.000(3) 25_666 3_656
C4 N3 C4 120.000(1) 9 3_656
C4 N3 C4 120.000(1) 29_666 3_656
C4 N3 C4 60.0 5 3_656
C4 N3 C4 60.000(1) 35_655 3_656
C4 N3 C4 120.000(1) 7_665 3_656
C4 N3 C4 60.0 31_556 3_656
C4 N3 C4 180.0 27_565 3_656
C4 N3 C4 60.000(2) . 11_566
C4 N3 C4 90.000(1) 33_666 11_566
C4 N3 C4 120.0 25_666 11_566
C4 N3 C4 90.000(3) 9 11_566
C4 N3 C4 60.000(1) 29_666 11_566
C4 N3 C4 120.000(2) 5 11_566
C4 N3 C4 180.0 35_655 11_566
C4 N3 C4 120.000(2) 7_665 11_566
C4 N3 C4 60.000(2) 31_556 11_566
C4 N3 C4 60.000(2) 27_565 11_566
C4 N3 C4 120.000(2) 3_656 11_566
C2 C3 C2 68(2) . 26_556
N3 C4 C4 60.000(3) . 11_566
N3 C4 C4 60.000(4) . 31_556
C4 C4 C4 60.000(1) 11_566 31_556
N3 C4 C4 60.000(2) . 9
C4 C4 C4 90.000(7) 11_566 9
C4 C4 C4 120.000(13) 31_556 9
N3 C4 C4 60.000(4) . 5
C4 C4 C4 120.000(14) 11_566 5
C4 C4 C4 90.000(11) 31_556 5
C4 C4 C4 60.000(1) 9 5
N3 C4 C5 93.2(10) . 5
C4 C4 C5 121.8(6) 11_566 5
C4 C4 C5 61.9(6) 31_556 5
C4 C4 C5 121.8(6) 9 5
C4 C4 C5 61.9(6) 5 5
N3 C4 C5 93.2(10) . .
C4 C4 C5 61.9(6) 11_566 .
C4 C4 C5 121.8(6) 31_556 .
C4 C4 C5 61.9(6) 9 .
C4 C4 C5 121.8(6) 5 .
C5 C4 C5 174(2) 5 .
C4 C5 C4 56.2(12) 11_566 27_565
C4 C5 C4 84(2) 11_566 9
C4 C5 C4 56.2(12) 27_565 9
C4 C5 C4 56.2(12) 11_566 .
C4 C5 C4 84(2) 27_565 .
C4 C5 C4 56.2(12) 9 .
N1 C1 S1 180.0(18) . .
N1 C1 Am1 0.0(11) . .
S1 C1 Am1 180.0(10) . .
C1 N1 Am1 180.0(16) . .
loop_
_geom_bond_atom_site_label_1
_geom_bond_atom_site_label_2
_geom_bond_distance
_geom_bond_site_symmetry_2
Am1 N1 2.475(13) 25
Am1 N1 2.475(13) 28
Am1 N1 2.475(13) 4
Am1 N1 2.475(13) 27
Am1 N1 2.475(13) 3
Am1 N1 2.475(13) 26
Am1 N1 2.475(13) 2
Am1 N1 2.475(13) .
Am1 C1 3.598(14) 25
Am1 C1 3.598(14) 4
Am1 C1 3.598(14) 28
Am1 C1 3.598(14) 27
N2 C2 1.56(3) 37
N2 C2 1.56(3) 13_556
N2 C2 1.56(3) 26_556
N2 C2 1.56(3) 2
N2 C2 1.56(3) 38
N2 C2 1.56(3) 25_556
N2 C2 1.56(3) 14_556
N2 C2 1.56(3) .
C2 C3 1.67(4) .
C2 C2 1.77(4) 37
C2 C2 1.77(4) 38
C2 C2 1.86(6) 26_556
N3 C4 1.53(3) .
N3 C4 1.53(3) 33_666
N3 C4 1.53(3) 25_666
N3 C4 1.53(3) 9
N3 C4 1.53(3) 29_666
N3 C4 1.53(3) 5
N3 C4 1.53(3) 35_655
N3 C4 1.53(3) 7_665
N3 C4 1.53(3) 31_556
N3 C4 1.53(3) 27_565
N3 C4 1.53(3) 3_656
N3 C4 1.53(3) 11_566
C3 C2 1.67(4) 26_556
C4 C4 1.53(3) 11_566
C4 C4 1.53(3) 31_556
C4 C4 1.53(3) 9
C4 C4 1.53(3) 5
C4 C5 1.624(18) 5
C4 C5 1.624(18) .
C5 C4 1.624(18) 11_566
C5 C4 1.624(18) 27_565
C5 C4 1.624(18) 9
S1 C1 1.559(14) .
C1 N1 1.123(18) .
