#------------------------------------------------------------------------------
#$Date: 2021-03-05 03:24:02 +0200 (Fri, 05 Mar 2021) $
#$Revision: 262512 $
#$URL: file:///home/coder/svn-repositories/cod/cif/7/12/76/7127691.cif $
#------------------------------------------------------------------------------
#
# This file is available in the Crystallography Open Database (COD),
# http://www.crystallography.net/
#
# All data on this site have been placed in the public domain by the
# contributors.
#
data_7127691
loop_
_publ_author_name
'Weippert, Valentin'
'Chau, Thanh'
'Witthaut, Kristian'
'Eisenburger, Lucien'
'Johrendt, Dirk'
_publ_section_title
;
 BaGe<sub>8</sub>As<sub>14</sub>: a semiconducting sodalite-type compound.
;
_journal_issue                   11
_journal_name_full
'Chemical communications (Cambridge, England)'
_journal_page_first              1332
_journal_page_last               1335
_journal_paper_doi               10.1039/d0cc07813a
_journal_volume                  57
_journal_year                    2021
_chemical_formula_moiety         'As14 Ba Ge8'
_chemical_formula_sum            'As14 Ba Ge8'
_chemical_formula_weight         1766.94
_space_group_crystal_system      cubic
_space_group_IT_number           217
_space_group_name_Hall           'I -4 2 3'
_space_group_name_H-M_alt        'I -4 3 m'
_atom_sites_solution_primary     iterative
_atom_sites_solution_secondary   difmap
_audit_creation_method           SHELXL-2018/3
_audit_update_record
;
2020-07-09 deposited with the CCDC.	2020-12-21 downloaded from the CCDC.
;
_cell_angle_alpha                90
_cell_angle_beta                 90
_cell_angle_gamma                90
_cell_formula_units_Z            2
_cell_length_a                   10.3145(2)
_cell_length_b                   10.3145(2)
_cell_length_c                   10.3145(2)
_cell_measurement_reflns_used    5587
_cell_measurement_temperature    293(2)
_cell_measurement_theta_max      71.848
_cell_measurement_theta_min      5.586
_cell_volume                     1097.35(4)
_computing_cell_refinement       'APEX3 (Bruker, 2016)'
_computing_data_collection       'APEX3 (Bruker, 2016)'
_computing_data_reduction        'APEX3 (Bruker, 2016)'
_computing_molecular_graphics    'DIAMOND 3 (Brandenburg, 2014)'
_computing_publication_material
;
PLATON V. 91007 (Spek, 2009)
STRUCTURETIDY (Gelato, Parth\'e, 1987)
;
_computing_structure_refinement  'SHELXL (Sheldrick, 2015)'
_computing_structure_solution    'SUPERFLIP (Palatinus & Chapuis, 2007)'
_diffrn_ambient_temperature      293(2)
_diffrn_measured_fraction_theta_full 0.984
_diffrn_measured_fraction_theta_max 0.990
_diffrn_measurement_device_type  'Bruker D8 Quest'
_diffrn_measurement_method       'combined \f \w scan'
_diffrn_radiation_monochromator  'Goebel Mirror'
_diffrn_radiation_type           MoK\a
_diffrn_radiation_wavelength     0.71073
_diffrn_reflns_av_R_equivalents  0.0408
_diffrn_reflns_av_unetI/netI     0.0113
_diffrn_reflns_Laue_measured_fraction_full 0.984
_diffrn_reflns_Laue_measured_fraction_max 0.990
_diffrn_reflns_limit_h_max       14
_diffrn_reflns_limit_h_min       -13
_diffrn_reflns_limit_k_max       14
_diffrn_reflns_limit_k_min       -14
_diffrn_reflns_limit_l_max       14
_diffrn_reflns_limit_l_min       -13
_diffrn_reflns_number            8373
_diffrn_reflns_point_group_measured_fraction_full 0.986
_diffrn_reflns_point_group_measured_fraction_max 0.991
_diffrn_reflns_theta_full        25.242
_diffrn_reflns_theta_max         29.952
_diffrn_reflns_theta_min         2.793
_diffrn_source                   'I\m S'
_exptl_absorpt_coefficient_mu    33.493
_exptl_absorpt_correction_T_max  0.3437
_exptl_absorpt_correction_T_min  0.1886
_exptl_absorpt_correction_type   multi-scan
_exptl_absorpt_process_details
;
Additional spherical absorption correction
 applied with mu*r =  0.8000  (Bruker, 2016)
;
_exptl_crystal_colour            black
_exptl_crystal_density_diffrn    5.348
_exptl_crystal_density_method    'not measured'
_exptl_crystal_description       block
_exptl_crystal_F_000             1548
_exptl_crystal_size_max          0.134
_exptl_crystal_size_mid          0.087
_exptl_crystal_size_min          0.054
_refine_diff_density_max         0.597
_refine_diff_density_min         -0.598
_refine_diff_density_rms         0.159
_refine_ls_abs_structure_details
;
 Refined as an inversion twin.
;
_refine_ls_abs_structure_Flack   0.22(12)
_refine_ls_extinction_method     none
_refine_ls_goodness_of_fit_ref   1.330
_refine_ls_hydrogen_treatment    undef
_refine_ls_matrix_type           full
_refine_ls_number_parameters     16
_refine_ls_number_reflns         329
_refine_ls_number_restraints     0
_refine_ls_restrained_S_all      1.330
_refine_ls_R_factor_all          0.0132
_refine_ls_R_factor_gt           0.0123
_refine_ls_shift/su_max          0.000
_refine_ls_shift/su_mean         0.000
_refine_ls_structure_factor_coef Fsqd
_refine_ls_weighting_details
'w=1/[\s^2^(Fo^2^)+(0.0161P)^2^+0.0356P] where P=(Fo^2^+2Fc^2^)/3'
_refine_ls_weighting_scheme      calc
_refine_ls_wR_factor_gt          0.0301
_refine_ls_wR_factor_ref         0.0303
_reflns_Friedel_coverage         0.741
_reflns_Friedel_fraction_full    0.989
_reflns_Friedel_fraction_max     0.993
_reflns_number_gt                325
_reflns_number_total             329
_reflns_threshold_expression     'I > 2\s(I)'
_cod_data_source_file            d0cc07813a2.cif
_cod_data_source_block           shelx
_cod_depositor_comments
'Adding full bibliography for 7127691--7127695.cif.'
_cod_original_cell_volume        1097.35(6)
_cod_database_code               7127691
_shelx_shelxl_version_number     2018/3
_shelx_space_group_comment
;
The symmetry employed for this shelxl refinement is uniquely defined
by the following loop, which should always be used as a source of
symmetry information in preference to the above space-group names.
They are only intended as comments.
;
_shelx_estimated_absorpt_t_min   0.094
_shelx_estimated_absorpt_t_max   0.265
_shelx_res_file
;
TITL nochmal in I-43m
    shelx.res
    created by SHELXL-2018/3 at 10:21:46 on 09-Jul-2020
CELL 0.71073  10.314500  10.314500  10.314500  90.000000  90.000000  90.000000
ZERR   2      0.000200   0.000200   0.000200   0.000000   0.000000   0.000000
LATT -2
SYMM -x,-y,z
SYMM -x,y,-z
SYMM x,-y,-z
SYMM z,x,y
SYMM z,-x,-y
SYMM -z,-x,y
SYMM -z,x,-y
SYMM y,z,x
SYMM -y,z,-x
SYMM y,-z,-x
SYMM -y,-z,x
SYMM y,x,z
SYMM -y,-x,z
SYMM y,-x,-z
SYMM -y,x,-z
SYMM x,z,y
SYMM -x,z,-y
SYMM -x,-z,y
SYMM x,-z,-y
SYMM z,y,x
SYMM z,-y,-x
SYMM -z,y,-x
SYMM -z,-y,x
SFAC Ge As Ba
UNIT  16 28 2
L.S.   10
FMAP   2
SIZE 0.054 0.087 0.134
TWIN
ACTA
EADP AS2 GE2
EXYZ AS2 GE2
PLAN   20
WGHT    0.016100    0.035600
BASF   0.21963
FVAR       0.06985
BA1   3    0.479979    0.479979    0.479979    10.04167    0.05035    0.05035 =
         0.05035   -0.00921   -0.00921   -0.00921
GE1   1    0.250000    0.500000    0.000000    10.25000    0.01286    0.00973 =
         0.00973    0.00000    0.00000    0.00000
GE2   1    0.219022    0.219022    0.219022    10.08333    0.01339    0.01339 =
         0.01339    0.00172    0.00172    0.00172
AS1   2    0.384986    0.384986    0.157076    10.50000    0.01216    0.01216 =
         0.01021    0.00053    0.00053    0.00034
AS2   2    0.219022    0.219022    0.219022    10.08333    0.01339    0.01339 =
         0.01339    0.00172    0.00172    0.00172

HKLF  4




REM  nochmal in I-43m
REM wR2 = 0.0303, GooF = S = 1.330, Restrained GooF = 1.330 for all data
REM R1 = 0.0123 for 325 Fo > 4sig(Fo) and 0.0132 for all 329 data
REM 16 parameters refined using 0 restraints

END

WGHT      0.0161      0.0356

REM Highest difference peak  0.597,  deepest hole -0.598,  1-sigma level  0.159
Q1    1   0.3283  0.4466  0.0688  11.00000  0.05    0.60
Q2    1   0.3007  0.3007  0.1707  10.50000  0.05    0.59
Q3    1   0.5000  0.5000  0.0349  10.25000  0.05    0.53
Q4    1   0.5000  0.5000  0.0000  10.12500  0.05    0.49
Q5    1   0.1282  0.4113  0.1282  10.50000  0.05    0.44
Q6    1   0.2996  0.2729  0.2996  10.50000  0.05    0.42
Q7    1   0.3194  0.3194  0.0700  10.50000  0.05    0.41
Q8    1   0.4214  0.5786  0.3235  10.50000  0.05    0.39
Q9    1   0.4301  0.3645  0.5699  10.50000  0.05    0.38
Q10   1   0.4428  0.4428  0.2511  10.50000  0.05    0.38
Q11   1   0.3996  0.3996  0.5611  10.50000  0.05    0.37
Q12   1   0.3589  0.6411  0.0679  10.50000  0.05    0.33
Q13   1   0.4562  0.4305  0.2239  11.00000  0.05    0.29
Q14   1   0.4587  0.2630  0.2630  10.50000  0.05    0.28
Q15   1   0.4638  0.4638  0.1907  10.50000  0.05    0.27
Q16   1   0.3057  0.4533  0.1810  11.00000  0.05    0.24
Q17   1   0.1256  0.1256  0.3111  10.50000  0.05    0.22
Q18   1   0.2951  0.4658  0.2322  11.00000  0.05    0.21
Q19   1   0.4232  0.3397  0.4232  10.50000  0.05    0.19
Q20   1   0.3286  0.5810  0.0461  11.00000  0.05    0.18
;
_shelx_res_checksum              60999
loop_
_space_group_symop_operation_xyz
'x, y, z'
'-x, -y, z'
'-x, y, -z'
'x, -y, -z'
'z, x, y'
'z, -x, -y'
'-z, -x, y'
'-z, x, -y'
'y, z, x'
'-y, z, -x'
'y, -z, -x'
'-y, -z, x'
'y, x, z'
'-y, -x, z'
'y, -x, -z'
'-y, x, -z'
'x, z, y'
'-x, z, -y'
'-x, -z, y'
'x, -z, -y'
'z, y, x'
'z, -y, -x'
'-z, y, -x'
'-z, -y, x'
'x+1/2, y+1/2, z+1/2'
'-x+1/2, -y+1/2, z+1/2'
'-x+1/2, y+1/2, -z+1/2'
'x+1/2, -y+1/2, -z+1/2'
'z+1/2, x+1/2, y+1/2'
'z+1/2, -x+1/2, -y+1/2'
'-z+1/2, -x+1/2, y+1/2'
'-z+1/2, x+1/2, -y+1/2'
'y+1/2, z+1/2, x+1/2'
'-y+1/2, z+1/2, -x+1/2'
'y+1/2, -z+1/2, -x+1/2'
'-y+1/2, -z+1/2, x+1/2'
'y+1/2, x+1/2, z+1/2'
'-y+1/2, -x+1/2, z+1/2'
'y+1/2, -x+1/2, -z+1/2'
'-y+1/2, x+1/2, -z+1/2'
'x+1/2, z+1/2, y+1/2'
'-x+1/2, z+1/2, -y+1/2'
'-x+1/2, -z+1/2, y+1/2'
'x+1/2, -z+1/2, -y+1/2'
'z+1/2, y+1/2, x+1/2'
'z+1/2, -y+1/2, -x+1/2'
'-z+1/2, y+1/2, -x+1/2'
'-z+1/2, -y+1/2, x+1/2'
loop_
_atom_site_label
_atom_site_type_symbol
_atom_site_fract_x
_atom_site_fract_y
_atom_site_fract_z
_atom_site_U_iso_or_equiv
_atom_site_adp_type
_atom_site_occupancy
_atom_site_site_symmetry_order
_atom_site_calc_flag
_atom_site_refinement_flags_posn
_atom_site_refinement_flags_adp
_atom_site_refinement_flags_occupancy
_atom_site_disorder_assembly
_atom_site_disorder_group
Ba1 Ba 0.47998(18) 0.47998(18) 0.47998(18) 0.0503(13) Uani 0.25 6 d S T P . .
Ge1 Ge 0.250000 0.500000 0.000000 0.01077(15) Uani 1 4 d S T P . .
Ge2 Ge 0.21902(5) 0.21902(5) 0.21902(5) 0.01339(18) Uani 0.5 6 d S T P . .
As1 As 0.38499(3) 0.38499(3) 0.15708(5) 0.01151(13) Uani 1 2 d S T P . .
As2 As 0.21902(5) 0.21902(5) 0.21902(5) 0.01339(18) Uani 0.5 6 d S T P . .
loop_
_atom_site_aniso_label
_atom_site_aniso_U_11
_atom_site_aniso_U_22
_atom_site_aniso_U_33
_atom_site_aniso_U_23
_atom_site_aniso_U_13
_atom_site_aniso_U_12
Ba1 0.0503(13) 0.0503(13) 0.0503(13) -0.0092(7) -0.0092(7) -0.0092(7)
Ge1 0.0129(3) 0.00973(18) 0.00973(18) 0.000 0.000 0.000
Ge2 0.01339(18) 0.01339(18) 0.01339(18) 0.00172(19) 0.00172(19) 0.00172(19)
As1 0.01216(16) 0.01216(16) 0.0102(2) 0.00053(12) 0.00053(12) 0.00034(16)
As2 0.01339(18) 0.01339(18) 0.01339(18) 0.00172(19) 0.00172(19) 0.00172(19)
loop_
_atom_type_symbol
_atom_type_description
_atom_type_scat_dispersion_real
_atom_type_scat_dispersion_imag
_atom_type_scat_source
Ge Ge 0.1547 1.8001 'International Tables Vol C Tables 4.2.6.8 and 6.1.1.4'
As As 0.0499 2.0058 'International Tables Vol C Tables 4.2.6.8 and 6.1.1.4'
Ba Ba -0.3244 2.2819 'International Tables Vol C Tables 4.2.6.8 and 6.1.1.4'
loop_
_geom_angle_atom_site_label_1
_geom_angle_atom_site_label_2
_geom_angle_atom_site_label_3
_geom_angle
_geom_angle_site_symmetry_1
_geom_angle_site_symmetry_3
_geom_angle_publ_flag
Ba1 Ba1 Ba1 60.0 4_566 3_656 ?
Ba1 Ba1 Ba1 59.998(1) 4_566 2_665 ?
Ba1 Ba1 Ba1 59.998(1) 3_656 2_665 ?
Ba1 Ba1 As1 147.664(10) 4_566 . ?
Ba1 Ba1 As1 147.664(10) 3_656 . ?
Ba1 Ba1 As1 112.59(3) 2_665 . ?
Ba1 Ba1 As1 147.664(10) 4_566 9 ?
Ba1 Ba1 As1 112.59(3) 3_656 9 ?
Ba1 Ba1 As1 147.664(10) 2_665 9 ?
As1 Ba1 As1 54.88(5) . 9 ?
Ba1 Ba1 As1 112.59(3) 4_566 5 ?
Ba1 Ba1 As1 147.664(10) 3_656 5 ?
Ba1 Ba1 As1 147.664(10) 2_665 5 ?
As1 Ba1 As1 54.88(5) . 5 ?
As1 Ba1 As1 54.88(5) 9 5 ?
Ba1 Ba1 Ge2 85.60(4) 4_566 26 ?
Ba1 Ba1 Ge2 85.60(4) 3_656 26 ?
Ba1 Ba1 Ge2 139.65(5) 2_665 26 ?
As1 Ba1 Ge2 107.75(7) . 26 ?
As1 Ba1 Ge2 62.09(3) 9 26 ?
As1 Ba1 Ge2 62.09(3) 5 26 ?
Ba1 Ba1 Ge2 139.65(5) 4_566 28 ?
Ba1 Ba1 Ge2 85.60(4) 3_656 28 ?
Ba1 Ba1 Ge2 85.60(4) 2_665 28 ?
As1 Ba1 Ge2 62.09(3) . 28 ?
As1 Ba1 Ge2 62.09(3) 9 28 ?
As1 Ba1 Ge2 107.76(7) 5 28 ?
Ge2 Ba1 Ge2 114.04(4) 26 28 ?
Ba1 Ba1 Ge2 85.60(4) 4_566 27 ?
Ba1 Ba1 Ge2 139.65(5) 3_656 27 ?
Ba1 Ba1 Ge2 85.60(4) 2_665 27 ?
As1 Ba1 Ge2 62.09(3) . 27 ?
As1 Ba1 Ge2 107.76(7) 9 27 ?
As1 Ba1 Ge2 62.09(3) 5 27 ?
Ge2 Ba1 Ge2 114.04(4) 26 27 ?
Ge2 Ba1 Ge2 114.04(4) 28 27 ?
Ba1 Ba1 As1 59.40(5) 4_566 6_566 ?
Ba1 Ba1 As1 110.74(4) 3_656 6_566 ?
Ba1 Ba1 As1 110.74(4) 2_665 6_566 ?
As1 Ba1 As1 101.32(5) . 6_566 ?
As1 Ba1 As1 101.32(5) 9 6_566 ?
As1 Ba1 As1 53.19(2) 5 6_566 ?
Ge2 Ba1 As1 59.807(9) 26 6_566 ?
Ge2 Ba1 As1 160.94(9) 28 6_566 ?
Ge2 Ba1 As1 59.807(9) 27 6_566 ?
Ba1 Ba1 As1 110.74(4) 4_566 10_656 ?
Ba1 Ba1 As1 59.40(5) 3_656 10_656 ?
Ba1 Ba1 As1 110.74(4) 2_665 10_656 ?
As1 Ba1 As1 101.32(5) . 10_656 ?
As1 Ba1 As1 53.19(2) 9 10_656 ?
As1 Ba1 As1 101.32(5) 5 10_656 ?
Ge2 Ba1 As1 59.807(9) 26 10_656 ?
Ge2 Ba1 As1 59.807(9) 28 10_656 ?
Ge2 Ba1 As1 160.94(9) 27 10_656 ?
As1 Ba1 As1 119.346(13) 6_566 10_656 ?
Ba1 Ba1 As1 110.74(4) 4_566 2_665 ?
Ba1 Ba1 As1 110.74(4) 3_656 2_665 ?
Ba1 Ba1 As1 59.40(5) 2_665 2_665 ?
As1 Ba1 As1 53.19(2) . 2_665 ?
As1 Ba1 As1 101.32(5) 9 2_665 ?
As1 Ba1 As1 101.32(5) 5 2_665 ?
Ge2 Ba1 As1 160.94(9) 26 2_665 ?
Ge2 Ba1 As1 59.807(9) 28 2_665 ?
Ge2 Ba1 As1 59.807(9) 27 2_665 ?
As1 Ba1 As1 119.346(13) 6_566 2_665 ?
As1 Ba1 As1 119.346(13) 10_656 2_665 ?
As1 Ge1 As1 110.53(2) 36_554 34 ?
As1 Ge1 As1 108.946(11) 36_554 4_565 ?
As1 Ge1 As1 108.946(11) 34 4_565 ?
As1 Ge1 As1 108.946(11) 36_554 . ?
As1 Ge1 As1 108.946(11) 34 . ?
As1 Ge1 As1 110.53(2) 4_565 . ?
Ge1 As1 Ge1 96.525(17) 30 . ?
Ge1 As1 As2 96.405(18) 30 . ?
Ge1 As1 As2 96.405(18) . . ?
Ge1 As1 Ba1 129.426(12) 30 . ?
Ge1 As1 Ba1 129.426(12) . . ?
As2 As1 Ba1 97.80(4) . . ?
Ge1 As1 Ba1 126.945(19) 30 2_665 ?
Ge1 As1 Ba1 126.945(19) . 2_665 ?
As2 As1 Ba1 105.82(5) . 2_665 ?
Ba1 As1 Ba1 8.01(7) . 2_665 ?
As1 As2 As1 83.19(3) . 9 ?
As1 As2 As1 83.19(3) . 5 ?
As1 As2 As1 83.20(3) 9 5 ?
As1 As2 Ba1 124.87(5) . 26_554 ?
As1 As2 Ba1 132.34(3) 9 26_554 ?
As1 As2 Ba1 132.34(3) 5 26_554 ?
As1 As2 Ba1 132.34(3) . 28_455 ?
As1 As2 Ba1 132.34(3) 9 28_455 ?
As1 As2 Ba1 124.87(5) 5 28_455 ?
Ba1 As2 Ba1 8.79(8) 26_554 28_455 ?
As1 As2 Ba1 132.34(3) . 27_545 ?
As1 As2 Ba1 124.87(5) 9 27_545 ?
As1 As2 Ba1 132.34(3) 5 27_545 ?
Ba1 As2 Ba1 8.79(8) 26_554 27_545 ?
Ba1 As2 Ba1 8.79(8) 28_455 27_545 ?
loop_
_geom_bond_atom_site_label_1
_geom_bond_atom_site_label_2
_geom_bond_distance
_geom_bond_site_symmetry_2
_geom_bond_publ_flag
Ba1 Ba1 0.584(5) 4_566 ?
Ba1 Ba1 0.584(5) 3_656 ?
Ba1 Ba1 0.584(5) 2_665 ?
Ba1 As1 3.607(3) . ?
Ba1 As1 3.607(3) 9 ?
Ba1 As1 3.607(3) 5 ?
Ba1 Ge2 3.8087(11) 26 ?
Ba1 Ge2 3.8087(11) 28 ?
Ba1 Ge2 3.8087(11) 27 ?
Ba1 As1 3.8695(6) 6_566 ?
Ba1 As1 3.8695(6) 10_656 ?
Ba1 As1 3.8695(6) 2_665 ?
Ge1 As1 2.4435(3) 36_554 ?
Ge1 As1 2.4435(3) 34 ?
Ge1 As1 2.4435(3) 4_565 ?
Ge1 As1 2.4435(3) . ?
As1 As2 2.5038(8) . ?
