#------------------------------------------------------------------------------
#$Date: 2021-03-05 03:24:02 +0200 (Fri, 05 Mar 2021) $
#$Revision: 262512 $
#$URL: file:///home/coder/svn-repositories/cod/cif/7/12/76/7127693.cif $
#------------------------------------------------------------------------------
#
# This file is available in the Crystallography Open Database (COD),
# http://www.crystallography.net/
#
# All data on this site have been placed in the public domain by the
# contributors.
#
data_7127693
loop_
_publ_author_name
'Weippert, Valentin'
'Chau, Thanh'
'Witthaut, Kristian'
'Eisenburger, Lucien'
'Johrendt, Dirk'
_publ_section_title
;
 BaGe<sub>8</sub>As<sub>14</sub>: a semiconducting sodalite-type compound.
;
_journal_issue                   11
_journal_name_full
'Chemical communications (Cambridge, England)'
_journal_page_first              1332
_journal_page_last               1335
_journal_paper_doi               10.1039/d0cc07813a
_journal_volume                  57
_journal_year                    2021
_chemical_formula_moiety         'As14 Ba Ge8'
_chemical_formula_sum            'As14 Ba Ge8'
_chemical_formula_weight         1766.94
_space_group_crystal_system      cubic
_space_group_IT_number           217
_space_group_name_Hall           'I -4 2 3'
_space_group_name_H-M_alt        'I -4 3 m'
_atom_sites_solution_primary     iterative
_atom_sites_solution_secondary   difmap
_audit_creation_method           SHELXL-2018/3
_audit_update_record
;
2020-07-17 deposited with the CCDC.	2020-12-21 downloaded from the CCDC.
;
_cell_angle_alpha                90
_cell_angle_beta                 90
_cell_angle_gamma                90
_cell_formula_units_Z            2
_cell_length_a                   10.3052(2)
_cell_length_b                   10.3052(2)
_cell_length_c                   10.3052(2)
_cell_measurement_reflns_used    9979
_cell_measurement_temperature    189(2)
_cell_measurement_theta_max      89.118
_cell_measurement_theta_min      5.591
_cell_volume                     1094.38(4)
_computing_cell_refinement       'APEX3 (Bruker, 2016)'
_computing_data_collection       'APEX3 (Bruker, 2016)'
_computing_data_reduction        'APEX3 (Bruker, 2016)'
_computing_molecular_graphics    'DIAMOND 3 (Brandenburg, 2014)'
_computing_publication_material
;
PLATON V. 91007 (Spek, 2009)
STRUCTURETIDY (Gelato, Parth\'e, 1987)
;
_computing_structure_refinement  'SHELXL (Sheldrick, 2015)'
_computing_structure_solution    'SUPERFLIP (Palatinus & Chapuis, 2007)'
_diffrn_ambient_temperature      189(2)
_diffrn_measured_fraction_theta_full 0.960
_diffrn_measured_fraction_theta_max 0.984
_diffrn_measurement_device_type  'Bruker D8 Venture'
_diffrn_measurement_method       'combined \f \w scan'
_diffrn_radiation_type           MoK\a
_diffrn_radiation_wavelength     0.71073
_diffrn_reflns_av_R_equivalents  0.0373
_diffrn_reflns_av_unetI/netI     0.0100
_diffrn_reflns_Laue_measured_fraction_full 0.960
_diffrn_reflns_Laue_measured_fraction_max 0.984
_diffrn_reflns_limit_h_max       17
_diffrn_reflns_limit_h_min       -17
_diffrn_reflns_limit_k_max       17
_diffrn_reflns_limit_k_min       -17
_diffrn_reflns_limit_l_max       17
_diffrn_reflns_limit_l_min       -17
_diffrn_reflns_number            17257
_diffrn_reflns_point_group_measured_fraction_full 0.958
_diffrn_reflns_point_group_measured_fraction_max 0.984
_diffrn_reflns_theta_full        25.242
_diffrn_reflns_theta_max         36.959
_diffrn_reflns_theta_min         2.795
_exptl_absorpt_coefficient_mu    33.584
_exptl_absorpt_correction_T_max  0.3555
_exptl_absorpt_correction_T_min  0.1829
_exptl_absorpt_correction_type   multi-scan
_exptl_absorpt_process_details
;
Additional spherical absorption correction
 applied with mu*r =  0.8000  (Bruker, 2016)
;
_exptl_crystal_colour            black
_exptl_crystal_density_diffrn    5.362
_exptl_crystal_density_method    'not measured'
_exptl_crystal_description       block
_exptl_crystal_F_000             1548
_exptl_crystal_size_max          0.119
_exptl_crystal_size_mid          0.111
_exptl_crystal_size_min          0.059
_refine_diff_density_max         1.105
_refine_diff_density_min         -0.741
_refine_diff_density_rms         0.179
_refine_ls_abs_structure_details
;
 Refined as an inversion twin.
;
_refine_ls_abs_structure_Flack   0.61(14)
_refine_ls_extinction_method     none
_refine_ls_goodness_of_fit_ref   1.431
_refine_ls_hydrogen_treatment    undef
_refine_ls_matrix_type           full
_refine_ls_number_parameters     16
_refine_ls_number_reflns         541
_refine_ls_number_restraints     0
_refine_ls_restrained_S_all      1.431
_refine_ls_R_factor_all          0.0119
_refine_ls_R_factor_gt           0.0119
_refine_ls_shift/su_max          0.000
_refine_ls_shift/su_mean         0.000
_refine_ls_structure_factor_coef Fsqd
_refine_ls_weighting_details
'w=1/[\s^2^(Fo^2^)+6.5987P] where P=(Fo^2^+2Fc^2^)/3'
_refine_ls_weighting_scheme      calc
_refine_ls_wR_factor_gt          0.0366
_refine_ls_wR_factor_ref         0.0366
_reflns_Friedel_coverage         0.774
_reflns_Friedel_fraction_full    0.955
_reflns_Friedel_fraction_max     0.983
_reflns_number_gt                537
_reflns_number_total             541
_reflns_threshold_expression     'I > 2\s(I)'
_cod_data_source_file            d0cc07813a2.cif
_cod_data_source_block           shelx_CCDC2
_cod_depositor_comments
'Adding full bibliography for 7127691--7127695.cif.'
_cod_original_cell_volume        1094.38(6)
_cod_database_code               7127693
_shelx_shelxl_version_number     2018/3
_shelx_space_group_comment
;
The symmetry employed for this shelxl refinement is uniquely defined
by the following loop, which should always be used as a source of
symmetry information in preference to the above space-group names.
They are only intended as comments.
;
_shelx_estimated_absorpt_t_min   0.108
_shelx_estimated_absorpt_t_max   0.242
_shelx_res_file
;
TITL 189 in I-43m
    shelx.res
    created by SHELXL-2018/3 at 15:31:08 on 16-Jul-2020
CELL 0.71073  10.305200  10.305200  10.305200  90.000000  90.000000  90.000000
ZERR   2      0.000200   0.000200   0.000200   0.000000   0.000000   0.000000
LATT -2
SYMM -x,-y,z
SYMM -x,y,-z
SYMM x,-y,-z
SYMM z,x,y
SYMM z,-x,-y
SYMM -z,-x,y
SYMM -z,x,-y
SYMM y,z,x
SYMM -y,z,-x
SYMM y,-z,-x
SYMM -y,-z,x
SYMM y,x,z
SYMM -y,-x,z
SYMM y,-x,-z
SYMM -y,x,-z
SYMM x,z,y
SYMM -x,z,-y
SYMM -x,-z,y
SYMM x,-z,-y
SYMM z,y,x
SYMM z,-y,-x
SYMM -z,y,-x
SYMM -z,-y,x
SFAC Ge As Ba
UNIT  16 28 2
L.S.   10
FMAP   2
TWIN
TEMP -84
ACTA
SIZE 0.059 0.111 0.119
EADP AS2 GE2
EXYZ AS2 GE2
PLAN   20
WGHT    0.000000    6.598700
BASF   0.61160
FVAR       0.08116
BA1   3    0.019809    0.019809    0.019809    10.04167    0.04169    0.04169 =
         0.04169   -0.00913   -0.00913   -0.00913
GE1   1    0.250000    0.500000    0.000000    10.25000    0.00854    0.00603 =
         0.00603    0.00000    0.00000    0.00000
GE2   1    0.281053    0.281053    0.281053    10.08333    0.00895    0.00895 =
         0.00895    0.00170    0.00170    0.00170
AS1   2    0.115133    0.115133    0.342869    10.50000    0.00781    0.00781 =
         0.00662    0.00045    0.00045    0.00030
AS2   2    0.281053    0.281053    0.281053    10.08333    0.00895    0.00895 =
         0.00895    0.00170    0.00170    0.00170

HKLF  4




REM  189 in I-43m
REM wR2 = 0.0366, GooF = S = 1.431, Restrained GooF = 1.431 for all data
REM R1 = 0.0119 for 537 Fo > 4sig(Fo) and 0.0119 for all 541 data
REM 16 parameters refined using 0 restraints

END

WGHT      0.0000      6.5990

REM Highest difference peak  1.105,  deepest hole -0.741,  1-sigma level  0.179
Q1    1   0.0000  0.0487  0.0000  10.25000  0.05    1.10
Q2    1   0.0509  0.0509  0.0509  10.16667  0.05    0.72
Q3    1   0.0000  0.0000  0.1364  10.25000  0.05    0.70
Q4    1  -0.0545  0.0545  0.0545  10.16667  0.05    0.61
Q5    1   0.1132  0.1132 -0.0626  10.50000  0.05    0.53
Q6    1   0.1357  0.1074  0.1074  10.50000  0.05    0.53
Q7    1  -0.0410  0.1030  0.1339  11.00000  0.05    0.51
Q8    1  -0.0659  0.1464  0.0659  10.50000  0.05    0.48
Q9    1   0.0955  0.0955  0.0955  10.16667  0.05    0.48
Q10   1   0.0908  0.0908  0.1637  10.50000  0.05    0.46
Q11   1   0.3104  0.4077  0.4077  10.50000  0.05    0.46
Q12   1   0.1414 -0.0343  0.0343  10.50000  0.05    0.45
Q13   1   0.1247  0.0587 -0.0160  11.00000  0.05    0.45
Q14   1   0.1176  0.0312  0.1176  10.50000  0.05    0.43
Q15   1   0.1764  0.0925 -0.0218  11.00000  0.05    0.43
Q16   1   0.1614  0.0545  0.0545  10.50000  0.05    0.42
Q17   1   0.0595 -0.0595  0.2243  10.50000  0.05    0.42
Q18   1   0.0000  0.0000  0.4640  10.25000  0.05    0.42
Q19   1   0.0561  0.0561  0.3162  10.50000  0.05    0.42
Q20   1   0.1182 -0.0096  0.1512  11.00000  0.05    0.38
;
_shelx_res_checksum              76716
loop_
_space_group_symop_operation_xyz
'x, y, z'
'-x, -y, z'
'-x, y, -z'
'x, -y, -z'
'z, x, y'
'z, -x, -y'
'-z, -x, y'
'-z, x, -y'
'y, z, x'
'-y, z, -x'
'y, -z, -x'
'-y, -z, x'
'y, x, z'
'-y, -x, z'
'y, -x, -z'
'-y, x, -z'
'x, z, y'
'-x, z, -y'
'-x, -z, y'
'x, -z, -y'
'z, y, x'
'z, -y, -x'
'-z, y, -x'
'-z, -y, x'
'x+1/2, y+1/2, z+1/2'
'-x+1/2, -y+1/2, z+1/2'
'-x+1/2, y+1/2, -z+1/2'
'x+1/2, -y+1/2, -z+1/2'
'z+1/2, x+1/2, y+1/2'
'z+1/2, -x+1/2, -y+1/2'
'-z+1/2, -x+1/2, y+1/2'
'-z+1/2, x+1/2, -y+1/2'
'y+1/2, z+1/2, x+1/2'
'-y+1/2, z+1/2, -x+1/2'
'y+1/2, -z+1/2, -x+1/2'
'-y+1/2, -z+1/2, x+1/2'
'y+1/2, x+1/2, z+1/2'
'-y+1/2, -x+1/2, z+1/2'
'y+1/2, -x+1/2, -z+1/2'
'-y+1/2, x+1/2, -z+1/2'
'x+1/2, z+1/2, y+1/2'
'-x+1/2, z+1/2, -y+1/2'
'-x+1/2, -z+1/2, y+1/2'
'x+1/2, -z+1/2, -y+1/2'
'z+1/2, y+1/2, x+1/2'
'z+1/2, -y+1/2, -x+1/2'
'-z+1/2, y+1/2, -x+1/2'
'-z+1/2, -y+1/2, x+1/2'
loop_
_atom_site_label
_atom_site_type_symbol
_atom_site_fract_x
_atom_site_fract_y
_atom_site_fract_z
_atom_site_U_iso_or_equiv
_atom_site_adp_type
_atom_site_occupancy
_atom_site_site_symmetry_order
_atom_site_calc_flag
_atom_site_refinement_flags_posn
_atom_site_refinement_flags_adp
_atom_site_refinement_flags_occupancy
_atom_site_disorder_assembly
_atom_site_disorder_group
Ba1 Ba 0.01981(17) 0.01981(17) 0.01981(17) 0.0417(12) Uani 0.25 6 d S T P . .
Ge1 Ge 0.250000 0.500000 0.000000 0.00687(11) Uani 1 4 d S T P . .
Ge2 Ge 0.28105(5) 0.28105(5) 0.28105(5) 0.00895(15) Uani 0.5 6 d S T P . .
As1 As 0.11513(4) 0.11513(4) 0.34287(5) 0.00742(9) Uani 1 2 d S T P . .
As2 As 0.28105(5) 0.28105(5) 0.28105(5) 0.00895(15) Uani 0.5 6 d S T P . .
loop_
_atom_site_aniso_label
_atom_site_aniso_U_11
_atom_site_aniso_U_22
_atom_site_aniso_U_33
_atom_site_aniso_U_23
_atom_site_aniso_U_13
_atom_site_aniso_U_12
Ba1 0.0417(12) 0.0417(12) 0.0417(12) -0.0091(6) -0.0091(6) -0.0091(6)
Ge1 0.0085(2) 0.00603(15) 0.00603(15) 0.000 0.000 0.000
Ge2 0.00895(15) 0.00895(15) 0.00895(15) 0.00170(16) 0.00170(16) 0.00170(16)
As1 0.00781(12) 0.00781(12) 0.00662(18) 0.00045(10) 0.00045(10) 0.00030(13)
As2 0.00895(15) 0.00895(15) 0.00895(15) 0.00170(16) 0.00170(16) 0.00170(16)
loop_
_atom_type_symbol
_atom_type_description
_atom_type_scat_dispersion_real
_atom_type_scat_dispersion_imag
_atom_type_scat_source
Ge Ge 0.1547 1.8001 'International Tables Vol C Tables 4.2.6.8 and 6.1.1.4'
As As 0.0499 2.0058 'International Tables Vol C Tables 4.2.6.8 and 6.1.1.4'
Ba Ba -0.3244 2.2819 'International Tables Vol C Tables 4.2.6.8 and 6.1.1.4'
loop_
_geom_angle_atom_site_label_1
_geom_angle_atom_site_label_2
_geom_angle_atom_site_label_3
_geom_angle
_geom_angle_site_symmetry_1
_geom_angle_site_symmetry_3
_geom_angle_publ_flag
Ba1 Ba1 Ba1 59.995(1) 4 3 ?
Ba1 Ba1 Ba1 59.995(1) 4 2 ?
Ba1 Ba1 Ba1 59.995(1) 3 2 ?
Ba1 Ba1 As1 147.687(9) 4 9 ?
Ba1 Ba1 As1 112.65(3) 3 9 ?
Ba1 Ba1 As1 147.687(9) 2 9 ?
Ba1 Ba1 As1 112.65(3) 4 5 ?
Ba1 Ba1 As1 147.687(9) 3 5 ?
Ba1 Ba1 As1 147.687(9) 2 5 ?
As1 Ba1 As1 54.78(5) 9 5 ?
Ba1 Ba1 As1 147.686(9) 4 . ?
Ba1 Ba1 As1 147.686(9) 3 . ?
Ba1 Ba1 As1 112.65(3) 2 . ?
As1 Ba1 As1 54.78(5) 9 . ?
As1 Ba1 As1 54.78(5) 5 . ?
Ba1 Ba1 Ge2 85.65(4) 4 27_545 ?
Ba1 Ba1 Ge2 139.71(5) 3 27_545 ?
Ba1 Ba1 Ge2 85.65(4) 2 27_545 ?
As1 Ba1 Ge2 107.64(7) 9 27_545 ?
As1 Ba1 Ge2 62.06(3) 5 27_545 ?
As1 Ba1 Ge2 62.06(3) . 27_545 ?
Ba1 Ba1 Ge2 139.71(5) 4 28_455 ?
Ba1 Ba1 Ge2 85.65(4) 3 28_455 ?
Ba1 Ba1 Ge2 85.65(4) 2 28_455 ?
As1 Ba1 Ge2 62.06(3) 9 28_455 ?
As1 Ba1 Ge2 107.64(7) 5 28_455 ?
As1 Ba1 Ge2 62.06(3) . 28_455 ?
Ge2 Ba1 Ge2 114.00(4) 27_545 28_455 ?
Ba1 Ba1 Ge2 85.65(4) 4 26_554 ?
Ba1 Ba1 Ge2 85.65(4) 3 26_554 ?
Ba1 Ba1 Ge2 139.71(5) 2 26_554 ?
As1 Ba1 Ge2 62.06(3) 9 26_554 ?
As1 Ba1 Ge2 62.06(3) 5 26_554 ?
As1 Ba1 Ge2 107.64(7) . 26_554 ?
Ge2 Ba1 Ge2 114.00(4) 27_545 26_554 ?
Ge2 Ba1 Ge2 114.00(4) 28_455 26_554 ?
Ba1 Ba1 As1 110.76(4) 4 10 ?
Ba1 Ba1 As1 59.43(5) 3 10 ?
Ba1 Ba1 As1 110.76(4) 2 10 ?
As1 Ba1 As1 53.22(2) 9 10 ?
As1 Ba1 As1 101.27(5) 5 10 ?
As1 Ba1 As1 101.27(5) . 10 ?
Ge2 Ba1 As1 160.86(9) 27_545 10 ?
Ge2 Ba1 As1 59.803(9) 28_455 10 ?
Ge2 Ba1 As1 59.803(9) 26_554 10 ?
Ba1 Ba1 As1 59.43(5) 4 6 ?
Ba1 Ba1 As1 110.76(4) 3 6 ?
Ba1 Ba1 As1 110.76(4) 2 6 ?
As1 Ba1 As1 101.27(5) 9 6 ?
As1 Ba1 As1 53.22(2) 5 6 ?
As1 Ba1 As1 101.27(5) . 6 ?
Ge2 Ba1 As1 59.803(9) 27_545 6 ?
Ge2 Ba1 As1 160.86(9) 28_455 6 ?
Ge2 Ba1 As1 59.803(9) 26_554 6 ?
As1 Ba1 As1 119.338(13) 10 6 ?
Ba1 Ba1 As1 110.76(4) 4 2 ?
Ba1 Ba1 As1 110.76(4) 3 2 ?
Ba1 Ba1 As1 59.43(5) 2 2 ?
As1 Ba1 As1 101.27(5) 9 2 ?
As1 Ba1 As1 101.27(5) 5 2 ?
As1 Ba1 As1 53.22(2) . 2 ?
Ge2 Ba1 As1 59.803(9) 27_545 2 ?
Ge2 Ba1 As1 59.803(9) 28_455 2 ?
Ge2 Ba1 As1 160.86(9) 26_554 2 ?
As1 Ba1 As1 119.338(13) 10 2 ?
As1 Ba1 As1 119.338(13) 6 2 ?
As1 Ge1 As1 108.905(12) 27 9 ?
As1 Ge1 As1 110.61(2) 27 26_554 ?
As1 Ge1 As1 108.905(12) 9 26_554 ?
As1 Ge1 As1 108.905(12) 27 11_565 ?
As1 Ge1 As1 110.61(2) 9 11_565 ?
As1 Ge1 As1 108.905(12) 26_554 11_565 ?
Ge1 As1 Ge1 96.511(17) 26 5 ?
Ge1 As1 As2 96.430(18) 26 . ?
Ge1 As1 As2 96.430(18) 5 . ?
Ge1 As1 Ba1 129.400(12) 26 . ?
Ge1 As1 Ba1 129.400(12) 5 . ?
As2 As1 Ba1 97.89(3) . . ?
Ge1 As1 Ba1 126.940(19) 26 2 ?
Ge1 As1 Ba1 126.940(19) 5 2 ?
As2 As1 Ba1 105.81(5) . 2 ?
Ba1 As1 Ba1 7.92(7) . 2 ?
As1 As2 As1 83.16(3) 9 5 ?
As1 As2 As1 83.16(3) 9 . ?
As1 As2 As1 83.16(3) 5 . ?
As1 As2 Ba1 124.95(5) 9 27 ?
As1 As2 Ba1 132.34(3) 5 27 ?
As1 As2 Ba1 132.34(3) . 27 ?
As1 As2 Ba1 132.34(3) 9 28 ?
As1 As2 Ba1 124.95(5) 5 28 ?
As1 As2 Ba1 132.34(3) . 28 ?
Ba1 As2 Ba1 8.70(8) 27 28 ?
As1 As2 Ba1 132.34(3) 9 26 ?
As1 As2 Ba1 132.34(3) 5 26 ?
As1 As2 Ba1 124.95(5) . 26 ?
Ba1 As2 Ba1 8.70(8) 27 26 ?
Ba1 As2 Ba1 8.70(8) 28 26 ?
loop_
_geom_bond_atom_site_label_1
_geom_bond_atom_site_label_2
_geom_bond_distance
_geom_bond_site_symmetry_2
_geom_bond_publ_flag
Ba1 Ba1 0.577(5) 4 ?
Ba1 Ba1 0.577(5) 3 ?
Ba1 Ba1 0.577(5) 2 ?
Ba1 As1 3.607(3) 9 ?
Ba1 As1 3.607(3) 5 ?
Ba1 As1 3.607(3) . ?
Ba1 Ge2 3.8048(12) 27_545 ?
Ba1 Ge2 3.8048(12) 28_455 ?
Ba1 Ge2 3.8048(12) 26_554 ?
Ba1 As1 3.8666(5) 10 ?
Ba1 As1 3.8666(5) 6 ?
Ba1 As1 3.8666(5) 2 ?
Ge1 As1 2.4416(3) 27 ?
Ge1 As1 2.4416(3) 9 ?
Ge1 As1 2.4416(3) 26_554 ?
Ge1 As1 2.4416(3) 11_565 ?
As1 As2 2.5006(8) . ?
