#------------------------------------------------------------------------------
#$Date: 2021-03-05 03:24:02 +0200 (Fri, 05 Mar 2021) $
#$Revision: 262512 $
#$URL: file:///home/coder/svn-repositories/cod/cif/7/12/76/7127692.cif $
#------------------------------------------------------------------------------
#
# This file is available in the Crystallography Open Database (COD),
# http://www.crystallography.net/
#
# All data on this site have been placed in the public domain by the
# contributors.
#
data_7127692
loop_
_publ_author_name
'Weippert, Valentin'
'Chau, Thanh'
'Witthaut, Kristian'
'Eisenburger, Lucien'
'Johrendt, Dirk'
_publ_section_title
;
 BaGe<sub>8</sub>As<sub>14</sub>: a semiconducting sodalite-type compound.
;
_journal_issue                   11
_journal_name_full
'Chemical communications (Cambridge, England)'
_journal_page_first              1332
_journal_page_last               1335
_journal_paper_doi               10.1039/d0cc07813a
_journal_volume                  57
_journal_year                    2021
_chemical_formula_moiety         'As14 Ba Ge8'
_chemical_formula_sum            'As14 Ba Ge8'
_chemical_formula_weight         1766.94
_space_group_crystal_system      cubic
_space_group_IT_number           217
_space_group_name_Hall           'I -4 2 3'
_space_group_name_H-M_alt        'I -4 3 m'
_atom_sites_solution_primary     iterative
_atom_sites_solution_secondary   difmap
_audit_creation_method           SHELXL-2018/3
_audit_update_record
;
2020-07-17 deposited with the CCDC.	2020-12-21 downloaded from the CCDC.
;
_cell_angle_alpha                90
_cell_angle_beta                 90
_cell_angle_gamma                90
_cell_formula_units_Z            2
_cell_length_a                   10.3060(2)
_cell_length_b                   10.3060(2)
_cell_length_c                   10.3060(2)
_cell_measurement_reflns_used    9982
_cell_measurement_temperature    218(2)
_cell_measurement_theta_max      89.110
_cell_measurement_theta_min      5.590
_cell_volume                     1094.64(4)
_computing_cell_refinement       'APEX3 (Bruker, 2016)'
_computing_data_collection       'APEX3 (Bruker, 2016)'
_computing_data_reduction        'APEX3 (Bruker, 2016)'
_computing_molecular_graphics    'DIAMOND 3 (Brandenburg, 2014)'
_computing_publication_material
;
PLATON V. 91007 (Spek, 2009)
STRUCTURETIDY (Gelato, Parth\'e, 1987)
;
_computing_structure_refinement  'SHELXL (Sheldrick, 2015)'
_computing_structure_solution    'SUPERFLIP (Palatinus & Chapuis, 2007)'
_diffrn_ambient_temperature      218(2)
_diffrn_measured_fraction_theta_full 0.952
_diffrn_measured_fraction_theta_max 0.981
_diffrn_measurement_device_type  'Bruker D8 Venture'
_diffrn_measurement_method       'combined \f \w scan'
_diffrn_radiation_type           MoK\a
_diffrn_radiation_wavelength     0.71073
_diffrn_reflns_av_R_equivalents  0.0355
_diffrn_reflns_av_unetI/netI     0.0098
_diffrn_reflns_Laue_measured_fraction_full 0.952
_diffrn_reflns_Laue_measured_fraction_max 0.981
_diffrn_reflns_limit_h_max       17
_diffrn_reflns_limit_h_min       -17
_diffrn_reflns_limit_k_max       17
_diffrn_reflns_limit_k_min       -17
_diffrn_reflns_limit_l_max       17
_diffrn_reflns_limit_l_min       -17
_diffrn_reflns_number            17101
_diffrn_reflns_point_group_measured_fraction_full 0.953
_diffrn_reflns_point_group_measured_fraction_max 0.982
_diffrn_reflns_theta_full        25.242
_diffrn_reflns_theta_max         36.956
_diffrn_reflns_theta_min         2.795
_exptl_absorpt_coefficient_mu    33.576
_exptl_absorpt_correction_T_max  0.3554
_exptl_absorpt_correction_T_min  0.1855
_exptl_absorpt_correction_type   multi-scan
_exptl_absorpt_process_details
;
Additional spherical absorption correction
 applied with mu*r =  0.8000  (Bruker, 2016)
;
_exptl_crystal_colour            black
_exptl_crystal_density_diffrn    5.361
_exptl_crystal_density_method    'not measured'
_exptl_crystal_description       block
_exptl_crystal_F_000             1548
_exptl_crystal_size_max          0.119
_exptl_crystal_size_mid          0.111
_exptl_crystal_size_min          0.059
_refine_diff_density_max         0.870
_refine_diff_density_min         -0.436
_refine_diff_density_rms         0.157
_refine_ls_abs_structure_details
;
 Refined as an inversion twin.
;
_refine_ls_abs_structure_Flack   0.42(15)
_refine_ls_extinction_method     none
_refine_ls_goodness_of_fit_ref   1.418
_refine_ls_hydrogen_treatment    undef
_refine_ls_matrix_type           full
_refine_ls_number_parameters     16
_refine_ls_number_reflns         540
_refine_ls_number_restraints     0
_refine_ls_restrained_S_all      1.418
_refine_ls_R_factor_all          0.0120
_refine_ls_R_factor_gt           0.0116
_refine_ls_shift/su_max          0.000
_refine_ls_shift/su_mean         0.000
_refine_ls_structure_factor_coef Fsqd
_refine_ls_weighting_details
'w=1/[\s^2^(Fo^2^)+6.5139P] where P=(Fo^2^+2Fc^2^)/3'
_refine_ls_weighting_scheme      calc
_refine_ls_wR_factor_gt          0.0373
_refine_ls_wR_factor_ref         0.0374
_reflns_Friedel_coverage         0.776
_reflns_Friedel_fraction_full    0.955
_reflns_Friedel_fraction_max     0.983
_reflns_number_gt                536
_reflns_number_total             540
_reflns_threshold_expression     'I > 2\s(I)'
_cod_data_source_file            d0cc07813a2.cif
_cod_data_source_block           shelx_CCDC1
_cod_depositor_comments
'Adding full bibliography for 7127691--7127695.cif.'
_cod_original_cell_volume        1094.64(6)
_cod_database_code               7127692
_shelx_shelxl_version_number     2018/3
_shelx_space_group_comment
;
The symmetry employed for this shelxl refinement is uniquely defined
by the following loop, which should always be used as a source of
symmetry information in preference to the above space-group names.
They are only intended as comments.
;
_shelx_estimated_absorpt_t_min   0.109
_shelx_estimated_absorpt_t_max   0.242
_shelx_res_file
;
TITL 218 in I-43m
    shelx.res
    created by SHELXL-2018/3 at 15:33:47 on 16-Jul-2020
CELL 0.71073  10.306000  10.306000  10.306000  90.000000  90.000000  90.000000
ZERR   2      0.000200   0.000200   0.000200   0.000000   0.000000   0.000000
LATT -2
SYMM -x,-y,z
SYMM -x,y,-z
SYMM x,-y,-z
SYMM z,x,y
SYMM z,-x,-y
SYMM -z,-x,y
SYMM -z,x,-y
SYMM y,z,x
SYMM -y,z,-x
SYMM y,-z,-x
SYMM -y,-z,x
SYMM y,x,z
SYMM -y,-x,z
SYMM y,-x,-z
SYMM -y,x,-z
SYMM x,z,y
SYMM -x,z,-y
SYMM -x,-z,y
SYMM x,-z,-y
SYMM z,y,x
SYMM z,-y,-x
SYMM -z,y,-x
SYMM -z,-y,x
SFAC Ge As Ba
UNIT  16 28 2
L.S.   10
FMAP   2
TWIN
TEMP -55
ACTA
SIZE 0.059 0.111 0.119
EADP AS2 GE2
EXYZ AS2 GE2
PLAN   20
WGHT    0.000000    6.513900
BASF   0.42211
FVAR       0.09435
BA1   3    0.019858    0.019858    0.019858    10.04167    0.04465    0.04465 =
         0.04465   -0.00923   -0.00923   -0.00923
GE1   1    0.250000    0.500000    0.000000    10.25000    0.00978    0.00699 =
         0.00699    0.00000    0.00000    0.00000
GE2   1    0.281022    0.281022    0.281022    10.08333    0.01021    0.01021 =
         0.01021    0.00186    0.00186    0.00186
AS1   2    0.115117    0.115117    0.342916    10.50000    0.00894    0.00894 =
         0.00776    0.00054    0.00054    0.00035
AS2   2    0.281022    0.281022    0.281022    10.08333    0.01021    0.01021 =
         0.01021    0.00186    0.00186    0.00186

HKLF  4




REM  218 in I-43m
REM wR2 = 0.0374, GooF = S = 1.418, Restrained GooF = 1.418 for all data
REM R1 = 0.0116 for 536 Fo > 4sig(Fo) and 0.0120 for all 540 data
REM 16 parameters refined using 0 restraints

END

WGHT      0.0000      6.5140

REM Highest difference peak  0.870,  deepest hole -0.436,  1-sigma level  0.157
Q1    1   0.0614  0.0000  0.0000  10.25000  0.05    0.87
Q2    1   0.0505  0.0505  0.0505  10.16667  0.05    0.79
Q3    1  -0.0240  0.0240  0.0240  10.16667  0.05    0.67
Q4    1   0.0000  0.0000  0.1440  10.25000  0.05    0.66
Q5    1   0.1066  0.1066 -0.0654  10.50000  0.05    0.63
Q6    1   0.0935  0.0935  0.0658  10.50000  0.05    0.51
Q7    1  -0.0540  0.0540  0.0540  10.16667  0.05    0.49
Q8    1   0.1065  0.0380  0.1065  10.50000  0.05    0.48
Q9    1   0.2211  0.2211  0.2211  10.16667  0.05    0.44
Q10   1   0.0502  0.1624  0.1624  10.50000  0.05    0.43
Q11   1   0.1007  0.0783 -0.0160  11.00000  0.05    0.42
Q12   1   0.3234  0.4080  0.3844  11.00000  0.05    0.40
Q13   1   0.1585  0.0503  0.0503  10.50000  0.05    0.37
Q14   1   0.0260  0.0260  0.2488  10.50000  0.05    0.37
Q15   1  -0.0300  0.0300  0.2432  10.50000  0.05    0.30
Q16   1  -0.0306  0.0802  0.2475  11.00000  0.05    0.30
Q17   1   0.1137  0.1137  0.2810  10.50000  0.05    0.29
Q18   1   0.0000  0.0000  0.3162  10.25000  0.05    0.29
Q19   1   0.2941  0.3723  0.3723  10.50000  0.05    0.29
Q20   1   0.1429  0.1049  0.1049  10.50000  0.05    0.28
;
_shelx_res_checksum              13360
loop_
_space_group_symop_operation_xyz
'x, y, z'
'-x, -y, z'
'-x, y, -z'
'x, -y, -z'
'z, x, y'
'z, -x, -y'
'-z, -x, y'
'-z, x, -y'
'y, z, x'
'-y, z, -x'
'y, -z, -x'
'-y, -z, x'
'y, x, z'
'-y, -x, z'
'y, -x, -z'
'-y, x, -z'
'x, z, y'
'-x, z, -y'
'-x, -z, y'
'x, -z, -y'
'z, y, x'
'z, -y, -x'
'-z, y, -x'
'-z, -y, x'
'x+1/2, y+1/2, z+1/2'
'-x+1/2, -y+1/2, z+1/2'
'-x+1/2, y+1/2, -z+1/2'
'x+1/2, -y+1/2, -z+1/2'
'z+1/2, x+1/2, y+1/2'
'z+1/2, -x+1/2, -y+1/2'
'-z+1/2, -x+1/2, y+1/2'
'-z+1/2, x+1/2, -y+1/2'
'y+1/2, z+1/2, x+1/2'
'-y+1/2, z+1/2, -x+1/2'
'y+1/2, -z+1/2, -x+1/2'
'-y+1/2, -z+1/2, x+1/2'
'y+1/2, x+1/2, z+1/2'
'-y+1/2, -x+1/2, z+1/2'
'y+1/2, -x+1/2, -z+1/2'
'-y+1/2, x+1/2, -z+1/2'
'x+1/2, z+1/2, y+1/2'
'-x+1/2, z+1/2, -y+1/2'
'-x+1/2, -z+1/2, y+1/2'
'x+1/2, -z+1/2, -y+1/2'
'z+1/2, y+1/2, x+1/2'
'z+1/2, -y+1/2, -x+1/2'
'-z+1/2, y+1/2, -x+1/2'
'-z+1/2, -y+1/2, x+1/2'
loop_
_atom_site_label
_atom_site_type_symbol
_atom_site_fract_x
_atom_site_fract_y
_atom_site_fract_z
_atom_site_U_iso_or_equiv
_atom_site_adp_type
_atom_site_occupancy
_atom_site_site_symmetry_order
_atom_site_calc_flag
_atom_site_refinement_flags_posn
_atom_site_refinement_flags_adp
_atom_site_refinement_flags_occupancy
_atom_site_disorder_assembly
_atom_site_disorder_group
Ba1 Ba 0.01986(18) 0.01986(18) 0.01986(18) 0.0446(12) Uani 0.25 6 d S T P . .
Ge1 Ge 0.250000 0.500000 0.000000 0.00792(11) Uani 1 4 d S T P . .
Ge2 Ge 0.28102(5) 0.28102(5) 0.28102(5) 0.01021(15) Uani 0.5 6 d S T P . .
As1 As 0.11512(4) 0.11512(4) 0.34292(5) 0.00855(9) Uani 1 2 d S T P . .
As2 As 0.28102(5) 0.28102(5) 0.28102(5) 0.01021(15) Uani 0.5 6 d S T P . .
loop_
_atom_site_aniso_label
_atom_site_aniso_U_11
_atom_site_aniso_U_22
_atom_site_aniso_U_33
_atom_site_aniso_U_23
_atom_site_aniso_U_13
_atom_site_aniso_U_12
Ba1 0.0446(12) 0.0446(12) 0.0446(12) -0.0092(6) -0.0092(6) -0.0092(6)
Ge1 0.0098(3) 0.00699(15) 0.00699(15) 0.000 0.000 0.000
Ge2 0.01021(15) 0.01021(15) 0.01021(15) 0.00186(17) 0.00186(17) 0.00186(17)
As1 0.00894(12) 0.00894(12) 0.00776(18) 0.00054(10) 0.00054(10) 0.00035(14)
As2 0.01021(15) 0.01021(15) 0.01021(15) 0.00186(17) 0.00186(17) 0.00186(17)
loop_
_atom_type_symbol
_atom_type_description
_atom_type_scat_dispersion_real
_atom_type_scat_dispersion_imag
_atom_type_scat_source
Ge Ge 0.1547 1.8001 'International Tables Vol C Tables 4.2.6.8 and 6.1.1.4'
As As 0.0499 2.0058 'International Tables Vol C Tables 4.2.6.8 and 6.1.1.4'
Ba Ba -0.3244 2.2819 'International Tables Vol C Tables 4.2.6.8 and 6.1.1.4'
loop_
_geom_angle_atom_site_label_1
_geom_angle_atom_site_label_2
_geom_angle_atom_site_label_3
_geom_angle
_geom_angle_site_symmetry_1
_geom_angle_site_symmetry_3
_geom_angle_publ_flag
Ba1 Ba1 Ba1 60.002(1) 4 3 ?
Ba1 Ba1 Ba1 60.002(1) 4 2 ?
Ba1 Ba1 Ba1 60.002(1) 3 2 ?
Ba1 Ba1 As1 147.679(10) 4 . ?
Ba1 Ba1 As1 147.679(10) 3 . ?
Ba1 Ba1 As1 112.63(3) 2 . ?
Ba1 Ba1 As1 147.680(10) 4 9 ?
Ba1 Ba1 As1 112.64(3) 3 9 ?
Ba1 Ba1 As1 147.680(10) 2 9 ?
As1 Ba1 As1 54.80(5) . 9 ?
Ba1 Ba1 As1 112.64(3) 4 5 ?
Ba1 Ba1 As1 147.680(10) 3 5 ?
Ba1 Ba1 As1 147.680(10) 2 5 ?
As1 Ba1 As1 54.80(5) . 5 ?
As1 Ba1 As1 54.80(5) 9 5 ?
Ba1 Ba1 Ge2 85.64(4) 4 26_554 ?
Ba1 Ba1 Ge2 85.64(4) 3 26_554 ?
Ba1 Ba1 Ge2 139.70(5) 2 26_554 ?
As1 Ba1 Ge2 107.67(8) . 26_554 ?
As1 Ba1 Ge2 62.07(3) 9 26_554 ?
As1 Ba1 Ge2 62.07(3) 5 26_554 ?
Ba1 Ba1 Ge2 139.70(5) 4 28_455 ?
Ba1 Ba1 Ge2 85.64(4) 3 28_455 ?
Ba1 Ba1 Ge2 85.64(4) 2 28_455 ?
As1 Ba1 Ge2 62.07(3) . 28_455 ?
As1 Ba1 Ge2 62.07(3) 9 28_455 ?
As1 Ba1 Ge2 107.67(8) 5 28_455 ?
Ge2 Ba1 Ge2 114.01(4) 26_554 28_455 ?
Ba1 Ba1 Ge2 85.64(4) 4 27_545 ?
Ba1 Ba1 Ge2 139.70(5) 3 27_545 ?
Ba1 Ba1 Ge2 85.64(4) 2 27_545 ?
As1 Ba1 Ge2 62.07(3) . 27_545 ?
As1 Ba1 Ge2 107.67(8) 9 27_545 ?
As1 Ba1 Ge2 62.07(3) 5 27_545 ?
Ge2 Ba1 Ge2 114.01(4) 26_554 27_545 ?
Ge2 Ba1 Ge2 114.01(4) 28_455 27_545 ?
Ba1 Ba1 As1 110.76(4) 4 10 ?
Ba1 Ba1 As1 59.42(5) 3 10 ?
Ba1 Ba1 As1 110.76(4) 2 10 ?
As1 Ba1 As1 101.28(6) . 10 ?
As1 Ba1 As1 53.21(3) 9 10 ?
As1 Ba1 As1 101.28(6) 5 10 ?
Ge2 Ba1 As1 59.804(9) 26_554 10 ?
Ge2 Ba1 As1 59.804(9) 28_455 10 ?
Ge2 Ba1 As1 160.88(10) 27_545 10 ?
Ba1 Ba1 As1 59.42(5) 4 6 ?
Ba1 Ba1 As1 110.76(4) 3 6 ?
Ba1 Ba1 As1 110.76(4) 2 6 ?
As1 Ba1 As1 101.28(6) . 6 ?
As1 Ba1 As1 101.28(6) 9 6 ?
As1 Ba1 As1 53.21(3) 5 6 ?
Ge2 Ba1 As1 59.804(9) 26_554 6 ?
Ge2 Ba1 As1 160.88(10) 28_455 6 ?
Ge2 Ba1 As1 59.804(9) 27_545 6 ?
As1 Ba1 As1 119.340(14) 10 6 ?
Ba1 Ba1 As1 110.76(4) 4 2 ?
Ba1 Ba1 As1 110.76(4) 3 2 ?
Ba1 Ba1 As1 59.42(5) 2 2 ?
As1 Ba1 As1 53.21(3) . 2 ?
As1 Ba1 As1 101.28(6) 9 2 ?
As1 Ba1 As1 101.28(6) 5 2 ?
Ge2 Ba1 As1 160.88(10) 26_554 2 ?
Ge2 Ba1 As1 59.804(9) 28_455 2 ?
Ge2 Ba1 As1 59.804(9) 27_545 2 ?
As1 Ba1 As1 119.340(14) 10 2 ?
As1 Ba1 As1 119.340(14) 6 2 ?
As1 Ge1 As1 108.915(12) 27 9 ?
As1 Ge1 As1 110.59(2) 27 26_554 ?
As1 Ge1 As1 108.915(12) 9 26_554 ?
As1 Ge1 As1 108.915(12) 27 11_565 ?
As1 Ge1 As1 110.59(2) 9 11_565 ?
As1 Ge1 As1 108.915(12) 26_554 11_565 ?
Ge1 As1 Ge1 96.527(17) 5 26 ?
Ge1 As1 As2 96.436(18) 5 . ?
Ge1 As1 As2 96.436(18) 26 . ?
Ge1 As1 Ba1 129.399(12) 5 . ?
Ge1 As1 Ba1 129.399(12) 26 . ?
As2 As1 Ba1 97.86(4) . . ?
Ge1 As1 Ba1 126.93(2) 5 2 ?
Ge1 As1 Ba1 126.93(2) 26 2 ?
As2 As1 Ba1 105.80(5) . 2 ?
Ba1 As1 Ba1 7.94(8) . 2 ?
As1 As2 As1 83.19(3) 9 5 ?
As1 As2 As1 83.19(3) 9 . ?
As1 As2 As1 83.19(3) 5 . ?
As1 As2 Ba1 124.92(5) 9 27 ?
As1 As2 Ba1 132.33(3) 5 27 ?
As1 As2 Ba1 132.33(3) . 27 ?
As1 As2 Ba1 132.33(3) 9 28 ?
As1 As2 Ba1 124.92(5) 5 28 ?
As1 As2 Ba1 132.33(3) . 28 ?
Ba1 As2 Ba1 8.72(8) 27 28 ?
As1 As2 Ba1 132.33(3) 9 26 ?
As1 As2 Ba1 132.33(3) 5 26 ?
As1 As2 Ba1 124.92(5) . 26 ?
Ba1 As2 Ba1 8.72(8) 27 26 ?
Ba1 As2 Ba1 8.72(8) 28 26 ?
loop_
_geom_bond_atom_site_label_1
_geom_bond_atom_site_label_2
_geom_bond_distance
_geom_bond_site_symmetry_2
_geom_bond_publ_flag
Ba1 Ba1 0.579(5) 4 ?
Ba1 Ba1 0.579(5) 3 ?
Ba1 Ba1 0.579(5) 2 ?
Ba1 As1 3.607(3) . ?
Ba1 As1 3.607(3) 9 ?
Ba1 As1 3.607(3) 5 ?
Ba1 Ge2 3.8054(12) 26_554 ?
Ba1 Ge2 3.8054(12) 28_455 ?
Ba1 Ge2 3.8054(12) 27_545 ?
Ba1 As1 3.8672(5) 10 ?
Ba1 As1 3.8672(5) 6 ?
Ba1 As1 3.8672(5) 2 ?
Ge1 As1 2.4415(3) 27 ?
Ge1 As1 2.4415(3) 9 ?
Ge1 As1 2.4415(3) 26_554 ?
Ge1 As1 2.4415(3) 11_565 ?
As1 As2 2.5008(8) . ?
