#------------------------------------------------------------------------------
#$Date: 2021-03-05 03:24:02 +0200 (Fri, 05 Mar 2021) $
#$Revision: 262512 $
#$URL: file:///home/coder/svn-repositories/cod/cif/7/12/76/7127694.cif $
#------------------------------------------------------------------------------
#
# This file is available in the Crystallography Open Database (COD),
# http://www.crystallography.net/
#
# All data on this site have been placed in the public domain by the
# contributors.
#
data_7127694
loop_
_publ_author_name
'Weippert, Valentin'
'Chau, Thanh'
'Witthaut, Kristian'
'Eisenburger, Lucien'
'Johrendt, Dirk'
_publ_section_title
;
 BaGe<sub>8</sub>As<sub>14</sub>: a semiconducting sodalite-type compound.
;
_journal_issue                   11
_journal_name_full
'Chemical communications (Cambridge, England)'
_journal_page_first              1332
_journal_page_last               1335
_journal_paper_doi               10.1039/d0cc07813a
_journal_volume                  57
_journal_year                    2021
_chemical_formula_moiety         'As14 Ba Ge8'
_chemical_formula_sum            'As14 Ba Ge8'
_chemical_formula_weight         1766.94
_space_group_crystal_system      cubic
_space_group_IT_number           217
_space_group_name_Hall           'I -4 2 3'
_space_group_name_H-M_alt        'I -4 3 m'
_atom_sites_solution_primary     iterative
_atom_sites_solution_secondary   difmap
_audit_creation_method           SHELXL-2018/3
_audit_update_record
;
2020-07-17 deposited with the CCDC.	2020-12-21 downloaded from the CCDC.
;
_cell_angle_alpha                90
_cell_angle_beta                 90
_cell_angle_gamma                90
_cell_formula_units_Z            2
_cell_length_a                   10.2967(2)
_cell_length_b                   10.2967(2)
_cell_length_c                   10.2967(2)
_cell_measurement_reflns_used    9953
_cell_measurement_temperature    103(2)
_cell_measurement_theta_max      89.211
_cell_measurement_theta_min      5.595
_cell_volume                     1091.68(4)
_computing_cell_refinement       'APEX3 (Bruker, 2016)'
_computing_data_collection       'APEX3 (Bruker, 2016)'
_computing_data_reduction        'APEX3 (Bruker, 2016)'
_computing_molecular_graphics    'DIAMOND 3 (Brandenburg, 2014)'
_computing_publication_material
;
PLATON V. 91007 (Spek, 2009)
STRUCTURETIDY (Gelato, Parth\'e, 1987)
;
_computing_structure_refinement  'SHELXL (Sheldrick, 2015)'
_computing_structure_solution    'SUPERFLIP (Palatinus & Chapuis, 2007)'
_diffrn_ambient_temperature      103(2)
_diffrn_measured_fraction_theta_full 0.984
_diffrn_measured_fraction_theta_max 0.994
_diffrn_measurement_device_type  'Bruker D8 Venture'
_diffrn_measurement_method       'combined \f \w scan'
_diffrn_radiation_type           MoK\a
_diffrn_radiation_wavelength     0.71073
_diffrn_reflns_av_R_equivalents  0.0395
_diffrn_reflns_av_unetI/netI     0.0105
_diffrn_reflns_Laue_measured_fraction_full 0.984
_diffrn_reflns_Laue_measured_fraction_max 0.994
_diffrn_reflns_limit_h_max       17
_diffrn_reflns_limit_h_min       -17
_diffrn_reflns_limit_k_max       17
_diffrn_reflns_limit_k_min       -17
_diffrn_reflns_limit_l_max       17
_diffrn_reflns_limit_l_min       -17
_diffrn_reflns_number            17494
_diffrn_reflns_point_group_measured_fraction_full 0.986
_diffrn_reflns_point_group_measured_fraction_max 0.995
_diffrn_reflns_theta_full        25.242
_diffrn_reflns_theta_max         36.995
_diffrn_reflns_theta_min         2.798
_exptl_absorpt_coefficient_mu    33.667
_exptl_absorpt_correction_T_max  0.7489
_exptl_absorpt_correction_T_min  0.4348
_exptl_absorpt_correction_type   multi-scan
_exptl_absorpt_process_details
;
Additional spherical absorption correction
 applied with mu*r =  0.2000  (Bruker, 2016)
;
_exptl_crystal_colour            black
_exptl_crystal_density_diffrn    5.375
_exptl_crystal_density_method    'not measured'
_exptl_crystal_description       block
_exptl_crystal_F_000             1548
_exptl_crystal_size_max          0.119
_exptl_crystal_size_mid          0.111
_exptl_crystal_size_min          0.059
_refine_diff_density_max         1.266
_refine_diff_density_min         -0.524
_refine_diff_density_rms         0.166
_refine_ls_abs_structure_details
;
 Refined as an inversion twin.
;
_refine_ls_abs_structure_Flack   0.45(13)
_refine_ls_extinction_method     none
_refine_ls_goodness_of_fit_ref   1.351
_refine_ls_hydrogen_treatment    undef
_refine_ls_matrix_type           full
_refine_ls_number_parameters     16
_refine_ls_number_reflns         547
_refine_ls_number_restraints     0
_refine_ls_restrained_S_all      1.351
_refine_ls_R_factor_all          0.0121
_refine_ls_R_factor_gt           0.0119
_refine_ls_shift/su_max          0.000
_refine_ls_shift/su_mean         0.000
_refine_ls_structure_factor_coef Fsqd
_refine_ls_weighting_details
'w=1/[\s^2^(Fo^2^)+7.8597P] where P=(Fo^2^+2Fc^2^)/3'
_refine_ls_weighting_scheme      calc
_refine_ls_wR_factor_gt          0.0345
_refine_ls_wR_factor_ref         0.0346
_reflns_Friedel_coverage         0.776
_reflns_Friedel_fraction_full    0.989
_reflns_Friedel_fraction_max     0.996
_reflns_number_gt                542
_reflns_number_total             547
_reflns_threshold_expression     'I > 2\s(I)'
_cod_data_source_file            d0cc07813a2.cif
_cod_data_source_block           shelx_CCDC3
_cod_depositor_comments
'Adding full bibliography for 7127691--7127695.cif.'
_cod_original_cell_volume        1091.68(6)
_cod_database_code               7127694
_shelx_shelxl_version_number     2018/3
_shelx_space_group_comment
;
The symmetry employed for this shelxl refinement is uniquely defined
by the following loop, which should always be used as a source of
symmetry information in preference to the above space-group names.
They are only intended as comments.
;
_shelx_estimated_absorpt_t_min   0.108
_shelx_estimated_absorpt_t_max   0.241
_shelx_res_file
;
TITL 103 in I-43m
    shelx.res
    created by SHELXL-2018/3 at 15:38:30 on 16-Jul-2020
CELL 0.71073  10.296700  10.296700  10.296700  90.000000  90.000000  90.000000
ZERR   2      0.000200   0.000200   0.000200   0.000000   0.000000   0.000000
LATT -2
SYMM -x,-y,z
SYMM -x,y,-z
SYMM x,-y,-z
SYMM z,x,y
SYMM z,-x,-y
SYMM -z,-x,y
SYMM -z,x,-y
SYMM y,z,x
SYMM -y,z,-x
SYMM y,-z,-x
SYMM -y,-z,x
SYMM y,x,z
SYMM -y,-x,z
SYMM y,-x,-z
SYMM -y,x,-z
SYMM x,z,y
SYMM -x,z,-y
SYMM -x,-z,y
SYMM x,-z,-y
SYMM z,y,x
SYMM z,-y,-x
SYMM -z,y,-x
SYMM -z,-y,x
SFAC Ge As Ba
UNIT  16 28 2
L.S.   10
FMAP   2
TWIN
TEMP -170
ACTA
SIZE 0.059 0.111 0.119
EADP AS2 GE2
EXYZ AS2 GE2
PLAN   20
WGHT    0.000000    7.859700
BASF   0.44959
FVAR       0.06167
BA1   3    0.019873    0.019873    0.019873    10.04167    0.03396    0.03396 =
         0.03396   -0.00891   -0.00891   -0.00891
GE1   1    0.250000    0.500000    0.000000    10.25000    0.00537    0.00345 =
         0.00345    0.00000    0.00000    0.00000
GE2   1    0.281121    0.281121    0.281121    10.08333    0.00593    0.00593 =
         0.00593    0.00172    0.00172    0.00172
AS1   2    0.115136    0.115136    0.342840    10.50000    0.00481    0.00481 =
         0.00413    0.00043    0.00043    0.00028
AS2   2    0.281121    0.281121    0.281121    10.08333    0.00593    0.00593 =
         0.00593    0.00172    0.00172    0.00172

HKLF  4




REM  103 in I-43m
REM wR2 = 0.0346, GooF = S = 1.351, Restrained GooF = 1.351 for all data
REM R1 = 0.0119 for 542 Fo > 4sig(Fo) and 0.0121 for all 547 data
REM 16 parameters refined using 0 restraints

END

WGHT      0.0000      7.8585

REM Highest difference peak  1.266,  deepest hole -0.524,  1-sigma level  0.166
Q1    1   0.0599  0.0000  0.0000  10.25000  0.05    1.27
Q2    1   0.0538  0.0538  0.0538  10.16667  0.05    1.09
Q3    1  -0.0591  0.0591  0.0591  10.16667  0.05    0.84
Q4    1   0.1107  0.1107 -0.0672  10.50000  0.05    0.67
Q5    1   0.1145  0.0328  0.1145  10.50000  0.05    0.61
Q6    1  -0.0738  0.0738  0.1331  10.50000  0.05    0.55
Q7    1   0.1664  0.0000  0.0000  10.25000  0.05    0.51
Q8    1   0.1172  0.0596 -0.0128  11.00000  0.05    0.50
Q9    1   0.1209  0.1209  0.1209  10.16667  0.05    0.47
Q10   1   0.0537 -0.0537  0.2336  10.50000  0.05    0.47
Q11   1   0.0497  0.1595  0.1595  10.50000  0.05    0.42
Q12   1   0.1568  0.0586  0.0586  10.50000  0.05    0.42
Q13   1   0.0573  0.0573  0.3180  10.50000  0.05    0.41
Q14   1   0.0721  0.0721  0.1780  10.50000  0.05    0.40
Q15   1   0.4280  0.3999  0.3047  11.00000  0.05    0.38
Q16   1   0.0401  0.0401  0.2425  10.50000  0.05    0.38
Q17   1   0.1889 -0.0218  0.0849  11.00000  0.05    0.35
Q18   1   0.0241  0.0899  0.1841  11.00000  0.05    0.34
Q19   1   0.2400  0.0224  0.2400  10.50000  0.05    0.33
Q20   1   0.0758  0.1025  0.1771  11.00000  0.05    0.33
;
_shelx_res_checksum              60324
loop_
_space_group_symop_operation_xyz
'x, y, z'
'-x, -y, z'
'-x, y, -z'
'x, -y, -z'
'z, x, y'
'z, -x, -y'
'-z, -x, y'
'-z, x, -y'
'y, z, x'
'-y, z, -x'
'y, -z, -x'
'-y, -z, x'
'y, x, z'
'-y, -x, z'
'y, -x, -z'
'-y, x, -z'
'x, z, y'
'-x, z, -y'
'-x, -z, y'
'x, -z, -y'
'z, y, x'
'z, -y, -x'
'-z, y, -x'
'-z, -y, x'
'x+1/2, y+1/2, z+1/2'
'-x+1/2, -y+1/2, z+1/2'
'-x+1/2, y+1/2, -z+1/2'
'x+1/2, -y+1/2, -z+1/2'
'z+1/2, x+1/2, y+1/2'
'z+1/2, -x+1/2, -y+1/2'
'-z+1/2, -x+1/2, y+1/2'
'-z+1/2, x+1/2, -y+1/2'
'y+1/2, z+1/2, x+1/2'
'-y+1/2, z+1/2, -x+1/2'
'y+1/2, -z+1/2, -x+1/2'
'-y+1/2, -z+1/2, x+1/2'
'y+1/2, x+1/2, z+1/2'
'-y+1/2, -x+1/2, z+1/2'
'y+1/2, -x+1/2, -z+1/2'
'-y+1/2, x+1/2, -z+1/2'
'x+1/2, z+1/2, y+1/2'
'-x+1/2, z+1/2, -y+1/2'
'-x+1/2, -z+1/2, y+1/2'
'x+1/2, -z+1/2, -y+1/2'
'z+1/2, y+1/2, x+1/2'
'z+1/2, -y+1/2, -x+1/2'
'-z+1/2, y+1/2, -x+1/2'
'-z+1/2, -y+1/2, x+1/2'
loop_
_atom_site_label
_atom_site_type_symbol
_atom_site_fract_x
_atom_site_fract_y
_atom_site_fract_z
_atom_site_U_iso_or_equiv
_atom_site_adp_type
_atom_site_occupancy
_atom_site_site_symmetry_order
_atom_site_calc_flag
_atom_site_refinement_flags_posn
_atom_site_refinement_flags_adp
_atom_site_refinement_flags_occupancy
_atom_site_disorder_assembly
_atom_site_disorder_group
Ba1 Ba 0.01987(15) 0.01987(15) 0.01987(15) 0.0340(10) Uani 0.25 6 d S T P . .
Ge1 Ge 0.250000 0.500000 0.000000 0.00409(10) Uani 1 4 d S T P . .
Ge2 Ge 0.28112(5) 0.28112(5) 0.28112(5) 0.00593(14) Uani 0.5 6 d S T P . .
As1 As 0.11514(3) 0.11514(3) 0.34284(5) 0.00459(8) Uani 1 2 d S T P . .
As2 As 0.28112(5) 0.28112(5) 0.28112(5) 0.00593(14) Uani 0.5 6 d S T P . .
loop_
_atom_site_aniso_label
_atom_site_aniso_U_11
_atom_site_aniso_U_22
_atom_site_aniso_U_33
_atom_site_aniso_U_23
_atom_site_aniso_U_13
_atom_site_aniso_U_12
Ba1 0.0340(10) 0.0340(10) 0.0340(10) -0.0089(5) -0.0089(5) -0.0089(5)
Ge1 0.0054(2) 0.00345(14) 0.00345(14) 0.000 0.000 0.000
Ge2 0.00593(14) 0.00593(14) 0.00593(14) 0.00172(15) 0.00172(15) 0.00172(15)
As1 0.00481(11) 0.00481(11) 0.00413(17) 0.00043(10) 0.00043(10) 0.00028(13)
As2 0.00593(14) 0.00593(14) 0.00593(14) 0.00172(15) 0.00172(15) 0.00172(15)
loop_
_atom_type_symbol
_atom_type_description
_atom_type_scat_dispersion_real
_atom_type_scat_dispersion_imag
_atom_type_scat_source
Ge Ge 0.1547 1.8001 'International Tables Vol C Tables 4.2.6.8 and 6.1.1.4'
As As 0.0499 2.0058 'International Tables Vol C Tables 4.2.6.8 and 6.1.1.4'
Ba Ba -0.3244 2.2819 'International Tables Vol C Tables 4.2.6.8 and 6.1.1.4'
loop_
_geom_angle_atom_site_label_1
_geom_angle_atom_site_label_2
_geom_angle_atom_site_label_3
_geom_angle
_geom_angle_site_symmetry_1
_geom_angle_site_symmetry_3
_geom_angle_publ_flag
Ba1 Ba1 Ba1 60.002(1) 4 3 ?
Ba1 Ba1 Ba1 60.002(1) 4 2 ?
Ba1 Ba1 Ba1 60.002(1) 3 2 ?
Ba1 Ba1 As1 147.682(8) 4 . ?
Ba1 Ba1 As1 147.682(8) 3 . ?
Ba1 Ba1 As1 112.64(2) 2 . ?
Ba1 Ba1 As1 147.682(8) 4 9 ?
Ba1 Ba1 As1 112.64(2) 3 9 ?
Ba1 Ba1 As1 147.682(8) 2 9 ?
As1 Ba1 As1 54.79(4) . 9 ?
Ba1 Ba1 As1 112.64(2) 4 5 ?
Ba1 Ba1 As1 147.682(8) 3 5 ?
Ba1 Ba1 As1 147.682(8) 2 5 ?
As1 Ba1 As1 54.79(4) . 5 ?
As1 Ba1 As1 54.79(4) 9 5 ?
Ba1 Ba1 Ge2 85.63(3) 4 26_554 ?
Ba1 Ba1 Ge2 85.63(3) 3 26_554 ?
Ba1 Ba1 Ge2 139.69(4) 2 26_554 ?
As1 Ba1 Ge2 107.67(6) . 26_554 ?
As1 Ba1 Ge2 62.07(3) 9 26_554 ?
As1 Ba1 Ge2 62.07(3) 5 26_554 ?
Ba1 Ba1 Ge2 139.69(4) 4 28_455 ?
Ba1 Ba1 Ge2 85.63(3) 3 28_455 ?
Ba1 Ba1 Ge2 85.63(3) 2 28_455 ?
As1 Ba1 Ge2 62.07(3) . 28_455 ?
As1 Ba1 Ge2 62.07(3) 9 28_455 ?
As1 Ba1 Ge2 107.67(6) 5 28_455 ?
Ge2 Ba1 Ge2 114.01(3) 26_554 28_455 ?
Ba1 Ba1 Ge2 85.63(3) 4 27_545 ?
Ba1 Ba1 Ge2 139.69(4) 3 27_545 ?
Ba1 Ba1 Ge2 85.63(3) 2 27_545 ?
As1 Ba1 Ge2 62.07(3) . 27_545 ?
As1 Ba1 Ge2 107.67(6) 9 27_545 ?
As1 Ba1 Ge2 62.07(3) 5 27_545 ?
Ge2 Ba1 Ge2 114.01(3) 26_554 27_545 ?
Ge2 Ba1 Ge2 114.01(3) 28_455 27_545 ?
Ba1 Ba1 As1 59.41(4) 4 6 ?
Ba1 Ba1 As1 110.75(3) 3 6 ?
Ba1 Ba1 As1 110.75(3) 2 6 ?
As1 Ba1 As1 101.29(5) . 6 ?
As1 Ba1 As1 101.29(5) 9 6 ?
As1 Ba1 As1 53.23(2) 5 6 ?
Ge2 Ba1 As1 59.806(8) 26_554 6 ?
Ge2 Ba1 As1 160.90(8) 28_455 6 ?
Ge2 Ba1 As1 59.806(8) 27_545 6 ?
Ba1 Ba1 As1 110.75(3) 4 10 ?
Ba1 Ba1 As1 59.41(4) 3 10 ?
Ba1 Ba1 As1 110.75(3) 2 10 ?
As1 Ba1 As1 101.29(5) . 10 ?
As1 Ba1 As1 53.23(2) 9 10 ?
As1 Ba1 As1 101.29(5) 5 10 ?
Ge2 Ba1 As1 59.806(8) 26_554 10 ?
Ge2 Ba1 As1 59.806(8) 28_455 10 ?
Ge2 Ba1 As1 160.90(8) 27_545 10 ?
As1 Ba1 As1 119.343(11) 6 10 ?
Ba1 Ba1 As1 110.75(3) 4 2 ?
Ba1 Ba1 As1 110.75(3) 3 2 ?
Ba1 Ba1 As1 59.41(4) 2 2 ?
As1 Ba1 As1 53.23(2) . 2 ?
As1 Ba1 As1 101.29(5) 9 2 ?
As1 Ba1 As1 101.29(5) 5 2 ?
Ge2 Ba1 As1 160.90(8) 26_554 2 ?
Ge2 Ba1 As1 59.806(8) 28_455 2 ?
Ge2 Ba1 As1 59.806(8) 27_545 2 ?
As1 Ba1 As1 119.343(11) 6 2 ?
As1 Ba1 As1 119.343(11) 10 2 ?
As1 Ge1 As1 108.903(11) 27 9 ?
As1 Ge1 As1 110.61(2) 27 26_554 ?
As1 Ge1 As1 108.903(11) 9 26_554 ?
As1 Ge1 As1 108.903(11) 27 11_565 ?
As1 Ge1 As1 110.61(2) 9 11_565 ?
As1 Ge1 As1 108.903(11) 26_554 11_565 ?
Ge1 As1 Ge1 96.501(16) 5 26 ?
Ge1 As1 As2 96.414(17) 5 . ?
Ge1 As1 As2 96.414(17) 26 . ?
Ge1 As1 Ba1 129.406(11) 5 . ?
Ge1 As1 Ba1 129.406(11) 26 . ?
As2 As1 Ba1 97.91(3) . . ?
Ge1 As1 Ba1 126.936(17) 5 2 ?
Ge1 As1 Ba1 126.936(17) 26 2 ?
As2 As1 Ba1 105.86(4) . 2 ?
Ba1 As1 Ba1 7.95(6) . 2 ?
As1 As2 As1 83.12(3) . 9 ?
As1 As2 As1 83.12(3) . 5 ?
As1 As2 As1 83.12(3) 9 5 ?
As1 As2 Ba1 124.96(4) . 26 ?
As1 As2 Ba1 132.38(2) 9 26 ?
As1 As2 Ba1 132.38(2) 5 26 ?
As1 As2 Ba1 132.38(2) . 28 ?
As1 As2 Ba1 132.38(2) 9 28 ?
As1 As2 Ba1 124.96(4) 5 28 ?
Ba1 As2 Ba1 8.74(7) 26 28 ?
As1 As2 Ba1 132.38(2) . 27 ?
As1 As2 Ba1 124.96(4) 9 27 ?
As1 As2 Ba1 132.38(2) 5 27 ?
Ba1 As2 Ba1 8.74(7) 26 27 ?
Ba1 As2 Ba1 8.74(7) 28 27 ?
loop_
_geom_bond_atom_site_label_1
_geom_bond_atom_site_label_2
_geom_bond_distance
_geom_bond_site_symmetry_2
_geom_bond_publ_flag
Ba1 Ba1 0.579(4) 4 ?
Ba1 Ba1 0.579(4) 3 ?
Ba1 Ba1 0.579(4) 2 ?
Ba1 As1 3.603(2) . ?
Ba1 As1 3.603(2) 9 ?
Ba1 As1 3.603(2) 5 ?
Ba1 Ge2 3.8002(11) 26_554 ?
Ba1 Ge2 3.8002(11) 28_455 ?
Ba1 Ge2 3.8002(11) 27_545 ?
Ba1 As1 3.8632(5) 6 ?
Ba1 As1 3.8632(5) 10 ?
Ba1 As1 3.8632(5) 2 ?
Ge1 As1 2.4398(3) 27 ?
Ge1 As1 2.4398(3) 9 ?
Ge1 As1 2.4398(3) 26_554 ?
Ge1 As1 2.4398(3) 11_565 ?
As1 As2 2.4992(8) . ?
