#------------------------------------------------------------------------------
#$Date: 2021-09-06 12:13:29 +0300 (Mon, 06 Sep 2021) $
#$Revision: 268548 $
#$URL: file:///home/coder/svn-repositories/cod/cif/7/12/86/7128629.cif $
#------------------------------------------------------------------------------
#
# This file is available in the Crystallography Open Database (COD),
# http://www.crystallography.net/
#
# All data on this site have been placed in the public domain by the
# contributors.
#
data_7128629
loop_
_publ_author_name
'Gao, Lihua'
'Chu, Yu'
'Wu, Xiaowen'
'Zhang, Bingbing'
'Wu, Kui'
_publ_section_title
;
 From thiophosphate to chalcohalide: mixed-anion
 AgS<sub>x</sub>Cl<sub>y</sub> ligands concurrently enhancing nonlinear
 optical effects and laser-damage threshold.
;
_journal_issue                   66
_journal_name_full
'Chemical communications (Cambridge, England)'
_journal_page_first              8218
_journal_page_last               8221
_journal_paper_doi               10.1039/d1cc02656a
_journal_volume                  57
_journal_year                    2021
_chemical_formula_sum            'Ag5 Cl2 P S4'
_chemical_formula_weight         769.46
_space_group_crystal_system      orthorhombic
_space_group_IT_number           38
_space_group_name_Hall           'A 2 -2'
_space_group_name_H-M_alt        'A m m 2'
_atom_sites_solution_hydrogens   none
_audit_creation_method           SHELXL-2016/6
_audit_update_record
;
2021-07-03 deposited with the CCDC.	2021-07-08 downloaded from the CCDC.
;
_cell_angle_alpha                90
_cell_angle_beta                 90
_cell_angle_gamma                90
_cell_formula_units_Z            2
_cell_length_a                   7.44(3)
_cell_length_b                   11.17(4)
_cell_length_c                   6.30(2)
_cell_measurement_reflns_used    531
_cell_measurement_temperature    296(2)
_cell_measurement_theta_max      26.49
_cell_measurement_theta_min      3.65
_cell_volume                     524(3)
_computing_cell_refinement       'Bruker SMART'
_computing_data_collection       'Bruker SMART'
_computing_data_reduction        'Bruker SAINT'
_computing_molecular_graphics    'Bruker SHELXTL'
_computing_publication_material  'Bruker SHELXTL'
_computing_structure_refinement  'Bruker SHELXTL'
_computing_structure_solution    'Bruker SHELXTL'
_diffrn_ambient_temperature      296(2)
_diffrn_measured_fraction_theta_full 0.976
_diffrn_measured_fraction_theta_max 0.976
_diffrn_measurement_device_type  'CCD area detector'
_diffrn_measurement_method       'phi and omega scans'
_diffrn_radiation_type           MoK\a
_diffrn_radiation_wavelength     0.71073
_diffrn_reflns_av_R_equivalents  0.0367
_diffrn_reflns_av_unetI/netI     0.0487
_diffrn_reflns_Laue_measured_fraction_full 0.976
_diffrn_reflns_Laue_measured_fraction_max 0.976
_diffrn_reflns_limit_h_max       8
_diffrn_reflns_limit_h_min       -8
_diffrn_reflns_limit_k_max       10
_diffrn_reflns_limit_k_min       -13
_diffrn_reflns_limit_l_max       7
_diffrn_reflns_limit_l_min       -6
_diffrn_reflns_number            1330
_diffrn_reflns_point_group_measured_fraction_full 0.985
_diffrn_reflns_point_group_measured_fraction_max 0.985
_diffrn_reflns_theta_full        24.898
_diffrn_reflns_theta_max         24.898
_diffrn_reflns_theta_min         2.737
_diffrn_source                   'sealed tube'
_exptl_absorpt_coefficient_mu    10.571
_exptl_absorpt_correction_type   multi-scan
_exptl_absorpt_process_details   SADABS
_exptl_crystal_colour            yellow
_exptl_crystal_density_diffrn    4.877
_exptl_crystal_description       block
_exptl_crystal_F_000             696
_exptl_crystal_size_max          0.148
_exptl_crystal_size_mid          0.124
_exptl_crystal_size_min          0.087
_exptl_transmission_factor_max   0.7456
_exptl_transmission_factor_min   0.4940
_refine_diff_density_max         1.532
_refine_diff_density_min         -1.939
_refine_diff_density_rms         0.447
_refine_ls_abs_structure_details
;
 Refined as an inversion twin.
;
_refine_ls_abs_structure_Flack   0.07(19)
_refine_ls_extinction_coef       0.0019(2)
_refine_ls_extinction_expression Fc^*^=kFc[1+0.001xFc^2^\l^3^/sin(2\q)]^-1/4^
_refine_ls_extinction_method     'SHELXL-2016/6 (Sheldrick 2016)'
_refine_ls_goodness_of_fit_ref   1.179
_refine_ls_hydrogen_treatment    none
_refine_ls_matrix_type           full
_refine_ls_number_parameters     37
_refine_ls_number_reflns         491
_refine_ls_number_restraints     1
_refine_ls_restrained_S_all      1.177
_refine_ls_R_factor_all          0.0623
_refine_ls_R_factor_gt           0.0513
_refine_ls_shift/su_max          0.000
_refine_ls_shift/su_mean         0.000
_refine_ls_structure_factor_coef Fsqd
_refine_ls_weighting_details
'w=1/[\s^2^(Fo^2^)+(0.1102P)^2^] where P=(Fo^2^+2Fc^2^)/3'
_refine_ls_weighting_scheme      calc
_refine_ls_wR_factor_gt          0.1515
_refine_ls_wR_factor_ref         0.1697
_reflns_Friedel_coverage         0.837
_reflns_Friedel_fraction_full    0.996
_reflns_Friedel_fraction_max     0.996
_reflns_number_gt                427
_reflns_number_total             491
_reflns_threshold_expression     'I > 2\s(I)'
_cod_data_source_file            d1cc02656a2.cif
_cod_data_source_block           1
_cod_depositor_comments          'Adding full bibliography for 7128629.cif.'
_cod_database_code               7128629
_shelx_shelxl_version_number     2016/6
_shelx_space_group_comment
;
The symmetry employed for this shelxl refinement is uniquely defined
by the following loop, which should always be used as a source of
symmetry information in preference to the above space-group names.
They are only intended as comments.
;
_shelx_estimated_absorpt_t_min   0.4940
_shelx_estimated_absorpt_t_max   0.7456
_shelx_res_file
;
TITL 1 in Amm2
    1.res
    created by SHELXL-2016/6 at 10:00:01 on 01-Jul-2021
CELL 0.71073   7.4425  11.1677   6.3038  90.000  90.000  90.000
ZERR    2.00   0.0278   0.0408   0.0233   0.000   0.000   0.000
LATT -5
SYMM -X, -Y, Z
SYMM X, -Y, Z
SYMM -X, Y, Z
SFAC P  S  Cl Ag
UNIT 2 8 4 10
OMIT   0.00  50.00
L.S. 20
ACTA
BOND
FMAP 2
PLAN 5
twin
TEMP 23.000
WGHT    0.110200
EXTI    0.003107
FVAR       0.09199
MOLE 1
AG1   4    0.500000    0.500000    0.900911    10.25000    0.02867    0.09184 =
         0.03078    0.00000    0.00000    0.00000
AG2   4    1.220654    0.188827    0.874826    11.00000    0.04824    0.06099 =
         0.05617   -0.02666   -0.02304    0.02077
S1    2    1.000000    0.351068    0.759838    10.50000    0.01820    0.02905 =
         0.02087   -0.01181    0.00000    0.00000
P1    1    1.000000    0.500000    0.956774    10.25000    0.00722    0.02760 =
         0.01271    0.00000    0.00000    0.00000
S2    2    0.773495    0.500000    1.144814    10.50000    0.01455    0.02882 =
         0.02002    0.00000    0.00406    0.00000
CL1   3    0.500000    0.672339    0.612240    10.50000    0.02032    0.05578 =
         0.02995    0.00576    0.00000    0.00000
HKLF 4




REM  1 in Amm2
REM R1 =  0.0513 for     427 Fo > 4sig(Fo)  and  0.0623 for all     491 data
REM     37 parameters refined using      1 restraints

END

WGHT      0.1102      0.0000

REM Highest difference peak  1.532,  deepest hole -1.939,  1-sigma level  0.447
Q1    1   1.0000  0.3067  0.6515  10.50000  0.05    1.53
Q2    1   1.0000  0.5436  0.8604  10.50000  0.05    1.53
Q3    1   1.1250  0.1393  0.8980  11.00000  0.05    1.47
Q4    1   1.0000  0.5518  1.0882  10.50000  0.05    1.37
Q5    1   1.1977  0.1351  0.9810  11.00000  0.05    1.29
;
_shelx_res_checksum              70406
_shelx_hkl_file
;
   0   0   2  546.04   12.37
   0   0  -2  479.81   12.84
   0   0   2  542.03   12.60
   0   0   4  374.88    9.43
   0   0   4  372.41    9.87
   0   0   6   24.87    1.50
   0   0   6   21.59    1.80
   0   0   8   26.04    1.95
   0  -1   1    6.11    0.44
   0  -1  -1    7.26    0.90
   0   1   1    7.06    0.36
   0   1   1    6.22    0.32
   0   1   3    3.95    0.46
   0   1   3    4.03    0.54
   0  -1  -3    5.28    1.10
   0  -1   3    4.29    0.62
   0   1   5   40.07    1.80
   0   1   5   40.25    2.07
   0  -1   5   41.70    1.78
   0  -1   5   44.22    2.35
   0  -1   7    0.97    0.52
   0   1   7    1.75    0.63
   0  -1   7    1.20    0.96
   0  -2   2  159.44    4.72
   0   2   2  163.66    4.35
   0  -2  -2  183.49    5.84
   0  -2  -4   67.91    3.48
   0   2   4   68.81    2.46
   0   2   4   68.34    2.38
   0  -2   4   69.76    2.88
   0  -2   6   20.22    1.32
   0  -2   6   19.58    1.89
   0   2   6   20.36    2.15
   0   2   6   20.26    1.43
   0   2   8    5.81    1.13
   0  -2   8    8.32    1.23
   0  -2   8    4.81    1.62
   0   3   1  971.18   22.57
   0  -3   1  920.72   22.86
   0  -3  -1 1000.00   22.34
   0  -3  -3  510.64   13.99
   0  -3   3  462.15   12.41
   0   3   3  467.32   11.77
   0   3   5  132.56    4.35
   0   3   5  145.82    4.45
   0  -3  -5  145.72    6.12
   0  -3   5  143.41    5.23
   0  -3   7   13.26    2.00
   0  -3   7   14.71    1.31
   0   3   7   11.97    1.39
   0  -4   2   18.49    1.22
   0   4   2   18.02    0.99
   0  -4  -2   18.10    2.00
   0  -4  -4   42.87    3.17
   0   4   4   40.50    1.56
   0   4   4   40.26    1.79
   0  -4   4   39.88    2.27
   0  -4   6   11.49    1.00
   0  -4   6   10.46    1.75
   0   4   6    8.62    1.11
   0  -5  -3   92.11    5.02
   0   5   3   87.98    2.95
   0  -5   3   86.63    3.54
   0   5   5   79.07    3.04
   0  -5   5   73.68    3.69
   0  -5  -5   74.86    4.74
   0  -5   7    4.39    1.55
   0  -5   7    6.38    0.89
   0   5   7    5.28    1.11
   0  -6   2   92.23    3.36
   0   6   2   81.81    2.74
   0  -6  -2   63.92    4.39
   0   6   4  110.10    3.75
   0  -6  -4  111.37    6.04
   0  -6   4  107.52    4.49
   0   6   6    9.91    1.32
   0  -6   6   11.15    1.93
   0  -6  -6    7.61    2.12
   0  -7  -1   62.96    4.44
   0   7   3   55.10    2.42
   0  -7   3   59.29    3.01
   0  -7  -3   57.97    4.47
   0  -7   5    0.27    0.68
   0  -7  -5    0.30    1.45
   0   7   5    0.86    0.71
   0  -7   7    7.35    1.94
   0   7   7    7.70    1.47
   0  -8  -2   30.45    3.52
   0   8   4   50.24    2.60
   0  -8  -4   51.57    4.61
   0  -8   4   53.31    3.19
   0  -8   6   19.04    2.63
   0   8   6   17.37    1.88
   0  -8  -6   19.96    3.18
   0  -9  -1   47.08    2.61
   0  -9  -1   50.15    4.69
   0  -9   1   65.56    2.94
   0  -9  -3   23.44    3.58
   0  -9   3   22.28    2.03
   0  -9   5   27.56    2.63
   0   9   5   28.30    2.26
   0  -9  -5   28.53    3.85
   0 -10   0   72.94    3.11
   0 -10  -2   28.35    4.11
   0 -10   2   30.43    2.29
   0  10   4   50.48    2.92
   0 -10  -4   45.42    4.96
   0 -10   4   52.08    3.43
   0 -11  -1    7.95    3.03
   0 -11  -3    5.75    2.68
   0 -11   3    6.41    1.46
   0 -11  -5    7.28    2.68
   0 -11   5   12.59    2.30
   0 -12   0    0.61    2.17
   0 -12  -2    1.82    2.32
   0 -12   2    0.96    1.64
   0 -12   2    6.82    1.42
   0 -12   4    8.18    1.89
   0 -12  -4    5.40    2.50
   0 -13   1    1.68    2.38
   0 -13  -1    1.05    2.58
   0 -13   3   19.08    2.65
   0 -13  -3    4.81    3.00
   0 -14   0    1.68    2.74
   0 -14  -2    3.60    3.21
  -1   0   0    1.19    0.45
  -1   0   2   35.99    1.16
   1   0   2   35.97    1.38
  -1   0   2   38.06    1.51
   1   0  -2   37.35    1.95
   1   0   4   38.66    1.56
  -1   0   4   40.68    2.00
   1   0   4   38.35    1.81
  -1   0   4   37.50    1.50
   1   0  -4   32.89    2.11
   1   0   6    1.10    0.44
   1   0   6    0.07    0.61
  -1   0   6    0.94    0.47
  -1   0   6    1.48    0.76
  -1   0   8    0.11    0.61
   1   0   8   -0.55    0.53
   1   1   1   30.44    0.96
   1  -1  -1   32.74    1.93
  -1  -1   1   30.30    1.22
  -1   1   1   30.74    0.98
  -1  -1  -1   30.70    1.57
   1  -1   1   30.36    1.15
  -1   1   1   29.74    1.14
   1  -1   1   30.62    1.35
   1  -1  -3   82.33    3.54
  -1  -1   3   76.10    2.82
   1   1   3   79.65    2.47
   1   1   3   81.41    2.54
  -1  -1   3   77.61    2.31
   1   1  -3   81.03    2.95
  -1   1   3   78.25    2.39
   1  -1   3   79.84    2.80
  -1   1   3   81.54    2.73
   1   1   5   22.69    1.33
  -1  -1   5   24.67    1.28
  -1  -1   5   23.32    1.80
   1   1   5   21.47    1.47
   1  -1  -5   25.51    2.12
  -1   1   5   22.55    1.60
  -1   1   5   23.02    1.30
   1  -1   5   22.42    1.27
   1  -1   5   23.38    1.66
   1   1   7    6.29    1.00
  -1  -1   7    8.21    1.56
  -1  -1   7    6.77    0.97
  -1   1   7    4.52    1.31
  -1   1   7    6.50    1.04
   1  -1   7    6.63    0.98
   1  -1   7    6.61    1.42
   1  -2   0   43.56    2.31
   1   2   0   39.17    1.16
  -1  -2   0   41.13    1.32
   1  -2  -2  118.31    4.52
   1   2   2  111.97    3.07
   1   2   2  109.66    2.86
  -1  -2   2  107.63    3.47
  -1  -2  -2  114.61    4.20
   1  -2   2  110.32    3.46
  -1   2   2  112.16    3.19
  -1   2   2  111.55    3.07
   1  -2  -4   11.79    1.68
   1   2   4   11.36    0.84
   1   2   4   12.43    0.87
  -1  -2   4   12.15    0.74
  -1  -2   4   12.73    1.21
  -1   2   4   10.79    1.00
  -1   2   4   11.19    0.84
   1  -2   4   12.13    1.13
   1   2  -4    9.19    0.93
  -1  -2  -4    7.67    1.34
  -1  -2   6   20.77    2.03
  -1  -2   6   21.64    1.35
   1   2   6   20.93    1.47
  -1   2   6   15.78    1.56
  -1   2   6   20.35    1.47
   1  -2   6   20.91    1.88
   1  -2   6   18.05    1.28
  -1  -2   8    4.03    1.51
  -1  -2   8    4.85    1.04
   1   2   8    5.41    1.12
   1  -2   8    5.94    1.04
   1  -2   8    4.73    1.53
  -1   2   8    5.29    1.14
   1  -3  -1   10.48    1.62
   1   3   1   11.56    0.62
  -1  -3   1   10.62    0.77
  -1   3   1   12.07    0.79
   1  -3   1   11.57    0.80
   1  -3   1   11.03    1.40
  -1  -3  -1   11.39    1.31
  -1  -3   3   32.20    1.78
   1   3   3   29.31    1.31
   1  -3  -3   30.54    2.51
  -1   3   3   29.32    1.34
   1  -3   3   30.78    1.70
   1   3  -3   29.93    1.48
  -1   3   3   31.36    1.38
  -1  -3  -3   32.86    2.40
   1   3   5    7.63    0.89
  -1  -3   5    9.90    0.79
   1  -3  -5    8.86    1.87
  -1  -3   5    8.51    1.33
   1  -3   5    9.69    1.40
  -1   3   5    8.84    1.01
  -1  -3  -5    6.31    1.71
  -1   3   5    8.48    0.93
   1   3   7    2.59    0.80
  -1  -3   7    2.88    1.25
  -1  -3   7    2.75    0.69
   1  -3   7    3.31    0.72
  -1   3   7    2.14    0.78
   1  -3   7    1.98    1.18
   1  -4   0   33.91    1.37
  -1  -4   0   31.67    1.25
   1  -4   0   30.94    2.52
  -1  -4   2   42.26    1.96
   1  -4  -2   49.65    3.29
   1   4   2   41.99    1.59
  -1   4   2   43.14    1.70
   1  -4   2   43.30    2.00
  -1  -4  -2   44.01    2.99
  -1  -4   4    1.89    0.69
   1   4   4    1.69    0.46
   1  -4  -4    0.72    1.18
  -1  -4  -4    1.98    1.24
  -1   4   4    1.03    0.46
   1  -4   4    1.50    0.61
  -1   4   4    2.00    0.51
  -1  -4   6   14.88    1.82
   1   4   6   14.93    1.39
  -1  -4   6   15.31    1.11
   1  -4   6   13.66    1.87
  -1   4   6   11.64    1.28
   1  -5  -1   41.17    1.51
   1   5   1   38.41    1.52
   1  -5  -1   38.32    3.11
  -1  -5   1   37.86    1.71
   1  -5   1   41.11    1.84
  -1  -5  -1   34.42    2.72
   1  -5  -3   30.58    2.93
   1   5   3   32.95    1.55
  -1  -5   3   32.62    1.96
  -1   5   3   32.10    1.60
   1  -5   3   32.97    1.96
  -1  -5  -3   33.31    2.90
   1  -5  -5   15.21    2.37
  -1  -5   5   14.47    1.74
   1   5   5   13.92    1.27
  -1  -5  -5   13.76    2.27
   1  -5   5   13.84    1.60
  -1   5   5   11.75    1.24
  -1  -5   7    7.85    1.86
   1   5   7   12.59    1.53
  -1  -5   7   10.74    1.18
  -1   5   7   11.05    1.47
   1  -5   7   11.46    2.04
   1  -5   7    9.38    1.09
  -1  -6   0    0.59    0.28
  -1  -6   0    0.46    0.90
   1  -6   0    0.08    1.20
   1  -6   0    1.44    0.43
   1   6   2    8.82    0.87
   1  -6  -2   11.58    2.58
  -1  -6   2    7.97    0.96
  -1   6   2    8.36    0.95
   1  -6   2    9.59    1.04
  -1  -6  -2    6.50    1.90
  -1  -6   4   16.28    1.68
   1   6   4   17.94    1.37
   1  -6  -4   15.80    2.58
  -1   6   4   17.00    1.42
   1  -6   4   16.34    1.61
  -1  -6  -4   15.96    2.52
   1   6   6    0.31    0.64
  -1  -6   6    0.80    0.96
   1  -6  -6    0.73    1.44
  -1  -6  -6    0.74    1.40
   1  -6   6   -0.01    0.72
  -1   6   6    0.36    0.75
  -1  -7   1    0.95    0.43
   1  -7  -1    0.61    1.28
  -1  -7   1   -0.72    0.68
   1  -7  -1    1.05    0.38
  -1  -7  -1    0.45    0.98
  -1  -7  -1    0.73    0.26
   1  -7   1   -0.17    1.09
   1  -7   1    2.39    0.62
  -1  -7   3   15.79    1.55
   1  -7  -3   16.65    2.66
   1   7   3   16.21    1.32
   1  -7   3   16.29    1.57
  -1  -7  -3   18.30    2.71
  -1   7   3   15.10    1.37
   1  -7  -5    7.80    2.23
   1   7   5    7.75    1.16
  -1  -7   5    9.29    1.71
  -1  -7  -5   11.37    2.63
   1  -7   5    9.20    1.60
  -1   7   5    8.31    1.23
  -1  -7   7    0.91    1.27
   1   7   7   -0.28    0.87
   1  -7   7    0.43    1.09
  -1   7   7    0.33    0.95
  -1  -8   0    0.06    0.27
  -1  -8   0    0.14    1.01
   1  -8   0    0.31    0.33
   1  -8   0    0.53    1.36
   1  -8  -2   15.82    2.80
   1   8   2   20.91    1.54
  -1  -8   2   23.73    1.77
  -1  -8  -2   22.57    3.07
   1  -8   2   23.87    1.79
  -1  -8   4    6.35    1.43
   1  -8  -4    5.75    2.23
   1   8   4    7.12    1.11
   1  -8   4    7.86    1.43
  -1  -8  -4    6.74    2.41
  -1   8   4    7.47    1.18
  -1  -8   6    6.49    1.63
   1  -8  -6    5.67    1.96
   1   8   6    7.84    1.41
  -1  -8  -6    4.34    1.98
  -1   8   6    7.94    1.45
   1  -8   6    7.39    1.70
  -1  -9   1   -0.80    1.16
   1  -9  -1    0.10    0.32
  -1  -9   1   -0.04    0.37
   1  -9  -1    0.60    1.69
   1  -9   1    0.18    0.40
  -1  -9  -1   -0.61    1.32
   1  -9   1   -0.10    1.28
   1  -9  -3    6.59    2.57
  -1  -9   3    9.35    1.56
   1   9   3    8.93    1.20
  -1  -9  -3    4.38    2.10
   1  -9   3    9.18    1.49
  -1  -9   5   -0.44    0.78
   1   9   5    0.17    0.85
   1  -9  -5    1.87    1.95
  -1   9   5   -1.68    0.82
   1  -9   5   -0.33    0.66
  -1  -9  -5    1.88    1.91
   1 -10   0    1.03    0.55
   1 -10   0    0.16    1.79
  -1 -10   0   -0.52    1.52
  -1 -10   0    0.98    0.50
   1 -10  -2    4.71    2.54
  -1 -10   2    6.94    1.31
   1 -10   2    6.36    1.30
  -1 -10  -2    3.70    2.18
  -1 -10   4    2.76    1.19
   1 -10  -4   -0.17    1.68
   1  10   4    1.08    0.98
  -1 -10  -4    1.69    1.97
   1 -10   4    1.67    0.93
   1 -11  -1    2.57    2.46
  -1 -11   1    7.48    1.28
  -1 -11   1   -0.19    1.45
   1 -11   1    2.21    2.13
  -1 -11  -1   -0.74    1.78
  -1 -11   3    0.81    0.80
   1 -11  -3    1.71    2.24
  -1 -11  -3    0.44    1.68
   1 -11   3    0.43    0.72
   1  11   5    0.27    1.17
   1 -11  -5    2.09    2.03
  -1 -11   5   -0.30    1.02
   1 -11   5    0.39    0.89
  -1 -11  -5    3.32    2.32
  -1 -12   0   -0.60    1.76
   1 -12   0    1.86    2.50
   1 -12  -2    0.10    2.18
  -1 -12   2   -0.25    0.67
  -1 -12   2   -0.03    1.36
  -1 -12  -2   -0.33    2.24
   1 -12   2    0.54    0.73
  -1 -12   4    2.87    1.41
   1 -12  -4    2.96    2.34
  -1 -12  -4    1.62    2.37
   1 -12   4    3.49    1.38
  -1 -13   1    0.45    2.01
   1 -13  -1    1.55    2.50
   1 -13   1    1.30    2.12
  -1 -13  -1    0.64    2.78
   1 -13  -3    0.36    2.39
  -1 -13   3   -0.08    1.00
   1 -13   3   -0.19    0.76
  -1 -13  -3    0.40    2.28
   1 -14   0    3.01    2.84
  -1 -14   0    1.51    2.68
  -2   0   0   32.90    2.08
   2   0   2  207.28    5.44
  -2   0   2  199.82    5.65
   2   0  -2  207.03    6.67
  -2   0   2  199.62    5.00
  -2   0   4  131.29    3.76
   2   0   4  130.01    3.93
   2   0   4  133.30    4.27
   2   0  -4  127.83    5.11
  -2   0   4  144.49    4.68
   2   0   6   65.62    3.08
   2   0   6   67.16    2.77
  -2   0   6   67.52    3.49
  -2   0   6   70.97    2.68
  -2   0   8   -0.39    0.70
   2   0   8    1.02    0.62
   2  -1  -1  383.68   11.39
  -2  -1   1  413.49   10.29
  -2  -1  -1  430.61   11.24
   2  -1   1  414.47   11.00
  -2   1   1  418.07   10.28
   2   1   3  123.42    3.63
  -2  -1   3  123.24    3.26
  -2  -1   3  125.91    4.12
   2  -1  -3  119.67    4.98
   2   1   3  116.57    3.46
  -2   1   3  123.55    3.93
   2  -1   3  119.38    3.87
  -2   1   3  120.13    3.37
   2   1  -3  124.93    4.70
   2   1   5   16.05    1.24
  -2  -1   5   15.28    1.01
   2  -1  -5   17.66    2.18
  -2  -1   5   18.18    1.66
   2   1   5   14.38    1.09
   2  -1   5   15.02    1.38
   2  -1   5   15.43    1.09
  -2   1   5   17.17    1.57
  -2   1   5   16.43    1.11
  -2  -1   7   10.84    1.86
  -2  -1   7   16.07    1.39
   2   1   7   15.07    1.39
  -2   1   7   14.88    1.46
   2  -1   7   14.51    1.35
  -2   1   7   15.17    1.98
   2  -1   7   14.86    1.79
   2  -2   0  332.05    9.43
  -2  -2   0  327.10    8.05
   2   2   0  307.48    7.53
  -2  -2   2  633.94   15.91
   2   2   2  641.73   15.26
   2  -2  -2  642.06   17.33
  -2  -2   2  615.32   14.91
   2   2   2  677.07   15.21
  -2  -2  -2  628.64   16.84
   2  -2   2  636.63   15.80
  -2   2   2  655.90   15.27
   2  -2   2  610.23   16.09
  -2   2   2  661.01   15.71
  -2  -2   4   62.34    2.96
   2   2   4   64.46    2.36
   2   2   4   61.98    2.26
   2  -2  -4   62.24    3.75
  -2  -2   4   65.16    2.11
  -2   2   4   63.60    2.65
   2  -2   4   65.16    2.83
   2   2  -4   63.58    3.08
  -2   2   4   68.36    2.32
   2   2   6   44.56    2.17
  -2  -2   6   46.32    2.00
  -2  -2   6   47.06    2.97
   2  -2   6   45.96    2.74
  -2   2   6   42.64    2.50
   2  -2   6   41.65    2.04
  -2   2   6   43.87    2.15
   2   3   1  206.92    5.29
  -2  -3   1  215.90    5.88
   2  -3   1  210.22    5.84
   2  -3   1  219.31    6.82
   2  -3  -3  119.49    5.40
   2   3   3  119.65    3.55
   2   3   3  117.76    3.23
  -2  -3   3  118.99    4.24
   2  -3   3  117.13    4.10
   2   3  -3  119.06    4.34
  -2   3   3  122.67    3.85
  -2   3   3  119.16    3.54
   2  -3   3  121.47    4.00
  -2  -3  -3  123.60    5.15
  -2  -3   5    8.25    0.74
  -2  -3   5    7.65    1.38
   2   3   5    7.30    0.88
   2  -3  -5   10.97    1.99
   2  -3   5    7.99    1.25
  -2  -3  -5    5.49    1.61
  -2   3   5    8.43    0.97
  -2   3   5    8.92    1.19
  -2  -3   7   23.91    1.65
   2   3   7   26.60    1.90
  -2  -3   7   23.13    2.49
   2  -3   7   23.85    2.32
  -2   3   7   25.90    1.94
   2  -3   7   25.58    1.65
  -2  -4   0    3.67    0.53
   2  -4   0    4.44    1.60
  -2  -4   2  118.75    3.98
   2  -4  -2  105.17    5.29
   2   4   2  112.49    3.29
  -2  -4  -2  120.69    5.20
   2  -4   2  120.03    4.51
   2  -4   2  114.03    3.91
  -2   4   2  114.81    3.48
  -2  -4   4   21.37    1.79
   2  -4  -4   21.76    2.62
   2   4   4   20.65    1.26
   2  -4   4   20.95    1.67
  -2  -4  -4   21.60    2.43
  -2   4   4   21.81    1.43
  -2   4   4   21.66    1.36
  -2  -4   6    8.27    1.66
   2  -4  -6    7.91    2.00
   2   4   6    7.96    1.13
  -2  -4   6   12.94    1.06
  -2   4   6    8.95    1.16
   2  -4   6    9.55    1.56
  -2  -5   1  464.13   11.80
   2   5   1  447.05   11.16
   2  -5  -1  424.42   13.96
  -2  -5  -1  469.18   11.10
   2  -5   1  450.54   11.84
   2  -5   1  498.49   13.73
   2   5   3  208.11    5.63
   2  -5  -3  204.70    8.44
  -2  -5   3  209.76    6.50
   2  -5   3  172.62    6.34
  -2   5   3  207.65    5.77
   2  -5   3  206.68    6.44
  -2  -5  -3  210.03    8.13
   2   5   5   65.70    2.71
   2  -5  -5   62.67    4.52
  -2  -5   5   58.23    3.39
  -2  -5  -5   54.99    4.19
  -2   5   5   59.80    2.68
   2  -5   5   57.56    3.24
  -2  -5   7    5.54    1.74
   2   5   7    5.19    1.11
   2  -5   7    4.11    1.37
  -2   5   7    5.57    1.25
   2  -6   0    9.09    0.83
   2  -6   0    8.19    2.29
  -2  -6   0    8.02    0.78
   2   6   2   17.52    1.10
  -2  -6   2   14.90    1.29
   2  -6  -2   15.16    2.50
  -2  -6  -2   13.77    2.77
   2  -6   2   10.78    1.94
   2  -6   2   15.30    1.28
  -2  -6   4   33.74    2.38
   2  -6  -4   32.89    3.49
   2   6   4   32.11    1.81
  -2   6   4   31.72    1.97
   2  -6   4   36.29    2.35
  -2  -6  -4   32.85    3.40
   2   6   6   17.90    1.70
   2  -6  -6   18.28    2.78
  -2  -6   6   16.03    2.38
  -2   6   6   15.58    1.70
   2  -6   6   17.23    2.00
   2  -7  -1    6.00    0.70
   2  -7  -1    7.42    2.45
  -2  -7   1    7.70    0.91
   2  -7   1    8.38    2.40
   2  -7   1    7.03    1.04
   2   7   3   42.77    2.03
  -2  -7   3   44.43    2.60
   2  -7  -3   40.90    4.02
  -2  -7  -3   44.28    3.96
   2  -7   3   45.70    2.60
   2  -7  -5   19.06    3.02
  -2  -7   5   16.62    2.03
   2   7   5   16.64    1.63
  -2   7   5   16.30    1.66
  -2  -7  -5   16.97    2.85
   2  -7   5   14.96    1.75
   2  -8   0   41.84    4.22
   2  -8  -2  214.92    9.76
   2   8   2  199.75    5.87
  -2  -8   2  199.68    6.57
   2  -8  -2  195.40    5.80
   2  -8   2  211.52    6.78
   2   8   4   16.11    1.55
   2  -8  -4   18.42    3.25
  -2  -8   4   14.07    1.79
   2  -8   4   12.92    1.63
  -2  -8  -4   14.17    2.97
   2   8   6   23.03    2.13
  -2  -8   6   24.67    2.80
   2  -8  -6   25.81    3.54
   2  -8   6   26.46    2.56
  -2  -8  -6   20.76    3.36
  -2   8   6   23.94    2.35
   2  -9  -1   -0.09    0.31
  -2  -9   1    0.02    0.43
  -2  -9   1    0.04    1.26
   2  -9  -1    0.40    1.50
  -2  -9  -1    1.11    1.34
   2  -9   1    1.46    1.85
   2  -9   1    0.23    0.38
   2  -9  -3    2.18    1.94
  -2  -9   3    2.68    1.00
  -2  -9   3    0.20    1.16
   2   9   3    0.93    0.76
  -2  -9  -3    3.22    1.89
   2  -9   3    3.84    1.03
  -2  -9   5    2.44    1.18
   2   9   5    1.27    0.95
   2  -9  -5    2.75    1.77
  -2  -9  -5    2.92    1.93
   2  -9   5    2.20    1.06
   2 -10   0   52.07    5.25
   2 -10   0   59.97    2.89
   2 -10  -2   25.48    3.97
  -2 -10   2   24.31    2.01
  -2 -10  -2   21.91    3.67
   2 -10   2   23.35    2.02
   2 -10  -4   18.45    3.46
  -2 -10   4   19.11    2.21
   2  10   4   17.45    1.82
   2 -10   4   16.66    2.02
   2 -11  -1   14.28    3.69
   2 -11   1   12.93    3.42
  -2 -11   3   38.13    2.87
   2 -11  -3   27.67    4.30
   2 -11   3   39.17    2.85
  -2 -11  -3   28.81    4.46
   2  11   5   13.01    1.90
   2 -11  -5    4.92    2.30
  -2 -11  -5    5.77    2.84
   2 -12   0    1.92    2.27
  -2 -12   0   -0.45    2.08
   2 -12  -2    2.48    2.37
  -2 -12   2    7.16    1.46
  -2 -12   2   -0.15    1.49
  -2 -12  -2    1.15    2.37
   2 -12  -4    2.50    2.35
  -2 -12   4    2.45    1.38
  -2 -12  -4    4.75    2.88
   2 -12   4    3.76    1.35
  -2 -13   1    0.55    1.96
   2 -13  -1    2.76    2.80
  -2 -13  -1    0.87    2.71
   2 -13   1    3.44    0.99
   2 -13   1    3.55    2.25
   2 -13  -3    3.13    2.75
  -2 -13  -3    0.70    2.24
  -2 -14   0    0.72    2.40
   2 -14   0    4.57    2.97
  -3   0   0  257.59    8.41
  -3   0   2  111.71    3.82
   3   0  -2  116.24    4.96
  -3   0   2  120.55    3.08
   3   0  -4  222.05    8.10
   3   0   4  225.84    6.55
   3   0   4  216.52    6.10
  -3   0   4  223.68    6.93
  -3   0   4  229.67    5.89
  -3   0   6   15.80    1.80
   3   0   6   18.33    1.37
   3   0   6   18.99    1.67
  -3   0   6   19.99    1.36
  -3  -1   1    7.13    0.80
   3  -1  -1    9.02    1.58
   3  -1   1    7.86    1.31
  -3  -1  -1    7.80    1.26
   3   1   3    6.75    0.67
  -3  -1   3    7.06    1.07
  -3  -1   3    6.50    0.48
   3  -1  -3    7.97    2.04
   3   1   3    6.08    0.58
  -3   1   3    6.86    1.01
  -3   1   3    5.55    0.58
   3   1  -3   10.14    2.05
   3  -1   3    6.01    0.74
   3   1   5    1.27    0.45
  -3  -1   5    1.36    0.41
   3  -1  -5    2.40    1.77
  -3  -1   5    2.28    0.99
   3   1   5    1.47    0.56
  -3   1   5    1.85    0.55
  -3   1   5    1.93    0.80
   3  -1   5    0.91    0.55
   3  -1   5    2.03    0.50
   3   1   7    2.36    0.70
  -3  -1   7    1.01    1.08
  -3   1   7    2.72    1.12
  -3   1   7    0.31    0.67
   3  -1   7    1.51    0.58
   3  -2   0    9.62    1.65
  -3  -2   0    9.21    0.81
   3   2   0    9.31    0.39
  -3  -2   2    8.01    0.96
   3   2   2    7.30    0.56
   3  -2  -2   10.01    2.22
  -3   2   2    7.34    0.86
   3   2  -2    4.52    1.19
   3  -2   2    7.80    0.79
   3  -2   2    7.90    1.28
  -3  -2  -2    8.13    1.40
   3   2   4    3.08    0.55
   3   2   4    3.24    0.55
   3  -2  -4    3.86    1.92
  -3  -2   4    3.13    0.42
  -3  -2   4    4.71    1.04
  -3  -2  -4    0.70    1.10
   3  -2   4    5.50    0.94
  -3   2   4    5.03    0.98
   3  -2   4    3.89    1.16
  -3   2   4    3.71    0.63
   3   2  -4    3.75    1.67
  -3  -2   6   -0.22    0.87
   3   2   6    0.13    0.40
  -3   2   6    0.77    0.75
   3  -2   6    0.16    0.60
   3  -2   6    0.48    0.32
  -3   2   6   -0.95    0.49
   3   3   1  253.48    6.31
  -3  -3   1  260.61    7.13
   3  -3  -1  247.67    8.83
   3  -3   1  263.71    8.52
  -3  -3   3   82.63    2.27
   3  -3  -3   84.57    4.73
  -3  -3   3   83.56    3.51
   3   3   3   81.93    2.70
   3   3   3   83.74    2.59
   3  -3   3   81.53    3.71
   3  -3   3   80.72    3.27
  -3  -3  -3   85.74    4.35
  -3   3   3   84.56    2.81
   3   3  -3   84.21    3.97
  -3   3   3   82.87    3.18
  -3  -3   5   55.92    3.28
   3   3   5   59.62    2.50
   3  -3  -5   60.05    4.41
   3  -3   5   58.33    3.06
  -3   3   5   60.24    2.52
  -3   3   5   63.61    2.98
   3   3   7   17.45    1.62
  -3  -3   7   12.58    2.28
  -3   3   7   14.45    1.57
   3  -3   7   16.97    1.37
   3  -3   7   14.55    2.00
   3   4   0   16.82    0.75
  -3  -4   0   15.98    1.08
   3  -4   0   17.33    2.41
  -3  -4   2   18.21    1.45
   3  -4  -2   19.84    2.60
   3   4   2   17.74    0.96
   3  -4   2   16.64    2.04
  -3  -4  -2   19.14    2.10
   3  -4   2   17.95    1.29
   3   4   4    0.49    0.38
   3  -4  -4    0.95    1.68
  -3  -4   4    0.67    0.29
  -3  -4   4    1.32    0.77
  -3   4   4    0.46    0.61
   3   4  -4    1.68    1.35
   3  -4   4    0.92    0.49
  -3  -4  -4    1.59    1.34
   3  -4  -6    4.95    1.91
  -3  -4   6    3.89    1.33
   3   4   6    3.50    0.78
  -3   4   6    2.78    0.92
   3  -4   6    2.45    0.98
   3  -5  -1   22.25    2.73
  -3  -5   1   25.43    1.59
   3   5   1   22.59    1.06
  -3  -5  -1   23.82    1.18
   3  -5   1   22.85    2.73
   3  -5   1   23.40    1.48
  -3  -5   3    4.99    1.05
   3   5   3    4.46    0.67
   3  -5  -3    5.68    2.37
   3  -5   3    5.90    1.62
  -3  -5  -3    6.57    2.01
   3  -5   3    3.91    0.84
   3   5   5    3.28    0.75
  -3  -5   5    2.35    1.05
   3  -5  -5    5.22    2.28
  -3   5   5    3.56    0.94
   3  -5   5    3.07    0.94
  -3  -5  -5    4.20    1.90
   3   5   7    2.05    0.91
  -3  -5   7    1.02    1.31
  -3   5   7    0.29    0.92
   3  -5   7    1.09    0.97
   3  -6   0   83.35    5.02
  -3  -6   0   90.05    3.09
   3  -6   0   84.23    3.19
  -3  -6   2   22.71    1.71
   3   6   2   24.95    1.31
   3  -6  -2   19.36    2.99
   3  -6   2   23.64    2.67
   3  -6   2   23.48    1.66
  -3  -6   4   87.76    4.21
   3   6   4   85.48    3.21
   3  -6  -4   92.78    6.04
  -3   6   4   84.48    3.43
  -3  -6  -4   89.90    5.52
   3  -6   4   83.48    3.95
   3  -6  -6    8.75    2.46
   3   6   6    6.00    1.11
  -3  -6   6    8.67    1.89
  -3   6   6    5.36    1.27
   3  -6   6    5.54    1.35
   3  -7  -1    1.36    1.61
  -3  -7   1    2.66    0.70
  -3  -7   1    0.33    1.14
   3   7   1    0.80    0.50
   3  -7   1    1.63    0.54
  -3  -7  -1    1.84    0.48
  -3  -7  -1    0.19    1.11
   3  -7   1    2.52    1.91
  -3  -7   3   17.48    1.79
   3   7   3   19.42    1.41
   3  -7  -3   17.95    3.68
  -3  -7  -3   17.30    2.75
   3  -7   3   19.43    1.71
   3  -7   3   21.05    2.65
  -3  -7   5   12.72    2.08
   3  -7  -5   12.50    3.19
   3   7   5   10.06    1.34
  -3  -7  -5   15.95    2.95
   3  -7   5   12.65    1.86
  -3   7   5   11.48    1.54
   3  -8   0   26.98    1.68
   3  -8   0   23.61    3.50
   3  -8  -2   12.51    3.33
   3   8   2   10.82    1.12
  -3  -8   2    9.69    1.41
   3  -8   2   10.44    1.23
   3  -8   2    6.06    2.10
   3  -8  -4    3.03    2.08
  -3  -8   4    2.65    1.12
   3   8   4    2.25    0.81
   3  -8   4    1.28    0.75
  -3  -8  -4    2.58    2.03
  -3  -8   6    1.65    1.26
   3  -8  -6    4.17    2.06
   3   8   6   -0.32    0.89
   3  -8   6    0.27    0.80
  -3   8   6    0.13    1.12
  -3  -8  -6    2.46    2.05
  -3  -9   1   15.74    1.44
   3  -9  -1   19.63    4.20
   3  -9  -1   15.99    1.27
   3  -9   1   17.55    1.55
   3  -9   1   18.03    3.25
   3   9   3   10.81    1.31
   3  -9  -3   14.28    3.72
  -3  -9   3   10.89    1.71
   3  -9   3    7.37    1.34
  -3  -9  -3   13.62    3.26
   3   9   5    9.11    1.47
   3  -9  -5    7.91    2.70
  -3  -9   5   10.20    2.05
  -3  -9  -5    6.90    2.65
   3  -9   5    8.09    1.64
   3 -10   0   15.38    1.44
   3 -10   0   12.03    3.41
  -3 -10   2   10.36    1.56
   3 -10  -2    8.67    3.08
  -3 -10  -2    6.39    2.72
   3 -10   2    9.82    1.48
   3 -10   2    6.74    2.34
   3  10   4    0.84    0.96
   3 -10  -4    5.23    2.59
  -3 -10   4    2.25    1.21
  -3 -10  -4    3.39    2.34
   3 -10   4    4.21    1.24
  -3 -11   1   -0.07    1.76
   3 -11  -1    3.22    2.43
   3 -11   1    6.03    1.19
  -3 -11  -1    0.91    2.22
   3 -11   1    4.43    2.29
   3 -11  -3    6.71    2.88
  -3 -11   3    6.84    1.60
  -3 -11  -3    2.86    2.39
   3 -11   3    6.22    1.45
  -3 -12   0   -0.19    1.92
   3 -12   0    1.41    0.73
   3 -12   0    3.81    2.56
  -3 -12   2    0.03    0.74
  -3 -12   2   -0.33    2.07
   3 -12  -2    3.80    2.49
   3 -12   2    0.44    0.60
  -3 -12  -2   -1.02    2.14
   3 -13  -1    4.41    2.88
  -3 -13   1   -1.21    2.20
   3 -13   1    6.08    2.34
  -3 -13  -1    1.12    2.53
   3 -13   1    0.98    0.72
   4   0   0  640.85   17.94
  -4   0   2  131.89    4.56
   4   0  -2  134.38    5.91
   4   0   4  117.34    4.13
   4   0  -4  112.85    5.99
  -4   0   4  117.81    4.60
  -4   0   4  120.05    3.46
  -4   0   6    3.75    1.26
   4   0   6    3.28    0.69
   4  -1  -1   10.38    1.92
  -4  -1   1    9.54    1.02
   4  -1   1    9.26    1.67
  -4  -1  -1    9.14    1.68
  -4  -1   3    2.47    0.41
   4   1   3    2.74    0.59
   4   1   3    2.74    0.45
   4  -1  -3    3.61    1.98
  -4   1  -3   -0.48    1.27
  -4  -1   3    2.07    0.74
   4   1  -3    3.86    1.65
  -4   1   3    3.66    0.89
   4  -1   3    4.19    0.76
   4   1   5   25.07    1.67
   4   1   5   26.26    1.54
  -4  -1   5   26.03    2.23
   4  -1  -5   27.44    3.49
  -4   1   5   27.93    2.14
  -4   1   5   25.77    1.53
   4  -1   5   27.04    1.87
  -4  -1   7    4.13    1.45
   4   1   7    2.03    0.69
   4  -1   7    1.74    0.63
  -4   1   7    3.75    1.30
   4   2   0   14.10    0.54
   4  -2   0   15.26    2.15
   4  -2  -2   34.94    3.46
   4   2   2   35.99    1.37
  -4  -2   2   33.74    2.01
   4   2  -2   33.19    2.74
  -4  -2  -2   35.94    2.81
   4  -2   2   37.22    2.79
   4   2   4   38.76    1.80
   4   2   4   39.29    1.86
   4  -2  -4   35.45    3.85
  -4  -2   4   39.82    2.54
   4  -2   4   37.36    2.79
   4  -2   4   38.97    2.23
  -4   2   4   40.30    2.40
  -4   2   4   39.70    1.86
   4   2  -4   39.65    3.49
  -4  -2   6    9.09    1.76
   4   2   6    6.90    1.00
  -4   2   6    8.37    1.18
   4  -2   6    7.21    0.95
   4  -2   6    7.80    1.33
  -4   2   6    8.59    1.54
   4   3   1  241.91    6.03
  -4  -3   1  244.57    7.08
   4  -3  -1  237.50    9.17
   4  -3   1  243.01    8.74
  -4  -3   3  136.60    5.06
   4   3   3  135.68    4.01
   4   3   3  133.14    3.99
   4  -3  -3  140.43    6.96
   4  -3   3  138.78    4.77
   4   3  -3  137.22    5.93
   4  -3   3  131.36    5.56
  -4  -3  -3  125.99    6.15
   4  -3  -5   47.16    4.33
  -4  -3   5   42.59    3.02
   4   3   5   48.19    2.23
   4  -3   5   46.31    2.73
  -4   3   5   50.11    2.85
  -4   3   5   50.35    2.37
  -4  -3   7    9.11    1.99
   4   3   7    5.79    1.07
   4  -3   7    7.81    1.58
   4  -3   7    8.30    1.10
   4  -4   0   39.72    3.54
  -4  -4   0   35.60    1.86
   4   4   0   37.65    1.20
   4  -4  -2   20.15    3.10
  -4  -4   2   24.22    1.77
   4   4   2   24.43    1.15
   4  -4   2   24.33    2.69
  -4  -4  -2   24.30    2.66
   4  -4   2   23.19    1.62
   4  -4  -4   32.25    3.96
  -4  -4   4   33.87    2.53
   4   4   4   33.16    1.70
   4  -4   4   32.62    2.17
   4   4  -4   31.68    2.93
  -4  -4  -4   28.32    3.19
  -4  -4   6    1.69    1.15
   4   4   6    2.09    0.73
   4  -4  -6    4.09    2.15
  -4   4   6    1.93    1.01
  -4   4   6    1.60    0.91
   4  -4   6    1.87    0.91
   4  -5  -1   41.59    3.96
   4   5   1   40.82    1.51
  -4  -5   1   41.19    2.20
   4  -5   1   39.44    3.49
   4  -5   1   40.25    2.15
   4   5   3   25.11    1.41
   4  -5  -3   25.63    3.58
  -4  -5   3   27.26    2.18
  -4  -5  -3   25.82    3.02
   4  -5   3   25.41    1.88
   4  -5   3   25.15    2.77
   4   5   5   32.62    1.96
   4  -5  -5   40.47    4.41
  -4  -5   5   28.53    2.65
  -4   5   5   33.53    2.22
   4  -5   5   33.02    2.46
  -4  -5  -5   29.51    3.59
   4  -6   0  191.31    8.30
  -4  -6   0  198.17    5.93
   4  -6  -2   14.82    3.41
  -4  -6   2   12.78    1.47
   4   6   2   12.57    1.00
  -4  -6  -2   14.45    3.07
   4  -6   2   13.00    2.67
   4  -6   2   11.29    1.23
   4   6   4   29.60    1.73
  -4  -6   4   27.65    2.44
   4  -6  -4   30.12    4.00
  -4  -6  -4   29.31    3.42
   4  -6   4   28.12    2.18
  -4  -6   6    2.90    1.40
   4  -6  -6    5.86    2.37
   4   6   6    1.75    0.84
   4  -6   6    3.05    1.14
  -4   6   6    1.46    1.13
   4  -7  -1   79.65    5.56
   4   7   1   80.27    2.68
  -4  -7   1   78.22    3.35
   4  -7   1   80.00    5.32
   4  -7   1   75.18    3.35
   4   7   3   26.71    1.64
  -4  -7   3   29.64    2.37
   4  -7  -3   30.43    4.01
   4  -7   3   35.51    4.25
   4  -7   3   25.06    2.03
  -4  -7  -3   27.89    3.46
   4  -7  -5    4.36    2.46
  -4  -7   5    1.14    1.00
   4   7   5    1.92    0.83
   4  -7   5    1.40    0.86
  -4  -7  -5    1.38    1.74
   4  -8   0    9.33    3.07
   4  -8   0    5.96    1.03
  -4  -8   0    5.93    0.97
   4   8   2   17.92    1.40
   4  -8  -2   17.92    3.96
  -4  -8   2   17.19    1.76
   4  -8   2   17.17    2.99
   4  -8   2   16.31    1.60
  -4  -8   4   19.37    2.24
   4  -8  -4   26.11    4.08
   4   8   4   21.56    1.77
   4  -8   4   18.96    1.93
  -4  -8  -4   22.86    3.50
   4  -9  -1   19.09    4.13
  -4  -9   1   16.67    1.61
   4  -9  -1   16.63    1.42
   4  -9   1   18.17    1.63
   4  -9   1   19.30    3.50
  -4  -9   3    3.54    1.18
   4  -9  -3    3.93    2.57
   4   9   3    1.96    0.87
   4  -9   3    3.76    1.02
  -4  -9  -3    3.85    2.21
   4  -9  -5    8.52    2.88
   4   9   5    9.05    1.47
  -4  -9   5    9.53    2.09
  -4  -9  -5    4.19    2.52
   4  -9   5   10.94    1.91
   4 -10   0   31.77    2.12
   4 -10   0   31.19    4.40
  -4 -10   2   15.66    1.84
   4 -10  -2   22.48    4.07
   4 -10   2   16.55    1.72
   4 -10   2   23.50    3.48
   4  10   4   25.39    2.23
   4 -10  -4   29.16    4.47
  -4 -10   4   25.42    2.66
   4 -10   4   26.53    2.49
  -4 -10  -4   25.38    4.27
  -4 -11   1    0.43    2.41
   4 -11  -1    5.51    1.02
   4 -11  -1   12.06    3.67
   4 -11   1    5.01    1.06
  -4 -11  -1    0.49    2.30
   4 -11   1    8.53    2.86
  -4 -11   3    1.41    1.01
   4 -11  -3    4.98    2.93
  -4 -11  -3    0.79    2.34
   4 -11   3    0.59    0.66
   4 -12   0    2.18    0.78
   4 -12   0    6.51    2.75
  -4 -12   0   -0.63    2.28
  -4 -12   2   -1.49    2.13
   4 -12  -2    8.76    3.25
  -4 -12  -2    0.19    2.40
   4 -12   2    4.16    1.08
  -4 -13   1   -1.33    2.44
  -4 -13  -1   -0.75    2.64
   5   0   0  100.04    5.29
  -5   0   2   68.04    3.06
  -5   0  -2   50.22    4.12
   5   0  -2   68.05    4.46
   5   0  -4    6.57    2.71
   5   0   4    4.73    0.89
  -5   0   4    5.19    1.23
  -5   0   6    3.01    1.26
   5   0   6    1.68    0.58
   5  -1  -1   42.28    3.60
   5  -1   1   40.54    3.33
   5   1  -1   42.87    3.43
  -5  -1  -1   39.14    3.44
   5  -1  -3   60.21    4.91
   5   1   3   63.16    2.65
  -5  -1   3   61.80    3.17
   5   1   3   60.61    2.23
   5  -1   3   61.95    4.04
   5  -1   3   57.37    2.72
   5   1  -3   61.14    4.39
  -5   1   3   63.32    3.11
   5  -1  -5   26.13    4.03
   5   1   5   26.11    1.59
  -5  -1   5   23.11    2.23
   5  -1   5   25.83    1.89
  -5   1   5   28.74    2.38
   5   1  -5   33.90    6.18
   5  -2   0   54.34    4.00
   5   2   0   53.74    1.52
  -5  -2   2  139.04    5.08
   5   2   2  139.20    3.90
   5  -2  -2  139.53    7.24
   5  -2   2  138.79    6.36
  -5  -2  -2  140.60    6.58
   5   2  -2  138.70    6.53
   5   2   4   16.57    1.26
   5  -2  -4   21.99    4.11
   5   2   4   16.63    1.19
  -5  -2   4   18.20    1.91
  -5   2   4   15.03    1.65
   5  -2   4   15.42    1.48
   5  -2   4   15.54    2.32
   5   2  -4   15.96    2.93
   5   2   6   30.79    1.97
  -5  -2   6   31.16    2.82
   5  -2   6   29.39    2.33
  -5   2   6   33.66    2.64
   5  -2   6   34.03    1.93
   5   3   1   26.30    1.03
   5  -3  -1   25.71    3.57
  -5  -3   1   24.17    1.76
  -5  -3  -1   24.86    2.75
   5  -3   1   24.83    3.00
   5   3   3   56.00    2.14
   5  -3  -3   44.03    4.72
  -5  -3   3   53.89    3.05
   5  -3   3   57.64    2.83
  -5  -3  -3   55.97    4.16
   5   3  -3   54.91    4.06
   5  -3   3   57.84    3.96
  -5  -3   5    4.26    1.25
   5   3   5    4.73    0.81
   5  -3  -5    4.92    2.83
  -5   3   5    4.89    1.21
   5  -3   5    3.62    0.98
   5  -4   0    5.09    2.47
  -5  -4   0    5.56    0.93
  -5  -4   2   27.60    2.05
   5   4   2   27.28    1.26
   5  -4  -2   29.16    3.95
   5  -4   2   27.46    3.31
   5  -4   2   25.69    1.83
  -5  -4  -2   26.15    3.02
  -5  -4   4    0.43    0.75
   5  -4  -4    2.82    2.54
   5   4   4    0.59    0.43
   5   4  -4    1.21    1.68
   5  -4   4    1.35    0.71
  -5  -4  -4    1.21    1.70
   5  -4  -6   21.34    3.78
   5   4   6   15.66    1.55
  -5  -4   6   12.70    2.17
   5  -4   6   14.39    2.02
   5  -5  -1   82.38    5.80
   5   5   1   84.35    2.55
  -5  -5   1   85.74    3.65
   5  -5   1   79.25    5.37
   5  -5  -3   54.98    5.06
   5   5   3   56.60    2.25
  -5  -5   3   58.70    3.27
  -5  -5  -3   59.05    4.82
   5  -5   3   53.79    2.96
   5  -5   3   54.16    4.22
  -5  -5   5   30.99    2.79
   5  -5  -5   42.00    4.99
   5   5   5   34.18    2.05
   5  -5   5   30.32    2.48
  -5  -6   0   35.57    2.12
   5  -6   0   37.42    4.41
   5   6   2   19.19    1.21
  -5  -6   2   19.43    1.83
  -5  -6  -2   18.38    3.85
   5  -6   2   19.65    3.22
   5  -6   2   19.32    1.70
  -5  -6   4    3.16    1.19
   5  -6  -4    5.71    3.06
   5   6   4    3.62    0.78
  -5  -6  -4    2.99    2.25
   5  -6   4    2.42    0.83
   5   6   6   -0.89    0.62
   5  -6  -6    5.88    2.79
  -5  -6   6    0.41    1.08
   5  -6   6    0.31    0.82
  -5  -7   1    4.89    1.05
   5  -7  -1    4.59    2.90
   5  -7   1    3.67    0.94
  -5  -7  -1    0.04    1.61
   5  -7   1    5.11    2.62
   5  -7  -3   14.22    3.92
   5   7   3    8.52    1.03
  -5  -7   3   10.87    1.67
   5  -7   3    9.83    1.51
  -5  -7  -3   11.57    3.32
  -5  -7   5    1.87    1.13
   5  -7  -5    6.15    2.94
   5   7   5    2.00    0.84
  -5  -7  -5    0.76    2.20
   5  -7   5    2.77    1.12
   5  -8   0   10.31    3.42
   5  -8   0    7.60    1.20
  -5  -8   0    9.35    1.30
  -5  -8   2   56.82    3.16
   5  -8  -2   54.38    5.44
   5  -8   2   54.92    3.12
   5  -8   2   55.47    4.71
   5  -8  -4   16.28    4.15
   5   8   4   14.05    1.50
  -5  -8   4   13.50    2.10
   5  -8   4   14.33    1.80
  -5  -8  -4   14.05    3.75
  -5  -9   1    3.05    0.91
   5  -9  -1    5.06    2.81
  -5  -9   1   -1.16    1.74
   5  -9  -1    1.94    0.68
  -5  -9  -1   -0.59    1.79
   5  -9   1    2.44    0.77
   5  -9   1    2.82    2.48
  -5  -9   3    7.36    1.52
   5  -9  -3    9.85    3.64
  -5  -9  -3    5.62    2.73
   5  -9   3    8.29    1.49
   5 -10   0    1.95    2.49
  -5 -10   0   -0.20    2.23
   5 -10   0    2.10    0.69
  -5 -10   2   -0.33    1.84
   5 -10  -2    1.60    0.62
  -5 -10   2    1.42    0.87
   5 -10  -2    6.10    3.10
   5 -10   2    2.56    0.89
   5 -10   2    4.84    2.29
  -5 -10  -2    0.85    2.31
  -5 -10   4    6.51    1.67
   5 -10  -4    8.79    3.26
  -5 -10  -4    2.58    2.76
   5 -10   4    9.33    1.75
   5 -11  -1   10.10    3.06
   5 -11  -1   16.40    1.56
   5 -11   1   15.46    1.70
   5 -11  -3    7.99    3.18
  -5 -11   3    5.05    1.43
  -5 -11  -3    2.05    2.50
   5 -11   3    4.86    1.35
   5 -12   0    0.82    0.63
   5 -12   0    6.30    2.86
  -5 -12   0   -0.64    2.54
   6   0   0    8.01    2.41
   6   0  -2    9.97    2.88
  -6   0  -2    5.32    2.52
   6   0   4   18.52    1.24
   6   0  -4   19.07    3.87
   6   0   4   17.20    1.49
  -6   0   4   16.61    1.93
   6   0   6   36.04    2.06
  -6   0   6   27.79    2.73
   6  -1  -1   46.41    4.26
  -6  -1  -1   51.53    4.65
   6   1  -1   48.75    4.18
   6  -1   1   50.53    4.18
   6  -1  -3   10.82    3.31
   6   1   3   14.14    0.97
  -6  -1   3   11.80    1.69
   6   1  -3   18.74    3.64
  -6  -1  -3    8.26    2.62
   6  -1   3   16.00    3.10
   6  -1   3   14.68    1.42
   6  -1  -5   -0.58    2.61
   6   1   5    0.63    0.45
  -6  -1   5    1.03    0.99
   6  -1   5    0.49    0.56
  -6   1   5    1.65    0.99
   6  -2  -2   86.19    6.19
   6   2   2   86.39    2.71
  -6  -2   2   86.98    3.97
   6   2  -2   85.86    5.57
   6  -2   2   87.05    5.44
  -6  -2  -2   86.61    5.60
  -6  -2   4    4.29    1.22
   6   2   4    4.31    0.72
   6  -2  -4    1.23    2.75
  -6  -2  -4    2.46    2.04
   6   2  -4    2.80    2.40
   6  -2   4    5.84    2.14
   6  -2   4    5.41    1.10
   6   2   6    5.37    0.99
  -6  -2   6    3.86    1.43
   6  -2   6    6.49    1.31
   6  -2   6    6.90    1.02
  -6   2   6    6.34    1.58
  -6  -3   1   14.05    1.51
   6  -3  -1    9.83    3.19
   6  -3   1   18.73    3.62
  -6  -3  -1   16.70    3.58
  -6  -3   3   25.63    2.28
   6  -3  -3   23.79    4.21
   6   3   3   25.42    1.37
   6  -3   3   28.04    2.05
   6   3  -3   27.20    3.42
   6  -3   3   23.16    3.23
  -6  -3  -3   24.34    3.39
  -6  -3   5    9.36    1.72
   6   3   5   10.59    1.17
   6  -3   5    9.27    1.50
  -6  -4   0   -0.12    1.52
   6  -4   0    5.81    2.89
   6  -4  -2   22.34    4.46
  -6  -4   2   17.39    1.84
  -6  -4  -2   20.87    3.11
   6  -4   2   18.38    1.68
   6  -4   2   18.27    3.64
  -6  -4   4    2.35    1.02
   6  -4  -4    5.06    3.29
   6   4   4    2.57    0.62
  -6  -4  -4    3.76    2.19
   6  -4   4    6.13    1.25
   6   4  -4    4.36    2.33
  -6  -5   1   52.14    3.00
   6  -5  -1   58.51    5.42
   6  -5   1   57.00    5.13
  -6  -5   3   24.90    2.29
   6  -5  -3   32.71    5.66
   6   5   3   26.67    1.50
   6  -5   3   26.33    3.73
   6  -5   3   27.73    2.14
  -6  -5  -3   28.44    3.71
   6   5  -3   29.02    3.61
  -6  -5   5    6.63    1.64
   6  -5  -5   10.96    3.70
   6   5   5    7.01    1.09
   6  -5   5    7.96    1.52
  -6  -5  -5    4.35    2.39
   6  -6   0   16.62    4.13
   6  -6  -2    5.14    3.42
  -6  -6   2    3.09    1.01
   6  -6   2    2.38    2.42
   6  -6   2    4.06    1.01
  -6  -6  -2    4.04    2.35
   6  -6  -4    2.49    3.12
  -6  -6   4    3.17    1.13
   6   6   4    1.62    0.66
  -6  -6  -4    1.26    2.36
   6  -6   4    2.00    0.95
   6  -7  -1    3.92    3.03
  -6  -7   1    2.90    0.95
  -6  -7   1   -0.80    1.98
  -6  -7  -1    0.45    1.79
   6  -7   1    4.74    3.04
   6  -7   1    2.59    0.81
  -6  -7   3    7.76    1.52
   6  -7  -3   12.78    4.04
   6  -7   3    8.33    1.51
  -6  -7  -3   14.17    3.89
   6  -7  -5    6.16    3.45
   6   7   5    3.85    1.01
   6  -7   5    3.21    1.19
  -6  -7  -5    3.21    2.64
   6  -8   0   14.08    3.91
   6  -8   0    9.75    1.48
  -6  -8   2   28.77    2.35
   6  -8  -2   25.25    4.59
   6  -8   2   31.31    2.37
  -6  -8  -2   21.49    3.99
   6  -8   2   26.65    4.00
  -6  -8   4   -0.52    0.74
   6  -8  -4    3.51    3.18
   6  -8   4    0.39    0.65
  -6  -8  -4   -1.81    2.30
   6  -9  -1    3.84    0.93
   6  -9  -1    4.35    3.17
  -6  -9   1    4.49    1.23
  -6  -9  -1   -0.73    2.02
   6  -9   1    4.93    1.09
   6  -9   1    8.07    3.18
  -6  -9   3    2.46    1.07
   6  -9  -3    5.22    3.54
  -6  -9   3   -1.20    2.29
   6  -9   3    2.75    1.04
  -6  -9  -3    1.85    2.71
   6 -10   0    9.85    3.37
   6 -10   0   11.60    1.43
  -6 -10   2    0.12    2.50
   6 -10  -2   11.69    3.94
  -6 -10   2    4.56    1.27
   6 -10  -2    6.07    1.17
   6 -10   2    5.39    1.22
  -6 -10  -2    1.26    2.64
   6 -11  -1    0.95    0.59
   6 -11  -1    5.86    3.16
  -6 -11   1   -0.59    2.47
  -6 -11  -1   -1.50    2.60
   6 -11   1    6.90    2.86
   6 -11   1    1.93    0.80
   7   0   0  125.45    7.18
   7   0   2   28.36    3.74
   7   0  -2   26.63    3.92
   7   0  -4  105.65    7.53
   7   0   4  102.04    4.26
   7   0   4  107.85    6.51
  -7   0   4  100.96    5.01
   7   0   4  107.25    3.66
   7  -1  -1    8.08    3.01
   7   1   1    7.18    2.60
   7  -1   1    9.49    3.03
   7   1  -1    8.67    2.87
  -7  -1   3    0.99    0.80
   7  -1  -3    1.36    2.64
   7   1   3    1.16    0.39
   7  -1   3   -0.63    1.78
   7   1  -3    1.92    2.32
  -7  -1  -3    0.34    2.27
   7  -1   3    1.24    0.67
   7  -1  -5   -0.58    3.09
   7   1   5    1.02    0.52
  -7  -1   5    0.75    1.06
   7  -1   5   -0.15    0.63
   7  -1   5    0.67    0.41
   7   2   0    3.19    1.85
   7  -2   0    7.00    2.92
  -7  -2   0    0.35    2.16
   7  -2  -2   11.01    3.60
   7  -2   2   18.83    3.84
  -7  -2  -2   16.91    3.87
   7   2  -2   16.21    3.60
   7  -2  -4    3.89    3.33
  -7  -2   4    2.78    1.16
   7   2   4    2.94    0.65
  -7  -2  -4    1.44    2.18
   7  -2   4    2.63    2.25
   7   2  -4    0.10    2.57
   7  -2   4    3.61    0.98
   7  -3  -1   76.40    6.31
  -7  -3  -1   80.26    6.25
   7  -3   1   81.74    6.21
   7   3  -1   72.60    5.70
  -7  -3   3   38.83    3.03
   7  -3  -3   47.55    5.58
   7   3  -3   48.83    4.79
  -7  -3  -3   50.80    4.89
   7  -3   3   44.34    2.77
   7  -3   3   46.14    4.68
  -7  -3   5   15.97    2.35
   7   3   5   20.55    1.56
   7  -3  -5   26.02    5.35
   7  -3   5   19.77    2.05
  -7  -4   0   -1.16    2.00
   7  -4   0    8.57    3.49
   7  -4  -2    7.13    3.47
  -7  -4   2    6.41    1.44
   7   4  -2    7.40    2.78
   7  -4   2    5.09    2.91
  -7  -4  -2    9.19    3.11
   7  -4  -4   -0.69    3.23
  -7  -4   4    2.19    1.09
   7   4  -4    0.36    2.20
   7  -4   4    2.11    0.88
  -7  -4  -4    0.92    2.24
   7  -5  -1   22.27    4.76
  -7  -5  -1   12.37    3.57
   7  -5   1   21.13    4.34
  -7  -5   3    6.50    1.49
   7  -5  -3    6.52    4.05
   7  -5   3    4.39    2.91
  -7  -5  -3    9.42    3.26
   7   5  -3    7.81    2.99
   7  -5   3    5.87    1.27
  -7  -6   2    2.26    0.95
  -7  -6   2   -0.89    2.48
   7  -6  -2    5.63    3.94
   7  -6   2    3.02    0.95
  -7  -6  -2    3.02    2.55
   7  -6   2    4.04    3.08
  -7  -6   4   35.85    3.14
   7  -6  -4   41.27    5.78
   7  -6   4   40.55    3.00
  -7  -6  -4   41.24    4.84
  -7  -7   1   -1.36    2.36
  -7  -7   1    4.28    1.21
   7  -7  -1    3.35    3.50
   7  -7   1    4.22    3.38
   7  -7   1    3.32    0.98
   7  -7  -3   14.54    4.41
  -7  -7   3   10.91    1.93
   7  -7   3   14.38    1.82
   7   7  -3   12.37    3.17
  -7  -7  -3   14.92    4.03
   7  -8   0   12.55    4.07
   7  -8   0   14.39    1.65
  -7  -8   2    9.35    1.74
   7  -8  -2   13.98    4.37
   7  -8   2   13.95    3.80
  -7  -8  -2    9.87    3.64
   7  -8   2   13.68    1.73
  -7  -9   1    0.12    2.62
   7  -9  -1    3.41    3.16
  -7  -9  -1   -1.82    2.21
   7  -9   1    5.89    3.36
   7  -9   1    3.65    0.96
   8   0   0   54.34    5.37
   8   0   2    2.72    2.57
   8   0  -2    2.46    2.73
   8   0   4    3.89    0.89
   8   0  -4    2.52    3.42
   8   0   4    4.17    2.61
   8   0   4    3.50    1.02
   8  -1  -1   16.47    4.16
   8   1   1   13.77    3.74
   8  -1   1   12.46    3.69
   8   1  -1   11.48    3.59
   8  -1  -3    2.76    3.33
   8   1   3    6.47    2.70
   8   1  -3    4.15    3.22
   8  -1   3    4.39    1.11
   8  -1   3    3.56    2.70
   8  -2   0    1.52    2.69
   8   2   0    1.12    2.19
   8  -2  -2    6.42    3.64
  -8  -2  -2    8.66    3.84
   8  -2   2    8.75    3.31
   8   2  -2   10.13    3.51
   8  -2  -4   11.23    4.34
  -8  -2   4    9.56    1.94
   8   2  -4    7.65    3.86
   8  -2   4    9.10    1.51
  -8  -2  -4    7.17    3.43
   8  -3  -1   13.69    4.30
   8  -3   1   16.16    4.37
  -8  -3  -1   17.56    4.56
   8   3  -1   12.93    3.59
   8  -3  -3    0.29    3.51
   8  -3   3    4.19    1.16
   8   3  -3    4.78    3.09
  -8  -3  -3    7.50    3.74
   8  -3   3    3.43    2.97
  -8  -4   0   -0.90    2.74
   8  -4   0    9.93    3.95
   8  -4  -2   10.79    4.40
   8  -4   2   11.70    4.02
   8   4  -2   11.68    3.76
  -8  -4  -2   15.63    4.30
   8  -4  -4    7.85    4.45
  -8  -5   1   -0.72    3.20
   8  -5  -1    0.10    3.22
  -8  -5  -1    1.73    2.85
   8  -5   1   -2.77    2.89
   8  -5  -3    4.10    3.89
  -8  -5   3    5.19    1.47
   8  -5   3    6.88    1.47
   8   5  -3   11.71    3.84
  -8  -5  -3    9.52    3.85
   8  -5   3    6.57    3.80
  -8  -6   0   -0.68    3.05
   8  -6   0    8.42    4.08
   8  -6  -2    1.86    3.89
  -8  -6   2   -0.08    0.73
  -8  -6   2   -0.75    3.34
  -8  -6  -2   -1.20    2.47
   8  -6   2    0.38    0.64
   8  -6   2   -1.24    2.99
   8   6  -2    0.42    2.16
   8  -7  -1   19.72    5.34
   8  -7   1   17.59    4.91
   8  -7   1   16.42    1.87
  -8  -8   0   -2.19    2.76
   9   0   0   28.32    5.46
   9   0  -2   10.89    4.35
   9   0   2   10.96    3.85
   9   1   1    5.45    3.16
   9  -1  -1    7.69    3.86
   9   1  -1    8.03    3.70
   9  -1   1    4.87    3.25
   9  -2   0    1.28    3.35
   9   2   0    4.03    2.92
   9  -2  -2   23.51    5.58
   9   2   2   31.83    4.79
   9  -2   2   29.20    4.98
   9   2  -2   27.37    5.07
   9  -3  -1    0.88    3.68
   9   3   1    5.07    2.96
   9  -3   1   -0.15    3.50
   9   3  -1    2.79    2.93
   9  -4   0   -2.11    3.24
   9   4   0    1.66    2.53
   0   0   0    0.00    0.00
;
_shelx_hkl_checksum              42929
loop_
_space_group_symop_operation_xyz
'x, y, z'
'-x, -y, z'
'x, -y, z'
'-x, y, z'
'x, y+1/2, z+1/2'
'-x, -y+1/2, z+1/2'
'x, -y+1/2, z+1/2'
'-x, y+1/2, z+1/2'
loop_
_atom_site_label
_atom_site_type_symbol
_atom_site_fract_x
_atom_site_fract_y
_atom_site_fract_z
_atom_site_U_iso_or_equiv
_atom_site_adp_type
_atom_site_occupancy
_atom_site_site_symmetry_order
_atom_site_calc_flag
_atom_site_refinement_flags_posn
_atom_site_refinement_flags_adp
_atom_site_refinement_flags_occupancy
_atom_site_disorder_assembly
_atom_site_disorder_group
Ag1 Ag 0.500000 0.500000 0.9009(7) 0.0504(14) Uani 1 4 d S T P . .
Ag2 Ag 1.2207(3) 0.1888(2) 0.8748(4) 0.0551(12) Uani 1 1 d . . . . .
S1 S 1.000000 0.3511(7) 0.7598(11) 0.0227(18) Uani 1 2 d S T P . .
P1 P 1.000000 0.500000 0.9568(15) 0.016(2) Uani 1 4 d S T P . .
S2 S 0.7735(10) 0.500000 1.1448(12) 0.0211(18) Uani 1 2 d S T P . .
Cl1 Cl 0.500000 0.6723(8) 0.6122(14) 0.035(2) Uani 1 2 d S T P . .
loop_
_atom_site_aniso_label
_atom_site_aniso_U_11
_atom_site_aniso_U_22
_atom_site_aniso_U_33
_atom_site_aniso_U_23
_atom_site_aniso_U_13
_atom_site_aniso_U_12
Ag1 0.029(2) 0.092(3) 0.0308(19) 0.000 0.000 0.000
Ag2 0.0482(17) 0.0610(18) 0.0562(17) -0.0267(13) -0.0230(15) 0.0208(11)
S1 0.018(4) 0.029(4) 0.021(3) -0.012(4) 0.000 0.000
P1 0.007(5) 0.028(6) 0.013(5) 0.000 0.000 0.000
S2 0.015(4) 0.029(4) 0.020(3) 0.000 0.004(3) 0.000
Cl1 0.020(5) 0.056(5) 0.030(4) 0.006(4) 0.000 0.000
loop_
_atom_type_symbol
_atom_type_description
_atom_type_scat_dispersion_real
_atom_type_scat_dispersion_imag
_atom_type_scat_source
P P 0.1023 0.0942 'International Tables Vol C Tables 4.2.6.8 and 6.1.1.4'
S S 0.1246 0.1234 'International Tables Vol C Tables 4.2.6.8 and 6.1.1.4'
Cl Cl 0.1484 0.1585 'International Tables Vol C Tables 4.2.6.8 and 6.1.1.4'
Ag Ag -0.8971 1.1015 'International Tables Vol C Tables 4.2.6.8 and 6.1.1.4'
loop_
_geom_angle_atom_site_label_1
_geom_angle_atom_site_label_2
_geom_angle_atom_site_label_3
_geom_angle
_geom_angle_site_symmetry_1
_geom_angle_site_symmetry_3
_geom_angle_publ_flag
S2 Ag1 S2 105.9(5) . 2_665 ?
S2 Ag1 Cl1 114.46(19) . 2_665 ?
S2 Ag1 Cl1 114.46(19) 2_665 2_665 ?
S2 Ag1 Cl1 114.46(19) . . ?
S2 Ag1 Cl1 114.46(19) 2_665 . ?
Cl1 Ag1 Cl1 93.2(5) 2_665 . ?
S1 Ag2 S2 115.8(3) . 6_754 ?
S1 Ag2 Cl1 137.5(3) . 5_645 ?
S2 Ag2 Cl1 104.9(3) 6_754 5_645 ?
S1 Ag2 S1 89.0(3) . 6_755 ?
S2 Ag2 S1 110.5(3) 6_754 6_755 ?
Cl1 Ag2 S1 87.7(3) 5_645 6_755 ?
S1 Ag2 Ag2 49.9(2) . 4_755 ?
S2 Ag2 Ag2 90.97(17) 6_754 4_755 ?
Cl1 Ag2 Ag2 144.0(2) 5_645 4_755 ?
S1 Ag2 Ag2 56.36(16) 6_755 4_755 ?
P1 S1 Ag2 113.5(3) . 4_755 ?
P1 S1 Ag2 113.5(3) . . ?
Ag2 S1 Ag2 80.2(4) 4_755 . ?
P1 S1 Ag2 127.6(3) . 6_754 ?
Ag2 S1 Ag2 76.7(2) 4_755 6_754 ?
Ag2 S1 Ag2 118.9(3) . 6_754 ?
P1 S1 Ag2 127.6(3) . 7_554 ?
Ag2 S1 Ag2 118.9(3) 4_755 7_554 ?
Ag2 S1 Ag2 76.7(2) . 7_554 ?
Ag2 S1 Ag2 67.3(3) 6_754 7_554 ?
S2 P1 S2 109.8(7) 2_765 . ?
S2 P1 S1 110.1(2) 2_765 2_765 ?
S2 P1 S1 110.1(2) . 2_765 ?
S2 P1 S1 110.1(2) 2_765 . ?
S2 P1 S1 110.1(2) . . ?
S1 P1 S1 106.5(6) 2_765 . ?
P1 S2 Ag1 107.8(5) . . ?
P1 S2 Ag2 108.2(3) . 8_755 ?
Ag1 S2 Ag2 110.8(2) . 8_755 ?
P1 S2 Ag2 108.2(3) . 6_755 ?
Ag1 S2 Ag2 110.8(2) . 6_755 ?
Ag2 S2 Ag2 111.0(4) 8_755 6_755 ?
Ag2 Cl1 Ag2 108.1(4) 5_454 8_754 ?
Ag2 Cl1 Ag1 116.9(3) 5_454 . ?
Ag2 Cl1 Ag1 116.9(3) 8_754 . ?
loop_
_geom_bond_atom_site_label_1
_geom_bond_atom_site_label_2
_geom_bond_distance
_geom_bond_site_symmetry_2
_geom_bond_publ_flag
Ag1 S2 2.551(11) . ?
Ag1 S2 2.551(11) 2_665 ?
Ag1 Cl1 2.649(11) 2_665 ?
Ag1 Cl1 2.649(11) . ?
Ag2 S1 2.551(9) . ?
Ag2 S2 2.560(9) 6_754 ?
Ag2 Cl1 2.568(9) 5_645 ?
Ag2 S1 2.964(10) 6_755 ?
Ag2 Ag2 3.284(13) 4_755 ?
S1 P1 2.075(11) . ?
P1 S2 2.061(11) 2_765 ?
P1 S2 2.061(11) . ?
