#------------------------------------------------------------------------------
#$Date: 2022-04-22 00:56:13 +0300 (Fri, 22 Apr 2022) $
#$Revision: 274624 $
#$URL: file:///home/coder/svn-repositories/cod/cif/7/13/00/7130002.cif $
#------------------------------------------------------------------------------
#
# This file is available in the Crystallography Open Database (COD),
# http://www.crystallography.net/
#
# All data on this site have been placed in the public domain by the
# contributors.
#
data_7130002
loop_
_publ_author_name
'Petrosova, Hanna R.'
'Kucheriv, Olesia I.'
'Shova, Sergiu'
'Gural'skiy, Il'ya A.'
_publ_section_title
;
 Aziridinium cation templating 3D lead halide hybrid perovskites
;
_journal_name_full               'Chemical Communications'
_journal_paper_doi               10.1039/D2CC01364A
_journal_year                    2022
_chemical_formula_moiety         'Br3 Pb1, 0.167(C12), 0.083(N12)'
_chemical_formula_sum            'C2 Br3 N Pb'
_chemical_formula_weight         484.95
_space_group_crystal_system      cubic
_space_group_IT_number           221
_space_group_name_Hall           '-P 4 2 3'
_space_group_name_H-M_alt        'P m -3 m'
_audit_creation_date             2022-02-11
_audit_creation_method
;
Olex2 1.3
(compiled 2020.11.12 svn.r5f609507 for OlexSys, GUI svn.r6408)
;
_audit_update_record
;
2022-02-18 deposited with the CCDC.	2022-03-30 downloaded from the CCDC.
;
_cell_angle_alpha                90
_cell_angle_beta                 90
_cell_angle_gamma                90
_cell_formula_units_Z            1
_cell_length_a                   5.9739(3)
_cell_length_b                   5.9739(3)
_cell_length_c                   5.9739(3)
_cell_measurement_reflns_used    159
_cell_measurement_temperature    293
_cell_measurement_theta_max      28.2300
_cell_measurement_theta_min      3.4040
_cell_volume                     213.193(19)
_computing_cell_refinement       'CrysAlisPro 1.171.41.93a (Rigaku OD, 2020)'
_computing_data_collection       'CrysAlisPro 1.171.41.93a (Rigaku OD, 2020)'
_computing_data_reduction        'CrysAlisPro 1.171.41.93a (Rigaku OD, 2020)'
_computing_molecular_graphics    'Olex2 1.3 (Dolomanov et al., 2009)'
_computing_publication_material  'Olex2 1.3 (Dolomanov et al., 2009)'
_computing_structure_refinement  'SHELXL 2018/3 (Sheldrick, 2015)'
_computing_structure_solution    'SHELXT 2018/2 (Sheldrick, 2018)'
_diffrn_ambient_temperature      293.00
_diffrn_detector_area_resol_mean 16.1593
_diffrn_detector_type            Eos
_diffrn_measured_fraction_theta_full 1.000
_diffrn_measured_fraction_theta_max 0.930
_diffrn_measurement_details
;
List of Runs (angles in degrees, time in seconds):

  # Type    Start    End  Width  t~exp~   \w     \q     \k     \f   Frames
#--------------------------------------------------------------------------
  1  \w      8.00  63.00   1.00   10.00    --   17.71  63.00 101.00   55
;
_diffrn_measurement_device       'four-circle diffractometer'
_diffrn_measurement_device_type  'Xcalibur, Eos'
_diffrn_measurement_method       '\w scans'
_diffrn_radiation_type           MoK\a
_diffrn_radiation_wavelength     0.71073
_diffrn_reflns_av_R_equivalents  0.0498
_diffrn_reflns_av_unetI/netI     0.0492
_diffrn_reflns_Laue_measured_fraction_full 1.000
_diffrn_reflns_Laue_measured_fraction_max 0.930
_diffrn_reflns_limit_h_max       6
_diffrn_reflns_limit_h_min       -2
_diffrn_reflns_limit_k_max       7
_diffrn_reflns_limit_k_min       -4
_diffrn_reflns_limit_l_max       4
_diffrn_reflns_limit_l_min       -8
_diffrn_reflns_number            264
_diffrn_reflns_point_group_measured_fraction_full 1.000
_diffrn_reflns_point_group_measured_fraction_max 0.930
_diffrn_reflns_theta_full        25.242
_diffrn_reflns_theta_max         29.138
_diffrn_reflns_theta_min         3.410
_exptl_absorpt_coefficient_mu    33.745
_exptl_absorpt_correction_T_max  0.097
_exptl_absorpt_correction_T_min  0.068
_exptl_absorpt_correction_type   analytical
_exptl_absorpt_process_details
;
CrysAlisPro 1.171.41.93a (Rigaku Oxford Diffraction, 2020)
Analytical numeric absorption correction using a multifaceted crystal
model based on expressions derived by R.C. Clark & J.S. Reid.
(Clark, R. C. & Reid, J. S. (1995). Acta Cryst. A51, 887-897)
Empirical absorption correction using spherical harmonics,
implemented in SCALE3 ABSPACK scaling algorithm.
;
_exptl_crystal_colour            red
_exptl_crystal_colour_primary    red
_exptl_crystal_density_diffrn    3.777
_exptl_crystal_description       prism
_exptl_crystal_F_000             206
_exptl_crystal_size_max          0.15
_exptl_crystal_size_mid          0.13
_exptl_crystal_size_min          0.12
_refine_diff_density_max         0.818
_refine_diff_density_min         -0.845
_refine_diff_density_rms         0.244
_refine_ls_extinction_coef       0.25(3)
_refine_ls_extinction_expression Fc^*^=kFc[1+0.001xFc^2^\l^3^/sin(2\q)]^-1/4^
_refine_ls_extinction_method     'SHELXL-2018/3 (Sheldrick 2018)'
_refine_ls_goodness_of_fit_ref   1.197
_refine_ls_hydrogen_treatment    undef
_refine_ls_matrix_type           full
_refine_ls_number_parameters     7
_refine_ls_number_reflns         80
_refine_ls_number_restraints     0
_refine_ls_restrained_S_all      1.197
_refine_ls_R_factor_all          0.0338
_refine_ls_R_factor_gt           0.0338
_refine_ls_shift/su_max          0.000
_refine_ls_shift/su_mean         0.000
_refine_ls_structure_factor_coef Fsqd
_refine_ls_weighting_details
'w=1/[\s^2^(Fo^2^)+(0.0292P)^2^] where P=(Fo^2^+2Fc^2^)/3'
_refine_ls_weighting_scheme      calc
_refine_ls_wR_factor_gt          0.0693
_refine_ls_wR_factor_ref         0.0694
_reflns_Friedel_coverage         0.000
_reflns_number_gt                80
_reflns_number_total             80
_reflns_threshold_expression     'I > 2\s(I)'
_cod_data_source_file            d2cc01364a2.cif
_cod_data_source_block           shi_5624_ilgu_auto
_cod_original_cell_volume        213.19(3)
_cod_database_code               7130002
_shelx_shelxl_version_number     2018/3
_shelx_space_group_comment
;
The symmetry employed for this shelxl refinement is uniquely defined
by the following loop, which should always be used as a source of
symmetry information in preference to the above space-group names.
They are only intended as comments.
;
_shelx_estimated_absorpt_t_max   0.107
_shelx_estimated_absorpt_t_min   0.081
_olex2_refinement_description
;
1. Shared sites
{C1, N1}
2. Uiso/Uaniso restraints and constraints
Uiso(C1) = Uiso(N1)
3. Others
 Fixed Sof: C1(0.04165) N1(0.020825)
;
_shelx_res_file
;
TITL shi_5624_ilgu_auto_a.res in Pm-3m
    shi_5624_ilgu_auto.res
    created by SHELXL-2018/3 at 13:12:43 on 07-Feb-2022
REM Old TITL shI_5624_IlGu_auto in Pm-3m
REM SHELXT solution in Pm-3m: R1 0.125, Rweak 0.153, Alpha 0.044
REM <I/s> 0.000 for 0 systematic absences, Orientation as input
REM Formula found by SHELXT: N Br3 Pb
CELL 0.71073 5.9739 5.9739 5.9739 90 90 90
ZERR 1 0.0003 0.0003 0.0003 0 0 0
LATT 1
SYMM -X,-Y,+Z
SYMM -X,+Y,-Z
SYMM +X,-Y,-Z
SYMM +Z,+X,+Y
SYMM +Z,-X,-Y
SYMM -Z,-X,+Y
SYMM -Z,+X,-Y
SYMM +Y,+Z,+X
SYMM -Y,+Z,-X
SYMM +Y,-Z,-X
SYMM -Y,-Z,+X
SYMM +Y,+X,-Z
SYMM -Y,-X,-Z
SYMM +Y,-X,+Z
SYMM -Y,+X,+Z
SYMM +X,+Z,-Y
SYMM -X,+Z,+Y
SYMM -X,-Z,-Y
SYMM +X,-Z,+Y
SYMM +Z,+Y,-X
SYMM +Z,-Y,+X
SYMM -Z,+Y,+X
SYMM -Z,-Y,-X
SFAC Br C N Pb
UNIT 3 2 1 1
EQIV $1 1-Z,+X,2-Y
EQIV $2 +Y,+X,+Z
EQIV $3 1-Z,1-X,1-Y
EQIV $4 1-Y,+X,1-Z
EQIV $5 +Y,1-X,+Z
EQIV $6 +Y,1-X,1-Z
EQIV $7 +Z,+X,+Y
EQIV $8 1-Y,1-Z,1-X
EQIV $9 1-Z,+Y,+X
EQIV $10 1-Y,+Z,+X
EQIV $11 1-Z,+Y,1-X
EQIV $12 +Z,+Y,+X
EQIV $13 +Y,1-Z,+X
EQIV $14 +X,1-Y,1-Z
EQIV $15 1-X,1-Z,+Y
EQIV $16 +X,1-Y,+Z
EQIV $17 1-Y,1-X,1-Z
EQIV $18 1-Y,+X,+Z
EQIV $19 +Z,1-X,+Y
EQIV $20 1-X,+Y,1-Z
EQIV $21 +Y,+Z,+X
EQIV $22 +Z,1-Y,1-X
EQIV $23 +Y,+Z,1-X
EQIV $24 1-X,+Y,+Z
EQIV $25 +Z,+Y,1-X
EQIV $26 +X,+Y,1-Z
EQIV $27 +Y,1-Z,1-X
EQIV $28 1-Z,+X,1-Y
EQIV $29 +X,1-Z,+Y
EADP C1 N1
EXYZ C1 N1

L.S. 4
PLAN  9
SIZE 0.12 0.13 0.15
TEMP 19.85
CONF
FREE N1 N1_$14
FREE N1 N1_$22
FREE N1 N1_$26
FREE N1 N1_$25
FREE N1 N1_$20
FREE N1 N1_$6
FREE N1 N1_$24
FREE N1 N1_$5
FREE N1 N1_$7
FREE N1 N1_$2
FREE N1 N1_$19
FREE N1 N1_$28
FREE N1 N1_$4
FREE N1 N1_$3
FREE N1 N1_$17
FREE N1 N1_$27
FREE N1 N1_$8
FREE N1 N1_$18
FREE N1 N1_$21
FREE N1 N1_$10
BIND Pb1 Br1_$1
BIND Pb1 Br1_$29
FREE C1 C1_$20
FREE C1 C1_$15
FREE C1 C1_$26
FREE C1 C1_$29
FREE C1 C1_$14
FREE C1 C1_$4
FREE C1 C1_$16
FREE C1 C1_$18
FREE C1 C1_$27
FREE C1 C1_$11
FREE C1 C1_$13
FREE C1 C1_$9
FREE C1 C1_$21
FREE C1 C1_$12
FREE C1 C1_$23
FREE C1 C1_$25
FREE C1 C1_$7
FREE C1 C1_$19
FREE C1 C1_$17
FREE C1 C1_$28
FREE C1 C1_$2
FREE C1 C1_$3
FREE C1 C1_$5
list 4
MORE -1
fmap 2 53
acta
REM <olex2.extras>
REM <HklSrc "%.\\shi_5624_ilgu_auto.hkl">
REM </olex2.extras>

WGHT    0.029200
EXTI    0.254049
FVAR       1.15684
PB1   4    0.000000    0.000000    0.000000    10.02083    0.02108    0.02108 =
         0.02108    0.00000    0.00000    0.00000
BR1   1    0.000000    0.000000    0.500000    10.06250    0.08370    0.08370 =
         0.02008    0.00000    0.00000    0.00000
PART 3
C1    2    0.598483    0.598483    0.500000    10.04166    0.06879

PART 4
N1    3    0.598483    0.598483    0.500000    10.02083    0.06879
HKLF 4




REM  shi_5624_ilgu_auto_a.res in Pm-3m
REM wR2 = 0.0694, GooF = S = 1.197, Restrained GooF = 1.197 for all data
REM R1 = 0.0338 for 80 Fo > 4sig(Fo) and 0.0338 for all 80 data
REM 7 parameters refined using 0 restraints

END

WGHT      0.0292      0.0000

REM Highest difference peak  0.818,  deepest hole -0.845,  1-sigma level  0.244
Q1    1   0.0000  0.3375  0.3375  10.25000  0.05    0.82
Q2    1   0.2224  0.2224  0.0000  10.25000  0.05    0.80
Q3    1   0.1593  0.0000  0.0000  10.12500  0.05    0.75
Q4    1   0.0000 -0.1889  0.7347  10.50000  0.05    0.75
Q5    1   0.0000 -0.1065  0.3233  10.50000  0.05    0.65
Q6    1   0.6801  0.5000  0.5000  10.12500  0.05    0.56
Q7    1   0.7774  0.7774  0.2226  10.16667  0.05    0.51
Q8    1   0.2514  0.0000  0.3766  10.50000  0.05    0.48
Q9    1   1.0000  0.5000  0.5000  10.06250  0.05    0.47
;
_shelx_res_checksum              66783
_shelx_hkl_file
;
   0   1   0 4519.36  150.52
   0  -1   0 4580.25  149.64
   0   1  -1 2215.20  106.74
   1   0   1 2540.55   91.81
   0  -1   1 2423.04  110.10
   1  -1   1  693.10   51.93
   0  -2   0 9999.00  325.32
  -1   0  -2 4422.49  167.25
   1   0   2 4615.25  174.01
   0  -2   1 5078.26  195.64
  -1  -2   0 4480.24  171.77
   0   1  -2 4506.12  196.05
   0   2  -1 4450.33  185.36
   1   2   0 4475.77  169.64
   1  -1   2 2153.28  115.77
   1  -2   1 2346.49  119.72
  -1  -2  -1 2145.29   83.46
  -1  -1  -2 2056.96   83.06
  -1   1  -2 2203.95  112.90
   1   2  -1 1948.32  115.31
   2   0   2 8008.95  277.86
   0   2  -2 7673.87  313.99
   0  -2   2 8269.35  318.85
   2   2   0 8324.40  284.02
  -1   2  -2 4679.32  216.56
   2  -1   2 5358.41  210.48
   2   2  -1 5052.10  223.54
   2   2   1 5173.68  161.29
   1   2  -2 4959.01  229.93
   2   1   2 4932.23  162.58
   2   2  -2 7836.73  332.40
   0   0  -3 4409.82  206.79
   0  -3   0 4331.91  187.56
   0   3  -1 1300.29   96.46
   0   1  -3 1477.74  107.40
  -1   0  -3 1412.83   91.45
   1   3   0 1431.24   88.05
  -1  -3   0 1378.45   90.12
   0  -3  -1 1323.62   81.62
   1   1  -3   44.67   22.07
  -1  -3   1   36.29   15.64
   1   3  -1   10.15   11.03
  -1  -3  -1   29.93   10.66
   1  -1   3   23.43   14.05
  -1   1  -3   47.79   16.28
  -1  -1  -3   21.58   10.42
   2   0   3 3864.24  170.86
   3   0   2 3739.91  160.07
   0   2  -3 3628.76  198.50
   2   3   0 3560.11  164.88
   0   3  -2 3632.02  190.13
  -2   0  -3 3600.64  156.10
  -1   2  -3 1383.99  106.99
  -2   1  -3 1445.54   98.38
  -1  -3  -2 1473.09   69.37
   2   3  -1 1359.84  103.04
   1   2  -3 1209.81  110.34
   1   3  -2 1331.15  111.60
   3   1   2 1426.61   69.81
  -1   3  -2 1375.95  107.80
   2   2  -3 3263.22  203.21
   2   3  -2 3202.75  189.70
   0   3  -3  974.99   97.31
   3   3   0  912.20   75.10
   3   0   3  832.80   71.96
   3   3   1  217.29   24.66
  -1   3  -3  175.70   41.23
   3   3  -1  213.04   41.23
   3   1   3  158.56   24.03
   3   3  -2 1013.33  102.97
   2   3  -3  971.98  105.19
   3   3  -3  298.35   62.45
   0   0  -4 6948.60  305.54
  -1   0  -4 3748.04  190.57
   0   1  -4 4150.91  220.44
  -1  -4  -1 1901.21  112.94
  -1   1  -4 2202.65  141.95
   1   1  -4 2042.34  155.33
   1   4  -1 1743.36  123.86
  -1  -1  -4 1883.71  114.98
  -2   0  -4 4922.47  213.08
   0   4  -2 4811.69  250.81
   2   4   0 5364.97  221.79
   0   2  -4 4910.58  261.04
  -2   1  -4 3250.18  181.15
  -1   2  -4 3149.39  193.70
   1   4  -2 3393.10  199.03
  -1  -4  -2 3679.86  154.22
  -1  -2  -4 3625.97  166.58
   2   4  -1 3476.13  190.42
   1   2  -4 3570.66  218.23
  -2  -1  -4 3492.02  148.38
  -2   2  -4 4321.79  232.08
   2   2  -4 4179.72  259.94
   2   4  -2 4333.70  244.68
  -2  -2  -4 4925.40  157.34
   3   0   4 2368.70  146.56
   0   4  -3 2404.96  171.24
   4   3   0 2621.00  150.68
   3   4   0 2579.04  144.04
   0   3  -4 2551.85  180.03
   4   3  -1 1298.18  114.66
  -1   3  -4 1246.38  119.38
  -1   4  -3 1312.29  121.42
   1   4  -3 1216.46  119.66
   1   3  -4 1249.76  126.48
   4   3   1 1303.53   80.97
   3   4  -1 1336.24  112.81
   4   3  -2 2302.26  172.20
  -2   3  -4 2011.19  155.31
   2   4  -3 2469.49  180.45
   3   4  -2 2115.72  161.57
   2   3  -4 2044.24  173.82
   3   3  -4 1040.33  121.62
   3   4  -3  831.94  104.96
   4   3  -3  968.02  115.30
   0   4  -4 2833.87  202.61
   4   4   0 3249.91  172.21
  -1   4  -4 2230.90  176.84
   1   4  -4 2053.58  173.62
   4   4  -1 2369.42  160.47
   2   4  -4 2677.78  204.56
   4   4  -2 2452.41  181.26
   4   3  -4 1344.99  146.22
   3   4  -4 1137.81  132.86
   4   4  -3 1377.82  141.02
   4   4  -4 1338.07  146.95
   0   0  -5 1893.08  147.55
   0  -1  -5  702.43   87.27
  -1   0  -5  653.07   77.24
   0   1  -5  725.91   91.36
  -1   1  -5  212.29   45.38
   1   5  -1  126.91   35.05
  -1  -1  -5  151.20   33.33
   1   1  -5  133.99   41.44
  -2   0  -5 1400.42  106.13
   0   2  -5 1554.45  143.13
   0   5  -2 1246.18  119.93
   2   5  -1  639.77   77.35
  -2   1  -5  874.40   87.66
  -2  -1  -5  686.23   63.69
   1   2  -5  603.77   88.85
   1   5  -2  580.19   79.45
  -1   2  -5  667.03   88.63
   2   1  -5  793.06  109.13
  -1  -2  -5  756.42   71.68
  -2   2  -5 1397.90  127.81
   2   5  -2 1367.98  125.51
   2   2  -5 1225.65  136.67
   3   5   0  626.70   69.59
   0   5  -3  497.57   79.77
   0   3  -5  686.93   94.83
   1   3  -5  213.67   54.02
   1   5  -3  225.81   50.83
  -1   3  -5  184.76   49.75
   3   5  -1  320.92   56.16
  -2   3  -5  554.18   82.13
   3   2  -5  595.88  100.58
   2   5  -3  603.45   88.88
   2   3  -5  497.35   86.53
   3   5  -2  554.22   81.72
   3   5  -3  331.84   69.73
   3   3  -5  362.13   76.62
   5   3  -3  290.04   66.93
   0   5  -4 1105.07  126.21
   0   4  -5 1141.58  129.13
   1   4  -5  604.74   95.33
   5   4  -1  684.89   86.03
  -1   5  -4  793.97  105.26
  -1   4  -5  767.37  106.68
   1   5  -4  677.91   96.72
   4   5  -1  609.31   80.59
   4   5  -2  779.31  100.79
   2   4  -5  852.12  116.75
   2   5  -4  886.21  117.37
   5   4  -2  940.63  110.06
   5   3  -4  682.11  106.95
   3   5  -4  476.08   88.49
   4   5  -3  505.18   89.32
   5   4  -3  510.22   88.15
   3   4  -5  568.00   97.09
   4   3  -5  600.58  102.18
   5   4  -4  594.87  102.58
   4   5  -4  763.47  113.77
   4   4  -5  645.83  108.03
   0   5  -5  274.58   68.01
  -1   5  -5  244.87   59.36
   1   5  -5  405.60   80.56
   5   5  -2  325.65   64.62
   2   5  -5  452.72   86.05
   5   5  -3  168.47   50.04
   0   0  -6 2988.21  206.29
   1   0  -6 2258.88  189.50
  -1   0  -6 2193.46  163.30
   0   1  -6 2084.59  174.38
   0  -1  -6 2067.71  164.73
  -1   1  -6 1366.76  133.54
  -1  -1  -6 1527.99  124.25
   1   1  -6 1569.92  156.70
   0  -2  -6 2673.59  188.40
  -2   0  -6 2289.15  155.52
   0   2  -6 2483.69  200.64
   2   1  -6 1737.63  175.75
  -2   1  -6 1815.31  144.57
  -1   2  -6 1691.65  153.05
   1   2  -6 1654.50  166.13
   2   6  -1 1451.82  131.88
   1   6  -2 1810.64  154.61
   2   6  -2 1870.33  160.54
  -2   2  -6 1829.37  160.89
   2   2  -6 2088.63  193.89
   0   3  -6 1284.88  142.70
   3   6  -1  886.63   98.08
  -1   3  -6 1024.22  121.94
   1   3  -6  944.20  126.34
   3   1  -6 1246.55  153.33
   1   6  -3  674.85   99.44
  -2   3  -6 1186.25  130.39
   2   6  -3 1109.33  125.38
   3   6  -2 1080.84  117.53
   2   3  -6  966.88  132.63
   3   2  -6 1097.14  144.01
   3   3  -6  754.48  118.39
   3   6  -3  801.74  109.59
   0   4  -6  927.62  125.70
   0   6  -4 1273.77  142.43
  -1   4  -6 1424.41  154.29
   1   6  -4 1016.53  126.69
   1   4  -6 1109.34  140.90
   2   4  -6  890.62  130.68
  -2   4  -6 1084.29  129.97
   2   6  -4 1000.92  128.30
   4   2  -6 1171.12  152.56
   6   3  -4  645.63  107.67
   6   4  -3  647.18  100.26
   3   6  -4  688.30  107.23
   4   6  -3  547.14   91.36
   0   0  -7  364.37   71.07
  -1   0  -7  337.39   63.03
   0  -1  -7  244.38   57.31
   0   1  -7  298.78   68.56
   1   0  -7  289.04   68.55
   1  -1  -7  265.75   69.84
  -1   1  -7  177.25   51.10
   1   1  -7  223.17   59.02
   0   2  -7  449.15   87.51
   2   0  -7  510.41   99.33
  -2   1  -7  341.97   64.77
   1   2  -7  252.70   67.62
   2   1  -7  288.63   74.83
  -1   2  -7  218.02   56.88
   1  -2  -7  374.72   80.56
  -2   2  -7  311.03   71.94
   2   2  -7  364.95   85.98
   0   3  -7  343.97   75.98
  -1   3  -7  272.88   65.52
   2   7  -3  212.30   54.63
  -2   3  -7  267.97   72.01
   3   7  -3  156.70   52.30
   0   0  -8 1171.78  140.50
   0   1  -8  951.39  130.14
   1   0  -8 1062.61  141.54
   1  -1  -8  899.56  126.09
  -1   1  -8  586.91   94.73
   0   0   0    0.00    0.00


TITL shI_5624_IlGu_auto in Pm-3m
REM Pm-3m (#221 in standard setting)
CELL 0.71073   5.973938   5.973938   5.973938  90.0000  90.0000  90.0000
ZERR    2.00   0.000317   0.000317   0.000317   0.0000   0.0000   0.0000
LATT  1
SYMM -x,-y, z
SYMM -x, y,-z
SYMM  x,-y,-z
SYMM  z, x, y
SYMM  z,-x,-y
SYMM -z,-x, y
SYMM -z, x,-y
SYMM  y, z, x
SYMM -y, z,-x
SYMM  y,-z,-x
SYMM -y,-z, x
SYMM  y, x,-z
SYMM -y,-x,-z
SYMM  y,-x, z
SYMM -y, x, z
SYMM  x, z,-y
SYMM -x, z, y
SYMM -x,-z,-y
SYMM  x,-z, y
SYMM  z, y,-x
SYMM  z,-y, x
SYMM -z, y, x
SYMM -z,-y,-x
SFAC C H N Br Pb
UNIT 4.00 12.00 2.00 6.00 2.00
SIZE 0.12 0.13 0.15
TREF
HKLF 4
END
_computing_structure_solution     'SHELXT 2018/2 (Sheldrick, 2018)'
;
_shelx_hkl_checksum              81206
_olex2_submission_special_instructions 'No special instructions were received'
_oxdiff_exptl_absorpt_empirical_details
;
Empirical correction (ABSPACK) includes:
- Absorption correction using spherical harmonics
- Frame scaling
;
loop_
_space_group_symop_operation_xyz
'x, y, z'
'-x, -y, z'
'-x, y, -z'
'x, -y, -z'
'z, x, y'
'z, -x, -y'
'-z, -x, y'
'-z, x, -y'
'y, z, x'
'-y, z, -x'
'y, -z, -x'
'-y, -z, x'
'y, x, -z'
'-y, -x, -z'
'y, -x, z'
'-y, x, z'
'x, z, -y'
'-x, z, y'
'-x, -z, -y'
'x, -z, y'
'z, y, -x'
'z, -y, x'
'-z, y, x'
'-z, -y, -x'
'-x, -y, -z'
'x, y, -z'
'x, -y, z'
'-x, y, z'
'-z, -x, -y'
'-z, x, y'
'z, x, -y'
'z, -x, y'
'-y, -z, -x'
'y, -z, x'
'-y, z, x'
'y, z, -x'
'-y, -x, z'
'y, x, z'
'-y, x, -z'
'y, -x, -z'
'-x, -z, y'
'x, -z, -y'
'x, z, y'
'-x, z, -y'
'-z, -y, x'
'-z, y, -x'
'z, -y, -x'
'z, y, x'
loop_
_atom_site_label
_atom_site_type_symbol
_atom_site_fract_x
_atom_site_fract_y
_atom_site_fract_z
_atom_site_U_iso_or_equiv
_atom_site_adp_type
_atom_site_occupancy
_atom_site_site_symmetry_order
_atom_site_calc_flag
_atom_site_refinement_flags_posn
_atom_site_refinement_flags_adp
_atom_site_refinement_flags_occupancy
_atom_site_disorder_assembly
_atom_site_disorder_group
Pb1 Pb 0.000000 0.000000 0.000000 0.0211(9) Uani 1 48 d S T P . .
Br1 Br 0.000000 0.000000 0.500000 0.0625(11) Uani 1 16 d S T P . .
C1 C 0.598(6) 0.598(6) 0.500000 0.07(3) Uiso 0.1666 4 d S . P A 3
N1 N 0.598(6) 0.598(6) 0.500000 0.07(3) Uiso 0.0833 4 d S . P B 4
loop_
_atom_site_aniso_label
_atom_site_aniso_U_11
_atom_site_aniso_U_22
_atom_site_aniso_U_33
_atom_site_aniso_U_23
_atom_site_aniso_U_13
_atom_site_aniso_U_12
Pb1 0.0211(9) 0.0211(9) 0.0211(9) 0.000 0.000 0.000
Br1 0.0837(17) 0.0837(17) 0.0201(14) 0.000 0.000 0.000
loop_
_atom_type_symbol
_atom_type_description
_atom_type_scat_dispersion_real
_atom_type_scat_dispersion_imag
_atom_type_scat_source
Br Br -0.2901 2.4595 'International Tables Vol C Tables 4.2.6.8 and 6.1.1.4'
C C 0.0033 0.0016 'International Tables Vol C Tables 4.2.6.8 and 6.1.1.4'
N N 0.0061 0.0033 'International Tables Vol C Tables 4.2.6.8 and 6.1.1.4'
Pb Pb -3.3944 10.1111 'International Tables Vol C Tables 4.2.6.8 and 6.1.1.4'
loop_
_exptl_crystal_face_index_h
_exptl_crystal_face_index_k
_exptl_crystal_face_index_l
_exptl_crystal_face_perp_dist
-4 -3 7 0.0664
3 6 6 0.0719
4 3 -7 0.0639
-4 -7 -4 0.0521
-3 7 -4 0.0651
-2 5 6 0.0785
3 -6 6 0.0544
2 -6 -6 0.0429
-5 2 6 0.0757
-8 -1 -3 0.0726
5 -2 -6 0.0483
8 0 0 0.0469
5 2 6 0.0664
-6 -1 5 0.0670
-7 -4 -2 0.0611
8 3 0 0.0576
7 2 -4 0.0498
-3 -6 6 0.0513
-8 3 2 0.0778
loop_
_geom_angle_atom_site_label_1
_geom_angle_atom_site_label_2
_geom_angle_atom_site_label_3
_geom_angle
_geom_angle_site_symmetry_1
_geom_angle_site_symmetry_3
_geom_angle_publ_flag
Br1 Pb1 Br1 90.0 9_545 . ?
Br1 Pb1 Br1 104.0 5_455 8_657 ?
Br1 Pb1 Br1 90.0 9_545 8_657 ?
Br1 Pb1 Br1 90.0 20_565 5_455 ?
Br1 Pb1 Br1 90.0 . 20_565 ?
Br1 Pb1 Br1 90.0 9_545 5_455 ?
Br1 Pb1 Br1 90.0 9_545 1_554 ?
Br1 Pb1 Br1 90.0 20_565 8_657 ?
Br1 Pb1 Br1 180.0 . 1_554 ?
Br1 Pb1 Br1 90.0 20_565 1_554 ?
Br1 Pb1 Br1 14.0 . 8_657 ?
Br1 Pb1 Br1 90.0 1_554 5 ?
Br1 Pb1 Br1 166.0 1_554 8_657 ?
Br1 Pb1 Br1 90.0 . 5_455 ?
Br1 Pb1 Br1 76.0 5 8_657 ?
Br1 Pb1 Br1 180.0 9_545 20_565 ?
Br1 Pb1 Br1 90.0 9_545 5 ?
Br1 Pb1 Br1 90.0 1_554 5_455 ?
Br1 Pb1 Br1 90.0 20_565 5 ?
Br1 Pb1 Br1 90.0 . 5 ?
Br1 Pb1 Br1 180.0 5_455 5 ?
Pb1 Br1 Pb1 180.0 1_556 . ?
loop_
_geom_bond_atom_site_label_1
_geom_bond_atom_site_label_2
_geom_bond_distance
_geom_bond_site_symmetry_2
_geom_bond_publ_flag
Pb1 Br1 2.98695(15) 9_545 ?
Pb1 Br1 2.98695(15) 20_565 ?
Pb1 Br1 2.98695(15) . ?
Pb1 Br1 2.98695(15) 5 ?
Pb1 Br1 12.3155(6) 8_657 ?
Pb1 Br1 2.98695(15) 1_554 ?
Pb1 Br1 2.98695(15) 5_455 ?
