#------------------------------------------------------------------------------
#$Date: 2022-07-23 01:10:57 +0300 (Sat, 23 Jul 2022) $
#$Revision: 276788 $
#$URL: file:///home/coder/svn-repositories/cod/cif/7/13/03/7130351.cif $
#------------------------------------------------------------------------------
#
# This file is available in the Crystallography Open Database (COD),
# http://www.crystallography.net/
#
# All data on this site have been placed in the public domain by the
# contributors.
#
data_7130351
loop_
_publ_author_name
'Han, Keke'
'Zhang, Mengxia'
'Wei, Zhenhong'
'Ye, Xing'
'Rao, Wenjun'
'Zhang, Haina'
'Cai, Hu'
_publ_section_title
;
 Precise design and preparation of two 3D organic&#x2212;inorganic
 perovskite ferroelectrics (1,5-diazabicyclo[3.2.2]nonane)RbX3 (X = Br, I)
;
_journal_name_full               'Chemical Communications'
_journal_paper_doi               10.1039/D2CC02673B
_journal_year                    2022
_chemical_formula_moiety         '2(C6), 2.994(Br), Rb'
_chemical_formula_sum            'C12 Br3 Rb'
_chemical_formula_weight         468.81
_space_group_crystal_system      cubic
_space_group_IT_number           221
_space_group_name_Hall           '-P 4 2 3'
_space_group_name_H-M_alt        'P m -3 m'
_audit_creation_date             2022-07-12
_audit_creation_method
;
Olex2 1.5-beta
(compiled 2022.04.07 svn.rca3783a0 for OlexSys, GUI svn.r6498)
;
_audit_update_record
;
2022-07-14 deposited with the CCDC.	2022-07-19 downloaded from the CCDC.
;
_cell_angle_alpha                90
_cell_angle_beta                 90
_cell_angle_gamma                90
_cell_formula_units_Z            1
_cell_length_a                   6.94400(10)
_cell_length_b                   6.94400(10)
_cell_length_c                   6.94400(10)
_cell_measurement_reflns_used    9682
_cell_measurement_temperature    293(2)
_cell_measurement_theta_max      76.4110
_cell_measurement_theta_min      4.5870
_cell_volume                     334.834(8)
_computing_molecular_graphics    'Olex2 1.5-beta (Dolomanov et al., 2009)'
_computing_publication_material  'Olex2 1.5-beta (Dolomanov et al., 2009)'
_computing_structure_refinement  'ShelXL (Sheldrick, 2015)'
_computing_structure_solution    'olex2.solve (Bourhis et al., 2015)'
_diffrn_ambient_temperature      293(2)
_diffrn_measured_fraction_theta_full 1.000
_diffrn_measured_fraction_theta_max 0.980
_diffrn_measurement_device_type  'multiwire proportional'
_diffrn_measurement_method       'phi and omega scans'
_diffrn_radiation_monochromator  graphite
_diffrn_radiation_type           CuK\a
_diffrn_radiation_wavelength     1.54178
_diffrn_reflns_av_R_equivalents  0.0587
_diffrn_reflns_av_unetI/netI     0.0522
_diffrn_reflns_Laue_measured_fraction_full 1.000
_diffrn_reflns_Laue_measured_fraction_max 0.980
_diffrn_reflns_limit_h_max       8
_diffrn_reflns_limit_h_min       -4
_diffrn_reflns_limit_k_max       8
_diffrn_reflns_limit_k_min       -8
_diffrn_reflns_limit_l_max       8
_diffrn_reflns_limit_l_min       -5
_diffrn_reflns_number            360
_diffrn_reflns_point_group_measured_fraction_full 1.000
_diffrn_reflns_point_group_measured_fraction_max 0.980
_diffrn_reflns_theta_full        67.679
_diffrn_reflns_theta_max         72.744
_diffrn_reflns_theta_min         6.374
_exptl_absorpt_coefficient_mu    15.294
_exptl_absorpt_correction_type   none
_exptl_crystal_colour            colorless
_exptl_crystal_density_diffrn    2.325
_exptl_crystal_density_method    'not measured'
_exptl_crystal_description       block
_exptl_crystal_F_000             213.8
_exptl_crystal_size_max          0.001
_exptl_crystal_size_mid          0.001
_exptl_crystal_size_min          0.001
_refine_diff_density_max         0.905
_refine_diff_density_min         -0.556
_refine_diff_density_rms         0.144
_refine_ls_extinction_coef       0.15(3)
_refine_ls_extinction_expression Fc^*^=kFc[1+0.001xFc^2^\l^3^/sin(2\q)]^-1/4^
_refine_ls_extinction_method     'SHELXL-2018/3 (Sheldrick 2018)'
_refine_ls_goodness_of_fit_ref   1.179
_refine_ls_hydrogen_treatment    undef
_refine_ls_matrix_type           full
_refine_ls_number_parameters     17
_refine_ls_number_reflns         96
_refine_ls_number_restraints     8
_refine_ls_restrained_S_all      1.150
_refine_ls_R_factor_all          0.0477
_refine_ls_R_factor_gt           0.0446
_refine_ls_shift/su_max          0.000
_refine_ls_shift/su_mean         0.000
_refine_ls_structure_factor_coef Fsqd
_refine_ls_weighting_details
'w=1/[\s^2^(Fo^2^)+(0.1000P)^2^] where P=(Fo^2^+2Fc^2^)/3'
_refine_ls_weighting_scheme      calc
_refine_ls_wR_factor_gt          0.1365
_refine_ls_wR_factor_ref         0.1422
_reflns_Friedel_coverage         0.000
_reflns_number_gt                88
_reflns_number_total             95
_reflns_threshold_expression     'I > 2\s(I)'
_cod_data_source_file            d2cc02673b2.cif
_cod_data_source_block           t_CCDC2
_cod_original_cell_volume        334.834(14)
_cod_database_code               7130351
_shelx_shelxl_version_number     2018/3
_shelx_space_group_comment
;
The symmetry employed for this shelxl refinement is uniquely defined
by the following loop, which should always be used as a source of
symmetry information in preference to the above space-group names.
They are only intended as comments.
;
_olex2_refinement_description
;
1. Rigid bond restraints
 C1, C2
 with sigma for 1-2 distances of 0.05 and sigma for 1-3 distances of 0.05
 Br1, Br1A
 with sigma for 1-2 distances of 0.01 and sigma for 1-3 distances of 0.01
2. Uiso/Uaniso restraints and constraints
C1 \\sim C2: within 2A with sigma of 0.05 and sigma for terminal atoms of 0.1
within 2A
Br1 \\sim Br1A: within 2A with sigma of 0.01 and sigma for terminal atoms of
0.02 within 2A
3. Others
 Sof(Br1A)=0.0625*(1-FVAR(2))
 Sof(Br1)=0.0625*FVAR(2)
 Fixed Sof: C1(0.125) C2(0.125)
;
_shelx_res_file
;
TITL t in Pm-3m
    t.res
    created by SHELXL-2018/3 at 11:14:20 on 10-Jul-2022
CELL 1.54178 6.944 6.944 6.944 90 90 90
ZERR 3 0.0001 0.0001 0.0001 0 0 0
LATT 1
SYMM -X,-Y,+Z
SYMM -X,+Y,-Z
SYMM +X,-Y,-Z
SYMM +Z,+X,+Y
SYMM +Z,-X,-Y
SYMM -Z,-X,+Y
SYMM -Z,+X,-Y
SYMM +Y,+Z,+X
SYMM -Y,+Z,-X
SYMM +Y,-Z,-X
SYMM -Y,-Z,+X
SYMM +Y,+X,-Z
SYMM -Y,-X,-Z
SYMM +Y,-X,+Z
SYMM -Y,+X,+Z
SYMM +X,+Z,-Y
SYMM -X,+Z,+Y
SYMM -X,-Z,-Y
SYMM +X,-Z,+Y
SYMM +Z,+Y,-X
SYMM +Z,-Y,+X
SYMM -Z,+Y,+X
SYMM -Z,-Y,-X
SFAC C H N Br Rb
UNIT 3 3 3 3 3
DELU 0.05 0.05 C1 C2
DELU Br1 Br1A
SIMU 0.05 0.1 2 C1 C2
SIMU 0.01 0.02 2 Br1 Br1A

L.S. 24
PLAN  20
BOND $h
fmap 2
acta
REM <olex2.extras>
REM <HklSrc "%.\\t.hkl">
REM </olex2.extras>

WGHT    0.100000
EXTI    0.150694
FVAR       0.56027   0.05327
RB1   5    0.000000    0.000000    0.000000    10.02083    0.04855    0.04855 =
         0.04855    0.00000    0.00000    0.00000
PART 1
BR1   4    0.000000   -0.500000    0.000000    20.06250    0.03557
PART 0
PART 2
BR1A  4    0.062059   -0.500000    0.000000   -20.06250    0.05323
PART 0
C1    1    0.253522   -0.500000    0.407709    10.12500    0.28392    0.14886 =
         0.22626    0.00000   -0.12884    0.00000

C2    1    0.357968   -0.500000    0.357968    10.12500    0.24197    0.12839 =
         0.24197    0.00000   -0.15659    0.00000
HKLF 4




REM  t in Pm-3m
REM wR2 = 0.1422, GooF = S = 1.179, Restrained GooF = 1.150 for all data
REM R1 = 0.0446 for 88 Fo > 4sig(Fo) and 0.0477 for all 96 data
REM 17 parameters refined using 8 restraints

END

WGHT      0.0893      0.0000

REM Highest difference peak  0.905,  deepest hole -0.556,  1-sigma level  0.144
Q1    1   0.0000 -0.5000  0.5000  10.06250  0.05    0.87
Q2    1   0.2444 -0.7556  0.2444  10.16667  0.05    0.37
Q3    1   0.1023 -0.5000  0.1023  10.25000  0.05    0.29
Q4    1   0.0000  0.1277  0.1277  10.25000  0.05    0.22
Q5    1   0.1336 -0.6115  0.0000  10.50000  0.05    0.22
Q6    1   0.1408 -0.6053 -0.0704  11.00000  0.05    0.20
Q7    1   0.1110 -0.5600  0.1110  10.50000  0.05    0.20
Q8    1   0.0479 -0.7456  0.0000  10.50000  0.05    0.10
Q9    1   0.0891 -0.7435  0.0891  10.50000  0.05    0.08
Q10   1   0.1145 -0.6299  0.2682  11.00000  0.05    0.07
;
_shelx_res_checksum              76792
_shelx_hkl_file
;
   1   0   0  101.86    6.33
   1  -1   1  416.24   22.92
   1  -1   0  104.35    6.14
   1  -1   0   96.51    6.81
   2   0   0  906.89   53.70
   0   0   2 1000.00   52.54
   1  -2   1    2.50    0.72
   1  -1   2    2.03    0.59
   1  -2   0  454.19   24.64
  -1   0   2  415.87   23.95
   2  -1   0  426.56   25.32
   1  -2  -1    2.96    0.49
   2  -2   2  545.79   30.85
   1  -2   2  432.06   24.64
   2   2  -1  431.59   23.96
   2  -2   1  426.26   24.30
   2  -2   0  876.09   48.57
   0   0   3  262.33   14.39
   3   0   0  229.12   15.79
   3   1  -1   93.60    7.09
   1   3  -1  100.72    5.71
   1  -3   1  110.85    7.67
  -1   0   3    0.76    0.31
   3   1   0    0.69    0.62
   3  -1   0    0.69    0.68
   0  -1   3    0.59    0.44
   3  -1  -1   88.17    6.93
  -1  -1   3   94.19    6.11
   2  -2   3  155.04   10.29
   2  -3   2  157.27   10.67
   3   2  -1    7.10    1.34
   1  -2   3    4.39    1.10
   1  -3   2    4.80    1.29
   2  -3   1    3.97    1.07
   2   3  -1    4.26    0.73
   2  -3   0  217.73   12.67
  -2   0   3  204.09   11.77
   2  -3  -1    4.81    1.02
   3  -2  -1    5.11    1.35
   3   3  -3    7.70    1.52
   2  -3   3   17.98    2.59
   3   3  -2   14.21    1.99
   3   3  -1   26.59    2.64
   1  -3   3   28.92    3.40
   1  -3   3   29.87    2.37
   0  -3   3    0.12    0.70
   0  -3   3    0.04    0.23
  -1  -3   3   28.05    2.46
   3  -3  -1   31.30    3.32
   3   3   2   19.40    2.56
   3  -3  -2   11.91    2.19
   4   0   0  495.77   29.83
   1  -1   4   69.25    4.70
   1  -4   1   91.77    7.14
   4   1  -1   86.58    6.99
   1  -1   4   77.83    5.54
   1  -4   0  243.43   15.64
   0  -1   4  249.50   14.56
  -1   0   4  245.58   13.93
   4   0  -1  228.63   16.47
  -1  -1   4   76.41    5.41
   1   1   4   76.50    4.80
   4  -1  -1   77.67    7.25
   2  -4   2  380.25   20.15
   2  -4   2  308.53   21.73
   4   2  -2  340.24   22.06
   2  -4   1  164.83   12.82
   1  -4   2  205.83   11.85
   4   1  -2  211.28   14.28
   2  -1   4  205.78   11.59
   4   2  -1  206.05   13.50
   1  -4   2  227.75   14.55
   2   0   4  410.53   21.85
  -2   0   4  384.20   21.84
   4   0  -2  396.29   25.21
   0  -2   4  392.03   23.30
   0  -4   2  396.35   22.29
  -1  -4   2  193.49   12.20
  -1  -2   4  198.68   11.73
   4  -2  -1  204.72   14.24
   4  -1  -2  199.80   14.84
   2   4   1  200.72   12.71
   2   1   4  215.21   11.56
  -2  -1   4  194.14   12.24
  -1  -2   4  198.66   12.99
   4  -2  -2  345.47   23.38
  -2  -2   4  333.64   21.45
  -2  -4   2  317.35   20.96
   4   3  -3   43.96    4.78
   2  -3   4   67.83    6.32
   3  -2   4   74.73    5.00
   4   3  -2   61.31    5.92
   4   2  -3   71.29    6.90
   3  -4   2   78.88    4.97
   4  -2   3   81.72    4.90
   2  -4   3   70.39    6.71
   1  -4   3   55.78    5.64
   3  -1   4   49.63    3.57
   1  -3   4   55.34    5.26
   1  -4   3   48.01    3.89
   3  -4   1   58.48    3.70
   0  -4   3  101.51    6.98
   3   4   0   98.71    7.40
   0  -4   3  101.79    8.65
   3   0   4  110.99    6.43
   3   4   1   45.16    4.19
  -1  -4   3   48.84    4.15
   4   3   1   54.30    4.73
  -3  -1   4   54.09    4.17
  -1  -3   4   51.00    5.23
  -2  -4   3   70.03    5.92
  -2  -3   4   84.49    7.48
   4  -2  -3   77.48    8.26
  -3  -2   4   93.28    7.39
   4  -3  -2   71.23    7.08
   4   3   2   76.21    6.25
  -3  -3   4   68.33    7.55
   4  -3  -3   52.07    6.29
   4  -4   4   36.06    2.93
   4  -3   4   43.76    3.35
   2  -4   4  113.75    9.41
   4  -2   4  123.34    7.43
   1  -4   4  113.21    9.11
   4  -1   4  114.86    6.92
   4   4   0  135.50   10.07
   0  -4   4  151.37   11.39
   4   0   4  154.95    8.77
  -2  -4   4  118.15   10.03
  -3  -4   4   52.60    7.15
  -4  -3   4  166.86   16.84
   0   0   5   20.09    1.76
   1  -1   5    8.94    1.11
   1  -5   1   10.63    2.26
   5   1  -1   10.93    2.50
  -1   0   5    1.53    0.44
   0  -1   5    1.16    0.40
   1   0   5    1.15    0.40
   0  -1   5    0.84    0.52
   5   0  -1    1.56    1.22
   5  -1  -1   10.15    2.63
  -1  -1   5   10.32    1.53
  -1  -1   5   10.45    1.23
   2  -5   2   19.68    2.01
   2   5  -2   16.03    2.49
   5   2  -2   16.35    3.08
   2  -2   5   17.65    1.83
   2  -5   2   21.51    3.11
   1  -5   2    8.01    2.05
   2   5  -1    4.34    1.13
   1  -2   5    5.78    0.95
   2  -1   5    4.92    0.82
   1  -2   5    7.03    1.53
   5   1  -2    8.67    2.42
   2  -5   1    6.98    0.99
   1  -5   2    6.27    1.06
   0  -5   2   23.65    3.62
   2   0   5   22.54    1.93
   0  -2   5   19.59    2.03
   5   0  -2   26.47    4.55
   0  -2   5   25.00    2.92
   2   5   0   19.15    2.42
   0  -5   2   24.31    2.38
  -1  -2   5    5.46    1.31
  -1  -2   5    5.55    0.98
   5   2   1    8.07    1.68
   5  -1  -2    4.69    2.09
  -2  -1   5    5.70    0.98
  -2  -5   1    6.05    1.30
  -1  -5   2    5.41    1.18
  -2  -5   2   18.48    2.66
   5  -2  -2   20.18    4.11
  -2  -2   5   18.42    2.63
   5   2   2   22.44    2.73
   3   5  -3    3.98    1.31
   3  -3   5    3.55    0.78
   3  -5   2    5.73    0.93
   3  -2   5    3.83    0.78
   3   5  -2    4.10    1.22
   5   2  -3    5.15    1.85
   2  -5   3    3.24    1.30
   3  -5   1   -0.05    0.20
   1  -5   3   -0.07    0.24
   3   5  -1   -0.10    0.31
   1  -3   5    1.09    0.47
   5   1  -3   -0.29    1.02
   3  -1   5    0.13    0.20
   1  -5   3    0.18    0.62
   3  -5   0    0.47    0.29
   0  -5   3    0.32    0.43
   3   5   0    0.26    0.41
   0  -5   3    0.93    0.97
   5   0  -3    0.35    1.37
   0  -3   5    0.52    0.39
   3   0   5    0.37    0.26
   0  -3   5    1.55    0.94
  -3  -5   1   -0.14    0.37
   3   5   1    0.19    0.41
  -1  -5   3   -0.10    0.27
   5   3   1    0.33    0.55
  -1  -3   5    0.16    0.39
  -1  -5   3    0.55    1.08
  -1  -3   5    0.29    0.66
  -3  -5   2    5.22    1.58
   5   3   2    5.10    1.32
  -2  -5   3    5.19    1.42
   5  -2  -3    8.49    2.95
  -2  -3   5    6.05    1.79
   4   5  -4    8.11    1.60
   4  -5   4   11.33    1.28
   4   5  -3   11.13    2.10
   3  -4   5   13.41    1.60
   4  -3   5   13.89    1.46
   4   5  -2   10.10    1.91
   4  -2   5   11.46    1.29
   4   5  -1   14.61    2.23
   5   4  -1   17.25    2.52
   4  -1   5   17.36    1.62
   5   1  -4   19.29    4.40
   1  -4   5   17.14    2.81
   1  -5   4   13.75    2.69
   4   5   0   13.13    2.01
   0  -4   5   21.39    3.16
   0  -5   4   16.72    2.95
   5   0  -4   26.05    5.55
   0  -4   5   21.32    2.47
   5   4   1   13.68    2.09
  -1  -4   5   19.85    3.16
  -1  -5   4   17.69    3.10
  -1  -4   5   20.75    2.67
   4   5   1   12.98    2.02
   5   5  -4    2.23    0.70
   5   4  -5    3.70    1.01
   5   5  -3    7.93    1.54
   3  -5   5   12.70    1.36
   5   5  -2    1.41    0.72
   2  -5   5    2.95    0.76
   5   5  -1    4.54    1.14
   5   5   0    0.18    0.45
   0  -5   5    0.37    0.42
  -1  -5   5    5.33    1.37
   0   0   6  120.03    7.41
   1  -1   6   57.46    4.34
   1  -6   1   71.11    4.69
   0  -1   6   80.64    5.52
   1   0   6   76.65    5.33
  -1  -1   6   55.75    4.28
  -1  -6   1   67.67    4.79
   2  -6   2   68.43    4.85
   1  -2   6   71.80    5.48
   2  -1   6   77.83    5.40
   2  -6   1   89.99    5.67
   0  -2   6   82.11    5.89
   0  -6   2   86.51    7.89
   6   0  -2  107.33   10.54
   2   0   6   80.19    5.55
   0  -6   2  110.58    6.67
  -1  -6   2   96.44    6.60
   6   2   1   95.64    6.91
  -1  -6   2   72.79    7.39
  -1  -2   6   83.70    6.50
  -1  -2   6   73.53    5.74
  -2  -6   1   85.24    6.34
  -2  -6   2   62.16    5.31
   3  -3   6   25.99    2.26
   3  -2   6   34.36    2.71
   3   6  -2   30.07    3.29
   3  -6   1   46.35    3.16
   1  -6   3   41.61    3.35
   1  -3   6   37.13    3.25
   3  -1   6   34.28    2.83
   3   6  -1   28.71    3.35
   0  -6   3   47.15    4.05
   6   3   0   45.08    4.60
   0  -3   6   46.99    4.05
  -3  -6   0   51.23    4.43
   3  -6   0   54.72    3.71
   6   3   1   37.32    3.67
  -3  -6   1   35.02    3.84
  -1  -6   3   40.84    3.69
  -1  -3   6   33.58    3.35
   6   4  -4    3.01    0.91
   6   4  -3   14.54    2.23
   3  -4   6   18.82    1.63
   4   6  -3   12.51    1.70
   6   4  -2   16.21    2.38
   4   6  -2   14.59    2.02
   1  -4   6   46.99    3.60
   4   6  -1   33.36    3.45
   6   4   0   25.04    2.82
   0  -4   6   25.19    2.72
  -1  -4   6   44.71    4.01
   6   4   1   38.65    3.69
   3  -6   5   12.05    1.10
   3  -5   6   12.06    1.09
   5   6  -2    4.08    0.87
   6   5  -2    3.80    0.88
   2  -6   5    4.59    0.76
   2  -5   6    3.22    0.64
   1  -6   5   18.75    1.82
   1  -5   6   15.93    1.71
   6   5  -1   12.70    1.81
   0  -6   5    7.86    1.21
   0  -5   6    6.42    1.14
  -1  -6   5   16.64    1.82
  -1  -5   6   14.63    1.81
   1  -6   6   12.07    1.09
   0  -7   0    0.99    0.44
   1  -7   1    0.28    0.28
  -1  -7   0    0.06    0.23
   1  -7   0    0.05    0.21
   0  -7   1    0.43    0.35
  -1  -7   1    0.20    0.28
   2  -7   2    1.57    0.48
   2  -7   1    1.61    0.51
   1  -7   2    1.28    0.48
   7   2  -1    2.44    1.02
   1  -2   7    1.07    0.45
  -2  -7   0    1.85    0.66
   2  -7   0    1.54    0.49
   0  -7   2    1.57    0.56
   0  -2   7    1.03    0.46
   2  -7  -1    1.72    0.48
  -2  -7   1    1.24    0.56
  -1  -7   2    1.34    0.55
  -2  -7   2    1.72    0.66
   3  -3   7    4.69    0.66
  -3  -7  -2    0.86    0.35
   7   3  -2    1.14    0.68
  -3  -7  -1    2.60    0.66
   1  -3   7    2.59    0.67
  -3  -7   0    0.07    0.27
   7   3   0    0.40    0.44
   0  -3   7   -0.06    0.23
  -3  -7   1    2.92    0.79
   7   4  -3    3.70    0.76
   3  -7   4    2.94    0.44
   7   3  -4    3.18    0.89
   2  -4   7    0.48    0.26
   1  -4   7    4.14    0.76
   7   4  -1    4.42    0.94
   7   4   0    1.19    0.54
   0  -4   7    1.05    0.44
   0  -8   0   33.98    2.68
   1  -8   1   27.31    2.11
  -1  -8  -1   25.13    2.10
  -1  -8   0   24.69    2.12
   1  -8   0   26.19    2.08
   0  -8   1   22.97    2.00
   0  -8  -1   22.57    1.93
  -1  -8   1   28.62    2.24
   1  -8  -1   25.29    2.05
  -2  -8  -2   10.76    1.03
  -2  -8  -1   18.85    1.63
  -1  -8  -2   16.40    1.48
  -2  -8   0   21.63    1.80
   0  -8  -2   19.02    1.63
   1  -8  -2   16.20    1.35
  -1  -8  -3   12.47    1.05
   0  -8  -3    7.26    0.75
   1  -8  -3   12.11    0.97
   0   0   0    0.00    0.00
;
_shelx_hkl_checksum              25606
_olex2_submission_special_instructions 'No special instructions were received'
loop_
_space_group_symop_operation_xyz
'x, y, z'
'-x, -y, z'
'-x, y, -z'
'x, -y, -z'
'z, x, y'
'z, -x, -y'
'-z, -x, y'
'-z, x, -y'
'y, z, x'
'-y, z, -x'
'y, -z, -x'
'-y, -z, x'
'y, x, -z'
'-y, -x, -z'
'y, -x, z'
'-y, x, z'
'x, z, -y'
'-x, z, y'
'-x, -z, -y'
'x, -z, y'
'z, y, -x'
'z, -y, x'
'-z, y, x'
'-z, -y, -x'
'-x, -y, -z'
'x, y, -z'
'x, -y, z'
'-x, y, z'
'-z, -x, -y'
'-z, x, y'
'z, x, -y'
'z, -x, y'
'-y, -z, -x'
'y, -z, x'
'-y, z, x'
'y, z, -x'
'-y, -x, z'
'y, x, z'
'-y, x, -z'
'y, -x, -z'
'-x, -z, y'
'x, -z, -y'
'x, z, y'
'-x, z, -y'
'-z, -y, x'
'-z, y, -x'
'z, -y, -x'
'z, y, x'
loop_
_atom_site_label
_atom_site_type_symbol
_atom_site_fract_x
_atom_site_fract_y
_atom_site_fract_z
_atom_site_U_iso_or_equiv
_atom_site_adp_type
_atom_site_occupancy
_atom_site_site_symmetry_order
_atom_site_calc_flag
_atom_site_refinement_flags_posn
_atom_site_refinement_flags_adp
_atom_site_refinement_flags_occupancy
_atom_site_disorder_assembly
_atom_site_disorder_group
Rb1 Rb 0.000000 0.000000 0.000000 0.0486(15) Uani 1 48 d S T P . .
Br1 Br 0.000000 -0.500000 0.000000 0.036(10) Uiso 0.05(2) 16 d S TU P A 1
Br1A Br 0.0621(11) -0.500000 0.000000 0.0532(15) Uiso 0.237(5) 4 d S TU P A 2
C1 C 0.254(14) -0.500000 0.41(4) 0.22(5) Uani 0.25 2 d S TU P . .
C2 C 0.358(13) -0.500000 0.358(13) 0.20(6) Uani 0.5 4 d S TU P . .
loop_
_atom_site_aniso_label
_atom_site_aniso_U_11
_atom_site_aniso_U_22
_atom_site_aniso_U_33
_atom_site_aniso_U_23
_atom_site_aniso_U_13
_atom_site_aniso_U_12
Rb1 0.0486(15) 0.0486(15) 0.0486(15) 0.000 0.000 0.000
C1 0.28(9) 0.15(4) 0.23(8) 0.000 -0.13(12) 0.000
C2 0.24(9) 0.13(2) 0.24(9) 0.000 -0.16(10) 0.000
loop_
_atom_type_symbol
_atom_type_description
_atom_type_scat_dispersion_real
_atom_type_scat_dispersion_imag
_atom_type_scat_source
C C 0.0181 0.0091 'International Tables Vol C Tables 4.2.6.8 and 6.1.1.4'
H H 0.0000 0.0000 'International Tables Vol C Tables 4.2.6.8 and 6.1.1.4'
N N 0.0311 0.0180 'International Tables Vol C Tables 4.2.6.8 and 6.1.1.4'
Br Br -0.6763 1.2805 'International Tables Vol C Tables 4.2.6.8 and 6.1.1.4'
Rb Rb -0.4688 1.6079 'International Tables Vol C Tables 4.2.6.8 and 6.1.1.4'
loop_
_geom_angle_atom_site_label_1
_geom_angle_atom_site_label_2
_geom_angle_atom_site_label_3
_geom_angle
_geom_angle_site_symmetry_1
_geom_angle_site_symmetry_3
_geom_angle_publ_flag
Br1 Rb1 Br1 90.0 9_655 . ?
Br1 Rb1 Br1 90.0 1_565 5 ?
Br1 Rb1 Br1 90.0 1_565 5_556 ?
Br1 Rb1 Br1 90.0 9 5 ?
Br1 Rb1 Br1 90.0 . 5_556 ?
Br1 Rb1 Br1 90.0 9 5_556 ?
Br1 Rb1 Br1 90.0 9_655 1_565 ?
Br1 Rb1 Br1 180.0 9_655 9 ?
Br1 Rb1 Br1 180.0 . 1_565 ?
Br1 Rb1 Br1 90.0 9_655 5_556 ?
Br1 Rb1 Br1 90.0 9 1_565 ?
Br1 Rb1 Br1 90.0 . 9 ?
Br1 Rb1 Br1 90.0 9_655 5 ?
Br1 Rb1 Br1 90.0 . 5 ?
Br1 Rb1 Br1 180.0 5 5_556 ?
Br1 Rb1 Br1A 90.0 5 1_565 ?
Br1 Rb1 Br1A 90.0 9 21 ?
Br1 Rb1 Br1A 172.92(12) . 1_565 ?
Br1 Rb1 Br1A 97.08(12) 9_655 25_545 ?
Br1 Rb1 Br1A 97.08(12) 5_556 21 ?
Br1 Rb1 Br1A 82.92(12) 9 25_545 ?
Br1 Rb1 Br1A 82.92(12) 9_655 17 ?
Br1 Rb1 Br1A 90.0 5 25_545 ?
Br1 Rb1 Br1A 172.92(12) 1_565 21 ?
Br1 Rb1 Br1A 97.08(12) 9_655 41 ?
Br1 Rb1 Br1A 90.0 . 41 ?
Br1 Rb1 Br1A 82.92(12) 9 41 ?
Br1 Rb1 Br1A 90.0 1_565 41 ?
Br1 Rb1 Br1A 172.92(12) 5_556 41 ?
Br1 Rb1 Br1A 7.08(12) . 21 ?
Br1 Rb1 Br1A 90.0 9_655 45 ?
Br1 Rb1 Br1A 7.08(12) 1_565 1_565 ?
Br1 Rb1 Br1A 172.92(12) . 45 ?
Br1 Rb1 Br1A 97.08(12) 9 17 ?
Br1 Rb1 Br1A 90.0 9 45 ?
Br1 Rb1 Br1A 82.92(12) 9_655 1_565 ?
Br1 Rb1 Br1A 7.08(12) 1_565 45 ?
Br1 Rb1 Br1A 90.0 5_556 1_565 ?
Br1 Rb1 Br1A 97.08(12) 5 45 ?
Br1 Rb1 Br1A 82.92(12) 5 21 ?
Br1 Rb1 Br1A 82.92(12) 5_556 45 ?
Br1 Rb1 Br1A 7.08(12) . 25_545 ?
Br1 Rb1 Br1A 90.0 . 17 ?
Br1 Rb1 Br1A 97.08(12) 9 1_565 ?
Br1 Rb1 Br1A 90.0 1_565 17 ?
Br1 Rb1 Br1A 172.92(12) 1_565 25_545 ?
Br1 Rb1 Br1A 7.08(12) 5_556 17 ?
Br1 Rb1 Br1A 172.92(12) 5 17 ?
Br1 Rb1 Br1A 7.08(12) 5 41 ?
Br1 Rb1 Br1A 90.0 5_556 25_545 ?
Br1 Rb1 Br1A 90.0 9_655 21 ?
Br1A Rb1 Br1A 82.98(12) 21 41 ?
Br1A Rb1 Br1A 97.02(12) 21 17 ?
Br1A Rb1 Br1A 180.0(2) 41 17 ?
Br1A Rb1 Br1A 97.02(12) 45 41 ?
Br1A Rb1 Br1A 89.13(3) 25_545 41 ?
Br1A Rb1 Br1A 90.87(3) 25_545 17 ?
Br1A Rb1 Br1A 82.98(12) 45 17 ?
Br1A Rb1 Br1A 90.87(3) 1_565 41 ?
Br1A Rb1 Br1A 89.13(3) 1_565 17 ?
Rb1 Br1 Rb1 180.0 1_545 . ?
Rb1 Br1A Rb1 165.8(2) 1_545 . ?
Br1A Br1A Rb1 85.00(9) 45_545 . ?
Br1A Br1A Rb1 85.00(9) 21 . ?
Br1A Br1A Rb1 82.92(12) 25_545 . ?
C1 C1 C1 135.0 26_556 22_545 ?
C1 C1 C1 120.00(3) 42 22_545 ?
C1 C1 C1 120.00(3) 17_545 22_545 ?
C1 C1 C1 45.001(12) 42 26_556 ?
C1 C1 C1 45.001(16) 17_545 26_556 ?
C1 C1 C1 90.00(2) 42 17_545 ?
C1 C1 C2 100(10) 42 5_546 ?
C1 C1 C2 49.8(13) 42 26_556 ?
C1 C1 C2 118(7) 42 9_645 ?
C1 C1 C2 111(4) 22_545 26_556 ?
C1 C1 C2 62(10) 26_556 6 ?
C1 C1 C2 49.8(13) 17_545 26_556 ?
C1 C1 C2 100(9) 26_556 9_645 ?
C1 C1 C2 44(7) 22_545 34_655 ?
C1 C1 C2 44(7) 22_545 9_645 ?
C1 C1 C2 118(7) 17_545 34_655 ?
C1 C1 C2 100(9) 26_556 34_655 ?
C1 C1 C2 77(6) 17_545 9_645 ?
C1 C1 C2 34(6) 17_545 5_546 ?
C1 C1 C2 24(4) 26_556 26_556 ?
C1 C1 C2 62(10) 26_556 5_546 ?
C1 C1 C2 34(6) 42 6 ?
C1 C1 C2 77(6) 42 34_655 ?
C1 C1 C2 100(10) 17_545 6 ?
C2 C1 C1 108(10) . 17_545 ?
C2 C1 C1 108(10) . 42 ?
C2 C1 C1 20(10) . 22_545 ?
C2 C1 C1 88(7) 5_546 22_545 ?
C2 C1 C1 88(7) 6 22_545 ?
C2 C1 C1 115(10) . 26_556 ?
C2 C1 C2 91(10) 6 5_546 ?
C2 C1 C2 89(9) 6 9_645 ?
C2 C1 C2 32(6) . 9_645 ?
C2 C1 C2 91(10) . 26_556 ?
C2 C1 C2 44(3) 6 34_655 ?
C2 C1 C2 44(3) 5_546 9_645 ?
C2 C1 C2 79(9) 26_556 9_645 ?
C2 C1 C2 50(10) 5_546 26_556 ?
C2 C1 C2 74(10) . 6 ?
C2 C1 C2 32(6) . 34_655 ?
C2 C1 C2 79(9) 26_556 34_655 ?
C2 C1 C2 50(10) 6 26_556 ?
C2 C1 C2 89(9) 5_546 34_655 ?
C2 C1 C2 74(10) . 5_546 ?
C2 C1 C2 59(3) 34_655 9_645 ?
C1 C2 C1 41(10) 22_545 45_645 ?
C1 C2 C1 41(10) . 26_556 ?
C1 C2 C1 55(10) 42 17_545 ?
C1 C2 C1 39(10) 22_545 34_655 ?
C1 C2 C1 150(10) 22_545 17_545 ?
C1 C2 C1 150(10) . 34_655 ?
C1 C2 C1 138(7) 26_556 45_645 ?
C1 C2 C1 179(10) . 45_645 ?
C1 C2 C1 30(10) 42 26_556 ?
C1 C2 C1 140(8) 9_645 26_556 ?
C1 C2 C1 122(10) 34_655 42 ?
C1 C2 C1 140(8) 42 45_645 ?
C1 C2 C1 39(10) 22_545 9_645 ?
C1 C2 C1 140(8) 17_545 45_645 ?
C1 C2 C1 150(10) . 9_645 ?
C1 C2 C1 150(10) 22_545 42 ?
C1 C2 C1 55(10) 34_655 9_645 ?
C1 C2 C1 140(8) 34_655 26_556 ?
C1 C2 C1 165(10) 42 9_645 ?
C1 C2 C1 39(10) . 42 ?
C1 C2 C1 39(10) . 17_545 ?
C1 C2 C1 30(10) 34_655 45_645 ?
C1 C2 C1 30(10) 17_545 26_556 ?
C1 C2 C1 30(10) 9_645 45_645 ?
C1 C2 C1 179(10) 22_545 26_556 ?
C1 C2 C1 122(10) 9_645 17_545 ?
C1 C2 C1 165(10) 34_655 17_545 ?
C1 C2 C1 141(10) 22_545 . ?
C1 C2 C2 130(9) . 9_645 ?
C1 C2 C2 72(10) 22_545 34_655 ?
C1 C2 C2 92(7) 42 34_655 ?
C1 C2 C2 130(9) 22_545 6 ?
C1 C2 C2 34(6) 17_545 5_546 ?
C1 C2 C2 34(6) 34_655 34_655 ?
C1 C2 C2 134(9) 17_545 34_655 ?
C1 C2 C2 80(10) 34_655 9_645 ?
C1 C2 C2 92(7) 9_645 5_546 ?
C1 C2 C2 134(9) 9_645 6 ?
C1 C2 C2 72(10) . 6 ?
C1 C2 C2 134(9) 42 9_645 ?
C1 C2 C2 72(10) . 5_546 ?
C1 C2 C2 80(10) 9_645 34_655 ?
C1 C2 C2 134(9) 34_655 5_546 ?
C1 C2 C2 34(6) 9_645 9_645 ?
C1 C2 C2 80(10) 42 5_546 ?
C1 C2 C2 92(7) 34_655 6 ?
C1 C2 C2 80(10) 17_545 6 ?
C1 C2 C2 92(7) 17_545 9_645 ?
C1 C2 C2 130(9) . 34_655 ?
C1 C2 C2 72(10) 22_545 9_645 ?
C1 C2 C2 130(9) 22_545 5_546 ?
C1 C2 C2 34(6) 42 6 ?
C2 C2 C1 49.8(13) 6 26_556 ?
C2 C2 C1 107(2) 6 45_645 ?
C2 C2 C1 107(2) 34_655 26_556 ?
C2 C2 C1 49.8(13) 34_655 45_645 ?
C2 C2 C1 49.8(13) 5_546 26_556 ?
C2 C2 C1 49.8(13) 9_645 45_645 ?
C2 C2 C1 107(2) 9_645 26_556 ?
C2 C2 C1 107(2) 5_546 45_645 ?
C2 C2 C2 59.999(6) 9_645 5_546 ?
C2 C2 C2 120.0 6 9_645 ?
C2 C2 C2 89.999(6) 34_655 9_645 ?
C2 C2 C2 89.999(9) 6 5_546 ?
C2 C2 C2 120.0 34_655 5_546 ?
C2 C2 C2 59.999(9) 34_655 6 ?
loop_
_geom_bond_atom_site_label_1
_geom_bond_atom_site_label_2
_geom_bond_distance
_geom_bond_site_symmetry_2
_geom_bond_publ_flag
Rb1 Br1 3.47200(5) 9_655 ?
Rb1 Br1 3.47200(5) 9 ?
Rb1 Br1 3.47200(5) . ?
Rb1 Br1 3.47200(5) 5 ?
Rb1 Br1 3.47200(5) 1_565 ?
Rb1 Br1 3.47200(5) 5_556 ?
Rb1 Br1A 3.4986(9) 17 ?
Rb1 Br1A 3.4986(9) 45 ?
Rb1 Br1A 3.4986(9) 25_545 ?
Rb1 Br1A 3.4986(9) 41 ?
Rb1 Br1A 3.4986(9) 1_565 ?
Rb1 Br1A 3.4986(9) 21 ?
Br1A Br1A 0.609(11) 21 ?
Br1A Br1A 0.609(11) 45_545 ?
Br1A Br1A 0.862(15) 25_545 ?
C1 C1 0.9(3) 42 ?
C1 C1 0.9(3) 17_545 ?
C1 C1 1.3(5) 26_556 ?
C1 C1 1.5(4) 22_545 ?
C1 C2 2.01(15) 34_655 ?
C1 C2 1.38(8) 5_546 ?
C1 C2 1.78(17) 26_556 ?
C1 C2 2.01(15) 9_645 ?
C1 C2 1.38(8) 6 ?
C1 C2 0.80(14) . ?
C2 C2 1.39(12) 34_655 ?
C2 C2 1.39(12) 5_546 ?
C2 C2 1.39(12) 6 ?
C2 C2 1.39(12) 9_645 ?
