#------------------------------------------------------------------------------
#$Date: 2022-04-22 00:56:13 +0300 (Fri, 22 Apr 2022) $
#$Revision: 274624 $
#$URL: file:///home/coder/svn-repositories/cod/cif/7/13/00/7130003.cif $
#------------------------------------------------------------------------------
#
# This file is available in the Crystallography Open Database (COD),
# http://www.crystallography.net/
#
# All data on this site have been placed in the public domain by the
# contributors.
#
data_7130003
loop_
_publ_author_name
'Petrosova, Hanna R.'
'Kucheriv, Olesia I.'
'Shova, Sergiu'
'Gural'skiy, Il'ya A.'
_publ_section_title
;
 Aziridinium cation templating 3D lead halide hybrid perovskites
;
_journal_name_full               'Chemical Communications'
_journal_paper_doi               10.1039/D2CC01364A
_journal_year                    2022
_chemical_formula_moiety         'Cl3 Pb1, 0.167(C12), 0.083(N12)'
_chemical_formula_sum            'C2 Cl3 N Pb'
_chemical_formula_weight         351.57
_space_group_crystal_system      cubic
_space_group_IT_number           221
_space_group_name_Hall           '-P 4 2 3'
_space_group_name_H-M_alt        'P m -3 m'
_audit_creation_date             2022-02-07
_audit_creation_method
;
Olex2 1.5
(compiled 2021.12.09 svn.r5202d8cf for OlexSys, GUI svn.r6439)
;
_audit_update_record
;
2022-02-18 deposited with the CCDC.	2022-03-30 downloaded from the CCDC.
;
_cell_angle_alpha                90
_cell_angle_beta                 90
_cell_angle_gamma                90
_cell_formula_units_Z            1
_cell_length_a                   5.7610(2)
_cell_length_b                   5.7610(2)
_cell_length_c                   5.7610(2)
_cell_measurement_reflns_used    194
_cell_measurement_temperature    293
_cell_measurement_theta_max      28.7440
_cell_measurement_theta_min      3.5280
_cell_volume                     191.203(11)
_computing_cell_refinement       'CrysAlisPro 1.171.41.93a (Rigaku OD, 2020)'
_computing_data_collection       'CrysAlisPro 1.171.41.93a (Rigaku OD, 2020)'
_computing_data_reduction        'CrysAlisPro 1.171.41.93a (Rigaku OD, 2020)'
_computing_molecular_graphics    'Olex2 1.5 (Dolomanov et al., 2009)'
_computing_publication_material  'Olex2 1.5 (Dolomanov et al., 2009)'
_computing_structure_refinement  'SHELXL 2018/3 (Sheldrick, 2015)'
_computing_structure_solution    'SHELXT 2018/2 (Sheldrick, 2018)'
_diffrn_ambient_temperature      293.00
_diffrn_detector_area_resol_mean 16.1593
_diffrn_detector_type            Eos
_diffrn_measured_fraction_theta_full 1.000
_diffrn_measured_fraction_theta_max 0.934
_diffrn_measurement_details
;
List of Runs (angles in degrees, time in seconds):

  # Type    Start    End  Width  t~exp~   \w     \q     \k     \f   Frames
#--------------------------------------------------------------------------
  1  \w      2.00  52.00   1.00   10.00    --   17.71-118.00 -95.00   50
;
_diffrn_measurement_device       'four-circle diffractometer'
_diffrn_measurement_device_type  'Xcalibur, Eos'
_diffrn_measurement_method       '\w scans'
_diffrn_radiation_type           MoK\a
_diffrn_radiation_wavelength     0.71073
_diffrn_reflns_av_R_equivalents  0.0309
_diffrn_reflns_av_unetI/netI     0.0335
_diffrn_reflns_Laue_measured_fraction_full 1.000
_diffrn_reflns_Laue_measured_fraction_max 0.934
_diffrn_reflns_limit_h_max       2
_diffrn_reflns_limit_h_min       -7
_diffrn_reflns_limit_k_max       7
_diffrn_reflns_limit_k_min       -4
_diffrn_reflns_limit_l_max       4
_diffrn_reflns_limit_l_min       -4
_diffrn_reflns_number            215
_diffrn_reflns_point_group_measured_fraction_full 1.000
_diffrn_reflns_point_group_measured_fraction_max 0.934
_diffrn_reflns_theta_full        25.242
_diffrn_reflns_theta_max         28.801
_diffrn_reflns_theta_min         3.537
_exptl_absorpt_coefficient_mu    23.000
_exptl_absorpt_correction_T_max  0.115
_exptl_absorpt_correction_T_min  0.068
_exptl_absorpt_correction_type   analytical
_exptl_absorpt_process_details
;
CrysAlisPro 1.171.41.93a (Rigaku Oxford Diffraction, 2020)
Analytical numeric absorption correction using a multifaceted crystal
model based on expressions derived by R.C. Clark & J.S. Reid.
(Clark, R. C. & Reid, J. S. (1995). Acta Cryst. A51, 887-897)
Empirical absorption correction using spherical harmonics,
implemented in SCALE3 ABSPACK scaling algorithm.
;
_exptl_crystal_colour            'clear colourless'
_exptl_crystal_colour_lustre     clear
_exptl_crystal_colour_primary    colourless
_exptl_crystal_density_diffrn    3.053
_exptl_crystal_description       prism
_exptl_crystal_F_000             152
_exptl_crystal_size_max          0.14
_exptl_crystal_size_mid          0.11
_exptl_crystal_size_min          0.1
_refine_diff_density_max         0.829
_refine_diff_density_min         -1.492
_refine_diff_density_rms         0.154
_refine_ls_extinction_coef       0.105(12)
_refine_ls_extinction_expression Fc^*^=kFc[1+0.001xFc^2^\l^3^/sin(2\q)]^-1/4^
_refine_ls_extinction_method     'SHELXL-2018/3 (Sheldrick 2018)'
_refine_ls_goodness_of_fit_ref   1.170
_refine_ls_hydrogen_treatment    undef
_refine_ls_matrix_type           full
_refine_ls_number_parameters     7
_refine_ls_number_reflns         71
_refine_ls_number_restraints     0
_refine_ls_restrained_S_all      1.170
_refine_ls_R_factor_all          0.0199
_refine_ls_R_factor_gt           0.0199
_refine_ls_shift/su_max          0.000
_refine_ls_shift/su_mean         0.000
_refine_ls_structure_factor_coef Fsqd
_refine_ls_weighting_details
'w=1/[\s^2^(Fo^2^)+(0.0118P)^2^+0.3647P] where P=(Fo^2^+2Fc^2^)/3'
_refine_ls_weighting_scheme      calc
_refine_ls_wR_factor_gt          0.0431
_refine_ls_wR_factor_ref         0.0431
_reflns_Friedel_coverage         0.000
_reflns_number_gt                71
_reflns_number_total             71
_reflns_threshold_expression     'I > 2\s(I)'
_cod_data_source_file            d2cc01364a2.cif
_cod_data_source_block           shi_5625_ilgu_auto
_cod_original_cell_volume        191.20(2)
_cod_database_code               7130003
_shelx_shelxl_version_number     2018/3
_shelx_space_group_comment
;
The symmetry employed for this shelxl refinement is uniquely defined
by the following loop, which should always be used as a source of
symmetry information in preference to the above space-group names.
They are only intended as comments.
;
_shelx_estimated_absorpt_t_max   0.207
_shelx_estimated_absorpt_t_min   0.141
_olex2_refinement_description
;
1. Shared sites
{C1, N1}
2. Uiso/Uaniso restraints and constraints
: with sigma of 0.001 and sigma for terminal atoms of 0.002
Uiso(C1) = Uiso(N1)
3. Others
 Fixed Sof: C1(0.04167) N1(0.02083)
;
_shelx_res_file
;
TITL shi_5625_ilgu_auto_a.res in Pm-3m
    shi_5625_ilgu_auto.res
    created by SHELXL-2018/3 at 13:27:00 on 07-Feb-2022
REM Old TITL shi_5625_ilgu_auto_b.res in P-43m
REM SHELXT solution in Pm-3m: R1 0.055, Rweak 0.502, Alpha 0.013
REM <I/s> 0.000 for 0 systematic absences, Orientation as input
REM Formula found by SHELXT: Cl3 Pb
CELL 0.71073 5.761 5.761 5.761 90 90 90
ZERR 1 0.0002 0.0002 0.0002 0 0 0
LATT 1
SYMM -X,-Y,+Z
SYMM -X,+Y,-Z
SYMM +X,-Y,-Z
SYMM +Z,+X,+Y
SYMM +Z,-X,-Y
SYMM -Z,-X,+Y
SYMM -Z,+X,-Y
SYMM +Y,+Z,+X
SYMM -Y,+Z,-X
SYMM +Y,-Z,-X
SYMM -Y,-Z,+X
SYMM +Y,+X,-Z
SYMM -Y,-X,-Z
SYMM +Y,-X,+Z
SYMM -Y,+X,+Z
SYMM +X,+Z,-Y
SYMM -X,+Z,+Y
SYMM -X,-Z,-Y
SYMM +X,-Z,+Y
SYMM +Z,+Y,-X
SYMM +Z,-Y,+X
SYMM -Z,+Y,+X
SYMM -Z,-Y,-X
SFAC C Cl N Pb
UNIT 2 3 1 1
EQIV $1 +Y,-X,+Z
ISOR 0.001 0.002 C1
EADP C1 N1
EXYZ C1 N1

L.S. 10
PLAN  5
SIZE 0.1 0.11 0.14
TEMP 19.85
CONF
BIND Pb1 Cl1_$1
LIST 4
MORE -1
fmap 2
acta
REM <olex2.extras>
REM <HklSrc "%.\\shI_5625_IlGu_auto.hkl">
REM </olex2.extras>

WGHT    0.011800    0.364700
EXTI    0.104612
FVAR       1.20871
PB1   4    0.500000    0.500000    0.500000    10.02083    0.02305    0.02305 =
         0.02305    0.00000    0.00000    0.00000
CL1   2    0.500000    0.000000    0.500000    10.06250    0.08532    0.02782 =
         0.08532    0.00000    0.00000    0.00000
PART 2
C1    1    0.000000    0.897416    0.897416    10.04167    0.11592
PART 1
N1    3    0.000000    0.897416    0.897416    10.02083    0.11592
HKLF 4




REM  shi_5625_ilgu_auto_a.res in Pm-3m
REM wR2 = 0.0431, GooF = S = 1.170, Restrained GooF = 1.170 for all data
REM R1 = 0.0199 for 71 Fo > 4sig(Fo) and 0.0199 for all 71 data
REM 7 parameters refined using 0 restraints

END

WGHT      0.0118      0.3643

REM Highest difference peak  0.829,  deepest hole -1.492,  1-sigma level  0.154
Q1    1   0.0000  1.0000  0.8392  10.12500  0.05    0.83
Q2    1   0.5000  0.2470  0.5000  10.12500  0.05    0.51
Q3    1   0.0000  0.8294  0.7139  10.50000  0.05    0.33
Q4    1   0.2368  0.1082  0.5000  10.50000  0.05    0.31
Q5    1  -0.0738  0.7158  0.8578  11.00000  0.05    0.30
;
_shelx_res_checksum              68431
_shelx_hkl_file
;
   0   1   0 5409.56  182.81
   0  -1   0 4937.21  182.81
   0  -1   1 4656.72  161.79
  -1   0  -1 4290.27  157.17
   1   0   1 4474.61  157.21
   1  -1   1  833.22   37.58
  -1   1  -1  801.90   37.71
   0   2   0 9999.00  345.56
   0  -2   0 9544.71  345.96
  -1  -2   0 5440.88  198.84
   0  -1   2 5541.72  204.27
   0   2  -1 5461.05  202.35
  -1   2   0 5613.15  202.50
   0  -2   1 5862.64  203.90
   1   0   2 5387.16  198.72
   1  -1   2 3658.71  144.25
  -1   1  -2 3790.63  145.05
  -2   1  -1 3584.43  144.05
  -1   2  -1 3951.68  145.81
   1   2   1 3907.37  136.33
  -1  -2   1 3909.02  145.58
   1  -2   1 3952.67  146.04
  -2   0  -2 6754.87  241.86
   2  -1   2 4711.95  181.38
  -2   2  -1 5170.60  186.49
  -2  -2  -1 4967.00  171.95
  -2   1  -2 4782.74  182.24
  -1   2  -2 4642.76  184.00
  -2   2  -2 5825.92  219.70
   0   3   0 4555.81  172.91
   0  -3   0 4736.75  174.20
   0   3  -1 2980.40  113.07
  -1   3   0 2843.60  112.82
   1   0   3 2746.19  108.77
  -1  -3   0 2806.05  108.63
   0   3   1 2722.89  108.07
  -1   3  -1 1541.83   69.78
  -3   1  -1 1559.27   69.65
   1   3   1 1501.74   60.86
  -2  -3   0 3687.00  138.69
  -2   3   0 3693.34  146.48
   2   0   3 3886.09  138.97
  -3   0  -2 3491.81  138.25
  -3  -1  -2 2380.95   86.03
   2   1   3 2394.97   86.33
  -1   3  -2 2340.11  100.10
  -3   1  -2 2213.34   95.61
  -3   2  -1 2209.53   99.23
  -2   3  -1 2200.07   99.76
  -2   1  -3 2336.99   96.59
   1   3   2 2209.95   85.81
  -2  -3  -1 2358.34   86.39
  -3   2  -2 2986.35  125.18
  -2   2  -3 3004.15  125.17
  -2   3  -2 3059.32  127.12
  -3   3   0 1822.32   85.26
  -3   0  -3 1782.87   73.28
  -3  -3   0 1684.33   72.64
  -3   1  -3 1244.98   62.03
  -3  -3  -1 1350.22   51.41
  -3   3  -1 1193.14   67.94
  -2   3  -3 1523.59   77.99
  -3   2  -3 1505.57   75.70
  -3   3  -2 1569.65   78.35
  -3   3  -3 1085.03   65.19
   0   4   0 4670.58  178.65
   0   4  -1 3385.58  135.49
   0   4   1 3428.10  131.08
  -1   4   0 3247.98  134.67
  -1   4   1 2408.91  101.12
   1   4   1 2315.12   93.30
  -1   4  -1 2413.64  104.47
   0   4   2 3833.24  141.19
  -2  -4   0 3518.13  140.11
  -2   4   0 3570.97  149.52
  -4   0  -2 3608.12  141.72
  -4   2  -1 2826.98  120.65
  -2   4   1 2779.63  118.27
  -2   4  -1 2654.42  119.08
   2   1   4 2826.87  106.02
  -1   4  -2 2800.42  120.34
  -1   4   2 2701.66  113.90
  -4  -1  -2 2689.44  106.05
   1   4   2 2847.15  105.74
  -4   1  -2 2710.62  116.23
  -4   2  -2 2721.86  123.30
  -2   4  -2 2990.61  126.81
  -3   4   0 2196.86  102.50
  -4   0  -3 2260.50   90.56
   0   4   3 2084.02   89.19
  -4   3  -1 1566.96   82.24
  -3   4  -1 1440.97   80.27
   1   4   3 1532.43   61.58
  -4   1  -3 1560.09   74.27
  -4  -1  -3 1531.66   61.58
  -3   4   1 1548.25   79.93
  -3   2  -4 1927.21   90.43
  -2   4  -3 1841.29   93.68
  -4   3  -2 1786.70   91.56
  -4   2  -3 1858.72   90.01
  -3   4  -2 1836.57   93.18
  -3   3  -4  991.81   65.87
  -3   4  -3 1002.99   67.80
  -4   4   0 1907.83   98.28
  -4   1  -4 1591.18   76.23
  -4   4  -1 1560.78   87.00
  -4   4  -2 1417.78   83.60
  -4   2  -4 1529.18   79.08
  -3   4  -4  980.38   69.12
  -4   3  -4 1058.82   67.48
  -4   4  -3 1085.35   71.34
  -4   4  -4  886.72   69.00
   0   5   0 1666.41   78.77
  -1   5   0 1203.42   66.32
   0   5  -1 1182.10   66.29
   0   5   1 1318.80   63.31
   1   5   1  906.53   47.96
  -1   5   1  923.61   54.02
  -1   5  -1  930.44   58.57
  -5   0  -2 1427.10   71.11
   0   5   2 1582.37   69.79
  -2   5   0 1419.14   77.15
  -2   5   1 1155.45   66.86
  -1   5   2 1097.93   60.85
  -5  -1  -2 1135.54   53.83
  -5   2  -1 1177.36   68.70
  -1   5  -2 1184.35   68.22
   1   5   2 1019.89   51.26
  -2   5  -1 1108.84   68.05
  -5   1  -2 1123.72   64.22
  -2   5  -2 1262.09   73.18
  -5   2  -2 1274.86   72.62
  -2   5   2 1205.02   68.05
  -3   5   0  896.39   61.56
   0   5   3  970.76   49.75
  -5   0  -3  915.27   50.50
  -1   5   3  785.41   48.57
  -3   5  -1  651.85   55.03
  -5   3  -1  821.28   60.56
  -3   5   1  732.61   56.56
  -5   1  -3  860.92   51.22
  -2   5  -3  780.23   58.87
  -3   5   2  852.72   57.61
  -5   3  -2  762.36   58.24
  -3   5  -2  846.25   61.44
  -5   2  -3  772.82   56.17
  -3   5  -3  640.38   54.90
  -5   3  -3  576.82   57.11
  -5   4   0 1076.59   71.00
  -4   5   0  922.52   67.20
  -4   5  -1  804.49   62.00
  -4   5   1  732.66   60.21
  -5   4  -1  875.38   63.41
  -5   4  -2  786.86   65.18
  -5   2  -4  767.70   56.90
  -4   5   2  895.85   66.95
  -4   5  -2  837.19   68.08
  -5   3  -4  617.71   53.56
  -5   4  -3  535.80   58.53
  -4   5  -3  598.40   62.02
  -3   5  -4  516.43   59.40
  -5   4  -4  474.27   52.44
  -5   5   0  617.73   57.31
  -5   5   1  477.15   55.43
  -5   5  -1  495.93   52.01
   0   6   0 1478.89   75.57
   0   6  -1 1334.96   75.69
   0   6   1 1400.16   71.31
  -1   6   0 1345.20   76.00
  -1   6   1 1124.25   62.61
  -1   6  -1  990.57   64.87
  -2   6   0 1403.19   79.22
   0   6   2 1384.85   69.33
  -6   2  -1 1152.87   72.93
  -1   6   2 1132.17   63.96
  -1   6  -2 1025.97   71.42
  -2   6   1 1111.86   67.61
  -2   6  -1 1184.85   75.69
  -6   1  -2 1184.97   68.77
  -2   6  -2  940.63   69.61
  -6   2  -2 1023.39   68.65
  -2   6   2 1040.40   64.64
  -3   6   0  856.94   63.76
  -6   3   0  989.87   71.50
  -3   6   1  656.09   56.45
  -1   6   3  748.45   50.98
  -3   6  -1  789.54   61.74
  -6   2  -3  743.29   56.30
  -3   6   2  770.97   63.65
  -2   6  -3  886.66   70.05
  -2   6   3  737.02   55.45
  -6   3  -2  706.87   63.84
  -3   6  -2  796.04   64.24
  -3   6   3  594.96   54.53
  -6   3  -3  638.36   59.73
  -4   6   0  877.21   70.41
  -6   4   0  839.51   71.66
  -6   4  -1  683.47   63.96
  -4   6   1  692.34   64.52
  -2   6   4  665.63   54.16
  -6   3  -4  366.52   51.50
  -3   6   4  467.37   50.65
   0   7   0  632.23   52.58
   0   7   1  552.56   44.74
  -1   7   0  456.72   47.02
  -1   7  -1  379.60   48.44
  -7   1  -1  367.38   44.09
  -1   7   1  432.53   44.03
  -2   7   0  346.87   45.54
  -2   7  -1  439.44   53.13
  -1   7   2  411.54   42.20
  -2   7   1  320.80   46.57
  -7   2  -1  351.29   49.70
  -2   7   2  446.18   45.78
  -7   2  -2  405.85   50.41
   0   0   0    0.00    0.00




TITL shI_5625_IlGu_auto in Pm-3m
REM Pm-3m (#221 in standard setting)
CELL 0.71073   5.761030   5.761030   5.761030  90.0000  90.0000  90.0000
ZERR    2.00   0.000222   0.000222   0.000222   0.0000   0.0000   0.0000
LATT  1
SYMM -x,-y, z
SYMM -x, y,-z
SYMM  x,-y,-z
SYMM  z, x, y
SYMM  z,-x,-y
SYMM -z,-x, y
SYMM -z, x,-y
SYMM  y, z, x
SYMM -y, z,-x
SYMM  y,-z,-x
SYMM -y,-z, x
SYMM  y, x,-z
SYMM -y,-x,-z
SYMM  y,-x, z
SYMM -y, x, z
SYMM  x, z,-y
SYMM -x, z, y
SYMM -x,-z,-y
SYMM  x,-z, y
SYMM  z, y,-x
SYMM  z,-y, x
SYMM -z, y, x
SYMM -z,-y,-x
SFAC C H N Cl Pb
UNIT 4.00 12.00 2.00 6.00 2.00
SIZE 0.10 0.11 0.14
TREF
HKLF 4
END
_computing_structure_solution     'SHELXT 2018/2 (Sheldrick, 2018)'
_computing_structure_solution     'SHELXT 2018/2 (Sheldrick, 2018)'
_computing_structure_solution     'SHELXT 2018/2 (Sheldrick, 2018)'
;
_shelx_hkl_checksum              71115
_olex2_submission_special_instructions 'No special instructions were received'
_oxdiff_exptl_absorpt_empirical_details
;
Empirical correction (ABSPACK) includes:
- Absorption correction using spherical harmonics
- Frame scaling
;
loop_
_space_group_symop_operation_xyz
'x, y, z'
'-x, -y, z'
'-x, y, -z'
'x, -y, -z'
'z, x, y'
'z, -x, -y'
'-z, -x, y'
'-z, x, -y'
'y, z, x'
'-y, z, -x'
'y, -z, -x'
'-y, -z, x'
'y, x, -z'
'-y, -x, -z'
'y, -x, z'
'-y, x, z'
'x, z, -y'
'-x, z, y'
'-x, -z, -y'
'x, -z, y'
'z, y, -x'
'z, -y, x'
'-z, y, x'
'-z, -y, -x'
'-x, -y, -z'
'x, y, -z'
'x, -y, z'
'-x, y, z'
'-z, -x, -y'
'-z, x, y'
'z, x, -y'
'z, -x, y'
'-y, -z, -x'
'y, -z, x'
'-y, z, x'
'y, z, -x'
'-y, -x, z'
'y, x, z'
'-y, x, -z'
'y, -x, -z'
'-x, -z, y'
'x, -z, -y'
'x, z, y'
'-x, z, -y'
'-z, -y, x'
'-z, y, -x'
'z, -y, -x'
'z, y, x'
loop_
_atom_site_label
_atom_site_type_symbol
_atom_site_fract_x
_atom_site_fract_y
_atom_site_fract_z
_atom_site_U_iso_or_equiv
_atom_site_adp_type
_atom_site_occupancy
_atom_site_site_symmetry_order
_atom_site_calc_flag
_atom_site_refinement_flags_posn
_atom_site_refinement_flags_adp
_atom_site_refinement_flags_occupancy
_atom_site_disorder_assembly
_atom_site_disorder_group
Pb1 Pb 0.500000 0.500000 0.500000 0.0230(5) Uani 1 48 d S T P . .
Cl1 Cl 0.500000 0.000000 0.500000 0.0662(17) Uani 1 16 d S T P . .
C1 C 0.000000 0.897(6) 0.897(6) 0.12(3) Uiso 0.1667 4 d S . P . 2
N1 N 0.000000 0.897(6) 0.897(6) 0.12(3) Uiso 0.0833 4 d S . P A 1
loop_
_atom_site_aniso_label
_atom_site_aniso_U_11
_atom_site_aniso_U_22
_atom_site_aniso_U_33
_atom_site_aniso_U_23
_atom_site_aniso_U_13
_atom_site_aniso_U_12
Pb1 0.0230(5) 0.0230(5) 0.0230(5) 0.000 0.000 0.000
Cl1 0.085(3) 0.028(2) 0.085(3) 0.000 0.000 0.000
loop_
_atom_type_symbol
_atom_type_description
_atom_type_scat_dispersion_real
_atom_type_scat_dispersion_imag
_atom_type_scat_source
C C 0.0033 0.0016 'International Tables Vol C Tables 4.2.6.8 and 6.1.1.4'
Cl Cl 0.1484 0.1585 'International Tables Vol C Tables 4.2.6.8 and 6.1.1.4'
N N 0.0061 0.0033 'International Tables Vol C Tables 4.2.6.8 and 6.1.1.4'
Pb Pb -3.3944 10.1111 'International Tables Vol C Tables 4.2.6.8 and 6.1.1.4'
loop_
_exptl_crystal_face_index_h
_exptl_crystal_face_index_k
_exptl_crystal_face_index_l
_exptl_crystal_face_perp_dist
-2 8 -1 0.0565
1 0 -8 0.0556
-1 0 8 0.0483
-2 7 4 0.0491
4 7 1 0.0484
-4 0 -7 0.0615
5 2 6 0.0602
-1 -7 5 0.0549
8 2 -2 0.0566
-8 -1 0 0.0469
2 -8 -1 0.0685
-5 -6 -3 0.0557
7 -4 -2 0.0703
-6 5 -1 0.0549
7 0 -3 0.0535
loop_
_geom_angle_atom_site_label_1
_geom_angle_atom_site_label_2
_geom_angle_atom_site_label_3
_geom_angle
_geom_angle_site_symmetry_1
_geom_angle_site_symmetry_3
_geom_angle_publ_flag
Cl1 Pb1 Cl1 90.0 9_655 . ?
Cl1 Pb1 Cl1 26.6 . 15 ?
Cl1 Pb1 Cl1 90.0 1_565 9 ?
Cl1 Pb1 Cl1 90.0 9_655 1_565 ?
Cl1 Pb1 Cl1 63.4 9 15 ?
Cl1 Pb1 Cl1 180.0 . 1_565 ?
Cl1 Pb1 Cl1 90.0 5_556 9 ?
Cl1 Pb1 Cl1 90.0 9_655 5 ?
Cl1 Pb1 Cl1 90.0 5 15 ?
Cl1 Pb1 Cl1 90.0 . 5 ?
Cl1 Pb1 Cl1 90.0 . 9 ?
Cl1 Pb1 Cl1 90.0 1_565 5 ?
Cl1 Pb1 Cl1 90.0 5 9 ?
Cl1 Pb1 Cl1 90.0 9_655 5_556 ?
Cl1 Pb1 Cl1 116.6 9_655 15 ?
Cl1 Pb1 Cl1 90.0 . 5_556 ?
Cl1 Pb1 Cl1 153.4 1_565 15 ?
Cl1 Pb1 Cl1 90.0 1_565 5_556 ?
Cl1 Pb1 Cl1 90.0 5_556 15 ?
Cl1 Pb1 Cl1 180.0 5 5_556 ?
Cl1 Pb1 Cl1 180.0 9_655 9 ?
Pb1 Cl1 Pb1 180.0 1_545 . ?
C1 C1 C1 33.557(1) 33_676 29_667 ?
C1 C1 C1 30.000(7) 10_656 29_667 ?
C1 C1 C1 73.22(3) 5_465 33_676 ?
C1 C1 C1 73.221(11) 30_665 34_476 ?
C1 C1 C1 35.264(1) 26_557 29_667 ?
C1 C1 C1 54.735(14) 9_456 34_476 ?
C1 C1 C1 65.905(11) 26_557 33_676 ?
C1 C1 C1 35.264(15) 2_575 34_476 ?
C1 C1 C1 90.000(18) 5_465 29_667 ?
C1 C1 C1 60.000(8) 29_667 34_476 ?
C1 C1 C1 30.000(4) 30_665 33_676 ?
C1 C1 C1 90.000(10) 30_665 6_467 ?
C1 C1 C1 90.00(2) 9_456 33_676 ?
C1 C1 C1 30.00(2) 9_456 6_467 ?
C1 C1 C1 35.264(1) 2_575 33_676 ?
C1 C1 C1 65.905(11) 2_575 6_467 ?
C1 C1 C1 54.735(3) 30_665 29_667 ?
C1 C1 C1 48.190(1) 29_667 6_467 ?
C1 C1 C1 73.22(3) 9_456 29_667 ?
C1 C1 C1 45.00(2) 9_456 26_557 ?
C1 C1 C1 65.905(11) 2_575 29_667 ?
C1 C1 C1 54.735(2) 10_656 33_676 ?
C1 C1 C1 90.000(1) 10_656 34_476 ?
C1 C1 C1 60.000(1) 10_656 30_665 ?
C1 C1 C1 30.000(11) 5_465 34_476 ?
C1 C1 C1 120.000(18) 10_656 5_465 ?
C1 C1 C1 65.9 26_557 34_476 ?
C1 C1 C1 90.000(18) 30_665 5_465 ?
C1 C1 C1 48.2 33_676 34_476 ?
C1 C1 C1 90.000(1) 10_656 9_456 ?
C1 C1 C1 73.221(8) 10_656 6_467 ?
C1 C1 C1 120.00(2) 30_665 9_456 ?
C1 C1 C1 54.735(3) 5_465 6_467 ?
C1 C1 C1 60.000(6) 5_465 9_456 ?
C1 C1 C1 35.264(6) 26_557 6_467 ?
C1 C1 C1 45.000(4) 10_656 26_557 ?
C1 C1 C1 60.000(15) 33_676 6_467 ?
C1 C1 C1 90.000(1) 30_665 26_557 ?
C1 C1 C1 33.557(3) 34_476 6_467 ?
C1 C1 C1 90.000(6) 5_465 26_557 ?
loop_
_geom_bond_atom_site_label_1
_geom_bond_atom_site_label_2
_geom_bond_distance
_geom_bond_site_symmetry_2
_geom_bond_publ_flag
Pb1 Cl1 2.88050(10) 9_655 ?
Pb1 Cl1 2.88050(10) 5_556 ?
Pb1 Cl1 2.88050(10) 5 ?
Pb1 Cl1 2.88050(10) . ?
Pb1 Cl1 2.88050(10) 9 ?
Pb1 Cl1 2.88050(10) 1_565 ?
Pb1 Cl1 6.4410(2) 15 ?
C1 C1 1.45(8) 29_667 ?
C1 C1 1.18(6) 26_557 ?
C1 C1 1.45(8) 33_676 ?
C1 C1 1.45(8) 6_467 ?
C1 C1 1.18(6) 2_575 ?
C1 C1 0.84(5) 5_465 ?
C1 C1 0.84(5) 9_456 ?
C1 C1 1.45(8) 34_476 ?
C1 C1 0.84(5) 10_656 ?
C1 C1 1.67(9) 25_577 ?
C1 C1 0.84(5) 30_665 ?
