#------------------------------------------------------------------------------
#$Date: 2016-02-14 06:40:26 +0200 (Sun, 14 Feb 2016) $
#$Revision: 176432 $
#$URL: svn://www.crystallography.net/cod/cif/7/20/86/7208608.cif $
#------------------------------------------------------------------------------
#
# This file is available in the Crystallography Open Database (COD),
# http://www.crystallography.net/
#
# All data on this site have been placed in the public domain by the
# contributors.
#
data_7208608
loop_
_publ_author_name
'Yoshida, Hiroyuki'
'Michiue, Yuichi'
'Takayama-Muromachi, Eiji'
'Isobe, Masaaki'
_publ_section_title
;
 \b-Vesignieite BaCu3V2O8(OH)2: a structurally perfect S = 1/2 kagom\'e
 antiferromagnet
;
_journal_issue                   36
_journal_name_full               'Journal of Materials Chemistry'
_journal_page_first              18793
_journal_paper_doi               10.1039/c2jm32250a
_journal_volume                  22
_journal_year                    2012
_chemical_formula_sum            'Ba Cu3 H2 O10 V2'
_chemical_formula_weight         591.9
_chemical_name_systematic        ' ?'
_space_group_IT_number           166
_symmetry_cell_setting           trigonal
_symmetry_Int_Tables_number      166
_symmetry_space_group_name_Hall  '-R 3 2"'
_symmetry_space_group_name_H-M   'R -3 m :H'
_cell_angle_alpha                90
_cell_angle_beta                 90
_cell_angle_gamma                120
_cell_formula_units_Z            3
_cell_length_a                   5.9295(10)
_cell_length_b                   5.9295(10)
_cell_length_c                   20.790(4)
_cell_measurement_reflns_used    25
_cell_measurement_temperature    293
_cell_measurement_theta_max      16.57
_cell_measurement_theta_min      15.29
_cell_volume                     633.03(19)
_diffrn_ambient_temperature      293
_diffrn_measured_fraction_theta_full 1
_diffrn_measured_fraction_theta_max 1
_diffrn_measurement_device_type  'Rigaku AFC7R'
_diffrn_measurement_method       \w
_diffrn_radiation_probe          x-ray
_diffrn_radiation_source         'X-ray tube'
_diffrn_radiation_type           'Mo K\a'
_diffrn_radiation_wavelength     0.71069
_diffrn_reflns_av_R_equivalents  0.0345
_diffrn_reflns_av_sigmaI/netI    0.0214
_diffrn_reflns_limit_h_max       9
_diffrn_reflns_limit_h_min       -10
_diffrn_reflns_limit_k_max       10
_diffrn_reflns_limit_k_min       0
_diffrn_reflns_limit_l_max       37
_diffrn_reflns_limit_l_min       -37
_diffrn_reflns_number            2806
_diffrn_reflns_theta_full        40.16
_diffrn_reflns_theta_max         40.16
_diffrn_reflns_theta_min         2.95
_diffrn_standards_decay_%        0.45
_diffrn_standards_interval_count 150
_diffrn_standards_number         3
_exptl_absorpt_coefficient_mu    14.178
_exptl_absorpt_correction_T_max  0.7217
_exptl_absorpt_correction_T_min  0.4918
_exptl_absorpt_correction_type   analytical
_exptl_crystal_colour            light-green
_exptl_crystal_density_diffrn    4.6562
_exptl_crystal_description       plate
_exptl_crystal_F_000             813
_exptl_crystal_size_max          0.06
_exptl_crystal_size_mid          0.06
_exptl_crystal_size_min          0.02
_refine_diff_density_max         2.05
_refine_diff_density_min         -1.36
_refine_ls_extinction_coef       118(16)
_refine_ls_extinction_method
'B-C type 1 Gaussian isotropic (Becker & Coppens, 1974)'
_refine_ls_goodness_of_fit_gt    1.83
_refine_ls_goodness_of_fit_ref   1.69
_refine_ls_hydrogen_treatment    refall
_refine_ls_number_constraints    0
_refine_ls_number_parameters     31
_refine_ls_number_reflns         535
_refine_ls_number_restraints     0
_refine_ls_R_factor_all          0.0381
_refine_ls_R_factor_gt           0.0217
_refine_ls_shift/su_max          0.0072
_refine_ls_shift/su_mean         0.0019
_refine_ls_structure_factor_coef Fsqd
_refine_ls_weighting_details     w=1/(\s^2^(I)+0.000004I^2^)
_refine_ls_weighting_scheme      sigma
_refine_ls_wR_factor_gt          0.0322
_refine_ls_wR_factor_ref         0.0337
_reflns_number_gt                424
_reflns_number_total             535
_reflns_threshold_expression     I>2\s(I)
_cod_data_source_file            c2jm32250a.txt
_cod_data_source_block           I
_cod_depositor_comments
;
The following automatic conversions were performed:

'_diffrn_radiation_probe' value 'X-ray' changed to 'x-ray' according
to /home/saulius/struct/CIF-dictionaries/cif_core.dic dictionary
named 'cif_core.dic' version 2.4.1 from 2010-06-29.

Automatic conversion script
Id: cif_fix_values 1891 2012-01-12 08:04:46Z andrius 
;
_cod_original_cell_volume        633.0(2)
_cod_original_sg_symbol_Hall     '-R 3;-2"'
_cod_original_sg_symbol_H-M      'R -3 m'
_cod_original_formula_sum        'Ba1 Cu3 H2 O10 V2'
_cod_database_code               7208608
loop_
_symmetry_equiv_pos_site_id
_symmetry_equiv_pos_as_xyz
1 x,y,z
2 -y,x-y,z
3 -x+y,-x,z
4 y,x,-z
5 x-y,-y,-z
6 -x,-x+y,-z
7 -x,-y,-z
8 y,-x+y,-z
9 x-y,x,-z
10 -y,-x,z
11 -x+y,y,z
12 x,x-y,z
13 x+2/3,y+1/3,z+1/3
14 -y+2/3,x-y+1/3,z+1/3
15 -x+y+2/3,-x+1/3,z+1/3
16 y+2/3,x+1/3,-z+1/3
17 x-y+2/3,-y+1/3,-z+1/3
18 -x+2/3,-x+y+1/3,-z+1/3
19 -x+2/3,-y+1/3,-z+1/3
20 y+2/3,-x+y+1/3,-z+1/3
21 x-y+2/3,x+1/3,-z+1/3
22 -y+2/3,-x+1/3,z+1/3
23 -x+y+2/3,y+1/3,z+1/3
24 x+2/3,x-y+1/3,z+1/3
25 x+1/3,y+2/3,z+2/3
26 -y+1/3,x-y+2/3,z+2/3
27 -x+y+1/3,-x+2/3,z+2/3
28 y+1/3,x+2/3,-z+2/3
29 x-y+1/3,-y+2/3,-z+2/3
30 -x+1/3,-x+y+2/3,-z+2/3
31 -x+1/3,-y+2/3,-z+2/3
32 y+1/3,-x+y+2/3,-z+2/3
33 x-y+1/3,x+2/3,-z+2/3
34 -y+1/3,-x+2/3,z+2/3
35 -x+y+1/3,y+2/3,z+2/3
36 x+1/3,x-y+2/3,z+2/3
loop_
_atom_site_label
_atom_site_type_symbol
_atom_site_fract_x
_atom_site_fract_y
_atom_site_fract_z
_atom_site_adp_type
_atom_site_U_iso_or_equiv
_atom_site_symmetry_multiplicity
_atom_site_occupancy
_atom_site_calc_flag
Ba1 Ba 0 0 0 Uani 0.01441(10) 3 1 d
Cu1 Cu 0.333333 0.166667 0.166667 Uani 0.01258(13) 9 1 d
V1 V 0.35408(18) 0.7082(4) 0.07675(5) Uani 0.0116(5) 18 0.3333 d
O1 O 0.666667 0.333333 0.12530(15) Uani 0.0126(7) 6 1 d
O2 O 0.1726(2) 0.8274(2) 0.10348(12) Uani 0.0366(9) 18 1 d
O3 O 0.6206(7) 0.3794(7) 0.0025(3) Uani 0.040(3) 18 0.3333 d
H1 H 0.65(5) 0.33(3) 0.091(3) Uiso 0.01 18 0.3333 d
loop_
_atom_site_aniso_label
_atom_site_aniso_type_symbol
_atom_site_aniso_U_11
_atom_site_aniso_U_22
_atom_site_aniso_U_33
_atom_site_aniso_U_12
_atom_site_aniso_U_13
_atom_site_aniso_U_23
Ba1 Ba 0.01802(13) 0.01802(13) 0.00719(14) 0.00901(6) 0 0
Cu1 Cu 0.01196(19) 0.01467(16) 0.01022(18) 0.00598(10) -0.00145(13) -0.00073(7)
V1 V 0.0183(7) 0.0060(8) 0.0065(3) 0.0030(4) -0.00050(16) -0.0010(3)
O1 O 0.0160(8) 0.0160(8) 0.0057(10) 0.0080(4) 0 0
O2 O 0.0331(9) 0.0331(9) 0.0381(13) 0.0124(11) -0.0137(6) 0.0137(6)
O3 O 0.068(4) 0.068(4) 0.0062(18) 0.050(4) -0.0004(11) 0.0004(11)
loop_
_atom_type_symbol
_atom_type_scat_dispersion_real
_atom_type_scat_dispersion_imag
_atom_type_scat_source
Ba -0.3244 2.2819 'International Tables Vol C tables 4.2.6.8 and 6.1.1.1'
Cu 0.3201 1.2651 'International Tables Vol C tables 4.2.6.8 and 6.1.1.1'
H 0.0000 0.0000 'International Tables Vol C tables 4.2.6.8 and 6.1.1.1'
O 0.0106 0.0060 'International Tables Vol C tables 4.2.6.8 and 6.1.1.1'
V 0.3005 0.5294 'International Tables Vol C tables 4.2.6.8 and 6.1.1.1'
loop_
_geom_angle_atom_site_label_1
_geom_angle_atom_site_label_2
_geom_angle_atom_site_label_3
_geom_angle_site_symmetry_1
_geom_angle_site_symmetry_3
_geom_angle
O1 Cu1 O1 . 16_445 180.0(5)
O1 Cu1 O2 . 1_545 93.89(8)
O1 Cu1 O2 . 2_665 93.89(7)
O1 Cu1 O2 . 16_455 86.11(8)
O1 Cu1 O2 . 18_545 86.11(7)
O1 Cu1 O2 16_445 1_545 86.11(8)
O1 Cu1 O2 16_445 2_665 86.11(7)
O1 Cu1 O2 16_445 16_455 93.89(8)
O1 Cu1 O2 16_445 18_545 93.89(7)
O2 Cu1 O2 1_545 2_665 89.39(8)
O2 Cu1 O2 1_545 16_455 180.0(5)
O2 Cu1 O2 1_545 18_545 90.61(8)
O2 Cu1 O2 2_665 16_455 90.61(8)
O2 Cu1 O2 2_665 18_545 180.0(5)
O2 Cu1 O2 16_455 18_545 89.39(8)
O2 V1 O2 . 2_665 105.02(9)
O2 V1 O2 . 3_565 119.91(13)
O2 V1 O3 . 4_555 127.8(2)
O2 V1 O3 . 5_565 102.1(2)
O2 V1 O3 . 6_665 105.9(2)
O2 V1 O2 2_665 3_565 105.02(13)
O2 V1 O3 2_665 4_555 91.31(16)
O2 V1 O3 2_665 5_565 91.31(15)
O2 V1 O3 2_665 6_665 115.6(2)
O2 V1 O3 3_565 4_555 102.05(17)
O2 V1 O3 3_565 5_565 127.8(2)
O2 V1 O3 3_565 6_665 105.94(16)
O3 V1 O3 4_555 5_565 27.0(2)
O3 V1 O3 4_555 6_665 27.5(3)
O3 V1 O3 5_565 6_665 27.51(17)
loop_
_geom_bond_atom_site_label_1
_geom_bond_atom_site_label_2
_geom_bond_site_symmetry_2
_geom_bond_distance
Cu1 O1 . 1.9156(16)
Cu1 O1 16_445 1.9156(16)
Cu1 O2 1_545 2.182(2)
Cu1 O2 2_665 2.182(2)
Cu1 O2 16_455 2.182(2)
Cu1 O2 18_545 2.182(2)
V1 O2 . 1.652(3)
V1 O2 2_665 1.945(3)
V1 O2 3_565 1.652(2)
V1 O3 4_555 1.757(6)
V1 O3 5_565 1.757(6)
V1 O3 6_665 1.669(6)
loop_
_refln_index_h
_refln_index_k
_refln_index_l
_refln_F_squared_calc
_refln_F_squared_meas
_refln_F_squared_sigma
_refln_observed_status
-1 2 0 37094.80 37839.00 487.64 o
0 3 0 15509.90 15479.30 125.22 o
-2 4 0 136061.00 135798.00 735.04 o
-1 5 0 5015.68 4936.97 159.30 o
-3 6 0 3182.98 3182.33 130.94 o
0 6 0 25749.90 25984.30 344.52 o
-2 7 0 1493.10 1468.63 69.04 o
-4 8 0 13741.60 13802.30 424.06 o
-1 8 0 409.83 518.23 55.13 o
-3 9 0 293.47 360.50 71.43 o
0 9 0 103.25 113.13 113.61 <
-5 10 0 90.98 330.77 210.93 <
-2 10 0 2777.15 2639.91 95.91 o
-1 1 1 12150.20 11799.70 63.99 o
0 2 1 22048.40 21000.10 115.75 o
-2 3 1 12646.60 12866.10 122.78 o
-4 4 1 6285.20 6293.29 112.81 o
-1 4 1 9268.81 8965.63 105.22 o
-3 5 1 6072.80 6109.37 142.55 o
0 5 1 6761.93 6948.97 157.42 o
-5 6 1 5110.75 5027.34 213.01 o
-2 6 1 2087.91 2131.54 69.05 o
-7 7 1 2048.25 2096.38 92.54 o
-4 7 1 4201.62 4263.73 111.28 o
-1 7 1 3305.99 3180.16 136.20 o
-6 8 1 448.21 514.88 62.32 o
-3 8 1 3022.08 3169.92 133.32 o
0 8 1 187.01 100.67 116.97 <
-8 9 1 1467.85 1424.49 75.76 o
-5 9 1 1639.36 1888.17 98.29 o
-2 9 1 1692.44 1538.64 68.57 o
-7 10 1 1358.38 1460.43 69.52 o
-4 10 1 101.43 80.06 103.55 <
0 1 2 9630.05 9999.90 77.33 o
-2 2 2 59404.60 54738.70 386.52 o
-1 3 2 5656.27 5574.86 71.08 o
-3 4 2 3429.80 3528.28 72.93 o
0 4 2 33140.50 32810.60 219.70 o
-5 5 2 2255.37 2306.20 105.02 o
-2 5 2 2677.08 2774.17 83.94 o
-4 6 2 18883.20 19195.90 192.34 o
-1 6 2 878.09 941.14 59.93 o
-6 7 2 552.34 411.81 69.03 o
-3 7 2 877.76 872.09 49.38 o
0 7 2 444.80 462.14 64.24 o
-8 8 2 4111.08 3909.43 192.33 o
-5 8 2 252.53 307.77 75.74 o
-2 8 2 6166.26 6549.66 173.19 o
-7 9 2 216.93 38.83 131.35 <
-4 9 2 206.75 182.17 80.06 o
-1 9 2 30.63 -172.57 100.19 <
-6 10 2 2568.91 2682.98 116.53 o
-3 10 2 5.39 113.13 97.79 <
0 0 3 13713.20 13754.40 92.71 o
-1 2 3 50494.10 51541.40 526.41 o
-3 3 3 28573.20 28979.40 305.03 o
0 3 3 23032.50 22811.30 151.54 o
-2 4 3 6073.20 6082.99 95.06 o
-4 5 3 10337.10 10219.40 223.82 o
-1 5 3 11745.70 11740.30 122.99 o
-6 6 3 1364.15 1509.84 68.56 o
-3 6 3 8152.79 8291.82 121.92 o
0 6 3 1281.78 1417.77 91.10 o
-5 7 3 4480.70 4295.01 109.85 o
-2 7 3 3705.76 3762.16 107.43 o
-7 8 3 2032.32 2073.83 74.80 o
-4 8 3 779.82 869.67 60.89 o
-1 8 3 2252.36 2051.35 71.93 o
-9 9 3 660.03 328.40 129.44 o
-6 9 3 1435.84 1551.54 64.73 o
-3 9 3 1670.13 1544.39 94.94 o
0 9 3 707.05 693.72 80.06 o
-8 10 3 320.14 121.29 98.75 <
-5 10 3 1135.21 1118.06 68.56 o
-2 10 3 215.70 104.51 106.90 <
-1 1 4 978.71 1044.29 43.65 o
0 2 4 121154.00 122243.00 307.31 o
-2 3 4 54.54 200.86 72.39 o
-4 4 4 46747.40 46736.30 319.55 o
-1 4 4 54.87 53.21 56.09 <
-3 5 4 138.91 46.02 59.44 <
0 5 4 253.20 156.28 79.10 <
-5 6 4 174.95 54.65 85.33 <
-2 6 4 24681.80 24931.10 304.65 o
-7 7 4 267.02 54.65 112.18 <
-4 7 4 227.11 348.99 62.80 o
-1 7 4 282.54 261.27 74.31 o
-6 8 4 8689.51 8692.22 173.73 o
-3 8 4 215.60 178.81 82.93 o
0 8 4 5769.07 5311.55 199.09 o
-8 9 4 150.19 -56.09 131.35 <
-5 9 4 237.03 288.11 80.54 o
-2 9 4 202.00 218.60 81.50 o
-7 10 4 125.01 215.24 97.79 o
-4 10 4 3936.10 4046.54 141.97 o
0 1 5 102936.00 101645.00 945.72 o
-2 2 5 5666.50 6072.88 93.21 o
-1 3 5 52613.80 51602.50 498.98 o
-3 4 5 37877.10 37364.80 284.36 o
0 4 5 783.66 714.86 48.42 o
-5 5 5 14371.90 14560.10 172.51 o
-2 5 5 25343.20 25093.00 199.91 o
-4 6 5 204.32 213.33 59.92 o
-1 6 5 11193.30 11285.00 138.29 o
-6 7 5 6604.88 6461.96 132.43 o
-3 7 5 7260.46 7477.29 154.04 o
0 7 5 4318.65 4296.66 156.84 o
-8 8 5 43.05 -21.09 121.28 <
-5 8 5 4829.62 4828.42 138.63 o
-2 8 5 21.59 64.72 101.15 <
-7 9 5 1381.35 1479.61 95.89 o
-4 9 5 2446.95 2302.67 97.82 o
-1 9 5 1285.81 1337.19 70.00 o
-6 10 5 90.78 247.84 97.79 o
-3 10 5 1120.92 1082.10 76.23 o
0 0 6 46631.40 46238.90 267.62 o
-1 2 6 23.99 128.47 32.60 o
-3 3 6 11.24 44.10 54.17 <
0 3 6 6.75 65.19 58.96 <
-2 4 6 22441.70 22284.30 142.65 o
-4 5 6 21.16 59.92 62.32 <
-1 5 6 23.18 -4.31 63.28 <
-6 6 6 9220.96 9490.61 168.00 o
-3 6 6 15.25 11.98 69.99 <
0 6 6 9202.53 9628.34 190.08 o
-5 7 6 210.57 212.37 74.30 o
-2 7 6 185.56 104.51 70.95 <
-7 8 6 100.42 -21.57 94.92 <
-4 8 6 6394.77 6710.14 160.73 o
-1 8 6 116.39 119.85 90.12 <
-9 9 6 240.09 243.53 146.69 <
-6 9 6 164.09 75.74 93.00 <
-3 9 6 189.95 221.48 97.79 o
0 9 6 244.28 89.17 131.35 <
-8 10 6 2564.78 2659.02 94.95 o
-5 10 6 88.94 33.08 103.55 <
-2 10 6 2646.16 2850.39 97.35 o
-1 1 7 64160.80 63454.20 498.83 o
0 2 7 9948.66 10055.20 102.46 o
-2 3 7 34543.10 34500.70 188.33 o
-4 4 7 2913.15 3023.74 170.76 o
-1 4 7 25539.70 25359.90 267.07 o
-3 5 7 17543.10 17584.90 156.78 o
0 5 7 10430.60 10462.40 163.26 o
-5 6 7 7861.82 8268.33 123.82 o
-2 6 7 1156.87 1273.44 57.54 o
-7 7 7 3093.60 3060.11 143.39 o
-4 7 7 5311.61 5635.86 120.89 o
-1 7 7 4638.32 4470.53 122.80 o
-6 8 7 645.14 528.31 92.53 o
-3 8 7 3388.31 3538.86 144.84 o
0 8 7 477.64 525.90 127.04 o
-8 9 7 1009.14 1017.36 70.48 o
-5 9 7 1732.49 1648.45 65.69 o
-2 9 7 1053.23 1219.21 81.03 o
-7 10 7 846.55 851.94 67.60 o
-4 10 7 420.26 220.52 110.74 <
0 1 8 53.56 158.68 58.01 o
-2 2 8 82377.60 82446.10 788.65 o
-1 3 8 173.88 136.63 38.83 o
-3 4 8 296.88 273.74 104.99 o
0 4 8 36971.30 36598.80 238.53 o
-5 5 8 552.96 237.31 159.65 <
-2 5 8 254.58 247.37 48.90 o
-4 6 8 20053.60 19861.50 175.51 o
-1 6 8 268.52 234.90 67.59 o
-6 7 8 176.52 173.54 87.73 <
-3 7 8 318.47 278.05 97.80 o
0 7 8 138.85 98.75 153.88 <
-8 8 8 4405.26 4188.25 174.11 o
-5 8 8 133.81 52.73 95.88 <
-2 8 8 6891.90 6469.14 194.32 o
-7 9 8 139.63 128.95 97.31 <
-4 9 8 93.70 94.92 93.48 <
-1 9 8 84.27 103.07 97.31 <
-6 10 8 2931.68 2666.33 91.60 o
-3 10 8 48.11 24.45 104.98 <
0 0 9 398.52 697.13 68.08 o
-1 2 9 25012.50 25245.70 244.06 o
-3 3 9 12164.90 12236.00 157.21 o
0 3 9 17248.90 17479.20 156.92 o
-2 4 9 369.22 495.23 38.35 o
-4 5 9 8698.61 8612.19 114.74 o
-1 5 9 6742.15 6851.37 148.78 o
-6 6 9 147.01 185.52 88.69 o
-3 6 9 6250.30 6402.89 158.82 o
0 6 9 189.09 232.02 83.41 o
-5 7 9 2808.60 2877.81 103.10 o
-2 7 9 4057.15 3925.35 116.07 o
-7 8 9 2439.04 2412.00 127.55 o
-4 8 9 98.63 -26.85 89.16 <
-1 8 9 2045.43 2036.43 85.83 o
-9 9 9 796.21 746.46 82.94 o
-6 9 9 1937.19 1969.75 102.61 o
-3 9 9 1449.35 1354.96 79.59 o
0 9 9 950.09 910.92 109.79 o
-5 10 9 1403.44 1487.29 70.48 o
-1 1 10 20866.20 21514.80 187.34 o
0 2 10 105617.00 105074.00 964.48 o
-2 3 10 12700.90 12727.90 109.64 o
-4 4 10 47255.20 47127.30 505.81 o
-1 4 10 7587.78 7587.53 104.18 o
-3 5 10 5238.05 5161.29 101.24 o
0 5 10 4170.88 4120.96 125.20 o
-5 6 10 2035.16 1924.77 64.73 o
-2 6 10 24864.50 24875.50 194.38 o
-7 7 10 854.11 1025.01 70.48 o
-4 7 10 1723.60 1752.52 64.73 o
-1 7 10 1128.23 1208.20 56.57 o
-6 8 10 7773.83 8270.26 192.42 o
-3 8 10 624.50 669.74 57.53 o
0 8 10 4885.12 4927.70 177.96 o
-8 9 10 103.86 129.91 99.23 <
-5 9 10 411.79 365.78 85.81 o
-2 9 10 341.52 319.76 76.22 o
-7 10 10 42.61 -107.86 105.46 <
-4 10 10 2988.72 3014.04 152.02 o
0 1 11 6689.61 7179.87 113.37 o
-2 2 11 35478.70 35312.20 356.17 o
-1 3 11 7837.41 7875.69 124.39 o
-3 4 11 6092.16 6043.38 98.39 o
0 4 11 10163.00 10275.40 173.85 o
-5 5 11 4893.81 4798.27 130.49 o
-2 5 11 4317.52 4398.09 96.90 o
-4 6 11 3721.44 3753.14 121.83 o
-1 6 11 3734.82 3899.37 142.45 o
-6 7 11 2522.73 2381.83 77.68 o
-3 7 11 3174.47 3298.06 113.18 o
0 7 11 1735.41 1594.27 78.63 o
-8 8 11 399.11 348.04 103.55 o
-5 8 11 2312.83 2506.43 89.67 o
-2 8 11 787.67 650.58 60.41 o
-7 9 11 1343.30 1234.60 67.60 o
-4 9 11 1411.02 1524.20 77.19 o
-1 9 11 1245.28 1134.38 98.29 o
-6 10 11 197.79 -77.18 125.12 <
0 0 12 132104.00 135046.00 612.69 o
-1 2 12 11077.90 11034.50 114.90 o
-3 3 12 6874.80 6665.63 182.90 o
0 3 12 4922.71 5051.06 179.95 o
-2 4 12 48834.90 48573.00 646.43 o
-4 5 12 1834.12 1967.92 108.85 o
-1 5 12 2453.52 2449.59 85.84 o
-6 6 12 12429.70 12331.40 256.89 o
-3 6 12 1323.87 1448.94 55.14 o
0 6 12 12201.80 11439.90 352.92 o
-5 7 12 899.32 826.54 55.61 o
-2 7 12 432.54 319.76 76.70 o
-7 8 12 113.62 132.31 119.85 <
-4 8 12 6968.40 6756.12 147.30 o
-1 8 12 143.22 228.19 87.73 o
-6 9 12 58.58 -18.22 100.67 <
-3 9 12 131.04 63.76 96.83 <
-5 10 12 11.75 294.33 105.94 o
-1 1 13 7575.08 7618.30 253.62 o
0 2 13 2273.63 2335.79 93.53 o
-2 3 13 8357.45 8153.67 107.09 o
-4 4 13 1010.62 1118.57 52.26 o
-1 4 13 6004.52 6020.23 100.78 o
-3 5 13 3666.80 3740.34 116.08 o
0 5 13 4855.30 5049.96 198.12 o
-5 6 13 3501.27 3573.54 119.90 o
-2 6 13 434.52 430.02 61.84 o
-7 7 13 1095.75 1050.93 78.15 o
-4 7 13 2990.63 3270.62 140.99 o
-1 7 13 2067.17 2107.89 84.87 o
-6 8 13 189.38 169.22 119.85 <
-3 8 13 1997.72 2029.23 76.72 o
0 8 13 90.17 -18.22 179.29 <
-8 9 13 963.65 931.06 68.08 o
-5 9 13 907.57 842.84 68.56 o
-2 9 13 1213.88 1327.11 68.08 o
-4 10 13 71.52 -65.67 124.16 <
0 1 14 2362.95 2425.61 94.01 o
-2 2 14 56764.20 56826.70 801.40 o
-1 3 14 1805.47 1973.81 69.05 o
-3 4 14 1751.45 1679.75 54.67 o
0 4 14 30242.50 30678.10 608.45 o
-5 5 14 1222.06 1410.56 106.92 o
-2 5 14 1793.14 1673.96 61.38 o
-4 6 14 17823.60 18264.10 225.39 o
-1 6 14 680.74 631.39 51.78 o
-6 7 14 611.77 395.51 104.03 o
-3 7 14 666.29 739.74 56.09 o
0 7 14 562.31 460.23 174.02 o
-8 8 14 4686.95 4740.52 181.31 o
-5 8 14 347.60 159.16 93.00 <
-2 8 14 6634.83 6763.96 161.21 o
-7 9 14 304.26 308.25 92.52 o
-4 9 14 344.21 249.76 84.85 o
-1 9 14 111.86 152.44 96.36 <
0 0 15 207.14 116.49 95.88 <
-1 2 15 41388.10 41759.60 204.10 o
-3 3 15 26746.10 27574.60 223.51 o
0 3 15 24025.20 24404.40 247.48 o
-2 4 15 371.57 304.42 69.99 o
-4 5 15 11602.00 10968.20 141.66 o
-1 5 15 12164.70 12393.00 147.43 o
-6 6 15 242.34 97.80 105.46 <
-3 6 15 8754.56 8749.61 205.42 o
0 6 15 233.81 293.86 82.93 o
-5 7 15 4735.73 4765.03 139.10 o
-2 7 15 4291.35 3996.85 126.15 o
-7 8 15 2190.91 2097.85 116.04 o
-4 8 15 203.96 59.92 93.00 <
-1 8 15 2209.71 2106.96 75.28 o
-6 9 15 1585.57 1442.25 70.48 o
-3 9 15 1612.04 1481.09 70.00 o
-1 1 16 225.27 204.70 84.37 o
0 2 16 17760.90 18049.70 348.77 o
-2 3 16 178.00 181.69 67.59 o
-4 4 16 11239.00 11231.00 335.18 o
-1 4 16 8.29 -96.35 71.91 <
-3 5 16 124.83 126.08 67.59 <
0 5 16 2.00 155.80 101.63 <
-5 6 16 13.58 36.91 86.77 <
-2 6 16 7852.86 7507.80 138.21 o
-7 7 16 249.41 72.39 124.64 <
-4 7 16 14.35 28.28 80.06 <
-1 7 16 205.28 211.89 84.85 o
-6 8 16 3734.95 3667.52 127.10 o
-3 8 16 108.85 67.11 96.83 <
0 8 16 2928.73 3068.20 129.00 o
-5 9 16 231.23 113.61 119.85 <
-2 9 16 68.67 116.49 107.38 <
0 1 17 25648.10 26777.10 571.50 o
-2 2 17 434.79 372.98 98.76 o
-1 3 17 17003.90 17134.70 209.63 o
-3 4 17 14041.00 14335.00 240.69 o
0 4 17 101.55 65.20 101.63 <
-5 5 17 5990.51 6095.43 163.12 o
-2 5 17 10372.60 10644.60 144.03 o
-4 6 17 16.10 95.40 83.89 <
-1 6 17 4947.27 5185.89 128.08 o
-6 7 17 3174.65 3225.58 117.97 o
-3 7 17 3190.36 3265.40 145.31 o
0 7 17 2029.44 2265.15 101.17 o
-8 8 17 108.12 -126.08 177.37 <
-5 8 17 2311.78 2370.24 84.39 o
-2 8 17 94.00 198.94 101.15 <
-7 9 17 577.69 489.00 82.46 o
-4 9 17 1168.67 1430.67 69.04 o
0 0 18 38784.20 38956.40 361.31 o
-1 2 18 33.07 -93.48 72.39 <
-3 3 18 4.88 -117.93 92.52 <
0 3 18 115.08 109.78 86.77 <
-2 4 18 19293.70 19644.40 175.49 o
-4 5 18 68.10 -45.54 110.74 <
-1 5 18 5.91 -18.70 79.10 <
-6 6 18 7577.05 7824.79 186.66 o
-3 6 18 13.69 -42.18 81.49 <
0 6 18 7442.15 7503.65 278.78 o
-5 7 18 54.62 108.82 93.00 <
-2 7 18 157.80 23.97 95.88 <
-7 8 18 50.06 11.03 96.35 <
-4 8 18 5170.77 5052.59 146.31 o
-1 8 18 46.28 -172.57 112.17 <
-6 9 18 95.56 15.34 111.22 <
-3 9 18 74.29 36.91 106.90 <
-1 1 19 22038.00 22976.60 263.74 o
0 2 19 365.32 250.73 77.66 o
-2 3 19 15784.90 15795.50 159.07 o
-4 4 19 180.89 257.43 81.02 o
-1 4 19 12111.10 12179.60 150.79 o
-3 5 19 8692.69 9036.52 156.46 o
0 5 19 6890.91 6318.18 168.41 o
-5 6 19 5214.35 5208.56 201.47 o
-2 6 19 70.68 -34.52 90.12 <
-7 7 19 2217.17 2347.20 102.61 o
-4 7 19 4060.90 3894.06 141.49 o
-1 7 19 3207.16 3125.36 104.07 o
-6 8 19 73.15 -84.85 102.59 <
-3 8 19 2626.94 2634.09 117.97 o
0 8 19 56.43 59.92 127.51 <
-5 9 19 1426.42 1430.72 77.19 o
0 1 20 3499.89 3631.04 118.00 o
-2 2 20 28715.20 28826.70 248.03 o
-1 3 20 3904.98 3963.45 103.61 o
-3 4 20 2339.92 2409.66 115.09 o
0 4 20 16605.30 16206.20 217.66 o
-5 5 20 2256.59 2080.62 99.26 o
-2 5 20 1285.57 1400.49 72.40 o
-4 6 20 10152.40 10243.40 179.52 o
-1 6 20 1172.50 1284.43 102.60 o
-6 7 20 407.26 443.92 70.95 o
-3 7 20 1155.24 1212.51 64.72 o
0 7 20 221.29 218.60 121.29 <
-5 8 20 363.82 192.24 102.59 <
-2 8 20 3916.66 3903.12 176.98 o
-4 9 20 119.90 46.50 104.03 <
0 0 21 2784.92 2918.34 255.62 o
-1 2 21 4308.99 4165.72 105.05 o
-3 3 21 2765.09 2556.09 108.38 o
0 3 21 3286.46 3498.70 131.89 o
-2 4 21 1785.79 2069.97 79.60 o
-4 5 21 2229.38 2243.17 80.08 o
-1 5 21 1882.42 1712.75 65.21 o
-6 6 21 527.70 631.38 74.31 o
-3 6 21 1884.33 2104.48 74.32 o
0 6 21 580.72 762.26 75.75 o
-5 7 21 1036.24 781.00 127.05 o
-2 7 21 1303.93 1445.55 66.16 o
-7 8 21 1080.01 1200.04 70.96 o
-4 8 21 307.36 308.73 153.88 o
-1 8 21 957.18 862.98 128.01 o
-1 1 22 4737.71 4993.98 239.38 o
0 2 22 39810.50 41456.30 303.81 o
-2 3 22 3772.40 3877.37 136.70 o
-4 4 22 21314.50 21614.80 301.91 o
-1 4 22 2195.90 2261.88 77.68 o
-3 5 22 1435.02 1540.52 61.37 o
0 5 22 1595.42 1467.18 96.85 o
-5 6 22 643.71 669.26 61.36 o
-2 6 22 12347.00 12209.40 182.45 o
-7 7 22 185.91 233.46 129.91 <
-4 7 22 612.36 666.86 63.28 o
-1 7 22 266.20 383.51 88.69 o
-6 8 22 4239.57 4172.86 163.08 o
-3 8 22 129.16 188.40 85.33 o
0 1 23 2852.54 2660.70 117.98 o
-2 2 23 3600.32 3557.37 172.18 o
-1 3 23 2556.03 2760.26 99.27 o
-3 4 23 2681.25 2694.09 96.39 o
0 4 23 1365.78 1108.03 74.80 o
-5 5 23 1738.17 1953.40 106.92 o
-2 5 23 2500.93 2274.89 152.97 o
-4 6 23 583.39 403.18 79.10 o
-1 6 23 1636.79 1559.25 111.72 o
-6 7 23 1526.25 1331.00 69.04 o
-3 7 23 1297.99 1360.69 67.12 o
0 7 23 1311.59 1115.21 83.90 o
-5 8 23 1265.32 1309.86 70.00 o
-2 8 23 133.15 -46.02 111.22 <
0 0 24 33766.10 33382.80 393.60 o
-1 2 24 6212.09 6078.07 124.75 o
-3 3 24 5035.26 5082.42 154.94 o
0 3 24 3261.62 3486.58 161.62 o
-2 4 24 17374.60 17480.00 233.51 o
-4 5 24 1631.34 1615.35 71.44 o
-1 5 24 2412.25 2421.11 125.15 o
-6 6 24 6321.15 6012.40 193.82 o
-3 6 24 1435.19 1423.52 85.34 o
0 6 24 6105.53 6066.92 189.98 o
-5 7 24 1254.61 1236.50 68.08 o
-2 7 24 492.52 135.67 149.09 <
-4 8 24 3991.43 3860.49 189.93 o
-1 1 25 8180.11 8162.59 166.53 o
0 2 25 170.15 142.86 107.38 <
-2 3 25 6351.75 6949.66 137.70 o
-4 4 25 150.64 330.29 103.07 o
-1 4 25 5244.20 4897.28 135.28 o
-3 5 25 3729.66 3473.29 196.16 o
0 5 25 3062.20 3729.55 158.26 o
-5 6 25 2567.08 2833.55 97.34 o
-2 6 25 105.30 115.05 98.27 <
-4 7 25 1936.30 2194.16 108.36 o
-1 7 25 1769.25 1627.85 71.92 o
0 1 26 4.64 242.08 94.44 o
-2 2 26 10995.50 10970.40 195.39 o
-1 3 26 2.87 48.42 91.08 <
-3 4 26 27.11 -91.56 145.73 <
0 4 26 7773.17 7407.50 241.37 o
-5 5 26 62.41 26.85 152.92 <
-2 5 26 93.91 138.54 94.92 <
-4 6 26 5546.27 5142.55 240.82 o
-1 6 26 27.80 115.53 100.67 <
-6 7 26 64.54 -7.67 112.17 <
-3 7 26 52.72 -27.80 110.26 <
0 0 27 782.66 854.81 96.36 o
-1 2 27 11532.20 11487.10 164.68 o
-3 3 27 7363.36 7844.29 188.57 o
0 3 27 8651.70 8080.28 234.20 o
-2 4 27 133.59 175.45 94.92 <
-4 5 27 4623.57 4389.82 138.62 o
-1 5 27 3652.86 3894.81 134.77 o
-6 6 27 5.04 -21.57 141.89 <
-3 6 27 3043.21 2916.21 100.71 o
0 6 27 7.32 -116.49 168.26 <
-5 7 27 1370.51 1545.30 73.36 o
-2 7 27 2033.25 1714.69 74.80 o
-1 1 28 20.68 -124.16 113.61 <
0 2 28 5906.18 6015.01 167.91 o
-2 3 28 2.70 195.10 90.60 o
-4 4 28 4232.29 4145.47 171.71 o
-1 4 28 73.25 161.07 94.44 <
-3 5 28 160.97 217.64 96.84 o
0 5 28 32.08 -51.29 127.99 <
-5 6 28 39.62 -51.29 108.34 <
-2 6 28 3411.40 3574.35 113.18 o
-4 7 28 37.98 -9.11 110.26 <
0 1 29 10778.50 10787.60 300.99 o
-2 2 29 298.32 -62.80 148.13 <
-1 3 29 8910.21 8680.37 193.89 o
-3 4 29 7233.04 7495.72 154.98 o
0 4 29 131.98 131.35 108.34 <
-5 5 29 4282.73 3778.60 164.52 o
-2 5 29 5223.91 5082.85 243.68 o
-4 6 29 47.93 -223.39 106.42 <
-1 6 29 3551.44 3611.36 120.86 o
0 0 30 12434.80 11683.80 288.57 o
-1 2 30 514.99 346.13 161.56 o
-3 3 30 353.59 307.77 101.15 o
0 3 30 352.40 468.37 142.86 o
-2 4 30 7257.19 6954.51 189.53 o
-4 5 30 175.96 231.54 102.11 o
-1 5 30 159.01 165.39 104.03 <
-3 6 30 108.15 61.36 110.26 <
-1 1 31 2359.59 2497.81 99.74 o
0 2 31 251.68 145.73 109.30 <
-2 3 31 2313.29 2285.37 79.60 o
-4 4 31 173.18 70.95 129.43 <
-1 4 31 1625.72 1628.29 67.61 o
-3 5 31 1080.53 1063.40 89.66 o
0 5 31 1659.22 1491.17 97.81 o
0 1 32 1784.95 1390.50 80.07 o
-2 2 32 10614.00 10835.20 218.89 o
-1 3 32 1677.62 1668.10 75.28 o
-3 4 32 1142.09 911.90 112.67 o
0 4 32 6875.40 7289.64 200.56 o
-2 5 32 761.74 614.62 90.13 o
0 0 33 786.27 782.90 209.51 o
-1 2 33 1635.31 1601.44 65.21 o
-3 3 33 1314.74 1349.18 80.07 o
0 3 33 1175.16 1170.33 91.09 o
-2 4 33 597.42 343.74 99.72 o
-1 1 34 3668.04 3445.92 147.72 o
0 2 34 13438.00 11612.90 231.46 o
-2 3 34 2579.31 2836.92 95.43 o
-1 4 34 2018.16 1977.94 99.26 o
0 1 35 1014.93 897.02 82.94 o
-2 2 35 402.27 370.10 80.06 o
-1 3 35 819.02 769.48 64.24 o
0 0 36 6683.62 6543.38 274.44 o
-1 2 36 556.23 438.66 86.29 o
-1 1 37 3754.41 3339.04 145.32 o
