#------------------------------------------------------------------------------
#$Date: 2016-02-16 03:10:39 +0200 (Tue, 16 Feb 2016) $
#$Revision: 176453 $
#$URL: svn://www.crystallography.net/cod/cif/7/20/93/7209312.cif $
#------------------------------------------------------------------------------
#
# This file is available in the Crystallography Open Database (COD),
# http://www.crystallography.net/
#
# All data on this site have been placed in the public domain by the
# contributors.
#
data_7209312
loop_
_publ_author_name
'Eschen, M.'
'Jeitschko, W.'
_publ_section_title
;
 Preparation and crystal structures of ternary rare earth silver and gold
 arsenides Ln Ag As2 and Ln Au As2 with Ln = La - Nd, Sm, Gd and Tb
;
_journal_name_full
;
Zeitschrift fuer Naturforschung, Teil B. Anorganische Chemie, Organische
 Chemie (42,1987-)
;
_journal_page_first              399
_journal_page_last               409
_journal_volume                  58
_journal_year                    2003
_chemical_formula_sum            'Ag As2 Ce'
_chemical_name_systematic        'Ce Ag As2'
_space_group_IT_number           129
_symmetry_space_group_name_Hall  '-P 4a 2a'
_symmetry_space_group_name_H-M   'P 4/n m m :2'
_cell_angle_alpha                90
_cell_angle_beta                 90
_cell_angle_gamma                90
_cell_formula_units_Z            2
_cell_length_a                   4.0845
_cell_length_b                   4.0845
_cell_length_c                   10.482
_cell_volume                     174.873
_citation_journal_id_ASTM        ZNBSEN
_cod_data_source_file            silver1-2_36.cif
_cod_data_source_block           Ag1As2Ce1
_cod_original_cell_volume        174.8727
_cod_original_formula_sum        'Ag1 As2 Ce1'
_cod_database_code               7209312
loop_
_symmetry_equiv_pos_as_xyz
x,y,z
-y+1/2,x,z
-x+1/2,-y+1/2,z
y,-x+1/2,z
x+1/2,-y,-z
y+1/2,x+1/2,-z
-x,y+1/2,-z
-y,-x,-z
-x,-y,-z
y-1/2,-x,-z
x-1/2,y-1/2,-z
-y,x-1/2,-z
-x-1/2,y,z
-y-1/2,-x-1/2,z
x,-y-1/2,z
y,x,z
loop_
_atom_site_label
_atom_site_type_symbol
_atom_site_fract_x
_atom_site_fract_y
_atom_site_fract_z
_atom_site_occupancy
_atom_site_U_iso_or_equiv
As2 As-1 0.6958 0.25 0.0017 0.25 0.0
Ce1 Ce+3 0.25 0.25 0.23104 1 0.0
As1 As-3 0.25 0.25 0.67684 1 0.0
Ag1 Ag+1 0.75 0.25 0.5 1 0.0
