#------------------------------------------------------------------------------
#$Date: 2016-02-16 03:10:39 +0200 (Tue, 16 Feb 2016) $
#$Revision: 176453 $
#$URL: svn://www.crystallography.net/cod/cif/7/20/93/7209364.cif $
#------------------------------------------------------------------------------
#
# This file is available in the Crystallography Open Database (COD),
# http://www.crystallography.net/
#
# All data on this site have been placed in the public domain by the
# contributors.
#
data_7209364
loop_
_publ_author_name
'Schaefer, H.'
'May, N.'
_publ_section_title
;
 Meue Verbindungen im Th Cr2 Si2 -Typ
;
_journal_name_full
;
Zeitschrift fuer Naturforschung, Teil B. Anorganische Chemie, Organische
 Chemie (2,1947-32,1977)
;
_journal_page_first              864
_journal_page_last               865
_journal_volume                  27
_journal_year                    1972
_chemical_formula_sum            'Ag2 Ba Sn2'
_chemical_name_systematic        'Ba Ag2 Sn2'
_space_group_IT_number           139
_symmetry_space_group_name_Hall  '-I 4 2'
_symmetry_space_group_name_H-M   'I 4/m m m'
_cell_angle_alpha                90
_cell_angle_beta                 90
_cell_angle_gamma                90
_cell_formula_units_Z            2
_cell_length_a                   4.81
_cell_length_b                   4.81
_cell_length_c                   11.35
_cell_volume                     262.595
_citation_journal_id_ASTM        ZENBAX
_cod_data_source_file            silver2-3_20.cif
_cod_data_source_block           Ag2Ba1Sn2
_cod_original_cell_volume        262.5947
_cod_original_formula_sum        'Ag2 Ba1 Sn2'
_cod_database_code               7209364
loop_
_symmetry_equiv_pos_as_xyz
x,y,z
-y,x,z
-x,-y,z
y,-x,z
x,-y,-z
y,x,-z
-x,y,-z
-y,-x,-z
-x,-y,-z
y,-x,-z
x,y,-z
-y,x,-z
-x,y,z
-y,-x,z
x,-y,z
y,x,z
x+1/2,y+1/2,z+1/2
-y+1/2,x+1/2,z+1/2
-x+1/2,-y+1/2,z+1/2
y+1/2,-x+1/2,z+1/2
x+1/2,-y+1/2,-z+1/2
y+1/2,x+1/2,-z+1/2
-x+1/2,y+1/2,-z+1/2
-y+1/2,-x+1/2,-z+1/2
-x+1/2,-y+1/2,-z+1/2
y+1/2,-x+1/2,-z+1/2
x+1/2,y+1/2,-z+1/2
-y+1/2,x+1/2,-z+1/2
-x+1/2,y+1/2,z+1/2
-y+1/2,-x+1/2,z+1/2
x+1/2,-y+1/2,z+1/2
y+1/2,x+1/2,z+1/2
loop_
_atom_site_label
_atom_site_type_symbol
_atom_site_fract_x
_atom_site_fract_y
_atom_site_fract_z
_atom_site_occupancy
_atom_site_U_iso_or_equiv
Ba1 Ba 0 0 0 1 0.0
Ag1 Ag 0 0.5 0.25 1 0.0
Sn1 Sn 0 0 0.376 1 0.0
