#------------------------------------------------------------------------------
#$Date: 2018-09-27 07:13:35 +0300 (Thu, 27 Sep 2018) $
#$Revision: 211196 $
#$URL: file:///home/coder/svn-repositories/cod/cif/7/20/93/7209319.cif $
#------------------------------------------------------------------------------
#
# This file is available in the Crystallography Open Database (COD),
# http://www.crystallography.net/
#
# All data on this site have been placed in the public domain by the
# contributors.
#
data_7209319
loop_
_publ_author_name
'Savelsberg, G.'
'Schaefer, H.'
_publ_section_title
;
 Darstellung und kristallstruktur von Na2 Cu P, K2 Ag As, K2 Ag Sb und K2
 Ag Bi
;
_journal_name_full
;
Zeitschrift fuer Naturforschung, Teil B. Anorganische Chemie, Organische
 Chemie (2,1947-32,1977)
;
_journal_page_first              745
_journal_page_last               748
_journal_volume                  32
_journal_year                    1977
_chemical_formula_sum            'Ag Bi K2'
_space_group_IT_number           20
_symmetry_space_group_name_Hall  'C 2c 2'
_symmetry_space_group_name_H-M   'C 2 2 21'
_cell_angle_alpha                90
_cell_angle_beta                 90
_cell_angle_gamma                90
_cell_formula_units_Z            4
_cell_length_a                   10.56
_cell_length_b                   8.38
_cell_length_c                   6.33
_cell_volume                     560.159
_citation_journal_id_ASTM        ZENBAX
_cod_data_source_file            silver1-2_85.cif
_cod_data_source_block           Ag1Bi1K2
_cod_original_cell_volume        560.1594
_cod_original_formula_sum        'Ag1 Bi1 K2'
_cod_database_code               7209319
loop_
_symmetry_equiv_pos_as_xyz
x,y,z
-x,-y,z+1/2
x,-y,-z
-x,y,-z+1/2
x+1/2,y+1/2,z
-x+1/2,-y+1/2,z+1/2
x+1/2,-y+1/2,-z
-x+1/2,y+1/2,-z+1/2
loop_
_atom_site_label
_atom_site_type_symbol
_atom_site_fract_x
_atom_site_fract_y
_atom_site_fract_z
_atom_site_occupancy
_atom_site_U_iso_or_equiv
Bi1 Bi 0 0.2302 0.25 1 0.0
Ag1 Ag 0.496 0 0 1 0.0
K1 K 0.327 0.351 0.263 1 0.0
