#------------------------------------------------------------------------------
#$Date: 2016-02-14 06:40:26 +0200 (Sun, 14 Feb 2016) $
#$Revision: 176432 $
#$URL: svn://www.crystallography.net/cod/cif/7/21/19/7211958.cif $
#------------------------------------------------------------------------------
#
# This file is available in the Crystallography Open Database (COD),
# http://www.crystallography.net/
#
# All data on this site have been placed in the public domain by the
# contributors.
#
data_7211958
loop_
_publ_author_name
'Yuan, Ai-Hua'
'Lu, Run-Qin'
'Zhou, Hu'
'Chen, Ying-Ying'
'Li, Yi-Zhi'
_publ_section_title
;
 Three unique two-fold interpenetrated three-dimensional networks with
 PtS-type topology constructed from [M(CN)4]2&#x2212; (M = Ni, Pd, Pt) as
 &#x201C;square-planar&#x201D; building blocks
;
_journal_issue                   5
_journal_name_full               CrystEngComm
_journal_page_first              1382
_journal_paper_doi               10.1039/b917262a
_journal_volume                  12
_journal_year                    2010
_chemical_formula_moiety         'C4 N4 Pt Zn'
_chemical_formula_sum            'C4 N4 Pt Zn'
_chemical_formula_weight         364.54
_chemical_name_systematic
;
?
;
_space_group_IT_number           132
_symmetry_cell_setting           tetragonal
_symmetry_space_group_name_Hall  '-P 4c 2c'
_symmetry_space_group_name_H-M   'P 42/m c m'
_atom_sites_solution_primary     direct
_atom_sites_solution_secondary   difmap
_audit_creation_method           SHELXL-97
_cell_angle_alpha                90.00
_cell_angle_beta                 90.00
_cell_angle_gamma                90.00
_cell_formula_units_Z            2
_cell_length_a                   5.3592(4)
_cell_length_b                   5.3592(4)
_cell_length_c                   13.455(2)
_cell_measurement_reflns_used    2939
_cell_measurement_temperature    291(2)
_cell_measurement_theta_max      27.54
_cell_measurement_theta_min      2.64
_cell_volume                     386.44(7)
_computing_cell_refinement       SMART
_computing_data_collection       'SMART (Bruker, 2000)'
_computing_data_reduction        'SAINT (Bruker, 2000)'
_computing_molecular_graphics    SHELXTL
_computing_publication_material  SHELXTL
_computing_structure_refinement  SHELXTL
_computing_structure_solution    'SHELXTL (Bruker, 2000)'
_diffrn_ambient_temperature      291(2)
_diffrn_measured_fraction_theta_full 1.000
_diffrn_measured_fraction_theta_max 1.000
_diffrn_measurement_device_type  'Bruker Smart Apex CCD'
_diffrn_measurement_method       'phi and omega scans'
_diffrn_radiation_monochromator  graphite
_diffrn_radiation_source         'fine-focus sealed tube'
_diffrn_radiation_type           MoK\a
_diffrn_radiation_wavelength     0.71073
_diffrn_reflns_av_R_equivalents  0.0567
_diffrn_reflns_av_sigmaI/netI    0.0196
_diffrn_reflns_limit_h_max       6
_diffrn_reflns_limit_h_min       -6
_diffrn_reflns_limit_k_max       6
_diffrn_reflns_limit_k_min       -5
_diffrn_reflns_limit_l_max       16
_diffrn_reflns_limit_l_min       -16
_diffrn_reflns_number            2673
_diffrn_reflns_theta_full        26.00
_diffrn_reflns_theta_max         26.00
_diffrn_reflns_theta_min         3.03
_exptl_absorpt_coefficient_mu    21.107
_exptl_absorpt_correction_T_max  0.12
_exptl_absorpt_correction_T_min  0.09
_exptl_absorpt_correction_type   multi-scan
_exptl_absorpt_process_details   'SADABS; Bruker, 2000'
_exptl_crystal_colour            colorless
_exptl_crystal_density_diffrn    3.133
_exptl_crystal_density_method    'not measured'
_exptl_crystal_description       block
_exptl_crystal_F_000             320
_exptl_crystal_size_max          0.18
_exptl_crystal_size_mid          0.14
_exptl_crystal_size_min          0.12
_refine_diff_density_max         0.750
_refine_diff_density_min         -0.797
_refine_diff_density_rms         0.182
_refine_ls_extinction_method     none
_refine_ls_goodness_of_fit_ref   1.057
_refine_ls_matrix_type           full
_refine_ls_number_parameters     18
_refine_ls_number_reflns         233
_refine_ls_number_restraints     0
_refine_ls_restrained_S_all      1.057
_refine_ls_R_factor_all          0.0326
_refine_ls_R_factor_gt           0.0264
_refine_ls_shift/su_max          0.000
_refine_ls_shift/su_mean         0.000
_refine_ls_structure_factor_coef Fsqd
_refine_ls_weighting_details
'calc w=1/[\s^2^(Fo^2^)+(0.06P)^2^+1.99P] where P=(Fo^2^+2Fc^2^)/3'
_refine_ls_weighting_scheme      calc
_refine_ls_wR_factor_gt          0.0856
_refine_ls_wR_factor_ref         0.0916
_reflns_number_gt                196
_reflns_number_total             233
_reflns_threshold_expression     >2sigma(I)
_cod_data_source_file            b917262a.txt
_cod_data_source_block           3
_cod_depositor_comments
;
The following automatic conversions were performed:

'_symmetry_cell_setting' value 'Tetragonal' changed to 'tetragonal'
according to /home/saulius/struct/CIF-dictionaries/cif_core.dic
dictionary named 'cif_core.dic' version 2.4.2 from 2011-04-26.

Automatic conversion script
Id: cif_fix_values 1891 2012-01-12 08:04:46Z andrius 
;
_cod_original_cell_volume        386.45(7)
_cod_original_sg_symbol_Hall     '-P 4c 2c '
_cod_original_sg_symbol_H-M      'P4(2)/mcm '
_cod_database_code               7211958
loop_
_symmetry_equiv_pos_as_xyz
'x, y, z'
'-x, -y, z'
'-y, x, z+1/2'
'y, -x, z+1/2'
'-x, y, -z+1/2'
'x, -y, -z+1/2'
'y, x, -z'
'-y, -x, -z'
'-x, -y, -z'
'x, y, -z'
'y, -x, -z-1/2'
'-y, x, -z-1/2'
'x, -y, z-1/2'
'-x, y, z-1/2'
'-y, -x, z'
'y, x, z'
loop_
_atom_site_label
_atom_site_type_symbol
_atom_site_fract_x
_atom_site_fract_y
_atom_site_fract_z
_atom_site_U_iso_or_equiv
_atom_site_adp_type
_atom_site_occupancy
_atom_site_symmetry_multiplicity
_atom_site_calc_flag
_atom_site_refinement_flags
C1 C 0.7997(15) 0.2004(15) 0.5988(7) 0.039(3) Uani 1 2 d S
N1 N 0.6931(13) 0.3069(13) 0.6581(6) 0.041(2) Uani 1 2 d S
Zn1 Zn 0.5000 0.5000 0.7500 0.0348(7) Uani 1 8 d S
Pt1 Pt 1.0000 0.0000 0.5000 0.0332(4) Uani 1 8 d S
loop_
_atom_site_aniso_label
_atom_site_aniso_U_11
_atom_site_aniso_U_22
_atom_site_aniso_U_33
_atom_site_aniso_U_23
_atom_site_aniso_U_13
_atom_site_aniso_U_12
C1 0.040(4) 0.040(4) 0.038(5) -0.012(4) 0.012(4) 0.004(5)
N1 0.042(3) 0.042(3) 0.039(4) -0.014(3) 0.014(3) 0.005(4)
Zn1 0.0380(10) 0.0380(10) 0.0284(14) 0.000 0.000 0.000
Pt1 0.0409(5) 0.0409(5) 0.0178(5) 0.000 0.000 0.0148(3)
loop_
_atom_type_symbol
_atom_type_description
_atom_type_scat_dispersion_real
_atom_type_scat_dispersion_imag
_atom_type_scat_source
C C 0.0033 0.0016 'International Tables Vol C Tables 4.2.6.8 and 6.1.1.4'
N N 0.0061 0.0033 'International Tables Vol C Tables 4.2.6.8 and 6.1.1.4'
Zn Zn 0.2839 1.4301 'International Tables Vol C Tables 4.2.6.8 and 6.1.1.4'
Pt Pt -1.7033 8.3905 'International Tables Vol C Tables 4.2.6.8 and 6.1.1.4'
loop_
_geom_angle_atom_site_label_1
_geom_angle_atom_site_label_2
_geom_angle_atom_site_label_3
_geom_angle
_geom_angle_site_symmetry_1
_geom_angle_site_symmetry_3
N1 C1 Pt1 176.6(11) . .
C1 N1 Zn1 175.5(10) . .
N1 Zn1 N1 114.6(3) 12_657 2_665
N1 Zn1 N1 114.6(3) 12_657 .
N1 Zn1 N1 99.6(6) 2_665 .
N1 Zn1 N1 99.6(6) 12_657 11_567
N1 Zn1 N1 114.6(3) 2_665 11_567
N1 Zn1 N1 114.6(3) . 11_567
C1 Pt1 C1 82.4(7) . 10_556
C1 Pt1 C1 180.0(4) . 9_756
C1 Pt1 C1 97.6(7) 10_556 9_756
C1 Pt1 C1 97.6(7) . 2_755
C1 Pt1 C1 180.0(4) 10_556 2_755
C1 Pt1 C1 82.4(7) 9_756 2_755
loop_
_geom_bond_atom_site_label_1
_geom_bond_atom_site_label_2
_geom_bond_distance
_geom_bond_site_symmetry_2
C1 N1 1.135(13) .
C1 Pt1 2.019(10) .
N1 Zn1 1.916(8) .
Zn1 N1 1.916(8) 12_657
Zn1 N1 1.916(8) 2_665
Zn1 N1 1.916(8) 11_567
Pt1 C1 2.019(10) 10_556
Pt1 C1 2.019(10) 9_756
Pt1 C1 2.019(10) 2_755
