#------------------------------------------------------------------------------
#$Date: 2016-02-14 06:40:26 +0200 (Sun, 14 Feb 2016) $
#$Revision: 176432 $
#$URL: svn://www.crystallography.net/cod/cif/7/21/46/7214638.cif $
#------------------------------------------------------------------------------
#
# This file is available in the Crystallography Open Database (COD),
# http://www.crystallography.net/
#
# All data on this site have been placed in the public domain by the
# contributors.
#
data_7214638
loop_
_publ_author_name
'Sang, Yuanhua'
'Yu, Dehong'
'Avdeev, Maxim'
'Piltz, Ross'
'Sharma, Neeraj'
'Ye, Ning'
'Liu, Hong'
'Wang, Jiyang'
_publ_section_title
;
 X-ray and neutron diffraction studies of flux and hydrothermally grown
 nonlinear optical material KBe2BO3F2
;
_journal_issue                   18
_journal_name_full               CrystEngComm
_journal_page_first              6079
_journal_paper_doi               10.1039/c2ce25828e
_journal_volume                  14
_journal_year                    2012
_chemical_formula_sum            'B Be2 F2 K O3'
_chemical_formula_weight         153.9
_space_group_IT_number           167
_symmetry_cell_setting           trigonal
_symmetry_Int_Tables_number      167
_symmetry_space_group_name_Hall  '-R 3 2"c'
_symmetry_space_group_name_H-M   'R -3 c :H'
_cell_angle_alpha                90.000(5)
_cell_angle_beta                 90.000(6)
_cell_angle_gamma                120.000(7)
_cell_formula_units_Z            6
_cell_length_a                   4.4201(4)
_cell_length_b                   4.4201(2)
_cell_length_c                   37.487(3)
_cell_measurement_reflns_used    2378
_cell_measurement_temperature    291.4
_cell_measurement_theta_max      28.98
_cell_measurement_theta_min      3.25
_cell_volume                     634.27(9)
_computing_cell_refinement
;
CrysAlisPro, Oxford Diffraction Ltd.,
Version 1.171.34.44 (release 25-10-2010 CrysAlis171 .NET)
(compiled Oct 25 2010,18:11:34)
;
_computing_data_collection
;
CrysAlisPro, Oxford Diffraction Ltd.,
Version 1.171.34.44 (release 25-10-2010 CrysAlis171 .NET)
(compiled Oct 25 2010,18:11:34)
;
_computing_data_reduction
;
CrysAlisPro, Oxford Diffraction Ltd.,
Version 1.171.34.44 (release 25-10-2010 CrysAlis171 .NET)
(compiled Oct 25 2010,18:11:34)
;
_diffrn_ambient_temperature      291.4
_diffrn_detector_area_resol_mean 10.5861
_diffrn_measured_fraction_theta_full 0.98
_diffrn_measured_fraction_theta_max 0.97
_diffrn_measurement_device       'four-cycle diffractometer'
_diffrn_measurement_device_type  'SuperNova, Dual, Cu at zero, Atlas'
_diffrn_measurement_method       '\w scans'
_diffrn_radiation_monochromator  mirror
_diffrn_radiation_source         'SuperNova (Mo) X-ray Source'
_diffrn_radiation_type           'Mo K\a'
_diffrn_radiation_wavelength     0.7107
_diffrn_reflns_av_R_equivalents  0.0505
_diffrn_reflns_av_sigmaI/netI    0.0131
_diffrn_reflns_limit_h_max       5
_diffrn_reflns_limit_h_min       -5
_diffrn_reflns_limit_k_max       5
_diffrn_reflns_limit_k_min       -5
_diffrn_reflns_limit_l_max       48
_diffrn_reflns_limit_l_min       -50
_diffrn_reflns_number            3773
_diffrn_reflns_theta_full        28.94
_diffrn_reflns_theta_max         28.95
_diffrn_reflns_theta_min         3.26
_exptl_absorpt_coefficient_mu    0.299
_exptl_absorpt_correction_T_max  1
_exptl_absorpt_correction_T_min  0.747
_exptl_absorpt_correction_type   multi-scan
_exptl_absorpt_process_details
;
CrysAlisPro, Oxford Diffraction Ltd.,
Version 1.171.34.44 (release 25-10-2010 CrysAlis171 .NET)
(compiled Oct 25 2010,18:11:34)
Empirical absorption correction using spherical harmonics,
implemented in SCALE3 ABSPACK scaling algorithm.
;
_exptl_crystal_density_diffrn    2.4171
_exptl_crystal_F_000             444
_exptl_crystal_size_max          0.377
_exptl_crystal_size_mid          0.18
_exptl_crystal_size_min          0.136
_refine_diff_density_max         0.33
_refine_diff_density_min         -0.30
_refine_ls_extinction_method     none
_refine_ls_goodness_of_fit_gt    2.50
_refine_ls_goodness_of_fit_ref   2.39
_refine_ls_number_constraints    0
_refine_ls_number_parameters     16
_refine_ls_number_reflns         188
_refine_ls_number_restraints     0
_refine_ls_R_factor_all          0.0366
_refine_ls_R_factor_gt           0.0312
_refine_ls_shift/su_max          0.0277
_refine_ls_shift/su_mean         0.0080
_refine_ls_structure_factor_coef F
_refine_ls_weighting_details     w=1/(\s^2^(F)+0.0001F^2^)
_refine_ls_weighting_scheme      sigma
_refine_ls_wR_factor_gt          0.0411
_refine_ls_wR_factor_ref         0.0417
_reflns_number_gt                169
_reflns_number_total             188
_reflns_threshold_expression     I>3\s(I)
_cod_data_source_file            c2ce25828e.txt
_cod_data_source_block           I
_cod_original_sg_symbol_Hall     '-R 3;-2"c'
_cod_original_sg_symbol_H-M      'R -3 c'
_cod_original_formula_sum        'B1 Be2 F2 K1 O3'
_cod_database_code               7214638
loop_
_symmetry_equiv_pos_site_id
_symmetry_equiv_pos_as_xyz
1 x,y,z
2 -y,x-y,z
3 -x+y,-x,z
4 y,x,-z+1/2
5 x-y,-y,-z+1/2
6 -x,-x+y,-z+1/2
7 -x,-y,-z
8 y,-x+y,-z
9 x-y,x,-z
10 -y,-x,z+1/2
11 -x+y,y,z+1/2
12 x,x-y,z+1/2
13 x+2/3,y+1/3,z+1/3
14 -y+2/3,x-y+1/3,z+1/3
15 -x+y+2/3,-x+1/3,z+1/3
16 y+2/3,x+1/3,-z+5/6
17 x-y+2/3,-y+1/3,-z+5/6
18 -x+2/3,-x+y+1/3,-z+5/6
19 -x+2/3,-y+1/3,-z+1/3
20 y+2/3,-x+y+1/3,-z+1/3
21 x-y+2/3,x+1/3,-z+1/3
22 -y+2/3,-x+1/3,z+5/6
23 -x+y+2/3,y+1/3,z+5/6
24 x+2/3,x-y+1/3,z+5/6
25 x+1/3,y+2/3,z+2/3
26 -y+1/3,x-y+2/3,z+2/3
27 -x+y+1/3,-x+2/3,z+2/3
28 y+1/3,x+2/3,-z+1/6
29 x-y+1/3,-y+2/3,-z+1/6
30 -x+1/3,-x+y+2/3,-z+1/6
31 -x+1/3,-y+2/3,-z+2/3
32 y+1/3,-x+y+2/3,-z+2/3
33 x-y+1/3,x+2/3,-z+2/3
34 -y+1/3,-x+2/3,z+1/6
35 -x+y+1/3,y+2/3,z+1/6
36 x+1/3,x-y+2/3,z+1/6
loop_
_atom_site_label
_atom_site_type_symbol
_atom_site_fract_x
_atom_site_fract_y
_atom_site_fract_z
_atom_site_adp_type
_atom_site_U_iso_or_equiv
_atom_site_symmetry_multiplicity
_atom_site_occupancy
_atom_site_calc_flag
K1 K 0 0 0 Uani 0.0249(4) 6 1 d
F1 F 0.333333 0.666667 0.02745(5) Uani 0.0234(6) 12 1 d
O1 O 0.666667 0.0238(3) 0.083333 Uani 0.0165(6) 18 1 d
B1 B 0.666667 0.333333 0.083333 Uani 0.0125(12) 6 1 d
Be1 Be 0.333333 0.666667 0.06770(12) Uani 0.0134(10) 12 1 d
loop_
_atom_site_aniso_label
_atom_site_aniso_type_symbol
_atom_site_aniso_U_11
_atom_site_aniso_U_22
_atom_site_aniso_U_33
_atom_site_aniso_U_12
_atom_site_aniso_U_13
_atom_site_aniso_U_23
K1 K 0.0199(4) 0.0199(4) 0.0350(7) 0.0100(2) 0 0
F1 F 0.0233(7) 0.0233(7) 0.0237(11) 0.0116(3) 0 0
O1 O 0.0073(8) 0.0060(6) 0.0367(11) 0.0036(4) -0.0016(7) -0.0008(3)
B1 B 0.0083(13) 0.0083(13) 0.021(2) 0.0041(7) 0 0
Be1 Be 0.0060(11) 0.0060(11) 0.028(2) 0.0030(5) 0 0
loop_
_atom_type_symbol
_atom_type_scat_dispersion_real
_atom_type_scat_dispersion_imag
_atom_type_scat_source
K 0.2009 0.2494 'International Tables Vol C tables 4.2.6.8 and 6.1.1.1'
Be 0.0005 0.0002 'International Tables Vol C tables 4.2.6.8 and 6.1.1.1'
B 0.0013 0.0007 'International Tables Vol C tables 4.2.6.8 and 6.1.1.1'
F 0.0171 0.0103 'International Tables Vol C tables 4.2.6.8 and 6.1.1.1'
O 0.0106 0.0060 'International Tables Vol C tables 4.2.6.8 and 6.1.1.1'
loop_
_refln_index_h
_refln_index_k
_refln_index_l
_refln_F_squared_calc
_refln_F_squared_meas
_refln_F_squared_sigma
_refln_observed_status
-1 2 0 17828.35 19519.74 55.44 o
0 3 0 23567.77 24109.93 101.01 o
-2 4 0 4713.90 4691.37 52.74 o
-1 5 0 2120.10 2139.19 41.20 o
-2 3 1 187.97 200.68 5.33 o
-1 4 1 50.08 45.22 4.36 o
-3 5 1 70.32 75.62 6.62 o
0 1 2 3033.44 3296.34 18.36 o
-2 2 2 3766.33 4172.30 28.55 o
-1 3 2 1807.83 1883.48 17.52 o
-3 4 2 380.73 391.63 11.86 o
0 4 2 121.58 97.89 11.41 o
-5 5 2 633.12 610.65 45.42 o
-2 5 2 878.37 872.45 23.19 o
-1 2 3 5774.93 6759.35 24.01 o
-2 4 3 1100.66 1039.08 17.74 o
-4 5 3 463.64 540.09 19.05 o
-1 5 3 462.90 556.52 21.16 o
-1 1 4 206.49 142.10 3.81 o
0 2 4 57.79 86.24 4.13 o
-2 3 4 7.88 11.92 1.66 o
-4 4 4 472.69 535.13 23.45 o
-1 4 4 271.05 294.80 11.28 o
-3 5 4 0.68 7.65 3.63 <
0 5 4 0.78 19.04 14.11 <
-1 3 5 171.77 187.51 5.52 o
-3 4 5 45.26 47.88 4.40 o
-2 5 5 67.15 76.09 7.28 o
0 0 6 1311.86 1255.00 20.61 o
-1 2 6 12804.66 13875.03 36.05 o
-3 3 6 78.97 87.93 6.04 o
0 3 6 78.57 77.08 5.43 o
-2 4 6 2261.85 2399.22 26.45 o
-4 5 6 746.43 729.84 21.37 o
-1 5 6 745.36 781.73 25.59 o
-2 3 7 170.55 169.17 6.10 o
-1 4 7 48.24 43.07 4.54 o
-3 5 7 65.87 54.16 6.23 o
0 1 8 32686.93 33690.64 72.07 o
-2 2 8 11661.64 12186.94 54.55 o
-1 3 8 7820.03 8051.39 39.96 o
-3 4 8 5042.10 5127.87 44.38 o
0 4 8 4509.24 4521.25 77.25 o
-5 5 8 895.09 881.84 60.01 o
-2 5 8 1611.76 1568.71 31.71 o
-1 2 9 4529.61 4828.73 22.03 o
-2 4 9 955.12 840.44 16.09 o
-4 5 9 418.02 407.24 17.39 o
-1 5 9 416.02 414.91 21.03 o
-1 1 10 317.08 247.30 6.14 o
0 2 10 1298.41 1377.02 18.30 o
-2 3 10 738.73 751.99 12.44 o
-4 4 10 63.41 55.38 7.42 o
-1 4 10 194.41 188.51 9.50 o
-3 5 10 723.40 715.69 22.27 o
0 5 10 590.42 440.65 90.39 o
-1 3 11 131.29 131.15 5.28 o
-3 4 11 35.74 26.05 3.60 o
-2 5 11 57.48 50.13 6.27 o
0 0 12 31735.45 30120.05 105.14 o
-1 2 12 307.13 296.57 5.88 o
-3 3 12 6398.58 6645.92 63.23 o
0 3 12 6392.13 6443.20 58.55 o
-2 4 12 340.12 331.74 11.31 o
-4 5 12 255.90 264.14 14.17 o
-1 5 12 257.06 290.89 17.96 o
-2 3 13 130.45 117.66 4.90 o
-1 4 13 40.77 36.60 4.46 o
-3 5 13 55.44 44.66 5.59 o
0 1 14 9478.14 8958.10 38.77 o
-2 2 14 6833.60 6665.22 43.47 o
-1 3 14 3289.77 3160.97 29.23 o
-3 4 14 719.55 696.68 16.25 o
0 4 14 265.67 215.96 18.54 o
-2 5 14 877.88 867.07 25.19 o
-1 2 15 2901.95 2830.28 19.21 o
-2 4 15 729.08 637.21 16.85 o
-4 5 15 340.83 335.14 18.17 o
-1 5 15 338.12 297.76 22.41 o
-1 1 16 5690.98 5589.00 31.66 o
0 2 16 1704.05 1676.88 27.11 o
-2 3 16 1391.27 1406.12 17.43 o
-4 4 16 1284.29 1356.24 36.81 o
-1 4 16 1248.54 1234.88 25.26 o
-3 5 16 213.01 206.03 12.25 o
-1 3 17 86.40 78.96 5.13 o
-3 4 17 25.01 23.01 3.40 o
-2 5 17 44.48 34.16 6.00 o
0 0 18 7122.28 7838.92 71.49 o
-1 2 18 608.08 600.94 10.01 o
-3 3 18 952.23 913.82 24.09 o
0 3 18 949.13 885.56 27.54 o
-2 4 18 346.83 380.22 13.22 o
-4 5 18 210.04 213.50 16.28 o
-1 5 18 208.66 196.29 20.64 o
-2 3 19 87.05 69.81 4.50 o
-1 4 19 30.75 23.15 4.25 o
-3 5 19 42.33 25.66 5.28 o
0 1 20 9592.45 9055.03 51.09 o
-2 2 20 4684.93 4498.40 41.93 o
-1 3 20 3800.12 3722.19 38.14 o
-3 4 20 3027.27 3039.88 38.78 o
0 4 20 2875.37 3022.16 68.49 o
-2 5 20 1152.27 1153.87 32.74 o
-1 2 21 1611.74 1518.64 17.25 o
-2 4 21 499.64 423.93 15.43 o
-4 5 21 253.37 223.84 22.55 o
-1 5 21 250.56 263.54 31.06 o
-1 1 22 7252.60 7010.42 46.74 o
0 2 22 5925.39 5810.98 60.23 o
-2 3 22 3443.27 3380.45 34.31 o
-4 4 22 626.42 583.03 27.42 o
-1 4 22 1168.41 1142.84 28.57 o
-3 5 22 1307.75 1318.23 44.09 o
-1 3 23 50.91 47.17 4.62 o
-3 4 23 15.85 15.85 4.01 o
-2 5 23 31.43 11.24 7.35 <
0 0 24 5274.27 5764.40 86.44 o
-1 2 24 2.36 8.87 1.77 o
-3 3 24 1784.42 1927.69 43.90 o
0 3 24 1779.96 1883.95 43.58 o
-2 4 24 7.19 4.86 3.65 <
-4 5 24 8.46 15.54 13.22 <
-1 5 24 8.77 -30.89 18.97 <
-2 3 25 52.68 42.63 4.28 o
-1 4 25 21.17 19.54 4.97 o
-3 5 25 29.60 42.76 9.77 o
0 1 26 141.83 144.81 7.43 o
-2 2 26 3.50 6.35 3.44 <
-1 3 26 12.25 6.11 2.63 <
-3 4 26 65.47 56.86 6.28 o
0 4 26 118.79 88.53 13.22 o
-2 5 26 3.31 -6.66 12.81 <
-1 2 27 823.76 755.39 15.11 o
-2 4 27 314.97 265.05 13.54 o
-1 1 28 6046.16 5412.86 45.37 o
0 2 28 3151.80 3016.69 54.03 o
-2 3 28 2551.04 2506.93 34.71 o
-4 4 28 1814.68 1780.76 88.23 o
-1 4 28 1954.41 1956.44 42.21 o
-1 3 29 27.86 26.08 4.18 o
-3 4 29 9.27 -0.98 3.62 <
0 0 30 455.38 451.60 28.28 o
-1 2 30 3610.40 3729.13 36.28 o
-3 3 30 189.59 155.69 14.15 o
0 3 30 190.98 164.41 16.78 o
-2 4 30 1526.77 1559.58 35.58 o
-2 3 31 29.89 29.09 4.39 o
-1 4 31 13.53 13.47 5.24 <
0 1 32 372.45 417.98 16.78 o
-2 2 32 191.64 218.02 14.49 o
-1 3 32 244.35 255.52 12.92 o
-3 4 32 358.02 350.38 22.29 o
0 4 32 424.91 518.34 70.87 o
-1 2 33 404.74 382.14 13.05 o
-2 4 33 185.77 157.13 14.63 o
-1 1 34 83.65 75.41 7.01 o
0 2 34 175.59 166.47 14.11 o
-2 3 34 83.51 88.95 8.10 o
-1 4 34 4.42 15.00 9.10 <
-1 3 35 14.52 4.46 4.17 <
-3 4 35 5.07 5.40 13.67 <
0 0 36 4850.88 5289.13 99.51 o
-1 2 36 880.84 840.80 21.15 o
-3 3 36 1955.08 2110.92 64.82 o
0 3 36 1951.10 2038.29 67.28 o
-2 4 36 340.46 300.39 24.49 o
-2 3 37 16.25 11.85 4.72 <
0 1 38 120.55 116.12 10.34 o
-2 2 38 179.54 167.33 14.23 o
-1 3 38 116.26 111.85 10.80 o
-1 2 39 195.47 185.88 10.89 o
-1 1 40 375.21 395.50 20.31 o
0 2 40 207.50 216.21 20.45 o
-2 3 40 236.59 245.21 22.67 o
-1 3 41 7.28 3.03 5.71 <
0 0 42 160.72 230.39 25.50 o
-1 2 42 944.50 1159.84 29.18 o
-2 3 43 8.50 -24.87 14.34 <
0 1 44 794.97 909.01 34.80 o
-2 2 44 493.62 569.53 48.48 o
-1 3 44 413.00 439.00 89.78 o
-1 2 45 93.21 101.33 12.31 o
-1 1 46 46.85 36.83 8.36 o
0 2 46 9.90 -3.60 11.98 <
0 0 48 530.36 531.61 60.40 o
-1 2 48 52.62 31.09 15.65 <
0 1 50 473.26 633.36 106.21 o
