#------------------------------------------------------------------------------
#$Date: 2016-03-26 22:29:45 +0200 (Sat, 26 Mar 2016) $
#$Revision: 180508 $
#$URL: svn://www.crystallography.net/cod/cif/7/21/77/7217722.cif $
#------------------------------------------------------------------------------
#
# This file is available in the Crystallography Open Database (COD),
# http://www.crystallography.net/
#
# All data on this site have been placed in the public domain by the
# contributors.
#
data_7217722
loop_
_publ_author_name
'Tshering, Lodey'
'Hunter, Sally O.'
'Nikolich, Alexandra'
'Minato, Erica'
'Fitchett, Christopher M.'
'D'Alessandro, Deanna M.'
'Richardson, Christopher'
_publ_section_title
;
 Post-synthetic pore-space expansion in a di-tagged metal--organic
 framework
;
_journal_issue                   39
_journal_name_full               CrystEngComm
_journal_page_first              9158
_journal_paper_doi               10.1039/C4CE01377H
_journal_volume                  16
_journal_year                    2014
_chemical_formula_moiety         '2(C12 O6.5 Zn2)'
_chemical_formula_sum            'C24 O13 Zn4'
_chemical_formula_weight         757.71
_chemical_name_systematic
;
 ?
;
_space_group_crystal_system      cubic
_space_group_IT_number           221
_space_group_name_Hall           '-P 4 2 3'
_space_group_name_H-M_alt        'P m -3 m'
_symmetry_space_group_name_Hall  '-P 4 2 3'
_symmetry_space_group_name_H-M   'P m -3 m'
_atom_sites_solution_primary     direct
_audit_creation_date             2014-03-27
_audit_creation_method
;
Olex2 1.2-beta
(compiled 2014.03.20 svn.r2918 for OlexSys, GUI svn.r4813)
;
_cell_angle_alpha                90
_cell_angle_beta                 90
_cell_angle_gamma                90
_cell_formula_units_Z            1
_cell_length_a                   12.7953(10)
_cell_length_b                   12.7953(10)
_cell_length_c                   12.7953(10)
_cell_measurement_reflns_used    604
_cell_measurement_temperature    290.81(10)
_cell_measurement_theta_max      73.2448
_cell_measurement_theta_min      3.4513
_cell_volume                     2094.8(3)
_computing_cell_refinement
;
CrysAlisPro, Agilent Technologies,
Version 1.171.35.19 (release 27-10-2011 CrysAlis171 .NET)
(compiled Oct 27 2011,15:02:11)
;
_computing_data_collection
;
CrysAlisPro, Agilent Technologies,
Version 1.171.35.19 (release 27-10-2011 CrysAlis171 .NET)
(compiled Oct 27 2011,15:02:11)
;
_computing_data_reduction
;
CrysAlisPro, Agilent Technologies,
Version 1.171.35.19 (release 27-10-2011 CrysAlis171 .NET)
(compiled Oct 27 2011,15:02:11)
;
_computing_molecular_graphics    'Olex2 (Dolomanov et al., 2009)'
_computing_publication_material  'Olex2 (Dolomanov et al., 2009)'
_computing_structure_refinement  'ShelXL (Sheldrick, 2008)'
_computing_structure_solution    'ShelXS (Sheldrick, 2008)'
_diffrn_ambient_temperature      290.81(10)
_diffrn_detector_area_resol_mean 10.6501
_diffrn_measured_fraction_theta_full 0.995
_diffrn_measured_fraction_theta_max 0.986
_diffrn_measurement_device_type  'SuperNova, Dual, Cu at zero, Atlas'
_diffrn_measurement_method       '\w scans'
_diffrn_orient_matrix_UB_11      0.1061174000
_diffrn_orient_matrix_UB_12      0.0226245000
_diffrn_orient_matrix_UB_13      -0.0522033000
_diffrn_orient_matrix_UB_21      0.0571460000
_diffrn_orient_matrix_UB_22      -0.0336158000
_diffrn_orient_matrix_UB_23      0.1005291000
_diffrn_orient_matrix_UB_31      0.0041668000
_diffrn_orient_matrix_UB_32      -0.1134125000
_diffrn_orient_matrix_UB_33      -0.0401219000
_diffrn_radiation_monochromator  mirror
_diffrn_radiation_type           CuK\a
_diffrn_radiation_wavelength     1.54184
_diffrn_reflns_av_R_equivalents  0.0227
_diffrn_reflns_av_unetI/netI     0.0105
_diffrn_reflns_Laue_measured_fraction_full 0.995
_diffrn_reflns_Laue_measured_fraction_max 0.986
_diffrn_reflns_limit_h_max       14
_diffrn_reflns_limit_h_min       -15
_diffrn_reflns_limit_k_max       7
_diffrn_reflns_limit_k_min       -15
_diffrn_reflns_limit_l_max       10
_diffrn_reflns_limit_l_min       -8
_diffrn_reflns_number            1977
_diffrn_reflns_point_group_measured_fraction_full 0.995
_diffrn_reflns_point_group_measured_fraction_max 0.986
_diffrn_reflns_theta_full        67.684
_diffrn_reflns_theta_max         73.403
_diffrn_reflns_theta_min         3.454
_diffrn_source                   'SuperNova (Cu) X-ray Source'
_exptl_absorpt_coefficient_mu    1.493
_exptl_absorpt_correction_T_max  1.00000
_exptl_absorpt_correction_T_min  0.80384
_exptl_absorpt_correction_type   multi-scan
_exptl_absorpt_process_details
;
CrysAlisPro, Agilent Technologies,
Version 1.171.35.19 (release 27-10-2011 CrysAlis171 .NET)
(compiled Oct 27 2011,15:02:11)
Empirical absorption correction using spherical harmonics,
 implemented in SCALE3 ABSPACK scaling algorithm.
;
_exptl_crystal_colour            colourless
_exptl_crystal_colour_primary    colourless
_exptl_crystal_density_diffrn    0.601
_exptl_crystal_description       block
_exptl_crystal_F_000             368
_exptl_crystal_size_max          0.16
_exptl_crystal_size_mid          0.14
_exptl_crystal_size_min          0.1
_refine_diff_density_max         1.190
_refine_diff_density_min         -0.836
_refine_diff_density_rms         0.174
_refine_ls_extinction_method     none
_refine_ls_goodness_of_fit_ref   2.242
_refine_ls_hydrogen_treatment    undef
_refine_ls_matrix_type           full
_refine_ls_number_parameters     23
_refine_ls_number_reflns         476
_refine_ls_number_restraints     0
_refine_ls_restrained_S_all      2.242
_refine_ls_R_factor_all          0.2189
_refine_ls_R_factor_gt           0.1982
_refine_ls_shift/su_max          0.000
_refine_ls_shift/su_mean         0.000
_refine_ls_structure_factor_coef Fsqd
_refine_ls_weighting_details
'w=1/[\s^2^(Fo^2^)+(0.2000P)^2^] where P=(Fo^2^+2Fc^2^)/3'
_refine_ls_weighting_scheme      calc
_refine_ls_wR_factor_gt          0.5018
_refine_ls_wR_factor_ref         0.5309
_reflns_Friedel_coverage         0.000
_reflns_number_gt                306
_reflns_number_total             476
_reflns_threshold_expression     'I > 2\s(I)'
_cod_data_source_file            c4ce01377h2.cif
_cod_data_source_block           1
_cod_depositor_comments
'Adding full bibliography for 7217722--7217723.cif.'
_cod_original_cell_volume        2094.8(5)
_cod_database_code               7217722
#BEGIN Tags that were not found in dictionaries:
_shelxl_version_number           2014-3
_shelx_space_group_comment
;
The symmetry employed for this shelxl refinement is uniquely defined
by the following loop, which should always be used as a source of
symmetry information in preference to the above space-group names.
They are only intended as comments.
;
_reflns_odcompleteness_completeness 99.54
_reflns_odcompleteness_iscentric 1
_reflns_odcompleteness_theta     66.97
_olex2_refinement_description
;
1. Others
 Fixed Sof: Zn1(0.08333) O1(0.25) C1(0.25)
;
_shelx_res_file
;
TITL 55crb in Pm-3m #221
CELL 1.54184 12.795294 12.795294 12.795294 90 90 90
ZERR 1 0.00103 0.00103 0.00103 0 0 0
LATT 1
SYMM -Y,+X,+Z
SYMM -X,-Y,+Z
SYMM +Y,-X,+Z
SYMM +X,-Z,+Y
SYMM +X,-Y,-Z
SYMM +X,+Z,-Y
SYMM +Z,+Y,-X
SYMM -X,+Y,-Z
SYMM -Z,+Y,+X
SYMM +Z,+X,+Y
SYMM +Y,+Z,+X
SYMM -Y,-Z,+X
SYMM +Z,-X,-Y
SYMM -Y,+Z,-X
SYMM -Z,-X,+Y
SYMM -Z,+X,-Y
SYMM +Y,-Z,-X
SYMM +Y,+X,-Z
SYMM -Y,-X,-Z
SYMM -X,+Z,+Y
SYMM -X,-Z,-Y
SYMM +Z,-Y,+X
SYMM -Z,-Y,-X

SFAC C O Zn
UNIT 24 12.99984 3.99984

L.S. 5 0 9
PLAN  20
REM reset to Pm-3m #221
BOND
MORE -1
CONF
ABIN
fmap 2
acta


WGHT    0.200000
FVAR       5.07666
ZN1   3    0.413402    0.413402    0.413402    10.08333    0.09616    0.09616 =
         0.09616   -0.00218   -0.00218   -0.00218
O2    2    0.500000    0.500000    0.500000    10.02083    0.08647    0.08647 =
         0.08647    0.00000    0.00000    0.00000
C2    1    0.500000    0.106588    0.500000    10.12500    0.16325    0.05931 =
         0.16325    0.00000    0.00000    0.00000
C3    1    0.500000    0.227101    0.500000    10.12500    0.16380    0.08045 =
         0.16380    0.00000    0.00000    0.00000
O1    2    0.437311    0.270099    0.437311    10.25000    0.16252    0.09783 =
         0.16252    0.01985   -0.02025    0.01985
C1    1    0.416552    0.053173    0.500000    10.25000    0.09551    0.10605 =
         0.23281    0.00000    0.00000   -0.00764
HKLF 4

REM  55crb in Pm-3m #221
REM R1 =  0.1982 for     306 Fo > 4sig(Fo)  and  0.2189 for all     476 data
REM     23 parameters refined using      0 restraints

END

WGHT      0.2000      0.0000

REM Highest difference peak  1.190,  deepest hole -0.836,  1-sigma level  0.174
Q1    1   0.5000  0.0805  0.5000  10.12500  0.05    1.19
Q2    1   0.4298  0.4298  0.5000  10.25000  0.05    1.00
Q3    1   0.3838  0.4057  0.4057  10.50000  0.05    0.82
Q4    1   0.3249  0.1076  0.5000  10.50000  0.05    0.57
Q5    1   0.3479  0.2147  0.5000  10.50000  0.05    0.24
Q6    1   0.5000  0.2537  0.4225  10.50000  0.05    0.23
Q7    1   0.0512  0.0512  0.5000  10.25000  0.05    0.21
Q8    1   0.2972  0.2972  0.5000  10.25000  0.05    0.20
Q9    1   0.1249  0.0763  0.5000  10.50000  0.05    0.18
Q10   1   0.1802  0.1286  0.5000  10.50000  0.05    0.18
Q11   1   0.2100  0.1022  0.5000  10.50000  0.05    0.16
Q12   1   0.1751  0.0719  0.5000  10.50000  0.05    0.16
Q13   1   0.4223  0.2609  0.3125  11.00000  0.05    0.13
Q14   1   0.3506  0.2160  0.4189  11.00000  0.05    0.12
Q15   1   0.1288  0.1016  0.5000  10.50000  0.05    0.10
Q16   1   0.3979  0.1655  0.3979  10.50000  0.05    0.09
Q17   1   0.1993  0.0000  0.5760  10.50000  0.05    0.09
Q18   1   0.2105  0.1066  0.5690  11.00000  0.05    0.09
Q19   1   0.2210  0.2210  0.4178  10.50000  0.05    0.08
Q20   1   0.0000  0.0000  0.3868  10.12500  0.05    0.07
;
_shelx_res_checksum              49884
_shelx_fab_checksum              74819
_shelx_fab_file
;
    0    0    1     61.59      0.00
    0    1    1     -4.40      0.00
    1    1    1      0.88      0.00
    0    0    2    -84.43      0.00
    0    1    2      3.75      0.00
    1    1    2     27.51      0.00
    0    2    2      5.42      0.00
    1    2    2     12.75      0.00
    2    2    2     56.27      0.00
    0    0    3    -39.58      0.00
    0    1    3     15.57      0.00
    1    1    3     13.68      0.00
    0    2    3      6.98      0.00
    1    2    3     -1.23      0.00
    2    2    3     15.63      0.00
    0    3    3     11.05      0.00
    1    3    3      6.75      0.00
    2    3    3     -0.66      0.00
    3    3    3     -3.19      0.00
    0    0    4     20.09      0.00
    0    1    4     16.03      0.00
    1    1    4      5.87      0.00
    0    2    4      3.52      0.00
    1    2    4     -1.71      0.00
    2    2    4     -7.04      0.00
    0    3    4      3.05      0.00
    1    3    4      3.25      0.00
    2    3    4     -2.46      0.00
    3    3    4      2.59      0.00
    0    4    4      5.14      0.00
    1    4    4      1.56      0.00
    2    4    4      1.96      0.00
    3    4    4      3.22      0.00
    4    4    4     -3.04      0.00
    0    0    5     -5.29      0.00
    0    1    5      0.80      0.00
    1    1    5      4.57      0.00
    0    2    5      1.65      0.00
    1    2    5     -1.19      0.00
    2    2    5      2.32      0.00
    0    3    5      7.87      0.00
    1    3    5     -2.07      0.00
    2    3    5      4.55      0.00
    3    3    5     -0.62      0.00
    0    4    5      3.05      0.00
    1    4    5     -3.77      0.00
    2    4    5      1.51      0.00
    3    4    5      1.62      0.00
    4    4    5      3.38      0.00
    0    5    5      1.33      0.00
    1    5    5      1.15      0.00
    2    5    5     -0.61      0.00
    3    5    5      0.49      0.00
    4    5    5      0.26      0.00
    5    5    5     -0.46      0.00
    0    0    6     -3.51      0.00
    0    1    6     -1.51      0.00
    1    1    6     -0.06      0.00
    0    2    6      0.41      0.00
    1    2    6     -2.29      0.00
    2    2    6      2.01      0.00
    0    3    6      8.08      0.00
    1    3    6      2.41      0.00
    2    3    6      6.37      0.00
    3    3    6     -2.21      0.00
    0    4    6      1.22      0.00
    1    4    6     -0.07      0.00
    2    4    6      2.02      0.00
    3    4    6     -2.44      0.00
    4    4    6      2.37      0.00
    0    5    6     -0.16      0.00
    1    5    6      0.83      0.00
    2    5    6     -1.13      0.00
    3    5    6     -2.38      0.00
    4    5    6     -0.77      0.00
    5    5    6      0.06      0.00
    0    6    6     -2.12      0.00
    1    6    6     -1.35      0.00
    2    6    6     -0.14      0.00
    3    6    6      1.04      0.00
    4    6    6      1.14      0.00
    5    6    6      0.51      0.00
    6    6    6     -0.61      0.00
    0    0    7      8.17      0.00
    0    1    7     -1.48      0.00
    1    1    7     -1.15      0.00
    0    2    7      1.16      0.00
    1    2    7      2.76      0.00
    2    2    7     -3.87      0.00
    0    3    7     -2.38      0.00
    1    3    7      0.37      0.00
    2    3    7     -1.01      0.00
    3    3    7      2.24      0.00
    0    4    7      0.56      0.00
    1    4    7      0.73      0.00
    2    4    7     -0.21      0.00
    3    4    7     -0.61      0.00
    4    4    7     -0.03      0.00
    0    5    7     -0.77      0.00
    1    5    7     -0.12      0.00
    2    5    7     -0.39      0.00
    3    5    7      0.04      0.00
    4    5    7      0.43      0.00
    5    5    7     -0.67      0.00
    0    6    7     -0.33      0.00
    1    6    7      0.88      0.00
    2    6    7     -0.16      0.00
    3    6    7     -0.55      0.00
    4    6    7     -0.35      0.00
    5    6    7     -0.25      0.00
    6    6    7      0.83      0.00
    0    7    7      0.08      0.00
    1    7    7      0.34      0.00
    2    7    7      0.14      0.00
    3    7    7     -1.21      0.00
    4    7    7     -0.16      0.00
    5    7    7     -0.50      0.00
    6    7    7     -0.39      0.00
    0    0    8      3.60      0.00
    0    1    8     -1.83      0.00
    1    1    8      0.74      0.00
    0    2    8      0.51      0.00
    1    2    8      3.47      0.00
    2    2    8     -0.51      0.00
    0    3    8     -1.96      0.00
    1    3    8     -0.51      0.00
    2    3    8     -0.27      0.00
    3    3    8      0.46      0.00
    0    4    8      1.19      0.00
    1    4    8      1.00      0.00
    2    4    8      0.27      0.00
    3    4    8     -1.05      0.00
    4    4    8     -1.38      0.00
    0    5    8     -1.18      0.00
    1    5    8      1.09      0.00
    2    5    8     -1.32      0.00
    3    5    8      1.70      0.00
    4    5    8      0.60      0.00
    5    5    8      0.54      0.00
    0    6    8     -0.09      0.00
    1    6    8      1.07      0.00
    2    6    8     -1.86      0.00
    3    6    8      2.02      0.00
    4    6    8     -0.61      0.00
    5    6    8      0.18      0.00
    6    6    8      0.47      0.00
    0    7    8      0.63      0.00
    1    7    8     -0.91      0.00
    2    7    8     -0.11      0.00
    3    7    8      0.85      0.00
    4    7    8      1.20      0.00
    5    7    8      0.00      0.00
    6    7    8     -1.15      0.00
    7    7    8     -0.13      0.00
    0    8    8     -0.06      0.00
    1    8    8     -0.25      0.00
    2    8    8      2.10      0.00
    3    8    8     -1.85      0.00
    4    8    8      0.44      0.00
    5    8    8     -0.12      0.00
    6    8    8      0.19      0.00
    7    8    8      0.79      0.00
    8    8    8      0.22      0.00
    0    0    9      2.89      0.00
    0    1    9      0.17      0.00
    1    1    9     -0.70      0.00
    0    2    9      0.40      0.00
    1    2    9     -0.32      0.00
    2    2    9     -0.71      0.00
    0    3    9     -0.12      0.00
    1    3    9      0.30      0.00
    2    3    9      1.06      0.00
    3    3    9     -1.28      0.00
    0    4    9     -1.64      0.00
    1    4    9     -0.06      0.00
    2    4    9      0.51      0.00
    3    4    9     -0.78      0.00
    4    4    9      0.82      0.00
    0    5    9     -0.21      0.00
    1    5    9      1.35      0.00
    2    5    9     -0.70      0.00
    3    5    9      0.69      0.00
    4    5    9     -0.42      0.00
    5    5    9      0.72      0.00
    0    6    9     -0.80      0.00
    1    6    9     -0.50      0.00
    2    6    9     -0.20      0.00
    3    6    9      4.18      0.00
    4    6    9     -0.14      0.00
    5    6    9      0.16      0.00
    6    6    9     -0.80      0.00
    0    7    9      0.66      0.00
    1    7    9     -0.31      0.00
    2    7    9      0.33      0.00
    3    7    9      0.77      0.00
    4    7    9      0.03      0.00
    5    7    9     -0.03      0.00
    6    7    9     -0.45      0.00
    7    7    9     -0.49      0.00
    0    8    9     -0.98      0.00
    1    8    9     -0.30      0.00
    2    8    9      1.18      0.00
    3    8    9     -1.96      0.00
    4    8    9     -0.63      0.00
    5    8    9     -0.10      0.00
    6    8    9      0.58      0.00
    7    8    9      0.12      0.00
    8    8    9     -0.15      0.00
    0    9    9     -0.20      0.00
    1    9    9     -1.20      0.00
    2    9    9      0.25      0.00
    3    9    9      0.44      0.00
    4    9    9     -0.17      0.00
    5    9    9      0.00      0.00
    6    9    9      0.05      0.00
    7    9    9      0.27      0.00
    8    9    9     -0.34      0.00
    0    0   10      2.90      0.00
    0    1   10     -0.52      0.00
    1    1   10     -2.60      0.00
    0    2   10      1.20      0.00
    1    2   10      0.65      0.00
    2    2   10     -0.10      0.00
    0    3   10     -0.60      0.00
    1    3   10      1.24      0.00
    2    3   10     -0.67      0.00
    3    3   10      0.37      0.00
    0    4   10     -0.63      0.00
    1    4   10      0.85      0.00
    2    4   10     -1.04      0.00
    3    4   10     -0.13      0.00
    4    4   10      0.29      0.00
    0    5   10     -0.04      0.00
    1    5   10      0.51      0.00
    2    5   10      0.79      0.00
    3    5   10      0.59      0.00
    4    5   10     -0.38      0.00
    5    5   10     -0.32      0.00
    0    6   10      0.36      0.00
    1    6   10     -0.37      0.00
    2    6   10     -0.28      0.00
    3    6   10      0.43      0.00
    4    6   10     -0.07      0.00
    5    6   10      0.36      0.00
    6    6   10      0.54      0.00
    0    7   10     -0.23      0.00
    1    7   10     -0.44      0.00
    2    7   10      0.46      0.00
    3    7   10     -0.24      0.00
    4    7   10     -0.33      0.00
    5    7   10     -0.10      0.00
    6    7   10      0.13      0.00
    7    7   10     -0.25      0.00
    0    8   10     -0.26      0.00
    1    8   10     -1.36      0.00
    2    8   10      0.53      0.00
    3    8   10     -0.19      0.00
    4    8   10      0.11      0.00
    5    8   10     -0.16      0.00
    6    8   10     -0.41      0.00
    7    8   10     -0.10      0.00
    8    8   10      0.08      0.00
    0    9   10      2.09      0.00
    1    9   10     -0.41      0.00
    2    9   10     -0.59      0.00
    3    9   10      0.62      0.00
    4    9   10      0.04      0.00
    5    9   10     -0.08      0.00
    6    9   10     -0.12      0.00
    7    9   10      0.57      0.00
    0   10   10      0.35      0.00
    1   10   10      0.59      0.00
    2   10   10     -0.45      0.00
    3   10   10      0.77      0.00
    4   10   10     -0.19      0.00
    5   10   10      0.01      0.00
    6   10   10      0.18      0.00
    0    0   11     -0.79      0.00
    0    1   11      0.57      0.00
    1    1   11      0.10      0.00
    0    2   11     -0.05      0.00
    1    2   11     -0.21      0.00
    2    2   11      1.20      0.00
    0    3   11      0.47      0.00
    1    3   11     -0.59      0.00
    2    3   11     -1.12      0.00
    3    3   11      1.28      0.00
    0    4   11      0.00      0.00
    1    4   11      0.57      0.00
    2    4   11     -0.45      0.00
    3    4   11      0.50      0.00
    4    4   11     -1.01      0.00
    0    5   11     -0.74      0.00
    1    5   11      0.05      0.00
    2    5   11      0.08      0.00
    3    5   11      0.27      0.00
    4    5   11      0.47      0.00
    5    5   11      0.43      0.00
    0    6   11      0.22      0.00
    1    6   11      0.29      0.00
    2    6   11     -0.34      0.00
    3    6   11     -0.29      0.00
    4    6   11      0.04      0.00
    5    6   11     -0.34      0.00
    6    6   11      0.10      0.00
    0    7   11     -0.28      0.00
    1    7   11     -0.61      0.00
    2    7   11      0.35      0.00
    3    7   11      0.54      0.00
    4    7   11      0.09      0.00
    5    7   11      0.14      0.00
    6    7   11      0.63      0.00
    7    7   11      0.62      0.00
    0    8   11      0.98      0.00
    1    8   11     -0.34      0.00
    2    8   11      0.72      0.00
    3    8   11     -0.27      0.00
    4    8   11     -0.02      0.00
    5    8   11      0.06      0.00
    6    8   11      0.40      0.00
    7    8   11     -0.07      0.00
    0    9   11      0.13      0.00
    1    9   11      0.49      0.00
    2    9   11      0.33      0.00
    3    9   11     -0.40      0.00
    4    9   11      0.52      0.00
    5    9   11     -0.09      0.00
    6    9   11      0.32      0.00
    0   10   11     -0.99      0.00
    1   10   11      0.38      0.00
    2   10   11     -0.05      0.00
    3   10   11      0.06      0.00
    4   10   11      0.05      0.00
    5   10   11      0.18      0.00
    0   11   11      0.78      0.00
    1   11   11      0.09      0.00
    2   11   11      0.33      0.00
    3   11   11      0.19      0.00
    0    0   12     -3.76      0.00
    0    1   12      1.14      0.00
    1    1   12      1.83      0.00
    0    2   12     -0.47      0.00
    1    2   12     -1.05      0.00
    2    2   12      0.23      0.00
    0    3   12      2.89      0.00
    1    3   12      0.16      0.00
    2    3   12     -0.59      0.00
    3    3   12     -0.57      0.00
    0    4   12     -0.79      0.00
    1    4   12     -0.50      0.00
    2    4   12      0.97      0.00
    3    4   12      0.82      0.00
    4    4   12      0.03      0.00
    0    5   12      1.11      0.00
    1    5   12      0.12      0.00
    2    5   12     -0.07      0.00
    3    5   12     -0.68      0.00
    4    5   12      0.10      0.00
    5    5   12      0.62      0.00
    0    6   12      0.38      0.00
    1    6   12      0.10      0.00
    2    6   12      0.59      0.00
    3    6   12      0.08      0.00
    4    6   12     -0.18      0.00
    5    6   12      0.10      0.00
    6    6   12      0.15      0.00
    0    7   12     -0.07      0.00
    1    7   12     -0.08      0.00
    2    7   12     -0.62      0.00
    3    7   12     -0.09      0.00
    4    7   12      0.03      0.00
    5    7   12      0.95      0.00
    6    7   12     -0.13      0.00
    7    7   12     -0.84      0.00
    0    8   12     -0.02      0.00
    1    8   12      0.18      0.00
    2    8   12     -0.31      0.00
    3    8   12      0.09      0.00
    4    8   12      0.02      0.00
    5    8   12      0.25      0.00
    6    8   12     -0.27      0.00
    0    9   12     -0.31      0.00
    1    9   12      0.35      0.00
    2    9   12      0.20      0.00
    3    9   12     -0.05      0.00
    4    9   12      0.19      0.00
    5    9   12      0.04      0.00
    0   10   12      0.18      0.00
    1   10   12     -0.14      0.00
    2   10   12     -0.47      0.00
    3   10   12     -0.10      0.00
    0    0   13     -1.32      0.00
    0    1   13      0.30      0.00
    1    1   13      0.08      0.00
    0    2   13      0.06      0.00
    1    2   13     -0.43      0.00
    2    2   13     -0.93      0.00
    0    3   13     -0.48      0.00
    1    3   13      1.05      0.00
    2    3   13      0.93      0.00
    3    3   13      0.43      0.00
    0    4   13     -0.88      0.00
    1    4   13      0.19      0.00
    2    4   13      0.52      0.00
    3    4   13     -0.32      0.00
    4    4   13     -0.73      0.00
    0    5   13      0.76      0.00
    1    5   13     -0.23      0.00
    2    5   13      0.70      0.00
    3    5   13     -0.06      0.00
    4    5   13      0.29      0.00
    5    5   13     -0.20      0.00
    0    6   13      0.90      0.00
    1    6   13     -0.71      0.00
    2    6   13      0.03      0.00
    3    6   13     -0.27      0.00
    4    6   13      1.03      0.00
    5    6   13      0.01      0.00
    6    6   13      0.15      0.00
    0    7   13     -0.11      0.00
    1    7   13     -0.16      0.00
    2    7   13     -0.31      0.00
    3    7   13     -0.03      0.00
    4    7   13     -0.15      0.00
    5    7   13     -0.31      0.00
    0    8   13     -0.73      0.00
    1    8   13     -0.25      0.00
    2    8   13     -0.23      0.00
    3    8   13      0.88      0.00
    4    8   13     -0.05      0.00
    0    9   13      1.04      0.00
    1    9   13      0.30      0.00
    0    0   14     -0.28      0.00
    0    1   14      0.19      0.00
    1    1   14     -0.60      0.00
    0    2   14      1.46      0.00
    1    2   14      0.16      0.00
    2    2   14     -0.14      0.00
    0    3   14     -1.59      0.00
    1    3   14     -0.28      0.00
    2    3   14      0.97      0.00
    3    3   14      3.25      0.00
    0    4   14      0.37      0.00
    1    4   14     -0.02      0.00
    2    4   14     -1.18      0.00
    3    4   14      2.17      0.00
    4    4   14      1.36      0.00
    1    5   14      0.21      0.00
    2    5   14      0.12      0.00
    3    5   14      0.95      0.00
    4    5   14     -0.58      0.00
    5    5   14     -0.59      0.00
    0    6   14      0.40      0.00
    1    6   14      0.13      0.00
    2    6   14      0.05      0.00
    3    6   14     -1.01      0.00
    4    6   14     -0.38      0.00
    0    7   14     -0.11      0.00
    1    7   14     -0.11      0.00
    2    7   14      0.81      0.00
    0    0   15      0.14      0.00
    0    1   15      0.25      0.00
    1    1   15     -0.22      0.00
    0    2   15      0.44      0.00
    1    2   15     -0.39      0.00
    2    2   15     -0.20      0.00
    0    3   15      0.21      0.00
    1    3   15     -0.03      0.00
    2    3   15      0.15      0.00
    3    3   15     -0.37      0.00
    0    4   15      0.05      0.00
    1    4   15     -0.23      0.00
    2    4   15      0.10      0.00
    3    4   15      1.07      0.00
    0    5   15     -0.08      0.00
    1    5   15      0.29      0.00
    7    7    7      0.41      0.00
    9    9    9     -0.11      0.00
    8    9   10     -0.17      0.00
    9    9   10      0.12      0.00
    7   10   10      0.19      0.00
    8   10   10     -0.33      0.00
    9   10   10      0.16      0.00
    8    8   11     -0.48      0.00
    7    9   11     -0.29      0.00
    8    9   11      0.05      0.00
    9    9   11      0.13      0.00
    6   10   11      0.19      0.00
    7   10   11     -0.30      0.00
    4   11   11     -0.18      0.00
    5   11   11      0.50      0.00
    6   11   11     -0.12      0.00
    7    8   12     -0.35      0.00
    8    8   12      0.19      0.00
    6    9   12      0.49      0.00
    7    9   12     -0.11      0.00
    4   10   12     -0.06      0.00
    5   10   12     -0.11      0.00
    6   10   12      0.23      0.00
    0   11   12      0.25      0.00
    1   11   12     -0.33      0.00
    2   11   12      0.15      0.00
    3   11   12      0.25      0.00
    4   11   12      0.17      0.00
    6    7   13     -0.17      0.00
    7    7   13     -0.05      0.00
    5    8   13      0.34      0.00
    6    8   13     -0.25      0.00
    7    8   13      0.11      0.00
    2    9   13      0.11      0.00
    3    9   13     -0.14      0.00
    4    9   13     -0.44      0.00
    5    9   13      0.35      0.00
    0   10   13      0.06      0.00
    1   10   13     -0.02      0.00
    2   10   13     -0.15      0.00
    3   10   13      0.04      0.00
    0    5   14     -0.36      0.00
    5    6   14      0.25      0.00
    6    6   14      0.00      0.00
    3    7   14     -0.03      0.00
    4    7   14     -0.02      0.00
    5    7   14     -0.02      0.00
    6    7   14     -0.01      0.00
    0    8   14      0.15      0.00
    1    8   14      0.09      0.00
    2    8   14     -0.07      0.00
    3    8   14     -0.23      0.00
    4    8   14      0.05      0.00
    0    9   14      0.20      0.00
    1    9   14     -0.01      0.00
    2    9   14      0.14      0.00
    4    4   15      0.58      0.00
    2    5   15     -0.18      0.00
    3    5   15      0.51      0.00
    4    5   15     -0.43      0.00
    5    5   15      0.50      0.00
    0    6   15     -0.23      0.00
    1    6   15      0.05      0.00
    2    6   15     -0.08      0.00
    3    6   15      0.21      0.00
    4    6   15     -0.16      0.00
    0    7   15      0.22      0.00
    1    7   15     -0.04      0.00
    2    7   15     -0.02      0.00
    3    7   15      0.20      0.00
    0    0    0      0.00      0.00
loop_
  _platon_squeeze_void_nr
  _platon_squeeze_void_average_x
  _platon_squeeze_void_average_y
  _platon_squeeze_void_average_z
  _platon_squeeze_void_volume
  _platon_squeeze_void_count_electrons
  _platon_squeeze_void_content
   1 -0.007 -0.005 -0.004      1492       381 ' '
_platon_squeeze_details
(replace by semicolon in column 1 when used as .sqf)
TITL 55crb in Pm-3m #221
CELL   12.7953   12.7953   12.7953     90.00     90.00     90.00
SPGR Pm-3m
C101 1.001 0.999 0.000 !       2.79 eA-3
Q102 0.900 0.500 0.500 !       1.13 eA-3
C103 0.247 0.031 0.750 !       0.97 eA-3
Q104 0.712 0.138 0.530 !       0.90 eA-3
C105 0.212 0.733 0.991 !       0.86 eA-3
Q106 0.411 0.594 0.495 !       0.83 eA-3
C107 0.881 0.508 0.124 !       0.82 eA-3
Q108 0.511 0.500 0.501 !       0.79 eA-3
C109 0.107 0.310 0.310 !       0.75 eA-3
C110 0.876 0.876 0.550 !       0.75 eA-3
Q111 0.722 0.496 0.205 !       0.74 eA-3
Q112 0.502 0.502 0.829 !       0.71 eA-3
Q113 0.757 0.754 0.585 !       0.70 eA-3
C114 0.097 0.256 0.204 !       0.67 eA-3
Q115 0.502 0.436 0.508 !       0.67 eA-3
C116 0.183 0.276 0.888 !       0.66 eA-3
C117 0.101 0.186 0.264 !       0.65 eA-3
C118 0.761 0.131 0.763 !       0.62 eA-3
Q119 0.756 0.427 0.749 !       0.62 eA-3
C120 0.444 0.782 0.762 !       0.61 eA-3
C121 0.424 0.795 0.140 !       0.58 eA-3
C122 0.378 0.153 0.220 !       0.58 eA-3
C123 0.840 0.218 0.859 !       0.58 eA-3
C124 0.819 0.780 0.223 !       0.58 eA-3
C125 0.767 0.171 0.649 !       0.57 eA-3
C126 0.483 0.215 0.150 !       0.54 eA-3
C127 0.810 0.796 0.621 !       0.54 eA-3
Q128 0.740 0.357 0.271 !       0.53 eA-3
C129 0.178 0.340 0.904 !       0.52 eA-3
Q130 0.583 0.410 0.348 !       0.51 eA-3
(replace by semicolon in column 1 when used as .sqf)
;
#END Tags that were not found in dictionaries
loop_
_space_group_symop_operation_xyz
'x, y, z'
'-y, x, z'
'-x, -y, z'
'y, -x, z'
'x, -z, y'
'x, -y, -z'
'x, z, -y'
'z, y, -x'
'-x, y, -z'
'-z, y, x'
'z, x, y'
'y, z, x'
'-y, -z, x'
'z, -x, -y'
'-y, z, -x'
'-z, -x, y'
'-z, x, -y'
'y, -z, -x'
'y, x, -z'
'-y, -x, -z'
'-x, z, y'
'-x, -z, -y'
'z, -y, x'
'-z, -y, -x'
'-x, -y, -z'
'y, -x, -z'
'x, y, -z'
'-y, x, -z'
'-x, z, -y'
'-x, y, z'
'-x, -z, y'
'-z, -y, x'
'x, -y, z'
'z, -y, -x'
'-z, -x, -y'
'-y, -z, -x'
'y, z, -x'
'-z, x, y'
'y, -z, x'
'z, x, -y'
'z, -x, y'
'-y, z, x'
'-y, -x, z'
'y, x, z'
'x, -z, -y'
'x, z, y'
'-z, y, -x'
'z, y, x'
loop_
_atom_site_label
_atom_site_type_symbol
_atom_site_fract_x
_atom_site_fract_y
_atom_site_fract_z
_atom_site_U_iso_or_equiv
_atom_site_adp_type
_atom_site_occupancy
_atom_site_site_symmetry_order
_atom_site_calc_flag
_atom_site_refinement_flags_posn
_atom_site_refinement_flags_adp
_atom_site_refinement_flags_occupancy
Zn1 Zn 0.4134(2) 0.4134(2) 0.4134(2) 0.096(2) Uani 0.5 6 d S T P
O2 O 0.5000 0.5000 0.5000 0.086(7) Uani 1 48 d S T P
C2 C 0.5000 0.1066(14) 0.5000 0.129(8) Uani 1 8 d S T P
C3 C 0.5000 0.2271(17) 0.5000 0.136(9) Uani 1 8 d S T P
O1 O 0.4373(11) 0.2701(13) 0.4373(11) 0.141(6) Uani 0.5 2 d S T P
C1 C 0.4166(16) 0.053(2) 0.5000 0.145(11) Uani 0.5 2 d S T P
loop_
_atom_site_aniso_label
_atom_site_aniso_U_11
_atom_site_aniso_U_22
_atom_site_aniso_U_33
_atom_site_aniso_U_23
_atom_site_aniso_U_13
_atom_site_aniso_U_12
Zn1 0.096(2) 0.096(2) 0.096(2) -0.0022(10) -0.0022(10) -0.0022(10)
O2 0.086(7) 0.086(7) 0.086(7) 0.000 0.000 0.000
C2 0.163(13) 0.059(8) 0.163(13) 0.000 0.000 0.000
C3 0.164(14) 0.080(12) 0.164(14) 0.000 0.000 0.000
O1 0.163(8) 0.098(10) 0.163(8) 0.020(7) -0.020(10) 0.020(7)
C1 0.096(12) 0.106(13) 0.23(3) 0.000 0.000 -0.008(10)
loop_
_atom_type_symbol
_atom_type_description
_atom_type_scat_dispersion_real
_atom_type_scat_dispersion_imag
_atom_type_scat_source
C C 0.0181 0.0091 'International Tables Vol C Tables 4.2.6.8 and 6.1.1.4'
O O 0.0492 0.0322 'International Tables Vol C Tables 4.2.6.8 and 6.1.1.4'
Zn Zn -1.5491 0.6778 'International Tables Vol C Tables 4.2.6.8 and 6.1.1.4'
loop_
_geom_angle_atom_site_label_1
_geom_angle_atom_site_label_2
_geom_angle_atom_site_label_3
_geom_angle
_geom_angle_site_symmetry_1
_geom_angle_site_symmetry_3
Zn1 Zn1 Zn1 90.0 2_655 4_565
Zn1 Zn1 Zn1 45.000(1) 27_556 26_566
Zn1 Zn1 Zn1 90.0 2_655 27_556
Zn1 Zn1 Zn1 90.0 27_556 3_665
Zn1 Zn1 Zn1 60.0 26_566 3_665
Zn1 Zn1 Zn1 60.0 28_656 3_665
Zn1 Zn1 Zn1 45.0 27_556 28_656
Zn1 Zn1 Zn1 45.0 2_655 3_665
Zn1 Zn1 Zn1 90.0 2_655 26_566
Zn1 Zn1 Zn1 45.000(1) 4_565 3_665
Zn1 Zn1 Zn1 60.001(1) 26_566 28_656
Zn1 Zn1 Zn1 45.0 2_655 28_656
Zn1 Zn1 Zn1 45.0 4_565 26_566
Zn1 Zn1 Zn1 90.0 4_565 28_656
Zn1 Zn1 Zn1 90.0 4_565 27_556
O2 Zn1 Zn1 35.3 . 3_665
O2 Zn1 Zn1 35.3 . 26_566
O2 Zn1 Zn1 54.7 . 27_556
O2 Zn1 Zn1 35.3 . 28_656
O2 Zn1 Zn1 54.7 . 2_655
O2 Zn1 Zn1 54.7 . 4_565
O1 Zn1 Zn1 80.7(5) 12 27_556
O1 Zn1 Zn1 76.7(7) 11 3_665
O1 Zn1 Zn1 80.7(5) 11 4_565
O1 Zn1 Zn1 125.0(5) 12 3_665
O1 Zn1 Zn1 125.0(5) 11 26_566
O1 Zn1 Zn1 166.7(7) . 4_565
O1 Zn1 Zn1 80.7(5) . 2_655
O1 Zn1 Zn1 80.7(5) 11 2_655
O1 Zn1 Zn1 166.7(7) 12 2_655
O1 Zn1 Zn1 125.0(5) 11 28_656
O1 Zn1 Zn1 125.0(5) . 26_566
O1 Zn1 Zn1 80.7(5) 12 4_565
O1 Zn1 Zn1 166.7(7) 11 27_556
O1 Zn1 Zn1 125.0(5) 12 28_656
O1 Zn1 Zn1 125.0(5) . 3_665
O1 Zn1 Zn1 76.7(7) . 28_656
O1 Zn1 Zn1 76.7(7) 12 26_566
O1 Zn1 Zn1 80.7(5) . 27_556
O1 Zn1 O2 112.0(7) . .
O1 Zn1 O2 112.0(7) 11 .
O1 Zn1 O2 112.0(7) 12 .
O1 Zn1 O1 106.8(7) 11 .
O1 Zn1 O1 106.8(7) 12 .
O1 Zn1 O1 106.8(7) 12 11
Zn1 O2 Zn1 180.00(13) . 25_666
Zn1 O2 Zn1 70.529(1) 28_656 27_556
Zn1 O2 Zn1 180.0 2_655 26_566
Zn1 O2 Zn1 109.5 2_655 27_556
Zn1 O2 Zn1 70.5 25_666 28_656
Zn1 O2 Zn1 180.00(13) 3_665 27_556
Zn1 O2 Zn1 70.5 . 4_565
Zn1 O2 Zn1 180.0 28_656 4_565
Zn1 O2 Zn1 109.5 25_666 4_565
Zn1 O2 Zn1 70.529(1) 26_566 27_556
Zn1 O2 Zn1 109.471(1) . 28_656
Zn1 O2 Zn1 70.5 26_566 4_565
Zn1 O2 Zn1 70.5 . 2_655
Zn1 O2 Zn1 109.5 27_556 4_565
Zn1 O2 Zn1 109.471(1) 25_666 2_655
Zn1 O2 Zn1 70.5 25_666 3_665
Zn1 O2 Zn1 109.5 . 26_566
Zn1 O2 Zn1 70.5 2_655 3_665
Zn1 O2 Zn1 70.5 25_666 26_566
Zn1 O2 Zn1 109.5 2_655 4_565
Zn1 O2 Zn1 109.471(1) 28_656 3_665
Zn1 O2 Zn1 70.5 3_665 4_565
Zn1 O2 Zn1 109.471(1) 26_566 3_665
Zn1 O2 Zn1 70.529(1) . 27_556
Zn1 O2 Zn1 109.5 25_666 27_556
Zn1 O2 Zn1 109.5 . 3_665
Zn1 O2 Zn1 70.5 28_656 2_655
Zn1 O2 Zn1 109.5 28_656 26_566
C1 C2 C3 122.6(13) . .
C1 C2 C3 122.6(13) 8_556 .
C1 C2 C3 122.6(13) 10_655 .
C1 C2 C3 122.6(13) 30_655 .
C1 C2 C1 73.1(12) 10_655 30_655
C1 C2 C1 73.1(12) . 8_556
C1 C2 C1 73.1(12) 8_556 30_655
C1 C2 C1 115(3) . 30_655
C1 C2 C1 73.1(12) . 10_655
C1 C2 C1 115(3) 10_655 8_556
O1 C3 C2 115.9(13) 9_656 .
O1 C3 C2 115.9(13) 27_556 .
O1 C3 C2 115.9(13) . .
O1 C3 C2 115.9(13) 30_655 .
O1 C3 O1 79.0(11) 9_656 30_655
O1 C3 O1 79.0(10) . 27_556
O1 C3 O1 79.0(11) . 30_655
O1 C3 O1 79.0(10) 9_656 27_556
O1 C3 O1 128(3) . 9_656
O1 C3 O1 128(3) 30_655 27_556
C3 O1 Zn1 129.1(18) . .
C3 O1 O1 50.5(5) . 27_556
C3 O1 O1 50.5(5) . 30_655
O1 O1 Zn1 99.3(5) 30_655 .
O1 O1 Zn1 99.3(5) 27_556 .
O1 O1 O1 90.001(2) 30_655 27_556
C2 C1 C1 85.3(11) . 32_655
C2 C1 C1 122.6(13) . 6_556
C2 C1 C1 53.4(6) . 8_556
C2 C1 C1 85.3(11) . 34_556
C2 C1 C1 53.4(6) . 10_655
C1 C1 C1 89.998(2) 6_556 8_556
C1 C1 C1 48.0(12) 6_556 32_655
C1 C1 C1 89.998(1) 10_655 34_556
C1 C1 C1 48.0(12) 6_556 34_556
C1 C1 C1 89.998(1) 6_556 10_655
C1 C1 C1 63.4(13) 32_655 34_556
C1 C1 C1 42.0(12) 10_655 32_655
C1 C1 C1 89.999(7) 8_556 10_655
C1 C1 C1 89.998(1) 8_556 32_655
C1 C1 C1 42.0(12) 8_556 34_556
loop_
_geom_bond_atom_site_label_1
_geom_bond_atom_site_label_2
_geom_bond_distance
_geom_bond_site_symmetry_2
Zn1 Zn1 2.216(5) 2_655
Zn1 Zn1 2.216(5) 4_565
Zn1 Zn1 2.216(5) 27_556
Zn1 Zn1 3.134(8) 28_656
Zn1 Zn1 3.134(8) 26_566
Zn1 Zn1 3.134(8) 3_665
Zn1 O2 1.919(5) .
Zn1 O1 1.884(17) 12
Zn1 O1 1.884(16) .
Zn1 O1 1.884(16) 11
O2 Zn1 1.919(5) 3_665
O2 Zn1 1.919(5) 28_656
O2 Zn1 1.919(5) 25_666
O2 Zn1 1.919(5) 26_566
O2 Zn1 1.919(5) 27_556
O2 Zn1 1.919(5) 2_655
O2 Zn1 1.919(5) 4_565
C2 C3 1.54(3) .
C2 C1 1.27(2) 8_556
C2 C1 1.27(2) .
C2 C1 1.27(2) 10_655
C2 C1 1.27(2) 30_655
C3 O1 1.261(18) .
C3 O1 1.261(18) 30_655
C3 O1 1.261(18) 27_556
C3 O1 1.261(18) 9_656
O1 O1 1.60(3) 30_655
O1 O1 1.60(3) 27_556
C1 C1 2.03(4) 32_655
C1 C1 2.03(4) 34_556
C1 C1 1.36(5) 6_556
C1 C1 1.51(3) 10_655
C1 C1 1.51(3) 8_556
loop_
_geom_torsion_atom_site_label_1
_geom_torsion_atom_site_label_2
_geom_torsion_atom_site_label_3
_geom_torsion_atom_site_label_4
_geom_torsion
_geom_torsion_site_symmetry_1
_geom_torsion_site_symmetry_4
Zn1 Zn1 O1 C3 45.78(8) 2_655 .
Zn1 Zn1 O1 C3 0.000(3) 28_656 .
Zn1 Zn1 O1 C3 -37.6(3) 26_566 .
Zn1 Zn1 O1 C3 0.000(7) 4_565 .
Zn1 Zn1 O1 C3 -45.78(8) 27_556 .
Zn1 Zn1 O1 C3 37.6(3) 3_665 .
Zn1 Zn1 O1 O1 45.78(7) 4_565 27_556
Zn1 Zn1 O1 O1 83.4(2) 3_665 27_556
Zn1 Zn1 O1 O1 -45.78(8) 28_656 30_655
Zn1 Zn1 O1 O1 -8.2(4) 3_665 30_655
Zn1 Zn1 O1 O1 -83.4(2) 26_566 30_655
Zn1 Zn1 O1 O1 0.000(2) 27_556 27_556
Zn1 Zn1 O1 O1 0.000(0) 2_655 30_655
Zn1 Zn1 O1 O1 91.55(16) 2_655 27_556
Zn1 Zn1 O1 O1 45.78(8) 28_656 27_556
Zn1 Zn1 O1 O1 -91.55(16) 27_556 30_655
Zn1 Zn1 O1 O1 8.2(4) 26_566 27_556
Zn1 Zn1 O1 O1 -45.78(8) 4_565 30_655
O2 Zn1 O1 C3 0.000(3) . .
O2 Zn1 O1 O1 45.78(8) . 27_556
O2 Zn1 O1 O1 -45.78(8) . 30_655
C2 C3 O1 Zn1 180.000(2) . .
C2 C3 O1 O1 113.6(10) . 27_556
C2 C3 O1 O1 -113.6(10) . 30_655
C3 C2 C1 C1 180.0 . 6_556
C3 C2 C1 C1 -148.2(7) . 34_556
C3 C2 C1 C1 118.3(8) . 10_655
C3 C2 C1 C1 -118.3(8) . 8_556
C3 C2 C1 C1 148.2(7) . 32_655
O1 Zn1 O1 C3 123.0(8) 11 .
O1 Zn1 O1 C3 -123.0(8) 12 .
O1 Zn1 O1 O1 168.7(7) 11 27_556
O1 Zn1 O1 O1 77.2(8) 11 30_655
O1 Zn1 O1 O1 -77.2(8) 12 27_556
O1 Zn1 O1 O1 -168.7(7) 12 30_655
O1 C3 O1 Zn1 -66.4(10) 30_655 .
O1 C3 O1 Zn1 0.000(5) 9_656 .
O1 C3 O1 Zn1 66.4(10) 27_556 .
O1 C3 O1 O1 -133(2) 30_655 27_556
O1 C3 O1 O1 -66.4(10) 9_656 27_556
O1 C3 O1 O1 133(2) 27_556 30_655
O1 C3 O1 O1 66.4(10) 9_656 30_655
C1 C2 C3 O1 -45.000(3) . .
C1 C2 C3 O1 -135.000(4) 8_556 .
C1 C2 C3 O1 -45.000(3) 30_655 9_656
C1 C2 C3 O1 135.000(4) 8_556 30_655
C1 C2 C3 O1 135.000(3) 30_655 .
C1 C2 C3 O1 45.000(3) 30_655 30_655
C1 C2 C3 O1 -135.000(3) 10_655 9_656
C1 C2 C3 O1 -45.000(4) 8_556 27_556
C1 C2 C3 O1 -45.000(4) 10_655 30_655
C1 C2 C3 O1 135.000(3) . 9_656
C1 C2 C3 O1 -135.000(3) . 30_655
C1 C2 C3 O1 45.000(3) . 27_556
C1 C2 C3 O1 45.000(4) 10_655 .
C1 C2 C3 O1 45.000(5) 8_556 9_656
C1 C2 C3 O1 135.000(4) 10_655 27_556
C1 C2 C3 O1 -135.000(3) 30_655 27_556
C1 C2 C1 C1 61.7(8) 30_655 8_556
C1 C2 C1 C1 61.7(8) 10_655 6_556
C1 C2 C1 C1 -61.7(8) 8_556 6_556
C1 C2 C1 C1 -29.9(13) 8_556 34_556
C1 C2 C1 C1 -93.5(9) 8_556 32_655
C1 C2 C1 C1 -61.7(8) 30_655 10_655
C1 C2 C1 C1 93.5(9) 10_655 34_556
C1 C2 C1 C1 0.0 30_655 6_556
C1 C2 C1 C1 29.9(13) 10_655 32_655
C1 C2 C1 C1 -123.3(17) 8_556 10_655
C1 C2 C1 C1 123.3(17) 10_655 8_556
C1 C2 C1 C1 -31.8(7) 30_655 32_655
C1 C2 C1 C1 31.8(7) 30_655 34_556
