#------------------------------------------------------------------------------
#$Date: 2016-12-12 02:12:12 +0200 (Mon, 12 Dec 2016) $
#$Revision: 189056 $
#$URL: file:///home/coder/svn-repositories/cod/cif/7/22/13/7221377.cif $
#------------------------------------------------------------------------------
#
# This file is available in the Crystallography Open Database (COD),
# http://www.crystallography.net/
#
# All data on this site have been placed in the public domain by the
# contributors.
#
data_7221377
loop_
_publ_author_name
'Schaefer, H.'
'Schaefer, G.'
'Weiss, A.'
_publ_section_title
;
 Zur Kristallstruktur von Ammoniumtetrathiomolybdat
;
_journal_name_full
;
Zeitschrift fuer Naturforschung, Teil B. Anorganische Chemie, Organische 
Chemie (2,1947-32,1977)
;
_journal_page_first              76
_journal_page_last               76
_journal_volume                  19
_journal_year                    1964
_chemical_formula_sum            'H8 Mo N2 S4'
_chemical_name_systematic        '(N H4)2 (Mo S4)'
_space_group_IT_number           62
_symmetry_space_group_name_Hall  '-P 2ac 2n'
_symmetry_space_group_name_H-M   'P n m a'
_cell_angle_alpha                90
_cell_angle_beta                 90
_cell_angle_gamma                90
_cell_formula_units_Z            4
_cell_length_a                   9.599
_cell_length_b                   7.009
_cell_length_c                   12.288
_cell_volume                     826.729
_citation_journal_id_ASTM        ZENBAX
_cod_data_source_file            Schaefer_ZENBAX_1964_661.cif
_cod_data_source_block           H8Mo1N2S4
_cod_original_cell_volume        826.7291
_cod_original_formula_sum        'H8 Mo1 N2 S4'
_cod_database_code               7221377
loop_
_symmetry_equiv_pos_as_xyz
x,y,z
-x+1/2,-y,z+1/2
x+1/2,-y+1/2,-z+1/2
-x,y+1/2,-z
-x,-y,-z
x-1/2,y,-z-1/2
-x-1/2,y-1/2,z-1/2
x,-y-1/2,z
loop_
_atom_site_label
_atom_site_type_symbol
_atom_site_fract_x
_atom_site_fract_y
_atom_site_fract_z
_atom_site_occupancy
_atom_site_U_iso_or_equiv
_atom_site_attached_hydrogens
S2 S-2 0.281 0.25 0.896 1 0.0 0
N2 N-3 0.452 0.25 0.655 1 0.0 4
Mo1 Mo+6 0.25 0.25 0.073 1 0.0 0
S3 S-2 0.027 0.25 0.105 1 0.0 0
S1 S-2 0.35 0.003 0.144 1 0.0 0
N1 N-3 0.676 0.25 0.105 1 0.0 4
