#------------------------------------------------------------------------------
#$Date: 2016-02-13 21:28:24 +0200 (Sat, 13 Feb 2016) $
#$Revision: 176429 $
#$URL: svn://www.crystallography.net/cod/cif/7/22/14/7221468.cif $
#------------------------------------------------------------------------------
#
# This file is available in the Crystallography Open Database (COD),
# http://www.crystallography.net/
#
# All data on this site have been placed in the public domain by the
# contributors.
#
data_7221468
loop_
_publ_author_name
'Brechtel, E.'
'Cordier, G.'
'Schaefer, H.'
_publ_section_title
;
 Ueber Oxidpnictide: Zur Kenntnis von Ba2 Mn2 Sb2 O und Ba2 Mn2 Bi2 O
;
_journal_name_full
;
Zeitschrift fuer Naturforschung, Teil B. Anorganische Chemie, Organische 
Chemie (33,1978-41,1986)
;
_journal_page_first              27
_journal_page_last               30
_journal_volume                  36
_journal_year                    1981
_chemical_formula_sum            'Ba2 Mn2 O Sb2'
_chemical_name_systematic        'Ba2 Mn2 Sb2 O'
_space_group_IT_number           194
_symmetry_space_group_name_Hall  '-P 6c 2c'
_symmetry_space_group_name_H-M   'P 63/m m c'
_cell_angle_alpha                90
_cell_angle_beta                 90
_cell_angle_gamma                120
_cell_formula_units_Z            2
_cell_length_a                   4.71
_cell_length_b                   4.71
_cell_length_c                   20.04
_cell_volume                     385.008
_citation_journal_id_ASTM        ZNBAD2
_cod_data_source_file            Brechtel_ZNBAD2_1981_11.cif
_cod_data_source_block           Ba2Mn2O1Sb2
_cod_original_cell_volume        385.0084
_cod_original_formula_sum        'Ba2 Mn2 O1 Sb2'
_cod_database_code               7221468
loop_
_symmetry_equiv_pos_as_xyz
x,y,z
x-y,x,z+1/2
-y,x-y,z
-x,-y,z+1/2
-x+y,-x,z
y,-x+y,z+1/2
-y,-x,-z+1/2
x-y,-y,-z
x,x-y,-z+1/2
y,x,-z
-x+y,y,-z+1/2
-x,-x+y,-z
-x,-y,-z
-x+y,-x,-z-1/2
y,-x+y,-z
x,y,-z-1/2
x-y,x,-z
-y,x-y,-z-1/2
y,x,z-1/2
-x+y,y,z
-x,-x+y,z-1/2
-y,-x,z
x-y,-y,z-1/2
x,x-y,z
loop_
_atom_site_label
_atom_site_type_symbol
_atom_site_fract_x
_atom_site_fract_y
_atom_site_fract_z
_atom_site_occupancy
_atom_site_U_iso_or_equiv
O1 O-2 0.3333 0.6667 0.75 1 0.0
Sb1 Sb-3 0.3333 0.6667 0.3873 1 0.0
Ba1 Ba+2 0 0 0.25 1 0.0
Ba2 Ba+2 0 0 0 1 0.0
Mn1 Mn+2 0.3333 0.6667 0.6495 1 0.0
