#------------------------------------------------------------------------------
#$Date: 2016-02-13 21:28:24 +0200 (Sat, 13 Feb 2016) $
#$Revision: 176429 $
#$URL: svn://www.crystallography.net/cod/cif/7/22/13/7221362.cif $
#------------------------------------------------------------------------------
#
# This file is available in the Crystallography Open Database (COD),
# http://www.crystallography.net/
#
# All data on this site have been placed in the public domain by the
# contributors.
#
data_7221362
loop_
_publ_author_name
'Mewis, A.'
_publ_section_title
;
 A B2 X2-Verbindungen im Ca Al2 Si2-Typ, IV (1) Zur Struktur der
 Verbindungen Ca Zn2 Sb2, Ca Cd2 Sb2, Sr Zn2 Sb2 und Sr Cd2 Sb2
;
_journal_name_full
;
Zeitschrift fuer Naturforschung, Teil B. Anorganische Chemie, Organische 
Chemie (33,1978-41,1986)
;
_journal_page_first              382
_journal_page_last               384
_journal_volume                  33
_journal_year                    1978
_chemical_formula_sum            'Cd2 Sb2 Sr'
_chemical_name_systematic        'Sr Cd2 Sb2'
_space_group_IT_number           164
_symmetry_space_group_name_Hall  '-P 3 2"'
_symmetry_space_group_name_H-M   'P -3 m 1'
_cell_angle_alpha                90
_cell_angle_beta                 90
_cell_angle_gamma                120
_cell_formula_units_Z            1
_cell_length_a                   4.709
_cell_length_b                   4.709
_cell_length_c                   7.822
_cell_volume                     150.212
_citation_journal_id_ASTM        ZNBAD2
_cod_data_source_file            Mewis_ZNBAD2_1978_681.cif
_cod_data_source_block           Cd2Sb2Sr1
_cod_original_cell_volume        150.2124
_cod_original_formula_sum        'Cd2 Sb2 Sr1'
_cod_database_code               7221362
loop_
_symmetry_equiv_pos_as_xyz
x,y,z
-y,x-y,z
-x+y,-x,z
y,x,-z
-x,-x+y,-z
x-y,-y,-z
-x,-y,-z
y,-x+y,-z
x-y,x,-z
-y,-x,z
x,x-y,z
-x+y,y,z
loop_
_atom_site_label
_atom_site_type_symbol
_atom_site_fract_x
_atom_site_fract_y
_atom_site_fract_z
_atom_site_occupancy
_atom_site_U_iso_or_equiv
Sr1 Sr 0 0 0 1 0.0
Cd1 Cd 0.3333 0.6667 0.6308 1 0.0
Sb1 Sb 0.3333 0.6667 0.2508 1 0.0
