#------------------------------------------------------------------------------
#$Date: 2016-02-13 21:28:24 +0200 (Sat, 13 Feb 2016) $
#$Revision: 176429 $
#$URL: svn://www.crystallography.net/cod/cif/7/22/13/7221372.cif $
#------------------------------------------------------------------------------
#
# This file is available in the Crystallography Open Database (COD),
# http://www.crystallography.net/
#
# All data on this site have been placed in the public domain by the
# contributors.
#
data_7221372
loop_
_publ_author_name
'Savelsberg, G.'
'Schaefer, H.'
_publ_section_title
;
 Ternaere Pnictide und Chalkogenide von Alkalimetallen und IB-bzw.
 IIB-Elementen
;
_journal_name_full
;
Zeitschrift fuer Naturforschung, Teil B. Anorganische Chemie, Organische 
Chemie (33,1978-41,1986)
;
_journal_page_first              370
_journal_page_last               377
_journal_volume                  33
_journal_year                    1978
_chemical_formula_sum            'Cu K Se'
_chemical_name_systematic        'K Cu Se'
_space_group_IT_number           194
_symmetry_space_group_name_Hall  '-P 6c 2c'
_symmetry_space_group_name_H-M   'P 63/m m c'
_cell_angle_alpha                90
_cell_angle_beta                 90
_cell_angle_gamma                120
_cell_formula_units_Z            2
_cell_length_a                   4.18
_cell_length_b                   4.18
_cell_length_c                   9.54
_cell_volume                     144.355
_citation_journal_id_ASTM        ZNBAD2
_cod_data_source_file            Savelsberg_ZNBAD2_1978_685.cif
_cod_data_source_block           Cu1K1Se1
_cod_original_cell_volume        144.3549
_cod_original_formula_sum        'Cu1 K1 Se1'
_cod_database_code               7221372
loop_
_symmetry_equiv_pos_as_xyz
x,y,z
x-y,x,z+1/2
-y,x-y,z
-x,-y,z+1/2
-x+y,-x,z
y,-x+y,z+1/2
-y,-x,-z+1/2
x-y,-y,-z
x,x-y,-z+1/2
y,x,-z
-x+y,y,-z+1/2
-x,-x+y,-z
-x,-y,-z
-x+y,-x,-z-1/2
y,-x+y,-z
x,y,-z-1/2
x-y,x,-z
-y,x-y,-z-1/2
y,x,z-1/2
-x+y,y,z
-x,-x+y,z-1/2
-y,-x,z
x-y,-y,z-1/2
x,x-y,z
loop_
_atom_site_label
_atom_site_type_symbol
_atom_site_fract_x
_atom_site_fract_y
_atom_site_fract_z
_atom_site_occupancy
_atom_site_U_iso_or_equiv
Se1 Se 0.3333 0.6667 0.25 1 0.0
K1 K 0 0 0 1 0.0
Cu1 Cu 0.3333 0.6667 0.75 1 0.0
