#------------------------------------------------------------------------------
#$Date: 2016-02-13 21:28:24 +0200 (Sat, 13 Feb 2016) $
#$Revision: 176429 $
#$URL: svn://www.crystallography.net/cod/cif/7/22/13/7221320.cif $
#------------------------------------------------------------------------------
#
# This file is available in the Crystallography Open Database (COD),
# http://www.crystallography.net/
#
# All data on this site have been placed in the public domain by the
# contributors.
#
data_7221320
loop_
_publ_author_name
'Kusainova, A.M.'
'Stefanovich, S.Yu.'
'Dolgikh, V.A.'
'Mosunov, A.V.'
'Hervoches, C.H.'
'Lightfoot, P.'
_publ_section_title
;
 Dielectric properties and structure of Bi4 Nb O8 Cl and Bi4 Ta O8 Cl
;
_journal_name_full               'Journal of Materials Chemistry'
_journal_page_first              1141
_journal_page_last               1145
_journal_volume                  11
_journal_year                    2001
_chemical_formula_sum            'Bi4 Cl Nb O8'
_chemical_name_systematic        'Bi4 Nb O8 Cl'
_space_group_IT_number           33
_symmetry_space_group_name_Hall  'P -2n 2a'
_symmetry_space_group_name_H-M   'P 21 c n'
_cell_angle_alpha                90
_cell_angle_beta                 90
_cell_angle_gamma                90
_cell_formula_units_Z            4
_cell_length_a                   5.4472
_cell_length_b                   5.4901
_cell_length_c                   28.8125
_cell_volume                     861.657
_citation_journal_id_ASTM        JMACEP
_cod_data_source_file            Kusainova_JMACEP_2001_1387.cif
_cod_data_source_block           Bi4Cl1Nb1O8
_cod_original_cell_volume        861.6572
_cod_original_sg_symbol_Hall     'P 2c -2n (z,y,-x)'
_cod_original_formula_sum        'Bi4 Cl1 Nb1 O8'
_cod_database_code               7221320
loop_
_symmetry_equiv_pos_as_xyz
x,y,z
x+1/2,-y,-z
x+1/2,y+1/2,-z+1/2
x,-y+1/2,z+1/2
loop_
_atom_site_label
_atom_site_type_symbol
_atom_site_fract_x
_atom_site_fract_y
_atom_site_fract_z
_atom_site_occupancy
_atom_site_U_iso_or_equiv
O1 O-2 0.771 0.516 0.3947 1 0.0
O6 O-2 0.589 0.744 0.1818 1 0.0
O8 O-2 0.8 -0.055 0.259 1 0.0
Cl1 Cl-1 0.521 0.238 -0.0011 1 0.0
O2 O-2 0.263 0.495 0.3978 1 0.0
Nb1 Nb+5 0.014 0.243 0.2516 1 0.0
Bi2 Bi+3 0.004 0.253 0.4327 1 0.0
Bi4 Bi+3 0.023 0.254 0.0681 1 0.0
O7 O-2 0.299 0.024 0.2358 1 0.0
O3 O-2 0.767 -0.016 0.3918 1 0.0
O4 O-2 0.267 0.004 0.394 1 0.0
Bi1 Bi+3 0 0.814 0.1569 1 0.0
Bi3 Bi+3 0.031 0.779 0.3425 1 0.0
O5 O-2 0.432 0.687 0.3171 1 0.0
