#------------------------------------------------------------------------------
#$Date: 2016-02-13 21:28:24 +0200 (Sat, 13 Feb 2016) $
#$Revision: 176429 $
#$URL: svn://www.crystallography.net/cod/cif/7/22/11/7221169.cif $
#------------------------------------------------------------------------------
#
# This file is available in the Crystallography Open Database (COD),
# http://www.crystallography.net/
#
# All data on this site have been placed in the public domain by the
# contributors.
#
data_7221169
loop_
_publ_author_name
'Puselj, M.'
'Ban, Z.'
_publ_section_title
;
 X-ray studies in the system Ti-Hg-Zn
;
_journal_name_full
;
Zeitschrift fuer Naturforschung, Teil A. Physikalische Chemie, Kosmophysik 
(2,1947-32,1977)
;
_journal_page_first              315
_journal_page_last               315
_journal_volume                  25
_journal_year                    1970
_chemical_formula_sum            'Hg2 Ti Zn'
_chemical_name_systematic        '(Hg2 Zn) Ti'
_space_group_IT_number           221
_symmetry_space_group_name_Hall  '-P 4 2 3'
_symmetry_space_group_name_H-M   'P m -3 m'
_cell_angle_alpha                90
_cell_angle_beta                 90
_cell_angle_gamma                90
_cell_formula_units_Z            1
_cell_length_a                   4.02
_cell_length_b                   4.02
_cell_length_c                   4.02
_cell_volume                     64.965
_citation_journal_id_ASTM        ZENAAU
_cod_data_source_file            Puselj_ZENAAU_1970_676.cif
_cod_data_source_block           Hg2Ti1Zn1
_cod_original_cell_volume        64.96481
_cod_original_formula_sum        'Hg2 Ti1 Zn1'
_cod_database_code               7221169
loop_
_symmetry_equiv_pos_as_xyz
x,y,z
-y,x,z
-x,-y,z
y,-x,z
x,-y,-z
y,x,-z
-x,y,-z
-y,-x,-z
z,x,y
-x,z,y
-z,-x,y
x,-z,y
z,-x,-y
x,z,-y
-z,x,-y
-x,-z,-y
y,z,x
y,-z,-x
z,y,-x
-y,z,-x
-z,-y,-x
-y,-z,x
z,-y,x
-z,y,x
-x,-y,-z
y,-x,-z
x,y,-z
-y,x,-z
-x,y,z
-y,-x,z
x,-y,z
y,x,z
-z,-x,-y
x,-z,-y
z,x,-y
-x,z,-y
-z,x,y
-x,-z,y
z,-x,y
x,z,y
-y,-z,-x
-y,z,x
-z,-y,x
y,-z,x
z,y,x
y,z,-x
-z,y,-x
z,-y,-x
loop_
_atom_site_label
_atom_site_type_symbol
_atom_site_fract_x
_atom_site_fract_y
_atom_site_fract_z
_atom_site_occupancy
_atom_site_U_iso_or_equiv
Zn1 Zn 0 0.5 0.5 0.33 0.0
Ti1 Ti 0 0 0 1 0.0
Hg1 Hg 0 0.5 0.5 0.67 0.0
