#------------------------------------------------------------------------------
#$Date: 2016-02-13 21:28:24 +0200 (Sat, 13 Feb 2016) $
#$Revision: 176429 $
#$URL: svn://www.crystallography.net/cod/cif/7/22/10/7221018.cif $
#------------------------------------------------------------------------------
#
# This file is available in the Crystallography Open Database (COD),
# http://www.crystallography.net/
#
# All data on this site have been placed in the public domain by the
# contributors.
#
data_7221018
loop_
_publ_author_name
'Case, G.S.'
'Hector, A.L.'
'Levason, W.'
'Needs, R.L.'
'Thomas, M.F.'
'Weller, M.T.'
_publ_section_title
;
 Syntheses, powder neutron diffraction structures and Mossbauer studies of
 some complex iron oxyfluorides: Sr3 Fe2 O6 F0.87, Sr2 Fe O3 F and Ba2 In
 Fe O5 F0.68
;
_journal_name_full               'Journal of Materials Chemistry'
_journal_page_first              2821
_journal_page_last               2827
_journal_volume                  9
_journal_year                    1999
_chemical_formula_sum            'Ba F0.318 Fe0.5 In0.5 O2.5'
_chemical_name_systematic        'Ba (In Fe)0.5 O2.5 F0.318'
_space_group_IT_number           221
_symmetry_space_group_name_Hall  '-P 4 2 3'
_symmetry_space_group_name_H-M   'P m -3 m'
_cell_angle_alpha                90
_cell_angle_beta                 90
_cell_angle_gamma                90
_cell_formula_units_Z            1
_cell_length_a                   4.1644
_cell_length_b                   4.1644
_cell_length_c                   4.1644
_cell_volume                     72.220
_citation_journal_id_ASTM        JMACEP
_cod_data_source_file            Case_JMACEP_1999_139.cif
_cod_data_source_block           Ba1F0.318Fe0.5In0.5O2.5
_cod_original_cell_volume        72.21998
_cod_original_formula_sum        'Ba1 F0.318 Fe0.5 In0.5 O2.5'
_cod_database_code               7221018
loop_
_symmetry_equiv_pos_as_xyz
x,y,z
-y,x,z
-x,-y,z
y,-x,z
x,-y,-z
y,x,-z
-x,y,-z
-y,-x,-z
z,x,y
-x,z,y
-z,-x,y
x,-z,y
z,-x,-y
x,z,-y
-z,x,-y
-x,-z,-y
y,z,x
y,-z,-x
z,y,-x
-y,z,-x
-z,-y,-x
-y,-z,x
z,-y,x
-z,y,x
-x,-y,-z
y,-x,-z
x,y,-z
-y,x,-z
-x,y,z
-y,-x,z
x,-y,z
y,x,z
-z,-x,-y
x,-z,-y
z,x,-y
-x,z,-y
-z,x,y
-x,-z,y
z,-x,y
x,z,y
-y,-z,-x
-y,z,x
-z,-y,x
y,-z,x
z,y,x
y,z,-x
-z,y,-x
z,-y,-x
loop_
_atom_site_label
_atom_site_type_symbol
_atom_site_fract_x
_atom_site_fract_y
_atom_site_fract_z
_atom_site_occupancy
_atom_site_U_iso_or_equiv
F1 F-1 0 0 0.5 0.106 0.0
In1 In+3 0 0 0 0.5 0.0
Fe1 Fe+3 0 0 0 0.5 0.0
Ba1 Ba+2 0.5 0.5 0.5 1 0.0
O1 O-2 0 0 0.5 0.833 0.0
