#------------------------------------------------------------------------------
#$Date: 2015-07-11 23:58:57 +0300 (Sat, 11 Jul 2015) $
#$Revision: 146433 $
#$URL: svn://www.crystallography.net/cod/cif/7/22/12/7221264.cif $
#------------------------------------------------------------------------------
#
# This file is available in the Crystallography Open Database (COD),
# http://www.crystallography.net/
#
# All data on this site have been placed in the public domain by the
# contributors.
#
data_7221264
loop_
_publ_author_name
'Westerhaus, W.'
'Schuster, H.U.'
_publ_section_title
;
 Darstellung und Struktur weiterer ternaerer Phasen mit modifizierter K8
 Ge46 - Kaefigstruktur
;
_journal_name_full
;
Zeitschrift fuer Naturforschung, Teil B. Anorganische Chemie, Organische 
Chemie (2,1947-32,1977)
;
_journal_page_first              1365
_journal_page_last               1367
_journal_volume                  32
_journal_year                    1977
_chemical_formula_sum            'Ga23 Ge23 K8'
_chemical_name_systematic        'K8 Ga23 Ge23'
_space_group_IT_number           223
_symmetry_space_group_name_Hall  '-P 4n 2 3'
_symmetry_space_group_name_H-M   'P m -3 n'
_cell_angle_alpha                90
_cell_angle_beta                 90
_cell_angle_gamma                90
_cell_formula_units_Z            1
_cell_length_a                   10.762
_cell_length_b                   10.762
_cell_length_c                   10.762
_cell_volume                     1246.462
_citation_journal_id_ASTM        ZENBAX
_cod_data_source_file            Westerhaus_ZENBAX_1977_173.cif
_cod_data_source_block           Ga23Ge23K8
_cod_database_code               7221264
loop_
_symmetry_equiv_pos_as_xyz
x,y,z
-y+1/2,x+1/2,z+1/2
-x,-y,z
y+1/2,-x+1/2,z+1/2
x,-y,-z
y+1/2,x+1/2,-z+1/2
-x,y,-z
-y+1/2,-x+1/2,-z+1/2
z,x,y
-x+1/2,z+1/2,y+1/2
-z,-x,y
x+1/2,-z+1/2,y+1/2
z,-x,-y
x+1/2,z+1/2,-y+1/2
-z,x,-y
-x+1/2,-z+1/2,-y+1/2
y,z,x
y,-z,-x
z+1/2,y+1/2,-x+1/2
-y,z,-x
-z+1/2,-y+1/2,-x+1/2
-y,-z,x
z+1/2,-y+1/2,x+1/2
-z+1/2,y+1/2,x+1/2
-x,-y,-z
y-1/2,-x-1/2,-z-1/2
x,y,-z
-y-1/2,x-1/2,-z-1/2
-x,y,z
-y-1/2,-x-1/2,z-1/2
x,-y,z
y-1/2,x-1/2,z-1/2
-z,-x,-y
x-1/2,-z-1/2,-y-1/2
z,x,-y
-x-1/2,z-1/2,-y-1/2
-z,x,y
-x-1/2,-z-1/2,y-1/2
z,-x,y
x-1/2,z-1/2,y-1/2
-y,-z,-x
-y,z,x
-z-1/2,-y-1/2,x-1/2
y,-z,x
z-1/2,y-1/2,x-1/2
y,z,-x
-z-1/2,y-1/2,-x-1/2
z-1/2,-y-1/2,-x-1/2
loop_
_atom_site_label
_atom_site_type_symbol
_atom_site_fract_x
_atom_site_fract_y
_atom_site_fract_z
_atom_site_occupancy
_atom_site_U_iso_or_equiv
Ge3 Ge 0 0.307 0.118 0.5 0.0
Ge1 Ge 0.25 0 0.5 0.5 0.0
Ga2 Ga 0.185 0.185 0.185 0.5 0.0
Ge2 Ge 0.185 0.185 0.185 0.5 0.0
Ga3 Ga 0 0.307 0.118 0.5 0.0
Ga1 Ga 0.25 0 0.5 0.5 0.0
K1 K 0 0 0 1 0.0
K2 K 0.25 0.5 0 1 0.0
