#------------------------------------------------------------------------------
#$Date: 2016-02-13 21:28:24 +0200 (Sat, 13 Feb 2016) $
#$Revision: 176429 $
#$URL: svn://www.crystallography.net/cod/cif/7/22/12/7221254.cif $
#------------------------------------------------------------------------------
#
# This file is available in the Crystallography Open Database (COD),
# http://www.crystallography.net/
#
# All data on this site have been placed in the public domain by the
# contributors.
#
data_7221254
loop_
_publ_author_name
'Tiburtius, C.'
'Schuster, H.U.'
_publ_section_title
;
 Na Be As (Sb) - ternaere Phasen im 'aufgefuellten' Ni As (Ni2 In)-Typ
;
_journal_name_full
;
Zeitschrift fuer Naturforschung, Teil B. Anorganische Chemie, Organische 
Chemie (2,1947-32,1977)
;
_journal_page_first              1133
_journal_page_last               1138
_journal_volume                  32
_journal_year                    1977
_chemical_formula_sum            'Be Na Sb'
_chemical_name_systematic        'Na Be Sb'
_space_group_IT_number           194
_symmetry_space_group_name_Hall  '-P 6c 2c'
_symmetry_space_group_name_H-M   'P 63/m m c'
_cell_angle_alpha                90
_cell_angle_beta                 90
_cell_angle_gamma                120
_cell_formula_units_Z            2
_cell_length_a                   4.144
_cell_length_b                   4.144
_cell_length_c                   9.32
_cell_volume                     138.607
_citation_journal_id_ASTM        ZENBAX
_cod_data_source_file            Tiburtius_ZENBAX_1977_170.cif
_cod_data_source_block           Be1Na1Sb1
_cod_original_cell_volume        138.6073
_cod_original_formula_sum        'Be1 Na1 Sb1'
_cod_database_code               7221254
loop_
_symmetry_equiv_pos_as_xyz
x,y,z
x-y,x,z+1/2
-y,x-y,z
-x,-y,z+1/2
-x+y,-x,z
y,-x+y,z+1/2
-y,-x,-z+1/2
x-y,-y,-z
x,x-y,-z+1/2
y,x,-z
-x+y,y,-z+1/2
-x,-x+y,-z
-x,-y,-z
-x+y,-x,-z-1/2
y,-x+y,-z
x,y,-z-1/2
x-y,x,-z
-y,x-y,-z-1/2
y,x,z-1/2
-x+y,y,z
-x,-x+y,z-1/2
-y,-x,z
x-y,-y,z-1/2
x,x-y,z
loop_
_atom_site_label
_atom_site_type_symbol
_atom_site_fract_x
_atom_site_fract_y
_atom_site_fract_z
_atom_site_occupancy
_atom_site_U_iso_or_equiv
Sb1 Sb-3 0.3333 0.6667 0.25 1 0.0
Be1 Be+2 0.3333 0.6667 0.75 1 0.0
Na1 Na+1 0 0 0 1 0.0
