#------------------------------------------------------------------------------
#$Date: 2016-02-13 21:28:24 +0200 (Sat, 13 Feb 2016) $
#$Revision: 176429 $
#$URL: svn://www.crystallography.net/cod/cif/7/22/27/7222780.cif $
#------------------------------------------------------------------------------
#
# This file is available in the Crystallography Open Database (COD),
# http://www.crystallography.net/
#
# All data on this site have been placed in the public domain by the
# contributors.
#
data_7222780
loop_
_publ_author_name
'Kraft, R.'
'Kotzyba, G.'
'Hoffmann, R.D.'
'Poettgen, R.'
_publ_section_title
;
 Structure and Magnetism of REPtMg (RE = Pr, Nd, Sm)
;
_journal_name_full
;
Zeitschrift fuer Naturforschung, Teil B. Anorganische Chemie, Organische 
Chemie (42,1987-)
;
_journal_page_first              488
_journal_page_last               494
_journal_volume                  57
_journal_year                    2002
_chemical_formula_sum            'Mg Nd Pt'
_chemical_name_systematic        'Nd Pt Mg'
_space_group_IT_number           189
_symmetry_space_group_name_Hall  'P -6 -2'
_symmetry_space_group_name_H-M   'P -6 2 m'
_cell_angle_alpha                90
_cell_angle_beta                 90
_cell_angle_gamma                120
_cell_formula_units_Z            3
_cell_length_a                   7.488
_cell_length_b                   7.488
_cell_length_c                   4.1152
_cell_volume                     199.827
_citation_journal_id_ASTM        ZNBSEN
_cod_data_source_file            Kraft_ZNBSEN_2002_553.cif
_cod_data_source_block           Mg1Nd1Pt1
_cod_original_cell_volume        199.8266
_cod_original_formula_sum        'Mg1 Nd1 Pt1'
_cod_database_code               7222780
loop_
_symmetry_equiv_pos_as_xyz
x,y,z
-x+y,-x,-z
-y,x-y,z
x,y,-z
-x+y,-x,z
-y,x-y,-z
y,x,z
x-y,-y,-z
-x,-x+y,z
y,x,-z
x-y,-y,z
-x,-x+y,-z
loop_
_atom_site_label
_atom_site_type_symbol
_atom_site_fract_x
_atom_site_fract_y
_atom_site_fract_z
_atom_site_occupancy
_atom_site_U_iso_or_equiv
Pt1 Pt 0.3333 0.6667 0.5 1 0.0
Mg1 Mg 0.2414 0 0.5 1 0.0
Pt2 Pt 0 0 0 1 0.0
Nd1 Nd 0.58663 0 0 1 0.0
