#------------------------------------------------------------------------------
#$Date: 2016-02-13 21:28:24 +0200 (Sat, 13 Feb 2016) $
#$Revision: 176429 $
#$URL: svn://www.crystallography.net/cod/cif/7/22/27/7222767.cif $
#------------------------------------------------------------------------------
#
# This file is available in the Crystallography Open Database (COD),
# http://www.crystallography.net/
#
# All data on this site have been placed in the public domain by the
# contributors.
#
data_7222767
loop_
_publ_author_name
'Reckeweg, O.'
'Simon, A.'
_publ_section_title
;
 X-ray and Raman investigations on cyanides of mono- and divalent metals
 and synthesis, crystal structure and Raman spectrum of Tl5 (C O3)2 (C N)
;
_journal_name_full
;
Zeitschrift fuer Naturforschung, Teil B. Anorganische Chemie, Organische 
Chemie (42,1987-)
;
_journal_page_first              895
_journal_page_last               900
_journal_volume                  57
_journal_year                    2002
_chemical_formula_sum            'C2 N2 Zn'
_chemical_name_systematic        'Zn (C N)2'
_space_group_IT_number           224
_symmetry_space_group_name_Hall  '-P 4bc 2bc 3'
_symmetry_space_group_name_H-M   'P n -3 m :2'
_cell_angle_alpha                90
_cell_angle_beta                 90
_cell_angle_gamma                90
_cell_formula_units_Z            2
_cell_length_a                   5.9132
_cell_length_b                   5.9132
_cell_length_c                   5.9132
_cell_volume                     206.761
_citation_journal_id_ASTM        ZNBSEN
_cod_data_source_file            Reckeweg_ZNBSEN_2002_528.cif
_cod_data_source_block           C2N2Zn1
_cod_original_cell_volume        206.7606
_cod_original_formula_sum        'C2 N2 Zn1'
_cod_database_code               7222767
loop_
_symmetry_equiv_pos_as_xyz
x,y,z
-y,x+1/2,z+1/2
-x+1/2,-y+1/2,z
y+1/2,-x,z+1/2
x,-y+1/2,-z+1/2
y+1/2,x+1/2,-z
-x+1/2,y,-z+1/2
-y,-x,-z
z,x,y
-x,z+1/2,y+1/2
-z+1/2,-x+1/2,y
x+1/2,-z,y+1/2
z,-x+1/2,-y+1/2
x+1/2,z+1/2,-y
-z+1/2,x,-y+1/2
-x,-z,-y
y,z,x
y,-z+1/2,-x+1/2
z+1/2,y+1/2,-x
-y+1/2,z,-x+1/2
-z,-y,-x
-y+1/2,-z+1/2,x
z+1/2,-y,x+1/2
-z,y+1/2,x+1/2
-x,-y,-z
y,-x-1/2,-z-1/2
x-1/2,y-1/2,-z
-y-1/2,x,-z-1/2
-x,y-1/2,z-1/2
-y-1/2,-x-1/2,z
x-1/2,-y,z-1/2
y,x,z
-z,-x,-y
x,-z-1/2,-y-1/2
z-1/2,x-1/2,-y
-x-1/2,z,-y-1/2
-z,x-1/2,y-1/2
-x-1/2,-z-1/2,y
z-1/2,-x,y-1/2
x,z,y
-y,-z,-x
-y,z-1/2,x-1/2
-z-1/2,-y-1/2,x
y-1/2,-z,x-1/2
z,y,x
y-1/2,z-1/2,-x
-z-1/2,y,-x-1/2
z,-y-1/2,-x-1/2
loop_
_atom_site_label
_atom_site_type_symbol
_atom_site_fract_x
_atom_site_fract_y
_atom_site_fract_z
_atom_site_occupancy
_atom_site_U_iso_or_equiv
Zn1 Zn+2 0.25 0.25 0.25 1 0.0
C1 C+2 0.05587 0.44413 0.05587 0.5 0.0
N1 N-3 0.05587 0.44413 0.05587 0.5 0.0
