#------------------------------------------------------------------------------
#$Date: 2015-10-10 05:58:27 +0300 (Sat, 10 Oct 2015) $
#$Revision: 164561 $
#$URL: svn://www.crystallography.net/cod/cif/7/22/27/7222727.cif $
#------------------------------------------------------------------------------
#
# This file is available in the Crystallography Open Database (COD),
# http://www.crystallography.net/
#
# All data on this site have been placed in the public domain by the
# contributors.
#
data_7222727
loop_
_publ_author_name
'Klepp, K.O.'
'Harringer, N.A.'
'Kolb, A.'
_publ_section_title
;
 K1.10 Zr2 Se6, Rb0.86 Zr2 Se6 and Cs0.80 Zr2 Se6. The first intercalation
 compounds of zirconium triselenide
;
_journal_name_full
;
Zeitschrift fuer Naturforschung, Teil B. Anorganische Chemie, Organische 
Chemie (42,1987-)
;
_journal_page_first              1265
_journal_page_last               1269
_journal_volume                  57
_journal_year                    2002
_chemical_formula_sum            'K1.1 Se6 Zr2'
_chemical_name_systematic        'K1.10 (Zr2 Se6)'
_space_group_IT_number           71
_symmetry_space_group_name_Hall  '-I 2 2'
_symmetry_space_group_name_H-M   'I m m m'
_cell_angle_alpha                90
_cell_angle_beta                 90
_cell_angle_gamma                90
_cell_formula_units_Z            2
_cell_length_a                   3.746
_cell_length_b                   5.354
_cell_length_c                   21.929
_cell_volume                     439.810
_citation_journal_id_ASTM        ZNBSEN
_cod_data_source_file            Klepp_ZNBSEN_2002_778.cif
_cod_data_source_block           K1.1Se6Zr2
_cod_original_cell_volume        439.8099
_cod_database_code               7222727
loop_
_symmetry_equiv_pos_as_xyz
x,y,z
-x,-y,z
x,-y,-z
-x,y,-z
-x,-y,-z
x,y,-z
-x,y,z
x,-y,z
x+1/2,y+1/2,z+1/2
-x+1/2,-y+1/2,z+1/2
x+1/2,-y+1/2,-z+1/2
-x+1/2,y+1/2,-z+1/2
-x+1/2,-y+1/2,-z+1/2
x+1/2,y+1/2,-z+1/2
-x+1/2,y+1/2,z+1/2
x+1/2,-y+1/2,z+1/2
loop_
_atom_site_label
_atom_site_type_symbol
_atom_site_fract_x
_atom_site_fract_y
_atom_site_fract_z
_atom_site_occupancy
_atom_site_U_iso_or_equiv
K1 K+1 0 0 0 0.64 0.0
Se1 Se-2 0 0 0.2287 1 0.0
K2 K+1 0 0.5 0 0.46 0.0
Zr1 Zr+4 0.5 0 0.3186 1 0.0
Se2 Se-1 0 -0.2431 0.38953 1 0.0
