#------------------------------------------------------------------------------
#$Date: 2018-09-27 07:13:35 +0300 (Thu, 27 Sep 2018) $
#$Revision: 211196 $
#$URL: file:///home/coder/svn-repositories/cod/cif/7/22/29/7222930.cif $
#------------------------------------------------------------------------------
#
# This file is available in the Crystallography Open Database (COD),
# http://www.crystallography.net/
#
# All data on this site have been placed in the public domain by the
# contributors.
#
data_7222930
loop_
_publ_author_name
'Schuster, H.U.'
'Bockelmann, E.'
_publ_section_title
;
 Ternaere Lithiumverbindungen des Indiums ud Galliums mit Elementen der 4.
 Hauptgruppe
;
_journal_name_full
;
Zeitschrift fuer Naturforschung, Teil B. Anorganische Chemie, Organische 
Chemie (2,1947-32,1977)
;
_journal_page_first              1189
_journal_page_last               1189
_journal_volume                  24
_journal_year                    1969
_chemical_formula_sum            'In Li Sn'
_space_group_IT_number           216
_symmetry_space_group_name_Hall  'F -4 2 3'
_symmetry_space_group_name_H-M   'F -4 3 m'
_cell_angle_alpha                90
_cell_angle_beta                 90
_cell_angle_gamma                90
_cell_formula_units_Z            4
_cell_length_a                   6.676
_cell_length_b                   6.676
_cell_length_c                   6.676
_cell_volume                     297.542
_citation_journal_id_ASTM        ZENBAX
_cod_data_source_file            Schuster_ZENBAX_1969_228.cif
_cod_data_source_block           In1Li1Sn1
_cod_original_cell_volume        297.5425
_cod_original_formula_sum        'In1 Li1 Sn1'
_cod_database_code               7222930
loop_
_symmetry_equiv_pos_as_xyz
x,y,z
y,-x,-z
-x,-y,z
-y,x,-z
x,-y,-z
-y,-x,z
-x,y,-z
y,x,z
z,x,y
x,-z,-y
-z,-x,y
-x,z,-y
z,-x,-y
-x,-z,y
-z,x,-y
x,z,y
y,z,x
y,-z,-x
-z,-y,x
-y,z,-x
z,y,x
-y,-z,x
-z,y,-x
z,-y,-x
x,y+1/2,z+1/2
y,-x+1/2,-z+1/2
-x,-y+1/2,z+1/2
-y,x+1/2,-z+1/2
x,-y+1/2,-z+1/2
-y,-x+1/2,z+1/2
-x,y+1/2,-z+1/2
y,x+1/2,z+1/2
z,x+1/2,y+1/2
x,-z+1/2,-y+1/2
-z,-x+1/2,y+1/2
-x,z+1/2,-y+1/2
z,-x+1/2,-y+1/2
-x,-z+1/2,y+1/2
-z,x+1/2,-y+1/2
x,z+1/2,y+1/2
y,z+1/2,x+1/2
y,-z+1/2,-x+1/2
-z,-y+1/2,x+1/2
-y,z+1/2,-x+1/2
z,y+1/2,x+1/2
-y,-z+1/2,x+1/2
-z,y+1/2,-x+1/2
z,-y+1/2,-x+1/2
x+1/2,y,z+1/2
y+1/2,-x,-z+1/2
-x+1/2,-y,z+1/2
-y+1/2,x,-z+1/2
x+1/2,-y,-z+1/2
-y+1/2,-x,z+1/2
-x+1/2,y,-z+1/2
y+1/2,x,z+1/2
z+1/2,x,y+1/2
x+1/2,-z,-y+1/2
-z+1/2,-x,y+1/2
-x+1/2,z,-y+1/2
z+1/2,-x,-y+1/2
-x+1/2,-z,y+1/2
-z+1/2,x,-y+1/2
x+1/2,z,y+1/2
y+1/2,z,x+1/2
y+1/2,-z,-x+1/2
-z+1/2,-y,x+1/2
-y+1/2,z,-x+1/2
z+1/2,y,x+1/2
-y+1/2,-z,x+1/2
-z+1/2,y,-x+1/2
z+1/2,-y,-x+1/2
x+1/2,y+1/2,z
y+1/2,-x+1/2,-z
-x+1/2,-y+1/2,z
-y+1/2,x+1/2,-z
x+1/2,-y+1/2,-z
-y+1/2,-x+1/2,z
-x+1/2,y+1/2,-z
y+1/2,x+1/2,z
z+1/2,x+1/2,y
x+1/2,-z+1/2,-y
-z+1/2,-x+1/2,y
-x+1/2,z+1/2,-y
z+1/2,-x+1/2,-y
-x+1/2,-z+1/2,y
-z+1/2,x+1/2,-y
x+1/2,z+1/2,y
y+1/2,z+1/2,x
y+1/2,-z+1/2,-x
-z+1/2,-y+1/2,x
-y+1/2,z+1/2,-x
z+1/2,y+1/2,x
-y+1/2,-z+1/2,x
-z+1/2,y+1/2,-x
z+1/2,-y+1/2,-x
loop_
_atom_site_label
_atom_site_type_symbol
_atom_site_fract_x
_atom_site_fract_y
_atom_site_fract_z
_atom_site_occupancy
_atom_site_U_iso_or_equiv
Li1 Li 0.5 0.5 0.5 1 0.0
Sn1 Sn 0 0 0 1 0.0
In1 In 0.25 0.25 0.25 1 0.0
