#------------------------------------------------------------------------------
#$Date: 2016-02-13 21:28:24 +0200 (Sat, 13 Feb 2016) $
#$Revision: 176429 $
#$URL: svn://www.crystallography.net/cod/cif/7/22/25/7222562.cif $
#------------------------------------------------------------------------------
#
# This file is available in the Crystallography Open Database (COD),
# http://www.crystallography.net/
#
# All data on this site have been placed in the public domain by the
# contributors.
#
data_7222562
loop_
_publ_author_name
'Strobel, S.'
'Lauxmann, P.'
'Schleid, T.'
_publ_section_title
;
 Muenzmetall-Lanthanid-Chalkogenide:I. Kupfer(I)-Lanthanid(III)-Sulfide
 der Zusammensetzung Cu M S2(M = La - Nd, Sm, Gd, Tb) im monoklinen A-Typ
;
_journal_name_full
;
Zeitschrift fuer Naturforschung, Teil B. Anorganische Chemie, Organische 
Chemie (42,1987-)
;
_journal_page_first              917
_journal_page_last               923
_journal_volume                  60
_journal_year                    2005
_chemical_formula_sum            'Ce Cu S2'
_chemical_name_systematic        'Cu Ce S2'
_space_group_IT_number           14
_symmetry_space_group_name_Hall  '-P 2ybc'
_symmetry_space_group_name_H-M   'P 1 21/c 1'
_cell_angle_alpha                90
_cell_angle_beta                 98.702
_cell_angle_gamma                90
_cell_formula_units_Z            4
_cell_length_a                   6.5869
_cell_length_b                   7.2673
_cell_length_c                   6.8964
_cell_volume                     326.323
_citation_journal_id_ASTM        ZNBSEN
_cod_data_source_file            Strobel_ZNBSEN_2005_1920.cif
_cod_data_source_block           Ce1Cu1S2
_cod_original_cell_volume        326.3235
_cod_original_formula_sum        'Ce1 Cu1 S2'
_cod_database_code               7222562
loop_
_symmetry_equiv_pos_as_xyz
x,y,z
-x,y+1/2,-z+1/2
-x,-y,-z
x,-y-1/2,z-1/2
loop_
_atom_site_label
_atom_site_type_symbol
_atom_site_fract_x
_atom_site_fract_y
_atom_site_fract_z
_atom_site_occupancy
_atom_site_U_iso_or_equiv
Ce1 Ce+3 0.80782 0.05306 0.19776 1 0.0
S1 S-2 0.4113 0.616 0.7197 1 0.0
Cu1 Cu+1 0.41293 0.15529 0.43545 1 0.0
S2 S-2 0.0856 0.228 0.5014 1 0.0
