#------------------------------------------------------------------------------
#$Date: 2018-09-27 07:13:35 +0300 (Thu, 27 Sep 2018) $
#$Revision: 211196 $
#$URL: file:///home/coder/svn-repositories/cod/cif/7/22/26/7222675.cif $
#------------------------------------------------------------------------------
#
# This file is available in the Crystallography Open Database (COD),
# http://www.crystallography.net/
#
# All data on this site have been placed in the public domain by the
# contributors.
#
data_7222675
loop_
_publ_author_name
'Wartenberg, F.'
'Kranenberg, C.'
'Johrendt, D.'
'Pocha, R.'
'Mewis, A.'
'Hoffmann, R.D.'
'Poettgen, R.'
'Mosel, B.D.'
_publ_section_title
;
 Neue Pnictide im (Ca Al2 Si2)-Typ und dessen Existenzgebiet
;
_journal_name_full
;
Zeitschrift fuer Naturforschung, Teil B. Anorganische Chemie, Organische 
Chemie (42,1987-)
;
_journal_page_first              1270
_journal_page_last               1276
_journal_volume                  57
_journal_year                    2002
_chemical_formula_sum            'Eu Mg2 Sb2'
_space_group_IT_number           164
_symmetry_space_group_name_Hall  '-P 3 2"'
_symmetry_space_group_name_H-M   'P -3 m 1'
_cell_angle_alpha                90
_cell_angle_beta                 90
_cell_angle_gamma                120
_cell_formula_units_Z            1
_cell_length_a                   4.695
_cell_length_b                   4.695
_cell_length_c                   7.724
_cell_volume                     147.450
_citation_journal_id_ASTM        ZNBSEN
_cod_data_source_file            Wartenberg_ZNBSEN_2002_744.cif
_cod_data_source_block           Eu1Mg2Sb2
_cod_original_cell_volume        147.4498
_cod_original_formula_sum        'Eu1 Mg2 Sb2'
_cod_database_code               7222675
loop_
_symmetry_equiv_pos_as_xyz
x,y,z
-y,x-y,z
-x+y,-x,z
y,x,-z
-x,-x+y,-z
x-y,-y,-z
-x,-y,-z
y,-x+y,-z
x-y,x,-z
-y,-x,z
x,x-y,z
-x+y,y,z
loop_
_atom_site_label
_atom_site_type_symbol
_atom_site_fract_x
_atom_site_fract_y
_atom_site_fract_z
_atom_site_occupancy
_atom_site_U_iso_or_equiv
Mg1 Mg -0.6667 0.6667 -0.3692 1 0.0
Sb1 Sb -0.3333 0.3333 -0.2529 1 0.0
Eu1 Eu 0 0 0 1 0.0
