#------------------------------------------------------------------------------
#$Date: 2018-09-27 07:13:35 +0300 (Thu, 27 Sep 2018) $
#$Revision: 211196 $
#$URL: file:///home/coder/svn-repositories/cod/cif/7/22/25/7222565.cif $
#------------------------------------------------------------------------------
#
# This file is available in the Crystallography Open Database (COD),
# http://www.crystallography.net/
#
# All data on this site have been placed in the public domain by the
# contributors.
#
data_7222565
loop_
_publ_author_name
'Strobel, S.'
'Schleid, T.'
'Lauxmann, P.'
_publ_section_title
;
 Muenzmetall-Lanthanid-Chalkogenide:I. Kupfer(I)-Lanthanid(III)-Sulfide
 der Zusammensetzung Cu M S2(M = La - Nd, Sm, Gd, Tb) im monoklinen A-Typ
;
_journal_name_full
;
Zeitschrift fuer Naturforschung, Teil B. Anorganische Chemie, Organische 
Chemie (42,1987-)
;
_journal_page_first              917
_journal_page_last               923
_journal_volume                  60
_journal_year                    2005
_chemical_formula_sum            'Cu Nd S2'
_space_group_IT_number           14
_symmetry_space_group_name_Hall  '-P 2ybc'
_symmetry_space_group_name_H-M   'P 1 21/c 1'
_cell_angle_alpha                90
_cell_angle_beta                 98.538
_cell_angle_gamma                90
_cell_formula_units_Z            4
_cell_length_a                   6.5291
_cell_length_b                   7.1856
_cell_length_c                   6.8372
_cell_volume                     317.216
_citation_journal_id_ASTM        ZNBSEN
_cod_data_source_file            Strobel_ZNBSEN_2005_1923.cif
_cod_data_source_block           Cu1Nd1S2
_cod_original_cell_volume        317.2158
_cod_original_formula_sum        'Cu1 Nd1 S2'
_cod_database_code               7222565
loop_
_symmetry_equiv_pos_as_xyz
x,y,z
-x,y+1/2,-z+1/2
-x,-y,-z
x,-y-1/2,z-1/2
loop_
_atom_site_label
_atom_site_type_symbol
_atom_site_fract_x
_atom_site_fract_y
_atom_site_fract_z
_atom_site_occupancy
_atom_site_U_iso_or_equiv
Nd1 Nd+3 0.8074 0.05211 0.19748 1 0.0
S1 S-2 0.4115 0.61591 0.71912 1 0.0
Cu1 Cu+1 0.41284 0.15604 0.43767 1 0.0
S2 S-2 0.08125 0.228 0.50074 1 0.0
