#------------------------------------------------------------------------------
#$Date: 2015-10-09 18:37:05 +0300 (Fri, 09 Oct 2015) $
#$Revision: 162424 $
#$URL: svn://www.crystallography.net/cod/cif/7/22/25/7222543.cif $
#------------------------------------------------------------------------------
#
# This file is available in the Crystallography Open Database (COD),
# http://www.crystallography.net/
#
# All data on this site have been placed in the public domain by the
# contributors.
#
data_7222543
loop_
_publ_author_name
'Meier, S.F.'
'Schleid, T.'
_publ_section_title
;
 Oxotellurate(IV) der Lanthanide: I. Die isotype Reihe M2 Te4 O11 (M =
 La-Nd, Sm-Yb)
;
_journal_name_full
;
Zeitschrift fuer Naturforschung, Teil B. Anorganische Chemie, Organische 
Chemie (42,1987-)
;
_journal_page_first              881
_journal_page_last               888
_journal_volume                  59
_journal_year                    2004
_chemical_formula_sum            'O11 Pr2 Te4'
_chemical_name_systematic        'Pr2 Te4 O11'
_space_group_IT_number           15
_symmetry_space_group_name_Hall  '-C 2yc'
_symmetry_space_group_name_H-M   'C 1 2/c 1'
_cell_angle_alpha                90
_cell_angle_beta                 106.045
_cell_angle_gamma                90
_cell_formula_units_Z            4
_cell_length_a                   12.5609
_cell_length_b                   5.1758
_cell_length_c                   16.2047
_cell_volume                     1012.472
_citation_journal_id_ASTM        ZNBSEN
_cod_data_source_file            Meier_ZNBSEN_2004_1350.cif
_cod_data_source_block           O11Pr2Te4
_cod_database_code               7222543
loop_
_symmetry_equiv_pos_as_xyz
x,y,z
-x,y,-z+1/2
-x,-y,-z
x,-y,z-1/2
x+1/2,y+1/2,z
-x+1/2,y+1/2,-z+1/2
-x+1/2,-y+1/2,-z
x+1/2,-y+1/2,z-1/2
loop_
_atom_site_label
_atom_site_type_symbol
_atom_site_fract_x
_atom_site_fract_y
_atom_site_fract_z
_atom_site_occupancy
_atom_site_U_iso_or_equiv
O2 O-2 0.2064 0.5387 0.442 1 0.0
O4 O-2 0.4732 0.0956 0.3987 1 0.0
O5 O-2 0.3526 0.5546 0.3273 1 0.0
Te1 Te+4 0.12967 0.27716 0.37177 1 0.0
Te2 Te+4 0.11975 0.73008 0.20294 1 0.0
Pr1 Pr+3 0.11912 0.2553 0.03775 1 0.0
O3 O-2 0.0724 0.1216 0.4529 1 0.0
O1 O-2 0.2492 0.065 0.3704 1 0.0
O6 O-2 0 0.8534 0.25 1 0.0
