#------------------------------------------------------------------------------
#$Date: 2015-09-18 01:02:27 +0300 (Fri, 18 Sep 2015) $
#$Revision: 157271 $
#$URL: svn://www.crystallography.net/cod/cif/7/22/21/7222192.cif $
#------------------------------------------------------------------------------
#
# This file is available in the Crystallography Open Database (COD),
# http://www.crystallography.net/
#
# All data on this site have been placed in the public domain by the
# contributors.
#
data_7222192
loop_
_publ_author_name
'le Berre, F.'
'Crosnier-Lopez, M.P.'
'Laligant, Y.'
'Fourquet, J.L.'
_publ_section_title
;
 Synthesis and crystal structure of K2 Sr1.5 Ta3 O10 and K2 Sr1.5 Ta3 O10
 * (H2 O): two new layered perovskite compounds
;
_journal_name_full               'Journal of Materials Chemistry'
_journal_page_first              258
_journal_page_last               263
_journal_volume                  12
_journal_year                    2002
_chemical_formula_sum            'H2 K2 O11 Sr1.5 Ta3'
_chemical_name_systematic        'K2 Sr1.5 Ta3 O10 (H2 O)'
_space_group_IT_number           123
_symmetry_space_group_name_Hall  '-P 4 2'
_symmetry_space_group_name_H-M   'P 4/m m m'
_cell_angle_alpha                90
_cell_angle_beta                 90
_cell_angle_gamma                90
_cell_formula_units_Z            1
_cell_length_a                   3.9499
_cell_length_b                   3.9499
_cell_length_c                   17.031
_cell_volume                     265.713
_citation_journal_id_ASTM        JMACEP
_cod_data_source_file            leBerre_JMACEP_2002_611.cif
_cod_data_source_block           H2K2O11Sr1.5Ta3
_cod_original_cell_volume        265.7127
_cod_database_code               7222192
loop_
_symmetry_equiv_pos_as_xyz
x,y,z
-y,x,z
-x,-y,z
y,-x,z
x,-y,-z
y,x,-z
-x,y,-z
-y,-x,-z
-x,-y,-z
y,-x,-z
x,y,-z
-y,x,-z
-x,y,z
-y,-x,z
x,-y,z
y,x,z
loop_
_atom_site_label
_atom_site_type_symbol
_atom_site_fract_x
_atom_site_fract_y
_atom_site_fract_z
_atom_site_occupancy
_atom_site_U_iso_or_equiv
O4 O-2 0 0 0.366 1 0.0
Ta1 Ta+5 0 0 0 1 0.0
K1 K+1 0.5 0.5 0.3924 0.84 0.0
O2 O-2 0 0 0.123 1 0.0
Ta2 Ta+5 0 0 0.2477 1 0.0
K2 K+1 0.5 0.5 0.1247 0.16 0.0
O5 O-2 0 0 0.5 1 0.0
O3 O-2 0 0.5 0.239 1 0.0
O1 O-2 0 0.5 0 1 0.0
Sr1 Sr+2 0.5 0.5 0.1247 0.75 0.0
