#------------------------------------------------------------------------------
#$Date: 2016-02-13 21:28:24 +0200 (Sat, 13 Feb 2016) $
#$Revision: 176429 $
#$URL: svn://www.crystallography.net/cod/cif/7/22/26/7222629.cif $
#------------------------------------------------------------------------------
#
# This file is available in the Crystallography Open Database (COD),
# http://www.crystallography.net/
#
# All data on this site have been placed in the public domain by the
# contributors.
#
data_7222629
loop_
_publ_author_name
'Brodersen, K.'
'Ruedorff, W.'
_publ_section_title
;
 Ueber die Struktur des Hg2 N H Br2
;
_journal_name_full
;
Zeitschrift fuer Naturforschung, Teil B. Anorganische Chemie, Organische 
Chemie (2,1947-32,1977)
;
_journal_page_first              164
_journal_page_last               164
_journal_volume                  9
_journal_year                    1954
_chemical_formula_sum            'Br2 H Hg2 N'
_chemical_name_systematic        'Hg2 (N H) Br2'
_space_group_IT_number           150
_symmetry_space_group_name_Hall  'P 3 2"'
_symmetry_space_group_name_H-M   'P 3 2 1'
_cell_angle_alpha                90
_cell_angle_beta                 90
_cell_angle_gamma                120
_cell_formula_units_Z            2
_cell_length_a                   6.985
_cell_length_b                   6.985
_cell_length_c                   6.165
_cell_volume                     260.493
_citation_journal_id_ASTM        ZENBAX
_cod_data_source_file            Brodersen_ZENBAX_1954_544.cif
_cod_data_source_block           H1Br2Hg2N1
_cod_original_cell_volume        260.4933
_cod_original_formula_sum        'H1 Br2 Hg2 N1'
_cod_database_code               7222629
loop_
_symmetry_equiv_pos_as_xyz
x,y,z
-y,x-y,z
-x+y,-x,z
y,x,-z
-x,-x+y,-z
x-y,-y,-z
loop_
_atom_site_label
_atom_site_type_symbol
_atom_site_fract_x
_atom_site_fract_y
_atom_site_fract_z
_atom_site_occupancy
_atom_site_U_iso_or_equiv
N1 N-3 0.3333 0.6667 0.113 1 0.0
Hg1 Hg+2 0 0 0.5 1 0.0
Hg2 Hg+2 0.5 0 0 1 0.0
Br2 Br-1 0.37 0 0.5 1 0.0
Br1 Br-1 0 0 0 1 0.0
