#------------------------------------------------------------------------------
#$Date: 2018-09-27 07:13:35 +0300 (Thu, 27 Sep 2018) $
#$Revision: 211196 $
#$URL: file:///home/coder/svn-repositories/cod/cif/7/22/26/7222660.cif $
#------------------------------------------------------------------------------
#
# This file is available in the Crystallography Open Database (COD),
# http://www.crystallography.net/
#
# All data on this site have been placed in the public domain by the
# contributors.
#
data_7222660
loop_
_publ_author_name
'Eisenmann, B.'
'May, N.'
'Schaefer, H.'
'Mueller, W.'
_publ_section_title
;
 Eine neue strukturelle Variante des Ba Al4-Typs: Der Ca Be2 Ge2-Typ
;
_journal_name_full
;
Zeitschrift fuer Naturforschung, Teil B. Anorganische Chemie, Organische 
Chemie (2,1947-32,1977)
;
_journal_page_first              1155
_journal_page_last               1157
_journal_volume                  27
_journal_year                    1972
_chemical_formula_sum            'Ba Mg2 Pb2'
_space_group_IT_number           129
_symmetry_space_group_name_Hall  'P 4ab 2ab -1ab'
_symmetry_space_group_name_H-M   'P 4/n m m :1'
_cell_angle_alpha                90
_cell_angle_beta                 90
_cell_angle_gamma                90
_cell_formula_units_Z            2
_cell_length_a                   5
_cell_length_b                   5
_cell_length_c                   12.11
_cell_volume                     302.750
_citation_journal_id_ASTM        ZENBAX
_cod_data_source_file            Eisenmann_ZENBAX_1972_682.cif
_cod_data_source_block           Ba1Mg2Pb2
_cod_original_cell_volume        302.75
_cod_original_sg_symbol_Hall     '-P 4a 2a (x-1/4,y+1/4,z)'
_cod_original_formula_sum        'Ba1 Mg2 Pb2'
_cod_database_code               7222660
loop_
_symmetry_equiv_pos_as_xyz
x,y,z
-y+1/2,x+1/2,z
-x,-y,z
y+1/2,-x+1/2,z
x+1/2,-y+1/2,-z
y,x,-z
-x+1/2,y+1/2,-z
-y,-x,-z
-x+1/2,-y+1/2,-z
y,-x,-z
x+1/2,y+1/2,-z
-y,x,-z
-x,y,z
-y+1/2,-x+1/2,z
x,-y,z
y+1/2,x+1/2,z
loop_
_atom_site_label
_atom_site_type_symbol
_atom_site_fract_x
_atom_site_fract_y
_atom_site_fract_z
_atom_site_occupancy
_atom_site_U_iso_or_equiv
Pb2 Pb 0 0.5 0.867 1 0.0
Mg1 Mg 0 0 0 1 0.0
Mg2 Mg 0 0.5 0.631 1 0.0
Ba1 Ba 0 0.5 0.253 1 0.0
Pb1 Pb 0 0 0.5 1 0.0
