#------------------------------------------------------------------------------
#$Date: 2015-10-09 18:39:41 +0300 (Fri, 09 Oct 2015) $
#$Revision: 162432 $
#$URL: svn://www.crystallography.net/cod/cif/7/22/25/7222545.cif $
#------------------------------------------------------------------------------
#
# This file is available in the Crystallography Open Database (COD),
# http://www.crystallography.net/
#
# All data on this site have been placed in the public domain by the
# contributors.
#
data_7222545
loop_
_publ_author_name
'Meier, S.F.'
'Schleid, T.'
_publ_section_title
;
 Oxotellurate(IV) der Lanthanide: I. Die isotype Reihe M2 Te4 O11 (M =
 La-Nd, Sm-Yb)
;
_journal_name_full
;
Zeitschrift fuer Naturforschung, Teil B. Anorganische Chemie, Organische 
Chemie (42,1987-)
;
_journal_page_first              881
_journal_page_last               888
_journal_volume                  59
_journal_year                    2004
_chemical_formula_sum            'Gd2 O11 Te4'
_chemical_name_systematic        'Gd2 Te4 O11'
_space_group_IT_number           15
_symmetry_space_group_name_Hall  '-C 2yc'
_symmetry_space_group_name_H-M   'C 1 2/c 1'
_cell_angle_alpha                90
_cell_angle_beta                 106.096
_cell_angle_gamma                90
_cell_formula_units_Z            4
_cell_length_a                   12.4918
_cell_length_b                   5.1507
_cell_length_c                   16.1326
_cell_volume                     997.305
_citation_journal_id_ASTM        ZNBSEN
_cod_data_source_file            Meier_ZNBSEN_2004_1352.cif
_cod_data_source_block           Gd2O11Te4
_cod_database_code               7222545
loop_
_symmetry_equiv_pos_as_xyz
x,y,z
-x,y,-z+1/2
-x,-y,-z
x,-y,z-1/2
x+1/2,y+1/2,z
-x+1/2,y+1/2,-z+1/2
-x+1/2,-y+1/2,-z
x+1/2,-y+1/2,z-1/2
loop_
_atom_site_label
_atom_site_type_symbol
_atom_site_fract_x
_atom_site_fract_y
_atom_site_fract_z
_atom_site_occupancy
_atom_site_U_iso_or_equiv
O3 O-2 0.0704 0.1134 0.4543 1 0.0
O6 O-2 0 0.8523 0.25 1 0.0
O2 O-2 0.2076 0.5402 0.4448 1 0.0
Te2 Te+4 0.12095 0.72607 0.2012 1 0.0
O4 O-2 0.4743 0.0909 0.4019 1 0.0
O5 O-2 0.3514 0.5567 0.3296 1 0.0
Gd1 Gd+3 0.119018 0.25356 0.037171 1 0.0
O1 O-2 0.2501 0.0622 0.3706 1 0.0
Te1 Te+4 0.12858 0.27757 0.372707 1 0.0
