#------------------------------------------------------------------------------
#$Date: 2016-02-13 21:28:24 +0200 (Sat, 13 Feb 2016) $
#$Revision: 176429 $
#$URL: svn://www.crystallography.net/cod/cif/7/22/26/7222663.cif $
#------------------------------------------------------------------------------
#
# This file is available in the Crystallography Open Database (COD),
# http://www.crystallography.net/
#
# All data on this site have been placed in the public domain by the
# contributors.
#
data_7222663
loop_
_publ_author_name
'Eisenmann, B.'
'Schaefer, H.'
_publ_section_title
;
 Zintlphasen mit binaeren Anionen: Zur Kenntnis von Ba Ge2 P2 und Ba Ge2
 As2
;
_journal_name_full
;
Zeitschrift fuer Naturforschung, Teil B. Anorganische Chemie, Organische 
Chemie (33,1978-41,1986)
;
_journal_page_first              415
_journal_page_last               419
_journal_volume                  36
_journal_year                    1981
_chemical_formula_sum            'As2 Ba Ge2'
_chemical_name_systematic        'Ba Ge2 As2'
_space_group_IT_number           105
_symmetry_space_group_name_Hall  'P 4c -2'
_symmetry_space_group_name_H-M   'P 42 m c'
_cell_angle_alpha                90
_cell_angle_beta                 90
_cell_angle_gamma                90
_cell_formula_units_Z            4
_cell_length_a                   7.786
_cell_length_b                   7.786
_cell_length_c                   8.664
_cell_volume                     525.227
_citation_journal_id_ASTM        ZNBAD2
_cod_data_source_file            Eisenmann_ZNBAD2_1981_1317.cif
_cod_data_source_block           As2Ba1Ge2
_cod_original_cell_volume        525.2272
_cod_original_formula_sum        'As2 Ba1 Ge2'
_cod_database_code               7222663
loop_
_symmetry_equiv_pos_as_xyz
x,y,z
-y,x,z+1/2
-x,-y,z
y,-x,z+1/2
-x,y,z
-y,-x,z+1/2
x,-y,z
y,x,z+1/2
loop_
_atom_site_label
_atom_site_type_symbol
_atom_site_fract_x
_atom_site_fract_y
_atom_site_fract_z
_atom_site_occupancy
_atom_site_U_iso_or_equiv
Ba2 Ba+2 0.5 0 0.0241 1 0.0
Ba1 Ba+2 0 0 0 1 0.0
Ge2 Ge+2 0.5 0.1632 0.6068 1 0.0
Ge1 Ge+2 0.3351 0.5 0.8664 1 0.0
As1 As-3 0.229 0.2453 0.2558 1 0.0
