#------------------------------------------------------------------------------
#$Date: 2016-02-13 21:28:24 +0200 (Sat, 13 Feb 2016) $
#$Revision: 176429 $
#$URL: svn://www.crystallography.net/cod/cif/7/22/27/7222717.cif $
#------------------------------------------------------------------------------
#
# This file is available in the Crystallography Open Database (COD),
# http://www.crystallography.net/
#
# All data on this site have been placed in the public domain by the
# contributors.
#
data_7222717
loop_
_publ_author_name
'Poettgen, R.'
'Dogan, A.'
_publ_section_title
;
 The Ordered Laves Phases Ce Ni4 Cd and RE Cu4 Cd (RE = Ho, Er, Tm, Yb)
;
_journal_name_full
;
Zeitschrift fuer Naturforschung, Teil B. Anorganische Chemie, Organische 
Chemie (42,1987-)
;
_journal_page_first              495
_journal_page_last               498
_journal_volume                  60
_journal_year                    2005
_chemical_formula_sum            'Cd Cu4 Tm'
_chemical_name_systematic        'Tm Cu4 Cd'
_space_group_IT_number           216
_symmetry_space_group_name_Hall  'F -4 2 3'
_symmetry_space_group_name_H-M   'F -4 3 m'
_cell_angle_alpha                90
_cell_angle_beta                 90
_cell_angle_gamma                90
_cell_formula_units_Z            4
_cell_length_a                   7.142
_cell_length_b                   7.142
_cell_length_c                   7.142
_cell_volume                     364.300
_citation_journal_id_ASTM        ZNBSEN
_cod_data_source_file            Poettgen_ZNBSEN_2005_1972.cif
_cod_data_source_block           Cd1Cu4Tm1
_cod_original_cell_volume        364.3003
_cod_original_formula_sum        'Cd1 Cu4 Tm1'
_cod_database_code               7222717
loop_
_symmetry_equiv_pos_as_xyz
x,y,z
y,-x,-z
-x,-y,z
-y,x,-z
x,-y,-z
-y,-x,z
-x,y,-z
y,x,z
z,x,y
x,-z,-y
-z,-x,y
-x,z,-y
z,-x,-y
-x,-z,y
-z,x,-y
x,z,y
y,z,x
y,-z,-x
-z,-y,x
-y,z,-x
z,y,x
-y,-z,x
-z,y,-x
z,-y,-x
x,y+1/2,z+1/2
y,-x+1/2,-z+1/2
-x,-y+1/2,z+1/2
-y,x+1/2,-z+1/2
x,-y+1/2,-z+1/2
-y,-x+1/2,z+1/2
-x,y+1/2,-z+1/2
y,x+1/2,z+1/2
z,x+1/2,y+1/2
x,-z+1/2,-y+1/2
-z,-x+1/2,y+1/2
-x,z+1/2,-y+1/2
z,-x+1/2,-y+1/2
-x,-z+1/2,y+1/2
-z,x+1/2,-y+1/2
x,z+1/2,y+1/2
y,z+1/2,x+1/2
y,-z+1/2,-x+1/2
-z,-y+1/2,x+1/2
-y,z+1/2,-x+1/2
z,y+1/2,x+1/2
-y,-z+1/2,x+1/2
-z,y+1/2,-x+1/2
z,-y+1/2,-x+1/2
x+1/2,y,z+1/2
y+1/2,-x,-z+1/2
-x+1/2,-y,z+1/2
-y+1/2,x,-z+1/2
x+1/2,-y,-z+1/2
-y+1/2,-x,z+1/2
-x+1/2,y,-z+1/2
y+1/2,x,z+1/2
z+1/2,x,y+1/2
x+1/2,-z,-y+1/2
-z+1/2,-x,y+1/2
-x+1/2,z,-y+1/2
z+1/2,-x,-y+1/2
-x+1/2,-z,y+1/2
-z+1/2,x,-y+1/2
x+1/2,z,y+1/2
y+1/2,z,x+1/2
y+1/2,-z,-x+1/2
-z+1/2,-y,x+1/2
-y+1/2,z,-x+1/2
z+1/2,y,x+1/2
-y+1/2,-z,x+1/2
-z+1/2,y,-x+1/2
z+1/2,-y,-x+1/2
x+1/2,y+1/2,z
y+1/2,-x+1/2,-z
-x+1/2,-y+1/2,z
-y+1/2,x+1/2,-z
x+1/2,-y+1/2,-z
-y+1/2,-x+1/2,z
-x+1/2,y+1/2,-z
y+1/2,x+1/2,z
z+1/2,x+1/2,y
x+1/2,-z+1/2,-y
-z+1/2,-x+1/2,y
-x+1/2,z+1/2,-y
z+1/2,-x+1/2,-y
-x+1/2,-z+1/2,y
-z+1/2,x+1/2,-y
x+1/2,z+1/2,y
y+1/2,z+1/2,x
y+1/2,-z+1/2,-x
-z+1/2,-y+1/2,x
-y+1/2,z+1/2,-x
z+1/2,y+1/2,x
-y+1/2,-z+1/2,x
-z+1/2,y+1/2,-x
z+1/2,-y+1/2,-x
loop_
_atom_site_label
_atom_site_type_symbol
_atom_site_fract_x
_atom_site_fract_y
_atom_site_fract_z
_atom_site_occupancy
_atom_site_U_iso_or_equiv
Cd1 Cd 0 0 0 0.962 0.0
Tm1 Tm 0.25 0.25 0.25 1 0.0
Cu1 Cu 0.62582 0.62582 0.62582 1 0.0
