#------------------------------------------------------------------------------
#$Date: 2016-02-13 21:28:24 +0200 (Sat, 13 Feb 2016) $
#$Revision: 176429 $
#$URL: svn://www.crystallography.net/cod/cif/7/22/26/7222601.cif $
#------------------------------------------------------------------------------
#
# This file is available in the Crystallography Open Database (COD),
# http://www.crystallography.net/
#
# All data on this site have been placed in the public domain by the
# contributors.
#
data_7222601
loop_
_publ_author_name
'Mishra, R.'
'Poettgen, R.'
'Hoffmann, R.D.'
'Mosel, B.D.'
'Trill, H.'
'Piotrowski, H.'
'Zumdick, M.F.'
_publ_section_title
;
 The stannides RE Rh Sn (RE= Ho-Yb) and Sc T Sn (T= Pd, Pt) - structure
 refinements and 119Sn Moessbauer spectroscopy
;
_journal_name_full
;
Zeitschrift fuer Naturforschung, Teil B. Anorganische Chemie, Organische 
Chemie (42,1987-)
;
_journal_page_first              589
_journal_page_last               597
_journal_volume                  56
_journal_year                    2001
_chemical_formula_sum            'Rh Sn Yb'
_chemical_name_systematic        'Yb Rh Sn'
_space_group_IT_number           189
_symmetry_space_group_name_Hall  'P -6 -2'
_symmetry_space_group_name_H-M   'P -6 2 m'
_cell_angle_alpha                90
_cell_angle_beta                 90
_cell_angle_gamma                120
_cell_formula_units_Z            3
_cell_length_a                   7.5317
_cell_length_b                   7.5317
_cell_length_c                   3.6653
_cell_volume                     180.064
_citation_journal_id_ASTM        ZNBSEN
_cod_data_source_file            Mishra_ZNBSEN_2001_187.cif
_cod_data_source_block           Rh1Sn1Yb1
_cod_original_cell_volume        180.0637
_cod_original_formula_sum        'Rh1 Sn1 Yb1'
_cod_database_code               7222601
loop_
_symmetry_equiv_pos_as_xyz
x,y,z
-x+y,-x,-z
-y,x-y,z
x,y,-z
-x+y,-x,z
-y,x-y,-z
y,x,z
x-y,-y,-z
-x,-x+y,z
y,x,-z
x-y,-y,z
-x,-x+y,-z
loop_
_atom_site_label
_atom_site_type_symbol
_atom_site_fract_x
_atom_site_fract_y
_atom_site_fract_z
_atom_site_occupancy
_atom_site_U_iso_or_equiv
Yb1 Yb 0.40152 0 0 1 0.0
Sn1 Sn 0.73417 0 0.5 1 0.0
Rh1 Rh 0.3333 0.6667 0.5 1 0.0
Rh2 Rh 0 0 0 1 0.0
