#------------------------------------------------------------------------------
#$Date: 2015-10-09 18:41:32 +0300 (Fri, 09 Oct 2015) $
#$Revision: 162437 $
#$URL: svn://www.crystallography.net/cod/cif/7/22/25/7222548.cif $
#------------------------------------------------------------------------------
#
# This file is available in the Crystallography Open Database (COD),
# http://www.crystallography.net/
#
# All data on this site have been placed in the public domain by the
# contributors.
#
data_7222548
loop_
_publ_author_name
'Meier, S.F.'
'Schleid, T.'
_publ_section_title
;
 Oxotellurate(IV) der Lanthanide: I. Die isotype Reihe M2 Te4 O11 (M =
 La-Nd, Sm-Yb)
;
_journal_name_full
;
Zeitschrift fuer Naturforschung, Teil B. Anorganische Chemie, Organische 
Chemie (42,1987-)
;
_journal_page_first              881
_journal_page_last               888
_journal_volume                  59
_journal_year                    2004
_chemical_formula_sum            'O11 Tb2 Te4'
_chemical_name_systematic        'Tb2 Te4 O11'
_space_group_IT_number           15
_symmetry_space_group_name_Hall  '-C 2yc'
_symmetry_space_group_name_H-M   'C 1 2/c 1'
_cell_angle_alpha                90
_cell_angle_beta                 106.102
_cell_angle_gamma                90
_cell_formula_units_Z            4
_cell_length_a                   12.4563
_cell_length_b                   5.133
_cell_length_c                   16.0985
_cell_volume                     988.929
_citation_journal_id_ASTM        ZNBSEN
_cod_data_source_file            Meier_ZNBSEN_2004_1353.cif
_cod_data_source_block           O11Tb2Te4
_cod_original_cell_volume        988.9285
_cod_database_code               7222548
loop_
_symmetry_equiv_pos_as_xyz
x,y,z
-x,y,-z+1/2
-x,-y,-z
x,-y,z-1/2
x+1/2,y+1/2,z
-x+1/2,y+1/2,-z+1/2
-x+1/2,-y+1/2,-z
x+1/2,-y+1/2,z-1/2
loop_
_atom_site_label
_atom_site_type_symbol
_atom_site_fract_x
_atom_site_fract_y
_atom_site_fract_z
_atom_site_occupancy
_atom_site_U_iso_or_equiv
O4 O-2 0.4751 0.0877 0.40254 1 0.0
Te1 Te+4 0.128186 0.27805 0.372926 1 0.0
O1 O-2 0.2509 0.0615 0.37131 1 0.0
Te2 Te+4 0.12131 0.72554 0.20084 1 0.0
O2 O-2 0.2074 0.543 0.44551 1 0.0
O6 O-2 0 0.855 0.25 1 0.0
O3 O-2 0.0701 0.112 0.45412 1 0.0
Tb1 Tb+3 0.119067 0.25334 0.03708 1 0.0
O5 O-2 0.3514 0.5587 0.32968 1 0.0
