#------------------------------------------------------------------------------
#$Date: 2015-10-10 03:27:42 +0300 (Sat, 10 Oct 2015) $
#$Revision: 164062 $
#$URL: svn://www.crystallography.net/cod/cif/7/22/26/7222680.cif $
#------------------------------------------------------------------------------
#
# This file is available in the Crystallography Open Database (COD),
# http://www.crystallography.net/
#
# All data on this site have been placed in the public domain by the
# contributors.
#
data_7222680
loop_
_publ_author_name
'Kaiser, J.W.'
'Jeitschko, W.'
_publ_section_title
;
 Quaternary phosphide oxides Pr3 Cu4 P4 O2-x and Sm3 Cu4 P4 O2-x with
 ordered Zr3 Cu4 Si6 - type structure
;
_journal_name_full
;
Zeitschrift fuer Naturforschung, Teil B. Anorganische Chemie, Organische 
Chemie (42,1987-)
;
_journal_page_first              165
_journal_page_last               170
_journal_volume                  57
_journal_year                    2002
_chemical_formula_sum            'Cu4 O1.5 P4 Pr3'
_chemical_name_systematic        'Pr3 Cu4 P4 O1.5'
_space_group_IT_number           139
_symmetry_space_group_name_Hall  '-I 4 2'
_symmetry_space_group_name_H-M   'I 4/m m m'
_cell_angle_alpha                90
_cell_angle_beta                 90
_cell_angle_gamma                90
_cell_formula_units_Z            2
_cell_length_a                   3.978
_cell_length_b                   3.978
_cell_length_c                   26.587
_cell_volume                     420.726
_citation_journal_id_ASTM        ZNBSEN
_cod_data_source_file            Kaiser_ZNBSEN_2002_437.cif
_cod_data_source_block           Cu4O1.5P4Pr3
_cod_original_cell_volume        420.7255
_cod_database_code               7222680
loop_
_symmetry_equiv_pos_as_xyz
x,y,z
-y,x,z
-x,-y,z
y,-x,z
x,-y,-z
y,x,-z
-x,y,-z
-y,-x,-z
-x,-y,-z
y,-x,-z
x,y,-z
-y,x,-z
-x,y,z
-y,-x,z
x,-y,z
y,x,z
x+1/2,y+1/2,z+1/2
-y+1/2,x+1/2,z+1/2
-x+1/2,-y+1/2,z+1/2
y+1/2,-x+1/2,z+1/2
x+1/2,-y+1/2,-z+1/2
y+1/2,x+1/2,-z+1/2
-x+1/2,y+1/2,-z+1/2
-y+1/2,-x+1/2,-z+1/2
-x+1/2,-y+1/2,-z+1/2
y+1/2,-x+1/2,-z+1/2
x+1/2,y+1/2,-z+1/2
-y+1/2,x+1/2,-z+1/2
-x+1/2,y+1/2,z+1/2
-y+1/2,-x+1/2,z+1/2
x+1/2,-y+1/2,z+1/2
y+1/2,x+1/2,z+1/2
loop_
_atom_site_label
_atom_site_type_symbol
_atom_site_fract_x
_atom_site_fract_y
_atom_site_fract_z
_atom_site_occupancy
_atom_site_U_iso_or_equiv
P2 P-2 0 0 0.4582 1 0.0
Pr2 Pr+3 0 0 0 1 0.0
Cu1 Cu+1 0 0.5 0.09475 1 0.0
P1 P-3 0 0 0.14179 1 0.0
Pr1 Pr+3 0 0 0.29699 1 0.0
O1 O-2 0 0.5 0.25 0.744 0.0
