#------------------------------------------------------------------------------
#$Date: 2015-10-10 03:50:54 +0300 (Sat, 10 Oct 2015) $
#$Revision: 164153 $
#$URL: svn://www.crystallography.net/cod/cif/7/22/26/7222691.cif $
#------------------------------------------------------------------------------
#
# This file is available in the Crystallography Open Database (COD),
# http://www.crystallography.net/
#
# All data on this site have been placed in the public domain by the
# contributors.
#
data_7222691
loop_
_publ_author_name
'Weiss, A.'
'Nagorsen, G.'
_publ_section_title
;
 Zur Kenntnis des Quecksilber(II)oxybromids Hg Br2 (Hg O)4: Ueber
 Quecksilberhalogenide V
;
_journal_name_full
;
Zeitschrift fuer Naturforschung, Teil B. Anorganische Chemie, Organische 
Chemie (2,1947-32,1977)
;
_journal_page_first              237
_journal_page_last               237
_journal_volume                  9
_journal_year                    1954
_chemical_formula_sum            'Br2 Hg5 O4'
_chemical_name_systematic        '(Hg Br2) (Hg O)4'
_space_group_IT_number           72
_symmetry_space_group_name_Hall  '-I 2 2c'
_symmetry_space_group_name_H-M   'I b a m'
_cell_angle_alpha                90
_cell_angle_beta                 90
_cell_angle_gamma                90
_cell_formula_units_Z            4
_cell_length_a                   11.89
_cell_length_b                   6.08
_cell_length_c                   11.76
_cell_volume                     850.145
_citation_journal_id_ASTM        ZENBAX
_cod_data_source_file            Weiss_ZENBAX_1954_712.cif
_cod_data_source_block           Br2Hg5O4
_cod_original_cell_volume        850.1445
_cod_database_code               7222691
loop_
_symmetry_equiv_pos_as_xyz
x,y,z
-x,-y,z
x,-y,-z+1/2
-x,y,-z+1/2
-x,-y,-z
x,y,-z
-x,y,z-1/2
x,-y,z-1/2
x+1/2,y+1/2,z+1/2
-x+1/2,-y+1/2,z+1/2
x+1/2,-y+1/2,-z+1
-x+1/2,y+1/2,-z+1
-x+1/2,-y+1/2,-z+1/2
x+1/2,y+1/2,-z+1/2
-x+1/2,y+1/2,z
x+1/2,-y+1/2,z
loop_
_atom_site_label
_atom_site_type_symbol
_atom_site_fract_x
_atom_site_fract_y
_atom_site_fract_z
_atom_site_occupancy
_atom_site_U_iso_or_equiv
Hg1 Hg+2 0 0 0.25 1 0.0
Hg3 Hg+2 0.14 0.214 0 1 0.0
Br1 Br-1 0.4 0.22 0 1 0.0
O1 O-2 0.64 0.7 0.32 1 0.0
Hg2 Hg+2 0.34 0 0.25 1 0.0
