#------------------------------------------------------------------------------
#$Date: 2015-10-10 07:55:43 +0300 (Sat, 10 Oct 2015) $
#$Revision: 165055 $
#$URL: svn://www.crystallography.net/cod/cif/7/22/28/7222808.cif $
#------------------------------------------------------------------------------
#
# This file is available in the Crystallography Open Database (COD),
# http://www.crystallography.net/
#
# All data on this site have been placed in the public domain by the
# contributors.
#
data_7222808
loop_
_publ_author_name
'Rodewald, U.C.'
'Heying, B.'
'Poettgen, R.'
'Johrendt, D.'
'Hoffmann, R.D.'
_publ_section_title
;
 Ternary rare earth metal silicides RE2 RE'3 Si4 with orthorhombic Sm5 Ge4
 or tetragonal Zr5 Si4 type structure
;
_journal_name_full
;
Zeitschrift fuer Naturforschung, Teil B. Anorganische Chemie, Organische 
Chemie (42,1987-)
;
_journal_page_first              174
_journal_page_last               181
_journal_volume                  59
_journal_year                    2004
_chemical_formula_sum            'Ce1.71 Si4 Y3.29'
_chemical_name_systematic        '(Ce1.71 Y2.29) Y Si4'
_space_group_IT_number           96
_symmetry_space_group_name_Hall  'P 4nw 2abw'
_symmetry_space_group_name_H-M   'P 43 21 2'
_cell_angle_alpha                90
_cell_angle_beta                 90
_cell_angle_gamma                90
_cell_formula_units_Z            4
_cell_length_a                   7.788
_cell_length_b                   7.788
_cell_length_c                   14.36
_cell_volume                     870.976
_citation_journal_id_ASTM        ZNBSEN
_cod_data_source_file            Rodewald_ZNBSEN_2004_1314.cif
_cod_data_source_block           Ce1.71Si4Y3.29
_cod_original_cell_volume        870.9763
_cod_database_code               7222808
loop_
_symmetry_equiv_pos_as_xyz
x,y,z
-y+1/2,x+1/2,z+3/4
-x,-y,z+1/2
y+1/2,-x+1/2,z+1/4
x+1/2,-y+1/2,-z+1/4
y,x,-z
-x+1/2,y+1/2,-z+3/4
-y,-x,-z+1/2
loop_
_atom_site_label
_atom_site_type_symbol
_atom_site_fract_x
_atom_site_fract_y
_atom_site_fract_z
_atom_site_occupancy
_atom_site_U_iso_or_equiv
Ce1 Ce 0.00964 0.64036 0.79154 0.78 0.0
Ce2 Ce 0.86167 0.9888 0.62391 0.075 0.0
Y3 Y 0.81686 0.81686 0 1 0.0
Y1 Y 0.00964 0.64036 0.79154 0.22 0.0
Si1 Si 0.7087 0.9358 0.8113 1 0.0
Si2 Si 0.655 0.7034 0.6898 1 0.0
Y2 Y 0.86167 0.9888 0.62391 0.925 0.0
