#------------------------------------------------------------------------------
#$Date: 2016-02-13 21:28:24 +0200 (Sat, 13 Feb 2016) $
#$Revision: 176429 $
#$URL: svn://www.crystallography.net/cod/cif/7/22/25/7222574.cif $
#------------------------------------------------------------------------------
#
# This file is available in the Crystallography Open Database (COD),
# http://www.crystallography.net/
#
# All data on this site have been placed in the public domain by the
# contributors.
#
data_7222574
loop_
_publ_author_name
'Hippler, K.'
'Wortmann, R.'
'Sitta, S.'
'Sabrowsky, H.'
_publ_section_title
;
 Na3 O (C N) - das erste Alkalimetallchalkogenidpseudehalogenid
;
_journal_name_full
;
Zeitschrift fuer Naturforschung, Teil B. Anorganische Chemie, Organische 
Chemie (42,1987-)
;
_journal_page_first              407
_journal_page_last               408
_journal_volume                  45
_journal_year                    1990
_chemical_formula_sum            'C N Na3 O'
_chemical_name_systematic        'Na3 O (C N)'
_space_group_IT_number           221
_symmetry_space_group_name_Hall  '-P 4 2 3'
_symmetry_space_group_name_H-M   'P m -3 m'
_cell_angle_alpha                90
_cell_angle_beta                 90
_cell_angle_gamma                90
_cell_formula_units_Z            1
_cell_length_a                   4.56
_cell_length_b                   4.56
_cell_length_c                   4.56
_cell_volume                     94.819
_citation_journal_id_ASTM        ZNBSEN
_cod_data_source_file            Hippler_ZNBSEN_1990_1815.cif
_cod_data_source_block           C1N1Na3O1
_cod_original_cell_volume        94.81881
_cod_original_formula_sum        'C1 N1 Na3 O1'
_cod_database_code               7222574
loop_
_symmetry_equiv_pos_as_xyz
x,y,z
-y,x,z
-x,-y,z
y,-x,z
x,-y,-z
y,x,-z
-x,y,-z
-y,-x,-z
z,x,y
-x,z,y
-z,-x,y
x,-z,y
z,-x,-y
x,z,-y
-z,x,-y
-x,-z,-y
y,z,x
y,-z,-x
z,y,-x
-y,z,-x
-z,-y,-x
-y,-z,x
z,-y,x
-z,y,x
-x,-y,-z
y,-x,-z
x,y,-z
-y,x,-z
-x,y,z
-y,-x,z
x,-y,z
y,x,z
-z,-x,-y
x,-z,-y
z,x,-y
-x,z,-y
-z,x,y
-x,-z,y
z,-x,y
x,z,y
-y,-z,-x
-y,z,x
-z,-y,x
y,-z,x
z,y,x
y,z,-x
-z,y,-x
z,-y,-x
loop_
_atom_site_label
_atom_site_type_symbol
_atom_site_fract_x
_atom_site_fract_y
_atom_site_fract_z
_atom_site_occupancy
_atom_site_U_iso_or_equiv
O1 O-2 0 0 0 1 0.0
N1 N-3 0.5 0.4 0.4 0.0833 0.0
Na1 Na+1 0.5 0 0 1 0.0
C1 C+2 0.5 0.4 0.4 0.0833 0.0
