#------------------------------------------------------------------------------
#$Date: 2015-10-09 18:35:48 +0300 (Fri, 09 Oct 2015) $
#$Revision: 162420 $
#$URL: svn://www.crystallography.net/cod/cif/7/22/25/7222542.cif $
#------------------------------------------------------------------------------
#
# This file is available in the Crystallography Open Database (COD),
# http://www.crystallography.net/
#
# All data on this site have been placed in the public domain by the
# contributors.
#
data_7222542
loop_
_publ_author_name
'Meier, S.F.'
'Schleid, T.'
_publ_section_title
;
 Oxotellurate(IV) der Lanthanide: I. Die isotype Reihe M2 Te4 O11 (M =
 La-Nd, Sm-Yb)
;
_journal_name_full
;
Zeitschrift fuer Naturforschung, Teil B. Anorganische Chemie, Organische 
Chemie (42,1987-)
;
_journal_page_first              881
_journal_page_last               888
_journal_volume                  59
_journal_year                    2004
_chemical_formula_sum            'Nd2 O11 Te4'
_chemical_name_systematic        'Nd2 Te4 O11'
_space_group_IT_number           15
_symmetry_space_group_name_Hall  '-C 2yc'
_symmetry_space_group_name_H-M   'C 1 2/c 1'
_cell_angle_alpha                90
_cell_angle_beta                 106.023
_cell_angle_gamma                90
_cell_formula_units_Z            4
_cell_length_a                   12.652
_cell_length_b                   5.2137
_cell_length_c                   16.2864
_cell_volume                     1032.576
_citation_journal_id_ASTM        ZNBSEN
_cod_data_source_file            Meier_ZNBSEN_2004_1349.cif
_cod_data_source_block           Nd2O11Te4
_cod_database_code               7222542
loop_
_symmetry_equiv_pos_as_xyz
x,y,z
-x,y,-z+1/2
-x,-y,-z
x,-y,z-1/2
x+1/2,y+1/2,z
-x+1/2,y+1/2,-z+1/2
-x+1/2,-y+1/2,-z
x+1/2,-y+1/2,z-1/2
loop_
_atom_site_label
_atom_site_type_symbol
_atom_site_fract_x
_atom_site_fract_y
_atom_site_fract_z
_atom_site_occupancy
_atom_site_U_iso_or_equiv
Te2 Te+4 0.11993 0.72901 0.202466 1 0.0
O4 O-2 0.47335 0.0942 0.39934 1 0.0
Te1 Te+4 0.129513 0.27758 0.371979 1 0.0
O6 O-2 0 0.8539 0.25 1 0.0
Nd1 Nd+3 0.119004 0.25503 0.037562 1 0.0
O2 O-2 0.20705 0.5398 0.44263 1 0.0
O1 O-2 0.2495 0.0642 0.37084 1 0.0
O5 O-2 0.35222 0.5546 0.32782 1 0.0
O3 O-2 0.07222 0.1194 0.45345 1 0.0
