#------------------------------------------------------------------------------
#$Date: 2016-02-13 21:28:24 +0200 (Sat, 13 Feb 2016) $
#$Revision: 176429 $
#$URL: svn://www.crystallography.net/cod/cif/7/22/29/7222914.cif $
#------------------------------------------------------------------------------
#
# This file is available in the Crystallography Open Database (COD),
# http://www.crystallography.net/
#
# All data on this site have been placed in the public domain by the
# contributors.
#
data_7222914
loop_
_publ_author_name
'Schubert, K.'
'Seitz, A.'
_publ_section_title
;
 Kristallstruktur von Y(OH)~3~
;
_journal_issue                   6
_journal_name_full               'Zeitschrift f\"ur Naturforschung A'
_journal_page_first              321
_journal_page_last               321
_journal_volume                  1
_journal_year                    1946
_chemical_formula_sum            'H3 O3 Y'
_chemical_name_systematic        'Y (O H)3'
_space_group_IT_number           176
_symmetry_space_group_name_Hall  '-P 6c'
_symmetry_space_group_name_H-M   'P 63/m'
_cell_angle_alpha                90
_cell_angle_beta                 90
_cell_angle_gamma                120
_cell_formula_units_Z            2
_cell_length_a                   6.24
_cell_length_b                   6.24
_cell_length_c                   3.53
_cell_volume                     119.035
_citation_journal_id_ASTM        ZNTFA2
_cod_data_source_file            Schubert_ZNTFA2_1946_26.cif
_cod_data_source_block           H3O3Y1
_cod_original_formula_sum        'H3 O3 Y1'
_cod_database_code               7222914
loop_
_symmetry_equiv_pos_as_xyz
x,y,z
x-y,x,z+1/2
-y,x-y,z
-x,-y,z+1/2
-x+y,-x,z
y,-x+y,z+1/2
-x,-y,-z
-x+y,-x,-z-1/2
y,-x+y,-z
x,y,-z-1/2
x-y,x,-z
-y,x-y,-z-1/2
loop_
_atom_site_label
_atom_site_type_symbol
_atom_site_fract_x
_atom_site_fract_y
_atom_site_fract_z
_atom_site_occupancy
_atom_site_U_iso_or_equiv
Y1 Y+3 0.6667 0.3333 0.25 1 0.0
O1 O-2 0.287 0.382 0.25 1 0.0
