#------------------------------------------------------------------------------
#$Date: 2016-02-13 21:28:24 +0200 (Sat, 13 Feb 2016) $
#$Revision: 176429 $
#$URL: svn://www.crystallography.net/cod/cif/7/22/28/7222884.cif $
#------------------------------------------------------------------------------
#
# This file is available in the Crystallography Open Database (COD),
# http://www.crystallography.net/
#
# All data on this site have been placed in the public domain by the
# contributors.
#
data_7222884
loop_
_publ_author_name
'May, N.'
'Mueller, W.'
'Schaefer, H.'
_publ_section_title
;
 Ternaere Erdalkali-Beryllium-Silicide und -Germanide mit Al B2 -Struktur
;
_journal_name_full
;
Zeitschrift fuer Naturforschung, Teil B. Anorganische Chemie, Organische 
Chemie (2,1947-32,1977)
;
_journal_page_first              325
_journal_page_last               327
_journal_volume                  29
_journal_year                    1974
_chemical_formula_sum            'Be0.75 Si1.25 Sr'
_chemical_name_systematic        'Sr Be.75 Si1.25'
_space_group_IT_number           191
_symmetry_space_group_name_Hall  '-P 6 2'
_symmetry_space_group_name_H-M   'P 6/m m m'
_cell_angle_alpha                90
_cell_angle_beta                 90
_cell_angle_gamma                120
_cell_formula_units_Z            1
_cell_length_a                   4.03
_cell_length_b                   4.03
_cell_length_c                   4.68
_cell_volume                     65.824
_citation_journal_id_ASTM        ZENBAX
_cod_data_source_file            May_ZENBAX_1974_702.cif
_cod_data_source_block           Be0.75Si1.25Sr1
_cod_original_cell_volume        65.82436
_cod_original_formula_sum        'Be0.75 Si1.25 Sr1'
_cod_database_code               7222884
loop_
_symmetry_equiv_pos_as_xyz
x,y,z
x-y,x,z
-y,x-y,z
-x,-y,z
-x+y,-x,z
y,-x+y,z
-y,-x,-z
x-y,-y,-z
x,x-y,-z
y,x,-z
-x+y,y,-z
-x,-x+y,-z
-x,-y,-z
-x+y,-x,-z
y,-x+y,-z
x,y,-z
x-y,x,-z
-y,x-y,-z
y,x,z
-x+y,y,z
-x,-x+y,z
-y,-x,z
x-y,-y,z
x,x-y,z
loop_
_atom_site_label
_atom_site_type_symbol
_atom_site_fract_x
_atom_site_fract_y
_atom_site_fract_z
_atom_site_occupancy
_atom_site_U_iso_or_equiv
Be1 Be 0.3333 0.6667 0.5 0.375 0.0
Sr1 Sr 0 0 0 1 0.0
Si1 Si 0.3333 0.6667 0.5 0.625 0.0
