#------------------------------------------------------------------------------
#$Date: 2018-09-27 07:13:35 +0300 (Thu, 27 Sep 2018) $
#$Revision: 211196 $
#$URL: file:///home/coder/svn-repositories/cod/cif/7/22/29/7222984.cif $
#------------------------------------------------------------------------------
#
# This file is available in the Crystallography Open Database (COD),
# http://www.crystallography.net/
#
# All data on this site have been placed in the public domain by the
# contributors.
#
data_7222984
loop_
_publ_author_name
'Hitzbleck, R.D.'
'Vogt, P.'
'Sabrowsky, H.'
_publ_section_title
;
 Erste Interalkalimetalltelluride: NaLiTe, KLiTe, KNaTe
;
_journal_name_full
;
Zeitschrift fuer Naturforschung, Teil B. Anorganische Chemie, Organische 
Chemie (42,1987-)
;
_journal_page_first              1602
_journal_page_last               1604
_journal_volume                  44
_journal_year                    1989
_chemical_formula_sum            'K Na Te'
_space_group_IT_number           62
_symmetry_space_group_name_Hall  '-P 2ac 2n'
_symmetry_space_group_name_H-M   'P n m a'
_cell_angle_alpha                90
_cell_angle_beta                 90
_cell_angle_gamma                90
_cell_formula_units_Z            4
_cell_length_a                   8.521
_cell_length_b                   5.134
_cell_length_c                   9.265
_cell_volume                     405.314
_citation_journal_id_ASTM        ZNBSEN
_cod_data_source_file            Hitzbleck_ZNBSEN_1989_1991.cif
_cod_data_source_block           K1Na1Te1
_cod_original_cell_volume        405.3142
_cod_original_formula_sum        'K1 Na1 Te1'
_cod_database_code               7222984
loop_
_symmetry_equiv_pos_as_xyz
x,y,z
-x+1/2,-y,z+1/2
x+1/2,-y+1/2,-z+1/2
-x,y+1/2,-z
-x,-y,-z
x-1/2,y,-z-1/2
-x-1/2,y-1/2,z-1/2
x,-y-1/2,z
loop_
_atom_site_label
_atom_site_type_symbol
_atom_site_fract_x
_atom_site_fract_y
_atom_site_fract_z
_atom_site_occupancy
_atom_site_U_iso_or_equiv
Te1 Te-2 0.2886 0.25 0.8934 1 0.0
K1 K+1 0.0133 0.25 0.1847 1 0.0
Na1 Na+1 0.147 0.25 0.5751 1 0.0
