#------------------------------------------------------------------------------
#$Date: 2016-02-13 21:28:24 +0200 (Sat, 13 Feb 2016) $
#$Revision: 176429 $
#$URL: svn://www.crystallography.net/cod/cif/7/22/28/7222892.cif $
#------------------------------------------------------------------------------
#
# This file is available in the Crystallography Open Database (COD),
# http://www.crystallography.net/
#
# All data on this site have been placed in the public domain by the
# contributors.
#
data_7222892
loop_
_publ_author_name
'Pohl, S.'
'Saak, W.'
_publ_section_title
;
 Interhalogen-Kationen: Darstellung und Kristallstrukturen (143 K) von I3
 Cl2 Sb Cl6, I3 Cl2 Al Cl4 und I3 Br2 Sb Cl6
;
_journal_name_full
;
Zeitschrift fuer Naturforschung, Teil B. Anorganische Chemie, Organische 
Chemie (33,1978-41,1986)
;
_journal_page_first              283
_journal_page_last               288
_journal_volume                  36
_journal_year                    1981
_chemical_formula_sum            'Br2 Cl6 I3 Sb'
_chemical_name_systematic        '(I3 Br2) (Sb Cl6)'
_space_group_IT_number           2
_symmetry_space_group_name_Hall  '-P 1'
_symmetry_space_group_name_H-M   'P -1'
_cell_angle_alpha                87.98
_cell_angle_beta                 82.99
_cell_angle_gamma                81.13
_cell_formula_units_Z            1
_cell_length_a                   7.132
_cell_length_b                   7.22
_cell_length_c                   7.752
_cell_volume                     391.397
_citation_journal_id_ASTM        ZNBAD2
_cod_data_source_file            Pohl_ZNBAD2_1981_1307.cif
_cod_data_source_block           Br2Cl6I3Sb1
_cod_original_cell_volume        391.3971
_cod_original_formula_sum        'Br2 Cl6 I3 Sb1'
_cod_database_code               7222892
loop_
_symmetry_equiv_pos_as_xyz
x,y,z
-x,-y,-z
loop_
_atom_site_label
_atom_site_type_symbol
_atom_site_fract_x
_atom_site_fract_y
_atom_site_fract_z
_atom_site_occupancy
_atom_site_U_iso_or_equiv
Cl2 Cl-1 0.71297 0.69571 0.44137 1 0.0
Cl3 Cl-1 0.84648 0.2263 0.49574 1 0.0
Br1 Br-1 0.49223 0.24783 -0.09309 1 0.0
Sb1 Sb+5 1 0.5 0.5 1 0.0
I1 I+1 0.66146 0.23133 0.16842 1 0.0
I2 I+1 1 0 0 1 0.0
Cl1 Cl-1 1.09859 0.47391 0.19884 1 0.0
