#------------------------------------------------------------------------------
#$Date: 2016-02-13 21:28:24 +0200 (Sat, 13 Feb 2016) $
#$Revision: 176429 $
#$URL: svn://www.crystallography.net/cod/cif/7/22/24/7222499.cif $
#------------------------------------------------------------------------------
#
# This file is available in the Crystallography Open Database (COD),
# http://www.crystallography.net/
#
# All data on this site have been placed in the public domain by the
# contributors.
#
data_7222499
loop_
_publ_author_name
'Schnabel, S.'
'Roehr, C.'
_publ_section_title
;
 Gemischte Thio/Oxo-Orthovanadate Na3[VSxO4-x] (x=2, 3): Darstellung -
 Strukturen - Eigenschaften
;
_journal_name_full
;
Zeitschrift fuer Naturforschung, Teil B. Anorganische Chemie, Organische 
Chemie (42,1987-)
;
_journal_page_first              479
_journal_page_last               490
_journal_volume                  60
_journal_year                    2005
_chemical_formula_sum            'Na3 O S3 V'
_chemical_name_systematic        'Na3 (V S3 O)'
_space_group_IT_number           62
_symmetry_space_group_name_Hall  '-P 2ac 2n'
_symmetry_space_group_name_H-M   'P n m a'
_cell_angle_alpha                90
_cell_angle_beta                 90
_cell_angle_gamma                90
_cell_formula_units_Z            4
_cell_length_a                   5.895
_cell_length_b                   9.628
_cell_length_c                   11.866
_cell_volume                     673.479
_citation_journal_id_ASTM        ZNBSEN
_cod_data_source_file            Schnabel_ZNBSEN_2005_1984.cif
_cod_data_source_block           Na3O1S3V1
_cod_original_cell_volume        673.4793
_cod_original_formula_sum        'Na3 O1 S3 V1'
_cod_database_code               7222499
loop_
_symmetry_equiv_pos_as_xyz
x,y,z
-x+1/2,-y,z+1/2
x+1/2,-y+1/2,-z+1/2
-x,y+1/2,-z
-x,-y,-z
x-1/2,y,-z-1/2
-x-1/2,y-1/2,z-1/2
x,-y-1/2,z
loop_
_atom_site_label
_atom_site_type_symbol
_atom_site_fract_x
_atom_site_fract_y
_atom_site_fract_z
_atom_site_occupancy
_atom_site_U_iso_or_equiv
O1 O-2 0.1246 0.25 0.0519 1 0.0
Na1 Na+1 0.2509 0.0446 0.1303 1 0.0
Na2 Na+1 0.2608 0.25 0.86763 1 0.0
S1 S-2 0.2457 0.25 0.6308 1 0.0
V1 V+5 0.34266 0.25 0.45271 1 0.0
S2 S-2 0.22871 0.061 0.37371 1 0.0
