#------------------------------------------------------------------------------
#$Date: 2016-08-16 08:57:02 +0300 (Tue, 16 Aug 2016) $
#$Revision: 185824 $
#$URL: file:///home/coder/svn-repositories/cod/cif/7/22/62/7226255.cif $
#------------------------------------------------------------------------------
#
# This file is available in the Crystallography Open Database (COD),
# http://www.crystallography.net/
#
# All data on this site have been placed in the public domain by the
# contributors.
#
data_7226255
loop_
_publ_author_name
'He, Jianqiao'
'Zhang, Xian'
'Guo, Pan'
'Cheng, Ye'
'Zheng, Chong'
'Huang, Fuqiang'
_publ_section_title
;
 Synthesis, structure, and optical properties of K2.4Ga2.4M1.6Q8(M = Si,
 Ge; Q = S, Se) crystals and glasses
;
_journal_issue                   80
_journal_name_full               'RSC Adv.'
_journal_page_first              76789
_journal_paper_doi               10.1039/C6RA11079G
_journal_volume                  6
_journal_year                    2016
_chemical_formula_sum            'Ga2.4 K2.4 Se8 Si1.6'
_chemical_formula_weight         932.31
_space_group_crystal_system      tetragonal
_space_group_IT_number           140
_space_group_name_Hall           '-I 4 2c'
_space_group_name_H-M_alt        'I 4/m c m'
_symmetry_space_group_name_Hall  '-I 4 2c'
_symmetry_space_group_name_H-M   'I 4/m c m'
_audit_creation_method           SHELXL-2014/7
_audit_update_record
;
2016-04-26 deposited with the CCDC.
2016-07-25 downloaded from the CCDC.
;
_cell_angle_alpha                90
_cell_angle_beta                 90
_cell_angle_gamma                90
_cell_formula_units_Z            1
_cell_length_a                   8.1999(4)
_cell_length_b                   8.1999(4)
_cell_length_c                   6.1460(7)
_cell_measurement_reflns_used    25
_cell_measurement_temperature    293(2)
_cell_measurement_theta_max      15
_cell_measurement_theta_min      7.5
_cell_volume                     413.25(6)
_computing_cell_refinement       'Bruker SMART'
_computing_data_collection       'Bruker SMART'
_computing_data_reduction        'Bruker SMART'
_computing_structure_refinement  'SHELXL-2014/7 (Sheldrick, 2014)'
_computing_structure_solution    'SHELXS-97 (Sheldrick, 1990)'
_diffrn_ambient_temperature      293(2)
_diffrn_measured_fraction_theta_full 1.000
_diffrn_measured_fraction_theta_max 1.000
_diffrn_measurement_device_type  'CCD area detector'
_diffrn_measurement_method       'phi and omega scans'
_diffrn_radiation_type           MoK\a
_diffrn_radiation_wavelength     0.71073
_diffrn_reflns_av_R_equivalents  0.0743
_diffrn_reflns_av_unetI/netI     0.0524
_diffrn_reflns_Laue_measured_fraction_full 1.000
_diffrn_reflns_Laue_measured_fraction_max 1.000
_diffrn_reflns_limit_h_max       9
_diffrn_reflns_limit_h_min       -7
_diffrn_reflns_limit_k_max       3
_diffrn_reflns_limit_k_min       -9
_diffrn_reflns_limit_l_max       3
_diffrn_reflns_limit_l_min       -7
_diffrn_reflns_number            341
_diffrn_reflns_point_group_measured_fraction_full 1.000
_diffrn_reflns_point_group_measured_fraction_max 1.000
_diffrn_reflns_theta_full        24.631
_diffrn_reflns_theta_max         24.631
_diffrn_reflns_theta_min         3.514
_exptl_absorpt_coefficient_mu    22.199
_exptl_absorpt_correction_T_max  0.928
_exptl_absorpt_correction_T_min  0.883
_exptl_absorpt_correction_type   multi-scan
_exptl_crystal_colour            brown
_exptl_crystal_density_diffrn    3.746
_exptl_crystal_description       bar
_exptl_crystal_F_000             298
_exptl_crystal_size_max          0.029
_exptl_crystal_size_mid          0.007
_exptl_crystal_size_min          0.005
_refine_diff_density_max         1.052
_refine_diff_density_min         -0.831
_refine_diff_density_rms         0.270
_refine_ls_extinction_method     none
_refine_ls_goodness_of_fit_ref   1.145
_refine_ls_hydrogen_treatment    undef
_refine_ls_matrix_type           full
_refine_ls_number_parameters     9
_refine_ls_number_reflns         111
_refine_ls_number_restraints     0
_refine_ls_restrained_S_all      1.145
_refine_ls_R_factor_all          0.0526
_refine_ls_R_factor_gt           0.0501
_refine_ls_shift/su_max          0.000
_refine_ls_shift/su_mean         0.000
_refine_ls_structure_factor_coef Fsqd
_refine_ls_weighting_details
'w=1/[\s^2^(Fo^2^)+(0.0779P)^2^] where P=(Fo^2^+2Fc^2^)/3'
_refine_ls_weighting_scheme      calc
_refine_ls_wR_factor_gt          0.1326
_refine_ls_wR_factor_ref         0.1364
_reflns_Friedel_coverage         0.000
_reflns_number_gt                102
_reflns_number_total             111
_reflns_threshold_expression     'I > 2\s(I)'
_cod_data_source_file            c6ra11079g2.cif
_cod_data_source_block           121213a
_cod_original_formula_sum        'Ga2.40 K2.40 Se8 Si1.60'
_cod_database_code               7226255
_shelx_shelxl_version_number     2014/7
_shelx_space_group_comment
;
The symmetry employed for this shelxl refinement is uniquely defined
by the following loop, which should always be used as a source of
symmetry information in preference to the above space-group names.
They are only intended as comments.
;
_shelx_estimated_absorpt_t_min   0.672
_shelx_estimated_absorpt_t_max   0.929
_shelx_res_file
;

    121213a.res created by SHELXL-2014/7


TITL 121213a in I4/mcm
CELL 0.71073   8.1999   8.1999   6.1460  90.000  90.000  90.000
ZERR    2.00   0.0004   0.0004   0.0007   0.000   0.000   0.000
LATT 2
SYMM -X, -Y, Z
SYMM -Y, X, Z
SYMM Y, -X, Z
SYMM -X, Y, 0.5-Z
SYMM X, -Y, 0.5-Z
SYMM Y, X, 0.5-Z
SYMM -Y, -X, 0.5-Z
SFAC K  Ga Si Se
UNIT 2 2 2 5
SIZE 0.005 0.007 0.029
OMIT -2 50.0
ACTA
BOND
LIST 4 ! automatically inserted. Change 6 to 4 for CHECKCIF!!
L.S. 25
FMAP -2
PLAN 5
EXYZ GA SI
EADP GA SI
WGHT    0.077900
FVAR       0.39290
MOLE 1
SE    4    0.345082    0.154918    0.000000    10.25000    0.03935    0.03935 =
         0.03386    0.00000    0.00000    0.01185
GA    2    0.500000    0.000000    0.250000    10.07250    0.02951    0.02951 =
         0.01664    0.00000    0.00000    0.00000
SI    3    0.500000    0.000000    0.250000    10.05000    0.02951    0.02951 =
         0.01664    0.00000    0.00000    0.00000
K     1    0.000000    0.000000    0.250000    10.07500    0.03622    0.03622 =
         0.31777    0.00000    0.00000    0.00000
HKLF 4

REM  121213a in I4/mcm
REM R1 =  0.0501 for     102 Fo > 4sig(Fo)  and  0.0526 for all     111 data
REM      9 parameters refined using      0 restraints

END

WGHT      0.0779      0.0000

REM Highest difference peak  1.052,  deepest hole -0.831,  1-sigma level  0.270
Q1    1   0.4468  0.0532  0.0000  10.25000  0.05    1.05
Q2    1   0.5000  0.0000  0.4338  10.25000  0.05    0.91
Q3    1   0.4415  0.2223  0.0518  11.00000  0.05    0.84
Q4    1   0.4258  0.0742  0.5000  10.25000  0.05   -0.83
Q5    1   0.2081  0.2919  0.0000  10.25000  0.05   -0.78
;
_shelx_res_checksum              76307
_shelx_hkl_file
;
   0   0  -2 2092.71   55.82
   0   0  -4 4956.03  121.69
   0   0  -6  289.07   38.08
   1   0   1    4.56    1.85
   0  -1  -1    3.26    1.79
   1   0  -1    2.09    1.08
  -1   0  -1    3.30    1.19
  -1   0  -3    0.02    1.33
   0   1  -3    1.56    3.54
   1   0   3   -1.52    2.21
   0  -1  -3    3.21    4.25
   1   0  -3    1.06    3.42
   0  -1  -5   10.82    8.83
   1   0  -5    7.64    4.67
  -1   0  -5   -6.26    5.75
   1   0  -7    5.37    7.86
   0  -1  -7   -4.90    6.77
   1  -1   0 3152.09   49.27
   1  -1   2    5.43    2.65
  -1  -1  -2   13.44    5.61
   1  -1  -2    9.42    4.14
   1   1   2   11.62    3.71
  -1  -1  -4 1236.87   59.16
   1  -1  -4 1356.65   65.55
   1   1  -4 1336.28   67.82
  -1  -1  -6   28.75   11.74
   1  -1  -6   35.99   13.61
  -1  -1  -8  144.15   30.76
   2   0   0  149.49    9.48
  -2   0   0  152.58    9.05
   0  -2  -2 3579.02   82.76
   2   0  -2 3641.67   83.43
   2   0   2 3633.68   54.51
  -2   0  -2 3399.29   60.94
  -2   0  -4    4.32    3.39
   2   0  -4   -0.26    3.46
   0  -2  -6  501.39   52.12
   2   0  -6  562.48   55.69
  -2   0  -6  406.49   41.94
   0  -2  -8   -5.34    2.68
  -2  -1  -1 4570.06   69.80
   1  -2  -1 4628.81   89.19
  -1  -2  -1 4634.53   93.63
   2  -1  -1 4613.25   88.28
   2  -1  -3 2255.56   79.72
   2   1   3 2369.59   67.04
  -1  -2  -3 2283.96   80.70
   2   1  -3 2122.20   78.38
  -2  -1  -3 2104.51   67.66
   1  -2  -3 2376.38   86.08
   2  -1   3 2237.05   62.61
  -2  -1  -5  760.52   51.85
   2  -1  -5  945.86   68.99
   1  -2  -5  798.89   61.07
  -1  -2  -5  742.92   53.80
   1  -2  -7  265.36   40.64
  -1  -2  -7  211.48   35.18
  -2  -1  -7  217.74   33.03
   2  -1  -7  283.43   43.80
   2  -2   0 3063.34   65.95
  -2   2   0 3205.60   72.84
   2   2   2  705.11   40.83
   2  -2  -2  691.66   43.95
   2  -2  -4  582.08   48.50
  -2  -2  -4  620.65   48.64
   2  -2  -6   97.16   26.12
  -2  -2  -6   67.63   18.74
   3   0  -1    0.55    1.36
   0  -3  -1    1.61    5.45
  -3   0   1    2.57    1.39
   0  -3  -3   -6.14    6.31
   3   0  -3    2.26    4.01
  -3   0  -3   -0.74    1.78
   3   0   3    0.39    1.29
   3   0  -5    9.97    8.93
   0  -3  -5    4.68    7.25
  -3   0  -5    1.40    4.26
   0  -3  -7   -2.25    3.39
   3   0  -7    2.56   11.74
   3  -1   0  742.78   28.19
   1  -3   0  794.19   45.09
  -3   1   0  710.11   25.83
  -3  -1  -2 2855.47   56.79
   3  -1   2 2869.48   45.75
   3  -1  -2 2993.21   83.63
  -1  -3  -2 2830.88   87.36
   1  -3  -2 2910.83   87.59
   1  -3  -4   46.20   14.32
   3  -1  -4   60.20   16.73
  -3  -1  -4   29.00    7.89
  -1  -3  -4   49.86   14.46
   1  -3  -6  723.40   65.24
  -1  -3  -6  646.47   57.04
   3  -1  -6  804.87   70.03
  -3  -1  -6  597.00   48.00
  -1  -3  -8    9.61    9.94
  -2  -3  -1  150.97   21.75
  -3  -2  -1  110.36   14.92
   2  -3   1  154.15   19.04
   3  -2  -1  216.65   22.07
   2  -3  -1  187.83   21.86
   3  -2   1  256.55   18.66
   3  -2  -3  111.64   19.26
  -3  -2  -3   85.62   13.34
  -2  -3  -3   86.96   15.77
   2  -3  -3  122.01   22.04
   3  -2   3  104.45   14.01
  -3  -2  -5   37.62   11.32
   2  -3  -5   44.59   15.93
  -2  -3  -5   43.80   14.90
   3  -2  -5   55.97   17.79
   3  -2  -7   17.34   11.13
   2  -3  -7   17.89   12.32
  -2  -3  -7   20.81    8.85
  -3   3   0 5884.68  125.04
   3  -3   0 6000.84  112.74
   3  -3  -2 1420.97   67.83
  -3  -3  -2 1130.59   56.50
   3  -3  -4 3145.68  124.80
  -3  -3  -4 2637.79   99.06
   3  -3  -6  125.11   29.24
  -3  -3  -6   88.83   20.09
   0  -4   0  147.58   22.69
  -4   0   0  187.20   16.07
   4   0  -2 4461.55  109.41
   0  -4  -2 4444.02  124.06
   4   0  -4  183.60   28.58
   0  -4  -4  172.44   27.38
   0  -4  -6  766.43   70.49
   4   0  -6  923.57   75.56
   4  -1  -1 1100.30   48.16
  -1  -4  -1 1050.10   61.88
   4   1   3  745.58   35.25
  -1  -4  -3  613.97   45.57
  -4  -1  -3  609.84   29.06
   4  -1   3  724.42   22.50
   1  -4  -3  736.93   56.93
   4  -1  -5  305.23   41.03
  -4  -1  -5  229.18   24.14
   1  -4  -5  299.43   43.13
  -1  -4  -5  275.44   37.84
   4  -1  -7  104.60   28.79
   1  -4  -7   95.03   25.15
  -1  -4  -7   71.02   22.42
   4  -2   0 2759.18   68.69
   2  -4   0 2951.84   99.01
  -2  -4  -2   72.05   15.57
   4  -2   2   33.12    5.08
   4  -2  -2   73.58   15.03
   4  -2   2   90.13    9.50
   2  -4  -2   73.74   15.95
  -4  -2  -2   59.31   10.35
   4  -2  -4  705.32   56.35
  -4  -2  -4  638.47   41.83
   2  -4  -4  737.94   63.41
  -2  -4  -4  653.17   53.28
   4  -2  -6   12.95   10.32
   2  -4  -6   15.63   11.36
  -2  -4  -6    2.31    3.32
   4  -3  -1  122.94   17.98
  -3  -4  -1   75.55   17.52
   3  -4  -1  103.10   17.06
   4  -3   1  125.61   14.91
   3  -4   1  119.72   19.27
   3  -4  -3   96.30   22.54
   4  -3   3   45.41    9.19
  -4  -3  -3   57.67   12.24
  -3  -4  -3   52.69   12.97
   4  -3  -3  105.63   22.60
   4  -3  -5   20.12    9.33
   3  -4  -5   31.63   12.77
  -4  -3  -5   34.57   11.78
  -3  -4  -5   26.83   12.76
   4  -4   0 2514.15   80.74
   4  -4  -2    0.78    4.93
   4  -4   2   -0.27    2.42
  -4  -4  -2    0.74    7.14
  -4  -4  -4  694.71   52.88
   4  -4  -4  942.51   75.45
   4  -4  -6   -1.40    9.36
   0  -5  -1   -1.10    0.16
   5   0  -3    2.29    5.68
   0  -5  -3    4.01    5.69
   5   0  -5    0.85    6.24
   0  -5  -5    0.70    7.84
   0  -5  -7    6.06    7.13
  -1  -5   0  191.83   28.11
   5  -1   0  265.64   18.64
  -5   1   0  302.65   20.32
  -5  -1   0  248.86   21.01
   1  -5   0  336.08   38.04
  -1  -5  -2   69.35   17.59
   5  -1  -2   57.46   14.30
  -5  -1  -2   46.50    5.75
   1  -5  -2   61.13   15.75
  -1  -5  -4  251.77   33.41
   5  -1  -4  348.57   41.16
   1  -5  -4  320.05   41.69
   5  -1  -6   67.57   21.08
   1  -5  -6   75.87   25.60
  -1  -5  -6   81.11   26.96
   2  -5   1 1998.86   91.75
   5  -2   1 1495.88   35.90
   5  -2  -1 1961.60   69.10
   2  -5  -1 2112.30   92.09
  -2  -5  -1 1355.40   81.11
  -5  -2  -3 1113.35   42.21
  -2  -5  -3 1055.42   67.74
   2  -5  -3 1123.06   69.29
   5  -2  -5  635.68   58.99
   2  -5  -5  618.62   66.20
  -2  -5  -5  549.42   57.21
  -2  -5  -7  159.94   33.45
   3  -5   0   35.65   12.22
   5  -3   0   34.79    9.74
   5  -3  -2  378.83   40.50
   3  -5   2  336.09   36.67
   5  -3   2  319.79   18.60
   3  -5  -2  302.18   34.89
  -5  -3  -2  266.53   28.89
  -3  -5  -2  245.59   35.89
  -3  -5  -4   48.51   14.43
   5  -3  -4   91.57   21.35
   3  -5  -4   92.60   23.70
   5  -3  -6  156.13   33.53
   3  -5  -6  146.95   33.55
  -3  -5  -6  119.70   28.14
  -4  -5  -1  455.91   50.01
  -5  -4  -1  430.38   42.06
   5  -4  -1  841.76   53.04
   4  -5  -1  768.33   53.32
   5  -4   1  777.00   40.13
   4  -5   1  975.12   60.69
   4  -5   3  558.96   46.20
   5  -4  -3  672.56   63.50
   4  -5  -3  577.30   57.52
  -5  -4  -3  365.95   34.78
  -4  -5  -3  341.34   38.68
   5  -4  -5  236.75   38.87
   4  -5  -5  262.00   45.06
  -4  -5  -5  198.36   33.30
   5  -5   0   14.71    5.81
   5  -5  -2  237.53   35.53
   5  -5   2  248.08   28.48
   5  -5  -4   57.55   19.77
  -5  -5  -4   38.65   11.84
   0  -6   0 3586.47  143.60
  -6   0   0 4138.61   90.00
   0  -6  -2  278.42   37.37
   0  -6  -4 1142.63   76.86
   6   0  -4 1575.57   93.04
   0  -6  -6   85.94   27.38
   1  -6   1  210.61   32.55
   6  -1  -1  200.91   23.70
  -6  -1  -1  161.98   14.34
   1  -6  -1  240.23   35.15
  -1  -6  -1  197.66   31.93
   6  -1  -3  197.05   29.12
   1  -6  -3  139.52   26.82
  -1  -6  -3  134.72   26.96
   1  -6  -5   63.72   22.82
  -1  -6  -5   43.60   16.68
   6  -1  -5   73.79   22.80
   6  -2   0   79.67   11.37
   2  -6   0   94.22   21.87
  -2  -6   0   54.32   16.69
  -6   2   0  104.19   16.18
  -6  -2  -2  699.07   32.51
  -2  -6  -2  581.48   56.57
   2  -6  -4   18.32    9.19
   6  -2  -4   16.74   12.39
  -2  -6  -4   16.19    7.78
   6  -2  -6  181.39   38.67
   2  -6  -6  203.96   45.82
  -2  -6  -6  128.77   28.46
   6  -3  -1    0.51    3.62
   6  -3   1    1.67    2.60
  -3  -6  -1   -9.35    8.61
  -6  -3  -1   -7.30    4.59
   3  -6  -1   -0.82    3.12
   3  -6   1   -0.32    2.14
   3  -6  -3  -11.90    8.80
   6  -3  -3    7.96    6.55
  -3  -6  -3    5.05    6.53
  -3  -6  -5  -10.34   10.12
   6  -3  -5   -2.67    6.00
   3  -6  -5    8.94    9.52
   4  -6   0   43.76   14.82
   6  -4   0   51.18   12.44
   4  -6  -2 1220.86   74.74
   6  -4  -2 1657.88   89.72
  -6  -4  -2  913.32   62.88
  -4  -6  -2  752.07   70.36
   4  -6   2 1572.23   83.56
  -4  -6  -4   34.34   13.86
   6  -4  -4   43.12   15.80
   4  -6  -4   49.66   19.74
  -5  -6  -1   92.02   24.32
   6  -5  -1  172.30   28.35
   6  -5   1  147.12   19.04
   5  -6  -1  142.54   24.57
  -6  -5  -1   93.69   22.29
   5  -6   1  181.59   26.76
   6  -5  -3  136.21   30.65
  -5  -6  -3   48.00   15.43
   5  -6  -3   93.17   26.02
   6  -5  -5   32.87   15.76
   5  -6  -5   28.78   13.98
   6  -6   0 1106.67   63.74
  -6  -6  -2   31.22   13.20
   6  -6  -2   61.84   19.49
   6  -6  -4  563.68   67.48
   0  -7  -1   10.23    4.44
   0  -7   1   -9.79   11.44
   0  -7  -3    2.09    5.34
   0  -7  -5   -8.66    3.70
  -1  -7   0  445.62   53.96
   1  -7   0  586.80   57.74
  -1  -7  -2    4.70    6.07
   7  -1  -2   38.65   12.58
   1  -7  -2   29.73   15.83
   7  -1  -4  457.41   52.87
   1  -7  -4  361.85   46.23
  -1  -7  -4  338.94   46.02
   7  -2  -1  245.37   26.05
   2  -7  -1  287.30   41.35
  -2  -7  -1  148.41   30.78
   2  -7   1  265.67   40.81
   7  -2  -3  179.70   29.56
   2  -7  -3  144.95   29.35
  -2  -7  -3  134.64   27.82
   2  -7  -5  102.94   30.82
  -2  -7  -5   63.78   21.23
   7  -2  -5  101.90   26.26
  -3  -7   0  288.74   43.74
   3  -7   0  425.04   48.58
   7  -3  -2 1188.38   72.22
   3  -7  -2 1011.65   73.52
   3  -7   2 1306.22   93.87
   3  -7  -4   81.45   23.23
   7  -3  -4  112.50   26.61
  -3  -7  -4   64.66   21.68
  -3  -7  -6  275.82   48.05
   4  -7   1   45.68   17.61
  -4  -7  -1   25.34   13.61
   4  -7  -1   31.13   13.35
   7  -4  -1   42.82   13.21
  -7  -4  -1   24.21    8.53
   4  -7  -3   24.55   16.24
   7  -4  -3   33.38   12.53
   4  -7   3   35.42   15.23
  -4  -7  -3    9.44    5.34
  -4  -7  -5    3.89    3.16
   7  -4  -5   32.71   19.30
   5  -7   0  160.25   27.40
  -5  -7   0  124.99   30.01
   5  -7  -2    5.24    9.28
  -5  -7  -2    8.89   10.79
   7  -5  -2   14.23    8.00
   7  -5  -4  136.66   30.73
   5  -7  -4  132.49   34.19
   6  -7  -1   79.10   21.64
  -6  -7  -1   66.22   21.54
  -7  -6  -1   81.43   25.35
   7  -6  -3   59.49   21.22
   6  -7  -3   57.93   22.02
  -7  -7   0  257.41   45.35
   7  -7  -2   42.33   15.30
   0  -8   0  228.93   42.14
   0  -8  -2   66.41   19.81
   0  -8  -4   72.92   22.57
  -1  -8   1  395.89   54.34
   1  -8  -1  497.87   60.40
  -1  -8  -1  363.40   55.12
   1  -8   1  456.67   61.06
   1  -8  -3  280.52   42.59
  -1  -8  -3  204.89   36.89
  -1  -8  -5  129.52   31.22
  -2  -8   0   71.76   23.77
   2  -8   0  127.78   32.44
   2  -8   2  186.08   38.13
   8  -2  -2  202.68   29.91
  -2  -8  -2  118.94   30.70
   2  -8  -2  167.00   32.66
   8  -2  -4   42.42   18.55
   2  -8  -4   28.80   18.62
  -2  -8  -4   23.75   16.09
  -3  -8  -1   19.43   11.86
   3  -8   1   29.63   14.82
   3  -8  -1   27.13   13.07
   8  -3  -3   25.88   11.47
   3  -8  -3   18.98   11.06
   3  -8   3   27.05   14.13
  -3  -8  -3    5.62    8.64
   8  -3  -5    2.42    5.94
  -3  -8  -5    7.38   11.12
  -4  -8   0  185.10   42.02
   4  -8   0  228.50   37.70
   4  -8  -2   84.36   23.36
  -4  -8  -2   52.36   19.97
   4  -8   2  108.11   26.44
   4  -8  -4   77.52   26.48
   8  -4  -4   88.46   24.58
  -4  -8  -4   35.75   15.69
   5  -8  -1  395.89   47.85
   5  -8   1  457.66   52.90
  -5  -8  -1  302.17   50.39
   8  -5  -3  261.70   39.07
   5  -8  -3  319.84   49.17
  -6  -8   0  165.32   37.78
   6  -8  -2   20.01   13.02
  -6  -8  -2   30.15   16.93
   0  -9  -1   -7.53    8.61
   0  -9   1   11.60   12.82
   0  -9  -3    1.70    9.12
  -1  -9   0    7.20   11.38
   1  -9   0   27.54   15.21
   1  -9   2  250.71   46.46
  -1  -9   2  218.42   44.28
   1  -9  -2  210.65   41.24
  -1  -9  -2  154.95   37.00
  -2  -9   1  125.41   32.98
  -2  -9  -1   88.55   27.76
   2  -9   1  130.31   33.93
   2  -9  -1   97.15   27.06
   2  -9  -3   73.71   23.99
   2  -9   3   92.50   29.73
  -2  -9  -3   41.11   20.42
  -3  -9   0  410.58   64.16
   3  -9   0  391.15   54.01
   3  -9   2   64.52   23.48
  -3  -9  -2   22.06   10.00
   3  -9  -2   62.35   20.86
   4  -9   1   88.32   26.70
  -4  -9  -1   66.50   24.48
  -4  -9   1  106.53   30.40
   4  -9  -1   86.12   25.48
  -4  -9  -3   29.45   16.12
  -5  -9   0   29.58   19.54
   5  -9   0   37.66   17.54
   5  -9  -2   15.38    3.40
  -5  -9  -2   -4.87    7.07
  -6  -9  -1   -5.11    7.66
   0 -10   0   40.25   20.97
   0 -10   2  473.62   70.75
   1 -10  -1   13.40   12.33
   1 -10   1   11.64    9.46
  -1 -10  -1   21.74   14.68
  -1 -10   1   24.80   17.73
  -2 -10   0  159.20   39.00
   2 -10   0  197.62   43.15
   2 -10   2   -0.14   11.64
   3 -10   1    4.51    7.82
   3 -10  -1   11.57    7.36
   4 -10   0  305.21   49.69
   0   0   0    0.00    0.00
;
_shelx_hkl_checksum              80537
loop_
_space_group_symop_operation_xyz
'x, y, z'
'-x, -y, z'
'-y, x, z'
'y, -x, z'
'-x, y, -z+1/2'
'x, -y, -z+1/2'
'y, x, -z+1/2'
'-y, -x, -z+1/2'
'x+1/2, y+1/2, z+1/2'
'-x+1/2, -y+1/2, z+1/2'
'-y+1/2, x+1/2, z+1/2'
'y+1/2, -x+1/2, z+1/2'
'-x+1/2, y+1/2, -z+1'
'x+1/2, -y+1/2, -z+1'
'y+1/2, x+1/2, -z+1'
'-y+1/2, -x+1/2, -z+1'
'-x, -y, -z'
'x, y, -z'
'y, -x, -z'
'-y, x, -z'
'x, -y, z-1/2'
'-x, y, z-1/2'
'-y, -x, z-1/2'
'y, x, z-1/2'
'-x+1/2, -y+1/2, -z+1/2'
'x+1/2, y+1/2, -z+1/2'
'y+1/2, -x+1/2, -z+1/2'
'-y+1/2, x+1/2, -z+1/2'
'x+1/2, -y+1/2, z'
'-x+1/2, y+1/2, z'
'-y+1/2, -x+1/2, z'
'y+1/2, x+1/2, z'
loop_
_atom_site_label
_atom_site_type_symbol
_atom_site_fract_x
_atom_site_fract_y
_atom_site_fract_z
_atom_site_U_iso_or_equiv
_atom_site_adp_type
_atom_site_occupancy
_atom_site_site_symmetry_order
_atom_site_calc_flag
_atom_site_refinement_flags_posn
_atom_site_refinement_flags_adp
_atom_site_refinement_flags_occupancy
Se Se 0.34508(15) 0.15492(15) 0.0000 0.0375(10) Uani 1 4 d S T P
Ga Ga 0.5000 0.0000 0.2500 0.0252(11) Uani 0.58 8 d S T P
Si Si 0.5000 0.0000 0.2500 0.0252(11) Uani 0.4 8 d S T P
K K 0.0000 0.0000 0.2500 0.130(7) Uani 0.6 8 d S T P
loop_
_atom_site_aniso_label
_atom_site_aniso_U_11
_atom_site_aniso_U_22
_atom_site_aniso_U_33
_atom_site_aniso_U_23
_atom_site_aniso_U_13
_atom_site_aniso_U_12
Se 0.0394(11) 0.0394(11) 0.0339(13) 0.000 0.000 0.0119(8)
Ga 0.0295(14) 0.0295(14) 0.0166(17) 0.000 0.000 0.000
Si 0.0295(14) 0.0295(14) 0.0166(17) 0.000 0.000 0.000
K 0.036(4) 0.036(4) 0.32(2) 0.000 0.000 0.000
loop_
_atom_type_symbol
_atom_type_description
_atom_type_scat_dispersion_real
_atom_type_scat_dispersion_imag
_atom_type_scat_source
K K 0.2009 0.2494 'International Tables Vol C Tables 4.2.6.8 and 6.1.1.4'
Ga Ga 0.2307 1.6083 'International Tables Vol C Tables 4.2.6.8 and 6.1.1.4'
Si Si 0.0817 0.0704 'International Tables Vol C Tables 4.2.6.8 and 6.1.1.4'
Se Se -0.0929 2.2259 'International Tables Vol C Tables 4.2.6.8 and 6.1.1.4'
loop_
_geom_angle_atom_site_label_1
_geom_angle_atom_site_label_2
_geom_angle_atom_site_label_3
_geom_angle
_geom_angle_site_symmetry_1
_geom_angle_site_symmetry_3
Si Se Ga 81.1 17_655 .
Si Se Ga 0.0 17_655 17_655
Ga Se Ga 81.08(6) . 17_655
Si Se K 122.05(2) 17_655 25
Ga Se K 87.338(9) . 25
Ga Se K 122.05(2) 17_655 25
Si Se K 87.338(8) 17_655 17
Ga Se K 122.05(2) . 17
Ga Se K 87.338(8) 17_655 17
K Se K 142.85(5) 25 17
Si Se K 122.05(2) 17_655 .
Ga Se K 87.338(8) . .
Ga Se K 122.05(2) 17_655 .
K Se K 113.76(3) 25 .
K Se K 52.705(10) 17 .
Si Se K 87.338(8) 17_655 9_554
Ga Se K 122.05(2) . 9_554
Ga Se K 87.338(8) 17_655 9_554
K Se K 52.705(10) 25 9_554
K Se K 113.76(3) 17 9_554
K Se K 142.85(5) . 9_554
Se Ga Se 114.99(3) 27 17_655
Se Ga Se 98.92(6) 27 11_545
Se Ga Se 114.99(3) 17_655 11_545
Se Ga Se 114.99(3) 27 .
Se Ga Se 98.92(6) 17_655 .
Se Ga Se 114.99(3) 11_545 .
K K K 180.0 17_556 17
K K Se 116.353(5) 17_556 .
K K Se 63.647(5) 17 .
K K Se 116.353(5) 17_556 17
K K Se 63.648(5) 17 17
Se K Se 127.295(10) . 17
K K Se 63.648(6) 17_556 25
K K Se 116.353(5) 17 25
Se K Se 66.24(3) . 25
Se K Se 142.85(5) 17 25
K K Se 116.353(5) 17_556 19
K K Se 63.648(5) 17 19
Se K Se 78.637(5) . 19
Se K Se 78.636(4) 17 19
Se K Se 136.94(5) 25 19
K K Se 63.648(5) 17_556 11_545
K K Se 116.353(5) 17 11_545
Se K Se 70.33(4) . 11_545
Se K Se 136.94(5) 17 11_545
Se K Se 78.636(4) 25 11_545
Se K Se 66.24(3) 19 11_545
K K Se 63.648(5) 17_556 9_445
K K Se 116.352(6) 17 9_445
Se K Se 142.85(5) . 9_445
Se K Se 66.24(3) 17 9_445
Se K Se 127.295(11) 25 9_445
Se K Se 70.33(4) 19 9_445
Se K Se 78.636(4) 11_545 9_445
K K Se 116.352(5) 17_556 3
K K Se 63.648(5) 17 3
Se K Se 78.635(5) . 3
Se K Se 78.636(4) 17 3
Se K Se 70.33(4) 25 3
Se K Se 127.295(11) 19 3
Se K Se 142.85(5) 11_545 3
Se K Se 136.94(5) 9_445 3
K K Se 63.648(5) 17_556 27_455
K K Se 116.352(6) 17 27_455
Se K Se 136.94(5) . 27_455
Se K Se 70.33(4) 17 27_455
Se K Se 78.636(4) 25 27_455
Se K Se 142.85(5) 19 27_455
Se K Se 127.295(11) 11_545 27_455
Se K Se 78.636(4) 9_445 27_455
Se K Se 66.24(3) 3 27_455
loop_
_geom_bond_atom_site_label_1
_geom_bond_atom_site_label_2
_geom_bond_distance
_geom_bond_site_symmetry_2
Se Si 2.3639(13) 17_655
Se Ga 2.3639(13) .
Se Ga 2.3639(13) 17_655
Se K 3.4614(6) 25
Se K 3.4614(6) 17
Se K 3.4614(6) .
Se K 3.4614(6) 9_554
Ga Se 2.3639(13) 27
Ga Se 2.3639(13) 17_655
Ga Se 2.3639(13) 11_545
K K 3.0730(4) 17_556
K K 3.0730(4) 17
K Se 3.4614(6) 17
K Se 3.4614(6) 25
K Se 3.4614(6) 19
K Se 3.4614(6) 11_545
K Se 3.4614(6) 9_445
K Se 3.4614(6) 3
K Se 3.4614(6) 27_455
