#------------------------------------------------------------------------------
#$Date: 2016-08-16 08:57:02 +0300 (Tue, 16 Aug 2016) $
#$Revision: 185824 $
#$URL: file:///home/coder/svn-repositories/cod/cif/7/22/62/7226256.cif $
#------------------------------------------------------------------------------
#
# This file is available in the Crystallography Open Database (COD),
# http://www.crystallography.net/
#
# All data on this site have been placed in the public domain by the
# contributors.
#
data_7226256
loop_
_publ_author_name
'He, Jianqiao'
'Zhang, Xian'
'Guo, Pan'
'Cheng, Ye'
'Zheng, Chong'
'Huang, Fuqiang'
_publ_section_title
;
 Synthesis, structure, and optical properties of K2.4Ga2.4M1.6Q8(M = Si,
 Ge; Q = S, Se) crystals and glasses
;
_journal_issue                   80
_journal_name_full               'RSC Adv.'
_journal_page_first              76789
_journal_paper_doi               10.1039/C6RA11079G
_journal_volume                  6
_journal_year                    2016
_chemical_formula_sum            'Ga2.4 Ge1.6 K2.4 S8'
_chemical_formula_weight         633.82
_space_group_crystal_system      tetragonal
_space_group_IT_number           140
_space_group_name_Hall           '-I 4 2c'
_space_group_name_H-M_alt        'I 4/m c m'
_symmetry_space_group_name_Hall  '-I 4 2c'
_symmetry_space_group_name_H-M   'I 4/m c m'
_audit_creation_method           SHELXL-2014/7
_audit_update_record
;
2016-04-26 deposited with the CCDC.
2016-07-25 downloaded from the CCDC.
;
_cell_angle_alpha                90
_cell_angle_beta                 90
_cell_angle_gamma                90
_cell_formula_units_Z            1
_cell_length_a                   7.8824(9)
_cell_length_b                   7.8824(9)
_cell_length_c                   5.9557(7)
_cell_measurement_reflns_used    25
_cell_measurement_temperature    273(2)
_cell_measurement_theta_max      15
_cell_measurement_theta_min      7.5
_cell_volume                     370.04(7)
_computing_cell_refinement       'Bruker SMART'
_computing_data_collection       'Bruker SMART'
_computing_data_reduction        'Bruker SMART'
_computing_structure_refinement  'SHELXL-2014/7 (Sheldrick, 2014)'
_diffrn_ambient_temperature      273(2)
_diffrn_measured_fraction_theta_full 1.000
_diffrn_measured_fraction_theta_max 1.000
_diffrn_measurement_device_type  'CCD area detector'
_diffrn_measurement_method       'phi and omega scans'
_diffrn_radiation_type           MoK\a
_diffrn_radiation_wavelength     0.71073
_diffrn_reflns_av_R_equivalents  0.0411
_diffrn_reflns_av_unetI/netI     0.0175
_diffrn_reflns_Laue_measured_fraction_full 1.000
_diffrn_reflns_Laue_measured_fraction_max 1.000
_diffrn_reflns_limit_h_max       9
_diffrn_reflns_limit_h_min       -10
_diffrn_reflns_limit_k_max       10
_diffrn_reflns_limit_k_min       -10
_diffrn_reflns_limit_l_max       7
_diffrn_reflns_limit_l_min       -6
_diffrn_reflns_number            2185
_diffrn_reflns_point_group_measured_fraction_full 1.000
_diffrn_reflns_point_group_measured_fraction_max 1.000
_diffrn_reflns_theta_full        25.242
_diffrn_reflns_theta_max         27.481
_diffrn_reflns_theta_min         3.656
_exptl_absorpt_coefficient_mu    9.303
_exptl_absorpt_correction_T_max  0.963
_exptl_absorpt_correction_T_min  0.935
_exptl_absorpt_correction_type   multi-scan
_exptl_crystal_colour            pink
_exptl_crystal_density_diffrn    2.844
_exptl_crystal_description       bar
_exptl_crystal_F_000             392
_exptl_crystal_size_max          0.048
_exptl_crystal_size_mid          0.006
_exptl_crystal_size_min          0.004
_refine_diff_density_max         0.746
_refine_diff_density_min         -0.608
_refine_diff_density_rms         0.110
_refine_ls_extinction_method     none
_refine_ls_goodness_of_fit_ref   1.192
_refine_ls_hydrogen_treatment    undef
_refine_ls_matrix_type           full
_refine_ls_number_parameters     9
_refine_ls_number_reflns         131
_refine_ls_number_restraints     0
_refine_ls_restrained_S_all      1.192
_refine_ls_R_factor_all          0.0237
_refine_ls_R_factor_gt           0.0208
_refine_ls_shift/su_max          0.000
_refine_ls_shift/su_mean         0.000
_refine_ls_structure_factor_coef Fsqd
_refine_ls_weighting_details
'w=1/[\s^2^(Fo^2^)+(0.0244P)^2^+0.3237P] where P=(Fo^2^+2Fc^2^)/3'
_refine_ls_weighting_scheme      calc
_refine_ls_wR_factor_gt          0.0455
_refine_ls_wR_factor_ref         0.0465
_reflns_Friedel_coverage         0.000
_reflns_number_gt                124
_reflns_number_total             131
_reflns_threshold_expression     'I > 2\s(I)'
_cod_data_source_file            c6ra11079g2.cif
_cod_data_source_block           I4-mcm_a
_cod_original_cell_volume        370.04(10)
_cod_original_formula_sum        'Ga2.40 Ge1.60 K2.40 S8'
_cod_database_code               7226256
_shelx_shelxl_version_number     2014/7
_shelx_space_group_comment
;
The symmetry employed for this shelxl refinement is uniquely defined
by the following loop, which should always be used as a source of
symmetry information in preference to the above space-group names.
They are only intended as comments.
;
_shelx_estimated_absorpt_t_min   0.499
_shelx_estimated_absorpt_t_max   0.936
_shelx_res_file
;

    I4-mcm_a.res created by SHELXL-2014/7


TITL I4-mcm_a.res in I4/mcm
REM Old TITL I4-mcm in I4/mcm
REM SHELXT solution in I4/mcm
REM R1 0.111,  Rweak 0.008,  Alpha 0.015,  Orientation as input
REM Formula found by SHELXT:  Si K2 Ga
CELL  0.71073   7.8824   7.8824   5.9557   90.000   90.000   90.000
ZERR    4.000   0.0009   0.0009   0.0007    0.000    0.000    0.000
LATT  2
SYMM -X, -Y, Z
SYMM -Y, X, Z
SYMM Y, -X, Z
SYMM -X, Y, 1/2-Z
SYMM X, -Y, 1/2-Z
SYMM Y, X, 1/2-Z
SYMM -Y, -X, 1/2-Z
SFAC GE S K GA
UNIT 4 4 4 4
TEMP 0
SIZE 0.004 0.006 0.048
L.S. 10
LIST 4
ACTA
FMAP 2
PLAN 20
EADP GE GA
EXYZ GE GA
WGHT    0.024400    0.323700
FVAR       0.69692
GA    4    0.500000    1.000000    0.750000    10.07500    0.02058    0.02058 =
         0.00972    0.00000    0.00000    0.00000
GE    1    0.500000    1.000000    0.750000    10.05000    0.02058    0.02058 =
         0.00972    0.00000    0.00000    0.00000
S2    2    0.347578    0.847578    0.500000    10.25000    0.02668    0.02668 =
         0.01695    0.00000    0.00000   -0.00912
K3    3    0.500000    0.500000    0.250000    10.07500    0.02558    0.02558 =
         0.28638    0.00000    0.00000    0.00000
HKLF 4

REM  I4-mcm_a.res in I4/mcm
REM R1 =  0.0208 for     124 Fo > 4sig(Fo)  and  0.0237 for all     131 data
REM      9 parameters refined using      0 restraints

END

WGHT      0.0244      0.3237

REM Highest difference peak  0.746,  deepest hole -0.608,  1-sigma level  0.110
Q1    1   0.5000  0.5000  0.3395  10.25000  0.05    0.75
Q2    1   0.2604  0.9537  0.5793  11.00000  0.05    0.27
Q3    1   0.5402  0.6478  0.5000  10.50000  0.05    0.26
Q4    1   0.3060  0.8060  0.5000  10.25000  0.05    0.24
Q5    1   0.3293  0.4110  0.3014  11.00000  0.05    0.24
Q6    1   0.2411  0.6638  0.5000  10.50000  0.05    0.24
Q7    1   0.6551  0.8449  0.6217  10.50000  0.05    0.23
Q8    1   0.3429  0.6501  0.5776  11.00000  0.05    0.21
Q9    1   0.4559  0.9559  0.5000  10.25000  0.05    0.20
Q10   1   0.5340  0.7231  0.5000  10.50000  0.05    0.19
Q11   1   0.5000  0.7570  0.7500  10.50000  0.05    0.18
Q12   1   0.1907  0.8633  0.5509  11.00000  0.05    0.18
Q13   1   0.3271  0.8271  0.6863  10.50000  0.05    0.16
Q14   1   0.7476  0.9087  0.6590  11.00000  0.05    0.16
Q15   1   0.4727  0.3378  0.3345  11.00000  0.05    0.15
Q16   1   0.2224  0.7516  0.6732  11.00000  0.05    0.15
Q17   1   0.3599  0.8599  0.6662  10.50000  0.05    0.15
Q18   1   0.2226  0.8264  0.7686  11.00000  0.05    0.14
Q19   1   0.5645  0.9355  0.7748  10.50000  0.05    0.13
Q20   1   0.5380  0.9620  0.8214  10.50000  0.05    0.12
;
_shelx_res_checksum              3817
_shelx_hkl_file
;
   1   1   0 5307.47  178.98
   1   1   0 6239.38  183.48
   1   1   0 6160.08  184.28
  -1   1   0 6087.49  181.98
  -1  -1   0 5783.52  184.38
  -1   1   0 6098.59  181.68
  -1  -1   0 5919.01  178.28
  -1  -1   0 6456.45  183.48
   1  -1   0 6080.39  182.08
   0   2   0 5990.90  180.88
   0   2   0 6079.19  177.98
  -2   0   0 6064.29  178.18
   0  -2   0 5630.74  186.38
   2   0   0 5935.41  182.68
   0  -2   0 6095.39  180.88
  -2   0   0 5940.91  182.78
   0   2   0 5669.53  186.08
   2   0   0 6007.60  177.78
  -2   2   0 9356.86  290.67
  -2   2   0 9434.56  291.37
   2   2   0 9534.35  294.37
  -2  -2   0 9868.81  294.17
   2  -2   0 9723.73  291.87
   2   2   0 9508.65  295.37
   1  -3   0  155.98   15.70
  -3  -1   0  153.48   17.10
  -1   3   0  161.08   15.80
   3   1   0  187.48   14.50
   3   1   0  173.08   16.60
  -1   3   0  159.98   20.60
  -1  -3   0  183.48   14.80
   3  -1   0  142.49   14.90
  -1  -3   0  164.28   20.60
   1   3   0  163.68   21.60
   1   3   0  164.98   23.60
  -3   1   0  176.68   14.90
  -3   3   0 6620.74  214.98
  -3  -3   0 7053.39  220.08
   3   3   0 6831.52  220.98
   3   3   0 6828.62  220.88
   3  -3   0 6886.41  217.38
  -3   3   0 6921.41  216.48
  -3   3   0 6732.43  214.58
   4   2   0 7205.28  218.68
  -4  -2   0 7166.38  229.18
   2  -4   0 7151.88  225.48
   4   2   0 7311.37  225.58
   2  -4   0 7098.19  227.08
  -2   4   0 7105.69  225.18
   2  -4   0 7055.19  214.28
   4   2   0 7100.59  228.88
  -2   4   0 7172.08  231.48
   0  -4   0 1633.04   59.09
   0   4   0 1543.45   51.69
   0  -4   0 1541.65   69.79
   0   4   0 1567.84   58.49
  -4   0   0 1590.54   59.49
   4   0   0 1587.84   67.19
   0   4   0 1536.55   69.29
   2   4   0 7060.19  238.28
   2   4   0 7248.27  238.68
  -2  -4   0 7499.95  235.28
  -4   2   0 7360.86  229.28
  -2  -4   0 7037.50  230.78
   4  -2   0 7291.07  229.88
  -4   2   0 7342.97  219.28
  -4   4   0 6278.37  205.28
  -4  -4   0 6430.26  211.38
  -4   4   0 6329.17  202.88
   4  -4   0 6322.27  207.18
   4   4   0 6511.85  213.08
   4   4   0 6068.29  212.98
   3  -5   0  927.21   51.39
   5   3   0  897.21   34.70
  -3   5   0  883.11   48.80
   5   3   0  894.31   49.99
  -5  -3   0  976.70   52.69
   5   3   0  791.22   51.69
  -3   5   0  888.51   54.39
  -1   5   0 1433.96   70.39
   5   1   0 1440.86   63.19
   1  -5   0 1457.85   60.09
   5   1   0 1428.86   53.39
  -1   5   0 1431.36   59.39
   1  -5   0 1410.16   75.19
  -5  -1   0 1405.86   62.89
  -1  -5   0 1452.75   57.69
   1   5   0 1380.06   53.29
   1   5   0 1407.86   57.09
  -1  -5   0 1554.44   70.59
   5  -1   0 1438.46   62.79
  -5   1   0 1449.46   58.79
   1   5   0 1380.06   70.29
   1   5   0 1195.68   70.79
  -3  -5   0  921.71   53.59
  -5   3   0  875.61   35.40
   3   5   0  822.72   61.09
   5  -3   0  853.41   49.10
  -5   3   0  967.10   50.49
  -5   3   0  938.91   48.90
   3   5   0  937.61   60.49
  -3  -5   0  974.70   47.70
  -5   5   0  486.85   42.50
  -5  -5   0  574.44   76.99
   5  -5   0  486.95   48.90
   5   5   0  414.96   55.19
   5   5   0  480.35   61.09
   4  -6   0  616.14   55.99
  -4   6   0  581.84   55.59
  -4   6   0  612.64   52.49
   6   4   0  576.74   53.19
  -6  -4   0  646.64   56.69
  -2   6   0 1967.10   88.79
   6   2   0 1826.62   71.39
   6   2   0 1818.82   72.09
   2  -6   0 1596.94   97.29
  -6  -2   0 1853.31   81.69
   2  -6   0 1826.92   80.99
   6   2   0 1827.52   81.99
   2  -6   0 1857.01   78.29
  -2   6   0 1917.41   77.89
   6   0   0 6782.62  229.18
   0  -6   0 6882.51  223.48
   0  -6   0 7038.00  242.68
  -6   0   0 7141.59  224.98
   0   6   0 6946.81  223.68
   0   6   0 6891.61  238.28
  -6   2   0 1905.91   76.79
   2   6   0 1903.71   93.59
   2   6   0 1812.42   73.89
   6  -2   0 1816.32   83.19
  -2  -6   0 1865.21   75.59
  -2  -6   0 1976.10   88.19
   2   6   0 1552.04   91.59
   6  -4   0  598.14   54.79
   4   6   0  625.44   67.99
   4   6   0  479.25   84.29
  -6   4   0  597.74   54.59
  -6   4   0  587.44   48.00
  -4  -6   0  656.83   57.29
  -4  -6   0  564.94   50.29
   6   6   0 2417.36  119.59
  -6   6   0 2378.36  110.29
  -6   6   0 2219.28   94.89
  -6  -6   0 2401.36  116.69
  -7  -5   0  473.55   59.59
  -5   7   0  377.96   52.29
  -5   7   0  599.84   69.39
  -7  -3   0    6.00   32.60
   3  -7   0   27.40   49.70
   7   3   0   16.50   20.20
  -3   7   0   39.80   30.20
  -3   7   0  -56.59   35.70
   7   3   0   39.70   27.20
  -1   7   0 1547.75   89.19
  -1   7   0 1658.13   73.49
   1  -7   0 1459.25   74.39
   7   1   0 1512.65   78.29
   7   1   0 1429.46   74.09
   1  -7   0 1403.36  146.79
  -7  -1   0 1605.94   73.09
   1   7   0 1523.55   60.39
   7  -1   0 1536.65   81.09
  -7   1   0 1602.84   72.59
  -1  -7   0 1601.44   74.39
   3   7   0   37.30   46.30
  -7   3   0  -13.20   24.20
   3   7   0   31.30   29.30
  -3  -7   0   27.00   32.60
   7  -3   0   -5.70   30.20
  -3  -7   0   16.30   30.40
  -7   5   0  482.85   53.59
   5   7   0  301.77   65.09
  -5  -7   0  456.45   58.89
  -7   7   0  672.43   75.69
   7   7   0  776.82  106.69
  -7  -7   0  738.33  102.09
  -8  -6   0  609.84   82.09
   8   6   0  795.02  103.99
  -6   8   0  802.52   98.69
  -8  -4   0  945.91   80.79
   4  -8   0  870.91  106.69
   8   4   0  746.43   67.99
  -4   8   0  825.12   90.39
  -4   8   0  973.20   80.39
  -2   8   0 1041.50   71.99
   8   2   0  927.81   65.19
  -8  -2   0 1038.70   77.49
  -8  -2   0 1029.40   70.69
   2  -8   0  907.01   99.29
  -2   8   0 1083.19   89.09
   8   0   0 1386.76   94.29
  -8   0   0 1668.83   81.69
   0   8   0 1666.63   82.29
   0  -8   0 1841.82  108.69
   0   8   0 1763.72  106.99
   2   8   0 1079.49   58.19
  -2  -8   0  955.50   80.09
  -8   2   0  874.11   84.89
   2   8   0  835.52   89.79
   4   8   0  982.40   99.09
  -8   4   0 1161.38   86.99
   4   8   0  872.11   75.49
  -4  -8   0  943.91   87.49
  -8   4   0  869.51   73.59
  -8   6   0  801.12   80.09
  -6  -8   0  880.71  104.39
   6   8   0  862.41  118.49
  -9  -3   0  590.54   78.29
  -3   9   0  691.53   84.39
  -3   9   0  572.84   79.49
  -9  -3   0  644.04   73.79
   3  -9   0  461.85   94.59
   1  -9   0   37.50   64.79
  -1   9   0   92.39   64.69
  -9  -1   0  120.29   38.50
   9   1   0  148.89   53.39
  -1   9   0  119.29   43.80
  -1  -9   0  127.29   55.89
   1   9   0  118.89   69.69
  -9   1   0  110.19   39.80
  -3  -9   0  578.14   75.69
   3   9   0  997.50  116.79
   3   9   0  743.03   72.29
  -9   3   0  717.03   73.59
  -9   3   0  642.84   75.09
  -2  10   0  770.42   95.19
 -10  -2   0  531.25   66.39
  -2  10   0  562.44   91.69
 -10   0   0   37.60   46.70
   0 -10   0   -4.50   75.09
   0  10   0  126.79   90.89
 -10   2   0  525.05   67.59
   0  -1  -1    1.10    5.30
   0   1  -1   -2.60    4.70
   0   1  -1    2.20    3.60
   1   0  -1   -6.40    4.70
  -1   0  -1    0.90    3.40
   0  -1  -1   -1.80    3.50
   1   0  -1   -6.70    2.90
  -1   0  -1    2.20    4.50
   0  -1  -1   10.60    4.40
   0  -1  -1    0.50    4.70
   0  -1  -1    4.20    4.20
   0  -1  -1   -1.20    3.40
   0   1   1   -1.20    4.00
   1   0   1   -0.30    4.90
  -1   0   1    0.90    2.50
   0   1   1    0.80    3.80
   0   1   1    0.00    5.40
   0  -1   1    2.20    4.50
   0   1   1    1.10    4.30
   1   0   1    1.80    3.10
  -1   0   1    3.10    4.90
  -1   2  -1 2619.44   81.59
  -2  -1  -1 2678.33   87.69
   1  -2  -1 2744.03   85.79
   1  -2  -1 2563.64   85.19
   1  -2  -1 2689.63   87.79
   2   1  -1 2628.14   86.09
   1  -2  -1 2651.73   86.99
   2   1  -1 2618.64   86.29
  -1   2  -1 2659.83   84.79
  -2  -1  -1 2600.64   86.59
  -1   2   1 2562.94   87.09
  -1   2   1 2617.54   86.89
   2   1   1 2647.73   87.69
  -2  -1   1 2616.54   86.09
  -1   2   1 2550.64   85.29
  -2  -1   1 2592.64   86.29
   2   1   1 2728.13   86.99
   1  -2   1 2638.74   81.29
  -1  -2  -1 2629.84   82.69
  -1  -2  -1 2593.24   89.59
   1   2  -1 2656.13   89.09
   2  -1  -1 2765.52   90.89
  -1  -2  -1 2694.43   88.99
  -2   1  -1 2690.93   82.59
   2  -1  -1 2574.54   82.19
   2  -1  -1 2602.14   87.59
  -2   1   1 2557.84   84.29
   1   2   1 2640.24   87.59
  -2   1   1 2564.84   87.19
   1   2   1 2733.03   82.99
  -1  -2   1 2582.44   86.59
  -1  -2   1 2650.73   81.89
  -1  -2   1 2706.03   87.99
   2  -1   1 2630.64   82.49
   1   2   1 2689.83   90.49
   1   2   1 2625.14   90.19
   3   2  -1  153.28   19.20
   3   2  -1  103.99   15.40
   2  -3  -1  130.99   18.70
   2  -3  -1  168.78   18.10
  -3  -2  -1  160.98   20.50
  -2   3  -1  160.78   17.30
   2  -3  -1  162.78   15.60
  -3  -2  -1  147.89   20.80
   2  -3  -1  131.59   16.80
  -2   3   1  179.58   20.30
   2  -3   1  151.18   17.10
  -3  -2   1  147.29   14.50
   2  -3   1  166.38   10.80
   3   2   1  176.98   21.00
  -2   3   1  137.69   18.90
  -2   3   1  153.08   17.10
   3   2   1  141.19   20.50
  -3  -2   1  147.39   20.20
   0  -3  -1  -12.00   10.90
   0  -3  -1   -2.60    7.00
   0   3  -1    2.80    6.30
   3   0  -1    8.90    8.00
   0   3  -1   -8.50   11.90
  -3   0  -1   -3.60    7.40
  -3   0  -1   -0.40    7.20
   0  -3  -1  -12.70   11.00
  -3   0  -1   -0.20    5.80
   3   0  -1    2.10    9.80
   0  -3  -1  -10.80    7.50
   0   3   1    1.80    5.90
   0  -3   1   -6.70    6.60
  -3   0   1   10.70    9.20
   3   0   1   -0.60    7.40
   0   3   1   11.60    8.60
   0   3   1   -2.70   12.50
   0   3   1    6.30   12.30
   0  -3   1  -13.40   11.60
   3  -2  -1  160.28   19.20
  -3   2  -1  141.89   14.90
  -2  -3  -1  156.78   20.90
   2   3  -1  189.58   23.00
  -2  -3  -1  136.09   21.40
  -3   2   1  151.88   11.70
  -2  -3   1  159.88   21.40
   2   3   1  211.58   26.50
  -3   2   1  153.38   19.60
  -2  -3   1  147.59   14.90
  -3   2   1  139.79   15.50
   2   3   1  188.28   25.10
   2   3   1  144.29   19.60
  -2  -3   1  156.58   13.80
   3  -2   1  153.18   15.50
  -4  -3  -1   95.89   21.50
  -4  -3  -1   73.59   24.90
   3  -4  -1   86.39   15.40
   3  -4  -1   88.99   19.50
   4   3  -1   89.49   24.50
  -3   4  -1   68.49   17.30
   4   3  -1   83.29   14.40
   4   3  -1   72.39   21.70
   3  -4   1   83.49   10.50
   4   3   1   77.89   21.70
  -4  -3   1   97.09   21.50
  -3   4   1   77.59   16.90
   3  -4   1   82.59   17.10
   4   3   1   76.59   21.60
  -3   4   1   54.39   19.90
   4   1  -1  536.05   30.40
  -4  -1  -1  538.55   32.60
   1  -4  -1  520.65   30.40
   4   1  -1  541.15   32.80
  -1   4  -1  506.05   28.90
   4   1  -1  529.95   29.70
  -4  -1  -1  553.54   30.90
   1  -4  -1  453.65   43.20
   1  -4  -1  564.74   34.10
   1  -4  -1  557.14   26.10
   4   1   1  570.94   33.60
   1  -4   1  430.36   40.60
   1  -4   1  516.55   29.90
  -1   4   1  538.55   31.10
   4   1   1  541.55   29.70
  -1   4   1  522.05   37.80
  -4  -1   1  527.05   32.20
   1   4  -1  420.56   38.40
   1   4  -1  509.55   26.30
  -1  -4  -1  486.15   40.20
  -1  -4  -1  544.55   25.80
   4  -1  -1  544.95   32.70
  -1  -4  -1  539.55   30.90
  -4   1  -1  544.75   26.00
  -1  -4  -1  518.45   37.10
  -4   1  -1  526.35   25.80
   4  -1  -1  517.95   32.80
  -1  -4   1  519.05   26.90
  -4   1   1  521.95   32.00
   1   4   1  485.65   41.20
   4  -1   1  513.95   32.80
  -1  -4   1  500.15   35.90
   1   4   1  546.95   29.30
   1   4   1  488.95   37.80
   3   4  -1   93.99   28.40
   4  -3  -1   73.39   19.30
  -3  -4  -1   40.40   26.60
   3   4  -1   79.59   22.30
  -3  -4  -1   85.49   21.10
   3   4   1   53.69   24.40
   4  -3   1   77.39   16.10
  -3  -4   1   53.19   19.50
  -3  -4   1   67.89   12.00
  -4   3   1   80.49   17.80
  -3  -4   1   88.09   15.30
  -4   3   1   90.39   18.80
   3   4   1   65.59   20.80
   3   4   1   67.99   23.90
   5   4  -1  451.25   48.30
   4  -5  -1  338.97   43.00
  -4   5  -1  367.66   39.60
  -5  -4  -1  381.36   42.90
   5   4  -1  374.46   44.40
  -4   5   1  420.66   38.80
  -5  -4   1  492.05   45.40
   4  -5   1  334.77   40.00
  -4   5   1  360.36   39.60
   5   4   1  355.76   45.80
   5   4   1  409.06   47.90
   2  -5  -1 1193.08   54.39
   5   2  -1 1209.88   52.49
   2  -5  -1 1149.58   57.29
  -5  -2  -1 1201.68   57.19
   5   2  -1 1113.19   56.79
   5   2  -1 1161.38   50.69
  -2   5  -1 1122.39   51.89
   2  -5  -1  920.51   68.89
  -2   5   1 1221.48   61.69
   5   2   1 1220.48   57.89
  -5  -2   1 1116.39   56.19
  -2   5   1 1165.78   54.09
   5   2   1 1167.08   53.59
   2  -5   1  918.11   68.49
  -5   0  -1   11.70   12.40
   0  -5  -1   20.10   21.60
   5   0  -1   20.20   16.80
   5   0  -1    2.00   18.70
   0  -5  -1  -22.80   14.90
   5   0  -1   -1.80    5.80
   0   5  -1   18.70   13.60
  -5   0  -1   19.90   11.60
   0   5   1    6.40   10.30
  -5   0   1   22.30   14.90
   0   5   1   -7.10   21.50
   0   5   1   -6.30   13.80
   5   0   1    8.80   15.40
   0  -5   1  -13.30   19.00
   0  -5   1   15.80   14.90
   2   5  -1 1136.89   66.59
   5  -2  -1 1139.29   57.49
   2   5  -1 1226.48   69.29
   5  -2  -1 1134.89   56.09
  -5   2  -1 1161.28   50.09
  -2  -5  -1 1174.08   54.09
  -2  -5  -1 1251.17   61.39
   5  -2   1 1144.59   57.99
   2   5   1 1034.80   67.79
  -5   2   1 1167.38   55.49
  -5   2   1 1146.79   52.79
  -2  -5   1 1224.38   61.39
  -2  -5   1 1220.78   49.90
   5  -2   1 1060.99   54.29
   2   5   1 1128.99   52.89
   2   5   1 1083.69   65.49
  -5   4  -1  401.66   41.50
  -4  -5  -1  422.36   40.00
   5  -4  -1  390.66   43.50
   4   5  -1  295.17   42.40
  -4  -5  -1  444.86   45.90
   4   5  -1  414.06   51.69
   5  -4   1  354.06   39.50
  -5   4   1  370.66   39.50
  -4  -5   1  434.26   36.30
  -4  -5   1  444.16   44.30
   4   5   1  452.05   54.89
  -5   4   1  372.76   41.00
   4   5   1  413.16   51.89
   4   5   1  345.47   45.20
  -5   4   1  368.06   25.50
   6   5  -1  193.48   42.70
  -5   6  -1  170.98   37.60
  -5   6  -1  166.68   41.70
  -6  -5  -1  129.39   38.40
   6   5   1  112.29   51.59
   5  -6   1  158.48   36.60
  -6  -5   1  179.48   42.00
  -5   6   1   79.09   31.50
  -5   6   1  142.49   38.20
   3  -6  -1  -43.60   35.60
   6   3  -1   36.90   24.40
   6   3  -1   19.10   19.70
  -6  -3  -1   15.70   24.90
   3  -6  -1    5.80   26.50
   6   3  -1    0.10   27.40
  -3   6  -1   41.90   22.40
   3  -6  -1   20.60   23.70
  -3   6   1   10.60   23.30
   3  -6   1   28.90   24.60
   6   3   1    9.80   24.10
   6   3   1    4.40   27.80
  -6  -3   1    9.20   24.60
   3  -6   1   58.59   40.20
   6   3   1   -2.30   12.50
  -3   6   1   25.70   30.00
   6   1  -1  231.58   31.60
   1  -6  -1  143.69   26.10
   1  -6  -1  145.69   37.40
  -6  -1  -1  208.68   24.40
  -6  -1  -1  196.88   27.00
   6   1  -1  164.08   20.20
  -6  -1  -1  192.88   30.80
   6   1  -1  198.08   29.70
   1  -6  -1  186.28   29.30
  -1   6  -1  177.38   23.70
   1  -6   1  205.28   39.20
  -6  -1   1  239.58   29.40
   1  -6   1  224.88   28.50
  -1   6   1  189.98   27.00
  -6  -1   1  227.28   32.90
  -1   6   1  192.48   38.60
   6   1   1  219.08   32.60
   1   6  -1  199.98   40.00
  -1  -6  -1  196.88   34.10
   1   6  -1  210.88   24.20
   6  -1  -1  182.78   29.50
  -6   1  -1  161.68   21.30
   1   6  -1  259.17   44.00
  -1  -6  -1  154.88   26.70
  -6   1  -1  222.88   27.00
   6  -1  -1  219.38   38.10
  -1  -6   1  208.78   35.20
   6  -1   1  176.18   28.70
   1   6   1  169.78   41.50
  -1  -6   1  154.28   25.60
   1   6   1  218.68   28.00
   1   6   1  194.88   38.60
  -6   1   1  241.68   28.90
   3   6  -1    0.70   35.70
  -6   3  -1  -12.50   17.30
   6  -3  -1   24.30   24.90
   3   6  -1  -42.50   35.10
  -3  -6  -1   31.00   28.10
  -3  -6  -1   31.60   24.10
  -6   3   1  -27.20   20.00
   3   6   1   -4.40   38.80
   3   6   1  -33.90   22.30
   3   6   1    5.70   36.00
  -6   3   1    5.70   22.40
  -3  -6   1   -3.50   24.90
  -3  -6   1    8.60   15.30
   6  -3   1   48.70   22.10
  -3  -6   1   -4.90   19.90
   6  -3   1  -12.80   26.80
   5   6  -1  178.18   48.40
  -6   5  -1  219.28   38.20
  -5  -6  -1  159.38   40.20
  -6   5  -1  209.38   38.60
  -5  -6   1  138.09   34.00
  -5  -6   1  126.99   39.10
  -6   5   1  198.68   39.30
  -6   5   1  173.68   39.30
   6  -5   1  127.29   35.20
  -6   5   1  126.69   21.10
   5   6   1  165.48   75.29
   5   6   1  127.49   45.80
  -7  -6  -1  -14.80   49.10
  -6   7  -1   73.59   48.70
   7   6  -1  119.29   58.49
  -6   7  -1  -28.90   42.90
   7   6   1   15.30   57.89
  -6   7   1   51.39   51.79
  -6   7   1  -50.19   46.90
  -7  -6   1   42.40   53.59
   4  -7  -1  -12.40   55.59
  -4   7  -1   -3.80   44.20
  -7  -4  -1   37.00   37.10
   7   4  -1   68.99   34.80
  -4   7  -1   30.50   32.30
  -7  -4   1   36.00   38.60
  -4   7   1   58.39   40.60
   7   4   1  -34.80   33.40
  -4   7   1   43.60   36.10
   4  -7   1   44.20   54.49
   2  -7  -1  216.88   49.00
  -2   7  -1  124.19   33.10
   7   2  -1  128.29   31.50
  -7  -2  -1  143.89   37.10
   7   2  -1  115.89   23.00
  -7  -2  -1  137.09   26.60
  -2   7  -1  110.89   44.50
   2  -7   1  161.18   53.19
  -2   7   1  161.98   43.60
  -7  -2   1  120.29   35.00
  -7  -2   1  131.19   49.80
  -2   7   1   86.09   31.10
   2  -7   1   83.09   32.00
   0  -7  -1   18.10   60.79
  -7   0  -1   -1.50   19.90
   0   7  -1   44.10   22.10
  -7   0  -1   16.90   19.50
   7   0  -1  -26.80   28.30
   7   0  -1    0.70   32.30
   0   7   1   45.50   40.70
   0  -7   1  -19.20   26.10
  -7   0   1   23.90   22.20
   0  -7   1  -33.30   38.00
   7   0   1   36.20   31.50
   0   7   1   19.20   18.00
  -7   2  -1  142.99   26.60
  -2  -7  -1  187.28   42.30
  -2  -7  -1  170.48   34.80
  -7   2  -1  136.89   18.40
   7  -2  -1   53.39   44.10
   2   7  -1   81.89   46.30
   2   7   1  163.18   50.69
  -2  -7   1  108.89   28.80
  -7   2   1  127.29   31.40
  -2  -7   1  129.89   36.60
  -7   2   1  109.39   28.40
   2   7   1  160.28   30.10
  -7   4  -1  -21.60   21.90
  -7   4  -1   53.59   38.40
  -4  -7  -1    2.10   38.80
   4   7  -1   30.00   50.89
  -4  -7   1    9.10   32.90
   4   7   1   48.40   36.10
  -7   4   1   66.99   31.60
   7  -4   1  -15.70   32.70
  -4  -7   1   12.10   38.50
   4   7   1  -31.20   50.09
  -7   4   1  -30.50   33.70
  -7   6  -1   45.10   49.90
  -6  -7  -1   65.49   53.69
   6   7  -1   56.09   62.09
   6   7   1   22.70   64.69
  -7   6   1   69.59   47.90
  -6  -7   1   81.29   50.19
   6   7   1   32.00   53.79
   8   5  -1  369.46   86.09
  -5   8  -1  232.08   54.49
   5  -8  -1  171.58   78.59
  -8  -5  -1  319.27   64.29
  -5   8  -1  217.88   63.79
   5  -8   1  124.89   77.19
  -8  -5   1  256.57   64.79
  -5   8   1  279.97   56.59
   8   5   1  199.88   57.69
  -5   8   1  212.48   57.29
  -8  -3  -1   74.99   43.40
   8   3  -1   10.60   36.20
   3  -8  -1   61.29   55.49
  -3   8  -1   15.90   36.20
  -3   8  -1  -11.60   56.69
  -3   8   1   55.19   39.80
  -3   8   1  127.79   54.79
   8   3   1    1.80   35.60
  -8  -3   1  -15.30   40.00
  -8  -3   1  -17.90   34.60
   3  -8   1  -35.50   58.09
  -8  -1  -1  389.96   45.40
  -1   8  -1  349.77   68.29
   1  -8  -1  316.17   62.09
   8   1  -1  514.35   64.99
  -1   8  -1  394.06   44.50
  -1   8   1  310.87   63.89
  -8  -1   1  267.97   43.50
  -1   8   1  297.37   42.50
   1  -8   1  389.96   67.49
  -8   1  -1  379.76   45.40
   1   8  -1  375.46   69.59
  -1  -8  -1  289.47   54.89
   1   8   1  304.27   32.80
  -1  -8   1  322.07   47.40
  -1  -8   1  266.37   52.49
  -8   1   1  306.17   43.30
   1   8   1  272.67   63.09
  -8   3  -1   46.90   29.40
   3   8  -1   89.29   58.09
  -3  -8  -1   96.69   43.90
   3   8  -1   62.49   35.20
  -3  -8   1   80.79   41.00
  -3  -8   1   21.40   42.70
  -8   3   1   79.99   40.60
  -8   3   1  -11.80   33.20
   3   8   1   -2.60   57.59
   3   8   1    9.00   35.60
   5   8  -1  205.78   72.09
  -5  -8  -1  259.07   62.79
  -8   5  -1  177.98   57.19
  -8   5   1  303.27   57.09
   5   8   1  299.87   60.39
  -8   5   1  267.07   54.09
   5   8   1  263.47   75.79
  -5  -8   1  344.47   63.19
  -4   9  -1   41.60   52.69
   4  -9  -1  172.98   80.99
  -9  -4  -1  122.09   62.09
  -4   9  -1   27.50   71.59
  -9  -4   1  163.08   56.89
  -4   9   1  -46.30   65.19
   4  -9   1   45.90   91.89
  -9  -4   1   83.29   61.89
  -4   9   1   19.20   56.29
   2  -9  -1  154.98   73.99
  -2   9  -1  161.78   69.99
  -9  -2  -1  188.48   43.00
  -2   9  -1  189.18   46.40
  -2   9   1   59.69   46.40
   2  -9   1  188.28   78.59
  -9  -2   1   67.39   45.20
  -2   9   1   12.80   69.89
   0   9  -1   24.20   65.79
   0   9  -1   -0.90   37.40
   0  -9  -1  -56.69   60.19
  -9   0   1  -23.70   35.80
   0   9   1  -66.19   69.29
   0  -9   1   99.89   63.79
  -2  -9  -1  185.08   61.09
  -9   2  -1   84.59   38.30
   2   9  -1  144.79   72.19
   2   9   1   14.40   71.59
  -9   2   1  106.19   48.90
   2   9   1   73.59   38.10
  -2  -9   1  177.08   60.29
  -9   2   1  160.48   43.60
  -9   4  -1  105.79   60.19
   4   9  -1  139.09   83.99
  -4  -9  -1   27.90   62.99
  -9   4   1  -16.00   55.69
   4   9   1   40.80   56.09
  -4  -9   1  -10.80   63.69
   4   9   1  167.58   91.09
  -9   4   1   19.00   49.99
  -1  10  -1  -74.79   85.29
 -10  -1  -1  101.39   44.80
  -1  10  -1  -94.59   48.10
  -1  10   1  -14.40   86.59
   1 -10   1   92.89   86.49
 -10  -1   1  -56.59   50.29
 -10   1  -1  -77.59   43.80
  -1 -10   1  -19.20   67.69
 -10   1   1    2.40   52.29
   1  10   1  -43.00   88.79
   0   0  -2  413.56   22.40
   0   0  -2  407.56   24.00
   0   0   2  427.76   23.70
   0   0   2  421.06   22.70
   0   0   2  426.06   18.50
  -1  -1  -2 1403.56   46.10
   1   1  -2 1338.77   52.99
  -1  -1  -2 1341.17   53.29
   1  -1  -2 1305.57   52.19
   1  -1  -2 1326.17   45.70
   1   1  -2 1392.86   45.80
  -1  -1  -2 1348.97   52.09
  -1   1  -2 1328.27   49.50
  -1  -1  -2 1344.27   44.90
   1  -1  -2 1408.06   52.59
   1  -1  -2 1331.57   49.30
   1  -1  -2 1289.67   50.39
  -1   1   2 1292.27   48.90
  -1   1   2 1350.36   45.90
  -1   1   2 1365.46   52.89
  -1  -1   2 1343.37   44.80
   1   1   2 1317.37   51.39
  -1  -1   2 1272.77   52.19
   1   1   2 1362.46   50.39
   1   1   2 1333.37   47.30
   1  -1   2 1327.07   49.20
   0   2  -2 9711.13  293.87
   0  -2  -2 9635.94  296.67
   0  -2  -2 9741.53  294.17
   0  -2  -2 9711.03  298.97
   0  -2  -2 9999.00  297.97
   0  -2  -2 9490.15  296.87
   2   0  -2 9691.73  292.57
   0   2  -2 9313.87  291.97
  -2   0  -2 9751.32  298.97
   2   0  -2 9555.04  298.97
   0  -2  -2 9827.42  294.97
   2   0   2 9730.23  298.17
   2   0   2 9660.03  292.07
  -2   0   2 9669.63  296.57
   0   2   2 9671.83  296.87
  -2   0   2 9449.15  288.37
   0  -2   2 9766.22  294.27
  -2   0   2 9676.23  299.47
   0   2   2 9492.05  296.77
   0   2   2 9606.64  299.27
   2  -2  -2 4784.22  159.68
   2  -2  -2 4701.63  152.08
  -2  -2  -2 4818.82  158.18
   2  -2  -2 4864.71  155.78
  -2  -2  -2 4889.41  152.88
   2   2  -2 4703.93  155.58
   2  -2  -2 4750.22  154.78
   2   2  -2 4799.12  152.98
   2  -2  -2 4632.54  150.18
   2   2   2 4935.21  155.18
  -2  -2   2 4859.61  151.78
   2  -2   2 4814.62  150.78
   2   2   2 4622.54  157.98
  -2   2   2 4740.93  155.18
  -2  -2   2 4861.01  155.58
   2   2   2 4726.83  156.88
   2   2   2 4694.93  149.79
  -2   2   2 4602.14  150.28
   1  -3  -2 4845.22  187.58
  -1   3  -2 5657.83  175.18
   1  -3  -2 5839.72  184.28
   1  -3  -2 5737.13  185.08
   3   1  -2 5853.21  180.68
   1  -3  -2 5465.95  184.08
   1  -3  -2 6051.49  182.58
  -3  -1  -2 5770.72  180.48
  -1   3  -2 5810.92  177.28
   3   1  -2 5923.11  184.58
  -3  -1  -2 5909.21  184.58
   3   1   2 6004.30  181.18
  -3  -1   2 5891.01  184.38
  -1   3   2 5661.83  184.38
   3   1   2 5744.53  187.18
   1  -3   2 4869.61  184.78
  -3  -1   2 5628.04  180.08
  -1   3   2 5713.83  180.18
  -1  -3  -2 5845.42  186.38
  -1  -3  -2 5718.83  180.18
  -1  -3  -2 5947.71  188.98
   1   3  -2 5096.79  184.88
  -1  -3  -2 5906.91  182.78
   3  -1  -2 5896.41  185.18
   3  -1  -2 5651.43  177.98
   3  -1  -2 5843.42  188.98
   3  -1  -2 5640.14  181.98
  -1  -3  -2 6006.80  186.18
   1   3  -2 5481.55  175.08
   1   3   2 5597.54  188.38
  -3   1   2 5813.92  184.78
  -3   1   2 5675.93  177.68
  -1  -3   2 6025.60  183.78
  -1  -3   2 5740.83  185.98
   3  -1   2 5809.12  181.48
   3  -1   2 5951.60  185.18
   1   3   2 5719.63  184.08
   1   3   2 5146.78  187.18
   1   3   2 6011.70  180.88
  -3  -3  -2   65.39   17.00
  -3  -3  -2   52.49   21.60
   3  -3  -2   43.20   15.20
   3   3  -2   42.30   17.40
   3  -3  -2   64.79   21.10
   3  -3  -2   36.50   14.00
   3  -3  -2   17.80   14.50
  -3   3   2   34.00   14.40
  -3   3   2   36.70   14.80
  -3  -3   2   49.60   15.30
   3   3   2   -2.20   17.60
   3  -3   2   58.69   11.90
  -3  -3   2   44.80   14.50
   3   3   2   30.00   18.20
   3   3   2   79.69   22.90
   3  -3   2   41.60   11.70
  -3  -3   2   37.10    8.90
   2  -4  -2 2172.88   86.89
   4   2  -2 2305.07   86.59
  -4  -2  -2 2281.17   85.49
   2  -4  -2 2291.47   91.89
   2  -4  -2 2240.08   82.99
  -4  -2  -2 2302.57   88.59
   4   2  -2 2219.08   85.19
   2  -4  -2 2335.17   82.89
  -2   4  -2 2175.98   81.09
  -4  -2   2 2256.67   84.29
  -4  -2   2 2232.28   84.99
  -2   4   2 2332.37   87.39
   4   2   2 2209.68   88.09
   4   2   2 2185.88   92.99
   4   2   2 2284.87   86.69
  -2   4   2 2200.98   83.59
   4   0  -2 9061.89  284.07
   4   0  -2 9125.09  288.27
   0   4  -2 8971.80  277.47
   0  -4  -2 9319.77  293.57
   0  -4  -2 9154.28  285.47
   0  -4  -2 9305.67  283.77
   0  -4  -2 9084.99  283.67
   0   4  -2 9001.00  275.67
  -4   0  -2 9328.77  284.57
   0  -4  -2 9314.17  284.27
   0  -4  -2 9097.69  290.27
   0   4   2 8793.22  281.97
   0  -4   2 9311.67  290.07
   0   4   2 9266.07  291.37
   4   0   2 8117.29  288.57
  -4   0   2 9123.79  276.67
  -4   0   2 9152.48  286.67
  -2  -4  -2 2362.66   88.59
   4  -2  -2 2268.27   87.79
  -2  -4  -2 2106.99   83.59
  -2  -4  -2 2226.48   92.39
   4  -2  -2 2304.77   93.89
   2   4  -2 2169.58   91.19
   2   4   2 2058.89   92.99
  -2  -4   2 2269.07   84.59
   4  -2   2 2224.38   84.99
  -2  -4   2 2329.17   86.89
   4  -2   2 2300.37   75.99
  -2  -4   2 2304.27   75.09
   2   4   2 2301.27   93.69
   2   4   2 2225.48   86.49
  -4   2   2 2285.27   86.89
  -4   2   2 2244.98   80.99
   4   4  -2  904.81   57.49
  -4  -4  -2 1048.60   55.29
  -4  -4  -2  875.01   63.79
   4  -4  -2  836.02   66.69
  -4   4  -2  998.00   51.69
   4  -4  -2  973.40   56.99
  -4   4   2  911.21   51.19
  -4   4   2  917.81   46.20
  -4   4   2  906.01   53.99
  -4  -4   2  925.61   40.30
   4   4   2  956.60   60.09
   4   4   2  874.21   61.39
  -4  -4   2  947.51   54.59
   4  -4   2  927.11   41.90
   4   4   2  944.81   59.79
  -4  -4   2  996.40   47.20
   4  -4   2  945.91   47.60
   3  -5  -2 1325.37   66.79
   3  -5  -2  998.80   72.89
   5   3  -2 1266.67   60.29
  -5  -3  -2 1282.97   70.49
  -5  -3  -2 1290.27   64.69
  -3   5  -2 1346.37   59.79
   5   3  -2 1197.28   65.19
   3  -5  -2 1311.87   57.59
   3  -5  -2 1333.47   61.99
   5   3   2 1312.57   68.19
   3  -5   2 1334.97   59.89
  -5  -3   2 1292.97   65.09
  -3   5   2 1253.17   64.79
   5   3   2 1256.77   67.39
   5   3   2 1312.17   74.29
  -3   5   2 1270.37   62.69
   1  -5  -2 1204.18   57.69
  -5  -1  -2 1213.58   48.50
  -5  -1  -2 1306.07   60.39
  -5  -1  -2 1288.77   58.99
   1  -5  -2 1278.47   62.19
   1  -5  -2 1264.27   62.99
   1  -5  -2 1235.38   72.99
   5   1  -2 1200.28   61.49
  -1   5  -2 1286.17   53.79
   1  -5  -2 1233.28   66.89
   1  -5  -2 1283.07   54.69
   5   1  -2 1311.37   59.89
  -1   5   2 1294.07   58.39
   1  -5   2 1201.58   69.79
  -1   5   2 1242.48   66.29
   5   1   2 1286.07   59.99
  -5  -1   2 1218.58   60.29
  -5  -1   2 1175.58   58.19
   5   1   2 1250.37   68.19
   1   5  -2 1257.47   50.19
  -1  -5  -2 1346.87   67.29
   5  -1  -2 1276.67   59.89
   5  -1  -2 1215.68   67.19
  -5   1  -2 1319.97   56.99
   5  -1  -2 1309.77   43.10
  -1  -5  -2 1281.97   59.19
  -5   1  -2 1282.57   48.50
  -1  -5  -2 1317.67   70.09
   5  -1   2 1288.07   65.69
  -1  -5   2 1315.97   53.09
   5  -1   2 1243.38   59.79
  -5   1   2 1196.68   60.29
  -1  -5   2 1364.26   65.19
  -5   1   2 1182.58   53.19
   1   5   2 1358.66   57.29
   1   5   2 1243.88   70.29
   5  -3  -2 1297.97   67.49
  -3  -5  -2 1263.77   63.19
  -3  -5  -2 1335.77   67.09
  -3  -5  -2 1450.65   79.89
   3   5  -2 1208.28   72.99
   5  -3  -2 1313.67   77.69
   3   5   2 1279.07   74.89
   5  -3   2 1311.97   61.29
  -3  -5   2 1281.37   52.19
   5  -3   2 1301.77   54.89
   3   5   2 1271.77   65.49
   3   5   2 1198.38   77.59
  -3  -5   2 1284.07   66.79
  -3  -5   2 1281.07   58.19
  -5   3   2 1363.66   61.49
  -5   3   2 1198.38   64.89
   5   5  -2  921.61   76.29
  -5   5  -2 1029.20   62.69
  -5  -5  -2  935.91   82.39
  -5  -5  -2 1042.30   67.89
   5   5  -2  798.02   73.59
   5  -5  -2 1005.10   61.89
  -5   5   2  972.40   66.89
   5  -5   2  919.41   58.19
  -5  -5   2 1014.00   82.89
  -5  -5   2  934.01   50.19
   5   5   2  881.61   73.79
   5  -5   2  878.71   47.10
  -5   5   2 1072.49   66.29
  -5  -5   2  962.70   50.59
   6   4  -2 3062.59  125.19
  -4   6  -2 3112.99  117.99
  -6  -4  -2 3136.39  125.39
  -6  -4  -2 2646.14  131.69
   4  -6   2 2887.01  117.49
   6   4   2 2961.60  123.99
  -6  -4   2 3246.38  126.79
  -4   6   2 3093.79  121.49
   6   4   2 2832.92  133.99
  -4   6   2 3059.49  118.89
   6   2  -2 2585.14   98.09
   2  -6  -2 2409.56  106.39
  -2   6  -2 2638.14   97.39
  -6  -2  -2 2652.03  104.89
   2  -6  -2 2415.06  100.49
   6   2  -2 2446.46  100.69
   2  -6  -2 2344.57  122.19
  -6  -2  -2 2751.72  104.79
   6   2  -2 2601.84  104.49
  -2   6   2 2513.85  101.99
   2  -6   2 2421.36  119.29
   6   2   2 2604.74  105.79
  -2   6   2 2545.65  110.99
  -6  -2   2 2558.84  103.89
  -6  -2   2 2592.44  104.99
   0  -6  -2  249.78   40.70
   0  -6  -2  354.86   43.80
  -6   0  -2  375.06   27.40
   0  -6  -2  402.76   41.40
   0   6  -2  356.46   31.80
   6   0  -2  394.26   47.10
  -6   0  -2  330.77   42.30
   0  -6  -2  343.77   39.50
   0  -6  -2  457.15   55.19
   6   0  -2  306.17   39.40
  -6   0   2  369.56   40.50
   0   6   2  359.46   35.00
   0  -6   2  393.36   51.79
   0   6   2  407.56   55.79
   6   0   2  427.46   42.00
   6  -2  -2 2610.04  115.59
  -2  -6  -2 2693.23  109.89
   6  -2  -2 2502.15  104.59
  -2  -6  -2 2334.87  117.29
  -6   2  -2 2604.44   94.59
  -6   2  -2 2591.24   90.59
   6  -2   2 2547.84  104.09
   2   6   2 2489.85  117.49
  -6   2   2 2570.14  103.49
   2   6   2 2171.88  119.09
  -2  -6   2 2626.24  107.69
  -2  -6   2 2519.95   98.19
   6  -2   2 2530.45  105.99
  -2  -6   2 2541.65   92.39
   2   6   2 2567.54   99.19
  -6   2   2 2612.74   97.09
  -4  -6  -2 3184.58  127.49
   4   6  -2 3094.39  141.09
   4   6   2 3000.10  136.39
  -4  -6   2 3177.38  126.99
  -4  -6   2 2855.11  107.09
   6  -4   2 2935.31  113.39
  -6   4   2 2934.31  140.79
  -4  -6   2 3038.30  108.99
   4   6   2 2965.40  123.59
   6  -4   2 3138.19  113.59
  -6   4   2 3030.30  123.79
  -6   6  -2  194.78   46.40
   6   6  -2  297.47   62.29
  -6  -6  -2  198.68   47.80
   6  -6   2  202.68   43.80
  -6  -6   2  285.87   54.49
  -6   6   2  302.07   50.79
   6   6   2  210.08   60.49
  -6  -6   2  210.68   40.40
   6   6   2  238.28   58.59
  -7  -5  -2  354.56   57.99
  -5   7  -2  301.27   48.40
   7   5  -2  374.46   57.39
  -5   7   2  336.27   51.39
   7   5   2  287.17   63.69
  -7  -5   2  431.96   61.69
  -5   7   2  348.97   52.99
   7   5   2  266.57   59.09
  -7  -3  -2 1907.41  106.89
  -3   7  -2 1960.40   90.49
   7   3  -2 1770.72   90.99
   3  -7  -2 1769.32  121.79
  -7  -3  -2 2002.80   97.89
   7   3  -2 1978.00   88.39
  -7  -3   2 2174.68  101.09
  -3   7   2 2155.68  116.69
   7   3   2 2017.40  112.59
   3  -7   2 2076.49   96.09
  -3   7   2 2102.79   96.09
   3  -7   2 1866.71  122.79
  -7  -1  -2  219.48   26.80
   1  -7  -2  259.67   54.79
  -1   7  -2  150.98   27.70
  -7  -1  -2  185.08   36.90
   7   1  -2  213.88   41.70
  -7  -1   2  202.18   37.00
  -1   7   2  209.98   87.29
  -1   7   2  220.68   37.70
   7   1   2  196.18   42.40
  -7   1  -2  254.17   37.40
   1   7  -2  173.58   26.40
  -1  -7  -2  292.37   49.90
   7  -1  -2  357.56   52.49
  -7   1  -2  266.57   32.60
  -7   1   2  262.67   36.40
   7  -1   2  219.48   42.00
  -1  -7   2  238.58   35.30
  -7   1   2  266.07   34.40
   1   7   2  165.58   52.49
   1   7   2  224.78   33.00
  -7   3  -2 2030.70   97.09
   3   7  -2 2043.40  122.99
  -3  -7  -2 2153.18  106.29
  -3  -7   2 2109.99   85.89
  -3  -7   2 1959.40   85.59
   3   7   2 2031.60  105.19
  -3  -7   2 2194.88  105.29
  -7   3   2 2003.50   98.49
   3   7   2 2068.39  119.99
   7  -3   2 1948.01   97.09
  -7   3   2 2082.49   95.59
  -7   5  -2  323.17   54.49
  -5  -7  -2  188.98   50.29
   5   7  -2  304.27   66.69
  -5  -7   2  319.67   58.59
  -7   5   2  331.97   53.59
  -5  -7   2  252.97   45.20
  -7   5   2  246.88   48.50
   5   7   2  323.17   56.49
   5   7   2  226.88   69.29
   7  -5   2  249.48   45.70
  -4   8  -2  925.01  102.49
  -4   8  -2  707.23   66.19
  -8  -4  -2  709.93   78.49
   4  -8  -2  718.03  105.29
   4  -8   2  496.15   89.69
  -8  -4   2  770.32   86.19
  -4   8   2  701.83   93.09
  -4   8   2  736.03   71.89
   8   4   2  726.23  103.49
  -2   8  -2 1075.89   70.19
   2  -8  -2 1042.90  110.49
   8   2  -2 1089.69   83.09
  -8  -2  -2  942.21   62.59
  -8  -2  -2 1200.08   84.99
  -2   8   2  892.21  100.69
  -2   8   2 1149.98   79.69
   2  -8   2 1082.09  109.79
  -8  -2   2 1117.99   82.99
   0   8  -2  724.53   97.69
   0  -8  -2  747.23   90.49
  -8   0  -2  692.63   60.89
   0   8  -2  768.62   82.79
  -8   0  -2  770.22   49.90
  -8   0   2  742.03   69.29
   0   8   2  733.63   95.89
   0  -8   2  836.12   87.19
  -2  -8  -2 1068.49   87.59
   2   8  -2 1070.19  107.99
  -8   2   2 1007.30   77.49
  -2  -8   2 1002.90   73.49
  -2  -8   2 1135.39   89.59
  -2  -8   2 1130.89   69.09
   2   8   2 1026.50   69.99
   2   8   2  932.11  104.29
  -8   2   2 1209.88   75.89
   4   8  -2  768.22  109.29
  -4  -8  -2  709.73   87.19
  -8   4   2  637.94   77.79
  -4  -8   2  785.62   86.79
   4   8   2  543.65   82.59
   4   8   2  692.13   82.49
  -8   4   2  676.63   66.49
  -3   9  -2   74.69   48.90
   3  -9  -2   18.60   80.59
  -9  -3  -2   27.50   52.39
  -3   9  -2   46.70   82.59
  -3   9   2   46.90   75.99
   9   3   2   52.89   70.69
  -3   9   2  142.09   55.29
  -9  -3   2  100.29   55.89
   3  -9   2  120.69   83.99
  -1   9  -2  547.95   92.49
  -1   9  -2  674.93   70.29
   1  -9  -2  825.22  101.39
  -9  -1   2  799.32   81.19
  -1   9   2  759.42  113.39
   1  -9   2  663.03   90.19
  -1  -9  -2  658.93   81.09
   1   9  -2  584.24   92.29
  -9   1   2  672.03   80.59
   1   9   2  689.83   67.59
  -1  -9   2  545.35   73.69
   1   9   2  530.15   90.99
  -9   1   2  633.34   79.79
  -3  -9  -2   88.09   61.69
   3   9  -2  127.99   85.39
   3   9   2   16.60   49.30
   3   9   2  105.99   87.59
  -9   3   2   70.09   50.69
  -3  -9   2   82.19   65.19
  -9   3   2   76.09   53.69
   9  -3   2   70.39   57.99
   1   0  -3    2.70   11.90
   0   1  -3   10.00   11.00
   0  -1  -3    8.10    5.80
   0  -1  -3   -7.60   10.40
   0  -1  -3   13.10   13.60
   0  -1  -3    7.10    7.50
   0  -1  -3   -3.90    7.80
   1   0  -3   -4.30    4.20
   1   0  -3    2.60    5.30
   1   0  -3   -0.10   13.70
   0   1   3    3.10    7.50
  -1   0   3    9.40    9.80
   1   0   3    4.70   11.30
  -1   0   3   14.90   13.20
   0   1   3    4.90   10.70
   1   0   3   -4.20    5.00
   1   0   3  -12.70   12.70
   0   1   3    5.10   10.70
   0  -1   3    1.70   13.80
   1  -2  -3 1268.87   56.79
  -2  -1  -3 1247.78   57.29
   1  -2  -3 1238.58   47.90
  -2  -1  -3 1258.77   45.90
   2   1  -3 1266.07   45.90
   1  -2  -3 1232.28   51.39
   1  -2  -3 1162.48   56.39
   1  -2  -3 1042.90   51.69
   1  -2  -3 1280.17   56.19
  -2  -1  -3 1291.77   57.59
  -1   2  -3 1233.28   50.89
   2   1  -3 1300.57   58.69
  -2  -1   3 1273.17   45.60
   1  -2   3 1292.67   52.09
  -1   2   3 1232.08   56.49
  -2  -1   3 1228.08   52.09
   2   1   3 1237.08   54.39
  -1   2   3 1251.67   51.69
   2   1   3 1267.37   55.69
   2   1   3 1247.28   47.60
  -2  -1   3 1253.97   56.79
   1  -2   3 1099.59   48.10
  -1  -2  -3 1252.17   47.30
  -1  -2  -3 1237.38   54.29
  -1  -2  -3 1307.77   58.59
   2  -1  -3 1220.18   57.29
   2  -1  -3 1261.27   53.19
   2  -1  -3 1223.38   44.70
   2  -1  -3 1248.98   56.69
  -1  -2  -3 1284.17   56.69
  -1  -2  -3 1275.07   47.40
   1   2  -3 1112.89   47.60
  -1  -2   3 1296.77   58.49
  -1  -2   3 1257.47   44.90
   1   2   3 1266.57   54.99
  -2   1   3 1256.07   57.59
   1   2   3 1278.77   53.49
   1   2   3 1095.69   50.99
   2  -1   3 1220.48   44.60
  -2   1   3 1260.77   45.20
   2  -1   3 1249.38   53.09
  -2   1   3 1238.28   52.39
   2  -3  -3  100.39   22.00
   2  -3  -3  115.39   25.10
   2  -3  -3   83.19   16.30
  -3  -2  -3  108.79   18.10
   2  -3  -3  139.89   22.00
  -2   3  -3   95.89   17.80
   3   2  -3  111.09   25.70
  -3  -2  -3   91.79   25.60
   2  -3  -3   92.79   22.00
   3   2  -3  123.69   18.00
  -3  -2   3   91.29   17.00
  -2   3   3  111.39   19.80
  -3  -2   3   90.69   21.40
  -2   3   3   93.89   18.00
   2  -3   3   92.19   16.50
   3   2   3  106.09   18.30
   3   2   3  101.29   24.40
   3   2   3  122.99   21.10
   0  -3  -3   -4.20   11.20
   0  -3  -3  -22.10   14.20
   0  -3  -3   -6.60   15.90
   0   3  -3   11.90    8.20
   3   0  -3   21.40   10.80
   0  -3  -3   21.90   17.60
   3   0  -3   60.29   21.00
   0  -3  -3   -3.80   14.30
   0   3  -3    6.90   11.50
   0  -3  -3   -8.40   15.30
  -3   0   3   -5.20    8.00
   0   3   3  -12.50   12.80
   0  -3   3  -10.40   11.30
   3   0   3    2.60   10.40
  -3   0   3   10.00   13.70
  -3   0   3    9.30   16.90
   0   3   3    4.30   12.90
   3   0   3   12.30   15.00
  -2  -3  -3   48.80   14.90
  -2  -3  -3   86.39   18.20
  -2  -3  -3   69.39   24.60
   3  -2  -3  107.09   21.10
   3  -2  -3  105.49   25.00
   3  -2  -3   74.29   14.60
  -2  -3  -3   92.69   25.60
   3  -2  -3   73.59   18.70
   3  -2  -3  103.19   18.50
   2   3  -3   99.49   20.20
   2   3   3   88.49   17.00
   3  -2   3   81.89    8.60
   2   3   3  118.19   23.80
  -3   2   3   99.19   18.40
  -2  -3   3  114.99   23.00
  -2  -3   3   80.99   17.50
   2   3   3  102.79   27.40
  -3   2   3  112.19   18.30
   3  -2   3   78.99   17.10
   2   3   3   78.59   27.90
   4   3  -3   53.29   22.90
   3  -4  -3   34.50   18.90
   3  -4  -3   56.19   24.60
  -4  -3  -3   63.19   28.30
   3  -4  -3   75.29   23.70
   3  -4  -3  123.89   24.20
  -4  -3  -3   66.59   19.30
  -3   4   3   41.20   21.10
  -4  -3   3   58.99   21.80
  -4  -3   3   72.59   22.70
  -3   4   3   74.19   22.70
   4   3   3   67.49   28.10
   3  -4   3   80.49   16.70
   4   3   3   90.69   27.40
   4   3   3   59.19   17.50
   3  -4   3   57.69   16.60
   4   1  -3  333.17   30.50
   1  -4  -3  385.86   35.20
  -1   4  -3  382.86   26.50
  -4  -1  -3  306.67   37.20
   1  -4  -3  382.76   31.30
   1  -4  -3  249.78   37.80
  -1   4  -3  332.37   25.20
   1  -4  -3  348.27   42.20
   1  -4  -3  432.56   36.50
  -4  -1  -3  379.36   29.60
   4   1  -3  362.46   39.90
   1  -4  -3  396.06   38.30
   1  -4   3  391.16   39.80
  -4  -1   3  375.96   34.70
  -4  -1   3  378.86   35.60
  -1   4   3  366.76   40.70
   4   1   3  365.66   32.00
   4   1   3  417.96   39.20
   1   4  -3  374.66   20.10
  -1  -4  -3  385.16   34.80
  -1  -4  -3  367.76   42.10
  -1  -4  -3  319.97   32.60
  -1  -4  -3  415.96   32.70
   1   4  -3  339.47   30.50
   4  -1  -3  361.16   31.10
  -1  -4  -3  377.66   38.20
  -1  -4  -3  349.17   32.90
   4  -1  -3  296.37   40.60
   1   4   3  299.27   39.40
   1   4   3  327.07   33.60
  -1  -4   3  385.36   32.90
  -4   1   3  384.46   27.50
  -4   1   3  374.56   34.40
   1   4   3  310.97   42.00
   4  -1   3  398.86   30.90
  -1  -4   3  409.56   37.50
   4  -1   3  389.66   36.10
   4  -3  -3   51.79   28.80
   3   4  -3   40.30   25.00
  -3  -4  -3   67.09   31.20
  -3  -4  -3   82.19   23.10
   4  -3  -3    8.60   22.90
   4  -3  -3   60.19   20.30
   4  -3  -3   57.29   23.40
   3   4   3   50.89   25.60
   3   4   3   51.69   15.90
   3   4   3   17.70   30.00
  -3  -4   3   67.09   21.40
  -4   3   3   51.29   24.30
   4  -3   3   29.80   17.70
  -4   3   3   81.89   21.50
  -3  -4   3   84.79   23.10
   4  -3   3   72.09   13.30
   3   4   3   52.99   32.20
  -5  -4  -3  321.97   43.50
  -4   5  -3  333.57   36.20
   5   4  -3  227.38   44.80
  -5  -4  -3  289.17   53.59
   5   4   3  259.47   42.70
   4  -5   3  310.87   40.00
   5   4   3  319.27   47.80
  -5  -4   3  294.77   42.10
  -5  -4   3  295.07   39.50
   4  -5   3  274.27   38.90
   5   4   3  289.37   28.30
  -5  -4   3  251.97   23.60
  -4   5   3  286.17   39.50
   2  -5  -3  841.62   58.59
  -2   5  -3  862.21   45.10
  -5  -2  -3  843.82   49.20
   2  -5  -3  821.72   55.29
   2  -5  -3  862.61   50.39
   5   2  -3  805.92   59.09
   2  -5  -3  772.02   59.79
  -5  -2  -3  788.92   60.49
   5   2  -3  912.21   52.19
   2  -5  -3  859.51   70.89
   5   2   3  758.92   60.09
  -5  -2   3  876.61   53.59
  -2   5   3  791.42   51.59
   5   2   3  841.82   54.39
   5   2   3  780.32   45.90
  -5  -2   3  837.12   54.99
  -5  -2   3  780.32   49.70
   2  -5   3  852.81   64.79
  -2   5   3  766.12   59.49
   0  -5  -3    1.70   27.80
   0  -5  -3   36.70   21.60
   5   0  -3  -48.40   26.50
   0  -5  -3  -10.60   21.70
   5   0  -3   16.90   18.70
   0  -5  -3   -0.60   25.40
   0   5  -3    2.60   13.30
   0   5  -3   -5.60   12.80
  -5   0  -3  -45.40   22.30
   0  -5  -3    2.80   18.00
  -5   0   3    8.30   19.50
   0   5   3   49.10   32.70
   0  -5   3  -11.20   21.00
   0   5   3   25.90   20.70
   5   0   3    3.10   23.80
  -5   0   3   11.10   15.10
   5   0   3   40.70   21.30
   5  -2  -3  811.92   57.69
   5  -2  -3  788.82   57.39
  -2  -5  -3  805.52   64.29
   5  -2  -3  851.51   64.49
   2   5  -3  672.13   58.69
  -2  -5  -3  920.51   45.10
  -2  -5  -3  948.01   56.19
  -2  -5  -3  824.02   52.49
  -5   2   3  896.01   48.20
   2   5   3  698.63   67.49
   5  -2   3  876.81   52.89
   5  -2   3  774.82   50.49
   2   5   3  890.01   63.59
   2   5   3  827.52   53.19
  -2  -5   3  940.91   52.69
  -2  -5   3  811.92   53.79
  -5   2   3  780.42   53.89
  -4  -5  -3  310.17   41.10
  -5   4   3  351.56   40.00
  -4  -5   3  313.17   26.70
  -5   4   3  303.87   40.50
   5  -4   3  292.27   43.20
   5  -4   3  254.87   33.80
   4   5   3  348.37   56.99
  -4  -5   3  338.17   41.80
   4   5   3  312.97   47.80
  -4  -5   3  381.36   43.90
   4   5   3  405.46   55.69
   6   5  -3   73.69   53.59
  -6  -5  -3  118.79   41.20
  -5   6  -3  191.38   41.40
   6   5   3  104.19   54.29
  -5   6   3   72.89   43.90
   5  -6   3  132.29   38.80
  -6  -5   3   70.79   42.40
  -6  -5   3  142.79   48.50
   6   5   3   73.69   49.50
   6   3  -3   -3.70   37.50
  -6  -3  -3   -1.00   31.80
   3  -6  -3   54.39   52.39
   6   3   3   -5.10   20.70
   6   3   3   58.69   38.20
   3  -6   3   13.80   26.30
  -6  -3   3   -8.00   31.00
  -3   6   3   -7.40   31.70
   6   3   3   -6.80   37.80
  -3   6   3  -21.70   36.70
   3  -6   3   -5.90   42.90
  -6  -1  -3  136.79   37.30
  -1   6  -3  170.38   25.80
   1  -6  -3   78.19   38.70
   1  -6  -3  132.89   33.80
   1  -6  -3  174.38   36.00
   1  -6  -3  190.78   44.20
   6   1  -3  132.79   37.80
   1  -6   3  232.98   43.90
  -6  -1   3  144.69   31.90
   6   1   3   83.79   39.70
  -1   6   3  166.68   44.80
   6   1   3  182.48   34.70
  -6  -1   3  134.69   23.00
  -1  -6  -3  120.89   34.50
   1   6  -3  150.08   23.70
   6  -1  -3   50.29   38.70
   1   6  -3   99.49   19.20
  -6   1  -3  149.39   32.70
  -1  -6  -3  131.09   31.40
   1   6   3  174.68   32.20
   6  -1   3  146.49   32.30
  -6   1   3  195.28   27.50
  -1  -6   3  139.69   33.10
   1   6   3   94.39   44.70
  -6   1   3  140.59   32.90
   6  -1   3  217.48   38.30
   6  -3  -3   60.89   33.20
  -3  -6   3  -29.70   22.20
  -3  -6   3   36.00   30.80
   3   6   3   -9.60   49.20
  -6   3   3    8.30   27.60
   3   6   3   11.90   51.29
   6  -3   3   19.40   32.20
   6  -3   3  -54.79   25.40
  -3  -6   3   16.90   28.20
   3   6   3   25.60   32.70
  -6   3   3   29.80   28.70
  -6   5  -3   80.79   41.20
  -5  -6  -3  206.98   45.30
   6  -5   3  114.69   33.30
   6  -5   3  109.29   28.20
   5   6   3   35.20   57.39
   5   6   3  223.08   51.59
  -6   5   3   89.19   40.70
  -5  -6   3   57.49   42.70
  -6   5   3   24.60   42.20
  -7  -6  -3    6.10   54.69
   7   6  -3  104.09   69.59
  -6   7  -3   89.89   52.99
  -7  -6   3  -34.00   59.59
  -6   7   3   -1.30   61.29
   7   6   3  -24.50   67.49
   7   6   3   69.69   69.99
  -4   7  -3  -29.60   34.40
  -7  -4  -3   31.30   37.90
   7   4  -3  -80.09   45.00
   4  -7  -3  -14.40   67.19
   4  -7   3   68.69   65.69
   4  -7   3   94.59   44.80
  -4   7   3   45.70   48.40
  -7  -4   3  -23.30   40.70
   7   4   3    1.20   52.49
  -4   7   3   24.80   44.70
  -7  -2  -3  -30.30   47.10
  -7  -2  -3  108.69   34.50
   7   2  -3   98.29   35.90
   7   2  -3  172.08   49.50
  -2   7  -3   99.89   30.40
   2  -7  -3   41.50   55.19
  -7  -2   3  126.59   39.10
   7   2   3   -6.20   49.80
  -2   7   3   89.59   37.50
   2  -7   3   38.40   51.59
  -2   7   3   36.00   50.49
   0   7  -3  -11.80   21.40
   0  -7  -3  -51.09   42.90
  -7   0  -3   30.90   36.80
  -7   0   3  -13.60   26.90
   0   7   3   14.30   29.00
   0   7   3   34.10   54.09
   0  -7   3   44.30   43.90
  -7   0   3   36.40   34.00
   7   0   3  -58.69   40.80
   7   0   3  -19.50   37.70
  -7   2  -3   29.70   34.60
  -2  -7  -3  107.89   44.80
  -2  -7   3  124.19   41.80
   7  -2   3  127.19   46.80
  -7   2   3   45.10   37.60
  -7   2   3   77.69   32.30
   2   7   3  122.39   36.90
  -2  -7   3   90.29   48.90
   2   7   3  125.69   61.39
  -4  -7  -3  -26.80   41.90
  -7   4   3   61.69   40.00
  -7   4   3   -8.40   41.40
  -4  -7   3   68.09   46.60
   4   7   3   50.09   48.00
  -4  -7   3   20.70   43.80
   4   7   3   24.40   66.29
   6   7  -3  -36.10   78.09
  -7   6  -3   90.69   56.29
  -6  -7  -3  133.59   63.19
   6   7   3   59.19   78.49
  -6  -7   3   75.29   61.19
   6   7   3   94.39   67.19
  -7   6   3  -63.19   58.49
  -5   8  -3  278.17   60.59
   3  -8  -3   51.79   71.09
  -8  -3  -3   33.80   45.00
  -3   8  -3   10.90   38.30
  -3   8   3   47.10   65.59
  -8  -3   3  131.89   51.39
   8   3   3   17.60   61.39
   3  -8   3   50.59   68.69
  -3   8   3   26.20   48.80
   1  -8  -3  298.07   67.59
  -1   8  -3  319.97   41.00
   1  -8   3  226.68   66.49
  -1   8   3  265.57   72.19
   8   1   3  310.67   66.39
  -8  -1   3  247.38   40.00
  -8  -1   3  234.68   48.40
  -1  -8  -3  351.76   60.89
  -1  -8   3  261.67   58.09
  -8   1   3  221.58   43.00
  -8   1   3  219.08   49.30
   1   8   3  249.18   45.60
   8  -1   3  276.87   58.09
   1   8   3  209.28   78.59
   3   8  -3  106.89   79.39
  -3  -8  -3   30.20   50.89
   3   8   3   32.40   49.30
  -3  -8   3    2.10   51.39
   8  -3   3   23.40   45.50
  -8   3   3   26.30   46.90
   3   8   3  120.09   77.99
  -8   3   3   32.80   43.30
  -8   5   3  308.57   67.39
  -2   9  -3  117.19   48.50
   2  -9  -3  148.69   92.19
   9   2   3   92.09   77.89
   2  -9   3   12.60   78.09
  -2   9   3   69.69   87.99
  -9  -2   3  112.19   58.49
   0   9  -3   -0.70   38.10
   0  -9  -3  -10.80   69.69
   0  -9   3   11.50   65.49
  -9   0   3 -102.09   47.90
  -9   0   3  163.28   52.59
   0   9   3   92.29   87.09
   9   0   3   20.90   66.29
   2   9  -3  -77.49  101.99
  -2  -9  -3   69.39   68.39
   2   9   3  113.09   96.99
   2   9   3   74.29   56.69
  -9   2   3   14.30   50.99
  -2  -9   3  118.49   67.49
   9  -2   3   48.20   61.89
  -9   2   3   31.00   54.59
   0   0  -4 9339.97  295.27
   0   0   4 9274.47  298.07
   0   0   4 9202.78  283.87
   0   0   4 9212.38  295.47
   1  -1  -4 4121.59  127.99
   1  -1  -4 4029.10  148.99
   1  -1  -4 4174.78  132.89
   1  -1  -4 4260.77  147.69
  -1  -1  -4 4125.79  149.19
   1  -1  -4 4006.60  130.09
   1   1  -4 4186.18  146.09
  -1   1  -4 4215.08  144.99
  -1  -1   4 4217.48  138.59
  -1  -1   4 4331.57  150.58
   1  -1   4 4264.97  150.38
   1  -1   4 4267.37  130.69
   1   1   4 4200.58  146.89
  -1   1   4 4033.80  138.19
   1   1   4 4118.89  146.59
   1  -1   4 4315.27  145.59
  -1   1   4 4073.99  148.09
   0  -2  -4 1349.56   66.79
   0  -2  -4 1425.46   57.89
   0   2  -4 1332.47   61.79
   0  -2  -4 1383.06   55.99
   2   0  -4 1245.28   69.09
   0  -2  -4 1438.96   67.09
   0  -2  -4 1397.16   50.89
   2   0  -4 1380.16   66.89
   2   0  -4 1438.76   48.60
   0  -2  -4 1459.15   68.69
  -2   0  -4 1321.37   65.29
  -2   0   4 1382.96   60.19
   0  -2   4 1443.26   70.39
   0   2   4 1357.86   64.69
   0   2   4 1333.77   64.39
   2   0   4 1410.16   48.50
  -2   0   4 1411.26   67.89
   2   0   4 1336.07   63.69
   0   2   4 1378.16   56.99
   2   0   4 1333.57   66.19
   2   2  -4 2636.84  101.39
  -2  -2  -4 2604.84  105.19
   2   2  -4 2399.16   88.49
   2  -2  -4 2545.85   89.79
   2  -2  -4 2578.64  105.79
   2  -2  -4 2728.53  104.09
   2  -2  -4 2646.34  100.49
  -2   2  -4 2642.14   98.39
  -2  -2  -4 2612.04   87.69
   2  -2  -4 2637.74   98.19
  -2  -2  -4 2564.34  105.99
   2   2   4 2327.97   92.79
  -2   2   4 2560.24   97.09
   2  -2   4 2527.15   84.69
   2   2   4 2553.54   98.69
   2   2   4 2580.54  101.49
  -2  -2   4 2684.23  104.99
  -2   2   4 2538.75  104.39
  -2  -2   4 2583.74   85.89
   2  -2   4 2546.55   97.09
   1  -3  -4  616.94   43.30
   1  -3  -4  677.13   49.30
   1  -3  -4  670.13   43.40
  -1   3  -4  702.03   42.50
  -3  -1  -4  604.54   51.59
   1  -3  -4  675.03   50.99
   1  -3  -4  736.03   49.70
   1  -3  -4  669.03   38.50
   3   1  -4  788.12   55.59
   3   1  -4  636.64   33.90
  -3  -1  -4  634.74   50.59
  -1   3   4  670.23   48.50
   3   1   4  695.53   47.60
   1  -3   4  693.13   36.80
   3   1   4  665.83   37.20
  -3  -1   4  638.24   44.20
  -3  -1   4  680.23   49.00
   3   1   4  683.63   46.80
  -1   3   4  672.93   43.10
   3  -1  -4  696.93   35.40
   3  -1  -4  575.24   48.20
  -1  -3  -4  651.73   51.89
  -1  -3  -4  652.13   50.29
  -1  -3  -4  737.73   48.70
   3  -1  -4  701.73   53.39
  -1  -3  -4  691.83   41.60
   1   3  -4  631.64   44.40
  -3   1  -4  692.03   49.20
  -1  -3  -4  701.93   36.80
  -1  -3  -4  687.73   39.20
  -3   1   4  689.83   50.29
  -3   1   4  688.63   44.70
   1   3   4  658.53   47.80
  -1  -3   4  682.33   50.59
  -1  -3   4  665.83   32.50
   3  -1   4  646.14   43.60
   3  -1   4  687.73   33.20
   1   3   4  648.14   43.80
   3  -3  -4 4926.61  171.18
   3  -3  -4 5039.70  174.28
   3  -3  -4 4622.94  176.88
   3  -3  -4 4856.31  160.08
  -3  -3  -4 4803.82  158.08
  -3  -3  -4 4997.70  161.88
   3   3  -4 4709.93  163.98
   3  -3  -4 4883.21  170.88
  -3  -3  -4 4704.93  177.18
  -3   3   4 4908.51  161.08
  -3  -3   4 4905.61  159.88
   3  -3   4 4962.00  150.38
   3   3   4 4786.52  163.68
   3   3   4 4708.73  173.48
   3   3   4 4709.73  169.38
   3  -3   4 4958.10  164.58
  -3   3   4 4780.22  169.08
  -3  -3   4 5062.79  174.38
   2  -4  -4 2349.26  100.09
  -4  -2  -4 2393.86  105.29
   2  -4  -4 2217.68  104.59
   2  -4  -4 2352.16   99.39
   2  -4  -4 2481.15  106.19
  -2   4  -4 2333.87   90.59
   4   2  -4 2338.17  105.09
  -2   4  -4 2417.06   87.49
  -4  -2  -4 2405.06   89.29
   2  -4  -4 2350.16   97.79
  -4  -2   4 2417.46  102.19
  -2   4   4 2355.76   97.59
   2  -4   4 2174.78   96.99
  -4  -2   4 2411.16   98.99
   4   2   4 2435.06  111.99
   4   2   4 2418.76   95.39
   4   2   4 2279.97   93.29
   0  -4  -4  318.37   39.20
  -4   0  -4  368.06   47.60
   0  -4  -4  388.46   56.79
   0   4  -4  362.66   24.50
   0   4  -4  243.18   32.40
   4   0  -4  327.67   31.30
   0  -4  -4  332.27   37.20
   4   0  -4  283.57   42.70
  -4   0   4  319.17   36.90
   0   4   4  320.57   39.40
  -4   0   4  261.87   36.00
   0  -4   4  355.56   44.70
   0   4   4  353.56   41.00
   0  -4   4  308.37   32.00
   4   0   4  288.37   36.00
   4  -2  -4 2285.07  101.29
  -2  -4  -4 2279.57  104.39
  -2  -4  -4 2424.76  106.79
  -2  -4  -4 2334.57   94.39
   2   4  -4 2078.19  101.19
  -2  -4  -4 2472.85   91.29
  -2  -4  -4 2509.05   92.09
   2   4  -4 2393.76   95.49
   4  -2  -4 2364.16   99.49
  -4   2   4 2424.36   86.49
   4  -2   4 2348.76   87.99
   2   4   4 2294.97   99.49
  -2  -4   4 2413.36  102.29
  -2  -4   4 2391.66   88.39
   4  -2   4 2404.66   94.59
  -4   2   4 2426.26   98.09
   2   4   4 2331.47   92.19
   2   4   4 1963.80  101.29
  -4  -4  -4 2428.96   96.89
   4  -4  -4 2104.69   90.99
  -4  -4   4 2314.37   94.49
   4  -4   4 2426.56   81.89
   4   4   4 2299.27   89.39
  -4   4   4 2293.27   95.69
   4   4   4 2178.18  110.69
   4  -4   4 2315.07   91.19
   4   4   4 2431.16  110.19
  -4   4   4 2304.97  103.99
  -4  -4   4 2405.76  102.99
  -3   5  -4  969.20   55.29
  -5  -3  -4  923.61   57.59
   3  -5  -4  819.52   81.79
  -3   5   4  774.02   81.99
   5   3   4  949.40   54.19
   5   3   4  936.11   75.29
  -5  -3   4  951.90   59.19
   5   3   4  963.90   71.19
  -5  -3   4  946.11   66.79
   3  -5   4  983.50   52.79
   3  -5   4  928.01   76.29
   1  -5  -4 1473.65   81.79
  -1   5  -4 1493.75   60.79
  -5  -1  -4 1565.74   84.69
   5   1  -4 1323.67   85.49
  -1   5  -4 1364.96   62.59
   1  -5  -4 1403.76   71.69
   1  -5  -4 1311.47   81.49
   1  -5  -4 1362.66   76.49
   5   1   4 1397.06   69.39
   5   1   4 1587.04   84.19
   5   1   4 1495.85   73.99
  -5  -1   4 1427.16   77.39
  -5  -1   4 1483.85   80.19
   1  -5   4 1534.25   74.99
  -1  -5  -4 1499.75   74.79
   1   5  -4 1421.66   67.69
  -1  -5  -4 1441.26   73.39
  -1  -5  -4 1558.54   83.19
  -1  -5  -4 1409.96   73.59
  -5   1  -4 1443.06   82.69
   1   5   4 1441.36   77.59
  -1  -5   4 1506.45   80.59
   1   5   4 1544.35   94.19
   5  -1   4 1480.85   77.39
  -5   1   4 1618.64   78.59
  -5   1   4 1456.85   61.69
  -1  -5   4 1533.55   69.59
   5  -1   4 1424.26   68.69
  -3  -5  -4 1054.29   61.79
   5  -3   4  918.71   58.09
  -3  -5   4  960.90   66.79
   3   5   4  985.90   71.59
  -3  -5   4 1021.60   60.59
  -5   3   4  918.91   59.69
   3   5   4 1137.09   88.19
   5  -3   4  918.51   60.49
   3   5   4  901.91   86.29
  -5   3   4 1045.60   70.29
  -5  -5  -4  510.05   62.19
  -5   5  -4  494.25   62.39
  -5   5   4  486.45   56.39
  -5  -5   4  580.44   64.49
   5   5   4  565.94   80.09
  -5  -5   4  572.14   63.49
  -5   5   4  558.04   56.59
  -4   6  -4  146.99   37.30
  -6  -4  -4  177.88   40.80
   4  -6  -4  176.08   68.79
  -6  -4   4  116.89   69.89
   4  -6   4  157.38   51.39
   6   4   4   80.09   29.50
   6   4   4  106.59   55.39
  -4   6   4  170.88   45.80
   4  -6   4  148.99   63.09
  -6  -4   4  212.28   46.30
   2  -6  -4  576.74   81.69
  -6  -2  -4  528.15   52.39
   2  -6  -4  715.53   84.79
  -2   6  -4  710.23   48.70
   6   2   4  558.44   57.99
   6   2   4  632.84   53.49
   6   2   4  588.74   76.39
  -6  -2   4  512.55   67.09
   2  -6   4  648.64   73.99
   0   6  -4 2674.63  102.59
   0  -6  -4 3182.28  128.29
   0   6  -4 2815.42  101.39
  -6   0  -4 2833.12  124.89
   0   6   4 2955.30  137.59
   0   6   4 2838.22  118.59
   6   0   4 2831.22  115.09
  -6   0   4 2911.61  121.39
   6   0   4 2630.44  126.79
  -6   0   4 2777.12   99.49
   0  -6   4 2999.70  118.59
   2   6  -4  534.45   54.19
  -2  -6  -4  613.34   61.19
  -6   2  -4  442.46   68.19
  -2  -6  -4  575.94   62.99
   2   6   4  607.34   65.89
   6  -2   4  602.54   59.49
  -2  -6   4  613.14   56.69
  -6   2   4  582.64   62.99
  -6   2   4  604.84   53.19
   2   6   4  705.53   88.29
  -4  -6  -4  240.68   45.00
  -4  -6   4  194.28   51.09
   4   6   4  174.28   63.29
  -6   4   4  180.88   44.60
  -6   4   4  172.48   46.30
  -4  -6   4  140.09   44.10
   4   6   4   83.49   47.80
  -6   6  -4 1063.99   91.99
  -6  -6  -4  910.11   93.79
   6   6   4  983.30  113.19
  -6  -6   4 1008.50   97.89
  -6   6   4  880.11   98.59
  -7  -5  -4  420.16   62.79
   5  -7  -4  659.13  110.89
  -5   7  -4  457.95   58.89
   7   5  -4  297.87   83.09
   5  -7   4  305.67   93.69
  -7  -5   4  460.35   70.89
  -5   7   4  443.16   69.19
   7   5   4  385.16   82.29
  -7  -3  -4   45.70   40.70
   3  -7  -4   90.39   70.99
  -3   7  -4   54.39   36.00
   7   3   4  160.98   60.39
  -3   7   4   51.69   44.70
  -7  -3   4   42.40   48.50
   3  -7   4  120.29   48.30
   3  -7   4  103.29   66.69
   7   3   4   48.30   40.70
   1  -7  -4 1591.14  107.89
  -1   7  -4 1307.17   66.69
  -7  -1   4 1233.18   88.89
  -7  -1   4 1265.57   61.39
   7   1   4 1227.08   99.69
  -1   7   4 1500.95  111.79
  -7   1  -4 1219.08   92.79
  -1  -7  -4 1531.65   96.89
   1   7   4 1290.67  117.19
  -7   1   4 1416.96   90.19
   7  -1   4 1332.97   92.79
   1   7   4 1361.66   88.79
  -1  -7   4 1306.67   92.19
  -7   1   4 1422.06   74.69
  -3  -7  -4   56.89   47.30
  -7   3  -4 -100.69   53.39
  -7   3   4   30.00   44.20
   7  -3   4   14.40   41.30
  -3  -7   4   73.99   45.50
   3   7   4  122.69   74.39
   3   7   4  104.39   50.29
  -3  -7   4   41.60   47.30
  -7   3   4    9.20   44.10
  -7   5  -4  414.96   67.19
  -5  -7  -4  656.03   75.79
   5   7   4  464.15   76.79
  -7   5   4  416.46   71.09
  -5  -7   4  585.44   73.79
   5   7   4  517.45  108.39
  -2   8  -4  334.57   47.40
   2  -8  -4  413.06   90.49
  -2   8   4  405.06   85.09
   8   2   4  327.47   76.59
  -8  -2   4  364.96   64.99
   2  -8   4  507.25   84.59
   0  -8  -4  956.90  105.19
   8   0   4  565.74   76.69
   0   8   4  784.12  108.89
  -8   0   4  666.23   85.29
   0  -8   4  674.83   76.59
  -2  -8  -4  429.66   71.69
  -8   2   4  328.27   64.19
  -8   2   4  346.87   59.29
  -2  -8   4  455.55   68.39
  -2  -8   4  362.96   65.29
   2   8   4  273.07   61.89
   2   8   4  250.07   97.49
   8  -2   4  393.96   65.19
   0  -1  -5  -24.20   14.30
  -1   0  -5  -22.80   24.00
   0  -1  -5  -14.20   26.10
   1   0  -5  -17.40   21.40
   0   1  -5    7.00   22.80
  -1   0   5   -3.80   23.40
   0  -1   5   -5.90   22.60
   1   0   5    4.60   22.70
   0   1   5  -11.60   14.50
   0  -1   5   22.20   14.60
   1   0   5  -10.00   20.70
  -1   0   5   -6.50   15.40
   1   0   5   -6.30   11.30
   0   1   5    0.70   23.70
   1  -2  -5  640.94   37.50
   2   1  -5  574.34   54.39
  -2  -1  -5  594.04   60.29
   1  -2  -5  644.04   55.69
   1  -2  -5  606.94   56.19
   1  -2  -5  702.83   60.39
  -2  -1  -5  690.73   57.79
  -1   2  -5  580.34   50.69
  -1   2   5  648.74   53.89
   2   1   5  630.84   51.89
  -2  -1   5  650.53   45.40
  -2  -1   5  583.34   61.29
  -1   2   5  608.84   42.80
   2   1   5  496.25   53.59
   1  -2   5  583.04   33.10
   1   2  -5  628.54   51.09
   2  -1  -5  587.44   53.29
  -2   1  -5  645.14   53.29
   2  -1  -5  510.35   61.59
  -1  -2  -5  657.13   37.80
  -1  -2  -5  605.34   60.39
  -1  -2  -5  644.94   56.39
  -1  -2  -5  651.53   41.90
  -1  -2   5  579.04   41.10
   1   2   5  467.95   69.59
   2  -1   5  640.84   56.59
  -1  -2   5  591.44   60.39
   1   2   5  586.84   50.59
  -2   1   5  625.84   44.70
  -2   1   5  584.74   69.99
   2  -1   5  625.84   49.90
  -2   3  -5   49.20   28.40
   2  -3  -5   70.39   27.40
  -3  -2  -5   56.19   17.60
  -2   3   5    2.00   34.30
  -3  -2   5   86.39   35.60
   2  -3   5   56.29   20.00
   3   2   5   70.99   31.50
   2  -3   5   53.19   15.00
  -3  -2   5   81.29   27.70
   3   2   5   37.20   27.80
   3   2   5   79.59   27.60
   2  -3   5   35.10   38.10
  -2   3   5   17.60   25.00
   0  -3  -5    2.60   54.69
  -3   0  -5  -71.39   28.40
   0  -3  -5   28.40   21.40
   0  -3  -5   -5.20   14.90
  -3   0  -5   24.00   41.20
   0  -3  -5  -12.10   32.30
   0   3  -5   -3.90   24.30
   3   0   5    4.80   43.30
   0  -3   5  -26.10   30.40
  -3   0   5   -4.10   21.50
  -3   0   5  -27.00   29.80
   0   3   5  -19.70   24.80
   3   0   5   19.80   28.30
   3   0   5   32.20   15.80
   0   3   5   33.10   29.30
  -2  -3  -5   59.19   26.00
  -3   2  -5   51.19   31.80
  -2  -3  -5   40.20   17.40
   2   3  -5   23.30   30.60
   3  -2  -5   14.10   32.80
   3  -2   5   47.50   38.00
  -3   2   5   24.10   26.10
   3  -2   5   21.20   25.70
   2   3   5   54.59   34.10
   3  -2   5   51.79   15.50
   2   3   5   53.99   27.60
  -2  -3   5   44.70   15.20
  -3   2   5   35.60   36.10
  -2  -3   5   88.59   31.50
   3  -4  -5  -32.70   39.30
  -4  -3  -5   38.10   22.30
  -3   4   5   25.90   34.20
   4   3   5  -63.79   38.40
   3  -4   5   27.40   17.40
  -4  -3   5   25.20   35.10
   4   3   5   29.10   36.30
   4   3   5   27.80   28.50
   3  -4   5    6.40   34.90
  -4  -3   5   43.00   38.10
  -1   4  -5  202.58   34.00
   1  -4  -5  198.38   32.50
  -1   4  -5  229.58   25.10
   1  -4  -5  138.49   28.90
  -4  -1   5  169.88   35.90
  -1   4   5  197.28   43.70
  -4  -1   5  237.08   45.00
   1  -4   5  225.08   47.10
   4   1   5  172.98   41.10
   1  -4   5  229.88   31.70
   4   1   5  240.68   42.10
  -1  -4  -5  235.78   29.00
   1   4  -5  184.88   35.40
  -1  -4   5  258.87   44.50
   4  -1   5  172.48   35.80
   1   4   5  229.38   44.20
   1   4   5  173.28   35.50
  -4   1   5  127.79   40.60
  -1  -4   5  206.98   24.40
  -4   1   5  178.98   35.00
   4  -1   5  228.68   42.90
   4  -1   5  241.78   27.50
  -3  -4  -5   12.10   24.30
  -4   3   5   83.09   34.80
   4  -3   5   24.90   27.50
  -3  -4   5   40.10   25.60
   3   4   5   50.49   46.10
   4  -3   5   13.30   24.70
  -3  -4   5   17.30   36.50
   3   4   5    4.80   27.70
   3   4   5   47.50   36.50
  -5  -4  -5  144.09   42.70
   4  -5  -5   71.19   60.19
  -4   5  -5  164.88   38.90
  -5  -4   5  193.28   48.00
   5   4   5  229.38   58.59
   5   4   5  176.98   40.10
   5   4   5  103.49   60.09
  -4   5   5  287.37   49.99
  -5  -4   5  181.68   41.10
  -5  -4   5  114.09   49.50
   4  -5   5  210.88   58.49
  -2   5  -5  481.65   44.40
  -2   5  -5  495.55   55.49
   2  -5  -5  501.75   58.19
  -5  -2   5  630.64   66.59
   5   2   5  416.46   55.99
   5   2   5  551.34   74.19
   5   2   5  563.54   62.39
   2  -5   5  423.86   56.79
  -5  -2   5  500.75   66.29
   0   5  -5   -3.50   29.30
   0  -5  -5   25.30   29.00
   0  -5  -5   16.20   33.90
   5   0   5   -7.10   33.40
  -5   0   5  -51.29   39.10
   5   0   5    5.40   27.80
   5   0   5   31.80   37.00
  -5   0   5  -37.10   30.40
   0   5   5   31.20   38.40
   0  -5   5   15.20   24.50
   0  -5   5  -64.69   38.70
   2   5  -5  527.35   60.99
  -2  -5  -5  580.84   50.59
   5  -2   5  450.25   50.89
  -5   2   5  548.25   64.19
  -2  -5   5  512.35   68.89
   5  -2   5  488.15   57.99
   2   5   5  449.36   56.99
  -2  -5   5  474.45   46.80
   2   5   5  559.44   72.19
   4   5   5  223.28   56.09
   4   5   5  146.29   70.19
   4   5   5  159.18   40.10
  -4  -5   5  120.09   49.20
  -5   4   5  121.99   43.70
  -4  -5   5  173.48   38.80
  -5   4   5  297.97   47.50
  -6  -3  -5  -22.80   33.60
  -3   6  -5   53.09   33.00
   3  -6  -5   49.10   62.19
   3  -6   5   59.79   53.29
  -6  -3   5  -47.90   47.20
   6   3   5   53.29   56.69
   6   3   5   19.10   39.90
  -6  -3   5  -24.70   46.80
   1  -6  -5  193.28   48.70
   1  -6   5   96.89   40.60
   6   1   5   40.60   48.90
  -6  -1   5   55.79   38.80
   1  -6   5  113.09   55.69
   6   1   5   41.90   44.40
   6   1   5  118.39   44.60
   1   6  -5   75.69   38.10
  -1  -6  -5   78.89   38.30
   6  -1   5  159.38   49.10
   6  -1   5  115.49   40.40
  -1  -6   5   17.30   46.60
  -1  -6   5   67.59   35.10
  -6   1   5  142.19   28.80
  -6   1   5  120.39   42.70
   1   6   5  155.58   49.30
  -3  -6  -5   -6.20   39.40
   3   6   5   36.80   51.29
   6  -3   5   59.69   40.20
  -6   3   5   27.50   45.90
  -3  -6   5  -28.90   36.30
  -6   3   5    8.50   39.00
  -3  -6   5  -19.50   46.70
   2  -7  -5  -29.60   65.59
   7   2   5   41.60   67.39
   2  -7   5   77.09   59.19
  -7  -2   5  110.19   54.09
   0  -7  -5  -26.10   51.19
   0  -7   5   50.79   59.89
  -7   0   5  101.99   50.79
   0  -7   5    8.20   45.70
   7   0   5  -19.50   52.49
  -2  -7  -5  130.19   51.69
   7  -2   5   94.19   52.39
  -7   2   5  116.29   53.89
  -2  -7   5   90.19   56.79
  -2  -7   5  142.79   50.19
   2   7   5   14.80   55.19
   0   0   6   66.99   37.10
   0   0   6   81.89   21.30
   1   1   6  816.52   68.89
  -1   1   6  805.22   53.39
   1  -1   6  810.92   72.29
   1  -1   6  788.52   39.90
   1   1   6  835.52   69.69
  -1   1   6  849.72   70.99
  -1  -1   6  804.72   50.69
  -1  -1   6  840.82   70.09
   0   2   6 1940.31   99.19
   0  -2   6 1793.52  101.29
   2   0   6 1780.82   95.59
   0  -2   6 1838.72   75.49
  -2   0   6 1780.42   83.49
  -2   0   6 1841.92  101.29
   2   0   6 1887.51   99.79
   2   2   6  774.12   73.69
  -2  -2   6  904.71   79.99
  -2   2   6  863.41   62.79
  -2   2   6  856.61   79.69
   2  -2   6  981.20   84.69
   2   2   6  827.62   72.19
  -2  -2   6  873.51   60.79
  -1   3   6 2198.38  113.79
  -3  -1   6 2165.98  116.19
   1  -3   6 2365.46  121.29
  -3  -1   6 2225.68  101.89
   3   1   6 2360.76  113.49
   3   1   6 2170.48  111.19
   1  -3   6 2196.38   84.09
  -1  -3   6 2245.58  116.69
   3  -1   6 2211.18  116.79
  -3   1   6 2188.68  115.59
  -1  -3   6 2241.88   94.49
   1   3   6 2177.68  110.39
  -3   1   6 2256.87  102.29
   3  -1   6 2168.78  106.79
   1   3   6 2151.58  110.79
  -3  -3   6    7.70   37.00
   3   3   6  114.79   48.40
  -3   3   6   95.89   41.10
   3  -3   6   -1.30   45.90
  -3  -3   6   58.19   44.70
  -3   3   6   89.89   53.29
   3   3   6   67.89   42.30
  -2   4  -6  469.95   49.80
   4   2   6  391.36   57.49
   2  -4   6  487.45   73.49
  -4  -2   6  520.35   71.09
  -4  -2   6  634.94   72.09
   4   2   6  569.24   68.59
   4   0   6 2205.48  111.29
   4   0   6 2106.19  114.99
   0  -4   6 2240.98  120.89
  -4   0   6 2063.29  103.99
   0   4   6 2102.19  111.89
  -4   0   6 1988.90  116.89
   2   4   6  393.36   57.69
  -4   2   6  401.46   67.19
  -4   2   6  517.25   58.09
  -2  -4   6  337.37   46.50
   4  -2   6  278.77   58.89
  -2  -4   6  314.57   57.29
   2   4   6  462.95   58.49
   4  -2   6  450.55   55.39
  -4  -4   6  219.38   51.39
  -4   4   6  216.88   56.89
   4   4   6  165.38   60.49
   4  -4   6  232.28   71.59
  -4  -4   6  177.68   58.59
   4   4   6  199.58   49.50
   5   3   6  693.83   83.09
  -5  -3   6  534.25   67.49
   3  -5   6  522.15   84.19
   5   3   6  626.24   76.89
  -5  -3   6  595.54   79.59
   5   1   6  598.54   79.69
   1  -5   6  682.63   95.69
  -5  -1   6  768.92   88.79
   5   1   6  570.54   70.39
  -5  -1   6  663.03   80.69
  -1  -5   6  692.93   90.39
  -5   1   6  670.23   93.59
   5  -1   6  585.44   87.39
   1   5   6  655.13   87.39
  -5   1   6  685.63   71.49
   5  -1   6  806.92   78.69
   3   5   6  569.44   80.39
   5  -3   6  737.43   76.89
  -3  -5   6  643.34   91.89
  -5   3   6  551.34   67.09
   3   5   6  707.93   81.09
   5  -3   6  632.14   90.59
   6   2   6  682.93   88.99
  -6  -2   6  741.03   91.09
  -6  -2   6  507.75   70.79
  -6   0   6  114.49   53.09
   0  -6   6   84.09   68.19
   6   0   6   30.70   59.29
   6   0   6   21.20   54.79
   6  -2   6  655.93   90.49
   2   6   6  645.64   81.79
   6  -2   6  538.55   68.09
  -6   2   6  802.42   84.59
  -2  -6   6  795.52   92.59
   0   1   7   -5.70   49.99
  -1   0   7  -36.30   29.90
   0  -1   7   66.39   45.10
   0  -1   7  -37.90   28.80
   1   0   7   98.09   48.40
  -1   0   7  -29.90   45.80
  -1   2   7  222.18   43.60
   1  -2   7  266.37   60.29
   2   1   7  154.78   54.99
   2   1   7  294.27   61.09
  -2  -1   7  250.87   45.70
  -2  -1   7  306.37   68.19
  -1   2   7  328.47   62.89
  -2   1   7  194.48   54.69
  -2   1   7  234.78   45.70
   1   2   7  257.77   57.09
  -1  -2   7  282.37   38.70
  -1  -2   7  256.57   56.19
   2  -1   7  224.48   57.59
  -2   3   7   -4.50   62.59
   3   2   7   29.80   52.49
   2  -3   7   68.69   66.79
   3   2   7  -30.30   54.89
  -3  -2   7  112.39   62.59
  -3  -2   7   61.09   45.50
  -3   0   7   38.50   41.30
   0   3   7   53.39   53.69
   3   0   7  -29.20   50.89
   3   0   7  -66.29   47.30
  -3   0   7   -8.40   56.99
   0  -3   7  -79.99   58.79
   3  -2   7    4.90   61.79
   2   3   7  143.09   58.79
  -2  -3   7   26.60   61.39
   2   3   7  119.19   57.79
  -3   2   7   25.70   62.89
  -2  -3   7   69.19   42.30
  -3   2   7  -13.70   48.50
   4   1   7  148.79   60.69
   4   1   7   93.19   62.09
  -1   4   7  127.09   70.19
  -4  -1   7   92.69   52.79
  -4   1   7   91.19   55.09
   4  -1   7   98.39   68.09
   4  -1   7   72.79   55.09
  -1  -4   7  170.08   89.49
   1   4   7  117.89   62.49

_computing_structure_solution     'SHELXT 2014/4 (Sheldrick, 2014)'
;
_shelx_hkl_checksum              11460
loop_
_space_group_symop_operation_xyz
'x, y, z'
'-x, -y, z'
'-y, x, z'
'y, -x, z'
'-x, y, -z+1/2'
'x, -y, -z+1/2'
'y, x, -z+1/2'
'-y, -x, -z+1/2'
'x+1/2, y+1/2, z+1/2'
'-x+1/2, -y+1/2, z+1/2'
'-y+1/2, x+1/2, z+1/2'
'y+1/2, -x+1/2, z+1/2'
'-x+1/2, y+1/2, -z+1'
'x+1/2, -y+1/2, -z+1'
'y+1/2, x+1/2, -z+1'
'-y+1/2, -x+1/2, -z+1'
'-x, -y, -z'
'x, y, -z'
'y, -x, -z'
'-y, x, -z'
'x, -y, z-1/2'
'-x, y, z-1/2'
'-y, -x, z-1/2'
'y, x, z-1/2'
'-x+1/2, -y+1/2, -z+1/2'
'x+1/2, y+1/2, -z+1/2'
'y+1/2, -x+1/2, -z+1/2'
'-y+1/2, x+1/2, -z+1/2'
'x+1/2, -y+1/2, z'
'-x+1/2, y+1/2, z'
'-y+1/2, -x+1/2, z'
'y+1/2, x+1/2, z'
loop_
_atom_site_label
_atom_site_type_symbol
_atom_site_fract_x
_atom_site_fract_y
_atom_site_fract_z
_atom_site_U_iso_or_equiv
_atom_site_adp_type
_atom_site_occupancy
_atom_site_site_symmetry_order
_atom_site_calc_flag
_atom_site_refinement_flags_posn
_atom_site_refinement_flags_adp
_atom_site_refinement_flags_occupancy
Ga Ga 0.5000 1.0000 0.7500 0.0170(3) Uani 0.6 8 d S T P
Ge Ge 0.5000 1.0000 0.7500 0.0170(3) Uani 0.4 8 d S T P
S2 S 0.34758(10) 0.84758(10) 0.5000 0.0234(3) Uani 1 4 d S T P
K3 K 0.5000 0.5000 0.2500 0.113(3) Uani 0.6 8 d S T P
loop_
_atom_site_aniso_label
_atom_site_aniso_U_11
_atom_site_aniso_U_22
_atom_site_aniso_U_33
_atom_site_aniso_U_23
_atom_site_aniso_U_13
_atom_site_aniso_U_12
Ga 0.0206(3) 0.0206(3) 0.0097(4) 0.000 0.000 0.000
Ge 0.0206(3) 0.0206(3) 0.0097(4) 0.000 0.000 0.000
S2 0.0267(5) 0.0267(5) 0.0170(6) 0.000 0.000 -0.0091(6)
K3 0.0256(11) 0.0256(11) 0.286(8) 0.000 0.000 0.000
loop_
_atom_type_symbol
_atom_type_description
_atom_type_scat_dispersion_real
_atom_type_scat_dispersion_imag
_atom_type_scat_source
Ge Ge 0.1547 1.8001 'International Tables Vol C Tables 4.2.6.8 and 6.1.1.4'
S S 0.1246 0.1234 'International Tables Vol C Tables 4.2.6.8 and 6.1.1.4'
K K 0.2009 0.2494 'International Tables Vol C Tables 4.2.6.8 and 6.1.1.4'
Ga Ga 0.2307 1.6083 'International Tables Vol C Tables 4.2.6.8 and 6.1.1.4'
loop_
_geom_angle_atom_site_label_1
_geom_angle_atom_site_label_2
_geom_angle_atom_site_label_3
_geom_angle
_geom_angle_site_symmetry_1
_geom_angle_site_symmetry_3
S2 Ga S2 97.54(4) 27_466 11_655
S2 Ga S2 115.74(2) 27_466 17_676
S2 Ga S2 115.74(2) 11_655 17_676
S2 Ga S2 115.74(2) 27_466 .
S2 Ga S2 115.74(2) 11_655 .
S2 Ga S2 97.54(4) 17_676 .
S2 Ga Ge 131.23(2) 27_466 17_676
S2 Ga Ge 131.23(2) 11_655 17_676
S2 Ga Ge 48.77(2) 17_676 17_676
S2 Ga Ge 48.77(2) . 17_676
S2 Ga Ge 48.77(2) 27_466 17_677
S2 Ga Ge 48.77(2) 11_655 17_677
S2 Ga Ge 131.23(2) 17_676 17_677
S2 Ga Ge 131.23(2) . 17_677
Ge Ga Ge 180.0 17_676 17_677
S2 Ga Ga 48.77(2) 27_466 17_677
S2 Ga Ga 48.77(2) 11_655 17_677
S2 Ga Ga 131.23(2) 17_676 17_677
S2 Ga Ga 131.23(2) . 17_677
Ge Ga Ga 180.0 17_676 17_677
Ge Ga Ga 0.0 17_677 17_677
S2 Ga Ga 131.23(2) 27_466 17_676
S2 Ga Ga 131.23(2) 11_655 17_676
S2 Ga Ga 48.77(2) 17_676 17_676
S2 Ga Ga 48.77(2) . 17_676
Ge Ga Ga 0.0 17_676 17_676
Ge Ga Ga 180.0 17_677 17_676
Ga Ga Ga 180.0 17_677 17_676
S2 Ga K3 57.872(11) 27_466 17_676
S2 Ga K3 122.128(11) 11_655 17_676
S2 Ga K3 57.872(11) 17_676 17_676
S2 Ga K3 122.128(11) . 17_676
Ge Ga K3 90.0 17_676 17_676
Ge Ga K3 90.0 17_677 17_676
Ga Ga K3 90.0 17_677 17_676
Ga Ga K3 90.0 17_676 17_676
S2 Ga K3 57.872(11) 27_466 9_455
S2 Ga K3 122.128(11) 11_655 9_455
S2 Ga K3 122.128(11) 17_676 9_455
S2 Ga K3 57.872(11) . 9_455
Ge Ga K3 90.0 17_676 9_455
Ge Ga K3 90.0 17_677 9_455
Ga Ga K3 90.0 17_677 9_455
Ga Ga K3 90.0 17_676 9_455
K3 Ga K3 90.0 17_676 9_455
S2 Ga K3 122.128(11) 27_466 9
S2 Ga K3 57.872(11) 11_655 9
S2 Ga K3 57.872(11) 17_676 9
S2 Ga K3 122.128(11) . 9
Ge Ga K3 90.0 17_676 9
Ge Ga K3 90.0 17_677 9
Ga Ga K3 90.0 17_677 9
Ga Ga K3 90.0 17_676 9
K3 Ga K3 90.0 17_676 9
K3 Ga K3 180.0 9_455 9
S2 Ga K3 122.128(11) 27_466 17_666
S2 Ga K3 57.872(11) 11_655 17_666
S2 Ga K3 122.128(11) 17_676 17_666
S2 Ga K3 57.872(11) . 17_666
Ge Ga K3 90.0 17_676 17_666
Ge Ga K3 90.0 17_677 17_666
Ga Ga K3 90.0 17_677 17_666
Ga Ga K3 90.0 17_676 17_666
K3 Ga K3 180.0 17_676 17_666
K3 Ga K3 90.0 9_455 17_666
K3 Ga K3 90.0 9 17_666
Ga S2 Ge 82.5 . 17_676
Ga S2 Ga 82.46(4) . 17_676
Ge S2 Ga 0.0 17_676 17_676
Ga S2 K3 122.579(17) . 25_565
Ge S2 K3 87.201(7) 17_676 25_565
Ga S2 K3 87.201(7) 17_676 25_565
Ga S2 K3 122.579(17) . .
Ge S2 K3 87.201(7) 17_676 .
Ga S2 K3 87.201(7) 17_676 .
K3 S2 K3 113.02(2) 25_565 .
Ga S2 K3 87.201(7) . 9_455
Ge S2 K3 122.579(17) 17_676 9_455
Ga S2 K3 122.579(17) 17_676 9_455
K3 S2 K3 52.919(10) 25_565 9_455
K3 S2 K3 142.01(4) . 9_455
Ga S2 K3 87.201(7) . 17_666
Ge S2 K3 122.579(17) 17_676 17_666
Ga S2 K3 122.579(17) 17_676 17_666
K3 S2 K3 142.01(4) 25_565 17_666
K3 S2 K3 52.919(10) . 17_666
K3 S2 K3 113.02(2) 9_455 17_666
K3 K3 K3 180.0 17_666 17_665
K3 K3 S2 63.540(5) 17_666 .
K3 K3 S2 116.460(5) 17_665 .
K3 K3 S2 116.460(5) 17_666 27_455
K3 K3 S2 63.540(5) 17_665 27_455
S2 K3 S2 137.86(4) . 27_455
K3 K3 S2 63.540(5) 17_666 19_566
K3 K3 S2 116.460(5) 17_665 19_566
S2 K3 S2 78.549(4) . 19_566
S2 K3 S2 142.01(4) 27_455 19_566
K3 K3 S2 116.460(5) 17_666 25_565
K3 K3 S2 63.540(5) 17_665 25_565
S2 K3 S2 66.98(2) . 25_565
S2 K3 S2 78.549(4) 27_455 25_565
S2 K3 S2 137.86(4) 19_566 25_565
K3 K3 S2 116.459(5) 17_666 11_654
K3 K3 S2 63.541(5) 17_665 11_654
S2 K3 S2 69.85(3) . 11_654
S2 K3 S2 127.081(9) 27_455 11_654
S2 K3 S2 66.98(2) 19_566 11_654
S2 K3 S2 78.549(4) 25_565 11_654
K3 K3 S2 63.541(5) 17_666 3_655
K3 K3 S2 116.459(5) 17_665 3_655
S2 K3 S2 78.549(4) . 3_655
S2 K3 S2 66.98(2) 27_455 3_655
S2 K3 S2 127.081(9) 19_566 3_655
S2 K3 S2 69.85(3) 25_565 3_655
S2 K3 S2 142.01(4) 11_654 3_655
K3 K3 S2 63.540(5) 17_666 17_666
K3 K3 S2 116.460(5) 17_665 17_666
S2 K3 S2 127.081(10) . 17_666
S2 K3 S2 69.85(3) 27_455 17_666
S2 K3 S2 78.549(4) 19_566 17_666
S2 K3 S2 142.01(4) 25_565 17_666
S2 K3 S2 137.86(4) 11_654 17_666
S2 K3 S2 78.549(4) 3_655 17_666
K3 K3 S2 116.460(5) 17_666 9_544
K3 K3 S2 63.541(5) 17_665 9_544
S2 K3 S2 142.01(4) . 9_544
S2 K3 S2 78.549(4) 27_455 9_544
S2 K3 S2 69.85(3) 19_566 9_544
S2 K3 S2 127.081(9) 25_565 9_544
S2 K3 S2 78.549(4) 11_654 9_544
S2 K3 S2 137.86(4) 3_655 9_544
S2 K3 S2 66.98(2) 17_666 9_544
K3 K3 Ga 90.0 17_666 9_544
K3 K3 Ga 90.0 17_665 9_544
S2 K3 Ga 111.072(18) . 9_544
S2 K3 Ga 111.072(18) 27_455 9_544
S2 K3 Ga 34.927(16) 19_566 9_544
S2 K3 Ga 145.073(16) 25_565 9_544
S2 K3 Ga 68.928(18) 11_654 9_544
S2 K3 Ga 145.073(16) 3_655 9_544
S2 K3 Ga 68.928(18) 17_666 9_544
S2 K3 Ga 34.927(16) 9_544 9_544
K3 K3 Ge 90.0 17_666 17_676
K3 K3 Ge 90.0 17_665 17_676
S2 K3 Ge 34.927(16) . 17_676
S2 K3 Ge 145.073(16) 27_455 17_676
S2 K3 Ge 68.928(18) 19_566 17_676
S2 K3 Ge 68.928(18) 25_565 17_676
S2 K3 Ge 34.927(16) 11_654 17_676
S2 K3 Ge 111.072(18) 3_655 17_676
S2 K3 Ge 145.073(16) 17_666 17_676
S2 K3 Ge 111.072(18) 9_544 17_676
Ga K3 Ge 90.0 9_544 17_676
loop_
_geom_bond_atom_site_label_1
_geom_bond_atom_site_label_2
_geom_bond_distance
_geom_bond_site_symmetry_2
Ga S2 2.2592(9) 27_466
Ga S2 2.2592(9) 11_655
Ga S2 2.2592(9) 17_676
Ga S2 2.2592(9) .
Ga Ge 2.9779(4) 17_676
Ga Ge 2.9778(4) 17_677
Ga Ga 2.9778(4) 17_677
Ga Ga 2.9779(4) 17_676
Ga K3 3.9412(5) 17_676
Ga K3 3.9412(5) 9_455
Ga K3 3.9412(5) 9
Ga K3 3.9412(5) 17_666
S2 Ge 2.2592(9) 17_676
S2 Ga 2.2592(9) 17_676
S2 K3 3.3416(5) 25_565
S2 K3 3.3416(5) .
S2 K3 3.3416(5) 9_455
S2 K3 3.3416(5) 17_666
K3 K3 2.9779(4) 17_666
K3 K3 2.9779(4) 17_665
K3 S2 3.3417(5) 27_455
K3 S2 3.3417(5) 19_566
K3 S2 3.3417(5) 25_565
K3 S2 3.3417(5) 11_654
K3 S2 3.3417(5) 3_655
K3 S2 3.3417(5) 17_666
K3 S2 3.3417(5) 9_544
K3 Ga 3.9412(5) 9_544
K3 Ge 3.9412(5) 17_676
