#------------------------------------------------------------------------------
#$Date: 2016-08-16 08:57:02 +0300 (Tue, 16 Aug 2016) $
#$Revision: 185824 $
#$URL: file:///home/coder/svn-repositories/cod/cif/7/22/62/7226257.cif $
#------------------------------------------------------------------------------
#
# This file is available in the Crystallography Open Database (COD),
# http://www.crystallography.net/
#
# All data on this site have been placed in the public domain by the
# contributors.
#
data_7226257
loop_
_publ_author_name
'He, Jianqiao'
'Zhang, Xian'
'Guo, Pan'
'Cheng, Ye'
'Zheng, Chong'
'Huang, Fuqiang'
_publ_section_title
;
 Synthesis, structure, and optical properties of K2.4Ga2.4M1.6Q8(M = Si,
 Ge; Q = S, Se) crystals and glasses
;
_journal_issue                   80
_journal_name_full               'RSC Adv.'
_journal_page_first              76789
_journal_paper_doi               10.1039/C6RA11079G
_journal_volume                  6
_journal_year                    2016
_chemical_formula_sum            'Ga2.4 K2.4 S8 Si1.6'
_chemical_formula_weight         562.60
_space_group_crystal_system      tetragonal
_space_group_IT_number           140
_space_group_name_Hall           '-I 4 2c'
_space_group_name_H-M_alt        'I 4/m c m'
_symmetry_space_group_name_Hall  '-I 4 2c'
_symmetry_space_group_name_H-M   'I 4/m c m'
_audit_creation_method           SHELXL-2014/7
_audit_update_record
;
2016-04-26 deposited with the CCDC.
2016-07-25 downloaded from the CCDC.
;
_cell_angle_alpha                90
_cell_angle_beta                 90
_cell_angle_gamma                90
_cell_formula_units_Z            1
_cell_length_a                   7.8910(7)
_cell_length_b                   7.8910(7)
_cell_length_c                   5.8660(5)
_cell_measurement_reflns_used    25
_cell_measurement_temperature    273(2)
_cell_measurement_theta_max      15
_cell_measurement_theta_min      7.5
_cell_volume                     365.26(6)
_computing_structure_refinement  'SHELXL-2014/7 (Sheldrick, 2014)'
_diffrn_ambient_temperature      273(2)
_diffrn_measured_fraction_theta_full 0.981
_diffrn_measured_fraction_theta_max 0.981
_diffrn_measurement_device_type  'CCD area detector'
_diffrn_measurement_method       'phi and omega scans'
_diffrn_radiation_type           MoK\a
_diffrn_radiation_wavelength     0.71073
_diffrn_reflns_av_R_equivalents  0.0269
_diffrn_reflns_av_unetI/netI     0.0093
_diffrn_reflns_Laue_measured_fraction_full 0.981
_diffrn_reflns_Laue_measured_fraction_max 0.981
_diffrn_reflns_limit_h_max       9
_diffrn_reflns_limit_h_min       -9
_diffrn_reflns_limit_k_max       9
_diffrn_reflns_limit_k_min       -9
_diffrn_reflns_limit_l_max       6
_diffrn_reflns_limit_l_min       -6
_diffrn_reflns_number            2003
_diffrn_reflns_point_group_measured_fraction_full 0.981
_diffrn_reflns_point_group_measured_fraction_max 0.981
_diffrn_reflns_theta_full        24.874
_diffrn_reflns_theta_max         24.874
_diffrn_reflns_theta_min         3.652
_exptl_absorpt_coefficient_mu    6.328
_exptl_absorpt_correction_T_max  0.969
_exptl_absorpt_correction_T_min  0.927
_exptl_absorpt_correction_type   multi-scan
_exptl_crystal_colour            pale
_exptl_crystal_density_diffrn    2.558
_exptl_crystal_description       bar
_exptl_crystal_F_000             270
_exptl_crystal_size_max          0.063
_exptl_crystal_size_mid          0.010
_exptl_crystal_size_min          0.005
_refine_diff_density_max         1.104
_refine_diff_density_min         -1.037
_refine_diff_density_rms         0.120
_refine_ls_extinction_method     none
_refine_ls_goodness_of_fit_ref   1.245
_refine_ls_hydrogen_treatment    undef
_refine_ls_matrix_type           full
_refine_ls_number_parameters     9
_refine_ls_number_reflns         101
_refine_ls_number_restraints     0
_refine_ls_restrained_S_all      1.245
_refine_ls_R_factor_all          0.0250
_refine_ls_R_factor_gt           0.0247
_refine_ls_shift/su_max          0.000
_refine_ls_shift/su_mean         0.000
_refine_ls_structure_factor_coef Fsqd
_refine_ls_weighting_details
'w=1/[\s^2^(Fo^2^)+(0.0427P)^2^+1.1681P] where P=(Fo^2^+2Fc^2^)/3'
_refine_ls_weighting_scheme      calc
_refine_ls_wR_factor_gt          0.0717
_refine_ls_wR_factor_ref         0.0720
_reflns_Friedel_coverage         0.000
_reflns_number_gt                98
_reflns_number_total             101
_reflns_threshold_expression     'I > 2\s(I)'
_cod_data_source_file            c6ra11079g2.cif
_cod_data_source_block           I4-mcm
_cod_original_cell_volume        365.26(7)
_cod_database_code               7226257
_shelx_shelxl_version_number     2014/7
_shelx_space_group_comment
;
The symmetry employed for this shelxl refinement is uniquely defined
by the following loop, which should always be used as a source of
symmetry information in preference to the above space-group names.
They are only intended as comments.
;
_shelx_estimated_absorpt_t_min   0.691
_shelx_estimated_absorpt_t_max   0.969
_shelx_res_file
;

    I4-mcm.res created by SHELXL-2014/7


TITL I4-mcm_a.res in I4/mcm
REM Old TITL I4-mcm in I4/mcm
REM SHELXT solution in I4/mcm
REM R1 0.115,  Rweak 0.003,  Alpha 0.014,  Orientation as input
REM Formula found by SHELXT:  Si K2 Ga
CELL  0.71073   7.8910   7.8910   5.8660   90.000   90.000   90.000
ZERR    4.000   0.0007   0.0007   0.0005    0.000    0.000    0.000
LATT  2
SYMM -X, -Y, Z
SYMM -Y, X, Z
SYMM Y, -X, Z
SYMM -X, Y, 1/2-Z
SYMM X, -Y, 1/2-Z
SYMM Y, X, 1/2-Z
SYMM -Y, -X, 1/2-Z
SFAC SI S K GA
UNIT 1.6 8 2.4 2.4
TEMP 0
SIZE 0.005 0.010 0.063
L.S. 10
LIST 4
ACTA
OMIT -2 50.0
OMIT 3 3 6
OMIT 3 3 2
FMAP 2
PLAN 20
EXYZ SI GA
EADP SI GA
WGHT    0.042700    1.168100
FVAR       0.26891
GA    4    0.500000    0.000000    0.250000    10.07500    0.02227    0.02227 =
         0.00996    0.00000    0.00000    0.00000
SI    1    0.500000    0.000000    0.250000    10.05000    0.02227    0.02227 =
         0.00996    0.00000    0.00000    0.00000
S     2    0.649822    0.149822    0.500000    10.25000    0.03049    0.03049 =
         0.02729    0.00000    0.00000   -0.01023
K     3    0.500000    0.500000    0.750000    10.07500    0.02698    0.02698 =
         0.34181    0.00000    0.00000    0.00000
HKLF 4

REM  I4-mcm_a.res in I4/mcm
REM R1 =  0.0247 for      98 Fo > 4sig(Fo)  and  0.0250 for all     101 data
REM      9 parameters refined using      0 restraints

END

WGHT      0.0427      1.1681

REM Highest difference peak  1.104,  deepest hole -1.037,  1-sigma level  0.120
Q1    1   0.5000  0.5000  0.8512  10.25000  0.05    1.10
Q2    1   0.5143  0.6015  1.0000  10.50000  0.05    0.23
Q3    1   0.5375  0.2268  0.5000  10.50000  0.05    0.20
Q4    1   0.4220  0.0780  0.2404  10.50000  0.05    0.17
Q5    1   0.5913  0.6543  0.9085  11.00000  0.05    0.13
Q6    1   0.3078  0.0000  0.2500  10.50000  0.05    0.13
Q7    1   0.5203  0.0763  0.5000  10.50000  0.05    0.12
Q8    1   0.7240  0.2240  0.5000  10.25000  0.05    0.11
Q9    1   0.7986  0.0141  0.6061  11.00000  0.05    0.10
Q10   1   0.4292  0.2755  0.5000  10.50000  0.05    0.10
Q11   1   0.5273  0.1315  0.4327  11.00000  0.05    0.10
Q12   1   0.4073  0.2131  0.3365  11.00000  0.05    0.09
Q13   1   0.7500  0.2500  0.2500  10.25000  0.05    0.08
Q14   1   0.6239  0.6851  0.7434  11.00000  0.05    0.08
Q15   1   0.6392  0.5560  0.7725  11.00000  0.05    0.07
Q16   1   0.7926  0.2926  0.5000  10.25000  0.05    0.06
Q17   1   0.7407  0.1451  0.3195  11.00000  0.05    0.01
;
_shelx_res_checksum              10362
_shelx_hkl_file
;
   1  -1   0  519.02   12.58
  -1   1   0  507.00   12.57
  -1  -1   0  525.80   12.53
   1   1   0  506.41   12.52
  -1   1   0  501.07   12.47
   1  -1   0  515.13   12.47
   2   0   0  549.34   13.74
   0   2   0  558.72   13.67
   0  -2   0  584.91   13.85
   0   2   0  557.22   13.84
  -2   0   0  554.89   13.75
   0  -2   0  539.40   13.68
   2  -2   0  877.17   21.56
  -2   2   0  871.05   21.34
  -2   2   0  847.39   21.36
  -2   2   0  885.89   21.54
  -2  -2   0  894.50   21.42
   2   2   0  870.41   21.42
   1  -3   0    3.20    0.34
   1  -3   0    2.80    0.42
  -3  -1   0    3.68    0.54
   1  -3   0    3.69    0.47
   3   1   0    2.58    0.44
  -1   3   0    3.88    0.55
   3  -1   0    2.92    0.43
   1   3   0    1.97    0.43
  -3   1   0    3.35    0.38
  -3   1   0    3.73    0.49
   3  -1   0    3.26    0.41
   1   3   0    3.37    0.42
  -1  -3   0    2.62    0.46
   1   3   0    3.42    0.49
  -3  -3   0  614.52   15.69
  -3   3   0  611.16   15.56
  -3  -3   0  644.76   15.73
  -3  -3   0  608.80   15.34
   3   3   0  615.75   15.36
   3  -3   0  622.89   15.63
  -3   3   0  608.86   15.26
  -3   3   0  601.53   15.28
  -4  -2   0  703.48   17.66
   2  -4   0  688.23   17.18
   2  -4   0  706.09   17.61
   2  -4   0  700.49   17.69
  -2   4   0  690.18   17.68
  -4  -2   0  703.21   17.41
   0  -4   0   85.13    3.09
   4   0   0   80.44    2.59
  -4   0   0   81.34    2.61
   0   4   0   84.90    2.83
   0  -4   0   82.33    2.55
   4   0   0   83.75    2.59
  -4   2   0  679.34   17.41
   2   4   0  698.35   17.45
  -2  -4   0  706.58   17.69
   2   4   0  706.27   17.39
   4  -2   0  697.46   17.13
   4  -2   0  693.12   17.51
  -4   2   0  678.11   17.13
  -4   2   0  694.66   17.26
  -4  -4   0  680.26   17.51
   4  -4   0  676.15   17.40
  -4   4   0  672.65   17.30
  -4   4   0  674.74   16.93
  -4   4   0  663.16   16.86
  -4  -4   0  695.30   17.48
  -3   5   0   70.23    2.25
  -3   5   0   68.98    2.72
  -5  -3   0   68.56    2.82
  -5  -3   0   67.40    2.40
   3  -5   0   67.46    2.71
  -5  -1   0   74.86    2.71
   1  -5   0   78.49    2.63
   1  -5   0   75.70    2.83
  -5  -1   0   76.38    2.67
   5   1   0   76.18    2.55
  -1   5   0   78.47    2.87
   1  -5   0   77.67    2.35
  -5   1   0   79.80    2.69
   1   5   0   79.13    2.87
   5  -1   0   79.60    2.54
   1   5   0   82.82    3.05
  -1  -5   0   82.62    3.03
   5  -1   0   76.52    2.78
   1   5   0   77.92    2.53
  -5   3   0   66.33    2.52
  -5   3   0   66.59    2.36
   3   5   0   66.28    2.54
  -3  -5   0   70.08    2.87
  -5   3   0   64.47    2.14
   3   5   0   66.02    2.49
   5  -3   0   67.14    2.68
  -5   5   0   21.91    1.46
  -5   5   0   21.58    1.70
  -5   5   0   19.30    1.71
  -5  -5   0   25.48    2.16
  -5  -5   0   22.21    2.20
  -6  -4   0   34.05    2.50
  -4   6   0   36.82    1.93
  -6  -4   0   36.68    2.48
  -6  -4   0   36.11    1.77
   4  -6   0   33.18    2.44
  -4   6   0   39.58    2.33
   4  -6   0   37.32    2.34
   2  -6   0  173.52    4.70
   2  -6   0  173.55    5.26
  -2   6   0  170.27    5.48
  -6  -2   0  178.96    5.14
  -6  -2   0  173.46    5.34
   2  -6   0  171.65    5.46
   6   0   0  683.30   17.68
   6   0   0  697.79   17.76
   0  -6   0  697.20   18.15
   0  -6   0  720.30   17.53
  -6   0   0  696.60   17.80
   0  -6   0  703.85   17.72
   0   6   0  699.01   18.23
  -2  -6   0  172.38    5.55
  -6   2   0  172.14    5.09
   2   6   0  173.11    5.32
   2   6   0  165.72    4.90
   6  -2   0  171.62    5.33
   6  -2   0  168.16    5.81
  -6   2   0  174.67    5.02
   6  -2   0  176.65    4.81
  -6   4   0   38.02    2.11
  -4  -6   0   37.38    2.57
   4   6   0   36.47    1.98
   6  -4   0   40.97    3.58
  -4  -6   0   37.96    2.61
  -6   4   0   34.74    1.97
   4   6   0   41.29    2.35
  -6   6   0  201.67    5.89
  -6   6   0  194.32    5.65
  -6   6   0  194.55    6.49
  -6  -6   0  214.44    7.09
  -7  -5   0   33.08    3.00
  -5   7   0   22.43    2.00
   5  -7   0   24.85    2.93
  -5   7   0   23.42    2.54
  -7  -5   0   26.74    2.91
  -3   7   0    8.02    1.46
  -7  -3   0    7.54    1.17
  -7  -3   0    8.54    1.68
   3  -7   0    9.74    1.48
  -7  -1   0  137.99    4.38
   7   1   0  133.56    4.42
   1  -7   0  127.22    4.71
   1  -7   0  140.26    4.36
   1  -7   0  134.12    3.88
   7   1   0  133.54    4.13
  -1   7   0  105.59    6.04
   7  -1   0  130.96    4.44
  -1  -7   0  133.86    4.90
   1   7   0  139.49    4.77
  -7   1   0  136.19    4.32
   7  -1   0  136.43    4.21
   3   7   0    6.80    1.27
   7  -3   0   10.67    1.82
   7  -3   0    9.93    1.58
  -7   3   0    8.26    1.19
  -7   3   0    6.89    1.07
   3   7   0    8.08    1.16
  -5  -7   0   27.60    3.37
  -7   5   0   22.30    2.17
   5   7   0   24.17    2.68
  -7   5   0   22.35    2.18
  -7   7   0   65.79    4.05
  -7  -7   0   81.19    5.28
   7  -7   0   69.75    5.04
  -8  -6   0   88.32    5.45
   6  -8   0   85.73    5.38
  -6   8   0   79.28    4.65
  -4   8   0   58.44    3.65
   4  -8   0   61.23    5.74
  -4   8   0   62.49    3.19
  -8  -4   0   59.74    3.67
  -8  -2   0   78.79    3.40
   8   2   0   75.15    3.60
  -2   8   0   80.60    3.94
  -8  -2   0   76.94    3.33
   2  -8   0   74.59    3.43
   2  -8   0   78.95    2.64
   0   8   0  186.05    6.54
  -8   0   0  184.86    5.77
   0  -8   0  194.49    5.55
   8   0   0  185.07    5.84
   0   8   0  195.16    6.50
  -8   2   0   79.17    3.16
   8  -2   0   77.74    3.60
   8  -2   0   76.82    2.84
  -8   2   0   81.16    3.42
   2   8   0   76.05    3.67
   8  -4   0   71.61    5.54
   8  -4   0   61.71    4.45
  -8   4   0   67.93    3.39
  -4  -8   0   63.15    4.21
  -8   4   0   60.79    3.13
   4   8   0   68.73    3.23
  -8   6   0   90.78    4.57
  -6  -8   0   86.51    5.68
  -8   6   0   78.18    4.20
  -3   9   0   45.80    3.95
   9   3   0   43.29    3.75
   3  -9   0   46.13    3.42
  -1   9   0    3.67    1.83
   1  -9   0    5.24    1.54
   9   1   0    2.11    1.54
  -1   9   0    3.60    1.83
  -9   1   0    3.62    1.60
   9  -1   0    2.48    1.21
   1   9   0    4.90    1.87
  -9   1   0    1.45    1.40
  -9   3   0   48.25    3.33
  -9   3   0   39.26    2.74
   3   9   0   39.69    3.30
  10   2   0   63.04    4.49
  -2  10   0   65.91    5.36
   0  10   0    5.56    2.56
 -10   2   0   64.62    4.36
 -10   2   0   68.28    5.19
   2  10   0   60.07    4.77
  -1   0  -1   -0.06    0.18
   1   0  -1   -0.14    0.23
   0   1  -1    0.10    0.14
   0   1  -1    0.12    0.19
   0  -1  -1    0.01    0.14
   0   1  -1    0.06    0.09
   1   0  -1   -0.08    0.13
   0  -1  -1    0.33    0.22
   0  -1  -1   -0.20    0.13
   0   1  -1    0.11    0.20
   1   0  -1    0.20    0.14
  -1   0  -1    0.11    0.14
  -1   0   1    0.24    0.17
   1   0   1    0.10    0.14
   0  -1   1    0.01    0.11
   1   0   1    0.03    0.17
   0   1   1   -0.17    0.16
   1   0   1    0.00    0.28
   0  -1   1    0.00    0.14
   0  -1   1    0.09    0.26
   1  -2  -1  375.11    9.38
   2   1  -1  370.64    9.60
  -2  -1  -1  377.93    9.60
  -1   2  -1  375.57    9.52
  -1   2  -1  369.87    9.45
   1  -2  -1  368.86    9.38
   1  -2   1  367.67    9.53
  -1   2   1  368.67    9.43
  -1   2   1  375.94    9.66
  -2  -1   1  374.80    9.15
  -2  -1   1  363.45    9.07
   1  -2   1  372.37    9.48
  -1   2   1  361.75    9.37
   2   1   1  383.88    9.56
  -2  -1   1  360.45    9.64
  -2   1  -1  372.46    9.36
   1   2  -1  379.26    9.55
  -1  -2  -1  376.36    9.56
   1   2  -1  370.98    9.28
   2  -1  -1  354.98    9.09
  -2   1  -1  367.71    9.45
   2  -1  -1  367.86    9.26
   1   2   1  377.39    9.57
   2  -1   1  362.87    9.47
  -2   1   1  361.60    9.30
  -1  -2   1  380.67    9.27
  -1  -2   1  365.47    9.54
   2  -1   1  357.85    9.34
  -2   1   1  362.38    9.11
  -2   3  -1   30.65    1.41
   3   2  -1   33.36    1.59
  -2   3  -1   30.20    0.91
  -3  -2  -1   31.08    1.52
   2  -3  -1   29.83    1.29
   2  -3  -1   32.08    1.33
  -2   3   1   32.25    1.40
  -3  -2   1   30.83    1.25
  -3  -2   1   31.26    1.64
   2  -3   1   30.39    1.49
   2  -3   1   31.90    1.53
  -2   3   1   30.92    1.31
   3   0  -1    0.26    0.45
   0   3  -1    0.12    0.25
  -3   0  -1    0.36    0.36
   0  -3  -1    0.09    0.17
  -3   0  -1   -0.25    0.32
   0  -3  -1   -0.25    0.35
   0   3  -1   -0.28    0.32
   0  -3   1   -0.04    0.36
  -3   0   1    0.04    0.28
  -3   0   1    0.03    0.15
   0   3   1   -0.29    0.36
   0  -3   1    0.03    0.29
   3   0   1   -0.26    0.32
  -3   2  -1   29.46    1.31
  -3   2  -1   31.40    1.45
  -2  -3  -1   32.58    1.54
   3  -2  -1   30.24    1.21
   2   3  -1   31.03    1.36
   2   3  -1   31.75    1.04
   2   3  -1   34.00    1.62
   3  -2  -1   30.85    1.26
   2   3   1   29.92    1.50
  -3   2   1   30.84    1.33
   3  -2   1   31.61    1.52
  -2  -3   1   32.74    1.64
   3  -2   1   30.22    1.29
  -2  -3   1   31.51    1.36
  -3   2   1   31.17    1.22
  -3   4  -1   13.06    1.11
  -4  -3  -1   12.80    1.05
   3  -4  -1   11.60    1.15
  -3   4  -1   10.73    1.12
  -4  -3  -1   12.49    1.31
   3  -4  -1   11.19    1.13
  -4  -3   1   10.84    1.11
  -3   4   1   11.64    1.09
  -3   4   1   11.32    1.02
   3  -4   1    9.51    1.22
   3  -4   1   13.58    1.36
  -4  -3   1   12.48    1.49
   1  -4  -1   60.73    2.06
  -1   4  -1   60.92    2.23
   4   1  -1   57.61    2.33
  -4  -1  -1   58.20    1.74
   1  -4  -1   58.69    2.23
  -4  -1   1   56.93    2.41
   4   1   1   60.24    2.29
   1  -4   1   58.18    2.23
  -1   4   1   53.15    2.24
   1  -4   1   59.61    2.29
   4  -1  -1   56.99    1.70
  -4   1  -1   59.18    2.27
   1   4  -1   59.00    2.25
   1   4  -1   60.70    2.23
  -1  -4  -1   59.73    2.38
  -4   1  -1   64.54    2.18
   4  -1  -1   60.05    2.47
   4  -1  -1   58.53    1.90
   1   4   1   60.72    2.41
  -1  -4   1   58.87    2.34
  -4   1   1   59.12    2.10
   4  -1   1   58.12    2.13
  -4   1   1   57.32    1.81
  -4   3  -1   11.60    1.04
  -3  -4  -1   10.25    1.27
   4  -3  -1   12.18    1.03
  -4   3  -1   11.55    1.09
   3   4  -1   11.47    1.47
  -4   3  -1   10.84    0.75
   3   4  -1   10.28    0.65
  -3  -4   1   12.18    1.26
  -3  -4   1   11.57    1.45
  -4   3   1   12.42    1.09
   3   4   1   11.06    1.22
   4  -3   1   13.10    1.32
  -4   3   1    9.51    0.94
  -4   5  -1   41.91    2.09
  -4   5  -1   41.62    2.18
  -4   5  -1   41.49    1.50
  -5  -4  -1   41.88    2.33
   4  -5  -1   38.63    2.54
  -5  -4  -1   45.31    2.18
   4  -5   1   42.15    2.43
  -5  -4   1   42.24    2.60
  -4   5   1   38.67    2.10
  -5  -4   1   43.78    2.23
  -4   5   1   38.10    1.93
  -2   5  -1  164.04    5.03
   2  -5  -1  166.28    4.98
   5   2  -1  162.80    5.05
  -5  -2  -1  160.12    4.60
   2  -5  -1  162.09    4.95
  -5  -2  -1  158.46    5.38
  -5  -2   1  157.28    5.25
   2  -5   1  171.44    5.12
  -5  -2   1  163.54    4.33
  -2   5   1  165.49    5.09
   5   2   1  161.88    5.19
   2  -5   1  163.58    5.08
   5   0  -1    0.02    0.79
   0  -5  -1   -0.18    0.37
   0   5  -1    0.06    0.55
  -5   0  -1    1.04    0.58
   0  -5  -1    1.18    0.71
   0   5  -1    0.37    0.49
   0  -5   1   -0.14    0.60
   5   0   1   -0.21    0.59
   0  -5   1    0.29    0.63
   0   5   1   -0.04    0.57
  -5   0   1    0.17    0.35
  -2  -5  -1  166.25    5.22
   5  -2  -1  167.41    5.37
  -5   2  -1  166.31    4.99
  -5   2  -1  165.36    4.78
   2   5  -1  164.08    4.64
   5  -2  -1  157.80    4.66
   2   5  -1  162.39    5.05
  -5   2   1  159.79    4.79
  -5   2   1  160.82    4.57
   5  -2   1  160.53    4.74
   2   5   1  166.42    5.18
   5  -2   1  160.52    5.15
  -2  -5   1  167.24    5.09
   5  -4  -1   45.29    2.19
  -4  -5  -1   45.79    2.31
  -5   4  -1   43.95    1.75
   4   5  -1   44.50    2.66
  -5   4  -1   45.71    2.09
  -4  -5  -1   43.53    2.60
  -5   4  -1   41.83    2.19
   5  -4   1   42.94    2.50
   4   5   1   40.04    2.20
  -4  -5   1   40.19    2.65
  -5   4   1   43.81    2.05
  -5   4   1   44.21    2.12
  -4  -5   1   48.88    2.46
  -5   6  -1   27.28    1.40
  -5   6  -1   26.23    2.14
  -6  -5  -1   22.22    2.26
  -5   6  -1   28.15    2.29
   5  -6  -1   22.51    2.42
  -6  -5  -1   28.23    3.22
  -6  -5  -1   24.08    2.28
   5  -6   1   25.51    2.77
  -6  -5   1   30.12    2.50
  -5   6   1   26.08    2.25
  -5   6   1   29.34    1.95
  -6  -5   1   32.33    2.97
  -3   6  -1    1.25    0.91
   3  -6  -1    1.15    0.96
  -6  -3  -1    1.40    0.89
   3  -6  -1    1.02    0.74
  -6  -3  -1    1.07    1.02
   3  -6  -1    0.12    0.76
   3  -6   1    1.13    0.90
  -6  -3   1    0.21    1.11
  -3   6   1    1.07    0.83
   6   3   1   -0.34    1.06
  -6  -3   1    1.53    0.84
   3  -6   1    0.90    0.95
   6   1  -1   35.76    2.22
   1  -6  -1   34.01    2.10
   1  -6  -1   33.26    1.82
  -6  -1  -1   32.03    2.04
  -1   6  -1   35.63    2.01
   1  -6  -1   33.14    1.54
  -6  -1   1   32.74    1.53
   1  -6   1   33.65    2.07
   6   1   1   35.37    2.02
   1  -6   1   33.35    2.15
  -1   6   1   29.62    2.02
  -1   6   1   34.25    2.21
  -1  -6  -1   34.57    2.29
   1   6  -1   34.48    2.03
   6  -1  -1   36.10    2.42
   1   6  -1   33.74    2.00
  -6   1  -1   33.32    1.92
   6  -1  -1   34.92    1.42
   6  -1   1   35.50    1.83
  -1  -6   1   32.74    2.15
  -6   1   1   32.27    1.45
   1   6   1   35.57    2.20
  -6   1   1   32.93    1.81
   3   6  -1    0.99    0.66
  -6   3  -1    2.40    0.70
  -3  -6  -1    1.77    1.16
   6  -3  -1    1.70    0.86
   3   6  -1    1.86    1.10
  -6   3  -1    0.37    0.83
  -6   3  -1    1.12    0.78
  -3  -6   1   -0.86    1.02
   3   6   1    1.43    1.00
  -6   3   1    0.81    0.61
  -6   3   1    1.17    0.77
   6  -3   1    2.54    1.09
  -3  -6   1   -0.08    1.22
   5   6  -1   30.83    2.99
  -6   5  -1   25.56    1.67
   6  -5  -1   23.76    2.41
  -6   5  -1   23.50    2.06
  -6   5  -1   24.19    2.21
  -5  -6  -1   21.96    2.39
  -5  -6   1   25.51    2.60
  -5  -6   1   27.80    3.41
  -6   5   1   24.82    2.04
  -6   5   1   22.55    2.06
   6  -5   1   26.45    2.83
  -6   7  -1    5.70    1.60
  -6   7   1    8.08    1.46
  -6   7   1    7.28    1.80
   6  -7   1    5.74    2.15
  -7  -6   1    5.76    2.67
  -7  -4  -1   -1.89    1.19
   4  -7  -1   -0.46    1.11
  -7  -4  -1   -0.08    1.27
  -4   7  -1    0.01    1.17
  -4   7  -1   -0.54    1.34
   7   4   1   -2.02    1.58
  -7  -4   1    0.23    1.17
  -4   7   1    1.76    1.29
   4  -7   1    3.41    1.84
  -7  -4   1   -0.74    1.56
   2  -7  -1    6.63    1.42
  -7  -2  -1    9.54    1.48
   2  -7  -1    9.43    1.20
  -2   7  -1    5.77    1.18
   2  -7  -1    7.93    1.14
   7   2  -1   10.99    1.62
  -7  -2  -1    8.43    1.48
  -7  -2   1    9.84    1.38
  -2   7   1    6.66    1.39
   7   2   1    9.38    1.50
  -2   7   1    7.88    1.59
  -7  -2   1   10.27    1.64
   2  -7   1    6.72    1.35
   7   0  -1    0.37    1.22
   0  -7  -1    0.20    0.91
  -7   0  -1    0.54    0.82
   0  -7  -1    0.48    1.25
   7   0  -1   -0.12    0.79
   7   0   1   -0.03    0.91
   0  -7   1   -0.56    1.12
   0  -7   1   -0.89    0.70
  -7   0   1    0.42    0.57
   0   7   1    0.09    0.94
   0  -7   1   -0.19    0.93
   7  -2  -1   12.34    2.02
   2   7  -1   10.24    1.44
   2   7  -1    9.75    1.28
  -7   2  -1    9.39    1.34
   7  -2   1   10.52    1.28
  -7   2   1    7.26    1.25
  -2  -7   1    8.81    1.51
  -7   2   1    8.26    0.99
   7  -2   1    8.34    1.23
   2   7   1   11.25    1.66
  -7   4  -1   -0.60    0.84
  -7   4  -1    0.85    1.09
   7  -4  -1    1.15    1.31
   4   7  -1    0.62    0.73
   4   7  -1   -1.12    1.47
  -7   4  -1   -0.06    0.99
  -7   4   1   -0.41    1.18
  -4  -7   1    0.24    1.76
   4   7   1   -1.01    1.14
  -7   4   1    0.91    0.88
   4   7   1    1.43    0.74
  -7   6  -1    3.84    1.50
   6   7  -1    6.30    2.57
  -7   6  -1    5.71    1.25
  -6  -7  -1    6.79    2.32
   7  -6   1    4.17    2.21
  -7   6   1    5.26    1.62
  -7   6   1    7.47    1.68
  -6  -7   1    7.81    2.64
   5  -8  -1   32.03    3.60
  -5   8  -1   30.26    3.24
  -8  -5   1   33.26    3.68
   5  -8   1   34.58    4.13
   8   5   1   36.38    4.02
  -5   8   1   24.63    3.29
  -3   8  -1    6.18    1.53
   3  -8  -1    6.35    1.44
  -8  -3  -1    8.83    1.77
  -8  -3  -1    4.31    1.68
   3  -8  -1    5.94    1.26
   8   3   1    4.94    1.82
   3  -8   1    2.07    2.64
  -3   8   1    8.85    2.12
  -8  -3   1    6.08    1.28
  -8  -3   1   10.35    1.58
  -8  -3   1    6.09    1.85
  -3   8   1    6.09    1.74
   1  -8  -1   33.29    2.34
  -8  -1  -1   36.68    2.57
  -1   8  -1   37.78    2.81
   8   1  -1   34.46    2.35
   1  -8  -1   35.82    2.03
   8   1  -1   36.60    2.78
   8   1   1   31.40    2.62
  -1   8   1   37.87    3.21
   1  -8   1   36.81    2.72
  -8  -1   1   31.89    1.87
   1   8  -1   38.12    2.93
  -8   1  -1   34.70    2.41
   8  -1  -1   34.48    1.79
  -1  -8  -1   37.96    2.83
   1   8  -1   35.37    2.63
   8  -1  -1   38.36    3.11
   8  -1   1   38.46    2.42
  -8   1   1   32.38    1.81
  -8   1   1   37.56    2.58
   3   8  -1    6.17    1.59
   3   8  -1    6.24    1.34
   8  -3  -1    6.61    2.54
  -8   3  -1    6.61    1.39
   3   8   1    3.49    1.63
  -3  -8   1    4.74    2.09
  -8   3   1    6.76    1.13
  -8   3   1    6.62    1.53
   8  -3   1    6.11    2.04
  -5  -8  -1   28.02    3.94
  -8   5  -1   32.69    2.57
  -8   5  -1   28.65    2.92
  -8   5   1   29.88    2.68
  -8   5   1   30.06    3.35
  -5  -8   1   35.05    4.49
  -9  -4  -1   10.66    2.47
  -4   9  -1    7.07    2.31
   4  -9   1   10.42    2.70
   9   4   1    7.70    2.70
  -9  -4   1   14.45    2.98
  -4   9   1    9.69    2.87
  -4   9   1    9.37    2.39
   9   2  -1   22.49    3.65
  -9  -2  -1   22.29    3.01
   2  -9  -1   22.71    2.51
  -2   9  -1   17.21    2.29
  -2   9   1   20.57    2.80
  -9  -2   1   20.91    2.06
   9   2   1   26.52    3.28
   0  -9  -1    1.31    1.80
   0   9  -1   -0.06    1.50
   9   0  -1   -0.96    1.26
  -9   0  -1   -0.39    1.29
   0   9  -1    1.14    1.62
   0   9   1    0.45    1.90
  -9   0   1    0.09    0.92
  -9   0   1   -2.59    1.38
   9   0   1    1.61    1.54
  -9   2  -1   21.70    2.61
   2   9  -1   26.92    2.93
  -9   2  -1   26.36    2.66
   2   9   1   24.63    2.84
  -9   2   1   17.17    1.92
   9  -2   1   21.67    2.26
  -9   2   1   18.36    2.10
  -9   4  -1    9.04    1.87
  -9   4  -1    7.51    1.88
   4   9   1    8.19    2.61
  -9   4   1   11.40    2.28
  -4  -9   1   14.18    3.29
 -10  -1  -1    0.93    1.81
  -1  10  -1    3.20    2.49
  -1  10   1   -0.87    2.41
 -10  -1   1    0.66    2.40
  10   1   1   -2.03    2.21
   1  10  -1   -0.96    2.19
 -10   1  -1   -2.13    1.67
   1  10   1    1.83    2.46
 -10   1   1   -0.77    2.01
   0   0  -2    2.22    0.39
   0   0  -2    3.00    0.54
   0   0  -2    2.32    0.38
   0   0  -2    2.67    0.53
   0   0  -2    2.21    0.37
   0   0  -2    1.26    0.38
   0   0   2    2.42    0.40
   0   0   2    2.09    0.46
   0   0   2    2.60    0.49
   0   0   2    2.72    0.42
   0   0   2    3.34    0.55
  -1   1  -2   69.43    2.01
   1  -1  -2   67.21    2.35
   1  -1  -2   68.37    2.21
  -1   1  -2   71.17    2.17
  -1   1  -2   71.17    2.32
  -1  -1  -2   69.85    2.26
   1   1  -2   70.40    2.04
   1   1  -2   70.53    2.18
   1  -1  -2   67.45    2.04
   1   1  -2   65.26    2.07
  -1  -1  -2   64.83    2.05
  -1   1  -2   67.28    2.24
   1   1  -2   71.75    2.49
  -1   1  -2   66.82    2.25
   1   1  -2   72.74    2.46
   1  -1  -2   71.96    2.52
  -1  -1  -2   68.29    2.51
   1  -1   2   68.41    2.31
   1  -1   2   67.17    2.22
  -1   1   2   66.77    2.39
  -1   1   2   64.24    2.20
  -1  -1   2   70.20    2.09
   1   1   2   64.71    2.12
   1   1   2   65.59    2.46
  -1  -1   2   68.49    2.01
  -1   1   2   63.00    2.00
  -1  -1   2   69.55    2.50
   1  -1   2   68.70    2.38
   1   1   2   67.99    2.27
  -2   0  -2  866.60   21.70
   0  -2  -2  848.87   21.75
   0   2  -2  910.66   22.26
   0  -2  -2  935.35   22.41
   0   2  -2  889.09   21.92
  -2   0  -2  869.74   22.22
   2   0  -2  889.39   21.94
   2   0  -2  917.28   22.45
  -2   0  -2  905.96   22.13
   0  -2  -2  879.64   22.04
   2   0  -2  901.18   21.91
   0   2  -2  896.01   21.62
  -2   0   2  857.80   21.95
   0  -2   2  930.65   22.27
  -2   0   2  874.45   22.40
   0  -2   2  921.70   22.02
  -2   0   2  894.11   22.02
   2   0   2  879.88   22.13
   0  -2   2  782.30   21.99
   0   2   2  902.89   21.97
   0  -2   2  902.55   22.31
   0   2   2  874.48   22.39
   2   0   2  890.89   22.08
  -2   2  -2  410.10   10.61
   2   2  -2  417.53   10.21
   2  -2  -2  421.95   10.52
  -2   2  -2  408.99   10.64
   2   2  -2  406.13   10.12
   2   2  -2  415.84   11.02
   2  -2  -2  401.85   10.26
  -2  -2  -2  417.80   10.93
   2   2  -2  378.47   11.36
   2  -2   2  404.08   10.43
   2  -2   2  415.79   11.35
  -2   2   2  404.59   10.53
   2   2   2  408.53   10.71
  -2  -2   2  398.36   10.95
  -2  -2   2  402.43   10.19
  -2   2   2  400.82   10.86
   2   2   2  411.26   10.90
   2   2   2  397.92   10.24
  -2  -2   2  405.81   10.32
   2  -2   2  407.03   10.76
  -3  -1  -2  545.15   13.57
  -1   3  -2  565.15   14.35
   3   1  -2  519.94   15.29
   1  -3  -2  571.59   14.09
  -1   3   2  549.34   14.54
   1  -3   2  559.10   14.39
   3   1   2  559.21   14.28
  -3  -1   2  560.49   13.74
  -3  -1   2  558.72   14.00
  -1   3   2  569.15   13.89
   1  -3   2  558.73   14.28
   1  -3   2  521.75   14.82
  -3  -1   2  545.93   14.57
   3  -1  -2  532.46   13.64
  -1  -3  -2  516.53   15.12
   3  -1  -2  533.92   15.15
   3  -1  -2  575.56   14.13
   3  -1  -2  545.59   13.69
  -3   1  -2  540.54   14.69
   1   3  -2  573.95   14.11
   3  -1   2  574.43   14.35
  -1  -3   2  568.96   13.83
  -1  -3   2  559.96   14.60
   1   3   2  556.97   14.65
   1   3   2  597.96   14.48
  -3   1   2  552.20   14.21
  -1  -3   2  584.26   14.15
  -3   1   2  555.87   14.42
  -1  -3   2  565.60   14.58
   3  -1   2  576.22   14.47
   3  -1   2  545.19   13.80
   3   3  -2    4.56    1.04
   3   3  -2    2.82    0.98
  -3   3  -2    2.30    0.60
  -3  -3  -2    1.92    0.88
   3  -3  -2    2.52    0.53
   3  -3  -2    2.84    0.66
  -3   3  -2    3.09    0.81
   3   3   2    2.78    0.81
   3  -3   2    3.68    0.81
  -3   3   2    3.09    0.90
  -3  -3   2    3.25    0.54
  -3   3   2    2.27    0.60
   3  -3   2    2.01    0.70
   3   3   2    3.55    0.94
  -3   3   2    4.24    0.76
  -3  -3   2    3.00    1.06
  -2   4  -2  178.30    5.20
   4   2  -2  170.29    5.43
   2  -4  -2  173.57    5.04
  -4  -2  -2  172.93    5.50
   2  -4  -2  172.79    5.06
  -2   4  -2  171.93    5.16
  -2   4   2  169.82    5.60
   2  -4   2  170.23    5.38
  -4  -2   2  167.40    5.62
   2  -4   2  177.10    5.33
  -2   4   2  171.23    5.07
  -4  -2   2  175.43    4.53
  -4  -2   2  182.65    5.04
  -2   4   2  166.79    4.69
   4   2   2  162.53    5.33
  -4   0  -2  946.35   24.03
   0   4  -2  950.39   23.95
   0   4  -2  957.49   23.73
   0  -4  -2  948.33   23.75
   4   0  -2  950.07   24.22
  -4   0  -2 1000.00   23.91
   0  -4  -2  954.49   23.91
   4   0   2  943.94   23.91
  -4   0   2  954.95   23.68
   0  -4   2  927.71   23.03
   0   4   2  915.35   24.19
   0  -4   2  957.06   24.15
  -4   0   2  916.32   23.66
   0  -4   2  967.94   23.81
   0  -4   2  942.55   24.06
  -2  -4  -2  177.56    5.52
  -4   2  -2  174.71    5.17
   2   4  -2  175.38    5.02
   2   4  -2  176.35    5.53
   4  -2  -2  179.05    5.75
  -4   2  -2  168.68    5.26
   4  -2   2  174.86    5.14
  -4   2   2  169.13    4.75
   2   4   2  170.63    5.51
   4  -2   2  170.79    5.42
  -4   2   2  171.97    5.10
  -2  -4   2  169.84    5.59
   4  -2   2  171.44    5.44
  -4  -4  -2   46.87    2.67
   4  -4  -2   45.40    2.03
   4   4  -2   46.51    2.86
   4  -4  -2   46.98    2.13
  -4   4  -2   43.60    1.42
  -4   4  -2   46.02    2.31
  -4   4  -2   43.64    2.22
   4   4   2   42.43    2.59
  -4   4   2   45.32    2.17
  -4   4   2   46.11    2.22
  -4  -4   2   40.64    2.73
   4  -4   2   47.78    2.54
   4  -4   2   42.95    2.50
  -4  -4   2   43.86    2.95
  -3   5  -2   85.76    3.24
  -5  -3  -2   79.63    2.60
  -3   5  -2   82.09    3.21
   3  -5  -2   81.54    3.04
   5   3  -2   80.61    3.54
  -5  -3  -2   78.91    3.55
   3  -5   2   84.55    3.42
  -5  -3   2   72.97    2.66
  -3   5   2   80.06    3.26
  -3   5   2   82.15    3.04
  -5  -3   2   80.09    3.77
  -3   5   2   85.06    3.80
   3  -5   2   80.55    3.45
   5   1  -2  105.19    4.02
  -1   5  -2  109.48    3.81
  -5  -1  -2  104.62    3.94
   1  -5  -2  105.24    3.58
   1  -5  -2  106.79    3.72
  -1   5  -2  107.30    3.64
  -5  -1  -2  107.95    4.04
  -5  -1   2  106.43    3.20
   1  -5   2  105.06    3.75
  -5  -1   2  106.68    3.56
  -5  -1   2  102.81    4.06
   5   1   2  104.60    3.77
   1  -5   2  106.34    3.91
  -1   5   2  107.59    4.11
  -1  -5  -2  107.79    3.90
  -5   1  -2  110.10    3.71
   1   5  -2  107.05    3.88
   5  -1  -2  106.73    4.24
  -5   1  -2  105.16    3.78
   1   5  -2  106.03    3.58
  -1  -5   2  113.21    3.74
   1   5   2  104.34    4.02
  -5   1   2  102.60    3.53
   5  -1   2  107.27    3.66
  -1  -5   2  105.81    3.91
  -1  -5   2  103.57    4.06
  -5   1   2   96.41    2.88
  -5   3  -2   89.52    3.27
  -5   3  -2   80.74    3.26
  -3  -5  -2   85.94    3.59
  -3  -5  -2   75.49    3.48
   3   5  -2   88.57    3.73
   5  -3  -2   81.28    2.78
  -3  -5   2   81.70    3.76
   5  -3   2   82.28    3.60
  -5   3   2   83.54    3.17
   3   5   2   81.96    3.47
  -5   3   2   81.21    2.89
  -3  -5   2   85.50    3.26
  -5   5  -2   81.96    3.51
  -5   5  -2   78.86    2.38
  -5  -5  -2   79.65    3.87
   5  -5  -2   79.51    3.28
   5   5  -2   82.25    4.22
  -5   5  -2   83.65    3.53
  -5   5   2   77.55    3.23
  -5   5   2   83.31    3.42
  -5  -5   2   74.99    3.34
   5  -5   2   79.57    3.89
   5   5   2   84.63    4.19
  -4   6  -2  293.05    8.46
   4  -6  -2  279.02    8.24
  -6  -4  -2  284.96    7.81
  -4   6  -2  295.39    8.54
  -6  -4  -2  285.90    8.74
   4  -6  -2  280.12    8.01
  -4   6   2  290.06    8.59
   6   4   2  277.36    9.00
  -6  -4   2  262.89    7.93
  -4   6   2  285.65    8.14
   4  -6   2  303.41    8.91
  -4   6   2  267.02    7.38
  -4   6   2  287.69    9.32
  -6  -4   2  300.80    9.26
  -2   6  -2  205.34    6.49
   2  -6  -2  210.10    6.46
   2  -6  -2  219.14    6.28
  -6  -2  -2  214.51    6.89
   6   2  -2  208.57    6.76
  -6  -2   2  209.08    5.59
  -2   6   2  213.14    7.11
   2  -6   2  218.04    6.81
   6   2   2  210.70    6.74
  -6  -2   2  217.77    7.05
   2  -6   2  209.02    6.66
  -6  -2   2  217.43    6.43
   0   6  -2   20.77    1.93
   6   0  -2   19.22    2.22
   0   6  -2   19.93    1.64
  -6   0  -2   18.73    1.79
   0  -6  -2   17.24    1.79
   0  -6  -2   17.37    2.16
   6   0   2   18.25    1.76
   0  -6   2   17.66    1.96
  -6   0   2   18.84    1.65
   0   6   2   18.88    2.09
   0  -6   2   18.97    1.94
  -6   2  -2  211.90    6.46
   6  -2  -2  219.03    7.31
   2   6  -2  213.28    6.82
   2   6  -2  222.21    6.59
  -6   2  -2  215.38    6.66
   6  -2   2  219.56    6.44
  -2  -6   2  221.13    6.70
   2   6   2  219.10    6.99
  -2  -6   2  213.97    7.19
  -6   2   2  209.39    5.86
  -6   2   2  209.47    6.43
  -6   4  -2  287.26    8.52
  -6   4  -2  288.31    7.58
  -4  -6  -2  290.25    8.69
   4   6  -2  280.05    8.92
   6  -4  -2  283.69    8.02
  -6   4  -2  284.82    8.28
  -4  -6   2  272.98    8.48
  -4  -6   2  299.65    9.37
   6  -4   2  282.02    8.99
   4   6   2  281.46    8.67
  -6   4   2  303.34    8.40
  -6   4   2  288.40    8.14
  -6  -6  -2   19.90    2.37
  -6  -6  -2   17.17    2.46
   6  -6  -2   19.82    2.85
  -6   6  -2   17.15    2.28
  -6   6  -2   15.17    2.02
   6  -6   2   19.03    2.55
   6   6   2   20.16    2.97
  -6   6   2   14.50    2.41
  -6   6   2   16.16    1.89
  -6  -6   2   16.52    2.16
  -6  -6   2   19.45    2.93
  -7  -5  -2   26.65    2.49
  -5   7  -2   27.23    3.16
  -5   7  -2   26.85    2.74
  -7  -5  -2   21.47    2.59
   7   5   2   32.87    3.57
  -5   7   2   27.31    3.04
  -5   7   2   25.26    3.20
   5  -7   2   20.61    2.57
  -7  -5   2   28.78    3.49
  -3   7  -2  209.49    6.68
   3  -7  -2  200.79    5.92
   3  -7  -2  198.80    6.17
  -3   7  -2  202.94    6.62
  -7  -3  -2  206.57    7.03
  -3   7   2  203.84    7.41
  -7  -3   2  193.64    5.72
   7   3   2  195.94    6.94
  -7  -3   2  195.31    7.23
   3  -7   2  210.96    7.01
   1  -7  -2    7.26    1.37
   7   1  -2    7.91    1.88
  -1   7  -2    5.16    1.13
  -7  -1  -2    5.43    1.32
  -7  -1  -2    5.60    1.71
  -1   7   2    6.72    1.69
  -7  -1   2    5.53    1.21
   7   1   2    7.05    1.56
   1  -7   2    5.10    1.34
   1   7  -2    6.16    1.94
   7  -1  -2    4.52    1.82
   1   7  -2    5.91    1.45
  -7   1  -2    4.43    1.38
  -1  -7  -2    6.09    1.33
  -1  -7   2    5.29    1.86
  -7   1   2    6.39    1.25
   7  -1   2    3.95    1.17
  -1  -7   2    5.33    1.60
   1   7   2    5.13    1.46
   3   7  -2  207.02    5.65
   3   7  -2  196.83    6.79
  -7   3  -2  208.56    6.61
  -7   3  -2  193.80    6.33
   7  -3  -2  196.21    7.50
   7  -3  -2  188.01    6.36
  -7   3   2  210.79    6.51
  -3  -7   2  191.40    6.78
  -3  -7   2  210.47    7.42
   3   7   2  205.40    6.91
  -7   3   2  198.77    5.87
  -7   5  -2   25.00    2.96
   7  -5  -2   21.90    2.78
  -7   5  -2   23.88    2.67
  -7   5  -2   26.89    1.85
  -7   5   2   25.13    2.33
  -5  -7   2   28.60    3.57
   7  -5   2   19.71    2.61
   4  -8  -2   69.17    3.44
  -4   8  -2   68.09    3.94
   4  -8   2   76.95    4.76
  -4   8   2   69.28    5.10
   8   4   2   63.44    4.59
  -8  -4   2   74.44    5.13
  -8  -2  -2   91.30    4.89
  -8  -2  -2  102.17    4.68
   2  -8  -2   93.30    3.21
   8   2  -2   92.24    4.71
  -2   8  -2   95.89    4.31
   2  -8  -2   89.86    4.00
  -2   8   2   93.41    4.96
   8   2   2   96.94    4.57
  -8  -2   2   99.77    4.26
   2  -8   2  100.94    4.78
  -8   0  -2   37.85    2.99
   8   0  -2   42.55    3.77
   0   8  -2   42.28    2.98
   8   0  -2   39.78    2.09
   0  -8  -2   41.66    3.14
   0  -8   2   40.39    3.30
   8   0   2   45.44    3.06
  -8   0   2   41.33    2.98
   0   8   2   38.57    3.41
   8  -2  -2   86.47    5.55
  -8   2  -2   98.40    4.26
   2   8  -2  100.02    4.44
   2   8  -2   90.70    4.48
   2   8  -2   99.58    3.75
   2   8   2   96.59    4.90
  -8   2   2   82.50    3.18
  -8   2   2   98.90    4.29
  -2  -8   2  100.13    5.21
   8  -2   2   98.46    3.92
  -8   4  -2   70.65    3.80
  -8   4  -2   66.46    2.98
   4   8   2   66.39    4.36
  -4  -8   2   75.28    5.32
   8  -4   2   67.98    4.85
  -8   4   2   73.19    4.26
  -8   4   2   61.89    3.26
  -9  -3  -2    3.99    2.15
  -3   9  -2    1.78    1.69
   9   3   2    6.92    2.76
  -9  -3   2    5.12    2.16
   3  -9   2   -2.92    2.21
  -3   9   2    0.35    2.26
  -9  -1  -2   53.72    3.81
   9   1  -2   49.31    3.21
  -1   9  -2   50.25    3.74
  -9  -1   2   48.75    3.72
  -1   9   2   45.50    4.48
   9   1   2   48.99    3.92
   1  -9   2   54.56    4.28
   1   9  -2   52.32    3.46
  -9   1  -2   48.81    3.55
   1   9  -2   52.68    3.92
  -1  -9   2   48.39    4.82
  -9   1   2   56.69    3.84
   1   9   2   59.81    4.55
   9  -1   2   53.87    3.59
  -9   3  -2    4.38    1.71
  -9   3  -2    3.24    1.47
  -3  -9   2   -0.19    2.99
   3   9   2    4.23    2.45
  -9   3   2    3.39    1.95
   0  -1  -3    0.26    0.52
   1   0  -3   -0.07    0.60
  -1   0  -3    0.21    0.46
  -1   0  -3   -0.58    0.48
   0  -1  -3    0.74    0.72
   1   0  -3   -0.38    0.45
   0  -1  -3    0.28    0.48
   1   0  -3   -0.40    0.30
   1   0  -3    1.19    0.56
   0   1  -3    0.11    0.51
   0   1  -3    1.19    0.67
   1   0  -3    0.25    0.46
   0   1  -3    0.65    0.38
  -1   0  -3   -0.10    0.48
   0  -1  -3    0.84    0.50
   0   1  -3    0.21    0.36
   0   1  -3    0.11    0.64
   0  -1  -3    0.01    0.65
  -1   0  -3   -0.30    0.48
  -1   0  -3   -0.06    0.40
  -1   0  -3    0.54    0.65
  -1   0   3   -0.45    0.39
   0  -1   3   -0.23    0.37
   0  -1   3    0.40    0.60
   0  -1   3   -0.01    0.57
  -1   0   3    0.15    0.52
   1   0   3    0.16    0.50
   0   1   3   -0.39    0.52
  -1   0   3   -0.22    0.56
   1   0   3   -0.43    0.45
   0   1   3    0.06    0.44
  -1   2  -3  176.57    5.05
  -2  -1  -3  165.38    4.79
   1  -2  -3  164.71    4.67
   1  -2  -3  164.46    4.86
  -2  -1  -3  167.08    5.02
  -2  -1  -3  167.58    5.37
   1  -2  -3  164.93    5.21
   2   1  -3  169.32    4.79
   2   1  -3  166.28    4.76
  -1   2  -3  167.76    4.87
   1  -2  -3  165.23    4.91
  -1   2  -3  165.26    4.46
   2   1  -3  168.11    5.34
   2   1  -3  169.03    5.35
  -1   2  -3  170.73    5.11
   2   1  -3  161.91    4.63
  -1   2   3  165.00    4.93
   1  -2   3  167.59    5.01
  -2  -1   3  162.61    5.39
   1  -2   3  170.84    5.25
  -1   2   3  159.49    5.27
   1  -2   3  164.29    5.05
   2   1   3  165.98    5.02
  -2  -1   3  159.71    4.74
   2   1   3  162.21    4.86
  -1   2   3  162.14    4.65
  -2  -1   3  170.55    4.78
   1   2  -3  170.28    5.32
   1   2  -3  171.07    4.52
  -1  -2  -3  164.61    4.94
  -1  -2  -3  159.05    4.57
  -1  -2  -3  168.58    5.41
   2  -1  -3  169.84    4.63
  -2   1  -3  166.68    5.04
  -2   1  -3  172.62    5.07
   2  -1  -3  165.79    4.85
   2  -1  -3  157.77    5.34
   1   2  -3  179.76    4.92
  -2   1  -3  173.54    5.04
   2  -1  -3  175.37    5.54
   1   2  -3  167.64    4.59
  -2   1  -3  168.97    4.69
  -1  -2  -3  163.24    4.94
   1   2  -3  172.93    5.21
   2  -1   3  164.74    4.83
  -1  -2   3  170.90    5.36
  -1  -2   3  169.76    4.73
   2  -1   3  166.40    5.16
  -1  -2   3  170.87    4.65
   1   2   3  158.17    5.30
  -2   1   3  157.45    4.88
  -2   1   3  163.28    5.16
   2  -1   3  165.69    4.99
   1   2   3  155.71    4.67
   1   2   3  164.48    4.97
   2  -3  -3   14.82    1.13
   3   2  -3   17.69    1.95
  -2   3  -3   13.22    1.44
  -3  -2  -3   16.07    1.89
  -2   3  -3   15.89    0.76
   3   2  -3   13.81    1.74
  -2   3  -3   15.28    1.25
  -2   3  -3   13.69    1.54
   2  -3  -3   15.74    1.44
  -2   3   3   13.99    0.91
   3   2   3   14.50    1.22
  -2   3   3   12.70    1.65
  -3  -2   3   15.75    1.84
  -3  -2   3   16.65    1.27
   3   2   3   15.64    1.47
   2  -3   3   13.29    1.52
  -3  -2   3   14.78    0.85
   2  -3   3   14.07    1.42
  -2   3   3   14.55    1.28
   2  -3   3   17.10    1.65
  -3   0  -3    0.18    0.81
   0  -3  -3    0.29    0.68
   3   0  -3   -0.86    0.93
   0  -3  -3    0.28    0.43
   0  -3  -3    0.78    0.62
  -3   0  -3   -0.60    0.76
  -3   0  -3    0.51    0.37
   0   3  -3   -0.23    0.73
   3   0  -3    0.15    0.46
   3   0  -3   -0.02    0.44
   0   3  -3   -0.32    0.39
  -3   0  -3    0.71    0.60
   3   0   3    0.48    0.57
  -3   0   3    0.82    0.56
  -3   0   3    0.14    0.49
   3   0   3    0.28    0.60
   0   3   3    0.16    0.61
   0  -3   3   -0.91    0.67
   0  -3   3    1.16    0.77
   0  -3   3   -0.63    0.52
   0  -3   3    0.43    0.35
   0   3   3    0.06    0.56
   3  -2  -3   13.97    1.93
   2   3  -3   15.62    1.00
  -3   2  -3   17.73    1.53
   2   3  -3   13.41    1.85
   2   3  -3   15.27    1.67
  -3   2  -3   15.32    1.34
   3  -2  -3   14.89    1.34
  -2  -3  -3   13.78    1.80
   2   3  -3   15.26    1.04
   2   3   3   13.34    0.95
  -2  -3   3   15.07    1.09
   3  -2   3   16.48    1.23
   2   3   3   14.62    1.45
   3  -2   3   16.15    1.74
  -2  -3   3   13.62    1.72
  -3   2   3   12.99    1.35
   2   3   3   12.25    1.56
   3  -2   3   13.65    1.56
  -3   2   3   15.37    1.68
   3  -2   3   13.12    1.26
  -2  -3   3   14.33    1.09
  -3   4  -3   11.14    1.54
   4   3  -3    9.01    1.68
   3  -4  -3   10.65    1.24
   4   3  -3   10.57    1.67
   3  -4  -3   10.95    1.31
  -3   4  -3    9.55    1.33
  -4  -3  -3    7.86    1.66
  -4  -3   3    7.82    0.98
  -3   4   3    9.18    0.91
  -4  -3   3    6.44    1.57
   4   3   3   10.18    1.22
   4   3   3    9.86    1.59
   3  -4   3    8.90    1.46
  -3   4   3    8.44    1.61
   3  -4   3   10.94    1.53
  -3   4   3    9.90    1.22
   3  -4   3   10.25    1.46
  -4  -3   3    8.88    1.10
   4   1  -3   36.39    2.54
   1  -4  -3   34.96    2.04
  -4  -1  -3   37.44    2.53
   1  -4  -3   36.79    1.63
  -4  -1  -3   37.20    2.24
  -1   4  -3   37.28    2.11
   1  -4  -3   37.23    2.00
  -1   4  -3   36.83    2.25
  -4  -1  -3   33.89    2.07
  -1   4  -3   38.21    1.87
   4   1   3   39.13    2.04
   1  -4   3   38.78    2.27
  -4  -1   3   36.93    2.45
   4   1   3   36.55    2.12
  -1   4   3   37.80    1.75
  -4  -1   3   37.31    1.61
   1  -4   3   37.55    2.09
  -1   4   3   33.37    2.31
  -4  -1   3   35.94    1.88
   1  -4   3   39.85    2.36
  -4   1  -3   33.74    2.04
   1   4  -3   37.74    2.42
  -4   1  -3   40.33    2.19
   4  -1  -3   35.95    1.36
  -1  -4  -3   42.99    2.56
   1   4  -3   40.72    1.79
   4  -1  -3   38.95    1.89
   4  -1  -3   34.65    2.78
  -1  -4   3   41.57    1.98
   1   4   3   35.64    2.41
  -1  -4   3   36.69    1.48
  -4   1   3   36.11    1.98
  -1  -4   3   35.87    2.38
  -4   1   3   36.17    2.18
   4  -1   3   37.72    2.21
  -1  -4   3   40.26    2.38
   4  -1   3   39.57    2.08
   1   4   3   39.52    2.15
  -4   3  -3   10.86    1.39
   3   4  -3    8.86    1.64
   4  -3  -3    8.14    1.19
  -3  -4  -3    6.76    1.39
  -4   3  -3    8.29    1.39
   3   4  -3    9.39    1.13
   4  -3  -3    9.39    1.88
   4  -3  -3    7.83    0.95
   3   4   3    6.07    1.30
   3   4   3    9.57    1.64
  -3  -4   3    9.77    1.09
   4  -3   3    9.04    1.14
   4  -3   3    7.58    1.39
  -4   3   3    8.00    1.51
  -3  -4   3    6.71    1.50
  -4   3   3    9.52    1.28
   4  -3   3    7.62    1.34
   4  -5  -3   30.13    2.40
  -5  -4  -3   25.12    3.09
   4  -5  -3   25.80    1.94
  -4   5  -3   27.74    2.65
  -4   5  -3   29.21    2.26
  -4   5   3   30.83    2.31
   5   4   3   31.73    3.03
   4  -5   3   27.42    2.83
  -4   5   3   32.88    3.30
  -5  -4   3   24.24    3.16
  -5  -4   3   27.91    2.29
   5   4   3   23.77    1.78
   4  -5   3   28.24    2.51
  -5  -4   3   28.78    1.64
   2  -5  -3  109.68    3.94
  -2   5  -3  109.39    3.90
  -2   5  -3  104.93    4.02
  -5  -2  -3  107.46    4.53
   5   2  -3  111.56    4.48
  -5  -2   3  105.98    4.60
   5   2   3  103.98    4.21
  -2   5   3  109.52    4.62
   5   2   3  108.08    3.98
  -2   5   3  104.54    3.38
   2  -5   3  111.83    4.44
  -5  -2   3  113.33    3.92
   2  -5   3  106.53    4.33
   2  -5   3  106.38    4.17
   0   5  -3   -1.07    1.07
  -5   0  -3    0.84    1.24
   0  -5  -3    0.61    0.85
   0   5  -3    0.14    0.60
  -5   0  -3   -1.13    0.76
   5   0  -3    2.22    1.42
  -5   0  -3    0.09    0.97
   0  -5  -3    0.83    0.88
   0  -5   3    1.23    1.13
   0   5   3   -0.96    0.98
   0  -5   3   -0.88    0.90
   5   0   3    0.60    1.05
   5   0   3    0.74    0.83
   0   5   3    1.14    0.96
  -5   0   3   -0.44    0.74
   0  -5   3   -0.46    0.85
  -5   0   3    0.42    0.72
   5  -2  -3  103.04    4.89
  -5   2  -3  110.59    4.15
   2   5  -3  108.09    4.51
  -5   2  -3  112.76    4.09
   2   5  -3  114.83    3.76
  -2  -5  -3  107.12    4.50
  -2  -5  -3  107.17    4.28
  -2  -5   3  113.02    3.93
  -2  -5   3  106.19    4.64
   5  -2   3  114.61    4.42
   5  -2   3  110.09    4.00
  -5   2   3  104.94    3.95
   2   5   3  111.22    4.51
  -2  -5   3  110.15    3.39
  -5   2   3  109.50    4.49
   2   5   3  112.80    4.53
  -4  -5  -3   27.83    3.13
  -5   4  -3   29.85    2.60
   5  -4  -3   28.47    1.84
   5  -4  -3   28.05    2.36
  -5   4  -3   29.84    2.33
   4   5  -3   26.51    3.22
  -5   4   3   31.65    2.65
   5  -4   3   28.57    2.85
  -4  -5   3   27.06    2.13
   5  -4   3   29.95    2.07
  -4  -5   3   26.84    2.10
   4   5   3   29.89    2.63
  -4  -5   3   30.56    3.35
   4   5   3   25.23    3.03
  -5   6  -3   16.11    2.02
   5  -6  -3   20.29    2.54
  -6  -5  -3   17.20    1.70
  -5   6   3   14.94    2.05
   5  -6   3   19.43    2.59
  -6  -5   3   16.32    2.20
   5  -6   3   16.69    2.56
  -5   6   3   20.41    2.91
  -6  -5   3   19.90    3.12
   6   5   3   14.26    1.52
   6   5   3   19.89    2.76
   3  -6  -3    1.91    1.26
   3  -6  -3    1.93    1.14
  -6  -3  -3    1.36    1.76
  -3   6  -3    0.12    1.00
   3  -6   3    2.52    1.48
  -6  -3   3   -0.19    1.20
   6   3   3   -0.33    1.54
   3  -6   3    2.99    1.76
  -3   6   3    0.06    0.75
  -6  -3   3   -0.92    1.83
  -3   6   3    0.65    1.63
   6   3   3    0.25    1.09
   1  -6  -3   20.43    2.24
   1  -6  -3   20.01    2.28
   6   1  -3   20.76    2.86
  -1   6  -3   24.51    2.50
  -6  -1  -3   21.82    2.89
  -1   6  -3   21.48    2.55
  -6  -1  -3   23.44    2.65
  -6  -1   3   21.45    2.20
   1  -6   3   21.65    2.70
   6   1   3   20.05    2.41
   1  -6   3   21.50    2.32
  -6  -1   3   23.31    1.51
   6   1   3   20.20    2.81
  -1   6   3   20.20    2.65
   1  -6   3   25.60    2.49
  -1   6   3   23.64    2.00
  -1  -6  -3   21.69    2.51
  -1  -6  -3   19.46    2.29
   1   6  -3   24.48    2.62
   1   6  -3   26.05    1.90
   6  -1  -3   24.24    2.75
  -6   1  -3   24.60    2.36
  -6   1  -3   22.37    2.22
   6  -1   3   23.92    3.47
  -6   1   3   25.36    2.44
  -1  -6   3   23.92    1.18
  -1  -6   3   23.80    2.26
   6  -1   3   22.74    2.05
  -6   1   3   19.97    2.16
   1   6   3   26.67    2.60
  -1  -6   3   21.03    2.83
   1   6   3   13.35    2.80
  -6   3  -3    0.46    1.53
   3   6  -3    0.26    1.84
   6  -3  -3    0.54    0.66
  -6   3  -3    0.58    1.20
   3   6  -3    0.09    0.97
  -3  -6  -3   -0.46    1.62
   3   6   3    0.78    2.00
  -6   3   3    0.22    1.23
  -3  -6   3   -1.85    1.28
  -6   3   3   -2.05    1.64
  -3  -6   3    0.77    1.74
   6  -3   3   -0.37    1.41
   6  -3   3    0.53    0.81
  -3  -6   3    0.76    0.90
  -6   5  -3   20.00    1.25
   6  -5  -3   22.78    2.23
  -6   5  -3   19.57    2.60
  -5  -6   3   14.70    1.93
  -6   5   3   12.71    2.82
  -6   5   3   20.02    2.24
   6  -5   3   20.24    2.23
   5   6   3   15.24    2.89
  -5  -6   3   29.80    4.06
   6  -5   3   23.97    2.93
  -5  -6   3   12.77    2.05
  -6   7  -3    0.44    1.71
   6  -7   3    2.38    2.82
  -6   7   3    7.03    2.98
   6  -7   3    0.65    2.37
   7   6   3    3.75    3.12
  -6   7   3    8.94    2.27
  -7  -6   3    3.21    2.29
  -7  -6   3    5.77    3.75
  -4   7  -3    1.15    1.29
   7   4   3    0.31    2.16
  -7  -4   3    1.10    2.52
   4  -7   3   -1.98    2.32
  -7  -4   3   -3.81    1.56
   7   4   3   -1.76    1.42
   4  -7   3   -0.42    1.94
  -4   7   3   -2.94    2.29
   2  -7  -3    6.41    0.87
  -2   7  -3    3.05    1.20
  -7  -2  -3    3.92    1.71
   2  -7   3    8.35    1.99
  -7  -2   3    4.28    1.98
  -2   7   3    5.91    1.36
  -2   7   3    6.01    2.11
  -7  -2   3    7.99    1.72
   7   2   3    6.95    2.03
   2  -7   3    9.11    2.48
  -7   0  -3    0.16    1.18
   0   7  -3    0.16    1.08
   7   0   3   -1.00    1.59
  -7   0   3   -0.06    1.19
   0   7   3    0.63    1.63
   0  -7   3   -0.82    1.48
   0   7   3   -1.20    1.53
  -7   0   3    0.82    1.19
   0  -7   3   -2.89    1.81
   7   0   3    1.41    1.41
  -7   2  -3    5.76    1.46
   2   7  -3    4.36    1.32
   7  -2   3    6.69    2.01
  -2  -7   3    6.47    2.17
   2   7   3    2.72    2.20
  -2  -7   3    6.77    0.98
  -7   2   3    6.11    1.83
   2   7   3    3.35    1.83
   7  -2   3    7.72    1.56
  -7   2   3    9.03    1.67
  -7   4  -3    0.97    1.41
   4   7   3    0.17    2.50
   7  -4   3    1.21    1.49
  -7   4   3    2.68    1.63
  -7   4   3    0.17    2.49
   7  -4   3    0.17    1.86
  -4  -7   3    0.52    2.13
  -4  -7   3    6.62    2.66
   4   7   3    1.52    1.85
  -4  -7   3   -1.31    1.29
  -7   6  -3    4.61    1.97
   7  -6   3    2.93    2.47
  -7   6   3    3.28    2.12
  -6  -7   3    2.82    3.63
  -7   6   3    3.22    3.49
  -6  -7   3    2.62    2.19
   6   7   3    1.16    3.08
  -3   8  -3    2.15    1.48
  -8  -3  -3    4.67    2.25
  -8  -3   3    1.78    2.66
   3  -8   3    1.86    2.88
   3  -8   3    8.41    2.51
  -3   8   3    6.64    2.76
   8   3   3    1.40    2.12
  -8  -3   3    3.49    2.07
  -1   8  -3   22.71    2.66
  -8  -1  -3   23.07    3.12
  -8  -1   3   28.42    2.73
  -1   8   3   26.66    3.09
  -1   8   3   20.81    2.75
   8   1   3   26.45    3.19
   1  -8   3   30.96    4.17
   1  -8   3   28.83    3.71
   1   8  -3   27.15    2.82
  -8   1  -3   27.87    3.04
   1   8   3   25.91    3.68
  -1  -8   3   30.85    3.58
   8  -1   3   27.12    3.01
   8  -1   3   30.76    3.69
  -8   1   3   20.83    2.34
  -8   3  -3    4.25    1.69
  -8   3   3    6.42    2.01
   3   8   3    3.26    2.77
   3   8   3    1.50    2.19
  -8   3   3    0.76    2.69
  -3  -8   3    2.98    1.72
   8  -3   3    4.67    2.38
  -3  -8   3   -0.91    2.58
  -9  -2  -3   10.66    2.61
  -2   9  -3   12.95    2.30
   2  -9   3   16.37    3.96
   9   2   3   12.78    3.05
   2  -9   3   17.40    3.22
  -2   9   3   13.62    3.16
  -9  -2   3   10.35    2.71
  -9   0  -3    3.34    2.01
   0   9  -3   -1.12    1.74
   9   0   3    1.25    2.18
   9   0   3    0.40    2.70
   0  -9   3   -0.87    3.08
   0   9   3    3.81    2.77
  -9   0   3    0.14    2.16
   0   9   3   -0.74    2.24
  -9   2  -3   17.72    2.65
   2   9  -3   14.55    2.52
   9  -2   3   15.86    3.76
   9  -2   3   14.09    2.52
  -2  -9   3   14.32    3.88
  -9   2   3   15.00    2.74
   2   9   3   12.86    3.47
   2   9   3   13.26    3.06
  -9   2   3   16.45    3.22
   0   0  -4  972.61   24.18
   0   0  -4  985.05   23.81
   0   0  -4  962.90   23.58
   0   0  -4  951.65   23.91
   0   0  -4  882.57   23.55
   0   0  -4  935.70   24.05
   0   0   4  900.11   23.62
   0   0   4  926.47   23.98
   1  -1  -4  420.57   11.52
   1   1  -4  438.67   11.82
  -1   1  -4  423.65   11.77
   1  -1  -4  411.68   11.91
   1   1  -4  410.35   10.94
  -1  -1  -4  420.66   11.41
  -1  -1  -4  420.23   11.92
   1  -1  -4  422.93   11.30
   1   1  -4  442.54   11.40
   1   1  -4  439.05   11.60
  -1   1  -4  424.95   11.36
   1   1  -4  438.24   11.08
  -1  -1  -4  422.06   11.26
   1  -1  -4  407.72   11.67
  -1   1  -4  439.20   11.46
  -1  -1  -4  426.08   11.33
  -1   1  -4  443.20   11.10
  -1  -1  -4  421.59   11.58
  -1   1  -4  442.60   11.58
   1  -1  -4  425.81   11.23
   1   1  -4  433.66   11.81
  -1   1  -4  427.09   11.51
  -1   1   4  396.17   11.08
   1   1   4  414.12   11.39
  -1   1   4  413.65   11.71
  -1  -1   4  427.15   11.91
  -1  -1   4  436.23   11.22
   1  -1   4  428.72   11.74
  -1   1   4  420.19   11.36
   1  -1   4  437.11   11.63
   1   1   4  406.56   11.41
   0  -2  -4   92.32    3.36
   2   0  -4   98.93    4.09
   0  -2  -4   96.76    3.94
   2   0  -4   94.92    2.89
  -2   0  -4   94.38    3.59
   2   0  -4   98.67    3.32
   0  -2  -4   95.95    3.51
  -2   0  -4   98.92    3.62
   0   2  -4   98.88    3.24
   0   2  -4  100.44    3.71
   2   0  -4  103.04    3.36
   0  -2  -4   95.78    3.43
  -2   0  -4   93.81    3.34
  -2   0  -4  102.63    3.53
   0   2  -4  105.19    3.74
  -2   0  -4   95.42    3.32
  -2   0  -4   94.59    3.95
   0   2  -4   99.22    3.81
   2   0  -4  100.09    3.61
   2   0  -4   93.20    3.85
   0  -2  -4   95.42    3.92
   0   2  -4  105.58    3.64
   0   2   4   96.68    3.38
  -2   0   4   93.82    3.38
   2   0   4  100.29    3.60
   0  -2   4   99.41    3.90
   0   2   4   92.60    3.91
   2   0   4   95.45    3.67
  -2   0   4   95.55    3.59
   2   2  -4  201.60    5.36
   2  -2  -4  194.09    5.93
  -2   2  -4  200.42    6.20
   2   2  -4  202.96    6.61
   2  -2  -4  192.17    5.54
   2   2  -4  202.29    5.96
   2   2  -4  201.61    6.43
   2  -2  -4  193.78    6.26
   2   2  -4  200.53    5.85
   2  -2  -4  194.62    6.71
  -2   2  -4  205.76    6.06
  -2  -2  -4  192.38    5.99
  -2   2  -4  192.21    6.35
  -2  -2  -4  191.14    6.06
  -2   2  -4  205.07    6.19
  -2  -2  -4  197.60    6.14
   2  -2  -4  191.73    6.10
   2  -2  -4  194.08    5.59
  -2   2  -4  206.84    5.54
  -2   2   4  198.78    6.02
  -2  -2   4  204.21    6.68
   2   2   4  196.17    6.55
   2  -2   4  202.07    6.11
   2   2   4  193.12    5.82
   2  -2   4  196.13    6.41
  -2   2   4  190.06    6.41
   2   2   4  194.14    6.10
  -2  -2   4  198.67    5.72
   3   1  -4   42.47    2.09
   1  -3  -4   44.26    2.25
  -3  -1  -4   45.70    2.57
   1  -3  -4   41.84    2.73
  -3  -1  -4   43.05    1.99
   3   1  -4   43.26    2.07
  -1   3  -4   44.72    2.65
  -1   3  -4   44.74    2.11
  -1   3  -4   45.66    1.63
  -1   3  -4   48.50    2.53
  -3  -1  -4   46.33    2.54
   3   1  -4   44.86    2.02
   1  -3  -4   40.04    2.36
   3   1  -4   50.39    3.00
  -3  -1  -4   40.01    2.86
   3   1  -4   40.31    2.98
   3   1   4   45.23    2.37
   1  -3   4   50.13    2.66
  -3  -1   4   43.79    2.80
  -3  -1   4   46.63    2.15
  -1   3   4   42.34    1.98
  -1   3   4   41.12    2.72
  -3  -1   4   42.20    2.15
   1  -3   4   47.67    2.51
   1  -3   4   47.59    2.73
   3   1   4   46.96    2.43
   1   3  -4   45.72    1.90
   3  -1  -4   43.99    2.18
   3  -1  -4   42.68    1.93
   1   3  -4   42.55    2.33
   3  -1  -4   41.70    2.79
  -1  -3  -4   47.51    2.93
  -3   1  -4   46.75    2.57
   3  -1  -4   49.35    3.37
   3  -1  -4   42.27    1.49
  -1  -3  -4   41.67    2.39
   1   3  -4   50.80    2.71
  -3   1  -4   40.72    2.70
   1   3  -4   48.38    2.37
  -1  -3  -4   42.58    1.83
   3  -1  -4   46.15    1.61
  -3   1  -4   49.51    2.48
   1   3  -4   46.36    2.85
  -1  -3   4   46.79    2.84
   3  -1   4   46.44    2.63
   1   3   4   46.58    2.83
   3  -1   4   44.60    2.09
  -1  -3   4   47.38    1.97
   1   3   4   42.39    2.31
  -3   1   4   42.86    2.28
   3  -1   4   45.91    2.38
  -1  -3   4   46.74    2.21
  -3   1   4   43.69    2.50
  -3  -3  -4  469.34   13.43
  -3   3  -4  463.60   12.87
  -3   3  -4  478.70   11.88
   3   3  -4  456.38   13.38
   3   3  -4  467.10   13.13
   3  -3  -4  448.07   13.50
   3  -3  -4  470.00   12.03
   3  -3  -4  452.82   12.55
   3   3  -4  486.00   11.91
  -3   3  -4  484.83   12.78
   3   3  -4  469.17   11.97
  -3   3   4  459.62   13.37
   3  -3   4  471.94   13.10
   3  -3   4  469.19   12.60
   3   3   4  471.04   13.00
   3  -3   4  478.11   13.23
   3   3   4  460.19   12.21
  -3  -3   4  456.47   13.49
  -3  -3   4  475.92   12.36
  -3  -3   4  452.54   11.95
  -3   3   4  465.29   12.69
  -2   4  -4  186.53    4.77
   2  -4  -4  186.00    5.71
  -2   4  -4  178.52    6.19
   2  -4  -4  183.29    5.94
  -4  -2  -4  183.87    5.31
   4   2  -4  180.40    6.52
  -2   4  -4  181.97    6.14
  -4  -2  -4  185.71    6.78
  -2   4  -4  198.02    5.90
   2  -4  -4  191.44    5.66
   4   2  -4  188.82    6.80
  -4  -2   4  192.09    5.82
   2  -4   4  194.09    6.28
   4   2   4  177.25    7.03
   2  -4   4  181.47    7.54
  -2   4   4  188.15    5.34
   4   2   4  188.81    5.83
  -4  -2   4  179.88    7.82
  -2   4   4  191.86    6.80
   2  -4   4  189.00    6.23
  -4   0  -4    6.37    1.35
  -4   0  -4    5.77    1.54
   0   4  -4    8.04    1.54
   0   4  -4   10.14    1.22
   4   0  -4    5.55    1.71
   0  -4  -4    7.81    1.66
   0  -4  -4    8.11    1.45
   0  -4  -4    8.36    1.03
  -4   0  -4    5.96    1.22
   0   4  -4    7.19    1.28
   0  -4   4    7.47    1.62
  -4   0   4    6.89    1.23
   4   0   4    8.10    1.46
   0   4   4    9.12    1.73
   0  -4   4    5.58    1.31
  -4   0   4    8.00    1.20
   0   4   4    8.85    1.22
   0  -4   4    7.00    1.27
   4   0   4    7.40    1.45
  -4   2  -4  187.98    7.04
  -2  -4  -4  173.94    6.10
   4  -2  -4  186.12    7.15
  -4   2  -4  192.04    6.28
   4  -2  -4  183.04    5.88
   4  -2  -4  179.13    5.10
   2   4  -4  195.58    6.82
  -2  -4  -4  184.30    6.76
   2   4  -4  207.47    5.60
   2   4  -4  200.20    5.66
   4  -2  -4  191.92    4.96
   2   4   4  195.04    6.80
  -2  -4   4  196.58    5.77
   4  -2   4  198.13    6.54
   4  -2   4  201.76    6.20
   4  -2   4  188.99    5.59
   2   4   4  194.19    6.31
  -4   2   4  190.73    6.54
  -2  -4   4  189.59    7.48
  -2  -4   4  187.57    5.48
   4  -4  -4  215.18    6.08
  -4   4  -4  215.01    5.64
  -4   4  -4  218.39    6.90
   4  -4   4  213.93    7.42
  -4   4   4  223.88    6.92
  -4  -4   4  217.45    7.90
  -4  -4   4  205.77    5.99
   4   4   4  202.67    6.04
  -4  -4   4  219.30    6.56
  -4   4   4  218.57    7.94
   4  -4   4  209.28    6.66
   4   4   4  217.60    7.38
   3  -5  -4   88.67    3.50
  -3   5  -4   97.08    3.90
  -5  -3  -4   90.51    3.10
   5   3   4   88.20    4.37
  -3   5   4   94.77    5.04
  -5  -3   4   98.49    4.02
  -5  -3   4   89.53    4.98
   5   3   4   89.62    3.59
   3  -5   4   93.63    4.59
  -3   5   4   88.52    2.89
  -5  -1  -4  122.99    4.87
  -1   5  -4  119.51    4.16
   1  -5  -4  111.80    3.56
   5   1   4  118.50    4.64
  -1   5   4  110.92    5.15
  -5  -1   4  112.44    4.37
  -1   5   4  118.46    4.03
   5   1   4  119.96    4.59
  -5  -1   4  117.66    3.82
   1  -5   4  116.58    4.61
   1  -5   4  113.94    4.98
   1  -5   4  119.33    4.99
  -5   1  -4  119.13    4.71
   5  -1  -4  114.95    3.49
  -1  -5  -4  114.79    4.66
  -5   1  -4  121.17    5.49
   1   5  -4  122.85    4.08
  -1  -5   4  120.09    4.42
  -5   1   4  114.18    4.41
   5  -1   4  111.60    5.34
  -1  -5   4  122.37    5.30
   5  -1   4  116.59    4.54
  -1  -5   4  123.84    3.59
   1   5   4  114.65    5.14
  -5   1   4  117.19    4.55
   1   5   4  122.11    4.57
   3   5  -4   93.84    2.90
   5  -3  -4   92.46    2.85
  -5   3  -4   99.24    4.14
   3   5  -4   94.93    3.46
   5  -3   4   93.56    3.45
  -3  -5   4   95.95    3.45
  -5   3   4   96.46    4.16
  -3  -5   4  102.67    5.12
  -5   3   4   84.48    6.05
   3   5   4   95.31    4.64
   3   5   4   97.57    4.80
  -3  -5   4   95.95    3.72
   5  -3   4   92.75    4.57
   5  -5  -4   39.31    2.49
  -5   5  -4   46.21    3.15
  -5  -5   4   44.41    4.52
   5   5   4   43.96    4.09
  -5   5   4   50.06    3.47
   5  -5   4   44.62    3.13
   5  -5   4   41.85    3.87
  -5   5   4   45.85    4.90
  -5  -5   4   49.35    3.38
  -4   6  -4    7.72    1.68
   4  -6  -4    4.83    1.53
  -6  -4   4    1.43    2.55
   6   4   4    2.92    2.17
   4  -6   4    2.81    2.44
  -4   6   4    3.92    2.54
   4  -6   4    2.87    1.77
  -6  -4   4    7.62    2.04
   6   4   4    7.04    1.46
  -2   6  -4   47.67    2.75
  -6  -2  -4   41.37    3.53
   2  -6  -4   37.53    2.25
   2  -6  -4   32.80    2.86
   6   2   4   51.96    3.48
  -6  -2   4   39.88    3.15
  -6  -2   4   43.52    3.85
  -2   6   4   44.51    4.01
   2  -6   4   45.76    3.59
   2  -6   4   39.90    3.75
   6   2   4   44.01    3.03
  -2   6   4   42.89    2.29
   0   6  -4  241.14    7.27
  -6   0  -4  248.66    7.97
   6   0  -4  232.78    6.57
  -6   0   4  238.78    7.15
   0  -6   4  235.51    8.42
   6   0   4  243.61    8.09
   0  -6   4  245.19    8.20
   6   0   4  241.46    7.76
  -6   0   4  235.99    7.52
   0   6   4  237.32    7.77
   0   6   4  227.43    8.26
  -6   2  -4   42.01    3.10
   2   6  -4   43.05    2.53
  -2  -6   4   40.37    4.05
  -6   2   4   45.07    3.21
  -2  -6   4   49.13    3.24
  -6   2   4   52.03    3.60
   2   6   4   42.54    3.74
   6  -2   4   42.51    3.72
  -2  -6   4   46.79    2.13
   2   6   4   50.87    3.79
   6  -2   4   44.16    3.02
  -6   4  -4    5.17    1.69
  -6   4   4    3.86    2.65
   4   6   4    8.79    2.21
   4   6   4    1.96    2.32
  -4  -6   4    3.52    1.43
  -4  -6   4    5.90    2.05
   6  -4   4    6.98    1.54
  -6   4   4    3.91    1.76
   6  -4   4    5.60    2.30
  -4  -6   4    5.99    2.86
  -6   6  -4   82.04    5.16
  -6  -6   4   71.02    6.55
   6   6   4   66.18    6.04
   6  -6   4   78.42    5.78
  -6   6   4   61.89    4.85
  -6  -6   4   62.27    4.88
  -6   6   4   68.03    7.20
  -5   7   4   28.66    4.62
   5  -7   4   34.41    4.08
   5  -7   4   29.39    3.86
  -7  -5   4   32.74    4.63
  -7  -5   4   28.00    3.27
  -3   7  -4   -0.58    1.24
  -7  -3  -4    2.55    2.18
   7   3   4    2.00    2.40
   3  -7   4    6.18    2.73
   7   3   4   -0.52    1.64
  -3   7   4    0.95    2.60
   3  -7   4    3.32    1.99
  -7  -3   4    0.42    2.51
  -7  -3   4    1.79    2.05
  -1   7  -4  127.20    4.97
  -7  -1  -4  136.04    5.73
   1  -7   4  127.02    5.94
  -1   7   4  134.50    4.85
   7   1   4  117.27    5.75
  -7  -1   4  135.56    5.39
   7   1   4  134.96    5.47
  -7  -1   4  127.31    4.12
   1  -7   4  121.03    6.26
  -1   7   4  125.77    6.22
   1   7  -4  136.33    5.04
  -7   1  -4  129.92    5.58
   7  -1   4  139.70    6.31
   1   7   4  128.13    6.11
  -1  -7   4  131.39    6.55
   7  -1   4  130.21    5.37
   1   7   4  138.99    5.90
  -7   1   4  127.80    5.35
  -7   3  -4    1.76    1.68
   3   7  -4    1.00    1.45
  -3  -7   4    3.32    2.88
  -3  -7   4    0.79    1.19
   3   7   4    6.27    3.02
  -7   3   4    1.26    2.63
   7  -3   4    3.26    2.15
  -7   3   4    1.94    1.87
   3   7   4    0.65    2.06
  -5  -7   4   35.39    3.08
  -5  -7   4   42.53    6.97
  -7   5   4   39.75    4.69
   5   7   4   31.49    4.77
  -2   8  -4   15.64    2.22
  -8  -2  -4   27.45    3.49
  -2   8   4   20.74    3.70
   8   2   4   14.78    2.96
   2  -8   4   18.63    3.31
   8   2   4   19.98    2.94
  -8  -2   4   26.30    3.20
   2  -8   4   24.88    4.04
   0   8  -4   61.13    3.77
  -8   0  -4   61.20    4.55
   0  -8   4   58.97    5.88
   0  -8   4   52.59    4.85
   8   0   4   60.35    4.24
   0   8   4   64.03    4.50
   0   8   4   54.88    5.02
   8   0   4   56.35    5.37
  -8   0   4   59.54    4.45
  -8   2  -4   22.01    2.96
   2   8  -4   25.57    3.25
  -2  -8   4   24.45    4.06
   8  -2   4   23.56    3.91
  -8   2   4   20.12    2.90
  -8   2   4   20.74    3.22
   2   8   4   24.28    3.86
   2   8   4   17.01    3.08
   8  -2   4   21.06    2.79
  -1   0  -5   -0.82    0.75
   1   0  -5    1.52    1.30
   0   1  -5   -0.95    1.11
   0   1  -5    0.37    0.67
   0   1  -5    1.46    1.25
  -1   0  -5    2.07    1.20
   1   0  -5   -0.57    1.03
   1   0  -5    0.66    0.90
  -1   0  -5    0.94    1.13
   1   0  -5    0.29    1.12
   0   1  -5   -0.13    0.74
  -1   0  -5   -0.18    0.84
  -1   0  -5    0.87    1.35
   0   1  -5    1.52    1.22
   0  -1  -5    0.33    1.03
  -1   0  -5    1.03    1.09
   0  -1  -5    0.51    1.02
   1   0  -5    0.03    0.62
   0  -1  -5    0.40    0.77
   1   0  -5    0.73    1.25
   0  -1  -5    0.17    1.24
   0  -1  -5   -0.20    0.96
   0  -1  -5    1.97    1.30
   0   1  -5    1.52    1.25
   1   0   5   -0.13    0.91
   1   0   5    0.44    0.97
   0   1   5    0.51    0.90
   0   1   5   -0.13    1.04
   0  -1   5   -0.03    1.16
   2   1  -5   62.04    2.67
  -1   2  -5   63.19    2.80
  -2  -1  -5   65.29    3.02
  -1   2  -5   63.69    3.24
  -2  -1  -5   67.27    3.29
  -2  -1  -5   62.42    3.12
   1  -2  -5   65.11    3.14
   2   1  -5   65.21    2.29
  -2  -1  -5   64.62    2.98
  -2  -1  -5   62.54    3.08
  -1   2  -5   64.02    3.50
   1  -2  -5   61.67    2.87
  -1   2  -5   66.25    2.61
   1  -2  -5   63.98    3.60
  -1   2  -5   68.14    3.22
  -1   2  -5   63.62    3.48
   2   1  -5   60.01    3.65
   1  -2  -5   64.40    3.94
   1  -2  -5   64.75    3.22
   2   1  -5   64.83    3.75
   2   1  -5   67.25    3.03
   2   1  -5   64.27    3.16
   2   1   5   66.72    3.16
   2   1   5   63.22    3.16
  -2  -1   5   58.87    3.67
  -1   2   5   62.66    2.71
   1  -2   5   68.89    3.65
  -1   2   5   66.84    3.57
   1  -2   5   71.03    3.46
  -2  -1   5   65.61    2.90
  -1  -2  -5   53.78    3.70
  -2   1  -5   71.73    3.08
  -2   1  -5   71.63    2.84
   1   2  -5   64.22    2.50
  -1  -2  -5   58.13    3.52
  -2   1  -5   68.22    3.42
   1   2  -5   64.94    2.55
   1   2  -5   67.83    3.73
  -2   1  -5   62.24    3.63
   2  -1  -5   66.75    2.90
   2  -1  -5   66.10    2.52
   2  -1  -5   64.55    4.04
   2  -1  -5   64.26    3.50
   1   2  -5   68.33    3.18
  -2   1  -5   64.13    3.24
  -1  -2  -5   63.86    3.19
   1   2  -5   69.64    3.35
   2  -1  -5   63.66    3.32
   1   2  -5   62.26    3.38
  -2   1  -5   61.24    2.90
  -1  -2  -5   62.54    3.09
  -1  -2  -5   67.29    2.91
   2  -1  -5   63.71    3.05
   1   2   5   62.70    3.00
  -2   1   5   66.74    3.16
   2  -1   5   61.42    3.44
  -1  -2   5   67.82    2.78
  -1  -2   5   66.02    3.66
  -2   1   5   69.32    3.41
  -3  -2  -5    6.89    1.50
  -2   3  -5    7.91    1.00
  -2   3  -5    5.38    1.68
   2  -3  -5    6.37    1.14
   3   2  -5    6.22    1.42
   3   2  -5    5.26    1.18
   2  -3  -5    8.19    1.66
  -3  -2   5    5.64    1.80
  -2   3   5    6.00    1.79
   2  -3   5    9.56    1.87
   3   2   5    7.56    1.45
  -3  -2   5    6.59    1.25
  -2   3   5    8.55    1.13
   2  -3   5    6.79    1.72
   3   2   5    9.95    1.84
   3   0  -5    0.44    1.01
   3   0  -5   -0.99    1.38
   0   3  -5    2.21    1.29
   0   3  -5    0.33    0.70
   0  -3  -5    0.52    1.74
   0  -3  -5   -0.40    0.94
  -3   0  -5    0.24    0.93
   3   0  -5    0.96    1.11
   3   0  -5    1.76    1.04
   0   3  -5   -2.09    1.38
  -3   0  -5   -0.09    0.91
   0   3  -5   -0.67    1.37
   0   3  -5    0.40    0.64
  -3   0   5   -0.47    1.03
   0   3   5    0.14    1.48
   3   0   5    0.63    1.15
   0  -3   5    0.96    1.43
   3   0   5    0.34    1.14
   0  -3   5   -0.42    1.41
   0   3   5    0.01    0.95
   3  -2  -5    6.90    1.88
  -3   2  -5    7.72    1.17
   3  -2  -5    7.47    1.17
  -3   2  -5    5.96    1.26
  -2  -3  -5    7.30    1.78
   3  -2  -5    6.61    0.86
   2   3  -5    7.70    1.56
   2   3  -5    7.20    0.91
   2   3  -5    7.72    1.37
  -3   2   5    9.57    1.56
   3  -2   5    7.49    1.73
   3  -2   5    8.36    1.55
  -3   2   5    5.74    1.61
  -2  -3   5    8.11    1.19
  -2  -3   5    9.30    2.11
   2   3   5   11.25    2.15
   2   3   5    6.36    1.57
   3  -4  -5    2.63    1.14
  -4  -3  -5    3.97    1.55
  -3   4  -5    3.18    0.73
   3  -4  -5    2.12    1.74
  -3   4  -5    3.31    1.25
   4   3   5    3.72    1.29
  -3   4   5    5.88    2.14
   4   3   5    6.03    1.90
   3  -4   5    3.74    1.73
  -4  -3   5    3.20    2.04
   3  -4   5    5.65    1.79
  -4  -3   5    2.09    1.36
  -1   4  -5   16.16    2.18
  -4  -1  -5   14.25    1.97
  -4  -1  -5   14.45    1.48
   4   1  -5   19.61    2.01
   1  -4  -5   15.17    2.02
   1  -4  -5   19.48    2.25
   1  -4   5   19.88    2.46
  -1   4   5   18.28    1.76
  -4  -1   5   13.50    1.67
   1  -4   5   19.00    2.26
   4   1   5   14.50    1.91
   1  -4   5   22.74    2.69
  -1   4   5   14.37    2.26
   4   1   5   17.19    2.03
   4  -1  -5   17.94    1.76
  -4   1  -5   18.04    2.39
   1   4  -5   15.64    1.56
   1   4  -5   19.82    2.35
  -1  -4  -5   15.61    2.37
  -4   1  -5   16.52    1.95
  -4   1   5   17.30    1.98
   4  -1   5   15.13    2.24
  -4   1   5   14.80    2.02
  -1  -4   5   16.85    1.65
   1   4   5   17.96    2.26
  -1  -4   5   16.59    1.94
   1   4   5   14.38    2.19
  -1  -4   5   15.71    2.40
   4  -1   5   20.74    2.30
   3   4  -5    4.23    0.96
  -4   3  -5    2.74    1.02
  -4   3  -5    4.62    1.40
   4  -3  -5    4.56    2.17
  -3  -4  -5    5.58    1.95
   4  -3  -5    4.85    0.82
   3   4  -5    4.29    1.07
  -3  -4   5    3.37    2.06
  -3  -4   5    3.09    1.13
   4  -3   5    5.45    1.78
  -4   3   5    1.78    1.92
  -3  -4   5    4.64    1.28
   4  -3   5    4.40    1.55
  -4   3   5    5.57    1.60
   3   4   5    3.47    1.85
  -4   5  -5   18.53    2.62
   4  -5  -5   17.71    3.09
  -4   5   5   12.99    3.32
  -5  -4   5   14.64    2.20
  -5  -4   5   10.37    2.89
   5   4   5   10.73    1.90
   4  -5   5   17.80    2.55
   5   4   5   13.10    2.59
   4  -5   5    8.88    2.28
   5   2  -5   47.05    3.04
  -2   5  -5   48.83    2.95
  -5  -2  -5   49.37    3.81
   2  -5  -5   47.39    2.91
   2  -5  -5   50.67    3.12
  -5  -2   5   53.51    4.20
  -2   5   5   47.64    2.44
   2  -5   5   45.61    3.93
   2  -5   5   52.48    3.94
   5   2   5   48.28    3.44
  -2   5   5   50.83    4.44
  -5  -2   5   52.57    3.28
   5   2   5   47.33    3.19
  -5   0  -5   -0.18    1.32
   5   0  -5    1.24    1.22
   0   5  -5   -1.53    1.46
   0   5  -5   -0.42    0.92
   0  -5   5    0.94    1.94
   0  -5   5    1.07    1.85
   5   0   5    0.01    1.46
   5   0   5    0.93    1.68
  -5   0   5    1.81    1.34
   0   5   5   -0.01    1.33
   0  -5   5    1.00    1.69
   0   5   5   -0.07    1.67
  -5   0   5    0.31    1.28
  -5   2  -5   51.35    3.36
   2   5  -5   49.81    2.93
   2   5  -5   52.18    2.54
  -5   2  -5   47.57    2.83
   2   5   5   55.25    3.75
  -5   2   5   44.86    3.39
  -5   2   5   52.70    4.96
   2   5   5   48.23    4.10
  -2  -5   5   46.59    3.22
  -2  -5   5   46.37    2.48
   5  -2   5   52.92    4.20
  -2  -5   5   49.16    4.46
  -5   4  -5   11.77    1.95
  -4  -5   5   10.60    1.80
  -4  -5   5   13.49    3.30
   4   5   5   18.58    3.22
  -5   4   5   10.84    3.00
   5  -4   5   14.40    3.07
  -5   4   5   15.09    2.24
   5  -4   5   15.65    2.14
  -6  -3  -5    0.17    2.04
  -3   6  -5    1.55    1.46
   3  -6   5    2.64    2.25
   6   3   5    3.17    2.52
   6   3   5    0.43    1.64
  -6  -3   5   -0.56    1.89
  -3   6   5   -3.21    2.55
   3  -6   5    2.61    2.61
  -6  -3   5    1.11    2.55
   6   1  -5   10.20    2.40
  -6  -1  -5   14.83    2.41
  -1   6  -5    9.20    1.53
   6   1   5   11.71    2.35
  -1   6   5    8.96    2.46
  -6  -1   5   14.43    2.24
  -1   6   5    9.64    1.74
   6   1   5    9.27    2.03
   1  -6   5   13.98    2.71
   1  -6   5   11.81    2.84
  -6   1  -5    9.09    1.95
   1   6  -5   13.66    2.13
   1   6  -5   10.58    1.55
   6  -1   5   12.55    2.43
   1   6   5    4.73    2.24
  -6   1   5   11.13    2.10
   6  -1   5   11.64    2.46
  -1  -6   5   12.34    3.04
  -6   1   5    9.28    2.06
   1   6   5   15.28    2.46
  -6   3  -5    0.30    1.77
   3   6  -5   -0.19    1.31
  -3  -6   5   -2.72    2.99
  -6   3   5    2.98    2.04
   3   6   5   -0.24    2.61
  -6   3   5    2.83    2.66
   6  -3   5    1.75    2.35
   3   6   5    2.59    2.25
  -7  -2  -5    3.30    2.27
  -2   7  -5    2.67    1.68
   7   2   5    3.15    2.61
  -2   7   5   -1.96    3.05
  -7  -2   5    4.02    2.48
   2  -7   5    4.77    3.36
   2  -7   5    3.48    2.65
   7   2   5    3.16    2.38
  -7   0  -5   -2.26    1.93
   0   7  -5    1.43    1.50
  -7   0   5   -3.91    2.04
   7   0   5    1.60    2.25
   0   7   5    3.72    2.24
   0  -7   5   -1.25    3.04
   0  -7   5   -1.96    2.38
   0   7   5    0.22    2.62
   7   0   5   -1.85    2.45
   2   7  -5    1.62    1.65
  -7   2  -5    1.65    1.87
  -7   2   5    5.67    2.43
   2   7   5    1.97    2.70
  -7   2   5    3.67    2.65
  -2  -7   5   -1.04    3.38
   2   7   5    2.66    2.63
   7  -2   5    1.52    2.12
   7  -2   5    2.32    2.61
   0   0  -6    0.53    2.09
   0   0  -6    1.51    1.07
   0   0  -6    3.68    1.97
   1   1  -6   66.27    3.20
  -1  -1  -6   67.39    3.73
  -1  -1  -6   65.16    4.77
  -1   1  -6   63.86    3.35
   1  -1  -6   59.82    2.91
  -1  -1  -6   60.29    3.88
   1  -1  -6   63.59    3.51
  -1   1  -6   56.79    3.58
  -1   1  -6   69.21    3.26
   1  -1  -6   62.06    3.89
   1   1  -6   63.62    2.75
   1   1  -6   64.63    4.00
   1   1   6   64.44    3.43
   1  -1   6   70.89    4.15
   0  -2  -6  149.24    6.30
   0  -2  -6  135.28    5.10
   0   2  -6  148.03    4.63
   0  -2  -6  124.28    5.12
  -2   0  -6  130.64    5.18
   2   0  -6  135.03    5.23
  -2   0  -6  133.84    5.24
   2   0  -6  129.63    5.57
   0   2  -6  139.65    6.01
   2   0  -6  132.99    4.28
   0   2  -6  137.22    4.68
   0   2   6  141.41    6.03
   0   2   6  138.87    5.05
   2   0   6  135.69    5.72
   0  -2   6  147.62    6.04
  -2   0   6  140.59    5.22
   2   0   6  142.53    5.30
   2  -2  -6   69.64    3.00
  -2  -2  -6   64.11    3.87
  -2   2  -6   68.80    3.48
  -2  -2  -6   61.12    3.99
   2   2  -6   64.64    3.81
   2  -2  -6   59.38    4.15
   2  -2  -6   60.13    3.41
  -2   2  -6   63.99    3.15
   2   2  -6   64.67    2.56
   2  -2   6   64.09    4.41
  -2   2   6   61.50    4.33
  -2  -2   6   68.67    4.58
   2   2   6   64.28    3.71
   2  -2   6   70.22    3.89
  -2  -2   6   65.89    3.40
  -3  -1  -6  196.56    6.93
  -1   3  -6  196.00    6.28
   3   1  -6  186.05    6.48
   3   1  -6  188.54    5.17
  -1   3  -6  195.31    5.67
   3   1  -6  183.03    6.52
  -3  -1  -6  179.68    6.26
   1  -3  -6  185.40    6.44
  -1   3   6  192.47    7.61
  -3  -1   6  196.09    6.47
   1  -3   6  196.82    7.46
   1  -3   6  197.62    7.26
  -1   3   6  190.20    6.10
   3   1   6  190.50    6.80
   3  -1  -6  191.34    5.39
   1   3  -6  194.10    6.97
   1   3  -6  196.54    5.85
   3  -1  -6  188.47    6.23
  -1  -3  -6  183.10    6.11
  -3   1  -6  200.69    6.84
  -3   1  -6  183.92    6.18
   3  -1  -6  187.59    5.49
   1   3   6  188.43    6.53
  -3   1   6  194.96    7.04
   1   3   6  188.48    7.50
   3  -1   6  190.37    7.29
  -3   1   6  189.69    6.67
  -1  -3   6  210.78    7.73
  -3   3  -6    7.50    1.68
  -3  -3  -6    9.66    2.46
   3   3  -6    7.68    1.06
   3  -3   6    8.05    2.11
  -3  -3   6    7.41    1.72
   3   3   6    8.69    2.24
  -3  -3   6    4.37    2.31
  -3   3   6    6.48    2.47
   3  -3   6    7.49    2.48
  -2   4  -6   31.82    2.77
   2  -4  -6   30.56    2.87
  -4  -2  -6   32.67    3.68
   4   2   6   29.47    3.46
   4   2   6   29.25    3.21
  -4  -2   6   32.26    3.21
   2  -4   6   30.67    3.97
  -4  -2   6   35.85    4.11
  -2   4   6   30.48    3.68
   2  -4   6   23.07    2.97
  -4   0  -6  184.02    6.78
   0   4  -6  182.69    5.86
   4   0  -6  178.87    6.09
   0  -4   6  180.41    7.41
  -4   0   6  174.91    6.35
   4   0   6  182.28    7.08
  -4   0   6  173.77    6.45
   4   0   6  184.13    6.66
   0   4   6  167.88    6.09
   0   4   6  178.12    7.51
  -4   2  -6   31.63    3.20
   2   4  -6   30.76    2.12
  -4   2  -6   31.27    2.80
   4  -2   6   29.02    3.56
   2   4   6   33.85    3.82
  -2  -4   6   36.40    4.53
   2   4   6   26.39    3.39
  -4   2   6   32.94    4.07
  -2  -4   6   31.35    2.59
  -4   2   6   29.40    2.96
  -4   4  -6    7.92    2.04
  -4   4   6   10.42    3.41
   4  -4   6   14.14    3.57
   4  -4   6    3.07    2.82
  -4  -4   6   13.42    3.52
   4   4   6    6.69    2.68
  -4  -4   6    9.63    2.12
  -3   5  -6   44.04    3.64
  -5  -3  -6   42.81    4.83
   3  -5   6   58.34    5.27
  -3   5   6   49.50    6.25
  -5  -3   6   37.35    5.21
   5   3   6   50.38    4.68
  -5  -3   6   42.38    4.10
   3  -5   6   44.77    4.79
  -1   5  -6   54.28    3.40
  -5  -1  -6   60.14    4.48
  -1   5   6   58.98    3.38
   1  -5   6   54.86    4.99
   1  -5   6   57.98    5.00
   5   1   6   66.68    4.68
  -1   5   6   53.56    5.44
  -5  -1   6   59.16    4.24
   5   1   6   53.06    4.36
   1   5  -6   63.71    3.19
  -5   1  -6   58.37    4.31
  -5   1   6   62.41    4.35
   5  -1   6   51.30    5.03
   1   5   6   59.90    5.26
   1   5   6   57.82    3.98
   5  -1   6   48.38    4.00
  -5   1   6   62.54    4.37
  -1  -5   6   65.26    5.48
  -5   3  -6   51.12    4.15
  -5   3   6   42.12    5.59
  -5   3   6   54.61    4.47
   5  -3   6   42.68    5.29
  -3  -5   6   47.25    3.41
   3   5   6   56.50    4.81
  -3  -5   6   50.82    5.77
   0   6  -6    1.99    1.59
  -6   0  -6    2.31    2.73
   6   0   6    6.49    2.99
   0   6   6    0.14    3.19
   0  -6   6    2.00    3.33
   6   0   6    8.28    2.88
   0   6   6    4.09    2.28
  -6   0   6    1.80    2.39
   0  -1  -7   -1.85    1.42
  -1   0  -7   -1.59    1.50
   1   0  -7    0.43    1.59
   0   1  -7   -0.58    1.33
  -1   2  -7   22.85    2.92
  -2  -1  -7   20.84    2.70
   2   1   7   24.09    3.00
  -1  -2  -7   21.87    2.66
  -2   1  -7   21.14    2.49
   1   2  -7   21.07    2.24
   2  -1   7   20.24    3.03
   1   2   7   22.81    2.79
  -2   3  -7    0.23    1.70
  -3  -2  -7    3.43    2.25
   2  -3   7   -1.14    2.69
   3   2   7    6.06    2.86
  -2   3   7    1.80    3.13
   2  -3   7    0.49    2.73
  -3  -2   7    0.43    2.16
   0  -3  -7    0.09    1.94
   0   3  -7   -0.30    1.42
  -3   0  -7    0.31    1.82
   0  -3   7   -0.36    2.64
   3   0   7   -0.48    2.38
   0   3   7    1.09    2.01
  -3   2  -7   -0.46    1.81
  -2  -3  -7    4.79    2.38
   2   3   7    2.89    2.46
   3  -2   7    8.58    3.23
  -2  -3   7    2.52    3.02
  -3   2   7    2.98    2.81
   0   0   0    0.00    0.00
;
_shelx_hkl_checksum              78750
loop_
_space_group_symop_operation_xyz
'x, y, z'
'-x, -y, z'
'-y, x, z'
'y, -x, z'
'-x, y, -z+1/2'
'x, -y, -z+1/2'
'y, x, -z+1/2'
'-y, -x, -z+1/2'
'x+1/2, y+1/2, z+1/2'
'-x+1/2, -y+1/2, z+1/2'
'-y+1/2, x+1/2, z+1/2'
'y+1/2, -x+1/2, z+1/2'
'-x+1/2, y+1/2, -z+1'
'x+1/2, -y+1/2, -z+1'
'y+1/2, x+1/2, -z+1'
'-y+1/2, -x+1/2, -z+1'
'-x, -y, -z'
'x, y, -z'
'y, -x, -z'
'-y, x, -z'
'x, -y, z-1/2'
'-x, y, z-1/2'
'-y, -x, z-1/2'
'y, x, z-1/2'
'-x+1/2, -y+1/2, -z+1/2'
'x+1/2, y+1/2, -z+1/2'
'y+1/2, -x+1/2, -z+1/2'
'-y+1/2, x+1/2, -z+1/2'
'x+1/2, -y+1/2, z'
'-x+1/2, y+1/2, z'
'-y+1/2, -x+1/2, z'
'y+1/2, x+1/2, z'
loop_
_atom_site_label
_atom_site_type_symbol
_atom_site_fract_x
_atom_site_fract_y
_atom_site_fract_z
_atom_site_U_iso_or_equiv
_atom_site_adp_type
_atom_site_occupancy
_atom_site_site_symmetry_order
_atom_site_calc_flag
_atom_site_refinement_flags_posn
_atom_site_refinement_flags_adp
_atom_site_refinement_flags_occupancy
Ga Ga 0.5000 0.0000 0.2500 0.0182(5) Uani 0.6 8 d S T P
Si Si 0.5000 0.0000 0.2500 0.0182(5) Uani 0.4 8 d S T P
S S 0.64982(14) 0.14982(14) 0.5000 0.0294(6) Uani 1 4 d S T P
K K 0.5000 0.5000 0.7500 0.132(4) Uani 0.6 8 d S T P
loop_
_atom_site_aniso_label
_atom_site_aniso_U_11
_atom_site_aniso_U_22
_atom_site_aniso_U_33
_atom_site_aniso_U_23
_atom_site_aniso_U_13
_atom_site_aniso_U_12
Ga 0.0223(6) 0.0223(6) 0.0100(7) 0.000 0.000 0.000
Si 0.0223(6) 0.0223(6) 0.0100(7) 0.000 0.000 0.000
S 0.0305(7) 0.0305(7) 0.0273(10) 0.000 0.000 -0.0102(7)
K 0.0270(14) 0.0270(14) 0.342(14) 0.000 0.000 0.000
loop_
_atom_type_symbol
_atom_type_description
_atom_type_scat_dispersion_real
_atom_type_scat_dispersion_imag
_atom_type_scat_source
Si Si 0.0817 0.0704 'International Tables Vol C Tables 4.2.6.8 and 6.1.1.4'
S S 0.1246 0.1234 'International Tables Vol C Tables 4.2.6.8 and 6.1.1.4'
K K 0.2009 0.2494 'International Tables Vol C Tables 4.2.6.8 and 6.1.1.4'
Ga Ga 0.2307 1.6083 'International Tables Vol C Tables 4.2.6.8 and 6.1.1.4'
loop_
_geom_angle_atom_site_label_1
_geom_angle_atom_site_label_2
_geom_angle_atom_site_label_3
_geom_angle
_geom_angle_site_symmetry_1
_geom_angle_site_symmetry_3
S Ga S 115.77(3) . 27
S Ga S 115.77(3) . 11_544
S Ga S 97.49(6) 27 11_544
S Ga S 97.49(6) . 17_656
S Ga S 115.77(3) 27 17_656
S Ga S 115.77(3) 11_544 17_656
S Ga Ga 131.25(3) . 17_655
S Ga Ga 48.75(3) 27 17_655
S Ga Ga 48.75(3) 11_544 17_655
S Ga Ga 131.25(3) 17_656 17_655
S Ga Ga 48.75(3) . 17_656
S Ga Ga 131.25(3) 27 17_656
S Ga Ga 131.25(3) 11_544 17_656
S Ga Ga 48.75(3) 17_656 17_656
Ga Ga Ga 180.0 17_655 17_656
S Ga K 57.887(15) . 17_666
S Ga K 122.114(15) 27 17_666
S Ga K 57.887(15) 11_544 17_666
S Ga K 122.114(15) 17_656 17_666
Ga Ga K 90.0 17_655 17_666
Ga Ga K 90.0 17_656 17_666
S Ga K 122.113(15) . 9_444
S Ga K 122.114(15) 27 9_444
S Ga K 57.886(15) 11_544 9_444
S Ga K 57.886(15) 17_656 9_444
Ga Ga K 90.0 17_655 9_444
Ga Ga K 90.0 17_656 9_444
K Ga K 90.0 17_666 9_444
S Ga K 57.887(15) . 9_544
S Ga K 57.887(15) 27 9_544
S Ga K 122.114(15) 11_544 9_544
S Ga K 122.114(15) 17_656 9_544
Ga Ga K 90.0 17_655 9_544
Ga Ga K 90.0 17_656 9_544
K Ga K 90.0 17_666 9_544
K Ga K 180.0 9_444 9_544
S Ga K 122.113(15) . 17_656
S Ga K 57.886(15) 27 17_656
S Ga K 122.113(15) 11_544 17_656
S Ga K 57.886(15) 17_656 17_656
Ga Ga K 90.0 17_655 17_656
Ga Ga K 90.0 17_656 17_656
K Ga K 180.0 17_666 17_656
K Ga K 90.0 9_444 17_656
K Ga K 90.0 9_544 17_656
Ga S Si 82.5 . 17_656
Ga S Ga 82.51(6) . 17_656
Si S Ga 0.0 17_656 17_656
Ga S K 122.72(2) . 25_656
Si S K 87.831(7) 17_656 25_656
Ga S K 87.831(7) 17_656 25_656
Ga S K 122.72(2) . .
Si S K 87.831(7) 17_656 .
Ga S K 87.831(7) 17_656 .
K S K 113.07(3) 25_656 .
Ga S K 87.831(7) . 9_544
Si S K 122.72(2) 17_656 9_544
Ga S K 122.72(2) 17_656 9_544
K S K 52.018(11) 25_656 9_544
K S K 140.94(5) . 9_544
Ga S K 87.831(7) . 17_666
Si S K 122.72(2) 17_656 17_666
Ga S K 122.72(2) 17_656 17_666
K S K 140.94(5) 25_656 17_666
K S K 52.018(11) . 17_666
K S K 113.07(3) 9_544 17_666
K K K 180.0 17_667 17_666
K K S 116.009(5) 17_667 19_566
K K S 63.991(5) 17_666 19_566
K K S 63.991(5) 17_667 27_566
K K S 116.009(5) 17_666 27_566
S K S 140.94(5) 19_566 27_566
K K S 63.991(5) 17_667 25_656
K K S 116.009(5) 17_666 25_656
S K S 138.59(5) 19_566 25_656
S K S 78.913(4) 27_566 25_656
K K S 116.009(5) 17_667 3_655
K K S 63.991(6) 17_666 3_655
S K S 127.981(11) 19_566 3_655
S K S 66.93(3) 27_566 3_655
S K S 68.57(4) 25_656 3_655
K K S 63.991(5) 17_667 11_545
K K S 116.009(5) 17_666 11_545
S K S 66.93(3) 19_566 11_545
S K S 127.981(11) 27_566 11_545
S K S 78.913(4) 25_656 11_545
S K S 140.94(5) 3_655 11_545
K K S 116.009(5) 17_667 17_666
K K S 63.991(5) 17_666 17_666
S K S 78.913(4) 19_566 17_666
S K S 68.57(4) 27_566 17_666
S K S 140.94(5) 25_656 17_666
S K S 78.913(4) 3_655 17_666
S K S 138.59(5) 11_545 17_666
K K S 63.991(5) 17_667 9_455
K K S 116.009(5) 17_666 9_455
S K S 68.57(4) 19_566 9_455
S K S 78.913(4) 27_566 9_455
S K S 127.981(11) 25_656 9_455
S K S 138.59(5) 3_655 9_455
S K S 78.913(4) 11_545 9_455
S K S 66.93(3) 17_666 9_455
K K S 116.009(5) 17_667 .
K K S 63.991(5) 17_666 .
S K S 78.913(4) 19_566 .
S K S 138.59(5) 27_566 .
S K S 66.93(3) 25_656 .
S K S 78.914(4) 3_655 .
S K S 68.56(4) 11_545 .
S K S 127.981(11) 17_666 .
S K S 140.94(5) 9_455 .
K K Ga 90.0 17_667 17_666
K K Ga 90.0 17_666 17_666
S K Ga 110.70(2) 19_566 17_666
S K Ga 34.28(2) 27_566 17_666
S K Ga 110.70(2) 25_656 17_666
S K Ga 69.30(2) 3_655 17_666
S K Ga 145.72(2) 11_545 17_666
S K Ga 34.28(2) 17_666 17_666
S K Ga 69.30(2) 9_455 17_666
S K Ga 145.72(2) . 17_666
K K Ga 90.0 17_667 9
K K Ga 90.0 17_666 9
S K Ga 145.72(2) 19_566 9
S K Ga 69.30(2) 27_566 9
S K Ga 34.28(2) 25_656 9
S K Ga 34.28(2) 3_655 9
S K Ga 110.70(2) 11_545 9
S K Ga 110.70(2) 17_666 9
S K Ga 145.72(2) 9_455 9
S K Ga 69.30(2) . 9
Ga K Ga 90.0 17_666 9
loop_
_geom_bond_atom_site_label_1
_geom_bond_atom_site_label_2
_geom_bond_distance
_geom_bond_site_symmetry_2
Ga S 2.2240(12) .
Ga S 2.2240(12) 27
Ga S 2.2240(12) 11_544
Ga S 2.2240(12) 17_656
Ga Ga 2.9330(3) 17_655
Ga Ga 2.9330(3) 17_656
Ga K 3.9455(4) 17_666
Ga K 3.9455(4) 9_444
Ga K 3.9455(4) 9_544
Ga K 3.9455(4) 17_656
S Si 2.2240(12) 17_656
S Ga 2.2240(12) 17_656
S K 3.3442(6) 25_656
S K 3.3442(6) .
S K 3.3442(6) 9_544
S K 3.3442(6) 17_666
K K 2.9330(2) 17_667
K K 2.9330(3) 17_666
K S 3.3442(6) 19_566
K S 3.3442(6) 27_566
K S 3.3442(6) 25_656
K S 3.3442(6) 3_655
K S 3.3442(6) 11_545
K S 3.3442(6) 17_666
K S 3.3442(6) 9_455
K Ga 3.9455(4) 17_666
K Ga 3.9455(4) 9
