#------------------------------------------------------------------------------
#$Date: 2017-07-25 07:12:10 +0300 (Tue, 25 Jul 2017) $
#$Revision: 199011 $
#$URL: file:///home/coder/svn-repositories/cod/cif/7/22/87/7228729.cif $
#------------------------------------------------------------------------------
#
# This file is available in the Crystallography Open Database (COD),
# http://www.crystallography.net/
#
# All data on this site have been placed in the public domain by the
# contributors.
#
data_7228729
loop_
_publ_author_name
'Zaarour, Moussa'
'perez, olivier'
'Boullay, Philippe'
'Martens, Joern'
'Mihailova, Boriana D.'
'Karaghiosoff, Konstantin'
'Palatinus, Luk\'a\<s'
'Mintova, Svetlana'
_publ_section_title
;
 Synthesis of New Framework Cobalt Aluminophosphate by Opening Cobalt
 Methylphosphonate Layered Material
;
_journal_name_full               CrystEngComm
_journal_paper_doi               10.1039/C7CE01129F
_journal_year                    2017
_chemical_formula_sum            'Al4 Co2.323 H24 O40 P8'
_chemical_formula_weight         1156.8
_chemical_name_systematic        ' ?'
_space_group_IT_number           14
_symmetry_cell_setting           monoclinic
_symmetry_Int_Tables_number      14
_symmetry_space_group_name_Hall  '-P 2yn'
_symmetry_space_group_name_H-M   'P 1 21/n 1'
_cell_angle_alpha                90
_cell_angle_beta                 90
_cell_angle_gamma                90
_cell_formula_units_Z            1
_cell_length_a                   8.402(4)
_cell_length_b                   16.569(7)
_cell_length_c                   5.108(11)
_cell_measurement_temperature    293
_cell_volume                     711.1(16)
_diffrn_ambient_temperature      293
_diffrn_measurement_device       'four-circle diffractometer'
_diffrn_measurement_device_type  'Bruker CCD'
_diffrn_radiation_monochromator  graphite
_diffrn_radiation_probe          x-ray
_diffrn_radiation_source         'X-ray tube'
_diffrn_radiation_type           'Mo K\a'
_diffrn_radiation_wavelength     0.71073
_diffrn_reflns_av_R_equivalents  0.0663
_diffrn_reflns_av_unetI/netI     0.0816
_diffrn_reflns_limit_h_max       11
_diffrn_reflns_limit_h_min       -12
_diffrn_reflns_limit_k_max       24
_diffrn_reflns_limit_k_min       -24
_diffrn_reflns_limit_l_max       7
_diffrn_reflns_limit_l_min       -7
_diffrn_reflns_number            10492
_diffrn_reflns_theta_max         32.89
_diffrn_reflns_theta_min         2.46
_exptl_absorpt_coefficient_mu    2.085
_exptl_crystal_density_diffrn    2.701
_exptl_crystal_F_000             579
_refine_diff_density_max         0.84
_refine_diff_density_min         -1.21
_refine_ls_extinction_coef       0
_refine_ls_extinction_method
'B-C type 1 Gaussian isotropic (Becker & Coppens, 1974)'
_refine_ls_goodness_of_fit_gt    1.79
_refine_ls_goodness_of_fit_ref   1.54
_refine_ls_hydrogen_treatment    constr
_refine_ls_number_constraints    0
_refine_ls_number_parameters     132
_refine_ls_number_reflns         2499
_refine_ls_number_restraints     0
_refine_ls_R_factor_all          0.0869
_refine_ls_R_factor_gt           0.0580
_refine_ls_shift/su_max          0.0095
_refine_ls_shift/su_mean         0.0008
_refine_ls_structure_factor_coef F
_refine_ls_weighting_details     w=1/(\s^2^(F)+0.0001F^2^)
_refine_ls_weighting_scheme      sigma
_refine_ls_wR_factor_gt          0.0651
_refine_ls_wR_factor_ref         0.0681
_reflns_number_gt                1721
_reflns_number_total             2499
_reflns_threshold_expression     I>3\s(I)
_cod_data_source_file            c7ce01129f2.cif
_cod_data_source_block           I
_cod_depositor_comments
;
The following automatic conversions were performed:

'_diffrn_radiation_probe' value 'X-ray' changed to 'x-ray' according
to
/home/data/users/saulius/crontab/automatic-downloads/rss-feeds/RSC/lib/dictionaries/cif_core.dic
dictionary named 'cif_core.dic' version 2.4.2 from 2011-04-26.

Automatic conversion script
Id: cif_fix_values 4973 2017-02-22 13:04:09Z antanas 
;
_cod_original_cell_volume        711.2(16)
_cod_original_sg_symbol_Hall     '-P 2yabc'
_cod_database_code               7228729
loop_
_space_group_symop_id
_space_group_symop_operation_xyz
1 x,y,z
2 -x+1/2,y+1/2,-z+1/2
3 -x,-y,-z
4 x+1/2,-y+1/2,z+1/2
loop_
_atom_site_label
_atom_site_type_symbol
_atom_site_fract_x
_atom_site_fract_y
_atom_site_fract_z
_atom_site_adp_type
_atom_site_U_iso_or_equiv
_atom_site_site_symmetry_multiplicity
_atom_site_occupancy
_atom_site_calc_flag
Co1 Co 0.5 0 0 Uani 0.0292(3) 2 1 d
P4 P 0.80995(14) -0.08670(6) -0.2389(3) Uani 0.0156(3) 4 1 d
Al1 Al 0.63583(15) 0.29195(7) 0.2465(3) Uani 0.0131(3) 4 1 d
P2 P 0.48742(13) -0.19170(6) 0.2474(2) Uani 0.0132(3) 4 1 d
Co2 Co 0.5 0 -0.5 Uani 0.0109(15) 2 0.162(4) d
O1 O 0.5124(4) -0.09841(17) 0.2747(6) Uani 0.0212(9) 4 1 d
O2 O 0.6905(5) 0.05493(14) 0.2080(7) Uani 0.0356(13) 4 1 d
O3 O 0.9260(6) -0.0112(2) -0.2600(9) Uani 0.0419(14) 4 1 d
O4 O 0.4066(4) -0.20174(16) -0.0198(6) Uani 0.0164(9) 4 1 d
O5 O 0.3836(4) -0.21852(16) 0.4712(6) Uani 0.0151(9) 4 1 d
O6 O 0.6403(5) -0.0560(2) -0.2724(7) Uani 0.0313(11) 4 1 d
O7 O 0.8533(4) -0.14202(18) -0.4570(6) Uani 0.0200(10) 4 1 d
O8 O 0.6472(4) -0.23490(17) 0.2624(7) Uani 0.0169(8) 4 1 d
O9 O 0.0897(3) 0.81494(16) 0.2375(7) Uani 0.0227(10) 4 1 d
O10 O 0.8342(4) -0.12062(18) 0.0310(6) Uani 0.0206(10) 4 1 d
H1o9 H 0.148005 0.787321 0.145143 Uiso 0.0272 4 1 d
H2o9 H 0.126898 0.852296 0.323133 Uiso 0.0272 4 1 d
H1-o2 H 0.777804 0.032862 0.213625 Uiso 0.0428 4 1 d
H2-o2 H 0.676709 0.098182 0.282648 Uiso 0.0428 4 1 d
H1-o1 H 0.525451 -0.049566 0.28893 Uiso 0.0254 4 1 d
H1o3 H 0.985924 0.027726 -0.270899 Uiso 0.0502 4 1 d
loop_
_atom_site_aniso_label
_atom_site_aniso_type_symbol
_atom_site_aniso_U_11
_atom_site_aniso_U_22
_atom_site_aniso_U_33
_atom_site_aniso_U_12
_atom_site_aniso_U_13
_atom_site_aniso_U_23
Co1 Co 0.0221(6) 0.0196(4) 0.0457(7) 0.0053(5) 0.0109(7) 0.0087(4)
P4 P 0.0164(6) 0.0135(5) 0.0167(5) 0.0000(4) 0.0037(7) 0.0005(5)
Al1 Al 0.0108(6) 0.0150(6) 0.0137(5) 0.0000(5) 0.0031(8) 0.0007(6)
P2 P 0.0107(5) 0.0154(5) 0.0134(4) -0.0018(4) 0.0028(7) -0.0013(5)
Co2 Co 0.012(3) 0.007(2) 0.014(3) 0.002(2) -0.002(3) -0.0060(19)
O1 O 0.0216(17) 0.0118(13) 0.0302(17) -0.0052(13) 0.0025(19) -0.0048(13)
O2 O 0.035(2) 0.0193(17) 0.053(3) 0.0075(17) -0.006(2) -0.0037(19)
O3 O 0.050(3) 0.0299(19) 0.046(2) -0.0253(19) 0.000(3) -0.001(2)
O4 O 0.0179(19) 0.0169(14) 0.0144(15) -0.0014(14) -0.0001(14) 0.0016(12)
O5 O 0.0131(18) 0.0171(14) 0.0152(15) 0.0005(13) 0.0037(13) 0.0015(12)
O6 O 0.0230(19) 0.0336(18) 0.037(2) 0.0136(16) 0.001(2) -0.001(2)
O7 O 0.021(2) 0.0194(15) 0.0191(15) 0.0033(15) -0.0008(15) -0.0024(13)
O8 O 0.0115(15) 0.0159(13) 0.0233(14) -0.0010(12) 0.0020(18) 0.0015(14)
O9 O 0.0156(16) 0.0279(17) 0.0245(17) -0.0001(14) -0.0020(18) -0.0099(17)
O10 O 0.022(2) 0.0208(15) 0.0194(16) 0.0048(15) 0.0009(17) -0.0007(13)
loop_
_atom_type_symbol
_atom_type_scat_dispersion_real
_atom_type_scat_dispersion_imag
_atom_type_scat_source
Al 0.0645 0.0514 'International Tables Vol C tables 4.2.6.8 and 6.1.1.1'
Co 0.3494 0.9721 'International Tables Vol C tables 4.2.6.8 and 6.1.1.1'
H 0.0000 0.0000 'International Tables Vol C tables 4.2.6.8 and 6.1.1.1'
O 0.0106 0.0060 'International Tables Vol C tables 4.2.6.8 and 6.1.1.1'
P 0.1023 0.0942 'International Tables Vol C tables 4.2.6.8 and 6.1.1.1'
loop_
_geom_bond_atom_site_label_1
_geom_bond_atom_site_label_2
_geom_bond_site_symmetry_2
_geom_bond_distance
Co1 Co2 . 2.554(11)
Co1 Co2 1_556 2.554(11)
Co1 O1 . 2.154(5)
Co1 O1 3_655 2.154(5)
Co1 O2 . 2.126(5)
Co1 O2 3_655 2.126(5)
Co1 O6 . 2.046(6)
Co1 O6 3_655 2.046(6)
Co1 H1-o2 . 2.6336
Co1 H1-o2 3_655 2.6336
Co1 H2-o2 . 2.6336
Co1 H2-o2 3_655 2.6336
Co1 H1-o1 . 1.7026
Co1 H1-o1 3_655 1.7026
P4 O3 . 1.590(4)
P4 O6 . 1.523(4)
P4 O7 . 1.488(5)
P4 O10 . 1.503(7)
P4 H1o3 . 2.4098
Al1 O4 3_655 1.924(4)
Al1 O5 3_656 1.894(6)
Al1 O7 2_654 1.842(6)
Al1 O8 2_655 1.877(4)
Al1 O9 2_545 1.934(3)
Al1 O10 2_655 1.858(5)
Al1 H1o9 2_545 2.4494
Al1 H2o9 2_545 2.4494
P2 O1 . 1.566(3)
P2 O4 . 1.534(6)
P2 O5 . 1.505(5)
P2 O8 . 1.524(3)
P2 H1o9 1_545 2.9201
P2 H1o9 4_555 2.9084
P2 H1-o1 . 2.386
Co2 O1 1_554 1.999(4)
Co2 O1 3_655 1.999(4)
Co2 O2 1_554 2.370(6)
Co2 O2 3_655 2.370(6)
Co2 O6 . 1.898(5)
Co2 O6 3_654 1.898(5)
Co2 H1-o2 1_554 2.808
Co2 H1-o2 3_655 2.808
Co2 H2-o2 1_554 2.4665
Co2 H2-o2 3_655 2.4665
Co2 H1-o1 1_554 1.3721
Co2 H1-o1 3_655 1.3721
O1 O2 . 2.968(5)
O1 O4 . 2.446(6)
O1 O5 . 2.478(5)
O1 O6 1_556 2.646(10)
O1 O6 3_655 2.862(5)
O1 O8 . 2.530(4)
O1 O10 . 3.000(6)
O1 H2-o2 3_656 2.7637
O1 H1-o1 . 0.82
O2 O4 3_655 2.740(5)
O2 O6 3_655 2.799(6)
O2 H1-o2 . 0.82
O2 H2-o2 . 0.82
O2 H1-o1 . 2.2565
O3 O3 3_754 2.774(12)
O3 O3 3_755 2.956(12)
O3 O6 . 2.514(6)
O3 O7 . 2.466(5)
O3 O10 . 2.468(7)
O3 H2o9 3_665 2.6897
O3 H1-o2 . 2.8175
O3 H1-o2 3_755 2.5252
O3 H1o3 . 0.82
O3 H1o3 3_754 2.5228
O3 H1o3 3_755 2.8244
O4 O5 1_554 2.622(12)
O4 O5 . 2.531(12)
O4 O7 4_445 2.647(5)
O4 O8 . 2.543(6)
O4 O8 4_444 2.663(5)
O4 O9 1_545 2.982(6)
O4 O9 4_554 2.724(5)
O4 H1o9 1_545 2.3373
O4 H2-o2 3_655 2.2886
O5 O8 . 2.474(5)
O5 O8 4_445 2.598(6)
O5 O9 1_545 2.798(5)
O5 O9 4_555 2.721(5)
O5 O10 4_445 2.715(5)
O5 H1o9 1_545 2.5886
O5 H1o9 4_555 2.6506
O5 H2o9 1_545 2.569
O5 H2-o2 3_656 2.4111
O6 O7 . 2.475(5)
O6 O10 . 2.491(7)
O6 H2-o2 3_655 2.7538
O6 H1-o1 1_554 2.4422
O6 H1-o1 3_655 2.2374
O7 O8 1_554 2.725(6)
O7 O9 1_644 2.624(6)
O7 O10 1_554 2.644(12)
O7 O10 . 2.523(12)
O7 H2o9 1_644 2.5599
O7 H1o3 3_754 2.7096
O8 O9 4_555 2.808(10)
O8 O10 . 2.730(5)
O8 H1o9 4_555 2.1395
O8 H2o9 4_554 2.9745
O9 O10 1_465 2.619(5)
O9 H1o9 . 0.82
O9 H2o9 . 0.82
O9 H1o3 3_665 2.6886
O10 H2o9 1_645 2.9112
O10 H1-o2 . 2.7499
O10 H1o3 3_755 2.4808
H1o9 H2o9 . 1.4203
H2o9 H2-o2 3_666 2.7298
H2o9 H1o3 3_665 2.2185
H1-o2 H2-o2 . 1.4203
H1-o2 H1-o1 . 2.5513
H1-o2 H1o3 3_755 2.2438
H2-o2 H1-o1 . 2.7585
H2-o2 H1-o1 3_656 2.8851
H1-o1 H1-o1 3_656 2.7443
H1o3 H1o3 3_754 2.5256
H1o3 H1o3 3_755 2.9258
loop_
_geom_hbond_atom_site_label_D
_geom_hbond_atom_site_label_H
_geom_hbond_atom_site_label_A
_geom_hbond_site_symmetry_D
_geom_hbond_site_symmetry_A
_geom_hbond_distance_DH
_geom_hbond_distance_HA
_geom_hbond_distance_DA
_geom_hbond_angle_DHA
O9 H1o9 O4 . 1_565 0.82 2.34 2.982(6) 136.05
O9 H1o9 O8 . 4_454 0.82 2.14 2.808(10) 138.64
O2 H2-o2 O4 . 3_655 0.82 2.29 2.740(5) 115.20
O2 H2-o2 O5 . 3_656 0.82 2.41 3.228(6) 174.23
Co2 H1-o1 Co1 1_556 . 1.37 1.70 2.5542 111.90
Co2 H1-o1 P2 1_556 . 1.37 2.39 3.430(3) 129.77
Co2 H1-o1 O1 1_556 . 1.37 0.82 1.999(4) 129.77
O1 H1-o1 Co1 . . 0.82 1.70 2.154(5) 112.47
O1 H1-o1 Co2 . 1_556 0.82 1.37 1.999(4) 129.77
O1 H1-o1 O2 . . 0.82 2.26 2.968(5) 145.42
O1 H1-o1 O6 . 1_556 0.82 2.44 2.646(10) 95.23
O1 H1-o1 O6 . 3_655 0.82 2.24 2.862(5) 133.24
O3 H1o3 O10 . 3_755 0.82 2.48 3.193(6) 145.93
loop_
_refln_index_h
_refln_index_k
_refln_index_l
_refln_F_squared_calc
_refln_F_squared_meas
_refln_F_squared_sigma
_refln_observed_status
2 0 0 6068.71 5867.96 305.76 o
4 0 0 1491.91 2154.47 134.63 o
6 0 0 10479.30 9471.04 930.77 o
8 0 0 2215.35 1972.42 205.51 o
10 0 0 947.64 922.84 116.52 o
12 0 0 220.99 110.50 57.47 <
1 1 0 3646.03 3962.19 145.34 o
2 1 0 8961.60 10250.60 427.35 o
3 1 0 11305.10 11848.50 476.35 o
4 1 0 717.98 767.91 38.54 o
5 1 0 2146.88 2191.14 132.51 o
6 1 0 35.77 44.47 15.36 <
7 1 0 2282.46 2156.13 156.18 o
8 1 0 232.54 197.58 27.99 o
9 1 0 1233.61 1154.60 92.44 o
10 1 0 296.93 276.69 39.95 o
11 1 0 76.46 59.96 35.51 <
12 1 0 171.97 119.60 35.42 o
0 2 0 164.11 395.29 16.36 o
1 2 0 5871.24 6762.52 214.65 o
2 2 0 21.13 28.45 4.61 o
3 2 0 311.94 315.43 17.19 o
4 2 0 8372.11 8645.33 408.37 o
5 2 0 3429.56 3685.75 220.42 o
6 2 0 641.85 609.03 42.32 o
7 2 0 698.64 651.34 55.73 o
8 2 0 808.90 788.50 66.94 o
9 2 0 23.76 47.46 25.37 <
10 2 0 243.74 230.55 36.88 o
11 2 0 76.18 86.29 35.75 <
12 2 0 53.72 34.80 34.88 <
1 3 0 772.95 724.63 24.04 o
2 3 0 354.93 375.98 15.12 o
3 3 0 3431.65 3715.94 176.15 o
4 3 0 5629.85 5928.71 310.24 o
5 3 0 334.03 407.08 30.11 o
6 3 0 1739.18 1787.42 110.09 o
7 3 0 913.11 834.55 57.02 o
8 3 0 19.48 21.39 19.77 <
9 3 0 20.24 32.10 25.54 <
10 3 0 1090.21 894.48 78.40 o
11 3 0 30.07 12.96 19.93 <
12 3 0 11.79 -8.31 53.61 <
0 4 0 4883.06 5989.67 256.01 o
1 4 0 1445.34 1660.10 53.44 o
2 4 0 5979.86 5847.45 191.60 o
3 4 0 2658.04 3036.90 139.28 o
4 4 0 17.17 21.93 5.15 o
5 4 0 1097.90 1154.47 72.55 o
6 4 0 6.87 22.18 13.12 <
7 4 0 139.69 123.87 18.69 o
8 4 0 1761.80 1817.28 135.50 o
9 4 0 304.66 284.87 27.49 o
10 4 0 28.23 16.11 17.94 <
11 4 0 393.68 292.97 35.75 o
12 4 0 15.66 39.45 54.61 <
1 5 0 4793.89 4608.09 147.92 o
2 5 0 111.73 169.05 6.44 o
3 5 0 547.61 455.05 23.01 o
4 5 0 108.97 124.58 9.84 o
5 5 0 6816.67 7191.03 446.66 o
6 5 0 448.96 411.82 26.54 o
7 5 0 593.53 526.47 34.26 o
8 5 0 651.07 588.14 38.29 o
9 5 0 429.48 378.93 39.53 o
10 5 0 36.70 34.80 21.10 <
11 5 0 1299.64 1071.17 94.97 o
12 5 0 138.00 93.85 51.49 <
0 6 0 264.64 224.82 11.75 o
1 6 0 1569.56 1899.66 54.90 o
2 6 0 11459.50 11512.50 364.60 o
3 6 0 182.17 305.39 18.40 o
4 6 0 1868.14 1908.55 107.68 o
5 6 0 603.73 685.47 46.38 o
6 6 0 21.25 28.45 10.76 <
7 6 0 232.33 245.05 22.96 o
8 6 0 1336.03 1395.95 93.85 o
9 6 0 257.71 245.67 31.89 o
10 6 0 125.72 107.06 26.04 o
11 6 0 243.20 222.37 56.39 o
12 6 0 337.22 240.35 62.29 o
1 7 0 976.81 1275.23 38.45 o
2 7 0 48.85 49.17 5.36 o
3 7 0 854.28 816.82 33.93 o
4 7 0 904.09 1062.87 69.22 o
5 7 0 1469.77 1528.50 87.08 o
6 7 0 26.87 43.77 12.17 o
7 7 0 34.36 76.20 15.45 o
8 7 0 383.16 393.38 32.97 o
9 7 0 22.31 19.56 19.60 <
10 7 0 488.37 469.25 49.79 o
11 7 0 17.91 1.12 44.52 <
12 7 0 5.92 -29.98 43.44 <
0 8 0 590.38 718.36 35.59 o
1 8 0 1312.95 1328.10 40.24 o
2 8 0 263.34 283.54 13.29 o
3 8 0 591.65 677.21 29.07 o
4 8 0 362.23 365.52 24.83 o
5 8 0 524.08 516.38 36.79 o
6 8 0 171.80 178.52 18.94 o
7 8 0 641.91 702.79 49.46 o
8 8 0 7.13 1.33 15.07 <
9 8 0 0.01 8.64 17.07 <
10 8 0 123.36 159.59 49.62 o
11 8 0 18.79 17.19 41.69 <
12 8 0 41.93 20.68 48.00 <
1 9 0 875.51 933.05 27.95 o
2 9 0 1128.87 1040.44 44.77 o
3 9 0 5032.71 5352.83 232.09 o
4 9 0 703.09 690.87 42.56 o
5 9 0 137.44 109.50 13.79 o
6 9 0 56.20 58.88 12.46 o
7 9 0 187.11 181.51 20.14 o
8 9 0 60.96 102.82 18.60 o
9 9 0 543.54 540.55 56.10 o
10 9 0 103.35 36.54 42.94 <
11 9 0 209.93 149.20 52.74 <
12 9 0 142.83 46.34 49.13 <
0 10 0 14180.20 15789.60 743.94 o
1 10 0 199.63 215.98 8.39 o
2 10 0 6816.34 7147.06 274.95 o
3 10 0 593.24 593.95 27.78 o
4 10 0 1687.10 1728.49 90.11 o
5 10 0 37.02 55.31 13.29 o
6 10 0 1057.01 1200.57 79.27 o
7 10 0 2.59 6.56 12.67 <
8 10 0 951.33 980.27 82.89 o
9 10 0 368.58 371.74 44.93 o
10 10 0 1285.53 1247.08 145.09 o
11 10 0 101.86 69.97 48.34 <
1 11 0 1152.43 1085.37 35.13 o
2 11 0 2931.27 3140.10 121.96 o
3 11 0 8290.35 9261.95 376.48 o
4 11 0 206.56 244.18 20.64 o
5 11 0 1390.37 1451.72 84.96 o
6 11 0 767.61 816.61 56.72 o
7 11 0 2459.84 2826.57 215.02 o
8 11 0 226.62 285.54 36.29 o
9 11 0 605.65 673.39 64.70 o
10 11 0 253.35 303.52 60.38 o
11 11 0 28.58 61.71 52.45 <
0 12 0 3.78 17.94 7.23 <
1 12 0 43.79 50.45 6.02 o
2 12 0 331.11 396.83 21.55 o
3 12 0 483.66 543.91 27.16 o
4 12 0 3178.84 3398.93 190.11 o
5 12 0 20.72 7.93 17.23 <
6 12 0 213.80 318.22 34.59 o
7 12 0 1.93 37.62 20.76 <
8 12 0 241.71 249.45 35.59 o
9 12 0 335.18 376.52 44.47 o
10 12 0 487.12 419.62 71.26 o
11 12 0 1.43 -13.50 43.56 <
1 13 0 14.17 24.58 5.32 o
2 13 0 1083.63 1125.16 56.68 o
3 13 0 6.60 18.40 7.68 <
4 13 0 5.84 14.33 9.18 <
5 13 0 233.20 296.33 32.22 o
6 13 0 942.34 991.82 81.64 o
7 13 0 272.88 307.42 36.96 o
8 13 0 8.16 34.84 23.96 <
9 13 0 10.19 40.45 25.50 <
10 13 0 97.29 111.58 50.50 <
11 13 0 77.82 52.24 48.63 <
0 14 0 2397.25 2569.98 139.11 o
1 14 0 574.53 631.57 28.28 o
2 14 0 12.18 28.11 9.34 o
3 14 0 1.41 3.74 8.85 <
4 14 0 340.33 260.08 22.88 o
5 14 0 280.61 344.71 35.80 o
6 14 0 145.89 194.01 28.53 o
7 14 0 443.37 580.25 55.56 o
8 14 0 345.57 323.57 40.86 o
9 14 0 302.74 327.89 42.40 o
10 14 0 19.25 -4.82 40.86 <
1 15 0 417.51 429.67 22.13 o
2 15 0 1918.85 1678.20 84.13 o
3 15 0 1865.37 1885.17 125.87 o
4 15 0 87.09 114.40 14.99 o
5 15 0 1178.81 1351.10 106.81 o
6 15 0 140.22 206.22 29.90 o
7 15 0 1.74 30.02 22.22 <
8 15 0 32.23 32.64 25.08 <
9 15 0 334.93 391.68 46.59 o
10 15 0 2.61 -41.36 40.53 <
0 16 0 600.47 661.51 40.28 o
1 16 0 434.25 510.69 28.49 o
2 16 0 1686.94 1691.74 104.40 o
3 16 0 26.86 18.27 14.08 <
4 16 0 911.94 958.09 65.32 o
5 16 0 192.96 229.35 29.23 o
6 16 0 204.07 259.46 33.47 o
7 16 0 5.63 -10.13 21.80 <
8 16 0 304.63 475.43 51.87 o
9 16 0 65.65 107.64 30.36 o
1 17 0 1057.32 936.29 54.07 o
2 17 0 13.60 5.90 16.86 <
3 17 0 608.41 596.07 37.12 o
4 17 0 40.52 30.23 12.75 <
5 17 0 959.78 1063.24 87.37 o
6 17 0 351.36 386.94 41.73 o
7 17 0 540.42 566.96 56.10 o
8 17 0 212.75 288.52 39.99 o
9 17 0 3.85 -7.56 26.00 <
0 18 0 65.83 78.03 16.32 o
1 18 0 62.11 77.16 12.04 o
2 18 0 62.21 53.94 17.03 o
3 18 0 0.68 -6.77 13.29 <
4 18 0 10.87 -2.08 12.17 <
5 18 0 1.34 4.90 17.44 <
6 18 0 6.82 48.13 22.01 <
7 18 0 47.15 50.21 24.71 <
8 18 0 147.16 204.43 35.63 o
9 18 0 81.68 173.95 49.46 o
1 19 0 218.16 178.15 17.11 o
2 19 0 161.26 177.69 20.43 o
3 19 0 27.91 8.60 14.87 <
4 19 0 128.72 127.32 17.27 o
5 19 0 347.93 406.63 42.48 o
6 19 0 4.18 19.85 20.89 <
7 19 0 73.93 97.96 26.99 o
8 19 0 6.63 32.31 42.23 <
0 20 0 1365.97 1675.17 202.90 o
1 20 0 132.64 96.05 30.15 o
2 20 0 683.45 748.64 58.05 o
3 20 0 263.92 265.89 29.69 o
4 20 0 276.11 270.63 28.45 o
5 20 0 54.32 45.10 32.47 <
6 20 0 387.16 422.82 62.62 o
7 20 0 67.74 77.82 39.24 <
1 21 0 1122.01 500.27 82.72 o
2 21 0 28.05 -3.78 18.98 <
3 21 0 623.77 625.64 52.66 o
4 21 0 193.86 100.41 20.10 o
5 21 0 700.87 792.74 97.84 o
6 21 0 78.12 75.87 36.88 <
7 21 0 890.44 828.82 105.27 o
0 22 0 568.58 541.88 51.53 o
1 22 0 68.77 50.95 27.41 <
2 22 0 64.47 25.54 27.37 <
3 22 0 28.41 34.80 28.94 <
4 22 0 347.42 91.40 22.76 o
6 22 0 316.84 319.09 61.13 o
1 23 0 33.47 12.75 31.19 <
2 23 0 122.29 56.85 29.94 <
3 23 0 249.97 277.60 43.98 o
4 23 0 8.70 8.26 31.89 <
1 24 0 1.36 -21.43 24.42 <
2 24 0 68.97 49.75 26.66 <
3 24 0 0.23 32.22 47.84 <
-11 0 1 221.18 146.09 53.57 <
-9 0 1 990.27 879.07 94.31 o
-7 0 1 330.26 259.87 53.20 o
-5 0 1 1270.88 1332.87 152.82 o
-3 0 1 2050.95 1806.94 117.93 o
1 0 1 1967.28 1760.97 84.17 o
3 0 1 2703.78 2014.28 147.04 o
5 0 1 1618.09 1543.28 113.16 o
7 0 1 429.59 487.23 39.57 o
9 0 1 778.08 608.40 87.37 o
11 0 1 284.95 252.90 32.93 o
-12 1 1 262.25 179.85 56.89 o
-11 1 1 336.16 308.00 62.16 o
-10 1 1 363.26 292.43 45.93 o
-9 1 1 53.21 43.06 24.58 <
-8 1 1 184.27 179.64 30.52 o
-7 1 1 148.58 148.12 27.32 o
-6 1 1 2181.06 1953.11 122.00 o
-5 1 1 4761.72 4035.65 300.07 o
-4 1 1 1010.53 1004.31 50.00 o
-3 1 1 3146.91 3063.52 106.14 o
-2 1 1 2865.30 2546.89 85.50 o
-1 1 1 1019.40 1050.41 35.63 o
0 1 1 2179.49 2128.64 75.29 o
1 1 1 953.90 1016.36 39.12 o
2 1 1 2167.50 2178.18 95.59 o
3 1 1 2720.98 2855.43 109.55 o
4 1 1 1291.81 1172.91 53.53 o
5 1 1 4449.13 4396.68 225.07 o
6 1 1 1640.21 1549.18 89.41 o
7 1 1 166.26 173.75 17.15 o
8 1 1 224.76 230.97 23.75 o
9 1 1 58.31 69.60 16.74 o
10 1 1 495.56 528.26 37.79 o
11 1 1 365.55 285.54 32.97 o
12 1 1 190.90 160.71 42.32 o
-12 2 1 95.34 101.37 49.83 <
-11 2 1 199.48 131.51 53.28 <
-10 2 1 48.69 60.88 41.57 <
-9 2 1 208.85 203.65 36.42 o
-8 2 1 1803.29 1468.45 117.15 o
-7 2 1 507.65 465.97 40.70 o
-6 2 1 161.78 176.07 22.84 o
-5 2 1 3526.41 3178.76 213.49 o
-4 2 1 322.38 358.41 29.40 o
-3 2 1 995.43 1040.86 47.51 o
-2 2 1 9522.89 9177.15 311.03 o
-1 2 1 3629.81 4005.59 124.08 o
0 2 1 583.60 559.53 19.39 o
1 2 1 4917.63 4697.79 245.34 o
2 2 1 8987.83 9025.21 347.20 o
3 2 1 1389.85 1306.21 45.68 o
4 2 1 375.69 394.62 17.98 o
5 2 1 2725.44 2960.16 145.09 o
6 2 1 130.74 131.39 11.79 o
7 2 1 403.33 401.31 26.95 o
8 2 1 1805.17 1554.25 85.50 o
9 2 1 268.60 288.57 23.34 o
10 2 1 43.12 28.65 19.43 <
11 2 1 165.77 160.58 27.53 o
12 2 1 72.64 105.89 38.87 <
-12 3 1 31.96 20.35 49.54 <
-11 3 1 69.59 19.68 40.65 <
-10 3 1 381.51 356.55 65.90 o
-9 3 1 49.56 88.37 41.65 <
-8 3 1 945.54 878.45 93.72 o
-7 3 1 340.04 355.55 48.79 o
-6 3 1 859.45 732.90 79.19 o
-5 3 1 58.75 62.50 16.07 o
-4 3 1 583.12 493.42 35.17 o
-3 3 1 20.44 11.21 6.06 <
-2 3 1 1008.71 938.70 26.91 o
-1 3 1 168.03 181.26 6.15 o
0 3 1 1390.84 1240.06 42.15 o
1 3 1 174.42 159.71 6.73 o
2 3 1 782.67 819.19 31.89 o
3 3 1 28.42 20.89 3.45 o
4 3 1 486.27 468.29 21.47 o
5 3 1 66.52 71.76 8.47 o
6 3 1 700.61 671.81 39.78 o
7 3 1 270.63 259.54 20.43 o
8 3 1 677.47 713.71 51.99 o
9 3 1 59.63 55.48 15.20 o
10 3 1 322.14 339.19 33.10 o
11 3 1 49.73 38.25 21.72 <
12 3 1 31.97 -48.96 33.43 <
-12 4 1 0.10 -68.98 40.86 <
-11 4 1 179.23 159.05 29.77 o
-10 4 1 164.60 152.03 53.07 <
-9 4 1 31.41 53.98 34.13 <
-8 4 1 148.93 154.60 40.74 o
-7 4 1 134.97 127.49 31.19 o
-6 4 1 1813.24 1730.82 180.81 o
-5 4 1 2149.94 2423.19 215.02 o
-4 4 1 933.01 935.55 95.34 o
-3 4 1 1308.61 1231.50 53.28 o
-2 4 1 543.73 549.27 18.69 o
-1 4 1 3549.62 3397.64 92.11 o
0 4 1 34785.30 38663.10 1522.48 o
1 4 1 2576.77 2977.19 159.67 o
2 4 1 392.54 428.84 16.90 o
3 4 1 1612.13 1413.81 57.60 o
4 4 1 1248.27 1210.28 53.40 o
5 4 1 3006.71 2769.14 131.97 o
6 4 1 1678.09 1747.01 95.30 o
7 4 1 97.06 107.68 13.91 o
8 4 1 201.80 202.07 19.60 o
9 4 1 24.44 22.26 14.70 <
10 4 1 203.78 187.91 25.17 o
11 4 1 176.61 199.87 39.91 o
12 4 1 0.14 12.62 34.55 <
-12 5 1 223.12 178.69 57.22 o
-11 5 1 25.40 29.03 25.29 <
-10 5 1 427.01 462.56 50.37 o
-9 5 1 62.74 63.29 14.04 o
-8 5 1 672.57 577.01 49.91 o
-7 5 1 280.72 288.48 50.37 o
-6 5 1 281.76 237.90 19.35 o
-5 5 1 66.21 74.75 11.50 o
-4 5 1 3351.40 3313.34 129.81 o
-3 5 1 154.58 148.41 7.93 o
-2 5 1 2551.20 2843.56 101.70 o
-1 5 1 23.66 38.41 3.74 o
0 5 1 741.53 623.97 21.14 o
1 5 1 17.10 33.30 4.44 o
2 5 1 3306.79 3210.11 122.42 o
3 5 1 161.22 169.80 7.10 o
4 5 1 2428.66 2894.88 152.03 o
5 5 1 92.65 109.92 9.22 o
6 5 1 351.08 321.83 19.97 o
7 5 1 366.92 352.93 25.04 o
8 5 1 871.67 836.22 77.07 o
9 5 1 46.35 51.74 15.82 o
10 5 1 567.38 543.21 37.21 o
11 5 1 30.31 28.99 31.60 <
12 5 1 296.61 241.52 56.31 o
-12 6 1 2.44 -48.25 38.54 <
-11 6 1 47.64 43.98 27.08 <
-10 6 1 4.36 28.11 20.72 <
-9 6 1 404.70 388.60 44.97 o
-8 6 1 844.33 758.73 71.09 o
-7 6 1 627.65 622.85 49.46 o
-6 6 1 357.92 336.61 31.27 o
-5 6 1 464.88 593.45 46.72 o
-4 6 1 269.01 345.87 19.93 o
-3 6 1 1834.19 1994.09 75.87 o
-2 6 1 628.02 523.90 18.94 o
-1 6 1 3059.13 3113.44 96.92 o
0 6 1 2099.51 1942.89 65.24 o
1 6 1 3114.30 3211.44 111.12 o
2 6 1 613.98 552.42 20.64 o
3 6 1 2163.25 2288.31 89.16 o
4 6 1 365.08 432.66 19.10 o
5 6 1 649.86 638.09 33.22 o
6 6 1 324.92 313.61 22.67 o
7 6 1 501.07 506.83 34.76 o
8 6 1 894.83 936.67 53.11 o
9 6 1 529.71 561.89 34.80 o
10 6 1 5.79 7.56 22.01 <
11 6 1 36.79 10.71 44.39 <
12 6 1 2.49 -0.75 47.63 <
-12 7 1 90.79 114.45 51.20 <
-11 7 1 1.58 42.40 49.67 <
-10 7 1 728.92 667.74 60.67 o
-9 7 1 80.45 54.36 21.80 <
-8 7 1 635.51 563.26 49.54 o
-7 7 1 42.70 68.06 17.52 o
-6 7 1 1359.14 1433.53 127.44 o
-5 7 1 64.89 62.91 12.50 o
-4 7 1 2097.61 2080.05 78.48 o
-3 7 1 4554.42 4805.55 179.31 o
-2 7 1 1310.83 1122.42 43.10 o
-1 7 1 1206.16 1484.07 72.01 o
0 7 1 438.62 416.30 14.78 o
1 7 1 1687.00 1735.14 78.78 o
2 7 1 958.71 1010.96 35.80 o
3 7 1 4095.14 4897.20 189.28 o
4 7 1 1535.99 1837.58 91.73 o
5 7 1 89.99 75.12 11.46 o
6 7 1 1795.94 1761.88 94.39 o
7 7 1 33.34 47.01 13.00 o
8 7 1 454.22 514.47 41.57 o
9 7 1 92.96 92.73 19.68 o
10 7 1 592.10 598.73 62.00 o
11 7 1 1.62 -11.75 42.07 <
12 7 1 98.68 59.13 49.91 <
-12 8 1 9.11 78.65 52.41 <
-11 8 1 102.01 35.01 42.98 <
-10 8 1 378.12 327.14 61.83 o
-9 8 1 203.73 193.18 29.57 o
-8 8 1 1421.97 1546.94 120.22 o
-7 8 1 679.64 651.26 69.72 o
-6 8 1 230.61 218.60 26.33 o
-5 8 1 366.31 339.73 21.84 o
-4 8 1 380.53 447.07 21.01 o
-3 8 1 1208.99 1180.01 46.43 o
-2 8 1 1302.86 1512.43 49.83 o
-1 8 1 462.73 434.41 15.49 o
0 8 1 2707.15 3686.50 118.10 o
1 8 1 338.76 342.59 16.11 o
2 8 1 1139.43 1442.62 52.41 o
3 8 1 973.36 1070.71 48.13 o
4 8 1 330.81 378.85 19.68 o
5 8 1 296.21 347.66 24.46 o
6 8 1 206.75 241.89 20.22 o
7 8 1 485.88 509.15 38.99 o
8 8 1 1348.28 1455.46 99.41 o
9 8 1 146.54 225.07 33.72 o
10 8 1 299.90 292.55 41.86 o
11 8 1 96.80 23.92 41.61 <
12 8 1 9.17 60.55 49.25 <
-11 9 1 667.00 475.60 84.84 o
-10 9 1 8.00 22.05 39.87 <
-9 9 1 137.12 97.75 25.58 o
-8 9 1 76.40 82.89 20.60 o
-7 9 1 24.49 24.79 16.32 <
-6 9 1 645.54 679.29 43.40 o
-5 9 1 5249.78 5575.03 213.45 o
-4 9 1 551.46 546.94 24.25 o
-3 9 1 1343.34 1431.58 57.60 o
-2 9 1 350.47 311.95 13.29 o
-1 9 1 206.66 212.20 9.72 o
0 9 1 697.24 642.83 22.09 o
1 9 1 217.71 228.15 9.38 o
2 9 1 347.31 331.05 13.12 o
3 9 1 1217.58 1376.22 59.34 o
4 9 1 422.76 465.97 19.35 o
5 9 1 4894.97 5168.91 303.56 o
6 9 1 495.30 518.46 37.54 o
7 9 1 31.86 26.12 14.49 <
8 9 1 57.35 88.49 24.46 o
9 9 1 188.55 220.09 32.02 o
10 9 1 6.96 15.45 26.83 <
11 9 1 656.66 661.80 66.11 o
-11 10 1 122.19 200.20 55.69 o
-10 10 1 79.57 70.22 41.94 <
-9 10 1 743.71 707.82 87.95 o
-8 10 1 67.33 88.08 24.42 o
-7 10 1 428.06 414.64 43.98 o
-6 10 1 398.41 416.34 30.56 o
-5 10 1 449.36 460.69 25.54 o
-4 10 1 984.65 1002.57 54.52 o
-3 10 1 1405.42 1256.63 48.59 o
-2 10 1 2491.70 2556.03 92.94 o
-1 10 1 537.83 521.20 22.18 o
0 10 1 534.42 440.05 15.57 o
1 10 1 738.69 713.13 22.71 o
2 10 1 2281.64 2542.03 107.93 o
3 10 1 1139.74 1188.77 49.79 o
4 10 1 915.84 1018.39 40.74 o
5 10 1 546.15 549.56 33.97 o
6 10 1 302.09 294.88 28.86 o
7 10 1 463.01 530.79 46.47 o
8 10 1 91.18 121.67 25.46 o
9 10 1 569.41 661.56 63.54 o
10 10 1 56.86 88.82 30.90 <
11 10 1 170.85 164.86 38.20 o
-11 11 1 131.85 12.37 46.80 <
-10 11 1 149.39 128.11 49.87 <
-9 11 1 77.46 67.02 39.41 <
-8 11 1 411.49 347.33 64.20 o
-7 11 1 42.60 43.19 32.18 <
-6 11 1 165.37 156.76 24.33 o
-5 11 1 688.06 488.52 34.51 o
-4 11 1 96.38 103.23 14.24 o
-3 11 1 2217.58 2375.93 97.42 o
-2 11 1 1504.26 1473.35 53.28 o
-1 11 1 149.06 148.21 8.76 o
0 11 1 1649.19 1535.52 48.59 o
1 11 1 204.99 213.86 9.05 o
2 11 1 1087.84 1232.13 55.02 o
3 11 1 2038.53 2438.84 101.74 o
4 11 1 102.74 108.67 7.77 o
5 11 1 498.61 466.26 32.97 o
6 11 1 140.30 175.78 25.70 o
7 11 1 30.53 21.22 19.56 <
8 11 1 573.97 518.04 47.92 o
9 11 1 98.66 98.75 27.45 o
10 11 1 194.67 230.97 38.00 o
11 11 1 110.25 98.96 50.75 <
-11 12 1 14.40 111.87 55.15 <
-10 12 1 208.32 207.55 53.40 o
-9 12 1 205.44 374.86 59.09 o
-8 12 1 375.95 399.40 59.09 o
-7 12 1 258.13 261.03 47.42 o
-6 12 1 297.40 324.94 35.26 o
-5 12 1 825.44 798.55 56.19 o
-4 12 1 549.80 544.37 34.47 o
-3 12 1 130.23 132.30 9.34 o
-2 12 1 1584.22 1475.85 54.15 o
-1 12 1 2007.33 2032.84 73.75 o
0 12 1 1324.80 1348.11 47.63 o
1 12 1 2560.98 2381.04 78.11 o
2 12 1 1166.47 1288.11 50.08 o
3 12 1 145.50 152.28 11.21 o
4 12 1 526.02 582.28 28.65 o
5 12 1 591.16 568.87 46.84 o
6 12 1 379.84 344.88 36.46 o
7 12 1 314.61 267.85 33.35 o
8 12 1 329.04 357.46 41.94 o
9 12 1 160.24 184.59 35.26 o
10 12 1 175.76 212.41 38.25 o
11 12 1 20.02 61.71 52.61 <
-10 13 1 96.61 71.47 44.43 <
-9 13 1 7.98 -1.20 37.58 <
-8 13 1 369.83 417.92 61.00 o
-7 13 1 159.93 170.55 39.99 o
-6 13 1 237.71 279.06 29.53 o
-5 13 1 333.93 359.12 34.34 o
-4 13 1 1034.97 1095.92 65.90 o
-3 13 1 1207.50 1288.15 52.28 o
-2 13 1 1348.42 1237.94 45.55 o
-1 13 1 1571.68 1553.62 53.32 o
0 13 1 49.02 59.01 6.64 o
1 13 1 1685.97 1693.15 55.89 o
2 13 1 989.10 1018.68 44.23 o
3 13 1 1207.65 1204.72 58.01 o
4 13 1 1387.82 1225.40 70.97 o
5 13 1 296.96 300.53 35.17 o
6 13 1 170.04 202.98 29.03 o
7 13 1 153.47 159.09 28.03 o
8 13 1 301.01 362.57 42.81 o
9 13 1 11.04 23.46 25.25 <
10 13 1 69.17 118.76 33.84 o
-10 14 1 224.03 274.28 61.79 o
-9 14 1 99.53 22.22 41.48 <
-8 14 1 28.79 23.17 34.26 <
-7 14 1 126.41 120.76 39.45 o
-6 14 1 164.21 194.30 27.32 o
-5 14 1 193.77 236.53 28.57 o
-4 14 1 230.64 191.81 20.14 o
-3 14 1 231.20 272.50 15.36 o
-2 14 1 387.19 350.23 14.91 o
-1 14 1 532.94 527.67 18.89 o
0 14 1 1450.25 1521.36 55.60 o
1 14 1 470.36 466.30 20.93 o
2 14 1 280.16 257.01 14.95 o
3 14 1 165.49 196.96 18.73 o
4 14 1 243.76 211.87 18.81 o
5 14 1 219.41 253.23 30.77 o
6 14 1 199.84 225.49 29.77 o
7 14 1 152.43 158.63 28.57 o
8 14 1 20.63 -2.53 23.17 <
9 14 1 87.27 108.63 29.69 o
10 14 1 257.40 289.27 44.89 o
-10 15 1 202.94 227.56 59.17 o
-9 15 1 127.00 73.58 46.01 <
-8 15 1 330.25 234.00 54.44 o
-7 15 1 662.99 789.13 101.99 o
-6 15 1 57.63 46.30 19.68 <
-5 15 1 37.19 26.83 16.36 <
-4 15 1 225.44 201.28 16.20 o
-3 15 1 1011.13 934.59 45.93 o
-2 15 1 714.49 862.00 65.82 o
-1 15 1 5.74 14.20 5.86 <
0 15 1 529.48 551.01 24.46 o
1 15 1 5.60 11.05 6.48 <
2 15 1 983.38 1008.01 40.49 o
3 15 1 988.19 1047.79 51.33 o
4 15 1 164.78 208.71 16.11 o
5 15 1 47.13 54.57 19.60 <
6 15 1 42.69 54.81 20.68 <
7 15 1 783.64 855.48 74.37 o
8 15 1 396.71 403.97 44.39 o
9 15 1 147.91 131.26 31.27 o
10 15 1 280.36 199.82 60.17 o
-9 16 1 431.14 521.24 81.72 o
-8 16 1 308.62 312.40 61.87 o
-7 16 1 159.45 162.16 42.81 o
-6 16 1 39.48 42.02 19.73 <
-5 16 1 56.07 94.80 21.10 o
-4 16 1 97.64 53.57 11.05 o
-3 16 1 717.47 896.93 55.31 o
-2 16 1 36.42 63.49 10.59 o
-1 16 1 374.88 386.40 16.74 o
0 16 1 10.15 -6.19 6.48 <
1 16 1 305.68 335.49 19.23 o
2 16 1 46.63 83.76 13.99 o
3 16 1 949.43 907.23 60.46 o
4 16 1 124.72 105.14 15.24 o
5 16 1 77.81 114.40 23.34 o
6 16 1 28.63 45.55 21.80 <
7 16 1 116.10 155.10 28.86 o
8 16 1 390.79 445.04 49.04 o
9 16 1 584.30 543.79 57.89 o
-9 17 1 11.89 36.75 42.94 <
-8 17 1 69.80 54.81 38.41 <
-7 17 1 98.02 139.78 41.44 o
-6 17 1 574.33 684.69 65.03 o
-5 17 1 211.80 294.09 32.18 o
-4 17 1 204.86 201.61 16.53 o
-3 17 1 117.73 134.92 16.40 o
-2 17 1 139.40 171.01 14.91 o
-1 17 1 328.61 367.09 21.30 o
0 17 1 337.20 303.93 16.20 o
1 17 1 268.57 308.46 18.81 o
2 17 1 101.06 136.75 20.97 o
3 17 1 92.34 123.67 22.96 o
4 17 1 149.98 177.94 19.85 o
5 17 1 222.84 244.26 34.43 o
6 17 1 798.14 795.69 66.44 o
7 17 1 131.63 168.22 30.77 o
8 17 1 54.31 81.56 27.99 <
9 17 1 9.56 17.77 26.70 <
-8 18 1 133.81 120.97 44.47 <
-7 18 1 468.77 649.72 75.91 o
-6 18 1 6.57 -52.41 26.78 <
-5 18 1 305.88 303.35 48.59 o
-4 18 1 43.43 20.39 14.58 <
-3 18 1 299.70 227.27 26.95 o
-2 18 1 73.53 63.24 14.82 o
-1 18 1 391.15 374.98 27.12 o
0 18 1 6.41 -4.57 9.30 <
1 18 1 395.40 410.90 24.38 o
2 18 1 96.42 71.55 24.38 <
3 18 1 362.04 326.48 44.60 o
4 18 1 60.23 52.90 15.07 o
5 18 1 262.78 306.01 36.88 o
6 18 1 7.21 4.65 20.43 <
7 18 1 453.38 446.20 51.12 o
8 18 1 178.61 173.21 32.81 o
-8 19 1 15.56 31.52 38.83 <
-7 19 1 51.08 15.24 36.54 <
-6 19 1 289.58 284.12 49.13 o
-5 19 1 819.20 912.46 115.65 o
-4 19 1 318.40 409.82 52.78 o
-3 19 1 105.74 100.87 23.96 o
-2 19 1 537.31 534.78 59.88 o
-1 19 1 465.43 430.17 53.07 o
0 19 1 68.93 99.41 13.99 o
1 19 1 346.64 459.78 33.59 o
2 19 1 674.80 539.18 56.35 o
3 19 1 76.91 104.11 20.80 o
4 19 1 239.09 312.57 31.23 o
5 19 1 976.09 1055.14 86.87 o
6 19 1 236.32 231.51 36.29 o
7 19 1 68.27 45.51 24.50 <
8 19 1 17.59 10.17 24.58 <
-7 20 1 37.86 66.40 46.05 <
-3 20 1 4.50 19.77 32.06 <
-2 20 1 729.07 489.10 62.25 o
-1 20 1 378.16 242.93 39.45 o
0 20 1 6.88 1.74 9.88 <
1 20 1 309.04 270.13 27.37 o
2 20 1 777.47 633.23 61.54 o
3 20 1 6.05 17.52 18.15 <
4 20 1 214.93 213.07 22.96 o
5 20 1 6.31 41.32 23.42 <
6 20 1 3.52 -15.20 21.93 <
7 20 1 34.70 46.88 27.32 <
-4 21 1 170.31 66.69 20.22 o
-2 21 1 523.15 307.83 47.96 o
-1 21 1 73.63 57.89 27.99 <
0 21 1 20.05 29.15 10.13 <
1 21 1 102.77 86.50 15.66 o
2 21 1 397.18 429.96 48.88 o
3 21 1 663.27 573.56 48.13 o
4 21 1 230.34 187.28 29.19 o
5 21 1 64.67 104.52 41.82 <
6 21 1 75.70 15.61 38.95 <
-3 22 1 27.18 5.19 35.92 <
-2 22 1 135.19 61.58 31.19 <
-1 22 1 305.75 178.73 34.84 o
0 22 1 158.29 151.82 14.45 o
1 22 1 362.24 211.45 48.34 o
2 22 1 120.56 136.04 31.52 o
3 22 1 36.51 26.00 20.06 <
4 22 1 296.56 303.47 38.20 o
5 22 1 117.09 109.38 40.57 <
-3 23 1 12.66 1.20 33.59 <
-2 23 1 40.03 19.68 26.83 <
-1 23 1 270.19 182.96 33.18 o
0 23 1 6.69 8.22 13.79 <
1 23 1 223.13 215.94 43.64 o
2 23 1 28.67 23.50 27.20 <
3 23 1 14.71 24.33 20.39 <
4 23 1 154.12 116.15 42.23 <
-2 24 1 60.55 56.10 27.66 <
-1 24 1 25.82 -22.22 41.48 <
0 24 1 285.70 243.51 35.42 o
1 24 1 34.41 29.61 16.40 <
2 24 1 73.74 36.17 39.57 <
3 24 1 206.78 166.52 52.53 o
-6 0 2 879.45 811.59 71.47 o
-4 0 2 133.55 132.76 19.89 o
-2 0 2 331.48 346.20 24.71 o
0 0 2 14083.30 13848.60 724.26 o
2 0 2 248.98 261.99 17.19 o
4 0 2 123.60 133.47 11.63 o
6 0 2 887.92 800.17 52.82 o
8 0 2 114.23 113.24 17.40 o
10 0 2 3.61 -29.48 20.43 <
12 0 2 64.62 45.55 50.70 <
-8 1 2 311.38 285.58 53.15 o
-7 1 2 170.67 173.50 39.95 o
-6 1 2 707.30 668.74 39.28 o
-5 1 2 103.03 95.84 14.66 o
-4 1 2 405.75 376.02 26.54 o
-3 1 2 603.96 624.85 33.14 o
-2 1 2 1866.52 2104.14 79.40 o
-1 1 2 1636.23 1518.45 52.74 o
0 1 2 44.20 54.57 4.90 o
1 1 2 1207.20 1198.70 75.70 o
2 1 2 1995.01 2228.88 81.68 o
3 1 2 534.08 572.73 21.39 o
4 1 2 418.07 388.69 17.19 o
5 1 2 140.58 132.93 8.35 o
6 1 2 763.03 685.18 32.47 o
7 1 2 182.80 183.46 13.16 o
8 1 2 292.03 302.35 18.77 o
9 1 2 129.66 83.59 12.67 o
10 1 2 200.82 162.58 18.65 o
11 1 2 230.93 184.63 39.28 o
12 1 2 59.75 68.14 37.87 <
-9 2 2 69.43 46.01 40.78 <
-8 2 2 2591.75 2077.69 231.14 o
-7 2 2 29.60 6.64 20.31 <
-6 2 2 2567.45 2254.26 111.50 o
-5 2 2 159.81 169.72 15.57 o
-4 2 2 1542.96 1660.18 103.98 o
-3 2 2 82.52 104.65 10.13 o
-2 2 2 3937.24 4107.91 149.08 o
0 2 2 604.57 644.86 22.67 o
1 2 2 827.85 1014.03 35.13 o
2 2 2 3960.48 4143.95 153.11 o
3 2 2 69.15 77.57 4.40 o
4 2 2 1843.03 1919.06 73.29 o
5 2 2 150.24 172.87 9.97 o
6 2 2 2309.22 2239.27 100.20 o
7 2 2 21.64 19.48 8.01 <
8 2 2 2343.11 2241.30 100.91 o
9 2 2 67.92 50.54 13.45 o
10 2 2 2.54 -1.45 15.49 <
11 2 2 32.51 51.66 31.98 <
12 2 2 133.78 156.35 43.15 o
-10 3 2 461.87 388.89 78.03 o
-9 3 2 209.60 158.26 45.80 o
-8 3 2 913.91 812.92 97.05 o
-7 3 2 1356.09 1182.55 135.00 o
-6 3 2 493.69 479.13 37.42 o
-5 3 2 6378.25 5982.12 278.68 o
-4 3 2 650.76 546.94 26.87 o
-3 3 2 7552.02 6923.56 324.57 o
-2 3 2 445.02 480.67 20.31 o
-1 3 2 2765.05 2580.78 86.62 o
0 3 2 26.61 50.21 4.82 o
1 3 2 2902.70 2758.72 95.10 o
2 3 2 429.46 464.68 17.15 o
3 3 2 7649.52 7209.80 227.81 o
5 3 2 5871.58 5635.46 256.84 o
6 3 2 447.60 432.75 24.83 o
7 3 2 1261.58 1252.35 62.46 o
8 3 2 789.76 786.59 46.84 o
9 3 2 200.49 195.30 17.61 o
10 3 2 525.39 568.87 38.62 o
11 3 2 330.82 309.20 45.80 o
12 3 2 113.01 111.33 37.58 <
-11 4 2 143.29 82.97 52.41 <
-10 4 2 1291.59 1070.26 135.87 o
-9 4 2 55.57 69.06 39.87 <
-8 4 2 67.64 40.90 36.38 <
-7 4 2 1268.92 1092.10 79.36 o
-6 4 2 100.90 124.99 20.64 o
-5 4 2 820.35 797.43 41.98 o
-4 4 2 4389.46 4517.86 188.24 o
-3 4 2 262.21 269.51 12.75 o
-2 4 2 2870.82 2689.91 114.82 o
-1 4 2 51.61 46.30 4.90 o
0 4 2 12.91 7.56 4.15 <
1 4 2 52.95 53.98 5.11 o
2 4 2 2283.57 2395.32 83.43 o
3 4 2 194.85 206.80 10.59 o
4 4 2 4495.22 4596.18 183.21 o
5 4 2 1015.99 962.08 41.40 o
6 4 2 124.18 121.17 10.80 o
7 4 2 1219.92 1163.19 58.01 o
8 4 2 48.77 30.52 13.41 <
9 4 2 51.84 44.39 16.20 <
10 4 2 1190.22 1206.67 70.64 o
11 4 2 137.74 165.77 29.73 o
12 4 2 28.67 30.07 36.34 <
-11 5 2 58.58 53.69 24.17 <
-10 5 2 164.55 141.90 20.56 o
-9 5 2 228.78 193.97 21.76 o
-8 5 2 38.21 41.11 12.33 o
-7 5 2 627.35 565.38 39.99 o
-6 5 2 259.91 264.56 21.80 o
-5 5 2 2207.09 2204.01 121.59 o
-4 5 2 502.19 505.54 23.01 o
-3 5 2 25.84 23.55 6.81 o
-2 5 2 294.24 282.92 14.66 o
-1 5 2 7721.38 8331.72 274.36 o
0 5 2 778.65 804.28 29.57 o
1 5 2 7706.14 8231.39 293.22 o
2 5 2 381.06 396.24 12.67 o
3 5 2 28.57 31.93 4.48 o
4 5 2 422.97 427.85 21.88 o
5 5 2 2395.52 2213.73 98.96 o
6 5 2 196.90 204.35 16.36 o
7 5 2 602.84 600.39 36.13 o
8 5 2 33.51 38.79 13.29 <
9 5 2 241.84 259.08 27.86 o
10 5 2 168.52 168.76 27.49 o
11 5 2 74.18 39.91 25.66 <
12 5 2 4.88 4.65 33.76 <
-12 6 2 3.51 -7.14 49.17 <
-11 6 2 156.73 119.68 27.99 o
-10 6 2 110.60 87.70 26.33 o
-9 6 2 269.35 220.26 22.30 o
-8 6 2 3.68 15.28 14.24 <
-7 6 2 478.98 417.92 29.11 o
-6 6 2 2429.20 2382.61 119.89 o
-5 6 2 2919.26 2966.35 168.89 o
-4 6 2 478.90 503.30 23.30 o
-3 6 2 1842.23 1906.14 78.78 o
-2 6 2 349.15 373.70 12.79 o
-1 6 2 3365.17 3770.76 116.15 o
0 6 2 4788.82 5019.25 197.71 o
1 6 2 3398.54 3764.07 134.05 o
2 6 2 259.53 261.12 13.50 o
3 6 2 1873.25 2037.41 76.66 o
4 6 2 361.85 456.00 22.09 o
5 6 2 3022.36 3153.14 140.19 o
6 6 2 2376.88 2432.03 118.72 o
7 6 2 574.84 548.11 44.31 o
8 6 2 4.16 -20.26 13.16 <
9 6 2 304.36 287.32 28.78 o
10 6 2 96.95 104.94 25.62 o
11 6 2 136.00 126.70 27.91 o
12 6 2 2.92 22.63 47.26 <
-11 7 2 164.17 142.43 57.39 <
-10 7 2 294.00 252.19 35.51 o
-9 7 2 327.36 290.06 37.42 o
-8 7 2 750.38 741.33 67.11 o
-7 7 2 534.11 452.10 33.35 o
-6 7 2 1.17 14.95 11.54 <
-5 7 2 2006.57 1806.98 105.73 o
-4 7 2 13.26 23.84 12.37 <
-3 7 2 9684.40 9458.37 396.54 o
-2 7 2 53.64 61.25 5.40 o
-1 7 2 512.07 429.30 15.32 o
0 7 2 4.82 21.26 5.40 o
1 7 2 443.39 383.62 16.44 o
2 7 2 74.60 101.41 6.35 o
3 7 2 9608.50 9707.69 399.15 o
4 7 2 13.62 8.97 4.53 <
5 7 2 2109.22 1943.76 93.85 o
6 7 2 0.85 4.36 10.13 <
7 7 2 423.52 390.68 28.53 o
8 7 2 777.37 771.27 54.86 o
9 7 2 279.98 350.69 33.68 o
10 7 2 292.27 304.72 33.35 o
11 7 2 174.21 182.30 37.29 o
-11 8 2 67.23 46.88 49.87 <
-10 8 2 391.22 397.99 64.08 o
-9 8 2 11.25 4.36 22.01 <
-8 8 2 795.60 815.54 73.83 o
-7 8 2 4.55 19.23 18.40 <
-6 8 2 3754.20 3939.31 240.77 o
-5 8 2 1349.01 1402.93 87.45 o
-4 8 2 1165.03 1128.93 64.45 o
-3 8 2 286.91 263.82 21.30 o
-2 8 2 1261.11 1306.67 58.18 o
-1 8 2 4672.19 4433.89 152.49 o
0 8 2 11884.90 12513.60 420.79 o
1 8 2 4801.89 4744.72 181.51 o
2 8 2 1712.88 1595.44 58.88 o
3 8 2 339.44 376.89 18.56 o
4 8 2 954.59 1058.88 46.55 o
5 8 2 1463.76 1282.91 69.02 o
6 8 2 3574.27 3782.88 242.85 o
7 8 2 6.22 -22.30 15.12 <
8 8 2 784.10 839.74 75.12 o
9 8 2 10.65 6.89 23.96 <
10 8 2 346.38 318.92 45.85 o
11 8 2 61.78 47.22 32.68 <
-11 9 2 15.01 13.12 50.16 <
-10 9 2 128.45 111.79 53.61 <
-9 9 2 392.83 456.25 77.32 o
-8 9 2 956.62 995.51 118.81 o
-7 9 2 457.50 317.30 40.03 o
-6 9 2 125.76 132.22 22.71 o
-5 9 2 119.73 114.07 17.90 o
-4 9 2 2555.27 2433.32 158.84 o
-3 9 2 52.16 42.86 7.18 o
-2 9 2 1368.17 1228.85 56.60 o
-1 9 2 3171.39 3029.22 89.66 o
0 9 2 177.49 190.69 9.88 o
1 9 2 3289.99 3182.16 123.58 o
2 9 2 1472.11 1450.89 55.06 o
3 9 2 49.13 51.37 8.06 o
4 9 2 2354.70 2554.95 123.46 o
5 9 2 96.61 100.66 15.03 o
6 9 2 100.00 109.21 17.77 o
7 9 2 492.85 534.53 44.89 o
8 9 2 984.74 986.42 85.59 o
9 9 2 389.02 438.14 49.42 o
10 9 2 126.51 137.95 32.31 o
11 9 2 12.39 10.09 47.26 <
-11 10 2 20.35 11.38 42.77 <
-10 10 2 1.88 -5.11 46.84 <
-9 10 2 364.57 425.52 66.53 o
-8 10 2 2.33 -7.47 32.31 <
-7 10 2 285.93 183.21 31.19 o
-6 10 2 143.26 139.07 24.29 o
-5 10 2 73.33 89.32 19.06 o
-4 10 2 18.22 22.09 14.53 <
-3 10 2 1435.96 1439.88 68.56 o
-2 10 2 48.99 36.92 6.77 o
-1 10 2 101.95 101.28 7.14 o
0 10 2 629.64 674.18 25.33 o
1 10 2 101.78 109.26 7.97 o
2 10 2 39.16 28.15 6.19 o
3 10 2 1247.78 1415.55 71.34 o
4 10 2 15.03 17.44 7.10 <
5 10 2 84.51 56.77 14.12 o
6 10 2 113.52 167.23 27.66 o
7 10 2 230.27 251.61 31.19 o
8 10 2 1.98 -14.24 21.64 <
9 10 2 340.70 285.41 40.07 o
10 10 2 2.09 5.15 27.12 <
11 10 2 19.50 -14.78 42.73 <
-11 11 2 129.70 177.36 51.16 o
-10 11 2 233.08 176.70 57.68 o
-9 11 2 103.88 213.45 51.53 o
-8 11 2 408.14 445.33 63.04 o
-7 11 2 70.07 79.65 26.12 o
-6 11 2 307.19 268.63 31.77 o
-5 11 2 416.98 399.19 33.47 o
-4 11 2 12.28 6.89 13.08 <
-3 11 2 1697.03 1723.22 77.61 o
-2 11 2 170.22 200.90 10.63 o
-1 11 2 947.00 915.57 38.66 o
0 11 2 13.40 16.69 5.73 <
1 11 2 1224.53 1238.48 38.20 o
2 11 2 121.85 108.14 9.63 o
3 11 2 1656.62 1801.41 86.50 o
4 11 2 16.76 21.05 7.68 <
5 11 2 327.72 309.50 51.12 o
6 11 2 276.74 333.95 37.83 o
7 11 2 56.79 62.50 24.25 <
8 11 2 336.08 338.40 43.60 o
9 11 2 109.41 81.77 29.57 <
10 11 2 219.58 270.46 42.90 o
11 11 2 132.10 103.77 51.66 <
-10 12 2 35.26 52.70 50.04 <
-9 12 2 189.96 284.41 60.50 o
-8 12 2 1371.82 1545.65 159.00 o
-7 12 2 28.74 46.63 32.60 <
-6 12 2 498.35 478.92 43.60 o
-5 12 2 17.85 20.39 17.69 <
-4 12 2 482.38 520.95 42.44 o
-3 12 2 328.77 318.46 16.20 o
-2 12 2 1388.32 1362.94 54.07 o
-1 12 2 2.09 -6.44 5.94 <
0 12 2 2.95 3.57 5.81 <
1 12 2 1.51 4.11 5.94 <
2 12 2 1405.47 1345.08 50.16 o
3 12 2 238.77 246.13 19.14 o
4 12 2 529.32 533.36 29.82 o
5 12 2 15.19 -14.45 18.44 <
6 12 2 430.96 523.98 51.66 o
7 12 2 27.64 29.98 23.25 <
8 12 2 1278.34 1353.51 116.94 o
9 12 2 174.68 218.64 37.96 o
10 12 2 29.31 27.20 29.48 <
-10 13 2 112.87 81.60 54.19 <
-9 13 2 286.27 296.75 59.30 o
-8 13 2 60.70 87.12 41.32 <
-7 13 2 351.87 438.02 65.40 o
-6 13 2 187.28 142.52 25.83 o
-5 13 2 3373.32 3656.39 220.75 o
-4 13 2 40.87 37.54 18.19 <
-3 13 2 1233.36 1161.62 63.33 o
-2 13 2 96.09 73.71 8.39 o
-1 13 2 1884.70 1847.01 64.86 o
0 13 2 5.44 21.80 7.23 o
1 13 2 1957.55 1904.07 71.97 o
2 13 2 90.22 68.56 8.89 o
3 13 2 1142.89 1233.75 88.58 o
4 13 2 50.22 50.75 14.45 o
5 13 2 3216.70 3332.45 264.86 o
6 13 2 134.80 150.20 29.53 o
7 13 2 372.31 475.81 49.46 o
8 13 2 64.91 60.96 26.78 <
9 13 2 243.07 330.96 45.06 o
10 13 2 94.83 168.06 53.24 o
-10 14 2 272.11 343.71 71.92 o
-9 14 2 42.71 50.99 40.24 <
-8 14 2 253.36 276.36 55.44 o
-7 14 2 911.64 1036.66 126.49 o
-6 14 2 222.22 185.91 31.77 o
-5 14 2 40.80 61.75 19.64 o
-4 14 2 1000.17 1065.52 74.12 o
-3 14 2 112.95 131.10 14.12 o
-2 14 2 1774.93 1669.48 80.44 o
-1 14 2 796.45 741.62 35.71 o
0 14 2 948.52 834.35 34.38 o
1 14 2 823.98 799.84 33.68 o
2 14 2 1705.95 1691.08 68.06 o
3 14 2 81.91 103.03 15.16 o
4 14 2 964.98 1131.51 82.80 o
5 14 2 30.33 31.85 15.07 <
6 14 2 201.75 213.99 33.06 o
7 14 2 995.47 1129.77 95.14 o
8 14 2 244.21 249.70 38.54 o
9 14 2 33.24 0.71 26.74 <
10 14 2 235.77 216.48 60.05 o
-9 15 2 56.37 60.30 42.07 <
-8 15 2 10.67 20.39 40.11 <
-7 15 2 199.39 254.76 47.01 o
-6 15 2 3.20 -10.17 23.71 <
-5 15 2 97.46 124.58 23.79 o
-4 15 2 437.54 479.80 38.74 o
-3 15 2 68.08 49.71 12.62 o
-2 15 2 627.86 628.79 31.77 o
-1 15 2 659.21 626.09 34.22 o
0 15 2 51.29 64.53 8.80 o
1 15 2 547.21 541.71 27.86 o
2 15 2 595.84 607.28 34.22 o
3 15 2 53.52 34.76 15.86 <
4 15 2 405.97 486.98 44.35 o
5 15 2 88.73 84.55 13.99 o
6 15 2 4.45 34.38 24.42 <
7 15 2 177.05 199.66 34.01 o
8 15 2 14.18 38.45 27.37 <
9 15 2 52.96 53.03 30.23 <
-9 16 2 152.84 175.70 48.54 o
-8 16 2 25.20 -11.92 37.54 <
-7 16 2 2.42 -9.43 31.56 <
-6 16 2 423.39 441.34 61.13 o
-5 16 2 15.31 -14.74 20.35 <
-4 16 2 94.42 140.11 22.63 o
-3 16 2 32.87 36.34 11.88 o
-2 16 2 66.96 77.94 14.16 o
-1 16 2 449.66 494.87 32.52 o
0 16 2 221.82 230.06 16.24 o
1 16 2 457.70 483.78 24.46 o
2 16 2 55.77 52.45 11.05 o
3 16 2 41.00 68.06 14.99 o
4 16 2 84.70 98.13 14.74 o
5 16 2 21.17 38.91 12.96 o
6 16 2 393.68 394.92 45.68 o
7 16 2 2.04 8.68 24.29 <
8 16 2 25.13 33.80 26.87 <
9 16 2 147.80 75.99 52.03 <
-8 17 2 43.99 70.80 43.06 <
-7 17 2 56.47 67.69 37.25 <
-6 17 2 95.38 104.56 36.25 <
-5 17 2 30.86 35.30 24.67 <
-4 17 2 51.75 51.20 26.62 <
-3 17 2 3121.90 3589.16 219.59 o
-2 17 2 0.43 1.04 14.04 <
-1 17 2 28.25 36.00 15.90 <
0 17 2 27.05 24.71 11.09 <
1 17 2 38.28 47.30 9.30 o
2 17 2 0.55 1.70 10.38 <
3 17 2 3242.40 3205.71 175.41 o
4 17 2 42.01 41.53 15.61 <
5 17 2 33.02 28.78 13.95 <
6 17 2 101.60 70.68 26.29 <
7 17 2 40.88 -2.12 23.42 <
8 17 2 50.81 69.60 30.31 <
-5 18 2 47.66 38.45 33.64 <
-4 18 2 903.75 1101.40 78.11 o
-3 18 2 67.13 99.33 19.68 o
-2 18 2 506.26 635.56 50.91 o
-1 18 2 321.77 304.80 29.19 o
0 18 2 1509.27 1147.46 83.88 o
1 18 2 317.27 347.58 21.84 o
2 18 2 457.01 507.29 58.68 o
3 18 2 80.37 65.82 21.88 o
4 18 2 903.70 1010.88 76.91 o
5 18 2 51.73 54.03 14.53 o
6 18 2 708.13 841.16 77.49 o
7 18 2 0.21 -9.01 23.17 <
8 18 2 79.20 35.21 41.03 <
-4 19 2 186.46 174.45 40.86 o
-3 19 2 199.47 208.75 23.75 o
-2 19 2 153.08 149.99 23.63 o
-1 19 2 767.33 876.83 62.00 o
0 19 2 0.02 0.66 12.83 <
1 19 2 689.47 744.11 59.05 o
2 19 2 155.24 190.44 24.46 o
3 19 2 190.01 246.25 41.48 o
4 19 2 187.13 218.76 29.82 o
5 19 2 1.98 -1.45 16.32 <
6 19 2 31.79 35.67 25.25 <
7 19 2 758.39 756.48 72.46 o
-3 20 2 577.73 529.09 47.26 o
-2 20 2 37.07 29.40 19.89 <
-1 20 2 16.30 37.87 24.79 <
0 20 2 34.84 13.00 16.82 <
1 20 2 11.65 11.30 9.92 <
2 20 2 35.06 47.34 18.69 <
3 20 2 583.25 518.62 59.51 o
4 20 2 61.99 67.23 21.55 o
5 20 2 47.92 38.16 18.35 <
6 20 2 27.64 12.96 25.83 <
7 20 2 121.14 59.13 47.46 <
-3 21 2 5.36 -36.83 32.93 <
-2 21 2 13.59 -8.47 26.49 <
-1 21 2 126.28 62.66 26.04 <
0 21 2 6.16 -13.37 28.65 <
1 21 2 125.50 85.05 12.91 o
2 21 2 9.92 24.42 22.76 <
3 21 2 5.48 34.38 20.43 <
4 21 2 30.44 42.61 19.19 <
5 21 2 9.67 35.84 26.29 <
6 21 2 146.90 120.18 31.14 o
-3 22 2 2.82 17.65 32.56 <
-2 22 2 146.28 85.50 33.51 <
-1 22 2 87.60 87.16 29.32 <
0 22 2 8.31 23.59 26.91 <
1 22 2 71.73 47.67 13.95 o
2 22 2 142.75 176.90 32.02 o
3 22 2 3.12 -4.86 18.15 <
4 22 2 9.80 6.06 22.38 <
5 22 2 23.40 -22.30 22.01 <
-2 23 2 72.09 -42.48 25.95 <
-1 23 2 670.32 400.07 52.74 o
0 23 2 1.45 -17.69 23.63 <
1 23 2 689.86 490.88 60.71 o
2 23 2 73.30 0.75 26.99 <
3 23 2 5.94 14.87 26.78 <
-1 24 2 14.46 -24.96 39.78 <
-7 0 3 973.37 1001.95 73.21 o
-5 0 3 1859.43 1658.44 119.85 o
-3 0 3 473.12 512.39 35.88 o
-1 0 3 1164.36 1078.40 50.04 o
1 0 3 1022.59 941.90 50.70 o
3 0 3 468.31 553.42 34.22 o
5 0 3 1552.44 1347.74 92.69 o
7 0 3 761.73 686.43 52.53 o
9 0 3 759.49 887.88 77.07 o
11 0 3 228.43 192.10 55.11 o
-7 1 3 4.93 3.24 18.23 <
-6 1 3 574.97 557.95 43.31 o
-5 1 3 2985.23 2642.94 135.87 o
-4 1 3 654.76 636.02 34.22 o
-3 1 3 1740.53 1600.26 65.61 o
-2 1 3 1133.10 1088.78 78.90 o
-1 1 3 374.48 370.08 13.12 o
0 1 3 593.91 519.54 19.23 o
1 1 3 281.01 241.81 23.25 o
2 1 3 1483.21 1398.77 48.67 o
3 1 3 1677.30 1564.92 62.79 o
4 1 3 468.68 378.01 18.02 o
5 1 3 3180.44 2757.22 106.97 o
6 1 3 749.63 682.61 32.93 o
7 1 3 3.99 8.80 9.47 <
8 1 3 312.78 339.77 27.16 o
9 1 3 51.58 69.14 17.77 o
10 1 3 314.93 285.20 28.49 o
11 1 3 407.18 404.84 41.69 o
-7 2 3 302.65 336.86 31.06 o
-6 2 3 16.08 6.19 10.13 <
-5 2 3 1656.21 1601.50 105.93 o
-4 2 3 107.33 115.40 13.33 o
-2 2 3 3411.53 3589.12 130.52 o
-1 2 3 2715.96 2790.86 107.93 o
0 2 3 438.43 420.29 16.15 o
1 2 3 2144.20 2197.28 91.07 o
2 2 3 3188.68 3268.33 121.42 o
3 2 3 526.09 471.41 20.51 o
4 2 3 150.03 163.16 9.76 o
5 2 3 2057.86 1951.61 74.54 o
6 2 3 12.20 6.64 8.31 <
7 2 3 332.09 353.47 20.72 o
8 2 3 1240.64 1283.33 71.72 o
9 2 3 200.74 178.11 21.26 o
10 2 3 29.25 28.53 23.05 <
11 2 3 33.68 7.27 23.84 <
-10 3 3 144.35 103.23 20.64 o
-9 3 3 11.37 19.23 7.89 <
-8 3 3 291.34 180.22 23.59 o
-7 3 3 107.89 65.74 14.45 o
-6 3 3 177.85 196.25 17.69 o
-5 3 3 118.31 93.27 13.99 o
-4 3 3 140.87 115.07 13.04 o
-3 3 3 581.27 566.59 25.66 o
-1 3 3 188.04 201.86 8.68 o
0 3 3 369.50 349.32 13.83 o
1 3 3 174.17 156.60 8.60 o
2 3 3 881.04 911.01 35.09 o
3 3 3 544.01 529.50 19.64 o
4 3 3 164.98 119.85 7.72 o
5 3 3 86.79 57.64 8.35 o
6 3 3 159.44 146.96 12.75 o
7 3 3 129.70 129.85 13.50 o
8 3 3 407.45 391.93 35.05 o
9 3 3 8.60 -12.08 15.70 <
10 3 3 165.87 178.73 26.37 o
11 3 3 27.32 47.55 25.75 <
-10 4 3 135.48 157.68 25.50 o
-9 4 3 12.25 23.88 10.76 <
-8 4 3 127.08 128.48 21.47 o
-7 4 3 60.43 60.21 21.51 <
-6 4 3 1039.28 963.04 55.81 o
-5 4 3 1320.18 1238.81 62.50 o
-4 4 3 259.43 213.74 17.52 o
-3 4 3 367.90 338.32 18.02 o
-2 4 3 167.91 141.36 9.55 o
-1 4 3 955.53 796.89 31.77 o
0 4 3 12470.30 13024.60 440.05 o
2 4 3 159.32 173.16 8.60 o
3 4 3 274.09 256.55 12.50 o
4 4 3 281.35 254.39 11.50 o
5 4 3 999.58 932.18 44.35 o
6 4 3 1120.15 1102.15 48.59 o
7 4 3 74.75 70.72 12.21 o
8 4 3 91.68 73.29 16.90 o
9 4 3 9.15 17.40 20.10 <
10 4 3 100.95 80.44 25.79 o
11 4 3 34.80 51.53 26.95 <
-10 5 3 302.24 427.43 51.49 o
-9 5 3 49.57 40.03 14.53 <
-8 5 3 576.12 456.62 47.26 o
-7 5 3 124.87 140.94 23.34 o
-6 5 3 419.24 397.82 25.87 o
-5 5 3 86.09 90.94 14.12 o
-4 5 3 783.10 723.93 49.04 o
-3 5 3 56.86 45.51 8.85 o
-2 5 3 1216.18 1077.36 48.50 o
-1 5 3 222.02 202.48 9.59 o
0 5 3 285.94 294.13 12.96 o
1 5 3 212.77 184.92 10.05 o
2 5 3 926.83 887.42 38.54 o
3 5 3 79.48 69.89 5.27 o
4 5 3 1001.57 937.17 35.55 o
5 5 3 89.46 73.13 9.05 o
6 5 3 357.88 309.33 20.02 o
7 5 3 97.06 72.42 12.58 o
8 5 3 540.77 596.11 43.48 o
9 5 3 68.69 56.27 20.76 <
10 5 3 227.39 286.12 37.21 o
11 5 3 7.04 36.13 34.97 <
-9 6 3 472.48 436.36 52.16 o
-8 6 3 374.68 277.98 35.42 o
-7 6 3 96.32 106.51 23.96 o
-6 6 3 323.53 279.14 23.88 o
-5 6 3 433.67 435.40 26.45 o
-4 6 3 217.15 222.54 17.27 o
-3 6 3 1234.46 1216.10 47.76 o
-2 6 3 398.65 367.84 14.45 o
-1 6 3 367.91 351.27 39.37 o
0 6 3 1905.75 1739.62 62.16 o
1 6 3 490.12 548.35 21.39 o
2 6 3 338.36 271.08 11.88 o
3 6 3 1016.76 960.13 39.45 o
4 6 3 200.28 204.68 10.67 o
5 6 3 387.80 351.23 19.73 o
6 6 3 314.87 342.14 21.43 o
7 6 3 134.30 153.56 16.90 o
8 6 3 312.93 296.79 29.65 o
9 6 3 359.03 303.31 34.34 o
10 6 3 20.70 27.82 24.21 <
11 6 3 16.22 -0.17 43.15 <
-9 7 3 149.45 142.64 27.16 o
-8 7 3 50.01 24.46 25.70 <
-7 7 3 42.80 83.14 24.04 o
-6 7 3 771.79 671.81 49.42 o
-5 7 3 22.07 18.11 11.79 <
-4 7 3 692.97 732.69 54.98 o
-3 7 3 2804.08 2602.37 125.33 o
-2 7 3 64.03 52.82 6.85 o
-1 7 3 60.01 63.00 7.02 o
0 7 3 397.89 347.16 14.70 o
1 7 3 54.42 50.16 6.60 o
2 7 3 83.47 105.68 6.81 o
3 7 3 3011.36 3019.17 97.05 o
4 7 3 958.68 938.91 36.17 o
5 7 3 17.63 15.12 7.18 <
6 7 3 561.73 581.95 38.79 o
7 7 3 36.15 24.46 17.86 <
8 7 3 59.47 67.52 21.01 o
9 7 3 167.43 122.79 24.67 o
10 7 3 243.05 273.58 40.99 o
11 7 3 5.03 58.51 51.49 <
-8 8 3 593.04 537.27 71.01 o
-7 8 3 154.38 221.13 32.14 o
-6 8 3 18.52 -4.03 27.20 <
-5 8 3 356.38 250.82 26.33 o
-4 8 3 56.46 67.81 14.33 o
-3 8 3 416.94 363.77 23.75 o
-2 8 3 664.78 634.11 24.87 o
-1 8 3 136.99 105.27 9.76 o
0 8 3 157.04 165.23 9.68 o
1 8 3 191.18 222.12 10.01 o
2 8 3 670.85 733.73 26.99 o
3 8 3 527.25 518.25 20.85 o
4 8 3 61.33 52.45 7.81 o
5 8 3 418.47 411.28 29.69 o
6 8 3 13.39 9.30 12.21 <
7 8 3 209.84 232.51 26.12 o
8 8 3 586.55 585.81 57.31 o
9 8 3 69.54 68.77 29.77 <
10 8 3 158.44 170.59 37.12 o
11 8 3 49.77 86.79 52.95 <
-8 9 3 20.44 21.01 29.90 <
-7 9 3 5.85 50.41 24.71 <
-6 9 3 212.49 222.58 31.23 o
-5 9 3 2415.42 2352.13 194.80 o
-4 9 3 283.67 233.34 21.64 o
-3 9 3 358.19 317.43 18.94 o
-2 9 3 198.53 161.00 11.46 o
-1 9 3 295.04 217.14 14.33 o
0 9 3 862.10 793.86 31.10 o
1 9 3 360.76 376.85 15.82 o
2 9 3 261.60 260.25 11.79 o
3 9 3 345.69 331.67 14.70 o
4 9 3 249.21 245.30 16.49 o
5 9 3 2383.65 2403.05 198.74 o
6 9 3 243.46 266.39 33.51 o
7 9 3 8.16 12.13 22.80 <
8 9 3 25.33 17.98 25.41 <
9 9 3 131.19 153.65 35.30 o
10 9 3 25.98 51.70 30.31 <
-9 10 3 195.44 232.63 61.58 o
-8 10 3 63.24 -10.63 28.99 <
-7 10 3 400.51 401.52 42.32 o
-6 10 3 186.57 138.62 27.41 o
-5 10 3 527.31 490.09 40.70 o
-4 10 3 297.00 283.79 33.06 o
-3 10 3 309.92 300.65 18.56 o
-2 10 3 903.37 876.12 36.75 o
-1 10 3 666.13 681.16 25.04 o
0 10 3 140.92 124.95 8.85 o
1 10 3 476.24 506.25 38.79 o
2 10 3 898.96 955.98 37.46 o
3 10 3 329.39 374.19 16.28 o
4 10 3 383.71 401.89 24.87 o
5 10 3 376.92 434.86 61.00 o
6 10 3 259.61 247.29 32.56 o
7 10 3 409.55 476.27 48.46 o
8 10 3 45.93 6.85 23.38 <
9 10 3 261.13 324.03 45.01 o
10 10 3 47.01 9.72 45.22 <
-9 11 3 52.57 88.78 43.77 <
-8 11 3 351.99 232.84 38.54 o
-7 11 3 20.01 -3.07 23.84 <
-6 11 3 25.51 20.14 21.72 <
-5 11 3 325.36 322.74 35.67 o
-4 11 3 371.37 388.48 34.97 o
-3 11 3 1167.03 969.89 70.76 o
-2 11 3 553.79 513.27 93.23 o
-1 11 3 177.58 181.80 11.00 o
0 11 3 335.73 304.39 14.49 o
1 11 3 151.40 145.30 9.84 o
2 11 3 770.78 794.07 32.85 o
3 11 3 1202.52 1193.22 54.03 o
4 11 3 281.98 285.58 30.40 o
5 11 3 401.55 307.34 24.83 o
6 11 3 28.33 47.92 22.80 <
7 11 3 19.34 27.45 25.91 <
8 11 3 251.55 222.58 37.42 o
9 11 3 37.58 19.81 27.91 <
10 11 3 182.61 142.48 53.40 <
-9 12 3 22.24 16.49 39.87 <
-8 12 3 317.77 165.23 37.46 o
-7 12 3 129.40 136.58 29.53 o
-6 12 3 173.24 262.57 32.14 o
-5 12 3 395.62 517.88 43.10 o
-4 12 3 549.88 559.03 40.16 o
-3 12 3 11.80 -0.54 11.79 <
-1 12 3 1462.46 1380.25 56.89 o
0 12 3 644.98 708.48 31.85 o
1 12 3 1112.52 1138.53 54.23 o
2 12 3 1669.45 1593.03 79.86 o
3 12 3 10.04 20.51 10.63 <
4 12 3 500.05 593.70 49.25 o
5 12 3 552.41 456.87 43.77 o
6 12 3 124.12 141.85 28.94 o
7 12 3 103.98 108.67 31.10 o
8 12 3 302.24 306.88 39.53 o
9 12 3 30.89 35.01 28.65 <
10 12 3 246.50 153.81 51.24 o
-9 13 3 1.56 14.41 40.57 <
-8 13 3 67.33 108.63 33.97 o
-7 13 3 271.49 263.07 37.25 o
-6 13 3 53.26 84.92 24.58 o
-5 13 3 209.35 201.98 28.69 o
-4 13 3 424.69 497.36 33.80 o
-3 13 3 691.75 554.21 35.01 o
-2 13 3 421.79 370.21 44.93 o
-1 13 3 1136.92 1078.69 76.16 o
0 13 3 17.88 -6.40 7.93 <
1 13 3 1293.51 1249.49 53.94 o
2 13 3 581.66 617.00 27.86 o
3 13 3 771.98 709.39 59.88 o
4 13 3 321.89 406.75 40.57 o
5 13 3 162.01 215.56 22.59 o
6 13 3 73.60 110.25 28.07 o
7 13 3 302.29 294.92 41.15 o
8 13 3 93.95 114.28 31.27 o
9 13 3 1.45 -31.93 44.35 <
-9 14 3 120.47 138.28 45.60 o
-8 14 3 5.67 51.41 39.66 <
-7 14 3 90.72 59.30 28.57 <
-6 14 3 52.71 60.30 25.91 <
-5 14 3 309.14 310.83 28.03 o
-4 14 3 75.23 96.34 17.44 o
-3 14 3 146.93 98.96 15.24 o
-2 14 3 118.33 76.95 16.40 o
-1 14 3 175.37 115.82 17.90 o
0 14 3 1050.71 872.34 47.17 o
1 14 3 241.82 265.39 15.32 o
2 14 3 162.66 191.31 16.32 o
3 14 3 190.91 271.25 34.92 o
4 14 3 63.76 72.92 22.63 o
5 14 3 221.57 297.04 28.53 o
6 14 3 38.42 52.78 26.54 <
7 14 3 66.05 59.42 29.23 <
8 14 3 7.94 9.05 26.37 <
9 14 3 112.98 36.17 48.46 <
-9 15 3 46.33 39.95 49.04 <
-8 15 3 272.13 287.20 57.93 o
-7 15 3 815.50 668.16 59.88 o
-6 15 3 16.02 -14.87 30.23 <
-5 15 3 82.14 89.49 22.80 o
-4 15 3 17.15 30.90 21.26 <
-3 15 3 128.45 108.59 16.20 o
-2 15 3 820.42 751.59 43.89 o
-1 15 3 152.41 197.12 23.42 o
0 15 3 154.49 175.41 16.69 o
1 15 3 115.05 88.37 11.21 o
2 15 3 654.63 689.13 42.61 o
3 15 3 146.54 148.17 19.52 o
4 15 3 21.95 22.76 15.07 <
5 15 3 62.11 67.36 16.57 o
6 15 3 14.31 10.88 25.21 <
7 15 3 637.26 655.08 67.90 o
8 15 3 236.03 226.19 38.37 o
9 15 3 49.95 55.23 47.22 <
-7 16 3 49.59 49.79 43.35 <
-6 16 3 52.71 26.41 32.35 <
-5 16 3 32.27 62.08 23.42 <
-4 16 3 87.52 111.21 22.88 o
-3 16 3 699.36 689.79 38.49 o
-2 16 3 95.21 101.41 17.73 o
-1 16 3 72.55 78.73 19.19 o
0 16 3 118.54 110.17 14.66 o
1 16 3 58.62 49.33 10.71 o
2 16 3 105.59 129.60 14.29 o
3 16 3 554.23 587.06 45.31 o
4 16 3 62.60 22.18 14.70 <
5 16 3 39.39 40.74 15.53 <
6 16 3 56.83 51.24 27.91 <
7 16 3 69.07 43.35 27.82 <
8 16 3 300.57 245.71 60.25 o
-7 17 3 117.83 16.11 41.53 <
-6 17 3 789.59 535.44 70.30 o
-5 17 3 205.63 163.74 26.87 o
-4 17 3 35.64 28.32 21.64 <
-3 17 3 70.95 62.37 17.52 o
-2 17 3 172.55 125.66 27.28 o
-1 17 3 389.29 363.40 51.66 o
0 17 3 128.43 159.46 17.23 o
1 17 3 474.79 487.23 28.57 o
2 17 3 185.02 190.23 16.53 o
3 17 3 98.84 77.65 20.64 o
4 17 3 45.85 61.83 18.19 o
5 17 3 176.80 153.94 20.43 o
6 17 3 578.78 675.55 63.41 o
7 17 3 100.07 108.43 32.43 o
8 17 3 36.38 89.03 46.26 <
-6 18 3 7.47 2.03 34.63 <
-5 18 3 63.04 131.97 36.04 o
-4 18 3 116.17 92.11 32.43 <
-3 18 3 335.35 392.22 31.02 o
-2 18 3 10.53 4.32 20.02 <
-1 18 3 178.89 169.68 23.50 o
0 18 3 6.35 4.57 18.31 <
1 18 3 175.79 175.57 18.81 o
2 18 3 8.68 9.09 10.42 <
3 18 3 306.61 337.28 41.90 o
4 18 3 96.04 116.36 24.71 o
5 18 3 85.60 79.32 17.32 o
6 18 3 10.42 3.41 25.41 <
7 18 3 165.22 210.16 56.72 o
-6 19 3 79.01 81.23 41.15 <
-5 19 3 378.98 374.15 51.70 o
-4 19 3 141.80 188.45 35.21 o
-3 19 3 58.67 36.17 17.81 <
-2 19 3 533.68 536.60 41.73 o
-1 19 3 212.40 179.10 30.77 o
0 19 3 114.18 143.31 23.09 o
1 19 3 296.29 279.97 21.80 o
2 19 3 403.97 366.51 41.19 o
3 19 3 82.07 71.55 20.85 o
4 19 3 185.52 116.07 41.19 <
5 19 3 299.08 290.77 27.41 o
6 19 3 103.46 101.32 29.61 o
-5 20 3 35.29 0.17 32.76 <
-4 20 3 33.02 123.38 35.26 o
-3 20 3 20.95 11.17 16.74 <
-2 20 3 397.37 440.30 40.20 o
-1 20 3 166.99 157.55 23.38 o
0 20 3 9.92 17.81 26.08 <
1 20 3 210.62 170.80 16.61 o
2 20 3 346.11 353.10 62.41 o
3 20 3 16.31 6.89 17.65 <
4 20 3 42.61 39.70 21.84 <
5 20 3 26.93 12.37 18.77 <
-4 21 3 98.03 75.70 35.80 <
-2 21 3 115.84 62.70 37.33 <
-1 21 3 0.28 -3.70 25.75 <
0 21 3 10.91 25.08 29.77 <
1 21 3 0.37 -1.99 9.14 <
2 21 3 161.66 152.24 40.03 o
3 21 3 555.08 463.89 42.98 o
4 21 3 71.37 121.17 35.80 o
-1 22 3 159.31 126.20 31.10 o
0 22 3 454.88 166.85 39.45 o
1 22 3 123.03 95.51 20.80 o
3 22 3 0.55 16.69 27.53 <
-8 0 4 727.81 707.98 58.68 o
-6 0 4 2717.94 2751.45 180.14 o
-4 0 4 624.12 649.43 54.69 o
-2 0 4 1161.47 1275.19 129.56 o
0 0 4 27568.10 30778.60 1617.82 o
2 0 4 1432.34 1617.91 76.66 o
4 0 4 706.62 707.53 44.43 o
6 0 4 2629.17 2731.52 206.01 o
8 0 4 765.12 853.86 66.53 o
10 0 4 452.30 478.67 53.98 o
-9 1 4 401.18 187.24 53.20 o
-8 1 4 98.25 92.31 17.40 o
-7 1 4 851.57 889.58 44.72 o
-6 1 4 212.29 211.66 18.52 o
-5 1 4 191.42 156.51 16.69 o
-4 1 4 91.22 104.48 15.07 o
-3 1 4 2751.75 2658.47 104.73 o
-2 1 4 1490.70 1486.14 82.68 o
-1 1 4 582.25 492.63 30.90 o
0 1 4 59.01 64.53 8.35 o
1 1 4 455.83 394.58 16.57 o
2 1 4 1744.33 1830.02 60.30 o
3 1 4 2541.42 2481.66 91.69 o
4 1 4 97.51 88.33 8.76 o
5 1 4 218.04 225.24 18.02 o
6 1 4 225.93 232.34 19.56 o
7 1 4 718.12 765.41 49.79 o
8 1 4 118.43 137.33 18.31 o
9 1 4 357.33 354.51 28.99 o
10 1 4 196.94 197.00 25.29 o
11 1 4 24.92 11.88 24.00 <
-9 2 4 26.77 -4.11 40.65 <
-8 2 4 363.05 331.55 26.20 o
-7 2 4 246.64 259.17 20.80 o
-6 2 4 68.79 60.01 14.70 o
-5 2 4 807.58 841.74 41.19 o
-4 2 4 1317.90 1356.91 65.57 o
-3 2 4 699.65 663.55 41.44 o
-2 2 4 183.43 223.66 15.24 o
-1 2 4 1238.29 1243.51 48.17 o
0 2 4 332.65 350.32 16.57 o
1 2 4 1007.00 1005.48 39.28 o
2 2 4 153.49 152.44 10.34 o
3 2 4 527.28 384.29 17.57 o
4 2 4 1128.50 1071.42 51.08 o
5 2 4 778.85 769.61 45.85 o
6 2 4 52.07 47.22 12.91 o
7 2 4 188.08 202.61 21.14 o
8 2 4 378.92 433.08 29.57 o
9 2 4 21.78 23.17 17.69 <
10 2 4 59.90 60.63 20.80 <
-9 3 4 16.94 70.18 43.77 <
-8 3 4 46.10 51.41 17.52 <
-7 3 4 127.51 94.89 16.78 o
-6 3 4 612.57 685.93 36.67 o
-5 3 4 118.72 146.13 16.74 o
-4 3 4 947.78 843.28 45.72 o
-3 3 4 788.01 740.46 38.91 o
-2 3 4 14.02 13.45 11.21 <
-1 3 4 471.22 361.20 16.49 o
0 3 4 699.49 707.94 28.90 o
1 3 4 542.51 532.91 26.33 o
2 3 4 16.10 13.00 6.44 <
3 3 4 603.14 465.47 20.51 o
4 3 4 903.53 870.27 35.88 o
5 3 4 123.30 119.97 12.58 o
6 3 4 502.59 615.05 40.74 o
7 3 4 111.40 93.43 15.86 o
8 3 4 32.98 45.43 16.24 <
9 3 4 14.77 36.75 17.23 <
10 3 4 438.61 500.52 45.64 o
-9 4 4 224.28 211.45 54.23 o
-8 4 4 758.29 774.63 50.99 o
-7 4 4 170.79 164.24 18.23 o
-6 4 4 22.28 4.48 12.79 <
-5 4 4 456.57 395.75 25.79 o
-4 4 4 48.58 79.44 14.58 o
-3 4 4 85.48 63.83 10.59 o
-2 4 4 1731.39 1307.29 133.47 o
-1 4 4 281.85 210.62 13.45 o
0 4 4 829.85 780.86 31.68 o
1 4 4 367.54 333.54 24.33 o
2 4 4 1265.25 1073.46 56.23 o
3 4 4 100.37 89.36 7.85 o
4 4 4 42.00 44.60 6.69 o
5 4 4 409.06 392.46 29.15 o
6 4 4 30.32 16.82 12.91 <
7 4 4 177.79 183.34 18.85 o
8 4 4 653.41 716.83 46.38 o
9 4 4 179.47 169.43 23.46 o
10 4 4 2.42 -20.97 24.75 <
-9 5 4 238.91 142.93 51.70 <
-8 5 4 210.59 224.45 26.37 o
-7 5 4 179.47 155.60 22.96 o
-6 5 4 38.59 49.50 14.08 o
-5 5 4 2733.67 2684.43 124.08 o
-4 5 4 90.06 99.75 15.74 o
-3 5 4 701.54 685.02 30.31 o
-2 5 4 5.37 4.73 7.85 <
-1 5 4 1274.13 1220.25 47.13 o
0 5 4 48.13 53.32 8.31 o
1 5 4 1295.78 1351.43 49.83 o
2 5 4 7.52 12.33 7.02 <
3 5 4 527.45 500.72 23.09 o
4 5 4 87.92 78.28 7.68 o
5 5 4 2559.57 2623.63 169.72 o
6 5 4 49.56 38.00 13.33 <
7 5 4 250.53 293.88 22.42 o
8 5 4 160.18 149.49 23.88 o
9 5 4 198.18 221.83 36.58 o
10 5 4 40.98 81.97 31.56 <
-9 6 4 221.63 72.34 49.96 <
-8 6 4 539.42 599.31 52.82 o
-7 6 4 61.59 44.77 16.49 <
-6 6 4 83.67 90.94 14.82 o
-5 6 4 551.03 491.01 28.07 o
-4 6 4 597.07 566.54 34.72 o
-3 6 4 141.47 154.44 17.40 o
-2 6 4 2606.72 2660.09 96.42 o
-1 6 4 21.48 19.48 8.10 <
0 6 4 54.58 41.48 7.77 o
1 6 4 25.67 15.57 7.35 <
2 6 4 2553.09 2600.21 93.19 o
3 6 4 173.33 167.97 10.01 o
4 6 4 656.74 666.21 30.07 o
5 6 4 430.25 407.46 32.39 o
6 6 4 87.43 88.78 17.69 o
7 6 4 62.53 101.91 20.72 o
8 6 4 515.68 540.76 56.39 o
9 6 4 158.99 141.56 34.13 o
10 6 4 61.15 24.92 46.72 <
-9 7 4 23.36 54.65 49.08 <
-8 7 4 178.76 188.82 33.76 o
-7 7 4 56.97 73.71 20.93 o
-6 7 4 50.19 54.86 14.12 o
-5 7 4 302.67 284.41 21.64 o
-4 7 4 331.73 269.30 21.22 o
-3 7 4 123.92 104.15 15.57 o
-2 7 4 28.71 28.11 9.80 <
-1 7 4 1.75 5.98 9.09 <
0 7 4 355.33 353.39 16.82 o
1 7 4 1.74 -1.70 7.64 <
2 7 4 22.96 21.51 7.02 o
3 7 4 91.30 58.43 9.01 o
4 7 4 311.31 304.85 18.15 o
5 7 4 325.45 320.96 24.29 o
6 7 4 44.33 42.81 17.11 <
7 7 4 44.49 49.46 26.12 <
8 7 4 177.40 224.16 35.71 o
9 7 4 20.72 32.14 29.28 <
10 7 4 218.19 172.75 55.11 o
-9 8 4 4.10 -11.21 45.97 <
-8 8 4 10.96 1.45 38.04 <
-7 8 4 209.42 261.33 48.59 o
-6 8 4 15.57 9.59 13.21 <
-5 8 4 397.77 376.27 27.16 o
-4 8 4 38.57 49.42 16.36 o
-3 8 4 188.59 203.44 20.02 o
-2 8 4 5.44 4.28 10.42 <
-1 8 4 725.91 677.54 29.73 o
0 8 4 497.26 465.05 21.51 o
1 8 4 687.93 657.57 31.23 o
2 8 4 7.07 0.54 6.81 <
3 8 4 134.80 120.97 12.50 o
4 8 4 38.13 55.11 13.50 o
5 8 4 329.32 343.84 34.72 o
6 8 4 12.46 22.88 24.50 <
7 8 4 271.78 330.13 40.24 o
8 8 4 8.27 24.92 26.58 <
9 8 4 3.04 -50.29 26.20 <
10 8 4 61.90 16.20 47.67 <
-9 9 4 195.21 62.16 51.33 <
-8 9 4 68.67 99.70 43.23 <
-7 9 4 31.41 40.49 22.71 <
-6 9 4 42.95 31.73 23.59 <
-5 9 4 78.78 97.67 27.16 o
-4 9 4 316.95 287.36 31.19 o
-3 9 4 952.81 885.22 50.54 o
-2 9 4 745.61 659.11 32.68 o
-1 9 4 379.72 447.74 22.05 o
0 9 4 37.40 30.23 10.17 <
1 9 4 278.71 299.82 31.06 o
2 9 4 735.42 720.69 38.12 o
3 9 4 856.18 878.36 51.20 o
4 9 4 427.92 480.09 38.45 o
5 9 4 109.65 104.23 16.28 o
6 9 4 33.79 34.63 29.94 <
7 9 4 22.70 10.05 28.94 <
8 9 4 84.99 95.84 30.77 o
9 9 4 156.69 122.59 34.88 o
10 9 4 69.02 58.76 51.58 <
-9 10 4 237.16 -19.97 48.96 <
-8 10 4 373.86 229.35 49.79 o
-7 10 4 8.52 2.24 23.88 <
-6 10 4 550.47 587.52 55.11 o
-5 10 4 36.53 21.30 23.79 <
-4 10 4 400.26 418.88 42.65 o
-3 10 4 234.15 237.12 23.09 o
-2 10 4 1420.57 1259.29 54.36 o
-1 10 4 55.32 62.37 12.17 o
0 10 4 5168.88 4922.49 193.93 o
1 10 4 45.95 24.04 9.55 <
2 10 4 1188.34 1242.43 71.26 o
3 10 4 277.57 255.51 20.85 o
4 10 4 345.56 433.16 39.49 o
5 10 4 28.18 8.22 10.51 <
6 10 4 538.05 821.35 86.62 o
7 10 4 9.89 7.35 28.32 <
8 10 4 331.40 294.38 42.69 o
9 10 4 204.13 173.37 57.51 o
-9 11 4 244.83 169.97 56.68 <
-8 11 4 107.67 49.71 41.90 <
-7 11 4 966.26 1079.48 98.54 o
-6 11 4 231.32 243.76 35.96 o
-5 11 4 467.95 561.06 47.09 o
-4 11 4 35.98 80.77 24.13 o
-3 11 4 2409.42 2140.23 159.42 o
-2 11 4 833.03 712.63 45.47 o
-1 11 4 379.42 416.22 21.93 o
0 11 4 37.46 54.40 12.08 o
1 11 4 371.76 333.37 21.88 o
2 11 4 823.16 782.94 44.77 o
3 11 4 2509.43 2476.88 144.30 o
4 11 4 31.78 26.45 17.73 <
5 11 4 372.08 476.97 38.66 o
6 11 4 244.55 398.74 57.60 o
7 11 4 813.41 908.51 89.57 o
8 11 4 96.41 81.52 32.89 <
9 11 4 278.14 250.57 62.54 o
-9 12 4 118.02 17.27 49.46 <
-8 12 4 171.09 133.22 46.05 <
-7 12 4 20.48 -37.58 31.02 <
-6 12 4 89.21 92.60 26.45 o
-5 12 4 37.39 43.60 22.84 <
-4 12 4 825.33 811.80 67.90 o
-3 12 4 129.10 117.93 24.96 o
-2 12 4 3.53 -11.21 13.91 <
-1 12 4 32.07 28.36 13.25 <
0 12 4 4.21 -1.79 13.00 <
1 12 4 22.94 30.81 12.58 <
2 12 4 3.72 -2.37 10.71 <
3 12 4 140.41 113.53 14.33 o
4 12 4 860.10 964.66 71.47 o
5 12 4 41.27 59.34 13.99 o
6 12 4 87.49 108.09 37.71 <
7 12 4 18.87 28.45 29.48 <
8 12 4 225.09 199.91 38.66 o
9 12 4 101.48 90.28 53.69 <
-8 13 4 6.82 45.68 41.86 <
-7 13 4 91.32 64.95 39.45 <
-6 13 4 424.86 522.48 47.59 o
-5 13 4 239.72 267.22 31.64 o
-4 13 4 37.95 29.03 20.64 <
-3 13 4 15.66 4.53 21.72 <
-2 13 4 228.62 183.84 21.93 o
-1 13 4 22.17 6.15 14.95 <
0 13 4 0.80 8.01 11.88 <
1 13 4 29.45 40.78 14.53 <
2 13 4 243.60 200.65 17.61 o
3 13 4 12.16 11.42 12.25 <
4 13 4 35.67 35.21 23.05 <
5 13 4 194.46 188.99 21.80 o
6 13 4 436.80 485.90 73.71 o
7 13 4 75.27 70.93 31.77 <
8 13 4 8.77 32.10 49.25 <
-8 14 4 110.08 75.16 44.77 <
-7 14 4 172.75 272.25 52.49 o
-6 14 4 34.27 50.45 26.41 <
-5 14 4 151.52 204.43 29.82 o
-4 14 4 120.27 114.07 28.36 o
-3 14 4 2.03 22.13 24.13 <
-2 14 4 1.15 -26.99 19.48 <
-1 14 4 186.18 137.99 24.46 o
0 14 4 519.68 501.64 31.52 o
1 14 4 213.79 197.12 19.35 o
2 14 4 1.06 5.19 13.70 <
3 14 4 2.39 16.49 12.13 <
4 14 4 155.06 115.98 26.54 o
5 14 4 113.69 124.33 18.77 o
6 14 4 38.92 64.91 36.38 <
7 14 4 200.73 281.71 45.97 o
8 14 4 136.84 56.31 51.16 <
-7 15 4 1.71 23.92 37.33 <
-6 15 4 36.73 -20.85 32.14 <
-5 15 4 448.28 551.59 51.37 o
-4 15 4 112.60 89.41 25.66 o
-3 15 4 712.20 920.18 78.24 o
-2 15 4 630.18 585.69 53.07 o
-1 15 4 182.03 191.19 26.00 o
0 15 4 0.28 11.88 15.28 <
1 15 4 182.94 210.12 20.68 o
2 15 4 663.35 681.36 37.29 o
3 15 4 669.12 608.40 49.21 o
4 15 4 101.77 127.07 30.19 o
5 15 4 442.30 479.13 40.49 o
6 15 4 43.37 35.88 26.58 <
7 15 4 1.78 37.33 54.86 <
-7 16 4 7.39 46.88 38.04 <
-6 16 4 106.25 92.48 38.74 <
-5 16 4 61.49 62.46 26.33 <
-4 16 4 373.71 315.39 49.29 o
-3 16 4 36.25 12.13 28.99 <
-2 16 4 770.40 783.23 80.56 o
-1 16 4 265.03 278.56 29.19 o
0 16 4 143.95 132.47 23.59 o
1 16 4 190.42 159.54 20.43 o
2 16 4 838.53 816.28 48.54 o
3 16 4 26.42 25.54 21.10 <
4 16 4 357.56 381.63 38.29 o
5 16 4 69.00 65.24 20.64 o
6 16 4 81.64 59.55 28.40 <
7 16 4 5.29 33.51 51.24 <
-6 17 4 133.24 181.22 44.02 o
-5 17 4 331.81 345.12 51.95 o
-4 17 4 48.99 51.70 33.47 <
-3 17 4 222.00 164.40 41.53 o
-2 17 4 37.24 9.30 20.72 <
-1 17 4 305.20 169.34 33.84 o
0 17 4 1.54 35.30 21.39 <
1 17 4 381.14 339.10 24.87 o
2 17 4 42.34 54.86 16.20 o
3 17 4 219.74 214.07 26.87 o
4 17 4 63.06 56.31 20.72 <
5 17 4 285.74 306.55 30.60 o
6 17 4 138.52 99.50 48.50 <
-6 18 4 16.36 -22.42 33.01 <
-5 18 4 52.45 -8.72 32.43 <
-4 18 4 24.19 2.16 33.01 <
-3 18 4 41.65 34.34 32.31 <
-2 18 4 28.12 32.68 22.63 <
-1 18 4 36.42 32.27 21.47 <
0 18 4 148.06 159.05 26.62 o
1 18 4 35.71 33.06 15.45 <
2 18 4 20.29 42.69 15.45 <
3 18 4 45.97 44.89 21.39 <
4 18 4 20.07 -15.53 18.85 <
5 18 4 44.62 6.44 31.52 <
6 18 4 13.46 4.44 44.27 <
-5 19 4 106.22 101.95 34.55 <
-4 19 4 50.79 72.26 34.59 <
-3 19 4 19.95 28.49 30.98 <
-2 19 4 88.88 86.75 28.20 o
-1 19 4 37.29 55.81 22.26 <
0 19 4 47.19 65.99 22.26 <
1 19 4 51.96 74.25 16.24 o
2 19 4 76.75 60.50 13.79 o
3 19 4 14.43 28.32 27.24 <
4 19 4 46.30 56.02 22.26 <
-4 20 4 121.72 77.65 35.84 <
-3 20 4 126.98 161.16 44.77 o
-2 20 4 274.32 310.95 46.47 o
-1 20 4 30.00 58.18 20.02 <
0 20 4 438.61 350.61 34.55 o
1 20 4 34.43 63.29 24.58 <
3 20 4 111.15 155.97 49.00 o
-1 21 4 454.38 312.11 62.25 o
0 21 4 4.44 2.87 42.86 <
-9 0 5 230.51 224.12 51.08 o
-7 0 5 138.74 104.81 27.53 o
-5 0 5 202.16 226.94 33.30 o
-3 0 5 282.86 310.78 33.72 o
-1 0 5 67.19 64.57 15.78 o
1 0 5 76.97 89.20 17.44 o
3 0 5 237.99 159.21 23.17 o
5 0 5 190.99 234.04 22.05 o
7 0 5 125.15 151.78 26.12 o
9 0 5 178.13 203.23 34.59 o
-9 1 5 66.43 35.92 32.43 <
-8 1 5 61.97 55.89 26.12 <
-7 1 5 78.84 104.52 19.23 o
-6 1 5 281.99 359.70 25.75 o
-5 1 5 1009.22 1264.97 57.64 o
-4 1 5 62.70 61.83 20.51 o
-3 1 5 471.53 607.41 39.37 o
-2 1 5 86.03 118.47 19.35 o
-1 1 5 219.08 231.01 13.70 o
0 1 5 162.11 169.68 12.46 o
1 1 5 197.10 157.26 16.15 o
2 1 5 96.56 95.68 16.40 o
3 1 5 365.16 267.85 20.64 o
4 1 5 87.48 117.10 12.87 o
5 1 5 934.49 1028.81 50.12 o
6 1 5 211.91 206.63 22.80 o
7 1 5 95.75 78.98 17.57 o
8 1 5 44.61 41.11 17.94 <
9 1 5 53.10 29.94 20.93 <
-9 2 5 23.01 -22.09 29.15 <
-8 2 5 469.48 505.00 42.02 o
-7 2 5 36.34 72.13 19.56 o
-6 2 5 88.65 110.54 19.56 o
-5 2 5 527.50 641.75 37.08 o
-4 2 5 81.64 64.49 20.02 o
-3 2 5 32.28 38.62 17.36 <
-1 2 5 402.12 353.64 17.36 o
0 2 5 96.28 94.43 10.92 o
2 2 5 747.96 615.71 38.74 o
3 2 5 35.15 46.38 12.13 o
4 2 5 113.92 137.54 13.29 o
5 2 5 460.38 522.44 35.09 o
6 2 5 64.00 64.45 16.82 o
7 2 5 25.98 18.56 15.16 <
8 2 5 402.14 412.65 38.49 o
9 2 5 16.60 -1.29 25.25 <
-9 3 5 19.54 -2.03 41.73 <
-8 3 5 272.58 300.36 34.67 o
-7 3 5 165.08 181.55 22.63 o
-6 3 5 86.83 128.23 20.06 o
-5 3 5 26.60 28.24 17.94 <
-4 3 5 76.83 95.93 19.85 o
-3 3 5 387.27 389.89 27.24 o
-2 3 5 100.31 151.86 20.06 o
-1 3 5 37.71 12.83 10.51 <
0 3 5 5.56 15.86 9.22 <
1 3 5 50.67 44.60 11.42 o
2 3 5 78.63 49.00 13.29 o
3 3 5 390.62 386.73 24.58 o
4 3 5 59.78 58.72 10.13 o
5 3 5 19.01 -3.94 11.34 <
6 3 5 67.69 84.26 16.53 o
7 3 5 133.22 154.19 23.71 o
8 3 5 207.94 207.34 35.96 o
9 3 5 26.40 5.40 27.32 <
-9 4 5 17.44 9.18 45.26 <
-8 4 5 113.78 157.30 30.23 o
-7 4 5 36.74 37.25 19.77 <
-6 4 5 539.45 524.98 34.59 o
-5 4 5 211.01 224.74 22.26 o
-4 4 5 89.33 65.86 19.14 o
-3 4 5 34.85 78.90 15.41 o
-2 4 5 113.46 69.52 20.76 o
-1 4 5 516.19 668.20 30.85 o
0 4 5 3345.74 3418.36 166.81 o
1 4 5 373.33 496.49 89.07 o
2 4 5 155.47 191.35 21.51 o
3 4 5 36.20 52.41 12.08 o
4 4 5 94.70 111.83 11.59 o
5 4 5 294.85 256.67 19.43 o
6 4 5 521.12 562.02 42.40 o
7 4 5 28.84 25.83 25.95 <
8 4 5 117.67 145.96 31.48 o
9 4 5 13.43 51.20 29.36 <
-9 5 5 9.74 60.75 46.38 <
-8 5 5 148.92 136.41 43.89 o
-7 5 5 101.33 104.44 20.18 o
-6 5 5 15.43 16.94 17.11 <
-5 5 5 10.39 26.49 16.65 <
-4 5 5 520.78 642.95 46.05 o
-3 5 5 73.79 81.10 15.07 o
-2 5 5 553.96 471.20 30.40 o
-1 5 5 15.73 20.47 14.41 <
0 5 5 14.17 32.27 11.46 <
1 5 5 21.94 28.07 11.79 <
3 5 5 64.68 73.38 11.25 o
4 5 5 381.86 408.91 36.21 o
5 5 5 11.29 15.61 10.13 <
6 5 5 12.53 39.37 25.21 <
7 5 5 114.82 148.58 31.56 o
8 5 5 200.16 325.11 41.24 o
9 5 5 13.12 -7.10 29.32 <
-9 6 5 137.28 202.44 53.78 o
-8 6 5 376.91 572.27 67.23 o
-7 6 5 105.03 160.00 35.51 o
-6 6 5 198.91 212.78 22.05 o
-5 6 5 100.01 156.06 19.56 o
-4 6 5 48.56 52.99 17.07 o
-3 6 5 197.84 199.04 20.89 o
-2 6 5 96.71 110.92 20.89 o
-1 6 5 396.01 496.57 28.57 o
0 6 5 1118.05 917.57 49.96 o
1 6 5 304.44 386.32 69.81 o
2 6 5 88.46 59.76 13.12 o
3 6 5 207.87 228.89 16.69 o
4 6 5 51.19 46.59 11.38 o
5 6 5 125.54 121.96 18.98 o
6 6 5 180.40 233.25 35.88 o
7 6 5 77.70 124.21 31.64 o
8 6 5 372.89 408.29 50.66 o
9 6 5 151.05 224.28 58.30 o
-9 7 5 21.52 71.55 47.76 <
-8 7 5 356.73 323.53 55.06 o
-7 7 5 57.13 54.03 32.06 <
-6 7 5 299.37 257.17 28.86 o
-5 7 5 75.32 71.05 17.40 o
-4 7 5 159.09 178.07 20.51 o
-3 7 5 744.74 723.47 42.94 o
-2 7 5 279.46 340.93 29.03 o
-1 7 5 114.18 104.94 15.86 o
0 7 5 16.90 23.50 12.29 <
1 7 5 126.99 112.29 14.58 o
2 7 5 203.31 131.43 19.06 o
3 7 5 675.67 562.27 41.98 o
4 7 5 141.68 137.83 14.53 o
5 7 5 89.56 92.35 16.98 o
7 7 5 48.89 52.07 31.44 <
8 7 5 255.38 249.16 42.52 o
9 7 5 29.95 59.42 49.29 <
-8 8 5 596.87 768.11 85.54 o
-7 8 5 262.54 276.40 56.02 o
-6 8 5 117.74 149.29 31.73 o
-5 8 5 68.71 60.96 27.45 <
-4 8 5 201.40 190.94 22.67 o
-3 8 5 32.91 18.31 18.56 <
-2 8 5 280.39 268.05 19.10 o
-1 8 5 49.49 78.32 17.07 o
0 8 5 380.27 377.14 24.71 o
1 8 5 40.07 45.60 11.84 o
2 8 5 233.26 197.79 22.22 o
3 8 5 32.97 24.17 13.25 <
4 8 5 178.34 168.26 16.74 o
5 8 5 54.98 54.36 17.27 o
6 8 5 87.02 108.76 37.66 <
7 8 5 224.32 329.26 46.84 o
8 8 5 562.99 723.47 73.75 o
-8 9 5 1.59 3.20 37.66 <
-7 9 5 28.31 112.20 43.69 <
-6 9 5 211.74 210.08 33.47 o
-5 9 5 1667.05 1853.32 121.38 o
-4 9 5 51.23 60.17 26.33 <
-3 9 5 469.40 517.34 33.84 o
-2 9 5 55.81 66.90 13.95 o
-1 9 5 97.37 86.54 17.94 o
0 9 5 1.43 22.76 15.03 <
1 9 5 114.33 112.00 15.70 o
2 9 5 66.07 100.16 16.32 o
3 9 5 380.79 348.86 35.09 o
4 9 5 36.63 31.27 8.35 o
5 9 5 1521.82 1649.01 148.54 o
6 9 5 167.15 197.00 46.26 o
7 9 5 30.19 0.91 28.90 <
8 9 5 1.54 21.64 51.62 <
-8 10 5 24.14 57.64 41.36 <
-7 10 5 89.14 144.76 44.47 o
-6 10 5 33.60 23.79 26.41 <
-5 10 5 202.76 165.32 28.82 o
-4 10 5 355.19 364.77 41.24 o
-3 10 5 131.13 147.38 28.49 o
-2 10 5 621.51 567.75 38.66 o
-1 10 5 37.24 44.39 16.11 <
0 10 5 132.53 139.65 17.19 o
1 10 5 34.60 18.69 13.62 <
2 10 5 561.28 450.60 37.25 o
3 10 5 94.05 83.84 15.45 o
4 10 5 375.92 359.95 51.28 o
5 10 5 158.05 152.90 24.25 o
6 10 5 35.52 19.31 33.80 <
7 10 5 104.45 266.39 41.90 o
8 10 5 26.75 3.70 55.11 <
-8 11 5 89.79 71.55 44.02 <
-7 11 5 6.04 -22.76 36.96 <
-6 11 5 37.25 2.62 26.78 <
-5 11 5 106.24 117.39 29.73 o
-4 11 5 99.12 105.06 30.44 o
-3 11 5 767.94 837.17 65.28 o
-2 11 5 243.16 252.60 25.75 o
-1 11 5 17.11 0.37 18.60 <
0 11 5 245.99 183.46 17.57 o
1 11 5 14.14 -6.40 14.29 <
2 11 5 213.74 181.80 19.81 o
3 11 5 705.93 682.65 47.46 o
4 11 5 78.20 48.92 21.18 <
5 11 5 79.24 86.33 21.55 o
6 11 5 26.82 5.07 31.06 <
7 11 5 5.08 15.90 49.33 <
8 11 5 111.19 112.04 60.01 <
-7 12 5 36.93 33.39 40.90 <
-6 12 5 107.60 154.52 43.35 o
-5 12 5 171.71 160.71 33.51 o
-4 12 5 137.88 169.55 31.19 o
-3 12 5 64.32 114.61 39.82 <
-2 12 5 249.37 169.80 25.91 o
-1 12 5 482.29 471.20 38.41 o
0 12 5 180.51 136.46 24.50 o
1 12 5 483.85 444.21 29.94 o
2 12 5 231.55 205.64 25.41 o
3 12 5 61.15 66.07 14.82 o
4 12 5 114.21 75.95 26.78 <
5 12 5 148.16 156.43 25.25 o
6 12 5 101.32 103.07 39.28 <
7 12 5 48.80 49.37 49.46 <
-7 13 5 7.72 43.93 37.04 <
-6 13 5 131.36 136.99 47.96 <
-5 13 5 65.01 68.02 37.91 <
-4 13 5 181.50 191.35 46.47 o
-3 13 5 223.18 150.12 42.77 o
-2 13 5 230.28 242.14 26.45 o
-1 13 5 156.06 39.99 25.79 <
0 13 5 2.00 6.73 20.06 <
1 13 5 197.91 215.94 19.97 o
2 13 5 210.44 213.45 28.20 o
3 13 5 242.65 199.78 18.98 o
4 13 5 252.06 223.58 38.45 o
5 13 5 47.74 58.97 14.41 o
6 13 5 96.07 188.90 53.61 o
7 13 5 9.76 17.23 46.05 <
-6 14 5 214.51 264.56 53.90 o
-5 14 5 22.80 29.07 36.83 <
-4 14 5 167.96 176.20 38.62 o
-3 14 5 60.47 7.81 36.04 <
-2 14 5 30.94 33.18 22.09 <
-1 14 5 56.76 57.80 26.04 <
0 14 5 786.67 687.55 50.45 o
1 14 5 60.47 95.34 18.44 o
2 14 5 22.29 -1.20 20.76 <
3 14 5 43.87 35.09 14.29 <
4 14 5 136.05 123.21 32.68 o
5 14 5 16.73 22.63 14.78 <
-6 15 5 12.58 108.38 40.94 <
-5 15 5 1.52 4.61 34.80 <
-4 15 5 90.62 89.86 39.78 <
-3 15 5 455.34 483.78 61.25 o
-2 15 5 101.90 26.00 38.91 <
-1 15 5 42.21 43.02 29.07 <
0 15 5 80.68 61.54 22.47 <
1 15 5 34.80 58.01 17.07 o
2 15 5 140.54 203.56 27.28 o
3 15 5 443.47 413.23 29.15 o
4 15 5 66.34 38.62 21.39 <
5 15 5 1.89 4.11 18.73 <
-5 16 5 59.10 103.53 42.48 <
-4 16 5 7.29 8.26 37.00 <
-3 16 5 87.54 64.86 38.00 <
-2 16 5 32.09 42.07 21.10 <
-1 16 5 122.11 129.85 29.73 o
0 16 5 51.64 61.54 21.93 <
1 16 5 88.69 53.40 17.03 o
2 16 5 31.16 28.78 22.05 <
3 16 5 109.14 143.60 26.87 o
4 16 5 5.82 59.17 24.71 <
5 16 5 82.46 97.42 26.12 o
-4 17 5 121.92 231.38 44.14 o
-3 17 5 48.79 54.94 32.97 <
-2 17 5 24.51 17.36 21.55 <
-1 17 5 47.01 75.00 30.44 <
0 17 5 5.14 -19.10 21.59 <
1 17 5 44.86 61.50 25.50 <
2 17 5 26.87 32.76 20.39 <
3 17 5 35.13 52.78 30.60 <
4 17 5 92.38 151.70 29.19 o
-3 18 5 6.00 10.92 37.58 <
-2 18 5 22.26 18.77 26.49 <
-1 18 5 96.90 121.51 39.95 o
0 18 5 2.93 15.66 22.71 <
1 18 5 103.71 45.18 27.57 <
2 18 5 21.89 -16.94 23.88 <
3 18 5 7.61 -6.48 39.08 <
-1 19 5 121.29 108.47 42.52 <
0 19 5 5.12 36.58 37.08 <
1 19 5 119.59 103.15 43.23 <
-8 0 6 124.07 201.07 49.96 o
-6 0 6 369.47 477.30 48.79 o
-4 0 6 15.74 27.57 43.10 <
-2 0 6 68.14 78.36 40.61 <
0 0 6 1668.19 1772.51 107.64 o
2 0 6 59.07 12.83 21.01 <
4 0 6 12.29 7.97 17.65 <
6 0 6 341.30 304.06 56.31 o
-8 1 6 147.05 179.89 31.98 o
-7 1 6 26.51 46.01 31.60 <
-6 1 6 39.44 53.61 21.88 <
-5 1 6 41.78 60.13 26.41 <
-4 1 6 85.41 100.04 33.30 o
-3 1 6 82.22 72.38 26.87 <
-2 1 6 37.95 30.85 30.69 <
-1 1 6 127.97 259.12 39.41 o
0 1 6 46.40 9.88 14.62 <
2 1 6 34.36 31.73 14.53 <
3 1 6 105.40 154.02 20.06 o
4 1 6 67.15 63.91 13.00 o
5 1 6 56.04 51.58 9.92 o
6 1 6 50.35 59.47 19.48 o
7 1 6 21.98 42.56 31.35 <
8 1 6 127.25 111.00 41.15 <
-8 2 6 573.43 810.14 59.88 o
-7 2 6 17.34 28.74 27.53 <
-6 2 6 468.32 566.50 42.69 o
-5 2 6 130.12 190.40 29.40 o
-4 2 6 110.38 158.46 37.58 o
-3 2 6 9.68 22.47 25.75 <
-2 2 6 391.93 459.36 43.98 o
-1 2 6 289.65 311.53 41.40 o
0 2 6 506.92 516.05 31.52 o
1 2 6 374.67 478.47 68.35 o
2 2 6 416.52 386.49 31.81 o
3 2 6 13.54 2.99 15.24 <
4 2 6 154.00 212.20 17.15 o
5 2 6 156.32 139.32 12.08 o
6 2 6 370.96 471.45 52.78 o
7 2 6 18.11 14.24 24.04 <
8 2 6 449.63 654.08 101.03 o
-8 3 6 178.83 247.16 53.11 o
-7 3 6 154.07 194.34 32.89 o
-6 3 6 92.33 107.39 26.58 o
-5 3 6 832.96 1158.00 71.30 o
-4 3 6 224.75 371.08 44.85 o
-3 3 6 922.98 983.30 64.82 o
-2 3 6 23.97 15.45 28.36 <
-1 3 6 165.47 218.88 24.58 o
0 3 6 22.32 12.13 14.45 <
1 3 6 195.92 189.69 23.34 o
2 3 6 24.29 21.10 15.36 <
3 3 6 929.31 959.42 63.29 o
4 3 6 304.94 390.02 38.08 o
6 3 6 71.93 83.92 27.37 o
7 3 6 128.29 200.41 35.67 o
-7 4 6 253.84 342.18 61.09 o
-6 4 6 27.33 48.42 25.21 <
-5 4 6 175.15 215.15 29.61 o
-4 4 6 227.82 377.14 41.03 o
-3 4 6 220.06 226.11 29.23 o
-2 4 6 115.72 139.20 30.40 o
-1 4 6 38.71 90.61 21.18 o
0 4 6 27.35 49.33 15.74 o
1 4 6 31.00 23.05 14.95 <
2 4 6 88.00 39.12 16.07 <
3 4 6 161.87 91.48 19.73 o
4 4 6 218.51 162.99 22.63 o
5 4 6 223.57 180.14 20.64 o
6 4 6 37.82 97.42 28.78 o
7 4 6 257.98 271.50 42.65 o
-7 5 6 34.14 44.56 47.17 <
-6 5 6 48.90 57.56 34.92 <
-5 5 6 600.61 724.39 45.64 o
-4 5 6 68.00 10.71 30.65 <
-3 5 6 33.38 28.03 27.37 <
-2 5 6 13.70 25.54 27.32 <
-1 5 6 74.08 69.31 21.18 o
0 5 6 264.00 230.76 21.76 o
1 5 6 57.72 41.69 17.32 <
2 5 6 18.47 25.12 15.12 <
3 5 6 41.38 23.50 18.44 <
4 5 6 49.90 25.58 11.21 <
5 5 6 640.59 555.96 53.65 o
6 5 6 36.84 16.40 28.36 <
7 5 6 31.91 21.93 28.90 <
-7 6 6 104.43 233.38 60.05 o
-6 6 6 113.43 118.06 53.82 <
-5 6 6 267.35 376.64 59.51 o
-4 6 6 61.95 77.49 30.60 <
-3 6 6 71.36 139.36 30.36 o
-2 6 6 168.76 180.39 30.40 o
-1 6 6 165.97 223.99 24.04 o
0 6 6 166.58 128.23 20.80 o
1 6 6 163.15 151.82 18.77 o
2 6 6 127.70 72.30 16.44 o
3 6 6 80.87 83.38 18.19 o
4 6 6 56.52 63.83 12.42 o
5 6 6 322.72 260.33 28.90 o
6 6 6 114.96 175.32 35.30 o
7 6 6 141.56 303.35 65.49 o
-7 7 6 246.39 319.75 64.16 o
-6 7 6 9.83 -12.17 44.81 <
-5 7 6 168.14 110.54 48.05 <
-4 7 6 30.31 69.06 44.68 <
-3 7 6 1029.55 1106.55 77.61 o
-2 7 6 7.01 8.06 24.92 <
-1 7 6 53.39 104.56 21.43 o
0 7 6 29.11 12.00 18.31 <
1 7 6 38.87 9.14 14.70 <
2 7 6 6.35 -8.97 20.02 <
3 7 6 1077.93 1128.81 84.55 o
4 7 6 35.26 21.93 10.13 <
5 7 6 198.77 163.49 21.84 o
6 7 6 7.04 -28.99 28.53 <
7 7 6 176.17 188.90 65.82 <
-7 8 6 4.42 -14.58 45.26 <
-6 8 6 467.14 516.38 72.92 o
-5 8 6 148.88 118.35 48.09 <
-4 8 6 292.64 236.08 50.33 o
-3 8 6 31.79 15.82 44.27 <
-2 8 6 386.56 572.86 73.00 o
-1 8 6 431.86 442.09 37.08 o
0 8 6 966.17 1043.85 62.46 o
1 8 6 455.90 484.70 32.14 o
2 8 6 538.14 791.78 59.84 o
3 8 6 43.40 63.04 18.44 o
4 8 6 226.74 139.74 15.20 o
5 8 6 189.50 163.61 22.26 o
6 8 6 395.76 584.94 84.84 o
7 8 6 5.69 -59.17 54.98 <
-6 9 6 69.33 123.62 46.88 <
-5 9 6 14.18 -3.82 41.19 <
-4 9 6 289.51 282.46 53.15 o
-3 9 6 31.21 -1.83 38.66 <
-2 9 6 168.90 132.34 41.57 o
-1 9 6 245.52 148.50 26.37 o
0 9 6 166.21 152.61 24.33 o
1 9 6 232.61 224.41 22.71 o
2 9 6 207.70 206.84 23.84 o
3 9 6 26.97 24.67 18.19 <
4 9 6 228.04 201.74 18.85 o
5 9 6 10.49 20.02 17.36 <
-6 10 6 94.61 90.74 43.23 <
-5 10 6 10.44 -50.29 31.85 <
-4 10 6 7.22 13.91 39.95 <
-3 10 6 272.58 350.69 57.89 o
-2 10 6 57.32 18.73 34.84 <
-1 10 6 74.36 58.55 22.92 <
0 10 6 338.43 311.45 41.07 o
1 10 6 70.66 67.23 18.81 o
2 10 6 58.68 45.22 18.77 <
3 10 6 199.41 236.70 62.33 o
4 10 6 5.54 3.49 21.01 <
5 10 6 11.62 -1.58 16.24 <
-5 11 6 58.47 133.18 39.82 o
-4 11 6 10.59 34.51 43.89 <
-3 11 6 224.34 257.30 55.48 o
-2 11 6 71.51 53.69 41.78 <
-1 11 6 121.63 49.50 23.13 <
0 11 6 18.84 21.68 27.99 <
1 11 6 139.43 180.51 20.39 o
2 11 6 51.15 41.90 22.26 <
3 11 6 202.51 159.13 23.96 o
4 11 6 10.96 -23.79 20.93 <
5 11 6 43.58 36.54 30.27 <
-5 12 6 0.16 49.83 41.15 <
-4 12 6 45.78 17.48 42.90 <
-3 12 6 90.17 158.46 46.76 o
-2 12 6 208.22 222.17 51.37 o
-1 12 6 6.33 21.80 21.72 <
0 12 6 3.96 17.07 29.57 <
1 12 6 6.43 -9.34 15.86 <
2 12 6 203.51 212.53 31.73 o
3 12 6 64.62 44.31 18.56 <
4 12 6 61.84 82.89 28.69 <
-4 13 6 15.34 47.46 40.07 <
-3 13 6 210.74 276.03 49.13 o
-2 13 6 5.67 -37.50 34.76 <
-1 13 6 235.63 141.85 25.21 o
0 13 6 3.93 -9.51 28.15 <
1 13 6 274.99 342.72 34.26 o
2 13 6 5.52 -9.14 23.63 <
3 13 6 179.29 120.97 24.83 o
4 13 6 21.26 32.10 23.34 <
-3 14 6 66.48 66.90 44.89 <
-2 14 6 240.53 335.12 60.75 o
-1 14 6 71.90 5.52 40.45 <
0 14 6 33.84 70.35 30.40 <
1 14 6 75.20 29.07 25.29 <
2 14 6 205.06 244.55 55.60 o
3 14 6 53.57 74.00 32.68 <
-2 15 6 153.84 155.85 47.38 o
-1 15 6 96.05 88.95 48.00 <
0 15 6 124.86 139.86 41.78 o
1 15 6 68.69 29.53 23.96 <
2 15 6 152.22 158.30 53.36 <
-5 0 7 277.21 337.11 60.84 o
-3 0 7 27.21 113.12 52.07 <
-1 0 7 51.19 92.27 50.29 <
1 0 7 38.25 90.65 30.56 <
3 0 7 20.78 -13.04 22.13 <
5 0 7 237.05 193.80 36.34 o
-5 1 7 403.16 574.27 54.98 o
-4 1 7 69.89 94.02 38.54 <
-3 1 7 241.64 371.04 47.63 o
-2 1 7 36.88 97.79 35.09 <
-1 1 7 59.00 59.71 34.01 <
0 1 7 0.77 13.37 23.05 <
1 1 7 50.00 13.08 22.26 <
2 1 7 47.99 76.45 22.38 o
4 1 7 66.57 52.95 15.45 o
-5 2 7 206.12 380.05 44.81 o
-4 2 7 19.33 12.71 33.89 <
-3 2 7 4.61 11.54 34.09 <
-2 2 7 289.22 389.18 43.10 o
-1 2 7 213.67 283.00 40.86 o
0 2 7 54.22 18.85 23.63 <
1 2 7 187.70 153.90 27.08 o
2 2 7 272.44 189.65 28.45 o
3 2 7 3.59 -11.79 16.90 <
4 2 7 24.93 16.28 13.70 <
5 2 7 244.71 301.11 58.72 o
-5 3 7 15.05 -56.97 32.56 <
-4 3 7 13.13 26.95 35.13 <
-3 3 7 286.47 408.87 46.51 o
-2 3 7 40.36 32.43 32.14 <
-1 3 7 24.36 31.81 32.64 <
0 3 7 0.32 29.98 23.92 <
1 3 7 34.08 15.74 18.35 <
2 3 7 52.71 64.03 21.18 o
3 3 7 299.07 305.97 33.80 o
4 3 7 18.05 28.57 20.85 <
5 3 7 10.82 -15.45 27.66 <
-5 4 7 95.72 231.38 57.68 o
-4 4 7 11.07 -23.42 32.68 <
-3 4 7 2.27 45.93 35.34 <
-2 4 7 77.41 109.80 35.71 o
-1 4 7 123.03 199.33 38.04 o
0 4 7 1086.08 1203.31 66.19 o
1 4 7 118.11 110.54 21.55 o
2 4 7 104.84 150.53 25.08 o
3 4 7 1.74 -17.36 17.52 <
4 4 7 11.33 6.48 19.68 <
5 4 7 98.53 115.24 39.62 <
-4 5 7 71.88 13.54 51.20 <
-3 5 7 17.97 60.79 36.38 <
-2 5 7 182.26 193.93 37.42 o
-1 5 7 0.96 8.72 31.31 <
0 5 7 26.46 54.65 23.59 <
1 5 7 0.86 -5.11 18.31 <
2 5 7 215.98 289.85 32.35 o
3 5 7 19.91 10.34 17.48 <
4 5 7 56.93 40.86 23.75 <
-4 6 7 10.51 -44.02 45.22 <
-3 6 7 138.48 200.95 60.42 o
-2 6 7 56.96 91.07 31.10 <
-1 6 7 49.91 58.68 33.14 <
0 6 7 488.54 488.52 37.00 o
1 6 7 38.61 44.64 21.26 <
2 6 7 54.90 56.93 20.31 <
3 6 7 107.21 32.56 17.27 <
-4 7 7 40.07 -24.54 43.27 <
-3 7 7 367.32 494.99 65.78 o
-2 7 7 6.04 45.72 39.91 <
-1 7 7 27.12 68.35 46.47 <
0 7 7 10.06 23.25 22.13 <
1 7 7 19.62 25.29 25.95 <
2 7 7 5.02 18.44 18.56 <
3 7 7 370.47 223.91 37.46 o
-3 8 7 27.87 22.47 44.93 <
-2 8 7 96.59 140.77 42.27 o
-1 8 7 11.22 83.26 43.27 <
0 8 7 0.32 8.80 44.35 <
1 8 7 10.43 15.16 33.18 <
2 8 7 75.54 49.54 24.58 <
3 8 7 37.28 43.52 25.17 <
-2 9 7 16.47 59.51 47.42 <
-1 9 7 93.09 38.99 45.18 <
0 9 7 34.62 12.54 45.72 <
1 9 7 125.71 133.55 35.46 o
2 9 7 22.57 102.28 27.28 o
-1 10 7 48.74 62.12 43.81 <
0 10 7 2.31 22.88 42.77 <
1 10 7 35.76 -10.17 27.53 <
loop_
_twin_individual_id
_twin_individual_mass_fraction_refined
_twin_individual_twin_matrix_11
_twin_individual_twin_matrix_12
_twin_individual_twin_matrix_13
_twin_individual_twin_matrix_21
_twin_individual_twin_matrix_22
_twin_individual_twin_matrix_23
_twin_individual_twin_matrix_31
_twin_individual_twin_matrix_32
_twin_individual_twin_matrix_33
1 0.583(3) 1 0 0 0 1 0 0 0 1
2 0.417(3) 1 0 0 0 -1 0 0 0 -1
