#------------------------------------------------------------------------------
#$Date: 2019-09-02 12:35:39 +0300 (Mon, 02 Sep 2019) $
#$Revision: 217920 $
#$URL: file:///home/coder/svn-repositories/cod/cif/7/23/36/7233612.cif $
#------------------------------------------------------------------------------
#
# This file is available in the Crystallography Open Database (COD),
# http://www.crystallography.net/
#
# All data on this site have been placed in the public domain by the
# contributors.
#
data_7233612
loop_
_publ_author_name
'Hamdi Ben Yahia'
'Ute Ch. Rodewald'
'Claus Feldmann'
'Marcus Roming'
'Francois Weill'
'Rainer Pottgen'
_publ_section_title
;
 X-Ray diffraction and SAED characterisations of RE4O4[PO4]Cl (RE = La,
 Pr, and Nd) and photoluminescence properties of Eu3+-doped La4O4[PO4]Cl
;
_journal_name_full               'Journal of Materials Chemistry C'
_journal_page_first              1131
_journal_page_last               1140
_journal_paper_doi               10.1039/C3TC31466A
_journal_volume                  2
_journal_year                    2014
_chemical_formula_moiety         'Cl1 O8 P1 Pr4'
_chemical_formula_sum            'Cl O8 P Pr4'
_chemical_formula_weight         758.1
_space_group_IT_number           31
_space_group_name_Hall           'P 2ac -2'
_space_group_name_H-M_alt        'P m n 21'
_symmetry_cell_setting           orthorhombic
_symmetry_Int_Tables_number      31
_symmetry_space_group_name_Hall  'P 2ac -2'
_symmetry_space_group_name_H-M   'P m n 21'
_cell_angle_alpha                90
_cell_angle_beta                 90
_cell_angle_gamma                90
_cell_formula_units_Z            2
_cell_length_a                   13.1523(10)
_cell_length_b                   5.8211(3)
_cell_length_c                   5.8211(3)
_cell_measurement_reflns_used    4679
_cell_measurement_temperature    293
_cell_measurement_theta_max      30.44
_cell_measurement_theta_min      3.1
_cell_volume                     445.67(5)
_diffrn_ambient_temperature      293
_diffrn_measured_fraction_theta_full 1
_diffrn_measured_fraction_theta_max 1
_diffrn_measurement_device       'four-cycle diffractometer'
_diffrn_measurement_device_type  'IPDS Stoe'
_diffrn_measurement_method       Multi-Scan
_diffrn_radiation_monochromator  graphite
_diffrn_radiation_probe          x-ray
_diffrn_radiation_source         'X-ray tube'
_diffrn_radiation_type           'Mo K\a'
_diffrn_radiation_wavelength     0.71069
_diffrn_reflns_av_R_equivalents  0.0677
_diffrn_reflns_av_sigmaI/netI    0.0683
_diffrn_reflns_limit_h_max       18
_diffrn_reflns_limit_h_min       -18
_diffrn_reflns_limit_k_max       8
_diffrn_reflns_limit_k_min       -8
_diffrn_reflns_limit_l_max       8
_diffrn_reflns_limit_l_min       -8
_diffrn_reflns_number            4679
_diffrn_reflns_theta_full        30.44
_diffrn_reflns_theta_max         30.44
_diffrn_reflns_theta_min         3.1
_exptl_absorpt_coefficient_mu    21.966
_exptl_absorpt_correction_T_max  0.680
_exptl_absorpt_correction_T_min  0.375
_exptl_absorpt_correction_type   gaussian
_exptl_crystal_colour            green
_exptl_crystal_density_diffrn    5.6471
_exptl_crystal_description       plate
_exptl_crystal_F_000             664
_exptl_crystal_size_max          0.055
_exptl_crystal_size_mid          0.035
_exptl_crystal_size_min          0.016
_refine_diff_density_max         0.83
_refine_diff_density_min         -0.63
_refine_ls_abs_structure_details
'  291 of Friedel pairs used in the refinement'
_refine_ls_abs_structure_Flack   0.63(11)
_refine_ls_extinction_coef       1030(110)
_refine_ls_extinction_method
'B-C type 1 Gaussian isotropic (Becker & Coppens, 1974)'
_refine_ls_goodness_of_fit_gt    1.03
_refine_ls_goodness_of_fit_ref   1.03
_refine_ls_number_constraints    1
_refine_ls_number_parameters     62
_refine_ls_number_reflns         695
_refine_ls_number_restraints     0
_refine_ls_R_factor_all          0.0268
_refine_ls_R_factor_gt           0.0268
_refine_ls_shift/su_max          0.0003
_refine_ls_shift/su_mean         0.0001
_refine_ls_structure_factor_coef Fsqd
_refine_ls_weighting_details     w=1/(\s^2^(I)+0.0009I^2^)
_refine_ls_weighting_scheme      sigma
_refine_ls_wR_factor_gt          0.0605
_refine_ls_wR_factor_ref         0.0605
_reflns_number_gt                695
_reflns_number_total             1417
_reflns_threshold_expression     I>3\s(I)
_cod_data_source_file            c3tc31466a_4.cif
_cod_data_source_block           4
_cod_depositor_comments
;
The following automatic conversions were performed:

data item '_diffrn_radiation_probe' value 'X-ray' was changed to
'x-ray' in accordance with the built-in table derived from the CIF
Core dictionary named 'cif_core.dic' version 2.4.5 last updated on
2014-11-21.

Automatic conversion script
Id: cif_fix_values 6909 2019-04-08 15:41:33Z antanas 
;
_cod_original_sg_symbol_Hall     'P 2ac -2 '
_cod_original_formula_sum        'Cl1 O8 P1 Pr4'
_cod_database_code               7233612
loop_
_symmetry_equiv_pos_site_id
_symmetry_equiv_pos_as_xyz
1 x,y,z
2 -x+1/2,-y,z+1/2
3 x+1/2,-y,z+1/2
4 -x,y,z
loop_
_atom_site_label
_atom_site_type_symbol
_atom_site_fract_x
_atom_site_fract_y
_atom_site_fract_z
_atom_site_adp_type
_atom_site_U_iso_or_equiv
_atom_site_symmetry_multiplicity
_atom_site_occupancy
_atom_site_calc_flag
_atom_site_refinement_flags
_atom_site_disorder_assembly
_atom_site_disorder_group
Pr1 Pr 0.1651(2) 0.9845(6) 0.9422(2) Uani 0.0084(8) 4 1 d . . .
Pr2 Pr 0.3358(3) 0.4925(7) 0.9657(2) Uani 0.0124(9) 4 1 d . . .
O1 O 0.2489(9) 0.256(6) 0.696(5) Uiso 0.002(2) 4 1 d . . .
O2 O 0.2734(13) 0.760(9) 0.703(7) Uiso 0.018(3) 4 1 d . . .
P P 0 0.4544(13) 0.9958(9) Uani 0.013(2) 2 1 d . . .
O3 O 0 0.201(3) 0.955(5) Uani 0.023(5) 2 1 d . . .
O4 O 0.9046(12) 0.566(2) 0.887(2) Uani 0.018(3) 4 1 d . . .
O5 O 0 0.506(5) 0.257(2) Uani 0.020(5) 2 1 d . . .
Cl Cl 0.5 0.060(6) 0.006(4) Uani 0.122(12) 2 1 d . . .
loop_
_atom_site_aniso_label
_atom_site_aniso_type_symbol
_atom_site_aniso_U_11
_atom_site_aniso_U_22
_atom_site_aniso_U_33
_atom_site_aniso_U_12
_atom_site_aniso_U_13
_atom_site_aniso_U_23
Pr1 Pr 0.0078(14) 0.0065(14) 0.0109(15) -0.0020(12) 0.0032(9) -0.0021(8)
Pr2 Pr 0.0146(18) 0.0129(17) 0.0098(14) -0.0016(19) -0.0040(8) 0.0006(11)
P P 0.013(4) 0.014(4) 0.011(3) 0 0 -0.007(2)
O3 O 0.014(8) 0.016(7) 0.040(10) 0 0 -0.013(11)
O4 O 0.020(7) 0.012(6) 0.022(5) 0.006(5) -0.007(5) -0.011(4)
O5 O 0.009(7) 0.031(10) 0.019(6) 0 0 0.004(10)
Cl Cl 0.039(9) 0.17(3) 0.16(2) 0 0 -0.08(2)
loop_
_atom_type_symbol
_atom_type_scat_dispersion_real
_atom_type_scat_dispersion_imag
_atom_type_scat_source
Cl 0.1484 0.1585 'International Tables Vol C tables 4.2.6.8 and 6.1.1.1'
O 0.0106 0.0060 'International Tables Vol C tables 4.2.6.8 and 6.1.1.1'
P 0.1023 0.0942 'International Tables Vol C tables 4.2.6.8 and 6.1.1.1'
Pr -0.2180 2.8214 'International Tables Vol C tables 4.2.6.8 and 6.1.1.1'
loop_
_geom_angle_atom_site_label_1
_geom_angle_atom_site_label_2
_geom_angle_atom_site_label_3
_geom_angle_site_symmetry_1
_geom_angle_site_symmetry_2
_geom_angle_site_symmetry_3
_geom_angle
O3 P O4 . . 1_455 110.4(8)
O3 P O4 . . 4_655 110.4(8)
O3 P O5 . . 1_556 110.4(15)
O4 P O4 1_455 . 4_655 108.3(8)
O4 P O5 1_455 . 1_556 108.6(8)
O4 P O5 4_655 . 1_556 108.6(8)
loop_
_geom_bond_atom_site_label_1
_geom_bond_atom_site_label_2
_geom_bond_site_symmetry_1
_geom_bond_site_symmetry_2
_geom_bond_distance
Pr1 Pr1 . 2_574 3.672(3)
Pr1 Pr1 . 2_575 3.672(3)
Pr1 Pr2 . . 3.641(5)
Pr1 Pr2 . 1_565 3.715(5)
Pr1 Pr2 . 2_564 3.925(4)
Pr1 O1 . 1_565 2.40(3)
Pr1 O1 . 2_565 2.33(3)
Pr1 O2 . . 2.38(4)
Pr1 O2 . 2_575 2.27(5)
Pr1 P . . 3.787(7)
Pr1 P . 1_565 3.506(7)
Pr1 O3 . 1_565 2.511(9)
Pr1 O4 . 4_655 2.624(14)
Pr1 O4 . 4_665 3.521(14)
Pr1 O5 . 1_556 3.98(2)
Pr1 Cl . 2_565 3.350(19)
Pr1 Cl . 2_566 3.95(2)
Pr2 Pr2 . 2_564 3.684(3)
Pr2 Pr2 . 2_565 3.684(3)
Pr2 O1 . . 2.38(3)
Pr2 O1 . 2_565 2.27(3)
Pr2 O2 . . 2.33(5)
Pr2 O2 . 2_565 2.47(4)
Pr2 P . 2_564 3.499(5)
Pr2 P . 2_565 3.779(5)
Pr2 O3 . 2_565 4.00(2)
Pr2 O4 . 3_464 3.504(12)
Pr2 O4 . 3_465 2.636(12)
Pr2 O4 . 4_655 3.224(16)
Pr2 O5 . 2_565 2.478(8)
Pr2 Cl . 1_556 3.33(3)
Pr2 Cl . 1_566 3.95(3)
O1 O2 . 1_545 2.91(6)
O1 O2 . . 2.95(6)
O1 O2 . 2_564 2.88(5)
O1 O2 . 2_565 2.97(5)
O1 P . . 3.886(19)
O1 P . 2_564 3.89(2)
O1 O3 . . 3.62(2)
O1 O4 . 3_464 2.92(3)
O1 O4 . 4_655 2.93(3)
O1 O5 . 2_565 3.60(2)
O1 Cl . 1_556 3.93(2)
O1 Cl . 2_555 3.91(3)
O2 P . 2_564 3.45(3)
O2 O3 . 2_564 3.32(3)
O2 O4 . 3_464 3.15(4)
O2 O4 . 4_655 2.81(3)
O2 O5 . 2_565 3.37(3)
O2 Cl . 1_566 3.88(4)
O2 Cl . 2_565 3.92(3)
P O3 . . 1.496(19)
P O4 . 1_455 1.548(15)
P O4 . 4_655 1.548(15)
P O5 . 1_556 1.549(16)
O3 O4 . 1_445 3.92(2)
O3 O4 . 1_455 2.50(2)
O3 O4 . 4_645 3.92(2)
O3 O4 . 4_655 2.50(2)
O3 O5 . 1_556 2.50(3)
O3 Cl . 2_555 3.02(4)
O3 Cl . 2_556 3.55(4)
O4 O4 . 4_755 2.51(2)
O4 O5 . 1_655 3.892(18)
O4 O5 . 1_656 2.516(18)
O4 Cl . 2_665 3.35(3)
O5 Cl . 2_555 3.60(4)
O5 Cl . 2_565 2.91(4)
loop_
_refln_index_h
_refln_index_k
_refln_index_l
_refln_F_squared_calc
_refln_F_squared_meas
_refln_F_squared_sigma
_refln_observed_status
0 0 -8 14065.90 11735.10 381.31 o
2 0 -8 4811.33 4424.36 352.32 o
4 0 -8 3025.89 2596.09 362.11 o
0 1 -8 7006.36 6232.41 269.43 o
2 1 -8 906.23 845.97 216.85 o
4 1 -8 1190.70 829.16 239.01 o
0 2 -8 8948.99 8000.38 506.00 o
2 2 -8 2279.15 1558.34 247.70 o
1 0 -7 1138.93 1166.78 273.19 o
3 0 -7 8614.03 8476.87 513.26 o
5 0 -7 910.56 916.36 281.58 o
7 0 -7 920.83 1215.03 345.70 o
9 0 -7 5193.37 4829.19 309.39 o
1 1 -7 6060.16 5411.25 218.80 o
3 1 -7 19908.80 18930.50 477.68 o
5 1 -7 3237.76 3193.37 271.90 o
7 1 -7 5552.72 5161.89 216.21 o
9 1 -7 13314.00 12621.00 666.61 o
1 2 -7 1036.78 983.06 211.93 o
3 2 -7 6971.58 7001.60 253.44 o
7 2 -7 1247.63 1241.63 201.57 o
9 2 -7 5368.33 4752.81 310.59 o
1 3 -7 4141.20 3916.09 191.30 o
3 3 -7 15972.50 15454.50 381.56 o
5 3 -7 2501.23 2591.83 231.11 o
6 3 -7 575.27 656.14 212.88 o
7 3 -7 4248.70 3683.78 225.82 o
0 4 -7 1542.70 1622.00 292.82 o
1 4 -7 1002.87 945.16 207.59 o
3 4 -7 5043.42 4912.22 237.18 o
0 0 -6 27512.90 25486.20 477.05 o
2 0 -6 4965.28 4836.07 250.05 o
4 0 -6 10601.00 9680.66 336.30 o
6 0 -6 32798.60 31423.20 1286.56 o
8 0 -6 4656.61 4389.10 224.58 o
10 0 -6 6284.49 6633.70 512.69 o
12 0 -6 13979.40 14177.50 1173.49 o
0 1 -6 7793.35 7799.10 290.54 o
2 1 -6 1213.76 1100.66 171.54 o
3 1 -6 278.71 522.24 172.07 o
4 1 -6 1190.86 1230.58 177.07 o
6 1 -6 7170.63 6984.55 198.96 o
8 1 -6 771.77 614.70 204.51 o
10 1 -6 1347.92 1144.18 201.29 o
12 1 -6 3950.04 3933.89 216.71 o
0 2 -6 32388.90 31347.90 1172.16 o
2 2 -6 8892.10 8855.53 200.84 o
4 2 -6 5775.67 5591.01 234.67 o
6 2 -6 21186.10 20211.30 673.97 o
8 2 -6 2546.36 2490.60 215.11 o
10 2 -6 8039.10 7749.17 276.68 o
12 2 -6 14567.60 13411.70 643.61 o
0 3 -6 6003.17 5508.22 267.90 o
2 3 -6 1064.19 1100.32 205.02 o
3 3 -6 966.52 1152.35 185.46 o
4 3 -6 1133.75 1068.42 181.91 o
6 3 -6 5434.03 5494.17 336.46 o
7 3 -6 715.86 760.41 205.88 o
8 3 -6 740.42 674.77 214.68 o
9 3 -6 1158.59 1247.09 239.02 o
10 3 -6 1093.92 987.08 219.65 o
0 4 -6 17363.70 16487.40 596.34 o
2 4 -6 2778.51 2866.78 195.28 o
3 4 -6 720.91 726.93 199.17 o
4 4 -6 6751.61 6881.37 238.07 o
6 4 -6 18745.10 18757.10 529.39 o
8 4 -6 2908.78 2700.42 245.12 o
0 5 -6 3726.08 3931.56 322.56 o
1 5 -6 690.35 713.49 233.06 o
2 5 -6 882.28 898.52 236.14 o
3 5 -6 2456.36 2383.86 234.71 o
4 5 -6 991.52 933.22 244.05 o
6 5 -6 3033.02 2936.02 258.78 o
1 0 -5 1420.03 1170.96 285.23 o
3 0 -5 8423.01 7877.41 398.83 o
7 0 -5 1246.77 1049.08 297.25 o
9 0 -5 5959.39 6106.56 320.70 o
1 1 -5 13537.40 13262.90 290.75 o
3 1 -5 44402.80 41028.30 1433.56 o
5 1 -5 7776.77 7372.39 182.23 o
7 1 -5 12027.70 12407.40 454.72 o
9 1 -5 28220.20 28195.70 897.65 o
11 1 -5 3712.43 3744.39 179.72 o
13 1 -5 8176.42 8392.63 308.34 o
0 2 -5 1132.12 1228.38 233.40 o
1 2 -5 1403.71 1296.89 167.11 o
3 2 -5 8077.74 7707.61 286.44 o
4 2 -5 369.81 481.47 150.15 o
5 2 -5 723.70 743.45 163.61 o
6 2 -5 613.18 581.89 187.31 o
7 2 -5 698.38 725.76 180.10 o
9 2 -5 4066.59 4284.36 247.73 o
12 2 -5 492.01 675.60 212.79 o
13 2 -5 888.84 758.10 216.47 o
0 3 -5 913.80 808.63 202.85 o
1 3 -5 9151.19 9324.80 209.85 o
3 3 -5 33815.10 33127.40 919.36 o
5 3 -5 5856.12 5744.55 183.05 o
7 3 -5 9033.54 8897.19 349.41 o
9 3 -5 22557.70 22745.40 688.61 o
11 3 -5 2573.91 2838.76 229.27 o
13 3 -5 6201.63 5757.70 337.12 o
0 4 -5 3701.57 3362.41 267.70 o
1 4 -5 935.09 1068.82 181.02 o
3 4 -5 4326.35 4225.58 252.53 o
4 4 -5 664.61 796.38 188.30 o
5 4 -5 526.70 678.29 172.19 o
6 4 -5 2345.78 2525.60 217.70 o
7 4 -5 1164.18 1170.28 212.95 o
9 4 -5 3486.44 3546.76 253.40 o
0 5 -5 1024.82 1014.10 276.27 o
1 5 -5 5485.11 5694.45 208.81 o
3 5 -5 19030.50 19090.10 324.38 o
5 5 -5 4097.19 3998.77 245.38 o
6 5 -5 863.33 807.70 246.01 o
7 5 -5 6030.54 5933.72 250.79 o
9 5 -5 13461.80 13477.60 597.58 o
0 6 -5 3772.41 3243.68 348.44 o
2 6 -5 884.36 838.83 239.60 o
3 6 -5 2479.41 2290.60 219.29 o
4 6 -5 965.03 846.07 258.57 o
6 6 -5 3211.84 2702.69 268.99 o
0 0 -4 95153.10 91575.60 669.58 o
2 0 -4 19106.90 18182.00 516.00 o
4 0 -4 11323.00 10690.80 579.28 o
6 0 -4 54368.50 50315.90 2476.85 o
8 0 -4 4029.03 4234.68 265.80 o
10 0 -4 14023.40 14510.50 650.87 o
12 0 -4 32953.10 33733.50 675.74 o
14 0 -4 2420.34 2379.55 305.18 o
16 0 -4 6055.16 5595.71 343.00 o
0 1 -4 6960.52 6453.44 294.11 o
2 1 -4 859.95 910.86 185.18 o
3 1 -4 335.37 607.33 187.10 o
6 1 -4 7897.80 7790.28 270.74 o
9 1 -4 633.38 573.41 141.67 o
10 1 -4 873.93 878.99 182.00 o
12 1 -4 3242.25 3405.35 181.49 o
0 2 -4 51854.90 49032.90 2358.00 o
2 2 -4 8485.11 8272.36 298.96 o
4 2 -4 20964.30 19870.00 625.99 o
6 2 -4 55640.10 53667.40 2132.87 o
8 2 -4 8030.23 7993.55 279.78 o
10 2 -4 9747.44 10175.90 256.79 o
12 2 -4 23544.30 24710.50 492.96 o
14 2 -4 1670.47 1734.96 227.11 o
0 3 -4 5796.62 5542.07 264.12 o
1 3 -4 840.40 661.43 171.24 o
2 3 -4 754.27 637.02 165.60 o
3 3 -4 2836.78 2747.19 169.93 o
4 3 -4 612.08 624.21 184.56 o
5 3 -4 725.25 705.84 173.10 o
6 3 -4 5086.74 4719.77 245.71 o
9 3 -4 1261.68 1381.97 218.80 o
12 3 -4 2601.30 3083.48 234.03 o
0 4 -4 46623.60 46352.80 2067.22 o
2 4 -4 10635.40 10977.90 198.92 o
3 4 -4 648.03 623.81 196.02 o
4 4 -4 7354.87 7432.28 289.96 o
6 4 -4 27491.00 27825.40 799.36 o
8 4 -4 2886.05 3067.97 253.28 o
10 4 -4 9065.54 9353.19 399.61 o
12 4 -4 19538.40 19768.70 280.43 o
0 5 -4 3410.81 3233.13 303.54 o
1 5 -4 931.60 1062.22 200.29 o
3 5 -4 4469.55 4421.29 206.57 o
4 5 -4 727.16 725.79 217.86 o
6 5 -4 2378.03 2442.68 221.47 o
7 5 -4 1102.91 982.83 254.75 o
9 5 -4 3748.18 3514.13 238.53 o
0 6 -4 17286.80 17696.10 545.49 o
2 6 -4 2839.75 2900.24 233.18 o
3 6 -4 947.94 1010.50 238.42 o
4 6 -4 6905.24 7164.26 250.63 o
6 6 -4 18481.70 19027.20 411.91 o
8 6 -4 2945.73 2865.80 322.30 o
0 7 -4 1692.38 1875.56 347.20 o
1 7 -4 1052.74 840.77 244.85 o
3 7 -4 5263.30 5401.17 271.19 o
1 0 -3 3293.04 2537.71 255.02 o
3 0 -3 6626.87 5436.70 703.53 o
5 0 -3 1031.69 648.90 204.90 o
9 0 -3 1805.94 1896.35 260.31 o
15 0 -3 1871.14 1989.35 302.75 o
1 1 -3 18637.60 18346.80 427.93 o
3 1 -3 101011.00 96346.40 2901.86 o
5 1 -3 12541.00 12474.20 381.24 o
7 1 -3 17889.10 18020.00 695.04 o
9 1 -3 57792.10 57810.30 1288.99 o
11 1 -3 3996.43 4164.77 189.63 o
13 1 -3 10652.60 11577.50 220.12 o
15 1 -3 23986.30 24690.40 259.78 o
17 1 -3 1157.29 1038.36 220.44 o
0 2 -3 1644.65 1538.07 250.28 o
1 2 -3 1575.99 1433.90 173.14 o
2 2 -3 611.15 534.16 165.41 o
3 2 -3 3691.07 3717.56 178.92 o
4 2 -3 481.34 650.29 188.01 o
6 2 -3 1365.94 1415.05 184.46 o
7 2 -3 1148.84 1317.87 188.58 o
9 2 -3 2881.40 2582.13 182.01 o
11 2 -3 922.83 842.37 195.45 o
12 2 -3 709.25 727.47 205.51 o
15 2 -3 1249.25 1350.31 230.04 o
0 3 -3 1150.52 1531.63 259.36 o
1 3 -3 13339.10 13236.30 223.49 o
3 3 -3 68324.20 67960.60 2026.20 o
5 3 -3 8742.50 8661.33 318.72 o
7 3 -3 13241.90 13146.80 399.44 o
9 3 -3 42265.20 44578.40 774.30 o
11 3 -3 3138.79 3229.61 220.07 o
13 3 -3 8412.20 8690.91 237.19 o
15 3 -3 18842.80 19013.10 527.69 o
0 4 -3 5555.58 5196.96 303.20 o
1 4 -3 867.95 817.07 188.06 o
2 4 -3 759.26 609.96 196.04 o
3 4 -3 2799.83 2856.43 209.44 o
4 4 -3 581.79 782.61 181.50 o
5 4 -3 917.57 709.62 197.54 o
6 4 -3 5004.42 4929.06 231.45 o
7 4 -3 513.40 680.11 226.24 o
9 4 -3 1235.84 1410.36 251.61 o
12 4 -3 2562.09 2873.51 241.85 o
0 5 -3 1255.60 1068.57 280.58 o
1 5 -3 9263.62 9450.65 215.12 o
3 5 -3 33568.70 34479.40 298.62 o
5 5 -3 6007.07 5852.03 225.84 o
7 5 -3 9057.09 9457.86 286.20 o
9 5 -3 22434.50 23458.60 326.85 o
11 5 -3 2511.90 2718.00 270.21 o
0 6 -3 6073.42 6412.63 305.87 o
2 6 -3 1147.70 1215.47 211.87 o
3 6 -3 1048.68 1204.34 207.61 o
4 6 -3 1193.86 1389.99 226.20 o
6 6 -3 5352.72 5354.48 330.77 o
9 6 -3 1139.96 1066.24 306.04 o
10 6 -3 1175.69 925.99 287.95 o
1 7 -3 4205.05 4337.89 239.94 o
3 7 -3 15840.00 16633.20 539.47 o
5 7 -3 2643.15 2519.06 329.22 o
7 7 -3 4211.91 3232.20 1000.38 o
0 0 -2 147395.00 142023.00 1080.11 o
2 0 -2 9023.79 8598.79 562.87 o
4 0 -2 42180.60 44997.40 3687.23 o
6 0 -2 123968.00 124573.00 4344.44 o
8 0 -2 11817.00 12075.30 367.69 o
10 0 -2 12089.00 12758.10 286.57 o
12 0 -2 45753.00 48354.20 522.85 o
14 0 -2 2166.88 2559.80 280.17 o
16 0 -2 9872.60 9931.83 310.36 o
18 0 -2 18661.10 16942.80 817.52 o
0 1 -2 1151.88 1136.84 307.94 o
2 1 -2 1411.83 1389.00 214.74 o
3 1 -2 1865.33 1707.06 181.29 o
4 1 -2 743.81 762.53 190.85 o
6 1 -2 2694.16 2524.21 165.62 o
8 1 -2 479.29 584.31 178.73 o
10 1 -2 781.90 844.19 188.44 o
12 1 -2 808.35 943.14 184.58 o
0 2 -2 146738.00 148102.00 6059.89 o
2 2 -2 33863.80 34706.60 962.14 o
4 2 -2 19469.20 18765.20 774.22 o
6 2 -2 65862.00 64634.40 2396.20 o
8 2 -2 6653.13 6633.89 242.86 o
10 2 -2 18873.90 19701.40 280.14 o
12 2 -2 41687.70 43737.40 365.52 o
14 2 -2 3692.82 3601.43 239.90 o
16 2 -2 8283.00 8434.39 249.93 o
0 3 -2 1569.88 1534.27 282.76 o
1 3 -2 1539.88 1509.70 204.82 o
3 3 -2 3557.83 3721.43 267.01 o
6 3 -2 1422.67 1406.41 289.19 o
7 3 -2 1124.11 1346.21 273.00 o
9 3 -2 3058.44 2671.42 239.82 o
12 3 -2 675.41 1114.35 259.54 o
15 3 -2 1101.40 1139.97 264.91 o
0 4 -2 51498.30 51070.20 1263.75 o
2 4 -2 8630.52 8409.69 251.99 o
4 4 -2 20629.70 20986.30 502.09 o
6 4 -2 54795.40 55143.50 1872.72 o
8 4 -2 8163.79 8378.40 320.64 o
10 4 -2 9757.61 10140.10 288.40 o
12 4 -2 23187.20 24961.50 498.52 o
0 5 -2 1145.51 1071.88 249.56 o
1 5 -2 1430.70 1332.13 207.39 o
3 5 -2 8299.59 8194.14 248.21 o
9 5 -2 4005.33 4308.06 350.64 o
12 5 -2 632.99 984.19 272.48 o
0 6 -2 31779.20 33910.10 1589.65 o
2 6 -2 9209.77 9584.67 267.21 o
4 6 -2 6014.80 6345.03 276.18 o
6 6 -2 20726.50 23136.60 1211.81 o
8 6 -2 2603.77 2668.94 370.36 o
10 6 -2 8297.32 8446.06 379.75 o
12 6 -2 14246.20 12105.90 1214.98 o
1 7 -2 1143.46 1176.74 240.92 o
3 7 -2 7087.16 7776.51 316.17 o
9 7 -2 5479.51 4849.76 658.99 o
0 8 -2 8528.05 8864.12 1055.43 o
2 8 -2 2393.32 1922.94 315.53 o
9 0 -1 1157.42 902.02 270.59 o
1 1 -1 24707.60 25514.90 843.04 o
3 1 -1 171241.00 174205.00 4252.52 o
5 1 -1 21461.30 22278.70 298.51 o
7 1 -1 26189.80 27782.10 299.34 o
9 1 -1 84161.90 88589.10 483.30 o
11 1 -1 4318.86 4293.20 222.02 o
13 1 -1 13036.80 13190.40 282.15 o
15 1 -1 30337.20 31354.60 553.22 o
17 1 -1 1549.68 1789.21 241.12 o
2 2 -1 1349.69 1542.46 254.14 o
3 2 -1 1923.77 1653.27 274.59 o
6 2 -1 2507.53 2402.03 265.14 o
10 2 -1 697.04 801.07 246.63 o
12 2 -1 747.27 819.11 236.35 o
1 3 -1 19294.00 19333.70 458.32 o
3 3 -1 99627.20 99060.10 2176.62 o
5 3 -1 12950.50 12203.50 323.40 o
7 3 -1 18180.60 18016.40 628.99 o
9 3 -1 57199.80 58783.80 1365.39 o
11 3 -1 4049.65 4215.81 312.48 o
13 3 -1 10813.80 10913.00 374.67 o
15 3 -1 23515.70 23473.20 427.77 o
17 3 -1 1184.79 1034.10 334.46 o
0 4 -1 7025.20 7158.67 448.57 o
2 4 -1 743.63 876.81 261.40 o
6 4 -1 8057.90 8237.28 334.57 o
12 4 -1 3245.43 3912.08 357.78 o
1 5 -1 14114.40 14055.70 384.50 o
3 5 -1 43568.80 43604.60 2121.40 o
5 5 -1 7998.63 8329.25 366.18 o
7 5 -1 12113.00 13145.90 431.83 o
9 5 -1 27710.30 28914.70 1784.45 o
11 5 -1 3720.66 3914.25 382.66 o
13 5 -1 8181.19 7989.27 402.48 o
0 6 -1 7620.05 8362.51 775.81 o
2 6 -1 1300.45 1299.54 286.83 o
4 6 -1 1211.68 1337.25 264.86 o
6 6 -1 7389.44 7980.44 453.73 o
10 6 -1 1332.49 1873.62 396.39 o
12 6 -1 3886.51 3298.89 311.89 o
1 7 -1 6318.45 6565.19 586.68 o
3 7 -1 19677.10 21242.20 1117.12 o
5 7 -1 3173.48 3221.46 358.48 o
7 7 -1 5497.28 5466.37 450.26 o
9 7 -1 12956.60 12415.90 1473.06 o
0 8 -1 7279.28 7087.51 956.69 o
2 8 -1 1020.66 873.08 288.52 o
4 8 -1 1251.82 1212.14 328.65 o
2 0 0 29121.60 34981.10 1068.39 o
4 0 0 13037.10 13155.60 598.59 o
6 0 0 126334.00 133816.00 2852.60 o
8 0 0 3190.84 2927.18 382.88 o
10 0 0 15596.80 15686.80 413.07 o
12 0 0 68768.00 69532.40 1255.97 o
14 0 0 2654.00 2585.31 335.81 o
16 0 0 7973.89 7924.16 589.96 o
18 0 0 20635.40 20223.40 473.86 o
9 1 0 1199.39 1160.39 298.67 o
0 2 0 146557.00 138472.00 1076.72 o
2 2 0 9384.61 8920.16 374.03 o
4 2 0 42328.50 47208.80 1108.01 o
6 2 0 122378.00 125110.00 2470.40 o
8 2 0 11995.30 12179.20 351.89 o
10 2 0 12145.30 12325.80 316.34 o
12 2 0 45672.50 47259.00 1476.31 o
14 2 0 2151.58 2469.06 280.96 o
16 2 0 9732.39 8926.88 382.22 o
1 3 0 2852.47 2841.85 283.98 o
3 3 0 6099.81 5843.95 312.63 o
9 3 0 1556.38 2069.56 364.93 o
15 3 0 1964.14 1569.37 342.38 o
0 4 0 94601.60 92652.70 7238.01 o
2 4 0 19176.30 20033.70 1116.90 o
4 4 0 10893.30 11471.00 593.66 o
6 4 0 52844.40 53228.20 2113.46 o
8 4 0 4118.74 4397.05 355.22 o
10 4 0 13947.50 14094.40 731.89 o
12 4 0 32698.50 32101.90 923.96 o
14 4 0 2410.74 2510.52 360.44 o
16 4 0 5762.35 5390.27 345.36 o
1 5 0 1517.79 1501.80 275.86 o
3 5 0 8337.47 8772.72 520.73 o
7 5 0 1260.19 1103.65 325.28 o
9 5 0 5945.11 5810.86 370.44 o
0 6 0 26822.30 28723.30 2996.51 o
2 6 0 5266.24 5385.38 423.75 o
4 6 0 10577.80 11293.50 684.37 o
6 6 0 32612.40 34604.60 4145.45 o
8 6 0 4738.58 4983.85 397.79 o
10 6 0 6528.29 6741.78 518.85 o
12 6 0 13522.30 12526.20 330.47 o
1 7 0 1330.96 1303.62 268.41 o
3 7 0 8611.39 9560.02 837.28 o
9 7 0 5027.93 5080.07 398.92 o
0 8 0 13600.20 15157.20 2751.34 o
2 8 0 4869.70 4774.52 356.33 o
4 8 0 2964.42 2650.15 375.05 o
1 1 1 24916.50 24559.80 506.72 o
3 1 1 170370.00 178945.00 6389.30 o
5 1 1 21704.80 20921.10 1130.69 o
7 1 1 26423.20 25701.40 1305.62 o
9 1 1 83963.90 84015.60 3349.69 o
11 1 1 4361.72 4047.73 329.03 o
13 1 1 13116.40 12170.60 337.25 o
15 1 1 30203.90 29216.90 448.74 o
17 1 1 1575.05 1437.47 327.79 o
0 2 1 1075.66 1153.16 305.92 o
2 2 1 1361.03 1534.90 281.39 o
3 2 1 1912.14 1757.17 277.37 o
6 2 1 2511.39 2573.45 273.27 o
1 3 1 19420.80 18553.40 708.00 o
3 3 1 99354.60 97621.20 3902.85 o
5 3 1 13067.80 13077.70 579.84 o
7 3 1 18266.90 18646.50 1225.50 o
9 3 1 57035.70 56882.70 3105.70 o
11 3 1 4073.94 4380.62 344.17 o
13 3 1 10880.90 10626.30 604.79 o
15 3 1 23454.90 23598.90 1934.92 o
0 4 1 6955.08 6969.90 356.72 o
2 4 1 740.86 813.97 217.30 o
6 4 1 8085.55 8097.94 541.37 o
12 4 1 3226.86 3773.75 356.25 o
1 5 1 14161.50 13837.20 748.40 o
3 5 1 43490.30 42838.00 2955.09 o
5 5 1 7996.55 8180.14 428.21 o
7 5 1 12146.40 12559.20 774.18 o
9 5 1 27686.20 28666.60 1828.28 o
11 5 1 3749.85 3707.18 658.81 o
13 5 1 8190.85 8351.54 402.08 o
0 6 1 7629.92 8316.93 466.87 o
2 6 1 1322.29 1283.89 234.32 o
4 6 1 1200.00 1366.32 244.78 o
6 6 1 7363.21 7742.74 333.45 o
10 6 1 1347.67 1145.80 354.79 o
12 6 1 3885.84 3799.52 376.59 o
1 7 1 6336.73 6291.38 455.08 o
3 7 1 19692.20 20987.90 1368.13 o
5 7 1 3169.27 3115.26 317.06 o
7 7 1 5479.05 6376.23 770.11 o
9 7 1 12920.80 13967.10 2014.63 o
0 8 1 7249.66 6894.57 522.59 o
2 8 1 1006.64 1130.78 315.77 o
4 8 1 1270.25 1309.68 359.29 o
0 0 2 147501.00 150826.00 1042.88 o
2 0 2 9048.03 8976.80 611.44 o
4 0 2 42452.30 44863.00 3666.66 o
6 0 2 123525.00 113688.00 940.44 o
8 0 2 11885.40 10979.70 547.34 o
10 0 2 12096.20 11795.70 600.55 o
12 0 2 45702.40 46679.40 720.78 o
14 0 2 2187.63 2497.01 529.66 o
16 0 2 9944.78 9038.57 574.86 o
18 0 2 18626.70 16766.20 653.72 o
0 1 2 1179.97 1053.08 306.22 o
2 1 2 1415.19 1532.77 213.88 o
3 1 2 1863.71 1866.31 241.24 o
6 1 2 2664.37 2246.32 249.22 o
0 2 2 146874.00 141040.00 917.39 o
2 2 2 33924.70 32040.60 1300.34 o
4 2 2 19592.80 18837.80 785.51 o
6 2 2 65563.80 65829.30 2363.05 o
8 2 2 6672.43 6588.02 463.70 o
10 2 2 18890.40 18400.00 855.63 o
12 2 2 41673.10 42863.40 2255.03 o
14 2 2 3722.29 3779.39 403.05 o
0 3 2 1604.85 1281.34 400.65 o
1 3 2 1569.87 1123.29 256.57 o
3 3 2 3545.85 3695.37 291.93 o
6 3 2 1435.17 1856.81 256.64 o
7 3 2 1124.38 1216.89 367.48 o
9 3 2 3030.26 2482.28 472.98 o
0 4 2 51439.30 46211.20 577.44 o
2 4 2 8623.10 7883.41 306.87 o
4 4 2 20631.30 20268.10 930.54 o
6 4 2 54839.50 55592.20 3395.40 o
8 4 2 8172.09 8235.66 576.49 o
10 4 2 9761.29 9988.35 1100.99 o
12 4 2 23162.00 23702.60 1346.50 o
14 4 2 1701.55 1693.20 544.27 o
1 5 2 1459.48 1458.93 271.88 o
3 5 2 8277.92 8051.73 469.70 o
7 5 2 595.60 831.85 255.78 o
9 5 2 3969.67 4726.06 371.77 o
0 6 2 31756.10 30293.60 504.13 o
2 6 2 9215.07 8693.47 305.86 o
4 6 2 5969.73 6011.97 422.79 o
6 6 2 20796.90 21816.40 1103.31 o
8 6 2 2586.14 2867.84 437.02 o
10 6 2 8308.09 8112.35 724.82 o
12 6 2 14247.10 13324.20 415.86 o
3 7 2 7060.81 6897.31 295.85 o
7 7 2 1334.77 1275.06 351.80 o
9 7 2 5453.66 4562.02 447.28 o
0 8 2 8522.00 7066.06 530.30 o
2 8 2 2378.22 1946.64 361.34 o
1 0 3 3229.66 2673.47 281.31 o
3 0 3 6716.93 5905.30 292.22 o
9 0 3 1867.79 1808.37 501.07 o
15 0 3 1907.81 1790.30 568.69 o
1 1 3 18638.10 19283.20 216.02 o
3 1 3 100700.00 100004.00 2280.71 o
5 1 3 12727.20 12698.50 252.79 o
7 1 3 18043.20 18272.20 921.68 o
9 1 3 57717.30 55144.30 1074.66 o
11 1 3 3993.25 4216.87 358.72 o
13 1 3 10718.00 10406.40 375.17 o
15 1 3 23871.20 23116.30 471.87 o
0 2 3 1595.99 1499.58 298.81 o
1 2 3 1549.41 1328.33 217.62 o
3 2 3 3723.43 3841.94 248.74 o
6 2 3 1381.20 1426.41 251.97 o
7 2 3 1133.18 1189.93 256.27 o
9 2 3 2917.79 2894.30 373.29 o
0 3 3 1176.85 1297.35 399.37 o
1 3 3 13367.70 12201.20 303.48 o
3 3 3 68178.30 66133.60 1618.89 o
5 3 3 8793.17 9032.50 310.05 o
7 3 3 13318.80 12725.60 599.33 o
9 3 3 42242.50 42523.00 3345.80 o
11 3 3 3151.44 2566.02 381.27 o
13 3 3 8441.13 7711.65 410.43 o
15 3 3 18785.60 16220.40 472.44 o
0 4 3 5491.91 4574.80 306.81 o
3 4 3 2837.45 2640.71 390.02 o
6 4 3 4993.33 4972.69 283.96 o
9 4 3 1261.55 1281.50 314.55 o
12 4 3 2533.09 2320.19 547.59 o
0 5 3 1298.41 922.66 282.62 o
1 5 3 9282.50 8361.21 297.13 o
3 5 3 33612.50 31865.30 971.99 o
5 5 3 5985.21 5939.67 264.41 o
7 5 3 9017.28 8899.05 421.31 o
9 5 3 22409.10 22970.40 1294.00 o
11 5 3 2512.46 1805.19 576.45 o
13 5 3 6117.19 5284.11 613.35 o
0 6 3 5984.71 6017.96 419.87 o
2 6 3 1157.16 1035.87 294.24 o
3 6 3 1058.83 1018.94 286.82 o
4 6 3 1216.62 1119.50 296.52 o
6 6 3 5354.04 5460.75 336.82 o
9 6 3 1146.52 1233.72 356.30 o
1 7 3 4204.78 4326.59 329.80 o
3 7 3 15890.10 15509.00 1086.62 o
5 7 3 2593.14 2282.41 341.80 o
7 7 3 4183.06 3349.08 507.64 o
0 0 4 95042.00 97450.40 622.62 o
2 0 4 19290.90 20032.90 311.71 o
4 0 4 11593.40 11683.10 670.40 o
6 0 4 53805.80 53004.80 1827.85 o
8 0 4 4103.67 4091.11 460.80 o
10 0 4 14119.40 14332.30 558.18 o
12 0 4 32842.50 32700.80 665.69 o
14 0 4 2487.26 2468.88 579.87 o
16 0 4 6160.78 4989.06 629.73 o
0 1 4 6988.49 7052.92 299.64 o
2 1 4 843.27 879.75 173.22 o
4 1 4 435.88 634.83 203.81 o
6 1 4 7935.28 8007.97 267.43 o
12 1 4 3263.17 3460.65 475.38 o
0 2 4 51609.30 52539.30 679.41 o
2 2 4 8577.37 9003.34 254.78 o
4 2 4 21183.30 20918.10 666.41 o
6 2 4 55332.20 56016.20 1796.89 o
8 2 4 8132.57 8272.49 383.16 o
10 2 4 9810.08 10205.60 800.15 o
12 2 4 23402.40 25938.00 1300.54 o
14 2 4 1702.64 2028.60 518.62 o
0 3 4 5856.49 5333.62 411.35 o
2 3 4 728.14 681.41 187.22 o
3 3 4 2820.30 2567.10 196.60 o
4 3 4 590.58 932.40 252.91 o
5 3 4 722.25 750.36 222.99 o
6 3 4 5129.73 5027.87 245.36 o
9 3 4 1231.56 1627.70 285.20 o
12 3 4 2626.84 1966.95 580.26 o
0 4 4 46550.90 48032.70 525.20 o
2 4 4 10702.30 10500.40 555.47 o
4 4 4 7392.38 7408.11 289.29 o
6 4 4 27384.70 28112.50 885.87 o
8 4 4 2893.72 2740.06 315.02 o
10 4 4 9114.56 9056.49 878.20 o
12 4 4 19499.10 19575.40 640.56 o
0 5 4 3420.59 3406.52 285.97 o
1 5 4 963.23 1253.88 271.70 o
3 5 4 4444.17 4448.61 293.08 o
4 5 4 727.93 980.40 261.89 o
6 5 4 2371.70 2685.15 306.53 o
7 5 4 1111.62 881.15 268.55 o
9 5 4 3707.75 3638.37 335.35 o
0 6 4 17199.90 16742.70 468.94 o
2 6 4 2841.55 2826.03 313.76 o
4 6 4 6896.88 7075.14 328.79 o
6 6 4 18537.10 18902.10 1746.16 o
8 6 4 2959.86 3004.16 403.67 o
0 7 4 1700.90 2013.09 474.32 o
1 7 4 1073.48 895.02 288.79 o
3 7 4 5233.16 5174.49 355.80 o
1 0 5 1426.52 1605.59 283.96 o
3 0 5 8437.87 8926.30 290.79 o
9 0 5 5965.08 6212.38 495.31 o
1 1 5 13585.30 14169.80 254.38 o
3 1 5 44175.20 45205.60 702.24 o
5 1 5 7892.57 8317.42 204.21 o
7 1 5 12140.00 13254.90 408.44 o
9 1 5 28140.60 30001.30 1308.05 o
11 1 5 3739.59 3807.22 618.67 o
13 1 5 8228.77 9298.32 468.40 o
0 2 5 1112.54 1081.36 201.49 o
1 2 5 1418.53 1559.20 198.95 o
3 2 5 8061.20 8334.79 244.45 o
5 2 5 722.18 925.55 240.58 o
7 2 5 707.23 888.99 255.49 o
9 2 5 4050.98 4567.81 278.51 o
1 3 5 9190.50 9353.78 579.69 o
3 3 5 33706.50 34574.00 1218.06 o
5 3 5 5918.80 6004.47 247.84 o
7 3 5 9082.01 9687.36 337.10 o
9 3 5 22490.10 23684.50 1190.23 o
11 3 5 2585.37 2564.36 472.04 o
13 3 5 6241.22 5461.28 650.21 o
0 4 5 3625.38 3595.59 399.10 o
1 4 5 927.90 754.43 241.47 o
3 4 5 4331.51 4473.87 248.38 o
6 4 5 2341.06 2736.72 260.66 o
7 4 5 1163.27 1254.15 319.34 o
9 4 5 3495.06 3651.73 352.63 o
1 5 5 5493.68 5754.71 307.10 o
3 5 5 19022.80 19546.90 544.34 o
5 5 5 4087.20 3928.64 347.22 o
7 5 5 6031.99 6203.98 304.81 o
9 5 5 13466.20 12946.70 1643.29 o
0 6 5 3731.73 3678.13 335.78 o
3 6 5 2478.94 2910.61 333.88 o
4 6 5 968.44 1411.19 341.54 o
6 6 5 3178.13 2815.96 363.12 o
0 0 6 27396.80 28696.80 494.74 o
2 0 6 4984.86 4898.38 289.10 o
4 0 6 10703.70 11459.10 357.32 o
6 0 6 32706.50 36215.00 426.74 o
8 0 6 4707.71 5298.48 511.79 o
10 0 6 6296.69 6900.31 569.36 o
12 0 6 13901.20 14948.80 692.74 o
0 1 6 7767.68 8417.75 269.57 o
2 1 6 1215.64 1181.35 179.95 o
4 1 6 1180.62 1365.89 210.97 o
6 1 6 7203.27 7894.47 270.12 o
12 1 6 3942.42 4673.01 460.89 o
0 2 6 32395.10 35046.70 663.40 o
2 2 6 8949.12 9689.21 274.86 o
4 2 6 5819.91 5989.78 265.89 o
6 2 6 21045.70 22657.50 430.48 o
8 2 6 2546.34 2550.62 291.75 o
10 2 6 8062.19 8283.76 1008.84 o
12 2 6 14559.80 14485.80 1332.06 o
0 3 6 6023.57 6243.53 421.33 o
3 3 6 948.73 1150.01 248.87 o
4 3 6 1120.61 1442.12 245.64 o
6 3 6 5458.63 6060.60 312.08 o
9 3 6 1138.17 1324.94 358.68 o
0 4 6 17332.20 18332.40 362.83 o
2 4 6 2762.00 2989.27 312.88 o
4 4 6 6773.60 7155.51 326.74 o
6 4 6 18759.60 19430.30 1294.39 o
8 4 6 2926.53 2993.16 362.54 o
0 5 6 3746.74 3652.13 480.05 o
3 5 6 2431.32 2319.88 300.47 o
6 5 6 3028.83 3181.69 313.59 o
1 0 7 1151.16 1168.91 267.87 o
3 0 7 8627.93 9579.16 296.04 o
5 0 7 890.29 1214.32 333.54 o
9 0 7 5186.26 6045.04 603.47 o
1 1 7 6117.88 6534.49 233.71 o
3 1 7 19783.80 21794.20 266.96 o
5 1 7 3291.53 3357.90 254.34 o
7 1 7 5609.54 5491.70 290.70 o
9 1 7 13235.50 14187.10 856.28 o
1 2 7 1049.23 1050.39 234.66 o
3 2 7 6970.56 7797.69 263.49 o
7 2 7 1247.72 1284.27 253.36 o
9 2 7 5359.07 5986.86 837.59 o
1 3 7 4174.55 4506.11 235.99 o
3 3 7 15887.00 16928.00 465.22 o
5 3 7 2534.54 2532.24 287.69 o
7 3 7 4294.75 4433.99 562.42 o
0 4 7 1525.93 1876.45 339.03 o
3 4 7 5057.16 5257.21 357.10 o
0 0 8 14016.60 17428.10 532.78 o
2 0 8 4872.88 5113.82 341.81 o
4 0 8 3049.02 3176.72 483.49 o
0 1 8 6941.55 7460.98 376.32 o
2 1 8 927.61 1033.14 227.14 o
4 1 8 1204.35 1007.16 223.11 o
0 2 8 8846.04 8213.23 411.53 o
2 2 8 2292.18 2220.50 279.24 o
loop_
_jana_cell_twin_matrix_id
_jana_cell_twin_volume_fraction
_jana_cell_twin_matrix_1_1
_jana_cell_twin_matrix_1_2
_jana_cell_twin_matrix_1_3
_jana_cell_twin_matrix_2_1
_jana_cell_twin_matrix_2_2
_jana_cell_twin_matrix_2_3
_jana_cell_twin_matrix_3_1
_jana_cell_twin_matrix_3_2
_jana_cell_twin_matrix_3_3
1 0.37(11) 1 0 0 0 1 0 0 0 1
2 0 1 0 0 0 -1 0 0 0 -1
3 0.63(11) -1 0 0 0 -1 0 0 0 -1
