#------------------------------------------------------------------------------
#$Date: 2019-11-12 12:23:37 +0200 (Tue, 12 Nov 2019) $
#$Revision: 227669 $
#$URL: file:///home/coder/svn-repositories/cod/cif/7/23/50/7235027.cif $
#------------------------------------------------------------------------------
#
# This file is available in the Crystallography Open Database (COD),
# http://www.crystallography.net/
#
# All data on this site have been placed in the public domain by the
# contributors.
#
data_7235027
loop_
_publ_author_name
'Wei Sun'
'Ya-Xi Huang'
'Sergiy Nokhrin'
'Yuanming Pan'
'Jin-Xiao Mi'
_publ_section_title
;
 Perfect Kagome lattices in YCu3(OH)6Cl3: a new candidate for the quantum
 spin liquid state
;
_journal_name_full               'Journal of Materials Chemistry C'
_journal_page_first              8772
_journal_page_last               8777
_journal_paper_doi               10.1039/C6TC02399A
_journal_volume                  4
_journal_year                    2016
_chemical_formula_sum            'Cl3 Cu3 H6 O6 Y'
_chemical_formula_weight         487.93
_space_group_crystal_system      trigonal
_space_group_IT_number           164
_space_group_name_Hall           '-P 3 2"'
_space_group_name_H-M_alt        'P -3 m 1'
_atom_sites_solution_hydrogens   difmap
_cell_angle_alpha                90
_cell_angle_beta                 90
_cell_angle_gamma                120
_cell_formula_units_Z            1
_cell_length_a                   6.7490(9)
_cell_length_b                   6.7490(9)
_cell_length_c                   5.6244(11)
_cell_measurement_reflns_used    1391
_cell_measurement_temperature    295(2)
_cell_measurement_theta_max      28.623
_cell_measurement_theta_min      3.486
_cell_volume                     221.86(6)
_computing_cell_refinement       'SAINT (Bruker, 2001)'
_computing_data_collection       'SMART (Bruker, 2001)'
_computing_data_reduction        'SAINT (Bruker, 2001)'
_computing_molecular_graphics    'DIAMOND (Brandenburg, 2012)'
_computing_publication_material  'SHELXL-2013 (Sheldrick, 2013)'
_computing_structure_refinement  'SHELXL-2013 (Sheldrick, 2013)'
_computing_structure_solution    'SHELXL-2013 (Sheldrick, 2013)'
_diffrn_ambient_temperature      295(2)
_diffrn_detector_area_resol_mean .
_diffrn_measured_fraction_theta_full 0.994
_diffrn_measured_fraction_theta_max 0.967
_diffrn_measurement_device_type
'Bruker APEX II area detector CCD diffractometer'
_diffrn_measurement_method
'1265 images,\f=0, 90, 180 degree, and \D\w=0.3 degree, \c= 54.74 degree'
_diffrn_radiation_type           MoK\a
_diffrn_radiation_wavelength     0.71073
_diffrn_reflns_av_R_equivalents  0.0580
_diffrn_reflns_av_unetI/netI     0.0310
_diffrn_reflns_Laue_measured_fraction_full 0.994
_diffrn_reflns_Laue_measured_fraction_max 0.967
_diffrn_reflns_limit_h_max       8
_diffrn_reflns_limit_h_min       -7
_diffrn_reflns_limit_k_max       8
_diffrn_reflns_limit_k_min       -8
_diffrn_reflns_limit_l_max       4
_diffrn_reflns_limit_l_min       -7
_diffrn_reflns_number            1391
_diffrn_reflns_point_group_measured_fraction_full 0.994
_diffrn_reflns_point_group_measured_fraction_max 0.967
_diffrn_reflns_theta_full        25.242
_diffrn_reflns_theta_max         28.623
_diffrn_reflns_theta_min         3.486
_diffrn_standards_decay_%        .
_diffrn_standards_interval_count .
_diffrn_standards_interval_time  .
_diffrn_standards_number         0
_exptl_absorpt_coefficient_mu    14.456
_exptl_absorpt_correction_T_max  0.766
_exptl_absorpt_correction_T_min  0.562
_exptl_absorpt_correction_type   multi-scan
_exptl_absorpt_process_details   'SMART (Bruker, 2001)'
_exptl_crystal_colour            colorless
_exptl_crystal_density_diffrn    3.652
_exptl_crystal_description       prism
_exptl_crystal_F_000             231
_exptl_crystal_size_max          0.200
_exptl_crystal_size_mid          0.130
_exptl_crystal_size_min          0.130
_refine_diff_density_max         0.809
_refine_diff_density_min         -1.011
_refine_diff_density_rms         0.231
_refine_ls_extinction_coef       0.026(5)
_refine_ls_extinction_expression Fc^*^=kFc[1+0.001xFc^2^\l^3^/sin(2\q)]^-1/4^
_refine_ls_extinction_method     SHELXL
_refine_ls_goodness_of_fit_ref   1.079
_refine_ls_hydrogen_treatment    refall
_refine_ls_matrix_type           full
_refine_ls_number_parameters     24
_refine_ls_number_reflns         234
_refine_ls_number_restraints     1
_refine_ls_restrained_S_all      1.076
_refine_ls_R_factor_all          0.0280
_refine_ls_R_factor_gt           0.0265
_refine_ls_shift/su_max          0.000
_refine_ls_shift/su_mean         0.000
_refine_ls_structure_factor_coef Fsqd
_refine_ls_weighting_details
;
 w=1/[\s^2^(Fo^2^)+(0.0334P)^2^+0.4021P]
 where P=(Fo^2^+2Fc^2^)/3
;
_refine_ls_weighting_scheme      calc
_refine_ls_wR_factor_gt          0.0683
_refine_ls_wR_factor_ref         0.0691
_reflns_Friedel_coverage         0.000
_reflns_Friedel_fraction_full    .
_reflns_Friedel_fraction_max     .
_reflns_number_gt                213
_reflns_number_total             234
_reflns_threshold_expression     'I > 2\s(I)'
_cod_data_source_file            J-Mater-Chem-C-2016-4-8772.cif
_cod_data_source_block           ycu3295n
_cod_original_cell_volume        221.86(7)
_cod_database_code               7235027
_shelx_space_group_comment
;
The symmetry employed for this shelxl refinement is uniquely defined
by the following loop, which should always be used as a source of
symmetry information in preference to the above space-group names.
They are only intended as comments.
;
_shelx_estimated_absorpt_t_min   0.160
_shelx_estimated_absorpt_t_max   0.255
_shelxl_version_number           2013-2
_shelx_res_file
;
TITL mjx in P-3m1
CELL 0.71073   6.7490   6.7490   5.6244    90.000  90.000 120.000
ZERR    1.00   0.0009   0.0009   0.0011    0.000   0.000   0.000
LATT  1
SYMM -Y, X-Y, Z
SYMM -X+Y, -X, Z
SYMM Y, X, -Z
SYMM X-Y, -Y, -Z
SYMM -X, -X+Y, -Z
SFAC O H CL CU Y
UNIT 6 6 3 3 1
TEMP 22.000
SIZE 0.13 0.13 0.20

L.S. 10
BOND $H
HTAB

EQIV $1 x, y, z-1
HTAB O1 Cl1_$1
HTAB O1 Cl2

LIST 6

FMAP 2
ACTA
PLAN 20
EADP Y11 Y12
WGHT    0.033400    0.402100
EXTI    0.026233
FVAR       0.48807   0.91541
Y11   5    0.000000    0.000000    0.500000    20.08333    0.00989    0.00989 =
         0.02784    0.00000    0.00000    0.00494
Y12   5    0.000000    0.000000    0.379168   -20.08333    0.00989    0.00989 =
         0.02784    0.00000    0.00000    0.00494

CU1   4    0.500000    0.500000    0.500000    10.25000    0.00889    0.00889 =
         0.01803    0.00094   -0.00094    0.00319
CL1   3    0.333333    0.666667    0.860421    10.16667    0.02504    0.02504 =
         0.01398    0.00000    0.00000    0.01252
CL2   3    0.000000    0.000000    0.000000    10.08333    0.02428    0.02428 =
         0.01793    0.00000    0.00000    0.01214
O1    1    0.189914    0.379828    0.365911    10.50000    0.01237    0.01595 =
         0.01488   -0.00190   -0.00095    0.00797
H1    2    0.191973    0.383947    0.220821    10.50000    0.02640
DFIX 0.82 0.02 H1 O1
HKLF 4

REM  mjx in P-3m1
REM R1 =  0.0265 for     213 Fo > 4sig(Fo)  and  0.0280 for all     234 data
REM     24 parameters refined using      1 restraints

END

WGHT      0.0267      0.3331

REM Instructions for potential hydrogen bonds
HTAB O1 Cl1_$1
HTAB O1 Cl2

REM Highest difference peak  0.809,  deepest hole -1.011,  1-sigma level  0.231
Q1    1   0.5000  0.5000  1.0000  10.25000  0.05    0.81
Q2    1   0.1408  0.1408  0.0000  10.50000  0.05    0.67
Q3    1   0.4613  0.7306  1.0032  10.50000  0.05    0.58
Q4    1   0.2082  0.5339  0.9724  11.00000  0.05    0.57
Q5    1   0.0000  0.3061  0.0000  10.50000  0.05    0.50
Q6    1   0.2540  0.5080  0.8829  10.50000  0.05    0.47
Q7    1   0.3333  0.6667  0.7564  10.16667  0.05    0.44
Q8    1   0.1625  0.3251  0.1247  10.50000  0.05    0.42
Q9    1  -0.0880  0.0880  0.3367  10.50000  0.05    0.42
Q10   1   0.1572  0.5786  1.0839  10.50000  0.05    0.38
Q11   1   0.2405  0.4810  0.1446  10.50000  0.05    0.37
Q12   1  -0.0397 -0.0793  0.1759  10.50000  0.05    0.37
Q13   1   0.1768  0.3536 -0.0852  10.50000  0.05    0.34
Q14   1  -0.0449  0.2878  0.1412  11.00000  0.05    0.30
Q15   1   0.3191  0.5489  0.7350  11.00000  0.05    0.25
Q16   1   0.4405  0.8811  0.8335  10.50000  0.05    0.24
Q17   1   0.1741  0.8259  0.7279  10.50000  0.05    0.21
Q18   1   0.0549  0.5274  0.2052  10.50000  0.05    0.17
Q19   1   0.0618  0.3199  0.3521  11.00000  0.05    0.10
Q20   1   0.3221  0.4989  0.4435  11.00000  0.05    0.08
;
_shelx_res_checksum              58996
_shelx_hkl_file
;
   0   0  -1 1651.96   32.77
   0   0  -1 1402.26   26.07
   0   0  -2 1984.31   13.34
   0   0  -2 1828.86   13.28
   0   0  -3  965.57   11.55
   0   0  -3  908.09   11.64
   0   0  -4  321.88    7.85
   0   0  -4  293.73    7.80
   0   0  -5  344.74    9.27
   0   0  -5  332.31    9.42
   0   0  -6  559.52   13.72
   0  -1  -7    0.87    1.55
  -1   1  -6   43.02    4.13
   0  -1  -6   43.93    4.41
   1   0  -6   39.16    3.89
  -1   1  -5   48.33    3.94
  -1   1  -5   50.64    3.68
   0  -1  -5   48.95    3.95
   1   0  -5   48.64    3.74
   1   0  -5   55.14    3.82
  -1   1  -4   77.80    4.21
  -1   1  -4   68.48    3.71
   0  -1  -4   78.11    3.49
   0  -1  -4   74.91    4.26
   1   0  -4   75.06    4.05
   1   0  -4   69.67    3.75
  -1   1  -3   58.12    3.17
  -1   1  -3   49.39    2.65
   0  -1  -3   54.96    2.40
   0  -1  -3   54.09    3.18
   1   0  -3   58.71    3.15
   1   0  -3   56.38    2.83
  -1   1  -2   87.00    3.23
  -1   1  -2   80.82    2.79
   0  -1  -2   85.38    2.16
   0  -1  -2   76.09    3.14
   1   0  -2   86.24    3.18
   1   0  -2   90.35    2.94
  -1   1  -1    6.49    0.77
  -1   1  -1    7.15    0.67
   0  -1  -1    6.95    0.78
   1  -1   1    6.94    0.50
   1   0  -1    8.03    0.84
  -1   0   0    8.00    0.65
  -1   0   0    6.71    0.55
  -1   1   0    7.00    0.62
   0  -1   0    7.29    0.66
   0   1   0    7.55    0.54
   1   0   0    9.30    0.73
  -1   0  -1   14.93    0.96
  -1   0  -1   12.62    1.03
   0  -1   1   13.41    0.99
   0   1  -1   13.05    1.06
   0   1  -1   13.71    0.50
   1  -1  -1   16.05    0.94
   1  -1  -1   15.32    1.13
  -1   0  -2  547.00    7.02
  -1   0  -2  508.70    7.89
   0   1  -2  517.06    8.07
   0   1  -2  496.20    5.71
   1  -1  -2  552.99    6.81
   1  -1  -2  538.39    8.13
  -1   0  -3  112.35    3.87
  -1   0  -3   98.74    4.16
   0   1  -3  118.10    4.61
   0   1  -3  104.76    3.49
   1  -1  -3  113.93    3.83
   1  -1  -3  108.36    4.36
  -1   0  -4   12.23    1.93
  -1   0  -4    9.23    1.90
   0   1  -4    6.37    1.68
   0   1  -4   12.23    1.83
   1  -1  -4   13.50    1.99
   1  -1  -4    6.32    1.56
  -1   0  -5    2.52    1.13
  -1   0  -5    6.21    1.96
   0   1  -5    3.45    1.42
   0   1  -5    3.57    1.33
   1  -1  -5    4.52    1.58
   1  -1  -5    3.10    1.47
  -1   0  -6   23.47    3.60
   0   1  -6   22.89    3.61
   1  -1  -6   21.95    3.50
  -1   0  -7   -0.02    1.32
   1  -1  -7    0.37    1.31
  -1  -1  -7   45.06    4.90
  -1   2  -7   47.09    5.22
  -1  -1  -6   19.39    3.54
  -1   2  -6   18.35    3.50
   2  -1  -6   20.03    3.37
  -1  -1  -5    0.79    1.17
  -1   2  -5    1.22    1.05
   2  -1  -5    1.57    1.04
   2  -1  -5    0.25    0.96
  -1  -1  -4    3.50    1.44
  -1   2  -4    4.73    1.45
  -1   2  -4    3.43    1.08
   2  -1  -4    5.85    1.41
   2  -1  -4    2.26    1.06
  -1  -1  -3   25.38    1.69
  -1  -1  -3   24.50    2.37
  -1   2  -3   24.32    2.34
  -1   2  -3   23.71    1.73
   2  -1  -3   25.22    2.15
   2  -1  -3   28.14    2.33
  -1  -1  -2   17.21    1.10
  -1  -1  -2   17.08    1.71
  -1   2  -2   17.94    1.78
  -1   2  -2   16.01    1.06
   1  -2   2   15.63    1.33
   2  -1  -2   16.03    1.46
   2  -1  -2   18.65    1.69
  -1  -1  -1  238.24    4.98
  -1  -1  -1  238.84    4.48
  -1   2  -1  258.16    5.25
   1  -2   1  246.65    4.54
   1   1   1  250.48    3.65
   2  -1  -1  269.21    5.29
  -1  -1   0  251.04    4.00
  -1  -1   0  252.56    4.72
  -1   2   0  283.62    4.34
   1   1   0  290.79    4.59
   2  -1   0  283.18    5.19
  -2   1  -1  244.25    5.15
  -2   1  -1  238.23    5.08
  -1  -1   1  222.48    5.01
   1  -2  -1  263.55    3.24
   1  -2  -1  262.23    5.23
   1   1  -1  259.81    5.33
  -2   1  -2   16.57    1.60
  -2   1  -2   16.10    1.55
   1  -2  -2   18.51    1.00
   1  -2  -2   17.10    1.71
   1   1  -2   20.01    1.85
   1   1  -2   19.76    1.17
  -2   1  -3   26.85    2.33
  -2   1  -3   27.38    2.28
   1  -2  -3   25.76    1.56
   1  -2  -3   26.45    2.47
   1   1  -3   25.88    2.36
   1   1  -3   25.67    1.76
  -2   1  -4    2.93    1.31
  -2   1  -4    3.22    1.21
   1  -2  -4    3.29    1.34
   1   1  -4    4.39    1.31
   1   1  -4    3.44    1.05
  -2   1  -5    1.00    1.40
  -2   1  -5    1.48    1.32
   1  -2  -5    0.99    1.21
   1   1  -5    2.05    1.19
  -2   1  -6   15.83    2.98
   1  -2  -6   20.35    3.61
   1   1  -6   15.73    3.09
   1  -2  -7   46.53    4.95
   1   1  -7   43.16    4.86
   0  -2  -7  159.51    9.14
  -2   2  -6  266.60   10.19
   0  -2  -6  249.94   10.29
   2   0  -6  251.26    9.78
  -2   2  -5  702.80   14.97
  -2   2  -5  652.49   12.95
   0  -2  -5  694.72   15.57
   2   0  -5  692.15   14.71
  -2   2  -4 1170.25   17.44
  -2   2  -4 1148.56   15.24
   0  -2  -4 1195.65   18.25
   2   0  -4 1245.15   17.81
   2   0  -4 1232.63   15.75
  -2   2  -3  484.47   10.08
  -2   2  -3  465.98    8.50
   0  -2  -3  478.95   10.18
   2   0  -3  524.41   10.36
   2   0  -3  509.30    8.86
  -2   2  -2 2030.14   18.16
  -2   2  -2 1864.86   14.90
   0  -2  -2 1854.61   17.21
   2  -2   2 1865.77   10.30
   2   0  -2 2207.21   18.81
  -2   2  -1  468.82    7.66
  -2   2  -1  444.03    6.63
   0  -2  -1  441.50    6.89
   2  -2   1  458.01    5.04
   2   0  -1  461.75    7.63
  -2   0   0 1372.83   11.70
  -2   0   0 1334.62   10.42
  -2   2   0 1453.31   11.98
   0  -2   0 1329.94    8.72
   0  -2   0 1436.11   12.61
   0   2   0 1413.98    9.76
   2   0   0 1552.63   12.71
  -2   0  -1 2933.37   19.09
  -2   0  -1 2893.40   25.46
   0  -2   1 2997.03   18.95
   0   2  -1 2517.18   16.93
   2  -2  -1 3228.55   38.96
   2   0   1 3160.13   17.88
  -2   0  -2 2362.38   16.73
  -2   0  -2 2308.14   19.39
  -2   0  -2 2391.83   11.71
   0  -2   2 2221.91   17.94
   0   2  -2 2187.97   18.89
   2  -2  -2 2642.12   16.61
   2  -2  -2 2536.68   20.33
  -2   0  -3 1407.74   14.54
  -2   0  -3 1307.27   16.61
   0   2  -3 1392.17   17.33
   0   2  -3 1287.10   10.00
   2  -2  -3 1524.49   14.33
   2  -2  -3 1437.85   17.43
  -2   0  -4 1309.82   15.81
  -2   0  -4 1270.01   18.40
   0   2  -4 1367.58   19.35
   2  -2  -4 1453.13   15.93
   2  -2  -4 1314.49   18.72
  -2   0  -5   98.34    5.86
   0   2  -5   98.06    5.88
   2  -2  -5   98.99    5.83
  -2   0  -6  258.93   10.21
   0   2  -6  291.52   10.99
   2  -2  -6  289.45   10.80
  -2   0  -7   84.33    6.49
   0   2  -7   88.10    6.82
   2  -2  -7   82.72    6.35
  -1   3  -7    4.86    2.29
  -2  -1  -6    5.65    2.23
  -1   3  -6    6.72    2.43
   3  -2  -6    6.78    2.40
  -2  -1  -5    1.44    1.28
  -1   3  -5    2.09    1.57
   3  -2  -5    1.93    1.18
  -2  -1  -4    1.94    1.14
  -1   3  -4    1.90    1.24
   3  -2  -4    0.94    0.92
   3  -2  -4    2.08    1.31
  -2  -1  -3  158.52    4.49
  -2  -1  -3  133.31    5.74
  -1   3  -3  154.40    6.13
   1  -3   3  140.66    5.09
   3  -2  -3  166.53    5.65
  -2  -1  -2  154.59    5.47
  -2  -1  -2  152.08    4.16
  -1   3  -2  154.20    5.43
   1  -3   2  150.63    4.84
   2   1   2  174.87    4.35
   3  -2  -2  163.82    5.16
  -2  -1  -1    4.34    1.07
  -2  -1  -1    5.50    1.04
  -1   3  -1    5.77    1.14
   1  -3   1    5.22    0.56
   1  -3   1    3.98    0.94
   2   1   1    4.33    0.89
   3  -2  -1    6.43    1.21
  -2  -1   0   67.31    2.78
  -2  -1   0   69.51    3.00
  -1   3   0   76.92    2.71
   1  -3   0   76.93    2.61
   1  -3   0   73.97    3.29
   2   1   0   80.06    3.19
   3  -2   0   79.77    3.44
  -3   2  -1   84.26    3.71
  -3   2  -1   77.60    3.49
  -2  -1   1   78.58    3.51
  -1   3   1   85.45    2.10
   1  -3  -1   83.22    3.35
   2   1  -1   94.66    3.85
  -3   2  -2   15.70    1.85
  -3   2  -2   15.55    1.73
   1  -3  -2   14.71    1.71
   2   1  -2   18.77    2.07
  -3   2  -3   20.61    2.35
  -3   2  -3   54.03    3.42
   1  -3  -3   61.98    3.94
   2   1  -3   57.63    3.83
   2   1  -3   68.32    2.96
  -3   2  -4   17.45    2.76
  -3   2  -4   14.76    2.35
   1  -3  -4   15.82    2.65
   2   1  -4   17.87    2.93
  -3   2  -5   80.25    5.29
  -3   2  -5   78.38    5.08
   1  -3  -5   88.25    5.79
   2   1  -5   97.73    6.03
  -3   2  -6   21.25    3.81
   1  -3  -6   22.17    4.11
   2   1  -6   22.21    3.94
   2   1  -7    2.89    2.29
  -2   3  -7    0.72    1.71
  -2   3  -6   19.34    3.78
  -1  -2  -6   22.63    4.15
  -2   3  -5   87.21    5.79
  -1  -2  -5   74.89    5.35
   3  -1  -5   91.28    5.47
  -2   3  -4   15.14    2.79
  -1  -2  -4   14.15    2.56
   3  -1  -4   15.33    2.50
  -2   3  -3   62.25    3.97
  -2   3  -3   51.79    2.60
  -1  -2  -3   53.53    3.67
   2  -3   3   55.05    2.72
   3  -1  -3   66.90    3.92
   3  -1  -3   60.34    3.66
  -2   3  -2   14.46    2.12
  -2   3  -2   16.57    1.32
  -1  -2  -2   15.79    1.77
   2  -3   2   19.74    1.53
   3  -1  -2   19.61    1.97
  -2   3  -1   86.27    3.65
  -1  -2  -1   84.10    3.36
  -1  -2  -1   78.91    3.35
   1   2   1   89.05    2.44
   2  -3   1   84.57    3.11
   3  -1  -1   83.50    3.68
  -3   1   0   68.77    3.22
  -2   3   0   71.73    2.88
  -1  -2   0   70.56    2.50
  -1  -2   0   67.35    3.13
   1   2   0   75.09    2.78
   3  -1   0   79.67    3.50
  -3   1  -1    5.29    1.16
  -1  -2   1    4.76    0.51
  -1  -2   1    4.42    1.11
   1   2  -1    5.77    1.15
   2  -3  -1    5.85    0.93
   2  -3  -1    6.68    1.29
   3  -1   1    5.38    1.17
  -3   1  -2  163.85    5.35
  -3   1  -2  154.77    5.47
  -1  -2   2  149.62    5.38
   1   2  -2  169.58    5.74
   1   2  -2  175.47    2.58
   2  -3  -2  176.23    3.85
   2  -3  -2  163.28    5.63
  -3   1  -3  150.75    5.61
   1   2  -3  155.84    6.20
  -3   1  -4    1.62    1.21
  -3   1  -4    2.30    1.23
   1   2  -4    4.30    1.57
   2  -3  -4    2.19    1.17
  -3   1  -5    1.06    1.13
  -3   1  -5    0.65    1.05
   1   2  -5    3.06    1.77
   2  -3  -5    1.17    1.26
  -3   1  -6    3.35    1.81
   1   2  -6    5.83    2.27
   2  -3  -6    1.85    1.54
  -3   1  -7    1.57    2.02
   1   2  -7    3.60    2.17
  -3   3  -7   36.81    5.48
  -3   3  -6    2.87    1.85
   0  -3  -6    5.20    2.41
   3   0  -6    4.76    2.15
  -3   3  -5    6.78    2.06
   0  -3  -5    8.48    2.28
   3   0  -5    8.07    2.31
  -3   3  -4    2.97    1.42
  -3   3  -4    0.53    0.89
   0  -3  -4    2.58    1.27
   3   0  -4    2.86    1.34
   3   0  -4    2.58    1.11
  -3   3  -3   57.59    3.92
  -3   3  -3   47.33    3.02
   0  -3  -3   48.09    3.59
   3   0  -3   53.20    3.75
   3   0  -3   62.38    3.39
  -3   3  -2   94.47    4.52
  -3   3  -2   87.31    3.76
   0  -3  -2   89.15    4.23
   3  -3   2   76.58    2.42
   3   0  -2  102.78    4.73
  -3   3  -1   36.25    2.65
   0  -3  -1   35.97    2.27
   0  -3  -1   35.62    2.63
   0   3   1   38.41    1.44
   3   0  -1   37.65    2.68
  -3   0   0   71.89    3.37
  -3   0   0   72.99    3.07
  -3   3   0   76.53    3.47
   0  -3   0   78.72    2.63
   0  -3   0   80.20    3.72
   0   3   0   79.54    2.87
   3   0   0   84.30    3.72
  -3   0  -1  316.42    7.52
  -3   0  -1  313.01    5.41
   0  -3   1  307.27    7.44
   0   3  -1  332.75    7.13
   3  -3  -1  352.83    7.05
   3   0   1  361.18    7.47
  -3   0  -2    6.96    1.54
  -3   0  -2    7.36    0.85
   0  -3   2    7.42    1.56
   0   3  -2    7.56    1.62
   3  -3  -2    6.05    1.16
   3  -3  -2    6.78    1.53
   3   0   2    8.37    1.56
  -3   0  -3    7.56    1.51
  -3   0  -3    4.82    1.36
   0  -3   3    2.84    1.24
   0   3  -3    5.93    1.49
   3  -3  -3    8.63    1.54
   3  -3  -3    6.63    1.57
  -3   0  -4    1.65    1.04
  -3   0  -4    3.07    1.63
   0   3  -4    1.71    1.09
   3  -3  -4    0.93    1.25
  -3   0  -5    3.10    1.55
   0   3  -5    3.24    1.72
   3  -3  -5    3.05    1.65
  -3   0  -6   25.17    4.37
   0   3  -6   28.68    4.59
   3  -3  -6   26.93    4.43
  -3  -1  -6   18.52    3.83
  -1   4  -6   18.78    4.03
   4  -3  -6   14.44    3.29
  -3  -1  -5   32.05    4.62
  -1   4  -5   38.56    4.28
   4  -3  -5   38.39    4.16
  -3  -1  -4   53.41    4.50
  -1   4  -4   50.46    4.47
   4  -3  -4   59.82    3.96
   4  -3  -4   52.08    4.25
  -3  -1  -3    6.74    1.71
  -1   4  -3   13.90    2.50
   1  -4   3    4.55    1.30
   4  -3  -3   10.57    2.03
   4  -3  -3   11.47    2.21
  -3  -1  -2    7.75    1.25
  -1   4  -2    6.33    1.61
   1  -4   2    7.08    1.54
   3   1   2    7.66    1.47
   4  -3  -2    7.39    1.63
  -3  -1  -1    8.61    1.64
  -3  -1  -1    9.77    1.56
  -1   4  -1   10.62    1.83
   1  -4   1    9.49    1.76
   3   1   1   11.36    1.74
   4  -3  -1   11.25    1.89
  -3  -1   0    1.40    0.74
  -3  -1   0    1.15    0.71
  -1   4   0    1.37    0.56
   1  -4   0    1.13    0.48
   1  -4   0    0.91    0.71
   3   1   0    2.30    0.83
   4  -3   0    1.10    0.75
  -3  -1   1   16.33    1.98
  -1   4   1   20.19    1.32
   1  -4  -1   16.34    1.76
   3   1  -1   22.98    2.34
  -4   3  -2  147.19    6.18
  -4   3  -2  137.78    5.52
   1  -4  -2  156.08    5.91
   3   1  -2  157.28    6.30
  -4   3  -3   46.76    3.79
  -4   3  -3   44.49    3.46
   1  -4  -3   48.20    3.89
   3   1  -3   51.01    3.98
  -4   3  -4   11.90    2.60
  -4   3  -4   11.70    2.23
   1  -4  -4    8.09    2.31
   3   1  -4   10.53    2.51
  -4   3  -5    0.43    1.17
  -4   3  -5    1.06    1.12
   1  -4  -5    0.57    1.35
   3   1  -5    0.72    1.36
  -4   3  -6    9.48    2.85
   1  -4  -6   10.14    3.04
   3   1  -6   10.70    3.24
  -2  -2  -6  331.12   12.84
  -2   4  -6  347.81   13.13
   4  -2  -6  338.99   12.00
  -2  -2  -5  224.84    9.68
  -2   4  -5  261.67   10.49
   4  -2  -5  249.86    9.17
   4  -2  -5  240.02    9.39
  -2  -2  -4  218.40    8.71
  -2   4  -4  252.82    9.37
   4  -2  -4  275.11    8.92
   4  -2  -4  267.19    9.15
  -2  -2  -3  634.07   13.32
  -2  -2  -3  657.18   11.19
  -2   4  -3  661.07   13.71
   2  -4   3  596.91   10.66
   4  -2  -3  733.46   13.57
   4  -2  -3  696.47   13.57
  -2  -2  -2 1115.20   15.78
  -2  -2  -2 1131.12   14.12
  -2   4  -2  398.75    9.58
   2  -4   2 1036.95   13.50
   2   2   2 1095.56   10.65
   4  -2  -2 1240.78   16.61
  -2  -2  -1 1049.48   13.48
  -2  -2  -1 1025.52   13.37
  -2   4  -1 1134.04   14.32
   2  -4   1 1049.35   13.48
   2   2   1 1152.19   11.82
   4  -2  -1 1168.80   15.50
  -2  -2   0 2738.55   18.94
  -2  -2   0 2743.20   22.51
  -2   4   0 3141.55   20.75
   2  -4   0 3154.72   20.43
   2   2   0 3340.40   22.38
   4  -2   0 3158.55   25.21
  -4   2  -1 1032.89   14.72
  -2  -2   1  993.87    9.91
  -2  -2   1 1035.53   14.68
  -2   4   1 1064.44   10.27
   2  -4  -1 1104.72   13.87
   2   2  -1 1168.18   14.83
   4  -2   1 1201.24   15.91
  -4   2  -2 1049.04   15.61
  -4   2  -2  992.24   15.15
  -2  -2   2  966.22   15.24
   2  -4  -2 1180.73   16.25
   2   2  -2 1156.11   16.41
  -4   2  -3  661.65   13.24
  -4   2  -3  609.86   12.73
   2  -4  -3  667.62   13.68
   2   2  -3  663.99   13.78
  -4   2  -4  238.70    8.59
  -4   2  -4  232.08    8.55
   2  -4  -4  256.38    9.42
   2   2  -4  275.86    9.78
  -4   2  -5  228.26    9.11
  -4   2  -5  227.00    9.11
   2  -4  -5  235.51    9.92
   2   2  -5  248.51   10.17
  -4   2  -6  320.77   11.71
   2  -4  -6  347.89   13.12
   2   2  -6  387.02   13.79
  -3   4  -6   13.10    3.41
  -1  -3  -6    7.66    2.57
   4  -1  -6   10.73    2.86
  -3   4  -5    1.97    1.62
  -1  -3  -5   -0.08    1.15
   4  -1  -5    0.77    1.27
   4  -1  -5    1.00    0.95
  -3   4  -4   13.00    2.91
  -1  -3  -4   11.65    2.65
   4  -1  -4   10.88    2.35
  -3   4  -3   56.11    4.12
  -1  -3  -3   49.88    3.93
   4  -1  -3   51.73    4.05
  -3   4  -2  150.12    6.06
  -1  -3  -2  138.44    5.56
  -1  -3  -2  134.85    5.42
   3  -4   2  133.65    4.32
   4  -1  -2  166.64    6.45
  -3   4  -1   19.84    2.05
  -1  -3  -1   18.72    1.88
  -1  -3  -1   18.51    2.16
   1   3   1   18.24    1.32
   3  -4   1   18.38    1.82
   4  -1  -1   18.16    2.14
  -3   4   0    2.38    0.85
  -1  -3   0    1.09    0.52
  -1  -3   0    1.02    0.81
   1   3   0    1.79    0.82
   4  -1   0    3.49    1.22
  -4   1  -1    8.00    1.69
  -1  -3   1    7.40    1.63
   1   3  -1    9.62    1.66
   3  -4  -1   10.92    1.30
   3  -4  -1   10.13    1.78
   4  -1   1   11.56    2.04
  -4   1  -2    4.02    1.39
  -1  -3   2    5.05    1.54
   1   3  -2    5.73    1.58
   3  -4  -2    8.72    1.30
   3  -4  -2    5.91    1.55
   4  -1   2    6.26    1.60
  -4   1  -3    5.56    1.70
  -4   1  -3    5.27    1.61
  -1  -3   3    6.56    1.99
   1   3  -3   10.13    2.14
   3  -4  -3    6.57    1.70
  -4   1  -4   56.23    4.17
  -4   1  -4   55.03    4.36
   1   3  -4   52.20    4.48
   3  -4  -4   55.07    4.56
  -4   1  -5   33.57    3.91
   1   3  -5   39.47    4.32
   3  -4  -5   36.28    4.15
  -4   1  -6   17.89    3.70
   1   3  -6   18.12    3.95
   3  -4  -6   16.35    3.45
  -4   4  -6  206.52   10.37
   0  -4  -6  194.97   10.20
   4   0  -6  210.48   10.32
  -4   4  -5   67.75    5.64
   0  -4  -5   76.72    6.05
   4   0  -5   72.76    5.68
  -4   4  -4  796.95   17.21
   0  -4  -4  777.80   16.88
   4   0  -4  832.64   17.46
  -4   4  -3  724.67   15.20
  -4   4  -3  690.17   12.58
   0  -4  -3  693.76   14.32
   4   0  -3  765.42   15.56
  -4   4  -2 1127.82   17.52
   0  -4  -2 1036.03   15.49
   4   0  -2 1190.01   18.07
  -4   4  -1 1516.87   18.94
   0  -4  -1 1367.75   15.36
   0  -4  -1 1522.72   19.25
  -4   0   0  928.82   14.06
   0  -4   0  975.31   10.56
   0  -4   0  949.23   15.02
   0   4   0 1019.14   11.87
   4   0   0 1041.39   15.27
  -4   0  -1  386.49    9.57
  -4   0  -1  408.08    7.43
   0  -4   1  429.65   10.26
   0   4  -1  454.59    9.36
   4  -4  -1  458.31    9.49
   4   0   1  468.49   10.02
  -4   0  -2 1086.23   17.16
   0  -4   2 1084.77   16.83
   0   4  -2 1147.59   16.83
   4  -4  -2 1214.19   15.29
   4  -4  -2 1242.13   18.35
   4   0   2 1268.59   16.60
  -4   0  -3  278.30    9.45
   0  -4   3  276.38    8.95
   0   4  -3  315.11    9.84
   4  -4  -3  310.81    9.97
  -4   0  -4  652.12   15.58
   0  -4   4  625.61   14.30
   0   4  -4  759.18   16.82
   4  -4  -4  752.15   16.73
  -4   0  -5  367.05   12.72
   0   4  -5  430.76   13.92
   4  -4  -5  426.39   13.69
  -4   0  -6  156.07    9.04
   0   4  -6  180.26    9.92
   4  -4  -6  165.69    9.30
  -4  -1  -5    3.61    1.85
  -1   5  -5    1.96    1.59
   5  -4  -5    5.51    2.18
  -4  -1  -4    2.52    1.62
  -1   5  -4    3.54    1.96
   1  -5   4    2.64    1.47
   5  -4  -4    4.38    1.94
  -4  -1  -3   17.89    3.28
  -1   5  -3   22.08    3.39
   1  -5   3   16.57    2.79
   5  -4  -3   20.70    3.40
  -4  -1  -2   29.48    3.19
  -1   5  -2   31.64    3.11
   1  -5   2   27.42    2.99
   4   1   2   28.06    2.72
   5  -4  -2   27.04    2.74
  -4  -1  -1    9.84    1.88
  -4  -1  -1   17.11    1.92
  -1   5  -1   15.76    2.35
   1  -5   1   18.55    2.90
   5  -4  -1   16.14    2.48
  -4  -1   0   22.72    2.47
  -4  -1   0   62.05    3.80
  -1   5   0   84.15    3.76
   1  -5   0   78.59    4.76
   4   1   0   76.07    4.43
   5  -4   0   78.36    4.68
  -5   4  -1   76.52    4.79
   1  -5  -1   67.11    3.70
   1  -5  -1   77.59    4.78
   4   1  -1   82.68    4.77
  -5   4  -2    0.78    1.20
   1  -5  -2    0.09    0.81
   4   1  -2   -0.03    0.70
  -5   4  -3    1.61    1.25
  -5   4  -3    2.90    1.37
   1  -5  -3    3.02    1.34
   4   1  -3    1.80    1.15
  -5   4  -4    1.44    1.58
  -5   4  -4    2.75    1.23
   1  -5  -4    3.38    1.70
   4   1  -4    1.43    1.48
  -5   4  -5    1.47    1.57
   1  -5  -5    0.71    1.73
   4   1  -5    0.70    1.58
   5  -3  -6   20.76    4.14
  -3  -2  -5    3.59    2.01
  -2   5  -5    2.77    1.67
   5  -3  -5    2.25    1.67
  -3  -2  -4   11.18    2.69
  -2   5  -4   10.66    2.39
   5  -3  -4   12.12    2.48
   5  -3  -4   11.34    2.62
  -3  -2  -3   13.40    2.71
  -2   5  -3   17.45    3.02
   2  -5   3    8.62    1.89
   5  -3  -3   15.55    2.56
  -3  -2  -2  163.51    6.71
  -3  -2  -2  181.28    6.13
  -2   5  -2  186.80    7.13
   2  -5   2  164.93    6.43
   5  -3  -2  185.81    7.11
  -3  -2  -1    5.72    1.59
  -3  -2  -1    6.74    1.47
  -2   5  -1    5.96    1.42
   2  -5   1    4.41    1.35
   3   2   1    7.33    1.41
   5  -3  -1    7.31    1.68
  -3  -2   0    4.87    1.23
  -3  -2   0    3.62    1.24
  -2   5   0    6.35    1.30
   2  -5   0    4.61    1.06
   2  -5   0    6.11    1.78
   3   2   0    4.85    1.43
   5  -3   0    4.57    1.52
  -3  -2   1    3.67    1.22
   2  -5  -1    4.05    1.35
   3   2  -1    6.12    1.58
   5  -3   1    4.79    1.42
  -5   3  -2   22.59    2.81
  -5   3  -2   24.98    2.90
  -3  -2   2   17.31    2.79
   2  -5  -2   23.63    2.63
   3   2  -2   23.45    2.72
  -5   3  -3    6.19    1.98
  -5   3  -3    5.62    1.96
   2  -5  -3    7.57    1.95
   3   2  -3    7.86    2.04
  -5   3  -4   69.63    5.24
  -5   3  -4   67.58    4.93
   2  -5  -4   67.72    5.29
   3   2  -4   67.39    5.36
  -5   3  -5    8.37    2.60
  -5   3  -5    9.76    2.53
   2  -5  -5    9.19    2.75
   3   2  -5   12.31    3.09
  -5   3  -6   21.02    4.14
  -3   5  -5    8.49    2.57
  -2  -3  -5    8.01    2.49
   5  -2  -5    9.73    2.65
   5  -2  -5   10.19    2.63
  -3   5  -4   61.89    5.02
  -2  -3  -4   72.82    5.47
   5  -2  -4   73.22    5.22
   5  -2  -4   79.73    5.39
  -3   5  -3    5.02    1.91
  -2  -3  -3    9.01    2.14
  -2  -3  -3    5.69    1.64
   5  -2  -3    7.78    2.04
  -3   5  -2   23.18    2.87
  -2  -3  -2   22.57    2.62
   3  -5   2   18.86    2.21
   5  -2  -2   26.78    2.93
  -3   5  -1    3.28    1.33
  -2  -3  -1    6.83    1.66
  -2  -3  -1    3.59    1.21
   3  -5   1    4.25    1.27
   5  -2  -1    2.93    1.20
  -3   5   0    5.98    1.44
  -2  -3   0    3.74    0.90
  -2  -3   0    5.09    1.62
   2   3   0    5.44    1.23
   3  -5   0    5.57    1.35
   5  -2   0    6.19    1.66
  -5   2  -1    4.78    1.32
  -2  -3   1    5.85    1.63
   2   3  -1    1.72    1.06
   3  -5  -1    2.80    1.15
   5  -2   1    4.85    1.47
  -5   2  -2  166.34    7.07
  -2  -3   2  161.35    7.01
   2   3  -2  170.50    6.91
   3  -5  -2  187.93    7.19
   5  -2   2  190.41    7.42
  -5   2  -3   18.13    3.14
  -5   2  -3   14.61    2.88
  -2  -3   3   14.47    2.82
   2   3  -3   12.53    2.65
   3  -5  -3   15.16    2.81
  -5   2  -4   13.97    2.79
  -5   2  -4   12.45    2.72
   2   3  -4   16.52    3.22
   3  -5  -4   12.73    2.78
  -5   2  -5    1.75    1.61
  -5   2  -5    2.94    1.82
   2   3  -5    1.83    1.79
   3  -5  -5    2.87    1.78
  -5   2  -6   24.41    4.40
   5  -1  -6   12.44    3.24
  -4   5  -5   -0.14    1.57
  -1  -4  -5    0.50    1.49
   5  -1  -5    0.21    1.21
  -4   5  -4    2.70    1.61
  -1  -4  -4    2.29    1.60
  -1  -4  -4    1.67    1.44
   5  -1  -4    0.76    1.22
   5  -1  -4    1.88    1.33
  -4   5  -3    1.82    1.53
  -1  -4  -3    1.88    1.18
  -1  -4  -3    3.58    1.54
   5  -1  -3    3.24    1.74
  -4   5  -2    0.81    0.97
  -1  -4  -2    0.15    0.80
  -1  -4  -2    1.94    1.05
   5  -1  -2    1.94    1.35
  -4   5  -1   78.85    4.61
  -1  -4  -1   76.01    3.91
  -1  -4  -1   71.34    4.53
   4  -5   1   74.51    3.85
   5  -1  -1   81.28    4.89
  -4   5   0   26.22    2.60
  -1  -4   0   70.56    4.49
   1   4   0   74.15    3.64
   5  -1   0   76.17    4.62
  -5   1  -1   17.27    2.81
  -1  -4   1   24.24    2.74
   1   4  -1    7.58    1.70
   4  -5  -1   18.01    2.04
   5  -1   1   20.14    2.47
  -5   1  -2   29.06    3.26
  -1  -4   2   23.86    3.43
   1   4  -2   24.91    2.89
   4  -5  -2   34.93    3.41
   5  -1   2   28.94    3.16
  -5   1  -3   17.55    3.10
  -1  -4   3   18.52    3.25
   1   4  -3   24.05    2.89
   4  -5  -3   25.41    3.85
   5  -1   3   21.39    2.65
  -5   1  -4    1.94    1.41
   1   4  -4    2.41    1.66
   4  -5  -4    4.11    1.93
   5  -1   4    3.55    1.30
  -5   1  -5    4.02    1.95
   1   4  -5    4.20    2.03
   4  -5  -5    2.62    1.78
  -5   5  -5    0.28    1.73
   0  -5  -5    0.28    1.49
   5   0  -5    2.04    1.61
  -5   5  -4    0.77    1.62
   0  -5  -4    1.05    1.43
   5   0  -4    2.48    1.68
  -5   5  -3   89.45    6.06
   0  -5  -3   89.45    5.67
   0  -5  -3   84.11    5.66
   5   0  -3   91.94    6.10
  -5   5  -2   56.05    4.40
   0  -5  -2   51.10    3.92
   0  -5  -2   51.64    4.31
   5   0  -2   64.16    4.77
  -5   5  -1    0.64    0.92
   0  -5  -1    1.94    1.48
   5   0  -1    1.04    1.27
  -5   0   0   46.14    3.85
   0  -5   0   52.02    4.19
   5  -5   0   53.51    3.98
   5   0   0   52.82    4.05
  -5   0  -1   37.40    3.56
   0  -5   1   42.47    3.86
   0   5  -1   47.36    3.42
   5  -5  -1   46.44    3.52
   5   0   1   46.79    3.78
  -5   0  -2    4.68    1.71
   0  -5   2    5.33    1.89
   0   5  -2    6.06    1.90
   5  -5  -2    5.54    1.47
   5  -5  -2    6.07    1.93
   5   0   2    4.97    1.59
  -5   0  -3   40.00    4.18
   0  -5   3   34.55    3.76
   0   5  -3   46.44    4.23
   5  -5  -3   35.23    3.98
   5   0   3   48.76    3.94
  -5   0  -4    0.34    1.47
   0  -5   4    1.33    1.54
   0   5  -4    1.72    1.32
   5  -5  -4    3.15    1.91
  -5   0  -5   53.57    5.47
   0   5  -5   55.84    5.66
   5  -5  -5   49.11    5.23
  -5  -1  -4    3.92    2.01
  -1   6  -4    6.87    2.32
   1  -6   4    5.91    2.03
   6  -5  -4    8.62    2.60
  -5  -1  -3   31.68    3.91
  -1   6  -3   37.48    3.96
   1  -6   3   25.30    3.88
   6  -5  -3   38.26    4.23
  -5  -1  -2   35.87    3.89
  -1   6  -2   43.66    3.93
   1  -6   2   35.51    3.88
   6  -5  -2   36.26    3.47
  -5  -1  -1   10.74    2.42
   1  -6   1    9.00    2.27
   5   1   1   10.53    2.15
   6  -5  -1    9.93    2.29
  -5  -1   0    5.49    1.85
   1  -6   0    7.73    2.19
   5   1   0    8.82    2.14
   6  -5   0    8.78    2.32
   1  -6  -1   25.44    3.89
   5   1  -1   27.19    3.39
   6  -5   1   28.10    3.96
  -6   5  -2    2.36    1.70
   1  -6  -2    3.11    1.35
   1  -6  -2    5.96    2.19
   5   1  -2    2.23    1.50
  -6   5  -3    3.19    1.75
   1  -6  -3    3.87    1.78
   1  -6  -3    3.14    1.96
   5   1  -3    2.88    1.37
  -6   5  -4   18.00    3.82
   1  -6  -4   16.27    3.55
   5   1  -4   18.07    3.96
   1  -6  -5   30.01    5.18
  -4  -2  -5   74.02    6.41
  -2   6  -5   82.24    6.80
   6  -4  -5   74.48    6.38
  -4  -2  -4  510.73   15.25
  -2   6  -4  539.79   15.57
   6  -4  -4  552.24   15.77
  -4  -2  -3  423.10   12.82
  -2   6  -3  440.33   12.94
   2  -6   3  377.02   11.19
   6  -4  -3  437.85   12.31
  -4  -2  -2  593.99   14.02
  -2   6  -2  632.06   14.07
   2  -6   2  548.55   13.19
   6  -4  -2  641.68   14.54
  -4  -2  -1  745.90   14.51
  -4  -2  -1  735.91   13.80
  -2   6  -1  886.35   15.00
   2  -6   1  789.36   15.79
   6  -4  -1  861.44   16.64
  -4  -2   0  563.25   11.76
  -4  -2   0  581.31   12.81
   2  -6   0  590.52   13.79
   4   2   0  678.19   13.57
   6  -4   0  660.23   14.71
  -4  -2   1  337.67   10.35
   2  -6  -1  306.03    9.53
   2  -6  -1  354.79   11.03
   4   2  -1  391.84   10.99
   6  -4   1  401.38   11.75
   2  -6  -2  791.71   15.30
   4   2  -2  861.65   17.38
   6  -4   2  886.58   18.08
  -6   4  -3  229.04    9.73
  -6   4  -3  217.05    8.96
   2  -6  -3  208.04    8.76
   4   2  -3  227.85    9.67
  -6   4  -4  418.48   13.78
  -6   4  -4  435.08   13.22
   2  -6  -4  434.82   13.80
   4   2  -4  463.84   14.65
  -6   4  -5  261.36   11.61
   2  -6  -5  255.53   11.59
   4   2  -5  278.12   12.24
  -3  -3  -5    1.46    2.02
  -3   6  -5    1.30    1.79
   6  -3  -5    3.16    1.99
  -3  -3  -4    5.36    2.30
  -3   6  -4    6.95    2.22
   6  -3  -4    6.12    2.06
   6  -3  -4    6.15    2.08
  -3  -3  -3    3.41    1.68
  -3   6  -3    7.25    2.23
   6  -3  -3    3.01    1.84
  -3  -3  -2    4.71    1.70
  -3  -3  -2    4.09    1.48
  -3   6  -2    6.70    1.88
   3  -6   2    3.61    1.52
   6  -3  -2    7.49    2.12
  -3  -3  -1   11.01    1.99
  -3  -3  -1   11.57    2.19
  -3   6  -1   16.89    2.63
   3  -6   1   13.85    2.45
   6  -3  -1   17.19    3.02
  -3  -3   0  115.45    5.93
   3  -6   0  110.72    5.86
   3   3   0  119.86    5.39
   6  -3   0  119.62    6.30
  -3  -3   1   13.68    2.59
   3  -6  -1   15.45    2.46
   3   3  -1   15.62    2.63
   6  -3   1   14.10    2.81
  -6   3  -2    5.12    1.82
  -3  -3   2    5.07    1.74
   3  -6  -2    4.77    1.84
   3   3  -2    3.44    1.58
   6  -3   2    8.05    2.23
  -6   3  -3    4.02    1.96
   3  -6  -3    2.75    1.46
   3   3  -3    4.13    1.80
   6  -3   3    2.77    1.98
  -6   3  -4    5.25    2.05
  -6   3  -4    5.24    1.93
   3  -6  -4    5.57    2.35
   3   3  -4    6.99    2.35
  -6   3  -5    0.75    1.97
  -6   3  -5    0.65    1.51
   3  -6  -5   -0.06    1.66
   3   3  -5    1.68    1.88
  -4   6  -5  253.85   11.66
  -2  -4  -5  245.95   11.38
   6  -2  -5  273.54   11.57
  -4   6  -4  440.18   14.24
  -2  -4  -4  424.00   13.62
   6  -2  -4  501.27   14.82
   6  -2  -4  463.41   13.56
  -4   6  -3  210.97    9.11
  -2  -4  -3  211.67    8.83
  -2  -4  -3  208.57    8.32
   6  -2  -3  249.28    9.96
  -4   6  -2  837.48   16.80
  -2  -4  -2  801.08   15.38
  -2  -4  -2  775.88   15.70
   6  -2  -2  892.20   18.04
  -4   6  -1  353.54   10.12
  -2  -4  -1  343.11   10.46
   4  -6   1  331.10    9.27
   6  -2  -1  391.72   11.64
  -4   6   0  619.26   12.38
  -2  -4   0  610.59   14.04
   4  -6   0  659.72   12.75
   6  -2   0  663.91   14.92
  -2  -4   1  772.28   16.20
   2   4  -1  826.90   14.84
   4  -6  -1  884.66   15.83
   6  -2   1  930.14   17.67
  -6   2  -2  585.66   14.71
  -2  -4   2  561.32   14.42
   2   4  -2  624.62   14.19
   4  -6  -2  641.35   14.59
   6  -2   2  676.58   15.37
  -6   2  -3  390.42   12.59
  -2  -4   3  391.01   12.69
   2   4  -3  439.51   13.05
   4  -6  -3  419.72   12.81
   6  -2   3  449.73   12.90
  -6   2  -4  531.32   15.51
   2   4  -4  551.15   15.84
   4  -6  -4  535.10   15.61
   6  -2   4  612.85   15.71
  -6   2  -5   67.17    6.02
   2   4  -5   71.21    6.33
   4  -6  -5   75.24    6.48
  -1  -5  -5   34.47    5.48
   6  -1  -5   35.05    5.47
  -5   6  -4   15.79    3.59
  -1  -5  -4   17.59    3.60
  -1  -5  -4   14.31    3.06
   6  -1  -4   16.75    3.86
  -5   6  -3    4.21    2.17
  -1  -5  -3    5.85    2.03
  -1  -5  -3    5.61    1.84
   6  -1  -3    5.07    2.05
  -5   6  -2    0.81    1.30
  -1  -5  -2    2.27    1.27
  -1  -5  -2   -0.22    1.29
   6  -1  -2    0.84    1.08
  -5   6  -1   26.90    3.27
  -1  -5  -1   23.14    3.63
   6  -1  -1   33.42    3.76
  -1  -5   0    6.50    1.95
   6  -1   0    3.28    1.83
  -6   1  -1   10.77    2.52
  -1  -5   1    7.66    2.31
   1   5  -1   11.47    2.13
   5  -6  -1   12.55    2.69
   6  -1   1   12.70    2.71
  -6   1  -2   45.39    4.41
  -1  -5   2   35.37    3.94
   1   5  -2   37.36    3.69
   5  -6  -2   39.56    4.05
   6  -1   2   39.05    3.93
  -6   1  -3   28.30    4.47
  -1  -5   3   32.07    4.76
   1   5  -3   33.68    3.85
   5  -6  -3   32.42    4.01
   6  -1   3   34.66    3.72
  -6   1  -4    9.38    2.77
  -1  -5   4    7.52    2.50
   1   5  -4    6.29    2.18
   5  -6  -4    4.18    2.12
  -6   6  -4  169.62    9.47
   0  -6  -4  158.37    8.77
   0  -6  -4  185.52    9.52
   6   0  -4  163.73    9.42
  -6   6  -3  318.59   12.16
   0  -6  -3  297.99   10.78
   0  -6  -3  324.97   11.98
   6   0  -3  355.31   12.91
  -6   6  -2  440.26   13.53
   0  -6  -2  448.10   13.69
   6   0  -2  477.03   14.24
   0  -6  -1  307.68   11.16
   6   0  -1  346.57   11.64
   0  -6   0  954.56   19.43
   6  -6   0 1069.28   19.25
   6   0   0 1091.06   20.02
  -6   0  -1  379.80   12.01
   0  -6   1  374.51   12.31
   6  -6  -1  405.36   11.51
   6   0   1  444.23   12.61
  -6   0  -2  508.20   14.53
   0  -6   2  482.82   14.25
   0   6  -2  531.77   13.49
   6  -6  -2  563.11   15.31
   6   0   2  538.51   13.78
  -6   0  -3  322.61   12.23
   0  -6   3  322.73   12.05
   0   6  -3  343.38   11.94
   6  -6  -3  370.44   13.10
  -6   0  -4  140.20    8.71
   0  -6   4  140.56    8.37
   0   6  -4  159.95    8.87
   6  -6  -4  154.38    9.16
   1  -7   4   21.25    4.30
  -6  -1  -3    2.50    1.90
  -1   7  -3    2.19    1.32
   1  -7   3    1.42    1.94
   7  -6  -3    0.06    1.67
  -6  -1  -2    2.55    1.88
   1  -7   2    0.24    1.40
  -6  -1  -1    1.09    1.44
   1  -7   1    6.50    2.35
   6   1   1    2.30    1.61
   7  -6  -1    3.11    1.76
   1  -7   0    0.47    1.34
   6   1   0    0.85    1.50
   7  -6   0    0.87    1.29
   1  -7  -1    6.21    2.32
   6   1  -1    5.50    1.93
   7  -6   1    8.82    2.77
   1  -7  -2   42.20    4.79
   6   1  -2   46.62    4.83
   7  -6   2   48.86    5.30
  -7   6  -3    7.30    2.72
   1  -7  -3    5.78    2.53
   6   1  -3   11.73    3.40
   1  -7  -4    8.29    3.04
  -5  -2  -4   -0.27    1.39
  -2   7  -4    0.59    1.38
   7  -5  -4    0.11    1.23
  -5  -2  -3    1.97    1.60
  -2   7  -3    2.38    1.50
   2  -7   3    1.78    1.46
   7  -5  -3    2.16    1.77
   7  -5  -3    2.04    1.87
  -5  -2  -2    3.24    1.75
  -2   7  -2    3.05    1.37
   2  -7   2    3.74    1.82
   7  -5  -2    2.04    1.66
  -5  -2  -1   57.34    4.68
   2  -7   1   61.51    5.14
   7  -5  -1   58.42    4.93
  -5  -2   0   26.25    3.87
   2  -7   0   21.72    3.81
   5   2   0   28.28    3.28
   7  -5   0   27.33    4.23
   2  -7  -1    5.51    2.30
   5   2  -1    4.29    1.85
   7  -5   1    6.79    2.27
   2  -7  -2   29.19    4.65
   5   2  -2   37.13    4.05
   7  -5   2   33.68    4.97
   2  -7  -3   23.56    3.92
   2  -7  -3   20.38    4.00
   5   2  -3   28.22    4.75
  -7   5  -4    0.33    1.69
   2  -7  -4    1.24    1.73
  -4  -3  -4   -0.56    1.70
  -3   7  -4    1.31    1.68
   7  -4  -4   -0.01    1.69
   7  -4  -4    0.04    1.58
  -4  -3  -3   40.75    4.47
  -3   7  -3   46.74    4.74
   7  -4  -3   55.24    5.08
  -4  -3  -2   30.96    3.58
  -3   7  -2   33.21    3.56
   3  -7   2   28.85    3.60
   7  -4  -2   39.05    4.20
  -4  -3  -1    0.91    1.10
   3  -7   1    1.09    1.53
   7  -4  -1    0.34    1.17
  -4  -3   0   22.45    3.46
   3  -7   0   23.76    3.82
   7  -4   0   30.40    4.43
  -4  -3   1   31.51    4.48
   3  -7  -1   23.77    3.91
   4   3  -1   29.84    3.35
   7  -4   1   35.46    4.14
  -4  -3   2   -0.62    1.00
   3  -7  -2    4.61    1.67
   4   3  -2    0.28    1.42
   7  -4   2    1.66    1.39
   3  -7  -3   15.02    3.15
   4   3  -3   22.18    4.18
   7  -4   3   24.85    4.25
  -7   4  -4    1.60    1.69
   3  -7  -4    3.07    1.82
   4   3  -4    2.43    1.86
   7  -4   4    1.96    2.14
  -4   7  -4    2.51    1.87
  -3  -4  -4    2.83    1.81
   7  -3  -4    3.59    2.12
   7  -3  -4    2.17    1.93
  -4   7  -3   16.18    3.33
  -3  -4  -3   17.50    3.50
   7  -3  -3   22.04    4.06
  -4   7  -2    2.03    1.61
  -3  -4  -2    2.52    1.28
  -3  -4  -2    1.54    1.38
   7  -3  -2    1.50    1.36
  -4   7  -1   28.21    3.25
  -3  -4  -1   28.40    3.49
   4  -7   1   21.72    3.46
   7  -3  -1   31.53    4.50
  -3  -4   0   25.35    3.91
   4  -7   0   25.02    3.70
   7  -3   0   31.00    4.57
  -3  -4   1    1.41    1.41
   3   4  -1    1.11    1.24
   7  -3   1    2.71    1.51
  -3  -4   2   31.17    4.59
   3   4  -2   35.95    3.93
   4  -7  -2   32.30    3.76
   7  -3   2   34.72    4.03
  -7   3  -3   43.60    4.71
  -3  -4   3   38.49    4.68
   3   4  -3   47.17    4.72
   4  -7  -3   42.95    4.69
   7  -3   3   53.10    5.28
  -7   3  -4    0.48    1.72
   3   4  -4    0.17    1.14
   4  -7  -4    0.45    1.74
   7  -3   4    0.63    1.59
  -5   7  -4   -0.59    1.33
  -2  -5  -4    1.28    1.65
   7  -2  -4   -0.26    1.39
  -5   7  -3   28.08    4.55
  -2  -5  -3   23.48    3.97
  -2  -5  -3   21.01    3.59
   7  -2  -3   26.06    4.64
  -5   7  -2   30.46    3.79
  -2  -5  -2   27.90    3.44
   7  -2  -2   36.62    4.34
  -5   7  -1    4.95    2.05
  -2  -5  -1    5.62    2.21
   7  -2  -1    5.00    1.89
  -2  -5   0   25.41    3.98
   5  -7   0   24.45    3.65
   7  -2   0   24.18    3.90
  -2  -5   1   59.47    5.20
   5  -7  -1   61.82    4.89
   7  -2   1   70.42    5.55
  -7   2  -2    2.46    1.92
  -2  -5   2    0.95    1.65
   2   5  -2    2.53    1.90
   5  -7  -2    3.36    1.61
   7  -2   2    2.09    1.22
  -7   2  -3    1.09    1.56
  -2  -5   3    0.27    1.73
   2   5  -3    1.08    1.35
   5  -7  -3    1.69    1.70
   7  -2   3    1.81    1.57
  -7   2  -4    1.26    1.72
   2   5  -4   -0.02    1.45
   5  -7  -4    1.32    1.91
   7  -2   4   -0.01    1.49
  -1  -6  -4    9.08    3.03
  -1  -6  -4    6.71    2.75
  -6   7  -3    6.38    2.55
  -1  -6  -3    6.04    2.41
   7  -1  -3   12.05    3.38
  -6   7  -2   32.76    4.74
  -1  -6  -2   42.35    4.75
   7  -1  -2   51.04    5.20
  -6   7  -1    6.02    1.92
  -1  -6  -1    4.54    1.92
   7  -1  -1    8.65    2.73
  -1  -6   0    2.46    1.61
   6  -7   0    0.70    1.28
   7  -1   0    2.10    1.42
  -1  -6   1    2.86    1.74
   6  -7  -1    4.47    2.01
   7  -1   1    1.72    1.21
  -7   1  -2    1.94    1.66
  -1  -6   2    0.38    1.80
   6  -7  -2    2.62    1.77
   7  -1   2    2.35    1.72
  -7   1  -3    2.47    2.09
  -1  -6   3   -0.30    1.76
   1   6  -3    0.84    1.31
   6  -7  -3   -0.48    1.66
   7  -1   3    0.67    1.70
  -7   7  -2    6.69    2.35
   0  -7  -2   10.34    3.19
   7   0  -2    9.58    3.02
   0  -7  -1    1.89    1.91
   7  -7   1    3.29    2.04
   7   0  -1    4.56    2.30
   0  -7   0    1.15    1.58
   7  -7   0    2.90    1.93
   7   0   0    1.86    1.46
  -7   0  -1    2.28    2.02
   0  -7   1    1.15    1.70
   7   0   1    2.30    1.60
  -7   0  -2   71.81    6.24
   0  -7   2   65.74    6.13
   7  -7  -2   74.22    6.45
  -7  -1  -1    2.59    2.04
   7   1   0   49.33    5.15
   8  -7   0   49.54    5.42
   7   1  -1    2.05    1.87
   8  -7   1    3.55    2.10
   2  -8   3   86.23    7.01
  -6  -2  -2  338.96   12.75
   2  -8   2  347.98   13.23
   8  -6  -2  383.67   13.53
   2  -8   1  195.86    9.94
   8  -6  -1  211.54   10.15
   2  -8   0  319.56   12.75
   8  -6   0  403.45   14.05
   2  -8  -1  374.96   14.02
   6   2  -1  422.05   14.01
   8  -6   1  444.49   15.09
   6   2  -2  294.29   12.30
  -5  -3  -3    1.54    1.84
  -3   8  -3    1.59    1.78
   8  -5  -3    0.64    1.96
   3  -8   2    3.30    1.82
   8  -5  -2    4.73    2.25
   3  -8   1   13.13    3.15
   8  -5  -1   13.15    3.28
  -5  -3   0    0.45    1.24
   3  -8   0    1.22    1.84
   8  -5   0    0.95    1.81
  -5  -3   1   10.76    2.85
   3  -8  -1   10.16    3.04
   5   3  -1    8.79    2.72
   8  -5   1    8.96    2.83
   3  -8  -2   16.68    3.86
   5   3  -2   23.95    4.32
   8  -5   2   20.93    4.33
  -4   8  -3  231.83   10.75
   8  -4  -3  259.95   11.64
   8  -4  -2  353.83   13.31
  -4  -4  -1  219.57    9.60
   4  -8   1  213.80    9.45
   8  -4  -1  247.83   11.05
  -4  -4   0  575.77   15.83
   4  -8   0  603.43   16.24
   8  -4   0  695.82   18.38
  -4  -4   1  217.47   10.13
   4  -8  -1  217.14   10.17
   8  -4   1  258.88   11.37
  -4  -4   2  311.87   12.58
   4   4  -2  333.76   12.20
   8  -4   2  355.92   13.55
   4  -8  -3  224.27   10.56
   4   4  -3  237.95   11.09
  -5   8  -3    9.05    2.89
  -5   8  -2   20.71    3.79
  -3  -5  -2   22.71    3.92
   8  -3  -2   25.30    4.55
  -3  -5  -1    9.10    2.46
   8  -3  -1   11.13    2.98
  -3  -5   0    1.19    1.60
   5  -8   0    1.18    1.44
   8  -3   0    1.51    1.62
  -3  -5   1   16.52    3.72
   8  -3   1   10.26    2.95
  -3  -5   2    6.46    2.67
   8  -3   2    7.30    2.74
   3   5  -3    2.38    1.82
   5  -8  -3    1.11    1.99
   8  -3   3    1.80    1.99
  -2  -6  -3  162.18    9.19
  -6   8  -2  282.03   11.65
  -2  -6  -2  271.89   11.75
  -2  -6  -1  372.61   13.55
   8  -2  -1  455.95   15.41
  -2  -6   0  313.63   12.56
   8  -2   0  365.28   13.65
  -2  -6   1  188.86    9.98
   8  -2   1  231.97   10.86
   6  -8  -2  390.26   13.68
   8  -2   2  393.88   14.14
   7  -8   1    1.19    1.96
   8  -1   0   54.29    5.62
   7  -8  -1   -0.08    1.67
   8  -1   1    2.09    1.93
   8  -1   2    6.39    2.39
  -5  -4   0    1.24    1.87
  -4  -5  -1    0.94    1.57
   0   0   0    0.00    0.00
;
_shelx_hkl_checksum              6057
loop_
_space_group_symop_operation_xyz
'x, y, z'
'-y, x-y, z'
'-x+y, -x, z'
'y, x, -z'
'x-y, -y, -z'
'-x, -x+y, -z'
'-x, -y, -z'
'y, -x+y, -z'
'x-y, x, -z'
'-y, -x, z'
'-x+y, y, z'
'x, x-y, z'
loop_
_atom_site_label
_atom_site_type_symbol
_atom_site_fract_x
_atom_site_fract_y
_atom_site_fract_z
_atom_site_U_iso_or_equiv
_atom_site_adp_type
_atom_site_occupancy
_atom_site_site_symmetry_order
_atom_site_calc_flag
_atom_site_refinement_flags_posn
_atom_site_refinement_flags_adp
_atom_site_refinement_flags_occupancy
_atom_site_disorder_assembly
_atom_site_disorder_group
Y11 Y 0.0000 0.0000 0.5000 0.0159(8) Uani 0.915(12) 12 d S T P . .
Y12 Y 0.0000 0.0000 0.379(9) 0.0159(8) Uani 0.042(6) 6 d S T P . .
Cu1 Cu 0.5000 0.5000 0.5000 0.0125(3) Uani 1 4 d S T P . .
Cl1 Cl 0.3333 0.6667 0.8604(3) 0.0213(5) Uani 1 6 d S T P . .
Cl2 Cl 0.0000 0.0000 0.0000 0.0222(6) Uani 1 12 d S T P . .
O1 O 0.1899(3) 0.3798(5) 0.3659(5) 0.0140(6) Uani 1 2 d DS T P . .
H1 H 0.192(5) 0.384(9) 0.221(4) 0.026(16) Uiso 1 2 d DS . P . .
loop_
_atom_site_aniso_label
_atom_site_aniso_U_11
_atom_site_aniso_U_22
_atom_site_aniso_U_33
_atom_site_aniso_U_23
_atom_site_aniso_U_13
_atom_site_aniso_U_12
Y11 0.0099(4) 0.0099(4) 0.028(2) 0.000 0.000 0.0049(2)
Y12 0.0099(4) 0.0099(4) 0.028(2) 0.000 0.000 0.0049(2)
Cu1 0.0089(4) 0.0089(4) 0.0180(5) 0.00094(12) -0.00094(12) 0.0032(3)
Cl1 0.0250(7) 0.0250(7) 0.0140(8) 0.000 0.000 0.0125(3)
Cl2 0.0243(9) 0.0243(9) 0.0179(12) 0.000 0.000 0.0121(4)
O1 0.0124(11) 0.0159(14) 0.0149(14) -0.0019(11) -0.0010(6) 0.0080(7)
loop_
_atom_type_symbol
_atom_type_description
_atom_type_scat_dispersion_real
_atom_type_scat_dispersion_imag
_atom_type_scat_source
O O 0.0106 0.0060 'International Tables Vol C Tables 4.2.6.8 and 6.1.1.4'
H H 0.0000 0.0000 'International Tables Vol C Tables 4.2.6.8 and 6.1.1.4'
Cl Cl 0.1484 0.1585 'International Tables Vol C Tables 4.2.6.8 and 6.1.1.4'
Cu Cu 0.3201 1.2651 'International Tables Vol C Tables 4.2.6.8 and 6.1.1.4'
Y Y -2.7962 3.5667 'International Tables Vol C Tables 4.2.6.8 and 6.1.1.4'
loop_
_geom_angle_atom_site_label_1
_geom_angle_atom_site_label_2
_geom_angle_atom_site_label_3
_geom_angle
_geom_angle_site_symmetry_1
_geom_angle_site_symmetry_3
Y12 Y11 Y12 180.000(10) 7_556 .
Y12 Y11 O1 71.24(7) 7_556 8_556
Y12 Y11 O1 108.76(7) . 8_556
Y12 Y11 O1 108.76(7) 7_556 2
Y12 Y11 O1 71.24(7) . 2
O1 Y11 O1 180.0 8_556 2
Y12 Y11 O1 71.24(7) 7_556 7_556
Y12 Y11 O1 108.76(7) . 7_556
O1 Y11 O1 110.17(7) 8_556 7_556
O1 Y11 O1 69.83(7) 2 7_556
Y12 Y11 O1 71.24(7) 7_556 9_556
Y12 Y11 O1 108.76(7) . 9_556
O1 Y11 O1 110.17(7) 8_556 9_556
O1 Y11 O1 69.83(7) 2 9_556
O1 Y11 O1 110.17(7) 7_556 9_556
Y12 Y11 O1 108.76(7) 7_556 3
Y12 Y11 O1 71.24(7) . 3
O1 Y11 O1 69.83(7) 8_556 3
O1 Y11 O1 110.17(7) 2 3
O1 Y11 O1 69.83(7) 7_556 3
O1 Y11 O1 180.0 9_556 3
Y12 Y11 O1 108.76(7) 7_556 .
Y12 Y11 O1 71.24(7) . .
O1 Y11 O1 69.83(7) 8_556 .
O1 Y11 O1 110.17(7) 2 .
O1 Y11 O1 180.0 7_556 .
O1 Y11 O1 69.83(7) 9_556 .
O1 Y11 O1 110.17(7) 3 .
Y12 Y11 Cl2 180.000(17) 7_556 .
Y12 Y11 Cl2 0.000(11) . .
O1 Y11 Cl2 108.76(7) 8_556 .
O1 Y11 Cl2 71.24(7) 2 .
O1 Y11 Cl2 108.76(7) 7_556 .
O1 Y11 Cl2 108.76(7) 9_556 .
O1 Y11 Cl2 71.24(7) 3 .
O1 Y11 Cl2 71.24(7) . .
Y12 Y11 Cl2 0.000(17) 7_556 1_556
Y12 Y11 Cl2 180.000(10) . 1_556
O1 Y11 Cl2 71.24(7) 8_556 1_556
O1 Y11 Cl2 108.76(7) 2 1_556
O1 Y11 Cl2 71.24(7) 7_556 1_556
O1 Y11 Cl2 71.24(7) 9_556 1_556
O1 Y11 Cl2 108.76(7) 3 1_556
O1 Y11 Cl2 108.76(7) . 1_556
Cl2 Y11 Cl2 180.0 . 1_556
Y12 Y11 Cu1 90.000(14) 7_556 1_445
Y12 Y11 Cu1 90.000(14) . 1_445
O1 Y11 Cu1 145.09(3) 8_556 1_445
O1 Y11 Cu1 34.91(3) 2 1_445
O1 Y11 Cu1 34.92(3) 7_556 1_445
O1 Y11 Cu1 90.0 9_556 1_445
O1 Y11 Cu1 90.0 3 1_445
O1 Y11 Cu1 145.08(3) . 1_445
Cl2 Y11 Cu1 90.0 . 1_445
Cl2 Y11 Cu1 90.0 1_556 1_445
Y12 Y11 Cu1 90.000(14) 7_556 .
Y12 Y11 Cu1 90.000(14) . .
O1 Y11 Cu1 34.91(3) 8_556 .
O1 Y11 Cu1 145.09(3) 2 .
O1 Y11 Cu1 145.08(3) 7_556 .
O1 Y11 Cu1 90.0 9_556 .
O1 Y11 Cu1 90.0 3 .
O1 Y11 Cu1 34.92(3) . .
Cl2 Y11 Cu1 90.0 . .
Cl2 Y11 Cu1 90.0 1_556 .
Cu1 Y11 Cu1 180.0 1_445 .
Y11 Y12 Y12 0.000(5) . 7_556
Y11 Y12 Cl2 180.0 . .
Y12 Y12 Cl2 180.0 7_556 .
Y11 Y12 O1 91.9(13) . .
Y12 Y12 O1 91.9(13) 7_556 .
Cl2 Y12 O1 88.1(13) . .
Y11 Y12 O1 91.9(13) . 2
Y12 Y12 O1 91.9(13) 7_556 2
Cl2 Y12 O1 88.1(13) . 2
O1 Y12 O1 119.89(15) . 2
Y11 Y12 O1 91.9(13) . 3
Y12 Y12 O1 91.9(13) 7_556 3
Cl2 Y12 O1 88.1(13) . 3
O1 Y12 O1 119.89(15) . 3
O1 Y12 O1 119.89(15) 2 3
Y11 Y12 O1 57.1(9) . 8_556
Y12 Y12 O1 57.1(9) 7_556 8_556
Cl2 Y12 O1 122.9(9) . 8_556
O1 Y12 O1 66.3(5) . 8_556
O1 Y12 O1 149(2) 2 8_556
O1 Y12 O1 66.3(5) 3 8_556
Y11 Y12 O1 57.1(9) . 9_556
Y12 Y12 O1 57.1(9) 7_556 9_556
Cl2 Y12 O1 122.9(9) . 9_556
O1 Y12 O1 66.3(5) . 9_556
O1 Y12 O1 66.3(5) 2 9_556
O1 Y12 O1 149(2) 3 9_556
O1 Y12 O1 93.4(12) 8_556 9_556
Y11 Y12 O1 57.1(9) . 7_556
Y12 Y12 O1 57.1(9) 7_556 7_556
Cl2 Y12 O1 122.9(9) . 7_556
O1 Y12 O1 149(2) . 7_556
O1 Y12 O1 66.3(5) 2 7_556
O1 Y12 O1 66.3(5) 3 7_556
O1 Y12 O1 93.4(12) 8_556 7_556
O1 Y12 O1 93.4(12) 9_556 7_556
Y11 Y12 Cu1 78.6(8) . .
Y12 Y12 Cu1 78.6(8) 7_556 .
Cl2 Y12 Cu1 101.4(8) . .
O1 Y12 Cu1 32.7(2) . .
O1 Y12 Cu1 148.8(6) 2 .
O1 Y12 Cu1 90.4(2) 3 .
O1 Y12 Cu1 34.89(9) 8_556 .
O1 Y12 Cu1 83.9(6) 9_556 .
O1 Y12 Cu1 127.3(14) 7_556 .
Y11 Y12 Cu1 78.6(8) . 1_445
Y12 Y12 Cu1 78.6(8) 7_556 1_445
Cl2 Y12 Cu1 101.4(8) . 1_445
O1 Y12 Cu1 148.8(6) . 1_445
O1 Y12 Cu1 32.7(2) 2 1_445
O1 Y12 Cu1 90.4(2) 3 1_445
O1 Y12 Cu1 127.3(14) 8_556 1_445
O1 Y12 Cu1 83.9(6) 9_556 1_445
O1 Y12 Cu1 34.89(9) 7_556 1_445
Cu1 Y12 Cu1 157.2(16) . 1_445
Y11 Y12 Cu1 78.6(8) . 2_655
Y12 Y12 Cu1 78.6(8) 7_556 2_655
Cl2 Y12 Cu1 101.4(8) . 2_655
O1 Y12 Cu1 90.4(2) . 2_655
O1 Y12 Cu1 148.8(6) 2 2_655
O1 Y12 Cu1 32.7(2) 3 2_655
O1 Y12 Cu1 34.89(9) 8_556 2_655
O1 Y12 Cu1 127.3(14) 9_556 2_655
O1 Y12 Cu1 83.9(6) 7_556 2_655
Cu1 Y12 Cu1 58.70(18) . 2_655
Cu1 Y12 Cu1 116.2(5) 1_445 2_655
Y11 Y12 H1 111.6(13) . .
Y12 Y12 H1 111.6(13) 7_556 .
Cl2 Y12 H1 68.4(13) . .
O1 Y12 H1 19.7(7) . .
O1 Y12 H1 116.9(8) 2 .
O1 Y12 H1 116.9(8) 3 .
O1 Y12 H1 79.0(5) 8_556 .
O1 Y12 H1 79.0(5) 9_556 .
O1 Y12 H1 169(2) 7_556 .
Cu1 Y12 H1 44.3(5) . .
Cu1 Y12 H1 149.5(6) 1_445 .
Cu1 Y12 H1 94.18(16) 2_655 .
O1 Cu1 O1 180.0 8_556 2_665
O1 Cu1 O1 85.49(18) 8_556 .
O1 Cu1 O1 94.51(18) 2_665 .
O1 Cu1 O1 94.51(18) 8_556 7_666
O1 Cu1 O1 85.49(18) 2_665 7_666
O1 Cu1 O1 180.0 . 7_666
O1 Cu1 Y11 42.75(9) 8_556 .
O1 Cu1 Y11 137.25(9) 2_665 .
O1 Cu1 Y11 42.75(9) . .
O1 Cu1 Y11 137.25(9) 7_666 .
O1 Cu1 Y11 137.25(9) 8_556 1_665
O1 Cu1 Y11 42.75(9) 2_665 1_665
O1 Cu1 Y11 137.25(9) . 1_665
O1 Cu1 Y11 42.75(9) 7_666 1_665
Y11 Cu1 Y11 180.0 . 1_665
O1 Cu1 Y12 130.1(6) 8_556 7_666
O1 Cu1 Y12 49.9(6) 2_665 7_666
O1 Cu1 Y12 142.7(3) . 7_666
O1 Cu1 Y12 37.3(3) 7_666 7_666
Y11 Cu1 Y12 168.6(8) . 7_666
Y11 Cu1 Y12 11.4(8) 1_665 7_666
O1 Cu1 Y12 142.7(3) 8_556 1_665
O1 Cu1 Y12 37.3(3) 2_665 1_665
O1 Cu1 Y12 130.1(6) . 1_665
O1 Cu1 Y12 49.9(6) 7_666 1_665
Y11 Cu1 Y12 168.6(8) . 1_665
Y11 Cu1 Y12 11.4(8) 1_665 1_665
Y12 Cu1 Y12 22.8(16) 7_666 1_665
O1 Cu1 Y12 37.3(3) 8_556 7_556
O1 Cu1 Y12 142.7(3) 2_665 7_556
O1 Cu1 Y12 49.9(6) . 7_556
O1 Cu1 Y12 130.1(6) 7_666 7_556
Y11 Cu1 Y12 11.4(8) . 7_556
Y11 Cu1 Y12 168.6(8) 1_665 7_556
Y12 Cu1 Y12 157.2(16) 7_666 7_556
Y12 Cu1 Y12 180.0 1_665 7_556
O1 Cu1 Y12 49.9(6) 8_556 .
O1 Cu1 Y12 130.1(6) 2_665 .
O1 Cu1 Y12 37.3(3) . .
O1 Cu1 Y12 142.7(3) 7_666 .
Y11 Cu1 Y12 11.4(8) . .
Y11 Cu1 Y12 168.6(8) 1_665 .
Y12 Cu1 Y12 180.0 7_666 .
Y12 Cu1 Y12 157.2(16) 1_665 .
Y12 Cu1 Y12 22.8(16) 7_556 .
Y12 Cl2 Y12 180.0 . 7
Y12 Cl2 Y11 0.000(3) . .
Y12 Cl2 Y11 180.0 7 .
Y12 Cl2 Y11 180.0 . 1_554
Y12 Cl2 Y11 0.000(3) 7 1_554
Y11 Cl2 Y11 180.0 . 1_554
Cu1 O1 Cu1 117.17(14) 3_565 .
Cu1 O1 Y12 110.0(5) 3_565 .
Cu1 O1 Y12 110.0(5) . .
Cu1 O1 Y11 102.34(10) 3_565 .
Cu1 O1 Y11 102.34(10) . .
Y12 O1 Y11 16.8(13) . .
Cu1 O1 Y12 95.2(5) 3_565 7_556
Cu1 O1 Y12 95.2(5) . 7_556
Y12 O1 Y12 31(2) . 7_556
Y11 O1 Y12 14.1(9) . 7_556
Cu1 O1 H1 111.8(16) 3_565 .
Cu1 O1 H1 111.8(15) . .
Y12 O1 H1 94(4) . .
Y11 O1 H1 110(4) . .
Y12 O1 H1 125(4) 7_556 .
loop_
_geom_bond_atom_site_label_1
_geom_bond_atom_site_label_2
_geom_bond_distance
_geom_bond_site_symmetry_2
Y11 Y12 0.68(5) 7_556
Y11 Y12 0.68(5) .
Y11 O1 2.345(3) 8_556
Y11 O1 2.345(3) 2
Y11 O1 2.345(3) 7_556
Y11 O1 2.345(3) 9_556
Y11 O1 2.345(3) 3
Y11 O1 2.345(3) .
Y11 Cl2 2.8122(5) .
Y11 Cl2 2.8122(5) 1_556
Y11 Cu1 3.3745(5) 1_445
Y11 Cu1 3.3745(5) .
Y12 Y12 1.36(10) 7_556
Y12 Cl2 2.13(5) .
Y12 O1 2.221(3) .
Y12 O1 2.221(3) 2
Y12 O1 2.221(3) 3
Y12 O1 2.64(3) 8_556
Y12 O1 2.64(3) 9_556
Y12 O1 2.64(3) 7_556
Y12 Cu1 3.442(10) .
Y12 Cu1 3.442(10) 1_445
Y12 Cu1 3.442(10) 2_655
Y12 H1 2.41(5) .
Cu1 O1 1.9771(15) 8_556
Cu1 O1 1.9771(15) 2_665
Cu1 O1 1.9771(15) .
Cu1 O1 1.9771(15) 7_666
Cu1 Y11 3.3745(5) 1_665
Cu1 Y12 3.442(10) 7_666
Cu1 Y12 3.442(10) 1_665
Cu1 Y12 3.442(10) 7_556
Cl2 Y12 2.13(5) 7
Cl2 Y11 2.8122(5) 1_554
O1 Cu1 1.9771(15) 3_565
O1 Y12 2.64(3) 7_556
O1 H1 0.82(2) .
loop_
_geom_hbond_atom_site_label_D
_geom_hbond_atom_site_label_H
_geom_hbond_atom_site_label_A
_geom_hbond_distance_DH
_geom_hbond_distance_HA
_geom_hbond_distance_DA
_geom_hbond_angle_DHA
_geom_hbond_site_symmetry_A
O1 H1 Cl1 0.82(2) 2.62(4) 3.301(3) 143(5) 1_554
O1 H1 Cl2 0.82(2) 2.56(5) 3.027(3) 117(4) .
