#------------------------------------------------------------------------------
#$Date: 2019-11-24 04:26:39 +0200 (Sun, 24 Nov 2019) $
#$Revision: 236695 $
#$URL: file:///home/coder/svn-repositories/cod/cif/7/23/69/7236989.cif $
#------------------------------------------------------------------------------
#
# This file is available in the Crystallography Open Database (COD),
# http://www.crystallography.net/
#
# All data on this site have been placed in the public domain by the
# contributors.
#
data_7236989
loop_
_publ_author_name
'Wei, Fengxia'
'Brivio, Federico'
'Wu, Yue'
'Sun, Shijing'
'Bristowe, Paul D.'
'Cheetham, Anthony K.'
_publ_section_title
;
 Synthesis, crystal structure, magnetic and electronic properties of the
 caesium-based transition metal halide Cs3Fe2Br9
;
_journal_issue                   14
_journal_name_full               'Journal of Materials Chemistry C'
_journal_page_first              3573
_journal_paper_doi               10.1039/C7TC04798C
_journal_volume                  6
_journal_year                    2018
_chemical_formula_moiety         '0.5(Cl12 Cs4 Fe2 Na2)'
_chemical_formula_sum            'Cl6 Cs2 Fe Na'
_chemical_formula_weight         557.36
_space_group_crystal_system      cubic
_space_group_IT_number           225
_space_group_name_Hall           '-F 4 2 3'
_space_group_name_H-M_alt        'F m -3 m'
_atom_sites_solution_primary     direct
_audit_creation_date             2017-06-01
_audit_creation_method
;
Olex2 1.2
(compiled 2017.03.28 svn.r3405 for OlexSys, GUI svn.r5337)
;
_audit_update_record
;
2017-09-16 deposited with the CCDC.
2017-11-13 downloaded from the CCDC.
;
_cell_angle_alpha                90
_cell_angle_beta                 90
_cell_angle_gamma                90
_cell_formula_units_Z            4
_cell_length_a                   10.34030(13)
_cell_length_b                   10.34030(13)
_cell_length_c                   10.34030(13)
_cell_measurement_reflns_used    1137
_cell_measurement_temperature    299.5(8)
_cell_measurement_theta_max      27.9990
_cell_measurement_theta_min      3.4010
_cell_volume                     1105.60(2)
_computing_cell_refinement
;
CrysAlisPro, Agilent Technologies,
Version 1.171.37.34i (release 04-08-2014 CrysAlis171 .NET)
(compiled Aug  4 2014,14:34:23)
;
_computing_data_collection
;
CrysAlisPro, Agilent Technologies,
Version 1.171.37.34i (release 04-08-2014 CrysAlis171 .NET)
(compiled Aug  4 2014,14:34:23)
;
_computing_data_reduction
;
CrysAlisPro, Agilent Technologies,
Version 1.171.37.34i (release 04-08-2014 CrysAlis171 .NET)
(compiled Aug  4 2014,14:34:23)
;
_computing_molecular_graphics    'Olex2 (Dolomanov et al., 2009)'
_computing_publication_material  'Olex2 (Dolomanov et al., 2009)'
_computing_structure_refinement  'ShelXL (Sheldrick, 2015)'
_computing_structure_solution    'ShelXT (Sheldrick, 2015)'
_diffrn_ambient_environment      air
_diffrn_ambient_temperature      299.5(8)
_diffrn_detector                 'CCD plate'
_diffrn_detector_area_resol_mean 16.1183
_diffrn_detector_type            Eos
_diffrn_measured_fraction_theta_full 1.000
_diffrn_measured_fraction_theta_max 0.990
_diffrn_measurement_details
;
#__ type_ start__ end____ width___ exp.time_
  1 omega  -22.00   33.00   1.0000    2.5000
omega____ theta____ kappa____ phi______ frames
    -      -26.4511   37.0000   90.0000 55

#__ type_ start__ end____ width___ exp.time_
  2 omega   57.00  116.00   1.0000    2.5000
omega____ theta____ kappa____ phi______ frames
    -       25.5136  178.0000   30.0000 59

#__ type_ start__ end____ width___ exp.time_
  3 omega  -49.00   53.00   1.0000    2.5000
omega____ theta____ kappa____ phi______ frames
    -      -26.4511   37.0000 -150.0000 102

#__ type_ start__ end____ width___ exp.time_
  4 omega -100.00  -17.00   1.0000    2.5000
omega____ theta____ kappa____ phi______ frames
    -      -26.4511  -57.0000  -90.0000 83

#__ type_ start__ end____ width___ exp.time_
  5 omega -107.00   14.00   1.0000    2.5000
omega____ theta____ kappa____ phi______ frames
    -      -26.4511  -77.0000  120.0000 121
;
_diffrn_measurement_device       'four-circle diffractometer'
_diffrn_measurement_device_type  'Xcalibur, Eos, Gemini ultra'
_diffrn_measurement_method       '\w scans'
_diffrn_orient_matrix_UB_11      0.0384741000
_diffrn_orient_matrix_UB_12      -0.0342909000
_diffrn_orient_matrix_UB_13      -0.0452603000
_diffrn_orient_matrix_UB_21      -0.0300192000
_diffrn_orient_matrix_UB_22      0.0340765000
_diffrn_orient_matrix_UB_23      -0.0514267000
_diffrn_orient_matrix_UB_31      0.0481744000
_diffrn_orient_matrix_UB_32      0.0486475000
_diffrn_orient_matrix_UB_33      0.0041331000
_diffrn_radiation_monochromator  graphite
_diffrn_radiation_probe          x-ray
_diffrn_radiation_type           MoK\a
_diffrn_radiation_wavelength     0.71073
_diffrn_reflns_av_R_equivalents  0.0311
_diffrn_reflns_av_unetI/netI     0.0093
_diffrn_reflns_Laue_measured_fraction_full 1.000
_diffrn_reflns_Laue_measured_fraction_max 0.990
_diffrn_reflns_limit_h_max       13
_diffrn_reflns_limit_h_min       -12
_diffrn_reflns_limit_k_max       13
_diffrn_reflns_limit_k_min       -12
_diffrn_reflns_limit_l_max       13
_diffrn_reflns_limit_l_min       -13
_diffrn_reflns_number            1841
_diffrn_reflns_point_group_measured_fraction_full 1.000
_diffrn_reflns_point_group_measured_fraction_max 0.990
_diffrn_reflns_theta_full        25.242
_diffrn_reflns_theta_max         28.032
_diffrn_reflns_theta_min         3.413
_diffrn_source                   'Enhance (Mo) X-ray Source'
_exptl_absorpt_coefficient_mu    9.274
_exptl_absorpt_correction_T_max  0.332
_exptl_absorpt_correction_T_min  0.223
_exptl_absorpt_correction_type   analytical
_exptl_absorpt_process_details
;
CrysAlisPro, Agilent Technologies,
Version 1.171.37.34i (release 04-08-2014 CrysAlis171 .NET)
(compiled Aug  4 2014,14:34:23)
Analytical numeric absorption correction using a multifaceted crystal
			model based on expressions derived by R.C. Clark & J.S. Reid.
(Clark, R. C. & Reid, J. S. (1995). Acta Cryst. A51, 887-897)
Empirical absorption correction using spherical harmonics,
 implemented in SCALE3 ABSPACK scaling algorithm.
;
_exptl_crystal_colour            red
_exptl_crystal_colour_primary    red
_exptl_crystal_density_diffrn    3.348
_exptl_crystal_description       cube
_exptl_crystal_F_000             996
_exptl_crystal_size_max          0.2139
_exptl_crystal_size_mid          0.2052
_exptl_crystal_size_min          0.1783
_refine_diff_density_max         1.031
_refine_diff_density_min         -0.758
_refine_diff_density_rms         0.119
_refine_ls_extinction_coef       0.0023(5)
_refine_ls_extinction_expression Fc^*^=kFc[1+0.001xFc^2^\l^3^/sin(2\q)]^-1/4^
_refine_ls_extinction_method     'SHELXL-2014/7 (Sheldrick 2014'
_refine_ls_goodness_of_fit_ref   0.902
_refine_ls_hydrogen_treatment    undef
_refine_ls_matrix_type           full
_refine_ls_number_parameters     8
_refine_ls_number_reflns         97
_refine_ls_number_restraints     0
_refine_ls_restrained_S_all      0.902
_refine_ls_R_factor_all          0.0186
_refine_ls_R_factor_gt           0.0184
_refine_ls_shift/su_max          0.000
_refine_ls_shift/su_mean         0.000
_refine_ls_structure_factor_coef Fsqd
_refine_ls_weighting_details
'w=1/[\s^2^(Fo^2^)+(0.1000P)^2^] where P=(Fo^2^+2Fc^2^)/3'
_refine_ls_weighting_scheme      calc
_refine_ls_wR_factor_gt          0.0921
_refine_ls_wR_factor_ref         0.0924
_reflns_Friedel_coverage         0.000
_reflns_number_gt                95
_reflns_number_total             97
_reflns_threshold_expression     'I > 2\s(I)'
_iucr_refine_instructions_details
;

    fw_116_fecl-2_abs.res created by SHELXL-2014/7

TITL fw_116_fecl-2_abs_a.res in Fm-3m
REM Old TITL FW_116_FeCl-2_abs in Fm-3m #225
REM SHELXT solution in Fm-3m
REM R1 0.052, Rweak 0.005, Alpha 0.002, Orientation as input
REM Formula found by SHELXT: Na Cl6 Fe Cs2
CELL 0.71073 10.340297 10.340297 10.340297 90 90 90
ZERR 4 0.000125 0.000125 0.000125 0 0 0
LATT 4
SYMM -X,-Y,+Z
SYMM -X,+Y,-Z
SYMM +X,-Y,-Z
SYMM +Z,+X,+Y
SYMM +Z,-X,-Y
SYMM -Z,-X,+Y
SYMM -Z,+X,-Y
SYMM +Y,+Z,+X
SYMM -Y,+Z,-X
SYMM +Y,-Z,-X
SYMM -Y,-Z,+X
SYMM +Y,+X,-Z
SYMM -Y,-X,-Z
SYMM +Y,-X,+Z
SYMM -Y,+X,+Z
SYMM +X,+Z,-Y
SYMM -X,+Z,+Y
SYMM -X,-Z,-Y
SYMM +X,-Z,+Y
SYMM +Z,+Y,-X
SYMM +Z,-Y,+X
SYMM -Z,+Y,+X
SYMM -Z,-Y,-X
SFAC Cl Cs Fe Na
UNIT 24 8 4 4
 
L.S. 10
PLAN  20
BOND $H
LIST 6
fmap 2
ACTA
REM <olex2.extras>
REM <HklSrc "%.\\FW_116_FeCl-2_abs.hkl">
REM </olex2.extras>
 
WGHT    0.100000
EXTI    0.002309
FVAR       0.17724
CS01  2    0.250000    0.250000    0.750000    10.04167    0.02501    0.02501 =
         0.02501    0.00000    0.00000    0.00000
FE02  3    0.500000    0.500000    1.000000    10.02083    0.01389    0.01389 =
         0.01389    0.00000    0.00000    0.00000
CL03  1    0.500000    0.500000    0.769581    10.12500    0.03154    0.03154 =
         0.01501    0.00000    0.00000    0.00000
NA04  4    0.500000    0.500000    0.500000    10.02083    0.01940    0.01940 =
         0.01940    0.00000    0.00000    0.00000
HKLF 4
 
REM  fw_116_fecl-2_abs_a.res in Fm-3m
REM R1 =  0.0184 for      95 Fo > 4sig(Fo)  and  0.0186 for all      97 data
REM      8 parameters refined using      0 restraints
 
END  
     
WGHT      0.0317      2.3466 

REM Highest difference peak  1.031,  deepest hole -0.758,  1-sigma level  0.119
Q1    1   0.5000  0.3899  1.0000  10.12500  0.05    0.45
Q2    1   0.5000  0.3962  0.5000  10.12500  0.05    0.35
Q3    1   0.3183  0.5000  0.7528  10.50000  0.05    0.27
Q4    1   0.5000  0.5000  0.6400  10.12500  0.05    0.25
Q5    1   0.5972  0.5337  1.0000  10.50000  0.05    0.23
Q6    1   0.5000  0.3603  0.7503  10.50000  0.05    0.23
Q7    1   0.2500  0.3913  0.7500  10.25000  0.05    0.23
Q8    1   0.2500  0.2500  0.8605  10.25000  0.05    0.22
Q9    1   0.5000  0.4390  0.8623  10.50000  0.05    0.20
Q10   1   0.4544  0.2500  0.7500  10.25000  0.05    0.20
Q11   1   0.5000  0.3911  0.8216  10.50000  0.05    0.19
Q12   1   0.5000  0.5683  0.8314  10.50000  0.05    0.18
Q13   1   0.6008  0.4219  0.7503  11.00000  0.05    0.16
Q14   1   0.5000  0.3210  0.6790  10.25000  0.05    0.16
Q15   1   0.5000  0.6748  0.8252  10.25000  0.05    0.16
Q16   1   0.5000  0.3750  0.6765  10.50000  0.05    0.14
Q17   1   0.3925  0.5000  0.7626  10.50000  0.05    0.13
Q18   1   0.2940  0.1287  0.8713  10.50000  0.05    0.12
Q19   1   0.5000  0.6461  0.8297  10.50000  0.05    0.12
Q20   1   0.0962  0.2490  0.8341  11.00000  0.05    0.12

  REM The information below was added by Olex2.
  REM
  REM R1 = 0.0184 for 95 Fo > 4sig(Fo) and 0.0186 for all 1841 data
  REM n/a parameters refined using n/a restraints
  REM Highest difference peak 1.03, deepest hole -0.76
  REM Mean Shift 0, Max Shift 0.000.
  
  REM +++ Tabular Listing of Refinement Information +++
  REM R1_all = 0.0186
  REM R1_gt = 0.0184
  REM wR_ref = 0.0924
  REM GOOF = 0.902
  REM Shift_max = 0.000
  REM Shift_mean = 0
  REM Reflections_all = 1841
  REM Reflections_gt = 95
  REM Parameters = n/a
  REM Hole = -0.76
  REM Peak = 1.03
  REM Flack = n/a
  
  
;
_cod_data_source_file            c7tc04798c2.cif
_cod_data_source_block           fw_116_fecl-2_abs
_cod_original_cell_volume        1105.60(4)
_cod_database_code               7236989
_shelx_shelxl_version_number     2014/7
_chemical_oxdiff_formula         'Cs2 Na Fe Cl6'
_shelx_space_group_comment
;
The symmetry employed for this shelxl refinement is uniquely defined
by the following loop, which should always be used as a source of
symmetry information in preference to the above space-group names.
They are only intended as comments.
;
_reflns_odcompleteness_completeness 100.00
_reflns_odcompleteness_iscentric 1
_reflns_odcompleteness_theta     26.32
_olex2_refinement_description
;
;
_olex2_submission_special_instructions 'No special instructions were received'
loop_
_space_group_symop_operation_xyz
'x, y, z'
'-x, -y, z'
'-x, y, -z'
'x, -y, -z'
'z, x, y'
'z, -x, -y'
'-z, -x, y'
'-z, x, -y'
'y, z, x'
'-y, z, -x'
'y, -z, -x'
'-y, -z, x'
'y, x, -z'
'-y, -x, -z'
'y, -x, z'
'-y, x, z'
'x, z, -y'
'-x, z, y'
'-x, -z, -y'
'x, -z, y'
'z, y, -x'
'z, -y, x'
'-z, y, x'
'-z, -y, -x'
'x, y+1/2, z+1/2'
'-x, -y+1/2, z+1/2'
'-x, y+1/2, -z+1/2'
'x, -y+1/2, -z+1/2'
'z, x+1/2, y+1/2'
'z, -x+1/2, -y+1/2'
'-z, -x+1/2, y+1/2'
'-z, x+1/2, -y+1/2'
'y, z+1/2, x+1/2'
'-y, z+1/2, -x+1/2'
'y, -z+1/2, -x+1/2'
'-y, -z+1/2, x+1/2'
'y, x+1/2, -z+1/2'
'-y, -x+1/2, -z+1/2'
'y, -x+1/2, z+1/2'
'-y, x+1/2, z+1/2'
'x, z+1/2, -y+1/2'
'-x, z+1/2, y+1/2'
'-x, -z+1/2, -y+1/2'
'x, -z+1/2, y+1/2'
'z, y+1/2, -x+1/2'
'z, -y+1/2, x+1/2'
'-z, y+1/2, x+1/2'
'-z, -y+1/2, -x+1/2'
'x+1/2, y, z+1/2'
'-x+1/2, -y, z+1/2'
'-x+1/2, y, -z+1/2'
'x+1/2, -y, -z+1/2'
'z+1/2, x, y+1/2'
'z+1/2, -x, -y+1/2'
'-z+1/2, -x, y+1/2'
'-z+1/2, x, -y+1/2'
'y+1/2, z, x+1/2'
'-y+1/2, z, -x+1/2'
'y+1/2, -z, -x+1/2'
'-y+1/2, -z, x+1/2'
'y+1/2, x, -z+1/2'
'-y+1/2, -x, -z+1/2'
'y+1/2, -x, z+1/2'
'-y+1/2, x, z+1/2'
'x+1/2, z, -y+1/2'
'-x+1/2, z, y+1/2'
'-x+1/2, -z, -y+1/2'
'x+1/2, -z, y+1/2'
'z+1/2, y, -x+1/2'
'z+1/2, -y, x+1/2'
'-z+1/2, y, x+1/2'
'-z+1/2, -y, -x+1/2'
'x+1/2, y+1/2, z'
'-x+1/2, -y+1/2, z'
'-x+1/2, y+1/2, -z'
'x+1/2, -y+1/2, -z'
'z+1/2, x+1/2, y'
'z+1/2, -x+1/2, -y'
'-z+1/2, -x+1/2, y'
'-z+1/2, x+1/2, -y'
'y+1/2, z+1/2, x'
'-y+1/2, z+1/2, -x'
'y+1/2, -z+1/2, -x'
'-y+1/2, -z+1/2, x'
'y+1/2, x+1/2, -z'
'-y+1/2, -x+1/2, -z'
'y+1/2, -x+1/2, z'
'-y+1/2, x+1/2, z'
'x+1/2, z+1/2, -y'
'-x+1/2, z+1/2, y'
'-x+1/2, -z+1/2, -y'
'x+1/2, -z+1/2, y'
'z+1/2, y+1/2, -x'
'z+1/2, -y+1/2, x'
'-z+1/2, y+1/2, x'
'-z+1/2, -y+1/2, -x'
'-x, -y, -z'
'x, y, -z'
'x, -y, z'
'-x, y, z'
'-z, -x, -y'
'-z, x, y'
'z, x, -y'
'z, -x, y'
'-y, -z, -x'
'y, -z, x'
'-y, z, x'
'y, z, -x'
'-y, -x, z'
'y, x, z'
'-y, x, -z'
'y, -x, -z'
'-x, -z, y'
'x, -z, -y'
'x, z, y'
'-x, z, -y'
'-z, -y, x'
'-z, y, -x'
'z, -y, -x'
'z, y, x'
'-x, -y+1/2, -z+1/2'
'x, y+1/2, -z+1/2'
'x, -y+1/2, z+1/2'
'-x, y+1/2, z+1/2'
'-z, -x+1/2, -y+1/2'
'-z, x+1/2, y+1/2'
'z, x+1/2, -y+1/2'
'z, -x+1/2, y+1/2'
'-y, -z+1/2, -x+1/2'
'y, -z+1/2, x+1/2'
'-y, z+1/2, x+1/2'
'y, z+1/2, -x+1/2'
'-y, -x+1/2, z+1/2'
'y, x+1/2, z+1/2'
'-y, x+1/2, -z+1/2'
'y, -x+1/2, -z+1/2'
'-x, -z+1/2, y+1/2'
'x, -z+1/2, -y+1/2'
'x, z+1/2, y+1/2'
'-x, z+1/2, -y+1/2'
'-z, -y+1/2, x+1/2'
'-z, y+1/2, -x+1/2'
'z, -y+1/2, -x+1/2'
'z, y+1/2, x+1/2'
'-x+1/2, -y, -z+1/2'
'x+1/2, y, -z+1/2'
'x+1/2, -y, z+1/2'
'-x+1/2, y, z+1/2'
'-z+1/2, -x, -y+1/2'
'-z+1/2, x, y+1/2'
'z+1/2, x, -y+1/2'
'z+1/2, -x, y+1/2'
'-y+1/2, -z, -x+1/2'
'y+1/2, -z, x+1/2'
'-y+1/2, z, x+1/2'
'y+1/2, z, -x+1/2'
'-y+1/2, -x, z+1/2'
'y+1/2, x, z+1/2'
'-y+1/2, x, -z+1/2'
'y+1/2, -x, -z+1/2'
'-x+1/2, -z, y+1/2'
'x+1/2, -z, -y+1/2'
'x+1/2, z, y+1/2'
'-x+1/2, z, -y+1/2'
'-z+1/2, -y, x+1/2'
'-z+1/2, y, -x+1/2'
'z+1/2, -y, -x+1/2'
'z+1/2, y, x+1/2'
'-x+1/2, -y+1/2, -z'
'x+1/2, y+1/2, -z'
'x+1/2, -y+1/2, z'
'-x+1/2, y+1/2, z'
'-z+1/2, -x+1/2, -y'
'-z+1/2, x+1/2, y'
'z+1/2, x+1/2, -y'
'z+1/2, -x+1/2, y'
'-y+1/2, -z+1/2, -x'
'y+1/2, -z+1/2, x'
'-y+1/2, z+1/2, x'
'y+1/2, z+1/2, -x'
'-y+1/2, -x+1/2, z'
'y+1/2, x+1/2, z'
'-y+1/2, x+1/2, -z'
'y+1/2, -x+1/2, -z'
'-x+1/2, -z+1/2, y'
'x+1/2, -z+1/2, -y'
'x+1/2, z+1/2, y'
'-x+1/2, z+1/2, -y'
'-z+1/2, -y+1/2, x'
'-z+1/2, y+1/2, -x'
'z+1/2, -y+1/2, -x'
'z+1/2, y+1/2, x'
loop_
_atom_site_label
_atom_site_type_symbol
_atom_site_fract_x
_atom_site_fract_y
_atom_site_fract_z
_atom_site_U_iso_or_equiv
_atom_site_adp_type
_atom_site_occupancy
_atom_site_site_symmetry_order
_atom_site_calc_flag
_atom_site_refinement_flags_posn
_atom_site_refinement_flags_adp
_atom_site_refinement_flags_occupancy
Cs01 Cs 0.2500 0.2500 0.7500 0.0250(6) Uani 1 24 d S T P
Fe02 Fe 0.5000 0.5000 1.0000 0.0139(8) Uani 1 48 d S T P
Cl03 Cl 0.5000 0.5000 0.7696(2) 0.0260(7) Uani 1 8 d S T P
Na04 Na 0.5000 0.5000 0.5000 0.019(2) Uani 1 48 d S T P
loop_
_atom_site_aniso_label
_atom_site_aniso_U_11
_atom_site_aniso_U_22
_atom_site_aniso_U_33
_atom_site_aniso_U_23
_atom_site_aniso_U_13
_atom_site_aniso_U_12
Cs01 0.0250(6) 0.0250(6) 0.0250(6) 0.000 0.000 0.000
Fe02 0.0139(8) 0.0139(8) 0.0139(8) 0.000 0.000 0.000
Cl03 0.0315(8) 0.0315(8) 0.0150(8) 0.000 0.000 0.000
Na04 0.019(2) 0.019(2) 0.019(2) 0.000 0.000 0.000
loop_
_atom_type_symbol
_atom_type_description
_atom_type_scat_dispersion_real
_atom_type_scat_dispersion_imag
_atom_type_scat_source
Cl Cl 0.1484 0.1585 'International Tables Vol C Tables 4.2.6.8 and 6.1.1.4'
Cs Cs -0.3680 2.1192 'International Tables Vol C Tables 4.2.6.8 and 6.1.1.4'
Fe Fe 0.3463 0.8444 'International Tables Vol C Tables 4.2.6.8 and 6.1.1.4'
Na Na 0.0362 0.0249 'International Tables Vol C Tables 4.2.6.8 and 6.1.1.4'
loop_
_exptl_crystal_face_index_h
_exptl_crystal_face_index_k
_exptl_crystal_face_index_l
_exptl_crystal_face_perp_dist
_exptl_oxdiff_crystal_face_indexfrac_h
_exptl_oxdiff_crystal_face_indexfrac_k
_exptl_oxdiff_crystal_face_indexfrac_l
_exptl_oxdiff_crystal_face_x
_exptl_oxdiff_crystal_face_y
_exptl_oxdiff_crystal_face_z
-2 2 -5 0.0787 -1.9876 2.0065 -5.0012 0.0811 0.3852 -0.0188
5 3 3 0.0865 5.0028 2.9925 3.0121 -0.0465 -0.2031 0.3990
1 -2 5 0.0939 0.9865 -2.0056 4.9993 -0.1195 -0.3551 -0.0294
-3 -5 3 0.1086 -3.0176 -5.0000 2.9889 -0.0799 -0.2335 -0.3763
3 5 -3 0.0776 3.0176 5.0000 -2.9889 0.0799 0.2335 0.3763
-1 1 -1 0.0948 -0.9973 1.0017 -1.0008 -0.0274 0.1155 -0.0034
-5 5 4 0.0934 -5.0073 4.9995 3.9953 -0.5449 0.1152 0.0185
5 -5 -4 0.0934 5.0073 -4.9995 -3.9953 0.5449 -0.1152 -0.0185
-1 -1 0 0.1147 -1.0025 -0.9991 -0.0029 -0.0042 -0.0038 -0.0969
1 1 0 0.1147 1.0025 0.9991 0.0029 0.0042 0.0038 0.0969
0 -1 -5 0.0625 0.0102 -0.9948 -5.0005 0.2608 0.2230 -0.0686
-10 -7 -8 0.0978 -10.0025 -6.9830 -8.0251 0.2178 0.4750 -0.8547
10 7 8 0.0978 10.0025 6.9830 8.0251 -0.2178 -0.4750 0.8547
loop_
_geom_angle_atom_site_label_1
_geom_angle_atom_site_label_2
_geom_angle_atom_site_label_3
_geom_angle
_geom_angle_site_symmetry_1
_geom_angle_site_symmetry_3
Cl03 Cs01 Cl03 54.79(6) 53_455 33_545
Cl03 Cs01 Cl03 65.14(6) 105_666 101_666
Cl03 Cs01 Cl03 65.14(6) 53_455 145_566
Cl03 Cs01 Cl03 119.899(2) . 153_566
Cl03 Cs01 Cl03 119.899(2) 81_445 121_656
Cl03 Cs01 Cl03 65.14(6) . 105_666
Cl03 Cs01 Cl03 119.899(2) 125_656 145_566
Cl03 Cs01 Cl03 65.14(6) . 101_666
Cl03 Cs01 Cl03 65.14(6) 33_545 121_656
Cl03 Cs01 Cl03 90.175(4) 33_545 105_666
Cl03 Cs01 Cl03 90.175(4) 73_445 121_656
Cl03 Cs01 Cl03 65.14(6) 125_656 121_656
Cl03 Cs01 Cl03 90.175(4) 53_455 125_656
Cl03 Cs01 Cl03 119.899(2) 81_445 125_656
Cl03 Cs01 Cl03 119.899(2) 53_455 81_445
Cl03 Cs01 Cl03 119.899(2) 33_545 77_445
Cl03 Cs01 Cl03 54.79(6) 81_445 101_666
Cl03 Cs01 Cl03 173.66(7) 125_656 101_666
Cl03 Cs01 Cl03 54.79(6) 105_666 121_656
Cl03 Cs01 Cl03 119.899(2) 53_455 121_656
Cl03 Cs01 Cl03 54.79(6) 33_545 .
Cl03 Cs01 Cl03 173.66(7) 33_545 81_445
Cl03 Cs01 Cl03 119.899(2) 153_566 121_656
Cl03 Cs01 Cl03 119.899(2) 81_445 .
Cl03 Cs01 Cl03 119.899(2) 77_445 .
Cl03 Cs01 Cl03 54.79(6) 81_445 145_566
Cl03 Cs01 Cl03 65.14(6) 33_545 125_656
Cl03 Cs01 Cl03 65.14(6) 153_566 145_566
Cl03 Cs01 Cl03 65.14(6) 53_455 153_566
Cl03 Cs01 Cl03 173.66(7) 53_455 77_445
Cl03 Cs01 Cl03 90.175(4) 77_445 101_666
Cl03 Cs01 Cl03 65.14(6) 77_445 73_445
Cl03 Cs01 Cl03 119.899(2) 33_545 101_666
Cl03 Cs01 Cl03 119.899(2) 77_445 153_566
Cl03 Cs01 Cl03 119.899(2) 73_445 101_666
Cl03 Cs01 Cl03 119.899(2) 153_566 101_666
Cl03 Cs01 Cl03 54.79(6) 77_445 121_656
Cl03 Cs01 Cl03 90.175(4) . 121_656
Cl03 Cs01 Cl03 119.899(2) 101_666 121_656
Cl03 Cs01 Cl03 54.79(6) 53_455 .
Cl03 Cs01 Cl03 119.899(2) 33_545 145_566
Cl03 Cs01 Cl03 90.175(4) 81_445 105_666
Cl03 Cs01 Cl03 119.899(2) 77_445 145_566
Cl03 Cs01 Cl03 65.14(6) 81_445 77_445
Cl03 Cs01 Cl03 90.175(4) . 145_566
Cl03 Cs01 Cl03 54.79(6) 77_445 105_666
Cl03 Cs01 Cl03 119.899(2) 105_666 145_566
Cl03 Cs01 Cl03 119.899(2) 73_445 105_666
Cl03 Cs01 Cl03 54.79(6) 101_666 145_566
Cl03 Cs01 Cl03 173.66(7) 153_566 105_666
Cl03 Cs01 Cl03 54.79(6) 73_445 125_656
Cl03 Cs01 Cl03 119.899(2) 53_455 73_445
Cl03 Cs01 Cl03 119.899(2) . 125_656
Cl03 Cs01 Cl03 90.175(4) 73_445 145_566
Cl03 Cs01 Cl03 90.175(4) 33_545 153_566
Cl03 Cs01 Cl03 173.66(7) 73_445 .
Cl03 Cs01 Cl03 54.79(6) 153_566 125_656
Cl03 Cs01 Cl03 90.175(4) 77_445 125_656
Cl03 Cs01 Cl03 119.899(2) 105_666 125_656
Cl03 Cs01 Cl03 119.899(2) 33_545 73_445
Cl03 Cs01 Cl03 90.175(4) 81_445 153_566
Cl03 Cs01 Cl03 173.66(7) 121_656 145_566
Cl03 Cs01 Cl03 65.14(6) 81_445 73_445
Cl03 Cs01 Cl03 54.79(6) 73_445 153_566
Cl03 Cs01 Cl03 90.175(4) 53_455 101_666
Cl03 Cs01 Cl03 119.899(2) 53_455 105_666
Cl03 Fe02 Cl03 90.0 . 129_666
Cl03 Fe02 Cl03 90.0 97_667 33_545
Cl03 Fe02 Cl03 180.0 53_455 149_666
Cl03 Fe02 Cl03 90.0 129_666 97_667
Cl03 Fe02 Cl03 90.000(1) 129_666 149_666
Cl03 Fe02 Cl03 90.000(1) 97_667 149_666
Cl03 Fe02 Cl03 180.0 129_666 33_545
Cl03 Fe02 Cl03 90.0 97_667 53_455
Cl03 Fe02 Cl03 90.000(1) 53_455 33_545
Cl03 Fe02 Cl03 90.0 . 149_666
Cl03 Fe02 Cl03 90.000(1) . 53_455
Cl03 Fe02 Cl03 180.0 . 97_667
Cl03 Fe02 Cl03 90.0 129_666 53_455
Cl03 Fe02 Cl03 90.0 . 33_545
Cl03 Fe02 Cl03 90.0 149_666 33_545
Cs01 Cl03 Cs01 173.66(7) . 73
Cs01 Cl03 Cs01 89.825(4) 73 145_566
Cs01 Cl03 Cs01 89.825(4) 73 121_656
Cs01 Cl03 Cs01 173.66(7) 145_566 121_656
Cs01 Cl03 Cs01 89.825(4) . 145_566
Cs01 Cl03 Cs01 89.825(4) . 121_656
Fe02 Cl03 Cs01 93.17(3) . 73
Fe02 Cl03 Cs01 93.17(3) . 121_656
Fe02 Cl03 Cs01 93.17(3) . .
Fe02 Cl03 Cs01 93.17(3) . 145_566
Fe02 Cl03 Na04 180.0 . .
Na04 Cl03 Cs01 86.83(3) . 121_656
Na04 Cl03 Cs01 86.83(3) . 145_566
Na04 Cl03 Cs01 86.83(3) . 73
Na04 Cl03 Cs01 86.83(3) . .
Cs01 Na04 Cs01 70.5 . 145_566
Cs01 Na04 Cs01 70.5 169_556 .
Cs01 Na04 Cs01 109.5 169_556 121_656
Cs01 Na04 Cs01 109.5 145_566 121_656
Cs01 Na04 Cs01 70.5 169_556 49_554
Cs01 Na04 Cs01 180.0 145_566 49_554
Cs01 Na04 Cs01 70.5 121_656 49_554
Cs01 Na04 Cs01 70.5 . 121_656
Cs01 Na04 Cs01 180.0 73 169_556
Cs01 Na04 Cs01 109.5 73 49_554
Cs01 Na04 Cs01 109.5 169_556 145_566
Cs01 Na04 Cs01 70.5 73 145_566
Cs01 Na04 Cs01 70.5 73 121_656
Cs01 Na04 Cs01 109.5 73 .
Cs01 Na04 Cs01 109.5 . 49_554
Cl03 Na04 Cs01 54.7 101_666 .
Cl03 Na04 Cs01 54.7 105_666 169_556
Cl03 Na04 Cs01 54.7 5 73
Cl03 Na04 Cs01 54.7 . 121_656
Cl03 Na04 Cs01 125.3 9 49_554
Cl03 Na04 Cs01 125.3 101_666 121_656
Cl03 Na04 Cs01 54.7 101_666 145_566
Cl03 Na04 Cs01 54.7 . 73
Cl03 Na04 Cs01 54.7 97_666 169_556
Cl03 Na04 Cs01 54.7 . 145_566
Cl03 Na04 Cs01 125.3 . 49_554
Cl03 Na04 Cs01 54.7 105_666 121_656
Cl03 Na04 Cs01 54.7 105_666 49_554
Cl03 Na04 Cs01 125.3 9 121_656
Cl03 Na04 Cs01 54.7 97_666 49_554
Cl03 Na04 Cs01 125.3 5 145_566
Cl03 Na04 Cs01 125.3 105_666 73
Cl03 Na04 Cs01 125.3 97_666 73
Cl03 Na04 Cs01 54.7 9 73
Cl03 Na04 Cs01 125.3 . 169_556
Cl03 Na04 Cs01 125.3 97_666 .
Cl03 Na04 Cs01 54.7 101_666 169_556
Cl03 Na04 Cs01 54.7 105_666 .
Cl03 Na04 Cs01 125.3 101_666 49_554
Cl03 Na04 Cs01 125.3 9 169_556
Cl03 Na04 Cs01 125.3 5 .
Cl03 Na04 Cs01 125.264(1) 105_666 145_566
Cl03 Na04 Cs01 54.7 5 49_554
Cl03 Na04 Cs01 125.3 5 169_556
Cl03 Na04 Cs01 54.7 5 121_656
Cl03 Na04 Cs01 125.3 9 .
Cl03 Na04 Cs01 125.3 101_666 73
Cl03 Na04 Cs01 54.7 9 145_566
Cl03 Na04 Cs01 125.3 97_666 145_566
Cl03 Na04 Cs01 54.7 . .
Cl03 Na04 Cs01 125.3 97_666 121_656
Cl03 Na04 Cl03 90.0 105_666 97_666
Cl03 Na04 Cl03 90.0 105_666 5
Cl03 Na04 Cl03 180.0 97_666 .
Cl03 Na04 Cl03 90.0 101_666 97_666
Cl03 Na04 Cl03 180.0 101_666 5
Cl03 Na04 Cl03 90.0 9 97_666
Cl03 Na04 Cl03 90.0 105_666 101_666
Cl03 Na04 Cl03 90.0 9 .
Cl03 Na04 Cl03 90.0 9 5
Cl03 Na04 Cl03 90.0 101_666 .
Cl03 Na04 Cl03 90.0 5 .
Cl03 Na04 Cl03 90.0 5 97_666
Cl03 Na04 Cl03 180.0 105_666 9
Cl03 Na04 Cl03 90.0 105_666 .
Cl03 Na04 Cl03 90.0 9 101_666
loop_
_geom_bond_atom_site_label_1
_geom_bond_atom_site_label_2
_geom_bond_distance
_geom_bond_site_symmetry_2
Cs01 Cl03 3.66145(14) 53_455
Cs01 Cl03 3.66145(14) 153_566
Cs01 Cl03 3.66145(14) 125_656
Cs01 Cl03 3.66145(14) 81_445
Cs01 Cl03 3.66145(13) 77_445
Cs01 Cl03 3.66145(13) 145_566
Cs01 Cl03 3.66145(13) 121_656
Cs01 Cl03 3.66145(14) .
Cs01 Cl03 3.66145(14) 101_666
Cs01 Cl03 3.66145(14) 105_666
Cs01 Cl03 3.66145(14) 73_445
Cs01 Cl03 3.66145(14) 33_545
Fe02 Cl03 2.383(2) .
Fe02 Cl03 2.383(2) 53_455
Fe02 Cl03 2.383(2) 97_667
Fe02 Cl03 2.383(2) 33_545
Fe02 Cl03 2.383(2) 149_666
Fe02 Cl03 2.383(2) 129_666
Cl03 Cs01 3.66145(13) 73
Cl03 Cs01 3.66145(13) 121_656
Cl03 Cs01 3.66145(13) 145_566
Cl03 Na04 2.788(2) .
Na04 Cs01 4.47748(5) 145_566
Na04 Cs01 4.47748(6) 73
Na04 Cs01 4.47748(5) 49_554
Na04 Cs01 4.47748(6) 169_556
Na04 Cs01 4.47748(5) 121_656
Na04 Cl03 2.788(2) 9
Na04 Cl03 2.788(2) 105_666
Na04 Cl03 2.788(2) 101_666
Na04 Cl03 2.788(2) 97_666
Na04 Cl03 2.788(2) 5
loop_
_refln_index_h
_refln_index_k
_refln_index_l
_refln_F_squared_meas
_refln_F_squared_sigma
1 1 -1 337.88 7.29
-1 -1 1 355.82 6.7
-1 1 1 318.07 7.65
-1 1 -1 342.49 7.51
1 -1 1 325.74 7.64
1 1 -1 332.54 7.85
-1 -1 -1 340.57 6.83
1 1 1 341.95 6.99
1 -1 -1 317.8 6.53
0 0 2 623.55 12.6
0 0 -2 641.46 13.25
2 0 0 631.66 11.71
0 2 0 621.03 12.48
0 0 -2 599.3 12.6
2 0 2 3667.46 59.87
0 2 -2 3634.83 58.86
2 0 -2 3646.15 59.85
2 0 -2 3609.88 56.37
2 2 0 3704.32 56.42
2 -2 0 3575.01 58.21
-2 0 -2 3695.23 59.38
-2 2 0 3642.72 58.5
0 2 2 3840.11 59.96
2 2 0 3430.53 59.85
2 2 0 3627.41 56.87
0 -2 2 3732.08 59.09
2 -2 -2 6067.18 91.74
2 2 2 5910.35 92.41
2 2 -2 5848.75 95.29
-2 -2 -2 5815.49 92.32
-2 2 -2 6091.01 94.3
2 2 2 6152.09 96.04
-2 2 2 5692.32 94.56
-2 -2 2 5943.36 91.91
2 -2 2 5990.71 94.8
1 3 1 49.89 3.01
-1 3 -1 52.31 3.31
-3 1 -1 46.56 2.39
-1 1 -3 45.16 3.3
-1 3 1 49.63 3.34
-1 -1 -3 47.19 2.9
1 1 3 48.4 3.09
-1 -1 -3 52.41 3.14
3 1 -1 47.73 3.35
1 3 -1 47.72 2.91
1 -3 1 52.61 3.35
3 -1 1 44.35 2.93
-1 -3 -1 45.2 1.57
-1 3 -1 52.68 2.79
1 -1 -3 53.81 3.47
1 1 -3 46.97 3.67
-1 -3 1 50.09 3.09
3 -1 -1 47.86 2.02
1 -3 -1 52.62 3.17
-1 -1 3 48.55 2.75
1 -1 3 44.37 3.28
1 3 -1 48.68 2.98
-3 1 1 55.26 2.91
-3 1 -1 50.14 3.24
-3 1 3 2 1.34
-1 3 3 2.45 1.6
-1 -3 -3 2.46 0.79
-3 -1 -3 2.08 1.17
-3 3 -1 1.57 1.15
-3 -3 1 1.89 0.83
3 -3 -1 3.31 1.08
3 3 -1 3.98 1.53
-3 -1 3 2.82 0.6
-3 3 -1 2.61 1.24
3 3 1 1.65 0.62
-1 -3 3 1.12 1
1 3 3 4.28 1.39
3 3 -1 2.86 1.12
3 -1 3 4.78 1.73
3 1 -3 3.43 0.91
1 3 3 2.63 1.37
-1 -3 -3 3.69 0.71
3 1 -3 2.96 1.65
3 -3 1 1.33 1.14
-3 3 1 2.86 1.35
-1 3 -3 3.54 1.37
-3 1 -3 2.38 1.35
3 -1 -3 10.76 0.85
1 -3 3 2.46 1.39
1 3 -3 2.3 1.46
3 1 3 4.11 1.68
-3 -3 3 42.23 2.92
3 3 3 47.13 3.31
3 -3 3 40.1 3.93
3 -3 -3 41.22 2.84
-3 -3 -3 45.01 3.24
-3 3 -3 46.22 4
3 3 -3 46.52 4.16
-3 3 3 45.71 3.99
0 0 4 9625.99 146.63
0 0 -4 9470.95 148.08
-4 0 0 9999 140.98
0 -4 0 9333.31 146.28
0 0 -4 9865.38 146.98
0 2 -4 494.11 14.5
-4 0 2 515.52 11.96
-2 4 0 486.73 11.14
4 0 2 511.53 13.87
2 0 4 488.78 14.35
0 2 -4 461.22 13.63
0 4 -2 472.57 13.37
2 -4 0 470.9 12.99
0 -4 -2 514.52 13.67
-4 0 -2 492.42 13.4
0 2 4 505.19 14.43
0 4 -2 484.04 12.08
-4 2 0 500.14 11.82
-2 4 0 516.48 13.59
2 4 0 500.92 12.24
0 2 4 558.87 12.08
0 4 2 521.75 13.86
4 -2 0 494.61 12.02
4 2 0 489.01 14.48
0 -2 4 475.61 13.14
2 4 0 492.24 10.78
-2 0 -4 466.97 13.31
-2 -4 0 495.37 13.25
0 -4 2 500.53 13.49
0 -2 -4 496.42 12.82
4 0 -2 459.63 12.29
2 0 -4 490.99 14.53
-2 4 2 2623.35 48.79
2 4 2 2655.86 46.53
-4 -2 2 2754.06 43.42
2 2 -4 2714.26 50.62
4 -2 -2 2883.05 43.64
2 -4 2 2682.05 48.67
-2 -4 -2 2714.28 43.13
2 -2 4 2765.44 49.38
-2 2 4 2641.1 49.62
-2 -4 2 2602.13 46.76
4 -2 2 2660.88 48.12
-2 2 -4 2800.05 49.33
-2 4 -2 2542.32 47.94
-2 -2 -4 2809.42 47.14
4 2 -2 2807.25 47.79
-4 2 2 2822.39 47.47
-4 -2 -2 2729.91 47.06
2 2 4 2545.1 47.82
-4 2 -2 2778.46 48.57
4 2 -2 2772.24 48.35
2 4 -2 2671.14 47.82
-2 -2 -4 2736.99 45.63
4 2 2 2816.94 43.05
-2 -2 4 2673.21 45.6
2 -4 -2 2524.52 46.45
2 2 4 2723.39 48.63
-2 4 -2 2550.03 46.63
0 4 -4 7487.02 117.73
-4 4 0 7516.17 115.36
0 4 4 7154.71 118.5
4 4 0 7156.72 112.03
4 -4 0 7153.63 115.85
-4 4 0 7137.22 116.05
4 0 -4 7202.95 111.1
4 4 0 7200.73 119.22
0 -4 4 6950.87 117.07
-4 -4 0 7146.9 115.98
-4 0 -4 7505.02 117.97
-4 -2 -4 395.03 12.56
4 4 -2 412.72 13.43
-4 4 -2 420.24 12.96
4 -2 -4 403.66 8.99
-4 -4 2 441.51 11.86
-4 4 -2 382.29 12.56
4 -4 -2 406.43 11.51
-2 4 -4 397.65 13.31
-2 -4 4 444.05 12.88
4 4 -2 406.88 12.59
-2 -4 -4 422.1 8.51
4 2 4 411.57 11.65
2 4 4 406.02 13.03
-4 -4 -2 374.73 10.91
-4 4 2 417.23 13.38
-4 2 4 417.62 13.72
2 -4 4 400.27 13.68
4 -4 2 383.74 13.03
-4 -2 4 423.02 9.58
2 4 -4 392.93 14.09
-2 4 4 400.21 14.23
4 4 2 422.08 10.29
2 -4 -4 407.45 12.22
4 2 -4 414.11 14.37
4 -2 4 397.26 13.88
-4 2 -4 367.44 13.08
-2 -4 -4 373.99 10.48
4 4 -4 5880.17 96.25
4 4 4 5854.63 98.24
4 4 4 5498.3 90.59
4 -4 -4 5790.85 89.53
-4 -4 4 5536.28 89.87
-4 4 -4 5714.64 94.91
-4 -4 -4 5673.3 90.83
4 -4 4 5727.58 96.02
5 1 1 341.25 12.24
1 5 -1 332.65 10.61
1 -1 -5 346.67 11.76
5 -1 -1 328.61 7.96
-1 -5 -1 318.48 10.93
-1 5 -1 343.85 11.27
-1 1 -5 314.85 11.28
-5 1 1 338.72 8.77
1 1 -5 349.11 12.54
-5 1 -1 331.16 8.12
-1 -1 -5 330.47 10.84
-1 5 1 355.05 11.44
-1 -1 -5 361.99 11.46
-1 5 1 336.32 6.48
-1 -1 5 341.93 10.28
-5 -1 1 318.36 6.93
1 5 1 338.74 10.45
-1 -5 1 275.62 10.1
1 -1 5 337.83 11.43
1 -5 -1 323.96 10.72
-5 1 -1 340.47 11.15
5 -1 1 331.27 9.97
5 1 -1 356.7 11.78
-1 5 -1 332.5 8.73
1 -5 1 333.3 11.1
3 -5 1 112.49 6.55
-3 1 -5 100.36 6.54
-3 5 1 114.23 4.91
1 3 -5 126.65 7.88
3 5 -1 120.24 5.64
-1 5 -3 114.01 6.08
1 3 5 127.95 7.23
-3 -1 5 127.35 5.09
1 3 5 125.13 6.26
-5 3 -1 115.54 6.37
3 -1 -5 110.71 7.05
5 1 -3 124.94 6.03
-5 3 1 124.64 6.06
3 -1 5 118.03 7.23
3 5 1 123.19 5.59
5 3 -1 133.59 7.44
-3 5 -1 125.97 6.83
-1 3 5 122.42 7.55
5 -3 -1 126.19 5.56
5 -3 1 122.79 6.29
5 -1 3 122.83 7.08
-5 1 -3 113.65 6.82
3 -5 -1 136.75 6.75
1 5 3 141.06 7.2
-1 -5 3 129.34 6.73
1 -5 -3 119.42 6.6
3 1 -5 118.14 7.58
-1 3 -5 124.98 7.16
1 -5 3 113.68 6.85
-1 -3 5 116.98 6.28
-5 3 -1 120.53 5.73
-5 1 3 104.61 5.85
3 5 -1 116.75 5.79
-3 5 -1 112.92 5.57
-3 5 1 124.47 6.85
-3 -1 -5 100.23 6.17
5 3 1 129.86 7.95
1 -3 5 118.66 6.94
-1 -3 -5 120.43 5.91
1 -3 -5 120.71 6.36
-3 -5 -1 121.18 6.82
-1 -3 -5 125.06 5.67
-3 -5 1 109.29 6.13
-3 1 5 136.86 7.83
-5 -3 1 123.18 5.51
-5 -1 -3 115.03 6.54
1 5 -3 119.71 6.82
-1 5 3 126.73 7.32
-3 3 -5 31.73 3.97
-3 -3 5 29.05 2.79
-5 -3 3 27.75 2.27
-3 5 3 25.61 3.61
-3 -5 3 23.91 2.81
5 3 3 24.69 3.71
5 3 3 28.17 2.19
5 -3 3 24.45 3.31
3 -3 5 24.8 3.65
3 -3 -5 21.68 2.34
-3 -5 -3 29.83 2.33
-5 3 -3 24.34 3.47
3 -5 3 26.27 3.53
-3 -3 -5 26.12 2.46
-3 5 -3 26.1 3.1
3 -5 -3 32.37 3.31
5 -3 -3 28.17 2.22
5 3 -3 26.57 3.4
3 3 5 29.94 3.37
-5 3 3 25.85 3.14
3 5 3 28.08 2.96
-5 -3 -3 28.04 3.1
-3 -3 -5 27.7 3.06
5 3 -3 26.48 3.07
-3 3 5 26.54 3.84
3 3 -5 29.76 4.06
3 5 -3 27.55 3.42
3 5 3 23.18 3.62
-5 1 -5 344.07 13.52
5 -5 1 340.23 12.72
-5 5 1 349.83 12.83
-1 5 -5 352.31 13.21
-1 5 5 368.07 14.56
5 5 1 357.22 9.5
1 5 5 352.16 13.58
1 -5 5 345.51 13.4
-5 -5 1 360.53 12.04
5 -5 -1 378.72 12.45
5 -1 5 357.17 14.29
5 5 -1 319.85 13.4
-5 1 5 334.42 13.08
-5 -1 -5 328.89 12.92
1 5 -5 365.84 14.47
5 5 1 349.08 14.66
-5 5 -1 343.89 12.2
-5 5 -1 360.01 12.78
5 1 -5 351.6 14.31
-5 5 1 327.21 11.57
5 1 5 362.86 14.45
-1 -5 5 368.2 13.11
5 3 5 175.7 7.63
3 5 5 161.72 9.57
5 3 5 177.69 10.31
5 -3 5 166.45 9.61
-5 -5 3 176.23 7.71
5 5 3 186.09 10.9
3 -5 -5 171.41 7.99
5 3 -5 184.72 10.28
-3 5 5 198.28 10.87
-5 3 -5 173.2 9.65
-5 5 3 182.8 9.44
5 -5 3 175.36 9.49
5 5 -3 178.96 8.97
-3 -5 5 148.16 7.88
-5 -5 -3 179.43 7.73
3 5 5 172.7 8.72
5 -5 -3 156.19 7.28
3 5 -5 169.39 9.76
3 -5 5 176.98 9.99
-5 5 -3 163.37 8.76
-5 -3 -5 168.49 8.59
-3 5 -5 161.64 9.17
5 5 3 174.52 6.63
-5 3 5 164.5 9.34
5 5 5 340.97 15.76
5 5 5 362.51 12.21
-5 5 5 362.94 15.06
-5 5 -5 335.57 14.42
5 5 -5 339.27 14.66
5 -5 5 333.65 14.73
-6 0 0 280.7 6.3
0 0 -6 283.53 11.69
0 0 -6 265.58 10.87
6 0 0 283.89 11.21
0 6 0 301.98 10.92
0 -6 0 256.53 10.5
0 0 6 238.34 7.43
0 6 -2 2351.88 45.42
0 2 -6 2410.01 47.97
2 6 0 2237.07 42.98
-2 6 0 2309.98 39.4
0 -6 2 2415.3 45.54
0 6 2 2267.08 44.65
6 0 -2 2434 44.51
0 2 6 2419.59 47.85
2 0 -6 2384.52 47.73
-2 6 0 2336.36 45.17
-6 2 0 2272.88 40.35
-2 -6 0 2252.56 44.77
-6 0 -2 2407.74 45.48
2 6 0 2321.56 39.79
0 -6 -2 2498.93 45.81
-6 0 2 2347.85 40.1
2 -6 0 2357.99 45.21
6 -2 0 2250.74 41.37
-2 0 -6 2345.11 45.65
0 -2 -6 2100.72 43.93
0 -2 6 2104.1 43.96
6 2 0 2297.72 46.92
0 2 6 2282.81 39.93
0 2 -6 2107.21 45.26
6 2 -2 3012.46 55.55
-2 -6 -2 3084.26 56.74
-2 -2 -6 3124.26 54.42
-2 2 6 3020.33 58.16
2 2 -6 3040.11 59.05
-2 -2 6 3037.2 53.04
2 -6 -2 3075.93 54.96
-2 6 -2 3021.71 52.56
2 2 6 2824.52 54.08
-6 2 2 2964.37 52.36
2 -2 -6 2968.43 56.19
-2 6 2 3023.56 56.34
2 -2 6 3167.83 57.38
-6 2 -2 2954.29 55.67
-2 2 -6 3123.26 57.31
-2 6 2 2986.3 47.52
6 -2 -2 2976.54 48.3
-6 -2 -2 2874.38 54.48
2 6 2 2795.47 53.23
6 2 2 2806.48 58.26
-2 -6 2 2977.89 54.78
2 6 -2 2897.59 53.73
-6 -2 2 2859.16 48.09
-6 -2 2 2997.54 49.18
6 -2 2 3023.05 54.8
-2 -2 -6 2861.12 54.2
-2 6 -2 3014.25 56.02
2 -6 2 2903 55.84
4 6 0 248.89 9.07
0 -6 -4 266.4 11.49
-6 0 4 232.57 9.53
0 -6 4 247.59 11.02
0 6 4 264.82 11.57
-4 0 -6 241.39 11.03
4 -6 0 261.22 10.93
0 -4 6 276.8 11.5
-4 6 0 249.23 10.94
-6 0 -4 272.54 11.75
6 0 -4 249.42 9.18
-6 4 0 243.3 9.65
0 4 -6 240.33 11.76
-6 4 0 241.63 10.44
0 -4 -6 270.68 9.83
4 0 -6 236.71 11.88
-4 -6 0 294.32 11.37
4 0 6 243.29 10.93
0 4 -6 233.15 11
-4 6 0 226.54 8.79
0 4 6 258.25 11.82
6 -4 0 232.74 9.6
6 4 0 243.39 11.96
-2 -6 4 1730.71 36.07
-6 -4 2 1728.46 32.51
2 4 -6 1748.61 39.79
6 2 4 1726.51 40.42
-6 4 -2 1691.68 34.77
-4 2 -6 1710.79 38.02
6 -2 4 1675.15 37.6
2 4 6 1566.34 36.24
4 2 6 1645.08 37.75
4 -6 -2 1626.13 34.95
-6 2 4 1745.4 36.1
4 6 2 1633.57 32.7
6 -4 2 1757.65 36.76
-4 6 2 1703.6 37.57
4 2 -6 1750.46 40.11
-4 -6 2 2164.53 37.66
2 6 4 1820.89 36.86
6 2 -4 1758.73 34.37
-4 -6 -2 1636.01 37.47
-2 -4 -6 1685.87 34.04
2 -4 6 1653.6 37.59
4 6 -2 1673.77 34.55
-6 4 2 1796.6 35.91
2 -6 4 1677.66 37.82
4 -2 6 1744.43 39
6 -4 -2 1453.43 31.83
-4 2 6 1258.4 35.58
6 4 2 1742.13 40.38
2 6 -4 1699.92 37.64
-2 4 6 1710.1 39.41
-4 6 -2 1681.68 34.71
4 -6 2 1799.88 38.21
-4 6 2 1668.96 32.31
-6 -4 -2 1644.63 34.59
-2 -4 6 1760.76 35.69
-4 6 -2 1741.88 37.18
-6 4 -2 1568.76 36.15
-6 -2 -4 1784.69 37.03
-6 2 -4 1703.19 37.9
6 4 -2 1693.82 37.25
-4 -2 -6 1666.98 36.18
-2 6 4 1659.56 38.04
4 6 2 1683.85 39.25
-2 6 -4 1719.6 36.3
-2 4 -6 1672.1 37.9
2 -6 -4 1744.94 36
4 4 6 206.2 11.32
-6 4 4 194.92 10.04
4 4 6 223.93 10.04
4 6 4 202.66 11.49
-4 4 6 171.6 10.59
-4 -6 4 225.61 9.74
6 4 4 221.55 12.3
-4 6 4 223.74 11.36
4 6 4 217.78 9.23
4 -6 -4 231.44 9.8
-4 -4 -6 203.47 9.28
6 4 -4 203.17 10.58
-6 -4 -4 217.93 9.86
4 -4 -6 218.97 8.45
-6 4 -4 214.86 10.94
-4 6 -4 208.13 10.33
-4 4 -6 202.6 10.89
4 -6 4 216 11.25
4 6 -4 199.83 10.38
4 -4 6 201.92 11.09
4 4 -6 207.65 11.55
6 -4 4 200.97 10.75
6 6 0 1408.07 36.53
0 6 -6 1429.51 36.24
-6 0 -6 1519.37 35.74
-6 -6 0 1389.23 33.12
0 6 6 1596.18 37.04
0 -6 6 1451.19 34.79
-6 0 6 1502.61 34.97
6 -6 0 1512.08 34.1
-6 6 0 1518.5 34.14
6 0 6 1487.93 36.43
-6 6 0 1408.16 32.31
6 6 2 1728.35 42.56
-6 6 2 1745.02 38.86
-6 2 6 1700.23 39.11
2 6 6 1766.34 39.19
6 2 -6 1657.21 40.98
6 2 6 1717.54 41.4
-6 2 -6 1614.43 39.71
6 -2 6 1711.35 40.87
-6 6 2 1739.94 36.6
-2 -6 6 1767.96 38.33
6 -6 2 1738.78 39.07
-2 6 6 1482.12 39.43
2 6 -6 1638.16 40.54
-6 -6 2 1746.17 36.04
6 -6 -2 1725.23 36.1
-6 6 -2 1713.32 38.03
-6 6 -2 1552.5 36.7
-6 -2 -6 1733.08 38.78
-2 6 -6 1718.65 39.34
2 -6 -6 1804.01 38.4
2 -6 6 1691.38 40.01
-6 4 6 1198.44 31.47
4 6 6 1058.48 30.98
4 -6 -6 1044.19 26.16
6 6 -4 1098.69 28.98
4 -6 6 1124.68 31.33
-6 -4 -6 1039.94 27.44
6 4 6 1112.67 32.17
4 6 6 1100.99 27.66
-6 6 4 1100.54 29.8
6 -6 4 1103.86 30.62
-4 6 -6 1099.84 30.2
6 -4 6 1100.97 31.17
6 4 -6 1107.59 31.1
4 6 -6 1089.71 30.79
6 6 4 1123.02 32.94
-6 6 -4 1075.83 29
-6 4 -6 1077.59 30.36
-4 6 6 1081.62 30.96
-6 6 6 1022.82 30.3
6 6 6 973.77 31.38
6 -6 6 992.43 30.48
6 6 -6 995.44 29.75
-6 6 -6 954.18 29
-1 7 -1 4.12 1.78
1 7 -1 -0.38 1.27
-1 7 -1 1.31 0.74
-1 -1 -7 0.54 1.31
1 -7 -1 -0.1 1.5
1 1 -7 3.58 1.96
-1 -7 -1 0.53 1.48
1 -1 -7 -1.23 1.84
1 7 1 1.15 1.29
7 -1 1 0.23 1.12
-1 1 -7 0.76 2.1
1 -7 1 -0.6 1.71
-1 1 -7 0.19 1.69
-1 -1 -7 0.72 1.36
1 -1 7 1.6 1.51
-1 -7 1 1.38 1.7
-1 -1 7 0.46 1.14
-7 1 -1 3.37 1.9
1 1 7 -0.34 1.09
-7 1 1 0.76 0.63
7 1 -1 5.95 2.3
-1 7 1 -0.2 1.6
7 1 1 1.22 1.88
3 7 1 17.83 2.68
7 1 3 17.04 3.52
-3 7 -1 13.09 2.13
3 7 -1 17.01 2.73
-1 -3 7 18.17 3.01
3 -1 -7 18.72 3.5
-3 1 -7 16.59 3.36
-3 -1 -7 12.08 2.75
-1 7 -3 14.35 3.1
1 7 -3 15.85 2.91
-1 3 -7 13.18 2.89
-3 -1 -7 13.37 2.62
-1 7 -3 13.52 2.28
-3 7 -1 13.9 3.02
-1 -3 -7 11.3 2.29
-3 1 7 14.89 3.17
1 -7 -3 15.52 2.92
1 -3 -7 11.33 2.54
-3 -7 1 18.25 3.21
7 -3 1 13.55 2.47
3 1 -7 18.05 3.78
-1 -7 -3 11.6 2.82
-3 -7 -1 17.05 3.07
-7 3 -1 12.99 2.03
3 -7 -1 15.7 2.93
3 -7 1 10.93 2.78
1 -7 3 14.02 3.07
7 -3 -1 14.63 2.14
1 -3 7 12.03 2.81
3 -1 7 14.28 3.19
7 -1 3 16.57 3.02
7 -1 -3 16.06 2.54
-1 7 3 15.88 3.26
1 3 -7 15.42 3.48
3 7 -1 11.57 1.89
1 3 7 17.91 2.54
-1 3 7 13.19 3.22
-1 -3 -7 18.15 2.71
-7 -1 -3 15.33 2.96
7 3 -1 9.81 2.51
-7 1 3 14.92 2.26
7 3 1 14.52 3.5
7 1 -3 14.92 2.61
1 7 3 15.52 2.82
-7 -3 1 14.71 2.05
-7 3 1 14.51 2.23
-3 7 1 16.17 3.16
-1 3 -7 19.38 3.9
-7 3 -1 12.08 2.59
1 3 7 13.31 2.88
-7 1 -3 11.14 2.8
-1 -7 3 14.51 2.8
3 3 7 48.37 4.91
3 3 7 56.45 5.36
7 3 3 51.08 6.03
-7 3 3 56.66 4.78
7 3 -3 48.96 4.83
3 -7 -3 47.3 4.64
-3 -3 7 51.4 4.35
3 7 3 49.01 4.47
3 7 -3 45.87 4.59
-3 -7 3 52.34 4.99
-3 7 -3 53.35 5.43
3 -7 3 50.46 5.49
-3 3 7 52.11 5.87
-7 -3 -3 51.9 4.89
-3 -3 -7 50.89 4.79
7 -3 3 49.05 4.99
3 -3 7 46.49 5.46
-7 3 -3 53.94 5.44
-3 -7 -3 48.48 5.5
3 3 -7 51.15 5.89
-3 7 -3 45.57 4.46
-3 3 -7 53.39 5.71
-3 7 3 57.52 5.72
7 1 5 18.2 3.67
-7 -1 -5 21.07 3.72
-7 1 -5 25.49 4.14
-5 7 -1 16.47 2.62
-5 7 -1 19.23 3.33
-7 5 -1 13.15 2.54
-5 -1 -7 16.28 3.16
-5 1 -7 18.5 3.56
1 7 -5 20.16 3.59
-1 5 -7 18.43 3.5
-1 7 -5 13.27 2.66
7 -5 -1 19.82 2.91
-1 -7 5 18.67 3.42
5 1 -7 15.49 3.51
1 -5 7 21.85 3.82
7 5 1 15.93 3.73
-7 -5 1 19.41 2.85
-1 -7 -5 12.7 3.13
-5 -7 -1 17.55 3.35
-5 -7 1 19.53 3.21
1 -7 5 13.83 3.18
5 -7 -1 16.7 3.03
1 5 -7 16.28 3.52
5 -7 1 15.12 3.12
-1 -5 7 19.2 3.32
5 -1 7 16.93 3.72
-5 1 7 19.11 3.8
7 -5 1 15.08 2.89
7 5 -1 21.25 3.83
-7 1 5 13.46 2.58
1 5 7 16.98 3.76
-1 5 7 18.31 3.76
-1 7 5 20.98 3.79
1 7 5 25.08 3.85
1 -7 -5 19.42 3.39
-7 5 1 15.5 2.87
-7 5 1 17.57 2.95
-5 7 1 16.38 3.36
5 1 7 15.78 3.44
-7 5 -1 16.25 3.05
-5 7 1 18.04 2.58
-7 5 -3 3.08 1.96
-7 -3 -5 1.69 1.63
-7 3 -5 -0.08 1.91
-5 7 -3 1.63 1.3
-5 -3 -7 0.26 1.58
-5 3 -7 0.02 2.19
-5 7 -3 0.85 1.65
3 -7 5 1.23 1.71
-3 7 -5 1.32 1.7
-3 5 -7 -0.2 1.72
7 -5 3 0.46 1.54
-5 -7 -3 -0.24 1.73
-3 -7 5 -0.05 1.45
5 3 7 0.35 1.25
-3 5 7 10.19 3.07
3 -7 -5 -0.71 1.42
-5 -7 3 2.75 1.49
5 -7 -3 -0.18 1.08
3 7 -5 -0.16 1.74
5 -7 3 2.22 2.05
-3 -5 7 0.33 1.18
7 -3 5 1.67 1.83
5 -3 7 -0.21 1.9
3 -5 -7 4.33 1.59
7 5 -3 -0.14 1.62
3 5 7 -1.07 1.84
3 5 -7 0.6 1.85
3 -5 7 0.35 1.84
-5 3 7 -0.51 1.71
5 7 -3 0.5 1.1
7 5 3 1.08 1.93
3 5 7 1.95 1.55
5 3 -7 -0.92 1.9
-7 3 5 0.48 1.29
5 3 7 0.48 1.61
-3 7 5 -1.63 2.03
3 7 5 1.47 1.29
7 3 5 -0.14 1.93
-7 5 3 0.87 1.28
-5 7 3 0.22 1.43
5 7 3 1.47 1.75
-7 -5 -3 -0.22 0.95
-7 5 -5 37.5 5.1
5 -5 7 42.1 5.63
5 7 5 44.63 6.18
5 7 -5 46.48 5.54
5 5 7 48.32 6.03
-5 5 7 51.84 6.31
5 -7 5 44.93 5.77
7 -5 5 38.55 5.43
-7 5 5 51.87 5.71
5 5 -7 43.12 5.74
7 5 5 41.84 5.9
-5 7 -5 49.9 5.57
-5 5 -7 44.6 5.79
7 5 -5 45.05 5.54
-5 7 5 50.63 6.06
-7 7 -1 24.62 3.76
-7 7 -1 30.66 4.29
-7 -1 -7 25.03 4.21
-7 1 -7 25.38 4.48
-1 7 -7 24.11 4.14
1 7 -7 31.04 5.08
7 -7 -1 32.37 4.21
7 -7 1 29.41 4.45
-1 -7 7 31.26 4.56
1 -7 7 30.41 4.76
1 -7 -7 25.01 4.26
-7 -7 -1 27.8 4.09
7 7 1 29.47 5.1
-7 -7 1 31.71 4.12
-7 -1 7 25.79 4.26
-7 1 7 26.65 4.25
1 7 7 28.91 4.53
-1 7 7 37.94 5.56
7 1 7 31.11 5.06
-7 7 1 27.34 3.82
-7 7 1 26.19 3.96
3 -7 -7 66.83 6.15
-7 3 7 66.75 6.88
-7 7 3 49.32 5.71
-3 7 7 63.46 7.17
7 -7 3 52.35 6.11
3 -7 7 52.88 6.41
7 3 7 60.61 7.04
7 -3 7 49.27 6.36
3 7 -7 52.63 6.42
7 7 3 65.18 7.54
-7 7 -3 55.05 6.04
-7 7 -3 56.3 5.94
-7 -3 -7 53.01 5.89
-7 3 -7 46.91 6.12
3 7 7 53.91 5.83
-3 -7 7 50.86 5.54
-3 7 -7 55.52 6.32
-7 7 -5 2.5 1.82
-7 5 -7 7.63 2.82
7 7 -5 3.95 2.12
7 -7 5 2.79 2.2
5 -7 7 5.28 2.67
7 -5 7 0.54 2.04
5 7 -7 1.84 2
7 5 -7 3.76 2.53
5 7 7 2.31 2.32
7 7 5 6.15 3.24
7 5 7 2.49 2.29
-7 5 7 2.13 1.8
-5 7 7 1.9 2.2
-7 7 5 5.97 2.63
-7 7 -7 46.9 6.48
-7 7 7 54.89 7.07
7 -7 7 47.17 6.81
7 7 -7 49.18 6.47
7 7 7 51.85 7.24
0 0 -8 4586.09 82.75
8 0 0 4525.82 81.77
0 -8 0 4422.08 80.45
2 0 -8 284.54 13.91
0 2 8 271.53 13.69
-8 0 -2 293.92 12.96
0 -2 8 271.23 12.37
-2 0 -8 300.35 13.4
2 -8 0 290.01 12.89
0 2 -8 284.66 14
8 2 0 282.59 13.62
0 8 2 275.31 12.38
8 -2 0 327.53 11.01
0 -8 -2 262.16 12.46
8 0 -2 286.83 12.53
-2 8 0 292.63 13.02
2 8 0 282.41 11.84
8 0 2 289.15 13.75
-2 -8 0 291.07 13.06
0 8 -2 293.63 12.97
0 -2 -8 286.79 12.65
-2 0 -8 269.18 12.72
0 -8 2 292.09 13.13
-2 -8 2 1133.76 29.11
2 -8 2 1261.93 31.15
2 8 -2 1160.37 26.91
-2 -2 -8 1152.75 28.3
2 -2 -8 1134.18 29.96
8 2 -2 1124.01 29.56
-2 -2 8 1194.71 27.68
8 -2 2 1160.81 27.95
-2 8 2 1197.77 30.5
-8 -2 -2 1106.2 28.32
2 8 2 1148.92 27.88
-2 2 -8 1215.27 31.3
-8 2 -2 1104.53 29.36
-2 -8 -2 1154.04 29.98
2 8 -2 1170.56 29.24
2 2 -8 1206.1 32.51
-2 2 8 1147.08 32.02
-2 8 -2 1206.04 30.36
8 2 2 1156.11 32.21
-2 2 -8 1079.2 29.84
-2 -2 -8 1110.75 28.38
2 -2 8 1098.53 30.05
0 -8 -4 3346.77 66.55
0 -4 8 3571.04 67.09
-4 -8 0 3291.77 65.99
4 -8 0 3151.6 65.22
0 4 -8 3526.59 70.72
0 -8 4 3643.74 67.62
8 -4 0 3530.23 62.8
0 8 4 3390.22 66.95
4 0 -8 3404.1 69.75
-4 8 0 3408.72 66.99
4 0 8 3552.32 66.43
8 0 4 3442.43 69.53
-8 4 0 3418.71 66.12
4 8 0 3414.33 62.67
-8 0 -4 3262.29 66.74
0 4 8 3361.42 68.73
-4 0 -8 3443.97 67.61
8 4 0 3567.15 70
-4 -8 -2 241.89 12.52
4 2 -8 237.09 13.5
2 -8 -4 231.79 11.65
8 4 -2 227.8 12.26
-4 -8 2 243.7 11.74
4 -8 -2 239.81 11.7
2 -8 4 256.73 12.98
8 -4 2 248.63 11.71
4 2 8 247.03 12.28
-2 -4 8 225.52 10.95
2 -4 8 236.73 12.66
2 8 4 219.65 11.06
-8 -2 -4 241.93 12.11
4 -2 8 232.01 13.05
-8 4 2 256.16 10.88
2 4 8 235.29 10.86
-4 8 2 264.87 13.07
8 2 4 246.16 14.02
-2 -8 4 228.94 11.72
-2 8 4 240.78 12.61
4 8 2 238.25 10.27
-2 4 8 229.56 13.11
2 4 -8 240.04 13.55
-8 -4 -2 230.27 11.1
-4 2 8 234.67 13.13
-4 8 -2 233.09 12.12
-2 -8 -4 226.3 12.47
2 4 8 235.96 12.53
-8 4 -2 199.32 11.32
-8 2 -4 245.69 12.76
-4 2 -8 239.38 12.79
-4 -2 -8 227.57 11.79
-2 8 -4 246.85 10.97
-2 4 -8 236.47 12.62
-2 -4 -8 238.6 10.95
8 4 2 215.4 13.09
2 8 -4 241.03 12.03
8 -2 4 245.73 12.52
4 -8 2 209.09 11.81
4 4 8 2677.58 57.16
4 8 4 2680.71 52.99
4 4 8 2666.96 55.65
4 -8 -4 2915.27 55.77
-4 -8 -4 2738.17 59.46
4 -8 4 2775.92 58.92
8 4 4 2720.66 61.23
-4 8 4 2628.81 57.71
8 -4 4 2599.31 56.5
4 -4 8 2569.82 58.26
-8 -4 -4 2832.2 55.8
-8 4 -4 2754.97 57.97
-8 4 4 2714.73 54.56
4 8 -4 2794.36 55.75
-4 8 -4 2734.92 54.97
-4 4 -8 2768.69 59.06
-4 4 8 2633.49 59.49
4 4 -8 2727.34 60.37
-4 -8 4 2838.73 55.77
0 6 8 159.55 11.05
-6 0 8 148.76 10.34
0 8 -6 145.05 10.22
-6 -8 0 168.8 10.26
0 6 -8 151.1 11.04
8 6 0 144.86 10.72
6 -8 0 161.4 9.97
0 -8 6 144.08 9.98
0 8 6 159.74 10.51
0 -6 8 153.06 10.14
8 -6 0 151.19 9.11
-6 8 0 143.95 9.81
-8 6 0 153.78 9.15
6 0 8 149.24 10.43
8 0 6 145.62 10.81
-8 6 0 154.02 9.69
0 -8 -6 142.77 10.07
-8 0 -6 152.85 10.29
-6 0 -8 135.95 9.95
2 -6 8 724.58 24.97
8 6 -2 753.18 25.14
2 -6 -8 699.65 22.84
-2 -8 -6 761.36 26.13
2 -8 -6 772.04 24.16
8 6 2 778.45 27.34
-6 2 8 729.1 25.33
-6 -8 2 750.42 22.69
2 6 8 769.57 25.15
-8 2 6 758.28 23.52
-2 6 8 830.6 27.6
6 2 8 710.26 25.14
6 -8 -2 675.31 21.96
6 -2 8 782.15 26.83
6 -8 2 784.34 25.31
-2 8 6 785.3 26.02
2 8 6 774.93 24.15
-2 -6 8 768.79 23.68
2 8 -6 728.84 25.06
8 -6 2 738.23 23.81
8 2 6 764.01 27.12
8 -2 6 722.25 25.41
2 -8 6 794.04 25.87
-2 -8 6 590.05 22
-8 6 2 841.03 23.97
-6 8 2 806.13 25.31
2 6 -8 685.46 25.49
-8 6 2 722.53 22.78
-6 8 -2 763.79 24.4
-6 -8 -2 760.12 25.03
-8 6 -2 758.17 22.76
-8 6 -2 751.45 24.24
-8 -2 -6 763.62 24.5
6 2 -8 774.04 26.95
-8 2 -6 723.71 25.02
-6 8 -2 711.3 21.76
-6 -2 -8 737.4 24.18
-6 2 -8 756.82 25.44
-2 6 -8 747.24 24.94
-2 8 -6 753.38 23.8
8 6 4 129.3 10.94
6 8 4 139.29 11.19
4 6 8 121.04 9.44
-6 -8 -4 154.16 11.23
4 6 8 130.53 9.13
6 4 8 122.02 9.98
-4 6 8 143.26 11.19
-8 4 6 124.51 9.18
6 -8 4 117.43 9.68
4 -8 6 127.4 10.18
-4 8 6 127.79 10.12
8 -6 4 119.26 9.52
4 -6 8 116.97 9.76
-8 6 4 118.09 8.9
8 4 6 122.47 10.58
6 -4 8 131.3 10.43
8 -4 6 122.19 9.94
-6 8 4 120.32 9.42
6 4 -8 127.43 10.49
-8 -4 -6 123.96 8.9
4 8 -6 123.02 9.54
-8 6 -4 128.45 9.66
-8 4 -6 112.75 9.4
-6 8 -4 120.01 8.72
-6 4 -8 127.24 10.06
4 6 -8 124.38 10.22
-4 8 -6 122.16 9.21
-4 6 -8 127.71 9.98
6 8 6 495.04 22.52
6 6 8 462.13 21.18
6 8 -6 527.74 20.79
-6 6 8 495.94 21.74
6 6 -8 497.75 21.74
8 6 6 529.63 23.57
-8 6 6 538.7 21.07
6 -8 6 519.97 22.19
-6 8 6 493.94 21.16
8 -6 6 514.17 21.94
6 -6 8 503.15 22.18
-8 6 -6 483.85 21.07
-6 8 -6 503.55 20.51
-6 6 -8 501.99 21.42
0 -8 -8 1705.98 44.07
0 8 -8 1713.49 45.53
0 8 8 1662.15 43.61
0 -8 8 1705.17 42.99
8 0 8 1681.4 44.9
-8 8 0 1571.95 40.16
-8 0 -8 1618.21 43.24
8 8 2 151.32 12.18
-8 -8 -2 144.02 10.63
2 -8 -8 139.39 10.16
-8 2 8 139.34 10.48
-2 8 8 135.25 11.03
-2 -8 8 153.6 10.6
8 -8 2 130.2 10.15
2 -8 8 148.25 11.3
2 8 8 148.19 10.55
8 2 8 145.4 11.71
2 8 -8 141.7 11.28
-8 8 2 123.07 9.63
-8 8 -2 144.19 10.21
-8 8 -2 129.04 9.38
-8 -2 -8 148.92 10.9
-8 2 -8 143.6 11.19
-2 8 -8 144.75 10.73
8 8 4 1328.19 41.15
-8 -8 -4 1267.63 38.99
-8 4 8 1518.6 40.45
8 4 8 1313.13 40.14
-4 8 8 1404.45 40.86
8 -8 4 1337.13 38.65
4 -8 8 1370.74 39.92
8 -4 8 1344.37 40.18
-8 8 4 1308.31 37.12
-8 8 -4 1406.68 37.68
4 8 -8 1285.39 38.94
-8 4 -8 1372.75 39.53
-4 8 -8 1295.06 37.87
6 8 8 82.54 9.13
8 8 6 68.64 8.68
8 6 8 68.74 8.79
6 8 -8 70.15 8.3
-8 6 8 76.43 8.46
-6 8 8 103.47 10.12
8 -8 6 64.58 8
6 -8 8 79.98 8.96
-8 8 6 66.75 7.7
8 -6 8 61.11 8
-8 8 -6 67.06 7.78
-8 6 -8 80.26 8.8
-6 8 -8 70.71 8.18
8 6 -8 67.05 8.13
1 -9 -1 179.39 10.74
-1 -9 -1 214.84 11.72
-1 -9 1 216.61 11.78
1 -9 1 197.66 11.25
-1 1 -9 213.38 12.29
9 1 -1 215.9 12.09
9 1 1 204.86 12.37
-1 9 1 222.19 11.68
1 9 1 215.06 11.06
-1 -1 -9 203.44 11.57
-1 9 -1 219.42 11.65
-9 1 -1 212.99 11.6
1 9 -1 220.14 11.36
9 -1 -1 197.18 11.24
9 -1 1 197.15 11.64
1 1 -9 225.68 12.84
-1 1 -9 221.2 12.06
-1 -1 -9 199.26 11.24
1 -1 -9 200.61 11.77
3 1 -9 99.08 8.84
-3 1 9 111.64 9.42
1 9 -3 96.44 7.3
1 3 9 107 8.82
-3 1 -9 105.13 8.4
-1 -9 -3 119.23 8.99
-3 -9 -1 110.62 8.56
1 -9 -3 99.71 8.02
-3 -9 1 113.51 8.5
3 -9 -1 110.73 8.37
-1 3 -9 106.9 9.1
-1 -9 3 106.49 8.35
-3 9 1 113.52 8.67
3 -9 1 92.64 7.93
1 -9 3 111.27 8.64
-3 -1 -9 112.57 8.24
9 3 -1 103.63 8.52
9 3 1 100.43 8.84
9 1 -3 115.62 8.09
3 -1 -9 121.15 9.45
-1 -3 9 115.66 8.17
1 -3 9 108.72 8.46
1 -3 -9 121.81 8.47
-1 9 3 109.1 8.64
1 9 3 111.96 8.28
9 1 3 122.52 9.88
1 3 -9 101.58 8.96
-1 3 9 121.64 9.67
3 9 1 105.46 7.38
-3 9 -1 121.98 8.85
-9 3 -1 115.25 8.59
-9 -1 -3 116.06 8.52
-9 1 -3 107.1 8.4
3 9 -1 114.42 7.97
-1 9 -3 135.04 9.55
-3 1 -9 103.56 8.5
-3 -1 -9 107.69 8.32
-1 3 -9 106.29 8.64
3 3 -9 42.04 5.88
3 3 9 47.5 5.69
-3 -9 -3 49.17 6.09
9 3 -3 53.57 5.85
-3 -9 3 48.9 5.63
3 -9 3 51.53 6.19
9 3 3 50.56 6.54
9 -3 3 37.73 4.91
-3 9 3 49.17 6.04
3 9 3 44.52 4.97
3 -9 -3 36.18 4.75
3 -3 9 40.38 5.65
-9 -3 -3 46.92 5.35
-9 3 -3 47.33 5.83
-3 9 -3 51.63 6.25
-3 3 9 42.09 6.02
-3 3 -9 48.53 6.13
-3 -3 -9 42.49 5.08
-5 1 9 214.45 13.4
-1 -9 -5 219.35 12.97
1 -9 -5 222.36 12.62
9 5 -1 214.98 13.14
-1 5 -9 228.43 14.08
-5 -9 1 202.88 11.79
1 5 9 205.74 12.71
-1 5 9 208.89 13.33
9 5 1 239.77 14.42
5 -9 -1 242.86 12.72
-1 -9 5 219.53 12.52
5 -9 1 219.17 12.58
1 -9 5 232.69 13.31
-1 9 5 229.27 13.05
1 9 5 232.12 12.59
1 -5 9 228.6 12.99
-1 -5 9 241.2 12.63
1 5 -9 241.31 14.46
-5 -9 -1 219.74 12.63
5 1 9 198.08 12.62
9 1 5 222.85 13.98
-5 9 1 233.55 13.07
5 1 -9 244.98 14.59
-5 9 -1 221.14 12.59
-9 5 1 223.75 12.31
5 -1 9 209.61 11.91
9 -1 5 215.93 13.34
-9 5 -1 233.59 12.82
-9 -1 -5 215.32 12.58
-9 1 -5 213.26 12.91
-5 1 -9 237.12 13.53
-5 -1 -9 223.15 12.94
1 9 -5 199.78 12.27
9 5 3 138.58 11.41
5 -9 -3 123.09 8.98
9 5 -3 132.84 9.7
-3 -9 -5 129.76 10.42
5 3 9 116.09 8.63
-5 3 9 113.05 9.9
3 -9 -5 144.02 9.7
3 5 9 133.6 9.87
-3 5 9 117.97 10.36
-5 -9 3 147.58 9.66
5 3 -9 151.06 11.47
-3 -9 5 137.66 9.66
5 3 9 130.55 9.81
5 -9 3 143.68 10.67
3 -9 5 127.93 10.04
9 3 5 133.51 10.98
-3 9 5 129.9 10.05
9 -5 3 137.92 9.8
3 -5 9 138.13 10.49
3 9 5 133.45 9.02
5 -3 9 134.2 10.68
9 -3 5 146.96 10.54
-5 9 3 145.59 10.51
3 9 -5 138.08 9.76
-5 -9 -3 135.44 10.33
-9 -5 -3 130.89 8.82
-9 -3 -5 138.07 9.78
-9 5 -3 137.92 10.19
-5 9 -3 135.64 10.19
-9 3 -5 141.55 10.43
3 5 -9 148.07 11.34
-5 3 -9 135.61 10.4
-5 -3 -9 138.4 9.71
-3 5 -9 131.88 10.17
-5 -9 -5 217.42 14.27
5 5 -9 210.31 13.91
5 5 9 227.22 13.51
-5 5 9 241.88 15.19
9 5 5 237.05 15.32
5 -9 5 213.97 13.77
5 -5 9 219.4 14.22
9 -5 5 235.24 13.87
-5 9 5 199.31 13
-9 5 -5 216.39 13.6
-5 5 -9 226.15 13.98
-7 9 1 31.33 5.07
-9 7 -1 27.19 4.69
-9 -1 -7 31.46 5.24
-9 1 -7 36.1 5.71
7 -1 9 29.77 5.2
9 -1 7 34.97 5.85
-7 -1 -9 28.88 4.99
-7 1 -9 36.36 5.63
-1 7 -9 34.59 5.79
-1 9 -7 35.43 5.68
1 -7 -9 28.62 4.95
-7 -9 1 40.21 5.2
1 9 -7 33.07 5.5
1 7 -9 28.05 5.45
-1 -9 -7 28.58 5.17
1 -9 -7 37.81 5.56
-7 -9 -1 30.88 4.9
7 -9 -1 25.24 4.32
7 -9 1 40.89 5.74
-1 -9 7 36.78 5.44
1 -9 7 30.56 5.19
-1 -7 9 24.74 4.4
1 -7 9 26.15 4.79
-7 9 -1 42.51 5.69
9 7 -1 23.4 4.71
9 7 1 30.75 5.4
-7 -1 9 23.93 4.54
-7 1 9 26.15 4.79
1 7 9 25.91 4.82
-1 7 9 34.52 5.85
-1 9 7 28.41 4.87
1 9 7 29.28 4.86
7 1 9 15.41 5.14
9 1 7 40.64 6.49
-9 7 1 28.01 4.43
-9 7 -3 11.48 3.15
-9 -3 -7 7.18 2.46
-9 3 -7 5.79 2.73
-7 -3 -9 13.82 3.48
-7 3 -9 9.92 3.53
-7 9 -3 9.62 3.03
-3 7 -9 12.3 3.5
-3 9 -7 11.47 3.13
-3 -9 -7 10.36 3.85
-7 -9 -3 10.71 3.46
3 -9 -7 15.16 3.54
7 -9 3 9.17 2.94
3 -9 7 9.69 3.68
9 -7 3 10.34 3.47
3 -7 9 9.65 3.2
7 -3 9 18.85 4.71
9 -3 7 10.41 3.41
3 9 -7 12.74 3.61
7 3 -9 7.91 3.24
9 7 3 12.03 3.54
-7 3 9 7.6 3.28
3 7 -9 11.36 3.5
3 7 9 12.89 3.48
-3 7 9 5.16 2.92
7 3 9 6.69 2.88
-3 9 7 7.72 2.99
3 9 7 13.54 3.36
9 3 7 12.32 3.77
-9 7 3 8.46 2.57
-7 9 3 12.25 3.35
-9 7 -5 42.75 6.32
-9 5 -7 48.06 6.78
-7 5 -9 51.19 7.1
5 9 -7 39.27 6.03
-5 7 9 52.07 7.34
-9 7 5 51.11 6.38
5 7 -9 43.86 6.71
-7 -9 -5 46.72 7.04
7 -9 5 47.28 6.94
5 -9 7 50.71 7.23
9 -7 5 46.35 6.73
5 -7 9 42.98 6.63
7 -5 9 39.74 6.51
7 5 -9 40.22 6.38
9 -5 7 45.5 6.86
9 7 5 44.17 6.95
7 5 9 47.92 7.1
9 5 7 55.42 7.78
-7 5 9 46.07 6.79
-5 9 -7 47.97 6.33
-5 7 -9 58.03 7.34
-5 9 7 47.25 6.84
-7 9 5 49.97 6.83
-9 7 -7 -0.17 2.4
-7 9 -7 1.14 2.01
7 7 -9 3.88 2.31
7 7 9 0.31 2.14
-9 7 7 -0.84 1.94
-1 -9 -9 144.9 12.08
1 -9 -9 137.43 11.25
-1 9 -9 143.89 12.46
-1 9 9 170.21 12.95
1 9 9 149.18 11.79
-1 -9 9 143.76 11.36
1 -9 9 162.5 12.38
1 9 -9 142.13 12.23
9 1 9 109.96 11.3
9 -1 9 149.19 12.36
-9 9 1 140.72 10.89
-9 9 -1 145 10.94
-9 -1 -9 137.48 11.37
-9 1 -9 155.46 12.33
-9 -9 -3 104.87 10.12
9 3 9 110.74 10.92
9 -9 3 101.78 9.83
-9 9 3 100.26 9.3
3 9 -9 99.66 10.25
-9 -3 -9 100.34 9.57
-3 9 -9 97.32 9.53
5 9 -9 140.6 12.19
-5 9 -9 138.11 11.55
0 -10 0 69.46 6.94
10 0 0 70.24 7.35
0 10 0 76.35 7
0 0 -10 78.3 7.78
0 -2 -10 942.28 28.18
2 0 -10 1024.93 31.4
0 2 10 912.99 30.47
0 -10 -2 941.89 28.96
-2 -10 0 956.6 29.03
2 -10 0 1032.87 29.79
0 -10 2 1060.01 30.48
-2 0 -10 1015.37 29.96
10 2 0 1014.99 30.98
0 -2 10 997.68 29.23
10 0 -2 982.79 29.11
0 10 2 932.42 28.34
0 2 -10 941.9 30.45
10 0 2 977.4 30.83
-2 10 0 990.2 29.58
-10 2 0 965.32 29.24
2 10 0 972.27 27.6
-10 0 -2 769.52 26.61
0 10 -2 1049.47 30.05
-2 0 -10 949.67 28.98
2 2 10 1011.85 31.07
-2 2 10 962.76 31.33
2 -10 -2 934.04 28.58
-2 -10 2 949.64 29.16
-2 2 -10 1050.74 31.81
2 -10 2 992.71 29.9
10 2 -2 972.96 29.18
-2 -10 -2 976.87 29.85
2 -2 -10 956.58 29.27
10 2 2 974.36 31.74
2 -2 10 828.19 28.59
-2 10 2 989.88 29.84
2 10 2 949.42 27.37
-10 -2 -2 920.16 27.96
10 -2 -2 1001.9 28.97
-10 2 -2 953.5 29.39
-2 10 -2 924.6 29.25
2 10 -2 1033.4 29.57
2 2 -10 988.5 31.6
-2 2 -10 963.14 29.86
-2 -2 -10 940.53 28.38
0 4 10 58.53 7.19
0 -10 -4 90.81 8.33
-4 0 -10 71.65 7.14
-4 -10 0 62.29 6.81
10 4 0 60.11 7.15
4 -10 0 52.38 6.37
0 -10 4 63.71 6.98
0 4 -10 61.29 7.48
0 -4 10 54.04 6.29
0 10 4 61.78 6.87
4 0 -10 64.82 7.54
10 0 4 72.74 8
-4 10 0 66.24 7.27
-10 4 0 64.59 6.94
-10 0 -4 61.61 7.04
-4 0 -10 56.51 6.66
-4 2 -10 723.62 26.07
4 2 10 783.26 26.25
-4 2 10 780.32 28.28
2 4 10 695.22 25.57
-2 -10 -4 877.35 28.21
-4 -10 -2 727.49 25.88
-2 4 10 797.37 28.38
-2 4 -10 800.56 28.42
2 -10 -4 664.37 24.25
10 4 -2 776.37 26.54
4 2 -10 765.46 28.01
-4 -10 2 829.96 26.37
4 -10 -2 669.66 24.15
-2 -10 4 787.25 26.14
4 -10 2 793.5 27
10 4 2 781.65 28.52
2 -10 4 790.37 27.25
2 -4 10 743.91 26.25
-2 10 4 729.98 25.97
10 2 4 734.25 27.86
2 10 4 755.96 24.48
-4 10 2 766.82 26.72
-10 -4 -2 718.58 23.71
-4 10 -2 812.69 27.05
-10 4 -2 778.89 26.59
-10 -2 -4 801.26 26.12
2 4 -10 805.91 28.69
-10 2 -4 777.46 26.89
-4 2 -10 743.35 26.63
-4 -2 -10 739.52 25.26
-2 4 -10 742.38 26.59
-10 4 -4 44.11 6.34
4 4 -10 54.57 7.32
-4 4 -10 48.44 6.65
-4 -10 -4 54.96 7.1
4 4 10 53.36 6.42
4 -10 -4 56.45 6.4
-4 -10 4 57.21 6.55
4 -10 4 51.3 6.81
10 4 4 59.95 7.72
4 -4 10 60.43 7.5
10 -4 4 50.14 6.41
-10 -4 -4 56 6.38
-4 4 10 56.3 7.52
-4 10 4 50.5 6.75
-6 0 10 666.89 25.84
0 10 -6 640.26 24.5
10 6 0 676.96 26.27
0 -10 -6 722.83 25.95
-6 -10 0 666.33 24.3
0 6 10 664.73 26.16
6 -10 0 611.29 23.69
0 -10 6 683.81 25.43
0 6 -10 655.67 26.74
0 -6 10 688.62 24.84
0 10 6 609.92 23.72
10 0 6 622.25 26.06
-6 10 0 632.59 24.13
-10 6 0 603.79 23.35
-10 0 -6 688 25.32
-6 0 -10 662.06 25.17
10 6 -2 577.1 23.33
-2 -10 -6 571.62 24.13
-2 6 -10 581.03 24.96
-6 -10 -2 554.09 22.68
2 -10 -6 608.34 23.16
-6 2 10 544.06 23.81
10 6 2 578.33 25.11
-6 -10 2 595.6 22.12
2 6 10 575.22 23.66
6 -10 -2 547.12 21.37
-2 -10 6 574.45 22.51
6 -10 2 565.3 23.08
2 -10 6 576.73 23.61
-2 10 6 541.85 22.93
2 -6 10 559.72 23.26
2 10 6 603.17 22.26
2 10 -6 588.18 22.99
10 2 6 567.23 25
-6 10 2 561.42 23.13
2 6 -10 570.64 24.7
-10 6 2 597.91 22.28
6 -2 10 592.45 22.62
10 -2 6 545.49 24.17
-6 10 -2 586.35 23.37
6 2 -10 578.69 24.77
-10 6 -2 604.61 23.6
-10 -2 -6 566.64 22.7
-10 2 -6 645.63 24.99
-6 2 -10 584.64 24.07
-6 -2 -10 577.21 22.8
-2 6 -10 561.74 23.48
-4 -10 -6 504.99 23.48
-6 -10 -4 471.13 22.29
10 6 4 480.92 23.79
-6 4 10 568.58 24.78
-4 6 10 551.19 24.88
10 4 6 549.44 24.85
6 -10 4 542.78 23.3
4 -10 6 525.42 23.2
10 -6 4 487.54 21.36
4 -6 10 495.53 22.57
-4 10 6 527.21 22.96
6 -4 10 544.94 24.25
10 -4 6 517.81 22.86
-6 10 4 471.89 21.5
6 4 -10 513.03 23.46
-10 -4 -6 504.87 20.81
-10 6 -4 529.82 22.54
-10 4 -6 516.59 22.63
-6 4 -10 528.25 23.12
-4 6 -10 544.83 23.25
4 6 -10 530.8 23.91
6 6 -10 345.93 19.32
10 -6 6 333.23 18.61
-10 6 -6 360.49 19.34
-8 10 0 34.6 5.76
-10 0 -8 49.35 6.84
-8 0 -10 38.97 6.19
0 10 -8 43.95 6.84
0 8 -10 43.31 6.97
0 -10 8 69.7 8.07
0 -10 -8 39.31 6.5
0 -8 10 44.03 6.4
10 8 0 38.31 6.42
0 8 10 47.76 6.91
0 10 8 33.23 5.85
8 0 10 36.52 6.37
10 0 8 50.46 7.66
-2 10 -8 351.49 19.35
10 8 2 421.26 21.89
-2 -10 -8 374.75 20.14
-8 -10 -2 366.66 18.93
2 -10 -8 343.48 18.02
-2 8 -10 368.14 20.42
-8 2 10 339.34 18.38
2 8 10 339.15 18.04
-2 8 10 385.79 20.36
-2 -10 8 349.42 17.89
8 -10 2 349.1 18.47
2 -10 8 344.19 18.72
8 2 10 393.3 20.26
-2 10 8 363.17 19.34
2 10 8 345.59 17.65
2 -8 10 349.43 18.99
10 2 8 361.22 20.27
2 10 -8 358.44 19.28
-8 10 2 369.09 18.61
2 8 -10 366.72 20.18
8 -2 10 358.86 19.06
10 -2 8 354.38 19.78
-8 10 -2 349.01 18.24
-10 -2 -8 352.84 18.73
-8 -2 -10 341.68 18.32
-8 2 -10 417.08 20.73
4 10 -8 34.24 6.01
-10 8 -4 36.24 5.92
-4 8 -10 37.83 6.37
8 -10 4 39.66 6.7
10 -8 4 37.73 6.28
-8 4 10 41.83 6.82
8 4 10 23.36 5.28
-1 11 1 1.18 1.85
1 11 1 7.56 2.96
11 -1 -1 6.2 2.6
11 -1 1 0.41 2.09
-1 11 -1 3.84 2.36
1 11 -1 4.17 1.83
-1 -11 -1 3.24 2.35
1 -11 -1 6.35 2.77
-1 -11 1 4.32 2.4
-1 1 -11 0.2 2.12
1 -11 1 2.2 1.7
1 -1 -11 4.69 2.55
-1 -1 -11 5.64 2.48
11 1 -1 3.42 2.15
11 1 1 3.1 2.16
-11 -1 -1 8.57 2.86
-11 1 -1 3.64 2.35
1 1 -11 4.48 2.9
-3 11 1 15.24 3.96
3 11 1 16.94 3.51
11 -1 3 8.57 3.33
-3 11 -1 13.17 3.43
3 11 -1 13.02 3.25
-3 1 -11 14.37 3.9
-3 -1 -11 14.67 3.59
-3 1 -11 16.69 4.01
3 -1 -11 13.5 3.74
-1 3 -11 15.09 4.26
-1 -11 -3 22.56 4.67
-3 -11 -1 16 3.99
1 -11 -3 9.55 3.07
-3 -11 1 18.5 4.05
3 -11 -1 13.44 3.49
-1 -11 3 13.89 3.8
3 -11 1 13.22 3.57
1 -11 3 14.23 3.74
1 -3 11 18.5 4.17
-11 3 1 8.34 3.26
1 3 -11 17.75 4.42
3 1 -11 18.77 4.61
-3 1 11 16.85 4.48
1 3 11 24.4 4.87
-1 3 11 18.88 4.7
11 3 -1 11.28 3.43
11 3 1 11.87 3.71
11 1 3 7.93 3.43
-11 -3 -1 19.24 4.06
-11 3 -1 16.47 3.92
-1 11 3 16.36 3.87
-11 -1 -3 14.32 3.61
1 11 3 16.2 3.57
-11 1 -3 11.92 3.47
-11 3 -3 34.07 5.62
-3 11 -3 31.9 5.5
-3 3 -11 26.73 5.11
-3 3 -11 31.76 5.53
3 3 -11 26.26 5.28
-3 -11 -3 29.44 5.4
3 -11 -3 26.76 4.89
-3 -11 3 32.06 5.36
3 -11 3 24.23 4.95
3 -3 11 31.75 5.52
3 3 11 28.22 5.03
-3 3 11 33.04 5.89
11 3 3 31.99 5.8
-3 11 3 36.8 5.85
-11 -3 -3 30.05 4.94
3 11 3 24.41 4.2
-11 -1 -5 1.95 2.08
-11 1 -5 0.9 2.3
-5 11 1 0.24 2.45
-5 1 -11 -0.3 2.14
11 -1 5 -0.39 2.38
-5 11 -1 3.69 2.47
-5 1 -11 -0.09 1.79
-5 -1 -11 -0.81 2.4
-1 5 -11 3.51 3.1
-1 -11 -5 3.75 2.3
-5 -11 -1 3.83 2.24
1 -11 -5 0.3 2.25
-5 -11 1 7.57 2.99
5 -11 -1 2 2.16
-1 -11 5 0.59 1.73
5 -11 1 3.11 2.45
1 -11 5 -1.3 2.65
1 5 -11 1.12 2.07
1 -5 11 -1.12 2.15
-5 1 11 2.11 2.83
1 5 11 -0.08 1.98
11 5 -1 -0.11 1.85
-1 5 11 0.4 2.36
11 5 1 -1.64 2.33
-1 11 5 1.3 2.02
11 1 5 0.32 2.12
5 1 -11 0.99 2.59
1 11 5 4.32 2.07
-11 -5 -1 -0.45 1.94
-11 5 1 -1.05 2.21
-11 5 -1 2.12 2.12
-11 -3 -5 4.64 2.58
-11 5 -3 4.32 2.31
-11 3 -5 1.13 2.39
-3 5 -11 1.25 2.31
3 5 -11 2.94 2.46
-5 3 -11 2.63 2.33
-5 11 -3 -0.43 2.72
5 3 -11 -3.56 3.49
-5 3 -11 -0.34 2.02
-3 5 -11 2.03 2.24
-3 -11 -5 1.96 2.33
-5 -11 -3 3.73 2.43
3 -11 -5 0.7 1.65
-5 -11 3 4.71 2.57
5 -11 -3 1.12 1.72
-3 -11 5 2.31 2.45
5 -11 3 1.88 1.99
3 -11 5 8.08 3.51
3 -5 11 2.08 1.91
5 -3 11 7.29 3.38
-5 3 11 1.79 2.59
3 5 11 -1.34 2.4
-3 5 11 4.89 3.17
11 5 3 -1.13 2.87
11 3 5 0.84 2.24
-3 11 5 1.93 2.35
-5 11 3 1.69 2.29
-11 5 -5 5.36 2.78
-11 7 -1 20.94 4.74
-7 11 1 23.34 5.08
-11 -1 -7 25.85 5.22
-7 11 -1 16.35 4.57
-7 1 -11 17.31 4.37
-7 -1 -11 19.76 4.47
1 11 -7 19.39 4.47
-1 -11 -7 24.23 5.22
1 -11 -7 10.68 3.64
-7 -11 -1 16.47 4.19
7 -11 1 13.26 4.3
-1 -11 7 20.42 4.59
1 -11 7 20.72 4.97
1 -7 11 17.94 4.54
11 7 -1 20.4 4.76
-7 -1 11 19.02 4.64
11 7 1 19.74 5
-7 1 11 20.15 4.7
1 7 11 20.38 5.03
-1 7 11 19.72 4.97
-1 11 7 16.06 4.25
1 11 7 13.02 3.63
-1 11 -7 22.77 4.77
-11 7 -3 26.85 5.18
-11 -3 -7 26.38 5.15
7 -11 3 26.71 5.47
-7 3 11 33.35 6.48
3 7 11 28.73 5.22
0 -12 0 1180.88 36.8
12 0 0 1260.89 38.92
-12 0 0 1328.82 38.09
0 12 0 1313.72 37.11
0 0 -12 1283.77 38.26
0 2 12 127.86 11.54
2 0 -12 130.07 11.27
0 -12 -2 108.8 10.01
-2 -12 0 140.17 11.26
2 -12 0 143.41 11.34
0 -12 2 135.65 11.26
12 2 0 99.08 9.92
12 0 2 126.49 11.51
0 12 2 121.1 10.28
-2 0 -12 128.58 10.51
12 -2 0 120.24 10.78
-2 12 0 124.5 10.58
-12 2 0 151.8 11.55
2 12 0 131.8 10.22
-12 0 -2 122.56 10.49
0 2 -12 139.02 11.82
0 12 -2 107.31 9.85
2 2 12 266.57 16.52
-2 2 12 303.3 18.11
-2 -12 -2 289.42 16.72
2 -12 -2 269.56 15.86
-2 -12 2 325.56 17.6
2 -12 2 319.07 17.42
12 2 2 288.3 17.56
-2 2 -12 288.89 17.08
2 -2 -12 261.05 15.39
-2 12 2 304.94 17.02
2 12 2 259.34 14.63
12 -2 2 316.46 18.09
-12 -2 -2 291.88 15.86
-12 2 -2 289.63 16.52
-2 12 -2 296.32 16.98
2 2 -12 305.19 17.81
-4 0 12 1033.55 36.13
0 4 12 1051.89 35.75
0 -12 -4 1032.77 34.33
-4 -12 0 949.36 32.85
12 4 0 1026.27 35.04
4 -12 0 1037.04 33.62
0 -12 4 1039.83 34.33
0 12 4 1076.07 34.06
12 0 4 1057.61 36.74
0 4 -12 1030.91 35.91
4 0 -12 1032.77 35.33
-4 12 0 1048.3 34.38
-12 4 0 1045.27 33.66
-12 0 -4 978.44 33.46
-4 0 -12 1025.43 33.78
4 2 12 105.9 10.1
-4 2 12 106.23 10.91
2 4 12 89.16 9.55
-2 -12 -4 99.92 10.14
-2 4 12 108.44 11.03
-4 -12 -2 121.25 10.9
2 -12 -4 89.9 9.2
-4 -12 2 102.04 9.78
4 -12 -2 112.19 10.09
-4 2 -12 126.94 11.21
-2 -12 4 107.51 10.08
12 4 2 93.35 10.14
4 2 -12 109.43 10.86
4 -12 2 106.46 10.28
2 -12 4 114.09 10.73
-2 4 -12 117.89 11.42
12 2 4 102.2 10.74
2 -4 12 107.44 10.43
-2 12 4 97.89 9.76
2 12 4 96.04 8.94
-4 12 2 99.41 10.06
-12 4 2 116.06 10.37
12 -2 4 114.54 11.19
-12 -4 -2 101.85 9.26
-12 4 -2 109.77 10.49
-12 -2 -4 92.39 9.28
-4 12 -2 120.71 11.05
-12 2 -4 108.37 10.32
2 4 -12 119.41 11.32
-4 2 -12 110.34 10.52
-4 -2 -12 101.26 9.62
4 4 12 780.1 28.83
4 -12 -4 767.15 28.46
-4 -12 4 787.94 29.01
-12 -4 -4 773.57 28.17
-6 -12 0 70.53 8.51
6 -12 0 79.47 8.97
-12 6 0 72.38 8.43
2 -12 -6 212.76 14.85
2 6 12 205.74 14.88
-6 -12 2 212.94 14.26
2 12 6 196.56 13.4
-12 6 2 208.75 14.03
-6 -2 -12 191.36 13.81
1 1 -13 90.28 9.79
1 1 13 107.08 11.14
1 -1 -13 86.67 9.13
13 1 1 86.92 9.88
13 -1 1 104.46 10.85
-1 13 1 103.05 9.87
1 13 1 85.72 8.97
-1 13 -1 93.94 9.61
1 13 -1 101.6 9.85
-1 1 -13 91.03 9.66
13 -3 1 63.52 8.65
3 1 13 62.79 8.53
3 -1 -13 56.32 7.79
1 13 3 53.28 7.13
