#------------------------------------------------------------------------------
#$Date: 2019-11-24 04:26:39 +0200 (Sun, 24 Nov 2019) $
#$Revision: 236695 $
#$URL: file:///home/coder/svn-repositories/cod/cif/7/23/69/7236990.cif $
#------------------------------------------------------------------------------
#
# This file is available in the Crystallography Open Database (COD),
# http://www.crystallography.net/
#
# All data on this site have been placed in the public domain by the
# contributors.
#
data_7236990
loop_
_publ_author_name
'Wei, Fengxia'
'Brivio, Federico'
'Wu, Yue'
'Sun, Shijing'
'Bristowe, Paul D.'
'Cheetham, Anthony K.'
_publ_section_title
;
 Synthesis, crystal structure, magnetic and electronic properties of the
 caesium-based transition metal halide Cs3Fe2Br9
;
_journal_issue                   14
_journal_name_full               'Journal of Materials Chemistry C'
_journal_page_first              3573
_journal_paper_doi               10.1039/C7TC04798C
_journal_volume                  6
_journal_year                    2018
_chemical_formula_moiety         '0.25(Br16 Cs4 Fe4)'
_chemical_formula_sum            'Br4 Cs Fe'
_chemical_formula_weight         508.40
_space_group_crystal_system      orthorhombic
_space_group_IT_number           62
_space_group_name_Hall           '-P 2ac 2n'
_space_group_name_H-M_alt        'P n m a'
_atom_sites_solution_primary     dual
_audit_creation_date             2017-06-01
_audit_creation_method
;
Olex2 1.2
(compiled 2017.03.28 svn.r3405 for OlexSys, GUI svn.r5337)
;
_audit_update_record
;
2017-09-16 deposited with the CCDC.
2017-11-13 downloaded from the CCDC.
;
_cell_angle_alpha                90
_cell_angle_beta                 90
_cell_angle_gamma                90
_cell_formula_units_Z            4
_cell_length_a                   12.0861(5)
_cell_length_b                   7.4271(3)
_cell_length_c                   9.8187(4)
_cell_measurement_reflns_used    746
_cell_measurement_temperature    299.0(6)
_cell_measurement_theta_max      24.5490
_cell_measurement_theta_min      3.4340
_cell_volume                     881.37(6)
_computing_cell_refinement
;
CrysAlisPro, Agilent Technologies,
Version 1.171.37.34i (release 04-08-2014 CrysAlis171 .NET)
(compiled Aug  4 2014,14:34:23)
;
_computing_data_collection
;
CrysAlisPro, Agilent Technologies,
Version 1.171.37.34i (release 04-08-2014 CrysAlis171 .NET)
(compiled Aug  4 2014,14:34:23)
;
_computing_data_reduction
;
CrysAlisPro, Agilent Technologies,
Version 1.171.37.34i (release 04-08-2014 CrysAlis171 .NET)
(compiled Aug  4 2014,14:34:23)
;
_computing_molecular_graphics    'Olex2 (Dolomanov et al., 2009)'
_computing_publication_material  'Olex2 (Dolomanov et al., 2009)'
_computing_structure_refinement  'ShelXL (Sheldrick, 2015)'
_computing_structure_solution    'ShelXT (Sheldrick, 2015)'
_diffrn_ambient_environment      air
_diffrn_ambient_temperature      299.0(6)
_diffrn_detector                 'CCD plate'
_diffrn_detector_area_resol_mean 16.1183
_diffrn_detector_type            Eos
_diffrn_measured_fraction_theta_full 1.000
_diffrn_measured_fraction_theta_max 0.897
_diffrn_measurement_details
;
#__ type_ start__ end____ width___ exp.time_
  1 omega -100.00  -60.00   1.0000   41.9750
omega____ theta____ kappa____ phi______ frames
    -      -27.2013 -178.0000 -180.0000 40

#__ type_ start__ end____ width___ exp.time_
  2 omega -101.00   23.00   1.0000   41.9750
omega____ theta____ kappa____ phi______ frames
    -      -27.2013  -19.0000   90.0000 124
;
_diffrn_measurement_device       'four-circle diffractometer'
_diffrn_measurement_device_type  'Xcalibur, Eos, Gemini ultra'
_diffrn_measurement_method       '\w scans'
_diffrn_orient_matrix_UB_11      0.0483227000
_diffrn_orient_matrix_UB_12      -0.0001001000
_diffrn_orient_matrix_UB_13      -0.0409648000
_diffrn_orient_matrix_UB_21      0.0126212000
_diffrn_orient_matrix_UB_22      -0.0883186000
_diffrn_orient_matrix_UB_23      0.0226441000
_diffrn_orient_matrix_UB_31      -0.0307973000
_diffrn_orient_matrix_UB_32      -0.0364220000
_diffrn_orient_matrix_UB_33      -0.0550105000
_diffrn_radiation_monochromator  graphite
_diffrn_radiation_probe          x-ray
_diffrn_radiation_type           MoK\a
_diffrn_radiation_wavelength     0.71073
_diffrn_reflns_av_R_equivalents  0.0213
_diffrn_reflns_av_unetI/netI     0.0289
_diffrn_reflns_Laue_measured_fraction_full 1.000
_diffrn_reflns_Laue_measured_fraction_max 0.897
_diffrn_reflns_limit_h_max       15
_diffrn_reflns_limit_h_min       -12
_diffrn_reflns_limit_k_max       9
_diffrn_reflns_limit_k_min       -6
_diffrn_reflns_limit_l_max       4
_diffrn_reflns_limit_l_min       -13
_diffrn_reflns_number            2107
_diffrn_reflns_point_group_measured_fraction_full 1.000
_diffrn_reflns_point_group_measured_fraction_max 0.897
_diffrn_reflns_theta_full        25.242
_diffrn_reflns_theta_max         28.225
_diffrn_reflns_theta_min         2.673
_diffrn_source                   'Enhance (Mo) X-ray Source'
_exptl_absorpt_coefficient_mu    23.813
_exptl_absorpt_correction_T_max  0.152
_exptl_absorpt_correction_T_min  0.016
_exptl_absorpt_correction_type   analytical
_exptl_absorpt_process_details
;
CrysAlisPro, Agilent Technologies,
Version 1.171.37.34i (release 04-08-2014 CrysAlis171 .NET)
(compiled Aug  4 2014,14:34:23)
Analytical numeric absorption correction using a multifaceted crystal
			model based on expressions derived by R.C. Clark & J.S. Reid.
(Clark, R. C. & Reid, J. S. (1995). Acta Cryst. A51, 887-897)
Empirical absorption correction using spherical harmonics,
 implemented in SCALE3 ABSPACK scaling algorithm.
;
_exptl_crystal_colour            'reddish brown'
_exptl_crystal_colour_modifier   reddish
_exptl_crystal_colour_primary    brown
_exptl_crystal_density_diffrn    3.831
_exptl_crystal_description       needle
_exptl_crystal_F_000             884
_exptl_crystal_size_max          0.2942
_exptl_crystal_size_mid          0.1158
_exptl_crystal_size_min          0.0905
_refine_diff_density_max         2.232
_refine_diff_density_min         -1.960
_refine_diff_density_rms         0.273
_refine_ls_extinction_coef       0.0017(10)
_refine_ls_extinction_expression Fc^*^=kFc[1+0.001xFc^2^\l^3^/sin(2\q)]^-1/4^
_refine_ls_extinction_method     'SHELXL-2014/7 (Sheldrick 2014'
_refine_ls_goodness_of_fit_ref   1.080
_refine_ls_hydrogen_treatment    undef
_refine_ls_matrix_type           full
_refine_ls_number_parameters     35
_refine_ls_number_reflns         1049
_refine_ls_number_restraints     0
_refine_ls_restrained_S_all      1.080
_refine_ls_R_factor_all          0.0933
_refine_ls_R_factor_gt           0.0679
_refine_ls_shift/su_max          0.000
_refine_ls_shift/su_mean         0.000
_refine_ls_structure_factor_coef Fsqd
_refine_ls_weighting_details
'w=1/[\s^2^(Fo^2^)+(0.1142P)^2^+8.8431P] where P=(Fo^2^+2Fc^2^)/3'
_refine_ls_weighting_scheme      calc
_refine_ls_wR_factor_gt          0.2006
_refine_ls_wR_factor_ref         0.2255
_reflns_Friedel_coverage         0.000
_reflns_number_gt                712
_reflns_number_total             1049
_reflns_threshold_expression     'I > 2\s(I)'
_iucr_refine_instructions_details
;

    fw120_brown_abs.res created by SHELXL-2014/7

TITL fw120_brown_abs_a.res in Pnma
REM Old TITL Fw120_brown_abs in Pnma #62
REM SHELXT solution in Pnma
REM R1 0.227, Rweak 0.248, Alpha 0.024, Orientation as input
REM Formula found by SHELXT: Br5 Cs
CELL 0.71073 12.0861 7.4271 9.8187 90 90 90
ZERR 4 0.0005 0.0003 0.0004 0 0 0
LATT 1
SYMM 0.5-X,-Y,0.5+Z
SYMM -X,0.5+Y,-Z
SYMM 0.5+X,0.5-Y,0.5-Z
SFAC Br Cs Fe
UNIT 16 4 4
 
L.S. 4
PLAN  20
BOND $H
list 4
fmap 2
ACTA
REM <olex2.extras>
REM <HklSrc "%.\\Fw120_brown_abs.hkl">
REM </olex2.extras>
 
WGHT    0.114200    8.843101
EXTI    0.001681
FVAR       0.28238
CS01  2    0.180157    0.250000    0.329125    10.50000    0.05166    0.09950 =
         0.08477    0.00000    0.00916    0.00000
FE02  3    0.570383    0.250000    0.694389    10.50000    0.04962    0.04681 =
         0.04508    0.00000   -0.00044    0.00000
BR03  1    0.582414    0.497766    0.833788    11.00000    0.08492    0.06784 =
         0.09739   -0.02315    0.01138   -0.00187
BR04  1    0.722667    0.250000    0.552892    10.50000    0.13982    0.10378 =
         0.09383    0.00000    0.06819    0.00000
BR05  1    0.403210    0.250000    0.583775    10.50000    0.11891    0.16596 =
         0.17928    0.00000   -0.09796    0.00000
HKLF 4
 
REM  fw120_brown_abs_a.res in Pnma
REM R1 =  0.0679 for     712 Fo > 4sig(Fo)  and  0.0933 for all    1049 data
REM     35 parameters refined using      0 restraints
 
END  
     
WGHT      0.1142      8.8434 

REM Highest difference peak  2.232,  deepest hole -1.960,  1-sigma level  0.273
Q1    1   0.4679  0.2500  0.5118  10.50000  0.05    2.23
Q2    1   0.1610  0.2500  0.2638  10.50000  0.05    2.05
Q3    1   0.1745  0.1828  0.3415  11.00000  0.05    1.29
Q4    1   0.5894  0.2500  0.7207  10.50000  0.05    0.96
Q5    1   0.5937  0.2500  0.6366  10.50000  0.05    0.83
Q6    1   0.3929  0.2028  0.5966  11.00000  0.05    0.79
Q7    1   0.8181  0.2500  0.6512  10.50000  0.05    0.66
Q8    1   0.6829  0.1787  0.5242  11.00000  0.05    0.65
Q9    1   0.3102  0.2500  0.4648  10.50000  0.05    0.61
Q10   1   0.9108  0.2500  0.6418  10.50000  0.05    0.57
Q11   1   0.5554  0.5649  0.7332  11.00000  0.05    0.57
Q12   1   0.5996  0.7500  0.9579  10.50000  0.05    0.54
Q13   1   0.5677  0.1765  0.7944  11.00000  0.05    0.52
Q14   1   0.2803  0.2500  0.2139  10.50000  0.05    0.51
Q15   1   0.5473  0.7500  0.8728  10.50000  0.05    0.50
Q16   1   0.0731  0.2035  0.4088  11.00000  0.05    0.50
Q17   1   0.4476  0.2500  0.3371  10.50000  0.05    0.48
Q18   1   0.5750  0.6298  0.9346  11.00000  0.05    0.48
Q19   1   0.7400  0.2500  0.7157  10.50000  0.05    0.46
Q20   1   0.7795  0.2500  0.4408  10.50000  0.05    0.46

  REM The information below was added by Olex2.
  REM
  REM R1 = 0.0679 for 712 Fo > 4sig(Fo) and 0.0933 for all 2258 data
  REM n/a parameters refined using n/a restraints
  REM Highest difference peak 2.23, deepest hole -1.96
  REM Mean Shift 0, Max Shift 0.000.

  REM +++ Tabular Listing of Refinement Information +++
  REM R1_all = 0.0933
  REM R1_gt = 0.0679
  REM wR_ref = 0.2255
  REM GOOF = 1.080
  REM Shift_max = 0.000
  REM Shift_mean = 0
  REM Reflections_all = 2258
  REM Reflections_gt = 712
  REM Parameters = n/a
  REM Hole = -1.96
  REM Peak = 2.23
  REM Flack = n/a

  
;
_cod_data_source_file            c7tc04798c2.cif
_cod_data_source_block           fw120_brown_abs
_cod_database_code               7236990
_shelx_shelxl_version_number     2014/7
_chemical_oxdiff_formula         'Cs Fe Br4'
_shelx_space_group_comment
;
The symmetry employed for this shelxl refinement is uniquely defined
by the following loop, which should always be used as a source of
symmetry information in preference to the above space-group names.
They are only intended as comments.
;
_reflns_odcompleteness_completeness 100.00
_reflns_odcompleteness_iscentric 1
_reflns_odcompleteness_theta     26.32
_olex2_refinement_description
;
;
_olex2_submission_special_instructions 'No special instructions were received'
loop_
_space_group_symop_operation_xyz
'x, y, z'
'-x+1/2, -y, z+1/2'
'-x, y+1/2, -z'
'x+1/2, -y+1/2, -z+1/2'
'-x, -y, -z'
'x-1/2, y, -z-1/2'
'x, -y-1/2, z'
'-x-1/2, y-1/2, z-1/2'
loop_
_atom_site_label
_atom_site_type_symbol
_atom_site_fract_x
_atom_site_fract_y
_atom_site_fract_z
_atom_site_U_iso_or_equiv
_atom_site_adp_type
_atom_site_occupancy
_atom_site_site_symmetry_order
_atom_site_calc_flag
_atom_site_refinement_flags_posn
_atom_site_refinement_flags_adp
_atom_site_refinement_flags_occupancy
Cs01 Cs 0.18016(11) 0.2500 0.32913(16) 0.0786(7) Uani 1 2 d S T P
Fe02 Fe 0.5704(2) 0.2500 0.6944(2) 0.0472(7) Uani 1 2 d S T P
Br03 Br 0.58241(16) 0.4978(2) 0.83379(19) 0.0834(7) Uani 1 1 d . . .
Br04 Br 0.7227(3) 0.2500 0.5529(3) 0.1125(13) Uani 1 2 d S T P
Br05 Br 0.4032(4) 0.2500 0.5838(5) 0.1547(19) Uani 1 2 d S T P
loop_
_atom_site_aniso_label
_atom_site_aniso_U_11
_atom_site_aniso_U_22
_atom_site_aniso_U_33
_atom_site_aniso_U_23
_atom_site_aniso_U_13
_atom_site_aniso_U_12
Cs01 0.0517(8) 0.0995(12) 0.0848(11) 0.000 0.0092(6) 0.000
Fe02 0.0496(14) 0.0468(13) 0.0451(13) 0.000 -0.0004(10) 0.000
Br03 0.0849(12) 0.0678(11) 0.0974(13) -0.0231(9) 0.0114(9) -0.0019(9)
Br04 0.140(3) 0.104(2) 0.094(2) 0.000 0.068(2) 0.000
Br05 0.119(3) 0.166(4) 0.179(4) 0.000 -0.098(3) 0.000
loop_
_atom_type_symbol
_atom_type_description
_atom_type_scat_dispersion_real
_atom_type_scat_dispersion_imag
_atom_type_scat_source
Br Br -0.2901 2.4595 'International Tables Vol C Tables 4.2.6.8 and 6.1.1.4'
Cs Cs -0.3680 2.1192 'International Tables Vol C Tables 4.2.6.8 and 6.1.1.4'
Fe Fe 0.3463 0.8444 'International Tables Vol C Tables 4.2.6.8 and 6.1.1.4'
loop_
_exptl_crystal_face_index_h
_exptl_crystal_face_index_k
_exptl_crystal_face_index_l
_exptl_crystal_face_perp_dist
_exptl_oxdiff_crystal_face_indexfrac_h
_exptl_oxdiff_crystal_face_indexfrac_k
_exptl_oxdiff_crystal_face_indexfrac_l
_exptl_oxdiff_crystal_face_x
_exptl_oxdiff_crystal_face_y
_exptl_oxdiff_crystal_face_z
1 0 1 0.0689 0.9994 -0.0001 1.0005 0.0073 0.0353 -0.0858
-1 0 -1 0.0469 -0.9994 0.0001 -1.0005 -0.0073 -0.0353 0.0858
-3 -5 -4 0.0720 -2.9981 -4.9998 -4.0017 0.0196 0.3131 0.4946
0 5 2 0.1393 -0.0005 4.9999 2.0004 -0.0825 -0.3963 -0.2921
-5 0 4 0.0422 -5.0000 0.0001 3.9995 -0.4055 0.0275 -0.0660
5 0 -4 0.0482 5.0000 -0.0001 -3.9995 0.4055 -0.0275 0.0660
-5 -1 1 0.0521 -4.9991 -0.9998 0.9988 -0.2824 0.0478 0.1354
-3 5 -3 0.1312 -2.9981 5.0002 -3.0017 -0.0224 -0.5474 0.0753
loop_
_geom_angle_atom_site_label_1
_geom_angle_atom_site_label_2
_geom_angle_atom_site_label_3
_geom_angle
_geom_angle_site_symmetry_1
_geom_angle_site_symmetry_3
Br03 Cs01 Br03 61.10(6) 8_655 2_564
Br03 Cs01 Br03 155.56(5) 2_564 3_646
Br03 Cs01 Br03 88.22(4) 8_655 6_557
Br03 Cs01 Br03 143.96(6) 3_646 6_557
Br03 Cs01 Br03 59.39(5) 5_666 3_646
Br03 Cs01 Br03 55.28(5) 6_557 4_456
Br03 Cs01 Br03 155.56(5) 8_655 5_666
Br03 Cs01 Br03 110.43(3) 5_666 6_557
Br03 Cs01 Br03 88.22(4) 2_564 4_456
Br03 Cs01 Br03 143.96(6) 5_666 4_456
Br03 Cs01 Br03 114.01(4) 2_564 5_666
Br03 Cs01 Br03 110.43(3) 3_646 4_456
Br03 Cs01 Br03 59.83(5) 2_564 6_557
Br03 Cs01 Br03 114.01(4) 8_655 3_646
Br03 Cs01 Br03 59.83(5) 8_655 4_456
Br03 Cs01 Br04 135.22(6) 8_655 5_666
Br03 Cs01 Br04 58.53(5) 5_666 6_556
Br03 Cs01 Br04 58.53(5) 3_646 6_556
Br03 Cs01 Br04 110.73(6) 3_646 5_666
Br03 Cs01 Br04 54.85(4) 4_456 5_656
Br03 Cs01 Br04 56.54(4) 3_646 5_656
Br03 Cs01 Br04 97.42(6) 8_655 6_556
Br03 Cs01 Br04 77.34(6) 2_564 5_666
Br03 Cs01 Br04 105.79(5) 6_557 5_656
Br03 Cs01 Br04 97.42(6) 2_564 6_556
Br03 Cs01 Br04 54.85(4) 6_557 5_666
Br03 Cs01 Br04 56.54(4) 5_666 5_666
Br03 Cs01 Br04 77.34(6) 8_655 5_656
Br03 Cs01 Br04 135.22(6) 2_564 5_656
Br03 Cs01 Br04 110.73(6) 5_666 5_656
Br03 Cs01 Br04 105.79(5) 4_456 5_666
Br04 Cs01 Br03 150.12(4) 6_556 4_456
Br04 Cs01 Br03 150.12(4) 6_556 6_557
Br04 Cs01 Br04 132.10(11) 5_666 5_656
Br04 Cs01 Br04 104.08(5) 6_556 5_656
Br04 Cs01 Br04 104.08(5) 6_556 5_666
Br05 Cs01 Br03 74.41(9) . 3_646
Br05 Cs01 Br03 69.57(9) . 6_557
Br05 Cs01 Br03 128.53(8) . 8_655
Br05 Cs01 Br03 69.57(9) . 4_456
Br05 Cs01 Br03 74.41(9) . 5_666
Br05 Cs01 Br03 128.53(8) . 2_564
Br05 Cs01 Br04 66.06(6) . 5_656
Br05 Cs01 Br04 66.06(6) . 5_666
Br05 Cs01 Br04 125.05(11) . 6_556
Br03 Fe02 Br03 106.41(14) 7_565 .
Br03 Fe02 Br04 107.96(10) 7_565 .
Br03 Fe02 Br04 107.96(10) . .
Br05 Fe02 Br03 109.74(11) . .
Br05 Fe02 Br03 109.74(12) . 7_565
Br05 Fe02 Br04 114.7(2) . .
Cs01 Br03 Cs01 120.17(5) 2_565 6_657
Cs01 Br03 Cs01 110.90(5) 5_666 6_657
Cs01 Br03 Cs01 113.35(5) 2_565 5_666
Fe02 Br03 Cs01 101.11(8) . 5_666
Fe02 Br03 Cs01 110.19(9) . 2_565
Fe02 Br03 Cs01 98.30(7) . 6_657
Cs01 Br04 Cs01 132.10(11) 5_666 5_656
Cs01 Br04 Cs01 108.76(4) 6_656 5_656
Cs01 Br04 Cs01 108.76(4) 6_656 5_666
Fe02 Br04 Cs01 93.38(5) . 5_656
Fe02 Br04 Cs01 93.38(5) . 5_666
Fe02 Br04 Cs01 119.25(16) . 6_656
Fe02 Br05 Cs01 165.4(2) . .
loop_
_geom_bond_atom_site_label_1
_geom_bond_atom_site_label_2
_geom_bond_distance
_geom_bond_site_symmetry_2
Cs01 Br03 3.685(2) 8_655
Cs01 Br03 3.782(2) 5_666
Cs01 Br03 3.967(2) 4_456
Cs01 Br03 3.782(2) 3_646
Cs01 Br03 3.685(2) 2_564
Cs01 Br03 3.967(2) 6_557
Cs01 Br04 3.786(3) 6_556
Cs01 Br04 4.0635(18) 5_666
Cs01 Br04 4.0635(18) 5_656
Cs01 Br05 3.677(3) .
Fe02 Br03 2.298(2) 7_565
Fe02 Br03 2.298(2) .
Fe02 Br04 2.306(4) .
Fe02 Br05 2.294(4) .
Br03 Cs01 3.967(2) 6_657
Br03 Cs01 3.782(2) 5_666
Br03 Cs01 3.685(2) 2_565
Br04 Cs01 3.786(3) 6_656
Br04 Cs01 4.0635(18) 5_656
Br04 Cs01 4.0635(18) 5_666
loop_
_refln_index_h
_refln_index_k
_refln_index_l
_refln_F_squared_meas
_refln_F_squared_sigma
1 0 0 1.37 0.57
2 0 0 24.92 2.17
-3 0 0 12.23 2.33
3 0 0 5.24 1.83
4 0 0 1440.59 24.41
-4 0 0 1484.66 21.5
5 0 0 1.97 2.36
-5 0 0 1.19 1.22
6 0 0 1524.98 29.65
-6 0 0 1521.01 21.64
-7 0 0 -0.54 0.95
7 0 0 1.66 2.4
8 0 0 2565.49 46.39
9 0 0 6.03 3.81
10 0 0 235.39 13.44
11 0 0 0.03 2.74
12 0 0 263.77 13.97
13 0 0 -1.99 2.33
14 0 0 9.11 3.4
15 0 0 2.8 3.28
0 0 -1 24.86 3.62
-1 0 -1 9.24 3.4
1 0 -1 7.95 1.61
-2 0 -1 234.03 10.1
2 0 -1 218.76 7.02
-3 0 -1 63.84 5.1
3 0 -1 68.89 4.68
4 0 -1 7296.66 84.21
-4 0 -1 7282.06 85.64
5 0 -1 30.91 4.03
5 0 1 25.54 3.44
-5 0 -1 23.43 3.34
6 0 1 18.52 3.27
-6 0 -1 16.33 2.69
6 0 -1 13.51 3.1
7 0 1 46.09 5.29
-7 0 -1 45.62 4.11
7 0 -1 45.37 5.61
-8 0 -1 832.96 17.75
8 0 1 807.22 23.25
8 0 -1 823.71 23.58
9 0 -1 192.81 11.58
9 0 1 206.3 11.51
10 0 1 3.39 2.77
10 0 -1 10.42 3.54
11 0 -1 116.71 9.35
11 0 1 101.45 8.43
12 0 1 233.67 12.75
12 0 -1 257.51 13.86
13 0 -1 0.84 3.15
13 0 1 -2.19 2.86
14 0 -1 10.89 3.62
14 0 1 16.73 3.97
15 0 -1 0.3 2.39
15 0 1 5.05 3.05
0 0 -2 1691.72 18.45
0 0 -2 1837.44 33.04
-1 0 -2 693.2 19.06
1 0 -2 715.2 11.41
1 0 -2 719.48 14.91
-1 0 -2 722.59 7.88
-2 0 -2 493.48 16.9
2 0 -2 511.65 11.6
2 0 -2 481.76 9.28
-3 0 -2 5064.1 69.94
3 0 -2 4961.88 59.84
-4 0 -2 613.53 18.55
4 0 -2 590.54 15.53
5 0 -2 258.72 10.84
-5 0 -2 283.91 11.62
6 0 -2 2.07 2.72
6 0 2 0.7 1.74
-6 0 -2 0.97 1.92
7 0 -2 1698.12 33.92
-7 0 -2 1691.61 30.88
7 0 2 1726.43 31.14
8 0 2 574.11 17.43
-8 0 -2 579.98 16.16
8 0 -2 586.15 19.19
9 0 -2 9.22 3.1
9 0 2 10.18 2.78
-9 0 -2 8.62 2.3
10 0 -2 2.88 2.44
10 0 2 0.17 2.17
11 0 -2 8.24 3.17
11 0 2 12.54 3.45
12 0 -2 86.61 8.18
12 0 2 85.46 7.26
13 0 2 -2.41 2.48
13 0 -2 -2.97 3.26
14 0 -2 -0.98 2.68
14 0 2 1.93 2.66
15 0 -2 42.09 6.52
15 0 2 31.88 5.09
0 0 -3 2.11 0.56
0 0 -3 10.37 3.39
1 0 -3 2541.48 29.61
1 0 -3 2570.33 38.01
-1 0 -3 2502.83 44.01
-1 0 -3 2594.33 25.59
2 0 -3 394.84 10.35
-2 0 -3 369.54 15.59
-3 0 -3 2134.61 42.35
3 0 -3 2180.43 31.8
3 0 -3 2163.05 27.27
-4 0 -3 1154.32 29.36
4 0 -3 1127.49 21.99
5 0 -3 331.29 11.66
-5 0 -3 361.73 14.61
-6 0 -3 60.73 5.95
6 0 -3 67.5 5.67
7 0 3 472.6 13.65
7 0 -3 460.64 15.57
-7 0 -3 495.79 16.35
-8 0 -3 32.22 4.28
8 0 -3 35.57 4.73
8 0 3 35.7 4
-9 0 -3 99.02 6.96
9 0 3 93.22 6.69
9 0 -3 110.73 8.2
10 0 3 34.86 4.49
10 0 -3 37.13 5.4
11 0 -3 356.87 15.56
11 0 3 362.64 14.72
12 0 3 1.06 2.22
12 0 -3 -1.25 2.45
13 0 -3 0.32 2.95
14 0 -3 -2.33 3.4
0 0 -4 1080.99 13.35
0 0 -4 1053.75 25.01
1 0 -4 103.08 6.8
-1 0 -4 101.99 2.34
1 0 -4 99.4 3.68
2 0 -4 0.38 1.85
2 0 -4 0.51 1.24
-3 0 -4 67.28 6.86
3 0 -4 75.38 4.39
3 0 -4 73.24 4.89
4 0 -4 311.67 10.41
-4 0 -4 332.74 15.24
5 0 -4 505.59 14.18
-5 0 -4 488.73 19.03
-6 0 -4 70.46 6.95
6 0 -4 73.65 5.6
7 0 -4 678.94 18.66
7 0 4 684.57 15.89
-7 0 -4 683.83 21.29
8 0 -4 -0.88 2.17
-8 0 -4 -2.76 2.68
8 0 4 0.86 1.45
-9 0 -4 81.75 6.86
9 0 -4 79.09 6.91
9 0 4 79.54 5.89
-10 0 -4 62.48 6.04
10 0 -4 61.06 6.31
11 0 -4 4.56 2.83
12 0 -4 24.99 4.74
13 0 -4 16.97 4.01
14 0 -4 21.21 4.46
0 0 -5 1.34 0.55
0 0 -5 1.16 2.42
-1 0 -5 165.2 3.47
1 0 -5 162.32 4.93
-1 0 -5 160.05 9.68
-2 0 -5 50.22 6.06
2 0 -5 46.41 3.15
2 0 -5 51.08 4.67
3 0 -5 455.17 12.43
-3 0 -5 418.17 16.76
3 0 -5 425.92 11.88
4 0 -5 3046.67 38.66
-4 0 -5 3011.41 53.19
4 0 -5 3046.67 42.01
5 0 -5 2.99 1.78
-5 0 -5 7.99 3.82
6 0 -5 199.58 9.12
-6 0 -5 218.69 12.81
-7 0 -5 1.25 2.89
7 0 -5 12.67 2.77
8 0 -5 121.97 7.75
-8 0 -5 112.25 8.81
9 0 -5 4.7 2.63
-9 0 -5 8.77 3.34
10 0 -5 34.26 4.73
-10 0 -5 37.22 5.25
11 0 -5 69.13 6.72
12 0 -5 19.36 4.1
13 0 -5 7.3 3.46
0 0 -6 1726.99 34.15
0 0 -6 1717.27 20.43
-1 0 -6 476.64 7.17
-1 0 -6 452.96 16.64
1 0 -6 472.89 9.17
-2 0 -6 31.15 5.32
2 0 -6 27.48 3.74
2 0 -6 28.84 2.52
3 0 -6 3.23 1.6
-3 0 -6 4.26 3.26
3 0 -6 2.01 1.59
4 0 -6 210.68 8.52
4 0 -6 202.2 7.74
-4 0 -6 218.33 12.64
-5 0 -6 1.84 2.69
5 0 -6 3.53 1.5
-6 0 -6 32.82 6.31
6 0 -6 29.86 3.74
7 0 -6 1.96 1.9
-7 0 -6 7 3.76
-8 0 -6 664.71 22.67
8 0 -6 630.71 18.01
-9 0 -6 10.12 3.51
9 0 -6 18.68 3.83
10 0 -6 25.02 4.49
-10 0 -6 19.66 4.2
11 0 -6 1.09 2.33
-11 0 -6 -2.22 2.51
12 0 -6 31.19 5.14
13 0 -6 -0.95 2.99
0 0 -7 3.23 2.78
1 0 -7 400.68 14.92
1 0 -7 394.56 8.49
-1 0 -7 395.53 15.9
2 0 -7 223.56 10.26
-2 0 -7 198.38 11.62
2 0 -7 211.93 6.88
3 0 -7 22.56 3.15
3 0 -7 25.46 2.84
-3 0 -7 25.82 4.88
-4 0 -7 600.88 21.07
4 0 -7 602.98 15.2
4 0 -7 607.95 15.15
-5 0 -7 64.41 7.36
5 0 -7 61.1 4.71
-6 0 -7 -1.62 3.4
6 0 -7 3.03 1.98
-7 0 -7 263.38 15.02
7 0 -7 255.38 10.59
-8 0 -7 278.53 15.28
8 0 -7 279.17 11.57
-9 0 -7 -0.71 3.07
9 0 -7 0.37 2.19
10 0 -7 7.11 2.78
-10 0 -7 7.96 3.54
-11 0 -7 30.18 5.18
11 0 -7 27.42 4.45
12 0 -7 15.9 3.99
0 0 -8 772.1 22.35
1 0 -8 39.4 4.91
-1 0 -8 38.28 5.28
2 0 -8 4.55 3.11
-2 0 -8 6.48 3.21
-3 0 -8 252.54 13.42
3 0 -8 264.96 10.88
4 0 -8 2.59 1.63
-4 0 -8 3.72 3.07
5 0 -8 143.17 7.3
-5 0 -8 144.01 10.59
-6 0 -8 96.33 8.99
6 0 -8 87.74 6.03
-7 0 -8 84.43 8.71
7 0 -8 89.65 6.2
-8 0 -8 80.39 8.67
8 0 -8 85.98 6.63
-9 0 -8 1.51 3.46
9 0 -8 -1.54 2.54
-10 0 -8 -0.26 3.23
10 0 -8 3.82 2.33
-11 0 -8 41.77 6.53
11 0 -8 35.94 4.89
12 0 -8 27.34 4.69
-12 0 -8 26.46 5.35
0 0 -9 4.86 2.93
1 0 -9 132.87 8.88
-1 0 -9 120.53 8.83
-2 0 -9 1.53 2.65
2 0 -9 1.98 2.48
-3 0 -9 41.28 5.74
3 0 -9 44.64 4.99
-4 0 -9 65.9 7
-5 0 -9 12.82 3.8
-6 0 -9 9.34 4.04
-7 0 -9 -3.26 4.17
8 0 -9 -0.01 2.08
-8 0 -9 -1.3 2.92
-9 0 -9 16.32 4.66
9 0 -9 12.09 3.01
-10 0 -9 2.33 3.16
10 0 -9 4.5 2.44
11 0 -9 38.58 5.07
-11 0 -9 37.05 6.19
0 0 -10 16.44 3.69
1 0 -10 7.23 2.75
-1 0 -10 7.16 3.11
-2 0 -10 30.8 5.17
2 0 -10 34.56 5.02
-3 0 -10 31.08 5.1
-4 0 -10 0.97 2.33
-5 0 -10 -2.8 3.12
-6 0 -10 -3.04 2.91
-7 0 -10 6.47 3.73
-8 0 -10 6.74 3.41
-9 0 -10 13.22 3.82
0 0 -11 5.64 3.19
-1 0 -11 1.38 2.87
1 0 -11 -2.85 3.28
-2 0 -11 4.94 3.43
-3 0 -11 10.63 4
-4 0 -11 15.26 4.24
-5 0 -11 31.06 5.51
-6 0 -11 13.3 3.72
0 0 -12 5.81 2.64
-1 0 -12 -0.54 2.49
-2 0 -12 -0.21 2.74
-3 0 -12 19.91 4.37
0 1 0 12.04 0.81
1 1 0 10.83 0.95
2 1 0 2087.17 24.71
3 1 0 0.96 1.37
4 1 0 2967.49 42.02
5 1 0 1.1 2.26
6 1 0 1711.44 32.43
-7 1 0 -0.44 1.12
7 1 0 -2.63 2.71
8 -1 0 36.64 4.67
8 1 0 40.88 5.07
9 -1 0 0.05 2.65
9 1 0 1.22 2.66
10 -1 0 474.43 17.35
10 1 0 441.88 17.32
11 1 0 3.63 3.06
11 -1 0 -2.03 2.47
12 1 0 2.67 2.9
12 -1 0 1.8 3.17
13 -1 0 3 3.12
13 1 0 1.09 2.84
14 1 0 -0.16 2.25
14 -1 0 -0.32 2.79
15 1 0 -2.99 3.16
15 -1 0 -1.46 3.19
0 1 1 13.75 0.73
0 1 -1 14.31 1.02
-1 1 -1 26.82 1.32
1 1 1 29.41 1.09
1 1 -1 27.17 1.59
2 1 -1 1565.17 20.66
2 1 1 1577.18 18.57
3 1 -1 928.63 16.62
3 1 1 948.92 15.55
4 1 -1 0.36 2
4 1 1 1.66 1.85
5 1 1 486.09 15.7
5 1 -1 450.34 14.76
6 1 1 2400.31 40.53
6 1 -1 2427.74 39.78
7 1 1 71.72 6.32
-7 1 -1 67.79 5.04
7 -1 -1 73.11 5.89
7 1 -1 58.46 5.52
8 -1 -1 222.29 10.86
8 1 1 202.01 10.98
8 1 -1 201.57 10.66
-8 1 -1 209.97 9.15
9 1 -1 64.26 6.54
9 1 1 75.35 7.12
9 -1 -1 77.03 6.89
9 -1 1 66.13 5.87
10 -1 -1 11.45 3.95
10 1 -1 18.64 4.12
10 -1 1 17.31 3.52
10 1 1 13.96 4.07
11 -1 1 5.78 2.7
11 -1 -1 5.44 3.07
11 1 -1 -0.41 2.91
11 1 1 2.07 2.38
12 -1 1 11.79 3.75
12 1 -1 6.87 3.35
12 -1 -1 2.22 3.7
12 1 1 5.78 2.94
13 1 -1 35.7 5.65
13 -1 1 36.02 5.42
13 1 1 38.8 5.59
13 -1 -1 21.27 5.1
14 -1 1 48.44 6.13
14 -1 -1 56.44 6.95
14 1 1 64.24 6.69
14 1 -1 61.09 7.05
15 -1 1 9.27 3.75
15 -1 -1 12.89 4.09
15 1 -1 8.4 3.81
15 1 1 9.3 3.28
0 1 -2 0.92 0.58
-1 1 -2 2703.79 29.72
1 1 -2 2861.15 31.47
2 1 2 1404.58 15.59
2 1 -2 1414.34 19.82
3 1 -2 1863.03 27.45
3 1 2 1890.41 24.08
4 1 2 200.2 7.77
4 1 -2 206.36 8.55
5 -1 -2 93.74 5.81
5 1 2 95.45 6.82
5 1 -2 102.36 6.88
6 -1 -2 13.77 2.91
-6 1 -2 18.34 3.51
6 1 2 20.55 3.84
6 1 -2 16.9 3.37
7 1 2 284.52 12.74
7 -1 -2 318.32 12.28
-7 1 -2 290.29 12.09
7 1 -2 289.85 11.89
8 1 2 25.63 4.74
8 -1 -2 30.45 4.81
8 1 -2 23.46 3.89
-8 1 -2 20.78 3.45
9 1 -2 51.11 5.7
9 -1 -2 44.35 5.54
9 1 2 43.29 5.45
-9 1 -2 36.38 4.52
10 -1 -2 387.32 16.48
10 1 -2 354.68 14.68
10 1 2 306.4 13.67
10 -1 2 334.44 13.03
11 -1 2 148.98 9.11
11 -1 -2 167.02 11.4
11 1 2 145.26 9.29
11 1 -2 148.77 9.81
12 1 2 10.06 3.18
12 -1 2 2.63 2.4
12 1 -2 3.93 2.78
13 -1 -2 11.64 4.41
13 -1 2 5.74 3.04
13 1 -2 5.43 3.27
13 1 2 5.46 2.99
14 -1 2 4.03 3.06
14 1 2 -1.74 2.33
14 1 -2 3.54 3.57
15 -1 2 -0.2 2.69
15 1 -2 2.84 3.12
0 -1 -3 1588.8 18.92
0 1 -3 1572.48 19.05
1 1 -3 2064.34 24.82
1 -1 -3 2057.03 25.86
-1 1 -3 2076.17 23.06
-2 1 -3 368.11 6.47
2 1 -3 378 8.81
2 -1 -3 389.88 9.4
-2 -1 -3 385.76 13.47
-3 -1 -3 1236.83 25.82
3 1 -3 1189.25 20.28
3 1 3 1177.24 15.36
3 -1 -3 1190.04 20.67
4 1 3 1.11 1.28
-4 -1 -3 2.09 2.37
4 -1 -3 -1.6 1.6
-4 1 -3 -2.41 2.57
-5 1 -3 1232.22 28.62
5 -1 -3 1139.57 23.38
5 1 -3 1135.46 16.58
5 1 3 1236.43 24.69
5 1 -3 1178.61 24.72
-5 -1 -3 1115.95 24.76
-6 -1 -3 79.45 6.14
6 1 -3 69.04 5.74
-6 1 -3 82.37 7.71
6 -1 -3 71.53 5.81
6 1 3 83.73 7.24
-7 1 -3 446.2 16.97
7 1 3 438.95 15.63
7 -1 -3 467.79 15.88
7 1 -3 456.43 15.05
-8 1 -3 48.86 5.33
8 1 -3 46.25 5.19
8 -1 -3 61.09 6.37
8 1 3 48.67 5.21
9 1 -3 51.87 5.53
9 -1 -3 59.47 6.56
-9 1 -3 66.35 6.46
10 1 -3 19.57 4.15
10 -1 -3 14.01 4.26
10 1 3 19.11 3.63
10 -1 3 15.03 2.96
11 -1 -3 56.96 6.72
11 -1 3 47.16 5.23
11 1 -3 54.5 6.36
11 1 3 54.27 5.44
12 1 -3 3.48 2.74
12 -1 -3 -0.5 3.04
12 -1 3 1.69 2.48
13 -1 -3 43.79 5.93
13 1 -3 58.57 6.73
13 -1 3 43.88 5.42
14 -1 -3 10.07 3.77
14 -1 3 8.48 3.33
14 1 -3 6.21 3.17
0 1 -4 2.48 0.77
0 -1 -4 1.01 0.62
-1 -1 -4 269.47 11.81
-1 1 -4 258.86 5.39
-1 1 -4 267.32 10.62
1 -1 -4 252.89 6.85
1 1 -4 265.07 6.44
-2 -1 -4 21.1 4.82
-2 1 -4 16.9 1.31
2 -1 -4 14.74 2.25
-2 1 -4 16.33 3.54
2 1 -4 19.14 2.06
2 1 -4 15.11 2.51
3 -1 -4 276.47 9.46
3 1 -4 265.38 9.36
-3 -1 -4 262.26 13.28
-3 1 -4 246.7 11.81
3 1 -4 261.97 8.55
-4 1 -4 46.78 5.93
4 1 4 46.33 2.77
-4 -1 -4 50.2 5.99
4 1 -4 42.49 4.21
4 -1 -4 51.8 4.79
4 1 -4 43.98 3.63
-5 1 -4 127.25 9.84
5 1 -4 135.67 7.89
-5 -1 -4 145.59 9.81
5 1 -4 130.47 5.53
5 1 4 141.19 6.78
5 -1 -4 131.97 7.91
6 1 -4 69.45 5.69
-6 -1 -4 61.55 6.45
6 1 4 68.07 5.18
-6 1 -4 67.64 7.79
6 -1 -4 67.88 6.18
7 -1 -4 2.59 2.26
7 1 4 7.23 2.74
7 1 -4 -0.07 1.86
-7 -1 -4 0.02 2.63
-7 1 -4 3.11 3.05
8 -1 -4 57.69 6.14
-8 1 -4 49.87 6
8 1 -4 51.7 5.37
9 -1 -4 454.06 17.34
9 1 -4 466.34 16
-9 1 -4 448.04 17.54
10 -1 -4 49.62 6.24
-10 1 -4 47.97 5.72
10 -1 4 39.07 4.36
10 1 -4 40.04 5.04
11 -1 4 80.61 6.18
11 1 -4 85.02 7.36
11 -1 -4 89.28 8.07
12 -1 -4 3.56 3.06
12 1 -4 5.33 3.42
13 1 -4 2.91 2.8
13 -1 -4 3.08 2.88
14 -1 -4 -1.6 3.23
14 1 -4 -0.92 2.57
0 1 -5 1515.1 31.48
0 1 -5 1529.71 19.61
0 -1 -5 1553.26 29.93
0 -1 -5 1528.04 17.58
1 -1 -5 14.82 1.71
-1 1 -5 9.82 3.09
-1 -1 -5 9.42 3.28
1 1 -5 16.86 3.43
-1 1 -5 13.18 1.29
1 1 -5 13.01 1.59
-2 1 -5 703.2 21.33
-2 -1 -5 654.27 21.06
2 1 -5 692.8 13.31
2 1 -5 723.43 19.39
-2 1 -5 689.52 10.41
2 -1 -5 673.52 13.58
3 -1 -5 825.16 16.9
-3 -1 -5 885.26 27.09
-3 1 -5 896.01 25.5
3 1 -5 823.61 16.72
3 1 -5 843.37 20.46
4 -1 -5 43.85 3.94
4 1 -5 51.75 4.7
4 1 -5 50.25 4.3
-4 1 -5 48.1 6.53
-4 -1 -5 64.29 8.26
5 1 -5 127.72 5.97
5 -1 -5 126.19 7.18
-5 -1 -5 143.82 10.7
5 1 -5 126.92 7.61
-5 1 -5 134.4 10.39
6 -1 -5 30.69 4.02
6 1 -5 41.05 4.46
-6 -1 -5 39.2 5.79
-6 1 -5 37.46 6.2
-7 -1 -5 171.69 10.78
7 -1 -5 171.79 9.26
-7 1 -5 160.66 11.32
7 1 -5 170.55 9.04
-8 1 -5 168.7 11.65
8 -1 -5 160.37 9.5
-8 -1 -5 172.58 10.67
8 1 -5 170.3 9.23
9 1 -5 38.23 4.84
-9 1 -5 43.26 6.01
9 -1 -5 41.35 5.51
-10 1 -5 23.23 4.57
10 -1 -5 23.18 4.08
10 1 -5 28.4 4.76
11 -1 -5 0.83 2.24
11 1 -5 7.12 3.21
12 -1 -5 6.06 3.16
12 1 -5 7.08 2.98
13 -1 -5 5.39 3.09
13 1 -5 8.26 3.42
0 1 -6 2.13 0.88
0 -1 -6 2.56 2.02
0 1 -6 0.78 2.8
0 -1 -6 0.18 0.4
1 1 -6 296.64 7.47
-1 1 -6 296.47 14.04
-1 1 -6 286.83 6.3
-1 -1 -6 299.89 13.11
1 1 -6 299.56 13.24
1 -1 -6 284.02 6.84
2 1 -6 801.86 21.82
-2 1 -6 832.03 25.19
-2 1 -6 836.27 12.4
2 1 -6 827.34 15.21
-2 -1 -6 810.52 24.21
2 -1 -6 873.31 15.84
3 1 -6 20.05 3.6
-3 -1 -6 14.76 4.07
3 -1 -6 15.95 2.26
3 1 -6 14.76 2.22
-3 1 -6 15.42 4.28
4 1 -6 78.75 5.35
4 -1 -6 81.81 5.08
-4 -1 -6 73.86 7.94
-4 1 -6 80.18 8.14
4 1 -6 81.24 6.08
5 1 -6 23.38 3.51
-5 1 -6 10.25 3.79
5 -1 -6 14.08 2.64
-5 -1 -6 19.38 4.66
-6 1 -6 24.99 4.91
6 -1 -6 30.21 3.63
6 1 -6 36.42 4.21
-6 -1 -6 33.11 5.54
-7 -1 -6 264.18 14.08
7 -1 -6 271.84 11.4
7 1 -6 267.63 10.99
-7 1 -6 261.69 14.85
8 -1 -6 -0.35 2.01
-8 -1 -6 3.06 2.61
8 1 -6 0.01 2.15
-8 1 -6 2.84 3.01
9 1 -6 26.26 4.11
9 -1 -6 21.77 4.02
-9 1 -6 26.9 5.26
10 1 -6 164.39 9.68
-10 1 -6 143.77 10.8
10 -1 -6 151.82 9.65
-11 1 -6 -3.47 3.13
11 -1 -6 -2.54 3.02
11 1 -6 2.4 2.72
12 1 -6 52.73 6.2
12 -1 -6 48.64 6.15
13 -1 -6 25.94 4.83
13 1 -6 21.86 4.13
0 -1 -7 6.07 3.01
0 1 -7 3.49 1.06
-1 1 -7 159.72 10.36
-1 -1 -7 153.1 9.85
1 1 -7 147.5 9.7
1 1 -7 159.24 5.51
-1 1 -7 151.61 4.57
2 -1 -7 86.27 4.4
2 1 -7 85.47 4.53
-2 -1 -7 83 7.62
-2 1 -7 80.66 7.75
2 1 -7 86.08 7.18
3 -1 -7 17.59 2.39
-3 -1 -7 15.87 4.14
3 1 -7 23.94 3.96
3 1 -7 19.75 2.51
4 -1 -7 55.1 4.08
-4 -1 -7 50.95 6.52
4 1 -7 54.57 4.54
4 1 -7 65.77 5.83
-4 1 -7 61.9 7.2
5 1 -7 66.62 5.51
5 -1 -7 63.48 4.72
-5 -1 -7 65.98 7.64
-5 1 -7 61.08 7.4
6 1 -7 184.8 9.03
-6 -1 -7 169.48 12.39
-6 1 -7 149.53 11.16
6 -1 -7 164.96 8.21
-7 -1 -7 5.18 3.26
-7 1 -7 3.84 3.44
7 -1 -7 3.95 2.26
7 1 -7 0.87 1.91
-8 -1 -7 2.49 3.1
8 -1 -7 4.19 2.44
-8 1 -7 4.76 3.81
8 1 -7 2.93 2.36
9 1 -7 2.95 2.34
9 -1 -7 3.17 2.69
-9 1 -7 2.76 3.05
10 1 -7 11.1 3.19
-10 1 -7 14.7 4.71
10 -1 -7 11.42 3.47
-11 1 -7 1.98 2.97
11 -1 -7 1.08 2.65
11 1 -7 5.95 3.13
12 -1 -7 3.5 2.51
12 1 -7 6.59 3.46
0 1 -8 4.3 3.16
-1 1 -8 -1.79 3.19
1 1 -8 -0.18 2.37
-1 -1 -8 0.33 2.25
2 1 -8 118.39 8.25
-2 -1 -8 122.64 9.17
2 1 -8 122.52 5.46
-2 1 -8 117.51 9.42
-3 1 -8 101.34 8.77
3 1 -8 117.17 8.19
3 1 -8 112.96 5.83
-3 -1 -8 108.43 9.08
-4 -1 -8 16.75 4.72
4 1 -8 8.16 1.88
-4 1 -8 14.96 4.37
-5 1 -8 216.78 13.01
5 1 -8 252.44 10.54
-5 -1 -8 227.33 13.43
6 -1 -8 46.08 4.41
-6 1 -8 39.03 5.83
-6 -1 -8 44.66 6.33
6 1 -8 42.16 4.51
-7 -1 -8 7.1 3.47
7 1 -8 8.64 2.82
7 -1 -8 4.42 2.01
-7 1 -8 4.86 2.85
8 -1 -8 -4.65 2.5
-8 -1 -8 -1.83 3.02
8 1 -8 0.64 2.36
-9 1 -8 6.96 3.63
9 1 -8 7.08 2.72
9 -1 -8 1.23 2.03
-10 1 -8 -1.14 3.43
10 1 -8 3.96 2.67
10 -1 -8 3.65 2.4
-11 1 -8 3.04 3.76
11 -1 -8 4.85 2.99
11 1 -8 4.19 2.42
12 -1 -8 0.49 2.85
-12 1 -8 2.74 3.13
0 1 -9 16.66 4.23
-1 1 -9 0.64 2.76
1 1 -9 5.13 2.78
-2 -1 -9 25.12 4.95
2 1 -9 24.88 4.59
-2 1 -9 24.22 4.8
-3 1 -9 0.85 2.73
-3 -1 -9 -0.76 2.38
-4 -1 -9 -6.29 3.58
-4 1 -9 1.74 2.53
-5 1 -9 16.31 3.99
-5 -1 -9 22.37 4.88
6 1 -9 71.75 5.72
-6 -1 -9 71.44 7.93
-6 1 -9 63.22 7.42
-7 1 -9 59.59 7.41
7 1 -9 51.68 5.14
-8 1 -9 5.64 3.47
8 1 -9 -1 2.33
-9 1 -9 18.93 5.34
9 1 -9 18.21 3.54
-10 1 -9 2.22 4.07
10 1 -9 0.78 2.48
11 -1 -9 -0.25 2.55
11 1 -9 1.69 2.66
0 1 -10 -0.34 2.47
1 1 -10 16.6 4
-1 1 -10 14.74 4.13
2 1 -10 -1.05 2.71
-2 1 -10 5.15 3.42
-3 1 -10 8.66 3.38
-4 1 -10 59.99 7.07
-5 1 -10 -1.01 2.87
-6 1 -10 1.4 2.76
-7 1 -10 2.7 2.86
-8 1 -10 3.23 3.51
0 1 -11 30.02 5.11
-1 1 -11 7.57 3.55
1 1 -11 12.81 3.7
-2 1 -11 3.94 3.31
-3 1 -11 4.19 3.43
-4 1 -11 4.94 3.15
-5 1 -11 8.24 3.57
-6 1 -11 7.32 3.3
0 1 -12 5.86 3.2
1 1 -12 15.17 4.58
-1 1 -12 6.57 3.63
-2 1 -12 -0.83 2.52
-3 1 -12 2.17 2.81
0 1 -13 5.78 3.67
0 2 0 5132.58 52.35
1 2 0 0.48 0.69
-1 2 0 1.09 0.78
2 2 0 3067.01 34.39
3 2 0 0.58 1.14
4 2 0 97.71 4.76
5 2 0 2.74 1.48
6 2 0 709.87 18.07
7 2 0 4.48 2.44
8 2 0 266.61 13.63
9 2 0 -0.85 3.08
10 2 0 5.03 3.1
11 -2 0 -2.21 2.95
11 2 0 -1.43 3.16
12 2 0 -1.23 2.63
12 -2 0 -4.14 3.15
13 -2 0 -2.49 3.35
13 2 0 -4.86 3.23
14 2 0 28.66 5.17
14 -2 0 39.91 5.74
15 -2 0 -1.64 2.78
15 2 0 -0.8 2.99
0 2 -1 0.56 0.8
0 2 1 1 0.61
1 2 1 2053.76 22.84
-1 2 -1 2061.72 23.96
1 2 -1 2068.91 24.58
2 2 1 3707.78 38.31
2 2 -1 3574.01 40.36
3 2 -1 51.61 3.31
3 2 1 59.46 2.89
4 2 -1 126.04 5.88
4 2 1 132.04 5.21
5 2 1 1005.95 18.71
5 2 -1 987.65 20.3
6 2 1 1.65 1.98
6 2 -1 -1.39 1.97
7 2 1 637.1 18.23
7 2 -1 699.56 20.4
8 2 1 20.96 4.03
8 2 -1 29.35 5.14
9 2 1 148.33 10.68
9 2 -1 116 8.89
10 -2 -1 273.71 13.04
10 2 1 292.99 15.14
10 2 -1 274.1 13.33
11 -2 -1 2.38 2.6
11 -2 1 -0.42 2.42
11 2 1 0.75 3.01
11 2 -1 -1.87 2.95
12 2 -1 139.38 10.12
12 -2 1 138.61 9.46
12 -2 -1 131.32 9.76
12 2 1 140.62 9.95
13 -2 1 23.41 4.43
13 -2 -1 25.78 5.22
13 2 1 23.46 4.14
13 2 -1 28.04 5.15
14 -2 -1 2.24 3.35
14 -2 1 6.63 3.08
14 2 1 7.64 3.16
14 2 -1 4.94 3.53
15 -2 1 -4.19 3.25
15 2 1 2.46 3.08
15 2 -1 -2.17 3.19
0 2 -2 276.89 6.15
1 2 2 3924.43 39.64
-1 2 -2 3967.99 42.13
1 2 -2 3859.84 43.07
2 2 -2 44.88 2.91
2 2 2 47.27 1.87
-2 2 -2 46.76 2.43
3 2 -2 192.25 6.66
3 2 2 184.91 4.56
4 2 2 26.24 2.11
4 2 -2 24.81 2.92
5 2 -2 237.66 9.4
5 2 2 237.63 7.6
6 2 2 674.17 15.88
6 2 -2 716.41 19.03
7 2 2 199.03 9.3
7 2 -2 226.9 11.66
8 2 -2 76.38 7.26
8 2 2 77.73 6.71
9 -2 -2 556.65 18.31
-9 2 -2 579.66 18.08
9 2 2 594.57 20.78
9 2 -2 540.39 18.88
10 -2 -2 18.06 4.06
10 2 2 22.3 4.86
10 2 -2 13.95 3.51
11 2 2 116.22 9.02
11 2 -2 120.39 9.13
11 -2 -2 130.24 9.61
12 -2 2 -0.1 2.44
12 2 2 4.01 2.92
12 2 -2 4.14 3.1
13 -2 2 21.96 4.3
13 -2 -2 29.22 6.16
13 2 -2 28.29 5.44
14 -2 2 3.63 2.92
14 -2 -2 12.49 4.31
14 2 -2 9.26 3.95
15 -2 2 -3.53 3.16
0 2 -3 1.83 0.93
1 2 -3 1020.59 15.51
-1 2 -3 1019.54 14.6
2 2 -3 216.09 6.62
2 2 3 218.53 3.67
-2 2 -3 217.13 5.53
3 2 -3 1592.86 24.42
3 2 3 1587.76 18.03
4 2 -3 652.34 15
4 2 3 629.93 10.29
5 2 3 3890.92 44.64
5 2 -3 3824.95 52.48
6 2 -3 96.38 7.01
6 2 3 92.26 4.98
7 -2 -3 334.5 12.5
7 2 3 311.22 10.91
8 2 3 42.38 4.63
8 2 -3 38.32 5.23
8 -2 -3 33.28 4.47
-8 2 -3 37.55 5.09
9 -2 -3 47.3 5.28
-9 2 -3 40.36 5.46
9 2 3 36.97 4.57
9 2 -3 50.47 5.87
10 -2 -3 18.24 3.91
10 2 -3 20.83 4.47
11 -2 -3 12.7 4.05
11 2 -3 13.1 4
12 -2 -3 0.61 2.98
12 2 -3 2.9 2.81
12 -2 3 8.27 3.16
13 -2 -3 88.69 8.71
13 -2 3 85.1 7.44
13 2 -3 90.22 8.49
14 -2 3 0.89 2.46
14 -2 -3 -6.82 4.38
14 2 -3 2.19 3.04
15 -2 3 6.1 3.12
0 2 -4 49.78 2.79
1 2 -4 1350.08 19.59
-1 2 -4 1356.8 18.38
-2 2 -4 225.38 5.93
2 2 -4 239.57 7.33
3 2 -4 3415.28 43.16
3 2 4 3366.77 33.57
4 -2 -4 -0.18 1.59
4 2 -4 -0.82 1.61
4 2 4 0.56 0.39
5 -2 -4 13.69 2.53
5 2 -4 18.07 3.17
5 2 4 18.05 1.56
6 -2 -4 188.93 9.24
6 2 -4 184.2 9.77
7 2 -4 102.59 7.87
7 -2 -4 89.11 6.94
-7 2 -4 103.52 8.73
8 -2 -4 35.4 4.73
-8 2 -4 22.72 4.45
8 2 -4 33.73 4.81
-9 2 -4 773.82 25.34
9 -2 -4 805.11 22.86
9 2 -4 775.63 22.06
10 -2 -4 -2.66 2.84
10 2 -4 -0.06 2.67
-10 2 -4 5.22 3.16
11 -2 -4 109.67 9.42
11 2 -4 98.94 8.17
12 -2 -4 7.81 3.67
12 -2 4 3.82 2.75
12 2 -4 4.92 3.28
13 -2 -4 31.78 5.42
13 2 -4 35.96 5.49
0 2 -5 0.44 0.88
0 -2 -5 0.38 0.81
1 2 -5 219.38 6.66
1 -2 -5 211.04 6.62
-1 2 -5 211.71 5.93
2 2 -5 1107.38 18.85
2 -2 -5 1121.63 19.34
-2 2 -5 1107.16 16.38
3 2 -5 369.92 10.49
-3 2 -5 366.57 8.14
3 -2 -5 373.02 11.11
4 2 -5 192.32 8.27
4 -2 -5 199.56 8.6
5 2 -5 184.05 8.88
5 -2 -5 199.77 9.34
-5 2 -5 195.27 11.26
6 2 -5 120.37 8.07
6 -2 -5 117.41 7.56
-6 2 -5 125.06 9.88
7 2 -5 313.74 13.36
7 -2 -5 278.54 12.48
-7 2 -5 309.95 16.33
-8 2 -5 95.44 9.43
8 2 -5 89.06 7.01
8 -2 -5 101.9 8.04
9 -2 -5 12.68 3.65
-9 2 -5 16.54 4.67
9 2 -5 18.73 3.85
-10 2 -5 31.11 5.74
10 -2 -5 40.57 5.9
10 2 -5 38.26 4.99
11 -2 -5 7.23 3.08
11 2 -5 8.28 3.06
12 -2 -5 30.33 5.7
12 2 -5 27.22 4.87
13 -2 -5 22.49 4.35
13 2 -5 25.43 4.63
0 2 -6 39.55 2.7
1 2 -6 302.58 8.28
1 -2 -6 294.83 7.54
-1 2 -6 294.36 7.26
2 2 -6 203.48 7.32
2 -2 -6 209.48 7.29
-2 2 -6 215.62 6.13
-2 2 -6 224.15 11.39
3 -2 -6 2.63 1.39
-3 2 -6 5.95 2.96
-3 2 -6 3.11 1.06
3 2 -6 4.51 2.22
3 2 -6 1.41 1.43
4 -2 -6 21.59 3.06
4 2 -6 30.33 4.29
-4 2 -6 21.13 4.46
4 2 -6 23.27 3.18
5 -2 -6 17.03 3.09
-5 2 -6 18.69 4.52
5 2 -6 20.14 3.28
-6 2 -6 985.51 29.82
6 2 -6 968.61 23.77
6 -2 -6 936.91 23.47
7 -2 -6 5.51 2.71
-7 2 -6 8.77 4.25
7 2 -6 2.03 2.62
8 2 -6 144.2 9.08
-8 2 -6 147.15 12.44
8 -2 -6 136.65 9.12
-9 2 -6 1.32 3.34
9 -2 -6 7.03 2.92
9 2 -6 5.37 2.82
-10 2 -6 2.66 4.29
10 -2 -6 6.31 3.33
10 2 -6 1.1 2.36
11 -2 -6 8.29 3.75
11 2 -6 6.5 3.34
12 -2 -6 7.03 3.25
12 2 -6 9.7 3.11
13 -2 -6 3.61 3.48
0 2 -7 0.31 0.9
0 2 -7 0.08 2.46
1 2 -7 5.52 1.5
-1 2 -7 5.32 1.23
-1 2 -7 0.42 2.32
1 2 -7 3.26 2.55
2 2 -7 92.27 5.02
-2 2 -7 89.52 4.03
-2 2 -7 98.79 8.59
2 2 -7 95.52 7.66
-3 2 -7 10.53 3.89
3 2 -7 11.52 3.68
-3 2 -7 5.66 1.4
3 2 -7 9.1 2.02
4 -2 -7 0.11 1.57
-4 2 -7 3.83 4.02
4 2 -7 2.95 2.38
4 2 -7 1.72 1.7
5 -2 -7 32.42 3.87
-5 2 -7 37.14 6.28
5 2 -7 35.92 4.05
6 -2 -7 1.27 2.12
-6 2 -7 3.25 4.39
6 2 -7 0.67 2.21
7 -2 -7 40.04 4.84
7 2 -7 32.67 4.52
-7 2 -7 28.68 5.81
-8 2 -7 9.14 4.37
8 -2 -7 8.8 2.63
8 2 -7 12.48 2.93
-9 2 -7 3.63 3.79
9 -2 -7 0.67 2.19
9 2 -7 5.66 2.79
10 2 -7 87.67 7.5
-10 2 -7 86.43 9.75
10 -2 -7 87.76 7.81
11 -2 -7 1.33 2.75
-11 2 -7 6.05 4.25
11 2 -7 -5.68 2.67
12 -2 -7 12.22 3.97
12 2 -7 4.58 3.14
0 2 -8 204.64 6.67
0 2 -8 203.89 12.34
-1 2 -8 246.91 13.8
1 2 -8 237.89 12.97
1 2 -8 251.65 8
2 2 -8 43.29 3.56
-2 2 -8 34.77 5.81
2 2 -8 44.08 5.91
3 2 -8 30.27 3.25
-3 2 -8 30.97 5.53
3 2 -8 28.89 4.58
-4 2 -8 15.9 4.73
4 2 -8 9.63 2.31
5 2 -8 12.37 2.71
-5 2 -8 4.29 3.52
-6 2 -8 7.27 3.92
6 2 -8 5.54 2.29
7 2 -8 -0.39 2.34
-7 2 -8 0 3.17
-8 2 -8 20.88 5.14
8 -2 -8 23.15 3.77
8 2 -8 20.51 3.89
-9 2 -8 100.64 10.15
9 2 -8 99.28 7.42
9 -2 -8 99.12 7.59
-10 2 -8 -2.9 3.62
10 -2 -8 0.17 2.45
10 2 -8 4.98 3
11 -2 -8 9.22 3.1
-11 2 -8 7.57 4.39
11 2 -8 15.74 3.7
-12 2 -8 8.44 4.69
12 -2 -8 4.67 3.25
0 2 -9 -2.69 2.8
1 2 -9 26.28 5.09
-1 2 -9 17.45 4.32
2 2 -9 2.14 2.58
-2 2 -9 -2.87 3.26
3 2 -9 24.21 4.69
-3 2 -9 26.8 5.43
4 2 -9 71.66 5.38
-4 2 -9 61.28 7.46
5 2 -9 59.65 5.31
-5 2 -9 48.2 6.72
-6 2 -9 -0.02 2.73
6 2 -9 2.26 2.05
-7 2 -9 58.87 7.71
7 2 -9 50.49 5.18
-8 2 -9 4.44 3.79
8 2 -9 3.8 2.51
-9 2 -9 11.54 4.69
9 2 -9 14.36 3.46
-10 2 -9 -3.96 4.15
10 2 -9 1.41 2.23
0 2 -10 19.2 4.74
-1 2 -10 41.96 6.15
1 2 -10 40.88 5.83
2 2 -10 75.1 7.6
-2 2 -10 58.57 7.1
-3 2 -10 4.46 2.68
-4 2 -10 25.68 5.48
-5 2 -10 7.03 3.58
-6 2 -10 32.29 5.93
-7 2 -10 1.98 3.47
-8 2 -10 0.02 3.71
9 2 -10 5.2 2.63
0 2 -11 -2.3 2.71
-1 2 -11 4 3.57
1 2 -11 -1.54 2.73
-2 2 -11 58.97 7.41
-3 2 -11 2.46 3.16
-4 2 -11 6.68 3.43
-5 2 -11 27.81 5.94
0 2 -12 10.03 3.82
-1 2 -12 0.27 3.41
1 2 -12 -2.58 3.1
-2 2 -12 -0.71 2.9
-3 2 -12 1.58 2.64
0 3 0 0.01 0.86
1 3 0 1.08 0.92
-1 3 0 0.21 0.75
2 3 0 1036.14 15.82
3 3 0 -0.39 1.01
4 3 0 1065.21 18.09
5 3 0 1.48 1.64
6 3 0 861.23 18.84
7 3 0 1.88 2
8 3 0 12.84 3.2
9 3 0 -4.79 2.99
10 3 0 250 13.84
11 3 0 0.27 3.24
12 -3 0 0.02 2.51
12 3 0 -0.02 3.59
13 -3 0 -1.1 3.1
13 3 0 -4.29 3.46
14 -3 0 0.64 3.58
14 3 0 1.05 2.92
15 3 0 0.68 2.69
0 3 -1 2.78 1.03
0 3 1 4.13 0.95
1 3 1 1.31 0.72
1 3 -1 1.04 0.97
-1 3 -1 0.66 0.92
-1 3 1 1.08 0.81
2 3 -1 685.92 12.57
2 3 1 691.51 11.35
-2 3 -1 688.4 12.07
3 3 1 208.72 5.96
3 3 -1 207.73 6.79
4 3 -1 4.18 1.59
4 3 1 0.74 1
5 3 -1 281.11 9.64
5 3 1 274.29 8.49
6 3 -1 1157.85 23.39
6 3 1 1172.5 21.71
7 3 -1 59.13 5.41
7 3 1 52.74 4.72
8 3 -1 82.39 6.97
8 3 1 73.39 6.08
9 3 1 19.47 3.75
9 3 -1 21.29 4.36
10 3 1 22.34 4.78
10 3 -1 18.78 4.59
11 3 1 4.78 3.6
11 3 -1 4.52 3.43
12 -3 -1 0.05 3.49
12 3 1 -1.86 3.24
12 3 -1 2.11 2.8
13 -3 1 18.24 4.6
13 -3 -1 17.39 4.15
13 3 1 23.55 5.42
13 3 -1 14.7 4.74
14 -3 1 36.53 6.13
14 -3 -1 38.06 6.13
14 3 -1 31.19 5.91
0 3 -2 0.3 0.98
0 3 2 -0.45 0.64
1 3 -2 1335.86 19.61
-1 3 -2 1359.63 19.08
1 3 2 1355.89 17.04
2 3 -2 716.5 13.32
2 3 2 701.1 10.82
-2 3 -2 702.25 12.38
3 3 2 800.34 12.44
3 3 -2 809.35 15.49
4 3 -2 142.45 6.38
4 3 2 130.87 4.67
5 3 2 25.8 2.4
5 3 -2 24 3.08
6 3 -2 17.16 3.23
6 3 2 15.06 2.19
7 3 -2 185.02 9.74
7 3 2 179.68 7.94
8 3 2 9.25 2.6
8 3 -2 8.48 2.97
9 3 2 24.57 3.75
9 3 -2 33.47 5.45
10 3 2 196.07 11.12
10 3 -2 216.49 13.23
11 3 2 65.13 6.7
11 3 -2 59.22 7.02
11 -3 -2 75.16 7.66
12 -3 -2 1.13 2.56
12 3 -2 5.9 3.36
13 -3 -2 6.04 3.68
13 -3 2 1.84 2.96
13 3 -2 0.21 2.59
14 -3 2 0.98 3.39
14 -3 -2 1.73 3.88
14 3 -2 -0.34 3.19
0 3 -3 289.06 7.58
1 3 -3 753.26 13.73
-1 3 -3 745.5 13.06
1 3 3 751.42 10.59
2 3 -3 303.54 8.54
2 3 3 308.9 5.84
-2 3 -3 307.44 7.75
3 3 -3 737.67 15.41
3 3 3 760.15 10.97
-3 3 -3 752.22 13.47
4 3 3 11.67 1.3
4 3 -3 8.5 2.09
5 3 -3 569.06 15.38
5 3 3 570.4 10.84
6 3 -3 1.78 2.18
6 3 3 2.61 1.04
7 3 -3 225.76 11.07
7 3 3 225.18 8.15
8 3 -3 51.42 5.83
9 3 -3 22.25 4.72
10 -3 -3 1.33 2.75
10 3 -3 9.28 3.43
11 -3 -3 31.27 5.46
11 3 -3 35.27 5.56
12 -3 -3 -0.07 2.84
12 3 -3 -2.33 2.65
13 -3 -3 29.37 6.01
13 3 -3 22.07 4.78
14 -3 3 5.7 4.17
0 3 -4 1.04 1.19
1 3 -4 184.23 6.41
-1 3 -4 182.8 5.94
2 3 -4 45.37 3.48
-2 3 -4 47.2 3.06
3 3 -4 116.86 5.91
3 3 4 129.24 3.18
-3 3 -4 120.28 4.88
4 3 -4 90.5 5.58
5 3 -4 41 4.17
6 3 -4 20.69 3.63
7 3 -4 0.52 2.24
8 -3 -4 42.87 4.94
8 3 -4 37.36 5.53
9 3 -4 269.29 13.97
9 -3 -4 230.9 12.16
10 -3 -4 11 3.8
-10 3 -4 11.17 4.2
10 3 -4 10.31 3.69
11 -3 -4 50.55 6.62
11 3 -4 48.56 6.31
12 -3 -4 2.23 2.69
12 3 -4 0.04 3.18
13 -3 -4 2.75 3.43
13 3 -4 -2.22 3.2
0 3 -5 952.51 16.36
1 3 -5 22.94 2.55
-1 3 -5 18.14 1.99
2 3 -5 267.22 8.67
-2 3 -5 265.99 7.64
3 3 -5 310.34 10.12
-3 3 -5 300.68 8.1
4 3 -5 19.12 3.08
5 3 -5 48.77 4.82
6 -3 -5 5.87 2.32
6 3 -5 8.28 2.48
7 3 -5 62.53 6.22
7 -3 -5 68.21 6.13
8 3 -5 100.15 8.55
8 -3 -5 102.99 7.79
-8 3 -5 100.75 9.64
9 -3 -5 9.75 3.23
-9 3 -5 14.37 4.8
9 3 -5 10.26 3.66
10 -3 -5 15.31 4.27
-10 3 -5 10.7 4.76
10 3 -5 13.46 3.72
11 -3 -5 3.13 3.38
11 3 -5 -2.71 3.28
12 -3 -5 -4.66 4.01
12 3 -5 6.55 3.39
13 -3 -5 16.28 5.09
0 3 -6 -0.22 1.28
1 3 -6 66.93 4.07
-1 3 -6 67 3.76
2 3 -6 319.89 9.85
-2 3 -6 310.85 8.58
2 -3 -6 320.61 9.32
3 3 -6 8.83 2.18
3 -3 -6 12.45 2.3
-3 3 -6 7.38 1.63
4 3 -6 58.16 4.83
4 -3 -6 64.15 4.81
5 -3 -6 25.84 3.32
5 3 -6 25.13 3.7
6 -3 -6 14.32 3.45
6 3 -6 16.33 3.44
7 -3 -6 83.9 6.9
-7 3 -6 107.27 10.05
7 3 -6 88.43 7.53
8 -3 -6 3.63 3.04
-8 3 -6 4.33 3.3
8 3 -6 -0.12 2.77
9 -3 -6 8.35 3.11
-9 3 -6 9.08 4.48
9 3 -6 6.65 3.2
10 -3 -6 76.31 8.03
-10 3 -6 77.61 9.71
10 3 -6 72.41 7.17
11 -3 -6 7 4.14
11 3 -6 6.86 3.21
-11 3 -6 0.97 3.7
12 -3 -6 24.25 5.33
12 3 -6 22.98 4.95
0 3 -7 3.32 1.35
-1 3 -7 57.11 3.58
1 3 -7 58.95 3.98
2 3 -7 52.13 4.07
-2 3 -7 56.19 3.59
-3 3 -7 41.34 3.13
3 3 -7 40.3 3.83
4 3 -7 21.63 3.25
-4 3 -7 21.23 4.56
-5 3 -7 25.85 5.58
5 3 -7 16.87 3.11
6 3 -7 114.06 7.67
6 -3 -7 127.41 8.06
-6 3 -7 126.45 11.1
7 -3 -7 2.44 2.45
-7 3 -7 0.04 3.95
7 3 -7 0.89 2.54
8 -3 -7 7.83 3.32
-8 3 -7 1.1 4.33
8 3 -7 5.98 3.22
9 -3 -7 1.49 2.39
9 3 -7 0.97 2.88
-9 3 -7 3.67 3.8
10 -3 -7 2.18 3.35
10 3 -7 -1.83 2.4
-10 3 -7 6.23 4.84
-11 3 -7 5.97 3.85
11 -3 -7 -2.42 3.56
11 3 -7 0.6 3.22
12 -3 -7 8.93 4.01
0 3 -8 0.85 1.23
0 3 -8 -0.5 2.66
1 3 -8 5.83 1.84
1 3 -8 3.47 2.81
-1 3 -8 3.68 2.74
-1 3 -8 7.39 1.7
2 3 -8 120.56 6.2
-2 3 -8 118.5 5.42
2 3 -8 122.33 9.04
-2 3 -8 119.76 10.07
3 3 -8 51.67 4.46
3 3 -8 59.98 6.56
-3 3 -8 57.36 7.42
4 3 -8 -1.05 1.67
-4 3 -8 -0.7 3.36
5 3 -8 73.31 5.95
-5 3 -8 90.6 9.74
-6 3 -8 22.83 6.02
6 3 -8 24.94 4.04
-7 3 -8 13.32 5.27
7 3 -8 5.93 2.56
-8 3 -8 -1.83 4.1
8 3 -8 -3.83 2.88
-9 3 -8 1.45 3.96
9 3 -8 7.66 2.97
10 3 -8 5.51 2.95
-10 3 -8 8.44 4.11
-11 3 -8 3.1 4.68
11 -3 -8 2.37 2.44
0 3 -9 38.41 6.04
-1 3 -9 1.11 2.83
1 3 -9 7.96 4.21
2 3 -9 25.19 3.1
-2 3 -9 20.6 5.3
2 3 -9 27.57 5.23
3 3 -9 1.68 1.68
-3 3 -9 0.97 3.28
3 3 -9 -0.1 2.94
4 3 -9 0.79 1.65
-4 3 -9 -3.27 3.83
5 3 -9 17.34 3.36
-5 3 -9 17.32 4.99
6 3 -9 65.14 6.01
-6 3 -9 68.91 8.86
7 3 -9 25.03 4.21
-7 3 -9 22.37 5.99
-8 3 -9 -3.18 4.43
8 3 -9 8.1 3.26
-9 3 -9 12.03 5.02
9 3 -9 5.03 2.73
10 3 -9 -2.44 2.76
0 3 -10 5.48 3.86
-1 3 -10 6.79 3.99
1 3 -10 7.26 3.93
2 3 -10 7.9 4.04
-2 3 -10 7.66 4.05
-3 3 -10 1.2 3.19
-4 3 -10 55.94 8.01
-5 3 -10 2.56 3.49
-6 3 -10 0.34 3.85
7 3 -10 2.98 2.68
-7 3 -10 5.48 4.21
8 3 -10 -1.43 2.35
9 3 -10 1.63 2.57
0 3 -11 21.18 5.41
-1 3 -11 1.23 2.91
1 3 -11 13.59 5.07
-2 3 -11 9.25 4.21
-3 3 -11 0.18 3.34
-4 3 -11 7.82 4.94
0 3 -12 0.65 3.3
-1 3 -12 1.5 2.95
0 4 0 9999 102.43
1 4 0 1.53 1.03
-1 4 0 1.01 1.06
2 4 0 6.01 1.35
3 4 0 0.22 1.14
4 4 0 283.06 8.67
5 4 0 1.03 1.52
6 4 0 553.74 14.6
7 4 0 0.78 1.86
8 4 0 641.72 18.55
9 4 0 3.87 2.49
10 4 0 47.61 6.17
11 4 0 0.55 2.73
12 4 0 91.61 9.22
13 4 0 0.58 3.22
14 4 0 -7.92 4.42
0 4 -1 0.89 1.06
0 4 1 1.09 0.96
1 4 -1 17.44 2.06
1 4 1 14.66 1.74
-1 4 -1 18.92 2.19
-1 4 1 18.36 1.96
2 4 1 222.24 6.46
-2 4 -1 225.98 6.94
2 4 -1 223.06 7.17
3 4 -1 22.75 2.6
3 4 1 21.98 2.17
4 4 -1 2236.2 32.35
4 4 1 2243.94 30.2
5 4 1 1.82 1.38
5 4 -1 1.54 1.64
6 4 -1 3.38 1.66
6 4 1 4.43 1.84
7 4 -1 0.37 2
7 4 1 -0.08 1.51
8 4 -1 272.77 12.26
8 4 1 278.33 11.21
9 4 1 31.98 4.37
9 4 -1 23.66 4.42
10 4 -1 17.02 4.29
10 4 1 12.34 3.42
11 4 -1 34.43 6.1
11 4 1 42.09 6.02
12 4 -1 73.86 9.04
12 4 1 62.66 7.06
13 4 -1 2.92 3.49
13 -4 -1 -0.17 2.6
14 4 -1 15.47 5.02
0 4 -2 633.16 12.83
0 4 2 646.42 11.44
1 4 -2 146.86 5.84
-1 4 -2 142.99 5.6
1 4 2 142.22 4.74
2 4 -2 185.95 6.79
2 4 2 179.96 5.36
-2 4 -2 179.79 6.35
3 4 -2 1076.51 19.7
3 4 2 1102.09 16.62
4 4 -2 198.77 8.01
4 4 2 203.28 6.3
5 4 -2 55.36 4.67
5 4 2 51.35 3.41
6 4 -2 15.82 3.08
6 4 2 21.02 2.56
7 4 -2 368.45 13.58
7 4 2 395.42 11.51
8 4 2 211.94 8.96
8 4 -2 197.01 10.79
9 4 -2 3.84 3.17
9 4 2 6.84 2.41
10 4 -2 1.65 2.78
11 4 -2 2.14 3.7
12 4 -2 24.96 6.08
12 -4 -2 46.87 6.61
13 -4 -2 -2.26 3.61
13 4 -2 -2.44 3.68
0 4 -3 -2.45 1.51
1 4 -3 614.04 13.01
-1 4 -3 602.78 12.68
1 4 3 611.36 10.52
2 4 -3 61.77 4.01
2 4 3 52.08 2.7
-2 4 -3 55.74 3.67
3 4 -3 498.39 12.69
3 4 3 492.68 9.47
-3 4 -3 485.89 11.44
4 4 -3 234.13 9.09
4 4 3 251.92 6.52
5 4 3 37.04 2.67
5 4 -3 29.58 3.72
6 4 -3 4.36 2.33
7 4 -3 175.6 9.59
8 4 -3 3.13 2.89
9 4 -3 12.32 4.14
10 4 -3 7.38 3.06
11 4 -3 124.33 11.29
11 -4 -3 137.02 10.53
12 -4 -3 -0.16 3.82
12 4 -3 -5.88 4.03
13 -4 -3 2.85 3.37
13 4 -3 0.17 3.49
0 4 -4 270.78 8.28
1 4 -4 3.99 1.51
-1 4 -4 5.05 1.43
2 4 -4 0.57 1.55
-2 4 -4 0.25 1.21
3 4 -4 0.1 1.34
-3 4 -4 0.64 1.35
4 4 -4 62.24 4.94
5 4 -4 136.14 7.66
6 4 -4 22.82 3.7
7 4 -4 233.46 11.48
8 4 -4 1.32 2.64
9 4 -4 6.21 3.46
10 4 -4 30.31 5.99
10 -4 -4 20.08 4.71
11 -4 -4 -2.87 3.03
11 4 -4 4.41 3.72
12 -4 -4 8.81 4.33
12 4 -4 3.82 3.49
0 4 -5 2.29 1.64
1 4 -5 24.62 2.7
-1 4 -5 23.74 2.59
2 4 -5 43.13 3.77
-2 4 -5 41.25 3.39
3 4 -5 101.56 5.98
-3 4 -5 105.34 5.22
4 4 -5 870.63 19.97
5 4 -5 2.02 2.06
6 4 -5 61.31 5.74
7 4 -5 2.46 2.38
8 -4 -5 53.51 6.09
8 4 -5 50.19 6.09
9 -4 -5 3.69 3.16
9 4 -5 5.93 3.31
10 -4 -5 19.6 4.5
10 4 -5 18.47 4.74
-10 4 -5 21.72 5.35
11 -4 -5 21.1 5.33
11 4 -5 16.4 4.5
12 -4 -5 10.77 4.37
12 4 -5 1.6 2.89
0 4 -6 673.1 14.75
1 4 -6 122.92 5.99
-1 4 -6 120 5.59
2 4 -6 41.98 3.83
-2 4 -6 36.92 3.27
3 4 -6 4.4 2.01
-3 4 -6 3.18 1.3
4 4 -6 101.51 6.6
5 4 -6 5.99 2.45
6 -4 -6 5.12 2.4
6 4 -6 -1.6 2.55
7 -4 -6 2.95 2.53
7 4 -6 -0.68 2.56
8 4 -6 202.31 11.88
8 -4 -6 219.21 12
9 -4 -6 4.24 2.73
9 4 -6 5.53 3.72
-9 4 -6 3.18 3.41
10 -4 -6 7.33 3.4
-10 4 -6 14.62 4.88
10 4 -6 4.75 3.01
11 -4 -6 2.08 3.56
-11 4 -6 -2.77 3.88
11 4 -6 -3.33 3.57
12 -4 -6 22.12 5.83
0 4 -7 1.82 1.32
1 4 -7 114.89 6.1
-1 4 -7 117.37 5.77
2 4 -7 105.28 6.02
-2 4 -7 100.72 5.39
3 4 -7 6.86 2.19
-3 4 -7 6.91 1.8
4 4 -7 232.81 10.21
5 4 -7 23.96 3.9
6 4 -7 0.97 2.34
7 4 -7 82.28 7.17
-7 4 -7 86.94 9.18
8 4 -7 107.98 8.94
8 -4 -7 98.96 7.7
-8 4 -7 108.04 10.77
9 -4 -7 3.57 2.92
-9 4 -7 8.14 4.77
9 4 -7 4.61 3.44
10 -4 -7 -0.03 3.06
-10 4 -7 -0.94 4.06
10 4 -7 1.18 3.02
11 -4 -7 16.53 4.52
-11 4 -7 8.83 5.16
0 4 -8 283.1 9.49
1 4 -8 0.87 1.46
-1 4 -8 2.55 1.3
2 4 -8 -3.96 2.08
-2 4 -8 0.08 1.37
3 4 -8 114.2 6.8
-3 4 -8 123.07 6.13
4 4 -8 0.27 2.03
5 4 -8 44.04 4.81
-5 4 -8 48.17 6.95
6 4 -8 40.92 5.04
-6 4 -8 32.36 5.75
7 4 -8 34.67 5.12
-7 4 -8 40.2 7.01
-8 4 -8 33.54 6.97
8 4 -8 29.8 5.1
-9 4 -8 3.68 3.84
9 4 -8 -2.55 2.83
-10 4 -8 -11.37 6.38
0 4 -9 0.33 1.43
0 4 -9 1.85 2.37
1 4 -9 44.21 4.06
-1 4 -9 47.61 6.11
1 4 -9 44.04 5.32
2 4 -9 3.42 1.65
2 4 -9 2.66 2.68
-2 4 -9 -0.67 2.42
3 4 -9 7.77 2.67
-3 4 -9 5.7 3.25
4 4 -9 28.62 3.84
-4 4 -9 29.68 5.52
5 4 -9 11.92 3.23
-5 4 -9 12.93 4.71
6 4 -9 3.02 2.48
-6 4 -9 7.36 4.74
7 4 -9 2.44 2.68
-7 4 -9 -0.46 3.93
8 4 -9 -4.56 3.14
-8 4 -9 9.2 5.48
0 4 -10 8.2 3.41
-1 4 -10 0.22 3.33
1 4 -10 2.93 3.11
-2 4 -10 7.04 3.76
2 4 -10 13.39 4.33
-3 4 -10 8.52 4.38
-4 4 -10 -2.51 3.5
5 4 -10 4.28 2.91
-5 4 -10 6.65 3.98
6 4 -10 0.31 2.56
7 4 -10 -0.25 2.65
0 4 -11 3.81 2.83
-1 4 -11 -3.27 2.82
1 4 -11 -0.43 2.91
-2 4 -11 4.85 3.2
-3 4 -11 5.38 3.88
0 5 0 -0.95 1.16
1 5 0 0.25 1.02
-1 5 0 0.21 1.22
2 5 0 424.88 10.68
3 5 0 0.7 1.17
4 5 0 109.7 5.63
5 5 0 0.57 1.64
6 5 0 201.54 8.68
7 5 0 -0.29 1.8
8 5 0 0.26 2.09
9 5 0 -1.82 2.41
10 5 0 75.23 7.1
11 5 0 4.83 3.4
12 5 0 -4.18 3.53
13 5 0 7.48 3.88
0 5 -1 11.75 2.04
0 5 1 7.61 1.5
1 5 -1 1.72 1.42
1 5 1 -0.29 1.12
-1 5 -1 -0.1 1.25
-1 5 1 0 1.17
2 5 -1 175.09 6.85
2 5 1 162.5 6.16
-2 5 -1 187.1 7.05
3 5 -1 48.73 3.8
3 5 1 53.91 3.64
4 5 -1 -0.44 1.67
4 5 1 1.73 1.33
5 5 -1 66.42 5.09
5 5 1 64.6 4.39
6 5 -1 311.31 11.58
6 5 1 317.24 10.48
7 5 -1 17.49 3.33
7 5 1 21.27 3.2
8 5 -1 11.13 3.03
8 5 1 16.83 3.2
9 5 -1 5.15 2.93
9 5 1 5.65 2.51
10 5 -1 1.44 2.68
10 5 1 3.59 2.34
11 5 -1 -6.47 3.78
12 5 -1 2.48 3.3
13 5 -1 0.85 4.07
0 5 -2 2.12 1.65
0 5 2 1.23 1.12
1 5 -2 179.75 7.14
-1 5 -2 176.81 7.08
1 5 2 186.71 6.23
2 5 -2 120.35 6
2 5 2 125.18 5.05
-2 5 -2 124.24 5.91
3 5 -2 159.44 7.14
3 5 2 160.52 5.93
4 5 -2 20.21 3.06
4 5 2 17.45 2.16
5 5 -2 37.99 4.04
5 5 2 29.28 2.79
6 5 -2 8.67 2.89
6 5 2 2.06 1.27
7 5 -2 37.63 4.76
7 5 2 35.25 3.56
8 5 -2 1.69 2.19
9 5 -2 12.1 3.45
10 5 -2 39.61 5.96
11 5 -2 6.94 3.02
12 5 -2 -5.59 4.14
0 5 -3 126.97 6.04
1 5 -3 176.05 7.34
-1 5 -3 175.39 7.09
1 5 3 181.97 5.89
2 5 -3 48.47 3.99
2 5 3 48.37 3.08
-2 5 -3 49.74 3.91
3 5 -3 175.78 7.71
3 5 3 174.14 5.83
-3 5 -3 177.5 7.24
4 5 -3 2.13 1.74
5 5 -3 131.26 7.59
6 5 -3 6.08 2.61
7 5 -3 46.98 5.3
8 5 -3 2.94 2.34
9 5 -3 3.6 2.73
10 5 -3 4.41 3.5
11 5 -3 15.88 4.5
12 5 -3 4.69 4.4
0 5 -4 -2.59 1.47
1 5 -4 104.92 5.8
-1 5 -4 116.45 5.77
2 5 -4 5.02 1.98
-2 5 -4 9.94 2.24
3 5 -4 29.14 3.54
-3 5 -4 21.71 2.83
4 5 -4 -1.1 1.86
5 5 -4 -1 2.11
6 5 -4 6.2 2.54
7 5 -4 7.76 3.02
8 5 -4 2.41 2.81
9 5 -4 68.3 7.28
10 5 -4 7.26 4.02
11 -5 -4 17.44 4.88
11 5 -4 25.03 6.11
12 -5 -4 -1.49 3.25
0 5 -5 76.38 5
1 5 -5 0.78 1.4
-1 5 -5 0.54 1.56
2 5 -5 142.34 7.02
-2 5 -5 134.35 6.63
3 5 -5 179.78 8.46
-3 5 -5 173.55 7.48
4 5 -5 18.14 3.12
5 5 -5 49.31 5.18
6 5 -5 22.92 4.06
7 5 -5 14.85 3.85
8 5 -5 8.58 3.05
9 5 -5 14.57 3.98
10 -5 -5 6.49 3.46
10 5 -5 3.23 3.74
11 -5 -5 5.98 3.37
11 5 -5 1.34 3.9
0 5 -6 -1.62 1.62
1 5 -6 113.98 6.41
-1 5 -6 111.08 5.96
2 5 -6 103.2 6.26
-2 5 -6 96.96 5.68
3 5 -6 2.07 1.88
-3 5 -6 0.24 1.32
4 5 -6 3.35 2.21
5 5 -6 2.8 2.33
6 5 -6 7.6 2.72
7 5 -6 66.78 6.84
8 5 -6 7.91 3.64
8 -5 -6 0.61 2.39
9 -5 -6 2.74 2.98
9 5 -6 2.44 3.52
10 -5 -6 26.73 5.45
10 5 -6 33.65 6.36
11 -5 -6 -10.99 4.59
-11 5 -6 1.47 3.73
0 5 -7 3.21 2.03
1 5 -7 67.87 5.13
-1 5 -7 56.49 4.47
2 5 -7 15.27 2.97
-2 5 -7 17.13 2.87
3 5 -7 8.26 2.58
-3 5 -7 6.72 1.89
4 5 -7 5.13 2.62
5 5 -7 33.68 4.65
6 5 -7 21.8 4.2
7 5 -7 4.18 2.58
8 5 -7 -1.76 3.04
9 5 -7 9.47 3.69
-9 5 -7 -3 4.08
-10 5 -7 3.73 3.62
0 5 -8 1.18 1.79
1 5 -8 5.58 2.14
-1 5 -8 6.38 1.86
2 5 -8 17.05 2.96
-2 5 -8 17.18 2.95
3 5 -8 14.31 2.98
-3 5 -8 12.01 2.42
4 5 -8 2.81 2.14
5 5 -8 36.01 4.9
6 5 -8 15.66 4.23
7 5 -8 2.06 2.46
8 5 -8 -3.36 2.87
-8 5 -8 0.31 2.64
0 5 -9 0.63 1.93
1 5 -9 -3.01 2.21
-1 5 -9 1.34 1.82
2 5 -9 3.18 2.25
3 5 -9 3.33 2.37
4 5 -9 4.38 2.41
5 5 -9 2.05 2.43
-5 5 -9 0.06 2.29
6 5 -9 5.63 2.81
-6 5 -9 2.41 3.14
7 5 -9 8.15 3.17
0 5 -10 -0.24 1.63
1 5 -10 0 1.42
-1 5 -10 -1.33 1.74
2 5 -10 -2.67 2.15
-2 5 -10 3.45 2.29
3 5 -10 2.14 2.39
-3 5 -10 0.47 2.19
4 5 -10 0.81 2.37
5 5 -10 -1.07 2.44
6 5 -10 -0.39 2.46
0 5 -11 -5.6 2.76
1 5 -11 0.45 1.95
0 6 0 84.61 4.98
1 6 0 0.63 1.39
-1 6 0 1.01 1.49
2 6 0 213.66 7.96
3 6 0 0.36 1.55
4 6 0 50.23 4.14
5 6 0 -0.57 1.84
6 6 0 94.11 6.31
7 6 0 -0.67 1.87
8 6 0 18.47 3.54
9 6 0 -1.86 1.99
10 6 0 3.3 2.42
11 6 0 4.44 3.54
0 6 -1 1.11 1.33
0 6 1 2.03 1.53
1 6 -1 137.23 6.5
1 6 1 131.77 6.07
-1 6 -1 137.08 6.56
-1 6 1 142.32 6.39
2 6 -1 209.6 8.31
2 6 1 202.51 7.57
-2 6 -1 214.19 8.47
3 6 -1 5.85 1.95
3 6 1 5.78 1.63
4 6 -1 5.98 2.21
4 6 1 1.47 1.57
5 6 -1 76.08 5.58
5 6 1 79.13 5.06
6 6 -1 -1.23 1.91
6 6 1 -0.59 1.65
7 6 -1 66.18 5.92
7 6 1 62.95 5.13
8 6 -1 9.42 3.23
8 6 1 13.93 2.97
9 6 -1 -0.77 2.06
10 6 -1 15.92 3.96
11 6 -1 -2.05 3.36
12 6 -1 14.05 4.56
0 6 -2 9.36 2.12
0 6 2 10.91 1.93
1 6 -2 385.57 11.49
-1 6 -2 384.87 11.57
1 6 2 391.58 10.44
2 6 -2 3.77 2.16
2 6 2 0.42 1.24
3 6 -2 142.27 7.12
3 6 2 141.75 6.07
4 6 -2 1.98 1.94
4 6 2 2.91 1.35
5 6 -2 61.75 5.41
5 6 2 65.81 4.46
6 6 -2 49.43 5.17
7 6 -2 1.26 2.08
8 6 -2 9.15 3.37
9 6 -2 96.73 8.19
10 6 -2 1.15 2.96
11 6 -2 7.68 4.06
0 6 -3 2.33 1.81
1 6 -3 238.31 9.27
-1 6 -3 256.91 9.57
1 6 3 250.83 7.98
2 6 -3 8.08 2.31
2 6 3 5.24 1.39
-2 6 -3 5.61 1.92
3 6 -3 86.49 5.81
-3 6 -3 90.76 5.73
4 6 -3 31.13 3.88
5 6 -3 424.98 14.48
6 6 -3 1.06 2.24
7 6 -3 81.5 7.03
8 6 -3 0.73 2.65
9 6 -3 -0.77 3.21
10 6 -3 4.88 3.47
11 6 -3 8.4 4.36
0 6 -4 31.2 3.48
1 6 -4 124.56 6.79
-1 6 -4 118.99 6.7
2 6 -4 26.56 3.46
-2 6 -4 32.69 3.82
3 6 -4 420.22 13.43
-3 6 -4 403.52 12.66
4 6 -4 10.36 2.83
5 6 -4 17.21 3.31
6 6 -4 35.37 4.92
7 6 -4 2.37 2.24
8 6 -4 6.05 3.13
9 6 -4 95.27 8.72
10 6 -4 -1.81 2.92
0 6 -5 2.98 1.79
1 6 -5 86.27 5.89
-1 6 -5 92.98 5.97
2 6 -5 149.79 7.92
-2 6 -5 133.58 7.16
3 6 -5 26.13 3.69
-3 6 -5 27.53 3.61
4 6 -5 4.89 2.75
5 6 -5 51.9 5.4
6 6 -5 10.68 3.32
7 6 -5 50.62 6.07
8 6 -5 31.24 5.47
9 6 -5 6.83 4.09
0 6 -6 17.52 2.94
1 6 -6 20.27 3.24
-1 6 -6 24.16 3.38
2 6 -6 15.46 3.01
-2 6 -6 16.39 2.81
3 6 -6 6.07 2.16
-3 6 -6 6.87 2.09
4 6 -6 0.14 2.29
5 6 -6 11.5 3
6 6 -6 79.46 7.32
7 6 -6 2.9 2.81
8 6 -6 9.32 4.09
10 -6 -6 -2.98 4.11
0 6 -7 -1.07 1.68
1 6 -7 1 2.13
-1 6 -7 0.99 1.81
2 6 -7 21.56 3.55
-2 6 -7 20.39 3.22
3 6 -7 4.44 2.48
-3 6 -7 -2.79 2.28
4 6 -7 -1.01 2.38
5 6 -7 3.07 2.69
6 6 -7 3.89 3.24
7 6 -7 0.75 2.31
0 6 -8 14.55 2.79
1 6 -8 16.92 3.44
-1 6 -8 14.39 2.87
2 6 -8 7.64 2.88
-2 6 -8 4.46 2.11
3 6 -8 8.79 3.06
-3 6 -8 6.61 2.41
4 6 -8 -0.09 2.16
5 6 -8 0.19 2.34
6 6 -8 2.61 2.44
0 6 -9 -0.05 1.79
1 6 -9 4.43 2.4
-1 6 -9 5.8 2.47
2 6 -9 4.79 2.14
-2 6 -9 -0.84 2.09
3 6 -9 -2.79 2.66
4 6 -9 4.78 2.87
5 6 -9 13.4 3.65
2 6 -10 9.21 3.06
3 6 -10 8.18 2.87
0 7 0 0.88 1.5
1 7 0 -0.37 1.4
-1 7 0 2.13 1.7
2 7 0 65.66 4.86
3 7 0 0.8 1.44
4 7 0 5.14 2.21
5 7 0 -0.07 1.73
6 7 0 24.63 3.53
7 7 0 0.86 1.98
8 7 0 1.19 2.21
9 7 0 7.14 3.31
0 7 -1 5.43 2.19
0 7 1 5.46 1.96
1 7 -1 2.68 1.95
1 7 1 1.46 1.56
-1 7 -1 -0.81 1.61
2 7 -1 22.77 3.11
2 7 1 26.79 3.24
-2 7 -1 28.75 3.49
3 7 -1 0.57 1.68
3 7 1 2.11 1.47
4 7 -1 3.42 2.18
4 7 1 0.41 1.57
5 7 -1 17.69 3.29
5 7 1 19.43 3.11
6 7 1 47.46 4.6
6 7 -1 50.88 5
7 7 -1 6.2 2.49
7 7 1 9.53 2.67
8 7 -1 -3.15 2.87
9 7 -1 0.89 2.74
10 7 -1 8.22 3.8
0 7 -2 -2.1 1.82
-1 7 -2 59.05 4.97
1 7 2 56.55 4.29
2 7 2 38.92 3.74
2 7 -2 34.54 3.98
-2 7 -2 40.49 4.38
3 7 -2 10.86 2.73
3 7 2 14.75 2.39
4 7 -2 16.85 3.28
5 7 -2 2.44 2.01
6 7 -2 5.51 2.77
7 7 -2 14.74 3.43
8 7 -2 -6.82 3.57
9 7 -2 8.05 3.68
10 7 -2 17.1 4.49
0 7 -3 2.59 1.85
1 7 -3 9.41 2.64
-1 7 -3 8.21 2.48
2 7 -3 26.93 3.63
-2 7 -3 35.52 4.09
3 7 -3 55.58 5.18
4 7 -3 8.11 2.81
5 7 -3 24.86 3.82
6 7 -3 2.63 2.27
7 7 -3 9.65 3.55
8 7 -3 5.49 2.99
9 7 -3 0.52 2.71
0 7 -4 -2.71 1.94
1 7 -4 28.07 3.85
-1 7 -4 26.3 3.67
2 7 -4 6.95 2.32
-2 7 -4 7.27 2.4
3 7 -4 2.21 2.36
-3 7 -4 3.07 2.12
4 7 -4 9.98 3.04
5 7 -4 0.39 2.06
6 7 -4 -0.48 2
7 7 -4 7.3 3.39
8 7 -4 7.21 3.82
0 7 -5 40.84 4.55
1 7 -5 4.09 2.38
-1 7 -5 2.54 1.99
2 7 -5 3.1 2.37
-2 7 -5 7.98 2.69
3 7 -5 2.64 2.22
-3 7 -5 9.5 2.7
4 7 -5 0.1 2.32
5 7 -5 3.19 2.52
6 7 -5 0.23 2.71
7 7 -5 -3.07 3.38
0 7 -6 -1.31 2.09
1 7 -6 -5.14 2.85
-1 7 -6 2.83 2.27
2 7 -6 5.15 2.7
-2 7 -6 3 2.25
3 7 -6 -0.69 2.07
-3 7 -6 3.38 2.11
4 7 -6 1.98 2.72
5 7 -6 0.98 2.62
6 7 -6 0.92 2.23
0 7 -7 5.73 2.37
1 7 -7 -1.51 2.17
-1 7 -7 2.82 2.27
2 7 -7 8.35 2.93
-2 7 -7 9.18 2.77
3 7 -7 2.69 2.5
-3 7 -7 4.32 2.12
4 7 -7 -1.81 3.08
5 7 -7 1.43 2.85
0 7 -8 2.45 2.05
1 7 -8 1.91 2.15
-1 7 -8 4.72 2.11
2 7 -8 14.35 3.31
-2 7 -8 10.71 2.77
3 7 -8 4.16 2.69
-3 7 -8 -0.18 2.11
0 7 -9 18.9 3.64
-1 7 -9 1.47 2.02
-2 7 -9 6.49 2.8
0 8 0 326.19 11.93
1 8 0 -1.19 1.59
2 8 0 10.93 2.73
3 8 0 -0.94 1.86
4 8 0 12.22 2.88
5 8 0 1.24 1.9
6 8 0 59.91 5.72
7 8 0 -0.66 1.9
0 8 -1 1.21 1.96
0 8 1 1.51 1.61
1 8 -1 8.01 2.62
1 8 1 4.37 2.09
-1 8 -1 2.86 1.96
2 8 -1 53.69 5.09
2 8 1 54.03 4.81
3 8 -1 1.06 2.05
3 8 1 -1.7 1.94
4 8 -1 116.46 7.46
4 8 1 109.32 6.82
5 8 -1 1.02 1.99
6 8 -1 0.74 1.92
7 8 -1 -0.43 2.54
8 8 -1 14.64 3.6
0 8 -2 54.09 5.1
1 8 -2 -0.12 2.13
-1 8 -2 4.74 2.15
1 8 2 0.93 1.71
2 8 -2 12.86 2.97
3 8 -2 38.21 4.48
4 8 -2 11.08 2.78
5 8 -2 1.13 2.57
6 8 -2 8.79 2.82
7 8 -2 12.64 3.76
8 8 -2 6.79 2.94
0 8 -3 4.34 2.52
1 8 -3 32.81 4.46
-1 8 -3 22.79 3.73
2 8 -3 -1.77 2.51
-2 8 -3 0.73 2.25
3 8 -3 7.44 2.62
4 8 -3 1.06 2.02
5 8 -3 1.19 2.42
6 8 -3 -1.75 2.42
7 8 -3 0.08 3.03
0 8 -4 11.55 3.08
1 8 -4 2.16 2.34
-1 8 -4 3.04 2.23
2 8 -4 -1.3 2.09
-2 8 -4 -0.33 2.25
3 8 -4 6 3.09
4 8 -4 1.7 2.61
5 8 -4 -2.97 3.34
6 8 -4 -0.36 2.93
0 8 -5 2.55 2.17
1 8 -5 0.71 2.48
-1 8 -5 -2.09 2.21
2 8 -5 13.81 3.29
-2 8 -5 10.03 2.74
3 8 -5 4.54 3.25
4 8 -5 37.87 5.36
0 8 -6 50.83 5.54
1 8 -6 1.09 2.57
-1 8 -6 2.35 2.25
2 8 -6 10.08 3.2
-2 8 -6 8.74 3.14
0 9 0 0.46 2.11
1 9 0 -3.2 2.24
2 9 0 9.35 2.68
3 9 0 0.92 2.15
4 9 0 0.83 2.22
5 9 0 -3.61 2.81
0 9 -1 3.67 2.22
1 9 -1 -0.53 2.26
1 9 1 0.43 2.12
2 9 -1 8.59 2.84
2 9 1 3.68 1.87
3 9 -1 6.6 2.82
4 9 -1 1.83 2.61
5 9 -1 1.53 2.51
0 9 -2 0.63 2.34
1 9 -2 1.22 2.25
-1 9 -2 -2.14 2.42
2 9 -2 1.27 2.32
3 9 -2 0.61 2.01
4 9 -2 1.18 2.36
0 9 -3 -1.04 1.86
1 9 -3 -4.02 3.05
-1 9 -3 0.38 2.65
