#------------------------------------------------------------------------------
#$Date: 2019-11-24 17:14:38 +0200 (Sun, 24 Nov 2019) $
#$Revision: 238763 $
#$URL: file:///home/coder/svn-repositories/cod/cif/7/23/79/7237939.cif $
#------------------------------------------------------------------------------
#
# This file is available in the Crystallography Open Database (COD),
# http://www.crystallography.net/
#
# All data on this site have been placed in the public domain by the
# contributors.
#
data_7237939
loop_
_publ_author_name
'Garc\'ia-Fern\'andez, Alberto'
'Juarez-Perez, Emilio Jose'
'Berm\'udez-Garc\'ia, Juan Manuel'
'Llamas-Saiz, Antonio Luis'
'Artiaga, Ram\'on'
'L\'opez-Beceiro, Jorge Jose'
'Se\~nar\'is-Rodr\'iguez, Mar\'ia Antonia'
'S\'anchez-And\'ujar, Manuel'
'Castro-Garc\'ia, Socorro'
_publ_section_title
;
 Hybrid lead halide [(CH3)2NH2]PbX3 (X = Cl&#x2212; and Br&#x2212;)
 hexagonal perovskites with multiple functional properties
;
_journal_issue                   32
_journal_name_full               'Journal of Materials Chemistry C'
_journal_page_first              10008
_journal_paper_doi               10.1039/C9TC03543E
_journal_volume                  7
_journal_year                    2019
_chemical_formula_moiety         'Cl3 Pb'
_chemical_formula_sum            'Cl3 Pb'
_chemical_formula_weight         313.54
_chemical_name_common            'DMAPbCl3D - T320K'
_space_group_crystal_system      hexagonal
_space_group_IT_number           194
_space_group_name_Hall           '-P 6c 2c'
_space_group_name_H-M_alt        'P 63/m m c'
_atom_sites_solution_hydrogens   difmap
_atom_sites_solution_primary     dual
_atom_sites_solution_secondary   difmap
_audit_update_record
;
2018-07-13 deposited with the CCDC.	2019-07-23 downloaded from the CCDC.
;
_cell_angle_alpha                90
_cell_angle_beta                 90
_cell_angle_gamma                120
_cell_formula_units_Z            4
_cell_length_a                   8.3732(3)
_cell_length_b                   8.3732(3)
_cell_length_c                   13.9808(9)
_cell_measurement_reflns_used    2830
_cell_measurement_temperature    320.(2)
_cell_measurement_theta_max      20.8441
_cell_measurement_theta_min      2.8090
_cell_volume                     848.88(7)
_computing_cell_refinement       'SAINT V8.38A (Bruker AXS Inc., 2017)'
_computing_data_collection       'Bruker APEX3 software'
_computing_data_reduction        'SAINT V8.38A (Bruker AXS Inc., 2017)'
_computing_molecular_graphics    'shelXle (C.B. Huebschle, rev 833)'
_computing_structure_refinement  'SHELXL-2016/6 (Sheldrick, 2016)'
_computing_structure_solution    'SHELXT 2014/5 (Sheldrick, 2014)'
_diffrn_ambient_temperature      320.(2)
_diffrn_detector_area_resol_mean 16.6666
_diffrn_measured_fraction_theta_full 1.000
_diffrn_measured_fraction_theta_max 1.000
_diffrn_measurement_device       '\k--geometry diffractometer'
_diffrn_measurement_device_type  'Bruker AXS X8 APEX-II'
_diffrn_measurement_method       '\f or \w oscillation scans'
_diffrn_radiation_monochromator  graphite
_diffrn_radiation_type           MoK\a
_diffrn_radiation_wavelength     0.71073
_diffrn_reflns_av_R_equivalents  0.0419
_diffrn_reflns_av_unetI/netI     0.0228
_diffrn_reflns_limit_h_max       0
_diffrn_reflns_limit_h_min       -4
_diffrn_reflns_limit_k_max       9
_diffrn_reflns_limit_k_min       0
_diffrn_reflns_limit_l_max       15
_diffrn_reflns_limit_l_min       0
_diffrn_reflns_number            806
_diffrn_reflns_theta_full        23.85
_diffrn_reflns_theta_max         23.85
_diffrn_reflns_theta_min         2.81
_diffrn_source                   'sealed x-ray tube'
_diffrn_source_type              'SIEMENS KFN MO 2K-90'
_exptl_absorpt_coefficient_mu    20.702
_exptl_absorpt_correction_T_max  0.51
_exptl_absorpt_correction_T_min  0.10
_exptl_absorpt_correction_type   multi-scan
_exptl_absorpt_process_details
'TWINABS - Bruker AXS scaling for twinned crystals - Version 2012/1'
_exptl_crystal_colour            'clear colourless'
_exptl_crystal_density_diffrn    2.453
_exptl_crystal_density_method    'not measured'
_exptl_crystal_description       plate
_exptl_crystal_F_000             532
_exptl_crystal_recrystallization_method 'Re-crystallisation from solvent: DMF'
_exptl_crystal_size_max          0.278
_exptl_crystal_size_mid          0.168
_exptl_crystal_size_min          0.038
_refine_diff_density_max         0.467
_refine_diff_density_min         -0.670
_refine_ls_extinction_method     none
_refine_ls_goodness_of_fit_ref   1.097
_refine_ls_hydrogen_treatment    undef
_refine_ls_matrix_type           full
_refine_ls_number_parameters     13
_refine_ls_number_reflns         806
_refine_ls_number_restraints     0
_refine_ls_restrained_S_all      1.097
_refine_ls_R_factor_all          0.0653
_refine_ls_R_factor_gt           0.0517
_refine_ls_shift/su_max          0.000
_refine_ls_shift/su_mean         0.000
_refine_ls_structure_factor_coef Fsqd
_refine_ls_weighting_details
'w=1/[\s^2^(Fo^2^)+(0.0877P)^2^+5.0882P] where P=(Fo^2^+2Fc^2^)/3'
_refine_ls_weighting_scheme      calc
_refine_ls_wR_factor_gt          0.1458
_refine_ls_wR_factor_ref         0.1580
_reflns_number_gt                655
_reflns_number_total             806
_reflns_threshold_expression     'I > 2\s(I)'
_cod_data_source_file            c9tc03543e2.cif
_cod_data_source_block           8_T320K_17CGC005
_cod_depositor_comments
;
The following automatic conversions were performed:

data item '_exptl_absorpt_correction_type' value 'Multi-Scan' was
changed to 'multi-scan' in accordance with the
/home/saulius/struct/COD-crude-data/automatic-downloads/DataCite-retrospective/RSC/depositions/lib/dictionaries/cif_core.dic
dictionary named 'cif_core.dic' version 2.4.2 last updated on
2011-04-26.

Automatic conversion script
Id: cif_fix_values 6909 2019-04-08 15:41:33Z antanas 
;
_cod_original_cell_volume        848.88(8)
_cod_database_code               7237939
_shelx_res_file
;

TITL 17CGC005_T320K_4_a.res in P6(3)/mmc
    17cgc005_t320k_5_sq.res
    created by SHELXL-2016/6 at 12:39:55 on 18-Dec-2017
REM Old TITL 17CGC005_T320K_4 in P6(3)/mmc

REM SHELXT solution in P6(3)/mmc
REM R1 0.085,  Rweak 0.009,  Alpha 0.025,  Orientation as input
REM Formula found by SHELXT:  Cl3 Pb

CELL  0.71073   8.3732   8.3732  13.9808   90.000   90.000  120.000
ZERR    4.000   0.0003   0.0003   0.0009    0.000    0.000    0.000
LATT  1
SYMM -Y, X-Y, Z
SYMM -X+Y, -X, Z
SYMM -X, -Y, 1/2+Z
SYMM Y, -X+Y, 1/2+Z
SYMM X-Y, X, 1/2+Z
SYMM Y, X, -Z
SYMM X-Y, -Y, -Z
SYMM -X, -X+Y, -Z
SYMM -Y, -X, 1/2-Z
SYMM -X+Y, Y, 1/2-Z
SYMM X, X-Y, 1/2-Z
SFAC CL PB
UNIT 12 4
LIST 4 ! automatically inserted. Change 6 to 4 for CHECKCIF!!
TEMP 46.840
SIZE 0.038 0.168 0.278
MERG 0
ACTA
WPDB -2
L.S. 12 0    3
FMAP 2
PLAN 20
BOND
CONF  3.1 175
ABIN
WGHT    0.087700    5.088200
BASF   0.26131
FVAR       0.38930
PB01  2    0.333333    0.666667    0.388576    10.16667    0.07476    0.07476 =
         0.07715    0.00000    0.00000    0.03738
CL02  1    0.189291    0.810709    0.250000    10.25000    0.18350    0.18350 =
         0.15809    0.00000    0.00000    0.14720
CL03  1    0.500000    1.000000    0.500000    10.25000    0.23715    0.12775 =
         0.22160   -0.06094   -0.03047    0.06387
HKLF 5




REM  17CGC005_T320K_4_a.res in P6(3)/mmc
REM R1 =  0.0517 for     655 Fo > 4sig(Fo)  and  0.0653 for all     806 data
REM     13 parameters refined using      0 restraints

END

WGHT      0.0877      5.0882

REM Highest difference peak  0.467,  deepest hole -0.670,  1-sigma level  0.132
Q1    1   0.4306  1.0000  0.5000  10.50000  0.05    0.47
Q2    1   0.4389  1.0323  0.6079  11.00000  0.05    0.46
Q3    1   0.6667  1.3333  0.2500  10.08333  0.05    0.46
Q4    1   0.3333  0.6667  0.2500  10.08333  0.05    0.42
Q5    1   0.2624  0.7376  0.1961  10.50000  0.05    0.38
Q6    1   0.4460  0.8919  0.3899  10.50000  0.05    0.36
Q7    1   0.4015  0.8031  0.3072  10.50000  0.05    0.34
Q8    1   0.3802  0.7605  0.2500  10.25000  0.05    0.34
Q9    1   0.3797  0.7593  0.7242  10.50000  0.05    0.34
Q10   1  -0.0993  0.8014  0.2500  10.25000  0.05    0.33
Q11   1   0.1780  0.6781  0.1966  11.00000  0.05    0.33
Q12   1   0.3333  0.6667  0.5995  10.16667  0.05    0.33
Q13   1   0.0000  1.0000  0.2500  10.08333  0.05    0.32
Q14   1   0.1123  0.7475  0.2100  11.00000  0.05    0.31
Q15   1   0.2514  0.5027  0.4717  10.50000  0.05    0.29
Q16   1   0.0467  0.9533  0.0964  10.50000  0.05    0.29
Q17   1  -0.2575  0.4850  0.2500  10.25000  0.05    0.27
Q18   1  -0.0397  0.9205  0.0990  10.50000  0.05    0.26
Q19   1   0.3333  0.6667  0.5155  10.16667  0.05    0.25
Q20   1   0.1770  0.8230  0.2110  10.50000  0.05    0.25
;
_shelx_res_checksum              971
_shelx_fab_file
;
    0    1    0     19.73      0.00
   -1    2    0     40.49      0.00
    0    2    0      9.55      0.00
   -1    3    0     10.50      0.00
    0    3    0      8.93      0.00
   -2    4    0      4.55      0.00
   -1    4    0      2.99      0.00
    0    4    0      2.48      0.00
   -2    5    0      0.25      0.00
   -1    5    0     -0.08      0.00
    0    5    0      2.13      0.00
   -3    6    0     -1.60      0.00
   -2    6    0      1.09      0.00
   -1    6    0     -0.34      0.00
    0    6    0      1.08      0.00
   -3    7    0      0.36      0.00
   -2    7    0      0.52      0.00
   -1    7    0      0.36      0.00
    0    7    0     -1.50      0.00
   -4    8    0      1.85      0.00
   -3    8    0      0.71      0.00
   -2    8    0     -1.08      0.00
   -1    8    0     -0.69      0.00
    0    8    0      1.15      0.00
   -4    9    0      0.65      0.00
   -3    9    0      1.14      0.00
   -2    9    0      1.71      0.00
    0    1    1    -27.76      0.00
    0    2    1      7.37      0.00
   -1    3    1     -4.27      0.00
    0    3    1      2.59      0.00
   -1    4    1     -0.65      0.00
    0    4    1     -0.04      0.00
   -2    5    1      0.69      0.00
   -1    5    1     -1.60      0.00
    0    5    1     -0.77      0.00
   -2    6    1     -0.76      0.00
   -1    6    1     -0.50      0.00
    0    6    1     -1.31      0.00
   -3    7    1      0.25      0.00
   -2    7    1     -1.28      0.00
   -1    7    1     -0.24      0.00
    0    7    1     -0.73      0.00
   -3    8    1      0.27      0.00
   -2    8    1     -0.86      0.00
   -1    8    1     -1.84      0.00
    0    8    1     -0.90      0.00
   -4    9    1     -0.60      0.00
   -3    9    1     -0.73      0.00
   -2    9    1      0.07      0.00
    0    0    2     -7.65      0.00
    0    1    2     31.51      0.00
   -1    2    2      0.78      0.00
    0    2    2     16.58      0.00
   -1    3    2      5.44      0.00
    0    3    2      2.66      0.00
   -2    4    2      1.45      0.00
   -1    4    2      1.73      0.00
    0    4    2     -0.22      0.00
   -2    5    2     -0.97      0.00
   -1    5    2     -0.31      0.00
    0    5    2     -0.84      0.00
   -3    6    2     -0.18      0.00
   -2    6    2     -2.29      0.00
   -1    6    2     -0.59      0.00
    0    6    2     -0.51      0.00
   -3    7    2     -1.17      0.00
   -2    7    2     -1.46      0.00
   -1    7    2     -0.61      0.00
    0    7    2     -1.54      0.00
   -4    8    2     -0.43      0.00
   -3    8    2     -0.93      0.00
   -2    8    2     -0.85      0.00
   -1    8    2     -1.06      0.00
    0    8    2     -1.85      0.00
   -4    9    2     -0.44      0.00
   -3    9    2     -1.11      0.00
   -2    9    2      0.34      0.00
    0    1    3     12.58      0.00
    0    2    3     -3.90      0.00
   -1    3    3      1.21      0.00
    0    3    3     -2.47      0.00
   -1    4    3      0.34      0.00
    0    4    3     -0.37      0.00
   -2    5    3     -0.69      0.00
   -1    5    3     -0.60      0.00
    0    5    3     -0.72      0.00
   -2    6    3     -0.16      0.00
   -1    6    3     -0.95      0.00
    0    6    3     -1.91      0.00
   -3    7    3     -1.17      0.00
   -2    7    3     -0.79      0.00
   -1    7    3     -0.06      0.00
    0    7    3     -0.95      0.00
   -3    8    3     -0.23      0.00
   -2    8    3      0.93      0.00
   -1    8    3     -2.00      0.00
    0    8    3     -1.32      0.00
   -4    9    3     -0.37      0.00
   -3    9    3     -0.56      0.00
    0    0    4      9.54      0.00
    0    1    4     -2.99      0.00
   -1    2    4      2.68      0.00
    0    2    4     -1.48      0.00
   -1    3    4      0.92      0.00
    0    3    4     -1.63      0.00
   -2    4    4     -0.78      0.00
   -1    4    4     -1.82      0.00
    0    4    4     -1.35      0.00
   -2    5    4     -1.22      0.00
   -1    5    4     -2.16      0.00
    0    5    4     -1.52      0.00
   -3    6    4     -2.72      0.00
   -2    6    4     -1.31      0.00
   -1    6    4     -0.73      0.00
    0    6    4     -2.21      0.00
   -3    7    4     -1.41      0.00
   -2    7    4     -1.85      0.00
   -1    7    4     -2.68      0.00
    0    7    4      0.92      0.00
   -4    8    4     -3.02      0.00
   -3    8    4     -2.12      0.00
   -2    8    4      0.06      0.00
   -1    8    4     -0.18      0.00
   -4    9    4     -1.97      0.00
   -3    9    4     -0.10      0.00
    0    1    5     -1.79      0.00
    0    2    5     -3.14      0.00
   -1    3    5      0.48      0.00
    0    3    5      1.08      0.00
   -1    4    5     -0.65      0.00
    0    4    5      0.61      0.00
   -2    5    5      0.11      0.00
   -1    5    5     -0.58      0.00
    0    5    5     -1.06      0.00
   -2    6    5     -0.74      0.00
   -1    6    5      0.77      0.00
    0    6    5      1.80      0.00
   -3    7    5      0.94      0.00
   -2    7    5      1.76      0.00
   -1    7    5     -0.80      0.00
    0    7    5     -0.53      0.00
   -3    8    5      0.31      0.00
   -2    8    5     -0.37      0.00
   -1    8    5      1.74      0.00
   -4    9    5      0.11      0.00
    0    0    6     -5.18      0.00
    0    1    6     -1.30      0.00
   -1    2    6      3.24      0.00
    0    2    6      0.75      0.00
   -1    3    6     -2.30      0.00
    0    3    6      0.75      0.00
   -2    4    6     -1.05      0.00
   -1    4    6     -2.09      0.00
    0    4    6     -1.59      0.00
   -2    5    6     -0.72      0.00
   -1    5    6     -0.51      0.00
    0    5    6     -3.26      0.00
   -3    6    6      0.22      0.00
   -2    6    6     -1.60      0.00
   -1    6    6     -2.39      0.00
    0    6    6     -0.11      0.00
   -3    7    6     -1.74      0.00
   -2    7    6     -0.06      0.00
   -1    7    6      0.77      0.00
    0    7    6     -1.80      0.00
   -4    8    6     -1.30      0.00
   -3    8    6     -0.33      0.00
   -2    8    6     -0.69      0.00
   -1    8    6      0.63      0.00
    0    1    7      0.40      0.00
    0    2    7      3.09      0.00
   -1    3    7     -2.08      0.00
    0    3    7     -2.01      0.00
   -1    4    7     -0.77      0.00
    0    4    7     -3.00      0.00
   -2    5    7     -1.13      0.00
   -1    5    7      0.97      0.00
    0    5    7     -0.03      0.00
   -2    6    7      1.02      0.00
   -1    6    7     -1.60      0.00
    0    6    7     -1.78      0.00
   -3    7    7     -0.53      0.00
   -2    7    7     -0.47      0.00
   -1    7    7      0.93      0.00
    0    7    7     -0.01      0.00
   -3    8    7      0.01      0.00
   -2    8    7      0.15      0.00
    0    0    8      6.72      0.00
    0    1    8      2.50      0.00
   -1    2    8      0.75      0.00
    0    2    8      1.54      0.00
   -1    3    8      1.85      0.00
    0    3    8     -1.08      0.00
   -2    4    8     -1.25      0.00
   -1    4    8      1.12      0.00
    0    4    8     -1.24      0.00
   -2    5    8     -0.27      0.00
   -1    5    8     -0.71      0.00
    0    5    8      1.62      0.00
   -3    6    8     -1.62      0.00
   -2    6    8      1.78      0.00
   -1    6    8      0.49      0.00
    0    6    8     -1.20      0.00
   -3    7    8      0.09      0.00
   -2    7    8     -0.46      0.00
   -1    7    8     -0.13      0.00
    0    7    8      1.85      0.00
   -4    8    8     -0.21      0.00
   -3    8    8      0.29      0.00
    0    1    9     -1.80      0.00
    0    2    9     -0.81      0.00
   -1    3    9      0.41      0.00
    0    3    9     -1.46      0.00
   -1    4    9     -1.28      0.00
    0    4    9     -1.24      0.00
   -2    5    9      1.23      0.00
   -1    5    9     -2.47      0.00
    0    5    9     -0.89      0.00
   -2    6    9     -0.48      0.00
   -1    6    9      0.16      0.00
    0    6    9     -0.47      0.00
   -3    7    9      1.28      0.00
   -2    7    9     -1.01      0.00
   -1    7    9     -2.10      0.00
    0    0   10     -3.34      0.00
    0    1   10      0.64      0.00
   -1    2   10     -1.88      0.00
    0    2   10     -0.39      0.00
   -1    3   10     -0.57      0.00
    0    3   10      0.36      0.00
   -2    4   10      1.11      0.00
   -1    4   10      0.67      0.00
    0    4   10      2.78      0.00
   -2    5   10      1.02      0.00
   -1    5   10      1.28      0.00
    0    5   10      0.98      0.00
   -3    6   10      1.80      0.00
   -2    6   10     -0.81      0.00
   -1    6   10      0.98      0.00
    0    6   10      1.09      0.00
   -3    7   10     -0.33      0.00
   -2    7   10      0.63      0.00
    0    1   11      2.17      0.00
    0    2   11     -0.18      0.00
   -1    3   11      0.49      0.00
    0    3   11     -1.08      0.00
   -1    4   11     -1.12      0.00
    0    4   11     -0.21      0.00
   -2    5   11     -0.04      0.00
   -1    5   11      0.48      0.00
    0    5   11     -0.85      0.00
   -2    6   11      0.59      0.00
   -1    6   11      0.01      0.00
    0    0   12      1.68      0.00
    0    1   12     -2.13      0.00
   -1    2   12     -0.39      0.00
    0    2   12     -2.39      0.00
   -1    3   12      0.14      0.00
    0    3   12      1.30      0.00
   -2    4   12      2.70      0.00
   -1    4   12      0.56      0.00
    0    4   12      0.88      0.00
   -2    5   12      0.81      0.00
   -1    5   12      1.87      0.00
    0    5   12      1.24      0.00
   -3    6   12      0.53      0.00
   -2    6   12      0.59      0.00
    0    1   13     -1.13      0.00
    0    2   13      0.18      0.00
   -1    3   13     -1.00      0.00
    0    3   13      1.07      0.00
   -1    4   13      0.79      0.00
    0    4   13     -0.45      0.00
   -2    5   13     -1.34      0.00
   -1    5   13     -0.03      0.00
    0    0   14     -0.89      0.00
    0    1   14     -0.10      0.00
   -1    2   14     -0.81      0.00
    0    2   14      0.46      0.00
   -1    3   14      0.01      0.00
    0    3   14     -0.42      0.00
   -2    4   14     -1.00      0.00
   -1    4   14      0.72      0.00
    0    1   15      0.15      0.00
    0    2   15     -0.12      0.00
   -1    3   15      0.38      0.00
    0    8    4     -1.03      0.00
   -2    8    8      0.63      0.00
    0    6   11     -0.29      0.00
    0    4   14     -0.06      0.00
    0    0   16     -0.39      0.00
    0    0    0      0.00      0.00
# SQUEEZE RESULTS (Version = 121217)
# Note: Data are Listed for all Voids in the P1 Unit Cell
# i.e. Centre of Gravity, Solvent Accessible Volume,
# Recovered number of Electrons in the Void and
# Details about the Squeezed Material
loop_
  _platon_squeeze_void_nr
  _platon_squeeze_void_average_x
  _platon_squeeze_void_average_y
  _platon_squeeze_void_average_z
  _platon_squeeze_void_volume
  _platon_squeeze_void_count_electrons
  _platon_squeeze_void_content
   1 -0.032 -0.023 -0.003       398        71 ' '
_platon_squeeze_void_probe_radius                  1.20
_platon_squeeze_details
)
TITL 17CGC005_TP 63/m m c   R = 0.07
CELL    8.3732    8.3732   13.9808     90.00     90.00    120.00
SPGR P63/mmc
# Solvent Accessible Volume =       397
# Electrons Found in S.A.V. =        67
# Note: Atoms in Void are Labelled as Cxxx and Qxxx for all Others
C101 0.999 0.999 0.407 !       2.34 eA-3
C102 0.336 0.637 0.832 !       1.91 eA-3
C103 0.089 0.070 0.464 !       1.75 eA-3
C104 0.714 0.281 0.252 !       1.68 eA-3
Q105 0.298 0.597 0.116 !       1.33 eA-3
Q106 0.847 0.594 0.247 !       1.11 eA-3
C107 0.953 0.049 0.133 !       0.85 eA-3
Q108 0.501 0.762 0.469 !       0.66 eA-3
Q109 1.000 1.000 0.250 !       0.66 eA-3
Q110 0.169 0.799 0.924 !       0.57 eA-3
Q111 0.437 1.001 0.500 !       0.56 eA-3
Q112 0.140 0.875 0.243 !       0.53 eA-3
Q113 0.433 0.444 0.390 !       0.53 eA-3
Q114 0.062 0.899 0.127 !       0.52 eA-3
)
;
_shelx_fab_checksum              33149
loop_
_space_group_symop_operation_xyz
'x, y, z'
'-y, x-y, z'
'-x+y, -x, z'
'-x, -y, z+1/2'
'y, -x+y, z+1/2'
'x-y, x, z+1/2'
'y, x, -z'
'x-y, -y, -z'
'-x, -x+y, -z'
'-y, -x, -z+1/2'
'-x+y, y, -z+1/2'
'x, x-y, -z+1/2'
'-x, -y, -z'
'y, -x+y, -z'
'x-y, x, -z'
'x, y, -z-1/2'
'-y, x-y, -z-1/2'
'-x+y, -x, -z-1/2'
'-y, -x, z'
'-x+y, y, z'
'x, x-y, z'
'y, x, z-1/2'
'x-y, -y, z-1/2'
'-x, -x+y, z-1/2'
loop_
_atom_site_type_symbol
_atom_site_label
_atom_site_fract_x
_atom_site_fract_y
_atom_site_fract_z
_atom_site_U_iso_or_equiv
_atom_site_adp_type
_atom_site_calc_flag
_atom_site_refinement_flags_adp
_atom_site_refinement_flags_occupancy
_atom_site_refinement_flags_posn
_atom_site_occupancy
Pb Pb01 0.333333 0.666667 0.38858(11) 0.0756(8) Uani d T P S 1
Cl Cl02 0.1893(7) 0.8107(7) 0.25 0.150(5) Uani d T P S 1
Cl Cl03 0.5 1.0 0.5 0.208(8) Uani d T P S 1
loop_
_atom_site_aniso_label
_atom_site_aniso_U_11
_atom_site_aniso_U_22
_atom_site_aniso_U_33
_atom_site_aniso_U_12
_atom_site_aniso_U_13
_atom_site_aniso_U_23
Pb01 0.0748(9) 0.0748(9) 0.0772(11) 0.0374(4) 0 0
Cl02 0.184(11) 0.184(11) 0.158(12) 0.147(12) 0 0
Cl03 0.237(15) 0.128(10) 0.22(2) 0.064(5) -0.030(6) -0.061(11)
loop_
_atom_type_symbol
_atom_type_description
_atom_type_scat_dispersion_real
_atom_type_scat_dispersion_imag
_atom_type_scat_source
Cl Cl 0.1484 0.1585 'International Tables Vol C Tables 4.2.6.8 and 6.1.1.4'
Pb Pb -3.3944 10.1111 'International Tables Vol C Tables 4.2.6.8 and 6.1.1.4'
loop_
_geom_angle_atom_site_label_1
_geom_angle_atom_site_label_2
_geom_angle_atom_site_label_3
_geom_angle_site_symmetry_1
_geom_angle_site_symmetry_3
_geom_angle
Cl02 Pb01 Cl02 2_665 3_565 78.8(2)
Cl02 Pb01 Cl02 2_665 . 78.8(2)
Cl02 Pb01 Cl02 3_565 . 78.8(2)
Cl02 Pb01 Cl03 2_665 . 169.96(15)
Cl02 Pb01 Cl03 3_565 . 93.45(10)
Cl02 Pb01 Cl03 . . 93.45(10)
Cl02 Pb01 Cl03 2_665 2_665 93.45(10)
Cl02 Pb01 Cl03 3_565 2_665 169.96(15)
Cl02 Pb01 Cl03 . 2_665 93.45(10)
Cl03 Pb01 Cl03 . 2_665 93.43(4)
Cl02 Pb01 Cl03 2_665 3_565 93.45(9)
Cl02 Pb01 Cl03 3_565 3_565 93.45(9)
Cl02 Pb01 Cl03 . 3_565 169.96(15)
Cl03 Pb01 Cl03 . 3_565 93.43(4)
Cl03 Pb01 Cl03 2_665 3_565 93.43(4)
Pb01 Cl02 Pb01 16_556 . 85.7(3)
Pb01 Cl03 Pb01 . 13_676 180.0
loop_
_geom_bond_atom_site_label_1
_geom_bond_atom_site_label_2
_geom_bond_site_symmetry_2
_geom_bond_distance
Pb01 Cl02 2_665 2.849(8)
Pb01 Cl02 3_565 2.849(7)
Pb01 Cl02 . 2.849(7)
Pb01 Cl03 . 2.8756(9)
Pb01 Cl03 2_665 2.8756(9)
Pb01 Cl03 3_565 2.8756(9)
loop_
_geom_torsion_atom_site_label_1
_geom_torsion_atom_site_label_2
_geom_torsion_atom_site_label_3
_geom_torsion_atom_site_label_4
_geom_torsion_site_symmetry_1
_geom_torsion_site_symmetry_4
_geom_torsion
Cl02 Pb01 Cl02 Pb01 2_665 16_556 -40.33(8)
Cl02 Pb01 Cl02 Pb01 3_565 16_556 40.33(7)
Cl03 Pb01 Cl02 Pb01 . 16_556 133.175(19)
Cl03 Pb01 Cl02 Pb01 2_665 16_556 -133.175(19)
Cl03 Pb01 Cl02 Pb01 3_565 16_556 0.000(2)
