#------------------------------------------------------------------------------
#$Date: 2020-11-06 15:19:06 +0200 (Fri, 06 Nov 2020) $
#$Revision: 258985 $
#$URL: file:///home/coder/svn-repositories/cod/cif/7/24/09/7240944.cif $
#------------------------------------------------------------------------------
#
# This file is available in the Crystallography Open Database (COD),
# http://www.crystallography.net/
#
# All data on this site have been placed in the public domain by the
# contributors.
#
data_7240944
loop_
_publ_author_name
'Richardson, Jonathan G.'
'Benjamin, Helen'
'Moggach, Stephen A.'
'Warren, Lisette R.'
'Warren, Mark R.'
'Allan, David R.'
'Saunders, Lucy K.'
'Morrison, Carole A.'
'Robertson, Neil'
_publ_section_title
;
 Probing the structural and electronic response of Magnus green salt
 compounds [Pt(NH<sub>2</sub>R)<sub>4</sub>][PtCl<sub>4</sub>] (R = H,
 CH<sub>3</sub>) to pressure.
;
_journal_issue                   31
_journal_name_full               'Physical chemistry chemical physics : PCCP'
_journal_page_first              17668
_journal_page_last               17676
_journal_paper_doi               10.1039/d0cp03280h
_journal_volume                  22
_journal_year                    2020
_chemical_formula_moiety         'Cl4 Pt, H12 N4 Pt'
_chemical_formula_sum            'Cl4 H12 N4 Pt2'
_chemical_formula_weight         600.11
_chemical_melting_point          ?
_space_group_IT_number           128
_space_group_name_Hall           '-P 4 2n'
_space_group_name_H-M_alt        'P 4/m n c'
_symmetry_cell_setting           tetragonal
_symmetry_space_group_name_Hall  '-P 4 2n'
_symmetry_space_group_name_H-M   'P 4/m n c'
_atom_sites_solution_hydrogens   difmap
_atom_sites_solution_primary     direct
_audit_creation_date             2020-06-15
_audit_creation_method           CRYSTALS_ver_14.61_build_6999
_audit_update_record
;
2020-06-15 deposited with the CCDC.	2020-07-24 downloaded from the CCDC.
;
_cell_angle_alpha                90
_cell_angle_beta                 90
_cell_angle_gamma                90
_cell_formula_units_Z            2
_cell_length_a                   8.7220(11)
_cell_length_b                   8.7220(11)
_cell_length_c                   6.1933(11)
_cell_measurement_reflns_used    500
_cell_measurement_temperature    293
_cell_measurement_theta_max      17
_cell_measurement_theta_min      4
_cell_volume                     471.14(12)
_computing_cell_refinement       'USER DEFINED CELL REFINEMENT'
_computing_data_collection       'USER DEFINED DATA COLLECTION'
_computing_data_reduction
; 
 CrysAlisPro (Rigaku Oxford Diffraction, 2017) 
;
_computing_molecular_graphics    'CAMERON (Watkin et al., 1996)'
_computing_publication_material  'CRYSTALS (Betteridge et al., 2003)'
_computing_structure_refinement  'CRYSTALS (Betteridge et al., 2003)'
_computing_structure_solution    'SIR92 (Altomare et al., 1994)'
_diffrn_ambient_pressure         2710000
_diffrn_ambient_temperature      293
_diffrn_detector                 'CCD plate'
_diffrn_measured_fraction_theta_full 0.882
_diffrn_measured_fraction_theta_max 0.857
_diffrn_measurement_device       'abstract diffractometer'
_diffrn_measurement_device_type
'dectris-CrysAlisPro-abstract goniometer imported dectris images'
_diffrn_measurement_method       \w
_diffrn_radiation_monochromator  synchrotron
_diffrn_radiation_probe          x-ray
_diffrn_radiation_type           synchrotron
_diffrn_radiation_wavelength     0.48590
_diffrn_reflns_av_R_equivalents  0.118
_diffrn_reflns_limit_h_max       8
_diffrn_reflns_limit_h_min       -8
_diffrn_reflns_limit_k_max       9
_diffrn_reflns_limit_k_min       -9
_diffrn_reflns_limit_l_max       7
_diffrn_reflns_limit_l_min       -7
_diffrn_reflns_number            1415
_diffrn_reflns_theta_full        14.921
_diffrn_reflns_theta_max         16.579
_diffrn_reflns_theta_min         2.258
_diffrn_source                   synchrotron
_diffrn_standards_number         0
_exptl_absorpt_coefficient_mu    11.377
_exptl_absorpt_correction_T_max  0.74
_exptl_absorpt_correction_T_min  0.28
_exptl_absorpt_correction_type   multi-scan
_exptl_absorpt_process_details   'DENZO/SCALEPACK (Otwinowski & Minor, 1997)'
_exptl_crystal_colour            green
_exptl_crystal_density_diffrn    4.230
_exptl_crystal_density_method    'not measured'
_exptl_crystal_description       needle
_exptl_crystal_F_000             528
_exptl_crystal_size_max          0.100
_exptl_crystal_size_mid          0.010
_exptl_crystal_size_min          0.010
_refine_diff_density_max         4.07
_refine_diff_density_min         -5.36
_refine_ls_extinction_method     None
_refine_ls_goodness_of_fit_ref   1.0377
_refine_ls_hydrogen_treatment    constr
_refine_ls_matrix_type           full
_refine_ls_number_parameters     18
_refine_ls_number_reflns         191
_refine_ls_number_restraints     2
_refine_ls_R_factor_all          0.0937
_refine_ls_R_factor_gt           0.0871
_refine_ls_shift/su_max          0.0009689
_refine_ls_shift/su_mean         0.0000721
_refine_ls_structure_factor_coef Fsqd
_refine_ls_weighting_details
;
 Method= Modified Sheldrick 
 w=1/[\s^2^(F^2^) + ( 0.17P)^2^ + 0.00P] 
 ,where P=(max(Fo^2^,0) + 2Fc^2^)/3 
;
_refine_ls_weighting_scheme      calc
_refine_ls_wR_factor_all         0.2254
_refine_ls_wR_factor_gt          0.2080
_refine_ls_wR_factor_ref         0.2165
_reflns_limit_h_max              7
_reflns_limit_h_min              0
_reflns_limit_k_max              9
_reflns_limit_k_min              0
_reflns_limit_l_max              7
_reflns_limit_l_min              0
_reflns_number_gt                137
_reflns_number_total             193
_reflns_threshold_expression     I>2.0\s(I)
_oxford_diffrn_Wilson_B_factor   0.00
_oxford_diffrn_Wilson_scale      0.00
_oxford_refine_ls_r_factor_ref   0.0830
_oxford_refine_ls_scale          0.05490(12)
_oxford_reflns_number_all        192
_oxford_structure_analysis_title 'final in P4/mnc'
_iucr_refine_instructions_details
;
#
# Punched on 15/06/20 at 21:01:18
#
#LIST     12                                                                    
BLOCK SCALE X'S  U'S 
RIDE N   (   1,X'S) H   (  12,X'S) H   (  11,X'S) 
END                                                                             
#
# Punched on 15/06/20 at 21:01:18
#
#LIST     16                                                                    
NO 
REM   HREST   START (DO NOT REMOVE THIS LINE) 
REM   HREST   END (DO NOT REMOVE THIS LINE) 
END                                                                             
;
_cod_data_source_file            d0cp03280h2.cif
_cod_data_source_block           MagNH3_270GPa
_cod_depositor_comments
;
The following automatic conversions were performed:

data item '_chemical_melting_point' value 'not measured' was changed
to '?' -- the value is undefined or not given.

Automatic conversion script
Id: cif_fix_values 7556 2019-12-06 15:28:31Z antanas 

 Adding full bibliography for 7240937--7240954.cif.
;
_cod_original_cell_volume        471.14(14)
_cod_original_sg_symbol_Hall     '-P 4 2n '
_cod_original_sg_symbol_H-M      'P 4/m n c '
_cod_database_code               7240944
_oxford_refine_reflns_threshold_expression_ref I>-3.0\s(I)
loop_
_symmetry_equiv_pos_as_xyz
x,y,z
-x,-y,-z
-y,x,z
y,-x,-z
-x,-y,z
x,y,-z
y,-x,z
-y,x,-z
-x+1/2,y+1/2,z+1/2
x+1/2,-y+1/2,-z+1/2
y+1/2,x+1/2,z+1/2
-y+1/2,-x+1/2,-z+1/2
x+1/2,-y+1/2,z+1/2
-x+1/2,y+1/2,-z+1/2
-y+1/2,-x+1/2,z+1/2
y+1/2,x+1/2,-z+1/2
loop_
_atom_site_label
_atom_site_type_symbol
_atom_site_fract_x
_atom_site_fract_y
_atom_site_fract_z
_atom_site_U_iso_or_equiv
_atom_site_occupancy
_atom_site_adp_type
_atom_site_refinement_flags_posn
_atom_site_refinement_flags_adp
_atom_site_refinement_flags_occupancy
_atom_site_disorder_assembly
_atom_site_disorder_group
_atom_site_attached_hydrogens
Pt1 Pt 0.5000 0.5000 0.5000 0.0274 1.0000 Uani S T . . . .
Pt2 Pt 0.5000 0.5000 0.0000 0.0272 1.0000 Uani S T . . . .
Cl1 Cl 0.7604(6) 0.5557(7) 0.0000 0.0400 1.0000 Uani S T . . . .
N1 N 0.727(2) 0.431(2) 0.5000 0.0403 1.0000 Uani S T . . . .
H11 H 0.7890 0.5125 0.5000 0.0328 1.0000 Uiso RS . . . . .
H12 H 0.7452 0.3750 0.6173 0.0328 1.0000 Uiso R . . . . .
loop_
_atom_site_aniso_label
_atom_site_aniso_U_11
_atom_site_aniso_U_22
_atom_site_aniso_U_33
_atom_site_aniso_U_23
_atom_site_aniso_U_13
_atom_site_aniso_U_12
Pt1 0.0297(16) 0.0297(16) 0.0229(17) 0.0000 0.0000 0.0000
Pt2 0.0295(16) 0.0295(16) 0.0227(17) 0.0000 0.0000 0.0000
Cl1 0.038(3) 0.038(4) 0.044(3) 0.0000 0.0000 -0.003(2)
N1 0.037(10) 0.041(13) 0.043(9) 0.0000 0.0000 0.010(7)
loop_
_atom_type_symbol
_atom_type_scat_dispersion_real
_atom_type_scat_dispersion_imag
_atom_type_scat_Cromer_Mann_a1
_atom_type_scat_Cromer_Mann_b1
_atom_type_scat_Cromer_Mann_a2
_atom_type_scat_Cromer_Mann_b2
_atom_type_scat_Cromer_Mann_a3
_atom_type_scat_Cromer_Mann_b3
_atom_type_scat_Cromer_Mann_a4
_atom_type_scat_Cromer_Mann_b4
_atom_type_scat_Cromer_Mann_c
_atom_type_scat_source
N 0.0016 0.0014 12.2126 0.0057 3.1322 9.8933 2.0125 28.9975 1.1663 0.5826
-11.5290 'International Tables Vol C 4.2.6.8 and 6.1.1.4'
H 0.0000 0.0000 0.4930 10.5109 0.3229 26.1257 0.1402 3.1424 0.0408 57.7998
0.0030 'International Tables Vol C 4.2.6.8 and 6.1.1.4'
Cl 0.0774 0.0739 11.4604 0.0104 7.1964 1.1662 6.2556 18.5194 1.6455 47.7784
-9.5574 'International Tables Vol C 4.2.6.8 and 6.1.1.4'
Pt -0.4376 4.5215 27.0059 1.5129 17.7639 8.8117 15.7131 0.4246 5.7837 38.6103
11.6883 'International Tables Vol C 4.2.6.8 and 6.1.1.4'
loop_
_geom_angle_atom_site_label_1
_geom_angle_site_symmetry_1
_geom_angle_atom_site_label_2
_geom_angle_site_symmetry_2
_geom_angle_atom_site_label_3
_geom_angle_site_symmetry_3
_geom_angle
_geom_angle_publ_flag
N1 2_666 Pt1 . N1 3_655 90.00 yes
N1 2_666 Pt1 . N1 4_566 90.00 yes
N1 3_655 Pt1 . N1 4_566 179.99 yes
N1 2_666 Pt1 . N1 . 179.99 yes
N1 3_655 Pt1 . N1 . 90.000(14) yes
N1 4_566 Pt1 . N1 . 90.000(14) yes
Cl1 2_665 Pt2 . Cl1 3_655 90.000(5) yes
Cl1 2_665 Pt2 . Cl1 4_565 90.000(5) yes
Cl1 3_655 Pt2 . Cl1 4_565 180.00 yes
Cl1 2_665 Pt2 . Cl1 . 180.00 yes
Cl1 3_655 Pt2 . Cl1 . 90.000(5) yes
Cl1 4_565 Pt2 . Cl1 . 90.000(5) yes
H12 6_556 N1 . Pt1 . 109.0 no
H12 6_556 N1 . H11 . 109.5 no
Pt1 . N1 . H11 . 110.3 no
H12 6_556 N1 . H12 . 109.5 no
Pt1 . N1 . H12 . 109.0 no
H11 . N1 . H12 . 109.5 no
loop_
_geom_bond_atom_site_label_1
_geom_bond_site_symmetry_1
_geom_bond_atom_site_label_2
_geom_bond_site_symmetry_2
_geom_bond_distance
_geom_bond_publ_flag
Pt1 . N1 2_666 2.072(17) yes
Pt1 . N1 3_655 2.072(17) yes
Pt1 . N1 4_566 2.072(17) yes
Pt1 . N1 . 2.072(17) yes
Pt2 . Cl1 2_665 2.322(5) yes
Pt2 . Cl1 3_655 2.322(5) yes
Pt2 . Cl1 4_565 2.322(5) yes
Pt2 . Cl1 . 2.322(5) yes
N1 . H12 6_556 0.890 no
N1 . H11 . 0.890 no
N1 . H12 . 0.890 no
loop_
_oxford_refln_omitted_index_h
_oxford_refln_omitted_index_k
_oxford_refln_omitted_index_l
_oxford_refln_omitted_flag
_oxford_refln_omitted_details
0 0 2 x .
