#------------------------------------------------------------------------------
#$Date: 2020-11-06 15:19:06 +0200 (Fri, 06 Nov 2020) $
#$Revision: 258985 $
#$URL: file:///home/coder/svn-repositories/cod/cif/7/24/09/7240937.cif $
#------------------------------------------------------------------------------
#
# This file is available in the Crystallography Open Database (COD),
# http://www.crystallography.net/
#
# All data on this site have been placed in the public domain by the
# contributors.
#
data_7240937
loop_
_publ_author_name
'Richardson, Jonathan G.'
'Benjamin, Helen'
'Moggach, Stephen A.'
'Warren, Lisette R.'
'Warren, Mark R.'
'Allan, David R.'
'Saunders, Lucy K.'
'Morrison, Carole A.'
'Robertson, Neil'
_publ_section_title
;
 Probing the structural and electronic response of Magnus green salt
 compounds [Pt(NH<sub>2</sub>R)<sub>4</sub>][PtCl<sub>4</sub>] (R = H,
 CH<sub>3</sub>) to pressure.
;
_journal_issue                   31
_journal_name_full               'Physical chemistry chemical physics : PCCP'
_journal_page_first              17668
_journal_page_last               17676
_journal_paper_doi               10.1039/d0cp03280h
_journal_volume                  22
_journal_year                    2020
_chemical_formula_moiety         'Cl4 Pt, H12 N4 Pt'
_chemical_formula_sum            'Cl4 H12 N4 Pt2'
_chemical_formula_weight         600.11
_space_group_IT_number           128
_space_group_name_Hall           '-P 4 2n'
_space_group_name_H-M_alt        'P 4/m n c'
_symmetry_cell_setting           tetragonal
_symmetry_space_group_name_Hall  '-P 4 2n'
_symmetry_space_group_name_H-M   'P 4/m n c'
_atom_sites_solution_hydrogens   difmap
_atom_sites_solution_primary     direct
_audit_creation_date             2020-06-15
_audit_creation_method           CRYSTALS_ver_14.61_build_6999
_audit_update_record
;
2020-06-15 deposited with the CCDC.	2020-07-24 downloaded from the CCDC.
;
_cell_angle_alpha                90
_cell_angle_beta                 90
_cell_angle_gamma                90
_cell_formula_units_Z            2
_cell_length_a                   8.97809(14)
_cell_length_b                   8.97809(14)
_cell_length_c                   6.4585(3)
_cell_measurement_reflns_used    971
_cell_measurement_temperature    293
_cell_measurement_theta_max      73
_cell_measurement_theta_min      7
_cell_volume                     520.59(3)
_computing_cell_refinement
; 
 CrysAlisPro (Rigaku Oxford Diffraction, 2017) 
;
_computing_data_collection       'SuperNova, (Oxford Diffraction, 2010)'
_computing_data_reduction
; 
 CrysAlisPro (Rigaku Oxford Diffraction, 2017) 
;
_computing_molecular_graphics    'CAMERON (Watkin et al., 1996)'
_computing_publication_material  'CRYSTALS (Betteridge et al., 2003)'
_computing_structure_refinement  'CRYSTALS (Betteridge et al., 2003)'
_computing_structure_solution    'SIR92 (Altomare et al., 1994)'
_diffrn_ambient_pressure         101
_diffrn_ambient_temperature      293
_diffrn_measured_fraction_theta_full 0.996
_diffrn_measured_fraction_theta_max 0.986
_diffrn_measurement_device       Area
_diffrn_measurement_device_type  'Oxford Diffraction SuperNova'
_diffrn_measurement_method       \w
_diffrn_radiation_monochromator  'focussing mirrors'
_diffrn_radiation_type           'Cu K\a'
_diffrn_radiation_wavelength     1.54178
_diffrn_reflns_av_R_equivalents  0.076
_diffrn_reflns_limit_h_max       10
_diffrn_reflns_limit_h_min       -10
_diffrn_reflns_limit_k_max       11
_diffrn_reflns_limit_k_min       -11
_diffrn_reflns_limit_l_max       7
_diffrn_reflns_limit_l_min       -5
_diffrn_reflns_number            2295
_diffrn_reflns_theta_full        67.812
_diffrn_reflns_theta_max         72.916
_diffrn_reflns_theta_min         6.975
_diffrn_standards_number         0
_exptl_absorpt_coefficient_mu    58.572
_exptl_absorpt_correction_T_max  0.56
_exptl_absorpt_correction_T_min  0.02
_exptl_absorpt_correction_type   multi-scan
_exptl_absorpt_process_details
; 
 CrysAlisPro (Rigaku Oxford Diffraction, 2017) 
;
_exptl_crystal_colour            green
_exptl_crystal_density_diffrn    3.828
_exptl_crystal_density_method    'not measured'
_exptl_crystal_description       needle
_exptl_crystal_F_000             528
_exptl_crystal_size_max          0.100
_exptl_crystal_size_mid          0.010
_exptl_crystal_size_min          0.010
_refine_diff_density_max         2.73
_refine_diff_density_min         -2.97
_refine_ls_extinction_method     None
_refine_ls_goodness_of_fit_ref   1.1324
_refine_ls_hydrogen_treatment    constr
_refine_ls_matrix_type           full
_refine_ls_number_parameters     18
_refine_ls_number_reflns         283
_refine_ls_number_restraints     2
_refine_ls_R_factor_all          0.0597
_refine_ls_R_factor_gt           0.0556
_refine_ls_shift/su_max          0.0010697
_refine_ls_shift/su_mean         0.0000706
_refine_ls_structure_factor_coef Fsqd
_refine_ls_weighting_details
;
 Method, part 1, Chebychev polynomial, (Watkin, 1994, Prince, 1982) 
 [weight] = 1.0/[A~0~*T~0~(x)+A~1~*T~1~(x) ... +A~n-1~]*T~n-1~(x)] 
 where A~i~ are the Chebychev coefficients listed below and x= Fcalc/Fmax 
 Method = Robust Weighting (Prince, 1982) 
 W = [weight] * [1-(deltaF/6*sigmaF)^2^]^2^ 
 A~i~ are: 
 18.1 30.5 19.0 8.76 2.28 
;
_refine_ls_weighting_scheme      calc
_refine_ls_wR_factor_all         0.0885
_refine_ls_wR_factor_gt          0.0885
_refine_ls_wR_factor_ref         0.0885
_reflns_limit_h_max              7
_reflns_limit_h_min              0
_reflns_limit_k_max              11
_reflns_limit_k_min              0
_reflns_limit_l_max              7
_reflns_limit_l_min              0
_reflns_number_gt                244
_reflns_number_total             285
_reflns_threshold_expression     I>2.0\s(I)
_oxford_diffrn_Wilson_B_factor   0.00
_oxford_diffrn_Wilson_scale      0.00
_oxford_refine_ls_r_factor_ref   0.0597
_oxford_refine_ls_scale          0.09152(18)
_oxford_reflns_number_all        283
_iucr_refine_instructions_details
;
#
# Punched on 15/06/20 at 20:51:58
#
#LIST     12                                                                    
BLOCK SCALE X'S  U'S 
RIDE N   (   1,X'S) H   (  12,X'S) H   (  11,X'S) 
END                                                                             
#
# Punched on 15/06/20 at 20:51:58
#
#LIST     16                                                                    
NO 
REM   HREST   START (DO NOT REMOVE THIS LINE) 
REM   HREST   END (DO NOT REMOVE THIS LINE) 
END                                                                             
;
_cod_data_source_file            d0cp03280h2.cif
_cod_data_source_block           MagNH3_ambient
_cod_depositor_comments
'Adding full bibliography for 7240937--7240954.cif.'
_cod_original_sg_symbol_Hall     '-P 4 2n '
_cod_original_sg_symbol_H-M      'P 4/m n c '
_cod_database_code               7240937
_oxford_refine_reflns_threshold_expression_ref I>-3.0\s(I)
loop_
_symmetry_equiv_pos_as_xyz
x,y,z
-x,-y,-z
-y,x,z
y,-x,-z
-x,-y,z
x,y,-z
y,-x,z
-y,x,-z
-x+1/2,y+1/2,z+1/2
x+1/2,-y+1/2,-z+1/2
y+1/2,x+1/2,z+1/2
-y+1/2,-x+1/2,-z+1/2
x+1/2,-y+1/2,z+1/2
-x+1/2,y+1/2,-z+1/2
-y+1/2,-x+1/2,z+1/2
y+1/2,x+1/2,-z+1/2
loop_
_atom_site_label
_atom_site_type_symbol
_atom_site_fract_x
_atom_site_fract_y
_atom_site_fract_z
_atom_site_U_iso_or_equiv
_atom_site_occupancy
_atom_site_adp_type
_atom_site_refinement_flags_posn
_atom_site_refinement_flags_adp
_atom_site_refinement_flags_occupancy
_atom_site_disorder_assembly
_atom_site_disorder_group
_atom_site_attached_hydrogens
Pt1 Pt 0.5000 0.5000 0.5000 0.0228 1.0000 Uani S T . . . .
Pt2 Pt 0.5000 0.5000 0.0000 0.0220 1.0000 Uani S T . . . .
Cl1 Cl 0.7533(4) 0.5567(3) 0.0000 0.0351 1.0000 Uani S T . . . .
N1 N 0.7208(11) 0.4345(7) 0.5000 0.0455 1.0000 Uani S T . . . .
H11 H 0.7793 0.5145 0.5000 0.0520 1.0000 Uiso RS . . . . .
H12 H 0.7390 0.3802 0.6125 0.0520 1.0000 Uiso R . . . . .
loop_
_atom_site_aniso_label
_atom_site_aniso_U_11
_atom_site_aniso_U_22
_atom_site_aniso_U_33
_atom_site_aniso_U_23
_atom_site_aniso_U_13
_atom_site_aniso_U_12
Pt1 0.0190(5) 0.0190(5) 0.0304(8) 0.0000 0.0000 0.0000
Pt2 0.0182(6) 0.0182(6) 0.0296(8) 0.0000 0.0000 0.0000
Cl1 0.0213(9) 0.0316(11) 0.0523(10) 0.0000 0.0000 -0.0029(7)
N1 0.047(8) 0.019(3) 0.070(4) 0.0000 0.0000 -0.004(2)
loop_
_atom_type_symbol
_atom_type_scat_dispersion_real
_atom_type_scat_dispersion_imag
_atom_type_scat_Cromer_Mann_a1
_atom_type_scat_Cromer_Mann_b1
_atom_type_scat_Cromer_Mann_a2
_atom_type_scat_Cromer_Mann_b2
_atom_type_scat_Cromer_Mann_a3
_atom_type_scat_Cromer_Mann_b3
_atom_type_scat_Cromer_Mann_a4
_atom_type_scat_Cromer_Mann_b4
_atom_type_scat_Cromer_Mann_c
_atom_type_scat_source
N 0.0311 0.0180 12.2126 0.0057 3.1322 9.8933 2.0125 28.9975 1.1663 0.5826
-11.5290 'International Tables Vol C 4.2.6.8 and 6.1.1.4'
H 0.0000 0.0000 0.4930 10.5109 0.3229 26.1257 0.1402 3.1424 0.0408 57.7998
0.0030 'International Tables Vol C 4.2.6.8 and 6.1.1.4'
Cl 0.3639 0.7018 11.4604 0.0104 7.1964 1.1662 6.2556 18.5194 1.6455 47.7784
-9.5574 'International Tables Vol C 4.2.6.8 and 6.1.1.4'
Pt -4.5932 6.9264 27.0059 1.5129 17.7639 8.8117 15.7131 0.4246 5.7837 38.6103
11.6883 'International Tables Vol C 4.2.6.8 and 6.1.1.4'
loop_
_geom_angle_atom_site_label_1
_geom_angle_site_symmetry_1
_geom_angle_atom_site_label_2
_geom_angle_site_symmetry_2
_geom_angle_atom_site_label_3
_geom_angle_site_symmetry_3
_geom_angle
_geom_angle_publ_flag
N1 2_666 Pt1 . N1 3_655 90.00 yes
N1 2_666 Pt1 . N1 4_566 90.00 yes
N1 3_655 Pt1 . N1 4_566 179.99 yes
N1 2_666 Pt1 . N1 . 179.99 yes
N1 3_655 Pt1 . N1 . 90.00 yes
N1 4_566 Pt1 . N1 . 90.00 yes
Cl1 2_665 Pt2 . Cl1 3_655 90.00 yes
Cl1 2_665 Pt2 . Cl1 4_565 90.00 yes
Cl1 3_655 Pt2 . Cl1 4_565 180.00 yes
Cl1 2_665 Pt2 . Cl1 . 180.00 yes
Cl1 3_655 Pt2 . Cl1 . 90.00 yes
Cl1 4_565 Pt2 . Cl1 . 90.00 yes
H12 6_556 N1 . Pt1 . 109.4 no
H12 6_556 N1 . H11 . 109.5 no
Pt1 . N1 . H11 . 109.6 no
H12 6_556 N1 . H12 . 109.5 no
Pt1 . N1 . H12 . 109.4 no
H11 . N1 . H12 . 109.5 no
loop_
_geom_bond_atom_site_label_1
_geom_bond_site_symmetry_1
_geom_bond_atom_site_label_2
_geom_bond_site_symmetry_2
_geom_bond_distance
_geom_bond_publ_flag
Pt1 . N1 2_666 2.068(10) yes
Pt1 . N1 3_655 2.068(10) yes
Pt1 . N1 4_566 2.068(10) yes
Pt1 . N1 . 2.068(10) yes
Pt2 . Cl1 2_665 2.330(4) yes
Pt2 . Cl1 3_655 2.330(4) yes
Pt2 . Cl1 4_565 2.330(4) yes
Pt2 . Cl1 . 2.330(4) yes
N1 . H12 6_556 0.890 no
N1 . H11 . 0.890 no
N1 . H12 . 0.890 no
