#------------------------------------------------------------------------------
#$Date: 2021-02-05 01:04:31 +0200 (Fri, 05 Feb 2021) $
#$Revision: 261628 $
#$URL: file:///home/coder/svn-repositories/cod/cif/7/24/18/7241861.cif $
#------------------------------------------------------------------------------
#
# This file is available in the Crystallography Open Database (COD),
# http://www.crystallography.net/
#
# All data on this site have been placed in the public domain by the
# contributors.
#
data_7241861
loop_
_publ_author_name
'Gu\'nka, Piotr A.'
'Hanfland, Michael'
'Chen, Yu-Sheng'
'Zachara, Janusz'
_publ_section_title
;
 High-pressure and low-temperature structural study of claudetite I, a
 monoclinic layered As2O3 polymorph
;
_journal_issue                   3
_journal_name_full               CrystEngComm
_journal_page_first              638
_journal_page_last               644
_journal_paper_doi               10.1039/D0CE01401J
_journal_volume                  23
_journal_year                    2021
_chemical_formula_moiety         'As2 O3'
_chemical_formula_sum            'As2 O3'
_chemical_formula_weight         197.84
_chemical_name_common            'claudetite I'
_space_group_crystal_system      monoclinic
_space_group_IT_number           14
_space_group_name_Hall           '-P 2yn'
_space_group_name_H-M_alt        'P 1 21/n 1'
_atom_sites_solution_primary     direct
_audit_creation_date             2020-05-20
_audit_creation_method
;
Olex2 1.3
(compiled 2020.02.04 svn.rd84adfe8 for OlexSys, GUI svn.r6032)
;
_audit_update_record
;
2020-09-11 deposited with the CCDC.	2020-11-03 downloaded from the CCDC.
;
_cell_angle_alpha                90
_cell_angle_beta                 94.618(2)
_cell_angle_gamma                90
_cell_formula_units_Z            4
_cell_length_a                   5.28379(13)
_cell_length_b                   12.8173(3)
_cell_length_c                   4.49485(12)
_cell_measurement_reflns_used    6462
_cell_measurement_temperature    120(1)
_cell_measurement_theta_max      26.7650
_cell_measurement_theta_min      1.8340
_cell_volume                     303.421(13)
_computing_cell_refinement       'CrysAlisPro 1.171.40.79a (Rigaku OD, 2020)'
_computing_data_collection       'CrysAlisPro 1.171.40.79a (Rigaku OD, 2020)'
_computing_data_reduction        'CrysAlisPro 1.171.40.79a (Rigaku OD, 2020)'
_computing_molecular_graphics    'Olex2 1.3 (Dolomanov et al., 2009)'
_computing_publication_material  'Olex2 1.3 (Dolomanov et al., 2009)'
_computing_structure_refinement  'SHELXL 2018/3 (Sheldrick, 2015)'
_computing_structure_solution    'SHELXS  (Sheldrick, 2008)'
_diffrn_ambient_temperature      120(1)
_diffrn_detector                 'CCD plate'
_diffrn_measured_fraction_theta_full 0.989
_diffrn_measured_fraction_theta_max 0.985
_diffrn_measurement_details
;
List of Runs (angles in degrees, time in seconds):

  # Type    Start    End  Width  t~exp~   \w     \q     \k     \f   Frames
#--------------------------------------------------------------------------
  1  \f    -25.74 334.26   0.50    0.30 154.30  15.00  73.80    --   720
  2  \f    -25.74 228.76   0.50    0.30 114.30  15.00  73.80    --   509
  3  \f    154.26 334.26   0.50    0.30 114.30  15.00  73.80    --   360
;
_diffrn_measurement_device       'abstract diffractometer'
_diffrn_measurement_device_type
'esperanto-CrysAlisPro-abstract goniometer imported esperanto images'
_diffrn_measurement_method       '\f scans'
_diffrn_orient_matrix_type
'CrysAlisPro convention (1999,Acta A55,543-557)'
_diffrn_orient_matrix_UB_11      0.0424792643
_diffrn_orient_matrix_UB_12      0.0264254758
_diffrn_orient_matrix_UB_13      -0.0130193873
_diffrn_orient_matrix_UB_21      0.0515613449
_diffrn_orient_matrix_UB_22      -0.0177401590
_diffrn_orient_matrix_UB_23      -0.0423975422
_diffrn_orient_matrix_UB_31      -0.0411663610
_diffrn_orient_matrix_UB_32      0.0050576263
_diffrn_orient_matrix_UB_33      -0.0809491181
_diffrn_radiation_monochromator  synchrotron
_diffrn_radiation_probe          x-ray
_diffrn_radiation_type           synchrotron
_diffrn_radiation_wavelength     0.41328
_diffrn_reflns_av_R_equivalents  0.0742
_diffrn_reflns_av_unetI/netI     0.0361
_diffrn_reflns_Laue_measured_fraction_full 0.989
_diffrn_reflns_Laue_measured_fraction_max 0.985
_diffrn_reflns_limit_h_max       7
_diffrn_reflns_limit_h_min       -7
_diffrn_reflns_limit_k_max       18
_diffrn_reflns_limit_k_min       -18
_diffrn_reflns_limit_l_max       5
_diffrn_reflns_limit_l_min       -6
_diffrn_reflns_number            9603
_diffrn_reflns_point_group_measured_fraction_full 0.989
_diffrn_reflns_point_group_measured_fraction_max 0.985
_diffrn_reflns_theta_full        14.357
_diffrn_reflns_theta_max         17.497
_diffrn_reflns_theta_min         1.848
_diffrn_source                   synchrotron
_exptl_absorpt_coefficient_mu    21.801
_exptl_absorpt_correction_T_max  1.00000
_exptl_absorpt_correction_T_min  0.84220
_exptl_absorpt_correction_type   multi-scan
_exptl_absorpt_process_details
;
CrysAlisPro 1.171.40.79a (Rigaku Oxford Diffraction, 2020)
Empirical absorption correction using spherical harmonics,
 implemented in SCALE3 ABSPACK scaling algorithm.
;
_exptl_crystal_colour            colourless
_exptl_crystal_colour_primary    colourless
_exptl_crystal_density_diffrn    4.331
_exptl_crystal_description       plate
_exptl_crystal_F_000             360
_exptl_crystal_size_max          0.035
_exptl_crystal_size_mid          0.018
_exptl_crystal_size_min          0.002
_refine_diff_density_max         1.915
_refine_diff_density_min         -1.055
_refine_diff_density_rms         0.302
_refine_ls_extinction_method     none
_refine_ls_goodness_of_fit_ref   1.087
_refine_ls_hydrogen_treatment    undef
_refine_ls_matrix_type           full
_refine_ls_number_parameters     46
_refine_ls_number_reflns         971
_refine_ls_number_restraints     6
_refine_ls_restrained_S_all      1.089
_refine_ls_R_factor_all          0.0365
_refine_ls_R_factor_gt           0.0308
_refine_ls_shift/su_max          0.000
_refine_ls_shift/su_mean         0.000
_refine_ls_structure_factor_coef Fsqd
_refine_ls_weighting_details
'w=1/[\s^2^(Fo^2^)+(0.0423P)^2^] where P=(Fo^2^+2Fc^2^)/3'
_refine_ls_weighting_scheme      calc
_refine_ls_wR_factor_gt          0.0734
_refine_ls_wR_factor_ref         0.0765
_reflns_Friedel_coverage         0.000
_reflns_number_gt                839
_reflns_number_total             971
_reflns_threshold_expression     'I > 2\s(I)'
_cod_data_source_file            d0ce01401j2.cif
_cod_data_source_block           clau1_5_120
_cod_depositor_comments
'Adding full bibliography for 7241824--7241862.cif.'
_cod_database_code               7241861
_shelx_shelxl_version_number     2018/3
_chemical_oxdiff_formula         'As2 O3'
_shelx_space_group_comment
;
The symmetry employed for this shelxl refinement is uniquely defined
by the following loop, which should always be used as a source of
symmetry information in preference to the above space-group names.
They are only intended as comments.
;
_shelx_estimated_absorpt_t_max   0.958
_shelx_estimated_absorpt_t_min   0.516
_reflns_odcompleteness_completeness 84.47
_reflns_odcompleteness_iscentric 1
_reflns_odcompleteness_theta     26.83
_olex2_refinement_description
;
1. Uiso/Uaniso restraints and constraints
Uanis(O2) \\sim Ueq: with sigma of 0.003 and sigma for terminal atoms of 0.006
;
_shelx_res_file
;
TITL clau1_5_120 in P21/n #14
    clau1_5_120.res
    created by SHELXL-2018/3 at 13:28:21 on 20-May-2020
REM reset to P21/n #14
CELL 0.41328 5.283794 12.817305 4.494851 90 94.6182 90
ZERR 4 0.000129 0.000323 0.000118 0 0.0023 0
LATT 1
SYMM 0.5-X,0.5+Y,0.5-Z
SFAC O As
DISP As 0.2879 0.7731
DISP O 0.0017 0.0018
UNIT 12 8
ISOR 0.003 0.006 O2

L.S. 10 0 0
PLAN  5
SIZE 0.002 0.018 0.035
CONF
MORE -1
fmap 2 53
acta
OMIT -2 35
REM <olex2.extras>
REM <HklSrc "%.\\clau1_5_120.hkl">
REM </olex2.extras>

WGHT    0.042300
FVAR       6.27116
AS1   2    0.259001    0.100406    0.042327    11.00000    0.00552    0.01018 =
         0.00395    0.00006    0.00089    0.00094
AS2   2    0.355325    0.350815    0.003821    11.00000    0.00463    0.01155 =
         0.00358   -0.00001    0.00239    0.00012
O1    1    0.431582    0.217575    0.069633    11.00000    0.00845    0.01148 =
         0.01235    0.00045    0.00094   -0.00093
O2    1    0.656541    0.399200    0.156850    11.00000    0.00879    0.01543 =
         0.00271   -0.00013    0.00192   -0.00258
O3    1   -0.046630    0.141114    0.135728    11.00000    0.00579    0.02079 =
         0.00332    0.00107    0.00124    0.00230
HKLF 4




REM  clau1_5_120 in P21/n #14
REM wR2 = 0.0765, GooF = S = 1.087, Restrained GooF = 1.089 for all data
REM R1 = 0.0308 for 839 Fo > 4sig(Fo) and 0.0365 for all 971 data
REM 46 parameters refined using 6 restraints

END

WGHT      0.0422      0.0000

REM Highest difference peak  1.915,  deepest hole -1.055,  1-sigma level  0.302
Q1    1   0.2685  0.1638  0.0324  11.00000  0.05    1.91
Q2    1   0.2419  0.0382  0.0147  11.00000  0.05    1.77
Q3    1   0.3639  0.2829  0.0026  11.00000  0.05    1.77
Q4    1   0.3580  0.4189  0.0054  11.00000  0.05    1.43
Q5    1   0.3086  0.4055  0.0199  11.00000  0.05    1.16
;
_shelx_res_checksum              95162
_olex2_submission_special_instructions 'No special instructions were received'
_oxdiff_exptl_absorpt_empirical_details
;
Empirical correction (ABSPACK) includes:
- Absorption correction using spherical harmonics
- Frame scaling
;
_oxdiff_exptl_absorpt_empirical_full_max 1.216
_oxdiff_exptl_absorpt_empirical_full_min 0.849
loop_
_space_group_symop_operation_xyz
'x, y, z'
'-x+1/2, y+1/2, -z+1/2'
'-x, -y, -z'
'x-1/2, -y-1/2, z-1/2'
loop_
_atom_site_label
_atom_site_type_symbol
_atom_site_fract_x
_atom_site_fract_y
_atom_site_fract_z
_atom_site_U_iso_or_equiv
_atom_site_adp_type
_atom_site_occupancy
_atom_site_site_symmetry_order
_atom_site_calc_flag
_atom_site_refinement_flags_posn
_atom_site_refinement_flags_adp
_atom_site_refinement_flags_occupancy
_atom_site_disorder_assembly
_atom_site_disorder_group
As1 As 0.25900(7) 0.10041(3) 0.04233(9) 0.00652(13) Uani 1 1 d . . . . .
As2 As 0.35532(7) 0.35081(3) 0.00382(8) 0.00648(13) Uani 1 1 d . . . . .
O1 O 0.4316(5) 0.2176(2) 0.0696(7) 0.0108(6) Uani 1 1 d . . . . .
O2 O 0.6565(6) 0.3992(2) 0.1569(6) 0.0089(5) Uani 1 1 d . U . . .
O3 O -0.0466(6) 0.1411(2) 0.1357(6) 0.0099(5) Uani 1 1 d . . . . .
loop_
_atom_site_aniso_label
_atom_site_aniso_U_11
_atom_site_aniso_U_22
_atom_site_aniso_U_33
_atom_site_aniso_U_23
_atom_site_aniso_U_13
_atom_site_aniso_U_12
As1 0.0055(2) 0.0102(2) 0.0039(2) 0.00006(12) 0.00089(14) 0.00094(13)
As2 0.0046(2) 0.0116(2) 0.0036(2) -0.00001(12) 0.00239(15) 0.00012(13)
O1 0.0085(12) 0.0115(13) 0.0123(15) 0.0004(10) 0.0009(11) -0.0009(11)
O2 0.0088(12) 0.0154(12) 0.0027(12) -0.0001(9) 0.0019(10) -0.0026(10)
O3 0.0058(12) 0.0208(14) 0.0033(13) 0.0011(10) 0.0012(10) 0.0023(11)
loop_
_atom_type_symbol
_atom_type_description
_atom_type_scat_dispersion_real
_atom_type_scat_dispersion_imag
_atom_type_scat_source
O O 0.0017 0.0018 'International Tables Vol C Tables 4.2.6.8 and 6.1.1.4'
As As 0.2879 0.7731 'International Tables Vol C Tables 4.2.6.8 and 6.1.1.4'
loop_
_geom_angle_atom_site_label_1
_geom_angle_atom_site_label_2
_geom_angle_atom_site_label_3
_geom_angle
_geom_angle_site_symmetry_1
_geom_angle_site_symmetry_3
_geom_angle_publ_flag
O1 As1 O2 100.48(14) . 4_565 ?
O1 As1 O3 102.05(13) . . ?
O2 As1 O3 91.04(13) 4_565 . ?
O1 As2 O2 94.95(13) . . ?
O1 As2 O3 97.59(13) . 4_665 ?
O3 As2 O2 91.19(13) 4_665 . ?
As1 O1 As2 134.58(18) . . ?
As1 O2 As2 124.58(16) 4_666 . ?
As2 O3 As1 125.12(17) 4_566 . ?
loop_
_geom_bond_atom_site_label_1
_geom_bond_atom_site_label_2
_geom_bond_distance
_geom_bond_site_symmetry_2
_geom_bond_publ_flag
As1 O1 1.756(3) . ?
As1 O2 1.773(3) 4_565 ?
As1 O3 1.779(3) . ?
As2 O1 1.774(3) . ?
As2 O2 1.793(3) . ?
As2 O3 1.776(3) 4_665 ?
loop_
_geom_torsion_atom_site_label_1
_geom_torsion_atom_site_label_2
_geom_torsion_atom_site_label_3
_geom_torsion_atom_site_label_4
_geom_torsion
_geom_torsion_site_symmetry_1
_geom_torsion_site_symmetry_2
_geom_torsion_site_symmetry_3
_geom_torsion_site_symmetry_4
_geom_torsion_publ_flag
O1 As1 O3 As2 -86.7(2) . . . 4_566 ?
O1 As2 O2 As1 -71.8(2) . . . 4_666 ?
O2 As1 O1 As2 60.9(3) 4_565 . . . ?
O2 As1 O3 As2 172.4(2) 4_565 . . 4_566 ?
O2 As2 O1 As1 171.6(2) . . . . ?
O3 As1 O1 As2 -32.5(3) . . . . ?
O3 As2 O1 As1 -96.6(2) 4_665 . . . ?
O3 As2 O2 As1 -169.5(2) 4_665 . . 4_666 ?
