#------------------------------------------------------------------------------
#$Date: 2021-02-05 01:04:31 +0200 (Fri, 05 Feb 2021) $
#$Revision: 261628 $
#$URL: file:///home/coder/svn-repositories/cod/cif/7/24/18/7241858.cif $
#------------------------------------------------------------------------------
#
# This file is available in the Crystallography Open Database (COD),
# http://www.crystallography.net/
#
# All data on this site have been placed in the public domain by the
# contributors.
#
data_7241858
loop_
_publ_author_name
'Gu\'nka, Piotr A.'
'Hanfland, Michael'
'Chen, Yu-Sheng'
'Zachara, Janusz'
_publ_section_title
;
 High-pressure and low-temperature structural study of claudetite I, a
 monoclinic layered As2O3 polymorph
;
_journal_issue                   3
_journal_name_full               CrystEngComm
_journal_page_first              638
_journal_page_last               644
_journal_paper_doi               10.1039/D0CE01401J
_journal_volume                  23
_journal_year                    2021
_chemical_formula_moiety         'As2 O3'
_chemical_formula_sum            'As2 O3'
_chemical_formula_weight         197.84
_chemical_name_common            'claudetite I'
_space_group_crystal_system      monoclinic
_space_group_IT_number           14
_space_group_name_Hall           '-P 2yn'
_space_group_name_H-M_alt        'P 1 21/n 1'
_atom_sites_solution_primary     direct
_audit_creation_date             2020-05-18
_audit_creation_method
;
Olex2 1.3
(compiled 2020.02.04 svn.rd84adfe8 for OlexSys, GUI svn.r6032)
;
_audit_update_record
;
2020-09-11 deposited with the CCDC.	2020-11-03 downloaded from the CCDC.
;
_cell_angle_alpha                90
_cell_angle_beta                 94.381(3)
_cell_angle_gamma                90
_cell_formula_units_Z            4
_cell_length_a                   5.29393(13)
_cell_length_b                   12.8775(4)
_cell_length_c                   4.50545(12)
_cell_measurement_reflns_used    5622
_cell_measurement_temperature    270(1)
_cell_measurement_theta_max      24.8360
_cell_measurement_theta_min      1.8300
_cell_volume                     306.251(15)
_computing_cell_refinement       'CrysAlisPro 1.171.40.79a (Rigaku OD, 2020)'
_computing_data_collection       'CrysAlisPro 1.171.40.79a (Rigaku OD, 2020)'
_computing_data_reduction        'CrysAlisPro 1.171.40.79a (Rigaku OD, 2020)'
_computing_molecular_graphics    'Olex2 1.3 (Dolomanov et al., 2009)'
_computing_publication_material  'Olex2 1.3 (Dolomanov et al., 2009)'
_computing_structure_refinement  'SHELXL 2018/3 (Sheldrick, 2015)'
_computing_structure_solution    'SHELXS  (Sheldrick, 2008)'
_diffrn_ambient_temperature      270(1)
_diffrn_detector                 'CCD plate'
_diffrn_measured_fraction_theta_full 0.987
_diffrn_measured_fraction_theta_max 0.984
_diffrn_measurement_details
;
List of Runs (angles in degrees, time in seconds):

  # Type    Start    End  Width  t~exp~   \w     \q     \k     \f   Frames
#--------------------------------------------------------------------------
  1  \f    -25.74 334.26   0.50    0.30 154.30  15.00  73.80    --   720
  2  \f    -25.74 334.26   0.50    0.30 114.30  15.00  73.80    --   720
;
_diffrn_measurement_device       'abstract diffractometer'
_diffrn_measurement_device_type
'esperanto-CrysAlisPro-abstract goniometer imported esperanto images'
_diffrn_measurement_method       '\f scans'
_diffrn_orient_matrix_type
'CrysAlisPro convention (1999,Acta A55,543-557)'
_diffrn_orient_matrix_UB_11      0.0454160990
_diffrn_orient_matrix_UB_12      0.0252580418
_diffrn_orient_matrix_UB_13      -0.0149813423
_diffrn_orient_matrix_UB_21      0.0491594298
_diffrn_orient_matrix_UB_22      -0.0190969304
_diffrn_orient_matrix_UB_23      -0.0414774439
_diffrn_orient_matrix_UB_31      -0.0406235423
_diffrn_orient_matrix_UB_32      0.0051496391
_diffrn_orient_matrix_UB_33      -0.0807984155
_diffrn_radiation_monochromator  synchrotron
_diffrn_radiation_probe          x-ray
_diffrn_radiation_type           synchrotron
_diffrn_radiation_wavelength     0.41328
_diffrn_reflns_av_R_equivalents  0.0723
_diffrn_reflns_av_unetI/netI     0.0354
_diffrn_reflns_Laue_measured_fraction_full 0.987
_diffrn_reflns_Laue_measured_fraction_max 0.984
_diffrn_reflns_limit_h_max       7
_diffrn_reflns_limit_h_min       -7
_diffrn_reflns_limit_k_max       18
_diffrn_reflns_limit_k_min       -18
_diffrn_reflns_limit_l_max       5
_diffrn_reflns_limit_l_min       -6
_diffrn_reflns_number            8886
_diffrn_reflns_point_group_measured_fraction_full 0.987
_diffrn_reflns_point_group_measured_fraction_max 0.984
_diffrn_reflns_theta_full        14.357
_diffrn_reflns_theta_max         17.496
_diffrn_reflns_theta_min         1.839
_diffrn_source                   synchrotron
_exptl_absorpt_coefficient_mu    21.600
_exptl_absorpt_correction_T_max  1.00000
_exptl_absorpt_correction_T_min  0.89385
_exptl_absorpt_correction_type   multi-scan
_exptl_absorpt_process_details
;
CrysAlisPro 1.171.40.79a (Rigaku Oxford Diffraction, 2020)
Empirical absorption correction using spherical harmonics,
 implemented in SCALE3 ABSPACK scaling algorithm.
;
_exptl_crystal_colour            colourless
_exptl_crystal_colour_primary    colourless
_exptl_crystal_density_diffrn    4.291
_exptl_crystal_description       plate
_exptl_crystal_F_000             360
_exptl_crystal_size_max          0.035
_exptl_crystal_size_mid          0.018
_exptl_crystal_size_min          0.002
_refine_diff_density_max         1.318
_refine_diff_density_min         -1.084
_refine_diff_density_rms         0.245
_refine_ls_extinction_method     none
_refine_ls_goodness_of_fit_ref   1.060
_refine_ls_hydrogen_treatment    undef
_refine_ls_matrix_type           full
_refine_ls_number_parameters     46
_refine_ls_number_reflns         978
_refine_ls_number_restraints     0
_refine_ls_restrained_S_all      1.060
_refine_ls_R_factor_all          0.0348
_refine_ls_R_factor_gt           0.0294
_refine_ls_shift/su_max          0.000
_refine_ls_shift/su_mean         0.000
_refine_ls_structure_factor_coef Fsqd
_refine_ls_weighting_details
'w=1/[\s^2^(Fo^2^)+(0.0387P)^2^+0.0547P] where P=(Fo^2^+2Fc^2^)/3'
_refine_ls_weighting_scheme      calc
_refine_ls_wR_factor_gt          0.0699
_refine_ls_wR_factor_ref         0.0729
_reflns_Friedel_coverage         0.000
_reflns_number_gt                850
_reflns_number_total             978
_reflns_threshold_expression     'I > 2\s(I)'
_cod_data_source_file            d0ce01401j2.cif
_cod_data_source_block           clau1_5_270
_cod_depositor_comments
'Adding full bibliography for 7241824--7241862.cif.'
_cod_original_cell_volume        306.252(14)
_cod_database_code               7241858
_shelx_shelxl_version_number     2018/3
_chemical_oxdiff_formula         'As2 O3'
_shelx_space_group_comment
;
The symmetry employed for this shelxl refinement is uniquely defined
by the following loop, which should always be used as a source of
symmetry information in preference to the above space-group names.
They are only intended as comments.
;
_shelx_estimated_absorpt_t_max   0.958
_shelx_estimated_absorpt_t_min   0.519
_reflns_odcompleteness_completeness 84.31
_reflns_odcompleteness_iscentric 1
_reflns_odcompleteness_theta     26.88
_olex2_refinement_description
;
;
_shelx_res_file
;
TITL clau1_5_270 in P21/n #14
    clau1_5_270.res
    created by SHELXL-2018/3 at 16:39:09 on 18-May-2020
REM reset to P21/n #14
CELL 0.41328 5.293935 12.877539 4.505449 90 94.3811 90
ZERR 4 0.000135 0.000352 0.000118 0 0.0025 0
LATT 1
SYMM 0.5-X,0.5+Y,0.5-Z
SFAC O As
DISP As 0.2879 0.7731
DISP O 0.0017 0.0018
UNIT 12 8

L.S. 10
PLAN  5
SIZE 0.002 0.018 0.035
CONF
MORE -1
fmap 2 53
acta
OMIT -2 35
REM <olex2.extras>
REM <HklSrc "%.\\clau1_5_270.hkl">
REM </olex2.extras>

WGHT    0.038700    0.054700
FVAR       6.70920
AS1   2    0.258559    0.101206    0.041213    11.00000    0.01233    0.01577 =
         0.00936    0.00037    0.00045    0.00186
AS2   2    0.356376    0.350309    0.004755    11.00000    0.01074    0.01883 =
         0.00940   -0.00028    0.00326    0.00032
O1    1    0.431164    0.217887    0.069952    11.00000    0.01439    0.01712 =
         0.02327    0.00012   -0.00014   -0.00155
O2    1    0.656744    0.397732    0.157798    11.00000    0.01845    0.02563 =
         0.00682    0.00201    0.00095   -0.00549
O3    1   -0.045972    0.141418    0.137486    11.00000    0.01308    0.03329 =
         0.00775    0.00073    0.00061    0.00351
HKLF 4




REM  clau1_5_270 in P21/n #14
REM wR2 = 0.0729, GooF = S = 1.060, Restrained GooF = 1.060 for all data
REM R1 = 0.0294 for 850 Fo > 4sig(Fo) and 0.0348 for all 978 data
REM 46 parameters refined using 0 restraints

END

WGHT      0.0387      0.0547

REM Highest difference peak  1.318,  deepest hole -1.084,  1-sigma level  0.245
Q1    1   0.3649  0.2804  0.0049  11.00000  0.05    1.32
Q2    1   0.2714  0.0373  0.0331  11.00000  0.05    1.27
Q3    1   0.2753  0.1711  0.0332  11.00000  0.05    1.22
Q4    1   0.6928  0.4007  0.3413  11.00000  0.05    1.09
Q5    1   0.3770  0.4207 -0.0033  11.00000  0.05    1.03
;
_shelx_res_checksum              31286
_olex2_submission_special_instructions 'No special instructions were received'
_oxdiff_exptl_absorpt_empirical_details
;
Empirical correction (ABSPACK) includes:
- Absorption correction using spherical harmonics
- Frame scaling
;
_oxdiff_exptl_absorpt_empirical_full_max 1.174
_oxdiff_exptl_absorpt_empirical_full_min 0.850
loop_
_space_group_symop_operation_xyz
'x, y, z'
'-x+1/2, y+1/2, -z+1/2'
'-x, -y, -z'
'x-1/2, -y-1/2, z-1/2'
loop_
_atom_site_label
_atom_site_type_symbol
_atom_site_fract_x
_atom_site_fract_y
_atom_site_fract_z
_atom_site_U_iso_or_equiv
_atom_site_adp_type
_atom_site_occupancy
_atom_site_site_symmetry_order
_atom_site_calc_flag
_atom_site_refinement_flags_posn
_atom_site_refinement_flags_adp
_atom_site_refinement_flags_occupancy
_atom_site_disorder_assembly
_atom_site_disorder_group
As1 As 0.25856(7) 0.10121(3) 0.04121(8) 0.01251(13) Uani 1 1 d . . . . .
As2 As 0.35638(7) 0.35031(3) 0.00475(8) 0.01286(13) Uani 1 1 d . . . . .
O1 O 0.4312(5) 0.2179(2) 0.0700(7) 0.0183(6) Uani 1 1 d . . . . .
O2 O 0.6567(6) 0.3977(2) 0.1578(6) 0.0170(6) Uani 1 1 d . . . . .
O3 O -0.0460(5) 0.1414(2) 0.1375(6) 0.0180(6) Uani 1 1 d . . . . .
loop_
_atom_site_aniso_label
_atom_site_aniso_U_11
_atom_site_aniso_U_22
_atom_site_aniso_U_33
_atom_site_aniso_U_23
_atom_site_aniso_U_13
_atom_site_aniso_U_12
As1 0.0123(2) 0.0158(2) 0.0094(2) 0.00037(12) 0.00045(14) 0.00186(13)
As2 0.0107(2) 0.0188(2) 0.0094(2) -0.00028(12) 0.00326(14) 0.00032(14)
O1 0.0144(12) 0.0171(13) 0.0233(15) 0.0001(11) -0.0001(11) -0.0015(11)
O2 0.0184(14) 0.0256(14) 0.0068(12) 0.0020(10) 0.0010(11) -0.0055(11)
O3 0.0131(13) 0.0333(16) 0.0077(12) 0.0007(10) 0.0006(10) 0.0035(12)
loop_
_atom_type_symbol
_atom_type_description
_atom_type_scat_dispersion_real
_atom_type_scat_dispersion_imag
_atom_type_scat_source
O O 0.0017 0.0018 'International Tables Vol C Tables 4.2.6.8 and 6.1.1.4'
As As 0.2879 0.7731 'International Tables Vol C Tables 4.2.6.8 and 6.1.1.4'
loop_
_geom_angle_atom_site_label_1
_geom_angle_atom_site_label_2
_geom_angle_atom_site_label_3
_geom_angle
_geom_angle_site_symmetry_1
_geom_angle_site_symmetry_3
_geom_angle_publ_flag
O1 As1 O2 100.55(14) . 4_565 ?
O1 As1 O3 102.06(13) . . ?
O2 As1 O3 91.24(13) 4_565 . ?
O1 As2 O2 94.81(13) . . ?
O1 As2 O3 97.77(14) . 4_665 ?
O3 As2 O2 91.44(13) 4_665 . ?
As1 O1 As2 134.64(17) . . ?
As1 O2 As2 124.99(16) 4_666 . ?
As2 O3 As1 125.39(16) 4_566 . ?
loop_
_geom_bond_atom_site_label_1
_geom_bond_atom_site_label_2
_geom_bond_distance
_geom_bond_site_symmetry_2
_geom_bond_publ_flag
As1 O1 1.758(3) . ?
As1 O2 1.770(3) 4_565 ?
As1 O3 1.778(3) . ?
As2 O1 1.770(3) . ?
As2 O2 1.791(3) . ?
As2 O3 1.774(3) 4_665 ?
loop_
_geom_torsion_atom_site_label_1
_geom_torsion_atom_site_label_2
_geom_torsion_atom_site_label_3
_geom_torsion_atom_site_label_4
_geom_torsion
_geom_torsion_site_symmetry_1
_geom_torsion_site_symmetry_2
_geom_torsion_site_symmetry_3
_geom_torsion_site_symmetry_4
_geom_torsion_publ_flag
O1 As1 O3 As2 -86.1(2) . . . 4_566 ?
O1 As2 O2 As1 -72.2(2) . . . 4_666 ?
O2 As1 O1 As2 60.4(3) 4_565 . . . ?
O2 As1 O3 As2 172.8(2) 4_565 . . 4_566 ?
O2 As2 O1 As1 171.8(2) . . . . ?
O3 As1 O1 As2 -33.2(3) . . . . ?
O3 As2 O1 As1 -96.1(3) 4_665 . . . ?
O3 As2 O2 As1 -170.1(2) 4_665 . . 4_666 ?
