#------------------------------------------------------------------------------
#$Date: 2021-02-05 01:04:31 +0200 (Fri, 05 Feb 2021) $
#$Revision: 261628 $
#$URL: file:///home/coder/svn-repositories/cod/cif/7/24/18/7241852.cif $
#------------------------------------------------------------------------------
#
# This file is available in the Crystallography Open Database (COD),
# http://www.crystallography.net/
#
# All data on this site have been placed in the public domain by the
# contributors.
#
data_7241852
loop_
_publ_author_name
'Gu\'nka, Piotr A.'
'Hanfland, Michael'
'Chen, Yu-Sheng'
'Zachara, Janusz'
_publ_section_title
;
 High-pressure and low-temperature structural study of claudetite I, a
 monoclinic layered As2O3 polymorph
;
_journal_issue                   3
_journal_name_full               CrystEngComm
_journal_page_first              638
_journal_page_last               644
_journal_paper_doi               10.1039/D0CE01401J
_journal_volume                  23
_journal_year                    2021
_chemical_formula_moiety         'As2 O3'
_chemical_formula_sum            'As2 O3'
_chemical_formula_weight         197.84
_chemical_name_common            'claudetite I'
_space_group_crystal_system      monoclinic
_space_group_IT_number           14
_space_group_name_Hall           '-P 2yn'
_space_group_name_H-M_alt        'P 1 21/n 1'
_atom_sites_solution_primary     direct
_audit_creation_date             2020-05-18
_audit_creation_method
;
Olex2 1.3
(compiled 2020.02.04 svn.rd84adfe8 for OlexSys, GUI svn.r6032)
;
_audit_update_record
;
2020-09-11 deposited with the CCDC.	2020-11-03 downloaded from the CCDC.
;
_cell_angle_alpha                90
_cell_angle_beta                 94.329(3)
_cell_angle_gamma                90
_cell_formula_units_Z            4
_cell_length_a                   5.29402(16)
_cell_length_b                   12.8850(4)
_cell_length_c                   4.50656(13)
_cell_measurement_reflns_used    5130
_cell_measurement_temperature    293(2)
_cell_measurement_theta_max      25.3850
_cell_measurement_theta_min      1.8290
_cell_volume                     306.531(16)
_computing_cell_refinement       'CrysAlisPro 1.171.40.61a (Rigaku OD, 2019)'
_computing_data_collection       'CrysAlisPro 1.171.40.61a (Rigaku OD, 2019)'
_computing_data_reduction        'CrysAlisPro 1.171.40.61a (Rigaku OD, 2019)'
_computing_molecular_graphics    'Olex2 1.3 (Dolomanov et al., 2009)'
_computing_publication_material  'Olex2 1.3 (Dolomanov et al., 2009)'
_computing_structure_refinement  'SHELXL 2018/3 (Sheldrick, 2015)'
_computing_structure_solution    'SHELXS  (Sheldrick, 2008)'
_diffrn_ambient_temperature      293(2)
_diffrn_detector                 'CCD plate'
_diffrn_measured_fraction_theta_full 0.989
_diffrn_measured_fraction_theta_max 0.985
_diffrn_measurement_details
;
List of Runs (angles in degrees, time in seconds):

  # Type    Start    End  Width  t~exp~   \w     \q     \k     \f   Frames
#--------------------------------------------------------------------------
  1  \f    -25.74 334.37   0.50    0.30 154.30  15.00  73.80    --   720
  2  \f    -25.74 334.37   0.50    0.30 114.30  15.00  73.80    --   720
;
_diffrn_measurement_device       'abstract diffractometer'
_diffrn_measurement_device_type
'esperanto-CrysAlisPro-abstract goniometer imported esperanto images'
_diffrn_measurement_method       '\f scans'
_diffrn_orient_matrix_type
'CrysAlisPro convention (1999,Acta A55,543-557)'
_diffrn_orient_matrix_UB_11      -0.0151618000
_diffrn_orient_matrix_UB_12      -0.0251200000
_diffrn_orient_matrix_UB_13      0.0457520000
_diffrn_orient_matrix_UB_21      -0.0414884000
_diffrn_orient_matrix_UB_22      0.0192407000
_diffrn_orient_matrix_UB_23      0.0488541000
_diffrn_orient_matrix_UB_31      -0.0807550000
_diffrn_orient_matrix_UB_32      -0.0051854000
_diffrn_orient_matrix_UB_33      -0.0405514000
_diffrn_radiation_monochromator  synchrotron
_diffrn_radiation_probe          x-ray
_diffrn_radiation_type           synchrotron
_diffrn_radiation_wavelength     0.41328
_diffrn_reflns_av_R_equivalents  0.0761
_diffrn_reflns_av_unetI/netI     0.0381
_diffrn_reflns_Laue_measured_fraction_full 0.989
_diffrn_reflns_Laue_measured_fraction_max 0.985
_diffrn_reflns_limit_h_max       7
_diffrn_reflns_limit_h_min       -7
_diffrn_reflns_limit_k_max       18
_diffrn_reflns_limit_k_min       -18
_diffrn_reflns_limit_l_max       5
_diffrn_reflns_limit_l_min       -6
_diffrn_reflns_number            8702
_diffrn_reflns_point_group_measured_fraction_full 0.989
_diffrn_reflns_point_group_measured_fraction_max 0.985
_diffrn_reflns_theta_full        14.357
_diffrn_reflns_theta_max         17.493
_diffrn_reflns_theta_min         1.838
_diffrn_source                   synchrotron
_exptl_absorpt_coefficient_mu    21.580
_exptl_absorpt_correction_T_max  1.00000
_exptl_absorpt_correction_T_min  0.92146
_exptl_absorpt_correction_type   multi-scan
_exptl_absorpt_process_details
;
CrysAlisPro 1.171.40.61a (Rigaku Oxford Diffraction, 2019)
Empirical absorption correction using spherical harmonics,
 implemented in SCALE3 ABSPACK scaling algorithm.
;
_exptl_crystal_colour            colourless
_exptl_crystal_colour_primary    colourless
_exptl_crystal_density_diffrn    4.287
_exptl_crystal_description       plate
_exptl_crystal_F_000             360
_exptl_crystal_size_max          0.035
_exptl_crystal_size_mid          0.018
_exptl_crystal_size_min          0.002
_refine_diff_density_max         1.491
_refine_diff_density_min         -0.865
_refine_diff_density_rms         0.260
_refine_ls_extinction_method     none
_refine_ls_goodness_of_fit_ref   1.043
_refine_ls_hydrogen_treatment    undef
_refine_ls_matrix_type           full
_refine_ls_number_parameters     46
_refine_ls_number_reflns         980
_refine_ls_number_restraints     0
_refine_ls_restrained_S_all      1.043
_refine_ls_R_factor_all          0.0378
_refine_ls_R_factor_gt           0.0309
_refine_ls_shift/su_max          0.000
_refine_ls_shift/su_mean         0.000
_refine_ls_structure_factor_coef Fsqd
_refine_ls_weighting_details
'w=1/[\s^2^(Fo^2^)+(0.0408P)^2^+0.1718P] where P=(Fo^2^+2Fc^2^)/3'
_refine_ls_weighting_scheme      calc
_refine_ls_wR_factor_gt          0.0738
_refine_ls_wR_factor_ref         0.0776
_reflns_Friedel_coverage         0.000
_reflns_number_gt                824
_reflns_number_total             980
_reflns_threshold_expression     'I > 2\s(I)'
_cod_data_source_file            d0ce01401j2.cif
_cod_data_source_block           294k_02_0
_cod_depositor_comments
'Adding full bibliography for 7241824--7241862.cif.'
_cod_database_code               7241852
_shelx_shelxl_version_number     2018/3
_chemical_oxdiff_formula         'As2 O3'
_shelx_space_group_comment
;
The symmetry employed for this shelxl refinement is uniquely defined
by the following loop, which should always be used as a source of
symmetry information in preference to the above space-group names.
They are only intended as comments.
;
_shelx_estimated_absorpt_t_max   0.958
_shelx_estimated_absorpt_t_min   0.519
_reflns_odcompleteness_completeness 98.05
_reflns_odcompleteness_iscentric 1
_reflns_odcompleteness_theta     14.97
_olex2_refinement_description
;
;
_shelx_res_file
;
TITL 294K_02_0 in P21/n #14
    294k_02_0.res
    created by SHELXL-2018/3 at 16:35:02 on 18-May-2020
REM reset to P21/n #14
CELL 0.41328 5.294017 12.885006 4.506555 90 94.3289 90
ZERR 4 0.000155 0.000405 0.000129 0 0.0028 0
LATT 1
SYMM 0.5-X,0.5+Y,0.5-Z
SFAC As O
DISP As 0.2879 0.7731
DISP O 0.0017 0.0018
UNIT 8 12

L.S. 10
PLAN  5
SIZE 0.035 0.018 0.002
CONF
MORE -1
fmap 2 53
acta
OMIT -2 35
REM <olex2.extras>
REM <HklSrc "%.\\294K_02_0.hkl">
REM </olex2.extras>

WGHT    0.040800    0.171800
FVAR       6.63920
AS1   1    0.258496    0.101346    0.040832    11.00000    0.01350    0.01712 =
         0.01057    0.00054    0.00028    0.00205
AS2   1    0.356589    0.350214    0.004766    11.00000    0.01172    0.02059 =
         0.01042   -0.00038    0.00332    0.00018
O1    2    0.431544    0.217436    0.069652    11.00000    0.01631    0.01952 =
         0.02486    0.00041    0.00039   -0.00230
O2    2    0.656455    0.397612    0.158018    11.00000    0.01736    0.02716 =
         0.01008    0.00061    0.00118   -0.00532
O3    2   -0.045053    0.141308    0.137187    11.00000    0.01517    0.03489 =
         0.00922    0.00015    0.00203    0.00278
HKLF 4




REM  294K_02_0 in P21/n #14
REM wR2 = 0.0776, GooF = S = 1.043, Restrained GooF = 1.043 for all data
REM R1 = 0.0309 for 824 Fo > 4sig(Fo) and 0.0378 for all 980 data
REM 46 parameters refined using 0 restraints

END

WGHT      0.0408      0.1718

REM Highest difference peak  1.491,  deepest hole -0.865,  1-sigma level  0.260
Q1    1   0.3660  0.2808  0.0159  11.00000  0.05    1.49
Q2    1   0.2852  0.1647  0.0269  11.00000  0.05    1.38
Q3    1   0.2373  0.0378  0.0282  11.00000  0.05    1.29
Q4    1   0.3591  0.4194  0.0150  11.00000  0.05    1.15
Q5    1  -0.2103  0.1995  0.1668  11.00000  0.05    0.90
;
_shelx_res_checksum              1377
_olex2_submission_special_instructions 'No special instructions were received'
_oxdiff_exptl_absorpt_empirical_details
;
Empirical correction (ABSPACK) includes:
- Absorption correction using spherical harmonics
- Frame scaling
;
_oxdiff_exptl_absorpt_empirical_full_max 1.183
_oxdiff_exptl_absorpt_empirical_full_min 0.842
loop_
_space_group_symop_operation_xyz
'x, y, z'
'-x+1/2, y+1/2, -z+1/2'
'-x, -y, -z'
'x-1/2, -y-1/2, z-1/2'
loop_
_atom_site_label
_atom_site_type_symbol
_atom_site_fract_x
_atom_site_fract_y
_atom_site_fract_z
_atom_site_U_iso_or_equiv
_atom_site_adp_type
_atom_site_occupancy
_atom_site_site_symmetry_order
_atom_site_calc_flag
_atom_site_refinement_flags_posn
_atom_site_refinement_flags_adp
_atom_site_refinement_flags_occupancy
_atom_site_disorder_assembly
_atom_site_disorder_group
As1 As 0.25850(8) 0.10135(3) 0.04083(9) 0.01376(13) Uani 1 1 d . . . . .
As2 As 0.35659(7) 0.35021(3) 0.00477(9) 0.01411(14) Uani 1 1 d . . . . .
O1 O 0.4315(6) 0.2174(2) 0.0697(8) 0.0203(6) Uani 1 1 d . . . . .
O2 O 0.6565(6) 0.3976(2) 0.1580(7) 0.0182(6) Uani 1 1 d . . . . .
O3 O -0.0451(6) 0.1413(3) 0.1372(7) 0.0197(6) Uani 1 1 d . . . . .
loop_
_atom_site_aniso_label
_atom_site_aniso_U_11
_atom_site_aniso_U_22
_atom_site_aniso_U_33
_atom_site_aniso_U_23
_atom_site_aniso_U_13
_atom_site_aniso_U_12
As1 0.0135(2) 0.0171(2) 0.0106(2) 0.00054(13) 0.00028(15) 0.00205(14)
As2 0.0117(2) 0.0206(2) 0.0104(2) -0.00038(13) 0.00332(15) 0.00018(15)
O1 0.0163(13) 0.0195(14) 0.0249(17) 0.0004(12) 0.0004(12) -0.0023(12)
O2 0.0174(14) 0.0272(16) 0.0101(14) 0.0006(10) 0.0012(11) -0.0053(12)
O3 0.0152(14) 0.0349(17) 0.0092(14) 0.0002(11) 0.0020(11) 0.0028(13)
loop_
_atom_type_symbol
_atom_type_description
_atom_type_scat_dispersion_real
_atom_type_scat_dispersion_imag
_atom_type_scat_source
As As 0.2879 0.7731 'International Tables Vol C Tables 4.2.6.8 and 6.1.1.4'
O O 0.0017 0.0018 'International Tables Vol C Tables 4.2.6.8 and 6.1.1.4'
loop_
_geom_angle_atom_site_label_1
_geom_angle_atom_site_label_2
_geom_angle_atom_site_label_3
_geom_angle
_geom_angle_site_symmetry_1
_geom_angle_site_symmetry_3
_geom_angle_publ_flag
O1 As1 O2 100.67(15) . 4_565 ?
O1 As1 O3 102.26(14) . . ?
O2 As1 O3 91.20(14) 4_565 . ?
O1 As2 O2 94.85(14) . . ?
O1 As2 O3 97.77(15) . 4_665 ?
O3 As2 O2 91.43(14) 4_665 . ?
As1 O1 As2 134.48(18) . . ?
As1 O2 As2 125.14(17) 4_666 . ?
As1 O3 As2 125.53(18) . 4_566 ?
loop_
_geom_bond_atom_site_label_1
_geom_bond_atom_site_label_2
_geom_bond_distance
_geom_bond_site_symmetry_2
_geom_bond_publ_flag
As1 O1 1.754(3) . ?
As1 O2 1.768(3) 4_565 ?
As1 O3 1.772(3) . ?
As2 O1 1.776(3) . ?
As2 O2 1.790(3) . ?
As2 O3 1.777(3) 4_665 ?
loop_
_geom_torsion_atom_site_label_1
_geom_torsion_atom_site_label_2
_geom_torsion_atom_site_label_3
_geom_torsion_atom_site_label_4
_geom_torsion
_geom_torsion_site_symmetry_1
_geom_torsion_site_symmetry_2
_geom_torsion_site_symmetry_3
_geom_torsion_site_symmetry_4
_geom_torsion_publ_flag
O1 As1 O3 As2 -85.9(2) . . . 4_566 ?
O1 As2 O2 As1 -72.1(2) . . . 4_666 ?
O2 As1 O1 As2 60.5(3) 4_565 . . . ?
O2 As1 O3 As2 172.9(2) 4_565 . . 4_566 ?
O2 As2 O1 As1 171.6(3) . . . . ?
O3 As1 O1 As2 -33.1(3) . . . . ?
O3 As2 O1 As1 -96.2(3) 4_665 . . . ?
O3 As2 O2 As1 -170.1(2) 4_665 . . 4_666 ?
