#------------------------------------------------------------------------------
#$Date: 2021-02-05 01:04:31 +0200 (Fri, 05 Feb 2021) $
#$Revision: 261628 $
#$URL: file:///home/coder/svn-repositories/cod/cif/7/24/18/7241860.cif $
#------------------------------------------------------------------------------
#
# This file is available in the Crystallography Open Database (COD),
# http://www.crystallography.net/
#
# All data on this site have been placed in the public domain by the
# contributors.
#
data_7241860
loop_
_publ_author_name
'Gu\'nka, Piotr A.'
'Hanfland, Michael'
'Chen, Yu-Sheng'
'Zachara, Janusz'
_publ_section_title
;
 High-pressure and low-temperature structural study of claudetite I, a
 monoclinic layered As2O3 polymorph
;
_journal_issue                   3
_journal_name_full               CrystEngComm
_journal_page_first              638
_journal_page_last               644
_journal_paper_doi               10.1039/D0CE01401J
_journal_volume                  23
_journal_year                    2021
_chemical_formula_moiety         'As2 O3'
_chemical_formula_sum            'As2 O3'
_chemical_formula_weight         197.84
_chemical_name_common            'claudetite I'
_space_group_crystal_system      monoclinic
_space_group_IT_number           14
_space_group_name_Hall           '-P 2yn'
_space_group_name_H-M_alt        'P 1 21/n 1'
_atom_sites_solution_primary     direct
_audit_creation_date             2020-05-20
_audit_creation_method
;
Olex2 1.3
(compiled 2020.02.04 svn.rd84adfe8 for OlexSys, GUI svn.r6032)
;
_audit_update_record
;
2020-09-11 deposited with the CCDC.	2020-11-03 downloaded from the CCDC.
;
_cell_angle_alpha                90
_cell_angle_beta                 94.533(3)
_cell_angle_gamma                90
_cell_formula_units_Z            4
_cell_length_a                   5.29150(15)
_cell_length_b                   12.8527(4)
_cell_length_c                   4.50173(14)
_cell_measurement_reflns_used    4530
_cell_measurement_temperature    190(1)
_cell_measurement_theta_max      25.9430
_cell_measurement_theta_min      1.8280
_cell_volume                     305.205(16)
_computing_cell_refinement       'CrysAlisPro 1.171.40.79a (Rigaku OD, 2020)'
_computing_data_collection       'CrysAlisPro 1.171.40.79a (Rigaku OD, 2020)'
_computing_data_reduction        'CrysAlisPro 1.171.40.79a (Rigaku OD, 2020)'
_computing_molecular_graphics    'Olex2 1.3 (Dolomanov et al., 2009)'
_computing_publication_material  'Olex2 1.3 (Dolomanov et al., 2009)'
_computing_structure_refinement  'SHELXL 2018/3 (Sheldrick, 2015)'
_computing_structure_solution    'SHELXS  (Sheldrick, 2008)'
_diffrn_ambient_temperature      190(1)
_diffrn_detector                 'CCD plate'
_diffrn_measured_fraction_theta_full 0.989
_diffrn_measured_fraction_theta_max 0.986
_diffrn_measurement_details
;
List of Runs (angles in degrees, time in seconds):

  # Type    Start    End  Width  t~exp~   \w     \q     \k     \f   Frames
#--------------------------------------------------------------------------
  1  \f    -25.74 334.26   0.50    0.30 154.30  15.00  73.80    --   720
  2  \f    -25.74 334.26   0.50    0.30 114.30  15.00  73.80    --   720
;
_diffrn_measurement_device       'abstract diffractometer'
_diffrn_measurement_device_type
'esperanto-CrysAlisPro-abstract goniometer imported esperanto images'
_diffrn_measurement_method       '\f scans'
_diffrn_orient_matrix_type
'CrysAlisPro convention (1999,Acta A55,543-557)'
_diffrn_orient_matrix_UB_11      0.0440806699
_diffrn_orient_matrix_UB_12      0.0257933629
_diffrn_orient_matrix_UB_13      -0.0140356647
_diffrn_orient_matrix_UB_21      0.0502538070
_diffrn_orient_matrix_UB_22      -0.0184649279
_diffrn_orient_matrix_UB_23      -0.0419633973
_diffrn_orient_matrix_UB_31      -0.0408833531
_diffrn_orient_matrix_UB_32      0.0051238512
_diffrn_orient_matrix_UB_33      -0.0808329714
_diffrn_radiation_monochromator  synchrotron
_diffrn_radiation_probe          x-ray
_diffrn_radiation_type           synchrotron
_diffrn_radiation_wavelength     0.41328
_diffrn_reflns_av_R_equivalents  0.0661
_diffrn_reflns_av_unetI/netI     0.0372
_diffrn_reflns_Laue_measured_fraction_full 0.989
_diffrn_reflns_Laue_measured_fraction_max 0.986
_diffrn_reflns_limit_h_max       7
_diffrn_reflns_limit_h_min       -7
_diffrn_reflns_limit_k_max       18
_diffrn_reflns_limit_k_min       -18
_diffrn_reflns_limit_l_max       5
_diffrn_reflns_limit_l_min       -6
_diffrn_reflns_number            6652
_diffrn_reflns_point_group_measured_fraction_full 0.989
_diffrn_reflns_point_group_measured_fraction_max 0.986
_diffrn_reflns_theta_full        14.357
_diffrn_reflns_theta_max         17.497
_diffrn_reflns_theta_min         1.843
_diffrn_source                   synchrotron
_exptl_absorpt_coefficient_mu    21.674
_exptl_absorpt_correction_T_max  1.00000
_exptl_absorpt_correction_T_min  0.72866
_exptl_absorpt_correction_type   multi-scan
_exptl_absorpt_process_details
;
CrysAlisPro 1.171.40.79a (Rigaku Oxford Diffraction, 2020)
Empirical absorption correction using spherical harmonics,
 implemented in SCALE3 ABSPACK scaling algorithm.
;
_exptl_crystal_colour            colourless
_exptl_crystal_colour_primary    colourless
_exptl_crystal_density_diffrn    4.306
_exptl_crystal_description       plate
_exptl_crystal_F_000             360
_exptl_crystal_size_max          0.035
_exptl_crystal_size_mid          0.018
_exptl_crystal_size_min          0.002
_refine_diff_density_max         1.539
_refine_diff_density_min         -0.966
_refine_diff_density_rms         0.266
_refine_ls_extinction_method     none
_refine_ls_goodness_of_fit_ref   1.037
_refine_ls_hydrogen_treatment    undef
_refine_ls_matrix_type           full
_refine_ls_number_parameters     46
_refine_ls_number_reflns         977
_refine_ls_number_restraints     0
_refine_ls_restrained_S_all      1.037
_refine_ls_R_factor_all          0.0361
_refine_ls_R_factor_gt           0.0296
_refine_ls_shift/su_max          0.000
_refine_ls_shift/su_mean         0.000
_refine_ls_structure_factor_coef Fsqd
_refine_ls_weighting_details
'w=1/[\s^2^(Fo^2^)+(0.0428P)^2^] where P=(Fo^2^+2Fc^2^)/3'
_refine_ls_weighting_scheme      calc
_refine_ls_wR_factor_gt          0.0720
_refine_ls_wR_factor_ref         0.0760
_reflns_Friedel_coverage         0.000
_reflns_number_gt                837
_reflns_number_total             977
_reflns_threshold_expression     'I > 2\s(I)'
_cod_data_source_file            d0ce01401j2.cif
_cod_data_source_block           clau1_5_190
_cod_depositor_comments
'Adding full bibliography for 7241824--7241862.cif.'
_cod_original_cell_volume        305.206(16)
_cod_database_code               7241860
_shelx_shelxl_version_number     2018/3
_chemical_oxdiff_formula         'As2 O3'
_shelx_space_group_comment
;
The symmetry employed for this shelxl refinement is uniquely defined
by the following loop, which should always be used as a source of
symmetry information in preference to the above space-group names.
They are only intended as comments.
;
_shelx_estimated_absorpt_t_max   0.958
_shelx_estimated_absorpt_t_min   0.518
_reflns_odcompleteness_completeness 84.44
_reflns_odcompleteness_iscentric 1
_reflns_odcompleteness_theta     26.84
_olex2_refinement_description
;
;
_shelx_res_file
;
TITL clau1_5_190 in P21/n #14
    clau1_5_190.res
    created by SHELXL-2018/3 at 13:10:48 on 20-May-2020
REM reset to P21/n #14
CELL 0.41328 5.291505 12.852706 4.501727 90 94.5326 90
ZERR 4 0.000152 0.00038 0.000136 0 0.0028 0
LATT 1
SYMM 0.5-X,0.5+Y,0.5-Z
SFAC O As
DISP As 0.2879 0.7731
DISP O 0.0017 0.0018
UNIT 12 8

L.S. 9
PLAN  5
SIZE 0.002 0.018 0.035
CONF
MORE -1
fmap 2 53
acta
OMIT -2 35
REM <olex2.extras>
REM <HklSrc "%.\\clau1_5_190.hkl">
REM </olex2.extras>

WGHT    0.042800
FVAR       6.68048
AS1   2    0.258865    0.100825    0.041729    11.00000    0.00903    0.01241 =
         0.00685    0.00036    0.00072    0.00122
AS2   2    0.355918    0.350550    0.004354    11.00000    0.00776    0.01474 =
         0.00673   -0.00025    0.00285    0.00027
O1    1    0.431199    0.217759    0.070389    11.00000    0.01307    0.01346 =
         0.01673    0.00079   -0.00044   -0.00256
O2    1    0.656697    0.398291    0.157054    11.00000    0.01292    0.02000 =
         0.00563    0.00000    0.00283   -0.00422
O3    1   -0.045961    0.141233    0.136552    11.00000    0.01004    0.02659 =
         0.00538   -0.00008    0.00283    0.00157
HKLF 4




REM  clau1_5_190 in P21/n #14
REM wR2 = 0.0760, GooF = S = 1.037, Restrained GooF = 1.037 for all data
REM R1 = 0.0296 for 837 Fo > 4sig(Fo) and 0.0361 for all 977 data
REM 46 parameters refined using 0 restraints

END

WGHT      0.0428      0.0000

REM Highest difference peak  1.539,  deepest hole -0.966,  1-sigma level  0.266
Q1    1   0.2874  0.1649  0.0337  11.00000  0.05    1.54
Q2    1   0.3545  0.2831  0.0062  11.00000  0.05    1.41
Q3    1   0.2384  0.0381  0.0173  11.00000  0.05    1.29
Q4    1   0.3747  0.4170  0.0091  11.00000  0.05    1.21
Q5    1   0.3919  0.0579  0.0576  11.00000  0.05    1.20
;
_shelx_res_checksum              54115
_olex2_submission_special_instructions 'No special instructions were received'
_oxdiff_exptl_absorpt_empirical_details
;
Empirical correction (ABSPACK) includes:
- Absorption correction using spherical harmonics
- Frame scaling
;
_oxdiff_exptl_absorpt_empirical_full_max 1.318
_oxdiff_exptl_absorpt_empirical_full_min 0.827
loop_
_space_group_symop_operation_xyz
'x, y, z'
'-x+1/2, y+1/2, -z+1/2'
'-x, -y, -z'
'x-1/2, -y-1/2, z-1/2'
loop_
_atom_site_label
_atom_site_type_symbol
_atom_site_fract_x
_atom_site_fract_y
_atom_site_fract_z
_atom_site_U_iso_or_equiv
_atom_site_adp_type
_atom_site_occupancy
_atom_site_site_symmetry_order
_atom_site_calc_flag
_atom_site_refinement_flags_posn
_atom_site_refinement_flags_adp
_atom_site_refinement_flags_occupancy
_atom_site_disorder_assembly
_atom_site_disorder_group
As1 As 0.25886(7) 0.10083(3) 0.04173(9) 0.00943(13) Uani 1 1 d . . . . .
As2 As 0.35592(7) 0.35055(3) 0.00435(8) 0.00962(13) Uani 1 1 d . . . . .
O1 O 0.4312(6) 0.2178(2) 0.0704(7) 0.0145(6) Uani 1 1 d . . . . .
O2 O 0.6567(6) 0.3983(2) 0.1571(6) 0.0127(6) Uani 1 1 d . . . . .
O3 O -0.0460(6) 0.1412(2) 0.1366(6) 0.0139(6) Uani 1 1 d . . . . .
loop_
_atom_site_aniso_label
_atom_site_aniso_U_11
_atom_site_aniso_U_22
_atom_site_aniso_U_33
_atom_site_aniso_U_23
_atom_site_aniso_U_13
_atom_site_aniso_U_12
As1 0.0090(2) 0.0124(2) 0.0069(2) 0.00036(12) 0.00072(14) 0.00122(13)
As2 0.0078(2) 0.0147(2) 0.0067(2) -0.00025(13) 0.00285(14) 0.00027(14)
O1 0.0131(12) 0.0135(13) 0.0167(15) 0.0008(11) -0.0004(11) -0.0026(11)
O2 0.0129(13) 0.0200(14) 0.0056(13) 0.0000(10) 0.0028(11) -0.0042(11)
O3 0.0100(13) 0.0266(16) 0.0054(13) -0.0001(11) 0.0028(10) 0.0016(12)
loop_
_atom_type_symbol
_atom_type_description
_atom_type_scat_dispersion_real
_atom_type_scat_dispersion_imag
_atom_type_scat_source
O O 0.0017 0.0018 'International Tables Vol C Tables 4.2.6.8 and 6.1.1.4'
As As 0.2879 0.7731 'International Tables Vol C Tables 4.2.6.8 and 6.1.1.4'
loop_
_geom_angle_atom_site_label_1
_geom_angle_atom_site_label_2
_geom_angle_atom_site_label_3
_geom_angle
_geom_angle_site_symmetry_1
_geom_angle_site_symmetry_3
_geom_angle_publ_flag
O1 As1 O2 100.52(14) . 4_565 ?
O1 As1 O3 102.00(14) . . ?
O2 As1 O3 91.16(14) 4_565 . ?
O1 As2 O2 94.84(14) . . ?
O1 As2 O3 97.77(15) . 4_665 ?
O3 As2 O2 91.21(14) 4_665 . ?
As1 O1 As2 134.65(18) . . ?
As1 O2 As2 124.76(16) 4_666 . ?
As2 O3 As1 125.33(18) 4_566 . ?
loop_
_geom_bond_atom_site_label_1
_geom_bond_atom_site_label_2
_geom_bond_distance
_geom_bond_site_symmetry_2
_geom_bond_publ_flag
As1 O1 1.757(3) . ?
As1 O2 1.773(3) 4_565 ?
As1 O3 1.778(3) . ?
As2 O1 1.772(3) . ?
As2 O2 1.791(3) . ?
As2 O3 1.777(3) 4_665 ?
loop_
_geom_torsion_atom_site_label_1
_geom_torsion_atom_site_label_2
_geom_torsion_atom_site_label_3
_geom_torsion_atom_site_label_4
_geom_torsion
_geom_torsion_site_symmetry_1
_geom_torsion_site_symmetry_2
_geom_torsion_site_symmetry_3
_geom_torsion_site_symmetry_4
_geom_torsion_publ_flag
O1 As1 O3 As2 -86.3(2) . . . 4_566 ?
O1 As2 O2 As1 -72.0(2) . . . 4_666 ?
O2 As1 O1 As2 60.4(3) 4_565 . . . ?
O2 As1 O3 As2 172.7(2) 4_565 . . 4_566 ?
O2 As2 O1 As1 172.0(3) . . . . ?
O3 As1 O1 As2 -33.1(3) . . . . ?
O3 As2 O1 As1 -96.2(3) 4_665 . . . ?
O3 As2 O2 As1 -169.9(2) 4_665 . . 4_666 ?
