#------------------------------------------------------------------------------
#$Date: 2021-10-06 17:55:30 +0300 (Wed, 06 Oct 2021) $
#$Revision: 269694 $
#$URL: file:///home/coder/svn-repositories/cod/cif/7/24/33/7243356.cif $
#------------------------------------------------------------------------------
#
# This file is available in the Crystallography Open Database (COD),
# http://www.crystallography.net/
#
# All data on this site have been placed in the public domain by the
# contributors.
#
data_7243356
loop_
_publ_author_name
'Teri, Gele'
'Li, Na'
'Bai, Sagala'
'E., Namila'
'Baiyin, Menghe'
_publ_section_title
;
 Synthesis, crystal structure, photocatalysis, photocurrent response:
 one-dimensional K2HgSnSe4 and three-dimensional Na6Cu8Sn3Se13
;
_journal_issue                   35
_journal_name_full               CrystEngComm
_journal_page_first              6079
_journal_page_last               6085
_journal_paper_doi               10.1039/D1CE00821H
_journal_volume                  23
_journal_year                    2021
_chemical_formula_moiety         '0.5(Hg2 K4 Se8 Sn2)'
_chemical_formula_sum            'Hg K2 Se4 Sn'
_chemical_formula_weight         713.32
_space_group_crystal_system      tetragonal
_space_group_IT_number           140
_space_group_name_Hall           '-I 4 2c'
_space_group_name_H-M_alt        'I 4/m c m'
_atom_sites_solution_primary     direct
_atom_sites_solution_secondary   difmap
_audit_creation_date             2020-11-19
_audit_creation_method
;
  Olex2 1.2
  (compiled Apr 23 2013 17:54:37, GUI svn.r4466)
;
_audit_update_record
;
2021-04-12 deposited with the CCDC.	2021-07-21 downloaded from the CCDC.
;
_cell_angle_alpha                90.00
_cell_angle_beta                 90.00
_cell_angle_gamma                90.00
_cell_formula_units_Z            2
_cell_length_a                   8.0531(5)
_cell_length_b                   8.0531(5)
_cell_length_c                   6.9501(8)
_cell_measurement_reflns_used    293
_cell_measurement_temperature    292.22(10)
_cell_measurement_theta_max      28.0010
_cell_measurement_theta_min      3.8560
_cell_volume                     450.73(7)
_computing_cell_refinement       'CrysAlisPro 1.171.40.84a (Rigaku OD, 2020)'
_computing_data_collection       'CrysAlisPro 1.171.40.84a (Rigaku OD, 2020)'
_computing_data_reduction        'CrysAlisPro 1.171.40.84a (Rigaku OD, 2020)'
_computing_molecular_graphics
;
O. V. Dolomanov, L. J. Bourhis, R. J. Gildea, J. A. K. Howard and H. Puschmann,
OLEX2: a complete structure solution, refinement and analysis program.
J. Appl. Cryst. (2009). 42, 339-341.
;
_computing_publication_material
;
O. V. Dolomanov, L. J. Bourhis, R. J. Gildea, J. A. K. Howard and H. Puschmann,
OLEX2: a complete structure solution, refinement and analysis program.
J. Appl. Cryst. (2009). 42, 339-341.
;
_computing_structure_refinement
;
XL, G.M. Sheldrick, Acta Cryst.
(2008). A64, 112-122
;
_computing_structure_solution
;
XS, G.M. Sheldrick, Acta Cryst.
(2008). A64, 112-122
;
_diffrn_ambient_environment      air
_diffrn_ambient_temperature      292.22(10)
_diffrn_detector                 'CCD plate'
_diffrn_detector_area_resol_mean 16.0793
_diffrn_detector_type            Eos
_diffrn_measured_fraction_theta_full 1.0000
_diffrn_measured_fraction_theta_max 0.9130
_diffrn_measurement_details
;
List of Runs (angles in degrees, time in seconds):

  # Type    Start    End  Width  t~exp~   \w     \q     \k     \f   Frames
#--------------------------------------------------------------------------
  1  \w    -60.00 -21.00   1.00    1.31    --  -18.95 -30.00 134.00   39
  2  \w     39.00  94.00   1.00    1.31    --   18.88 178.00 -30.00   55
  3  \w     41.00  78.00   1.00    1.31    --   18.88 178.00  60.00   37
;
_diffrn_measurement_device       'four-circle diffractometer'
_diffrn_measurement_device_type  'SuperNova, Dual, Cu at home/near, Eos'
_diffrn_measurement_method       '\w scans'
_diffrn_orient_matrix_type
'CrysAlisPro convention (1999,Acta A55,543-557)'
_diffrn_orient_matrix_UB_11      -0.0832831000
_diffrn_orient_matrix_UB_12      -0.0278580000
_diffrn_orient_matrix_UB_13      -0.0081173000
_diffrn_orient_matrix_UB_21      0.0136110000
_diffrn_orient_matrix_UB_22      -0.0192446000
_diffrn_orient_matrix_UB_23      -0.0982958000
_diffrn_orient_matrix_UB_31      0.0252277000
_diffrn_orient_matrix_UB_32      -0.0813395000
_diffrn_orient_matrix_UB_33      0.0260955000
_diffrn_radiation_monochromator  mirror
_diffrn_radiation_probe          x-ray
_diffrn_radiation_type           'Mo K\a'
_diffrn_radiation_wavelength     0.71073
_diffrn_reflns_av_R_equivalents  0.0686
_diffrn_reflns_av_unetI/netI     0.0579
_diffrn_reflns_limit_h_max       9
_diffrn_reflns_limit_h_min       -9
_diffrn_reflns_limit_k_max       6
_diffrn_reflns_limit_k_min       -8
_diffrn_reflns_limit_l_max       8
_diffrn_reflns_limit_l_min       -4
_diffrn_reflns_number            439
_diffrn_reflns_theta_full        25.60
_diffrn_reflns_theta_max         25.61
_diffrn_reflns_theta_min         3.58
_diffrn_source                   'micro-focus sealed X-ray tube'
_diffrn_source_type              'SuperNova (Mo) X-ray Source'
_exptl_absorpt_coefficient_mu    36.763
_exptl_absorpt_correction_T_max  1.00000
_exptl_absorpt_correction_T_min  0.01418
_exptl_absorpt_correction_type   multi-scan
_exptl_absorpt_process_details
;
CrysAlisPro 1.171.40.84a (Rigaku Oxford Diffraction, 2020)
Empirical absorption correction using spherical harmonics,
implemented in SCALE3 ABSPACK scaling algorithm.
;
_exptl_crystal_colour            orange
_exptl_crystal_density_diffrn    5.256
_exptl_crystal_density_method    'not measured'
_exptl_crystal_description       block
_exptl_crystal_F_000             608
_exptl_crystal_size_max          0.26
_exptl_crystal_size_mid          0.16
_exptl_crystal_size_min          0.05
_refine_diff_density_max         4.067
_refine_diff_density_min         -5.803
_refine_diff_density_rms         0.850
_refine_ls_extinction_method     none
_refine_ls_goodness_of_fit_ref   1.330
_refine_ls_matrix_type           full
_refine_ls_number_parameters     11
_refine_ls_number_reflns         130
_refine_ls_number_restraints     6
_refine_ls_restrained_S_all      1.298
_refine_ls_R_factor_all          0.0976
_refine_ls_R_factor_gt           0.0960
_refine_ls_shift/su_max          0.000
_refine_ls_shift/su_mean         0.000
_refine_ls_structure_factor_coef Fsqd
_refine_ls_weighting_details
'calc w=1/[\s^2^(Fo^2^)+(0.0928P)^2^+266.7308P] where P=(Fo^2^+2Fc^2^)/3'
_refine_ls_weighting_scheme      calc
_refine_ls_wR_factor_gt          0.2515
_refine_ls_wR_factor_ref         0.2524
_reflns_number_gt                124
_reflns_number_total             130
_reflns_threshold_expression     >2sigma(I)
_cod_data_source_file            d1ce00821h2.cif
_cod_data_source_block           exp_4
_cod_depositor_comments
'Adding full bibliography for 7243356--7243357.cif.'
_cod_database_code               7243356
_reflns_odcompleteness_completeness 100.00
_reflns_odcompleteness_iscentric 1
_reflns_odcompleteness_theta     26.32
_olex2_refinement_description
;
1. Uiso/Uaniso restraints and constraints
Hg1 \\sim Sn1: within 1.7A with sigma of 0.005 and sigma for terminal atoms of 0.005
2. Others
 Fixed Sof: Hg1(0.0625) Sn1(0.0625)
;
_oxdiff_exptl_absorpt_empirical_details
;
Empirical correction (ABSPACK) includes:
- Absorption correction using spherical harmonics
- Frame scaling
;
_oxdiff_exptl_absorpt_empirical_full_max 10.714
_oxdiff_exptl_absorpt_empirical_full_min 0.258
_shelx_res_file
;
TITL exp_4 in I4/mcm
CELL 0.71073 8.0531 8.0531 6.9501 90 90 90
ZERR 2 0.0005 0.0005 0.0008 0 0 0
LATT 2
SYMM -X,-Y,+Z
SYMM -Y,+X,+Z
SYMM +Y,-X,+Z
SYMM -X,+Y,0.5-Z
SYMM +X,-Y,0.5-Z
SYMM +Y,+X,0.5-Z
SYMM -Y,-X,0.5-Z
 
SFAC K Se Sn Hg
UNIT 4 8 2 2
SIMU 0.005 0.005 1.7 Hg1 Sn1
 
L.S. 4
PLAN  20
BOND $H
htab 2
conf
fmap 2
acta
SHEL 999 0.82
REM <HKL>D:/data/20201020/2-neimenggu/tmp/exp_4.hkl</HKL>
 
WGHT    0.092800  266.730805
FVAR       0.07761
SE1   2    0.327830    0.827830    0.500000    10.25000    0.01320    0.01320 =
         0.03009    0.00000    0.00000   -0.00450
K1    1    0.000000    1.000000    0.250000    10.12500    0.03123    0.03123 =
         0.03312    0.00000    0.00000    0.00000
PART 1
HG1   4    0.500000    1.000000    0.250000    10.06250    0.02723    0.02723 =
         0.00535    0.00000    0.00000    0.00000
PART 0
PART 2
SN1   3    0.500000    1.000000    0.250000    10.06250    0.02726    0.02726 =
         0.00539    0.00000    0.00000    0.00000
HKLF 4
 
REM  exp_4 in I4/mcm
REM R1 =  0.0960 for    124 Fo > 4sig(Fo)  and  0.0976 for all    130 data
REM     11 parameters refined using      6 restraints
 
END  
     
WGHT      0.0928    266.7050 
REM Highest difference peak  4.067,  deepest hole -5.803,  1-sigma level  0.850
Q1    1   0.5000  1.0000  0.1605  10.25000  0.05    4.07
Q2    1   0.0000  1.0000  0.0000  10.12500  0.05    3.16
Q3    1   0.4572  0.9962  0.5000  10.50000  0.05    2.79
Q4    1   0.2239  0.9196  0.5000  10.50000  0.05    2.45
Q5    1   0.4118  1.0882  0.2537  10.50000  0.05    2.21
Q6    1   0.3211  0.8211  0.5784  10.50000  0.05    2.15
Q7    1   0.2613  0.9126  0.7644  11.00000  0.05    2.00
Q8    1   0.0537  1.1036  0.5000  10.50000  0.05    1.96
Q9    1   0.3107  0.8107  0.7482  10.50000  0.05    1.78
Q10   1   0.3715  1.0042  0.3972  11.00000  0.05    1.63
Q11   1   0.2504  0.7504  0.5000  10.25000  0.05    1.59
Q12   1   0.3828  0.8828  0.5000  10.25000  0.05    1.48
Q13   1   0.3968  1.1032  0.5000  10.25000  0.05    1.41
Q14   1   0.2966  1.0000  0.2500  10.50000  0.05    1.39
Q15   1   0.3595  1.0000  0.2500  10.50000  0.05    1.35
Q16   1   0.1780  0.8384  0.6514  11.00000  0.05    1.24
Q17   1   0.5615  0.8242  0.5000  10.50000  0.05    1.24
Q18   1   0.1523  1.0211  0.3663  11.00000  0.05    1.15
Q19   1   0.2108  0.9938  0.5813  11.00000  0.05    0.95
Q20   1   0.0972  1.1386  0.2846  11.00000  0.05    0.94

REM The information below was added by Olex2.
REM
REM R1 = 0.0960 for 124 Fo > 4sig(Fo) and 0.0976 for all 554 data
REM n/a parameters refined using n/a restraints
REM Highest difference peak 4.07, deepest hole -5.80
REM Mean Shift 0, Max Shift 0.

REM +++ Tabular Listing of Refinement Information +++
REM R1_all = 0.0976
REM R1_gt = 0.0960
REM wR_ref = 0.2524
REM GOOF = 1.330
REM Shift_max = 0
REM Shift_mean = 0
REM Reflections_all = 554
REM Reflections_gt = 124
REM Parameters = n/a
REM Hole = 4.07
REM Peak = -5.80
REM Flack = n/a

;
loop_
_space_group_symop_id
_space_group_symop_operation_xyz
1 'x, y, z'
2 '-x, -y, z'
3 '-y, x, z'
4 'y, -x, z'
5 '-x, y, -z+1/2'
6 'x, -y, -z+1/2'
7 'y, x, -z+1/2'
8 '-y, -x, -z+1/2'
9 'x+1/2, y+1/2, z+1/2'
10 '-x+1/2, -y+1/2, z+1/2'
11 '-y+1/2, x+1/2, z+1/2'
12 'y+1/2, -x+1/2, z+1/2'
13 '-x+1/2, y+1/2, -z+1'
14 'x+1/2, -y+1/2, -z+1'
15 'y+1/2, x+1/2, -z+1'
16 '-y+1/2, -x+1/2, -z+1'
17 '-x, -y, -z'
18 'x, y, -z'
19 'y, -x, -z'
20 '-y, x, -z'
21 'x, -y, z-1/2'
22 '-x, y, z-1/2'
23 '-y, -x, z-1/2'
24 'y, x, z-1/2'
25 '-x+1/2, -y+1/2, -z+1/2'
26 'x+1/2, y+1/2, -z+1/2'
27 'y+1/2, -x+1/2, -z+1/2'
28 '-y+1/2, x+1/2, -z+1/2'
29 'x+1/2, -y+1/2, z'
30 '-x+1/2, y+1/2, z'
31 '-y+1/2, -x+1/2, z'
32 'y+1/2, x+1/2, z'
loop_
_atom_site_label
_atom_site_type_symbol
_atom_site_fract_x
_atom_site_fract_y
_atom_site_fract_z
_atom_site_U_iso_or_equiv
_atom_site_adp_type
_atom_site_occupancy
_atom_site_symmetry_multiplicity
_atom_site_calc_flag
_atom_site_refinement_flags
_atom_site_disorder_assembly
_atom_site_disorder_group
Se1 Se 0.3278(5) 0.8278(5) 0.5000 0.0188(18) Uani 1 4 d S . .
K1 K 0.0000 1.0000 0.2500 0.032(5) Uani 1 8 d S . .
Hg1 Hg 0.5000 1.0000 0.2500 0.0199(19) Uani 0.50 8 d SPU . 1
Sn1 Sn 0.5000 1.0000 0.2500 0.020(2) Uani 0.50 8 d SPU . 2
loop_
_atom_site_aniso_label
_atom_site_aniso_U_11
_atom_site_aniso_U_22
_atom_site_aniso_U_33
_atom_site_aniso_U_23
_atom_site_aniso_U_13
_atom_site_aniso_U_12
Se1 0.013(2) 0.013(2) 0.030(4) 0.000 0.000 -0.004(3)
K1 0.031(7) 0.031(7) 0.033(12) 0.000 0.000 0.000
Hg1 0.027(2) 0.027(2) 0.005(3) 0.000 0.000 0.000
Sn1 0.027(3) 0.027(3) 0.005(4) 0.000 0.000 0.000
loop_
_atom_type_symbol
_atom_type_description
_atom_type_scat_dispersion_real
_atom_type_scat_dispersion_imag
_atom_type_scat_source
K K 0.2009 0.2494 'International Tables Vol C Tables 4.2.6.8 and 6.1.1.4'
Se Se -0.0929 2.2259 'International Tables Vol C Tables 4.2.6.8 and 6.1.1.4'
Sn Sn -0.6537 1.4246 'International Tables Vol C Tables 4.2.6.8 and 6.1.1.4'
Hg Hg -2.3894 9.2266 'International Tables Vol C Tables 4.2.6.8 and 6.1.1.4'
loop_
_geom_angle_atom_site_label_1
_geom_angle_atom_site_label_2
_geom_angle_atom_site_label_3
_geom_angle
_geom_angle_site_symmetry_1
_geom_angle_site_symmetry_3
_geom_angle_publ_flag
K1 Se1 K1 150.2(2) 9_545 . ?
K1 Se1 K1 111.17(8) 25_565 . ?
K1 Se1 K1 60.46(3) 25_565 9_545 ?
K1 Se1 K1 60.46(3) . 17_576 ?
K1 Se1 K1 111.17(8) 9_545 17_576 ?
K1 Se1 K1 150.2(2) 25_565 17_576 ?
Hg1 Se1 K1 121.74(9) . 17_576 ?
Hg1 Se1 K1 121.74(9) . 9_545 ?
Hg1 Se1 K1 81.86(3) 17_676 9_545 ?
Hg1 Se1 K1 81.86(3) . . ?
Hg1 Se1 K1 81.86(3) . 25_565 ?
Hg1 Se1 K1 121.74(9) 17_676 . ?
Hg1 Se1 K1 81.86(3) 17_676 17_576 ?
Hg1 Se1 K1 121.74(9) 17_676 25_565 ?
Hg1 Se1 Hg1 83.09(18) . 17_676 ?
Hg1 Se1 Sn1 83.09(18) . 17_676 ?
Sn1 Se1 K1 81.86(3) 17_676 17_576 ?
Sn1 Se1 K1 121.74(9) . 17_576 ?
Sn1 Se1 K1 121.74(9) . 9_545 ?
Sn1 Se1 K1 81.86(3) 17_676 9_545 ?
Sn1 Se1 K1 81.86(3) . 25_565 ?
Sn1 Se1 K1 121.74(9) 17_676 25_565 ?
Sn1 Se1 K1 81.86(3) . . ?
Sn1 Se1 K1 121.74(9) 17_676 . ?
Sn1 Se1 Hg1 0.0 . . ?
Sn1 Se1 Hg1 0.0 17_676 17_676 ?
Sn1 Se1 Hg1 83.09(18) . 17_676 ?
Sn1 Se1 Sn1 83.09(18) . 17_676 ?
Se1 K1 Se1 68.83(8) . 25_565 ?
Se1 K1 Se1 132.63(18) 3_665 25_565 ?
Se1 K1 Se1 119.54(3) 9_454 25_565 ?
Se1 K1 Se1 75.318(14) 11_554 25_565 ?
Se1 K1 Se1 80.20(16) 3_665 9_454 ?
Se1 K1 Se1 75.318(14) 27_465 25_565 ?
Se1 K1 Se1 150.2(2) 17_576 25_565 ?
Se1 K1 Se1 119.54(3) 3_665 19_466 ?
Se1 K1 Se1 132.63(18) 9_454 19_466 ?
Se1 K1 Se1 80.19(16) 25_565 19_466 ?
Se1 K1 Se1 75.318(14) . 19_466 ?
Se1 K1 Se1 150.2(2) 27_465 19_466 ?
Se1 K1 Se1 75.318(14) 17_576 19_466 ?
Se1 K1 Se1 68.83(8) 11_554 19_466 ?
Se1 K1 Se1 119.54(3) 17_576 . ?
Se1 K1 Se1 132.63(18) 11_554 . ?
Se1 K1 Se1 68.83(8) 27_465 3_665 ?
Se1 K1 Se1 80.19(16) 27_465 . ?
Se1 K1 Se1 132.63(18) 27_465 17_576 ?
Se1 K1 Se1 119.54(3) 27_465 11_554 ?
Se1 K1 Se1 80.20(16) 17_576 11_554 ?
Se1 K1 Se1 68.83(8) 17_576 9_454 ?
Se1 K1 Se1 75.318(14) 11_554 9_454 ?
Se1 K1 Se1 150.2(2) . 9_454 ?
Se1 K1 Se1 75.318(14) 27_465 9_454 ?
Se1 K1 Se1 75.318(14) 17_576 3_665 ?
Se1 K1 Se1 150.2(2) 11_554 3_665 ?
Se1 K1 Se1 75.318(14) . 3_665 ?
Se1 K1 K1 120.228(16) . 17_575 ?
Se1 K1 K1 59.772(16) 11_554 17_575 ?
Se1 K1 K1 120.228(16) 17_576 17_575 ?
Se1 K1 K1 59.771(16) 27_465 17_575 ?
Se1 K1 K1 59.772(16) 25_565 17_575 ?
Se1 K1 K1 120.228(16) 19_466 17_575 ?
Se1 K1 K1 59.772(16) 9_454 17_575 ?
Se1 K1 K1 120.228(16) 3_665 17_575 ?
Se1 K1 K1 59.772(16) . 17_576 ?
Se1 K1 K1 120.229(16) 11_554 17_576 ?
Se1 K1 K1 120.228(16) 27_465 17_576 ?
Se1 K1 K1 59.771(16) 17_576 17_576 ?
Se1 K1 K1 59.772(16) 19_466 17_576 ?
Se1 K1 K1 120.228(16) 25_565 17_576 ?
Se1 K1 K1 120.228(16) 9_454 17_576 ?
Se1 K1 K1 59.772(16) 3_665 17_576 ?
Se1 K1 Hg1 66.31(9) . 25_565 ?
Se1 K1 Hg1 66.31(9) 11_554 25_565 ?
Se1 K1 Hg1 113.69(9) 27_465 25_565 ?
Se1 K1 Hg1 113.69(9) 17_576 25_565 ?
Se1 K1 Hg1 40.10(8) 25_565 25_565 ?
Se1 K1 Hg1 40.10(8) 19_466 25_565 ?
Se1 K1 Hg1 139.90(8) 3_665 25_565 ?
Se1 K1 Hg1 139.90(8) 9_454 25_565 ?
Se1 K1 Sn1 66.31(9) . 25_565 ?
Se1 K1 Sn1 139.90(8) 3_665 25_565 ?
Se1 K1 Sn1 113.69(9) 17_576 25_565 ?
Se1 K1 Sn1 66.31(9) 11_554 25_565 ?
Se1 K1 Sn1 40.10(8) 19_466 25_565 ?
Se1 K1 Sn1 113.69(9) 27_465 25_565 ?
Se1 K1 Sn1 139.90(8) 9_454 25_565 ?
Se1 K1 Sn1 40.10(8) 25_565 25_565 ?
K1 K1 K1 180.0 17_576 17_575 ?
K1 K1 Hg1 90.0 17_575 25_565 ?
K1 K1 Hg1 90.0 17_576 25_565 ?
K1 K1 Sn1 90.0 17_575 25_565 ?
K1 K1 Sn1 90.0 17_576 25_565 ?
Sn1 K1 Hg1 0.0 25_565 25_565 ?
Se1 Hg1 Se1 116.09(10) 17_676 11_654 ?
Se1 Hg1 Se1 96.91(18) 27_465 11_654 ?
Se1 Hg1 Se1 116.09(10) . 11_654 ?
Se1 Hg1 Se1 116.10(10) 17_676 27_465 ?
Se1 Hg1 Se1 96.91(18) 17_676 . ?
Se1 Hg1 Se1 116.09(10) 27_465 . ?
Se1 Hg1 K1 58.05(5) 17_676 1_655 ?
Se1 Hg1 K1 121.95(5) 11_654 . ?
Se1 Hg1 K1 121.95(5) 27_465 1_655 ?
Se1 Hg1 K1 121.95(5) 17_676 . ?
Se1 Hg1 K1 58.05(5) . . ?
Se1 Hg1 K1 58.05(5) 27_465 . ?
Se1 Hg1 K1 58.05(5) 27_465 25_575 ?
Se1 Hg1 K1 121.95(5) . 25_575 ?
Se1 Hg1 K1 121.95(5) 11_654 25_575 ?
Se1 Hg1 K1 121.95(5) . 1_655 ?
Se1 Hg1 K1 58.05(5) 17_676 25_575 ?
Se1 Hg1 K1 58.05(5) 11_654 1_655 ?
Se1 Hg1 K1 58.05(5) 11_654 25_565 ?
Se1 Hg1 K1 121.95(5) 17_676 25_565 ?
Se1 Hg1 K1 58.05(5) . 25_565 ?
Se1 Hg1 K1 121.95(5) 27_465 25_565 ?
Se1 Hg1 Hg1 48.45(9) 27_465 17_675 ?
Se1 Hg1 Hg1 131.54(9) 17_676 17_675 ?
Se1 Hg1 Hg1 48.45(9) 17_676 17_676 ?
Se1 Hg1 Hg1 131.55(9) . 17_675 ?
Se1 Hg1 Hg1 48.46(9) . 17_676 ?
Se1 Hg1 Hg1 131.55(9) 11_654 17_676 ?
Se1 Hg1 Hg1 48.46(9) 11_654 17_675 ?
Se1 Hg1 Hg1 131.54(9) 27_465 17_676 ?
K1 Hg1 K1 180.0 . 1_655 ?
K1 Hg1 K1 90.0 25_565 1_655 ?
K1 Hg1 K1 90.0 . 25_575 ?
K1 Hg1 K1 90.0 1_655 25_575 ?
K1 Hg1 K1 180.0 25_565 25_575 ?
K1 Hg1 K1 90.0 25_565 . ?
Hg1 Hg1 K1 90.0 17_675 25_575 ?
Hg1 Hg1 K1 90.0 17_676 25_575 ?
Hg1 Hg1 K1 90.0 17_676 . ?
Hg1 Hg1 K1 90.0 17_676 25_565 ?
Hg1 Hg1 K1 90.0 17_675 1_655 ?
Hg1 Hg1 K1 90.0 17_675 25_565 ?
Hg1 Hg1 K1 90.0 17_676 1_655 ?
Hg1 Hg1 K1 90.0 17_675 . ?
Hg1 Hg1 Hg1 180.0 17_676 17_675 ?
Se1 Sn1 Se1 116.09(10) 17_676 11_654 ?
Se1 Sn1 Se1 96.91(18) 27_465 11_654 ?
Se1 Sn1 Se1 116.09(10) . 11_654 ?
Se1 Sn1 Se1 116.10(10) 17_676 27_465 ?
Se1 Sn1 Se1 96.91(18) 17_676 . ?
Se1 Sn1 Se1 116.09(10) 27_465 . ?
Se1 Sn1 K1 58.05(5) 11_654 1_655 ?
Se1 Sn1 K1 121.95(5) . 1_655 ?
Se1 Sn1 K1 121.95(5) 27_465 1_655 ?
Se1 Sn1 K1 58.05(5) 17_676 1_655 ?
Se1 Sn1 K1 121.95(5) . 25_575 ?
Se1 Sn1 K1 121.95(5) 11_654 25_575 ?
Se1 Sn1 K1 58.05(5) 27_465 25_575 ?
Se1 Sn1 K1 58.05(5) 17_676 25_575 ?
Se1 Sn1 K1 121.95(5) 17_676 . ?
Se1 Sn1 K1 121.95(5) 27_465 25_565 ?
Se1 Sn1 K1 58.05(5) 11_654 25_565 ?
Se1 Sn1 K1 58.05(5) . 25_565 ?
Se1 Sn1 K1 121.95(5) 17_676 25_565 ?
Se1 Sn1 K1 121.95(5) 11_654 . ?
Se1 Sn1 K1 58.05(5) 27_465 . ?
Se1 Sn1 K1 58.05(5) . . ?
K1 Sn1 K1 90.0 1_655 25_575 ?
K1 Sn1 K1 90.0 . 25_575 ?
K1 Sn1 K1 180.0 25_565 25_575 ?
K1 Sn1 K1 90.0 25_565 . ?
K1 Sn1 K1 90.0 25_565 1_655 ?
K1 Sn1 K1 180.0 . 1_655 ?
loop_
_geom_bond_atom_site_label_1
_geom_bond_atom_site_label_2
_geom_bond_distance
_geom_bond_site_symmetry_2
_geom_bond_publ_flag
Se1 K1 3.4513(16) 9_545 ?
Se1 K1 3.4513(16) 25_565 ?
Se1 K1 3.4513(16) 17_576 ?
Se1 K1 3.4513(16) . ?
Se1 Hg1 2.620(5) 17_676 ?
Se1 Hg1 2.620(5) . ?
Se1 Sn1 2.620(5) . ?
Se1 Sn1 2.620(5) 17_676 ?
K1 Se1 3.4513(16) 9_454 ?
K1 Se1 3.4513(16) 25_565 ?
K1 Se1 3.4513(16) 19_466 ?
K1 Se1 3.4513(16) 3_665 ?
K1 Se1 3.4512(16) 27_465 ?
K1 Se1 3.4512(16) 17_576 ?
K1 Se1 3.4513(16) 11_554 ?
K1 K1 3.4751(4) 17_575 ?
K1 K1 3.4751(4) 17_576 ?
K1 Hg1 4.0265(3) 25_565 ?
K1 Sn1 4.0265(3) 25_565 ?
Hg1 Se1 2.620(5) 11_654 ?
Hg1 Se1 2.620(5) 27_465 ?
Hg1 Se1 2.620(5) 17_676 ?
Hg1 K1 4.0266(3) 1_655 ?
Hg1 K1 4.0266(3) 25_575 ?
Hg1 K1 4.0265(3) 25_565 ?
Hg1 Hg1 3.4751(4) 17_676 ?
Hg1 Hg1 3.4751(4) 17_675 ?
Sn1 Se1 2.620(5) 11_654 ?
Sn1 Se1 2.620(5) 27_465 ?
Sn1 Se1 2.620(5) 17_676 ?
Sn1 K1 4.0266(3) 25_575 ?
Sn1 K1 4.0266(3) 1_655 ?
Sn1 K1 4.0265(3) 25_565 ?
loop_
_geom_torsion_atom_site_label_1
_geom_torsion_atom_site_label_2
_geom_torsion_atom_site_label_3
_geom_torsion_atom_site_label_4
_geom_torsion
_geom_torsion_site_symmetry_1
_geom_torsion_site_symmetry_2
_geom_torsion_site_symmetry_3
_geom_torsion_site_symmetry_4
_geom_torsion_publ_flag
Se1 K1 Hg1 Se1 -18.06(13) 9_454 . . 27_465 ?
Se1 K1 Hg1 Se1 -84.76(4) 3_665 . . 27_465 ?
Se1 K1 Hg1 Se1 180.0 . . . 27_465 ?
Se1 K1 Hg1 Se1 180.0 27_465 . . . ?
Se1 K1 Hg1 Se1 161.94(13) 19_466 . . 27_465 ?
Se1 K1 Hg1 Se1 95.24(4) 25_565 . . 27_465 ?
Se1 K1 Hg1 Se1 77.18(17) 11_554 . . 27_465 ?
Se1 K1 Hg1 Se1 84.76(4) 9_454 . . 17_676 ?
Se1 K1 Hg1 Se1 18.06(13) 3_665 . . 17_676 ?
Se1 K1 Hg1 Se1 -77.18(17) . . . 17_676 ?
Se1 K1 Hg1 Se1 -102.82(17) 17_576 . . 27_465 ?
Se1 K1 Hg1 Se1 -95.24(4) 19_466 . . 17_676 ?
Se1 K1 Hg1 Se1 -161.94(13) 25_565 . . 17_676 ?
Se1 K1 Hg1 Se1 84.76(4) 19_466 . . 11_654 ?
Se1 K1 Hg1 Se1 161.94(13) 9_454 . . . ?
Se1 K1 Hg1 Se1 -84.76(4) 25_565 . . . ?
Se1 K1 Hg1 Se1 -18.06(13) 19_466 . . . ?
Se1 K1 Hg1 Se1 77.18(17) 17_576 . . . ?
Se1 K1 Hg1 Se1 -102.82(17) 11_554 . . . ?
Se1 K1 Hg1 Se1 95.24(4) 3_665 . . . ?
Se1 K1 Hg1 Se1 -77.18(17) 27_465 . . 11_654 ?
Se1 K1 Hg1 Se1 -161.94(13) 3_665 . . 11_654 ?
Se1 K1 Hg1 Se1 -95.24(4) 9_454 . . 11_654 ?
Se1 K1 Hg1 Se1 18.06(13) 25_565 . . 11_654 ?
Se1 K1 Hg1 Se1 180.0 17_576 . . 11_654 ?
Se1 K1 Hg1 Se1 0.0 11_554 . . 11_654 ?
Se1 K1 Hg1 Se1 102.82(17) . . . 11_654 ?
Se1 K1 Hg1 Se1 102.82(17) 27_465 . . 17_676 ?
Se1 K1 Hg1 Se1 0.0 17_576 . . 17_676 ?
Se1 K1 Hg1 Se1 180.0 11_554 . . 17_676 ?
Se1 K1 Hg1 K1 -146.65(4) 19_466 . . 1_655 ?
Se1 K1 Hg1 K1 51.41(9) 27_465 . . 25_575 ?
Se1 K1 Hg1 K1 -51.41(9) 17_576 . . 25_575 ?
Se1 K1 Hg1 K1 -33.35(4) 3_665 . . 1_655 ?
Se1 K1 Hg1 K1 33.35(4) 9_454 . . 1_655 ?
Se1 K1 Hg1 K1 146.65(4) 25_565 . . 1_655 ?
Se1 K1 Hg1 K1 33.35(4) 9_454 . . 25_575 ?
Se1 K1 Hg1 K1 146.65(4) 25_565 . . 25_575 ?
Se1 K1 Hg1 K1 -146.65(4) 19_466 . . 25_575 ?
Se1 K1 Hg1 K1 128.59(9) 11_554 . . 25_575 ?
Se1 K1 Hg1 K1 -128.59(9) . . . 25_575 ?
Se1 K1 Hg1 K1 -33.35(4) 3_665 . . 25_575 ?
Se1 K1 Hg1 K1 51.41(9) . . . 25_565 ?
Se1 K1 Hg1 K1 146.65(4) 3_665 . . 25_565 ?
Se1 K1 Hg1 K1 -146.65(4) 9_454 . . 25_565 ?
Se1 K1 Hg1 K1 -128.59(9) 27_465 . . 25_565 ?
Se1 K1 Hg1 K1 128.59(9) 17_576 . . 25_565 ?
Se1 K1 Hg1 K1 -51.41(9) 11_554 . . 25_565 ?
Se1 K1 Hg1 K1 -51.41(9) 17_576 . . 1_655 ?
Se1 K1 Hg1 K1 128.59(9) 11_554 . . 1_655 ?
Se1 K1 Hg1 K1 -128.59(9) . . . 1_655 ?
Se1 K1 Hg1 K1 -33.35(4) 25_565 . . 25_565 ?
Se1 K1 Hg1 K1 33.35(4) 19_466 . . 25_565 ?
Se1 K1 Hg1 K1 51.41(9) 27_465 . . 1_655 ?
Se1 K1 Hg1 Hg1 38.59(9) 11_554 . . 17_675 ?
Se1 K1 Hg1 Hg1 141.41(9) . . . 17_675 ?
Se1 K1 Hg1 Hg1 -141.41(9) 17_576 . . 17_675 ?
Se1 K1 Hg1 Hg1 -38.59(9) 27_465 . . 17_675 ?
Se1 K1 Hg1 Hg1 56.65(4) 25_565 . . 17_675 ?
Se1 K1 Hg1 Hg1 123.35(4) 19_466 . . 17_675 ?
Se1 K1 Hg1 Hg1 -56.65(4) 9_454 . . 17_675 ?
Se1 K1 Hg1 Hg1 -123.35(4) 3_665 . . 17_675 ?
Se1 K1 Hg1 Hg1 -38.59(9) . . . 17_676 ?
Se1 K1 Hg1 Hg1 -141.41(9) 11_554 . . 17_676 ?
Se1 K1 Hg1 Hg1 141.41(9) 27_465 . . 17_676 ?
Se1 K1 Hg1 Hg1 38.59(9) 17_576 . . 17_676 ?
Se1 K1 Hg1 Hg1 -56.65(4) 19_466 . . 17_676 ?
Se1 K1 Hg1 Hg1 -123.35(4) 25_565 . . 17_676 ?
Se1 K1 Hg1 Hg1 56.65(4) 3_665 . . 17_676 ?
Se1 K1 Hg1 Hg1 123.35(4) 9_454 . . 17_676 ?
Se1 K1 Sn1 Se1 -102.82(17) 11_554 . . . ?
Se1 K1 Sn1 Se1 95.24(4) 3_665 . . . ?
Se1 K1 Sn1 Se1 161.94(13) 9_454 . . . ?
Se1 K1 Sn1 Se1 161.94(13) 19_466 . . 27_465 ?
Se1 K1 Sn1 Se1 180.0 27_465 . . . ?
Se1 K1 Sn1 Se1 77.18(17) 17_576 . . . ?
Se1 K1 Sn1 Se1 -84.76(4) 25_565 . . . ?
Se1 K1 Sn1 Se1 0.0 11_554 . . 11_654 ?
Se1 K1 Sn1 Se1 102.82(17) . . . 11_654 ?
Se1 K1 Sn1 Se1 -161.94(13) 3_665 . . 11_654 ?
Se1 K1 Sn1 Se1 -18.06(13) 19_466 . . . ?
Se1 K1 Sn1 Se1 -77.18(17) 27_465 . . 11_654 ?
Se1 K1 Sn1 Se1 180.0 17_576 . . 11_654 ?
Se1 K1 Sn1 Se1 95.24(4) 25_565 . . 27_465 ?
Se1 K1 Sn1 Se1 -77.18(17) . . . 17_676 ?
Se1 K1 Sn1 Se1 18.06(13) 3_665 . . 17_676 ?
Se1 K1 Sn1 Se1 84.76(4) 9_454 . . 17_676 ?
Se1 K1 Sn1 Se1 102.82(17) 27_465 . . 17_676 ?
Se1 K1 Sn1 Se1 0.0 17_576 . . 17_676 ?
Se1 K1 Sn1 Se1 180.0 11_554 . . 17_676 ?
Se1 K1 Sn1 Se1 -161.94(13) 25_565 . . 17_676 ?
Se1 K1 Sn1 Se1 180.0 . . . 27_465 ?
Se1 K1 Sn1 Se1 -84.76(4) 3_665 . . 27_465 ?
Se1 K1 Sn1 Se1 -18.06(13) 9_454 . . 27_465 ?
Se1 K1 Sn1 Se1 -95.24(4) 19_466 . . 17_676 ?
Se1 K1 Sn1 Se1 -102.82(17) 17_576 . . 27_465 ?
Se1 K1 Sn1 Se1 77.18(17) 11_554 . . 27_465 ?
Se1 K1 Sn1 Se1 84.76(4) 19_466 . . 11_654 ?
Se1 K1 Sn1 Se1 18.06(13) 25_565 . . 11_654 ?
Se1 K1 Sn1 Se1 -95.24(4) 9_454 . . 11_654 ?
Se1 K1 Sn1 K1 -146.65(4) 19_466 . . 1_655 ?
Se1 K1 Sn1 K1 51.41(9) 27_465 . . 25_575 ?
Se1 K1 Sn1 K1 -51.41(9) 17_576 . . 25_575 ?
Se1 K1 Sn1 K1 -33.35(4) 3_665 . . 1_655 ?
Se1 K1 Sn1 K1 33.35(4) 9_454 . . 1_655 ?
Se1 K1 Sn1 K1 146.65(4) 25_565 . . 1_655 ?
Se1 K1 Sn1 K1 33.35(4) 9_454 . . 25_575 ?
Se1 K1 Sn1 K1 146.65(4) 25_565 . . 25_575 ?
Se1 K1 Sn1 K1 -146.65(4) 19_466 . . 25_575 ?
Se1 K1 Sn1 K1 128.59(9) 11_554 . . 25_575 ?
Se1 K1 Sn1 K1 -128.59(9) . . . 25_575 ?
Se1 K1 Sn1 K1 -33.35(4) 3_665 . . 25_575 ?
Se1 K1 Sn1 K1 51.41(9) . . . 25_565 ?
Se1 K1 Sn1 K1 146.65(4) 3_665 . . 25_565 ?
Se1 K1 Sn1 K1 -146.65(4) 9_454 . . 25_565 ?
Se1 K1 Sn1 K1 -128.59(9) 27_465 . . 25_565 ?
Se1 K1 Sn1 K1 128.59(9) 17_576 . . 25_565 ?
Se1 K1 Sn1 K1 -51.41(9) 11_554 . . 25_565 ?
Se1 K1 Sn1 K1 -51.41(9) 17_576 . . 1_655 ?
Se1 K1 Sn1 K1 128.59(9) 11_554 . . 1_655 ?
Se1 K1 Sn1 K1 -128.59(9) . . . 1_655 ?
Se1 K1 Sn1 K1 -33.35(4) 25_565 . . 25_565 ?
Se1 K1 Sn1 K1 33.35(4) 19_466 . . 25_565 ?
Se1 K1 Sn1 K1 51.41(9) 27_465 . . 1_655 ?
K1 Se1 K1 Se1 180.0 9_545 . . 9_454 ?
K1 Se1 K1 Se1 0.0 25_565 . . 25_565 ?
K1 Se1 K1 Se1 -112.82(13) 25_565 . . 9_454 ?
K1 Se1 K1 Se1 144.37(5) 9_545 . . 3_665 ?
K1 Se1 K1 Se1 98.91(6) 17_576 . . 9_454 ?
K1 Se1 K1 Se1 17.81(7) 9_545 . . 19_466 ?
K1 Se1 K1 Se1 85.0(2) 25_565 . . 19_466 ?
K1 Se1 K1 Se1 -148.27(19) 17_576 . . 25_565 ?
K1 Se1 K1 Se1 -67.18(13) 9_545 . . 25_565 ?
K1 Se1 K1 Se1 148.27(19) 25_565 . . 17_576 ?
K1 Se1 K1 Se1 133.79(12) 17_576 . . 27_465 ?
K1 Se1 K1 Se1 -77.94(7) 25_565 . . 27_465 ?
K1 Se1 K1 Se1 -145.12(7) 9_545 . . 27_465 ?
K1 Se1 K1 Se1 81.09(6) 9_545 . . 17_576 ?
K1 Se1 K1 Se1 -148.45(18) 25_565 . . 3_665 ?
K1 Se1 K1 Se1 -104.81(7) 17_576 . . 11_554 ?
K1 Se1 K1 Se1 0.0 17_576 . . 17_576 ?
K1 Se1 K1 Se1 43.46(12) 25_565 . . 11_554 ?
K1 Se1 K1 K1 -98.91(6) 9_545 . . 17_575 ?
K1 Se1 K1 K1 -31.73(19) 25_565 . . 17_575 ?
K1 Se1 K1 K1 81.09(6) 9_545 . . 17_576 ?
K1 Se1 K1 K1 148.27(19) 25_565 . . 17_576 ?
K1 Se1 K1 K1 180.0 17_576 . . 17_575 ?
K1 Se1 K1 Hg1 43.46(12) 25_565 . . 25_565 ?
K1 Se1 K1 Hg1 -104.81(7) 17_576 . . 25_565 ?
K1 Se1 K1 Hg1 -23.718(18) 9_545 . . 25_565 ?
K1 Se1 K1 Sn1 43.46(12) 25_565 . . 25_565 ?
K1 Se1 K1 Sn1 -23.718(18) 9_545 . . 25_565 ?
K1 Se1 K1 Sn1 -104.81(7) 17_576 . . 25_565 ?
K1 Se1 Hg1 Se1 -75.95(13) 9_545 . . 17_676 ?
K1 Se1 Hg1 Se1 0.0 25_565 . . 11_654 ?
K1 Se1 Hg1 Se1 47.60(8) 9_545 . . 11_654 ?
K1 Se1 Hg1 Se1 0.0 . . . 27_465 ?
K1 Se1 Hg1 Se1 123.55(5) . . . 17_676 ?
K1 Se1 Hg1 Se1 -47.60(8) 17_576 . . 27_465 ?
K1 Se1 Hg1 Se1 -112.90(9) . . . 11_654 ?
K1 Se1 Hg1 Se1 -160.50(18) 17_576 . . 11_654 ?
K1 Se1 Hg1 Se1 -123.55(5) 25_565 . . 17_676 ?
K1 Se1 Hg1 Se1 75.95(13) 17_576 . . 17_676 ?
K1 Se1 Hg1 Se1 112.89(9) 25_565 . . 27_465 ?
K1 Se1 Hg1 Se1 160.50(18) 9_545 . . 27_465 ?
K1 Se1 Hg1 K1 -67.11(9) 25_565 . . 1_655 ?
K1 Se1 Hg1 K1 67.11(9) . . . 25_575 ?
K1 Se1 Hg1 K1 -132.40(8) 9_545 . . 25_575 ?
K1 Se1 Hg1 K1 180.0 25_565 . . 25_575 ?
K1 Se1 Hg1 K1 19.50(18) 17_576 . . 25_575 ?
K1 Se1 Hg1 K1 -19.50(18) 9_545 . . 1_655 ?
K1 Se1 Hg1 K1 180.0 . . . 1_655 ?
K1 Se1 Hg1 K1 132.40(8) 17_576 . . 1_655 ?
K1 Se1 Hg1 K1 112.89(9) 25_565 . . . ?
K1 Se1 Hg1 K1 160.50(18) 9_545 . . . ?
K1 Se1 Hg1 K1 -47.60(8) 17_576 . . . ?
K1 Se1 Hg1 K1 47.60(8) 9_545 . . 25_565 ?
K1 Se1 Hg1 K1 -112.89(9) . . . 25_565 ?
K1 Se1 Hg1 K1 -160.50(18) 17_576 . . 25_565 ?
K1 Se1 Hg1 Hg1 104.05(13) 9_545 . . 17_675 ?
K1 Se1 Hg1 Hg1 56.45(5) 25_565 . . 17_675 ?
K1 Se1 Hg1 Hg1 -104.05(13) 17_576 . . 17_675 ?
K1 Se1 Hg1 Hg1 -56.45(5) . . . 17_675 ?
K1 Se1 Hg1 Hg1 -75.95(13) 9_545 . . 17_676 ?
K1 Se1 Hg1 Hg1 -123.55(5) 25_565 . . 17_676 ?
K1 Se1 Hg1 Hg1 123.55(5) . . . 17_676 ?
K1 Se1 Hg1 Hg1 75.95(13) 17_576 . . 17_676 ?
K1 Se1 Sn1 Se1 -112.90(9) . . . 11_654 ?
K1 Se1 Sn1 Se1 -160.50(18) 17_576 . . 11_654 ?
K1 Se1 Sn1 Se1 123.55(5) . . . 17_676 ?
K1 Se1 Sn1 Se1 75.95(13) 17_576 . . 17_676 ?
K1 Se1 Sn1 Se1 112.89(9) 25_565 . . 27_465 ?
K1 Se1 Sn1 Se1 160.50(18) 9_545 . . 27_465 ?
K1 Se1 Sn1 Se1 0.0 . . . 27_465 ?
K1 Se1 Sn1 Se1 47.60(8) 9_545 . . 11_654 ?
K1 Se1 Sn1 Se1 -123.55(5) 25_565 . . 17_676 ?
K1 Se1 Sn1 Se1 -75.95(13) 9_545 . . 17_676 ?
K1 Se1 Sn1 Se1 0.0 25_565 . . 11_654 ?
K1 Se1 Sn1 Se1 -47.60(8) 17_576 . . 27_465 ?
K1 Se1 Sn1 K1 160.50(18) 9_545 . . . ?
K1 Se1 Sn1 K1 -47.60(8) 17_576 . . . ?
K1 Se1 Sn1 K1 -67.11(9) 25_565 . . 1_655 ?
K1 Se1 Sn1 K1 112.89(9) 25_565 . . . ?
K1 Se1 Sn1 K1 47.60(8) 9_545 . . 25_565 ?
K1 Se1 Sn1 K1 -112.89(9) . . . 25_565 ?
K1 Se1 Sn1 K1 -160.50(18) 17_576 . . 25_565 ?
K1 Se1 Sn1 K1 -132.40(8) 9_545 . . 25_575 ?
K1 Se1 Sn1 K1 67.11(9) . . . 25_575 ?
K1 Se1 Sn1 K1 19.50(18) 17_576 . . 25_575 ?
K1 Se1 Sn1 K1 180.0 25_565 . . 25_575 ?
K1 Se1 Sn1 K1 -19.50(18) 9_545 . . 1_655 ?
K1 Se1 Sn1 K1 180.0 . . . 1_655 ?
K1 Se1 Sn1 K1 132.40(8) 17_576 . . 1_655 ?
K1 K1 Hg1 Se1 38.59(9) 17_576 . . . ?
K1 K1 Hg1 Se1 -141.41(9) 17_576 . . 27_465 ?
K1 K1 Hg1 Se1 141.41(9) 17_575 . . 17_676 ?
K1 K1 Hg1 Se1 -38.59(9) 17_576 . . 17_676 ?
K1 K1 Hg1 Se1 -141.41(9) 17_575 . . . ?
K1 K1 Hg1 Se1 141.41(9) 17_576 . . 11_654 ?
K1 K1 Hg1 Se1 38.59(9) 17_575 . . 27_465 ?
K1 K1 Hg1 Se1 -38.59(9) 17_575 . . 11_654 ?
K1 K1 Hg1 K1 90.0 17_576 . . 25_565 ?
K1 K1 Hg1 K1 -90.0 17_575 . . 25_565 ?
K1 K1 Hg1 K1 90.0 17_575 . . 25_575 ?
K1 K1 Hg1 K1 -90.0 17_576 . . 25_575 ?
K1 K1 Hg1 K1 -90.0 17_576 . . 1_655 ?
K1 K1 Hg1 K1 90.0 17_575 . . 1_655 ?
K1 K1 Hg1 Hg1 180.0 17_576 . . 17_675 ?
K1 K1 Hg1 Hg1 180.0 17_575 . . 17_676 ?
K1 K1 Hg1 Hg1 0.0 17_576 . . 17_676 ?
K1 K1 Hg1 Hg1 0.0 17_575 . . 17_675 ?
K1 K1 Sn1 Se1 38.59(9) 17_576 . . . ?
K1 K1 Sn1 Se1 38.59(9) 17_575 . . 27_465 ?
K1 K1 Sn1 Se1 141.41(9) 17_576 . . 11_654 ?
K1 K1 Sn1 Se1 -141.41(9) 17_576 . . 27_465 ?
K1 K1 Sn1 Se1 -38.59(9) 17_575 . . 11_654 ?
K1 K1 Sn1 Se1 -141.41(9) 17_575 . . . ?
K1 K1 Sn1 Se1 141.41(9) 17_575 . . 17_676 ?
K1 K1 Sn1 Se1 -38.59(9) 17_576 . . 17_676 ?
K1 K1 Sn1 K1 -90.0 17_576 . . 1_655 ?
K1 K1 Sn1 K1 -90.0 17_575 . . 25_565 ?
K1 K1 Sn1 K1 -90.0 17_576 . . 25_575 ?
K1 K1 Sn1 K1 90.0 17_575 . . 25_575 ?
K1 K1 Sn1 K1 90.0 17_575 . . 1_655 ?
K1 K1 Sn1 K1 90.0 17_576 . . 25_565 ?
Hg1 Se1 K1 Se1 -120.45(8) 17_676 . . 19_466 ?
Hg1 Se1 K1 Se1 -161.98(16) 17_676 . . 11_554 ?
Hg1 Se1 K1 Se1 -70.51(11) . . . 3_665 ?
Hg1 Se1 K1 Se1 6.11(10) 17_676 . . 3_665 ?
Hg1 Se1 K1 Se1 41.74(14) 17_676 . . 9_454 ?
Hg1 Se1 K1 Se1 121.40(5) . . . 11_554 ?
Hg1 Se1 K1 Se1 -34.88(7) . . . 9_454 ?
Hg1 Se1 K1 Se1 0.0 . . . 27_465 ?
Hg1 Se1 K1 Se1 77.94(7) . . . 25_565 ?
Hg1 Se1 K1 Se1 76.6(2) 17_676 . . 27_465 ?
Hg1 Se1 K1 Se1 -133.79(12) . . . 17_576 ?
Hg1 Se1 K1 Se1 154.6(3) 17_676 . . 25_565 ?
Hg1 Se1 K1 Se1 162.93(13) . . . 19_466 ?
Hg1 Se1 K1 Se1 -57.17(9) 17_676 . . 17_576 ?
Hg1 Se1 K1 K1 46.21(12) . . . 17_575 ?
Hg1 Se1 K1 K1 -133.79(12) . . . 17_576 ?
Hg1 Se1 K1 K1 122.83(9) 17_676 . . 17_575 ?
Hg1 Se1 K1 K1 -57.17(9) 17_676 . . 17_576 ?
Hg1 Se1 K1 Hg1 121.40(5) . . . 25_565 ?
Hg1 Se1 K1 Hg1 -161.98(16) 17_676 . . 25_565 ?
Hg1 Se1 K1 Sn1 121.40(5) . . . 25_565 ?
Hg1 Se1 K1 Sn1 -161.98(16) 17_676 . . 25_565 ?
Hg1 Se1 Hg1 Se1 123.55(5) 17_676 . . 11_654 ?
Hg1 Se1 Hg1 Se1 0.0 17_676 . . 17_676 ?
Hg1 Se1 Hg1 Se1 -123.55(5) 17_676 . . 27_465 ?
Hg1 Se1 Hg1 K1 123.55(5) 17_676 . . 25_565 ?
Hg1 Se1 Hg1 K1 -56.45(5) 17_676 . . 25_575 ?
Hg1 Se1 Hg1 K1 -123.55(5) 17_676 . . . ?
Hg1 Se1 Hg1 K1 56.45(5) 17_676 . . 1_655 ?
Hg1 Se1 Hg1 Hg1 180.0 17_676 . . 17_675 ?
Hg1 Se1 Sn1 Se1 0.000(13) . . . 11_654 ?
Hg1 Se1 Sn1 Se1 -123.55(5) 17_676 . . 27_465 ?
Hg1 Se1 Sn1 Se1 0.00(9) . . . 27_465 ?
Hg1 Se1 Sn1 Se1 0.0 17_676 . . 17_676 ?
Hg1 Se1 Sn1 Se1 0(100) . . . 17_676 ?
Hg1 Se1 Sn1 Se1 123.55(5) 17_676 . . 11_654 ?
Hg1 Se1 Sn1 K1 0.000(3) . . . 1_655 ?
Hg1 Se1 Sn1 K1 56.45(5) 17_676 . . 1_655 ?
Hg1 Se1 Sn1 K1 0.000(3) . . . . ?
Hg1 Se1 Sn1 K1 0(100) . . . 25_565 ?
Hg1 Se1 Sn1 K1 -123.55(5) 17_676 . . . ?
Hg1 Se1 Sn1 K1 123.55(5) 17_676 . . 25_565 ?
Hg1 Se1 Sn1 K1 0(100) . . . 25_575 ?
Hg1 Se1 Sn1 K1 -56.45(5) 17_676 . . 25_575 ?
Hg1 K1 Hg1 Se1 51.41(9) 25_565 . . 11_654 ?
Hg1 K1 Hg1 Se1 -128.59(9) 25_565 . . 17_676 ?
Hg1 K1 Hg1 Se1 -51.41(9) 25_565 . . . ?
Hg1 K1 Hg1 Se1 128.59(9) 25_565 . . 27_465 ?
Hg1 K1 Hg1 K1 180.0 25_565 . . 25_575 ?
Hg1 K1 Hg1 K1 0.0 25_565 . . 25_565 ?
Hg1 K1 Hg1 K1 180.0 25_565 . . 1_655 ?
Hg1 K1 Hg1 Hg1 -90.0 25_565 . . 17_676 ?
Hg1 K1 Hg1 Hg1 90.0 25_565 . . 17_675 ?
Hg1 K1 Sn1 Se1 51.41(9) 25_565 . . 11_654 ?
Hg1 K1 Sn1 Se1 128.59(9) 25_565 . . 27_465 ?
Hg1 K1 Sn1 Se1 -128.59(9) 25_565 . . 17_676 ?
Hg1 K1 Sn1 Se1 -51.41(9) 25_565 . . . ?
Hg1 K1 Sn1 K1 0.0 25_565 . . 25_565 ?
Hg1 K1 Sn1 K1 180.0 25_565 . . 1_655 ?
Hg1 K1 Sn1 K1 180.0 25_565 . . 25_575 ?
Sn1 Se1 K1 Se1 6.11(10) 17_676 . . 3_665 ?
Sn1 Se1 K1 Se1 162.93(13) . . . 19_466 ?
Sn1 Se1 K1 Se1 121.40(5) . . . 11_554 ?
Sn1 Se1 K1 Se1 -34.88(7) . . . 9_454 ?
Sn1 Se1 K1 Se1 154.6(3) 17_676 . . 25_565 ?
Sn1 Se1 K1 Se1 77.94(7) . . . 25_565 ?
Sn1 Se1 K1 Se1 -161.98(16) 17_676 . . 11_554 ?
Sn1 Se1 K1 Se1 -70.51(11) . . . 3_665 ?
Sn1 Se1 K1 Se1 76.6(2) 17_676 . . 27_465 ?
Sn1 Se1 K1 Se1 -133.79(12) . . . 17_576 ?
Sn1 Se1 K1 Se1 -57.17(9) 17_676 . . 17_576 ?
Sn1 Se1 K1 Se1 41.74(14) 17_676 . . 9_454 ?
Sn1 Se1 K1 Se1 -120.45(8) 17_676 . . 19_466 ?
Sn1 Se1 K1 Se1 0.0 . . . 27_465 ?
Sn1 Se1 K1 K1 -133.79(12) . . . 17_576 ?
Sn1 Se1 K1 K1 -57.17(9) 17_676 . . 17_576 ?
Sn1 Se1 K1 K1 46.21(12) . . . 17_575 ?
Sn1 Se1 K1 K1 122.83(9) 17_676 . . 17_575 ?
Sn1 Se1 K1 Hg1 121.40(5) . . . 25_565 ?
Sn1 Se1 K1 Hg1 -161.98(16) 17_676 . . 25_565 ?
Sn1 Se1 K1 Sn1 -161.98(16) 17_676 . . 25_565 ?
Sn1 Se1 K1 Sn1 121.40(5) . . . 25_565 ?
Sn1 Se1 Hg1 Se1 0(100) . . . 17_676 ?
Sn1 Se1 Hg1 Se1 0.000(13) . . . 11_654 ?
Sn1 Se1 Hg1 Se1 123.55(5) 17_676 . . 11_654 ?
Sn1 Se1 Hg1 Se1 0.00(9) . . . 27_465 ?
Sn1 Se1 Hg1 Se1 -123.55(5) 17_676 . . 27_465 ?
Sn1 Se1 Hg1 Se1 0.0 17_676 . . 17_676 ?
Sn1 Se1 Hg1 K1 0.000(3) . . . . ?
Sn1 Se1 Hg1 K1 0(100) . . . 25_565 ?
Sn1 Se1 Hg1 K1 -123.55(5) 17_676 . . . ?
Sn1 Se1 Hg1 K1 123.55(5) 17_676 . . 25_565 ?
Sn1 Se1 Hg1 K1 -56.45(5) 17_676 . . 25_575 ?
Sn1 Se1 Hg1 K1 0(100) . . . 25_575 ?
Sn1 Se1 Hg1 K1 0.000(3) . . . 1_655 ?
Sn1 Se1 Hg1 K1 56.45(5) 17_676 . . 1_655 ?
Sn1 Se1 Hg1 Hg1 180.0 17_676 . . 17_675 ?
Sn1 Se1 Hg1 Hg1 0.00(5) . . . 17_675 ?
Sn1 Se1 Hg1 Hg1 0.0 17_676 . . 17_676 ?
Sn1 Se1 Hg1 Hg1 0.00(5) . . . 17_676 ?
Sn1 Se1 Sn1 Se1 123.55(5) 17_676 . . 11_654 ?
Sn1 Se1 Sn1 Se1 -123.55(5) 17_676 . . 27_465 ?
Sn1 Se1 Sn1 Se1 0.0 17_676 . . 17_676 ?
Sn1 Se1 Sn1 K1 56.45(5) 17_676 . . 1_655 ?
Sn1 Se1 Sn1 K1 -123.55(5) 17_676 . . . ?
Sn1 Se1 Sn1 K1 123.55(5) 17_676 . . 25_565 ?
Sn1 Se1 Sn1 K1 -56.45(5) 17_676 . . 25_575 ?
Sn1 K1 Hg1 Se1 51.41(9) 25_565 . . 11_654 ?
Sn1 K1 Hg1 Se1 -128.59(9) 25_565 . . 17_676 ?
Sn1 K1 Hg1 Se1 128.59(9) 25_565 . . 27_465 ?
Sn1 K1 Hg1 Se1 -51.41(9) 25_565 . . . ?
Sn1 K1 Hg1 K1 180.0 25_565 . . 25_575 ?
Sn1 K1 Hg1 K1 180.0 25_565 . . 1_655 ?
Sn1 K1 Hg1 K1 0.0 25_565 . . 25_565 ?
Sn1 K1 Hg1 Hg1 90.0 25_565 . . 17_675 ?
Sn1 K1 Hg1 Hg1 -90.0 25_565 . . 17_676 ?
Sn1 K1 Sn1 Se1 128.59(9) 25_565 . . 27_465 ?
Sn1 K1 Sn1 Se1 -128.59(9) 25_565 . . 17_676 ?
Sn1 K1 Sn1 Se1 -51.41(9) 25_565 . . . ?
Sn1 K1 Sn1 Se1 51.41(9) 25_565 . . 11_654 ?
Sn1 K1 Sn1 K1 180.0 25_565 . . 25_575 ?
Sn1 K1 Sn1 K1 0.0 25_565 . . 25_565 ?
Sn1 K1 Sn1 K1 180.0 25_565 . . 1_655 ?
loop_
_refln_index_h
_refln_index_k
_refln_index_l
_refln_F_squared_meas
_refln_F_squared_sigma
0 0 2 29.56 4.38
0 0 4 1000 23.72
0 0 6 37.96 4.53
0 0 8 324.37 17.88
0 1 -1 8.93 0.79
0 -1 1 9.91 0.87
0 -1 3 34.99 4.5
-1 0 -3 32.14 3.5
0 1 3 36.14 3.44
0 -1 5 1.5 1.11
-1 0 5 0.96 0.66
0 1 5 0.67 0.52
0 -1 7 37.32 5.95
1 0 9 2.22 1.56
0 -1 9 0.24 0.64
-1 0 9 0.85 0.82
1 -1 0 307.96 3.57
1 1 0 272.34 3.28
1 -1 2 102.16 5.37
-1 -1 2 100.59 4.07
-1 1 -2 97.98 4.58
1 -1 4 150.99 11.61
-1 -1 4 210.53 12.12
-1 -1 6 77.51 6.78
-1 1 6 64.56 5.05
1 -1 6 93.4 9.78
-1 -1 6 102.6 9.77
1 -1 8 104.31 10.18
-1 -1 8 101.9 9.27
2 0 0 153.94 3.59
0 2 0 145.15 6.34
2 0 0 144.52 3.01
-2 0 0 140.82 4
0 -2 2 718.08 10.21
0 2 -2 714.72 9.54
0 -2 4 84.66 6.54
0 2 4 83.12 4.39
0 -2 6 168.41 12.04
-2 0 6 181.46 9.72
2 0 8 68.82 8.67
0 -2 8 55.4 7.29
-2 0 8 78.73 8.14
-1 -2 7 29.51 4.72
-1 -2 7 22.08 4.24
2 -1 7 23.07 5.01
2 -1 5 62.02 7.91
-1 -2 5 76.87 7.67
-2 -1 -3 106.18 3.01
2 -1 3 111.01 7.9
-1 -2 3 120.5 5.23
2 -1 1 200.88 5.55
2 1 -1 192.07 4.34
-1 -2 -1 200.99 7.04
1 2 -1 193.26 3.71
2 -1 -1 191.79 4.35
1 -2 1 193.92 4.92
-2 1 -1 199.15 5.36
-2 -1 3 104.78 6.23
1 -2 3 136.75 7.09
-2 -1 5 51.16 5.74
1 -2 5 40.89 5.7
-2 -1 7 20.57 3.38
1 -2 7 15.73 4.01
1 -2 9 18.4 4.44
-2 -2 0 554.71 8.44
-2 2 0 612.05 9.06
2 -2 2 214.76 7.14
2 2 -2 192.43 3.89
-2 -2 4 295.93 9.41
2 -2 4 294.5 13.64
-2 -2 4 305.58 15.73
2 -2 6 61.17 7.83
-2 -2 6 49.52 5.45
-2 -2 8 122.41 9.33
2 -2 8 125.64 11.92
0 3 -1 23.67 1.81
3 0 1 25.49 2.49
-3 0 1 25.03 1.32
0 -3 3 1.43 0.56
0 -3 3 1.77 1
0 -3 5 44.65 5.05
-3 0 7 5.35 1.71
0 -3 7 3.64 1.54
3 -1 8 23.88 5.38
-1 -3 6 179.13 13.08
3 -1 6 121.49 11.44
3 -1 4 13.43 3.28
-1 -3 4 16.92 2.16
-3 -1 -4 15.17 1.29
-1 -3 2 310.9 24.83
1 3 2 302.2 10.65
3 -1 2 339.71 10.79
-3 -1 0 20.05 1.87
3 1 0 14.02 1.24
3 -1 0 13.92 1.26
3 -1 0 14.8 1.26
-3 1 0 20.43 1.86
-1 -3 0 24.82 4.43
1 3 0 16.34 6.58
-3 1 0 16.46 1.51
-1 3 0 14.54 0.73
1 -3 2 332.01 8.43
1 3 -2 310.33 6.16
-3 -1 4 17.22 2.65
1 -3 4 18.7 2.89
-3 -1 6 73.43 6.88
1 -3 6 60.92 7.14
3 1 8 26.54 5.67
1 -3 8 13.06 3.63
3 -2 7 17.11 4.5
-2 -3 7 17.83 3.78
-2 -3 5 0.7 0.4
-2 -3 5 2.65 1.64
3 -2 5 1.48 1.02
-2 -3 3 29.55 5.99
3 -2 3 26.3 3.61
-2 -3 3 22.86 1.9
-2 -3 1 7.33 4.11
2 -3 -1 7.2 0.92
3 -2 1 6.34 1.07
-3 2 1 7.2 1.1
-3 -2 -1 5.37 0.85
-3 2 -1 4.84 0.79
2 3 -1 6.68 0.84
2 -3 1 6.42 1.09
2 3 -3 20.62 1.79
-3 -2 3 21.97 1.27
2 -3 3 21.29 2.65
-3 -2 5 1.26 0.8
-3 -2 5 0.78 0.55
2 -3 5 0.47 0.51
2 -3 7 10.27 3.14
-3 -2 7 16.05 3.26
-3 3 0 522.92 8.22
-3 -3 0 476.32 8.09
-3 -3 2 11.18 4.2
3 -3 2 13.26 1.88
3 3 -2 13.84 0.97
3 -3 4 311.7 13.32
-3 -3 4 321.22 7.09
3 -3 6 -0.35 0.96
-3 -3 6 0.63 0.76
3 -3 8 74.01 9.48
-3 -3 8 79.24 7.49
4 0 0 114.66 3.49
-4 0 2 403.14 4.94
4 0 2 406.62 13.85
0 -4 4 91.4 5.84
4 0 4 65.36 8.69
0 -4 6 93.62 7.42
4 0 6 212.43 16.26
0 -4 8 16.68 3.63
4 0 8 59.25 8.4
-1 -4 7 6.16 1.93
4 -1 7 21.59 5.17
-1 -4 5 46.6 4.37
4 -1 5 31.4 5.64
4 -1 3 98.28 7.64
-1 -4 3 106.19 5.01
-1 -4 3 91.56 12.88
1 -4 -1 146.18 2.94
4 1 -1 142.53 2.06
-4 1 1 147.34 4.34
4 -1 1 142.92 5.32
1 4 1 149.62 14.66
1 4 -1 147.63 2.83
1 -4 3 106.98 5.94
1 -4 5 46.01 5.02
-4 -1 5 31.98 3.16
1 -4 7 6.47 2.29
-4 -1 7 11.61 2.81
-2 -4 8 88.92 8.82
4 -2 6 48.98 7.39
-2 -4 6 56.41 5.01
-2 -4 4 229.02 7.6
4 -2 4 196.51 11.85
4 -2 2 149.75 6.62
-2 -4 2 169.75 19.65
-2 -4 0 368.56 22.81
-4 2 0 357.49 8
-2 -4 0 317.13 5.2
-2 4 0 334.46 4.92
2 -4 2 162.93 6.68
2 -4 4 217.5 10.02
-4 -2 6 52.21 6.31
2 -4 6 45.27 6.02
2 -4 8 43.27 6.69
-4 -2 8 55.7 6.07
-3 -4 7 8.37 2.63
4 -3 7 6.71 2.63
-3 -4 5 0.33 0.64
4 -3 5 -0.22 0.97
-3 -4 3 13.97 4.62
4 -3 3 9.02 1.88
4 -3 1 4.68 1.07
-3 4 -1 3.35 0.63
-4 3 -1 3.01 0.73
-3 -4 -1 3.17 0.66
-3 -4 -1 2.86 1.89
-4 -3 3 7.53 2.98
3 -4 3 12.35 2.23
3 4 -3 7.7 0.97
-4 -3 5 0.66 0.5
3 -4 5 0.5 0.51
-4 -3 7 6.11 2.16
3 -4 7 1.3 1.05
-4 -4 0 139.92 21.89
-4 4 0 179.25 5.06
-4 -4 2 106.83 14.47
4 -4 2 125.34 6.57
4 4 -2 107.91 2.86
-4 4 -2 111.08 4.65
4 -4 4 137.11 8.86
-4 -4 4 141.82 13.4
4 -4 6 40.62 6.03
-4 -4 6 58.14 7.33
5 0 1 1.87 0.7
0 5 3 12.36 2.31
-5 0 3 14.23 1
5 0 3 11.05 2.85
0 -5 5 1.97 1.04
5 0 5 1 1.13
0 -5 7 8.02 2.49
-5 0 7 8.71 2.58
5 -1 6 19.11 4.89
-1 -5 6 22.11 3.53
-1 -5 4 127.19 14.58
5 -1 4 96.8 9.04
-1 -5 2 27.78 6.88
-5 1 2 25.92 1.91
1 5 2 29.62 5.23
5 -1 2 30.46 3.4
5 -1 0 153.48 4.9
5 1 0 161.42 4.99
5 1 2 33.59 5.02
1 -5 4 121.92 7.58
5 1 6 41.79 7.79
1 -5 6 18.99 3.76
1 -5 8 14.57 3.76
-5 -1 8 21.76 3.93
-2 -5 7 9.5 3.23
5 -2 7 5.51 2.56
-2 -5 5 52.54 8.7
5 -2 5 25.81 5.03
5 -2 3 41.41 4.65
-2 -5 3 47.88 9.86
-2 5 -1 64.99 2.31
5 -2 1 69.66 4.1
5 2 -1 66.04 1.57
-5 -2 -1 64.1 3.85
2 -5 -1 70.24 2.57
-2 -5 -1 73.18 2.54
2 5 -1 67.56 2.33
2 -5 3 46.28 4.3
2 -5 5 34.37 4.8
2 -5 7 2.25 1.46
-5 -2 7 3.37 1.61
-3 -5 6 88.47 9.71
5 -3 6 41.77 6.75
5 -3 4 0.68 0.44
-3 -5 4 2.51 1.88
5 -3 2 209.11 8.67
-5 -3 -2 196.27 7.16
-5 3 0 0.03 0.08
-3 -5 0 0.53 0.94
-5 -3 0 0.56 0.37
-5 3 -2 200.67 7.12
-3 -5 -2 190.01 7.24
3 -5 4 2.21 1.26
-5 -3 4 -0.25 1.44
3 -5 6 54.8 7.07
-5 -3 6 54.22 7.15
-4 -5 7 9.91 3.06
5 -4 5 16.45 3.58
-4 -5 5 29.92 6.02
-5 -4 -3 52.12 6.37
5 -4 3 47.59 4.86
-4 -5 3 62.15 11.1
-4 5 -1 77.92 4.38
-5 -4 -1 81.89 5.23
-5 4 -1 72.38 4.3
-4 -5 -1 64.05 9.75
-5 -4 3 45.25 8.56
4 -5 3 49.87 4.93
4 -5 5 21.3 4.18
-5 -4 5 18.73 4.54
-5 -4 7 8.72 2.74
-5 -5 0 88.86 21.54
-5 5 0 87.87 4.15
-5 -5 0 101.73 4.93
-5 -5 -2 8.44 1.46
-5 -5 -2 8.43 2.83
-5 -5 2 11.19 5.98
-5 5 -2 7.68 1.37
5 -5 4 81.64 7.73
-5 -5 4 78.19 11.21
5 -5 6 9.56 3.23
-5 -5 6 11.06 3.45
6 0 0 465.9 8.47
-6 0 0 515.77 11.99
6 0 2 2.56 1.14
-6 0 -2 1.46 0.7
6 0 4 203.39 14.2
0 -6 6 6.03 2.02
6 0 6 4.8 2.54
6 -1 5 1.18 1.08
6 -1 3 10.32 2.58
-6 1 1 3.81 1.01
6 -1 1 4.56 1.06
-6 -1 -1 4.07 1.08
-6 1 -1 6 1.25
-6 -1 1 4.95 1.16
6 1 1 5.93 1.4
6 1 3 5.01 1.95
1 -6 5 1.99 1.07
6 1 5 0.71 1.05
1 -6 7 3.86 1.88
-6 -1 7 3.32 1.71
6 -2 6 57.97 8.4
-2 -6 4 29.4 7.56
6 -2 4 24.99 4.36
6 -2 2 261.63 9.59
-2 6 -2 247.79 5.04
-6 -2 -2 255.38 9.13
-6 2 0 29.69 2.69
-6 -2 0 28.46 2.71
6 2 0 35.24 2.63
-2 -6 -2 246.92 5.14
-6 2 -2 269.22 9.32
2 -6 4 27.93 3.96
-6 -2 6 62.78 8.03
2 -6 6 98.74 9.38
6 -3 5 11.36 3.17
-3 -6 5 24.32 6.2
-3 -6 3 5.68 3.48
6 -3 3 2.65 1.08
-6 -3 -3 2.58 0.94
-3 -6 1 3.56 2.91
6 -3 1 3.96 1.14
-6 -3 -1 5.98 1.53
-3 6 -1 4.37 0.7
-3 -6 -1 5.45 1.85
-6 3 -1 4.85 1.33
-3 -6 -1 4 0.69
-6 3 -3 2.18 0.89
-6 -3 5 11.74 3.74
3 -6 5 17.47 3.69
6 -4 6 42.7 6.73
-4 -6 6 76.25 9.6
6 -4 4 32.55 4.89
-4 -6 4 40.58 8.54
-6 -4 -2 149.17 6.94
-4 6 -2 148.81 5.43
6 -4 2 156.64 8.11
-6 4 0 32.36 2.73
-6 -4 0 33.12 2.87
-6 4 -2 153.21 6.86
-4 -6 -2 149.86 7.48
-6 -4 4 22.98 5.93
4 -6 4 31.31 4.62
4 -6 6 56.1 7.71
-6 -4 6 63.23 8.26
-5 -6 5 4.71 2.73
6 -5 5 3.38 1.76
-5 -6 3 7.2 4.18
6 -5 3 5.42 1.79
-6 -5 -3 5.79 1.46
-5 6 -3 5.52 1.29
-5 -6 1 0.91 2.14
-6 -5 -1 7.17 6.15
-5 6 -1 1.85 0.62
-6 -5 -1 3.06 0.99
-5 -6 -1 4.3 2.42
-6 -5 1 4.59 4.24
-5 -6 -1 1.86 0.65
-6 5 -1 2.47 0.86
-6 -5 3 2.56 2.7
-6 5 -3 5.28 1.41
-5 -6 -3 6.01 1.36
5 -6 5 3.95 1.9
-6 -5 5 5.34 2.79
-6 -6 0 240.36 38.88
-6 -6 2 0.81 1.9
-6 6 -2 -0.01 0.13
-6 -6 -2 0.41 0.32
6 -6 4 146.6 10.79
-6 6 -4 148.65 8.53
7 0 1 0.6 0.35
-7 0 1 0.35 0.3
-7 0 -1 1.28 0.73
7 0 3 4.53 1.85
-7 0 -3 2.43 0.96
7 0 5 -0.58 0.82
7 -1 6 10.24 3.54
7 -1 4 44.17 6.22
7 -1 2 25.1 3.05
-7 -1 -2 27.73 3.23
7 -1 0 56.2 3.36
7 1 0 57 2.94
-7 1 0 50.92 3.88
-7 -1 0 54.46 4
7 1 2 33.48 4.28
-7 1 -2 26.64 3.15
7 1 4 30.74 5.84
7 1 6 17.19 4.94
7 -2 5 16.1 4.02
7 -2 3 39.03 4.47
-7 -2 -3 44.06 4.56
-7 -2 -1 71.57 5.52
7 -2 1 58.2 4.27
-7 2 -1 81.36 6.2
7 2 1 69.02 5.11
7 2 3 30.41 5.75
-7 2 -3 46.29 4.68
7 2 5 18.36 5.32
-3 -7 4 12.21 5.22
7 -3 4 8.76 2.51
-7 -3 -4 8.55 2.07
-7 -3 -2 62.69 4.92
7 -3 2 64.76 5.32
-3 -7 2 64.46 12.86
-7 3 0 8 1.49
-7 -3 0 8.8 1.62
-7 3 -2 62.21 4.83
-7 3 -4 8.5 2.09
7 3 6 49.31 9.23
3 -7 6 27.19 5.26
7 -4 5 20.77 4.44
-4 -7 5 34.97 8.2
-4 -7 3 38.62 10.46
7 -4 3 44.51 5.21
-7 -4 -3 38.08 4.1
-7 -4 -1 56.06 4.59
-4 -7 1 66.65 12.86
-7 4 -1 52.07 4.28
-4 -7 -1 58.26 6.24
-7 4 -3 38.39 4.12
-7 -4 5 19.04 5.23
7 -5 4 31.18 5.04
-7 -5 -4 29.03 3.86
-5 -7 2 8.69 5.65
-7 -5 -2 16.22 2.98
-7 -5 0 32.45 15.99
-5 -7 0 48.77 9.66
-7 5 -2 18.64 3.14
-7 -5 2 8.87 5.65
-7 -5 4 30.36 7.55
-7 5 -4 33.32 4.23
-6 -7 3 1.57 1.35
-6 -7 1 -0.31 1.33
-7 -6 -1 -0.62 1.61
-7 -6 1 2.75 4.91
-7 6 -1 1.28 0.62
-7 -6 3 1.6 1.72
-7 6 -3 0.28 0.27
-7 -7 0 15.13 8.78
-7 -7 2 19.1 11.68
-8 0 0 4.88 1.27
-8 0 -2 194.17 9.48
8 0 2 182 8.95
8 0 4 5.98 2.43
-8 0 -4 7.28 2.08
-8 -1 -5 10.48 2.65
8 -1 5 6.75 2.65
8 -1 3 23.08 3.65
-8 -1 -3 22.25 3.37
-8 -1 -1 28.4 3.6
8 -1 1 29.78 3.1
-8 1 -1 28.22 3.54
8 1 3 19.48 3.94
-8 1 -3 23.19 3.44
-8 1 -5 10.03 2.59
8 1 5 5.48 2.59
8 -2 4 69.38 7.11
-8 -2 -4 89.86 7.65
-8 -2 -2 23.31 3.58
8 -2 2 23.54 3.25
-8 2 0 107.33 6.01
-8 -2 0 106.36 6.17
-8 2 -2 27.97 3.88
8 2 2 27.54 4.06
-8 2 -4 98.37 8.12
8 2 4 45.77 7.51
8 -3 5 2.13 1.33
-8 -3 -5 1.77 1.04
8 -3 3 4.09 1.6
-8 -3 -3 3.86 1.38
-8 -3 -1 0.98 0.68
-8 3 -1 0.6 0.41
8 3 3 1.48 1.29
-8 3 -3 4.81 1.59
-8 3 -5 3.96 1.64
8 3 5 4.01 2.6
8 -4 4 65.29 7.49
-4 -8 4 63.38 12.92
-8 -4 -4 52.74 5.59
-4 -8 2 17.17 6.9
-8 -4 -2 25.07 3.8
-8 4 0 67.39 4.87
-8 -4 0 73.4 5.35
-8 4 -2 26.13 3.79
-8 -4 4 44.08 9.14
-8 4 -4 58.58 6.06
-8 -5 -3 10.16 2.46
-5 -8 3 6.69 4.41
-5 -8 1 13.5 5.97
-8 -5 -1 10.09 1.95
-8 -5 1 12.63 8.54
-8 5 -1 8.82 1.78
-8 5 -3 9.43 2.36
-8 -5 3 5.94 4.26
-6 -8 2 101.91 22.17
-6 -8 0 3.05 2.52
-8 -6 0 2.94 6.39
-8 -6 2 128.64 27.83
-8 6 -2 76.85 5.65
-7 -8 1 19.35 10.29
-8 -7 1 18.2 16.41
-9 0 -1 1.57 0.98
9 0 3 1.87 1.08
-9 0 -3 1.3 0.64
9 0 5 4.24 2.18
9 -1 4 2.55 1.32
-9 -1 -2 72.39 7.4
-9 1 0 1.22 0.71
-9 -1 0 1.11 0.66
-9 1 -2 70.85 7.3
9 1 4 2.39 1.59
9 -2 3 5.91 2.01
-9 -2 -3 4.22 1.5
-9 -2 -1 2.76 1.16
-9 2 -1 4.38 1.42
-9 2 -3 3.51 1.46
9 2 5 1.17 1.19
9 -3 4 70.89 7.83
9 -3 2 5.14 1.62
-9 -3 -2 3.72 1.39
-9 3 0 90.59 6.15
-9 -3 0 95.07 6.55
-9 3 -2 3.72 1.41
9 -4 3 3.54 1.55
-9 -4 -3 2.64 1.59
-9 -4 -1 1.8 0.87
-9 4 -1 2.64 1.06
-9 4 -3 3.54 1.66
-5 -9 2 31.09 9.65
-9 -5 -2 35.77 4.29
-9 5 -2 37.74 4.32
-6 -9 1 -0.04 0.33
-10 0 0 20.51 3.2
-10 -1 -1 25.7 3.7
-10 1 -1 28.01 3.83
-10 2 0 39.1 4.56
-10 -2 0 38.43 4.62
