#------------------------------------------------------------------------------
#$Date: 2019-11-05 13:21:11 +0200 (Tue, 05 Nov 2019) $
#$Revision: 223333 $
#$URL: file:///home/coder/svn-repositories/cod/cif/7/70/16/7701680.cif $
#------------------------------------------------------------------------------
#
# This file is available in the Crystallography Open Database (COD),
# http://www.crystallography.net/
#
# All data on this site have been placed in the public domain by the
# contributors.
#
data_7701680
loop_
_publ_author_name
'Jafarzadeh, Parisa'
'Rodrigues, Maegan R.'
'Shi, Yixuan'
'Assoud, Abdeljalil'
'Zou, Tianze'
'Kycia, Jan B.'
'Kleinke, Holger'
_publ_section_title
;
 Effect of mixed occupancies on the thermoelectric properties of
 BaCu<sub>6-x</sub>Se<sub>1-y</sub>Te<sub>6+y</sub> polychalcogenides.
;
_journal_issue                   25
_journal_name_full
'Dalton transactions (Cambridge, England : 2003)'
_journal_page_first              9357
_journal_page_last               9364
_journal_paper_doi               10.1039/c9dt01616c
_journal_volume                  48
_journal_year                    2019
_chemical_formula_moiety         'Ba Cu5.74 Se0.69 Te6.31'
_chemical_formula_sum            'Ba Cu5.74 Se0.69 Te6.31'
_chemical_formula_weight         1361.90
_space_group_crystal_system      cubic
_space_group_IT_number           200
_space_group_name_Hall           '-P 2 2 3'
_space_group_name_H-M_alt        'P m -3'
_audit_creation_method           SHELXL-2016/6
_audit_update_record
;
2019-04-15 deposited with the CCDC.	2019-06-03 downloaded from the CCDC.
;
_cell_angle_alpha                90
_cell_angle_beta                 90
_cell_angle_gamma                90
_cell_formula_units_Z            1
_cell_length_a                   6.9819(6)
_cell_length_b                   6.9819(6)
_cell_length_c                   6.9819(6)
_cell_measurement_reflns_used    848
_cell_measurement_temperature    296(2)
_cell_measurement_theta_max      30.0
_cell_measurement_theta_min      1.5
_cell_volume                     340.35(5)
_computing_cell_refinement       'SMART, 'Bruker APEX II'
_computing_data_collection       'Bruker kappa APEX II'
_computing_data_reduction        'SAINT, 'Bruker APEX II'
_computing_molecular_graphics    Diamond
_computing_structure_refinement  'SHELXL-2016/6 (Sheldrick, 2016)'
_diffrn_ambient_temperature      296(2)
_diffrn_measured_fraction_theta_full 1.000
_diffrn_measured_fraction_theta_max 1.000
_diffrn_measurement_device_type  'BRUKER kappa APEX II'
_diffrn_measurement_method       'Omega and phi scan'
_diffrn_radiation_type           MoK\a
_diffrn_radiation_wavelength     0.71073
_diffrn_reflns_av_R_equivalents  0.0296
_diffrn_reflns_av_unetI/netI     0.0132
_diffrn_reflns_Laue_measured_fraction_full 1.000
_diffrn_reflns_Laue_measured_fraction_max 1.000
_diffrn_reflns_limit_h_max       9
_diffrn_reflns_limit_h_min       -2
_diffrn_reflns_limit_k_max       9
_diffrn_reflns_limit_k_min       -5
_diffrn_reflns_limit_l_max       8
_diffrn_reflns_limit_l_min       -5
_diffrn_reflns_number            2669
_diffrn_reflns_point_group_measured_fraction_full 1.000
_diffrn_reflns_point_group_measured_fraction_max 1.000
_diffrn_reflns_theta_full        25.242
_diffrn_reflns_theta_max         29.914
_diffrn_reflns_theta_min         2.918
_diffrn_source                   'fine-focus sealed tube'
_exptl_absorpt_coefficient_mu    26.698
_exptl_absorpt_correction_T_max  0.7460
_exptl_absorpt_correction_T_min  0.5951
_exptl_absorpt_correction_type   multi-scan
_exptl_absorpt_process_details   SADABS
_exptl_crystal_colour            Black
_exptl_crystal_density_diffrn    6.645
_exptl_crystal_description       Block
_exptl_crystal_F_000             574
_exptl_crystal_size_max          0.066
_exptl_crystal_size_mid          0.040
_exptl_crystal_size_min          0.020
_refine_diff_density_max         0.583
_refine_diff_density_min         -0.494
_refine_diff_density_rms         0.127
_refine_ls_extinction_expression Fc^*^=kFc[1+0.001xFc^2^\l^3^/sin(2\q)]^-1/4^
_refine_ls_goodness_of_fit_ref   1.089
_refine_ls_hydrogen_treatment    undef
_refine_ls_matrix_type           full
_refine_ls_number_parameters     13
_refine_ls_number_reflns         205
_refine_ls_number_restraints     0
_refine_ls_restrained_S_all      1.089
_refine_ls_R_factor_all          0.0197
_refine_ls_R_factor_gt           0.0149
_refine_ls_shift/su_max          0.000
_refine_ls_shift/su_mean         0.000
_refine_ls_structure_factor_coef Fsqd
_refine_ls_weighting_details
'w=1/[\s^2^(Fo^2^)+(0.0111P)^2^] where P=(Fo^2^+2Fc^2^)/3'
_refine_ls_weighting_scheme      calc
_refine_ls_wR_factor_gt          0.0248
_refine_ls_wR_factor_ref         0.0259
_reflns_d_resolution_high        0.7126
_reflns_Friedel_coverage         0.000
_reflns_number_gt                186
_reflns_number_total             205
_reflns_threshold_expression     'I > 2\s(I)'
_cod_data_source_file            c9dt01616c2.cif
_cod_data_source_block           BaCu574Se069Te631
_cod_original_cell_volume        340.35(9)
_cod_original_sg_symbol_Hall     '-P 2 2 3"'
_cod_database_code               7701680
_shelx_shelxl_version_number     2016/6
_shelx_estimated_absorpt_t_min   0.272
_shelx_estimated_absorpt_t_max   0.617
_exptl_absorpt_special_details
;
 
;
_shelx_res_file
;
TITL data_BaCu574Se069Te631 Pm-3    
CELL  0.71073   6.9819   6.9819   6.9819   90.000   90.000   90.000
ZERR    1.000   0.0006   0.0006   0.0006    0.000    0.000    0.000
LATT  1
SYMM -X, -Y, Z
SYMM -X, Y, -Z
SYMM X, -Y, -Z
SYMM Z, X, Y
SYMM Z, -X, -Y
SYMM -Z, -X, Y
SYMM -Z, X, -Y
SYMM Y, Z, X
SYMM -Y, Z, -X
SYMM Y, -Z, -X
SYMM -Y, -Z, X
SFAC BA CU SE TE
UNIT 1.00008 5.7456 0.689096 6.3093
TEMP 23.000
SIZE 0.02 0.04 0.066

L.S. 30
EXYZ TE2 SE2
EADP TE2 SE2
BOND
LIST 4
FMAP 2
PLAN 5

OMIT -3 60
ACTA
WGHT    0.011100

FVAR       0.41926   0.30980
BA1   1    0.500000    0.500000    0.500000    10.04167    0.02092    0.02092 =
         0.02092    0.00000    0.00000    0.00000
CU1   2    0.199802    0.199802    0.199802     0.23940    0.02543    0.02543 =
         0.02543    0.00023    0.00023    0.00023
SE2   3    0.000000    0.000000    0.000000   -20.04160    0.04277    0.04277 =
         0.04277    0.00000    0.00000    0.00000
TE2   4    0.000000    0.000000    0.000000    20.04160    0.04277    0.04277 =
         0.04277    0.00000    0.00000    0.00000
TE1   4    0.300210    0.000000    0.500000    10.25000    0.01545    0.01738 =
         0.01877    0.00000    0.00000    0.00000



HKLF 4




REM  data_BaCu574Se069Te631 in Pm-3
REM R1 =  0.0149 for     186 Fo > 4sig(Fo)  and  0.0197 for all     205 data
REM     13 parameters refined using      0 restraints

END

WGHT      0.0109      0.0000

REM Highest difference peak  0.583,  deepest hole -0.494,  1-sigma level  0.127
Q1    1   0.4026  0.3218  0.5000  10.50000  0.05    0.58
Q2    1   0.1880  0.0000  0.5000  10.25000  0.05    0.55
Q3    1   0.0000  0.3282  0.0616  10.50000  0.05    0.47
Q4    1   0.5000  0.5000  0.4249  10.25000  0.05    0.47
Q5    1   0.1801  0.0000  0.4054  10.50000  0.05    0.45
;
_shelx_res_checksum              31001
_shelx_title                     ' data_BaCu574Se069Te631 in Pm-3'
_shelx_refln_list_code           4
_shelx_f_calc_maximum            238.66
_shelx_f_squared_multiplier      1.000
loop_
_space_group_symop_operation_xyz
'x, y, z'
'-x, -y, z'
'-x, y, -z'
'x, -y, -z'
'z, x, y'
'z, -x, -y'
'-z, -x, y'
'-z, x, -y'
'y, z, x'
'-y, z, -x'
'y, -z, -x'
'-y, -z, x'
'-x, -y, -z'
'x, y, -z'
'x, -y, z'
'-x, y, z'
'-z, -x, -y'
'-z, x, y'
'z, x, -y'
'z, -x, y'
'-y, -z, -x'
'y, -z, x'
'-y, z, x'
'y, z, -x'
loop_
_atom_site_label
_atom_site_type_symbol
_atom_site_fract_x
_atom_site_fract_y
_atom_site_fract_z
_atom_site_U_iso_or_equiv
_atom_site_adp_type
_atom_site_occupancy
_atom_site_site_symmetry_order
_atom_site_calc_flag
_atom_site_refinement_flags_posn
_atom_site_refinement_flags_adp
_atom_site_refinement_flags_occupancy
Ba1 Ba 0.500000 0.500000 0.500000 0.0209(2) Uani 1 24 d S T P
Cu1 Cu 0.19980(7) 0.19980(7) 0.19980(7) 0.0254(3) Uani 0.718(2) 3 d S T .
Se2 Se 0.000000 0.000000 0.000000 0.0428(6) Uani 0.689(13) 24 d S T P
Te2 Te 0.000000 0.000000 0.000000 0.0428(6) Uani 0.309(13) 24 d S T P
Te1 Te 0.30021(5) 0.000000 0.500000 0.01720(12) Uani 1 4 d S T P
loop_
_atom_site_aniso_label
_atom_site_aniso_U_11
_atom_site_aniso_U_22
_atom_site_aniso_U_33
_atom_site_aniso_U_23
_atom_site_aniso_U_13
_atom_site_aniso_U_12
Ba1 0.0209(2) 0.0209(2) 0.0209(2) 0.000 0.000 0.000
Cu1 0.0254(3) 0.0254(3) 0.0254(3) 0.00023(19) 0.00023(19) 0.00023(19)
Se2 0.0428(6) 0.0428(6) 0.0428(6) 0.000 0.000 0.000
Te2 0.0428(6) 0.0428(6) 0.0428(6) 0.000 0.000 0.000
Te1 0.01545(19) 0.01738(19) 0.01877(19) 0.000 0.000 0.000
loop_
_atom_type_symbol
_atom_type_description
_atom_type_scat_dispersion_real
_atom_type_scat_dispersion_imag
_atom_type_scat_source
Ba Ba -0.3244 2.2819 'International Tables Vol C Tables 4.2.6.8 and 6.1.1.4'
Cu Cu 0.3201 1.2651 'International Tables Vol C Tables 4.2.6.8 and 6.1.1.4'
Se Se -0.0929 2.2259 'International Tables Vol C Tables 4.2.6.8 and 6.1.1.4'
Te Te -0.5308 1.6751 'International Tables Vol C Tables 4.2.6.8 and 6.1.1.4'
loop_
_geom_angle_atom_site_label_1
_geom_angle_atom_site_label_2
_geom_angle_atom_site_label_3
_geom_angle
_geom_angle_site_symmetry_1
_geom_angle_site_symmetry_3
Cu1 Ba1 Cu1 180.0 . 13_666
Cu1 Ba1 Cu1 70.5 . 16_655
Cu1 Ba1 Cu1 109.5 13_666 16_655
Cu1 Ba1 Cu1 109.5 . 4_566
Cu1 Ba1 Cu1 70.5 13_666 4_566
Cu1 Ba1 Cu1 180.0 16_655 4_566
Cu1 Ba1 Cu1 70.5 . 15_565
Cu1 Ba1 Cu1 109.5 13_666 15_565
Cu1 Ba1 Cu1 109.5 16_655 15_565
Cu1 Ba1 Cu1 70.5 4_566 15_565
Cu1 Ba1 Cu1 109.5 . 3_656
Cu1 Ba1 Cu1 70.5 13_666 3_656
Cu1 Ba1 Cu1 70.5 16_655 3_656
Cu1 Ba1 Cu1 109.5 4_566 3_656
Cu1 Ba1 Cu1 180.0 15_565 3_656
Cu1 Ba1 Cu1 70.5 . 14_556
Cu1 Ba1 Cu1 109.5 13_666 14_556
Cu1 Ba1 Cu1 109.5 16_655 14_556
Cu1 Ba1 Cu1 70.5 4_566 14_556
Cu1 Ba1 Cu1 109.5 15_565 14_556
Cu1 Ba1 Cu1 70.5 3_656 14_556
Cu1 Ba1 Cu1 109.5 . 2_665
Cu1 Ba1 Cu1 70.5 13_666 2_665
Cu1 Ba1 Cu1 70.5 16_655 2_665
Cu1 Ba1 Cu1 109.5 4_566 2_665
Cu1 Ba1 Cu1 70.5 15_565 2_665
Cu1 Ba1 Cu1 109.5 3_656 2_665
Cu1 Ba1 Cu1 180.0 14_556 2_665
Cu1 Ba1 Te1 41.378(2) . .
Cu1 Ba1 Te1 138.622(2) 13_666 .
Cu1 Ba1 Te1 71.222(4) 16_655 .
Cu1 Ba1 Te1 108.778(4) 4_566 .
Cu1 Ba1 Te1 108.778(4) 15_565 .
Cu1 Ba1 Te1 71.222(4) 3_656 .
Cu1 Ba1 Te1 41.378(2) 14_556 .
Cu1 Ba1 Te1 138.622(2) 2_665 .
Cu1 Ba1 Te1 41.378(2) . 5
Cu1 Ba1 Te1 138.622(2) 13_666 5
Cu1 Ba1 Te1 41.378(2) 16_655 5
Cu1 Ba1 Te1 138.622(2) 4_566 5
Cu1 Ba1 Te1 71.222(4) 15_565 5
Cu1 Ba1 Te1 108.778(4) 3_656 5
Cu1 Ba1 Te1 108.778(4) 14_556 5
Cu1 Ba1 Te1 71.222(4) 2_665 5
Te1 Ba1 Te1 69.845(3) . 5
Cu1 Ba1 Te1 41.378(2) . 9
Cu1 Ba1 Te1 138.622(2) 13_666 9
Cu1 Ba1 Te1 108.778(4) 16_655 9
Cu1 Ba1 Te1 71.222(4) 4_566 9
Cu1 Ba1 Te1 41.378(2) 15_565 9
Cu1 Ba1 Te1 138.622(2) 3_656 9
Cu1 Ba1 Te1 71.222(4) 14_556 9
Cu1 Ba1 Te1 108.778(4) 2_665 9
Te1 Ba1 Te1 69.845(3) . 9
Te1 Ba1 Te1 69.845(3) 5 9
Cu1 Ba1 Te1 138.622(2) . 17_666
Cu1 Ba1 Te1 41.378(2) 13_666 17_666
Cu1 Ba1 Te1 138.622(2) 16_655 17_666
Cu1 Ba1 Te1 41.378(2) 4_566 17_666
Cu1 Ba1 Te1 108.778(4) 15_565 17_666
Cu1 Ba1 Te1 71.222(4) 3_656 17_666
Cu1 Ba1 Te1 71.222(4) 14_556 17_666
Cu1 Ba1 Te1 108.778(4) 2_665 17_666
Te1 Ba1 Te1 110.155(3) . 17_666
Te1 Ba1 Te1 180.0 5 17_666
Te1 Ba1 Te1 110.155(3) 9 17_666
Cu1 Te1 Cu1 64.52(3) . 15
Cu1 Te1 Cu1 106.64(2) . 14_556
Cu1 Te1 Cu1 148.88(2) 15 14_556
Cu1 Te1 Cu1 148.88(2) . 4_556
Cu1 Te1 Cu1 106.64(2) 15 4_556
Cu1 Te1 Cu1 64.52(3) 14_556 4_556
Cu1 Te1 Te1 105.559(12) . 13_656
Cu1 Te1 Te1 105.560(12) 15 13_656
Cu1 Te1 Te1 105.560(12) 14_556 13_656
Cu1 Te1 Te1 105.560(12) 4_556 13_656
Cu1 Te1 Ba1 66.664(17) . .
Cu1 Te1 Ba1 126.525(11) 15 .
Cu1 Te1 Ba1 66.664(17) 14_556 .
Cu1 Te1 Ba1 126.525(11) 4_556 .
Te1 Te1 Ba1 68.219(4) 13_656 .
Cu1 Te1 Ba1 126.526(11) . 1_545
Cu1 Te1 Ba1 66.664(17) 15 1_545
Cu1 Te1 Ba1 126.525(11) 14_556 1_545
Cu1 Te1 Ba1 66.664(17) 4_556 1_545
Te1 Te1 Ba1 68.219(4) 13_656 1_545
Ba1 Te1 Ba1 136.439(9) . 1_545
Cu1 Te2 Cu1 109.5 13 15
Cu1 Te2 Cu1 70.5 13 3
Cu1 Te2 Cu1 180.00(5) 15 3
Cu1 Te2 Cu1 70.5 13 2
Cu1 Te2 Cu1 70.5 15 2
Cu1 Te2 Cu1 109.5 3 2
Cu1 Te2 Cu1 109.5 13 14
Cu1 Te2 Cu1 109.5 15 14
Cu1 Te2 Cu1 70.5 3 14
Cu1 Te2 Cu1 180.00(5) 2 14
Cu1 Te2 Cu1 109.5 13 16
Cu1 Te2 Cu1 109.5 15 16
Cu1 Te2 Cu1 70.5 3 16
Cu1 Te2 Cu1 70.5 2 16
Cu1 Te2 Cu1 109.5 14 16
Cu1 Te2 Cu1 70.5 13 4
Cu1 Te2 Cu1 70.5 15 4
Cu1 Te2 Cu1 109.5 3 4
Cu1 Te2 Cu1 109.5 2 4
Cu1 Te2 Cu1 70.5 14 4
Cu1 Te2 Cu1 180.00(4) 16 4
Cu1 Te2 Cu1 180.00(4) 13 .
Cu1 Te2 Cu1 70.5 15 .
Cu1 Te2 Cu1 109.5 3 .
Cu1 Te2 Cu1 109.5 2 .
Cu1 Te2 Cu1 70.5 14 .
Cu1 Te2 Cu1 70.5 16 .
Cu1 Te2 Cu1 109.5 4 .
Te2 Cu1 Te1 108.042(17) . 9
Te2 Cu1 Te1 108.042(17) . 5
Te1 Cu1 Te1 110.862(16) 9 5
Te2 Cu1 Te1 108.042(17) . .
Te1 Cu1 Te1 110.862(16) 9 .
Te1 Cu1 Te1 110.862(16) 5 .
Te2 Cu1 Cu1 54.7 . 16
Te1 Cu1 Cu1 57.740(16) 9 16
Te1 Cu1 Cu1 143.318(10) 5 16
Te1 Cu1 Cu1 105.559(12) . 16
Te2 Cu1 Cu1 54.7 . 15
Te1 Cu1 Cu1 143.318(10) 9 15
Te1 Cu1 Cu1 105.559(12) 5 15
Te1 Cu1 Cu1 57.741(16) . 15
Cu1 Cu1 Cu1 90.0 16 15
Te2 Cu1 Cu1 54.7 . 14
Te1 Cu1 Cu1 105.559(12) 9 14
Te1 Cu1 Cu1 57.740(16) 5 14
Te1 Cu1 Cu1 143.318(10) . 14
Cu1 Cu1 Cu1 90.0 16 14
Cu1 Cu1 Cu1 90.0 15 14
Te2 Cu1 Ba1 180.00(4) . .
Te1 Cu1 Ba1 71.958(17) 9 .
Te1 Cu1 Ba1 71.958(17) 5 .
Te1 Cu1 Ba1 71.958(17) . .
Cu1 Cu1 Ba1 125.3 16 .
Cu1 Cu1 Ba1 125.3 15 .
Cu1 Cu1 Ba1 125.3 14 .
loop_
_geom_bond_atom_site_label_1
_geom_bond_atom_site_label_2
_geom_bond_distance
_geom_bond_site_symmetry_2
Ba1 Cu1 3.6303(9) .
Ba1 Cu1 3.6303(9) 13_666
Ba1 Cu1 3.6303(9) 16_655
Ba1 Cu1 3.6303(9) 4_566
Ba1 Cu1 3.6303(9) 15_565
Ba1 Cu1 3.6303(9) 3_656
Ba1 Cu1 3.6303(9) 14_556
Ba1 Cu1 3.6303(9) 2_665
Ba1 Te1 3.7593(3) .
Ba1 Te1 3.7593(3) 5
Ba1 Te1 3.7593(3) 9
Ba1 Te1 3.7593(3) 17_666
Te1 Cu1 2.6135(4) .
Te1 Cu1 2.6135(3) 15
Te1 Cu1 2.6135(4) 14_556
Te1 Cu1 2.6135(4) 4_556
Te1 Te1 2.7898(7) 13_656
Te2 Cu1 2.4162(8) 13
Te2 Cu1 2.4162(8) 15
Te2 Cu1 2.4162(8) 3
Te2 Cu1 2.4162(8) 2
Te2 Cu1 2.4162(8) 14
Te2 Cu1 2.4162(8) 16
Te2 Cu1 2.4162(8) 4
Te2 Cu1 2.4162(8) .
Cu1 Cu1 2.7900(10) 16
Cu1 Cu1 2.7900(10) 15
Cu1 Cu1 2.7900(10) 14
