#------------------------------------------------------------------------------
#$Date: 2019-10-22 03:56:28 +0300 (Tue, 22 Oct 2019) $
#$Revision: 219447 $
#$URL: file:///home/coder/svn-repositories/cod/cif/7/70/14/7701402.cif $
#------------------------------------------------------------------------------
#
# This file is available in the Crystallography Open Database (COD),
# http://www.crystallography.net/
#
# All data on this site have been placed in the public domain by the
# contributors.
#
data_7701402
loop_
_publ_author_name
'Netzsch, Philip'
'Bariss, Harijs'
'Bayarjargal, Lkhamsuren'
'H\"oppe, Henning A.'
_publ_section_title
;
 Tb(HSO4)(SO4) -- a green emitting hydrogensulfate sulfate with second
 harmonic generation response
;
_journal_name_full               'Dalton Transactions'
_journal_paper_doi               10.1039/C9DT03436F
_journal_year                    2019
_chemical_formula_sum            'H O8 S2 Tb'
_chemical_formula_weight         352.05
_space_group_crystal_system      monoclinic
_space_group_IT_number           4
_space_group_name_Hall           'P 2yb'
_space_group_name_H-M_alt        'P 1 21 1'
_symmetry_space_group_name_Hall  'P 2yb'
_symmetry_space_group_name_H-M   'P 1 21 1'
_atom_sites_solution_hydrogens   difmap
_audit_creation_method           SHELXL-2014/7
_audit_update_record
;
2019-08-02 deposited with the CCDC.    2019-10-07 downloaded from the CCDC.
;
_cell_angle_alpha                90
_cell_angle_beta                 104.640(2)
_cell_angle_gamma                90
_cell_formula_units_Z            2
_cell_length_a                   6.6503(5)
_cell_length_b                   6.5941(5)
_cell_length_c                   6.8024(5)
_cell_measurement_reflns_used    7319
_cell_measurement_temperature    250(2)
_cell_measurement_theta_max      31.166
_cell_measurement_theta_min      3.095
_cell_volume                     288.62(4)
_computing_structure_refinement  'SHELXL-2014/7 (Sheldrick, 2014)'
_diffrn_ambient_temperature      250(2)
_diffrn_measured_fraction_theta_full 1.000
_diffrn_measured_fraction_theta_max 1.000
_diffrn_measurement_device_type  'Bruker D8 Venture'
_diffrn_measurement_method       'omega scan'
_diffrn_radiation_monochromator  graphite
_diffrn_radiation_source         'fine-focus sealed tube'
_diffrn_radiation_type           MoK\a
_diffrn_radiation_wavelength     0.71073
_diffrn_reflns_av_R_equivalents  0.0491
_diffrn_reflns_av_unetI/netI     0.0463
_diffrn_reflns_Laue_measured_fraction_full 1.000
_diffrn_reflns_Laue_measured_fraction_max 1.000
_diffrn_reflns_limit_h_max       9
_diffrn_reflns_limit_h_min       -9
_diffrn_reflns_limit_k_max       9
_diffrn_reflns_limit_k_min       -9
_diffrn_reflns_limit_l_max       9
_diffrn_reflns_limit_l_min       -9
_diffrn_reflns_number            7319
_diffrn_reflns_point_group_measured_fraction_full 1.000
_diffrn_reflns_point_group_measured_fraction_max 1.000
_diffrn_reflns_theta_full        25.242
_diffrn_reflns_theta_max         31.166
_diffrn_reflns_theta_min         3.095
_exptl_absorpt_coefficient_mu    12.975
_exptl_absorpt_correction_type   multi-scan
_exptl_absorpt_process_details
; 
 multi-scan absorption correction using SADABS 
(G. M. Sheldrick, (1996). SADABS. Program for Empirical 
Absorption Correction. University of G\"ottingen, Germany.)
;
_exptl_crystal_colour            colourless
_exptl_crystal_density_diffrn    4.051
_exptl_crystal_description       block
_exptl_crystal_F_000             324
_exptl_crystal_size_max          0.09
_exptl_crystal_size_mid          0.06
_exptl_crystal_size_min          0.05
_exptl_transmission_factor_max   0.7462
_exptl_transmission_factor_min   0.6057
_refine_diff_density_max         0.925
_refine_diff_density_min         -0.859
_refine_diff_density_rms         0.187
_refine_ls_abs_structure_details
;
 Refined as an inversion twin.
;
_refine_ls_abs_structure_Flack   0.032(17)
_refine_ls_extinction_coef       0.0076(7)
_refine_ls_extinction_expression Fc^*^=kFc[1+0.001xFc^2^\l^3^/sin(2\q)]^-1/4^
_refine_ls_extinction_method     'SHELXL-2014/7 (Sheldrick 2014'
_refine_ls_goodness_of_fit_ref   0.926
_refine_ls_hydrogen_treatment    refxyz
_refine_ls_matrix_type           full
_refine_ls_number_parameters     105
_refine_ls_number_reflns         1877
_refine_ls_number_restraints     2
_refine_ls_restrained_S_all      0.926
_refine_ls_R_factor_all          0.0250
_refine_ls_R_factor_gt           0.0208
_refine_ls_shift/su_max          0.000
_refine_ls_shift/su_mean         0.000
_refine_ls_structure_factor_coef Fsqd
_refine_ls_weighting_details     'w=1/[\s^2^(Fo^2^)] where P=(Fo^2^+2Fc^2^)/3'
_refine_ls_weighting_scheme      calc
_refine_ls_wR_factor_gt          0.0358
_refine_ls_wR_factor_ref         0.0367
_reflns_Friedel_coverage         0.859
_reflns_Friedel_fraction_full    1.000
_reflns_Friedel_fraction_max     1.000
_reflns_number_gt                1748
_reflns_number_total             1877
_reflns_threshold_expression     'I > 2\s(I)'
_cod_data_source_file            c9dt03436f2.cif
_cod_data_source_block           mo_BA7_0m
_cod_database_code               7701402
_shelx_shelxl_version_number     2014/7
_shelx_space_group_comment
;
The symmetry employed for this shelxl refinement is uniquely defined
by the following loop, which should always be used as a source of
symmetry information in preference to the above space-group names.
They are only intended as comments.
;
_shelx_res_file
;

    mo_BA7_0m.res created by SHELXL-2014/7


TITL mo_BA7_0m_b.res in P2(1)
REM Old TITL mo_BA7_0m in P2(1)

REM SHELXT solution in P2(1)
REM R1 0.063,  Rweak 0.028,  Alpha 0.015,  Orientation as input
REM Flack x =  0.078 ( 0.014 ) from Parsons' quotients
REM Formula found by SHELXT:  O6 S2 Tb

CELL  0.71073   6.6503   6.5941   6.8024   90.000  104.640   90.000
ZERR    2.000   0.0005   0.0005   0.0005    0.000    0.002    0.000
LATT -1
SYMM -X, 1/2+Y, -Z
SFAC O S TB H
UNIT 16 4 2 2
TEMP -23.160
L.S. 10
BOND $H
LIST 6
FMAP 2
PLAN 40
ACTA
TWIN -1 0 0 0 -1 0 0 0 -1 2
HTAB
DFIX 0.99 0.05 O24 H1
WGHT    0.000000
EXTI    0.007593
BASF   0.032(17)
FVAR       0.67875
TB1   3    0.350189    0.749992    0.631573    11.00000    0.00601    0.00483 =
         0.00575   -0.00060    0.00201   -0.00047
S1    2    0.780140    0.704196    0.430363    11.00000    0.00563    0.00473 =
         0.00899   -0.00031    0.00311   -0.00025
S2    2    0.239674    0.580477    0.104674    11.00000    0.00638    0.00793 =
         0.00585    0.00048    0.00179   -0.00003
O11   1    0.987648    0.729938    0.562084    11.00000    0.00528    0.01052 =
         0.01480    0.00001    0.00017   -0.00273
O12   1    0.684475    0.900788    0.364045    11.00000    0.01376    0.00493 =
         0.02288    0.00018    0.00379    0.00373
O13   1    0.780264    0.572154    0.255976    11.00000    0.01002    0.00845 =
         0.01024   -0.00140    0.00343   -0.00193
O14   1    0.645507    0.590691    0.539557    11.00000    0.00865    0.00867 =
         0.01209   -0.00070    0.00609    0.00122
O21   1    0.241001    0.703732    0.281862    11.00000    0.01603    0.01087 =
         0.00693   -0.00345    0.00119    0.00118
O22   1    0.317825    0.690790   -0.044062    11.00000    0.01635    0.01788 =
         0.00729    0.00407    0.00541   -0.00308
O23   1    0.350030    0.390528    0.161670    11.00000    0.01347    0.01252 =
         0.01325    0.00114    0.00292    0.00477
O24   1    0.014408    0.529892   -0.000822    11.00000    0.00689    0.01449 =
         0.01149    0.00169    0.00354   -0.00043
H1    4   -0.054853    0.541637    0.101618    11.00000   -1.50000
HKLF 4

REM  mo_BA7_0m_b.res in P2(1)
REM R1 =  0.0208 for    1748 Fo > 4sig(Fo)  and  0.0250 for all    1877 data
REM    105 parameters refined using      2 restraints

END

WGHT      0.0000      0.0000

REM Instructions for potential hydrogen bonds
EQIV $1 x-1, y, z
HTAB O24 S1_$1
HTAB O24 O13_$1

REM Highest difference peak  0.925,  deepest hole -0.859,  1-sigma level  0.187
Q1    1   0.3677  0.8340  0.7251  11.00000  0.05    0.92
Q2    1   0.3784  0.6595  0.7186  11.00000  0.05    0.88
Q3    1   0.3096  0.6712  0.5497  11.00000  0.05    0.86
Q4    1   0.3096  0.8453  0.5650  11.00000  0.05    0.81
Q5    1   0.3294  0.7334  0.0552  11.00000  0.05    0.76
Q6    1   0.1970  0.7440  0.5633  11.00000  0.05    0.69
Q7    1   1.0997  0.7394  0.4333  11.00000  0.05    0.67
Q8    1   0.7612  0.6988  0.0962  11.00000  0.05    0.67
Q9    1   0.5122  0.7563  0.6958  11.00000  0.05    0.64
Q10   1   0.8249  0.9227  0.3545  11.00000  0.05    0.62
Q11   1   1.0609  0.7591  0.7368  11.00000  0.05    0.62
Q12   1   0.4719  1.0198  0.2800  11.00000  0.05    0.61
Q13   1   0.2612  0.7134  0.4062  11.00000  0.05    0.60
Q14   1   1.0528  0.5573  0.7257  11.00000  0.05    0.60
Q15   1   0.4026  0.7342 -0.0358  11.00000  0.05    0.59
Q16   1   0.0990  0.4445  0.3034  11.00000  0.05    0.58
Q17   1   0.4676  0.4831  0.2792  11.00000  0.05    0.56
Q18   1   0.4494  0.8352  0.3176  11.00000  0.05    0.56
Q19   1   0.8191  0.5911  0.3536  11.00000  0.05    0.55
Q20   1   0.5364  0.8829  0.1660  11.00000  0.05    0.55
Q21   1   0.0941  0.5909  0.0270  11.00000  0.05    0.55
Q22   1   0.6361  0.4770  0.0037  11.00000  0.05    0.55
Q23   1   0.2135  0.6803  0.0411  11.00000  0.05    0.55
Q24   1   0.3243  0.6473 -0.1458  11.00000  0.05    0.55
Q25   1   0.8593  0.7539  0.5949  11.00000  0.05    0.55
Q26   1   0.4441  0.6490  0.3147  11.00000  0.05    0.54
Q27   1   0.7352  1.0240  0.3506  11.00000  0.05    0.52
Q28   1   0.0380  0.4470  0.0532  11.00000  0.05    0.52
Q29   1   0.3047  0.8485 -0.1405  11.00000  0.05    0.52
Q30   1   0.2912  0.5625  0.3959  11.00000  0.05    0.51
Q31   1   0.1309  0.7987  0.3229  11.00000  0.05    0.51
Q32   1   0.3139  0.7499 -0.2064  11.00000  0.05    0.51
Q33   1   0.7435  0.7992  0.1940  11.00000  0.05    0.50
Q34   1   0.4446  0.6515 -0.1414  11.00000  0.05    0.50
Q35   1   0.3928  0.7474  0.5244  11.00000  0.05    0.50
Q36   1   0.7404  0.4873  0.3899  11.00000  0.05    0.49
Q37   1   0.7606  0.5069  0.6212  11.00000  0.05    0.49
Q38   1  -0.0251  0.7429  0.0087  11.00000  0.05    0.49
Q39   1   0.2786  0.2938  0.2638  11.00000  0.05    0.49
Q40   1   0.8535  0.4483  0.3494  11.00000  0.05    0.49
;
_shelx_res_checksum              48166
loop_
_space_group_symop_operation_xyz
'x, y, z'
'-x, y+1/2, -z'
loop_
_atom_site_label
_atom_site_type_symbol
_atom_site_fract_x
_atom_site_fract_y
_atom_site_fract_z
_atom_site_U_iso_or_equiv
_atom_site_adp_type
_atom_site_occupancy
_atom_site_site_symmetry_order
_atom_site_calc_flag
_atom_site_refinement_flags_posn
_atom_site_refinement_flags_adp
Tb1 Tb 0.35019(4) 0.74999(7) 0.63157(4) 0.00544(8) Uani 1 1 d . .
S1 S 0.7801(2) 0.70420(19) 0.4304(2) 0.0062(3) Uani 1 1 d . .
S2 S 0.2397(2) 0.5805(2) 0.1047(2) 0.0067(3) Uani 1 1 d . .
O11 O 0.9876(6) 0.7299(13) 0.5621(7) 0.0106(11) Uani 1 1 d . .
O12 O 0.6845(8) 0.9008(7) 0.3640(8) 0.0140(11) Uani 1 1 d . .
O13 O 0.7803(7) 0.5722(7) 0.2560(7) 0.0094(9) Uani 1 1 d . .
O14 O 0.6455(7) 0.5907(7) 0.5396(7) 0.0092(9) Uani 1 1 d . .
O21 O 0.2410(7) 0.7037(6) 0.2819(7) 0.0116(11) Uani 1 1 d . .
O22 O 0.3178(8) 0.6908(7) -0.0441(7) 0.0134(11) Uani 1 1 d . .
O23 O 0.3500(8) 0.3905(7) 0.1617(7) 0.0132(10) Uani 1 1 d . .
O24 O 0.0144(13) 0.5299(9) -0.0008(14) 0.0107(13) Uani 1 1 d D .
H1 H -0.055(12) 0.542(12) 0.102(11) 0.016 Uiso 1 1 d D U
loop_
_atom_site_aniso_label
_atom_site_aniso_U_11
_atom_site_aniso_U_22
_atom_site_aniso_U_33
_atom_site_aniso_U_23
_atom_site_aniso_U_13
_atom_site_aniso_U_12
Tb1 0.00601(12) 0.00483(12) 0.00575(12) -0.0006(2) 0.00201(8) -0.0005(2)
S1 0.0056(7) 0.0047(9) 0.0090(7) -0.0003(5) 0.0031(6) -0.0002(5)
S2 0.0064(7) 0.0079(7) 0.0058(7) 0.0005(6) 0.0018(6) 0.0000(6)
O11 0.0053(18) 0.011(3) 0.015(2) 0.000(3) 0.0002(15) -0.003(2)
O12 0.014(3) 0.005(2) 0.023(3) 0.000(2) 0.004(2) 0.0037(18)
O13 0.010(2) 0.008(2) 0.010(2) -0.0014(18) 0.0034(19) -0.0019(17)
O14 0.009(2) 0.009(2) 0.012(2) -0.0007(18) 0.0061(19) 0.0012(17)
O21 0.016(2) 0.011(3) 0.007(2) -0.0034(16) 0.0012(18) 0.0012(16)
O22 0.016(3) 0.018(3) 0.007(2) 0.0041(17) 0.0054(19) -0.0031(17)
O23 0.013(3) 0.013(2) 0.013(3) 0.0011(19) 0.003(2) 0.0048(19)
O24 0.007(3) 0.014(4) 0.011(2) 0.002(3) 0.0035(19) 0.000(3)
loop_
_atom_type_symbol
_atom_type_description
_atom_type_scat_dispersion_real
_atom_type_scat_dispersion_imag
_atom_type_scat_source
O O 0.0106 0.0060 'International Tables Vol C Tables 4.2.6.8 and 6.1.1.4'
S S 0.1246 0.1234 'International Tables Vol C Tables 4.2.6.8 and 6.1.1.4'
Tb Tb -0.1723 4.1537 'International Tables Vol C Tables 4.2.6.8 and 6.1.1.4'
H H 0.0000 0.0000 'International Tables Vol C Tables 4.2.6.8 and 6.1.1.4'
loop_
_geom_angle_atom_site_label_1
_geom_angle_atom_site_label_2
_geom_angle_atom_site_label_3
_geom_angle
_geom_angle_site_symmetry_1
_geom_angle_site_symmetry_3
O22 Tb1 O12 77.61(17) 1_556 2_646
O22 Tb1 O23 76.19(17) 1_556 2_656
O12 Tb1 O23 117.52(18) 2_646 2_656
O22 Tb1 O21 151.29(17) 1_556 .
O12 Tb1 O21 82.90(16) 2_646 .
O23 Tb1 O21 132.08(17) 2_656 .
O22 Tb1 O11 80.97(17) 1_556 1_455
O12 Tb1 O11 81.1(2) 2_646 1_455
O23 Tb1 O11 145.9(2) 2_656 1_455
O21 Tb1 O11 75.32(16) . 1_455
O22 Tb1 O14 116.62(17) 1_556 .
O12 Tb1 O14 70.42(16) 2_646 .
O23 Tb1 O14 72.80(17) 2_656 .
O21 Tb1 O14 75.22(16) . .
O11 Tb1 O14 141.0(2) 1_455 .
O22 Tb1 O13 74.09(16) 1_556 2_656
O12 Tb1 O13 143.32(18) 2_646 2_656
O23 Tb1 O13 77.63(17) 2_656 2_656
O21 Tb1 O13 112.56(15) . 2_656
O11 Tb1 O13 71.9(2) 1_455 2_656
O14 Tb1 O13 144.21(16) . 2_656
O22 Tb1 O14 127.22(16) 1_556 2_656
O12 Tb1 O14 154.23(18) 2_646 2_656
O23 Tb1 O14 79.44(16) 2_656 2_656
O21 Tb1 O14 71.53(15) . 2_656
O11 Tb1 O14 95.0(2) 1_455 2_656
O14 Tb1 O14 99.22(9) . 2_656
O13 Tb1 O14 55.20(16) 2_656 2_656
O22 Tb1 S1 101.67(12) 1_556 2_656
O12 Tb1 S1 158.80(13) 2_646 2_656
O23 Tb1 S1 82.26(13) 2_656 2_656
O21 Tb1 S1 89.06(11) . 2_656
O11 Tb1 S1 77.9(2) 1_455 2_656
O14 Tb1 S1 126.33(11) . 2_656
O13 Tb1 S1 27.64(11) 2_656 2_656
O14 Tb1 S1 28.47(11) 2_656 2_656
O11 S1 O12 111.0(4) . .
O11 S1 O13 111.9(3) . .
O12 S1 O13 111.4(3) . .
O11 S1 O14 110.2(3) . .
O12 S1 O14 109.1(3) . .
O13 S1 O14 103.1(3) . .
O11 S1 Tb1 112.6(3) . 2_646
O12 S1 Tb1 136.5(2) . 2_646
O13 S1 Tb1 51.63(19) . 2_646
O14 S1 Tb1 53.63(18) . 2_646
O22 S2 O21 111.8(3) . .
O22 S2 O23 111.9(3) . .
O21 S2 O23 111.4(3) . .
O22 S2 O24 105.4(4) . .
O21 S2 O24 108.2(4) . .
O23 S2 O24 107.9(3) . .
S1 O11 Tb1 154.2(3) . 1_655
S1 O12 Tb1 156.0(3) . 2_656
S1 O13 Tb1 100.7(2) . 2_646
S1 O14 Tb1 122.1(3) . .
S1 O14 Tb1 97.9(2) . 2_646
Tb1 O14 Tb1 127.00(19) . 2_646
S2 O21 Tb1 149.0(3) . .
S2 O22 Tb1 153.2(3) . 1_554
S2 O23 Tb1 143.5(3) . 2_646
S2 O24 H1 104(5) . .
loop_
_geom_bond_atom_site_label_1
_geom_bond_atom_site_label_2
_geom_bond_distance
_geom_bond_site_symmetry_2
Tb1 O22 2.304(5) 1_556
Tb1 O12 2.315(5) 2_646
Tb1 O23 2.323(5) 2_656
Tb1 O21 2.325(5) .
Tb1 O11 2.340(4) 1_455
Tb1 O14 2.444(5) .
Tb1 O13 2.487(5) 2_656
Tb1 O14 2.534(5) 2_656
Tb1 S1 3.1168(14) 2_656
S1 O11 1.453(5) .
S1 O12 1.464(5) .
S1 O13 1.472(5) .
S1 O14 1.500(5) .
S1 Tb1 3.1168(14) 2_646
S2 O22 1.445(5) .
S2 O21 1.452(5) .
S2 O23 1.454(5) .
S2 O24 1.525(8) .
O11 Tb1 2.340(4) 1_655
O12 Tb1 2.315(5) 2_656
O13 Tb1 2.487(5) 2_646
O14 Tb1 2.534(5) 2_646
O22 Tb1 2.304(5) 1_554
O23 Tb1 2.323(5) 2_646
O24 H1 0.93(5) .
