#------------------------------------------------------------------------------
#$Date: 2020-10-06 11:44:47 +0300 (Tue, 06 Oct 2020) $
#$Revision: 257530 $
#$URL: file:///home/coder/svn-repositories/cod/cif/7/70/47/7704788.cif $
#------------------------------------------------------------------------------
#
# This file is available in the Crystallography Open Database (COD),
# http://www.crystallography.net/
#
# All data on this site have been placed in the public domain by the
# contributors.
#
data_7704788
loop_
_publ_author_name
'Yao, Zhi-Yuan'
'Zhang, Guo-Qin'
'Yao, Wan-Wan'
'Wang, Xiao-Zu'
'Qian, Yin'
'Ren, Xiao-Ming'
_publ_section_title
;
 Uniaxial thermal expansion behaviors and ionic conduction in a layered
 (NH<sub>4</sub>)<sub>2</sub>V<sub>3</sub>O<sub>8</sub>.
;
_journal_issue                   30
_journal_name_full
'Dalton transactions (Cambridge, England : 2003)'
_journal_page_first              10638
_journal_page_last               10644
_journal_paper_doi               10.1039/d0dt01833c
_journal_volume                  49
_journal_year                    2020
_chemical_formula_moiety         'O8 V3, 0.5(H16 N4)'
_chemical_formula_sum            'H8 N2 O8 V3'
_chemical_formula_weight         316.90
_space_group_crystal_system      tetragonal
_space_group_IT_number           100
_space_group_name_Hall           'P 4 -2ab'
_space_group_name_H-M_alt        'P 4 b m'
_atom_sites_solution_hydrogens   difmap
_audit_creation_date             2019-11-25
_audit_creation_method
;
Olex2 1.3
(compiled 2019.09.11 svn.r3662 for OlexSys, GUI svn.r5938)
;
_audit_update_record
;
2020-05-20 deposited with the CCDC.	2020-07-07 downloaded from the CCDC.
;
_cell_angle_alpha                90
_cell_angle_beta                 90
_cell_angle_gamma                90
_cell_formula_units_Z            2
_cell_length_a                   8.8620(4)
_cell_length_b                   8.8620(4)
_cell_length_c                   5.5652(6)
_cell_measurement_reflns_used    2541
_cell_measurement_temperature    140.0
_cell_measurement_theta_max      27.494
_cell_measurement_theta_min      4.600
_cell_volume                     437.06(5)
_computing_cell_refinement       'SAINT V8.38A (?, 2016)'
_computing_data_reduction        'SAINT V8.38A (?, 2016)'
_computing_molecular_graphics    'Olex2 1.3 (Dolomanov et al., 2009)'
_computing_publication_material  'Olex2 1.3 (Dolomanov et al., 2009)'
_computing_structure_refinement  'ShelXL 2014/7 (Sheldrick, 2015)'
_diffrn_ambient_temperature      140.0
_diffrn_measured_fraction_theta_full 0.996
_diffrn_measured_fraction_theta_max 0.997
_diffrn_measurement_device_type  'CCD area detector'
_diffrn_measurement_method       'phi and omega scans'
_diffrn_radiation_monochromator  graphite
_diffrn_radiation_type           MoK\a
_diffrn_radiation_wavelength     0.71073
_diffrn_reflns_av_R_equivalents  0.0563
_diffrn_reflns_av_unetI/netI     0.0377
_diffrn_reflns_Laue_measured_fraction_full 0.996
_diffrn_reflns_Laue_measured_fraction_max 0.997
_diffrn_reflns_limit_h_max       11
_diffrn_reflns_limit_h_min       -11
_diffrn_reflns_limit_k_max       11
_diffrn_reflns_limit_k_min       -11
_diffrn_reflns_limit_l_max       7
_diffrn_reflns_limit_l_min       -7
_diffrn_reflns_number            4273
_diffrn_reflns_point_group_measured_fraction_full 0.995
_diffrn_reflns_point_group_measured_fraction_max 0.996
_diffrn_reflns_theta_full        25.242
_diffrn_reflns_theta_max         27.574
_diffrn_reflns_theta_min         3.251
_exptl_absorpt_coefficient_mu    3.159
_exptl_absorpt_correction_T_max  0.7456
_exptl_absorpt_correction_T_min  0.5509
_exptl_absorpt_correction_type   multi-scan
_exptl_absorpt_process_details
'SADABS-2016/2 (Bruker,2016/2) was used for absorption correction. wR2(int) was 0.1229 before and 0.0792 after correction. The Ratio of minimum to maximum transmission is 0.7389. The \l/2 correction factor is Not present.'
_exptl_crystal_colour            'metallic dark black'
_exptl_crystal_colour_lustre     metallic
_exptl_crystal_colour_modifier   dark
_exptl_crystal_colour_primary    black
_exptl_crystal_density_diffrn    2.408
_exptl_crystal_description       plate
_exptl_crystal_F_000             310
_refine_diff_density_max         0.477
_refine_diff_density_min         -0.423
_refine_diff_density_rms         0.097
_refine_ls_abs_structure_details
;
 Flack x determined using 219 quotients [(I+)-(I-)]/[(I+)+(I-)]
 (Parsons, Flack and Wagner, Acta Cryst. B69 (2013) 249-259).
;
_refine_ls_abs_structure_Flack   0.02(4)
_refine_ls_extinction_method     none
_refine_ls_goodness_of_fit_ref   1.165
_refine_ls_hydrogen_treatment    mixed
_refine_ls_matrix_type           full
_refine_ls_number_parameters     42
_refine_ls_number_reflns         555
_refine_ls_number_restraints     2
_refine_ls_restrained_S_all      1.163
_refine_ls_R_factor_all          0.0353
_refine_ls_R_factor_gt           0.0311
_refine_ls_shift/su_max          0.000
_refine_ls_shift/su_mean         0.000
_refine_ls_structure_factor_coef Fsqd
_refine_ls_weighting_details
'w=1/[\s^2^(Fo^2^)+1.1358P] where P=(Fo^2^+2Fc^2^)/3'
_refine_ls_weighting_scheme      calc
_refine_ls_wR_factor_gt          0.0635
_refine_ls_wR_factor_ref         0.0657
_reflns_Friedel_coverage         0.818
_reflns_Friedel_fraction_full    0.995
_reflns_Friedel_fraction_max     0.996
_reflns_number_gt                526
_reflns_number_total             555
_reflns_threshold_expression     'I > 2\s(I)'
_cod_data_source_file            d0dt01833c2.cif
_cod_data_source_block           140k
_cod_depositor_comments
;Adding full bibliography for 7704781--7704792.cif.

 Adding full bibliography for 7704781--7704792.cif.
;
_cod_original_cell_volume        437.06(6)
_cod_database_code               7704788
_shelx_shelxl_version_number     2014/7
_shelx_space_group_comment
;
The symmetry employed for this shelxl refinement is uniquely defined
by the following loop, which should always be used as a source of
symmetry information in preference to the above space-group names.
They are only intended as comments.
;
_olex2_refinement_description
;
1. Twinned data refinement
 Scales: 0.78(9)
 0.22(9)
2. Fixed Uiso
 At 1.2 times of:
  All N(H,H,H) groups
3. Restrained distances
 N1-H1D
 0.9 with sigma of 0.02
4. Others
 Fixed Sof: H1B(0.5) H1C(0.5)
5.a Riding coordinates:
 N1(H1A,H1B,H1C)
;
_shelx_res_file
;
    140k.res created by SHELXL-2014/7

TITL 140K in P4bm
CELL 0.71073 8.862 8.862 5.5652 90 90 90
ZERR 2 0.0004 0.0004 0.0006 0 0 0
LATT -1
SYMM -X,-Y,+Z
SYMM -Y,+X,+Z
SYMM +Y,-X,+Z
SYMM 0.5+X,0.5-Y,+Z
SYMM 0.5-X,0.5+Y,+Z
SYMM 0.5-Y,0.5-X,+Z
SYMM 0.5+Y,0.5+X,+Z
SFAC H N O V
UNIT 16 4 16 6
DFIX 0.9 N1 H1d

L.S. 20
PLAN  1
TEMP -133.15
CONF
BOND
MORE -1
BOND $H
fmap 2
acta
TWIN 1 0 0 0 -1 0 0 0 -1 2
REM <olex2.extras>
REM <HklSrc "%.\\140K.hkl">
REM </olex2.extras>

WGHT    0.000000    1.135800
BASF   0.22338
FVAR       0.24757
V2    4   -0.366738   -0.133262   -0.625851    10.50000    0.00896    0.00896 =
         0.01071   -0.00215    0.00215   -0.00132
V1    4    0.000000    0.000000   -0.629368    10.25000    0.00843    0.00843 =
         0.01829    0.00000    0.00000    0.00000
N1    2   -0.170251   -0.329749   -0.095354    10.50000    0.02061    0.02061 =
         0.01192   -0.00037    0.00037    0.00850
AFIX   3
H1A   1   -0.116971   -0.383030   -0.206474    10.50000   -1.20000
H1B   1   -0.105461   -0.275980   -0.001774    10.50000   -1.20000
H1C   1   -0.224031   -0.394550   -0.001774    10.50000   -1.20000
AFIX   0

O4    3   -0.369985   -0.130015   -0.331330    10.50000    0.01866    0.01866 =
         0.00814   -0.00043    0.00043    0.00443
O1    3    0.000000    0.000000   -0.341923    10.25000    0.02505    0.02505 =
         0.01713    0.00000    0.00000    0.00000
O3    3   -0.500000    0.000000   -0.740692    10.25000    0.02654    0.02654 =
         0.01148    0.00000    0.00000    0.00779
O2    3   -0.193274   -0.085305   -0.733685    11.00000    0.01429    0.03219 =
         0.02763   -0.01407    0.00816   -0.01255
H1D   1   -0.231574   -0.268426   -0.179756    10.50000    0.05418
HKLF 4

REM  140K in P4bm
REM R1 =  0.0311 for     526 Fo > 4sig(Fo)  and  0.0353 for all     555 data
REM     42 parameters refined using      2 restraints

END

WGHT      0.0000      1.1358

REM Highest difference peak  0.477,  deepest hole -0.423,  1-sigma level  0.097
Q1    1  -0.3632 -0.0418 -0.6239  11.00000  0.05    0.48
;
_shelx_res_checksum              37948
_olex2_submission_special_instructions 'No special instructions were received'
loop_
_space_group_symop_operation_xyz
'x, y, z'
'-x, -y, z'
'-y, x, z'
'y, -x, z'
'x+1/2, -y+1/2, z'
'-x+1/2, y+1/2, z'
'-y+1/2, -x+1/2, z'
'y+1/2, x+1/2, z'
loop_
_atom_site_label
_atom_site_type_symbol
_atom_site_fract_x
_atom_site_fract_y
_atom_site_fract_z
_atom_site_U_iso_or_equiv
_atom_site_adp_type
_atom_site_occupancy
_atom_site_site_symmetry_order
_atom_site_calc_flag
_atom_site_refinement_flags_posn
_atom_site_refinement_flags_adp
_atom_site_refinement_flags_occupancy
_atom_site_disorder_assembly
_atom_site_disorder_group
V2 V -0.36674(8) -0.13326(8) -0.6259(3) 0.0095(3) Uani 1 2 d S T P . .
V1 V 0.0000 0.0000 -0.6294(5) 0.0117(3) Uani 1 4 d S T P . .
N1 N -0.1703(5) -0.3297(5) -0.0954(15) 0.0177(15) Uani 1 2 d DS T P . .
H1A H -0.1170 -0.3830 -0.2065 0.021 Uiso 1 2 d R U P . .
H1B H -0.1055 -0.2760 -0.0018 0.021 Uiso 0.5 1 d R U P . .
H1C H -0.2240 -0.3946 -0.0018 0.021 Uiso 0.5 1 d R U P . .
O4 O -0.3700(4) -0.1300(4) -0.3313(10) 0.0152(11) Uani 1 2 d S T P . .
O1 O 0.0000 0.0000 -0.3419(15) 0.0224(18) Uani 1 4 d S T P . .
O3 O -0.5000 0.0000 -0.7407(14) 0.0215(18) Uani 1 4 d S T P . .
O2 O -0.1933(5) -0.0853(5) -0.7337(9) 0.0247(9) Uani 1 1 d . . . . .
H1D H -0.232(5) -0.268(5) -0.180(19) 0.05(4) Uiso 1 2 d DS . P . .
loop_
_atom_site_aniso_label
_atom_site_aniso_U_11
_atom_site_aniso_U_22
_atom_site_aniso_U_33
_atom_site_aniso_U_23
_atom_site_aniso_U_13
_atom_site_aniso_U_12
V2 0.0090(3) 0.0090(3) 0.0107(5) -0.0021(6) 0.0021(6) -0.0013(4)
V1 0.0084(4) 0.0084(4) 0.0183(8) 0.000 0.000 0.000
N1 0.0206(18) 0.0206(18) 0.012(4) -0.0004(19) 0.0004(19) 0.008(2)
O4 0.0187(17) 0.0187(17) 0.008(2) -0.0004(15) 0.0004(15) 0.004(2)
O1 0.025(3) 0.025(3) 0.017(4) 0.000 0.000 0.000
O3 0.027(3) 0.027(3) 0.011(4) 0.000 0.000 0.008(4)
O2 0.014(2) 0.032(2) 0.028(2) -0.0141(19) 0.0082(17) -0.0126(19)
loop_
_atom_type_symbol
_atom_type_description
_atom_type_scat_dispersion_real
_atom_type_scat_dispersion_imag
_atom_type_scat_source
H H 0.0000 0.0000 'International Tables Vol C Tables 4.2.6.8 and 6.1.1.4'
N N 0.0061 0.0033 'International Tables Vol C Tables 4.2.6.8 and 6.1.1.4'
O O 0.0106 0.0060 'International Tables Vol C Tables 4.2.6.8 and 6.1.1.4'
V V 0.3005 0.5294 'International Tables Vol C Tables 4.2.6.8 and 6.1.1.4'
loop_
_geom_angle_atom_site_label_1
_geom_angle_atom_site_label_2
_geom_angle_atom_site_label_3
_geom_angle
_geom_angle_site_symmetry_1
_geom_angle_site_symmetry_3
_geom_angle_publ_flag
O4 V2 O3 109.5(3) . . ?
O4 V2 O2 111.3(2) . . ?
O4 V2 O2 111.3(2) . 7_445 ?
O2 V2 O3 107.8(2) 7_445 . ?
O2 V2 O3 107.8(2) . . ?
O2 V2 O2 109.0(3) . 7_445 ?
O1 V1 O2 107.23(15) . 4 ?
O1 V1 O2 107.23(15) . . ?
O1 V1 O2 107.23(15) . 2 ?
O1 V1 O2 107.23(15) . 3 ?
O2 V1 O2 84.97(9) 2 4 ?
O2 V1 O2 84.97(9) 4 . ?
O2 V1 O2 84.97(9) 3 . ?
O2 V1 O2 84.97(9) 2 3 ?
O2 V1 O2 145.5(3) 2 . ?
O2 V1 O2 145.5(3) 3 4 ?
H1A N1 H1B 109.5 . . ?
H1A N1 H1C 109.5 . . ?
H1A N1 H1D 105.8 . . ?
H1B N1 H1C 109.5 . . ?
H1B N1 H1D 111.3 . . ?
H1C N1 H1D 111.3 . . ?
V2 O3 V2 138.1(5) . 2_455 ?
V2 O2 V1 141.3(3) . . ?
loop_
_geom_bond_atom_site_label_1
_geom_bond_atom_site_label_2
_geom_bond_distance
_geom_bond_site_symmetry_2
_geom_bond_publ_flag
V2 O4 1.640(5) . ?
V2 O3 1.788(3) . ?
V2 O2 1.704(4) 7_445 ?
V2 O2 1.704(4) . ?
V1 O1 1.600(8) . ?
V1 O2 1.960(4) 2 ?
V1 O2 1.960(4) . ?
V1 O2 1.960(4) 4 ?
V1 O2 1.960(4) 3 ?
N1 H1A 0.9101 . ?
N1 H1B 0.9099 . ?
N1 H1C 0.9100 . ?
N1 H1D 0.90(3) . ?
O3 V2 1.788(3) 2_455 ?
loop_
_geom_torsion_atom_site_label_1
_geom_torsion_atom_site_label_2
_geom_torsion_atom_site_label_3
_geom_torsion_atom_site_label_4
_geom_torsion
_geom_torsion_site_symmetry_1
_geom_torsion_site_symmetry_2
_geom_torsion_site_symmetry_3
_geom_torsion_site_symmetry_4
_geom_torsion_publ_flag
O4 V2 O3 V2 0.000(2) . . . 2_455 ?
O4 V2 O2 V1 -11.5(5) . . . . ?
O3 V2 O2 V1 108.6(5) . . . . ?
O2 V2 O3 V2 -121.24(18) . . . 2_455 ?
O2 V2 O3 V2 121.24(18) 7_445 . . 2_455 ?
O2 V2 O2 V1 -134.7(3) 7_445 . . . ?
loop_
_twin_individual_id
_twin_individual_mass_fraction_refined
1 0.78(9)
2 0.22(9)
