#------------------------------------------------------------------------------
#$Date: 2020-08-06 16:50:47 +0300 (Thu, 06 Aug 2020) $
#$Revision: 254946 $
#$URL: file:///home/coder/svn-repositories/cod/cif/7/70/48/7704850.cif $
#------------------------------------------------------------------------------
#
# This file is available in the Crystallography Open Database (COD),
# http://www.crystallography.net/
#
# All data on this site have been placed in the public domain by the
# contributors.
#
data_7704850
loop_
_publ_author_name
'Zhao, Dan'
'Xue, Yali'
'Zhang, Ruijuan'
'Fan, Yanping'
'Liu, Baozhong'
'Li, Yanan'
'Zhang, Shirui'
_publ_section_title
;
 Design, synthesis, crystal structure and luminescent properties
 introduced by Eu<sup>3+</sup> of a new type of rare-earth borophosphate
 CsNa<sub>2</sub>REE<sub>2</sub>(BO<sub>3</sub>)(PO<sub>4</sub>)<sub>2</sub>
 (REE = Y, Gd).
;
_journal_issue                   29
_journal_name_full
'Dalton transactions (Cambridge, England : 2003)'
_journal_page_first              10104
_journal_page_last               10113
_journal_paper_doi               10.1039/d0dt00389a
_journal_volume                  49
_journal_year                    2020
_chemical_formula_sum            'B Cs Na2 O11 P2 Y2'
_chemical_formula_weight         605.46
_space_group_crystal_system      orthorhombic
_space_group_IT_number           63
_space_group_name_Hall           '-C 2c 2'
_space_group_name_H-M_alt        'C m c m'
_audit_creation_method           SHELXL-2017/1
_audit_update_record
;
2019-09-01 deposited with the CCDC.	2020-06-29 downloaded from the CCDC.
;
_cell_angle_alpha                90
_cell_angle_beta                 90
_cell_angle_gamma                90
_cell_formula_units_Z            4
_cell_length_a                   6.9491(6)
_cell_length_b                   14.9073(12)
_cell_length_c                   10.6201(9)
_cell_measurement_reflns_used    938
_cell_measurement_temperature    296(2)
_cell_measurement_theta_max      24.27
_cell_measurement_theta_min      3.60
_cell_volume                     1100.16(16)
_computing_cell_refinement       'Bruker Apex2'
_computing_data_collection       'Bruker Apex2'
_computing_data_reduction        'Bruker Apex2'
_computing_molecular_graphics    'SHELXL-2017/1 (Sheldrick, 2017)'
_computing_publication_material  'SHELXL-2017/1 (Sheldrick, 2017)'
_computing_structure_refinement  'SHELXL-2017/1 (Sheldrick, 2017)'
_computing_structure_solution    'SHELXL-2017/1 (Sheldrick, 2017)'
_diffrn_ambient_temperature      296(2)
_diffrn_detector_area_resol_mean 83.33
_diffrn_measured_fraction_theta_full 0.998
_diffrn_measured_fraction_theta_max 0.992
_diffrn_measurement_device_type  'Bruker Apex 2 CCD'
_diffrn_measurement_method       '\w scans'
_diffrn_radiation_type           MoK\a
_diffrn_radiation_wavelength     0.71073
_diffrn_reflns_av_R_equivalents  0.0240
_diffrn_reflns_av_unetI/netI     0.0191
_diffrn_reflns_Laue_measured_fraction_full 0.998
_diffrn_reflns_Laue_measured_fraction_max 0.992
_diffrn_reflns_limit_h_max       8
_diffrn_reflns_limit_h_min       -9
_diffrn_reflns_limit_k_max       16
_diffrn_reflns_limit_k_min       -19
_diffrn_reflns_limit_l_max       14
_diffrn_reflns_limit_l_min       -13
_diffrn_reflns_number            3636
_diffrn_reflns_point_group_measured_fraction_full 0.998
_diffrn_reflns_point_group_measured_fraction_max 0.992
_diffrn_reflns_theta_full        25.242
_diffrn_reflns_theta_max         28.283
_diffrn_reflns_theta_min         3.234
_exptl_absorpt_coefficient_mu    14.178
_exptl_absorpt_correction_T_max  0.406
_exptl_absorpt_correction_T_min  0.134
_exptl_absorpt_correction_type   multi-scan
_exptl_crystal_colour            colorless
_exptl_crystal_density_diffrn    3.655
_exptl_crystal_description       block
_exptl_crystal_F_000             1112
_exptl_crystal_size_max          0.180
_exptl_crystal_size_mid          0.140
_exptl_crystal_size_min          0.120
_refine_diff_density_max         0.697
_refine_diff_density_min         -0.862
_refine_diff_density_rms         0.140
_refine_ls_extinction_coef       0.0037(2)
_refine_ls_extinction_expression Fc^*^=kFc[1+0.001xFc^2^\l^3^/sin(2\q)]^-1/4^
_refine_ls_extinction_method     'SHELXL-2017/1 (Sheldrick 2017)'
_refine_ls_goodness_of_fit_ref   1.163
_refine_ls_hydrogen_treatment    undef
_refine_ls_matrix_type           full
_refine_ls_number_parameters     59
_refine_ls_number_reflns         766
_refine_ls_number_restraints     0
_refine_ls_restrained_S_all      1.163
_refine_ls_R_factor_all          0.0207
_refine_ls_R_factor_gt           0.0197
_refine_ls_shift/su_max          0.000
_refine_ls_shift/su_mean         0.000
_refine_ls_structure_factor_coef Fsqd
_refine_ls_weighting_details
'w=1/[\s^2^(Fo^2^)+(0.0223P)^2^+3.7746P] where P=(Fo^2^+2Fc^2^)/3'
_refine_ls_weighting_scheme      calc
_refine_ls_wR_factor_gt          0.0478
_refine_ls_wR_factor_ref         0.0481
_reflns_Friedel_coverage         0.000
_reflns_number_gt                735
_reflns_number_total             766
_reflns_threshold_expression     'I > 2\s(I)'
_cod_data_source_file            d0dt00389a2.cif
_cod_data_source_block           Y
_cod_depositor_comments
'Adding full bibliography for 7704850--7704852.cif.'
_cod_database_code               7704850
_publcif_datablock.id            {778ee695-36f8-4928-8164-edf2a2b734ac}
_shelx_shelxl_version_number     2017/1
_shelx_space_group_comment
;
The symmetry employed for this shelxl refinement is uniquely defined
by the following loop, which should always be used as a source of
symmetry information in preference to the above space-group names.
They are only intended as comments.
;
_shelx_estimated_absorpt_t_min   0.185
_shelx_estimated_absorpt_t_max   0.281
_shelx_res_file
;
TITL a in Cmcm
    E:\aaaaaaaaaaaaa\\^I\%a\^O?YGdLu_TbEu\Na2CsY2BP2O11_XL_65_6\a.res
    created by SHELXL-2017/1 at 18:05:36 on 07-May-2019
CELL 0.71073 6.9491 14.9073 10.6201 90.000 90.000 90.000
ZERR 4.0000 0.0006 0.0012 0.0009 0.000 0.000 0.000
LATT 7
SYMM -X, -Y, 0.5+Z
SYMM X, -Y, -Z
SYMM -X, Y, 0.5-Z
SFAC B O NA P Y CS
UNIT 4 44 8 8 8 4
MERG 2
FMAP 2
GRID
PLAN 20
TEMP 23
SIZE 0.18 0.14 0.12
L.S. 10
ACTA
WGHT    0.022300    3.774600
EXTI    0.003655
FVAR       0.07041
CS1   6    0.000000    0.016856    0.250000    10.25000    0.02814    0.01702 =
         0.03216    0.00000    0.00000    0.00000
NA1   3    0.243924    0.254847    0.250000    10.50000    0.01092    0.03305 =
         0.01078    0.00000    0.00000   -0.00125
Y1    5   -0.500000   -0.118945    0.468864    10.50000    0.00514    0.00376 =
         0.00435   -0.00012    0.00000    0.00000
B1    1   -0.500000    0.015860    0.750000    10.25000    0.01100    0.00338 =
         0.00632    0.00000    0.00000    0.00000
P1    4    0.000000    0.182770    0.523424    10.50000    0.00465    0.00537 =
         0.00722    0.00126    0.00000    0.00000
O1    2    0.000000    0.264863    0.612679    10.50000    0.01487    0.00905 =
         0.00433    0.00119    0.00000    0.00000
O2    2    0.000000    0.224141    0.391220    10.50000    0.01410    0.01105 =
         0.00638    0.00235    0.00000    0.00000
O3    2    0.179392    0.125747    0.547581    11.00000    0.00475    0.01150 =
         0.02343    0.00496   -0.00049    0.00211
O4    2   -0.500000   -0.024353    0.634139    10.50000    0.01939    0.00516 =
         0.00452   -0.00065    0.00000    0.00000
O5    2   -0.500000    0.109094    0.750000    10.25000    0.02330    0.00576 =
         0.00561    0.00000    0.00000    0.00000
HKLF 4




REM  a in Cmcm
REM R1 =  0.0197 for     735 Fo > 4sig(Fo)  and  0.0207 for all     766 data
REM     59 parameters refined using      0 restraints

END

WGHT      0.0223      3.7746

REM Highest difference peak  0.697,  deepest hole -0.862,  1-sigma level  0.140
Q1    1   0.0000  0.0191  0.3429  10.50000  0.05    0.70
Q2    1   0.0949  0.0526  0.2500  10.50000  0.05    0.66
Q3    1   0.2841  0.2025  0.2500  10.50000  0.05    0.57
Q4    1  -0.5000 -0.1261  0.3909  10.50000  0.05    0.51
Q5    1  -0.5000 -0.1250  0.5501  10.50000  0.05    0.51
Q6    1   0.1956  0.1910  0.2500  10.50000  0.05    0.49
Q7    1   0.0944  0.1458  0.5388  11.00000  0.05    0.46
Q8    1  -0.4091 -0.0902  0.4743  11.00000  0.05    0.41
Q9    1   0.0000 -0.0253  0.2500  10.25000  0.05    0.39
Q10   1   0.2858  0.1527  0.5408  11.00000  0.05    0.38
Q11   1  -0.4187 -0.1578  0.4747  11.00000  0.05    0.37
Q12   1   0.1768  0.0213  0.2500  10.50000  0.05    0.36
Q13   1   0.2111  0.1248  0.4764  11.00000  0.05    0.36
Q14   1   0.0000  0.2390  0.5588  10.50000  0.05    0.36
Q15   1   0.3124  0.0956  0.5349  11.00000  0.05    0.35
Q16   1   0.4073  0.2456  0.2500  10.50000  0.05    0.33
Q17   1  -0.1675 -0.0279  0.2500  10.50000  0.05    0.32
Q18   1   0.3097  0.2606  0.3498  11.00000  0.05    0.32
Q19   1   0.1918  0.0894  0.5477  11.00000  0.05    0.30
Q20   1   0.2123 -0.0026  0.3522  11.00000  0.05    0.29
;
_shelx_res_checksum              10175
_publcif_funding_html
;
;
loop_
_space_group_symop_operation_xyz
'x, y, z'
'-x, -y, z+1/2'
'x, -y, -z'
'-x, y, -z+1/2'
'x+1/2, y+1/2, z'
'-x+1/2, -y+1/2, z+1/2'
'x+1/2, -y+1/2, -z'
'-x+1/2, y+1/2, -z+1/2'
'-x, -y, -z'
'x, y, -z-1/2'
'-x, y, z'
'x, -y, z-1/2'
'-x+1/2, -y+1/2, -z'
'x+1/2, y+1/2, -z-1/2'
'-x+1/2, y+1/2, z'
'x+1/2, -y+1/2, z-1/2'
loop_
_atom_site_label
_atom_site_type_symbol
_atom_site_fract_x
_atom_site_fract_y
_atom_site_fract_z
_atom_site_U_iso_or_equiv
_atom_site_adp_type
_atom_site_occupancy
_atom_site_site_symmetry_order
_atom_site_calc_flag
_atom_site_refinement_flags_posn
_atom_site_refinement_flags_adp
_atom_site_refinement_flags_occupancy
_atom_site_disorder_assembly
_atom_site_disorder_group
Cs1 Cs 0.000000 0.01686(3) 0.250000 0.02577(15) Uani 1 4 d S T P . .
Na1 Na 0.2439(2) 0.25485(13) 0.250000 0.0182(4) Uani 1 2 d S T P . .
Y1 Y -0.500000 -0.11894(2) 0.46886(3) 0.00442(12) Uani 1 2 d S T P . .
B1 B -0.500000 0.0159(4) 0.750000 0.0069(11) Uani 1 4 d S T P . .
P1 P 0.000000 0.18277(6) 0.52342(9) 0.0057(2) Uani 1 2 d S T P . .
O1 O 0.000000 0.26486(18) 0.6127(3) 0.0094(5) Uani 1 2 d S T P . .
O2 O 0.000000 0.22414(18) 0.3912(3) 0.0105(6) Uani 1 2 d S T P . .
O3 O 0.1794(3) 0.12575(13) 0.5476(2) 0.0132(4) Uani 1 1 d . . . . .
O4 O -0.500000 -0.02435(17) 0.6341(3) 0.0097(6) Uani 1 2 d S T P . .
O5 O -0.500000 0.1091(2) 0.750000 0.0116(8) Uani 1 4 d S T P . .
loop_
_atom_site_aniso_label
_atom_site_aniso_U_11
_atom_site_aniso_U_22
_atom_site_aniso_U_33
_atom_site_aniso_U_23
_atom_site_aniso_U_13
_atom_site_aniso_U_12
Cs1 0.0281(2) 0.0170(2) 0.0322(3) 0.000 0.000 0.000
Na1 0.0109(8) 0.0330(10) 0.0108(8) 0.000 0.000 -0.0013(7)
Y1 0.00514(18) 0.00376(18) 0.00435(19) -0.00012(12) 0.000 0.000
B1 0.011(3) 0.003(2) 0.006(3) 0.000 0.000 0.000
P1 0.0047(4) 0.0054(4) 0.0072(5) 0.0013(3) 0.000 0.000
O1 0.0149(13) 0.0091(13) 0.0043(12) 0.0012(10) 0.000 0.000
O2 0.0141(14) 0.0110(13) 0.0064(13) 0.0024(11) 0.000 0.000
O3 0.0047(9) 0.0115(9) 0.0234(12) 0.0050(8) -0.0005(8) 0.0021(7)
O4 0.0194(15) 0.0052(12) 0.0045(13) -0.0007(9) 0.000 0.000
O5 0.023(2) 0.0058(18) 0.0056(18) 0.000 0.000 0.000
loop_
_atom_type_symbol
_atom_type_description
_atom_type_scat_dispersion_real
_atom_type_scat_dispersion_imag
_atom_type_scat_source
B B 0.0013 0.0007 'International Tables Vol C Tables 4.2.6.8 and 6.1.1.4'
O O 0.0106 0.0060 'International Tables Vol C Tables 4.2.6.8 and 6.1.1.4'
Na Na 0.0362 0.0249 'International Tables Vol C Tables 4.2.6.8 and 6.1.1.4'
P P 0.1023 0.0942 'International Tables Vol C Tables 4.2.6.8 and 6.1.1.4'
Y Y -2.7962 3.5667 'International Tables Vol C Tables 4.2.6.8 and 6.1.1.4'
Cs Cs -0.3680 2.1192 'International Tables Vol C Tables 4.2.6.8 and 6.1.1.4'
loop_
_geom_angle_atom_site_label_1
_geom_angle_atom_site_label_2
_geom_angle_atom_site_label_3
_geom_angle
_geom_angle_site_symmetry_1
_geom_angle_site_symmetry_3
_geom_angle_publ_flag
O4 B1 O4 128.0(5) . 10_557 ?
O4 B1 O5 116.0(2) . . ?
O4 B1 O5 116.0(2) 10_557 . ?
O3 P1 O3 109.08(16) . 11 ?
O3 P1 O2 112.14(11) . . ?
O3 P1 O2 112.14(11) 11 . ?
O3 P1 O1 109.66(10) . . ?
O3 P1 O1 109.66(10) 11 . ?
O2 P1 O1 104.05(15) . . ?
loop_
_geom_bond_atom_site_label_1
_geom_bond_atom_site_label_2
_geom_bond_distance
_geom_bond_site_symmetry_2
_geom_bond_publ_flag
Cs1 O3 3.270(2) 2_554 ?
Cs1 O3 3.270(2) 12 ?
Cs1 O3 3.270(2) 3_556 ?
Cs1 O3 3.270(2) 9_556 ?
Cs1 O2 3.435(3) 10_556 ?
Cs1 O2 3.435(3) . ?
Cs1 O4 3.6877(10) 9_556 ?
Cs1 O4 3.6877(9) 2_454 ?
Cs1 O4 3.6877(10) 2_554 ?
Cs1 O4 3.6877(9) 9_456 ?
Na1 O2 2.309(2) . ?
Na1 O2 2.309(2) 10_556 ?
Na1 O1 2.319(2) 13_556 ?
Na1 O1 2.319(2) 6_554 ?
Na1 O5 2.643(3) 13_456 ?
Na1 O3 2.841(2) 13_556 ?
Na1 O3 2.841(2) 6_554 ?
Y1 O3 2.237(2) 3_456 ?
Y1 O3 2.237(2) 9_556 ?
Y1 O4 2.251(3) . ?
Y1 O1 2.309(3) 5_445 ?
Y1 O5 2.3290(5) 9_456 ?
Y1 O4 2.400(3) 9_456 ?
Y1 O2 2.480(3) 5_445 ?
B1 O4 1.369(4) . ?
B1 O4 1.369(4) 10_557 ?
B1 O5 1.390(7) . ?
P1 O3 1.531(2) . ?
P1 O3 1.531(2) 11 ?
P1 O2 1.534(3) . ?
P1 O1 1.548(3) . ?
loop_
_publcif_info_exptl_table_extra_item
sin_theta_over_lambda_max
loop_
_publcif_info_exptl_table_header_item
?
