#------------------------------------------------------------------------------
#$Date: 2020-10-06 11:44:47 +0300 (Tue, 06 Oct 2020) $
#$Revision: 257530 $
#$URL: file:///home/coder/svn-repositories/cod/cif/7/70/47/7704786.cif $
#------------------------------------------------------------------------------
#
# This file is available in the Crystallography Open Database (COD),
# http://www.crystallography.net/
#
# All data on this site have been placed in the public domain by the
# contributors.
#
data_7704786
loop_
_publ_author_name
'Yao, Zhi-Yuan'
'Zhang, Guo-Qin'
'Yao, Wan-Wan'
'Wang, Xiao-Zu'
'Qian, Yin'
'Ren, Xiao-Ming'
_publ_section_title
;
 Uniaxial thermal expansion behaviors and ionic conduction in a layered
 (NH<sub>4</sub>)<sub>2</sub>V<sub>3</sub>O<sub>8</sub>.
;
_journal_issue                   30
_journal_name_full
'Dalton transactions (Cambridge, England : 2003)'
_journal_page_first              10638
_journal_page_last               10644
_journal_paper_doi               10.1039/d0dt01833c
_journal_volume                  49
_journal_year                    2020
_chemical_formula_moiety         'O8 V3, 0.5(H16 N4)'
_chemical_formula_sum            'H8 N2 O8 V3'
_chemical_formula_weight         316.90
_space_group_crystal_system      tetragonal
_space_group_IT_number           100
_space_group_name_Hall           'P 4 -2ab'
_space_group_name_H-M_alt        'P 4 b m'
_atom_sites_solution_hydrogens   difmap
_audit_creation_date             2019-11-25
_audit_creation_method
;
Olex2 1.3
(compiled 2019.09.11 svn.r3662 for OlexSys, GUI svn.r5938)
;
_audit_update_record
;
2020-05-21 deposited with the CCDC.	2020-07-07 downloaded from the CCDC.
;
_cell_angle_alpha                90
_cell_angle_beta                 90
_cell_angle_gamma                90
_cell_formula_units_Z            2
_cell_length_a                   8.8776(4)
_cell_length_b                   8.8776(4)
_cell_length_c                   5.5610(6)
_cell_measurement_reflns_used    2666
_cell_measurement_temperature    200.0
_cell_measurement_theta_max      27.480
_cell_measurement_theta_min      4.592
_cell_volume                     438.27(5)
_computing_cell_refinement       'SAINT V8.38A (?, 2016)'
_computing_data_reduction        'SAINT V8.38A (?, 2016)'
_computing_molecular_graphics    'Olex2 1.3 (Dolomanov et al., 2009)'
_computing_publication_material  'Olex2 1.3 (Dolomanov et al., 2009)'
_computing_structure_refinement  'ShelXL 2014/7 (Sheldrick, 2015)'
_diffrn_ambient_temperature      200.0
_diffrn_measured_fraction_theta_full 0.996
_diffrn_measured_fraction_theta_max 0.997
_diffrn_measurement_device_type  'CCD area detector'
_diffrn_measurement_method       'phi and omega scans'
_diffrn_radiation_monochromator  graphite
_diffrn_radiation_type           MoK\a
_diffrn_radiation_wavelength     0.71073
_diffrn_reflns_av_R_equivalents  0.0536
_diffrn_reflns_av_unetI/netI     0.0350
_diffrn_reflns_Laue_measured_fraction_full 0.996
_diffrn_reflns_Laue_measured_fraction_max 0.997
_diffrn_reflns_limit_h_max       11
_diffrn_reflns_limit_h_min       -11
_diffrn_reflns_limit_k_max       11
_diffrn_reflns_limit_k_min       -11
_diffrn_reflns_limit_l_max       7
_diffrn_reflns_limit_l_min       -7
_diffrn_reflns_number            4316
_diffrn_reflns_point_group_measured_fraction_full 0.995
_diffrn_reflns_point_group_measured_fraction_max 0.996
_diffrn_reflns_theta_full        25.242
_diffrn_reflns_theta_max         27.591
_diffrn_reflns_theta_min         3.245
_exptl_absorpt_coefficient_mu    3.151
_exptl_absorpt_correction_T_max  0.7456
_exptl_absorpt_correction_T_min  0.5665
_exptl_absorpt_correction_type   multi-scan
_exptl_absorpt_process_details
'SADABS-2016/2 (Bruker,2016/2) was used for absorption correction. wR2(int) was 0.1208 before and 0.0781 after correction. The Ratio of minimum to maximum transmission is 0.7598. The \l/2 correction factor is Not present.'
_exptl_crystal_colour            'metallic dark black'
_exptl_crystal_colour_lustre     metallic
_exptl_crystal_colour_modifier   dark
_exptl_crystal_colour_primary    black
_exptl_crystal_density_diffrn    2.401
_exptl_crystal_description       plate
_exptl_crystal_F_000             310
_refine_diff_density_max         0.478
_refine_diff_density_min         -0.493
_refine_diff_density_rms         0.093
_refine_ls_abs_structure_details
;
 Flack x determined using 224 quotients [(I+)-(I-)]/[(I+)+(I-)]
 (Parsons, Flack and Wagner, Acta Cryst. B69 (2013) 249-259).
;
_refine_ls_abs_structure_Flack   0.02(4)
_refine_ls_extinction_method     none
_refine_ls_goodness_of_fit_ref   1.143
_refine_ls_hydrogen_treatment    mixed
_refine_ls_matrix_type           full
_refine_ls_number_parameters     42
_refine_ls_number_reflns         555
_refine_ls_number_restraints     2
_refine_ls_restrained_S_all      1.140
_refine_ls_R_factor_all          0.0330
_refine_ls_R_factor_gt           0.0288
_refine_ls_shift/su_max          0.000
_refine_ls_shift/su_mean         0.000
_refine_ls_structure_factor_coef Fsqd
_refine_ls_weighting_details
'w=1/[\s^2^(Fo^2^)+1.1105P] where P=(Fo^2^+2Fc^2^)/3'
_refine_ls_weighting_scheme      calc
_refine_ls_wR_factor_gt          0.0604
_refine_ls_wR_factor_ref         0.0628
_reflns_Friedel_coverage         0.818
_reflns_Friedel_fraction_full    0.995
_reflns_Friedel_fraction_max     0.996
_reflns_number_gt                525
_reflns_number_total             555
_reflns_threshold_expression     'I > 2\s(I)'
_cod_data_source_file            d0dt01833c2.cif
_cod_data_source_block           200k-1
_cod_depositor_comments
;Adding full bibliography for 7704781--7704792.cif.

 Adding full bibliography for 7704781--7704792.cif.
;
_cod_original_cell_volume        438.27(6)
_cod_database_code               7704786
_shelx_shelxl_version_number     2014/7
_shelx_space_group_comment
;
The symmetry employed for this shelxl refinement is uniquely defined
by the following loop, which should always be used as a source of
symmetry information in preference to the above space-group names.
They are only intended as comments.
;
_olex2_refinement_description
;
1. Twinned data refinement
 Scales: 0.80(9)
 0.20(9)
2. Fixed Uiso
 At 1.2 times of:
  All N(H,H,H) groups
3. Restrained distances
 N1-H1D
 0.9 with sigma of 0.02
4. Others
 Fixed Sof: H1B(0.5) H1C(0.5)
5.a Riding coordinates:
 N1(H1A,H1B,H1C)
;
_shelx_res_file
;
    200k-1.res created by SHELXL-2014/7

TITL 200K-1 in P4bm
CELL 0.71073 8.8776 8.8776 5.561 90 90 90
ZERR 2 0.0004 0.0004 0.0006 0 0 0
LATT -1
SYMM -X,-Y,+Z
SYMM -Y,+X,+Z
SYMM +Y,-X,+Z
SYMM 0.5+X,0.5-Y,+Z
SYMM 0.5-X,0.5+Y,+Z
SYMM 0.5-Y,0.5-X,+Z
SYMM 0.5+Y,0.5+X,+Z
SFAC H N O V
UNIT 16 4 16 6
DFIX 0.9 N1 H1d

L.S. 4
PLAN  1
TEMP -73.15
CONF
BOND
MORE -1
BOND $H
fmap 2
acta
TWIN 1 0 0 0 -1 0 0 0 -1 2
REM <olex2.extras>
REM <HklSrc "%.\\200K-1.hkl">
REM </olex2.extras>

WGHT    0.000000    1.110500
BASF   0.20193
FVAR       0.82948
V2    4   -0.133412   -0.366588   -0.770808    10.50000    0.00747    0.00747 =
         0.01217    0.00090   -0.00090   -0.00070
V1    4    0.000000    0.000000   -0.774422    10.25000    0.00778    0.00778 =
         0.01552    0.00000    0.00000    0.00000
N1    2   -0.329716   -0.170284   -0.240624    10.50000    0.02471    0.02471 =
         0.01282   -0.00172    0.00172    0.01013
AFIX   3
H1A   1   -0.382746   -0.117250   -0.352164    10.50000   -1.20000
H1B   1   -0.394506   -0.222760   -0.146994    10.50000   -1.20000
H1C   1   -0.276146   -0.104400   -0.146994    10.50000   -1.20000
AFIX   0

O2    3   -0.085362   -0.193103   -0.878363    11.00000    0.02203    0.01110 =
         0.02827    0.00384   -0.00762   -0.00724
O1    3    0.000000    0.000000   -0.487211    10.25000    0.02725    0.02725 =
         0.01390    0.00000    0.00000    0.00000
O4    3   -0.130229   -0.369771   -0.476289    10.50000    0.02036    0.02036 =
         0.01034   -0.00102    0.00102    0.00377
O3    3    0.000000   -0.500000   -0.885184    10.25000    0.01778    0.01778 =
         0.01420    0.00000    0.00000    0.00723
H1D   1   -0.268069   -0.231931   -0.323241    10.50000    0.06347
HKLF 4

REM  200K-1 in P4bm
REM R1 =  0.0288 for     525 Fo > 4sig(Fo)  and  0.0330 for all     555 data
REM     42 parameters refined using      2 restraints

END

WGHT      0.0000      1.1105

REM Highest difference peak  0.478,  deepest hole -0.493,  1-sigma level  0.093
Q1    1  -0.0397 -0.3777 -0.7668  11.00000  0.05    0.48
;
_shelx_res_checksum              2388
_olex2_submission_special_instructions 'No special instructions were received'
loop_
_space_group_symop_operation_xyz
'x, y, z'
'-x, -y, z'
'-y, x, z'
'y, -x, z'
'x+1/2, -y+1/2, z'
'-x+1/2, y+1/2, z'
'-y+1/2, -x+1/2, z'
'y+1/2, x+1/2, z'
loop_
_atom_site_label
_atom_site_type_symbol
_atom_site_fract_x
_atom_site_fract_y
_atom_site_fract_z
_atom_site_U_iso_or_equiv
_atom_site_adp_type
_atom_site_occupancy
_atom_site_site_symmetry_order
_atom_site_calc_flag
_atom_site_refinement_flags_posn
_atom_site_refinement_flags_adp
_atom_site_refinement_flags_occupancy
_atom_site_disorder_assembly
_atom_site_disorder_group
V2 V -0.13341(7) -0.36659(7) -0.7708(3) 0.0090(2) Uani 1 2 d S T P . .
V1 V 0.0000 0.0000 -0.7744(4) 0.0104(3) Uani 1 4 d S T P . .
N1 N -0.3297(5) -0.1703(5) -0.2406(15) 0.0208(15) Uani 1 2 d DS T P . .
H1A H -0.3827 -0.1172 -0.3522 0.025 Uiso 1 2 d R U P . .
H1B H -0.3945 -0.2228 -0.1470 0.025 Uiso 0.5 1 d R U P . .
H1C H -0.2761 -0.1044 -0.1470 0.025 Uiso 0.5 1 d R U P . .
O2 O -0.0854(4) -0.1931(4) -0.8784(8) 0.0205(8) Uani 1 1 d . . . . .
O1 O 0.0000 0.0000 -0.4872(14) 0.0228(17) Uani 1 4 d S T P . .
O4 O -0.1302(4) -0.3698(4) -0.4763(9) 0.0170(11) Uani 1 2 d S T P . .
O3 O 0.0000 -0.5000 -0.8852(13) 0.0166(15) Uani 1 4 d S T P . .
H1D H -0.268(6) -0.232(6) -0.32(2) 0.06(4) Uiso 1 2 d DS . P . .
loop_
_atom_site_aniso_label
_atom_site_aniso_U_11
_atom_site_aniso_U_22
_atom_site_aniso_U_33
_atom_site_aniso_U_23
_atom_site_aniso_U_13
_atom_site_aniso_U_12
V2 0.0075(3) 0.0075(3) 0.0122(5) 0.0009(6) -0.0009(6) -0.0007(3)
V1 0.0078(4) 0.0078(4) 0.0155(7) 0.000 0.000 0.000
N1 0.0247(18) 0.0247(18) 0.013(4) -0.0017(19) 0.0017(19) 0.010(2)
O2 0.022(2) 0.0111(18) 0.0283(19) 0.0038(16) -0.0076(16) -0.0072(16)
O1 0.027(3) 0.027(3) 0.014(4) 0.000 0.000 0.000
O4 0.0204(17) 0.0204(17) 0.010(2) -0.0010(15) 0.0010(15) 0.004(2)
O3 0.018(2) 0.018(2) 0.014(4) 0.000 0.000 0.007(3)
loop_
_atom_type_symbol
_atom_type_description
_atom_type_scat_dispersion_real
_atom_type_scat_dispersion_imag
_atom_type_scat_source
H H 0.0000 0.0000 'International Tables Vol C Tables 4.2.6.8 and 6.1.1.4'
N N 0.0061 0.0033 'International Tables Vol C Tables 4.2.6.8 and 6.1.1.4'
O O 0.0106 0.0060 'International Tables Vol C Tables 4.2.6.8 and 6.1.1.4'
V V 0.3005 0.5294 'International Tables Vol C Tables 4.2.6.8 and 6.1.1.4'
loop_
_geom_angle_atom_site_label_1
_geom_angle_atom_site_label_2
_geom_angle_atom_site_label_3
_geom_angle
_geom_angle_site_symmetry_1
_geom_angle_site_symmetry_3
_geom_angle_publ_flag
O2 V2 O2 109.2(3) 7_445 . ?
O2 V2 O3 107.9(2) 7_445 . ?
O2 V2 O3 107.9(2) . . ?
O4 V2 O2 111.2(2) . . ?
O4 V2 O2 111.2(2) . 7_445 ?
O4 V2 O3 109.4(3) . . ?
O2 V1 O2 85.02(8) 2 4 ?
O2 V1 O2 145.7(3) 4 3 ?
O2 V1 O2 85.02(8) 2 3 ?
O2 V1 O2 145.7(3) 2 . ?
O2 V1 O2 85.02(8) 4 . ?
O2 V1 O2 85.02(8) 3 . ?
O1 V1 O2 107.14(14) . . ?
O1 V1 O2 107.14(14) . 3 ?
O1 V1 O2 107.14(14) . 2 ?
O1 V1 O2 107.14(14) . 4 ?
H1A N1 H1B 109.3 . . ?
H1A N1 H1C 109.0 . . ?
H1A N1 H1D 106.3 . . ?
H1B N1 H1C 109.4 . . ?
H1B N1 H1D 111.5 . . ?
H1C N1 H1D 111.3 . . ?
V2 O2 V1 141.5(3) . . ?
V2 O3 V2 138.4(4) 2_545 . ?
loop_
_geom_bond_atom_site_label_1
_geom_bond_atom_site_label_2
_geom_bond_distance
_geom_bond_site_symmetry_2
_geom_bond_publ_flag
V2 O2 1.706(4) . ?
V2 O2 1.706(4) 7_445 ?
V2 O4 1.638(5) . ?
V2 O3 1.792(3) . ?
V1 O2 1.961(4) 2 ?
V1 O2 1.961(4) . ?
V1 O2 1.961(4) 3 ?
V1 O2 1.961(4) 4 ?
V1 O1 1.597(8) . ?
N1 H1A 0.9100 . ?
N1 H1B 0.9050 . ?
N1 H1C 0.9162 . ?
N1 H1D 0.90(3) . ?
O3 V2 1.792(3) 2_545 ?
loop_
_geom_torsion_atom_site_label_1
_geom_torsion_atom_site_label_2
_geom_torsion_atom_site_label_3
_geom_torsion_atom_site_label_4
_geom_torsion
_geom_torsion_site_symmetry_1
_geom_torsion_site_symmetry_2
_geom_torsion_site_symmetry_3
_geom_torsion_site_symmetry_4
_geom_torsion_publ_flag
O2 V2 O2 V1 134.7(2) 7_445 . . . ?
O2 V2 O3 V2 121.09(17) . . . 2_545 ?
O2 V2 O3 V2 -121.09(17) 7_445 . . 2_545 ?
O4 V2 O2 V1 11.6(5) . . . . ?
O4 V2 O3 V2 0.000(2) . . . 2_545 ?
O3 V2 O2 V1 -108.4(4) . . . . ?
loop_
_twin_individual_id
_twin_individual_mass_fraction_refined
1 0.80(9)
2 0.20(9)
