#------------------------------------------------------------------------------
#$Date: 2020-10-06 11:44:47 +0300 (Tue, 06 Oct 2020) $
#$Revision: 257530 $
#$URL: file:///home/coder/svn-repositories/cod/cif/7/70/47/7704781.cif $
#------------------------------------------------------------------------------
#
# This file is available in the Crystallography Open Database (COD),
# http://www.crystallography.net/
#
# All data on this site have been placed in the public domain by the
# contributors.
#
data_7704781
loop_
_publ_author_name
'Yao, Zhi-Yuan'
'Zhang, Guo-Qin'
'Yao, Wan-Wan'
'Wang, Xiao-Zu'
'Qian, Yin'
'Ren, Xiao-Ming'
_publ_section_title
;
 Uniaxial thermal expansion behaviors and ionic conduction in a layered
 (NH<sub>4</sub>)<sub>2</sub>V<sub>3</sub>O<sub>8</sub>.
;
_journal_issue                   30
_journal_name_full
'Dalton transactions (Cambridge, England : 2003)'
_journal_page_first              10638
_journal_page_last               10644
_journal_paper_doi               10.1039/d0dt01833c
_journal_volume                  49
_journal_year                    2020
_chemical_formula_moiety         'O8 V3, 0.5(H16 N4)'
_chemical_formula_sum            'H8 N2 O8 V3'
_chemical_formula_weight         316.90
_space_group_crystal_system      tetragonal
_space_group_IT_number           100
_space_group_name_Hall           'P 4 -2ab'
_space_group_name_H-M_alt        'P 4 b m'
_atom_sites_solution_hydrogens   difmap
_audit_creation_date             2019-11-28
_audit_creation_method
;
Olex2 1.3
(compiled 2019.09.11 svn.r3662 for OlexSys, GUI svn.r5938)
;
_audit_update_record
;
2020-05-19 deposited with the CCDC.	2020-07-07 downloaded from the CCDC.
;
_cell_angle_alpha                90
_cell_angle_beta                 90
_cell_angle_gamma                90
_cell_formula_units_Z            2
_cell_length_a                   8.8551(3)
_cell_length_b                   8.8551(3)
_cell_length_c                   5.5652(5)
_cell_measurement_reflns_used    2547
_cell_measurement_temperature    110.0
_cell_measurement_theta_max      27.517
_cell_measurement_theta_min      4.604
_cell_volume                     436.38(4)
_computing_cell_refinement       'SAINT V8.38A (?, 2016)'
_computing_data_reduction        'SAINT V8.38A (?, 2016)'
_computing_molecular_graphics    'Olex2 1.3 (Dolomanov et al., 2009)'
_computing_publication_material  'Olex2 1.3 (Dolomanov et al., 2009)'
_computing_structure_refinement  'ShelXL 2014/7 (Sheldrick, 2015)'
_diffrn_ambient_temperature      110.0
_diffrn_measured_fraction_theta_full 0.996
_diffrn_measured_fraction_theta_max 0.997
_diffrn_measurement_device_type  'CCD area detector'
_diffrn_measurement_method       'phi and omega scans'
_diffrn_radiation_monochromator  graphite
_diffrn_radiation_type           MoK\a
_diffrn_radiation_wavelength     0.71073
_diffrn_reflns_av_R_equivalents  0.0559
_diffrn_reflns_av_unetI/netI     0.0375
_diffrn_reflns_Laue_measured_fraction_full 0.996
_diffrn_reflns_Laue_measured_fraction_max 0.997
_diffrn_reflns_limit_h_max       11
_diffrn_reflns_limit_h_min       -11
_diffrn_reflns_limit_k_max       11
_diffrn_reflns_limit_k_min       -11
_diffrn_reflns_limit_l_max       7
_diffrn_reflns_limit_l_min       -7
_diffrn_reflns_number            4284
_diffrn_reflns_point_group_measured_fraction_full 0.995
_diffrn_reflns_point_group_measured_fraction_max 0.996
_diffrn_reflns_theta_full        25.242
_diffrn_reflns_theta_max         27.575
_diffrn_reflns_theta_min         3.254
_exptl_absorpt_coefficient_mu    3.164
_exptl_absorpt_correction_T_max  0.7455
_exptl_absorpt_correction_T_min  0.5477
_exptl_absorpt_correction_type   multi-scan
_exptl_absorpt_process_details
'SADABS-2016/2 (Bruker,2016/2) was used for absorption correction. wR2(int) was 0.1216 before and 0.0788 after correction. The Ratio of minimum to maximum transmission is 0.7347. The \l/2 correction factor is Not present.'
_exptl_crystal_colour            'metallic dark black'
_exptl_crystal_colour_lustre     metallic
_exptl_crystal_colour_modifier   dark
_exptl_crystal_colour_primary    black
_exptl_crystal_density_diffrn    2.412
_exptl_crystal_description       plate
_exptl_crystal_F_000             310
_refine_diff_density_max         0.501
_refine_diff_density_min         -0.426
_refine_diff_density_rms         0.102
_refine_ls_abs_structure_details
;
 Flack x determined using 217 quotients [(I+)-(I-)]/[(I+)+(I-)]
 (Parsons, Flack and Wagner, Acta Cryst. B69 (2013) 249-259).
;
_refine_ls_abs_structure_Flack   0.01(4)
_refine_ls_extinction_method     none
_refine_ls_goodness_of_fit_ref   1.145
_refine_ls_hydrogen_treatment    constr
_refine_ls_matrix_type           full
_refine_ls_number_parameters     39
_refine_ls_number_reflns         556
_refine_ls_number_restraints     4
_refine_ls_restrained_S_all      1.141
_refine_ls_R_factor_all          0.0362
_refine_ls_R_factor_gt           0.0335
_refine_ls_shift/su_max          0.000
_refine_ls_shift/su_mean         0.000
_refine_ls_structure_factor_coef Fsqd
_refine_ls_weighting_details
'w=1/[\s^2^(Fo^2^)+1.3754P] where P=(Fo^2^+2Fc^2^)/3'
_refine_ls_weighting_scheme      calc
_refine_ls_wR_factor_gt          0.0671
_refine_ls_wR_factor_ref         0.0685
_reflns_Friedel_coverage         0.818
_reflns_Friedel_fraction_full    0.995
_reflns_Friedel_fraction_max     0.996
_reflns_number_gt                532
_reflns_number_total             556
_reflns_threshold_expression     'I > 2\s(I)'
_cod_data_source_file            d0dt01833c2.cif
_cod_data_source_block           110k
_cod_depositor_comments
;Adding full bibliography for 7704781--7704792.cif.

 Adding full bibliography for 7704781--7704792.cif.
;
_cod_original_cell_volume        436.38(5)
_cod_database_code               7704781
_shelx_shelxl_version_number     2014/7
_shelx_space_group_comment
;
The symmetry employed for this shelxl refinement is uniquely defined
by the following loop, which should always be used as a source of
symmetry information in preference to the above space-group names.
They are only intended as comments.
;
_olex2_refinement_description
;
1. Twinned data refinement
 Scales: 0.79(9)
 0.21(9)
2. Fixed Uiso
 At 1.2 times of:
  All N(H,H,H,H) groups
3. Restrained distances
 N1-H1C \\sim N1-H1B \\sim N1-H1A
 with sigma of 0.02
4. Others
 Fixed Sof: H1B(0.5) H1C(0.5)
5.a Riding coordinates:
 N1(H1A,H1B,H1C), N1(H1D)
;
_shelx_res_file
;
    110k.res created by SHELXL-2014/7

TITL 110K in P4bm
CELL 0.71073 8.8551 8.8551 5.5652 90 90 90
ZERR 2 0.0003 0.0003 0.0005 0 0 0
LATT -1
SYMM -X,-Y,+Z
SYMM -Y,+X,+Z
SYMM +Y,-X,+Z
SYMM 0.5+X,0.5-Y,+Z
SYMM 0.5-X,0.5+Y,+Z
SYMM 0.5-Y,0.5-X,+Z
SYMM 0.5+Y,0.5+X,+Z
SFAC H N O V
UNIT 16 4 16 6
SADI N1 H1c N1 H1b N1 H1a

L.S. 10
PLAN  1
TEMP -163.15
CONF
MORE -1
BOND $H
fmap 2
acta
TWIN 1 0 0 0 -1 0 0 0 -1 2
REM <olex2.extras>
REM <HklSrc "%110K.hkl">
REM </olex2.extras>

WGHT    0.000000    1.375400
BASF   0.20817
FVAR       0.78143
V2    4   -0.133232   -0.633232   -0.858429    10.50000    0.00917    0.00917 =
         0.01019   -0.00240   -0.00240    0.00176
V1    4    0.000000   -1.000000   -0.861801    10.25000    0.00852    0.00852 =
         0.02082    0.00000    0.00000    0.00000
O1    3    0.000000   -1.000000   -0.573952    10.25000    0.02268    0.02268 =
         0.01975    0.00000    0.00000    0.00000
O3    3    0.000000   -0.500000   -0.973107    10.25000    0.02795    0.02795 =
         0.01362    0.00000    0.00000   -0.00968
O2    3   -0.085330   -0.806771   -0.966022    11.00000    0.03630    0.01615 =
         0.02764   -0.01004   -0.01676    0.01511
O4    3   -0.130076   -0.630076   -0.564286    10.50000    0.01778    0.01778 =
         0.00744   -0.00059   -0.00059   -0.00538
N1    2   -0.329101   -0.829101   -0.327326    10.50000    0.01924    0.01924 =
         0.01041    0.00151    0.00151   -0.00652
AFIX   3
H1A   1   -0.382451   -0.882450   -0.438336    10.50000   -1.20000
H1B   1   -0.275251   -0.894020   -0.233716    10.50000   -1.20000
H1C   1   -0.393911   -0.775360   -0.233716    10.50000   -1.20000
AFIX   3
H1D   1   -0.263421   -0.763420   -0.404906    10.50000   -1.20000
AFIX   0
HKLF 4

REM  110K in P4bm
REM R1 =  0.0335 for     532 Fo > 4sig(Fo)  and  0.0362 for all     556 data
REM     39 parameters refined using      4 restraints

END

WGHT      0.0000      1.3754

REM Highest difference peak  0.501,  deepest hole -0.426,  1-sigma level  0.102
Q1    1  -0.0428 -0.6453 -0.8576  11.00000  0.05    0.50
;
_shelx_res_checksum              97881
_olex2_submission_special_instructions 'No special instructions were received'
loop_
_space_group_symop_operation_xyz
'x, y, z'
'-x, -y, z'
'-y, x, z'
'y, -x, z'
'x+1/2, -y+1/2, z'
'-x+1/2, y+1/2, z'
'-y+1/2, -x+1/2, z'
'y+1/2, x+1/2, z'
loop_
_atom_site_label
_atom_site_type_symbol
_atom_site_fract_x
_atom_site_fract_y
_atom_site_fract_z
_atom_site_U_iso_or_equiv
_atom_site_adp_type
_atom_site_occupancy
_atom_site_site_symmetry_order
_atom_site_calc_flag
_atom_site_refinement_flags_posn
_atom_site_refinement_flags_adp
_atom_site_refinement_flags_occupancy
_atom_site_disorder_assembly
_atom_site_disorder_group
V2 V -0.13323(8) -0.63323(8) -0.8584(3) 0.0095(3) Uani 1 2 d S T P . .
V1 V 0.0000 -1.0000 -0.8618(5) 0.0126(4) Uani 1 4 d S T P . .
O1 O 0.0000 -1.0000 -0.5740(16) 0.0217(18) Uani 1 4 d S T P . .
O3 O 0.0000 -0.5000 -0.9731(15) 0.023(2) Uani 1 4 d S T P . .
O2 O -0.0853(5) -0.8068(5) -0.9660(9) 0.0267(10) Uani 1 1 d . . . . .
O4 O -0.1301(4) -0.6301(4) -0.5643(10) 0.0143(11) Uani 1 2 d S T P . .
N1 N -0.3291(5) -0.8291(5) -0.3273(14) 0.0163(15) Uani 1 2 d DS T P . .
H1A H -0.3825 -0.8825 -0.4383 0.020 Uiso 1 2 d DR U P . .
H1B H -0.2753 -0.8940 -0.2337 0.020 Uiso 0.5 1 d DR U P . .
H1C H -0.3939 -0.7754 -0.2337 0.020 Uiso 0.5 1 d DR U P . .
H1D H -0.2634 -0.7634 -0.4049 0.020 Uiso 1 2 d R U P . .
loop_
_atom_site_aniso_label
_atom_site_aniso_U_11
_atom_site_aniso_U_22
_atom_site_aniso_U_33
_atom_site_aniso_U_23
_atom_site_aniso_U_13
_atom_site_aniso_U_12
V2 0.0092(3) 0.0092(3) 0.0102(5) -0.0024(6) -0.0024(6) 0.0018(4)
V1 0.0085(4) 0.0085(4) 0.0208(8) 0.000 0.000 0.000
O1 0.023(3) 0.023(3) 0.020(4) 0.000 0.000 0.000
O3 0.028(3) 0.028(3) 0.014(4) 0.000 0.000 -0.010(4)
O2 0.036(3) 0.016(2) 0.028(2) -0.0100(18) -0.017(2) 0.015(2)
O4 0.0178(18) 0.0178(18) 0.007(2) -0.0006(15) -0.0006(15) -0.005(2)
N1 0.0192(18) 0.0192(18) 0.010(4) 0.002(2) 0.002(2) -0.007(2)
loop_
_atom_type_symbol
_atom_type_description
_atom_type_scat_dispersion_real
_atom_type_scat_dispersion_imag
_atom_type_scat_source
H H 0.0000 0.0000 'International Tables Vol C Tables 4.2.6.8 and 6.1.1.4'
N N 0.0061 0.0033 'International Tables Vol C Tables 4.2.6.8 and 6.1.1.4'
O O 0.0106 0.0060 'International Tables Vol C Tables 4.2.6.8 and 6.1.1.4'
V V 0.3005 0.5294 'International Tables Vol C Tables 4.2.6.8 and 6.1.1.4'
loop_
_geom_angle_atom_site_label_1
_geom_angle_atom_site_label_2
_geom_angle_atom_site_label_3
_geom_angle
_geom_angle_site_symmetry_1
_geom_angle_site_symmetry_3
_geom_angle_publ_flag
O2 V2 O3 107.8(3) 8_545 . ?
O2 V2 O3 107.8(3) . . ?
O2 V2 O2 109.0(3) . 8_545 ?
O4 V2 O3 109.5(3) . . ?
O4 V2 O2 111.3(2) . 8_545 ?
O4 V2 O2 111.3(2) . . ?
O1 V1 O2 107.23(16) . 3_445 ?
O1 V1 O2 107.23(16) . . ?
O1 V1 O2 107.23(16) . 2_535 ?
O1 V1 O2 107.23(16) . 4_645 ?
O2 V1 O2 84.97(9) 3_445 2_535 ?
O2 V1 O2 145.5(3) 2_535 . ?
O2 V1 O2 84.97(9) 4_645 . ?
O2 V1 O2 145.5(3) 3_445 4_645 ?
O2 V1 O2 84.97(9) 3_445 . ?
O2 V1 O2 84.97(9) 4_645 2_535 ?
V2 O3 V2 138.1(5) . 2_545 ?
V2 O2 V1 141.3(3) . . ?
H1A N1 H1B 109.4 . . ?
H1A N1 H1C 109.4 . . ?
H1A N1 H1D 109.5 . . ?
H1B N1 H1C 109.5 . . ?
H1B N1 H1D 109.5 . . ?
H1C N1 H1D 109.5 . . ?
loop_
_geom_bond_atom_site_label_1
_geom_bond_atom_site_label_2
_geom_bond_distance
_geom_bond_site_symmetry_2
_geom_bond_publ_flag
V2 O3 1.786(3) . ?
V2 O2 1.703(4) . ?
V2 O2 1.703(4) 8_545 ?
V2 O4 1.637(6) . ?
V1 O1 1.602(9) . ?
V1 O2 1.958(4) 2_535 ?
V1 O2 1.958(4) 3_445 ?
V1 O2 1.958(4) . ?
V1 O2 1.958(4) 4_645 ?
O3 V2 1.786(3) 2_545 ?
N1 H1A 0.9100 . ?
N1 H1B 0.9106 . ?
N1 H1C 0.9095 . ?
N1 H1D 0.9289 . ?
loop_
_geom_torsion_atom_site_label_1
_geom_torsion_atom_site_label_2
_geom_torsion_atom_site_label_3
_geom_torsion_atom_site_label_4
_geom_torsion
_geom_torsion_site_symmetry_1
_geom_torsion_site_symmetry_2
_geom_torsion_site_symmetry_3
_geom_torsion_site_symmetry_4
_geom_torsion_publ_flag
O3 V2 O2 V1 108.5(5) . . . . ?
O2 V2 O3 V2 -121.22(19) . . . 2_545 ?
O2 V2 O3 V2 121.22(19) 8_545 . . 2_545 ?
O2 V2 O2 V1 -134.7(3) 8_545 . . . ?
O4 V2 O3 V2 0.000(1) . . . 2_545 ?
O4 V2 O2 V1 -11.6(6) . . . . ?
loop_
_twin_individual_id
_twin_individual_mass_fraction_refined
1 0.79(9)
2 0.21(9)
