#------------------------------------------------------------------------------
#$Date: 2020-10-06 11:44:47 +0300 (Tue, 06 Oct 2020) $
#$Revision: 257530 $
#$URL: file:///home/coder/svn-repositories/cod/cif/7/70/47/7704782.cif $
#------------------------------------------------------------------------------
#
# This file is available in the Crystallography Open Database (COD),
# http://www.crystallography.net/
#
# All data on this site have been placed in the public domain by the
# contributors.
#
data_7704782
loop_
_publ_author_name
'Yao, Zhi-Yuan'
'Zhang, Guo-Qin'
'Yao, Wan-Wan'
'Wang, Xiao-Zu'
'Qian, Yin'
'Ren, Xiao-Ming'
_publ_section_title
;
 Uniaxial thermal expansion behaviors and ionic conduction in a layered
 (NH<sub>4</sub>)<sub>2</sub>V<sub>3</sub>O<sub>8</sub>.
;
_journal_issue                   30
_journal_name_full
'Dalton transactions (Cambridge, England : 2003)'
_journal_page_first              10638
_journal_page_last               10644
_journal_paper_doi               10.1039/d0dt01833c
_journal_volume                  49
_journal_year                    2020
_chemical_absolute_configuration rmad
_chemical_formula_moiety         'O8 V3, 0.5(H16 N4)'
_chemical_formula_sum            'H8 N2 O8 V3'
_chemical_formula_weight         316.90
_space_group_crystal_system      tetragonal
_space_group_IT_number           100
_space_group_name_Hall           'P 4 -2ab'
_space_group_name_H-M_alt        'P 4 b m'
_atom_sites_solution_hydrogens   difmap
_atom_sites_solution_primary     iterative
_audit_creation_date             2019-11-25
_audit_creation_method
;
Olex2 1.3
(compiled 2019.09.11 svn.r3662 for OlexSys, GUI svn.r5938)
;
_audit_update_record
;
2020-05-20 deposited with the CCDC.	2020-07-07 downloaded from the CCDC.
;
_cell_angle_alpha                90
_cell_angle_beta                 90
_cell_angle_gamma                90
_cell_formula_units_Z            2
_cell_length_a                   8.8895(4)
_cell_length_b                   8.8895(4)
_cell_length_c                   5.5731(6)
_cell_measurement_reflns_used    2541
_cell_measurement_temperature    300.0
_cell_measurement_theta_max      27.418
_cell_measurement_theta_min      4.586
_cell_volume                     440.40(6)
_computing_cell_refinement       'SAINT V8.38A (?, 2016)'
_computing_data_reduction        'SAINT V8.38A (?, 2016)'
_computing_molecular_graphics    'Olex2 1.3 (Dolomanov et al., 2009)'
_computing_publication_material  'Olex2 1.3 (Dolomanov et al., 2009)'
_computing_structure_refinement  'ShelXL 2014/7 (Sheldrick, 2015)'
_computing_structure_solution    'olex2.solve 1.3 (Bourhis et al., 2015)'
_diffrn_ambient_temperature      300.0
_diffrn_measured_fraction_theta_full 0.996
_diffrn_measured_fraction_theta_max 0.997
_diffrn_measurement_device_type  'CCD area detector'
_diffrn_measurement_method       'phi and omega scans'
_diffrn_radiation_monochromator  graphite
_diffrn_radiation_type           MoK\a
_diffrn_radiation_wavelength     0.71073
_diffrn_reflns_av_R_equivalents  0.0543
_diffrn_reflns_av_unetI/netI     0.0366
_diffrn_reflns_Laue_measured_fraction_full 0.996
_diffrn_reflns_Laue_measured_fraction_max 0.997
_diffrn_reflns_limit_h_max       11
_diffrn_reflns_limit_h_min       -11
_diffrn_reflns_limit_k_max       11
_diffrn_reflns_limit_k_min       -11
_diffrn_reflns_limit_l_max       7
_diffrn_reflns_limit_l_min       -7
_diffrn_reflns_number            4245
_diffrn_reflns_point_group_measured_fraction_full 0.996
_diffrn_reflns_point_group_measured_fraction_max 0.996
_diffrn_reflns_theta_full        25.242
_diffrn_reflns_theta_max         27.416
_diffrn_reflns_theta_min         3.241
_exptl_absorpt_coefficient_mu    3.135
_exptl_absorpt_correction_T_max  0.7455
_exptl_absorpt_correction_T_min  0.5676
_exptl_absorpt_correction_type   multi-scan
_exptl_absorpt_process_details
'SADABS-2016/2 (Bruker,2016/2) was used for absorption correction. wR2(int) was 0.1208 before and 0.0775 after correction. The Ratio of minimum to maximum transmission is 0.7614. The \l/2 correction factor is Not present.'
_exptl_crystal_colour            'metallic dark red'
_exptl_crystal_colour_lustre     metallic
_exptl_crystal_colour_modifier   dark
_exptl_crystal_colour_primary    red
_exptl_crystal_density_diffrn    2.390
_exptl_crystal_description       plate
_exptl_crystal_F_000             310
_refine_diff_density_max         0.504
_refine_diff_density_min         -0.437
_refine_diff_density_rms         0.101
_refine_ls_abs_structure_details
;
 Flack x determined using 222 quotients [(I+)-(I-)]/[(I+)+(I-)]
 (Parsons, Flack and Wagner, Acta Cryst. B69 (2013) 249-259).
;
_refine_ls_abs_structure_Flack   -0.30(4)
_refine_ls_extinction_method     none
_refine_ls_goodness_of_fit_ref   1.113
_refine_ls_hydrogen_treatment    constr
_refine_ls_matrix_type           full
_refine_ls_number_parameters     38
_refine_ls_number_reflns         556
_refine_ls_number_restraints     1
_refine_ls_restrained_S_all      1.112
_refine_ls_R_factor_all          0.0379
_refine_ls_R_factor_gt           0.0338
_refine_ls_shift/su_max          0.000
_refine_ls_shift/su_mean         0.000
_refine_ls_structure_factor_coef Fsqd
_refine_ls_weighting_details
'w=1/[\s^2^(Fo^2^)+(0.0147P)^2^+1.4411P] where P=(Fo^2^+2Fc^2^)/3'
_refine_ls_weighting_scheme      calc
_refine_ls_wR_factor_gt          0.0702
_refine_ls_wR_factor_ref         0.0725
_reflns_Friedel_coverage         0.818
_reflns_Friedel_fraction_full    0.995
_reflns_Friedel_fraction_max     0.996
_reflns_number_gt                526
_reflns_number_total             556
_reflns_threshold_expression     'I > 2\s(I)'
_cod_data_source_file            d0dt01833c2.cif
_cod_data_source_block           300k-1
_cod_depositor_comments
;Adding full bibliography for 7704781--7704792.cif.

 Adding full bibliography for 7704781--7704792.cif.
;
_cod_database_code               7704782
_shelx_shelxl_version_number     2014/7
_shelx_space_group_comment
;
The symmetry employed for this shelxl refinement is uniquely defined
by the following loop, which should always be used as a source of
symmetry information in preference to the above space-group names.
They are only intended as comments.
;
_olex2_refinement_description
;
1. Fixed Uiso
 At 1.2 times of:
  All N(H,H,H,H) groups
2. Others
 Fixed Sof: H1B(0.5) H1C(0.5)
3.a Riding coordinates:
 N1(H1A,H1B,H1C), N1(H1D)
;
_shelx_res_file
;
    300k-1.res created by SHELXL-2014/7

TITL 300K-1 in P4bm
CELL 0.71073 8.8895 8.8895 5.5731 90 90 90
ZERR 2 0.0004 0.0004 0.0006 0 0 0
LATT -1
SYMM -X,-Y,+Z
SYMM -Y,+X,+Z
SYMM +Y,-X,+Z
SYMM 0.5+X,0.5-Y,+Z
SYMM 0.5-X,0.5+Y,+Z
SYMM 0.5-Y,0.5-X,+Z
SYMM 0.5+Y,0.5+X,+Z
SFAC H N O V
UNIT 16 4 16 6

L.S. 4
PLAN  1
TEMP 26.85
CONF
BOND
fmap 2
acta
MORE -1
BOND $H
TWIN 1 0 0 0 -1 0 0 0 -1 2
REM <olex2.extras>
REM <HklSrc "%.\\300K-1.hkl">
REM </olex2.extras>

WGHT    0.014700    1.441100
FVAR       0.84229
V2    4    0.633485    0.133485    0.218601    10.50000    0.00848    0.00848 =
         0.01688   -0.00010   -0.00010    0.00037
N1    2    0.830074    0.330074    0.748492    10.50000    0.03437    0.03437 =
         0.01714   -0.00325   -0.00325   -0.01513
AFIX   3
H1A   1    0.882034    0.382030    0.640052    10.50000   -1.20000
H1B   1    0.777594    0.393090    0.839902    10.50000   -1.20000
H1C   1    0.893204    0.277480    0.839902    10.50000   -1.20000
AFIX   3
H1D   1    0.766014    0.266010    0.672432    10.50000   -1.20000
AFIX   0

O4    3    0.630462    0.130462    0.511726    10.50000    0.02746    0.02746 =
         0.01261   -0.00170   -0.00170   -0.00362
V1    4    1.000000    0.000000    0.215267    10.25000    0.00902    0.00902 =
         0.01898    0.00000    0.00000    0.00000
O3    3    0.500000    0.000000    0.103944    10.25000    0.01629    0.01629 =
         0.02447    0.00000    0.00000   -0.00724
O1    3    1.000000    0.000000    0.502103    10.25000    0.03489    0.03489 =
         0.01728    0.00000    0.00000    0.00000
O2    3    0.806947    0.085518    0.112011    11.00000    0.01156    0.01960 =
         0.03654    0.00286    0.00248    0.00540
HKLF 4

REM  300K-1 in P4bm
REM R1 =  0.0338 for     526 Fo > 4sig(Fo)  and  0.0379 for all     556 data
REM     38 parameters refined using      1 restraints

END

WGHT      0.0147      1.4411

REM Highest difference peak  0.504,  deepest hole -0.437,  1-sigma level  0.101
Q1    1   0.6349  0.2238  0.2191  11.00000  0.05    0.50
;
_shelx_res_checksum              33080
_olex2_submission_special_instructions 'No special instructions were received'
loop_
_space_group_symop_operation_xyz
'x, y, z'
'-x, -y, z'
'-y, x, z'
'y, -x, z'
'x+1/2, -y+1/2, z'
'-x+1/2, y+1/2, z'
'-y+1/2, -x+1/2, z'
'y+1/2, x+1/2, z'
loop_
_atom_site_label
_atom_site_type_symbol
_atom_site_fract_x
_atom_site_fract_y
_atom_site_fract_z
_atom_site_U_iso_or_equiv
_atom_site_adp_type
_atom_site_occupancy
_atom_site_site_symmetry_order
_atom_site_calc_flag
_atom_site_refinement_flags_posn
_atom_site_refinement_flags_adp
_atom_site_refinement_flags_occupancy
_atom_site_disorder_assembly
_atom_site_disorder_group
V2 V 0.63349(8) 0.13349(8) 0.2186(4) 0.0113(3) Uani 1 2 d S T P . .
N1 N 0.8301(5) 0.3301(5) 0.7485(17) 0.0286(19) Uani 1 2 d S T P . .
H1A H 0.8820 0.3820 0.6401 0.034 Uiso 1 2 d R U P . .
H1B H 0.7776 0.3931 0.8399 0.034 Uiso 0.5 1 d R U P . .
H1C H 0.8932 0.2775 0.8399 0.034 Uiso 0.5 1 d R U P . .
H1D H 0.7660 0.2660 0.6724 0.034 Uiso 1 2 d R U P . .
O4 O 0.6305(5) 0.1305(5) 0.5117(11) 0.0225(13) Uani 1 2 d S T P . .
V1 V 1.0000 0.0000 0.2153(5) 0.0123(4) Uani 1 4 d S T P . .
O3 O 0.5000 0.0000 0.1039(15) 0.0190(18) Uani 1 4 d S T P . .
O1 O 1.0000 0.0000 0.5021(16) 0.029(2) Uani 1 4 d S T P . .
O2 O 0.8069(5) 0.0855(5) 0.1120(9) 0.0226(9) Uani 1 1 d . . . . .
loop_
_atom_site_aniso_label
_atom_site_aniso_U_11
_atom_site_aniso_U_22
_atom_site_aniso_U_33
_atom_site_aniso_U_23
_atom_site_aniso_U_13
_atom_site_aniso_U_12
V2 0.0085(3) 0.0085(3) 0.0169(5) -0.0001(7) -0.0001(7) 0.0004(4)
N1 0.034(2) 0.034(2) 0.017(5) -0.003(2) -0.003(2) -0.015(3)
O4 0.027(2) 0.027(2) 0.013(3) -0.0017(18) -0.0017(18) -0.004(3)
V1 0.0090(4) 0.0090(4) 0.0190(8) 0.000 0.000 0.000
O3 0.016(3) 0.016(3) 0.024(5) 0.000 0.000 -0.007(3)
O1 0.035(3) 0.035(3) 0.017(5) 0.000 0.000 0.000
O2 0.012(2) 0.020(2) 0.037(2) 0.0029(19) 0.0025(18) 0.0054(17)
loop_
_atom_type_symbol
_atom_type_description
_atom_type_scat_dispersion_real
_atom_type_scat_dispersion_imag
_atom_type_scat_source
H H 0.0000 0.0000 'International Tables Vol C Tables 4.2.6.8 and 6.1.1.4'
N N 0.0061 0.0033 'International Tables Vol C Tables 4.2.6.8 and 6.1.1.4'
O O 0.0106 0.0060 'International Tables Vol C Tables 4.2.6.8 and 6.1.1.4'
V V 0.3005 0.5294 'International Tables Vol C Tables 4.2.6.8 and 6.1.1.4'
loop_
_geom_angle_atom_site_label_1
_geom_angle_atom_site_label_2
_geom_angle_atom_site_label_3
_geom_angle
_geom_angle_site_symmetry_1
_geom_angle_site_symmetry_3
_geom_angle_publ_flag
O4 V2 O3 109.5(3) . . ?
O4 V2 O2 111.0(2) . . ?
O4 V2 O2 111.0(2) . 8_545 ?
O2 V2 O3 107.9(2) . . ?
O2 V2 O3 107.9(2) 8_545 . ?
O2 V2 O2 109.3(3) . 8_545 ?
H1A N1 H1B 109.5 . . ?
H1A N1 H1C 109.5 . . ?
H1A N1 H1D 109.5 . . ?
H1B N1 H1C 109.5 . . ?
H1B N1 H1D 109.4 . . ?
H1C N1 H1D 109.4 . . ?
O1 V1 O2 107.05(16) . 3_645 ?
O1 V1 O2 107.04(16) . . ?
O1 V1 O2 107.05(16) . 4_665 ?
O1 V1 O2 107.05(16) . 2_755 ?
O2 V1 O2 145.9(3) 2_755 . ?
O2 V1 O2 85.07(9) 3_645 . ?
O2 V1 O2 85.07(9) 4_665 . ?
O2 V1 O2 145.9(3) 3_645 4_665 ?
O2 V1 O2 85.07(9) 3_645 2_755 ?
O2 V1 O2 85.07(9) 4_665 2_755 ?
V2 O3 V2 138.3(5) . 2_655 ?
V2 O2 V1 141.7(3) . . ?
loop_
_geom_bond_atom_site_label_1
_geom_bond_atom_site_label_2
_geom_bond_distance
_geom_bond_site_symmetry_2
_geom_bond_publ_flag
V2 O4 1.634(6) . ?
V2 O3 1.796(3) . ?
V2 O2 1.707(4) . ?
V2 O2 1.707(4) 8_545 ?
N1 H1A 0.8899 . ?
N1 H1B 0.8894 . ?
N1 H1C 0.8905 . ?
N1 H1D 0.9101 . ?
V1 O1 1.599(9) . ?
V1 O2 1.963(4) . ?
V1 O2 1.963(4) 2_755 ?
V1 O2 1.963(4) 3_645 ?
V1 O2 1.963(4) 4_665 ?
O3 V2 1.796(3) 2_655 ?
loop_
_geom_torsion_atom_site_label_1
_geom_torsion_atom_site_label_2
_geom_torsion_atom_site_label_3
_geom_torsion_atom_site_label_4
_geom_torsion
_geom_torsion_site_symmetry_1
_geom_torsion_site_symmetry_2
_geom_torsion_site_symmetry_3
_geom_torsion_site_symmetry_4
_geom_torsion_publ_flag
O4 V2 O3 V2 0.000(1) . . . 2_655 ?
O4 V2 O2 V1 11.8(5) . . . . ?
O3 V2 O2 V1 -108.2(5) . . . . ?
O2 V2 O3 V2 121.0(2) . . . 2_655 ?
O2 V2 O3 V2 -121.0(2) 8_545 . . 2_655 ?
O2 V2 O2 V1 134.6(3) 8_545 . . . ?
