#------------------------------------------------------------------------------
#$Date: 2020-10-06 11:44:47 +0300 (Tue, 06 Oct 2020) $
#$Revision: 257530 $
#$URL: file:///home/coder/svn-repositories/cod/cif/7/70/47/7704783.cif $
#------------------------------------------------------------------------------
#
# This file is available in the Crystallography Open Database (COD),
# http://www.crystallography.net/
#
# All data on this site have been placed in the public domain by the
# contributors.
#
data_7704783
loop_
_publ_author_name
'Yao, Zhi-Yuan'
'Zhang, Guo-Qin'
'Yao, Wan-Wan'
'Wang, Xiao-Zu'
'Qian, Yin'
'Ren, Xiao-Ming'
_publ_section_title
;
 Uniaxial thermal expansion behaviors and ionic conduction in a layered
 (NH<sub>4</sub>)<sub>2</sub>V<sub>3</sub>O<sub>8</sub>.
;
_journal_issue                   30
_journal_name_full
'Dalton transactions (Cambridge, England : 2003)'
_journal_page_first              10638
_journal_page_last               10644
_journal_paper_doi               10.1039/d0dt01833c
_journal_volume                  49
_journal_year                    2020
_chemical_formula_moiety         'O8 V3, 0.5(H16 N4)'
_chemical_formula_sum            'H8 N2 O8 V3'
_chemical_formula_weight         316.90
_space_group_crystal_system      tetragonal
_space_group_IT_number           100
_space_group_name_Hall           'P 4 -2ab'
_space_group_name_H-M_alt        'P 4 b m'
_atom_sites_solution_hydrogens   difmap
_audit_creation_date             2019-11-25
_audit_creation_method
;
Olex2 1.3
(compiled 2019.09.11 svn.r3662 for OlexSys, GUI svn.r5938)
;
_audit_update_record
;
2020-05-21 deposited with the CCDC.	2020-07-07 downloaded from the CCDC.
;
_cell_angle_alpha                90
_cell_angle_beta                 90
_cell_angle_gamma                90
_cell_formula_units_Z            2
_cell_length_a                   8.8599(4)
_cell_length_b                   8.8599(4)
_cell_length_c                   5.5653(6)
_cell_measurement_reflns_used    2544
_cell_measurement_temperature    130.0
_cell_measurement_theta_max      27.502
_cell_measurement_theta_min      4.601
_cell_volume                     436.86(5)
_computing_cell_refinement       'SAINT V8.38A (?, 2016)'
_computing_data_reduction        'SAINT V8.38A (?, 2016)'
_computing_molecular_graphics    'Olex2 1.3 (Dolomanov et al., 2009)'
_computing_publication_material  'Olex2 1.3 (Dolomanov et al., 2009)'
_computing_structure_refinement  'ShelXL 2014/7 (Sheldrick, 2015)'
_diffrn_ambient_temperature      130.0
_diffrn_measured_fraction_theta_full 0.996
_diffrn_measured_fraction_theta_max 0.997
_diffrn_measurement_device_type  'CCD area detector'
_diffrn_measurement_method       'phi and omega scans'
_diffrn_radiation_monochromator  graphite
_diffrn_radiation_type           MoK\a
_diffrn_radiation_wavelength     0.71073
_diffrn_reflns_av_R_equivalents  0.0561
_diffrn_reflns_av_unetI/netI     0.0367
_diffrn_reflns_Laue_measured_fraction_full 0.996
_diffrn_reflns_Laue_measured_fraction_max 0.997
_diffrn_reflns_limit_h_max       11
_diffrn_reflns_limit_h_min       -11
_diffrn_reflns_limit_k_max       11
_diffrn_reflns_limit_k_min       -11
_diffrn_reflns_limit_l_max       7
_diffrn_reflns_limit_l_min       -7
_diffrn_reflns_number            4261
_diffrn_reflns_point_group_measured_fraction_full 0.995
_diffrn_reflns_point_group_measured_fraction_max 0.996
_diffrn_reflns_theta_full        25.242
_diffrn_reflns_theta_max         27.574
_diffrn_reflns_theta_min         3.252
_exptl_absorpt_coefficient_mu    3.161
_exptl_absorpt_correction_T_max  0.7455
_exptl_absorpt_correction_T_min  0.5489
_exptl_absorpt_correction_type   multi-scan
_exptl_absorpt_process_details
'SADABS-2016/2 (Bruker,2016/2) was used for absorption correction. wR2(int) was 0.1227 before and 0.0797 after correction. The Ratio of minimum to maximum transmission is 0.7363. The \l/2 correction factor is Not present.'
_exptl_crystal_colour            'metallic dark black'
_exptl_crystal_colour_lustre     metallic
_exptl_crystal_colour_modifier   dark
_exptl_crystal_colour_primary    black
_exptl_crystal_density_diffrn    2.409
_exptl_crystal_description       plate
_exptl_crystal_F_000             310
_refine_diff_density_max         0.514
_refine_diff_density_min         -0.427
_refine_diff_density_rms         0.102
_refine_ls_abs_structure_details
;
 Flack x determined using 217 quotients [(I+)-(I-)]/[(I+)+(I-)]
 (Parsons, Flack and Wagner, Acta Cryst. B69 (2013) 249-259).
;
_refine_ls_abs_structure_Flack   0.04(3)
_refine_ls_extinction_method     none
_refine_ls_goodness_of_fit_ref   1.168
_refine_ls_hydrogen_treatment    mixed
_refine_ls_matrix_type           full
_refine_ls_number_parameters     42
_refine_ls_number_reflns         555
_refine_ls_number_restraints     2
_refine_ls_restrained_S_all      1.166
_refine_ls_R_factor_all          0.0358
_refine_ls_R_factor_gt           0.0318
_refine_ls_shift/su_max          0.000
_refine_ls_shift/su_mean         0.000
_refine_ls_structure_factor_coef Fsqd
_refine_ls_weighting_details
'w=1/[\s^2^(Fo^2^)+1.2543P] where P=(Fo^2^+2Fc^2^)/3'
_refine_ls_weighting_scheme      calc
_refine_ls_wR_factor_gt          0.0651
_refine_ls_wR_factor_ref         0.0671
_reflns_Friedel_coverage         0.818
_reflns_Friedel_fraction_full    0.995
_reflns_Friedel_fraction_max     0.996
_reflns_number_gt                526
_reflns_number_total             555
_reflns_threshold_expression     'I > 2\s(I)'
_cod_data_source_file            d0dt01833c2.cif
_cod_data_source_block           130k
_cod_depositor_comments
;Adding full bibliography for 7704781--7704792.cif.

 Adding full bibliography for 7704781--7704792.cif.
;
_cod_original_cell_volume        436.86(6)
_cod_database_code               7704783
_shelx_shelxl_version_number     2014/7
_shelx_space_group_comment
;
The symmetry employed for this shelxl refinement is uniquely defined
by the following loop, which should always be used as a source of
symmetry information in preference to the above space-group names.
They are only intended as comments.
;
_olex2_refinement_description
;
1. Twinned data refinement
 Scales: 0.81(9)
 0.19(9)
2. Fixed Uiso
 At 1.2 times of:
  All N(H,H,H) groups
3. Restrained distances
 N1-H1D
 0.9 with sigma of 0.02
4. Others
 Fixed Sof: H1B(0.5) H1C(0.5)
5.a Riding coordinates:
 N1(H1A,H1B,H1C)
;
_shelx_res_file
;
    130k.res created by SHELXL-2014/7

TITL 130K in P4bm
CELL 0.71073 8.8599 8.8599 5.5653 90 90 90
ZERR 2 0.0004 0.0004 0.0006 0 0 0
LATT -1
SYMM -X,-Y,+Z
SYMM -Y,+X,+Z
SYMM +Y,-X,+Z
SYMM 0.5+X,0.5-Y,+Z
SYMM 0.5-X,0.5+Y,+Z
SYMM 0.5-Y,0.5-X,+Z
SYMM 0.5+Y,0.5+X,+Z
SFAC H N O V
UNIT 16 4 16 6
DFIX 0.9 N1 H1d

L.S. 20
PLAN  1
TEMP -143.15
CONF
MORE -1
BOND $H
fmap 2
acta
TWIN 1 0 0 0 -1 0 0 0 -1 2
REM <olex2.extras>
REM <HklSrc "%130K.hkl">
REM </olex2.extras>

WGHT    0.000000    1.254300
BASF   0.19279
FVAR       0.24699
V2    4   -0.366694   -0.133306   -0.495670    10.50000    0.00908    0.00908 =
         0.01066   -0.00195    0.00195   -0.00154
V1    4    0.000000    0.000000   -0.498841    10.25000    0.00836    0.00836 =
         0.01879    0.00000    0.00000    0.00000
O4    3   -0.370108   -0.129892   -0.201228    10.50000    0.01808    0.01808 =
         0.00776    0.00078   -0.00078    0.00508
O1    3    0.000000    0.000000   -0.210860    10.25000    0.02606    0.02606 =
         0.01638    0.00000    0.00000    0.00000
O3    3   -0.500000    0.000000   -0.610458    10.25000    0.02743    0.02743 =
         0.01143    0.00000    0.00000    0.01040
O2    3   -0.193315   -0.085228   -0.603017    11.00000    0.01444    0.03351 =
         0.02883   -0.01436    0.00803   -0.01354
N1    2   -0.170784   -0.329216    0.034844    10.50000    0.02122    0.02122 =
         0.00986    0.00025   -0.00025    0.00775
AFIX   3
H1A   1   -0.117403   -0.382600   -0.076096    10.50000   -1.20000
H1B   1   -0.106043   -0.275220    0.128454    10.50000   -1.20000
H1C   1   -0.224643   -0.393820    0.128454    10.50000   -1.20000
AFIX   0
H1D   1   -0.231683   -0.268317   -0.051247    10.50000    0.06404
HKLF 4

REM  130K in P4bm
REM R1 =  0.0318 for     526 Fo > 4sig(Fo)  and  0.0358 for all     555 data
REM     42 parameters refined using      2 restraints

END

WGHT      0.0000      1.2543

REM Highest difference peak  0.514,  deepest hole -0.427,  1-sigma level  0.102
Q1    1  -0.3693 -0.0430 -0.4952  11.00000  0.05    0.51
;
_shelx_res_checksum              11966
_olex2_submission_special_instructions 'No special instructions were received'
loop_
_space_group_symop_operation_xyz
'x, y, z'
'-x, -y, z'
'-y, x, z'
'y, -x, z'
'x+1/2, -y+1/2, z'
'-x+1/2, y+1/2, z'
'-y+1/2, -x+1/2, z'
'y+1/2, x+1/2, z'
loop_
_atom_site_label
_atom_site_type_symbol
_atom_site_fract_x
_atom_site_fract_y
_atom_site_fract_z
_atom_site_U_iso_or_equiv
_atom_site_adp_type
_atom_site_occupancy
_atom_site_site_symmetry_order
_atom_site_calc_flag
_atom_site_refinement_flags_posn
_atom_site_refinement_flags_adp
_atom_site_refinement_flags_occupancy
_atom_site_disorder_assembly
_atom_site_disorder_group
V2 V -0.36669(8) -0.13331(8) -0.4957(3) 0.0096(3) Uani 1 2 d S T P . .
V1 V 0.0000 0.0000 -0.4988(5) 0.0118(3) Uani 1 4 d S T P . .
O4 O -0.3701(4) -0.1299(4) -0.2012(10) 0.0146(11) Uani 1 2 d S T P . .
O1 O 0.0000 0.0000 -0.2109(16) 0.0228(19) Uani 1 4 d S T P . .
O3 O -0.5000 0.0000 -0.6105(14) 0.0221(19) Uani 1 4 d S T P . .
O2 O -0.1933(5) -0.0852(5) -0.6030(9) 0.0256(9) Uani 1 1 d . . . . .
N1 N -0.1708(5) -0.3292(5) 0.0348(15) 0.0174(15) Uani 1 2 d DS T P . .
H1A H -0.1174 -0.3826 -0.0761 0.021 Uiso 1 2 d R U P . .
H1B H -0.1060 -0.2752 0.1285 0.021 Uiso 0.5 1 d R U P . .
H1C H -0.2246 -0.3938 0.1285 0.021 Uiso 0.5 1 d R U P . .
H1D H -0.232(6) -0.268(6) -0.05(2) 0.06(4) Uiso 1 2 d DS . P . .
loop_
_atom_site_aniso_label
_atom_site_aniso_U_11
_atom_site_aniso_U_22
_atom_site_aniso_U_33
_atom_site_aniso_U_23
_atom_site_aniso_U_13
_atom_site_aniso_U_12
V2 0.0091(3) 0.0091(3) 0.0107(5) -0.0020(6) 0.0020(6) -0.0015(4)
V1 0.0084(4) 0.0084(4) 0.0188(8) 0.000 0.000 0.000
O4 0.0181(18) 0.0181(18) 0.008(2) 0.0008(15) -0.0008(15) 0.005(2)
O1 0.026(3) 0.026(3) 0.016(4) 0.000 0.000 0.000
O3 0.027(3) 0.027(3) 0.011(4) 0.000 0.000 0.010(4)
O2 0.014(2) 0.034(3) 0.029(2) -0.014(2) 0.0080(18) -0.0135(19)
N1 0.0212(18) 0.0212(18) 0.010(4) 0.000(2) 0.000(2) 0.008(2)
loop_
_atom_type_symbol
_atom_type_description
_atom_type_scat_dispersion_real
_atom_type_scat_dispersion_imag
_atom_type_scat_source
H H 0.0000 0.0000 'International Tables Vol C Tables 4.2.6.8 and 6.1.1.4'
N N 0.0061 0.0033 'International Tables Vol C Tables 4.2.6.8 and 6.1.1.4'
O O 0.0106 0.0060 'International Tables Vol C Tables 4.2.6.8 and 6.1.1.4'
V V 0.3005 0.5294 'International Tables Vol C Tables 4.2.6.8 and 6.1.1.4'
loop_
_geom_angle_atom_site_label_1
_geom_angle_atom_site_label_2
_geom_angle_atom_site_label_3
_geom_angle
_geom_angle_site_symmetry_1
_geom_angle_site_symmetry_3
_geom_angle_publ_flag
O4 V2 O3 109.4(3) . . ?
O4 V2 O2 111.3(2) . 7_445 ?
O4 V2 O2 111.3(2) . . ?
O2 V2 O3 107.8(2) . . ?
O2 V2 O3 107.8(2) 7_445 . ?
O2 V2 O2 109.2(3) 7_445 . ?
O1 V1 O2 107.21(16) . 3 ?
O1 V1 O2 107.21(16) . 4 ?
O1 V1 O2 107.21(16) . . ?
O1 V1 O2 107.21(16) . 2 ?
O2 V1 O2 84.98(9) . 3 ?
O2 V1 O2 145.6(3) 3 4 ?
O2 V1 O2 84.98(9) 2 4 ?
O2 V1 O2 145.6(3) . 2 ?
O2 V1 O2 84.98(9) . 4 ?
O2 V1 O2 84.98(9) 2 3 ?
V2 O3 V2 138.1(5) 2_455 . ?
V2 O2 V1 141.4(3) . . ?
H1A N1 H1B 109.5 . . ?
H1A N1 H1C 109.5 . . ?
H1A N1 H1D 105.2 . . ?
H1B N1 H1C 109.5 . . ?
H1B N1 H1D 111.5 . . ?
H1C N1 H1D 111.6 . . ?
loop_
_geom_bond_atom_site_label_1
_geom_bond_atom_site_label_2
_geom_bond_distance
_geom_bond_site_symmetry_2
_geom_bond_publ_flag
V2 O4 1.639(6) . ?
V2 O3 1.788(3) . ?
V2 O2 1.702(4) . ?
V2 O2 1.702(4) 7_445 ?
V1 O1 1.603(9) . ?
V1 O2 1.960(4) . ?
V1 O2 1.960(4) 4 ?
V1 O2 1.960(4) 3 ?
V1 O2 1.960(4) 2 ?
O3 V2 1.788(3) 2_455 ?
N1 H1A 0.9103 . ?
N1 H1B 0.9106 . ?
N1 H1C 0.9093 . ?
N1 H1D 0.90(3) . ?
loop_
_geom_torsion_atom_site_label_1
_geom_torsion_atom_site_label_2
_geom_torsion_atom_site_label_3
_geom_torsion_atom_site_label_4
_geom_torsion
_geom_torsion_site_symmetry_1
_geom_torsion_site_symmetry_2
_geom_torsion_site_symmetry_3
_geom_torsion_site_symmetry_4
_geom_torsion_publ_flag
O4 V2 O3 V2 0.000(1) . . . 2_455 ?
O4 V2 O2 V1 -11.4(6) . . . . ?
O3 V2 O2 V1 108.6(5) . . . . ?
O2 V2 O3 V2 121.14(19) 7_445 . . 2_455 ?
O2 V2 O3 V2 -121.14(19) . . . 2_455 ?
O2 V2 O2 V1 -134.6(3) 7_445 . . . ?
loop_
_twin_individual_id
_twin_individual_mass_fraction_refined
1 0.81(9)
2 0.19(9)
