#------------------------------------------------------------------------------
#$Date: 2020-10-06 11:44:47 +0300 (Tue, 06 Oct 2020) $
#$Revision: 257530 $
#$URL: file:///home/coder/svn-repositories/cod/cif/7/70/47/7704790.cif $
#------------------------------------------------------------------------------
#
# This file is available in the Crystallography Open Database (COD),
# http://www.crystallography.net/
#
# All data on this site have been placed in the public domain by the
# contributors.
#
data_7704790
loop_
_publ_author_name
'Yao, Zhi-Yuan'
'Zhang, Guo-Qin'
'Yao, Wan-Wan'
'Wang, Xiao-Zu'
'Qian, Yin'
'Ren, Xiao-Ming'
_publ_section_title
;
 Uniaxial thermal expansion behaviors and ionic conduction in a layered
 (NH<sub>4</sub>)<sub>2</sub>V<sub>3</sub>O<sub>8</sub>.
;
_journal_issue                   30
_journal_name_full
'Dalton transactions (Cambridge, England : 2003)'
_journal_page_first              10638
_journal_page_last               10644
_journal_paper_doi               10.1039/d0dt01833c
_journal_volume                  49
_journal_year                    2020
_chemical_formula_moiety         '0.5(O16 V6), H8 N2'
_chemical_formula_sum            'H8 N2 O8 V3'
_chemical_formula_weight         316.90
_space_group_crystal_system      tetragonal
_space_group_IT_number           100
_space_group_name_Hall           'P 4 -2ab'
_space_group_name_H-M_alt        'P 4 b m'
_atom_sites_solution_hydrogens   difmap
_audit_creation_date             2019-12-05
_audit_creation_method
;
Olex2 1.2
(compiled 2018.05.29 svn.r3508 for OlexSys, GUI svn.r5506)
;
_audit_update_record
;
2020-05-21 deposited with the CCDC.	2020-07-07 downloaded from the CCDC.
;
_cell_angle_alpha                90
_cell_angle_beta                 90
_cell_angle_gamma                90
_cell_formula_units_Z            2
_cell_length_a                   8.8868(3)
_cell_length_b                   8.8868(3)
_cell_length_c                   5.5606(5)
_cell_measurement_reflns_used    2705
_cell_measurement_temperature    220.0
_cell_measurement_theta_max      27.481
_cell_measurement_theta_min      4.588
_cell_volume                     439.15(4)
_computing_cell_refinement       'SAINT V8.38A (?, 2016)'
_computing_data_reduction        'SAINT V8.38A (?, 2016)'
_computing_molecular_graphics    'Olex2 (Dolomanov et al., 2009)'
_computing_publication_material  'Olex2 (Dolomanov et al., 2009)'
_computing_structure_refinement  'ShelXL (Sheldrick, 2015)'
_diffrn_ambient_temperature      220.0
_diffrn_measured_fraction_theta_full 0.996
_diffrn_measured_fraction_theta_max 0.997
_diffrn_measurement_device_type  'CCD area detector'
_diffrn_measurement_method       'phi and omega scans'
_diffrn_radiation_monochromator  graphite
_diffrn_radiation_type           MoK\a
_diffrn_radiation_wavelength     0.71073
_diffrn_reflns_av_R_equivalents  0.0515
_diffrn_reflns_av_unetI/netI     0.0341
_diffrn_reflns_Laue_measured_fraction_full 0.996
_diffrn_reflns_Laue_measured_fraction_max 0.997
_diffrn_reflns_limit_h_max       11
_diffrn_reflns_limit_h_min       -11
_diffrn_reflns_limit_k_max       11
_diffrn_reflns_limit_k_min       -11
_diffrn_reflns_limit_l_max       7
_diffrn_reflns_limit_l_min       -7
_diffrn_reflns_number            4353
_diffrn_reflns_point_group_measured_fraction_full 0.995
_diffrn_reflns_point_group_measured_fraction_max 0.996
_diffrn_reflns_theta_full        25.242
_diffrn_reflns_theta_max         27.479
_diffrn_reflns_theta_min         3.242
_exptl_absorpt_coefficient_mu    3.144
_exptl_absorpt_correction_T_max  0.7455
_exptl_absorpt_correction_T_min  0.5749
_exptl_absorpt_correction_type   multi-scan
_exptl_absorpt_process_details
;
SADABS-2016/2 (Bruker,2016/2) was used for absorption correction.
wR2(int) was 0.1185 before and 0.0766 after correction.
The Ratio of minimum to maximum transmission is 0.7712.
The \l/2 correction factor is Not present.
;
_exptl_crystal_colour            'metallic blackish black'
_exptl_crystal_colour_lustre     metallic
_exptl_crystal_colour_modifier   blackish
_exptl_crystal_colour_primary    black
_exptl_crystal_density_diffrn    2.397
_exptl_crystal_description       plate
_exptl_crystal_F_000             310
_refine_diff_density_max         0.344
_refine_diff_density_min         -0.391
_refine_diff_density_rms         0.081
_refine_ls_abs_structure_details
;
 Flack x determined using 225 quotients [(I+)-(I-)]/[(I+)+(I-)]
 (Parsons, Flack and Wagner, Acta Cryst. B69 (2013) 249-259).
;
_refine_ls_abs_structure_Flack   0.01(3)
_refine_ls_extinction_method     none
_refine_ls_goodness_of_fit_ref   1.110
_refine_ls_hydrogen_treatment    mixed
_refine_ls_matrix_type           full
_refine_ls_number_parameters     42
_refine_ls_number_reflns         556
_refine_ls_number_restraints     2
_refine_ls_restrained_S_all      1.108
_refine_ls_R_factor_all          0.0289
_refine_ls_R_factor_gt           0.0269
_refine_ls_shift/su_max          0.000
_refine_ls_shift/su_mean         0.000
_refine_ls_structure_factor_coef Fsqd
_refine_ls_weighting_details
'w=1/[\s^2^(Fo^2^)+0.8337P] where P=(Fo^2^+2Fc^2^)/3'
_refine_ls_weighting_scheme      calc
_refine_ls_wR_factor_gt          0.0547
_refine_ls_wR_factor_ref         0.0558
_reflns_Friedel_coverage         0.818
_reflns_Friedel_fraction_full    0.995
_reflns_Friedel_fraction_max     0.996
_reflns_number_gt                532
_reflns_number_total             556
_reflns_threshold_expression     'I > 2\s(I)'
_cod_data_source_file            d0dt01833c2.cif
_cod_data_source_block           220k-1
_cod_depositor_comments
;Adding full bibliography for 7704781--7704792.cif.

 Adding full bibliography for 7704781--7704792.cif.
;
_cod_original_cell_volume        439.15(5)
_cod_database_code               7704790
_shelx_shelxl_version_number     2014/7
_shelx_space_group_comment
;
The symmetry employed for this shelxl refinement is uniquely defined
by the following loop, which should always be used as a source of
symmetry information in preference to the above space-group names.
They are only intended as comments.
;
_olex2_refinement_description
;
1. Twinned data refinement
 Scales: 0.79(7)
 0.21(7)
2. Fixed Uiso
 At 1.2 times of:
  All N(H,H,H) groups
3. Restrained distances
 N1-H1D
 0.9 with sigma of 0.02
4. Others
 Fixed Sof: H1B(0.5) H1C(0.5)
5.a Riding coordinates:
 N1(H1A,H1B,H1C)
;
_shelx_res_file
;
    220k-1.res created by SHELXL-2014/7

TITL 220K-1 in P4bm
CELL 0.71073 8.8868 8.8868 5.5606 90 90 90
ZERR 2 0.0003 0.0003 0.0005 0 0 0
LATT -1
SYMM -X,-Y,+Z
SYMM -Y,+X,+Z
SYMM +Y,-X,+Z
SYMM 0.5+X,0.5-Y,+Z
SYMM 0.5-X,0.5+Y,+Z
SYMM 0.5-Y,0.5-X,+Z
SYMM 0.5+Y,0.5+X,+Z
SFAC H N O V
UNIT 16 4 16 6
DFIX 0.9 N1 H1d

L.S. 15
PLAN  1
TEMP -53.15
CONF
BOND
MORE -1
BOND $H
fmap 2
acta
TWIN 1 0 0 0 -1 0 0 0 -1 2
REM <olex2.extras>
REM <HklSrc "%.\\220K-1.hkl">
REM </olex2.extras>

WGHT    0.000000    0.833700
BASF   0.20905
FVAR       0.26303
V2    4    0.133455    0.366545    0.500080    10.50000    0.00712    0.00712 =
         0.01267   -0.00027    0.00027   -0.00045
V1    4    0.000000    0.000000    0.496012    10.25000    0.00747    0.00747 =
         0.01495    0.00000    0.00000    0.00000
O4    3    0.130385    0.369615    0.794883    10.50000    0.02121    0.02121 =
         0.01214    0.00179   -0.00179    0.00246
O3    3    0.000000    0.500000    0.385895    10.25000    0.01533    0.01533 =
         0.01523    0.00000    0.00000    0.00702
O2    3    0.085236    0.193224    0.392305    11.00000    0.01774    0.00993 =
         0.02876   -0.00250    0.00392   -0.00470
O1    3    0.000000    0.000000    0.783456    10.25000    0.02618    0.02618 =
         0.01625    0.00000    0.00000    0.00000
N1    2    0.329857    0.170143    1.030677    10.50000    0.02698    0.02698 =
         0.01291    0.00174   -0.00174    0.01211
AFIX   3
H1A   1    0.382267    0.117730    0.920397    10.50000   -1.20000
H1B   1    0.393857    0.223090    1.123287    10.50000   -1.20000
H1C   1    0.276917    0.106150    1.123287    10.50000   -1.20000
AFIX   0
H1D   1    0.269374    0.230626    0.943980    10.50000    0.06729
HKLF 4

REM  220K-1 in P4bm
REM R1 =  0.0269 for     532 Fo > 4sig(Fo)  and  0.0289 for all     556 data
REM     42 parameters refined using      2 restraints

END

WGHT      0.0000      0.8336

REM Highest difference peak  0.344,  deepest hole -0.391,  1-sigma level  0.081
Q1    1   0.0432  0.3473  0.5017  11.00000  0.05    0.34
;
_shelx_res_checksum              9278
_olex2_submission_special_instructions 'No special instructions were received'
loop_
_space_group_symop_operation_xyz
'x, y, z'
'-x, -y, z'
'-y, x, z'
'y, -x, z'
'x+1/2, -y+1/2, z'
'-x+1/2, y+1/2, z'
'-y+1/2, -x+1/2, z'
'y+1/2, x+1/2, z'
loop_
_atom_site_label
_atom_site_type_symbol
_atom_site_fract_x
_atom_site_fract_y
_atom_site_fract_z
_atom_site_U_iso_or_equiv
_atom_site_adp_type
_atom_site_occupancy
_atom_site_site_symmetry_order
_atom_site_calc_flag
_atom_site_refinement_flags_posn
_atom_site_refinement_flags_adp
_atom_site_refinement_flags_occupancy
_atom_site_disorder_assembly
_atom_site_disorder_group
V2 V 0.13345(6) 0.36655(6) 0.5001(3) 0.0090(2) Uani 1 2 d S T P . .
V1 V 0.0000 0.0000 0.4960(4) 0.0100(3) Uani 1 4 d S T P . .
O4 O 0.1304(4) 0.3696(4) 0.7949(8) 0.0182(10) Uani 1 2 d S T P . .
O3 O 0.0000 0.5000 0.3859(11) 0.0153(13) Uani 1 4 d S T P . .
O2 O 0.0852(4) 0.1932(4) 0.3923(7) 0.0188(6) Uani 1 1 d . . . . .
O1 O 0.0000 0.0000 0.7835(12) 0.0229(15) Uani 1 4 d S T P . .
N1 N 0.3299(4) 0.1701(4) 1.0307(13) 0.0223(13) Uani 1 2 d DS T P . .
H1A H 0.3823 0.1177 0.9204 0.027 Uiso 1 2 d RS T P . .
H1B H 0.3939 0.2231 1.1233 0.027 Uiso 0.5 1 d R . . . .
H1C H 0.2769 0.1062 1.1233 0.027 Uiso 0.5 1 d R . . . .
H1D H 0.269(5) 0.231(5) 0.944(17) 0.07(3) Uiso 1 2 d DS T P . .
loop_
_atom_site_aniso_label
_atom_site_aniso_U_11
_atom_site_aniso_U_22
_atom_site_aniso_U_33
_atom_site_aniso_U_23
_atom_site_aniso_U_13
_atom_site_aniso_U_12
V2 0.0071(3) 0.0071(3) 0.0127(4) -0.0003(5) 0.0003(5) -0.0005(3)
V1 0.0075(3) 0.0075(3) 0.0150(6) 0.000 0.000 0.000
O4 0.0212(15) 0.0212(15) 0.012(2) 0.0018(13) -0.0018(13) 0.0025(19)
O3 0.0153(19) 0.0153(19) 0.015(3) 0.000 0.000 0.007(2)
O2 0.0177(16) 0.0099(15) 0.0288(16) -0.0025(13) 0.0039(14) -0.0047(13)
O1 0.026(2) 0.026(2) 0.016(4) 0.000 0.000 0.000
N1 0.0270(17) 0.0270(17) 0.013(4) 0.0017(17) -0.0017(17) 0.012(2)
loop_
_atom_type_symbol
_atom_type_description
_atom_type_scat_dispersion_real
_atom_type_scat_dispersion_imag
_atom_type_scat_source
H H 0.0000 0.0000 'International Tables Vol C Tables 4.2.6.8 and 6.1.1.4'
N N 0.0061 0.0033 'International Tables Vol C Tables 4.2.6.8 and 6.1.1.4'
O O 0.0106 0.0060 'International Tables Vol C Tables 4.2.6.8 and 6.1.1.4'
V V 0.3005 0.5294 'International Tables Vol C Tables 4.2.6.8 and 6.1.1.4'
loop_
_geom_angle_atom_site_label_1
_geom_angle_atom_site_label_2
_geom_angle_atom_site_label_3
_geom_angle
_geom_angle_site_symmetry_1
_geom_angle_site_symmetry_3
_geom_angle_publ_flag
O4 V2 O3 109.4(2) . . ?
O4 V2 O2 111.21(17) . 7 ?
O4 V2 O2 111.21(17) . . ?
O2 V2 O3 107.84(17) 7 . ?
O2 V2 O3 107.84(18) . . ?
O2 V2 O2 109.2(2) 7 . ?
O2 V1 O2 85.05(7) . 4 ?
O2 V1 O2 145.8(2) . 2 ?
O2 V1 O2 85.05(7) 2 4 ?
O2 V1 O2 85.05(7) . 3 ?
O2 V1 O2 85.05(7) 2 3 ?
O2 V1 O2 145.8(2) 3 4 ?
O1 V1 O2 107.08(12) . 4 ?
O1 V1 O2 107.08(12) . 2 ?
O1 V1 O2 107.08(12) . 3 ?
O1 V1 O2 107.08(12) . . ?
V2 O3 V2 138.5(4) . 2_565 ?
V2 O2 V1 141.5(2) . . ?
H1A N1 H1B 109.5 . . ?
H1A N1 H1C 109.5 . . ?
H1A N1 H1D 104.7 . . ?
H1B N1 H1C 109.5 . . ?
H1B N1 H1D 111.8 . . ?
H1C N1 H1D 111.8 . . ?
loop_
_geom_bond_atom_site_label_1
_geom_bond_atom_site_label_2
_geom_bond_distance
_geom_bond_site_symmetry_2
_geom_bond_publ_flag
V2 O4 1.640(5) . ?
V2 O3 1.793(2) . ?
V2 O2 1.707(3) . ?
V2 O2 1.707(3) 7 ?
V1 O2 1.963(3) 3 ?
V1 O2 1.963(3) 2 ?
V1 O2 1.963(3) 4 ?
V1 O2 1.963(3) . ?
V1 O1 1.598(7) . ?
O3 V2 1.793(2) 2_565 ?
N1 H1A 0.9000 . ?
N1 H1B 0.9000 . ?
N1 H1C 0.9000 . ?
N1 H1D 0.90(3) . ?
loop_
_geom_torsion_atom_site_label_1
_geom_torsion_atom_site_label_2
_geom_torsion_atom_site_label_3
_geom_torsion_atom_site_label_4
_geom_torsion
_geom_torsion_site_symmetry_1
_geom_torsion_site_symmetry_2
_geom_torsion_site_symmetry_3
_geom_torsion_site_symmetry_4
_geom_torsion_publ_flag
O4 V2 O3 V2 0.000(1) . . . 2_565 ?
O4 V2 O2 V1 11.5(4) . . . . ?
O3 V2 O2 V1 -108.4(4) . . . . ?
O2 V2 O3 V2 -121.07(15) 7 . . 2_565 ?
O2 V2 O3 V2 121.07(15) . . . 2_565 ?
O2 V2 O2 V1 134.6(2) 7 . . . ?
loop_
_twin_individual_id
_twin_individual_mass_fraction_refined
1 0.79(7)
2 0.21(7)
