#------------------------------------------------------------------------------
#$Date: 2021-04-05 17:58:28 +0300 (Mon, 05 Apr 2021) $
#$Revision: 263789 $
#$URL: file:///home/coder/svn-repositories/cod/cif/7/70/67/7706793.cif $
#------------------------------------------------------------------------------
#
# This file is available in the Crystallography Open Database (COD),
# http://www.crystallography.net/
#
# All data on this site have been placed in the public domain by the
# contributors.
#
data_7706793
loop_
_publ_author_name
'Yang, Ya'
'Zhang, Bingbing'
'Wu, Xiaowen'
'Wu, Kui'
_publ_section_title
;
 A series of M<sub>3</sub>PS<sub>4</sub> (M = Ag, Cu and Ag/Cu)
 thiophosphates with diamond-like structures exhibiting large second
 harmonic generation responses and moderate ion conductivities.
;
_journal_issue                   12
_journal_name_full
'Dalton transactions (Cambridge, England : 2003)'
_journal_page_first              4129
_journal_page_last               4132
_journal_paper_doi               10.1039/d1dt00366f
_journal_volume                  50
_journal_year                    2021
_chemical_formula_sum            'Ag3 P S4'
_chemical_formula_weight         482.82
_space_group_crystal_system      orthorhombic
_space_group_IT_number           31
_space_group_name_Hall           'P 2ac -2'
_space_group_name_H-M_alt        'P m n 21'
_atom_sites_solution_hydrogens   none
_audit_creation_method           SHELXL-2016/6
_audit_update_record
;
2021-01-23 deposited with the CCDC.	2021-03-05 downloaded from the CCDC.
;
_cell_angle_alpha                90
_cell_angle_beta                 90
_cell_angle_gamma                90
_cell_formula_units_Z            2
_cell_length_a                   7.6383(13)
_cell_length_b                   6.8528(11)
_cell_length_c                   6.4976(11)
_cell_measurement_reflns_used    754
_cell_measurement_temperature    293(2)
_cell_measurement_theta_max      26.61
_cell_measurement_theta_min      3.99
_cell_volume                     340.11(10)
_computing_cell_refinement       'Bruker SMART'
_computing_data_collection       'Bruker SMART'
_computing_data_reduction        'Bruker SAINT'
_computing_molecular_graphics    'Bruker SHELXTL'
_computing_publication_material  'Bruker SHELXTL'
_computing_structure_refinement  'Bruker SHELXTL'
_computing_structure_solution    'Bruker SHELXTL'
_diffrn_ambient_temperature      293(2)
_diffrn_measured_fraction_theta_full 1.000
_diffrn_measured_fraction_theta_max 1.000
_diffrn_measurement_device_type  'CCD area detector'
_diffrn_measurement_method       'phi and omega scans'
_diffrn_radiation_type           MoK\a
_diffrn_radiation_wavelength     0.71073
_diffrn_reflns_av_R_equivalents  0.0255
_diffrn_reflns_av_unetI/netI     0.0265
_diffrn_reflns_Laue_measured_fraction_full 1.000
_diffrn_reflns_Laue_measured_fraction_max 1.000
_diffrn_reflns_limit_h_max       9
_diffrn_reflns_limit_h_min       -6
_diffrn_reflns_limit_k_max       7
_diffrn_reflns_limit_k_min       -8
_diffrn_reflns_limit_l_max       7
_diffrn_reflns_limit_l_min       -7
_diffrn_reflns_number            1917
_diffrn_reflns_point_group_measured_fraction_full 1.000
_diffrn_reflns_point_group_measured_fraction_max 1.000
_diffrn_reflns_theta_full        24.982
_diffrn_reflns_theta_max         24.982
_diffrn_reflns_theta_min         2.973
_diffrn_source                   'sealed tube'
_exptl_absorpt_coefficient_mu    9.890
_exptl_absorpt_correction_type   multi-scan
_exptl_absorpt_process_details   SADABS
_exptl_crystal_colour            red
_exptl_crystal_density_diffrn    4.715
_exptl_crystal_description       blcok
_exptl_crystal_F_000             440
_exptl_crystal_size_max          0.137
_exptl_crystal_size_mid          0.114
_exptl_crystal_size_min          0.095
_exptl_transmission_factor_max   0.7456
_exptl_transmission_factor_min   0.6145
_refine_diff_density_max         0.938
_refine_diff_density_min         -1.034
_refine_diff_density_rms         0.148
_refine_ls_abs_structure_details
;
 Refined as an inversion twin.
;
_refine_ls_abs_structure_Flack   0.11(10)
_refine_ls_extinction_expression Fc^*^=kFc[1+0.001xFc^2^\l^3^/sin(2\q)]^-1/4^
_refine_ls_extinction_method     'SHELXL-2016/6 (Sheldrick 2016)'
_refine_ls_goodness_of_fit_ref   1.099
_refine_ls_hydrogen_treatment    none
_refine_ls_matrix_type           full
_refine_ls_number_parameters     45
_refine_ls_number_reflns         650
_refine_ls_number_restraints     1
_refine_ls_restrained_S_all      1.098
_refine_ls_R_factor_all          0.0298
_refine_ls_R_factor_gt           0.0260
_refine_ls_shift/su_max          0.000
_refine_ls_shift/su_mean         0.000
_refine_ls_structure_factor_coef Fsqd
_refine_ls_weighting_details
'w=1/[\s^2^(Fo^2^)+1.7079P] where P=(Fo^2^+2Fc^2^)/3'
_refine_ls_weighting_scheme      calc
_refine_ls_wR_factor_gt          0.0430
_refine_ls_wR_factor_ref         0.0441
_reflns_Friedel_coverage         0.826
_reflns_Friedel_fraction_full    1.000
_reflns_Friedel_fraction_max     1.000
_reflns_number_gt                609
_reflns_number_total             650
_reflns_threshold_expression     'I > 2\s(I)'
_cod_data_source_file            d1dt00366f2.cif
_cod_data_source_block           1_CCDC1
_cod_depositor_comments
'Adding full bibliography for 7706792--7706794.cif.'
_cod_database_code               7706793
_shelx_shelxl_version_number     2016/6
_shelx_space_group_comment
;
The symmetry employed for this shelxl refinement is uniquely defined
by the following loop, which should always be used as a source of
symmetry information in preference to the above space-group names.
They are only intended as comments.
;
_shelx_estimated_absorpt_t_min   0.6145
_shelx_estimated_absorpt_t_max   0.7456
_shelx_res_file
;
TITL 1 in Pmn2(1)
    1.res
    created by SHELXL-2016/6 at 18:04:09 on 03-Oct-2019
CELL 0.71073   7.6383   6.8528   6.4976  90.000  90.000  90.000
ZERR    2.00   0.0013   0.0011   0.0011   0.000   0.000   0.000
LATT -1
SYMM     0.50000 - X ,            - Y ,    0.50000 + Z
SYMM             - X ,              Y ,              Z
SYMM     0.50000 + X ,            - Y ,    0.50000 + Z
SFAC Ag P  S
UNIT 6 2 8
OMIT   0.00  50.00
L.S. 20
ACTA
BOND
FMAP 2
PLAN 5
TWIN
CONF
WGHT    0.000000    1.707900
EXTI    0.000131
BASF   0.10919
FVAR       0.13041
AG1   1    0.500000    0.645169    0.381109    10.50000    0.04611    0.05590 =
         0.04720   -0.01340    0.00000    0.00000
AG2   1    0.771541    1.201677    0.431170    11.00000    0.05139    0.04021 =
         0.03682    0.00406    0.00397    0.00068
S1    3    0.780931    0.841629    0.309120    11.00000    0.02042    0.02046 =
         0.02663   -0.00112   -0.00748    0.00460
S2    3    1.000000    0.692206    0.720519    10.50000    0.02939    0.03754 =
         0.01364    0.00041    0.00000    0.00000
S3    3    1.000000    0.420962    0.278197    10.50000    0.02648    0.01382 =
         0.02312   -0.00375    0.00000    0.00000
P1    2    1.000000    0.695306    0.404860    10.50000    0.01290    0.01048 =
         0.00745   -0.00086    0.00000    0.00000
HKLF 4




REM  1 in Pmn2(1)
REM R1 =  0.0260 for     609 Fo > 4sig(Fo)  and  0.0298 for all     650 data
REM     45 parameters refined using      1 restraints

END

WGHT      0.0000      1.7079

REM Highest difference peak  0.938,  deepest hole -1.034,  1-sigma level  0.148
Q1    1   0.6828  1.1232  0.4269  11.00000  0.05    0.94
Q2    1   0.7371  1.3012  0.4268  11.00000  0.05    0.70
Q3    1   0.8211  1.1980  0.3458  11.00000  0.05    0.70
Q4    1   0.8337  1.1919  0.5239  11.00000  0.05    0.56
Q5    1   1.0000  0.5623  0.3913  10.50000  0.05    0.55
;
_shelx_res_checksum              32126
_shelx_hkl_file
;
   0   0   1    0.10    0.09
   0   0  -1    0.18    0.11
   0   0   2  972.96   13.41
   0   0  -2 1000.00   13.53
   0   0   3    0.06    0.18
   0   0  -3   -0.16    0.18
   0   0   4  145.78    3.02
   0   0  -4  149.81    3.19
   0   0   5   -0.07    0.29
   0   0  -5   -0.15    0.29
   0   0   6   68.63    2.29
   0   0  -6   65.10    2.37
   0   0  -7    0.64    0.51
   0   0  -8   19.12    1.61
   0   1   0    4.04    0.21
   0  -1   0    4.57    0.34
   0  -1   0    3.17    0.19
   0   1   0    3.24    0.17
   0  -1   1   57.22    1.19
   0  -1   1   58.87    1.01
   0   1  -1   56.83    1.02
   0  -1  -1   53.96    1.16
   0  -1  -1   56.76    1.25
   0  -1  -2   13.92    0.67
   0  -1   2   14.38    0.42
   0  -1  -2   15.74    0.65
   0   1   2   13.13    0.47
   0   1  -2   13.52    0.57
   0  -1   2   13.80    0.67
   0  -1   3  190.47    3.59
   0   1   3  200.63    3.14
   0  -1   3  193.84    2.95
   0  -1  -3  186.95    3.61
   0   1  -3  187.13    3.40
   0   1   4    3.17    0.44
   0   1  -4    2.32    0.44
   0  -1   4    3.74    0.59
   0  -1  -4    2.49    0.49
   0  -1   4    3.59    0.34
   0  -1   5  136.88    2.47
   0   1  -5  132.74    3.19
   0   1   5  137.95    2.90
   0  -1   5  134.28    3.33
   0  -1  -5  134.75    3.36
   0  -1  -6   11.91    1.24
   0   1  -6   14.53    1.10
   0  -1   6   12.80    1.32
   0  -1  -7   11.42    1.39
   0   1  -7   13.57    1.40
   0  -1   7   11.96    1.47
   0  -1  -8    7.04    1.20
   0   1  -8    8.05    1.20
   0  -2   0  603.76    8.53
   0   2   0  590.43    8.18
   0  -2   0  586.70    8.20
   0  -2   1  261.91    3.93
   0  -2  -1  246.83    3.94
   0  -2   1  249.37    4.02
   0   2  -1  249.85    3.59
   0  -2  -1  247.87    3.49
   0  -2  -1  250.17    4.19
   0  -2  -2  261.30    4.40
   0  -2   2  263.81    4.49
   0  -2   2  267.13    3.98
   0   2  -2  265.05    3.98
   0  -2  -2  258.10    4.46
   0  -2  -3  335.26    5.81
   0   2  -3  341.93    5.37
   0  -2   3  352.07    5.93
   0  -2   3  354.64    5.10
   0  -2  -3  342.40    5.68
   0  -2   4  106.84    2.02
   0   2  -4  104.61    2.43
   0  -2  -4  106.26    2.77
   0   2   4  104.86    1.85
   0  -2   4  109.16    2.81
   0  -2  -4  108.46    2.52
   0  -2   5   95.07    1.99
   0  -2  -5   95.06    2.83
   0  -2   5   94.79    2.87
   0   2  -5   98.62    2.56
   0  -2  -6   22.71    1.49
   0  -2   6   22.40    1.53
   0   2  -6   21.55    1.31
   0  -2  -7   10.35    1.37
   0   2  -7   12.62    1.32
   0  -2   7   12.07    1.51
   0  -2  -8   11.44    1.54
   0  -2   8   10.00    1.60
   0   2  -8   11.69    1.80
   0   3   0   49.06    1.20
   0  -3   0   49.88    1.54
   0  -3   0   48.81    1.25
   0  -3   1  110.38    2.39
   0  -3   1  112.59    2.37
   0  -3  -1  112.38    2.58
   0  -3  -1  109.39    1.90
   0   3  -1  111.41    1.91
   0  -3  -1  109.35    2.25
   0  -3  -2   38.90    1.48
   0  -3  -2   41.31    1.35
   0  -3   2   39.24    1.26
   0  -3   2   38.39    1.40
   0   3  -2   39.38    0.97
   0   3  -3   75.87    1.70
   0  -3  -3   75.81    2.17
   0  -3   3   79.03    1.81
   0  -3   3   80.52    2.29
   0  -3  -3   78.83    2.24
   0  -3   4    9.76    0.70
   0  -3  -4   10.15    1.04
   0   3  -4    9.05    0.66
   0  -3  -4   10.19    1.05
   0  -3   4   10.25    1.03
   0  -3  -5   24.79    1.47
   0  -3  -5   26.32    1.39
   0  -3   5   24.47    1.54
   0   3  -5   24.41    1.19
   0   3  -6   54.52    2.04
   0  -3   6   56.77    2.49
   0  -3  -6   50.47    2.32
   0  -3   7    2.25    0.87
   0  -3  -7    0.72    0.61
   0   4   0   14.25    0.71
   0  -4   0   14.63    1.03
   0  -4   0   15.92    0.78
   0  -4   1  209.34    4.09
   0  -4   1  214.23    3.98
   0   4   1  205.49    3.72
   0   4  -1  203.91    3.38
   0  -4  -1  209.49    3.46
   0  -4  -1  213.05    4.27
   0   4  -2   33.19    0.90
   0  -4  -2   33.50    1.32
   0  -4   2   32.40    1.41
   0  -4   2   31.96    1.38
   0  -4  -2   34.14    1.54
   0  -4  -3  161.47    3.63
   0  -4   3  159.98    3.28
   0  -4  -3  155.61    3.72
   0   4  -3  157.20    2.79
   0  -4   3  156.57    3.69
   0  -4   4   27.26    1.54
   0  -4  -4   26.42    1.48
   0  -4   4   26.47    1.31
   0  -4  -4   26.87    1.45
   0  -4  -5   47.69    2.03
   0  -4  -5   47.70    2.10
   0  -4   5   49.51    2.25
   0  -4   6    1.20    0.69
   0  -4  -6    3.26    0.83
   0  -4  -7   22.09    1.78
   0  -4   7   20.74    2.09
   0   5   0   89.08    2.10
   0  -5   0   85.03    2.57
   0  -5   0   87.55    2.20
   0  -5  -1   66.32    1.68
   0  -5  -1   67.56    2.33
   0  -5   1   68.40    2.03
   0   5   1   65.55    1.87
   0   5  -1   63.35    1.58
   0  -5   1   64.47    2.23
   0  -5   2   74.44    2.32
   0  -5   2   70.36    2.33
   0  -5  -2   72.88    2.48
   0   5   2   73.16    2.09
   0  -5   3   21.35    1.37
   0  -5   3   22.35    1.42
   0  -5  -3   24.00    1.37
   0  -5  -3   25.75    1.54
   0  -5   4   12.99    1.38
   0  -5  -4   14.69    1.38
   0  -5   4   11.85    1.16
   0  -5  -4   12.63    1.32
   0  -5   5    1.70    0.68
   0  -5  -5    2.34    0.73
   0  -5  -5    2.56    0.72
   0  -5   6   24.35    1.87
   0  -5  -6   21.19    1.68
   0  -5  -6   22.97    1.61
   0  -6   0   42.27    2.01
   0  -6   0   40.59    1.57
   0   6   1   42.02    1.57
   0  -6  -1   40.07    2.03
   0  -6   1   44.02    1.76
   0  -6   1   39.71    1.93
   0  -6   2   24.36    1.62
   0  -6   2   25.86    1.49
   0   6   2   23.66    1.30
   0  -6  -2   24.68    1.63
   0  -6   3   32.94    1.80
   0  -6   3   31.50    1.76
   0   6   3   34.22    1.63
   0  -6  -3   30.35    1.80
   0  -6  -4    8.72    1.16
   0  -6  -4    7.00    1.11
   0  -6   4    6.45    1.10
   0  -6  -5    9.55    1.31
   0  -6   5    9.49    1.36
   0  -6  -5    7.60    1.20
   0  -6  -6    2.67    0.85
   0  -6  -6    0.87    0.72
   0  -6   6    0.27    0.62
   0  -7   0    4.07    0.98
   0  -7   1    0.65    0.51
   0  -7  -1    1.03    0.68
   0  -7   1    0.98    0.78
   0  -7   2   31.66    1.77
   0  -7  -2   32.25    1.91
   0  -7   2   36.73    1.99
   0  -7   3   11.05    1.35
   0   7   3   11.36    1.26
   0  -7  -3   10.21    1.41
   0  -7   3   12.91    1.36
   0   7   4   25.73    1.72
   0  -7   4   26.63    1.89
   0  -7  -4   27.05    1.87
   0   7   5   10.46    1.44
   0  -7  -5    8.30    1.37
   0  -7   5    7.98    1.40
   0  -8   0   28.41    2.01
   0  -8   1    7.67    1.29
   0  -8  -1    8.24    1.36
   0  -8   2    5.84    1.07
   0  -8   2    9.65    1.33
   0  -8  -2    5.98    1.11
   0  -8   3    3.63    1.01
   0  -8  -3    2.49    0.80
   1   0   0    0.02    0.11
   1   0   1    9.09    0.44
   1   0  -1   10.41    0.34
  -1   0  -1   10.56    0.47
   1   0  -1    9.62    0.51
  -1   0   1    9.69    0.49
   1   0  -2   -0.13    0.18
  -1   0   2    0.35    0.23
   1   0  -2   -0.06    0.09
  -1   0  -2   -0.13    0.15
   1   0  -3    6.10    0.63
  -1   0  -3    5.12    0.56
  -1   0   3    5.44    0.58
  -1   0  -4   -0.11    0.22
   1   0   4    0.39    0.23
  -1   0   4    0.24    0.31
   1   0  -4    0.06    0.26
   1   0  -5   28.49    1.41
   1   0   5   28.62    1.30
  -1   0  -5   31.34    1.45
  -1   0   5   30.85    1.41
  -1   0  -6   -0.29    0.28
   1   0  -6   -0.07    0.37
  -1   0   6   -0.49    0.42
   1   0   6   -0.35    0.36
  -1   0  -7   22.65    1.56
   1   0  -7   21.67    1.55
   1   0  -8    0.15    0.57
  -1   0  -8    0.20    0.55
   1  -1   0   28.04    0.59
  -1  -1   0   28.46    0.71
   1  -1   0   29.87    0.74
  -1  -1   0   28.31    0.78
   1   1   0   28.17    0.84
   1  -1  -1   23.41    0.72
  -1  -1   1   25.01    0.88
  -1  -1   1   23.18    0.53
   1   1   1   24.26    0.79
   1  -1  -1   24.37    0.85
  -1  -1  -1   22.56    0.73
   1  -1   1   23.94    0.56
   1   1  -1   22.60    0.80
   1  -1   1   24.53    0.65
  -1   1  -2   59.34    1.29
  -1  -1   2   60.85    1.60
   1  -1  -2   61.13    1.49
   1  -1  -2   60.61    1.43
   1   1  -2   60.78    1.44
   1  -1   2   60.70    1.26
  -1  -1  -2   61.47    1.56
  -1   1   2   60.75    1.22
  -1  -1   3   17.69    0.41
   1  -1  -3   17.31    0.89
  -1  -1   3   16.77    0.92
   1  -1  -3   16.99    0.72
  -1   1  -3   17.83    0.78
   1  -1   3   17.32    0.65
  -1   1   3   18.02    0.72
  -1  -1  -3   15.88    0.87
   1   1  -3   18.59    0.87
  -1   1  -4   14.72    0.85
  -1  -1   4   13.71    0.96
   1  -1  -4   15.87    0.96
   1   1   4   13.11    0.68
  -1  -1   4   14.02    0.44
   1  -1   4   13.75    0.85
  -1   1   4   14.67    0.79
  -1  -1  -4   14.83    0.95
   1   1  -4   15.04    0.88
   1  -1   4   14.58    0.65
   1   1   5   10.59    0.72
  -1  -1   5   10.89    1.13
  -1   1  -5   11.40    0.89
   1  -1  -5   10.74    1.07
  -1  -1  -5   11.13    1.10
   1   1  -5   13.00    0.97
  -1   1   5   10.53    0.83
   1  -1   5   10.89    0.93
   1  -1   5   11.75    0.65
   1  -1  -6    0.80    0.46
  -1   1  -6    0.72    0.43
  -1  -1   6    0.00    0.54
  -1  -1  -6    0.38    0.42
   1  -1   6    0.91    0.48
   1  -1   6    0.56    0.27
   1   1  -6    0.84    0.47
  -1   1  -7    4.26    0.87
  -1  -1   7    1.69    0.78
   1  -1  -7    2.82    0.79
  -1  -1  -7    4.28    0.92
   1  -1   7    0.94    0.60
   1   1  -7    3.22    0.76
  -1   1  -8    1.91    0.73
   1  -1  -8    0.65    0.59
  -1  -1  -8    1.90    0.77
   1   1  -8    0.90    0.62
  -1  -2   0   57.76    1.35
   1  -2   0   57.80    1.01
   1  -2   0   58.12    1.46
   1   2   0   54.96    1.40
  -1  -2   0   56.22    1.38
   1  -2  -1   16.07    0.92
   1   2   1   15.37    0.72
  -1  -2   1   14.92    0.66
   1  -2  -1   15.12    0.60
  -1  -2   1   16.55    0.79
   1   2  -1   16.62    0.71
   1  -2   1   16.11    0.68
  -1  -2  -1   14.90    0.74
   1  -2  -2   55.10    1.48
  -1  -2   2   56.78    1.20
  -1   2  -2   57.27    1.12
  -1  -2   2   52.57    1.61
   1  -2  -2   55.58    1.61
  -1  -2  -2   54.28    1.59
   1   2  -2   55.38    1.38
   1  -2   2   54.46    1.30
  -1  -2  -2   56.63    1.56
   1  -2  -3   19.13    0.95
  -1  -2   3   20.05    1.07
   1  -2  -3   18.89    0.96
  -1  -2   3   18.81    0.64
  -1   2  -3   20.49    0.77
  -1  -2  -3   20.63    0.97
   1  -2   3   19.83    0.75
  -1  -2  -3   18.81    1.00
   1   2  -3   19.13    0.87
   1  -2  -4   23.21    1.20
  -1   2  -4   22.67    0.97
   1   2   4   20.89    0.69
  -1  -2   4   20.08    1.22
   1  -2  -4   20.83    1.01
  -1  -2   4   20.39    0.64
   1  -2   4   21.23    1.13
   1   2  -4   23.42    1.08
   1  -2   4   20.78    0.82
  -1  -2  -4   22.06    1.19
   1  -2  -5    0.50    0.30
  -1   2  -5    0.38    0.32
  -1  -2   5    0.01    0.41
   1  -2  -5    0.47    0.41
  -1  -2  -5    0.74    0.42
   1  -2   5    1.35    0.50
   1  -2   5    0.63    0.26
   1   2  -5    0.98    0.41
  -1  -2   6    0.38    0.58
   1  -2  -6    0.57    0.49
  -1   2  -6    0.21    0.31
   1  -2   6    0.21    0.42
   1   2  -6    0.87    0.47
  -1  -2  -6    0.28    0.44
  -1  -2   7    1.74    0.87
  -1   2  -7    2.36    0.69
   1  -2  -7    4.98    0.98
   1   2  -7    2.65    0.70
   1  -2   7    3.08    0.85
  -1  -2  -7    3.05    0.83
  -1  -2   8    3.13    1.11
   1  -2  -8    1.64    0.78
   1  -2   8    1.78    0.87
   1   2  -8    2.14    0.73
  -1  -2  -8    3.21    0.95
  -1  -3   0   40.89    1.35
   1  -3   0   37.61    1.40
   1   3   0   39.52    1.28
  -1  -3   0   39.35    1.22
   1  -3   0   39.09    0.88
   1  -3  -1   72.19    1.59
   1   3   1   68.82    1.83
   1  -3  -1   69.91    2.00
  -1  -3   1   69.94    1.75
  -1  -3   1   68.93    1.86
  -1  -3  -1   72.68    1.51
   1   3  -1   73.84    1.72
  -1  -3  -1   73.36    1.96
   1  -3   1   72.21    1.88
   1  -3  -2   14.64    1.03
  -1  -3   2   15.20    0.93
  -1  -3   2   16.44    0.83
   1  -3  -2   16.22    0.81
  -1  -3  -2   16.34    0.90
  -1  -3  -2   18.12    1.06
   1  -3   2   14.78    0.80
   1   3  -2   14.58    0.75
   1  -3  -3    6.63    0.71
  -1  -3   3    6.01    0.81
   1  -3  -3    6.04    0.79
  -1   3  -3    6.15    0.40
  -1  -3   3    6.22    0.59
  -1  -3  -3    7.61    0.83
   1   3  -3    6.83    0.65
   1  -3   3    5.88    0.70
  -1  -3  -3    5.68    0.72
   1  -3   3    5.60    0.59
  -1   3  -4    0.48    0.25
   1  -3  -4   -0.28    0.32
  -1  -3   4   -0.81    0.58
  -1  -3   4    0.43    0.42
   1  -3  -4    0.32    0.34
   1  -3   4   -0.02    0.26
  -1  -3  -4    0.08    0.33
  -1  -3  -4    0.27    0.35
   1   3  -4    0.22    0.28
   1  -3   4    0.64    0.41
   1  -3  -5    3.91    0.75
   1  -3  -5    3.13    0.64
  -1  -3   5    2.31    0.72
  -1   3  -5    3.17    0.54
   1  -3   5    3.05    0.73
   1  -3   5    2.87    0.50
   1   3  -5    3.57    0.61
  -1  -3  -5    2.71    0.66
  -1  -3   6    4.53    0.98
   1  -3  -6    6.41    1.04
  -1  -3  -6    5.88    1.07
   1   3  -6    3.88    0.71
   1  -3   6    4.45    0.91
  -1  -3   7    2.28    0.98
   1  -3  -7    2.90    0.85
  -1  -3  -7    3.72    0.92
   1  -3   7    1.46    0.76
   1   4   0   18.91    0.94
   1  -4   0   17.28    1.25
  -1  -4   0   16.88    1.08
  -1  -4   0   17.95    0.94
  -1   4   0   19.61    0.68
  -1  -4   1   21.01    1.12
   1   4   1   21.34    1.04
   1  -4  -1   19.11    1.25
   1  -4  -1   21.04    0.86
  -1  -4   1   21.45    1.09
  -1  -4  -1   21.36    1.16
   1  -4   1   21.66    1.25
   1   4  -1   20.44    0.98
  -1  -4  -1   20.31    0.88
  -1  -4   2    1.54    0.48
  -1  -4   2    1.78    0.50
   1  -4  -2    1.64    0.37
   1  -4  -2    1.68    0.61
   1   4   2    1.73    0.44
   1   4  -2    1.40    0.39
   1  -4   2    0.92    0.54
  -1  -4  -2    0.18    0.36
   1  -4   2    0.82    0.35
   1  -4  -3   22.48    1.17
  -1  -4   3   22.96    1.12
   1  -4  -3   20.28    1.32
  -1  -4   3   23.82    1.35
  -1  -4  -3   21.37    1.23
   1  -4   3   24.05    1.26
   1   4  -3   22.47    0.98
  -1  -4  -3   19.66    1.25
   1  -4   3   22.95    1.23
   1  -4  -4   12.33    1.21
   1  -4  -4   13.55    1.03
  -1  -4   4   13.69    1.40
  -1  -4  -4   15.71    1.18
   1  -4   4   13.49    1.11
  -1  -4  -4   12.81    1.20
   1  -4   4   14.01    1.01
   1   4  -4   11.91    0.84
   1  -4  -5   12.01    1.28
  -1  -4   5   12.09    1.45
   1  -4  -5   11.00    1.19
   1   4  -5   10.53    1.44
   1  -4   5   10.32    1.25
   1  -4   5    9.81    1.27
  -1  -4  -5   11.99    1.34
   1  -4  -6    8.76    1.25
   1  -4  -6    9.50    1.17
  -1  -4   6    9.73    1.43
   1  -4   6    8.95    1.26
  -1  -4  -6    8.00    1.26
   1  -4  -7    2.19    0.82
  -1  -4   7    0.35    0.80
   1  -4   7    1.99    0.83
  -1  -4  -7    2.46    0.87
   1  -5   0    2.34    0.44
  -1   5   0    2.04    0.36
  -1  -5   0    2.20    0.50
   1  -5   0    2.81    0.81
   1   5   0    1.81    0.50
  -1  -5   0    2.10    0.66
  -1  -5   1    4.71    0.79
   1  -5  -1    5.35    0.92
   1  -5  -1    6.33    0.51
   1   5   1    4.84    0.68
  -1  -5   1    5.80    0.80
   1  -5   1    5.59    0.70
  -1  -5  -1    5.40    0.86
   1   5  -1    3.89    0.65
   1  -5   1    6.45    1.02
  -1  -5  -1    6.30    0.68
  -1   5   1    4.29    0.49
  -1  -5   2    9.79    0.99
   1  -5  -2    9.73    1.19
   1   5   2    8.88    0.95
   1  -5  -2    9.63    0.78
  -1  -5   2   11.84    1.18
   1   5  -2    9.69    0.79
   1  -5   2   10.84    0.91
   1  -5   2   12.09    1.24
  -1  -5  -2    8.43    1.08
   1  -5  -3   11.07    0.92
  -1  -5   3   12.65    1.05
   1   5   3   11.37    1.12
  -1  -5   3   12.20    1.26
   1  -5  -3   12.54    1.29
   1  -5   3   11.18    1.18
  -1  -5  -3   11.49    1.25
   1  -5   3   11.64    1.17
   1  -5  -4   12.39    1.33
   1  -5  -4   13.41    1.30
  -1  -5   4   10.40    1.28
   1   5   4    8.93    1.08
  -1  -5  -4   10.91    1.24
   1  -5   4   14.16    1.27
   1  -5   4   11.38    1.32
   1  -5  -5    4.08    0.90
  -1  -5   5    5.02    1.07
   1  -5  -5    6.15    1.00
   1  -5   5    4.23    0.88
  -1  -5  -5    3.43    0.84
  -1  -5  -5    4.09    0.88
   1  -5  -6    2.75    0.87
  -1  -5   6    2.84    0.94
   1  -5  -6    1.61    0.67
  -1  -5  -6    3.51    0.89
   1  -5   6    2.38    0.80
   1   6   0   28.04    1.37
   1  -6   0   29.32    1.32
  -1  -6   0   26.94    1.38
  -1  -6   0   26.61    1.62
   1  -6   0   28.88    1.79
   1   6   1    5.93    0.81
  -1  -6   1    5.95    0.90
   1  -6  -1    6.12    1.09
  -1  -6   1    7.03    1.03
   1  -6   1    6.21    0.86
  -1  -6  -1    5.89    0.95
   1  -6   1    5.08    1.06
   1  -6  -2   14.01    1.51
   1   6   2   11.59    1.14
  -1  -6   2   12.69    1.34
  -1  -6   2   12.51    1.18
  -1   6   2   14.01    0.93
  -1  -6  -2   13.63    1.39
   1  -6   2   12.45    1.23
   1  -6   2   12.27    1.43
  -1  -6   3    3.57    0.73
   1  -6  -3    3.50    0.71
   1  -6  -3    3.30    0.82
  -1  -6   3    4.82    0.94
   1   6   3    3.17    0.77
   1  -6   3    2.80    0.91
  -1  -6  -3    2.82    0.75
   1  -6   3    3.14    0.75
   1   6   4   10.21    1.23
  -1  -6   4    7.55    1.24
   1  -6  -4    8.94    1.14
   1  -6  -4    9.28    1.32
   1  -6   4    9.83    1.31
   1  -6   4    7.54    1.12
  -1  -6  -4    9.15    1.26
   1   6   5    1.20    0.60
   1  -6  -5    0.60    0.63
  -1  -6   5   -0.39    0.54
   1  -6  -5   -0.04    0.52
   1  -6   5   -0.80    0.44
  -1  -6  -5    0.20    0.59
   1   6   6    3.01    0.84
   1  -6  -6    4.64    0.95
   1  -6  -6    3.74    0.97
  -1  -6   6    3.06    1.04
   1  -6   6    4.90    1.11
   1  -7   0    3.28    0.94
   1  -7   0    2.36    0.60
  -1  -7   0    2.98    0.79
   1  -7  -1   13.86    1.58
  -1  -7   1   10.12    1.22
  -1  -7   1    9.53    1.23
  -1  -7  -1   11.31    1.31
   1  -7   1    9.93    1.39
   1  -7   1   11.28    1.15
  -1  -7   2    0.90    0.61
   1   7   2    0.85    0.58
   1  -7  -2    0.97    0.73
  -1  -7   2    0.54    0.59
   1  -7   2    1.02    0.51
  -1  -7  -2    0.20    0.52
   1  -7   2    0.04    0.75
   1   7   3    6.04    1.04
  -1  -7   3    4.30    0.96
   1  -7  -3    5.41    1.06
  -1  -7  -3    5.22    1.00
   1  -7   3    5.04    0.97
   1  -7   3    5.49    1.14
  -1  -7   4   -0.48    0.57
   1  -7  -4    0.45    0.59
   1   7   4    0.42    0.59
  -1   7   4    1.21    0.58
  -1  -7  -4    0.60    0.57
   1  -7   4   -0.26    0.49
  -1  -7   5   -0.71    0.57
   1   7   5    0.38    0.69
   1  -7  -5    2.00    0.75
   1  -7  -5   -0.05    0.56
  -1  -7  -5    0.30    0.59
   1  -7   5   -0.42    0.51
   1  -8   0    1.56    0.89
  -1  -8   0    3.32    0.86
   1  -8  -1    6.01    1.21
  -1  -8   1    8.14    1.16
   1  -8   1    7.93    1.20
   1  -8   1    5.86    1.17
  -1  -8  -1    6.88    1.14
   1  -8  -2    3.53    0.96
  -1  -8   2    3.59    0.83
  -1  -8   2    1.47    0.84
   1  -8   2    1.38    0.86
  -1  -8  -2    2.47    0.77
   1  -8   2    2.02    0.72
   1  -8  -3    3.00    0.95
  -1  -8   3    2.97    1.05
   1  -8   3    3.34    0.91
  -1  -8  -3    3.51    0.88
   1  -8   3    4.51    1.16
   2   0   0   33.40    1.00
   2   0   1   -0.41    0.18
   2   0  -1    0.36    0.26
   2   0  -1    0.13    0.11
  -2   0   2  135.16    2.66
   2   0   2  137.54    2.69
   2   0  -2  137.38    2.16
   2   0  -2  137.61    2.71
   2   0  -3    0.22    0.12
  -2   0  -3   -0.13    0.23
  -2   0   3    0.33    0.31
   2   0  -3    0.05    0.26
   2   0  -4   28.09    1.29
  -2   0   4   29.04    1.29
  -2   0  -4   29.10    1.31
   2   0   5    0.14    0.24
  -2   0   5    0.19    0.43
  -2   0  -5   -0.06    0.35
   2   0  -5    0.04    0.35
  -2   0  -6   71.78    2.57
   2   0  -6   72.04    2.57
   2   0   6   71.67    2.34
  -2   0   6   72.49    2.43
   2   0  -7   -0.12    0.39
  -2   0  -7    0.03    0.45
   2   0  -8   33.89    2.12
  -2   0  -8   32.92    2.14
   2  -1   0  403.18    5.72
   2  -1   0  392.18    5.65
   2   1   0  386.59    6.03
  -2  -1   1  490.27    7.32
   2   1   1  471.17    7.40
   2  -1  -1  480.86    7.06
   2  -1  -1  493.34    6.91
   2  -1   1  494.54    6.91
   2  -1   1  481.94    6.95
   2   1  -1  491.86    7.24
   2   1   2  137.05    2.83
   2  -1  -2  137.28    2.69
  -2  -1   2  135.29    2.87
   2  -1  -2  137.14    2.50
   2   1  -2  137.02    2.70
   2  -1   2  136.18    2.47
   2  -1   2  131.25    2.50
  -2  -1   3  494.29    7.86
   2  -1  -3  476.93    7.60
   2  -1  -3  477.85    7.13
  -2   1  -3  485.88    7.41
   2  -1   3  473.05    7.17
   2   1  -3  474.22    7.55
  -2   1   3  476.31    7.20
  -2  -1  -3  494.98    7.82
   2  -1  -4    9.51    0.92
  -2  -1   4    7.68    0.91
   2  -1  -4    8.55    0.54
  -2   1  -4    7.74    0.79
  -2  -1  -4    9.62    0.98
   2   1  -4    9.05    0.89
  -2   1   4    7.40    0.71
   2  -1   4    8.26    0.56
   2  -1  -5  111.45    3.09
   2   1   5  107.40    2.50
  -2  -1   5  107.83    3.14
  -2   1  -5  108.81    2.89
   2  -1   5  110.99    2.50
   2  -1   5  112.19    2.88
  -2   1   5  117.11    2.72
  -2  -1  -5  111.96    3.15
   2   1  -5  110.87    2.97
  -2  -1   6    9.39    1.24
   2  -1  -6    6.93    1.00
  -2   1  -6    7.32    0.97
   2  -1   6    7.39    0.96
  -2  -1  -6    8.07    1.11
   2  -1   6    8.11    0.78
   2   1  -6    8.18    1.06
  -2   1  -7   24.92    1.63
  -2  -1   7   22.35    1.76
   2  -1  -7   24.66    1.70
  -2  -1  -7   24.41    1.71
   2   1  -7   23.99    1.63
   2  -1   7   26.43    1.64
  -2   1  -8    2.41    0.84
   2  -1  -8    3.43    0.90
   2   1  -8    3.25    0.91
  -2  -1  -8    2.83    0.94
   2  -2   0  119.49    1.98
   2  -2   0  120.46    2.33
   2   2   0  119.39    2.58
  -2  -2   0  119.30    2.27
  -2  -2   0  122.45    2.44
   2  -2  -1    6.58    0.66
   2  -2  -1    6.82    0.46
  -2  -2   1    8.09    0.43
  -2  -2   1    6.40    0.66
   2   2   1    7.84    0.75
   2   2  -1    7.37    0.69
   2  -2   1    7.47    0.52
  -2  -2  -1    6.61    0.61
   2  -2   1    7.55    0.33
   2  -2  -2   93.64    2.23
   2  -2  -2   94.73    2.13
   2   2   2   94.27    2.37
  -2  -2   2   93.75    2.43
  -2  -2   2   96.74    1.57
   2  -2   2   95.96    2.03
   2   2  -2   96.92    2.20
   2  -2   2   92.52    1.76
   2  -2  -3   63.87    1.84
   2   2   3   66.05    1.99
  -2   2  -3   63.70    1.57
  -2  -2   3   65.02    2.10
   2  -2  -3   64.14    1.89
  -2  -2  -3   61.27    1.98
   2  -2   3   64.83    1.63
   2   2  -3   65.51    1.85
   2  -2  -4   16.78    0.97
   2  -2  -4   17.88    1.09
  -2   2  -4   17.04    0.90
  -2  -2   4   18.43    1.27
  -2  -2  -4   17.32    1.16
   2  -2   4   18.33    0.86
   2   2  -4   17.11    1.01
   2  -2  -5   49.32    2.02
  -2  -2   5   44.33    2.08
   2  -2  -5   48.30    1.59
  -2   2  -5   49.21    1.76
   2  -2   5   52.63    1.96
   2  -2   5   45.86    1.51
   2   2  -5   48.85    1.86
  -2  -2  -5   49.59    2.09
   2  -2  -6   36.64    1.90
  -2   2  -6   35.53    1.68
  -2  -2   6   40.06    2.12
   2   2  -6   35.52    1.78
   2  -2   6   40.92    1.48
  -2  -2  -6   35.94    1.97
   2  -2   6   39.35    1.93
   2  -2  -7    3.37    0.83
  -2  -2   7    3.15    1.02
  -2  -2  -7    2.66    0.83
   2  -2   7    3.34    0.83
   2   2  -7    4.36    0.87
  -2  -2   8    8.70    1.54
   2  -2  -8   10.65    1.49
   2   2  -8   11.89    1.42
  -2  -2  -8   10.58    1.56
   2  -2   8   13.16    1.67
   2  -3   0  617.70    8.33
  -2  -3   0  591.57    9.02
   2  -3   0  620.60    9.24
   2   3   0  602.74    9.31
  -2  -3   0  604.95    9.08
   2  -3  -1   67.08    1.54
  -2  -3   1   67.99    2.01
  -2  -3   1   68.95    1.66
   2  -3  -1   68.99    2.01
   2   3   1   69.86    2.01
   2   3  -1   72.47    1.95
  -2  -3  -1   64.55    1.87
   2  -3   1   69.73    1.82
   2  -3  -2  266.03    4.91
  -2  -3   2  268.33    5.09
  -2  -3   2  265.59    4.22
   2   3   2  265.60    5.07
   2  -3  -2  268.53    4.60
   2   3  -2  273.87    4.71
  -2  -3  -2  266.00    4.91
   2  -3   2  261.54    4.55
  -2  -3   3   14.97    1.13
   2  -3  -3   15.83    1.13
  -2  -3   3   17.50    0.61
   2   3   3   15.11    1.02
   2  -3  -3   16.42    0.97
   2  -3   3   14.42    0.82
   2   3  -3   17.50    0.99
   2  -3   3   16.90    0.62
  -2   3  -4   56.25    1.55
   2  -3  -4   55.91    1.98
  -2  -3   4   56.48    2.26
   2  -3  -4   57.20    1.97
  -2  -3  -4   55.56    2.13
   2  -3   4   55.06    1.68
   2   3  -4   55.32    1.83
   2  -3  -5   17.62    1.28
  -2  -3   5   19.83    1.52
   2  -3  -5   19.78    1.22
  -2  -3  -5   16.59    1.34
   2   3  -5   20.93    1.24
   2  -3   5   18.47    1.26
   2  -3   5   17.51    1.00
  -2  -3   6   16.61    1.74
   2  -3  -6   16.77    1.37
   2  -3   6   15.99    1.56
  -2  -3  -6   12.92    1.49
   2   3  -6   16.04    1.22
  -2  -3   7   15.86    1.84
   2  -3  -7   17.15    1.78
   2   3  -7   19.18    1.43
   2  -3   7   16.13    1.67
  -2  -3  -7   20.47    2.05
  -2  -4   0   36.05    1.40
   2  -4   0   36.09    0.88
   2   4   0   35.36    1.46
  -2  -4   0   36.76    1.42
   2  -4   0   34.48    1.60
   2  -4  -1   17.96    1.32
  -2  -4   1   18.39    0.97
   2  -4  -1   16.60    0.75
  -2  -4   1   19.57    1.13
   2   4   1   19.17    1.10
   2   4  -1   15.27    1.06
  -2  -4  -1   19.77    1.11
   2  -4   1   17.83    1.20
  -2  -4  -1   17.11    0.90
  -2  -4   2   37.58    1.68
  -2  -4   2   36.96    1.27
   2  -4  -2   38.41    1.74
   2   4   2   38.64    1.65
   2  -4  -2   36.44    1.30
   2  -4   2   38.92    1.53
  -2  -4  -2   36.18    1.59
   2   4  -2   36.10    1.46
   2  -4  -3   80.88    2.59
  -2  -4   3   84.91    2.77
  -2  -4   3   88.51    1.94
   2   4   3   86.52    2.65
   2  -4  -3   83.37    2.35
  -2  -4  -3   84.13    2.61
   2  -4   3   83.02    2.28
   2   4  -3   81.47    2.24
   2  -4  -4   22.06    1.28
  -2  -4   4   20.36    1.51
   2   4   4   19.47    1.33
   2  -4  -4   18.26    1.35
   2   4  -4   21.79    1.18
   2  -4   4   19.93    1.28
   2  -4   4   21.50    1.18
   2  -4  -5   48.72    2.10
   2  -4  -5   45.58    1.99
   2   4   5   48.59    2.21
  -2  -4   5   47.07    2.37
   2  -4   5   45.02    1.72
   2  -4   5   46.47    2.12
   2   4  -5   46.43    1.83
   2  -4  -6    4.77    0.94
   2  -4  -6    5.60    0.89
  -2  -4   6    5.64    1.13
   2   4   6    6.19    1.05
   2  -4   6    5.37    1.04
  -2  -4  -6    6.00    1.10
   2   4   7    0.92    0.57
  -2  -4   7    1.54    0.92
   2  -4  -7    0.94    0.62
   2  -4   7    1.76    0.74
  -2  -4  -7    0.33    0.66
   2   5   0  111.97    2.86
  -2  -5   0  107.39    2.86
   2  -5   0  103.25    3.10
  -2  -5   0  107.93    2.77
   2  -5  -1    3.09    0.44
  -2  -5   1    2.99    0.60
  -2  -5   1    3.63    0.72
   2   5   1    2.99    0.63
   2  -5  -1    2.55    0.89
   2   5  -1    2.55    0.68
   2  -5   1    3.41    0.91
  -2  -5  -1    2.59    0.65
  -2  -5  -1    3.05    0.60
  -2  -5   2   60.28    1.87
   2  -5  -2   61.59    1.85
   2   5   2   57.98    2.15
   2  -5  -2   62.02    2.36
  -2  -5   2   56.15    2.22
   2  -5   2   57.64    2.23
   2   5  -2   56.70    1.97
  -2  -5  -2   57.51    2.19
   2   5   3    8.44    1.06
  -2  -5   3    7.35    1.12
   2  -5  -3    8.59    0.91
   2  -5  -3    7.09    1.11
   2  -5   3    6.75    0.87
   2   5  -3    7.09    0.83
   2  -5   3    8.44    1.12
  -2  -5  -3    5.84    0.90
   2  -5  -4   44.67    2.08
   2  -5  -4   48.07    1.98
  -2  -5   4   47.14    2.30
   2   5   4   46.51    2.17
   2  -5   4   47.84    2.07
  -2  -5  -4   44.22    2.12
   2  -5   4   44.75    1.94
  -2  -5   5    7.95    1.30
   2   5   5    8.10    1.18
   2  -5  -5    7.52    1.07
   2  -5  -5    8.17    1.12
   2  -5   5    8.45    1.12
   2  -5   5    9.34    1.27
  -2  -5   6    9.23    1.50
   2  -5  -6   12.06    1.40
   2  -5  -6   13.16    1.61
   2   5   6   10.83    1.47
   2  -5   6   11.29    1.43
   2  -6   0    5.75    1.14
   2  -6   0    6.86    0.78
  -2  -6   0    7.69    1.01
  -2  -6   0    5.61    0.87
   2   6   0    7.97    1.03
  -2  -6   1   56.24    2.08
  -2  -6   1   57.78    2.22
   2   6   1   54.85    2.14
   2  -6  -1   58.26    2.40
   2  -6  -1   56.48    2.48
  -2  -6  -1   59.84    2.29
   2  -6   1   58.88    2.01
   2   6  -1   55.72    2.13
   2  -6   1   58.48    2.53
   2  -6  -2    5.48    1.07
  -2  -6   2    5.36    0.98
   2   6   2    6.39    0.98
  -2  -6   2    6.45    0.83
   2  -6   2    5.57    0.85
   2  -6   2    6.87    1.21
  -2  -6  -2    6.23    0.98
  -2  -6   3   13.39    1.48
   2  -6  -3   11.85    1.40
   2  -6  -3   14.21    1.12
   2   6   3   15.54    1.54
  -2  -6  -3   13.89    1.43
   2  -6   3   15.99    1.57
   2  -6   3   14.24    1.43
   2  -6  -4    7.24    1.02
   2   6   4    8.08    1.27
   2  -6  -4    8.47    1.19
  -2  -6   4    5.40    1.09
  -2  -6  -4    7.04    1.14
   2  -6   4    6.57    1.18
   2  -6   4    7.41    1.16
   2  -6  -5   12.55    1.43
   2   6   5   10.11    1.43
  -2  -6   5   11.15    1.56
   2  -6  -5   12.70    1.50
   2  -6   5    8.62    1.24
   2  -6  -6    8.10    1.28
   2  -6  -6    7.31    1.24
   2  -7   0    8.02    1.30
  -2  -7   0    9.78    1.16
   2  -7   0    8.53    0.97
  -2  -7   1    8.36    1.18
   2  -7  -1    9.00    1.44
  -2  -7   1    9.98    1.16
   2   7   1   11.74    1.28
  -2  -7  -1    8.47    1.16
   2  -7   1    7.98    1.42
   2  -7   1    9.05    1.07
   2  -7  -2    3.21    1.00
  -2  -7   2    6.17    0.88
  -2  -7   2    6.78    1.12
   2   7   2    7.11    1.10
  -2  -7  -2    7.33    1.16
   2  -7   2    6.11    1.01
   2  -7   2    5.06    1.21
   2  -7  -3   12.24    1.56
   2   7   3    9.69    1.33
  -2  -7   3   13.76    1.64
   2  -7   3   12.22    1.41
   2  -7   3   12.69    1.67
  -2  -7  -3   17.34    1.76
  -2  -7   4   13.44    1.64
   2   7   4   18.14    1.91
   2  -7  -4   16.95    1.76
   2  -7   4   15.54    1.76
  -2  -7  -4   14.98    1.64
   2  -7   4   13.11    1.57
   2  -8   0    2.18    0.95
  -2  -8   0    0.77    0.54
   2  -8  -1   22.18    2.17
  -2  -8   1   23.84    1.59
   2  -8   1   21.29    2.09
  -2  -8  -1   22.90    1.70
   2  -8   1   23.34    1.55
   2  -8  -2    7.45    1.40
  -2  -8   2    9.91    1.44
   2  -8   2    8.44    1.21
  -2  -8  -2    9.03    1.30
   2  -8   2   11.51    1.66
  -2  -8   3    1.60    0.91
   2  -8  -3    3.76    1.08
   2  -8   3    2.69    0.80
  -2  -8  -3    4.60    1.03
   2  -8   3    6.06    1.37
   3   0   0    0.20    0.30
   3   0   0   -0.03    0.13
   3   0   1  177.95    3.41
   3   0  -1  179.07    2.84
   3   0  -1  181.86    3.37
   3   0  -2   -0.09    0.30
   3   0   2    0.21    0.27
   3   0  -2   -0.24    0.21
   3   0  -3   34.27    0.88
   3   0  -3   32.35    1.35
   3   0   3   34.19    1.41
  -3   0   3   31.75    1.33
   3   0   4    0.22    0.29
  -3   0   4    0.18    0.38
   3   0  -4   -0.06    0.31
  -3   0   5    8.58    1.07
   3   0  -5   10.52    1.13
   3   0   5   10.25    1.05
   3   0  -6    0.63    0.48
   3   0   6    0.41    0.31
  -3   0   6   -0.17    0.46
  -3   0  -6    0.74    0.48
   3   0  -7    3.69    0.87
  -3   0  -7    2.01    0.72
   3   0  -8    0.61    0.61
   3   0   8    0.35    0.52
   3   1   0    0.03    0.36
   3  -1   0    0.39    0.20
   3  -1   0    0.40    0.30
   3   1   1    0.51    0.35
   3  -1  -1    0.95    0.26
   3  -1  -1    0.38    0.30
   3  -1   1    0.86    0.30
   3  -1   1    0.74    0.23
   3   1  -1    1.20    0.44
  -3  -1   2   25.98    1.23
   3  -1  -2   25.66    1.00
   3   1   2   27.00    1.26
   3  -1  -2   27.12    1.12
   3  -1   2   26.13    0.96
   3  -1   2   26.50    1.06
   3   1  -2   25.85    0.57
   3   1  -2   26.70    1.19
  -3  -1   3    6.74    0.86
   3  -1  -3    5.52    0.64
   3   1   3    7.39    0.84
   3  -1  -3    6.06    0.73
   3  -1   3    6.13    0.69
   3  -1   3    5.87    0.59
   3   1  -3    4.98    0.69
   3  -1  -4   55.93    1.46
   3  -1  -4   55.84    1.96
  -3  -1   4   53.84    2.06
   3   1   4   56.51    2.03
   3  -1   4   58.04    1.69
   3   1  -4   58.63    1.96
   3  -1   4   56.57    1.85
   3  -1  -5   13.50    1.12
   3   1   5   13.14    1.07
  -3  -1   5   13.94    1.37
   3  -1   5   14.36    0.87
   3  -1   5   13.25    0.98
   3   1  -5   11.57    1.16
   3  -1  -6    9.10    1.17
  -3   1  -6    8.66    1.09
   3   1   6    9.09    1.15
  -3  -1   6    7.97    1.15
   3   1  -6    9.65    1.17
  -3  -1  -6   11.57    1.34
   3  -1   6    9.58    0.91
   3  -1   6    7.82    0.97
   3   1   7    7.69    1.22
  -3  -1   7    6.31    1.19
   3  -1  -7   10.77    1.42
  -3   1  -7    8.67    1.21
   3  -1   7    6.47    1.05
   3  -1   7    7.97    0.91
  -3  -1  -7    5.74    1.07
   3   1  -7    7.77    1.15
   3  -1   7    8.76    1.18
   3  -2   0   41.19    1.11
   3   2   0   41.45    1.54
   3  -2   0   41.67    1.26
  -3  -2   1   52.66    1.76
   3   2   1   52.16    1.81
   3  -2  -1   51.47    1.41
   3  -2  -1   53.23    1.52
   3  -2   1   51.93    1.47
   3  -2   1   51.50    1.20
   3   2  -1   55.00    1.75
   3  -2  -2   47.97    1.51
   3  -2  -2   47.46    1.58
   3   2   2   49.68    1.81
  -3  -2   2   49.08    1.82
   3  -2   2   50.01    1.45
   3   2  -2   46.56    1.66
   3  -2   2   50.43    1.27
   3   2   3   -0.15    0.31
   3  -2  -3   -0.23    0.49
  -3  -2   3    0.07    0.38
   3  -2  -3   -0.17    0.25
   3  -2   3   -0.08    0.18
   3  -2   3    0.05    0.21
   3   2  -3   -0.37    0.32
  -3  -2   4   13.81    1.38
   3   2   4   14.48    1.10
   3  -2  -4   13.93    0.99
   3  -2  -4   13.04    0.99
   3   2  -4   13.90    1.06
   3  -2   4   13.55    0.82
   3  -2   4   13.44    0.85
  -3  -2   5    4.43    0.95
   3   2   5    5.00    0.83
   3  -2  -5    4.47    0.81
   3  -2   5    4.21    0.61
   3  -2   5    4.32    0.67
   3   2  -5    3.75    0.77
  -3  -2   6    2.24    0.89
   3  -2  -6    1.38    0.58
   3   2   6    2.18    0.69
   3  -2   6    1.98    0.51
   3  -2   6    2.38    0.63
   3   2  -6    1.78    0.63
   3  -2  -7    0.61    0.53
   3   2   7    1.66    0.59
  -3  -2   7    0.24    0.72
   3   2  -7   -0.19    0.45
   3  -2   7    0.26    0.49
  -3  -3   0   96.97    2.45
   3  -3   0   95.47    2.35
   3   3   0   94.55    2.59
   3  -3   0   97.10    1.82
   3   3   1    5.39    0.80
  -3  -3   1    6.05    0.83
   3  -3  -1    5.69    0.84
   3  -3  -1    6.22    0.48
   3  -3   1    4.72    0.63
   3  -3   1    5.48    0.31
   3   3  -1    5.16    0.78
  -3  -3   2   29.30    1.51
   3  -3  -2   32.45    1.52
   3  -3  -2   29.00    1.15
   3   3   2   29.78    1.49
   3  -3   2   29.06    0.70
   3  -3   2   28.37    1.19
   3   3  -2   29.94    1.43
   3  -3  -3    3.94    0.62
   3  -3  -3    3.90    0.79
   3   3   3    3.44    0.70
  -3  -3   3    4.63    0.85
   3  -3   3    3.66    0.57
   3  -3   3    3.88    0.43
   3   3  -3    4.59    0.73
  -3  -3   4    3.34    0.85
   3  -3  -4    5.66    0.91
   3  -3  -4    5.11    0.77
   3   3   4    5.54    0.89
   3   3  -4    4.27    0.78
   3  -3   4    5.36    0.69
   3  -3  -5    8.07    1.07
  -3  -3   5    9.55    1.32
   3  -3  -5    8.38    1.00
   3   3   5    8.45    1.16
   3  -3   5    7.65    0.88
   3   3  -5    8.30    1.01
  -3  -3   6    6.16    1.30
   3  -3  -6    4.68    0.92
   3   3   6    7.13    1.12
   3  -3   6    6.72    0.89
   3   3  -6    7.29    1.01
   3  -3   6    4.75    0.88
   3  -3  -7   12.23    1.52
  -3  -3   7   10.56    1.59
   3   3   7   11.12    1.49
   3  -3   7   12.69    1.53
   3   3  -7   11.88    1.43
   3   4   0    0.14    0.45
  -3  -4   0    0.38    0.42
   3  -4   0    0.81    0.58
  -3  -4   0    0.08    0.24
   3  -4   0    0.15    0.14
  -3  -4   1   11.13    1.08
  -3  -4   1   11.36    0.74
   3  -4  -1   10.21    1.15
   3   4   1   11.24    1.13
   3  -4  -1   10.36    0.62
  -3  -4  -1   11.03    0.87
   3  -4   1   11.92    1.07
   3   4  -1   11.43    1.14
   3  -4  -2   30.50    1.22
  -3  -4   2   30.40    1.09
   3  -4  -2   29.07    1.70
  -3  -4   2   32.79    1.69
   3   4   2   29.93    1.58
  -3  -4  -2   30.43    1.47
   3  -4   2   32.70    1.45
   3   4  -2   29.07    1.58
  -3  -4   3    8.84    1.16
   3  -4  -3   10.83    0.86
   3  -4  -3   10.32    1.19
   3   4   3   13.35    1.35
   3  -4   3   11.85    1.05
   3   4  -3   11.46    1.13
  -3  -4   4    9.78    1.31
   3   4   4   10.15    1.23
   3  -4  -4    9.10    1.01
   3  -4  -4   10.79    1.22
   3  -4   4   11.28    1.05
   3   4  -4   10.08    1.09
  -3  -4   5    4.95    1.15
   3  -4  -5    6.33    0.94
   3  -4  -5    5.04    0.91
   3   4   5    4.13    0.92
   3  -4   5    4.48    0.77
   3   4  -5    6.17    0.90
   3  -4   5    5.39    0.89
   3   4   6    0.63    0.57
   3  -4  -6    0.22    0.49
  -3  -4   6   -0.42    0.69
   3  -4   6    0.24    0.44
   3  -4   6    0.55    0.57
   3   4  -6    0.92    0.52
   3  -4  -7    1.82    0.81
   3   4   7    0.22    0.63
  -3  -4   7   -0.40    0.81
   3  -4   7    0.55    0.61
  -3  -5   0   12.95    1.00
   3  -5   0   11.76    1.31
   3   5   0   14.79    1.21
  -3  -5   0   13.62    1.15
   3  -5  -1   23.04    0.95
  -3  -5   1   23.78    1.20
   3  -5  -1   24.49    1.76
   3   5   1   23.74    1.50
  -3  -5   1   23.71    1.47
   3  -5   1   20.93    1.58
   3   5  -1   21.63    1.51
  -3  -5  -1   22.76    1.31
   3  -5  -2   13.34    1.46
   3   5   2   14.15    1.42
  -3  -5   2   11.72    1.35
  -3  -5   2   14.19    0.91
   3  -5  -2   14.44    0.90
   3  -5   2   12.24    1.31
   3   5  -2   13.45    1.32
  -3  -5  -2   12.79    1.28
   3  -5  -3   37.41    2.02
   3   5   3   38.35    2.01
  -3  -5   3   37.02    2.06
   3  -5  -3   38.84    1.61
  -3  -5  -3   39.98    1.93
   3   5  -3   37.61    1.80
   3  -5   3   37.64    1.80
   3   5   4    5.32    1.01
   3  -5  -4    4.64    0.81
   3  -5  -4    7.95    1.21
  -3  -5   4    4.15    1.02
   3   5  -4    7.04    0.97
   3  -5   4    5.43    0.94
   3  -5  -5    6.71    1.07
  -3  -5   5    5.22    1.17
   3  -5  -5    5.45    0.95
   3   5   5    7.33    1.21
   3  -5   5    5.03    0.95
   3  -5   5    5.29    0.99
   3  -5  -6    1.10    0.60
  -3  -5   6    1.35    0.94
   3   5   6   -0.01    0.61
   3  -5  -6    2.58    0.89
   3  -5   6    1.43    0.69
  -3  -6   0   -0.84    0.42
   3   6   0    0.32    0.59
  -3  -6   0    0.50    0.40
   3  -6   0    0.45    0.83
   3   6   1   18.70    1.47
  -3  -6   1   21.30    1.49
  -3  -6   1   20.66    1.26
   3  -6  -1   17.96    1.79
   3  -6   1   18.98    1.84
   3   6  -1   20.47    1.57
  -3  -6  -1   20.90    1.38
  -3  -6   2    0.77    0.68
  -3  -6   2    1.03    0.41
   3  -6  -2    0.38    0.84
   3   6   2    0.36    0.54
   3  -6   2    1.65    0.89
   3   6  -2    1.27    0.75
  -3  -6  -2    1.11    0.54
   3  -6  -3    7.42    1.28
   3   6   3    7.47    1.20
  -3  -6   3    8.45    1.28
   3  -6   3    6.20    1.21
   3  -6   3    5.31    0.87
  -3  -6  -3    5.67    0.97
   3  -6  -4    2.43    0.96
   3   6   4    3.19    0.94
  -3  -6   4    3.27    1.01
   3  -6  -4    1.67    0.61
   3  -6   4    1.96    0.99
   3  -6   4    3.35    0.80
   3   6   5   -0.15    0.60
  -3  -6   5    1.58    0.89
   3  -6  -5    1.51    0.67
   3  -6  -5    2.33    0.80
   3  -6   5    0.45    0.94
   3  -6   5    0.83    0.59
  -3  -7   0    4.47    0.82
   3  -7   0    4.16    1.20
   3   7   0    4.83    1.32
   3  -7   0    5.02    0.73
   3  -7  -1   11.90    1.61
   3   7   1   13.19    1.44
  -3  -7   1   15.87    1.21
  -3  -7   1   14.92    1.53
   3  -7   1   15.77    1.14
  -3  -7  -1   13.43    1.42
   3  -7   1   11.81    1.64
   3  -7  -2    1.00    0.93
   3   7   2    1.59    0.80
  -3  -7   2    1.26    0.80
   3  -7   2    1.41    0.56
  -3  -7  -2    2.11    0.71
   3  -7   2    2.97    1.16
   3  -7  -3   10.31    1.52
   3   7   3    8.63    1.35
  -3  -7   3    9.72    1.50
   3  -7   3    7.25    1.45
  -3  -7  -3    8.08    1.20
   3  -7   3    7.48    1.13
   3  -7  -4    4.10    1.07
  -3  -7   4    2.64    1.05
   3   7   4    5.64    1.26
   3  -7   4    4.03    0.94
   3  -7   4    2.91    1.24
   3  -8   0    3.02    1.14
  -3  -8   0    2.94    0.76
  -3  -8   1    0.54    0.50
   3  -8  -1    0.71    0.94
   3  -8   1    0.51    0.50
   3  -8   1    2.02    1.13
  -3  -8  -1    0.19    0.52
   3  -8  -2    2.36    1.13
  -3  -8   2    0.33    0.70
   3  -8   2    0.45    0.50
   3  -8   2    2.20    1.19
  -3  -8  -2    1.17    0.64
   4   0   0  772.90   10.99
   4   0   0  786.18   11.59
   4   0   1    0.30    0.34
   4   0  -1    0.25    0.17
   4   0  -1    0.72    0.44
   4   0   2  299.23    5.60
   4   0  -2  307.51    5.44
   4   0  -2  302.86    4.58
   4   0   3    0.11    0.30
   4   0  -3   -0.02    0.36
   4   0  -3    0.05    0.37
   4   0  -4   58.64    2.10
   4   0   4   56.94    2.19
   4   0   5   -0.32    0.33
   4   0  -5    0.06    0.45
  -4   0   5   -0.08    0.46
   4   0  -6   26.79    1.70
  -4   0   6   30.09    1.77
   4   0   6   28.17    1.75
   4   0   7    0.18    0.54
   4   0  -7    0.46    0.52
   4   0   7    0.25    0.28
   4   1   0    6.86    0.84
   4  -1   0    6.38    0.67
   4  -1   0    6.67    0.52
   4  -1  -1    7.41    0.55
   4  -1  -1    7.18    0.73
   4   1   1    7.51    0.88
   4   1  -1    7.68    0.87
   4  -1   1    8.20    0.75
   4  -1   1    7.47    0.56
   4  -1  -2    7.23    0.66
   4   1   2    6.04    0.82
   4  -1  -2    7.29    0.80
   4   1  -2    6.67    0.36
   4   1  -2    6.71    0.85
   4  -1   2    6.08    0.71
   4  -1   2    7.54    0.72
   4   1   3   55.68    2.11
   4  -1  -3   53.11    1.62
  -4  -1   3   58.38    2.09
   4  -1  -3   49.33    1.82
   4  -1   3   54.56    1.68
   4   1  -3   52.10    1.93
   4  -1   3   53.58    1.84
  -4  -1   4    1.64    0.61
   4  -1  -4    0.78    0.46
   4   1   4    1.12    0.52
   4  -1   4    1.14    0.49
   4  -1   4    0.32    0.27
   4   1  -4    1.28    0.52
  -4  -1   5   51.80    2.30
   4  -1  -5   54.26    2.20
   4   1   5   54.37    2.36
   4   1  -5   50.53    2.15
   4  -1   5   49.33    2.08
   4  -1   5   53.06    1.83
  -4  -1   6    4.94    1.04
   4   1   6    5.11    0.98
   4  -1  -6    5.75    1.04
   4  -1   6    4.73    0.73
   4  -1   6    5.30    0.95
   4   1  -6    5.01    0.93
   4   1   7    3.50    0.95
  -4  -1   7    4.82    1.15
   4  -1  -7    4.54    0.98
   4   1  -7    5.77    1.09
   4  -1   7    6.12    0.85
   4  -1   7    4.92    0.86
   4  -2   0  169.32    3.26
   4  -2   0  162.87    3.07
   4   2   0  163.85    3.76
   4   2   1   82.17    2.55
   4  -2  -1   79.66    2.01
   4  -2  -1   80.88    2.04
   4  -2   1   81.51    1.86
   4   2  -1   78.94    2.41
   4  -2   1   83.55    2.10
   4  -2  -2   81.65    2.20
   4  -2  -2   82.87    2.22
  -4  -2   2   81.45    2.56
   4   2   2   85.77    2.67
   4   2  -2   83.38    2.51
   4  -2   2   85.84    2.17
   4  -2   2   82.47    1.94
  -4  -2   3  130.60    3.54
   4  -2  -3  126.44    3.01
   4  -2  -3  129.08    3.17
   4   2   3  135.36    3.62
   4  -2   3  135.86    2.91
   4   2  -3  129.93    3.30
   4  -2   3  129.68    2.96
   4  -2  -4   40.84    1.80
   4   2   4   45.28    2.12
   4  -2  -4   44.32    1.70
  -4  -2   4   47.38    2.18
   4  -2   4   46.62    1.72
   4   2  -4   43.11    1.91
   4  -2   4   45.88    1.66
   4  -2  -5   42.12    1.96
  -4  -2   5   36.95    2.08
   4   2   5   39.63    2.10
   4  -2   5   38.19    1.95
   4   2  -5   39.76    1.90
   4  -2   5   39.70    1.63
   4  -2  -6   11.11    1.35
  -4  -2   6   10.07    1.42
   4   2   6    8.73    1.28
   4   2  -6   11.62    1.36
   4  -2   6   13.24    1.23
   4   2   7    5.24    1.15
   4  -2  -7    7.84    1.24
  -4  -2   7    5.49    1.25
   4  -2   7    7.45    0.97
   4   2  -7    5.50    1.03
   4  -2   7    7.90    1.13
   4   3   0    2.06    0.63
   4  -3   0    3.36    0.43
   4  -3   0    3.68    0.64
   4   3   1   28.72    1.58
   4  -3  -1   30.58    1.11
   4  -3  -1   26.99    1.40
  -4  -3   1   29.31    1.53
   4   3  -1   27.37    1.55
   4  -3   1   29.60    1.28
   4  -3   1   28.39    0.90
   4  -3  -2    7.95    1.00
  -4  -3   2    6.57    0.94
   4   3   2    6.61    0.94
   4  -3  -2    7.76    0.77
   4   3  -2   10.22    1.16
   4  -3   2    7.70    0.81
   4  -3   2    7.23    0.54
   4  -3  -3   30.22    1.67
   4  -3  -3   30.25    1.38
   4   3   3   25.40    1.62
  -4  -3   3   27.51    1.72
   4   3  -3   28.61    1.65
   4  -3   3   26.49    1.30
   4  -3  -4    3.42    0.69
   4   3   4    3.26    0.80
  -4  -3   4    3.40    0.92
   4  -3  -4    4.50    0.89
   4   3  -4    3.76    0.81
   4  -3   4    4.90    0.74
   4   3   5   11.62    1.45
  -4  -3   5   12.07    1.52
   4  -3  -5   10.97    1.26
   4  -3   5   10.28    1.08
   4   3  -5   11.51    1.27
   4   3   6   23.06    1.84
   4  -3  -6   23.87    1.69
  -4  -3   6   27.17    2.09
   4   3  -6   24.23    1.66
   4  -3   6   23.81    1.45
   4  -3  -7    1.16    0.65
  -4  -3   7   -1.21    0.69
   4   3   7    0.65    0.72
   4  -3   7    0.09    0.42
   4   3  -7    1.51    0.60
   4   4   0    5.65    0.96
   4  -4   0    6.38    0.99
   4  -4   0    5.87    0.45
  -4  -4   1   83.57    2.72
   4   4   1   81.29    2.77
   4  -4  -1   78.24    2.63
   4  -4  -1   79.55    1.94
   4   4  -1   79.63    2.78
   4  -4   1   82.30    2.46
   4  -4  -2   11.14    0.82
   4  -4  -2   12.92    1.43
  -4  -4   2   11.87    1.35
   4   4   2   12.22    1.34
   4  -4   2   11.19    1.07
   4   4  -2   12.56    1.36
   4  -4  -3   61.61    2.07
   4  -4  -3   61.51    2.45
   4   4   3   63.84    2.60
  -4  -4   3   61.66    2.61
   4  -4   3   61.26    2.11
   4   4  -3   62.16    2.38
   4  -4  -4   11.42    1.30
  -4  -4   4   10.10    1.41
   4  -4  -4   11.55    1.20
   4   4   4   11.86    1.46
   4   4  -4    9.88    1.19
   4  -4   4    9.92    1.08
   4  -4  -5   20.83    1.46
  -4  -4   5   22.19    1.83
   4   4   5   17.16    1.76
   4  -4  -5   19.54    1.40
   4  -4   5   18.47    1.33
   4   4  -5   21.11    1.48
   4  -4  -6    2.00    0.77
  -4  -4   6    0.75    0.90
   4   4   6    0.28    0.61
   4  -4   6    1.43    0.58
   4   4  -6    2.19    0.73
   4  -4   6    1.98    0.72
   4   5   0   28.84    1.78
  -4  -5   0   24.55    1.52
   4  -5   0   25.05    1.73
   4  -5  -1   31.55    1.97
   4   5   1   32.29    1.85
  -4  -5   1   31.14    1.79
   4   5  -1   32.83    1.98
   4  -5   1   29.02    1.89
  -4  -5   2   22.18    1.67
   4  -5  -2   22.17    1.13
   4   5   2   19.51    1.62
   4  -5  -2   21.05    1.83
   4   5  -2   19.80    1.74
   4  -5   2   21.35    1.51
   4   5   3    7.96    1.22
   4  -5  -3   12.13    1.47
  -4  -5   3   11.77    1.51
   4  -5  -3   10.75    1.05
   4   5  -3   10.97    1.30
   4  -5   3   11.30    1.27
  -4  -5   4    2.71    0.98
   4  -5  -4    4.32    1.05
   4  -5  -4    1.61    0.57
   4   5   4    1.40    0.69
   4  -5   4    1.58    0.74
   4   5  -4    1.92    0.73
  -4  -5   5    0.05    0.70
   4  -5  -5    0.81    0.53
   4  -5  -5    2.30    0.77
   4   5   5    0.87    0.73
   4   5  -5    3.03    0.79
   4  -5   5   -0.19    0.67
   4   5   6   10.00    1.60
  -4  -5   6    9.68    1.61
   4  -5  -6    7.91    1.22
   4  -5   6   11.08    1.44
   4  -5   6    8.18    1.31
   4   6   0   15.66    1.55
  -4  -6   0   15.29    1.17
  -4  -6   0   15.33    1.42
   4  -6   0   14.27    1.63
  -4  -6   1   14.17    1.53
   4  -6  -1   16.70    1.80
   4   6   1   14.91    1.55
  -4  -6   1   16.20    1.14
   4  -6   1   15.71    1.71
  -4  -6  -1   15.27    1.41
   4   6  -1   15.31    1.56
   4  -6  -2   10.04    1.49
  -4  -6   2    7.90    1.27
   4   6   2    9.74    1.34
   4  -6   2    9.15    1.36
   4   6  -2   11.48    1.50
   4  -6  -3   13.62    1.61
  -4  -6   3   13.28    1.60
   4   6   3   15.53    1.74
   4  -6   3   11.62    1.50
   4   6  -3   16.07    1.64
  -4  -6   4    3.66    1.05
   4   6   4    3.79    1.09
   4  -6  -4    5.41    1.25
   4  -6   4    3.72    1.14
  -4  -6   5    2.01    1.00
   4  -6  -5    3.75    0.89
   4  -6  -5    4.28    1.01
   4   6   5    3.46    1.06
   4  -6   5    2.10    1.13
   4  -6   5    2.79    0.77
   4   7   0   -0.31    0.74
   4  -7   0    0.41    1.02
  -4  -7   0    0.52    0.43
  -4  -7   1    0.85    0.46
   4   7   1   -1.07    0.65
  -4  -7   1    0.37    0.65
   4  -7  -1    1.49    1.10
  -4  -7  -1    0.74    0.50
   4  -7   1   -0.31    0.97
  -4  -7   2   14.80    1.70
   4   7   2   11.39    1.52
   4  -7  -2   14.39    1.84
   4  -7   2   12.33    1.79
   4   7   3    2.52    1.04
   4  -7  -3    3.71    1.25
  -4  -7   3    3.80    1.09
   4  -7   3    3.39    1.26
   4  -7   3    4.32    0.88
   4  -8   0   14.47    2.04
  -4  -8   0   15.30    1.52
   4  -8  -1    2.56    1.29
  -4  -8  -1    2.35    0.73
   4  -8   1    1.19    0.50
   4  -8   1    4.03    1.41
   5   0   0    0.24    0.44
   5   0   0    0.03    0.18
   5   0  -1   35.31    1.11
   5   0   1   33.43    1.52
   5   0   1   33.54    1.22
   5   0  -1   35.18    1.58
   5   0   2   -0.12    0.42
   5   0  -2   -0.18    0.22
   5   0  -2    0.41    0.48
   5   0  -3    4.29    0.76
   5   0   3    3.26    0.77
   5   0  -4   -0.09    0.45
   5   0   4   -0.36    0.44
   5   0   5   22.61    1.63
   5   0  -5   22.26    1.56
   5   0  -6    0.43    0.56
   5   0   6    0.47    0.63
   5   0   6   -0.05    0.25
   5   0  -7   30.03    2.02
   5   0   7   28.05    1.55
   5   0   7   29.19    2.12
   5  -1   0   23.16    1.01
   5  -1   0   24.15    1.24
   5   1   0   23.84    1.42
   5  -1  -1   20.01    1.18
   5  -1  -1   20.07    0.93
   5   1   1   18.89    1.28
   5   1  -1   21.10    1.36
   5  -1   1   20.13    1.13
   5   1  -1   19.44    0.77
   5  -1   1   20.03    0.97
   5  -1  -2   54.86    1.59
   5   1   2   58.83    2.26
   5  -1  -2   55.57    1.96
   5   1  -2   57.17    2.12
   5   1  -2   51.79    1.29
   5  -1   2   57.08    1.79
   5  -1   2   58.42    1.91
   5   1   3    8.79    1.17
   5  -1  -3    9.89    0.94
   5  -1  -3    7.84    0.98
   5   1  -3    8.71    1.07
   5  -1   3    6.58    0.78
   5  -1   3    7.19    0.91
   5   1   4   16.99    1.42
   5  -1  -4   14.55    1.20
   5  -1   4   16.00    1.25
   5   1  -4   16.66    1.37
   5  -1   4   16.53    1.06
   5   1   5    2.01    0.72
   5  -1  -5    0.89    0.60
   5  -1   5    1.66    0.65
   5   1  -5    2.74    0.72
   5  -1   5    2.25    0.55
   5  -1  -6    2.07    0.73
   5   1   6    1.31    0.76
  -5  -1   6    1.93    0.80
   5   1  -6    2.05    0.74
   5  -1   6    3.01    0.65
   5  -1   6    1.93    0.76
   5   1   7    0.43    0.69
   5  -1  -7    1.12    0.69
   5  -1   7    0.78    0.47
   5   1  -7    1.28    0.72
   5   2   0    8.70    1.08
   5  -2   0   10.39    0.83
   5  -2   0    9.71    0.76
   5   2   1   26.70    1.59
   5  -2  -1   23.57    1.19
   5  -2  -1   26.32    1.20
   5  -2   1   23.85    1.16
   5  -2   1   25.16    1.15
   5   2  -1   24.84    1.58
   5  -2  -2   27.21    1.35
   5   2   2   24.81    1.60
   5  -2  -2   27.27    1.37
   5  -2   2   27.87    1.27
   5   2  -2   23.17    1.57
   5   2  -2   25.50    0.80
   5  -2   2   25.82    1.18
   5  -2  -3   25.27    1.41
   5   2   3   27.30    1.73
   5  -2  -3   28.47    1.54
  -5  -2   3   27.93    1.77
   5  -2   3   24.98    1.27
   5   2  -3   28.14    1.69
   5  -2   3   26.48    1.29
   5  -2  -4   31.20    1.67
  -5  -2   4   30.59    1.90
   5   2   4   28.65    1.85
   5  -2   4   29.83    1.51
   5   2  -4   31.97    1.82
   5  -2   4   29.95    1.46
   5   2   5    3.81    0.95
   5  -2  -5    4.52    0.89
  -5  -2   5    2.08    0.87
   5   2  -5    3.81    0.87
   5  -2   5    3.26    0.66
  -5  -2   6    3.96    1.09
   5  -2  -6    4.10    0.99
   5   2   6    5.86    1.21
   5   2  -6    6.31    1.08
   5  -2   6    4.69    0.82
  -5  -2   7    6.49    1.39
   5  -2  -7    6.49    1.18
   5   2   7    4.79    1.19
   5   2  -7    8.59    1.34
   5  -2   7    4.21    0.84
   5   3   0    0.63    0.68
   5  -3   0    0.80    0.49
   5  -3   0    0.47    0.34
   5   3   1   75.56    2.78
   5  -3  -1   79.07    2.38
   5  -3  -1   79.12    2.12
   5  -3   1   78.48    1.88
   5   3  -1   77.87    2.77
   5  -3   1   77.96    2.33
  -5  -3   2    9.10    1.19
   5   3   2    9.26    1.23
   5  -3  -2    6.35    1.01
   5  -3  -2    7.51    0.84
   5  -3   2    9.61    1.00
   5   3  -2    9.63    1.32
  -5  -3   3    5.14    1.03
   5   3   3    6.71    1.11
   5  -3  -3    7.56    0.92
   5  -3  -3    6.11    1.06
   5  -3   3    7.15    0.87
   5   3  -3    6.74    1.13
  -5  -3   4   -0.06    0.63
   5  -3  -4    0.08    0.43
   5   3   4    1.12    0.69
   5  -3  -4    2.90    0.80
   5   3  -4    1.35    0.73
   5  -3   4    1.57    0.54
  -5  -3   5    0.58    0.70
   5  -3  -5    0.37    0.51
   5   3   5    0.91    0.70
   5   3  -5    0.40    0.56
   5  -3   5    0.32    0.43
   5  -3  -6    4.22    0.95
  -5  -3   6    2.51    0.94
   5   3   6    2.88    0.95
   5  -3   6    2.73    0.74
   5   3  -6    3.25    0.85
   5   4   0   23.90    1.72
   5  -4   0   23.14    1.52
   5  -4  -1    9.35    0.73
   5  -4  -1    9.29    1.24
   5   4   1   10.77    1.39
   5  -4   1    8.23    1.00
   5   4  -1    9.44    1.32
  -5  -4   2    6.35    1.12
   5   4   2    7.45    1.21
   5  -4  -2    7.71    0.83
   5  -4  -2    7.18    1.25
   5   4  -2    7.24    1.29
   5  -4   2    6.67    0.95
   5  -4  -3   19.54    1.69
  -5  -4   3   21.67    1.75
   5  -4  -3   18.60    1.20
   5   4   3   20.10    1.66
   5  -4   3   18.22    1.29
   5   4  -3   17.84    1.68
   5  -4  -4   27.17    1.57
   5   4   4   23.55    1.89
  -5  -4   4   21.21    1.81
   5  -4  -4   26.12    1.70
   5  -4   4   23.29    1.51
   5   4  -4   25.48    1.77
   5  -4  -5    9.81    1.26
  -5  -4   5    7.80    1.41
   5   4   5    7.47    1.34
   5   4  -5    8.48    1.24
   5  -4   5   10.69    1.22
   5  -4  -6   13.14    1.52
   5   4   6   10.37    1.60
  -5  -4   6   12.06    1.76
   5  -4   6   12.97    1.46
   5   4  -6   12.30    1.46
   5  -5   0    2.34    0.97
   5   5   0    1.03    0.81
  -5  -5   1   11.45    1.36
   5   5   1   14.02    1.58
   5  -5  -1   13.41    1.60
   5   5  -1   13.52    1.56
   5  -5   1   11.80    1.40
  -5  -5   2    4.82    1.09
   5   5   2    3.57    1.01
   5  -5  -2    5.03    1.25
   5   5  -2    3.54    1.08
   5  -5   2    4.57    1.00
   5   5   3    0.21    0.70
   5  -5  -3    0.83    0.45
   5  -5  -3    1.00    0.95
  -5  -5   3    1.63    0.87
   5   5  -3    1.13    0.84
   5  -5   3   -0.61    0.58
   5  -5  -4    9.85    1.40
   5  -5  -4    8.25    1.07
   5   5   4    7.55    1.37
  -5  -5   4    6.17    1.24
   5  -5   4    6.00    1.14
   5   5  -4    9.00    1.33
   5  -5  -5    4.05    0.91
  -5  -5   5    4.73    1.25
   5   5   5    6.81    1.42
   5   5  -5    4.22    0.97
   5  -5   5    2.91    0.95
   5   6   0   38.38    2.24
   5  -6   0   36.21    2.40
   5   6   1    0.32    0.69
  -5  -6   1    0.66    0.70
   5  -6  -1   -0.21    1.02
   5   6  -1    0.20    0.85
   5  -6   1   -0.70    0.77
  -5  -6   2   18.64    1.84
   5  -6  -2   18.34    2.02
   5   6   2   21.12    2.01
   5  -6   2   20.01    1.95
   5   6  -2   20.74    1.97
  -5  -6   3   -0.47    0.69
   5  -6  -3    0.70    0.97
   5   6   3   -0.43    0.75
   5  -6   3   -1.16    0.86
   5   6  -3    1.29    0.88
  -5  -6   4    6.54    1.40
   5   6   4    9.13    1.53
   5  -6  -4   12.03    1.65
   5  -6   4    7.47    1.41
   5  -7   0    1.44    1.25
   5   7   0    1.18    0.99
   5  -7  -1    3.35    1.41
   5   7   1    4.16    1.21
  -5  -7   1    6.22    1.20
   5  -7   1    4.75    1.40
   5   7  -1    3.07    1.18
   5   7   2    1.31    1.01
   5  -7  -2    1.64    1.24
  -5  -7   2    1.52    0.94
   5  -7   2    1.55    1.21
  -5  -7   3   10.30    1.67
   5   7   3    9.87    1.61
   5  -7  -3   12.51    1.81
   5  -7   3    8.91    1.62
   6   0   0    6.44    0.96
   6   0   0    6.44    0.70
   6   0   1   -0.08    0.24
   6   0  -1    0.06    0.57
   6   0  -1   -0.12    0.21
   6   0   1    0.04    0.54
   6   0  -2   13.33    1.32
   6   0  -2   14.47    0.83
   6   0   2   13.91    1.34
   6   0   2   13.82    0.91
   6   0   3    0.12    0.56
   6   0   3    0.12    0.26
   6   0  -3    0.24    0.52
   6   0  -4    3.11    0.78
   6   0   4    1.77    0.51
   6   0   4    1.81    0.79
   6   0  -5    0.61    0.56
   6   0   5   -0.28    0.58
   6   0   5    0.34    0.33
   6   0   6   12.65    1.23
   6   0  -6    9.40    1.35
   6   0   6   11.56    1.54
   6   1   0   45.61    1.48
   6  -1   0   46.02    1.89
   6   1   0   49.17    2.14
   6  -1   0   45.38    1.58
   6  -1  -1   60.26    1.80
   6   1   1   59.08    2.37
   6  -1  -1   58.32    2.10
   6  -1   1   60.62    2.09
   6   1  -1   58.30    2.39
   6   1  -1   56.16    1.60
   6  -1   1   59.03    1.89
   6  -1  -2   19.27    1.06
   6   1   2   14.54    1.46
   6  -1  -2   19.05    1.32
   6   1  -2   16.78    1.56
   6   1  -2   18.67    0.83
   6  -1   2   18.50    1.10
   6  -1   2   19.79    1.31
   6  -1  -3   71.58    2.56
   6   1   3   72.97    2.89
   6  -1   3   78.04    2.59
   6  -1   3   77.66    2.40
   6   1  -3   71.51    2.68
   6  -1  -4    2.40    0.73
   6   1   4    1.66    0.77
   6   1  -4    2.37    0.78
   6  -1   4    0.58    0.64
   6  -1   4    1.18    0.47
   6   1   5   16.74    1.81
   6  -1  -5   20.56    1.61
   6  -1   5   19.90    1.63
   6   1  -5   22.41    1.74
   6  -1   5   19.79    1.32
   6   1   6    1.69    0.87
   6  -1  -6    2.37    0.82
   6   1  -6    2.46    0.84
   6  -1   6    0.11    0.37
   6  -2   0    4.89    0.78
   6  -2   0    3.34    0.62
   6   2   0    3.50    0.91
   6   2   1    3.66    0.91
   6  -2  -1    3.17    0.69
   6  -2  -1    3.64    0.67
   6   2  -1    1.32    0.80
   6  -2   1    2.69    0.68
   6  -2   1    2.88    0.57
   6  -2  -2    6.00    0.89
   6   2   2    2.74    0.85
   6  -2  -2    6.27    0.91
   6   2  -2    6.33    1.14
   6  -2   2    6.64    0.89
   6  -2   2    6.13    0.80
   6  -2  -3   13.12    1.29
   6   2   3   16.02    1.71
   6  -2  -3   14.40    1.35
   6  -2   3   13.48    1.12
   6   2  -3   14.57    1.55
   6  -2   3   15.33    1.10
   6   2   4    1.04    0.73
   6  -2  -4    0.28    0.47
   6   2  -4    0.20    0.67
   6  -2   4    0.28    0.41
   6  -2  -5   13.46    1.50
   6   2   5   11.23    1.59
   6   2  -5   10.71    1.43
   6  -2   5    9.49    1.12
   6   2   6    6.53    1.37
   6  -2  -6    7.99    1.23
   6  -2   6    6.32    1.01
   6   2  -6    6.35    1.14
   6  -3   0   86.23    2.32
   6  -3   0   85.84    2.57
   6   3   0   82.48    3.16
   6   3   1    5.35    1.07
   6  -3  -1    8.15    1.06
   6  -3  -1    8.61    0.92
   6   3  -1   12.01    1.53
   6  -3   1    8.45    1.17
   6  -3   1    7.16    0.93
   6   3   2   41.50    2.28
   6  -3  -2   38.75    1.98
   6  -3  -2   42.39    1.74
   6   3  -2   46.59    2.42
   6  -3   2   41.02    1.82
   6   3   3    2.27    0.85
   6  -3  -3    2.07    0.63
   6  -3  -3    1.87    0.97
   6   3  -3    1.86    0.90
   6  -3   3    2.16    0.63
   6   3   4   15.90    1.76
   6  -3  -4   16.76    1.32
   6   3  -4   15.98    1.65
   6  -3   4   15.08    1.42
   6   3   5    3.09    1.03
  -6  -3   5    3.45    1.05
   6  -3  -5    4.40    0.89
   6   3  -5    2.04    0.87
   6  -3   5    2.84    0.81
  -6  -3   6    3.54    1.12
   6  -3  -6    5.95    1.09
   6   3   6    5.57    1.29
   6  -3   6    5.73    1.05
   6   3  -6    6.02    1.14
   6  -4   0    8.50    1.19
   6   4   0    7.80    1.35
   6   4   1    0.77    0.81
   6  -4  -1    1.57    0.93
   6   4  -1    2.01    1.02
   6  -4   1    0.68    0.65
   6  -4  -2    7.06    1.23
   6   4   2    5.07    1.07
   6  -4  -2    5.46    0.78
   6   4  -2    6.44    1.35
   6  -4   2    5.85    0.97
   6  -4  -3   11.71    1.54
   6   4   3    9.25    1.40
   6  -4  -3   10.87    1.14
   6  -4   3   12.43    1.33
   6   4  -3   11.27    1.55
  -6  -4   4    3.40    1.06
   6  -4  -4    2.25    0.67
   6  -4  -4    1.79    0.97
   6   4   4    3.43    1.07
   6  -4   4    2.20    0.74
   6   4  -4    1.15    0.86
   6   4   5    5.12    1.21
   6  -4  -5    6.88    1.11
  -6  -4   5    5.72    1.30
   6  -4   5    4.97    0.97
   6   4  -5    9.81    1.41
   6   5   0   22.04    2.07
   6  -5   0   18.20    1.83
   6  -5  -1    1.84    1.06
   6   5   1    1.63    0.90
   6   5  -1    1.39    0.97
   6  -5   1    0.81    0.87
   6   5   2    8.41    1.44
   6  -5  -2    9.97    1.58
   6  -5   2   10.06    1.36
   6   5  -2    6.70    1.42
   6  -5  -3    2.44    1.20
  -6  -5   3    0.67    0.78
   6   5   3    1.28    0.89
   6  -5   3    1.37    0.84
   6   5  -3    2.01    0.98
   6  -5  -4   11.04    1.53
  -6  -5   4    8.14    1.49
   6  -5  -4   11.05    1.74
   6   5   4    8.69    1.50
   6   5  -4   10.99    1.58
   6  -5   4    7.56    1.25
   6  -6   0   -0.41    0.99
   6   6   0   -0.92    0.88
   6  -6  -1    4.35    1.40
   6   6   1    2.43    1.09
   6   6  -1    5.17    1.38
   6  -6   1    3.42    1.18
   6   6   2    0.10    0.86
   6  -6  -2   -0.67    1.04
   6   6  -2    1.64    1.17
   6  -6   2   -0.63    0.94
  -6  -6   3    1.46    0.92
   6   6   3    0.46    0.93
   6  -6  -3    1.69    1.19
   6  -6   3   -0.40    0.92
   6   6  -3    2.71    1.05
   6  -7   0    2.64    1.45
   6   7   0    1.16    1.15
   6   7   1    1.78    1.13
   6  -7  -1   -0.13    1.32
   6  -7   1    1.50    1.28
   6   7  -1   -0.60    1.03
   7   0   0   -0.17    0.65
   7   0   0    0.24    0.30
   7   0   1   63.64    2.56
   7   0   1   60.02    2.04
   7   0  -1   61.09    1.89
   7   0  -1   67.08    2.59
   7   0  -2   -0.84    0.36
   7   0  -2    0.21    0.62
   7   0   2    0.13    0.68
   7   0   2    0.29    0.32
   7   0   3    8.14    0.97
   7   0  -3   10.11    1.28
   7   0   3   10.20    1.33
   7   0  -4    0.26    0.63
   7   0   4    0.35    0.35
   7   0   4   -0.34    0.72
   7   0   5    0.03    0.84
   7   0   5    0.19    0.37
   7   0  -5    2.56    0.83
   7   1   0    1.96    0.46
   7  -1   0    2.35    0.54
   7  -1   0    1.20    0.74
   7   1   0    2.31    0.89
   7   1   1    2.88    0.99
   7   1   1    4.44    0.67
   7  -1  -1    3.06    0.81
   7  -1  -1    4.49    0.71
   7  -1   1    2.62    0.81
   7  -1   1    3.17    0.62
   7   1  -1    4.50    0.60
   7   1  -1    3.97    1.06
   7   1   2   17.76    1.71
   7  -1  -2   14.39    1.10
   7  -1  -2   14.74    1.41
   7   1  -2   15.64    1.56
   7  -1   2   17.56    1.45
   7  -1   2   15.61    1.10
   7  -1  -3    1.73    0.74
   7   1   3    1.50    0.87
   7   1  -3    1.26    0.69
   7  -1   3    0.73    0.68
   7  -1   3    0.92    0.45
   7   1   4   37.05    2.38
   7  -1  -4   41.63    2.15
   7   1  -4   37.55    2.21
   7  -1   4   39.81    1.88
   7  -1   4   36.53    2.06
   7  -1  -5    4.32    0.97
   7   1   5    2.70    1.01
   7  -1   5    3.22    0.71
   7   1  -5    5.52    1.15
   7   2   0    3.12    1.05
   7  -2   0    1.60    0.64
   7  -2   0    2.64    0.64
   7  -2  -1   27.46    1.55
   7   2   1   26.38    1.95
   7  -2  -1   22.31    1.36
   7  -2   1   25.20    1.51
   7   2  -1   20.53    1.90
   7  -2   1   24.10    1.41
   7   2  -1   24.32    1.08
   7  -2  -2   11.58    1.24
   7   2   2   10.03    1.45
   7  -2  -2   10.24    1.16
   7  -2   2   12.30    1.18
   7  -2   2   11.49    1.20
   7   2  -2   11.78    1.55
   7   2   3   -0.58    0.61
   7  -2  -3    0.21    0.49
   7   2  -3    1.45    0.83
   7  -2   3    0.35    0.41
   7   2   4    5.25    1.27
   7  -2  -4    5.61    0.98
   7  -2   4    5.51    0.92
   7   2  -4    6.80    1.23
   7  -2  -5    1.97    0.78
   7   2   5    4.77    1.23
   7  -2   5    2.80    0.78
   7   2  -5    3.14    1.00
   7  -3   0   32.57    1.75
   7  -3   0   37.63    1.68
   7   3   0   31.16    2.24
   7  -3  -1   11.42    1.11
   7  -3  -1    9.27    1.17
   7   3   1    8.54    1.46
   7  -3   1    9.97    1.14
   7   3  -1    9.23    1.49
   7  -3  -2   10.82    1.40
   7  -3  -2   12.63    1.23
   7   3   2   13.23    1.73
   7   3  -2    9.95    1.55
   7  -3   2   13.53    1.34
   7  -3  -3    4.01    1.15
   7  -3  -3    5.48    0.91
   7   3   3    1.96    1.04
   7   3  -3    3.27    1.10
   7  -3   3    3.99    0.83
   7  -3  -4    3.11    0.81
   7   3   4    3.61    1.15
   7  -3   4    2.90    0.78
   7   3  -4    2.99    1.02
   7  -3  -5    1.52    0.68
   7   3   5    2.59    1.10
   7  -3   5    0.83    0.67
   7   3  -5    1.57    1.02
   7  -4   0   -0.49    0.73
   7   4   0    0.88    1.03
   7  -4  -1    1.82    1.02
   7   4   1    2.01    1.02
   7   4  -1    1.67    1.05
   7  -4   1    3.24    0.91
   7  -4  -2   15.71    1.75
   7   4   2   17.04    1.93
   7   4  -2   13.92    1.88
   7  -4   2   16.59    1.59
   7  -4  -3    8.01    1.07
   7   4   3    2.33    1.04
   7  -4  -3    3.90    1.28
   7  -4   3    4.68    0.99
   7   4  -3    4.07    1.23
   7   4   4    9.83    1.70
   7  -4  -4    9.60    1.22
   7   4  -4    7.02    1.34
   7  -4   4    8.01    1.24
   7  -5   0    8.24    1.52
   7   5   0    8.65    1.61
   7   5   1   11.15    1.73
   7  -5  -1   13.10    1.79
   7   5  -1   11.87    1.78
   7  -5   1   11.67    1.62
   7   5   2    3.48    1.19
   7  -5  -2    8.03    1.64
   7   5  -2    4.38    1.39
   7  -5   2    5.76    1.21
   7  -5  -3   16.59    1.99
   7   5   3   17.28    2.16
   7   5  -3   15.62    1.93
   7  -5   3   15.69    1.73
   7   6   0    0.75    1.06
   7  -6   0   -0.47    1.18
   7   6   1    9.41    1.64
   7  -6  -1   11.52    1.97
   7   6  -1   11.51    1.81
   7  -6   1   11.13    1.84
   8   0   0   51.72    2.51
   8   0   0   52.85    1.94
   8   0  -1   -0.49    0.70
   8   0   1   -0.19    0.31
   8   0   1   -0.96    0.68
   8   0  -1   -0.40    0.33
   8   0   2   19.46    1.89
   8   0   2   22.46    1.39
   8   0  -2   22.11    1.76
   8   0   3    0.13    0.38
   8   0   3   -0.94    0.71
   8   0  -3    0.32    0.59
   8   0  -4    9.73    1.46
   8   0   4    7.57    1.43
   8   0   4    7.25    1.06
   8  -1   0    7.81    1.19
   8   1   0    6.43    0.82
   8  -1   0    6.41    0.89
   8   1   0    7.03    1.33
   8  -1  -1    1.72    0.79
   8   1   1    1.02    0.87
   8  -1  -1    0.87    0.54
   8   1   1    1.47    0.47
   8   1  -1    1.22    0.43
   8  -1   1    0.69    0.47
   8   1  -1    2.64    1.01
   8  -1   1    0.88    0.80
   8  -1  -2    1.85    0.74
   8   1   2    0.73    0.96
   8   1   2    2.45    0.61
   8  -1   2    2.24    0.86
   8  -1   2    2.63    0.69
   8   1  -2    3.00    1.01
   8   1   3    7.52    1.01
   8  -1  -3    6.12    1.12
   8   1   3    4.66    1.26
   8  -1   3    4.37    0.83
   8  -1   3    6.74    1.24
   8   1  -3    6.18    1.18
   8   1   4   -0.96    0.82
   8  -1  -4    1.01    0.67
   8   1   4    0.02    0.39
   8  -1   4    0.29    0.45
   8   1  -4    0.30    0.69
   8   2   0   11.46    0.88
   8  -2   0   12.09    1.30
   8  -2   0    9.99    1.21
   8   2   0    7.94    1.43
   8  -2  -1    7.87    1.10
   8   2   1    7.77    1.49
   8  -2  -1    5.58    0.97
   8  -2   1    8.56    1.15
   8  -2   1    6.34    1.07
   8   2  -1    6.61    1.39
   8  -2  -2    3.24    0.95
   8  -2  -2    5.59    0.96
   8   2   2    6.48    1.44
   8  -2   2    5.16    0.89
   8   2  -2    5.54    1.25
   8   2   3    9.78    1.58
   8  -2  -3   13.07    1.46
   8   2  -3   11.11    1.58
   8  -2   3   12.53    1.36
   8   2   4    5.68    1.51
   8  -2  -4    5.69    1.08
   8   2  -4    6.15    1.29
   8  -2   4    5.95    1.01
   8  -3   0    4.45    0.98
   8   3   0    2.80    1.19
   8   3   1   -0.76    0.90
   8  -3  -1    0.76    0.71
   8  -3  -1    0.10    0.78
   8  -3   1   -0.06    0.58
   8   3  -1    0.90    1.12
   8  -3  -2    0.99    1.01
   8   3   2    0.14    0.96
   8  -3  -2    3.06    0.73
   8  -3   2    2.15    0.79
   8   3  -2    2.06    1.16
   8   3   3    1.74    1.08
   8  -3  -3    2.81    0.72
   8   3  -3    4.18    1.24
   8  -3   3    3.21    0.90
   8  -3  -4    1.30    0.65
   8   3   4   -0.26    0.97
   8  -3   4    0.39    0.62
   8   3  -4    1.30    0.93
   8   4   0   -0.88    0.93
   8  -4   0    0.21    0.84
   8  -4  -1    5.08    1.36
   8   4   1    7.93    1.58
   8  -4   1    7.76    1.32
   8   4  -1    5.89    1.52
   8   4   2   -0.24    0.95
   8  -4  -2   -1.22    1.06
   8   4  -2   -0.79    0.99
   8  -4   2   -1.51    0.62
   8   4   3    4.53    1.39
   8  -4   3    3.35    0.98
   8   4  -3    6.64    1.46
   8   5   0    0.32    1.09
   8  -5   0   -3.53    1.01
   8  -5  -1    2.47    1.43
   8   5   1    3.47    1.33
   8  -5   1    0.85    1.13
   8   5  -1    4.05    1.48
   9   0   0   -0.16    0.86
   9   0   0    0.07    0.44
   9   0   1   15.62    1.49
   9   0  -1   18.75    1.87
   9   0   1   15.55    1.83
   9   0  -2    0.42    0.72
   9   0   2   -0.17    0.90
   9   0   2   -0.72    0.39
   9   0   3    2.04    0.73
   9   0  -3    3.15    0.98
   9   0   3    3.45    1.33
   9  -1   0    1.25    0.66
   9  -1   0    1.17    0.90
   9   1   0    1.60    1.10
   9   1   0    0.61    0.43
   9   1   1    3.56    0.78
   9  -1  -1    2.94    0.93
   9   1   1    1.10    1.06
   9  -1  -1    2.76    0.82
   9   1  -1    3.43    1.19
   9  -1   1    3.98    1.11
   9  -1   1    3.56    0.82
   9   1   2    7.52    1.08
   9   1   2    7.88    1.56
   9  -1  -2    6.85    1.23
   9   1  -2    9.58    1.49
   9  -1   2    9.33    1.22
   9  -1   2    8.48    1.39
   9   1   3    0.94    0.55
   9  -1  -3    3.22    0.98
   9   1   3    1.54    1.10
   9   1  -3    1.25    0.86
   9  -1   3    0.82    0.58
   9  -2   0    2.18    0.82
   9   2   0    0.73    1.16
   9   2   0    2.36    0.58
   9  -2   0    2.26    0.88
   9  -2  -1    7.20    1.12
   9   2   1    5.10    0.86
   9   2   1    5.46    1.44
   9  -2  -1    4.17    1.06
   9  -2   1    6.52    1.12
   9   2  -1    6.32    1.57
   9  -2  -2    5.61    1.06
   9   2   2    4.72    0.86
   9   2   2    5.32    1.53
   9   2  -2    4.54    1.31
   9  -2   2    3.88    0.94
   9  -2  -3    6.68    1.12
   9   2   3    6.64    1.05
   9   2  -3    4.66    1.22
   9  -2   3    4.51    0.99
   9  -3   0   -0.96    0.80
   9   3   0   -1.62    0.91
   9  -3  -1   12.00    1.63
   9   3   1   12.42    1.93
   9   3  -1   12.90    1.98
   9  -3   1   12.42    1.56
   9   3   2    2.77    1.41
   9  -3   2    2.26    0.89
   9   3  -2    0.34    1.02
   0   0   0    0.00    0.00
;
_shelx_hkl_checksum              82446
loop_
_space_group_symop_operation_xyz
'x, y, z'
'-x+1/2, -y, z+1/2'
'-x, y, z'
'x+1/2, -y, z+1/2'
loop_
_atom_site_label
_atom_site_type_symbol
_atom_site_fract_x
_atom_site_fract_y
_atom_site_fract_z
_atom_site_U_iso_or_equiv
_atom_site_adp_type
_atom_site_occupancy
_atom_site_site_symmetry_order
_atom_site_calc_flag
_atom_site_refinement_flags_posn
_atom_site_refinement_flags_adp
_atom_site_refinement_flags_occupancy
_atom_site_disorder_assembly
_atom_site_disorder_group
Ag1 Ag 0.500000 0.6452(2) 0.3811(2) 0.0497(5) Uani 1 2 d S T P . .
Ag2 Ag 0.77154(13) 1.20168(12) 0.43117(12) 0.0428(3) Uani 1 1 d . . . . .
S1 S 0.7809(3) 0.8416(4) 0.3091(4) 0.0225(6) Uani 1 1 d . . . . .
S2 S 1.000000 0.6922(6) 0.7205(6) 0.0269(9) Uani 1 2 d S T P . .
S3 S 1.000000 0.4210(5) 0.2782(6) 0.0211(8) Uani 1 2 d S T P . .
P1 P 1.000000 0.6953(4) 0.4049(7) 0.0103(7) Uani 1 2 d S T P . .
loop_
_atom_site_aniso_label
_atom_site_aniso_U_11
_atom_site_aniso_U_22
_atom_site_aniso_U_33
_atom_site_aniso_U_23
_atom_site_aniso_U_13
_atom_site_aniso_U_12
Ag1 0.0461(8) 0.0559(9) 0.0472(11) -0.0134(8) 0.000 0.000
Ag2 0.0514(6) 0.0402(5) 0.0368(6) 0.0041(6) 0.0040(7) 0.0007(5)
S1 0.0204(13) 0.0205(13) 0.0266(14) -0.0011(11) -0.0075(12) 0.0046(12)
S2 0.029(2) 0.038(2) 0.0136(18) 0.0004(18) 0.000 0.000
S3 0.026(2) 0.0138(17) 0.023(2) -0.0038(16) 0.000 0.000
P1 0.0129(16) 0.0105(14) 0.0075(19) -0.0009(17) 0.000 0.000
loop_
_atom_type_symbol
_atom_type_description
_atom_type_scat_dispersion_real
_atom_type_scat_dispersion_imag
_atom_type_scat_source
Ag Ag -0.8971 1.1015 'International Tables Vol C Tables 4.2.6.8 and 6.1.1.4'
P P 0.1023 0.0942 'International Tables Vol C Tables 4.2.6.8 and 6.1.1.4'
S S 0.1246 0.1234 'International Tables Vol C Tables 4.2.6.8 and 6.1.1.4'
loop_
_geom_angle_atom_site_label_1
_geom_angle_atom_site_label_2
_geom_angle_atom_site_label_3
_geom_angle
_geom_angle_site_symmetry_1
_geom_angle_site_symmetry_3
_geom_angle_publ_flag
S2 Ag1 S1 113.68(7) 2_664 3_655 ?
S2 Ag1 S1 113.68(7) 2_664 . ?
S1 Ag1 S1 112.82(12) 3_655 . ?
S2 Ag1 S3 104.33(13) 2_664 2_665 ?
S1 Ag1 S3 105.62(7) 3_655 2_665 ?
S1 Ag1 S3 105.62(7) . 2_665 ?
S1 Ag2 S3 124.79(11) 2_675 1_565 ?
S1 Ag2 S2 115.04(10) 2_675 2_674 ?
S3 Ag2 S2 100.34(10) 1_565 2_674 ?
S1 Ag2 S1 101.04(7) 2_675 . ?
S3 Ag2 S1 115.45(10) 1_565 . ?
S2 Ag2 S1 97.34(12) 2_674 . ?
P1 S1 Ag2 111.74(16) . 2_674 ?
P1 S1 Ag1 111.69(13) . . ?
Ag2 S1 Ag1 89.02(9) 2_674 . ?
P1 S1 Ag2 113.31(15) . . ?
Ag2 S1 Ag2 114.08(10) 2_674 . ?
Ag1 S1 Ag2 114.76(10) . . ?
P1 S2 Ag1 114.9(2) . 2_665 ?
P1 S2 Ag2 121.71(10) . 4_575 ?
Ag1 S2 Ag2 92.21(11) 2_665 4_575 ?
P1 S2 Ag2 121.71(10) . 2_675 ?
Ag1 S2 Ag2 92.21(11) 2_665 2_675 ?
Ag2 S2 Ag2 106.46(15) 4_575 2_675 ?
P1 S3 Ag2 112.95(15) . 1_545 ?
P1 S3 Ag2 112.95(15) . 3_745 ?
Ag2 S3 Ag2 88.17(12) 1_545 3_745 ?
P1 S3 Ag1 123.6(2) . 2_664 ?
Ag2 S3 Ag1 106.66(11) 1_545 2_664 ?
Ag2 S3 Ag1 106.66(11) 3_745 2_664 ?
S1 P1 S1 109.6(2) . 3_755 ?
S1 P1 S2 107.99(16) . . ?
S1 P1 S2 107.99(16) 3_755 . ?
S1 P1 S3 109.07(17) . . ?
S1 P1 S3 109.07(17) 3_755 . ?
S2 P1 S3 113.0(2) . . ?
loop_
_geom_bond_atom_site_label_1
_geom_bond_atom_site_label_2
_geom_bond_distance
_geom_bond_site_symmetry_2
_geom_bond_publ_flag
Ag1 S2 2.537(5) 2_664 ?
Ag1 S1 2.576(3) 3_655 ?
Ag1 S1 2.576(3) . ?
Ag1 S3 2.620(4) 2_665 ?
Ag2 S1 2.506(3) 2_675 ?
Ag2 S3 2.508(3) 1_565 ?
Ag2 S2 2.589(3) 2_674 ?
Ag2 S1 2.593(3) . ?
S1 P1 2.048(3) . ?
S2 P1 2.051(6) . ?
S3 P1 2.052(5) . ?
