#------------------------------------------------------------------------------
#$Date: 2021-04-05 17:58:28 +0300 (Mon, 05 Apr 2021) $
#$Revision: 263789 $
#$URL: file:///home/coder/svn-repositories/cod/cif/7/70/67/7706794.cif $
#------------------------------------------------------------------------------
#
# This file is available in the Crystallography Open Database (COD),
# http://www.crystallography.net/
#
# All data on this site have been placed in the public domain by the
# contributors.
#
data_7706794
loop_
_publ_author_name
'Yang, Ya'
'Zhang, Bingbing'
'Wu, Xiaowen'
'Wu, Kui'
_publ_section_title
;
 A series of M<sub>3</sub>PS<sub>4</sub> (M = Ag, Cu and Ag/Cu)
 thiophosphates with diamond-like structures exhibiting large second
 harmonic generation responses and moderate ion conductivities.
;
_journal_issue                   12
_journal_name_full
'Dalton transactions (Cambridge, England : 2003)'
_journal_page_first              4129
_journal_page_last               4132
_journal_paper_doi               10.1039/d1dt00366f
_journal_volume                  50
_journal_year                    2021
_chemical_formula_sum            'Cu3 P S4'
_chemical_formula_weight         349.83
_space_group_crystal_system      orthorhombic
_space_group_IT_number           31
_space_group_name_Hall           'P 2ac -2'
_space_group_name_H-M_alt        'P m n 21'
_atom_sites_solution_hydrogens   none
_audit_creation_method           SHELXL-2016/6
_audit_update_record
;
2021-01-23 deposited with the CCDC.	2021-03-05 downloaded from the CCDC.
;
_cell_angle_alpha                90
_cell_angle_beta                 90
_cell_angle_gamma                90
_cell_formula_units_Z            2
_cell_length_a                   7.2789(16)
_cell_length_b                   6.3341(14)
_cell_length_c                   6.0828(14)
_cell_measurement_reflns_used    1333
_cell_measurement_temperature    293(2)
_cell_measurement_theta_max      27.40
_cell_measurement_theta_min      4.27
_cell_volume                     280.45(11)
_computing_cell_refinement       'Bruker SMART'
_computing_data_collection       'Bruker SMART'
_computing_data_reduction        'Bruker SAINT'
_computing_molecular_graphics    'Bruker SHELXTL'
_computing_publication_material  'Bruker SHELXTL'
_computing_structure_refinement  'Bruker SHELXTL'
_computing_structure_solution    'Bruker SHELXTL'
_diffrn_ambient_temperature      293(2)
_diffrn_measured_fraction_theta_full 1.000
_diffrn_measured_fraction_theta_max 1.000
_diffrn_measurement_device_type  'CCD area detector'
_diffrn_measurement_method       'phi and omega scans'
_diffrn_radiation_type           MoK\a
_diffrn_radiation_wavelength     0.71073
_diffrn_reflns_av_R_equivalents  0.0193
_diffrn_reflns_av_unetI/netI     0.0313
_diffrn_reflns_Laue_measured_fraction_full 1.000
_diffrn_reflns_Laue_measured_fraction_max 1.000
_diffrn_reflns_limit_h_max       7
_diffrn_reflns_limit_h_min       -8
_diffrn_reflns_limit_k_max       7
_diffrn_reflns_limit_k_min       -5
_diffrn_reflns_limit_l_max       7
_diffrn_reflns_limit_l_min       -6
_diffrn_reflns_number            1542
_diffrn_reflns_point_group_measured_fraction_full 1.000
_diffrn_reflns_point_group_measured_fraction_max 1.000
_diffrn_reflns_theta_full        24.966
_diffrn_reflns_theta_max         24.966
_diffrn_reflns_theta_min         3.216
_diffrn_source                   'sealed tube'
_exptl_absorpt_coefficient_mu    12.892
_exptl_absorpt_correction_type   multi-scan
_exptl_absorpt_process_details   SADABS
_exptl_crystal_colour            yellow
_exptl_crystal_density_diffrn    4.143
_exptl_crystal_description       block
_exptl_crystal_F_000             332
_exptl_crystal_size_max          0.179
_exptl_crystal_size_mid          0.147
_exptl_crystal_size_min          0.112
_exptl_transmission_factor_max   0.7455
_exptl_transmission_factor_min   0.5103
_refine_diff_density_max         0.342
_refine_diff_density_min         -0.289
_refine_diff_density_rms         0.092
_refine_ls_abs_structure_details
;
 Refined as an inversion twin.
;
_refine_ls_abs_structure_Flack   0.036(19)
_refine_ls_extinction_coef       0.0335(16)
_refine_ls_extinction_expression Fc^*^=kFc[1+0.001xFc^2^\l^3^/sin(2\q)]^-1/4^
_refine_ls_extinction_method     'SHELXL-2016/6 (Sheldrick 2016)'
_refine_ls_goodness_of_fit_ref   0.954
_refine_ls_hydrogen_treatment    none
_refine_ls_matrix_type           full
_refine_ls_number_parameters     45
_refine_ls_number_reflns         527
_refine_ls_number_restraints     1
_refine_ls_restrained_S_all      0.953
_refine_ls_R_factor_all          0.0147
_refine_ls_R_factor_gt           0.0144
_refine_ls_shift/su_max          0.000
_refine_ls_shift/su_mean         0.000
_refine_ls_structure_factor_coef Fsqd
_refine_ls_weighting_details     'w=1/[\s^2^(Fo^2^)] where P=(Fo^2^+2Fc^2^)/3'
_refine_ls_weighting_scheme      calc
_refine_ls_wR_factor_gt          0.0347
_refine_ls_wR_factor_ref         0.0349
_reflns_Friedel_coverage         0.815
_reflns_Friedel_fraction_full    1.000
_reflns_Friedel_fraction_max     1.000
_reflns_number_gt                520
_reflns_number_total             527
_reflns_threshold_expression     'I > 2\s(I)'
_cod_data_source_file            d1dt00366f2.cif
_cod_data_source_block           1_CCDC2
_cod_depositor_comments
'Adding full bibliography for 7706792--7706794.cif.'
_cod_database_code               7706794
_shelx_shelxl_version_number     2016/6
_shelx_space_group_comment
;
The symmetry employed for this shelxl refinement is uniquely defined
by the following loop, which should always be used as a source of
symmetry information in preference to the above space-group names.
They are only intended as comments.
;
_shelx_estimated_absorpt_t_min   0.5103
_shelx_estimated_absorpt_t_max   0.7455
_shelx_res_file
;
TITL 1 in Pmn2(1)
    1.res
    created by SHELXL-2016/6 at 18:06:33 on 29-Sep-2019
CELL 0.71073   7.2789   6.3341   6.0828  90.000  90.000  90.000
ZERR    2.00   0.0016   0.0014   0.0014   0.000   0.000   0.000
LATT -1
SYMM     0.50000 - X ,            - Y ,    0.50000 + Z
SYMM             - X ,              Y ,              Z
SYMM     0.50000 + X ,            - Y ,    0.50000 + Z
SFAC Cu P  S
UNIT 6 2 8
OMIT   0.00  50.00
L.S. 20
ACTA
BOND
FMAP 2
PLAN 5
TWIN
CONF
WGHT    0.000000
EXTI    0.033452
BASF   0.03564
FVAR       0.18815
CU1   1    0.500000    0.352645    0.583971    10.50000    0.02007    0.01739 =
         0.01672   -0.00281    0.00000    0.00000
CU2   1    0.245611   -0.178584    0.572971    11.00000    0.01716    0.01628 =
         0.01560    0.00105   -0.00025    0.00127
S1    3    0.233201    0.168332    0.696777    11.00000    0.00747    0.00843 =
         0.01008   -0.00009   -0.00107    0.00154
S2    3    0.000000    0.317673    0.244738    10.50000    0.01015    0.01060 =
         0.00506    0.00023    0.00000    0.00000
S3    3    0.000000    0.628094    0.704028    10.50000    0.01081    0.00576 =
         0.00965   -0.00073    0.00000    0.00000
P1    2    0.000000    0.323058    0.585321    10.50000    0.00617    0.00544 =
         0.00552   -0.00093    0.00000    0.00000
HKLF 4




REM  1 in Pmn2(1)
REM R1 =  0.0144 for     520 Fo > 4sig(Fo)  and  0.0147 for all     527 data
REM     45 parameters refined using      1 restraints

END

WGHT      0.0000      0.0000

REM Highest difference peak  0.342,  deepest hole -0.289,  1-sigma level  0.092
Q1    1   0.2532 -0.3124  0.5745  11.00000  0.05    0.34
Q2    1   0.5000  0.3146  0.7372  10.50000  0.05    0.34
Q3    1   0.2479 -0.1108  0.4160  11.00000  0.05    0.34
Q4    1   0.2502  0.2360  0.8766  11.00000  0.05    0.34
Q5    1   0.2471  0.1724  0.5691  11.00000  0.05    0.32
;
_shelx_res_checksum              89625
_shelx_hkl_file
;
   0   0  -1    0.52    0.07
   0   0  -2  726.25   29.81
   0   0   2  777.09   29.84
   0   0  -2  694.89   30.01
   0   0  -3    0.21    0.12
   0   0   3    0.06    0.14
   0   0  -4  124.91    5.31
   0   0   4  124.45    5.31
   0   0   5    0.08    0.21
   0   0   6  266.49   11.16
   0   0   7   -0.03    0.19
   0   1   0    0.29    0.04
   0  -1   0    0.40    0.05
   0   1   0    0.41    0.09
   0  -1   1   18.21    0.75
   0   1  -1   16.68    0.83
   0   1  -1   18.19    0.80
   0   1   1   16.64    0.80
   0   1   2    5.27    0.40
   0  -1   2    5.25    0.34
   0   1  -2    5.60    0.38
   0   1  -3   43.76    1.82
   0   1   3   37.21    1.87
   0   1  -3   43.37    1.88
   0  -1   3   37.04    1.80
   0  -1   4    0.17    0.17
   0   1  -4    0.05    0.08
   0   1   4    0.42    0.24
   0   1  -4    0.13    0.13
   0   1   5   54.29    2.63
   0  -1   5   55.02    2.56
   0   1  -5   53.60    2.50
   0   1  -5   55.54    2.61
   0  -1   6    5.97    0.60
   0   1  -6    6.32    0.64
   0   1   6    5.06    0.62
   0   1   7    6.13    0.72
   0  -1   7    5.34    0.62
   0   2   0  437.37   18.80
   0   2   0  477.00   18.55
   0   2   1  283.04   11.89
   0   2   1  290.56   11.80
   0   2  -1  303.19   11.90
   0   2   2  204.82    8.01
   0   2  -2  186.00    8.06
   0   2  -2  190.44    8.00
   0  -2   2  198.71    7.87
   0   2  -3  611.70   25.77
   0   2  -3  595.72   25.68
   0   2   3  660.28   25.18
   0  -2   3  622.86   25.30
   0   2   4   43.47    2.08
   0  -2   4   40.81    1.91
   0   2  -4   41.01    1.94
   0   2  -4   42.54    2.06
   0   2  -5  285.66   12.98
   0   2   5  331.62   13.07
   0  -2   5  336.78   12.91
   0   2  -5  303.89   12.89
   0  -2   6   64.15    2.99
   0   2   6   63.69    3.16
   0   2  -6   64.74    3.00
   0   2  -6   66.33    3.16
   0   2   7   35.27    1.98
   0  -2   7   36.38    1.83
   0   2  -7   27.42    1.83
   0   3   0   32.68    1.62
   0   3   0   32.01    1.37
   0   3   1   16.52    0.84
   0   3  -1   17.70    1.00
   0   3   2   36.63    1.73
   0   3   2   38.42    1.87
   0  -3   2   37.42    1.55
   0   3  -2   37.06    1.81
   0   3  -2   36.92    1.92
   0   3  -3   28.96    1.54
   0   3  -3   28.94    1.45
   0  -3   3   27.09    1.25
   0   3   3   26.94    1.44
   0   3  -4    0.60    0.19
   0   3  -4    0.60    0.23
   0   3   4    1.36    0.34
   0   3  -5   18.33    1.12
   0   3   5   20.31    1.26
   0   3  -5   19.07    1.25
   0  -3   5   20.50    1.08
   0   3  -6   29.27    1.70
   0   3   6   24.02    1.62
   0   3  -6   29.54    1.56
   0   3  -7    1.75    0.51
   0   3   7    3.28    0.62
   0   4   0  230.60    9.11
   0   4   0  221.56    9.49
   0   4  -1  198.05    8.02
   0   4   1  185.51    7.70
   0   4   1  182.03    7.99
   0   4   2  105.23    4.36
   0   4  -2   98.06    4.55
   0   4   2  105.97    4.61
   0   4  -2   99.65    4.72
   0   4   3  415.65   16.61
   0   4  -3  391.16   16.67
   0   4   3  396.92   16.38
   0   4  -3  402.11   16.51
   0   4   4    3.08    0.47
   0   4  -4    2.53    0.39
   0   4  -4    2.07    0.45
   0   4   5  186.06    7.88
   0   4  -5  177.60    8.02
   0   4  -5  176.85    7.82
   0   4   5  192.72    8.07
   0   4   6   27.24    1.70
   0   4   6   27.14    1.79
   0   4  -6   28.80    1.79
   0   5   0   79.55    3.76
   0   5   1    2.59    0.49
   0   5  -1    2.68    0.49
   0   5   1    2.41    0.29
   0   5   2   56.96    2.84
   0   5  -2   52.43    2.77
   0   5   2   57.30    2.51
   0   5   3    8.50    0.83
   0   5  -3    8.99    0.92
   0   5  -3    8.51    0.79
   0   5   3    7.75    0.65
   0   5   4    4.27    0.53
   0   5   4    3.90    0.59
   0   5  -4    2.75    0.62
   0   5  -4    2.07    0.46
   0   5  -5    5.41    0.65
   0   5   5    5.99    0.76
   0   5  -5    6.75    0.82
   0   5   5    6.27    0.70
   0   5   6   17.85    1.42
   0   5   6   17.51    1.28
   0   6   0  351.22   14.78
   0   6  -1    6.03    0.70
   0   6   1    6.22    0.74
   0   6   2  169.04    7.23
   0   6  -2  151.89    7.11
   0   6  -3    2.21    0.53
   0   6  -3    2.75    0.66
   0   6   3    3.10    0.49
   0   6   3    3.44    0.67
   0   6  -4   19.88    1.63
   0   6   4   20.70    1.29
   0   6  -4   22.13    1.52
   0   6   4   21.85    1.58
   0   6   5    1.12    0.36
   0   6   5    1.13    0.46
   0   6  -5    1.02    0.50
   0   7   0    7.30    0.85
   0   7   1    3.35    0.65
   0   7  -2    8.68    0.94
   0   7   2    8.65    0.98
   0   7  -2    9.05    1.08
   0   7  -3   41.23    2.46
   0   7  -3   45.78    2.74
   0   7   3   36.44    2.44
   0   7  -4    5.28    0.80
   0   7   4    7.11    0.93
   0   7  -4    6.93    0.98
   0   8   0   44.13    2.65
   0   8   1   11.60    1.22
   0   8  -1   15.79    1.33
   1   0   0    0.01    0.02
  -1   0   0    0.04    0.05
  -1   0   0    0.02    0.02
  -1   0  -1    7.84    0.43
  -1   0   1    7.90    0.43
  -1   0  -1    8.28    0.42
  -1   0  -2    0.01    0.06
   1   0   2    0.12    0.12
  -1   0   2   -0.01    0.09
   1   0  -2    0.01    0.07
   1   0   3   14.49    0.89
   1   0  -3   18.51    0.93
  -1   0   3   14.19    0.85
  -1   0  -3   18.08    0.88
   1   0   4    0.03    0.19
  -1   0   4   -0.05    0.15
   1   0  -4    0.06    0.15
  -1   0   5   32.12    1.67
   1   0   5   31.38    1.71
  -1   0   6    0.13    0.20
   1   0   6    0.15    0.26
   1   0   7   14.94    1.14
  -1   0   7   14.70    1.09
  -1   1   0    5.29    0.33
  -1   1   0    4.81    0.28
  -1  -1   0    5.34    0.32
  -1  -1   1    8.78    0.47
  -1   1  -1    9.32    0.46
  -1   1  -1    9.66    0.51
   1   1   1    8.70    0.51
  -1   1   1    8.89    0.48
   1   1  -1    9.53    0.44
  -1   1   1    9.10    0.50
   1   1  -1    9.34    0.52
  -1   1  -2   33.52    1.50
  -1  -1   2   32.00    1.45
  -1   1  -2   32.86    1.46
   1   1  -2   34.08    1.40
   1  -1   2   31.77    1.46
  -1   1   2   32.46    1.49
  -1   1  -3   11.31    0.63
  -1   1  -3   11.26    0.65
   1   1   3   10.20    0.70
  -1  -1   3   10.49    0.63
   1  -1   3   10.23    0.66
   1   1  -3   11.18    0.70
   1   1  -3   11.31    0.57
  -1   1   3   10.12    0.66
   1   1   4   13.06    0.86
  -1   1  -4    9.98    0.68
  -1   1  -4    9.98    0.68
  -1  -1   4   11.75    0.71
   1   1  -4    9.83    0.73
   1  -1   4   12.59    0.78
   1   1  -4   10.47    0.62
  -1   1   4   11.95    0.76
  -1   1  -5   11.54    0.78
  -1  -1   5   11.97    0.80
  -1   1  -5   11.45    0.78
   1   1   5   10.93    0.88
  -1   1   5   12.32    0.87
   1  -1   5   11.18    0.85
   1   1  -5   12.12    0.88
  -1  -1   6    1.53    0.34
   1   1   6    1.39    0.44
  -1   1   6    1.39    0.36
   1  -1   6    2.06    0.42
   1   1  -6    2.33    0.46
   1   1   7    3.40    0.64
  -1  -1   7    3.74    0.53
   1  -1   7    3.52    0.59
  -1   1   7    3.42    0.58
   1   2   0   47.55    2.12
  -1   2   0   47.93    2.17
  -1  -2   0   48.79    2.03
  -1   2   0   48.31    2.01
  -1  -2   1    5.15    0.29
  -1   2  -1    4.42    0.38
  -1   2  -1    4.04    0.23
   1   2   1    4.94    0.35
   1   2  -1    4.34    0.35
  -1   2   1    4.81    0.31
   1   2  -1    4.57    0.40
  -1   2   1    4.91    0.39
   1   2   2   38.18    1.76
  -1   2  -2   34.97    1.75
  -1  -2   2   40.19    1.66
  -1   2  -2   36.45    1.76
   1   2  -2   36.27    1.80
  -1   2   2   39.76    1.73
  -1   2   2   37.77    1.78
   1  -2   2   40.44    1.64
   1   2  -2   36.60    1.68
  -1  -2   3    4.86    0.36
  -1   2  -3    4.99    0.42
  -1   2  -3    4.81    0.41
   1   2   3    5.25    0.50
   1   2  -3    5.06    0.46
  -1   2   3    4.77    0.43
   1   2  -3    5.02    0.35
   1  -2   3    4.98    0.39
   1   2   4    6.18    0.62
  -1   2  -4    4.09    0.40
  -1   2  -4    4.55    0.43
   1   2  -4    4.08    0.34
   1   2  -4    3.78    0.44
  -1   2  -5    3.41    0.41
  -1   2  -5    2.39    0.34
  -1  -2   5    1.81    0.33
   1   2   5    1.80    0.46
   1   2  -5    2.42    0.30
   1   2  -5    2.43    0.40
  -1   2   5    1.55    0.38
   1  -2   5    2.00    0.36
  -1  -2   6    4.11    0.49
   1   2   6    4.29    0.69
  -1   2  -6    5.88    0.61
  -1   2  -6    6.39    0.58
   1   2  -6    6.03    0.66
  -1   2   6    4.47    0.61
   1  -2   6    4.49    0.53
   1   2   7    1.70    0.47
  -1  -2   7    1.96    0.40
   1   2  -7    1.52    0.46
  -1   2   7    1.50    0.41
   1  -2   7    2.12    0.43
  -1   3   0   46.45    2.19
   1   3   0   44.94    1.94
  -1   3   0   46.45    1.92
   1   3   0   44.64    2.12
   1   3   1   21.21    1.03
  -1   3  -1   20.10    1.17
   1   3   1   21.55    1.16
  -1  -3   1   21.63    0.94
   1   3  -1   19.69    1.13
  -1   3   1   21.08    0.99
  -1   3   1   21.87    1.18
  -1   3  -2   15.09    1.01
   1   3   2   16.09    0.91
  -1   3  -2   15.57    0.95
  -1  -3   2   16.42    0.76
   1  -3   2   16.65    0.70
   1   3  -2   15.53    1.02
   1   3  -2   14.83    0.90
  -1   3   2   16.04    0.98
  -1   3   2   16.34    0.86
   1   3   3    2.07    0.40
  -1  -3   3    2.10    0.23
  -1   3  -3    3.04    0.36
   1  -3   3    1.87    0.22
   1   3  -3    3.03    0.40
  -1   3   3    2.18    0.34
  -1   3   3    1.85    0.33
  -1   3  -4    0.73    0.24
   1   3   4    0.07    0.28
  -1  -3   4    0.27    0.14
  -1   3  -4    0.31    0.16
   1   3  -4    0.28    0.14
   1   3  -4    0.34    0.22
  -1   3   4    0.26    0.19
  -1   3   4    0.15    0.22
   1  -3   4    0.19    0.15
  -1  -3   5   13.32    0.84
  -1   3  -5   14.15    0.94
  -1   3  -5   14.14    0.97
   1   3   5   12.66    1.01
  -1   3   5   13.48    0.98
   1   3  -5   14.62    1.06
   1   3  -5   13.80    0.85
  -1   3  -6    6.37    0.62
  -1   3  -6    6.06    0.64
   1   3   6    6.25    0.77
  -1   3   6    5.59    0.66
   1   3  -6    6.08    0.70
   1   3   7    7.59    0.86
  -1   3  -7    4.52    0.67
  -1   3   7    7.29    0.79
   1   3  -7    4.90    0.72
  -1   4   0    4.57    0.50
   1   4   0    4.85    0.50
   1   4   0    4.76    0.34
  -1   4   0    4.82    0.29
   1   4   1    8.09    0.69
  -1   4  -1    9.80    0.75
   1   4   1    8.08    0.56
  -1   4   1    7.36    0.69
  -1   4   1    7.41    0.49
   1   4  -1    9.85    0.44
   1   4  -1    9.48    0.72
  -1   4  -2    4.71    0.52
   1   4   2    3.98    0.48
   1   4   2    3.92    0.46
   1   4  -2    4.73    0.50
  -1   4   2    3.91    0.49
  -1   4   2    3.74    0.37
   1   4  -2    4.47    0.57
  -1   4  -3   30.53    1.80
   1   4   3   31.12    1.65
  -1   4  -3   32.26    1.74
  -1   4   3   29.91    1.74
   1   4  -3   32.51    1.67
  -1   4   3   30.49    1.58
   1   4  -3   32.74    1.85
  -1   4  -4    4.71    0.58
   1   4   4    5.33    0.62
  -1   4  -4    4.32    0.52
  -1   4   4    5.80    0.63
   1   4  -4    4.91    0.49
  -1   4   4    5.67    0.56
   1   4  -4    4.52    0.59
  -1   4  -5   20.49    1.40
   1   4   5   22.05    1.43
  -1   4  -5   23.04    1.40
  -1   4   5   22.70    1.46
   1   4  -5   21.20    1.49
  -1   4   5   22.52    1.37
   1   4   6    8.21    0.86
  -1   4  -6    6.79    0.75
  -1   4  -6    6.26    0.68
   1   4  -6    7.21    0.83
  -1   4   6    7.34    0.77
  -1   4   6    7.52    0.82
   1   5   0   14.64    1.06
  -1   5   0   14.69    1.09
   1   5   1   10.08    0.66
  -1   5  -1   11.04    0.89
   1   5   1   10.60    0.87
   1   5  -1    9.77    0.84
  -1   5   1   11.17    0.61
  -1   5   1   10.35    0.88
  -1   5  -2   14.43    1.10
   1   5   2   13.94    1.08
   1   5   2   14.74    0.91
   1   5  -2   15.30    1.08
   1   5  -2   14.96    1.22
  -1   5   2   14.72    1.11
  -1   5   2   14.38    0.84
  -1   5  -3   27.92    1.84
  -1   5  -3   28.66    1.73
   1   5   3   28.13    1.73
   1   5   3   29.14    1.56
   1   5  -3   29.50    1.89
  -1   5   3   29.18    1.76
  -1   5   3   29.33    1.50
   1   5  -3   28.71    1.68
  -1   5  -4    3.62    0.69
  -1   5  -4    2.66    0.52
   1   5   4    4.59    0.59
   1   5   4    3.93    0.60
  -1   5   4    4.43    0.62
   1   5  -4    2.83    0.46
   1   5  -4    3.03    0.64
  -1   5   4    4.69    0.53
   1   5   5   12.50    0.99
  -1   5  -5   10.96    1.05
  -1   5  -5   11.18    0.98
   1   5   5   10.77    1.03
  -1   5   5   10.91    0.89
  -1   5   5   11.71    1.06
   1   5  -5   11.36    1.11
   1   5   6    0.69    0.35
  -1   5  -6    1.25    0.40
   1   5   6    0.53    0.37
  -1   5  -6    1.44    0.49
  -1   5   6    1.06    0.36
   1   5  -6    1.52    0.54
  -1   5   6    0.68    0.38
   1   6   0   53.30    2.80
  -1   6   0   54.04    2.84
   1   6   1    2.57    0.55
  -1   6  -1    1.65    0.46
  -1   6   1    2.95    0.60
   1   6  -1    1.64    0.43
   1   6   2   23.51    1.53
  -1   6  -2   20.10    1.47
  -1   6   2   21.46    1.51
   1   6  -2   20.77    1.45
   1   6  -2   20.33    1.61
  -1   6  -3    1.26    0.42
  -1   6  -3    1.21    0.49
   1   6   3    1.32    0.34
   1   6   3    1.13    0.40
   1   6  -3    1.52    0.51
  -1   6   3    1.43    0.44
   1   6  -3    1.53    0.45
   1   6   4    0.36    0.28
   1   6   4    0.31    0.30
  -1   6  -4    0.69    0.39
  -1   6  -4    0.96    0.40
  -1   6   4    0.33    0.22
   1   6  -4    1.02    0.44
  -1   6   4    0.28    0.30
  -1   6  -5    2.41    0.58
  -1   6  -5    2.89    0.69
   1   6   5    2.42    0.63
   1   6   5    1.86    0.47
  -1   6   5    2.26    0.46
   1   6  -5    3.28    0.76
  -1   6   5    1.56    0.52
  -1   7   0   22.07    1.61
   1   7   0   23.93    1.64
  -1   7  -1    4.71    0.71
   1   7   1    3.51    0.69
   1   7  -1    5.41    0.72
  -1   7   1    3.36    0.69
   1   7   2    9.99    1.06
  -1   7  -2   11.30    1.09
   1   7  -2   11.09    1.05
  -1   7   2   10.17    1.05
   1   7  -2   10.94    1.19
  -1   7  -3   14.57    1.41
   1   7   3   14.19    1.29
  -1   7  -3   14.29    1.27
  -1   7   3   14.23    1.31
   1   7  -3   14.52    1.24
   1   7  -3   14.99    1.44
  -1   7  -4    2.87    0.69
  -1   7  -4    2.89    0.74
   1   7   4    3.38    0.77
  -1   7   4    3.79    0.81
   1   7  -4    3.20    0.80
  -1   8   0    2.27    0.59
   1   8   0    2.08    0.58
  -1   8  -1    6.58    0.89
   1   8   1    6.49    0.89
  -1   8   1    7.30    0.94
   1   8  -1    7.01    0.89
   2   0   0   25.09    1.09
  -2   0   0   26.14    1.10
  -2   0   0   24.64    1.19
  -2   0  -1    0.20    0.12
   2   0  -1    0.15    0.08
  -2   0   1    0.26    0.12
  -2   0  -1    0.18    0.08
  -2   0  -2   52.32    2.34
  -2   0   2   52.92    2.21
  -2   0   2   54.91    2.36
   2   0   2   54.12    2.38
   2   0  -2   53.60    2.38
  -2   0   3    0.58    0.18
   2   0  -3    0.02    0.11
  -2   0  -3    0.09    0.10
   2   0   3    0.20    0.19
  -2   0   4    4.44    0.43
   2   0  -4    3.27    0.43
  -2   0  -4    3.28    0.38
   2   0   4    5.10    0.55
   2   0   5    0.07    0.29
  -2   0   5    0.13    0.20
  -2   0   6   24.33    1.45
   2   0   6   24.22    1.52
  -2   0   7    0.26    0.22
   2   0   7    0.36    0.32
   2   1   0  473.47   18.84
  -2   1   0  454.22   18.73
  -2   1   0  447.22   18.58
  -2  -1   0  438.56   18.47
  -2  -1   1  317.77   13.40
  -2   1  -1  338.01   13.41
  -2   1  -1  339.32   13.56
  -2  -1  -1  334.30   13.42
  -2   1   1  317.87   13.38
  -2   1   1  322.90   13.40
   2   1  -1  339.28   13.44
   2   1  -1  340.50   13.80
  -2   1  -2  197.48    8.29
   2   1   2  206.46    8.45
  -2  -1   2  209.25    8.41
  -2   1  -2  198.38    8.43
  -2   1   2  211.12    8.43
   2   1  -2  202.73    8.47
  -2   1   2  208.30    8.37
   2  -1   2  208.80    8.40
  -2   1  -3  628.91   26.46
   2   1   3  614.32   25.82
  -2  -1   3  637.45   25.98
  -2   1  -3  661.13   26.02
  -2   1   3  630.45   26.15
   2  -1   3  669.33   26.24
  -2   1   3  630.73   26.09
   2   1   4   18.93    1.17
  -2   1  -4   18.78    0.97
  -2   1  -4   19.32    1.07
  -2  -1   4   17.50    1.02
   2   1  -4   18.41    1.12
   2  -1   4   17.24    1.07
  -2   1   4   18.60    1.09
  -2   1  -5  290.69   13.04
   2   1   5  332.06   13.22
  -2  -1   5  319.57   13.06
  -2   1   5  333.64   13.14
   2   1  -5  299.69   13.16
   2  -1   5  324.75   13.10
  -2  -1   6   55.44    2.70
  -2   1  -6   57.46    2.74
   2   1   6   53.50    2.83
   2   1  -6   55.12    2.82
  -2   1   6   55.67    2.78
   2  -1   6   56.44    2.76
  -2  -1   7   37.00    2.07
   2   1   7   38.10    2.23
   2  -1   7   38.75    2.12
  -2   1   7   39.52    2.17
  -2   2   0   50.92    2.31
  -2  -2   0   52.28    2.25
  -2   2   0   50.60    2.22
  -2  -2   1    2.26    0.24
  -2   2  -1    1.92    0.26
  -2   2  -1    1.73    0.22
  -2   2   1    2.08    0.23
   2   2  -1    1.95    0.21
   2   2  -1    1.85    0.26
  -2  -2  -1    2.26    0.28
  -2   2   1    1.99    0.26
  -2  -2   2   42.93    1.88
   2   2   2   41.99    1.96
  -2   2  -2   40.97    1.96
  -2   2  -2   41.83    1.91
   2   2  -2   40.60    2.00
  -2   2   2   42.87    1.95
   2  -2   2   41.77    1.84
  -2   2   2   41.65    1.91
   2   2  -2   41.72    1.80
  -2   2  -3   15.71    0.89
  -2  -2   3   13.36    0.80
  -2   2  -3   15.37    0.81
  -2   2   3   12.21    0.83
   2   2  -3   16.23    0.96
  -2   2   3   13.40    0.85
   2  -2   3   13.08    0.80
   2   2  -3   16.06    0.71
  -2   2  -4    3.19    0.34
  -2   2  -4    3.42    0.40
   2   2   4    4.64    0.57
  -2  -2   4    4.76    0.41
   2  -2   4    4.12    0.47
   2   2  -4    3.07    0.43
  -2   2   4    4.76    0.44
  -2   2   4    3.92    0.44
   2   2  -4    3.31    0.28
   2   2   5   21.59    1.41
  -2   2  -5   22.76    1.23
  -2  -2   5   21.88    1.24
  -2   2  -5   21.66    1.29
  -2   2   5   22.37    1.33
   2   2  -5   22.54    1.37
   2  -2   5   21.95    1.26
  -2   2   5   21.57    1.27
  -2   2  -6   14.35    0.96
   2   2   6   10.13    0.99
  -2  -2   6   11.33    0.86
   2  -2   6   11.08    0.88
  -2   2   6   11.24    0.94
   2   2  -6   14.44    1.08
   2   2   7    1.70    0.53
  -2  -2   7    2.35    0.45
   2   2  -7    0.76    0.37
  -2   2   7    1.59    0.45
  -2  -3   0  892.50   36.65
  -2   3   0  868.77   36.41
  -2   3   0  876.43   36.11
   2   3   0  944.22   36.84
  -2   3  -1    4.44    0.46
  -2  -3   1    4.90    0.36
  -2   3  -1    4.78    0.33
   2   3   1    5.31    0.42
   2   3  -1    4.48    0.42
  -2   3   1    4.99    0.48
  -2   3   1    5.35    0.38
   2   3  -1    4.91    0.50
   2   3   2  468.90   18.17
  -2  -3   2  451.10   18.04
  -2   3  -2  430.05   18.25
  -2   3   2  466.59   18.12
   2   3  -2  395.82   18.26
  -2   3   2  476.65   18.28
   2  -3   2  474.45   18.03
   2   3  -2  413.13   18.11
  -2  -3   3    1.10    0.21
  -2   3  -3    1.08    0.26
   2   3   3    1.23    0.34
  -2   3  -3    1.02    0.28
   2  -3   3    1.07    0.21
  -2   3   3    1.25    0.30
   2   3  -3    0.99    0.30
  -2   3   3    1.34    0.29
   2   3  -3    1.05    0.20
   2   3   4   63.70    3.09
  -2   3  -4   65.64    3.06
  -2   3  -4   68.06    3.00
  -2  -3   4   64.58    2.88
  -2   3   4   61.13    2.98
   2  -3   4   64.62    2.84
  -2   3   4   63.96    3.06
   2   3  -4   65.85    3.16
  -2   3  -5    1.22    0.30
  -2   3  -5    0.82    0.29
   2   3   5    0.99    0.41
  -2  -3   5    0.95    0.25
  -2   3   5    0.71    0.27
   2   3  -5    1.03    0.34
  -2   3   5    1.82    0.41
   2   3   6  161.21    7.18
  -2   3  -6  164.84    7.06
  -2   3   6  155.17    7.04
  -2   3   6  162.58    7.09
   2   3  -6  162.93    7.20
   2   3   7    3.10    0.66
  -2   3  -7    3.69    0.56
   2   3  -7    3.95    0.74
  -2   3   7    4.13    0.69
   2   4   0   13.35    0.91
   2   4   0   14.45    0.78
  -2   4   0   14.40    0.74
  -2   4   0   14.47    0.99
  -2  -4   1   13.11    0.70
   2   4   1   12.13    0.78
   2   4   1   12.76    0.89
  -2   4  -1   13.81    0.62
  -2   4  -1   15.35    1.00
   2   4  -1   15.00    0.92
  -2   4   1   12.27    0.73
  -2   4   1   13.51    0.95
   2   4   2    6.47    0.60
  -2   4  -2    6.26    0.62
  -2  -4   2    6.77    0.44
   2   4  -2    6.45    0.58
  -2   4   2    7.36    0.66
   2   4  -2    6.17    0.68
  -2   4   2    6.86    0.51
   2   4   3   42.61    2.26
  -2   4  -3   50.16    2.41
  -2   4  -3   49.74    2.43
  -2   4   3   42.11    2.18
   2   4  -3   48.90    2.50
   2   4  -3   49.11    2.24
  -2   4   3   41.28    2.33
  -2   4  -4    3.23    0.47
  -2   4  -4    3.52    0.49
   2   4   4    2.90    0.56
  -2   4   4    3.12    0.55
   2   4  -4    3.39    0.53
  -2   4   4    2.90    0.46
  -2   4  -5   51.47    2.62
  -2   4  -5   50.84    2.66
   2   4   5   51.52    2.69
   2   4  -5   50.59    2.80
  -2   4   5   52.74    2.71
  -2   4   5   51.83    2.59
  -2   4  -6    5.44    0.66
   2   4   6    5.85    0.86
  -2   4   6    4.91    0.63
   2   4  -6    5.17    0.74
  -2   4   6    4.67    0.66
   2   5   0  148.35    6.05
  -2   5   0  142.90    6.45
   2   5   0  146.76    6.40
  -2   5  -1   85.25    3.69
   2   5   1   72.15    3.56
   2   5   1   71.42    3.29
  -2   5   1   71.50    3.23
   2   5  -1   81.93    3.59
  -2   5   1   69.83    3.59
  -2   5  -2   61.83    3.19
   2   5   2   65.76    2.96
   2   5   2   66.53    3.19
  -2   5   2   68.82    3.24
   2   5  -2   61.19    3.31
   2   5  -2   59.71    3.08
  -2   5   2   66.37    2.88
  -2   5  -3  232.54   10.04
   2   5   3  233.60    9.81
  -2   5  -3  237.52   10.17
   2   5   3  232.14   10.02
  -2   5   3  233.14   10.04
  -2   5   3  229.70    9.70
   2   5  -3  237.29   10.19
   2   5  -3  231.38    9.87
   2   5   4   25.12    1.58
   2   5   4   26.20    1.71
  -2   5  -4   28.15    1.74
  -2   5  -4   27.14    1.70
  -2   5   4   27.28    1.51
   2   5  -4   26.33    1.81
  -2   5   4   24.62    1.66
  -2   5  -5  127.67    6.09
   2   5   5  136.01    6.05
   2   5  -5  131.98    6.34
  -2   5   5  136.03    6.16
  -2   5   5  138.86    5.96
  -2   5  -6   32.40    2.05
   2   5   6   36.46    2.13
  -2   5   6   36.05    2.02
  -2   5   6   33.80    2.13
   2   5  -6   33.36    2.26
   2   6   0   20.85    1.42
  -2   6   0   20.62    1.46
  -2   6  -1   15.02    1.17
   2   6   1   13.31    1.10
  -2   6   1   13.37    1.14
   2   6  -1   14.76    1.12
  -2   6  -2   11.27    1.05
   2   6   2   14.35    1.13
  -2   6   2   13.13    1.11
   2   6  -2   12.45    1.18
   2   6  -2   11.02    0.97
  -2   6  -3   26.38    1.88
   2   6   3   26.49    1.76
   2   6   3   24.90    1.51
  -2   6  -3   28.79    1.82
  -2   6   3   25.28    1.75
   2   6  -3   27.12    1.90
  -2   6  -4    1.93    0.56
  -2   6  -4    1.36    0.46
   2   6   4    1.89    0.46
   2   6   4    1.79    0.52
  -2   6   4    2.51    0.62
  -2   6   4    2.11    0.41
   2   6  -4    1.57    0.54
  -2   6  -5   24.01    1.75
   2   6   5   26.09    1.83
   2   6   5   25.66    1.64
  -2   6   5   25.66    1.79
  -2   6   5   24.31    1.52
   2   6  -5   23.23    1.87
  -2   7   0   38.42    2.31
   2   7   0   37.03    2.23
  -2   7  -1   48.94    2.65
   2   7   1   41.98    2.55
   2   7  -1   48.52    2.57
  -2   7   1   40.02    2.54
  -2   7  -2   21.51    1.58
   2   7   2   22.72    1.61
   2   7  -2   18.69    1.64
   2   7  -2   18.77    1.45
  -2   7   2   22.00    1.61
  -2   7  -3  106.83    5.50
   2   7   3  106.44    5.30
  -2   7  -3  114.07    5.37
   2   7  -3  112.93    5.57
  -2   7   3  107.15    5.33
  -2   8   0   35.76    2.34
   2   8   0   37.24    2.33
  -3   0   0    0.01    0.05
  -3   0   0    0.02    0.11
   3   0   0   -0.01    0.05
  -3   0   1   54.01    2.07
   3   0  -1   46.81    2.17
  -3   0  -1   47.92    2.28
  -3   0  -1   46.97    2.16
  -3   0   1   52.06    2.27
   3   0  -2    0.08    0.11
  -3   0   2    0.03    0.03
  -3   0  -2   -0.01    0.16
  -3   0   2    0.04    0.11
  -3   0  -2    0.04    0.08
  -3   0  -3    4.92    0.42
   3   0   3    4.04    0.47
  -3   0   3    4.24    0.43
   3   0  -3    5.09    0.46
  -3   0   3    4.19    0.27
  -3   0  -4    0.04    0.12
   3   0   4    0.24    0.29
   3   0  -4    0.07    0.18
  -3   0   4   -0.03    0.13
  -3   0   5   18.00    1.14
   3   0   5   17.70    1.23
  -3   0   6    0.08    0.18
   3   0   6   -0.06    0.31
  -3   0   7    7.41    0.79
   3   0   7    7.57    0.86
  -3   1   0   11.40    0.62
   3   1   0   11.05    0.60
  -3   1   0   10.37    0.67
  -3  -1   0   11.17    0.71
  -3   1  -1    2.49    0.35
  -3  -1   1    1.77    0.28
  -3   1  -1    2.42    0.26
   3   1   1    1.65    0.17
  -3   1   1    1.67    0.20
  -3  -1  -1    2.75    0.35
  -3   1   1    1.84    0.29
   3   1  -1    2.35    0.25
  -3  -1   2   14.74    0.84
  -3   1  -2   13.64    0.81
  -3   1  -2   13.60    0.83
  -3   1  -2   13.94    0.62
  -3   1   2   15.07    0.75
  -3  -1  -2   13.99    0.87
  -3   1   2   14.70    0.85
  -3  -1   3   11.11    0.73
  -3   1  -3   12.07    0.56
  -3   1  -3   11.35    0.73
   3   1   3   10.22    0.79
   3  -1   3   10.66    0.75
  -3   1   3   10.82    0.74
   3   1  -3   11.90    0.78
  -3   1   3   10.46    0.63
  -3  -1   4    9.27    0.66
  -3   1  -4    6.48    0.60
   3   1   4    8.78    0.80
   3   1  -4    7.07    0.67
   3  -1   4    9.18    0.74
  -3   1   4    8.96    0.68
  -3   1   4    9.14    0.57
  -3  -1   5   12.46    0.88
  -3   1  -5   11.61    0.87
   3   1   5   12.99    1.06
  -3   1   5   12.47    0.91
   3   1  -5   11.95    0.96
   3  -1   5   13.48    0.98
  -3   1  -6    9.58    0.81
  -3  -1   6    9.05    0.78
   3   1   6    8.53    0.95
  -3   1   6    9.01    0.80
   3  -1   6    9.01    0.87
   3   1  -6    9.56    0.89
  -3  -1   7    5.12    0.62
   3   1   7    5.81    0.89
   3  -1   7    5.38    0.74
  -3   1   7    5.38    0.68
  -3  -2   0   17.16    0.94
   3   2   0   17.32    0.95
  -3   2   0   16.51    0.93
  -3   2   0   16.92    0.94
  -3   2  -1   13.18    0.81
  -3   2  -1   12.43    0.80
  -3  -2   1   14.43    0.80
   3   2  -1   12.60    0.80
  -3   2   1   14.81    0.81
   3   2  -1   13.15    0.69
  -3   2   1   14.01    0.79
  -3  -2  -1   13.54    0.82
   3   2   2   31.63    1.64
  -3   2  -2   32.05    1.61
  -3   2  -2   32.40    1.53
  -3  -2   2   32.09    1.56
  -3   2  -2   33.60    1.50
   3   2  -2   32.62    1.37
  -3  -2  -2   31.15    1.59
   3   2  -2   32.71    1.65
  -3   2   2   32.12    1.57
  -3   2   2   30.85    1.57
  -3  -2   3    4.39    0.41
   3   2   3    3.87    0.51
  -3   2  -3    3.92    0.31
  -3   2  -3    3.89    0.44
  -3   2   3    4.27    0.40
   3   2  -3    3.84    0.45
  -3   2   3    4.18    0.44
   3  -2   3    3.94    0.45
  -3   2  -4    9.76    0.78
   3   2   4   12.69    0.97
  -3  -2   4   12.48    0.81
   3  -2   4   12.85    0.86
  -3   2   4   12.42    0.85
   3   2  -4    9.94    0.84
  -3   2   4   12.97    0.80
  -3   2  -5    3.69    0.46
  -3  -2   5    2.72    0.45
   3   2   5    3.56    0.67
   3   2  -5    3.65    0.51
   3  -2   5    3.29    0.52
  -3   2   5    3.47    0.48
  -3   2  -6    0.82    0.29
  -3  -2   6    0.55    0.25
   3   2   6    0.37    0.42
   3  -2   6    0.39    0.30
  -3   2   6    0.43    0.28
   3   2  -6    1.37    0.43
  -3   2  -7    0.64    0.30
  -3  -2   7    0.75    0.30
   3   2   7    0.93    0.50
   3   2  -7    0.92    0.42
  -3   2   7    0.86    0.36
   3   3   0   37.76    1.82
  -3   3   0   38.97    1.92
  -3  -3   0   38.57    1.80
  -3   3   0   37.57    1.79
  -3   3  -1    0.26    0.16
  -3   3  -1    0.51    0.19
  -3  -3   1    0.03    0.12
  -3   3   1    0.10    0.11
   3   3  -1    0.52    0.17
  -3  -3  -1    0.60    0.22
  -3   3   1    0.04    0.12
   3   3  -1    0.56    0.21
  -3   3  -2   13.27    0.91
  -3   3  -2   12.63    0.73
   3   3   2   14.34    0.90
  -3  -3   2   13.56    0.80
   3   3  -2   12.91    0.93
  -3   3   2   14.51    0.84
  -3   3   2   13.81    0.89
   3   3  -2   12.89    0.76
  -3  -3   3    6.37    0.53
   3   3   3    6.47    0.69
  -3   3  -3    8.55    0.58
  -3   3  -3    8.63    0.68
   3  -3   3    5.87    0.51
  -3   3   3    5.54    0.55
  -3   3   3    6.60    0.60
   3   3  -3    7.98    0.70
  -3   3  -4    0.76    0.29
  -3  -3   4    0.33    0.17
   3   3   4    0.35    0.35
   3  -3   4    0.21    0.22
  -3   3   4    0.14    0.17
  -3   3   4    0.30    0.19
   3   3  -4    0.74    0.29
   3   3   5   16.69    1.26
  -3  -3   5   16.01    0.99
  -3   3  -5   14.61    1.06
  -3   3   5   14.78    1.04
   3   3  -5   15.00    1.17
  -3   3   5   15.07    1.06
  -3   3  -6    6.56    0.69
  -3   3   6    5.68    0.68
   3   3  -6    5.01    0.70
  -3   4   0    8.29    0.72
   3   4   0    7.98    0.65
  -3  -4   0    8.54    0.59
  -3   4   0    8.52    0.57
  -3   4  -1    8.77    0.74
  -3   4  -1    7.93    0.51
   3   4   1    7.71    0.66
   3   4   1    7.23    0.60
  -3  -4   1    7.55    0.55
  -3   4   1    6.80    0.66
  -3   4   1    7.30    0.55
   3   4  -1    8.52    0.66
   3   4  -1    8.80    0.77
  -3  -4   2   14.07    0.87
  -3   4  -2   17.87    1.15
   3   4   2   14.75    1.01
   3   4  -2   17.78    1.18
   3   4  -2   17.13    1.00
  -3   4   2   14.99    0.93
  -3   4   2   14.62    1.06
   3   4   3   16.02    1.13
  -3   4  -3   18.44    1.20
  -3  -4   3   16.07    0.94
  -3   4  -3   17.02    1.13
  -3   4   3   16.63    1.04
   3   4  -3   17.11    1.23
  -3   4   3   16.77    1.15
   3   4   4   10.71    0.95
  -3   4  -4    9.63    0.87
  -3   4   4   10.64    0.88
  -3   4   4   10.68    0.80
   3   4  -4    9.09    0.92
  -3   4  -5   10.60    0.95
   3   4   5   12.11    1.10
  -3   4   5   12.12    0.93
   3   4  -5   10.86    1.05
  -3   4   5   11.88    0.97
  -3   4  -6    2.71    0.56
   3   4   6    3.53    0.75
   3   4  -6    2.42    0.60
  -3   4   6    3.65    0.61
  -3   5   0   19.65    1.33
   3   5   0   18.99    1.23
   3   5   0   19.44    1.06
   3   5   1    7.46    0.63
   3   5   1    6.59    0.68
  -3   5  -1    7.40    0.75
   3   5  -1    8.10    0.84
  -3   5   1    7.15    0.64
  -3   5   1    6.81    0.72
   3   5  -1    7.49    0.69
   3   5   2   13.69    1.04
  -3   5  -2   11.80    1.02
   3   5   2   13.95    0.94
   3   5  -2   12.20    1.10
  -3   5   2   15.05    0.88
  -3   5   2   14.22    1.08
   3   5  -2   11.16    0.91
   3   5   3   26.48    1.53
  -3   5  -3   25.06    1.63
   3   5   3   25.40    1.62
  -3   5  -3   25.52    1.68
   3   5  -3   25.12    1.73
  -3   5   3   25.59    1.42
  -3   5   3   25.31    1.61
   3   5   4    3.45    0.65
  -3   5   4    3.19    0.61
  -3   5   4    3.61    0.48
  -3   5  -5    6.36    0.80
   3   5   5    6.98    0.87
  -3   5   5    7.00    0.83
   3   5  -5    7.29    0.92
  -3   5   5    7.74    0.74
  -3   6   0   39.73    2.28
   3   6   0   38.49    2.18
  -3   6  -1   11.39    1.05
   3   6   1   13.45    1.06
  -3   6   1   13.70    1.12
   3   6  -1   11.96    1.14
   3   6  -1   11.80    1.00
   3   6   2   17.67    1.29
  -3   6  -2   14.79    1.25
   3   6  -2   16.38    1.38
  -3   6   2   15.31    1.25
  -3   6  -3    2.66    0.61
  -3   6  -3    1.76    0.53
   3   6   3    2.92    0.58
   3   6   3    3.41    0.58
   3   6  -3    2.57    0.62
  -3   6   3    3.30    0.65
   3   6   4    0.18    0.35
  -3   6  -4    0.38    0.31
   3   6   4    0.16    0.27
  -3   6   4    0.24    0.29
   3   6  -4    0.60    0.39
  -3   7   0   14.92    1.27
   3   7   0   14.94    1.22
  -3   7  -1    5.29    0.74
   3   7   1    3.05    0.65
   3   7  -1    4.65    0.67
   3   7  -1    4.92    0.78
   3   7   2    3.34    0.68
  -3   7  -2    3.62    0.73
  -3   7   2    3.81    0.73
   3   7  -2    3.39    0.76
   3   7   3   16.19    1.42
  -3   7  -3   18.03    1.57
  -3   7  -3   18.82    1.50
   3   7  -3   19.24    1.62
  -3   7   3   16.98    1.45
   4   0   0 1000.00   39.66
  -4   0   0  935.34   39.63
  -4   0   0  990.68   39.94
  -4   0   2  486.64   19.31
  -4   0  -2  463.26   19.21
  -4   0   2  532.31   19.08
   4   0  -2  445.85   19.20
  -4   0  -2  439.63   19.30
  -4   0   3   -0.01    0.12
  -4   0  -3    0.07    0.13
   4   0  -3    0.42    0.22
   4   0   3   -0.08    0.21
  -4   0  -3    0.09    0.22
  -4   0  -4   65.69    3.09
   4   0   4   65.49    3.19
  -4   0   4   65.89    3.11
   4   0  -4   68.05    3.15
  -4   0   5   -0.02    0.16
   4   0   5    0.51    0.39
  -4   0   6  172.58    7.56
   4   0   6  174.00    7.68
  -4   0   7    0.19    0.22
   4   0   7   -0.03    0.37
   4   1   0    0.14    0.09
  -4  -1   0   -0.01    0.14
  -4   1   0    0.10    0.10
  -4   1   0    0.11    0.14
  -4   1  -1   10.62    0.67
  -4   1  -1    9.98    0.78
  -4  -1   1   10.59    0.73
   4   1   1   11.12    0.56
  -4   1   1   10.99    0.61
   4   1  -1   10.39    0.66
  -4   1   1   10.47    0.73
  -4  -1  -1   11.07    0.78
   4   1   2    2.97    0.20
  -4   1  -2    2.76    0.43
  -4  -1   2    2.94    0.38
  -4   1  -2    3.08    0.35
  -4   1   2    2.69    0.25
  -4   1   2    2.52    0.36
   4   1  -2    2.94    0.35
  -4  -1  -2    3.34    0.49
  -4  -1   3   16.85    1.08
  -4   1  -3   20.73    1.14
  -4   1  -3   20.66    1.12
  -4   1   3   17.27    0.91
  -4   1   3   16.68    1.08
   4   1  -3   20.13    1.14
   4  -1   3   16.63    1.12
  -4   1  -4    0.03    0.14
  -4  -1   4    0.14    0.17
   4   1   4    0.23    0.34
  -4   1   4    0.31    0.22
   4   1  -4   -0.08    0.17
   4  -1   4    0.84    0.37
   4   1   5   35.27    2.03
  -4  -1   5   34.33    1.84
  -4   1  -5   32.98    1.84
   4   1  -5   33.71    1.92
  -4   1   5   32.49    1.85
   4  -1   5   33.36    1.90
  -4  -1   6    3.71    0.58
  -4   1  -6    4.08    0.55
   4   1   6    3.71    0.72
   4   1  -6    3.64    0.59
   4  -1   6    2.91    0.61
  -4   1   6    3.53    0.60
  -4  -1   7    3.93    0.64
   4   1   7    4.05    0.77
   4  -1   7    3.83    0.73
  -4   1   7    4.07    0.68
  -4  -2   0  262.64   10.63
   4   2   0  251.64   10.52
  -4   2   0  257.68   10.61
  -4   2   0  253.12   10.55
   4   2   1  164.99    7.13
  -4   2  -1  168.78    7.28
  -4  -2   1  160.70    7.22
  -4   2  -1  182.78    7.24
  -4   2   1  160.83    7.15
  -4   2   1  160.23    7.22
   4   2  -1  188.42    7.25
  -4  -2  -1  188.35    7.29
  -4   2  -2  106.20    4.43
  -4   2  -2  104.43    4.63
  -4   2  -2  100.36    4.64
  -4  -2   2  112.02    4.66
  -4   2   2  111.61    4.58
  -4  -2  -2  104.24    4.67
  -4   2   2  108.19    4.66
   4   2  -2  106.44    4.69
  -4   2  -3  415.39   17.17
  -4  -2   3  429.38   17.15
   4   2   3  399.85   17.20
   4   2  -3  437.96   17.26
  -4   2   3  416.40   17.16
   4  -2   3  414.72   17.11
  -4   2   3  417.86   17.04
  -4   2  -4   25.78    1.48
   4   2   4   28.03    1.62
  -4  -2   4   24.69    1.43
   4  -2   4   23.25    1.42
   4   2  -4   26.04    1.54
   4   2   5  217.41    9.17
  -4   2  -5  198.31    8.98
  -4  -2   5  213.00    8.94
   4  -2   5  219.22    8.94
  -4   2   5  215.91    9.01
   4   2  -5  201.15    9.09
   4   2   6   46.81    2.62
  -4  -2   6   41.95    2.30
  -4   2  -6   43.99    2.38
   4  -2   6   44.05    2.35
  -4   2   6   43.91    2.40
   4   2  -6   44.83    2.51
   4   3   0   11.56    0.82
  -4   3   0   11.87    0.79
  -4  -3   0   12.37    0.81
  -4   3   0   12.46    0.84
  -4  -3   1    8.31    0.65
  -4   3  -1    9.26    0.72
  -4   3  -1    8.97    0.69
  -4   3   1    8.31    0.65
   4   3  -1    8.80    0.59
  -4   3   1    8.25    0.67
  -4  -3  -1    9.85    0.72
   4   3  -1    9.30    0.72
  -4   3  -2   18.67    1.17
   4   3   2   20.11    1.19
  -4   3  -2   19.33    1.07
  -4  -3   2   18.01    1.08
  -4   3   2   18.77    1.11
  -4  -3  -2   18.78    1.14
  -4   3   2   19.04    1.13
   4   3  -2   17.68    1.17
  -4  -3   3   16.31    1.01
  -4   3  -3   17.66    1.13
   4   3   3   15.17    1.13
   4   3  -3   16.34    1.14
  -4   3   3   15.42    1.01
   4  -3   3   15.83    0.95
  -4   3   3   15.84    1.03
   4   3   4    1.07    0.44
  -4  -3   4    1.68    0.36
  -4   3   4    1.19    0.33
  -4   3   4    1.43    0.33
   4  -3   4    1.32    0.38
  -4  -3   5   13.72    0.95
  -4   3  -5   12.22    0.99
  -4   3   5   13.71    1.02
   4   3  -5   11.40    1.03
  -4   3  -6   19.60    1.34
   4   3   6   15.92    1.45
   4   3  -6   20.13    1.46
  -4   3   6   15.04    1.23
   4   4   0  140.83    6.13
  -4  -4   0  140.41    5.88
  -4   4   0  134.00    5.87
  -4   4   0  142.02    6.10
   4   4   0  134.31    5.93
  -4  -4   1  112.18    5.11
  -4   4  -1  124.84    5.37
  -4   4  -1  121.93    5.11
  -4  -4  -1  125.46    5.16
   4   4  -1  122.34    5.18
  -4   4   1  112.26    5.29
   4   4  -1  123.86    5.41
  -4   4   1  114.54    5.15
   4   4   2   64.51    3.00
  -4   4  -2   60.08    3.10
  -4  -4   2   67.68    2.93
   4   4  -2   59.30    3.14
  -4   4   2   65.45    2.96
  -4   4   2   64.47    3.07
  -4   4  -3  270.23   11.40
   4   4   3  268.58   11.31
  -4  -4   3  263.15   11.12
  -4   4   3  272.71   11.23
  -4   4   3  267.72   11.32
   4   4  -3  271.31   11.48
  -4   4  -4    1.10    0.38
   4   4   4    1.23    0.48
   4   4  -4    0.70    0.32
  -4   4   4    1.71    0.42
  -4   4   4    1.18    0.32
   4   4   5  119.45    5.53
  -4   4  -5  115.43    5.47
   4   4  -5  115.78    5.61
  -4   4   5  123.94    5.39
  -4   4  -6   19.32    1.40
   4   4   6   16.09    1.46
   4   4  -6   18.67    1.49
  -4   4   6   16.97    1.29
  -4   5   0   47.49    2.49
  -4  -5   0   44.61    2.16
   4   5   0   44.79    2.33
   4   5   0   46.80    2.53
   4   5   1    1.66    0.40
  -4   5  -1    1.66    0.46
   4   5   1    1.58    0.35
   4   5  -1    1.67    0.38
   4   5  -1    2.27    0.53
  -4   5   1    1.79    0.45
   4   5   2   33.97    1.91
  -4   5  -2   29.63    1.91
   4   5   2   34.93    1.81
  -4   5   2   33.39    1.90
  -4   5   2   33.35    1.71
   4   5  -2   29.23    1.94
  -4   5  -3    5.67    0.71
   4   5   3    4.53    0.70
  -4   5   3    5.43    0.57
   4   5  -3    6.04    0.76
  -4   5   3    5.52    0.67
   4   5   4    2.64    0.59
  -4   5   4    3.10    0.59
  -4   5   4    2.60    0.48
  -4   5  -5    4.57    0.82
   4   5   5    4.09    0.77
  -4   5   5    4.29    0.58
   4   5  -5    4.10    0.81
  -4   6   0  248.21   10.59
   4   6   0  244.51   10.44
   4   6   0  239.75   10.65
  -4   6  -1    4.73    0.69
   4   6   1    4.92    0.65
  -4   6   1    5.24    0.71
   4   6  -1    4.86    0.70
   4   6   2  117.40    5.35
  -4   6  -2  105.38    5.35
  -4   6   2  115.19    5.36
   4   6  -2  118.36    5.53
   4   6   3    1.79    0.49
  -4   6  -3    1.80    0.52
   4   6   3    2.28    0.55
  -4   6   3    2.49    0.57
   4   6  -3    1.86    0.56
   4   6   4   14.88    1.26
  -4   6  -4   15.94    1.36
   4   6   4   14.28    1.30
  -4   6   4   18.37    1.38
   4   6  -4   16.18    1.46
   4   7   0    4.98    0.79
  -4   7   0    4.94    0.76
   4   7   0    5.61    0.72
  -4   7  -1    5.16    0.77
   4   7  -1    4.39    0.73
   4   7   2    5.18    0.75
  -4   7  -2    5.97    0.83
  -4   7   2    5.52    0.79
   4   7  -2    5.75    0.85
  -5   0   0    0.01    0.07
  -5   0   0   -0.03    0.17
  -5   0  -1    5.66    0.62
  -5   0   1    4.13    0.48
  -5   0  -1    5.09    0.42
   5   0  -1    5.15    0.42
  -5   0   1    4.07    0.31
  -5   0   2   -0.03    0.14
   5   0  -2    0.01    0.13
  -5   0  -2    0.01    0.11
  -5   0  -2    0.09    0.27
   5   0  -3   15.89    1.03
  -5   0  -3   16.90    1.03
  -5   0  -3   16.65    1.15
  -5   0   3   13.59    1.02
  -5   0   4    0.09    0.17
   5   0   4   -0.21    0.28
  -5   0  -4    0.05    0.16
  -5   0   5   21.27    1.40
   5   0   5   22.09    1.53
  -5   0   6    0.30    0.25
   5   0   6   -0.22    0.39
   5   1   0    0.19    0.11
  -5   1   0    0.81    0.19
  -5   1   0    0.22    0.21
  -5  -1   0    0.31    0.25
   5   1   1    9.41    0.51
  -5   1  -1    8.81    0.63
  -5  -1   1    9.07    0.73
  -5   1  -1    8.50    0.78
  -5   1   1    9.67    0.57
   5   1  -1    8.69    0.61
  -5  -1  -1    8.97    0.79
  -5   1   1    9.05    0.74
  -5   1  -2   24.44    1.43
  -5   1  -2   24.06    1.28
  -5  -1   2   21.08    1.32
   5   1  -2   23.53    1.28
  -5  -1  -2   25.82    1.46
  -5   1   2   21.45    1.34
  -5   1   2   21.60    1.09
  -5   1  -3    2.46    0.47
  -5  -1   3    3.08    0.49
  -5   1  -3    1.90    0.36
  -5   1   3    1.59    0.35
   5   1  -3    2.47    0.45
  -5  -1  -3    1.95    0.48
  -5   1  -4   13.15    0.98
  -5  -1   4   16.08    1.06
   5   1   4   14.98    1.17
   5  -1   4   14.77    1.10
  -5   1   4   14.75    1.04
   5   1  -4   12.49    1.01
   5   1   5    3.10    0.70
  -5  -1   5    3.92    0.53
  -5   1  -5    3.29    0.51
   5  -1   5    3.84    0.68
   5   1  -5    4.14    0.58
  -5   1   5    4.21    0.57
   5   1   6    0.34    0.48
  -5  -1   6    0.26    0.24
  -5   1  -6    0.16    0.22
  -5   1   6    0.53    0.30
   5  -1   6    0.34    0.42
   5   1  -6   -0.05    0.27
  -5   2   0   23.43    1.38
   5   2   0   23.64    1.24
  -5  -2   0   24.35    1.39
  -5   2   0   23.10    1.27
  -5  -2   1    2.10    0.40
  -5   2  -1    2.21    0.32
   5   2   1    2.32    0.27
  -5   2  -1    2.38    0.47
   5   2  -1    2.27    0.33
  -5   2   1    1.87    0.37
  -5   2   1    2.42    0.32
  -5  -2  -1    2.32    0.44
  -5  -2   2   20.42    1.18
  -5   2  -2   16.38    1.15
  -5   2  -2   17.39    1.11
  -5  -2  -2   17.10    1.18
  -5   2   2   19.85    1.19
   5   2  -2   17.04    1.12
  -5   2   2   19.75    1.02
  -5   2  -3    4.09    0.50
  -5  -2   3    4.57    0.53
  -5   2  -3    4.93    0.59
   5   2   3    4.62    0.69
   5   2  -3    4.03    0.50
  -5   2   3    4.42    0.52
  -5   2  -4    8.18    0.76
  -5  -2   4   10.06    0.82
   5   2   4   10.36    0.96
   5  -2   4   10.35    0.89
   5   2  -4    8.16    0.80
  -5   2   4   10.07    0.84
  -5   2  -5    0.89    0.32
  -5  -2   5    0.95    0.32
   5   2   5    0.83    0.49
   5  -2   5    0.61    0.39
  -5   2   5    0.42    0.27
   5   2  -5    0.68    0.33
  -5   2  -6   11.13    0.97
  -5  -2   6    9.84    0.92
   5   2   6   10.34    1.19
   5  -2   6   10.09    1.54
  -5   2   6    9.83    0.94
   5   2  -6   10.88    1.05
   5   3   0   16.50    1.02
  -5  -3   0   16.31    1.06
  -5   3   0   15.49    1.03
  -5   3   0   16.66    1.07
   5   3   1   32.37    1.60
  -5  -3   1   31.16    1.66
  -5   3  -1   28.09    1.65
  -5   3  -1   28.54    1.64
  -5   3   1   32.96    1.68
   5   3  -1   28.21    1.63
  -5  -3  -1   29.38    1.65
  -5   3   1   31.35    1.63
  -5   3  -2    6.00    0.61
  -5   3  -2    6.16    0.63
  -5  -3   2    7.85    0.68
   5   3   2    7.19    0.59
   5   3  -2    6.89    0.67
  -5   3   2    7.52    0.62
  -5   3   2    6.51    0.63
  -5  -3  -2    6.21    0.68
   5   3   3    0.88    0.35
  -5  -3   3    1.39    0.34
  -5   3   3    1.42    0.32
  -5   3   3    1.17    0.34
  -5   3  -4    0.51    0.28
   5   3   4    0.25    0.40
  -5  -3   4    0.31    0.22
  -5   3   4    0.48    0.26
   5   3  -4    0.45    0.28
  -5  -3   5    5.88    0.67
   5   3   5    4.88    0.84
  -5   3  -5    6.99    0.74
   5   3  -5    7.15    0.79
  -5   3   5    5.58    0.69
  -5   3  -6    3.04    0.60
   5   3   6    2.28    0.67
   5   3  -6    3.14    0.67
  -5   3   6    3.02    0.58
  -5   4   0    1.98    0.39
  -5  -4   0    2.22    0.41
   5   4   0    1.96    0.42
   5   4   0    2.21    0.39
  -5   4   0    2.08    0.45
  -5   4  -1    5.97    0.57
  -5  -4   1    3.66    0.49
   5   4   1    3.97    0.52
  -5   4   1    4.19    0.51
   5   4  -1    5.63    0.61
  -5   4   1    3.76    0.51
  -5  -4   2    0.20    0.22
   5   4   2    0.36    0.30
  -5   4  -2    0.15    0.20
  -5   4   2    0.24    0.20
  -5   4   2    0.18    0.20
   5   4  -2    0.27    0.23
  -5   4  -3   22.01    1.44
   5   4   3   19.98    1.38
  -5  -4   3   21.12    1.29
   5   4  -3   22.73    1.50
  -5   4   3   19.52    1.30
  -5   4   3   20.84    1.32
  -5   4  -4    7.71    0.85
   5   4   4    8.67    0.91
   5   4  -4    7.82    0.88
  -5   4   4    8.92    0.80
   5   4   5   17.13    1.38
  -5   4  -5   14.56    1.21
  -5   4   5   17.06    1.22
   5   4  -5   14.35    1.30
   5   5   0    1.66    0.45
  -5   5   0    1.66    0.45
  -5  -5   0    1.11    0.33
   5   5   0    1.57    0.38
   5   5   1   14.10    1.10
  -5   5  -1   13.28    1.09
   5   5   1   13.84    1.02
  -5   5   1   13.26    1.07
  -5  -5  -1   11.75    0.91
   5   5  -1   12.92    1.09
  -5   5  -2    8.37    0.86
   5   5   2    7.66    0.80
   5   5  -2    7.94    0.87
  -5   5   2    8.58    0.74
  -5   5   2    7.42    0.78
  -5   5  -3   18.47    1.37
   5   5   3   18.04    1.30
  -5   5   3   18.16    1.29
   5   5  -3   16.77    1.37
  -5   5   3   17.67    1.20
   5   5   4    6.10    0.90
  -5   5  -4    6.46    0.81
  -5   5   4    5.92    0.68
   5   5  -4    5.89    0.83
  -5   6   0   37.67    2.23
   5   6   0   37.48    2.28
   5   6   1    1.14    0.43
  -5   6  -1    2.00    0.52
   5   6   1    1.71    0.45
   5   6  -1    1.93    0.54
  -5   6   1    1.43    0.46
   5   6   2   15.32    1.20
  -5   6  -2   12.57    1.18
  -5   6   2   13.71    1.16
   5   6  -2   12.90    1.22
   5   6   3    2.20    0.57
   5   6   3    2.37    0.57
  -5   6  -3    3.18    0.69
   5   6  -3    2.48    0.64
  -5   6   3    1.79    0.49
  -6   0   0    2.30    0.29
  -6   0   0    2.71    0.52
  -6   0  -1   -0.05    0.25
  -6   0  -1    0.04    0.12
  -6   0   1   -0.02    0.18
  -6   0  -2   17.31    1.23
  -6   0   2   16.00    1.14
  -6   0  -2   16.23    1.02
  -6   0  -3    0.04    0.16
  -6   0   3   -0.18    0.15
  -6   0  -3    0.01    0.29
  -6   0  -4    1.63    0.39
   6   0   4    2.86    0.61
  -6   0   4    2.60    0.50
  -6   0   5    0.07    0.23
   6   0   5    0.27    0.41
   6   0   6    8.16    1.11
  -6   0   6    9.48    0.92
   6   1   0  161.89    6.77
  -6  -1   0  168.48    7.14
  -6   1   0  162.19    7.12
  -6   1   0  159.43    6.82
  -6   1  -1  119.98    5.09
  -6   1  -1  122.32    5.37
  -6  -1   1  113.48    5.29
  -6   1   1  112.04    4.97
   6   1  -1  124.42    5.09
  -6   1   1  107.48    5.24
  -6  -1  -1  126.40    5.36
  -6  -1   2   71.60    3.26
  -6   1  -2   64.07    3.08
  -6   1  -2   64.62    3.28
   6   1  -2   63.60    3.09
  -6   1   2   69.73    3.25
  -6  -1  -2   67.39    3.30
  -6  -1   3  280.96   12.39
  -6   1  -3  299.13   12.48
  -6   1  -3  297.35   12.34
  -6  -1  -3  299.62   12.49
   6   1  -3  305.69   12.39
  -6   1   3  291.14   12.44
  -6   1  -4    5.93    0.63
  -6  -1   4    5.26    0.65
   6   1  -4    5.12    0.64
  -6   1   4    4.62    0.62
   6  -1   4    4.42    0.70
   6   1   5  136.29    6.36
  -6  -1   5  143.79    6.23
  -6   1  -5  132.04    6.16
  -6   1   5  141.33    6.24
   6  -1   5  141.94    6.29
   6   1  -5  130.33    6.21
  -6  -1   6   24.66    1.64
  -6   1  -6   26.62    1.68
   6   1   6   23.52    1.86
   6  -1   6   23.02    1.74
  -6   1   6   23.21    1.63
  -6   2   0   11.39    0.77
  -6   2   0   10.72    0.92
  -6  -2   0   10.70    0.91
   6   2   0   11.15    0.74
  -6  -2   1    1.37    0.37
  -6   2  -1    0.57    0.22
  -6   2  -1    0.95    0.38
  -6   2   1    1.43    0.28
  -6   2   1    0.88    0.31
   6   2  -1    0.96    0.27
  -6  -2  -1    0.95    0.38
  -6   2  -2   11.17    0.96
  -6  -2   2   11.41    0.92
  -6   2  -2   11.55    0.87
   6   2  -2   12.33    0.89
  -6   2   2   12.28    0.94
  -6  -2  -2   11.21    0.99
  -6   2  -3    5.93    0.71
  -6  -2   3    4.21    0.55
  -6   2  -3    5.50    0.58
   6   2  -3    5.65    0.62
  -6  -2  -3    5.12    0.72
  -6   2   3    3.78    0.54
  -6   2  -4    0.79    0.30
   6   2   4    1.24    0.47
  -6  -2   4    1.36    0.37
   6  -2   4    1.63    0.46
   6   2  -4    0.81    0.36
  -6   2   4    2.00    0.47
   6   2   5    9.11    1.10
  -6   2  -5   10.98    0.97
  -6  -2   5   10.59    0.94
  -6   2   5   10.26    0.96
   6   2  -5   11.16    1.05
   6  -2   5    9.81    1.00
  -6   3   0  430.67   17.66
  -6   3   0  445.76   17.79
  -6  -3   0  428.05   17.71
   6   3   0  414.53   17.59
  -6   3  -1    2.74    0.42
  -6   3  -1    3.24    0.56
  -6  -3   1    2.85    0.52
  -6  -3  -1    2.36    0.47
  -6   3   1    2.33    0.41
  -6   3   1    2.45    0.47
   6   3  -1    2.10    0.41
  -6  -3   2  200.75    8.02
  -6   3  -2  174.52    7.95
  -6   3  -2  172.56    7.92
  -6  -3  -2  181.98    7.99
  -6   3   2  195.53    7.85
   6   3  -2  177.75    7.98
  -6   3   2  192.94    8.02
   6   3   3    0.81    0.41
  -6   3  -3    0.39    0.31
  -6  -3   3    1.03    0.34
   6   3  -3    0.90    0.34
  -6   3   3    0.76    0.31
  -6  -3   4   22.93    1.46
   6   3   4   20.69    1.59
  -6   3  -4   24.42    1.54
   6   3  -4   23.75    1.58
  -6   3   4   22.57    1.50
   6   3   5    1.84    0.65
  -6   3  -5    0.71    0.34
  -6  -3   5    0.58    0.31
   6   3  -5    0.39    0.33
  -6   3   5    0.42    0.27
  -6  -4   0    7.60    0.74
   6   4   0    8.08    0.74
  -6   4   0    8.01    0.76
  -6   4   0    8.17    0.76
  -6   4  -1    3.51    0.52
  -6  -4   1    2.68    0.50
  -6   4   1    2.69    0.48
  -6  -4  -1    3.37    0.55
  -6   4   1    2.64    0.49
   6   4  -1    3.50    0.52
  -6   4  -2    3.20    0.58
  -6  -4   2    3.13    0.53
  -6   4   2    3.31    0.54
   6   4  -2    3.28    0.61
  -6  -4  -2    3.43    0.59
  -6   4   2    3.57    0.50
  -6   4  -3   16.14    1.19
   6   4   3   12.79    1.09
  -6  -4   3   12.42    1.01
   6   4  -3   16.34    1.22
  -6   4   3   12.47    1.04
   6   4   4    0.52    0.46
  -6   4  -4    0.81    0.34
   6   4  -4    0.56    0.33
  -6   4   4    0.72    0.32
  -6  -5   0   65.96    3.15
   6   5   0   64.95    3.32
  -6   5   0   68.36    3.37
  -6  -5   1   28.97    1.90
   6   5   1   28.72    1.93
   6   5   1   27.90    1.76
  -6   5  -1   34.91    1.97
   6   5  -1   34.06    1.95
  -6   5   1   27.07    1.79
  -6  -5  -1   33.52    1.74
   6   5   2   31.84    1.78
  -6   5  -2   25.85    1.79
  -6   5   2   30.97    1.80
   6   5  -2   26.80    1.83
  -6   5  -3  110.15    5.33
   6   5   3  107.62    5.20
   6   5  -3  110.33    5.40
  -6   5   3  120.81    5.21
   6   6   0    5.51    0.74
  -6   6   0    4.93    0.72
  -6   6  -1    4.79    0.72
   6   6   1    4.83    0.78
  -6   6   1    4.38    0.68
   6   6  -1    5.95    0.78
   6   6   2    5.50    0.72
  -6   6  -2    3.32    0.72
  -6   6   2    4.90    0.69
   6   6  -2    3.67    0.73
  -7   0   0    0.33    0.32
  -7   0  -1   28.37    1.56
  -7   0   1   33.10    1.89
  -7   0  -1   28.90    1.84
  -7   0  -2    0.14    0.30
  -7   0  -2    0.01    0.14
  -7   0   2   -0.04    0.21
  -7   0  -3    0.02    0.36
  -7   0   3    1.35    0.44
  -7   0  -3    0.27    0.20
   7   0   4   -0.15    0.32
  -7   0  -4   -0.03    0.17
  -7   0   4    0.08    0.21
  -7   0   5    4.02    0.70
   7   0   5    3.67    0.81
  -7   1   0    3.25    0.61
  -7  -1   0    3.61    0.67
  -7   1   0    3.29    0.38
  -7  -1   1    2.68    0.54
  -7   1  -1    3.53    0.64
  -7   1  -1    3.38    0.42
  -7  -1  -1    3.61    0.63
   7   1  -1    3.22    0.42
  -7   1   1    3.76    0.64
  -7  -1   2    7.38    0.78
  -7   1  -2    6.59    0.83
  -7   1  -2    7.30    0.65
  -7  -1  -2    5.75    0.81
  -7   1   2    8.31    0.80
   7   1  -2    6.05    0.63
  -7   1  -3    6.08    0.83
  -7   1  -3    6.62    0.67
  -7  -1   3    5.28    0.69
  -7  -1  -3    6.34    0.87
  -7   1   3    5.51    0.70
   7   1  -3    6.64    0.69
  -7   1  -4   13.51    1.07
   7   1   4   14.77    1.24
  -7  -1   4   13.77    1.13
   7   1  -4   12.77    1.09
  -7   1   4   15.32    1.18
   7  -1   4   12.99    1.19
  -7  -1   5    6.92    0.81
   7   1   5    6.25    1.03
  -7   1  -5    6.70    0.77
   7  -1   5    6.58    0.99
  -7   1   5    6.25    0.81
  -7   2   0    0.50    0.22
  -7  -2   0    0.24    0.31
  -7   2   0    0.26    0.32
  -7   2  -1   10.57    0.81
  -7  -2   1   11.26    0.97
  -7   2  -1   10.39    0.98
  -7  -2  -1   10.50    0.98
   7   2  -1    9.87    0.78
  -7   2   1   12.05    0.99
  -7   2  -2   12.97    0.95
  -7   2  -2   13.60    1.12
  -7  -2   2   11.47    1.03
   7   2  -2   12.35    0.94
  -7  -2  -2   12.82    1.11
  -7   2   2   11.56    1.02
  -7   2  -3    3.40    0.51
  -7   2  -3    3.77    0.69
  -7  -2   3    3.88    0.64
  -7  -2  -3    3.17    0.66
  -7   2   3    4.13    0.68
   7   2  -3    3.63    0.56
  -7   2  -4    9.22    0.87
  -7  -2   4    8.88    0.89
   7   2   4    8.85    0.98
   7   2  -4    8.44    0.90
   7  -2   4    8.75    0.92
  -7   2   4    9.66    0.93
  -7   3   0   15.45    1.19
  -7  -3   0   14.57    1.12
  -7   3   0   14.67    1.02
  -7   3  -1    8.97    0.88
  -7   3  -1    8.87    0.77
  -7  -3   1    8.98    0.86
  -7   3   1    8.13    0.70
  -7  -3  -1    8.83    0.88
  -7   3   1    8.17    0.83
   7   3  -1    8.07    0.75
  -7   3  -2    4.59    0.71
  -7   3  -2    4.91    0.62
  -7  -3   2    6.36    0.73
   7   3  -2    4.99    0.61
  -7   3   2    6.67    0.74
  -7  -3  -2    4.98    0.77
  -7   3  -3    8.83    0.96
  -7  -3   3    7.99    0.86
   7   3   3    8.17    0.91
  -7   3  -3    9.46    0.85
   7   3  -3    8.91    0.86
  -7   3   3    7.27    0.81
   7   3   4   -0.06    0.39
  -7   3  -4    0.23    0.25
  -7  -3   4   -0.14    0.22
   7   3  -4    0.32    0.30
  -7   3   4    0.15    0.26
  -7   4   0   10.25    0.94
  -7  -4   0    9.76    0.90
  -7   4   0    9.23    0.84
  -7  -4   1    2.60    0.54
  -7   4  -1    2.33    0.49
  -7   4   1    2.33    0.51
  -7   4   1    2.94    0.51
  -7  -4  -1    2.97    0.59
   7   4  -1    2.94    0.49
  -7  -4   2   14.84    1.19
  -7   4  -2   17.04    1.26
  -7  -4  -2   17.31    1.25
   7   4  -2   17.48    1.28
  -7   4   2   15.75    1.22
   7   4   3    2.97    0.62
  -7  -4   3    2.85    0.57
  -7   4  -3    3.00    0.60
  -7   4   3    2.75    0.56
   7   4  -3    3.83    0.63
  -7   5   0   10.32    0.96
  -7  -5   0    9.46    0.89
  -7   5  -1    4.71    0.68
  -7  -5  -1    5.06    0.68
  -7   5   1    3.95    0.61
   7   5  -1    4.85    0.67
   7   5   2    9.40    0.94
  -7   5  -2    7.25    0.85
   7   5  -2    7.60    0.90
  -8   0   0  331.59   14.13
  -8   0   1    0.09    0.28
  -8   0  -1    1.29    0.50
  -8   0  -2  124.46    5.78
  -8   0  -2  128.38    6.11
  -8   0   2  143.09    6.14
  -8   0   3    0.20    0.29
  -8   0  -3   -0.05    0.41
   8   0   4   13.53    1.29
  -8   0   4   14.50    1.25
  -8   1   0    0.75    0.42
  -8  -1   0    1.24    0.49
  -8   1  -1    2.89    0.67
  -8   1  -1    2.32    0.42
  -8  -1   1    2.84    0.62
  -8  -1  -1    1.49    0.51
  -8   1   1    3.49    0.69
  -8   1  -2    1.42    0.52
  -8  -1   2    1.07    0.45
  -8   1  -2    1.33    0.35
  -8   1   2    1.09    0.44
  -8  -1  -2    2.09    0.61
  -8   1  -3    4.37    0.57
  -8   1  -3    3.73    0.78
  -8  -1  -3    4.82    0.87
  -8   1   3    2.44    0.57
   8   1   4    0.69    0.47
  -8   1  -4    0.01    0.21
  -8  -1   4    0.48    0.31
  -8   1   4    0.46    0.34
   8  -1   4    0.40    0.40
  -8   2   0   78.33    3.87
  -8  -2   0   73.80    3.80
  -8   2  -1   47.54    2.54
  -8  -2   1   38.52    2.39
  -8   2  -1   42.33    2.20
  -8   2   1   39.05    2.42
  -8  -2  -1   46.53    2.50
  -8   2  -2   26.88    1.68
  -8  -2   2   30.88    1.92
  -8   2  -2   29.25    1.92
  -8  -2  -2   28.68    1.91
  -8   2   2   33.24    1.96
  -8  -2   3  131.82    6.08
  -8   2  -3  129.19    6.07
  -8   2  -3  130.29    5.91
  -8  -2  -3  133.18    6.10
  -8   2   3  128.51    6.07
   8   2  -3  132.63    5.95
  -8   3   0    0.24    0.26
  -8  -3   0    0.24    0.33
  -8   3   0    0.09    0.33
  -8   3  -1    1.71    0.42
  -8  -3   1    1.37    0.46
  -8   3  -1    2.07    0.57
  -8  -3  -1    1.27    0.48
  -8   3   1    0.85    0.42
  -8   3  -2    5.18    0.81
  -8   3  -2    4.42    0.59
  -8  -3   2    4.11    0.72
  -8   3   2    4.71    0.76
  -8  -3  -2    4.32    0.76
  -8  -3   3    4.62    0.79
  -8   3  -3    4.95    0.66
   8   3   3    4.57    0.80
  -8  -3  -3    5.07    0.82
   8   3  -3    4.53    0.67
  -8   3   3    4.74    0.80
  -8   4   0   37.95    2.12
  -8  -4   0   38.06    2.20
  -8   4  -1   35.14    2.04
  -8  -4   1   32.31    2.04
  -8   4   1   35.67    2.16
  -8  -4  -1   37.94    2.13
  -9   0   0   -0.06    0.32
  -9   0   1   13.31    1.28
  -9   0  -1   14.94    1.31
  -9   0   2    0.06    0.34
  -9   0  -2    0.09    0.37
  -9  -1   0    2.30    0.61
  -9   1   0    2.41    0.65
  -9   1  -1    2.62    0.68
  -9  -1   1    4.17    0.81
  -9  -1  -1    3.07    0.73
  -9   1   1    3.46    0.72
  -9  -1   2    9.60    1.10
  -9   1  -2   12.71    1.25
  -9   1  -2   12.19    0.97
  -9  -1  -2   11.91    1.22
  -9   1   2    9.84    1.13
  -9  -2   0    8.05    0.98
  -9   2   0    8.15    1.01
  -9   2  -1    3.09    0.69
  -9  -2   1    3.20    0.72
  -9   2   1    3.39    0.72
  -9  -2  -1    3.83    0.79
   0   0   0    0.00    0.00
;
_shelx_hkl_checksum              7577
loop_
_space_group_symop_operation_xyz
'x, y, z'
'-x+1/2, -y, z+1/2'
'-x, y, z'
'x+1/2, -y, z+1/2'
loop_
_atom_site_label
_atom_site_type_symbol
_atom_site_fract_x
_atom_site_fract_y
_atom_site_fract_z
_atom_site_U_iso_or_equiv
_atom_site_adp_type
_atom_site_occupancy
_atom_site_site_symmetry_order
_atom_site_calc_flag
_atom_site_refinement_flags_posn
_atom_site_refinement_flags_adp
_atom_site_refinement_flags_occupancy
_atom_site_disorder_assembly
_atom_site_disorder_group
Cu1 Cu 0.500000 0.35265(11) 0.58397(16) 0.0181(3) Uani 1 2 d S T P . .
Cu2 Cu 0.24561(5) -0.17858(7) 0.57297(12) 0.0163(2) Uani 1 1 d . . . . .
S1 S 0.23320(13) 0.16833(16) 0.6968(3) 0.0087(3) Uani 1 1 d . . . . .
S2 S 0.000000 0.3177(3) 0.2447(3) 0.0086(4) Uani 1 2 d S T P . .
S3 S 0.000000 0.6281(3) 0.7040(3) 0.0087(4) Uani 1 2 d S T P . .
P1 P 0.000000 0.3231(2) 0.5853(4) 0.0057(3) Uani 1 2 d S T P . .
loop_
_atom_site_aniso_label
_atom_site_aniso_U_11
_atom_site_aniso_U_22
_atom_site_aniso_U_33
_atom_site_aniso_U_23
_atom_site_aniso_U_13
_atom_site_aniso_U_12
Cu1 0.0201(4) 0.0174(4) 0.0167(5) -0.0028(5) 0.000 0.000
Cu2 0.0172(3) 0.0163(3) 0.0156(4) 0.0011(3) -0.0002(2) 0.00127(19)
S1 0.0075(5) 0.0084(6) 0.0101(8) -0.0001(4) -0.0011(5) 0.0015(4)
S2 0.0102(8) 0.0106(8) 0.0051(9) 0.0002(6) 0.000 0.000
S3 0.0108(7) 0.0058(8) 0.0096(9) -0.0007(7) 0.000 0.000
P1 0.0062(6) 0.0054(7) 0.0055(8) -0.0009(7) 0.000 0.000
loop_
_atom_type_symbol
_atom_type_description
_atom_type_scat_dispersion_real
_atom_type_scat_dispersion_imag
_atom_type_scat_source
Cu Cu 0.3201 1.2651 'International Tables Vol C Tables 4.2.6.8 and 6.1.1.4'
P P 0.1023 0.0942 'International Tables Vol C Tables 4.2.6.8 and 6.1.1.4'
S S 0.1246 0.1234 'International Tables Vol C Tables 4.2.6.8 and 6.1.1.4'
loop_
_geom_angle_atom_site_label_1
_geom_angle_atom_site_label_2
_geom_angle_atom_site_label_3
_geom_angle
_geom_angle_site_symmetry_1
_geom_angle_site_symmetry_3
_geom_angle_publ_flag
S2 Cu1 S3 112.07(7) 2_565 2_564 ?
S2 Cu1 S1 108.88(5) 2_565 3_655 ?
S3 Cu1 S1 108.39(5) 2_564 3_655 ?
S2 Cu1 S1 108.88(5) 2_565 . ?
S3 Cu1 S1 108.39(5) 2_564 . ?
S1 Cu1 S1 110.22(7) 3_655 . ?
S1 Cu2 S2 114.17(6) 2_554 2 ?
S1 Cu2 S3 114.29(6) 2_554 1_545 ?
S2 Cu2 S3 105.26(5) 2 1_545 ?
S1 Cu2 S1 107.40(5) 2_554 . ?
S2 Cu2 S1 104.24(6) 2 . ?
S3 Cu2 S1 111.06(6) 1_545 . ?
P1 S1 Cu2 111.57(10) . 2 ?
P1 S1 Cu2 111.88(9) . . ?
Cu2 S1 Cu2 110.32(6) 2 . ?
P1 S1 Cu1 110.10(8) . . ?
Cu2 S1 Cu1 102.71(6) 2 . ?
Cu2 S1 Cu1 109.90(5) . . ?
P1 S2 Cu2 117.40(6) . 4_454 ?
P1 S2 Cu2 117.40(6) . 2_554 ?
Cu2 S2 Cu2 107.14(7) 4_454 2_554 ?
P1 S2 Cu1 114.15(9) . 2_564 ?
Cu2 S2 Cu1 98.87(6) 4_454 2_564 ?
Cu2 S2 Cu1 98.87(6) 2_554 2_564 ?
P1 S3 Cu2 112.08(8) . 1_565 ?
P1 S3 Cu2 112.08(8) . 3_565 ?
Cu2 S3 Cu2 101.48(7) 1_565 3_565 ?
P1 S3 Cu1 113.51(11) . 2_565 ?
Cu2 S3 Cu1 108.47(6) 1_565 2_565 ?
Cu2 S3 Cu1 108.47(6) 3_565 2_565 ?
S3 P1 S2 111.43(13) . . ?
S3 P1 S1 109.16(10) . 3 ?
S2 P1 S1 108.61(10) . 3 ?
S3 P1 S1 109.16(10) . . ?
S2 P1 S1 108.61(10) . . ?
S1 P1 S1 109.86(11) 3 . ?
loop_
_geom_bond_atom_site_label_1
_geom_bond_atom_site_label_2
_geom_bond_distance
_geom_bond_site_symmetry_2
_geom_bond_publ_flag
Cu1 S2 2.3059(19) 2_565 ?
Cu1 S3 2.314(2) 2_564 ?
Cu1 S1 2.3675(12) 3_655 ?
Cu1 S1 2.3675(12) . ?
Cu2 S1 2.294(2) 2_554 ?
Cu2 S2 2.3014(11) 2 ?
Cu2 S3 2.3089(11) 1_545 ?
Cu2 S1 2.3246(14) . ?
S1 P1 2.0740(18) . ?
S2 P1 2.072(4) . ?
S3 P1 2.063(3) . ?
