#------------------------------------------------------------------------------
#$Date: 2021-09-06 14:11:10 +0300 (Mon, 06 Sep 2021) $
#$Revision: 268761 $
#$URL: file:///home/coder/svn-repositories/cod/cif/7/70/76/7707646.cif $
#------------------------------------------------------------------------------
#
# This file is available in the Crystallography Open Database (COD),
# http://www.crystallography.net/
#
# All data on this site have been placed in the public domain by the
# contributors.
#
data_7707646
loop_
_publ_author_name
'Ogunbunmi, Michael O.'
'Baranets, Sviatoslav'
'Childs, Amanda B.'
'Bobev, Svilen'
_publ_section_title
;
 The Zintl phases <i>A</i>In<sub>2</sub>As<sub>2</sub> (A = Ca, Sr, Ba):
 new topological insulators and thermoelectric material candidates.
;
_journal_issue                   26
_journal_name_full
'Dalton transactions (Cambridge, England : 2003)'
_journal_page_first              9173
_journal_page_last               9184
_journal_paper_doi               10.1039/d1dt01521d
_journal_volume                  50
_journal_year                    2021
_chemical_formula_moiety         'As2 In2 Sr1'
_chemical_formula_sum            'As2 In2 Sr'
_chemical_formula_weight         467.10
_space_group_crystal_system      hexagonal
_space_group_IT_number           194
_space_group_name_Hall           '-P 6c 2c'
_space_group_name_H-M_alt        'P 63/m m c'
_atom_sites_solution_primary     iterative
_audit_creation_date             2021-04-06
_audit_creation_method
;
Olex2 1.3
(compiled 2020.11.12 svn.r5f609507 for OlexSys, GUI svn.r6272)
;
_audit_update_record
;
2021-05-07 deposited with the CCDC.	2021-06-07 downloaded from the CCDC.
;
_cell_angle_alpha                90
_cell_angle_beta                 90
_cell_angle_gamma                120
_cell_formula_units_Z            2
_cell_length_a                   4.2222(6)
_cell_length_b                   4.2222
_cell_length_c                   18.110(3)
_cell_measurement_reflns_used    969
_cell_measurement_temperature    200.0
_cell_measurement_theta_max      30.33
_cell_measurement_theta_min      4.50
_cell_volume                     279.59(6)
_computing_molecular_graphics    'Olex2 1.3 (Dolomanov et al., 2009)'
_computing_publication_material  'Olex2 1.3 (Dolomanov et al., 2009)'
_computing_structure_refinement  'SHELXL 2018/3 (Sheldrick, 2015)'
_computing_structure_solution    'olex2.solve 1.3 (Bourhis et al., 2015)'
_diffrn_ambient_temperature      200.0
_diffrn_measured_fraction_theta_full 1.000
_diffrn_measured_fraction_theta_max 1.000
_diffrn_measurement_device_type  'Bruker APEX-II CCD'
_diffrn_measurement_method       '\f and \w scans'
_diffrn_radiation_type           MoK\a
_diffrn_radiation_wavelength     0.71073
_diffrn_reflns_av_R_equivalents  0.0383
_diffrn_reflns_av_unetI/netI     0.0178
_diffrn_reflns_Laue_measured_fraction_full 1.000
_diffrn_reflns_Laue_measured_fraction_max 1.000
_diffrn_reflns_limit_h_max       5
_diffrn_reflns_limit_h_min       -5
_diffrn_reflns_limit_k_max       6
_diffrn_reflns_limit_k_min       -6
_diffrn_reflns_limit_l_max       25
_diffrn_reflns_limit_l_min       -25
_diffrn_reflns_number            2451
_diffrn_reflns_point_group_measured_fraction_full 1.000
_diffrn_reflns_point_group_measured_fraction_max 1.000
_diffrn_reflns_theta_full        25.242
_diffrn_reflns_theta_max         30.432
_diffrn_reflns_theta_min         2.249
_diffrn_source_current           30.0
_diffrn_source_power             1.5
_diffrn_source_voltage           50.0
_diffrn_standards_number         0
_exptl_absorpt_coefficient_mu    29.257
_exptl_absorpt_correction_T_max  0.2656
_exptl_absorpt_correction_T_min  0.1273
_exptl_absorpt_correction_type   multi-scan
_exptl_absorpt_process_details
;
SADABS-2016/2 (Bruker,2016/2) was used for absorption correction.
wR2(int) was 0.1014 before and 0.0364 after correction.
The Ratio of minimum to maximum transmission is 0.4793.
The \l/2 correction factor is Not present.
;
_exptl_crystal_colour            black
_exptl_crystal_colour_primary    black
_exptl_crystal_density_diffrn    5.548
_exptl_crystal_description       plate
_exptl_crystal_F_000             404
_exptl_crystal_size_max          0.089
_exptl_crystal_size_mid          0.084
_exptl_crystal_size_min          0.023
_refine_diff_density_max         0.722
_refine_diff_density_min         -1.439
_refine_diff_density_rms         0.262
_refine_ls_extinction_method     none
_refine_ls_goodness_of_fit_ref   1.161
_refine_ls_hydrogen_treatment    undef
_refine_ls_matrix_type           full
_refine_ls_number_parameters     9
_refine_ls_number_reflns         204
_refine_ls_number_restraints     0
_refine_ls_restrained_S_all      1.161
_refine_ls_R_factor_all          0.0288
_refine_ls_R_factor_gt           0.0248
_refine_ls_shift/su_max          0.000
_refine_ls_shift/su_mean         0.000
_refine_ls_structure_factor_coef Fsqd
_refine_ls_weighting_details
'w=1/[\s^2^(Fo^2^)+(0.0379P)^2^] where P=(Fo^2^+2Fc^2^)/3'
_refine_ls_weighting_scheme      calc
_refine_ls_wR_factor_gt          0.0607
_refine_ls_wR_factor_ref         0.0618
_reflns_Friedel_coverage         0.000
_reflns_number_gt                180
_reflns_number_total             204
_reflns_threshold_expression     'I > 2\s(I)'
_cod_data_source_file            d1dt01521d2.cif
_cod_data_source_block           mo_svib1541_0m
_cod_depositor_comments
'Adding full bibliography for 7707644--7707646.cif.'
_cod_original_cell_volume        279.59(9)
_cod_database_code               7707646
_shelx_shelxl_version_number     2018/3
_shelx_space_group_comment
;
The symmetry employed for this shelxl refinement is uniquely defined
by the following loop, which should always be used as a source of
symmetry information in preference to the above space-group names.
They are only intended as comments.
;
_shelx_estimated_absorpt_t_max   0.553
_shelx_estimated_absorpt_t_min   0.180
_olex2_refinement_description
;
;
_shelx_res_file
;
TITL mo_svib1541_0m_a.res in P6(3)/mmc
    mo_svib1541_0m.res
    created by SHELXL-2018/3 at 16:47:34 on 06-Apr-2021
REM Old TITL mo_svib1541_0m In P6(3)/mmc
REM SHELXT solution In P6(3)/mmc: R1 0.037, Rweak 0.000, Alpha 0.013
REM <I/s> 0.537 for 28 systematic absences, Orientation As input
REM Formula found by SHELXT: Sr3 In2
CELL 0.71073 4.2222 4.2222 18.1098 90 90 120
ZERR 2 0.0006 0.0006 0.0026 0 0 0
LATT 1
SYMM -Y,+X-Y,+Z
SYMM +Y-X,-X,+Z
SYMM -X,-Y,0.5+Z
SYMM +Y,-X+Y,0.5+Z
SYMM -Y+X,+X,0.5+Z
SYMM +Y,+X,-Z
SYMM -Y+X,-Y,-Z
SYMM -X,-X+Y,-Z
SYMM -Y,-X,0.5-Z
SYMM +Y-X,+Y,0.5-Z
SYMM +X,+X-Y,0.5-Z
SFAC As In Sr
UNIT 4 4 2

L.S. 10
PLAN  5
SIZE 0.023 0.084 0.089
TEMP -73.15
CONF
list 4
MORE -1
fmap 2
acta
REM <olex2.extras>
REM <HklSrc "%.\\mo_svib1541_0m.hkl">
REM </olex2.extras>

WGHT    0.037900
FVAR       0.36061
IN    2    0.333333    0.666667    0.173604    10.16667    0.01130    0.01130 =
         0.00981    0.00000    0.00000    0.00565
SR    3    0.000000    0.000000    0.000000    10.08333    0.00997    0.00997 =
         0.01128    0.00000    0.00000    0.00499
AS    1    0.333333    0.666667    0.609155    10.16667    0.00899    0.00899 =
         0.00985    0.00000    0.00000    0.00450
HKLF 4




REM  mo_svib1541_0m_a.res in P6(3)/mmc
REM wR2 = 0.0618, GooF = S = 1.161, Restrained GooF = 1.161 for all data
REM R1 = 0.0248 for 180 Fo > 4sig(Fo) and 0.0288 for all 204 data
REM 9 parameters refined using 0 restraints

END

WGHT      0.0380      0.0000

REM Highest difference peak  0.722,  deepest hole -1.439,  1-sigma level  0.262
Q1    1   0.2332  0.4664  0.0922  10.50000  0.05    0.72
Q2    1   0.1937  0.8063  0.1724  10.50000  0.05    0.72
Q3    1   0.1295 -0.1295  0.0004  10.50000  0.05    0.71
Q4    1   0.3333  0.6667  0.2500  10.08333  0.05    0.66
Q5    1   0.4706  0.5294  0.1715  10.50000  0.05    0.65
;
_shelx_res_checksum              9899
_shelx_hkl_file
;
   0  -1   0  857.73   26.21
  -1   1   0  860.25   25.36
  -1   1   0  895.75   26.81
  -1   0   0  864.42   27.52
  -1   0   0  867.62   24.99
   0   1   0  884.85   25.35
   1  -1   0  876.22   25.46
   1  -2   0 9815.32  264.33
  -2   1   0 9468.70  267.66
  -2   1   0 9463.15  266.57
  -1  -1   0 9999.00  268.92
  -1   2   0 9581.66  266.78
   2   0   0  477.45   15.72
   0  -2   0  500.87   16.51
   0  -2   0  502.69   18.20
  -2   2   0  483.00   16.48
  -2   2   0  491.64   18.85
  -2   0   0  474.58   15.65
   2  -2   0  473.29   16.61
  -2   0   0  493.51   20.20
   0   2   0  489.27   16.21
  -3   1   0  336.68   17.21
  -3   1   0  348.15   14.41
  -2   3   0  357.89   16.30
   3  -1   0  341.87   14.49
  -1  -2   0  322.64   16.40
   1  -3   0  355.14   12.47
   1  -3   0  339.45   15.00
  -3   2   0  347.12   15.50
  -3   2   0  313.01   15.24
  -2  -1   0  326.92   17.27
   3  -2   0  350.18   21.13
  -1   3   0  349.74   14.77
   3  -2   0  336.19   15.68
   3  -2   0  311.68   15.04
   0  -3   0 5353.95  146.07
   0  -3   0 5299.87  148.62
  -3   3   0 5104.56  150.58
   3  -3   0 5011.36  150.72
   0   3   0 5275.60  145.78
  -3   0   0 5123.24  153.62
   3  -4   0  182.81   13.47
  -4   1   0  199.69   15.31
  -3   4   0  184.30   13.36
  -1  -3   0  177.33   13.26
  -4   2   0 4177.07  122.48
   2  -4   0 4075.38  123.37
  -4   2   0 4237.86  125.18
   4  -2   0 4181.79  122.63
  -2  -2   0 4199.71  127.01
  -2   4   0 4124.71  122.85
   4  -2   0 4177.78  135.87
  -4   3   0  207.15   13.69
   1  -4   0  203.16   12.32
  -1   4   0  190.52   11.44
   4  -3   0  183.47   13.64
  -3  -1   0  202.10   15.91
  -4   4   0  173.35   16.40
   4  -4   0  202.04   18.10
  -4   0   0  147.59   17.06
   4  -5   0 2148.51   73.69
  -5   1   0 2150.98   77.28
  -4   5   0 2130.77   73.40
  -5   2   0  135.68   15.93
   3  -5   0  120.09   13.92
   5  -2   0   97.66   14.38
  -2  -3   0  126.18   15.69
  -3   5   0  132.07   14.50
   2  -5   0  101.76   11.81
  -5   3   0  133.67   14.40
   5  -3   0  120.85   13.98
  -3  -2   0  110.52   15.83
  -2   5   0  115.41   12.50
  -5   4   0 2219.66   74.88
   5  -4   0 2181.25   75.49
  -4  -1   0 2216.13   79.87
  -5   5   0   92.25   13.82
  -5   0   0   42.41   11.65
   5  -5   0   78.12   13.17
   3  -6   0 1603.79   57.79
  -3   6   0 1529.36   56.81
  -3  -3   0 1469.65   61.44
   0   0  -1   -0.25    0.32
   0   0   1    0.49    0.43
  -1   0  -1  578.90   17.48
  -1   0  -1  587.03   20.01
   1  -1  -1  612.04   19.38
   0   1  -1  595.74   17.89
   0  -1   1  593.82   18.95
  -1   1   1  582.59   17.45
  -1   1   1  605.29   19.18
   0  -1  -1  590.23   18.12
   1   0  -1  564.77   17.17
  -1   1  -1  576.73   18.18
   0  -1  -1  564.90   17.37
  -1   1  -1  579.47   18.57
   1  -1   1  572.87   18.13
  -1   0   1  575.59   19.46
  -1   0   1  575.67   17.19
   0   1   1  579.81   17.37
   1  -1   1  571.58   22.56
  -1   2  -1    0.73    1.78
   2  -1  -1    0.60    1.63
  -1  -1  -1   -1.50    1.70
  -2   1   1   -0.43    1.79
  -2   1   1   -0.10    1.66
   1  -2   1    1.58    1.26
  -1   3  -1  214.68   11.23
  -2  -1  -1  249.31   14.50
   3  -2  -1  224.92   12.35
  -3   2   1  221.46   11.60
   1  -3   1  214.88    9.58
  -3   2   1  238.82   12.37
  -2   0  -1  337.84   15.96
   2  -2  -1  343.88   12.06
  -2   0  -1  331.00   11.60
   0   2  -1  348.74   12.32
   2  -2  -1  339.61   14.79
   0  -2   1  334.41   13.89
   2   0   1  340.32   11.73
  -2   2   1  328.47   14.46
  -2   2   1  340.43   11.89
  -2   1  -1   -0.74    1.97
   1  -2  -1    0.17    1.96
  -2   1  -1   -0.38    1.56
  -1   2   1    2.10    2.00
  -1  -1   1   -0.41    2.09
   0  -2  -1  333.40   12.24
  -2   2  -1  317.58   14.22
   2   0  -1  335.74   11.78
   0  -2  -1  333.29   13.46
  -2   0   1  344.96   15.77
   0   2   1  328.81   12.09
   2  -2   1  351.17   13.46
   3  -1  -1  210.31   10.66
  -1  -2  -1  209.04   12.60
  -2   3  -1  210.58   11.85
  -3   1   1  223.35   10.88
  -3   1   1  221.55   13.23
  -2  -2  -1    2.36    4.38
   4  -2  -1    2.93    3.59
   4  -2  -1    4.11    6.24
  -2   4  -1    3.50    4.05
  -4   2   1    3.56    4.21
  -4   2   1    2.88    3.74
   2  -4   1    0.89    3.77
  -2   5  -1   71.55    9.97
   5  -3  -1   81.69   10.95
  -3  -2  -1   45.04   10.04
  -5   3   1   82.67   11.25
   2  -5   1   60.37    9.64
  -1   4  -1  122.91    9.05
   4  -3  -1  122.65   12.81
  -3  -1  -1   99.81   13.46
  -4   3   1  125.80   12.71
   1  -4   1  127.64   11.36
   3  -3  -1    1.91    3.38
  -3   0  -1   -1.44    3.56
   0   3  -1    0.46    2.05
   0  -3   1    1.33    2.33
  -3   3   1    2.43    3.25
   0  -3   1    0.09    2.51
  -3   1  -1  231.69   13.60
   2  -3  -1  231.16   12.59
  -3   1  -1  231.88   11.01
  -2   3   1  207.70   11.93
   3  -1   1  222.97   10.90
  -1  -2   1  205.32   12.58
   1  -3  -1  196.49   10.92
  -3   2  -1  210.16   11.54
   1  -3  -1  215.90    8.47
  -3   2  -1  203.15   11.57
   3  -2   1  209.72   17.39
   3  -2   1  221.50   11.86
  -2  -1   1  194.33   12.94
  -1   3   1  205.19   10.62
  -3   3  -1   -2.11    3.26
   0  -3  -1   -2.82    2.27
   0  -3  -1    2.21    2.48
   0   3   1   -1.62    1.97
  -3   0   1   -2.01    3.58
  -3   4  -1  129.07   12.98
  -1  -3  -1  101.28   12.05
  -4   1   1  151.91   15.77
   3  -4   1  131.05   13.37
  -2  -3  -1   76.13   12.54
  -3   5  -1   99.45   12.49
  -5   2   1   71.34   12.20
   3  -5   1   93.18   12.54
  -3  -3  -1    7.47    8.27
  -3   6  -1    3.25    6.44
   3  -6   1   -0.95    5.97
   5  -4  -1    6.34    5.76
  -4  -1  -1   -1.51    6.00
  -5   4   1    4.94    5.15
   4  -4  -1   99.39   12.37
  -4   0  -1   66.23   11.59
  -4   4   1   92.63   11.79
  -4   1  -1  154.06   15.94
   3  -4  -1  129.87   13.62
  -1  -3   1  131.51   13.62
  -3   4   1  131.99   13.37
  -4   2  -1    2.55    3.93
  -4   2  -1    0.64    3.95
   2  -4  -1    0.98    3.49
   4  -2   1   -2.25    3.48
  -2   4   1   -0.54    3.16
   4  -2   1   -2.30    3.20
  -2  -2   1   -0.96    3.79
   4  -2   1    2.46    6.58
  -4   3  -1  128.90   12.70
   1  -4  -1  106.98   10.26
  -1   4   1  111.28    8.68
   4  -3   1  130.31   13.22
  -3  -1   1  104.56   13.68
  -4   4  -1   85.62   11.58
   4  -4   1   93.66   12.27
  -4   0   1   76.07   12.35
  -4   5  -1    1.50    5.81
  -5   1   1   -8.69    5.17
   4  -5   1   -5.76    4.20
   5  -5  -1   49.27   10.57
  -5   0  -1   38.92   11.16
  -5   5   1   48.24   10.24
   4  -5  -1   -1.57    4.81
  -5   1  -1   -2.25    5.38
  -4   5   1    7.74    6.19
  -5   2  -1   77.56   12.91
   3  -5  -1   57.06   10.05
  -2  -3   1   76.37   12.47
   5  -2   1   99.95   15.21
  -3   5   1   86.89   12.11
  -5   3  -1   71.08   10.48
   2  -5  -1   88.20   10.77
   5  -3   1   60.45    9.81
  -3  -2   1   62.32   11.50
  -2   5   1   78.58   10.19
  -5   4  -1   -5.88    4.88
  -4  -1   1    1.23    6.79
   5  -4   1   -3.67    5.43
  -5   5  -1   45.33   10.88
   5  -5   1   69.48   13.06
  -5   0   1   56.91   13.23
   3  -6  -1    3.76    6.67
  -3   6   1   -0.73    6.15
  -3  -3   1   -6.07    6.13
   0   0  -2   19.09    3.36
   0   0   2   19.96    3.58
   1  -1  -2 1263.78   37.68
  -1   0  -2 1251.82   36.04
   0   1  -2 1274.75   36.50
  -1   0  -2 1275.90   38.61
  -1   1   2 1284.75   35.85
  -1   1   2 1256.35   37.57
   0  -1   2 1233.11   37.66
   0  -1  -2 1270.88   36.69
  -1   1  -2 1315.88   37.87
   1   0  -2 1278.93   36.72
   0  -1  -2 1270.25   37.14
   1  -1   2 1264.68   43.28
   1  -1   2 1275.96   38.49
  -1   0   2 1224.33   38.51
   2  -1  -2   18.02    4.72
  -1  -1  -2   13.01    3.48
  -1  -1  -2   15.95    1.81
  -1   2  -2    9.87    2.74
   2  -1  -2   19.65    3.53
  -2   1   2   12.54    3.09
   1  -2   2   14.74    2.58
  -2   1   2    8.92    2.63
  -2  -1  -2  536.20   24.02
  -1   3  -2  509.33   20.13
   3  -2  -2  522.87   21.52
  -3   2   2  516.88   20.45
   1  -3   2  555.02   18.93
  -3   2   2  517.53   21.30
  -2   0  -2  802.97   29.17
   2  -2  -2  786.24   27.75
  -2   0  -2  795.16   24.06
   0   2  -2  777.46   24.72
   0  -2   2  788.71   26.82
  -2   2   2  786.19   27.37
  -2   2   2  764.60   23.72
   1   1  -2   16.77    1.68
   1  -2  -2   12.18    3.08
  -2   1  -2   14.15    3.01
  -2   1  -2   15.16    3.74
  -1   2   2   16.73    3.31
  -1  -1   2   17.95    4.01
   2  -1   2   14.85    3.84
  -2   2  -2  757.13   26.98
   0  -2  -2  786.68   25.96
   0  -2  -2  785.02   24.64
   2   0  -2  792.07   24.36
  -2   0   2  734.70   28.34
   0   2   2  783.36   24.59
   2  -2   2  781.79   26.84
  -1  -2  -2  516.25   22.28
   3  -1  -2  553.72   20.15
  -2   3  -2  517.74   21.44
  -3   1   2  544.98   19.96
  -3   1   2  502.64   22.14
   2  -3   2  499.69   20.25
   4  -2  -2    7.38    4.12
  -2  -2  -2    7.37    5.33
   4  -2  -2    0.93    5.06
  -2   4  -2    1.26    3.74
  -4   2   2    9.15    5.02
  -4   2   2    6.23    3.88
   5  -3  -2  170.80   16.09
  -2   5  -2  192.80   13.88
  -3  -2  -2  241.43   22.83
  -5   3   2  188.92   14.31
   2  -5   2  200.13   14.75
  -1   4  -2  296.24   14.55
   4  -3  -2  265.54   15.99
  -3  -1  -2  262.54   18.42
  -4   3   2  263.41   15.91
   1  -4   2  278.82   14.70
   0   3  -2    4.37    2.58
   3  -3  -2    5.59    3.89
  -3   0  -2    1.37    4.03
   0  -3   2    5.90    3.51
  -3   3   2    5.43    3.75
   2  -3  -2  519.96   21.45
  -3   1  -2  516.99   19.34
  -3   1  -2  493.54   22.41
  -1  -2   2  504.15   22.07
  -2   3   2  518.22   21.03
  -3   2  -2  529.34   21.56
  -3   2  -2  529.72   21.35
   1  -3  -2  530.25   20.50
  -1   3   2  511.93   20.06
  -2  -1   2  541.66   23.88
   3  -2   2  544.73   21.78
   3  -2   2  510.07   29.61
   0  -3  -2    7.82    3.02
   0  -3  -2    5.47    3.20
  -3   3  -2    5.21    3.63
  -3   0   2    5.87    4.08
  -3   4  -2  302.40   17.63
  -1  -3  -2  302.78   17.30
  -4   1   2  310.40   19.32
  -3   5  -2  230.05   16.41
  -2  -3  -2  174.54   18.19
  -5   2   2  207.66   17.06
   3  -5   2  218.65   16.31
  -3  -3  -2    6.99    8.02
  -3   6  -2   12.91    7.12
   3  -6   2    6.35    6.81
   5  -4  -2    4.84    5.61
  -4  -1  -2   -4.44    5.19
  -5   4   2    4.09    5.63
  -4   0  -2  235.95   18.53
   4  -4  -2  248.64   16.45
  -4   4   2  233.77   16.04
  -4   1  -2  345.96   20.25
   3  -4  -2  290.17   17.24
  -1  -3   2  287.53   17.62
  -3   4   2  325.34   17.81
  -4   2  -2    2.37    3.58
   2  -4  -2    3.89    4.30
  -4   2  -2    4.26    4.91
   4  -2   2   15.48   10.67
  -2  -2   2    1.79    4.38
  -2   4   2    2.37    3.92
   4  -2   2    7.84    4.61
   4  -2   2    3.10    3.76
  -4   3  -2  313.22   17.18
   1  -4  -2  296.85   15.27
  -3  -1   2  268.03   18.31
  -1   4   2  273.75   14.22
  -4   4  -2  237.05   16.15
   4  -4   2  217.84   16.38
  -4   0   2  238.92   18.59
  -4   5  -2    9.74    6.77
   4  -5   2    0.66    5.98
  -5   1   2    8.59    7.17
   5   0   2   99.41   16.31
  -5   5   2  117.73   14.79
   4  -5  -2    4.32    5.36
  -5   1  -2    2.12    7.23
  -4   5   2    2.01    5.25
   5  -1   2    7.21    8.10
   3  -5  -2  205.97   18.01
  -5   2  -2  169.55   17.58
  -3   5   2  197.34   15.23
   5  -2   2  178.46   18.43
  -2  -3   2  165.60   17.41
   5  -2   2  200.87   29.42
  -5   3  -2  218.32   15.41
   2  -5  -2  185.28   14.21
  -2   5   2  201.15   13.86
  -3  -2   2  180.37   20.09
   5  -3   2  229.06   16.21
  -5   4  -2    1.43    5.70
  -4  -1   2    3.56    7.38
   5  -4   2    1.45    6.50
  -5   5  -2  124.94   16.58
  -5   0   2  138.81   19.20
   5  -5   2  154.37   18.86
   3  -6  -2    6.07    6.74
  -3   6   2   14.12    7.45
  -3  -3   2   -6.05    6.32
   0   0  -3   -1.19    3.02
   0   0   3    1.46    2.83
  -1   0  -3 1385.92   41.95
  -1   0  -3 1367.12   39.57
   0   1  -3 1376.91   39.98
   1  -1  -3 1355.37   40.89
  -1   1   3 1368.31   39.37
   0  -1   3 1391.23   41.62
   1   0   3 1386.65   42.20
  -1   1   3 1352.06   40.88
  -1   1  -3 1409.59   42.09
   0  -1  -3 1420.30   41.37
   1   0  -3 1422.97   41.61
   0  -1  -3 1396.20   41.56
   1  -1   3 1421.62   44.06
   1  -1   3 1442.01   48.90
   0   1   3 1394.03   41.79
  -1   0   3 1450.73   43.29
  -1  -1  -3    9.47    1.76
  -1   2  -3    1.32    1.98
  -1  -1  -3   -0.59    1.99
   2  -1  -3    2.81    2.45
   2  -1  -3    1.28    1.95
   1  -2   3   -0.55    1.73
  -2   1   3    0.20    1.92
  -2   1   3    0.63    1.83
   3  -2  -3  640.98   24.81
  -2  -1  -3  638.51   27.15
  -1   3  -3  646.32   23.82
   1  -3   3  623.76   22.48
  -3   2   3  643.99   24.73
  -3   2   3  624.60   23.55
   2  -2  -3  915.22   30.80
  -2   0  -3  872.02   32.09
  -2   0  -3  882.71   27.07
   0   2  -3  876.72   27.89
  -2   2   3  899.61   26.66
   0  -2   3  870.29   30.11
  -2   2   3  892.75   30.53
   1   1  -3    0.73    1.09
   1  -2  -3    6.44    2.77
  -2   1  -3   -1.11    1.54
  -2   1  -3    2.12    2.68
   2  -1   3    1.13    2.29
  -1   2   3    8.23    2.66
  -1  -1   3    0.29    2.03
   0  -2  -3  881.59   28.61
   0  -2  -3  866.73   27.56
  -2   2  -3  888.21   29.89
   2   0  -3  873.17   27.56
   2  -2   3  872.40   30.83
  -2   0   3  866.40   31.61
  -1  -2  -3  653.94   25.92
  -2   3  -3  612.57   24.73
   3  -1  -3  645.99   23.47
   2  -3   3  634.83   22.15
  -3   1   3  653.65   23.40
  -3   1   3  632.07   25.80
   4  -2  -3    0.04    3.40
  -2   4  -3   -1.68    3.45
  -2  -2  -3   -2.63    4.21
  -4   2   3   -1.99    3.55
  -4   2   3   -1.58    3.26
  -3  -2  -3  243.94   18.81
  -2   5  -3  214.76   15.01
   5  -3  -3  219.07   15.70
   2  -5   3  243.87   16.11
  -5   3   3  207.94   15.33
  -1   4  -3  381.83   17.49
   4  -3  -3  372.99   19.37
  -3  -1  -3  357.15   22.04
  -4   3   3  360.36   19.21
   3  -3  -3    1.62    3.35
   0   3  -3   -1.53    1.98
  -3   0  -3    1.14    4.03
  -3   3   3    2.80    3.57
   0  -3   3    3.36    3.11
  -3   1  -3  644.72   23.18
   2  -3  -3  641.73   25.21
  -3   1  -3  650.22   26.94
  -2   3   3  633.17   24.96
   3  -1   3  628.42   27.00
  -1  -2   3  658.63   26.56
  -3   2  -3  656.28   25.00
   1  -3  -3  612.31   23.23
  -3   2  -3  603.99   23.98
  -1   3   3  610.68   22.93
   3  -2   3  652.67   25.17
  -2  -1   3  608.50   26.66
   3  -2   3  646.15   35.02
   0  -3  -3    1.21    2.71
   0  -3  -3   -0.51    2.37
  -3   3  -3   -1.45    2.78
  -3   0   3   -0.78    3.70
  -1  -3  -3  353.78   19.26
  -3   4  -3  386.79   19.67
  -4   1   3  347.89   20.90
  -3   5  -3  207.62   15.41
  -2  -3  -3  227.48   17.67
  -5   2   3  190.05   18.77
   3  -5   3  213.05   15.69
  -4  -1  -3    7.64    7.38
   5  -4  -3    1.97    6.10
  -5   4   3    2.73    5.45
  -4   0  -3  250.06   19.47
   4  -4  -3  271.28   17.47
  -4   4   3  321.12   18.62
   3  -4  -3  366.52   19.51
  -4   1  -3  334.20   20.89
   4  -1   3  371.02   22.50
  -1  -3   3  368.13   20.14
  -3   4   3  390.90   19.89
   2  -4  -3    3.31    4.11
  -4   2  -3    1.14    3.13
  -4   2  -3    6.16    4.87
  -2   4   3    0.03    3.41
   4  -2   3    7.48    4.52
  -2  -2   3   -0.59    3.90
   4  -2   3   -7.37    6.79
   1  -4  -3  353.49   17.15
  -4   3  -3  349.49   19.00
  -1   4   3  349.70   16.68
  -3  -1   3  379.29   21.67
  -4   4  -3  274.38   17.61
  -4   0   3  298.86   20.86
  -4   5  -3   -5.09    5.36
  -5   1   3    2.77    6.30
   4  -5   3   -1.37    5.51
   5  -5  -3  132.53   16.05
  -5   0  -3  121.00   17.67
   5   0   3  110.48   17.27
  -5   5   3  152.08   17.03
  -5   1  -3    8.00    7.01
   4  -5  -3   10.00    6.55
  -4   5   3    0.27    5.82
   5  -1   3   -4.76    6.72
   3  -5  -3  212.52   16.00
  -5   2  -3  246.70   22.40
  -2  -3   3  232.32   18.47
   5  -2   3  192.06   30.21
   5  -2   3  255.02   23.61
  -3   5   3  242.44   16.45
  -5   3  -3  215.70   15.34
   2  -5  -3  248.13   16.04
  -3  -2   3  228.05   22.42
   5  -3   3  215.78   15.97
  -2   5   3  238.20   15.47
  -5   4  -3   -0.14    5.60
  -4  -1   3    1.11    6.24
   5  -4   3    0.83    6.27
  -5   5  -3  140.00   16.65
  -5   0   3  109.96   16.77
   5  -5   3  144.65   18.15
   0   0  -4 1356.19   45.07
   0   0   4 1409.51   46.06
   0   1  -4 2228.95   65.48
  -1   0  -4 2302.64   67.65
   1  -1  -4 2387.89   66.62
  -1   0  -4 2276.10   65.27
  -1   1   4 2295.81   65.28
   0  -1   4 2268.26   67.41
   1   0   4 2297.14   67.90
   0  -1  -4 2366.91   67.43
   0  -1  -4 2303.95   67.19
  -1   1  -4 2364.12   67.66
   1   0  -4 2315.64   67.82
   0   1   4 2352.01   67.69
   1  -1   4 2336.77   71.09
   1  -1   4 2308.15   75.88
  -1   0   4 2378.07   68.80
  -1  -1  -4  843.94   29.65
   2  -1  -4  853.40   28.18
  -1  -1  -4  857.06   26.74
  -1   2  -4  850.56   28.29
   1  -2   4  840.89   28.83
  -2   1   4  812.28   28.36
  -2  -1  -4 1116.94   41.14
   3  -2  -4 1110.18   38.61
  -1   3  -4 1119.64   37.19
   1  -3   4 1123.40   36.66
  -3   2   4 1118.84   38.35
  -3   2   4 1094.05   36.84
   0   2  -4 1611.26   47.32
   2  -2  -4 1565.15   50.01
  -2   0  -4 1611.26   51.87
  -2   0  -4 1524.99   46.29
   0  -2   4 1590.69   50.04
  -2   2   4 1569.49   45.71
  -2   2   4 1599.49   49.95
   1  -2  -4  871.70   27.96
  -2   1  -4  843.26   27.36
   1   1  -4  818.36   25.56
  -2   1  -4  820.10   29.13
  -1   2   4  820.81   27.58
  -1  -1   4  834.39   29.59
   2  -1   4  777.09   29.23
  -1   2   4  812.28   26.10
   2   0  -4 1499.27   45.76
   0  -2  -4 1508.03   45.58
   0  -2  -4 1502.64   46.23
  -2   2  -4 1542.80   47.79
   2  -2   4 1466.13   49.73
   0   2   4 1512.25   46.56
  -2   0   4 1550.36   49.69
   3  -1  -4 1063.99   35.67
  -1  -2  -4 1078.82   38.23
  -2   3  -4 1092.51   37.49
   2  -3   4 1090.46   35.93
  -3   1   4 1049.09   38.28
   4  -2  -4  312.63   16.60
  -2  -2  -4  343.26   19.67
  -2   4  -4  288.27   16.77
  -4   2   4  323.53   16.69
  -4   2   4  321.77   17.87
   5  -3  -4  414.48   22.51
  -3  -2  -4  447.18   26.53
  -2   5  -4  432.29   21.95
   2  -5   4  412.49   22.07
  -3  -1  -4  622.30   30.74
  -1   4  -4  673.60   25.65
   4  -3  -4  628.30   28.06
  -4   3   4  647.79   28.09
  -3   0  -4  426.70   22.54
   0   3  -4  442.24   17.30
   3  -3  -4  476.60   21.42
   0  -3   4  466.89   20.47
  -3   3   4  439.05   20.80
  -3   1  -4 1096.38   40.34
  -3   1  -4 1147.82   36.68
   2  -3  -4 1102.47   38.59
   1   2  -4 1106.27   36.23
  -2   3   4 1101.87   38.36
  -1  -2   4 1103.46   39.99
   3  -1   4 1130.42   41.20
  -3   2  -4 1011.04   36.37
  -3   2  -4 1069.98   37.80
   1  -3  -4 1067.74   35.83
  -2  -1   4 1069.06   39.79
  -1   3   4 1087.91   35.64
   3  -2   4 1050.95   37.89
   3  -2   4 1080.49   51.07
  -3   3  -4  443.83   20.45
   0  -3  -4  465.25   18.82
   0  -3  -4  428.20   17.39
   3  -3   4  425.57   23.17
   0   3   4  440.23   18.86
  -3   0   4  415.59   21.93
  -1  -3  -4  604.50   26.93
  -3   4  -4  571.05   26.53
  -4   1   4  662.21   29.63
  -3   5  -4  408.61   22.99
  -2  -3  -4  461.92   25.64
  -5   2   4  451.56   25.40
  -4  -1  -4  175.66   20.90
   5  -4  -4  160.79   16.93
   4   1   4  165.16   20.48
  -5   4   4  145.41   16.18
   4  -4  -4  468.18   24.36
  -4   0  -4  449.36   26.23
  -4   4   4  475.78   24.42
   4   0   4  474.87   27.41
  -4   1  -4  640.78   30.58
   3  -4  -4  640.38   28.26
   4  -1   4  665.27   31.75
  -3   4   4  630.73   27.98
  -1  -3   4  662.48   29.52
   2  -4  -4  315.63   17.34
  -4   2  -4  354.27   17.33
  -4   2  -4  342.41   19.48
   4  -2   4  332.79   38.33
  -2   4   4  341.59   17.29
   4  -2   4  308.44   19.10
  -2  -2   4  324.59   19.84
  -4   3  -4  610.38   26.69
   1  -4  -4  638.35   25.27
  -3  -1   4  604.45   30.05
  -4   4  -4  449.42   23.71
  -4   0   4  490.16   26.87
  -4   5  -4  202.62   19.58
   4  -5   4  165.20   17.92
  -5   1   4  139.97   17.61
  -5   0  -4  295.63   23.47
   5   0   4  255.56   27.25
  -5   5   4  296.22   21.39
  -5   1  -4  203.93   22.35
   4  -5  -4  152.43   16.94
   5  -1   4  196.75   23.26
  -4   5   4  181.07   18.42
  -5   2  -4  393.98   24.65
   3  -5  -4  403.78   22.31
   5  -2   4  405.63   25.52
  -2  -3   4  367.43   23.60
   5  -2   4  388.89   38.21
  -3   5   4  401.58   21.87
   2  -5  -4  411.40   21.77
  -5   3  -4  463.12   23.00
   5  -3   4  417.15   23.06
  -3  -2   4  393.11   25.44
  -5   4  -4  207.50   19.32
   5  -4   4  226.89   21.03
  -4  -1   4  144.22   18.68
  -5   5  -4  280.28   24.00
  -5   0   4  293.09   28.63
   5  -5   4  298.08   25.85
   0   0  -5    0.55    3.89
   0   0   5    3.17    3.85
  -1   0  -5  665.41   22.22
  -1   0  -5  669.52   24.16
   1  -1  -5  689.36   23.12
   0   1  -5  654.37   22.25
  -1   1   5  678.72   22.57
   1   0   5  686.97   24.44
   0  -1   5  671.12   24.49
   1   0  -5  678.51   23.50
  -1   1  -5  635.56   22.19
   0  -1  -5  658.55   22.45
  -1   0   5  663.99   23.50
   1  -1   5  653.35   30.33
   0   1   5  660.76   22.83
   1  -1   5  639.18   26.49
  -1  -1  -5   -0.98    2.02
   2  -1  -5    1.32    2.31
  -1   2  -5    3.17    2.23
  -1  -1  -5   -0.22    2.42
   1   1   5   -1.27    2.12
   1  -2   5    6.49    3.26
  -2   1   5    2.35    2.11
   3  -2  -5  274.01   14.54
  -1   3  -5  272.33   13.67
  -2  -1  -5  269.49   16.20
  -3   2   5  275.96   13.39
   1  -3   5  272.82   13.39
  -3   2   5  263.69   14.19
   2  -2  -5  400.40   17.61
   0   2  -5  399.79   15.62
  -2   0  -5  420.33   19.14
  -2   0  -5  421.48   15.06
  -2   2   5  394.89   17.35
   0  -2   5  430.96   18.05
   2   0   5  410.17   19.42
  -2   2   5  434.93   14.61
  -2   1  -5    2.78    2.80
  -2   1  -5    0.24    2.08
   1  -2  -5   -0.31    2.07
   1   1  -5   -1.17    1.77
  -1  -1   5   -1.16    2.26
  -1   2   5    0.99    2.73
   2  -1   5   -0.14    2.24
  -2   2  -5  449.91   17.88
   2   0  -5  398.63   16.36
   0  -2  -5  431.52   16.38
   0  -2  -5  423.59   16.70
   2  -2   5  389.65   20.25
  -2   0   5  424.49   19.18
   0   2   5  416.04   16.84
   2  -2   5  419.81   25.83
   3  -1  -5  280.68   15.40
   3  -1  -5  337.77   14.94
  -2   3  -5  288.21   14.99
  -1  -2  -5  291.51   15.75
  -3   1   5  278.81   15.88
   2  -3   5  298.24   15.49
   1   2   5  319.37   16.74
  -2  -2  -5    1.54    4.70
  -2   4  -5   -3.06    3.91
   4  -2  -5    5.65    4.41
  -4   2   5   -2.39    3.79
   5  -3  -5   95.41   12.30
  -3  -2  -5   98.28   15.17
  -2   5  -5  124.73   13.46
   3   2   5  101.47   15.51
  -1   4  -5  157.31   10.93
   4  -3  -5  165.78   15.45
  -3  -1  -5  152.80   16.47
  -4   3   5  158.47   14.92
   3   1   5   80.42   12.60
  -3   0  -5   -2.37    3.35
   3  -3  -5    0.56    3.42
   0   3  -5   -1.70    2.20
  -3   3   5    6.00    3.77
   3   0   5    5.61    4.51
   0  -3   5   -0.13    2.98
  -3   1  -5  295.97   13.38
  -3   1  -5  264.68   15.91
   2  -3  -5  261.84   14.56
   1   2  -5  281.14   10.86
  -2   3   5  291.37   14.79
   3  -1   5  273.27   16.28
  -1  -2   5  282.83   16.12
   1  -3  -5  282.44   13.98
  -3   2  -5  304.51   15.97
  -3   2  -5  274.12   14.16
  -2  -1   5  240.49   15.72
   3  -2   5  279.57   15.76
   3  -2   5  321.34   27.39
   0  -3  -5    0.38    2.92
  -3   3  -5    3.34    3.54
   0  -3  -5    0.61    2.83
  -3   0   5   -0.56    3.66
   0   3   5    0.78    2.87
   3  -3   5    2.20    5.16
  -3   4  -5  168.66   15.64
  -1  -3  -5  160.98   12.68
   1   3   5  166.81   13.35
  -4   1   5  135.53   14.62
  -2  -3  -5  124.10   15.90
  -3   5  -5  106.12   14.03
  -5   2   5  111.10   14.86
   2   3   5  126.91   16.58
  -4  -1  -5    5.09    7.18
   5  -4  -5    6.06    6.07
   4   1   5   -4.91    6.21
   4  -4  -5  112.23   13.05
  -4   0  -5  118.57   16.23
  -4   4   5  104.02   13.04
   4   0   5  127.32   17.54
   3  -4  -5  186.12   13.83
  -4   1  -5  200.93   19.16
  -3   4   5  159.04   15.00
  -1  -3   5  153.93   15.54
   4  -1   5  174.47   18.41
   2  -4  -5   -2.65    3.15
  -4   2  -5   -2.96    2.87
  -4   2  -5    0.96    4.66
   4  -2   5   -1.47    3.83
  -2  -2   5   11.49    6.10
   4  -2   5    0.94   12.02
  -2   4   5   -2.87    3.03
  -4   3  -5  144.25   13.89
   1  -4  -5  152.62   11.06
  -3  -1   5  174.24   18.15
  -4   4  -5  120.92   14.00
  -4   0   5  126.49   15.16
  -4   5  -5    0.02    5.60
  -5   1   5    5.13    6.83
  -5   0  -5   74.24   14.72
   5  -5  -5   84.01   13.68
   5   0   5  103.49   17.55
   4  -5  -5    5.73    6.21
  -5   1  -5   -3.83    5.61
  -4   5   5    6.52    6.73
   5  -1   5    4.62    7.04
   3  -5  -5  107.91   13.99
  -5   2  -5  127.97   16.76
  -3   5   5  123.37   14.49
   5  -2   5  104.97   15.15
  -2  -3   5   99.37   13.86
   5  -2   5   87.39   24.24
   2  -5  -5  105.41   12.57
  -5   3  -5   82.46   11.70
  -3  -2   5   75.78   13.56
   5  -3   5  140.33   25.37
  -5   4  -5   -6.80    5.12
  -4  -1   5   -5.13    6.08
  -5   5  -5   62.63   12.09
   5  -5   5   89.79   15.28
  -5   0   5   51.82   13.22
   0   0  -6 3050.69   95.46
   0   0   6 3200.64   97.19
  -1   0  -6   27.62    4.51
  -1   0  -6   19.83    4.29
   0   1  -6   22.70    3.96
   1  -1  -6   20.17    3.75
   0  -1   6   22.06    5.05
  -1   1   6   15.61    3.58
   1   0   6   13.56    3.86
   1   0  -6   19.88    4.58
  -1   1  -6   29.44    4.34
   0  -1  -6   20.08    4.18
   1  -1   6    5.58    4.86
   1  -1   6   24.40    7.54
  -1   0   6   21.58    4.41
   0   1   6   18.49    4.10
  -1  -1  -6 1893.58   58.05
  -1  -1  -6 1712.13   57.01
   2  -1  -6 1897.29   56.81
  -1   2  -6 1876.87   56.46
   1  -2   6 1842.51   60.09
  -2   1   6 1868.25   57.00
   1   1   6 1813.25   58.27
  -1   3  -6    5.25    3.62
  -2  -1  -6   13.06    5.61
   3  -2  -6    7.64    4.08
   2   1   6    4.43    4.98
   1  -3   6   15.47    4.33
  -3   2   6   14.58    4.15
  -2   0  -6   12.61    2.96
   0   2  -6   12.45    3.19
  -2   0  -6    9.53    4.11
   2  -2  -6   16.33    4.22
   0  -2   6   12.67    4.19
  -2   2   6   16.07    2.98
   2   0   6   10.04    4.15
  -2   1  -6 1826.89   56.12
   1   1  -6 1893.75   56.69
   1  -2  -6 1854.40   56.89
  -2   1  -6 1861.38   59.39
  -1   2   6 1815.51   57.85
  -1  -1   6 1849.47   59.28
   2  -1   6 1875.39   59.48
  -2   2  -6   17.18    4.32
   2   0  -6   14.47    3.97
   0  -2  -6   16.82    3.88
   0  -2  -6   20.87    4.14
   2  -2   6   22.24    6.54
   0   2   6    8.36    3.23
   2  -2   6   16.55    7.50
  -2   0   6   15.37    4.63
  -1  -2  -6    5.37    4.10
   3  -1  -6   13.15    4.06
  -2   3  -6   13.41    4.85
  -3   1   6    8.61    4.64
   1   2   6    8.07    4.73
   2  -3   6   15.27    5.47
  -2   4  -6  768.46   31.17
   4  -2  -6  767.35   30.97
  -2  -2  -6  714.34   33.26
   2   2   6  795.22   34.76
  -4   2   6  805.15   31.90
   5  -3  -6   13.28    6.16
  -3  -2  -6    8.99    6.97
  -2   5  -6   10.75    5.61
   3   2   6    9.08    7.21
  -3  -1  -6    7.75    5.82
  -1   4  -6    5.11    4.30
   4  -3  -6   11.45    5.31
   3   1   6    5.45    5.89
   0   3  -6  944.16   32.04
   3  -3  -6  961.25   36.51
  -3   0  -6  982.16   39.13
  -3   3   6  956.30   36.12
   0  -3   6  973.48   35.88
   3   0   6  918.44   39.16
   1   2  -6   10.73    2.70
   2  -3  -6   16.41    5.04
  -3   1  -6    6.97    4.19
  -3   1  -6   18.18    4.28
   3  -1   6    9.35    5.05
  -1  -2   6   20.28    6.04
   1  -3  -6    6.40    3.59
  -3   2  -6    9.89    3.89
  -2  -1   6   10.95    4.89
   3  -2   6   13.80   10.28
   3  -2   6   15.47    5.16
  -3   3  -6  949.22   35.72
   0  -3  -6  953.66   34.05
   0  -3  -6  972.24   33.34
   3  -3   6  935.38   41.64
   0   3   6  969.42   34.40
  -3   0   6  979.93   39.00
  -3   4  -6    9.80    5.37
  -1  -3  -6    9.46    5.20
   1   3   6    8.00    5.37
  -4   1   6   13.77    6.36
  -3   5  -6    4.39    5.76
  -2  -3  -6    9.71    6.66
  -5   2   6   10.62    6.90
   2   3   6    1.42    6.44
   5  -4  -6  380.20   22.79
  -4  -1  -6  388.32   25.77
   4   1   6  347.70   25.40
   4  -4  -6   11.65    5.87
  -4   0  -6    6.66    6.19
  -4   4   6    3.80    4.93
   4   0   6   10.63    6.94
   3  -4  -6    4.18    5.14
  -4   1  -6   11.27    6.56
  -1  -3   6   13.15    5.64
  -3   4   6   11.41    6.08
   4  -1   6   10.50    6.51
   2  -4  -6  717.33   30.14
  -4   2  -6  726.90   32.85
  -4   2  -6  776.28   29.80
   4  -2   6  761.51   53.61
   4  -2   6  698.40   32.51
  -2  -2   6  788.29   34.29
   1  -4  -6    4.28    4.12
  -4   3  -6   17.74    6.12
  -3  -1   6   10.66    6.08
   4  -3   6    6.15    5.29
  -4   4  -6    6.23    5.82
  -4   0   6    4.94    5.73
  -4   5  -6  405.22   24.37
  -5   1   6  398.71   26.13
  -5   0  -6   10.92    8.46
   5  -5  -6   21.46    8.70
   5   0   6    7.15    8.29
  -5   1  -6  337.04   24.93
   4  -5  -6  433.03   24.23
   5  -1   6  399.76   27.32
   3  -5  -6    5.18    5.69
  -5   2  -6    5.50    7.02
  -2  -3   6   22.45    7.88
   5  -2   6    7.38   17.55
   5  -2   6   13.70    7.82
  -5   3  -6   15.94    6.95
   2  -5  -6   11.50    6.19
  -3  -2   6   13.15    7.46
   5  -3   6   10.48   13.28
  -5   4  -6  442.60   24.43
  -4  -1   6  390.81   26.53
  -5   5  -6    5.35    7.61
  -5   0   6   13.25    7.87
   5  -5   6    3.33    8.23
   0   0  -7   -4.42    3.67
   0   0   7   -0.51    4.48
   0   1  -7 5050.30  145.27
   1  -1  -7 5046.78  145.01
  -1   0  -7 5044.93  145.44
   0  -1   7 5183.68  148.50
   1   0   7 5036.07  147.09
  -1   1   7 5202.00  146.50
   0  -1  -7 4875.69  144.78
   1   0  -7 4842.25  146.38
  -1   1  -7 5074.52  143.21
  -1   0   7 5186.75  145.23
   1  -1   7 5054.85  151.30
   0   1   7 5144.19  145.26
   1  -1   7 5088.57  156.74
  -1  -1  -7    2.75    3.44
   2  -1  -7   -3.35    2.20
  -1   2  -7    1.52    2.37
  -1  -1  -7    1.13    2.78
  -2   1   7    3.58    2.64
   1   1   7   -2.36    2.49
   1  -2   7   -1.20    3.46
  -2  -1  -7 2760.16   86.91
   3  -2  -7 2693.78   83.86
  -1   3  -7 2651.51   82.04
   2   1   7 2774.90   87.62
  -3   2   7 2718.63   82.08
   1  -3   7 2742.78   84.09
   2  -2  -7 3487.81  105.22
   0   2  -7 3635.97  103.16
  -2   0  -7 3564.08  107.39
  -2   0  -7 3540.36  102.09
   2   0   7 3692.70  108.72
   0  -2   7 3497.71  106.64
  -2   2   7 3561.01  101.67
   1   1  -7    0.45    2.69
  -2   1  -7    1.45    2.25
   1  -2  -7   -0.62    2.29
  -1   2   7    4.44    4.06
  -1  -1   7    0.76    2.90
   2  -1   7    0.46    2.99
   0  -2  -7 3558.56  102.39
   0  -2  -7 3518.77  102.35
  -2   2  -7 3409.45  102.86
   2   0  -7 3548.29  104.07
   2  -2   7 3559.10  110.86
   0   2   7 3516.32  102.80
   2  -2   7 3465.22  118.89
  -2   0   7 3447.89  105.20
   3  -1  -7 2588.43   80.44
  -1  -2  -7 2669.71   82.37
  -2   3  -7 2666.59   81.51
   2  -3   7 2627.64   85.45
  -3   1   7 2635.44   83.03
   1   2   7 2690.29   83.02
  -2  -2  -7   -3.19    4.03
   4  -2  -7    4.39    4.49
  -2   4  -7    6.72    5.03
  -4   2   7   -0.85    3.85
   2   2   7    1.57    4.81
  -2   5  -7 1095.64   41.22
  -3  -2  -7 1046.83   46.42
   5  -3  -7 1048.59   42.48
   3   2   7 1023.73   46.67
  -3  -1  -7 1644.85   60.08
   4  -3  -7 1558.55   55.52
  -1   4  -7 1571.86   52.73
   0   3  -7    2.27    2.81
  -3   0  -7    5.57    4.77
   3  -3  -7   -0.59    3.84
   3   0   7    1.14    4.61
   0  -3   7   -1.66    3.35
  -3   1  -7 2609.92   84.56
   1   2  -7 2602.12   76.80
   2  -3  -7 2679.46   81.79
  -3   1  -7 2642.30   79.27
   3  -1   7 2684.79   85.16
  -1  -2   7 2682.91   83.95
  -3   2  -7 2613.63   79.88
   2   1  -7 2527.09   79.33
   1  -3  -7 2667.24   79.59
   3  -2   7 2632.43  105.58
  -2  -1   7 2563.14   83.47
   3  -2   7 2627.03   83.87
   0  -3  -7    4.45    3.83
   0  -3  -7    5.38    3.62
   3   0  -7    6.41    7.28
  -3   3  -7    0.53    3.46
  -3   0   7   -0.34    3.63
   3  -3   7   -1.78    5.29
   0   3   7    2.48    3.50
  -1  -3  -7 1589.09   55.67
  -3   4  -7 1579.13   55.98
   1   3   7 1617.56   56.40
  -4   1   7 1609.55   58.19
  -3   5  -7 1063.53   42.94
  -2  -3  -7 1032.28   44.81
  -5   2   7 1238.29   60.64
   2   3   7 1054.82   45.67
  -4  -1  -7    5.53    7.23
   5  -4  -7   -6.57    4.34
   4   1   7    1.75    7.21
  -4   0  -7 1243.36   51.33
   4  -4  -7 1181.96   47.32
   4   0   7 1281.89   52.20
   3  -4  -7 1605.77   57.62
  -4   1  -7 1706.45   61.42
  -1  -3   7 1667.05   59.14
   4  -1   7 1587.94   61.38
   2  -4  -7   -4.64    3.08
  -4   2  -7   -2.57    4.41
  -4   2  -7    0.65    4.00
   4  -2   7   -3.22    3.94
  -2  -2   7   -4.68    3.66
   4  -2   7   -3.78   13.24
   1  -4  -7 1615.02   54.68
  -4   3  -7 1704.74   57.08
   4  -3   7 1575.26   59.60
   4  -3   7 1571.51   78.02
  -3  -1   7 1683.63   61.69
  -4   4  -7 1239.62   47.43
  -4   0   7 1267.44   51.50
  -4   5  -7   -2.76    5.50
  -5   1   7    2.60    6.07
   5  -5  -7  763.35   36.08
  -5   0  -7  693.25   38.82
   5   0   7  695.44   39.67
   4  -5  -7   -0.40    5.45
  -5   1  -7   -2.85    5.95
  -1  -4   7    4.12    7.10
   5  -1   7    2.54    8.02
  -5   2  -7 1026.61   46.33
   3  -5  -7 1075.26   42.75
   5  -2   7 1085.80   47.12
  -2  -3   7 1091.05   46.78
   5  -2   7  994.39   70.92
  -5   3  -7 1030.17   40.44
   2  -5  -7  927.65   39.48
   5  -3   7 1165.50   68.65
  -3  -2   7 1004.03   45.50
  -5   4  -7    9.65    6.65
  -4  -1   7   -2.44    6.43
  -5   5  -7  660.23   33.47
  -5   0   7  681.70   38.07
   0   0  -8   34.66    8.06
   0   0   8   27.00    7.79
  -1   0  -8  626.76   24.99
   0   1  -8  636.25   24.90
   1  -1  -8  631.67   24.17
  -1   1   8  621.46   26.14
   1   0   8  637.92   26.34
   0  -1   8  589.27   26.75
   0  -1  -8  630.30   25.62
   1   0  -8  573.79   26.23
  -1   1  -8  622.01   23.11
   1  -1   8  603.73   29.55
   1  -1   8  576.91   32.22
  -1   0   8  584.88   24.37
   0   1   8  568.72   24.81
  -1   2  -8   14.04    4.08
   2  -1  -8   19.60    4.66
  -1  -1  -8   17.78    5.43
  -1  -1  -8   17.18    4.79
  -2   1   8   15.73    4.40
   1   1   8   29.48    6.27
   1  -2   8   21.14    6.68
   3  -2  -8  274.73   16.17
  -1   3  -8  339.69   15.93
  -2  -1  -8  282.05   17.90
   1  -3   8  280.10   16.71
  -3   2   8  324.66   15.62
   2   1   8  301.46   18.75
  -2   0  -8  408.42   20.12
   2  -2  -8  410.04   18.59
   0   2  -8  399.60   17.09
  -2   0  -8  408.27   16.39
   2   0   8  377.98   19.95
   0  -2   8  417.33   20.29
  -2   2   8  398.46   15.82
  -2   1  -8   18.29    4.16
   1  -2  -8   22.00    4.99
   1   1  -8   21.07    5.43
   2  -1   8   25.19    6.37
  -1   2   8   26.81    6.68
  -1  -1   8   19.00    5.42
  -2   2  -8  403.84   18.03
   2   0  -8  391.03   19.68
   0  -2  -8  411.44   18.44
  -2   0   8  394.31   19.71
   0   2   8  423.42   18.65
   2  -2   8  334.55   22.40
   2  -2   8  433.13   29.75
  -2   3  -8  287.00   15.57
   3  -1  -8  317.96   15.73
  -1  -2  -8  278.21   16.17
   2  -3   8  260.20   18.80
  -3   1   8  284.97   16.44
   1   2   8  256.61   16.26
  -2   4  -8   13.18    5.50
  -2  -2  -8   14.52    6.78
   4  -2  -8   10.13    4.90
  -4   2   8   14.60    5.69
   2   2   8   23.62    7.46
  -2   5  -8  137.13   14.68
  -3  -2  -8  133.27   18.17
   5  -3  -8  111.36   13.90
   3   2   8  115.22   17.12
   4  -3  -8  157.29   15.32
  -1   4  -8  174.99   11.96
  -3  -1  -8  177.90   18.49
   3   1   8  175.96   18.63
   0   3  -8   26.70    5.12
   3  -3  -8   20.28    6.66
  -3   0  -8   15.50    6.15
   0  -3   8   14.09    5.50
   3   0   8   11.62    5.70
  -3   1  -8  284.08   17.74
   1   2  -8  297.86   13.05
   2  -3  -8  291.89   16.01
  -3   1  -8  257.86   13.89
   3  -1   8  285.49   17.95
  -1  -2   8  298.44   17.91
   2   1  -8  299.91   15.88
   1  -3  -8  308.51   15.84
  -3   2  -8  287.81   15.29
   3  -2   8  286.33   18.41
  -2  -1   8  262.86   17.35
   3  -2   8  252.90   34.01
  -3   3  -8   17.02    5.54
   3   0  -8   23.17    6.74
   0  -3  -8   18.10    5.57
   3  -3   8   26.70    9.63
   0   3   8   18.29    5.40
  -3   0   8   15.58    6.27
  -3   4  -8  196.69   14.84
  -1  -3  -8  185.75   14.53
  -4   1   8  175.55   17.88
   1   3   8  169.81   16.49
  -2  -3  -8  109.81   15.46
  -3   5  -8  147.70   16.78
   2   3   8   90.30   14.45
   5  -4  -8    2.80    6.74
  -4  -1  -8   13.00    8.86
   4   1   8   21.99   10.53
   4  -4  -8  121.45   14.69
  -4   0  -8  193.90   21.45
   4   0   8  144.12   19.02
  -4   1  -8  166.24   18.33
   3  -4  -8  190.69   14.58
  -1  -3   8  199.74   16.08
   4  -1   8  171.68   18.50
   2  -4  -8   13.59    5.53
  -4   2  -8   11.21    5.24
   4  -2   8    7.14   13.88
   4  -2   8   18.99    7.21
  -2  -2   8   15.95    6.58
  -4   3  -8  198.32   17.80
   1  -4  -8  180.19   13.39
   4  -3   8  236.94   22.10
  -3  -1   8  205.42   20.53
   4  -3   8  220.67   33.11
  -4   4  -8  174.97   17.06
  -4   0   8  110.80   15.39
  -4   5  -8   12.48    7.74
  -5   1   8    9.71    7.82
  -5   1  -8   17.42    9.43
   4  -5  -8    5.82    6.52
  -1  -4   8   11.67    8.05
   5  -1   8   11.97    9.54
   3  -5  -8  131.04   15.98
  -5   2  -8  122.75   17.19
  -2  -3   8  153.06   19.09
   5  -2   8  103.22   15.91
   5  -2   8  104.36   29.53
  -5   3  -8  132.47   14.84
   2  -5  -8  114.99   13.28
  -3  -2   8  121.17   16.55
   5  -3   8   65.12   23.78
  -5   4  -8   -2.09    5.31
  -4  -1   8    3.34    6.86
   0   0  -9    4.65    5.56
   0   0   9    0.43    5.32
   1  -1  -9  137.75   10.24
  -1   0  -9  146.18   11.18
   0   1  -9  146.13   11.13
  -1   1   9  131.55   13.62
   1   0   9  130.25   13.33
   0  -1   9  147.49   15.13
   1   0  -9  159.06   15.53
   0  -1  -9  141.28   13.82
  -1   1  -9  137.11   10.05
  -1   0   9  146.43   11.64
   0   1   9  154.26   14.91
   1  -1   9  148.43   16.42
  -1   2  -9    3.30    3.02
   2  -1  -9   -1.98    2.58
  -1  -1  -9    7.25    4.76
  -1  -1  -9    1.50    2.90
   1   1   9   -3.10    2.60
  -2   1   9    1.63    2.84
   1  -2   9   -9.98    3.72
  -1   3  -9   74.13    8.79
   3  -2  -9   63.51    9.13
  -2  -1  -9   68.24   10.56
  -3   2   9   72.20    8.63
   2   1   9   72.40   11.70
   1  -3   9   64.85    9.83
   2  -2  -9   91.55    9.76
  -2   0  -9   97.53    7.50
   0   2  -9  112.55   10.03
  -2   0  -9   87.54   10.67
  -2   2   9   85.60    6.92
   0  -2   9   75.21   10.20
   2   0   9   98.62   11.62
   1   1  -9    7.35    4.79
  -2   1  -9    5.18    3.55
   1  -2  -9    1.93    3.01
   2  -1   9    3.76    4.30
  -1  -1   9   -0.54    3.20
  -1   2   9   -1.91    3.89
  -2   2  -9   87.88    9.32
   2   0  -9   81.19   11.04
   0  -2  -9   80.29    9.49
   2  -2   9  101.72   19.26
   2  -2   9   98.02   14.93
  -2   0   9  112.48   12.22
   0   2   9   82.90    9.72
  -2   3  -9   52.56    8.28
  -1  -2  -9   66.67    9.32
   3  -1  -9   64.84    8.99
  -3   1   9  103.08   11.96
   1   2   9   57.61    9.04
   2  -3   9   71.17   12.14
   4  -2  -9   -1.66    4.52
  -2   4  -9   -1.48    3.99
  -2  -2  -9   -1.67    4.43
  -4   2   9   -2.10    4.18
   2   2   9    0.51    4.70
   5  -3  -9   38.21    9.04
  -3  -2  -9   28.44    9.63
  -2   5  -9   33.10    8.59
   3   2   9   24.14    9.37
  -1   4  -9   50.22    8.37
   4  -3  -9   47.30    9.27
  -3  -1  -9   42.72   10.07
   3   1   9   41.51   10.05
   3  -3  -9    3.25    4.71
  -3   0  -9   -0.64    4.75
   0   3  -9    0.17    3.24
   3   0   9   -3.90    4.45
   0  -3   9    0.07    4.09
   2  -3  -9   53.33    8.14
  -3   1  -9   40.67    8.44
   1   2  -9   69.24    7.18
  -3   1  -9   66.95    8.07
  -1  -2   9   73.81   11.16
   3  -1   9   58.29    9.94
   1  -3  -9   77.92    9.52
   2   1  -9   69.22    9.51
  -3   2  -9   53.66    8.03
   3  -2   9   62.43   10.38
  -2  -1   9   52.22    9.05
   3  -2   9   79.99   20.44
   3   0  -9   -4.29    4.40
  -3   3  -9   -3.22    3.58
   0  -3  -9    0.54    3.99
   3  -3   9    4.56    6.85
  -3   0   9    7.53    4.98
  -3   4  -9   42.16    8.72
  -1  -3  -9   32.56    7.93
  -4   1   9   37.90    9.41
   1   3   9   32.55    7.81
  -3   5  -9   32.29    8.82
  -2  -3  -9   34.46    9.79
   2   3   9   21.84    8.96
  -4  -1  -9   -8.28    5.46
   5  -4  -9   -6.80    4.62
   4   1   9    0.47    7.44
   4  -4  -9   32.68    8.94
  -4   0  -9   29.46    9.70
   4   0   9   23.07    8.98
   0  -4   9   34.34   12.67
   3  -4  -9   33.39    8.60
  -4   1  -9   72.56   12.45
   4  -1   9   25.96    8.24
  -1  -3   9   36.88    9.42
  -4   2  -9    3.73    4.39
   2  -4  -9    0.16    4.37
   4  -2   9    0.58   11.19
  -2  -2   9   -3.58    4.45
   4  -2   9   -0.84    5.77
   1  -4  -9   34.19    7.50
  -4   3  -9   33.95    7.94
  -3  -1   9   25.68    8.11
   4  -3   9   58.15   20.96
   4  -3   9   40.24   10.81
  -4   4  -9   34.36    8.99
  -4   0   9   48.12   11.40
  -4   5  -9   -2.58    5.88
  -5   1   9   -2.41    6.65
  -5   1  -9   -4.53    6.84
   4  -5  -9    1.09    5.62
  -1  -4   9   13.28    8.00
   5  -1   9    0.06    7.86
   3  -5  -9   20.41    7.96
   5  -2   9   22.22   10.14
  -2  -3   9   37.78   11.00
   5  -2   9   24.16   21.93
  -5   3  -9   39.35    9.06
   2  -5  -9   28.32    8.01
   5  -3   9   40.54   23.49
  -3  -2   9   29.47   10.02
  -5   4  -9    1.66    6.78
  -4  -1   9    4.01    6.87
   0   0 -10 1945.59   67.24
   0   0  10 1896.29   69.65
   0   1 -10   37.13    7.78
  -1   0 -10   17.59    6.37
   1  -1 -10   16.66    5.20
   1   0  10   21.91    6.23
  -1   1  10   22.48    7.27
   0  -1  10   22.57    7.21
  -1   1 -10   30.25    6.48
   0  -1 -10   26.94    7.52
   1   0 -10   41.57    9.03
   1  -1  10   18.96    7.19
  -1   0  10   42.49    8.70
   0   1  10   32.77    7.96
  -1   2 -10 1092.08   39.38
   2  -1 -10 1156.91   40.57
  -1  -1 -10 1149.69   42.55
   1  -2  10  986.14   45.15
   1   1  10 1154.82   42.15
  -2   1  10 1126.76   40.14
  -1   3 -10   13.39    4.96
  -2  -1 -10   14.29    5.66
   3  -2 -10   34.69    7.20
   1  -3  10   13.52    6.02
   2   1  10   12.61    5.91
  -3   2  10   19.08    5.23
   2  -2 -10   19.07    5.69
  -2   0 -10   18.53    4.90
   0   2 -10   14.75    4.41
   2   0  10   19.75    6.44
  -2   2  10   17.94    4.45
   0  -2  10   14.62    5.75
   1   1 -10 1070.80   42.58
  -2   1 -10 1155.79   40.26
   1  -2 -10 1160.45   41.13
  -1  -1  10 1153.37   43.83
  -1   2  10 1206.17   44.05
   2  -1  10 1164.15   45.18
   2   0 -10    9.15    6.00
   0  -2 -10   26.15    6.64
  -2   2 -10   23.79    5.77
  -2   0  10   23.02    6.29
   2  -2  10   12.54    9.02
   0   2  10   23.83    6.26
   2  -2  10   21.65    8.60
  -1  -2 -10   10.28    5.27
   3  -1 -10   10.23    4.84
  -2   3 -10   21.31    6.41
  -1  -2 -10   27.61   10.88
   1   2  10   16.34    5.72
  -3   1  10   12.63    5.68
   2  -3  10   12.96    7.98
  -2  -2 -10  496.51   27.38
  -2   4 -10  535.55   25.41
   4  -2 -10  515.42   25.57
  -4   2  10  530.69   25.85
   2   2  10  518.78   28.21
  -3  -2 -10   21.92    9.19
  -2   5 -10   10.64    7.04
   5  -3 -10   12.32    7.51
   3   2  10   11.72    8.88
  -3  -1 -10   17.01    7.79
  -1   4 -10   13.71    5.76
   4  -3 -10    8.01    6.11
   3   1  10    5.59    6.25
   0   3 -10  693.13   26.48
  -3   0 -10  738.51   33.57
   3  -3 -10  601.02   29.17
   3   0  10  717.26   33.74
   0  -3  10  651.15   30.90
   2  -3 -10   14.96    5.56
  -3   1 -10   16.81    5.12
   1   2 -10   14.86    4.56
   3  -1  10   21.82    7.01
  -1  -2  10   12.93    6.02
   2   1 -10    9.56    6.37
   1  -3 -10   12.31    4.93
  -3   2 -10   18.07    5.36
   3  -2  10   14.62    6.78
   3  -2  10   13.40   12.07
  -2  -1  10   13.37    6.25
   3   0 -10  653.39   31.08
  -3   3 -10  617.25   27.59
   0  -3 -10  665.87   28.61
   3  -3  10  649.41   35.12
  -3   0  10  593.56   30.26
  -1  -3 -10    9.25    6.56
  -3   4 -10    4.35    5.26
  -4   1  10   18.39    7.21
   1   3  10    6.63    6.00
  -3   5 -10    8.62    6.72
  -2  -3 -10    1.83    6.49
   2   3  10   12.21    7.90
  -4  -1 -10  317.26   25.35
   4   1  10  265.01   27.13
   4  -4 -10    7.80    6.32
  -4   0 -10    7.09    7.42
   0  -4  10   21.55    7.55
   4   0  10    8.11    8.21
  -4   1 -10   15.64    8.04
   3  -4 -10    4.53    6.09
  -1  -3  10   13.75    7.19
   4  -1  10    7.73    7.46
   2  -4 -10  551.29   26.01
  -4   2 -10  515.79   23.98
   4  -2  10  502.12   29.16
   4  -2  10  529.34   47.68
  -2  -2  10  486.35   27.66
  -4   3 -10    1.42    4.76
   1  -4 -10   14.19    6.66
  -3  -1  10    5.29    6.66
   4  -3  10    6.68    7.81
   4  -3  10   11.25   13.42
  -4   4 -10   12.06    6.96
  -4   0  10    3.94    6.40
  -4   5 -10  220.83   20.19
  -5   1  10  198.54   20.24
  -5   1 -10  314.46   30.29
   4  -5 -10  263.85   20.70
  -1  -4  10  305.90   23.15
   5  -1  10  321.28   26.12
   3  -5 -10   15.10    7.73
  -2  -3  10    1.29    6.66
   5  -2  10    4.86    8.37
   5  -2  10   29.63   22.58
   2  -5 -10    6.18    6.60
  -5   3 -10    7.25    6.84
  -3  -2  10    8.90    8.49
   5  -3  10   34.64   22.36
  -5   4 -10  279.26   20.46
  -4  -1  10  286.14   23.30
   0   0 -11    4.71    5.75
   0   0  11   -3.17    5.54
   1  -1 -11 1893.22   61.79
  -1   0 -11 1656.93   61.37
   0   1 -11 1793.83   62.07
   0  -1  11 1676.38   65.23
  -1   1  11 1776.15   64.38
   1   0  11 1969.05   65.35
   1   0 -11 1967.74   68.02
  -1   1 -11 1996.28   64.73
   0  -1 -11 1858.89   67.05
  -1   0  11 1945.78   67.94
   1  -1  11 1907.08   76.12
   1  -1  11 1962.59   70.83
   0   1  11 1784.20   67.20
  -1   2 -11    1.42    3.40
   2  -1 -11   -0.88    3.93
  -1  -1 -11   -3.95    4.88
   1  -2  11    2.40    6.24
   1   1  11   -0.23    4.15
  -2   1  11    1.54    3.44
  -2  -1 -11  988.03   41.52
  -1   3 -11 1015.85   38.03
   3  -2 -11 1034.80   39.65
   2   1  11 1016.67   42.26
   1  -3  11 1089.30   43.58
  -3   2  11 1024.02   37.51
  -2   0 -11 1346.09   45.64
   2  -2 -11 1300.81   47.19
   0   2 -11 1329.11   46.52
  -2   2  11 1355.19   45.81
   2   0  11 1302.71   50.16
   0  -2  11 1389.90   51.83
   1   1 -11    3.00    5.46
  -2   1 -11    5.44    4.30
   1  -2 -11    2.86    4.02
  -1  -1  11   -3.03    3.82
   2  -1  11   -2.60    4.15
  -1   2  11    0.60    4.75
  -2   2 -11 1282.27   45.48
   0  -2 -11 1369.92   49.08
   2   0 -11 1209.66   49.52
   2  -2  11 1270.39   63.66
  -2   0  11 1270.05   48.24
   2  -2  11 1237.76   53.13
   0   2  11 1380.10   48.38
   3  -1 -11 1032.02   40.74
  -1  -2 -11 1088.12   48.06
  -2   3 -11 1077.61   39.85
   2  -3  11 1030.21   46.66
   1   2  11 1017.37   41.40
  -3   1  11 1063.18   41.12
  -2  -2 -11   -1.19    5.65
   4  -2 -11    5.55    5.29
  -2   4 -11    3.50    5.02
   2   2  11    0.43    5.73
  -4   2  11   -1.68    4.21
  -2   5 -11  436.42   24.28
  -3  -2 -11  427.93   28.73
   5  -3 -11  423.74   25.11
   3   2  11  433.48   29.02
   4  -3 -11  674.83   31.49
  -3  -1 -11  603.35   33.01
  -1   4 -11  654.11   28.10
   3   1  11  645.41   34.27
   3  -3 -11    4.50    5.42
  -3   0 -11    1.02    5.53
   0   3 -11   -0.47    3.68
   0  -3  11   -2.81    4.55
   3   0  11    6.13    6.31
  -3   1 -11 1062.00   37.45
   2  -3 -11 1033.55   39.71
   1   2 -11 1043.30   37.32
  -1  -2  11 1023.93   42.71
   3  -1  11 1014.38   43.54
   1  -3 -11 1044.35   39.69
   2   1 -11 1029.72   40.61
  -3   2 -11 1045.91   38.93
   3  -2  11  956.46   60.77
   3  -2  11 1118.15   46.60
  -2  -1  11 1012.86   42.68
   0  -3 -11   -8.77    5.01
  -3   3 -11   -0.37    4.13
   3   0 -11    6.33    6.99
   3  -3  11   -0.35    6.32
  -3   0  11   -2.80    4.18
  -3   4 -11  616.32   29.15
   1   3  11  613.28   30.07
  -4   1  11  610.12   31.14
  -2  -3 -11  451.35   27.42
  -3   5 -11  404.19   24.56
   2   3  11  433.91   27.60
   5  -4 -11    0.54    6.79
  -4  -1 -11    1.83    8.11
   4   1  11   16.38   10.46
  -4   0 -11  551.87   32.63
   4   0  11  565.47   32.94
   0  -4  11  535.57   29.39
   3  -4 -11  672.41   31.93
   4  -1  11  699.01   35.89
  -1  -3  11  660.45   33.40
   2  -4 -11   -1.59    4.93
  -4   2 -11   -1.76    3.76
   4  -2  11   -4.48   10.34
  -2  -2  11    7.04    6.35
   4  -2  11   -0.22    5.55
  -4   3 -11  683.01   30.09
   1  -4 -11  652.07   29.94
   4  -3  11  582.92   49.92
  -3  -1  11  650.58   33.76
   4  -3  11  607.18   36.35
  -4   4 -11  482.21   26.08
  -4   0  11  495.60   29.66
  -4   5 -11    5.83    7.02
  -5   1  11    6.92    7.27
   4  -5 -11   -0.29    6.93
  -5   1 -11   -2.49    7.86
   5  -1  11   -4.55    8.19
  -1  -4  11   -8.92    6.54
   3  -5 -11  435.22   25.90
   5  -2  11  485.68   31.57
   5  -2  11  497.11   61.88
  -2  -3  11  428.27   28.39
  -5   3 -11  397.91   22.87
   2  -5 -11  482.32   25.73
   5  -3  11  277.46   44.69
  -3  -2  11  411.24   28.38
  -5   4 -11   -1.04    6.93
  -4  -1  11   -0.45    6.74
   0   0 -12 2116.24   73.03
   0   0  12 2029.10   75.82
   1  -1 -12   15.17    6.50
   0   1 -12    8.44    6.26
  -1   0 -12    8.59    7.03
   1   0  12   13.97    6.86
   0  -1  12   14.64    7.82
  -1   1  12    4.46    6.26
  -1   1 -12    9.22    5.60
   1   0 -12    7.20    6.33
   0  -1 -12    5.88    6.14
   1  -1  12   13.47    7.37
  -1   0  12    5.23    6.13
   1  -1  12    4.21    7.62
   0   1  12    2.79    6.06
  -1   2 -12 1217.18   45.46
  -1  -1 -12 1242.04   47.45
   2  -1 -12 1285.39   47.23
  -2   1  12 1275.86   47.37
   1   1  12 1249.42   48.36
   1  -2  12 1195.29   52.40
  -1   3 -12    1.85    4.40
   3  -2 -12    6.21    5.23
   2   1  12    4.87    5.67
   1  -3  12    0.47    5.44
  -3   2  12    9.28    4.89
   2  -2 -12   10.37    5.31
   0   2 -12    7.82    5.35
  -2   0 -12    7.97    4.72
   0  -2  12   10.91    6.81
   2   0  12   15.00    6.59
  -2   2  12   14.65    5.05
   1  -2 -12 1171.29   44.82
   1   1 -12 1206.32   46.67
  -2   1 -12 1276.80   44.69
  -1  -1  12 1212.23   48.68
   2  -1  12 1080.36   48.44
  -1   2  12 1267.37   47.09
  -2   2 -12    3.43    4.26
   0  -2 -12    7.14    6.24
   2   0 -12   12.24    7.75
   0   2  12    7.02    5.94
   2  -2  12   10.07   10.68
  -2   0  12    3.85    5.49
   2  -2  12    9.63    6.97
  -1  -2 -12   11.36    7.56
   3  -1 -12   10.45    6.54
  -2   3 -12    5.95    4.66
   2  -3  12    3.93    7.19
   1   2  12   -1.35    4.92
  -3   1  12    6.89    4.90
  -2  -2 -12  549.51   30.32
  -2   4 -12  583.44   27.76
   4  -2 -12  566.39   29.22
   2   2  12  653.37   32.52
  -2   5 -12    0.12    6.20
   5  -3 -12    5.70    6.85
  -3  -2 -12   11.08    8.70
   3   2  12    6.74    7.46
  -1   4 -12   12.09    6.01
  -3  -1 -12   -0.06    7.01
   4  -3 -12    0.53    5.71
   3   1  12    7.91    7.45
   3  -3 -12  733.49   32.50
   0   3 -12  687.10   28.58
   0  -3  12  744.78   34.48
   3   0  12  671.77   34.91
   1   2 -12   11.58    5.45
  -3   1 -12   11.55    5.08
   2  -3 -12   10.49    5.51
  -1  -2  12   17.08    6.95
   3  -1  12    9.16    7.13
  -3   2 -12   10.74    5.34
   2   1 -12   -4.78    5.06
   1  -3 -12    5.62    5.49
   3  -2  12   10.27    8.13
  -2  -1  12    9.93    6.16
   3  -2  12   11.69   11.88
   0  -3 -12  666.95   32.84
  -3   3 -12  730.90   31.56
   3   0 -12  721.43   34.80
  -3   0  12  672.86   33.65
   3  -3  12  719.11   38.37
  -3   4 -12   -2.72    5.06
  -4   1  12    3.58    6.42
  -2  -3 -12   -3.00    6.91
  -3   5 -12   -4.30    5.82
   2   3  12    7.22    8.52
  -4  -1 -12  238.13   25.96
   5  -4 -12  299.21   22.09
   4   1  12  266.66   28.06
  -4   0 -12    2.55    7.82
   4  -4 -12    7.43    7.15
   0  -4  12   -1.21    6.03
   4   0  12    7.96    8.80
   3  -4 -12    2.46    5.79
   4  -1  12   -0.94    6.29
  -1  -3  12    9.68    6.50
  -4   2 -12  556.59   26.75
   2  -4 -12  638.16   29.71
  -2  -2  12  600.46   32.13
   4  -2  12  532.14   48.99
   4  -2  12  617.03   34.48
  -4   3 -12    2.79    5.62
   1  -4 -12    6.71    6.89
   4  -3  12   -3.45   11.85
  -3  -1  12   12.02    7.74
   4  -3  12    6.80    9.35
  -4   4 -12    7.39    6.47
  -4   0  12    7.82    7.53
  -4   5 -12  361.88   24.60
   4  -5 -12  303.58   23.30
  -1  -4  12  374.36   26.61
   5  -1  12  395.47   29.88
   3  -5 -12    2.74    7.02
  -2  -3  12    9.62    8.64
   5  -2  12   12.01    9.73
   5  -2  12    9.18   18.20
  -5   3 -12    7.78    6.82
   2  -5 -12    5.03    7.30
   5  -3  12    1.71   16.23
  -3  -2  12   -1.41    7.20
   5  -3  12   -8.82    9.38
  -5   4 -12  368.41   24.06
  -4  -1  12  334.10   27.30
   0   0 -13    8.66    6.79
   0   0  13    1.63    6.74
  -1   0 -13  445.68   25.73
   1  -1 -13  475.07   26.34
   0   1 -13  481.05   25.98
   1   0  13  485.28   28.92
  -1   1  13  451.11   27.08
   0  -1  13  415.49   28.01
  -1   1 -13  445.57   25.79
   1   0 -13  533.83   27.85
   0  -1 -13  477.55   27.06
   1  -1  13  506.76   33.79
   1  -1  13  495.98   29.72
   0   1  13  479.13   27.97
  -1   0  13  497.04   30.01
  -1  -1 -13    5.57    6.59
  -1   2 -13    0.94    4.75
   2  -1 -13    1.41    5.21
   1   1  13   -2.99    4.69
   1  -2  13    6.44    6.79
  -2   1  13   -2.25    4.79
  -1   3 -13  250.03   16.49
   3  -2 -13  283.75   18.83
   1  -3  13  188.22   21.16
   2   1  13  241.33   18.88
  -3   2  13  255.18   16.39
  -2   0 -13  324.81   18.76
   2  -2 -13  344.03   19.96
   0   2 -13  298.76   18.86
   0  -2  13  335.93   23.49
  -2   2  13  309.92   18.80
   2   0  13  319.10   21.80
   1  -2 -13   -1.15    4.76
  -2   1 -13    0.98    4.43
   1   1 -13    0.82    5.71
  -1   2  13    4.60    5.69
   2  -1  13    3.41    6.61
  -1  -1  13    0.77    6.12
   0  -2 -13  320.89   22.31
   2   0 -13  312.50   21.54
  -2   2 -13  348.25   20.09
  -2   0  13  336.96   21.84
   2  -2  13  382.19   33.41
   2  -2  13  287.25   23.02
   0   2  13  304.88   21.63
  -2   3 -13  259.01   17.25
  -1  -2 -13  245.93   23.13
   3  -1 -13  251.15   18.54
  -3   1  13  238.50   17.90
   1   2  13  249.19   18.90
   2  -3  13  306.51   28.23
   4  -2 -13   -4.11    5.93
  -2   4 -13    0.27    5.20
   2   2  13   12.66    7.52
   5  -3 -13   88.69   15.17
  -2   5 -13  118.96   14.43
  -3  -2 -13  106.18   17.60
   3   2  13   93.81   17.20
  -1   4 -13  158.30   15.37
   4  -3 -13  158.42   17.93
   1  -4  13  162.17   20.65
   3   1  13  162.69   20.85
   0   3 -13    2.71    4.60
   3  -3 -13    0.53    5.27
   0  -3  13   -2.68    5.31
   3   0  13   -3.75    5.18
   2  -3 -13  218.92   16.58
  -3   1 -13  268.27   16.18
   1   2 -13  262.80   16.93
   3  -1  13  236.38   22.96
  -1  -2  13  241.42   22.70
  -3   2 -13  234.65   16.74
   2   1 -13  284.65   19.37
   1  -3 -13  263.87   18.37
   3  -2  13  246.78   36.20
   3  -2  13  281.43   28.42
  -2  -1  13  270.90   24.84
  -3   3 -13    4.03    5.20
   0  -3 -13    1.11    6.55
   3   0 -13    8.49    8.00
   3  -3  13    2.31    7.19
  -3   0  13    1.14    5.84
  -3   4 -13  140.74   16.02
  -4   1  13  173.78   18.70
  -3   5 -13  119.50   15.71
   0  -4  13  130.99   16.79
   4   0  13  194.07   25.02
   3  -4 -13  155.01   17.96
  -1  -3  13  147.13   19.02
   4  -1  13  153.67   20.75
   2  -4 -13   -2.71    5.11
  -4   2 -13    4.60    5.38
   4  -2  13    5.04   13.39
   4  -2  13   -0.95    7.12
  -2  -2  13    8.21    7.05
  -4   3 -13  164.55   16.92
   1  -4 -13  154.15   16.90
   4  -3  13  113.26   20.16
   4  -3  13  108.25   27.37
  -3  -1  13  109.50   16.28
  -4   4 -13  136.38   16.61
  -4   0  13  153.79   20.32
   3  -5 -13  101.13   15.03
   5  -2  13  108.81   29.86
  -2  -3  13  117.07   18.71
   5  -2  13  146.15   22.21
   2  -5 -13  121.59   16.01
  -5   3 -13  110.15   14.43
   5  -3  13  130.50   22.15
   5  -3  13  116.93   31.17
  -3  -2  13  105.99   17.99
   0   0 -14 2619.19   87.81
   0   0  14 2480.21   90.19
   0   1 -14 1627.14   62.85
  -1   0 -14 1875.07   64.71
   1  -1 -14 1567.67   63.69
   1   0  14 1719.90   68.15
   0  -1  14 1771.98   68.71
  -1   1  14 1757.53   65.98
   0  -1 -14 1754.05   66.04
  -1   1 -14 1770.81   66.57
   1   0 -14 1912.43   66.75
   0   1  14 1736.41   67.04
   1  -1  14 1885.23   70.89
  -1   0  14 1727.43   70.72
   1  -1  14 1851.55   76.00
  -1   2 -14 1589.73   59.89
   2  -1 -14 1666.40   62.24
  -1  -1 -14 1771.98   60.94
   1   1  14 1552.74   62.28
  -2   1  14 1606.50   62.03
   1  -2  14 1725.80   66.90
  -1   3 -14 1010.03   40.90
   3  -2 -14 1001.48   42.38
   1  -3  14 1058.10   47.96
  -3   2  14  985.95   39.78
   2   1  14  959.33   44.27
   0   2 -14 1382.24   50.25
   2  -2 -14 1306.11   49.72
  -2   0 -14 1230.10   47.86
   0  -2  14 1219.88   53.64
   2   0  14 1301.99   53.33
  -2   2  14 1195.21   47.87
   1  -2 -14 1624.38   60.75
   1   1 -14 1632.28   60.15
  -2   1 -14 1679.84   60.23
  -1   2  14 1656.17   60.25
  -1  -1  14 1645.81   65.72
   2  -1  14 1601.11   66.37
   2   0 -14 1345.89   52.99
   0  -2 -14 1149.67   51.50
  -2   2 -14 1359.97   50.91
  -2   0  14 1295.75   53.37
   0   2  14 1333.52   53.61
   2  -2  14 1218.78   65.47
   2  -2  14 1403.04   57.27
   3  -1 -14  996.87   44.36
  -1  -2 -14 1129.44   54.98
  -2   3 -14 1058.02   42.41
   1   2  14 1006.43   44.35
  -3   1  14 1008.48   43.26
   2  -3  14  976.60   47.67
   4  -2 -14  787.44   38.26
  -2   4 -14  808.64   36.37
   2   2  14  838.16   40.54
   5  -3 -14  438.52   28.31
  -2   5 -14  464.82   26.24
   3   2  14  430.32   31.01
   4  -3 -14  751.33   36.68
  -1   4 -14  700.14   32.27
   1  -4  14  776.34   38.25
   3   1  14  681.92   38.27
   3  -3 -14  937.07   41.61
   0   3 -14 1002.23   38.93
   3   0  14  919.84   45.10
   0  -3  14  999.96   45.53
   2  -3 -14 1081.54   42.75
   1   2 -14  986.88   40.68
  -3   1 -14 1005.09   39.47
   3  -1  14  978.97   46.70
  -1  -2  14  989.08   45.15
   2   1 -14 1075.30   43.27
  -3   2 -14 1067.10   42.08
   1  -3 -14  994.43   43.40
   3  -2  14 1078.09   63.85
   3  -2  14  981.09   50.35
  -2  -1  14 1053.71   47.37
  -3   3 -14  915.42   39.43
   3   0 -14  949.07   42.19
   0  -3 -14  865.52   42.11
   3  -3  14  947.75   47.20
  -3   0  14  952.42   43.42
  -3   4 -14  709.81   33.47
  -4   1  14  632.72   34.30
  -3   5 -14  490.09   28.81
   4  -4 -14  621.17   33.44
   4   0  14  584.70   36.17
   0  -4  14  583.64   34.09
   3  -4 -14  659.29   34.00
   4  -1  14  708.73   39.26
  -1  -3  14  701.74   37.57
   2  -4 -14  719.86   35.03
  -4   2 -14  723.60   32.61
   4  -2  14  777.68   42.18
  -2  -2  14  757.72   39.09
   4  -2  14  750.64   56.29
   1  -4 -14  676.29   34.47
  -4   3 -14  669.86   32.49
   4  -3  14  626.56   40.65
  -3  -1  14  648.28   36.82
   4  -3  14  638.20   53.40
  -4   4 -14  502.86   29.05
  -4   0  14  534.90   33.00
   3  -5 -14  455.55   28.72
   5  -2  14  412.18   53.58
  -2  -3  14  436.84   30.29
   5  -2  14  468.58   34.12
   2  -5 -14  434.73   29.01
  -5   3 -14  471.32   26.26
   5  -3  14  353.49   50.53
  -3  -2  14  430.43   30.58
   0   0 -15    1.81    6.13
   0   0  15   -1.65    6.38
  -1   0 -15    7.71    7.79
   0   1 -15   15.08    8.57
   1  -1 -15    5.21    7.46
   0  -1  15    2.94    8.09
  -1   1  15   -1.87    6.10
   1   0  15   20.04   10.40
   1   0 -15    8.30    7.20
   0  -1 -15    6.99    7.43
  -1   1 -15    8.36    7.62
   1  -1  15    6.20    7.77
  -1   0  15    5.68    7.76
   0   1  15    1.69    5.50
   1  -1  15   18.32   10.37
  -1  -1 -15    4.55    5.84
   2  -1 -15    4.19    6.61
  -1   2 -15   -1.53    5.79
   1  -2  15    0.32    7.71
  -2   1  15    0.47    5.71
   1   1  15   -6.06    5.04
  -1   3 -15    8.01    7.09
   3  -2 -15   12.21    7.41
  -3   2  15    0.48    5.60
   2   1  15    1.41    7.15
   1  -3  15   12.23    8.05
  -2   0 -15   -0.86    5.90
   2  -2 -15    9.95    6.92
   0   2 -15    8.96    7.10
   2   0  15    8.48    6.90
   0  -2  15   11.02    8.66
  -2   2  15    8.22    5.92
  -2   1 -15   -2.26    5.75
   1   1 -15    7.04    6.24
   1  -2 -15   -1.57    6.42
  -1   2  15    1.59    4.98
   2  -1  15    7.05    7.81
  -1  -1  15    2.54    6.82
   0  -2 -15    1.51    7.45
  -2   2 -15   -2.52    5.42
   2   0 -15   -2.43    6.99
   2  -2  15    1.26   10.09
  -2   0  15    8.14    7.58
   0   2  15    2.87    6.83
   2  -2  15    8.45    7.66
  -2   3 -15    4.12    6.36
   3  -1 -15   -1.11    7.56
   1   2  15    2.84    6.23
  -3   1  15    3.36    6.44
   2  -3  15   14.59    8.81
  -2   4 -15    9.59    6.94
   4  -2 -15    2.30    7.39
   2   2  15    0.62    7.36
   4  -3 -15   -2.75    6.11
  -1   4 -15   -6.70    5.77
   1  -4  15    5.07    7.97
   3   1  15    4.75    8.58
   0   3 -15    5.31    5.79
   3  -3 -15    0.62    5.96
   0  -3  15   -0.21    7.35
   3   0  15   10.04    7.65
  -3   1 -15    0.58    5.00
   2  -3 -15    8.39    6.66
   1   2 -15    8.21    7.07
  -1  -2  15    6.84    6.93
   3  -1  15   -1.17    6.61
  -3   2 -15    1.07    6.10
   1  -3 -15   16.94    8.26
   2   1 -15    1.15    6.46
  -2  -1  15    3.78    7.55
   3  -2  15   -1.18    7.83
   3  -2  15   -0.34   11.36
   3   0 -15   -4.66    7.52
   0  -3 -15   -8.66    7.03
  -3   3 -15   -1.77    5.53
   3  -3  15   -9.10    7.44
  -3   0  15    2.63    6.57
  -3   4 -15    8.94    7.43
  -4   1  15   10.47    8.15
   4  -4 -15   -6.56    6.09
   4   0  15    6.77    8.52
   0  -4  15    3.94    8.72
   3  -4 -15   -0.02    7.57
   4  -1  15    9.72    8.81
  -1  -3  15    1.72    8.02
  -4   2 -15   -3.65    4.97
   2  -4 -15    7.75    7.53
   4  -2  15   -6.85    8.33
  -2  -2  15    4.31    8.16
   4  -2  15   -3.03   10.92
   1  -4 -15    7.14    8.92
  -4   3 -15   11.04    7.51
  -3  -1  15    5.21    8.06
   4  -3  15    6.14   13.91
   4  -3  15   -6.55    8.92
  -4   4 -15   -3.68    6.87
  -4   0  15   14.39    9.97
   0   0 -16  350.32   23.78
   0   0  16  352.68   25.62
  -1   0 -16   80.83   14.02
   0   1 -16   97.06   15.28
   1  -1 -16   73.73   14.38
  -1   1  16   64.71   13.57
   1   0  16   75.86   15.81
   0  -1  16   56.82   13.60
   1   0 -16  105.79   15.10
   0  -1 -16   81.01   13.79
  -1   1 -16   77.61   14.82
   1  -1  16   63.30   13.89
  -1   0  16   49.25   14.09
   0   1  16   64.19   13.01
   1  -1  16   77.97   17.13
  -1   2 -16  292.02   21.95
  -1  -1 -16  243.68   18.66
   2  -1 -16  242.78   25.02
   1  -2  16  251.26   25.78
   1   1  16  252.35   26.44
  -2   1  16  240.90   25.88
  -1   3 -16   45.30   11.59
   3  -2 -16   46.26   11.44
   2   1  16   38.45   11.18
   1  -3  16   38.55   12.32
   0   2 -16   79.81   14.39
  -2   0 -16   35.89   10.47
   2  -2 -16   43.28   11.31
  -2   2  16   61.05   12.25
   2   0  16   76.05   15.43
   0  -2  16   41.47   11.95
   1   1 -16  229.35   21.37
   1  -2 -16  237.82   24.08
  -2   1 -16  290.50   26.25
  -1  -1  16  246.36   27.83
   2  -1  16  190.55   25.14
  -1   2  16  272.24   19.61
   2   0 -16   59.76   12.31
   0  -2 -16   44.89   11.24
  -2   2 -16   49.61   11.64
   0   2  16   61.45   12.86
  -2   0  16   61.89   14.63
   2  -2  16   84.86   20.51
   2  -2  16   69.69   15.26
  -2   3 -16   49.81   11.11
   3  -1 -16   43.48   12.61
  -3   1  16   56.54   12.35
   1   2  16   51.13   13.41
   2  -3  16   44.93   12.64
  -2   4 -16  169.68   19.62
   4  -2 -16   97.29   15.97
   2   2  16   93.90   16.47
   4  -3 -16   25.87    9.98
  -1   4 -16   48.17   10.71
   1  -4  16   56.91   13.61
   3   1  16   26.84   12.09
   3  -3 -16  129.58   17.50
   0   3 -16  150.09   17.45
   3   0  16  188.61   23.77
   0  -3  16  141.77   20.29
   1   2 -16   39.42   10.58
   2  -3 -16   61.79   12.97
  -3   1 -16   54.33   10.65
  -1  -2  16   36.19   11.38
   3  -1  16   32.01   11.62
   2   1 -16   53.30   11.29
   1  -3 -16   57.31   13.56
  -3   2 -16   30.14    9.48
  -2  -1  16   60.80   14.47
   3  -2  16   52.99   16.09
   3  -2  16   52.58   18.61
  -3   3 -16  154.42   18.93
   3   0 -16  180.91   19.96
   0  -3 -16  137.70   20.70
   3  -3  16  175.04   23.56
  -3   0  16  237.74   26.59
  -3   4 -16   38.26   10.90
  -4   1  16   63.92   14.31
   4  -4 -16   21.39   10.41
   0  -4  16   33.96   11.85
   4   0  16   38.19   13.24
   3  -4 -16   31.70   10.17
  -1  -3  16   17.05   11.21
   4  -1  16   24.43   12.26
   2  -4 -16   70.46   14.11
  -4   2 -16  132.59   16.72
   4  -2  16  132.65   21.25
  -2  -2  16  121.58   19.35
   4  -2  16   88.59   23.87
  -4   3 -16   43.89   11.50
   1  -4 -16   40.18   13.47
   4  -3  16   47.49   15.08
   4  -3  16   30.31   19.39
  -3  -1  16   25.71   10.87
  -4   4 -16   31.77   11.08
  -4   0  16   27.04   11.57
   0   0 -17    3.47    6.91
   0   0  17    5.83    7.81
  -1   0 -17   50.46   12.01
   1  -1 -17   37.41   12.02
   0   1 -17   25.17    9.64
  -1   1  17   28.28   10.44
   0  -1  17   51.72   14.11
   1   0  17   17.21    9.28
   0  -1 -17   44.16   10.97
  -1   1 -17   42.77   12.08
   1   0 -17   25.49    9.36
  -1   0  17   53.63   15.06
   1  -1  17   36.51   12.53
   1  -1  17   25.26   10.78
   0   1  17   33.73   11.30
   2  -1 -17    3.23    8.83
  -1   2 -17   -6.47    6.84
  -1  -1 -17    5.83    6.67
  -2   1  17    1.57    7.06
   1  -2  17    8.95    8.17
   1   1  17   -5.84    7.69
  -1   3 -17   20.04    9.96
   3  -2 -17   15.20    8.84
   2   1  17   32.93   11.98
   1  -3  17   17.98    9.94
  -2   0 -17   24.89    9.71
   2  -2 -17   29.33   10.33
   0   2 -17   20.99   10.48
   0  -2  17   25.89   10.99
  -2   2  17   20.01    8.64
   2   0  17   16.20   11.49
   1   1 -17   -1.93    6.10
   1  -2 -17   -4.61    7.12
  -2   1 -17   -5.90    6.29
  -1  -1  17    2.63    8.25
   2  -1  17    9.08   10.39
  -1   2  17    8.92    6.98
   0  -2 -17   36.75   11.16
  -2   2 -17   37.04   12.49
   2   0 -17   21.33    9.79
   2  -2  17   21.04   11.51
   2  -2  17   36.04   16.15
  -2   0  17   23.80   11.34
   0   2  17   37.80   10.56
   3  -1 -17   10.86   10.09
  -2   3 -17   26.06    9.65
   2  -3  17   20.61   10.80
   1   2  17   42.38   12.25
  -3   1  17   31.70   10.92
   4  -2 -17   15.43   10.61
  -2   4 -17    1.09    8.31
   2   2  17    4.22    9.54
  -1   4 -17    9.59    8.53
   4  -3 -17   10.30    9.58
   3   1  17   16.33    9.97
   1  -4  17   37.94   13.30
   0   3 -17   -4.40    6.43
   3  -3 -17    8.30    7.72
   0  -3  17    2.52    9.08
   3   0  17    5.80    8.62
  -3   1 -17   16.34    8.48
   1   2 -17   23.92    9.41
   2  -3 -17   18.64    9.45
  -1  -2  17   19.38   10.78
   3  -1  17   16.72   11.61
   1  -3 -17   31.23   12.10
   2   1 -17   47.32   11.29
  -3   2 -17   30.59   10.53
   3  -2  17   23.16   12.02
   3  -2  17   42.15   17.23
  -2  -1  17   11.85    9.58
  -3   3 -17    6.23    7.77
   3   0 -17    6.87    8.17
  -3   0  17   -7.08    8.33
   3  -3  17   10.34   10.35
  -3   4 -17   25.87   10.75
  -4   1  17   14.96   10.03
   3  -4 -17   15.32    9.42
  -1  -3  17    7.75    9.90
   4  -1  17   25.87   12.68
   2  -4 -17    3.02    8.52
  -4   2 -17    1.57    7.16
  -2  -2  17    5.36    9.43
   4  -2  17   -2.69   10.65
   4  -2  17   -9.60   11.65
  -4   3 -17   13.82    9.64
   4  -3  17   20.37   11.38
   4  -3  17   21.97   16.64
  -3  -1  17   25.18   11.74
   0   0 -18 2983.44  103.17
   0   0  18 3177.07  108.49
  -1   0 -18   86.79   14.55
   1  -1 -18   57.96   13.66
   0   1 -18   84.32   15.22
  -1   1  18   70.66   14.64
   1   0  18  100.85   18.18
   0  -1  18   43.81   14.12
   1   0 -18   95.20   14.84
  -1   1 -18   91.40   17.32
   0  -1 -18   81.28   14.17
   1  -1  18   83.98   16.93
   1  -1  18  106.24   20.13
  -1   0  18  101.38   18.67
   0   1  18   69.82   14.06
   2  -1 -18 1993.56   79.98
  -1   2 -18 2045.61   79.60
  -1  -1 -18 2215.89   74.62
   1   1  18 2046.64   83.48
   1  -2  18 2219.33   82.13
  -2   1  18 1970.58   81.38
   3  -2 -18   37.16   12.66
  -1   3 -18   53.79   13.85
   2   1  18   54.30   14.43
   1  -3  18   52.13   14.42
   2  -2 -18   60.60   14.35
   0   2 -18   41.97   12.89
  -2   0 -18   52.94   12.63
  -2   2  18   37.94   10.92
   0  -2  18   37.60   13.61
   2   0  18   55.57   16.51
  -2   1 -18 1936.38   78.97
   1   1 -18 2270.56   76.20
   1  -2 -18 2035.80   81.01
  -1  -1  18 2043.12   86.18
  -1   2  18 2218.92   75.80
   2  -1  18 2024.83   83.99
  -2   2 -18   65.05   15.38
   2   0 -18   75.82   13.84
   0  -2 -18   57.05   13.07
  -2   0  18   64.52   16.74
   2  -2  18   68.47   16.79
   2  -2  18   94.87   22.29
   0   2  18   47.74   11.65
  -2   3 -18   39.05   13.21
   3  -1 -18   30.04   11.96
  -3   1  18   49.17   14.21
   1   2  18   58.46   16.37
   2  -3  18   50.38   13.97
  -2   4 -18 1264.04   55.04
   2   2  18 1238.90   58.56
  -1   4 -18   33.40   10.96
   4  -3 -18   27.27   12.42
   1  -4  18   35.55   13.83
   3   1  18   39.82   14.57
   3  -3 -18 1361.73   58.40
   0   3 -18 1294.71   55.52
   0  -3  18 1328.94   62.88
   3   0  18 1394.54   63.35
  -3   1 -18   51.46   12.52
   2  -3 -18   41.52   12.52
   1   2 -18   56.38   13.07
  -1  -2  18   63.35   15.79
   3  -1  18   19.12   11.88
  -3   2 -18   70.85   15.58
   2   1 -18   55.77   12.06
   1  -3 -18   23.14   12.33
   3  -2  18   37.59   16.84
   3  -2  18   62.49   16.62
  -2  -1  18   28.35   13.71
  -3   3 -18 1572.44   64.81
   3   0 -18 1477.22   61.90
  -3   0  18 1589.57   70.67
   3  -3  18 1598.93   68.95
  -3   4 -18   35.23   12.07
  -4   1  18   25.05   11.42
   3  -4 -18   31.07   12.00
  -1  -3  18   35.50   14.18
   4  -1  18   19.77   13.06
   2  -4 -18 1175.15   54.52
  -4   2 -18 1110.40   49.76
   4  -2  18 1263.77   71.81
   4  -2  18 1232.86   64.02
  -2  -2  18 1198.27   60.18
  -4   3 -18   30.16   12.29
   4  -3  18   20.17   12.99
   4  -3  18   42.67   21.23
  -3  -1  18   25.09   13.72
   0   0 -19    5.81    7.08
   0   0  19    5.30    8.32
  -1   0 -19  193.01   22.01
   1  -1 -19  209.80   23.62
   0   1 -19  211.55   22.67
   0  -1  19  203.05   25.53
  -1   1  19  270.55   26.74
   1   0  19  187.77   23.12
  -1   1 -19  270.41   27.59
   0  -1 -19  227.42   23.07
   1   0 -19  191.50   21.45
   0   1  19  197.62   22.58
   1  -1  19  223.12   27.34
   1  -1  19  269.61   28.86
  -1   0  19  290.96   31.98
  -1  -1 -19   -0.41    5.42
   2  -1 -19    2.36    9.77
  -1   2 -19  -11.55    7.52
   1   1  19    0.27    8.54
  -2   1  19   -5.48    8.06
   1  -2  19   -4.32    6.81
   3  -2 -19  119.42   20.37
  -1   3 -19  127.02   20.35
   2   1  19  135.35   22.01
   1  -3  19  183.74   25.30
   0   2 -19  176.81   22.83
  -2   0 -19  178.23   21.17
   2  -2 -19  117.93   20.24
   0  -2  19  177.05   24.95
   2   0  19  180.96   27.08
   1   1 -19    0.11    6.86
   1  -2 -19   -7.88    8.67
  -2   1 -19   -4.37    9.97
   2  -1  19   25.03   11.40
  -1  -1  19    4.44    9.37
  -1   2  19    2.92    6.27
   2   0 -19  153.01   19.37
   0  -2 -19  163.12   19.55
  -2   2 -19  188.69   25.85
   2  -2  19  206.49   31.56
   0   2  19  192.58   22.61
  -2   0  19  148.90   23.38
   2  -2  19  223.95   26.74
  -2   3 -19  134.48   20.72
   3  -1 -19  115.37   20.19
   2  -3  19  129.72   20.10
  -3   1  19  138.30   22.41
   1   2  19  149.94   23.95
   4  -2 -19    0.31   10.08
  -2   4 -19   -6.29    8.50
   2   2  19    2.35    9.81
   3  -3 -19   -4.42    8.10
   0   3 -19   -1.70    7.72
   0  -3  19    4.85   10.60
   3   0  19    1.42    8.85
   2  -3 -19  115.58   19.47
   1   2 -19  143.26   20.10
  -3   1 -19  141.24   19.37
   3  -1  19  137.14   25.40
  -1  -2  19  123.22   22.55
  -3   2 -19  147.55   21.41
   2   1 -19  122.61   16.66
   1  -3 -19  104.82   19.79
   3  -2  19  145.76   27.60
  -2  -1  19  149.65   24.67
   3  -2  19  130.22   22.83
  -3   3 -19   -5.78    9.35
   3   0 -19    2.65   12.62
  -3   0  19    1.19   10.91
   3  -3  19   -1.27    7.69
   2  -4 -19   17.06   11.19
  -4   2 -19   -0.51    8.20
   4  -2  19   -1.51   11.13
  -2  -2  19   -6.96    9.02
   4  -2  19   -3.42   12.76
   0   0 -20  103.87   15.87
   0   0  20   77.12   15.47
   1  -1 -20  378.45   27.18
   0   1 -20  327.74   25.01
  -1   0 -20  382.38   26.26
  -1   1  20  346.35   26.06
   1   0  20  349.55   34.28
   0  -1  20  364.84   29.44
   1   0 -20  382.45   26.06
   0  -1 -20  335.58   24.66
  -1   1 -20  443.31   30.32
  -1   0  20  329.84   32.98
   0   1  20  333.82   26.36
   1  -1  20  346.03   29.28
   1  -1  20  308.83   30.46
  -1   2 -20   52.52   15.57
  -1  -1 -20   55.69   12.35
   2  -1 -20   48.30   13.43
   1  -2  20   56.27   14.53
   1   1  20   53.67   15.54
  -2   1  20   61.86   15.55
   3  -2 -20  174.74   23.93
  -1   3 -20  191.74   24.48
   2   1  20  191.03   27.54
   1  -3  20  222.33   26.85
   2  -2 -20  191.42   26.02
   0   2 -20  210.80   24.70
  -2   0 -20  290.70   26.41
   2   0  20  235.43   30.94
   0  -2  20  237.65   28.52
  -2   1 -20   58.85   15.89
   1   1 -20   95.03   15.44
   1  -2 -20   57.68   14.67
  -1  -1  20   93.32   20.26
   2  -1  20   58.75   15.25
  -1   2  20   77.58   13.94
   2   0 -20  245.64   24.22
   0  -2 -20  242.58   24.67
  -2   2 -20  273.76   31.43
   2  -2  20  300.58   30.37
   2  -2  20  328.20   32.22
  -2   0  20  171.49   25.98
   0   2  20  237.66   25.63
   3  -1 -20  151.66   21.65
  -2   3 -20  203.76   26.67
   1   2  20  196.63   26.70
   2  -3  20  198.16   23.94
  -3   1  20  159.94   23.92
   0   3 -20   68.83   16.17
   3  -3 -20   32.02   12.40
   0  -3  20   73.71   18.59
   3   0  20   46.63   15.70
   1   2 -20  211.71   23.38
  -3   1 -20  177.16   23.35
   2  -3 -20  165.45   23.11
   3  -1  20  187.29   29.09
  -1  -2  20  232.29   31.03
   2   1 -20  206.17   21.00
  -3   2 -20  245.45   29.11
   1  -3 -20  200.37   25.43
   3  -2  20  204.65   26.48
  -2  -1  20  237.02   33.60
   3  -2  20  234.78   35.04
  -3   3 -20   54.61   16.27
  -3   0  20   59.90   18.48
   3  -3  20   72.13   17.09
   0   0 -21    8.79    8.03
   0   0  21    3.09    7.65
  -1   0 -21 1008.25   46.19
   1  -1 -21  922.21   46.50
   0   1 -21 1017.75   46.65
   0  -1  21  965.52   50.75
   1   0  21  948.51   51.19
  -1   1  21  966.74   46.85
   0  -1 -21  989.76   45.66
   1   0 -21  974.65   45.49
  -1   1 -21 1054.58   49.54
  -1   0  21  994.23   52.12
   1  -1  21  945.04   49.19
   0   1  21  932.94   47.09
   2  -1 -21    0.62   10.10
  -1  -1 -21   -5.58    5.78
  -1   2 -21    1.72    9.43
   1   1  21    1.73    9.25
  -2   1  21    4.30   10.00
   1  -2  21    6.63    9.34
  -1   3 -21  488.99   35.63
   3  -2 -21  551.31   39.11
   1  -3  21  628.88   40.22
   2   1  21  624.00   43.69
   0   2 -21  791.94   41.88
  -2   0 -21  708.59   38.87
   2  -2 -21  590.10   41.83
   0  -2  21  839.22   47.44
   2   0  21  801.15   48.44
   1  -2 -21   -0.38    9.13
  -2   1 -21   -8.99    9.07
   1   1 -21   11.11    9.15
  -1   2  21   -9.10    5.81
   2  -1  21   -3.46    9.36
  -1  -1  21   10.64   11.88
   2  -1  21  -10.36    8.90
   2   0 -21  732.18   38.60
   0  -2 -21  829.76   40.88
  -2   2 -21  736.95   45.30
   0   2  21  658.69   39.36
  -2   0  21  783.35   48.92
   2  -2  21  780.61   49.78
   2  -2  21  755.36   43.39
  -2   3 -21  603.51   40.77
   3  -1 -21  687.47   40.31
   1   2  21  572.65   39.68
  -3   1  21  478.38   38.01
   2  -3  21  607.76   37.34
   0   3 -21   23.35   12.82
   3  -3 -21   -0.44   10.17
   0  -3  21   -0.85   11.09
   3   0  21   10.77   11.80
   1   2 -21  565.09   34.21
  -3   1 -21  524.66   34.63
   2  -3 -21  484.45   36.92
  -1  -2  21  542.53   41.23
   1  -3 -21  645.64   40.03
   2   1 -21  630.09   34.12
  -3   2 -21  583.36   39.79
   3  -2  21  645.97   42.71
  -2  -1  21  649.58   47.40
   3  -2  21  624.21   47.55
  -3   3 -21   -3.33   12.29
  -3   0  21    3.96   12.19
   3  -3  21    0.85    9.54
   0   0 -22   34.47   11.14
   0   0  22   29.28   12.03
   1  -1 -22   71.65   14.86
   0   1 -22   80.22   15.87
  -1   0 -22   87.75   16.17
   1   0  22   85.49   17.88
   0  -1  22  104.23   19.65
  -1   1  22   61.10   13.36
   0  -1 -22   81.60   14.92
   1   0 -22  100.94   16.65
  -1   1 -22  118.89   19.71
   1  -1  22   94.77   18.74
  -1   0  22  113.07   21.03
   0   1  22  103.65   17.58
   2  -1 -22   37.68   13.12
  -1   2 -22   28.55   13.24
  -1  -1 -22   23.01    9.96
   1   1  22   33.74   12.28
  -2   1  22   19.44   12.56
   1  -2  22   24.80   12.22
   3  -2 -22   41.95   16.05
  -1   3 -22   33.02   14.43
   1  -3  22   65.08   16.14
   2   1  22   61.69   19.38
  -2   0 -22   41.74   13.74
   0   2 -22   73.11   15.71
   2  -2 -22   44.83   14.95
   2   0  22   41.26   14.75
   0  -2  22   71.14   17.19
  -2   1 -22   28.07   13.72
   1   1 -22   33.94   11.62
   1  -2 -22   12.37   10.83
   2  -1  22   12.09   12.21
  -1  -1  22   15.38   12.72
   2  -1  22   38.97   15.46
  -2   2 -22   44.27   16.38
   2   0 -22   68.26   14.30
   0  -2 -22   95.70   16.84
  -2   0  22   66.36   19.06
   2  -2  22   76.77   17.54
   0   2  22   75.62   15.71
  -2   3 -22   74.05   19.58
   3  -1 -22   70.32   16.35
   2  -3  22   49.80   15.07
   1   2  22   44.64   14.69
  -3   1  22   43.53   16.67
   2  -3 -22   60.05   17.24
   1   2 -22   56.94   14.21
  -3   1 -22   34.69   14.81
  -1  -2  22   66.52   19.97
   3  -1  22   82.86   21.35
   1  -3 -22   59.31   17.12
  -3   2 -22   45.77   17.28
   2   1 -22   64.17   14.22
   3  -2  22   64.22   19.15
  -2  -1  22   44.82   18.55
   3  -2  22   62.89   18.40
   0   0 -23   11.21    8.14
   0   0  23    5.53    8.01
   0   1 -23   -7.67    8.62
  -1   0 -23   -5.71    8.61
   1  -1 -23   11.09   10.53
  -1   1  23   -6.49    6.89
   1   0  23   -2.24    9.13
   0  -1  23   -3.50    9.35
   1   0 -23    9.78    9.88
   0  -1 -23   -1.77    7.56
  -1   1 -23   10.06   10.11
  -1   0  23    4.35   10.65
   1  -1  23    2.50   10.27
   0   1  23    5.74    8.49
  -1   2 -23   -3.73   11.67
   2  -1 -23    7.05    9.92
  -1  -1 -23    2.23    8.08
   1   1  23    3.23    9.97
  -2   1  23  -16.18    8.51
   1  -2  23    6.96    9.76
  -2   0 -23   -2.89    9.63
   2  -2 -23   -5.51    8.90
   0   2 -23    2.70   10.07
   0  -2  23   -4.06   11.13
   2   0  23   16.79   13.38
   1  -2 -23    9.37    9.78
  -2   1 -23   10.90   10.24
   1   1 -23   -3.30    7.97
   2  -1  23   -4.18    8.85
  -1  -1  23    1.33   11.95
   2  -1  23    2.75   10.39
   2   0 -23   -0.59    8.63
  -2   2 -23    2.64   11.64
   0  -2 -23    6.97    9.21
   0   2  23   18.91   13.84
   2  -2  23   -2.64    9.26
  -2   0  23  -10.51   11.19
   0   0 -24   50.25   13.23
   0   0  24   45.08   14.68
   1  -1 -24   43.46   13.31
  -1   0 -24   74.48   15.44
   0   1 -24   56.57   14.76
   0  -1  24   49.62   15.59
   1   0  24   56.71   15.91
  -1   1  24   37.10   12.81
  -1   1 -24   56.60   15.41
   1   0 -24   39.86   11.38
   0  -1 -24   57.39   13.19
   1  -1  24   42.72   13.68
  -1   0  24   54.57   16.09
   0   1  24   50.13   14.50
   2  -1 -24   54.49   15.92
  -1  -1 -24   55.58   13.30
  -1   2 -24   60.58   15.96
   1  -2  24   65.23   16.24
   1   1  24   53.08   15.61
  -2   1  24   49.78   15.77
   1  -2 -24   54.84   14.62
  -2   1 -24   66.54   17.21
   1   1 -24   60.02   14.22
   2  -1  24   34.79   14.02
  -1  -1  24   78.99   20.14
   0   0 -25   -4.14    7.56
   0   0  25    0.24    9.07
   0   1 -25  684.09   37.90
  -1   0 -25  662.01   37.00
   1  -1 -25  619.73   37.48
   1   0  25  682.52   42.53
   0  -1  25  594.20   40.36
   1   0 -25  640.49   35.90
   0  -1 -25  623.93   35.89
  -1   1 -25  645.25   39.02
  -1   0  25  661.42   41.30
   0   1  25  660.15   38.75
   0   0   0    0.00    0.00


 _exptl_absorpt_process_details
)
 SADABS 2016/2: Krause, L., Herbst-Irmer, R., Sheldrick G.M. & Stalke D.,
 J. Appl. Cryst. 48 (2015) 3-10
)
 _exptl_absorpt_correction_type   multi-scan
 _exptl_absorpt_correction_T_max  0.2656
 _exptl_absorpt_correction_T_min  0.1273
 _exptl_special_details
)
 The following wavelength and cell were deduced by SADABS from the
 direction cosines etc. They are given here for emergency use only:
 CELL 0.71073    4.224    4.223   18.118   89.997   90.006  119.982
)

_computing_structure_solution     'SHELXT 2018/2 (Sheldrick, 2018)'
;
_shelx_hkl_checksum              59675
_olex2_submission_special_instructions 'No special instructions were received'
loop_
_space_group_symop_operation_xyz
'x, y, z'
'-y, x-y, z'
'-x+y, -x, z'
'-x, -y, z+1/2'
'y, -x+y, z+1/2'
'x-y, x, z+1/2'
'y, x, -z'
'x-y, -y, -z'
'-x, -x+y, -z'
'-y, -x, -z+1/2'
'-x+y, y, -z+1/2'
'x, x-y, -z+1/2'
'-x, -y, -z'
'y, -x+y, -z'
'x-y, x, -z'
'x, y, -z-1/2'
'-y, x-y, -z-1/2'
'-x+y, -x, -z-1/2'
'-y, -x, z'
'-x+y, y, z'
'x, x-y, z'
'y, x, z-1/2'
'x-y, -y, z-1/2'
'-x, -x+y, z-1/2'
loop_
_atom_site_label
_atom_site_type_symbol
_atom_site_fract_x
_atom_site_fract_y
_atom_site_fract_z
_atom_site_U_iso_or_equiv
_atom_site_adp_type
_atom_site_occupancy
_atom_site_site_symmetry_order
_atom_site_calc_flag
_atom_site_refinement_flags_posn
_atom_site_refinement_flags_adp
_atom_site_refinement_flags_occupancy
_atom_site_disorder_assembly
_atom_site_disorder_group
In In 0.333333 0.666667 0.17360(3) 0.0108(2) Uani 1 6 d S T P . .
Sr Sr 0.000000 0.000000 0.000000 0.0104(3) Uani 1 12 d S T P . .
As As 0.333333 0.666667 0.60916(4) 0.0093(2) Uani 1 6 d S T P . .
loop_
_atom_site_aniso_label
_atom_site_aniso_U_11
_atom_site_aniso_U_22
_atom_site_aniso_U_33
_atom_site_aniso_U_23
_atom_site_aniso_U_13
_atom_site_aniso_U_12
In 0.0113(2) 0.0113(2) 0.0098(3) 0.000 0.000 0.00565(12)
Sr 0.0100(3) 0.0100(3) 0.0113(5) 0.000 0.000 0.00499(17)
As 0.0090(3) 0.0090(3) 0.0099(4) 0.000 0.000 0.00450(15)
loop_
_atom_type_symbol
_atom_type_description
_atom_type_scat_dispersion_real
_atom_type_scat_dispersion_imag
_atom_type_scat_source
As As 0.0499 2.0058 'International Tables Vol C Tables 4.2.6.8 and 6.1.1.4'
In In -0.7276 1.3100 'International Tables Vol C Tables 4.2.6.8 and 6.1.1.4'
Sr Sr -1.5307 3.2498 'International Tables Vol C Tables 4.2.6.8 and 6.1.1.4'
loop_
_exptl_crystal_face_index_h
_exptl_crystal_face_index_k
_exptl_crystal_face_index_l
_exptl_crystal_face_perp_dist
2.00 1.00 4.00 0.0300
4.00 -3.00 0.00 0.0320
0.00 -3.00 -5.00 0.0400
-3.00 1.00 -2.00 0.0380
-3.00 4.00 3.00 0.0250
-1.00 1.00 -9.00 0.0110
1.00 -1.00 9.00 0.0100
-1.00 -3.00 4.00 0.0360
2.00 -3.00 4.00 0.0300
loop_
_geom_angle_atom_site_label_1
_geom_angle_atom_site_label_2
_geom_angle_atom_site_label_3
_geom_angle
_geom_angle_site_symmetry_1
_geom_angle_site_symmetry_3
_geom_angle_publ_flag
In In Sr 142.211(8) 16_556 1_565 ?
In In Sr 142.211(7) 16_556 . ?
In In Sr 142.211(7) 16_556 1_665 ?
Sr In Sr 64.100(12) 1_565 1_665 ?
Sr In Sr 64.100(12) 1_565 . ?
Sr In Sr 64.100(12) . 1_665 ?
As In In 115.586(19) 4_564 16_556 ?
As In In 115.586(19) 4_674 16_556 ?
As In In 115.586(19) 4_664 16_556 ?
As In Sr 102.20(2) 4_564 1_665 ?
As In Sr 51.857(14) 4_564 1_565 ?
As In Sr 102.20(2) 4_674 . ?
As In Sr 51.857(14) 4_664 . ?
As In Sr 102.20(2) 4_664 1_565 ?
As In Sr 51.857(14) 4_564 . ?
As In Sr 51.857(14) 4_674 1_665 ?
As In Sr 51.857(14) 4_674 1_565 ?
As In Sr 51.857(14) 4_664 1_665 ?
As In As 102.72(2) 4_674 4_664 ?
As In As 102.72(2) 4_564 4_674 ?
As In As 102.72(2) 4_564 4_664 ?
In Sr In 64.100(12) 13_565 13 ?
In Sr In 115.900(12) 13_665 . ?
In Sr In 64.100(12) 1_545 1_445 ?
In Sr In 115.900(12) 1_545 13 ?
In Sr In 64.100(11) 13 13_665 ?
In Sr In 115.900(12) 13 1_445 ?
In Sr In 64.100(12) 13_565 13_665 ?
In Sr In 64.100(12) 1_545 . ?
In Sr In 115.900(12) 13_565 1_445 ?
In Sr In 180.0 1_445 13_665 ?
In Sr In 115.900(12) 13_565 . ?
In Sr In 180.0 13_565 1_545 ?
In Sr In 115.900(12) 1_545 13_665 ?
In Sr In 180.0 13 . ?
In Sr In 64.100(12) 1_445 . ?
As Sr In 137.367(8) 4_664 13 ?
As Sr In 88.751(16) 4_664 1_445 ?
As Sr In 137.368(8) 16_446 . ?
As Sr In 42.632(8) 16_546 13 ?
As Sr In 137.368(8) 16_556 1_545 ?
As Sr In 91.250(16) 16_546 1_545 ?
As Sr In 91.249(16) 16_446 1_445 ?
As Sr In 42.632(8) 16_446 13_565 ?
As Sr In 42.632(8) 16_556 13_565 ?
As Sr In 42.633(8) 4_554 1_445 ?
As Sr In 137.368(8) 16_546 1_445 ?
As Sr In 137.368(8) 16_546 . ?
As Sr In 42.632(8) 4_564 1_445 ?
As Sr In 42.632(8) 16_546 13_665 ?
As Sr In 91.249(16) 4_664 13_665 ?
As Sr In 88.751(16) 16_556 13 ?
As Sr In 88.750(16) 16_546 13_565 ?
As Sr In 137.367(8) 16_556 1_445 ?
As Sr In 42.632(8) 4_554 1_545 ?
As Sr In 137.368(8) 16_446 1_545 ?
As Sr In 42.632(8) 4_564 . ?
As Sr In 137.368(8) 4_554 13_565 ?
As Sr In 42.632(8) 4_664 . ?
As Sr In 91.249(16) 4_554 13 ?
As Sr In 88.750(17) 4_554 . ?
As Sr In 88.750(16) 4_564 1_545 ?
As Sr In 91.250(16) 4_564 13_565 ?
As Sr In 91.250(17) 16_556 . ?
As Sr In 88.751(16) 16_446 13_665 ?
As Sr In 137.368(8) 4_664 13_565 ?
As Sr In 42.633(8) 16_446 13 ?
As Sr In 137.368(8) 4_564 13 ?
As Sr In 137.367(8) 4_554 13_665 ?
As Sr In 42.633(8) 16_556 13_665 ?
As Sr In 42.632(8) 4_664 1_545 ?
As Sr In 137.368(8) 4_564 13_665 ?
As Sr As 84.546(18) 4_564 4_664 ?
As Sr As 84.546(18) 16_446 16_556 ?
As Sr As 95.454(18) 16_546 4_554 ?
As Sr As 84.546(18) 4_664 4_554 ?
As Sr As 95.454(18) 4_664 16_556 ?
As Sr As 95.454(18) 16_546 4_664 ?
As Sr As 180.00(2) 16_446 4_664 ?
As Sr As 95.454(18) 16_446 4_554 ?
As Sr As 180.00(2) 16_556 4_554 ?
As Sr As 180.00(2) 16_546 4_564 ?
As Sr As 84.546(18) 16_546 16_556 ?
As Sr As 84.546(18) 16_546 16_446 ?
As Sr As 84.546(18) 4_564 4_554 ?
As Sr As 95.454(18) 4_564 16_556 ?
As Sr As 95.454(18) 4_564 16_446 ?
In As In 102.73(2) 4_675 4_565 ?
In As In 102.72(2) 4_675 4_665 ?
In As In 102.72(2) 4_565 4_665 ?
In As Sr 166.55(3) 4_565 4_665 ?
In As Sr 85.510(11) 4_675 4_565 ?
In As Sr 85.510(11) 4_665 4_665 ?
In As Sr 166.54(3) 4_665 4_565 ?
In As Sr 85.510(11) 4_665 4 ?
In As Sr 85.510(11) 4_675 4_665 ?
In As Sr 85.510(11) 4_565 4 ?
In As Sr 85.510(11) 4_565 4_565 ?
In As Sr 166.55(3) 4_675 4 ?
Sr As Sr 84.544(19) 4 4_665 ?
Sr As Sr 84.544(18) 4_565 4 ?
Sr As Sr 84.544(19) 4_565 4_665 ?
loop_
_geom_bond_atom_site_label_1
_geom_bond_atom_site_label_2
_geom_bond_distance
_geom_bond_site_symmetry_2
_geom_bond_publ_flag
In In 2.7671(12) 16_556 ?
In Sr 3.9783(6) 1_565 ?
In Sr 3.9783(6) 1_665 ?
In Sr 3.9783(6) . ?
In As 2.7027(5) 4_674 ?
In As 2.7027(5) 4_564 ?
In As 2.7027(5) 4_664 ?
Sr As 3.1384(6) 4_664 ?
Sr As 3.1384(6) 4_564 ?
Sr As 3.1384(6) 16_446 ?
Sr As 3.1384(6) 16_546 ?
Sr As 3.1384(6) 4_554 ?
Sr As 3.1384(6) 16_556 ?
