#------------------------------------------------------------------------------
#$Date: 2021-06-05 21:34:57 +0300 (Sat, 05 Jun 2021) $
#$Revision: 266017 $
#$URL: file:///home/coder/svn-repositories/cod/cif/7/70/70/7707066.cif $
#------------------------------------------------------------------------------
#
# This file is available in the Crystallography Open Database (COD),
# http://www.crystallography.net/
#
# All data on this site have been placed in the public domain by the
# contributors.
#
data_7707066
loop_
_publ_author_name
'Bazaga-Garc\'ia, Montse'
'V\'ilchez-C\'ozar, \'Alvaro'
'Maranescu, Bianca'
'Olivera-Pastor, Pascual'
'Marganovici, Marko'
'Ilia, Gheorghe'
'Cabeza D\'iaz, Aurelio'
'Visa, Aurelia'
'Colodrero, Rosario M. P.'
_publ_section_title
;
 Synthesis and electrochemical properties of
 metal(ii)-carboxyethylphenylphosphinates.
;
_journal_issue                   19
_journal_name_full
'Dalton transactions (Cambridge, England : 2003)'
_journal_page_first              6539
_journal_page_last               6548
_journal_paper_doi               10.1039/d1dt00104c
_journal_volume                  50
_journal_year                    2021
_chemical_formula_moiety         '2(C9 O4 P), Ca'
_chemical_formula_sum            'C18 Ca O8 P2'
_chemical_formula_weight         446.22
_space_group_crystal_system      monoclinic
_space_group_IT_number           7
_space_group_name_Hall           'P -2yac'
_space_group_name_H-M_alt        'P 1 n 1'
_audit_creation_date             2020-03-23T17:31
_audit_creation_method           'from EXP file using GSAS2CIF'
_audit_update_record
;
2020-11-19 deposited with the CCDC.	2021-04-01 downloaded from the CCDC.
;
_cell_angle_alpha                90.0
_cell_angle_beta                 113.4324(23)
_cell_angle_gamma                90.0
_cell_formula_units_Z            2
_cell_length_a                   14.4949(7)
_cell_length_b                   5.76901(27)
_cell_length_c                   12.9059(5)
_cell_measurement_temperature    298
_cell_volume                     990.20(8)
_computing_structure_refinement  GSAS
_diffrn_ambient_temperature      298
_diffrn_measurement_device_type  'D8 ADVANCE (Bruker AXS) diffractometer'
_diffrn_radiation_probe          x-ray
_diffrn_radiation_type           'Mo K\a~1~'
_diffrn_radiation_wavelength     0.7093
_diffrn_source                   'sealed x-ray tube'
_diffrn_source_type              'D8 ADVANCE (Bruker AXS) diffractometer'
_exptl_absorpt_correction_T_max  1.00000
_exptl_absorpt_correction_T_min  1.00000
_exptl_absorpt_process_details
;   GSAS Absorption/surface roughness correction: function number 0
 No correction is applied.
;
_exptl_crystal_density_diffrn    1.497
_exptl_crystal_description       polycrystalline
_pd_block_id                     2020-03-23T17:31|CaCEPPA|CaCEPPA|D8_Advance
_pd_calc_method                  'Rietveld Refinement'
_pd_char_colour                  white
_pd_instr_location               ' ?'
_pd_meas_2theta_range_inc        0.01
_pd_meas_2theta_range_max        50.0
_pd_meas_2theta_range_min        3.0
_pd_meas_number_of_points        4701
_pd_phase_name
'from C:/GSAS/MyWork/CaCEPPA_ILIA/CaCEPPA_LB/C18H20O8P2Ca_best1.cif'
_pd_proc_2theta_range_inc        0.01
_pd_proc_2theta_range_max        50.00226
_pd_proc_2theta_range_min        3.00226
_pd_proc_info_datetime           2020-03-23T17:31:22
_pd_proc_info_excluded_regions   ' ?'
_pd_proc_ls_background_function
;   GSAS Background function number 1 with 36 terms.
 Shifted Chebyshev function of 1st kind
      1:    32310.7     2:   -27377.5     3:    15662.6     4:   -8801.99    
      5:    3014.28     6:    374.821     7:   -1434.26     8:    2880.47    
      9:   -3383.79    10:    2306.89    11:   -1219.18    12:    548.902    
     13:    943.813    14:   -1515.65    15:    1253.30    16:   -263.257    
     17:   -457.581    18:    794.515    19:    98.6653    20:   -971.156    
     21:    713.685    22:   -541.675    23:    72.8548    24:   -120.618    
     25:    260.650    26:   -487.586    27:    559.983    28:   -551.099    
     29:   -313.852    30:    822.731    31:   -599.576    32:   -356.942    
     33:    401.067    34:   -382.759    35:    84.6699    36:   -83.1854    
;
_pd_proc_ls_peak_cutoff          0.00300
_pd_proc_ls_pref_orient_corr
;   March-Dollase
 AXIS  1 Ratio=   1.20033  h= 1.000  k= 0.000  l= 0.000
 Prefered orientation correction range: Min=   0.57823, Max=   1.31507
;
_pd_proc_ls_profile_function
;
 CW Profile function number 4 with  21 terms
 Pseudovoigt profile coefficients as parameterized in
 P. Thompson, D.E. Cox & J.B. Hastings (1987). J. Appl. Cryst.,20,79-83.
 Asymmetry correction of L.W. Finger, D.E. Cox & A. P. Jephcoat (1994).
 J. Appl. Cryst.,27,892-900.
 Microstrain broadening by P.W. Stephens,  (1999). J. Appl. Cryst.,32,281-289.
 #1(GU)   =    0.000 #2(GV)   =    0.000 #3(GW)   =    3.621
 #4(GP)   =    0.000 #5(LX)   =    2.167 #6(ptec) =     0.00
 #7(trns) =     0.00 #8(shft) =   0.0000 #9(sfec) =     0.00
 #10(S/L) =   0.0047 #11(H/L) =   0.0070 #12(eta) =   0.3572
 #13(S400 ) =  5.2E-03 #14(S040 ) =  2.0E-01 #15(S004 ) =  3.7E-02
 #16(S220 ) =  1.1E-01 #17(S202 ) = -9.5E-03 #18(S022 ) =  4.6E-02
 #19(S301 ) = -8.8E-04 #20(S103 ) =  0.0E+00 #21(S121 ) =  1.0E-01
 Peak tails are ignored  where the intensity is below 0.0030 times the peak
   Aniso. broadening axis   0.0   0.0   1.0
;
_pd_proc_ls_prof_R_factor        0.0780
_pd_proc_ls_prof_wR_expected     0.0312
_pd_proc_ls_prof_wR_factor       0.1042
_pd_proc_number_of_points        4701
_pd_spec_mounting                ' ?'
_refine_ls_goodness_of_fit_all   3.45
_refine_ls_matrix_type           full
_refine_ls_number_parameters     138
_refine_ls_number_restraints     71
_refine_ls_R_Fsqd_factor         0.08885
_refine_ls_shift/su_max          0.04
_refine_ls_shift/su_mean         0.01
_reflns_d_resolution_high        0.839
_reflns_d_resolution_low         7.488
_reflns_limit_h_max              17
_reflns_limit_h_min              0
_reflns_limit_k_max              6
_reflns_limit_k_min              0
_reflns_limit_l_max              14
_reflns_limit_l_min              -15
_reflns_number_total             1751
_cod_data_source_file            d1dt00104c2.cif
_cod_data_source_block           CaCEPPA_publ
_cod_depositor_comments
;
The following automatic conversions were performed:

data item '_geom_angle_publ_flag' value 'N' was changed to 'n' in
accordance with the
/home/data/users/saulius/crontab/automatic-downloads/rss-feeds/RSC/lib/dictionaries/cif_core.dic
dictionary named 'cif_core.dic' version 2.4.2 last updated on
2011-04-26 (59 times).

data item '_geom_bond_publ_flag' value 'N' was changed to 'n' in
accordance with the
/home/data/users/saulius/crontab/automatic-downloads/rss-feeds/RSC/lib/dictionaries/cif_core.dic
dictionary named 'cif_core.dic' version 2.4.2 last updated on
2011-04-26 (72 times).

Automatic conversion script
Id: cif_fix_values 7556 2019-12-06 15:28:31Z antanas 

 Adding full bibliography for 7707064--7707066.cif.
;
_cod_original_cell_volume        990.20(9)
_cod_original_sg_symbol_H-M      'P n'
_cod_database_code               7707066
loop_
_symmetry_equiv_pos_site_id
_symmetry_equiv_pos_as_xyz
1 +x,+y,+z
2 +x+1/2,-y,+z+1/2
loop_
_atom_site_type_symbol
_atom_site_label
_atom_site_fract_x
_atom_site_fract_y
_atom_site_fract_z
_atom_site_occupancy
_atom_site_thermal_displace_type
_atom_site_U_iso_or_equiv
_atom_site_symmetry_multiplicity
Ca Ca1 0.8338(11) 0.3656(11) 0.12794 1.0 Uiso 0.0127(12) 2
P P1 0.8352(8) 0.8749(18) -0.0557(7) 1.0 Uiso 0.0127(12) 2
P P2 0.8365(7) 0.8608(18) 0.3076(7) 1.0 Uiso 0.0127(12) 2
C C1 0.8956(15) 0.8925(26) -0.1552(14) 1.0 Uiso 0.0100(17) 2
C C2 0.9255(17) 1.1092(24) -0.1816(16) 1.0 Uiso 0.0100(17) 2
C C3 0.9499(17) 1.1201(31) -0.2766(16) 1.0 Uiso 0.0100(17) 2
C C4 0.9912(18) 0.921(4) -0.3042(18) 1.0 Uiso 0.0100(17) 2
C C5 0.9645(18) 0.7046(32) -0.2750(16) 1.0 Uiso 0.0100(17) 2
C C6 0.9387(16) 0.6937(24) -0.1809(16) 1.0 Uiso 0.0100(17) 2
C C7 0.7084(9) 0.7856(34) -0.1402(19) 1.0 Uiso 0.0100(17) 2
C C8 0.6925(14) 0.5424(30) -0.1867(19) 1.0 Uiso 0.0100(17) 2
C C9 0.5912(12) 0.514(5) -0.2811(20) 1.0 Uiso 0.0100(17) 2
C C10 0.7665(12) 0.8683(31) 0.3971(13) 1.0 Uiso 0.0100(17) 2
C C11 0.6814(13) 0.7265(32) 0.3712(13) 1.0 Uiso 0.0100(17) 2
C C12 0.6434(14) 0.6936(33) 0.4544(17) 1.0 Uiso 0.0100(17) 2
C C13 0.6611(16) 0.865(4) 0.5367(17) 1.0 Uiso 0.0100(17) 2
C C14 0.7449(16) 1.0103(31) 0.5614(12) 1.0 Uiso 0.0100(17) 2
C C15 0.7835(13) 1.0420(26) 0.4786(15) 1.0 Uiso 0.0100(17) 2
C C16 0.9651(8) 0.830(4) 0.4060(17) 1.0 Uiso 0.0100(17) 2
C C17 0.9831(14) 0.615(5) 0.4775(19) 1.0 Uiso 0.0100(17) 2
C C18 1.0836(12) 0.499(4) 0.5102(22) 1.0 Uiso 0.0100(17) 2
O O1 0.8924(14) 0.6924(27) 0.0326(13) 1.0 Uiso 0.0100(17) 2
O O2 0.8405(15) 1.1155(23) -0.0038(14) 1.0 Uiso 0.0100(17) 2
O O3 0.5748(16) 0.384(4) -0.3628(15) 1.0 Uiso 0.0100(17) 2
O O4 0.5218(15) 0.630(4) -0.2755(17) 1.0 Uiso 0.0100(17) 2
O O5 0.8005(15) 0.6456(26) 0.2336(14) 1.0 Uiso 0.0100(17) 2
O O6 0.8169(16) 1.0802(25) 0.2379(15) 1.0 Uiso 0.0100(17) 2
O O7 1.1490(15) 0.619(4) 0.4961(17) 1.0 Uiso 0.0100(17) 2
O O8 1.1073(15) 0.3413(31) 0.5829(16) 1.0 Uiso 0.0100(17) 2
loop_
_atom_type_symbol
_atom_type_number_in_cell
_atom_type_scat_dispersion_real
_atom_type_scat_dispersion_imag
_atom_type_scat_Cromer_Mann_a1
_atom_type_scat_Cromer_Mann_a2
_atom_type_scat_Cromer_Mann_a3
_atom_type_scat_Cromer_Mann_a4
_atom_type_scat_Cromer_Mann_b1
_atom_type_scat_Cromer_Mann_b2
_atom_type_scat_Cromer_Mann_b3
_atom_type_scat_Cromer_Mann_b4
_atom_type_scat_Cromer_Mann_c
_atom_type_scat_source
Ca 2.0 0.228 0.309 8.62660 10.4421 7.38730 0.65990 1.58990 85.7484 1.02110
178.437 1.37510 International_Tables_Vol_C
P 4.0 0.102 0.095 6.43450 1.90670 4.17910 27.1570 1.78000 0.52600 1.49080
68.1645 1.11490 International_Tables_Vol_C
C 36.0 0.003 0.002 2.31000 20.8439 1.02000 10.2075 1.58860 0.56870 0.86500
51.6512 0.21560 International_Tables_Vol_C
O 16.0 0.011 0.006 3.04850 13.2771 2.28680 5.70110 1.54630 0.32390 0.86700
32.9089 0.25080 International_Tables_Vol_C
loop_
_geom_angle_atom_site_label_1
_geom_angle_atom_site_label_2
_geom_angle_atom_site_label_3
_geom_angle
_geom_angle_site_symmetry_1
_geom_angle_site_symmetry_2
_geom_angle_site_symmetry_3
_geom_angle_publ_flag
O1 Ca1 O2 89.2(6) 1_555 . 1_545 n
O1 Ca1 O4 74.3(7) 1_555 . 2_565 n
O1 Ca1 O5 87.5(5) 1_555 . 1_555 n
O1 Ca1 O6 167.8(9) 1_555 . 1_545 n
O1 Ca1 O7 96.6(7) 1_555 . 2_464 n
O2 Ca1 O4 91.0(9) 1_545 . 2_565 n
O2 Ca1 O5 169.1(8) 1_545 . 1_555 n
O2 Ca1 O6 93.2(6) 1_545 . 1_545 n
O2 Ca1 O7 82.4(7) 1_545 . 2_464 n
O4 Ca1 O5 98.2(8) 2_565 . 1_555 n
O4 Ca1 O6 93.6(8) 2_565 . 1_545 n
O4 Ca1 O7 168.9(8) 2_565 . 2_464 n
O5 Ca1 O6 92.3(7) 1_555 . 1_545 n
O5 Ca1 O7 87.6(8) 1_555 . 2_464 n
O6 Ca1 O7 95.6(9) 1_545 . 2_464 n
C1 P1 C7 104.4(8) 1_555 . 1_555 n
C1 P1 O1 107.0(8) 1_555 . 1_555 n
C1 P1 O2 107.6(8) 1_555 . 1_555 n
C7 P1 O1 112.0(9) 1_555 . 1_555 n
C7 P1 O2 112.7(9) 1_555 . 1_555 n
O1 P1 O2 112.4(9) 1_555 . 1_555 n
C10 P2 C16 103.8(8) 1_555 . 1_555 n
C10 P2 O5 106.2(8) 1_555 . 1_555 n
C10 P2 O6 109.8(9) 1_555 . 1_555 n
C16 P2 O5 111.3(8) 1_555 . 1_555 n
C16 P2 O6 113.5(9) 1_555 . 1_555 n
O5 P2 O6 111.8(9) 1_555 . 1_555 n
P1 C1 C2 120.0(8) 1_555 . 1_555 n
P1 C1 C6 120.2(8) 1_555 . 1_555 n
C2 C1 C6 117.2(5) 1_555 . 1_555 n
C1 C2 C3 117.3(5) 1_555 . 1_555 n
C2 C3 C4 117.7(5) 1_555 . 1_555 n
C3 C4 C5 117.9(5) 1_555 . 1_555 n
C4 C5 C6 117.9(5) 1_555 . 1_555 n
C1 C6 C5 117.5(5) 1_555 . 1_555 n
P1 C7 C8 117.8(10) 1_555 . 1_555 n
C7 C8 C9 111.8(11) 1_555 . 1_555 n
C8 C9 O3 123.6(13) 1_555 . 1_555 n
C8 C9 O4 116.9(11) 1_555 . 1_555 n
O3 C9 O4 119.5(12) 1_555 . 1_555 n
P2 C10 C11 119.6(8) 1_555 . 1_555 n
P2 C10 C15 121.2(8) 1_555 . 1_555 n
C11 C10 C15 118.1(4) 1_555 . 1_555 n
C10 C11 C12 118.1(4) 1_555 . 1_555 n
C11 C12 C13 118.5(5) 1_555 . 1_555 n
C12 C13 C14 118.4(5) 1_555 . 1_555 n
C13 C14 C15 118.5(4) 1_555 . 1_555 n
C10 C15 C14 118.3(4) 1_555 . 1_555 n
P2 C16 C17 113.0(10) 1_555 . 1_555 n
C16 C17 C18 116.9(15) 1_555 . 1_555 n
C17 C18 O7 114.8(13) 1_555 . 1_555 n
C17 C18 O8 118.8(14) 1_555 . 1_555 n
O7 C18 O8 121.0(15) 1_555 . 1_555 n
Ca1 O1 P1 132.5(12) 1_555 . 1_555 n
Ca1 O2 P1 153.9(12) 1_565 . 1_555 n
Ca1 O4 C9 136.7(16) 2_464 . 1_555 n
Ca1 O5 P2 147.9(12) 1_555 . 1_555 n
Ca1 O6 P2 161.0(14) 1_565 . 1_555 n
Ca1 O7 C18 125.7(15) 2_565 . 1_555 n
loop_
_geom_bond_atom_site_label_1
_geom_bond_atom_site_label_2
_geom_bond_distance
_geom_bond_site_symmetry_1
_geom_bond_site_symmetry_2
_geom_bond_publ_flag
Ca1 O1 2.573(18) . 1_555 n
Ca1 O2 2.262(14) . 1_545 n
Ca1 O4 2.506(25) . 2_565 n
Ca1 O5 2.286(16) . 1_555 n
Ca1 O6 2.250(14) . 1_545 n
Ca1 O7 2.540(24) . 2_464 n
P1 C1 1.822(7) . 1_555 n
P1 C7 1.799(8) . 1_555 n
P1 O1 1.530(8) . 1_555 n
P1 O2 1.529(8) . 1_555 n
P2 C10 1.817(7) . 1_555 n
P2 C16 1.798(8) . 1_555 n
P2 O5 1.527(8) . 1_555 n
P2 O6 1.513(8) . 1_555 n
C1 P1 1.822(7) . 1_555 n
C1 C2 1.408(4) . 1_555 n
C1 C6 1.408(4) . 1_555 n
C2 C1 1.408(4) . 1_555 n
C2 C3 1.406(4) . 1_555 n
C3 C2 1.406(4) . 1_555 n
C3 C4 1.405(4) . 1_555 n
C4 C3 1.405(4) . 1_555 n
C4 C5 1.403(4) . 1_555 n
C5 C4 1.403(4) . 1_555 n
C5 C6 1.407(4) . 1_555 n
C6 C1 1.408(4) . 1_555 n
C6 C5 1.407(4) . 1_555 n
C7 P1 1.799(8) . 1_555 n
C7 C8 1.507(8) . 1_555 n
C8 C7 1.507(8) . 1_555 n
C8 C9 1.497(8) . 1_555 n
C9 C8 1.497(8) . 1_555 n
C9 O3 1.237(8) . 1_555 n
C9 O4 1.233(8) . 1_555 n
C10 P2 1.817(7) . 1_555 n
C10 C11 1.405(4) . 1_555 n
C10 C15 1.402(4) . 1_555 n
C11 C10 1.405(4) . 1_555 n
C11 C12 1.401(4) . 1_555 n
C12 C11 1.401(4) . 1_555 n
C12 C13 1.399(4) . 1_555 n
C13 C12 1.399(4) . 1_555 n
C13 C14 1.403(4) . 1_555 n
C14 C13 1.403(4) . 1_555 n
C14 C15 1.402(4) . 1_555 n
C15 C10 1.402(4) . 1_555 n
C15 C14 1.402(4) . 1_555 n
C16 P2 1.798(8) . 1_555 n
C16 C17 1.508(9) . 1_555 n
C17 C16 1.508(9) . 1_555 n
C17 C18 1.504(8) . 1_555 n
C18 C17 1.504(8) . 1_555 n
C18 O7 1.245(8) . 1_555 n
C18 O8 1.251(8) . 1_555 n
O1 Ca1 2.573(18) . 1_555 n
O1 P1 1.530(8) . 1_555 n
O2 Ca1 2.262(14) . 1_565 n
O2 P1 1.529(8) . 1_555 n
O3 C9 1.237(8) . 1_555 n
O3 O4 2.134(14) . 1_555 n
O4 Ca1 2.506(25) . 2_464 n
O4 C9 1.233(8) . 1_555 n
O4 O3 2.134(14) . 1_555 n
O5 Ca1 2.286(16) . 1_555 n
O5 P2 1.527(8) . 1_555 n
O6 Ca1 2.250(14) . 1_565 n
O6 P2 1.513(8) . 1_555 n
O7 Ca1 2.540(24) . 2_565 n
O7 C18 1.245(8) . 1_555 n
O7 O8 2.172(15) . 1_555 n
O8 C18 1.251(8) . 1_555 n
O8 O7 2.172(15) . 1_555 n
loop_
_refln_index_h
_refln_index_k
_refln_index_l
_refln_observed_status
_refln_F_squared_meas
_refln_F_squared_calc
_refln_phase_calc
_refln_d_spacing
_gsas_i100_meas
1 0 1 o 3567.022 3637.840 -23.75 7.48787 33.50
2 0 0 o 6743.969 6703.848 -114.16 6.64975 39.62
0 0 2 o 339.170 178.059 -79.64 5.92075 2.94
2 0 -2 o 27.609 186.558 139.31 5.68510 0.25
0 1 0 o 43.986 51.369 0.00 5.76901 0.42
1 1 0 o 4484.983 4097.162 -161.19 5.29253 62.96
0 1 1 o 1023.154 816.894 96.96 5.18627 15.88
1 1 -1 o 6683.915 6672.400 80.34 5.14469 100.00
3 0 -1 o 1781.954 1232.960 108.48 4.83007 6.03
1 1 1 o 374.884 305.120 -22.11 4.56997 3.55
2 1 -1 o 455.820 600.172 -81.95 4.48595 4.22
2 1 0 o 10139.372 9539.479 -115.59 4.35767 75.43
1 0 -3 o 471.094 538.484 -166.28 4.27618 2.52
1 1 -2 o 6214.524 6211.785 -66.42 4.29829 68.46
0 1 2 o 4500.270 4473.783 -85.11 4.13191 42.28
2 1 -2 o 69.106 93.994 -40.22 4.04931 0.67
3 0 -3 o 17485.488 16139.646 -130.03 3.79007 58.83
2 1 1 o 359.256 342.135 171.50 3.78253 1.88
3 1 -1 o 305.421 302.355 -173.80 3.70343 1.53
2 0 2 o 6213.999 6473.071 134.52 3.74393 14.11
3 0 1 o 26394.135 26397.578 -136.18 3.69699 49.49
1 1 2 o 3526.462 3819.812 112.57 3.66798 21.59
4 0 -2 o 361.662 265.486 25.19 3.56726 0.74
3 1 0 o 1292.264 1017.215 -119.55 3.51517 5.33
3 1 -2 o 2622.083 2079.098 -164.91 3.55436 14.47
1 1 -3 o 10318.649 10824.171 -9.04 3.43535 71.60
1 0 3 o 575.904 591.642 -171.44 3.43020 1.40
4 0 0 o 5623.008 5120.756 134.69 3.32487 8.18
2 1 -3 o 10563.565 10932.625 -160.02 3.39923 70.23
0 1 3 o 225.923 380.542 -44.66 3.25764 1.27
2 0 -4 o 467.580 587.354 44.18 3.22214 1.46
3 1 -3 o 370.050 342.387 -146.60 3.16763 1.94
3 1 1 o 1008.383 747.172 -124.72 3.11269 3.16
2 1 2 o 4522.869 4378.145 176.13 3.14055 17.00
4 1 -1 o 783.026 493.488 1.35 3.05088 2.33
4 1 -2 o 1989.750 1377.410 -156.96 3.03406 6.80
0 0 4 o 1230.096 1387.112 -5.39 2.96038 2.62
1 1 3 o 3.978 15.703 -19.99 2.94839 0.02
4 1 0 o 138.377 425.873 -12.51 2.88069 0.35
5 0 -1 o 4611.609 4774.744 9.74 2.84876 5.04
0 2 0 o 20.255 61.112 180.00 2.88451 0.05
4 0 -4 o 3537.711 3461.757 126.90 2.84255 6.57
4 1 -3 o 1603.034 1533.577 60.29 2.83881 5.63
1 2 0 o 1056.482 1090.114 -164.11 2.81897 4.87
2 1 -4 o 1956.450 1885.234 -120.93 2.81311 9.13
5 0 -3 o 108.683 640.916 115.13 2.77592 0.14
0 2 1 o 648.259 563.214 -17.47 2.80256 3.04
1 2 -1 o 13.312 13.675 -49.31 2.79594 0.06
1 1 -4 o 8.062 30.550 75.76 2.77772 0.03
3 1 -4 o 3256.094 3019.221 102.42 2.72739 13.35
3 1 2 o 740.976 551.596 -63.98 2.67493 1.79
1 2 1 o 1520.472 1270.068 147.22 2.69169 5.86
2 2 0 o 146.266 201.330 119.77 2.64627 0.51
2 2 -1 o 4454.122 3323.550 117.18 2.67421 16.93
0 1 4 o 149.128 144.963 8.98 2.63384 0.55
4 1 1 o 108.591 125.308 116.43 2.60080 0.21
5 1 -2 o 649.218 714.627 63.62 2.58706 1.48
1 2 -2 o 177.882 166.441 152.17 2.63280 0.73
2 1 3 o 2282.154 2518.172 100.31 2.60690 6.14
0 2 2 o 246.518 303.370 92.03 2.59314 0.93
5 1 -1 o 359.666 328.755 171.45 2.55431 0.71
2 2 -2 o 70.105 40.805 -18.06 2.57234 0.26
3 0 -5 o 753.597 700.411 -73.80 2.55305 1.45
4 1 -4 o 1613.604 1678.911 110.09 2.54983 5.14
4 0 2 o 9441.719 7882.334 -170.18 2.50481 8.36
5 1 -3 o 2489.729 2277.506 117.46 2.50141 5.89
2 2 1 o 264.142 252.940 -92.93 2.49974 0.79
1 0 -5 o 27.687 18.430 168.24 2.51028 0.05
3 2 -1 o 331.395 362.885 -10.51 2.47650 0.94
3 0 3 o 682.940 755.707 22.17 2.49596 0.68
1 2 2 o 1159.514 950.976 138.99 2.46581 3.56
3 2 0 o 907.705 1021.786 69.88 2.41776 2.39
5 1 0 o 138.672 151.569 115.90 2.41551 0.23
6 0 -2 o 175.797 191.715 121.45 2.41504 0.14
3 2 -2 o 68.267 66.256 164.92 2.43040 0.19
1 1 4 o 452.336 524.196 -103.15 2.42531 1.22
5 0 1 o 18831.328 17910.586 124.83 2.39922 14.19
1 2 -3 o 281.057 294.499 91.68 2.39132 0.93
2 0 4 o 562.348 596.634 -62.35 2.37610 0.59
2 2 -3 o 2351.834 2526.347 23.90 2.37903 7.62
2 1 -5 o 761.000 737.027 118.07 2.35409 2.45
3 1 -5 o 407.386 432.234 143.49 2.33465 1.27
0 2 3 o 1410.128 1517.565 -144.47 2.32891 4.15
5 1 -4 o 1183.192 1280.359 -58.21 2.32816 2.76
4 1 2 o 6303.313 6580.935 37.03 2.29759 10.34
3 1 3 o 3501.482 3638.754 122.62 2.29075 6.45
2 2 2 o 280.956 307.337 -146.80 2.28498 0.66
1 1 -5 o 207.610 218.927 -1.67 2.30181 0.60
3 2 1 o 216.317 242.501 -59.96 2.27418 0.46
3 2 -3 o 266.119 275.999 -36.12 2.29535 0.74
6 0 -4 o 3929.646 2893.141 3.66 2.25628 3.55
5 0 -5 o 4370.795 4953.938 -164.62 2.27404 5.31
4 2 -1 o 128.419 109.357 77.36 2.24974 0.26
4 2 -2 o 122.073 127.930 -22.55 2.24297 0.27
6 1 -2 o 377.504 327.936 84.66 2.22771 0.59
4 1 -5 o 22.398 20.010 -176.23 2.24852 0.06
6 0 0 o 6449.984 5619.041 -24.99 2.21658 4.07
5 1 1 o 28.347 26.102 103.82 2.21528 0.04
1 2 3 o 580.982 678.166 -173.37 2.20769 1.40
6 1 -1 o 6387.304 5571.661 58.31 2.18006 8.62
6 1 -3 o 1689.356 1745.284 -20.69 2.19868 2.81
4 2 0 o 1112.590 985.931 66.32 2.17883 2.01
2 1 4 o 1561.703 1660.032 -134.70 2.19704 3.02
0 1 5 o 449.055 514.859 55.17 2.19087 1.08
1 0 5 o 195.416 206.379 -158.77 2.18638 0.22
4 2 -3 o 1090.210 1052.620 -130.59 2.16054 2.42
2 0 -6 o 2763.774 2489.638 -36.64 2.13809 3.66
1 2 -4 o 4825.598 4506.265 29.55 2.13324 12.50
2 2 -4 o 580.087 500.265 99.27 2.14914 1.53
6 1 -4 o 1389.502 1382.149 12.22 2.10129 2.35
5 1 -5 o 31.758 29.696 -9.52 2.11561 0.07
3 2 -4 o 5607.799 5497.670 -76.12 2.11019 13.89
6 1 0 o 385.455 250.238 -20.63 2.06911 0.45
3 2 2 o 178.845 203.376 -24.42 2.08561 0.30
4 0 -6 o 11442.062 11280.783 -141.39 2.10356 14.02
7 0 -3 o 2107.808 1748.798 13.43 2.06214 1.31
2 2 3 o 481.427 729.140 -119.89 2.05288 0.90
4 2 1 o 120.642 184.667 -19.47 2.04990 0.19
0 2 4 o 903.615 641.232 -14.43 2.06596 2.04
5 2 -1 o 293.548 280.035 117.19 2.02690 0.44
5 2 -2 o 162.644 193.641 170.65 2.04315 0.27
1 1 5 o 92.060 116.061 118.86 2.04448 0.17
7 0 -1 o 15.482 20.278 -82.81 2.00478 0.01
4 1 3 o 3041.052 2241.282 -25.90 2.01910 3.99
4 2 -4 o 96.549 89.859 -173.02 2.02466 0.20
5 2 -3 o 197.041 276.508 -19.27 2.00016 0.33
5 1 2 o 245.788 340.908 -102.97 1.99834 0.30
3 1 -6 o 66.080 47.847 -0.22 2.01307 0.16
2 1 -6 o 308.192 354.487 -35.29 2.00483 0.69
3 1 4 o 564.159 667.732 126.20 1.97783 0.81
5 2 0 o 3088.962 3358.994 -18.73 1.95542 4.20
0 0 6 o 343.123 400.633 -39.93 1.97358 0.34
7 1 -2 o 4615.388 4036.969 -42.66 1.94294 5.06
1 2 4 o 2390.500 2770.246 41.74 1.96061 4.47
7 1 -3 o 3266.937 2817.585 -26.39 1.94181 3.88
4 1 -6 o 558.581 650.488 -175.06 1.97628 1.18
1 1 -6 o 393.374 417.568 19.14 1.95315 0.80
6 1 -5 o 723.632 832.829 70.68 1.95979 1.16
6 1 1 o 896.134 917.038 91.57 1.92091 0.91
7 1 -1 o 346.537 319.283 -61.91 1.89369 0.33
5 2 -4 o 363.777 456.879 52.08 1.90821 0.61
0 3 0 o 333.975 329.678 0.00 1.92300 0.36
2 2 -5 o 5893.592 5894.928 -77.00 1.92240 12.61
7 0 -5 o 2299.338 2060.535 65.94 1.89469 1.56
4 2 2 o 956.117 923.576 30.24 1.89126 1.24
7 1 -4 o 1045.610 1024.980 -130.30 1.89058 1.31
1 3 0 o 474.762 454.112 7.05 1.90321 0.96
3 2 3 o 203.823 210.441 -87.03 1.88745 0.28
5 1 -6 o 1407.656 1269.677 74.42 1.90133 2.57
5 0 3 o 1966.815 2130.343 10.57 1.88552 0.99
2 1 5 o 344.886 362.904 -173.64 1.88494 0.50
3 2 -5 o 39.625 55.174 90.03 1.91177 0.08
0 3 1 o 414.148 355.608 122.97 1.89814 0.86
1 3 -1 o 178.660 156.703 -161.13 1.89608 0.37
6 0 -6 o 6077.743 5436.652 83.53 1.89503 5.02
1 2 -5 o 165.808 152.826 -126.08 1.89362 0.33
6 2 -2 o 128.893 92.089 -121.40 1.85172 0.16
0 1 6 o 119.629 129.139 121.82 1.86734 0.21
5 2 1 o 243.528 152.452 34.78 1.84456 0.28
4 0 4 o 1191.747 1447.342 -35.22 1.87197 0.67
4 2 -5 o 3658.594 3749.433 174.13 1.86361 6.90
6 0 2 o 94.092 56.991 -53.75 1.84849 0.04
1 3 1 o 837.909 839.657 -5.02 1.86256 1.60
2 3 0 o 207.435 126.150 57.24 1.84731 0.37
3 0 -7 o 1076.539 695.067 -135.46 1.84341 1.05
2 3 -1 o 6.915 6.049 -56.46 1.85674 0.01
6 2 -1 o 2469.592 2305.256 -116.65 1.82407 2.80
6 2 -3 o 1177.975 1006.811 155.29 1.83494 1.52
2 2 4 o 421.592 364.667 168.00 1.83399 0.61
0 2 5 o 3272.772 2923.484 156.47 1.83040 5.74
7 1 0 o 44.137 62.547 158.50 1.80458 0.04
1 3 -2 o 2842.878 1820.480 -59.55 1.84271 5.52
0 3 2 o 4347.739 3927.813 85.03 1.82896 8.22
8 0 -2 o 468.733 572.873 -2.35 1.79733 0.20
2 3 -2 o 2302.928 2215.859 144.89 1.82162 4.30
7 1 -5 o 213.983 296.524 103.99 1.80009 0.26
8 0 -4 o 902.986 1013.284 59.49 1.78363 0.45
3 0 5 o 1728.871 2168.759 37.75 1.81094 1.04
2 3 1 o 330.094 368.387 12.06 1.79528 0.55
5 1 3 o 2754.336 2782.208 27.06 1.79223 2.68
6 1 -6 o 15.039 20.903 -179.57 1.80039 0.02
3 3 -1 o 168.987 181.006 -73.50 1.78661 0.26
7 0 1 o 1734.824 1469.347 -5.82 1.76912 0.70
1 3 2 o 67.604 74.114 135.89 1.78259 0.12
4 1 4 o 765.744 812.033 119.74 1.78057 0.81
6 2 -4 o 43.079 43.672 -53.41 1.77718 0.06
6 1 2 o 2.441 2.924 49.57 1.76034 0.00
5 2 -5 o 22.484 24.882 -1.17 1.78582 0.04
6 2 0 o 183.824 207.199 179.35 1.75758 0.18
5 0 -7 o 856.520 933.695 140.62 1.78448 0.74
3 3 -2 o 2030.320 1749.468 -164.71 1.76907 3.34
1 0 -7 o 2637.310 2413.882 -9.48 1.76846 2.16
3 3 0 o 106.152 117.728 22.67 1.76418 0.16
1 1 6 o 903.322 1083.574 -74.30 1.76025 1.25
3 1 -7 o 1029.184 1128.215 20.28 1.75594 1.82
8 1 -3 o 2058.961 1909.136 -162.24 1.72810 1.84
1 2 5 o 138.076 178.610 -169.53 1.74241 0.19
1 3 -3 o 2377.083 2498.916 154.47 1.75383 4.21
2 1 -7 o 56.741 84.462 -14.97 1.73708 0.10
4 1 -7 o 1023.546 1242.933 -85.67 1.74462 1.77
8 1 -2 o 571.590 547.424 -31.08 1.71598 0.48
3 1 5 o 510.223 475.520 -140.54 1.72781 0.56
5 2 2 o 106.389 101.915 138.47 1.71358 0.10
4 2 3 o 568.716 538.562 12.70 1.72662 0.61
2 3 -3 o 1219.814 1384.032 -155.11 1.74896 2.14
8 1 -4 o 1236.096 1411.766 -114.37 1.70404 1.16
0 3 3 o 240.333 224.870 -160.38 1.72876 0.41
3 2 -6 o 6927.111 6857.208 -172.39 1.72285 11.73
2 3 2 o 676.417 690.303 -19.18 1.71056 1.00
3 3 1 o 118.854 134.107 -94.23 1.70601 0.16
2 2 -6 o 143.040 140.365 20.40 1.71767 0.23
7 1 1 o 500.003 454.757 -9.68 1.69137 0.37
2 0 6 o 1410.561 1342.463 148.36 1.71510 0.85
3 3 -3 o 941.194 885.071 35.21 1.71490 1.53
3 2 4 o 1647.822 1657.155 -93.36 1.70060 1.90
4 3 -1 o 94.501 81.785 83.68 1.69562 0.12
5 1 -7 o 398.461 446.687 -70.40 1.70479 0.63
4 3 -2 o 368.294 319.454 -12.38 1.69272 0.52
7 2 -2 o 4216.846 4027.896 126.57 1.67827 3.91
7 2 -3 o 113.242 107.548 -26.62 1.67754 0.11
1 1 -7 o 227.605 214.413 36.85 1.69080 0.33
6 2 -5 o 1192.116 1210.500 32.99 1.68910 1.57
4 2 -6 o 412.113 400.171 23.02 1.69961 0.65
7 1 -6 o 83.595 93.845 -81.83 1.68620 0.10
1 2 -6 o 336.362 366.474 -97.23 1.68484 0.54
8 1 -1 o 58.882 51.052 -83.08 1.66989 0.05
4 3 0 o 51.040 36.740 26.94 1.66464 0.06
1 3 3 o 969.501 918.183 95.19 1.67740 1.44
6 2 1 o 1829.357 1302.031 -63.41 1.66401 1.61
8 0 0 o 5708.817 4038.273 -126.02 1.66244 1.97
7 2 -1 o 84.333 86.742 -127.81 1.64622 0.07
7 2 -4 o 2545.838 2641.553 39.54 1.64418 2.63
4 3 -3 o 170.810 136.485 -81.89 1.65643 0.22
8 1 -5 o 75.305 77.927 78.72 1.64809 0.07
2 1 6 o 139.236 145.103 -109.77 1.64399 0.15
2 2 5 o 7031.048 7770.680 5.13 1.64046 8.21
5 2 -6 o 1537.946 1618.470 31.52 1.65124 2.22
1 3 -4 o 278.029 288.667 56.83 1.64404 0.41
6 1 -7 o 95.700 103.304 105.22 1.64195 0.13
8 0 -6 o 2082.356 1907.406 -29.98 1.63047 1.06
2 3 -4 o 26.023 27.436 -84.31 1.65128 0.04
0 2 6 o 62.908 55.818 -24.53 1.62882 0.08
0 1 7 o 193.080 178.096 60.96 1.62329 0.26
9 0 -3 o 1081.542 843.220 -145.34 1.61002 0.38
3 3 -4 o 14.015 14.663 172.57 1.63341 0.02
3 3 2 o 1168.573 1094.763 1.23 1.62194 1.39
4 3 1 o 309.622 294.942 -56.51 1.60497 0.34
5 3 -2 o 75.829 74.356 60.49 1.60172 0.09
7 0 -7 o 1804.789 1669.725 -33.34 1.62431 1.08
4 0 -8 o 1252.278 993.958 95.99 1.61107 0.91
8 1 0 o 12.672 12.000 -63.40 1.59743 0.01
5 1 4 o 27.622 22.889 -148.33 1.60852 0.02
2 3 3 o 1328.607 1206.382 112.91 1.60640 1.65
5 3 -1 o 381.410 403.791 16.55 1.59386 0.41
6 1 3 o 954.638 971.142 -122.19 1.60403 0.72
0 3 4 o 67.286 50.352 -159.04 1.61264 0.10
1 0 7 o 1674.696 1612.308 -114.35 1.60035 0.95
7 2 0 o 2310.850 2314.233 -118.63 1.58667 1.79
5 2 3 o 188.991 142.513 -1.32 1.57825 0.16
2 0 -8 o 323.095 321.325 119.47 1.58464 0.22
7 2 -5 o 130.185 136.387 -157.02 1.58362 0.13
4 3 -4 o 1253.833 1399.417 -43.83 1.59277 1.68
4 1 5 o 860.495 843.235 -131.62 1.58154 0.72
5 3 -3 o 247.865 225.630 -95.38 1.58076 0.30
7 1 2 o 1292.189 1188.574 101.96 1.56882 0.87
9 0 -5 o 4663.718 5478.641 -19.26 1.56369 1.83
6 2 -6 o 130.480 136.389 -146.74 1.58382 0.16
4 2 4 o 434.090 365.116 61.29 1.57028 0.39
5 3 0 o 1.444 1.644 -88.08 1.55839 0.00
8 1 -6 o 63.515 58.529 55.37 1.56901 0.06
6 2 2 o 45.684 52.013 -129.03 1.55634 0.03
9 1 -3 o 3600.632 3360.371 -123.60 1.55076 2.45
1 3 4 o 158.350 180.602 142.16 1.56101 0.20
1 2 6 o 3546.167 4036.257 113.73 1.55628 4.04
9 0 -1 o 3222.723 2574.751 140.20 1.54372 0.96
9 1 -4 o 182.623 145.172 -73.86 1.54250 0.13
7 1 -7 o 136.229 154.450 87.10 1.56352 0.15
3 1 -8 o 2010.042 1869.454 -66.45 1.55016 2.72
8 2 -3 o 9.837 10.971 10.96 1.53393 0.01
9 1 -2 o 401.736 445.910 -168.42 1.53282 0.26
3 2 -7 o 76.488 79.001 -66.01 1.55331 0.10
1 1 7 o 137.705 113.820 7.62 1.54212 0.15
4 1 -8 o 1155.585 1125.195 -75.66 1.55170 1.58
2 2 -7 o 300.887 265.381 92.16 1.54020 0.39
6 0 -8 o 1024.624 896.778 14.92 1.54756 0.63
8 2 -2 o 126.069 122.188 -175.59 1.52544 0.09
4 3 2 o 2768.068 2695.661 -148.91 1.52533 2.67
4 2 -7 o 48.162 39.826 59.95 1.54545 0.07
3 3 3 o 3162.082 3126.346 -24.47 1.52332 3.23
5 3 -4 o 86.115 95.820 -104.06 1.53418 0.10
3 2 5 o 46.865 52.001 -145.95 1.53373 0.04
2 3 -5 o 231.143 187.667 106.01 1.54152 0.31
2 1 -8 o 526.042 541.445 24.85 1.52805 0.68
8 2 -4 o 308.996 323.933 -123.23 1.51703 0.25
3 1 6 o 92.948 93.842 -54.53 1.52753 0.08
5 1 -8 o 1677.632 1849.882 141.75 1.53248 2.18
9 1 -5 o 180.377 237.283 -149.17 1.50923 0.13
8 1 1 o 16.191 19.747 125.06 1.50856 0.01
7 2 1 o 447.789 518.422 -76.62 1.50807 0.30
3 3 -5 o 213.909 237.695 166.66 1.53603 0.28
1 3 -5 o 93.098 91.076 -167.15 1.52656 0.12
8 2 -1 o 471.260 455.099 83.65 1.49278 0.32
6 3 -2 o 361.257 356.998 -115.27 1.50435 0.34
9 1 -1 o 37.742 37.303 123.18 1.49125 0.02
5 3 1 o 676.215 641.921 134.62 1.50051 0.59
6 0 4 o 1447.106 2092.160 -99.17 1.50954 0.47
5 2 -7 o 158.075 167.551 -101.65 1.51756 0.19
1 2 -7 o 58.166 65.835 149.07 1.50766 0.07
6 3 -3 o 350.958 331.665 -55.47 1.49532 0.34
7 0 3 o 454.492 422.515 -39.41 1.49526 0.13
7 2 -6 o 1614.853 1574.291 -52.23 1.50440 1.64
4 3 -5 o 81.677 97.692 155.30 1.51071 0.10
6 3 -1 o 1353.289 1427.677 41.55 1.48942 1.15
5 0 5 o 340.278 325.888 -84.59 1.49757 0.12
2 3 4 o 82.215 77.796 41.97 1.49480 0.09
0 3 5 o 777.561 748.389 120.34 1.49285 0.89
1 1 -8 o 594.734 664.110 22.28 1.48787 0.70
8 2 -5 o 2175.957 2239.597 -74.43 1.47715 1.82
6 1 -8 o 949.462 901.993 -168.57 1.49472 1.11
0 0 8 o 1043.289 1172.971 -68.17 1.48019 0.54
8 1 -7 o 27.635 28.235 -11.80 1.47680 0.03
2 2 6 o 150.903 151.191 65.68 1.47419 0.14
8 0 2 o 1506.087 1801.796 20.98 1.45685 0.40
9 1 -6 o 246.969 306.899 -119.02 1.45552 0.18
6 2 -7 o 253.315 255.926 -90.25 1.47273 0.28
6 3 -4 o 450.328 502.199 128.17 1.46356 0.44
6 3 0 o 171.136 194.920 -110.54 1.45256 0.13
8 2 0 o 7.310 5.760 -46.54 1.44035 0.00
6 1 4 o 283.631 284.794 -21.84 1.46038 0.18
5 3 -5 o 37.354 38.581 -81.03 1.46837 0.04
0 2 7 o 664.136 713.815 -132.82 1.45922 0.71
5 2 4 o 795.893 731.418 84.15 1.44846 0.56
7 1 3 o 3169.017 2680.041 -81.40 1.44743 1.83
10 0 -4 o 286.773 236.395 -40.63 1.44720 0.09
6 2 3 o 665.713 506.041 -147.48 1.44517 0.43
2 1 7 o 1038.045 1247.140 -74.36 1.45431 0.91
9 1 0 o 101.142 91.669 -161.73 1.43151 0.05
4 0 6 o 748.522 751.228 36.65 1.46114 0.28
5 1 5 o 130.993 132.648 -87.27 1.44953 0.09
10 0 -2 o 762.181 786.133 -128.77 1.42438 0.19
4 3 3 o 1706.426 1437.064 -9.00 1.43493 1.42
1 3 5 o 232.871 176.300 7.87 1.44396 0.23
5 3 2 o 1143.964 1087.296 -140.00 1.42742 0.89
7 1 -8 o 1695.794 1297.982 20.56 1.44234 1.71
0 1 8 o 1654.595 1426.100 178.27 1.43375 1.63
0 4 0 o 9387.882 7238.769 180.00 1.44225 5.43
9 0 -7 o 4071.495 3789.613 -126.48 1.42969 1.58
3 3 4 o 18.270 18.617 49.20 1.41989 0.02
7 2 2 o 807.844 804.985 135.52 1.41927 0.47
4 2 5 o 2677.309 2494.350 -88.17 1.42866 2.01
5 0 -9 o 1358.493 1330.338 60.55 1.42604 0.75
9 2 -3 o 3.343 3.076 -67.16 1.40586 0.00
3 0 -9 o 561.097 556.869 84.66 1.42539 0.31
1 4 0 o 107.269 92.115 17.89 1.43385 0.12
0 4 1 o 230.539 208.277 -142.23 1.43167 0.26
10 1 -3 o 576.009 629.598 84.10 1.40291 0.32
1 4 -1 o 2010.247 1841.384 72.24 1.43079 2.30
8 1 2 o 1058.381 832.288 152.73 1.41250 0.56
2 3 -6 o 140.921 130.518 -177.69 1.42978 0.16
8 2 -6 o 133.630 135.233 -136.53 1.41940 0.11
3 3 -6 o 53.187 46.799 -6.65 1.43276 0.06
4 1 6 o 345.190 305.746 51.71 1.41642 0.24
7 3 -2 o 199.709 175.736 -50.87 1.40681 0.15
7 3 -3 o 1484.259 1329.745 162.12 1.40639 1.16
6 3 -5 o 460.214 367.937 96.12 1.41317 0.43
10 1 -4 o 785.700 820.046 109.99 1.40371 0.45
8 0 -8 o 99.670 106.801 169.23 1.42127 0.05
9 2 -2 o 27.848 30.620 -114.30 1.39244 0.02
1 3 -6 o 817.342 659.066 -27.36 1.41068 0.86
2 4 0 o 3319.986 2705.543 80.46 1.40948 3.51
9 2 -4 o 138.853 181.518 -140.24 1.39969 0.09
9 0 1 o 1256.255 1676.715 178.03 1.39955 0.31
1 4 1 o 1879.673 1647.202 158.29 1.41622 2.06
6 3 1 o 438.702 570.857 172.30 1.39838 0.31
7 2 -7 o 490.840 416.513 84.30 1.41534 0.45
3 2 -8 o 672.051 635.978 -122.31 1.40541 0.72
2 4 -1 o 875.432 706.814 -86.58 1.41366 0.94
4 3 -6 o 330.781 333.157 -63.95 1.41932 0.36
10 1 -2 o 391.630 396.819 -159.33 1.38285 0.20
1 2 7 o 195.115 250.316 -160.52 1.39940 0.17
1 4 -2 o 341.246 291.181 128.89 1.40744 0.37
4 2 -8 o 548.980 492.104 147.28 1.40655 0.59
10 0 -6 o 3376.506 3785.105 -134.57 1.38796 1.07
3 0 7 o 92.433 88.037 -60.67 1.40527 0.03
7 3 -1 o 80.738 87.919 175.08 1.38778 0.06
7 3 -4 o 439.404 477.229 -119.38 1.38655 0.35
10 1 -5 o 701.854 743.524 -159.14 1.38516 0.41
8 2 1 o 369.734 363.802 -130.79 1.37418 0.20
0 4 2 o 46.582 55.919 -71.45 1.40128 0.05
4 1 -9 o 508.679 562.987 146.74 1.39163 0.56
2 4 -2 o 250.019 342.345 -138.38 1.39797 0.26
2 2 -8 o 387.749 422.664 -9.64 1.38886 0.40
3 2 6 o 2740.849 3004.162 12.82 1.38847 2.10
9 1 -7 o 411.207 457.197 34.77 1.38771 0.31
2 4 1 o 572.014 614.081 140.26 1.38596 0.56
2 3 5 o 105.853 110.148 63.32 1.38432 0.09
5 2 -8 o 2116.837 2325.507 145.21 1.39219 2.18
3 1 -9 o 92.808 95.597 -47.24 1.38378 0.10
9 2 -5 o 61.978 58.455 -160.30 1.37469 0.04
5 3 -6 o 175.411 190.220 154.89 1.39078 0.18
3 4 -1 o 634.719 633.314 -67.89 1.38196 0.64
1 4 2 o 61.727 58.367 152.99 1.38009 0.06
9 2 -1 o 36.588 51.117 125.43 1.36106 0.02
9 1 1 o 61.838 88.636 173.25 1.36010 0.03
0 3 6 o 124.606 108.198 -168.73 1.37730 0.12
5 1 -9 o 1272.433 1326.120 -149.38 1.38437 1.35
3 4 -2 o 207.848 210.941 144.37 1.37379 0.21
8 1 -8 o 175.948 165.642 58.16 1.38001 0.16
3 4 0 o 628.858 743.231 -142.11 1.37150 0.59
1 1 8 o 1860.653 2324.017 22.58 1.37035 1.56
7 3 0 o 112.709 129.442 -59.47 1.35154 0.07
3 1 7 o 40.211 58.171 -48.19 1.36535 0.03
10 1 -1 o 169.777 147.465 -90.34 1.34590 0.08
1 0 -9 o 949.491 1320.941 -127.76 1.36353 0.44
2 1 -9 o 212.825 305.448 -78.88 1.36156 0.22
1 4 -3 o 108.548 153.486 112.08 1.36662 0.11
1 2 -8 o 1140.440 1732.303 76.31 1.35849 1.07
10 1 -6 o 219.135 221.162 76.48 1.34946 0.13
7 0 -9 o 165.837 231.420 136.54 1.36523 0.08
2 4 -3 o 2.599 3.572 28.65 1.36431 0.00
6 2 -8 o 176.690 244.346 -113.63 1.36370 0.17
6 1 -9 o 371.435 522.017 57.56 1.36269 0.38
5 3 3 o 5677.772 5007.257 -167.07 1.34632 3.82
8 2 -7 o 396.469 413.120 5.60 1.35005 0.30
4 3 4 o 1714.818 1293.951 -41.87 1.34136 1.22
6 3 -6 o 450.364 462.358 -48.66 1.34977 0.39
7 3 -5 o 65.698 67.018 88.99 1.34965 0.05
10 0 0 o 925.205 846.172 123.50 1.32995 0.20
0 4 3 o 248.456 362.527 -45.03 1.35466 0.24
6 2 4 o 1.159 0.881 -56.87 1.33747 0.00
2 4 2 o 752.128 653.923 -30.47 1.34585 0.67
3 4 1 o 2539.738 2066.530 21.98 1.34363 2.23
9 2 -6 o 2142.550 1842.330 173.12 1.33374 1.44
7 1 4 o 49.785 43.068 169.54 1.33323 0.03
6 3 2 o 647.475 563.344 130.03 1.33265 0.41
3 4 -3 o 87.434 81.449 18.61 1.34795 0.08
4 4 -1 o 183.832 138.031 68.35 1.33853 0.16
5 2 5 o 161.294 150.416 107.52 1.32912 0.10
4 4 -2 o 228.799 181.469 33.08 1.33711 0.20
2 0 8 o 58.057 46.646 169.28 1.33650 0.02
7 2 3 o 60.833 58.208 64.99 1.32750 0.03
2 2 7 o 727.862 631.581 117.09 1.33280 0.55
9 2 0 o 417.292 353.757 128.29 1.31518 0.21
1 3 6 o 51.988 45.346 -95.46 1.33261 0.04
6 1 5 o 232.973 203.874 130.90 1.33230 0.12
4 4 0 o 2908.908 2718.668 -57.94 1.32313 2.40
8 3 -2 o 426.740 382.672 152.04 1.31309 0.26
1 4 3 o 394.033 364.444 39.96 1.32951 0.36
11 0 -3 o 2999.364 2840.911 128.56 1.31123 0.65
1 1 -9 o 666.494 633.223 80.75 1.32697 0.59
8 3 -3 o 707.992 613.685 -170.14 1.31849 0.45
3 3 5 o 116.930 101.453 -5.12 1.31836 0.08
11 0 -5 o 2921.686 2651.500 -177.02 1.30786 0.72
8 1 3 o 391.160 321.336 77.17 1.31617 0.18
3 3 -7 o 206.222 184.441 -159.53 1.33074 0.21
7 1 -9 o 1021.518 957.037 36.14 1.32853 0.91
7 3 1 o 191.002 165.481 176.75 1.30196 0.10
4 4 -3 o 21.399 18.778 -60.11 1.31900 0.02
8 2 2 o 66.812 60.819 -75.20 1.30040 0.03
0 2 8 o 22.138 18.933 -113.05 1.31692 0.02
7 2 -8 o 2756.953 2615.479 46.01 1.32357 2.31
8 3 -4 o 911.887 805.783 74.38 1.30772 0.60
2 3 -7 o 115.198 105.532 -17.19 1.32247 0.11
5 1 6 o 171.994 153.869 144.37 1.31348 0.10
10 1 0 o 649.969 568.623 146.39 1.29596 0.27
4 3 -7 o 288.622 280.349 -73.94 1.32579 0.28
9 1 -8 o 1243.704 1169.579 -92.28 1.31216 0.89
10 2 -4 o 106.174 100.489 57.87 1.29353 0.05
10 2 -3 o 236.857 229.547 131.53 1.29290 0.11
3 4 2 o 12.811 11.308 96.97 1.30138 0.01
8 3 -1 o 157.730 156.548 62.46 1.29209 0.08
10 1 -7 o 936.469 890.879 -106.58 1.30040 0.57
1 4 -4 o 128.025 117.942 -108.28 1.31272 0.12
4 2 6 o 253.304 205.851 -166.66 1.30345 0.16
2 4 -4 o 12.971 10.521 -134.26 1.31640 0.01
2 1 8 o 634.071 545.796 128.29 1.30202 0.44
1 3 -7 o 106.426 92.347 14.18 1.30170 0.10
11 1 -4 o 289.048 317.641 -56.15 1.28455 0.13
5 3 -7 o 1544.573 1387.833 128.65 1.30805 1.40
4 4 1 o 69.074 67.653 -122.01 1.29257 0.05
3 4 -4 o 53.744 47.261 56.68 1.30729 0.05
7 3 -6 o 384.874 357.752 -63.13 1.29960 0.29
5 4 -2 o 381.895 394.322 45.87 1.29087 0.29
0 4 4 o 144.114 125.102 86.28 1.29657 0.13
11 1 -3 o 611.722 697.240 100.69 1.27862 0.27
5 4 -1 o 755.117 800.935 -165.04 1.28674 0.57
10 2 -2 o 140.578 152.484 163.48 1.27715 0.06
2 4 3 o 44.896 42.848 66.38 1.29332 0.04
11 1 -5 o 196.592 202.968 -142.64 1.27550 0.09
9 1 2 o 630.764 692.390 -13.30 1.28308 0.27
8 3 -5 o 26.172 28.735 140.70 1.28191 0.02
4 0 -10 o 1028.248 1065.710 25.52 1.28927 0.47
10 2 -5 o 1892.025 2160.202 152.97 1.27897 1.03
4 2 -9 o 616.385 669.356 -154.11 1.28406 0.54
0 1 9 o 1237.921 1355.912 116.56 1.28278 0.96
9 2 -7 o 98.045 108.647 45.20 1.28098 0.06
2 3 6 o 525.825 588.054 -18.50 1.27998 0.37
5 4 -3 o 537.138 605.369 -41.60 1.27982 0.42
4 4 -4 o 29.714 31.958 161.83 1.28617 0.03
4 1 7 o 490.290 558.839 -161.64 1.27895 0.29
8 1 -9 o 779.556 850.501 -67.57 1.28467 0.61
3 2 -9 o 81.441 88.841 -23.18 1.27789 0.07
6 0 -10 o 931.685 960.652 -87.00 1.27652 0.41
5 4 0 o 62.474 47.983 132.69 1.26787 0.04
9 2 1 o 40.127 39.821 -48.08 1.25917 0.02
8 2 -8 o 56.642 55.029 147.69 1.27491 0.04
11 1 -2 o 623.856 641.493 80.64 1.25832 0.25
8 3 0 o 719.025 732.239 61.16 1.25763 0.36
10 0 -8 o 95.035 67.759 -177.09 1.27229 0.03
6 3 -7 o 349.628 399.747 95.74 1.27901 0.29
5 2 -9 o 450.629 499.826 -112.41 1.27835 0.39
5 3 4 o 70.287 57.492 95.80 1.26302 0.04
11 0 -1 o 882.708 907.285 -6.77 1.25425 0.17
0 3 7 o 190.010 138.627 87.70 1.27014 0.15
1 4 4 o 39.242 29.678 -54.91 1.26928 0.03
6 3 3 o 424.172 387.477 -164.69 1.26084 0.24
1 2 8 o 3.580 2.793 -9.94 1.26728 0.00
10 2 -1 o 2161.189 2595.742 -11.75 1.24787 0.92
3 2 7 o 47.858 38.114 -53.62 1.26332 0.03
1 0 9 o 250.336 225.388 101.71 1.26112 0.08
2 2 -9 o 833.708 779.700 -67.41 1.26033 0.68
11 1 -6 o 101.463 109.720 64.13 1.25238 0.05
8 0 4 o 233.583 254.210 86.97 1.25240 0.05
7 3 2 o 565.615 626.204 164.74 1.24353 0.29
4 1 -10 o 237.958 237.411 129.61 1.25823 0.20
10 2 -6 o 279.031 321.902 -3.10 1.25070 0.15
5 1 -10 o 111.020 111.825 -122.32 1.25785 0.09
7 0 5 o 2277.458 2507.676 176.48 1.25781 0.51
4 4 2 o 399.018 464.400 37.15 1.24987 0.28
4 3 5 o 440.077 511.515 -82.42 1.24983 0.26
9 0 -9 o 404.843 320.761 -34.46 1.26336 0.14
3 4 3 o 308.581 365.132 -54.56 1.24877 0.22
2 0 -10 o 582.063 603.251 -179.16 1.25514 0.24
6 2 -9 o 10.511 9.338 176.69 1.26122 0.01
5 4 -4 o 201.599 206.611 99.41 1.25472 0.15
10 1 1 o 1217.153 1230.294 -90.46 1.23745 0.46
11 0 -7 o 429.203 505.385 115.71 1.24546 0.11
8 3 -6 o 16.941 18.478 44.19 1.24362 0.01
9 3 -3 o 1417.419 1373.310 45.78 1.23448 0.74
6 0 6 o 247.046 307.270 -80.91 1.24798 0.06
3 1 -10 o 58.691 68.553 36.37 1.24749 0.05
2 4 -5 o 291.152 296.511 138.20 1.25873 0.25
9 3 -4 o 65.377 60.258 39.47 1.23029 0.04
6 4 -2 o 398.295 409.270 146.62 1.23825 0.26
7 2 4 o 274.626 279.431 4.99 1.23775 0.13
6 2 5 o 4760.866 4781.095 137.67 1.23701 2.32
1 4 -5 o 391.460 455.177 -117.25 1.25055 0.34
3 4 -5 o 528.468 541.775 118.64 1.25574 0.47
5 4 1 o 3366.129 3338.933 -75.04 1.23610 2.16
10 1 -8 o 391.619 434.328 -35.81 1.24243 0.24
7 3 -7 o 15.148 16.641 -84.16 1.24088 0.01
11 1 -1 o 132.221 139.092 68.21 1.22562 0.05
9 3 -2 o 164.811 172.445 118.61 1.22537 0.08
6 4 -3 o 12.299 11.724 -44.33 1.23320 0.01
6 1 -10 o 74.598 86.906 -120.74 1.24638 0.06
9 0 3 o 199.927 188.909 -37.53 1.23233 0.04
8 2 3 o 159.178 170.581 120.50 1.22406 0.07
6 4 -1 o 36.971 34.333 32.83 1.22988 0.02
7 1 5 o 5.573 5.124 -53.15 1.22894 0.00
4 4 -5 o 474.690 525.504 12.86 1.24179 0.38
2 4 4 o 102.880 97.660 -50.27 1.23291 0.08
1 2 -9 o 4.521 4.294 -164.38 1.23274 0.00
3 1 8 o 802.051 754.030 -64.02 1.23226 0.47
1 1 9 o 802.442 754.388 -179.13 1.23203 0.53
0 4 5 o 61.483 57.396 -9.27 1.23181 0.05
8 1 4 o 747.569 819.030 -146.74 1.22390 0.30
1 3 7 o 6.729 6.295 24.21 1.23010 0.00
3 3 6 o 143.600 150.218 -93.15 1.22266 0.09
5 2 6 o 1300.003 1338.655 -102.65 1.22190 0.67
4 3 -8 o 1780.876 1737.040 113.83 1.23495 1.49
9 1 -9 o 264.896 255.312 -67.39 1.23411 0.18
3 3 -8 o 1014.166 979.228 -108.62 1.23417 0.84
7 2 -9 o 129.286 124.664 -96.90 1.23399 0.10
8 3 1 o 12.470 10.438 153.67 1.21287 0.01
2 1 -10 o 313.559 316.852 -78.24 1.22645 0.24
11 1 -7 o 13.009 12.173 -156.35 1.21741 0.01
5 0 7 o 3.233 3.562 -56.36 1.22394 0.00
2 3 -8 o 1223.007 1286.716 -135.36 1.22292 0.98
10 2 0 o 91.704 90.496 -38.27 1.20776 0.04
12 0 -4 o 305.671 309.973 -86.99 1.20752 0.06
9 2 -8 o 292.139 290.857 -9.24 1.22084 0.18
9 3 -5 o 98.903 80.895 -3.75 1.21321 0.05
6 1 6 o 22.339 21.782 56.53 1.21976 0.01
5 3 -8 o 1392.179 1477.028 154.29 1.22520 1.12
7 1 -10 o 209.026 220.204 -35.77 1.22469 0.16
9 3 -1 o 300.273 319.832 -8.61 1.20382 0.13
10 2 -7 o 659.494 539.243 -103.62 1.21135 0.35
5 4 -5 o 1361.103 1294.688 24.32 1.21795 1.03
6 4 0 o 3253.208 3001.945 167.70 1.20888 1.92
6 4 -4 o 552.485 490.936 -163.71 1.21520 0.37
8 0 -10 o 746.213 746.194 116.02 1.22080 0.27
10 0 2 o 342.203 343.384 -153.20 1.19961 0.06
11 2 -4 o 54.399 55.573 96.55 1.19851 0.02
2 2 8 o 15.729 12.972 -126.48 1.21265 0.01
9 1 3 o 1043.263 1162.567 152.11 1.20514 0.39
9 2 2 o 327.996 335.793 59.38 1.19731 0.12
11 2 -3 o 151.964 128.842 87.07 1.19369 0.06
11 2 -5 o 190.598 153.599 69.74 1.19114 0.08
4 4 3 o 233.787 238.044 -143.95 1.19866 0.14
1 4 5 o 428.043 462.132 -5.69 1.20391 0.32
12 0 -6 o 1317.191 1272.414 70.54 1.18909 0.28
1 3 -8 o 1209.994 1258.941 19.62 1.20204 0.90
5 4 2 o 466.601 413.925 1.35 1.19428 0.27
6 3 -8 o 3831.835 4169.458 11.28 1.20564 2.86
11 1 0 o 635.609 576.367 167.39 1.18334 0.21
5 1 7 o 379.489 393.751 -138.85 1.19729 0.18
0 2 9 o 755.884 759.125 -177.95 1.19707 0.50
1 1 -10 o 35.837 35.247 -67.18 1.19663 0.03
3 4 4 o 238.669 209.585 -117.81 1.18985 0.15
8 3 -7 o 842.586 857.677 13.87 1.19618 0.53
12 1 -4 o 90.619 81.321 -20.86 1.18191 0.03
7 3 3 o 776.914 720.638 81.85 1.18041 0.36
6 3 4 o 737.761 674.692 -94.44 1.18740 0.35
4 2 7 o 166.273 143.856 103.51 1.19395 0.08
12 1 -5 o 827.845 795.467 53.98 1.17896 0.31
8 2 -9 o 117.907 120.289 112.07 1.19860 0.08
9 3 -6 o 130.973 118.721 -165.29 1.18479 0.07
12 0 -2 o 485.354 465.060 -87.17 1.17733 0.08
11 2 -2 o 211.067 201.481 -96.38 1.17712 0.08
6 4 1 o 716.592 683.986 129.00 1.17711 0.38
2 3 7 o 570.049 515.853 -57.50 1.18413 0.35
2 4 -6 o 1004.266 990.955 141.16 1.19566 0.79
7 4 -2 o 19.504 17.707 -119.93 1.18213 0.01
8 1 -10 o 54.419 48.259 -59.79 1.19435 0.04
7 4 -3 o 275.627 251.179 169.36 1.18188 0.16
10 1 2 o 148.253 142.271 25.54 1.17449 0.05
5 3 5 o 939.680 859.860 122.45 1.18155 0.47
4 0 8 o 90.677 84.236 67.59 1.18805 0.02
12 1 -3 o 1106.435 1058.558 -35.14 1.17319 0.39
3 4 -6 o 19.207 19.929 6.90 1.19740 0.02
11 2 -6 o 322.935 301.797 86.85 1.17226 0.15
6 4 -5 o 134.897 121.665 7.08 1.18589 0.09
9 3 0 o 160.621 149.740 -142.78 1.17172 0.07
7 4 -1 o 714.222 658.541 66.39 1.17077 0.39
1 4 -6 o 91.762 83.178 -177.52 1.18442 0.07
0 0 10 o 2504.064 2270.635 87.63 1.18415 0.80
11 1 -8 o 1282.906 1249.771 171.23 1.17351 0.64
10 1 -9 o 684.722 646.665 148.54 1.17970 0.39
4 4 -6 o 3046.216 2775.002 38.00 1.18952 2.30
12 1 -6 o 388.570 410.302 154.86 1.16460 0.15
2 1 9 o 1079.857 1030.865 19.94 1.17751 0.61
4 2 -10 o 25.642 24.479 132.90 1.17704 0.02
5 2 -10 o 2184.407 2083.343 -123.71 1.17673 1.63
7 4 -4 o 205.472 188.243 -71.68 1.17003 0.12
2 4 5 o 68.857 63.969 127.96 1.16869 0.04
8 3 2 o 1569.922 1682.600 -4.73 1.16123 0.66
10 2 1 o 981.672 1090.134 113.07 1.15998 0.35
5 0 -11 o 902.873 852.410 -104.34 1.17322 0.34
0 3 8 o 1105.006 1045.456 -24.62 1.17295 0.74
7 3 -8 o 3058.758 2935.122 36.39 1.17764 2.06
11 0 1 o 700.031 791.576 80.93 1.15719 0.11
4 3 6 o 59.648 62.114 -72.57 1.16340 0.03
10 3 -4 o 228.268 251.068 -46.38 1.15633 0.10
10 3 -3 o 209.754 227.381 51.19 1.15588 0.09
3 2 -10 o 708.991 668.345 -20.29 1.16823 0.52
5 4 -6 o 23.535 22.229 -158.62 1.17257 0.02
12 1 -2 o 1375.523 1374.845 99.64 1.15355 0.45
0 4 6 o 1198.524 1244.697 93.33 1.16446 0.84
10 2 -8 o 82.544 86.763 84.72 1.16408 0.04
4 1 8 o 346.837 362.711 -48.38 1.16363 0.17
11 2 -1 o 48.285 45.942 151.75 1.15022 0.02
7 4 0 o 372.405 363.494 31.23 1.14876 0.18
6 2 -10 o 102.281 98.261 28.13 1.16732 0.07
0 1 10 o 162.536 179.327 -102.11 1.15997 0.10
7 2 5 o 445.154 436.285 -4.52 1.15296 0.18
10 3 -5 o 129.774 131.400 145.78 1.14590 0.06
10 3 -2 o 445.721 466.400 14.62 1.14459 0.18
9 2 -9 o 5.572 6.286 102.85 1.15723 0.00
3 0 -11 o 2205.015 2420.483 -1.95 1.15690 0.77
3 2 8 o 761.330 819.424 -106.03 1.15571 0.39
1 2 9 o 155.141 165.593 -19.59 1.15551 0.09
8 2 4 o 208.073 202.813 -142.01 1.14879 0.08
7 0 -11 o 725.077 736.060 173.57 1.15386 0.26
7 4 -5 o 838.063 839.122 -108.55 1.14760 0.51
9 3 -7 o 2250.746 2266.680 -107.63 1.14734 1.22
9 1 -10 o 284.935 321.656 121.02 1.15730 0.17
5 4 3 o 471.764 482.712 175.46 1.14555 0.24
6 2 6 o 102.043 103.784 -48.99 1.14538 0.04
2 2 -10 o 516.377 496.519 31.54 1.15090 0.34
6 4 2 o 136.052 141.793 -150.10 1.13709 0.07
5 1 -11 o 109.759 106.320 169.53 1.14969 0.08
11 2 -7 o 314.708 343.183 99.43 1.14343 0.14
4 4 4 o 1256.526 1385.914 110.70 1.14249 0.68
0 5 0 o 836.879 844.382 180.00 1.15380 0.29
6 4 -6 o 820.473 823.056 -85.11 1.14768 0.54
11 1 1 o 174.292 199.306 -57.53 1.13459 0.05
4 1 -11 o 1.035 1.050 -175.99 1.14616 0.00
12 1 -7 o 889.943 989.785 125.50 1.14005 0.37
9 2 3 o 284.339 335.984 166.55 1.13324 0.10
11 0 -9 o 252.568 252.989 21.62 1.14574 0.06
3 3 -9 o 661.563 682.618 91.74 1.14512 0.47
6 1 -11 o 161.447 168.706 -129.59 1.14468 0.11
9 3 1 o 427.803 478.462 -166.72 1.13159 0.16
4 3 -9 o 1484.019 1426.207 -176.71 1.14955 1.05
7 2 -10 o 1419.667 1367.276 140.70 1.14945 0.96
1 5 0 o 231.360 221.441 18.91 1.14948 0.16
8 1 5 o 389.284 385.411 27.55 1.13800 0.14
1 3 8 o 1122.380 1159.389 5.15 1.13747 0.66
3 0 9 o 213.886 231.344 131.60 1.14340 0.05
8 3 -8 o 805.475 892.901 -157.02 1.14298 0.49
0 5 1 o 504.436 497.718 -136.17 1.14836 0.35
1 5 -1 o 391.373 390.361 -129.65 1.14791 0.27
8 4 -3 o 7.961 7.598 151.97 1.12826 0.00
3 3 7 o 556.868 629.389 103.74 1.13460 0.29
5 3 -9 o 962.822 984.304 17.44 1.14545 0.68
8 4 -2 o 15.988 14.594 -130.26 1.12487 0.01
12 1 -1 o 137.946 123.844 69.12 1.12459 0.04
1 4 6 o 514.197 530.098 -38.93 1.13707 0.32
2 5 0 o 435.677 448.224 97.75 1.13682 0.29
10 3 -1 o 29.675 28.316 -5.19 1.12337 0.01
9 1 4 o 260.008 254.947 109.40 1.12945 0.09
7 1 6 o 36.420 40.295 -70.03 1.13525 0.01
1 5 1 o 832.528 917.335 114.95 1.14034 0.56
3 1 -11 o 296.105 330.921 83.60 1.13432 0.19
12 0 -8 o 810.711 768.751 -117.92 1.12814 0.17
3 4 5 o 1046.199 994.299 -121.88 1.12818 0.59
2 5 -1 o 187.036 195.759 139.27 1.13900 0.13
5 2 7 o 155.787 141.876 25.02 1.12671 0.07
2 3 -9 o 906.709 1046.348 -99.26 1.13243 0.60
10 0 -10 o 245.171 251.048 15.07 1.13702 0.07
10 3 -6 o 235.201 209.961 -94.82 1.12543 0.11
3 4 -7 o 161.618 172.656 47.59 1.13591 0.11
1 5 -2 o 768.980 826.894 138.25 1.13574 0.54
7 4 1 o 118.501 111.683 -171.13 1.11785 0.06
7 3 4 o 523.179 488.041 -126.62 1.11597 0.21
6 3 -9 o 313.584 371.165 82.03 1.13308 0.21
11 2 0 o 2774.982 2646.926 -16.52 1.11505 0.89
8 4 -4 o 275.940 280.191 -113.15 1.12149 0.14
0 5 2 o 394.046 469.685 76.71 1.13250 0.27
13 0 -5 o 1959.469 1951.923 75.39 1.11421 0.32
7 1 -11 o 75.542 83.278 99.40 1.13145 0.05
12 2 -4 o 122.765 124.862 79.17 1.11386 0.04
1 2 -10 o 223.182 203.537 93.22 1.12616 0.14
12 2 -3 o 20.408 17.780 57.71 1.10655 0.01
2 4 -7 o 21.941 23.610 -100.68 1.13075 0.01
2 5 -2 o 91.990 99.449 123.75 1.13075 0.06
2 5 1 o 156.756 142.546 102.73 1.12437 0.10
8 4 -1 o 258.558 269.741 -81.25 1.11158 0.12
11 1 -9 o 381.499 349.611 -143.21 1.12379 0.19
12 2 -5 o 1163.343 1236.629 50.37 1.11139 0.43
4 4 -7 o 0.146 0.197 -146.83 1.13282 0.00
10 1 3 o 825.484 828.208 -34.92 1.11036 0.26
3 5 -1 o 32.080 32.250 69.74 1.12223 0.02
13 0 -3 o 745.224 569.639 -110.47 1.10250 0.11
3 1 9 o 192.876 195.094 65.46 1.12158 0.09
6 1 7 o 905.622 947.654 51.55 1.12145 0.36
6 3 5 o 111.087 104.956 102.06 1.11542 0.05
1 5 2 o 694.565 712.587 -32.32 1.12123 0.46
2 1 -11 o 400.504 389.557 21.69 1.11492 0.24
12 0 0 o 2085.146 2012.896 0.33 1.10829 0.30
10 2 2 o 122.289 114.674 -142.58 1.10764 0.04
8 2 -10 o 147.706 135.559 127.87 1.12426 0.09
1 1 10 o 130.562 125.168 -0.85 1.11848 0.07
8 3 3 o 196.821 162.874 99.55 1.10591 0.08
3 5 -2 o 1585.041 1485.857 34.29 1.11784 1.02
1 4 -7 o 1000.862 936.634 -177.77 1.11769 0.64
5 4 -7 o 1517.728 1562.832 -54.14 1.12170 0.99
3 5 0 o 429.007 395.831 -98.45 1.11660 0.26
7 4 -6 o 105.562 96.351 129.11 1.11636 0.06
1 0 -11 o 3575.290 3454.599 -172.27 1.10904 1.04
12 1 -8 o 963.942 917.910 159.38 1.10717 0.40
11 2 -8 o 245.720 224.306 17.64 1.10682 0.11
1 3 -9 o 2410.693 2536.340 -111.41 1.11229 1.48
10 2 -9 o 47.129 51.574 -84.76 1.11201 0.02
12 2 -6 o 252.689 227.560 -117.48 1.09934 0.09
8 4 -5 o 7.848 6.063 163.82 1.10508 0.00
10 1 -10 o 11.391 10.589 89.42 1.11556 0.01
2 2 9 o 385.152 387.058 -33.06 1.11018 0.19
5 3 6 o 73.648 56.755 -54.65 1.10431 0.03
2 4 6 o 562.995 424.149 -25.03 1.10384 0.32
12 2 -2 o 2.044 1.843 116.00 1.09003 0.00
1 5 -3 o 251.032 254.309 156.94 1.11396 0.17
7 3 -9 o 553.911 583.771 -164.82 1.11321 0.34
2 5 -3 o 1655.460 1797.999 18.64 1.11272 1.10
3 5 1 o 1476.923 1175.589 34.35 1.10141 0.85
13 1 -5 o 222.318 255.941 -75.33 1.09400 0.07
8 1 -11 o 60.926 62.450 4.61 1.11085 0.04
10 3 0 o 76.666 84.548 15.81 1.09384 0.03
13 1 -4 o 203.801 224.477 165.72 1.09304 0.06
5 4 4 o 2.595 2.759 -149.98 1.09291 0.00
4 5 -1 o 8.850 8.551 -56.50 1.09860 0.01
4 2 8 o 213.460 208.102 112.76 1.09852 0.09
9 3 -8 o 451.943 334.971 -81.31 1.10352 0.24
6 4 3 o 94.720 92.746 -15.94 1.09150 0.04
2 3 8 o 625.981 655.867 -102.59 1.09747 0.33
2 5 2 o 677.157 516.148 -28.13 1.10263 0.41
0 5 3 o 531.466 496.320 27.71 1.10746 0.35
10 3 -7 o 1130.099 1258.379 -102.11 1.09651 0.52
13 1 -3 o 3523.047 3227.753 -3.13 1.08291 1.02
8 4 0 o 760.280 688.639 57.32 1.08942 0.32
12 1 0 o 79.532 71.537 6.48 1.08839 0.02
13 0 -7 o 53.762 49.879 -12.96 1.08763 0.01
9 0 -11 o 250.380 187.763 30.54 1.10371 0.07
3 5 -3 o 1015.204 755.416 41.22 1.10379 0.64
11 3 -4 o 97.739 90.687 4.37 1.08695 0.04
6 4 -7 o 88.970 67.072 -132.51 1.10323 0.05
9 3 2 o 510.699 476.239 36.35 1.08606 0.18
4 5 -2 o 669.324 696.469 -8.54 1.09781 0.40
5 1 8 o 1753.294 1849.380 150.41 1.09776 0.71
13 1 -6 o 177.185 165.834 37.78 1.08571 0.06
0 4 7 o 54.612 57.481 46.37 1.09751 0.03
4 5 0 o 499.560 452.302 4.67 1.09003 0.28
0 2 10 o 37.847 41.956 -15.77 1.09544 0.02
11 3 -3 o 1662.465 1535.160 -80.33 1.08335 0.59
1 1 -11 o 221.641 203.087 79.86 1.08910 0.12
11 1 2 o 793.747 725.185 -92.77 1.08225 0.23
1 5 3 o 503.899 564.529 121.28 1.09359 0.31
2 0 10 o 1765.786 1905.141 12.49 1.09319 0.42
11 3 -5 o 315.288 294.731 53.25 1.08145 0.12
7 4 2 o 166.318 161.551 -6.46 1.08021 0.07
12 2 -7 o 168.097 173.388 -109.55 1.07861 0.06
4 4 5 o 166.820 155.048 126.70 1.08433 0.08
11 3 -2 o 399.260 426.868 58.61 1.07092 0.14
4 3 7 o 3.535 3.227 -122.37 1.08355 0.00
9 2 -10 o 50.073 55.293 -64.47 1.09319 0.03
4 5 -3 o 623.984 571.223 -97.32 1.08772 0.38
5 2 -11 o 146.460 135.797 -146.48 1.08677 0.09
0 3 9 o 641.024 597.630 125.34 1.08588 0.36
9 4 -3 o 773.851 851.125 19.37 1.07426 0.32
8 4 -6 o 3087.068 2969.110 160.99 1.08027 1.57
11 2 1 o 84.908 93.238 105.34 1.07399 0.02
4 2 -11 o 1237.278 1147.738 -82.92 1.08379 0.77
12 2 -1 o 1759.120 1535.614 -123.10 1.06549 0.51
3 5 2 o 784.088 840.261 147.28 1.07778 0.44
8 0 6 o 1439.369 1591.008 150.17 1.07771 0.23
9 4 -4 o 69.204 74.022 -157.23 1.07150 0.03
6 2 -11 o 1016.273 942.424 122.34 1.08253 0.64
13 1 -2 o 94.643 78.123 -53.26 1.06435 0.03
8 3 -9 o 101.981 95.756 89.65 1.08702 0.05
8 2 5 o 1024.837 1146.339 -11.16 1.07688 0.35
9 0 5 o 1450.947 1738.772 87.76 1.07614 0.22
9 2 4 o 370.058 398.618 -86.36 1.06963 0.12
13 1 -7 o 151.273 160.814 -13.44 1.06880 0.05
7 2 6 o 1358.964 1512.387 121.30 1.07455 0.48
9 4 -2 o 72.325 71.940 31.54 1.06824 0.03
9 1 -11 o 3.639 3.372 100.46 1.08405 0.00
1 5 -4 o 425.935 395.184 8.97 1.08419 0.27
11 3 -6 o 279.967 262.716 -151.55 1.06725 0.11
7 4 -7 o 827.890 860.734 74.58 1.07847 0.45
4 5 1 o 42.520 45.757 -99.55 1.07275 0.02
2 5 -4 o 492.880 463.396 76.01 1.08626 0.31
5 5 -2 o 252.285 270.819 -132.62 1.07178 0.14
1 4 7 o 192.914 206.853 66.72 1.07137 0.11
3 5 -4 o 1132.074 1060.121 -98.23 1.08113 0.69
10 3 1 o 307.335 345.521 -148.18 1.05797 0.10
0 5 4 o 400.380 447.266 -177.40 1.07504 0.24
5 5 -1 o 106.164 111.758 142.38 1.06942 0.05
4 0 -12 o 40.122 40.691 134.29 1.06905 0.01
6 0 -12 o 99.033 108.440 -108.61 1.07405 0.03
2 1 10 o 59.367 64.969 -35.19 1.07407 0.03
3 2 -11 o 6.263 6.847 149.93 1.07376 0.00
12 1 -9 o 686.775 690.298 74.64 1.06818 0.28
13 0 -1 o 276.107 367.405 -91.14 1.05588 0.04
2 5 3 o 967.306 1053.857 -85.57 1.07318 0.55
3 4 6 o 160.437 145.451 -172.79 1.06645 0.08
9 4 -5 o 1943.315 1653.935 145.29 1.06016 0.86
11 1 -10 o 301.639 321.954 84.35 1.07102 0.14
8 4 1 o 49.416 43.992 24.08 1.05993 0.02
4 3 -10 o 202.633 216.404 -64.01 1.07086 0.12
10 0 4 o 25.952 23.038 169.10 1.06511 0.00
11 2 -9 o 115.883 99.218 147.47 1.06481 0.05
7 0 7 o 92.645 104.051 -151.14 1.06970 0.02
3 4 -8 o 171.115 188.510 -26.37 1.07406 0.10
4 5 -4 o 760.674 807.316 -48.84 1.06909 0.44
3 2 9 o 24.391 19.418 141.23 1.06294 0.01
11 3 -1 o 73.590 77.693 -131.50 1.05054 0.02
6 2 7 o 741.428 577.976 -152.24 1.06282 0.27
7 2 -11 o 456.694 488.623 28.68 1.07133 0.26
2 4 -8 o 220.804 201.656 -112.25 1.06662 0.13
10 3 -8 o 225.339 171.725 117.57 1.06108 0.11
5 3 -10 o 165.075 176.130 -80.87 1.07063 0.10
4 1 9 o 384.331 340.906 -94.57 1.06602 0.16
4 4 -8 o 38.026 42.304 -142.58 1.07457 0.02
1 2 10 o 343.255 294.191 -77.13 1.06030 0.17
5 5 -3 o 241.259 209.613 -65.17 1.06543 0.13
9 4 -1 o 551.340 663.152 -36.69 1.05387 0.21
8 1 6 o 81.877 76.314 47.19 1.05939 0.03
10 2 3 o 13.947 16.289 5.37 1.05337 0.00
3 3 -10 o 391.216 326.158 -76.54 1.06422 0.22
5 5 0 o 177.071 187.798 93.63 1.05851 0.09
7 3 5 o 38.025 43.396 -119.80 1.05263 0.01
0 1 11 o 184.563 197.891 35.47 1.05823 0.09
9 1 5 o 194.257 243.108 -155.20 1.05790 0.06
8 3 4 o 1613.770 1674.679 57.78 1.04946 0.54
3 3 8 o 78.169 98.601 -51.92 1.05472 0.04
1 3 9 o 856.686 1060.740 9.48 1.05457 0.43
5 4 -8 o 108.601 108.139 51.05 1.06813 0.06
1 5 4 o 374.027 354.438 12.98 1.05933 0.21
6 3 -10 o 162.175 130.897 -33.22 1.06353 0.09
10 1 4 o 289.733 303.831 153.58 1.04741 0.08
12 1 1 o 168.087 172.926 80.94 1.04719 0.04
10 2 -10 o 274.242 327.679 -64.21 1.05781 0.13
2 2 -11 o 2281.840 2676.910 25.42 1.05726 1.27
5 1 -12 o 419.259 496.596 -101.98 1.05684 0.24
13 2 -5 o 81.296 70.682 -117.00 1.03937 0.02
4 1 -12 o 101.324 109.895 109.37 1.05115 0.06
11 3 -7 o 273.976 260.001 77.52 1.04536 0.11
11 0 3 o 158.383 152.499 -30.69 1.04545 0.02
6 1 -12 o 94.698 116.666 -37.46 1.05590 0.06
9 3 -9 o 337.365 445.573 158.87 1.05588 0.17
12 2 -8 o 14.625 15.258 22.57 1.05064 0.01
13 1 -1 o 19.787 17.642 56.21 1.03863 0.01
13 2 -4 o 791.958 711.827 -6.87 1.03854 0.23
13 1 -8 o 598.655 542.741 23.57 1.04444 0.21
6 4 4 o 585.559 494.105 162.51 1.04280 0.22
4 5 2 o 593.255 611.444 -88.53 1.04797 0.29
1 4 -8 o 27.523 31.442 58.59 1.05268 0.02
6 0 8 o 155.421 178.177 -135.18 1.05271 0.03
3 5 3 o 916.387 935.196 -75.94 1.04731 0.46
8 0 -12 o 207.892 229.861 -5.48 1.05178 0.06
6 3 6 o 134.045 134.989 173.35 1.04685 0.05
7 1 7 o 181.551 202.523 39.52 1.05177 0.06
12 2 0 o 149.731 137.159 4.30 1.03455 0.04
2 3 -10 o 205.811 221.498 158.78 1.05107 0.12
5 5 -4 o 193.370 204.965 120.91 1.05082 0.11
6 4 -8 o 0.227 0.282 6.84 1.05509 0.00
5 4 5 o 730.330 647.764 148.54 1.03883 0.30
8 2 -11 o 2428.069 2913.725 15.72 1.05378 1.34
8 4 -7 o 211.284 219.512 -32.82 1.04873 0.10
7 4 3 o 252.548 230.225 73.34 1.03806 0.09
14 0 -4 o 1017.695 951.591 77.50 1.03174 0.13
7 1 -12 o 108.221 111.298 -93.28 1.04839 0.06
9 3 3 o 1657.920 1530.903 -21.09 1.03756 0.52
10 1 -11 o 34.725 39.451 -19.53 1.05245 0.02
5 2 8 o 40.232 33.003 9.70 1.04260 0.01
13 2 -3 o 8.918 8.000 -14.87 1.02984 0.00
6 5 -2 o 534.936 447.010 -90.16 1.04109 0.26
9 4 -6 o 100.863 84.741 -141.22 1.04103 0.04
2 4 7 o 60.385 51.100 -121.81 1.04059 0.03
7 3 -10 o 114.324 119.004 -72.36 1.04996 0.06
2 5 -5 o 27.473 32.242 -32.53 1.05317 0.02
5 5 1 o 194.712 167.890 82.28 1.03981 0.09
3 1 -12 o 126.308 111.178 103.53 1.03915 0.07
1 5 -5 o 57.869 60.365 109.64 1.04837 0.03
3 5 -5 o 269.543 293.871 -24.60 1.05142 0.15
6 5 -3 o 1876.969 1714.571 156.97 1.03808 0.92
2 0 -12 o 490.274 444.547 30.45 1.03787 0.13
2 5 4 o 9.337 8.641 -179.66 1.03791 0.00
13 2 -6 o 114.047 102.439 -76.41 1.03226 0.04
9 4 0 o 226.774 206.767 -110.30 1.03214 0.08
12 0 -10 o 9.692 7.551 -69.43 1.04186 0.00
14 0 -6 o 4331.411 4235.447 -2.01 1.03107 0.61
6 5 -1 o 655.171 615.221 -109.60 1.03610 0.30
1 0 11 o 987.786 842.478 108.96 1.04024 0.23
1 2 -11 o 8.464 7.839 -121.20 1.03517 0.00
11 3 0 o 134.045 127.389 -172.42 1.02355 0.04
11 2 2 o 370.572 321.056 66.20 1.02928 0.10
12 3 -4 o 713.577 707.708 -156.31 1.02262 0.22
11 1 3 o 473.843 388.726 1.45 1.02870 0.12
4 5 -5 o 292.414 240.433 88.84 1.04319 0.16
5 3 7 o 8.532 7.843 -158.24 1.03254 0.00
0 5 5 o 135.745 127.164 -122.13 1.03725 0.07
7 4 -8 o 94.870 90.194 -117.63 1.03618 0.05
6 1 8 o 120.985 114.785 160.61 1.03561 0.04
14 1 -5 o 55.571 55.673 61.30 1.01906 0.02
8 4 2 o 492.503 430.927 113.24 1.02495 0.17
13 0 -9 o 255.889 241.098 172.63 1.03019 0.04
10 3 2 o 237.420 233.086 -151.66 1.01781 0.07
6 5 0 o 46.842 44.786 101.80 1.02345 0.02
12 3 -3 o 344.663 337.786 -23.86 1.01696 0.10
0 4 8 o 53.601 48.059 125.65 1.03298 0.03
6 5 -4 o 183.847 143.064 -130.41 1.02728 0.09
1 3 -10 o 267.593 244.183 20.12 1.03212 0.14
14 1 -4 o 290.906 285.868 -77.66 1.01563 0.08
10 4 -4 o 5.119 5.173 -39.44 1.02157 0.00
10 4 -3 o 450.334 456.137 -118.51 1.02126 0.16
4 4 6 o 599.912 479.892 -137.70 1.02644 0.26
12 3 -5 o 366.474 373.654 57.26 1.02071 0.12
8 1 -12 o 92.677 84.880 -155.31 1.03472 0.05
13 2 -2 o 115.419 117.844 59.08 1.01384 0.03
10 4 -2 o 257.239 264.533 55.59 1.01345 0.08
11 0 -11 o 149.311 132.132 -147.55 1.03365 0.03
5 5 -5 o 138.304 116.828 -49.29 1.02894 0.07
12 0 2 o 339.721 335.135 -9.36 1.01858 0.04
1 1 11 o 585.059 548.374 19.58 1.02373 0.25
3 1 10 o 33.558 27.786 167.39 1.02837 0.01
5 0 9 o 882.008 697.369 64.97 1.02800 0.15
13 2 -7 o 161.433 156.515 -71.17 1.01769 0.05
2 2 10 o 319.957 319.094 159.76 1.02224 0.13
9 2 -11 o 83.830 77.779 134.27 1.03083 0.04
8 3 -10 o 270.055 251.733 61.53 1.03065 0.14
2 1 -12 o 504.468 503.722 -71.03 1.02147 0.25
12 1 -10 o 121.529 103.700 131.97 1.02527 0.05
14 1 -6 o 7.006 6.900 -66.80 1.01499 0.00
5 5 2 o 808.928 813.202 25.36 1.01454 0.35
2 3 9 o 436.860 440.826 19.84 1.01977 0.19
10 4 -5 o 46.628 47.004 8.01 1.01436 0.02
13 1 0 o 162.555 161.725 -163.03 1.00732 0.04
12 2 -9 o 107.446 104.673 -46.04 1.01716 0.04
11 3 -8 o 164.614 160.341 -175.48 1.01717 0.07
4 5 3 o 697.587 683.663 167.18 1.01723 0.32
12 3 -6 o 18.725 19.970 -92.83 1.01135 0.01
10 3 -9 o 649.716 666.921 161.12 1.02119 0.29
14 1 -3 o 214.305 229.127 146.74 1.00492 0.05
1 5 5 o 35.688 36.401 158.52 1.02043 0.02
9 4 1 o 1054.536 1125.037 43.00 1.00439 0.35
9 4 -7 o 443.672 437.128 61.14 1.01536 0.20
4 2 9 o 243.256 240.922 170.70 1.01529 0.09
12 3 -2 o 422.013 455.419 -86.19 1.00409 0.12
11 2 -10 o 954.761 968.406 -113.94 1.01960 0.41
13 1 -9 o 119.687 121.427 7.32 1.01414 0.04
9 2 5 o 173.206 176.150 166.37 1.00826 0.05
14 0 -2 o 407.452 423.221 -13.97 1.00239 0.05
11 1 -11 o 136.003 132.693 48.16 1.01745 0.06
7 5 -2 o 815.332 820.106 134.52 1.00706 0.35
3 5 4 o 191.396 203.414 -124.66 1.01183 0.09
4 3 8 o 249.892 267.021 138.15 1.01072 0.10
12 2 1 o 210.646 210.237 80.95 0.99898 0.05
10 4 -1 o 254.387 250.617 -177.43 0.99863 0.08
8 2 6 o 65.406 69.104 34.63 1.00955 0.02
6 5 1 o 1.210 1.333 -104.03 1.00396 0.00
3 4 -9 o 187.679 191.817 -150.24 1.01381 0.10
14 1 -7 o 92.421 106.549 21.91 1.00367 0.03
0 2 11 o 2123.822 2184.619 59.08 1.00855 0.97
1 4 8 o 26.765 27.448 72.02 1.00849 0.01
0 3 10 o 220.027 225.032 -172.64 1.00831 0.10
12 1 2 o 7.187 8.023 -52.19 1.00306 0.00
4 4 -9 o 103.719 101.624 99.52 1.01689 0.05
8 4 -8 o 116.355 123.196 -94.90 1.01233 0.05
5 1 9 o 88.490 94.347 -32.62 1.01206 0.03
7 5 -3 o 1931.739 1937.569 173.84 1.00691 0.84
9 1 -12 o 13.741 13.604 11.78 1.01560 0.01
2 5 -6 o 395.211 389.661 110.74 1.01539 0.21
3 4 7 o 225.724 228.175 -44.22 1.00650 0.10
14 0 -8 o 145.772 152.336 106.63 1.00054 0.02
10 4 -6 o 1104.455 1127.794 22.52 1.00008 0.43
7 5 -1 o 274.559 278.298 -168.10 1.00001 0.11
6 5 -5 o 514.786 541.325 -73.82 1.00939 0.24
10 2 4 o 127.154 127.941 -52.63 0.99917 0.03
3 5 -6 o 20.259 19.934 170.56 1.01646 0.01
1 5 -6 o 383.143 392.665 173.83 1.00848 0.19
7 2 7 o 66.412 71.634 62.54 1.00295 0.02
5 2 -12 o 1191.236 1213.233 124.06 1.00735 0.63
13 2 -1 o 72.415 74.654 33.89 0.99154 0.02
11 3 1 o 32.561 33.267 16.11 0.99151 0.01
6 2 -12 o 4.255 4.338 101.44 1.00654 0.00
9 3 -10 o 19.664 19.645 -143.18 1.00656 0.01
5 4 -9 o 330.149 336.102 -108.34 1.01405 0.17
13 2 -8 o 385.577 359.180 35.42 0.99659 0.12
2 4 -9 o 65.581 69.429 56.30 1.00498 0.03
12 3 -7 o 94.830 82.988 -165.82 0.99515 0.03
7 5 -4 o 807.720 818.161 23.26 0.99955 0.36
4 5 -6 o 8.076 8.653 84.80 1.01162 0.00
1 1 -12 o 74.207 73.542 19.44 0.99898 0.03
8 3 5 o 79.438 68.369 12.46 0.99378 0.02
2 5 5 o 222.494 220.340 46.42 0.99872 0.10
7 4 4 o 151.066 133.678 131.78 0.99342 0.05
10 0 -12 o 340.302 343.008 -66.22 1.00692 0.08
14 1 -2 o 200.655 199.116 -22.14 0.98759 0.05
6 4 5 o 0.792 0.729 144.88 0.99304 0.00
4 2 -12 o 19.717 20.635 -155.72 1.00242 0.01
7 3 6 o 100.999 100.042 163.37 0.99195 0.03
5 3 -11 o 25.968 26.705 153.04 1.00154 0.01
13 0 1 o 551.328 560.283 -9.59 0.98617 0.06
7 2 -12 o 1865.207 1887.740 49.65 1.00003 0.95
12 3 -1 o 150.646 154.609 8.54 0.98481 0.04
10 2 -11 o 2124.301 2327.344 -114.32 1.00354 0.96
4 3 -11 o 168.184 167.988 -57.22 0.99920 0.08
6 4 -9 o 60.394 62.695 -167.61 1.00543 0.03
9 3 4 o 107.345 110.409 42.30 0.98808 0.03
4 0 10 o 539.591 511.236 -124.30 0.99720 0.10
5 5 -6 o 70.122 70.874 -104.80 1.00113 0.03
3 2 -12 o 623.894 608.868 -96.91 0.99199 0.31
0 5 6 o 89.757 81.848 -99.44 0.99607 0.04
9 1 6 o 322.611 356.837 8.22 0.99139 0.08
8 4 3 o 32.736 33.273 -6.58 0.98630 0.01
7 5 0 o 125.772 127.998 -86.07 0.98619 0.05
5 0 -13 o 37.652 38.600 100.24 0.99097 0.01
14 1 -8 o 198.162 212.256 69.95 0.98582 0.06
5 4 6 o 51.382 53.031 124.80 0.98517 0.02
6 3 -11 o 38.207 37.308 21.34 0.99822 0.02
5 5 3 o 890.806 899.366 -175.05 0.98416 0.35
6 2 8 o 53.181 57.283 -115.11 0.98891 0.02
10 4 0 o 1552.711 1581.858 -51.01 0.97771 0.47
8 1 7 o 231.463 239.474 -44.30 0.98814 0.06
11 2 3 o 31.199 29.864 49.48 0.98289 0.01
10 1 5 o 2.408 2.238 178.78 0.98715 0.00
3 3 -11 o 179.020 183.839 -48.25 0.99133 0.09
0 0 12 o 1423.900 1449.396 -121.00 0.98679 0.30
1 4 -9 o 266.612 286.468 110.58 0.99082 0.13
10 3 3 o 1247.258 1203.208 -3.50 0.97521 0.33
7 5 -5 o 323.119 338.984 -132.67 0.98546 0.14
14 2 -5 o 697.332 653.995 -53.46 0.97447 0.18
9 4 -8 o 211.054 221.540 -102.43 0.98461 0.09
7 0 -13 o 190.076 199.679 -64.43 0.98884 0.05
11 3 -9 o 415.104 428.074 5.78 0.98428 0.16
6 5 2 o 144.801 148.723 -123.88 0.97878 0.05
10 1 -12 o 39.751 39.321 -101.88 0.99193 0.02
11 4 -4 o 14.222 12.837 53.72 0.97278 0.00
7 4 -9 o 85.441 90.064 42.28 0.99147 0.04
3 3 9 o 287.577 278.912 -137.16 0.98280 0.11
6 3 7 o 340.005 327.740 48.52 0.98271 0.11
3 2 10 o 73.193 70.792 -126.65 0.98260 0.03
9 4 2 o 70.220 62.545 42.92 0.97215 0.02
2 1 11 o 370.366 374.316 -55.08 0.98692 0.14
13 1 1 o 43.718 39.121 -14.22 0.97207 0.01
4 5 4 o 72.580 70.352 -77.55 0.98222 0.03
14 2 -4 o 7.997 7.038 74.39 0.97147 0.00
14 2 -6 o 97.485 84.089 -41.94 0.97091 0.02
7 3 -11 o 5.695 6.141 -54.63 0.98942 0.00
6 5 -6 o 327.727 346.775 -47.77 0.98551 0.15
1 3 10 o 263.504 263.617 175.94 0.98071 0.11
11 1 4 o 46.424 46.106 -76.49 0.97569 0.01
11 4 -3 o 255.388 218.838 -59.29 0.97020 0.08
2 4 8 o 170.747 172.620 28.98 0.98030 0.07
12 2 -10 o 46.629 47.986 -40.89 0.97990 0.02
8 2 -12 o 89.680 92.730 153.01 0.98814 0.04
13 1 -10 o 113.045 117.985 -61.56 0.97957 0.04
10 4 -7 o 11.050 11.432 -165.59 0.97962 0.00
1 5 6 o 77.857 80.623 130.56 0.97877 0.04
1 2 11 o 94.894 97.333 -111.35 0.97855 0.04
4 1 10 o 370.949 357.031 0.19 0.98263 0.13
8 5 -3 o 1730.054 1574.187 10.63 0.97313 0.66
12 3 -8 o 393.271 356.630 -23.77 0.97305 0.13
5 1 -13 o 183.601 182.964 33.42 0.97666 0.09
2 2 -12 o 339.386 338.393 -129.04 0.97658 0.15
15 0 -5 o 68.889 60.750 -42.14 0.96601 0.01
12 1 -11 o 45.680 46.371 62.23 0.98036 0.02
8 5 -2 o 64.104 55.075 130.12 0.97095 0.02
14 1 -1 o 7.712 7.638 37.33 0.96467 0.00
10 3 -10 o 220.945 230.252 18.75 0.97873 0.09
13 2 0 o 562.597 590.572 -154.84 0.96419 0.13
13 3 -5 o 120.353 127.821 104.62 0.96407 0.03
6 1 -13 o 467.962 476.797 -161.00 0.97828 0.23
2 3 -11 o 219.155 224.557 65.65 0.97830 0.10
11 4 -5 o 699.071 587.095 3.30 0.96883 0.23
8 5 -4 o 545.216 459.146 81.81 0.96877 0.21
13 3 -4 o 152.285 172.465 -89.57 0.96342 0.04
7 1 8 o 449.864 457.754 49.71 0.97762 0.13
3 5 5 o 103.581 94.274 27.38 0.97308 0.04
0 1 12 o 48.121 43.285 39.09 0.97267 0.02
14 2 -3 o 305.333 366.018 -111.11 0.96208 0.07
0 4 9 o 35.088 31.170 41.07 0.97202 0.02
3 0 -13 o 102.086 90.620 108.97 0.97167 0.02
11 4 -2 o 43.179 48.931 33.49 0.96124 0.01
7 5 1 o 148.182 132.188 -133.42 0.96643 0.05
12 2 2 o 44.498 48.356 95.01 0.96045 0.01
7 1 -13 o 155.408 147.029 -101.16 0.97463 0.08
4 4 7 o 224.176 191.808 -135.92 0.97034 0.08
12 3 0 o 254.532 271.357 -137.07 0.96023 0.06
13 2 -9 o 127.033 107.314 -121.63 0.97017 0.04
4 1 -13 o 145.727 124.094 -22.20 0.96985 0.07
11 2 -11 o 6.647 6.020 104.66 0.97306 0.00
8 4 -9 o 17.088 15.442 -60.11 0.97283 0.01
13 3 -6 o 27.668 26.015 134.02 0.95839 0.01
5 2 9 o 11.232 9.483 19.36 0.96835 0.00
8 3 -11 o 32.364 31.602 28.03 0.97555 0.01
15 0 -7 o 1063.363 931.991 -162.37 0.95728 0.13
14 1 -9 o 669.859 881.786 -80.28 0.96247 0.20
8 5 -1 o 44.830 52.010 -121.66 0.96237 0.02
3 5 -7 o 218.121 224.608 106.05 0.97802 0.10
2 5 -7 o 143.252 135.444 175.04 0.97473 0.07
5 3 8 o 857.061 748.160 154.91 0.96665 0.28
13 3 -3 o 1038.586 919.827 -171.97 0.95646 0.26
11 3 2 o 175.188 154.743 -84.47 0.95601 0.04
14 2 -7 o 278.447 317.235 -170.63 0.96099 0.08
4 5 -7 o 224.457 224.081 53.72 0.97605 0.11
9 2 -12 o 1312.715 1145.851 -99.07 0.97144 0.59
11 4 -6 o 21.547 20.594 29.14 0.95859 0.01
15 1 -5 o 12.310 10.949 93.06 0.95275 0.00
12 1 3 o 350.336 312.706 -110.40 0.95775 0.08
1 5 -7 o 157.998 139.749 -118.08 0.96632 0.07
8 1 -13 o 657.794 604.696 115.58 0.96588 0.31
10 4 1 o 73.622 67.936 -63.79 0.95184 0.02
9 0 -13 o 20.590 19.070 -25.90 0.96569 0.00
15 1 -6 o 71.718 65.178 -3.90 0.95159 0.02
7 5 -6 o 143.470 132.856 171.90 0.96546 0.06
5 5 -7 o 383.170 321.602 139.94 0.96891 0.18
1 3 -11 o 26.920 29.501 -106.99 0.96072 0.01
14 0 0 o 721.242 723.843 -125.12 0.94996 0.07
15 0 -3 o 171.410 175.025 -151.58 0.94959 0.02
3 1 -13 o 165.006 155.916 90.38 0.95817 0.08
8 5 -5 o 10.488 9.721 160.66 0.95814 0.00
3 0 11 o 2761.102 3258.744 -48.99 0.96205 0.48
15 1 -4 o 67.175 74.118 -158.54 0.94779 0.01
2 5 6 o 24.265 21.792 -164.52 0.95733 0.01
4 4 -10 o 408.300 468.510 165.58 0.96120 0.20
1 2 -12 o 413.506 372.006 53.90 0.95687 0.18
11 1 -12 o 150.424 148.941 -168.96 0.96473 0.06
14 2 -2 o 48.946 54.289 -11.66 0.94685 0.01
6 1 9 o 506.644 554.499 131.99 0.96050 0.15
11 4 -1 o 471.645 513.685 -148.74 0.94642 0.13
9 2 6 o 1360.878 1349.510 -3.47 0.95019 0.34
5 5 4 o 269.762 266.474 -175.77 0.95018 0.10
15 1 -7 o 223.036 226.491 58.78 0.94436 0.05
10 4 -8 o 311.149 280.074 -19.48 0.95410 0.11
6 5 3 o 398.464 411.494 48.71 0.94925 0.14
0 6 0 o 225.256 266.715 0.00 0.96150 0.05
13 3 -2 o 120.795 122.932 -93.32 0.94360 0.03
5 4 -10 o 81.240 92.232 79.83 0.96103 0.04
6 5 -7 o 1.208 0.996 8.69 0.95693 0.00
7 4 5 o 1537.968 1669.330 -14.94 0.94795 0.47
8 5 0 o 93.052 100.601 30.33 0.94788 0.03
3 4 -10 o 37.257 33.109 -26.71 0.95639 0.02
13 3 -7 o 26.532 29.973 -9.02 0.94670 0.01
1 6 0 o 1643.433 1611.102 12.55 0.95900 0.77
13 0 -11 o 1069.754 947.242 171.98 0.95511 0.18
10 2 5 o 801.831 897.512 -118.11 0.94645 0.19
0 6 1 o 174.135 162.347 150.83 0.95835 0.08
2 3 10 o 372.254 364.624 19.78 0.95036 0.14
1 6 -1 o 175.948 161.677 -140.59 0.95808 0.08
8 4 4 o 182.424 195.012 -73.31 0.94563 0.05
14 2 -8 o 47.731 50.038 18.33 0.94529 0.01
9 3 -11 o 840.301 751.283 -108.14 0.95725 0.35
1 6 1 o 130.078 116.890 69.32 0.95367 0.06
3 4 8 o 48.930 50.019 143.90 0.94948 0.02
1 4 9 o 228.176 234.380 -40.17 0.94937 0.09
4 5 5 o 50.415 52.009 55.75 0.94452 0.02
0 5 7 o 326.272 292.318 -111.18 0.95320 0.14
2 6 -1 o 190.593 170.038 -34.62 0.95289 0.09
6 4 6 o 314.483 320.581 129.79 0.94372 0.10
6 4 -10 o 715.511 630.260 104.62 0.95589 0.33
2 6 0 o 14.082 12.894 176.38 0.95161 0.01
14 0 -10 o 93.720 107.014 26.79 0.94735 0.01
8 2 7 o 161.566 181.858 -168.60 0.94733 0.04
11 4 -7 o 164.166 165.987 -80.66 0.94263 0.06
14 1 0 o 236.186 239.594 -106.42 0.93734 0.05
15 1 -3 o 334.047 333.863 -163.80 0.93698 0.07
9 4 3 o 215.836 216.691 108.53 0.93690 0.06
12 3 -9 o 652.772 725.361 57.73 0.94627 0.22
7 5 2 o 193.830 199.341 -67.60 0.94179 0.07
2 2 11 o 577.004 628.468 -56.71 0.94625 0.21
9 4 -9 o 166.545 163.994 -100.56 0.95032 0.07
3 1 11 o 63.596 66.666 179.37 0.94894 0.02
9 1 -13 o 378.885 344.775 137.52 0.95244 0.17
4 3 9 o 288.908 300.249 -103.10 0.94477 0.10
8 3 6 o 52.076 55.272 98.06 0.94014 0.01
11 3 -10 o 50.596 55.091 103.80 0.94824 0.02
13 1 2 o 295.374 312.149 132.41 0.93440 0.06
9 3 5 o 70.236 73.928 114.14 0.93910 0.02
1 1 12 o 70.267 71.785 -59.03 0.94354 0.03
12 0 -12 o 864.781 963.267 176.12 0.94752 0.16
1 6 -2 o 70.199 66.396 -19.27 0.95098 0.03
10 2 -12 o 53.500 51.572 97.35 0.95067 0.02
2 4 -10 o 722.619 797.384 -30.72 0.94681 0.32
10 0 6 o 982.982 1001.778 38.32 0.94276 0.11
13 2 1 o 153.092 168.499 -152.90 0.93314 0.03
9 0 7 o 97.094 98.654 -120.82 0.94258 0.01
4 2 10 o 100.729 102.206 -109.98 0.94247 0.03
13 1 -11 o 8.834 8.902 49.72 0.94228 0.00
9 5 -3 o 269.385 276.433 53.71 0.93784 0.09
2 1 -13 o 697.629 716.275 85.73 0.94214 0.29
8 5 -6 o 18.170 18.530 -83.65 0.94183 0.01
0 6 2 o 62.598 65.466 44.52 0.94907 0.03
10 3 4 o 169.416 182.246 -47.09 0.93174 0.04
12 3 1 o 100.833 107.141 116.92 0.93158 0.02
11 0 5 o 565.164 550.279 8.02 0.93653 0.06
11 2 4 o 10.914 10.693 -14.44 0.93634 0.00
9 5 -4 o 268.601 265.311 -148.35 0.93601 0.09
2 6 -2 o 103.977 113.895 62.11 0.94804 0.05
2 6 1 o 807.882 825.361 36.09 0.94427 0.36
13 2 -10 o 826.075 888.350 107.86 0.93977 0.26
0 3 11 o 206.359 216.396 77.30 0.93933 0.08
7 3 7 o 372.599 380.867 -117.55 0.93480 0.10
3 6 -1 o 35.797 36.144 -148.54 0.94300 0.02
7 4 -10 o 94.978 103.510 -52.20 0.94600 0.04
1 6 2 o 203.819 206.210 -43.75 0.94241 0.09
9 5 -2 o 426.502 455.509 40.97 0.93383 0.14
7 2 8 o 79.707 82.679 -32.10 0.93805 0.02
5 4 7 o 42.940 46.660 -60.17 0.93320 0.01
8 5 1 o 131.279 116.427 48.49 0.92826 0.04
5 2 -13 o 165.279 167.514 -83.96 0.93720 0.07
7 5 -7 o 157.125 166.730 -149.01 0.94064 0.06
12 2 -11 o 1724.959 1844.901 164.19 0.94047 0.61
3 6 -2 o 27.454 29.253 -103.88 0.94039 0.01
15 1 -8 o 878.249 962.103 -74.68 0.93148 0.22
14 2 -1 o 170.708 143.697 110.64 0.92659 0.04
1 5 7 o 8.363 8.231 -102.57 0.93592 0.00
11 4 0 o 76.997 66.047 -171.30 0.92655 0.02
3 6 0 o 318.193 338.998 -77.57 0.93966 0.14
12 4 -4 o 116.544 100.099 9.28 0.92586 0.03
14 1 -10 o 81.044 81.791 -54.27 0.93483 0.02
13 3 -1 o 31.426 27.167 -103.82 0.92554 0.01
6 2 -13 o 211.342 219.498 -10.21 0.93863 0.09
1 0 -13 o 413.932 430.052 -131.22 0.93444 0.08
5 3 -12 o 171.896 177.962 158.32 0.93836 0.07
13 3 -8 o 323.505 303.201 -7.21 0.92964 0.09
5 1 10 o 487.727 501.914 -140.71 0.93780 0.14
6 3 -12 o 33.319 34.062 -102.20 0.93770 0.01
12 4 -5 o 26.269 23.581 178.31 0.92444 0.01
0 2 12 o 84.803 90.310 -35.82 0.93367 0.03
9 5 -1 o 12.912 11.605 20.44 0.92419 0.00
1 4 -10 o 4.085 4.449 -142.57 0.93289 0.00
9 5 -5 o 37.737 33.187 -58.56 0.92842 0.01
3 5 6 o 11.653 12.779 -16.46 0.93263 0.00
8 0 8 o 169.896 160.076 152.75 0.93598 0.02
7 2 -13 o 4.584 4.636 40.06 0.93540 0.00
10 4 2 o 53.148 46.493 -4.45 0.92228 0.01
10 3 -11 o 552.258 548.286 -64.97 0.93528 0.21
4 2 -13 o 330.257 339.641 173.31 0.93118 0.14
12 1 -12 o 7.045 7.105 -73.09 0.93499 0.00
12 4 -3 o 56.775 48.616 129.35 0.92165 0.01
1 6 -3 o 16.229 16.865 144.20 0.93808 0.01
3 6 1 o 118.076 119.318 -75.97 0.93055 0.05
4 3 -12 o 68.211 71.117 148.79 0.93437 0.03
10 1 6 o 168.092 172.560 3.61 0.93042 0.04
3 5 -8 o 395.627 406.779 75.66 0.93771 0.18
0 6 3 o 23.074 24.548 71.82 0.93419 0.01
9 1 7 o 106.236 106.888 -81.40 0.93024 0.02
15 1 -2 o 534.866 440.223 177.66 0.92091 0.10
2 6 -3 o 141.023 143.135 162.83 0.93733 0.06
15 0 -9 o 279.274 243.648 -46.72 0.92531 0.03
12 2 3 o 373.503 291.738 -113.26 0.92046 0.08
14 2 -9 o 357.722 325.579 -3.75 0.92464 0.10
4 6 -1 o 33.674 29.718 -173.01 0.92885 0.02
2 5 -8 o 147.420 163.065 -97.39 0.93275 0.07
11 1 5 o 112.821 105.004 1.51 0.92443 0.02
12 0 4 o 256.538 242.801 -158.10 0.92425 0.03
4 5 -8 o 148.019 153.657 139.50 0.93805 0.07
11 3 3 o 274.810 196.025 -129.59 0.91849 0.06
10 1 -13 o 218.167 223.082 -54.17 0.93489 0.09
2 6 2 o 4.496 4.753 -98.29 0.93128 0.00
3 3 -12 o 85.354 73.803 68.52 0.92591 0.04
7 3 -12 o 54.579 59.024 7.17 0.93243 0.02
15 2 -5 o 48.853 45.049 150.67 0.91601 0.01
10 4 -9 o 0.681 0.618 5.19 0.92479 0.00
3 6 -3 o 272.798 297.461 -165.01 0.93198 0.12
8 4 -10 o 394.799 428.460 -112.86 0.93181 0.16
4 6 -2 o 3.361 2.936 75.13 0.92837 0.00
2 0 12 o 97.812 87.091 104.11 0.92420 0.02
15 2 -6 o 633.271 583.892 -175.24 0.91498 0.14
8 2 -13 o 329.837 286.872 -8.99 0.92766 0.14
8 1 8 o 520.391 486.197 83.44 0.92390 0.13
2 4 9 o 173.067 156.542 -10.64 0.92374 0.06
4 6 0 o 179.698 163.104 126.07 0.92366 0.07
5 5 -8 o 468.645 515.756 -27.45 0.93375 0.21
6 3 8 o 360.836 326.311 -19.51 0.92340 0.10
6 2 9 o 6.006 5.418 61.40 0.92289 0.00
11 2 -12 o 1451.498 1227.500 142.67 0.92664 0.54
1 1 -13 o 806.533 701.742 -107.77 0.92242 0.31
1 6 3 o 44.417 38.068 -32.81 0.92582 0.02
11 4 -8 o 68.570 60.560 96.55 0.92181 0.02
6 0 -14 o 19.248 16.285 -103.90 0.92171 0.00
12 4 -6 o 1003.398 797.542 -120.09 0.91747 0.29
4 4 8 o 49.344 41.451 -159.19 0.91699 0.02
12 4 -2 o 46.593 47.531 -171.40 0.91204 0.01
6 5 4 o 68.933 59.105 80.97 0.91669 0.02
3 2 -13 o 39.883 32.091 -138.21 0.92083 0.02
8 5 -7 o 247.310 198.609 -171.68 0.92072 0.09
14 3 -5 o 131.754 136.049 33.86 0.91161 0.03
15 2 -4 o 243.000 250.839 -86.75 0.91160 0.05
15 0 -1 o 254.615 261.774 117.10 0.91156 0.02
1 5 -8 o 346.598 313.335 -166.67 0.92338 0.15
7 0 9 o 72.951 66.378 -25.23 0.92338 0.01
11 0 -13 o 220.102 190.708 93.91 0.92563 0.04
9 5 0 o 60.779 68.432 -17.14 0.90942 0.02
4 6 -3 o 65.441 58.528 -80.32 0.92225 0.03
3 3 10 o 86.833 64.075 50.97 0.91826 0.03
5 5 5 o 172.454 164.626 42.77 0.91399 0.06
14 3 -4 o 365.099 420.605 64.16 0.90915 0.08
15 1 -9 o 365.847 354.699 -43.64 0.91363 0.09
6 5 -8 o 23.027 20.154 -22.89 0.92501 0.01
7 5 3 o 191.762 186.300 113.44 0.91347 0.06
14 3 -6 o 97.312 112.619 94.59 0.90869 0.02
15 2 -7 o 88.424 103.895 -28.15 0.90855 0.02
12 1 4 o 392.103 401.719 34.84 0.91261 0.08
3 6 2 o 7.460 6.811 155.71 0.91616 0.00
12 3 -10 o 186.893 174.648 162.37 0.91605 0.06
14 1 1 o 75.911 83.378 22.40 0.90685 0.01
8 3 -12 o 0.222 0.187 122.97 0.92277 0.00
9 5 -6 o 73.091 67.855 47.08 0.91549 0.02
0 4 10 o 852.001 787.068 -94.00 0.91520 0.33
2 5 7 o 269.013 248.650 116.77 0.91519 0.10
1 3 11 o 26.089 24.254 -143.54 0.91495 0.01
16 0 -6 o 431.903 504.059 -164.21 0.90563 0.05
2 6 -4 o 139.227 119.931 93.86 0.92136 0.06
2 3 -12 o 98.606 96.236 108.77 0.91334 0.04
8 5 2 o 119.068 132.373 -97.66 0.90449 0.03
2 6 3 o 37.377 36.561 3.36 0.91333 0.01
4 6 1 o 251.600 248.276 -98.30 0.91307 0.10
1 6 -4 o 84.668 61.702 -118.83 0.92009 0.04
3 2 11 o 67.298 67.376 176.45 0.91262 0.02
2 1 12 o 54.859 54.997 -161.28 0.91256 0.02
5 6 -2 o 52.917 53.362 -84.66 0.91247 0.02
13 3 -9 o 119.674 139.546 -135.29 0.90809 0.04
13 3 0 o 284.143 311.383 -140.63 0.90318 0.06
8 0 -14 o 53.765 49.397 -170.13 0.91516 0.01
11 4 1 o 377.639 418.788 -106.81 0.90258 0.09
14 2 0 o 41.332 45.988 38.93 0.90229 0.01
3 6 -4 o 405.049 288.761 87.50 0.91822 0.17
5 6 -1 o 94.418 100.049 -26.16 0.91101 0.04
4 0 -14 o 556.250 593.098 80.79 0.91081 0.11
15 2 -3 o 202.547 227.090 -110.39 0.90197 0.04
10 5 -3 o 515.335 577.210 -122.20 0.90196 0.15
13 0 3 o 46.803 49.940 -91.04 0.90662 0.00
0 6 4 o 88.618 82.480 92.47 0.91448 0.04
6 1 -14 o 246.622 270.237 -80.15 0.91016 0.11
14 3 -3 o 318.808 359.927 -140.67 0.90144 0.07
9 4 -10 o 72.120 68.603 140.46 0.91389 0.03
0 5 8 o 409.695 458.963 22.85 0.91000 0.16
4 5 6 o 34.010 38.339 75.04 0.90552 0.01
12 4 -7 o 193.880 221.037 114.67 0.90532 0.06
14 3 -7 o 126.357 143.685 1.56 0.90055 0.03
15 1 -1 o 25.808 28.968 164.65 0.90039 0.00
12 3 2 o 157.361 172.871 100.03 0.90011 0.03
9 2 -13 o 56.085 50.981 -33.87 0.91574 0.02
9 4 4 o 69.801 75.456 147.77 0.89999 0.02
5 6 -3 o 64.649 75.172 -90.43 0.90854 0.02
7 5 -8 o 468.920 477.874 -131.41 0.91218 0.19
8 4 5 o 187.773 207.870 35.48 0.90429 0.05
13 2 2 o 257.488 275.805 77.20 0.89967 0.05
7 1 9 o 96.781 98.841 -159.01 0.91177 0.02
1 2 12 o 751.704 853.091 4.48 0.90782 0.26
16 0 -4 o 362.228 359.605 -137.09 0.89867 0.03
5 1 -14 o 548.189 617.682 -128.36 0.90697 0.23
7 4 6 o 32.615 35.964 -27.38 0.90291 0.01
4 6 -4 o 8.678 9.296 -36.47 0.91081 0.00
11 1 -13 o 263.004 250.965 -11.10 0.91394 0.10
4 1 11 o 84.461 90.675 -169.06 0.91074 0.02
11 3 -11 o 7.403 8.085 141.41 0.91046 0.00
13 2 -11 o 8.223 8.994 -9.12 0.90670 0.00
2 2 -13 o 113.983 128.155 -91.87 0.90657 0.04
5 3 9 o 138.942 155.844 109.07 0.90659 0.04
5 4 -11 o 481.676 536.606 78.89 0.91013 0.21
10 5 -4 o 49.651 55.355 28.73 0.90217 0.01
12 4 -1 o 45.341 43.529 -13.71 0.89752 0.01
15 2 -8 o 14.503 13.594 144.29 0.89706 0.00
7 1 -14 o 257.174 290.672 105.96 0.90911 0.11
10 5 -2 o 173.953 164.170 40.95 0.89656 0.05
4 4 -11 o 84.333 96.989 44.25 0.90837 0.04
13 1 3 o 245.172 231.788 -95.65 0.89563 0.05
14 2 -10 o 89.088 99.814 -8.34 0.90005 0.02
5 6 0 o 851.604 946.835 159.71 0.90424 0.31
14 1 -11 o 489.098 533.074 52.88 0.90411 0.14
16 1 -6 o 606.057 563.823 -107.21 0.89468 0.12
5 2 10 o 446.995 493.364 50.58 0.90270 0.13
16 1 -5 o 201.602 179.801 -82.42 0.89383 0.04
9 3 -12 o 124.056 143.131 -25.95 0.90913 0.05
6 0 10 o 13.426 16.043 84.55 0.90547 0.00
10 5 -5 o 145.890 138.445 -2.70 0.89719 0.04
15 2 -2 o 12.501 11.285 -109.41 0.88761 0.00
1 6 4 o 139.832 158.766 -150.44 0.90475 0.06
6 4 -11 o 184.497 209.279 -112.34 0.90763 0.08
16 0 -8 o 63.274 55.407 97.27 0.89181 0.01
8 1 -14 o 369.384 410.728 142.31 0.90386 0.15
10 2 6 o 291.159 274.862 -105.29 0.89611 0.06
13 1 -12 o 15.432 16.646 -53.68 0.90364 0.00
9 2 7 o 6.025 5.700 104.64 0.89595 0.00
6 4 7 o 3.820 3.577 111.00 0.89592 0.00
0 1 13 o 501.729 533.420 -35.09 0.89974 0.18
4 1 -14 o 326.752 345.084 9.81 0.89967 0.13
16 1 -7 o 306.131 244.529 -39.21 0.89044 0.06
9 5 1 o 150.721 124.646 -63.67 0.89027 0.04
3 4 -11 o 375.643 418.977 -158.01 0.90244 0.16
10 4 3 o 82.939 68.532 -137.40 0.89023 0.02
9 5 -7 o 39.039 37.244 -125.78 0.89788 0.01
4 6 2 o 123.622 118.331 -91.75 0.89764 0.04
14 3 -2 o 684.698 571.332 159.49 0.88888 0.14
3 6 3 o 87.845 83.286 -58.82 0.89723 0.03
1 3 -12 o 173.708 165.829 150.07 0.89715 0.06
11 4 -9 o 212.251 199.760 70.39 0.89711 0.07
12 2 -12 o 30.843 34.432 -72.67 0.90019 0.01
5 6 1 o 31.925 27.850 79.92 0.89250 0.01
16 1 -4 o 88.646 77.459 98.66 0.88796 0.02
3 4 9 o 10.866 10.198 -10.33 0.89599 0.00
15 1 -10 o 18.601 16.308 41.50 0.89167 0.00
5 6 -4 o 155.360 163.865 -140.28 0.89943 0.06
9 3 6 o 106.715 91.575 -26.20 0.89164 0.02
11 2 5 o 3.782 3.117 -1.80 0.89075 0.00
10 5 -1 o 68.927 64.608 38.15 0.88625 0.02
1 4 10 o 144.363 132.089 21.66 0.89441 0.05
7 4 -11 o 652.452 745.067 -4.26 0.90100 0.27
6 6 -1 o 603.191 490.123 57.41 0.89015 0.21
2 6 -5 o 492.573 569.572 104.74 0.90091 0.21
10 2 -13 o 100.179 109.681 80.32 0.90011 0.04
6 6 -2 o 19.484 17.327 120.91 0.89331 0.01
8 3 7 o 170.744 138.969 -59.23 0.88928 0.04
1 5 8 o 818.804 722.487 -160.98 0.89313 0.30
14 0 2 o 245.797 235.713 -124.31 0.88456 0.02
12 4 -8 o 231.378 193.927 84.30 0.88859 0.07
10 3 5 o 136.623 115.780 -108.20 0.88855 0.03
8 5 -8 o 320.288 302.252 172.31 0.89579 0.12
4 5 -9 o 539.333 548.048 -1.69 0.89894 0.22
3 5 7 o 322.988 276.610 112.74 0.89174 0.11
14 3 -8 o 543.478 492.336 -113.26 0.88759 0.14
6 6 -3 o 91.353 77.441 -137.95 0.89140 0.03
10 5 -6 o 431.599 398.567 24.75 0.88727 0.13
2 6 4 o 68.290 57.455 58.85 0.89129 0.03
9 1 -14 o 881.334 807.190 5.83 0.89462 0.34
1 6 -5 o 252.302 240.727 46.77 0.89789 0.10
6 1 10 o 67.433 62.057 8.57 0.89452 0.02
16 1 -3 o 111.297 124.524 93.50 0.87734 0.02
3 6 -5 o 75.850 82.796 -32.35 0.89981 0.03
8 2 8 o 9.976 8.019 -21.92 0.89029 0.00
13 4 -5 o 1174.375 1209.316 -83.50 0.88174 0.28
3 5 -9 o 115.871 109.205 39.43 0.89681 0.05
16 1 -8 o 32.908 34.614 -49.73 0.88135 0.01
13 4 -4 o 60.917 62.327 32.84 0.88123 0.01
10 4 -10 o 423.697 371.766 -118.90 0.89291 0.15
2 4 -11 o 0.215 0.180 -118.07 0.89258 0.00
1 2 -13 o 71.225 60.355 71.23 0.88896 0.02
10 0 -14 o 191.115 166.268 2.26 0.89224 0.03
3 1 -14 o 804.091 690.044 0.08 0.88854 0.30
11 3 4 o 2.359 2.369 176.27 0.88017 0.00
12 2 4 o 93.316 93.411 31.06 0.88017 0.02
2 3 11 o 54.720 47.113 -38.79 0.88839 0.02
4 6 -5 o 762.226 702.937 1.79 0.89463 0.30
5 4 8 o 79.485 78.791 122.34 0.88370 0.02
5 5 -9 o 128.043 120.218 -45.48 0.89697 0.05
0 6 5 o 370.033 303.782 -19.82 0.89088 0.15
2 5 -9 o 129.764 105.637 130.25 0.89068 0.05
12 4 0 o 930.808 950.632 175.91 0.87879 0.21
7 5 4 o 158.114 160.780 -5.82 0.88261 0.04
6 5 5 o 46.444 47.427 25.31 0.88234 0.01
6 6 0 o 52.940 54.316 -125.12 0.88209 0.02
8 5 3 o 366.015 395.147 -87.77 0.87760 0.10
13 3 1 o 7.988 8.690 -106.50 0.87751 0.00
13 4 -6 o 409.949 450.245 116.58 0.87738 0.10
7 3 8 o 373.307 385.772 41.94 0.88159 0.09
10 3 -12 o 13.471 11.793 90.12 0.89204 0.00
16 0 -2 o 304.512 316.371 -175.11 0.87229 0.02
4 3 10 o 78.985 74.761 -144.75 0.88525 0.02
1 0 13 o 297.033 284.025 -66.66 0.88508 0.05
15 2 -9 o 101.503 105.035 134.00 0.88108 0.02
14 3 -1 o 66.710 65.611 -171.19 0.87205 0.01
15 1 0 o 21.189 24.555 85.11 0.87634 0.00
6 6 -4 o 121.079 116.358 162.96 0.88454 0.04
2 0 -14 o 248.807 242.853 76.02 0.88423 0.04
13 4 -3 o 42.982 48.779 -171.61 0.87590 0.01
8 4 -11 o 68.192 55.275 -172.83 0.89049 0.03
11 4 2 o 257.586 292.458 -90.58 0.87555 0.06
12 1 -13 o 167.035 134.639 -125.13 0.89031 0.06
12 3 -11 o 181.041 181.010 110.22 0.88359 0.05
14 2 1 o 323.537 368.448 -142.71 0.87499 0.06
13 3 -10 o 39.281 39.833 -143.94 0.88301 0.01
14 1 2 o 257.825 288.205 159.70 0.87434 0.04
15 2 -1 o 16.196 12.833 -144.36 0.86919 0.00
5 6 -5 o 182.872 171.105 -94.39 0.88559 0.07
4 6 3 o 11.501 12.004 147.02 0.87810 0.00
6 5 -9 o 553.642 456.477 -138.21 0.89100 0.22
14 0 -12 o 130.985 137.275 77.45 0.88160 0.02
5 5 6 o 26.272 29.478 -32.77 0.87680 0.01
3 1 12 o 16.710 16.938 117.65 0.88056 0.00
5 6 2 o 13.338 15.296 -164.55 0.87637 0.00
2 2 12 o 115.219 116.148 92.72 0.88013 0.03
1 6 5 o 20.353 20.418 89.80 0.88015 0.01
10 5 0 o 6.365 5.899 -96.33 0.87153 0.00
5 0 11 o 737.546 744.241 -136.57 0.88319 0.10
11 1 6 o 175.498 205.186 -110.63 0.87565 0.03
7 2 9 o 30.998 30.646 42.14 0.87942 0.01
1 4 -11 o 582.973 587.768 -9.94 0.87917 0.21
6 3 -13 o 449.138 458.856 162.69 0.88207 0.17
4 2 11 o 655.216 671.254 142.76 0.87849 0.18
6 2 -14 o 29.209 30.885 -175.43 0.87797 0.01
0 3 12 o 101.358 107.324 -125.64 0.87795 0.03
10 1 7 o 138.919 155.069 154.94 0.87761 0.03
5 3 -13 o 59.193 60.285 169.44 0.88088 0.02
1 5 -9 o 437.497 445.631 -49.43 0.88078 0.16
10 5 -7 o 107.530 116.453 36.79 0.87288 0.03
15 0 -11 o 856.529 1026.058 42.82 0.87648 0.11
13 4 -7 o 307.416 256.100 163.06 0.86838 0.08
9 5 -8 o 432.025 505.862 98.90 0.87641 0.15
11 5 -4 o 316.751 276.679 96.12 0.86804 0.08
7 3 -13 o 225.313 227.304 77.83 0.87939 0.09
4 3 -13 o 41.013 46.825 -45.10 0.87588 0.02
9 5 2 o 247.956 225.752 -172.60 0.86758 0.06
7 6 -2 o 370.212 343.187 -68.77 0.87153 0.12
10 1 -14 o 800.263 819.468 44.66 0.88176 0.29
7 6 -3 o 47.866 43.909 53.33 0.87143 0.02
5 2 -14 o 31.812 35.710 -61.84 0.87511 0.01
16 1 -2 o 976.640 856.886 -140.98 0.86248 0.16
12 3 3 o 110.546 108.477 -71.93 0.86693 0.02
11 2 -13 o 135.756 139.646 6.31 0.88136 0.05
1 1 13 o 462.523 520.451 1.12 0.87484 0.14
7 5 -9 o 22.189 23.008 -155.25 0.88124 0.01
3 6 4 o 343.090 386.715 101.10 0.87462 0.12
9 1 8 o 664.599 740.118 -63.62 0.87436 0.14
14 3 -9 o 75.689 59.958 -88.01 0.87043 0.02
11 5 -3 o 146.674 147.483 -52.49 0.86620 0.04
2 1 -14 o 396.072 433.114 -177.80 0.87402 0.14
13 4 -2 o 45.514 45.771 174.71 0.86599 0.01
7 2 -14 o 66.905 73.737 -179.06 0.87703 0.03
2 5 8 o 25.397 27.632 -18.07 0.87337 0.01
6 6 1 o 485.237 387.952 152.21 0.86952 0.15
11 5 -5 o 131.421 131.499 82.21 0.86523 0.03
13 2 3 o 159.491 157.885 132.49 0.86490 0.03
6 3 9 o 547.969 437.942 120.09 0.86897 0.14
14 2 -11 o 1682.980 1832.675 1.00 0.87254 0.45
12 1 5 o 98.259 77.464 164.12 0.86859 0.02
15 3 -4 o 25.970 26.795 -89.11 0.85952 0.00
16 2 -6 o 33.552 30.588 -161.70 0.86405 0.01
12 4 -9 o 106.430 92.349 84.32 0.86805 0.03
16 1 -9 o 1215.723 1101.679 -175.10 0.86782 0.26
14 1 -12 o 119.991 110.848 -136.55 0.87148 0.03
16 2 -5 o 182.488 158.189 170.71 0.86329 0.04
13 0 -13 o 85.035 95.751 131.11 0.87463 0.01
15 3 -5 o 5.785 5.069 -27.37 0.86322 0.00
2 4 10 o 460.152 409.833 144.12 0.87121 0.15
7 6 -1 o 10.378 10.118 -21.86 0.86695 0.00
4 4 9 o 88.055 86.244 -89.78 0.86689 0.02
16 2 -4 o 4.066 4.569 -115.75 0.85799 0.00
9 4 5 o 672.663 600.708 -108.65 0.86250 0.15
2 6 -6 o 74.255 85.534 -63.37 0.87691 0.03
15 3 -6 o 173.856 154.852 74.91 0.86235 0.04
9 4 -11 o 198.642 232.397 -144.47 0.87650 0.07
4 5 7 o 207.850 210.179 18.03 0.86630 0.06
11 4 -10 o 15.678 11.969 78.19 0.86957 0.00
8 3 -13 o 46.564 49.493 132.65 0.87295 0.02
6 6 -5 o 801.814 878.787 -154.54 0.87304 0.29
5 1 11 o 41.831 45.260 -167.70 0.87301 0.01
1 6 -6 o 247.720 260.627 87.31 0.87245 0.10
8 2 -14 o 47.715 47.570 92.77 0.87231 0.02
13 2 -12 o 678.169 690.872 51.86 0.87212 0.20
11 3 -12 o 150.857 151.576 -140.82 0.87210 0.05
0 2 13 o 124.587 105.880 -88.39 0.86861 0.04
4 2 -14 o 53.043 45.538 105.20 0.86854 0.02
3 6 -6 o 941.802 1030.411 -0.85 0.87760 0.36
16 2 -7 o 657.572 655.198 142.00 0.86023 0.13
11 5 -2 o 864.965 880.560 -98.93 0.85981 0.21
0 5 9 o 478.103 443.093 -29.10 0.86749 0.17
3 3 -13 o 502.174 470.496 -12.35 0.86725 0.18
8 4 6 o 1137.739 1013.778 -21.25 0.86331 0.27
15 0 1 o 496.033 525.480 -154.16 0.85909 0.04
7 6 -4 o 290.569 294.553 -131.58 0.86665 0.10
15 1 -11 o 188.987 201.225 55.46 0.86654 0.05
2 6 5 o 1238.463 1276.863 -176.82 0.86611 0.43
8 1 9 o 395.326 428.068 39.57 0.86608 0.09
4 6 -6 o 29.450 33.186 157.58 0.87448 0.01
15 2 -10 o 479.232 455.475 11.07 0.86134 0.11
15 3 -7 o 197.096 225.372 148.03 0.85697 0.04
8 5 -9 o 203.991 175.082 101.72 0.86807 0.07
10 4 4 o 45.353 49.633 -78.07 0.85679 0.01
13 1 4 o 82.645 96.832 157.37 0.85679 0.01
12 4 1 o 122.860 133.792 122.40 0.85667 0.02
13 4 -1 o 282.887 269.956 101.84 0.85197 0.06
14 3 0 o 123.518 120.527 95.50 0.85171 0.02
6 2 10 o 23.265 21.045 145.07 0.86390 0.01
15 3 -3 o 405.432 404.992 72.17 0.85144 0.08
16 0 -10 o 516.932 536.412 12.94 0.85988 0.06
7 4 7 o 167.494 176.641 49.74 0.85917 0.04
0 4 11 o 185.380 165.642 -109.49 0.86269 0.06
17 0 -5 o 909.112 1021.813 -139.55 0.85035 0.08
11 5 -6 o 7.679 8.574 -126.15 0.85791 0.00
7 6 0 o 224.755 251.503 30.76 0.85790 0.07
13 1 -13 o 699.899 681.009 -75.65 0.86475 0.21
5 6 -6 o 681.820 621.956 -125.24 0.86768 0.25
0 6 6 o 66.562 62.559 -160.44 0.86438 0.02
10 5 1 o 326.674 294.172 113.70 0.85306 0.08
9 2 -14 o 273.775 253.540 -1.05 0.86400 0.09
16 2 -3 o 207.948 206.175 175.38 0.84840 0.03
3 3 11 o 19.717 19.470 47.26 0.86038 0.01
7 0 -15 o 212.861 211.597 -68.19 0.86023 0.04
5 6 3 o 18.338 20.056 125.28 0.85656 0.01
16 2 -8 o 50.883 47.944 162.25 0.85202 0.01
15 2 0 o 1433.607 1401.877 107.17 0.84750 0.24
11 1 -14 o 594.865 600.003 -140.18 0.86574 0.20
4 6 4 o 58.272 56.512 -155.68 0.85528 0.02
13 4 -8 o 11.612 11.088 -148.83 0.85516 0.00
5 4 -12 o 72.842 66.395 -105.16 0.86193 0.03
3 2 -14 o 102.113 109.388 -80.52 0.85852 0.03
17 0 -7 o 544.187 617.705 43.74 0.85052 0.05
6 4 -12 o 114.150 106.295 -5.35 0.86142 0.04
7 5 5 o 230.678 243.283 43.24 0.85026 0.06
15 1 1 o 30.302 33.022 -101.39 0.84972 0.00
7 6 -5 o 74.945 86.210 76.08 0.85742 0.03
13 3 2 o 222.021 233.902 98.61 0.84950 0.04
12 2 -13 o 58.522 58.647 -101.46 0.86011 0.02
11 5 -1 o 31.677 32.627 36.57 0.84915 0.01
9 3 -13 o 202.065 178.334 -55.91 0.86299 0.07
1 1 -14 o 896.124 954.563 72.82 0.85662 0.29
6 6 2 o 129.876 116.210 -154.91 0.85301 0.04
1 3 12 o 90.338 96.300 -17.21 0.85635 0.03
10 4 -11 o 116.878 120.934 72.92 0.85954 0.04
8 5 4 o 1102.261 1110.671 50.88 0.84858 0.26
16 1 -1 o 14.804 13.706 151.08 0.84404 0.00
4 4 -12 o 194.302 208.494 72.11 0.85884 0.07
17 1 -6 o 37.297 36.351 -99.70 0.84348 0.01
13 3 -11 o 24.986 24.736 58.45 0.85541 0.01
2 3 -13 o 140.630 137.059 168.82 0.85530 0.05
5 0 -15 o 43.353 42.152 146.03 0.85524 0.01
15 3 -8 o 617.961 606.625 -85.00 0.84731 0.13
3 5 8 o 627.832 630.912 133.69 0.85136 0.19
10 5 -8 o 401.447 358.901 101.70 0.85469 0.12
4 0 12 o 453.755 514.088 -59.50 0.85755 0.06
16 1 -10 o 121.238 141.507 -151.47 0.85048 0.03
6 6 -6 o 359.637 415.948 80.84 0.85745 0.12
11 4 3 o 102.804 97.347 -133.64 0.84646 0.02
6 4 8 o 36.061 38.454 84.05 0.85030 0.01
4 5 -10 o 26.196 26.787 -66.40 0.85978 0.01
14 3 -10 o 19.698 21.954 66.45 0.84982 0.01
14 2 2 o 17.967 16.246 67.46 0.84569 0.00
17 1 -5 o 12.251 12.601 -114.66 0.84126 0.00
3 5 -10 o 0.558 0.602 -151.83 0.85633 0.00
1 6 6 o 860.837 757.639 -70.98 0.85300 0.29
8 6 -3 o 58.084 60.370 45.06 0.84926 0.02
10 2 7 o 109.065 107.057 1.92 0.84864 0.02
5 3 10 o 216.147 204.751 170.78 0.85205 0.05
8 6 -2 o 26.119 25.687 13.51 0.84781 0.01
3 2 12 o 608.984 613.070 -86.20 0.85131 0.16
1 5 9 o 158.176 160.305 -36.98 0.85128 0.05
7 4 -12 o 0.059 0.074 -117.70 0.85733 0.00
15 3 -2 o 165.060 164.172 171.24 0.83932 0.03
5 5 -10 o 33.226 34.189 114.86 0.85966 0.01
7 1 -15 o 150.777 152.957 135.91 0.85082 0.05
6 5 6 o 27.166 26.337 -35.33 0.84720 0.01
11 2 6 o 852.837 843.078 -115.27 0.84687 0.16
12 0 -14 o 261.257 283.607 6.00 0.85640 0.04
6 1 -15 o 317.206 326.534 112.45 0.85013 0.11
10 3 6 o 247.602 236.559 -163.23 0.84651 0.05
11 5 -7 o 140.079 133.079 17.74 0.84641 0.04
8 6 -4 o 82.591 78.027 156.29 0.84636 0.02
9 3 7 o 21.743 20.611 48.29 0.84637 0.00
7 1 10 o 118.815 102.314 -149.62 0.85319 0.03
3 4 10 o 16.282 15.259 -42.79 0.84627 0.00
9 5 3 o 197.516 199.456 -33.84 0.84226 0.05
11 3 5 o 106.740 109.229 66.54 0.84198 0.02
9 2 8 o 142.718 127.811 -101.21 0.84571 0.03
3 6 5 o 196.561 204.206 35.60 0.84923 0.06
3 4 -12 o 34.916 32.598 36.44 0.85225 0.01
17 1 -7 o 19.914 20.293 -152.65 0.84143 0.00
9 5 -9 o 344.233 326.722 161.98 0.85196 0.11
14 4 -5 o 56.188 57.741 -74.26 0.84107 0.01
2 1 13 o 62.180 62.393 -130.27 0.84843 0.02
7 6 1 o 112.675 102.724 38.16 0.84479 0.03
14 1 3 o 897.087 943.387 130.23 0.84082 0.14
4 1 12 o 20.712 20.540 102.55 0.84823 0.01
12 2 5 o 1020.250 1067.550 129.03 0.84048 0.18
9 0 -15 o 466.371 471.436 -113.57 0.85102 0.08
6 5 -10 o 427.085 455.470 -37.19 0.85597 0.15
16 2 -9 o 36.059 36.255 110.64 0.83979 0.01
12 3 -12 o 39.067 42.887 77.00 0.84994 0.01
10 2 -14 o 18.117 16.815 -132.90 0.85239 0.01
2 5 -10 o 36.143 37.985 15.40 0.84943 0.01
1 2 13 o 241.836 226.424 -0.51 0.84614 0.07
5 1 -15 o 121.049 113.372 -99.20 0.84599 0.04
0 0 14 o 223.855 208.496 67.55 0.84582 0.03
8 6 -1 o 93.048 94.702 -29.96 0.84208 0.03
2 2 -14 o 44.403 41.149 -35.64 0.84540 0.01
8 3 8 o 287.973 295.973 -127.60 0.84159 0.06
8 1 -15 o 119.208 118.252 55.27 0.84805 0.04
12 4 -10 o 104.614 92.872 91.59 0.84455 0.03
5 2 11 o 27.652 25.127 17.97 0.84449 0.01
2 6 -7 o 67.496 74.718 -15.75 0.85032 0.02
7 6 -6 o 375.909 345.701 119.90 0.84415 0.12
3 6 -7 o 85.290 77.027 160.13 0.85251 0.03
10 3 -13 o 122.487 131.512 -60.55 0.84987 0.04
8 4 -12 o 158.416 170.762 -150.50 0.84981 0.06
1 4 11 o 972.060 926.187 -76.89 0.84369 0.29
14 2 -12 o 9.265 9.300 -97.56 0.84310 0.00
5 5 7 o 103.296 103.683 110.14 0.83956 0.03
7 5 -10 o 64.107 64.638 -160.97 0.84885 0.02
4 6 -7 o 49.075 50.815 -130.71 0.85120 0.02
2 4 -12 o 291.386 293.720 -108.89 0.84242 0.10
1 6 -7 o 99.381 88.701 -116.71 0.84472 0.03
12 1 -14 o 508.890 492.527 -123.78 0.84711 0.16
1 3 -13 o 187.507 191.615 84.41 0.84047 0.06
5 6 -7 o 104.846 100.725 8.05 0.84645 0.04
1 5 -10 o 18.664 18.533 138.67 0.83934 0.01
8 6 -5 o 990.722 974.407 104.17 0.83924 0.30
9 1 -15 o 50.089 50.715 55.58 0.84191 0.02
11 4 -11 o 312.682 322.500 111.55 0.84016 0.10
