#------------------------------------------------------------------------------
#$Date: 2022-06-29 01:53:26 +0300 (Wed, 29 Jun 2022) $
#$Revision: 276372 $
#$URL: file:///home/coder/svn-repositories/cod/cif/7/71/06/7710625.cif $
#------------------------------------------------------------------------------
#
# This file is available in the Crystallography Open Database (COD),
# http://www.crystallography.net/
#
# All data on this site have been placed in the public domain by the
# contributors.
#
data_7710625
loop_
_publ_author_name
'Gross, Peter'
'Zhang, Yue'
'Bayarjargal, Lkhamsuren'
'Winkler, Bjoern'
'H\"oppe, Henning A.'
_publ_section_title
;
 New Alkaline-Earth Amidosulfates and their Unexpected Decomposition to
 S4N4
;
_journal_name_full               'Dalton Transactions'
_journal_paper_doi               10.1039/D2DT01380K
_journal_year                    2022
_chemical_formula_sum            'N4 S4'
_chemical_formula_weight         184.28
_space_group_crystal_system      monoclinic
_space_group_IT_number           14
_space_group_name_Hall           '-P 2yn'
_space_group_name_H-M_alt        'P 1 21/n 1'
_audit_creation_method           SHELXL-2018/3
_audit_update_record
;
2022-04-06 deposited with the CCDC.	2022-06-06 downloaded from the CCDC.
;
_cell_angle_alpha                90
_cell_angle_beta                 92.628(4)
_cell_angle_gamma                90
_cell_formula_units_Z            4
_cell_length_a                   8.6933(5)
_cell_length_b                   7.1572(4)
_cell_length_c                   8.7826(6)
_cell_measurement_reflns_used    628
_cell_measurement_temperature    278(2)
_cell_measurement_theta_max      21.536
_cell_measurement_theta_min      3.224
_cell_volume                     545.88(6)
_computing_structure_refinement  'SHELXL-2018/3 (Sheldrick, 2018)'
_diffrn_ambient_temperature      278(2)
_diffrn_measured_fraction_theta_full 0.998
_diffrn_measured_fraction_theta_max 0.998
_diffrn_measurement_device_type  'Bruker D8 Venture'
_diffrn_radiation_type           MoK\a
_diffrn_radiation_wavelength     0.71073
_diffrn_reflns_av_unetI/netI     0.0514
_diffrn_reflns_Laue_measured_fraction_full 0.998
_diffrn_reflns_Laue_measured_fraction_max 0.998
_diffrn_reflns_limit_h_max       8
_diffrn_reflns_limit_h_min       -8
_diffrn_reflns_limit_k_max       7
_diffrn_reflns_limit_k_min       0
_diffrn_reflns_limit_l_max       9
_diffrn_reflns_limit_l_min       0
_diffrn_reflns_number            628
_diffrn_reflns_point_group_measured_fraction_full 0.998
_diffrn_reflns_point_group_measured_fraction_max 0.998
_diffrn_reflns_theta_full        21.535
_diffrn_reflns_theta_max         21.535
_diffrn_reflns_theta_min         3.224
_exptl_absorpt_coefficient_mu    1.617
_exptl_absorpt_correction_type   multi-scan
_exptl_absorpt_process_details   'TWINABS (Sheldrick, 2009)'
_exptl_crystal_colour            gold
_exptl_crystal_density_diffrn    2.242
_exptl_crystal_density_meas      ?
_exptl_crystal_description       needle
_exptl_crystal_F_000             368
_exptl_crystal_size_max          0.232
_exptl_crystal_size_mid          0.072
_exptl_crystal_size_min          0.060
_exptl_transmission_factor_max   0.744640
_exptl_transmission_factor_min   0.471427
_refine_diff_density_max         0.469
_refine_diff_density_min         -0.370
_refine_diff_density_rms         0.116
_refine_ls_extinction_method     none
_refine_ls_goodness_of_fit_ref   1.132
_refine_ls_hydrogen_treatment    undef
_refine_ls_matrix_type           full
_refine_ls_number_parameters     74
_refine_ls_number_reflns         628
_refine_ls_number_restraints     0
_refine_ls_restrained_S_all      1.132
_refine_ls_R_factor_all          0.0664
_refine_ls_R_factor_gt           0.0467
_refine_ls_shift/su_max          0.000
_refine_ls_shift/su_mean         0.000
_refine_ls_structure_factor_coef Fsqd
_refine_ls_weighting_details
'w=1/[\s^2^(Fo^2^)+(0.0516P)^2^+0.9170P] where P=(Fo^2^+2Fc^2^)/3'
_refine_ls_weighting_scheme      calc
_refine_ls_wR_factor_gt          0.0972
_refine_ls_wR_factor_ref         0.1060
_reflns_Friedel_coverage         0.000
_reflns_number_gt                528
_reflns_number_total             628
_reflns_threshold_expression     'I > 2\s(I)'
_cod_data_source_file            d2dt01380k2.cif
_cod_data_source_block           mo_100_yellow_cryst_c_0m
_cod_depositor_comments
;
The following automatic conversions were performed:

data item '_exptl_crystal_density_meas' value 'not measured' was
changed to '?' -- the value is perceived as not measured.

Automatic conversion script
Id: cif_fix_values 7556 2019-12-06 15:28:31Z antanas 
;
_cod_original_sg_symbol_H-M      'P 21/n'
_cod_database_code               7710625
_shelx_shelxl_version_number     2018/3
_shelx_space_group_comment
;
The symmetry employed for this shelxl refinement is uniquely defined
by the following loop, which should always be used as a source of
symmetry information in preference to the above space-group names.
They are only intended as comments.
;
_shelx_res_file
;

TITL mo_100_yellow_cryst_c_0m in P2(1)/n
    mo_100_yellow_cryst_c_0m.res
    created by SHELXL-2018/3 at 10:49:35 on 06-Apr-2022
CELL 0.71073      8.6933    7.1572    8.7826   90.0000   92.6276   90.0000
ZERR    4.00      0.0005    0.0004    0.0006    0.0000    0.0036    0.0000
LATT  1
SYMM 0.5-X, 0.5+Y, 0.5-Z
SFAC N S
UNIT 16 16
LIST 4 ! automatically inserted. Change 6 to 4 for CHECKCIF!!
TEMP 5.080

L.S. 4
BOND
FMAP 2
PLAN 20

acta

MERG 0
WGHT    0.051600    0.917000
BASF   0.33768
FVAR       0.87822
MOLE   1
S1    2    0.063696    0.204078    0.351089    11.00000    0.04565    0.04192 =
         0.02387   -0.00403   -0.00209    0.00197
S2    2    0.094838    0.291033    0.650196    11.00000    0.04304    0.04224 =
         0.02635   -0.00729    0.00402    0.00346
S3    2    0.300435    0.075692    0.509476    11.00000    0.04905    0.05680 =
         0.04048   -0.00163    0.00019    0.02637
S4    2    0.277302    0.447710    0.463474    11.00000    0.04673    0.05041 =
         0.04482    0.00146    0.00412   -0.01230
N3    1    0.391217    0.268653    0.479701    11.00000    0.03558    0.07914 =
         0.05320   -0.00330    0.00719   -0.00226
N4    1    0.157959    0.393519    0.321853    11.00000    0.05903    0.04436 =
         0.02678    0.01132    0.00397   -0.00358
N1    1   -0.022786    0.242946    0.507003    11.00000    0.03508    0.04410 =
         0.03315   -0.00999    0.00113    0.00409
N2    1    0.210932    0.116395    0.665035    11.00000    0.05858    0.04068 =
         0.03402    0.00335   -0.00118    0.01301
MOLE   2
HKLF 5




REM  mo_100_yellow_cryst_c_0m in P2(1)/n
REM wR2 = 0.1060, GooF = S = 1.132, Restrained GooF = 1.132 for all data
REM R1 = 0.0467 for 528 Fo > 4sig(Fo) and 0.0664 for all 628 data
REM 74 parameters refined using 0 restraints

END

WGHT      0.0516      0.9170

REM Highest difference peak  0.469,  deepest hole -0.370,  1-sigma level  0.116
Q1    1   0.2558  0.3559  0.3875  11.00000  0.05    0.47
Q2    1  -0.0343  0.2385  0.2645  11.00000  0.05    0.45
Q3    1  -0.1384  0.1577  0.2630  11.00000  0.05    0.39
Q4    1  -0.0166  0.4580  0.6891  11.00000  0.05    0.39
Q5    1   0.0962  0.3931  0.7614  11.00000  0.05    0.39
Q6    1   0.0915  0.3504  0.3311  11.00000  0.05    0.38
Q7    1  -0.0274  0.1049  0.4974  11.00000  0.05    0.37
Q8    1   0.5591  0.4032  0.4926  11.00000  0.05    0.37
Q9    1   0.3391  0.2189  0.4543  11.00000  0.05    0.36
Q10   1  -0.0359  0.1365  0.6246  11.00000  0.05    0.36
Q11   1   0.4093  0.4222  0.5579  11.00000  0.05    0.35
Q12   1   0.0149  0.2965  0.5591  11.00000  0.05    0.34
Q13   1   0.1956 -0.0305  0.7037  11.00000  0.05    0.33
Q14   1   0.1589  0.4664  0.3626  11.00000  0.05    0.31
Q15   1  -0.1514  0.0713  0.5450  11.00000  0.05    0.29
Q16   1   0.3127 -0.0903  0.4968  11.00000  0.05    0.29
Q17   1   0.3932  0.3881  0.4646  11.00000  0.05    0.28
Q18   1   0.3458  0.5671  0.4121  11.00000  0.05    0.28
Q19   1   0.2353  0.1292  0.6140  11.00000  0.05    0.28
Q20   1  -0.2097  0.2243  0.5853  11.00000  0.05    0.28
;
_shelx_res_checksum              49884
_shelx_hkl_file
;
   1   0   0 -0.3322 1.26349   1
   2   0   0 776.380 20.5612   1
   3   0   0 2.90068 3.00627   1
   4   0   0 28.2021 3.82887   1
   5   0   0 -1.7035 4.24018   1
   6   0   0 626.788 15.1076   1
   7   0   0 -1.0729 5.80762   1
   8   0   0 139.057 16.4032   1
   0   1   0 -1.2235 4.74005   1
   1   1   0 19.8625 1.80390  -2
   1   1   0 19.8625 1.80390   1
   2   1   0 1692.34 131.388  -2
   2   1   0 1692.34 131.388   1
   3   1   0 232.673 4.62061   1
   4   1   0 1359.78 18.8339   1
   5   1   0 6.59887 3.25320   1
   6   1   0 22.3213 4.18771   1
  -7   1   1 107.953 33.6211  -2
   7   1   0 107.953 33.6211   1
  -8   1   1 82.8695 10.5294  -2
   8   1   0 82.8695 10.5294   1
   0   2   0 2043.84 60.7120  -2
   0   2   0 2043.84 60.7120   1
   1   2   0 2.39583 2.73177  -2
   1   2   0 2.39583 2.73177   1
   2   2   0 9999.99 152.738  -2
   2   2   0 9999.99 152.738   1
   3   2   0 139.842 18.1190  -2
   3   2   0 139.842 18.1190   1
   4   2   0 1042.09 13.7908   1
   5   2   0 51.4516 3.78771   1
   6   2   0 236.448 5.78981   1
  -7   2   1 728.239 39.6973  -2
   7   2   0 728.239 39.6973   1
  -8   2   1 22.3626 10.5307  -2
   8   2   0 22.3626 10.5307   1
   0   3   0 -6.8354 6.58976   1
   1   3   0 25.2367 7.11309  -2
   1   3   0 25.2367 7.11309   1
   2   3   0 933.252 19.1122  -2
   2   3   0 933.252 19.1122   1
   3   3   0 293.085 13.7979  -2
   3   3   0 293.085 13.7979   1
   4   3   0 -46.088 61.4313  -2
   4   3   0 -46.088 61.4313   1
   5   3   0 122.120 174.295  -2
   5   3   0 122.120 174.295   1
   6   3   0 434.667 7.13073   1
  -7   3   1 182.177 23.9830  -2
   7   3   0 182.177 23.9830   1
  -8   3   1 350.074 12.7984  -2
   8   3   0 350.074 12.7984   1
   0   4   0 384.518 16.1014  -2
   0   4   0 384.518 16.1014   1
   1   4   0 13.7035 10.0150  -2
   1   4   0 13.7035 10.0150   1
   2   4   0 719.312 25.4641  -2
   2   4   0 719.312 25.4641   1
   3   4   0 23.5849 13.0842  -2
   3   4   0 23.5849 13.0842   1
   4   4   0 -20.366 38.4766  -2
   4   4   0 -20.366 38.4766   1
   5   4   0 201.794 4.77486   1
   6   4   0 292.187 5.87072   1
  -7   4   1 -25.311 21.0724  -2
   7   4   0 -25.311 21.0724   1
   0   5   0 -35.293 44.6833   1
   1   5   0 101.533 19.1539  -2
   1   5   0 101.533 19.1539   1
   2   5   0 79.4628 14.2705  -2
   2   5   0 79.4628 14.2705   1
   3   5   0 3.54772 16.2597  -2
   3   5   0 3.54772 16.2597   1
   4   5   0 400.394 28.4076  -2
   4   5   0 400.394 28.4076   1
   5   5   0 88.8147 4.90639   1
  -6   5   1 319.320 68.4008  -2
   6   5   0 319.320 68.4008   1
   0   6   0 853.479 27.8845  -2
   0   6   0 853.479 27.8845   1
   1   6   0 211.456 19.0217  -2
   1   6   0 211.456 19.0217   1
   2   6   0 110.126 16.6710  -2
   2   6   0 110.126 16.6710   1
   3   6   0 56.3311 17.0022  -2
   3   6   0 56.3311 17.0022   1
   4   6   0 19.4260 32.7323  -2
   4   6   0 19.4260 32.7323   1
   5   6   0 -0.5763 5.67131   1
   0   7   0 -9.7104 21.0347   1
   1   7   0 -5.4878 19.1540  -2
   1   7   0 -5.4878 19.1540   1
   2   7   0 66.9333 19.2754  -2
   2   7   0 66.9333 19.2754   1
  -8   0   1 -39.158 47.8819   1
  -7   0   1 -18.132 6.65306   1
  -6   0   1 -10.168 6.35736   1
  -5   0   1 1613.81 34.0062   1
  -4   0   1 -8.5228 4.20010   1
  -3   0   1 2093.97 47.1515   1
  -2   0   1 2.24184 4.08156   1
   1   0   1 1762.89 60.8199  -2
  -1   0   1 1762.89 60.8199   1
   0   0   1 0.09226 2.07853   1
  -1   0   1 1719.32 43.5666  -2
   1   0   1 1719.32 43.5666   1
   2   0   1 5.41470 2.48304   1
   3   0   1 3074.70 57.2398   1
   4   0   1 -5.8506 3.60217   1
   5   0   1 666.252 15.4983   1
   6   0   1 -5.4493 5.59320   1
   7   0   1 531.209 12.1140   1
   8   0   1 20.5883 20.9501   1
   8   1   0 59.5306 10.0394  -2
  -8   1   1 59.5306 10.0394   1
   7   1   0 47.0822 60.3069  -2
  -7   1   1 47.0822 60.3069   1
  -6   1   1 59.6951 4.50954   1
  -5   1   1 162.535 5.01961   1
  -4   1   1 261.403 5.89569   1
  -3   1   1 1021.46 15.9837   1
   2   1   1 53.0585 9.78804  -2
  -2   1   1 53.0585 9.78804   1
   1   1   1 7716.82 165.207  -2
  -1   1   1 7716.82 165.207   1
   0   1   1 3.90824 0.85355  -2
   0   1   1 3.90824 0.85355   1
  -1   1   1 6307.66 148.642  -2
   1   1   1 6307.66 148.642   1
  -2   1   1 34.3258 7.14079  -2
   2   1   1 34.3258 7.14079   1
   3   1   1 81.8514 2.72911   1
   4   1   1 148.113 3.93626   1
   5   1   1 -3.2761 3.19732   1
   6   1   1 167.533 5.38220   1
  -7   1   2 32.0687 56.0057  -2
   7   1   1 32.0687 56.0057   1
  -8   1   2 251.749 13.2043  -2
   8   1   1 251.749 13.2043   1
   8   2   0 13.6125 9.91598  -2
  -8   2   1 13.6125 9.91598   1
   7   2   0 1053.88 67.4192  -2
  -7   2   1 1053.88 67.4192   1
  -6   2   1 66.3509 4.35998   1
  -5   2   1 99.3195 4.36057   1
  -4   2   1 2.35483 2.79848   1
   3   2   1 11.7629 12.0245  -2
  -3   2   1 11.7629 12.0245   1
   2   2   1 1367.73 20.2291  -2
  -2   2   1 1367.73 20.2291   1
   1   2   1 2882.39 51.4934  -2
  -1   2   1 2882.39 51.4934   1
   0   2   1 28.0046 2.21474  -2
   0   2   1 28.0046 2.21474   1
  -1   2   1 2268.20 47.4626  -2
   1   2   1 2268.20 47.4626   1
  -2   2   1 1834.92 24.6820  -2
   2   2   1 1834.92 24.6820   1
  -3   2   1 29.9387 14.5222  -2
   3   2   1 29.9387 14.5222   1
   4   2   1 323.391 5.67542   1
   5   2   1 567.614 8.93240   1
   6   2   1 253.491 5.83092   1
  -7   2   2 236.589 60.4023  -2
   7   2   1 236.589 60.4023   1
  -8   2   2 -7.8895 10.5143  -2
   8   2   1 -7.8895 10.5143   1
   8   3   0 147.973 11.1390  -2
  -8   3   1 147.973 11.1390   1
   7   3   0 261.077 33.6893  -2
  -7   3   1 261.077 33.6893   1
  -6   3   1 1.39955 4.05548   1
   5   3   1 379.599 238.233  -2
  -5   3   1 379.599 238.233   1
   4   3   1 936.553 64.5888  -2
  -4   3   1 936.553 64.5888   1
   3   3   1 3746.61 111.496  -2
  -3   3   1 3746.61 111.496   1
   2   3   1 584.268 14.1753  -2
  -2   3   1 584.268 14.1753   1
   1   3   1 2195.48 53.8937  -2
  -1   3   1 2195.48 53.8937   1
   0   3   1 190.428 5.37345  -2
   0   3   1 190.428 5.37345   1
  -1   3   1 2025.10 58.2608  -2
   1   3   1 2025.10 58.2608   1
  -2   3   1 403.086 12.7751  -2
   2   3   1 403.086 12.7751   1
  -3   3   1 2834.18 71.1844  -2
   3   3   1 2834.18 71.1844   1
  -4   3   1 1567.67 77.2689  -2
   4   3   1 1567.67 77.2689   1
   5   3   1 166.332 4.38583   1
   6   3   1 6.67435 4.00882   1
  -7   3   2 -3.3656 44.6816  -2
   7   3   1 -3.3656 44.6816   1
  -8   3   2 141.164 11.5324  -2
   8   3   1 141.164 11.5324   1
   7   4   0 81.2790 26.1805  -2
  -7   4   1 81.2790 26.1805   1
  -6   4   1 47.2250 4.40175   1
  -5   4   1 21.2590 3.66458   1
   4   4   1 32.6990 49.1673  -2
  -4   4   1 32.6990 49.1673   1
   3   4   1 173.042 29.5242  -2
  -3   4   1 173.042 29.5242   1
   2   4   1 133.862 8.97030  -2
  -2   4   1 133.862 8.97030   1
   1   4   1 242.345 8.53704  -2
  -1   4   1 242.345 8.53704   1
   0   4   1 2273.03 37.0695  -2
   0   4   1 2273.03 37.0695   1
  -1   4   1 219.644 10.1343  -2
   1   4   1 219.644 10.1343   1
  -2   4   1 111.969 13.1502  -2
   2   4   1 111.969 13.1502   1
  -3   4   1 76.5590 14.1023  -2
   3   4   1 76.5590 14.1023   1
  -4   4   1 52.8758 30.5116  -2
   4   4   1 52.8758 30.5116   1
   5   4   1 68.3323 4.00959   1
   6   4   1 324.186 6.02978   1
  -7   4   2 121.844 39.5697  -2
   7   4   1 121.844 39.5697   1
  -6   5   1 9.95994 4.88217   1
  -5   5   1 88.2074 5.11625   1
   4   5   1 277.045 28.5406  -2
  -4   5   1 277.045 28.5406   1
   3   5   1 259.126 17.3019  -2
  -3   5   1 259.126 17.3019   1
   2   5   1 735.312 20.2198  -2
  -2   5   1 735.312 20.2198   1
   1   5   1 795.044 22.8880  -2
  -1   5   1 795.044 22.8880   1
   0   5   1 141.046 13.4106  -2
   0   5   1 141.046 13.4106   1
  -1   5   1 775.514 30.2121  -2
   1   5   1 775.514 30.2121   1
  -2   5   1 1240.65 42.3998  -2
   2   5   1 1240.65 42.3998   1
  -3   5   1 247.103 21.4642  -2
   3   5   1 247.103 21.4642   1
  -4   5   1 219.741 27.8258  -2
   4   5   1 219.741 27.8258   1
   5   5   1 34.0563 4.55166   1
   6   5   1 6.95085 4.79777   1
  -5   6   1 3.86901 5.68792   1
   4   6   1 31.5453 25.8522  -2
  -4   6   1 31.5453 25.8522   1
   3   6   1 221.400 17.8956  -2
  -3   6   1 221.400 17.8956   1
   2   6   1 145.285 13.6756  -2
  -2   6   1 145.285 13.6756   1
   1   6   1 36.6927 8.92127  -2
  -1   6   1 36.6927 8.92127   1
   0   6   1 870.069 19.3952  -2
   0   6   1 870.069 19.3952   1
  -1   6   1 4.29819 6.65150  -2
   1   6   1 4.29819 6.65150   1
  -2   6   1 91.8994 26.8534  -2
   2   6   1 91.8994 26.8534   1
  -3   6   1 160.861 20.4449  -2
   3   6   1 160.861 20.4449   1
  -4   6   1 86.0078 21.8578  -2
   4   6   1 86.0078 21.8578   1
   5   6   1 77.9479 6.04685   1
   2   7   1 234.596 18.4562  -2
  -2   7   1 234.596 18.4562   1
   1   7   1 75.1400 17.8451  -2
  -1   7   1 75.1400 17.8451   1
   0   7   1 -8.0110 13.5035  -2
   0   7   1 -8.0110 13.5035   1
  -1   7   1 53.3019 19.3622  -2
   1   7   1 53.3019 19.3622   1
  -2   7   1 184.124 20.5575  -2
   2   7   1 184.124 20.5575   1
  -8   0   2 260.495 17.6144   1
  -7   0   2 16.3491 6.92827   1
  -6   0   2 21.0351 6.41494   1
  -5   0   2 -4.5018 5.68009   1
  -4   0   2 321.689 10.9573   1
  -3   0   2 -5.0855 4.15521   1
  -2   0   2 881.765 25.2372   1
  -1   0   2 4.03421 8.81668   1
   0   0   2 5690.08 195.287  -2
   0   0   2 5690.08 195.287   1
   1   0   2 1.32581 5.43212   1
  -2   0   2 2310.30 50.9097  -2
   2   0   2 2310.30 50.9097   1
   3   0   2 -0.3596 2.94118   1
   4   0   2 1594.75 28.3030   1
   5   0   2 -1.4474 4.56313   1
   6   0   2 170.180 7.20470   1
   7   0   2 0.14035 5.97680   1
   8   0   2 258.964 14.2007   1
   8   1   1 141.837 9.78483  -2
  -8   1   2 141.837 9.78483   1
   7   1   1 11.2847 41.6831  -2
  -7   1   2 11.2847 41.6831   1
  -6   1   2 64.1137 5.50048   1
  -5   1   2 80.9945 5.12730   1
  -4   1   2 62.8171 3.83603   1
  -3   1   2 622.048 10.2917   1
   2   1   2 3620.06 93.2610  -2
  -2   1   2 3620.06 93.2610   1
   1   1   2 1174.82 20.9787  -2
  -1   1   2 1174.82 20.9787   1
   0   1   2 25.5073 2.01078  -2
   0   1   2 25.5073 2.01078   1
  -1   1   2 1034.55 19.8622  -2
   1   1   2 1034.55 19.8622   1
  -2   1   2 4227.66 55.4780  -2
   2   1   2 4227.66 55.4780   1
  -3   1   2 1282.51 110.949  -2
   3   1   2 1282.51 110.949   1
   4   1   2 81.0307 3.38606   1
   5   1   2 16.7245 3.49375   1
   6   1   2 179.732 5.04216   1
  -7   1   3 -33.218 69.5021  -2
   7   1   2 -33.218 69.5021   1
  -8   1   3 223.814 12.9596  -2
   8   1   2 223.814 12.9596   1
   8   2   1 -1.8947 10.4434  -2
  -8   2   2 -1.8947 10.4434   1
   7   2   1 60.4531 34.2214  -2
  -7   2   2 60.4531 34.2214   1
  -6   2   2 17.8316 4.81691   1
  -5   2   2 608.687 10.9084   1
   4   2   2 180.024 53.4312  -2
  -4   2   2 180.024 53.4312   1
   3   2   2 151.191 15.0378  -2
  -3   2   2 151.191 15.0378   1
   2   2   2 2258.09 31.6230  -2
  -2   2   2 2258.09 31.6230   1
   1   2   2 813.257 12.5815  -2
  -1   2   2 813.257 12.5815   1
   0   2   2 1102.28 13.9861  -2
   0   2   2 1102.28 13.9861   1
  -1   2   2 590.161 9.31405  -2
   1   2   2 590.161 9.31405   1
  -2   2   2 1628.58 21.8063  -2
   2   2   2 1628.58 21.8063   1
  -3   2   2 77.4819 10.7163  -2
   3   2   2 77.4819 10.7163   1
   4   2   2 105.397 3.61859   1
   5   2   2 -0.1216 3.55158   1
   6   2   2 825.085 11.3893   1
   7   2   2 291.430 6.22998   1
  -8   2   3 112.636 11.9170  -2
   8   2   2 112.636 11.9170   1
   8   3   1 204.820 12.9476  -2
  -8   3   2 204.820 12.9476   1
   7   3   1 -92.425 39.6619  -2
  -7   3   2 -92.425 39.6619   1
  -6   3   2 429.580 7.33975   1
  -5   3   2 467.654 7.17789   1
   4   3   2 2180.67 123.830  -2
  -4   3   2 2180.67 123.830   1
   3   3   2 1007.61 42.3008  -2
  -3   3   2 1007.61 42.3008   1
   2   3   2 167.393 7.06075  -2
  -2   3   2 167.393 7.06075   1
   1   3   2 321.165 11.1881  -2
  -1   3   2 321.165 11.1881   1
   0   3   2 62.7119 3.27229  -2
   0   3   2 62.7119 3.27229   1
  -1   3   2 331.190 11.0277  -2
   1   3   2 331.190 11.0277   1
  -2   3   2 82.6297 5.44030  -2
   2   3   2 82.6297 5.44030   1
  -3   3   2 829.035 19.4823  -2
   3   3   2 829.035 19.4823   1
  -4   3   2 2556.91 90.7345  -2
   4   3   2 2556.91 90.7345   1
   5   3   2 83.3507 3.86566   1
   6   3   2 275.470 5.49709   1
  -7   3   3 83.7508 40.8478  -2
   7   3   2 83.7508 40.8478   1
   7   4   1 195.473 24.0193  -2
  -7   4   2 195.473 24.0193   1
  -6   4   2 86.5795 4.81162   1
   5   4   2 998.360 322.421  -2
  -5   4   2 998.360 322.421   1
   4   4   2 110.972 42.0502  -2
  -4   4   2 110.972 42.0502   1
   3   4   2 11.6271 17.6521  -2
  -3   4   2 11.6271 17.6521   1
   2   4   2 45.7140 10.0357  -2
  -2   4   2 45.7140 10.0357   1
   1   4   2 1223.82 43.2086  -2
  -1   4   2 1223.82 43.2086   1
   0   4   2 153.571 5.23230  -2
   0   4   2 153.571 5.23230   1
  -1   4   2 1235.16 39.5500  -2
   1   4   2 1235.16 39.5500   1
  -2   4   2 44.9557 13.0481  -2
   2   4   2 44.9557 13.0481   1
  -3   4   2 59.1983 18.4230  -2
   3   4   2 59.1983 18.4230   1
  -4   4   2 42.2692 45.9694  -2
   4   4   2 42.2692 45.9694   1
   5   4   2 496.197 7.06624   1
   6   4   2 26.7801 4.55134   1
  -7   4   3 -7.2618 38.7693  -2
   7   4   2 -7.2618 38.7693   1
   6   5   1 119.925 63.1893  -2
  -6   5   2 119.925 63.1893   1
  -5   5   2 26.4161 4.52010   1
   4   5   2 204.953 48.1277  -2
  -4   5   2 204.953 48.1277   1
   3   5   2 921.440 29.1824  -2
  -3   5   2 921.440 29.1824   1
   2   5   2 349.325 14.6098  -2
  -2   5   2 349.325 14.6098   1
   1   5   2 618.067 19.2597  -2
  -1   5   2 618.067 19.2597   1
   0   5   2 33.6742 5.59128  -2
   0   5   2 33.6742 5.59128   1
  -1   5   2 596.342 29.7246  -2
   1   5   2 596.342 29.7246   1
  -2   5   2 199.975 15.3502  -2
   2   5   2 199.975 15.3502   1
  -3   5   2 555.682 29.8648  -2
   3   5   2 555.682 29.8648   1
  -4   5   2 126.595 51.6113  -2
   4   5   2 126.595 51.6113   1
   5   5   2 144.262 5.39391   1
   6   5   2 96.4256 5.68296   1
   4   6   2 73.6426 31.9883  -2
  -4   6   2 73.6426 31.9883   1
   3   6   2 -0.1537 15.9788  -2
  -3   6   2 -0.1537 15.9788   1
   2   6   2 50.9303 12.4733  -2
  -2   6   2 50.9303 12.4733   1
   1   6   2 650.610 22.1420  -2
  -1   6   2 650.610 22.1420   1
   0   6   2 391.463 11.0672  -2
   0   6   2 391.463 11.0672   1
  -1   6   2 829.123 32.6130  -2
   1   6   2 829.123 32.6130   1
  -2   6   2 60.0448 18.7400  -2
   2   6   2 60.0448 18.7400   1
  -3   6   2 6.53705 19.5357  -2
   3   6   2 6.53705 19.5357   1
  -4   6   2 -3.3298 53.9218  -2
   4   6   2 -3.3298 53.9218   1
  -2   7   2 25.3506 8.77035   1
   1   7   2 96.6519 24.3454  -2
  -1   7   2 96.6519 24.3454   1
   0   7   2 36.3328 14.4634  -2
   0   7   2 36.3328 14.4634   1
  -1   7   2 73.2717 18.8488  -2
   1   7   2 73.2717 18.8488   1
  -7   0   3 1249.71 25.8811   1
  -6   0   3 1.19707 8.35876   1
  -5   0   3 132.445 8.85038   1
  -4   0   3 -3.0738 5.19060   1
  -3   0   3 3922.42 78.5944   1
  -2   0   3 11.4075 11.1750   1
   1   0   3 9675.57 278.493  -2
  -1   0   3 9675.57 278.493   1
   0   0   3 -0.7559 4.78512   1
  -1   0   3 7092.05 167.897  -2
   1   0   3 7092.05 167.897   1
   2   0   3 1.82072 5.98417   1
  -3   0   3 4162.37 270.296  -2
   3   0   3 4162.37 270.296   1
   4   0   3 -4.5311 4.24597   1
   5   0   3 177.966 7.49944   1
   6   0   3 -5.2798 4.94733   1
   7   0   3 1159.48 20.5323   1
   8   0   3 -35.366 12.0699   1
   8   1   2 129.921 10.1208  -2
  -8   1   3 129.921 10.1208   1
   7   1   2 3.28578 18.0579  -2
  -7   1   3 3.28578 18.0579   1
  -6   1   3 11.3630 5.37831   1
  -5   1   3 301.711 8.20671   1
  -4   1   3 50.9634 4.54325   1
   3   1   3 2870.76 200.990  -2
  -3   1   3 2870.76 200.990   1
   2   1   3 293.557 9.31869  -2
  -2   1   3 293.557 9.31869   1
   1   1   3 567.803 12.2305  -2
  -1   1   3 567.803 12.2305   1
   0   1   3 22.5380 2.67057  -2
   0   1   3 22.5380 2.67057   1
  -1   1   3 347.099 6.78642  -2
   1   1   3 347.099 6.78642   1
  -2   1   3 288.039 5.54235  -2
   2   1   3 288.039 5.54235   1
  -3   1   3 3155.98 90.3053  -2
   3   1   3 3155.98 90.3053   1
  -4   1   3 474.445 48.5975  -2
   4   1   3 474.445 48.5975   1
   5   1   3 439.225 7.98753   1
   6   1   3 397.264 7.01636   1
   7   1   3 7.88309 4.17550   1
  -8   1   4 240.356 12.0868  -2
   8   1   3 240.356 12.0868   1
   8   2   2 85.4476 10.9673  -2
  -8   2   3 85.4476 10.9673   1
   7   2   2 130.832 27.2643  -2
  -7   2   3 130.832 27.2643   1
  -6   2   3 324.268 7.92702   1
  -5   2   3 2103.84 26.4210   1
  -4   2   3 13.4771 4.10841   1
   3   2   3 367.175 22.1931  -2
  -3   2   3 367.175 22.1931   1
   2   2   3 318.257 7.78542  -2
  -2   2   3 318.257 7.78542   1
   1   2   3 902.431 15.2653  -2
  -1   2   3 902.431 15.2653   1
   0   2   3 19.8873 2.44211  -2
   0   2   3 19.8873 2.44211   1
  -1   2   3 1240.87 17.9023  -2
   1   2   3 1240.87 17.9023   1
  -2   2   3 297.663 6.37990  -2
   2   2   3 297.663 6.37990   1
  -3   2   3 181.618 11.9183  -2
   3   2   3 181.618 11.9183   1
  -4   2   3 194.838 38.3559  -2
   4   2   3 194.838 38.3559   1
   5   2   3 1531.78 16.7007   1
   6   2   3 202.635 5.57793   1
   7   2   3 77.3032 4.86663   1
   7   3   2 15.0502 18.7734  -2
  -7   3   3 15.0502 18.7734   1
  -6   3   3 4.90205 4.52185   1
  -5   3   3 220.058 5.30311   1
   4   3   3 318.518 34.4189  -2
  -4   3   3 318.518 34.4189   1
   3   3   3 63.5102 17.1814  -2
  -3   3   3 63.5102 17.1814   1
   2   3   3 249.296 7.33028  -2
  -2   3   3 249.296 7.33028   1
   1   3   3 1397.96 24.4643  -2
  -1   3   3 1397.96 24.4643   1
   0   3   3 3.43393 2.66302  -2
   0   3   3 3.43393 2.66302   1
  -1   3   3 1361.98 24.1992  -2
   1   3   3 1361.98 24.1992   1
  -2   3   3 125.613 5.38706  -2
   2   3   3 125.613 5.38706   1
  -3   3   3 45.4379 10.2748  -2
   3   3   3 45.4379 10.2748   1
  -4   3   3 212.408 32.3048  -2
   4   3   3 212.408 32.3048   1
   5   3   3 640.078 8.21148   1
   6   3   3 10.2857 3.94459   1
  -7   3   4 -146.01 88.6627  -2
   7   3   3 -146.01 88.6627   1
   7   4   2 17.7900 22.2996  -2
  -7   4   3 17.7900 22.2996   1
  -6   4   3 219.388 5.86149   1
  -5   4   3 298.009 6.17506   1
   4   4   3 139.740 41.7970  -2
  -4   4   3 139.740 41.7970   1
   3   4   3 44.1405 14.7950  -2
  -3   4   3 44.1405 14.7950   1
   2   4   3 69.0921 13.1662  -2
  -2   4   3 69.0921 13.1662   1
   1   4   3 100.772 12.3320  -2
  -1   4   3 100.772 12.3320   1
   0   4   3 774.998 13.2818  -2
   0   4   3 774.998 13.2818   1
  -1   4   3 58.3521 8.85665  -2
   1   4   3 58.3521 8.85665   1
  -2   4   3 138.684 12.0875  -2
   2   4   3 138.684 12.0875   1
  -3   4   3 40.8102 19.0422  -2
   3   4   3 40.8102 19.0422   1
  -4   4   3 185.957 42.3442  -2
   4   4   3 185.957 42.3442   1
   5   4   3 389.718 6.87415   1
   6   4   3 -3.3390 4.32339   1
  -6   5   3 41.4285 8.20909   1
  -5   5   3 -0.9024 4.84260   1
   4   5   3 261.361 74.6364  -2
  -4   5   3 261.361 74.6364   1
   3   5   3 555.336 20.1918  -2
  -3   5   3 555.336 20.1918   1
   2   5   3 35.5615 17.0956  -2
  -2   5   3 35.5615 17.0956   1
   1   5   3 528.887 19.1631  -2
  -1   5   3 528.887 19.1631   1
   0   5   3 140.029 6.93519  -2
   0   5   3 140.029 6.93519   1
  -1   5   3 541.392 23.5758  -2
   1   5   3 541.392 23.5758   1
  -2   5   3 75.6916 14.8999  -2
   2   5   3 75.6916 14.8999   1
  -3   5   3 631.889 39.7471  -2
   3   5   3 631.889 39.7471   1
  -4   5   3 160.644 52.6555  -2
   4   5   3 160.644 52.6555   1
   5   5   3 31.2593 4.69215   1
   4   6   3 125.935 39.1724  -2
  -4   6   3 125.935 39.1724   1
   3   6   3 296.553 36.0244  -2
  -3   6   3 296.553 36.0244   1
   2   6   3 206.259 22.5630  -2
  -2   6   3 206.259 22.5630   1
   1   6   3 13.8499 13.4551  -2
  -1   6   3 13.8499 13.4551   1
   0   6   3 24.3414 6.99332  -2
   0   6   3 24.3414 6.99332   1
  -1   6   3 18.5158 15.1526  -2
   1   6   3 18.5158 15.1526   1
  -2   6   3 130.858 17.0473  -2
   2   6   3 130.858 17.0473   1
  -3   6   3 346.220 34.3744  -2
   3   6   3 346.220 34.3744   1
   4   6   3 -4.4373 5.94096   1
  -8   0   4 39.3403 17.7153   1
  -7   0   4 0.78773 9.83725   1
  -6   0   4 704.022 16.3884   1
  -5   0   4 -11.560 7.09362   1
  -4   0   4 527.392 14.7916   1
  -3   0   4 1.43891 5.93105   1
   2   0   4 1797.28 50.8295  -2
  -2   0   4 1797.28 50.8295   1
  -1   0   4 -1.9334 12.1779   1
   0   0   4 68.1316 5.05920  -2
   0   0   4 68.1316 5.05920   1
   1   0   4 -9.1617 6.97605   1
  -2   0   4 2187.09 46.6209  -2
   2   0   4 2187.09 46.6209   1
   3   0   4 -3.2610 4.17063   1
  -4   0   4 853.640 72.7000  -2
   4   0   4 853.640 72.7000   1
   5   0   4 -1.3745 5.29410   1
   6   0   4 105.006 6.13162   1
   7   0   4 13.5596 6.19061   1
   8   1   3 289.502 12.0761  -2
  -8   1   4 289.502 12.0761   1
   7   1   3 39.5189 19.4416  -2
  -7   1   4 39.5189 19.4416   1
  -6   1   4 339.918 7.95220   1
  -5   1   4 14.4181 5.14238   1
  -4   1   4 498.036 11.6215   1
   3   1   4 73.4420 14.9967  -2
  -3   1   4 73.4420 14.9967   1
   2   1   4 4823.18 93.1964  -2
  -2   1   4 4823.18 93.1964   1
   1   1   4 263.212 7.50768  -2
  -1   1   4 263.212 7.50768   1
   0   1   4 58.2123 3.74036  -2
   0   1   4 58.2123 3.74036   1
  -1   1   4 331.020 6.88421  -2
   1   1   4 331.020 6.88421   1
  -2   1   4 3357.41 45.2956  -2
   2   1   4 3357.41 45.2956   1
  -3   1   4 166.530 18.8606  -2
   3   1   4 166.530 18.8606   1
   4   1   4 194.097 5.09356   1
   5   1   4 448.233 7.48471   1
   6   1   4 22.5011 4.02920   1
   7   1   4 58.5620 4.79431   1
   7   2   3 5.07697 21.9864  -2
  -7   2   4 5.07697 21.9864   1
  -6   2   4 357.608 8.57457   1
  -5   2   4 38.0729 5.66500   1
   4   2   4 37.1578 77.1628  -2
  -4   2   4 37.1578 77.1628   1
   3   2   4 551.263 22.7582  -2
  -3   2   4 551.263 22.7582   1
   2   2   4 126.145 7.78432  -2
  -2   2   4 126.145 7.78432   1
   1   2   4 41.3282 4.36993  -2
  -1   2   4 41.3282 4.36993   1
   0   2   4 2179.05 29.5251  -2
   0   2   4 2179.05 29.5251   1
  -1   2   4 58.8636 4.97946  -2
   1   2   4 58.8636 4.97946   1
  -2   2   4 184.891 6.11348  -2
   2   2   4 184.891 6.11348   1
  -3   2   4 497.832 19.7920  -2
   3   2   4 497.832 19.7920   1
  -4   2   4 27.8860 37.2635  -2
   4   2   4 27.8860 37.2635   1
   5   2   4 713.383 9.80941   1
   6   2   4 238.386 5.66157   1
   7   2   4 5.22708 4.57202   1
   7   3   3 -28.708 17.1337  -2
  -7   3   4 -28.708 17.1337   1
  -6   3   4 243.301 6.56847   1
  -5   3   4 39.0040 4.92298   1
   4   3   4 3605.11 184.118  -2
  -4   3   4 3605.11 184.118   1
   3   3   4 706.907 23.8052  -2
  -3   3   4 706.907 23.8052   1
   2   3   4 90.0672 7.66640  -2
  -2   3   4 90.0672 7.66640   1
   1   3   4 59.3665 5.73338  -2
  -1   3   4 59.3665 5.73338   1
   0   3   4 21.8951 3.54716  -2
   0   3   4 21.8951 3.54716   1
  -1   3   4 55.2943 5.65726  -2
   1   3   4 55.2943 5.65726   1
  -2   3   4 153.703 7.60112  -2
   2   3   4 153.703 7.60112   1
  -3   3   4 779.988 20.6186  -2
   3   3   4 779.988 20.6186   1
  -4   3   4 1917.60 109.257  -2
   4   3   4 1917.60 109.257   1
   5   3   4 44.5206 4.15924   1
   6   3   4 56.2897 4.49513   1
   7   3   4 30.7971 34.2696   1
  -6   4   4 43.1443 5.29345   1
  -5   4   4 33.1260 5.14164   1
   4   4   4 94.7514 79.3852  -2
  -4   4   4 94.7514 79.3852   1
   3   4   4 67.1301 13.8849  -2
  -3   4   4 67.1301 13.8849   1
   2   4   4 31.2549 9.17828  -2
  -2   4   4 31.2549 9.17828   1
   1   4   4 555.994 13.6040  -2
  -1   4   4 555.994 13.6040   1
   0   4   4 19.0152 4.70460  -2
   0   4   4 19.0152 4.70460   1
  -1   4   4 461.616 11.6077  -2
   1   4   4 461.616 11.6077   1
  -2   4   4 26.5460 8.50134  -2
   2   4   4 26.5460 8.50134   1
  -3   4   4 95.9126 14.3563  -2
   3   4   4 95.9126 14.3563   1
  -4   4   4 142.256 39.4313  -2
   4   4   4 142.256 39.4313   1
   5   4   4 8.43526 4.20844   1
   6   4   4 13.3651 4.76112   1
  -5   5   4 30.5741 5.92378   1
   4   5   4 32.9680 34.0949  -2
  -4   5   4 32.9680 34.0949   1
   3   5   4 319.227 21.1526  -2
  -3   5   4 319.227 21.1526   1
   2   5   4 339.255 19.3690  -2
  -2   5   4 339.255 19.3690   1
   1   5   4 197.378 13.8964  -2
  -1   5   4 197.378 13.8964   1
   0   5   4 106.843 6.17048  -2
   0   5   4 106.843 6.17048   1
  -1   5   4 159.915 12.2583  -2
   1   5   4 159.915 12.2583   1
  -2   5   4 176.976 13.4523  -2
   2   5   4 176.976 13.4523   1
  -3   5   4 589.948 42.1927  -2
   3   5   4 589.948 42.1927   1
  -4   5   4 25.3349 83.9703  -2
   4   5   4 25.3349 83.9703   1
   5   5   4 17.6152 4.84472   1
   3   6   4 72.5212 37.0467  -2
  -3   6   4 72.5212 37.0467   1
   2   6   4 -32.116 23.6551  -2
  -2   6   4 -32.116 23.6551   1
   1   6   4 225.078 20.1346  -2
  -1   6   4 225.078 20.1346   1
   0   6   4 325.104 9.98646  -2
   0   6   4 325.104 9.98646   1
  -1   6   4 213.167 15.0979  -2
   1   6   4 213.167 15.0979   1
  -2   6   4 -18.952 19.7639  -2
   2   6   4 -18.952 19.7639   1
  -3   6   4 71.4568 61.9974  -2
   3   6   4 71.4568 61.9974   1
  -7   0   5 972.678 23.1849   1
  -6   0   5 2.51812 8.47235   1
  -5   0   5 76.5805 9.07745   1
  -4   0   5 -0.8941 8.04280   1
   3   0   5 745.611 50.2354  -2
  -3   0   5 745.611 50.2354   1
  -2   0   5 -3.8937 18.2532   1
   1   0   5 710.233 22.7641  -2
  -1   0   5 710.233 22.7641   1
   0   0   5 3.00377 6.56102   1
  -1   0   5 651.636 18.3187  -2
   1   0   5 651.636 18.3187   1
   2   0   5 -4.5914 9.85209   1
  -3   0   5 389.731 33.2158  -2
   3   0   5 389.731 33.2158   1
   4   0   5 -2.6808 5.54749   1
   5   0   5 72.1380 5.59110   1
   6   0   5 6.34558 5.84278   1
   7   0   5 13.5296 6.62832   1
   7   1   4 72.9109 16.1311  -2
  -7   1   5 72.9109 16.1311   1
  -6   1   5 52.8297 6.07345   1
  -5   1   5 161.715 6.93604   1
  -4   1   5 691.511 12.5253   1
   3   1   5 236.993 17.7514  -2
  -3   1   5 236.993 17.7514   1
   2   1   5 153.666 10.0370  -2
  -2   1   5 153.666 10.0370   1
   1   1   5 440.433 11.1742  -2
  -1   1   5 440.433 11.1742   1
   0   1   5 76.1595 4.17648  -2
   0   1   5 76.1595 4.17648   1
  -1   1   5 653.145 11.6763  -2
   1   1   5 653.145 11.6763   1
  -2   1   5 61.2685 5.64332  -2
   2   1   5 61.2685 5.64332   1
  -3   1   5 126.655 12.6005  -2
   3   1   5 126.655 12.6005   1
   4   1   5 392.181 6.83774   1
   5   1   5 -0.2135 3.64840   1
   6   1   5 172.673 5.17720   1
   7   1   5 22.3203 4.76646   1
   7   2   4 23.5518 15.3872  -2
  -7   2   5 23.5518 15.3872   1
  -6   2   5 69.6219 6.41501   1
  -5   2   5 794.086 12.9285   1
   4   2   5 73.8781 67.4811  -2
  -4   2   5 73.8781 67.4811   1
   3   2   5 237.120 15.2840  -2
  -3   2   5 237.120 15.2840   1
   2   2   5 227.612 11.5601  -2
  -2   2   5 227.612 11.5601   1
   1   2   5 86.5462 6.93510  -2
  -1   2   5 86.5462 6.93510   1
   0   2   5 998.862 15.4152  -2
   0   2   5 998.862 15.4152   1
  -1   2   5 69.4418 5.24594  -2
   1   2   5 69.4418 5.24594   1
  -2   2   5 111.485 6.55654  -2
   2   2   5 111.485 6.55654   1
  -3   2   5 184.224 14.7919  -2
   3   2   5 184.224 14.7919   1
  -4   2   5 166.019 66.7365  -2
   4   2   5 166.019 66.7365   1
   5   2   5 -2.2497 4.06202   1
   6   2   5 225.720 5.67460   1
  -6   3   5 21.9394 5.51618   1
  -5   3   5 20.9261 5.22713   1
   4   3   5 362.821 80.6195  -2
  -4   3   5 362.821 80.6195   1
   3   3   5 205.585 16.2588  -2
  -3   3   5 205.585 16.2588   1
   2   3   5 580.599 13.9433  -2
  -2   3   5 580.599 13.9433   1
   1   3   5 691.306 14.2278  -2
  -1   3   5 691.306 14.2278   1
   0   3   5 -1.8895 4.35528  -2
   0   3   5 -1.8895 4.35528   1
  -1   3   5 621.256 12.2265  -2
   1   3   5 621.256 12.2265   1
  -2   3   5 558.662 12.5202  -2
   2   3   5 558.662 12.5202   1
  -3   3   5 396.016 19.7865  -2
   3   3   5 396.016 19.7865   1
   4   3   5 165.435 4.98006   1
   5   3   5 -3.6180 4.28135   1
   6   3   5 21.4024 4.68087   1
  -5   4   5 36.0265 5.74082   1
   4   4   5 1607.57 424.586  -2
  -4   4   5 1607.57 424.586   1
   3   4   5 -3.1026 15.7637  -2
  -3   4   5 -3.1026 15.7637   1
   2   4   5 873.649 16.7052  -2
  -2   4   5 873.649 16.7052   1
   1   4   5 38.5004 7.30601  -2
  -1   4   5 38.5004 7.30601   1
   0   4   5 366.566 6.81697  -2
   0   4   5 366.566 6.81697   1
  -1   4   5 76.6370 7.31705  -2
   1   4   5 76.6370 7.31705   1
  -2   4   5 1120.16 18.1541  -2
   2   4   5 1120.16 18.1541   1
  -3   4   5 41.8708 17.7897  -2
   3   4   5 41.8708 17.7897   1
  -4   4   5 483.755 51.9103  -2
   4   4   5 483.755 51.9103   1
   5   4   5 1.90410 4.57312   1
  -4   5   5 69.4967 7.53224   1
   3   5   5 29.7905 25.2722  -2
  -3   5   5 29.7905 25.2722   1
   2   5   5 1045.07 26.6199  -2
  -2   5   5 1045.07 26.6199   1
   1   5   5 166.295 11.8723  -2
  -1   5   5 166.295 11.8723   1
   0   5   5 57.2599 6.13305  -2
   0   5   5 57.2599 6.13305   1
  -1   5   5 184.953 12.4883  -2
   1   5   5 184.953 12.4883   1
  -2   5   5 776.827 19.4242  -2
   2   5   5 776.827 19.4242   1
  -3   5   5 182.961 35.1137  -2
   3   5   5 182.961 35.1137   1
  -4   5   5 158.849 44.8696  -2
   4   5   5 158.849 44.8696   1
   1   6   5 9.47113 23.0669  -2
  -1   6   5 9.47113 23.0669   1
   0   6   5 1454.91 22.3419  -2
   0   6   5 1454.91 22.3419   1
  -1   6   5 5.01987 15.6061  -2
   1   6   5 5.01987 15.6061   1
  -6   0   6 14.9742 9.14715   1
  -5   0   6 25.0806 8.97064   1
  -4   0   6 20.5016 8.77218   1
  -3   0   6 13.6929 23.1329   1
   2   0   6 -1.9854 24.2011  -2
  -2   0   6 -1.9854 24.2011   1
  -1   0   6 -14.044 16.5630   1
   0   0   6 6928.14 199.437  -2
   0   0   6 6928.14 199.437   1
   1   0   6 -8.3206 14.7579   1
  -2   0   6 9.63369 10.7260  -2
   2   0   6 9.63369 10.7260   1
   3   0   6 1.91724 5.96208   1
   4   0   6 22.0254 5.43813   1
   5   0   6 -10.739 5.45844   1
   6   0   6 340.109 9.74851   1
  -6   1   6 26.1020 6.57600   1
  -5   1   6 8.04668 6.13300   1
   4   1   6 270.464 36.6587  -2
  -4   1   6 270.464 36.6587   1
   3   1   6 159.983 23.6754  -2
  -3   1   6 159.983 23.6754   1
   2   1   6 515.312 16.4579  -2
  -2   1   6 515.312 16.4579   1
   1   1   6 819.558 21.4626  -2
  -1   1   6 819.558 21.4626   1
   0   1   6 50.2151 4.95505  -2
   0   1   6 50.2151 4.95505   1
  -1   1   6 899.929 16.0878  -2
   1   1   6 899.929 16.0878   1
  -2   1   6 658.369 13.6127  -2
   2   1   6 658.369 13.6127   1
  -3   1   6 350.442 28.1023  -2
   3   1   6 350.442 28.1023   1
  -4   1   6 638.369 75.9518  -2
   4   1   6 638.369 75.9518   1
   5   1   6 136.712 4.88606   1
   6   1   6 -2.5265 4.64626   1
  -6   2   6 134.507 6.98228   1
  -5   2   6 330.077 8.23228   1
   4   2   6 160.633 36.6631  -2
  -4   2   6 160.633 36.6631   1
   3   2   6 242.301 35.9394  -2
  -3   2   6 242.301 35.9394   1
   2   2   6 1013.30 21.8521  -2
  -2   2   6 1013.30 21.8521   1
   1   2   6 145.735 7.15258  -2
  -1   2   6 145.735 7.15258   1
   0   2   6 575.405 9.71907  -2
   0   2   6 575.405 9.71907   1
  -1   2   6 268.543 7.73662  -2
   1   2   6 268.543 7.73662   1
  -2   2   6 988.584 16.1005  -2
   2   2   6 988.584 16.1005   1
  -3   2   6 104.365 19.9542  -2
   3   2   6 104.365 19.9542   1
  -4   2   6 304.752 70.9146  -2
   4   2   6 304.752 70.9146   1
   5   2   6 37.8507 4.46469   1
   6   2   6 169.409 47.3016   1
  -5   3   6 10.9700 5.78211   1
   4   3   6 180.306 35.7728  -2
  -4   3   6 180.306 35.7728   1
   3   3   6 853.487 40.3976  -2
  -3   3   6 853.487 40.3976   1
   2   3   6 431.298 12.8957  -2
  -2   3   6 431.298 12.8957   1
   1   3   6 4.62745 7.27583  -2
  -1   3   6 4.62745 7.27583   1
   0   3   6 67.6226 5.35195  -2
   0   3   6 67.6226 5.35195   1
  -1   3   6 9.03727 7.13227  -2
   1   3   6 9.03727 7.13227   1
  -2   3   6 272.263 9.59769  -2
   2   3   6 272.263 9.59769   1
  -3   3   6 508.531 26.9704  -2
   3   3   6 508.531 26.9704   1
  -4   3   6 181.259 75.7895  -2
   4   3   6 181.259 75.7895   1
   5   3   6 15.9486 4.54518   1
   4   4   6 191.400 37.5153  -2
  -4   4   6 191.400 37.5153   1
   3   4   6 102.722 19.5202  -2
  -3   4   6 102.722 19.5202   1
   2   4   6 334.186 13.2433  -2
  -2   4   6 334.186 13.2433   1
   1   4   6 623.980 13.0138  -2
  -1   4   6 623.980 13.0138   1
   0   4   6 69.3327 5.75880  -2
   0   4   6 69.3327 5.75880   1
  -1   4   6 374.499 10.5651  -2
   1   4   6 374.499 10.5651   1
  -2   4   6 248.105 10.2645  -2
   2   4   6 248.105 10.2645   1
  -3   4   6 45.4851 17.1282  -2
   3   4   6 45.4851 17.1282   1
  -4   4   6 12.0624 86.4231  -2
   4   4   6 12.0624 86.4231   1
  -3   5   6 119.227 7.07500   1
   2   5   6 116.430 20.9494  -2
  -2   5   6 116.430 20.9494   1
   1   5   6 76.9107 14.1553  -2
  -1   5   6 76.9107 14.1553   1
   0   5   6 63.4407 7.78517  -2
   0   5   6 63.4407 7.78517   1
  -1   5   6 35.1251 16.3921  -2
   1   5   6 35.1251 16.3921   1
  -2   5   6 48.9137 15.9898  -2
   2   5   6 48.9137 15.9898   1
  -5   0   7 574.223 18.7134   1
  -4   0   7 2.65704 9.11824   1
   3   0   7 332.531 24.3960  -2
  -3   0   7 332.531 24.3960   1
  -2   0   7 -11.419 18.7014   1
   1   0   7 973.856 24.9760  -2
  -1   0   7 973.856 24.9760   1
   0   0   7 -8.9572 9.21472   1
  -1   0   7 1402.55 32.6464  -2
   1   0   7 1402.55 32.6464   1
   2   0   7 -6.2665 14.3115   1
  -3   0   7 263.951 29.8155  -2
   3   0   7 263.951 29.8155   1
   4   0   7 3.44347 5.72589   1
   5   0   7 174.946 7.85376   1
  -5   1   7 88.5793 7.23953   1
   4   1   7 147.095 55.4935  -2
  -4   1   7 147.095 55.4935   1
   3   1   7 758.051 23.6985  -2
  -3   1   7 758.051 23.6985   1
   2   1   7 137.134 12.8854  -2
  -2   1   7 137.134 12.8854   1
   1   1   7 626.750 13.9663  -2
  -1   1   7 626.750 13.9663   1
   0   1   7 270.264 7.23583  -2
   0   1   7 270.264 7.23583   1
  -1   1   7 722.722 13.4000  -2
   1   1   7 722.722 13.4000   1
  -2   1   7 88.3700 7.69639  -2
   2   1   7 88.3700 7.69639   1
  -3   1   7 703.013 25.8173  -2
   3   1   7 703.013 25.8173   1
  -4   1   7 41.2666 37.1797  -2
   4   1   7 41.2666 37.1797   1
   5   1   7 50.1094 4.84229   1
  -5   2   7 9.24544 6.95469   1
   4   2   7 116.188 43.2444  -2
  -4   2   7 116.188 43.2444   1
   3   2   7 32.0777 16.4798  -2
  -3   2   7 32.0777 16.4798   1
   2   2   7 262.957 12.4708  -2
  -2   2   7 262.957 12.4708   1
   1   2   7 1202.69 20.5342  -2
  -1   2   7 1202.69 20.5342   1
   0   2   7 365.888 7.90515  -2
   0   2   7 365.888 7.90515   1
  -1   2   7 865.297 13.0271  -2
   1   2   7 865.297 13.0271   1
  -2   2   7 421.324 11.0757  -2
   2   2   7 421.324 11.0757   1
  -3   2   7 71.6085 19.7679  -2
   3   2   7 71.6085 19.7679   1
  -4   2   7 -4.9619 71.7439  -2
   4   2   7 -4.9619 71.7439   1
   4   3   7 19.7938 37.3448  -2
  -4   3   7 19.7938 37.3448   1
   3   3   7 668.115 23.8672  -2
  -3   3   7 668.115 23.8672   1
   2   3   7 43.2356 11.4351  -2
  -2   3   7 43.2356 11.4351   1
   1   3   7 30.8749 9.08942  -2
  -1   3   7 30.8749 9.08942   1
   0   3   7 5.99080 5.54012  -2
   0   3   7 5.99080 5.54012   1
  -1   3   7 10.2109 7.92198  -2
   1   3   7 10.2109 7.92198   1
  -2   3   7 18.6292 9.22958  -2
   2   3   7 18.6292 9.22958   1
  -3   3   7 554.121 24.8224  -2
   3   3   7 554.121 24.8224   1
   4   3   7 123.890 5.95348   1
  -3   4   7 27.6338 6.75359   1
   2   4   7 143.579 13.2019  -2
  -2   4   7 143.579 13.2019   1
   1   4   7 179.952 10.9486  -2
  -1   4   7 179.952 10.9486   1
   0   4   7 432.836 8.82678  -2
   0   4   7 432.836 8.82678   1
  -1   4   7 226.049 11.1061  -2
   1   4   7 226.049 11.1061   1
  -2   4   7 157.365 10.9187  -2
   2   4   7 157.365 10.9187   1
  -4   0   8 16.8609 11.6602   1
  -3   0   8 -10.267 16.3837   1
   2   0   8 70.9677 19.0778  -2
  -2   0   8 70.9677 19.0778   1
  -1   0   8 -12.907 15.4317   1
   0   0   8 386.939 12.9592  -2
   0   0   8 386.939 12.9592   1
   1   0   8 2.06037 15.0432   1
  -2   0   8 73.8180 13.1392  -2
   2   0   8 73.8180 13.1392   1
   3   0   8 4.70764 7.26205   1
  -4   1   8 183.469 8.79817   1
   3   1   8 270.452 16.8319  -2
  -3   1   8 270.452 16.8319   1
   2   1   8 10.7007 13.2739  -2
  -2   1   8 10.7007 13.2739   1
   1   1   8 266.964 11.0991  -2
  -1   1   8 266.964 11.0991   1
   0   1   8 13.2031 5.80331  -2
   0   1   8 13.2031 5.80331   1
  -1   1   8 289.399 9.48337  -2
   1   1   8 289.399 9.48337   1
  -2   1   8 35.3317 9.27826  -2
   2   1   8 35.3317 9.27826   1
  -3   1   8 664.054 29.0226  -2
   3   1   8 664.054 29.0226   1
   3   2   8 31.9279 21.0491  -2
  -3   2   8 31.9279 21.0491   1
   2   2   8 216.445 14.3751  -2
  -2   2   8 216.445 14.3751   1
   1   2   8 416.062 12.0303  -2
  -1   2   8 416.062 12.0303   1
   0   2   8 99.4955 6.03658  -2
   0   2   8 99.4955 6.03658   1
  -1   2   8 230.688 8.59517  -2
   1   2   8 230.688 8.59517   1
  -2   2   8 113.429 9.56453  -2
   2   2   8 113.429 9.56453   1
  -3   2   8 8.20155 21.6328  -2
   3   2   8 8.20155 21.6328   1
  -2   3   8 111.900 7.38376   1
   1   3   8 156.060 10.9990  -2
  -1   3   8 156.060 10.9990   1
   0   3   8 -2.2070 6.22167  -2
   0   3   8 -2.2070 6.22167   1
  -1   3   8 202.686 9.91656  -2
   1   3   8 202.686 9.91656   1
  -1   0   9 224.299 11.4646   1
   0   0   9 -2.9874 10.9147   1
   0   0   0    0.00    0.00   0
;
_shelx_hkl_checksum              59657
loop_
_space_group_symop_operation_xyz
'x, y, z'
'-x+1/2, y+1/2, -z+1/2'
'-x, -y, -z'
'x-1/2, -y-1/2, z-1/2'
loop_
_atom_site_label
_atom_site_type_symbol
_atom_site_fract_x
_atom_site_fract_y
_atom_site_fract_z
_atom_site_U_iso_or_equiv
_atom_site_adp_type
_atom_site_occupancy
_atom_site_site_symmetry_order
_atom_site_calc_flag
_atom_site_refinement_flags_posn
_atom_site_refinement_flags_adp
_atom_site_refinement_flags_occupancy
_atom_site_disorder_assembly
_atom_site_disorder_group
S1 S 0.0637(2) 0.2041(3) 0.3511(2) 0.0373(6) Uani 1 1 d . . . . .
S2 S 0.0948(2) 0.2910(3) 0.6502(2) 0.0371(6) Uani 1 1 d . . . . .
S3 S 0.3004(2) 0.0757(3) 0.5095(2) 0.0488(7) Uani 1 1 d . . . . .
S4 S 0.2773(2) 0.4477(3) 0.4635(2) 0.0473(7) Uani 1 1 d . . . . .
N3 N 0.3912(7) 0.2687(11) 0.4797(9) 0.056(2) Uani 1 1 d . . . . .
N4 N 0.1580(8) 0.3935(9) 0.3219(6) 0.0433(17) Uani 1 1 d . . . . .
N1 N -0.0228(7) 0.2429(10) 0.5070(8) 0.0375(16) Uani 1 1 d . . . . .
N2 N 0.2109(7) 0.1164(9) 0.6650(6) 0.0445(17) Uani 1 1 d . . . . .
loop_
_atom_site_aniso_label
_atom_site_aniso_U_11
_atom_site_aniso_U_22
_atom_site_aniso_U_33
_atom_site_aniso_U_23
_atom_site_aniso_U_13
_atom_site_aniso_U_12
S1 0.0457(12) 0.0419(13) 0.0239(11) -0.0040(9) -0.0021(8) 0.0020(10)
S2 0.0430(12) 0.0422(14) 0.0263(12) -0.0073(9) 0.0040(9) 0.0035(9)
S3 0.0490(13) 0.0568(17) 0.0405(11) -0.0016(11) 0.0002(10) 0.0264(13)
S4 0.0467(13) 0.0504(16) 0.0448(13) 0.0015(10) 0.0041(10) -0.0123(11)
N3 0.036(4) 0.079(6) 0.053(5) -0.003(4) 0.007(3) -0.002(4)
N4 0.059(4) 0.044(4) 0.027(4) 0.011(4) 0.004(3) -0.004(4)
N1 0.035(3) 0.044(4) 0.033(3) -0.010(3) 0.001(3) 0.004(4)
N2 0.059(4) 0.041(4) 0.034(4) 0.003(3) -0.001(3) 0.013(4)
loop_
_atom_type_symbol
_atom_type_description
_atom_type_scat_dispersion_real
_atom_type_scat_dispersion_imag
_atom_type_scat_source
N N 0.0061 0.0033 'International Tables Vol C Tables 4.2.6.8 and 6.1.1.4'
S S 0.1246 0.1234 'International Tables Vol C Tables 4.2.6.8 and 6.1.1.4'
loop_
_geom_angle_atom_site_label_1
_geom_angle_atom_site_label_2
_geom_angle_atom_site_label_3
_geom_angle
_geom_angle_site_symmetry_1
_geom_angle_site_symmetry_3
_geom_angle_publ_flag
N4 S1 N1 104.5(3) . . ?
N2 S2 N1 105.6(3) . . ?
N3 S3 N2 103.8(4) . . ?
N3 S4 N4 104.1(4) . . ?
S3 N3 S4 112.8(4) . . ?
S1 N4 S4 112.9(3) . . ?
S1 N1 S2 113.1(4) . . ?
S2 N2 S3 113.1(3) . . ?
loop_
_geom_bond_atom_site_label_1
_geom_bond_atom_site_label_2
_geom_bond_distance
_geom_bond_site_symmetry_2
_geom_bond_publ_flag
S1 N4 1.611(7) . ?
S1 N1 1.616(7) . ?
S2 N2 1.608(6) . ?
S2 N1 1.621(7) . ?
S3 N3 1.618(8) . ?
S3 N2 1.629(6) . ?
S4 N3 1.622(8) . ?
S4 N4 1.630(6) . ?
