#------------------------------------------------------------------------------
#$Date: 2015-01-27 21:58:39 +0200 (Tue, 27 Jan 2015) $
#$Revision: 130149 $
#$URL: svn://www.crystallography.net/cod/cif/8/10/09/8100979.cif $
#------------------------------------------------------------------------------
#
# This file is available in the Crystallography Open Database (COD),
# http://www.crystallography.net/
#
# All data on this site have been placed in the public domain by the
# contributors.
#
data_8100979
loop_
_publ_author_name
'Fornasini, Maria L.'
'Merlo, Franco'
'Pani, Marcella'
_publ_section_title
;
Crystal structure of calcium lithium plumbide (1/1/1), CaLiPb, and 
ytterbium lithium plumbide (1/1/1), YbLiPb
;
_journal_issue                   2
_journal_name_full
'Zeitschrift f\"ur Kristallographie - New Crystal Structures'
_journal_page_first              173
_journal_page_last               174
_journal_volume                  216
_journal_year                    2001
_chemical_formula_sum            'Li Pb Yb'
_chemical_formula_weight         387.17
_space_group_IT_number           187
_symmetry_cell_setting           hexagonal
_symmetry_space_group_name_Hall  'P -6 2'
_symmetry_space_group_name_H-M   'P -6 m 2'
_cell_angle_alpha                90.00
_cell_angle_beta                 90.00
_cell_angle_gamma                120.00
_cell_formula_units_Z            3
_cell_length_a                   4.9180(10)
_cell_length_b                   4.9180(10)
_cell_length_c                   10.921(3)
_cell_measurement_temperature    293(2)
_cell_volume                     228.75(9)
_diffrn_ambient_temperature      293(2)
_exptl_crystal_density_diffrn    8.431
_refine_ls_R_factor_obs          0.0538
_refine_ls_wR_factor_obs         0.1029
_cod_database_code               8100979
loop_
_symmetry_equiv_pos_as_xyz
'x, y, z'
'-y, x-y, z'
'-x+y, -x, z'
'-y, -x, z'
'x, x-y, z'
'-x+y, y, z'
'x, y, -z'
'-y, x-y, -z'
'-x+y, -x, -z'
'-y, -x, -z'
'x, x-y, -z'
'-x+y, y, -z'
loop_
_atom_site_aniso_label
_atom_site_aniso_U_11
_atom_site_aniso_U_22
_atom_site_aniso_U_33
_atom_site_aniso_U_23
_atom_site_aniso_U_13
_atom_site_aniso_U_12
Yb1 0.0247(11) 0.0247(11) 0.0193(12) 0.000 0.000 0.0123(5)
Yb2 0.0237(18) 0.0237(18) 0.0203(19) 0.000 0.000 0.0118(9)
Pb1 0.0129(7) 0.0129(7) 0.0253(12) 0.000 0.000 0.0065(3)
Pb2 0.0147(8) 0.0147(8) 0.0232(17) 0.000 0.000 0.0074(4)
loop_
_atom_site_label
_atom_site_type_symbol
_atom_site_fract_x
_atom_site_fract_y
_atom_site_fract_z
_atom_site_U_iso_or_equiv
_atom_site_thermal_displace_type
_atom_site_occupancy
_atom_site_Wyckoff_symbol
_atom_site_symmetry_multiplicity
_atom_site_calc_flag
_atom_site_refinement_flags
_atom_site_disorder_group
Yb1 Yb 0.0000 0.0000 0.3334(3) 0.0229(7) Uani 1 g 2 d S .
Yb2 Yb 0.0000 0.0000 0.0000 0.0226(12) Uani 1 a 1 d S .
Li1 Li 0.3333 0.6667 0.196(11) 0.020(14) Uiso 1 h 2 d S .
Li2 Li 0.6667 0.3333 0.5000 0.020(14) Uiso 1 f 1 d S .
Pb1 Pb 0.6667 0.3333 0.1544(2) 0.0171(6) Uani 1 i 2 d S .
Pb2 Pb 0.3333 0.6667 0.5000 0.0176(7) Uani 1 d 1 d S .
loop_
_geom_bond_atom_site_label_1
_geom_bond_atom_site_label_2
_geom_bond_distance
_geom_bond_site_symmetry_2
_geom_bond_publ_flag
Yb1 Li1 3.21(5) 1_545 ?
Yb1 Li1 3.21(5) . ?
Yb1 Li1 3.21(5) 1_445 ?
Yb1 Pb2 3.373(2) 1_545 ?
Yb1 Li2 3.373(2) 1_455 ?
Yb1 Pb2 3.373(2) . ?
Yb1 Li2 3.373(2) . ?
Yb1 Pb2 3.373(2) 1_445 ?
Yb1 Li2 3.373(2) 1_445 ?
Yb1 Pb1 3.447(3) 1_455 ?
Yb1 Pb1 3.447(3) . ?
Yb1 Pb1 3.447(3) 1_445 ?
Yb1 Yb1 3.640(7) 7_556 ?
Yb1 Yb2 3.641(4) . ?
Yb2 Pb1 3.3023(14) 7_455 ?
Yb2 Pb1 3.3023(14) 1_455 ?
Yb2 Pb1 3.3023(14) 7_445 ?
Yb2 Pb1 3.3023(14) . ?
Yb2 Pb1 3.3023(14) 7 ?
Yb2 Pb1 3.3023(14) 1_445 ?
Yb2 Li1 3.55(7) 1_545 ?
Yb2 Li1 3.55(7) 7_545 ?
Yb2 Li1 3.55(7) . ?
Yb2 Li1 3.55(7) 7_445 ?
Yb2 Li1 3.55(7) 1_445 ?
Yb2 Li1 3.55(7) 7 ?
Yb2 Yb1 3.641(4) 7 ?
Li1 Pb1 2.875(18) 1_455 ?
Li1 Pb1 2.875(18) 1_565 ?
Li1 Pb1 2.875(18) . ?
Li1 Yb1 3.21(5) 1_565 ?
Li1 Yb1 3.21(5) 1_665 ?
Li1 Pb2 3.32(12) . ?
Li1 Yb2 3.55(7) 1_565 ?
Li1 Yb2 3.55(7) 1_665 ?
Li2 Pb2 2.8394(6) 1_545 ?
Li2 Pb2 2.8394(6) 1_655 ?
Li2 Pb2 2.8394(6) . ?
Li2 Yb1 3.373(2) 1_655 ?
Li2 Yb1 3.373(2) 7_656 ?
Li2 Yb1 3.373(2) 7_666 ?
Li2 Yb1 3.373(2) 1_665 ?
Li2 Yb1 3.373(2) 7_556 ?
Pb1 Li1 2.875(18) 1_655 ?
Pb1 Li1 2.875(18) 1_545 ?
Pb1 Yb2 3.3023(14) 1_655 ?
Pb1 Yb2 3.3023(14) 1_665 ?
Pb1 Pb1 3.372(5) 7 ?
Pb1 Yb1 3.447(3) 1_655 ?
Pb1 Yb1 3.447(3) 1_665 ?
Pb2 Li2 2.8394(6) 1_565 ?
Pb2 Li2 2.8394(6) 1_455 ?
Pb2 Li1 3.32(12) 7_556 ?
Pb2 Yb1 3.373(2) 1_565 ?
Pb2 Yb1 3.373(2) 7_566 ?
Pb2 Yb1 3.373(2) 7_666 ?
Pb2 Yb1 3.373(2) 1_665 ?
Pb2 Yb1 3.373(2) 7_556 ?
