#------------------------------------------------------------------------------
#$Date: 2016-02-18 14:25:00 +0200 (Thu, 18 Feb 2016) $
#$Revision: 176728 $
#$URL: svn://www.crystallography.net/cod/cif/8/10/29/8102937.cif $
#------------------------------------------------------------------------------
#
# This file is available in the Crystallography Open Database (COD),
# http://www.crystallography.net/
#
# All data on this site have been placed in the public domain by the
# contributors.
#
data_8102937
loop_
_publ_author_name
'Demchyna, R.'
'Prots, Yu.'
'Schnelle, W.'
'Burkhardt, U.'
'Schwarz, U.'
_publ_section_title
;
Crystal structures of (barium, europium) platinum trigermanium, Ba~1-
x~EuxPtGe3 (x = 0, 0.27, 1)
;
_journal_issue                   2
_journal_name_full
'Zeitschrift f\"ur Kristallographie - New Crystal Structures'
_journal_page_first              109
_journal_page_last               111
_journal_volume                  221
_journal_year                    2006
_chemical_formula_sum            'Eu Ge3 Pt'
_chemical_formula_weight         564.82
_space_group_IT_number           107
_symmetry_space_group_name_Hall  'I 4 -2'
_symmetry_space_group_name_H-M   'I 4 m m'
_atom_sites_solution_primary     direct
_atom_sites_solution_secondary   difmap
_audit_creation_date             2006-02-02T10:02:43-00:00
_audit_creation_method           'WinGX routine CIF_UPDATE'
_cell_angle_alpha                90
_cell_angle_beta                 90
_cell_angle_gamma                90
_cell_formula_units_Z            1
_cell_length_a                   4.4633(1)
_cell_length_b                   4.4633(1)
_cell_length_c                   10.0625(4)
_cell_measurement_temperature    293(2)
_cell_volume                     200.456(10)
_computing_cell_refinement       'CSD (Akselrud, 1993)'
_computing_data_collection       'CrystalClear (Rigaku Corp., 2000)'
_computing_data_reduction        'CrystalClear (Rigaku Corp., 2000)'
_computing_structure_refinement  'SHELXL-97 (Sheldrick, 1997)'
_diffrn_ambient_temperature      295.15
_diffrn_detector_area_resol_mean 14.6306
_diffrn_measurement_device       'Rigaku AFC7'
_diffrn_measurement_method       oscillation
_diffrn_radiation_detector       'Mercury CCD'
_diffrn_radiation_monochromator  'Graphite Monochromator'
_diffrn_radiation_source         'Sealed Tube'
_diffrn_radiation_type           MoK\a
_diffrn_radiation_wavelength     0.7107
_diffrn_reflns_av_R_equivalents  0.030
_diffrn_reflns_limit_h_max       6
_diffrn_reflns_limit_h_min       -6
_diffrn_reflns_limit_k_max       5
_diffrn_reflns_limit_k_min       -6
_diffrn_reflns_limit_l_max       13
_diffrn_reflns_limit_l_min       -14
_diffrn_reflns_number            843
_diffrn_reflns_reduction_process 'Lp corrections applied'
_diffrn_reflns_theta_max         32.99
_diffrn_reflns_theta_min         4.05
_diffrn_source_current           48.0000
_diffrn_source_power             2.4000
_diffrn_source_voltage           50.0000
_exptl_absorpt_coefficient_mu    72.176
_exptl_absorpt_correction_T_max  1.0000
_exptl_absorpt_correction_T_min  0.5201
_exptl_absorpt_correction_type   multi-scan
_exptl_crystal_colour            metalic
_exptl_crystal_density_diffrn    9.358
_exptl_crystal_density_method    'not measured'
_exptl_crystal_description       'irregular shape'
_exptl_crystal_F_000             474
_exptl_crystal_size_max          0.040
_exptl_crystal_size_mid          0.025
_exptl_crystal_size_min          0.015
_refine_diff_density_max         1.228
_refine_diff_density_min         -2.434
_refine_ls_abs_structure_details 'Flack H D (1983), Acta Cryst. A39, 876-881'
_refine_ls_abs_structure_Flack   -0.026(14)
_refine_ls_extinction_coef       0.0168(9)
_refine_ls_extinction_expression Fc^*^=kFc[1+0.001xFc^2^\l^3^/sin(2\q)]^-1/4^
_refine_ls_extinction_method     SHELXL
_refine_ls_goodness_of_fit_ref   1.093
_refine_ls_matrix_type           full
_refine_ls_number_parameters     14
_refine_ls_number_reflns         241
_refine_ls_number_restraints     0
_refine_ls_restrained_S_all      1.093
_refine_ls_R_factor_gt           0.018
_refine_ls_shift/su_max          0.092
_refine_ls_structure_factor_coef Fsqd
_refine_ls_weighting_details
'calc w=1/[\s^2^(Fo^2^)+(0.0000P)^2^+0.0000P] where P=(Fo^2^+2Fc^2^)/3'
_refine_ls_weighting_scheme      calc
_refine_ls_wR_factor_ref         0.035
_reflns_number_gt                241
_reflns_number_total             241
_reflns_threshold_expression     >2sigma(I)
_cod_data_source_file            409869.cff
_cod_data_source_block           EuGe3Pt
_cod_depositor_comments
;
The following automatic conversions were performed:
'_exptl_absorpt_correction_type' value 'Multi-scan' changed to
'multi-scan' according to
'/home/saulius/struct/CIF-dictionaries/cif_core.dic' dictionary named
'cif_core.dic' version 2.4.1 from 2010-06-29.

Automatic conversion script
Id: cif_fix_enum 1555 2011-01-17 13:19:09Z saulius 
;
_cod_original_cell_volume        200.46(1)
_cod_database_code               8102937
loop_
_symmetry_equiv_pos_as_xyz
'x, y, z'
'-x, -y, z'
'-y, x, z'
'y, -x, z'
'-x, y, z'
'x, -y, z'
'y, x, z'
'-y, -x, z'
'x+1/2, y+1/2, z+1/2'
'-x+1/2, -y+1/2, z+1/2'
'-y+1/2, x+1/2, z+1/2'
'y+1/2, -x+1/2, z+1/2'
'-x+1/2, y+1/2, z+1/2'
'x+1/2, -y+1/2, z+1/2'
'y+1/2, x+1/2, z+1/2'
'-y+1/2, -x+1/2, z+1/2'
loop_
_atom_site_label
_atom_site_type_symbol
_atom_site_symmetry_multiplicity
_atom_site_Wyckoff_symbol
_atom_site_fract_x
_atom_site_fract_y
_atom_site_fract_z
_atom_site_U_iso_or_equiv
_atom_site_adp_type
_atom_site_occupancy
_atom_site_calc_flag
_atom_site_refinement_flags
_atom_site_disorder_group
_atom_site_disorder_assembly
Eu Eu 2 a 0 0 0 0.00800(19) Uani 1 d S . .
Pt Pt 2 a 0 0 0.64751(8) 0.00558(17) Uani 1 d S . .
Ge1 Ge 2 a 0 0 0.4045(2) 0.0073(3) Uani 1 d S . .
Ge2 Ge 4 b 0 0.5 0.25688(13) 0.0071(2) Uani 1 d S . .
loop_
_atom_site_aniso_label
_atom_site_aniso_U_11
_atom_site_aniso_U_22
_atom_site_aniso_U_33
_atom_site_aniso_U_23
_atom_site_aniso_U_13
_atom_site_aniso_U_12
Eu 0.0088(2) 0.0088(2) 0.0063(5) 0 0 0
Pt 0.00636(18) 0.00636(18) 0.0040(3) 0 0 0
Ge1 0.0081(4) 0.0081(4) 0.0057(8) 0 0 0
Ge2 0.0053(4) 0.0104(5) 0.0058(5) 0 0 0
loop_
_atom_type_symbol
_atom_type_description
_atom_type_scat_dispersion_real
_atom_type_scat_dispersion_imag
_atom_type_scat_source
Ge Ge 0.1547 1.8001 'International Tables Vol C Tables 4.2.6.8 and 6.1.1.4'
Eu Eu -0.1578 3.6682 'International Tables Vol C Tables 4.2.6.8 and 6.1.1.4'
Pt Pt -1.7033 8.3905 'International Tables Vol C Tables 4.2.6.8 and 6.1.1.4'
loop_
_geom_angle_atom_site_label_1
_geom_angle_atom_site_label_2
_geom_angle_atom_site_label_3
_geom_angle
_geom_angle_site_symmetry_1
_geom_angle_site_symmetry_3
_geom_angle_publ_flag
Ge1 Eu Ge1 146.15(7) 9_444 9_554 ?
Ge1 Eu Ge1 85.14(2) 9_444 9_454 ?
Ge1 Eu Ge1 85.14(2) 9_554 9_454 ?
Ge1 Eu Ge1 85.14(2) 9_444 9_544 ?
Ge1 Eu Ge1 85.14(2) 9_554 9_544 ?
Ge1 Eu Ge1 146.15(7) 9_454 9_544 ?
Ge1 Eu Ge2 47.86(3) 9_444 11_544 ?
Ge1 Eu Ge2 103.93(4) 9_554 11_544 ?
Ge1 Eu Ge2 103.93(4) 9_454 11_544 ?
Ge1 Eu Ge2 47.86(3) 9_544 11_544 ?
Ge1 Eu Ge2 47.86(3) 9_444 9_444 ?
Ge1 Eu Ge2 103.93(4) 9_554 9_444 ?
Ge1 Eu Ge2 47.86(3) 9_454 9_444 ?
Ge1 Eu Ge2 103.93(4) 9_544 9_444 ?
Ge2 Eu Ge2 56.920(19) 11_544 9_444 ?
Ge1 Eu Ge2 103.93(4) 9_444 11_554 ?
Ge1 Eu Ge2 47.86(3) 9_554 11_554 ?
Ge1 Eu Ge2 47.86(3) 9_454 11_554 ?
Ge1 Eu Ge2 103.93(4) 9_544 11_554 ?
Ge2 Eu Ge2 84.74(3) 11_544 11_554 ?
Ge2 Eu Ge2 56.920(19) 9_444 11_554 ?
Ge1 Eu Ge2 103.93(4) 9_444 9_544 ?
Ge1 Eu Ge2 47.86(3) 9_554 9_544 ?
Ge1 Eu Ge2 103.93(4) 9_454 9_544 ?
Ge1 Eu Ge2 47.86(3) 9_544 9_544 ?
Ge2 Eu Ge2 56.920(19) 11_544 9_544 ?
Ge2 Eu Ge2 84.74(3) 9_444 9_544 ?
Ge2 Eu Ge2 56.920(19) 11_554 9_544 ?
Ge1 Eu Ge2 131.49(3) 9_444 . ?
Ge1 Eu Ge2 77.19(3) 9_554 . ?
Ge1 Eu Ge2 77.19(3) 9_454 . ?
Ge1 Eu Ge2 131.49(3) 9_544 . ?
Ge2 Eu Ge2 178.43(3) 11_544 . ?
Ge2 Eu Ge2 124.001(2) 9_444 . ?
Ge2 Eu Ge2 96.822(3) 11_554 . ?
Ge2 Eu Ge2 124.001(2) 9_544 . ?
Ge1 Eu Ge2 131.49(3) 9_444 3_655 ?
Ge1 Eu Ge2 77.19(3) 9_554 3_655 ?
Ge1 Eu Ge2 131.49(3) 9_454 3_655 ?
Ge1 Eu Ge2 77.19(3) 9_544 3_655 ?
Ge2 Eu Ge2 124.001(2) 11_544 3_655 ?
Ge2 Eu Ge2 178.43(3) 9_444 3_655 ?
Ge2 Eu Ge2 124.001(2) 11_554 3_655 ?
Ge2 Eu Ge2 96.822(3) 9_544 3_655 ?
Ge2 Eu Ge2 55.044(18) . 3_655 ?
Ge1 Eu Ge2 77.19(3) 9_444 3 ?
Ge1 Eu Ge2 131.49(3) 9_554 3 ?
Ge1 Eu Ge2 77.19(3) 9_454 3 ?
Ge1 Eu Ge2 131.49(3) 9_544 3 ?
Ge2 Eu Ge2 124.001(2) 11_544 3 ?
Ge2 Eu Ge2 96.822(3) 9_444 3 ?
Ge2 Eu Ge2 124.001(2) 11_554 3 ?
Ge2 Eu Ge2 178.43(3) 9_544 3 ?
Ge2 Eu Ge2 55.044(18) . 3 ?
Ge2 Eu Ge2 81.61(3) 3_655 3 ?
Ge1 Eu Ge2 77.19(3) 9_444 1_545 ?
Ge1 Eu Ge2 131.49(3) 9_554 1_545 ?
Ge1 Eu Ge2 131.49(3) 9_454 1_545 ?
Ge1 Eu Ge2 77.19(3) 9_544 1_545 ?
Ge2 Eu Ge2 96.822(3) 11_544 1_545 ?
Ge2 Eu Ge2 124.001(2) 9_444 1_545 ?
Ge2 Eu Ge2 178.43(3) 11_554 1_545 ?
Ge2 Eu Ge2 124.001(2) 9_544 1_545 ?
Ge2 Eu Ge2 81.61(3) . 1_545 ?
Ge2 Eu Ge2 55.044(18) 3_655 1_545 ?
Ge2 Eu Ge2 55.044(18) 3 1_545 ?
Ge1 Pt Ge2 116.25(3) . 11 ?
Ge1 Pt Ge2 116.25(3) . 9_545 ?
Ge2 Pt Ge2 78.72(2) 11 9_545 ?
Ge1 Pt Ge2 116.25(3) . 11_545 ?
Ge2 Pt Ge2 127.50(6) 11 11_545 ?
Ge2 Pt Ge2 78.72(2) 9_545 11_545 ?
Ge1 Pt Ge2 116.25(3) . 9_445 ?
Ge2 Pt Ge2 78.72(2) 11 9_445 ?
Ge2 Pt Ge2 127.50(6) 9_545 9_445 ?
Ge2 Pt Ge2 78.72(2) 11_545 9_445 ?
Ge1 Pt Eu 64.812(12) . 9_445 ?
Ge2 Pt Eu 139.651(4) 11 9_445 ?
Ge2 Pt Eu 139.651(4) 9_545 9_445 ?
Ge2 Pt Eu 67.316(19) 11_545 9_445 ?
Ge2 Pt Eu 67.316(19) 9_445 9_445 ?
Ge1 Pt Eu 64.812(12) . 9 ?
Ge2 Pt Eu 67.316(19) 11 9 ?
Ge2 Pt Eu 67.316(19) 9_545 9 ?
Ge2 Pt Eu 139.651(4) 11_545 9 ?
Ge2 Pt Eu 139.651(4) 9_445 9 ?
Eu Pt Eu 129.62(2) 9_445 9 ?
Ge1 Pt Eu 64.812(12) . 9_545 ?
Ge2 Pt Eu 139.651(4) 11 9_545 ?
Ge2 Pt Eu 67.316(19) 9_545 9_545 ?
Ge2 Pt Eu 67.316(19) 11_545 9_545 ?
Ge2 Pt Eu 139.651(4) 9_445 9_545 ?
Eu Pt Eu 79.565(10) 9_445 9_545 ?
Eu Pt Eu 79.565(10) 9 9_545 ?
Ge1 Pt Eu 64.812(12) . 9_455 ?
Ge2 Pt Eu 67.316(19) 11 9_455 ?
Ge2 Pt Eu 139.651(4) 9_545 9_455 ?
Ge2 Pt Eu 139.651(4) 11_545 9_455 ?
Ge2 Pt Eu 67.316(19) 9_445 9_455 ?
Eu Pt Eu 79.565(10) 9_445 9_455 ?
Eu Pt Eu 79.565(10) 9 9_455 ?
Eu Pt Eu 129.62(2) 9_545 9_455 ?
Ge1 Pt Eu 180 . 1_556 ?
Ge2 Pt Eu 63.75(3) 11 1_556 ?
Ge2 Pt Eu 63.75(3) 9_545 1_556 ?
Ge2 Pt Eu 63.75(3) 11_545 1_556 ?
Ge2 Pt Eu 63.75(3) 9_445 1_556 ?
Eu Pt Eu 115.188(12) 9_445 1_556 ?
Eu Pt Eu 115.188(12) 9 1_556 ?
Eu Pt Eu 115.188(12) 9_545 1_556 ?
Eu Pt Eu 115.188(12) 9_455 1_556 ?
Pt Ge1 Ge2 123.66(4) . 3 ?
Pt Ge1 Ge2 123.66(4) . 1_545 ?
Ge2 Ge1 Ge2 72.11(4) 3 1_545 ?
Pt Ge1 Ge2 123.66(4) . 3_655 ?
Ge2 Ge1 Ge2 112.69(9) 3 3_655 ?
Ge2 Ge1 Ge2 72.11(4) 1_545 3_655 ?
Pt Ge1 Ge2 123.66(4) . . ?
Ge2 Ge1 Ge2 72.11(4) 3 . ?
Ge2 Ge1 Ge2 112.69(9) 1_545 . ?
Ge2 Ge1 Ge2 72.11(4) 3_655 . ?
Pt Ge1 Eu 73.07(4) . 9 ?
Ge2 Ge1 Eu 136.42(3) 3 9 ?
Ge2 Ge1 Eu 136.42(3) 1_545 9 ?
Ge2 Ge1 Eu 66.314(17) 3_655 9 ?
Ge2 Ge1 Eu 66.314(17) . 9 ?
Pt Ge1 Eu 73.07(4) . 9_445 ?
Ge2 Ge1 Eu 66.314(17) 3 9_445 ?
Ge2 Ge1 Eu 66.314(17) 1_545 9_445 ?
Ge2 Ge1 Eu 136.42(3) 3_655 9_445 ?
Ge2 Ge1 Eu 136.42(3) . 9_445 ?
Eu Ge1 Eu 146.15(7) 9 9_445 ?
Pt Ge1 Eu 73.07(4) . 9_545 ?
Ge2 Ge1 Eu 136.42(3) 3 9_545 ?
Ge2 Ge1 Eu 66.314(17) 1_545 9_545 ?
Ge2 Ge1 Eu 66.314(17) 3_655 9_545 ?
Ge2 Ge1 Eu 136.42(3) . 9_545 ?
Eu Ge1 Eu 85.14(2) 9 9_545 ?
Eu Ge1 Eu 85.14(2) 9_445 9_545 ?
Pt Ge1 Eu 73.07(4) . 9_455 ?
Ge2 Ge1 Eu 66.314(17) 3 9_455 ?
Ge2 Ge1 Eu 136.42(3) 1_545 9_455 ?
Ge2 Ge1 Eu 136.42(3) 3_655 9_455 ?
Ge2 Ge1 Eu 66.314(17) . 9_455 ?
Eu Ge1 Eu 85.14(2) 9 9_455 ?
Eu Ge1 Eu 85.14(2) 9_445 9_455 ?
Eu Ge1 Eu 146.15(7) 9_545 9_455 ?
Pt Ge2 Pt 127.50(6) 9_454 9_554 ?
Pt Ge2 Ge1 104.190(15) 9_454 1_565 ?
Pt Ge2 Ge1 104.190(15) 9_554 1_565 ?
Pt Ge2 Ge1 104.190(15) 9_454 . ?
Pt Ge2 Ge1 104.190(15) 9_554 . ?
Ge1 Ge2 Ge1 112.69(9) 1_565 . ?
Pt Ge2 Eu 158.62(4) 9_454 9 ?
Pt Ge2 Eu 73.879(18) 9_554 9 ?
Ge1 Ge2 Eu 65.83(3) 1_565 9 ?
Ge1 Ge2 Eu 65.83(3) . 9 ?
Pt Ge2 Eu 73.879(18) 9_454 9_455 ?
Pt Ge2 Eu 158.62(4) 9_554 9_455 ?
Ge1 Ge2 Eu 65.83(3) 1_565 9_455 ?
Ge1 Ge2 Eu 65.83(3) . 9_455 ?
Eu Ge2 Eu 84.74(3) 9 9_455 ?
Pt Ge2 Eu 70.44(2) 9_454 . ?
Pt Ge2 Eu 70.44(2) 9_554 . ?
Ge1 Ge2 Eu 164.46(5) 1_565 . ?
Ge1 Ge2 Eu 82.85(4) . . ?
Eu Ge2 Eu 124.001(2) 9 . ?
Eu Ge2 Eu 124.001(2) 9_455 . ?
Pt Ge2 Eu 70.44(2) 9_454 1_565 ?
Pt Ge2 Eu 70.44(2) 9_554 1_565 ?
Ge1 Ge2 Eu 82.85(4) 1_565 1_565 ?
Ge1 Ge2 Eu 164.46(5) . 1_565 ?
Eu Ge2 Eu 124.001(2) 9 1_565 ?
Eu Ge2 Eu 124.001(2) 9_455 1_565 ?
Eu Ge2 Eu 81.61(3) . 1_565 ?
loop_
_geom_bond_atom_site_label_1
_geom_bond_atom_site_label_2
_geom_bond_distance
_geom_bond_site_symmetry_2
_geom_bond_publ_flag
Eu Ge1 3.2989(6) 9_444 ?
Eu Ge1 3.2989(6) 9_554 ?
Eu Ge1 3.2989(6) 9_454 ?
Eu Ge1 3.2989(6) 9_544 ?
Eu Ge2 3.3113(10) 11_544 ?
Eu Ge2 3.3113(10) 9_444 ?
Eu Ge2 3.3113(10) 11_554 ?
Eu Ge2 3.3113(10) 9_544 ?
Eu Ge2 3.4149(10) . ?
Eu Ge2 3.4149(10) 3_655 ?
Eu Ge2 3.4149(10) 3 ?
Eu Ge2 3.4149(10) 1_545 ?
Pt Ge1 2.445(2) . ?
Pt Ge2 2.4883(6) 11 ?
Pt Ge2 2.4883(6) 9_545 ?
Pt Ge2 2.4883(6) 11_545 ?
Pt Ge2 2.4883(6) 9_445 ?
Pt Eu 3.4877(4) 9_445 ?
Pt Eu 3.4876(4) 9 ?
Pt Eu 3.4876(4) 9_545 ?
Pt Eu 3.4876(4) 9_455 ?
Pt Eu 3.5469(8) 1_556 ?
Ge1 Ge2 2.6811(14) 3 ?
Ge1 Ge2 2.6811(14) 1_545 ?
Ge1 Ge2 2.6811(14) 3_655 ?
Ge1 Ge2 2.6811(14) . ?
Ge1 Eu 3.2989(6) 9 ?
Ge1 Eu 3.2989(6) 9_445 ?
Ge1 Eu 3.2989(6) 9_545 ?
Ge1 Eu 3.2989(6) 9_455 ?
Ge2 Pt 2.4883(6) 9_454 ?
Ge2 Pt 2.4883(6) 9_554 ?
Ge2 Ge1 2.6811(14) 1_565 ?
Ge2 Eu 3.3113(10) 9 ?
Ge2 Eu 3.3113(10) 9_455 ?
Ge2 Eu 3.4149(10) 1_565 ?
