#------------------------------------------------------------------------------
#$Date: 2016-02-13 21:28:24 +0200 (Sat, 13 Feb 2016) $
#$Revision: 176429 $
#$URL: svn://www.crystallography.net/cod/cif/8/10/37/8103794.cif $
#------------------------------------------------------------------------------
#
# This file is available in the Crystallography Open Database (COD),
# http://www.crystallography.net/
#
# All data on this site have been placed in the public domain by the
# contributors.
#
data_8103794
loop_
_publ_author_name
'Wildner, M.'
'Stoilova, D.'
_publ_section_title
;
 Crystal structures and crystal chemical relationships of kroehnkite- and
 collinsite-type compounds Na2 Me(2+) (X O4)2 * 2(H2O) (X = S, Me = Mn,
 Cd; and X = Se, Me = Mn, Co, Ni, Zn, Cd) and K2Co (Se O4)2 * 2(H2 O)
;
_journal_name_full
'Zeitschrift fuer Kristallographie (149,1979-)'
_journal_page_first              201
_journal_page_last               209
_journal_volume                  218
_journal_year                    2003
_chemical_formula_sum            'H4 Mn Na2 O10 Se2'
_chemical_name_systematic        'Na2 Mn (Se O4)2 (H2 O)2'
_space_group_IT_number           14
_symmetry_space_group_name_Hall  '-P 2ybc'
_symmetry_space_group_name_H-M   'P 1 21/c 1'
_cell_angle_alpha                90
_cell_angle_beta                 105.85
_cell_angle_gamma                90
_cell_formula_units_Z            2
_cell_length_a                   5.915
_cell_length_b                   13.325
_cell_length_c                   5.702
_cell_volume                     432.330
_citation_journal_id_ASTM        ZEKRDZ
_cod_data_source_file            Wildner_ZEKRDZ_2003_1111.cif
_cod_data_source_block           H4Mn1Na2O10Se2
_cod_original_cell_volume        432.3299
_cod_original_formula_sum        'H4 Mn1 Na2 O10 Se2'
_cod_database_code               8103794
loop_
_symmetry_equiv_pos_as_xyz
x,y,z
-x,y+1/2,-z+1/2
-x,-y,-z
x,-y-1/2,z-1/2
loop_
_atom_site_label
_atom_site_type_symbol
_atom_site_fract_x
_atom_site_fract_y
_atom_site_fract_z
_atom_site_occupancy
_atom_site_U_iso_or_equiv
O4 O-2 0.4425 0.1976 0.5852 1 0.0
O2 O-2 0.2745 0.0552 0.8253 1 0.0
O3 O-2 0.2377 0.0395 0.349 1 0.0
Mn1 Mn+2 0 0 0 1 0.0
O5 O-2 0.8126 0.14 0.9656 1 0.0
H1 H+1 0.894 0.192 0.986 1 0.0
Na1 Na+1 0.5732 0.1237 0.2341 1 0.0
O1 O-2 -0.0289 0.1735 0.5051 1 0.0
H2 H+1 0.714 0.15 0.826 1 0.0
Se1 Se+6 0.2264 0.11868 0.56767 1 0.0
