#------------------------------------------------------------------------------
#$Date: 2016-02-13 21:28:24 +0200 (Sat, 13 Feb 2016) $
#$Revision: 176429 $
#$URL: svn://www.crystallography.net/cod/cif/8/10/37/8103783.cif $
#------------------------------------------------------------------------------
#
# This file is available in the Crystallography Open Database (COD),
# http://www.crystallography.net/
#
# All data on this site have been placed in the public domain by the
# contributors.
#
data_8103783
loop_
_publ_author_name
'Wang, H.-R.'
'Lee, J.-S.'
'Yu, S.-C.'
_publ_section_title
;
 Synthesis of zoning-free (Ba S O4) - (Pb S O4) solid solution and its
 structural characterizations
;
_journal_name_full
'Zeitschrift fuer Kristallographie (149,1979-)'
_journal_page_first              143
_journal_page_last               148
_journal_volume                  217
_journal_year                    2002
_chemical_formula_sum            'Ba0.99 O4 Pb0.01 S'
_chemical_name_systematic        '(Ba0.99 Pb0.01) (S O4)'
_space_group_IT_number           62
_symmetry_space_group_name_Hall  '-P 2ac 2n'
_symmetry_space_group_name_H-M   'P n m a'
_cell_angle_alpha                90
_cell_angle_beta                 90
_cell_angle_gamma                90
_cell_formula_units_Z            4
_cell_length_a                   8.884
_cell_length_b                   5.457
_cell_length_c                   7.157
_cell_volume                     346.971
_citation_journal_id_ASTM        ZEKRDZ
_cod_data_source_file            Wang_ZEKRDZ_2002_1005.cif
_cod_data_source_block           Ba0.99O4Pb0.01S1
_cod_original_cell_volume        346.9713
_cod_original_formula_sum        'Ba0.99 O4 Pb0.01 S1'
_cod_database_code               8103783
loop_
_symmetry_equiv_pos_as_xyz
x,y,z
-x+1/2,-y,z+1/2
x+1/2,-y+1/2,-z+1/2
-x,y+1/2,-z
-x,-y,-z
x-1/2,y,-z-1/2
-x-1/2,y-1/2,z-1/2
x,-y-1/2,z
loop_
_atom_site_label
_atom_site_type_symbol
_atom_site_fract_x
_atom_site_fract_y
_atom_site_fract_z
_atom_site_occupancy
_atom_site_U_iso_or_equiv
S1 S+6 0.4375 0.75 0.1911 1 0.0
O2 O-2 0.4199 0.9702 0.3114 1 0.0
O3 O-2 0.5878 0.75 0.106 1 0.0
O1 O-2 0.3177 0.75 0.0494 1 0.0
Pb1 Pb+2 0.1845 0.25 0.1585 0.01 0.0
Ba1 Ba+2 0.1845 0.25 0.1585 0.99 0.0
