#------------------------------------------------------------------------------
#$Date: 2016-02-13 21:28:24 +0200 (Sat, 13 Feb 2016) $
#$Revision: 176429 $
#$URL: svn://www.crystallography.net/cod/cif/8/10/38/8103853.cif $
#------------------------------------------------------------------------------
#
# This file is available in the Crystallography Open Database (COD),
# http://www.crystallography.net/
#
# All data on this site have been placed in the public domain by the
# contributors.
#
data_8103853
loop_
_publ_author_name
'Giester, G.'
_publ_section_title
;
 Syntheses and crystal structures of TlCu(OH)SO4 and TlCu(OH)SeO4
;
_journal_name_full
'Zeitschrift fuer Kristallographie (149,1979-)'
_journal_page_first              59
_journal_page_last               67
_journal_volume                  201
_journal_year                    1992
_chemical_formula_sum            'Cu H O5 Se Tl'
_chemical_name_systematic        'Tl Cu (O H) Se O4'
_space_group_IT_number           11
_symmetry_space_group_name_Hall  '-P 2yb'
_symmetry_space_group_name_H-M   'P 1 21/m 1'
_cell_angle_alpha                90
_cell_angle_beta                 94.26
_cell_angle_gamma                90
_cell_formula_units_Z            2
_cell_length_a                   9.041
_cell_length_b                   5.959
_cell_length_c                   4.585
_cell_volume                     246.336
_citation_journal_id_ASTM        ZEKRDZ
_cod_data_source_file            Giester_ZEKRDZ_1992_55.cif
_cod_data_source_block           H1Cu1O5Se1Tl1
_cod_original_cell_volume        246.3359
_cod_original_formula_sum        'H1 Cu1 O5 Se1 Tl1'
_cod_database_code               8103853
loop_
_symmetry_equiv_pos_as_xyz
x,y,z
-x,y+1/2,-z
-x,-y,-z
x,-y-1/2,z
loop_
_atom_site_label
_atom_site_type_symbol
_atom_site_fract_x
_atom_site_fract_y
_atom_site_fract_z
_atom_site_occupancy
_atom_site_U_iso_or_equiv
O3 O-2 0.3806 0.25 0.3436 1 0.0
O4 O-2 0.0805 0.25 0.2701 1 0.0
H1 H+1 0.88 0.25 0.597 1 0.0
Se1 Se+6 0.2286 0.25 0.5144 1 0.0
O2 O-2 0.2141 0.0227 0.7105 1 0.0
Tl1 Tl+1 0.6132 0.25 0.9033 1 0.0
O1 O-2 0.9006 0.25 0.8132 1 0.0
Cu1 Cu+2 0 0 0 1 0.0
