#------------------------------------------------------------------------------
#$Date: 2016-02-18 14:25:00 +0200 (Thu, 18 Feb 2016) $
#$Revision: 176728 $
#$URL: svn://www.crystallography.net/cod/cif/8/10/30/8103065.cif $
#------------------------------------------------------------------------------
#
# This file is available in the Crystallography Open Database (COD),
# http://www.crystallography.net/
#
# All data on this site have been placed in the public domain by the
# contributors.
#
data_8103065
loop_
_publ_author_name
'Kr\"uger, Hannes'
_publ_contact_author_address
;
 Institut f\"ur Mineralogie und Petrographie
 Universit\"at Innsbruck
 Innrain 52
 6020 Innsbruck
 Austria
;
_publ_contact_author_email       Hannes.Krueger@uibk.ac.at
_publ_contact_author_fax         43(512)5072926
_publ_contact_author_name        'Kr\"uger, Hannes'
_publ_contact_author_phone       43(512)5075502
_publ_section_title
;
 Ca5.45Li3.55[SiO4]3O0.45F1.55 and Ca7K[SiO4]3F3: single-crystal synthesis
 and structures of two trigonal oxyfluorides
;
_journal_issue                   10
_journal_name_full
'Zeitschrift f\"ur Kristallographie - Crystalline Materials'
_journal_page_first              418
_journal_page_last               424
_journal_paper_doi               10.1524/zkri.2010.1268
_journal_volume                  225
_journal_year                    2010
_chemical_formula_sum            'Ca7 F3 K O12 Si3'
_chemical_formula_weight         652.89
_space_group_IT_number           159
_symmetry_cell_setting           trigonal
_symmetry_space_group_name_Hall  'P 3 -2c'
_symmetry_space_group_name_H-M   'P 3 1 c'
_audit_contact_author_address
;
 Institut f\"ur Mineralogie und Petrographie
 Universit\"at Innsbruck
 Innrain 52
 6020 Innsbruck
 Austria
;
_audit_contact_author_email      Hannes.Krueger@uibk.ac.at
_audit_contact_author_fax        43(512)5072926
_audit_contact_author_name       'Kr\"uger, Hannes'
_audit_contact_author_phone      43(512)5075502
_audit_creation_date             2010-03-17
_audit_creation_method
;
 Jana2000 Version : 18/12/2007
 STOE X-RED
 enCIFer 1.3
;
_cell_angle_alpha                90.00
_cell_angle_beta                 90.00
_cell_angle_gamma                120.00
_cell_formula_units_Z            2
_cell_length_a                   10.8161(5)
_cell_length_b                   10.8161(5)
_cell_length_c                   6.6469(3)
_cell_measurement_reflns_used    12906
_cell_measurement_temperature    298
_cell_measurement_theta_max      29.51
_cell_measurement_theta_min      2.17
_cell_volume                     673.43(5)
_computing_cell_refinement       'STOE X-AREA'
_computing_data_collection       'STOE X-AREA'
_computing_data_reduction        'STOE X-RED'
_computing_molecular_graphics    DRAWxtl
_computing_publication_material
'Jana2000 (Petricek, Dusek & Palatinus, 2000)'
_computing_structure_refinement
'Jana2000 (Petricek, Dusek & Palatinus, 2000)'
_computing_structure_solution
'Superflip (Palatinus & Chapuis, 2007, J. Appl. Cryst. 40, 786-790)'
_diffrn_ambient_temperature      298
_diffrn_detector                 'image plate (34 cm diameter)'
_diffrn_detector_area_resol_mean 6.67
_diffrn_detector_type            STOE
_diffrn_measured_fraction_theta_full 1.00
_diffrn_measurement_details
;
 240 frames, detector distance = 100 mm
  48 frames were remeasured with an attenuator filter
;
_diffrn_measurement_device       '2-circle goniometer'
_diffrn_measurement_device_type  'STOE IPDS 2'
_diffrn_measurement_method       'rotation method'
_diffrn_radiation_collimation    '0.5 mm diameter, multiple pinhole'
_diffrn_radiation_monochromator  'plane graphite'
_diffrn_radiation_polarisn_norm  0
_diffrn_radiation_type           'Mo K\a'
_diffrn_radiation_wavelength     0.71073
_diffrn_reflns_av_R_equivalents  0.0374
_diffrn_reflns_av_sigmaI/netI    0.0044
_diffrn_reflns_limit_h_max       14
_diffrn_reflns_limit_h_min       -14
_diffrn_reflns_limit_k_max       14
_diffrn_reflns_limit_k_min       -14
_diffrn_reflns_limit_l_max       9
_diffrn_reflns_limit_l_min       -9
_diffrn_reflns_number            12503
_diffrn_reflns_reduction_process
;
 STOE X-AREA/INTEGRATE 1.39
 elliptical profiles, parameters A=12.8,B=1.6,EMS=0.01
 48 filtered frames used, filter factor: 18.83
;
_diffrn_reflns_theta_full        29.16
_diffrn_reflns_theta_max         29.16
_diffrn_reflns_theta_min         2.17
_diffrn_source
'sealed X-ray tube, 12 x 0.4 mm long-fine focus'
_diffrn_source_current           40
_diffrn_source_power             2.00
_diffrn_source_voltage           50
_exptl_absorpt_coefficient_mu    3.42
_exptl_absorpt_correction_T_max  0.7777
_exptl_absorpt_correction_T_min  0.6477
_exptl_absorpt_correction_type   integration
_exptl_absorpt_process_details
;
 STOE XRED32 1.31
;
_exptl_crystal_colour            colourless
_exptl_crystal_density_diffrn    3.220
_exptl_crystal_description       'fragment of a prism'
_exptl_crystal_F_000             648
_exptl_crystal_size_max          0.180
_exptl_crystal_size_mid          0.123
_exptl_crystal_size_min          0.080
_refine_diff_density_max         0.31
_refine_diff_density_min         -0.48
_refine_ls_abs_structure_details
;
 structure was refined as inversion twin
;
_refine_ls_extinction_method     none
_refine_ls_goodness_of_fit_gt    2.11
_refine_ls_goodness_of_fit_ref   2.11
_refine_ls_number_parameters     80
_refine_ls_number_reflns         1218
_refine_ls_R_factor_all          0.0184
_refine_ls_R_factor_gt           0.0183
_refine_ls_shift/su_max          0.0005
_refine_ls_shift/su_mean         0.0000
_refine_ls_structure_factor_coef F
_refine_ls_weighting_details     w=1/(\s^2^(F)+0.0001F^2^)
_refine_ls_weighting_scheme      sigma
_refine_ls_wR_factor_gt          0.0235
_refine_ls_wR_factor_ref         0.0235
_reflns_d_resolution_high        0.729
_reflns_d_resolution_low         9.367
_reflns_number_gt                1216
_reflns_number_total             1218
_reflns_threshold_expression     I>3\s(I)
_cod_data_source_file            Ca7KSi3O12F3.cif
_cod_data_source_block           Ca7KSi3O12F3
_cod_database_code               8103065
loop_
_symmetry_equiv_pos_site_id
_symmetry_equiv_pos_as_xyz
1 x,y,z
2 -y,x-y,z
3 y,x,1/2+z
4 -x+y,-x,z
5 -x,-x+y,1/2+z
6 x-y,-y,1/2+z
loop_
_atom_site_label
_atom_site_type_symbol
_atom_site_fract_x
_atom_site_fract_y
_atom_site_fract_z
_atom_site_adp_type
_atom_site_U_iso_or_equiv
_atom_site_symmetry_multiplicity
_atom_site_occupancy
_atom_site_calc_flag
_atom_site_refinement_flags
_atom_site_disorder_assembly
_atom_site_disorder_group
Ca1 Ca -0 0 0.34764 Uani 0.01222(18) 2 1 d . . .
Ca2 Ca 0.93872(5) 0.45744(5) 0.44502(14) Uani 0.01226(16) 6 1 d . . .
Ca3 Ca 0.82526(5) 0.63255(5) 0.12720(13) Uani 0.01551(18) 6 1 d . . .
K1 K 0.333333 0.666667 0.31052(18) Uani 0.0172(2) 2 1 d . . .
Si1 Si 0.15436(7) 0.81591(7) 0.14963(14) Uani 0.0103(2) 6 1 d . . .
F1 F 0.15166(18) 0.5635(2) 0.6171(3) Uani 0.0176(6) 6 1 d . . .
O1 O 0.2182(2) 0.7709(2) -0.0414(3) Uani 0.0150(6) 6 1 d . . .
O2 O 0.0733(2) 0.6709(2) 0.2838(4) Uani 0.0206(8) 6 1 d . . .
O3 O 0.2867(2) 0.9427(2) 0.2740(4) Uani 0.0229(8) 6 1 d . . .
O4 O -0.17422(19) 0.9643(2) 0.0905(3) Uani 0.0140(7) 6 1 d . . .
loop_
_atom_site_aniso_label
_atom_site_aniso_type_symbol
_atom_site_aniso_U_11
_atom_site_aniso_U_22
_atom_site_aniso_U_33
_atom_site_aniso_U_12
_atom_site_aniso_U_13
_atom_site_aniso_U_23
Ca1 Ca 0.0133(2) 0.0133(2) 0.0100(3) 0.00666(10) -0 -0
Ca2 Ca 0.0116(2) 0.01149(19) 0.0128(2) 0.00509(17) 0.00011(16) 0.00029(19)
Ca3 Ca 0.0134(2) 0.0163(2) 0.0151(2) 0.00610(19) 0.00080(19) 0.00081(18)
K1 K 0.0163(2) 0.0163(2) 0.0191(4) 0.00813(12) -0 0
Si1 Si 0.0104(3) 0.0095(3) 0.0109(3) 0.0049(2) 0.0002(3) 0.0001(2)
F1 F 0.0170(7) 0.0190(7) 0.0147(6) 0.0074(6) -0.0010(6) 0.0002(6)
O1 O 0.0139(8) 0.0148(8) 0.0174(7) 0.0079(7) 0.0014(8) -0.0008(8)
O2 O 0.0212(11) 0.0212(9) 0.0245(11) 0.0143(8) 0.0072(8) 0.0086(8)
O3 O 0.0210(10) 0.0195(10) 0.0253(11) 0.0078(9) -0.0063(9) -0.0069(8)
O4 O 0.0124(8) 0.0163(8) 0.0120(8) 0.0063(7) 0.0003(6) 0.0014(7)
loop_
_atom_type_symbol
_atom_type_scat_dispersion_real
_atom_type_scat_dispersion_imag
_atom_type_scat_source
Ca 0.226 0.306 'International Tables Vol C Tables  4.2.6.8 and 6.1.1.1'
K 0.201 0.249 'International Tables Vol C Tables  4.2.6.8 and 6.1.1.1'
Si 0.082 0.070 'International Tables Vol C Tables  4.2.6.8 and 6.1.1.1'
O 0.011 0.006 'International Tables Vol C Tables  4.2.6.8 and 6.1.1.1'
F 0.017 0.010 'International Tables Vol C Tables  4.2.6.8 and 6.1.1.1'
loop_
_exptl_crystal_face_index_h
_exptl_crystal_face_index_k
_exptl_crystal_face_index_l
_exptl_crystal_face_perp_dist
1 -1 0 0.0430
0 -1 0 0.0600
0 1 0 0.0430
-1 1 0 0.0400
0 0 1 0.0740
4 -1 0 0.0380
-4 1 0 0.0510
0 -1 -6 0.0940
-5 -2 -4 0.0820
-3 -1 0 0.0550
4 -5 -3 0.0700
-2 -9 -3 0.0710
-1 -1 0 0.0560
-2 -4 5 0.0660
3 -3 4 0.0710
5 -2 3 0.0620
0 5 -6 0.0940
-5 -1 6 0.0640
3 1 4 0.0690
4 1 -4 0.0820
loop_
_geom_angle_atom_site_label_1
_geom_angle_atom_site_label_2
_geom_angle_atom_site_label_3
_geom_angle_site_symmetry_1
_geom_angle_site_symmetry_2
_geom_angle_site_symmetry_3
_geom_angle
_geom_angle_publ_flag
O4 Ca1 O4 1_545 . 2_665 75.90(8) yes
O4 Ca1 O4 1_545 . 3_455 123.36(6) yes
O4 Ca1 O4 1_545 . 4_455 75.90(7) yes
O4 Ca1 O4 1_545 . 5_545 153.11(10) yes
O4 Ca1 O4 1_545 . 6_665 90.11(8) yes
O4 Ca1 O4 2_665 . 1_545 75.90(8) yes
O4 Ca1 O4 2_665 . 3_455 90.11(8) yes
O4 Ca1 O4 2_665 . 4_455 75.90(8) yes
O4 Ca1 O4 2_665 . 5_545 123.36(9) yes
O4 Ca1 O4 2_665 . 6_665 153.11(6) yes
O4 Ca1 O4 3_455 . 1_545 123.36(6) yes
O4 Ca1 O4 3_455 . 2_665 90.11(8) yes
O4 Ca1 O4 3_455 . 4_455 153.11(10) yes
O4 Ca1 O4 3_455 . 5_545 78.42(8) yes
O4 Ca1 O4 3_455 . 6_665 78.42(9) yes
O4 Ca1 O4 4_455 . 1_545 75.90(7) yes
O4 Ca1 O4 4_455 . 2_665 75.90(8) yes
O4 Ca1 O4 4_455 . 3_455 153.11(10) yes
O4 Ca1 O4 4_455 . 5_545 90.11(7) yes
O4 Ca1 O4 4_455 . 6_665 123.36(9) yes
O4 Ca1 O4 5_545 . 1_545 153.11(10) yes
O4 Ca1 O4 5_545 . 2_665 123.36(9) yes
O4 Ca1 O4 5_545 . 3_455 78.42(8) yes
O4 Ca1 O4 5_545 . 4_455 90.11(7) yes
O4 Ca1 O4 5_545 . 6_665 78.42(8) yes
O4 Ca1 O4 6_665 . 1_545 90.11(8) yes
O4 Ca1 O4 6_665 . 2_665 153.11(6) yes
O4 Ca1 O4 6_665 . 3_455 78.42(9) yes
O4 Ca1 O4 6_665 . 4_455 123.36(9) yes
O4 Ca1 O4 6_665 . 5_545 78.42(8) yes
F1 Ca2 F1 1_655 . 5_654 141.06(7) yes
F1 Ca2 O1 1_655 . 3_555 124.83(9) yes
F1 Ca2 O1 1_655 . 5_655 121.12(8) yes
F1 Ca2 O2 1_655 . 1_655 75.90(8) yes
F1 Ca2 O2 1_655 . 5_655 68.28(8) yes
F1 Ca2 O3 1_655 . 2_765 80.57(8) yes
F1 Ca2 O3 1_655 . 3_555 67.00(6) yes
F1 Ca2 F1 5_654 . 1_655 141.06(7) yes
F1 Ca2 O1 5_654 . 3_555 77.75(8) yes
F1 Ca2 O1 5_654 . 5_655 79.27(9) yes
F1 Ca2 O2 5_654 . 1_655 76.37(8) yes
F1 Ca2 O2 5_654 . 5_655 138.47(10) yes
F1 Ca2 O3 5_654 . 2_765 74.36(10) yes
F1 Ca2 O3 5_654 . 3_555 135.40(8) yes
O1 Ca2 O1 3_555 . 5_655 98.79(9) yes
O1 Ca2 O2 3_555 . 1_655 153.96(9) yes
O1 Ca2 O2 3_555 . 5_655 111.04(8) yes
O1 Ca2 O3 3_555 . 2_765 76.80(9) yes
O1 Ca2 O3 3_555 . 3_555 60.34(7) yes
O1 Ca2 O1 5_655 . 3_555 98.79(9) yes
O1 Ca2 O2 5_655 . 1_655 79.23(9) yes
O1 Ca2 O2 5_655 . 5_655 59.47(8) yes
O1 Ca2 O3 5_655 . 2_765 153.61(9) yes
O1 Ca2 O3 5_655 . 3_555 119.37(8) yes
O2 Ca2 O2 1_655 . 5_655 90.52(9) yes
O2 Ca2 O3 1_655 . 2_765 93.41(10) yes
O2 Ca2 O3 1_655 . 3_555 142.90(8) yes
O2 Ca2 O2 5_655 . 1_655 90.52(9) yes
O2 Ca2 O3 5_655 . 2_765 146.59(9) yes
O2 Ca2 O3 5_655 . 3_555 75.62(9) yes
O3 Ca2 O3 2_765 . 3_555 81.49(9) yes
O3 Ca2 O3 3_555 . 2_765 81.49(9) yes
F1 Ca3 F1 5_654 . 6_664 74.21(8) yes
F1 Ca3 O1 5_654 . 5_655 76.77(9) yes
F1 Ca3 O2 5_654 . 1_655 66.17(6) yes
F1 Ca3 O2 5_654 . 5_654 66.21(9) yes
F1 Ca3 O3 5_654 . 4_565 138.82(6) yes
F1 Ca3 O3 5_654 . 5_654 109.00(9) yes
F1 Ca3 O4 5_654 . 2_775 118.90(9) yes
F1 Ca3 F1 6_664 . 5_654 74.21(8) yes
F1 Ca3 O1 6_664 . 5_655 76.57(6) yes
F1 Ca3 O2 6_664 . 1_655 133.79(8) yes
F1 Ca3 O2 6_664 . 5_654 100.85(7) yes
F1 Ca3 O3 6_664 . 4_565 71.38(8) yes
F1 Ca3 O3 6_664 . 5_654 74.07(7) yes
F1 Ca3 O4 6_664 . 2_775 164.59(10) yes
O1 Ca3 O2 5_655 . 1_655 72.18(8) yes
O1 Ca3 O2 5_655 . 5_654 141.87(12) yes
O1 Ca3 O3 5_655 . 4_565 73.85(10) yes
O1 Ca3 O3 5_655 . 5_654 146.91(7) yes
O1 Ca3 O4 5_655 . 2_775 113.04(7) yes
O2 Ca3 O2 1_655 . 5_654 84.46(8) yes
O2 Ca3 O3 1_655 . 4_565 128.21(9) yes
O2 Ca3 O3 1_655 . 5_654 140.61(8) yes
O2 Ca3 O4 1_655 . 2_775 61.61(8) yes
O2 Ca3 O2 5_654 . 1_655 84.46(8) yes
O2 Ca3 O3 5_654 . 4_565 142.27(10) yes
O2 Ca3 O3 5_654 . 5_654 60.12(10) yes
O2 Ca3 O4 5_654 . 2_775 79.16(8) yes
O3 Ca3 O3 4_565 . 5_654 82.54(10) yes
O3 Ca3 O4 4_565 . 2_775 99.03(9) yes
O3 Ca3 O3 5_654 . 4_565 82.54(10) yes
O3 Ca3 O4 5_654 . 2_775 93.05(8) yes
F1 K1 F1 . . 2_665 67.57(7) yes
F1 K1 F1 . . 4_565 67.57(6) yes
F1 K1 O2 . . . 61.63(7) yes
F1 K1 O2 . . 2_665 89.36(7) yes
F1 K1 O2 . . 4_565 129.06(7) yes
F1 K1 F1 2_665 . . 67.57(7) yes
F1 K1 F1 2_665 . 4_565 67.57(8) yes
F1 K1 O2 2_665 . . 129.06(7) yes
F1 K1 O2 2_665 . 2_665 61.63(7) yes
F1 K1 O2 2_665 . 4_565 89.36(7) yes
F1 K1 F1 4_565 . . 67.57(6) yes
F1 K1 F1 4_565 . 2_665 67.57(8) yes
F1 K1 O2 4_565 . . 89.36(8) yes
F1 K1 O2 4_565 . 2_665 129.06(8) yes
F1 K1 O2 4_565 . 4_565 61.63(7) yes
O2 K1 O2 . . 2_665 119.61(6) yes
O2 K1 O2 . . 4_565 119.61(9) yes
O2 K1 O2 2_665 . . 119.61(6) yes
O2 K1 O2 2_665 . 4_565 119.61(9) yes
O2 K1 O2 4_565 . . 119.61(9) yes
O2 K1 O2 4_565 . 2_665 119.61(9) yes
O1 Si1 O2 . . . 104.08(13) yes
O1 Si1 O3 . . . 108.75(12) yes
O1 Si1 O4 . . 2_675 114.54(13) yes
O2 Si1 O3 . . . 110.89(13) yes
O2 Si1 O4 . . 2_675 107.26(13) yes
O3 Si1 O4 . . 2_675 111.11(14) yes
Ca2 F1 Ca2 1_455 . 5_665 98.61(7) yes
Ca2 F1 Ca3 1_455 . 5_665 94.91(9) yes
Ca2 F1 Ca3 1_455 . 6_565 99.01(7) yes
Ca2 F1 K1 1_455 . . 100.01(7) yes
Ca2 F1 F1 1_455 . 2_665 141.61(10) yes
Ca2 F1 F1 1_455 . 4_565 135.55(10) yes
Ca2 F1 O1 1_455 . 2_666 127.21(8) yes
Ca2 F1 O2 1_455 . . 51.87(6) yes
Ca2 F1 O2 1_455 . 5_555 63.42(7) yes
Ca2 F1 O3 1_455 . 3_455 66.06(7) yes
Ca2 F1 Ca2 5_665 . 1_455 98.61(7) yes
Ca2 F1 Ca3 5_665 . 5_665 90.24(8) yes
Ca2 F1 Ca3 5_665 . 6_565 91.97(8) yes
Ca2 F1 K1 5_665 . . 161.13(7) yes
Ca2 F1 F1 5_665 . 2_665 109.13(8) yes
Ca2 F1 F1 5_665 . 4_565 107.29(7) yes
Ca2 F1 O1 5_665 . 2_666 50.58(7) yes
Ca2 F1 O2 5_665 . . 129.54(11) yes
Ca2 F1 O2 5_665 . 5_555 51.03(7) yes
Ca2 F1 O3 5_665 . 3_455 54.62(6) yes
Ca3 F1 Ca3 5_665 . 6_565 165.42(8) yes
Ca3 F1 K1 5_665 . . 85.15(6) yes
Ca3 F1 F1 5_665 . 2_665 110.58(7) yes
Ca3 F1 F1 5_665 . 4_565 50.61(7) yes
Ca3 F1 O1 5_665 . 2_666 122.07(9) yes
Ca3 F1 O2 5_665 . . 58.90(7) yes
Ca3 F1 O2 5_665 . 5_555 60.06(8) yes
Ca3 F1 O3 5_665 . 3_455 133.55(10) yes
Ca3 F1 Ca3 6_565 . 5_665 165.42(8) yes
Ca3 F1 K1 6_565 . . 88.14(7) yes
Ca3 F1 F1 6_565 . 2_665 55.18(7) yes
Ca3 F1 F1 6_565 . 4_565 115.16(10) yes
Ca3 F1 O1 6_565 . 2_666 50.97(8) yes
Ca3 F1 O2 6_565 . . 128.21(9) yes
Ca3 F1 O2 6_565 . 5_555 130.93(9) yes
Ca3 F1 O3 6_565 . 3_455 57.64(8) yes
K1 F1 F1 . . 2_665 56.21(5) yes
K1 F1 F1 . . 4_565 56.21(5) yes
K1 F1 O1 . . 2_666 117.83(9) yes
K1 F1 O2 . . . 62.37(6) yes
K1 F1 O2 . . 5_555 137.79(11) yes
K1 F1 O3 . . 3_455 137.81(10) yes
F1 F1 F1 2_665 . 4_565 60.00(8) yes
F1 F1 O1 2_665 . 2_666 61.81(7) yes
F1 F1 O2 2_665 . . 118.47(8) yes
F1 F1 O2 2_665 . 5_555 154.64(9) yes
F1 F1 O3 2_665 . 3_455 109.45(11) yes
F1 F1 F1 4_565 . 2_665 60.00(8) yes
F1 F1 O1 4_565 . 2_666 96.92(8) yes
F1 F1 O2 4_565 . . 84.04(8) yes
F1 F1 O2 4_565 . 5_555 107.06(11) yes
F1 F1 O3 4_565 . 3_455 157.11(9) yes
O1 F1 O2 2_666 . . 178.95(9) yes
O1 F1 O2 2_666 . 5_555 101.56(9) yes
O1 F1 O3 2_666 . 3_455 61.17(8) yes
O2 F1 O2 . . 5_555 78.53(10) yes
O2 F1 O3 . . 3_455 117.93(8) yes
O2 F1 O2 5_555 . . 78.53(10) yes
O2 F1 O3 5_555 . 3_455 73.69(9) yes
loop_
_geom_bond_atom_site_label_1
_geom_bond_atom_site_label_2
_geom_bond_site_symmetry_1
_geom_bond_site_symmetry_2
_geom_bond_distance
_geom_bond_publ_flag
Ca1 O4 . 1_545 2.428(2) yes
Ca1 O4 . 2_665 2.428(3) yes
Ca1 O4 . 3_455 2.362(2) yes
Ca1 O4 . 4_455 2.4277(19) yes
Ca1 O4 . 5_545 2.3615(19) yes
Ca1 O4 . 6_665 2.362(3) yes
Ca2 F1 . 1_655 2.2993(18) yes
Ca2 F1 . 5_654 2.3382(19) yes
Ca2 O1 . 3_555 2.3026(18) yes
Ca2 O1 . 5_655 2.388(3) yes
Ca2 O2 . 1_655 2.288(2) yes
Ca2 O2 . 5_655 2.754(3) yes
Ca2 O3 . 2_765 2.453(4) yes
Ca2 O3 . 3_555 2.876(3) yes
Ca3 F1 . 5_654 2.523(3) yes
Ca3 F1 . 6_664 2.375(2) yes
Ca3 O1 . 5_655 2.326(2) yes
Ca3 O2 . 1_655 2.710(3) yes
Ca3 O2 . 5_654 2.640(3) yes
Ca3 O3 . 4_565 2.582(4) yes
Ca3 O3 . 5_654 2.711(3) yes
Ca3 O4 . 2_775 2.395(2) yes
K1 F1 . . 2.6584(19) yes
K1 F1 . 2_665 2.658(3) yes
K1 F1 . 4_565 2.658(2) yes
K1 O2 . . 2.841(3) yes
K1 O2 . 2_665 2.841(4) yes
K1 O2 . 4_565 2.841(2) yes
Si1 O1 . . 1.632(3) yes
Si1 O2 . . 1.628(2) yes
Si1 O3 . . 1.628(2) yes
Si1 O4 . 2_675 1.636(3) yes
F1 F1 . 2_665 2.957(3) yes
F1 F1 . 4_565 2.957(2) yes
F1 O1 . 2_666 2.913(3) yes
F1 O2 . . 2.821(3) yes
F1 O2 . 5_555 2.861(4) yes
F1 O3 . 3_455 2.897(3) yes
loop_
_refln_index_h
_refln_index_k
_refln_index_l
_refln_F_meas
_refln_F_calc
_refln_F_sigma
_refln_observed_status
0 1 -9 14.01 14.62 0.15 o
0 0 -8 5.07 4.18 0.29 o
0 1 -8 10.29 10.13 0.12 o
1 1 -8 14.41 14.37 0.16 o
-1 2 -8 15.63 15.51 0.17 o
0 2 -8 27.18 27.00 0.27 o
1 2 -8 16.26 16.22 0.17 o
2 2 -8 7.05 6.97 0.14 o
-1 3 -8 12.24 12.14 0.14 o
0 3 -8 4.06 3.78 0.15 o
1 3 -8 9.57 9.69 0.12 o
2 3 -8 5.87 6.12 0.12 o
3 3 -8 17.04 17.77 0.19 o
-2 4 -8 5.37 5.35 0.17 o
-1 4 -8 7.66 7.72 0.11 o
0 4 -8 22.94 22.84 0.23 o
1 4 -8 14.62 15.04 0.16 o
2 4 -8 12.24 12.37 0.14 o
3 4 -8 13.95 14.34 0.16 o
-2 5 -8 4.76 4.36 0.15 o
-1 5 -8 13.71 13.97 0.15 o
0 5 -8 22.99 23.60 0.24 o
1 5 -8 6.14 6.28 0.14 o
-3 6 -8 21.77 21.49 0.23 o
-2 6 -8 13.20 13.46 0.15 o
-1 6 -8 5.75 6.12 0.13 o
0 6 -8 9.23 9.52 0.13 o
-3 7 -8 15.37 15.69 0.17 o
0 1 -7 8.34 8.34 0.11 o
0 2 -7 5.90 5.60 0.11 o
1 2 -7 16.07 15.96 0.17 o
-1 3 -7 15.60 15.56 0.16 o
0 3 -7 11.22 11.40 0.13 o
1 3 -7 12.43 12.06 0.13 o
2 3 -7 14.98 14.81 0.16 o
-1 4 -7 9.16 9.05 0.11 o
0 4 -7 15.57 15.19 0.16 o
1 4 -7 14.77 14.53 0.16 o
2 4 -7 8.94 9.02 0.12 o
3 4 -7 16.53 16.66 0.17 o
-2 5 -7 17.65 17.17 0.18 o
-1 5 -7 10.98 10.68 0.13 o
0 5 -7 22.81 22.97 0.23 o
1 5 -7 14.47 14.48 0.15 o
2 5 -7 17.78 18.17 0.18 o
3 5 -7 6.80 7.05 0.13 o
4 5 -7 8.91 9.56 0.13 o
-2 6 -7 9.20 9.29 0.12 o
-1 6 -7 13.73 13.44 0.15 o
0 6 -7 3.22 2.67 0.23 o
1 6 -7 4.87 4.82 0.15 o
2 6 -7 4.05 3.79 0.19 o
3 6 -7 14.55 15.19 0.16 o
-3 7 -7 17.53 17.59 0.18 o
-2 7 -7 14.97 14.79 0.16 o
-1 7 -7 3.69 2.96 0.18 o
0 7 -7 12.11 12.24 0.14 o
1 7 -7 7.12 7.13 0.15 o
2 7 -7 9.03 9.44 0.15 o
-3 8 -7 7.84 7.79 0.11 o
-2 8 -7 5.47 5.56 0.15 o
-1 8 -7 8.28 8.11 0.12 o
0 8 -7 11.09 11.66 0.13 o
-4 9 -7 9.77 10.28 0.13 o
-3 9 -7 9.64 10.17 0.12 o
-2 9 -7 14.13 14.69 0.16 o
0 0 -6 88.59 89.72 0.89 o
0 1 -6 18.33 18.26 0.19 o
1 1 -6 22.26 22.37 0.23 o
-1 2 -6 17.65 17.51 0.19 o
0 2 -6 16.17 15.94 0.17 o
1 2 -6 15.89 15.99 0.16 o
2 2 -6 48.66 48.30 0.49 o
-1 3 -6 13.24 13.23 0.14 o
0 3 -6 24.21 24.09 0.24 o
1 3 -6 6.96 7.04 0.11 o
2 3 -6 27.21 26.92 0.27 o
3 3 -6 10.00 10.03 0.12 o
-2 4 -6 43.47 42.86 0.44 o
-1 4 -6 12.83 12.66 0.14 o
0 4 -6 14.17 14.31 0.15 o
1 4 -6 10.78 10.74 0.12 o
2 4 -6 18.82 18.42 0.19 o
3 4 -6 13.89 13.65 0.15 o
4 4 -6 27.31 26.84 0.28 o
-2 5 -6 26.75 26.41 0.27 o
-1 5 -6 18.21 18.04 0.19 o
0 5 -6 13.40 13.64 0.15 o
1 5 -6 7.85 8.05 0.11 o
2 5 -6 16.00 15.73 0.17 o
3 5 -6 7.11 7.00 0.12 o
4 5 -6 19.83 19.79 0.20 o
5 5 -6 13.72 13.99 0.16 o
-3 6 -6 17.91 17.50 0.19 o
-2 6 -6 13.99 13.51 0.15 o
-1 6 -6 8.48 8.47 0.12 o
0 6 -6 26.31 25.69 0.27 o
1 6 -6 11.73 11.33 0.13 o
2 6 -6 14.98 15.05 0.16 o
3 6 -6 11.48 11.36 0.13 o
4 6 -6 17.84 17.97 0.19 o
5 6 -6 11.45 11.73 0.14 o
-3 7 -6 8.92 8.91 0.12 o
-2 7 -6 17.78 17.26 0.18 o
-1 7 -6 8.09 8.16 0.11 o
0 7 -6 19.96 19.53 0.20 o
1 7 -6 9.14 9.23 0.13 o
2 7 -6 12.44 12.32 0.14 o
3 7 -6 10.71 10.91 0.13 o
-4 8 -6 33.73 32.83 0.34 o
-3 8 -6 8.41 8.28 0.11 o
-2 8 -6 10.40 10.50 0.13 o
-1 8 -6 13.44 13.36 0.15 o
0 8 -6 23.18 22.95 0.24 o
1 8 -6 6.21 6.54 0.15 o
2 8 -6 18.46 19.12 0.19 o
-4 9 -6 14.97 15.20 0.16 o
-3 9 -6 19.10 18.44 0.20 o
-2 9 -6 10.20 10.42 0.13 o
-1 9 -6 9.71 9.42 0.13 o
0 9 -6 13.31 13.84 0.15 o
1 9 -6 5.62 5.83 0.19 o
-5 10 -6 19.78 19.74 0.21 o
-4 10 -6 16.87 17.13 0.18 o
-3 10 -6 6.10 6.35 0.13 o
-2 10 -6 18.61 19.38 0.19 o
-1 10 -6 8.78 8.91 0.13 o
-5 11 -6 7.44 7.61 0.12 o
-4 11 -6 13.82 15.32 0.27 o
0 1 -5 9.03 8.70 0.11 o
0 2 -5 15.42 15.62 0.16 o
1 2 -5 8.46 8.37 0.11 o
-1 3 -5 8.94 8.88 0.11 o
0 3 -5 16.74 16.75 0.17 o
1 3 -5 11.41 11.65 0.13 o
2 3 -5 23.97 24.30 0.24 o
-1 4 -5 5.59 5.78 0.12 o
0 4 -5 35.01 35.90 0.35 o
1 4 -5 19.86 20.21 0.20 o
2 4 -5 10.07 10.14 0.12 o
3 4 -5 10.95 11.03 0.12 o
-2 5 -5 24.14 24.37 0.24 o
-1 5 -5 26.28 26.41 0.27 o
0 5 -5 12.73 12.56 0.14 o
1 5 -5 10.44 10.70 0.12 o
2 5 -5 32.44 32.38 0.33 o
3 5 -5 11.48 11.44 0.13 o
4 5 -5 8.24 8.10 0.12 o
-2 6 -5 14.81 14.91 0.16 o
-1 6 -5 8.50 8.61 0.11 o
0 6 -5 3.59 3.35 0.17 o
1 6 -5 10.46 10.56 0.12 o
2 6 -5 10.62 10.54 0.13 o
3 6 -5 13.97 13.63 0.15 o
4 6 -5 9.41 9.49 0.12 o
5 6 -5 9.15 9.32 0.12 o
-3 7 -5 9.58 9.61 0.12 o
-2 7 -5 27.06 27.02 0.27 o
-1 7 -5 13.78 13.91 0.15 o
0 7 -5 5.14 5.23 0.13 o
1 7 -5 4.62 4.44 0.15 o
2 7 -5 15.31 14.63 0.16 o
3 7 -5 14.44 14.58 0.16 o
4 7 -5 7.46 7.61 0.13 o
5 7 -5 18.02 18.57 0.19 o
-3 8 -5 8.64 8.80 0.11 o
-2 8 -5 11.21 11.28 0.13 o
-1 8 -5 4.71 4.96 0.15 o
0 8 -5 15.39 15.06 0.16 o
1 8 -5 17.11 16.81 0.18 o
2 8 -5 15.32 15.21 0.16 o
3 8 -5 6.24 5.97 0.14 o
4 8 -5 11.19 11.83 0.14 o
-4 9 -5 5.25 5.04 0.13 o
-3 9 -5 19.71 19.50 0.20 o
-2 9 -5 10.90 10.57 0.13 o
-1 9 -5 14.06 14.01 0.15 o
0 9 -5 19.82 19.77 0.20 o
1 9 -5 16.72 16.91 0.18 o
2 9 -5 5.87 5.77 0.16 o
-4 10 -5 13.14 12.92 0.14 o
-3 10 -5 14.34 14.37 0.15 o
-2 10 -5 12.53 12.29 0.14 o
-1 10 -5 17.76 17.31 0.19 o
0 10 -5 13.86 14.20 0.15 o
1 10 -5 5.28 5.37 0.18 o
-5 11 -5 11.37 11.39 0.13 o
-4 11 -5 9.15 9.23 0.12 o
-3 11 -5 9.16 9.48 0.12 o
-2 11 -5 4.46 4.81 0.17 o
-1 11 -5 4.51 5.20 0.22 o
-5 12 -5 10.77 11.46 0.13 o
-4 12 -5 14.85 15.49 0.16 o
0 0 -4 63.70 64.59 0.64 o
0 1 -4 27.71 27.68 0.28 o
1 1 -4 26.60 26.58 0.27 o
-1 2 -4 35.58 35.59 0.36 o
0 2 -4 22.32 22.35 0.23 o
1 2 -4 19.63 20.06 0.20 o
2 2 -4 59.03 59.87 0.59 o
-1 3 -4 23.46 23.73 0.24 o
0 3 -4 48.96 49.82 0.49 o
1 3 -4 29.66 29.98 0.30 o
2 3 -4 9.25 9.63 0.11 o
3 3 -4 15.73 16.29 0.17 o
-2 4 -4 50.03 51.34 0.51 o
-1 4 -4 16.25 16.49 0.17 o
0 4 -4 27.68 28.18 0.28 o
1 4 -4 27.46 27.56 0.28 o
2 4 -4 13.36 13.48 0.14 o
3 4 -4 24.60 24.52 0.25 o
4 4 -4 39.66 39.89 0.40 o
-2 5 -4 16.85 16.96 0.18 o
-1 5 -4 19.52 19.72 0.20 o
0 5 -4 42.57 43.28 0.43 o
1 5 -4 19.53 19.74 0.20 o
2 5 -4 34.01 34.33 0.34 o
3 5 -4 14.56 14.55 0.15 o
4 5 -4 15.19 15.04 0.16 o
5 5 -4 9.44 9.66 0.13 o
-3 6 -4 16.75 16.74 0.18 o
-2 6 -4 17.88 18.05 0.18 o
-1 6 -4 16.18 16.28 0.17 o
0 6 -4 40.01 40.33 0.40 o
1 6 -4 12.09 11.98 0.13 o
2 6 -4 10.46 10.46 0.12 o
3 6 -4 19.79 19.33 0.20 o
4 6 -4 18.52 18.12 0.19 o
5 6 -4 18.37 18.08 0.19 o
6 6 -4 19.80 19.69 0.21 o
-3 7 -4 31.75 31.53 0.32 o
-2 7 -4 25.08 25.12 0.25 o
-1 7 -4 6.94 6.90 0.11 o
0 7 -4 19.10 18.93 0.20 o
1 7 -4 10.88 11.08 0.13 o
2 7 -4 27.22 26.61 0.27 o
3 7 -4 18.40 17.93 0.19 o
4 7 -4 22.62 22.16 0.23 o
5 7 -4 10.65 10.62 0.13 o
6 7 -4 7.84 8.08 0.13 o
-4 8 -4 32.51 32.82 0.33 o
-3 8 -4 24.58 24.77 0.25 o
-2 8 -4 11.00 11.10 0.13 o
-1 8 -4 16.41 16.43 0.17 o
0 8 -4 10.48 10.55 0.12 o
1 8 -4 15.22 14.94 0.16 o
2 8 -4 23.57 22.89 0.24 o
3 8 -4 10.34 10.19 0.13 o
4 8 -4 16.07 16.28 0.17 o
5 8 -4 19.36 19.55 0.20 o
-4 9 -4 13.49 13.44 0.14 o
-3 9 -4 14.83 14.33 0.16 o
-2 9 -4 32.30 31.76 0.33 o
-1 9 -4 17.14 16.81 0.18 o
0 9 -4 11.42 11.11 0.13 o
1 9 -4 8.41 8.14 0.12 o
2 9 -4 9.86 9.87 0.13 o
3 9 -4 10.95 11.20 0.13 o
-5 10 -4 6.12 5.63 0.16 o
-4 10 -4 16.94 16.66 0.18 o
-3 10 -4 22.62 22.08 0.23 o
-2 10 -4 19.66 19.15 0.20 o
-1 10 -4 15.30 15.20 0.16 o
0 10 -4 12.29 12.13 0.14 o
1 10 -4 19.68 19.47 0.20 o
2 10 -4 9.00 9.39 0.13 o
-5 11 -4 23.20 22.88 0.23 o
-4 11 -4 14.00 13.81 0.15 o
-3 11 -4 13.22 13.14 0.15 o
-2 11 -4 7.67 7.80 0.12 o
-1 11 -4 10.26 10.09 0.13 o
0 11 -4 17.51 18.48 0.19 o
-6 12 -4 15.58 15.59 0.17 o
-5 12 -4 14.72 14.75 0.16 o
-4 12 -4 13.40 13.71 0.14 o
-3 12 -4 19.34 19.73 0.20 o
-2 12 -4 10.23 10.57 0.13 o
-6 13 -4 9.52 9.97 0.12 o
-5 13 -4 10.88 11.28 0.13 o
0 1 -3 58.66 57.97 0.59 o
0 2 -3 17.82 17.43 0.18 o
1 2 -3 25.21 24.68 0.25 o
-1 3 -3 24.92 24.46 0.25 o
0 3 -3 7.56 7.83 0.11 o
1 3 -3 23.65 23.81 0.24 o
2 3 -3 40.22 41.03 0.40 o
-1 4 -3 25.60 25.38 0.26 o
0 4 -3 16.15 16.62 0.17 o
1 4 -3 12.15 12.35 0.13 o
2 4 -3 22.44 22.89 0.23 o
3 4 -3 6.91 7.37 0.11 o
-2 5 -3 40.06 40.52 0.40 o
-1 5 -3 17.55 17.66 0.19 o
0 5 -3 30.31 30.35 0.31 o
1 5 -3 18.78 19.16 0.19 o
2 5 -3 10.63 10.62 0.12 o
3 5 -3 7.15 6.99 0.12 o
4 5 -3 29.03 29.16 0.29 o
-2 6 -3 23.65 24.04 0.24 o
-1 6 -3 13.58 13.70 0.15 o
0 6 -3 6.01 5.71 0.12 o
1 6 -3 23.05 23.73 0.23 o
2 6 -3 7.78 7.93 0.11 o
3 6 -3 13.77 13.71 0.15 o
4 6 -3 11.97 11.87 0.14 o
5 6 -3 5.26 4.91 0.16 o
-3 7 -3 7.29 7.48 0.12 o
-2 7 -3 9.22 9.17 0.11 o
-1 7 -3 17.71 18.22 0.18 o
0 7 -3 41.20 41.63 0.41 o
1 7 -3 10.56 10.60 0.12 o
2 7 -3 13.55 13.35 0.15 o
3 7 -3 11.58 11.60 0.13 o
4 7 -3 3.52 3.29 0.20 o
5 7 -3 10.10 10.06 0.13 o
6 7 -3 7.70 7.87 0.13 o
-3 8 -3 3.99 3.65 0.17 o
-2 8 -3 13.47 13.60 0.15 o
-1 8 -3 9.95 9.97 0.12 o
0 8 -3 25.18 25.43 0.26 o
1 8 -3 5.69 5.60 0.13 o
2 8 -3 7.85 7.32 0.12 o
3 8 -3 4.63 4.66 0.15 o
4 8 -3 8.07 8.17 0.12 o
5 8 -3 15.32 15.53 0.17 o
-4 9 -3 28.09 28.08 0.28 o
-3 9 -3 12.60 12.84 0.14 o
-2 9 -3 15.18 15.00 0.16 o
-1 9 -3 7.06 7.17 0.12 o
0 9 -3 11.87 11.91 0.13 o
1 9 -3 5.31 5.27 0.14 o
2 9 -3 16.42 16.02 0.17 o
3 9 -3 15.63 15.54 0.17 o
4 9 -3 9.84 9.70 0.14 o
-4 10 -3 14.18 14.15 0.15 o
-3 10 -3 12.72 12.38 0.14 o
-2 10 -3 6.32 6.29 0.13 o
-1 10 -3 8.64 8.42 0.12 o
0 10 -3 12.49 12.56 0.14 o
1 10 -3 12.81 12.70 0.14 o
2 10 -3 23.59 23.17 0.24 o
3 10 -3 8.76 8.88 0.13 o
-5 11 -3 2.70 2.72 0.22 o
-4 11 -3 5.50 5.23 0.13 o
-3 11 -3 3.05 2.44 0.22 o
-2 11 -3 16.03 15.91 0.17 o
-1 11 -3 13.10 13.04 0.15 o
0 11 -3 8.16 8.29 0.13 o
1 11 -3 9.27 9.11 0.13 o
-5 12 -3 5.38 5.33 0.13 o
-4 12 -3 6.01 5.98 0.12 o
-3 12 -3 15.12 15.05 0.16 o
-2 12 -3 23.92 24.22 0.24 o
-1 12 -3 12.19 12.11 0.14 o
0 12 -3 8.13 8.55 0.13 o
-6 13 -3 9.32 9.57 0.12 o
-5 13 -3 13.48 14.16 0.15 o
-4 13 -3 6.84 7.12 0.12 o
-3 13 -3 6.99 7.54 0.13 o
0 0 -2 46.09 45.58 0.47 o
0 1 -2 20.79 19.66 0.21 o
1 1 -2 34.81 35.38 0.35 o
-1 2 -2 32.19 32.16 0.33 o
0 2 -2 72.43 75.88 0.73 o
1 2 -2 26.79 26.87 0.27 o
2 2 -2 16.56 16.77 0.18 o
-1 3 -2 14.23 13.86 0.16 o
0 3 -2 77.35 79.93 0.77 o
1 3 -2 10.12 9.65 0.12 o
2 3 -2 25.28 25.75 0.26 o
3 3 -2 40.11 40.60 0.40 o
-2 4 -2 18.79 18.69 0.20 o
-1 4 -2 11.26 11.32 0.14 o
0 4 -2 70.28 71.73 0.70 o
1 4 -2 36.82 36.73 0.37 o
2 4 -2 36.84 37.18 0.37 o
3 4 -2 22.13 22.43 0.23 o
4 4 -2 32.99 33.08 0.33 o
-2 5 -2 18.92 19.32 0.20 o
-1 5 -2 51.25 52.11 0.51 o
0 5 -2 44.87 45.48 0.45 o
1 5 -2 5.58 5.67 0.14 o
2 5 -2 24.83 24.93 0.25 o
3 5 -2 33.23 34.11 0.33 o
4 5 -2 19.17 19.42 0.20 o
5 5 -2 33.74 33.66 0.34 o
-3 6 -2 49.08 49.81 0.49 o
-2 6 -2 36.47 36.93 0.37 o
-1 6 -2 3.59 3.57 0.17 o
0 6 -2 33.66 33.95 0.34 o
1 6 -2 20.64 21.01 0.21 o
2 6 -2 18.59 18.46 0.19 o
3 6 -2 16.95 17.16 0.18 o
4 6 -2 18.78 18.86 0.19 o
5 6 -2 20.70 20.43 0.21 o
6 6 -2 20.27 19.63 0.22 o
-3 7 -2 23.49 23.66 0.24 o
-2 7 -2 29.97 29.88 0.30 o
-1 7 -2 21.04 21.23 0.21 o
0 7 -2 7.55 7.75 0.12 o
1 7 -2 37.82 38.22 0.38 o
2 7 -2 29.57 29.80 0.30 o
3 7 -2 25.89 25.58 0.26 o
4 7 -2 22.39 21.87 0.23 o
5 7 -2 17.84 17.69 0.19 o
6 7 -2 10.59 10.40 0.14 o
7 7 -2 12.97 12.79 0.18 o
-4 8 -2 38.67 39.02 0.39 o
-3 8 -2 22.66 23.14 0.23 o
-2 8 -2 13.03 12.69 0.14 o
-1 8 -2 31.87 32.24 0.32 o
0 8 -2 15.77 15.54 0.17 o
1 8 -2 4.97 4.64 0.14 o
2 8 -2 28.02 27.45 0.28 o
3 8 -2 12.39 12.29 0.14 o
4 8 -2 10.89 10.68 0.14 o
5 8 -2 12.74 12.46 0.15 o
6 8 -2 11.73 11.96 0.14 o
-4 9 -2 21.40 21.58 0.22 o
-3 9 -2 32.57 32.52 0.33 o
-2 9 -2 29.43 29.69 0.30 o
-1 9 -2 7.74 7.53 0.11 o
0 9 -2 26.09 25.60 0.26 o
1 9 -2 21.01 20.99 0.21 o
2 9 -2 12.48 12.24 0.14 o
3 9 -2 13.71 13.44 0.15 o
4 9 -2 14.94 15.03 0.17 o
5 9 -2 9.34 9.47 0.14 o
-5 10 -2 29.58 29.47 0.30 o
-4 10 -2 9.68 9.80 0.11 o
-3 10 -2 22.18 21.99 0.22 o
-2 10 -2 21.17 21.02 0.22 o
-1 10 -2 23.87 23.59 0.24 o
0 10 -2 9.04 8.94 0.12 o
1 10 -2 14.48 14.20 0.16 o
2 10 -2 11.93 11.78 0.14 o
3 10 -2 7.47 7.83 0.14 o
4 10 -2 15.21 15.80 0.17 o
-5 11 -2 12.74 12.59 0.14 o
-4 11 -2 31.17 30.53 0.31 o
-3 11 -2 16.04 16.05 0.17 o
-2 11 -2 17.24 17.20 0.18 o
-1 11 -2 15.21 15.00 0.17 o
0 11 -2 10.19 10.36 0.13 o
1 11 -2 7.54 7.60 0.13 o
2 11 -2 13.35 13.81 0.15 o
-6 12 -2 11.85 11.87 0.14 o
-5 12 -2 16.91 16.45 0.17 o
-4 12 -2 6.40 6.27 0.11 o
-3 12 -2 19.04 18.66 0.20 o
-2 12 -2 6.53 6.30 0.11 o
-1 12 -2 7.63 7.26 0.14 o
0 12 -2 14.71 14.92 0.16 o
-6 13 -2 10.37 10.47 0.12 o
-5 13 -2 21.21 20.79 0.22 o
-4 13 -2 9.73 9.71 0.12 o
-3 13 -2 13.08 13.42 0.14 o
-2 13 -2 18.85 19.81 0.20 o
-7 14 -2 10.64 11.45 0.15 o
-6 14 -2 6.57 6.67 0.13 o
-5 14 -2 12.10 12.43 0.14 o
-4 14 -2 8.53 9.48 0.12 o
0 1 -1 2.19 0.88 0.46 <
0 2 -1 7.85 7.21 0.16 o
1 2 -1 35.08 35.35 0.36 o
-1 3 -1 33.22 33.40 0.34 o
0 3 -1 22.69 23.24 0.23 o
1 3 -1 28.00 26.89 0.28 o
2 3 -1 35.48 34.74 0.36 o
-1 4 -1 26.73 26.10 0.27 o
0 4 -1 54.06 52.87 0.54 o
1 4 -1 39.01 39.33 0.39 o
2 4 -1 11.22 10.79 0.13 o
3 4 -1 29.52 30.45 0.30 o
-2 5 -1 39.76 38.73 0.40 o
-1 5 -1 27.65 28.20 0.28 o
0 5 -1 38.00 38.02 0.38 o
1 5 -1 24.15 24.34 0.25 o
2 5 -1 36.23 37.02 0.36 o
3 5 -1 10.72 10.77 0.13 o
4 5 -1 7.65 7.62 0.12 o
-2 6 -1 6.36 6.26 0.11 o
-1 6 -1 14.63 14.74 0.15 o
0 6 -1 2.35 1.83 0.26 o
1 6 -1 16.27 16.41 0.17 o
2 6 -1 17.85 17.93 0.18 o
3 6 -1 30.40 30.45 0.31 o
4 6 -1 10.43 10.35 0.14 o
5 6 -1 8.25 8.37 0.13 o
-3 7 -1 28.13 28.61 0.28 o
-2 7 -1 39.31 39.93 0.39 o
-1 7 -1 16.74 16.87 0.17 o
0 7 -1 5.46 5.34 0.12 o
1 7 -1 11.39 11.27 0.13 o
2 7 -1 17.95 18.12 0.19 o
3 7 -1 22.96 22.85 0.23 o
4 7 -1 7.79 7.54 0.14 o
5 7 -1 18.63 18.31 0.19 o
6 7 -1 9.97 10.24 0.13 o
-3 8 -1 19.05 19.19 0.19 o
-2 8 -1 19.17 19.33 0.20 o
-1 8 -1 10.00 10.09 0.12 o
0 8 -1 12.99 12.82 0.14 o
1 8 -1 14.06 14.65 0.15 o
2 8 -1 15.06 14.93 0.16 o
3 8 -1 18.75 18.57 0.19 o
4 8 -1 18.44 18.15 0.19 o
5 8 -1 6.97 6.94 0.14 o
6 8 -1 13.82 13.84 0.16 o
-4 9 -1 11.22 11.26 0.12 o
-3 9 -1 21.33 21.65 0.22 o
-2 9 -1 27.30 27.35 0.27 o
-1 9 -1 28.19 28.39 0.28 o
0 9 -1 26.98 26.99 0.27 o
1 9 -1 12.75 12.62 0.14 o
2 9 -1 10.51 10.41 0.13 o
3 9 -1 10.40 10.00 0.14 o
4 9 -1 7.28 7.09 0.13 o
5 9 -1 15.30 15.26 0.17 o
-4 10 -1 8.45 8.36 0.11 o
-3 10 -1 16.33 16.33 0.17 o
-2 10 -1 19.29 19.25 0.20 o
-1 10 -1 21.28 20.98 0.22 o
0 10 -1 14.06 13.54 0.15 o
1 10 -1 8.62 8.62 0.12 o
2 10 -1 10.47 10.25 0.13 o
3 10 -1 7.27 7.19 0.14 o
4 10 -1 8.19 8.61 0.14 o
-5 11 -1 11.25 11.28 0.12 o
-4 11 -1 10.27 10.15 0.12 o
-3 11 -1 10.27 10.06 0.12 o
-2 11 -1 8.68 8.56 0.11 o
-1 11 -1 10.70 10.57 0.12 o
0 11 -1 10.71 10.25 0.12 o
1 11 -1 18.11 18.08 0.19 o
2 11 -1 6.08 6.36 0.17 o
-5 12 -1 20.32 19.93 0.21 o
-4 12 -1 14.35 14.09 0.15 o
-3 12 -1 7.65 7.54 0.11 o
-2 12 -1 10.17 9.70 0.12 o
-1 12 -1 9.52 9.55 0.12 o
0 12 -1 18.40 18.18 0.19 o
1 12 -1 19.35 19.98 0.20 o
-6 13 -1 10.38 10.51 0.12 o
-5 13 -1 8.49 8.20 0.11 o
-4 13 -1 4.53 4.20 0.15 o
-3 13 -1 7.89 8.04 0.11 o
-2 13 -1 9.52 9.86 0.12 o
-1 13 -1 9.66 10.12 0.12 o
-6 14 -1 9.56 9.54 0.12 o
-5 14 -1 14.37 14.82 0.15 o
-4 14 -1 7.80 8.23 0.11 o
0 1 0 2.98 2.68 0.45 o
1 1 0 17.87 16.98 0.22 o
-1 2 0 17.77 16.98 0.21 o
0 2 0 11.60 11.23 0.16 o
1 2 0 33.54 32.61 0.34 o
2 2 0 97.44 112.49 0.98 o
-1 3 0 33.61 32.61 0.34 o
0 3 0 21.22 21.13 0.22 o
1 3 0 16.33 17.02 0.17 o
2 3 0 42.89 42.23 0.43 o
3 3 0 55.01 54.51 0.55 o
-2 4 0 96.23 112.44 0.96 o
-1 4 0 16.43 16.98 0.17 o
0 4 0 15.07 14.65 0.16 o
1 4 0 6.25 6.35 0.13 o
2 4 0 16.45 16.57 0.17 o
3 4 0 16.59 16.67 0.17 o
4 4 0 65.23 66.20 0.65 o
-2 5 0 42.53 42.25 0.43 o
-1 5 0 6.06 6.38 0.13 o
0 5 0 35.98 36.46 0.36 o
1 5 0 40.92 40.89 0.41 o
2 5 0 5.16 5.01 0.15 o
3 5 0 24.55 24.77 0.25 o
4 5 0 16.50 16.64 0.17 o
5 5 0 39.62 39.95 0.40 o
-3 6 0 54.01 54.52 0.54 o
-2 6 0 16.40 16.58 0.17 o
-1 6 0 40.45 40.90 0.41 o
0 6 0 62.21 62.54 0.62 o
1 6 0 17.23 17.73 0.18 o
2 6 0 12.45 12.43 0.14 o
3 6 0 18.07 18.45 0.19 o
4 6 0 20.30 20.16 0.21 o
5 6 0 16.31 16.12 0.17 o
6 6 0 21.47 21.43 0.23 o
-3 7 0 16.73 16.64 0.17 o
-2 7 0 5.15 5.03 0.12 o
-1 7 0 17.13 17.77 0.18 o
0 7 0 16.02 15.81 0.17 o
1 7 0 31.16 31.38 0.31 o
2 7 0 23.97 23.88 0.25 o
3 7 0 26.28 26.28 0.27 o
4 7 0 4.25 4.16 0.19 o
5 7 0 21.69 21.09 0.22 o
6 7 0 19.70 19.64 0.21 o
7 7 0 25.85 26.02 0.27 o
-4 8 0 64.86 66.19 0.65 o
-3 8 0 24.24 24.84 0.25 o
-2 8 0 12.47 12.42 0.13 o
-1 8 0 30.96 31.34 0.31 o
0 8 0 30.81 31.15 0.31 o
1 8 0 23.13 23.34 0.24 o
2 8 0 22.63 22.35 0.23 o
3 8 0 15.46 14.91 0.16 o
4 8 0 13.52 13.20 0.15 o
5 8 0 9.32 9.07 0.13 o
6 8 0 16.77 17.01 0.18 o
-4 9 0 16.50 16.65 0.17 o
-3 9 0 17.90 18.49 0.18 o
-2 9 0 23.79 23.89 0.24 o
-1 9 0 23.06 23.34 0.23 o
0 9 0 3.00 2.93 0.20 o
1 9 0 12.04 12.04 0.14 o
2 9 0 12.30 12.33 0.14 o
3 9 0 26.62 26.09 0.27 o
4 9 0 24.48 24.20 0.25 o
5 9 0 13.09 13.25 0.15 o
-5 10 0 39.78 39.87 0.40 o
-4 10 0 20.22 20.19 0.21 o
-3 10 0 26.26 26.28 0.26 o
-2 10 0 22.77 22.33 0.23 o
-1 10 0 12.04 12.06 0.13 o
0 10 0 16.25 16.08 0.17 o
1 10 0 18.50 17.90 0.19 o
2 10 0 7.96 7.91 0.12 o
3 10 0 10.13 10.39 0.13 o
4 10 0 10.99 10.60 0.14 o
-5 11 0 16.09 16.10 0.17 o
-4 11 0 4.48 4.16 0.12 o
-3 11 0 15.12 14.93 0.16 o
-2 11 0 12.35 12.29 0.13 o
-1 11 0 18.59 17.91 0.19 o
0 11 0 16.84 16.69 0.18 o
1 11 0 13.42 13.05 0.15 o
2 11 0 9.54 9.37 0.13 o
3 11 0 5.36 5.71 0.17 o
-6 12 0 21.72 21.44 0.22 o
-5 12 0 21.66 21.10 0.22 o
-4 12 0 13.40 13.23 0.14 o
-3 12 0 26.50 26.06 0.27 o
-2 12 0 8.09 7.92 0.11 o
-1 12 0 13.30 13.08 0.14 o
0 12 0 11.88 12.00 0.14 o
1 12 0 5.39 5.47 0.15 o
-6 13 0 19.82 19.64 0.20 o
-5 13 0 9.04 9.07 0.12 o
-4 13 0 24.15 24.21 0.24 o
-3 13 0 10.17 10.37 0.12 o
-2 13 0 9.52 9.38 0.12 o
-1 13 0 5.17 5.47 0.14 o
-7 14 0 26.29 25.98 0.27 o
-6 14 0 16.93 17.03 0.17 o
-5 14 0 13.22 13.27 0.14 o
-4 14 0 10.40 10.59 0.12 o
-3 14 0 5.15 5.71 0.15 o
0 1 1 2.10 0.84 0.43 <
0 2 1 8.12 7.66 0.15 o
1 2 1 33.03 33.20 0.33 o
-1 3 1 35.06 35.15 0.35 o
0 3 1 22.51 23.16 0.23 o
1 3 1 26.93 26.08 0.27 o
2 3 1 39.89 38.81 0.40 o
-1 4 1 27.92 26.89 0.28 o
0 4 1 54.14 52.91 0.54 o
1 4 1 27.80 28.18 0.28 o
2 4 1 6.48 5.95 0.11 o
3 4 1 28.19 28.55 0.29 o
-2 5 1 35.84 34.82 0.36 o
-1 5 1 38.80 39.34 0.39 o
0 5 1 37.89 38.10 0.38 o
1 5 1 14.60 14.76 0.15 o
2 5 1 39.46 39.97 0.40 o
3 5 1 19.23 19.21 0.20 o
4 5 1 11.24 11.21 0.13 o
-2 6 1 10.97 10.72 0.12 o
-1 6 1 24.01 24.34 0.24 o
0 6 1 2.55 1.85 0.20 o
1 6 1 16.80 16.96 0.17 o
2 6 1 19.32 19.58 0.20 o
3 6 1 21.35 21.57 0.22 o
4 6 1 8.31 8.42 0.12 o
5 6 1 11.06 11.24 0.13 o
-3 7 1 29.62 30.39 0.30 o
-2 7 1 36.42 36.98 0.37 o
-1 7 1 16.17 16.52 0.17 o
0 7 1 5.34 5.23 0.11 o
1 7 1 10.09 10.14 0.12 o
2 7 1 27.36 27.29 0.28 o
3 7 1 16.47 16.18 0.17 o
4 7 1 10.44 10.11 0.13 o
5 7 1 20.36 19.89 0.21 o
6 7 1 10.37 10.56 0.14 o
-3 8 1 10.55 10.88 0.12 o
-2 8 1 18.04 18.20 0.19 o
-1 8 1 11.26 11.34 0.12 o
0 8 1 13.01 12.70 0.14 o
1 8 1 27.97 28.32 0.28 o
2 8 1 19.34 19.25 0.20 o
3 8 1 10.34 9.99 0.13 o
4 8 1 14.56 14.18 0.16 o
5 8 1 8.24 8.23 0.13 o
6 8 1 9.73 9.57 0.14 o
-4 9 1 7.49 7.57 0.10 o
-3 9 1 30.11 30.41 0.30 o
-2 9 1 17.98 18.07 0.18 o
-1 9 1 14.37 14.39 0.15 o
0 9 1 26.93 26.95 0.27 o
1 9 1 21.30 20.98 0.22 o
2 9 1 8.58 8.48 0.12 o
3 9 1 7.80 7.49 0.14 o
4 9 1 4.76 4.30 0.17 o
5 9 1 14.04 14.77 0.16 o
-4 10 1 10.32 10.34 0.12 o
-3 10 1 22.78 22.81 0.23 o
-2 10 1 14.98 14.94 0.16 o
-1 10 1 12.82 12.60 0.14 o
0 10 1 13.87 13.71 0.15 o
1 10 1 10.55 10.64 0.12 o
2 10 1 9.86 9.58 0.13 o
3 10 1 7.93 8.03 0.13 o
4 10 1 7.96 8.21 0.13 o
-5 11 1 8.33 8.23 0.11 o
-4 11 1 7.53 7.58 0.10 o
-3 11 1 18.64 18.54 0.19 o
-2 11 1 10.43 10.35 0.12 o
-1 11 1 8.81 8.72 0.11 o
0 11 1 10.63 10.31 0.13 o
1 11 1 9.50 9.60 0.12 o
2 11 1 9.61 9.88 0.13 o
-5 12 1 18.59 18.28 0.19 o
-4 12 1 18.48 18.19 0.19 o
-3 12 1 10.29 9.99 0.12 o
-2 12 1 10.45 10.10 0.12 o
-1 12 1 17.84 18.11 0.18 o
0 12 1 18.12 18.20 0.19 o
1 12 1 9.50 10.10 0.13 o
-6 13 1 10.03 10.29 0.12 o
-5 13 1 7.03 6.96 0.11 o
-4 13 1 7.10 7.14 0.11 o
-3 13 1 7.22 7.12 0.12 o
-2 13 1 6.12 6.40 0.12 o
-1 13 1 19.29 19.97 0.20 o
-6 14 1 13.97 13.83 0.15 o
-5 14 1 15.20 15.26 0.16 o
-4 14 1 8.56 8.61 0.12 o
0 0 2 45.76 45.81 0.47 o
0 1 2 20.52 19.55 0.21 o
1 1 2 32.23 32.35 0.33 o
-1 2 2 34.69 35.58 0.35 o
0 2 2 72.98 75.89 0.73 o
1 2 2 14.28 14.01 0.15 o
2 2 2 18.69 18.72 0.20 o
-1 3 2 27.01 26.93 0.27 o
0 3 2 78.60 79.89 0.79 o
1 3 2 11.34 11.21 0.13 o
2 3 2 18.93 19.33 0.20 o
3 3 2 49.49 49.87 0.50 o
-2 4 2 16.74 16.80 0.19 o
-1 4 2 10.15 9.56 0.12 o
0 4 2 70.08 71.79 0.70 o
1 4 2 50.83 52.16 0.51 o
2 4 2 36.73 36.86 0.37 o
3 4 2 23.51 23.63 0.24 o
4 4 2 38.84 38.94 0.39 o
-2 5 2 25.49 25.78 0.26 o
-1 5 2 36.75 36.83 0.37 o
0 5 2 44.42 45.27 0.45 o
1 5 2 3.89 3.66 0.16 o
2 5 2 29.82 29.89 0.30 o
3 5 2 22.72 23.22 0.23 o
4 5 2 21.60 21.63 0.22 o
5 5 2 29.81 29.39 0.30 o
-3 6 2 40.01 40.71 0.40 o
-2 6 2 37.03 37.10 0.37 o
-1 6 2 5.59 5.72 0.11 o
0 6 2 33.55 33.85 0.34 o
1 6 2 21.06 21.31 0.21 o
2 6 2 12.93 12.86 0.14 o
3 6 2 32.45 32.57 0.33 o
4 6 2 9.81 9.81 0.12 o
5 6 2 12.70 12.67 0.14 o
6 6 2 12.04 11.58 0.16 o
-3 7 2 22.30 22.40 0.23 o
-2 7 2 24.93 24.86 0.25 o
-1 7 2 20.67 21.09 0.21 o
0 7 2 7.45 7.48 0.11 o
1 7 2 32.00 32.19 0.32 o
2 7 2 29.42 29.76 0.30 o
3 7 2 22.17 22.03 0.23 o
4 7 2 31.12 30.52 0.31 o
5 7 2 16.82 16.53 0.18 o
6 7 2 10.44 10.48 0.13 o
7 7 2 10.94 11.46 0.17 o
-4 8 2 33.07 33.05 0.33 o
-3 8 2 33.52 34.11 0.34 o
-2 8 2 18.61 18.54 0.19 o
-1 8 2 37.93 38.21 0.38 o
0 8 2 15.74 15.66 0.16 o
1 8 2 7.56 7.55 0.11 o
2 8 2 21.29 20.93 0.22 o
3 8 2 16.35 16.08 0.17 o
4 8 2 6.23 6.28 0.12 o
5 8 2 20.75 20.79 0.21 o
6 8 2 6.65 6.77 0.15 o
-4 9 2 19.24 19.48 0.20 o
-3 9 2 17.40 17.30 0.18 o
-2 9 2 29.69 29.87 0.30 o
-1 9 2 5.03 4.66 0.12 o
0 9 2 26.35 25.75 0.27 o
1 9 2 23.70 23.57 0.24 o
2 9 2 17.18 17.18 0.18 o
3 9 2 19.03 18.65 0.20 o
4 9 2 9.83 9.63 0.13 o
5 9 2 11.56 12.48 0.15 o
-5 10 2 33.56 33.62 0.34 o
-4 10 2 18.81 18.86 0.19 o
-3 10 2 25.81 25.60 0.26 o
-2 10 2 28.05 27.40 0.28 o
-1 10 2 21.17 20.93 0.22 o
0 10 2 9.17 9.07 0.11 o
1 10 2 15.15 15.05 0.16 o
2 10 2 6.49 6.42 0.12 o
3 10 2 12.83 13.39 0.15 o
4 10 2 8.72 9.40 0.14 o
-5 11 2 20.46 20.45 0.21 o
-4 11 2 22.34 21.85 0.23 o
-3 11 2 12.32 12.41 0.13 o
-2 11 2 12.53 12.22 0.14 o
-1 11 2 14.46 14.21 0.15 o
0 11 2 10.56 10.37 0.12 o
1 11 2 7.09 7.25 0.12 o
2 11 2 19.16 19.81 0.20 o
-6 12 2 20.03 19.51 0.21 o
-5 12 2 18.05 17.73 0.18 o
-4 12 2 10.83 10.68 0.12 o
-3 12 2 13.61 13.49 0.15 o
-2 12 2 11.84 11.83 0.13 o
-1 12 2 7.68 7.56 0.11 o
0 12 2 14.49 14.80 0.16 o
1 12 2 12.70 14.75 0.34 o
-6 13 2 10.50 10.42 0.12 o
-5 13 2 12.87 12.43 0.14 o
-4 13 2 15.50 14.99 0.16 o
-3 13 2 7.88 7.76 0.12 o
-2 13 2 13.80 13.78 0.15 o
-7 14 2 12.11 12.81 0.15 o
-6 14 2 11.61 12.00 0.13 o
-5 14 2 9.35 9.51 0.12 o
-4 14 2 15.18 15.77 0.16 o
0 1 3 58.04 57.93 0.58 o
0 2 3 17.66 17.28 0.18 o
1 2 3 24.84 24.52 0.25 o
-1 3 3 25.31 24.74 0.26 o
0 3 3 7.46 7.82 0.11 o
1 3 3 25.29 25.31 0.26 o
2 3 3 40.16 40.49 0.40 o
-1 4 3 23.81 23.68 0.24 o
0 4 3 16.16 16.40 0.17 o
1 4 3 17.52 17.64 0.18 o
2 4 3 23.53 23.99 0.24 o
3 4 3 7.15 7.38 0.11 o
-2 5 3 40.53 41.08 0.41 o
-1 5 3 12.36 12.29 0.13 o
0 5 3 30.32 30.40 0.31 o
1 5 3 13.71 13.78 0.15 o
2 5 3 9.34 9.21 0.12 o
3 5 3 3.78 3.61 0.15 o
4 5 3 28.22 28.00 0.28 o
-2 6 3 22.64 22.81 0.23 o
-1 6 3 18.97 19.21 0.19 o
0 6 3 5.79 5.69 0.12 o
1 6 3 17.71 18.20 0.18 o
2 6 3 13.44 13.47 0.14 o
3 6 3 12.78 12.76 0.14 o
4 6 3 14.45 14.21 0.15 o
5 6 3 2.72 2.65 0.22 o
-3 7 3 7.20 7.23 0.11 o
-2 7 3 10.73 10.69 0.12 o
-1 7 3 23.21 23.64 0.24 o
0 7 3 41.34 41.57 0.41 o
1 7 3 9.88 10.00 0.12 o
2 7 3 15.29 15.04 0.16 o
3 7 3 12.85 12.42 0.14 o
4 7 3 5.49 5.31 0.13 o
5 7 3 5.09 5.33 0.14 o
6 7 3 9.88 9.56 0.12 o
-3 8 3 7.01 6.98 0.11 o
-2 8 3 7.95 7.63 0.11 o
-1 8 3 10.73 10.59 0.12 o
0 8 3 25.36 25.49 0.26 o
1 8 3 7.20 7.21 0.11 o
2 8 3 6.47 6.25 0.12 o
3 8 3 2.37 2.41 0.28 o
4 8 3 6.24 5.89 0.13 o
5 8 3 13.93 14.14 0.15 o
-4 9 3 29.29 29.12 0.29 o
-3 9 3 13.75 13.68 0.15 o
-2 9 3 13.67 13.36 0.14 o
-1 9 3 5.84 5.66 0.11 o
0 9 3 11.88 11.84 0.13 o
1 9 3 8.63 8.33 0.11 o
2 9 3 16.22 15.92 0.17 o
3 9 3 15.43 15.03 0.16 o
4 9 3 6.91 7.09 0.13 o
-4 10 3 12.06 11.93 0.13 o
-3 10 3 11.91 11.64 0.13 o
-2 10 3 7.75 7.31 0.11 o
-1 10 3 5.45 5.09 0.11 o
0 10 3 12.57 12.38 0.14 o
1 10 3 12.95 13.05 0.14 o
2 10 3 24.28 24.27 0.25 o
3 10 3 7.46 7.49 0.13 o
-5 11 3 4.94 4.90 0.12 o
-4 11 3 3.61 3.43 0.18 o
-3 11 3 4.45 4.65 0.14 o
-2 11 3 16.38 16.04 0.17 o
-1 11 3 12.97 12.69 0.14 o
0 11 3 8.09 8.26 0.11 o
1 11 3 12.12 12.14 0.14 o
-5 12 3 10.06 10.06 0.12 o
-4 12 3 8.31 8.11 0.11 o
-3 12 3 15.79 15.54 0.16 o
-2 12 3 23.18 23.21 0.24 o
-1 12 3 9.40 9.16 0.12 o
0 12 3 8.04 8.57 0.12 o
-6 13 3 7.83 7.89 0.11 o
-5 13 3 15.31 15.52 0.16 o
-4 13 3 9.35 9.70 0.12 o
-3 13 3 8.98 8.91 0.12 o
-2 13 3 11.04 11.15 0.31 o
0 0 4 62.74 64.41 0.63 o
0 1 4 27.55 27.68 0.28 o
1 1 4 35.45 35.68 0.36 o
-1 2 4 26.76 26.70 0.27 o
0 2 4 22.20 22.47 0.22 o
1 2 4 23.44 23.86 0.24 o
2 2 4 51.41 51.50 0.52 o
-1 3 4 19.76 20.15 0.20 o
0 3 4 49.01 49.63 0.49 o
1 3 4 16.37 16.54 0.17 o
2 3 4 16.56 16.93 0.17 o
3 3 4 16.85 16.81 0.18 o
-2 4 4 59.09 60.01 0.59 o
-1 4 4 29.54 29.99 0.30 o
0 4 4 27.91 28.23 0.28 o
1 4 4 19.63 19.66 0.20 o
2 4 4 17.78 18.09 0.18 o
3 4 4 31.82 31.58 0.32 o
4 4 4 32.98 32.91 0.33 o
-2 5 4 9.36 9.50 0.11 o
-1 5 4 27.74 27.50 0.28 o
0 5 4 42.75 43.44 0.43 o
1 5 4 16.16 16.18 0.17 o
2 5 4 25.30 25.20 0.26 o
3 5 4 24.57 24.73 0.25 o
4 5 4 13.56 13.33 0.15 o
5 5 4 5.88 5.81 0.16 o
-3 6 4 16.14 16.34 0.18 o
-2 6 4 13.50 13.57 0.14 o
-1 6 4 19.52 19.65 0.20 o
0 6 4 40.03 40.42 0.40 o
1 6 4 7.05 6.99 0.11 o
2 6 4 11.06 11.01 0.12 o
3 6 4 14.77 14.30 0.15 o
4 6 4 16.99 16.64 0.18 o
5 6 4 23.60 22.92 0.24 o
6 6 4 15.99 15.85 0.18 o
-3 7 4 24.98 24.60 0.25 o
-2 7 4 34.28 34.36 0.34 o
-1 7 4 12.06 12.02 0.13 o
0 7 4 19.49 19.10 0.20 o
1 7 4 16.49 16.44 0.17 o
2 7 4 32.53 31.74 0.33 o
3 7 4 22.92 22.09 0.23 o
4 7 4 14.35 13.81 0.15 o
5 7 4 14.82 14.68 0.16 o
6 7 4 10.13 9.96 0.13 o
-4 8 4 40.15 40.00 0.40 o
-3 8 4 14.90 14.47 0.16 o
-2 8 4 10.45 10.39 0.12 o
-1 8 4 11.08 11.02 0.13 o
0 8 4 10.62 10.49 0.12 o
1 8 4 17.39 16.83 0.18 o
2 8 4 20.02 19.31 0.20 o
3 8 4 13.65 13.14 0.15 o
4 8 4 13.66 13.63 0.15 o
5 8 4 11.11 11.27 0.13 o
-4 9 4 15.35 14.96 0.16 o
-3 9 4 19.98 19.32 0.20 o
-2 9 4 27.03 26.61 0.27 o
-1 9 4 15.35 14.95 0.16 o
0 9 4 11.54 10.98 0.13 o
1 9 4 15.67 15.21 0.16 o
2 9 4 7.93 7.78 0.12 o
3 9 4 19.50 19.68 0.20 o
4 9 4 18.28 19.80 0.28 o
-5 10 4 9.51 9.71 0.13 o
-4 10 4 18.58 18.10 0.19 o
-3 10 4 18.61 17.98 0.19 o
-2 10 4 23.56 23.00 0.24 o
-1 10 4 8.40 8.17 0.11 o
0 10 4 12.55 12.02 0.14 o
1 10 4 10.29 10.01 0.13 o
2 10 4 10.73 10.51 0.13 o
-5 11 4 18.85 18.08 0.19 o
-4 11 4 22.78 22.12 0.23 o
-3 11 4 10.58 10.24 0.13 o
-2 11 4 9.72 9.85 0.12 o
-1 11 4 19.78 19.44 0.20 o
0 11 4 17.96 18.52 0.19 o
1 11 4 8.94 8.65 0.34 o
-6 12 4 20.30 19.87 0.21 o
-5 12 4 10.60 10.56 0.12 o
-4 12 4 16.22 16.24 0.17 o
-3 12 4 11.18 11.03 0.13 o
-2 12 4 9.26 9.32 0.13 o
-1 12 4 5.70 6.31 0.28 o
-6 13 4 7.82 8.05 0.12 o
-5 13 4 18.35 19.53 0.19 o
-4 13 4 13.07 13.53 0.17 o
0 1 5 9.02 8.72 0.11 o
0 2 5 15.19 15.35 0.16 o
1 2 5 8.99 9.03 0.11 o
-1 3 5 8.39 8.53 0.11 o
0 3 5 16.75 16.65 0.17 o
1 3 5 5.50 5.71 0.11 o
2 3 5 24.22 24.38 0.24 o
-1 4 5 11.32 11.64 0.13 o
0 4 5 35.00 35.68 0.35 o
1 4 5 26.16 26.41 0.26 o
2 4 5 14.73 14.77 0.15 o
3 4 5 9.77 9.60 0.11 o
-2 5 5 24.22 24.31 0.25 o
-1 5 5 19.99 20.21 0.20 o
0 5 5 12.74 12.48 0.14 o
1 5 5 8.67 8.52 0.11 o
2 5 5 27.48 27.03 0.28 o
3 5 5 8.95 8.79 0.11 o
4 5 5 5.29 5.01 0.13 o
-2 6 5 10.01 9.94 0.12 o
-1 6 5 10.63 10.62 0.12 o
0 6 5 3.81 3.21 0.15 o
1 6 5 13.93 13.87 0.15 o
2 6 5 11.24 11.14 0.12 o
3 6 5 19.97 19.48 0.20 o
4 6 5 13.14 12.78 0.14 o
5 6 5 11.75 11.44 0.14 o
-3 7 5 10.90 11.03 0.12 o
-2 7 5 32.79 32.36 0.33 o
-1 7 5 10.48 10.52 0.12 o
0 7 5 5.19 5.16 0.13 o
1 7 5 5.12 4.94 0.13 o
2 7 5 10.96 10.58 0.12 o
3 7 5 14.64 14.39 0.16 o
4 7 5 9.17 9.23 0.12 o
5 7 5 11.22 11.52 0.14 o
-3 8 5 11.67 11.46 0.13 o
-2 8 5 10.70 10.37 0.12 o
-1 8 5 4.55 4.44 0.14 o
0 8 5 15.59 14.98 0.16 o
1 8 5 14.37 14.07 0.15 o
2 8 5 12.77 12.30 0.14 o
3 8 5 9.57 9.48 0.13 o
4 8 5 14.88 15.51 0.16 o
-4 9 5 8.32 8.08 0.11 o
-3 9 5 14.09 13.61 0.15 o
-2 9 5 15.20 14.67 0.16 o
-1 9 5 17.28 16.81 0.18 o
0 9 5 20.30 19.70 0.21 o
1 9 5 17.67 17.39 0.18 o
2 9 5 4.82 4.83 0.15 o
-4 10 5 9.57 9.27 0.12 o
-3 10 5 14.28 14.66 0.15 o
-2 10 5 15.18 15.22 0.16 o
-1 10 5 17.62 16.96 0.18 o
0 10 5 14.28 14.18 0.15 o
1 10 5 5.10 5.15 0.15 o
-5 11 5 9.56 9.32 0.12 o
-4 11 5 7.56 7.66 0.11 o
-3 11 5 5.91 6.01 0.13 o
-2 11 5 5.74 5.79 0.13 o
-1 11 5 5.09 5.33 0.15 o
-5 12 5 18.05 18.60 0.19 o
-4 12 5 11.39 11.84 0.13 o
0 0 6 87.66 89.64 0.88 o
0 1 6 18.23 18.33 0.19 o
1 1 6 17.14 17.61 0.18 o
-1 2 6 22.14 22.45 0.23 o
0 2 6 16.14 15.90 0.17 o
1 2 6 13.10 13.13 0.14 o
2 2 6 43.14 43.12 0.43 o
-1 3 6 15.80 15.92 0.16 o
0 3 6 24.30 24.18 0.25 o
1 3 6 12.76 12.66 0.14 o
2 3 6 26.64 26.36 0.27 o
3 3 6 18.04 17.45 0.19 o
-2 4 6 48.59 48.53 0.49 o
-1 4 6 7.04 7.07 0.11 o
0 4 6 14.28 14.31 0.15 o
1 4 6 18.37 18.08 0.19 o
2 4 6 13.83 13.64 0.15 o
3 4 6 9.16 9.03 0.11 o
4 4 6 33.68 32.74 0.34 o
-2 5 6 27.39 26.91 0.28 o
-1 5 6 11.08 10.82 0.13 o
0 5 6 13.74 13.54 0.15 o
1 5 6 8.47 8.45 0.11 o
2 5 6 17.91 17.29 0.18 o
3 5 6 8.64 8.25 0.12 o
4 5 6 15.74 15.19 0.16 o
5 5 6 20.79 19.74 0.22 o
-3 6 6 10.35 9.93 0.14 o
-2 6 6 18.78 18.50 0.19 o
-1 6 6 8.02 8.04 0.11 o
0 6 6 26.73 25.74 0.27 o
1 6 6 8.32 8.22 0.11 o
2 6 6 10.85 10.61 0.12 o
3 6 6 19.03 18.48 0.19 o
4 6 6 17.47 17.21 0.18 o
5 6 6 7.35 7.63 0.13 o
-3 7 6 14.15 13.70 0.15 o
-2 7 6 16.22 15.80 0.17 o
-1 7 6 11.64 11.38 0.13 o
0 7 6 20.25 19.58 0.21 o
1 7 6 13.68 13.37 0.15 o
2 7 6 10.50 10.42 0.12 o
3 7 6 6.34 6.42 0.12 o
4 7 6 15.08 15.31 0.18 o
-4 8 6 28.21 26.72 0.29 o
-3 8 6 7.01 7.02 0.11 o
-2 8 6 15.32 15.12 0.16 o
-1 8 6 9.54 9.17 0.12 o
0 8 6 23.39 23.00 0.24 o
1 8 6 9.66 9.42 0.12 o
2 8 6 19.07 19.29 0.20 o
-4 9 6 20.19 19.79 0.21 o
-3 9 6 11.49 11.41 0.13 o
-2 9 6 12.19 12.31 0.13 o
-1 9 6 6.50 6.52 0.11 o
0 9 6 13.54 13.77 0.15 o
1 9 6 8.82 8.92 0.12 o
-5 10 6 13.87 13.91 0.16 o
-4 10 6 17.67 18.06 0.19 o
-3 10 6 10.65 10.95 0.13 o
-2 10 6 18.50 19.05 0.19 o
-1 10 6 5.74 5.84 0.13 o
-5 11 6 11.13 11.74 0.13 o
-4 11 6 10.09 10.92 0.13 o
0 1 7 8.35 8.25 0.11 o
0 2 7 5.69 5.34 0.11 o
1 2 7 15.64 15.51 0.16 o
-1 3 7 16.03 15.90 0.17 o
0 3 7 11.17 11.25 0.13 o
1 3 7 9.26 8.90 0.12 o
2 3 7 17.50 17.19 0.18 o
-1 4 7 12.24 11.97 0.14 o
0 4 7 15.56 15.03 0.16 o
1 4 7 11.00 10.70 0.12 o
2 4 7 9.26 9.14 0.11 o
3 4 7 17.64 17.56 0.18 o
-2 5 7 15.23 14.83 0.16 o
-1 5 7 15.09 14.55 0.16 o
0 5 7 23.21 23.00 0.24 o
1 5 7 13.66 13.43 0.15 o
2 5 7 15.34 14.83 0.16 o
3 5 7 8.08 7.81 0.12 o
4 5 7 9.82 10.17 0.12 o
-2 6 7 9.00 8.87 0.12 o
-1 6 7 14.82 14.48 0.16 o
0 6 7 3.02 2.56 0.23 o
1 6 7 3.44 2.97 0.19 o
2 6 7 5.74 5.63 0.13 o
3 6 7 10.13 10.06 0.13 o
-3 7 7 16.38 16.62 0.17 o
-2 7 7 18.54 18.18 0.19 o
-1 7 7 4.95 4.86 0.15 o
0 7 7 12.34 12.13 0.14 o
1 7 7 8.30 8.14 0.12 o
2 7 7 14.50 14.69 0.16 o
-3 8 7 6.97 7.09 0.12 o
-2 8 7 3.94 3.96 0.17 o
-1 8 7 6.95 7.17 0.12 o
0 8 7 11.37 11.65 0.13 o
-4 9 7 9.18 9.45 0.12 o
-3 9 7 14.76 15.13 0.16 o
-2 9 7 8.93 9.42 0.12 o
0 0 8 4.74 4.35 0.35 o
0 1 8 10.37 10.10 0.12 o
1 1 8 15.92 15.56 0.17 o
-1 2 8 14.58 14.40 0.16 o
0 2 8 27.43 27.08 0.28 o
1 2 8 12.70 12.21 0.14 o
2 2 8 5.83 5.47 0.18 o
-1 3 8 16.28 16.26 0.17 o
0 3 8 4.04 3.67 0.15 o
1 3 8 7.92 7.84 0.12 o
2 3 8 4.91 4.44 0.13 o
3 3 8 21.62 21.56 0.22 o
-2 4 8 7.21 7.06 0.16 o
-1 4 8 9.65 9.78 0.12 o
0 4 8 23.10 22.86 0.24 o
1 4 8 13.89 13.98 0.15 o
2 4 8 13.41 13.47 0.15 o
3 4 8 14.82 15.73 0.16 o
-2 5 8 6.18 6.17 0.13 o
-1 5 8 15.15 15.04 0.16 o
0 5 8 23.28 23.53 0.24 o
1 5 8 6.31 6.17 0.13 o
-3 6 8 17.59 17.84 0.19 o
-2 6 8 11.69 12.36 0.13 o
-1 6 8 6.24 6.30 0.13 o
0 6 8 9.63 9.63 0.12 o
-3 7 8 13.53 14.37 0.15 o
0 1 9 13.83 14.57 0.15 o
0 2 9 13.34 14.66 0.16 o
