#------------------------------------------------------------------------------
#$Date: 2016-02-16 18:55:33 +0200 (Tue, 16 Feb 2016) $
#$Revision: 176466 $
#$URL: svn://www.crystallography.net/cod/cif/8/10/34/8103434.cif $
#------------------------------------------------------------------------------
#
# This file is available in the Crystallography Open Database (COD),
# http://www.crystallography.net/
#
# All data on this site have been placed in the public domain by the
# contributors.
#
data_8103434
loop_
_publ_author_name
'Pani, M.'
'Merlo, F.'
'Fornasini, M.L.'
_publ_section_title
;
 New phases in the Yb - Au - Si and Ca - Au - Si systems
;
_journal_name_full
'Zeitschrift fuer Kristallographie (149,1979-)'
_journal_page_first              108
_journal_page_last               110
_journal_volume                  214
_journal_year                    1999
_chemical_formula_sum            'Au0.64 Ca Si1.36'
_chemical_name_systematic        'Ca Au0.64 Si1.36'
_space_group_IT_number           191
_symmetry_space_group_name_Hall  '-P 6 2'
_symmetry_space_group_name_H-M   'P 6/m m m'
_cell_angle_alpha                90
_cell_angle_beta                 90
_cell_angle_gamma                120
_cell_formula_units_Z            1
_cell_length_a                   4.151
_cell_length_b                   4.151
_cell_length_c                   4.28
_cell_volume                     63.867
_citation_journal_id_ASTM        ZEKRDZ
_cod_data_source_file            gold_42.cif
_cod_data_source_block           Au0.64Ca1Si1.36
_cod_original_cell_volume        63.8675
_cod_original_formula_sum        'Au0.64 Ca1 Si1.36'
_cod_database_code               8103434
loop_
_symmetry_equiv_pos_as_xyz
x,y,z
x-y,x,z
-y,x-y,z
-x,-y,z
-x+y,-x,z
y,-x+y,z
-y,-x,-z
x-y,-y,-z
x,x-y,-z
y,x,-z
-x+y,y,-z
-x,-x+y,-z
-x,-y,-z
-x+y,-x,-z
y,-x+y,-z
x,y,-z
x-y,x,-z
-y,x-y,-z
y,x,z
-x+y,y,z
-x,-x+y,z
-y,-x,z
x-y,-y,z
x,x-y,z
loop_
_atom_site_label
_atom_site_type_symbol
_atom_site_fract_x
_atom_site_fract_y
_atom_site_fract_z
_atom_site_occupancy
_atom_site_U_iso_or_equiv
Ca1 Ca 0 0 0 1 0.0
Au1 Au 0.3333 0.6667 0.5 0.322 0.0
Si1 Si 0.3333 0.6667 0.5 0.678 0.0
