#------------------------------------------------------------------------------
#$Date: 2016-02-16 18:55:33 +0200 (Tue, 16 Feb 2016) $
#$Revision: 176466 $
#$URL: svn://www.crystallography.net/cod/cif/8/10/34/8103432.cif $
#------------------------------------------------------------------------------
#
# This file is available in the Crystallography Open Database (COD),
# http://www.crystallography.net/
#
# All data on this site have been placed in the public domain by the
# contributors.
#
data_8103432
loop_
_publ_author_name
'Fornasini, M.L.'
'Merlo, F.'
'Pani, M.'
_publ_section_title
;
 New phases in the Yb - Au - Si and Ca - Au - Si systems
;
_journal_name_full
'Zeitschrift fuer Kristallographie (149,1979-)'
_journal_page_first              108
_journal_page_last               110
_journal_volume                  214
_journal_year                    1999
_chemical_formula_sum            'Au1.208 Ca Si0.792'
_chemical_name_systematic        'Ca Au1.208 Si0.792'
_space_group_IT_number           44
_symmetry_space_group_name_Hall  'I 2 -2'
_symmetry_space_group_name_H-M   'I m m 2'
_cell_angle_alpha                90
_cell_angle_beta                 90
_cell_angle_gamma                90
_cell_formula_units_Z            4
_cell_length_a                   4.454
_cell_length_b                   7.139
_cell_length_c                   7.667
_cell_volume                     243.788
_citation_journal_id_ASTM        ZEKRDZ
_cod_data_source_file            gold_411.cif
_cod_data_source_block           Au1.208Ca1Si0.792
_cod_original_cell_volume        243.7884
_cod_original_formula_sum        'Au1.208 Ca1 Si0.792'
_cod_database_code               8103432
loop_
_symmetry_equiv_pos_as_xyz
x,y,z
-x,-y,z
-x,y,z
x,-y,z
x+1/2,y+1/2,z+1/2
-x+1/2,-y+1/2,z+1/2
-x+1/2,y+1/2,z+1/2
x+1/2,-y+1/2,z+1/2
loop_
_atom_site_label
_atom_site_type_symbol
_atom_site_fract_x
_atom_site_fract_y
_atom_site_fract_z
_atom_site_occupancy
_atom_site_U_iso_or_equiv
Au1 Au 0 0.2152 0.004 1 0.0
Si1 Si 0 0.3149 0.3352 0.792 0.0
Au2 Au 0 0.3149 0.3352 0.208 0.0
Ca1 Ca 0 0 0.626 1 0.0
Ca2 Ca 0 0.5 0.713 1 0.0
