#------------------------------------------------------------------------------
#$Date: 2015-07-12 19:53:33 +0300 (Sun, 12 Jul 2015) $
#$Revision: 147648 $
#$URL: svn://www.crystallography.net/cod/cif/8/10/36/8103626.cif $
#------------------------------------------------------------------------------
#
# This file is available in the Crystallography Open Database (COD),
# http://www.crystallography.net/
#
# All data on this site have been placed in the public domain by the
# contributors.
#
data_8103626
loop_
_publ_author_name
'Sassmannshausen, M.'
'Lutz, H.D.'
_publ_section_title
;
 Thermal motion of the univalent metal ions in (K Cr5 S8)-type
 chalcogenides, ternary chromium selenides Mx Cr5 Se8 (M = Rb, Cs)
;
_journal_name_full
'Zeitschrift fuer Kristallographie (149,1979-)'
_journal_page_first              683
_journal_page_last               687
_journal_volume                  215
_journal_year                    2000
_chemical_formula_sum            'Cr5 Rb0.75 Se8'
_chemical_name_systematic        'Rb0.75 Cr5 Se8'
_space_group_IT_number           12
_symmetry_space_group_name_Hall  '-C 2y'
_symmetry_space_group_name_H-M   'C 1 2/m 1'
_cell_angle_alpha                90
_cell_angle_beta                 104.23
_cell_angle_gamma                90
_cell_formula_units_Z            2
_cell_length_a                   18.77
_cell_length_b                   3.612
_cell_length_c                   9.021
_cell_volume                     592.833
_citation_journal_id_ASTM        ZEKRDZ
_cod_data_source_file            Sassmannshausen_ZEKRDZ_2000_823.cif
_cod_data_source_block           Cr5Rb0.75Se8
_cod_original_cell_volume        592.8331
_cod_database_code               8103626
loop_
_symmetry_equiv_pos_as_xyz
x,y,z
-x,y,-z
-x,-y,-z
x,-y,z
x+1/2,y+1/2,z
-x+1/2,y+1/2,-z
-x+1/2,-y+1/2,-z
x+1/2,-y+1/2,z
loop_
_atom_site_label
_atom_site_type_symbol
_atom_site_fract_x
_atom_site_fract_y
_atom_site_fract_z
_atom_site_occupancy
_atom_site_U_iso_or_equiv
Rb1 Rb+1 0 0.5 0.5 0.75 0.0
Cr3 Cr+3 0.2949 0 0.6642 1 0.0
Se2 Se-1 0.08741 0 0.8272 1 0.0
Cr2 Cr+3 0.34188 0 0.0138 1 0.0
Cr1 Cr+3 0 0 0 1 0.0
Se3 Se-1 0.16919 0 0.4938 1 0.0
Se1 Se-1 0.57365 0 0.1616 1 0.0
Se4 Se-1 0.24026 0 0.1585 1 0.0
