#------------------------------------------------------------------------------
#$Date: 2022-03-04 11:56:04 +0200 (Fri, 04 Mar 2022) $
#$Revision: 273328 $
#$URL: file:///home/coder/svn-repositories/cod/cif/8/10/46/8104627.cif $
#------------------------------------------------------------------------------
#
# This file is available in the Crystallography Open Database (COD),
# http://www.crystallography.net/
#
# All data on this site have been placed in the public domain by the
# contributors.
#
data_8104627
loop_
_publ_author_name
'Aiqing, Chen'
'Lixue, Zhang'
_publ_section_title
;
 Crystal structure of Al-rich fluorophlogopite,
 K1.0(Mg2.8Al0.2)(Si2.8Al1.2)O10F2
;
_journal_issue                   5
_journal_name_full
'Zeitschrift f\"ur Kristallographie - New Crystal Structures'
_journal_page_first              931
_journal_page_last               933
_journal_paper_doi               10.1515/ncrs-2021-0157
_journal_volume                  236
_journal_year                    2021
_chemical_formula_moiety         '0.5(Al2.8 F4 K2 Mg5.6 O20 Si5.6)'
_chemical_formula_sum            'Al1.4 F2 K Mg2.8 O10 Si2.8'
_chemical_formula_weight         421.59
_chemical_melting_point          1375
_chemical_name_systematic        fluorophlogopite
_space_group_crystal_system      monoclinic
_space_group_IT_number           12
_space_group_name_Hall           '-C 2y'
_space_group_name_H-M_alt        'C 1 2/m 1'
_atom_sites_solution_hydrogens   .
_atom_sites_solution_primary     dual
_cell_angle_alpha                90
_cell_angle_beta                 100.173(3)
_cell_angle_gamma                90
_cell_formula_units_Z            2
_cell_length_a                   5.3040(11)
_cell_length_b                   9.2288(18)
_cell_length_c                   10.1286(20)
_cell_measurement_reflns_used    1867
_cell_measurement_temperature    298(2)
_cell_measurement_theta_max      33.132
_cell_measurement_theta_min      2.043
_cell_volume                     488.00(17)
_computing_molecular_graphics    'Olex2 (Dolomanov et al., 2009)'
_computing_publication_material  'Olex2 (Dolomanov et al., 2009)'
_computing_structure_refinement  'ShelXL (Sheldrick, 2015)'
_computing_structure_solution    'ShelXT (Sheldrick, 2015)'
_diffrn_ambient_temperature      298(2)
_diffrn_measured_fraction_theta_full 1.000
_diffrn_measured_fraction_theta_max 0.918
_diffrn_measurement_device_type  XtaLAB
_diffrn_measurement_method       'phi and omega scans'
_diffrn_radiation_monochromator  graphite
_diffrn_radiation_type           MoK\a
_diffrn_radiation_wavelength     0.71073
_diffrn_reflns_av_R_equivalents  0.0168
_diffrn_reflns_av_unetI/netI     0.0184
_diffrn_reflns_Laue_measured_fraction_full 1.000
_diffrn_reflns_Laue_measured_fraction_max 0.918
_diffrn_reflns_limit_h_max       8
_diffrn_reflns_limit_h_min       -8
_diffrn_reflns_limit_k_max       10
_diffrn_reflns_limit_k_min       -13
_diffrn_reflns_limit_l_max       12
_diffrn_reflns_limit_l_min       -15
_diffrn_reflns_number            2246
_diffrn_reflns_point_group_measured_fraction_full 1.000
_diffrn_reflns_point_group_measured_fraction_max 0.918
_diffrn_reflns_theta_full        25.242
_diffrn_reflns_theta_max         33.652
_diffrn_reflns_theta_min         2.043
_exptl_absorpt_coefficient_mu    1.282
_exptl_absorpt_correction_T_max  1.00
_exptl_absorpt_correction_T_min  0.6002
_exptl_absorpt_correction_type   multi-scan
_exptl_absorpt_process_details
;
CrysAlisPro 1.171.39.27b (Rigaku Oxford Diffraction, 2015)
Empirical absorption correction using spherical harmonics,
 implemented in SCALE3 ABSPACK scaling algorithm.
;
_exptl_crystal_colour            'clear light colourless'
_exptl_crystal_colour_lustre     glass
_exptl_crystal_colour_modifier   light
_exptl_crystal_colour_primary    colourless
_exptl_crystal_density_diffrn    2.869
_exptl_crystal_description       flake
_exptl_crystal_F_000             416
_exptl_crystal_preparation       'small piece of crystal was cut by knife'
_exptl_crystal_recrystallization_method 'colourless and flake crystal'
_exptl_crystal_size_max          0.1
_exptl_crystal_size_mid          0.1
_exptl_crystal_size_min          0.05
_refine_diff_density_max         0.870
_refine_diff_density_min         -0.491
_refine_diff_density_rms         0.144
_refine_ls_extinction_coef       .
_refine_ls_extinction_method     none
_refine_ls_goodness_of_fit_ref   1.186
_refine_ls_hydrogen_treatment    undef
_refine_ls_matrix_type           full
_refine_ls_number_parameters     53
_refine_ls_number_reflns         940
_refine_ls_number_restraints     0
_refine_ls_restrained_S_all      1.186
_refine_ls_R_factor_all          0.0423
_refine_ls_R_factor_gt           0.0387
_refine_ls_shift/su_max          0.000
_refine_ls_shift/su_mean         0.000
_refine_ls_structure_factor_coef Fsqd
_refine_ls_weighting_details
'w=1/[\s^2^(Fo^2^)+(0.0590P)^2^+0.7340P] where P=(Fo^2^+2Fc^2^)/3'
_refine_ls_weighting_scheme      calc
_refine_ls_wR_factor_gt          0.1067
_refine_ls_wR_factor_ref         0.1086
_reflns_Friedel_coverage         0.000
_reflns_Friedel_fraction_full    .
_reflns_Friedel_fraction_max     .
_reflns_number_gt                874
_reflns_number_total             940
_reflns_threshold_expression     'I > 2\s(I)'
_cod_data_source_file            suppl_j_ncrs-2021-0157_suppl.cif
_cod_data_source_block           y
_cod_original_formula_sum        'Al1.40 F2 K Mg2.80 O10 Si2.80'
_cod_database_code               8104627
_shelx_space_group_comment
;
The symmetry employed for this shelxl refinement is uniquely defined
by the following loop, which should always be used as a source of
symmetry information in preference to the above space-group names.
They are only intended as comments.
;
_olex2_refinement_description
;
1. Shared sites
{Si1, Al1}
{Mg2, Al3}
{Mg1, Al2}
2. Uiso/Uaniso restraints and constraints
Uanis(Si1) = Uanis(Al1)
Uanis(Mg2) = Uanis(Al3)
Uanis(Mg1) = Uanis(Al2)
3. Others
 Fixed Sof: Si1(0.7) Al1(0.3) Mg2(0.467) Al3(0.033) Mg1(0.2335) Al2(0.0165)
;
_shelx_res_file
;
TITL y_a.res in C2/m
    y.res
    created by SHELXL-2016/6 at 16:08:00 on 23-Apr-2021
REM Old TITL y_a.res in C2/m
REM SHELXT solution in C2/m
REM R1 0.056, Rweak 0.004, Alpha 0.026, Orientation as input
REM Formula found by SHELXT: K Mg3 O12 Si4
CELL 0.71073 5.304 9.2288 10.1286 90 100.173 90
ZERR 2 0.0011 0.0018 0.002 0 0.03 0
LATT 7
SYMM -X,+Y,-Z
SFAC Al F K Mg O Si
UNIT 2.8 4 2 5.6 20 5.6
EADP Si1 Al1
EADP Mg2 Al3
EADP Mg1 Al2
EXYZ Si1 Al1
EXYZ Mg2 Al3
EXYZ Mg1 Al2

L.S. 4
PLAN  20
TEMP 25(2)
list 4
fmap 2
acta
REM <olex2.extras>
REM <HklSrc "%.\\y.hkl">
REM </olex2.extras>

WGHT    0.059000    0.734000
FVAR       0.59854
K1    3    1.000000    0.000000    0.000000    10.25000    0.02832    0.02959 =
         0.02826    0.00000    0.00493    0.00000
F1    2    0.367221    0.500000    0.596526    10.50000    0.00936    0.01319 =
         0.01391    0.00000    0.00180    0.00000
O1    5    0.511925    0.000000    0.167303    10.50000    0.01888    0.01166 =
         0.01708    0.00000   -0.00016    0.00000
O2    5    0.828223    0.228119    0.167270    11.00000    0.01368    0.01973 =
         0.01575   -0.00270    0.00261   -0.00495
O3    5    0.631285    0.166554    0.391906    11.00000    0.00827    0.00871 =
         0.01241   -0.00025    0.00162   -0.00021
PART 1
SI1   6    0.575526    0.166647    0.224608    10.70000    0.00545    0.00634 =
         0.00996   -0.00030    0.00113    0.00001
PART 0
PART 2
AL1   1    0.575526    0.166647    0.224608    10.30000    0.00545    0.00634 =
         0.00996   -0.00030    0.00113    0.00001
PART 0
PART 3
MG2   4    0.500000    0.330293    0.500000    10.46700    0.00556    0.00662 =
         0.01301    0.00000    0.00164    0.00000
PART 0
PART 4
AL3   1    0.500000    0.330293    0.500000    10.03300    0.00556    0.00662 =
         0.01301    0.00000    0.00164    0.00000
PART 0
PART 5
MG1   4    0.000000    0.500000    0.500000    10.23350    0.00642    0.00645 =
         0.01404    0.00000    0.00202    0.00000
PART 0
PART 6
AL2   1    0.000000    0.500000    0.500000    10.01650    0.00642    0.00645 =
         0.01404    0.00000    0.00202    0.00000
HKLF 4




REM  y_a.res in C2/m
REM R1 =  0.0387 for     874 Fo > 4sig(Fo)  and  0.0423 for all     940 data
REM     53 parameters refined using      0 restraints

END

WGHT      0.0585      0.7343

REM Highest difference peak  0.870,  deepest hole -0.491,  1-sigma level  0.144
Q1    1   0.5923  0.1743  0.3078  11.00000  0.05    0.87
Q2    1   0.0259  0.5000  0.5632  10.50000  0.05    0.58
Q3    1   0.5575 -0.0700  0.2102  11.00000  0.05    0.58
Q4    1   1.0104  0.0000 -0.0837  10.50000  0.05    0.52
Q5    1   0.4914  0.3377  0.4376  11.00000  0.05    0.51
Q6    1   0.3767  0.5000  0.5122  10.50000  0.05    0.50
Q7    1   0.5644  0.1739  0.1544  11.00000  0.05    0.49
Q8    1   1.0607  0.0000  0.1741  10.50000  0.05    0.48
Q9    1   0.5423  0.1703  0.3849  11.00000  0.05    0.44
Q10   1   0.5405  0.0000  0.2618  10.50000  0.05    0.40
Q11   1   0.5917  0.1323  0.3855  11.00000  0.05    0.40
Q12   1   0.3870  0.5000  0.6455  10.50000  0.05    0.40
Q13   1   0.5826  0.2401  0.4186  11.00000  0.05    0.40
Q14   1   1.0396  0.0845  0.0391  11.00000  0.05    0.40
Q15   1   0.5237  0.2375  0.2020  11.00000  0.05    0.40
Q16   1   0.3910  0.5000  0.7164  10.50000  0.05    0.39
Q17   1   0.4941 -0.0478  0.1144  11.00000  0.05    0.39
Q18   1   0.6097  0.0000  0.1669  10.50000  0.05    0.38
Q19   1   0.8647  0.1820  0.1165  11.00000  0.05    0.38
Q20   1   0.4182  0.0000  0.2327  10.50000  0.05    0.35
;
_shelx_hkl_file
;
   0   0  -1  757.95    4.11
   0   0   1  769.46    4.17
   0   0  -2   72.10    1.89
   0   0   2   77.25    2.20
   0   0  -3 4423.23   16.77
   0   0   3 4476.48   16.88
   0   0  -4  560.77    6.98
   0   0   4  573.16    7.18
   0   0  -5 4482.24   21.72
   0   0  -6  440.89    7.82
   0   0  -7  822.28   11.37
   0   0  -8 1183.74   14.68
   0   0  -9  153.00    6.16
   0   0 -10  734.45   13.02
   0   0 -11  833.20   14.50
   0   0 -12  278.48    9.11
   0   0 -13  299.92    9.95
   0   0 -14   66.39    5.30
   0   0 -15  158.41    8.27
   0  -2   0  607.74    5.22
   0  -2   0  602.86    3.99
   0  -2  -1   21.90    1.31
   0  -2   1   20.35    1.12
   0   2  -1   23.85    1.04
   0  -2  -1   22.38    1.03
   0  -2   1   19.81    1.43
   0   2  -2 2649.96   11.05
   0  -2  -2 2653.76   11.76
   0  -2  -2 2644.87   10.99
   0  -2   2 2659.72   12.09
   0  -2   2 2653.97   11.23
   0  -2   3 1390.02    9.39
   0  -2   3 1392.17    9.71
   0   2  -3 1407.18    9.60
   0  -2  -3 1370.19    9.27
   0  -2  -3 1360.69    9.29
   0  -2  -4    2.36    0.83
   0   2  -4    5.36    1.16
   0  -2   4    4.36    1.93
   0  -2   4    3.52    1.32
   0  -2  -4    3.97    1.10
   0  -2  -5   17.82    1.74
   0  -2   5   19.38    2.76
   0  -2   5   19.95    1.86
   0   2  -5   19.28    1.94
   0  -2  -5   18.40    1.49
   0  -2  -6   54.63    2.88
   0  -2   6   51.46    3.85
   0  -2  -6   53.32    2.61
   0   2  -6   61.24    3.22
   0  -2  -7  554.86    9.24
   0  -2  -7  530.37    8.31
   0  -2  -8    9.30    1.68
   0  -2   8    6.59    3.52
   0  -2  -8    8.29    2.20
   0   2  -8    8.30    2.08
   0  -2  -9    2.32    1.40
   0  -2  -9    3.01    1.65
   0   2  -9    2.35    2.09
   0  -2 -10   60.38    4.11
   0   2 -10   57.83    4.15
   0  -2 -11  105.66    5.64
   0   2 -11  128.53    6.34
   0  -2 -12   43.11    3.95
   0   2 -12   57.50    4.66
   0   2 -13   49.01    4.73
   0   2 -14    5.37    2.92
   0  -2 -14    6.53    2.18
   0  -4   0  994.27    7.34
   0  -4   0 1002.95    9.80
   0  -4   1  572.94    7.68
   0  -4   1  565.94    5.65
   0  -4  -1  545.30    7.15
   0  -4  -1  563.22    5.78
   0   4  -2  417.86    5.23
   0  -4  -2  414.47    5.34
   0  -4   2  429.75    6.80
   0  -4   2  421.14    5.47
   0  -4  -2  402.29    6.30
   0  -4   3   92.98    3.05
   0  -4  -3   98.42    2.89
   0  -4   3  104.09    3.82
   0   4  -3  100.31    2.87
   0  -4  -3  103.16    3.48
   0  -4   4  221.39    5.04
   0  -4  -4  214.11    5.12
   0   4  -4  221.32    4.77
   0  -4   4  220.93    5.51
   0  -4  -4  210.91    4.65
   0  -4   5   79.59    3.95
   0  -4  -5   78.56    3.36
   0  -4  -5   72.33    3.18
   0   4  -5   76.97    3.22
   0  -4   5   74.09    3.61
   0  -4  -6 1030.96   12.08
   0  -4   6 1073.88   12.37
   0  -4  -6 1082.80   12.36
   0   4  -6 1060.84   12.72
   0  -4   6 1061.28   12.77
   0   4  -7  924.15   13.38
   0  -4   7  935.34   12.07
   0  -4  -7  924.66   11.73
   0  -4   7  888.63   13.43
   0  -4  -7  902.45   12.37
   0   4  -8   34.56    3.28
   0  -4  -8   33.17    2.67
   0  -4  -8   32.23    2.99
   0  -4   8   33.88    4.10
   0  -4   8   37.28    3.25
   0   4  -9  279.79    8.12
   0  -4  -9  263.84    6.84
   0  -4  -9  256.76    7.67
   0   4 -10    5.55    2.24
   0  -4 -10    4.71    2.13
   0  -4 -11  232.55    8.40
   0   4 -11  251.41    8.66
   0  -4 -12  283.31    9.70
   0   4 -12  279.79    9.53
   0  -4 -13   19.59    3.32
   0   4 -14   10.10    3.11
   0  -4 -14   13.96    2.97
   0  -6   0 9977.41   27.87
   0  -6   0 9999.00   38.53
   0  -6  -1 1055.60   12.63
   0  -6   1 1019.01   12.81
   0  -6  -1 1044.98    9.15
   0  -6  -2   47.47    3.32
   0  -6   2   49.99    3.82
   0  -6  -2   49.38    2.40
   0   6  -2   47.92    2.24
   0  -6   2   53.61    2.60
   0  -6  -3  335.52    5.89
   0  -6   3  334.05    6.05
   0  -6   3  331.60    7.66
   0   6  -3  322.43    5.70
   0  -6   4 1404.32   13.08
   0  -6  -4 1401.70   12.89
   0   6  -4 1405.44   12.62
   0  -6  -4 1399.97   15.41
   0  -6   4 1422.30   15.77
   0  -6   5  762.52   10.71
   0  -6  -5  759.85   10.02
   0   6  -5  741.75    9.99
   0  -6  -5  751.55   11.33
   0  -6   5  759.42   12.03
   0  -6   6   29.63    3.57
   0  -6  -6   27.76    2.82
   0  -6  -6   32.42    2.79
   0   6  -6   30.33    2.49
   0  -6   6   30.11    3.62
   0  -6   7  998.26   13.97
   0  -6  -7 1000.73   13.23
   0  -6   7  966.32   14.08
   0  -6  -8 1065.15   14.80
   0  -6   8 1004.06   15.63
   0   6  -8 1103.49   15.70
   0  -6  -8 1039.48   14.73
   0  -6   8 1061.05   14.95
   0  -6  -9   17.90    2.52
   0  -6   9   20.20    4.12
   0   6  -9   14.61    2.44
   0  -6   9   18.61    3.26
   0  -6  -9   11.25    2.09
   0  -6  10  653.61   13.31
   0  -6 -10  611.75   13.07
   0   6 -10  636.85   13.04
   0   6 -11  821.64   15.80
   0  -6 -11  753.79   15.36
   0   6 -12   39.65    4.31
   0  -6 -12   25.12    3.63
   0   6 -13  150.75    7.97
   0  -6 -13  116.02    6.83
   0  -6 -14   89.24    6.24
   0  -8   0    6.77    3.47
   0  -8  -1   90.99    5.33
   0  -8   1   92.83    5.11
   0  -8   2  220.32    7.71
   0  -8  -2  232.13    7.64
   0  -8  -3   22.68    3.32
   0  -8   3   23.30    3.68
   0  -8  -4  111.83    5.44
   0  -8   4  114.12    5.90
   0  -8  -5    3.94    2.42
   0  -8   5    5.54    3.27
   0  -8   6  253.31    8.61
   0  -8  -6  244.27    8.19
   0  -8   7  437.03   11.00
   0  -8  -7  457.53   11.04
   0  -8   8   15.79    3.65
   0  -8  -8   21.34    3.44
   0  -8  -9   83.25    5.33
   0  -8   9   87.23    5.93
   0 -10   0    5.53    3.59
   0 -10   1    4.56    3.51
   0 -10  -1   13.97    3.73
   0 -10   2  237.00    8.94
   0 -10  -2  276.64    9.49
   0 -10  -3   27.84    4.23
   0 -10   3   23.90    4.45
   0 -10  -4   13.10    3.74
   0 -10   4   16.54    4.01
   0 -10   5   15.10    4.27
   0 -10  -5   15.12    3.76
   0 -10   6  161.63    8.15
   0 -10  -6  140.22    7.17
   0 -10   7  149.07    7.95
   0 -10  -7  168.65    8.01
   0 -10   8    5.22    4.10
   0 -10  -8    1.29    3.04
   0 -10   9   58.01    5.77
   0 -12   0 2137.56   28.68
   0 -12   1  113.75    7.60
   0 -12  -1  150.05    8.76
   0 -12  -2    3.17    4.02
   0 -12   2   15.62    4.90
   0 -12  -3  184.38    9.34
   0 -12   3  204.40    9.86
   0 -12   4  280.97   11.20
   0 -12  -4  258.65   11.00
   0 -12  -5  251.07   10.70
   0 -12   5  205.36   10.18
   0 -12   6    2.04    4.18
   0 -12  -6    8.85    4.35
   0 -12   7  254.74   11.12
   0 -12  -7  269.29   11.30
   0 -12  -8  275.74   11.69
   0 -12   8  267.64   11.52
   1  -1 -15   80.12    5.80
   1   1 -15   62.16    5.32
   1   1 -14   22.37    3.43
   1  -1 -14   23.14    3.43
   1  -1 -13   14.96    2.71
   1   1 -13   21.74    3.43
   1   1 -12  102.98    5.90
   1  -1 -12   98.08    5.55
   1  -1 -11   99.28    5.44
   1   1 -11   90.01    5.17
   1  -1 -10   25.34    2.95
   1   1 -10   33.07    3.30
   1  -1  -9   21.63    2.77
   1   1  -9   20.98    2.72
   1  -1  -8  135.52    5.16
   1   1  -8  135.57    5.62
   1  -1  -7  532.15    9.00
   1   1  -7  517.31    9.24
   1  -1  -6    4.23    1.75
   1   1  -6    0.51    1.15
   1   1  -5   13.77    1.58
   1  -1  -5   16.42    1.94
   1  -1  -4   98.17    2.91
   1   1  -4  103.01    3.07
   1   1  -3 2451.56   13.05
  -1  -1   3 2480.33   13.28
   1  -1  -3 2486.65   11.79
  -1  -1   2 1672.81    9.81
   1  -1  -2 1680.10    7.92
  -1   1   1  124.44    1.79
  -1  -1   1  128.48    2.56
  -1  -1   0  445.96    3.82
   1   1   0  434.76    3.10
  -1  -1   0  441.31    4.77
  -1   1   0  438.82    3.35
   1  -1   0  453.09    3.76
   1  -1   1  522.85    5.39
   1  -1   1  556.01    3.78
  -1  -1  -1  551.95    3.67
   1   1   1  550.46    4.76
  -1   1  -1  548.66    4.29
  -1  -1  -1  536.95    5.47
   1   1   2 3081.29   13.76
   1  -1   2 3068.63    8.69
  -1  -1  -2 3075.18   14.03
   1  -1   2 3083.44   14.47
  -1   1  -2 3109.13   12.32
  -1  -1  -2 3080.84    8.06
   1   1   3  529.92    7.02
  -1  -1  -3  521.21    6.50
   1  -1   3  511.39    6.96
   1  -1   3  514.39    3.89
  -1  -1  -3  512.81    3.65
  -1   1  -3  518.26    5.94
   1   1   4    5.81    2.30
  -1  -1  -4    7.03    0.74
  -1  -1  -4    6.33    1.33
  -1   1  -4    6.17    1.28
   1  -1   4    9.81    2.12
  -1   1  -5    6.02    1.41
   1   1   5   10.64    2.72
  -1  -1  -5    9.60    0.90
   1  -1   5    5.28    2.53
  -1  -1  -5   11.63    1.76
  -1  -1  -6  244.42    6.11
  -1   1  -6  226.68    5.57
   1   1   6  254.72    6.75
   1  -1   6  243.02    7.11
  -1  -1  -6  235.02    3.76
  -1   1  -7  353.00    7.51
   1  -1   7  339.66    9.07
  -1  -1  -7  312.38    4.86
  -1  -1  -7  327.14    7.63
   1  -1   8    8.04    3.97
  -1   1  -8    6.24    2.02
  -1  -1  -8    8.89    2.15
  -1  -1  -9    4.99    1.98
  -1   1  -9    8.29    2.33
  -1   1 -10   79.30    4.77
  -1  -1 -10   80.32    4.84
  -1  -1 -11  153.79    6.94
  -1   1 -11  144.96    6.72
  -1  -1 -12    6.52    2.55
  -1   1 -12    9.26    2.97
  -1  -1 -13   56.12    4.83
  -1   1 -13   46.61    4.95
  -1   1 -14   32.89    4.55
  -1  -1 -14   32.47    4.19
   1  -3 -15   98.82    6.64
   1   3 -14   29.81    4.20
   1  -3 -14   27.07    3.50
   1   3 -13  838.27   17.04
   1  -3 -13  837.25   16.49
   1  -3 -12  851.35   15.55
   1   3 -12  873.33   16.34
   1   3 -11    7.81    2.45
   1  -3 -11    8.71    1.57
   1  -3 -11    6.48    2.10
   1  -3 -10   89.52    4.63
   1   3 -10   76.36    4.87
   1  -3 -10   84.43    4.31
   1  -3  -9 1400.48   16.25
   1  -3  -9 1404.21   16.28
   1   3  -9 1409.37   18.46
   1  -3  -8   40.98    3.14
   1  -3  -8   45.64    3.14
   1  -3  -7  272.31    6.52
   1   3  -7  264.44    6.71
  -1  -3   7  262.84    6.72
   1  -3  -6  755.30    9.86
   1   3  -6  733.41   10.24
   1  -3  -6  730.30   10.19
  -1  -3   6  752.36   10.38
  -1  -3   5 5699.76   25.75
   1  -3  -5 5726.12   26.06
   1   3  -5 5697.85   25.66
  -1  -3   4  858.84    9.76
   1   3  -4  851.60    9.52
  -1  -3   4  860.04    7.96
   1  -3  -4  857.85    9.62
  -1  -3   3 3720.59   13.48
   1  -3  -3 3730.57   13.74
  -1  -3   3 3725.75   18.98
   1   3  -3 3694.24   18.49
   1  -3  -2 2984.87    9.38
  -1  -3   2 2970.09    9.00
  -1  -3   2 3000.48   16.31
   1  -3  -2 2999.86   16.02
  -1  -3   2 2989.87   15.37
  -1  -3   1 4858.21   19.77
  -1  -3   1 4881.40   19.12
   1  -3  -1 4870.47   19.34
   1  -3   0 1328.98    9.71
  -1  -3   0 1330.08    9.92
  -1  -3   0 1300.77    9.66
   1  -3   1  863.31    7.98
  -1  -3  -1  866.48    7.98
  -1   3  -1  883.28    4.77
  -1  -3  -1  862.88    8.43
  -1  -3  -2  388.78    5.32
   1  -3   2  393.00    6.12
  -1  -3  -2  402.75    6.06
   1  -3   2  403.19    5.53
  -1   3  -2  412.22    4.56
   1  -3   3 1646.02   11.13
  -1  -3  -3 1638.97   12.61
  -1  -3  -3 1677.01   10.75
   1  -3   3 1674.05   13.05
  -1   3  -4  762.98    8.50
  -1  -3  -4  769.77    7.55
   1  -3   4  758.34    8.01
  -1  -3  -4  754.41    9.30
   1  -3   4  769.18    9.94
  -1   3  -5 3942.11   21.24
  -1  -3  -5 3939.94   17.78
   1  -3   5 3938.42   18.67
   1  -3   5 3947.24   24.35
  -1  -3  -5 3973.75   23.33
  -1   3  -6 5179.28   26.62
   1  -3   6 5213.28   21.87
  -1  -3  -6 5206.73   28.85
   1  -3   6 5235.28   30.01
  -1  -3  -6 5225.04   21.61
   1  -3   7  272.82    5.62
  -1   3  -7  275.36    7.07
  -1  -3  -7  279.11    5.43
   1  -3   7  272.74    8.16
  -1  -3  -7  294.93    7.56
  -1   3  -8   23.06    2.75
  -1  -3  -8   18.56    2.69
   1  -3   9 1509.72   20.51
  -1  -3  -9 1462.73   18.79
  -1   3 -10   12.37    2.56
   1  -3  10   12.27    4.48
  -1  -3 -10   13.58    2.78
  -1   3 -11  214.00    7.86
  -1  -3 -11  209.01    8.17
   1  -3  11  206.28    8.97
  -1  -3 -12    1.26    2.19
  -1   3 -12    4.00    2.85
  -1   3 -13  450.91   12.63
  -1  -3 -13  482.57   13.62
  -1   3 -14   16.93    4.11
  -1  -3 -14   28.25    4.02
   1   5 -14   19.27    4.17
   1  -5 -14   33.95    4.06
   1   5 -13   31.24    4.29
   1  -5 -13   36.10    4.24
   1   5 -12   82.94    5.65
   1  -5 -12  119.78    6.30
   1  -5 -11  100.01    5.36
   1  -5 -11  116.52    5.71
   1   5 -11  110.69    6.17
   1  -5 -10   51.18    3.79
   1   5 -10   50.63    4.49
   1  -5 -10   57.36    4.05
  -1  -5   9   49.11    4.14
   1   5  -9   35.86    3.34
   1  -5  -9   29.84    3.04
   1  -5  -9   48.62    3.61
  -1  -5   8   36.78    3.75
   1   5  -8   30.43    2.94
   1  -5  -8   29.17    2.89
  -1  -5   7  203.81    6.60
   1  -5  -7  223.93    6.76
   1  -5  -7  208.09    5.75
  -1  -5   6   25.37    2.90
  -1  -5   6   25.92    3.40
   1  -5  -6   23.23    2.56
   1   5  -6   20.35    2.32
   1  -5  -6   25.00    2.31
   1  -5  -5    1.53    1.49
  -1  -5   5    0.99    2.19
  -1  -5   5    2.11    2.43
   1  -5  -5    1.08    1.38
   1   5  -5    1.78    1.33
  -1  -5   4   88.55    4.35
   1  -5  -4   97.42    4.08
   1  -5  -4   93.53    2.87
  -1  -5   4   84.08    3.31
   1   5  -4   91.45    3.59
   1  -5  -3  784.20   10.51
   1  -5  -3  759.43    6.50
   1   5  -3  747.72    9.14
  -1  -5   3  774.04   10.88
  -1  -5   3  772.49    6.73
  -1  -5   2  340.50    3.77
  -1  -5   2  330.74    6.05
   1  -5  -2  317.42    6.67
   1  -5  -2  330.53    3.51
  -1  -5   1  193.31    2.65
  -1  -5   1  212.65    5.53
   1  -5  -1  203.11    5.13
  -1  -5   1  196.92    4.70
  -1  -5   0   55.91    2.68
  -1  -5   0   56.61    3.22
   1  -5   0   54.16    2.92
   1  -5   1  458.91    7.61
  -1  -5  -1  444.46    7.01
  -1  -5  -1  437.28    7.59
  -1   5  -1  452.99    3.99
  -1  -5  -2 1850.27   14.63
  -1  -5  -2 1810.86   14.99
   1  -5   2 1871.79   15.39
  -1   5  -2 1839.65   10.65
   1  -5   3   70.93    3.76
   1  -5   3   75.37    3.66
  -1  -5  -3   71.02    3.33
  -1   5  -3   73.44    2.57
  -1  -5  -3   62.15    3.12
   1  -5   4  102.86    4.33
  -1  -5  -4   99.95    3.98
   1  -5   4  102.42    4.29
  -1   5  -4   99.03    3.31
  -1  -5  -4  100.66    4.05
   1  -5   5   32.53    3.62
  -1  -5  -5   33.31    2.75
  -1  -5  -5   36.90    2.93
   1  -5   5   40.04    3.33
  -1  -5  -6  313.51    7.65
   1  -5   6  315.88    7.03
  -1  -5  -6  318.15    6.88
  -1   5  -6  334.27    7.03
   1  -5   7  365.86    7.71
  -1  -5  -7  362.09    7.56
  -1  -5  -7  329.12    8.24
   1  -5   7  330.69    9.30
  -1   5  -7  368.95    8.05
  -1   5  -8    5.89    2.23
  -1  -5  -8    3.19    1.89
   1  -5   8    3.26    4.12
  -1  -5  -9   -0.03    1.86
  -1   5  -9    2.90    2.19
  -1   5 -10   29.39    3.27
   1  -5  10   27.72    5.46
  -1  -5 -10   33.47    3.66
  -1   5 -11   63.49    4.53
  -1  -5 -11   62.74    4.99
   1  -5  11   73.05    6.70
  -1   5 -12   14.06    2.86
  -1  -5 -12   15.82    3.23
   1  -5  12   14.31    5.55
  -1  -5 -13   27.13    3.89
  -1   5 -13   33.10    4.28
   1   7 -13    1.38    2.38
   1   7 -12   39.60    4.38
   1   7 -11   16.76    3.55
   1  -7 -11   12.20    3.05
   1  -7 -10    2.41    2.50
   1   7 -10    0.59    2.54
  -1  -7  10    2.38    3.34
   1   7  -9    3.14    1.79
   1  -7  -9    2.48    2.11
  -1  -7   9    4.70    3.04
  -1  -7   8  142.49    6.72
   1  -7  -8  139.78    6.39
   1   7  -8  134.08    5.74
   1   7  -7  399.11    9.09
  -1  -7   7  412.93   10.43
  -1  -7   6   12.22    3.00
   1   7  -6    9.60    1.86
   1  -7  -6   15.41    2.69
  -1  -7   5  178.98    6.84
   1  -7  -5  192.78    6.77
   1  -7  -4   15.93    2.60
   1   7  -4   18.91    2.07
  -1  -7   4   21.87    3.66
  -1  -7   3  793.74   13.17
   1  -7  -3  839.03   13.06
   1  -7  -2  841.51   12.97
  -1  -7   2  839.50   10.64
  -1  -7   2  829.24   12.90
  -1  -7   1    3.94    1.61
   1  -7  -1    5.56    2.43
  -1  -7   1   -0.10    3.08
  -1  -7   0  319.89    6.59
  -1  -7   0  321.97    8.23
   1  -7   0  319.52    7.88
  -1  -7  -1    3.76    1.71
  -1  -7  -1    5.61    2.93
   1  -7   1    1.67    2.69
  -1  -7  -2  460.88    8.17
  -1  -7  -2  440.03    9.39
   1  -7   2  465.99    9.75
   1  -7   2  467.85    8.65
  -1  -7  -3  253.13    6.41
   1  -7   3  237.39    7.38
  -1  -7  -3  257.36    7.34
   1  -7   3  257.05    6.74
   1  -7   4    5.88    2.48
  -1  -7  -4    8.33    1.90
  -1  -7  -4    9.39    2.98
   1  -7   4    1.24    2.75
  -1  -7  -5    9.83    2.22
   1  -7   5    8.54    3.00
   1  -7   5    7.10    2.98
   1  -7   6   46.37    4.23
  -1  -7  -6   63.35    4.03
  -1  -7  -6   57.17    3.91
   1  -7   6   51.86    4.65
   1  -7   7   57.43    4.99
   1  -7   7   55.08    4.37
  -1  -7  -7   56.96    3.93
  -1  -7  -7   47.66    3.83
  -1  -7  -8   47.38    4.04
   1  -7   8   51.14    5.31
   1  -7   9   24.19    5.19
  -1  -7  -9   21.24    3.23
   1  -7  10  118.00    8.08
  -1  -7 -10   99.36    5.98
  -1  -7 -11  111.21    6.56
   1  -7  11  119.93    8.01
   1  -7  12    7.82    5.17
  -1  -7 -12    4.67    2.35
  -1  -7 -13   82.01    6.26
  -1  -9  11   14.50    4.45
   1  -9 -10   70.87    5.77
  -1  -9  10   98.95    7.04
  -1  -9   9  452.13   12.78
   1  -9  -9  448.60   12.64
  -1  -9   8   30.67    4.77
   1  -9  -8   15.07    3.73
  -1  -9   7  271.99    9.75
   1  -9  -7  278.69    9.68
  -1  -9   6  113.21    6.61
  -1  -9   5 2723.57   28.26
   1  -9  -5 2761.61   28.01
   1  -9  -4   29.79    3.91
  -1  -9   4   37.45    4.67
   1  -9  -3  202.83    7.71
  -1  -9   3  176.18    7.63
   1  -9  -2 1700.19   20.90
  -1  -9   2 1719.30   21.14
  -1  -9   1  879.79   15.17
   1  -9  -1  864.81   15.15
   1  -9   0  437.95   10.91
  -1  -9   0  477.98   11.52
   1  -9   1   21.62    3.83
  -1  -9  -1   30.07    4.26
   1  -9   1   19.85    2.51
   1  -9   2  263.41    7.27
  -1  -9  -2  253.82    8.34
   1  -9   2  279.15    8.73
  -1  -9  -3  210.99    7.96
   1  -9   3  206.98    7.81
   1  -9   3  206.03    6.52
   1  -9   4   47.55    3.97
   1  -9   4   45.84    4.70
  -1  -9  -4   41.56    4.26
   1  -9   5  804.30   15.19
  -1  -9  -5  814.11   14.74
  -1  -9  -6 1475.53   20.10
   1  -9   6 1411.84   20.47
  -1  -9  -7  244.91    8.66
   1  -9   7  234.02    8.79
   1 -11 -10    5.39    4.39
  -1 -11  10    0.38    4.46
  -1 -11   9    7.70    3.94
   1 -11  -9    7.99    3.73
   1 -11  -8   88.09    6.65
  -1 -11   8   90.55    7.27
   1 -11  -7  148.36    8.10
  -1 -11   7  141.55    8.42
  -1 -11   6   -0.31    3.78
   1 -11  -6    1.10    3.49
  -1 -11   5  113.96    7.56
   1 -11  -5  140.26    7.85
  -1 -11   4   -4.19    3.49
   1 -11  -4   -0.56    3.49
   1 -11  -3  239.79    9.88
  -1 -11   3  238.98    9.72
  -1 -11   2  356.87   11.75
   1 -11  -2  351.19   11.56
   1 -11  -1   11.33    4.09
  -1 -11   1   19.44    4.72
   1 -11   0   97.71    6.57
  -1 -11   0   88.65    6.61
   1 -11   1    6.92    3.68
  -1 -11  -1    8.31    4.19
  -1 -11  -2  226.60    9.52
   1 -11   2  235.37    9.56
   1 -11   3   49.91    5.48
  -1 -11  -3   60.42    5.62
  -1 -11  -4    9.49    3.97
   1 -11   4   15.24    4.66
   1 -11   5   10.09    4.39
  -1 -11  -5    5.43    4.15
   1 -11   6   43.63    5.93
  -1 -11  -6   51.34    5.73
   1 -11   7   14.99    5.00
   1 -13  -5    1.16    4.82
  -1 -13   5   -1.16    4.93
  -1 -13   4    0.57    4.89
   1 -13  -4    9.23    4.33
  -1 -13   3  119.03    8.57
   1 -13  -3  138.75    9.12
   1 -13  -2   31.15    5.80
  -1 -13   2   35.80    5.86
  -1 -13   1   27.94    5.73
   1 -13  -1   19.27    5.05
  -1 -13   0   57.85    6.52
   1 -13   0   49.28    6.65
  -1 -13  -1   90.44    7.50
   1 -13   1   82.90    7.33
  -1 -13  -2  164.52    9.29
   1 -13   2  154.62    9.35
  -1 -13  -3   31.97    5.58
   1 -13   3   19.94    5.38
  -1 -13  -4   64.43    6.81
   1 -13   4   60.77    6.92
   1 -13   5   10.31    5.44
  -1 -13  -5    8.76    5.14
   2   0 -15   13.27    3.24
   2   0 -14  421.40   12.35
   2   0 -13    4.44    2.26
   2   0 -12  201.77    7.88
   2   0 -11    9.92    2.36
   2   0 -10 1680.42   20.35
   2   0  -9   20.04    2.79
   2   0  -8  237.57    6.61
   2   0  -7 5152.13   27.77
   2   0  -6 3959.92   22.63
   2   0  -5  764.10    9.07
   2   0  -4 1653.18   12.51
   2   0  -3  394.98    5.58
  -2   0   2  827.96    7.81
  -2   0   1 1452.16   10.24
  -2   0   0 5485.78   20.29
   2   0   1 3278.39   15.79
  -2   0  -1 3253.66   16.02
  -2   0  -2 3911.16   18.16
  -2   0  -3  810.95    8.88
   2   0   3  839.06    9.82
  -2   0  -4 6046.34   26.82
   2   0   4 6021.40   28.87
   2   0   5  736.84   11.32
  -2   0  -5  760.49   10.34
   2   0   6  252.18    7.84
  -2   0  -6  278.64    6.96
   2   0   7   58.45    5.56
  -2   0  -7   56.46    3.74
  -2   0  -8 1311.64   16.80
   2   0   8 1299.21   18.57
  -2   0  -9   88.90    5.05
   2   0   9   75.32    6.08
  -2   0 -10   11.00    2.81
   2   0  10   17.25    4.80
  -2   0 -11  902.05   16.83
  -2   0 -12  835.59   17.13
  -2   0 -13   24.92    4.17
   2  -2 -15    2.39    1.76
   2   2 -15    7.23    2.97
   2   2 -14   39.53    4.38
   2  -2 -14   34.08    3.94
   2   2 -13  107.94    6.29
   2  -2 -13  116.93    6.38
   2  -2 -13  102.26    5.90
   2  -2 -12  355.23   10.25
   2   2 -12  331.67   10.30
   2  -2 -12  326.38    9.61
   2  -2 -11   35.85    3.45
   2   2 -11   46.38    4.24
   2   2 -10  125.26    5.93
   2  -2 -10  134.00    5.70
   2  -2  -9  217.30    6.79
   2   2  -9  218.15    7.01
   2  -2  -8  418.15    8.64
   2   2  -8  365.44    8.42
   2  -2  -7 1339.62   14.89
   2   2  -7 1349.16   14.95
   2  -2  -6  293.17    6.26
   2   2  -6  270.75    6.46
   2   2  -5   51.61    2.88
   2  -2  -5   54.11    2.49
  -2  -2   4  299.36    6.18
   2   2  -4  296.91    5.88
   2  -2  -3  171.72    3.33
  -2  -2   3  163.19    4.30
  -2  -2   3  158.24    4.25
  -2  -2   2  574.42    7.37
   2  -2  -2  576.88    5.32
   2  -2  -2  594.75    7.37
  -2  -2   2  567.76    7.72
  -2  -2   1  870.41    8.24
  -2   2   1  880.26    6.25
  -2  -2   1  860.90    9.31
  -2  -2   0  764.66    7.09
   2  -2   0  760.67    7.11
  -2   2   0  749.01    6.01
   2   2   0  742.43    5.62
  -2  -2   0  733.16    8.67
  -2  -2  -1  565.04    5.60
  -2  -2  -1  537.56    7.67
  -2   2  -1  557.44    5.68
   2  -2   1  552.81    5.68
   2   2   1  556.86    5.88
   2  -2   2    2.66    1.57
   2   2   2    2.04    1.86
  -2  -2  -2    3.10    1.03
   2  -2   2    2.21    0.86
  -2  -2  -2    1.42    1.30
  -2   2  -2    2.92    1.00
   2  -2   3  361.41    7.06
   2  -2   3  356.34    4.08
  -2  -2  -3  376.79    3.94
  -2  -2  -3  351.49    6.63
   2   2   3  359.58    6.43
  -2   2  -3  365.14    5.63
   2   2   4    4.53    2.76
  -2  -2  -4    1.39    0.98
  -2  -2  -4    1.39    1.38
  -2   2  -4    2.48    1.27
   2  -2   4    1.83    1.01
   2  -2   4    4.61    2.31
   2  -2   5  645.82   10.93
  -2   2  -5  682.63    9.27
  -2  -2  -5  663.86   10.14
   2   2   5  625.03   10.42
   2   2   6 1249.29   15.19
  -2  -2  -6 1284.97   15.18
   2  -2   7   44.58    5.20
   2   2   7   43.03    4.45
  -2   2  -7   39.72    3.21
  -2   2  -8  359.96    8.77
  -2  -2  -8  347.50    9.19
   2  -2   8  374.29   10.86
  -2  -2  -9   23.78    3.32
   2  -2   9   32.07    5.68
  -2   2  -9   25.33    3.04
  -2   2 -10  131.14    6.30
   2  -2  10  125.33    7.77
  -2  -2 -11  368.81   11.29
   2  -2  11  395.50   12.48
  -2   2 -11  383.49   10.83
  -2  -2 -12   11.31    2.94
  -2   2 -12   16.51    3.46
  -2  -2 -13   27.72    4.13
  -2   2 -13   33.22    4.48
   2  -4 -15   19.57    2.89
   2   4 -14   76.19    6.12
   2  -4 -14   81.97    5.59
   2  -4 -13    6.04    2.23
   2  -4 -13   -0.10    2.27
   2  -4 -12  137.57    6.46
   2   4 -12  128.82    7.23
   2  -4 -12  145.76    6.76
   2  -4 -11  100.43    5.11
   2   4 -11   95.78    5.92
   2  -4 -11   96.59    5.33
   2  -4 -10    7.89    1.90
   2   4 -10   10.31    2.32
   2  -4 -10    4.50    1.97
   2  -4  -9   41.60    3.21
   2   4  -9   39.75    3.41
   2  -4  -9   45.82    3.51
   2  -4  -8  133.97    5.71
   2   4  -8  142.22    5.70
   2  -4  -7  152.03    4.85
  -2  -4   7  140.50    5.84
   2  -4  -7  136.72    5.42
   2   4  -7  137.42    5.22
   2  -4  -6    7.85    1.72
   2   4  -6    6.65    1.74
   2  -4  -6    7.85    1.78
  -2  -4   6    4.85    2.46
   2  -4  -5    4.79    1.37
   2  -4  -5    2.84    1.53
   2   4  -5    2.46    1.45
  -2  -4   5    1.82    2.12
  -2  -4   4  244.28    6.40
   2  -4  -4  226.68    4.01
   2   4  -4  228.83    5.68
   2  -4  -4  232.31    5.98
  -2  -4   3  932.46   11.50
   2  -4  -3  931.83    6.33
   2  -4  -3  929.26   11.30
  -2  -4   3  926.66   11.15
  -2  -4   2   35.75    2.55
  -2  -4   2   33.10    2.64
   2  -4  -2   38.51    2.36
  -2  -4   1  287.40    6.19
  -2  -4   1  273.38    5.88
   2  -4  -1  289.08    5.78
  -2  -4   0    0.74    1.41
   2  -4   0    1.52    1.18
  -2  -4   0    4.18    1.86
  -2  -4  -1 1108.33   10.80
  -2   4  -1 1096.58    6.22
   2  -4   1 1092.03   10.75
  -2  -4  -1 1121.07   12.41
   2  -4   2 1296.79   13.58
  -2  -4  -2 1267.81   11.17
   2  -4   2 1255.75   11.34
  -2   4  -2 1280.68    8.41
  -2  -4  -2 1310.89   13.75
   2  -4   3    6.03    2.32
  -2  -4  -3    8.43    1.91
   2  -4   3    8.39    1.99
  -2  -4  -3   10.32    2.12
  -2   4  -3    8.68    1.20
  -2   4  -4  112.65    3.44
   2  -4   4  109.78    3.75
  -2  -4  -4  110.30    3.51
  -2  -4  -4  115.36    4.78
   2  -4   4  116.43    5.11
  -2   4  -5    3.55    1.40
  -2  -4  -5    4.19    1.80
   2  -4   5    0.86    3.13
  -2  -4  -5    1.72    1.96
   2  -4   5    2.30    2.01
  -2  -4  -6  534.33   10.48
   2  -4   6  537.16   11.53
  -2   4  -7  136.91    4.99
  -2  -4  -7  129.61    5.64
   2  -4   8    8.22    4.46
  -2  -4  -8   10.86    2.38
  -2   4  -8    9.03    2.00
  -2   4  -9    3.57    2.12
   2  -4   9    7.69    4.67
  -2  -4  -9    4.50    2.19
  -2  -4 -10   42.41    4.12
   2  -4  10   38.06    6.41
  -2   4 -10   42.73    4.00
   2  -4  11   82.85    7.52
  -2   4 -11   73.43    5.16
  -2  -4 -12    6.86    2.87
   2  -4  12    5.90    5.56
  -2   4 -12    7.70    3.30
  -2   4 -13   11.51    3.46
  -2  -4 -13   10.01    3.33
   2   6 -13   42.88    4.98
   2   6 -12   59.36    5.55
   2  -6 -12   71.87    5.49
   2   6 -11   38.33    4.05
   2  -6 -11   49.53    4.31
   2  -6 -10  411.35   11.10
   2   6 -10  451.48   11.29
   2   6  -9    7.25    2.00
   2  -6  -9    6.98    2.37
  -2  -6   9    5.01    3.02
  -2  -6   8  259.98    8.58
   2   6  -8  244.35    7.65
   2  -6  -7 1494.19   18.66
  -2  -6   7 1483.82   18.56
   2   6  -7 1452.05   17.56
   2   6  -6 2796.28   23.65
   2  -6  -6 2833.21   24.95
  -2  -6   6 2776.11   24.77
  -2  -6   5  144.73    6.14
   2   6  -5  150.76    5.42
  -2  -6   4   49.89    4.03
   2  -6  -4   53.36    3.78
  -2  -6   3 1359.00   15.97
   2  -6  -3 1354.75   15.62
  -2  -6   3 1369.64   14.96
  -2  -6   2    1.61    1.78
  -2  -6   2   -0.13    2.55
  -2  -6   1 1894.63   17.27
  -2  -6   1 1861.02   17.66
  -2  -6   0 3543.72   23.56
  -2  -6   0 3511.80   23.75
   2  -6   0 3521.72   23.82
  -2  -6  -1 2464.43   19.47
   2  -6   1 2459.84   19.49
  -2  -6  -1 2495.81   20.00
   2  -6   2  116.03    5.00
  -2  -6  -2  121.13    4.97
  -2  -6  -2  105.31    4.59
  -2  -6  -3  673.08   11.23
  -2  -6  -3  682.65   10.40
   2  -6   3  714.31   10.95
   2  -6   3  728.24   12.15
  -2  -6  -4 3680.11   27.63
  -2  -6  -4 3826.97   23.23
   2  -6   4 3866.31   24.42
   2  -6   4 3574.62   27.28
   2  -6   5   40.19    4.21
   2  -6   5   37.37    3.48
  -2  -6  -5   33.32    3.16
  -2  -6  -5   33.79    3.26
  -2  -6  -6   35.02    3.61
   2  -6   6   35.26    4.36
   2  -6   7    5.02    3.97
  -2  -6  -7    2.21    2.03
  -2  -6  -8  390.93   10.87
   2  -6   8  385.54   11.39
   2  -6   9    5.13    4.95
  -2  -6  -9    3.44    2.07
   2  -6  10   13.18    5.99
  -2  -6 -10   -1.27    2.55
  -2  -6 -11  289.84   10.65
   2  -6  11  285.09   12.39
  -2  -6 -12  722.19   17.36
   2  -6  12  759.27   18.78
   2   8 -12   90.63    6.59
   2  -8 -12   98.91    6.94
   2   8 -11   54.98    4.89
   2  -8 -11   54.02    5.05
   2   8 -10    1.76    2.29
   2  -8 -10    9.02    3.26
  -2  -8  10    5.40    3.61
  -2  -8   9   28.37    4.42
   2  -8  -9   23.30    3.61
   2   8  -9   25.89    3.44
  -2  -8   8   68.16    5.31
   2  -8  -8   67.12    5.09
   2   8  -8   61.57    4.21
   2   8  -7  170.76    6.42
  -2  -8   7  183.54    7.91
   2  -8  -6    3.33    2.44
   2   8  -6   -0.64    1.51
  -2  -8   6   -0.41    2.72
   2   8  -5    4.30    2.03
  -2  -8   5    4.15    2.90
   2  -8  -5    3.09    2.33
  -2  -8   4   12.90    3.47
   2  -8  -4   18.13    2.98
   2   8  -4   17.63    2.54
  -2  -8   3  348.57    9.62
   2  -8  -3  372.76    9.54
  -2  -8   3  354.44    8.48
   2  -8  -2   21.19    3.27
  -2  -8   2   26.57    3.88
  -2  -8   2   16.33    2.43
  -2  -8   1   32.42    3.92
   2  -8  -1   26.84    3.39
  -2  -8   1   25.82    2.84
  -2  -8   0    7.27    3.07
  -2  -8   0    5.08    2.05
   2  -8   0    3.45    2.48
   2  -8   1  388.47    9.66
  -2  -8  -1  385.95    9.52
  -2  -8  -2  249.90    7.25
  -2  -8  -2  243.90    7.64
   2  -8   2  232.78    7.65
   2  -8   2  263.96    7.90
   2  -8   3    8.11    2.79
  -2  -8  -3    5.08    2.04
   2  -8   3    6.13    2.79
  -2  -8  -3    8.74    3.33
   2  -8   4   76.97    5.18
  -2  -8  -4   76.99    4.64
   2  -8   4   72.18    4.87
  -2  -8  -4   85.09    4.99
   2  -8   5   27.85    3.68
  -2  -8  -5   32.52    3.28
  -2  -8  -5   26.38    3.44
   2  -8   5   33.85    4.07
  -2  -8  -6  278.48    9.03
   2  -8   6  275.71    9.42
  -2  -8  -7   69.00    5.03
   2  -8   7   71.30    6.13
  -2  -8  -8   46.76    4.50
   2  -8   8   69.68    6.42
  -2  -8  -9   -0.27    2.26
   2  -8   9    1.33    5.33
  -2  -8 -10   19.53    3.37
   2  -8  10   27.14    6.46
  -2  -8 -11   79.88    6.22
   2  -8  11   79.51    8.66
  -2 -10  10   17.78    4.54
   2 -10 -10   12.49    3.98
  -2 -10   9   57.07    6.15
   2 -10  -9   80.40    6.15
  -2 -10   8   72.08    6.33
   2 -10  -8   86.37    6.52
  -2 -10   7  136.71    7.91
   2 -10  -7  172.02    8.57
  -2 -10   6   17.26    4.31
   2 -10  -6   25.45    4.35
  -2 -10   5   28.04    4.75
   2  10  -5   32.10    3.34
   2 -10  -5   34.21    4.56
   2  10  -4    2.75    2.04
  -2 -10   4    1.45    3.52
   2 -10  -4    3.44    2.95
  -2 -10   3  100.87    6.62
   2 -10  -3   97.71    6.20
   2  10  -3   88.61    4.69
  -2 -10   2   49.54    5.20
   2 -10  -2   55.74    5.00
  -2 -10   2   60.01    3.99
  -2 -10   1   18.17    4.05
   2 -10  -1   16.48    4.13
  -2 -10   1   22.18    2.76
  -2 -10   0   15.36    2.60
  -2 -10   0   17.36    4.11
   2 -10   0   17.26    3.96
  -2 -10  -1  144.56    7.29
   2 -10   1  144.34    7.49
   2 -10   1  146.89    6.29
   2 -10   2  117.76    6.03
  -2 -10  -2  104.44    6.48
   2 -10   2  112.10    6.54
  -2 -10  -3   50.68    5.03
   2 -10   3   60.52    4.96
   2 -10   4   24.74    4.59
  -2 -10  -4   23.08    4.02
   2 -10   4   33.91    4.29
   2 -10   5   28.95    4.90
  -2 -10  -5   27.46    4.27
  -2 -12   7  505.28   15.60
   2 -12  -7  532.25   15.81
  -2 -12   6  532.88   15.67
   2 -12  -6  575.20   16.00
  -2 -12   5   55.43    6.19
   2 -12  -5   76.17    6.73
  -2 -12   4   47.72    6.05
   2 -12  -4   39.32    5.42
  -2 -12   3  308.31   11.87
   2 -12  -3  295.74   11.51
   2 -12  -2   15.68    4.82
  -2 -12   2    6.06    4.41
   2 -12  -1  286.58   11.33
  -2 -12   1  289.46   11.15
  -2 -12   0  599.72   15.67
   2 -12   0  609.91   15.84
  -2 -12  -1  536.77   14.72
   2 -12   1  532.31   14.51
  -2 -12  -2   25.23    5.07
   2 -12   2   31.41    5.59
  -2 -12  -3   95.34    6.98
   2 -12   3   97.64    7.56
   2 -12   4  892.30   18.89
  -2 -12  -4  882.10   18.35
   2 -12   5   26.98    5.18
   3  -1 -15    9.03    2.61
   3   1 -15    4.27    2.50
   3  -1 -14   37.27    4.19
   3   1 -14   28.57    3.62
   3  -1 -13   62.68    4.82
   3   1 -13   48.00    4.30
   3  -1 -12   63.97    4.66
   3   1 -12   49.70    4.55
   3  -1 -11   18.88    2.79
   3   1 -11   11.32    2.41
   3  -1 -10   11.30    2.19
   3   1 -10   13.31    2.35
   3  -1  -9   26.63    2.85
   3   1  -9   25.19    2.75
   3  -1  -8  496.71    9.50
   3   1  -8  531.28   10.20
   3   1  -7   75.22    3.90
   3  -1  -7   71.30    3.61
   3   1  -6   96.64    4.24
   3  -1  -6   93.77    3.76
   3  -1  -5   59.98    2.93
   3   1  -5   58.09    3.14
   3  -1  -4  476.45    7.15
  -3   1   3 1818.66   13.22
  -3  -1   3 1830.57   15.17
  -3   1   2   90.13    3.10
  -3  -1   2   87.02    3.56
  -3   1   1  197.00    4.50
  -3  -1   1  193.54    5.02
  -3  -1   0   25.24    2.22
   3   1   0   27.95    2.04
   3  -1   1  732.65    9.73
   3   1   1  736.36    8.77
  -3  -1  -1  755.28   10.01
  -3   1  -1  763.32    8.89
   3  -1   1  718.30    6.50
  -3  -1  -2  549.32    8.85
  -3   1  -2  567.79    8.22
   3  -1   2  554.09    9.07
   3  -1   2  555.26    4.91
   3   1   2  571.70    8.40
   3   1   3   16.88    2.91
  -3  -1  -3   13.27    2.03
  -3   1  -3   14.46    1.93
   3  -1   3   20.36    2.91
  -3   1  -4    3.44    1.62
  -3  -1  -4    2.74    1.93
   3   1   4    5.35    3.02
   3  -1   4   -0.84    3.03
   3   1   5   71.02    5.08
  -3  -1  -5   66.84    3.92
  -3   1  -5   69.19    3.67
   3  -1   5   67.14    4.99
  -3  -1  -6  251.38    7.36
  -3   1  -6  231.93    6.70
   3   1   6  223.67    7.86
   3  -1   6  226.50    7.98
   3   1   7    8.52    4.17
   3  -1   7    5.45    4.34
  -3   1  -7    6.43    2.07
  -3  -1  -7    3.03    2.09
   3  -1   8   11.18    4.64
   3   1   8    9.65    4.47
  -3  -1  -8   13.80    2.96
  -3   1  -8    6.58    2.21
  -3  -1  -9   83.31    5.29
  -3   1  -9   77.18    5.06
   3   1   9   88.35    6.73
   3  -1   9   81.17    7.19
  -3  -1 -10  106.24    6.25
  -3   1 -10  128.45    6.61
   3   1  10  134.05    7.92
   3  -1  10  116.89    8.14
  -3  -1 -11   37.53    4.54
  -3   1 -11   31.45    4.32
   3  -1  11   37.77    6.58
  -3  -1 -12   83.37    6.32
  -3   1 -12   70.13    5.83
   3  -1  12   68.64    7.79
  -3   1 -13   -0.69    3.61
   3  -3 -15   90.05    5.82
   3  -3 -14  120.63    6.51
   3  -3 -14  115.91    6.54
   3  -3 -13   33.69    3.87
   3   3 -13   30.03    3.85
   3  -3 -13   25.11    3.78
   3  -3 -12  811.39   15.17
   3   3 -12  777.56   16.37
   3  -3 -12  815.78   16.60
   3   3 -11  608.55   13.44
   3  -3 -11  632.20   14.23
   3  -3 -10   14.10    2.28
   3   3 -10   16.29    2.66
   3  -3 -10   18.85    2.99
   3  -3  -9 1044.13   14.48
   3  -3  -9 1047.27   16.48
   3   3  -9 1022.53   15.77
   3   3  -8  939.90   14.12
   3  -3  -8  990.54   13.56
   3  -3  -8  971.00   15.20
   3   3  -7   24.19    2.75
   3  -3  -7   31.86    2.70
   3  -3  -7   27.40    2.85
   3   3  -6  690.88   11.54
   3  -3  -6  698.45   11.89
   3   3  -5 1420.61   15.51
   3  -3  -5 1398.38   11.88
  -3  -3   4  359.15    7.71
  -3  -3   4  345.35    7.72
   3  -3  -4  362.39    7.77
   3  -3  -4  348.97    5.48
  -3  -3   3   49.27    3.25
  -3  -3   3   60.74    3.43
   3  -3  -3   60.50    3.21
   3  -3  -3   52.47    2.10
  -3  -3   2 1011.58   12.75
   3  -3  -2 1037.53   11.37
   3  -3  -2 1043.56    7.82
  -3  -3   2 1019.50   11.60
  -3   3   1 9799.33   24.64
  -3  -3   1 9777.04   33.75
  -3  -3   1 9849.87   38.68
   3  -3  -1 9756.06   32.79
   3   3  -1 9828.98   22.19
  -3  -3   0 1078.91   10.36
  -3   3   0 1068.63    8.51
   3   3   0 1093.43    8.43
   3  -3   0 1105.67   10.50
   3  -3   1   46.53    3.21
  -3  -3  -1   49.35    2.54
  -3  -3  -1   42.50    3.19
  -3   3  -1   44.14    2.16
   3  -3   1   43.74    2.23
   3   3   1   48.99    2.67
   3  -3   2  350.40    8.05
   3   3   2  312.65    6.15
  -3  -3  -2  322.51    5.16
  -3  -3  -2  335.60    7.61
  -3   3  -2  333.34    5.61
   3  -3   2  323.66    5.38
   3  -3   3 1448.62   10.53
  -3  -3  -3 1451.79   16.23
  -3   3  -3 1433.50   12.20
   3   3   3 1406.34   13.82
   3  -3   3 1455.91   16.49
  -3  -3  -4  642.66   11.49
  -3   3  -4  704.27    9.19
   3   3   4  721.19   11.42
   3  -3   4  670.18   11.95
  -3  -3  -5   33.03    3.51
  -3   3  -5   30.76    2.41
   3  -3   5   37.92    4.61
   3   3   5   37.27    4.12
   3  -3   6  924.53   15.69
  -3  -3  -6 1027.37   15.46
  -3   3  -6 1004.52   13.07
   3   3   6  937.91   14.18
  -3  -3  -7 1131.14   16.91
  -3   3  -7 1082.47   14.71
   3   3   7 1125.55   16.13
   3  -3   7 1087.26   18.09
   3  -3   8    8.98    4.81
  -3  -3  -8   11.95    2.85
  -3   3  -8   12.81    2.48
  -3  -3  -9  653.45   14.29
   3  -3   9  679.02   15.91
  -3  -3 -10  761.52   16.49
  -3   3 -10  765.58   15.08
   3  -3  10  805.51   18.98
  -3  -3 -11   31.62    4.35
  -3   3 -11   27.84    4.02
   3  -3  11   42.03    7.61
  -3  -3 -12  140.14    8.04
  -3   3 -12  136.79    7.40
   3  -3  12  146.97   10.01
   3  -5 -14    9.45    3.06
   3  -5 -13   30.26    3.77
   3   5 -13   13.98    3.78
   3   5 -12   27.55    4.13
   3  -5 -12   25.58    3.84
   3   5 -11    1.70    2.55
   3  -5 -11    2.16    2.16
   3  -5 -10   -2.15    1.98
   3   5 -10    0.40    2.14
   3   5  -9   32.68    3.47
   3  -5  -9   37.59    3.76
   3   5  -8  500.39   11.21
   3  -5  -8  452.56   10.99
   3   5  -7   25.47    2.95
  -3  -5   7   23.51    3.62
  -3  -5   6  145.40    6.20
   3   5  -6  137.57    5.62
   3  -5  -5  105.55    5.02
   3   5  -5  102.20    4.65
  -3  -5   5  114.60    5.53
  -3  -5   4  337.20    8.24
  -3  -5   4  339.97    8.26
   3  -5  -4  328.34    8.08
  -3  -5   3 1268.41   15.16
   3  -5  -3 1271.23   15.04
  -3  -5   3 1282.37   15.65
  -3  -5   2  105.25    4.89
   3  -5  -2  112.44    4.51
  -3  -5   1  241.85    7.05
  -3  -5   1  243.10    6.51
   3  -5  -1  230.84    6.11
  -3  -5   0   64.05    3.94
  -3  -5   0   64.15    3.69
   3  -5   0   60.68    3.33
  -3  -5  -1  274.77    7.51
  -3  -5  -1  284.26    6.51
   3  -5   2  424.55    9.65
  -3  -5  -2  444.45    7.85
   3  -5   2  441.08    7.81
  -3  -5  -3   29.59    2.72
  -3  -5  -3   24.86    3.00
   3  -5   3   30.48    2.75
   3  -5   3   26.02    3.43
   3  -5   4    3.97    3.11
  -3  -5  -4    9.42    2.54
  -3  -5  -5   23.85    3.07
   3  -5   5   26.52    4.00
   3  -5   6  109.64    6.79
  -3  -5  -6  105.14    5.71
   3  -5   7   10.66    4.40
  -3  -5  -7   21.72    3.46
   3  -5   8    0.11    4.23
  -3  -5  -8    4.84    2.52
  -3  -5  -9  117.25    6.95
   3  -5   9  102.15    8.19
  -3  -5 -10  135.08    7.73
   3  -5  10  166.73   10.01
  -3  -5 -11   15.33    3.64
   3  -5  11   24.67    7.28
   3  -7 -13   46.47    5.33
   3   7 -12   77.69    5.92
   3  -7 -12   82.65    6.05
   3   7 -11   21.68    3.35
   3   7 -10   21.22    3.17
   3  -7  -9    6.49    2.61
   3   7  -9    2.43    1.91
  -3  -7   9    9.82    3.56
  -3  -7   8  132.53    6.96
   3  -7  -8  141.20    6.87
  -3  -7   7   98.08    6.15
   3   7  -7  102.04    5.37
   3  -7  -7   94.09    5.83
   3   7  -6    5.66    2.31
  -3  -7   6    1.16    2.93
   3  -7  -6    5.08    2.11
   3   7  -5   -2.02    1.84
  -3  -7   5    3.08    2.80
   3  -7  -5   -0.05    2.03
  -3  -7   4   77.04    5.12
   3  -7  -4   72.19    4.55
  -3  -7   4   73.86    4.50
  -3  -7   3  321.56    8.95
   3  -7  -3  306.64    8.48
  -3  -7   2    1.94    1.95
  -3  -7   2    4.62    2.83
   3  -7  -2    3.19    2.03
  -3  -7   1   19.79    3.34
   3  -7  -1   26.85    2.99
  -3  -7   0   26.74    3.17
  -3  -7   0   26.54    3.56
   3  -7   0   19.03    2.95
  -3  -7  -1  470.99    9.93
   3  -7   1  489.08    9.91
   3  -7   2   88.09    5.22
  -3  -7  -2   88.51    4.87
  -3  -7  -2   82.82    4.63
  -3  -7  -3   45.12    3.75
  -3  -7  -3   36.85    3.55
   3  -7   3   42.99    3.89
  -3  -7  -4   37.96    3.73
   3  -7   4   36.89    4.41
  -3  -7  -5  118.42    6.20
   3  -7   5  135.23    6.97
  -3  -7  -6  263.35    9.40
   3  -7   6  259.52    9.90
   3  -7   7    5.73    4.55
  -3  -7  -7    7.37    2.89
  -3  -7  -8   32.74    4.27
   3  -7   8   34.03    6.23
   3  -7   9    4.74    5.60
  -3  -7  -9   12.31    3.26
  -3  -7 -10   47.17    5.24
   3  -7  10   58.77    7.77
   3  -9 -11  185.57    9.70
   3   9 -11  202.26    9.01
   3  -9 -10   31.17    4.83
   3   9 -10   23.35    3.42
  -3  -9   9  707.35   16.63
   3  -9  -9  657.15   16.21
   3   9  -9  661.36   14.76
  -3  -9   8  281.98   10.79
   3  -9  -8  294.25   10.76
  -3  -9   7   40.99    5.17
   3   9  -7   49.06    4.18
   3  -9  -7   47.54    5.03
  -3  -9   6   82.77    6.33
   3   9  -6   70.93    4.98
   3  -9  -6   69.20    5.46
  -3  -9   5  332.55   10.55
   3  -9  -5  329.36   10.38
   3   9  -5  343.60    9.60
  -3  -9   4   97.14    6.28
   3  -9  -4   91.66    5.75
   3   9  -4   80.00    4.62
  -3  -9   3   65.79    5.19
   3  -9  -3   69.10    5.31
  -3  -9   3   74.43    4.83
  -3  -9   2  118.13    6.38
   3  -9  -2  127.58    6.57
  -3  -9   2  110.35    5.72
  -3  -9   1 2353.52   24.81
  -3  -9   1 2298.91   25.08
   3  -9  -1 2300.05   25.20
  -3  -9   0  612.89   13.10
  -3  -9   0  615.70   13.07
   3  -9   0  603.11   13.01
   3  -9   1   21.57    3.45
  -3  -9  -1   18.79    3.52
   3  -9   1   16.59    3.52
   3  -9   2  103.91    6.03
  -3  -9  -2   79.79    5.07
  -3  -9  -2   98.12    5.69
   3  -9   2   81.99    5.44
  -3  -9  -3  985.60   16.77
  -3  -9  -3 1014.37   16.30
   3  -9   3  996.01   17.36
  -3  -9  -4  380.58   10.89
   3  -9   4  402.82   11.74
   3  -9   5   76.74    6.32
  -3  -9  -5   71.86    5.29
  -3  -9  -6  787.65   16.95
   3  -9   6  768.32   17.02
  -3  -9  -7  340.00   11.48
   3  -9   7  310.67   11.88
  -3  -9  -8   33.45    4.28
   3  -9   8   39.33    6.26
  -3  -9  -9  503.97   14.72
   3  -9   9  480.54   15.82
  -3 -11   8   91.31    7.63
   3 -11  -8   86.10    7.43
  -3 -11   7   30.92    5.63
   3 -11  -7   23.80    4.67
  -3 -11   6   -3.65    4.01
   3 -11  -6    4.13    3.82
  -3 -11   5   11.75    4.30
   3 -11  -5   11.61    4.04
  -3 -11   4   52.43    5.89
   3 -11  -4   53.03    5.69
  -3 -11   3   88.23    6.69
   3 -11  -3   85.04    6.42
   3 -11  -2    9.31    3.82
  -3 -11   2   -0.18    3.51
  -3 -11   1   50.05    5.69
   3 -11  -1   57.77    5.92
   3 -11   0   22.19    3.98
  -3 -11   0   19.87    4.84
   3 -11   0   25.34    4.90
   3 -11   1  169.48    8.05
  -3 -11  -1  170.95    8.59
   3 -11   1  153.22    8.23
  -3 -11  -2   69.69    5.93
   3 -11   2   57.74    5.57
   3 -11   3   56.27    5.91
   3 -11   3   44.83    5.54
   3 -11   4   12.18    4.35
  -3 -13   1   34.01    6.13
   3 -13  -1   28.82    5.78
  -3 -13   0   41.21    6.61
   3 -13   0   25.39    5.47
  -3 -13  -1   69.71    7.04
   3 -13   1   54.61    6.78
  -3 -13  -2   51.67    6.71
   3 -13   2   37.61    6.27
   4   0 -14  725.77   16.82
   4   0 -13  280.99   10.44
   4   0 -12    1.53    2.25
   4   0 -11    7.14    2.10
   4   0 -10  367.93    9.78
   4   0  -9    4.06    1.53
   4   0  -8   34.62    3.08
   4   0  -7   24.03    2.60
   4   0  -6 4083.22   26.84
   4   0  -5  748.88   11.24
  -4   0   4  103.87    4.37
  -4   0   3 2496.79   19.29
  -4   0   2 3856.20   24.09
  -4   0   1 2158.31   18.32
   4   0   0    7.24    2.24
  -4   0   0    5.06    2.24
  -4   0  -1 1517.95   15.69
   4   0   1 1481.34   15.46
  -4   0  -2   81.93    4.17
   4   0   2   69.78    4.10
  -4   0  -3  158.74    5.82
   4   0   3  148.14    5.94
  -4   0  -4 2877.14   23.92
   4   0   4 2809.15   24.79
   4   0   5 1594.07   20.02
  -4   0  -5 1603.69   18.74
  -4   0  -6  288.70    8.51
   4   0   6  255.89    9.12
   4   0   7   10.48    4.62
  -4   0  -8  474.93   11.62
   4   0   8  433.28   13.12
  -4   0  -9   43.80    4.47
   4   0   9   43.38    6.79
  -4   0 -10   59.68    5.09
   4   0  10   55.88    7.07
  -4   0 -11   32.76    4.25
   4  -2 -14   40.90    4.22
   4   2 -14   35.35    4.68
   4  -2 -14   33.83    4.50
   4  -2 -13   77.28    5.23
   4   2 -13   75.93    5.81
   4  -2 -13   85.24    5.97
   4  -2 -12  122.12    6.32
   4   2 -12  120.95    6.53
   4  -2 -11   67.47    4.84
   4   2 -11   54.80    4.36
   4  -2 -10   35.31    3.53
   4   2  -9    5.76    2.01
   4  -2  -9    4.93    1.70
   4   2  -8  115.79    5.51
   4  -2  -8  100.95    4.50
   4   2  -7    8.45    2.12
   4  -2  -7   10.52    1.89
   4   2  -6    5.34    2.02
   4  -2  -6    7.72    1.57
   4  -2  -5  104.61    3.97
   4   2  -5   93.74    4.49
   4  -2  -4  529.50    8.07
  -4  -2   4  502.72    9.78
  -4  -2   3   86.60    4.42
  -4   2   3   97.79    3.61
  -4   2   2  266.01    5.62
  -4  -2   2  269.52    7.24
   4  -2  -2  266.05    6.26
   4   2  -1   64.34    3.05
  -4   2   1   67.58    3.13
  -4  -2   1   71.65    4.15
   4  -2  -1   72.72    3.30
   4   2   0  417.18    7.12
  -4   2   0  428.13    7.24
  -4  -2   0  413.28    8.83
   4  -2   0  422.52    6.69
   4  -2   1 1389.12   16.35
  -4  -2  -1 1429.53   16.64
  -4   2  -1 1430.61   13.64
   4  -2   1 1374.82   11.32
   4   2   1 1403.64   13.47
  -4  -2  -2   50.34    3.81
  -4   2  -2   55.55    3.08
   4   2   2   50.68    3.81
   4  -2   2   52.95    4.14
  -4  -2  -3  196.43    6.88
  -4   2  -3  199.12    5.73
   4   2   3  177.75    6.23
   4  -2   3  184.63    6.94
  -4  -2  -4   76.04    4.61
  -4   2  -4   74.36    3.84
   4  -2   4   72.35    4.96
  -4  -2  -5  222.39    7.67
  -4   2  -5  208.29    6.65
   4   2   5  204.52    7.51
  -4   2  -6  363.91    8.86
   4   2   6  337.02   10.16
   4  -2   6  358.46   10.83
   4  -2   7   10.72    4.49
   4   2   7   -1.36    4.28
  -4  -2  -7   -1.11    2.34
  -4   2  -7    7.77    2.24
   4   2   8    7.13    4.48
   4  -2   8    3.58    4.72
  -4  -2  -8    5.49    3.00
  -4   2  -8    3.53    2.20
   4   2   9   10.97    5.01
   4  -2   9    5.45    5.37
  -4  -2  -9    8.98    3.34
  -4   2  -9    0.34    2.39
  -4  -2 -10   36.98    4.66
   4  -2  10   41.06    7.65
   4  -2  11   17.05    6.84
  -4  -2 -11   16.51    3.87
  -4   2 -11    1.09    2.33
   4   4 -13  146.75    7.69
   4  -4 -13  145.30    7.86
   4   4 -12   59.88    4.80
   4  -4 -12   49.07    4.64
   4  -4 -11   13.23    2.98
   4   4 -11   10.12    2.72
   4  -4 -10  123.87    6.78
   4   4 -10  119.28    6.36
   4   4  -9   28.97    3.36
   4  -4  -9   19.80    3.24
   4   4  -8  521.90   11.92
   4  -4  -8  492.01   12.19
   4   4  -7  121.88    5.83
   4  -4  -7  114.77    5.83
   4   4  -6   17.14    2.62
   4  -4  -6    7.34    1.97
   4  -4  -5   64.30    4.00
   4  -4  -4  112.97    4.91
  -4  -4   4  117.80    5.43
  -4  -4   3  235.68    6.97
  -4  -4   3  223.36    7.26
   4  -4  -3  224.82    6.49
  -4  -4   2   26.78    3.29
  -4  -4   2   29.24    3.02
   4  -4  -2   25.74    2.47
  -4  -4   1    6.59    2.15
  -4  -4   1    8.10    2.49
   4  -4  -1    8.43    1.55
  -4  -4   0  147.18    4.81
  -4  -4   0  145.53    5.96
   4  -4   0  159.69    4.87
   4  -4   1  196.17    6.97
  -4  -4  -1  190.53    5.16
  -4  -4  -1  202.83    6.99
   4  -4   1  197.41    5.17
   4  -4   2   10.33    2.94
  -4  -4  -2   19.39    2.82
  -4  -4  -3   81.00    4.80
   4  -4   3   71.71    5.09
  -4  -4  -4   60.65    4.29
   4  -4   4   48.69    4.68
  -4  -4  -5  471.13   11.89
   4  -4   5  413.76   11.46
   4   4   6  186.79    7.30
   4  -4   6  166.13    8.33
  -4  -4  -7  101.89    6.46
   4  -4   7  100.63    7.20
  -4  -4  -8   44.53    5.02
   4  -4   8   52.23    6.69
  -4  -4  -9   23.28    4.43
   4  -4   9   38.42    6.97
  -4  -4 -10  162.84    8.88
   4  -4  10  180.10   10.82
   4   6 -12   17.30    3.74
   4  -6 -12   10.41    3.15
   4  -6 -11   82.57    6.25
   4   6 -11   85.74    6.05
   4  -6 -10  403.62   12.40
   4   6 -10  413.08   11.92
   4   6  -9   17.06    3.37
   4  -6  -9   14.25    3.24
   4   6  -8  234.75    8.68
   4  -6  -8  227.73    8.88
   4   6  -7  138.78    6.65
   4  -6  -7  125.31    6.45
  -4  -6   6 2609.12   26.72
   4  -6  -6 2620.36   26.97
   4   6  -6 2591.62   25.98
  -4  -6   5   44.27    4.28
   4  -6  -5   45.68    3.88
  -4  -6   4  205.23    7.37
  -4  -6   4  192.88    7.34
  -4  -6   3 1773.15   21.24
  -4  -6   3 1736.40   19.66
   4  -6  -3 1781.86   20.08
  -4  -6   2  907.13   15.42
  -4  -6   2  857.90   13.32
   4  -6  -2  894.31   13.74
  -4  -6   1  441.34   11.04
  -4  -6   1  463.20    9.71
   4  -6  -1  448.10    9.53
  -4  -6   0   17.55    3.85
  -4  -6   0   20.52    3.09
   4  -6   0   14.99    2.37
   4  -6   1  285.38    8.85
  -4  -6  -1  272.47    7.13
   4  -6   1  280.31    7.34
   4  -6   2  236.42    8.59
  -4  -6  -2  219.54    7.81
  -4  -6  -3   44.07    4.16
   4  -6   3   39.83    4.69
  -4  -6  -4  838.72   16.15
   4  -6   4  821.25   16.29
  -4  -6  -5 1427.43   21.45
   4  -6   5 1462.14   21.99
  -4  -6  -6  234.16    9.13
  -4  -6  -7   54.62    5.12
   4  -6   7   64.62    6.78
  -4  -6  -8  477.44   14.17
   4  -6   8  513.69   15.61
  -4  -6  -9   52.95    5.40
   4  -6   9   84.84    8.69
   4   8 -11    6.22    3.55
   4  -8 -11   -0.05    2.80
   4  -8 -10   63.67    5.64
   4   8 -10   73.62    5.72
   4   8  -9   17.11    3.39
   4  -8  -9    8.17    3.05
  -4  -8   8  184.40    8.90
   4   8  -8  198.15    8.41
   4  -8  -8  169.01    8.30
  -4  -8   7   62.83    5.64
   4   8  -7   51.39    4.73
   4  -8  -7   47.85    4.75
  -4  -8   6   19.15    4.12
   4   8  -6    6.86    2.69
   4  -8  -6   14.10    3.19
   4   8  -5    0.38    2.13
   4  -8  -5    5.75    2.66
  -4  -8   4   55.58    4.84
  -4  -8   4   57.08    4.65
  -4  -8   3  118.24    6.37
   4  -8  -3  104.73    5.87
  -4  -8   3  118.88    6.21
  -4  -8   2    6.18    2.47
   4  -8  -2   11.22    2.52
  -4  -8   2    5.49    2.96
  -4  -8   1    2.32    2.55
  -4  -8   1    1.50    2.93
   4  -8  -1    1.43    2.63
  -4  -8   0   74.57    5.05
   4  -8   0   70.70    4.88
   4  -8   1  189.56    8.16
  -4  -8  -1  216.53    8.31
  -4  -8  -1  191.64    7.14
   4  -8   1  212.36    7.61
   4  -8   2    7.99    3.43
  -4  -8  -2   10.41    2.85
  -4  -8  -3   42.36    4.19
   4  -8   3   50.59    5.51
   4  -8   4    1.61    4.12
  -4  -8  -4    4.32    2.53
  -4  -8  -5  242.05    9.66
   4  -8   5  277.75   10.65
  -4  -8  -6   83.06    6.30
   4  -8   6  102.17    7.92
  -4  -8  -7   26.59    4.12
   4  -8   7   26.51    6.16
  -4  -8  -8   44.94    4.88
   4  -8   8   54.09    7.97
  -4 -10   8  114.57    8.10
   4  10  -8  114.97    6.68
   4  10  -7    9.22    2.63
  -4 -10   7    9.33    4.41
   4 -10  -7    5.39    3.64
   4  10  -6    8.26    2.98
  -4 -10   6    8.17    3.96
   4 -10  -6    3.77    2.78
   4  10  -5    3.48    2.55
  -4 -10   5    1.64    3.36
  -4 -10   4  108.79    7.10
   4 -10  -4   87.44    6.42
   4  10  -4  100.92    5.82
  -4 -10   3   40.91    4.98
   4 -10  -3   48.03    5.33
  -4 -10   3   43.47    4.48
  -4 -10   2    5.18    2.76
  -4 -10   2    7.05    3.74
   4 -10  -2   13.51    3.73
  -4 -10   1   30.63    4.10
  -4 -10   1   34.13    4.85
   4 -10  -1   30.24    4.35
  -4 -10   0   82.46    5.76
  -4 -10   0   79.92    5.93
   4 -10   0   71.57    5.77
   4 -10   1  134.81    7.87
  -4 -10  -1  145.40    7.42
   4 -10   1  139.80    7.62
   4 -10   2   15.08    4.01
  -4 -10  -2   17.19    3.41
  -4 -10  -3   71.18    5.63
   4 -10   3   63.75    6.33
   4 -10   4    6.79    4.21
  -4 -10  -4    2.65    2.96
  -4 -10  -5   92.98    6.46
   4 -10   5   87.19    7.29
  -4 -10  -6   83.46    6.32
   4 -10   6   88.57    8.21
  -4 -12   3  454.91   14.39
   4 -12  -3  492.51   14.97
  -4 -12   2  287.64   11.53
   4 -12  -2  309.67   12.22
   4 -12  -1  177.63    8.96
  -4 -12   1  184.67    9.33
   4 -12  -1  206.25    9.97
   4 -12   0    7.23    4.59
  -4 -12   0    8.55    4.44
   4 -12   0    4.64    4.39
   4 -12   1  158.40    8.83
   4 -12   2   36.37    6.23
   5  -1 -14   18.76    3.19
   5  -1 -13   71.12    5.51
   5   1 -13   68.02    5.44
   5  -1 -12   17.98    3.25
   5   1 -12   11.92    2.82
   5   1 -11    3.97    1.95
   5  -1 -11    3.98    1.96
   5  -1 -10   21.15    2.90
   5   1 -10   21.10    3.00
   5  -1  -9  178.07    6.79
   5   1  -9  193.50    7.35
   5   1  -8  216.47    7.72
   5  -1  -8  220.20    7.07
   5   1  -7    1.15    1.95
   5  -1  -7    6.02    1.73
   5  -1  -6   69.88    4.06
   5   1  -6   56.20    3.99
   5  -1  -5    8.89    1.94
   5   1  -5   13.72    2.43
  -5  -1   4  469.59   10.05
  -5  -1   3  164.92    6.20
  -5   1   3  151.44    5.32
  -5   1   2   33.48    2.97
   5   1  -2   28.57    2.63
  -5  -1   2   30.34    3.13
   5   1  -1   18.34    2.56
   5  -1  -1   18.51    2.75
  -5   1   1   18.98    2.44
  -5  -1   1   16.53    2.65
   5  -1  -1   21.50    1.97
   5  -1   0  142.95    5.96
  -5   1   0  159.35    5.55
  -5  -1   0  141.98    5.84
   5   1   0  137.07    5.34
  -5   1  -1  235.39    6.73
  -5  -1  -1  255.71    7.65
   5   1   1  239.75    6.92
   5  -1   1  259.64    7.87
   5   1   2    4.76    2.73
   5  -1   2    2.83    2.85
  -5  -1  -2    2.06    2.06
  -5   1  -2    3.50    1.74
  -5  -1  -3    8.93    2.26
  -5   1  -3   10.92    2.30
   5   1   3   15.31    3.49
   5  -1   3   15.20    3.46
  -5  -1  -4   50.76    4.07
  -5   1  -4   41.12    3.44
   5   1   4   48.40    4.96
  -5  -1  -5  223.37    8.27
  -5   1  -5  229.85    7.93
   5   1   5  201.35    8.25
   5  -1   5  198.98    8.58
   5   1   6    9.07    4.59
  -5  -1  -6   14.96    3.22
  -5   1  -6   14.24    2.78
   5  -1   6   17.57    4.86
  -5  -1  -7   54.85    5.02
  -5   1  -7   56.86    4.79
   5   1   7   51.23    6.65
   5  -1   7   59.07    6.75
   5  -1   8   11.93    5.55
  -5  -1  -8    5.55    3.02
  -5   1  -8    4.89    3.03
   5   1   8   16.62    6.09
  -5  -1  -9   81.50    6.05
  -5   1  -9   68.72    5.50
   5   1   9   69.28    7.59
   5  -1   9   69.68    8.00
  -5  -1 -10   84.20    6.93
  -5   1 -10   84.74    6.41
   5   1  10   79.86    7.66
   5  -1  10   67.37    8.76
   5   3 -13  155.11    8.16
   5  -3 -13  143.78    8.83
   5   3 -12   54.35    4.95
   5  -3 -12   64.97    5.88
   5  -3 -11  500.75   14.51
   5   3 -11  522.35   13.64
   5  -3 -10   36.83    4.41
   5   3 -10   33.91    3.70
   5   3  -9  211.32    8.36
   5  -3  -9  221.96    8.87
   5   3  -8 1454.02   20.58
   5  -3  -8 1208.95   19.66
   5   3  -7  800.04   14.81
   5  -3  -7  837.79   15.77
   5   3  -6   43.65    3.94
   5  -3  -6   43.38    3.81
   5  -3  -5  226.14    7.69
  -5  -3   5  205.22    7.44
   5  -3  -4  315.11    8.73
  -5  -3   4  300.24    8.81
  -5  -3   3   34.34    3.63
   5  -3  -3   33.03    2.87
  -5  -3   2  467.21   11.05
   5  -3  -2  469.79    9.08
  -5  -3   1  874.72   14.98
   5  -3  -1  876.39   11.86
   5  -3   0 1852.29   21.11
  -5  -3   0 1826.33   21.23
   5  -3   1  232.83    8.19
  -5  -3  -1  249.54    8.22
  -5  -3  -2   37.25    3.80
   5  -3   2   35.63    4.26
  -5  -3  -3 2730.70   28.10
   5  -3   3 2868.72   28.91
  -5  -3  -4  158.05    7.13
   5  -3   4  136.15    7.26
  -5  -3  -5  263.72    9.37
   5  -3   5  269.06   10.26
   5  -3   6   13.79    4.92
  -5  -3  -6   22.05    3.90
  -5  -3  -7  457.39   13.47
   5  -3   7  464.51   14.58
  -5  -3  -8   93.26    6.63
   5  -3   8   84.16    8.22
   5  -3   9   17.54    6.47
  -5  -3  -9    5.56    2.64
   5   5 -12   11.73    2.97
   5  -5 -12   27.18    4.65
   5  -5 -11   19.90    3.86
   5   5 -11   16.23    3.38
   5   5 -10   26.34    3.63
   5  -5 -10   20.54    3.39
   5   5  -9   88.69    5.87
   5  -5  -9   93.15    5.99
   5   5  -8  188.67    8.17
   5  -5  -8  192.88    8.17
   5  -5  -7    6.23    2.37
   5  -5  -6   17.91    2.89
   5   5  -6   23.71    3.42
   5  -5  -5    3.19    2.08
  -5  -5   5    2.49    2.43
   5  -5  -4  257.32    8.20
  -5  -5   4  229.38    8.42
  -5  -5   3   56.27    4.61
   5  -5  -3   55.73    3.90
  -5  -5   2    9.38    2.74
   5  -5  -2    5.30    1.89
  -5  -5   1    3.27    2.62
   5  -5  -1    1.16    1.67
   5  -5   0  156.68    7.21
  -5  -5   0  173.30    7.38
   5  -5   1  112.68    6.57
  -5  -5  -1  108.30    6.00
  -5  -5  -2   12.47    3.06
   5  -5   2   20.35    3.94
  -5  -5  -3   18.10    3.42
   5  -5   3   18.73    4.00
  -5  -5  -4   55.43    5.06
   5  -5   4   57.11    5.56
  -5  -5  -5  205.75    9.07
   5  -5   5  208.03    9.68
  -5  -5  -6   17.92    3.87
   5  -5   6   20.26    5.69
  -5  -5  -7   71.73    5.92
   5  -5   7   47.46    6.87
  -5  -5  -8    4.99    3.52
   5  -5   8   16.83    6.47
   5   7 -10   -0.45    2.61
   5  -7 -10    4.27    2.78
   5   7  -9  160.22    8.14
   5  -7  -9  161.82    8.42
   5   7  -8   60.37    5.49
   5  -7  -8   67.80    5.26
   5   7  -7   41.04    4.60
   5  -7  -7   31.65    3.91
   5  -7  -6  108.05    6.43
   5   7  -6   88.24    6.05
  -5  -7   5   25.29    4.16
   5  -7  -5   29.97    3.68
  -5  -7   5   26.37    3.96
  -5  -7   4  355.21   10.59
   5  -7  -4  371.24   10.76
  -5  -7   3  159.24    7.07
   5  -7  -3  148.31    6.61
  -5  -7   3  145.46    7.32
  -5  -7   2   54.09    4.94
  -5  -7   2   61.77    4.73
  -5  -7   1   75.36    5.67
  -5  -7   1   65.32    4.68
   5  -7  -1   59.37    4.20
   5  -7   0   23.29    4.19
  -5  -7   0   35.58    4.49
   5  -7   1  231.80    9.67
  -5  -7  -1  180.95    8.13
   5  -7   2   19.20    4.34
  -5  -7  -2   23.61    3.38
   5  -7   3    1.95    4.21
  -5  -7  -3    0.88    2.30
   5  -7   4    5.59    4.34
  -5  -7  -4    7.37    2.62
  -5  -7  -5   54.39    5.24
   5  -7   5   60.73    6.54
   5  -7   6    3.80    5.08
  -5  -7  -6    4.98    2.89
   5  -7   7    9.46    6.52
  -5  -7  -7   13.75    3.85
   5   9  -8  518.30   14.55
   5  -9  -8  520.14   15.16
   5   9  -7  574.37   14.84
   5  -9  -7  579.40   15.85
  -5  -9   6   55.29    5.77
   5  -9  -6   55.34    5.40
   5   9  -6   58.95    5.52
  -5  -9   5   43.75    5.30
   5  -9  -5   44.00    4.70
   5   9  -5   30.41    3.89
  -5  -9   4  299.93   10.47
   5  -9  -4  296.26   10.41
  -5  -9   4  313.38   10.93
  -5  -9   3    8.29    3.91
   5  -9  -3   16.29    3.46
  -5  -9   3    4.71    3.45
  -5  -9   2  283.67   10.67
  -5  -9   2  282.99   10.00
   5  -9  -2  301.25   10.35
  -5  -9   1  603.26   15.32
   5  -9  -1  570.18   13.45
   5  -9   0  550.27   14.91
  -5  -9   0  558.65   14.91
   5  -9   1   30.75    5.13
  -5  -9  -2  105.22    7.01
   5  -9   2  101.06    7.38
  -5  -9  -3  901.88   19.28
   5  -9   3  935.18   20.02
  -5  -9  -4   36.41    4.74
   5  -9   4   38.56    6.12
  -5  -9  -5   51.66    5.57
   5  -9   5   65.50    7.60
  -5 -11   3   66.56    6.79
   5 -11  -3   63.93    6.20
  -5 -11   3   53.59    5.48
  -5 -11   2   33.58    5.16
   5 -11  -2   30.26    4.67
   5 -11  -1   69.63    6.84
  -5 -11   1   53.60    5.79
  -5 -11   0   15.22    4.21
  -5 -11  -1   63.57    5.85
   6   0 -12  455.08   12.90
   6   0 -11   30.77    3.50
   6   0 -10  325.72   10.28
   6   0  -9  738.68   14.75
   6   0  -8   58.21    4.47
   6   0  -7  409.93   10.62
   6   0  -6  974.35   15.58
   6   0  -5   95.23    5.06
  -6   0   4   15.80    2.52
  -6   0   3  600.43   11.88
  -6   0   2 2592.30   24.87
   6   0  -2 2574.52   23.80
   6   0  -1  138.78    6.36
  -6   0   1  137.80    6.21
  -6   0   0   76.66    4.68
   6   0   0   80.31    5.05
  -6   0  -1   86.78    4.99
   6   0   1   81.74    5.12
  -6   0  -2  361.56    9.81
   6   0   2  352.30   10.10
  -6   0  -3   87.51    5.25
   6   0   3   71.90    5.94
  -6   0  -4   55.05    4.57
   6   0   4   73.52    6.24
  -6   0  -5  300.90   10.03
   6   0   5  291.29   10.97
  -6   0  -6  751.52   16.07
   6   0   6  826.81   18.37
  -6   0  -7   23.85    3.47
   6   0   7   28.98    6.70
  -6   0  -8  209.83    9.59
   6   0   8  198.84   11.17
   6   2 -12   -3.99    2.09
   6  -2 -11   39.59    4.67
   6   2 -11   49.15    4.70
   6   2 -10    6.10    2.53
   6   2  -9  269.62    9.78
   6   2  -8  111.21    6.22
   6   2  -7    4.56    2.53
   6   2  -6   47.46    4.48
   6  -2  -6   70.84    4.90
   6  -2  -5   24.45    3.01
  -6  -2   5   14.06    2.96
   6  -2  -4  243.60    7.92
  -6  -2   4  222.05    8.00
  -6  -2   3   27.71    3.43
   6  -2  -3   33.26    3.18
  -6  -2   2   12.96    2.82
  -6  -2   1   13.55    2.72
   6  -2  -1    6.38    2.80
   6  -2   0  147.54    6.96
  -6  -2   0  138.52    6.58
  -6  -2  -1   33.51    3.68
   6  -2   1   27.16    4.12
  -6  -2  -2   27.77    3.70
   6  -2   2   25.67    4.34
  -6  -2  -3   -2.35    2.43
   6  -2   3   12.35    4.00
  -6  -2  -4  113.77    6.44
   6  -2   4  101.94    7.29
  -6  -2  -5  166.22    8.23
   6  -2   5  160.08    9.01
  -6  -2  -6   10.75    3.14
   6  -2   6   23.39    6.25
  -6  -2  -7   41.49    4.90
   6  -2   7   46.70    6.85
   6  -2   8    2.55    6.46
   6   4 -11    3.36    2.48
   6  -4 -11    0.09    3.00
   6   4 -10   16.24    3.49
   6  -4 -10    6.88    2.37
   6   4  -9   35.67    4.27
   6  -4  -9   31.46    3.96
   6   4  -8   16.90    3.41
   6  -4  -8   20.08    3.36
   6   4  -7    3.21    2.43
   6  -4  -7   -0.66    1.89
   6  -4  -6   13.00    2.69
   6   4  -6   19.38    3.18
   6  -4  -5  126.69    6.27
  -6  -4   5  117.33    6.59
   6  -4  -4  114.54    5.82
  -6  -4   4  129.97    6.83
  -6  -4   3   52.62    4.86
   6  -4  -3   48.68    3.93
  -6  -4   2   87.87    5.99
   6  -4  -1   25.15    4.11
  -6  -4   1   19.79    3.71
   6  -4   0  513.17   13.55
  -6  -4   0  475.36   12.70
  -6  -4  -1  123.59    6.79
   6  -4   1  123.04    7.24
  -6  -4  -2   53.65    5.00
   6  -4   2   53.00    5.56
  -6  -4  -3   83.53    5.94
   6  -4   3   95.67    6.97
  -6  -4  -4   21.85    4.03
   6  -4   4   19.12    4.87
  -6  -4  -5  194.59    9.06
   6  -4   5  177.43    9.91
  -6  -4  -6   27.07    4.40
   6  -4   6   29.94    6.53
   6  -4   7    4.60    6.59
  -6  -4  -7    5.05    3.82
   6   6  -9  254.18   10.53
   6  -6  -9  256.51   10.79
   6   6  -8   -2.93    3.12
   6  -6  -8    7.16    3.05
   6   6  -7  217.56    9.35
   6  -6  -7  209.08    9.21
   6  -6  -6  263.22    9.76
   6   6  -6  298.29   10.48
   6  -6  -5  186.74    8.02
  -6  -6   5  216.86    9.32
   6  -6  -4    8.37    2.68
  -6  -6   4    4.06    2.84
   6  -6  -3  120.13    6.25
  -6  -6   3  116.45    7.07
  -6  -6   2 2049.35   27.39
   6  -6  -1  136.69    7.68
  -6  -6   1  163.91    8.53
   6  -6   0   12.94    4.32
  -6  -6   0    6.53    3.55
   6  -6   1  210.75    9.57
  -6  -6  -1  186.98    8.95
  -6  -6  -2  317.12   11.40
   6  -6   2  287.69   11.42
  -6  -6  -3  204.60    9.26
   6  -6   3  234.14   10.77
   6  -6   4    5.44    4.66
  -6  -6  -4    1.33    3.08
  -6  -6  -5  257.37   10.94
   6  -6   5  235.83   11.65
   6  -8  -7    2.81    2.98
   6  -8  -6    3.84    3.18
   6   8  -6    0.80    3.42
   6  -8  -5   58.46    5.25
   6   8  -5   78.02    6.15
   6  -8  -4   84.81    5.91
  -6  -8   4   67.24    5.74
  -6  -8   3    6.20    3.30
   6  -8  -3   13.49    3.30
  -6  -8   1   18.24    4.04
   6  -8  -1   10.45    4.42
   6  -8   0  179.46    9.66
  -6  -8   0  174.49    9.06
   6  -8   1   65.81    6.76
  -6  -8  -1   61.31    5.83
  -6  -8  -2   34.75    5.12
   6  -8   2   30.86    6.27
   7   1 -10   30.88    3.66
   7   1  -9  135.58    7.40
   7   1  -8    6.66    2.65
   7   1  -7   29.31    3.99
   7   1  -6    9.96    3.11
   7  -1  -5  111.70    6.21
   7   1  -5  112.57    6.39
  -7  -1   4  151.22    6.99
  -7  -1   3    1.66    2.52
  -7  -1   2   25.86    3.59
  -7  -1   1    5.75    2.33
   7  -1  -1   24.36    4.16
  -7  -1   0  119.01    6.45
   7  -1   0  109.78    6.93
   7  -1   1   11.16    4.03
  -7  -1  -1    8.08    2.76
   7  -1   2   10.89    4.46
  -7  -1  -2   12.69    2.85
   7  -1   3    5.46    4.84
  -7  -1  -3    2.42    2.24
  -7  -1  -4   65.09    5.26
   7  -1   4   84.28    7.61
  -7  -1  -5   31.92    4.12
   7  -1   5   31.58    6.56
   7   3  -9   54.50    5.26
   7  -3  -9   28.37    4.27
   7   3  -8   34.74    4.74
   7  -3  -8   25.97    3.84
   7   3  -7  956.05   18.80
   7  -3  -7  909.70   17.95
   7  -3  -6  121.41    6.71
   7   3  -6  102.47    6.69
  -7  -3   4  524.37   13.68
   7  -3  -3  680.14   15.38
  -7  -3   3  652.97   15.37
  -7  -3   2  312.40   10.95
   7  -3  -2  295.02   10.74
   7  -3  -1   12.27    4.26
  -7  -3   1   15.65    3.79
  -7  -3   0  346.58   11.34
   7  -3   0  349.24   11.93
  -7  -3  -1   49.71    4.96
   7  -3   1   52.98    6.28
  -7  -3  -2   77.25    5.79
   7  -3   2   68.78    6.64
  -7  -3  -3  601.77   15.36
   7  -3   3  583.28   16.11
  -7  -3  -4  584.65   15.64
   7  -3   4  598.71   17.03
   7  -5  -8   -4.23    2.89
   7   5  -7   61.55    5.75
   7  -5  -7   36.04    4.40
   7  -5  -6    6.83    2.87
   7   5  -6    2.00    2.75
  -7  -5   5  140.35    7.90
  -7  -5   4  150.29    8.16
  -7  -5   3   17.65    3.91
  -7  -5   2   32.67    4.55
   7  -5  -2   41.77    5.41
  -7  -5   1   -0.39    2.99
   7  -5  -1    2.31    4.15
   7  -5   0  142.29    8.42
  -7  -5   0  110.77    7.30
   7  -5   1   12.55    5.04
  -7  -5  -1   21.76    3.84
   7  -5   2   10.43    5.13
  -7  -5  -2    7.12    3.59
   8   2  -6   27.75    5.02
   8   2  -5   71.52    5.95
  -8  -2   4    0.32    3.14
  -8  -2   3   71.16    5.91
  -8  -2   2    7.18    3.24
  -8  -2   1  160.55    8.37
  -8  -2   0  147.71    8.16
   0   0   0    0.00    0.00



_computing_structure_solution     'SHELXT 2014/5 (Sheldrick, 2014)'
_computing_structure_solution     'SHELXT 2014/5 (Sheldrick, 2014)'
_computing_structure_solution     'SHELXT 2014/5 (Sheldrick, 2014)'
;
loop_
_space_group_symop_operation_xyz
'x, y, z'
'-x, y, -z'
'x+1/2, y+1/2, z'
'-x+1/2, y+1/2, -z'
'-x, -y, -z'
'x, -y, z'
'-x+1/2, -y+1/2, -z'
'x+1/2, -y+1/2, z'
loop_
_atom_site_label
_atom_site_type_symbol
_atom_site_fract_x
_atom_site_fract_y
_atom_site_fract_z
_atom_site_U_iso_or_equiv
_atom_site_adp_type
_atom_site_occupancy
_atom_site_site_symmetry_order
_atom_site_calc_flag
_atom_site_refinement_flags_posn
_atom_site_refinement_flags_adp
_atom_site_refinement_flags_occupancy
_atom_site_disorder_assembly
_atom_site_disorder_group
K1 K 1.000000 0.000000 0.000000 0.0287(3) Uani 1 4 d S T P A .
F1 F 0.3672(3) 0.500000 0.59653(16) 0.0122(3) Uani 1 2 d S T P . .
O1 O 0.5119(4) 0.000000 0.1673(2) 0.0163(4) Uani 1 2 d S T P . .
O2 O 0.8282(3) 0.22812(18) 0.16727(14) 0.0164(3) Uani 1 1 d . . . . .
O3 O 0.6313(3) 0.16655(14) 0.39191(14) 0.0098(3) Uani 1 1 d . . . . .
Si1 Si 0.57553(9) 0.16665(5) 0.22461(5) 0.00728(15) Uani 0.7 1 d . . . A 1
Al1 Al 0.57553(9) 0.16665(5) 0.22461(5) 0.00728(15) Uani 0.3 1 d . . . A 2
Mg2 Mg 0.500000 0.33029(9) 0.500000 0.0084(2) Uani 0.934 2 d S T P A 3
Al3 Al 0.500000 0.33029(9) 0.500000 0.0084(2) Uani 0.066 2 d S T P A 4
Mg1 Mg 0.000000 0.500000 0.500000 0.0089(3) Uani 0.934 4 d S T P A 5
Al2 Al 0.000000 0.500000 0.500000 0.0089(3) Uani 0.066 4 d S T P A 6
loop_
_atom_site_aniso_label
_atom_site_aniso_U_11
_atom_site_aniso_U_22
_atom_site_aniso_U_33
_atom_site_aniso_U_23
_atom_site_aniso_U_13
_atom_site_aniso_U_12
K1 0.0283(5) 0.0296(6) 0.0283(5) 0.000 0.0049(4) 0.000
F1 0.0094(7) 0.0132(8) 0.0139(7) 0.000 0.0018(5) 0.000
O1 0.0189(10) 0.0117(9) 0.0171(9) 0.000 -0.0002(7) 0.000
O2 0.0137(6) 0.0197(7) 0.0157(6) -0.0027(6) 0.0026(5) -0.0050(5)
O3 0.0083(6) 0.0087(6) 0.0124(6) -0.0003(4) 0.0016(4) -0.0002(4)
Si1 0.0055(2) 0.0063(2) 0.0100(2) -0.00030(16) 0.00113(16) 0.00001(15)
Al1 0.0055(2) 0.0063(2) 0.0100(2) -0.00030(16) 0.00113(16) 0.00001(15)
Mg2 0.0056(4) 0.0066(4) 0.0130(4) 0.000 0.0016(3) 0.000
Al3 0.0056(4) 0.0066(4) 0.0130(4) 0.000 0.0016(3) 0.000
Mg1 0.0064(5) 0.0064(5) 0.0140(6) 0.000 0.0020(4) 0.000
Al2 0.0064(5) 0.0064(5) 0.0140(6) 0.000 0.0020(4) 0.000
loop_
_atom_type_symbol
_atom_type_description
_atom_type_scat_dispersion_real
_atom_type_scat_dispersion_imag
_atom_type_scat_source
Al Al 0.0645 0.0514 'International Tables Vol C Tables 4.2.6.8 and 6.1.1.4'
F F 0.0171 0.0103 'International Tables Vol C Tables 4.2.6.8 and 6.1.1.4'
K K 0.2009 0.2494 'International Tables Vol C Tables 4.2.6.8 and 6.1.1.4'
Mg Mg 0.0486 0.0363 'International Tables Vol C Tables 4.2.6.8 and 6.1.1.4'
O O 0.0106 0.0060 'International Tables Vol C Tables 4.2.6.8 and 6.1.1.4'
Si Si 0.0817 0.0704 'International Tables Vol C Tables 4.2.6.8 and 6.1.1.4'
loop_
_geom_angle_atom_site_label_1
_geom_angle_atom_site_label_2
_geom_angle_atom_site_label_3
_geom_angle
_geom_angle_site_symmetry_1
_geom_angle_site_symmetry_3
O1 K1 O1 180.0 5_655 1_655
O1 K1 O1 180.0 5_755 .
O1 K1 O1 115.37(7) 1_655 .
O1 K1 O1 115.37(7) 5_655 5_755
O1 K1 O1 64.63(7) 5_655 .
O1 K1 O1 64.63(7) 1_655 5_755
O1 K1 O2 90.95(4) 5_655 2_755
O1 K1 O2 50.29(3) 5_655 7_655
O1 K1 O2 50.29(3) 5_655 4_645
O1 K1 O2 89.05(4) 1_655 2_755
O1 K1 O2 129.71(3) 5_655 3_545
O1 K1 O2 89.05(4) 5_655 .
O1 K1 O2 97.13(4) 5_755 4_645
O1 K1 O2 90.95(4) 1_655 .
O1 K1 O2 97.13(4) 5_755 7_655
O1 K1 O2 90.95(4) 5_655 5_755
O1 K1 O2 82.87(4) 5_755 3_545
O1 K1 O2 89.05(4) 1_655 5_755
O1 K1 O2 129.71(3) 1_655 4_645
O1 K1 O2 89.05(4) 5_655 6
O1 K1 O2 82.87(4) . 4_645
O1 K1 O2 90.95(4) 1_655 6
O1 K1 O2 97.13(4) . 3_545
O1 K1 O2 129.71(3) 5_655 8
O1 K1 O2 82.87(4) . 7_655
O1 K1 O2 50.29(3) 1_655 8
O1 K1 O2 50.29(3) 1_655 3_545
O1 K1 O2 82.87(4) 5_755 8
O1 K1 O2 97.13(4) . 8
O1 K1 O2 129.71(3) 1_655 7_655
O2 K1 O1 50.29(3) 5_755 5_755
O2 K1 O1 129.71(3) 5_755 .
O2 K1 O1 50.29(3) . .
O2 K1 O1 129.71(3) 6 5_755
O2 K1 O1 50.29(3) 6 .
O2 K1 O1 50.29(3) 2_755 5_755
O2 K1 O1 129.71(3) . 5_755
O2 K1 O1 129.71(3) 2_755 .
O2 K1 O2 50.045(18) 5_755 4_645
O2 K1 O2 115.57(5) 6 8
O2 K1 O2 129.955(17) 5_755 8
O2 K1 O2 64.43(5) 6 4_645
O2 K1 O2 129.955(17) 2_755 3_545
O2 K1 O2 115.57(5) 2_755 4_645
O2 K1 O2 82.60(6) 8 7_655
O2 K1 O2 129.955(18) . 4_645
O2 K1 O2 64.43(5) 5_755 3_545
O2 K1 O2 50.045(18) . 8
O2 K1 O2 64.43(5) . 7_655
O2 K1 O2 180.0 6 2_755
O2 K1 O2 115.57(5) . 3_545
O2 K1 O2 180.00(5) 8 4_645
O2 K1 O2 97.40(6) 4_645 7_655
O2 K1 O2 88.77(6) 2_755 .
O2 K1 O2 91.23(6) 6 .
O2 K1 O2 82.60(6) 4_645 3_545
O2 K1 O2 50.045(17) 6 3_545
O2 K1 O2 115.57(5) 5_755 7_655
O2 K1 O2 180.0 7_655 3_545
O2 K1 O2 97.40(6) 8 3_545
O2 K1 O2 91.23(6) 5_755 2_755
O2 K1 O2 180.0 5_755 .
O2 K1 O2 88.77(6) 5_755 6
O2 K1 O2 129.955(18) 6 7_655
O2 K1 O2 64.43(5) 2_755 8
O2 K1 O2 50.045(18) 2_755 7_655
Mg2 F1 Mg2 100.53(8) 5_666 .
K1 O1 K1 115.37(7) 1_455 .
Si1 O1 K1 92.85(8) 6 .
Si1 O1 K1 108.21(8) 6 1_455
Si1 O1 K1 108.21(8) . 1_455
Si1 O1 K1 92.85(8) . .
Si1 O1 Si1 136.24(14) 6 .
Al1 O1 K1 92.85(8) . .
K1 O2 K1 115.57(5) . 3_455
Si1 O2 K1 92.69(7) 8 3_455
Si1 O2 K1 93.08(7) . 3_455
Si1 O2 K1 108.01(7) . .
Si1 O2 K1 108.37(7) 8 .
Si1 O2 Si1 136.13(10) . 8
Al1 O2 K1 108.01(7) . .
Si1 O3 Mg2 121.32(8) . 7_656
Si1 O3 Mg1 121.33(7) . 3_545
Al1 O3 Mg1 121.33(7) . 3_545
Mg2 O3 Mg1 94.96(6) . 3_545
Mg2 O3 Mg1 96.04(6) 7_656 3_545
Al3 O3 Mg1 94.96(6) . 3_545
K1 Si1 K1 88.624(18) 1_455 .
K1 Si1 K1 88.867(17) . 3_455
K1 Si1 K1 88.89(2) 1_455 3_455
O1 Si1 K1 123.19(7) . 3_455
O1 Si1 K1 61.31(8) . .
O1 Si1 K1 47.29(7) . 1_455
O1 Si1 O3 110.12(9) . .
O2 Si1 K1 123.02(6) . 1_455
O2 Si1 K1 61.52(6) 8_455 1_455
O2 Si1 K1 123.04(6) 8_455 .
O2 Si1 K1 61.22(6) . 3_455
O2 Si1 K1 47.54(6) . .
O2 Si1 K1 47.28(6) 8_455 3_455
O2 Si1 O1 108.81(10) 8_455 .
O2 Si1 O1 108.85(10) . .
O2 Si1 O2 108.51(6) . 8_455
O2 Si1 O3 110.36(8) . .
O2 Si1 O3 110.16(8) 8_455 .
O3 Si1 K1 126.23(5) . .
O3 Si1 K1 126.03(5) . 1_455
O3 Si1 K1 126.08(5) . 3_455
K1 Al1 K1 88.624(18) 1_455 .
K1 Al1 K1 88.89(2) 1_455 3_455
K1 Al1 K1 88.867(17) . 3_455
O1 Al1 K1 61.31(8) . .
O1 Al1 K1 123.19(7) . 3_455
O1 Al1 K1 47.29(7) . 1_455
O1 Al1 O3 110.12(9) . .
O2 Al1 K1 61.22(6) . 3_455
O2 Al1 K1 47.54(6) . .
O2 Al1 K1 123.02(6) . 1_455
O2 Al1 K1 47.28(6) 8_455 3_455
O2 Al1 K1 61.52(6) 8_455 1_455
O2 Al1 K1 123.04(6) 8_455 .
O2 Al1 O1 108.81(10) 8_455 .
O2 Al1 O1 108.85(10) . .
O2 Al1 O2 108.51(6) . 8_455
O2 Al1 O3 110.36(8) . .
O2 Al1 O3 110.16(8) 8_455 .
O3 Al1 K1 126.03(5) . 1_455
O3 Al1 K1 126.08(5) . 3_455
O3 Al1 K1 126.23(5) . .
F1 Mg2 F1 79.47(8) 5_666 .
F1 Mg2 O3 176.45(6) 5_666 2_656
F1 Mg2 O3 82.43(6) 5_666 7_656
F1 Mg2 O3 97.53(5) 5_666 .
F1 Mg2 O3 97.53(5) . 2_656
F1 Mg2 O3 96.32(6) . 7_656
F1 Mg2 O3 96.32(6) 5_666 8_455
F1 Mg2 O3 82.43(6) . 8_455
F1 Mg2 O3 176.46(6) . .
F1 Mg2 Mg2 138.68(5) 5_666 7_556
F1 Mg2 Mg2 39.74(4) . 5_666
F1 Mg2 Mg2 39.74(4) 5_666 5_666
F1 Mg2 Mg2 89.96(4) . 7_556
F1 Mg2 Mg2 138.68(5) . 7_656
F1 Mg2 Mg2 89.96(4) 5_666 7_656
O3 Mg2 O3 85.52(8) . 2_656
O3 Mg2 O3 178.39(8) 8_455 7_656
O3 Mg2 O3 96.08(6) 2_656 7_656
O3 Mg2 O3 85.11(6) 2_656 8_455
O3 Mg2 O3 85.11(6) . 7_656
O3 Mg2 O3 96.08(6) . 8_455
O3 Mg2 Mg2 42.65(4) 2_656 7_556
O3 Mg2 Mg2 137.24(4) 2_656 5_666
O3 Mg2 Mg2 138.72(5) 7_656 7_556
O3 Mg2 Mg2 42.65(4) . 7_656
O3 Mg2 Mg2 91.10(5) . 7_556
O3 Mg2 Mg2 89.19(4) 7_656 5_666
O3 Mg2 Mg2 137.24(4) . 5_666
O3 Mg2 Mg2 138.72(5) 8_455 7_656
O3 Mg2 Mg2 89.19(4) 8_455 5_666
O3 Mg2 Mg2 42.46(4) 7_656 7_656
O3 Mg2 Mg2 42.46(4) 8_455 7_556
O3 Mg2 Mg2 91.10(5) 2_656 7_656
F1 Al3 F1 79.47(8) 5_666 .
F1 Al3 O3 97.53(5) . 2_656
F1 Al3 O3 82.43(6) . 8_455
F1 Al3 O3 97.53(5) 5_666 .
F1 Al3 O3 96.32(6) 5_666 8_455
F1 Al3 O3 176.46(6) . .
F1 Al3 O3 82.43(6) 5_666 7_656
F1 Al3 O3 176.45(6) 5_666 2_656
F1 Al3 O3 96.32(6) . 7_656
O3 Al3 O3 85.11(6) 2_656 8_455
O3 Al3 O3 178.39(8) 8_455 7_656
O3 Al3 O3 96.08(6) 2_656 7_656
O3 Al3 O3 85.52(8) . 2_656
O3 Al3 O3 96.08(6) . 8_455
O3 Al3 O3 85.11(6) . 7_656
F1 Mg1 F1 180.0 5_566 .
F1 Mg1 O3 97.43(5) 5_566 8_455
F1 Mg1 O3 97.43(5) 5_566 3_455
F1 Mg1 O3 97.43(5) . 7_556
F1 Mg1 O3 82.57(5) . 8_455
F1 Mg1 O3 82.57(5) 5_566 7_556
F1 Mg1 O3 82.57(5) 5_566 4_556
F1 Mg1 O3 97.43(5) . 4_556
F1 Mg1 O3 82.57(5) . 3_455
O3 Mg1 O3 84.55(7) 4_556 3_455
O3 Mg1 O3 180.00(5) 3_455 7_556
O3 Mg1 O3 95.45(7) 4_556 7_556
O3 Mg1 O3 180.00(6) 8_455 4_556
O3 Mg1 O3 84.55(7) 8_455 7_556
O3 Mg1 O3 95.45(7) 8_455 3_455
F1 Al2 F1 180.0 5_566 .
F1 Al2 O3 97.43(5) 5_566 3_455
F1 Al2 O3 97.43(5) . 7_556
F1 Al2 O3 82.57(5) . 8_455
F1 Al2 O3 82.57(5) . 3_455
F1 Al2 O3 82.57(5) 5_566 4_556
F1 Al2 O3 82.57(5) 5_566 7_556
F1 Al2 O3 97.43(5) 5_566 8_455
F1 Al2 O3 97.43(5) . 4_556
O3 Al2 O3 84.55(7) 4_556 3_455
O3 Al2 O3 95.45(7) 4_556 7_556
O3 Al2 O3 84.55(7) 8_455 7_556
O3 Al2 O3 180.00(5) 3_455 7_556
O3 Al2 O3 95.45(7) 8_455 3_455
O3 Al2 O3 180.00(6) 8_455 4_556
loop_
_geom_bond_atom_site_label_1
_geom_bond_atom_site_label_2
_geom_bond_distance
_geom_bond_site_symmetry_2
K1 O1 2.936(2) 5_655
K1 O1 3.335(2) .
K1 O1 2.936(2) 1_655
K1 O1 3.335(2) 5_755
K1 O2 2.9458(16) 2_755
K1 O2 3.3399(17) 4_645
K1 O2 3.3399(17) 3_545
K1 O2 2.9458(16) .
K1 O2 3.3399(17) 7_655
K1 O2 2.9458(16) 5_755
K1 O2 2.9458(16) 6
K1 O2 3.3399(17) 8
F1 Mg2 2.0367(12) 5_666
F1 Mg2 2.0367(12) .
F1 Al3 2.0367(12) .
F1 Mg1 2.0191(17) .
F1 Al2 2.0191(17) .
O1 Si1 1.6573(10) 6
O1 Si1 1.6574(10) .
O1 Al1 1.6574(10) .
O2 Si1 1.6524(16) .
O2 Si1 1.6529(16) 8
O2 Al1 1.6524(16) .
O3 Si1 1.6679(15) .
O3 Al1 1.6679(15) .
O3 Mg2 2.0659(15) 7_656
O3 Mg2 2.0582(15) .
O3 Al3 2.0582(15) .
O3 Mg1 2.0774(13) 3_545
Mg2 Mg2 3.0380(10) 7_556
Mg2 Mg2 3.1324(18) 5_666
Mg2 Mg2 3.0380(10) 7_656
